{
    "cas_no": "127-19-5",
    "key_name": "Dimethylacetamide",
    "cn_name": "N,N-二甲基乙酰胺;DMAC;",
    "alternate_name": "Acetamide, <em>N</em>,<em>N</em>-dimethyl-;<em>N</em>,<em>N</em>-Dimethylacetamide;Acetdimethylamide;Dimethylacetamide;Dimethylamide acetate;DMA;<em>N</em>,<em>N</em>-Dimethylethanamide;DMAc;NSC 3138;Ejjyxa 2",
    "duplicated_cas_no": "",
    "SMILES": "C(N(C)C)(C)=O",
    "meta_data": {
        "InChI": "InChI=1S/C4H9NO/c1-4(6)5(2)3/h1-3H3",
        "InChIKey": null,
        "Canonical SMILES": "O=C(N(C)C)C",
        "Molecular Formula": "C<sub>4</sub>H<sub>9</sub>NO",
        "Molecular Mass": "87.12",
        "Boiling Point": "163-165 °C",
        "Melting Point": "-18.59 °C",
        "Density": "0.9366 g/cm³ @ Temp: 25 °C"
    }
}