{
    "cas_no": "1603-91-4",
    "key_name": "2-Amino-4-methylthiazole",
    "cn_name": "2-氨基-4-甲基噻唑;",
    "alternate_name": "2-Thiazolamine, 4-methyl-;Thiazole, 2-amino-4-methyl-;4-Methyl-2-thiazolamine;2-Amino-4-methylthiazole;Normotiroide;4-Methyl-2-aminothiazole;4-Methyl-2-thiazolylamine;4-Methyl-1,3-thiazol-2-amine;Nomortiroide;NSC 40462;Aminomethiazole bitartrate;2-Amino-4-methyl-1,3-thiazole",
    "duplicated_cas_no": "",
    "SMILES": "CC=1N=C(N)SC1",
    "meta_data": {
        "InChI": "InChI=1S/C4H6N2S/c1-3-2-7-4(5)6-3/h2H,1H3,(H2,5,6)",
        "InChIKey": null,
        "Canonical SMILES": "N1=C(SC=C1C)N",
        "Molecular Formula": "C<sub>4</sub>H<sub>6</sub>N<sub>2</sub>S",
        "Molecular Mass": "114.17",
        "Boiling Point": "124-126 °C @ Press: 20 Torr",
        "Melting Point": "45.5 °C"
    }
}