{
    "cas_no": "99465-10-8",
    "key_name": "7-Bromoquinolin-2(1<em>H</em>)-one",
    "cn_name": null,
    "alternate_name": "2(1<em>H</em>)-Quinolinone, 7-bromo-;7-Bromo-2(1<em>H</em>)-quinolinone;7-Bromoquinolin-2(1<em>H</em>)-one;7-Bromo-2-hydroxyquinoline;7-Bromoquinoline-2(1<em>H</em>)-one;7-Bromo-2-quinolinone;7-Bromo-1,2-dihydroquinolin-2-one",
    "duplicated_cas_no": "",
    "SMILES": "BrC=1C=C2C(C=CC(=O)N2)=CC1",
    "meta_data": {
        "InChI": "InChI=1S/C9H6BrNO/c10-7-3-1-6-2-4-9(12)11-8(6)5-7/h1-5H,(H,11,12)",
        "InChIKey": null,
        "Canonical SMILES": "O=C1C=CC=2C=CC(Br)=CC2N1",
        "Molecular Formula": "C<sub>9</sub>H<sub>6</sub>BrNO",
        "Molecular Mass": "224.05",
        "Melting Point": "270-272 °C"
    }
}