{
    "cas_no": "1121-84-2",
    "key_name": "β-Methyl-δ-valerolactone",
    "cn_name": "3-甲基-5-戊内酯;3-甲基-5-戊内酯;",
    "alternate_name": "2<em>H</em>-Pyran-2-one, tetrahydro-4-methyl-;Valeric acid, 5-hydroxy-3-methyl-, lactone;Valeric acid, 5-hydroxy-3-methyl-, δ-lactone;Tetrahydro-4-methyl-2<em>H</em>-pyran-2-one;β-Methyl-δ-valerolactone;(±)-3-Methylvalerolactone;NSC 32358;4-Methyltetrahydropyran-2-one;3-Methyl-δ-valerolactone;4-Methyltetrahydro-2<em>H</em>-pyran-2-one;(RS)-tetrahydro-4-methylpyran-2-one",
    "duplicated_cas_no": "104032-96-4;62989-38-2",
    "SMILES": "CC1CC(=O)OCC1",
    "meta_data": {
        "InChI": "InChI=1S/C6H10O2/c1-5-2-3-8-6(7)4-5/h5H,2-4H2,1H3",
        "InChIKey": null,
        "Canonical SMILES": "O=C1OCCC(C)C1",
        "Molecular Formula": "C<sub>6</sub>H<sub>10</sub>O<sub>2</sub>",
        "Molecular Mass": "114.14",
        "Boiling Point": "90 °C @ Press: 12 Torr",
        "Density": "1.044 g/cm³ @ Temp: 25 °C"
    }
}