{
    "cas_no": "6335-76-8",
    "key_name": "Ethyl β-aminobenzenepropanoate",
    "cn_name": null,
    "alternate_name": "Benzenepropanoic acid, β-amino-, ethyl ester;Hydrocinnamic acid, β-amino-, ethyl ester;Ethyl β-aminobenzenepropanoate;Ethyl 3-amino-3-phenylpropionate;3-Amino-3-phenylpropanoic acid ethyl ester;NSC 38811;β-Aminobenzenepropanoic acid ethyl ester;3-Amino-3-phenyl-propionic acid ethyl ester",
    "duplicated_cas_no": "64520-54-3",
    "SMILES": "C(CC(OCC)=O)(N)C1=CC=CC=C1",
    "meta_data": {
        "InChI": "InChI=1S/C11H15NO2/c1-2-14-11(13)8-10(12)9-6-4-3-5-7-9/h3-7,10H,2,8,12H2,1H3",
        "InChIKey": null,
        "Canonical SMILES": "O=C(OCC)CC(N)C=1C=CC=CC1",
        "Molecular Formula": "C<sub>11</sub>H<sub>15</sub>NO<sub>2</sub>",
        "Molecular Mass": "193.24",
        "Boiling Point": "155 °C @ Press: 13 Torr",
        "Melting Point": "111-112 °C"
    }
}