{
    "cas_no": "6901-13-9",
    "key_name": "Lumicolchicine",
    "cn_name": null,
    "alternate_name": "Acetamide, <em>N</em>-[(7<em>S</em>,7b<em>R</em>,10a<em>S</em>)-5,6,7,7b,8,10a-hexahydro-1,2,3,9-tetramethoxy-8-oxobenzo[<em>a</em>]cyclopenta[3,4]cyclobuta[1,2-<em>c</em>]cyclohepten-7-yl]-;β-Lumicolchicine;Acetamide, <em>N</em>-(5,6,7,7b,8,10a-hexahydro-1,2,3,9-tetramethoxy-8-oxobenzo[<em>a</em>]cyclopenta[3,4]cyclobuta[1,2-<em>c</em>]cyclohepten-7-yl)-, [7<em>S</em>-(7α,7bβ,10aβ)]-;Benzo[<em>a</em>]cyclopenta[3,4]cyclobuta[1,2-<em>c</em>]cycloheptene, acetamide deriv.;<em>N</em>-[(7<em>S</em>,7b<em>R</em>,10a<em>S</em>)-5,6,7,7b,8,10a-Hexahydro-1,2,3,9-tetramethoxy-8-oxobenzo[<em>a</em>]cyclopenta[3,4]cyclobuta[1,2-<em>c</em>]cyclohepten-7-yl]acetamide;Lumicolchicine;NSC 221661;NSC 56233;β-Lumi-(-)-colchicine;(-)-β-Lumicolchicine",
    "duplicated_cas_no": "490-24-4;11039-25-1;910900-25-3",
    "SMILES": "N(C(C)=O)[C@@H]1C2=C([C@@]3([C@]2(C(=O)C(OC)=C3)[H])[H])C=4C(=CC(OC)=C(OC)C4OC)CC1",
    "meta_data": {
        "InChI": "InChI=1S/C22H25NO6/c1-10(24)23-13-7-6-11-8-15(27-3)21(28-4)22(29-5)16(11)17-12-9-14(26-2)20(25)18(12)19(13)17/h8-9,12-13,18H,6-7H2,1-5H3,(H,23,24)/t12-,13+,18-/m1/s1",
        "InChIKey": null,
        "Canonical SMILES": "O=C(NC1C2=C(C=3C(OC)=C(OC)C(OC)=CC3CC1)C4C=C(OC)C(=O)C24)C",
        "Molecular Formula": "C<sub>22</sub>H<sub>25</sub>NO<sub>6</sub>",
        "Molecular Mass": "399.44",
        "Melting Point": "183 °C"
    }
}