{
    "cas_no": "1646-54-4",
    "key_name": "1,4-Dibromo-2,3,5,6-tetramethylbenzene",
    "cn_name": null,
    "alternate_name": "Benzene, 1,4-dibromo-2,3,5,6-tetramethyl-;1,4-Dibromo-2,3,5,6-tetramethylbenzene;1,4-Dibromotetramethylbenzene;Dibromodurene;3,6-Dibromodurene;3,6-Dibromo-1,2,4,5-tetramethylbenzene;NSC 87886",
    "duplicated_cas_no": "",
    "SMILES": "BrC1=C(C)C(C)=C(Br)C(C)=C1C",
    "meta_data": {
        "InChI": "InChI=1S/C10H12Br2/c1-5-6(2)10(12)8(4)7(3)9(5)11/h1-4H3",
        "InChIKey": null,
        "Canonical SMILES": "BrC=1C(=C(C(Br)=C(C1C)C)C)C",
        "Molecular Formula": "C<sub>10</sub>H<sub>12</sub>Br<sub>2</sub>",
        "Molecular Mass": "292.01",
        "Melting Point": "199-200 °C"
    }
}