{
    "cas_no": "631-22-1",
    "key_name": "1,3-Diethyl 2,2-dibromopropanedioate",
    "cn_name": null,
    "alternate_name": "Propanedioic acid, 2,2-dibromo-, 1,3-diethyl ester;Malonic acid, dibromo-, diethyl ester;Propanedioic acid, dibromo-, diethyl ester;1,3-Diethyl 2,2-dibromopropanedioate;Diethyl dibromomalonate;Ethyl dibromomalonate;Bis(ethoxycarbonyl)dibromomethane;NSC 6759;2,2-Dibromomalonic acid diethyl ester;Diethyl 2,2-dibromopropanedioate",
    "duplicated_cas_no": "",
    "SMILES": "C(C(OCC)=O)(C(OCC)=O)(Br)Br",
    "meta_data": {
        "InChI": "InChI=1S/C7H10Br2O4/c1-3-12-5(10)7(8,9)6(11)13-4-2/h3-4H2,1-2H3",
        "InChIKey": null,
        "Canonical SMILES": "O=C(OCC)C(Br)(Br)C(=O)OCC",
        "Molecular Formula": "C<sub>7</sub>H<sub>10</sub>Br<sub>2</sub>O<sub>4</sub>",
        "Molecular Mass": "317.96",
        "Boiling Point": "152-155 °C @ Press: 33 Torr"
    }
}