{
    "cas_no": "475102-12-6",
    "key_name": "1-(1,1-Dimethylethyl) 2-borono-5-chloro-1<em>H</em>-indole-1-carboxylate",
    "cn_name": null,
    "alternate_name": "1<em>H</em>-Indole-1-carboxylic acid, 2-borono-5-chloro-, 1-(1,1-dimethylethyl) ester;1-(1,1-Dimethylethyl) 2-borono-5-chloro-1<em>H</em>-indole-1-carboxylate;(1-(<em>tert</em>-Butoxycarbonyl)-5-chloro-1<em>H</em>-indol-2-yl)boronic acid",
    "duplicated_cas_no": "",
    "SMILES": "C(OC(C)(C)C)(=O)N1C=2C(C=C1B(O)O)=CC(Cl)=CC2",
    "meta_data": {
        "InChI": "InChI=1S/C13H15BClNO4/c1-13(2,3)20-12(17)16-10-5-4-9(15)6-8(10)7-11(16)14(18)19/h4-7,18-19H,1-3H3",
        "InChIKey": null,
        "Canonical SMILES": "O=C(OC(C)(C)C)N1C(=CC=2C=C(Cl)C=CC21)B(O)O",
        "Molecular Formula": "C<sub>13</sub>H<sub>15</sub>BClNO<sub>4</sub>",
        "Molecular Mass": "295.53",
        "Melting Point": "98.2-99.9 °C"
    }
}