{
    "cas_no": "128-39-2",
    "key_name": "2,6-Di-<em>tert</em>-butylphenol",
    "cn_name": "2,6-二叔丁基苯酚;",
    "alternate_name": "Phenol, 2,6-bis(1,1-dimethylethyl)-;Phenol, 2,6-di-<em>tert</em>-butyl-;2,6-Bis(1,1-dimethylethyl)phenol;2,6-Bis(<em>tert</em>-butyl)phenol;2,6-Di-<em>tert</em>-butylphenol;2,6-Di-<em>tert</em>-butylhydroxybenzene;2,6-Di-<em>t</em>-butylphenol;Ethyl 701;Isonox 103;Ethyl AN 701;AN 701;Hitec 4701;NSC 49175;T 502 (antioxidant);T 502;Na Lube AO 242;Ethanox 4733;Agidol 0;Ethanox 4701;2,6-<em>tert</em>-Butylphenol;2,6-Di-<em>tert</em>-butyl-4-phenol;Antioxidant T 502;Kerobit TP 26;2,6-Di-(1,1-Dimethylethyl)phenol;Aladdin 1138077;KY 02",
    "duplicated_cas_no": "50356-17-7",
    "SMILES": "C(C)(C)(C)C1=C(O)C(C(C)(C)C)=CC=C1",
    "meta_data": {
        "InChI": "InChI=1S/C14H22O/c1-13(2,3)10-8-7-9-11(12(10)15)14(4,5)6/h7-9,15H,1-6H3",
        "InChIKey": null,
        "Canonical SMILES": "OC=1C(=CC=CC1C(C)(C)C)C(C)(C)C",
        "Molecular Formula": "C<sub>14</sub>H<sub>22</sub>O",
        "Molecular Mass": "206.32",
        "Boiling Point": "253 °C",
        "Melting Point": "37 °C",
        "Density": "0.914 g/cm³ @ Temp: 20 °C"
    }
}