{
    "cas_no": "732-26-3",
    "key_name": "2,4,6-Tri-<em>tert</em>-butylphenol",
    "cn_name": "2,4,6-三叔丁基苯酚;",
    "alternate_name": "Phenol, 2,4,6-tris(1,1-dimethylethyl)-;Phenol, 2,4,6-tri-<em>tert</em>-butyl-;2,4,6-Tris(1,1-dimethylethyl)phenol;2,4,6-Tri-<em>tert</em>-butylphenol;P 23;Alkofen B;2,4,6-Tri-<em>tert</em>-butyl-1-hydroxybenzene;TM 02;2,4,6-Tris(<em>tert</em>-butyl)phenol;Voidox;Tri-<em>tert</em>-butylphenol;P 23 (phenol);NSC 14459;2,4,6-Tri-<em>t</em>-butylphenol;Antioxidant 333;Antioxidant Q 46;2,4,6-Tritert-butylphenol;Antioxidant 246;264F",
    "duplicated_cas_no": "1333-60-4;11100-56-4;19879-87-9;50356-20-2;53320-88-0",
    "SMILES": "C(C)(C)(C)C1=C(O)C(C(C)(C)C)=CC(C(C)(C)C)=C1",
    "meta_data": {
        "InChI": "InChI=1S/C18H30O/c1-16(2,3)12-10-13(17(4,5)6)15(19)14(11-12)18(7,8)9/h10-11,19H,1-9H3",
        "InChIKey": null,
        "Canonical SMILES": "OC=1C(=CC(=CC1C(C)(C)C)C(C)(C)C)C(C)(C)C",
        "Molecular Formula": "C<sub>18</sub>H<sub>30</sub>O",
        "Molecular Mass": "262.43",
        "Boiling Point": "278 °C",
        "Melting Point": "131 °C"
    }
}