{
    "cas_no": "75-80-9",
    "key_name": "Tribromoethanol",
    "cn_name": "三溴乙醇;2,2,2-三溴乙醇;",
    "alternate_name": "Ethanol, 2,2,2-tribromo-;2,2,2-Tribromoethanol;Bromethol;Avertin;Ethobrom;Narcolan;Narkolan;2,2,2-Tribromoethyl alcohol;Tribromoethanol;β-Tribromoethanol;Rectanol;Basibrol;Ethobrome;Narcotyl;NSC 2189;2,2,2-Tribromoethan-1-ol",
    "duplicated_cas_no": "8002-84-4",
    "SMILES": "C(CO)(Br)(Br)Br",
    "meta_data": {
        "InChI": "InChI=1S/C2H3Br3O/c3-2(4,5)1-6/h6H,1H2",
        "InChIKey": null,
        "Canonical SMILES": "BrC(Br)(Br)CO",
        "Molecular Formula": "C<sub>2</sub>H<sub>3</sub>Br<sub>3</sub>O",
        "Molecular Mass": "282.76",
        "Boiling Point": "92-93 °C",
        "Melting Point": "81 °C"
    }
}