{
    "cas_no": "1986-81-8",
    "key_name": "Nicotinamide <em>N</em>-oxide",
    "cn_name": "N-氧代烟酰胺;烟酰胺-N-氧化物;",
    "alternate_name": "3-Pyridinecarboxamide, 1-oxide;Nicotinamide, 1-oxide;Nicotinamide <em>N</em>-oxide;NSC 168416;NSC 30531;Pyridine-3-carboxamide 1-oxide;Niacinamide <em>N</em>-oxide;1-Oxidopyridin-1-ium-3-carboxamide;3-Carbamoylpyridin-1-ium-1-olate",
    "duplicated_cas_no": "",
    "SMILES": "C(N)(=O)C1=CN(=O)=CC=C1",
    "meta_data": {
        "InChI": "InChI=1S/C6H6N2O2/c7-6(9)5-2-1-3-8(10)4-5/h1-4H,(H2,7,9)",
        "InChIKey": null,
        "Canonical SMILES": "O=C(N)C1=CC=CN(=O)=C1",
        "Molecular Formula": "C<sub>6</sub>H<sub>6</sub>N<sub>2</sub>O<sub>2</sub>",
        "Molecular Mass": "138.12",
        "Melting Point": "275-276 °C (decomp)"
    }
}