{
    "cas_no": "53907-46-3",
    "key_name": "Propanoic acid, 2-mercapto-, methyl ester",
    "cn_name": null,
    "alternate_name": "Propanoic acid, 2-mercapto-, methyl ester;Propionic acid, 2-mercapto-, methyl ester;Methyl 2-mercaptopropionate;2-Mercaptopropanoic acid methyl ester;2-Mercaptopropionic acid methyl ester;Methyl 2-mercaptopropanoate;α-Mercaptopropionic acid methyl ester",
    "duplicated_cas_no": "105368-24-9",
    "SMILES": "C(C(C)S)(OC)=O",
    "meta_data": {
        "InChI": "InChI=1S/C4H8O2S/c1-3(7)4(5)6-2/h3,7H,1-2H3",
        "InChIKey": null,
        "Canonical SMILES": "O=C(OC)C(S)C",
        "Molecular Formula": "C<sub>4</sub>H<sub>8</sub>O<sub>2</sub>S",
        "Molecular Mass": "120.17",
        "Boiling Point": "44-46 °C @ Press: 15 Torr"
    }
}