{
    "cas_no": "63590-64-7",
    "key_name": "Terazosin",
    "cn_name": null,
    "alternate_name": "Methanone, [4-(4-amino-6,7-dimethoxy-2-quinazolinyl)-1-piperazinyl](tetrahydro-2-furanyl)-;Piperazine, 1-(4-amino-6,7-dimethoxy-2-quinazolinyl)-4-[(tetrahydro-2-furanyl)carbonyl]-;[4-(4-Amino-6,7-dimethoxy-2-quinazolinyl)-1-piperazinyl](tetrahydro-2-furanyl)methanone;Terazosin;1-(4-Amino-6,7-dimethoxy-2-quinazolinyl)-4-(tetrahydro-2-furoyl)piperazine;1-(4-Amino-6,7-dimethoxyquinazolin-2-yl)-4-[(2,3,4,5-tetrahydrofuran-2-yl)carbonyl]piperazine;[4-(4-Amino-6,7-dimethoxyquinazolin-2-yl)piperazin-1-yl]-(oxolan-2-yl)methanone",
    "duplicated_cas_no": "109351-35-1",
    "SMILES": "NC=1C2=C(N=C(N1)N3CCN(C(=O)C4CCCO4)CC3)C=C(OC)C(OC)=C2",
    "meta_data": {
        "InChI": "InChI=1S/C19H25N5O4/c1-26-15-10-12-13(11-16(15)27-2)21-19(22-17(12)20)24-7-5-23(6-8-24)18(25)14-4-3-9-28-14/h10-11,14H,3-9H2,1-2H3,(H2,20,21,22)",
        "InChIKey": null,
        "Canonical SMILES": "O=C(N1CCN(C=2N=C(N)C=3C=C(OC)C(OC)=CC3N2)CC1)C4OCCC4",
        "Molecular Formula": "C<sub>19</sub>H<sub>25</sub>N<sub>5</sub>O<sub>4</sub>",
        "Molecular Mass": "387.43",
        "Melting Point": "273 °C"
    }
}