{
    "cas_no": "52488-36-5",
    "key_name": "4-Bromoindole",
    "cn_name": "4-溴吲哚;",
    "alternate_name": "1<em>H</em>-Indole, 4-bromo-;Indole, 4-bromo-;4-Bromo-1<em>H</em>-indole;4-Bromoindole",
    "duplicated_cas_no": "1425049-60-0",
    "SMILES": "BrC1=C2C(=CC=C1)NC=C2",
    "meta_data": {
        "InChI": "InChI=1S/C8H6BrN/c9-7-2-1-3-8-6(7)4-5-10-8/h1-5,10H",
        "InChIKey": null,
        "Canonical SMILES": "BrC1=CC=CC=2NC=CC12",
        "Molecular Formula": "C<sub>8</sub>H<sub>6</sub>BrN",
        "Molecular Mass": "196.04",
        "Boiling Point": "96 °C @ Press: 1 Torr",
        "Melting Point": "15 °C"
    }
}