{
    "cas_no": "10213-78-2",
    "key_name": "Stearyldiethanolamine",
    "cn_name": "十八烷基二乙醇胺;N，N二乙醇基十八烷胺;",
    "alternate_name": "Ethanol, 2,2′-(octadecylimino)bis-;Ethanol, 2,2′-(octadecylimino)di-;2,2′-(Octadecylimino)bis[ethanol];<em>N</em>,<em>N</em>-Bis-β-hydroxyethyl-<em>N</em>-octadecylamine;<em>N</em>,<em>N</em>-Bis(2-hydroxyethyl)-<em>N</em>-octadecylamine;Stearylbis(hydroxyethyl)amine;<em>N</em>,<em>N</em>-Bis(2-hydroxyethyl)stearylamine;<em>N</em>-Stearyldiethanolamine;Octadecylbis(2-hydroxyethyl)amine;Octadecyldiethanolamine;<em>N</em>,<em>N</em>-Bis(β-hydroxyethyl)stearylamine;Stearyldiethanolamine;<em>N</em>,<em>N</em>-Bis(2-hydroxyethyl)octadecylamine;Antistat 273E;<em>N</em>,<em>N</em>-Diethanolstearylamine;Hexcel 273E;2,2′-(Octadecylimino)diethanol;Armostat 400;Denon 2862;SE 165;Bis(2-hydroxyethyl)octadecylamine;Tomah E 18-2;Denon 2359;Armostat 1800;Denon 2035;SA 20;Anstex SA 20;Atmer AS 990;<em>N</em>,<em>N</em>-Bis(2-hydroxyethyl)octadecanamine;Di(2-hydroxyethyl)octadecylamine;HKD 1800;Electrostripper TS 2B;TS 2B;Ethomeen T 18H;2,2′-(Octadecylazanediyl)diethanol;2-[2-Hydroxyethyl(octadecyl)amino]ethanol;Antistatic Agent 1800;Electrostripper TS 2;TS 2",
    "duplicated_cas_no": "53789-65-4;80296-81-7;135061-88-0;176708-39-7;374677-09-5",
    "SMILES": "N(CCCCCCCCCCCCCCCCCC)(CCO)CCO",
    "meta_data": {
        "InChI": "InChI=1S/C22H47NO2/c1-2-3-4-5-6-7-8-9-10-11-12-13-14-15-16-17-18-23(19-21-24)20-22-25/h24-25H,2-22H2,1H3",
        "InChIKey": null,
        "Canonical SMILES": "OCCN(CCO)CCCCCCCCCCCCCCCCCC",
        "Molecular Formula": "C<sub>22</sub>H<sub>47</sub>NO<sub>2</sub>",
        "Molecular Mass": "357.61",
        "Boiling Point": "260-285 °C @ Press: 5 Torr",
        "Melting Point": "46 °C",
        "Density": "0.8782 g/cm³ @ Temp: 50 °C"
    }
}