{
    "cas_no": "5472-49-1",
    "key_name": "Piperidine, 1-(3-chloropropyl)-, hydrochloride (1:1)",
    "cn_name": "N-(3-氯丙基)哌啶盐酸盐;",
    "alternate_name": "Piperidine, 1-(3-chloropropyl)-, hydrochloride (1:1);Piperidine, 1-(3-chloropropyl)-, hydrochloride;3-Piperidinopropyl chloride hydrochloride;1-(3-Chloropropyl)piperidine hydrochloride;<em>N</em>-(3-Chloropropyl)piperidine hydrochloride;3-(1-Piperidinyl)propyl chloride hydrochloride;1-Chloro-3-piperidinopropane hydrochloride;1-(3-Chloropropyl)piperidine monohydrochloride",
    "duplicated_cas_no": "1931118-03-4",
    "SMILES": "C(CCCl)N1CCCCC1.Cl",
    "meta_data": {
        "InChI": "InChI=1S/C8H16ClN.ClH/c9-5-4-8-10-6-2-1-3-7-10;/h1-8H2;1H",
        "InChIKey": null,
        "Canonical SMILES": "Cl.ClCCCN1CCCCC1",
        "Molecular Formula": "C<sub>8</sub>H<sub>16</sub>ClN.ClH",
        "Molecular Mass": "",
        "Melting Point": "213-214 °C"
    }
}