{
    "cas_no": "373-96-6",
    "key_name": "2,2-Difluoropropanoic acid",
    "cn_name": "2,2-二氟丙酸;",
    "alternate_name": "Propanoic acid, 2,2-difluoro-;Propionic acid, 2,2-difluoro-;2,2-Difluoropropanoic acid;α,α-Difluoropropionic acid;2,2-Difluoropropionic acid",
    "duplicated_cas_no": "",
    "SMILES": "C(C(O)=O)(C)(F)F",
    "meta_data": {
        "InChI": "InChI=1S/C3H4F2O2/c1-3(4,5)2(6)7/h1H3,(H,6,7)",
        "InChIKey": null,
        "Canonical SMILES": "O=C(O)C(F)(F)C",
        "Molecular Formula": "C<sub>3</sub>H<sub>4</sub>F<sub>2</sub>O<sub>2</sub>",
        "Molecular Mass": "110.06",
        "Boiling Point": "140-141 °C"
    }
}