{
    "cas_no": "1304-29-6",
    "key_name": "Barium peroxide",
    "cn_name": "过氧化钡;二氧化钡;",
    "alternate_name": "Barium peroxide (Ba(O<sub>2</sub>));Barium peroxide;Barium oxide (BaO<sub>2</sub>)",
    "duplicated_cas_no": "16678-58-3;55396-27-5;61233-09-8",
    "SMILES": "[Ba]1OO1",
    "meta_data": {
        "InChI": "InChI=1S/Ba.O2/c;1-2/q+2;-2",
        "InChIKey": null,
        "Canonical SMILES": "O1O[Ba]1",
        "Molecular Formula": "BaO<sub>2</sub>",
        "Molecular Mass": "",
        "Melting Point": "450 °C",
        "Density": "4.96 g/cm³"
    }
}