{
    "cas_no": "7081-44-9",
    "key_name": "Sodium cloxacillin monohydrate",
    "cn_name": "氯唑西林钠;3,3-二甲基-6-[5-甲基-3-(2-氯苯基)-4-异噁唑甲酰氨基]-7-氧代-4-硫杂-1-氮杂双环[3.2.0]庚烷-2;",
    "alternate_name": "4-Thia-1-azabicyclo[3.2.0]heptane-2-carboxylic acid, 6-[[[3-(2-chlorophenyl)-5-methyl-4-isoxazolyl]carbonyl]amino]-3,3-dimethyl-7-oxo-, sodium salt, hydrate (1:1:1), (2<em>S</em>,5<em>R</em>,6<em>R</em>)-;4-Thia-1-azabicyclo[3.2.0]heptane-2-carboxylic acid, 6-[3-(<em>o</em>-chlorophenyl)-5-methyl-4-isoxazolecarboxamido]-3,3-dimethyl-7-oxo-, monosodium salt, monohydrate;4-Thia-1-azabicyclo[3.2.0]heptane-2-carboxylic acid, 6-[[[3-(2-chlorophenyl)-5-methyl-4-isoxazolyl]carbonyl]amino]-3,3-dimethyl-7-oxo-, monosodium salt, monohydrate, [2<em>S</em>-(2α,5α,6β)]-;4-Thia-1-azabicyclo[3.2.0]heptane-2-carboxylic acid, 6-[[[3-(2-chlorophenyl)-5-methyl-4-isoxazolyl]carbonyl]amino]-3,3-dimethyl-7-oxo-, monosodium salt, monohydrate, (2<em>S</em>,5<em>R</em>,6<em>R</em>)-;3-(<em>o</em>-Chlorophenyl)-5-methyl-4-isoxazolyl penicillin sodium salt monohydrate;Sodium 6-[3-(<em>o</em>-Chlorophenyl)-5-methyl-4-isoxazolecarboxamido]-3,3-dimethyl-7-oxo-4-thia-1-azabicyclo[3.2.0]heptane-2-carboxylate hydrate;Sodium cloxacillin monohydrate;Cloxacillin sodium hydrate",
    "duplicated_cas_no": "",
    "SMILES": "N(C(=O)C=1C(=NOC1C)C2=C(Cl)C=CC=C2)[C@H]3[C@@]4(N([C@@H](C(O)=O)C(C)(C)S4)C3=O)[H].[Na].O",
    "meta_data": {
        "InChI": "InChI=1S/C19H18ClN3O5S.Na.H2O/c1-8-11(12(22-28-8)9-6-4-5-7-10(9)20)15(24)21-13-16(25)23-14(18(26)27)19(2,3)29-17(13)23;;/h4-7,13-14,17H,1-3H3,(H,21,24)(H,26,27);;1H2/t13-,14+,17-;;/m1../s1",
        "InChIKey": null,
        "Canonical SMILES": "[Na].O=C(O)C1N2C(=O)C(NC(=O)C=3C(=NOC3C)C=4C=CC=CC4Cl)C2SC1(C)C.O",
        "Molecular Formula": "C<sub>19</sub>H<sub>18</sub>ClN<sub>3</sub>O<sub>5</sub>S.H<sub>2</sub>O.Na",
        "Molecular Mass": "",
        "Melting Point": "170 °C (decomp)"
    }
}