{
    "cas_no": "51-15-0",
    "key_name": "Pralidoxime chloride",
    "cn_name": "2-吡啶醛肟甲氯;",
    "alternate_name": "Pyridinium, 2-[(hydroxyimino)methyl]-1-methyl-, chloride (1:1);2-Formyl-1-methylpyridinium chloride oxime;Pyridinium, 2-formyl-1-methyl-, chloride, oxime;Pyridinium, 2-[(hydroxyimino)methyl]-1-methyl-, chloride;1-Methyl-2-aldoximinopyridinium chloride;Pralidoxime chloride;Protopam chloride;2-PAM chloride;2-(Hydroxyiminomethyl)-1-methylpyridinium chloride;2-Pyridinealdoxime methochloride;<em>N</em>-Methylpyridinium-2-aldoxime chloride;1-Methylpyridinium-2-aldoxime chloride;2-Pralidoxime chloride;2-[(Hydroxyimino)methyl]-1-methylpyridin-1-ium chloride",
    "duplicated_cas_no": "27951-78-6",
    "SMILES": "C(=NO)C=1[N+](C)=CC=CC1.[Cl-]",
    "meta_data": {
        "InChI": "InChI=1S/C7H8N2O.ClH/c1-9-5-3-2-4-7(9)6-8-10;/h2-6H,1H3;1H",
        "InChIKey": null,
        "Canonical SMILES": "[Cl-].ON=CC=1C=CC=C[N+]1C",
        "Molecular Formula": "C<sub>7</sub>H<sub>9</sub>N<sub>2</sub>O.Cl",
        "Molecular Mass": "",
        "Melting Point": "236.5 °C (decomp)"
    }
}