{
    "cas_no": "307-43-7",
    "key_name": "Perfluorodecyl bromide",
    "cn_name": null,
    "alternate_name": "Decane, 1-bromo-1,1,2,2,3,3,4,4,5,5,6,6,7,7,8,8,9,9,10,10,10-heneicosafluoro-;Decane, 1-bromoheneicosafluoro-;1-Bromo-1,1,2,2,3,3,4,4,5,5,6,6,7,7,8,8,9,9,10,10,10-heneicosafluorodecane;1-Bromoperfluorodecane;Perfluorodecyl bromide;Perflubrodec",
    "duplicated_cas_no": "",
    "SMILES": "C(C(C(C(C(C(F)(F)F)(F)F)(F)F)(F)F)(F)F)(C(C(C(C(Br)(F)F)(F)F)(F)F)(F)F)(F)F",
    "meta_data": {
        "InChI": "InChI=1S/C10BrF21/c11-9(28,29)7(24,25)5(20,21)3(16,17)1(12,13)2(14,15)4(18,19)6(22,23)8(26,27)10(30,31)32",
        "InChIKey": null,
        "Canonical SMILES": "FC(F)(F)C(F)(F)C(F)(F)C(F)(F)C(F)(F)C(F)(F)C(F)(F)C(F)(F)C(F)(F)C(F)(F)Br",
        "Molecular Formula": "C<sub>10</sub>BrF<sub>21</sub>",
        "Molecular Mass": "598.98",
        "Boiling Point": "198 °C"
    }
}