{
    "cas_no": "100379-00-8",
    "key_name": "2,6-Dimethylphenylboronic acid",
    "cn_name": "2,6-二甲基苯硼酸;",
    "alternate_name": "Boronic acid, <em>B</em>-(2,6-dimethylphenyl)-;2,6-Xyleneboronic acid;Boronic acid, (2,6-dimethylphenyl)-;<em>B</em>-(2,6-Dimethylphenyl)boronic acid;2,6-Dimethylphenylboronic acid;2,6-Xylylboronic acid;2,6-Dimethylbenzeneboronic acid;2,6-Dimethylphenylboric acid;2,6-Dimethylboronic acid",
    "duplicated_cas_no": "",
    "SMILES": "B(O)(O)C1=C(C)C=CC=C1C",
    "meta_data": {
        "InChI": "InChI=1S/C8H11BO2/c1-6-4-3-5-7(2)8(6)9(10)11/h3-5,10-11H,1-2H3",
        "InChIKey": null,
        "Canonical SMILES": "OB(O)C=1C(=CC=CC1C)C",
        "Molecular Formula": "C<sub>8</sub>H<sub>11</sub>BO<sub>2</sub>",
        "Molecular Mass": "149.98",
        "Melting Point": "125-130 °C"
    }
}