{
    "cas_no": "4570-45-0",
    "key_name": "2-Oxazolamine",
    "cn_name": "2-氨基恶唑;2-氨基噁唑;",
    "alternate_name": "2-Oxazolamine;Oxazole, 2-amino-;2-Aminooxazole;1,3-Oxazol-2-amine;(1,3-Oxazol-2-yl)amine;Oxazol-2(3<em>H</em>)-imine",
    "duplicated_cas_no": "",
    "SMILES": "NC1=NC=CO1",
    "meta_data": {
        "InChI": "InChI=1S/C3H4N2O/c4-3-5-1-2-6-3/h1-2H,(H2,4,5)",
        "InChIKey": null,
        "Canonical SMILES": "N=1C=COC1N",
        "Molecular Formula": "C<sub>3</sub>H<sub>4</sub>N<sub>2</sub>O",
        "Molecular Mass": "84.08",
        "Melting Point": "96-98 °C"
    }
}