{
    "cas_no": "85857-16-5",
    "key_name": "Tridecafluorooctyltrimethoxysilane",
    "cn_name": "1H,1H,2H,2H-全氟辛基三甲氧基硅烷; 十三氟辛基三甲氧基硅烷;",
    "alternate_name": "Silane, trimethoxy(3,3,4,4,5,5,6,6,7,7,8,8,8-tridecafluorooctyl)-;Trimethoxy(3,3,4,4,5,5,6,6,7,7,8,8,8-tridecafluorooctyl)silane;Tridecafluorooctyltrimethoxysilane;3,3,4,4,5,5,6,6,7,7,8,8,8-Tridecafluorooctyltrimethoxysilane;(1<em>H</em>,1<em>H</em>,2<em>H</em>,2<em>H</em>-Perfluorooctyl)trimethoxysilane;VPS 8161;[2-(Perfluorohexyl)ethyl]trimethoxysilane;Dynasylan F 8161;Tridecafluoro-1,1,2,2-tetrahydrooctyltrimethoxysilane;TSL 8257;F 13TMS;SIT 8176.0;KBM 7603;Actyflon G 607;(Tridecafluoro-1,2,2,2-tetrahydrooctyl)-trimethoxy silane;SiSiB PC 9757;DMT 13;Trimethoxy(1<em>H</em>,1<em>H</em>,2<em>H</em>,2<em>H</em>-tridecafluoro-<em>n</em>-octyl)silane;KH 1331;HF 81;SCA-F 13C8M",
    "duplicated_cas_no": "",
    "SMILES": "[Si](CCC(C(C(C(C(C(F)(F)F)(F)F)(F)F)(F)F)(F)F)(F)F)(OC)(OC)OC",
    "meta_data": {
        "InChI": "InChI=1S/C11H13F13O3Si/c1-25-28(26-2,27-3)5-4-6(12,13)7(14,15)8(16,17)9(18,19)10(20,21)11(22,23)24/h4-5H2,1-3H3",
        "InChIKey": null,
        "Canonical SMILES": "FC(F)(F)C(F)(F)C(F)(F)C(F)(F)C(F)(F)C(F)(F)CC[Si](OC)(OC)OC",
        "Molecular Formula": "C<sub>11</sub>H<sub>13</sub>F<sub>13</sub>O<sub>3</sub>Si",
        "Molecular Mass": "468.28",
        "Boiling Point": "60-62 °C @ Press: 0.5 Torr",
        "Density": "1.44 g/cm³"
    }
}