{
    "cas_no": "127-22-0",
    "key_name": "Taraxerol",
    "cn_name": null,
    "alternate_name": "27-Norolean-14-en-3-ol, 13-methyl-, (3β,13α)-;Taraxerol;<em>D</em>-Friedoolean-14-en-3β-ol;<em>D</em>-Friedoolean-14-en-3-ol, (3β)-;(3β,13α)-13-Methyl-27-norolean-14-en-3-ol;Alnulin;Skimmiol;Tiliadin;Δ<sup>14</sup>-Taraxen-3β-ol;β-Taraxerol;3-Picenol, 1,2,3,4,4a,5,6,6a,8,8a,9,10,11,12,12a,12b,13,14,14a,14b-eicosahydro-4,4,6a,8a,11,11,12b,14b-octamethyl-, (3<em>S</em>,4a<em>R</em>,6a<em>R</em>,8a<em>R</em>,12a<em>R</em>,12b<em>S</em>,14a<em>R</em>,14b<em>R</em>)-;3β-Taraxerol;14-Taraxen-3-ol",
    "duplicated_cas_no": "22076-46-6",
    "SMILES": "C[C@]12C=3[C@](C)([C@]4([C@@](C)(CC3)CCC(C)(C)C4)[H])CC[C@@]1([C@]5(C)[C@@](CC2)(C(C)(C)[C@@H](O)CC5)[H])[H]",
    "meta_data": {
        "InChI": "InChI=1S/C30H50O/c1-25(2)17-18-27(5)13-9-21-29(7)14-10-20-26(3,4)24(31)12-16-28(20,6)22(29)11-15-30(21,8)23(27)19-25/h9,20,22-24,31H,10-19H2,1-8H3/t20-,22+,23+,24-,27-,28-,29-,30+/m0/s1",
        "InChIKey": null,
        "Canonical SMILES": "OC1CCC2(C)C3CCC4(C(=CCC5(C)CCC(C)(C)CC45)C3(C)CCC2C1(C)C)C",
        "Molecular Formula": "C<sub>30</sub>H<sub>50</sub>O",
        "Molecular Mass": "426.72",
        "Melting Point": "283.5 °C"
    }
}