{
    "cas_no": "3766-55-0",
    "key_name": "4-Allylthiosemicarbazide",
    "cn_name": "4-烯丙基氨基硫脲;4-烯丙基氨基硫脲;",
    "alternate_name": "Hydrazinecarbothioamide, <em>N</em>-2-propen-1-yl-;Semicarbazide, 4-allyl-3-thio-;Hydrazinecarbothioamide, <em>N</em>-2-propenyl-;<em>N</em>-2-Propen-1-ylhydrazinecarbothioamide;<em>N</em>-Allylthiosemicarbazide;Allylthiosemicarbazide;4-Allylthiosemicarbazide;4-Allyl-3-thiosemicarbazide;<em>N</em>-(2-Propenyl)hydrazinecarbothioamide;NSC 75830;4-(2-Propenyl)hydrazinethiocarbamide;4-Propenylthiosemicarbazide;1-Amino-3-prop-2-enylthiourea;1-Amino-3-(prop-2-en-1-yl)thiourea",
    "duplicated_cas_no": "",
    "SMILES": "C(NCC=C)(NN)=S",
    "meta_data": {
        "InChI": "InChI=1S/C4H9N3S/c1-2-3-6-4(8)7-5/h2H,1,3,5H2,(H2,6,7,8)",
        "InChIKey": null,
        "Canonical SMILES": "S=C(NN)NCC=C",
        "Molecular Formula": "C<sub>4</sub>H<sub>9</sub>N<sub>3</sub>S",
        "Molecular Mass": "131.20",
        "Melting Point": "96.5-97 °C"
    }
}