{
    "cas_no": "42087-80-9",
    "key_name": "Benzoic acid, 4-chloro-2-nitro-, methyl ester",
    "cn_name": null,
    "alternate_name": "Benzoic acid, 4-chloro-2-nitro-, methyl ester;2-Nitro-4-chlorobenzoic acid methyl ester;Methyl 4-chloro-2-nitrobenzoate;Methyl 2-nitro-4-chlorobenzoate;NSC 17028;4-Chloro-2-nitrobenzoic acid methyl ester",
    "duplicated_cas_no": "",
    "SMILES": "C(OC)(=O)C1=C(N(=O)=O)C=C(Cl)C=C1",
    "meta_data": {
        "InChI": "InChI=1S/C8H6ClNO4/c1-14-8(11)6-3-2-5(9)4-7(6)10(12)13/h2-4H,1H3",
        "InChIKey": null,
        "Canonical SMILES": "O=C(OC)C1=CC=C(Cl)C=C1N(=O)=O",
        "Molecular Formula": "C<sub>8</sub>H<sub>6</sub>ClNO<sub>4</sub>",
        "Molecular Mass": "215.59",
        "Melting Point": "43-45 °C"
    }
}