{
    "cas_no": "7356-60-7",
    "key_name": "3-Pyridinecarboximidamide, hydrochloride (1:1)",
    "cn_name": "3-氨基吡啶盐酸盐;3-吡啶偕胺肟盐酸盐;",
    "alternate_name": "3-Pyridinecarboximidamide, hydrochloride (1:1);Nicotinamidine, monohydrochloride;3-Pyridinecarboximidamide, monohydrochloride;Nicotinamidine, hydrochloride;3-Guanylpyridine hydrochloride;3-Pyridinecarboxamidine hydrochloride;3-Amidinopyridine hydrochloride;3-Amidinopyridine monohydrochloride;Nicotinimidamide hydrochloride;3-Amidinopyridinium chloride;Pyridine-5-carboximidamide hydrochloride",
    "duplicated_cas_no": "",
    "SMILES": "C(=N)(N)C=1C=CC=NC1.Cl",
    "meta_data": {
        "InChI": "InChI=1S/C6H7N3.ClH/c7-6(8)5-2-1-3-9-4-5;/h1-4H,(H3,7,8);1H",
        "InChIKey": null,
        "Canonical SMILES": "Cl.N=C(N)C=1C=NC=CC1",
        "Molecular Formula": "C<sub>6</sub>H<sub>7</sub>N<sub>3</sub>.ClH",
        "Molecular Mass": "",
        "Melting Point": "189-190 °C"
    }
}