{
    "cas_no": "18800-34-5",
    "key_name": "1-(2-Bromoethoxy)-4-methylbenzene",
    "cn_name": "1-(2-溴乙氧基)-4-甲基苯;",
    "alternate_name": "Benzene, 1-(2-bromoethoxy)-4-methyl-;Phenetole, β-bromo-<em>p</em>-methyl-;1-(2-Bromoethoxy)-4-methylbenzene;2-(4-Methylphenoxy)ethyl bromide;2-(<em>p</em>-Tolyloxy)ethyl bromide;β-Bromo-<em>p</em>-methylphenetole;1-Bromo-2-(4-methylphenoxy)ethane;NSC 28592;2-(<em>p</em>-Tolyl)ethyl dithiocarbamate",
    "duplicated_cas_no": "",
    "SMILES": "O(CCBr)C1=CC=C(C)C=C1",
    "meta_data": {
        "InChI": "InChI=1S/C9H11BrO/c1-8-2-4-9(5-3-8)11-7-6-10/h2-5H,6-7H2,1H3",
        "InChIKey": null,
        "Canonical SMILES": "BrCCOC1=CC=C(C=C1)C",
        "Molecular Formula": "C<sub>9</sub>H<sub>11</sub>BrO",
        "Molecular Mass": "215.09",
        "Boiling Point": "136-138 °C @ Press: 18 Torr",
        "Melting Point": "39 °C"
    }
}