{
    "cas_no": "624-60-2",
    "key_name": "Ethanamine, <em>N</em>-methyl-, hydrochloride (1:1)",
    "cn_name": "N-甲基乙基胺盐酸盐;甲乙胺盐酸盐;",
    "alternate_name": "Ethanamine, <em>N</em>-methyl-, hydrochloride (1:1);Ethylamine, <em>N</em>-methyl-, hydrochloride;Ethanamine, <em>N</em>-methyl-, hydrochloride;<em>N</em>-Methylethylamine hydrochloride;Methylethylammonium chloride;Ethylmethylamine hydrochloride;<em>N</em>-Methylethanamine hydrochloride",
    "duplicated_cas_no": "",
    "SMILES": "C(NC)C.Cl",
    "meta_data": {
        "InChI": "InChI=1S/C3H9N.ClH/c1-3-4-2;/h4H,3H2,1-2H3;1H",
        "InChIKey": null,
        "Canonical SMILES": "Cl.N(C)CC",
        "Molecular Formula": "C<sub>3</sub>H<sub>9</sub>N.ClH",
        "Molecular Mass": "",
        "Melting Point": "128 °C"
    }
}