{
    "cas_no": "14529-53-4",
    "key_name": "2-Ethoxypyridine",
    "cn_name": "2-乙氧基吡啶;",
    "alternate_name": "Pyridine, 2-ethoxy-;2-Ethoxypyridine",
    "duplicated_cas_no": "1458028-62-0",
    "SMILES": "O(CC)C1=CC=CC=N1",
    "meta_data": {
        "InChI": "InChI=1S/C7H9NO/c1-2-9-7-5-3-4-6-8-7/h3-6H,2H2,1H3",
        "InChIKey": null,
        "Canonical SMILES": "N=1C=CC=CC1OCC",
        "Molecular Formula": "C<sub>7</sub>H<sub>9</sub>NO",
        "Molecular Mass": "123.15",
        "Boiling Point": "75-90 °C @ Press: 15 Torr",
        "Melting Point": "122 °C"
    }
}