{
    "cas_no": "13433-00-6",
    "key_name": "Propanedioic acid, 2-amino-, 1,3-diethyl ester, hydrochloride (1:1)",
    "cn_name": "氨基丙二酸二乙酯盐酸盐;",
    "alternate_name": "Propanedioic acid, 2-amino-, 1,3-diethyl ester, hydrochloride (1:1);Malonic acid, amino-, diethyl ester, hydrochloride;Propanedioic acid, amino-, diethyl ester, hydrochloride;Aminomalonic acid diethyl ester, hydrochloride;Diethyl aminomalonate hydrochloride;Diethyl 2-aminomalonate hydrochloride;2-Aminomalonic acid diethyl ester hydrochloride;Diethyl aminopropanedioate hydrochloride;1,3-Diethyl 2-aminopropanedioate hydrochloride;1,3-Diethoxy-1,3-dioxopropan-2-aminium chloride",
    "duplicated_cas_no": "130385-16-9;69828-44-0",
    "SMILES": "C(C(OCC)=O)(C(OCC)=O)N.Cl",
    "meta_data": {
        "InChI": "InChI=1S/C7H13NO4.ClH/c1-3-11-6(9)5(8)7(10)12-4-2;/h5H,3-4,8H2,1-2H3;1H",
        "InChIKey": null,
        "Canonical SMILES": "Cl.O=C(OCC)C(N)C(=O)OCC",
        "Molecular Formula": "C<sub>7</sub>H<sub>13</sub>NO<sub>4</sub>.ClH",
        "Molecular Mass": "",
        "Melting Point": "162 °C"
    }
}