{
    "cas_no": "15500-66-0",
    "key_name": "Pancuronium bromide",
    "cn_name": "泮库溴铵;",
    "alternate_name": "Piperidinium, 1,1′-[(2β,3α,5α,16β,17β)-3,17-bis(acetyloxy)androstane-2,16-diyl]bis[1-methyl-, dibromide;Piperidinium, 1,1′-(3α,17β-dihydroxy-5α-androstan-2β,16β-ylene)bis[1-methyl-, dibromide, diacetate;5α-Androstane-3α,17β-diol, 2β,16β-bis(1-methylpiperidinio)-, dibromide, diacetate;Androstane, piperidinium deriv.;NA 97;2β,16β-Dipiperidino-5α-androstane-3α,17β-diol diacetate dimethobromide;Pancuronium bromide;Pancuronium dibromide;1,1′-(3α,17β-Dihydroxy-5α-androstan-2β,16β-ylene)bis[1-methylpiperidinium] dibromide diacetate;Pavulon;Pancuronium;Mioblock;Org-NE 35;Org NA 97;NSC 293162;Bromurex",
    "duplicated_cas_no": "84307-13-1",
    "SMILES": "C[C@@]12[C@]([C@]3([C@@]([C@]4(C)[C@@](CC3)(C[C@H](OC(C)=O)[C@H](C4)[N+]5(C)CCCCC5)[H])(CC1)[H])[H])(C[C@@H]([C@@H]2OC(C)=O)[N+]6(C)CCCCC6)[H].[Br-]",
    "meta_data": {
        "InChI": "InChI=1S/C35H60N2O4.2BrH/c1-24(38)40-32-21-26-13-14-27-28(35(26,4)23-31(32)37(6)19-11-8-12-20-37)15-16-34(3)29(27)22-30(33(34)41-25(2)39)36(5)17-9-7-10-18-36;;/h26-33H,7-23H2,1-6H3;2*1H/q+2;;/p-2/t26-,27+,28-,29-,30-,31-,32-,33-,34-,35-;;/m0../s1",
        "InChIKey": null,
        "Canonical SMILES": "[Br-].O=C(OC1CC2CCC3C(CCC4(C)C(OC(=O)C)C(CC34)[N+]5(C)CCCCC5)C2(C)CC1[N+]6(C)CCCCC6)C",
        "Molecular Formula": "C<sub>35</sub>H<sub>60</sub>N<sub>2</sub>O<sub>4</sub>.2Br",
        "Molecular Mass": "",
        "Melting Point": "215 °C"
    }
}