{
    "cas_no": "729-43-1",
    "key_name": "1-Phenylethanone 2-(1-phenylethylidene)hydrazone",
    "cn_name": "乙酰苯吖嗪;二苯乙酮腙;乙酰苯吖嗪;",
    "alternate_name": "Ethanone, 1-phenyl-, 2-(1-phenylethylidene)hydrazone;Acetophenone, azine;Ethanone, 1-phenyl-, (1-phenylethylidene)hydrazone;1-Phenylethanone 2-(1-phenylethylidene)hydrazone;Methylphenyl ketazine;NSC 25772",
    "duplicated_cas_no": "",
    "SMILES": "C(=NN=C(C)C1=CC=CC=C1)(C)C2=CC=CC=C2",
    "meta_data": {
        "InChI": "InChI=1S/C16H16N2/c1-13(15-9-5-3-6-10-15)17-18-14(2)16-11-7-4-8-12-16/h3-12H,1-2H3",
        "InChIKey": null,
        "Canonical SMILES": "N(N=C(C=1C=CC=CC1)C)=C(C=2C=CC=CC2)C",
        "Molecular Formula": "C<sub>16</sub>H<sub>16</sub>N<sub>2</sub>",
        "Molecular Mass": "236.31",
        "Melting Point": "129-130 °C"
    }
}