{
    "cas_no": "110-63-4",
    "key_name": "1,4-Butanediol",
    "cn_name": "1,4-丁二醇;",
    "alternate_name": "1,4-Butanediol;Diol 14B;1,4-Butylene glycol;1,4-Dihydroxybutane;Sucol B;Tetramethylene glycol;1,4-Tetramethylene glycol;Tetramethylene 1,4-diol;Butylene glycol;Polycure D;Dabco DBO;Vibracure A 250;NSC 406696;ZM 0025;1,4BD;14BG;Addolink B;U 7085;Bio-BDO;B 0680;B 110391;Baytec XL-B;A 040124",
    "duplicated_cas_no": "732189-03-6;1204746-06-4;1400594-63-9",
    "SMILES": "C(CCO)CO",
    "meta_data": {
        "InChI": "InChI=1S/C4H10O2/c5-3-1-2-4-6/h5-6H,1-4H2",
        "InChIKey": null,
        "Canonical SMILES": "OCCCCO",
        "Molecular Formula": "C<sub>4</sub>H<sub>10</sub>O<sub>2</sub>",
        "Molecular Mass": "90.12",
        "Boiling Point": "230 °C @ Press: 760 Torr",
        "Melting Point": "20.1 °C",
        "Density": "1.0171 g/cm³ @ Temp: 20 °C"
    }
}