{
    "cas_no": "25550-14-5",
    "key_name": "Ethyltoluene",
    "cn_name": null,
    "alternate_name": "Benzene, ethylmethyl-;Toluene, <em>ar</em>-ethyl-;Toluene, ethyl-;Ethylmethylbenzene;Ethyltoluene;Methylethylbenzene;α-Methylxylene;<em>m</em>-Methylethylbenzene-<em>p</em>-methylethylbenzene mixt.",
    "duplicated_cas_no": "25154-47-6;1171156-16-3",
    "SMILES": "",
    "meta_data": {
        "InChI": "",
        "InChIKey": null,
        "Canonical SMILES": "",
        "Molecular Formula": "C<sub>9</sub>H<sub>12</sub>",
        "Molecular Mass": "",
        "Boiling Point": "159-160 °C",
        "Melting Point": "165 °C"
    }
}