{
    "cas_no": "78111-17-8",
    "key_name": "Okadaic acid",
    "cn_name": null,
    "alternate_name": "1,7-Dioxaspiro[5.5]undec-10-ene-2-propanoic acid, α,5-dihydroxy-α,10-dimethyl-8-[(1<em>R</em>,2<em>E</em>)-1-methyl-3-[(2<em>R</em>,4′a<em>R</em>,5<em>R</em>,6′<em>S</em>,8′<em>R</em>,8′a<em>S</em>)-octahydro-8′-hydroxy-6′-[(1<em>S</em>,3<em>S</em>)-1-hydroxy-3-[(2<em>S</em>,3<em>R</em>,6<em>S</em>)-3-methyl-1,7-dioxaspiro[5.5]undec-2-yl]butyl]-7′-methylenespiro[furan-2(3<em>H</em>),2′(3′<em>H</em>)-pyrano[3,2-<em>b</em>]pyran]-5-yl]-2-propen-1-yl]-, (α<em>R</em>,2<em>S</em>,5<em>R</em>,6<em>R</em>,8<em>S</em>)-;Acanthifolicin, 9,10-deepithio-9,10-didehydro-;1,7-Dioxaspiro[5.5]undec-10-ene-2-propanoic acid, α,5-dihydroxy-α,10-dimethyl-8-[(1<em>R</em>,2<em>E</em>)-1-methyl-3-[(2<em>R</em>,4′a<em>R</em>,5<em>R</em>,6′<em>S</em>,8′<em>R</em>,8′a<em>S</em>)-octahydro-8′-hydroxy-6′-[(1<em>S</em>,3<em>S</em>)-1-hydroxy-3-[(2<em>S</em>,3<em>R</em>,6<em>S</em>)-3-methyl-1,7-dioxaspiro[5.5]undec-2-yl]butyl]-7′-methylenespiro[furan-2(3<em>H</em>),2′(3′<em>H</em>)-pyrano[3,2-<em>b</em>]pyran]-5-yl]-2-propenyl]-, (α<em>R</em>,2<em>S</em>,5<em>R</em>,6<em>R</em>,8<em>S</em>)-;Spiro[furan-2(3<em>H</em>),2′(3′<em>H</em>)-pyrano[3,2-<em>b</em>]pyran], acanthifolicin deriv.;1,7-Dioxaspiro[5.5]undecane, acanthifolicin deriv.;(α<em>R</em>,2<em>S</em>,5<em>R</em>,6<em>R</em>,8<em>S</em>)-α,5-Dihydroxy-α,10-dimethyl-8-[(1<em>R</em>,2<em>E</em>)-1-methyl-3-[(2<em>R</em>,4′a<em>R</em>,5<em>R</em>,6′<em>S</em>,8′<em>R</em>,8′a<em>S</em>)-octahydro-8′-hydroxy-6′-[(1<em>S</em>,3<em>S</em>)-1-hydroxy-3-[(2<em>S</em>,3<em>R</em>,6<em>S</em>)-3-methyl-1,7-dioxaspiro[5.5]undec-2-yl]butyl]-7′-methylenespiro[furan-2(3<em>H</em>),2′(3′<em>H</em>)-pyrano[3,2-<em>b</em>]pyran]-5-yl]-2-propen-1-yl]-1,7-dioxaspiro[5.5]undec-10-ene-2-propanoic acid;Okadaic acid;1,7-Dioxaspiro[5.5]undec-10-ene-2-propanoic acid, α,5-dihydroxy-α,10-dimethyl-8-[1-methyl-3-[octahydro-8′-hydroxy-6′-[1-hydroxy-3-(3-methyl-1,7-dioxaspiro[5.5]undec-2-yl)butyl]-7′-methylenespiro[furan-2(3<em>H</em>),2′(3′<em>H</em>)-pyrano[3,2-<em>b</em>]pyran]-5-yl]-2-propenyl]-, [2′<em>R</em>-[2′α[<em>R</em>*[1<em>R</em>*[2<em>S</em>*(<em>R</em>*),5<em>R</em>*,6<em>R</em>*,8<em>S</em>*],2<em>E</em>]],4′aβ,6′β[1<em>S</em>*,3<em>S</em>*(2<em>S</em>*,3<em>R</em>*,6<em>S</em>*)],8′α,8′aα]]-;NSC 677083;35-Demethyldinophysistoxin 1;35-Demethyl-DTX 1;OA;MeSH ID: D019319",
    "duplicated_cas_no": "77238-08-5",
    "SMILES": "O[C@H]1[C@@]2(O[C@]([C@@H](/C=C/[C@@H]3O[C@]4(CC3)O[C@@]5([C@@](CC4)(O[C@]([C@H](C[C@H](C)[C@]6(O[C@]7(CC[C@H]6C)CCCCO7)[H])O)(C(=C)[C@H]5O)[H])[H])[H])C)(CC(C)=C2)[H])O[C@H](C[C@@](C(O)=O)(C)O)CC1",
    "meta_data": {
        "InChI": "InChI=1S/C44H68O13/c1-25-21-34(55-44(23-25)35(46)12-11-31(54-44)24-41(6,50)40(48)49)26(2)9-10-30-14-18-43(53-30)19-15-33-39(57-43)36(47)29(5)38(52-33)32(45)22-28(4)37-27(3)13-17-42(56-37)16-7-8-20-51-42/h9-10,23,26-28,30-39,45-47,50H,5,7-8,11-22,24H2,1-4,6H3,(H,48,49)/b10-9+/t26-,27-,28+,30+,31+,32+,33-,34+,35-,36-,37+,38+,39-,41-,42+,43-,44-/m1/s1",
        "InChIKey": null,
        "Canonical SMILES": "O=C(O)C(O)(C)CC1OC2(OC(CC(=C2)C)C(C=CC3OC4(OC5C(O)C(=C)C(OC5CC4)C(O)CC(C)C6OC7(OCCCC7)CCC6C)CC3)C)C(O)CC1",
        "Molecular Formula": "C<sub>44</sub>H<sub>68</sub>O<sub>13</sub>",
        "Molecular Mass": "805.00",
        "Melting Point": "164-166 °C"
    }
}