{
    "cas_no": "5300-03-8",
    "key_name": "9-<em>cis</em>-Retinoic acid",
    "cn_name": "9-顺式视黄酸;9顺式维甲酸;",
    "alternate_name": "Retinoic acid, 9-<em>cis</em>-;Retinoic acid, <em>cis</em>-9,<em>trans</em>-13-;9-<em>cis</em>-Retinoic acid;9-<em>cis</em>-Tretinoin;9(<em>Z</em>)-Retinoic acid;ALRT 1057;AGN 192013;Alitretinoin;Panrexin;NSC 659772;LGD 1057;Panretyn;LGD 100057;Panretin;LG 100057;Toctino",
    "duplicated_cas_no": "",
    "SMILES": "C(=C/C(=C\\C=C\\C(=C\\C(O)=O)\\C)/C)\\C=1C(C)(C)CCCC1C",
    "meta_data": {
        "InChI": "InChI=1S/C20H28O2/c1-15(8-6-9-16(2)14-19(21)22)11-12-18-17(3)10-7-13-20(18,4)5/h6,8-9,11-12,14H,7,10,13H2,1-5H3,(H,21,22)/b9-6+,12-11+,15-8-,16-14+",
        "InChIKey": null,
        "Canonical SMILES": "O=C(O)C=C(C=CC=C(C=CC1=C(C)CCCC1(C)C)C)C",
        "Molecular Formula": "C<sub>20</sub>H<sub>28</sub>O<sub>2</sub>",
        "Molecular Mass": "300.44",
        "Melting Point": "190-191 °C"
    }
}