{
    "cas_no": "621-08-9",
    "key_name": "Dibenzyl sulfoxide",
    "cn_name": "二苄基亚砜;",
    "alternate_name": "Benzene, 1,1′-[sulfinylbis(methylene)]bis-;Benzyl sulfoxide;1,1′-[Sulfinylbis(methylene)]bis[benzene];Dibenzyl sulfoxide;Tardiol D;Bis(phenylmethyl) sulfoxide;NSC 55",
    "duplicated_cas_no": "56573-82-1",
    "SMILES": "C(S(CC1=CC=CC=C1)=O)C2=CC=CC=C2",
    "meta_data": {
        "InChI": "InChI=1S/C14H14OS/c15-16(11-13-7-3-1-4-8-13)12-14-9-5-2-6-10-14/h1-10H,11-12H2",
        "InChIKey": null,
        "Canonical SMILES": "O=S(CC=1C=CC=CC1)CC=2C=CC=CC2",
        "Molecular Formula": "C<sub>14</sub>H<sub>14</sub>OS",
        "Molecular Mass": "230.33",
        "Melting Point": "134 °C"
    }
}