{
    "cas_no": "13956-29-1",
    "key_name": "Cannabidiol",
    "cn_name": null,
    "alternate_name": "1,3-Benzenediol, 2-[(1<em>R</em>,6<em>R</em>)-3-methyl-6-(1-methylethenyl)-2-cyclohexen-1-yl]-5-pentyl-;Resorcinol, 2-<em>p</em>-mentha-1,8-dien-3-yl-5-pentyl-, <em>trans</em>-(-)-;1,3-Benzenediol, 2-[3-methyl-6-(1-methylethenyl)-2-cyclohexen-1-yl]-5-pentyl-, (1<em>R</em>-<em>trans</em>)-;Cannabidiol;2-[(1<em>R</em>,6<em>R</em>)-3-Methyl-6-(1-methylethenyl)-2-cyclohexen-1-yl]-5-pentyl-1,3-benzenediol;(-)-<em>trans</em>-Cannabidiol;(-)-Cannabidiol;Δ<sup>1(2)</sup>-<em>trans</em>-Cannabidiol;CBD;(-)-CBD;Epidiolex;GWP 42003P;Epidyolex;Canapure PH;MeSH ID: D002185;MediCabilis",
    "duplicated_cas_no": "521-37-9;18436-46-9;20547-66-4",
    "SMILES": "C(C)(=C)[C@H]1[C@@H](C=C(C)CC1)C2=C(O)C=C(CCCCC)C=C2O",
    "meta_data": {
        "InChI": "InChI=1S/C21H30O2/c1-5-6-7-8-16-12-19(22)21(20(23)13-16)18-11-15(4)9-10-17(18)14(2)3/h11-13,17-18,22-23H,2,5-10H2,1,3-4H3/t17-,18+/m0/s1",
        "InChIKey": null,
        "Canonical SMILES": "OC=1C=C(C=C(O)C1C2C=C(C)CCC2C(=C)C)CCCCC",
        "Molecular Formula": "C<sub>21</sub>H<sub>30</sub>O<sub>2</sub>",
        "Molecular Mass": "",
        "Boiling Point": "188.5 °C",
        "Melting Point": "67 °C"
    }
}