{
    "cas_no": "1041-01-6",
    "key_name": "Diiodothyronine",
    "cn_name": "3,5-二碘-L-甲状腺素;3,5-二碘-L-甲状腺原氨酸;O-(对羟基苯基)-3,5-二碘-L-酪氨酸;",
    "alternate_name": "<span class=\"text-smallcaps\">L</span>-Tyrosine, <em>O</em>-(4-hydroxyphenyl)-3,5-diiodo-;Alanine, 3-[4-(<em>p</em>-hydroxyphenoxy)-3,5-diiodophenyl]-, <span class=\"text-smallcaps\">L</span>-;<em>O</em>-(4-Hydroxyphenyl)-3,5-diiodo-<span class=\"text-smallcaps\">L</span>-tyrosine;3,5-Diiodo-<span class=\"text-smallcaps\">L</span>-thyronine;Diiodothyronine;Diiodo-<span class=\"text-smallcaps\">L</span>-thyronine;3,5-Diiodothyronine;<span class=\"text-smallcaps\">L</span>-3,5-Diiodothyronine;<span class=\"text-smallcaps\">L</span>-T<sub>2</sub>;<span class=\"text-smallcaps\">L</span>-Diiodothyronine;NSC 90469;(2<em>S</em>)-2-Amino-3-[4-(4-hydroxyphenoxy)-3,5-diiodophenyl]propanoic acid;(2S)-2-Amino-3-[4-(4-hydroxyphenoxy)-3,5-diiodophenyl]propanoic acid",
    "duplicated_cas_no": "30804-67-2;243965-18-6",
    "SMILES": "O(C1=C(I)C=C(C[C@@H](C(O)=O)N)C=C1I)C2=CC=C(O)C=C2",
    "meta_data": {
        "InChI": "InChI=1S/C15H13I2NO4/c16-11-5-8(7-13(18)15(20)21)6-12(17)14(11)22-10-3-1-9(19)2-4-10/h1-6,13,19H,7,18H2,(H,20,21)/t13-/m0/s1",
        "InChIKey": null,
        "Canonical SMILES": "O=C(O)C(N)CC1=CC(I)=C(OC2=CC=C(O)C=C2)C(I)=C1",
        "Molecular Formula": "C<sub>15</sub>H<sub>13</sub>I<sub>2</sub>NO<sub>4</sub>",
        "Molecular Mass": "525.08",
        "Melting Point": "255 °C"
    }
}