{
    "cas_no": "781652-57-1",
    "key_name": "3-Cyano-<em>N</em>-(1,3-diphenyl-1<em>H</em>-pyrazol-5-yl)benzamide",
    "cn_name": "3-氰基-N-(1,3-二苯基吡唑-5-基)苯甲酰胺;",
    "alternate_name": "Benzamide, 3-cyano-<em>N</em>-(1,3-diphenyl-1<em>H</em>-pyrazol-5-yl)-;3-Cyano-<em>N</em>-(1,3-diphenyl-1<em>H</em>-pyrazol-5-yl)benzamide;CDPPB;3-Cyano-<em>N</em>-(2,5-diphenylpyrazol-3-yl)benzamide;3-Cyano-<em>N</em>-(2,5-diphenyl-2<em>H</em>-pyrazol-3-yl)-benzamide",
    "duplicated_cas_no": "",
    "SMILES": "N(C(=O)C1=CC(C#N)=CC=C1)C=2N(N=C(C2)C3=CC=CC=C3)C4=CC=CC=C4",
    "meta_data": {
        "InChI": "InChI=1S/C23H16N4O/c24-16-17-8-7-11-19(14-17)23(28)25-22-15-21(18-9-3-1-4-10-18)26-27(22)20-12-5-2-6-13-20/h1-15H,(H,25,28)",
        "InChIKey": null,
        "Canonical SMILES": "N#CC1=CC=CC(=C1)C(=O)NC2=CC(=NN2C=3C=CC=CC3)C=4C=CC=CC4",
        "Molecular Formula": "C<sub>23</sub>H<sub>16</sub>N<sub>4</sub>O",
        "Molecular Mass": "364.40",
        "Melting Point": "207-208 °C"
    }
}