{
    "cas_no": "137-45-1",
    "key_name": "Pyrazol-5-ol",
    "cn_name": "乙二醇甲酸乙醚;",
    "alternate_name": "3<em>H</em>-Pyrazol-3-one, 1,2-dihydro-;3-Pyrazolin-5-one;Pyrazol-3(<em>or</em> 5)-ol;1,2-Dihydro-3<em>H</em>-pyrazol-3-one;3-Pyrazolone;1<em>H</em>-Pyrazol-3-ol;Pyrazol-5-ol;3-Hydroxypyrazole;Pyrazol-3-ol;1<em>H</em>-Pyrazol-5-ol;3-Pyrazoline-5-one;4-Pyrazolin-3-one;NSC 520837;1,2-Dihydropyrazol-3-one;1<em>H</em>-Pyrazol-3(2<em>H</em>)-one;2,3-Dihydro-1<em>H</em>-pyrazol-3-one",
    "duplicated_cas_no": "31470-09-4;34855-41-9;60456-92-0",
    "SMILES": "O=C1C=CNN1",
    "meta_data": {
        "InChI": "InChI=1S/C3H4N2O/c6-3-1-2-4-5-3/h1-2H,(H2,4,5,6)",
        "InChIKey": null,
        "Canonical SMILES": "O=C1C=CNN1",
        "Molecular Formula": "C<sub>3</sub>H<sub>4</sub>N<sub>2</sub>O",
        "Molecular Mass": "84.08",
        "Melting Point": "160-162 °C"
    }
}