{
    "cas_no": "2146-71-6",
    "key_name": "Vinyl laurate",
    "cn_name": "月桂酸乙烯酯;",
    "alternate_name": "Dodecanoic acid, ethenyl ester;Lauric acid, vinyl ester;Vinyl laurate;Vinyl dodecanoate;Dodecanoic acid vinyl ester;NSC 32650",
    "duplicated_cas_no": "",
    "SMILES": "C(CCCCCCCCCCC)(OC=C)=O",
    "meta_data": {
        "InChI": "InChI=1S/C14H26O2/c1-3-5-6-7-8-9-10-11-12-13-14(15)16-4-2/h4H,2-3,5-13H2,1H3",
        "InChIKey": null,
        "Canonical SMILES": "O=C(OC=C)CCCCCCCCCCC",
        "Molecular Formula": "C<sub>14</sub>H<sub>26</sub>O<sub>2</sub>",
        "Molecular Mass": "226.35",
        "Boiling Point": "123 °C @ Press: 4 Torr",
        "Density": "0.8641 g/cm³ @ Temp: 20 °C"
    }
}