{
    "cas_no": "7044-91-9",
    "key_name": "9,10-Anthracenedicarboxaldehyde",
    "cn_name": "9,10-蒽二羧醛;",
    "alternate_name": "9,10-Anthracenedicarboxaldehyde;9,10-Anthracenedialdehyde;9,10-Anthracenedicarbaldehyde;9,10-Diformylanthracene;NSC 529667",
    "duplicated_cas_no": "",
    "SMILES": "C(=O)C=1C2=C(C(C=O)=C3C1C=CC=C3)C=CC=C2",
    "meta_data": {
        "InChI": "InChI=1S/C16H10O2/c17-9-15-11-5-1-2-6-12(11)16(10-18)14-8-4-3-7-13(14)15/h1-10H",
        "InChIKey": null,
        "Canonical SMILES": "O=CC=1C=2C=CC=CC2C(C=O)=C3C=CC=CC13",
        "Molecular Formula": "C<sub>16</sub>H<sub>10</sub>O<sub>2</sub>",
        "Molecular Mass": "234.25",
        "Melting Point": "244-245 °C"
    }
}