{
    "cas_no": "35275-62-8",
    "key_name": "1-Chloro-2,3-dihydro-1<em>H</em>-indene",
    "cn_name": null,
    "alternate_name": "1<em>H</em>-Indene, 1-chloro-2,3-dihydro-;Indan, 1-chloro-;1-Chloro-2,3-dihydro-1<em>H</em>-indene;α-Chlorindane;1-Chloroindan;1-Chloroindane;1-Indanyl chloride;1-Chloro-2,3-dihydroindene",
    "duplicated_cas_no": "130985-25-0",
    "SMILES": "ClC1C=2C(=CC=CC2)CC1",
    "meta_data": {
        "InChI": "InChI=1S/C9H9Cl/c10-9-6-5-7-3-1-2-4-8(7)9/h1-4,9H,5-6H2",
        "InChIKey": null,
        "Canonical SMILES": "ClC1C=2C=CC=CC2CC1",
        "Molecular Formula": "C<sub>9</sub>H<sub>9</sub>Cl",
        "Molecular Mass": "152.62",
        "Boiling Point": "105 °C @ Press: 22 Torr"
    }
}