{
    "cas_no": "604-09-1",
    "key_name": "17β-Hydroxyprogesterone",
    "cn_name": "17alpha-羟基黄体酮;17alpha-羟孕酮;17alpha-羟基孕甾-4-烯-3,20-二酮;",
    "alternate_name": "Pregn-4-ene-3,20-dione, 17-hydroxy-, (17α)-;17α-Pregn-4-ene-3,20-dione, 17-hydroxy-;(17α)-17-Hydroxypregn-4-ene-3,20-dione;17β-Hydroxy-17α-pregn-4-ene-3,20-dione;17-Hydroxyisopregn-4-en-3,20-dione;Pregn-4-ene-17α-hydroxy-3,20-dione;17β-Hydroxyprogesterone",
    "duplicated_cas_no": "",
    "SMILES": "C[C@@]12[C@]([C@]3([C@@]([C@]4(C)C(CC3)=CC(=O)CC4)(CC1)[H])[H])(CC[C@]2(C(C)=O)O)[H]",
    "meta_data": {
        "InChI": "InChI=1S/C21H30O3/c1-13(22)21(24)11-8-18-16-5-4-14-12-15(23)6-9-19(14,2)17(16)7-10-20(18,21)3/h12,16-18,24H,4-11H2,1-3H3/t16-,17+,18+,19+,20+,21-/m1/s1",
        "InChIKey": null,
        "Canonical SMILES": "O=C1C=C2CCC3C(CCC4(C)C3CCC4(O)C(=O)C)C2(C)CC1",
        "Molecular Formula": "C<sub>21</sub>H<sub>30</sub>O<sub>3</sub>",
        "Molecular Mass": "330.46",
        "Melting Point": "212-215 °C"
    }
}