{
    "cas_no": "56278-50-3",
    "key_name": "2-Benzothiazoleacetonitrile",
    "cn_name": "苯并噻唑-2-乙腈;2-苯并噻唑乙腈;",
    "alternate_name": "2-Benzothiazoleacetonitrile;2-(Cyanomethyl)benzothiazole;2-Benzothiazolylacetonitrile;NSC 379416;1,3-Benzothiazol-2-ylacetonitrile;2-(Cyanomethyl)-1,3-benzothiazole;2-(Benzothiazol-2-yl)acetonitrile;2-(Benzo[<em>d</em>]thiazol-2-yl)acetonitrile;2-(1,3-Benzothiazol-2-yl)acetonitrile",
    "duplicated_cas_no": "",
    "SMILES": "C(C#N)C1=NC=2C(S1)=CC=CC2",
    "meta_data": {
        "InChI": "InChI=1S/C9H6N2S/c10-6-5-9-11-7-3-1-2-4-8(7)12-9/h1-4H,5H2",
        "InChIKey": null,
        "Canonical SMILES": "N#CCC1=NC=2C=CC=CC2S1",
        "Molecular Formula": "C<sub>9</sub>H<sub>6</sub>N<sub>2</sub>S",
        "Molecular Mass": "174.22",
        "Melting Point": "98-100 °C"
    }
}