{
    "cas_no": "30388-44-4",
    "key_name": "<em>N</em>-Methyl-4-(methylsulfonyl)-2-nitrobenzenamine",
    "cn_name": null,
    "alternate_name": "Benzenamine, <em>N</em>-methyl-4-(methylsulfonyl)-2-nitro-;Aniline, <em>N</em>-methyl-4-(methylsulfonyl)-2-nitro-;<em>N</em>-Methyl-4-(methylsulfonyl)-2-nitrobenzenamine;4-Mesyl-<em>N</em>-methyl-2-nitroaniline",
    "duplicated_cas_no": "",
    "SMILES": "N(=O)(=O)C1=C(NC)C=CC(S(C)(=O)=O)=C1",
    "meta_data": {
        "InChI": "InChI=1S/C8H10N2O4S/c1-9-7-4-3-6(15(2,13)14)5-8(7)10(11)12/h3-5,9H,1-2H3",
        "InChIKey": null,
        "Canonical SMILES": "O=N(=O)C1=CC(=CC=C1NC)S(=O)(=O)C",
        "Molecular Formula": "C<sub>8</sub>H<sub>10</sub>N<sub>2</sub>O<sub>4</sub>S",
        "Molecular Mass": "230.24",
        "Melting Point": "193.5 °C"
    }
}