{
    "cas_no": "480-20-6",
    "key_name": "Dihydrokaempferol",
    "cn_name": null,
    "alternate_name": "4<em>H</em>-1-Benzopyran-4-one, 2,3-dihydro-3,5,7-trihydroxy-2-(4-hydroxyphenyl)-, (2<em>R</em>,3<em>R</em>)-;Flavanone, 3,4′,5,7-tetrahydroxy-;4<em>H</em>-1-Benzopyran-4-one, 2,3-dihydro-3,5,7-trihydroxy-2-(4-hydroxyphenyl)-, (2<em>R</em>-<em>trans</em>)-;(2<em>R</em>,3<em>R</em>)-2,3-Dihydro-3,5,7-trihydroxy-2-(4-hydroxyphenyl)-4<em>H</em>-1-benzopyran-4-one;Aromadendrin;Aromadendrol;Dihydrokaempferol;Katuranin;Aromadendrine;(+)-Dihydrokaempferol;3,4′,5,7-Tetrahydroxyflavanone;(+)-Aromadendrin;(2<em>R</em>,3<em>R</em>)-Katuranin;(2<em>R</em>,3<em>R</em>)-3,4′,5,7-Tetrahydroxyflavanone;(+)-(2<em>R</em>,3<em>R</em>)-Dihydrokaempferol",
    "duplicated_cas_no": "95297-04-4;4050-91-3;5150-32-3;20257-56-1;29400-53-1;56297-98-4",
    "SMILES": "O=C1C=2C(O[C@@H]([C@H]1O)C3=CC=C(O)C=C3)=CC(O)=CC2O",
    "meta_data": {
        "InChI": "InChI=1S/C15H12O6/c16-8-3-1-7(2-4-8)15-14(20)13(19)12-10(18)5-9(17)6-11(12)21-15/h1-6,14-18,20H/t14-,15+/m0/s1",
        "InChIKey": null,
        "Canonical SMILES": "O=C1C=2C(O)=CC(O)=CC2OC(C3=CC=C(O)C=C3)C1O",
        "Molecular Formula": "C<sub>15</sub>H<sub>12</sub>O<sub>6</sub>",
        "Molecular Mass": "288.25",
        "Boiling Point": "139-140 °C",
        "Melting Point": "224-225 °C (decomp)"
    }
}