{
    "cas_no": "1731-84-6",
    "key_name": "Methyl nonanoate",
    "cn_name": "壬酸甲酯;壬酸甲酯;",
    "alternate_name": "Nonanoic acid, methyl ester;Methyl nonanoate;Methyl nonylate;Methyl pelargonate;Methyl <em>n</em>-nonanoate;Pelargonic acid methyl ester",
    "duplicated_cas_no": "",
    "SMILES": "C(CCC(OC)=O)CCCCC",
    "meta_data": {
        "InChI": "InChI=1S/C10H20O2/c1-3-4-5-6-7-8-9-10(11)12-2/h3-9H2,1-2H3",
        "InChIKey": null,
        "Canonical SMILES": "O=C(OC)CCCCCCCC",
        "Molecular Formula": "C<sub>10</sub>H<sub>20</sub>O<sub>2</sub>",
        "Molecular Mass": "172.26",
        "Boiling Point": "213.5 °C",
        "Density": "0.8655 g/cm³ @ Temp: 25 °C"
    }
}