{
    "cas_no": "27143-07-3",
    "key_name": "Ethyl 2-chloro-2-[2-(4-methoxyphenyl)hydrazono]acetate",
    "cn_name": null,
    "alternate_name": "Acetic acid, 2-chloro-2-[2-(4-methoxyphenyl)hydrazinylidene]-, ethyl ester;Glyoxylic acid, chloro-, ethyl ester, 2-[(<em>p</em>-methoxyphenyl)hydrazone];Acetic acid, chloro[(4-methoxyphenyl)hydrazono]-, ethyl ester;Chloro[(4-methoxyphenyl)hydrazono]acetic acid ethyl ester;Ethyl chloro[(4-methoxyphenyl)hydrazono]acetate;Ethyl 2-chloro-2-[2-(4-methoxyphenyl)hydrazono]acetate;Ethyl 2-chloro-2-[(4-methoxyphenyl)hydrazinylidene]acetate",
    "duplicated_cas_no": "",
    "SMILES": "N(N=C(C(OCC)=O)Cl)C1=CC=C(OC)C=C1",
    "meta_data": {
        "InChI": "InChI=1S/C11H13ClN2O3/c1-3-17-11(15)10(12)14-13-8-4-6-9(16-2)7-5-8/h4-7,13H,3H2,1-2H3",
        "InChIKey": null,
        "Canonical SMILES": "O=C(OCC)C(Cl)=NNC1=CC=C(OC)C=C1",
        "Molecular Formula": "C<sub>11</sub>H<sub>13</sub>ClN<sub>2</sub>O<sub>3</sub>",
        "Molecular Mass": "256.69",
        "Melting Point": "94 °C"
    }
}