{
    "cas_no": "98-08-8",
    "key_name": "(Trifluoromethyl)benzene",
    "cn_name": "三氟甲苯;",
    "alternate_name": "Benzene, (trifluoromethyl)-;Toluene, α,α,α-trifluoro-;Toluene, α-trifluoro-;(Trifluoromethyl)benzene;Benzotrifluoride;Phenylfluoroform;α,α,α-Trifluorotoluene;Benzenyl fluoride;Benzylidyne fluoride;1′,1′,1′-Trifluorotoluene;Oxsol 2000;NSC 8038;Trifluoro(phenyl)methane",
    "duplicated_cas_no": "",
    "SMILES": "C(F)(F)(F)C1=CC=CC=C1",
    "meta_data": {
        "InChI": "InChI=1S/C7H5F3/c8-7(9,10)6-4-2-1-3-5-6/h1-5H",
        "InChIKey": null,
        "Canonical SMILES": "FC(F)(F)C=1C=CC=CC1",
        "Molecular Formula": "C<sub>7</sub>H<sub>5</sub>F<sub>3</sub>",
        "Molecular Mass": "146.11",
        "Boiling Point": "103.46 °C",
        "Melting Point": "-29.05 °C",
        "Density": "1.1886 g/cm³ @ Temp: 20 °C"
    }
}