{
    "cas_no": "611-21-2",
    "key_name": "<em>N</em>-Methyl-<em>o</em>-toluidine",
    "cn_name": null,
    "alternate_name": "Benzenamine, <em>N</em>,2-dimethyl-;<em>o</em>-Toluidine, <em>N</em>-methyl-;<em>N</em>,2-Dimethylbenzenamine;2,<em>N</em>-Dimethylaniline;<em>N</em>-Methyl-<em>o</em>-toluidine;<em>N</em>,2-Dimethylaniline;<em>o</em>,<em>N</em>-Dimethylaniline;<em>N</em>,<em>o</em>-Dimethylaniline;<em>N</em>-Methyl-<em>o</em>-methylaniline;<em>N</em>-Methyl-2-methylaniline;<em>N</em>-Methyl-2-methylbenzenamine;2-Methyl-<em>N</em>-methylaniline;Methyl(<em>o</em>-tolyl)amine;NSC 9395;<em>N</em>-(2-Methylphenyl)methylamine;<em>N</em>-Methyl-<em>N</em>-(<em>o</em>-tolyl)amine",
    "duplicated_cas_no": "",
    "SMILES": "N(C)C1=C(C)C=CC=C1",
    "meta_data": {
        "InChI": "InChI=1S/C8H11N/c1-7-5-3-4-6-8(7)9-2/h3-6,9H,1-2H3",
        "InChIKey": null,
        "Canonical SMILES": "C=1C=CC(=C(C1)NC)C",
        "Molecular Formula": "C<sub>8</sub>H<sub>11</sub>N",
        "Molecular Mass": "121.18",
        "Boiling Point": "207.5 °C",
        "Melting Point": "150-151 °C",
        "Density": "0.9769 g/cm³"
    }
}