{
    "cas_no": "88-27-7",
    "key_name": "2,6-Di-<em>tert</em>-butyl-α-(dimethylamino)-<em>p</em>-cresol",
    "cn_name": "2,6-二叔丁基对(二甲氨甲基)苯酚;",
    "alternate_name": "Phenol, 4-[(dimethylamino)methyl]-2,6-bis(1,1-dimethylethyl)-;<em>p</em>-Cresol, 2,6-di-<em>tert</em>-butyl-α-(dimethylamino)-;4-[(Dimethylamino)methyl]-2,6-bis(1,1-dimethylethyl)phenol;2,6-Di-<em>tert</em>-butyl-4-(dimethylaminomethyl)phenol;2,6-Di-<em>tert</em>-butyl-4-(<em>N</em>,<em>N</em>-dimethylaminomethyl)phenol;<em>N</em>,<em>N</em>-Dimethyl(3,5-<em>di</em>-<em>tert</em>-butyl-4-hydroxybenzyl)amine;(3,5-di-<em>tert</em>-Butyl-4-hydroxybenzyl)dimethylamine;<em>N</em>,<em>N</em>-Dimethyl-3,5-di-<em>tert</em>-butyl-4-hydroxybenzylamine;2,6-Di-<em>tert</em>-butyl-α-(dimethylamino)-<em>p</em>-cresol;<em>N</em>-(3,5-di-<em>tert</em>-Butyl-4-hydroxybenzyl)-<em>N</em>,<em>N</em>-dimethylamine;Ethyl 703;<em>N</em>-(3,5-Di-<em>tert</em>-butyl-4-hydroxybenzyl)dimethylamine;<em>N</em>,<em>N</em>-Dimethyl-3,5-bis(1,1-dimethylethyl)-4-hydroxybenzylamine;OMI;Ethyl Antioxidant 703;Agidol 3;F 1 (antioxidant);F 1;4-(<em>N</em>,<em>N</em>-Dimethylaminomethyl)-2,6-di-<em>tert</em>-butylphenol;Ethanox 703;4-[(Dimethylamino)methyl]-2,6-di-<em>tert</em>-butylphenol;2,6-Di-<em>tert</em>-butyl-α-(dimethylamino)-4-cresol;NSC 27823;NSC 58410;<em>N</em>,<em>N</em>-Dimethyl-(3,5-di-<em>tert</em>-butyl-4-oxybenzyl)amine;Antioxidant 703;Ionol 103;2,6-Ditert-butyl-4-[(dimethylamino)methyl]phenol",
    "duplicated_cas_no": "42567-07-7;2137444-05-2",
    "SMILES": "C(C)(C)(C)C1=C(O)C(C(C)(C)C)=CC(CN(C)C)=C1",
    "meta_data": {
        "InChI": "InChI=1S/C17H29NO/c1-16(2,3)13-9-12(11-18(7)8)10-14(15(13)19)17(4,5)6/h9-10,19H,11H2,1-8H3",
        "InChIKey": null,
        "Canonical SMILES": "OC=1C(=CC(=CC1C(C)(C)C)CN(C)C)C(C)(C)C",
        "Molecular Formula": "C<sub>17</sub>H<sub>29</sub>NO",
        "Molecular Mass": "263.42",
        "Melting Point": "92-93.5 °C"
    }
}