{
    "cas_no": "91-88-3",
    "key_name": "3-Methyl-<em>N</em>-ethyl-<em>N</em>-(β-hydroxyethyl)aniline",
    "cn_name": "N-乙基-N-羟乙基间甲苯胺;",
    "alternate_name": "Ethanol, 2-[ethyl(3-methylphenyl)amino]-;Ethanol, 2-(<em>N</em>-ethyl-<em>m</em>-toluidino)-;2-[Ethyl(3-methylphenyl)amino]ethanol;2-(<em>N</em>-Ethyl-<em>m</em>-toluidino)ethanol;<em>N</em>-Ethyl-<em>N</em>-(2-hydroxyethyl)-3-methylaniline;3-Methyl-<em>N</em>-ethyl-<em>N</em>-(β-hydroxyethyl)aniline;<em>N</em>-Ethyl-<em>N</em>-(β-hydroxyethyl)-<em>m</em>-toluidine;<em>N</em>-Ethyl-<em>N</em>-(2-hydroxyethyl)-<em>m</em>-toluidine;NSC 89746;2-(<em>N</em>-Ethyl-3-methylanilino)ethanol;2-[Ethyl(3-methylphenyl)amino]ethan-1-ol;2-(Ethyl(<em>m</em>-tolyl)amino)ethanol",
    "duplicated_cas_no": "",
    "SMILES": "N(CCO)(CC)C1=CC(C)=CC=C1",
    "meta_data": {
        "InChI": "InChI=1S/C11H17NO/c1-3-12(7-8-13)11-6-4-5-10(2)9-11/h4-6,9,13H,3,7-8H2,1-2H3",
        "InChIKey": null,
        "Canonical SMILES": "OCCN(C1=CC=CC(=C1)C)CC",
        "Molecular Formula": "C<sub>11</sub>H<sub>17</sub>NO",
        "Molecular Mass": "179.26",
        "Boiling Point": "128-133 °C @ Press: 3 Torr"
    }
}