{
    "cas_no": "116384-53-3",
    "key_name": "Diethyl <em>P</em>-[[2-(6-amino-9<em>H</em>-purin-9-yl)ethoxy]methyl]phosphonate",
    "cn_name": "[[2-(6-氨基-9H-嘌呤-9-基)乙氧基]甲基]膦酸二乙酯;9-[2-(二乙基膦酰甲氧基)乙基]腺嘌呤;",
    "alternate_name": "Phosphonic acid, <em>P</em>-[[2-(6-amino-9<em>H</em>-purin-9-yl)ethoxy]methyl]-, diethyl ester;Phosphonic acid, [[2-(6-amino-9<em>H</em>-purin-9-yl)ethoxy]methyl]-, diethyl ester;Diethyl <em>P</em>-[[2-(6-amino-9<em>H</em>-purin-9-yl)ethoxy]methyl]phosphonate;[[2-(6-Amino-9<em>H</em>-purin-9-yl)ethoxy]methyl]phosphonic acid diethyl ester",
    "duplicated_cas_no": "",
    "SMILES": "C(COCP(OCC)(OCC)=O)N1C=2C(N=C1)=C(N)N=CN2",
    "meta_data": {
        "InChI": "InChI=1S/C12H20N5O4P/c1-3-20-22(18,21-4-2)9-19-6-5-17-8-16-10-11(13)14-7-15-12(10)17/h7-8H,3-6,9H2,1-2H3,(H2,13,14,15)",
        "InChIKey": null,
        "Canonical SMILES": "O=P(OCC)(OCC)COCCN1C=NC=2C(=NC=NC21)N",
        "Molecular Formula": "C<sub>12</sub>H<sub>20</sub>N<sub>5</sub>O<sub>4</sub>P",
        "Molecular Mass": "329.29",
        "Melting Point": "137 °C"
    }
}