{
    "cas_no": "2749-59-9",
    "key_name": "1,3-Dimethyl-5-pyrazolone",
    "cn_name": "1,3-二甲基-5-吡唑酮;1,3-二甲基吡唑-5-酮;",
    "alternate_name": "3<em>H</em>-Pyrazol-3-one, 2,4-dihydro-2,5-dimethyl-;2-Pyrazolin-5-one, 1,3-dimethyl-;2,4-Dihydro-2,5-dimethyl-3<em>H</em>-pyrazol-3-one;1,3-Dimethyl-5-pyrazolone;1,3-Dimethyl-5-pyrazolinone;1,3-Dimethyl-2-pyrazolin-5-one;NSC 304;2,5-Dimethyl-2,4-dihydro-pyrazol-3-one;1,3-Dimethyl-4,5-dihydro-1<em>H</em>-pyrazol-5-one;2,5-Dimethyl-4<em>H</em>-pyrazol-3-one;1,3-Dimethyl-1<em>H</em>-pyrazol-5(4<em>H</em>)-one",
    "duplicated_cas_no": "",
    "SMILES": "O=C1N(C)N=C(C)C1",
    "meta_data": {
        "InChI": "InChI=1S/C5H8N2O/c1-4-3-5(8)7(2)6-4/h3H2,1-2H3",
        "InChIKey": null,
        "Canonical SMILES": "O=C1N(N=C(C)C1)C",
        "Molecular Formula": "C<sub>5</sub>H<sub>8</sub>N<sub>2</sub>O",
        "Molecular Mass": "112.13",
        "Boiling Point": "88-89 °C @ Press: 10 Torr",
        "Melting Point": "122 °C"
    }
}