{
    "cas_no": "1747-60-0",
    "key_name": "2-Amino-6-methoxybenzothiazole",
    "cn_name": "2-氨基-6-甲氧基苯并噻唑;",
    "alternate_name": "2-Benzothiazolamine, 6-methoxy-;Benzothiazole, 2-amino-6-methoxy-;6-Methoxy-2-benzothiazolamine;6-Methoxy-2-aminobenzothiazole;2-Amino-6-methoxybenzothiazole;6-Methoxy-1,3-benzothiazol-2-ylamine;NSC 27516;(6-Methoxybenzothiazol-2-yl)amine;6-Methoxybenzo[<em>d</em>]thiazol-2-amine;6-Methoxy-1,3-benzothiazol-2-amine;6-(Methyloxy)-1,3-benzothiazol-2-amine",
    "duplicated_cas_no": "",
    "SMILES": "NC1=NC=2C(=CC(OC)=CC2)S1",
    "meta_data": {
        "InChI": "InChI=1S/C8H8N2OS/c1-11-5-2-3-6-7(4-5)12-8(9)10-6/h2-4H,1H3,(H2,9,10)",
        "InChIKey": null,
        "Canonical SMILES": "N1=C(SC=2C=C(OC)C=CC12)N",
        "Molecular Formula": "C<sub>8</sub>H<sub>8</sub>N<sub>2</sub>OS",
        "Molecular Mass": "180.23",
        "Melting Point": "158 °C"
    }
}