{
    "cas_no": "190273-89-3",
    "key_name": "6-Bromo-2-quinazolinamine",
    "cn_name": "2-氨基-6-溴喹唑啉;",
    "alternate_name": "2-Quinazolinamine, 6-bromo-;6-Bromo-2-quinazolinamine;2-Amino-6-bromoquinazoline;6-Bromoquinazolin-2-amine",
    "duplicated_cas_no": "",
    "SMILES": "BrC1=CC2=C(N=C(N)N=C2)C=C1",
    "meta_data": {
        "InChI": "InChI=1S/C8H6BrN3/c9-6-1-2-7-5(3-6)4-11-8(10)12-7/h1-4H,(H2,10,11,12)",
        "InChIKey": null,
        "Canonical SMILES": "BrC1=CC=C2N=C(N=CC2=C1)N",
        "Molecular Formula": "C<sub>8</sub>H<sub>6</sub>BrN<sub>3</sub>",
        "Molecular Mass": "224.06",
        "Melting Point": "270-272 °C"
    }
}