{
    "cas_no": "1187594-09-7",
    "key_name": "Baricitinib",
    "cn_name": null,
    "alternate_name": "3-Azetidineacetonitrile, 1-(ethylsulfonyl)-3-[4-(7<em>H</em>-pyrrolo[2,3-<em>d</em>]pyrimidin-4-yl)-1<em>H</em>-pyrazol-1-yl]-;1-(Ethylsulfonyl)-3-[4-(7<em>H</em>-pyrrolo[2,3-<em>d</em>]pyrimidin-4-yl)-1<em>H</em>-pyrazol-1-yl]-3-azetidineacetonitrile;LY 3009104;Baricitinib;INCB 028050;INCB 28050;Olumiant;2-(3-(4-(3<em>H</em>-Pyrrolo[2,3-<em>d</em>]pyrimidin-4-yl)-1<em>H</em>-pyrazol-1-yl)-1-(ethylsulfonyl)azetidin-3-yl)acetonitrile",
    "duplicated_cas_no": "1231199-29-3;1374987-77-5",
    "SMILES": "C(C#N)C1(CN(S(CC)(=O)=O)C1)N2C=C(C=N2)C3=C4C(=NC=N3)NC=C4",
    "meta_data": {
        "InChI": "InChI=1S/C16H17N7O2S/c1-2-26(24,25)22-9-16(10-22,4-5-17)23-8-12(7-21-23)14-13-3-6-18-15(13)20-11-19-14/h3,6-8,11H,2,4,9-10H2,1H3,(H,18,19,20)",
        "InChIKey": null,
        "Canonical SMILES": "N#CCC1(N2N=CC(=C2)C=3N=CN=C4NC=CC43)CN(C1)S(=O)(=O)CC",
        "Molecular Formula": "C<sub>16</sub>H<sub>17</sub>N<sub>7</sub>O<sub>2</sub>S",
        "Molecular Mass": "371.42",
        "Melting Point": "193-195 °C"
    }
}