{
    "cas_no": "1198-97-6",
    "key_name": "4-Phenyl-2-pyrrolidinone",
    "cn_name": "4-苯基-2-吡咯烷酮;",
    "alternate_name": "2-Pyrrolidinone, 4-phenyl-;4-Phenyl-2-pyrrolidinone;β-Phenyl-γ-aminobutyric acid lactam;4-Phenyl-2-pyrrolidone;3-Phenyl-5-pyrrolidinone",
    "duplicated_cas_no": "61548-72-9",
    "SMILES": "O=C1CC(CN1)C2=CC=CC=C2",
    "meta_data": {
        "InChI": "InChI=1S/C10H11NO/c12-10-6-9(7-11-10)8-4-2-1-3-5-8/h1-5,9H,6-7H2,(H,11,12)",
        "InChIKey": null,
        "Canonical SMILES": "O=C1NCC(C=2C=CC=CC2)C1",
        "Molecular Formula": "C<sub>10</sub>H<sub>11</sub>NO",
        "Molecular Mass": "161.20",
        "Boiling Point": "198-200 °C @ Press: 10 Torr",
        "Melting Point": "60 °C"
    }
}