{
    "cas_no": "16881-39-3",
    "key_name": "2-(1,1-Dimethylethyl) 1-(phenylmethyl) (2<em>S</em>)-1,2-pyrrolidinedicarboxylate",
    "cn_name": "Z-脯氨酸叔丁基酯;",
    "alternate_name": "1,2-Pyrrolidinedicarboxylic acid, 2-(1,1-dimethylethyl) 1-(phenylmethyl) ester, (2<em>S</em>)-;1,2-Pyrrolidinedicarboxylic acid, 1-benzyl <em>tert</em>-butyl ester, <span class=\"text-smallcaps\">L</span>-;1,2-Pyrrolidinedicarboxylic acid, 2-(1,1-dimethylethyl) 1-(phenylmethyl) ester, (<em>S</em>)-;2-(1,1-Dimethylethyl) 1-(phenylmethyl) (2<em>S</em>)-1,2-pyrrolidinedicarboxylate;(Benzyloxycarbonyl)-<span class=\"text-smallcaps\">L</span>-proline <em>tert</em>-butyl ester;Carbobenzoxy-<span class=\"text-smallcaps\">L</span>-proline <em>tert</em>-butyl ester;<em>N</em>-Benzyloxycarbonyl-<span class=\"text-smallcaps\">L</span>-proline <em>tert</em>-butyl ester;Cbz-Pro-OBu-<em>t</em>;1-<em>O</em>-Benzyl 2-<em>O</em>-<em>tert</em>-butyl (2S)-pyrrolidine-1,2-dicarboxylate",
    "duplicated_cas_no": "",
    "SMILES": "C(OC(C)(C)C)(=O)[C@H]1N(C(OCC2=CC=CC=C2)=O)CCC1",
    "meta_data": {
        "InChI": "InChI=1S/C17H23NO4/c1-17(2,3)22-15(19)14-10-7-11-18(14)16(20)21-12-13-8-5-4-6-9-13/h4-6,8-9,14H,7,10-12H2,1-3H3/t14-/m0/s1",
        "InChIKey": null,
        "Canonical SMILES": "O=C(OCC=1C=CC=CC1)N2CCCC2C(=O)OC(C)(C)C",
        "Molecular Formula": "C<sub>17</sub>H<sub>23</sub>NO<sub>4</sub>",
        "Molecular Mass": "305.37",
        "Melting Point": "44-45 °C"
    }
}