{
    "cas_no": "5837-78-5",
    "key_name": "Ethyl tiglate",
    "cn_name": "惕各酸乙酯;(E)-2-甲基-2-丁烯酸乙酯;",
    "alternate_name": "2-Butenoic acid, 2-methyl-, ethyl ester, (2<em>E</em>)-;Crotonic acid, 2-methyl-, ethyl ester, (<em>E</em>)-;Tiglic acid, ethyl ester;2-Butenoic acid, 2-methyl-, ethyl ester, (<em>E</em>)-;Ethyl tiglate;Ethyl α-methylcrotonate;(<em>E</em>)-2-Methyl-2-butenoic acid ethyl ester;NSC 55278;(<em>E</em>)-Ethyl 2-methylbut-2-enoate;Ethyl (2E)-2-methyl-2-butenoate;Ethyl <em>trans</em>-2-methyl-2-butenoate;(E)-2-Methylbut-2-enoic acid ethyl ester",
    "duplicated_cas_no": "",
    "SMILES": "C(/C(=C/C)/C)(OCC)=O",
    "meta_data": {
        "InChI": "InChI=1S/C7H12O2/c1-4-6(3)7(8)9-5-2/h4H,5H2,1-3H3/b6-4+",
        "InChIKey": null,
        "Canonical SMILES": "O=C(OCC)C(=CC)C",
        "Molecular Formula": "C<sub>7</sub>H<sub>12</sub>O<sub>2</sub>",
        "Molecular Mass": "128.17",
        "Boiling Point": "156 °C"
    }
}