{
    "cas_no": "3648-21-3",
    "key_name": "Diheptyl phthalate",
    "cn_name": null,
    "alternate_name": "1,2-Benzenedicarboxylic acid, 1,2-diheptyl ester;Phthalic acid, diheptyl ester;1,2-Benzenedicarboxylic acid, diheptyl ester;Diheptyl phthalate;Heptyl phthalate;Di-<em>n</em>-heptyl phthalate;Sansocizer DHP;Bis-heptyl phthalate",
    "duplicated_cas_no": "275818-86-5",
    "SMILES": "C(OCCCCCCC)(=O)C1=C(C(OCCCCCCC)=O)C=CC=C1",
    "meta_data": {
        "InChI": "InChI=1S/C22H34O4/c1-3-5-7-9-13-17-25-21(23)19-15-11-12-16-20(19)22(24)26-18-14-10-8-6-4-2/h11-12,15-16H,3-10,13-14,17-18H2,1-2H3",
        "InChIKey": null,
        "Canonical SMILES": "O=C(OCCCCCCC)C=1C=CC=CC1C(=O)OCCCCCCC",
        "Molecular Formula": "C<sub>22</sub>H<sub>34</sub>O<sub>4</sub>",
        "Molecular Mass": "362.50",
        "Boiling Point": "360 °C @ Press: 760 Torr",
        "Melting Point": "&lt;40 °C",
        "Density": "0.99 g/cm³"
    }
}