{
    "cas_no": "50-06-6",
    "key_name": "Phenobarbital",
    "cn_name": "苯巴比妥;5-乙基-5-苯基-1-甲基-2,4,6-(1H,3H,5H)-嘧啶三酮;",
    "alternate_name": "2,4,6(1<em>H</em>,3<em>H</em>,5<em>H</em>)-Pyrimidinetrione, 5-ethyl-5-phenyl-;Barbituric acid, 5-ethyl-5-phenyl-;5-Ethyl-5-phenyl-2,4,6(1<em>H</em>,3<em>H</em>,5<em>H</em>)-pyrimidinetrione;Adonal;Agrypnal;Amylofene;Barbenyl;Barbiphenyl;Barbipil;Barbita;Barbivis;Blu-phen;Dormiral;Doscalun;Duneryl;Eskabarb;5-Ethyl-5-phenylbarbituric acid;Etilfen;Euneryl;Fenemal;Gardenal;Gardepanyl;Lepinal;Liquital;Lixophen;Luminal;Neurobarb;Noptil;Nunol;Phenemal;Phenobarbital;Phenobarbitone;Phenoluric;Phenonyl;Phenylethylbarbituric acid;5-Phenyl-5-ethylbarbituric acid;Phenylethylmalonylurea;Phob;Somonal;Stental Extentabs;Teolaxin;Triphenatol;Versomnal;Sevenal;Phenobarbituric acid;Lepinaletten;Lubergal;Phenyral;Cratecil;Hysteps;Phenaemal;Sedonal;Sedophen;Phenobar;Talpheno;Solfoton;NSC 128143;NSC 9848;Fenemal recip;Luminalum;5-Ethyl-5-phenyl-1,3-diazinane-2,4,6-trione;MeSH ID: D010634",
    "duplicated_cas_no": "11097-06-6;46755-67-3",
    "SMILES": "C(C)C1(C(=O)NC(=O)NC1=O)C2=CC=CC=C2",
    "meta_data": {
        "InChI": "InChI=1S/C12H12N2O3/c1-2-12(8-6-4-3-5-7-8)9(15)13-11(17)14-10(12)16/h3-7H,2H2,1H3,(H2,13,14,15,16,17)",
        "InChIKey": null,
        "Canonical SMILES": "O=C1NC(=O)C(C(=O)N1)(C=2C=CC=CC2)CC",
        "Molecular Formula": "C<sub>12</sub>H<sub>12</sub>N<sub>2</sub>O<sub>3</sub>",
        "Molecular Mass": "232.24",
        "Melting Point": "174-178 °C",
        "Density": "0.7 g/cm³"
    }
}