{
    "cas_no": "280773-16-2",
    "key_name": "<em>N</em>-(5-Chloro-2-pyridinyl)-5-methoxy-2-nitrobenzamide",
    "cn_name": null,
    "alternate_name": "Benzamide, <em>N</em>-(5-chloro-2-pyridinyl)-5-methoxy-2-nitro-;<em>N</em>-(5-Chloro-2-pyridinyl)-5-methoxy-2-nitrobenzamide",
    "duplicated_cas_no": "",
    "SMILES": "C(NC1=CC=C(Cl)C=N1)(=O)C2=C(N(=O)=O)C=CC(OC)=C2",
    "meta_data": {
        "InChI": "InChI=1S/C13H10ClN3O4/c1-21-9-3-4-11(17(19)20)10(6-9)13(18)16-12-5-2-8(14)7-15-12/h2-7H,1H3,(H,15,16,18)",
        "InChIKey": null,
        "Canonical SMILES": "O=C(NC1=NC=C(Cl)C=C1)C2=CC(OC)=CC=C2N(=O)=O",
        "Molecular Formula": "C<sub>13</sub>H<sub>10</sub>ClN<sub>3</sub>O<sub>4</sub>",
        "Molecular Mass": "307.69",
        "Melting Point": "155-158 °C"
    }
}