{
    "cas_no": "24431-27-4",
    "key_name": "2-(4-Ethylphenoxy)acetic acid",
    "cn_name": "4-乙基苯氧基乙酸;",
    "alternate_name": "Acetic acid, 2-(4-ethylphenoxy)-;Acetic acid, (<em>p</em>-ethylphenoxy)-;Acetic acid, (4-ethylphenoxy)-;2-(4-Ethylphenoxy)acetic acid;4-Ethylphenoxyacetic acid;2-(<em>p</em>-Ethylphenoxy)acetic acid",
    "duplicated_cas_no": "",
    "SMILES": "O(CC(O)=O)C1=CC=C(CC)C=C1",
    "meta_data": {
        "InChI": "InChI=1S/C10H12O3/c1-2-8-3-5-9(6-4-8)13-7-10(11)12/h3-6H,2,7H2,1H3,(H,11,12)",
        "InChIKey": null,
        "Canonical SMILES": "O=C(O)COC1=CC=C(C=C1)CC",
        "Molecular Formula": "C<sub>10</sub>H<sub>12</sub>O<sub>3</sub>",
        "Molecular Mass": "180.20",
        "Melting Point": "96 °C"
    }
}