{
    "cas_no": "2882-15-7",
    "key_name": "5-Methoxy-2-methylindole-3-acetic acid",
    "cn_name": "5-甲氧基-2-甲基-3-吲哚乙酸;5-甲氧基-2-甲基-3-吲哚乙酸;",
    "alternate_name": "1<em>H</em>-Indole-3-acetic acid, 5-methoxy-2-methyl-;Indole-3-acetic acid, 5-methoxy-2-methyl-;5-Methoxy-2-methyl-1<em>H</em>-indole-3-acetic acid;De(chlorobenzoyl)indomethacin;5-Methoxy-2-methylindole-3-acetic acid;2-Methyl-5-methoxy-3-indolylacetic acid;5-Methoxy-2-methylindol-3-acetic acid;2-Methyl-5-methoxyindole-3-acetic acid;<em>N</em>-Des(4-chlorobenzoyl)indomethacin;5-Methoxy-2-methyl-3-indolylacetic acid;2-(5-Methoxy-2-methyl-1<em>H</em>-indol-3-yl)acetic acid;NSC 97026;(5-Methoxy-2-methyl-1<em>H</em>-indol-3-yl)acetic acid;2-(5-Methoxy-2-methylindol-3-yl)acetic acid",
    "duplicated_cas_no": "",
    "SMILES": "C(C(O)=O)C=1C=2C(NC1C)=CC=C(OC)C2",
    "meta_data": {
        "InChI": "InChI=1S/C12H13NO3/c1-7-9(6-12(14)15)10-5-8(16-2)3-4-11(10)13-7/h3-5,13H,6H2,1-2H3,(H,14,15)",
        "InChIKey": null,
        "Canonical SMILES": "O=C(O)CC=1C=2C=C(OC)C=CC2NC1C",
        "Molecular Formula": "C<sub>12</sub>H<sub>13</sub>NO<sub>3</sub>",
        "Molecular Mass": "219.24",
        "Melting Point": "161-162 °C"
    }
}