{
    "cas_no": "2135-17-3",
    "key_name": "Flumetasone",
    "cn_name": "氟米松;双氟美松;",
    "alternate_name": "Pregna-1,4-diene-3,20-dione, 6,9-difluoro-11,17,21-trihydroxy-16-methyl-, (6α,11β,16α)-;Pregna-1,4-diene-3,20-dione, 6α,9-difluoro-11β,17,21-trihydroxy-16α-methyl-;(6α,11β,16α)-6,9-Difluoro-11,17,21-trihydroxy-16-methylpregna-1,4-diene-3,20-dione;U 10974;6α,9α-Difluoro-16α-methylprednisolone;6α,9-Difluoro-11β,17,21-trihydroxy-16α-methylpregna-1,4-diene-3,20-dione;Flumethasone;6α-Fluorodexamethasone;6α,9α-Difluoro-16α-methyl-1,4-pregnadiene-11β,17α,21-triol-3,20-dione;Flumethason;Aniprime;Flucort;Methagon;Anaprime;Flucorticin;Fluvet;RS 2177;Cortexillar;Flumetasone;Vecort;6α-Fluorodexamethazone;Aniprome;NSC 5402;NSC 54702;Flutamethasone;MeSH ID: D005443",
    "duplicated_cas_no": "",
    "SMILES": "F[C@@]12[C@]([C@]3([C@](C)(C[C@@H]1O)[C@](C(CO)=O)(O)[C@H](C)C3)[H])(C[C@H](F)C=4[C@]2(C)C=CC(=O)C4)[H]",
    "meta_data": {
        "InChI": "InChI=1S/C22H28F2O5/c1-11-6-13-14-8-16(23)15-7-12(26)4-5-19(15,2)21(14,24)17(27)9-20(13,3)22(11,29)18(28)10-25/h4-5,7,11,13-14,16-17,25,27,29H,6,8-10H2,1-3H3/t11-,13+,14+,16+,17+,19+,20+,21+,22+/m1/s1",
        "InChIKey": null,
        "Canonical SMILES": "O=C1C=CC2(C(=C1)C(F)CC3C4CC(C)C(O)(C(=O)CO)C4(C)CC(O)C32F)C",
        "Molecular Formula": "C<sub>22</sub>H<sub>28</sub>F<sub>2</sub>O<sub>5</sub>",
        "Molecular Mass": "410.45",
        "Melting Point": "202-204 °C"
    }
}