{
    "cas_no": "2138-43-4",
    "key_name": "4-Isopropylcatechol",
    "cn_name": null,
    "alternate_name": "1,2-Benzenediol, 4-(1-methylethyl)-;Pyrocatechol, 4-isopropyl-;4-(1-Methylethyl)-1,2-benzenediol;1,2-Dihydroxy-4-isopropylbenzene;4-Isopropylcatechol;4-Isopropyl-1,2-dihydroxybenzene;4-Isopropylpyrocatechol;NSC 62676;4-Isopropyl-1,2-benzenediol",
    "duplicated_cas_no": "",
    "SMILES": "C(C)(C)C1=CC(O)=C(O)C=C1",
    "meta_data": {
        "InChI": "InChI=1S/C9H12O2/c1-6(2)7-3-4-8(10)9(11)5-7/h3-6,10-11H,1-2H3",
        "InChIKey": null,
        "Canonical SMILES": "OC1=CC=C(C=C1O)C(C)C",
        "Molecular Formula": "C<sub>9</sub>H<sub>12</sub>O<sub>2</sub>",
        "Molecular Mass": "152.19",
        "Boiling Point": "271 °C",
        "Melting Point": "78 °C"
    }
}