{
    "cas_no": "1247-97-8",
    "key_name": "3,5,7,3′,4′-Pentamethoxyflavone",
    "cn_name": "栎精-3,5,7,3,4-五甲醚;栎精-3,5,7,3,4-五甲醚;",
    "alternate_name": "4<em>H</em>-1-Benzopyran-4-one, 2-(3,4-dimethoxyphenyl)-3,5,7-trimethoxy-;Flavone, 3,3′,4′,5,7-pentamethoxy-;2-(3,4-Dimethoxyphenyl)-3,5,7-trimethoxy-4<em>H</em>-1-benzopyran-4-one;3,3′,4′,5,7-Pentamethoxyflavone;Penta-<em>O</em>-methylquercetin;Quercetin pentamethyl ether;3,3′,4′,5,7-Pentamethylquercetin;Pentamethylquercetin;Pentamethoxyquercetin;3,5,7,3′,4′-Pentamethoxyflavone;NSC 115922;NSC 618936;TUM 8437;Quercetin 3,5,7,3′,4′-pentamethyl ether;2-(3,4-Dimethoxyphenyl)-3,5,7-trimethoxy-4<em>H</em>-chromen-4-one;3,5,7,4′,5′-Pentamethoxyflavone;2-(3,4-Dimethoxyphenyl)-3,5,7-trimethoxychromen-4-one",
    "duplicated_cas_no": "",
    "SMILES": "O(C)C1=C2C(OC(=C(OC)C2=O)C3=CC(OC)=C(OC)C=C3)=CC(OC)=C1",
    "meta_data": {
        "InChI": "InChI=1S/C20H20O7/c1-22-12-9-15(25-4)17-16(10-12)27-19(20(26-5)18(17)21)11-6-7-13(23-2)14(8-11)24-3/h6-10H,1-5H3",
        "InChIKey": null,
        "Canonical SMILES": "O=C1C(OC)=C(OC2=CC(OC)=CC(OC)=C21)C=3C=CC(OC)=C(OC)C3",
        "Molecular Formula": "C<sub>20</sub>H<sub>20</sub>O<sub>7</sub>",
        "Molecular Mass": "372.37",
        "Melting Point": "149-151 °C"
    }
}