{
    "cas_no": "14161-11-6",
    "key_name": "3,4,5-Trichloropyridazine",
    "cn_name": null,
    "alternate_name": "Pyridazine, 3,4,5-trichloro-;3,4,5-Trichloropyridazine;NSC 75074",
    "duplicated_cas_no": "",
    "SMILES": "ClC=1C(Cl)=CN=NC1Cl",
    "meta_data": {
        "InChI": "InChI=1S/C4HCl3N2/c5-2-1-8-9-4(7)3(2)6/h1H",
        "InChIKey": null,
        "Canonical SMILES": "ClC1=NN=CC(Cl)=C1Cl",
        "Molecular Formula": "C<sub>4</sub>HCl<sub>3</sub>N<sub>2</sub>",
        "Molecular Mass": "183.42",
        "Boiling Point": "117-118 °C @ Press: 14-15 Torr",
        "Melting Point": "56-58 °C"
    }
}