{
    "cas_no": "68-89-3",
    "key_name": "Dipyrone",
    "cn_name": "安乃近;[(2,3-二氢-1,5-二甲基-3-氧-2-苯基-1H-吡唑-4-基)甲氨基]甲烷磺酸钠;",
    "alternate_name": "Methanesulfonic acid, 1-[(2,3-dihydro-1,5-dimethyl-3-oxo-2-phenyl-1<em>H</em>-pyrazol-4-yl)methylamino]-, sodium salt (1:1);Methanesulfonic acid, (antipyrinylmethylamino)-, sodium salt;Methanesulfonic acid, [(2,3-dihydro-1,5-dimethyl-3-oxo-2-phenyl-1<em>H</em>-pyrazol-4-yl)methylamino]-, sodium salt;Dipyrone;Analgin;Metamizol;Methylmelubrin;Noramidopyrine methanesulfonate sodium salt;Novalgin;Novaminsulfone sodium;Pyralgine;Pyretin (pharmaceutical);Sulpyrine;Sulpyrin;Novamidazophen;Sodium 1-phenyl-2,3-dimethyl-5-pyrazolone-4-methylaminomethanesulfonate;Sodium noramidopyrine methanesulfonate;Novaminsulfonum;Novaminophenazone;Sodium (antipyrinylmethylamino)methanesulfonate;Metilon;Noramidopyrine methanesulfonate sodium;Sodium novaminsulfonate;Novaminsulfonium;Neo-melubrine;Noveltex;Pharmalgine;Sulpin;ARPF;Optalgin;Diprofarn;Noraminophenazone methanesulfonate sodium salt;Methampyrone;Novalgetol;Novaminsulfone;Metamizole;Narone;Gifaril;Metapyrin;Metamizole sodium;Pyretin;Methamizole sodium;Algopyrin;Algocalmin;Conmel;Noraminophenazone sodium mesylate;Analgine;Andolor;Lisador;Anador;Sodium metamizole;Metamizole sodium salt;Restriva",
    "duplicated_cas_no": "57904-20-8",
    "SMILES": "O=C1N(N(C)C(C)=C1N(CS(=O)(=O)O)C)C2=CC=CC=C2.[Na]",
    "meta_data": {
        "InChI": "InChI=1S/C13H17N3O4S.Na/c1-10-12(14(2)9-21(18,19)20)13(17)16(15(10)3)11-7-5-4-6-8-11;/h4-8H,9H2,1-3H3,(H,18,19,20);",
        "InChIKey": null,
        "Canonical SMILES": "[Na].O=C1C(=C(N(N1C=2C=CC=CC2)C)C)N(C)CS(=O)(=O)O",
        "Molecular Formula": "C<sub>13</sub>H<sub>17</sub>N<sub>3</sub>O<sub>4</sub>S.Na",
        "Molecular Mass": "",
        "Melting Point": "50-53 °C",
        "Density": "1.388 g/cm³"
    }
}