{
    "cas_no": "17422-32-1",
    "key_name": "5-Chloroindole",
    "cn_name": "5-氯吲哚;",
    "alternate_name": "1<em>H</em>-Indole, 5-chloro-;Indole, 5-chloro-;5-Chloro-1<em>H</em>-indole;5-Chloroindole;NSC 89562",
    "duplicated_cas_no": "",
    "SMILES": "ClC=1C=C2C(=CC1)NC=C2",
    "meta_data": {
        "InChI": "InChI=1S/C8H6ClN/c9-7-1-2-8-6(5-7)3-4-10-8/h1-5,10H",
        "InChIKey": null,
        "Canonical SMILES": "ClC=1C=CC=2NC=CC2C1",
        "Molecular Formula": "C<sub>8</sub>H<sub>6</sub>ClN",
        "Molecular Mass": "151.59",
        "Melting Point": "69-70 °C"
    }
}