{
    "cas_no": "40430-66-8",
    "key_name": "1-Ethynyladamantane",
    "cn_name": null,
    "alternate_name": "Tricyclo[3.3.1.1<sup>3,7</sup>]decane, 1-ethynyl-;Adamantane, 1-ethynyl-;1-Ethynyltricyclo[3.3.1.1<sup>3,7</sup>]decane;1-Adamantylacetylene;1-Ethynyladamantane;1-Ethynyladamantan",
    "duplicated_cas_no": "",
    "SMILES": "C(#C)C12CC3CC(C1)CC(C2)C3",
    "meta_data": {
        "InChI": "InChI=1S/C12H16/c1-2-12-6-9-3-10(7-12)5-11(4-9)8-12/h1,9-11H,3-8H2",
        "InChIKey": null,
        "Canonical SMILES": "C#CC12CC3CC(CC(C3)C1)C2",
        "Molecular Formula": "C<sub>12</sub>H<sub>16</sub>",
        "Molecular Mass": "160.26",
        "Melting Point": "82 °C"
    }
}