{
    "cas_no": "4972-68-3",
    "key_name": "1-Methyl-4-phenyl-4-piperidinol",
    "cn_name": null,
    "alternate_name": "4-Piperidinol, 1-methyl-4-phenyl-;1-Methyl-4-phenyl-4-piperidinol;4-Phenyl-1-methyl-4-piperidinol;IK 4",
    "duplicated_cas_no": "",
    "SMILES": "OC1(CCN(C)CC1)C2=CC=CC=C2",
    "meta_data": {
        "InChI": "InChI=1S/C12H17NO/c1-13-9-7-12(14,8-10-13)11-5-3-2-4-6-11/h2-6,14H,7-10H2,1H3",
        "InChIKey": null,
        "Canonical SMILES": "OC1(C=2C=CC=CC2)CCN(C)CC1",
        "Molecular Formula": "C<sub>12</sub>H<sub>17</sub>NO",
        "Molecular Mass": "191.27",
        "Boiling Point": "173 °C @ Press: 13 Torr",
        "Melting Point": "114-115 °C"
    }
}