{
    "cas_no": "113665-84-2",
    "key_name": "Clopidogrel",
    "cn_name": "氯吡格雷;(2S)-2-(2-氯苯基)-2-(4,5,6,7-四氢噻吩[3,2-c]并吡啶-5-基)乙酸甲酯;",
    "alternate_name": "Thieno[3,2-<em>c</em>]pyridine-5(4<em>H</em>)-acetic acid, α-(2-chlorophenyl)-6,7-dihydro-, methyl ester, (α<em>S</em>)-;Thieno[3,2-<em>c</em>]pyridine-5(4<em>H</em>)-acetic acid, α-(2-chlorophenyl)-6,7-dihydro-, methyl ester, (<em>S</em>)-;Clopidogrel;(<em>S</em>)-(+)-Methyl (2-chlorophenyl)(6,7-dihydro-4<em>H</em>-thieno[3,2-<em>c</em>]pyrid-5-yl)acetate;(<em>S</em>)-Methyl α-(4,5,6,7-tetrahydrothieno[3,2-<em>c</em>]pyridin-5-yl)-α-(<em>o</em>-chlorophenyl)acetate;SR 25990;(<em>S</em>)-Clopidogrel;(+)-(<em>S</em>)-Clopidogrel;Methyl (2<em>S</em>)-(2-chlorophenyl)(6,7-dihydrothieno[3,2-<em>c</em>]pyridin-5(4<em>H</em>)-yl)acetate;R 130964;Thrombo",
    "duplicated_cas_no": "",
    "SMILES": "[C@H](C(OC)=O)(N1CC2=C(CC1)SC=C2)C3=C(Cl)C=CC=C3",
    "meta_data": {
        "InChI": "InChI=1S/C16H16ClNO2S/c1-20-16(19)15(12-4-2-3-5-13(12)17)18-8-6-14-11(10-18)7-9-21-14/h2-5,7,9,15H,6,8,10H2,1H3/t15-/m0/s1",
        "InChIKey": null,
        "Canonical SMILES": "O=C(OC)C(C=1C=CC=CC1Cl)N2CC=3C=CSC3CC2",
        "Molecular Formula": "C<sub>16</sub>H<sub>16</sub>ClNO<sub>2</sub>S",
        "Molecular Mass": "321.82",
        "Melting Point": "130-140 °C"
    }
}