{
    "cas_no": "430-85-3",
    "key_name": "1,1-Dibromo-2,2-difluoroethene",
    "cn_name": "双(亚乙基二氨)氯化铂(II);",
    "alternate_name": "Ethene, 1,1-dibromo-2,2-difluoro-;Ethylene, 1,1-dibromo-2,2-difluoro-;1,1-Dibromo-2,2-difluoroethene;1,1-Dibromo-2,2-difluoroethylene;1,1-Dibromodifluoroethene;1,1-Dibromodifluoroethylene",
    "duplicated_cas_no": "",
    "SMILES": "C(=C(F)F)(Br)Br",
    "meta_data": {
        "InChI": "InChI=1S/C2Br2F2/c3-1(4)2(5)6",
        "InChIKey": null,
        "Canonical SMILES": "FC(F)=C(Br)Br",
        "Molecular Formula": "C<sub>2</sub>Br<sub>2</sub>F<sub>2</sub>",
        "Molecular Mass": "221.83",
        "Boiling Point": "66.2 °C @ Press: 700 Torr",
        "Density": "2.29 g/cm³ @ Temp: 25 °C"
    }
}