{
    "cas_no": "120-92-3",
    "key_name": "Cyclopentanone",
    "cn_name": "环戊酮;",
    "alternate_name": "Cyclopentanone;Adipic ketone;Dumasin;Ketocyclopentane;Ketopentamethylene;Adipin keton;NSC 4122;6: PN: WO2007101224 PAGE: 36 claimed sequence",
    "duplicated_cas_no": "1800084-96-1",
    "SMILES": "O=C1CCCC1",
    "meta_data": {
        "InChI": "InChI=1S/C5H8O/c6-5-3-1-2-4-5/h1-4H2",
        "InChIKey": null,
        "Canonical SMILES": "O=C1CCCC1",
        "Molecular Formula": "C<sub>5</sub>H<sub>8</sub>O",
        "Molecular Mass": "84.12",
        "Boiling Point": "130.6 °C @ Press: 760 Torr",
        "Melting Point": "-51.3 °C",
        "Density": "0.94869 g/cm³ @ Temp: 20 °C"
    }
}