{
    "cas_no": "10048-13-2",
    "key_name": "Sterigmatocystin",
    "cn_name": "柄曲霉素;柄曲霉素;",
    "alternate_name": "7<em>H</em>-Furo[3′,2′:4,5]furo[2,3-<em>c</em>]xanthen-7-one, 3a,12c-dihydro-8-hydroxy-6-methoxy-, (3a<em>R</em>,12c<em>S</em>)-;7<em>H</em>-Furo[3′,2′:4,5]furo[2,3-<em>c</em>]xanthen-7-one, 3a,12c-dihydro-8-hydroxy-6-methoxy-;Sterigmatocystin;7<em>H</em>-Furo[3′,2′:4,5]furo[2,3-<em>c</em>]xanthen-7-one, 3a,12c-dihydro-8-hydroxy-6-methoxy-, (3a<em>R</em>-<em>cis</em>)-;(3a<em>R</em>,12c<em>S</em>)-3a,12c-Dihydro-8-hydroxy-6-methoxy-7<em>H</em>-furo[3′,2′:4,5]furo[2,3-<em>c</em>]xanthen-7-one;Sterigmatocystine;NSC 201423;NSC 204985;MeSH ID: D013241",
    "duplicated_cas_no": "105521-97-9;2545739-55-5",
    "SMILES": "O(C)C=1C2=C(C3=C(O[C@@]4([C@]3(C=CO4)[H])[H])C1)OC=5C(C2=O)=C(O)C=CC5",
    "meta_data": {
        "InChI": "InChI=1S/C18H12O6/c1-21-11-7-12-13(8-5-6-22-18(8)24-12)17-15(11)16(20)14-9(19)3-2-4-10(14)23-17/h2-8,18-19H,1H3/t8-,18+/m0/s1",
        "InChIKey": null,
        "Canonical SMILES": "O=C1C=2C(O)=CC=CC2OC=3C1=C(OC)C=C4OC5OC=CC5C43",
        "Molecular Formula": "C<sub>18</sub>H<sub>12</sub>O<sub>6</sub>",
        "Molecular Mass": "324.28",
        "Melting Point": "246 °C (decomp)"
    }
}