{
    "cas_no": "13657-68-6",
    "key_name": "(+)-Curdione",
    "cn_name": "莪二酮;姜黄二酮;(3S,6E,10S)-6,10-二甲基-3-异丙基环癸-6-烯-1,4-二酮;",
    "alternate_name": "6-Cyclodecene-1,4-dione, 6,10-dimethyl-3-(1-methylethyl)-, (3<em>S</em>,6<em>E</em>,10<em>S</em>)-;6-Cyclodecene-1,4-dione, 6,10-dimethyl-3-(1-methylethyl)-, [3<em>S</em>-(3<em>R</em>*,6<em>E</em>,10<em>R</em>*)]-;Germacr-1(10)-ene-5,8-dione;(3<em>S</em>,6<em>E</em>,10<em>S</em>)-6,10-Dimethyl-3-(1-methylethyl)-6-cyclodecene-1,4-dione;Curdione;(+)-Germacr-1(10)-ene-5,8-dione;(+)-Curdione",
    "duplicated_cas_no": "11000-86-5;17928-91-5;25423-11-4",
    "SMILES": "",
    "meta_data": {
        "InChI": "",
        "InChIKey": null,
        "Canonical SMILES": "",
        "Molecular Formula": "C<sub>15</sub>H<sub>24</sub>O<sub>2</sub>",
        "Molecular Mass": "236.35",
        "Melting Point": "61.5-62.0 °C"
    }
}