{
    "cas_no": "808-26-4",
    "key_name": "Sancycline",
    "cn_name": "山环素;",
    "alternate_name": "2-Naphthacenecarboxamide, 4-(dimethylamino)-1,4,4a,5,5a,6,11,12a-octahydro-3,10,12,12a-tetrahydroxy-1,11-dioxo-, (4<em>S</em>,4a<em>S</em>,5a<em>R</em>,12a<em>S</em>)-;2-Naphthacenecarboxamide, 4-(dimethylamino)-1,4,4a,5,5a,6,11,12a-octahydro-3,10,12,12a-tetrahydroxy-1,11-dioxo-, [4<em>S</em>-(4α,4aα,5aα,12aα)]-;(4<em>S</em>,4a<em>S</em>,5a<em>R</em>,12a<em>S</em>)-4-(Dimethylamino)-1,4,4a,5,5a,6,11,12a-octahydro-3,10,12,12a-tetrahydroxy-1,11-dioxo-2-naphthacenecarboxamide;GS 2147;Bonomycin;6-Demethyl-6-deoxytetracycline;4-(Dimethylamino)-1,4,4a,5,5a,6,11,12a-octahydro-3,10,12,12a-tetrahydroxy-1,11-dioxo-2-naphthacenecarboxamide;Sancycline;Norcycline",
    "duplicated_cas_no": "",
    "SMILES": "O[C@]12[C@]([C@H](N(C)C)C(O)=C(C(N)=O)C1=O)(C[C@]3(C(=C2O)C(=O)C=4C(C3)=CC=CC4O)[H])[H]",
    "meta_data": {
        "InChI": "InChI=1S/C21H22N2O7/c1-23(2)15-10-7-9-6-8-4-3-5-11(24)12(8)16(25)13(9)18(27)21(10,30)19(28)14(17(15)26)20(22)29/h3-5,9-10,15,24,26-27,30H,6-7H2,1-2H3,(H2,22,29)/t9-,10-,15-,21-/m0/s1",
        "InChIKey": null,
        "Canonical SMILES": "O=C(N)C=1C(=O)C2(O)C(O)=C3C(=O)C=4C(O)=CC=CC4CC3CC2C(C1O)N(C)C",
        "Molecular Formula": "C<sub>21</sub>H<sub>22</sub>N<sub>2</sub>O<sub>7</sub>",
        "Molecular Mass": "414.41",
        "Melting Point": "208 °C (decomp)"
    }
}