{
    "cas_no": "53882-81-8",
    "key_name": "3-Methyl-β-oxobenzenepropanenitrile",
    "cn_name": "3-甲基苯甲酰乙腈;",
    "alternate_name": "Benzenepropanenitrile, 3-methyl-β-oxo-;3-Methyl-β-oxobenzenepropanenitrile;<em>m</em>-Toluoylacetonitrile;(3-Methylbenzoyl)acetonitrile;3-Oxo-3-<em>m</em>-tolylpropionitrile;3-Oxo-3-(3-methylphenyl)propanenitrile;3-Oxo-3-<em>m</em>-tolylpropanenitrile;α-Cyano-3-methylacetophenone;3-(3-Methylphenyl)-3-oxopropanenitrile",
    "duplicated_cas_no": "",
    "SMILES": "C(CC#N)(=O)C1=CC(C)=CC=C1",
    "meta_data": {
        "InChI": "InChI=1S/C10H9NO/c1-8-3-2-4-9(7-8)10(12)5-6-11/h2-4,7H,5H2,1H3",
        "InChIKey": null,
        "Canonical SMILES": "N#CCC(=O)C1=CC=CC(=C1)C",
        "Molecular Formula": "C<sub>10</sub>H<sub>9</sub>NO",
        "Molecular Mass": "159.18",
        "Melting Point": "74-75 °C"
    }
}