{
    "cas_no": "63139-21-9",
    "key_name": "(4-Ethylphenyl)boronic acid",
    "cn_name": "4-乙基苯硼酸;对乙基苯硼酸;",
    "alternate_name": "Boronic acid, <em>B</em>-(4-ethylphenyl)-;Boronic acid, (4-ethylphenyl)-;Benzeneboronic acid, <em>p</em>-ethyl-;<em>B</em>-(4-Ethylphenyl)boronic acid;(<em>p</em>-Ethylphenyl)boronic acid;(4-Ethylphenyl)boronic acid;4-Ethylbenzeneboronic acid",
    "duplicated_cas_no": "",
    "SMILES": "B(O)(O)C1=CC=C(CC)C=C1",
    "meta_data": {
        "InChI": "InChI=1S/C8H11BO2/c1-2-7-3-5-8(6-4-7)9(10)11/h3-6,10-11H,2H2,1H3",
        "InChIKey": null,
        "Canonical SMILES": "OB(O)C1=CC=C(C=C1)CC",
        "Molecular Formula": "C<sub>8</sub>H<sub>11</sub>BO<sub>2</sub>",
        "Molecular Mass": "149.98",
        "Melting Point": "108-111 °C"
    }
}