{
    "cas_no": "123-66-0",
    "key_name": "Ethyl hexanoate",
    "cn_name": "正己酸乙酯;",
    "alternate_name": "Hexanoic acid, ethyl ester;Ethyl caproate;Ethyl hexanoate;Caproic acid ethyl ester;Ethyl capronate;NSC 8882",
    "duplicated_cas_no": "8068-81-3",
    "SMILES": "C(C(OCC)=O)CCCC",
    "meta_data": {
        "InChI": "InChI=1S/C8H16O2/c1-3-5-6-7-8(9)10-4-2/h3-7H2,1-2H3",
        "InChIKey": null,
        "Canonical SMILES": "O=C(OCC)CCCCC",
        "Molecular Formula": "C<sub>8</sub>H<sub>16</sub>O<sub>2</sub>",
        "Molecular Mass": "144.21",
        "Boiling Point": "167 °C",
        "Melting Point": "-67 °C",
        "Density": "0.8733 g/cm³ @ Temp: 19 °C"
    }
}