{
    "cas_no": "617-04-9",
    "key_name": "Methyl α-<span class=\"text-smallcaps\">D</span>-mannopyranoside",
    "cn_name": null,
    "alternate_name": "α-<span class=\"text-smallcaps\">D</span>-Mannopyranoside, methyl;Mannopyranoside, methyl, α-<span class=\"text-smallcaps\">D</span>-;Methyl α-<span class=\"text-smallcaps\">D</span>-mannopyranoside;1-<em>O</em>-Methyl-α-<span class=\"text-smallcaps\">D</span>-mannopyranoside;1-<em>O</em>-Methyl-α-mannopyranoside;Methyl α-<span class=\"text-smallcaps\">D</span>-mannoside;α-Methyl <span class=\"text-smallcaps\">D</span>-(-)-mannoside;NSC 1225;Methyl-<em>O</em>-α-<span class=\"text-smallcaps\">D</span>-mannopyranoside",
    "duplicated_cas_no": "25281-48-5;27939-30-6;882174-80-3",
    "SMILES": "C(O)[C@H]1O[C@H](OC)[C@@H](O)[C@@H](O)[C@@H]1O",
    "meta_data": {
        "InChI": "InChI=1S/C7H14O6/c1-12-7-6(11)5(10)4(9)3(2-8)13-7/h3-11H,2H2,1H3/t3-,4-,5+,6+,7+/m1/s1",
        "InChIKey": null,
        "Canonical SMILES": "OCC1OC(OC)C(O)C(O)C1O",
        "Molecular Formula": "C<sub>7</sub>H<sub>14</sub>O<sub>6</sub>",
        "Molecular Mass": "194.18",
        "Melting Point": "193 °C"
    }
}