{
    "cas_no": "965-90-2",
    "key_name": "Ethylestrenol",
    "cn_name": "乙基雌烯醇;",
    "alternate_name": "19-Norpregn-4-en-17-ol, (17α)-;19-Nor-17α-pregn-4-en-17-ol;(17α)-19-Norpregn-4-en-17-ol;Durabolin-O;Estrenolethyl;17α-Ethyl-17β-hydroxyestr-4-ene;Ethylnandrol;17α-Ethyl-19-norpregn-4-en-17-ol;Maxibalin;Maxibolin;Neodurabolin;Orabolin;Orgabolin;Ethylestrenol;17α-Ethylestr-4-en-17β-ol;17α-Ethyl-17-hydroxyestr-4-ene;17β-Hydroxy-17α-ethylestr-4-ene;Duraboral;Org 483;Orgaboral;NSC 37726;Ethyloestrenol;19-Norpregn-4-en-17α-ol;MeSH ID: D005032",
    "duplicated_cas_no": "",
    "SMILES": "C[C@@]12[C@]([C@]3([C@](CC1)([C@@]4(C(CC3)=CCCC4)[H])[H])[H])(CC[C@]2(CC)O)[H]",
    "meta_data": {
        "InChI": "InChI=1S/C20H32O/c1-3-20(21)13-11-18-17-9-8-14-6-4-5-7-15(14)16(17)10-12-19(18,20)2/h6,15-18,21H,3-5,7-13H2,1-2H3/t15-,16+,17+,18-,19-,20-/m0/s1",
        "InChIKey": null,
        "Canonical SMILES": "OC1(CC)CCC2C3CCC4=CCCCC4C3CCC21C",
        "Molecular Formula": "C<sub>20</sub>H<sub>32</sub>O",
        "Molecular Mass": "288.47",
        "Melting Point": "76-78 °C"
    }
}