{
    "cas_no": "6732-85-0",
    "key_name": "1,3,5-Trihydroxyxanthone",
    "cn_name": null,
    "alternate_name": "9<em>H</em>-Xanthen-9-one, 1,3,5-trihydroxy-;Xanthen-9-one, 1,3,5-trihydroxy-;1,3,5-Trihydroxy-9<em>H</em>-xanthen-9-one;1,3,5-Trihydroxyxanthone;1,3,5-Trihydroxyxanthen-9-one",
    "duplicated_cas_no": "",
    "SMILES": "O=C1C=2C(OC=3C1=CC=CC3O)=CC(O)=CC2O",
    "meta_data": {
        "InChI": "InChI=1S/C13H8O5/c14-6-4-9(16)11-10(5-6)18-13-7(12(11)17)2-1-3-8(13)15/h1-5,14-16H",
        "InChIKey": null,
        "Canonical SMILES": "O=C1C=2C=CC=C(O)C2OC=3C=C(O)C=C(O)C13",
        "Molecular Formula": "C<sub>13</sub>H<sub>8</sub>O<sub>5</sub>",
        "Molecular Mass": "244.20",
        "Melting Point": "255 °C"
    }
}