{
    "cas_no": "333-36-8",
    "key_name": "1,1′-Oxybis[2,2,2-trifluoroethane]",
    "cn_name": null,
    "alternate_name": "Ethane, 1,1′-oxybis[2,2,2-trifluoro-;Ether, bis(2,2,2-trifluoroethyl);1,1′-Oxybis[2,2,2-trifluoroethane];SKF 6539;Bis(2,2,2-trifluoroethyl) ether;Fluorothyl;Fluroethyl;Flurothyl;Indoklon;2-(2,2,2-Trifluoroethoxy)-1,1,1-trifluoroethane;Hexafluorodiethyl ether;Flurotyl;HFE 356mff2;Idoklon;Indiklon;1,1,1-Trifluoro-2-(2,2,2-trifluoroethoxy)ethane;MeSH ID: D005481",
    "duplicated_cas_no": "",
    "SMILES": "C(C(F)(F)F)OCC(F)(F)F",
    "meta_data": {
        "InChI": "InChI=1S/C4H4F6O/c5-3(6,7)1-11-2-4(8,9)10/h1-2H2",
        "InChIKey": null,
        "Canonical SMILES": "FC(F)(F)COCC(F)(F)F",
        "Molecular Formula": "C<sub>4</sub>H<sub>4</sub>F<sub>6</sub>O",
        "Molecular Mass": "182.06",
        "Boiling Point": "63.9 °C",
        "Melting Point": "&lt;25 °C",
        "Density": "1.4171 g/cm³ @ Temp: 20 °C"
    }
}