{
    "cas_no": "2917-73-9",
    "key_name": "Dibutyl azelate",
    "cn_name": "壬二酸二丁酯;壬二酸二丁酯;",
    "alternate_name": "Nonanedioic acid, 1,9-dibutyl ester;Azelaic acid, dibutyl ester;Nonanedioic acid, dibutyl ester;Dibutyl azelate;Ergoplast AzDB;NSC 93294",
    "duplicated_cas_no": "",
    "SMILES": "C(C(OCCCC)=O)CCCCCCC(OCCCC)=O",
    "meta_data": {
        "InChI": "InChI=1S/C17H32O4/c1-3-5-14-20-16(18)12-10-8-7-9-11-13-17(19)21-15-6-4-2/h3-15H2,1-2H3",
        "InChIKey": null,
        "Canonical SMILES": "O=C(OCCCC)CCCCCCCC(=O)OCCCC",
        "Molecular Formula": "C<sub>17</sub>H<sub>32</sub>O<sub>4</sub>",
        "Molecular Mass": "300.43",
        "Boiling Point": "336 °C"
    }
}