{
    "cas_no": "18621-18-6",
    "key_name": "3-Hydroxyazetidine hydrochloride",
    "cn_name": "3-羟基氮杂环丁烷盐酸盐;",
    "alternate_name": "3-Azetidinol, hydrochloride (1:1);3-Azetidinol, hydrochloride;3-Hydroxyazetidine hydrochloride;Azetidine-3-ol hydrochloride;Azetidin-3-ol hydrochloride;3-Hydroxyazetedine hydrochloride",
    "duplicated_cas_no": "",
    "SMILES": "OC1CNC1.Cl",
    "meta_data": {
        "InChI": "InChI=1S/C3H7NO.ClH/c5-3-1-4-2-3;/h3-5H,1-2H2;1H",
        "InChIKey": null,
        "Canonical SMILES": "Cl.OC1CNC1",
        "Molecular Formula": "C<sub>3</sub>H<sub>7</sub>NO.ClH",
        "Molecular Mass": "",
        "Melting Point": "91-92 °C"
    }
}