{
    "cas_no": "2140-95-6",
    "key_name": "(-)-β-Aminoisobutyric acid",
    "cn_name": null,
    "alternate_name": "Propanoic acid, 3-amino-2-methyl-, (2<em>R</em>)-;β-Alanine, 2-methyl-, <span class=\"text-smallcaps\">D</span>-;Propanoic acid, 3-amino-2-methyl-, (<em>R</em>)-;(2<em>R</em>)-3-Amino-2-methylpropanoic acid;<span class=\"text-smallcaps\">D</span>-β-Aminoisobutyric acid;<em>R</em>-β-Aminoisobutyric acid;<span class=\"text-smallcaps\">D</span>-3-Amino-2-methylpropionic acid;(-)-β-Aminoisobutyric acid;(<em>R</em>)-3-Amino-2-methylpropanoic acid;<span class=\"text-smallcaps\">D</span>-3-Amino-2-methylpropanoic acid;(<em>R</em>)-3-Amino-2-methylpropionic acid;<span class=\"text-smallcaps\">D</span>-3-Aminoisobutyric acid;(-)-3-Amino-2-methylpropionic acid;2(<em>R</em>)-Methyl-β-alanine;(R)-3-Amino-2-methylpropanoic acid;(2R)-3-Amino-2-methyl-propanoic acid",
    "duplicated_cas_no": "",
    "SMILES": "[C@H](C(O)=O)(CN)C",
    "meta_data": {
        "InChI": "InChI=1S/C4H9NO2/c1-3(2-5)4(6)7/h3H,2,5H2,1H3,(H,6,7)/t3-/m1/s1",
        "InChIKey": null,
        "Canonical SMILES": "O=C(O)C(C)CN",
        "Molecular Formula": "C<sub>4</sub>H<sub>9</sub>NO<sub>2</sub>",
        "Molecular Mass": "103.12",
        "Melting Point": "194-196 °C"
    }
}