{
    "cas_no": "220127-57-1",
    "key_name": "Imatinib mesylate",
    "cn_name": null,
    "alternate_name": "Benzamide, 4-[(4-methyl-1-piperazinyl)methyl]-<em>N</em>-[4-methyl-3-[[4-(3-pyridinyl)-2-pyrimidinyl]amino]phenyl]-, methanesulfonate (1:1);Benzamide, 4-[(4-methyl-1-piperazinyl)methyl]-<em>N</em>-[4-methyl-3-[[4-(3-pyridinyl)-2-pyrimidinyl]amino]phenyl]-, monomethanesulfonate;Imatinib mesilate;Imatinib mesylate;CGP 57148B;STI 571;Glivec;Gleevac;Gleevec;1-Methyl-4-(4-((4-methyl-3-((4-(pyridin-3-yl)pyrimidin-2-yl)amino)phenyl)carbamoyl)benzyl)piperazine methanesulfonate;Mitinab;ST 571",
    "duplicated_cas_no": "",
    "SMILES": "N(C=1N=C(C=CN1)C=2C=CC=NC2)C3=CC(NC(=O)C4=CC=C(CN5CCN(C)CC5)C=C4)=CC=C3C.S(C)(=O)(=O)O",
    "meta_data": {
        "InChI": "InChI=1S/C29H31N7O.CH4O3S/c1-21-5-10-25(18-27(21)34-29-31-13-11-26(33-29)24-4-3-12-30-19-24)32-28(37)23-8-6-22(7-9-23)20-36-16-14-35(2)15-17-36;1-5(2,3)4/h3-13,18-19H,14-17,20H2,1-2H3,(H,32,37)(H,31,33,34);1H3,(H,2,3,4)",
        "InChIKey": null,
        "Canonical SMILES": "O=C(NC1=CC=C(C(=C1)NC=2N=CC=C(N2)C3=CN=CC=C3)C)C4=CC=C(C=C4)CN5CCN(C)CC5.O=S(=O)(O)C",
        "Molecular Formula": "C<sub>29</sub>H<sub>31</sub>N<sub>7</sub>O.CH<sub>4</sub>O<sub>3</sub>S",
        "Molecular Mass": "",
        "Melting Point": "146-148 °C"
    }
}