{
    "cas_no": "2483-51-4",
    "key_name": "<em>N</em>-[(Phenylmethoxy)carbonyl]-<span class=\"text-smallcaps\">L</smallcap>-alanyl-<smallcap>L</span>-alanine methyl ester",
    "cn_name": null,
    "alternate_name": "<span class=\"text-smallcaps\">L</smallcap>-Alanine, <em>N</em>-[(phenylmethoxy)carbonyl]-<smallcap>L</span>-alanyl-, methyl ester;Alanine, <em>N</em>-(<em>N</em>-carboxy-<span class=\"text-smallcaps\">L</smallcap>-alanyl)-, <em>N</em>-benzyl methyl ester, <smallcap>L</span>-;<span class=\"text-smallcaps\">L</smallcap>-Alanine, <em>N</em>-[<em>N</em>-[(phenylmethoxy)carbonyl]-<smallcap>L</span>-alanyl]-, methyl ester;Alanine, <em>N</em>-(<em>N</em>-carboxy-<span class=\"text-smallcaps\">L</span>-alanyl)-, <em>N</em>-benzyl methyl ester;<em>N</em>-[(Phenylmethoxy)carbonyl]-<span class=\"text-smallcaps\">L</smallcap>-alanyl-<smallcap>L</span>-alanine methyl ester;<em>N</em>-(Benzyloxycarbonyl)-<span class=\"text-smallcaps\">L</smallcap>-alanyl-<smallcap>L</span>-alanine methyl ester;Carbobenzoxy-<span class=\"text-smallcaps\">L</smallcap>-alanyl-<smallcap>L</span>-alanine methyl ester;<em>N</em>-(Benzyloxycarbonyl)alanylalanine methyl ester;Z-<span class=\"text-smallcaps\">L</smallcap>-Ala-<smallcap>L</span>-ala-OMe;178: PN: WO2004005270 PAGE: 28-29 claimed protein",
    "duplicated_cas_no": "",
    "SMILES": "C(OC(N[C@H](C(N[C@H](C(OC)=O)C)=O)C)=O)C1=CC=CC=C1",
    "meta_data": {
        "InChI": "InChI=1S/C15H20N2O5/c1-10(13(18)16-11(2)14(19)21-3)17-15(20)22-9-12-7-5-4-6-8-12/h4-8,10-11H,9H2,1-3H3,(H,16,18)(H,17,20)/t10-,11-/m0/s1",
        "InChIKey": null,
        "Canonical SMILES": "O=C(OCC=1C=CC=CC1)NC(C(=O)NC(C(=O)OC)C)C",
        "Molecular Formula": "C<sub>15</sub>H<sub>20</sub>N<sub>2</sub>O<sub>5</sub>",
        "Molecular Mass": "",
        "Melting Point": "93-94 °C"
    }
}