{
    "cas_no": "307-70-0",
    "key_name": "2,2,3,3,4,4,5,5,6,6,7,7,8,8,9,9,10,10,11,11-Eicosafluoro-1-undecanol",
    "cn_name": "1H,1H,11H-全氟-1-十一醇;1H,1H,11H-二十氟-1-十一醇;1H,1H,11H-全氟-1-十一醇;1H,1H,11H-全氟-1-十一醇, T;",
    "alternate_name": "1-Undecanol, 2,2,3,3,4,4,5,5,6,6,7,7,8,8,9,9,10,10,11,11-eicosafluoro-;2,2,3,3,4,4,5,5,6,6,7,7,8,8,9,9,10,10,11,11-Eicosafluoro-1-undecanol;1<em>H</em>,1<em>H</em>,11<em>H</em>-Eicosafluoro-1-undecanol;α,α,ω-Trihydroperfluoroundecanol;NSC 521191;2,2,3,3,4,4,5,5,6,6,7,7,8,8,9,9,10,10,11,11-Icosafluoroundecan-1-ol",
    "duplicated_cas_no": "",
    "SMILES": "C(C(C(C(C(C(F)F)(F)F)(F)F)(F)F)(F)F)(C(C(C(C(CO)(F)F)(F)F)(F)F)(F)F)(F)F",
    "meta_data": {
        "InChI": "InChI=1S/C11H4F20O/c12-2(13)4(16,17)6(20,21)8(24,25)10(28,29)11(30,31)9(26,27)7(22,23)5(18,19)3(14,15)1-32/h2,32H,1H2",
        "InChIKey": null,
        "Canonical SMILES": "FC(F)C(F)(F)C(F)(F)C(F)(F)C(F)(F)C(F)(F)C(F)(F)C(F)(F)C(F)(F)C(F)(F)CO",
        "Molecular Formula": "C<sub>11</sub>H<sub>4</sub>F<sub>20</sub>O",
        "Molecular Mass": "532.12",
        "Melting Point": "95-97 °C"
    }
}