{
    "cas_no": "1942-46-7",
    "key_name": "5-Decyne",
    "cn_name": "5-癸炔;5-癸炔;",
    "alternate_name": "5-Decyne;Dibutylacetylene;1,2-Dibutylacetylene;NSC 135002",
    "duplicated_cas_no": "",
    "SMILES": "C(#CCCCC)CCCC",
    "meta_data": {
        "InChI": "InChI=1S/C10H18/c1-3-5-7-9-10-8-6-4-2/h3-8H2,1-2H3",
        "InChIKey": null,
        "Canonical SMILES": "C(#CCCCC)CCCC",
        "Molecular Formula": "C<sub>10</sub>H<sub>18</sub>",
        "Molecular Mass": "138.25",
        "Boiling Point": "177 °C",
        "Melting Point": "-73 °C",
        "Density": "0.769 g/cm³ @ Temp: 20 °C"
    }
}