{
    "cas_no": "23327-57-3",
    "key_name": "(±)-Nefopam hydrochloride",
    "cn_name": "盐酸奈福泮;盐酸甲苯氧辛啶;5-甲基-1-苯基-3,4,5,6-四氢-1H-2,5-氧氮苯并辛因盐酸盐;",
    "alternate_name": "1<em>H</em>-2,5-Benzoxazocine, 3,4,5,6-tetrahydro-5-methyl-1-phenyl-, hydrochloride (1:1);1<em>H</em>-2,5-Benzoxazocine, 3,4,5,6-tetrahydro-5-methyl-1-phenyl-, hydrochloride;Fenazoxine;Fenazoxine hydrochloride;Nefopam hydrochloride;R 738;Ajan;Acupan;(±)-Nefopam hydrochloride",
    "duplicated_cas_no": "24358-94-9;34791-79-2;69319-31-9",
    "SMILES": "CN1CC=2C(C(OCC1)C3=CC=CC=C3)=CC=CC2.Cl",
    "meta_data": {
        "InChI": "InChI=1S/C17H19NO.ClH/c1-18-11-12-19-17(14-7-3-2-4-8-14)16-10-6-5-9-15(16)13-18;/h2-10,17H,11-13H2,1H3;1H",
        "InChIKey": null,
        "Canonical SMILES": "Cl.O1CCN(C)CC=2C=CC=CC2C1C=3C=CC=CC3",
        "Molecular Formula": "C<sub>17</sub>H<sub>19</sub>NO.ClH",
        "Molecular Mass": "",
        "Melting Point": "238-242 °C"
    }
}