{
    "cas_no": "932-22-9",
    "key_name": "4,5-Dichloro-3(2<em>H</em>)-pyridazinone",
    "cn_name": "4,5-二氯哒嗪-3(2H)-酮;4,5-二氯-3-哒嗪酮;",
    "alternate_name": "3(2<em>H</em>)-Pyridazinone, 4,5-dichloro-;4,5-Dichloro-3(2<em>H</em>)-pyridazinone;4,5-Dichloro-3(2<em>H</em>)-pyridazone;4,5-Dichloro-6-pyridazone;4,5-Dichloro-6-oxo-1<em>H</em>-pyridazine;4,5-Dichloro-2<em>H</em>-pyridazin-3-one;4,5-Dichloro-3-hydroxypyridazine;NSC 16127;NSC 17182;NSC 240022;3-Hydroxy-4,5-dichloropyridazine;4,5-Dichloropyridazin-3-ol;4,5-Dichloro-1<em>H</em>-pyridazin-6-one;4,5-Dichloropyridazin-3-one",
    "duplicated_cas_no": "",
    "SMILES": "ClC1=C(Cl)C=NNC1=O",
    "meta_data": {
        "InChI": "InChI=1S/C4H2Cl2N2O/c5-2-1-7-8-4(9)3(2)6/h1H,(H,8,9)",
        "InChIKey": null,
        "Canonical SMILES": "O=C1NN=CC(Cl)=C1Cl",
        "Molecular Formula": "C<sub>4</sub>H<sub>2</sub>Cl<sub>2</sub>N<sub>2</sub>O",
        "Molecular Mass": "164.98",
        "Melting Point": "202 °C"
    }
}