{
    "cas_no": "147403-65-4",
    "key_name": "Methyl 2-ethoxy-1-[[2′-(hydroxyamidino)biphenyl-4-yl]methyl]-1<em>H</em>-benzimidazole-7-carboxylate",
    "cn_name": null,
    "alternate_name": "1<em>H</em>-Benzimidazole-7-carboxylic acid, 2-ethoxy-1-[[2′-[(hydroxyamino)iminomethyl][1,1′-biphenyl]-4-yl]methyl]-, methyl ester;Methyl 2-ethoxy-1-[[2′-(hydroxyamidino)biphenyl-4-yl]methyl]-1<em>H</em>-benzimidazole-7-carboxylate;2-Ethoxy-1-[[2′-((hydroxyamino)(imino)methyl)biphenyl-4-yl]methyl]-1<em>H</em>-benzimidazole-7-carboxylic acid methyl ester",
    "duplicated_cas_no": "",
    "SMILES": "C(N1C=2C(N=C1OCC)=CC=CC2C(OC)=O)C3=CC=C(C=C3)C4=C(C(NO)=N)C=CC=C4",
    "meta_data": {
        "InChI": "InChI=1S/C25H24N4O4/c1-3-33-25-27-21-10-6-9-20(24(30)32-2)22(21)29(25)15-16-11-13-17(14-12-16)18-7-4-5-8-19(18)23(26)28-31/h4-14,31H,3,15H2,1-2H3,(H2,26,28)",
        "InChIKey": null,
        "Canonical SMILES": "O=C(OC)C1=CC=CC=2N=C(OCC)N(C21)CC=3C=CC(=CC3)C=4C=CC=CC4C(=N)NO",
        "Molecular Formula": "C<sub>25</sub>H<sub>24</sub>N<sub>4</sub>O<sub>4</sub>",
        "Molecular Mass": "444.48",
        "Melting Point": "207-209 °C"
    }
}