{
    "cas_no": "4206-61-5",
    "key_name": "Diethylene glycol diglycidyl ether",
    "cn_name": "2,2\"-[氧基双(2,1-亚乙基氧基亚甲基)]双环氧乙烷;",
    "alternate_name": "Oxirane, 2,2′-[oxybis(2,1-ethanediyloxymethylene)]bis-;Ether, bis[2-(2,3-epoxypropoxy)ethyl];2,2′-[Oxybis(2,1-ethanediyloxymethylene)]bis[oxirane];Diethylene glycol bis-glycidyl ether;4,7,10-Trioxatridecane, 1,2:12,13-diepoxy-;Diethylene glycol diglycidyl ether;Diglycidyl diethyleneglycol ether;NSC 517936;2-[(2-[2-[(Oxiran-2-yl)methoxy]ethoxy]ethoxy)methyl]oxirane;2-[2-[2-(Oxiran-2-ylmethoxy)ethoxy]ethoxymethyl]oxirane",
    "duplicated_cas_no": "156366-22-2;186355-02-2;2102862-82-6",
    "SMILES": "C(OCCOCCOCC1CO1)C2CO2",
    "meta_data": {
        "InChI": "InChI=1S/C10H18O5/c1(3-12-5-9-7-14-9)11-2-4-13-6-10-8-15-10/h9-10H,1-8H2",
        "InChIKey": null,
        "Canonical SMILES": "O(CCOCC1OC1)CCOCC2OC2",
        "Molecular Formula": "C<sub>10</sub>H<sub>18</sub>O<sub>5</sub>",
        "Molecular Mass": "218.25",
        "Boiling Point": "100 °C @ Press: 0.05 Torr"
    }
}