{
    "cas_no": "6946-15-2",
    "key_name": "3-Hydroxy-4-methyl-2-nitrobenzoic acid",
    "cn_name": "3-羟基-4-甲基-2-硝基苯甲酸;",
    "alternate_name": "Benzoic acid, 3-hydroxy-4-methyl-2-nitro-;3,4-Cresotic acid, 2-nitro-;3-Hydroxy-4-methyl-2-nitrobenzoic acid;2-Nitro-3-hydroxy-4-methylbenzoic acid;NSC 53198",
    "duplicated_cas_no": "",
    "SMILES": "N(=O)(=O)C1=C(C(O)=O)C=CC(C)=C1O",
    "meta_data": {
        "InChI": "InChI=1S/C8H7NO5/c1-4-2-3-5(8(11)12)6(7(4)10)9(13)14/h2-3,10H,1H3,(H,11,12)",
        "InChIKey": null,
        "Canonical SMILES": "O=C(O)C1=CC=C(C(O)=C1N(=O)=O)C",
        "Molecular Formula": "C<sub>8</sub>H<sub>7</sub>NO<sub>5</sub>",
        "Molecular Mass": "197.14",
        "Melting Point": "186 °C"
    }
}