{
    "cas_no": "5464-28-8",
    "key_name": "1,3-Dioxolane-4-methanol",
    "cn_name": "甘油缩甲醛;",
    "alternate_name": "1,3-Dioxolane-4-methanol;Glycerol α-formal;4-(Hydroxymethyl)-1,3-dioxolane;1,2-(Methylidene)glycerol;Glycerol formal;1,3-Dioxolane-5-methanol;Glycerin formal;(1,3-Dioxolan-4-yl)methanol;NSC 15827",
    "duplicated_cas_no": "96480-04-5",
    "SMILES": "C(O)C1COCO1",
    "meta_data": {
        "InChI": "InChI=1S/C4H8O3/c5-1-4-2-6-3-7-4/h4-5H,1-3H2",
        "InChIKey": null,
        "Canonical SMILES": "OCC1OCOC1",
        "Molecular Formula": "C<sub>4</sub>H<sub>8</sub>O<sub>3</sub>",
        "Molecular Mass": "104.10",
        "Boiling Point": "84-85 °C @ Press: 11 Torr",
        "Melting Point": "190-195 °C",
        "Density": "1.2113 g/cm³ @ Temp: 20 °C"
    }
}