{
    "cas_no": "47165-57-1",
    "key_name": "Dihydro-3-tetradecyl-2,5-furandione",
    "cn_name": "正十四烷基琥珀酸酐;",
    "alternate_name": "2,5-Furandione, dihydro-3-tetradecyl-;Dihydro-3-tetradecyl-2,5-furandione;Tetradecylsuccinic anhydride;2-Tetradecylsuccinic anhydride;NSC 79893;3-Tetradecyloxolane-2,5-dione;<em>n</em>-Tetradecylsuccinic anhydride",
    "duplicated_cas_no": "",
    "SMILES": "C(CCCCCCCCCCCCC)C1C(=O)OC(=O)C1",
    "meta_data": {
        "InChI": "InChI=1S/C18H32O3/c1-2-3-4-5-6-7-8-9-10-11-12-13-14-16-15-17(19)21-18(16)20/h16H,2-15H2,1H3",
        "InChIKey": null,
        "Canonical SMILES": "O=C1OC(=O)C(C1)CCCCCCCCCCCCCC",
        "Molecular Formula": "C<sub>18</sub>H<sub>32</sub>O<sub>3</sub>",
        "Molecular Mass": "296.44",
        "Melting Point": "74 °C"
    }
}