{
    "cas_no": "462-18-0",
    "key_name": "Hexyl ketone",
    "cn_name": null,
    "alternate_name": "7-Tridecanone;Dihexyl ketone;Enanthone;Hexyl ketone;Di-<em>n</em>-hexyl ketone;NSC 77941",
    "duplicated_cas_no": "",
    "SMILES": "C(C(CCCCCC)=O)CCCCC",
    "meta_data": {
        "InChI": "InChI=1S/C13H26O/c1-3-5-7-9-11-13(14)12-10-8-6-4-2/h3-12H2,1-2H3",
        "InChIKey": null,
        "Canonical SMILES": "O=C(CCCCCC)CCCCCC",
        "Molecular Formula": "C<sub>13</sub>H<sub>26</sub>O",
        "Molecular Mass": "198.34",
        "Boiling Point": "261 °C",
        "Melting Point": "33 °C"
    }
}