{
    "cas_no": "2529-45-5",
    "key_name": "Fluorogestone acetate",
    "cn_name": "氟孕酮醋酸酯;",
    "alternate_name": "Pregn-4-ene-3,20-dione, 17-(acetyloxy)-9-fluoro-11-hydroxy-, (11β)-;Pregn-4-ene-3,20-dione, 9-fluoro-11β,17-dihydroxy-, 17-acetate;Progesterone, 9-fluoro-11β,17-dihydroxy-, 17-acetate;(11β)-17-(Acetyloxy)-9-fluoro-11-hydroxypregn-4-ene-3,20-dione;SC 9880;17α-Acetoxy-9α-fluoro-11β-hydroxy-pregn-4-ene-3,20-dione;Cronolone;9α-Fluoro-11β-hydroxy-17α-acetoxypregn-4-ene-3,20-dione;Flurogestone acetate;Fluorogestone acetate;17α-Acetoxy-9α-fluoro-11β-hydroxyprogesterone;Gyncro-Mate;FGA;Chronogest;Syncro-Mate;Flugestone acetate;Synchronate;NSC 65411",
    "duplicated_cas_no": "12068-02-9;37244-67-0",
    "SMILES": "C[C@@]12[C@@](OC(C)=O)(C(C)=O)CC[C@]1([C@]3([C@](F)([C@@H](O)C2)[C@]4(C)C(CC3)=CC(=O)CC4)[H])[H]",
    "meta_data": {
        "InChI": "InChI=1S/C23H31FO5/c1-13(25)22(29-14(2)26)10-8-17-18-6-5-15-11-16(27)7-9-20(15,3)23(18,24)19(28)12-21(17,22)4/h11,17-19,28H,5-10,12H2,1-4H3/t17-,18-,19-,20-,21-,22-,23-/m0/s1",
        "InChIKey": null,
        "Canonical SMILES": "O=C(OC1(C(=O)C)CCC2C3CCC4=CC(=O)CCC4(C)C3(F)C(O)CC21C)C",
        "Molecular Formula": "C<sub>23</sub>H<sub>31</sub>FO<sub>5</sub>",
        "Molecular Mass": "406.49",
        "Melting Point": "267.5 °C"
    }
}