{
    "cas_no": "26533-34-6",
    "key_name": "2-Methyl-3-octanol",
    "cn_name": null,
    "alternate_name": "3-Octanol, 2-methyl-;2-Methyl-3-octanol;NSC 139738",
    "duplicated_cas_no": "",
    "SMILES": "C(CCCCC)(C(C)C)O",
    "meta_data": {
        "InChI": "InChI=1S/C9H20O/c1-4-5-6-7-9(10)8(2)3/h8-10H,4-7H2,1-3H3",
        "InChIKey": null,
        "Canonical SMILES": "OC(CCCCC)C(C)C",
        "Molecular Formula": "C<sub>9</sub>H<sub>20</sub>O",
        "Molecular Mass": "144.25",
        "Boiling Point": "180-183 °C @ Press: 690 Torr"
    }
}