{
    "cas_no": "1073-72-9",
    "key_name": "4-(Methylthio)phenol",
    "cn_name": "4-(甲硫基)苯酚;对甲硫基苯酚;",
    "alternate_name": "Phenol, 4-(methylthio)-;Phenol, <em>p</em>-(methylthio)-;Phenol, <em>p</em>-methylmercapto-;4-(Methylthio)phenol;<em>p</em>-(Methylthio)phenol;<em>p</em>-Hydroxyphenyl methyl sulfide;4-(Methylmercapto)phenol;<em>p</em>-Hydroxythioanisole;Methyl 4-hydroxyphenyl sulfide;4-Hydroxyphenyl methyl sulfide;4-Methylsulfanylphenol;NSC 75840;4-(Methylsulfenyl)phenol;4-Hydroxythioanisole",
    "duplicated_cas_no": "",
    "SMILES": "S(C)C1=CC=C(O)C=C1",
    "meta_data": {
        "InChI": "InChI=1S/C7H8OS/c1-9-7-4-2-6(8)3-5-7/h2-5,8H,1H3",
        "InChIKey": null,
        "Canonical SMILES": "OC1=CC=C(SC)C=C1",
        "Molecular Formula": "C<sub>7</sub>H<sub>8</sub>OS",
        "Molecular Mass": "140.20",
        "Boiling Point": "113 °C",
        "Melting Point": "83-84 °C"
    }
}