{
    "cas_no": "918-21-8",
    "key_name": "1,1,1,4,4,4-Hexafluoro-2,3-bis(trifluoromethyl)-2,3-butanediol",
    "cn_name": "六氟-2,3-双(三氟甲基)-2,3-二醇;全氟频哪醇;",
    "alternate_name": "2,3-Butanediol, 1,1,1,4,4,4-hexafluoro-2,3-bis(trifluoromethyl)-;1,1,1,4,4,4-Hexafluoro-2,3-bis(trifluoromethyl)-2,3-butanediol;Perfluoropinacol;Perfluoropinacone;Dodecafluoropinacol;1,1,2,2-Tetra(trifluoromethyl)ethane-1,2-diol;Hexafluoro-2,3-bis(trifluoromethyl)-2,3-butanediol",
    "duplicated_cas_no": "",
    "SMILES": "C(C(C(F)(F)F)(C(F)(F)F)O)(C(F)(F)F)(C(F)(F)F)O",
    "meta_data": {
        "InChI": "InChI=1S/C6H2F12O2/c7-3(8,9)1(19,4(10,11)12)2(20,5(13,14)15)6(16,17)18/h19-20H",
        "InChIKey": null,
        "Canonical SMILES": "FC(F)(F)C(O)(C(F)(F)F)C(O)(C(F)(F)F)C(F)(F)F",
        "Molecular Formula": "C<sub>6</sub>H<sub>2</sub>F<sub>12</sub>O<sub>2</sub>",
        "Molecular Mass": "334.06",
        "Boiling Point": "129 °C",
        "Melting Point": "26 °C"
    }
}