{
    "cas_no": "51422-54-9",
    "key_name": "2-(2-Ethoxyethoxy)-2-methylpropane",
    "cn_name": "1-叔丁氧基-2-乙氧基乙烷;",
    "alternate_name": "Propane, 2-(2-ethoxyethoxy)-2-methyl-;2-(2-Ethoxyethoxy)-2-methylpropane;Ethylene glycol <em>tert</em>-butyl ethyl ether;Ethyl <em>tert</em>-butyl ethyl diether;1-<em>tert</em>-Butoxy-2-ethoxyethane;1-Ethoxy-2-<em>tert</em>-butoxyethane;Additive CMX;CMX;Ethylene glycol ethyl tert-butyl ether",
    "duplicated_cas_no": "",
    "SMILES": "C(OC(C)(C)C)COCC",
    "meta_data": {
        "InChI": "InChI=1S/C8H18O2/c1-5-9-6-7-10-8(2,3)4/h5-7H2,1-4H3",
        "InChIKey": null,
        "Canonical SMILES": "O(CC)CCOC(C)(C)C",
        "Molecular Formula": "C<sub>8</sub>H<sub>18</sub>O<sub>2</sub>",
        "Molecular Mass": "146.23",
        "Boiling Point": "148 °C",
        "Density": "0.8311 g/cm³ @ Temp: 20 °C"
    }
}