{
    "cas_no": "535-11-5",
    "key_name": "Ethyl 2-bromopropionate",
    "cn_name": "2-溴乙酸乙酯;alpha-溴乙酸乙酯;",
    "alternate_name": "Propanoic acid, 2-bromo-, ethyl ester;Propionic acid, 2-bromo-, ethyl ester;Propionic acid, α-bromo-, ethyl ester;Ethyl α-bromopropionate;Ethyl 2-bromopropionate;2-Bromopropionic acid ethyl ester;α-Bromopropionic acid ethyl ester;Ethyl 2-bromopropanoate;Ethyl α-bromopropanoate;2-Bromopropanoic acid ethyl ester;(±)-2-Bromopropanoic acid ethyl ester;Ethyl <em>dl</em>-α-bromopropionate;Ethyl (±)-2-bromopropionate;Ethyl <span class=\"text-smallcaps\">DL</span>-2-bromopropionate;(±)-2-Bromopropionic acid ethyl ester;(±)-Ethyl α-bromopropionate;NSC 6753",
    "duplicated_cas_no": "41978-69-2;2374896-02-1",
    "SMILES": "C(OCC)(C(Br)C)=O",
    "meta_data": {
        "InChI": "InChI=1S/C5H9BrO2/c1-3-8-5(7)4(2)6/h4H,3H2,1-2H3",
        "InChIKey": null,
        "Canonical SMILES": "O=C(OCC)C(Br)C",
        "Molecular Formula": "C<sub>5</sub>H<sub>9</sub>BrO<sub>2</sub>",
        "Molecular Mass": "181.03",
        "Boiling Point": "160 °C",
        "Melting Point": "&lt;25 °C",
        "Density": "1.38226 g/cm³ @ Temp: 25.00 °C"
    }
}