{
    "cas_no": "5624-13-5",
    "key_name": "5-Oxo-1-phenyl-2-thioxo-4-imidazolidineacetic acid",
    "cn_name": "苯基硫代乙内酰脲-天冬氨酸;中文名称暂缺;",
    "alternate_name": "4-Imidazolidineacetic acid, 5-oxo-1-phenyl-2-thioxo-;5-Hydantoinacetic acid, 3-phenyl-2-thio-;5-Oxo-1-phenyl-2-thioxo-4-imidazolidineacetic acid;Aspartic phenylthiohydantoin;Aspartic acid, 3-phenyl-2-thiohydantoin;Aspartic acid phenylthiohydantoin;PTH-<span class=\"text-smallcaps\">DL</span>-aspartic acid;Phenylthiohydantoin <span class=\"text-smallcaps\">DL</span>-aspartic acid;(5-Oxo-1-phenyl-2-thioxo-imidazolidin-4-yl)-acetic acid;2-(5-Oxo-1-phenyl-2-sulfanylideneimidazolidin-4-yl)acetic acid",
    "duplicated_cas_no": "31364-98-4",
    "SMILES": "O=C1N(C(=S)NC1CC(O)=O)C2=CC=CC=C2",
    "meta_data": {
        "InChI": "InChI=1S/C11H10N2O3S/c14-9(15)6-8-10(16)13(11(17)12-8)7-4-2-1-3-5-7/h1-5,8H,6H2,(H,12,17)(H,14,15)",
        "InChIKey": null,
        "Canonical SMILES": "O=C(O)CC1NC(=S)N(C=2C=CC=CC2)C1=O",
        "Molecular Formula": "C<sub>11</sub>H<sub>10</sub>N<sub>2</sub>O<sub>3</sub>S",
        "Molecular Mass": "250.27",
        "Melting Point": "233-234 °C"
    }
}