{
    "cas_no": "22823-50-3",
    "key_name": "<span class=\"text-smallcaps\">L</span>-Methionine, <em>N</em>-[(1,1-dimethylethoxy)carbonyl]-, compd. with <em>N</em>-cyclohexylcyclohexanamine (1:1)",
    "cn_name": "N-叔丁氧羰基-L-蛋氨酸二环己胺盐;",
    "alternate_name": "<span class=\"text-smallcaps\">L</span>-Methionine, <em>N</em>-[(1,1-dimethylethoxy)carbonyl]-, compd. with <em>N</em>-cyclohexylcyclohexanamine (1:1);Methionine, <em>N</em>-carboxy-, <em>N</em>-<em>tert</em>-butyl ester, compd. with dicyclohexylamine (1:1), <span class=\"text-smallcaps\">L</span>-;<em>N</em>-<em>tert</em>-Butyloxycarbonyl-<span class=\"text-smallcaps\">L</span>-methionine dicyclohexylammonium salt;<em>tert</em>-Butoxycarbonyl-<span class=\"text-smallcaps\">L</span>-methionine dicyclohexylamine salt",
    "duplicated_cas_no": "51537-18-9",
    "SMILES": "[C@H](NC(OC(C)(C)C)=O)(CCSC)C(O)=O.N(C1CCCCC1)C2CCCCC2",
    "meta_data": {
        "InChI": "InChI=1S/C12H23N.C10H19NO4S/c1-3-7-11(8-4-1)13-12-9-5-2-6-10-12;1-10(2,3)15-9(14)11-7(8(12)13)5-6-16-4/h11-13H,1-10H2;7H,5-6H2,1-4H3,(H,11,14)(H,12,13)/t;7-/m.0/s1",
        "InChIKey": null,
        "Canonical SMILES": "O=C(OC(C)(C)C)NC(C(=O)O)CCSC.N(C1CCCCC1)C2CCCCC2",
        "Molecular Formula": "C<sub>12</sub>H<sub>23</sub>N.C<sub>10</sub>H<sub>19</sub>NO<sub>4</sub>S",
        "Molecular Mass": "",
        "Melting Point": "120-123 °C"
    }
}