{
    "cas_no": "74733-30-5",
    "key_name": "Benzoic acid, 4-(bromomethyl)-3-chloro-, methyl ester",
    "cn_name": null,
    "alternate_name": "Benzoic acid, 4-(bromomethyl)-3-chloro-, methyl ester;Methyl 4-bromomethyl-3-chlorobenzoate;4-(Bromomethyl)-3-chlorobenzoic acid methyl ester",
    "duplicated_cas_no": "",
    "SMILES": "C(OC)(=O)C1=CC(Cl)=C(CBr)C=C1",
    "meta_data": {
        "InChI": "InChI=1S/C9H8BrClO2/c1-13-9(12)6-2-3-7(5-10)8(11)4-6/h2-4H,5H2,1H3",
        "InChIKey": null,
        "Canonical SMILES": "O=C(OC)C1=CC=C(C(Cl)=C1)CBr",
        "Molecular Formula": "C<sub>9</sub>H<sub>8</sub>BrClO<sub>2</sub>",
        "Molecular Mass": "263.52",
        "Melting Point": "65 °C"
    }
}