{
    "cas_no": "21080-92-2",
    "key_name": "3-Thiophenemalonic acid",
    "cn_name": "3-噻吩丙二酸;",
    "alternate_name": "Propanedioic acid, 2-(3-thienyl)-;3-Thiophenemalonic acid;Propanedioic acid, 3-thienyl-;2-(3-Thienyl)propanedioic acid;3-Thienylmalonic acid;2-(3-Thienyl)malonic acid;2-(Thiophen-3-yl)malonic acid;2-Thiophen-3-ylpropanedioic acid;2-(Thiophen-3-yl)propanedioic acid",
    "duplicated_cas_no": "",
    "SMILES": "C(C(O)=O)(C(O)=O)C=1C=CSC1",
    "meta_data": {
        "InChI": "InChI=1S/C7H6O4S/c8-6(9)5(7(10)11)4-1-2-12-3-4/h1-3,5H,(H,8,9)(H,10,11)",
        "InChIKey": null,
        "Canonical SMILES": "O=C(O)C(C(=O)O)C1=CSC=C1",
        "Molecular Formula": "C<sub>7</sub>H<sub>6</sub>O<sub>4</sub>S",
        "Molecular Mass": "186.19",
        "Melting Point": "139-140 °C (decomp)"
    }
}