{
    "cas_no": "23500-04-1",
    "key_name": "<em>N</em><sup>2</sup>-Acetyl-<em>N</em><sup>6</sup>-[(1,1-dimethylethoxy)carbonyl]-<span class=\"text-smallcaps\">L</span>-lysine",
    "cn_name": null,
    "alternate_name": "<span class=\"text-smallcaps\">L</span>-Lysine, <em>N</em><sup>2</sup>-acetyl-<em>N</em><sup>6</sup>-[(1,1-dimethylethoxy)carbonyl]-;Lysine, <em>N</em><sup>2</sup>-acetyl-<em>N</em><sup>6</sup>-carboxy-, <em>N</em><sup>6</sup>-<em>tert</em>-butyl ester, <span class=\"text-smallcaps\">L</span>-;<em>N</em><sup>2</sup>-Acetyl-<em>N</em><sup>6</sup>-[(1,1-dimethylethoxy)carbonyl]-<span class=\"text-smallcaps\">L</span>-lysine;α-<em>N</em>-Acetyl-ε-<em>N</em>-Boc-<span class=\"text-smallcaps\">L</span>-lysine;(2S)-2-Acetamido-6-[(2-methylpropan-2-yl)oxycarbonylamino]hexanoic acid;(<em>S</em>)-2-Acetamido-6-((<em>tert</em>-butoxycarbonyl)amino)hexanoicacid",
    "duplicated_cas_no": "",
    "SMILES": "[C@@H](CCCCNC(OC(C)(C)C)=O)(NC(C)=O)C(O)=O",
    "meta_data": {
        "InChI": "InChI=1S/C13H24N2O5/c1-9(16)15-10(11(17)18)7-5-6-8-14-12(19)20-13(2,3)4/h10H,5-8H2,1-4H3,(H,14,19)(H,15,16)(H,17,18)/t10-/m0/s1",
        "InChIKey": null,
        "Canonical SMILES": "O=C(OC(C)(C)C)NCCCCC(NC(=O)C)C(=O)O",
        "Molecular Formula": "C<sub>13</sub>H<sub>24</sub>N<sub>2</sub>O<sub>5</sub>",
        "Molecular Mass": "288.34",
        "Melting Point": "128 °C"
    }
}