{
    "cas_no": "21188-61-4",
    "key_name": "Ethyl 3-acetoxyhexanoate",
    "cn_name": null,
    "alternate_name": "Hexanoic acid, 3-(acetyloxy)-, ethyl ester;Hexanoic acid, 3-hydroxy-, ethyl ester, acetate;Ethyl 3-acetoxyhexanoate",
    "duplicated_cas_no": "",
    "SMILES": "C(CC(OCC)=O)(OC(C)=O)CCC",
    "meta_data": {
        "InChI": "InChI=1S/C10H18O4/c1-4-6-9(14-8(3)11)7-10(12)13-5-2/h9H,4-7H2,1-3H3",
        "InChIKey": null,
        "Canonical SMILES": "O=C(OC(CC(=O)OCC)CCC)C",
        "Molecular Formula": "C<sub>10</sub>H<sub>18</sub>O<sub>4</sub>",
        "Molecular Mass": "202.25",
        "Boiling Point": "110-111 °C @ Press: 9 Torr"
    }
}