{
    "cas_no": "33305-77-0",
    "key_name": "<em>N</em>-(<em>tert</em>-Butoxycarbonyl)-4-nitro-<span class=\"text-smallcaps\">L</span>-phenylalanine",
    "cn_name": "BOC-L-4-硝基苯丙氨酸;N-叔丁氧羰基-L-4-硝基苯丙氨酸;",
    "alternate_name": "<span class=\"text-smallcaps\">L</span>-Phenylalanine, <em>N</em>-[(1,1-dimethylethoxy)carbonyl]-4-nitro-;Alanine, <em>N</em>-carboxy-3-(<em>p</em>-nitrophenyl)-, <em>N</em>-<em>tert</em>-butyl ester, <span class=\"text-smallcaps\">L</span>-;<em>N</em>-[(1,1-Dimethylethoxy)carbonyl]-4-nitro-<span class=\"text-smallcaps\">L</span>-phenylalanine;<em>N</em>-<em>tert</em>-Butoxycarbonyl-<em>p</em>-nitro-<span class=\"text-smallcaps\">L</span>-phenylalanine;<em>N</em>-(<em>tert</em>-Butyloxycarbonyl)-<em>p</em>-nitro-<span class=\"text-smallcaps\">L</span>-phenylalanine;<em>N</em>-Boc-<em>p</em>-nitro-<span class=\"text-smallcaps\">L</span>-phenylalanine;<em>N</em>-(<em>tert</em>-Butoxycarbonyl)-4-nitro-<span class=\"text-smallcaps\">L</span>-phenylalanine;(2<em>S</em>)-2-[(<em>tert</em>-Butoxycarbonyl)amino]-3-(4-nitrophenyl)propanoic acid;(2<em>S</em>)-2-[(<em>tert</em>-Butoxycarbonyl)amino]-3-(4-nitrophenyl)propionic acid;2-(<em>S</em>)-[(<em>tert</em>-Butoxycarbonyl)amino]-3-(4-nitrophenyl)propionic acid;(<em>S</em>)-2-[(<em>tert</em>-Butoxycarbonyl)amino]-3-(4-nitrophenyl)propionic acid;(<em>S</em>)-2-(<em>tert</em>-Butoxycarbonylamino)-3-(4-nitrophenyl)propanoic acid",
    "duplicated_cas_no": "",
    "SMILES": "C([C@H](NC(OC(C)(C)C)=O)C(O)=O)C1=CC=C(N(=O)=O)C=C1",
    "meta_data": {
        "InChI": "InChI=1S/C14H18N2O6/c1-14(2,3)22-13(19)15-11(12(17)18)8-9-4-6-10(7-5-9)16(20)21/h4-7,11H,8H2,1-3H3,(H,15,19)(H,17,18)/t11-/m0/s1",
        "InChIKey": null,
        "Canonical SMILES": "O=C(OC(C)(C)C)NC(C(=O)O)CC1=CC=C(C=C1)N(=O)=O",
        "Molecular Formula": "C<sub>14</sub>H<sub>18</sub>N<sub>2</sub>O<sub>6</sub>",
        "Molecular Mass": "310.30",
        "Melting Point": "105-107 °C"
    }
}