{
    "cas_no": "42607-21-6",
    "key_name": "2-Phenylthiazolidine-4-carboxylic acid",
    "cn_name": null,
    "alternate_name": "4-Thiazolidinecarboxylic acid, 2-phenyl-;2-Phenyl-4-thiazolidinecarboxylic acid;2-Phenylthiazolidine-4-carboxylic acid;NSC 522094",
    "duplicated_cas_no": "",
    "SMILES": "C(O)(=O)C1NC(SC1)C2=CC=CC=C2",
    "meta_data": {
        "InChI": "InChI=1S/C10H11NO2S/c12-10(13)8-6-14-9(11-8)7-4-2-1-3-5-7/h1-5,8-9,11H,6H2,(H,12,13)",
        "InChIKey": null,
        "Canonical SMILES": "O=C(O)C1NC(SC1)C=2C=CC=CC2",
        "Molecular Formula": "C<sub>10</sub>H<sub>11</sub>NO<sub>2</sub>S",
        "Molecular Mass": "209.26",
        "Melting Point": "160 °C"
    }
}