{
    "cas_no": "19248-13-6",
    "key_name": "<em>N</em><sup>1</sup>-Ethyl-<em>N</em><sup>1</sup>-(3-methylphenyl)-1,2-ethanediamine",
    "cn_name": "N-(2-氨基乙基)-N-乙基间甲苯胺;",
    "alternate_name": "1,2-Ethanediamine, <em>N</em><sup>1</sup>-ethyl-<em>N</em><sup>1</sup>-(3-methylphenyl)-;Ethylenediamine, <em>N</em>-ethyl-<em>N</em>-<em>m</em>-tolyl-;1,2-Ethanediamine, <em>N</em>-ethyl-<em>N</em>-(3-methylphenyl)-;<em>N</em><sup>1</sup>-Ethyl-<em>N</em><sup>1</sup>-(3-methylphenyl)-1,2-ethanediamine;<em>N</em>-Ethyl-<em>N</em>-(2-aminoethyl)-<em>m</em>-toluidine;<em>N</em>-(2-Aminoethyl)-<em>N</em>-ethyl-<em>m</em>-toluidine;<em>N</em>-Ethyl-<em>N</em>-(3-methylphenyl)-1,2-ethanediamine;[2-(Ethyl(3-methylphenyl)amino]ethyl]amine;NSC 151043;<em>N</em>-Ethyl-<em>N</em>-(<em>m</em>-tolyl)ethane-1,2-diamine;<em>N</em>-Ethyl-<em>N</em>-(3-methylphenyl)ethylenediamine",
    "duplicated_cas_no": "",
    "SMILES": "N(CCN)(CC)C1=CC(C)=CC=C1",
    "meta_data": {
        "InChI": "InChI=1S/C11H18N2/c1-3-13(8-7-12)11-6-4-5-10(2)9-11/h4-6,9H,3,7-8,12H2,1-2H3",
        "InChIKey": null,
        "Canonical SMILES": "NCCN(C1=CC=CC(=C1)C)CC",
        "Molecular Formula": "C<sub>11</sub>H<sub>18</sub>N<sub>2</sub>",
        "Molecular Mass": "178.27",
        "Boiling Point": "145-148 °C @ Press: 13 Torr"
    }
}