{
    "cas_no": "514-10-3",
    "key_name": "Abietic acid",
    "cn_name": null,
    "alternate_name": "1-Phenanthrenecarboxylic acid, 1,2,3,4,4a,4b,5,6,10,10a-decahydro-1,4a-dimethyl-7-(1-methylethyl)-, (1<em>R</em>,4a<em>R</em>,4b<em>R</em>,10a<em>R</em>)-;Podocarpa-7,13-dien-15-oic acid, 13-isopropyl-;1-Phenanthrenecarboxylic acid, 1,2,3,4,4a,4b,5,6,10,10a-decahydro-1,4a-dimethyl-7-(1-methylethyl)-, [1<em>R</em>-(1α,4aβ,4bα,10aα)]-;Abietic acid, (-)-;(1<em>R</em>,4a<em>R</em>,4b<em>R</em>,10a<em>R</em>)-1,2,3,4,4a,4b,5,6,10,10a-Decahydro-1,4a-dimethyl-7-(1-methylethyl)-1-phenanthrenecarboxylic acid;Sylvic acid;Abietic acid;(-)-Abietic acid;7,13-Abietadien-18-oic acid;<em>l</em>-Abietic acid;NSC 25149;Odomit B 10;ZAO;ZAO (natural product);Abieta-7,13-diene-18-oic acid",
    "duplicated_cas_no": "72452-62-1",
    "SMILES": "C[C@@]12[C@]([C@@](C(O)=O)(C)CCC1)(CC=C3[C@@]2(CCC(C(C)C)=C3)[H])[H]",
    "meta_data": {
        "InChI": "InChI=1S/C20H30O2/c1-13(2)14-6-8-16-15(12-14)7-9-17-19(16,3)10-5-11-20(17,4)18(21)22/h7,12-13,16-17H,5-6,8-11H2,1-4H3,(H,21,22)/t16-,17+,19+,20+/m0/s1",
        "InChIKey": null,
        "Canonical SMILES": "O=C(O)C1(C)CCCC2(C)C3C(C=C(CC3)C(C)C)=CCC12",
        "Molecular Formula": "C<sub>20</sub>H<sub>30</sub>O<sub>2</sub>",
        "Molecular Mass": "302.45",
        "Boiling Point": "315-385 °C",
        "Melting Point": "173.5 °C",
        "Density": "1.06 g/cm³"
    }
}