{
    "cas_no": "36715-97-6",
    "key_name": "3-Methyl-1,2-benzenedicarbonitrile",
    "cn_name": "3-甲基-1,2-苯二腈;3-甲基邻苯二甲腈;3-甲基酞腈;3-甲基-1,2-二氰基苯;",
    "alternate_name": "1,2-Benzenedicarbonitrile, 3-methyl-;3-Methyl-1,2-benzenedicarbonitrile;3-Methylphthalonitrile;3-Methylphthalodinitrile",
    "duplicated_cas_no": "",
    "SMILES": "C(#N)C1=C(C#N)C(C)=CC=C1",
    "meta_data": {
        "InChI": "InChI=1S/C9H6N2/c1-7-3-2-4-8(5-10)9(7)6-11/h2-4H,1H3",
        "InChIKey": null,
        "Canonical SMILES": "N#CC1=CC=CC(=C1C#N)C",
        "Molecular Formula": "C<sub>9</sub>H<sub>6</sub>N<sub>2</sub>",
        "Molecular Mass": "142.16",
        "Melting Point": "143 °C"
    }
}