{
    "cas_no": "79-29-8",
    "key_name": "2,3-Dimethylbutane",
    "cn_name": "2,3-二甲基丁烷;",
    "alternate_name": "Butane, 2,3-dimethyl-;2,3-Dimethylbutane;Biisopropyl;Diisopropyl;1,1,2,2-Tetramethylethane;NSC 24837",
    "duplicated_cas_no": "",
    "SMILES": "C(C(C)C)(C)C",
    "meta_data": {
        "InChI": "InChI=1S/C6H14/c1-5(2)6(3)4/h5-6H,1-4H3",
        "InChIKey": null,
        "Canonical SMILES": "CC(C)C(C)C",
        "Molecular Formula": "C<sub>6</sub>H<sub>14</sub>",
        "Molecular Mass": "86.18",
        "Boiling Point": "57.9 °C @ Press: 760 Torr",
        "Melting Point": "-128.8 °C",
        "Density": "0.6616 g/cm³ @ Temp: 20 °C"
    }
}