{
    "cas_no": "1603-40-3",
    "key_name": "2-Amino-3-methylpyridine",
    "cn_name": "2-氨基-3-甲基吡啶;",
    "alternate_name": "2-Pyridinamine, 3-methyl-;3-Picoline, 2-amino-;3-Methyl-2-pyridinamine;2-Amino-3-picoline;2-Amino-3-methylpyridine;2-Amino-β-picoline;3-Methyl-2-aminopyridine;3-Methylpyridin-2-ylamine;NSC 176169;NSC 450;3-Methylpyridin-2-amine",
    "duplicated_cas_no": "",
    "SMILES": "CC1=C(N)N=CC=C1",
    "meta_data": {
        "InChI": "InChI=1S/C6H8N2/c1-5-3-2-4-8-6(5)7/h2-4H,1H3,(H2,7,8)",
        "InChIKey": null,
        "Canonical SMILES": "N=1C=CC=C(C1N)C",
        "Molecular Formula": "C<sub>6</sub>H<sub>8</sub>N<sub>2</sub>",
        "Molecular Mass": "108.14",
        "Boiling Point": "222 °C",
        "Melting Point": "33.5 °C"
    }
}