{
    "cas_no": "698-70-4",
    "key_name": "4-Iodo-<em>N</em>,<em>N</em>-dimethylaniline",
    "cn_name": null,
    "alternate_name": "Benzenamine, 4-iodo-<em>N</em>,<em>N</em>-dimethyl-;Aniline, <em>p</em>-iodo-<em>N</em>,<em>N</em>-dimethyl-;4-Iodo-<em>N</em>,<em>N</em>-dimethylbenzenamine;<em>N</em>,<em>N</em>-Dimethyl-4-iodoaniline;<em>p</em>-(<em>N</em>,<em>N</em>-Dimethylamino)iodobenzene;4-Iodo-<em>N</em>,<em>N</em>-dimethylaniline;<em>p</em>-Iodo-<em>N</em>,<em>N</em>-dimethylaniline;<em>p</em>-(Dimethylamino)phenyl iodide;4-(<em>N</em>,<em>N</em>-Dimethylamino)iodobenzene;4-(Dimethylamino)iodobenzene;1-Dimethylamino-4-iodobenzene;<em>p</em>-(Dimethylamino)iodobenzene;(4-Iodophenyl)dimethylamine;NSC 223072;4-Dimethylaminophenyl iodide;4-Iodo-<em>N</em>,<em>N</em>-dimethylaminobenzene;4-Dimethylamino-1-iodobenzene",
    "duplicated_cas_no": "",
    "SMILES": "N(C)(C)C1=CC=C(I)C=C1",
    "meta_data": {
        "InChI": "InChI=1S/C8H10IN/c1-10(2)8-5-3-7(9)4-6-8/h3-6H,1-2H3",
        "InChIKey": null,
        "Canonical SMILES": "IC1=CC=C(C=C1)N(C)C",
        "Molecular Formula": "C<sub>8</sub>H<sub>10</sub>IN",
        "Molecular Mass": "247.08",
        "Melting Point": "79.5 °C"
    }
}