{
    "cas_no": "20098-48-0",
    "key_name": "1,2,3-Trichloro-5-nitrobenzene",
    "cn_name": "1,2,3-三氯-5-硝基苯;3,4,5-三氯硝基苯;",
    "alternate_name": "Benzene, 1,2,3-trichloro-5-nitro-;1,2,3-Trichloro-5-nitrobenzene;3,4,5-Trichloronitrobenzene;NSC 523881;3,4,5-Trichloro-1-nitrobenzene;5-Nitro-1,2,3-trichlorobenzene",
    "duplicated_cas_no": "",
    "SMILES": "N(=O)(=O)C1=CC(Cl)=C(Cl)C(Cl)=C1",
    "meta_data": {
        "InChI": "InChI=1S/C6H2Cl3NO2/c7-4-1-3(10(11)12)2-5(8)6(4)9/h1-2H",
        "InChIKey": null,
        "Canonical SMILES": "O=N(=O)C1=CC(Cl)=C(Cl)C(Cl)=C1",
        "Molecular Formula": "C<sub>6</sub>H<sub>2</sub>Cl<sub>3</sub>NO<sub>2</sub>",
        "Molecular Mass": "226.44",
        "Melting Point": "72.5 °C"
    }
}