{
    "cas_no": "13979-81-2",
    "key_name": "3,5-Dibromo-4-methylphenol",
    "cn_name": "3,5-二溴-4-甲基苯酚;3,5-二溴-4-甲基苯;",
    "alternate_name": "Phenol, 3,5-dibromo-4-methyl-;<em>p</em>-Cresol, 3,5-dibromo-;3,5-Dibromo-4-methylphenol;3,5-Dibromo-<em>p</em>-cresol",
    "duplicated_cas_no": "",
    "SMILES": "CC1=C(Br)C=C(O)C=C1Br",
    "meta_data": {
        "InChI": "InChI=1S/C7H6Br2O/c1-4-6(8)2-5(10)3-7(4)9/h2-3,10H,1H3",
        "InChIKey": null,
        "Canonical SMILES": "BrC=1C=C(O)C=C(Br)C1C",
        "Molecular Formula": "C<sub>7</sub>H<sub>6</sub>Br<sub>2</sub>O",
        "Molecular Mass": "265.93",
        "Boiling Point": "280-286 °C",
        "Melting Point": "97 °C"
    }
}