{
    "cas_no": "93-07-2",
    "key_name": "Veratric acid",
    "cn_name": "3,4-二甲氧基苯甲酸;",
    "alternate_name": "Benzoic acid, 3,4-dimethoxy-;Veratric acid;3,4-Dimethoxybenzoic acid;Dimethylprotocatechuic acid;NSC 7721;3,4-Bis(methyloxy)benzoic acid",
    "duplicated_cas_no": "",
    "SMILES": "O(C)C1=C(OC)C=CC(C(O)=O)=C1",
    "meta_data": {
        "InChI": "InChI=1S/C9H10O4/c1-12-7-4-3-6(9(10)11)5-8(7)13-2/h3-5H,1-2H3,(H,10,11)",
        "InChIKey": null,
        "Canonical SMILES": "O=C(O)C1=CC=C(OC)C(OC)=C1",
        "Molecular Formula": "C<sub>9</sub>H<sub>10</sub>O<sub>4</sub>",
        "Molecular Mass": "182.17",
        "Melting Point": "181 °C"
    }
}