{
    "cas_no": "24262-38-2",
    "key_name": "3-Bromo-7,7-dimethyl-2-oxobicyclo[2.2.1]heptane-1-methanesulfonic acid",
    "cn_name": "右旋-3-溴樟脑-10-磺酸水合物;",
    "alternate_name": "Bicyclo[2.2.1]heptane-1-methanesulfonic acid, 3-bromo-7,7-dimethyl-2-oxo-;10-Bornanesulfonic acid, 3-bromo-2-oxo-;10-Camphorsulfonic acid, 3-bromo-;3-Bromo-7,7-dimethyl-2-oxobicyclo[2.2.1]heptane-1-methanesulfonic acid;3-Bromo-10-camphorsulfonic acid",
    "duplicated_cas_no": "",
    "SMILES": "C(S(=O)(=O)O)C12C(C)(C)C(C(Br)C1=O)CC2",
    "meta_data": {
        "InChI": "InChI=1S/C10H15BrO4S/c1-9(2)6-3-4-10(9,5-16(13,14)15)8(12)7(6)11/h6-7H,3-5H2,1-2H3,(H,13,14,15)",
        "InChIKey": null,
        "Canonical SMILES": "O=C1C(Br)C2CCC1(CS(=O)(=O)O)C2(C)C",
        "Molecular Formula": "C<sub>10</sub>H<sub>15</sub>BrO<sub>4</sub>S",
        "Molecular Mass": "311.19",
        "Melting Point": "182-183 °C"
    }
}