{
    "cas_no": "91809-67-5",
    "key_name": "6-Carboxytetramethylrhodamine",
    "cn_name": "6-羧基四甲基罗丹明;",
    "alternate_name": "Xanthylium, 9-(2,5-dicarboxyphenyl)-3,6-bis(dimethylamino)-, inner salt;6-Carboxytetramethylrhodamine;<em>N</em>,<em>N</em>,<em>N</em>′,<em>N</em>′-Tetramethyl-6-carboxyrhodamine;6-TAMRA",
    "duplicated_cas_no": "222551-75-9;2814525-94-3",
    "SMILES": "C([O-])(=O)C1=C(C=2C3=C([O+]=C4C2C=CC(N(C)C)=C4)C=C(N(C)C)C=C3)C=C(C(O)=O)C=C1",
    "meta_data": {
        "InChI": "InChI=1S/C25H22N2O5/c1-26(2)15-6-9-18-21(12-15)32-22-13-16(27(3)4)7-10-19(22)23(18)20-11-14(24(28)29)5-8-17(20)25(30)31/h5-13H,1-4H3,(H-,28,29,30,31)",
        "InChIKey": null,
        "Canonical SMILES": "O=C([O-])C=1C=CC(=CC1C=2C=3C=CC(=CC3[O+]=C4C=C(C=CC42)N(C)C)N(C)C)C(=O)O",
        "Molecular Formula": "C<sub>25</sub>H<sub>22</sub>N<sub>2</sub>O<sub>5</sub>",
        "Molecular Mass": "",
        "Melting Point": "&gt;280 °C"
    }
}