{
    "cas_no": "5446-05-9",
    "key_name": "4-Chloro-1-iodo-2-nitrobenzene",
    "cn_name": null,
    "alternate_name": "Benzene, 4-chloro-1-iodo-2-nitro-;4-Chloro-1-iodo-2-nitrobenzene;1-Iodo-2-nitro-4-chlorobenzene;NSC 17163;4-Chloro-2-nitrophenyl iodide;1-Chloro-4-iodo-3-nitrobenzene",
    "duplicated_cas_no": "",
    "SMILES": "N(=O)(=O)C1=C(I)C=CC(Cl)=C1",
    "meta_data": {
        "InChI": "InChI=1S/C6H3ClINO2/c7-4-1-2-5(8)6(3-4)9(10)11/h1-3H",
        "InChIKey": null,
        "Canonical SMILES": "O=N(=O)C1=CC(Cl)=CC=C1I",
        "Molecular Formula": "C<sub>6</sub>H<sub>3</sub>ClINO<sub>2</sub>",
        "Molecular Mass": "283.45",
        "Melting Point": "59 °C"
    }
}