{
    "cas_no": "1076-97-7",
    "key_name": "1,4-Cyclohexanedicarboxylic acid",
    "cn_name": null,
    "alternate_name": "1,4-Cyclohexanedicarboxylic acid;1,4-Benzenedicarboxylic acid, hexahydro-;Hexahydroterephthalic acid;1,4-Dicarboxycyclohexane;1,4-CHDA-HP;Rikacid CHDA",
    "duplicated_cas_no": "",
    "SMILES": "C(O)(=O)C1CCC(C(O)=O)CC1",
    "meta_data": {
        "InChI": "InChI=1S/C8H12O4/c9-7(10)5-1-2-6(4-3-5)8(11)12/h5-6H,1-4H2,(H,9,10)(H,11,12)",
        "InChIKey": null,
        "Canonical SMILES": "O=C(O)C1CCC(C(=O)O)CC1",
        "Molecular Formula": "C<sub>8</sub>H<sub>12</sub>O<sub>4</sub>",
        "Molecular Mass": "172.18",
        "Melting Point": "67 °C"
    }
}