{
    "cas_no": "3764-01-0",
    "key_name": "2,4,6-Trichloropyrimidine",
    "cn_name": "2,4,6-三氯嘧啶;",
    "alternate_name": "Pyrimidine, 2,4,6-trichloro-;2,4,6-Trichloropyrimidine;NSC 6494",
    "duplicated_cas_no": "",
    "SMILES": "ClC=1C=C(Cl)N=C(Cl)N1",
    "meta_data": {
        "InChI": "InChI=1S/C4HCl3N2/c5-2-1-3(6)9-4(7)8-2/h1H",
        "InChIKey": null,
        "Canonical SMILES": "ClC=1N=C(Cl)C=C(Cl)N1",
        "Molecular Formula": "C<sub>4</sub>HCl<sub>3</sub>N<sub>2</sub>",
        "Molecular Mass": "183.42",
        "Boiling Point": "212.5 °C",
        "Melting Point": "22.5 °C"
    }
}