{
    "cas_no": "147098-20-2",
    "key_name": "Rosuvastatin calcium",
    "cn_name": null,
    "alternate_name": "6-Heptenoic acid, 7-[4-(4-fluorophenyl)-6-(1-methylethyl)-2-[methyl(methylsulfonyl)amino]-5-pyrimidinyl]-3,5-dihydroxy-, calcium salt (2:1), (3<em>R</em>,5<em>S</em>,6<em>E</em>)-;6-Heptenoic acid, 7-[4-(4-fluorophenyl)-6-(1-methylethyl)-2-[methyl(methylsulfonyl)amino]-5-pyrimidinyl]-3,5-dihydroxy-, calcium salt (2:1), [<em>S</em>-[<em>R</em>*,<em>S</em>*-(<em>E</em>)]]-;Rosuvastatin calcium;S 4522;ZD 4522, calcium salt;Rosuvastatin hemicalcium;Crestor;Rosuvastatin calcium salt;Fortius;Rostar;Rozavel;Crestomed;Suvikan;Razel-F 10;AZD 4522 calcium;AZD4522 calcium;AZD-4522 calcium",
    "duplicated_cas_no": "1194303-42-8",
    "SMILES": "C(=C/[C@H](C[C@H](CC(O)=O)O)O)\\C=1C(=NC(N(S(C)(=O)=O)C)=NC1C(C)C)C2=CC=C(F)C=C2.[Ca]",
    "meta_data": {
        "InChI": "InChI=1S/C22H28FN3O6S.Ca/c1-13(2)20-18(10-9-16(27)11-17(28)12-19(29)30)21(14-5-7-15(23)8-6-14)25-22(24-20)26(3)33(4,31)32;/h5-10,13,16-17,27-28H,11-12H2,1-4H3,(H,29,30);/b10-9+;/t16-,17-;/m1./s1",
        "InChIKey": null,
        "Canonical SMILES": "[Ca].O=C(O)CC(O)CC(O)C=CC=1C(=NC(=NC1C(C)C)N(C)S(=O)(=O)C)C=2C=CC(F)=CC2",
        "Molecular Formula": "C<sub>22</sub>H<sub>28</sub>FN<sub>3</sub>O<sub>6</sub>S.<sup>1</sup>/<sub>2</sub>Ca",
        "Molecular Mass": "",
        "Melting Point": "140-144 °C"
    }
}