{
    "cas_no": "2038-57-5",
    "key_name": "Benzenepropanamine",
    "cn_name": "3-苯基-1-丙胺;",
    "alternate_name": "Benzenepropanamine;Propylamine, 3-phenyl-;Hydrocinnamylamine;3-Phenylpropylamine;γ-Phenyl-<em>n</em>-propylamine;γ-Phenylpropylamine;1-Amino-3-phenylpropane;3-Phenyl-<em>n</em>-propylamine;3-Phenyl-1-propanamine;3-Phenyl-1-aminopropane;3-Phenylpropanamine;Phenpropylamine;NSC 87080;(3-Phenylpropan-1-yl)amine;3-Benzenepropanamine",
    "duplicated_cas_no": "",
    "SMILES": "C(CCN)C1=CC=CC=C1",
    "meta_data": {
        "InChI": "InChI=1S/C9H13N/c10-8-4-7-9-5-2-1-3-6-9/h1-3,5-6H,4,7-8,10H2",
        "InChIKey": null,
        "Canonical SMILES": "NCCCC=1C=CC=CC1",
        "Molecular Formula": "C<sub>9</sub>H<sub>13</sub>N",
        "Molecular Mass": "135.21",
        "Boiling Point": "221 °C"
    }
}