{
    "cas_no": "1711-09-7",
    "key_name": "3-Bromobenzoyl chloride",
    "cn_name": "3-溴苯甲酰氯;",
    "alternate_name": "Benzoyl chloride, 3-bromo-;Benzoyl chloride, <em>m</em>-bromo-;3-Bromobenzoyl chloride;<em>m</em>-Bromobenzoyl chloride;NSC 100315",
    "duplicated_cas_no": "",
    "SMILES": "C(Cl)(=O)C1=CC(Br)=CC=C1",
    "meta_data": {
        "InChI": "InChI=1S/C7H4BrClO/c8-6-3-1-2-5(4-6)7(9)10/h1-4H",
        "InChIKey": null,
        "Canonical SMILES": "O=C(Cl)C=1C=CC=C(Br)C1",
        "Molecular Formula": "C<sub>7</sub>H<sub>4</sub>BrClO",
        "Molecular Mass": "219.46",
        "Boiling Point": "84.5-86.5 °C @ Press: 3 Torr",
        "Melting Point": "139.5-141.3 °C"
    }
}