{
    "cas_no": "10265-92-6",
    "key_name": "Methamidophos",
    "cn_name": "甲胺磷;多灭磷;O,S-二甲基硫代磷酰胺;",
    "alternate_name": "Phosphoramidothioic acid, <em>O</em>,<em>S</em>-dimethyl ester;Methyl phosphoramidothioate ((MeO)(MeS)P(O)(NH<sub>2</sub>));Ortho 9006;Monitor;Monitor (insecticide);Chevron 9006;Tamaron;Methamidophos;Bayer 5546;<em>O</em>,<em>S</em>-Dimethyl phosphoramidothioate;RE 9006;Metamidophos;Ortho Monitor;CKB 1220;Filitox;<em>O</em>,<em>S</em>-Dimethyl thiophosphoramide;Acephate-met;Sniper;Amidor;Sundaphos;Nitofol;(±)-Methamidophos;Sniper (organophosphate insecticide);[Methoxy(methylsulfanyl)phosphoryl]amine",
    "duplicated_cas_no": "115182-35-9",
    "SMILES": "P(OC)(SC)(N)=O",
    "meta_data": {
        "InChI": "InChI=1S/C2H8NO2PS/c1-5-6(3,4)7-2/h1-2H3,(H2,3,4)",
        "InChIKey": null,
        "Canonical SMILES": "O=P(OC)(SC)N",
        "Molecular Formula": "C<sub>2</sub>H<sub>8</sub>NO<sub>2</sub>PS",
        "Molecular Mass": "141.13",
        "Melting Point": "44.9 °C",
        "Density": "1.27 g/cm³ @ Temp: 20 °C"
    }
}