{
    "cas_no": "61537-49-3",
    "key_name": "3-[(4-Methylphenyl)amino]phenol",
    "cn_name": "对甲基间羟基二苯胺;3-[(4-甲基苯基)氨基]苯酚;3-羟基-4\"-甲基二苯胺;",
    "alternate_name": "Phenol, 3-[(4-methylphenyl)amino]-;3-[(4-Methylphenyl)amino]phenol;5-[(4-Methylphenyl)amino]phenol;3-<em>p</em>-Tolylamino-phenol",
    "duplicated_cas_no": "",
    "SMILES": "N(C1=CC(O)=CC=C1)C2=CC=C(C)C=C2",
    "meta_data": {
        "InChI": "InChI=1S/C13H13NO/c1-10-5-7-11(8-6-10)14-12-3-2-4-13(15)9-12/h2-9,14-15H,1H3",
        "InChIKey": null,
        "Canonical SMILES": "OC1=CC=CC(=C1)NC2=CC=C(C=C2)C",
        "Molecular Formula": "C<sub>13</sub>H<sub>13</sub>NO",
        "Molecular Mass": "199.25",
        "Melting Point": "82 °C"
    }
}