{
    "cas_no": "1083-41-6",
    "key_name": "Butyl gallate",
    "cn_name": null,
    "alternate_name": "Benzoic acid, 3,4,5-trihydroxy-, butyl ester;Gallic acid, butyl ester;Butyl gallate;Progallin butyl;Butyl 3,4,5-trihydroxybenzoate;NSC 33956",
    "duplicated_cas_no": "",
    "SMILES": "C(OCCCC)(=O)C1=CC(O)=C(O)C(O)=C1",
    "meta_data": {
        "InChI": "InChI=1S/C11H14O5/c1-2-3-4-16-11(15)7-5-8(12)10(14)9(13)6-7/h5-6,12-14H,2-4H2,1H3",
        "InChIKey": null,
        "Canonical SMILES": "O=C(OCCCC)C1=CC(O)=C(O)C(O)=C1",
        "Molecular Formula": "C<sub>11</sub>H<sub>14</sub>O<sub>5</sub>",
        "Molecular Mass": "226.23",
        "Melting Point": "133-134 °C"
    }
}