{
    "cas_no": "101494-95-5",
    "key_name": "8-Chloro-4(3<em>H</em>)-quinazolinone",
    "cn_name": null,
    "alternate_name": "4(3<em>H</em>)-Quinazolinone, 8-chloro-;4(1<em>H</em>)-Quinazolinone, 8-chloro-;8-Chloro-4(3<em>H</em>)-quinazolinone;8-Chloroquinazolin-4(3<em>H</em>)-one",
    "duplicated_cas_no": "",
    "SMILES": "O=C1C=2C(=C(Cl)C=CC2)NC=N1",
    "meta_data": {
        "InChI": "InChI=1S/C8H5ClN2O/c9-6-3-1-2-5-7(6)10-4-11-8(5)12/h1-4H,(H,10,11,12)",
        "InChIKey": null,
        "Canonical SMILES": "O=C1N=CNC=2C(Cl)=CC=CC12",
        "Molecular Formula": "C<sub>8</sub>H<sub>5</sub>ClN<sub>2</sub>O",
        "Molecular Mass": "180.59",
        "Melting Point": "299-300 °C"
    }
}