{
    "cas_no": "116064-76-7",
    "key_name": "1,2,3-Trimethoxydibenz[<em>cd</em>,<em>f</em>]indol-4(5<em>H</em>)-one",
    "cn_name": null,
    "alternate_name": "Dibenz[<em>cd</em>,<em>f</em>]indol-4(5<em>H</em>)-one, 1,2,3-trimethoxy-;1,2,3-Trimethoxydibenz[<em>cd</em>,<em>f</em>]indol-4(5<em>H</em>)-one;Piperolactam B methyl ether;<em>O</em>-Methylpiperolactam B;Piperolactam C;3-Methoxyaristolactam BII;2-<em>O</em>-Methylaristolactam FII",
    "duplicated_cas_no": "",
    "SMILES": "O(C)C=1C2=C3C(=C(OC)C1OC)C(=O)NC3=CC=4C2=CC=CC4",
    "meta_data": {
        "InChI": "InChI=1S/C18H15NO4/c1-21-15-12-10-7-5-4-6-9(10)8-11-13(12)14(18(20)19-11)16(22-2)17(15)23-3/h4-8H,1-3H3,(H,19,20)",
        "InChIKey": null,
        "Canonical SMILES": "O=C1NC2=CC=3C=CC=CC3C=4C(OC)=C(OC)C(OC)=C1C24",
        "Molecular Formula": "C<sub>18</sub>H<sub>15</sub>NO<sub>4</sub>",
        "Molecular Mass": "309.32",
        "Melting Point": "189-190 °C"
    }
}