{
    "cas_no": "6876-00-2",
    "key_name": "3-Bromodiphenyl ether",
    "cn_name": "3-溴联苯醚;",
    "alternate_name": "Benzene, 1-bromo-3-phenoxy-;Ether, <em>m</em>-bromophenyl phenyl;1-Bromo-3-phenoxybenzene;<em>m</em>-Phenoxybromobenzene;<em>m</em>-Bromodiphenyl ether;<em>m</em>-Bromophenoxybenzene;<em>m</em>-Bromophenyl phenyl ether;3-Bromophenyl phenyl ether;<em>m</em>-Phenoxyphenyl bromide;3-Bromodiphenyl ether;3-Phenoxyphenyl bromide;3-Phenoxybromobenzene;BDE 2;PBDE 2;NSC 57095;3-Phenoxy-1-bromobenzene",
    "duplicated_cas_no": "",
    "SMILES": "O(C1=CC(Br)=CC=C1)C2=CC=CC=C2",
    "meta_data": {
        "InChI": "InChI=1S/C12H9BrO/c13-10-5-4-8-12(9-10)14-11-6-2-1-3-7-11/h1-9H",
        "InChIKey": null,
        "Canonical SMILES": "BrC1=CC=CC(OC=2C=CC=CC2)=C1",
        "Molecular Formula": "C<sub>12</sub>H<sub>9</sub>BrO",
        "Molecular Mass": "249.10",
        "Boiling Point": "168-171 °C @ Press: 15 Torr",
        "Density": "1.3944 g/cm³ @ Temp: 20 °C"
    }
}