{
    "cas_no": "638-11-9",
    "key_name": "Isopropyl butanoate",
    "cn_name": "丁酸异丙酯;",
    "alternate_name": "Butanoic acid, 1-methylethyl ester;Butyric acid, isopropyl ester;Isopropyl butyrate;Isopropyl butanoate;1-Methylethyl butanoate;Isopropyl <em>n</em>-butyrate;Butanoic acid isopropyl ester;2-Propyl butanoate;Butanoic acid 2-propyl ester",
    "duplicated_cas_no": "",
    "SMILES": "O(C(CCC)=O)C(C)C",
    "meta_data": {
        "InChI": "InChI=1S/C7H14O2/c1-4-5-7(8)9-6(2)3/h6H,4-5H2,1-3H3",
        "InChIKey": null,
        "Canonical SMILES": "O=C(OC(C)C)CCC",
        "Molecular Formula": "C<sub>7</sub>H<sub>14</sub>O<sub>2</sub>",
        "Molecular Mass": "130.18",
        "Boiling Point": "130.5 °C"
    }
}