{
    "cas_no": "60144-53-8",
    "key_name": "Carbamic acid, <em>N</em>-(4-fluorophenyl)-, 1,1-dimethylethyl ester",
    "cn_name": null,
    "alternate_name": "Carbamic acid, <em>N</em>-(4-fluorophenyl)-, 1,1-dimethylethyl ester;Carbamic acid, (4-fluorophenyl)-, 1,1-dimethylethyl ester;<em>N</em>-(<em>tert</em>-Butoxycarbonyl)-4-fluoroaniline;(4-Fluorophenyl)carbamic acid tert-butyl ester;<em>N</em>-Boc-4-fluoroaniline;<em>tert</em>-Butyl (4-fluorophenyl)carbamate;1,1-Dimethylethyl <em>N</em>-(4-fluorophenyl)carbamate;<em>tert</em>-Butyl <em>N</em>-(4-fluorophenyl)carbamate",
    "duplicated_cas_no": "",
    "SMILES": "N(C(OC(C)(C)C)=O)C1=CC=C(F)C=C1",
    "meta_data": {
        "InChI": "InChI=1S/C11H14FNO2/c1-11(2,3)15-10(14)13-9-6-4-8(12)5-7-9/h4-7H,1-3H3,(H,13,14)",
        "InChIKey": null,
        "Canonical SMILES": "O=C(OC(C)(C)C)NC1=CC=C(F)C=C1",
        "Molecular Formula": "C<sub>11</sub>H<sub>14</sub>FNO<sub>2</sub>",
        "Molecular Mass": "211.23",
        "Melting Point": "124-125 °C"
    }
}