{
    "cas_no": "1539-42-0",
    "key_name": "Bis(2-pyridylmethyl)amine",
    "cn_name": "二甲基吡啶胺;2,2-二甲基吡啶胺;",
    "alternate_name": "2-Pyridinemethanamine, <em>N</em>-(2-pyridinylmethyl)-;Pyridine, 2,2′-(iminodimethylene)di-;<em>N</em>-(2-Pyridinylmethyl)-2-pyridinemethanamine;Bis(2-pyridylmethyl)amine;2,2′-Dipicolylamine;Bis(2-picolyl)amine;Di-2-picolylamine;<em>N</em>,<em>N</em>-Bis(2-pyridylmethyl)amine;Di(2-pyridylmethyl)amine;Bis(2-pyridinylmethyl)amine;<em>N</em>,<em>N</em>-Di-2-picolylamine;<em>N</em>,<em>N</em>′-Bis(2-pyridylmethyl)amine;NSC 176070;<em>N</em>,<em>N</em>-Bis(pyridin-2-ylmethyl)amine;2,2′-Bis(pyridylmethyl)amine;Dipicolylamine;1-Pyridin-2-yl-<em>N</em>-(pyridin-2-ylmethyl)methanamine;<em>N</em>,<em>N</em>-Bis(pyridylmethyl)amine",
    "duplicated_cas_no": "1386284-39-4",
    "SMILES": "C(NCC1=CC=CC=N1)C2=CC=CC=N2",
    "meta_data": {
        "InChI": "InChI=1S/C12H13N3/c1-3-7-14-11(5-1)9-13-10-12-6-2-4-8-15-12/h1-8,13H,9-10H2",
        "InChIKey": null,
        "Canonical SMILES": "N=1C=CC=CC1CNCC2=NC=CC=C2",
        "Molecular Formula": "C<sub>12</sub>H<sub>13</sub>N<sub>3</sub>",
        "Molecular Mass": "199.25",
        "Boiling Point": "150-152 °C @ Press: 0.27 Torr"
    }
}