{
    "cas_no": "35762-76-6",
    "key_name": "4,6-Dimethyl-2-pyrimidinesulfonamide",
    "cn_name": null,
    "alternate_name": "2-Pyrimidinesulfonamide, 4,6-dimethyl-;4,6-Dimethyl-2-pyrimidinesulfonamide;4,6-Dimethylpyrimidine-2-sulfonamide",
    "duplicated_cas_no": "",
    "SMILES": "S(N)(=O)(=O)C=1N=C(C)C=C(C)N1",
    "meta_data": {
        "InChI": "InChI=1S/C6H9N3O2S/c1-4-3-5(2)9-6(8-4)12(7,10)11/h3H,1-2H3,(H2,7,10,11)",
        "InChIKey": null,
        "Canonical SMILES": "O=S(=O)(N)C=1N=C(C=C(N1)C)C",
        "Molecular Formula": "C<sub>6</sub>H<sub>9</sub>N<sub>3</sub>O<sub>2</sub>S",
        "Molecular Mass": "187.22",
        "Melting Point": "200-200.5 °C"
    }
}