{
    "cas_no": "7680-73-1",
    "key_name": "Pyridinium, 1-methyl-, chloride (1:1)",
    "cn_name": "1-甲基氯化吡啶;",
    "alternate_name": "Pyridinium, 1-methyl-, chloride (1:1);Pyridinium, 1-methyl-, chloride;1-Methylpyridinium chloride;<em>N</em>-Methylpyridinium chloride;Methylpyridinium chloride",
    "duplicated_cas_no": "",
    "SMILES": "C[N+]=1C=CC=CC1.[Cl-]",
    "meta_data": {
        "InChI": "InChI=1S/C6H8N.ClH/c1-7-5-3-2-4-6-7;/h2-6H,1H3;1H/q+1;/p-1",
        "InChIKey": null,
        "Canonical SMILES": "[Cl-].C=1C=C[N+](=CC1)C",
        "Molecular Formula": "C<sub>6</sub>H<sub>8</sub>N.Cl",
        "Molecular Mass": "",
        "Melting Point": "136-138 °C"
    }
}