{
    "cas_no": "3676-72-0",
    "key_name": "<em>N</em>-Benzoylguanosine",
    "cn_name": null,
    "alternate_name": "Guanosine, <em>N</em>-benzoyl-;Benzamide, <em>N</em>-(1,6-dihydro-6-oxo-9-β-<span class=\"text-smallcaps\">D</span>-ribofuranosyl-9<em>H</em>-purin-9-yl)-;<em>N</em>-Benzoylguanosine;<em>N</em><sup>2</sup>-Benzoylguanosine;2-<em>N</em>-Benzoylguanosine",
    "duplicated_cas_no": "21967-39-5",
    "SMILES": "O=C1C2=C(N(C=N2)[C@@H]3O[C@H](CO)[C@@H](O)[C@H]3O)NC(NC(=O)C4=CC=CC=C4)=N1",
    "meta_data": {
        "InChI": "InChI=1S/C17H17N5O6/c23-6-9-11(24)12(25)16(28-9)22-7-18-10-13(22)19-17(21-15(10)27)20-14(26)8-4-2-1-3-5-8/h1-5,7,9,11-12,16,23-25H,6H2,(H2,19,20,21,26,27)/t9-,11-,12-,16-/m1/s1",
        "InChIKey": null,
        "Canonical SMILES": "O=C1N=C(NC(=O)C=2C=CC=CC2)NC3=C1N=CN3C4OC(CO)C(O)C4O",
        "Molecular Formula": "C<sub>17</sub>H<sub>17</sub>N<sub>5</sub>O<sub>6</sub>",
        "Molecular Mass": "387.35",
        "Melting Point": "252-254 °C"
    }
}