{
    "cas_no": "2051-99-2",
    "key_name": "1-Bromo-4-(2-methylpropyl)benzene",
    "cn_name": "1-溴-4-异丁基苯;",
    "alternate_name": "Benzene, 1-bromo-4-(2-methylpropyl)-;Benzene, 1-bromo-4-isobutyl-;1-Bromo-4-(2-methylpropyl)benzene;1-Bromo-4-isobutylbenzene;4-Isobutylbromobenzene;<em>p</em>-Isobutylbromobenzene;4-Bromoisobutylbenzene;4-Isobutylphenyl bromide",
    "duplicated_cas_no": "",
    "SMILES": "C(C(C)C)C1=CC=C(Br)C=C1",
    "meta_data": {
        "InChI": "InChI=1S/C10H13Br/c1-8(2)7-9-3-5-10(11)6-4-9/h3-6,8H,7H2,1-2H3",
        "InChIKey": null,
        "Canonical SMILES": "BrC1=CC=C(C=C1)CC(C)C",
        "Molecular Formula": "C<sub>10</sub>H<sub>13</sub>Br",
        "Molecular Mass": "213.11",
        "Boiling Point": "97-98 °C @ Press: 5 Torr",
        "Melting Point": "-49.68 °C",
        "Density": "1.2609 g/cm³ @ Temp: 20 °C"
    }
}