{
    "cas_no": "2022-85-7",
    "key_name": "Flucytosine",
    "cn_name": "5-氟胞嘧啶;4-氨基-5-氟-2(1H)-嘧啶酮;",
    "alternate_name": "2(1<em>H</em>)-Pyrimidinone, 6-amino-5-fluoro-;2(1<em>H</em>)-Pyrimidinone, 4-amino-5-fluoro-;Cytosine, 5-fluoro-;6-Amino-5-fluoro-2(1<em>H</em>)-pyrimidinone;5-Fluorocytosine;Flucytosine;4-Amino-5-fluoropyrimidin-2(1<em>H</em>)-one;5-Fluorocytosin;Flucytosin;Ro 2-9915;Fluocytosine;Ancobon;Fluorocytosine;Ancotyl;Ancotil;6-Amino-2-oxo-5-fluoropyrimidine;Alcobon;NSC 103805;4-Amino-5-fluoropyrimidin-2-ol;Toca FC",
    "duplicated_cas_no": "",
    "SMILES": "NC1=C(F)C=NC(=O)N1",
    "meta_data": {
        "InChI": "InChI=1S/C4H4FN3O/c5-2-1-7-4(9)8-3(2)6/h1H,(H3,6,7,8,9)",
        "InChIKey": null,
        "Canonical SMILES": "O=C1N=CC(F)=C(N)N1",
        "Molecular Formula": "C<sub>4</sub>H<sub>4</sub>FN<sub>3</sub>O",
        "Molecular Mass": "129.09",
        "Melting Point": "295-297 °C (decomp)",
        "Density": "1.601 g/cm³ @ Temp: -123 °C"
    }
}