{
    "cas_no": "528-76-7",
    "key_name": "2,4-Dinitrobenzenesulfenyl chloride",
    "cn_name": "2,4一二硝基苯硫氯;",
    "alternate_name": "Benzenesulfenyl chloride, 2,4-dinitro-;2,4-Dinitrobenzenesulfenyl chloride;2,4-Dinitrophenylsulfenyl chloride;NSC 97092;1-(Chlorosulfanyl)-2,4-dinitrobenzene;(2,4-Dinitrophenyl) thiohypochlorite;[(2,4-Dinitrophenyl)sulfanyl]chlorane",
    "duplicated_cas_no": "",
    "SMILES": "N(=O)(=O)C1=C(SCl)C=CC(N(=O)=O)=C1",
    "meta_data": {
        "InChI": "InChI=1S/C6H3ClN2O4S/c7-14-6-2-1-4(8(10)11)3-5(6)9(12)13/h1-3H",
        "InChIKey": null,
        "Canonical SMILES": "O=N(=O)C1=CC=C(SCl)C(=C1)N(=O)=O",
        "Molecular Formula": "C<sub>6</sub>H<sub>3</sub>ClN<sub>2</sub>O<sub>4</sub>S",
        "Molecular Mass": "234.62",
        "Melting Point": "99 °C"
    }
}