{
    "cas_no": "19398-61-9",
    "key_name": "2,5-Dichlorotoluene",
    "cn_name": "2,5-二氯甲苯;1,4-二氯-2-甲苯;",
    "alternate_name": "Benzene, 1,4-dichloro-2-methyl-;Toluene, 2,5-dichloro-;1,4-Dichloro-2-methylbenzene;2,5-Dichlorotoluene;NSC 86117",
    "duplicated_cas_no": "",
    "SMILES": "CC1=C(Cl)C=CC(Cl)=C1",
    "meta_data": {
        "InChI": "InChI=1S/C7H6Cl2/c1-5-4-6(8)2-3-7(5)9/h2-4H,1H3",
        "InChIKey": null,
        "Canonical SMILES": "ClC1=CC=C(Cl)C(=C1)C",
        "Molecular Formula": "C<sub>7</sub>H<sub>6</sub>Cl<sub>2</sub>",
        "Molecular Mass": "161.03",
        "Boiling Point": "200 °C",
        "Melting Point": "5 °C"
    }
}