{
    "cas_no": "528-44-9",
    "key_name": "Trimellitic acid",
    "cn_name": "1,2,4-苯三甲酸;偏苯三甲酸;",
    "alternate_name": "1,2,4-Benzenetricarboxylic acid;1,2,4-Tricarboxybenzene;Trimellitic acid;1,4,5-Benzenetricarboxylic acid;1,3,4-Benzenetricarboxylic acid;4-Carboxyphthalic acid;NSC 72986;F-TMA;ETM;Trimellic acid;Benzene-1,2,5-tricarboxylic acid",
    "duplicated_cas_no": "",
    "SMILES": "C(O)(=O)C1=C(C(O)=O)C=CC(C(O)=O)=C1",
    "meta_data": {
        "InChI": "InChI=1S/C9H6O6/c10-7(11)4-1-2-5(8(12)13)6(3-4)9(14)15/h1-3H,(H,10,11)(H,12,13)(H,14,15)",
        "InChIKey": null,
        "Canonical SMILES": "O=C(O)C1=CC=C(C(=O)O)C(=C1)C(=O)O",
        "Molecular Formula": "C<sub>9</sub>H<sub>6</sub>O<sub>6</sub>",
        "Molecular Mass": "210.14",
        "Boiling Point": "200-220 °C @ Press: 12 Torr",
        "Melting Point": "219 °C",
        "Density": "0.317 g/cm³"
    }
}