{
    "cas_no": "614-83-5",
    "key_name": "<em>N</em>-(2-Bromo-4-methylphenyl)acetamide",
    "cn_name": "2-溴-4-甲基乙酰苯胺;",
    "alternate_name": "Acetamide, <em>N</em>-(2-bromo-4-methylphenyl)-;<em>p</em>-Acetotoluidide, 2′-bromo-;<em>N</em>-(2-Bromo-4-methylphenyl)acetamide;2′-Bromo-4′-methylacetanilide;4-Acetamido-3-bromotoluene;NSC 8063",
    "duplicated_cas_no": "",
    "SMILES": "N(C(C)=O)C1=C(Br)C=C(C)C=C1",
    "meta_data": {
        "InChI": "InChI=1S/C9H10BrNO/c1-6-3-4-9(8(10)5-6)11-7(2)12/h3-5H,1-2H3,(H,11,12)",
        "InChIKey": null,
        "Canonical SMILES": "O=C(NC1=CC=C(C=C1Br)C)C",
        "Molecular Formula": "C<sub>9</sub>H<sub>10</sub>BrNO",
        "Molecular Mass": "228.09",
        "Melting Point": "118 °C"
    }
}