{
    "cas_no": "99-36-5",
    "key_name": "Benzoic acid, 3-methyl-, methyl ester",
    "cn_name": "3-甲基苯甲酸甲酯;间甲基苯甲酸甲酯;",
    "alternate_name": "Benzoic acid, 3-methyl-, methyl ester;<em>m</em>-Toluic acid, methyl ester;Methyl <em>m</em>-toluate;Methyl 3-methylbenzoate;Methyl <em>m</em>-methylbenzoate;Methyl 3-toluate;NSC 20004;NSC 69227;3-Methylbenzoic acid methyl ester;Methyl 2-methyl-4-benzoate",
    "duplicated_cas_no": "",
    "SMILES": "C(OC)(=O)C1=CC(C)=CC=C1",
    "meta_data": {
        "InChI": "InChI=1S/C9H10O2/c1-7-4-3-5-8(6-7)9(10)11-2/h3-6H,1-2H3",
        "InChIKey": null,
        "Canonical SMILES": "O=C(OC)C1=CC=CC(=C1)C",
        "Molecular Formula": "C<sub>9</sub>H<sub>10</sub>O<sub>2</sub>",
        "Molecular Mass": "150.17",
        "Boiling Point": "221 °C",
        "Density": "1.0473 g/cm³ @ Temp: 40 °C"
    }
}