{
    "cas_no": "51-74-1",
    "key_name": "Histamine diphosphate",
    "cn_name": "组胺磷酸盐;磷酸组胺;",
    "alternate_name": "1<em>H</em>-Imidazole-4-ethanamine, phosphate (1:2);Histamine, phosphate (1:2);Histamine, diphosphate;4-(2-Aminoethyl)imidazole bis(dihydrogen phosphate);4-(2-Aminoethyl)imidazole di-acid phosphate;Histamine acid phosphate;Histamine phosphate;Histamine dihydrogen phosphate;Histamine biphosphate;Histapon;Histamine diphosphate;2-(1H-Imidazol-4-yl)ethanamine bis(phosphate)",
    "duplicated_cas_no": "74-56-6;53623-99-7",
    "SMILES": "P(=O)(O)(O)O.C(CN)C1=CN=CN1",
    "meta_data": {
        "InChI": "InChI=1S/C5H9N3.H3O4P/c6-2-1-5-3-7-4-8-5;1-5(2,3)4/h3-4H,1-2,6H2,(H,7,8);(H3,1,2,3,4)",
        "InChIKey": null,
        "Canonical SMILES": "O=P(O)(O)O.N1=CNC(=C1)CCN",
        "Molecular Formula": "C<sub>5</sub>H<sub>9</sub>N<sub>3</sub>.2H<sub>3</sub>O<sub>4</sub>P",
        "Molecular Mass": "",
        "Melting Point": "140 °C"
    }
}