{
    "cas_no": "7005-72-3",
    "key_name": "4-Chlorophenyl phenyl ether",
    "cn_name": "4-氯二苯醚;对氯二苯醚;",
    "alternate_name": "Benzene, 1-chloro-4-phenoxy-;Ether, <em>p</em>-chlorophenyl phenyl;1-Chloro-4-phenoxybenzene;<em>p</em>-Chlorodiphenyl oxide;<em>p</em>-Chlorophenyl phenyl ether;4-Chlorophenyl phenyl ether;4-Chlorodiphenyl ether;NSC 61839;PCDE 3;<em>p</em>-Phenoxychlorobenzene;CDE 3",
    "duplicated_cas_no": "",
    "SMILES": "O(C1=CC=C(Cl)C=C1)C2=CC=CC=C2",
    "meta_data": {
        "InChI": "InChI=1S/C12H9ClO/c13-10-6-8-12(9-7-10)14-11-4-2-1-3-5-11/h1-9H",
        "InChIKey": null,
        "Canonical SMILES": "ClC1=CC=C(OC=2C=CC=CC2)C=C1",
        "Molecular Formula": "C<sub>12</sub>H<sub>9</sub>ClO",
        "Molecular Mass": "204.65",
        "Boiling Point": "284.5 °C",
        "Melting Point": "-8 °C",
        "Density": "1.2026 g/cm³ @ Temp: 15 °C"
    }
}