{
    "cas_no": "18187-14-9",
    "key_name": "3-Aminopropyltrimethylsilane",
    "cn_name": null,
    "alternate_name": "1-Propanamine, 3-(trimethylsilyl)-;Propylamine, 3-(trimethylsilyl)-;3-(Trimethylsilyl)-1-propanamine;3-Aminopropyltrimethylsilane;1-Amino-3-(trimethylsilyl)propane",
    "duplicated_cas_no": "",
    "SMILES": "C([Si](C)(C)C)CCN",
    "meta_data": {
        "InChI": "InChI=1S/C6H17NSi/c1-8(2,3)6-4-5-7/h4-7H2,1-3H3",
        "InChIKey": null,
        "Canonical SMILES": "NCCC[Si](C)(C)C",
        "Molecular Formula": "C<sub>6</sub>H<sub>17</sub>NSi",
        "Molecular Mass": "131.29",
        "Boiling Point": "58 °C @ Press: 30 Torr",
        "Density": "0.7831 g/cm³"
    }
}