{
    "cas_no": "56-69-9",
    "key_name": "(±)-5-Hydroxytryptophan",
    "cn_name": "5-羟基色氨酸;DL-2-氨基-3-(5-羟基吲哚)丙酸;",
    "alternate_name": "Tryptophan, 5-hydroxy-;5-Hydroxytryptophan;5-Hydroxytryptophane;5-HTP;(±)-5-Hydroxytryptophan;5-Hydroxy-<span class=\"text-smallcaps\">DL</span>-tryptophan;<span class=\"text-smallcaps\">DL</span>-Hydroxytryptophan;<span class=\"text-smallcaps\">DL</span>-5-HTP;<span class=\"text-smallcaps\">DL</span>-5-Hydroxytryptophan;NSC 92523;2-Amino-3-(5-hydroxy-1<em>H</em>-indol-3-yl)propanoic acid;2-Amino-3-(5-hydroxy-1<em>H</em>-indol-3-yl)propanoicacid",
    "duplicated_cas_no": "114-03-4;4298-20-8;72572-97-5;72572-98-6",
    "SMILES": "C(C(C(O)=O)N)C=1C=2C(NC1)=CC=C(O)C2",
    "meta_data": {
        "InChI": "InChI=1S/C11H12N2O3/c12-9(11(15)16)3-6-5-13-10-2-1-7(14)4-8(6)10/h1-2,4-5,9,13-14H,3,12H2,(H,15,16)",
        "InChIKey": null,
        "Canonical SMILES": "O=C(O)C(N)CC1=CNC=2C=CC(O)=CC21",
        "Molecular Formula": "C<sub>11</sub>H<sub>12</sub>N<sub>2</sub>O<sub>3</sub>",
        "Molecular Mass": "220.22",
        "Melting Point": "298 °C (decomp)"
    }
}