{
    "cas_no": "40834-42-2",
    "key_name": "5-Hydroxy-4-methyl-2(5<em>H</em>)-furanone",
    "cn_name": null,
    "alternate_name": "2(5<em>H</em>)-Furanone, 5-hydroxy-4-methyl-;5-Hydroxy-4-methyl-2(5<em>H</em>)-furanone;4-Hydroxy-3-methylbut-2-en-4-olide;4-Methyl-5-hydroxy-2(5<em>H</em>)-furanone;5-Hydroxy-4-methyl-5<em>H</em>-furan-2-one;γ-Hydroxy-β-methylbutenolide;2-Hydroxy-3-methyl-2<em>H</em>-furan-5-one",
    "duplicated_cas_no": "78646-59-0",
    "SMILES": "CC=1C(O)OC(=O)C1",
    "meta_data": {
        "InChI": "InChI=1S/C5H6O3/c1-3-2-4(6)8-5(3)7/h2,5,7H,1H3",
        "InChIKey": null,
        "Canonical SMILES": "O=C1OC(O)C(=C1)C",
        "Molecular Formula": "C<sub>5</sub>H<sub>6</sub>O<sub>3</sub>",
        "Molecular Mass": "114.10",
        "Boiling Point": "113 °C @ Press: 0.05 Torr"
    }
}