{
    "cas_no": "849832-73-1",
    "key_name": "2,2,2-Trifluoroacetic acid (2<em>Z</em>)-2-(2-piperazinylidene)hydrazide",
    "cn_name": null,
    "alternate_name": "Acetic acid, 2,2,2-trifluoro-, (2<em>Z</em>)-2-(2-piperazinylidene)hydrazide;Acetic acid, trifluoro-, (2<em>Z</em>)-2-(2-piperazinylidene)hydrazide;2,2,2-Trifluoroacetic acid (2<em>Z</em>)-2-(2-piperazinylidene)hydrazide;<em>N</em>′-[(2Z)-Piperazin-2-ylidene]trifluoroacetohydrazide;<em>N</em>-[(2<em>Z</em>)-Piperazin-2-ylidene]-2,2,2-trifluoroacetohydrazide;2,2,2-Trifluoro-<em>N</em>′-(1,2,3,6-tetrahydropyrazin-5-yl)acetohydrazide",
    "duplicated_cas_no": "763105-70-0;767352-23-8;823817-54-5",
    "SMILES": "N(\\NC(C(F)(F)F)=O)=C\\1/CNCCN1",
    "meta_data": {
        "InChI": "InChI=1S/C6H9F3N4O/c7-6(8,9)5(14)13-12-4-3-10-1-2-11-4/h10H,1-3H2,(H,11,12)(H,13,14)",
        "InChIKey": null,
        "Canonical SMILES": "O=C(NN=C1NCCNC1)C(F)(F)F",
        "Molecular Formula": "C<sub>6</sub>H<sub>9</sub>F<sub>3</sub>N<sub>4</sub>O",
        "Molecular Mass": "210.16",
        "Melting Point": "141 °C (decomp)"
    }
}