{
    "cas_no": "1501-05-9",
    "key_name": "δ-Oxobenzenepentanoic acid",
    "cn_name": "4-苯甲酰基丁酸 [1501-05-9];",
    "alternate_name": "Benzenepentanoic acid, δ-oxo-;Butyric acid, 4-benzoyl-;δ-Oxobenzenepentanoic acid;4-Benzoylbutyric acid;γ-Benzoylbutyric acid;5-Oxo-5-phenylpentanoic acid;5-Phenyl-5-oxopentanoic acid;5-Oxo-5-phenylvaleric acid;4-Benzoylbutanoic acid;5-Phenyl-5-oxovaleric acid;NSC 10139",
    "duplicated_cas_no": "",
    "SMILES": "C(CCCC(O)=O)(=O)C1=CC=CC=C1",
    "meta_data": {
        "InChI": "InChI=1S/C11H12O3/c12-10(7-4-8-11(13)14)9-5-2-1-3-6-9/h1-3,5-6H,4,7-8H2,(H,13,14)",
        "InChIKey": null,
        "Canonical SMILES": "O=C(O)CCCC(=O)C=1C=CC=CC1",
        "Molecular Formula": "C<sub>11</sub>H<sub>12</sub>O<sub>3</sub>",
        "Molecular Mass": "192.21",
        "Melting Point": "126.5-128 °C"
    }
}