{
    "cas_no": "66521-54-8",
    "key_name": "3-Dimethylamino-1-(2-pyridyl)prop-2-en-1-one",
    "cn_name": null,
    "alternate_name": "2-Propen-1-one, 3-(dimethylamino)-1-(2-pyridinyl)-;3-(Dimethylamino)-1-(2-pyridinyl)-2-propen-1-one;1-(2-Pyridyl)-3-dimethylamino-2-propen-1-one;3-Dimethylamino-1-pyridin-2-ylpropenone;3-Dimethylamino-1-(2-pyridyl)prop-2-en-1-one;2-(3-(Dimethylamino)-1-oxoprop-2-en-1-yl)pyridine",
    "duplicated_cas_no": "",
    "SMILES": "C(C=CN(C)C)(=O)C1=CC=CC=N1",
    "meta_data": {
        "InChI": "InChI=1S/C10H12N2O/c1-12(2)8-6-10(13)9-5-3-4-7-11-9/h3-8H,1-2H3",
        "InChIKey": null,
        "Canonical SMILES": "O=C(C=CN(C)C)C1=NC=CC=C1",
        "Molecular Formula": "C<sub>10</sub>H<sub>12</sub>N<sub>2</sub>O",
        "Molecular Mass": "176.22",
        "Melting Point": "135 °C"
    }
}