{
    "cas_no": "128-20-1",
    "key_name": "Pregnanolone",
    "cn_name": "孕烷醇酮;",
    "alternate_name": "Pregnan-20-one, 3-hydroxy-, (3α,5β)-;5β-Pregnan-20-one, 3α-hydroxy-;(3α,5β)-3-Hydroxypregnan-20-one;3α-Hydroxy-5β-pregnan-20-one;3α-Hydroxy-5β-tetrahydroprogesterone;Pregnan-3α-ol-20-one;5β-Pregnan-3α-ol-20-one;Pregnanolone;SKF 6455;3α-Hydroxy-20-oxo-5β-pregnane;3α-Hydroxy-5β,17β-pregnan-20-one;5β-Pregnane-3α-ol-20-one;Pregnanolone II;3α,5β-Pregnanolone;U 2340;Eltanolone;KABI 2213;3-Deoxo-3α-hydroxy-5β-dihydroprogesterone;3α,5β-Tetrahydroprogesterone;NSC 82867;MeSH ID: D011280",
    "duplicated_cas_no": "",
    "SMILES": "C[C@@]12[C@@]3([C@]([C@]4([C@](C)(CC3)[C@@H](C(C)=O)CC4)[H])(CC[C@@]1(C[C@H](O)CC2)[H])[H])[H]",
    "meta_data": {
        "InChI": "InChI=1S/C21H34O2/c1-13(22)17-6-7-18-16-5-4-14-12-15(23)8-10-20(14,2)19(16)9-11-21(17,18)3/h14-19,23H,4-12H2,1-3H3/t14-,15-,16+,17-,18+,19+,20+,21-/m1/s1",
        "InChIKey": null,
        "Canonical SMILES": "O=C(C)C1CCC2C3CCC4CC(O)CCC4(C)C3CCC12C",
        "Molecular Formula": "C<sub>21</sub>H<sub>34</sub>O<sub>2</sub>",
        "Molecular Mass": "318.49",
        "Melting Point": "149.5 °C"
    }
}