{
    "cas_no": "7778-50-9",
    "key_name": "Potassium dichromate",
    "cn_name": "重铬酸钾;红矾钾;",
    "alternate_name": "Chromic acid (H<sub>2</sub>Cr<sub>2</sub>O<sub>7</sub>), potassium salt (1:2);Dichromic acid (H<sub>2</sub>Cr<sub>2</sub>O<sub>7</sub>), dipotassium salt;Chromic acid (H<sub>2</sub>Cr<sub>2</sub>O<sub>7</sub>), dipotassium salt;Potassium dichromate;Potassium bichromate;Potassium dichromate (K<sub>2</sub>(Cr<sub>2</sub>O<sub>7</sub>));Dichromic acid dipotassium salt;Dipotassium dichromate;Dipotassium dichromate (K<sub>2</sub>Cr<sub>2</sub>O<sub>7</sub>);Potassium dichromate(VI);Dipotassium bichromate;Dipotassium bichromate (K<sub>2</sub>Cr<sub>2</sub>O<sub>7</sub>);Chromium potassium oxide (K<sub>2</sub>Cr<sub>2</sub>O<sub>7</sub>);SRM 935a;Dipotassium dichromium heptaoxide;C 501;MeSH ID: D011192",
    "duplicated_cas_no": "",
    "SMILES": "O([Cr](O)(=O)=O)[Cr](O)(=O)=O.[K]",
    "meta_data": {
        "InChI": "InChI=1S/2Cr.2K.2H2O.5O/h;;;;2*1H2;;;;;/q2*+1;;;;;;;;;/p-2",
        "InChIKey": null,
        "Canonical SMILES": "[K].O=[Cr](=O)(O)O[Cr](=O)(=O)O",
        "Molecular Formula": "Cr<sub>2</sub>H<sub>2</sub>O<sub>7</sub>.2K",
        "Molecular Mass": "",
        "Melting Point": "398 °C",
        "Density": "2.676 g/cm³ @ Temp: 25 °C"
    }
}