{
    "cas_no": "2631-72-3",
    "key_name": "2,4-Dichlorophenacyl bromide",
    "cn_name": "2-溴-2\",4\"-二氯苯乙酮;",
    "alternate_name": "Ethanone, 2-bromo-1-(2,4-dichlorophenyl)-;Acetophenone, 2-bromo-2′,4′-dichloro-;2-Bromo-1-(2,4-dichlorophenyl)ethanone;2-Bromo-2′,4′-dichloroacetophenone;2,4-Dichlorophenacyl bromide;ω-Bromo-2,4-dichloroacetophenone;2′,4′-Dichloro-2-bromoacetophenone;α-Bromo-2,4-dichloroacetophenone;2-Bromo-1-(2,4-dichlorophenyl)ethan-1-one;2,4-Dichlorophenyl bromomethyl ketone;Bromomethyl 2,4-dichlorophenyl ketone;α-Bromo-2′,4′-dichloroacetophenone",
    "duplicated_cas_no": "",
    "SMILES": "C(CBr)(=O)C1=C(Cl)C=C(Cl)C=C1",
    "meta_data": {
        "InChI": "InChI=1S/C8H5BrCl2O/c9-4-8(12)6-2-1-5(10)3-7(6)11/h1-3H,4H2",
        "InChIKey": null,
        "Canonical SMILES": "O=C(C1=CC=C(Cl)C=C1Cl)CBr",
        "Molecular Formula": "C<sub>8</sub>H<sub>5</sub>BrCl<sub>2</sub>O",
        "Molecular Mass": "267.93",
        "Boiling Point": "103-106 °C @ Press: 0.4 Torr",
        "Melting Point": "30-32 °C"
    }
}