{
    "cas_no": "126-81-8",
    "key_name": "Dimedone",
    "cn_name": "双甲酮;双美酮;5,5-二甲基-1,3-环己二酮;5,5-二甲基环己烷-1,3-二酮;",
    "alternate_name": "1,3-Cyclohexanedione, 5,5-dimethyl-;5,5-Dimethyl-1,3-cyclohexanedione;Cyclomethone;Dimedon;Dimedone;1,1-Dimethyl-3,5-cyclohexanedione;5,5-Dimethyldihydroresorcinol;1,1-Dimethyl-3,5-diketocyclohexane;Medon;Methone;Lu 274;5,5-Dimethylhydroresorcinol;Methon;NSC 14984;NSC 17544;NSC 242994;NSC 43759;5,5-Dimethyl-1,3-cyclohexandione;5,5-Dimethyl-1,3-dioxocyclohexane",
    "duplicated_cas_no": "",
    "SMILES": "CC1(C)CC(=O)CC(=O)C1",
    "meta_data": {
        "InChI": "InChI=1S/C8H12O2/c1-8(2)4-6(9)3-7(10)5-8/h3-5H2,1-2H3",
        "InChIKey": null,
        "Canonical SMILES": "O=C1CC(=O)CC(C)(C)C1",
        "Molecular Formula": "C<sub>8</sub>H<sub>12</sub>O<sub>2</sub>",
        "Molecular Mass": "140.18",
        "Melting Point": "150 °C (decomp)"
    }
}