{
    "cas_no": "3443-45-6",
    "key_name": "1-Pyrenebutanoic acid",
    "cn_name": "1-芘丁酸;",
    "alternate_name": "1-Pyrenebutanoic acid;1-Pyrenebutyric acid;γ-(3-Pyrenyl)butyric acid;Pyrene-3-butyric acid;1-Pyrenylbutyric acid;4-(1-Pyrenyl)butyric acid;4-(1-Pyrene)butyric acid;4-(1-Pyrenyl)butanoic acid;4-(1-Pyrene)butanoic acid;NSC 30833",
    "duplicated_cas_no": "1263096-99-6",
    "SMILES": "C(CCC(O)=O)C1=C2C3=C4C(C=C2)=CC=CC4=CC=C3C=C1",
    "meta_data": {
        "InChI": "InChI=1S/C20H16O2/c21-18(22)6-2-3-13-7-8-16-10-9-14-4-1-5-15-11-12-17(13)20(16)19(14)15/h1,4-5,7-12H,2-3,6H2,(H,21,22)",
        "InChIKey": null,
        "Canonical SMILES": "O=C(O)CCCC1=CC=C2C=CC3=CC=CC=4C=CC1=C2C34",
        "Molecular Formula": "C<sub>20</sub>H<sub>16</sub>O<sub>2</sub>",
        "Molecular Mass": "288.34",
        "Melting Point": "185-186 °C"
    }
}