{
    "cas_no": "454-82-0",
    "key_name": "2-Amino-5-(trifluoromethyl)phenol",
    "cn_name": null,
    "alternate_name": "Phenol, 2-amino-5-(trifluoromethyl)-;<em>m</em>-Cresol, 6-amino-α,α,α-trifluoro-;2-Amino-5-(trifluoromethyl)phenol;2-Hydroxy-4-(trifluoromethyl)aniline",
    "duplicated_cas_no": "",
    "SMILES": "C(F)(F)(F)C1=CC(O)=C(N)C=C1",
    "meta_data": {
        "InChI": "InChI=1S/C7H6F3NO/c8-7(9,10)4-1-2-5(11)6(12)3-4/h1-3,12H,11H2",
        "InChIKey": null,
        "Canonical SMILES": "FC(F)(F)C1=CC=C(N)C(O)=C1",
        "Molecular Formula": "C<sub>7</sub>H<sub>6</sub>F<sub>3</sub>NO",
        "Molecular Mass": "177.12",
        "Melting Point": "114-115 °C"
    }
}