{
    "cas_no": "109-67-1",
    "key_name": "1-Pentene",
    "cn_name": "1-戊烯;",
    "alternate_name": "1-Pentene;α-<em>n</em>-Amylene;Propylethylene;1-Methyl-3-butene;4-Methyl-1-butene",
    "duplicated_cas_no": "33004-03-4",
    "SMILES": "C(CC)C=C",
    "meta_data": {
        "InChI": "InChI=1S/C5H10/c1-3-5-4-2/h3H,1,4-5H2,2H3",
        "InChIKey": null,
        "Canonical SMILES": "C=CCCC",
        "Molecular Formula": "C<sub>5</sub>H<sub>10</sub>",
        "Molecular Mass": "70.13",
        "Boiling Point": "29.9 °C",
        "Melting Point": "-165.2 °C",
        "Density": "0.6405 g/cm³ @ Temp: 20 °C"
    }
}