{
    "cas_no": "33332-29-5",
    "key_name": "5-Chloro-2-pyrazinamine",
    "cn_name": "2-氨基-5-氯吡嗪;",
    "alternate_name": "2-Pyrazinamine, 5-chloro-;Pyrazine, 2-amino-5-chloro-;Pyrazinamine, 5-chloro-;5-Chloro-2-pyrazinamine;2-Amino-5-chloropyrazine;5-Amino-2-chloropyrazine;2-Chloro-5-aminopyrazine;5-Chloro-2-aminopyrazine;(5-Chloropyrazin-2-yl)amine",
    "duplicated_cas_no": "",
    "SMILES": "ClC=1C=NC(N)=CN1",
    "meta_data": {
        "InChI": "InChI=1S/C4H4ClN3/c5-3-1-8-4(6)2-7-3/h1-2H,(H2,6,8)",
        "InChIKey": null,
        "Canonical SMILES": "ClC1=NC=C(N=C1)N",
        "Molecular Formula": "C<sub>4</sub>H<sub>4</sub>ClN<sub>3</sub>",
        "Molecular Mass": "129.55",
        "Melting Point": "132-134 °C"
    }
}