{
    "cas_no": "110-13-4",
    "key_name": "2,5-Hexanedione",
    "cn_name": "2,5-己二酮;",
    "alternate_name": "2,5-Hexanedione;α,β-Diacetylethane;1,2-Diacetylethane;Acetonylacetone;Diacetonyl;2,5-Dioxohexane;2,5-Diketohexane;NSC 7621;4-Acetyl-2-butanone",
    "duplicated_cas_no": "",
    "SMILES": "C(CC(C)=O)C(C)=O",
    "meta_data": {
        "InChI": "InChI=1S/C6H10O2/c1-5(7)3-4-6(2)8/h3-4H2,1-2H3",
        "InChIKey": null,
        "Canonical SMILES": "O=C(C)CCC(=O)C",
        "Molecular Formula": "C<sub>6</sub>H<sub>10</sub>O<sub>2</sub>",
        "Molecular Mass": "114.14",
        "Boiling Point": "194 °C",
        "Melting Point": "-5.5 °C",
        "Density": "0.971 g/cm³ @ Temp: 20 °C"
    }
}