{
    "cas_no": "25014-31-7",
    "key_name": "Poly(α-methylstyrene)",
    "cn_name": null,
    "alternate_name": "Benzene, (1-methylethenyl)-, homopolymer;Styrene, α-methyl-, polymers;Styrene, α-methyl-, homopolymer;Poly(α-methylstyrene);276V2;α-Methylstyrene polymer;α-Methylstyrene oligomer;Amoco 18-240;AMS 10;Amoco AMS 10;Dow 276V2;Amoco 18;Piccolastic E 50;Amoco 18-290;Amoco 18-210;DR 276;Escorez 1402;α-Methylstyrene homopolymer;HS 400;Amoflow 18-240;Tacolyn 1070;Norsolene W 110;FTR 0140;F 100;ATL 95;AMS 10 (polymer);Poly-alpha-methylstyrene;AMS 130;V 276;Norsolene W 80;AMS;1-(Methylethenyl)benzene homopolymer;PAMS 100;AMS 85;AMS 100;AMS 120;WL 20;Cleartack W 100;Norsolene W 100;W 100",
    "duplicated_cas_no": "42612-14-6;165169-27-7;848415-75-8;1401322-68-6;1892583-04-8",
    "SMILES": "C(C)(=C)C1=CC=CC=C1",
    "meta_data": {
        "InChI": "InChI=1S/C9H10/c1-8(2)9-6-4-3-5-7-9/h3-7H,1H2,2H3",
        "InChIKey": null,
        "Canonical SMILES": "C=C(C=1C=CC=CC1)C",
        "Molecular Formula": "(C<sub>9</sub>H<sub>10</sub>)<sub>x</sub>",
        "Molecular Mass": "",
        "Melting Point": "185-215 °C",
        "Density": "0.28 g/cm³"
    }
}