{
    "cas_no": "71422-67-8",
    "key_name": "Chlorfluazuron",
    "cn_name": "氟啶脲;1-[3,5-二氯-4-(3-氯-5-三氟甲基-2-吡啶氧基)苯基]-3-(2,6-二氟苯甲酰基)脲;",
    "alternate_name": "Benzamide, <em>N</em>-[[[3,5-dichloro-4-[[3-chloro-5-(trifluoromethyl)-2-pyridinyl]oxy]phenyl]amino]carbonyl]-2,6-difluoro-;<em>N</em>-[[[3,5-Dichloro-4-[[3-chloro-5-(trifluoromethyl)-2-pyridinyl]oxy]phenyl]amino]carbonyl]-2,6-difluorobenzamide;UC 62644;CGA 112913;PP 145;IKI 7899;Chlorfluazuron;Atabron;AI 3-29785;Jupiter (pesticide);Jupiter;Aim;Aim (insecticide);PP 145 (insecticide);<em>N</em>-(2,6-Difluorobenzoyl)-<em>N</em>′-[3,5-dichloro-4-(3-chloro-5-trifluoromethyl-2-pyridyloxy)phenyl]urea",
    "duplicated_cas_no": "116133-95-0;81210-22-2",
    "SMILES": "O(C1=C(Cl)C=C(NC(NC(=O)C2=C(F)C=CC=C2F)=O)C=C1Cl)C3=C(Cl)C=C(C(F)(F)F)C=N3",
    "meta_data": {
        "InChI": "InChI=1S/C20H9Cl3F5N3O3/c21-10-5-9(30-19(33)31-17(32)15-13(24)2-1-3-14(15)25)6-11(22)16(10)34-18-12(23)4-8(7-29-18)20(26,27)28/h1-7H,(H2,30,31,32,33)",
        "InChIKey": null,
        "Canonical SMILES": "O=C(NC(=O)C=1C(F)=CC=CC1F)NC2=CC(Cl)=C(OC3=NC=C(C=C3Cl)C(F)(F)F)C(Cl)=C2",
        "Molecular Formula": "C<sub>20</sub>H<sub>9</sub>Cl<sub>3</sub>F<sub>5</sub>N<sub>3</sub>O<sub>3</sub>",
        "Molecular Mass": "540.65",
        "Melting Point": "226.5 °C (decomp)"
    }
}