{
    "cas_no": "17768-41-1",
    "key_name": "Tricyclo[3.3.1.1<sup>3,7</sup>]decane-1-methanamine",
    "cn_name": "1-金刚烷甲胺;1-氨甲基金刚烷;",
    "alternate_name": "Tricyclo[3.3.1.1<sup>3,7</sup>]decane-1-methanamine;1-Adamantanemethylamine;1-(Aminomethyl)adamantane;1-Adamantylmethylamine;1-Adamantylmethanamine;MRZ 2/16;IEM 1618;NSC 285231;[(Adamantan-1-yl)methyl]amine;1-(1-Adamantyl)methanamine;Adamantylmethylamine;(Adamantan-1-yl)methanamine;Adamantylmethyleneamine",
    "duplicated_cas_no": "",
    "SMILES": "C(N)C12CC3CC(C1)CC(C2)C3",
    "meta_data": {
        "InChI": "InChI=1S/C11H19N/c12-7-11-4-8-1-9(5-11)3-10(2-8)6-11/h8-10H,1-7,12H2",
        "InChIKey": null,
        "Canonical SMILES": "NCC12CC3CC(CC(C3)C1)C2",
        "Molecular Formula": "C<sub>11</sub>H<sub>19</sub>N",
        "Molecular Mass": "165.28",
        "Boiling Point": "83-85 °C @ Press: 3 Torr",
        "Melting Point": "325 °C",
        "Density": "0.933 g/cm³"
    }
}