{
    "cas_no": "5582-62-7",
    "key_name": "Trimethyl(2-propyn-1-yloxy)silane",
    "cn_name": "三甲基-2-丙炔氧基硅烷;",
    "alternate_name": "Silane, trimethyl(2-propyn-1-yloxy)-;Silane, trimethyl(2-propynyloxy)-;Trimethyl(2-propyn-1-yloxy)silane;Propargyl trimethylsilyl ether;1-(Trimethylsiloxy)-2-propyne;Trimethyl(propargyloxy)silane;3-(Trimethylsilyloxy)propyne;Trimethyl(2-propynyloxy)silane;3-(Trimethylsiloxy)-1-propyne;<em>O</em>-(Trimethylsilyl)propargyl alcohol;Propargyloxytrimethylsilane;(2-Propynyloxy)trimethylsilane;3-(Trimethylsilyloxy)-1-propyne",
    "duplicated_cas_no": "",
    "SMILES": "O([Si](C)(C)C)CC#C",
    "meta_data": {
        "InChI": "InChI=1S/C6H12OSi/c1-5-6-7-8(2,3)4/h1H,6H2,2-4H3",
        "InChIKey": null,
        "Canonical SMILES": "C#CCO[Si](C)(C)C",
        "Molecular Formula": "C<sub>6</sub>H<sub>12</sub>OSi",
        "Molecular Mass": "128.24",
        "Boiling Point": "110-111 °C",
        "Density": "0.833 g/cm³"
    }
}