{
    "cas_no": "7418-65-7",
    "key_name": "4-Aminonicotinic acid",
    "cn_name": "4-氨基烟酸;4-氨基吡啶-3-羧酸;",
    "alternate_name": "3-Pyridinecarboxylic acid, 4-amino-;Nicotinic acid, 4-amino-;4-Amino-3-pyridinecarboxylic acid;4-Aminonicotinic acid;4-Aminopyridine-3-carboxylic acid;NSC 266130",
    "duplicated_cas_no": "",
    "SMILES": "C(O)(=O)C=1C(N)=CC=NC1",
    "meta_data": {
        "InChI": "InChI=1S/C6H6N2O2/c7-5-1-2-8-3-4(5)6(9)10/h1-3H,(H2,7,8)(H,9,10)",
        "InChIKey": null,
        "Canonical SMILES": "O=C(O)C=1C=NC=CC1N",
        "Molecular Formula": "C<sub>6</sub>H<sub>6</sub>N<sub>2</sub>O<sub>2</sub>",
        "Molecular Mass": "138.12",
        "Melting Point": "328 °C (decomp)"
    }
}