{
    "cas_no": "279-49-2",
    "key_name": "7-Oxabicyclo[2.2.1]heptane",
    "cn_name": "7-杂氧二环(2.2.1)庚烷;",
    "alternate_name": "7-Oxabicyclo[2.2.1]heptane;3,6-Endoxocyclohexane;Cyclohexane, 1,4-epoxy-;Cyclohexane, 3,6-endoxo-;1,4-Epoxycyclohexane;3,6-Endooxycyclohexane;7-Oxanorbornane;1,4-Oxycyclohexane;NSC 54357",
    "duplicated_cas_no": "",
    "SMILES": "C12OC(CC1)CC2",
    "meta_data": {
        "InChI": "InChI=1S/C6H10O/c1-2-6-4-3-5(1)7-6/h5-6H,1-4H2",
        "InChIKey": null,
        "Canonical SMILES": "O1C2CCC1CC2",
        "Molecular Formula": "C<sub>6</sub>H<sub>10</sub>O",
        "Molecular Mass": "98.14",
        "Boiling Point": "120.1 °C @ Press: 760 Torr",
        "Density": "0.9707 g/cm³ @ Temp: 20 °C"
    }
}