{
    "cas_no": "52010-22-7",
    "key_name": "4-Chlorophthalide",
    "cn_name": null,
    "alternate_name": "1(3<em>H</em>)-Isobenzofuranone, 4-chloro-;Phthalide, 4-chloro-;4-Chloro-1(3<em>H</em>)-isobenzofuranone;4-Chlorophthalide;4-Chloroisobenzofuran-1(3<em>H</em>)-one",
    "duplicated_cas_no": "",
    "SMILES": "ClC1=C2C(C(=O)OC2)=CC=C1",
    "meta_data": {
        "InChI": "InChI=1S/C8H5ClO2/c9-7-3-1-2-5-6(7)4-11-8(5)10/h1-3H,4H2",
        "InChIKey": null,
        "Canonical SMILES": "O=C1OCC=2C(Cl)=CC=CC12",
        "Molecular Formula": "C<sub>8</sub>H<sub>5</sub>ClO<sub>2</sub>",
        "Molecular Mass": "168.58",
        "Melting Point": "86-87 °C"
    }
}