{
    "cas_no": "613-90-1",
    "key_name": "Benzoyl cyanide",
    "cn_name": "苯甲酰腈;",
    "alternate_name": "Benzeneacetonitrile, α-oxo-;Glyoxylonitrile, phenyl-;α-Oxobenzeneacetonitrile;Benzoyl cyanide;Benzoyl nitrile;Phenylglyoxylonitrile;Phenylglyoxalic acid nitrile;Phenyl glyoxonitrile;NSC 120506;NSC 401920;2-(Oxo)-2-(phenyl)acetonitrile",
    "duplicated_cas_no": "",
    "SMILES": "C(C#N)(=O)C1=CC=CC=C1",
    "meta_data": {
        "InChI": "InChI=1S/C8H5NO/c9-6-8(10)7-4-2-1-3-5-7/h1-5H",
        "InChIKey": null,
        "Canonical SMILES": "N#CC(=O)C=1C=CC=CC1",
        "Molecular Formula": "C<sub>8</sub>H<sub>5</sub>NO",
        "Molecular Mass": "131.13",
        "Boiling Point": "206 °C",
        "Melting Point": "32.5 °C"
    }
}