{
    "cas_no": "17887-60-4",
    "key_name": "Silanol, 1,1-dimethyl-1-phenyl-, 1-acetate",
    "cn_name": "二甲苯乙酸硅;",
    "alternate_name": "Silanol, 1,1-dimethyl-1-phenyl-, 1-acetate;Silanol, dimethylphenyl-, acetate;Dimethylphenylacetoxysilane;Dimethylphenylsilyl acetate;Phenyldimethylacetoxysilane",
    "duplicated_cas_no": "",
    "SMILES": "[Si](OC(C)=O)(C)(C)C1=CC=CC=C1",
    "meta_data": {
        "InChI": "InChI=1S/C10H14O2Si/c1-9(11)12-13(2,3)10-7-5-4-6-8-10/h4-8H,1-3H3",
        "InChIKey": null,
        "Canonical SMILES": "O=C(O[Si](C=1C=CC=CC1)(C)C)C",
        "Molecular Formula": "C<sub>10</sub>H<sub>14</sub>O<sub>2</sub>Si",
        "Molecular Mass": "194.30",
        "Boiling Point": "127-129 °C @ Press: 44 Torr",
        "Density": "1.006 g/cm³"
    }
}