{
    "cas_no": "12061-16-4",
    "key_name": "Erbia",
    "cn_name": "氧化铒;",
    "alternate_name": "Erbium oxide (Er<sub>2</sub>O<sub>3</sub>);Erbium sesquioxide;Dierbium trioxide;Erbium(3+) oxide;Erbium trioxide;Erbium(III) oxide;Erbia;Erbium oxide (ErO<sub>1.5</sub>);Erbium oxide;Erbium sesquioxide (Er<sub>2</sub>O<sub>3</sub>);2330RE",
    "duplicated_cas_no": "1400873-01-9",
    "SMILES": "",
    "meta_data": {
        "InChI": "",
        "InChIKey": null,
        "Canonical SMILES": "",
        "Molecular Formula": "Er<sub>2</sub>O<sub>3</sub>",
        "Molecular Mass": "",
        "Melting Point": "2430 °C",
        "Density": "6.28729 g/cm³"
    }
}