{
    "uri": "substance/pt/12061164",
    "rn": "12061-16-4",
    "name": "Erbia",
    "images": [],
    "inchi": "",
    "inchiKey": "",
    "smile": "",
    "canonicalSmile": "",
    "molecularFormula": "Er<sub>2</sub>O<sub>3</sub>",
    "molecularMass": "",
    "experimentalProperties": [
        {
            "name": "Melting Point",
            "property": "2430 °C",
            "sourceNumber": 1
        },
        {
            "name": "Density",
            "property": "6.28729 g/cm³",
            "sourceNumber": 2
        }
    ],
    "propertyCitations": [
        {
            "docUri": "document/pt/document/5754564",
            "sourceNumber": 1,
            "source": "Neuman, A. D.; Ceramic Engineering and Science Proceedings, (1998), 19(4), 423-429, CAplus"
        },
        {
            "docUri": "document/pt/document/46518356",
            "sourceNumber": 2,
            "source": "Eid, Ahmed M.; Journal of Materials Research, (2016), 31(4), 495-505, CAplus"
        }
    ],
    "synonyms": [
        "Erbium oxide (Er<sub>2</sub>O<sub>3</sub>)",
        "Erbium sesquioxide",
        "Dierbium trioxide",
        "Erbium(3+) oxide",
        "Erbium trioxide",
        "Erbium(III) oxide",
        "Erbia",
        "Erbium oxide (ErO<sub>1.5</sub>)",
        "Erbium oxide",
        "Erbium sesquioxide (Er<sub>2</sub>O<sub>3</sub>)",
        "2330RE"
    ],
    "replacedRns": [
        "1400873-01-9"
    ],
    "hasMolfile": false,
    "source": "https://commonchemistry.cas.org/detail?cas_rn=12061-16-4"
}