{
    "cas_no": "101-39-3",
    "key_name": "α-Methylcinnamaldehyde",
    "cn_name": "alpha-甲基肉桂醛;",
    "alternate_name": "2-Propenal, 2-methyl-3-phenyl-;Cinnamaldehyde, α-methyl-;2-Methyl-3-phenyl-2-propenal;α-Methylcinnamaldehyde;α-Methylcinnamic aldehyde;2-Methyl-3-phenylacrolein;2-Methyl-3-phenylacrylaldehyde;NSC 22283;NSC 49286;2-Methylcinnamic aldehyde;2-Methyl-3-phenylpropenal;Methylcinnamaldehyde;2-Methyl-3-phenyl-2-propen-1-al",
    "duplicated_cas_no": "",
    "SMILES": "C(=C(C=O)C)C1=CC=CC=C1",
    "meta_data": {
        "InChI": "InChI=1S/C10H10O/c1-9(8-11)7-10-5-3-2-4-6-10/h2-8H,1H3",
        "InChIKey": null,
        "Canonical SMILES": "O=CC(=CC=1C=CC=CC1)C",
        "Molecular Formula": "C<sub>10</sub>H<sub>10</sub>O",
        "Molecular Mass": "146.19",
        "Boiling Point": "251.6 °C",
        "Density": "1.0538 g/cm³ @ Temp: 20 °C"
    }
}