{
    "cas_no": "223668-68-6",
    "key_name": "1,1′-(Dimethoxysilylene)bis[2,3,4,5,6-pentafluorobenzene]",
    "cn_name": null,
    "alternate_name": "Benzene, 1,1′-(dimethoxysilylene)bis[2,3,4,5,6-pentafluoro-;Silane, dimethoxybis(pentafluorophenyl)-;1,1′-(Dimethoxysilylene)bis[2,3,4,5,6-pentafluorobenzene];Bis(pentafluorophenyl)dimethoxysilane",
    "duplicated_cas_no": "",
    "SMILES": "[Si](OC)(OC)(C1=C(F)C(F)=C(F)C(F)=C1F)C2=C(F)C(F)=C(F)C(F)=C2F",
    "meta_data": {
        "InChI": "InChI=1S/C14H6F10O2Si/c1-25-27(26-2,13-9(21)5(17)3(15)6(18)10(13)22)14-11(23)7(19)4(16)8(20)12(14)24/h1-2H3",
        "InChIKey": null,
        "Canonical SMILES": "FC=1C(F)=C(F)C(=C(F)C1F)[Si](OC)(OC)C=2C(F)=C(F)C(F)=C(F)C2F",
        "Molecular Formula": "C<sub>14</sub>H<sub>6</sub>F<sub>10</sub>O<sub>2</sub>Si",
        "Molecular Mass": "424.27",
        "Boiling Point": "90 °C @ Press: 13 Torr"
    }
}