{
    "cas_no": "693-38-9",
    "key_name": "Vinyl palmitate",
    "cn_name": "十六酸乙烯酯;",
    "alternate_name": "Hexadecanoic acid, ethenyl ester;Palmitic acid, vinyl ester;Vinyl palmitate;Vinyl hexadecanoate",
    "duplicated_cas_no": "",
    "SMILES": "C(CCCCCCCCCCCCC)CC(OC=C)=O",
    "meta_data": {
        "InChI": "InChI=1S/C18H34O2/c1-3-5-6-7-8-9-10-11-12-13-14-15-16-17-18(19)20-4-2/h4H,2-3,5-17H2,1H3",
        "InChIKey": null,
        "Canonical SMILES": "O=C(OC=C)CCCCCCCCCCCCCCC",
        "Molecular Formula": "C<sub>18</sub>H<sub>34</sub>O<sub>2</sub>",
        "Molecular Mass": "282.46",
        "Boiling Point": "165 °C",
        "Melting Point": "26-27 °C",
        "Density": "0.8612 g/cm³ @ Temp: 20 °C"
    }
}