{
    "cas_no": "128595-07-3",
    "key_name": "Cyclopentyl 2,5-dioxo-1-pyrrolidinyl carbonate",
    "cn_name": "环戊基-N-琥珀酰亚胺基碳酸酯;N-(环戊氧基羰氧基)琥珀酰亚胺;",
    "alternate_name": "Carbonic acid, cyclopentyl 2,5-dioxo-1-pyrrolidinyl ester;2,5-Pyrrolidinedione, 1-[[(cyclopentyloxy)carbonyl]oxy]-;Cyclopentyl 2,5-dioxo-1-pyrrolidinyl carbonate",
    "duplicated_cas_no": "",
    "SMILES": "O(C(OC1CCCC1)=O)N2C(=O)CCC2=O",
    "meta_data": {
        "InChI": "InChI=1S/C10H13NO5/c12-8-5-6-9(13)11(8)16-10(14)15-7-3-1-2-4-7/h7H,1-6H2",
        "InChIKey": null,
        "Canonical SMILES": "O=C(ON1C(=O)CCC1=O)OC2CCCC2",
        "Molecular Formula": "C<sub>10</sub>H<sub>13</sub>NO<sub>5</sub>",
        "Molecular Mass": "227.21",
        "Melting Point": "78-80 °C"
    }
}