{
    "cas_no": "30748-29-9",
    "key_name": "Feprazone",
    "cn_name": "非普拉宗;1,2-二苯基-4-异戊烯基吡唑烷-3,5-二酮;",
    "alternate_name": "3,5-Pyrazolidinedione, 4-(3-methyl-2-buten-1-yl)-1,2-diphenyl-;3,5-Pyrazolidinedione, 4-(3-methyl-2-butenyl)-1,2-diphenyl-;4-(3-Methyl-2-buten-1-yl)-1,2-diphenyl-3,5-pyrazolidinedione;Zepelin;DA 2370;Fenilprenazone;Prenazone;4-Prenyl-1,2-diphenyl-3,5-pyrazolidinedione;4-(3-Methyl-2-butenyl)-1,2-diphenyl-3,5-pyrazolidinedione;4-Prenyl-1,2-diphenyl-3,5-dioxopyrazolidine;4-(2-Isopentenyl)-1,2-diphenyl-3,5-pyrazolidinedione;Feprazone;Pheprazone;Metrazone;Analud;Methrazone;Phenylprenazone",
    "duplicated_cas_no": "",
    "SMILES": "O=C1N(N(C(=O)C1CC=C(C)C)C2=CC=CC=C2)C3=CC=CC=C3",
    "meta_data": {
        "InChI": "InChI=1S/C20H20N2O2/c1-15(2)13-14-18-19(23)21(16-9-5-3-6-10-16)22(20(18)24)17-11-7-4-8-12-17/h3-13,18H,14H2,1-2H3",
        "InChIKey": null,
        "Canonical SMILES": "O=C1N(C=2C=CC=CC2)N(C=3C=CC=CC3)C(=O)C1CC=C(C)C",
        "Molecular Formula": "C<sub>20</sub>H<sub>20</sub>N<sub>2</sub>O<sub>2</sub>",
        "Molecular Mass": "320.39",
        "Melting Point": "156.5 °C"
    }
}