{
    "cas_no": "5810-11-7",
    "key_name": "2-Chloro-<em>N</em>,<em>N</em>-dimethyl-3-oxobutanamide",
    "cn_name": "N,N-二甲基-2-氯乙酰乙酰胺;",
    "alternate_name": "Butanamide, 2-chloro-<em>N</em>,<em>N</em>-dimethyl-3-oxo-;Acetoacetamide, 2-chloro-<em>N</em>,<em>N</em>-dimethyl-;2-Chloro-<em>N</em>,<em>N</em>-dimethyl-3-oxobutanamide;2-Chloroacetoacetic acid <em>N</em>,<em>N</em>-dimethylamide;2-Chloro-<em>N</em>,<em>N</em>-dimethylacetoacetamide;<em>N</em>,<em>N</em>-Dimethyl-2-chloroacetoacetamide",
    "duplicated_cas_no": "",
    "SMILES": "C(C(N(C)C)=O)(C(C)=O)Cl",
    "meta_data": {
        "InChI": "InChI=1S/C6H10ClNO2/c1-4(9)5(7)6(10)8(2)3/h5H,1-3H3",
        "InChIKey": null,
        "Canonical SMILES": "O=C(N(C)C)C(Cl)C(=O)C",
        "Molecular Formula": "C<sub>6</sub>H<sub>10</sub>ClNO<sub>2</sub>",
        "Molecular Mass": "163.60",
        "Boiling Point": "93-98 °C @ Press: 0.5 Torr"
    }
}