{
    "cas_no": "14040-11-0",
    "key_name": "Tungsten hexacarbonyl",
    "cn_name": "六羰基钨;",
    "alternate_name": "Tungsten carbonyl (W(CO)<sub>6</sub>), (<em>OC</em>-6-11)-;Tungsten carbonyl (W(CO)<sub>6</sub>);Tungsten hexacarbonyl;Hexacarbonyltungsten;Hexacarbonyl wolfram;Tungsten carbonyl;NSC 173699",
    "duplicated_cas_no": "848779-21-5;1808935-68-3",
    "SMILES": "[W](C#O)(C#O)(C#O)(C#O)(C#O)C#O",
    "meta_data": {
        "InChI": "InChI=1S/6CO.W/c6*1-2;",
        "InChIKey": null,
        "Canonical SMILES": "O#C[W](C#O)(C#O)(C#O)(C#O)C#O",
        "Molecular Formula": "C<sub>6</sub>O<sub>6</sub>W",
        "Molecular Mass": "",
        "Melting Point": "169-170 °C (decomp)",
        "Density": "2.65 g/cm³"
    }
}