{
    "cas_no": "543-24-8",
    "key_name": "Acetylglycine",
    "cn_name": "N-乙酰甘氨酸;乙酰氨基乙酸;",
    "alternate_name": "Glycine, <em>N</em>-acetyl-;Aceturic acid;<em>N</em>-Acetylglycine;Acetamidoacetic acid;Acetylaminoacetic acid;Acetylglycine;Acetylglycocoll;Ethanoylaminoethanoic acid;2-Acetamidoacetic acid;2-(Acetylamino)acetic acid;NSC 7605;86: PN: WO2006125227 FIGURE: 1 claimed protein",
    "duplicated_cas_no": "",
    "SMILES": "C(NC(C)=O)C(O)=O",
    "meta_data": {
        "InChI": "InChI=1S/C4H7NO3/c1-3(6)5-2-4(7)8/h2H2,1H3,(H,5,6)(H,7,8)",
        "InChIKey": null,
        "Canonical SMILES": "O=C(O)CNC(=O)C",
        "Molecular Formula": "C<sub>4</sub>H<sub>7</sub>NO<sub>3</sub>",
        "Molecular Mass": "117.10",
        "Melting Point": "206 °C"
    }
}