{
    "cas_no": "79617-96-2",
    "key_name": "Sertraline",
    "cn_name": "舍曲林;混旋-4-(3,4-二氯苯基)-1,2,3,4-四氢-N-甲基-1-萘胺);",
    "alternate_name": "1-Naphthalenamine, 4-(3,4-dichlorophenyl)-1,2,3,4-tetrahydro-<em>N</em>-methyl-, (1<em>S</em>,4<em>S</em>)-;1-Naphthalenamine, 4-(3,4-dichlorophenyl)-1,2,3,4-tetrahydro-<em>N</em>-methyl-, (1<em>S</em>-<em>cis</em>)-;(1<em>S</em>,4<em>S</em>)-4-(3,4-Dichlorophenyl)-1,2,3,4-tetrahydro-<em>N</em>-methyl-1-naphthalenamine;CP 51974;Sertraline;(+)-Sertraline;(1S,4S)-4-(3,4-Dichlorophenyl)-1,2,3,4-tetrahydro-<em>N</em>-methyl-1-naphthaleneamine;MeSH ID: D020280",
    "duplicated_cas_no": "",
    "SMILES": "N(C)[C@@H]1C=2C([C@@H](CC1)C3=CC(Cl)=C(Cl)C=C3)=CC=CC2",
    "meta_data": {
        "InChI": "InChI=1S/C17H17Cl2N/c1-20-17-9-7-12(13-4-2-3-5-14(13)17)11-6-8-15(18)16(19)10-11/h2-6,8,10,12,17,20H,7,9H2,1H3/t12-,17-/m0/s1",
        "InChIKey": null,
        "Canonical SMILES": "ClC1=CC=C(C=C1Cl)C2C=3C=CC=CC3C(NC)CC2",
        "Molecular Formula": "C<sub>17</sub>H<sub>17</sub>Cl<sub>2</sub>N",
        "Molecular Mass": "306.23",
        "Melting Point": "84 °C",
        "Density": "0.39 g/cm³"
    }
}