{
    "cas_no": "122-16-7",
    "key_name": "Sulfanitran",
    "cn_name": "2-溴-2\",3\",4\",5\",6\"-五氟苯乙酮;磺胺硝苯;硝苯醋磺胺;乙酰磺胺对硝基苯;",
    "alternate_name": "Acetamide, <em>N</em>-[4-[[(4-nitrophenyl)amino]sulfonyl]phenyl]-;Acetanilide, 4′-[(<em>p</em>-nitrophenyl)sulfamoyl]-;<em>N</em>-[4-[[(4-Nitrophenyl)amino]sulfonyl]phenyl]acetamide;<em>N</em><sup>4</sup>-Acetyl-<em>N</em><sup>1</sup>-(4-nitrophenyl)sulfanilamide;<em>N</em><sup>4</sup>-Acetyl-<em>N</em><sup>1</sup>-(<em>p</em>-nitrophenyl)sulfanilamide;4′-[(<em>p</em>-Nitrophenyl)sulfamoyl]acetanilide;Sulfanitran;<em>N</em><sup>4</sup>-Acetyl-4′-nitrosulfanilanilide;NSC 77120;NSC 217299",
    "duplicated_cas_no": "",
    "SMILES": "N(S(=O)(=O)C1=CC=C(NC(C)=O)C=C1)C2=CC=C(N(=O)=O)C=C2",
    "meta_data": {
        "InChI": "InChI=1S/C14H13N3O5S/c1-10(18)15-11-4-8-14(9-5-11)23(21,22)16-12-2-6-13(7-3-12)17(19)20/h2-9,16H,1H3,(H,15,18)",
        "InChIKey": null,
        "Canonical SMILES": "O=C(NC1=CC=C(C=C1)S(=O)(=O)NC2=CC=C(C=C2)N(=O)=O)C",
        "Molecular Formula": "C<sub>14</sub>H<sub>13</sub>N<sub>3</sub>O<sub>5</sub>S",
        "Molecular Mass": "335.34",
        "Melting Point": "240 °C"
    }
}