{
    "cas_no": "5926-51-2",
    "key_name": "3-Bromo-2,5-furandione",
    "cn_name": "溴马来酸酐;",
    "alternate_name": "2,5-Furandione, 3-bromo-;Maleic anhydride, bromo-;3-Bromo-2,5-furandione;Bromomaleic anhydride;NSC 96611;3-Bromo-2,5-dihydrofuran-2,5-dione",
    "duplicated_cas_no": "",
    "SMILES": "BrC=1C(=O)OC(=O)C1",
    "meta_data": {
        "InChI": "InChI=1S/C4HBrO3/c5-2-1-3(6)8-4(2)7/h1H",
        "InChIKey": null,
        "Canonical SMILES": "O=C1OC(=O)C(Br)=C1",
        "Molecular Formula": "C<sub>4</sub>HBrO<sub>3</sub>",
        "Molecular Mass": "176.95",
        "Boiling Point": "150-152 °C @ Press: 42 Torr",
        "Density": "1.9642 g/cm³ @ Temp: 15.8 °C"
    }
}