{
    "cas_no": "21663-61-6",
    "key_name": "2,5-Dichlorobenzonitrile",
    "cn_name": "2,5-二氯苯甲腈;2,5-二氯苯腈;",
    "alternate_name": "Benzonitrile, 2,5-dichloro-;2,5-Dichlorobenzonitrile;NSC 166361",
    "duplicated_cas_no": "",
    "SMILES": "C(#N)C1=C(Cl)C=CC(Cl)=C1",
    "meta_data": {
        "InChI": "InChI=1S/C7H3Cl2N/c8-6-1-2-7(9)5(3-6)4-10/h1-3H",
        "InChIKey": null,
        "Canonical SMILES": "N#CC1=CC(Cl)=CC=C1Cl",
        "Molecular Formula": "C<sub>7</sub>H<sub>3</sub>Cl<sub>2</sub>N",
        "Molecular Mass": "172.01",
        "Melting Point": "129 °C"
    }
}