{
    "cas_no": "35086-59-0",
    "key_name": "1-[3,5-Bis(acetyloxy)phenyl]ethanone",
    "cn_name": "3,5-二乙酰氧基苯乙酮;",
    "alternate_name": "Ethanone, 1-[3,5-bis(acetyloxy)phenyl]-;Acetophenone, 3′,5′-dihydroxy-, diacetate;1-[3,5-Bis(acetyloxy)phenyl]ethanone;3,5-Diacetoxyacetophenone;3′,5′-Diacetoxyacetophenone;(3-Acetyl-5-acetyloxyphenyl) acetate",
    "duplicated_cas_no": "",
    "SMILES": "O(C(C)=O)C1=CC(C(C)=O)=CC(OC(C)=O)=C1",
    "meta_data": {
        "InChI": "InChI=1S/C12H12O5/c1-7(13)10-4-11(16-8(2)14)6-12(5-10)17-9(3)15/h4-6H,1-3H3",
        "InChIKey": null,
        "Canonical SMILES": "O=C(OC=1C=C(OC(=O)C)C=C(C1)C(=O)C)C",
        "Molecular Formula": "C<sub>12</sub>H<sub>12</sub>O<sub>5</sub>",
        "Molecular Mass": "236.22",
        "Boiling Point": "165-168 °C @ Press: 0.6 Torr",
        "Melting Point": "93 °C"
    }
}