{
    "cas_no": "5355-17-9",
    "key_name": "4-(Methoxymethyl)phenol",
    "cn_name": null,
    "alternate_name": "Phenol, 4-(methoxymethyl)-;<em>p</em>-Cresol, α-methoxy-;4-(Methoxymethyl)phenol;<em>p</em>-Hydroxybenzyl methyl ether;<em>p</em>-(Methoxymethyl)phenol;α-Methoxy-<em>p</em>-cresol",
    "duplicated_cas_no": "",
    "SMILES": "C(OC)C1=CC=C(O)C=C1",
    "meta_data": {
        "InChI": "InChI=1S/C8H10O2/c1-10-6-7-2-4-8(9)5-3-7/h2-5,9H,6H2,1H3",
        "InChIKey": null,
        "Canonical SMILES": "OC1=CC=C(C=C1)COC",
        "Molecular Formula": "C<sub>8</sub>H<sub>10</sub>O<sub>2</sub>",
        "Molecular Mass": "138.16",
        "Boiling Point": "147-153 °C @ Press: 11 Torr",
        "Melting Point": "82.5-83.5 °C",
        "Density": "1.5319 g/cm³ @ Temp: 24 °C"
    }
}