{
    "cas_no": "14918-80-0",
    "key_name": "4-(Acetyloxy)-2-methyl-2-butenal",
    "cn_name": null,
    "alternate_name": "2-Butenal, 4-(acetyloxy)-2-methyl-;Crotonaldehyde, 4-hydroxy-2-methyl-, acetate;4-(Acetyloxy)-2-methyl-2-butenal;1-Acetoxy-3-methyl-2-buten-4-al;3-Formylcrotyl acetate;4-Acetoxy-2-formyl-2-butene;4-Acetoxy-2-methylcrotonaldehyde;4-Acetoxy-2-methyl-2-butenal;3-Methyl-4-oxo-2-butenyl acetate;3-Formylbut-2-enyl acetate;4-Acetoxy-2-methyl-2-butene-1-al",
    "duplicated_cas_no": "",
    "SMILES": "C(=CCOC(C)=O)(C=O)C",
    "meta_data": {
        "InChI": "InChI=1S/C7H10O3/c1-6(5-8)3-4-10-7(2)9/h3,5H,4H2,1-2H3",
        "InChIKey": null,
        "Canonical SMILES": "O=CC(=CCOC(=O)C)C",
        "Molecular Formula": "C<sub>7</sub>H<sub>10</sub>O<sub>3</sub>",
        "Molecular Mass": "142.15",
        "Boiling Point": "95-97 °C @ Press: 15 Torr",
        "Melting Point": "50-55 °C"
    }
}