{
    "cas_no": "865-48-5",
    "key_name": "Sodium <em>tert</em>-butoxide",
    "cn_name": "叔丁醇钠;",
    "alternate_name": "2-Propanol, 2-methyl-, sodium salt (1:1);<em>tert</em>-Butyl alcohol, sodium salt;2-Propanol, 2-methyl-, sodium salt;Sodium <em>tert</em>-butoxide;<em>tert</em>-Butoxysodium;2-Methyl-2-propanol sodium salt;Sodium <em>tert</em>-butylate;<em>tert</em>-Butanol sodium salt;Sodium <em>tert</em>-butanolate;Sodium 2-methylpropan-2-olate;Sodium <em>t</em>-butoxide;2-Methylpropan-2-olate sodium",
    "duplicated_cas_no": "1086265-66-8;1979169-53-3",
    "SMILES": "C(C)(C)(C)O.[Na]",
    "meta_data": {
        "InChI": "InChI=1S/C4H10O.Na/c1-4(2,3)5;/h5H,1-3H3;",
        "InChIKey": null,
        "Canonical SMILES": "[Na].OC(C)(C)C",
        "Molecular Formula": "C<sub>4</sub>H<sub>10</sub>O.Na",
        "Molecular Mass": "",
        "Boiling Point": "180 °C @ Press: 1 Torr",
        "Melting Point": "263-270 °C (decomp)",
        "Density": "1.104 g/cm³"
    }
}