{
    "cas_no": "23051-44-7",
    "key_name": "2-(3,5,5-Trimethyl-2-cyclohexen-1-ylidene)propanedinitrile",
    "cn_name": "(3,5,5-三甲基环己-2-烯亚基)丙二腈;",
    "alternate_name": "Propanedinitrile, 2-(3,5,5-trimethyl-2-cyclohexen-1-ylidene)-;2-Cyclohexene-Δ<sup>1,α</sup>-malononitrile, 3,5,5-trimethyl-;Propanedinitrile, (3,5,5-trimethyl-2-cyclohexen-1-ylidene)-;2-(3,5,5-Trimethyl-2-cyclohexen-1-ylidene)propanedinitrile;3-Dicyanomethylene-1,5,5-trimethylcyclohex-1-ene;2-(3,5,5-Trimethylcyclohex-2-ene-1-ylidene)-1,3-propanedinitrile;2-(3,5,5-Trimethyl-2-cyclohexenylidene)malononitrile;NSC 174848;(3,5,5-Trimethylcyclohex-2-enylidene)malononitrile;3-Dicyanomethylidene-1,5,5-trimethylcyclohexene;2-(3,5,5-Trimethylcyclohex-2-en-1-ylidene)malononitrile",
    "duplicated_cas_no": "758722-74-6",
    "SMILES": "C(C#N)(C#N)=C1CC(C)(C)CC(C)=C1",
    "meta_data": {
        "InChI": "InChI=1S/C12H14N2/c1-9-4-10(11(7-13)8-14)6-12(2,3)5-9/h4H,5-6H2,1-3H3",
        "InChIKey": null,
        "Canonical SMILES": "N#CC(C#N)=C1C=C(C)CC(C)(C)C1",
        "Molecular Formula": "C<sub>12</sub>H<sub>14</sub>N<sub>2</sub>",
        "Molecular Mass": "186.25",
        "Boiling Point": "175-176 °C @ Press: 19 Torr",
        "Melting Point": "79-80 °C"
    }
}