{
    "cas_no": "30043-49-3",
    "key_name": "Ethidimuron",
    "cn_name": "磺噻隆;赛唑隆,磺噻隆;磺噻隆;赛唑隆;",
    "alternate_name": "Urea, <em>N</em>-[5-(ethylsulfonyl)-1,3,4-thiadiazol-2-yl]-<em>N</em>,<em>N</em>′-dimethyl-;Urea, 1-[5-(ethylsulfonyl)-1,3,4-thiadiazol-2-yl]-1,3-dimethyl-;<em>N</em>-[5-(Ethylsulfonyl)-1,3,4-thiadiazol-2-yl]-<em>N</em>,<em>N</em>′-dimethylurea;1-(5-Ethylsulfonyl-1,3,4-thiadiazol-2-yl)-1,3-dimethylurea;MET 1486;Ethidimuron;Ustilan;BAY-MET 1486;Sulfodiazol;Sulfodiazole",
    "duplicated_cas_no": "",
    "SMILES": "N(C(NC)=O)(C)C=1SC(S(CC)(=O)=O)=NN1",
    "meta_data": {
        "InChI": "InChI=1S/C7H12N4O3S2/c1-4-16(13,14)7-10-9-6(15-7)11(3)5(12)8-2/h4H2,1-3H3,(H,8,12)",
        "InChIKey": null,
        "Canonical SMILES": "O=C(NC)N(C1=NN=C(S1)S(=O)(=O)CC)C",
        "Molecular Formula": "C<sub>7</sub>H<sub>12</sub>N<sub>4</sub>O<sub>3</sub>S<sub>2</sub>",
        "Molecular Mass": "264.33",
        "Melting Point": "156 °C"
    }
}