{
    "cas_no": "50509-09-6",
    "key_name": "2-Amino-<em>N</em>-[3-(2-chlorobenzoyl)-5-ethyl-2-thienyl]acetamide",
    "cn_name": null,
    "alternate_name": "Acetamide, 2-amino-<em>N</em>-[3-(2-chlorobenzoyl)-5-ethyl-2-thienyl]-;2-Amino-<em>N</em>-[3-(2-chlorobenzoyl)-5-ethyl-2-thienyl]acetamide;2-(Aminoacetamido)-3-(<em>o</em>-chlorobenzoyl)-5-ethylthiophene;2-Amino-<em>N</em>-[3-(2-chlorobenzoyl)-5-ethylthiophen-2-yl]acetamide",
    "duplicated_cas_no": "",
    "SMILES": "C(=O)(C1=C(NC(CN)=O)SC(CC)=C1)C2=C(Cl)C=CC=C2",
    "meta_data": {
        "InChI": "InChI=1S/C15H15ClN2O2S/c1-2-9-7-11(15(21-9)18-13(19)8-17)14(20)10-5-3-4-6-12(10)16/h3-7H,2,8,17H2,1H3,(H,18,19)",
        "InChIKey": null,
        "Canonical SMILES": "O=C(C=1C=CC=CC1Cl)C=2C=C(SC2NC(=O)CN)CC",
        "Molecular Formula": "C<sub>15</sub>H<sub>15</sub>ClN<sub>2</sub>O<sub>2</sub>S",
        "Molecular Mass": "322.81",
        "Melting Point": "144-146 °C"
    }
}