{
    "cas_no": "78-62-6",
    "key_name": "Dimethyldiethoxysilane",
    "cn_name": "二乙氧基二甲基硅烷;二甲基二乙氧基硅烷;",
    "alternate_name": "Silane, diethoxydimethyl-;Diethoxydimethylsilane;Dimethyldiethoxysilane;Dimethylsilicondiethoxide;KBE 22;SZ 6078;LS 1370;TSL 8122;NSC 77085;DP 322;CG-N 222;QX 222 (silane);QX 222",
    "duplicated_cas_no": "202756-41-0",
    "SMILES": "[Si](OCC)(OCC)(C)C",
    "meta_data": {
        "InChI": "InChI=1S/C6H16O2Si/c1-5-7-9(3,4)8-6-2/h5-6H2,1-4H3",
        "InChIKey": null,
        "Canonical SMILES": "O(CC)[Si](OCC)(C)C",
        "Molecular Formula": "C<sub>6</sub>H<sub>16</sub>O<sub>2</sub>Si",
        "Molecular Mass": "148.28",
        "Boiling Point": "114 °C",
        "Melting Point": "-87 °C",
        "Density": "0.839 g/cm³"
    }
}