{
    "cas_no": "4282-29-5",
    "key_name": "3,4-Thiophenedicarboxylic acid",
    "cn_name": "3,4-噻吩二羧酸;",
    "alternate_name": "3,4-Thiophenedicarboxylic acid;NSC 672208;NSC 81793",
    "duplicated_cas_no": "",
    "SMILES": "C(O)(=O)C=1C(C(O)=O)=CSC1",
    "meta_data": {
        "InChI": "InChI=1S/C6H4O4S/c7-5(8)3-1-11-2-4(3)6(9)10/h1-2H,(H,7,8)(H,9,10)",
        "InChIKey": null,
        "Canonical SMILES": "O=C(O)C1=CSC=C1C(=O)O",
        "Molecular Formula": "C<sub>6</sub>H<sub>4</sub>O<sub>4</sub>S",
        "Molecular Mass": "172.16",
        "Melting Point": "230-231 °C"
    }
}