{
    "cas_no": "1633-44-9",
    "key_name": "3,4-Pyridinedicarbonitrile",
    "cn_name": "吡啶-3,4-二腈;吡啶-3,4-二腈;吡啶-3,4-二腈, 98+%;吡啶-3,4-二甲腈;",
    "alternate_name": "3,4-Pyridinedicarbonitrile;Cinchomerononitrile;3,4-Dicyanopyridine",
    "duplicated_cas_no": "",
    "SMILES": "C(#N)C=1C(C#N)=CN=CC1",
    "meta_data": {
        "InChI": "InChI=1S/C7H3N3/c8-3-6-1-2-10-5-7(6)4-9/h1-2,5H",
        "InChIKey": null,
        "Canonical SMILES": "N#CC=1C=NC=CC1C#N",
        "Molecular Formula": "C<sub>7</sub>H<sub>3</sub>N<sub>3</sub>",
        "Molecular Mass": "129.12",
        "Melting Point": "79-81 °C"
    }
}