{
    "cas_no": "123-42-2",
    "key_name": "Diacetone alcohol",
    "cn_name": "4-羟基-4-甲基-2-戊酮;甲基戊酮醇;双丙酮醇;",
    "alternate_name": "2-Pentanone, 4-hydroxy-4-methyl-;4-Hydroxy-4-methyl-2-pentanone;Diacetone alcohol;Diketone alcohol;4-Hydroxy-2-<em>keto</em>-4-methylpentane;2-Methyl-2-pentanol-4-one;Tyranton;Acetonyldimethylcarbinol;2-Methyl-4-oxo-2-pentanol;Pyranton A;4-Methyl-4-hydroxy-2-pentanone;2-Hydroxy-2-methyl-4-pentanone;4-Hydroxy-4-methyl-2-oxopentane;NSC 9005;2-Methyl-4-oxopentan-2-ol",
    "duplicated_cas_no": "",
    "SMILES": "C(C(C)(C)O)C(C)=O",
    "meta_data": {
        "InChI": "InChI=1S/C6H12O2/c1-5(7)4-6(2,3)8/h8H,4H2,1-3H3",
        "InChIKey": null,
        "Canonical SMILES": "O=C(C)CC(O)(C)C",
        "Molecular Formula": "C<sub>6</sub>H<sub>12</sub>O<sub>2</sub>",
        "Molecular Mass": "116.16",
        "Boiling Point": "22.0 °C @ Press: 1.0 Torr",
        "Melting Point": "-44 °C",
        "Density": "0.9382 g/cm³ @ Temp: 20 °C"
    }
}