{
    "cas_no": "490-46-0",
    "key_name": "Epicatechin",
    "cn_name": "表儿茶素;2-(3,4-羟基苯基)-3,4-二氢-2H-1-苯并吡喃-3,5,7-三醇;EC;",
    "alternate_name": "2<em>H</em>-1-Benzopyran-3,5,7-triol, 2-(3,4-dihydroxyphenyl)-3,4-dihydro-, (2<em>R</em>,3<em>R</em>)-;Epicatechol, (-)-;2<em>H</em>-1-Benzopyran-3,5,7-triol, 2-(3,4-dihydroxyphenyl)-3,4-dihydro-, (2<em>R</em>-<em>cis</em>)-;(2<em>R</em>,3<em>R</em>)-2-(3,4-Dihydroxyphenyl)-3,4-dihydro-2<em>H</em>-1-benzopyran-3,5,7-triol;(-)-Epicatechin;(-)-Epicatechol;(-)-(2<em>R</em>:3<em>R</em>)-5,7,3′,4′-Tetrahydroxyflavan-3-ol;Epicatechin;<em>epi</em>-Catechol;<em>l</em>-Epicatechin;<em>l</em>-Epicatechol;Epicatechol;(2<em>R</em>,3<em>R</em>)-(-)-Epicatechin;<em>epi</em>-Catechin;<em>l</em>-Acacatechin;<span class=\"text-smallcaps\">L</span>-Epicatechin;NSC 81161;(-)-<em>epi</em>-Catechin",
    "duplicated_cas_no": "2545-08-6;863644-83-1;863644-80-8",
    "SMILES": "O[C@H]1[C@H](OC=2C(C1)=C(O)C=C(O)C2)C3=CC(O)=C(O)C=C3",
    "meta_data": {
        "InChI": "InChI=1S/C15H14O6/c16-8-4-11(18)9-6-13(20)15(21-14(9)5-8)7-1-2-10(17)12(19)3-7/h1-5,13,15-20H,6H2/t13-,15-/m1/s1",
        "InChIKey": null,
        "Canonical SMILES": "OC=1C=C(O)C2=C(OC(C3=CC=C(O)C(O)=C3)C(O)C2)C1",
        "Molecular Formula": "C<sub>15</sub>H<sub>14</sub>O<sub>6</sub>",
        "Molecular Mass": "290.27",
        "Boiling Point": "629.2 °C",
        "Melting Point": "237 °C"
    }
}