{
    "cas_no": "3410-77-3",
    "key_name": "Tetraisocyanatosilane",
    "cn_name": null,
    "alternate_name": "Silane, tetraisocyanato-;Silicon isocyanate (Si(NCO)<sub>4</sub>);Silicon isocyanate;Tetraisocyanatosilane;Isocyanic acid, tetraanhydride with silicic acid (H<sub>4</sub>SiO<sub>4</sub>);Silicic acid (H<sub>4</sub>SiO<sub>4</sub>), tetraanhydride with isocyanic acid;Silicon tetraisocyanate;Silicon tetraisocyanate (Si(NCO)<sub>4</sub>);Tetraisocyanatesilane;Tetra(cyanato-<em>N</em>)silane;Teraisocyanatosilane",
    "duplicated_cas_no": "",
    "SMILES": "[Si](N=C=O)(N=C=O)(N=C=O)N=C=O",
    "meta_data": {
        "InChI": "InChI=1S/C4N4O4Si/c9-1-5-13(6-2-10,7-3-11)8-4-12",
        "InChIKey": null,
        "Canonical SMILES": "O=C=N[Si](N=C=O)(N=C=O)N=C=O",
        "Molecular Formula": "C<sub>4</sub>N<sub>4</sub>O<sub>4</sub>Si",
        "Molecular Mass": "196.15",
        "Boiling Point": "186 °C",
        "Melting Point": "25-26 °C",
        "Density": "1.442 g/cm³"
    }
}