{
    "cas_no": "286371-64-0",
    "key_name": "7-Methoxy-6-(phenylmethoxy)-4(3<em>H</em>)-quinazolinone",
    "cn_name": "6-苄氧基-7-甲氧基喹唑啉-4-酮;",
    "alternate_name": "4(3<em>H</em>)-Quinazolinone, 7-methoxy-6-(phenylmethoxy)-;4(1<em>H</em>)-Quinazolinone, 7-methoxy-6-(phenylmethoxy)-;7-Methoxy-6-(phenylmethoxy)-4(3<em>H</em>)-quinazolinone;6-(Benzyloxy)-7-methoxyquinazolin-4(3<em>H</em>)-one",
    "duplicated_cas_no": "",
    "SMILES": "O=C1C=2C(=CC(OC)=C(OCC3=CC=CC=C3)C2)NC=N1",
    "meta_data": {
        "InChI": "InChI=1S/C16H14N2O3/c1-20-14-8-13-12(16(19)18-10-17-13)7-15(14)21-9-11-5-3-2-4-6-11/h2-8,10H,9H2,1H3,(H,17,18,19)",
        "InChIKey": null,
        "Canonical SMILES": "O=C1N=CNC2=CC(OC)=C(OCC=3C=CC=CC3)C=C12",
        "Molecular Formula": "C<sub>16</sub>H<sub>14</sub>N<sub>2</sub>O<sub>3</sub>",
        "Molecular Mass": "282.29",
        "Melting Point": "252 °C"
    }
}