{
    "cas_no": "606-27-9",
    "key_name": "Methyl 2-nitrobenzoate",
    "cn_name": "2-硝基苯甲酸甲酯;",
    "alternate_name": "Benzoic acid, 2-nitro-, methyl ester;Benzoic acid, <em>o</em>-nitro-, methyl ester;Methyl 2-nitrobenzoate;Methyl <em>o</em>-nitrobenzoate;2-(Methoxycarbonyl)nitrobenzene;<em>o</em>-Nitrobenzoic acid methyl ester;NSC 4136;2-(Methoxycarbonyl)-1-nitrobenzene;2-Nitrobenzoic acid methyl ester",
    "duplicated_cas_no": "",
    "SMILES": "C(OC)(=O)C1=C(N(=O)=O)C=CC=C1",
    "meta_data": {
        "InChI": "InChI=1S/C8H7NO4/c1-13-8(10)6-4-2-3-5-7(6)9(11)12/h2-5H,1H3",
        "InChIKey": null,
        "Canonical SMILES": "O=C(OC)C=1C=CC=CC1N(=O)=O",
        "Molecular Formula": "C<sub>8</sub>H<sub>7</sub>NO<sub>4</sub>",
        "Molecular Mass": "181.15",
        "Boiling Point": "275 °C",
        "Melting Point": "-13 °C"
    }
}