{
    "cas_no": "617-36-7",
    "key_name": "Ethyl oxamate",
    "cn_name": "草氨酸乙酯;",
    "alternate_name": "Acetic acid, 2-amino-2-oxo-, ethyl ester;Oxamic acid, ethyl ester;Acetic acid, aminooxo-, ethyl ester;Oxamethane;Ethoxalamide;Oxalic acid monoethyl ester amide;Ethyl oxamate;Ethyl 2-amino-2-oxoacetate;NSC 48381;2-Amino-2-oxoacetic acid ethyl ester;<em>O</em>-Ethyl oxamate",
    "duplicated_cas_no": "",
    "SMILES": "C(OCC)(C(N)=O)=O",
    "meta_data": {
        "InChI": "InChI=1S/C4H7NO3/c1-2-8-4(7)3(5)6/h2H2,1H3,(H2,5,6)",
        "InChIKey": null,
        "Canonical SMILES": "O=C(OCC)C(=O)N",
        "Molecular Formula": "C<sub>4</sub>H<sub>7</sub>NO<sub>3</sub>",
        "Molecular Mass": "117.10",
        "Melting Point": "114-115 °C"
    }
}