{
    "cas_no": "16386-93-9",
    "key_name": "2,2-Dimethyl-4-pentenoic acid",
    "cn_name": "2,2-二甲基-4-戊烯酸;",
    "alternate_name": "4-Pentenoic acid, 2,2-dimethyl-;2,2-Dimethyl-4-pentenoic acid;2,2-Dimethylpent-4-enoic acid",
    "duplicated_cas_no": "",
    "SMILES": "C(CC=C)(C(O)=O)(C)C",
    "meta_data": {
        "InChI": "InChI=1S/C7H12O2/c1-4-5-7(2,3)6(8)9/h4H,1,5H2,2-3H3,(H,8,9)",
        "InChIKey": null,
        "Canonical SMILES": "O=C(O)C(C)(C)CC=C",
        "Molecular Formula": "C<sub>7</sub>H<sub>12</sub>O<sub>2</sub>",
        "Molecular Mass": "128.17",
        "Boiling Point": "103-105 °C @ Press: 10 Torr"
    }
}