{
    "cas_no": "144172-24-7",
    "key_name": "1<em>H</em>-Indene-2-carboxylic acid, 5-chloro-2,3-dihydro-2-hydroxy-1-oxo-, methyl ester",
    "cn_name": null,
    "alternate_name": "1<em>H</em>-Indene-2-carboxylic acid, 5-chloro-2,3-dihydro-2-hydroxy-1-oxo-, methyl ester;Methyl 5-chloro-2,3-dihydro-2-hydroxy-1-oxo-1<em>H</em>-indene-2-carboxylate;5-Chloro-1,3-dihydro-2-hydroxy-1-oxo-2<em>H</em>-indene-2-carboxylic acid methyl ester",
    "duplicated_cas_no": "",
    "SMILES": "C(OC)(=O)C1(O)C(=O)C=2C(C1)=CC(Cl)=CC2",
    "meta_data": {
        "InChI": "InChI=1S/C11H9ClO4/c1-16-10(14)11(15)5-6-4-7(12)2-3-8(6)9(11)13/h2-4,15H,5H2,1H3",
        "InChIKey": null,
        "Canonical SMILES": "O=C(OC)C1(O)C(=O)C2=CC=C(Cl)C=C2C1",
        "Molecular Formula": "C<sub>11</sub>H<sub>9</sub>ClO<sub>4</sub>",
        "Molecular Mass": "240.64",
        "Melting Point": "132-133 °C"
    }
}