{
    "cas_no": "13734-41-3",
    "key_name": "Boc-<span class=\"text-smallcaps\">L</span>-valine",
    "cn_name": "BOC-L-缬氨酸;N-叔丁氧羰基-L-缬氨酸;(S)-2-(叔丁氧基羰基-氨基)-3-甲基丁酸;",
    "alternate_name": "<span class=\"text-smallcaps\">L</span>-Valine, <em>N</em>-[(1,1-dimethylethoxy)carbonyl]-;Valine, <em>N</em>-carboxy-, <em>N</em>-<em>tert</em>-butyl ester, <span class=\"text-smallcaps\">L</span>-;<em>N</em>-[(1,1-Dimethylethoxy)carbonyl]-<span class=\"text-smallcaps\">L</span>-valine;<em>N</em>-<em>tert</em>-Butoxycarbonyl-<span class=\"text-smallcaps\">L</span>-valine;<em>tert</em>-Butoxycarbonyl-<span class=\"text-smallcaps\">L</span>-valine;<em>N</em>-<em>tert</em>-Butoxycarbonylvaline;<em>N</em>-<em>tert</em>-Butyloxycarbonyl-<span class=\"text-smallcaps\">L</span>-valine;<em>N</em>-α-<em>tert</em>-Butoxycarbonyl-<span class=\"text-smallcaps\">L</span>-valine;BOC-valine;<em>N</em>-<em>tert</em>-Butyloxycarbonylvaline;Boc-<span class=\"text-smallcaps\">L</span>-valine;<em>t</em>-Butoxycarbonyl-<span class=\"text-smallcaps\">L</span>-valine;(<em>S</em>)-<em>N</em>-<em>tert</em>-Butoxycarbonylvaline;(2<em>S</em>)-2-(<em>tert</em>-Butoxycarbonylamino)-3-methylbutanoic acid;<em>N</em>-BOC-<span class=\"text-smallcaps\">L</span>-valine;NSC 197197;<em>N</em>-BOC-valine;(<em>S</em>)-2-(<em>tert</em>-Butoxycarbonylamino)-3-methylbutanoic acid;(2S)-2-[[(1,1-Dimethylethoxy)carbonyl]amino]-3-methylbutanoic acid;<em>N</em>-<em>tert</em>-Butoxycarbonyl-<span class=\"text-smallcaps\">L</span>-valine vinyl ester;(<em>S</em>)-2-(Boc-amino)-3-methylbutyric acid;(<em>S</em>)-Boc-Valine;Boc-<span class=\"text-smallcaps\">L</span>-Val;(2S)-2-[[(<em>tert</em>-Butoxy)carbonyl]amino]-3-methylbutanoic acid;(2S)-3-Methyl-2-[(2-methylpropan-2-yl)oxycarbonylamino]butanoic acid",
    "duplicated_cas_no": "91602-34-5;253591-28-5;2909532-78-9",
    "SMILES": "[C@H](NC(OC(C)(C)C)=O)(C(C)C)C(O)=O",
    "meta_data": {
        "InChI": "InChI=1S/C10H19NO4/c1-6(2)7(8(12)13)11-9(14)15-10(3,4)5/h6-7H,1-5H3,(H,11,14)(H,12,13)/t7-/m0/s1",
        "InChIKey": null,
        "Canonical SMILES": "O=C(OC(C)(C)C)NC(C(=O)O)C(C)C",
        "Molecular Formula": "C<sub>10</sub>H<sub>19</sub>NO<sub>4</sub>",
        "Molecular Mass": "217.26",
        "Melting Point": "77-79 °C",
        "Density": "1.185 g/cm³"
    }
}