{
    "cas_no": "603-85-0",
    "key_name": "2-Amino-3-nitrophenol",
    "cn_name": "2-氨基-3-硝基苯酚;",
    "alternate_name": "Phenol, 2-amino-3-nitro-;2-Amino-3-nitrophenol;3-Nitro-2-aminophenol;2-Amino-3-hydroxynitrobenzene;2-Hydroxy-6-nitroaniline",
    "duplicated_cas_no": "",
    "SMILES": "N(=O)(=O)C1=C(N)C(O)=CC=C1",
    "meta_data": {
        "InChI": "InChI=1S/C6H6N2O3/c7-6-4(8(10)11)2-1-3-5(6)9/h1-3,9H,7H2",
        "InChIKey": null,
        "Canonical SMILES": "O=N(=O)C=1C=CC=C(O)C1N",
        "Molecular Formula": "C<sub>6</sub>H<sub>6</sub>N<sub>2</sub>O<sub>3</sub>",
        "Molecular Mass": "154.12",
        "Melting Point": "216.5 °C"
    }
}