{
    "cas_no": "487-24-1",
    "key_name": "Pratol",
    "cn_name": "车轴草醇;车轴草醇;",
    "alternate_name": "4<em>H</em>-1-Benzopyran-4-one, 7-hydroxy-2-(4-methoxyphenyl)-;Flavone, 7-hydroxy-4′-methoxy-;7-Hydroxy-2-(4-methoxyphenyl)-4<em>H</em>-1-benzopyran-4-one;C.I. 75570;7-Hydroxy-4′-methoxyflavone;Pratol;NSC 123414",
    "duplicated_cas_no": "",
    "SMILES": "O=C1C=2C(OC(=C1)C3=CC=C(OC)C=C3)=CC(O)=CC2",
    "meta_data": {
        "InChI": "InChI=1S/C16H12O4/c1-19-12-5-2-10(3-6-12)15-9-14(18)13-7-4-11(17)8-16(13)20-15/h2-9,17H,1H3",
        "InChIKey": null,
        "Canonical SMILES": "O=C1C=C(OC2=CC(O)=CC=C12)C=3C=CC(OC)=CC3",
        "Molecular Formula": "C<sub>16</sub>H<sub>12</sub>O<sub>4</sub>",
        "Molecular Mass": "268.26",
        "Melting Point": "263-263.5 °C"
    }
}