{
    "cas_no": "398-71-0",
    "key_name": "2-Ethyl-4-fluorophenol",
    "cn_name": "2-乙基-4-氟苯酚;2-乙基-4-氟苯酚;",
    "alternate_name": "Phenol, 2-ethyl-4-fluoro-;2-Ethyl-4-fluorophenol;4-Fluoro-2-ethylphenol",
    "duplicated_cas_no": "",
    "SMILES": "C(C)C1=C(O)C=CC(F)=C1",
    "meta_data": {
        "InChI": "InChI=1S/C8H9FO/c1-2-6-5-7(9)3-4-8(6)10/h3-5,10H,2H2,1H3",
        "InChIKey": null,
        "Canonical SMILES": "FC1=CC=C(O)C(=C1)CC",
        "Molecular Formula": "C<sub>8</sub>H<sub>9</sub>FO",
        "Molecular Mass": "140.15",
        "Boiling Point": "64-65 °C @ Press: 3 Torr",
        "Density": "1.124 g/cm³"
    }
}