{
    "cas_no": "50488-89-6",
    "key_name": "3-[(β-<span class=\"text-smallcaps\">D</span>-Glucopyranosyloxy)methyl]-1,8-dihydroxy-9,10-anthracenedione",
    "cn_name": null,
    "alternate_name": "9,10-Anthracenedione, 3-[(β-<span class=\"text-smallcaps\">D</span>-glucopyranosyloxy)methyl]-1,8-dihydroxy-;3-[(β-<span class=\"text-smallcaps\">D</span>-Glucopyranosyloxy)methyl]-1,8-dihydroxy-9,10-anthracenedione",
    "duplicated_cas_no": "",
    "SMILES": "O=C1C=2C(C(=O)C=3C1=CC=CC3O)=C(O)C=C(CO[C@@H]4O[C@H](CO)[C@@H](O)[C@H](O)[C@H]4O)C2",
    "meta_data": {
        "InChI": "InChI=1S/C21H20O10/c22-6-13-17(26)19(28)20(29)21(31-13)30-7-8-4-10-15(12(24)5-8)18(27)14-9(16(10)25)2-1-3-11(14)23/h1-5,13,17,19-24,26,28-29H,6-7H2/t13-,17-,19+,20-,21-/m1/s1",
        "InChIKey": null,
        "Canonical SMILES": "O=C1C=2C=CC=C(O)C2C(=O)C3=C(O)C=C(C=C13)COC4OC(CO)C(O)C(O)C4O",
        "Molecular Formula": "C<sub>21</sub>H<sub>20</sub>O<sub>10</sub>",
        "Molecular Mass": "432.38",
        "Melting Point": "187-189 °C"
    }
}