{
    "cas_no": "5978-08-5",
    "key_name": "2-(3-Chloropropyl)-2-methyl-1,3-dioxolane",
    "cn_name": "5-氯-2-戊酮乙烯缩酮;",
    "alternate_name": "1,3-Dioxolane, 2-(3-chloropropyl)-2-methyl-;2-(3-Chloropropyl)-2-methyl-1,3-dioxolane;2,2-(Ethylenedioxy)-5-chloropentane;5-Chloro-2-pentanone cyclic ethylene ketal;4,4-(Ethylenedioxy)pentyl chloride;5-Chloropentan-2-one ethylene acetal;1-Chloro-4,4-(ethylenedioxy)pentane;NSC 135783;2-(3′-Chloropropyl)-2-methyl-1,3-dioxolane",
    "duplicated_cas_no": "154615-79-9",
    "SMILES": "C(CCCl)C1(C)OCCO1",
    "meta_data": {
        "InChI": "InChI=1S/C7H13ClO2/c1-7(3-2-4-8)9-5-6-10-7/h2-6H2,1H3",
        "InChIKey": null,
        "Canonical SMILES": "ClCCCC1(OCCO1)C",
        "Molecular Formula": "C<sub>7</sub>H<sub>13</sub>ClO<sub>2</sub>",
        "Molecular Mass": "164.63",
        "Boiling Point": "94-97 °C @ Press: 20 Torr",
        "Density": "1.098 g/cm³ @ Temp: 25 °C"
    }
}