{
    "cas_no": "624-44-2",
    "key_name": "5-Methyl-2-hexanone oxime",
    "cn_name": "5-甲基-2-己酮肟;甲基异戊基酮肟;",
    "alternate_name": "2-Hexanone, 5-methyl-, oxime;Methyl isoamyl ketoxime;5-Methyl-2-hexanone oxime",
    "duplicated_cas_no": "",
    "SMILES": "C(CCC(C)C)(=NO)C",
    "meta_data": {
        "InChI": "InChI=1S/C7H15NO/c1-6(2)4-5-7(3)8-9/h6,9H,4-5H2,1-3H3",
        "InChIKey": null,
        "Canonical SMILES": "ON=C(C)CCC(C)C",
        "Molecular Formula": "C<sub>7</sub>H<sub>15</sub>NO",
        "Molecular Mass": "129.20",
        "Boiling Point": "195.5 °C"
    }
}