{
    "cas_no": "102-29-4",
    "key_name": "Acetylresorcinol",
    "cn_name": "1,3-苯二醇单乙酸酯;",
    "alternate_name": "1,3-Benzenediol, 1-acetate;Resorcinol, monoacetate;1,3-Benzenediol, monoacetate;Resorcinol, acetate;Acetylresorcinol;Euresol;<em>m</em>-Hydroxyphenyl acetate;Remonol;Resorcin acetate;Resorcin monoacetate;Resorcitate;3-Acetoxyphenol;3-(Acetyloxy)phenol;NSC 40511;Acetic acid 3-hydroxyphenyl ester;(3-Hydroxyphenyl) acetate;3-Hydroxyphenyl acetate",
    "duplicated_cas_no": "",
    "SMILES": "O(C(C)=O)C1=CC(O)=CC=C1",
    "meta_data": {
        "InChI": "InChI=1S/C8H8O3/c1-6(9)11-8-4-2-3-7(10)5-8/h2-5,10H,1H3",
        "InChIKey": null,
        "Canonical SMILES": "O=C(OC=1C=CC=C(O)C1)C",
        "Molecular Formula": "C<sub>8</sub>H<sub>8</sub>O<sub>3</sub>",
        "Molecular Mass": "152.15",
        "Boiling Point": "283 °C"
    }
}