{
    "cas_no": "25560-00-3",
    "key_name": "1-(3-Aminopropyl)-2-pipecoline",
    "cn_name": "1-(3-氨丙基)-2-甲基哌啶;",
    "alternate_name": "1-Piperidinepropanamine, 2-methyl-;2-Pipecoline, 1-(3-aminopropyl)-;2-Methyl-1-piperidinepropanamine;3-(2-Methylpiperidino)propylamine;1-(3-Aminopropyl)-2-methylpiperidine;1-(3-Aminopropyl)-2-pipecoline;1-(3-Aminopropyl)-2-methylhexahydropyridine;3-(2-Methylpiperidin-1-yl)propylamine;3-(2-Methyl-1-piperidinyl)-1-propanamine;<em>N</em>-(3-Aminopropyl)-2-methylpiperidine",
    "duplicated_cas_no": "88334-85-4;1571069-51-6",
    "SMILES": "C(CCN)N1C(C)CCCC1",
    "meta_data": {
        "InChI": "InChI=1S/C9H20N2/c1-9-5-2-3-7-11(9)8-4-6-10/h9H,2-8,10H2,1H3",
        "InChIKey": null,
        "Canonical SMILES": "NCCCN1CCCCC1C",
        "Molecular Formula": "C<sub>9</sub>H<sub>20</sub>N<sub>2</sub>",
        "Molecular Mass": "156.27",
        "Boiling Point": "163-170 °C @ Press: 755 Torr"
    }
}