{
    "cas_no": "165800-04-4",
    "key_name": "Eperezolid",
    "cn_name": null,
    "alternate_name": "Acetamide, <em>N</em>-[[(5<em>S</em>)-3-[3-fluoro-4-[4-(2-hydroxyacetyl)-1-piperazinyl]phenyl]-2-oxo-5-oxazolidinyl]methyl]-;Acetamide, <em>N</em>-[[3-[3-fluoro-4-[4-(hydroxyacetyl)-1-piperazinyl]phenyl]-2-oxo-5-oxazolidinyl]methyl]-, (<em>S</em>)-;Acetamide, <em>N</em>-[[(5<em>S</em>)-3-[3-fluoro-4-[4-(hydroxyacetyl)-1-piperazinyl]phenyl]-2-oxo-5-oxazolidinyl]methyl]-;<em>N</em>-[[(5<em>S</em>)-3-[3-Fluoro-4-[4-(2-hydroxyacetyl)-1-piperazinyl]phenyl]-2-oxo-5-oxazolidinyl]methyl]acetamide;U 100592;Eperezolid;PNU 100592",
    "duplicated_cas_no": "",
    "SMILES": "O=C1N(C2=CC(F)=C(C=C2)N3CCN(C(CO)=O)CC3)C[C@H](CNC(C)=O)O1",
    "meta_data": {
        "InChI": "InChI=1S/C18H23FN4O5/c1-12(25)20-9-14-10-23(18(27)28-14)13-2-3-16(15(19)8-13)21-4-6-22(7-5-21)17(26)11-24/h2-3,8,14,24H,4-7,9-11H2,1H3,(H,20,25)/t14-/m0/s1",
        "InChIKey": null,
        "Canonical SMILES": "O=C1OC(CNC(=O)C)CN1C2=CC=C(C(F)=C2)N3CCN(C(=O)CO)CC3",
        "Molecular Formula": "C<sub>18</sub>H<sub>23</sub>FN<sub>4</sub>O<sub>5</sub>",
        "Molecular Mass": "394.40",
        "Melting Point": "174-176 °C"
    }
}