{
    "cas_no": "40372-72-3",
    "key_name": "Bis[3-(triethoxysilyl)propyl] tetrasulfide",
    "cn_name": "双-[3-(三乙氧基硅)丙基]-四硫化物;",
    "alternate_name": "3,16-Dioxa-8,9,10,11-tetrathia-4,15-disilaoctadecane, 4,4,15,15-tetraethoxy-;4,4,15,15-Tetraethoxy-3,16-dioxa-8,9,10,11-tetrathia-4,15-disilaoctadecane;Si 69;Bis[3-(triethoxysilyl)propyl] tetrasulfide;Si 29;B 2494;3,3′-Bis(triethoxysilylpropyl) tetrasulfide;Bis(3-triethoxysilylpropyl)tetrasulfane;Unisilan 41;Silquest A 1289;KH 846;Bis[γ-(triethoxysilyl)propyl] tetrasulfide;MB 69;A 1289;Silane 69;EF 60;EF 60 (coupling agent);Degussa Si 69;SCA 98;SIB 1825.0;TM 69;Cabrus 4;KBE 849;KBE 846;Z 6940;TESPT;WD 40;WD 40 (coupling agent);KH 845-4;KBE 845;DB 619;Xiameter Z 6940;KH 845-4-2;Bis[triethoxysilylpropyl] tetrasulfide;KH 858;KBM 846;KBE 864;Luvomaxx TESPT;Couplink 89;Bis(triethoxysilylpropyl)tetrasulfane;SG-Si 998;HP 1898B;BTES;Bis(3-(ethoxysilyl)propyl)tetrasulfide;OFS 6940;Xiameter OFS 6940;Bis(3-triethoxisilylpropyl)tetrasulfide;B 803049;BTSPS;KH 69;KH-Si 69;Silanogran SI 69;OFS 6945;Xiameter OFS 6945;HP 669;JH-S 69;Struktol SCA 98CB;SG-Si 1289;HP 669B;Nansil 4",
    "duplicated_cas_no": "154836-48-3;189257-97-4;224045-74-3;727395-70-2;862469-02-1;908238-15-3;1033193-70-2;1351508-69-4;2923322-23-8",
    "SMILES": "[Si](CCCSSSSCCC[Si](OCC)(OCC)OCC)(OCC)(OCC)OCC",
    "meta_data": {
        "InChI": "InChI=1S/C18H42O6S4Si2/c1-7-19-29(20-8-2,21-9-3)17-13-15-25-27-28-26-16-14-18-30(22-10-4,23-11-5)24-12-6/h7-18H2,1-6H3",
        "InChIKey": null,
        "Canonical SMILES": "O(CC)[Si](OCC)(OCC)CCCSSSSCCC[Si](OCC)(OCC)OCC",
        "Molecular Formula": "C<sub>18</sub>H<sub>42</sub>O<sub>6</sub>S<sub>4</sub>Si<sub>2</sub>",
        "Molecular Mass": "538.95",
        "Boiling Point": "250 °C",
        "Density": "1.10 g/cm³"
    }
}