{
    "cas_no": "96517-97-4",
    "key_name": "6,6′-Bis(bromomethyl)-2,2′-bipyridine",
    "cn_name": null,
    "alternate_name": "2,2′-Bipyridine, 6,6′-bis(bromomethyl)-;6,6′-Bis(bromomethyl)-2,2′-bipyridine;6,6′-Bis(bromomethyl)-2,2′-bipyridyl;6,6′-Di(bromomethyl)-2,2′-bipyridine;2-(Bromomethyl)-6-[6-(bromomethyl)pyridin-2-yl]pyridine",
    "duplicated_cas_no": "",
    "SMILES": "C(Br)C1=NC(=CC=C1)C=2N=C(CBr)C=CC2",
    "meta_data": {
        "InChI": "InChI=1S/C12H10Br2N2/c13-7-9-3-1-5-11(15-9)12-6-2-4-10(8-14)16-12/h1-6H,7-8H2",
        "InChIKey": null,
        "Canonical SMILES": "BrCC1=NC(=CC=C1)C=2N=C(C=CC2)CBr",
        "Molecular Formula": "C<sub>12</sub>H<sub>10</sub>Br<sub>2</sub>N<sub>2</sub>",
        "Molecular Mass": "342.03",
        "Melting Point": "180-181 °C"
    }
}