{
    "cas_no": "25084-14-4",
    "key_name": "5-Nitro-2-furoyl chloride",
    "cn_name": "5-硝基-2-糠酰氯;",
    "alternate_name": "2-Furancarbonyl chloride, 5-nitro-;2-Furoyl chloride, 5-nitro-;5-Nitro-2-furancarbonyl chloride;2-(Chlorocarbonyl)-5-nitrofuran;5-Nitrofuroyl chloride;5-Nitro-2-furoyl chloride;NSC 74620",
    "duplicated_cas_no": "",
    "SMILES": "C(Cl)(=O)C=1OC(N(=O)=O)=CC1",
    "meta_data": {
        "InChI": "InChI=1S/C5H2ClNO4/c6-5(8)3-1-2-4(11-3)7(9)10/h1-2H",
        "InChIKey": null,
        "Canonical SMILES": "O=C(Cl)C=1OC(=CC1)N(=O)=O",
        "Molecular Formula": "C<sub>5</sub>H<sub>2</sub>ClNO<sub>4</sub>",
        "Molecular Mass": "175.53",
        "Boiling Point": "137 °C @ Press: 15 Torr",
        "Melting Point": "38 °C"
    }
}