{
    "cas_no": "2082-80-6",
    "key_name": "Tristearyl phosphite",
    "cn_name": "亚磷酸三(十八烷基)脂;",
    "alternate_name": "Phosphorous acid, trioctadecyl ester;Octadecyl phosphite ((C<sub>18</sub>H<sub>37</sub>O)<sub>3</sub>P);Trioctadecyl phosphite;Tristearyl phosphite;Tris(octadecyl) phosphite;JP 318;Weston TSP;JP 318E;Chelex S;NSC 65487;ADK Stab 3012",
    "duplicated_cas_no": "",
    "SMILES": "P(OCCCCCCCCCCCCCCCCCC)(OCCCCCCCCCCCCCCCCCC)OCCCCCCCCCCCCCCCCCC",
    "meta_data": {
        "InChI": "InChI=1S/C54H111O3P/c1-4-7-10-13-16-19-22-25-28-31-34-37-40-43-46-49-52-55-58(56-53-50-47-44-41-38-35-32-29-26-23-20-17-14-11-8-5-2)57-54-51-48-45-42-39-36-33-30-27-24-21-18-15-12-9-6-3/h4-54H2,1-3H3",
        "InChIKey": null,
        "Canonical SMILES": "O(P(OCCCCCCCCCCCCCCCCCC)OCCCCCCCCCCCCCCCCCC)CCCCCCCCCCCCCCCCCC",
        "Molecular Formula": "C<sub>54</sub>H<sub>111</sub>O<sub>3</sub>P",
        "Molecular Mass": "839.43",
        "Melting Point": "40 °C"
    }
}