{
    "cas_no": "3073-59-4",
    "key_name": "Hexamethylene bisacetamide",
    "cn_name": "N,N\"-二乙酰基-1,6-二氨基己烷;",
    "alternate_name": "Acetamide, <em>N</em>,<em>N</em>′-1,6-hexanediylbis-;Acetamide, <em>N</em>,<em>N</em>′-hexamethylenebis-;<em>N</em>,<em>N</em>′-1,6-Hexanediylbis[acetamide];Hexamethylenediacetamide;<em>N</em>,<em>N</em>′-Diacetylhexamethylenediamine;<em>N</em>,<em>N</em>′-Hexamethylenebisacetamide;Hexamethylene bisacetamide;DADH;HMBA;NSC 95580;1,6-Hexanebisacetoacetamide;<em>N</em>,<em>N</em>′-1,6-Hexamethylenebis(acetamide)",
    "duplicated_cas_no": "146696-00-6",
    "SMILES": "C(NC(C)=O)CCCCCNC(C)=O",
    "meta_data": {
        "InChI": "InChI=1S/C10H20N2O2/c1-9(13)11-7-5-3-4-6-8-12-10(2)14/h3-8H2,1-2H3,(H,11,13)(H,12,14)",
        "InChIKey": null,
        "Canonical SMILES": "O=C(NCCCCCCNC(=O)C)C",
        "Molecular Formula": "C<sub>10</sub>H<sub>20</sub>N<sub>2</sub>O<sub>2</sub>",
        "Molecular Mass": "200.28",
        "Boiling Point": "208 °C @ Press: 0.3 Torr",
        "Melting Point": "125 °C"
    }
}