{
    "cas_no": "1313-84-4",
    "key_name": "Sodium sulfide nonahydrate",
    "cn_name": "硫化钠;硫化碱;九水硫化钠;",
    "alternate_name": "Sodium sulfide (Na<sub>2</sub>S), nonahydrate;Sodium monosulfide nonahydrate;Sodium sulfide enneahydrate;Sodium sulfide nonahydrate;Disodium sulfide nonahydrate",
    "duplicated_cas_no": "2417655-33-3;2590637-84-4",
    "SMILES": "S([Na])[Na].O",
    "meta_data": {
        "InChI": "InChI=1S/2Na.9H2O.S/h;;9*1H2;",
        "InChIKey": null,
        "Canonical SMILES": "[Na]S[Na].O",
        "Molecular Formula": "H<sub>2</sub>O.<sup>1</sup>/<sub>9</sub>Na<sub>2</sub>S",
        "Molecular Mass": "",
        "Melting Point": "52 °C",
        "Density": "1.43 g/cm³"
    }
}