{
    "cas_no": "1541-67-9",
    "key_name": "Lauryldiethanolamine",
    "cn_name": "N-十二烷基乙醇胺;",
    "alternate_name": "Ethanol, 2,2′-(dodecylimino)bis-;Ethanol, 2,2′-(dodecylimino)di-;2,2′-(Dodecylimino)bis[ethanol];<em>N</em>,<em>N</em>-Bis(2-hydroxyethyl)laurylamine;Dodecylbis(hydroxyethyl)amine;<em>N</em>-Dodecyldiethanolamine;Lauryldiethanolamine;Bis(hydroxyethyl)dodecylamine;<em>N</em>,<em>N</em>-Bis(hydroxyethyl)laurylamine;Dodecyldiethanolamine;2,2′-(Dodecylimino)diethanol;Bis(β-hydroxyethyl)laurylamine;2,2′-(Laurylimino)diethanol;<em>N</em>,<em>N</em>-Bis(2-hydroxyethyl)dodecylamine;Dodecylbis(2-hydroxyethyl)amine;Bis(2-hydroxyethyl)dodecylamine;<em>N</em>-Lauryldiethanolamine;<em>N</em>,<em>N</em>-Bis(2-hydroxyethyl)lauramine;Bis(2-hydroxyethyl)laurylamine;<em>N</em>,<em>N</em>-Bis(hydroxyethyl)dodecanamine;<em>N</em>,<em>N</em>-Di(hydroxyethyl)laurylamine;NSC 525737;Elest EA;TB 128K;Fentacare 1202;<em>N</em>-Lauryl-<em>N</em>,<em>N</em>-diethanolamine;Dodecyldiethoxylamine;<em>N</em>,<em>N</em>-Dihydroxyethyl-1-dodecanamine;2,2′-(Dodecylazanediyl)diethanol;2-[Dodecyl(2-hydroxyethyl)amino]ethan-1-ol;2-[Dodecyl(2-hydroxyethyl)amino]ethanol",
    "duplicated_cas_no": "173104-11-5;1079914-70-7",
    "SMILES": "N(CCCCCCCCCCCC)(CCO)CCO",
    "meta_data": {
        "InChI": "InChI=1S/C16H35NO2/c1-2-3-4-5-6-7-8-9-10-11-12-17(13-15-18)14-16-19/h18-19H,2-16H2,1H3",
        "InChIKey": null,
        "Canonical SMILES": "OCCN(CCO)CCCCCCCCCCCC",
        "Molecular Formula": "C<sub>16</sub>H<sub>35</sub>NO<sub>2</sub>",
        "Molecular Mass": "273.45",
        "Boiling Point": "190-200 °C @ Press: 3 Torr",
        "Melting Point": "18.7-20.9 °C",
        "Density": "0.9221 g/cm³ @ Temp: 25 °C"
    }
}