{
    "cas_no": "2788-28-5",
    "key_name": "1-Propanaminium, 3-cyano-2-hydroxy-<em>N</em>,<em>N</em>,<em>N</em>-trimethyl-, chloride (1:1), (2<em>R</em>)-",
    "cn_name": "(R)-3-Cyano-2-hydroxy-N,N,N-trimethyl-1-propanaminiumchloride;",
    "alternate_name": "1-Propanaminium, 3-cyano-2-hydroxy-<em>N</em>,<em>N</em>,<em>N</em>-trimethyl-, chloride (1:1), (2<em>R</em>)-;1-Propanaminium, 3-cyano-2-hydroxy-<em>N</em>,<em>N</em>,<em>N</em>-trimethyl-, chloride, (<em>R</em>)-;Ammonium, (3-cyano-2-hydroxypropyl)trimethyl-, chloride, (-)-;1-Propanaminium, 3-cyano-2-hydroxy-<em>N</em>,<em>N</em>,<em>N</em>-trimethyl-, chloride, (2<em>R</em>)-;Ammonium, (3-cyano-2-hydroxypropyl)trimethyl-, chloride, <span class=\"text-smallcaps\">L</span>-;[(2R)-3-Cyano-2-hydroxypropyl]trimethylazanium chloride;(2R)-(-)-3-Cyano-2-hydroxypropyltrimethylammonium chloride",
    "duplicated_cas_no": "",
    "SMILES": "[C@H](C[N+](C)(C)C)(CC#N)O.[Cl-]",
    "meta_data": {
        "InChI": "InChI=1S/C7H15N2O.ClH/c1-9(2,3)6-7(10)4-5-8;/h7,10H,4,6H2,1-3H3;1H/q+1;/p-1/t7-;/m1./s1",
        "InChIKey": null,
        "Canonical SMILES": "[Cl-].N#CCC(O)C[N+](C)(C)C",
        "Molecular Formula": "C<sub>7</sub>H<sub>15</sub>N<sub>2</sub>O.Cl",
        "Molecular Mass": "",
        "Melting Point": "246.7-247.9 °C"
    }
}