{
    "cas_no": "7499-08-3",
    "key_name": "3-Chloro-2-methylbenzoic acid",
    "cn_name": "3-氯-2-甲基苯甲酸;",
    "alternate_name": "Benzoic acid, 3-chloro-2-methyl-;<em>o</em>-Toluic acid, 3-chloro-;3-Chloro-2-methylbenzoic acid;2-Methyl-3-chlorobenzoic acid;NSC 407522",
    "duplicated_cas_no": "",
    "SMILES": "C(O)(=O)C1=C(C)C(Cl)=CC=C1",
    "meta_data": {
        "InChI": "InChI=1S/C8H7ClO2/c1-5-6(8(10)11)3-2-4-7(5)9/h2-4H,1H3,(H,10,11)",
        "InChIKey": null,
        "Canonical SMILES": "O=C(O)C=1C=CC=C(Cl)C1C",
        "Molecular Formula": "C<sub>8</sub>H<sub>7</sub>ClO<sub>2</sub>",
        "Molecular Mass": "170.59",
        "Melting Point": "102 °C"
    }
}