{
    "cas_no": "6979-97-1",
    "key_name": "Thymidine, 3′,5′-diacetate",
    "cn_name": "3,5-邸-O-乙酰胸苷;3,5-邸-O-乙酰胸苷;",
    "alternate_name": "Thymidine, 3′,5′-diacetate;3′,5′-Di-<em>O</em>-acetylthymidine;3′,5′-Diacetylthymidine;3′,5′-Diacetyl-5-methyl-2′-deoxyuridine;Di-<em>O</em>-acetylthymidine;NSC 526766;NSC 67672",
    "duplicated_cas_no": "",
    "SMILES": "O=C1N([C@@H]2O[C@H](COC(C)=O)[C@@H](OC(C)=O)C2)C=C(C)C(=O)N1",
    "meta_data": {
        "InChI": "InChI=1S/C14H18N2O7/c1-7-5-16(14(20)15-13(7)19)12-4-10(22-9(3)18)11(23-12)6-21-8(2)17/h5,10-12H,4,6H2,1-3H3,(H,15,19,20)/t10-,11+,12+/m0/s1",
        "InChIKey": null,
        "Canonical SMILES": "O=C(OCC1OC(N2C=C(C(=O)NC2=O)C)CC1OC(=O)C)C",
        "Molecular Formula": "C<sub>14</sub>H<sub>18</sub>N<sub>2</sub>O<sub>7</sub>",
        "Molecular Mass": "326.30",
        "Melting Point": "126-127 °C"
    }
}