{
    "cas_no": "1005-02-3",
    "key_name": "2-Pyridinecarboximidic acid, hydrazide",
    "cn_name": null,
    "alternate_name": "2-Pyridinecarboximidic acid, hydrazide;Picolinimidic acid, hydrazide;2-Pyridylamidrazone;NSC 101642;2-Pyridinecarboxamidrazone;Picolinamidrazone;Picolinic acid amidrazone;2-Picolinamidrazone;Pyridine-2-carboxamide hydrazone;Picolinamide hydrazone;Pyridine-2-carboximidohydrazide;2-Pyridine amidrazone;Pyridine-2-hydrazidine",
    "duplicated_cas_no": "53612-72-9",
    "SMILES": "C(NN)(=N)C1=CC=CC=N1",
    "meta_data": {
        "InChI": "InChI=1S/C6H8N4/c7-6(10-8)5-3-1-2-4-9-5/h1-4H,8H2,(H2,7,10)",
        "InChIKey": null,
        "Canonical SMILES": "N=C(NN)C1=NC=CC=C1",
        "Molecular Formula": "C<sub>6</sub>H<sub>8</sub>N<sub>4</sub>",
        "Molecular Mass": "136.15",
        "Melting Point": "95-96 °C"
    }
}