{
    "cas_no": "79886-50-3",
    "key_name": "1,2,3,6-Tetra-<em>O</em>-galloyl-β-<span class=\"text-smallcaps\">D</span>-glucose",
    "cn_name": null,
    "alternate_name": "β-<span class=\"text-smallcaps\">D</span>-Glucopyranose, 1,2,3,6-tetrakis(3,4,5-trihydroxybenzoate);1,2,3,6-Tetra-<em>O</em>-galloyl-β-<span class=\"text-smallcaps\">D</span>-glucopyranose;β-<span class=\"text-smallcaps\">D</span>-Glucopyranose 1,2,3,6-tetragallate;1(β),2,3,6-Tetra-<em>O</em>-galloylglucose;1,2,3,6-Tetra-<em>O</em>-galloyl-β-<span class=\"text-smallcaps\">D</span>-glucose;NP 003686;Tetra-<em>O</em>-galloyl-β-<span class=\"text-smallcaps\">D</span>-glucose (TGG);Tetra-<em>O</em>-galloyl-β-<span class=\"text-smallcaps\">D</span>-glucose;TGG",
    "duplicated_cas_no": "84297-48-3",
    "SMILES": "O(C(=O)C1=CC(O)=C(O)C(O)=C1)[C@@H]2[C@@H](OC(=O)C3=CC(O)=C(O)C(O)=C3)[C@H](O)[C@@H](COC(=O)C4=CC(O)=C(O)C(O)=C4)O[C@H]2OC(=O)C5=CC(O)=C(O)C(O)=C5",
    "meta_data": {
        "InChI": "InChI=1S/C34H28O22/c35-14-1-10(2-15(36)23(14)43)30(48)52-9-22-27(47)28(54-31(49)11-3-16(37)24(44)17(38)4-11)29(55-32(50)12-5-18(39)25(45)19(40)6-12)34(53-22)56-33(51)13-7-20(41)26(46)21(42)8-13/h1-8,22,27-29,34-47H,9H2/t22-,27-,28+,29-,34+/m1/s1",
        "InChIKey": null,
        "Canonical SMILES": "O=C(OCC1OC(OC(=O)C2=CC(O)=C(O)C(O)=C2)C(OC(=O)C3=CC(O)=C(O)C(O)=C3)C(OC(=O)C4=CC(O)=C(O)C(O)=C4)C1O)C5=CC(O)=C(O)C(O)=C5",
        "Molecular Formula": "C<sub>34</sub>H<sub>28</sub>O<sub>22</sub>",
        "Molecular Mass": "788.57",
        "Melting Point": "198-200 °C"
    }
}