{
    "cas_no": "5439-14-5",
    "key_name": "3,4-Dihydro-2<em>H</em>-pyrido[1,2-<em>a</em>]pyrimidin-2-one",
    "cn_name": "3,4-二氢-2H-吡啶并[1,2-D]嘧啶-2-酮;3,4-二氢-2H-吡啶并[1,2-D]嘧啶-2-酮;",
    "alternate_name": "2<em>H</em>-Pyrido[1,2-<em>a</em>]pyrimidin-2-one, 3,4-dihydro-;3,4-Dihydro-2<em>H</em>-pyrido[1,2-<em>a</em>]pyrimidin-2-one;NSC 15063;2<em>H</em>,3<em>H</em>,4<em>H</em>-Pyrido[1,2-<em>a</em>]pyrimidin-2-one",
    "duplicated_cas_no": "",
    "SMILES": "O=C1N=C2N(CC1)C=CC=C2",
    "meta_data": {
        "InChI": "InChI=1S/C8H8N2O/c11-8-4-6-10-5-2-1-3-7(10)9-8/h1-3,5H,4,6H2",
        "InChIKey": null,
        "Canonical SMILES": "O=C1N=C2C=CC=CN2CC1",
        "Molecular Formula": "C<sub>8</sub>H<sub>8</sub>N<sub>2</sub>O",
        "Molecular Mass": "148.16",
        "Melting Point": "188-190 °C"
    }
}