{
    "cas_no": "15351-13-0",
    "key_name": "Nicofuranose",
    "cn_name": null,
    "alternate_name": "β-<span class=\"text-smallcaps\">D</span>-Fructofuranose, 1,3,4,6-tetra-3-pyridinecarboxylate;Fructofuranose, 1,3,4,6-tetranicotinate, β-<span class=\"text-smallcaps\">D</span>-;Nicofuranose;Bradilan;1,3,4,6-Tetranicotinoylfructofuranose;Buclidan;Cardilan;ES 304;Vasperdil;Cardilan (ester);<span class=\"text-smallcaps\">L</span>-Nicofuranosum",
    "duplicated_cas_no": "51752-09-1",
    "SMILES": "O(C(=O)C=1C=CC=NC1)[C@H]2[C@H](OC(=O)C=3C=CC=NC3)[C@@H](COC(=O)C=4C=CC=NC4)O[C@@]2(COC(=O)C=5C=CC=NC5)O",
    "meta_data": {
        "InChI": "InChI=1S/C30H24N4O10/c35-26(19-5-1-9-31-13-19)40-17-23-24(42-28(37)21-7-3-11-33-15-21)25(43-29(38)22-8-4-12-34-16-22)30(39,44-23)18-41-27(36)20-6-2-10-32-14-20/h1-16,23-25,39H,17-18H2/t23-,24-,25+,30-/m1/s1",
        "InChIKey": null,
        "Canonical SMILES": "O=C(OCC1OC(O)(COC(=O)C=2C=NC=CC2)C(OC(=O)C=3C=NC=CC3)C1OC(=O)C=4C=NC=CC4)C=5C=NC=CC5",
        "Molecular Formula": "C<sub>30</sub>H<sub>24</sub>N<sub>4</sub>O<sub>10</sub>",
        "Molecular Mass": "600.53",
        "Melting Point": "141 °C"
    }
}