{
    "cas_no": "3036-16-6",
    "key_name": "Serotonin oxalate",
    "cn_name": null,
    "alternate_name": "1<em>H</em>-Indol-5-ol, 3-(2-aminoethyl)-, ethanedioate (1:1);Indol-5-ol, 3-(2-aminoethyl)-, oxalate (1:1) (salt);1<em>H</em>-Indol-5-ol, 3-(2-aminoethyl)-, ethanedioate (1:1) (salt);Indol-5-ol, 3-(2-aminoethyl)-, oxalate;5-Hydroxytryptamine oxalate;Serotonin hydrogen oxalate;Serotonin bioxalate;5-Hydroxytryptamine bioxalate;Serotonin oxalate;5-Hydroxytryptamine binoxalate;5-HT oxalate",
    "duplicated_cas_no": "",
    "SMILES": "C(C(O)=O)(O)=O.C(CN)C=1C=2C(NC1)=CC=C(O)C2",
    "meta_data": {
        "InChI": "InChI=1S/C10H12N2O.C2H2O4/c11-4-3-7-6-12-10-2-1-8(13)5-9(7)10;3-1(4)2(5)6/h1-2,5-6,12-13H,3-4,11H2;(H,3,4)(H,5,6)",
        "InChIKey": null,
        "Canonical SMILES": "O=C(O)C(=O)O.OC=1C=CC=2NC=C(C2C1)CCN",
        "Molecular Formula": "C<sub>10</sub>H<sub>12</sub>N<sub>2</sub>O.C<sub>2</sub>H<sub>2</sub>O<sub>4</sub>",
        "Molecular Mass": "",
        "Melting Point": "195-197 °C"
    }
}