{
    "cas_no": "534-59-8",
    "key_name": "Butylmalonic acid",
    "cn_name": "丁基丙二酸;",
    "alternate_name": "Propanedioic acid, 2-butyl-;Malonic acid, butyl-;Propanedioic acid, butyl-;2-Butylpropanedioic acid;<em>n</em>-Butylmalonic acid;1,1-Pentanedicarboxylic acid;2-<em>n</em>-Butylmalonic acid;Butylmalonic acid;2-Butylmalonic acid;α-Carboxycaproic acid;NSC 791",
    "duplicated_cas_no": "",
    "SMILES": "C(CCCC)(C(O)=O)C(O)=O",
    "meta_data": {
        "InChI": "InChI=1S/C7H12O4/c1-2-3-4-5(6(8)9)7(10)11/h5H,2-4H2,1H3,(H,8,9)(H,10,11)",
        "InChIKey": null,
        "Canonical SMILES": "O=C(O)C(C(=O)O)CCCC",
        "Molecular Formula": "C<sub>7</sub>H<sub>12</sub>O<sub>4</sub>",
        "Molecular Mass": "160.17",
        "Boiling Point": "237.5 °C",
        "Melting Point": "104.5 °C"
    }
}