{
    "cas_no": "3698-83-7",
    "key_name": "1,3-Dichloro-4,6-dinitrobenzene",
    "cn_name": null,
    "alternate_name": "Benzene, 1,5-dichloro-2,4-dinitro-;1,5-Dichloro-2,4-dinitrobenzene;2,4-Dichloro-1,5-dinitrobenzene;1,3-Dichloro-4,6-dinitrobenzene;4,6-Dichloro-1,3-dinitrobenzene;4,6-Dinitro-1,3-dichlorobenzene;NSC 28971;2,6-Dichloro-3,5-dinitrobenzene",
    "duplicated_cas_no": "",
    "SMILES": "N(=O)(=O)C1=CC(N(=O)=O)=C(Cl)C=C1Cl",
    "meta_data": {
        "InChI": "InChI=1S/C6H2Cl2N2O4/c7-3-1-4(8)6(10(13)14)2-5(3)9(11)12/h1-2H",
        "InChIKey": null,
        "Canonical SMILES": "O=N(=O)C=1C=C(C(Cl)=CC1Cl)N(=O)=O",
        "Molecular Formula": "C<sub>6</sub>H<sub>2</sub>Cl<sub>2</sub>N<sub>2</sub>O<sub>4</sub>",
        "Molecular Mass": "237.00",
        "Melting Point": "103 °C"
    }
}