{
    "cas_no": "514-47-6",
    "key_name": "(+)-Euphol",
    "cn_name": null,
    "alternate_name": "Lanosta-8,24-dien-3-ol, (3β,13α,14β,17α)-;13α,14β,17β<span class=\"text-smallcaps\">H</span>-Lanosta-8,24-dien-3β-ol;Euphol;(3β,13α,14β,17α)-Lanosta-8,24-dien-3-ol;Euphadienol;Eupha-8,24-dienol;5α-Eupha-8,24-dien-3β-ol;(+)-Euphol;Eupha-8,24-dien-3β-ol;(+)-Eupha-8,24-dien-3β-ol;NSC 36571;α-Euphol",
    "duplicated_cas_no": "13879-03-3",
    "SMILES": "C[C@@]12C3=C([C@]4(C)[C@@](CC3)(C(C)(C)[C@@H](O)CC4)[H])CC[C@@]1(C)[C@]([C@@H](CCC=C(C)C)C)(CC2)[H]",
    "meta_data": {
        "InChI": "InChI=1S/C30H50O/c1-20(2)10-9-11-21(3)22-14-18-30(8)24-12-13-25-27(4,5)26(31)16-17-28(25,6)23(24)15-19-29(22,30)7/h10,21-22,25-26,31H,9,11-19H2,1-8H3/t21-,22+,25+,26+,28-,29+,30-/m1/s1",
        "InChIKey": null,
        "Canonical SMILES": "OC1CCC2(C3=C(CCC2C1(C)C)C4(C)CCC(C(C)CCC=C(C)C)C4(C)CC3)C",
        "Molecular Formula": "C<sub>30</sub>H<sub>50</sub>O",
        "Molecular Mass": "426.72",
        "Melting Point": "116 °C"
    }
}