{
    "cas_no": "7372-88-5",
    "key_name": "4-Methyldibenzothiophene",
    "cn_name": "4-甲基二苯并噻吩;对甲基二苯并噻吩;",
    "alternate_name": "Dibenzothiophene, 4-methyl-;4-Methyldibenzothiophene;4-Methyldibenzo[<em>b</em>,<em>d</em>]thiophene;4-MDBT",
    "duplicated_cas_no": "",
    "SMILES": "CC1=C2C(C=3C(S2)=CC=CC3)=CC=C1",
    "meta_data": {
        "InChI": "InChI=1S/C13H10S/c1-9-5-4-7-11-10-6-2-3-8-12(10)14-13(9)11/h2-8H,1H3",
        "InChIKey": null,
        "Canonical SMILES": "S1C=2C=CC=CC2C=3C=CC=C(C13)C",
        "Molecular Formula": "C<sub>13</sub>H<sub>10</sub>S",
        "Molecular Mass": "198.28",
        "Boiling Point": "&gt;334 °C",
        "Melting Point": "66.5 °C",
        "Density": "1.27 g/cm³"
    }
}