{
    "cas_no": "618-36-0",
    "key_name": "1-Phenylethylamine",
    "cn_name": "alpha-甲基苄胺;DL-alpha-苯乙胺;",
    "alternate_name": "Benzenemethanamine, α-methyl-;Benzylamine, α-methyl-, (±)-;Benzenemethanamine, α-methyl-, (±)-;Benzylamine, α-methyl-, <em>dl</em>-;α-Methylbenzenemethanamine;(±)-1-Phenethylamine;(±)-α-Phenylethylamine;<span class=\"text-smallcaps\">D</smallcap><smallcap>L</span>-1-Phenylethylamine;(±)-α-Methylbenzylamine;(±)-1-Phenylethylamine;<span class=\"text-smallcaps\">D</smallcap><smallcap>L</span>-α-Methylbenzylamine;<em>dl</em>-α-Phenylethylamine;(±)-1-Amino-1-phenylethane;(<em>RS</em>)-α-Methylbenzylamine;<em>dl</em>-α-Methylbenzylamine;<em>dl</em>-α-Phenethylamine;<em>dl</em>-1-Phenylethylamine;<span class=\"text-smallcaps\">D</smallcap><smallcap>L</span>-α-Phenylethylamine;(±)-α-Methylbenzenemethanamine;(<em>RS</em>)-1-Phenylethylamine;(±)-α-Phenethylamine;(RS)-1-Phenylethylamine;(±)-Phenylethylamine;α-Methylbenzylamine;α-Phenylethylamine;α-Phenethylamine;1-Amino-1-phenylethane;Ethanamine, 1-phenyl-;1-Phenylethylamine;1-Phenylethanamine;1-Phenyl-1-ethanamine;(1-Aminoethyl)benzene;APEA;α-Aminoethylbenzene;NSC 8391",
    "duplicated_cas_no": "98-84-0",
    "SMILES": "C(C)(N)C1=CC=CC=C1",
    "meta_data": {
        "InChI": "InChI=1S/C8H11N/c1-7(9)8-5-3-2-4-6-8/h2-7H,9H2,1H3",
        "InChIKey": null,
        "Canonical SMILES": "NC(C=1C=CC=CC1)C",
        "Molecular Formula": "C<sub>8</sub>H<sub>11</sub>N",
        "Molecular Mass": "121.18",
        "Boiling Point": "187 °C",
        "Melting Point": "32 °C",
        "Density": "0.9458 g/cm³ @ Temp: 24 °C"
    }
}