{
    "cas_no": "5945-86-8",
    "key_name": "Nimbin",
    "cn_name": null,
    "alternate_name": "2<em>H</em>-Cyclopenta[<em>b</em>]naphtho[2,3-<em>d</em>]furan-10-acetic acid, 5-(acetyloxy)-2-(3-furanyl)-3,3a,4a,5,5a,6,9,9a,10,10a-decahydro-6-(methoxycarbonyl)-1,6,9a,10a-tetramethyl-9-oxo-, methyl ester, (2<em>R</em>,3a<em>R</em>,4a<em>S</em>,5<em>R</em>,5a<em>R</em>,6<em>R</em>,9a<em>R</em>,10<em>S</em>,10a<em>R</em>)-;2<em>H</em>-Cyclopenta[<em>b</em>]naphtho[2,3-<em>d</em>]furan-10-acetic acid, 6α-carboxy-2α-(3-furyl)-3,3aα,4aβ,5,5aα,6,9,9a,10α,10a-decahydro-5α-hydroxy-1,6,9aβ,10aβ-tetramethyl-9-oxo-, dimethyl ester, acetate;Nimbin;18,24-Dinor-11,12-secochola-2,13,20,22-tetraene-4,11-dicarboxylic acid, 6-(acetyloxy)-7,15:21,23-diepoxy-4,8-dimethyl-1-oxo-, dimethyl ester, (4α,5α,6α,7α,15β,17α)-;2<em>H</em>-Cyclopenta[<em>b</em>]naphtho[2,3-<em>d</em>]furan-10-acetic acid, 6β-carboxy-2α-(3-furyl)-3,3aβ,4aβ,5,5aα,6,9,9a,10,10a-decahydro-5α-hydroxy-1,6,9aβ,10aβ-tetramethyl-9-oxo-, dimethyl ester, acetate;2<em>H</em>-Cyclopenta[<em>b</em>]naphtho[2,3-<em>d</em>]furan-10-acetic acid, 5-(acetyloxy)-2-(3-furanyl)-3,3a,4a,5,5a,6,9,9a,10,10a-decahydro-6-(methoxycarbonyl)-1,6,9a,10a-tetramethyl-9-oxo-, methyl ester, [2<em>R</em>-(2α,3aα,4aβ,5α,5aα,6α,9aβ,10β,10aβ)]-",
    "duplicated_cas_no": "22076-43-3;25990-69-6",
    "SMILES": "C[C@@]12[C@@]([C@H](OC(C)=O)[C@@]3([C@@](C)([C@H]1CC(OC)=O)C(=O)C=C[C@]3(C(OC)=O)C)[H])(O[C@]4(C2=C(C)[C@@H](C4)C=5C=COC5)[H])[H]",
    "meta_data": {
        "InChI": "InChI=1S/C30H36O9/c1-15-18(17-9-11-37-14-17)12-19-23(15)30(5)20(13-22(33)35-6)29(4)21(32)8-10-28(3,27(34)36-7)25(29)24(26(30)39-19)38-16(2)31/h8-11,14,18-20,24-26H,12-13H2,1-7H3/t18-,19-,20-,24-,25+,26-,28-,29+,30-/m1/s1",
        "InChIKey": null,
        "Canonical SMILES": "O=C(OC1C2OC3C(=C(C)C(C4=COC=C4)C3)C2(C)C(CC(=O)OC)C5(C(=O)C=CC(C(=O)OC)(C)C15)C)C",
        "Molecular Formula": "C<sub>30</sub>H<sub>36</sub>O<sub>9</sub>",
        "Molecular Mass": "540.60",
        "Melting Point": "205 °C"
    }
}