{
    "cas_no": "36825-36-2",
    "key_name": "3-Bromo-4-quinolinamine",
    "cn_name": "4-氨基-3-溴喹啉;",
    "alternate_name": "4-Quinolinamine, 3-bromo-;Quinoline, 4-amino-3-bromo-;3-Bromo-4-quinolinamine;4-Amino-3-bromoquinoline;(3-Bromoquinolin-4-yl)amine",
    "duplicated_cas_no": "",
    "SMILES": "NC=1C2=C(N=CC1Br)C=CC=C2",
    "meta_data": {
        "InChI": "InChI=1S/C9H7BrN2/c10-7-5-12-8-4-2-1-3-6(8)9(7)11/h1-5H,(H2,11,12)",
        "InChIKey": null,
        "Canonical SMILES": "BrC1=CN=C2C=CC=CC2=C1N",
        "Molecular Formula": "C<sub>9</sub>H<sub>7</sub>BrN<sub>2</sub>",
        "Molecular Mass": "223.07",
        "Melting Point": "202 °C"
    }
}