{
    "cas_no": "89-46-3",
    "key_name": "Menthyl salicylate",
    "cn_name": "薄荷醇水杨酸酯;",
    "alternate_name": "Benzoic acid, 2-hydroxy-, (1<em>R</em>,2<em>S</em>,5<em>R</em>)-5-methyl-2-(1-methylethyl)cyclohexyl ester, <em>rel</em>-;Salicylic acid, <em>p</em>-menth-3-yl ester;Benzoic acid, 2-hydroxy-, 5-methyl-2-(1-methylethyl)cyclohexyl ester, (1α,2β,5α)-;Menthol, salicylate;Contrasol;Menthyl salicylate;Salimenthol;Sunburn preventive No. 1;Samol",
    "duplicated_cas_no": "25466-32-4",
    "SMILES": "[C@@H](C)(C)[C@H]1[C@H](OC(=O)C2=C(O)C=CC=C2)C[C@H](C)CC1",
    "meta_data": {
        "InChI": "InChI=1/C17H24O3/c1-11(2)13-9-8-12(3)10-16(13)20-17(19)14-6-4-5-7-15(14)18/h4-7,11-13,16,18H,8-10H2,1-3H3/t12-,13+,16-/s2",
        "InChIKey": null,
        "Canonical SMILES": "O=C(OC1CC(C)CCC1C(C)C)C=2C=CC=CC2O",
        "Molecular Formula": "C<sub>17</sub>H<sub>24</sub>O<sub>3</sub>",
        "Molecular Mass": "276.37",
        "Melting Point": "&lt;25 °C"
    }
}