{
    "cas_no": "59483-54-4",
    "key_name": "3-Chloro-2-nitrobenzenamine",
    "cn_name": "3-氯-2-硝基苯胺;",
    "alternate_name": "Benzenamine, 3-chloro-2-nitro-;3-Chloro-2-nitrobenzenamine;3-Chloro-2-nitroaniline;2-Nitro-3-chloroaniline;(3-Chloro-2-nitrophenyl)amine",
    "duplicated_cas_no": "",
    "SMILES": "N(=O)(=O)C1=C(Cl)C=CC=C1N",
    "meta_data": {
        "InChI": "InChI=1S/C6H5ClN2O2/c7-4-2-1-3-5(8)6(4)9(10)11/h1-3H,8H2",
        "InChIKey": null,
        "Canonical SMILES": "O=N(=O)C=1C(Cl)=CC=CC1N",
        "Molecular Formula": "C<sub>6</sub>H<sub>5</sub>ClN<sub>2</sub>O<sub>2</sub>",
        "Molecular Mass": "172.57",
        "Melting Point": "108-109 °C"
    }
}