{
    "cas_no": "635-53-0",
    "key_name": "2-(Carboxymethoxy)benzoic acid",
    "cn_name": "2-(羧基甲氧基)苯甲酸;",
    "alternate_name": "Benzoic acid, 2-(carboxymethoxy)-;<em>o</em>-Anisic acid, α-carboxy-;2-(Carboxymethoxy)benzoic acid;<em>o</em>-(Carboxymethoxy)benzoic acid;Acetic acid, (2-carboxyphenoxy)-;(<em>o</em>-Carboxyphenoxy)acetic acid;(2-Carboxyphenoxy)acetic acid;NSC 1335",
    "duplicated_cas_no": "",
    "SMILES": "O(CC(O)=O)C1=C(C(O)=O)C=CC=C1",
    "meta_data": {
        "InChI": "InChI=1S/C9H8O5/c10-8(11)5-14-7-4-2-1-3-6(7)9(12)13/h1-4H,5H2,(H,10,11)(H,12,13)",
        "InChIKey": null,
        "Canonical SMILES": "O=C(O)C=1C=CC=CC1OCC(=O)O",
        "Molecular Formula": "C<sub>9</sub>H<sub>8</sub>O<sub>5</sub>",
        "Molecular Mass": "196.16",
        "Melting Point": "190 °C"
    }
}