{
    "cas_no": "2439-01-2",
    "key_name": "Chinomethionat",
    "cn_name": "灭螨猛;6-甲基-1,3-二硫戊环并[4,5-b]喹喔啉-2-酮;",
    "alternate_name": "1,3-Dithiolo[4,5-<em>b</em>]quinoxalin-2-one, 6-methyl-;Carbonic acid, dithio-, cyclic <em>S</em>,<em>S</em>-(6-methyl-2,3-quinoxalinediyl) ester;Carbonic acid, dithio-, cyclic <em>S</em>,<em>S</em>-ester with 6-methyl-2,3-quinoxalinedithiol;6-Methyl-1,3-dithiolo[4,5-<em>b</em>]quinoxalin-2-one;Bayer 4964;Bayer 36205;Chinomethionat;Forstan;Morestan;Oxythioquinox;Quinomethionate;Morestane;MQD;BAY 36205;6-Methyl-2,3-quinoxalinedithiol cyclic <em>S</em>,<em>S</em>-dithiocarbonate;6-Methyl-2-oxo-1,3-dithio[4,5-<em>b</em>]quinoxaline;Morestan 2;Cetactaelate;Daisonet XL 21;NSC 379587;Daisonet XL 21S;XL 21S;Oxythroquinox;XL 21;BFL-K 01",
    "duplicated_cas_no": "85188-88-1;113535-72-1;1135442-95-3;1609187-86-1",
    "SMILES": "O=C1SC=2C(=NC=3C(N2)=CC(C)=CC3)S1",
    "meta_data": {
        "InChI": "InChI=1S/C10H6N2OS2/c1-5-2-3-6-7(4-5)12-9-8(11-6)14-10(13)15-9/h2-4H,1H3",
        "InChIKey": null,
        "Canonical SMILES": "O=C1SC=2N=C3C=CC(=CC3=NC2S1)C",
        "Molecular Formula": "C<sub>10</sub>H<sub>6</sub>N<sub>2</sub>OS<sub>2</sub>",
        "Molecular Mass": "234.30",
        "Melting Point": "172 °C"
    }
}