{
    "cas_no": "2050-76-2",
    "key_name": "2,4-Dichloro-1-naphthol",
    "cn_name": "2,4-二氯-1-萘酚;2,4-二氯-1-羟基萘;",
    "alternate_name": "1-Naphthalenol, 2,4-dichloro-;1-Naphthol, 2,4-dichloro-;2,4-Dichloro-1-naphthalenol;2,4-Dichloro-1-naphthol;2,4-Dichloronaphthol;2,4-Dichloro-α-naphthol;NSC 6322",
    "duplicated_cas_no": "",
    "SMILES": "OC=1C2=C(C(Cl)=CC1Cl)C=CC=C2",
    "meta_data": {
        "InChI": "InChI=1S/C10H6Cl2O/c11-8-5-9(12)10(13)7-4-2-1-3-6(7)8/h1-5,13H",
        "InChIKey": null,
        "Canonical SMILES": "ClC=1C=C(Cl)C=2C=CC=CC2C1O",
        "Molecular Formula": "C<sub>10</sub>H<sub>6</sub>Cl<sub>2</sub>O",
        "Molecular Mass": "213.06",
        "Boiling Point": "180 °C",
        "Melting Point": "107.5 °C"
    }
}