{
    "cas_no": "949-42-8",
    "key_name": "2-Methyl-4,6-bis(trichloromethyl)-1,3,5-triazine",
    "cn_name": null,
    "alternate_name": "1,3,5-Triazine, 2-methyl-4,6-bis(trichloromethyl)-;<em>s</em>-Triazine, 2-methyl-4,6-bis(trichloromethyl)-;2-Methyl-4,6-bis(trichloromethyl)-1,3,5-triazine;2-Methyl-4,6-bis(trichloromethyl)-<em>s</em>-triazine;2,4-Bis(trichloromethyl)-6-methyl-<em>s</em>-triazine;NSC 409354;2,4-Bis(trichloromethyl)-6-methyl-1,3,5-triazine",
    "duplicated_cas_no": "",
    "SMILES": "C(Cl)(Cl)(Cl)C=1N=C(C(Cl)(Cl)Cl)N=C(C)N1",
    "meta_data": {
        "InChI": "InChI=1S/C6H3Cl6N3/c1-2-13-3(5(7,8)9)15-4(14-2)6(10,11)12/h1H3",
        "InChIKey": null,
        "Canonical SMILES": "ClC(Cl)(Cl)C1=NC(=NC(=N1)C(Cl)(Cl)Cl)C",
        "Molecular Formula": "C<sub>6</sub>H<sub>3</sub>Cl<sub>6</sub>N<sub>3</sub>",
        "Molecular Mass": "329.83",
        "Boiling Point": "185-186 °C @ Press: 7 Torr",
        "Melting Point": "94.3-95.5 °C"
    }
}