{
    "cas_no": "133-07-3",
    "key_name": "Folpet",
    "cn_name": "灭菌丹;福尔培;N-(三氯甲硫基)酞酰亚胺;N-(三氯甲硫基)邻苯二甲酰亚胺;",
    "alternate_name": "1<em>H</em>-Isoindole-1,3(2<em>H</em>)-dione, 2-[(trichloromethyl)thio]-;Phthalimide, <em>N</em>-[(trichloromethyl)thio]-;2-[(Trichloromethyl)thio]-1<em>H</em>-isoindole-1,3(2<em>H</em>)-dione;Folpet;Ftalan;Orthophaltan;Phaltan;Phthaltan;<em>N</em>-[(Trichloromethyl)thio]phthalimide;Spolacid;Phaltane;Fungitrol 11;Faltan;Folpel;Folpan;Vinicoll;Cosan T;Intercide TMP;Folnit;Orthofaltan 50;Sanfol;Trifol;Ryl;Acryptane;Dipet;MCW 296 SC;2-[(Trichloromethyl)sulfanyl]-2,3-dihydro-1<em>H</em>-isoindole-1,3-dione;Lanzador;MCW 296WG;Folpan 80WDG;Stavento",
    "duplicated_cas_no": "52306-33-9;1135442-81-7",
    "SMILES": "S(C(Cl)(Cl)Cl)N1C(=O)C=2C(C1=O)=CC=CC2",
    "meta_data": {
        "InChI": "InChI=1S/C9H4Cl3NO2S/c10-9(11,12)16-13-7(14)5-3-1-2-4-6(5)8(13)15/h1-4H",
        "InChIKey": null,
        "Canonical SMILES": "O=C1C=2C=CC=CC2C(=O)N1SC(Cl)(Cl)Cl",
        "Molecular Formula": "C<sub>9</sub>H<sub>4</sub>Cl<sub>3</sub>NO<sub>2</sub>S",
        "Molecular Mass": "296.56",
        "Melting Point": "177 °C"
    }
}