{
    "cas_no": "3469-26-9",
    "key_name": "2,7-Dimethoxynaphthalene",
    "cn_name": "2,7-二甲氧基萘;",
    "alternate_name": "Naphthalene, 2,7-dimethoxy-;2,7-Dimethoxynaphthalene;NSC 28991",
    "duplicated_cas_no": "",
    "SMILES": "O(C)C1=CC2=C(C=CC(OC)=C2)C=C1",
    "meta_data": {
        "InChI": "InChI=1S/C12H12O2/c1-13-11-5-3-9-4-6-12(14-2)8-10(9)7-11/h3-8H,1-2H3",
        "InChIKey": null,
        "Canonical SMILES": "O(C=1C=CC2=CC=C(OC)C=C2C1)C",
        "Molecular Formula": "C<sub>12</sub>H<sub>12</sub>O<sub>2</sub>",
        "Molecular Mass": "188.22",
        "Boiling Point": "185-195 °C @ Press: 15 Torr",
        "Melting Point": "138 °C"
    }
}