{
    "cas_no": "603-83-8",
    "key_name": "2-Methyl-3-nitroaniline",
    "cn_name": "2-甲基-3-硝基苯胺;",
    "alternate_name": "Benzenamine, 2-methyl-3-nitro-;<em>o</em>-Toluidine, 3-nitro-;2-Methyl-3-nitrobenzenamine;2-Methyl-3-nitroaniline;2-Amino-6-nitrotoluene;3-Nitro-<em>o</em>-toluidine;6-Nitro-2-aminotoluene;6-Amino-2-nitrotoluene;1-Amino-2-methyl-3-nitrobenzene;NSC 227939;NSC 25011;2-Methyl-3-nitro-phenylamine",
    "duplicated_cas_no": "",
    "SMILES": "N(=O)(=O)C1=C(C)C(N)=CC=C1",
    "meta_data": {
        "InChI": "InChI=1S/C7H8N2O2/c1-5-6(8)3-2-4-7(5)9(10)11/h2-4H,8H2,1H3",
        "InChIKey": null,
        "Canonical SMILES": "O=N(=O)C=1C=CC=C(N)C1C",
        "Molecular Formula": "C<sub>7</sub>H<sub>8</sub>N<sub>2</sub>O<sub>2</sub>",
        "Molecular Mass": "152.15",
        "Boiling Point": "305 °C",
        "Melting Point": "92 °C"
    }
}