{
    "cas_no": "2434-53-9",
    "key_name": "6-Amino-1-methyluracil",
    "cn_name": "6-氨基-1-甲基脲嘧啶;",
    "alternate_name": "2,4(1<em>H</em>,3<em>H</em>)-Pyrimidinedione, 6-amino-1-methyl-;Uracil, 6-amino-1-methyl-;6-Amino-1-methyl-2,4(1<em>H</em>,3<em>H</em>)-pyrimidinedione;1-Methyl-6-aminouracil;6-Amino-1-methyluracil;6-Amino-1-methyl-1<em>H</em>-pyrimidine-2,4-dione;NSC 7369",
    "duplicated_cas_no": "",
    "SMILES": "CN1C(N)=CC(=O)NC1=O",
    "meta_data": {
        "InChI": "InChI=1S/C5H7N3O2/c1-8-3(6)2-4(9)7-5(8)10/h2H,6H2,1H3,(H,7,9,10)",
        "InChIKey": null,
        "Canonical SMILES": "O=C1C=C(N)N(C(=O)N1)C",
        "Molecular Formula": "C<sub>5</sub>H<sub>7</sub>N<sub>3</sub>O<sub>2</sub>",
        "Molecular Mass": "141.13",
        "Melting Point": "306-307 °C"
    }
}