{
    "cas_no": "936250-20-3",
    "key_name": "3-Methylpyrazole-4-boronic acid pinacol ester",
    "cn_name": null,
    "alternate_name": "1<em>H</em>-Pyrazole, 3-methyl-4-(4,4,5,5-tetramethyl-1,3,2-dioxaborolan-2-yl)-;3-Methyl-4-(4,4,5,5-tetramethyl-1,3,2-dioxaborolan-2-yl)-1<em>H</em>-pyrazole;(3-Methyl-1<em>H</em>-pyrazol-4-yl)boronic acid pinacol ester;3-Methylpyrazole-4-boronic acid pinacol ester;4-(4,4,5,5-Tetramethyl-1,3,2-dioxaborolan-2-yl)-3-(methyl)-1<em>H</em>-pyrazole",
    "duplicated_cas_no": "1430754-36-1;1799330-81-6",
    "SMILES": "CC=1C(B2OC(C)(C)C(C)(C)O2)=CNN1",
    "meta_data": {
        "InChI": "InChI=1S/C10H17BN2O2/c1-7-8(6-12-13-7)11-14-9(2,3)10(4,5)15-11/h6H,1-5H3,(H,12,13)",
        "InChIKey": null,
        "Canonical SMILES": "N=1NC=C(B2OC(C)(C)C(O2)(C)C)C1C",
        "Molecular Formula": "C<sub>10</sub>H<sub>17</sub>BN<sub>2</sub>O<sub>2</sub>",
        "Molecular Mass": "208.07",
        "Melting Point": "113-115 °C"
    }
}