{
    "cas_no": "95-82-9",
    "key_name": "2,5-Dichloroaniline",
    "cn_name": "2,5-二氯苯胺;",
    "alternate_name": "Benzenamine, 2,5-dichloro-;Aniline, 2,5-dichloro-;2,5-Dichlorobenzenamine;Amarthol Fast Scarlet GG Base;Amarthol Fast Scarlet GGS Base;Azobase DCA;Azoene Fast Scarlet 2G Base;Azogene Fast Scarlet GGC;Daito Scarlet Base GG;Devol Scarlet 2GS Base;Fast Red SGG Base;Fast Scarlet 2G;Fast Scarlet 2G Base;Fast Scarlet Base 2J;Fast Scarlet Base 2JS;Fast Scarlet Base GGT;Fast Scarlet DS Base;Fast Scarlet GG Base;Fast Scarlet GGS Base;Fast Scarlet MDC Base;2,5-Dichloroaniline;Hiltonil Fast Scarlet 2GS Base;Hiltonil Fast Scarlet 2G Base;Hindamine Scarlet GG;Kambamine Scarlet GG Base;Kayaku Scarlet GG Base;Lake Scarlet GG Base;Mitsui Scarlet GG Base;Naphthanil Scarlet 2G Base;Naphtoelan Fast Scarlet GG Base;Natasol Scarlet GG Salt;Sanyo Fast Scarlet GG Base;Scarlet Base Ciba I;Scarlet Base GG;Scarlet Base NGG;Scarlet Salt Ciba I;Spectrolene Scarlet 2G;Stabamine Scarlet GG;Symulon Scarlet 2G Base;2,5-Dichloro-1-aminobenzene;1-Amino-2,5-dichlorobenzene;2-Amino-1,4-dichlorobenzene;NSC 1492;2,5-Dichlorophenylamine",
    "duplicated_cas_no": "",
    "SMILES": "NC1=C(Cl)C=CC(Cl)=C1",
    "meta_data": {
        "InChI": "InChI=1S/C6H5Cl2N/c7-4-1-2-5(8)6(9)3-4/h1-3H,9H2",
        "InChIKey": null,
        "Canonical SMILES": "ClC1=CC=C(Cl)C(N)=C1",
        "Molecular Formula": "C<sub>6</sub>H<sub>5</sub>Cl<sub>2</sub>N",
        "Molecular Mass": "162.02",
        "Boiling Point": "251 °C",
        "Melting Point": "50 °C",
        "Density": "1.54 g/cm³"
    }
}