{
    "cas_no": "488-45-9",
    "key_name": "<span class=\"text-smallcaps\">L</span>-Iditol",
    "cn_name": "L-艾杜糖醇;",
    "alternate_name": "<span class=\"text-smallcaps\">L</span>-Iditol;Iditol, <span class=\"text-smallcaps\">L</span>-",
    "duplicated_cas_no": "",
    "SMILES": "[C@H]([C@@H]([C@H](CO)O)O)([C@H](CO)O)O",
    "meta_data": {
        "InChI": "InChI=1S/C6H14O6/c7-1-3(9)5(11)6(12)4(10)2-8/h3-12H,1-2H2/t3-,4-,5+,6+/m0/s1",
        "InChIKey": null,
        "Canonical SMILES": "OCC(O)C(O)C(O)C(O)CO",
        "Molecular Formula": "C<sub>6</sub>H<sub>14</sub>O<sub>6</sub>",
        "Molecular Mass": "182.17",
        "Melting Point": "252-256 °C"
    }
}