{
    "cas_no": "3772-55-2",
    "key_name": "Dehydroabietol",
    "cn_name": null,
    "alternate_name": "1-Phenanthrenemethanol, 1,2,3,4,4a,9,10,10a-octahydro-1,4a-dimethyl-7-(1-methylethyl)-, (1<em>R</em>,4a<em>S</em>,10a<em>R</em>)-;Abietyl alcohol, dehydro-;Podocarpa-8,11,13-trien-15-ol, 13-isopropyl-;1-Phenanthrenemethanol, 1,2,3,4,4a,9,10,10a-octahydro-1,4a-dimethyl-7-(1-methylethyl)-, [1<em>R</em>-(1α,4aβ,10aα)]-;Abietinol, dehydro-;(1<em>R</em>,4a<em>S</em>,10a<em>R</em>)-1,2,3,4,4a,9,10,10a-Octahydro-1,4a-dimethyl-7-(1-methylethyl)-1-phenanthrenemethanol;Dehydroabietinol;Dehydroabietol;Dehydroabeityl alcohol;Dehydroabietyl alcohol;Pomiferin A;<em>ar</em>-Abietatrienol;13-Isopropylpodocarpa-8,11,13-trien-15-ol;Dehydroabietanol",
    "duplicated_cas_no": "19426-88-1",
    "SMILES": "C[C@@]12C=3C(CC[C@]1([C@@](CO)(C)CCC2)[H])=CC(C(C)C)=CC3",
    "meta_data": {
        "InChI": "InChI=1S/C20H30O/c1-14(2)15-6-8-17-16(12-15)7-9-18-19(3,13-21)10-5-11-20(17,18)4/h6,8,12,14,18,21H,5,7,9-11,13H2,1-4H3/t18-,19-,20+/m0/s1",
        "InChIKey": null,
        "Canonical SMILES": "OCC1(C)CCCC2(C3=CC=C(C=C3CCC21)C(C)C)C",
        "Molecular Formula": "C<sub>20</sub>H<sub>30</sub>O",
        "Molecular Mass": "286.45",
        "Boiling Point": "177 °C"
    }
}