{
    "cas_no": "25087-26-7",
    "key_name": "Poly(methacrylic acid)",
    "cn_name": null,
    "alternate_name": "2-Propenoic acid, 2-methyl-, homopolymer;Methacrylic acid, polymers;Poly(methacrylic acid);Methacrylic acid polymer;Acryloid AT 101;Darex 41;Methacrylic acid homopolymer;Acrysol 60;Versicol K-II;90TV;Taicrin P;Versicol K 13;Jurymer AC 30H;PMA;Accelar 20;SLPI 400;AC 30H;Daxad 34;PMAA;FX 668F;TP 941;Light Ester A homopolymer;T 602HB;2-Methyl-2-propenoic acid homopolymer;XX 2851Z;Aquatreat AR 235;ME 3498DR;MeSH ID: D011109",
    "duplicated_cas_no": "30679-05-1;115708-68-4;152834-81-6;152834-82-7;155686-80-9;155686-81-0;186901-87-1;276704-22-4;336176-02-4;783341-85-5",
    "SMILES": "C(C(O)=O)(C)=C",
    "meta_data": {
        "InChI": "InChI=1S/C4H6O2/c1-3(2)4(5)6/h1H2,2H3,(H,5,6)",
        "InChIKey": null,
        "Canonical SMILES": "O=C(O)C(=C)C",
        "Molecular Formula": "(C<sub>4</sub>H<sub>6</sub>O<sub>2</sub>)<sub>x</sub>",
        "Molecular Mass": "",
        "Melting Point": "260-270 °C (decomp)",
        "Density": "1.0 g/cm³"
    }
}