{
    "cas_no": "32337-96-5",
    "key_name": "1-Bromo-2-iodo-3-nitrobenzene",
    "cn_name": null,
    "alternate_name": "Benzene, 1-bromo-2-iodo-3-nitro-;1-Bromo-2-iodo-3-nitrobenzene;3-Bromo-2-iodonitrobenzene",
    "duplicated_cas_no": "",
    "SMILES": "N(=O)(=O)C1=C(I)C(Br)=CC=C1",
    "meta_data": {
        "InChI": "InChI=1S/C6H3BrINO2/c7-4-2-1-3-5(6(4)8)9(10)11/h1-3H",
        "InChIKey": null,
        "Canonical SMILES": "O=N(=O)C=1C=CC=C(Br)C1I",
        "Molecular Formula": "C<sub>6</sub>H<sub>3</sub>BrINO<sub>2</sub>",
        "Molecular Mass": "327.90",
        "Melting Point": "120 °C",
        "Density": "2.535 g/cm³ @ Temp: 10 °C"
    }
}