{
    "cas_no": "1863-63-4",
    "key_name": "Ammonium benzoate",
    "cn_name": "苯甲酸铵;安息香酸铵;",
    "alternate_name": "Benzoic acid, ammonium salt (1:1);Benzoic acid, ammonium salt;Ammonium benzoate;Vulnoc AB;Vulnoc ABS",
    "duplicated_cas_no": "14374-89-1",
    "SMILES": "C(O)(=O)C1=CC=CC=C1.N",
    "meta_data": {
        "InChI": "InChI=1S/C7H6O2.H3N/c8-7(9)6-4-2-1-3-5-6;/h1-5H,(H,8,9);1H3",
        "InChIKey": null,
        "Canonical SMILES": "O=C(O)C=1C=CC=CC1.N",
        "Molecular Formula": "C<sub>7</sub>H<sub>6</sub>O<sub>2</sub>.H<sub>3</sub>N",
        "Molecular Mass": "",
        "Melting Point": "198 °C (decomp)",
        "Density": "1.260 g/cm³"
    }
}