{
    "cas_no": "23007-85-4",
    "key_name": "Pyridine, 1,2,3,6-tetrahydro-1-methyl-4-phenyl-, hydrochloride (1:1)",
    "cn_name": "1-甲基-4-苯基-1,2,3,6-四氢吡啶盐酸盐;",
    "alternate_name": "Pyridine, 1,2,3,6-tetrahydro-1-methyl-4-phenyl-, hydrochloride (1:1);Pyridine, 1,2,3,6-tetrahydro-1-methyl-4-phenyl-, hydrochloride;1-Methyl-4-phenyl-1,2,3,6-tetrahydropyridine hydrochloride",
    "duplicated_cas_no": "",
    "SMILES": "CN1CCC(=CC1)C2=CC=CC=C2.Cl",
    "meta_data": {
        "InChI": "InChI=1S/C12H15N.ClH/c1-13-9-7-12(8-10-13)11-5-3-2-4-6-11;/h2-7H,8-10H2,1H3;1H",
        "InChIKey": null,
        "Canonical SMILES": "Cl.C=1C=CC(=CC1)C2=CCN(C)CC2",
        "Molecular Formula": "C<sub>12</sub>H<sub>15</sub>N.ClH",
        "Molecular Mass": "",
        "Melting Point": "241-243 °C"
    }
}