{
    "cas_no": "3542-36-7",
    "key_name": "Dioctyltin dichloride",
    "cn_name": "二辛基二氯化锡;二正辛基锡二氯化物;",
    "alternate_name": "Stannane, dichlorodioctyl-;Dioctyltin dichloride;Tin, dichlorodioctyl-;Dichlorodioctylstannane;Dichlorodioctyltin;Dioctyldichlorotin;Dioctylstannyl dichloride;NSC 102574",
    "duplicated_cas_no": "",
    "SMILES": "[Sn](CCCCCCCC)(CCCCCCCC)(Cl)Cl",
    "meta_data": {
        "InChI": "InChI=1S/2C8H17.2ClH.Sn/c2*1-3-5-7-8-6-4-2;;;/h2*1,3-8H2,2H3;2*1H;/q;;;;+2/p-2",
        "InChIKey": null,
        "Canonical SMILES": "Cl[Sn](Cl)(CCCCCCCC)CCCCCCCC",
        "Molecular Formula": "C<sub>16</sub>H<sub>34</sub>Cl<sub>2</sub>Sn",
        "Molecular Mass": "416.06",
        "Boiling Point": "175 °C @ Press: 1 Torr",
        "Melting Point": "46-48 °C",
        "Density": "1.175 g/cm³"
    }
}