{
    "cas_no": "3605-01-4",
    "key_name": "Piribedil",
    "cn_name": "吡贝地尔;2-[4-(1,3-苯并间二氧杂环戊烯-5-基甲基)哌嗪-1-基]嘧啶;",
    "alternate_name": "Pyrimidine, 2-[4-(1,3-benzodioxol-5-ylmethyl)-1-piperazinyl]-;Pyrimidine, 2-(4-piperonyl-1-piperazinyl)-;2-[4-(1,3-Benzodioxol-5-ylmethyl)-1-piperazinyl]pyrimidine;1-(2-Pyrimidyl)-4-piperonylpiperazine;4-[3,4-(Methylenedioxy)benzyl]-1-(2-pyrimidinyl)piperazine;ET 495;Piribedil;Trivastal;1-(2-Pyrimidyl)-4-(3,4-methylenedioxybenzyl)piperazine;Trivastan;EU 4200;Pronoran;2-(4-(Benzo[<em>d</em>][1,3]dioxol-5-ylmethyl)piperazin-1-yl)pyrimidine",
    "duplicated_cas_no": "",
    "SMILES": "C(C=1C=C2C(=CC1)OCO2)N3CCN(CC3)C=4N=CC=CN4",
    "meta_data": {
        "InChI": "InChI=1S/C16H18N4O2/c1-4-17-16(18-5-1)20-8-6-19(7-9-20)11-13-2-3-14-15(10-13)22-12-21-14/h1-5,10H,6-9,11-12H2",
        "InChIKey": null,
        "Canonical SMILES": "N=1C=CC=NC1N2CCN(CC3=CC=C4OCOC4=C3)CC2",
        "Molecular Formula": "C<sub>16</sub>H<sub>18</sub>N<sub>4</sub>O<sub>2</sub>",
        "Molecular Mass": "298.34",
        "Melting Point": "98 °C"
    }
}