{
    "cas_no": "7063-99-2",
    "key_name": "Ethyl 5-phenylisoxazole-3-carboxylate",
    "cn_name": "5-苯基异噁唑-3-甲酸乙酯;",
    "alternate_name": "3-Isoxazolecarboxylic acid, 5-phenyl-, ethyl ester;3-Ethoxycarbonyl-5-phenylisoxazole;Ethyl 5-phenylisoxazole-3-carboxylate;Ethyl 5-phenylisoxazle-3-carboxylate",
    "duplicated_cas_no": "",
    "SMILES": "C(OCC)(=O)C=1C=C(ON1)C2=CC=CC=C2",
    "meta_data": {
        "InChI": "InChI=1S/C12H11NO3/c1-2-15-12(14)10-8-11(16-13-10)9-6-4-3-5-7-9/h3-8H,2H2,1H3",
        "InChIKey": null,
        "Canonical SMILES": "O=C(OCC)C1=NOC(=C1)C=2C=CC=CC2",
        "Molecular Formula": "C<sub>12</sub>H<sub>11</sub>NO<sub>3</sub>",
        "Molecular Mass": "217.22",
        "Melting Point": "52 °C"
    }
}