{
    "cas_no": "627-63-4",
    "key_name": "Fumaryl chloride",
    "cn_name": "反丁烯二酰氯;富马酰氯;反丁烯二酸二氯化物;",
    "alternate_name": "2-Butenedioyl dichloride, (2<em>E</em>)-;Fumaroyl chloride;2-Butenedioyl dichloride, (<em>E</em>)-;(2<em>E</em>)-2-Butenedioyl dichloride;Fumaryl chloride;Fumaric dichloride;Fumaroyl dichloride;Fumaric acid dichloride;Fumaric acid chloride;Fumaryl dichloride",
    "duplicated_cas_no": "",
    "SMILES": "C(=C/C(Cl)=O)\\C(Cl)=O",
    "meta_data": {
        "InChI": "InChI=1S/C4H2Cl2O2/c5-3(7)1-2-4(6)8/h1-2H/b2-1+",
        "InChIKey": null,
        "Canonical SMILES": "O=C(Cl)C=CC(=O)Cl",
        "Molecular Formula": "C<sub>4</sub>H<sub>2</sub>Cl<sub>2</sub>O<sub>2</sub>",
        "Molecular Mass": "152.96",
        "Boiling Point": "159 °C",
        "Melting Point": "246-247 °C"
    }
}