{
    "cas_no": "532-31-0",
    "key_name": "Silver benzoate",
    "cn_name": "苯甲酸银;",
    "alternate_name": "Benzoic acid, silver(1+) salt (1:1);Benzoic acid, silver(1+) salt;Silver benzoate;Silver benzoate (AgOBz);Silver(1+) benzoate;Silver(I) benzoate",
    "duplicated_cas_no": "",
    "SMILES": "C(O)(=O)C1=CC=CC=C1.[Ag]",
    "meta_data": {
        "InChI": "InChI=1S/C7H6O2.Ag/c8-7(9)6-4-2-1-3-5-6;/h1-5H,(H,8,9);",
        "InChIKey": null,
        "Canonical SMILES": "[Ag].O=C(O)C=1C=CC=CC1",
        "Molecular Formula": "C<sub>7</sub>H<sub>6</sub>O<sub>2</sub>.Ag",
        "Molecular Mass": "",
        "Melting Point": "280 °C"
    }
}