{
    "cas_no": "832-53-1",
    "key_name": "2,3,4,5,6-Pentafluorobenzenesulfonyl chloride",
    "cn_name": "2,3,4,5,6-五氟苯磺酰氯;",
    "alternate_name": "Benzenesulfonyl chloride, 2,3,4,5,6-pentafluoro-;Benzenesulfonyl chloride, pentafluoro-;2,3,4,5,6-Pentafluorobenzenesulfonyl chloride;Pentafluorobenzenesulfonyl chloride;Pentafluorophenylsulfonyl chloride;NSC 96998;Pentafluororbenzenesulfonyl chloride;2,3,4,5,6-Pentafluorobenzene-1-sulfonyl chloride;Perfluorobenzenesulfonyl chloride;2,3,4,5,6-Pentafluorophenylsulfonyl chloride",
    "duplicated_cas_no": "",
    "SMILES": "S(Cl)(=O)(=O)C1=C(F)C(F)=C(F)C(F)=C1F",
    "meta_data": {
        "InChI": "InChI=1S/C6ClF5O2S/c7-15(13,14)6-4(11)2(9)1(8)3(10)5(6)12",
        "InChIKey": null,
        "Canonical SMILES": "O=S(=O)(Cl)C=1C(F)=C(F)C(F)=C(F)C1F",
        "Molecular Formula": "C<sub>6</sub>ClF<sub>5</sub>O<sub>2</sub>S",
        "Molecular Mass": "266.57",
        "Boiling Point": "210.5 °C"
    }
}