{
    "cas_no": "108-14-5",
    "key_name": "2-Chloro-<em>N</em>,<em>N</em>-dimethyl-1-propanamine",
    "cn_name": "2-氯-N,N-二甲基-1-丙胺;2-氯-1-二甲氨基丙烷;",
    "alternate_name": "1-Propanamine, 2-chloro-<em>N</em>,<em>N</em>-dimethyl-;Propylamine, 2-chloro-<em>N</em>,<em>N</em>-dimethyl-;2-Chloro-<em>N</em>,<em>N</em>-dimethyl-1-propanamine;2-Chloro-<em>N</em>,<em>N</em>-dimethylpropylamine;2-(Dimethylamino)-1-methylethyl chloride;2-Chloro-1-(dimethylamino)propane;β-Dimethylaminoisopropyl chloride;1-Dimethylamino-2-chloropropane;(2-Chloropropyl)dimethylamine;1-Methyl-2-(dimethylamino)ethyl chloride",
    "duplicated_cas_no": "137031-97-1",
    "SMILES": "C(C(C)Cl)N(C)C",
    "meta_data": {
        "InChI": "InChI=1S/C5H12ClN/c1-5(6)4-7(2)3/h5H,4H2,1-3H3",
        "InChIKey": null,
        "Canonical SMILES": "ClC(C)CN(C)C",
        "Molecular Formula": "C<sub>5</sub>H<sub>12</sub>ClN",
        "Molecular Mass": "121.61",
        "Boiling Point": "62-63 °C @ Press: 100-110 Torr",
        "Density": "0.9093 g/cm³ @ Temp: 20 °C"
    }
}