{
    "cas_no": "56518-41-3",
    "key_name": "Brodimoprim",
    "cn_name": "溴莫普林;溴烯尿苷;溴烯尿甙;5-(3,5-二甲氧基-4-溴苄基)-2,4-二氨基嘧啶;",
    "alternate_name": "2,4-Pyrimidinediamine, 5-[(4-bromo-3,5-dimethoxyphenyl)methyl]-;5-[(4-Bromo-3,5-dimethoxyphenyl)methyl]-2,4-pyrimidinediamine;Ro 10-5970;Brodimoprim;Hyprim;Ro 105970;Unitrim;(2,4-diamino-5-(4-bromo-3,5-dimethoxybenzylpyrimidine);2,4-diamino-5-(4-bromo-3,5-dimethoxybenzyl) pyrimidine",
    "duplicated_cas_no": "",
    "SMILES": "C(C1=CC(OC)=C(Br)C(OC)=C1)C=2C(N)=NC(N)=NC2",
    "meta_data": {
        "InChI": "InChI=1S/C13H15BrN4O2/c1-19-9-4-7(5-10(20-2)11(9)14)3-8-6-17-13(16)18-12(8)15/h4-6H,3H2,1-2H3,(H4,15,16,17,18)",
        "InChIKey": null,
        "Canonical SMILES": "BrC1=C(OC)C=C(C=C1OC)CC2=CN=C(N=C2N)N",
        "Molecular Formula": "C<sub>13</sub>H<sub>15</sub>BrN<sub>4</sub>O<sub>2</sub>",
        "Molecular Mass": "339.19",
        "Melting Point": "225-228 °C",
        "Density": "1.657 g/cm³ @ Temp: -160 °C"
    }
}