{
    "cas_no": "74150-27-9",
    "key_name": "Pimobendan",
    "cn_name": "匹莫苯;匹莫苯丹;6-[2-(4-甲氧基苯基)-1H-苯并咪唑-5-基]-5-甲基-4,5-二氢-3(2H)-哒嗪酮;",
    "alternate_name": "3(2<em>H</em>)-Pyridazinone, 4,5-dihydro-6-[2-(4-methoxyphenyl)-1<em>H</em>-benzimidazol-6-yl]-5-methyl-;3(2<em>H</em>)-Pyridazinone, 4,5-dihydro-6-[2-(4-methoxyphenyl)-1<em>H</em>-benzimidazol-5-yl]-5-methyl-;4,5-Dihydro-6-[2-(4-methoxyphenyl)-1<em>H</em>-benzimidazol-6-yl]-5-methyl-3(2<em>H</em>)-pyridazinone;UD-CG 115;UD-CG 115BS;<em>dl</em>-Pimobendan;Racemic pimobendan;Pimobendan;Vetmedin;Acardi",
    "duplicated_cas_no": "118428-36-7",
    "SMILES": "CC1C(C=2C=C3C(N=C(N3)C4=CC=C(OC)C=C4)=CC2)=NNC(=O)C1",
    "meta_data": {
        "InChI": "InChI=1S/C19H18N4O2/c1-11-9-17(24)22-23-18(11)13-5-8-15-16(10-13)21-19(20-15)12-3-6-14(25-2)7-4-12/h3-8,10-11H,9H2,1-2H3,(H,20,21)(H,22,24)",
        "InChIKey": null,
        "Canonical SMILES": "O=C1NN=C(C=2C=CC=3N=C(NC3C2)C=4C=CC(OC)=CC4)C(C)C1",
        "Molecular Formula": "C<sub>19</sub>H<sub>18</sub>N<sub>4</sub>O<sub>2</sub>",
        "Molecular Mass": "334.37",
        "Melting Point": "147-150 °C"
    }
}