{
    "cas_no": "1297537-37-1",
    "key_name": "2-Chloro-4-(1<em>H</em>-pyrazol-3-yl)benzonitrile",
    "cn_name": null,
    "alternate_name": "Benzonitrile, 2-chloro-4-(1<em>H</em>-pyrazol-3-yl)-;2-Chloro-4-(1<em>H</em>-pyrazol-3-yl)benzonitrile;2-Chloro-4-(1<em>H</em>-pyrazol-5-yl)benzonitrile",
    "duplicated_cas_no": "",
    "SMILES": "ClC=1C=C(C=CC1C#N)C=2C=CNN2",
    "meta_data": {
        "InChI": "InChI=1S/C10H6ClN3/c11-9-5-7(1-2-8(9)6-12)10-3-4-13-14-10/h1-5H,(H,13,14)",
        "InChIKey": null,
        "Canonical SMILES": "N#CC=1C=CC(=CC1Cl)C2=NNC=C2",
        "Molecular Formula": "C<sub>10</sub>H<sub>6</sub>ClN<sub>3</sub>",
        "Molecular Mass": "203.63",
        "Melting Point": "144.5 °C"
    }
}