{
    "cas_no": "937-31-5",
    "key_name": "1-Ethynyl-4-nitrobenzene",
    "cn_name": "1-乙炔基-4-硝基苯;",
    "alternate_name": "Benzene, 1-ethynyl-4-nitro-;1-Ethynyl-4-nitrobenzene;(<em>p</em>-Nitrophenyl)acetylene;<em>p</em>-Ethynylnitrobenzene;(4-Nitrophenyl)ethyne;(4-Nitrophenyl)acetylene;4-Ethynylnitrobenzene;1-Nitro-4-ethynylbenzene;4-Ethynyl-1-nitrobenzene;<em>p</em>-Nitroethynylbenzene;NSC 71089;4-Nitroethynylbenzene",
    "duplicated_cas_no": "",
    "SMILES": "N(=O)(=O)C1=CC=C(C#C)C=C1",
    "meta_data": {
        "InChI": "InChI=1S/C8H5NO2/c1-2-7-3-5-8(6-4-7)9(10)11/h1,3-6H",
        "InChIKey": null,
        "Canonical SMILES": "O=N(=O)C1=CC=C(C#C)C=C1",
        "Molecular Formula": "C<sub>8</sub>H<sub>5</sub>NO<sub>2</sub>",
        "Molecular Mass": "147.13",
        "Melting Point": "147-148 °C"
    }
}