{
    "cas_no": "3322-93-8",
    "key_name": "1,2-Dibromo-4-(1,2-dibromoethyl)cyclohexane",
    "cn_name": null,
    "alternate_name": "Cyclohexane, 1,2-dibromo-4-(1,2-dibromoethyl)-;1,2-Dibromo-4-(1,2-dibromoethyl)cyclohexane;4-(1,2-Dibromoethyl)-1,2-dibromocyclohexane;Citex BCL 462;1-(1,2-Dibromoethyl)-3,4-dibromocyclohexane;Saytex BCL 462",
    "duplicated_cas_no": "",
    "SMILES": "C(CBr)(Br)C1CC(Br)C(Br)CC1",
    "meta_data": {
        "InChI": "InChI=1S/C8H12Br4/c9-4-8(12)5-1-2-6(10)7(11)3-5/h5-8H,1-4H2",
        "InChIKey": null,
        "Canonical SMILES": "BrCC(Br)C1CCC(Br)C(Br)C1",
        "Molecular Formula": "C<sub>8</sub>H<sub>12</sub>Br<sub>4</sub>",
        "Molecular Mass": "427.80",
        "Melting Point": "70-76 °C",
        "Density": "23800 g/cm³"
    }
}