{
    "cas_no": "4919-33-9",
    "key_name": "4-Ethoxybenzeneacetic acid",
    "cn_name": null,
    "alternate_name": "Benzeneacetic acid, 4-ethoxy-;Acetic acid, (<em>p</em>-ethoxyphenyl)-;4-Ethoxybenzeneacetic acid;(<em>p</em>-Ethoxyphenyl)acetic acid;4-Ethoxyphenylacetic acid;2-(4-Ethoxyphenyl)acetic acid",
    "duplicated_cas_no": "",
    "SMILES": "C(C(O)=O)C1=CC=C(OCC)C=C1",
    "meta_data": {
        "InChI": "InChI=1S/C10H12O3/c1-2-13-9-5-3-8(4-6-9)7-10(11)12/h3-6H,2,7H2,1H3,(H,11,12)",
        "InChIKey": null,
        "Canonical SMILES": "O=C(O)CC1=CC=C(OCC)C=C1",
        "Molecular Formula": "C<sub>10</sub>H<sub>12</sub>O<sub>3</sub>",
        "Molecular Mass": "180.20",
        "Melting Point": "87-90 °C"
    }
}