{
    "cas_no": "455-70-9",
    "key_name": "Methyl 5-fluoro-3-pyridinecarboxylate",
    "cn_name": null,
    "alternate_name": "3-Pyridinecarboxylic acid, 5-fluoro-, methyl ester;Nicotinic acid, 5-fluoro-, methyl ester;Methyl 5-fluoro-3-pyridinecarboxylate;Methyl 5-fluoronicotinate;5-Fluoropyridine-3-carboxylic acid methyl ester",
    "duplicated_cas_no": "",
    "SMILES": "C(OC)(=O)C=1C=C(F)C=NC1",
    "meta_data": {
        "InChI": "InChI=1S/C7H6FNO2/c1-11-7(10)5-2-6(8)4-9-3-5/h2-4H,1H3",
        "InChIKey": null,
        "Canonical SMILES": "O=C(OC)C=1C=NC=C(F)C1",
        "Molecular Formula": "C<sub>7</sub>H<sub>6</sub>FNO<sub>2</sub>",
        "Molecular Mass": "155.13",
        "Melting Point": "48 °C"
    }
}