{
    "cas_no": "3119-93-5",
    "key_name": "3-Ethyl-2-methylbenzothiazolium iodide",
    "cn_name": "3-乙基-2-甲基苯并噻唑碘化物;",
    "alternate_name": "Benzothiazolium, 3-ethyl-2-methyl-, iodide (1:1);Benzothiazolium, 3-ethyl-2-methyl-, iodide;3-Ethyl-2-methylbenzothiazolium iodide;2-Methylbenzothiazole ethyl iodide;2-Methyl-3-ethylbenzothiazolium iodide;2-Methylbenzothiazole ethiodide;<em>N</em>-Ethyl-2-methylbenzothiazolium iodide;3-Ethyl-2-methyl-1,3-benzothiazol-3-ium iodide;3-Ethyl-2-methylbenzothiozolium iodide;3-Ethyl-2-methylbenzo[<em>d</em>]thiazol-3-ium iodide",
    "duplicated_cas_no": "64071-74-5",
    "SMILES": "C(C)[N+]=1C=2C(SC1C)=CC=CC2.[I-]",
    "meta_data": {
        "InChI": "InChI=1S/C10H12NS.HI/c1-3-11-8(2)12-10-7-5-4-6-9(10)11;/h4-7H,3H2,1-2H3;1H/q+1;/p-1",
        "InChIKey": null,
        "Canonical SMILES": "[I-].S1C=2C=CC=CC2[N+](=C1C)CC",
        "Molecular Formula": "C<sub>10</sub>H<sub>12</sub>NS.I",
        "Molecular Mass": "",
        "Melting Point": "193-194 °C"
    }
}