{
    "cas_no": "20103-09-7",
    "key_name": "2,5-Dichloro-1,4-benzenediamine",
    "cn_name": "2,5-二-氯-1,4-苯二胺;2,5-二氯对苯二胺;",
    "alternate_name": "1,4-Benzenediamine, 2,5-dichloro-;<em>p</em>-Phenylenediamine, 2,5-dichloro-;2,5-Dichloro-1,4-benzenediamine;2,5-Diamino-1,4-dichlorobenzene;2,5-Dichloro-<em>p</em>-phenylenediamine;2,5-Dichloro-1,4-phenylenediamine;4-Amino-2,5-dichloroaniline;2,5-Dichloro-1,4-diaminobenzene;1,4-Diamino-2,5-dichlorobenzene;2,5-Dichloro-1,4-<em>p</em>-phenylenediamine",
    "duplicated_cas_no": "",
    "SMILES": "ClC1=C(N)C=C(Cl)C(N)=C1",
    "meta_data": {
        "InChI": "InChI=1S/C6H6Cl2N2/c7-3-1-5(9)4(8)2-6(3)10/h1-2H,9-10H2",
        "InChIKey": null,
        "Canonical SMILES": "ClC=1C=C(N)C(Cl)=CC1N",
        "Molecular Formula": "C<sub>6</sub>H<sub>6</sub>Cl<sub>2</sub>N<sub>2</sub>",
        "Molecular Mass": "177.03",
        "Melting Point": "170 °C"
    }
}