{
    "cas_no": "525-82-6",
    "key_name": "Flavone",
    "cn_name": "黄酮;",
    "alternate_name": "4<em>H</em>-1-Benzopyran-4-one, 2-phenyl-;Flavone;2-Phenyl-4<em>H</em>-1-benzopyran-4-one;2-Phenyl-γ-benzopyrone;2-Phenylchromone;Asmacoril;Chromocor;Cromaril;2-Phenyl-4-chromone;2-Phenyl-4<em>H</em>-benzopyran-4-one;NSC 19028;94166III;2-Phenyl-4<em>H</em>-chromen-4-one;2-Phenylchromen-4-one",
    "duplicated_cas_no": "11091-19-3",
    "SMILES": "O=C1C=2C(OC(=C1)C3=CC=CC=C3)=CC=CC2",
    "meta_data": {
        "InChI": "InChI=1S/C15H10O2/c16-13-10-15(11-6-2-1-3-7-11)17-14-9-5-4-8-12(13)14/h1-10H",
        "InChIKey": null,
        "Canonical SMILES": "O=C1C=C(OC=2C=CC=CC12)C=3C=CC=CC3",
        "Molecular Formula": "C<sub>15</sub>H<sub>10</sub>O<sub>2</sub>",
        "Molecular Mass": "222.24",
        "Melting Point": "100 °C",
        "Density": "0.90 g/cm³"
    }
}