{
    "cas_no": "203569-15-7",
    "key_name": "3-Bromo-5-methyl-4-pyridinecarboxaldehyde",
    "cn_name": null,
    "alternate_name": "4-Pyridinecarboxaldehyde, 3-bromo-5-methyl-;3-Bromo-5-methyl-4-pyridinecarboxaldehyde;3-Bromo-5-methylpyridine-4-carbaldehyde;3-Bromo-4-formyl-5-methylpyridine",
    "duplicated_cas_no": "",
    "SMILES": "C(=O)C=1C(Br)=CN=CC1C",
    "meta_data": {
        "InChI": "InChI=1S/C7H6BrNO/c1-5-2-9-3-7(8)6(5)4-10/h2-4H,1H3",
        "InChIKey": null,
        "Canonical SMILES": "O=CC=1C(Br)=CN=CC1C",
        "Molecular Formula": "C<sub>7</sub>H<sub>6</sub>BrNO",
        "Molecular Mass": "200.03",
        "Melting Point": "67 °C"
    }
}