{
    "cas_no": "14284-89-0",
    "key_name": "Tris(acetylacetonato)manganese",
    "cn_name": "乙酰丙酮锰;",
    "alternate_name": "Manganese, tris(2,4-pentanedionato-κ<em>O</em><sup>2</sup>,κ<em>O</em><sup>4</sup>)-, (<em>OC</em>-6-11)-;Manganese, tris(2,4-pentanedionato)-;Manganese, tris(2,4-pentanedionato-<em>O</em>,<em>O</em>′)-, (<em>OC</em>-6-11)-;Manganese, tris(2,4-pentanedionato-κ<em>O</em>,κ<em>O</em>′)-, (<em>OC</em>-6-11)-;(<em>OC</em>-6-11)-Tris(2,4-pentanedionato-κ<em>O</em><sup>2</sup>,κ<em>O</em><sup>4</sup>)manganese;Manganic acetylacetonate;Manganese(III) acetylacetonate;Manganese acetylacetonate;Tris(acetylacetonato)manganese;Manganese tris(acetylacetonate);Tris(2,4-pentanedionato)manganese;Manganese(3+) acetylacetonate;Tris(acetylacetonate) manganese;MOK 1;Tris(acetylacetone)manganese;NSC 82319;Acetope Mn(III);Octope Mn (III)",
    "duplicated_cas_no": "28566-87-2;2056113-97-2",
    "SMILES": "CC1=O[Mn+3]23(O=C(C)[CH-]C(C)=O2)(O=C(C)[CH-]C(C)=O3)O=C(C)[CH-]1",
    "meta_data": {
        "InChI": "InChI=1S/3C5H7O2.Mn/c3*1-4(6)3-5(2)7;/h3*3H,1-2H3;/q3*-1;+3",
        "InChIKey": null,
        "Canonical SMILES": "O1=C([CH-]C(=O[Mn+3]123(O=C([CH-]C(=O2)C)C)O=C([CH-]C(=O3)C)C)C)C",
        "Molecular Formula": "C<sub>15</sub>H<sub>21</sub>MnO<sub>6</sub>",
        "Molecular Mass": "",
        "Melting Point": "155 °C (decomp)"
    }
}