{
    "cas_no": "20601-38-1",
    "key_name": "[1,1′-Bicyclohexyl]-4,4′-diol",
    "cn_name": null,
    "alternate_name": "[1,1′-Bicyclohexyl]-4,4′-diol;[Bicyclohexyl]-4,4′-diol;4,4′-Dihydroxybicyclohexyl;4,4′-Bicyclohexanediol;4,4′-Dihydroxydicyclohexane;Bis(4-hydroxycyclohexyl);[1,1′-Bi(cyclohexane)]-4,4′-diol",
    "duplicated_cas_no": "",
    "SMILES": "OC1CCC(CC1)C2CCC(O)CC2",
    "meta_data": {
        "InChI": "InChI=1S/C12H22O2/c13-11-5-1-9(2-6-11)10-3-7-12(14)8-4-10/h9-14H,1-8H2",
        "InChIKey": null,
        "Canonical SMILES": "OC1CCC(CC1)C2CCC(O)CC2",
        "Molecular Formula": "C<sub>12</sub>H<sub>22</sub>O<sub>2</sub>",
        "Molecular Mass": "198.30",
        "Melting Point": "204-207 °C"
    }
}