{
    "cas_no": "375-72-4",
    "key_name": "1,1,2,2,3,3,4,4,4-Nonafluoro-1-butanesulfonyl fluoride",
    "cn_name": "全氟丁基磺酰氟;",
    "alternate_name": "1-Butanesulfonyl fluoride, 1,1,2,2,3,3,4,4,4-nonafluoro-;1-Butanesulfonyl fluoride, nonafluoro-;1,1,2,2,3,3,4,4,4-Nonafluoro-1-butanesulfonyl fluoride;Perfluorobutylsulfonyl fluoride;Nonafluorobutanesulfonyl fluoride;Perfluorobutanesulfonyl fluoride;Nonaflyl fluoride;Perfluoro-1-butanesulfonyl fluoride;<em>n</em>-Nonafluorobutanesulfonyl fluoride;1,1,2,2,3,3,4,4,4-Nonafluorobutan-1-sulfonyl fluoride;Nonafluoro-1-butanesulfonyl fluoride;Perfluorobutan-1-sulfonyl fluoride;1,1,2,2,3,3,4,4,4-Nonafluorobutanesulfonyl fluoride;Nonafluorobutanesulfonic acid fluoride",
    "duplicated_cas_no": "1219958-98-1",
    "SMILES": "C(C(C(F)(F)F)(F)F)(C(S(F)(=O)=O)(F)F)(F)F",
    "meta_data": {
        "InChI": "InChI=1S/C4F10O2S/c5-1(6,3(9,10)11)2(7,8)4(12,13)17(14,15)16",
        "InChIKey": null,
        "Canonical SMILES": "O=S(=O)(F)C(F)(F)C(F)(F)C(F)(F)C(F)(F)F",
        "Molecular Formula": "C<sub>4</sub>F<sub>10</sub>O<sub>2</sub>S",
        "Molecular Mass": "302.09",
        "Boiling Point": "64 °C",
        "Melting Point": "&lt;-120 °C"
    }
}