{
    "cas_no": "132-66-1",
    "key_name": "1-Naphthylphthalamic acid",
    "cn_name": "抑草生;",
    "alternate_name": "Benzoic acid, 2-[(1-naphthalenylamino)carbonyl]-;Phthalamic acid, <em>N</em>-1-naphthyl-;2-[(1-Naphthalenylamino)carbonyl]benzoic acid;Alanap 1;Alanap;Alanap 10G at;Analape;Naptalam;NPA;Naphthalam;<em>N</em>-1-Naphthylphthalamic acid;Grelutin;<em>N</em>-α-Naphthylphthalamic acid;1-Naphthylphthalamic acid;2-[(1-Naphthylamino)carbonyl]benzoic acid;2-(1-Naphthylcarbamoyl)benzoic acid;NSC 204421;NPA (pesticide);2-(<em>N</em>-(1-Naphthyl)amido)benzoic acid",
    "duplicated_cas_no": "856927-72-5",
    "SMILES": "N(C(=O)C1=C(C(O)=O)C=CC=C1)C=2C3=C(C=CC2)C=CC=C3",
    "meta_data": {
        "InChI": "InChI=1S/C18H13NO3/c20-17(14-9-3-4-10-15(14)18(21)22)19-16-11-5-7-12-6-1-2-8-13(12)16/h1-11H,(H,19,20)(H,21,22)",
        "InChIKey": null,
        "Canonical SMILES": "O=C(O)C=1C=CC=CC1C(=O)NC2=CC=CC=3C=CC=CC32",
        "Molecular Formula": "C<sub>18</sub>H<sub>13</sub>NO<sub>3</sub>",
        "Molecular Mass": "291.30",
        "Melting Point": "203 °C",
        "Density": "1.40 g/cm³ @ Temp: 20 °C"
    }
}