{
    "cas_no": "5111-65-9",
    "key_name": "2-Bromo-6-methoxynaphthalene",
    "cn_name": null,
    "alternate_name": "Naphthalene, 2-bromo-6-methoxy-;2-Bromo-6-methoxynaphthalene;6-Methoxy-2-bromonaphthalene;6-Bromo-2-methoxynaphthalene;2-Methoxy-6-bromonaphthalene;NSC 3236;6-Methoxynaphth-2-yl bromide",
    "duplicated_cas_no": "",
    "SMILES": "O(C)C1=CC2=C(C=C(Br)C=C2)C=C1",
    "meta_data": {
        "InChI": "InChI=1S/C11H9BrO/c1-13-11-5-3-8-6-10(12)4-2-9(8)7-11/h2-7H,1H3",
        "InChIKey": null,
        "Canonical SMILES": "BrC=1C=CC2=CC(OC)=CC=C2C1",
        "Molecular Formula": "C<sub>11</sub>H<sub>9</sub>BrO",
        "Molecular Mass": "237.09",
        "Boiling Point": "180-182 °C @ Press: 14 Torr",
        "Melting Point": "106-107 °C"
    }
}