{
    "cas_no": "2362-10-9",
    "key_name": "1,3-Bis(chloromethyl)-1,1,3,3-tetramethyldisiloxane",
    "cn_name": "1,3-二(氯甲基)-1,1,3,3-四甲基二硅氧烷;",
    "alternate_name": "Disiloxane, 1,3-bis(chloromethyl)-1,1,3,3-tetramethyl-;1,3-Bis(chloromethyl)-1,1,3,3-tetramethyldisiloxane;Tetramethyl-1,3-bis(chloromethyl)disiloxane;1,3-Bis(chloromethyl)tetramethyldisiloxane;1,3-Di(chloromethyl)-1,1,3,3-tetramethyldisiloxane;NSC 103492;NSC 96793;1,1,3,3-Tetramethyl-1,3-bis(chloromethyl)disiloxane;(Chloromethyl)([[(chloromethyl)dimethylsilyl]oxy])dimethylsilane;1,1,3,3-Tetramethyl-1,3-di(chloromethyl)disiloxane",
    "duplicated_cas_no": "",
    "SMILES": "O([Si](CCl)(C)C)[Si](CCl)(C)C",
    "meta_data": {
        "InChI": "InChI=1S/C6H16Cl2OSi2/c1-10(2,5-7)9-11(3,4)6-8/h5-6H2,1-4H3",
        "InChIKey": null,
        "Canonical SMILES": "ClC[Si](O[Si](C)(C)CCl)(C)C",
        "Molecular Formula": "C<sub>6</sub>H<sub>16</sub>Cl<sub>2</sub>OSi<sub>2</sub>",
        "Molecular Mass": "231.27",
        "Boiling Point": "204-205 °C",
        "Melting Point": "-90 °C",
        "Density": "1.050 g/cm³"
    }
}