{
    "cas_no": "43100-38-5",
    "key_name": "4-<em>tert</em>-Butylbenzohydrazide",
    "cn_name": "对叔丁基苯甲酰肼;",
    "alternate_name": "Benzoic acid, 4-(1,1-dimethylethyl)-, hydrazide;Benzoic acid, <em>p</em>-<em>tert</em>-butyl-, hydrazide;4-<em>tert</em>-Butylbenzoic acid hydrazide;<em>p</em>-<em>tert</em>-Butylbenzoic acid hydrazide;(<em>p</em>-<em>tert</em>-Butylbenzoyl)hydrazine;4-<em>tert</em>-Butylbenzoylhydrazine;4-<em>tert</em>-Butylbenzhydrazide;4-<em>tert</em>-Butylbenzoyl hydrazide;4-(1,1-Dimethylethyl)benzoic acid hydrazide;4-<em>tert</em>-Butylbenzohydrazide;4-<em>tert</em>-Butylbenzoic hydrazide",
    "duplicated_cas_no": "",
    "SMILES": "C(C)(C)(C)C1=CC=C(C(NN)=O)C=C1",
    "meta_data": {
        "InChI": "InChI=1S/C11H16N2O/c1-11(2,3)9-6-4-8(5-7-9)10(14)13-12/h4-7H,12H2,1-3H3,(H,13,14)",
        "InChIKey": null,
        "Canonical SMILES": "O=C(NN)C1=CC=C(C=C1)C(C)(C)C",
        "Molecular Formula": "C<sub>11</sub>H<sub>16</sub>N<sub>2</sub>O",
        "Molecular Mass": "192.26",
        "Melting Point": "117-118 °C"
    }
}