{
    "cas_no": "122-82-7",
    "key_name": "<em>N</em>-(4-Ethoxyphenyl)-3-oxobutanamide",
    "cn_name": "对乙氧基-N-乙酰乙酰苯胺;",
    "alternate_name": "Butanamide, <em>N</em>-(4-ethoxyphenyl)-3-oxo-;<em>p</em>-Acetoacetophenetidide;<em>N</em>-(4-Ethoxyphenyl)-3-oxobutanamide;Acetoacetic acid <em>p</em>-phenetidide;4′-Ethoxyacetoacetanilide;NSC 50630;3-Oxo-<em>N</em>-(4′-ethoxyphenyl)butanamide",
    "duplicated_cas_no": "",
    "SMILES": "N(C(CC(C)=O)=O)C1=CC=C(OCC)C=C1",
    "meta_data": {
        "InChI": "InChI=1S/C12H15NO3/c1-3-16-11-6-4-10(5-7-11)13-12(15)8-9(2)14/h4-7H,3,8H2,1-2H3,(H,13,15)",
        "InChIKey": null,
        "Canonical SMILES": "O=C(NC1=CC=C(OCC)C=C1)CC(=O)C",
        "Molecular Formula": "C<sub>12</sub>H<sub>15</sub>NO<sub>3</sub>",
        "Molecular Mass": "221.25",
        "Melting Point": "104-105 °C"
    }
}