{
    "cas_no": "129432-25-3",
    "key_name": "2,6-Dichloro-4-methyl-3-pyridinamine",
    "cn_name": "2,6-二氯-4-甲基-3-氨基吡啶;",
    "alternate_name": "3-Pyridinamine, 2,6-dichloro-4-methyl-;2,6-Dichloro-4-methyl-3-pyridinamine;3-Amino-2,6-dichloro-4-methylpyridine;Dapic;2,6-Dichloro-4-methyl-pyridin-3-ylamine;2,6-Dichloro-3-amino-4-methylpyridine",
    "duplicated_cas_no": "",
    "SMILES": "NC=1C(C)=CC(Cl)=NC1Cl",
    "meta_data": {
        "InChI": "InChI=1S/C6H6Cl2N2/c1-3-2-4(7)10-6(8)5(3)9/h2H,9H2,1H3",
        "InChIKey": null,
        "Canonical SMILES": "ClC=1N=C(Cl)C(N)=C(C1)C",
        "Molecular Formula": "C<sub>6</sub>H<sub>6</sub>Cl<sub>2</sub>N<sub>2</sub>",
        "Molecular Mass": "177.03",
        "Melting Point": "83.5-85.5 °C"
    }
}