{
    "cas_no": "14529-54-5",
    "key_name": "3,5-Dibromo-1-methylpyridin-2(1<em>H</em>)-one",
    "cn_name": null,
    "alternate_name": "2(1<em>H</em>)-Pyridinone, 3,5-dibromo-1-methyl-;2(1<em>H</em>)-Pyridone, 3,5-dibromo-1-methyl-;3,5-Dibromo-1-methyl-2(1<em>H</em>)-pyridinone;3,5-Dibromo-1-methyl-2(1<em>H</em>)-pyridone;1-Methyl-3,5-dibromo-2-pyridone;3,5-Dibromo-1-methyl-1<em>H</em>-pyridin-2-one;3,5-Dibromo-1-methylpyridin-2(1<em>H</em>)-one;3,5-Dibromo-1-methylpyridin-2-one;3,5-Dibromo-1-methyl-1,2-dihydropyridin-2-one",
    "duplicated_cas_no": "",
    "SMILES": "O=C1C(Br)=CC(Br)=CN1C",
    "meta_data": {
        "InChI": "InChI=1S/C6H5Br2NO/c1-9-3-4(7)2-5(8)6(9)10/h2-3H,1H3",
        "InChIKey": null,
        "Canonical SMILES": "O=C1C(Br)=CC(Br)=CN1C",
        "Molecular Formula": "C<sub>6</sub>H<sub>5</sub>Br<sub>2</sub>NO",
        "Molecular Mass": "266.92",
        "Melting Point": "182 °C"
    }
}