{
    "cas_no": "1818-07-1",
    "key_name": "(Octyloxy)benzene",
    "cn_name": "正辛基苯醚;",
    "alternate_name": "Benzene, (octyloxy)-;Ether, octyl phenyl;(Octyloxy)benzene;Phenyl octyl ether;<em>n</em>-Octyl phenyl ether;1-Phenoxyoctane;1-Octyl phenyl ether;Octyl phenyl ether;<em>n</em>-Octyloxybenzene;1-(Octyloxy)benzene",
    "duplicated_cas_no": "",
    "SMILES": "O(CCCCCCCC)C1=CC=CC=C1",
    "meta_data": {
        "InChI": "InChI=1S/C14H22O/c1-2-3-4-5-6-10-13-15-14-11-8-7-9-12-14/h7-9,11-12H,2-6,10,13H2,1H3",
        "InChIKey": null,
        "Canonical SMILES": "O(C=1C=CC=CC1)CCCCCCCC",
        "Molecular Formula": "C<sub>14</sub>H<sub>22</sub>O",
        "Molecular Mass": "206.32",
        "Boiling Point": "285 °C",
        "Melting Point": "8 °C",
        "Density": "0.904 g/cm³ @ Temp: 23 °C"
    }
}