{
    "cas_no": "52117-69-8",
    "key_name": "Pinobanksin 3-acetate",
    "cn_name": null,
    "alternate_name": "4<em>H</em>-1-Benzopyran-4-one, 3-(acetyloxy)-2,3-dihydro-5,7-dihydroxy-2-phenyl-, (2<em>R</em>,3<em>R</em>)-;4<em>H</em>-1-Benzopyran-4-one, 3-(acetyloxy)-2,3-dihydro-5,7-dihydroxy-2-phenyl-, (2<em>R</em>-<em>trans</em>)-;(2<em>R</em>,3<em>R</em>)-3-(Acetyloxy)-2,3-dihydro-5,7-dihydroxy-2-phenyl-4<em>H</em>-1-benzopyran-4-one;Pinobanksin acetate;Pinobanksin 3-<em>O</em>-acetate;3-<em>O</em>-Acetylpinobanksin;(2<em>R</em>,3<em>R</em>)-Pinobanksin 3-acetate;Pinobanksin 3-acetate",
    "duplicated_cas_no": "120534-16-9;669087-36-9;835655-36-2;144830-74-0;241806-47-3",
    "SMILES": "O(C(C)=O)[C@@H]1[C@H](OC=2C(C1=O)=C(O)C=C(O)C2)C3=CC=CC=C3",
    "meta_data": {
        "InChI": "InChI=1S/C17H14O6/c1-9(18)22-17-15(21)14-12(20)7-11(19)8-13(14)23-16(17)10-5-3-2-4-6-10/h2-8,16-17,19-20H,1H3/t16-,17+/m1/s1",
        "InChIKey": null,
        "Canonical SMILES": "O=C(OC1C(=O)C=2C(O)=CC(O)=CC2OC1C=3C=CC=CC3)C",
        "Molecular Formula": "C<sub>17</sub>H<sub>14</sub>O<sub>6</sub>",
        "Molecular Mass": "314.29",
        "Melting Point": "173-175 °C"
    }
}