{
    "cas_no": "10326-21-3",
    "key_name": "Magnesium chlorate",
    "cn_name": "氯酸镁;氯酸镁;",
    "alternate_name": "Chloric acid, magnesium salt (2:1);Magnesium chlorate;Chloric acid, magnesium salt;De-fol-ate;Magron;MC Defoliant;E-Z-Off;Ortho MC;Magnesium dichlorate;KhMD 58",
    "duplicated_cas_no": "136856-45-6;56571-67-6",
    "SMILES": "Cl(=O)(=O)O.[Mg]",
    "meta_data": {
        "InChI": "InChI=1S/ClHO3.Mg/c2-1(3)4;/h(H,2,3,4);",
        "InChIKey": null,
        "Canonical SMILES": "[Mg].O=Cl(=O)O",
        "Molecular Formula": "ClHO<sub>3</sub>.<sup>1</sup>/<sub>2</sub>Mg",
        "Molecular Mass": "",
        "Melting Point": "~35 °C (approx)"
    }
}