{
    "cas_no": "96-54-8",
    "key_name": "1-Methylpyrrole",
    "cn_name": "N-甲基吡咯;",
    "alternate_name": "1<em>H</em>-Pyrrole, 1-methyl-;Pyrrole, 1-methyl-;1-Methyl-1<em>H</em>-pyrrole;<em>N</em>-Methylpyrrole;1-Methylpyrrole;NSC 65440",
    "duplicated_cas_no": "",
    "SMILES": "CN1C=CC=C1",
    "meta_data": {
        "InChI": "InChI=1S/C5H7N/c1-6-4-2-3-5-6/h2-5H,1H3",
        "InChIKey": null,
        "Canonical SMILES": "C=1C=CN(C1)C",
        "Molecular Formula": "C<sub>5</sub>H<sub>7</sub>N",
        "Molecular Mass": "81.12",
        "Boiling Point": "115 °C",
        "Density": "0.9096 g/cm³ @ Temp: 20 °C"
    }
}