{
    "cas_no": "1943-83-5",
    "key_name": "2-Chloroethyl isocyanate",
    "cn_name": "氯乙基异氰酸酯;异氰酸-2-氯乙酯;2-氯乙基异氰酸酯;",
    "alternate_name": "Ethane, 1-chloro-2-isocyanato-;Isocyanic acid, 2-chloroethyl ester;Ethanol, 2-chloro-, isocyanate;1-Chloro-2-isocyanatoethane;2-Chloroethyl isocyanate;β-Chloroethylisocyanate;NSC 87418",
    "duplicated_cas_no": "",
    "SMILES": "C(N=C=O)CCl",
    "meta_data": {
        "InChI": "InChI=1S/C3H4ClNO/c4-1-2-5-3-6/h1-2H2",
        "InChIKey": null,
        "Canonical SMILES": "O=C=NCCCl",
        "Molecular Formula": "C<sub>3</sub>H<sub>4</sub>ClNO",
        "Molecular Mass": "105.52",
        "Boiling Point": "135 °C"
    }
}