{
    "cas_no": "80-78-4",
    "key_name": "Solanidine",
    "cn_name": "五氟硝基苯;龙葵次碱;",
    "alternate_name": "Solanid-5-en-3-ol, (3β)-;Solanid-5-en-3β-ol;Solanidine;1<em>H</em>-Naphth[2′,1′:4,5]indeno[1,2-<em>b</em>]indolizine, solanid-5-en-3-ol deriv.;(3β)-Solanid-5-en-3-ol;Solatubine;Solanidin;Solatubin;NSC 76025;(-)-Solanidine",
    "duplicated_cas_no": "11031-61-1",
    "SMILES": "C[C@@]12[C@@]3([C@@](N4[C@@]([C@H]3C)(CC[C@H](C)C4)[H])(C[C@]1([C@]5([C@](CC2)([C@]6(C)C(=CC5)C[C@@H](O)CC6)[H])[H])[H])[H])[H]",
    "meta_data": {
        "InChI": "InChI=1S/C27H43NO/c1-16-5-8-23-17(2)25-24(28(23)15-16)14-22-20-7-6-18-13-19(29)9-11-26(18,3)21(20)10-12-27(22,25)4/h6,16-17,19-25,29H,5,7-15H2,1-4H3/t16-,17+,19-,20+,21-,22-,23+,24-,25-,26-,27-/m0/s1",
        "InChIKey": null,
        "Canonical SMILES": "OC1CC2=CCC3C(CCC4(C)C3CC5N6CC(C)CCC6C(C)C54)C2(C)CC1",
        "Molecular Formula": "C<sub>27</sub>H<sub>43</sub>NO",
        "Molecular Mass": "397.64",
        "Melting Point": "218.5 °C"
    }
}