{
    "cas_no": "21906-39-8",
    "key_name": "1-[3-(Trifluoromethyl)phenyl]-2-propanone",
    "cn_name": "3-三氟甲基苯丙酮;间三氟甲基苯丙酮;间三氟甲基苯基-2-丙酮;",
    "alternate_name": "2-Propanone, 1-[3-(trifluoromethyl)phenyl]-;2-Propanone, 1-(α,α,α-trifluoro-<em>m</em>-tolyl)-;1-[3-(Trifluoromethyl)phenyl]-2-propanone;<em>m</em>-(Trifluoromethyl)benzyl methyl ketone;1-(3-Trifluoromethylphenyl)-2-propanone;[3-(Trifluoromethyl)phenyl]acetone;1-(α,α,α-Trifluoro-<em>m</em>-tolyl)-2-propanone;<em>m</em>-(Trifluoromethyl)phenylacetone;1-(3-Trifluoromethylphenyl)acetone;1-(3-Trifluoromethylphenyl)propane-2-one",
    "duplicated_cas_no": "",
    "SMILES": "C(C(C)=O)C1=CC(C(F)(F)F)=CC=C1",
    "meta_data": {
        "InChI": "InChI=1S/C10H9F3O/c1-7(14)5-8-3-2-4-9(6-8)10(11,12)13/h2-4,6H,5H2,1H3",
        "InChIKey": null,
        "Canonical SMILES": "O=C(C)CC1=CC=CC(=C1)C(F)(F)F",
        "Molecular Formula": "C<sub>10</sub>H<sub>9</sub>F<sub>3</sub>O",
        "Molecular Mass": "202.17",
        "Boiling Point": "105-115 °C @ Press: 20 Torr"
    }
}