{
    "cas_no": "108-10-1",
    "key_name": "Methyl isobutyl ketone",
    "cn_name": "4-甲基-2-戊酮;甲基异丁基酮;甲基异丁基甲酮;甲基异丁酮;",
    "alternate_name": "2-Pentanone, 4-methyl-;4-Methyl-2-pentanone;Isobutyl methyl ketone;Methyl isobutyl ketone;2-Methyl-4-pentanone;MIBK;MIK;Hexone;4-Methyl-2-oxopentane;Isopropylacetone;2-Methylpropyl methyl ketone;Methyl <em>iso</em>-butyl ketone;Methyl 2-methylpropyl ketone;NSC 5712;ZMD-D",
    "duplicated_cas_no": "1338234-91-5",
    "SMILES": "C(C(C)C)C(C)=O",
    "meta_data": {
        "InChI": "InChI=1S/C6H12O/c1-5(2)4-6(3)7/h5H,4H2,1-3H3",
        "InChIKey": null,
        "Canonical SMILES": "O=C(C)CC(C)C",
        "Molecular Formula": "C<sub>6</sub>H<sub>12</sub>O",
        "Molecular Mass": "100.16",
        "Boiling Point": "115.8 °C @ Press: 760 Torr",
        "Melting Point": "-85 °C",
        "Density": "0.8042 g/cm³ @ Temp: 20 °C"
    }
}