{
    "cas_no": "146-17-8",
    "key_name": "Flavin mononucleotide",
    "cn_name": "2,6-蒽二酚;2,6-蒽二酚;",
    "alternate_name": "Riboflavin 5′-(dihydrogen phosphate);Riboflavine 5-phosphate;Benzo[<em>g</em>]pteridine, riboflavin 5′-(dihydrogen phosphate) deriv.;Flavin mononucleotide;FMN;Riboflavine monophosphate;Riboflavine 5′-phosphate;Riboflavin phosphate;Riboflavine dihydrogen phosphate;Riboflavine phosphate;Riboflavine 5′-monophosphate;Vitamin B<sub>2</sub> phosphate;Riboflavin 5′-monophosphate;Riboflavin mononucleotide;Flavine mononucleotide;Riboflavin 5′-phosphate;Flanin;Flavol;Bisulase;Alloxazine mononucleotide;Riboflavin monophosphate;E 101a;E 101",
    "duplicated_cas_no": "41593-13-9;97866-71-2;788107-70-0;890044-75-4;1808910-84-0",
    "SMILES": "C([C@@H]([C@@H]([C@@H](COP(=O)(O)O)O)O)O)N1C=2C(N=C3C1=NC(=O)NC3=O)=CC(C)=C(C)C2",
    "meta_data": {
        "InChI": "InChI=1S/C17H21N4O9P/c1-7-3-9-10(4-8(7)2)21(15-13(18-9)16(25)20-17(26)19-15)5-11(22)14(24)12(23)6-30-31(27,28)29/h3-4,11-12,14,22-24H,5-6H2,1-2H3,(H,20,25,26)(H2,27,28,29)/t11-,12+,14-/m0/s1",
        "InChIKey": null,
        "Canonical SMILES": "O=C1N=C2C(=NC=3C=C(C(=CC3N2CC(O)C(O)C(O)COP(=O)(O)O)C)C)C(=O)N1",
        "Molecular Formula": "C<sub>17</sub>H<sub>21</sub>N<sub>4</sub>O<sub>9</sub>P",
        "Molecular Mass": "456.34",
        "Melting Point": "195 °C"
    }
}