{
    "cas_no": "553-86-6",
    "key_name": "2(3<em>H</em>)-Benzofuranone",
    "cn_name": "2-氯杀鼠灵酮;",
    "alternate_name": "2(3<em>H</em>)-Benzofuranone;Acetic acid, (<em>o</em>-hydroxyphenyl)-, γ-lactone;Isophthalide;Benzeneacetic acid, 2-hydroxy-, γ-lactone;<em>o</em>-Hydroxyphenylacetic acid γ-lactone;α-Coumaranone;Benzo[<em>b</em>]furan-2(3<em>H</em>)-one;2,3-Dihydrobenzofuran-2-one;Cumaranone;2-Coumarone;2-Coumaranone;3<em>H</em>-Benzofuran-2-one;NSC 227414;2-Benzofuranone",
    "duplicated_cas_no": "",
    "SMILES": "O=C1CC=2C(O1)=CC=CC2",
    "meta_data": {
        "InChI": "InChI=1S/C8H6O2/c9-8-5-6-3-1-2-4-7(6)10-8/h1-4H,5H2",
        "InChIKey": null,
        "Canonical SMILES": "O=C1OC=2C=CC=CC2C1",
        "Molecular Formula": "C<sub>8</sub>H<sub>6</sub>O<sub>2</sub>",
        "Molecular Mass": "134.13",
        "Boiling Point": "249 °C",
        "Melting Point": "50 °C"
    }
}