{
    "cas_no": "55324-97-5",
    "key_name": "<span class=\"text-smallcaps\">D</span>-Glucose, 6-amino-6-deoxy-, hydrochloride (1:1)",
    "cn_name": null,
    "alternate_name": "<span class=\"text-smallcaps\">D</span>-Glucose, 6-amino-6-deoxy-, hydrochloride (1:1);<span class=\"text-smallcaps\">D</span>-Glucose, 6-amino-6-deoxy-, hydrochloride;6-Amino-6-deoxy-<span class=\"text-smallcaps\">D</span>-glucose hydrochloride",
    "duplicated_cas_no": "",
    "SMILES": "[C@H]([C@@H]([C@H](C=O)O)O)([C@@H](CN)O)O.Cl",
    "meta_data": {
        "InChI": "InChI=1S/C6H13NO5.ClH/c7-1-3(9)5(11)6(12)4(10)2-8;/h2-6,9-12H,1,7H2;1H/t3-,4+,5-,6-;/m1./s1",
        "InChIKey": null,
        "Canonical SMILES": "Cl.O=CC(O)C(O)C(O)C(O)CN",
        "Molecular Formula": "C<sub>6</sub>H<sub>13</sub>NO<sub>5</sub>.ClH",
        "Molecular Mass": "",
        "Melting Point": "158 °C"
    }
}