{
    "cas_no": "1131-63-1",
    "key_name": "5,6,7,8-Tetrahydro-2-naphthoic acid",
    "cn_name": "5,6,7,8-四羟基-2-萘甲酸;5,6,7,8-四羟基-2-萘甲酸;",
    "alternate_name": "2-Naphthalenecarboxylic acid, 5,6,7,8-tetrahydro-;2-Naphthoic acid, 5,6,7,8-tetrahydro-;5,6,7,8-Tetrahydro-2-naphthalenecarboxylic acid;5,6,7,8-Tetrahydro-2-naphthoic acid;1,2,3,4-Tetrahydronaphthalene-6-carboxylic acid;NSC 131342",
    "duplicated_cas_no": "",
    "SMILES": "C(O)(=O)C=1C=C2C(=CC1)CCCC2",
    "meta_data": {
        "InChI": "InChI=1S/C11H12O2/c12-11(13)10-6-5-8-3-1-2-4-9(8)7-10/h5-7H,1-4H2,(H,12,13)",
        "InChIKey": null,
        "Canonical SMILES": "O=C(O)C1=CC=C2C(=C1)CCCC2",
        "Molecular Formula": "C<sub>11</sub>H<sub>12</sub>O<sub>2</sub>",
        "Molecular Mass": "176.21",
        "Melting Point": "155.5 °C"
    }
}