{
    "cas_no": "106-50-3",
    "key_name": "<em>p</em>-Phenylenediamine",
    "cn_name": "对苯二胺;1,4-二氨基苯;1,4-苯二胺;",
    "alternate_name": "1,4-Benzenediamine;<em>p</em>-Phenylenediamine;C.I. 76060;BASF Ursol D;Benzofur D;C.I. Developer 13;C.I. Oxidation Base 10;Developer PF;<em>p</em>-Diaminobenzene;Durafur Black R;Fouramine D;Fourrine D;Fourrine 1;Fur Black 41867;Fur Brown 41866;Furro D;Fur Yellow;Futramine D;Nako H;Orsin;Pelagol D;Pelagol DR;Pelagol Grey D;Peltol D;Renal PF;Tertral D;Ursol D;Zoba Black D;4-Aminoaniline;<em>p</em>-Aminoaniline;<em>p</em>-Benzenediamine;1,4-Diaminobenzene;1,4-Phenylenediamine;1,4-Diaminobenzol;PPD;Black for Fur D;Rodol DJ;NSC 4777;(4-Aminophenyl)amine;Rodol D;4-Phenylenediamine;Paramine;PDA;pPDA;P 6001-250G;Covastyle PAP",
    "duplicated_cas_no": "56481-76-6;82785-55-5",
    "SMILES": "NC1=CC=C(N)C=C1",
    "meta_data": {
        "InChI": "InChI=1S/C6H8N2/c7-5-1-2-6(8)4-3-5/h1-4H,7-8H2",
        "InChIKey": null,
        "Canonical SMILES": "NC1=CC=C(N)C=C1",
        "Molecular Formula": "C<sub>6</sub>H<sub>8</sub>N<sub>2</sub>",
        "Molecular Mass": "108.14",
        "Boiling Point": "267 °C",
        "Melting Point": "145-147 °C",
        "Density": "1.1 g/cm³"
    }
}