{
    "cas_no": "12006-15-4",
    "key_name": "Cadmium arsenide (Cd<sub>3</sub>As<sub>2</sub>)",
    "cn_name": "砷化镉;",
    "alternate_name": "Cadmium arsenide (Cd<sub>3</sub>As<sub>2</sub>);Tricadmium diarsenide",
    "duplicated_cas_no": "130917-47-4",
    "SMILES": "[Cd].[As]",
    "meta_data": {
        "InChI": "InChI=1S/As.Cd",
        "InChIKey": null,
        "Canonical SMILES": "[As].[Cd]",
        "Molecular Formula": "As.Cd",
        "Molecular Mass": "",
        "Melting Point": "721 °C"
    }
}