{
    "uri": "substance/pt/12006154",
    "rn": "12006-15-4",
    "name": "Cadmium arsenide (Cd<sub>3</sub>As<sub>2</sub>)",
    "images": [],
    "inchi": "InChI=1S/As.Cd",
    "inchiKey": "InChIKey=APAWRDGVSNYWSL-UHFFFAOYSA-N",
    "smile": "[Cd].[As]",
    "canonicalSmile": "[As].[Cd]",
    "molecularFormula": "As.Cd",
    "molecularMass": "",
    "experimentalProperties": [
        {
            "name": "Melting Point",
            "property": "721 °C",
            "sourceNumber": 1
        }
    ],
    "propertyCitations": [
        {
            "docUri": "document/pt/document/13967513",
            "sourceNumber": 1,
            "source": "Kalevich, E. S.; Izvestiya Akademii Nauk SSSR, Neorganicheskie Materialy, (1978), 14(11), 1983-5, CAplus"
        }
    ],
    "synonyms": [
        "Cadmium arsenide (Cd<sub>3</sub>As<sub>2</sub>)",
        "Tricadmium diarsenide"
    ],
    "replacedRns": [
        "130917-47-4"
    ],
    "hasMolfile": true,
    "source": "https://commonchemistry.cas.org/detail?cas_rn=12006-15-4"
}