{
    "cas_no": "156-86-5",
    "key_name": "<span class=\"text-smallcaps\">L</span>-Homoarginine",
    "cn_name": "高精氨酸;",
    "alternate_name": "<span class=\"text-smallcaps\">L</span>-Lysine, <em>N</em><sup>6</sup>-(aminoiminomethyl)-;Lysine, <em>N</em><sup>6</sup>-amidino-, <span class=\"text-smallcaps\">L</span>-;Lysine, <em>N</em><sup>6</sup>-amidino-;<em>N</em><sup>6</sup>-(Aminoiminomethyl)-<span class=\"text-smallcaps\">L</span>-lysine;Homoarginine;<span class=\"text-smallcaps\">L</span>-Homoarginine;Homo-<span class=\"text-smallcaps\">L</span>-arginine;NSC 27429;NSC 88868",
    "duplicated_cas_no": "13094-78-5",
    "SMILES": "C([C@@H](C(O)=O)N)CCCNC(=N)N",
    "meta_data": {
        "InChI": "InChI=1S/C7H16N4O2/c8-5(6(12)13)3-1-2-4-11-7(9)10/h5H,1-4,8H2,(H,12,13)(H4,9,10,11)/t5-/m0/s1",
        "InChIKey": null,
        "Canonical SMILES": "O=C(O)C(N)CCCCNC(=N)N",
        "Molecular Formula": "C<sub>7</sub>H<sub>16</sub>N<sub>4</sub>O<sub>2</sub>",
        "Molecular Mass": "188.23",
        "Melting Point": "207-209 °C"
    }
}