{
    "cas_no": "395-33-5",
    "key_name": "4-Fluoromandelic acid",
    "cn_name": "对氟扁桃酸;",
    "alternate_name": "Benzeneacetic acid, 4-fluoro-α-hydroxy-;Mandelic acid, <em>p</em>-fluoro-;4-Fluoro-α-hydroxybenzeneacetic acid;<em>p</em>-Fluoromandelic acid;4-Fluoromandelic acid;2-Hydroxy-2-(4-fluorophenyl)acetic acid;(±)-<em>p</em>-Fluoromandelic acid;(±)-4′-Fluoromandelic acid;2-(4-Fluorophenyl)-2-hydroxyacetic acid;NSC 73990;<span class=\"text-smallcaps\">D</smallcap><smallcap>L</span>-4-Fluoromandelic acid;(4-Fluorophenyl)hydroxyacetic acid",
    "duplicated_cas_no": "52950-15-9",
    "SMILES": "C(C(O)=O)(O)C1=CC=C(F)C=C1",
    "meta_data": {
        "InChI": "InChI=1S/C8H7FO3/c9-6-3-1-5(2-4-6)7(10)8(11)12/h1-4,7,10H,(H,11,12)",
        "InChIKey": null,
        "Canonical SMILES": "O=C(O)C(O)C1=CC=C(F)C=C1",
        "Molecular Formula": "C<sub>8</sub>H<sub>7</sub>FO<sub>3</sub>",
        "Molecular Mass": "170.14",
        "Melting Point": "135 °C"
    }
}