{
    "cas_no": "4294-16-0",
    "key_name": "Benzyladenosine",
    "cn_name": "6-苄氨基嘌呤核苷;",
    "alternate_name": "Adenosine, <em>N</em>-(phenylmethyl)-;Adenosine, <em>N</em>-benzyl-;<em>N</em>-(Phenylmethyl)adenosine;6-(Benzylamino)-9-β-<span class=\"text-smallcaps\">D</span>-ribofuranosylpurine;6-Benzyladenosine;6-(Benzylamino)purine riboside;<em>N</em>-Benzyladenosine;Benzyladenosine;<em>N</em><sup>6</sup>-Benzyladenosine;Benzyladenine riboside;6-(Benzylamino)purine 9-β-ribofuranoside;9-β-<span class=\"text-smallcaps\">D</span>-Ribofuranosyl-6-benzyladenine;<em>N</em><sup>6</sup>-Benzyladenine 9-riboside;NSC 70423;6-Benzyladenine riboside;NQZ-004;CM 223",
    "duplicated_cas_no": "",
    "SMILES": "O[C@H]1[C@H](N2C=3C(N=C2)=C(NCC4=CC=CC=C4)N=CN3)O[C@H](CO)[C@H]1O",
    "meta_data": {
        "InChI": "InChI=1S/C17H19N5O4/c23-7-11-13(24)14(25)17(26-11)22-9-21-12-15(19-8-20-16(12)22)18-6-10-4-2-1-3-5-10/h1-5,8-9,11,13-14,17,23-25H,6-7H2,(H,18,19,20)/t11-,13-,14-,17-/m1/s1",
        "InChIKey": null,
        "Canonical SMILES": "OCC1OC(N2C=NC=3C(=NC=NC32)NCC=4C=CC=CC4)C(O)C1O",
        "Molecular Formula": "C<sub>17</sub>H<sub>19</sub>N<sub>5</sub>O<sub>4</sub>",
        "Molecular Mass": "357.36",
        "Melting Point": "177-179 °C",
        "Density": "1.48 g/cm³"
    }
}