{
    "cas_no": "2185-00-4",
    "key_name": "2,5-Oxazolidinedione",
    "cn_name": "2,5-噁唑烷二酮;",
    "alternate_name": "2,5-Oxazolidinedione;Glycine, <em>N</em>-carboxy-, cyclic anhydride;Glycine-<em>N</em>-carboxy acid anhydride;<em>N</em>-Carboxyglycine anhydride;Glycine <em>N</em>-carboxy anhydride;Glycine-<em>N</em>-carboxylic anhydride;Leuchs' anhydride;1,3-Oxazolidine-2,5-dione;Glycine-NCA",
    "duplicated_cas_no": "25848-20-8;1427596-98-2",
    "SMILES": "O=C1OC(=O)NC1",
    "meta_data": {
        "InChI": "InChI=1S/C3H3NO3/c5-2-1-4-3(6)7-2/h1H2,(H,4,6)",
        "InChIKey": null,
        "Canonical SMILES": "O=C1OC(=O)CN1",
        "Molecular Formula": "C<sub>3</sub>H<sub>3</sub>NO<sub>3</sub>",
        "Molecular Mass": "101.06",
        "Melting Point": "&gt;200 °C"
    }
}