{
    "cas_no": "235789-75-0",
    "key_name": "1<em>H</em>-Imidazolium, 3-ethyl-1-methyl-, salt with imidodisulfuryl fluoride (1:1)",
    "cn_name": null,
    "alternate_name": "1<em>H</em>-Imidazolium, 3-ethyl-1-methyl-, salt with imidodisulfuryl fluoride (1:1);1<em>H</em>-Imidazolium, 1-ethyl-3-methyl-, salt with imidodisulfuryl fluoride (1:1);Imidodisulfuryl fluoride, ion(1-), 1-ethyl-3-methyl-1<em>H</em>-imidazolium;Elexcel IL 110;1-Ethyl-3-methylimidazolium bis(fluorosulfonyl)imide;Methylethylimidazolium bis(fluorosulfonyl)imide;IL 110;EMIm bis(fluorosulfonyl)amide;Elexcel AS 110;EMIFSI;1-Ethyl-3-methylimidazolium bis(fluorosulfonyl)amide;AS 210;AS 110;1-Ethyl-3-methyl-1<em>H</em>-imidazol-3-ium; bis(fluorosulfonyl)azanide",
    "duplicated_cas_no": "1990509-20-0",
    "SMILES": "C(C)[N+]1=CN(C)C=C1.[N-](S(F)(=O)=O)S(F)(=O)=O",
    "meta_data": {
        "InChI": "InChI=1S/C6H11N2.F2NO4S2/c1-3-8-5-4-7(2)6-8;1-8(4,5)3-9(2,6)7/h4-6H,3H2,1-2H3;/q+1;-1",
        "InChIKey": null,
        "Canonical SMILES": "O=S(=O)(F)[N-]S(=O)(=O)F.C1=C[N+](=CN1C)CC",
        "Molecular Formula": "C<sub>6</sub>H<sub>11</sub>N<sub>2</sub>.F<sub>2</sub>NO<sub>4</sub>S<sub>2</sub>",
        "Molecular Mass": "",
        "Melting Point": "-18 °C",
        "Density": "1.3923 g/cm³ (liquid) @ Temp: 80.000 °C; Press: 750 Torr"
    }
}