{
    "cas_no": "462-20-4",
    "key_name": "Dihydrolipoic acid",
    "cn_name": null,
    "alternate_name": "Octanoic acid, 6,8-dimercapto-;6,8-Dimercaptooctanoic acid;Dihydrolipoic acid;Dihydrothioctic acid;6,8-Dihydrothioctic acid;α-Lipoic acid, dihydro-;Reduced lipoic acid;Reduced thioctic acid;Thioctic acid, dihydro-;6,8-Dithiooctanoic acid;<span class=\"text-smallcaps\">DL</span>-Dihydro-α-lipoic acid;<em>dl</em>-Dihydrolipoic acid;(±)-Dihydrolipoic acid;(±)-Dihydro-α-lipoic acid;γ-Lipoic acid",
    "duplicated_cas_no": "7516-48-5",
    "SMILES": "C(C(CCS)S)CCCC(O)=O",
    "meta_data": {
        "InChI": "InChI=1S/C8H16O2S2/c9-8(10)4-2-1-3-7(12)5-6-11/h7,11-12H,1-6H2,(H,9,10)",
        "InChIKey": null,
        "Canonical SMILES": "O=C(O)CCCCC(S)CCS",
        "Molecular Formula": "C<sub>8</sub>H<sub>16</sub>O<sub>2</sub>S<sub>2</sub>",
        "Molecular Mass": "208.34",
        "Boiling Point": "161.5 °C @ Press: 0.7 Torr",
        "Melting Point": "62 °C",
        "Density": "1.132 g/cm³ @ Temp: 20 °C"
    }
}