{
    "cas_no": "98-60-2",
    "key_name": "4-Chlorobenzenesulfonyl chloride",
    "cn_name": "4-氯苯磺酰氯;对氯苯磺酰氯;",
    "alternate_name": "Benzenesulfonyl chloride, 4-chloro-;Benzenesulfonyl chloride, <em>p</em>-chloro-;4-Chlorobenzenesulfonyl chloride;<em>p</em>-Chlorobenzenesulfonyl chloride;<em>p</em>-Chlorophenylsulfonyl chloride;4-Chlorophenylsulfonyl chloride;NSC 6956;4-Chlorobenzene-1-sulfonyl chloride",
    "duplicated_cas_no": "27415-01-6",
    "SMILES": "S(Cl)(=O)(=O)C1=CC=C(Cl)C=C1",
    "meta_data": {
        "InChI": "InChI=1S/C6H4Cl2O2S/c7-5-1-3-6(4-2-5)11(8,9)10/h1-4H",
        "InChIKey": null,
        "Canonical SMILES": "O=S(=O)(Cl)C1=CC=C(Cl)C=C1",
        "Molecular Formula": "C<sub>6</sub>H<sub>4</sub>Cl<sub>2</sub>O<sub>2</sub>S",
        "Molecular Mass": "211.07",
        "Boiling Point": "141 °C @ Press: 15 Torr",
        "Melting Point": "55 °C"
    }
}