{
    "cas_no": "26340-89-6",
    "key_name": "<span class=\"text-smallcaps\">L</span>-Arginine, methyl ester, hydrochloride (1:2)",
    "cn_name": "L-精氨酸甲酯二盐酸盐;",
    "alternate_name": "<span class=\"text-smallcaps\">L</span>-Arginine, methyl ester, hydrochloride (1:2);Arginine, methyl ester, dihydrochloride, <span class=\"text-smallcaps\">L</span>-;<span class=\"text-smallcaps\">L</span>-Arginine, methyl ester, dihydrochloride;Arginine methyl ester dihydrochloride",
    "duplicated_cas_no": "5629-84-5",
    "SMILES": "[C@H](CCCNC(=N)N)(C(OC)=O)N.Cl",
    "meta_data": {
        "InChI": "InChI=1S/C7H16N4O2.2ClH/c1-13-6(12)5(8)3-2-4-11-7(9)10;;/h5H,2-4,8H2,1H3,(H4,9,10,11);2*1H/t5-;;/m0../s1",
        "InChIKey": null,
        "Canonical SMILES": "Cl.O=C(OC)C(N)CCCNC(=N)N",
        "Molecular Formula": "C<sub>7</sub>H<sub>16</sub>N<sub>4</sub>O<sub>2</sub>.2ClH",
        "Molecular Mass": "",
        "Melting Point": "192-194 °C"
    }
}