{
    "cas_no": "695-53-4",
    "key_name": "Dimethadione",
    "cn_name": null,
    "alternate_name": "2,4-Oxazolidinedione, 5,5-dimethyl-;5,5-Dimethyl-2,4-oxazolidinedione;AC 1198;BAY 1400Z;Dimethadione;DMO;Eupractone;Dimethadion;5,5-Dimethyloxazolidinedione;Nortrimethadione;BAX 1400Z;NSC 30152;5,5-Dimethyl-1,3-oxazolidine-2,4-dione;MeSH ID: D004114",
    "duplicated_cas_no": "60254-97-9",
    "SMILES": "CC1(C)C(=O)NC(=O)O1",
    "meta_data": {
        "InChI": "InChI=1S/C5H7NO3/c1-5(2)3(7)6-4(8)9-5/h1-2H3,(H,6,7,8)",
        "InChIKey": null,
        "Canonical SMILES": "O=C1OC(C(=O)N1)(C)C",
        "Molecular Formula": "C<sub>5</sub>H<sub>7</sub>NO<sub>3</sub>",
        "Molecular Mass": "129.11",
        "Melting Point": "76.5 °C"
    }
}