{
    "cas_no": "1390-65-4",
    "key_name": "Carmine",
    "cn_name": "胭脂虫红铝;",
    "alternate_name": "Carmine;B Rose Liquid;Carmine red;CC 1000WS;MeSH ID: D002329",
    "duplicated_cas_no": "8022-93-3;52011-97-9",
    "SMILES": "",
    "meta_data": {
        "InChI": "",
        "InChIKey": null,
        "Canonical SMILES": "",
        "Molecular Formula": "Unspecified",
        "Molecular Mass": "",
        "Melting Point": "298-300 °C (decomp)"
    }
}