{
    "uri": "substance/pt/1390654",
    "rn": "1390-65-4",
    "name": "Carmine",
    "images": [],
    "inchi": "",
    "inchiKey": "",
    "smile": "",
    "canonicalSmile": "",
    "molecularFormula": "Unspecified",
    "molecularMass": "",
    "experimentalProperties": [
        {
            "name": "Melting Point",
            "property": "298-300 °C (decomp)",
            "sourceNumber": 1
        }
    ],
    "propertyCitations": [
        {
            "docUri": "document/pt/document/17995828",
            "sourceNumber": 1,
            "source": "King, F. E.; Journal of the Chemical Society, (1948), 1926-31, CAplus"
        }
    ],
    "synonyms": [
        "Carmine",
        "B Rose Liquid",
        "Carmine red",
        "CC 1000WS",
        "MeSH ID: D002329"
    ],
    "replacedRns": [
        "8022-93-3",
        "52011-97-9"
    ],
    "hasMolfile": false,
    "source": "https://commonchemistry.cas.org/detail?cas_rn=1390-65-4"
}