{
    "cas_no": "6642-31-5",
    "key_name": "6-Amino-1,3-dimethyluracil",
    "cn_name": "6-氨基-1,3-二甲基脲嘧啶;1,3-二甲基-6-氨基脲嘧啶;",
    "alternate_name": "2,4(1<em>H</em>,3<em>H</em>)-Pyrimidinedione, 6-amino-1,3-dimethyl-;Uracil, 6-amino-1,3-dimethyl-;6-Amino-1,3-dimethyl-2,4(1<em>H</em>,3<em>H</em>)-pyrimidinedione;6-Amino-1,3-dimethyluracil;1,3-Dimethyl-6-aminouracil;4-Amino-1,3-dimethyluracil;1,3-Dimethyl-4-aminouracil;6-Amino-1,3-dimethyl-2,4-pyrimidinedione;NSC 15492;6-Amino-1,3-dimethylpyrimidine-2,4(1<em>H</em>,3<em>H</em>)-dione;4-Amino-1,3-dimethyl-2,6-pyrimidinedione;<em>N</em>,<em>N</em>-Dimethyl-6-aminouracil",
    "duplicated_cas_no": "",
    "SMILES": "CN1C(=O)N(C)C(=O)C=C1N",
    "meta_data": {
        "InChI": "InChI=1S/C6H9N3O2/c1-8-4(7)3-5(10)9(2)6(8)11/h3H,7H2,1-2H3",
        "InChIKey": null,
        "Canonical SMILES": "O=C1C=C(N)N(C(=O)N1C)C",
        "Molecular Formula": "C<sub>6</sub>H<sub>9</sub>N<sub>3</sub>O<sub>2</sub>",
        "Molecular Mass": "155.15",
        "Melting Point": "305-307 °C"
    }
}