{
    "cas_no": "3303-84-2",
    "key_name": "BOC-β-alanine",
    "cn_name": "Boc-beta-丙氨酸;N-叔丁氧羰基-beta-丙氨酸;",
    "alternate_name": "β-Alanine, <em>N</em>-[(1,1-dimethylethoxy)carbonyl]-;β-Alanine, <em>N</em>-carboxy-, <em>N</em>-<em>tert</em>-butyl ester;<em>N</em>-[(1,1-Dimethylethoxy)carbonyl]-β-alanine;<em>N</em>-(<em>t</em>-Butoxycarbonyl)-β-alanine;<em>N</em>-[(<em>t</em>-Butyloxy)carbonyl]-β-alanine;<em>N</em>-<em>tert</em>-Butoxycarbonyl-β-alanine;<em>N</em>-(<em>tert</em>-Butyloxycarbonyl)-β-alanine;3-(<em>tert</em>-Butoxycarbonylamino)propionic acid;BOC-β-alanine;<em>N</em>-(<em>tert</em>-Butoxycarbonyl)-3-aminopropionic acid;BOC-3-aminopropanoic acid;<em>N</em>-Boc-β-alanine;3-(<em>tert</em>-Butoxycarbonylamino)propanoic acid;Boc-3-aminopropionic acid;3-[<em>N</em>-(<em>tert</em>-Butoxycarbonyl)amino]propionic acid;<em>N</em>-<em>tert</em>-Butoxycarbonyl-3-aminopropanoic acid;<em>N</em>-Boc-3-aminopropanoic acid;3-[(2-Methylpropan-2-yl)oxycarbonylamino]propanoic acid;Boc-β-HoGly-OH;Boc-beta-alanine;3-((<em>tert</em>-Butoxycarbonyl)amino)propanoic acid",
    "duplicated_cas_no": "",
    "SMILES": "C(OC(C)(C)C)(NCCC(O)=O)=O",
    "meta_data": {
        "InChI": "InChI=1S/C8H15NO4/c1-8(2,3)13-7(12)9-5-4-6(10)11/h4-5H2,1-3H3,(H,9,12)(H,10,11)",
        "InChIKey": null,
        "Canonical SMILES": "O=C(OC(C)(C)C)NCCC(=O)O",
        "Molecular Formula": "C<sub>8</sub>H<sub>15</sub>NO<sub>4</sub>",
        "Molecular Mass": "189.21",
        "Melting Point": "76-77 °C"
    }
}