{
    "cas_no": "925-78-0",
    "key_name": "3-Nonanone",
    "cn_name": "3-壬酮;乙基己酮;",
    "alternate_name": "3-Nonanone;Ethyl hexyl ketone;<em>n</em>-Hexyl ethyl ketone",
    "duplicated_cas_no": "",
    "SMILES": "C(CCCCCC)(CC)=O",
    "meta_data": {
        "InChI": "InChI=1S/C9H18O/c1-3-5-6-7-8-9(10)4-2/h3-8H2,1-2H3",
        "InChIKey": null,
        "Canonical SMILES": "O=C(CC)CCCCCC",
        "Molecular Formula": "C<sub>9</sub>H<sub>18</sub>O",
        "Molecular Mass": "142.24",
        "Boiling Point": "190 °C",
        "Melting Point": "-8 °C",
        "Density": "0.8215 g/cm³ @ Temp: 20 °C"
    }
}