{
    "cas_no": "6278-73-5",
    "key_name": "2-(4-Aminophenyl)benzothiazole",
    "cn_name": null,
    "alternate_name": "Benzenamine, 4-(2-benzothiazolyl)-;Benzothiazole, 2-(<em>p</em>-aminophenyl)-;4-(2-Benzothiazolyl)benzenamine;2-(<em>p</em>-Aminophenyl)benzothiazole;2-(4-Aminophenyl)benzothiazole;2-(4′-Aminophenyl)benzothiazole;CJM 126;NSC 34445;4-(Benzothiazol-2-yl)phenylamine;2-(4-Aminophenyl)-1,3-benzothiazole;4-(Benzothiazol-2-yl)aniline;4-(Benzo[<em>d</em>]thiazol-2-yl)aniline;4-(Benzo[<em>d</em>]thiazol-2-yl)benzenamine;2-(4-Aminophenyl)benzo[<em>d</em>]thiazole",
    "duplicated_cas_no": "",
    "SMILES": "NC1=CC=C(C2=NC=3C(S2)=CC=CC3)C=C1",
    "meta_data": {
        "InChI": "InChI=1S/C13H10N2S/c14-10-7-5-9(6-8-10)13-15-11-3-1-2-4-12(11)16-13/h1-8H,14H2",
        "InChIKey": null,
        "Canonical SMILES": "N1=C(SC=2C=CC=CC12)C3=CC=C(N)C=C3",
        "Molecular Formula": "C<sub>13</sub>H<sub>10</sub>N<sub>2</sub>S",
        "Molecular Mass": "226.30",
        "Melting Point": "150-153 °C"
    }
}