{
    "cas_no": "3082-62-0",
    "key_name": "(-)-1-(2-Naphthyl)ethylamine",
    "cn_name": "(S)-(-)-1-(2-萘基)乙胺;",
    "alternate_name": "2-Naphthalenemethanamine, α-methyl-, (α<em>S</em>)-;2-Naphthalenemethylamine, α-methyl-, (<em>S</em>)-(-)-;2-Naphthalenemethanamine, α-methyl-, (<em>S</em>)-;(α<em>S</em>)-α-Methyl-2-naphthalenemethanamine;(-)-α-2-Naphthylethylamine;(-)-1-(2-Naphthyl)ethylamine;(<em>S</em>)-α-Methyl-2-naphthalenemethanamine;(<em>S</em>)-1-(2-Naphthyl)ethylamine;(<em>S</em>)-(-)-α-(2-Naphthyl)ethylamine;(<em>S</em>)-(-)-1-(2-Naphthyl)ethylamine;[(<em>S</em>)-1-(Naphthalen-2-yl)ethyl]amine;(<em>S</em>)-1-(β-Naphthyl)ethylamine;(<em>S</em>)-(-)-1-(Naphthalen-2-yl)ethylamine;(1<em>S</em>)-1-(2-Naphthyl)ethanamine;(<em>S</em>)-1-(Naphthalen-2-yl)ethanamine;(1<em>S</em>)-1-(2-Naphthyl)ethylamine;(1S)-1-(Naphthalen-2-yl)ethan-1-amine;(1S)-1-Naphthalen-2-ylethanamine;2-Naphthalenemethanamine α-methyl-, (αS)-",
    "duplicated_cas_no": "",
    "SMILES": "[C@@H](C)(N)C1=CC2=C(C=C1)C=CC=C2",
    "meta_data": {
        "InChI": "InChI=1S/C12H13N/c1-9(13)11-7-6-10-4-2-3-5-12(10)8-11/h2-9H,13H2,1H3/t9-/m0/s1",
        "InChIKey": null,
        "Canonical SMILES": "NC(C=1C=CC=2C=CC=CC2C1)C",
        "Molecular Formula": "C<sub>12</sub>H<sub>13</sub>N",
        "Molecular Mass": "171.24",
        "Boiling Point": "75-76 °C @ Press: 0.75 Torr",
        "Melting Point": "150.5-151.5 °C"
    }
}