{
    "cas_no": "23996-12-5",
    "key_name": "2PZ-CN",
    "cn_name": "1-氰乙基-2-苯基咪唑;",
    "alternate_name": "1<em>H</em>-Imidazole-1-propanenitrile, 2-phenyl-;Imidazole-1-propionitrile, 2-phenyl-;2-Phenyl-1<em>H</em>-imidazole-1-propanenitrile;1-(2-Cyanoethyl)-2-phenylimidazole;1-(Cyanoethyl)-2-phenylimidazole;1-(Cyanoethyl)-2-phenyl-1<em>H</em>-imidazole;Curezol 2PZ-CN;2PZ-CN",
    "duplicated_cas_no": "83930-92-1;145150-83-0",
    "SMILES": "C(CC#N)N1C(=NC=C1)C2=CC=CC=C2",
    "meta_data": {
        "InChI": "InChI=1S/C12H11N3/c13-7-4-9-15-10-8-14-12(15)11-5-2-1-3-6-11/h1-3,5-6,8,10H,4,9H2",
        "InChIKey": null,
        "Canonical SMILES": "N#CCCN1C=CN=C1C=2C=CC=CC2",
        "Molecular Formula": "C<sub>12</sub>H<sub>11</sub>N<sub>3</sub>",
        "Molecular Mass": "197.24",
        "Melting Point": "107-108 °C"
    }
}