{
    "cas_no": "72925-16-7",
    "key_name": "1-(1,1-Dimethylethyl) (3<em>R</em>)-1,3-pyrrolidinedicarboxylate",
    "cn_name": "(R)-1-Boc-3-羧基吡咯烷;(R)-1-叔丁氧羰基-3-羧基吡咯烷;",
    "alternate_name": "1,3-Pyrrolidinedicarboxylic acid, 1-(1,1-dimethylethyl) ester, (3<em>R</em>)-;1,3-Pyrrolidinedicarboxylic acid, 1-(1,1-dimethylethyl) ester, (<em>R</em>)-;1-(1,1-Dimethylethyl) (3<em>R</em>)-1,3-pyrrolidinedicarboxylate;(3R)-1-(<em>tert</em>-Butoxycarbonyl)-3-pyrrolidinecarboxylic acid;(<em>R</em>)-1-(<em>tert</em>-Butoxycarbonyl)pyrrolidine-3-carboxylic acid;(3<em>R</em>)-1-[[(1,1-Dimethylethyl)oxy]carbonyl]-3-pyrrolidinecarboxylic acid;(R)-1-(<em>tert</em>-Butoxycarbonyl)pyrrolidine-3-carboxylic acid;(3R)-1-[(2-Methylpropan-2-yl)oxycarbonyl]pyrrolidine-3-carboxylic acid;(3<em>R</em>)-1-<em>tert</em>-Butoxycarbonylpyrrolidine-3-carboxylic acid;(R)-1-Boc-pyrrolidine-3-carboxylic Acid;(3<em>R</em>)-1,3-Pyrrolidinedicarboxylic acid 1-(1,1-dimethylethyl) ester",
    "duplicated_cas_no": "",
    "SMILES": "C(OC(C)(C)C)(=O)N1C[C@H](C(O)=O)CC1",
    "meta_data": {
        "InChI": "InChI=1S/C10H17NO4/c1-10(2,3)15-9(14)11-5-4-7(6-11)8(12)13/h7H,4-6H2,1-3H3,(H,12,13)/t7-/m1/s1",
        "InChIKey": null,
        "Canonical SMILES": "O=C(OC(C)(C)C)N1CCC(C(=O)O)C1",
        "Molecular Formula": "C<sub>10</sub>H<sub>17</sub>NO<sub>4</sub>",
        "Molecular Mass": "215.25",
        "Melting Point": "139-141 °C"
    }
}