{
    "cas_no": "623-08-5",
    "key_name": "<em>N</em>-Methyl-<em>p</em>-toluidine",
    "cn_name": null,
    "alternate_name": "Benzenamine, <em>N</em>,4-dimethyl-;<em>p</em>-Toluidine, <em>N</em>-methyl-;<em>N</em>,4-Dimethylbenzenamine;<em>N</em>-Methyl-<em>p</em>-toluidine;<em>N</em>-Methyl-4-methylaniline;<em>N</em>,<em>p</em>-Dimethylaniline;<em>p</em>,<em>N</em>-Dimethylaniline;4-Methyl-<em>N</em>-methylaniline;<em>p</em>-Methyl-<em>N</em>-methylaniline;<em>N</em>,4-Dimethylaniline;<em>N</em>-Methyl-<em>p</em>-methylaniline;<em>N</em>-Methyl-<em>p</em>-tolylamine;4-(Methylamino)toluene;Methyl(4-methylphenyl)amine;<em>N</em>-Methyl(4-methylphenyl)amine;<em>N</em>-Methyl-<em>p</em>-toluydine;<em>N</em>-(4-Methylphenyl)methylamine",
    "duplicated_cas_no": "",
    "SMILES": "N(C)C1=CC=C(C)C=C1",
    "meta_data": {
        "InChI": "InChI=1S/C8H11N/c1-7-3-5-8(9-2)6-4-7/h3-6,9H,1-2H3",
        "InChIKey": null,
        "Canonical SMILES": "C=1C=C(C=CC1NC)C",
        "Molecular Formula": "C<sub>8</sub>H<sub>11</sub>N",
        "Molecular Mass": "121.18",
        "Boiling Point": "210 °C",
        "Melting Point": "128 °C",
        "Density": "0.9584 g/cm³ @ Temp: 25 °C"
    }
}