{
    "cas_no": "2825-82-3",
    "key_name": "<em>exo</em>-Tetrahydrodicyclopentadiene",
    "cn_name": "四氢双环戊二烯;四氢二环戊二烯;",
    "alternate_name": "4,7-Methano-1<em>H</em>-indene, octahydro-, (3a<em>R</em>,4<em>S</em>,7<em>R</em>,7a<em>S</em>)-<em>rel</em>-;4,7-Methanoindan, hexahydro-, <em>exo</em>-;4,7-Methano-1<em>H</em>-indene, octahydro-, (3aα,4β,7β,7aα)-;<em>rel</em>-(3a<em>R</em>,4<em>S</em>,7<em>R</em>,7a<em>S</em>)-Octahydro-4,7-methano-1<em>H</em>-indene;<em>exo</em>-3,4,8,9-Tetrahydrodicyclopentadiene;<em>exo</em>-Tricyclo[5.2.1.0<sup>2,6</sup>]decane;<em>exo</em>-Tetrahydrodicyclopentadiene;<em>exo</em>-Tetrahydrobicyclopentadiene;<em>exo</em>-5,6-Trimethylenenorbornane;<em>exo</em>-Trimethylenenorbornane;<em>exo</em>-Octahydro-4,7-methano-1<em>H</em>-indene;JP 10",
    "duplicated_cas_no": "50745-89-6",
    "SMILES": "[C@@]12([C@]([C@]3(C[C@@]1(CC3)[H])[H])(CCC2)[H])[H]",
    "meta_data": {
        "InChI": "InChI=1/C10H16/c1-2-9-7-4-5-8(6-7)10(9)3-1/h7-10H,1-6H2/t7-,8+,9+,10-",
        "InChIKey": null,
        "Canonical SMILES": "C1CC2C3CCC(C3)C2C1",
        "Molecular Formula": "C<sub>10</sub>H<sub>16</sub>",
        "Molecular Mass": "136.23",
        "Boiling Point": "185 °C",
        "Density": "0.9314 g/cm³ @ Temp: 25.00 °C"
    }
}