{
    "cas_no": "5006-45-1",
    "key_name": "6-Chloro-4-oxo-4<em>H</em>-1-benzopyran-2-carboxylic acid",
    "cn_name": null,
    "alternate_name": "4<em>H</em>-1-Benzopyran-2-carboxylic acid, 6-chloro-4-oxo-;6-Chloro-4-oxo-4<em>H</em>-1-benzopyran-2-carboxylic acid;6-Chlorochromone-2-carboxylic acid",
    "duplicated_cas_no": "",
    "SMILES": "O=C1C=2C(OC(C(O)=O)=C1)=CC=C(Cl)C2",
    "meta_data": {
        "InChI": "InChI=1S/C10H5ClO4/c11-5-1-2-8-6(3-5)7(12)4-9(15-8)10(13)14/h1-4H,(H,13,14)",
        "InChIKey": null,
        "Canonical SMILES": "O=C(O)C=1OC2=CC=C(Cl)C=C2C(=O)C1",
        "Molecular Formula": "C<sub>10</sub>H<sub>5</sub>ClO<sub>4</sub>",
        "Molecular Mass": "224.60",
        "Melting Point": "261-262 °C"
    }
}