{
    "cas_no": "1132-61-2",
    "key_name": "MOPS",
    "cn_name": "3-吗啉丙磺酸;3-(N-吗啡啉)丙磺酸;",
    "alternate_name": "4-Morpholinepropanesulfonic acid;MOPS;Morpholinopropanesulfonic acid;3-Morpholinopropanesulfonic acid;3-(<em>N</em>-Morpholino)propanesulfonic acid;WAS 15;3-(4-Morpholino)propanesulfonic acid;3-Morpholin-4-ium-4-ylpropane-1-sulfonate;3-Morpholin-4-yl-propane-1-sulfonic acid",
    "duplicated_cas_no": "",
    "SMILES": "C(CCS(=O)(=O)O)N1CCOCC1",
    "meta_data": {
        "InChI": "InChI=1S/C7H15NO4S/c9-13(10,11)7-1-2-8-3-5-12-6-4-8/h1-7H2,(H,9,10,11)",
        "InChIKey": null,
        "Canonical SMILES": "O=S(=O)(O)CCCN1CCOCC1",
        "Molecular Formula": "C<sub>7</sub>H<sub>15</sub>NO<sub>4</sub>S",
        "Molecular Mass": "209.26",
        "Melting Point": "284 °C"
    }
}