{
    "cas_no": "22627-70-9",
    "key_name": "3-Ethoxy-2-cyclopenten-1-one",
    "cn_name": "3-乙氧基-2-环戊烯酮;",
    "alternate_name": "2-Cyclopenten-1-one, 3-ethoxy-;3-Ethoxy-2-cyclopenten-1-one;3-Ethoxy-2-cyclopentenone;3-Ethoxycyclopent-2-en-1-one;1-Ethoxy-1-cyclopenten-3-one",
    "duplicated_cas_no": "",
    "SMILES": "O(CC)C1=CC(=O)CC1",
    "meta_data": {
        "InChI": "InChI=1S/C7H10O2/c1-2-9-7-4-3-6(8)5-7/h5H,2-4H2,1H3",
        "InChIKey": null,
        "Canonical SMILES": "O=C1C=C(OCC)CC1",
        "Molecular Formula": "C<sub>7</sub>H<sub>10</sub>O<sub>2</sub>",
        "Molecular Mass": "126.15",
        "Boiling Point": "62 °C @ Press: 5 Torr"
    }
}