{
    "cas_no": "6223-35-4",
    "key_name": "1-Azulenesulfonic acid, 3,8-dimethyl-5-(1-methylethyl)-, sodium salt (1:1)",
    "cn_name": "薁磺酸钠;1,4-二甲基-7-异丙基甘菊环-3-磺酸钠;",
    "alternate_name": "1-Azulenesulfonic acid, 3,8-dimethyl-5-(1-methylethyl)-, sodium salt (1:1);1-Azulenesulfonic acid, 5-isopropyl-3,8-dimethyl-, sodium salt;1-Azulenesulfonic acid, 3,8-dimethyl-5-(1-methylethyl)-, sodium salt;Sodium 5-isopropyl-3,8-dimethyl-1-azulenesulfonate;Azulen SN;Azupromin;Sodium 7-isopropyl-1,4-dimethylazulene-3-sulfonate;Sodium guaiazulene-3-sulfonate;Sodium 1,4-dimethyl-7-isopropylazulene-3-sulfonate;Azunol ST;Sodium guaiazulenesulfonate;Azulene SN;Sodium 3-methyl-5-isopropyl-8-methylazulenesulfonate;Sodium gualenate;Guaiazulene 3-sulfonate sodium salt;Guaiazulene soluble",
    "duplicated_cas_no": "133414-61-6",
    "SMILES": "S(=O)(=O)(O)C=1C=2C(=C(C)C1)C=C(C(C)C)C=CC2C.[Na]",
    "meta_data": {
        "InChI": "InChI=1S/C15H18O3S.Na/c1-9(2)12-6-5-10(3)15-13(8-12)11(4)7-14(15)19(16,17)18;/h5-9H,1-4H3,(H,16,17,18);",
        "InChIKey": null,
        "Canonical SMILES": "[Na].O=S(=O)(O)C=1C=C(C2=CC(=CC=C(C21)C)C(C)C)C",
        "Molecular Formula": "C<sub>15</sub>H<sub>18</sub>O<sub>3</sub>S.Na",
        "Molecular Mass": "",
        "Melting Point": "98 °C"
    }
}