{
    "cas_no": "14077-58-8",
    "key_name": "2-Ethoxyacetyl chloride",
    "cn_name": null,
    "alternate_name": "Acetyl chloride, 2-ethoxy-;Acetyl chloride, ethoxy-;2-Ethoxyacetyl chloride;Ethoxyacetyl chloride;α-Ethoxyacetyl chloride;Ethoxyacetic acid chloride",
    "duplicated_cas_no": "",
    "SMILES": "C(C(Cl)=O)OCC",
    "meta_data": {
        "InChI": "InChI=1S/C4H7ClO2/c1-2-7-3-4(5)6/h2-3H2,1H3",
        "InChIKey": null,
        "Canonical SMILES": "O=C(Cl)COCC",
        "Molecular Formula": "C<sub>4</sub>H<sub>7</sub>ClO<sub>2</sub>",
        "Molecular Mass": "122.55",
        "Boiling Point": "125 °C"
    }
}