{
    "cas_no": "364-76-1",
    "key_name": "4-Fluoro-3-nitroaniline",
    "cn_name": "4-氟-3-硝基苯胺;",
    "alternate_name": "Benzenamine, 4-fluoro-3-nitro-;Aniline, 4-fluoro-3-nitro-;4-Fluoro-3-nitrobenzenamine;4-Fluoro-3-nitroaniline;3-Nitro-4-fluoroaniline;4-Fluoro-3-nitrophenylamine;NSC 10293",
    "duplicated_cas_no": "",
    "SMILES": "N(=O)(=O)C1=C(F)C=CC(N)=C1",
    "meta_data": {
        "InChI": "InChI=1S/C6H5FN2O2/c7-5-2-1-4(8)3-6(5)9(10)11/h1-3H,8H2",
        "InChIKey": null,
        "Canonical SMILES": "O=N(=O)C1=CC(N)=CC=C1F",
        "Molecular Formula": "C<sub>6</sub>H<sub>5</sub>FN<sub>2</sub>O<sub>2</sub>",
        "Molecular Mass": "156.11",
        "Melting Point": "96.5 °C"
    }
}