{
    "cas_no": "1511-16-6",
    "key_name": "1-Butanone, 4-[4-(4-chlorophenyl)-4-hydroxy-1-piperidinyl]-1-(4-fluorophenyl)-, hydrochloride (1:1)",
    "cn_name": null,
    "alternate_name": "1-Butanone, 4-[4-(4-chlorophenyl)-4-hydroxy-1-piperidinyl]-1-(4-fluorophenyl)-, hydrochloride (1:1);Butyrophenone, 4-[4-(<em>p</em>-chlorophenyl)-4-hydroxypiperidino]-4′-fluoro-, hydrochloride;1-Butanone, 4-[4-(4-chlorophenyl)-4-hydroxy-1-piperidinyl]-1-(4-fluorophenyl)-, hydrochloride;Haloperidol chlorohydrate;Haloperidol hydrochloride;Haloperidol chloride",
    "duplicated_cas_no": "",
    "SMILES": "OC1(C2=CC=C(Cl)C=C2)CCN(CCCC(=O)C3=CC=C(F)C=C3)CC1.Cl",
    "meta_data": {
        "InChI": "InChI=1S/C21H23ClFNO2.ClH/c22-18-7-5-17(6-8-18)21(26)11-14-24(15-12-21)13-1-2-20(25)16-3-9-19(23)10-4-16;/h3-10,26H,1-2,11-15H2;1H",
        "InChIKey": null,
        "Canonical SMILES": "Cl.O=C(C1=CC=C(F)C=C1)CCCN2CCC(O)(C3=CC=C(Cl)C=C3)CC2",
        "Molecular Formula": "C<sub>21</sub>H<sub>23</sub>ClFNO<sub>2</sub>.ClH",
        "Molecular Mass": "",
        "Melting Point": "226-227.5 °C"
    }
}