{
    "cas_no": "612-35-1",
    "key_name": "2-(Phenylmethyl)benzoic acid",
    "cn_name": "2-苄基苯甲酸;",
    "alternate_name": "Benzoic acid, 2-(phenylmethyl)-;<em>o</em>-Toluic acid, α-phenyl-;2-(Phenylmethyl)benzoic acid;<em>o</em>-Benzylbenzoic acid;<em>o</em>-Diphenylmethanecarboxylic acid;2-Benzylbenzoic acid;α-Phenyl-<em>o</em>-toluic acid;α-Phenyl-2-toluic acid;NSC 74872",
    "duplicated_cas_no": "",
    "SMILES": "C(C1=C(C(O)=O)C=CC=C1)C2=CC=CC=C2",
    "meta_data": {
        "InChI": "InChI=1S/C14H12O2/c15-14(16)13-9-5-4-8-12(13)10-11-6-2-1-3-7-11/h1-9H,10H2,(H,15,16)",
        "InChIKey": null,
        "Canonical SMILES": "O=C(O)C=1C=CC=CC1CC=2C=CC=CC2",
        "Molecular Formula": "C<sub>14</sub>H<sub>12</sub>O<sub>2</sub>",
        "Molecular Mass": "212.24",
        "Melting Point": "118 °C"
    }
}