{
    "cas_no": "2162-99-4",
    "key_name": "1,8-Dichlorooctane",
    "cn_name": null,
    "alternate_name": "Octane, 1,8-dichloro-;1,8-Dichlorooctane",
    "duplicated_cas_no": "",
    "SMILES": "C(CCCCCl)CCCCl",
    "meta_data": {
        "InChI": "InChI=1S/C8H16Cl2/c9-7-5-3-1-2-4-6-8-10/h1-8H2",
        "InChIKey": null,
        "Canonical SMILES": "ClCCCCCCCCCl",
        "Molecular Formula": "C<sub>8</sub>H<sub>16</sub>Cl<sub>2</sub>",
        "Molecular Mass": "183.12",
        "Boiling Point": "241 °C"
    }
}