{
    "cas_no": "109-09-1",
    "key_name": "2-Chloropyridine",
    "cn_name": "2-氯吡啶;",
    "alternate_name": "Pyridine, 2-chloro-;2-Chloropyridine;<em>o</em>-Chloropyridine;α-Chloropyridine;NSC 4649",
    "duplicated_cas_no": "",
    "SMILES": "ClC1=CC=CC=N1",
    "meta_data": {
        "InChI": "InChI=1S/C5H4ClN/c6-5-3-1-2-4-7-5/h1-4H",
        "InChIKey": null,
        "Canonical SMILES": "ClC1=NC=CC=C1",
        "Molecular Formula": "C<sub>5</sub>H<sub>4</sub>ClN",
        "Molecular Mass": "113.54",
        "Boiling Point": "170 °C",
        "Melting Point": "-46.5 °C",
        "Density": "1.209 x 10⁻³ g/cm³ (liquid)"
    }
}