{
    "cas_no": "83846-85-9",
    "key_name": "4-Benzoyl-4′-methyldiphenyl sulfide",
    "cn_name": "4-苯甲酰基-4\"-甲基-二苯硫醚;",
    "alternate_name": "Methanone, [4-[(4-methylphenyl)thio]phenyl]phenyl-;[4-[(4-Methylphenyl)thio]phenyl]phenylmethanone;Quantacure BMS;4-Benzoyl-4′-methyldiphenyl sulfide;Kayacure BMS;Phenyl (<em>p</em>-tolylthio)phenyl ketone;4-(4-Methylphenylthio)benzophenone;4-(<em>p</em>-Tolylthio)benzophenone;4-(4-Tolylthio)benzophenone;4-Benzoyl-4′-methyldiphenyl thioether;Speedcure BMS;SB-PI 705;Runtecure 1030;Lunacure BMS;BMS;Chemcure BMS;[4-(4-Methylphenyl)sulfanylphenyl]-phenylmethanone;Omnirad BMS;4-(4-Toluylthio)benzophenone",
    "duplicated_cas_no": "2485041-50-5",
    "SMILES": "C(=O)(C1=CC=C(SC2=CC=C(C)C=C2)C=C1)C3=CC=CC=C3",
    "meta_data": {
        "InChI": "InChI=1S/C20H16OS/c1-15-7-11-18(12-8-15)22-19-13-9-17(10-14-19)20(21)16-5-3-2-4-6-16/h2-14H,1H3",
        "InChIKey": null,
        "Canonical SMILES": "O=C(C=1C=CC=CC1)C2=CC=C(SC3=CC=C(C=C3)C)C=C2",
        "Molecular Formula": "C<sub>20</sub>H<sub>16</sub>OS",
        "Molecular Mass": "304.41",
        "Melting Point": "123-125 °C"
    }
}