{
    "cas_no": "24602-86-6",
    "key_name": "2,6-Dimethyl-4-tridecylmorpholine",
    "cn_name": "十三吗啉;2,6-二甲基十三烷基吗啉;三得芬;",
    "alternate_name": "Morpholine, 2,6-dimethyl-4-tridecyl-;2,6-Dimethyl-4-tridecylmorpholine;<em>N</em>-Tridecyl-2,6-dimethylmorpholine;NSC 232676",
    "duplicated_cas_no": "",
    "SMILES": "C(CCCCCCCCCCCC)N1CC(C)OC(C)C1",
    "meta_data": {
        "InChI": "InChI=1S/C19H39NO/c1-4-5-6-7-8-9-10-11-12-13-14-15-20-16-18(2)21-19(3)17-20/h18-19H,4-17H2,1-3H3",
        "InChIKey": null,
        "Canonical SMILES": "O1C(C)CN(CCCCCCCCCCCCC)CC1C",
        "Molecular Formula": "C<sub>19</sub>H<sub>39</sub>NO",
        "Molecular Mass": "297.52",
        "Boiling Point": "140 °C",
        "Melting Point": "&lt;25 °C"
    }
}