{
    "cas_no": "2664-60-0",
    "key_name": "Dodecyl 4-hydroxybenzoate",
    "cn_name": "尼泊金十二酯;正十二烷基对羟基苯甲酸酯;",
    "alternate_name": "Benzoic acid, 4-hydroxy-, dodecyl ester;Benzoic acid, <em>p</em>-hydroxy-, dodecyl ester;Dodecyl 4-hydroxybenzoate;Dodecyl <em>p</em>-hydroxybenzoate;Lauryl <em>p</em>-hydroxybenzoate;<em>n</em>-Dodecyl <em>p</em>-hydroxybenzoate;Lauryl 4-hydroxybenzoate;<em>p</em>-Hydroxybenzoic acid dodecyl ester;NSC 309822;POB-C 12",
    "duplicated_cas_no": "",
    "SMILES": "C(OCCCCCCCCCCCC)(=O)C1=CC=C(O)C=C1",
    "meta_data": {
        "InChI": "InChI=1S/C19H30O3/c1-2-3-4-5-6-7-8-9-10-11-16-22-19(21)17-12-14-18(20)15-13-17/h12-15,20H,2-11,16H2,1H3",
        "InChIKey": null,
        "Canonical SMILES": "O=C(OCCCCCCCCCCCC)C1=CC=C(O)C=C1",
        "Molecular Formula": "C<sub>19</sub>H<sub>30</sub>O<sub>3</sub>",
        "Molecular Mass": "306.44",
        "Melting Point": "39-41 °C"
    }
}