{
    "cas_no": "1903-91-9",
    "key_name": "Ethanimidamide, 2-methoxy-, hydrochloride (1:1)",
    "cn_name": null,
    "alternate_name": "Ethanimidamide, 2-methoxy-, hydrochloride (1:1);Acetamidine, 2-methoxy-, monohydrochloride;Ethanimidamide, 2-methoxy-, monohydrochloride;Acetamidine, 2-methoxy-, hydrochloride;2-Methoxyacetamidine hydrochloride;Methoxyacetamidine hydrochloride;2-Methoxyethanimidamide hydrochloride;2-Methoxyacetimidamide hydrochloride",
    "duplicated_cas_no": "",
    "SMILES": "C(C(=N)N)OC.Cl",
    "meta_data": {
        "InChI": "InChI=1S/C3H8N2O.ClH/c1-6-2-3(4)5;/h2H2,1H3,(H3,4,5);1H",
        "InChIKey": null,
        "Canonical SMILES": "Cl.N=C(N)COC",
        "Molecular Formula": "C<sub>3</sub>H<sub>8</sub>N<sub>2</sub>O.ClH",
        "Molecular Mass": "",
        "Melting Point": "70 °C"
    }
}