{
    "cas_no": "540-49-8",
    "key_name": "1,2-Dibromoethene",
    "cn_name": "1,2-二溴乙烯;二溴乙烯;1,2-二溴代乙烯;1,2-二溴化乙炔;二溴化乙炔;",
    "alternate_name": "Ethene, 1,2-dibromo-;Ethylene, 1,2-dibromo-;1,2-Dibromoethene;1,2-Dibromoethylene;Acetylene dibromide;<em>sym</em>-Dibromoethylene;2-Bromovinyl bromide;NSC 8744",
    "duplicated_cas_no": "",
    "SMILES": "C(=CBr)Br",
    "meta_data": {
        "InChI": "InChI=1S/C2H2Br2/c3-1-2-4/h1-2H",
        "InChIKey": null,
        "Canonical SMILES": "BrC=CBr",
        "Molecular Formula": "C<sub>2</sub>H<sub>2</sub>Br<sub>2</sub>",
        "Molecular Mass": "185.85",
        "Boiling Point": "110 °C @ Press: 754 Torr",
        "Melting Point": "-53 °C",
        "Density": "2.21 g/cm³ @ Temp: 17 °C"
    }
}