{
    "cas_no": "50-66-8",
    "key_name": "6-Methylmercaptopurine",
    "cn_name": null,
    "alternate_name": "9<em>H</em>-Purine, 6-(methylthio)-;Purine, 6-(methylthio)-;1<em>H</em>-Purine, 6-(methylthio)-;6-(Methylthio)-9<em>H</em>-purine;6-Methylmercaptopurine;6-(Methylthio)purine;SQ 8343;<em>S</em>-Methyl-6-mercaptopurine;NSC 20105",
    "duplicated_cas_no": "24660-73-9",
    "SMILES": "S(C)C1=C2C(N=CN2)=NC=N1",
    "meta_data": {
        "InChI": "InChI=1S/C6H6N4S/c1-11-6-4-5(8-2-7-4)9-3-10-6/h2-3H,1H3,(H,7,8,9,10)",
        "InChIKey": null,
        "Canonical SMILES": "N1=CN=C(SC)C=2NC=NC12",
        "Molecular Formula": "C<sub>6</sub>H<sub>6</sub>N<sub>4</sub>S",
        "Molecular Mass": "166.20",
        "Melting Point": "218-220 °C (decomp)"
    }
}