{
    "cas_no": "56392-17-7",
    "key_name": "Metoprolol tartrate",
    "cn_name": null,
    "alternate_name": "2-Propanol, 1-[4-(2-methoxyethyl)phenoxy]-3-[(1-methylethyl)amino]-, (2<em>R</em>,3<em>R</em>)-2,3-dihydroxybutanedioate (2:1);2-Propanol, 1-[4-(2-methoxyethyl)phenoxy]-3-[(1-methylethyl)amino]-, (±)-, [<em>R</em>-(<em>R</em>*,<em>R</em>*)]-2,3-dihydroxybutanedioate (2:1) (salt);2-Propanol, 1-[4-(2-methoxyethyl)phenoxy]-3-[(1-methylethyl)amino]-, (2<em>R</em>,3<em>R</em>)-2,3-dihydroxybutanedioate (2:1) (salt);Metoprolol tartrate;Lopresor;Seloken;Betaloc;Slow Lopresor;H 93/26;Metoprolol tartrate (2:1);(±)-Metoprolol tartrate;Beloc;(±)-Metoprolol bitartrate;1-(Isopropylamino)-3-[4-(2-methoxyethyl)phenoxy]-2-propanol tartrate;Vasocardin;(±)-1-(Isopropylamino)-3-[4-(2-methoxyethyl)phenoxy]-2-propanol tartrate;2-Propanol, 1-[4-(2-methoxyethyl)phenoxy]-3-[(1-methylethyl)amino]-, [<em>R</em>-(<em>R</em>*,<em>R</em>*)]-2,3-dihydroxybutanedioate (2:1) (salt);Selopral;CGP 2175E;Prelis;HCTCGP 2175E;Metoprolol (+)-tartrate;Metapro;Metolar;(±)Metoprolol-(+)-tartarate salt;MetoHEXAL;RS-metoprolol tartrate",
    "duplicated_cas_no": "129947-83-7;54112-93-5;55250-54-9;60168-92-5;71307-49-8;74220-04-5",
    "SMILES": "O(CC(CNC(C)C)O)C1=CC=C(CCOC)C=C1.[C@@H]([C@H](C(O)=O)O)(C(O)=O)O",
    "meta_data": {
        "InChI": "InChI=1S/C15H25NO3.C4H6O6/c1-12(2)16-10-14(17)11-19-15-6-4-13(5-7-15)8-9-18-3;5-1(3(7)8)2(6)4(9)10/h4-7,12,14,16-17H,8-11H2,1-3H3;1-2,5-6H,(H,7,8)(H,9,10)/t;1-,2-/m.1/s1",
        "InChIKey": null,
        "Canonical SMILES": "O=C(O)C(O)C(O)C(=O)O.OC(COC1=CC=C(C=C1)CCOC)CNC(C)C",
        "Molecular Formula": "C<sub>15</sub>H<sub>25</sub>NO<sub>3</sub>.<sup>1</sup>/<sub>2</sub>C<sub>4</sub>H<sub>6</sub>O<sub>6</sub>",
        "Molecular Mass": "",
        "Melting Point": "120-123 °C"
    }
}