{
    "cas_no": "431-22-1",
    "key_name": "1,2-Dibromo-3,3,3-trifluoro-1-propene",
    "cn_name": "1,2-二溴-3,3,3-三氟丙烯;1,2-二溴-3,3,3-三氟丙烯;",
    "alternate_name": "1-Propene, 1,2-dibromo-3,3,3-trifluoro-;Propene, 1,2-dibromo-3,3,3-trifluoro-;1,2-Dibromo-3,3,3-trifluoro-1-propene;1,2-Dibromo-3,3,3-trifluoropropene",
    "duplicated_cas_no": "",
    "SMILES": "C(C(F)(F)F)(=CBr)Br",
    "meta_data": {
        "InChI": "InChI=1S/C3HBr2F3/c4-1-2(5)3(6,7)8/h1H",
        "InChIKey": null,
        "Canonical SMILES": "FC(F)(F)C(Br)=CBr",
        "Molecular Formula": "C<sub>3</sub>HBr<sub>2</sub>F<sub>3</sub>",
        "Molecular Mass": "253.84",
        "Boiling Point": "96 °C"
    }
}