{
    "cas_no": "74-96-4",
    "key_name": "Ethyl bromide",
    "cn_name": "溴乙烷;一溴乙烷;乙基溴;溴代乙烷;1-溴乙烷;",
    "alternate_name": "Ethane, bromo-;Bromoethane;Bromic ether;Hydrobromic ether;Monobromoethane;Ethyl bromide;F 160B1;NSC 8824;2-Bromoethane",
    "duplicated_cas_no": "",
    "SMILES": "C(Br)C",
    "meta_data": {
        "InChI": "InChI=1S/C2H5Br/c1-2-3/h2H2,1H3",
        "InChIKey": null,
        "Canonical SMILES": "BrCC",
        "Molecular Formula": "C<sub>2</sub>H<sub>5</sub>Br",
        "Molecular Mass": "108.97",
        "Boiling Point": "38.2 °C",
        "Melting Point": "-119 °C",
        "Density": "1.4612 g/cm³ @ Temp: 20 °C"
    }
}