{
    "cas_no": "4222-20-2",
    "key_name": "3,3-Diphenyl-3<em>H</em>-naphtho[2,1-<em>b</em>]pyran",
    "cn_name": "3,3-二苯基-3H-萘并[2,1-b]吡喃;",
    "alternate_name": "3<em>H</em>-Naphtho[2,1-<em>b</em>]pyran, 3,3-diphenyl-;3,3-Diphenyl-3<em>H</em>-naphtho[2,1-<em>b</em>]pyran;2,2-Diphenyl-5,6-benzo(2<em>H</em>)chromene;Variacrol Yellow L;D 3197;Photopia AQ Ink Yellow;3,3-Diphenylbenzo[<em>f</em>]chromene",
    "duplicated_cas_no": "1613045-99-0",
    "SMILES": "C1(OC=2C(C=C1)=C3C(=CC2)C=CC=C3)(C4=CC=CC=C4)C5=CC=CC=C5",
    "meta_data": {
        "InChI": "InChI=1S/C25H18O/c1-3-10-20(11-4-1)25(21-12-5-2-6-13-21)18-17-23-22-14-8-7-9-19(22)15-16-24(23)26-25/h1-18H",
        "InChIKey": null,
        "Canonical SMILES": "O1C2=CC=C3C=CC=CC3=C2C=CC1(C=4C=CC=CC4)C=5C=CC=CC5",
        "Molecular Formula": "C<sub>25</sub>H<sub>18</sub>O",
        "Molecular Mass": "334.41",
        "Melting Point": "160-161 °C"
    }
}