{
    "cas_no": "64030-44-0",
    "key_name": "(2<em>S</em>)-<em>N</em>-Phenyl-2-pyrrolidinemethanamine",
    "cn_name": "(S)-(+)-2-(苯胺甲基)吡咯烷;",
    "alternate_name": "2-Pyrrolidinemethanamine, <em>N</em>-phenyl-, (2<em>S</em>)-;2-Pyrrolidinemethanamine, <em>N</em>-phenyl-, (<em>S</em>)-;(2<em>S</em>)-<em>N</em>-Phenyl-2-pyrrolidinemethanamine;(<em>S</em>)-2-(Anilinomethyl)pyrrolidine;(<em>S</em>)-2-(Phenylaminomethyl)pyrrolidine;(2<em>S</em>)-(Anilinomethyl)pyrrolidine;(<em>S</em>)-(+)-2-(Anilinomethyl)pyrrolidine;(+)-2-(Anilinomethyl)pyrrolidine;(2<em>S</em>)-2-Phenylaminomethylpyrrolidine;(<em>S</em>)-<em>N</em>-(Pyrrolidin-2-ylmethyl)aniline;2-Pyrrolidinemethanamine <em>N</em>-phenyl-, (2S)-",
    "duplicated_cas_no": "",
    "SMILES": "N(C[C@@H]1CCCN1)C2=CC=CC=C2",
    "meta_data": {
        "InChI": "InChI=1S/C11H16N2/c1-2-5-10(6-3-1)13-9-11-7-4-8-12-11/h1-3,5-6,11-13H,4,7-9H2/t11-/m0/s1",
        "InChIKey": null,
        "Canonical SMILES": "C=1C=CC(=CC1)NCC2NCCC2",
        "Molecular Formula": "C<sub>11</sub>H<sub>16</sub>N<sub>2</sub>",
        "Molecular Mass": "176.26",
        "Boiling Point": "111-112 °C @ Press: 0.55 Torr"
    }
}