{
    "cas_no": "86060-90-4",
    "key_name": "1-(9<em>H</em>-Fluoren-9-ylmethyl) 2-(pentafluorophenyl) (2<em>S</em>)-1,2-pyrrolidinedicarboxylate",
    "cn_name": "Fmoc-L-脯氨酸五氟苯酯;N-(9-芴基甲氧基羧基)-L-脯氨酸五氟苯酯;",
    "alternate_name": "1,2-Pyrrolidinedicarboxylic acid, 1-(9<em>H</em>-fluoren-9-ylmethyl) 2-(pentafluorophenyl) ester, (2<em>S</em>)-;1,2-Pyrrolidinedicarboxylic acid, 1-(9<em>H</em>-fluoren-9-ylmethyl) 2-(pentafluorophenyl) ester, (<em>S</em>)-;1-(9<em>H</em>-Fluoren-9-ylmethyl) 2-(pentafluorophenyl) (2<em>S</em>)-1,2-pyrrolidinedicarboxylate;<em>N</em>-(Fluorenylmethoxycarbonyl)proline pentafluorophenyl ester;<em>N</em>-9-Fluorenylmethoxycarbonyl-<span class=\"text-smallcaps\">L</span>-proline pentafluorophenyl ester",
    "duplicated_cas_no": "",
    "SMILES": "C(OC(=O)N1[C@H](C(OC2=C(F)C(F)=C(F)C(F)=C2F)=O)CCC1)C3C=4C(C=5C3=CC=CC5)=CC=CC4",
    "meta_data": {
        "InChI": "InChI=1S/C26H18F5NO4/c27-19-20(28)22(30)24(23(31)21(19)29)36-25(33)18-10-5-11-32(18)26(34)35-12-17-15-8-3-1-6-13(15)14-7-2-4-9-16(14)17/h1-4,6-9,17-18H,5,10-12H2/t18-/m0/s1",
        "InChIKey": null,
        "Canonical SMILES": "O=C(OCC1C=2C=CC=CC2C=3C=CC=CC31)N4CCCC4C(=O)OC=5C(F)=C(F)C(F)=C(F)C5F",
        "Molecular Formula": "C<sub>26</sub>H<sub>18</sub>F<sub>5</sub>NO<sub>4</sub>",
        "Molecular Mass": "503.42",
        "Melting Point": "125-127 °C"
    }
}