{
    "cas_no": "16725-53-4",
    "key_name": "(<em>Z</em>)-9-Tetradecenyl acetate",
    "cn_name": "醋酸(Z)-9-十四烯酯;",
    "alternate_name": "9-Tetradecen-1-ol, 1-acetate, (9<em>Z</em>)-;9-Tetradecen-1-ol, acetate, (<em>Z</em>)-;9-Tetradecen-1-ol, acetate, (9<em>Z</em>)-;<em>cis</em>-9-Tetradecen-1-yl acetate;<em>cis</em>-9-Tetradecenyl acetate;Prodenialure A;<em>cis</em>-9-Tetradecen-1-ol acetate;<em>cis</em>-9-Tetradecenol acetate;(<em>Z</em>)-9-Tetradecen-1-ol acetate;(<em>Z</em>)-9-Tetradecenyl acetate;1-Acetoxy-(<em>Z</em>)-9-tetradecene;(<em>Z</em>)-1-Acetoxy-9-tetradecene;Z9-Tetradecenyl acetate",
    "duplicated_cas_no": "105421-23-6",
    "SMILES": "C(CCCC/C=C\\CCCC)CCCOC(C)=O",
    "meta_data": {
        "InChI": "InChI=1S/C16H30O2/c1-3-4-5-6-7-8-9-10-11-12-13-14-15-18-16(2)17/h6-7H,3-5,8-15H2,1-2H3/b7-6-",
        "InChIKey": null,
        "Canonical SMILES": "O=C(OCCCCCCCCC=CCCCC)C",
        "Molecular Formula": "C<sub>16</sub>H<sub>30</sub>O<sub>2</sub>",
        "Molecular Mass": "254.41",
        "Boiling Point": "101 °C @ Press: 0.01 Torr"
    }
}