{
    "cas_no": "55804-67-6",
    "key_name": "Coumarin 334",
    "cn_name": "香豆素334;",
    "alternate_name": "1<em>H</em>,5<em>H</em>,11<em>H</em>-[1]Benzopyrano[6,7,8-<em>ij</em>]quinolizin-11-one, 10-acetyl-2,3,6,7-tetrahydro-;10-Acetyl-2,3,6,7-tetrahydro-1<em>H</em>,5<em>H</em>,11<em>H</em>-[1]benzopyrano[6,7,8-<em>ij</em>]quinolizin-11-one;Coumarin 334;Coumarin 521;C 334;NSC 369287;CM 334;10-Acetyl-2,3,6,7-tetrahydro-1<em>H</em>,5<em>H</em>,11<em>H</em>-1-benzopyrano[6,7,8-<em>ij</em>]quinolizin-11-one;10-Acetyl-2,3,6,7-tetrahydro-1<em>H</em>-pyrano[2,3-<em>f</em>]pyrido[3,2,1-<em>ij</em>]quinolin-11(5<em>H</em>)-one;10-Acetyl-2,3,6,7-tetrahydro-1<em>H</em>,5<em>H</em>,11<em>H</em>-pyrano[2,3-<em>f</em>]pyrido[3,2,1-<em>ij</em>]quinolin-11-one",
    "duplicated_cas_no": "",
    "SMILES": "O=C1OC2=C3C4=C(C=C2C=C1C(C)=O)CCCN4CCC3",
    "meta_data": {
        "InChI": "InChI=1S/C17H17NO3/c1-10(19)14-9-12-8-11-4-2-6-18-7-3-5-13(15(11)18)16(12)21-17(14)20/h8-9H,2-7H2,1H3",
        "InChIKey": null,
        "Canonical SMILES": "O=C1OC2=C(C=C1C(=O)C)C=C3C4=C2CCCN4CCC3",
        "Molecular Formula": "C<sub>17</sub>H<sub>17</sub>NO<sub>3</sub>",
        "Molecular Mass": "283.32",
        "Melting Point": "181-182 °C"
    }
}