{
    "cas_no": "141-57-1",
    "key_name": "Propyltrichlorosilane",
    "cn_name": "丙基三氯硅烷;正丙基三氯硅烷;",
    "alternate_name": "Silane, trichloropropyl-;Trichloropropylsilane;Propyltrichlorosilane;Trichloro-<em>n</em>-propylsilane;<em>n</em>-Propyltrichlorosilane;NSC 93878;Dynasylan PTCS",
    "duplicated_cas_no": "",
    "SMILES": "C([Si](Cl)(Cl)Cl)CC",
    "meta_data": {
        "InChI": "InChI=1S/C3H7Cl3Si/c1-2-3-7(4,5)6/h2-3H2,1H3",
        "InChIKey": null,
        "Canonical SMILES": "Cl[Si](Cl)(Cl)CCC",
        "Molecular Formula": "C<sub>3</sub>H<sub>7</sub>Cl<sub>3</sub>Si",
        "Molecular Mass": "177.53",
        "Boiling Point": "123.5 °C",
        "Density": "1.195 g/cm³ @ Temp: 20 °C"
    }
}