{
    "cas_no": "26734-09-8",
    "key_name": "3-Amino-2,2-dimethyl-1-propanol",
    "cn_name": "3-氨基-2,2-二甲基-1-丙醇;",
    "alternate_name": "1-Propanol, 3-amino-2,2-dimethyl-;3-Amino-2,2-dimethyl-1-propanol;2,2-Dimethyl-3-aminopropanol;Neopentanolamine;3-Hydroxy-2,2-dimethylpropylamine;3-Amino-2,2-dimethylpropanol;2,2-Dimethyl-3-amino-1-propanol;1-Amino-2,2-dimethyl-3-propanol;2,2-Dimethyl-3-hydroxypropanamine;2,2-Dimethyl-3-hydroxypropylamine;3-Hydroxy-2,2-dimethylpropanamine",
    "duplicated_cas_no": "",
    "SMILES": "C(CN)(CO)(C)C",
    "meta_data": {
        "InChI": "InChI=1S/C5H13NO/c1-5(2,3-6)4-7/h7H,3-4,6H2,1-2H3",
        "InChIKey": null,
        "Canonical SMILES": "OCC(C)(C)CN",
        "Molecular Formula": "C<sub>5</sub>H<sub>13</sub>NO",
        "Molecular Mass": "103.16",
        "Boiling Point": "95-105 °C @ Press: 35 Torr",
        "Melting Point": "98-100 °C"
    }
}