{
    "cas_no": "4824-78-6",
    "key_name": "Bromophos-ethyl",
    "cn_name": "乙基溴硫磷;o-(4-溴-2，5-二氯苯基)-o，o-二乙基硫代磷酸酯；乙溴硫磷;",
    "alternate_name": "Phosphorothioic acid, <em>O</em>-(4-bromo-2,5-dichlorophenyl) <em>O</em>,<em>O</em>-diethyl ester;<em>O</em>-(4-Bromo-2,5-dichlorophenyl) <em>O</em>,<em>O</em>-diethyl phosphorothioate;Bromophos-ethyl;Ethyl bromophos;OMS 659;<em>O</em>,<em>O</em>-Diethyl <em>O</em>-(2,5-dichloro-4-bromophenyl) thiophosphate;Nexagan G;Filariol 60;Filariol;Nexagan;Bromophos A",
    "duplicated_cas_no": "37370-22-2",
    "SMILES": "P(OC1=C(Cl)C=C(Br)C(Cl)=C1)(OCC)(OCC)=S",
    "meta_data": {
        "InChI": "InChI=1S/C10H12BrCl2O3PS/c1-3-14-17(18,15-4-2)16-10-6-8(12)7(11)5-9(10)13/h5-6H,3-4H2,1-2H3",
        "InChIKey": null,
        "Canonical SMILES": "S=P(OC=1C=C(Cl)C(Br)=CC1Cl)(OCC)OCC",
        "Molecular Formula": "C<sub>10</sub>H<sub>12</sub>BrCl<sub>2</sub>O<sub>3</sub>PS",
        "Molecular Mass": "394.05",
        "Boiling Point": "122-133 °C @ Press: 1 x 10<sup>-3</sup> Torr",
        "Density": "1.52-1.55 g/cm³ @ Temp: 20 °C"
    }
}