{
    "cas_no": "1004-36-0",
    "key_name": "2,6-Dimethyl-γ-pyrone",
    "cn_name": "2,6-二甲基-4-吡喃酮;2,6-二甲基-4H-吡喃-4-酮;",
    "alternate_name": "4<em>H</em>-Pyran-4-one, 2,6-dimethyl-;2,6-Dimethyl-4<em>H</em>-pyran-4-one;2,6-Dimethyl-4-pyrone;2,6-Dimethyl-γ-pyrone;2,6-Dimethyl-4-pyranone;NSC 48105;NSC 8735",
    "duplicated_cas_no": "",
    "SMILES": "O=C1C=C(C)OC(C)=C1",
    "meta_data": {
        "InChI": "InChI=1S/C7H8O2/c1-5-3-7(8)4-6(2)9-5/h3-4H,1-2H3",
        "InChIKey": null,
        "Canonical SMILES": "O=C1C=C(OC(=C1)C)C",
        "Molecular Formula": "C<sub>7</sub>H<sub>8</sub>O<sub>2</sub>",
        "Molecular Mass": "124.14",
        "Boiling Point": "251 °C",
        "Melting Point": "132 °C"
    }
}