{
    "cas_no": "540-61-4",
    "key_name": "Aminoacetonitrile",
    "cn_name": "氨基乙腈;氰基甲胺;",
    "alternate_name": "Acetonitrile, amino-;AAN;Aminoacetonitrile;Cyanomethylamine;Glycinonitrile;Glycinenitrile;α-Aminoacetonitrile;2-Aminoacetonitrile;1-Cyanomethylamine;Cyanoaminomethane;MeSH ID: D000607",
    "duplicated_cas_no": "",
    "SMILES": "C(C#N)N",
    "meta_data": {
        "InChI": "InChI=1S/C2H4N2/c3-1-2-4/h1,3H2",
        "InChIKey": null,
        "Canonical SMILES": "N#CCN",
        "Molecular Formula": "C<sub>2</sub>H<sub>4</sub>N<sub>2</sub>",
        "Molecular Mass": "56.07",
        "Boiling Point": "65 °C @ Press: 8 Torr",
        "Melting Point": "101 °C"
    }
}