{
    "cas_no": "538-43-2",
    "key_name": "3-Phenoxy-1,2-propanediol",
    "cn_name": "3-苯氧基-1,2-丙二醇;",
    "alternate_name": "1,2-Propanediol, 3-phenoxy-;Antodyne;Glycerol α-monophenyl ether;Phenol glyceryl ether;3-Phenoxy-1,2-propanediol;Glycerol α-phenyl ether;Phenylglyceryl ether;1-Phenoxy-2,3-propanediol;α-Phenyl monoglyceryl ether;2,3-Dihydroxypropyl phenyl ether;1,2-Dihydroxy-3-phenoxypropane;1-Phenoxymethyl-1,2-ethanediol;NSC 406489",
    "duplicated_cas_no": "128949-50-8",
    "SMILES": "O(CC(CO)O)C1=CC=CC=C1",
    "meta_data": {
        "InChI": "InChI=1S/C9H12O3/c10-6-8(11)7-12-9-4-2-1-3-5-9/h1-5,8,10-11H,6-7H2",
        "InChIKey": null,
        "Canonical SMILES": "OCC(O)COC=1C=CC=CC1",
        "Molecular Formula": "C<sub>9</sub>H<sub>12</sub>O<sub>3</sub>",
        "Molecular Mass": "168.19",
        "Boiling Point": "213 °C @ Press: 30 Torr",
        "Melting Point": "67.5 °C",
        "Density": "1.225 g/cm³ @ Temp: 30 °C"
    }
}