{
    "cas_no": "1122-28-7",
    "key_name": "4,5-Dicyanoimidazole",
    "cn_name": "4,5-二氰基咪唑;",
    "alternate_name": "1<em>H</em>-Imidazole-4,5-dicarbonitrile;Imidazole-4,5-dicarbonitrile;4,5-Dicyanoimidazole;MOA 7;NSC 113954;2<em>H</em>-Imidazole-4,5-dicarbonitrile",
    "duplicated_cas_no": "745818-57-9;1438465-24-7",
    "SMILES": "C(#N)C1=C(C#N)N=CN1",
    "meta_data": {
        "InChI": "InChI=1S/C5H2N4/c6-1-4-5(2-7)9-3-8-4/h3H,(H,8,9)",
        "InChIKey": null,
        "Canonical SMILES": "N#CC=1N=CNC1C#N",
        "Molecular Formula": "C<sub>5</sub>H<sub>2</sub>N<sub>4</sub>",
        "Molecular Mass": "118.10",
        "Melting Point": "175 °C"
    }
}