{
    "cas_no": "527-31-1",
    "key_name": "Triquinoyl",
    "cn_name": "六酮环己烷八水合物;环己六酮十水合物;环己六酮八水;",
    "alternate_name": "1,2,3,4,5,6-Cyclohexanehexone;Cyclohexanehexone;Triquinoyl;Hexaketocyclohexane;Trichinoyl;NSC 65879",
    "duplicated_cas_no": "",
    "SMILES": "O=C1C(=O)C(=O)C(=O)C(=O)C1=O",
    "meta_data": {
        "InChI": "InChI=1S/C6O6/c7-1-2(8)4(10)6(12)5(11)3(1)9",
        "InChIKey": null,
        "Canonical SMILES": "O=C1C(=O)C(=O)C(=O)C(=O)C1=O",
        "Molecular Formula": "C<sub>6</sub>O<sub>6</sub>",
        "Molecular Mass": "168.06",
        "Melting Point": "100 °C (decomp)"
    }
}