{
    "cas_no": "512-63-0",
    "key_name": "2,2,4,4,6,6-Hexaphenylcyclotrisiloxane",
    "cn_name": "六苯基环三硅氧烷;",
    "alternate_name": "Cyclotrisiloxane, 2,2,4,4,6,6-hexaphenyl-;Cyclotrisiloxane, hexaphenyl-;2,2,4,4,6,6-Hexaphenylcyclotrisiloxane;Diphenylsiloxane cyclic trimer;Hexaphenylcyclotrisiloxane;NSC 127080;2,2,4,4,6,6-Hexakis-phenyl-1,3,5,2,4,6-trioxatrisilinane",
    "duplicated_cas_no": "",
    "SMILES": "[Si]1(O[Si](O[Si](O1)(C2=CC=CC=C2)C3=CC=CC=C3)(C4=CC=CC=C4)C5=CC=CC=C5)(C6=CC=CC=C6)C7=CC=CC=C7",
    "meta_data": {
        "InChI": "InChI=1S/C36H30O3Si3/c1-7-19-31(20-8-1)40(32-21-9-2-10-22-32)37-41(33-23-11-3-12-24-33,34-25-13-4-14-26-34)39-42(38-40,35-27-15-5-16-28-35)36-29-17-6-18-30-36/h1-30H",
        "InChIKey": null,
        "Canonical SMILES": "O1[Si](O[Si](O[Si]1(C=2C=CC=CC2)C=3C=CC=CC3)(C=4C=CC=CC4)C=5C=CC=CC5)(C=6C=CC=CC6)C=7C=CC=CC7",
        "Molecular Formula": "C<sub>36</sub>H<sub>30</sub>O<sub>3</sub>Si<sub>3</sub>",
        "Molecular Mass": "594.88",
        "Boiling Point": "300 °C @ Press: 1 Torr",
        "Melting Point": "188 °C",
        "Density": "1.230 g/cm³"
    }
}