{
    "cas_no": "1575-72-0",
    "key_name": "(±)-2-<em>n</em>-Propyl-4-pentenoic acid",
    "cn_name": null,
    "alternate_name": "4-Pentenoic acid, 2-propyl-;2-Propyl-4-pentenoic acid;Pentanoic acid, 2-(2-propenyl)-;2-<em>n</em>-Propyl-4-pentenoic acid;2-Allylpentanoic acid;(±)-2-<em>n</em>-Propyl-4-pentenoic acid",
    "duplicated_cas_no": "124815-86-7",
    "SMILES": "C(CCC)(CC=C)C(O)=O",
    "meta_data": {
        "InChI": "InChI=1S/C8H14O2/c1-3-5-7(6-4-2)8(9)10/h3,7H,1,4-6H2,2H3,(H,9,10)",
        "InChIKey": null,
        "Canonical SMILES": "O=C(O)C(CC=C)CCC",
        "Molecular Formula": "C<sub>8</sub>H<sub>14</sub>O<sub>2</sub>",
        "Molecular Mass": "142.20",
        "Boiling Point": "95-100 °C @ Press: 5 Torr"
    }
}