{
    "cas_no": "2942-42-9",
    "key_name": "7-Nitroindazole",
    "cn_name": "7-硝基吲唑;",
    "alternate_name": "1<em>H</em>-Indazole, 7-nitro-;7-Nitro-1<em>H</em>-indazole;7-Nitroindazole;NSC 72843",
    "duplicated_cas_no": "",
    "SMILES": "N(=O)(=O)C1=C2C(C=NN2)=CC=C1",
    "meta_data": {
        "InChI": "InChI=1S/C7H5N3O2/c11-10(12)6-3-1-2-5-4-8-9-7(5)6/h1-4H,(H,8,9)",
        "InChIKey": null,
        "Canonical SMILES": "O=N(=O)C1=CC=CC=2C=NNC21",
        "Molecular Formula": "C<sub>7</sub>H<sub>5</sub>N<sub>3</sub>O<sub>2</sub>",
        "Molecular Mass": "163.13",
        "Melting Point": "186.5-187.5 °C"
    }
}