{
    "cas_no": "9002-93-1",
    "key_name": "Polyethylene glycol mono(4-<em>tert</em>-octylphenyl) ether",
    "cn_name": null,
    "alternate_name": "Poly(oxy-1,2-ethanediyl), α-[4-(1,1,3,3-tetramethylbutyl)phenyl]-ω-hydroxy-;Glycols, polyethylene, mono[<em>p</em>-(1,1,3,3-tetramethylbutyl)phenyl] ether;Phenol, <em>p</em>-(1,1,3,3-tetramethylbutyl)-, monoether with polyethylene glycol;Antarox A 200;(<em>p</em>-<em>t</em>-Octylphenoxy)polyethoxyethanol;α-[<em>p</em>-(1,1,3,3-Tetramethylbutyl)phenyl]-ω-hydroxypoly(oxyethylene);Polyethylene glycol p-octylphenol ether;Triton X 165;Triton X 305;Polyethylene glycol mono[<em>p</em>-(1,1,3,3-tetramethylbutyl)phenyl] ether;Triton X 405;Triton X 100;Triton X 45;OPE 30;Polyethylene glycol mono(<em>p</em>-<em>tert</em>-octylphenyl) ether;Polyethylene glycol mono(4-octylphenyl) ether;Polyethylene glycol <em>p</em>-<em>tert</em>-octylphenyl ether;Triton X 102;Triton X 705;Poly(oxyethylene) <em>p</em>-<em>tert</em>-octylphenyl ether;Polyethylene glycol mono(4-<em>tert</em>-octylphenyl) ether;Polyethylene glycol <em>p</em>-(1,1,3,3-tetramethylbutyl)phenyl ether;Polyethylene glycol <em>p</em>-octylphenyl ether;Triton X 35;Polyoxyethylene mono(octylphenyl) ether;Polyoxyethylene (13) octylphenyl ether;Polyoxyethylene (9) octylphenyl ether;Preceptin;Hydrol SW;Ortho-Gynol;<em>p</em>-<em>tert</em>-Octylphenoxy polyethoxyethanol;NOP 90;Texofor FP 300;Koromex II;Polyethylene oxide-<em>p</em>-<em>tert</em>-octylphenyl ether;Polyoxyethylene glycol-<em>p</em>-<em>tert</em>-octylphenyl ether;Polyethylene glycol <em>p</em>-<em>tert</em>-octylphenol ether;TX 100;TX 305;TX 102;Triton X 101;Iconol OP;TX 405;Triton X 15;Triton X 705-70;Triton X 114;Photo-Flow 200;Anapoe X 114;Octoxynol 5;Nonidel P 40;Triton 100;Polyoxyethylene (10) octylphenyl ether;X 405;TX 35;Triton X 10;Criton X 100;X 100;X 305;Coulter Dispersant IA;Surfac OP 30;Surfac OP 5;Polyethylene glycol octylphenol ether;Intra-Cell;Anapoe X 100;Triton X 105;Lutensol OP 10;Surfonic OP 120;TOP 10;OPE 4;<em>p</em>-<em>tert</em>-Octylphenoxypolyoxyethanol;Triton X 209;TX 165;FP 300;Dow 405;Octoxinol 9",
    "duplicated_cas_no": "9010-42-8;9010-43-9;9077-65-0;13463-07-5;39409-11-5;66057-68-9;66057-69-0;66057-82-7;81398-86-9;111287-03-7;125692-92-4;172826-82-3;308104-64-5;935753-04-1;1017686-87-1;2003274-72-2;2055492-07-2;2091235-81-1",
    "SMILES": "",
    "meta_data": {
        "InChI": "",
        "InChIKey": null,
        "Canonical SMILES": "",
        "Molecular Formula": "(C<sub>2</sub>H<sub>4</sub>O)<sub>n</sub>C<sub>14</sub>H<sub>22</sub>O",
        "Molecular Mass": "",
        "Boiling Point": "6 °C",
        "Melting Point": "&gt;350 °C (decomp)",
        "Density": "1.065 g/cm³"
    }
}