{
    "cas_no": "477-43-0",
    "key_name": "(-)-Dehydrocostus lactone",
    "cn_name": "去氢木香内酯;",
    "alternate_name": "Azuleno[4,5-<em>b</em>]furan-2(3<em>H</em>)-one, decahydro-3,6,9-tris(methylene)-, (3a<em>S</em>,6a<em>R</em>,9a<em>R</em>,9b<em>S</em>)-;Costus lactone, dehydro-;Guaia-4(15),10(14),11(13)-trien-12-oic acid, 6α-hydroxy-, γ-lactone;Azuleno[4,5-<em>b</em>]furan-2(3<em>H</em>)-one, decahydro-3,6,9-tris(methylene)-, [3a<em>S</em>-(3aα,6aα,9aα,9bβ)]-;(3a<em>S</em>,6a<em>R</em>,9a<em>R</em>,9b<em>S</em>)-Decahydro-3,6,9-tris(methylene)azuleno[4,5-<em>b</em>]furan-2(3<em>H</em>)-one;Dehydrocostus lactone;Epiligulyl oxide;(-)-Dehydrocostus lactone",
    "duplicated_cas_no": "",
    "SMILES": "C=C1[C@@]2([C@@]3([C@](C(=C)C(=O)O3)(CCC(=C)[C@@]2(CC1)[H])[H])[H])[H]",
    "meta_data": {
        "InChI": "InChI=1S/C15H18O2/c1-8-4-7-12-10(3)15(16)17-14(12)13-9(2)5-6-11(8)13/h11-14H,1-7H2/t11-,12-,13-,14-/m0/s1",
        "InChIKey": null,
        "Canonical SMILES": "O=C1OC2C(C1=C)CCC(=C)C3CCC(=C)C23",
        "Molecular Formula": "C<sub>15</sub>H<sub>18</sub>O<sub>2</sub>",
        "Molecular Mass": "230.30",
        "Boiling Point": "140-143 °C @ Press: 0.5 Torr",
        "Melting Point": "61 °C"
    }
}