{
    "cas_no": "75706-12-6",
    "key_name": "Leflunomide",
    "cn_name": "来氟米特;5-甲基-N-[4-(三氟甲基)苯基]-4-异噁唑甲酰胺;",
    "alternate_name": "4-Isoxazolecarboxamide, 5-methyl-<em>N</em>-[4-(trifluoromethyl)phenyl]-;5-Methyl-<em>N</em>-[4-(trifluoromethyl)phenyl]-4-isoxazolecarboxamide;HWA 486;Leflunomide;SU 101;SU 101 (pharmaceutical);Arava;Leflunomida;Leflunomidum;Avara;Lefumide;Cleft;Repso",
    "duplicated_cas_no": "210165-51-8",
    "SMILES": "C(NC1=CC=C(C(F)(F)F)C=C1)(=O)C2=C(C)ON=C2",
    "meta_data": {
        "InChI": "InChI=1S/C12H9F3N2O2/c1-7-10(6-16-19-7)11(18)17-9-4-2-8(3-5-9)12(13,14)15/h2-6H,1H3,(H,17,18)",
        "InChIKey": null,
        "Canonical SMILES": "O=C(NC1=CC=C(C=C1)C(F)(F)F)C=2C=NOC2C",
        "Molecular Formula": "C<sub>12</sub>H<sub>9</sub>F<sub>3</sub>N<sub>2</sub>O<sub>2</sub>",
        "Molecular Mass": "270.21",
        "Melting Point": "165-166 °C"
    }
}