{
    "cas_no": "484-20-8",
    "key_name": "Bergapten",
    "cn_name": "佛手苷内酯;5-甲氧基补骨脂素;4-甲氧基-7H-呋喃并[3,2-g]苯并吡喃-7-酮;",
    "alternate_name": "7<em>H</em>-Furo[3,2-<em>g</em>][1]benzopyran-7-one, 4-methoxy-;4-Methoxy-7<em>H</em>-furo[3,2-<em>g</em>][1]benzopyran-7-one;Bergaptan;Bergapten;Bergaptene;Majudin;5-Methoxypsoralen;Heraclin;5-MOP;5-Methoxy-6,7-furanocoumarin;Psoraderm;Geralen;NSC 95437;8-Demethoxyisoimpinellin;4-Methoxy-7<em>H</em>-furo[3,2-<em>g</em>]chromen-7-one",
    "duplicated_cas_no": "",
    "SMILES": "O(C)C=1C2=C(C=C3C1C=CO3)OC(=O)C=C2",
    "meta_data": {
        "InChI": "InChI=1S/C12H8O4/c1-14-12-7-2-3-11(13)16-10(7)6-9-8(12)4-5-15-9/h2-6H,1H3",
        "InChIKey": null,
        "Canonical SMILES": "O=C1OC=2C=C3OC=CC3=C(OC)C2C=C1",
        "Molecular Formula": "C<sub>12</sub>H<sub>8</sub>O<sub>4</sub>",
        "Molecular Mass": "216.19",
        "Melting Point": "188 °C"
    }
}