{
    "cas_no": "2009-83-8",
    "key_name": "6-Chloro-1-hexanol",
    "cn_name": "6-氯-1-己醇;",
    "alternate_name": "1-Hexanol, 6-chloro-;6-Chloro-1-hexanol;1-Chloro-6-hexanol;6-Chlorohexanol;Hexamethylene chlorohydrin;ω-Chlorohexanol;1-Chloro-6-hydroxyhexane;NSC 3700",
    "duplicated_cas_no": "",
    "SMILES": "C(CCCO)CCCl",
    "meta_data": {
        "InChI": "InChI=1S/C6H13ClO/c7-5-3-1-2-4-6-8/h8H,1-6H2",
        "InChIKey": null,
        "Canonical SMILES": "ClCCCCCCO",
        "Molecular Formula": "C<sub>6</sub>H<sub>13</sub>ClO",
        "Molecular Mass": "136.62",
        "Boiling Point": "102.7 °C @ Press: 11 Torr",
        "Melting Point": "102 °C",
        "Density": "1.0241 g/cm³ @ Temp: 20 °C"
    }
}