{
    "cas_no": "102036-28-2",
    "key_name": "Protosappanin A",
    "cn_name": null,
    "alternate_name": "6<em>H</em>-Dibenz[<em>b</em>,<em>d</em>]oxocin-7(8<em>H</em>)-one, 3,10,11-trihydroxy-;3,10,11-Trihydroxy-6<em>H</em>-dibenz[<em>b</em>,<em>d</em>]oxocin-7(8<em>H</em>)-one;Sappanol B;Protosappanin A",
    "duplicated_cas_no": "",
    "SMILES": "OC=1C=C2C=3C(=CC(O)=CC3)OCC(=O)CC2=CC1O",
    "meta_data": {
        "InChI": "InChI=1S/C15H12O5/c16-9-1-2-11-12-6-14(19)13(18)4-8(12)3-10(17)7-20-15(11)5-9/h1-2,4-6,16,18-19H,3,7H2",
        "InChIKey": null,
        "Canonical SMILES": "O=C1COC=2C=C(O)C=CC2C3=CC(O)=C(O)C=C3C1",
        "Molecular Formula": "C<sub>15</sub>H<sub>12</sub>O<sub>5</sub>",
        "Molecular Mass": "272.25",
        "Melting Point": "254-255 °C"
    }
}