{
    "cas_no": "1742-14-9",
    "key_name": "1,1′-Ethylidenebis[3,4-dimethylbenzene]",
    "cn_name": "1,1-双(3,4-二甲基苯基)乙烷;3,3\",4,4\"-四甲基二苯乙烷;",
    "alternate_name": "Benzene, 1,1′-ethylidenebis[3,4-dimethyl-;Ethane, 1,1-di-3,4-xylyl-;1,1′-Ethylidenebis[3,4-dimethylbenzene];1,1-Bis(3,4-dimethylphenyl)ethane;1,1-Di-3,4-xylylethane",
    "duplicated_cas_no": "",
    "SMILES": "C(C)(C1=CC(C)=C(C)C=C1)C2=CC(C)=C(C)C=C2",
    "meta_data": {
        "InChI": "InChI=1S/C18H22/c1-12-6-8-17(10-14(12)3)16(5)18-9-7-13(2)15(4)11-18/h6-11,16H,1-5H3",
        "InChIKey": null,
        "Canonical SMILES": "C=1C=C(C(=CC1C(C2=CC=C(C(=C2)C)C)C)C)C",
        "Molecular Formula": "C<sub>18</sub>H<sub>22</sub>",
        "Molecular Mass": "238.37",
        "Boiling Point": "177 °C @ Press: 6 Torr",
        "Density": "0.9780 g/cm³ @ Temp: 20 °C"
    }
}