{
    "cas_no": "164656-23-9",
    "key_name": "Dutasteride",
    "cn_name": "度他雄胺;",
    "alternate_name": "1<em>H</em>-Indeno[5,4-<em>f</em>]quinoline-7-carboxamide, <em>N</em>-[2,5-bis(trifluoromethyl)phenyl]-2,4a,4b,5,6,6a,7,8,9,9a,9b,10,11,11a-tetradecahydro-4a,6a-dimethyl-2-oxo-, (4a<em>R</em>,4b<em>S</em>,6a<em>S</em>,7<em>S</em>,9a<em>S</em>,9b<em>S</em>,11a<em>R</em>)-;4-Azaandrost-1-ene-17-carboxamide, <em>N</em>-[2,5-bis(trifluoromethyl)phenyl]-3-oxo-, (5α,17β)-;(4a<em>R</em>,4b<em>S</em>,6a<em>S</em>,7<em>S</em>,9a<em>S</em>,9b<em>S</em>,11a<em>R</em>)-<em>N</em>-[2,5-Bis(trifluoromethyl)phenyl]-2,4a,4b,5,6,6a,7,8,9,9a,9b,10,11,11a-tetradecahydro-4a,6a-dimethyl-2-oxo-1<em>H</em>-indeno[5,4-<em>f</em>]quinoline-7-carboxamide;GG 745;Dutasteride;GI 198745;Avodart;Veltride;Avolve;(5α,17β)-<em>N</em>-[(2,5-Bis(trifluoromethyl)phenyl]-3-oxo-4-aza-5-androst-1-ene-17-carboxamide",
    "duplicated_cas_no": "",
    "SMILES": "C[C@@]12[C@]([C@]3([C@@]([C@]4(C)[C@@](CC3)(NC(=O)C=C4)[H])(CC1)[H])[H])(CC[C@@H]2C(NC5=C(C(F)(F)F)C=CC(C(F)(F)F)=C5)=O)[H]",
    "meta_data": {
        "InChI": "InChI=1S/C27H30F6N2O2/c1-24-11-9-17-15(4-8-21-25(17,2)12-10-22(36)35-21)16(24)6-7-19(24)23(37)34-20-13-14(26(28,29)30)3-5-18(20)27(31,32)33/h3,5,10,12-13,15-17,19,21H,4,6-9,11H2,1-2H3,(H,34,37)(H,35,36)/t15-,16-,17-,19+,21+,24-,25+/m0/s1",
        "InChIKey": null,
        "Canonical SMILES": "O=C1C=CC2(C)C(N1)CCC3C2CCC4(C)C(C(=O)NC5=CC(=CC=C5C(F)(F)F)C(F)(F)F)CCC34",
        "Molecular Formula": "C<sub>27</sub>H<sub>30</sub>F<sub>6</sub>N<sub>2</sub>O<sub>2</sub>",
        "Molecular Mass": "528.53",
        "Melting Point": "254-258 °C"
    }
}