{
    "cas_no": "4385-76-6",
    "key_name": "4-(4-Pyridyl)benzoic acid",
    "cn_name": "4-吡啶-4-基苯甲酸;",
    "alternate_name": "Benzoic acid, 4-(4-pyridinyl)-;Benzoic acid, <em>p</em>-4-pyridyl-;4-(4-Pyridinyl)benzoic acid;4-(4-Pyridyl)benzoic acid",
    "duplicated_cas_no": "",
    "SMILES": "C(O)(=O)C1=CC=C(C=C1)C=2C=CN=CC2",
    "meta_data": {
        "InChI": "InChI=1S/C12H9NO2/c14-12(15)11-3-1-9(2-4-11)10-5-7-13-8-6-10/h1-8H,(H,14,15)",
        "InChIKey": null,
        "Canonical SMILES": "O=C(O)C=1C=CC(=CC1)C=2C=CN=CC2",
        "Molecular Formula": "C<sub>12</sub>H<sub>9</sub>NO<sub>2</sub>",
        "Molecular Mass": "199.21",
        "Melting Point": "&gt;330 °C (decomp)"
    }
}