{
    "cas_no": "29477-83-6",
    "key_name": "Narciclasine",
    "cn_name": null,
    "alternate_name": "[1,3]Dioxolo[4,5-<em>j</em>]phenanthridin-6(2<em>H</em>)-one, 3,4,4a,5-tetrahydro-2,3,4,7-tetrahydroxy-, (2<em>S</em>,3<em>R</em>,4<em>S</em>,4a<em>R</em>)-;[1,3]Dioxolo[4,5-<em>j</em>]phenanthridin-6(2<em>H</em>)-one, 3,4,4a,5-tetrahydro-2,3,4,7-tetrahydroxy-, [2<em>S</em>-(2α,3β,4β,4aβ)]-;(2<em>S</em>,3<em>R</em>,4<em>S</em>,4a<em>R</em>)-3,4,4a,5-Tetrahydro-2,3,4,7-tetrahydroxy[1,3]dioxolo[4,5-<em>j</em>]phenanthridin-6(2<em>H</em>)-one;Narciclasine;Lycoricidinol;(+)-Lycoricidinol;(+)-Narciclasine;NSC 266535",
    "duplicated_cas_no": "12633-75-9;17495-20-4;19622-82-3;220751-83-7",
    "SMILES": "OC1=C2C(C=3[C@@](NC2=O)([C@H](O)[C@H](O)[C@@H](O)C3)[H])=CC4=C1OCO4",
    "meta_data": {
        "InChI": "InChI=1S/C14H13NO7/c16-6-1-5-4-2-7-13(22-3-21-7)11(18)8(4)14(20)15-9(5)12(19)10(6)17/h1-2,6,9-10,12,16-19H,3H2,(H,15,20)/t6-,9+,10+,12-/m0/s1",
        "InChIKey": null,
        "Canonical SMILES": "O=C1NC2C(=CC(O)C(O)C2O)C=3C=C4OCOC4=C(O)C13",
        "Molecular Formula": "C<sub>14</sub>H<sub>13</sub>NO<sub>7</sub>",
        "Molecular Mass": "307.26",
        "Melting Point": "246 °C (decomp)"
    }
}