{
    "cas_no": "6863-74-7",
    "key_name": "6-Chloro-2-pyrazinecarbonitrile",
    "cn_name": null,
    "alternate_name": "2-Pyrazinecarbonitrile, 6-chloro-;Pyrazinecarbonitrile, 6-chloro-;6-Chloro-2-pyrazinecarbonitrile;2-Cyano-6-chloropyrazine;6-Chloro-2-cyanopyrazine;2-Chloro-6-cyanopyrazine;2-Chloro-6-pyrazinecarbonitrile;6-Cyano-2-chloropyrazine",
    "duplicated_cas_no": "",
    "SMILES": "C(#N)C1=NC(Cl)=CN=C1",
    "meta_data": {
        "InChI": "InChI=1S/C5H2ClN3/c6-5-3-8-2-4(1-7)9-5/h2-3H",
        "InChIKey": null,
        "Canonical SMILES": "N#CC1=NC(Cl)=CN=C1",
        "Molecular Formula": "C<sub>5</sub>H<sub>2</sub>ClN<sub>3</sub>",
        "Molecular Mass": "139.54",
        "Boiling Point": "100-102 °C @ Press: 12 Torr",
        "Melting Point": "24-26 °C"
    }
}