{
    "cas_no": "444-30-4",
    "key_name": "2-(Trifluoromethyl)phenol",
    "cn_name": "邻三氟甲基苯酚;",
    "alternate_name": "Phenol, 2-(trifluoromethyl)-;<em>o</em>-Cresol, α,α,α-trifluoro-;2-(Trifluoromethyl)phenol;<em>o</em>-Hydroxybenzotrifluoride;<em>o</em>-(Trifluoromethyl)phenol;α,α,α-Trifluoro-<em>o</em>-cresol;<em>o</em>-α,α,α-Trifluorocresol;NSC 88333;2-Hydroxybenzotrifluoride",
    "duplicated_cas_no": "",
    "SMILES": "C(F)(F)(F)C1=C(O)C=CC=C1",
    "meta_data": {
        "InChI": "InChI=1S/C7H5F3O/c8-7(9,10)5-3-1-2-4-6(5)11/h1-4,11H",
        "InChIKey": null,
        "Canonical SMILES": "FC(F)(F)C=1C=CC=CC1O",
        "Molecular Formula": "C<sub>7</sub>H<sub>5</sub>F<sub>3</sub>O",
        "Molecular Mass": "162.11",
        "Boiling Point": "147.5 °C",
        "Melting Point": "45.5 °C"
    }
}