{
    "cas_no": "13293-59-9",
    "key_name": "3-Methylcyclohexanecarboxylic acid",
    "cn_name": null,
    "alternate_name": "Cyclohexanecarboxylic acid, 3-methyl-;3-Methylcyclohexanecarboxylic acid;3-Methyl-1-cyclohexanecarboxylic acid",
    "duplicated_cas_no": "",
    "SMILES": "C(O)(=O)C1CC(C)CCC1",
    "meta_data": {
        "InChI": "InChI=1S/C8H14O2/c1-6-3-2-4-7(5-6)8(9)10/h6-7H,2-5H2,1H3,(H,9,10)",
        "InChIKey": null,
        "Canonical SMILES": "O=C(O)C1CCCC(C)C1",
        "Molecular Formula": "C<sub>8</sub>H<sub>14</sub>O<sub>2</sub>",
        "Molecular Mass": "142.20",
        "Boiling Point": "128-130 °C @ Press: 11 Torr",
        "Melting Point": "114 °C",
        "Density": "1.0557 g/cm³ @ Temp: 25 °C"
    }
}