{
    "cas_no": "1162-65-8",
    "key_name": "Aflatoxin B<sub>1</sub>",
    "cn_name": null,
    "alternate_name": "1<em>H</em>,11<em>H</em>-Cyclopenta[<em>c</em>]furo[3′,2′:4,5]furo[2,3-<em>h</em>][1]benzopyran-1,11-dione, 2,3,6a,9a-tetrahydro-4-methoxy-, (6a<em>R</em>,9a<em>S</em>)-;Cyclopenta[<em>c</em>]furo[3′,2′:4,5]furo[2,3-<em>h</em>][1]benzopyran-1,11-dione, 2,3,6aα,9aα-tetrahydro-4-methoxy-;Cyclopenta[<em>c</em>]furo[3′,2′:4,5]furo[2,3-<em>h</em>][1]benzopyran-1,11-dione, 2,3,6a,9a-tetrahydro-4-methoxy-, (6a<em>R</em>-<em>cis</em>)-;1-Cyclopentene-1-carboxylic acid, 2-(3a,8a-dihydro-4-hydroxy-6-methoxyfuro[2,3-<em>b</em>]benzofuran-5-yl)-5-oxo-, δ-lactone;Cyclopenta[<em>c</em>]furo[3′,2′:4,5]furo[2,3-<em>h</em>][1]benzopyran-1,11-dione, 2,3,6a,9a-tetrahydro-4-methoxy-, (6a<em>R</em>,9a<em>S</em>)-;(6a<em>R</em>,9a<em>S</em>)-2,3,6a,9a-Tetrahydro-4-methoxy-1<em>H</em>,11<em>H</em>-cyclopenta[<em>c</em>]furo[3′,2′:4,5]furo[2,3-<em>h</em>][1]benzopyran-1,11-dione;Aflatoxin B<sub>1</sub>;AFB<sub>1</sub>;(-)-Aflatoxin B<sub>1</sub>;NSC 529592;MeSH ID: D016604",
    "duplicated_cas_no": "11003-08-0;13214-11-4;27261-02-5",
    "SMILES": "O(C)C=1C2=C(C=3[C@]4([C@@](OC3C1)(OC=C4)[H])[H])OC(=O)C5=C2CCC5=O",
    "meta_data": {
        "InChI": "InChI=1S/C17H12O6/c1-20-10-6-11-14(8-4-5-21-17(8)22-11)15-13(10)7-2-3-9(18)12(7)16(19)23-15/h4-6,8,17H,2-3H2,1H3/t8-,17+/m0/s1",
        "InChIKey": null,
        "Canonical SMILES": "O=C1OC2=C(C(OC)=CC=3OC4OC=CC4C32)C5=C1C(=O)CC5",
        "Molecular Formula": "C<sub>17</sub>H<sub>12</sub>O<sub>6</sub>",
        "Molecular Mass": "312.27",
        "Melting Point": "268-269 °C"
    }
}