{
    "cas_no": "14324-55-1",
    "key_name": "Zinc diethyldithiocarbamate",
    "cn_name": "二乙基二硫代氨基甲酸锌;促进剂ZDEC;促进剂ZDC;",
    "alternate_name": "Zinc, bis(<em>N</em>,<em>N</em>-diethylcarbamodithioato-κ<em>S</em>,κ<em>S</em>′)-, (<em>T</em>-4)-;Zinc, bis(diethyldithiocarbamato)-;Zinc, bis(diethylcarbamodithioato-<em>S</em>,<em>S</em>′)-, (<em>T</em>-4)-;Zinc, bis(diethylcarbamodithioato-κ<em>S</em>,κ<em>S</em>′)-, (<em>T</em>-4)-;(<em>T</em>-4)-Bis(<em>N</em>,<em>N</em>-diethylcarbamodithioato-κ<em>S</em>,κ<em>S</em>′)zinc;Zinc diethyldithiocarbamate;Bis(diethyldithiocarbamato)zinc;Zinc bis(diethyldithiocarbamate);Vulkacit ZDK;Zinc diethylcarbamodithioate;Diethyldithiocarbamic acid zinc salt;Ethazate;Ethyl Ziram;Vulcacure ZE;Ethylzimate;Carbamodithioic acid, diethyl-, zinc salt;Hermat ZDK;Vulkacit LDA;Zinc bis(<em>N</em>,<em>N</em>-diethyldithiocarbamate);Zinc <em>N</em>,<em>N</em>-diethyldithiocarbamate;Nocceler EZ;Soxinol EZ;EZ (carbamate);EZ;Bis(diethyldithiocarbamato)zinc(II);Bis(<em>N</em>,<em>N</em>-diethyldithiocarbamato)zinc;NSC 177699;Sanceler EZ;Vulkazit LDA;Perkacit ZDEC-PDR;Karbamat ETS;Accelerator ZDC;ZDC;Accel EZ;ZDEC;Mercure ZDC;Accelerator EZ;Rhenogran ZDEC 80;Accelerator ZDA;Bostex 561;Vulkacite LDA-ZDEC",
    "duplicated_cas_no": "136-94-7;14460-21-0;15465-13-1;18445-58-4;32733-02-1;39456-86-5;92481-10-2;115028-55-2;120092-57-1;880359-15-9;905572-85-2;2169916-09-8",
    "SMILES": "N(CC)(CC)C=1[S-][Zn+2]2([S-]C(N(CC)CC)=[S]2)[S]1",
    "meta_data": {
        "InChI": "InChI=1S/2C5H11NS2.Zn/c2*1-3-6(4-2)5(7)8;/h2*3-4H2,1-2H3,(H,7,8);/q;;+2/p-2",
        "InChIKey": null,
        "Canonical SMILES": "[S]1=C([S-][Zn+2]12[S]=C([S-]2)N(CC)CC)N(CC)CC",
        "Molecular Formula": "C<sub>10</sub>H<sub>20</sub>N<sub>2</sub>S<sub>4</sub>Zn",
        "Molecular Mass": "",
        "Melting Point": "172-176 °C",
        "Density": "1.47 g/cm³ @ Temp: 20 °C"
    }
}