{
    "cas_no": "13463-41-7",
    "key_name": "Pyrithione zinc",
    "cn_name": "吡硫鎓锌;2-吡啶硫醇-1-氧锌;",
    "alternate_name": "Zinc, bis[1-(hydroxy-κ<em>O</em>)-2(1<em>H</em>)-pyridinethionato-κ<em>S</em><sup>2</sup>]-, (<em>T</em>-4)-;Zinc, bis(1-hydroxy-2(1<em>H</em>)-pyridinethionato)-;Zinc, bis(1-hydroxy-2(1<em>H</em>)-pyridinethionato-<em>O</em>,<em>S</em>)-, (<em>T</em>-4)-;2(1<em>H</em>)-Pyridinethione, 1-hydroxy-, zinc complex;(<em>T</em>-4)-Bis[1-(hydroxy-κ<em>O</em>)-2(1<em>H</em>)-pyridinethionato-κ<em>S</em><sup>2</sup>]zinc;Zinc pyrithione;Omadine Zinc;Pyrithione zinc;Bis(1-hydroxy-2-(1<em>H</em>)-pyridinethionato)zinc;Zinc, bis(2-pyridinylthio)-, <em>N</em>,<em>N</em>′-dioxide;Zinc 2-pyridinethiol 1-oxide;Vancide P;Zinc Omadine;ZPT;OM 1563;2-Mercaptopyridine 1-oxide zinc salt;Zinc 1-hydroxy-2-pyridinethione;2-Pyridinethiol 1-oxide zinc salt;Zinc pyrethion;2-Pyridinethiol <em>N</em>-oxide zinc salt;Zincpolyanemine;Zinc 2-mercaptopyridine <em>N</em>-oxide;Zinc pyridine-2-thione-<em>N</em>-oxide;FSB 8332;1-Hydroxy-2-pyridinethione, zinc salt;Evafine P 50;Tomicide Z 50;Bis(1-hydroxy-2(1H)-pyridinethionato)zinc;Hokucide ZPT;Finecide ZPT;Biocut ZP;Bis(2-pyridinethiol 1-oxide)zinc;BC-J;Tomicide ZPT 50;Niccanon SKT;Niccanon ZP;Marukacide YP-DP;Zinc bis(2-pyridylthio-1-oxide);Sebulon Shampoo;Desquaman;Danex;ZNP Bar;Tomicide ZPT;NSC 290409;AF-Z;Tomicide ZPT 100;Zinc Pyrion;2-Pyridylthiol-1-oxide zinc salt;Microban Additive ZO 1;ZO-E;Zn Omadine ZOE;Microban Z 01;Sanitized TH 22-27;Clean-Bio ZP;Sanaizol 200;Dantrol;Zincopan;Sanitized TH 27-24BT;Slaoff 95;Slaoff 94;Vedexil-PZ;Hybricide 89;Denistat ANK;ZOE-T;Intercide ZNP;SR-A 103;ZnPT;Zinc Omadine ZOE Dispersion;Zinc Omadine ZOE;TH 22-27;Zinc bis(2-mercaptopyridine-N-oxide);Zinc Omacide ZOE;FK-C;RUCO-BAC ZPY;Microcare ZP;Neostuf ZP 10;Zinc, bis[(2-pyridinethiol-κ<em>S</em><sup>2</sup>) 1-oxidato]-;Bis[(2-pyridinethiol-κ<em>S</em><sup>2</sup>) 1-oxidato]zinc;2-Pyridinethiol, 1-oxide, zinc salt (2:1);Biomaster 627;ZPT 38;Zinc Omadine FPS;Kopthione",
    "duplicated_cas_no": "1192-70-7;1320-68-9;3138-01-0;3590-23-6;3865-77-8;14376-32-0;15686-64-3;16782-00-6;17652-47-0;31089-48-2;35430-20-7;39412-61-8;51148-10-8;51406-57-6;55172-61-7;74261-71-5;109702-19-4;118480-78-7;162400-43-3;186322-74-7;192458-89-2;208398-70-3;226883-65-4;244778-79-8;266692-38-0;318995-78-7;943428-71-5;1021487-49-9;1199553-62-2;1323439-04-8;1428553-54-1;1698050-37-1;2173031-33-7;2218447-38-0;2259655-38-2",
    "SMILES": "[Zn+2]12([O-]N3C(=[S]1)C=CC=C3)[O-]N4C(=[S]2)C=CC=C4",
    "meta_data": {
        "InChI": "InChI=1S/2C5H4NOS.Zn/c2*7-6-4-2-1-3-5(6)8;/h2*1-4H;/q2*-1;+2",
        "InChIKey": null,
        "Canonical SMILES": "[O-]1N2C=CC=CC2=[S][Zn+2]13[O-]N4C=CC=CC4=[S]3",
        "Molecular Formula": "C<sub>10</sub>H<sub>8</sub>N<sub>2</sub>O<sub>2</sub>S<sub>2</sub>Zn",
        "Molecular Mass": "",
        "Melting Point": "240 °C (decomp)",
        "Density": "1.782 g/cm³ @ Temp: 25 °C"
    }
}