{
    "cas_no": "25961-11-9",
    "key_name": "1-(3-Chloro-10,11-dihydro-5<em>H</em>-dibenz[<em>b</em>,<em>f</em>]azepin-5-yl)ethanone",
    "cn_name": "3-氯-5-乙酰基-10,11-二氢-5H-二苯并[b,f]氮杂卓;5-乙酰基-3-氯亚氨基二苄;",
    "alternate_name": "Ethanone, 1-(3-chloro-10,11-dihydro-5<em>H</em>-dibenz[<em>b</em>,<em>f</em>]azepin-5-yl)-;5<em>H</em>-Dibenz[<em>b</em>,<em>f</em>]azepine, 5-acetyl-3-chloro-10,11-dihydro-;1-(3-Chloro-10,11-dihydro-5<em>H</em>-dibenz[<em>b</em>,<em>f</em>]azepin-5-yl)ethanone;5-Acetyl-3-chloroiminodibenzyl;5-Acetyl-3-chloro-10,11-dihydro-5<em>H</em>-dibenz[<em>b</em>,<em>f</em>]azepine;1-(3-Chloro-10,11-dihydrodibenzo[<em>b</em>,<em>f</em>]azepin-5-yl)ethanone;5-Acetyl-3-chloro-10,11-dihydro-5<em>H</em>-dibenzo[<em>b</em>,<em>f</em>]azepine",
    "duplicated_cas_no": "",
    "SMILES": "C(C)(=O)N1C=2C(CCC=3C1=CC=CC3)=CC=C(Cl)C2",
    "meta_data": {
        "InChI": "InChI=1S/C16H14ClNO/c1-11(19)18-15-5-3-2-4-12(15)6-7-13-8-9-14(17)10-16(13)18/h2-5,8-10H,6-7H2,1H3",
        "InChIKey": null,
        "Canonical SMILES": "O=C(N1C=2C=CC=CC2CCC3=CC=C(Cl)C=C31)C",
        "Molecular Formula": "C<sub>16</sub>H<sub>14</sub>ClNO",
        "Molecular Mass": "271.74",
        "Melting Point": "126 °C"
    }
}