{
    "cas_no": "23074-59-1",
    "key_name": "3-(2-Methylpropoxy)-2-cyclohexen-1-one",
    "cn_name": "3-异丁氧基-2-环己烯酮;",
    "alternate_name": "2-Cyclohexen-1-one, 3-(2-methylpropoxy)-;2-Cyclohexen-1-one, 3-isobutoxy-;3-(2-Methylpropoxy)-2-cyclohexen-1-one;3-Isobutoxy-2-cyclohexenone;3-Isobutoxy-2-cyclohexen-1-one;3-<em>iso</em>-Butoxy-2-cyclohexenone",
    "duplicated_cas_no": "",
    "SMILES": "O(CC(C)C)C1=CC(=O)CCC1",
    "meta_data": {
        "InChI": "InChI=1S/C10H16O2/c1-8(2)7-12-10-5-3-4-9(11)6-10/h6,8H,3-5,7H2,1-2H3",
        "InChIKey": null,
        "Canonical SMILES": "O=C1C=C(OCC(C)C)CCC1",
        "Molecular Formula": "C<sub>10</sub>H<sub>16</sub>O<sub>2</sub>",
        "Molecular Mass": "168.23",
        "Boiling Point": "110-120 °C @ Press: 0.6 Torr"
    }
}