{
    "cas_no": "19395-39-2",
    "key_name": "α-Phenyl-2-piperidineacetamide",
    "cn_name": "alpha-苯基哌啶-2-乙酰胺;",
    "alternate_name": "2-Piperidineacetamide, α-phenyl-;α-Phenyl-2-piperidineacetamide;2-Phenyl-2-(2-piperidyl)acetamide;<em>erythro</em>/<em>threo</em>-2-Phenyl-2-piperidin-2-ylacetamide;2-Phenyl-2-(piperidin-2-yl)acetamide;2-Phenyl-2-piperidin-2-ylacetamide",
    "duplicated_cas_no": "",
    "SMILES": "C(C(N)=O)(C1=CC=CC=C1)C2CCCCN2",
    "meta_data": {
        "InChI": "InChI=1S/C13H18N2O/c14-13(16)12(10-6-2-1-3-7-10)11-8-4-5-9-15-11/h1-3,6-7,11-12,15H,4-5,8-9H2,(H2,14,16)",
        "InChIKey": null,
        "Canonical SMILES": "O=C(N)C(C=1C=CC=CC1)C2NCCCC2",
        "Molecular Formula": "C<sub>13</sub>H<sub>18</sub>N<sub>2</sub>O",
        "Molecular Mass": "218.29",
        "Melting Point": "173 °C"
    }
}