{
    "cas_no": "4984-85-4",
    "key_name": "4-Hydroxy-3-hexanone",
    "cn_name": "3-羟基-4-己酮;",
    "alternate_name": "3-Hexanone, 4-hydroxy-;4-Hydroxy-3-hexanone;Propionoin;Propioin;3-Hydroxy-4-hexanone;Ethyl α-hydroxypropyl ketone;(±)-4-Hydroxy-3-hexanone;NSC 23087",
    "duplicated_cas_no": "52217-03-5",
    "SMILES": "C(C(CC)=O)(CC)O",
    "meta_data": {
        "InChI": "InChI=1S/C6H12O2/c1-3-5(7)6(8)4-2/h5,7H,3-4H2,1-2H3",
        "InChIKey": null,
        "Canonical SMILES": "O=C(CC)C(O)CC",
        "Molecular Formula": "C<sub>6</sub>H<sub>12</sub>O<sub>2</sub>",
        "Molecular Mass": "116.16",
        "Boiling Point": "67-68 °C @ Press: 10 Torr",
        "Density": "0.056 g/cm³ @ Temp: 31 °C"
    }
}