{
    "cas_no": "27975-19-5",
    "key_name": "Isosteviol",
    "cn_name": "异甜菊醇;",
    "alternate_name": "17-Norkauran-18-oic acid, 13-methyl-16-oxo-, (4α,8β,13β)-;17-Nor-8β,13β-kauran-18-oic acid, 13-methyl-16-oxo-;Isosteviol;(4α,8β,13β)-13-Methyl-16-oxo-17-norkauran-18-oic acid;<em>iso</em>-Steviol;Ketoisostevic acid;(-)-Isosteviol;NSC 231875;1<em>H</em>-2,10a-Ethanophenanthrene-8-carboxylic acid, dodecahydro-2,4b,8-trimethyl-12-oxo-, (2<em>S</em>,4a<em>R</em>,4b<em>S</em>,8<em>R</em>,8a<em>S</em>,10a<em>R</em>)-",
    "duplicated_cas_no": "499192-21-1",
    "SMILES": "C[C@]12[C@]3([C@@]4(C[C@](C)(CC3)C(=O)C4)CC[C@@]1([C@@](C(O)=O)(C)CCC2)[H])[H]",
    "meta_data": {
        "InChI": "InChI=1S/C20H30O3/c1-17-9-5-14-18(2)7-4-8-19(3,16(22)23)13(18)6-10-20(14,12-17)11-15(17)21/h13-14H,4-12H2,1-3H3,(H,22,23)/t13-,14-,17-,18+,19+,20-/m0/s1",
        "InChIKey": null,
        "Canonical SMILES": "O=C(O)C1(C)CCCC2(C)C1CCC34CC(=O)C(C)(CCC32)C4",
        "Molecular Formula": "C<sub>20</sub>H<sub>30</sub>O<sub>3</sub>",
        "Molecular Mass": "318.45",
        "Melting Point": "228-230 °C"
    }
}