{
    "cas_no": "97229-11-3",
    "key_name": "4-Chloro-2-(methylsulfonyl)pyrimidine",
    "cn_name": "4-氯-2-甲磺酰基嘧啶;",
    "alternate_name": "Pyrimidine, 4-chloro-2-(methylsulfonyl)-;4-Chloro-2-(methylsulfonyl)pyrimidine",
    "duplicated_cas_no": "",
    "SMILES": "S(C)(=O)(=O)C=1N=C(Cl)C=CN1",
    "meta_data": {
        "InChI": "InChI=1S/C5H5ClN2O2S/c1-11(9,10)5-7-3-2-4(6)8-5/h2-3H,1H3",
        "InChIKey": null,
        "Canonical SMILES": "O=S(=O)(C1=NC=CC(Cl)=N1)C",
        "Molecular Formula": "C<sub>5</sub>H<sub>5</sub>ClN<sub>2</sub>O<sub>2</sub>S",
        "Molecular Mass": "192.62",
        "Melting Point": "88-89 °C"
    }
}