{
    "cas_no": "24460-74-0",
    "key_name": "Carbonochloridic acid, dodecyl ester",
    "cn_name": "氯甲酸十二烷基酯;",
    "alternate_name": "Carbonochloridic acid, dodecyl ester;Formic acid, chloro-, dodecyl ester;Lauryl chloroformate;Dodecyl chloroformate;<em>n</em>-Dodecyl chloroformate;Dodecyloxycarbonyl chloride;Dodecyl carbonochloridate",
    "duplicated_cas_no": "",
    "SMILES": "C(CCCCCCCC)CCCOC(Cl)=O",
    "meta_data": {
        "InChI": "InChI=1S/C13H25ClO2/c1-2-3-4-5-6-7-8-9-10-11-12-16-13(14)15/h2-12H2,1H3",
        "InChIKey": null,
        "Canonical SMILES": "O=C(Cl)OCCCCCCCCCCCC",
        "Molecular Formula": "C<sub>13</sub>H<sub>25</sub>ClO<sub>2</sub>",
        "Molecular Mass": "248.79",
        "Boiling Point": "176-178 °C @ Press: 1.5 Torr"
    }
}