{
    "cas_no": "2050-44-4",
    "key_name": "<em>N</em>-(2,5-Dimethylphenyl)acetamide",
    "cn_name": "2,4-二甲基乙酰苯胺;",
    "alternate_name": "Acetamide, <em>N</em>-(2,5-dimethylphenyl)-;2′,5′-Acetoxylidide;<em>N</em>-(2,5-Dimethylphenyl)acetamide;2′,5′-Dimethylacetanilide;2,5-Dimethylacetanilide;NSC 43199;NSC 7646",
    "duplicated_cas_no": "",
    "SMILES": "N(C(C)=O)C1=C(C)C=CC(C)=C1",
    "meta_data": {
        "InChI": "InChI=1S/C10H13NO/c1-7-4-5-8(2)10(6-7)11-9(3)12/h4-6H,1-3H3,(H,11,12)",
        "InChIKey": null,
        "Canonical SMILES": "O=C(NC1=CC(=CC=C1C)C)C",
        "Molecular Formula": "C<sub>10</sub>H<sub>13</sub>NO",
        "Molecular Mass": "163.22",
        "Melting Point": "141-142 °C"
    }
}