{
    "cas_no": "108-41-8",
    "key_name": "3-Chlorotoluene",
    "cn_name": "3-氯甲苯;间氯甲苯;",
    "alternate_name": "Benzene, 1-chloro-3-methyl-;Toluene, <em>m</em>-chloro-;1-Chloro-3-methylbenzene;3-Chloro-1-methylbenzene;<em>m</em>-Tolyl chloride;3-Chlorotoluene;1-Methyl-3-chlorobenzene;3-Methylchlorobenzene;<em>m</em>-Chlorotoluene;<em>m</em>-Methylchlorobenzene;NSC 8767;3-Methylphenyl chloride",
    "duplicated_cas_no": "",
    "SMILES": "CC1=CC(Cl)=CC=C1",
    "meta_data": {
        "InChI": "InChI=1S/C7H7Cl/c1-6-3-2-4-7(8)5-6/h2-5H,1H3",
        "InChIKey": null,
        "Canonical SMILES": "ClC1=CC=CC(=C1)C",
        "Molecular Formula": "C<sub>7</sub>H<sub>7</sub>Cl",
        "Molecular Mass": "126.58",
        "Boiling Point": "161.8 °C",
        "Melting Point": "-47.8 °C",
        "Density": "1.07215 g/cm³ @ Temp: 20.00 °C"
    }
}