{
    "cas_no": "3294-03-9",
    "key_name": "2,2′-Thiobis[4-(1,1,3,3-tetramethylbutyl)phenol]",
    "cn_name": "2,2\"-硫代双(4-特辛基苯酚);2,2\"-硫代双[4-(1,1,3,3-四甲基丁基)苯酚];",
    "alternate_name": "Phenol, 2,2′-thiobis[4-(1,1,3,3-tetramethylbutyl)-;2,2′-Thiobis[4-(1,1,3,3-tetramethylbutyl)phenol];2,2′-Dihydroxy-5,5′-di-<em>tert</em>-octyldiphenyl sulfide;2,2′-Thiobis(4-<em>tert</em>-octylphenol);2,2′-Thiobis(<em>p</em>-<em>tert</em>-octylphenol);Di[2-hydroxy-5-(<em>tert</em>-octyl)phenyl] sulfide;2,2′-Thiobis[4-(1,1,3,3-tetramethyl-butyl)phenol];2,2′-Thiobis(4-tert-octylphenol);2,2′-Thiodi(4-tert-octylphenol)",
    "duplicated_cas_no": "33397-23-8;93487-18-4",
    "SMILES": "S(C1=CC(C(CC(C)(C)C)(C)C)=CC=C1O)C2=CC(C(CC(C)(C)C)(C)C)=CC=C2O",
    "meta_data": {
        "InChI": "InChI=1S/C28H42O2S/c1-25(2,3)17-27(7,8)19-11-13-21(29)23(15-19)31-24-16-20(12-14-22(24)30)28(9,10)18-26(4,5)6/h11-16,29-30H,17-18H2,1-10H3",
        "InChIKey": null,
        "Canonical SMILES": "OC1=CC=C(C=C1SC2=CC(=CC=C2O)C(C)(C)CC(C)(C)C)C(C)(C)CC(C)(C)C",
        "Molecular Formula": "C<sub>28</sub>H<sub>42</sub>O<sub>2</sub>S",
        "Molecular Mass": "442.70",
        "Melting Point": "132-134 °C"
    }
}