{
    "cas_no": "6393-40-4",
    "key_name": "4-Amino-3-nitrobenzonitrile",
    "cn_name": "4-氨基-3-硝基苯甲腈;3-硝基-4-氨基苯腈;",
    "alternate_name": "Benzonitrile, 4-amino-3-nitro-;4-Amino-3-nitrobenzonitrile;2-Nitro-4-cyanoaniline;4-Cyano-2-nitroaniline;3-Nitro-4-aminobenzonitrile",
    "duplicated_cas_no": "",
    "SMILES": "N(=O)(=O)C1=CC(C#N)=CC=C1N",
    "meta_data": {
        "InChI": "InChI=1S/C7H5N3O2/c8-4-5-1-2-6(9)7(3-5)10(11)12/h1-3H,9H2",
        "InChIKey": null,
        "Canonical SMILES": "N#CC1=CC=C(N)C(=C1)N(=O)=O",
        "Molecular Formula": "C<sub>7</sub>H<sub>5</sub>N<sub>3</sub>O<sub>2</sub>",
        "Molecular Mass": "163.13",
        "Melting Point": "159-160 °C"
    }
}