{
    "cas_no": "24341-76-2",
    "key_name": "<em>B</em>-(2-Methyl-3,5-dinitrophenyl)boronic acid",
    "cn_name": null,
    "alternate_name": "Boronic acid, <em>B</em>-(2-methyl-3,5-dinitrophenyl)-;<em>o</em>-Tolueneboronic acid, 3,5-dinitro-;Boronic acid, (2-methyl-3,5-dinitrophenyl)-;<em>B</em>-(2-Methyl-3,5-dinitrophenyl)boronic acid;(2-Methyl-3,5-dinitrophenyl)boronic acid",
    "duplicated_cas_no": "",
    "SMILES": "B(O)(O)C1=C(C)C(N(=O)=O)=CC(N(=O)=O)=C1",
    "meta_data": {
        "InChI": "InChI=1S/C7H7BN2O6/c1-4-6(8(11)12)2-5(9(13)14)3-7(4)10(15)16/h2-3,11-12H,1H3",
        "InChIKey": null,
        "Canonical SMILES": "O=N(=O)C=1C=C(B(O)O)C(=C(C1)N(=O)=O)C",
        "Molecular Formula": "C<sub>7</sub>H<sub>7</sub>BN<sub>2</sub>O<sub>6</sub>",
        "Molecular Mass": "225.95",
        "Melting Point": "142 °C"
    }
}