{
    "cas_no": "141-78-6",
    "key_name": "Ethyl acetate",
    "cn_name": "乙酸乙酯;",
    "alternate_name": "Acetic acid ethyl ester;Acetic acid, ester with EtOH;Ethyl acetate;Acetic ether;Acetidin;Ethyl ethanoate;Vinegar naphtha;Acetoxyethane;EtOAc;NSC 70930;Acetic acid, ethyl ester;DY 026;1: PN: CN110526858 SEQID: 1 claimed sequence;NC 401;T 6502",
    "duplicated_cas_no": "",
    "SMILES": "O(C(C)=O)CC",
    "meta_data": {
        "InChI": "InChI=1S/C4H8O2/c1-3-6-4(2)5/h3H2,1-2H3",
        "InChIKey": null,
        "Canonical SMILES": "O=C(OCC)C",
        "Molecular Formula": "C<sub>4</sub>H<sub>8</sub>O<sub>2</sub>",
        "Molecular Mass": "88.11",
        "Boiling Point": "77 °C",
        "Melting Point": "-83 °C",
        "Density": "0.902 g/cm³ @ Temp: 20 °C"
    }
}