{
    "cas_no": "18217-00-0",
    "key_name": "1-(2-Chloroethyl)-4-methoxybenzene",
    "cn_name": "4-(2-氯乙基)苯甲醚;",
    "alternate_name": "Benzene, 1-(2-chloroethyl)-4-methoxy-;Anisole, <em>p</em>-(2-chloroethyl)-;1-(2-Chloroethyl)-4-methoxybenzene;4-Methoxyphenethyl chloride;<em>p</em>-Methoxyphenethyl chloride;<em>p</em>-(2-Chloroethyl)anisole;1-Chloro-2-(4-methoxyphenyl)ethane;4-(2-Chloroethyl)anisole;2-(4-Methoxyphenyl)ethylchloride",
    "duplicated_cas_no": "",
    "SMILES": "C(CCl)C1=CC=C(OC)C=C1",
    "meta_data": {
        "InChI": "InChI=1S/C9H11ClO/c1-11-9-4-2-8(3-5-9)6-7-10/h2-5H,6-7H2,1H3",
        "InChIKey": null,
        "Canonical SMILES": "ClCCC1=CC=C(OC)C=C1",
        "Molecular Formula": "C<sub>9</sub>H<sub>11</sub>ClO",
        "Molecular Mass": "170.64",
        "Boiling Point": "136-139 °C @ Press: 24 Torr"
    }
}