{
    "cas_no": "38183-04-9",
    "key_name": "6,7-Dihydroxyflavone",
    "cn_name": null,
    "alternate_name": "4<em>H</em>-1-Benzopyran-4-one, 6,7-dihydroxy-2-phenyl-;6,7-Dihydroxy-2-phenyl-4<em>H</em>-1-benzopyran-4-one;6,7-Dihydroxyflavone;ABT-1841;ABT 1841",
    "duplicated_cas_no": "",
    "SMILES": "O=C1C=2C(OC(=C1)C3=CC=CC=C3)=CC(O)=C(O)C2",
    "meta_data": {
        "InChI": "InChI=1S/C15H10O4/c16-11-7-14(9-4-2-1-3-5-9)19-15-8-13(18)12(17)6-10(11)15/h1-8,17-18H",
        "InChIKey": null,
        "Canonical SMILES": "O=C1C=C(OC2=CC(O)=C(O)C=C12)C=3C=CC=CC3",
        "Molecular Formula": "C<sub>15</sub>H<sub>10</sub>O<sub>4</sub>",
        "Molecular Mass": "254.24",
        "Melting Point": "250 °C"
    }
}