{
    "cas_no": "13288-70-5",
    "key_name": "4,4′-Sulfonylbis[2,6-dimethylphenol]",
    "cn_name": "双(3,5-二甲基-4-羟苯)砜;双(4-羟基-3,5-二甲苯基)砜;",
    "alternate_name": "Phenol, 4,4′-sulfonylbis[2,6-dimethyl-;2,6-Xylenol, 4,4′-sulfonyldi-;4,4′-Sulfonylbis[2,6-dimethylphenol];Bis(3,5-dimethyl-4-hydroxyphenyl) sulfone;4,4′-Dihydroxy-3,3′,5,5′-tetramethylphenyl sulfone;2,2′,6,6′-Tetramethyl-4,4′-sulfonyldiphenol;Bis(4-hydroxy-3,5-dimethylphenyl) sulfone;BS-TM;4,4′-Dihydroxy-3,3′,5,5′-tetramethyldiphenyl sulfone;TX 0902",
    "duplicated_cas_no": "",
    "SMILES": "S(=O)(=O)(C1=CC(C)=C(O)C(C)=C1)C2=CC(C)=C(O)C(C)=C2",
    "meta_data": {
        "InChI": "InChI=1S/C16H18O4S/c1-9-5-13(6-10(2)15(9)17)21(19,20)14-7-11(3)16(18)12(4)8-14/h5-8,17-18H,1-4H3",
        "InChIKey": null,
        "Canonical SMILES": "O=S(=O)(C=1C=C(C(O)=C(C1)C)C)C=2C=C(C(O)=C(C2)C)C",
        "Molecular Formula": "C<sub>16</sub>H<sub>18</sub>O<sub>4</sub>S",
        "Molecular Mass": "306.38",
        "Melting Point": "303-306 °C"
    }
}