{
    "cas_no": "2050-87-5",
    "key_name": "Diallyl trisulfide",
    "cn_name": "二烯丙基三硫醚;",
    "alternate_name": "Trisulfide, di-2-propen-1-yl;Allyl trisulfide;Trisulfide, di-2-propenyl;Di-2-propen-1-yl trisulfide;Diallyl trisulfide;Allitridin;Allitridum;Di(2-propenyl) trisulfide;NSC 651936;Allitride;DATS",
    "duplicated_cas_no": "",
    "SMILES": "S(SCC=C)SCC=C",
    "meta_data": {
        "InChI": "InChI=1S/C6H10S3/c1-3-5-7-9-8-6-4-2/h3-4H,1-2,5-6H2",
        "InChIKey": null,
        "Canonical SMILES": "S(SCC=C)SCC=C",
        "Molecular Formula": "C<sub>6</sub>H<sub>10</sub>S<sub>3</sub>",
        "Molecular Mass": "178.34",
        "Boiling Point": "60-95 °C @ Press: 12 Torr"
    }
}