{
    "cas_no": "74712-19-9",
    "key_name": "Bromobutide",
    "cn_name": "溴丁酰草胺;",
    "alternate_name": "Butanamide, 2-bromo-3,3-dimethyl-<em>N</em>-(1-methyl-1-phenylethyl)-;2-Bromo-3,3-dimethyl-<em>N</em>-(1-methyl-1-phenylethyl)butanamide;S 47;S 47 (pesticide);Bromobutide;S 4347;Sumiherb;2-Bromo-3,3-dimethyl-<em>N</em>-(α,α-dimethylbenzyl)butyramide;2-Bromo-<em>N</em>-(α,α-dimethylbenzyl)-3,3-dimethylbutanamide",
    "duplicated_cas_no": "81038-10-0",
    "SMILES": "C(NC(C(C(C)(C)C)Br)=O)(C)(C)C1=CC=CC=C1",
    "meta_data": {
        "InChI": "InChI=1S/C15H22BrNO/c1-14(2,3)12(16)13(18)17-15(4,5)11-9-7-6-8-10-11/h6-10,12H,1-5H3,(H,17,18)",
        "InChIKey": null,
        "Canonical SMILES": "O=C(NC(C=1C=CC=CC1)(C)C)C(Br)C(C)(C)C",
        "Molecular Formula": "C<sub>15</sub>H<sub>22</sub>BrNO",
        "Molecular Mass": "312.25",
        "Melting Point": "180.1 °C"
    }
}