{
    "cas_no": "18980-21-7",
    "key_name": "4-Bromo-2-ethylphenol",
    "cn_name": null,
    "alternate_name": "Phenol, 4-bromo-2-ethyl-;4-Bromo-2-ethylphenol",
    "duplicated_cas_no": "",
    "SMILES": "C(C)C1=C(O)C=CC(Br)=C1",
    "meta_data": {
        "InChI": "InChI=1S/C8H9BrO/c1-2-6-5-7(9)3-4-8(6)10/h3-5,10H,2H2,1H3",
        "InChIKey": null,
        "Canonical SMILES": "BrC1=CC=C(O)C(=C1)CC",
        "Molecular Formula": "C<sub>8</sub>H<sub>9</sub>BrO",
        "Molecular Mass": "201.06",
        "Boiling Point": "110 °C @ Press: 3 Torr"
    }
}