{
    "cas_no": "79055-60-0",
    "key_name": "2-Bromo-5-methyl-4-pyridinamine",
    "cn_name": null,
    "alternate_name": "4-Pyridinamine, 2-bromo-5-methyl-;2-Bromo-5-methyl-4-pyridinamine;2-Bromo-5-methylpyridin-4-ylamine",
    "duplicated_cas_no": "",
    "SMILES": "NC=1C(C)=CN=C(Br)C1",
    "meta_data": {
        "InChI": "InChI=1S/C6H7BrN2/c1-4-3-9-6(7)2-5(4)8/h2-3H,1H3,(H2,8,9)",
        "InChIKey": null,
        "Canonical SMILES": "BrC1=NC=C(C(N)=C1)C",
        "Molecular Formula": "C<sub>6</sub>H<sub>7</sub>BrN<sub>2</sub>",
        "Molecular Mass": "187.04",
        "Melting Point": "125 °C"
    }
}