{
    "cas_no": "26074-52-2",
    "key_name": "2-Bromobutanoyl bromide",
    "cn_name": "2-溴丁酰溴;",
    "alternate_name": "Butanoyl bromide, 2-bromo-;Butyryl bromide, 2-bromo-;2-Bromobutanoyl bromide;2-Bromobutyryl bromide;α-Bromobutyryl bromide",
    "duplicated_cas_no": "139448-63-8",
    "SMILES": "C(C(Br)=O)(CC)Br",
    "meta_data": {
        "InChI": "InChI=1S/C4H6Br2O/c1-2-3(5)4(6)7/h3H,2H2,1H3",
        "InChIKey": null,
        "Canonical SMILES": "O=C(Br)C(Br)CC",
        "Molecular Formula": "C<sub>4</sub>H<sub>6</sub>Br<sub>2</sub>O",
        "Molecular Mass": "229.90",
        "Boiling Point": "57-60 °C @ Press: 10 Torr"
    }
}