{
    "cas_no": "3272-08-0",
    "key_name": "4-Cyano-2-nitrophenol",
    "cn_name": "4-羟基-3-硝基苯甲腈;",
    "alternate_name": "Benzonitrile, 4-hydroxy-3-nitro-;4-Hydroxy-3-nitrobenzonitrile;3-Nitro-4-hydroxybenzonitrile;5-Nitro-4-hydroxybenzonitrile;4-Cyano-2-nitrophenol;2-Nitro-4-cyanophenol",
    "duplicated_cas_no": "",
    "SMILES": "N(=O)(=O)C1=CC(C#N)=CC=C1O",
    "meta_data": {
        "InChI": "InChI=1S/C7H4N2O3/c8-4-5-1-2-7(10)6(3-5)9(11)12/h1-3,10H",
        "InChIKey": null,
        "Canonical SMILES": "N#CC1=CC=C(O)C(=C1)N(=O)=O",
        "Molecular Formula": "C<sub>7</sub>H<sub>4</sub>N<sub>2</sub>O<sub>3</sub>",
        "Molecular Mass": "164.12",
        "Melting Point": "144 °C"
    }
}