{
    "cas_no": "2341-25-5",
    "key_name": "6-Fluoro-1<em>H</em>-indole-3-acetonitrile",
    "cn_name": "6-氟吲哚-3-乙腈;6-氟吲哚-3-乙腈;",
    "alternate_name": "1<em>H</em>-Indole-3-acetonitrile, 6-fluoro-;Indole-3-acetonitrile, 6-fluoro-;6-Fluoro-1<em>H</em>-indole-3-acetonitrile;2-(6-Fluoro-1<em>H</em>-indol-3-yl)acetonitrile",
    "duplicated_cas_no": "",
    "SMILES": "C(C#N)C=1C=2C(=CC(F)=CC2)NC1",
    "meta_data": {
        "InChI": "InChI=1S/C10H7FN2/c11-8-1-2-9-7(3-4-12)6-13-10(9)5-8/h1-2,5-6,13H,3H2",
        "InChIKey": null,
        "Canonical SMILES": "N#CCC1=CNC=2C=C(F)C=CC21",
        "Molecular Formula": "C<sub>10</sub>H<sub>7</sub>FN<sub>2</sub>",
        "Molecular Mass": "174.17",
        "Melting Point": "51-52 °C (sublm)"
    }
}