{
    "cas_no": "6902-91-6",
    "key_name": "Germacrone",
    "cn_name": "吉马酮;(E,E)-大牻牛儿-3,7(11),9-三烯-6-酮;(E,E)-3,7-二甲基-10-(1-甲基亚乙基)-3,7-环癸二烯-1-酮;",
    "alternate_name": "3,7-Cyclodecadien-1-one, 3,7-dimethyl-10-(1-methylethylidene)-, (3<em>E</em>,7<em>E</em>)-;Germacrone;3,7-Cyclodecadien-1-one, 3,7-dimethyl-10-(1-methylethylidene)-, (<em>E</em>,<em>E</em>)-;Germacra-3,7(11),9-trien-6-one, (<em>E</em>,<em>E</em>)-;(3<em>E</em>,7<em>E</em>)-3,7-Dimethyl-10-(1-methylethylidene)-3,7-cyclodecadien-1-one;Germacron;(<em>E</em>,<em>E</em>)-Germacrone",
    "duplicated_cas_no": "67779-23-1",
    "SMILES": "",
    "meta_data": {
        "InChI": "",
        "InChIKey": null,
        "Canonical SMILES": "",
        "Molecular Formula": "C<sub>15</sub>H<sub>22</sub>O",
        "Molecular Mass": "218.33",
        "Boiling Point": "153-157 °C @ Press: 13 Torr",
        "Melting Point": "55.5-56.0 °C",
        "Density": "0.9908 g/cm³ @ Temp: 20 °C"
    }
}