{
    "cas_no": "2257-09-2",
    "key_name": "Phenethyl isothiocyanate",
    "cn_name": "2-苯基乙基异硫代氰酸酯;异硫氰酸苯乙酯;",
    "alternate_name": "Benzene, (2-isothiocyanatoethyl)-;Isothiocyanic acid, phenethyl ester;(2-Isothiocyanatoethyl)benzene;Phenethyl mustard oil;β-Phenylethyl isothiocyanate;Phenylethyl isothiocyanate;Phenylethyl mustard oil;2-Phenylethyl isothiocyanate;Phenethyl isothiocyanate;β-Phenethyl isothiocyanate;NSC 87868;JC 5411;1-(2-Isothiocyanatoethyl)benzene;Beta-phenylethyl isothiocyanate",
    "duplicated_cas_no": "",
    "SMILES": "C(CN=C=S)C1=CC=CC=C1",
    "meta_data": {
        "InChI": "InChI=1S/C9H9NS/c11-8-10-7-6-9-4-2-1-3-5-9/h1-5H,6-7H2",
        "InChIKey": null,
        "Canonical SMILES": "S=C=NCCC=1C=CC=CC1",
        "Molecular Formula": "C<sub>9</sub>H<sub>9</sub>NS",
        "Molecular Mass": "163.24",
        "Boiling Point": "139-140 °C",
        "Melting Point": "203-205 °C",
        "Density": "1.0942 g/cm³ @ Temp: 20 °C"
    }
}