{
    "cas_no": "160377-57-1",
    "key_name": "3-(3-Bromophenyl)-5-methyl-1,2,4-oxadiazole",
    "cn_name": null,
    "alternate_name": "1,2,4-Oxadiazole, 3-(3-bromophenyl)-5-methyl-;3-(3-Bromophenyl)-5-methyl-1,2,4-oxadiazole",
    "duplicated_cas_no": "",
    "SMILES": "BrC=1C=C(C=CC1)C2=NOC(C)=N2",
    "meta_data": {
        "InChI": "InChI=1S/C9H7BrN2O/c1-6-11-9(12-13-6)7-3-2-4-8(10)5-7/h2-5H,1H3",
        "InChIKey": null,
        "Canonical SMILES": "BrC1=CC=CC(=C1)C2=NOC(=N2)C",
        "Molecular Formula": "C<sub>9</sub>H<sub>7</sub>BrN<sub>2</sub>O",
        "Molecular Mass": "239.07",
        "Melting Point": "58-61 °C"
    }
}