{
    "cas_no": "111-30-8",
    "key_name": "Glutaraldehyde",
    "cn_name": "戊二醛;",
    "alternate_name": "Pentanedial;Glutaraldehyde;Glutardialdehyde;Glutaric dialdehyde;Glutaric acid dialdehyde;Glutaral;1,5-Pentanedial;Sonacide;Hospex;Aldesan;Glutarex 28;Relugan GT;Relugan GT 50;Sporicidin;Cidex 7;Ucarcide 250;Relugan GTW;Glutaclean;Sterihyde;Bactron K 31;Sterihyde L;Cidex-Dialyzer;Tret-O-Lite XC 102;Biomate 743;Glutohyde;Banicide;Panavirocide;Floperm 665X1;Diglutaric aldehyde;Cleancide 275;Cidex;Cidexplus;Wavicide 01;Piror 850;Surcide G 50;Glu-Cid;Sellatan CF-N;NSC 13392;Aqucar 550;Venno-FF super;Sterisol S;Kcide 850;Permachem OB 5;Biocide G 30;Metricide Plus;Maxicide Plus;5-Oxopentanal;Bioban Eth 1000;T 352;Eimaldehyde;KS 02;Formula H;Ukatan 24;Protectol GA 50;Odycide B 310;Ucarcide 50;Ucarcide 50 Antimicrobial;Ucarcide 250 Antimicrobial;GT 50;G 6257;NovaCide 1125;Aqucar GA 50",
    "duplicated_cas_no": "37245-61-7;79215-57-9;107950-89-0;1428979-54-7;1497435-71-8",
    "SMILES": "C(CC=O)CC=O",
    "meta_data": {
        "InChI": "InChI=1S/C5H8O2/c6-4-2-1-3-5-7/h4-5H,1-3H2",
        "InChIKey": null,
        "Canonical SMILES": "O=CCCCC=O",
        "Molecular Formula": "C<sub>5</sub>H<sub>8</sub>O<sub>2</sub>",
        "Molecular Mass": "100.12",
        "Boiling Point": "71-72 °C @ Press: 10 Torr",
        "Melting Point": "-14 °C",
        "Density": "0.72 g/cm³"
    }
}