{
    "cas_no": "3776-39-4",
    "key_name": "Enmein",
    "cn_name": null,
    "alternate_name": "Enmein;5<em>H</em>-5a,8-Methano-11<em>H</em>-cyclohepta[<em>c</em>]furo[3,4-<em>e</em>][1]benzopyran-5,6(7<em>H</em>)-dione, decahydro-2,13-dihydroxy-1,1-dimethyl-7-methylene-, (2<em>S</em>,3a<em>S</em>,5a<em>S</em>,8<em>R</em>,10a<em>S</em>,10b<em>S</em>,13<em>R</em>,13a<em>R</em>)-;Isodonin;Bicyclo[3.2.1]octane-1-carboxylic acid, 6-methylene-7-oxo-2-(tetrahydro-1,4,6-trihydroxy-7,7-dimethyl-3a(4<em>H</em>)-phthalanyl)-, δ-lactone;5<em>H</em>-5a,8-Methano-11<em>H</em>-cyclohepta[<em>c</em>]furo[3,4-<em>e</em>][1]benzopyran, enmein deriv.;5<em>H</em>-5a,8-Methano-11<em>H</em>-cyclohepta[<em>c</em>]furo[3,4-<em>e</em>][1]benzopyran-5,6(7<em>H</em>)-dione, decahydro-2,13-dihydroxy-1,1-dimethyl-7-methylene-, [2<em>S</em>-(2α,3aα,5aα,8α,10aβ,10b<em>R</em>*,13α,13aα)]-;Isodonine;[2<em>S</em>-(2α,3aα,5aα,8α,10aβ,10b<em>R</em>*,13α,13aα)]-Decahydro-2,13-dihydroxy-1,1-dimethyl-7-methylene-5<em>H</em>-5a,8-methano-11<em>H</em>-cyclohepta[<em>c</em>]furo[3,4-<em>e</em>][1]benzopyran-5,6(7<em>H</em>)-dione;NSC 526961;(-)-Enmein",
    "duplicated_cas_no": "",
    "SMILES": "CC1(C)[C@@]2([C@@]3([C@]4([C@]5(C[C@@](CC4)(C(=C)C5=O)[H])C(=O)O[C@]3(C[C@@H]1O)[H])[H])CO[C@H]2O)[H]",
    "meta_data": {
        "InChI": "InChI=1S/C20H26O6/c1-9-10-4-5-11-19(7-10,15(9)22)17(24)26-13-6-12(21)18(2,3)14-16(23)25-8-20(11,13)14/h10-14,16,21,23H,1,4-8H2,2-3H3/t10-,11-,12+,13+,14-,16-,19+,20-/m1/s1",
        "InChIKey": null,
        "Canonical SMILES": "O=C1OC2CC(O)C(C)(C)C3C(O)OCC23C4CCC5C(=C)C(=O)C14C5",
        "Molecular Formula": "C<sub>20</sub>H<sub>26</sub>O<sub>6</sub>",
        "Molecular Mass": "362.42",
        "Melting Point": "227-229 °C (decomp)"
    }
}