{
    "cas_no": "132606-40-7",
    "key_name": "3-Bromo-6-chloro-2-methylpyridine",
    "cn_name": "5-溴-2-氯-6-甲基吡啶;",
    "alternate_name": "Pyridine, 3-bromo-6-chloro-2-methyl-;3-Bromo-6-chloro-2-methylpyridine;5-Bromo-2-chloro-6-methylpyridine;2-Chloro-6-methyl-5-bromopyridine",
    "duplicated_cas_no": "",
    "SMILES": "CC1=C(Br)C=CC(Cl)=N1",
    "meta_data": {
        "InChI": "InChI=1S/C6H5BrClN/c1-4-5(7)2-3-6(8)9-4/h2-3H,1H3",
        "InChIKey": null,
        "Canonical SMILES": "ClC=1N=C(C(Br)=CC1)C",
        "Molecular Formula": "C<sub>6</sub>H<sub>5</sub>BrClN",
        "Molecular Mass": "206.47",
        "Melting Point": "46-47 °C"
    }
}