{
    "cas_no": "28808-62-0",
    "key_name": "Fraxinellone",
    "cn_name": "梣酮; 3-(3-呋喃基)-3a,4,5,6-四氢-3a,7-二甲基苯酞;",
    "alternate_name": "1(3<em>H</em>)-Isobenzofuranone, 3-(3-furanyl)-3a,4,5,6-tetrahydro-3a,7-dimethyl-, (3<em>R</em>,3a<em>R</em>)-;Phthalide, 3-(3-furyl)-3a,4,5,6-tetrahydro-3a,7-dimethyl-;1(3<em>H</em>)-Isobenzofuranone, 3-(3-furanyl)-3a,4,5,6-tetrahydro-3a,7-dimethyl-, (3<em>R</em>-<em>cis</em>)-;(3<em>R</em>,3a<em>R</em>)-3-(3-Furanyl)-3a,4,5,6-tetrahydro-3a,7-dimethyl-1(3<em>H</em>)-isobenzofuranone;Fraxinellone",
    "duplicated_cas_no": "",
    "SMILES": "C[C@]12[C@@H](OC(=O)C1=C(C)CCC2)C=3C=COC3",
    "meta_data": {
        "InChI": "InChI=1S/C14H16O3/c1-9-4-3-6-14(2)11(9)13(15)17-12(14)10-5-7-16-8-10/h5,7-8,12H,3-4,6H2,1-2H3/t12-,14+/m0/s1",
        "InChIKey": null,
        "Canonical SMILES": "O=C1OC(C2=COC=C2)C3(C1=C(C)CCC3)C",
        "Molecular Formula": "C<sub>14</sub>H<sub>16</sub>O<sub>3</sub>",
        "Molecular Mass": "232.27",
        "Melting Point": "117 °C"
    }
}