{
    "cas_no": "17609-52-8",
    "key_name": "Benzyloxycarbonyl-<span class=\"text-smallcaps\">D</span>-phenylglycine",
    "cn_name": "Z-D-phenylglycine;",
    "alternate_name": "Benzeneacetic acid, α-[[(phenylmethoxy)carbonyl]amino]-, (α<em>R</em>)-;Glycine, <em>N</em>-carboxy-2-phenyl-, <em>N</em>-benzyl ester, <span class=\"text-smallcaps\">D</span>-;Benzeneacetic acid, α-[[(phenylmethoxy)carbonyl]amino]-, (<em>R</em>)-;(α<em>R</em>)-α-[[(Phenylmethoxy)carbonyl]amino]benzeneacetic acid;<em>N</em>-Carbobenzoxy-<span class=\"text-smallcaps\">D</span>-phenylglycine;<em>N</em>-Carbobenzyloxy-<span class=\"text-smallcaps\">D</span>-phenylglycine;<em>N</em>-(Carbobenzoxy)-(<em>R</em>)-phenylglycine;<em>N</em>-Benzyloxycarbonyl-<span class=\"text-smallcaps\">D</span>-phenylglycine;<em>N</em>-Benzyloxycarbonyl-<span class=\"text-smallcaps\">D</span>-α-phenylglycine;Benzyloxycarbonyl-<span class=\"text-smallcaps\">D</span>-phenylglycine;Cbz-<span class=\"text-smallcaps\">D</span>-Phg-OH;<span class=\"text-smallcaps\">D</span>-Cbz phenylglycine;(R)-2-(((Benzyloxy)carbonyl)amino)-2-phenylacetic acid;(R)-2-(((Benzyloxy)carbonyl)amino)-2-phenylaceticacid;(2R)-2-Phenyl-2-(phenylmethoxycarbonylamino)acetic acid;(2R)-2-[[(Benzyloxy)carbonyl]amino]-2-phenylacetic acid",
    "duplicated_cas_no": "",
    "SMILES": "[C@H](NC(OCC1=CC=CC=C1)=O)(C(O)=O)C2=CC=CC=C2",
    "meta_data": {
        "InChI": "InChI=1S/C16H15NO4/c18-15(19)14(13-9-5-2-6-10-13)17-16(20)21-11-12-7-3-1-4-8-12/h1-10,14H,11H2,(H,17,20)(H,18,19)/t14-/m1/s1",
        "InChIKey": null,
        "Canonical SMILES": "O=C(O)C(NC(=O)OCC=1C=CC=CC1)C=2C=CC=CC2",
        "Molecular Formula": "C<sub>16</sub>H<sub>15</sub>NO<sub>4</sub>",
        "Molecular Mass": "285.29",
        "Melting Point": "127-128 °C"
    }
}