{
    "cas_no": "474-74-8",
    "key_name": "Glycolithocholic acid",
    "cn_name": null,
    "alternate_name": "Glycine, <em>N</em>-[(3α,5β)-3-hydroxy-24-oxocholan-24-yl]-;Glycolithocholic acid;Glycine, <em>N</em>-(3α-hydroxy-5β-cholan-24-oyl)-;5β-Cholan-24-amide, <em>N</em>-(carboxymethyl)-3α-hydroxy-;Cholane, glycine deriv.;<em>N</em>-[(3α,5β)-3-Hydroxy-24-oxocholan-24-yl]glycine;3α-Hydroxy-5β-cholanoylglycine;Lithocholic acid glycine conjugate;Lithocholylglycine;3α-Hydroxy-5β-cholanic acid glycine ester;3α-Hydroxy-<em>N</em>-(carboxymethyl)-5β-cholan-24-amide;<em>N</em>-(3α-Hydroxy-5β-cholanoyl)glycine",
    "duplicated_cas_no": "",
    "SMILES": "C[C@@]12[C@]([C@]3([C@@]([C@]4(C)[C@](CC3)(C[C@H](O)CC4)[H])(CC1)[H])[H])(CC[C@@]2([C@@H](CCC(NCC(O)=O)=O)C)[H])[H]",
    "meta_data": {
        "InChI": "InChI=1S/C26H43NO4/c1-16(4-9-23(29)27-15-24(30)31)20-7-8-21-19-6-5-17-14-18(28)10-12-25(17,2)22(19)11-13-26(20,21)3/h16-22,28H,4-15H2,1-3H3,(H,27,29)(H,30,31)/t16-,17-,18-,19+,20-,21+,22+,25+,26-/m1/s1",
        "InChIKey": null,
        "Canonical SMILES": "O=C(O)CNC(=O)CCC(C)C1CCC2C3CCC4CC(O)CCC4(C)C3CCC12C",
        "Molecular Formula": "C<sub>26</sub>H<sub>43</sub>NO<sub>4</sub>",
        "Molecular Mass": "433.62",
        "Melting Point": "212-214 °C"
    }
}