{
    "cas_no": "22027-50-5",
    "key_name": "Methyl 4-methoxy-β-oxobenzenepropanoate",
    "cn_name": "3-(4-甲氧基苯基)-3-氧代丙酸甲酯;",
    "alternate_name": "Benzenepropanoic acid, 4-methoxy-β-oxo-, methyl ester;Acetic acid, <em>p</em>-anisoyl-, methyl ester;Methyl 4-methoxy-β-oxobenzenepropanoate;Methyl 3-(4-methoxyphenyl)-3-oxopropionate;Methyl (4-methoxybenzoyl)acetate;(4-Methoxybenzoyl)acetic acid methyl ester;3-Oxo-3-(4-methoxyphenyl)propionic acid methyl ester;3-(4-Methoxyphenyl)-3-oxopropanoic acid methyl ester;Methyl 3-(4-methoxyphenyl)-3-oxopropanoate;Methyl 3-oxo-3-(4-methoxyphenyl)propanoate;3-(4-Methoxyphenyl)-3-oxo-propionic acid methyl ester",
    "duplicated_cas_no": "",
    "SMILES": "C(CC(OC)=O)(=O)C1=CC=C(OC)C=C1",
    "meta_data": {
        "InChI": "InChI=1S/C11H12O4/c1-14-9-5-3-8(4-6-9)10(12)7-11(13)15-2/h3-6H,7H2,1-2H3",
        "InChIKey": null,
        "Canonical SMILES": "O=C(OC)CC(=O)C1=CC=C(OC)C=C1",
        "Molecular Formula": "C<sub>11</sub>H<sub>12</sub>O<sub>4</sub>",
        "Molecular Mass": "208.21",
        "Boiling Point": "147 °C @ Press: 2.5 Torr",
        "Melting Point": "&lt;50 °C"
    }
}