{
    "cas_no": "15307-78-5",
    "key_name": "Diclofenac methyl ester",
    "cn_name": null,
    "alternate_name": "Benzeneacetic acid, 2-[(2,6-dichlorophenyl)amino]-, methyl ester;Acetic acid, [<em>o</em>-(2,6-dichloroanilino)phenyl]-, methyl ester;[<em>o</em>-(2,6-Dichloroanilino)phenyl]acetic acid methyl ester;Methyl 2-(2,6-dichloroanilino)phenylacetate;Diclofenac methyl ester;2-[2-(2,6-Dichloroanilino)phenyl]acetate",
    "duplicated_cas_no": "",
    "SMILES": "N(C1=C(CC(OC)=O)C=CC=C1)C2=C(Cl)C=CC=C2Cl",
    "meta_data": {
        "InChI": "InChI=1S/C15H13Cl2NO2/c1-20-14(19)9-10-5-2-3-8-13(10)18-15-11(16)6-4-7-12(15)17/h2-8,18H,9H2,1H3",
        "InChIKey": null,
        "Canonical SMILES": "O=C(OC)CC=1C=CC=CC1NC=2C(Cl)=CC=CC2Cl",
        "Molecular Formula": "C<sub>15</sub>H<sub>13</sub>Cl<sub>2</sub>NO<sub>2</sub>",
        "Molecular Mass": "310.18",
        "Melting Point": "101-102 °C"
    }
}