{
    "cas_no": "369-36-8",
    "key_name": "2-Fluoro-5-nitrobenzenamine",
    "cn_name": "2-氟-5-硝基苯胺;",
    "alternate_name": "Benzenamine, 2-fluoro-5-nitro-;Aniline, 2-fluoro-5-nitro-;2-Fluoro-5-nitrobenzenamine;2-Fluoro-5-nitroaniline;1-Amino-2-fluoro-5-nitrobenzene;6-Fluoro-3-nitroaniline;NSC 51768;2-Fluoro-5-nitrophenylamine",
    "duplicated_cas_no": "",
    "SMILES": "N(=O)(=O)C1=CC(N)=C(F)C=C1",
    "meta_data": {
        "InChI": "InChI=1S/C6H5FN2O2/c7-5-2-1-4(9(10)11)3-6(5)8/h1-3H,8H2",
        "InChIKey": null,
        "Canonical SMILES": "O=N(=O)C1=CC=C(F)C(N)=C1",
        "Molecular Formula": "C<sub>6</sub>H<sub>5</sub>FN<sub>2</sub>O<sub>2</sub>",
        "Molecular Mass": "156.11",
        "Melting Point": "101.5 °C"
    }
}