{
    "cas_no": "16013-85-7",
    "key_name": "2,6-Dichloro-3-nitropyridine",
    "cn_name": "2,6-二氯-3-硝基吡啶;",
    "alternate_name": "Pyridine, 2,6-dichloro-3-nitro-;2,6-Dichloro-3-nitropyridine",
    "duplicated_cas_no": "",
    "SMILES": "N(=O)(=O)C1=C(Cl)N=C(Cl)C=C1",
    "meta_data": {
        "InChI": "InChI=1S/C5H2Cl2N2O2/c6-4-2-1-3(9(10)11)5(7)8-4/h1-2H",
        "InChIKey": null,
        "Canonical SMILES": "O=N(=O)C1=CC=C(Cl)N=C1Cl",
        "Molecular Formula": "C<sub>5</sub>H<sub>2</sub>Cl<sub>2</sub>N<sub>2</sub>O<sub>2</sub>",
        "Molecular Mass": "192.99",
        "Melting Point": "53-55 °C"
    }
}