{
    "cas_no": "125-52-0",
    "key_name": "Oxyphencyclimine hydrochloride",
    "cn_name": null,
    "alternate_name": "Benzeneacetic acid, α-cyclohexyl-α-hydroxy-, (1,4,5,6-tetrahydro-1-methyl-2-pyrimidinyl)methyl ester, hydrochloride (1:1);Cyclohexaneglycolic acid, α-phenyl-, (1,4,5,6-tetrahydro-1-methyl-2-pyrimidinyl)methyl ester monohydrochloride;Benzeneacetic acid, α-cyclohexyl-α-hydroxy-, (1,4,5,6-tetrahydro-1-methyl-2-pyrimidinyl)methyl ester, monohydrochloride;Daricon;Dominil;(1-Methyl-1,4,5,6-tetrahydro-2-pyrimidyl)methyl α-cyclohexyl-α-phenylglycolate hydrochloride;Oxyphencyclimine hydrochloride;Setrol;Ulcociclinina;Oximin;Vio-Thene;Daricol;S 1-1236;Enterex;Syklifen;(±)-Oxyphencyclimine hydrochloride;NSC 528449;(1-Methyl-1,4,5,6-tetrahydropyrimidin-2-yl)methyl 2-cyclohexyl-2-hydroxy-2-phenylacetate hydrochloride",
    "duplicated_cas_no": "108643-63-6;21609-10-9",
    "SMILES": "C(C(OCC=1N(C)CCCN1)=O)(O)(C2CCCCC2)C3=CC=CC=C3.Cl",
    "meta_data": {
        "InChI": "InChI=1S/C20H28N2O3.ClH/c1-22-14-8-13-21-18(22)15-25-19(23)20(24,16-9-4-2-5-10-16)17-11-6-3-7-12-17;/h2,4-5,9-10,17,24H,3,6-8,11-15H2,1H3;1H",
        "InChIKey": null,
        "Canonical SMILES": "Cl.O=C(OCC1=NCCCN1C)C(O)(C=2C=CC=CC2)C3CCCCC3",
        "Molecular Formula": "C<sub>20</sub>H<sub>28</sub>N<sub>2</sub>O<sub>3</sub>.ClH",
        "Molecular Mass": "",
        "Melting Point": "231-232 °C (decomp)"
    }
}