{
    "cas_no": "1056634-68-4",
    "key_name": "Momelotinib",
    "cn_name": null,
    "alternate_name": "Benzamide, <em>N</em>-(cyanomethyl)-4-[2-[[4-(4-morpholinyl)phenyl]amino]-4-pyrimidinyl]-;<em>N</em>-(Cyanomethyl)-4-[2-[[4-(4-morpholinyl)phenyl]amino]-4-pyrimidinyl]benzamide;CYT 387;Momelotinib;CYT 11387;CYT-0387;GS 0387;<em>N</em>-(Cyanomethyl)-4-[2-(4-morpholinoanilino)pyrimidin-4-yl]benzamide;CYT 387 mesylate",
    "duplicated_cas_no": "1160597-06-7",
    "SMILES": "N(C=1N=C(C2=CC=C(C(NCC#N)=O)C=C2)C=CN1)C3=CC=C(C=C3)N4CCOCC4",
    "meta_data": {
        "InChI": "InChI=1S/C23H22N6O2/c24-10-12-25-22(30)18-3-1-17(2-4-18)21-9-11-26-23(28-21)27-19-5-7-20(8-6-19)29-13-15-31-16-14-29/h1-9,11H,12-16H2,(H,25,30)(H,26,27,28)",
        "InChIKey": null,
        "Canonical SMILES": "N#CCNC(=O)C=1C=CC(=CC1)C2=NC(=NC=C2)NC3=CC=C(C=C3)N4CCOCC4",
        "Molecular Formula": "C<sub>23</sub>H<sub>22</sub>N<sub>6</sub>O<sub>2</sub>",
        "Molecular Mass": "414.46",
        "Melting Point": "232-234 °C"
    }
}