{
    "cas_no": "838-07-3",
    "key_name": "5-Methyl-2′-deoxycytidine",
    "cn_name": "5-甲基-2\"-脱氧胞苷;5-甲基-2\"-脱氧胞嘧啶核苷;",
    "alternate_name": "Cytidine, 2′-deoxy-5-methyl-;2′-Deoxy-5-methylcytidine;5-Methyl-2′-deoxycytidine;5-Methyldeoxycytidine;2′-Deoxy-5′-methylcytidine",
    "duplicated_cas_no": "1867-19-2",
    "SMILES": "O=C1N([C@@H]2O[C@H](CO)[C@@H](O)C2)C=C(C)C(N)=N1",
    "meta_data": {
        "InChI": "InChI=1S/C10H15N3O4/c1-5-3-13(10(16)12-9(5)11)8-2-6(15)7(4-14)17-8/h3,6-8,14-15H,2,4H2,1H3,(H2,11,12,16)/t6-,7+,8+/m0/s1",
        "InChIKey": null,
        "Canonical SMILES": "O=C1N=C(N)C(=CN1C2OC(CO)C(O)C2)C",
        "Molecular Formula": "C<sub>10</sub>H<sub>15</sub>N<sub>3</sub>O<sub>4</sub>",
        "Molecular Mass": "241.24",
        "Melting Point": "198-199 °C"
    }
}