{
    "cas_no": "12027-38-2",
    "key_name": "12-Tungstosilicic acid",
    "cn_name": "硅钨酸;",
    "alternate_name": "Tungstate(4-), [μ<sub>12</sub>-[orthosilicato(4-)-κ<em>O</em>:κ<em>O</em>:κ<em>O</em>:κ<em>O</em>′:κ<em>O</em>′:κ<em>O</em>′:κ<em>O</em>′′:κ<em>O</em>′′:κ<em>O</em>′′:κ<em>O</em>′′′:κ<em>O</em>′′′:κ<em>O</em>′′′]]tetracosa-μ-oxododecaoxododeca-, hydrogen (1:4);Tungstosilicic acid (H<sub>4</sub>SiW<sub>12</sub>O<sub>40</sub>);Tungstate(4-), [μ<sub>12</sub>-[orthosilicato(4-)-<em>O</em>:<em>O</em>:<em>O</em>:<em>O</em>′:<em>O</em>′:<em>O</em>′:<em>O</em>′′:<em>O</em>′′:<em>O</em>′′:<em>O</em>′′′:<em>O</em>′′′:<em>O</em>′′′]]tetracosa-μ-oxododecaoxododeca-, tetrahydrogen;Silicotungstic acid (H<sub>4</sub>SiW<sub>12</sub>O<sub>40</sub>);Tungstate(4-), [μ<sub>12</sub>-[orthosilicato(4-)-κ<em>O</em>:κ<em>O</em>:κ<em>O</em>:κ<em>O</em>′:κ<em>O</em>′:κ<em>O</em>′:κ<em>O</em>′′:κ<em>O</em>′′:κ<em>O</em>′′:κ<em>O</em>′′′:κ<em>O</em>′′′:κ<em>O</em>′′′]]tetracosa-μ-oxododecaoxododeca-, tetrahydrogen;Silicic acid (H<sub>4</sub>SiO<sub>4</sub>), tungsten complex;12-Tungstosilicic acid;Tungsten oxide silicide (W<sub>12</sub>O<sub>38</sub>Si);Silicotungstic acid;JM 1493;PM 92;Tungstosilicic acid (H<sub>4</sub>W<sub>12</sub>SiO<sub>40</sub>);12-Tungstosilicic acid (H<sub>4</sub>W<sub>12</sub>O<sub>40</sub>Si);Dodecatungstosilicic acid (H<sub>4</sub>SiW<sub>12</sub>O<sub>40</sub>);Tungsten hydroxide oxide silicate (W<sub>12</sub>(OH)<sub>4</sub>O<sub>32</sub>(SiO<sub>4</sub>));NSW 40",
    "duplicated_cas_no": "1314-79-0;11130-20-4;12259-36-8;12440-38-9;12520-88-6;66565-88-6;66580-80-1;66828-55-5;66828-75-9;618454-66-3;1415469-52-1;1527481-42-0",
    "SMILES": "O=[W+4]1234[O-]56[Si]78[O-]9%10[W+4]%11%12(=O)([O-2]1)[O-2][W+4]%13%14(=O)([O-]7%15[W+4]%16%17(=O)([O-2][W+4]9%18(=O)([O-2]%11)[O-2][W+4]%10%19(=O)([O-2][W+4]5%20(=O)([O-2]2)[O-2][W+4]6%21(=O)([O-2]3)[O-2][W+4]%15(=O)([O-2]%13)([O-2]%16)[O-2][W+4]%22%23(=O)([O-]8%24[W+4](=O)([O-2]%18)([O-2]%17)([O-2][W+4]%24(=O)([O-2]%20)([O-2]%19)[O-2]%22)[O-2]%23)[O-2]%21)[O-2]%12)[O-2]%14)[O-2]4.[H+]",
    "meta_data": {
        "InChI": "InChI=1S/O4Si.36O.12W/c1-5(2,3)4;;;;;;;;;;;;;;;;;;;;;;;;;;;;;;;;;;;;;;;;;;;;;;;;/q-4;;;;;;;;;;;;;24*-2;12*+4/p+4",
        "InChIKey": null,
        "Canonical SMILES": "[H+].O=[W+4]1234[O-2][W+4]567(=O)[O-2][W+4]89(=O)([O-2]1)[O-2][W+4]%10%11%12(=O)[O-2][W+4]%13%14(=O)([O-2]2)[O-2][W+4]%15%16(=O)([O-2]3)[O-2][W+4]%17%18(=O)([O-2]5)[O-2][W+4]%19%20(=O)([O-2]6)[O-2][W+4]%21(=O)([O-2]8)([O-2]%10)[O-2][W+4]%22%23(=O)([O-2]%19)[O-2][W+4]%24(=O)([O-2]%15)([O-2]%17)[O-2][W+4](=O)([O-2]%13)([O-2]%11)([O-2]%22)[O-]%14%12[Si]([O-]479)([O-]%16%18%24)[O-]%20%21%23",
        "Molecular Formula": "H.<sup>1</sup>/<sub>4</sub>O<sub>40</sub>SiW<sub>12</sub>",
        "Molecular Mass": "",
        "Boiling Point": "210-220 °C @ Press: 1-2 Torr",
        "Density": "2.099 g/cm³"
    }
}