{
    "cas_no": "28611-39-4",
    "key_name": "4-(Dimethylamino)phenylboronic acid",
    "cn_name": "4-二甲基氨基苯硼酸盐;",
    "alternate_name": "Boronic acid, <em>B</em>-[4-(dimethylamino)phenyl]-;Benzeneboronic acid, <em>p</em>-(dimethylamino)-;Boronic acid, [4-(dimethylamino)phenyl]-;<em>B</em>-[4-(Dimethylamino)phenyl]boronic acid;4-(Dimethylamino)phenylboronic acid;[4-(Dimethylamino)phenyl]boric acid;4-(<em>N</em>,<em>N</em>-Dimethylamino)phenylboronic acid;4-<em>N</em>,<em>N</em>-Dimethylaminobenzeneboronic acid;4-Dimethylaminobenzeneboronic acid;4-<em>N</em>,<em>N</em>-Dimethylphenylboronic acid;[4-(Dimethylamino)phenyl-1-yl]boronic acid",
    "duplicated_cas_no": "1179813-61-6",
    "SMILES": "B(O)(O)C1=CC=C(N(C)C)C=C1",
    "meta_data": {
        "InChI": "InChI=1S/C8H12BNO2/c1-10(2)8-5-3-7(4-6-8)9(11)12/h3-6,11-12H,1-2H3",
        "InChIKey": null,
        "Canonical SMILES": "OB(O)C1=CC=C(C=C1)N(C)C",
        "Molecular Formula": "C<sub>8</sub>H<sub>12</sub>BNO<sub>2</sub>",
        "Molecular Mass": "165.00",
        "Melting Point": "243-245 °C (decomp)"
    }
}