{
    "cas_no": "24393-52-0",
    "key_name": "Ethyl (2<em>E</em>)-3-(4-chlorophenyl)-2-propenoate",
    "cn_name": null,
    "alternate_name": "2-Propenoic acid, 3-(4-chlorophenyl)-, ethyl ester, (2<em>E</em>)-;Cinnamic acid, <em>p</em>-chloro-, ethyl ester, (<em>E</em>)-;2-Propenoic acid, 3-(4-chlorophenyl)-, ethyl ester, (<em>E</em>)-;Ethyl (2<em>E</em>)-3-(4-chlorophenyl)-2-propenoate;Ethyl (<em>E</em>)-3-(4-chlorophenyl)-2-propenoate;Ethyl (<em>E</em>)-<em>p</em>-chlorocinnamate;Ethyl (<em>E</em>)-3-(<em>p</em>-chlorophenyl)-2-propenoate;(<em>E</em>)-Ethyl 4-chlorocinnamate;(2<em>E</em>)-3-(4-Chlorophenyl)-2-propenoic acid ethyl ester;Ethyl (2<em>E</em>)-3-(4-chlorophenyl)prop-2-enoate;Ethyl <em>trans</em>-4-chlorocinnamate",
    "duplicated_cas_no": "",
    "SMILES": "C(=C/C(OCC)=O)\\C1=CC=C(Cl)C=C1",
    "meta_data": {
        "InChI": "InChI=1S/C11H11ClO2/c1-2-14-11(13)8-5-9-3-6-10(12)7-4-9/h3-8H,2H2,1H3/b8-5+",
        "InChIKey": null,
        "Canonical SMILES": "O=C(OCC)C=CC1=CC=C(Cl)C=C1",
        "Molecular Formula": "C<sub>11</sub>H<sub>11</sub>ClO<sub>2</sub>",
        "Molecular Mass": "210.66",
        "Boiling Point": "136-137 °C @ Press: 0.8 Torr",
        "Melting Point": "49-51 °C"
    }
}