{
    "cas_no": "24353-61-5",
    "key_name": "Isocarbophos",
    "cn_name": "水胺硫磷;O-甲基-O-(2-异丙氧基羧基苯基)硫代磷酰胺;",
    "alternate_name": "Benzoic acid, 2-[(aminomethoxyphosphinothioyl)oxy]-, 1-methylethyl ester;Salicylic acid, isopropyl ester, <em>O</em>-ester with <em>O</em>-methyl phosphoramidothioate;Phosphoramidothioic acid, <em>O</em>-methyl ester, <em>O</em>-ester with isopropyl salicylate;BAY 93820;Optunal;Isocarbophos;Isocarbofos;Isopropyl <em>O</em>-(methoxyaminothiophosphoryl) salicylate",
    "duplicated_cas_no": "39284-27-0",
    "SMILES": "O(P(OC)(N)=S)C1=C(C(OC(C)C)=O)C=CC=C1",
    "meta_data": {
        "InChI": "InChI=1S/C11H16NO4PS/c1-8(2)15-11(13)9-6-4-5-7-10(9)16-17(12,18)14-3/h4-8H,1-3H3,(H2,12,18)",
        "InChIKey": null,
        "Canonical SMILES": "O=C(OC(C)C)C=1C=CC=CC1OP(=S)(OC)N",
        "Molecular Formula": "C<sub>11</sub>H<sub>16</sub>NO<sub>4</sub>PS",
        "Molecular Mass": "289.29",
        "Melting Point": "44 °C"
    }
}