{
    "cas_no": "2044-88-4",
    "key_name": "<em>N</em>-Methyl-2,4-dinitroaniline",
    "cn_name": null,
    "alternate_name": "Benzenamine, <em>N</em>-methyl-2,4-dinitro-;Aniline, <em>N</em>-methyl-2,4-dinitro-;<em>N</em>-Methyl-2,4-dinitrobenzenamine;<em>N</em>-Methyl-2,4-dinitroaniline;(2,4-Dinitrophenyl)methylamine;2,4-Dinitro-<em>N</em>-methylaniline;1-(Methylamino)-2,4-dinitrobenzene;NSC 36958",
    "duplicated_cas_no": "",
    "SMILES": "N(=O)(=O)C1=C(NC)C=CC(N(=O)=O)=C1",
    "meta_data": {
        "InChI": "InChI=1S/C7H7N3O4/c1-8-6-3-2-5(9(11)12)4-7(6)10(13)14/h2-4,8H,1H3",
        "InChIKey": null,
        "Canonical SMILES": "O=N(=O)C1=CC=C(NC)C(=C1)N(=O)=O",
        "Molecular Formula": "C<sub>7</sub>H<sub>7</sub>N<sub>3</sub>O<sub>4</sub>",
        "Molecular Mass": "197.15",
        "Melting Point": "175-176 °C"
    }
}