{
    "cas_no": "41575-94-4",
    "key_name": "Carboplatin",
    "cn_name": "卡铂;顺式-1,1-环丁烷二羧酸二氨铂;",
    "alternate_name": "Platinum, diammine[1,1-cyclobutanedicarboxylato(2-)-κ<em>O</em>,κ<em>O</em>′′]-, (<em>SP</em>-4-2)-;Platinum, diammine[1,1-cyclobutanedi(carboxylato-κ<em>O</em>)(2-)]-, (<em>SP</em>-4-2)-;1,1-Cyclobutanedicarboxylic acid, platinum complex;(<em>SP</em>-4-2)-Diammine[1,1-cyclobutanedicarboxylato(2-)-κ<em>O</em>,κ<em>O</em>′′]platinum;<em>cis</em>-Diammine[1,1-cyclobutanedicarboxylato(2-)]platinum;JM 8;<em>cis</em>-Diammine(1,1-cyclobutanedicarboxylato)platinum(II);NSC 241240;<em>cis</em>-Diammine(1,1-cyclobutanedicarboxylato)platinum;CBDCA;<em>cis</em>-Diammineplatinum 1,1-cyclobutanedicarboxylate;Paraplatin;Carboplatinum;Ribocarbo L;Carboplatin;NSC 201345;Carbosin;Cycloplatin;Carbomedac;<em>cis</em>-Diammine(cyclobutane-1,1-dicarboxylate-O,O′)platinum(II);Paraplat;MeSH ID: D016190",
    "duplicated_cas_no": "110681-25-9;70903-55-8;936543-00-9",
    "SMILES": "O=C1C2(C(=O)[O-][Pt+2]([NH3])([NH3])[O-]1)CCC2",
    "meta_data": {
        "InChI": "InChI=1S/C6H8O4.2H3N.Pt/c7-4(8)6(5(9)10)2-1-3-6;;;/h1-3H2,(H,7,8)(H,9,10);2*1H3;/q;;;+2/p-2",
        "InChIKey": null,
        "Canonical SMILES": "O=C1[O-][Pt+2]([O-]C(=O)C12CCC2)([NH3])[NH3]",
        "Molecular Formula": "C<sub>6</sub>H<sub>12</sub>N<sub>2</sub>O<sub>4</sub>Pt",
        "Molecular Mass": "",
        "Melting Point": "217 °C"
    }
}