{
    "cas_no": "81-60-7",
    "key_name": "1,4,5,8-Tetrahydroxy-9,10-anthracenedione",
    "cn_name": null,
    "alternate_name": "9,10-Anthracenedione, 1,4,5,8-tetrahydroxy-;Anthraquinone, 1,4,5,8-tetrahydroxy-;1,4,5,8-Tetrahydroxy-9,10-anthracenedione;1,4,5,8-Tetrahydroxyanthraquinone;1,4,5,8-Tetrahydroxy-9,10-anthraquinone;NSC 401144",
    "duplicated_cas_no": "",
    "SMILES": "O=C1C=2C(C(=O)C=3C1=C(O)C=CC3O)=C(O)C=CC2O",
    "meta_data": {
        "InChI": "InChI=1S/C14H8O6/c15-5-1-2-6(16)10-9(5)13(19)11-7(17)3-4-8(18)12(11)14(10)20/h1-4,15-18H",
        "InChIKey": null,
        "Canonical SMILES": "O=C1C=2C(O)=CC=C(O)C2C(=O)C=3C(O)=CC=C(O)C13",
        "Molecular Formula": "C<sub>14</sub>H<sub>8</sub>O<sub>6</sub>",
        "Molecular Mass": "272.21",
        "Melting Point": "246 °C"
    }
}