{
    "cas_no": "25791-20-2",
    "key_name": "Tetradecyltriphenylphosphonium bromide",
    "cn_name": "(1-十四烷基)三苯基溴化磷;",
    "alternate_name": "Phosphonium, triphenyltetradecyl-, bromide (1:1);Phosphonium, triphenyltetradecyl-, bromide;Triphenyltetradecylphosphonium bromide;Tetradecyltriphenylphosphonium bromide;TDTPPB;Myristyltriphenyl phosphonium bromide",
    "duplicated_cas_no": "",
    "SMILES": "[P+](CCCCCCCCCCCCCC)(C1=CC=CC=C1)(C2=CC=CC=C2)C3=CC=CC=C3.[Br-]",
    "meta_data": {
        "InChI": "InChI=1S/C32H44P.BrH/c1-2-3-4-5-6-7-8-9-10-11-12-22-29-33(30-23-16-13-17-24-30,31-25-18-14-19-26-31)32-27-20-15-21-28-32;/h13-21,23-28H,2-12,22,29H2,1H3;1H/q+1;/p-1",
        "InChIKey": null,
        "Canonical SMILES": "[Br-].C=1C=CC(=CC1)[P+](C=2C=CC=CC2)(C=3C=CC=CC3)CCCCCCCCCCCCCC",
        "Molecular Formula": "C<sub>32</sub>H<sub>44</sub>P.Br",
        "Molecular Mass": "",
        "Melting Point": "97 °C"
    }
}