{
    "cas_no": "6262-51-7",
    "key_name": "1,1,2,2,3-Pentachlorocyclopropane",
    "cn_name": "五氯环丙烷;",
    "alternate_name": "Cyclopropane, 1,1,2,2,3-pentachloro-;Cyclopropane, pentachloro-;1,1,2,2,3-Pentachlorocyclopropane;Pentachlorocyclopropane;NSC 139996",
    "duplicated_cas_no": "",
    "SMILES": "ClC1(Cl)C(Cl)(Cl)C1Cl",
    "meta_data": {
        "InChI": "InChI=1S/C3HCl5/c4-1-2(5,6)3(1,7)8/h1H",
        "InChIKey": null,
        "Canonical SMILES": "ClC1C(Cl)(Cl)C1(Cl)Cl",
        "Molecular Formula": "C<sub>3</sub>HCl<sub>5</sub>",
        "Molecular Mass": "214.30",
        "Boiling Point": "55.5-56.0 °C @ Press: 7 Torr"
    }
}