{
    "cas_no": "230-17-1",
    "key_name": "Benzo[<em>c</em>]cinnoline",
    "cn_name": "苯并[c]噌啉;",
    "alternate_name": "Benzo[<em>c</em>]cinnoline;9,10-Diazaphenanthrene;Diphenylenazone;3,4-Benzocinnoline;Phenazone (three-ring system);5,6-Phenanthroline;2,2′-Azobiphenyl;Phenazone;5,6-Diazaphenanthrene;NSC 86935",
    "duplicated_cas_no": "",
    "SMILES": "C12=C3C(=NN=C1C=CC=C2)C=CC=C3",
    "meta_data": {
        "InChI": "InChI=1S/C12H8N2/c1-3-7-11-9(5-1)10-6-2-4-8-12(10)14-13-11/h1-8H",
        "InChIKey": null,
        "Canonical SMILES": "N1=NC2=CC=CC=C2C3=CC=CC=C13",
        "Molecular Formula": "C<sub>12</sub>H<sub>8</sub>N<sub>2</sub>",
        "Molecular Mass": "180.21",
        "Melting Point": "158 °C",
        "Density": "1.307 g/cm³ @ Temp: 20 °C"
    }
}