{
    "cas_no": "299-11-6",
    "key_name": "Phenazine methosulfate",
    "cn_name": "5-甲基吩嗪硫酸甲酯;N-甲基吩嗪甲基硫酸盐;吩嗪二甲酯硫酸盐;",
    "alternate_name": "Phenazinium, 5-methyl-, methyl sulfate (1:1);5-Methylphenazinium methyl sulfate;Phenazinium, 5-methyl-, methyl sulfate;<em>N</em>-Methylphenazonium methosulfate;Phenazine methosulfate;PMS;<em>N</em>-Methylphenazinium methosulfate;<em>N</em>-Methylphenazonium methosulphate;5-<em>N</em>-Methylphenazonium methosulfate;<em>N</em>-Methylphenazinium methyl sulfate;Phenazine methosulphate;PMS (pharmaceutical);NSC 34661;9-Methylphenazinium methyl sulfate;<em>N</em>-Methylphenazine methosulfate",
    "duplicated_cas_no": "3130-59-4",
    "SMILES": "S(OC)(=O)(=O)[O-].C[N+]=1C2=C(N=C3C1C=CC=C3)C=CC=C2",
    "meta_data": {
        "InChI": "InChI=1S/C13H11N2.CH4O4S/c1-15-12-8-4-2-6-10(12)14-11-7-3-5-9-13(11)15;1-5-6(2,3)4/h2-9H,1H3;1H3,(H,2,3,4)/q+1;/p-1",
        "InChIKey": null,
        "Canonical SMILES": "O=S(=O)([O-])OC.N=1C=2C=CC=CC2[N+](=C3C=CC=CC13)C",
        "Molecular Formula": "C<sub>13</sub>H<sub>11</sub>N<sub>2</sub>.CH<sub>3</sub>O<sub>4</sub>S",
        "Molecular Mass": "",
        "Melting Point": "157 °C"
    }
}