{
    "cas_no": "6602-54-6",
    "key_name": "2-Chloro-3-cyanopyridine",
    "cn_name": "2-氯-3-氰基吡啶;",
    "alternate_name": "3-Pyridinecarbonitrile, 2-chloro-;Nicotinonitrile, 2-chloro-;2-Chloro-3-pyridinecarbonitrile;2-Chloro-3-cyanopyridine;2-Chloronicotinonitrile;3-Cyano-2-chloropyridine;NSC 73287",
    "duplicated_cas_no": "",
    "SMILES": "C(#N)C1=C(Cl)N=CC=C1",
    "meta_data": {
        "InChI": "InChI=1S/C6H3ClN2/c7-6-5(4-8)2-1-3-9-6/h1-3H",
        "InChIKey": null,
        "Canonical SMILES": "N#CC1=CC=CN=C1Cl",
        "Molecular Formula": "C<sub>6</sub>H<sub>3</sub>ClN<sub>2</sub>",
        "Molecular Mass": "138.55",
        "Melting Point": "103-105 °C"
    }
}