{
    "cas_no": "401-58-1",
    "key_name": "Ethyl 2-fluoro-2-iodoacetate",
    "cn_name": null,
    "alternate_name": "Acetic acid, 2-fluoro-2-iodo-, ethyl ester;Acetic acid, fluoroiodo-, ethyl ester;Ethyl 2-fluoro-2-iodoacetate;Ethyl fluoroiodoacetate;Ethyl iodofluoroacetate",
    "duplicated_cas_no": "",
    "SMILES": "C(OCC)(C(F)I)=O",
    "meta_data": {
        "InChI": "InChI=1S/C4H6FIO2/c1-2-8-4(7)3(5)6/h3H,2H2,1H3",
        "InChIKey": null,
        "Canonical SMILES": "O=C(OCC)C(F)I",
        "Molecular Formula": "C<sub>4</sub>H<sub>6</sub>FIO<sub>2</sub>",
        "Molecular Mass": "231.99",
        "Boiling Point": "70 °C @ Press: 14 Torr"
    }
}