{
    "cas_no": "3141-12-6",
    "key_name": "Triethoxyarsine",
    "cn_name": "乙氧基砷;",
    "alternate_name": "Arsenous acid, triethyl ester;Arsenious acid (H<sub>3</sub>AsO<sub>3</sub>), triethyl ester;Ethyl arsenite;Triethoxyarsine;Triethyl arsenite;Triethoxyarsenic;Arsenic ethoxide",
    "duplicated_cas_no": "",
    "SMILES": "[As](OCC)(OCC)OCC",
    "meta_data": {
        "InChI": "InChI=1S/C6H15AsO3/c1-4-8-7(9-5-2)10-6-3/h4-6H2,1-3H3",
        "InChIKey": null,
        "Canonical SMILES": "O([As](OCC)OCC)CC",
        "Molecular Formula": "C<sub>6</sub>H<sub>15</sub>AsO<sub>3</sub>",
        "Molecular Mass": "210.10",
        "Boiling Point": "165.5 °C",
        "Density": "1.210 g/cm³"
    }
}