{
    "cas_no": "332-43-4",
    "key_name": "1-(2-Chloroethyl)-4-fluorobenzene",
    "cn_name": "1-(2-氯乙基)-4-氟苯;",
    "alternate_name": "Benzene, 1-(2-chloroethyl)-4-fluoro-;1-(2-Chloroethyl)-4-fluorobenzene;4-Fluorophenethyl chloride;<em>p</em>-Fluorophenethyl chloride",
    "duplicated_cas_no": "",
    "SMILES": "C(CCl)C1=CC=C(F)C=C1",
    "meta_data": {
        "InChI": "InChI=1S/C8H8ClF/c9-6-5-7-1-3-8(10)4-2-7/h1-4H,5-6H2",
        "InChIKey": null,
        "Canonical SMILES": "FC1=CC=C(C=C1)CCCl",
        "Molecular Formula": "C<sub>8</sub>H<sub>8</sub>ClF",
        "Molecular Mass": "158.60",
        "Boiling Point": "80 °C @ Press: 30 Torr"
    }
}