{
    "cas_no": "50-23-7",
    "key_name": "Cortisol",
    "cn_name": "氢化可的松;",
    "alternate_name": "Pregn-4-ene-3,20-dione, 11,17,21-trihydroxy-, (11β)-;Cortisol;(11β)-11,17,21-Trihydroxypregn-4-ene-3,20-dione;NSC 10483;Anti-inflammatory hormone;Cobadex;Cort-Dome;Cortef;Cortifan;Cortispray;Cortonema;Cortril;Efcorbin;Ficortril;Genacort;HC;Heb-Cort;Hycort;Hycortol;Hycortole;Hydro-Adreson;Hidro-Colisona;Hydrocortisone;Hydrocortisyl;Hydrocortone;17-Hydroxycorticosterone;11β-Hydroxycortisone;Hytone lotion;Incortin-H;Kendall's compound F;Optef;Otosone-F;Permicort;4-Pregnene-11β,17α,21-triol-3,20-dione;Reichstein's substance M;Scheroson F;Tarcortin;Texacort lotion 25;Topicort;Traumaide;11β,17α,21-Trihydroxypregn-4-ene-3,20-dione;11β,17,21-Trihydroxypregn-4-ene-3,20-dione;17α-Hydroxycorticosterone;Domolene-HC;Esiderm H;Epiderm H;Corticreme;Cortiment;Cortanal;Hydrasson;Cortenema;Signef;Hydrocorticosterone;Dihydrocostisone;Polcort H;Efcortelan;Hydrocortal;11β,17,21-Trihydroxyprogesterone;Dermolate;Hytone;U 1851;Hydroskin;CCN 90306A;Acticort;Nutracort;Ala-Cort;Lacticare HC;Zenoxone;Dermacort;Medicort;Synacort;Dioderm;Eldecort;Evacort;Hydracort;Texacort;Penecort;Anflam;CaldeCort Spray;Dermocortal;Timocort;Cetacort;Aeroseb HC;Mildison;Hydrocort;Sanatison;DuoCort;Scalpicin;Hydrocortin;Infacort;Plenadren;Alkindi;29: PN: US20220380460 SEQID: 30 claimed sequence;MeSH ID: D006854",
    "duplicated_cas_no": "8056-08-4;8063-42-1;80562-38-5;1050676-88-4;1436392-18-5",
    "SMILES": "C[C@@]12[C@]([C@]3([C@@]([C@]4(C)C(CC3)=CC(=O)CC4)([C@@H](O)C1)[H])[H])(CC[C@@]2(C(CO)=O)O)[H]",
    "meta_data": {
        "InChI": "InChI=1S/C21H30O5/c1-19-7-5-13(23)9-12(19)3-4-14-15-6-8-21(26,17(25)11-22)20(15,2)10-16(24)18(14)19/h9,14-16,18,22,24,26H,3-8,10-11H2,1-2H3/t14-,15-,16-,18+,19-,20-,21-/m0/s1",
        "InChIKey": null,
        "Canonical SMILES": "O=C1C=C2CCC3C4CCC(O)(C(=O)CO)C4(C)CC(O)C3C2(C)CC1",
        "Molecular Formula": "C<sub>21</sub>H<sub>30</sub>O<sub>5</sub>",
        "Molecular Mass": "362.46",
        "Melting Point": "217-220 °C (decomp)",
        "Density": "1.4 g/cm³"
    }
}