{
    "cas_no": "2116-84-9",
    "key_name": "Phenyltris(trimethylsiloxy)silane",
    "cn_name": "苯基三(三甲基硅氧烷基)硅烷;",
    "alternate_name": "Trisiloxane, 1,1,1,5,5,5-hexamethyl-3-phenyl-3-[(trimethylsilyl)oxy]-;Trisiloxane, 1,1,1,5,5,5-hexamethyl-3-phenyl-3-(trimethylsiloxy)-;1,1,1,5,5,5-Hexamethyl-3-phenyl-3-[(trimethylsilyl)oxy]trisiloxane;Phenyltris(trimethylsiloxy)silane;Dow Corning 556;Tris(trimethylsiloxy)phenylsilane;Silicone DC 556;Dow Corning 556 Fluid;DC 556;1,1,1,5,5,5-Hexamethyl-3-phenyl-3-(trimethylsilyloxy)trisiloxane;Dow 556 Fluid;PD 5;PD 5 silicone;Baysilon PD 5",
    "duplicated_cas_no": "9076-37-3",
    "SMILES": "[Si](O[Si](C)(C)C)(O[Si](C)(C)C)(O[Si](C)(C)C)C1=CC=CC=C1",
    "meta_data": {
        "InChI": "InChI=1S/C15H32O3Si4/c1-19(2,3)16-22(17-20(4,5)6,18-21(7,8)9)15-13-11-10-12-14-15/h10-14H,1-9H3",
        "InChIKey": null,
        "Canonical SMILES": "O([Si](O[Si](C)(C)C)(O[Si](C)(C)C)C=1C=CC=CC1)[Si](C)(C)C",
        "Molecular Formula": "C<sub>15</sub>H<sub>32</sub>O<sub>3</sub>Si<sub>4</sub>",
        "Molecular Mass": "372.75",
        "Boiling Point": "264-266 °C",
        "Melting Point": "-102 °C",
        "Density": "0.924 g/cm³"
    }
}