{
    "cas_no": "6317-73-3",
    "key_name": "4-Phenoxybenzophenone",
    "cn_name": "4-苯氧基二苯甲酮;4-苯氧基苯甲酮;",
    "alternate_name": "Methanone, (4-phenoxyphenyl)phenyl-;Benzophenone, 4-phenoxy-;(4-Phenoxyphenyl)phenylmethanone;4-Phenoxybenzophenone;p-Phenoxybenzophenone;<em>p</em>-Phenoxybenzophenone;NSC 43083",
    "duplicated_cas_no": "",
    "SMILES": "C(=O)(C1=CC=C(OC2=CC=CC=C2)C=C1)C3=CC=CC=C3",
    "meta_data": {
        "InChI": "InChI=1S/C19H14O2/c20-19(15-7-3-1-4-8-15)16-11-13-18(14-12-16)21-17-9-5-2-6-10-17/h1-14H",
        "InChIKey": null,
        "Canonical SMILES": "O=C(C=1C=CC=CC1)C2=CC=C(OC=3C=CC=CC3)C=C2",
        "Molecular Formula": "C<sub>19</sub>H<sub>14</sub>O<sub>2</sub>",
        "Molecular Mass": "274.31",
        "Boiling Point": "192-200 °C @ Press: 0.4 Torr",
        "Melting Point": "66 °C"
    }
}