{
    "cas_no": "50534-45-7",
    "key_name": "1-Ethyl-4-piperidinamine",
    "cn_name": null,
    "alternate_name": "4-Piperidinamine, 1-ethyl-;1-Ethyl-4-piperidinamine;4-Amino-1-ethylpiperidine;(1-Ethylpiperidin-4-yl)amine",
    "duplicated_cas_no": "",
    "SMILES": "C(C)N1CCC(N)CC1",
    "meta_data": {
        "InChI": "InChI=1S/C7H16N2/c1-2-9-5-3-7(8)4-6-9/h7H,2-6,8H2,1H3",
        "InChIKey": null,
        "Canonical SMILES": "NC1CCN(CC)CC1",
        "Molecular Formula": "C<sub>7</sub>H<sub>16</sub>N<sub>2</sub>",
        "Molecular Mass": "128.22",
        "Boiling Point": "73 °C @ Press: 16 Torr"
    }
}