{
    "cas_no": "22994-85-0",
    "key_name": "Benznidazole",
    "cn_name": "苄硝唑;",
    "alternate_name": "1<em>H</em>-Imidazole-1-acetamide, 2-nitro-<em>N</em>-(phenylmethyl)-;Imidazole-1-acetamide, <em>N</em>-benzyl-2-nitro-;2-Nitro-<em>N</em>-(phenylmethyl)-1<em>H</em>-imidazole-1-acetamide;Ro 07-1051;Benznidazole;Ro 71051;<em>N</em>-Benzyl-2-nitroimidazol-1-yl-acetamide;Radanil;Benzonidazole;Benzonidazol;Benznidazol;Rochagan;NSC 299972",
    "duplicated_cas_no": "",
    "SMILES": "C(C(NCC1=CC=CC=C1)=O)N2C(N(=O)=O)=NC=C2",
    "meta_data": {
        "InChI": "InChI=1S/C12H12N4O3/c17-11(14-8-10-4-2-1-3-5-10)9-15-7-6-13-12(15)16(18)19/h1-7H,8-9H2,(H,14,17)",
        "InChIKey": null,
        "Canonical SMILES": "O=C(NCC=1C=CC=CC1)CN2C=CN=C2N(=O)=O",
        "Molecular Formula": "C<sub>12</sub>H<sub>12</sub>N<sub>4</sub>O<sub>3</sub>",
        "Molecular Mass": "260.25",
        "Melting Point": "189 °C"
    }
}