{
    "cas_no": "103312-62-5",
    "key_name": "2-[[(4-Chloro-3-methyl-2-pyridinyl)methyl]thio]-1<em>H</em>-benzimidazole",
    "cn_name": null,
    "alternate_name": "1<em>H</em>-Benzimidazole, 2-[[(4-chloro-3-methyl-2-pyridinyl)methyl]thio]-;2-[[(4-Chloro-3-methyl-2-pyridinyl)methyl]thio]-1<em>H</em>-benzimidazole;2-[(4-Chloro-3-Methyl-2-pyridinyl)methylthio]-1<em>H</em>-benzimidazole;2-[[(4-Chloro-3-methyl-2-pyridyl)methyl]thio]-1<em>H</em>-benzimidazole;2-[(4-Chloro-3-methylpyridin-2-yl)methylsulfanyl]-1<em>H</em>-benzimidazole;2-(((4-Chloro-3-methylpyridin-2-yl)methyl)thio)-1<em>H</em>-benzo[<em>d</em>]imidazole",
    "duplicated_cas_no": "",
    "SMILES": "S(CC1=C(C)C(Cl)=CC=N1)C=2NC=3C(N2)=CC=CC3",
    "meta_data": {
        "InChI": "InChI=1S/C14H12ClN3S/c1-9-10(15)6-7-16-13(9)8-19-14-17-11-4-2-3-5-12(11)18-14/h2-7H,8H2,1H3,(H,17,18)",
        "InChIKey": null,
        "Canonical SMILES": "ClC=1C=CN=C(C1C)CSC2=NC=3C=CC=CC3N2",
        "Molecular Formula": "C<sub>14</sub>H<sub>12</sub>ClN<sub>3</sub>S",
        "Molecular Mass": "289.78",
        "Melting Point": "155-159 °C"
    }
}