{
    "cas_no": "4223-03-4",
    "key_name": "<em>tert</em>-Octylacrylamide",
    "cn_name": "N-叔辛基丙烯酰胺;N-(1,1,3,3-四甲基丁基)-2-丙烯酰胺;",
    "alternate_name": "2-Propenamide, <em>N</em>-(1,1,3,3-tetramethylbutyl)-;Acrylamide, <em>N</em>-(1,1,3,3-tetramethylbutyl)-;<em>N</em>-(1,1,3,3-Tetramethylbutyl)-2-propenamide;<em>N</em>-(1,1,3,3-Tetramethylbutyl)acrylamide;NSC 9035;<em>N</em>-<em>tert</em>-Octylacrylamide;<em>tert</em>-Octylacrylamide",
    "duplicated_cas_no": "80874-11-9;174408-72-1;174408-68-5",
    "SMILES": "C(C(NC(C=C)=O)(C)C)C(C)(C)C",
    "meta_data": {
        "InChI": "InChI=1S/C11H21NO/c1-7-9(13)12-11(5,6)8-10(2,3)4/h7H,1,8H2,2-6H3,(H,12,13)",
        "InChIKey": null,
        "Canonical SMILES": "O=C(C=C)NC(C)(C)CC(C)(C)C",
        "Molecular Formula": "C<sub>11</sub>H<sub>21</sub>NO",
        "Molecular Mass": "183.29",
        "Melting Point": "83 °C"
    }
}