{
    "cas_no": "1532-84-9",
    "key_name": "1-Isoquinolinamine",
    "cn_name": "1-氨基异喹啉;",
    "alternate_name": "1-Isoquinolinamine;Isoquinoline, 1-amino-;1-Aminoisoquinoline;Isoquinolin-1-ylamine",
    "duplicated_cas_no": "",
    "SMILES": "NC=1C2=C(C=CN1)C=CC=C2",
    "meta_data": {
        "InChI": "InChI=1S/C9H8N2/c10-9-8-4-2-1-3-7(8)5-6-11-9/h1-6H,(H2,10,11)",
        "InChIKey": null,
        "Canonical SMILES": "N=1C=CC=2C=CC=CC2C1N",
        "Molecular Formula": "C<sub>9</sub>H<sub>8</sub>N<sub>2</sub>",
        "Molecular Mass": "144.17",
        "Melting Point": "122-124 °C"
    }
}