{
    "cas_no": "21256-18-8",
    "key_name": "Oxaprozin",
    "cn_name": "奥沙普秦;恶丙嗪;4,5-二苯基-2-噁唑丙酸;",
    "alternate_name": "2-Oxazolepropanoic acid, 4,5-diphenyl-;2-Oxazolepropionic acid, 4,5-diphenyl-;4,5-Diphenyl-2-oxazolepropanoic acid;β-(4,5-Diphenyloxazol-2-yl)propionic acid;Oxaprozin;4,5-Diphenyl-2-oxazolepropionic acid;Wy 21743;Daypro;Durapro;Alvo;Duraprost;Oxapro;NSC 310839;Actirin;3-(4,5-Diphenyloxazol-2-yl)propionic acid;Oxoprazine;3-(4,5-Diphenyloxazol-2-yl)propanoic acid",
    "duplicated_cas_no": "",
    "SMILES": "C(CC(O)=O)C1=NC(=C(O1)C2=CC=CC=C2)C3=CC=CC=C3",
    "meta_data": {
        "InChI": "InChI=1S/C18H15NO3/c20-16(21)12-11-15-19-17(13-7-3-1-4-8-13)18(22-15)14-9-5-2-6-10-14/h1-10H,11-12H2,(H,20,21)",
        "InChIKey": null,
        "Canonical SMILES": "O=C(O)CCC1=NC(C=2C=CC=CC2)=C(O1)C=3C=CC=CC3",
        "Molecular Formula": "C<sub>18</sub>H<sub>15</sub>NO<sub>3</sub>",
        "Molecular Mass": "293.32",
        "Melting Point": "160.5-161.5 °C"
    }
}