{
    "cas_no": "6321-23-9",
    "key_name": "4-Methylcyclohexylamine",
    "cn_name": null,
    "alternate_name": "Cyclohexanamine, 4-methyl-;Cyclohexylamine, 4-methyl-;4-Methylcyclohexanamine;<em>p</em>-Methylcyclohexylamine;4-Methylcyclohexylamine;NSC 32387;1-Amino-4-methylcyclohexane;4-Methylcyclohexan-1-amine",
    "duplicated_cas_no": "",
    "SMILES": "CC1CCC(N)CC1",
    "meta_data": {
        "InChI": "InChI=1S/C7H15N/c1-6-2-4-7(8)5-3-6/h6-7H,2-5,8H2,1H3",
        "InChIKey": null,
        "Canonical SMILES": "NC1CCC(C)CC1",
        "Molecular Formula": "C<sub>7</sub>H<sub>15</sub>N",
        "Molecular Mass": "113.20",
        "Boiling Point": "148-150 °C",
        "Density": "0.9057 g/cm³ @ Temp: 8 °C"
    }
}