{
    "cas_no": "503-87-7",
    "key_name": "Thiohydantoin",
    "cn_name": "2-硫代乙内酰脲;2-硫代海因;",
    "alternate_name": "4-Imidazolidinone, 2-thioxo-;Hydantoin, 2-thio-;2-Thioxo-4-imidazolidinone;2-Thiohydantoin;Thiohydantoin;4-Oxo-2-thioxoimidazolidine;NSC 11772;Imidazolidin-4-one-2-thione;2-Sulfanylideneimidazolidin-4-one",
    "duplicated_cas_no": "",
    "SMILES": "O=C1NC(=S)NC1",
    "meta_data": {
        "InChI": "InChI=1S/C3H4N2OS/c6-2-1-4-3(7)5-2/h1H2,(H2,4,5,6,7)",
        "InChIKey": null,
        "Canonical SMILES": "O=C1NC(=S)NC1",
        "Molecular Formula": "C<sub>3</sub>H<sub>4</sub>N<sub>2</sub>OS",
        "Molecular Mass": "116.14",
        "Melting Point": "227 °C"
    }
}