{
    "cas_no": "106614-28-2",
    "key_name": "Benzoic acid, 2,4-difluoro-, methyl ester",
    "cn_name": "2,4-二氟苯甲酸甲酯;",
    "alternate_name": "Benzoic acid, 2,4-difluoro-, methyl ester;Methyl 2,4-difluorobenzoate;2,4-Difluorobenzoic acid methyl ester",
    "duplicated_cas_no": "",
    "SMILES": "C(OC)(=O)C1=C(F)C=C(F)C=C1",
    "meta_data": {
        "InChI": "InChI=1S/C8H6F2O2/c1-12-8(11)6-3-2-5(9)4-7(6)10/h2-4H,1H3",
        "InChIKey": null,
        "Canonical SMILES": "O=C(OC)C1=CC=C(F)C=C1F",
        "Molecular Formula": "C<sub>8</sub>H<sub>6</sub>F<sub>2</sub>O<sub>2</sub>",
        "Molecular Mass": "172.13",
        "Boiling Point": "190-194 °C @ Press: 760 Torr"
    }
}