{
    "cas_no": "533-31-3",
    "key_name": "Sesamol",
    "cn_name": "芝麻酚;3,4-亚甲二氧基苯酚;",
    "alternate_name": "1,3-Benzodioxol-5-ol;Phenol, 3,4-(methylenedioxy)-;Sesamol;5-Hydroxy-1,3-benzodioxole;3,4-(Methylenedioxy)phenol;4-Hydroxy-1,2-methylenedioxybenzene;NSC 59256;1,3-Dioxaindan-5-ol;2<em>H</em>-1,3-Benzodioxol-5-ol",
    "duplicated_cas_no": "",
    "SMILES": "OC=1C=C2C(=CC1)OCO2",
    "meta_data": {
        "InChI": "InChI=1S/C7H6O3/c8-5-1-2-6-7(3-5)10-4-9-6/h1-3,8H,4H2",
        "InChIKey": null,
        "Canonical SMILES": "OC1=CC=C2OCOC2=C1",
        "Molecular Formula": "C<sub>7</sub>H<sub>6</sub>O<sub>3</sub>",
        "Molecular Mass": "138.12",
        "Boiling Point": "135-140 °C @ Press: 13 Torr",
        "Melting Point": "65.8 °C"
    }
}