{
    "cas_no": "37811-72-6",
    "key_name": "Isobutyl laurate",
    "cn_name": "十二烷酸异丁酯;",
    "alternate_name": "Dodecanoic acid, 2-methylpropyl ester;Lauric acid isobutyl ester;Isobutyl laurate;Texaprint SLIB;NSC 406877;Tosolv-Lib;Isobutyl dodecanoate;2-Methylpropyl dodecanoate",
    "duplicated_cas_no": "",
    "SMILES": "C(CCCCCCCCCC)C(OCC(C)C)=O",
    "meta_data": {
        "InChI": "InChI=1S/C16H32O2/c1-4-5-6-7-8-9-10-11-12-13-16(17)18-14-15(2)3/h15H,4-14H2,1-3H3",
        "InChIKey": null,
        "Canonical SMILES": "O=C(OCC(C)C)CCCCCCCCCCC",
        "Molecular Formula": "C<sub>16</sub>H<sub>32</sub>O<sub>2</sub>",
        "Molecular Mass": "256.42",
        "Boiling Point": "173 °C @ Press: 18 Torr"
    }
}