{
    "cas_no": "87776-75-8",
    "key_name": "3-Chloro-4-(methylthio)benzeneacetic acid",
    "cn_name": "3-氯-4-甲硫基苯乙酸;",
    "alternate_name": "Benzeneacetic acid, 3-chloro-4-(methylthio)-;3-Chloro-4-(methylthio)benzeneacetic acid;(3-Chloro-4-methylsulfanylphenyl)acetic acid;3-Chloro-4-methylthiophenylacetic acid;2-[3-Chloro-4-(methylsulfanyl)phenyl]acetic acid",
    "duplicated_cas_no": "",
    "SMILES": "S(C)C1=C(Cl)C=C(CC(O)=O)C=C1",
    "meta_data": {
        "InChI": "InChI=1S/C9H9ClO2S/c1-13-8-3-2-6(4-7(8)10)5-9(11)12/h2-4H,5H2,1H3,(H,11,12)",
        "InChIKey": null,
        "Canonical SMILES": "O=C(O)CC1=CC=C(SC)C(Cl)=C1",
        "Molecular Formula": "C<sub>9</sub>H<sub>9</sub>ClO<sub>2</sub>S",
        "Molecular Mass": "216.68",
        "Melting Point": "105.6-108.4 °C"
    }
}