{
    "cas_no": "3319-01-5",
    "key_name": "Cyclohexylpiperidine",
    "cn_name": "1-环己基哌啶;1-环己基哌啶;",
    "alternate_name": "Piperidine, 1-cyclohexyl-;1-Cyclohexylpiperidine;<em>N</em>-Cyclohexylpiperidine;Cyclohexylpiperidine;NSC 93942",
    "duplicated_cas_no": "",
    "SMILES": "C1(CCCCC1)N2CCCCC2",
    "meta_data": {
        "InChI": "InChI=1S/C11H21N/c1-3-7-11(8-4-1)12-9-5-2-6-10-12/h11H,1-10H2",
        "InChIKey": null,
        "Canonical SMILES": "N1(CCCCC1)C2CCCCC2",
        "Molecular Formula": "C<sub>11</sub>H<sub>21</sub>N",
        "Molecular Mass": "167.29",
        "Boiling Point": "110-111 °C @ Press: 14 Torr",
        "Melting Point": "73-74 °C",
        "Density": "0.9250 g/cm³ @ Temp: 20 °C"
    }
}