{
    "cas_no": "4433-30-1",
    "key_name": "1-Phenyl-1-undecanone",
    "cn_name": "十一苯酮;十一苯酮;",
    "alternate_name": "1-Undecanone, 1-phenyl-;Undecanophenone;1-Phenyl-1-undecanone;Decyl phenyl ketone;Undecanoylbenzene",
    "duplicated_cas_no": "",
    "SMILES": "C(CCCCCCCCCC)(=O)C1=CC=CC=C1",
    "meta_data": {
        "InChI": "InChI=1S/C17H26O/c1-2-3-4-5-6-7-8-12-15-17(18)16-13-10-9-11-14-16/h9-11,13-14H,2-8,12,15H2,1H3",
        "InChIKey": null,
        "Canonical SMILES": "O=C(C=1C=CC=CC1)CCCCCCCCCC",
        "Molecular Formula": "C<sub>17</sub>H<sub>26</sub>O",
        "Molecular Mass": "246.39",
        "Melting Point": "29.5-30.2 °C"
    }
}