{
    "cas_no": "55048-24-3",
    "key_name": "3-Chloro-4-morpholinoaniline",
    "cn_name": null,
    "alternate_name": "Benzenamine, 3-chloro-4-(4-morpholinyl)-;3-Chloro-4-(4-morpholinyl)benzenamine;4-(4-Amino-2-chlorophenyl)morpholine;3-Chloro-(4-morpholin-4-yl)phenylamine;3-Chloro-4-(4-morpholinyl)aniline;<em>N</em>-(4-Amino-2-chlorophenyl)morpholine;3-Chloro-4-morpholinoaniline",
    "duplicated_cas_no": "",
    "SMILES": "ClC1=C(N2CCOCC2)C=CC(N)=C1",
    "meta_data": {
        "InChI": "InChI=1S/C10H13ClN2O/c11-9-7-8(12)1-2-10(9)13-3-5-14-6-4-13/h1-2,7H,3-6,12H2",
        "InChIKey": null,
        "Canonical SMILES": "ClC1=CC(N)=CC=C1N2CCOCC2",
        "Molecular Formula": "C<sub>10</sub>H<sub>13</sub>ClN<sub>2</sub>O",
        "Molecular Mass": "212.68",
        "Melting Point": "97-100 °C"
    }
}