{
    "cas_no": "683-18-1",
    "key_name": "Dibutyltin dichloride",
    "cn_name": "二丁基二氯化锡;二氯二丁基锡;",
    "alternate_name": "Stannane, dibutyldichloro-;Dibutyltin dichloride;Dibutyldichlorostannane;Dichlorodibutyltin;Dibutyltin chloride;Dichlorodibutylstannane;Dibutyldichlorotin;Di-<em>n</em>-butyltin dichloride;NSC 2604;Dichlorobis(dibutyl)tin;Di-<em>n</em>-butyltin(II) chloride;Dibutyltin(IV) dichloride;KC 1A1",
    "duplicated_cas_no": "",
    "SMILES": "[Sn](CCCC)(CCCC)(Cl)Cl",
    "meta_data": {
        "InChI": "InChI=1S/2C4H9.2ClH.Sn/c2*1-3-4-2;;;/h2*1,3-4H2,2H3;2*1H;/q;;;;+2/p-2",
        "InChIKey": null,
        "Canonical SMILES": "Cl[Sn](Cl)(CCCC)CCCC",
        "Molecular Formula": "C<sub>8</sub>H<sub>18</sub>Cl<sub>2</sub>Sn",
        "Molecular Mass": "303.84",
        "Boiling Point": "135 °C @ Press: 10 Torr",
        "Melting Point": "43 °C"
    }
}