{
    "cas_no": "79-77-6",
    "key_name": "β-Ionone",
    "cn_name": "beta-紫罗酮;(E)-4-(2,6,6-三甲基-1-环己烯-1-基)-3-丁烯-2-酮;乙位紫罗兰酮;",
    "alternate_name": "3-Buten-2-one, 4-(2,6,6-trimethyl-1-cyclohexen-1-yl)-, (3<em>E</em>)-;3-Buten-2-one, 4-(2,6,6-trimethyl-1-cyclohexen-1-yl)-, (<em>E</em>)-;(3<em>E</em>)-4-(2,6,6-Trimethyl-1-cyclohexen-1-yl)-3-buten-2-one;<em>trans</em>-β-Ionone;β-Ionone;(<em>E</em>)-β-Ionone;Ionone beta;(<em>E</em>)-4-(2,6,6-Trimethyl-1-cyclohexen-1-yl)-3-buten-2-one;(<em>E</em>)-4-(2,6,6-Trimethylcyclohex-1-enyl)but-3-en-2-one;<em>trans</em>-β-Lonone;(E)-4-(2,6,6-Trimethyl-1-cyclohexen-1-yl)-3-buten-2-one",
    "duplicated_cas_no": "1353674-22-2",
    "SMILES": "C(=C/C(C)=O)\\C=1C(C)(C)CCCC1C",
    "meta_data": {
        "InChI": "InChI=1S/C13H20O/c1-10-6-5-9-13(3,4)12(10)8-7-11(2)14/h7-8H,5-6,9H2,1-4H3/b8-7+",
        "InChIKey": null,
        "Canonical SMILES": "O=C(C=CC1=C(C)CCCC1(C)C)C",
        "Molecular Formula": "C<sub>13</sub>H<sub>20</sub>O",
        "Molecular Mass": "192.30",
        "Boiling Point": "135-140 °C @ Press: 16 Torr",
        "Melting Point": "122-124 °C",
        "Density": "0.9468 g/cm³ @ Temp: 20 °C"
    }
}