{
    "cas_no": "4143-63-9",
    "key_name": "4′-Hydroxyflavone",
    "cn_name": "4-羟基黄烷酮;4\"-羟基黄烷酮;",
    "alternate_name": "4<em>H</em>-1-Benzopyran-4-one, 2-(4-hydroxyphenyl)-;Flavone, 4′-hydroxy-;2-(4-Hydroxyphenyl)-4<em>H</em>-1-benzopyran-4-one;4′-Hydroxyflavone;NSC 22357;2-(4-Hydroxyphenyl)chromen-4-one;2-(4-Hydroxyphenyl)-4<em>H</em>-chromen-4-one",
    "duplicated_cas_no": "",
    "SMILES": "O=C1C=C(OC=2C1=CC=CC2)C3=CC=C(O)C=C3",
    "meta_data": {
        "InChI": "InChI=1S/C15H10O3/c16-11-7-5-10(6-8-11)15-9-13(17)12-3-1-2-4-14(12)18-15/h1-9,16H",
        "InChIKey": null,
        "Canonical SMILES": "O=C1C=C(OC=2C=CC=CC12)C=3C=CC(O)=CC3",
        "Molecular Formula": "C<sub>15</sub>H<sub>10</sub>O<sub>3</sub>",
        "Molecular Mass": "238.24",
        "Melting Point": "269-270 °C"
    }
}