{
    "cas_no": "1115-82-8",
    "key_name": "(2<em>S</em>)-2-Methylpentanedioic acid",
    "cn_name": "(S)-(+)-2-甲基戊二酸;(S)-2-甲基戊二酸;",
    "alternate_name": "Pentanedioic acid, 2-methyl-, (2<em>S</em>)-;Glutaric acid, 2-methyl-, (<em>S</em>)(+)-;Pentanedioic acid, 2-methyl-, (<em>S</em>)-;(2<em>S</em>)-2-Methylpentanedioic acid;(<em>S</em>)-(+)-2-Methylglutaric acid;(2S)-2-Methylpentanedioic acid",
    "duplicated_cas_no": "",
    "SMILES": "[C@H](CCC(O)=O)(C(O)=O)C",
    "meta_data": {
        "InChI": "InChI=1S/C6H10O4/c1-4(6(9)10)2-3-5(7)8/h4H,2-3H2,1H3,(H,7,8)(H,9,10)/t4-/m0/s1",
        "InChIKey": null,
        "Canonical SMILES": "O=C(O)CCC(C(=O)O)C",
        "Molecular Formula": "C<sub>6</sub>H<sub>10</sub>O<sub>4</sub>",
        "Molecular Mass": "146.14",
        "Melting Point": "79 °C"
    }
}