{
    "cas_no": "1693-71-6",
    "key_name": "Boric acid (H<sub>3</sub>BO<sub>3</sub>) tri-2-propen-1-yl ester",
    "cn_name": "硼酸三烯丙酯;",
    "alternate_name": "Boric acid (H<sub>3</sub>BO<sub>3</sub>), tri-2-propen-1-yl ester;Boric acid (H<sub>3</sub>BO<sub>3</sub>), triallyl ester;Boric acid (H<sub>3</sub>BO<sub>3</sub>), tri-2-propenyl ester;Allyl borate;Boric acid (H<sub>3</sub>BO<sub>3</sub>) tri-2-propen-1-yl ester;Allyl borate ((C<sub>3</sub>H<sub>5</sub>O)<sub>3</sub>B);Triallyl borate;Triallyloxyborane;Tris(allyloxy)borane;NSC 65653;Trisallyl borate",
    "duplicated_cas_no": "",
    "SMILES": "B(OCC=C)(OCC=C)OCC=C",
    "meta_data": {
        "InChI": "InChI=1S/C9H15BO3/c1-4-7-11-10(12-8-5-2)13-9-6-3/h4-6H,1-3,7-9H2",
        "InChIKey": null,
        "Canonical SMILES": "O(B(OCC=C)OCC=C)CC=C",
        "Molecular Formula": "C<sub>9</sub>H<sub>15</sub>BO<sub>3</sub>",
        "Molecular Mass": "182.02",
        "Boiling Point": "72 °C @ Press: 12 Torr",
        "Density": "0.919 g/cm³"
    }
}