{
    "cas_no": "97-16-5",
    "key_name": "Genite",
    "cn_name": "格螨酯;格螨酯;",
    "alternate_name": "Phenol, 2,4-dichloro-, 1-benzenesulfonate;Phenol, 2,4-dichloro-, benzenesulfonate;Benzenesulfonic acid, 2,4-dichlorophenyl ester;EM 923;2,4-Dichlorophenyl benzenesulfonate;2,4-Dichlorophenyl benzenesulphonate;Genite 923;Genite;Genite EM 923;Genitol 923;Genite (insecticide);NSC 27323;NSC 38761;Genit",
    "duplicated_cas_no": "",
    "SMILES": "O(S(=O)(=O)C1=CC=CC=C1)C2=C(Cl)C=C(Cl)C=C2",
    "meta_data": {
        "InChI": "InChI=1S/C12H8Cl2O3S/c13-9-6-7-12(11(14)8-9)17-18(15,16)10-4-2-1-3-5-10/h1-8H",
        "InChIKey": null,
        "Canonical SMILES": "O=S(=O)(OC1=CC=C(Cl)C=C1Cl)C=2C=CC=CC2",
        "Molecular Formula": "C<sub>12</sub>H<sub>8</sub>Cl<sub>2</sub>O<sub>3</sub>S",
        "Molecular Mass": "303.16",
        "Melting Point": "45-47 °C"
    }
}