{
    "cas_no": "27210-57-7",
    "key_name": "Miltirone",
    "cn_name": null,
    "alternate_name": "3,4-Phenanthrenedione, 5,6,7,8-tetrahydro-8,8-dimethyl-2-(1-methylethyl)-;3,4-Phenanthrenedione, 5,6,7,8-tetrahydro-2-isopropyl-8,8-dimethyl-;5,6,7,8-Tetrahydro-8,8-dimethyl-2-(1-methylethyl)-3,4-phenanthrenedione;Miltirone;Miltiron;Rosmariquinone;NSC 639662",
    "duplicated_cas_no": "",
    "SMILES": "O=C1C=2C3=C(C=CC2C=C(C(C)C)C1=O)C(C)(C)CCC3",
    "meta_data": {
        "InChI": "InChI=1S/C19H22O2/c1-11(2)14-10-12-7-8-15-13(6-5-9-19(15,3)4)16(12)18(21)17(14)20/h7-8,10-11H,5-6,9H2,1-4H3",
        "InChIKey": null,
        "Canonical SMILES": "O=C1C(=O)C(=CC=2C=CC3=C(C21)CCCC3(C)C)C(C)C",
        "Molecular Formula": "C<sub>19</sub>H<sub>22</sub>O<sub>2</sub>",
        "Molecular Mass": "282.38",
        "Melting Point": "97-99 °C"
    }
}