{
    "cas_no": "298690-74-1",
    "key_name": "2-(3-Chlorophenyl)pyrrolidine",
    "cn_name": null,
    "alternate_name": "Pyrrolidine, 2-(3-chlorophenyl)-;2-(3-Chlorophenyl)pyrrolidine",
    "duplicated_cas_no": "",
    "SMILES": "ClC=1C=C(C=CC1)C2CCCN2",
    "meta_data": {
        "InChI": "InChI=1S/C10H12ClN/c11-9-4-1-3-8(7-9)10-5-2-6-12-10/h1,3-4,7,10,12H,2,5-6H2",
        "InChIKey": null,
        "Canonical SMILES": "ClC1=CC=CC(=C1)C2NCCC2",
        "Molecular Formula": "C<sub>10</sub>H<sub>12</sub>ClN",
        "Molecular Mass": "181.66",
        "Boiling Point": "138-141 °C @ Press: 16 Torr"
    }
}