{
    "cas_no": "6385-02-0",
    "key_name": "Meclofenamate sodium",
    "cn_name": "甲氯灭酸钠;",
    "alternate_name": "Benzoic acid, 2-[(2,6-dichloro-3-methylphenyl)amino]-, sodium salt (1:1);Anthranilic acid, <em>N</em>-(2,6-dichloro-<em>m</em>-tolyl)-, monosodium salt;Benzoic acid, 2-[(2,6-dichloro-3-methylphenyl)amino]-, monosodium salt;Sodium meclophenamate;Sodium meclofenamate;Sodium <em>N</em>-(2,6-dichloro-<em>m</em>-tolyl)anthranilate;<em>N</em>-(2,6-Dichloro-<em>m</em>-tolyl)anthranilic acid sodium salt;Meclomen;CI 583;Meclofenamate sodium;Meclofenamic acid sodium salt",
    "duplicated_cas_no": "",
    "SMILES": "N(C1=C(Cl)C(C)=CC=C1Cl)C2=C(C(O)=O)C=CC=C2.[Na]",
    "meta_data": {
        "InChI": "InChI=1S/C14H11Cl2NO2.Na/c1-8-6-7-10(15)13(12(8)16)17-11-5-3-2-4-9(11)14(18)19;/h2-7,17H,1H3,(H,18,19);",
        "InChIKey": null,
        "Canonical SMILES": "[Na].O=C(O)C=1C=CC=CC1NC=2C(Cl)=CC=C(C2Cl)C",
        "Molecular Formula": "C<sub>14</sub>H<sub>11</sub>Cl<sub>2</sub>NO<sub>2</sub>.Na",
        "Molecular Mass": "",
        "Melting Point": "287-291 °C"
    }
}