{
    "cas_no": "769-40-4",
    "key_name": "2,3,5,6-Tetrafluorothiophenol",
    "cn_name": "2,3,5,6-四氟苯硫酚;",
    "alternate_name": "Benzenethiol, 2,3,5,6-tetrafluoro-;2,3,5,6-Tetrafluorobenzenethiol;2,3,5,6-Tetrafluorothiophenol;NSC 96887;2,3,5,6-Tetrafluorophenylthiol;2,3,5,6-Tetrafluorobenzene-1-thiol",
    "duplicated_cas_no": "1570042-99-7",
    "SMILES": "FC1=C(S)C(F)=C(F)C=C1F",
    "meta_data": {
        "InChI": "InChI=1S/C6H2F4S/c7-2-1-3(8)5(10)6(11)4(2)9/h1,11H",
        "InChIKey": null,
        "Canonical SMILES": "FC=1C=C(F)C(F)=C(S)C1F",
        "Molecular Formula": "C<sub>6</sub>H<sub>2</sub>F<sub>4</sub>S",
        "Molecular Mass": "182.14",
        "Boiling Point": "147 °C"
    }
}