{
    "cas_no": "7446-11-9",
    "key_name": "Sulfur trioxide",
    "cn_name": null,
    "alternate_name": "Sulfur trioxide;Sulfur oxide (SO<sub>3</sub>);Sulfuric anhydride;Nisso Sulfan",
    "duplicated_cas_no": "856577-62-3",
    "SMILES": "S(=O)(=O)=O",
    "meta_data": {
        "InChI": "InChI=1S/O3S/c1-4(2)3",
        "InChIKey": null,
        "Canonical SMILES": "O=S(=O)=O",
        "Molecular Formula": "O<sub>3</sub>S",
        "Molecular Mass": "80.06",
        "Boiling Point": "45 °C",
        "Melting Point": "16.8 °C",
        "Density": "1.9 g/cm³"
    }
}