{
    "cas_no": "19449-26-4",
    "key_name": "<em>N</em>,<em>N</em>-Dimethyl-1,3-dioxolan-2-amine",
    "cn_name": "2-二甲基氨基-1,3-二氧杂环戊烷;N,N-二甲基甲酰胺乙烯基乙缩醛;",
    "alternate_name": "1,3-Dioxolan-2-amine, <em>N</em>,<em>N</em>-dimethyl-;<em>N</em>,<em>N</em>-Dimethyl-1,3-dioxolan-2-amine;Dimethylformamide cyclic ethylene acetal;NSC 119918;<em>N</em>,<em>N</em>-Dimethylformamide ethylene acetal",
    "duplicated_cas_no": "",
    "SMILES": "N(C)(C)C1OCCO1",
    "meta_data": {
        "InChI": "InChI=1S/C5H11NO2/c1-6(2)5-7-3-4-8-5/h5H,3-4H2,1-2H3",
        "InChIKey": null,
        "Canonical SMILES": "O1CCOC1N(C)C",
        "Molecular Formula": "C<sub>5</sub>H<sub>11</sub>NO<sub>2</sub>",
        "Molecular Mass": "117.15",
        "Boiling Point": "142-144 °C",
        "Density": "1.007 g/cm³ @ Temp: 20 °C"
    }
}