{
    "cas_no": "79636-94-5",
    "key_name": "5-Bromo-2-ethoxybenzaldehyde",
    "cn_name": "5-溴-2-乙氧基苯甲醛;",
    "alternate_name": "Benzaldehyde, 5-bromo-2-ethoxy-;5-Bromo-2-ethoxybenzaldehyde;NSC 157341",
    "duplicated_cas_no": "",
    "SMILES": "O(CC)C1=C(C=O)C=C(Br)C=C1",
    "meta_data": {
        "InChI": "InChI=1S/C9H9BrO2/c1-2-12-9-4-3-8(10)5-7(9)6-11/h3-6H,2H2,1H3",
        "InChIKey": null,
        "Canonical SMILES": "O=CC1=CC(Br)=CC=C1OCC",
        "Molecular Formula": "C<sub>9</sub>H<sub>9</sub>BrO<sub>2</sub>",
        "Molecular Mass": "229.07",
        "Melting Point": "63-64 °C"
    }
}