{
    "cas_no": "3937-96-0",
    "key_name": "2-[(4-Methylphenyl)sulfonyl]acetic acid",
    "cn_name": "对甲苯磺酰乙酸;",
    "alternate_name": "Acetic acid, 2-[(4-methylphenyl)sulfonyl]-;Acetic acid, (<em>p</em>-tolylsulfonyl)-;Acetic acid, [(4-methylphenyl)sulfonyl]-;2-[(4-Methylphenyl)sulfonyl]acetic acid;(<em>p</em>-Tolylsulfonyl)acetic acid;(<em>p</em>-Methylphenylsulfonyl)acetic acid;(<em>p</em>-Toluenesulfonyl)acetic acid;NSC 46893;4-Methylphenylsulfonylacetic acid;2-Tosylacetic acid;2-(4-Methylbenzenesulfonyl)acetic acid",
    "duplicated_cas_no": "",
    "SMILES": "S(CC(O)=O)(=O)(=O)C1=CC=C(C)C=C1",
    "meta_data": {
        "InChI": "InChI=1S/C9H10O4S/c1-7-2-4-8(5-3-7)14(12,13)6-9(10)11/h2-5H,6H2,1H3,(H,10,11)",
        "InChIKey": null,
        "Canonical SMILES": "O=C(O)CS(=O)(=O)C1=CC=C(C=C1)C",
        "Molecular Formula": "C<sub>9</sub>H<sub>10</sub>O<sub>4</sub>S",
        "Molecular Mass": "214.24",
        "Melting Point": "114-115 °C"
    }
}