{
    "cas_no": "74-11-3",
    "key_name": "4-Chlorobenzoic acid",
    "cn_name": "对氯苯甲酸;4-氯苯甲酸;",
    "alternate_name": "Benzoic acid, 4-chloro-;Benzoic acid, <em>p</em>-chloro-;4-Chlorobenzoic acid;<em>p</em>-Chlorbenzoic acid;<em>p</em>-Chlorobenzoic acid;<em>p</em>-Carboxychlorobenzene;Mycosid;NSC 143358;NSC 32738;NSC 8444;4-CBA",
    "duplicated_cas_no": "2764684-45-7",
    "SMILES": "C(O)(=O)C1=CC=C(Cl)C=C1",
    "meta_data": {
        "InChI": "InChI=1S/C7H5ClO2/c8-6-3-1-5(2-4-6)7(9)10/h1-4H,(H,9,10)",
        "InChIKey": null,
        "Canonical SMILES": "O=C(O)C1=CC=C(Cl)C=C1",
        "Molecular Formula": "C<sub>7</sub>H<sub>5</sub>ClO<sub>2</sub>",
        "Molecular Mass": "156.57",
        "Boiling Point": "275 °C",
        "Melting Point": "243 °C",
        "Density": "1.5 g/cm³"
    }
}