{
    "cas_no": "33130-04-0",
    "key_name": "2,3,4-Trimethoxybenzenepropanoic acid",
    "cn_name": null,
    "alternate_name": "Benzenepropanoic acid, 2,3,4-trimethoxy-;2,3,4-Trimethoxybenzenepropanoic acid;3-(2,3,4-Trimethoxyphenyl)propionic acid;2,3,4-Trimethoxyhydrocinnamic acid;3-(2,3,4-Trimethoxyphenyl)propanoic acid;3-(2′,3′,4′-Trimethoxyphenyl)propanoic acid",
    "duplicated_cas_no": "",
    "SMILES": "O(C)C1=C(OC)C(OC)=CC=C1CCC(O)=O",
    "meta_data": {
        "InChI": "InChI=1S/C12H16O5/c1-15-9-6-4-8(5-7-10(13)14)11(16-2)12(9)17-3/h4,6H,5,7H2,1-3H3,(H,13,14)",
        "InChIKey": null,
        "Canonical SMILES": "O=C(O)CCC1=CC=C(OC)C(OC)=C1OC",
        "Molecular Formula": "C<sub>12</sub>H<sub>16</sub>O<sub>5</sub>",
        "Molecular Mass": "240.25",
        "Melting Point": "76 °C"
    }
}