{
    "cas_no": "452-78-8",
    "key_name": "3-Fluoro-4-methylphenol",
    "cn_name": "3-氟-4-甲基苯酚;3-氟对甲基苯酚;3-Fluoro-p-cresol;",
    "alternate_name": "Phenol, 3-fluoro-4-methyl-;<em>p</em>-Cresol, 3-fluoro-;3-Fluoro-4-methylphenol;3-Fluoro-4-cresol",
    "duplicated_cas_no": "",
    "SMILES": "FC1=C(C)C=CC(O)=C1",
    "meta_data": {
        "InChI": "InChI=1S/C7H7FO/c1-5-2-3-6(9)4-7(5)8/h2-4,9H,1H3",
        "InChIKey": null,
        "Canonical SMILES": "FC1=CC(O)=CC=C1C",
        "Molecular Formula": "C<sub>7</sub>H<sub>7</sub>FO",
        "Molecular Mass": "126.13",
        "Boiling Point": "194-196 °C @ Press: 760 Torr",
        "Melting Point": "72 °C"
    }
}