{
    "cas_no": "621-38-5",
    "key_name": "<em>N</em>-(3-Bromophenyl)acetamide",
    "cn_name": "3-溴-N-乙酰苯胺;",
    "alternate_name": "Acetamide, <em>N</em>-(3-bromophenyl)-;Acetanilide, 3′-bromo-;<em>N</em>-(3-Bromophenyl)acetamide;3-Bromoacetanilide;3′-Bromoacetanilide;<em>m</em>-Bromoacetanilide;NSC 408071;<em>N</em>-Acetyl-3-bromoaniline",
    "duplicated_cas_no": "",
    "SMILES": "N(C(C)=O)C1=CC(Br)=CC=C1",
    "meta_data": {
        "InChI": "InChI=1S/C8H8BrNO/c1-6(11)10-8-4-2-3-7(9)5-8/h2-5H,1H3,(H,10,11)",
        "InChIKey": null,
        "Canonical SMILES": "O=C(NC=1C=CC=C(Br)C1)C",
        "Molecular Formula": "C<sub>8</sub>H<sub>8</sub>BrNO",
        "Molecular Mass": "214.06",
        "Melting Point": "87-89 °C"
    }
}