{
    "cas_no": "4815-37-6",
    "key_name": "2-Amino-3-carboethoxy-5-methyl-4-phenylthiophene",
    "cn_name": null,
    "alternate_name": "3-Thiophenecarboxylic acid, 2-amino-5-methyl-4-phenyl-, ethyl ester;Ethyl 2-amino-5-methyl-4-phenyl-3-thiophenecarboxylate;2-Amino-3-carboethoxy-5-methyl-4-phenylthiophene",
    "duplicated_cas_no": "",
    "SMILES": "C(OCC)(=O)C=1C(=C(C)SC1N)C2=CC=CC=C2",
    "meta_data": {
        "InChI": "InChI=1S/C14H15NO2S/c1-3-17-14(16)12-11(9(2)18-13(12)15)10-7-5-4-6-8-10/h4-8H,3,15H2,1-2H3",
        "InChIKey": null,
        "Canonical SMILES": "O=C(OCC)C1=C(SC(=C1C=2C=CC=CC2)C)N",
        "Molecular Formula": "C<sub>14</sub>H<sub>15</sub>NO<sub>2</sub>S",
        "Molecular Mass": "261.34",
        "Melting Point": "93 °C"
    }
}