{
    "cas_no": "6553-96-4",
    "key_name": "2,4,6-Tris(1-methylethyl)benzenesulfonyl chloride",
    "cn_name": "2,4,6-三异丙基苯磺酰氯;",
    "alternate_name": "Benzenesulfonyl chloride, 2,4,6-tris(1-methylethyl)-;Benzenesulfonyl chloride, 2,4,6-triisopropyl-;2,4,6-Tris(1-methylethyl)benzenesulfonyl chloride;2,4,6-Triisopropylbenzenesulfonyl chloride;2,4,6-Triisopropylphenylsulfonyl chloride;2,4,6-Tris(isopropyl)benzenesulfonyl chloride;NSC 102803;2,4,6-Triisopropylbenzene-1-sulfonyl chloride;Tripsyl chloride;2,4,6-Triisopropylbenzenesulfonoyl chloride;2,4,6-Tri(propan-2-yl)benzenesulfonyl chloride",
    "duplicated_cas_no": "1804970-06-6",
    "SMILES": "S(Cl)(=O)(=O)C1=C(C(C)C)C=C(C(C)C)C=C1C(C)C",
    "meta_data": {
        "InChI": "InChI=1S/C15H23ClO2S/c1-9(2)12-7-13(10(3)4)15(19(16,17)18)14(8-12)11(5)6/h7-11H,1-6H3",
        "InChIKey": null,
        "Canonical SMILES": "O=S(=O)(Cl)C=1C(=CC(=CC1C(C)C)C(C)C)C(C)C",
        "Molecular Formula": "C<sub>15</sub>H<sub>23</sub>ClO<sub>2</sub>S",
        "Molecular Mass": "302.86",
        "Melting Point": "96.8-97.5 °C"
    }
}