{
    "cas_no": "104-85-8",
    "key_name": "4-Methylbenzonitrile",
    "cn_name": "对甲苯腈;",
    "alternate_name": "Benzonitrile, 4-methyl-;<em>p</em>-Tolunitrile;4-Methylbenzonitrile;<em>p</em>-Methylbenzonitrile;<em>p</em>-Tolylnitrile;<em>p</em>-Cyanotoluene;<em>p</em>-Toluenenitrile;4-Cyanotoluene;4-Methylcyanobenzene;1-Cyano-4-methylbenzene;<em>p</em>-Tolyl cyanide;4-Toluenitrile;4-Methylphenyl cyanide;4-Tolyl cyanide;NSC 70985;4-Methylphenylnitrile",
    "duplicated_cas_no": "",
    "SMILES": "C(#N)C1=CC=C(C)C=C1",
    "meta_data": {
        "InChI": "InChI=1S/C8H7N/c1-7-2-4-8(6-9)5-3-7/h2-5H,1H3",
        "InChIKey": null,
        "Canonical SMILES": "N#CC1=CC=C(C=C1)C",
        "Molecular Formula": "C<sub>8</sub>H<sub>7</sub>N",
        "Molecular Mass": "117.15",
        "Boiling Point": "217 °C",
        "Melting Point": "29.5 °C"
    }
}