{
    "cas_no": "1918-82-7",
    "key_name": "2-Vinylthiophene",
    "cn_name": "2-乙烯基噻吩;2-乙烯基噻吩;",
    "alternate_name": "Thiophene, 2-ethenyl-;Thiophene, 2-vinyl-;2-Ethenylthiophene;2-Vinylthiophene;Thien-2-ylethene",
    "duplicated_cas_no": "",
    "SMILES": "C(=C)C1=CC=CS1",
    "meta_data": {
        "InChI": "InChI=1S/C6H6S/c1-2-6-4-3-5-7-6/h2-5H,1H2",
        "InChIKey": null,
        "Canonical SMILES": "S1C=CC=C1C=C",
        "Molecular Formula": "C<sub>6</sub>H<sub>6</sub>S",
        "Molecular Mass": "110.18",
        "Boiling Point": "62-63 °C @ Press: 50 Torr",
        "Density": "1.044 g/cm³ @ Temp: 20 °C"
    }
}