{
    "cas_no": "6696-41-9",
    "key_name": "α-<span class=\"text-smallcaps\">L</span>-Fucose",
    "cn_name": "L-(-)-海藻糖;",
    "alternate_name": "α-<span class=\"text-smallcaps\">L</span>-Galactopyranose, 6-deoxy-;Fucopyranose, α-<span class=\"text-smallcaps\">L</span>-;6-Deoxy-α-<span class=\"text-smallcaps\">L</span>-galactopyranose;α-<span class=\"text-smallcaps\">L</span>-Fucopyranose;α-<span class=\"text-smallcaps\">L</span>-Fucose",
    "duplicated_cas_no": "113890-63-4;51348-50-6;71628-82-5",
    "SMILES": "O[C@H]1[C@@H](O)[C@H](O)[C@H](O)O[C@H]1C",
    "meta_data": {
        "InChI": "InChI=1S/C6H12O5/c1-2-3(7)4(8)5(9)6(10)11-2/h2-10H,1H3/t2-,3+,4+,5-,6+/m0/s1",
        "InChIKey": null,
        "Canonical SMILES": "OC1OC(C)C(O)C(O)C1O",
        "Molecular Formula": "C<sub>6</sub>H<sub>12</sub>O<sub>5</sub>",
        "Molecular Mass": "164.16",
        "Melting Point": "143-144 °C"
    }
}