{
    "uri": "substance/pt/8002742",
    "rn": "8002-74-2",
    "name": "Hydrocarbon waxes",
    "images": [],
    "inchi": "",
    "inchiKey": "",
    "smile": "",
    "canonicalSmile": "",
    "molecularFormula": "Unspecified",
    "molecularMass": "",
    "experimentalProperties": [
        {
            "name": "Melting Point",
            "property": "50-57 °C",
            "sourceNumber": 1
        }
    ],
    "propertyCitations": [
        {
            "docUri": "",
            "sourceNumber": 1,
            "source": "International Chemical Safety Cards data were obtained from the National Institute for Occupational Safety and Health (US)"
        }
    ],
    "synonyms": [
        "Hydrocarbon waxes",
        "Paraffin waxes and Hydrocarbon waxes",
        "Paraffin wax and other hydrocarbon waxes",
        "Paraflint RG",
        "Advawax 165",
        "Apiezon W",
        "Durowax FT 300",
        "FT 300",
        "Apiezon M",
        "Apiezon N",
        "Waxes and Waxy substances, hydrocarbon",
        "Aristowax",
        "Bareco 170/175",
        "DP 652",
        "Esso 3150",
        "Flexowax C",
        "Gatch",
        "Gulfwax",
        "Harowax L 1",
        "Harowax L 2",
        "H 1N3",
        "Indramic 30",
        "J 1440",
        "Johnsons Wax 111",
        "Lenolene AC",
        "Mobil 150",
        "Mobilwax 220",
        "Mystolene MK 7",
        "Mystolene SP 30",
        "Nopcosize DS 101",
        "Norane FH",
        "P 127",
        "Paracol 404C",
        "Paracol 505N",
        "Paradit PR",
        "Paradit PR New",
        "Paradit PR New A",
        "Paradium SS",
        "Parafilm",
        "Paraflint Hi-Ni",
        "Ceratak",
        "Parvan 5250",
        "San Rogue Wax",
        "Shell 100",
        "Shellwax 100",
        "Shellwax 300",
        "Shellwax 400",
        "Slackwax 11",
        "Slackwax 30",
        "Smithwax 117",
        "Sunnoc",
        "Paraseal",
        "Sunnoc B",
        "Sunnoc N",
        "Sunoco 4415",
        "Sunoco 4417",
        "Sunwax 5512",
        "Ubatol EXP 21",
        "Ultraflex (wax)",
        "Victory",
        "Vultex 8",
        "XL 165",
        "Slopvox",
        "Mobilcer 739",
        "Mobilcer ED 80/229",
        "Mobilcer 161",
        "Crolene LC",
        "Wosten 65",
        "Petrox P 200",
        "Vebafine FT 300",
        "Vebawax SH 105",
        "Permal",
        "Evoral SP",
        "Evoral PL",
        "NXK 501S",
        "Paracol 404A",
        "TH 44",
        "Sunoco P 116",
        "Arcowax 4154G",
        "Arcowax 1150G",
        "Arcowax 2143G",
        "Arcowax 4158G",
        "Eskar R 25",
        "Ultraflex",
        "Paraflint HIN 3",
        "Ceretal 165",
        "Freeman 155/160",
        "Mobil 150-155F",
        "X 7905",
        "SP 1030",
        "Dyedit S 8",
        "Mulrex 114",
        "RCH Wax",
        "FT 180",
        "Pt-White Wax 0602",
        "Kerawax 422",
        "Irgawax 366",
        "Anti-Chek",
        "Diaproof",
        "Selosol 686",
        "PF 155",
        "P 116",
        "EM 046H",
        "Dyedit C 30",
        "Dyedit EK",
        "Bondwax WE 70",
        "Popko 600",
        "ML 445",
        "SP 0145",
        "HI",
        "Cosmoloid 80H",
        "Sunwax 4412",
        "Nisseki 145",
        "Histowax HX 0482-5",
        "Paracol 5000",
        "Mobilwax 145",
        "Luvax 2191",
        "SP 0140",
        "45A (wax)",
        "LLN",
        "K 51 (wax)",
        "K 61 (wax)",
        "Witco 128",
        "Witco 85010-1",
        "R 152",
        "SR 143",
        "Aristowax 143",
        "Shellwax 120",
        "Shellwax 200",
        "HNP 14",
        "150F",
        "Boler 1421",
        "SP 0110",
        "45A",
        "Hytec B 5936",
        "OT 78",
        "SP 3040",
        "Chevron 143",
        "Chevron 159",
        "Hidorin E 139",
        "SP 3035",
        "T 550 (wax)",
        "T 550",
        "XL 165SB",
        "Noda Wax NC 511",
        "Popko 5000",
        "NC 511",
        "EM 048H",
        "EM 061H",
        "HNP 12",
        "Esso 778E",
        "Esso 778",
        "Altafin 125",
        "Boler 941",
        "Boler 1397",
        "SP 1004",
        "SP 1044",
        "Ozoace",
        "Paralite 17",
        "AmpliWax",
        "ZV 1",
        "ZV-P",
        "DW 5456",
        "DW 5658",
        "DMW 6064",
        "DMW 7074",
        "GRF",
        "HUB 3-1",
        "Paratex NS 70D",
        "G-C Base Plate Paraffin and Wax-Normal",
        "Nimi Pink Base Plate Paraffin and Wax",
        "G-C Base Plate Paraffin and Wax",
        "Boler 1328",
        "Thermobank C",
        "Mobilcer 216",
        "Ultralube W 7090",
        "Shellmax",
        "Purunitto 50Z",
        "ME 47950",
        "K 51",
        "K 61",
        "HNP 1 (wax)",
        "Aristowax 165",
        "Sizepine W 116H",
        "Vestowax FT 200",
        "Hydrocarbons, waxes",
        "Paranok 203",
        "Aquamol 1200",
        "Ecco Wax 244",
        "Eskar R 45",
        "Aristowax 125",
        "Paradit P 60",
        "NNP 9",
        "KW 622",
        "Chevron 4042",
        "SP 1044 (wax)",
        "Syntene 160",
        "HNP 1",
        "Luvax 1266",
        "Okerin 1865Q",
        "HNP 16",
        "Shell 270",
        "R 152 (wax)",
        "Kogasin III",
        "Parvan 158",
        "140F",
        "SPW 116H",
        "Mobilwax 140",
        "Nopalets MP 80",
        "Nopalets MP 85",
        "Nopalets MP 90",
        "Hidorin D 338",
        "Masterkure 122",
        "HNP 14G",
        "Paramelt 4608",
        "Parvan 161",
        "Vestowax SP 1024",
        "Vestowax SH 112",
        "FTP 1005",
        "Waxall A",
        "Parvan Wax 6550",
        "Rheolube 185",
        "Petrolite PX 100",
        "Victory (wax)",
        "Bareco PX 100",
        "Apiezon Wax W 100",
        "Parawax",
        "Paraflint H 4",
        "H 1N6",
        "Vestowax H 2",
        "Paraflint C 80N6",
        "Ampliwax Gem 50",
        "HS 28W",
        "AquaBead 325E",
        "Synwax 22XF",
        "Akrowax 5030",
        "Akrowax 5032",
        "Akrowax 5031",
        "YaV 1",
        "Swix CH 8",
        "Swix CH 10",
        "Paraflint H 105",
        "Press-Aid XP",
        "RPW 1-85",
        "RPW 1-89",
        "RPW 1-94",
        "RPW 2-92",
        "RPW 2-93",
        "RPW 2-94",
        "Paraffin 5203",
        "Paraffin 6214",
        "Press-Aid-SP",
        "SP 3040 (wax)",
        "LM-FRW 126",
        "HM-FRW 156",
        "MM-RHC 135",
        "CRW 141",
        "Neowax LA 05",
        "PX 100",
        "SP 1030 (wax)",
        "Excerex HW 48070B",
        "Excerex HW 41420P",
        "Excerex HW 26502PE",
        "Boler 1977",
        "N 624",
        "N 623",
        "N 627",
        "N 900",
        "Hidorin L 703-35",
        "N 481-0705-3",
        "N 481-1022-2",
        "Petroleum waxes",
        "Okerin 11131",
        "Ozoace 0355",
        "Ozoace 2701",
        "Topco S 904A",
        "Meghwax CPB 500",
        "Basewax H 187",
        "431B",
        "2202A",
        "4656A",
        "R 4700",
        "NV 120",
        "IGI 411",
        "SW 137",
        "NV 120 (hydrocarbon)",
        "HI-Mic 2090",
        "VOA 2080",
        "Waxrex 2470",
        "Indrawax 097",
        "Indrawax 210",
        "Indrawax 582",
        "Vara 4800",
        "P 116 (hydrocarbon)",
        "Sunproof Extra",
        "EW 58ES",
        "Sunproof Junior FT",
        "Microcrystalline wax MMP",
        "Varazon 5998",
        "Ozo 0355",
        "Paracol 6500",
        "Sizepine SPW 116H",
        "Ozoace 0015A",
        "DMW 7478",
        "Ozoace 0100"
    ],
    "replacedRns": [
        "105054-93-1",
        "105845-08-7",
        "115251-23-5",
        "115251-24-6",
        "8035-62-9",
        "8044-02-8",
        "8044-79-9",
        "9083-41-4",
        "12704-92-6",
        "12704-91-5",
        "12795-75-4",
        "37220-23-8",
        "37339-80-3",
        "39355-22-1",
        "39373-78-9",
        "51331-35-2",
        "54692-42-1",
        "57572-43-7",
        "57608-84-1",
        "58057-11-7",
        "68607-08-9",
        "68649-50-3",
        "70431-26-4",
        "72993-88-5",
        "72993-89-6",
        "72993-90-9",
        "160936-34-5",
        "401516-34-5"
    ],
    "hasMolfile": false,
    "source": "https://commonchemistry.cas.org/detail?cas_rn=8002-74-2"
}