{
    "cas_no": "352-32-9",
    "key_name": "4-Fluorotoluene",
    "cn_name": "4-氟甲苯;对氟甲苯;",
    "alternate_name": "Benzene, 1-fluoro-4-methyl-;Toluene, <em>p</em>-fluoro-;1-Fluoro-4-methylbenzene;4-Fluorotoluene;<em>p</em>-Fluoromethylbenzene;<em>p</em>-Fluorotoluene;<em>p</em>-Tolyl fluoride;NSC 8861",
    "duplicated_cas_no": "2199-97-5",
    "SMILES": "CC1=CC=C(F)C=C1",
    "meta_data": {
        "InChI": "InChI=1S/C7H7F/c1-6-2-4-7(8)5-3-6/h2-5H,1H3",
        "InChIKey": null,
        "Canonical SMILES": "FC1=CC=C(C=C1)C",
        "Molecular Formula": "C<sub>7</sub>H<sub>7</sub>F",
        "Molecular Mass": "110.13",
        "Boiling Point": "116.6 °C",
        "Melting Point": "-56 °C",
        "Density": "1.005 g/cm³ @ Temp: 15 °C"
    }
}