{
    "cas_no": "70-34-8",
    "key_name": "Dinitrofluorobenzene",
    "cn_name": "2,4-二硝基氟苯;1-氟-2,4-二硝基苯;",
    "alternate_name": "Benzene, 1-fluoro-2,4-dinitro-;1-Fluoro-2,4-dinitrobenzene;DFB;2,4-Dinitrofluorobenzene;2,4-Dinitro-1-fluorobenzene;DNFB;FDNB;Dinitrofluorobenzene;Fluorodinitrobenzene;2,4-Dinitrobenzene fluoride;2,4-Dinitrophenyl fluoride;4-Fluoro-1,3-dinitrobenzene;NSC 33519;Sanger's reagent",
    "duplicated_cas_no": "",
    "SMILES": "N(=O)(=O)C1=CC(N(=O)=O)=CC=C1F",
    "meta_data": {
        "InChI": "InChI=1S/C6H3FN2O4/c7-5-2-1-4(8(10)11)3-6(5)9(12)13/h1-3H",
        "InChIKey": null,
        "Canonical SMILES": "O=N(=O)C1=CC=C(F)C(=C1)N(=O)=O",
        "Molecular Formula": "C<sub>6</sub>H<sub>3</sub>FN<sub>2</sub>O<sub>4</sub>",
        "Molecular Mass": "186.10",
        "Boiling Point": "296 °C",
        "Melting Point": "25.8 °C",
        "Density": "1.4718 g/cm³ @ Temp: 54 °C"
    }
}