{
    "cas_no": "7244-67-9",
    "key_name": "<span class=\"text-smallcaps\">L</span>-Alanine, <em>N</em>-benzoyl-, methyl ester",
    "cn_name": "Bz-Ala-Ome;",
    "alternate_name": "<span class=\"text-smallcaps\">L</span>-Alanine, <em>N</em>-benzoyl-, methyl ester;Alanine, <em>N</em>-benzoyl-, methyl ester, <span class=\"text-smallcaps\">L</span>-;<em>N</em>-Benzoyl-<span class=\"text-smallcaps\">L</span>-alanine methyl ester;<em>N</em>-Benzoyl-<span class=\"text-smallcaps\">L</span>-alanyl methyl ester;Benzoylalanine methyl ester;<em>N</em>-Benzoylalanine methyl ester",
    "duplicated_cas_no": "23364-17-2",
    "SMILES": "C(N[C@H](C(OC)=O)C)(=O)C1=CC=CC=C1",
    "meta_data": {
        "InChI": "InChI=1S/C11H13NO3/c1-8(11(14)15-2)12-10(13)9-6-4-3-5-7-9/h3-8H,1-2H3,(H,12,13)/t8-/m0/s1",
        "InChIKey": null,
        "Canonical SMILES": "O=C(OC)C(NC(=O)C=1C=CC=CC1)C",
        "Molecular Formula": "C<sub>11</sub>H<sub>13</sub>NO<sub>3</sub>",
        "Molecular Mass": "207.23",
        "Melting Point": "56.5-57.5 °C"
    }
}