{
    "cas_no": "66943-05-3",
    "key_name": "Aza-15-crown-5",
    "cn_name": "氮杂-15-冠醚-5;",
    "alternate_name": "1,4,7,10-Tetraoxa-13-azacyclopentadecane;Monoaza-15-crown-5;Aza-15-crown-5;1-Aza-4,7,10,13-tetraoxacyclopentadecane;1-Aza-15-crown-5;1,4,7,10-Tetraoxa-15-azacyclopentadecane;13-Aza-15-crown-5",
    "duplicated_cas_no": "1426089-99-7",
    "SMILES": "C1COCCOCCOCCOCCN1",
    "meta_data": {
        "InChI": "InChI=1S/C10H21NO4/c1-3-12-5-7-14-9-10-15-8-6-13-4-2-11-1/h11H,1-10H2",
        "InChIKey": null,
        "Canonical SMILES": "O1CCOCCOCCNCCOCC1",
        "Molecular Formula": "C<sub>10</sub>H<sub>21</sub>NO<sub>4</sub>",
        "Molecular Mass": "219.28",
        "Boiling Point": "80-82 °C @ Press: 0.02 Torr",
        "Melting Point": "29 °C"
    }
}