{
    "cas_no": "6050-13-1",
    "key_name": "Diphenic anhydride",
    "cn_name": "联苯酸酐;2,2\"-联苯二甲酸酐;",
    "alternate_name": "Dibenz[<em>c</em>,<em>e</em>]oxepin-5,7-dione;Diphenic anhydride;2,2′-Diphenyldicarboxylic anhydride;2,2′-Biphenyldicarboxylic anhydride;2,2′-Diphenic anhydride;Diphenic acid anhydride;NSC 116225;NSC 67689;2,2′-Biphenyldicarboxylic acid anhydride;Dibenzo[<em>c</em>,<em>e</em>]oxepine-5,7-dione",
    "duplicated_cas_no": "",
    "SMILES": "O=C1C=2C(C=3C(C(=O)O1)=CC=CC3)=CC=CC2",
    "meta_data": {
        "InChI": "InChI=1S/C14H8O3/c15-13-11-7-3-1-5-9(11)10-6-2-4-8-12(10)14(16)17-13/h1-8H",
        "InChIKey": null,
        "Canonical SMILES": "O=C1OC(=O)C=2C=CC=CC2C=3C=CC=CC13",
        "Molecular Formula": "C<sub>14</sub>H<sub>8</sub>O<sub>3</sub>",
        "Molecular Mass": "224.21",
        "Melting Point": "217 °C"
    }
}