{
    "cas_no": "3970-21-6",
    "key_name": "1-(Chloromethoxy)-2-methoxyethane",
    "cn_name": "2-甲氧基乙氧基甲基氯;",
    "alternate_name": "Ethane, 1-(chloromethoxy)-2-methoxy-;1-(Chloromethoxy)-2-methoxyethane;2-Methoxyethoxymethyl chloride;Chloromethyl 2-methoxyethyl ether;2,5-Dioxahexyl chloride;Methoxyethoxymethyl chloride;β-Methoxyethoxymethyl chloride;2-(Chloromethoxy)ethoxymethane",
    "duplicated_cas_no": "847026-64-6;847026-63-5",
    "SMILES": "C(COC)OCCl",
    "meta_data": {
        "InChI": "InChI=1S/C4H9ClO2/c1-6-2-3-7-4-5/h2-4H2,1H3",
        "InChIKey": null,
        "Canonical SMILES": "ClCOCCOC",
        "Molecular Formula": "C<sub>4</sub>H<sub>9</sub>ClO<sub>2</sub>",
        "Molecular Mass": "124.57",
        "Boiling Point": "150 °C",
        "Density": "1.10 g/cm³"
    }
}