{
    "cas_no": "2487-40-3",
    "key_name": "2-Thioxanthine",
    "cn_name": "2-巯基-6-羟基嘌呤;",
    "alternate_name": "6<em>H</em>-Purin-6-one, 1,2,3,9-tetrahydro-2-thioxo-;Xanthine, 2-thio-;6<em>H</em>-Purin-6-one, 1,2,3,7-tetrahydro-2-thioxo-;1,2,3,9-Tetrahydro-2-thioxo-6<em>H</em>-purin-6-one;6-Hydroxy-2-mercaptopurine;2-Mercapto-6-hydroxypurine;6-Hydroxypurine-2-thiol;2-Thioxanthine;2-Thio-6-hydroxypurine;2-Mercaptohypoxanthine;2,3-Dihydro-2-thioxo-9<em>H</em>-purin-6(1<em>H</em>)-one;NSC 36822;NSC 680828;2-Sulfanylidene-2,3,6,7-tetrahydro-1<em>H</em>-purin-6-one;2-Thioxo-2,3-dihydro-1<em>H</em>-purin-6(7<em>H</em>)-one;2-Sulfanyl-7<em>H</em>-purin-6-ol;2-Thioxo-1,2,3,7-tetrahydro-6<em>H</em>-purin-6-one;2-Mercapto-1,9-dihydro-purin-6-one;2-Sulfanyl-1<em>H</em>-purin-6-ol;2-Sulfanyl-6,7-dihydro-1<em>H</em>-purin-6-one;2-Sulfanylidene-3,7-dihydropurin-6-one;2-Sulfanyl-6,9-dihydro-1<em>H</em>-purin-6-one",
    "duplicated_cas_no": "69-90-9;3240-64-0;5167-21-5;6050-40-4",
    "SMILES": "O=C1C2=C(NC(=S)N1)N=CN2",
    "meta_data": {
        "InChI": "InChI=1S/C5H4N4OS/c10-4-2-3(7-1-6-2)8-5(11)9-4/h1H,(H3,6,7,8,9,10,11)",
        "InChIKey": null,
        "Canonical SMILES": "O=C1NC(=S)NC=2N=CNC12",
        "Molecular Formula": "C<sub>5</sub>H<sub>4</sub>N<sub>4</sub>OS",
        "Molecular Mass": "168.18",
        "Melting Point": "&gt;360 °C"
    }
}