{
    "cas_no": "74124-79-1",
    "key_name": "Disuccinimidyl carbonate",
    "cn_name": "N,N\"-二琥珀酰亚胺基碳酸酯;",
    "alternate_name": "Carbonic acid, bis(2,5-dioxo-1-pyrrolidinyl) ester;2,5-Pyrrolidinedione, 1,1′-[carbonylbis(oxy)]bis-;Disuccinimidyl carbonate;<em>N</em>,<em>N</em>′-Disuccinimidyl carbonate;<em>N</em>,<em>N</em>′-Disuccinimido carbonate;Disuccimidyl carbonate;Bis(<em>N</em>-succinimidyl) carbonate;1-[[[(2,5-Dioxo-1-pyrrolidinyl)oxy]carbonyl]oxy]-2,5-pyrrolidinedione;Carbonic acid bis(2,5-dioxopyrrolidin-1-yl) ester;Di(2,5-dioxopyrrolidin-1-yl) carbonate;Bis(succinimidyl) carbonate;<em>N</em>,<em>N</em>-Disuccinimidyl carbonate;Bis(2,5-dioxopyrrolidin-1-yl) carbonate;DSC;Carbonic acid disuccinimidyl ester;Disuccinimide carbonate;Di(<em>N</em>-succinimidyl) carbonate",
    "duplicated_cas_no": "117086-96-1;1259059-67-0",
    "SMILES": "O(C(ON1C(=O)CCC1=O)=O)N2C(=O)CCC2=O",
    "meta_data": {
        "InChI": "InChI=1S/C9H8N2O7/c12-5-1-2-6(13)10(5)17-9(16)18-11-7(14)3-4-8(11)15/h1-4H2",
        "InChIKey": null,
        "Canonical SMILES": "O=C(ON1C(=O)CCC1=O)ON2C(=O)CCC2=O",
        "Molecular Formula": "C<sub>9</sub>H<sub>8</sub>N<sub>2</sub>O<sub>7</sub>",
        "Molecular Mass": "256.17",
        "Melting Point": "209-211 °C"
    }
}