{
    "cas_no": "32809-16-8",
    "key_name": "Procymidone",
    "cn_name": "腐霉利;N-(3,5-二氯苯基)-1,2-二甲基环丙烷-1,2-二甲酰基亚胺;",
    "alternate_name": "3-Azabicyclo[3.1.0]hexane-2,4-dione, 3-(3,5-dichlorophenyl)-1,5-dimethyl-;1,2-Cyclopropanedicarboximide, <em>N</em>-(3,5-dichlorophenyl)-1,2-dimethyl-;3-(3,5-Dichlorophenyl)-1,5-dimethyl-3-azabicyclo[3.1.0]hexane-2,4-dione;1,2-Dimethyl-<em>N</em>-(3,5-dichlorophenyl)cyclopropanedicarboximide;S 7131;Sumilex;Sumisclex;Dicyclidine;Procymidone;Procymidor;Procymidox;Sialex;Dicyclidine (pesticide);Sumilex 50WP;Salithiex;Kenolex;Procilex",
    "duplicated_cas_no": "60120-20-9;68444-90-6",
    "SMILES": "CC12C(C)(C1)C(=O)N(C2=O)C3=CC(Cl)=CC(Cl)=C3",
    "meta_data": {
        "InChI": "InChI=1S/C13H11Cl2NO2/c1-12-6-13(12,2)11(18)16(10(12)17)9-4-7(14)3-8(15)5-9/h3-5H,6H2,1-2H3",
        "InChIKey": null,
        "Canonical SMILES": "O=C1N(C=2C=C(Cl)C=C(Cl)C2)C(=O)C3(C)CC13C",
        "Molecular Formula": "C<sub>13</sub>H<sub>11</sub>Cl<sub>2</sub>NO<sub>2</sub>",
        "Molecular Mass": "284.14",
        "Melting Point": "166 °C"
    }
}