{
    "cas_no": "110-41-8",
    "key_name": "2-Methylundecanal",
    "cn_name": "甲基壬乙醛;2-甲基十一醛;",
    "alternate_name": "Undecanal, 2-methyl-;2-Methylundecanal;Methyl <em>n</em>-nonyl acetaldehyde;Methylnonylacetaldehyde;2-Methyl-1-undecanal;Aldehyde M.N.A.;NSC 46127;Aldehyde C-12 MNA",
    "duplicated_cas_no": "135026-96-9",
    "SMILES": "C(CCCCCCCC)C(C=O)C",
    "meta_data": {
        "InChI": "InChI=1S/C12H24O/c1-3-4-5-6-7-8-9-10-12(2)11-13/h11-12H,3-10H2,1-2H3",
        "InChIKey": null,
        "Canonical SMILES": "O=CC(C)CCCCCCCCC",
        "Molecular Formula": "C<sub>12</sub>H<sub>24</sub>O",
        "Molecular Mass": "184.32",
        "Boiling Point": "119-122 °C @ Press: 16 Torr",
        "Density": "0.836 g/cm³ @ Temp: 0 °C"
    }
}