{
    "cas_no": "791-29-7",
    "key_name": "Methyltriphenylsilane",
    "cn_name": "甲基三苯基硅烷;",
    "alternate_name": "Benzene, 1,1′,1′′-(methylsilylidyne)tris-;Silane, methyltriphenyl-;1,1′,1′′-(Methylsilylidyne)tris[benzene];Methyltriphenylsilane;Triphenylmethylsilane",
    "duplicated_cas_no": "",
    "SMILES": "[Si](C)(C1=CC=CC=C1)(C2=CC=CC=C2)C3=CC=CC=C3",
    "meta_data": {
        "InChI": "InChI=1S/C19H18Si/c1-20(17-11-5-2-6-12-17,18-13-7-3-8-14-18)19-15-9-4-10-16-19/h2-16H,1H3",
        "InChIKey": null,
        "Canonical SMILES": "C=1C=CC(=CC1)[Si](C=2C=CC=CC2)(C=3C=CC=CC3)C",
        "Molecular Formula": "C<sub>19</sub>H<sub>18</sub>Si",
        "Molecular Mass": "274.43",
        "Boiling Point": "198-204 °C @ Press: 10 Torr",
        "Melting Point": "67-67.5 °C"
    }
}