{
    "cas_no": "71441-76-4",
    "key_name": "Cyclopropanecarboxylic acid, 1-methyl-, ethyl ester",
    "cn_name": null,
    "alternate_name": "Cyclopropanecarboxylic acid, 1-methyl-, ethyl ester;Ethyl 1-methylcyclopropanecarboxylate;1-Methylcyclopropanecarboxylic acid ethyl ester",
    "duplicated_cas_no": "",
    "SMILES": "C(OCC)(=O)C1(C)CC1",
    "meta_data": {
        "InChI": "InChI=1S/C7H12O2/c1-3-9-6(8)7(2)4-5-7/h3-5H2,1-2H3",
        "InChIKey": null,
        "Canonical SMILES": "O=C(OCC)C1(C)CC1",
        "Molecular Formula": "C<sub>7</sub>H<sub>12</sub>O<sub>2</sub>",
        "Molecular Mass": "128.17",
        "Boiling Point": "136-138 °C"
    }
}