{
    "cas_no": "2809-67-8",
    "key_name": "2-Octyne",
    "cn_name": "2-辛炔;2-辛炔;",
    "alternate_name": "2-Octyne;Methylpentylacetylene",
    "duplicated_cas_no": "",
    "SMILES": "C(CC#CC)CCC",
    "meta_data": {
        "InChI": "InChI=1S/C8H14/c1-3-5-7-8-6-4-2/h3,5,7-8H2,1-2H3",
        "InChIKey": null,
        "Canonical SMILES": "C(#CCCCCC)C",
        "Molecular Formula": "C<sub>8</sub>H<sub>14</sub>",
        "Molecular Mass": "110.20",
        "Boiling Point": "137.6 °C",
        "Melting Point": "-61.6 °C",
        "Density": "0.7596 g/cm³ @ Temp: 20 °C"
    }
}