{
    "cas_no": "74266-68-5",
    "key_name": "3-Fluoro-2-methoxybenzaldehyde",
    "cn_name": "3-氟-2-甲氧基苯甲醛;",
    "alternate_name": "Benzaldehyde, 3-fluoro-2-methoxy-;3-Fluoro-2-methoxybenzaldehyde",
    "duplicated_cas_no": "",
    "SMILES": "C(=O)C1=C(OC)C(F)=CC=C1",
    "meta_data": {
        "InChI": "InChI=1S/C8H7FO2/c1-11-8-6(5-10)3-2-4-7(8)9/h2-5H,1H3",
        "InChIKey": null,
        "Canonical SMILES": "O=CC=1C=CC=C(F)C1OC",
        "Molecular Formula": "C<sub>8</sub>H<sub>7</sub>FO<sub>2</sub>",
        "Molecular Mass": "154.14",
        "Boiling Point": "82 °C @ Press: 12 Torr",
        "Melting Point": "47-48 °C"
    }
}