{
    "cas_no": "4518-10-9",
    "key_name": "Methyl 3-aminobenzoate",
    "cn_name": "3-氨基苯甲酸甲酯;甲基-3-氨基苯甲酸酯;间氨基苯甲酸甲酯;3-氨基苯甲酸甲酯;",
    "alternate_name": "Benzoic acid, 3-amino-, methyl ester;Benzoic acid, <em>m</em>-amino-, methyl ester;Methyl <em>m</em>-aminobenzoate;Methyl 3-aminobenzoate;3-(Methoxycarbonyl)aniline;3-Carbomethoxyaniline;3-Aminobenzoic acid methyl ester;<em>m</em>-Aminobenzoic acid methyl ester;Methyl 3-aminophenylcarboxylate;(3-(Methoxycarbonyl)phenyl)amine",
    "duplicated_cas_no": "",
    "SMILES": "C(OC)(=O)C1=CC(N)=CC=C1",
    "meta_data": {
        "InChI": "InChI=1S/C8H9NO2/c1-11-8(10)6-3-2-4-7(9)5-6/h2-5H,9H2,1H3",
        "InChIKey": null,
        "Canonical SMILES": "O=C(OC)C=1C=CC=C(N)C1",
        "Molecular Formula": "C<sub>8</sub>H<sub>9</sub>NO<sub>2</sub>",
        "Molecular Mass": "151.16",
        "Boiling Point": "152-153 °C @ Press: 11 Torr",
        "Melting Point": "39 °C"
    }
}