{
    "cas_no": "7647-10-1",
    "key_name": "Palladium chloride",
    "cn_name": "氯化钯;无水氯化钯;",
    "alternate_name": "Palladium chloride (PdCl<sub>2</sub>);Palladium(II) chloride;Palladium dichloride;Palladous chloride;Dichloropalladium;Enplate Activator 440;Palladium chloride;Niklad 262;NSC 146183",
    "duplicated_cas_no": "",
    "SMILES": "[Pd](Cl)Cl",
    "meta_data": {
        "InChI": "InChI=1S/2ClH.Pd/h2*1H;/q;;+2/p-2",
        "InChIKey": null,
        "Canonical SMILES": "Cl[Pd]Cl",
        "Molecular Formula": "Cl<sub>2</sub>Pd",
        "Molecular Mass": "",
        "Melting Point": "678-680 °C",
        "Density": "4 x 10<sup>-6</sup> g/cm³ @ Temp: 18 °C"
    }
}