{
    "cas_no": "3437-30-7",
    "key_name": "3,3-Dimethylpyrrolidine",
    "cn_name": null,
    "alternate_name": "Pyrrolidine, 3,3-dimethyl-;3,3-Dimethylpyrrolidine",
    "duplicated_cas_no": "",
    "SMILES": "CC1(C)CCNC1",
    "meta_data": {
        "InChI": "InChI=1S/C6H13N/c1-6(2)3-4-7-5-6/h7H,3-5H2,1-2H3",
        "InChIKey": null,
        "Canonical SMILES": "N1CCC(C)(C)C1",
        "Molecular Formula": "C<sub>6</sub>H<sub>13</sub>N",
        "Molecular Mass": "99.17",
        "Boiling Point": "81 °C @ Press: 13 Torr",
        "Density": "0.8422 g/cm³ @ Temp: 20 °C"
    }
}