{
    "cas_no": "694-59-7",
    "key_name": "Pyridine <em>N</em>-oxide",
    "cn_name": "吡啶-N-氧化物;",
    "alternate_name": "Pyridine, 1-oxide;Pyridine <em>N</em>-oxide;Pyridine oxide;NSC 18250;1-Oxidopyridin-1-ium",
    "duplicated_cas_no": "110408-34-9",
    "SMILES": "O=N=1C=CC=CC1",
    "meta_data": {
        "InChI": "InChI=1S/C5H5NO/c7-6-4-2-1-3-5-6/h1-5H",
        "InChIKey": null,
        "Canonical SMILES": "O=N=1C=CC=CC1",
        "Molecular Formula": "C<sub>5</sub>H<sub>5</sub>NO",
        "Molecular Mass": "95.10",
        "Boiling Point": "100-105 °C",
        "Melting Point": "65.5 °C"
    }
}