{
    "cas_no": "37763-43-2",
    "key_name": "1-Bromo-2-(bromomethyl)naphthalene",
    "cn_name": "1-溴-2-(溴甲基)萘;",
    "alternate_name": "Naphthalene, 1-bromo-2-(bromomethyl)-;1-Bromo-2-(bromomethyl)naphthalene;NSC 97068",
    "duplicated_cas_no": "",
    "SMILES": "BrC=1C2=C(C=CC1CBr)C=CC=C2",
    "meta_data": {
        "InChI": "InChI=1S/C11H8Br2/c12-7-9-6-5-8-3-1-2-4-10(8)11(9)13/h1-6H,7H2",
        "InChIKey": null,
        "Canonical SMILES": "BrC=1C=2C=CC=CC2C=CC1CBr",
        "Molecular Formula": "C<sub>11</sub>H<sub>8</sub>Br<sub>2</sub>",
        "Molecular Mass": "299.99",
        "Melting Point": "103.5-105.5 °C"
    }
}