{
    "cas_no": "79-03-8",
    "key_name": "Propionyl chloride",
    "cn_name": "丙酰氯;",
    "alternate_name": "Propanoyl chloride;Propionyl chloride;Propionic acid chloride;Chloro ethyl ketone;NSC 83547;Propionoyl chloride;Prorionyl chloride;Ethyl chloroform",
    "duplicated_cas_no": "",
    "SMILES": "C(CC)(Cl)=O",
    "meta_data": {
        "InChI": "InChI=1S/C3H5ClO/c1-2-3(4)5/h2H2,1H3",
        "InChIKey": null,
        "Canonical SMILES": "O=C(Cl)CC",
        "Molecular Formula": "C<sub>3</sub>H<sub>5</sub>ClO",
        "Molecular Mass": "92.52",
        "Boiling Point": "80 °C",
        "Melting Point": "-94 °C"
    }
}