{
    "cas_no": "3308-02-9",
    "key_name": "2-Phenyl-3-pyridinol",
    "cn_name": null,
    "alternate_name": "3-Pyridinol, 2-phenyl-;2-Phenyl-3-pyridinol;3-Hydroxy-2-phenylpyridine;2-Phenyl-3-hydroxypyridine",
    "duplicated_cas_no": "",
    "SMILES": "OC1=C(C2=CC=CC=C2)N=CC=C1",
    "meta_data": {
        "InChI": "InChI=1S/C11H9NO/c13-10-7-4-8-12-11(10)9-5-2-1-3-6-9/h1-8,13H",
        "InChIKey": null,
        "Canonical SMILES": "OC1=CC=CN=C1C=2C=CC=CC2",
        "Molecular Formula": "C<sub>11</sub>H<sub>9</sub>NO",
        "Molecular Mass": "171.20",
        "Boiling Point": "320 °C @ Press: 760 Torr",
        "Melting Point": "205 °C"
    }
}