{
    "cas_no": "3182-95-4",
    "key_name": "<span class=\"text-smallcaps\">L</span>-Phenylalaninol",
    "cn_name": "L-苯丙氨醇;(S)-2-苯丙氨醇;",
    "alternate_name": "Benzenepropanol, β-amino-, (β<em>S</em>)-;1-Propanol, 2-amino-3-phenyl-, <span class=\"text-smallcaps\">L</span>-;Benzenepropanol, β-amino-, (<em>S</em>)-;(β<em>S</em>)-β-Aminobenzenepropanol;<em>l</em>-Phenylalaninol;<span class=\"text-smallcaps\">L</span>-2-Amino-3-phenylpropanol;(<em>S</em>)-2-Amino-3-phenyl-1-propanol;(<em>S</em>)-(-)-Phenylalaninol;<span class=\"text-smallcaps\">L</span>-Phenylalaninol;(-)-2-Amino-3-phenylpropanol;(<em>S</em>)-2-Amino-3-phenylpropanol;(<em>S</em>)-2-Benzylethanolamine;(<em>S</em>)-2-Amino-1-phenyl-3-propanol;(<em>S</em>)-2-Amino-2-benzylethanol;(<em>S</em>)-Phenylalaninol;(<em>S</em>)-2-Amino-1-hydroxy-3-phenylpropane;(<em>S</em>)-(-)-2-Amino-3-phenyl-1-propanol;(2<em>S</em>)-2-Amino-3-phenyl-1-propanol;<em>S</em>-(-)-2-Amino-3-phenylpropanol;(2S)-2-Amino-3-phenyl-1-propanol;(<em>S</em>)-(-)-2-Amino-3-phenyl-1-glycinol;[(<em>S</em>)-1-Benzyl-2-hydroxyethyl]amine;(2<em>S</em>)-3-Phenyl-2-amino-1-propanol;(<em>S</em>)-3-Phenyl-2-amino-1-propanol;<span class=\"text-smallcaps\">L</span>-(-)-2-Amino-3-phenyl-1-propanol;((1<em>S</em>)-1-Hydroxymethyl-2-phenylethyl)amine;<em>N</em>-((2<em>S</em>)-1-Hydroxy-3-phenylpropan-2-yl)amine;<span class=\"text-smallcaps\">L</span>-2-Amino-3-phenyl-1-propanol;<span class=\"text-smallcaps\">L</span>-Phenylalanilol;PAL 329",
    "duplicated_cas_no": "206532-78-7",
    "SMILES": "C([C@@H](CO)N)C1=CC=CC=C1",
    "meta_data": {
        "InChI": "InChI=1S/C9H13NO/c10-9(7-11)6-8-4-2-1-3-5-8/h1-5,9,11H,6-7,10H2/t9-/m0/s1",
        "InChIKey": null,
        "Canonical SMILES": "OCC(N)CC=1C=CC=CC1",
        "Molecular Formula": "C<sub>9</sub>H<sub>13</sub>NO",
        "Molecular Mass": "151.21",
        "Melting Point": "85-86 °C"
    }
}