{
    "cas_no": "1122-42-5",
    "key_name": "2-Iodo-1,4-dimethylbenzene",
    "cn_name": "1,4-二甲基-2-碘苯;2-碘对二甲苯;",
    "alternate_name": "Benzene, 2-iodo-1,4-dimethyl-;<em>p</em>-Xylene, 2-iodo-;2-Iodo-1,4-dimethylbenzene;2-Iodo-<em>p</em>-xylene;1-Iodo-2,5-dimethylbenzene;2,5-Dimethyliodobenzene;1,4-Dimethyl-2-iodobenzene;NSC 3779;2,5-Dimethyl-1-iodobenzene",
    "duplicated_cas_no": "",
    "SMILES": "IC1=C(C)C=CC(C)=C1",
    "meta_data": {
        "InChI": "InChI=1S/C8H9I/c1-6-3-4-7(2)8(9)5-6/h3-5H,1-2H3",
        "InChIKey": null,
        "Canonical SMILES": "IC1=CC(=CC=C1C)C",
        "Molecular Formula": "C<sub>8</sub>H<sub>9</sub>I",
        "Molecular Mass": "232.06",
        "Boiling Point": "84-85 °C @ Press: 14-15 Torr",
        "Density": "1.585 g/cm³ @ Temp: 32 °C"
    }
}