{
    "cas_no": "40150-92-3",
    "key_name": "1-(4-Isobutylphenyl)ethanol",
    "cn_name": null,
    "alternate_name": "Benzenemethanol, α-methyl-4-(2-methylpropyl)-;α-Methyl-4-(2-methylpropyl)benzenemethanol;1-(4-Isobutylphenyl)ethanol;α-(4-Isobutylphenyl)ethanol;α-(4-Isobutylphenyl)ethyl alcohol;1-(<em>p</em>-Isobutylphenyl)ethanol;4-(2-Methylpropyl)-α-methylbenzenemethanol;1-(4′-Isobutylphenyl)ethanol;1-(4-Isobutylphenyl)ethan-1-ol;(1-Hydroxyethyl)-4-(2-methylpropyl)benzene;1-[4-(2-Methylpropyl)phenyl]ethanol;1-[4-(2-Methylpropyl)phenyl]ethan-1-ol",
    "duplicated_cas_no": "110773-65-4",
    "SMILES": "C(C(C)C)C1=CC=C(C(C)O)C=C1",
    "meta_data": {
        "InChI": "InChI=1S/C12H18O/c1-9(2)8-11-4-6-12(7-5-11)10(3)13/h4-7,9-10,13H,8H2,1-3H3",
        "InChIKey": null,
        "Canonical SMILES": "OC(C1=CC=C(C=C1)CC(C)C)C",
        "Molecular Formula": "C<sub>12</sub>H<sub>18</sub>O",
        "Molecular Mass": "178.27",
        "Boiling Point": "111 °C @ Press: 1 Torr"
    }
}