{
    "cas_no": "84-79-7",
    "key_name": "Lapachol",
    "cn_name": "黄钟花醌;黄钟花醌;拉帕酚;拉帕酸;五加酚;",
    "alternate_name": "1,4-Naphthalenedione, 2-hydroxy-3-(3-methyl-2-buten-1-yl)-;Lapachol;1,4-Naphthoquinone, 2-hydroxy-3-(3-methyl-2-butenyl)-;1,4-Naphthalenedione, 2-hydroxy-3-(3-methyl-2-butenyl)-;2-Hydroxy-3-(3-methyl-2-buten-1-yl)-1,4-naphthalenedione;C.I. 75490;Bethabarra Wood;C.I. Natural Yellow 16;2-Hydroxy-3-(3-methyl-2-butenyl)-1,4-naphthoquinone;Ipe-tobacco Wood;Lapachol Wood;Surinam Greenheart Wood;Taiguic acid;Taigu Wood;Tecomin;NSC 11905;Greenhartin;2-Hydroxy-3-(3-methyl-2-butenyl)-1,4-naphthalenedione;NSC 629756;2-Hydroxy-3-(3-methylbut-2-en-1-yl)-1,4-dihydronaphthalene-1,4-dione",
    "duplicated_cas_no": "",
    "SMILES": "O=C1C=2C(C(=O)C(O)=C1CC=C(C)C)=CC=CC2",
    "meta_data": {
        "InChI": "InChI=1S/C15H14O3/c1-9(2)7-8-12-13(16)10-5-3-4-6-11(10)14(17)15(12)18/h3-7,18H,8H2,1-2H3",
        "InChIKey": null,
        "Canonical SMILES": "O=C1C(O)=C(C(=O)C=2C=CC=CC12)CC=C(C)C",
        "Molecular Formula": "C<sub>15</sub>H<sub>14</sub>O<sub>3</sub>",
        "Molecular Mass": "242.27",
        "Melting Point": "139.5 °C"
    }
}