{
    "cas_no": "5836-29-3",
    "key_name": "Coumatetralyl",
    "cn_name": "4-羟基-3-(1,2,3,4-四氢-1-萘基)香豆素;杀鼠醚;杀鼠迷;杀鼠萘;",
    "alternate_name": "2<em>H</em>-1-Benzopyran-2-one, 4-hydroxy-3-(1,2,3,4-tetrahydro-1-naphthalenyl)-;Coumarin, 4-hydroxy-3-(1,2,3,4-tetrahydro-1-naphthyl)-;4-Hydroxy-3-(1,2,3,4-tetrahydro-1-naphthalenyl)-2<em>H</em>-1-benzopyran-2-one;Coumatetralyl;Racumin;3-(α-Tetralyl)-4-Hydroxycoumarin;4-Hydroxy-3-(1,2,3,4-tetrahydro-1-naphthyl)coumarin;3-(1,2,3,4-Tetrahydro-1-naphthyl)-4-hydroxycoumarin;3-(α-Tetralinyl)-4-hydroxycoumarin;Rodentin;Endrocide;Racumin 57;Murisan A",
    "duplicated_cas_no": "",
    "SMILES": "OC1=C(C2C=3C(CCC2)=CC=CC3)C(=O)OC=4C1=CC=CC4",
    "meta_data": {
        "InChI": "InChI=1S/C19H16O3/c20-18-15-9-3-4-11-16(15)22-19(21)17(18)14-10-5-7-12-6-1-2-8-13(12)14/h1-4,6,8-9,11,14,20H,5,7,10H2",
        "InChIKey": null,
        "Canonical SMILES": "O=C1OC=2C=CC=CC2C(O)=C1C3C=4C=CC=CC4CCC3",
        "Molecular Formula": "C<sub>19</sub>H<sub>16</sub>O<sub>3</sub>",
        "Molecular Mass": "292.33",
        "Melting Point": "172-176 °C"
    }
}