{
    "cas_no": "1913-12-8",
    "key_name": "<span class=\"text-smallcaps\">L</span>-Aspartic acid, <em>N</em>-[(1,1-dimethylethoxy)carbonyl]-, 4-(1,1-dimethylethyl) ester, compd. with <em>N</em>-cyclohexylcyclohexanamine (1:1)",
    "cn_name": "N-叔丁氧羰基-L-天冬氨酸4-叔丁酯二环己胺盐;",
    "alternate_name": "<span class=\"text-smallcaps\">L</span>-Aspartic acid, <em>N</em>-[(1,1-dimethylethoxy)carbonyl]-, 4-(1,1-dimethylethyl) ester, compd. with <em>N</em>-cyclohexylcyclohexanamine (1:1);Aspartic acid, <em>N</em>-carboxy-, <em>N</em>,4-di-<em>tert</em>-butyl ester, compd. with dicyclohexylamine (1:1), <span class=\"text-smallcaps\">L</span>-;Aspartic acid, <em>N</em>-carboxy-, <em>N</em>,4-di-<em>tert</em>-butyl ester, compd. with dicyclohexylamine",
    "duplicated_cas_no": "",
    "SMILES": "[C@@H](CC(OC(C)(C)C)=O)(NC(OC(C)(C)C)=O)C(O)=O.N(C1CCCCC1)C2CCCCC2",
    "meta_data": {
        "InChI": "InChI=1S/C13H23NO6.C12H23N/c1-12(2,3)19-9(15)7-8(10(16)17)14-11(18)20-13(4,5)6;1-3-7-11(8-4-1)13-12-9-5-2-6-10-12/h8H,7H2,1-6H3,(H,14,18)(H,16,17);11-13H,1-10H2/t8-;/m0./s1",
        "InChIKey": null,
        "Canonical SMILES": "O=C(OC(C)(C)C)NC(C(=O)O)CC(=O)OC(C)(C)C.N(C1CCCCC1)C2CCCCC2",
        "Molecular Formula": "C<sub>13</sub>H<sub>23</sub>NO<sub>6</sub>.C<sub>12</sub>H<sub>23</sub>N",
        "Molecular Mass": "",
        "Melting Point": "145-147 °C"
    }
}