{
    "cas_no": "6474-90-4",
    "key_name": "Tetrahydroalstonine",
    "cn_name": null,
    "alternate_name": "Oxayohimban-16-carboxylic acid, 16,17-didehydro-19-methyl-, methyl ester, (19α,20α)-;Alstonine, 3,4,5,6-tetrahydro-;Tetrahydroalstonine;Alstonine, 3,4,5,6-tetrahydro-, (3α)-;(-)-Tetrahydroalstonine;(3α)-3,4,5,6-Tetrahydroalstonine;4<em>H</em>-Indolo[2,3-<em>a</em>]pyrano[3,4-<em>g</em>]quinolizine-1-carboxylic acid, 4a,5,7,8,13,13b,14,14a-octahydro-4-methyl-, methyl ester, (4<em>S</em>,4a<em>S</em>,13b<em>S</em>,14a<em>S</em>)-;NSC 72115",
    "duplicated_cas_no": "",
    "SMILES": "C(OC)(=O)C=1[C@]2(C[C@]3(C4=C(C=5C(N4)=CC=CC5)CCN3C[C@]2([C@H](C)OC1)[H])[H])[H]",
    "meta_data": {
        "InChI": "InChI=1S/C21H24N2O3/c1-12-16-10-23-8-7-14-13-5-3-4-6-18(13)22-20(14)19(23)9-15(16)17(11-26-12)21(24)25-2/h3-6,11-12,15-16,19,22H,7-10H2,1-2H3/t12-,15-,16-,19-/m0/s1",
        "InChIKey": null,
        "Canonical SMILES": "O=C(OC)C1=COC(C)C2CN3CCC=4C=5C=CC=CC5NC4C3CC12",
        "Molecular Formula": "C<sub>21</sub>H<sub>24</sub>N<sub>2</sub>O<sub>3</sub>",
        "Molecular Mass": "352.43",
        "Melting Point": "230-231 °C"
    }
}