{
    "cas_no": "926-02-3",
    "key_name": "2-(Ethenyloxy)-2-methylpropane",
    "cn_name": "叔丁基乙烯醚;",
    "alternate_name": "Propane, 2-(ethenyloxy)-2-methyl-;Ether, <em>tert</em>-butyl vinyl;2-(Ethenyloxy)-2-methylpropane;<em>tert</em>-Butyl vinyl ether;<em>tert</em>-Butoxyethylene;<em>t</em>-Butyl vinyl ether;<em>tert</em>-Butoxyethene;2-Methyl-2-(vinyloxy)propane;2-Ethenoxy-2-methylpropane",
    "duplicated_cas_no": "2056117-93-0",
    "SMILES": "O(C(C)(C)C)C=C",
    "meta_data": {
        "InChI": "InChI=1S/C6H12O/c1-5-7-6(2,3)4/h5H,1H2,2-4H3",
        "InChIKey": null,
        "Canonical SMILES": "O(C=C)C(C)(C)C",
        "Molecular Formula": "C<sub>6</sub>H<sub>12</sub>O",
        "Molecular Mass": "100.16",
        "Boiling Point": "75 °C",
        "Melting Point": "-112 °C",
        "Density": "0.7726 g/cm³ @ Temp: 20 °C"
    }
}