{
    "cas_no": "626-44-8",
    "key_name": "1,3,5-Triiodobenzene",
    "cn_name": null,
    "alternate_name": "Benzene, 1,3,5-triiodo-;1,3,5-Triiodobenzene",
    "duplicated_cas_no": "",
    "SMILES": "IC1=CC(I)=CC(I)=C1",
    "meta_data": {
        "InChI": "InChI=1S/C6H3I3/c7-4-1-5(8)3-6(9)2-4/h1-3H",
        "InChIKey": null,
        "Canonical SMILES": "IC=1C=C(I)C=C(I)C1",
        "Molecular Formula": "C<sub>6</sub>H<sub>3</sub>I<sub>3</sub>",
        "Molecular Mass": "455.80",
        "Melting Point": "184.2 °C"
    }
}