{
    "cas_no": "29702-43-0",
    "key_name": "2-Fluoro-2-deoxy-<span class=\"text-smallcaps\">D</span>-glucose",
    "cn_name": "2-脱氧-2-氟-D-葡萄糖;",
    "alternate_name": "<span class=\"text-smallcaps\">D</span>-Glucose, 2-deoxy-2-fluoro-;2-Deoxy-2-fluoro-<span class=\"text-smallcaps\">D</span>-glucose;2-Fluoro-2-deoxy-<span class=\"text-smallcaps\">D</span>-glucose;2-Fluorodeoxyglucose;2-Deoxy-2-fluoroglucose;Fluorodeoxyglucose;FDG;2-Deoxy-2-fluoro-<span class=\"text-smallcaps\">D</span>-glucopyranose;2-Fluoro-2-deoxy-<em>d</em>-glucopyranose",
    "duplicated_cas_no": "23094-77-1;86783-82-6;128613-29-6;1326775-54-5",
    "SMILES": "[C@H]([C@@H]([C@@H](CO)O)O)([C@H](C=O)F)O",
    "meta_data": {
        "InChI": "InChI=1S/C6H11FO5/c7-3(1-8)5(11)6(12)4(10)2-9/h1,3-6,9-12H,2H2/t3-,4+,5+,6+/m0/s1",
        "InChIKey": null,
        "Canonical SMILES": "O=CC(F)C(O)C(O)C(O)CO",
        "Molecular Formula": "C<sub>6</sub>H<sub>11</sub>FO<sub>5</sub>",
        "Molecular Mass": "182.15",
        "Melting Point": "170-176 °C"
    }
}