{
    "cas_no": "489-84-9",
    "key_name": "Guaiazulene",
    "cn_name": "愈创奥;愈创蓝油烃;7-异丙基-1,4-二甲基兰油烃;1,4-二甲基-7-异丙基薁;",
    "alternate_name": "Azulene, 1,4-dimethyl-7-(1-methylethyl)-;Azulene, 7-isopropyl-1,4-dimethyl-;1,4-Dimethyl-7-(1-methylethyl)azulene;Guaiazulene;Azulon;1,4-Dimethyl-7-isopropylazulene;Silazulon;<em>S</em>-Guaiazulene;3,8-Dimethyl-5-(2-propyl)azulene;7-Isopropyl-1,4-dimethylazulene;Eucazulen;Kessazulen;Purazulen;Azulen-Beris;Uroazulen;Azunol;Cuteazul;Vetivazulen;AZ 8;Vaumigan;AZ 8 Beris;NSC 4714;Guaiazulene blue;1,4-Dimethyl-7-propan-2-ylazulene;1,4-Dimethyl-7-(propan-2-yl)azulene",
    "duplicated_cas_no": "12040-47-0",
    "SMILES": "CC=1C=2C(C(C)=CC=C(C(C)C)C2)=CC1",
    "meta_data": {
        "InChI": "InChI=1S/C15H18/c1-10(2)13-7-5-11(3)14-8-6-12(4)15(14)9-13/h5-10H,1-4H3",
        "InChIKey": null,
        "Canonical SMILES": "C=1C=C(C2=CC=C(C2=CC1C(C)C)C)C",
        "Molecular Formula": "C<sub>15</sub>H<sub>18</sub>",
        "Molecular Mass": "198.30",
        "Boiling Point": "153 °C",
        "Melting Point": "31.5 °C",
        "Density": "0.974 g/cm³ @ Temp: 22 °C"
    }
}