{
    "cas_no": "822-48-0",
    "key_name": "3-Chloromethyl-3-methyloxacyclobutane",
    "cn_name": "3-氯甲基-3-甲基氧杂环丁烷;",
    "alternate_name": "Oxetane, 3-(chloromethyl)-3-methyl-;3-(Chloromethyl)-3-methyloxetane;3-Methyl-3-(chloromethyl)oxacyclobutane;3-Chloromethyl-3-methyloxetane;3-Chloromethyl-3-methyloxacyclobutane",
    "duplicated_cas_no": "",
    "SMILES": "C(Cl)C1(C)COC1",
    "meta_data": {
        "InChI": "InChI=1S/C5H9ClO/c1-5(2-6)3-7-4-5/h2-4H2,1H3",
        "InChIKey": null,
        "Canonical SMILES": "ClCC1(C)COC1",
        "Molecular Formula": "C<sub>5</sub>H<sub>9</sub>ClO",
        "Molecular Mass": "120.58",
        "Boiling Point": "154.8 °C",
        "Melting Point": "138 °C",
        "Density": "1.093-6 g/cm³ @ Temp: 20 °C"
    }
}