{
    "cas_no": "520-33-2",
    "key_name": "Hesperetin",
    "cn_name": "橙皮素;",
    "alternate_name": "4<em>H</em>-1-Benzopyran-4-one, 2,3-dihydro-5,7-dihydroxy-2-(3-hydroxy-4-methoxyphenyl)-, (2<em>S</em>)-;Flavanone, 3′,5,7-trihydroxy-4′-methoxy-;4<em>H</em>-1-Benzopyran-4-one, 2,3-dihydro-5,7-dihydroxy-2-(3-hydroxy-4-methoxyphenyl)-, (<em>S</em>)-;Hesperetin;(2<em>S</em>)-2,3-Dihydro-5,7-dihydroxy-2-(3-hydroxy-4-methoxyphenyl)-4<em>H</em>-1-benzopyran-4-one;5,7,3′-Trihydroxy-4′-methoxyflavanone;3′,5,7-Trihydroxy-4′-methoxyflavanone;(<em>S</em>)-2,3-Dihydro-5,7-dihydroxy-2-(3-hydroxy-4-methoxyphenyl)-4<em>H</em>-1-benzopyran-4-one;Hesperitin;Eriodictyol 4′-monomethyl ether;NSC 57654;(-)-Hesperetin;(2S)-5,7-Dihydroxy-2-(3-hydroxy-4-methoxyphenyl)-2,3-dihydrochromen-4-one;TCI-CA 05",
    "duplicated_cas_no": "17654-25-0;25465-97-8;53077-91-1;1448540-79-1",
    "SMILES": "O=C1C=2C(O[C@@H](C1)C3=CC(O)=C(OC)C=C3)=CC(O)=CC2O",
    "meta_data": {
        "InChI": "InChI=1S/C16H14O6/c1-21-13-3-2-8(4-10(13)18)14-7-12(20)16-11(19)5-9(17)6-15(16)22-14/h2-6,14,17-19H,7H2,1H3/t14-/m0/s1",
        "InChIKey": null,
        "Canonical SMILES": "O=C1C=2C(O)=CC(O)=CC2OC(C3=CC=C(OC)C(O)=C3)C1",
        "Molecular Formula": "C<sub>16</sub>H<sub>14</sub>O<sub>6</sub>",
        "Molecular Mass": "302.28",
        "Melting Point": "227.5 °C"
    }
}