{
    "cas_no": "2445-53-6",
    "key_name": "Methylsilanetriol",
    "cn_name": null,
    "alternate_name": "Silanetriol, 1-methyl-;Silanetriol, methyl-;1-Methylsilanetriol;Methaneorthosiliconic acid;Methylsilanetriol;Trihydroxy(methyl)silane;Methyltrihydroxysilane;Tris(hydroxy)methylsilane",
    "duplicated_cas_no": "",
    "SMILES": "[Si](C)(O)(O)O",
    "meta_data": {
        "InChI": "InChI=1S/CH6O3Si/c1-5(2,3)4/h2-4H,1H3",
        "InChIKey": null,
        "Canonical SMILES": "O[Si](O)(O)C",
        "Molecular Formula": "CH<sub>6</sub>O<sub>3</sub>Si",
        "Molecular Mass": "94.14",
        "Boiling Point": "142-145 °C @ Press: 9 Torr",
        "Density": "0.8785 g/cm³ @ Temp: 30 °C"
    }
}