{
    "cas_no": "1459-10-5",
    "key_name": "Tetradecylbenzene",
    "cn_name": "十四烷基苯;",
    "alternate_name": "Benzene, tetradecyl-;Tetradecane, 1-phenyl-;Tetradecylbenzene;1-Phenyltetradecane;1-Phenyl-<em>n</em>-tetradecane;Tetradecylbenzol;<em>n</em>-Tetradecylbenzene",
    "duplicated_cas_no": "",
    "SMILES": "C(CCCCCCCCCCCCC)C1=CC=CC=C1",
    "meta_data": {
        "InChI": "InChI=1S/C20H34/c1-2-3-4-5-6-7-8-9-10-11-12-14-17-20-18-15-13-16-19-20/h13,15-16,18-19H,2-12,14,17H2,1H3",
        "InChIKey": null,
        "Canonical SMILES": "C=1C=CC(=CC1)CCCCCCCCCCCCCC",
        "Molecular Formula": "C<sub>20</sub>H<sub>34</sub>",
        "Molecular Mass": "274.48",
        "Boiling Point": "359 °C",
        "Melting Point": "16.15 °C",
        "Density": "0.8549 g/cm³ @ Temp: 20 °C"
    }
}