{
    "cas_no": "72324-39-1",
    "key_name": "5-Acetyl-2,2-dimethyl-1,3-dioxane-4,6-dione",
    "cn_name": null,
    "alternate_name": "1,3-Dioxane-4,6-dione, 5-acetyl-2,2-dimethyl-;5-Acetyl-2,2-dimethyl-1,3-dioxane-4,6-dione",
    "duplicated_cas_no": "",
    "SMILES": "C(C)(=O)C1C(=O)OC(C)(C)OC1=O",
    "meta_data": {
        "InChI": "InChI=1S/C8H10O5/c1-4(9)5-6(10)12-8(2,3)13-7(5)11/h5H,1-3H3",
        "InChIKey": null,
        "Canonical SMILES": "O=C1OC(OC(=O)C1C(=O)C)(C)C",
        "Molecular Formula": "C<sub>8</sub>H<sub>10</sub>O<sub>5</sub>",
        "Molecular Mass": "186.16",
        "Melting Point": "82-85 °C"
    }
}