{
    "cas_no": "90-64-2",
    "key_name": "Mandelic acid",
    "cn_name": "DL-扁桃酸;扁桃酸;苯羟乙酸;苦杏仁酸;alpha-羟基苯乙酸;",
    "alternate_name": "Benzeneacetic acid, α-hydroxy-;Mandelic acid;α-Hydroxybenzeneacetic acid;α-Hydroxyphenylacetic acid;α-Hydroxy-α-toluic acid;Paramandelic acid;Phenylglycolic acid;Phenylhydroxyacetic acid;Uromaline;Almond acid;2-Phenylglycolic acid;2-Hydroxy-2-phenylacetic acid;Amygdalic acid;2-Phenyl-2-hydroxyacetic acid;(±)-Mandelic acid;<em>dl</em>-Mandelic acid;<span class=\"text-smallcaps\">DL</span>-Mandelic acid;(±)-2-Hydroxy-2-phenylethanoic acid;(±)-α-Hydroxybenzeneacetic acid;(<em>RS</em>)-Mandelic acid;<span class=\"text-smallcaps\">DL</span>-Hydroxy(phenyl)acetic acid;(±)-α-Hydroxyphenylacetic acid;<span class=\"text-smallcaps\">DL</span>-Amygdalic acid;NSC 7925;(<em>RS</em>)-2-Hydroxy-2-phenylacetic acid;S 14-75781",
    "duplicated_cas_no": "611-72-3;15769-78-5;71036-61-8",
    "SMILES": "C(C(O)=O)(O)C1=CC=CC=C1",
    "meta_data": {
        "InChI": "InChI=1S/C8H8O3/c9-7(8(10)11)6-4-2-1-3-5-6/h1-5,7,9H,(H,10,11)",
        "InChIKey": null,
        "Canonical SMILES": "O=C(O)C(O)C=1C=CC=CC1",
        "Molecular Formula": "C<sub>8</sub>H<sub>8</sub>O<sub>3</sub>",
        "Molecular Mass": "152.15",
        "Boiling Point": "203 °C @ Press: 15 Torr",
        "Melting Point": "119 °C"
    }
}