{
    "cas_no": "88495-63-0",
    "key_name": "Artesunate",
    "cn_name": "青蒿琥酯;青蒿脂;",
    "alternate_name": "Butanedioic acid, 1-[(3<em>R</em>,5a<em>S</em>,6<em>R</em>,8a<em>S</em>,9<em>R</em>,10<em>S</em>,12<em>R</em>,12a<em>R</em>)-decahydro-3,6,9-trimethyl-3,12-epoxy-12<em>H</em>-pyrano[4,3-<em>j</em>]-1,2-benzodioxepin-10-yl] ester;Butanedioic acid, mono(decahydro-3,6,9-trimethyl-3,12-epoxy-12<em>H</em>-pyrano[4,3-<em>j</em>]-1,2-benzodioxepin-10-yl) ester, [3<em>R</em>-(3α,5aβ,6β,8aβ,9α,10β,12β,12a<em>R</em>*)]-;Butanedioic acid, mono[(3<em>R</em>,5a<em>S</em>,6<em>R</em>,8a<em>S</em>,9<em>R</em>,10<em>S</em>,12<em>R</em>,12a<em>R</em>)-decahydro-3,6,9-trimethyl-3,12-epoxy-12<em>H</em>-pyrano[4,3-<em>j</em>]-1,2-benzodioxepin-10-yl] ester;3,12-Epoxy-12<em>H</em>-pyrano[4,3-<em>j</em>]-1,2-benzodioxepin, butanedioic acid deriv.;Artesunic acid;Artesunate;Qinghaozhi;WR 256283;Arsumax;Dihydroqinghasu hemsuccinate;Plasmotrin;Artesunata;Cosunate;Gsunate Forte;Zysunate;Arinate;Saphnate;Armax 200;Plasmotrim;Asumax;Arsuamoon;α-Artesunic acid;Artecan;NSC 712571;HC 101B",
    "duplicated_cas_no": "83507-69-1;91487-94-4;112346-66-4;252637-87-9;1177476-35-5;1236362-31-4;2736428-25-2",
    "SMILES": "C[C@@H]1[C@]2([C@]34[C@](O[C@H]1OC(CCC(O)=O)=O)(O[C@](C)(OO3)CC[C@]4([C@H](C)CC2)[H])[H])[H]",
    "meta_data": {
        "InChI": "InChI=1S/C19H28O8/c1-10-4-5-13-11(2)16(23-15(22)7-6-14(20)21)24-17-19(13)12(10)8-9-18(3,25-17)26-27-19/h10-13,16-17H,4-9H2,1-3H3,(H,20,21)/t10-,11-,12+,13+,16-,17-,18-,19-/m1/s1",
        "InChIKey": null,
        "Canonical SMILES": "O=C(O)CCC(=O)OC1OC2OC3(OOC24C(CC3)C(C)CCC4C1C)C",
        "Molecular Formula": "C<sub>19</sub>H<sub>28</sub>O<sub>8</sub>",
        "Molecular Mass": "384.42",
        "Melting Point": "140-142 °C"
    }
}