{
    "cas_no": "1263-89-4",
    "key_name": "Paromomycin sulfate",
    "cn_name": "硫酸巴龙霉素;巴龙霉素硫酸盐;",
    "alternate_name": "<span class=\"text-smallcaps\">D</smallcap>-Streptamine, <em>O</em>-2,6-diamino-2,6-dideoxy-β-<smallcap>L</smallcap>-idopyranosyl-(1→3)-<em>O</em>-β-<smallcap>D</smallcap>-ribofuranosyl-(1→5)-<em>O</em>-[2-amino-2-deoxy-α-<smallcap>D</span>-glucopyranosyl-(1→4)]-2-deoxy-, sulfate (1:?);<span class=\"text-smallcaps\">D</smallcap>-Streptamine, <em>O</em>-2,6-diamino-2,6-dideoxy-β-<smallcap>L</smallcap>-idopyranosyl-(1→3)-<em>O</em>-β-<smallcap>D</smallcap>-ribofuranosyl-(1→5)-<em>O</em>-[2-amino-2-deoxy-α-<smallcap>D</span>-glucopyranosyl-(1→4)]-2-deoxy-, sulfate (salt);<span class=\"text-smallcaps\">D</smallcap>-Streptamine, <em>O</em>-2-amino-2-deoxy-α-<smallcap>D</smallcap>-glucopyranosyl-(1→4)-<em>O</em>-[<em>O</em>-2,6-diamino-2,6-dideoxy-β-<smallcap>L</smallcap>-idopyranosyl-(1→3)-β-<smallcap>D</span>-ribofuranosyl-(1→5)]-2-deoxy-, sulfate (salt);Humycin sulfate;Paromomycin sulfate;Aminosidine sulfate;Aminosidin sulfate;Humatin;Gabbroral;Sinosid;Paramicina;Farmiglucin;Farminosidin;Pargonyl;Paricina;Aminoxidin;FI 5853;1600 Antibiotic;Humagel",
    "duplicated_cas_no": "1405-13-6;11048-06-9;14963-45-2;42438-81-3;51981-74-9",
    "SMILES": "S(=O)(=O)(O)O.O([C@H]1[C@H](O[C@H]2[C@H](O)[C@H](O[C@H]3O[C@@H](CN)[C@@H](O)[C@H](O)[C@H]3N)[C@@H](CO)O2)[C@@H](O)[C@H](N)C[C@@H]1N)[C@H]4O[C@H](CO)[C@@H](O)[C@H](O)[C@H]4N",
    "meta_data": {
        "InChI": "InChI=1S/C23H45N5O14.H2O4S/c24-2-7-13(32)15(34)10(27)21(37-7)41-19-9(4-30)39-23(17(19)36)42-20-12(31)5(25)1-6(26)18(20)40-22-11(28)16(35)14(33)8(3-29)38-22;1-5(2,3)4/h5-23,29-36H,1-4,24-28H2;(H2,1,2,3,4)/t5-,6+,7+,8-,9-,10-,11-,12+,13-,14-,15-,16-,17-,18-,19-,20-,21-,22-,23+;/m1./s1",
        "InChIKey": null,
        "Canonical SMILES": "O=S(=O)(O)O.OCC1OC(OC2C(OC3OC(CO)C(OC4OC(CN)C(O)C(O)C4N)C3O)C(O)C(N)CC2N)C(N)C(O)C1O",
        "Molecular Formula": "C<sub>23</sub>H<sub>45</sub>N<sub>5</sub>O<sub>14</sub>.xH<sub>2</sub>O<sub>4</sub>S",
        "Molecular Mass": "",
        "Melting Point": "145 °C (decomp)"
    }
}