{
    "cas_no": "50-14-6",
    "key_name": "(+)-Vitamin D<sub>2</sub>",
    "cn_name": "alpha-骨化醇;维生素D2;",
    "alternate_name": "Cyclohexanol, 4-methylene-3-[(2<em>E</em>)-2-[(1<em>R</em>,3a<em>S</em>,7a<em>R</em>)-octahydro-7a-methyl-1-[(1<em>R</em>,2<em>E</em>,4<em>R</em>)-1,4,5-trimethyl-2-hexen-1-yl]-4<em>H</em>-inden-4-ylidene]ethylidene]-, (1<em>S</em>,3<em>Z</em>)-;Ergocalciferol;9,10-Secoergosta-5,7,10(19),22-tetraen-3-ol, (3β,5<em>Z</em>,7<em>E</em>,22<em>E</em>)-;Cyclohexanol, 4-methylene-3-[2-[tetrahydro-7a-methyl-1-(1,4,5-trimethyl-2-hexenyl)-4(3a<em>H</em>)-indanylidene]ethylidene]-;(1<em>S</em>,3<em>Z</em>)-4-Methylene-3-[(2<em>E</em>)-2-[(1<em>R</em>,3a<em>S</em>,7a<em>R</em>)-octahydro-7a-methyl-1-[(1<em>R</em>,2<em>E</em>,4<em>R</em>)-1,4,5-trimethyl-2-hexen-1-yl]-4<em>H</em>-inden-4-ylidene]ethylidene]cyclohexanol;<span class=\"text-smallcaps\">D</span>-Arthin;Calciferol;Condocaps;Condol;Crystallina;Davitin;Decaps;Dee-Osterol;Dee-Ron;Dee-Ronal;Deratol;Deltalin;Detalup;Diactol;Divit urto;Doral;Drisdol;Ergorone;Ertron;Fortodyl;Geltabs;Hi-Deratol;Infron;Mulsiferol;Mykostin;Oleovitamin D<sub>2</sub>;Ostelin;Metadee;Radiostol;Radsterin;Shock-ferol;Viosterol;Vitavel-<em>D</em>;Vitamin D<sub>2</sub>;9,10-Secoergosta-5,7,10(19),22-tetraen-3β-ol;Buco-<em>D</em>;Rodine C;(+)-Vitamin D<sub>2</sub>;D-Tracetten;Osteil;De-Rat Concentrate;Sterogyl;Oleovitamin D;Mina D<sub>2</sub>;Uvesterol D;Vio D;NSC 62792;Ercalciol",
    "duplicated_cas_no": "7489-18-1;8017-28-5;31316-19-5;1384584-60-4",
    "SMILES": "C[C@@]12[C@](\\C(=C\\C=C\\3/C(=C)CC[C@H](O)C3)\\CCC1)(CC[C@@]2([C@@H](/C=C/[C@@H](C(C)C)C)C)[H])[H]",
    "meta_data": {
        "InChI": "InChI=1S/C28H44O/c1-19(2)20(3)9-10-22(5)26-15-16-27-23(8-7-17-28(26,27)6)12-13-24-18-25(29)14-11-21(24)4/h9-10,12-13,19-20,22,25-27,29H,4,7-8,11,14-18H2,1-3,5-6H3/b10-9+,23-12+,24-13-/t20-,22+,25-,26+,27-,28+/m0/s1",
        "InChIKey": null,
        "Canonical SMILES": "OC1CC(=CC=C2CCCC3(C)C2CCC3C(C=CC(C)C(C)C)C)C(=C)CC1",
        "Molecular Formula": "C<sub>28</sub>H<sub>44</sub>O",
        "Molecular Mass": "396.65",
        "Melting Point": "115-118 °C"
    }
}