{
    "cas_no": "2198-23-4",
    "key_name": "4-Nonene",
    "cn_name": "4-壬烯;丁香酸甲酯;",
    "alternate_name": "4-Nonene",
    "duplicated_cas_no": "",
    "SMILES": "C(CCCC)=CCCC",
    "meta_data": {
        "InChI": "InChI=1S/C9H18/c1-3-5-7-9-8-6-4-2/h7,9H,3-6,8H2,1-2H3",
        "InChIKey": null,
        "Canonical SMILES": "C(=CCCCC)CCC",
        "Molecular Formula": "C<sub>9</sub>H<sub>18</sub>",
        "Molecular Mass": "126.24",
        "Boiling Point": "144-146 °C",
        "Density": "0.732 g/cm³ @ Temp: 18 °C"
    }
}