{
    "cas_no": "2310-17-0",
    "key_name": "Phosalone",
    "cn_name": "伏杀磷;伏杀硫磷;O,O-二乙基-S-(6-氯-2-氧代苯并恶唑啉-3-基甲基)二硫代磷酸酯;",
    "alternate_name": "Phosphorodithioic acid, <em>S</em>-[(6-chloro-2-oxo-3(2<em>H</em>)-benzoxazolyl)methyl] <em>O</em>,<em>O</em>-diethyl ester;Phosphorodithioic acid, <em>O</em>,<em>O</em>-diethyl ester, <em>S</em>-ester with 6-chloro-3-(mercaptomethyl)-2-benzoxazolinone;NIA 9241;RP 11974;<em>O</em>,<em>O</em>-Diethyl <em>S</em>-[6-chloro-3-(mercaptomethyl)-2-benzoxazolinone]phosphorodithioate;Phosalone;Phosalon;Zolone PM;Zolone;Zolone 35EC;Phosphorodithioic acid <em>O</em>,<em>O</em>-diethyl <em>S</em>-[(6-chloro-2-oxobenzoxazolin-3-yl)methyl] ester;Chipman 11974;Benzophosphate;<em>S</em>-[6-Chloro-3-(mercaptomethyl)-2-benzoxazolinone] <em>O</em>,<em>O</em>-diethyl phosphorodithioate;3-(<em>O</em>,<em>O</em>-Diethyldithiophosphorylmethyl)-6-chlorobenzoxazolinone;6-Chloro-3-(<em>O</em>,<em>O</em>-diethyldithiophosphorylmethyl)benzoxazolone;<em>S</em>-(6-Chloro-2-oxobenzoxazolin-3-yl)methyl diethyl phosphorothiolothionate;Rubitox;Agria 1060;Zolone Flo;Fosalon;KB insectes;Fozolone;Zolone 3EC",
    "duplicated_cas_no": "11129-09-2;12650-35-0;29562-46-7;54182-71-7",
    "SMILES": "C(SP(OCC)(OCC)=S)N1C=2C(OC1=O)=CC(Cl)=CC2",
    "meta_data": {
        "InChI": "InChI=1S/C12H15ClNO4PS2/c1-3-16-19(20,17-4-2)21-8-14-10-6-5-9(13)7-11(10)18-12(14)15/h5-7H,3-4,8H2,1-2H3",
        "InChIKey": null,
        "Canonical SMILES": "O=C1OC2=CC(Cl)=CC=C2N1CSP(=S)(OCC)OCC",
        "Molecular Formula": "C<sub>12</sub>H<sub>15</sub>ClNO<sub>4</sub>PS<sub>2</sub>",
        "Molecular Mass": "367.81",
        "Melting Point": "47.5-48 °C",
        "Density": "1.39 g/cm³"
    }
}