{
    "cas_no": "1123-56-4",
    "key_name": "2,6-Dimethylbenzaldehyde",
    "cn_name": "2,6-二甲基苯甲醛;",
    "alternate_name": "Benzaldehyde, 2,6-dimethyl-;2,6-Dimethylbenzaldehyde",
    "duplicated_cas_no": "",
    "SMILES": "C(=O)C1=C(C)C=CC=C1C",
    "meta_data": {
        "InChI": "InChI=1S/C9H10O/c1-7-4-3-5-8(2)9(7)6-10/h3-6H,1-2H3",
        "InChIKey": null,
        "Canonical SMILES": "O=CC=1C(=CC=CC1C)C",
        "Molecular Formula": "C<sub>9</sub>H<sub>10</sub>O",
        "Molecular Mass": "134.18",
        "Boiling Point": "226-228 °C",
        "Melting Point": "11 °C"
    }
}