{
    "cas_no": "106730-54-5",
    "key_name": "Olprinone",
    "cn_name": "奥普力农;1,2-二氢-5-咪唑并[1,2-a]吡啶-6-基-6-甲基-2-氧代-3-吡啶甲腈;",
    "alternate_name": "3-Pyridinecarbonitrile, 1,2-dihydro-5-imidazo[1,2-<em>a</em>]pyridin-6-yl-6-methyl-2-oxo-;Imidazo[1,2-<em>a</em>]pyridine, 3-pyridinecarbonitrile deriv.;1,2-Dihydro-5-imidazo[1,2-<em>a</em>]pyridin-6-yl-6-methyl-2-oxo-3-pyridinecarbonitrile;Loprinone;Olprinone;1,2-Dihydro-5-imidazo[1,2-<em>a</em>]pyridin-6-yl-6-methyl-2-oxonicotinonitrile",
    "duplicated_cas_no": "",
    "SMILES": "CC1=C(C2=CN3C(C=C2)=NC=C3)C=C(C#N)C(=O)N1",
    "meta_data": {
        "InChI": "InChI=1S/C14H10N4O/c1-9-12(6-11(7-15)14(19)17-9)10-2-3-13-16-4-5-18(13)8-10/h2-6,8H,1H3,(H,17,19)",
        "InChIKey": null,
        "Canonical SMILES": "N#CC1=CC(C=2C=CC3=NC=CN3C2)=C(NC1=O)C",
        "Molecular Formula": "C<sub>14</sub>H<sub>10</sub>N<sub>4</sub>O",
        "Molecular Mass": "250.26",
        "Melting Point": "&gt;300 °C"
    }
}