{
    "cas_no": "1146-99-2",
    "key_name": "Clorindione",
    "cn_name": "氯苯茚二酮;2-(4-氯苯基)茚满-1,3-二酮;",
    "alternate_name": "1<em>H</em>-Indene-1,3(2<em>H</em>)-dione, 2-(4-chlorophenyl)-;1,3-Indandione, 2-(<em>p</em>-chlorophenyl)-;2-(4-Chlorophenyl)-1<em>H</em>-indene-1,3(2<em>H</em>)-dione;G 25766;Chlorphenindione;Indaliton;Chlorindione;Indalitan;2-(<em>p</em>-Chlorophenyl)-1,3-indandione;Clorindione;2-(4-Chlorophenyl)-1,3-indandione;M.G. 2552;Chlophenadione;Chlorphenadione;Chlorathrombon;Chlorindion;2-(4-Chloro-phenyl)-indane-1,3-dione;2-(4-Chlorophenyl)indene-1,3-dione;2-(4-Chlorophenyl)-2,3-dihydro-1<em>H</em>-indene-1,3-dione",
    "duplicated_cas_no": "62340-18-5",
    "SMILES": "O=C1C(C(=O)C=2C1=CC=CC2)C3=CC=C(Cl)C=C3",
    "meta_data": {
        "InChI": "InChI=1S/C15H9ClO2/c16-10-7-5-9(6-8-10)13-14(17)11-3-1-2-4-12(11)15(13)18/h1-8,13H",
        "InChIKey": null,
        "Canonical SMILES": "O=C1C=2C=CC=CC2C(=O)C1C3=CC=C(Cl)C=C3",
        "Molecular Formula": "C<sub>15</sub>H<sub>9</sub>ClO<sub>2</sub>",
        "Molecular Mass": "256.68",
        "Melting Point": "145.5 °C"
    }
}