{
    "cas_no": "20776-67-4",
    "key_name": "2-Amino-5-chloro-3-methylbenzoic acid",
    "cn_name": "2-氨基-5-氯-3-甲基苯甲酸;",
    "alternate_name": "Benzoic acid, 2-amino-5-chloro-3-methyl-;<em>m</em>-Toluic acid, 2-amino-5-chloro-;2-Amino-5-chloro-3-methylbenzoic acid;3-Methyl-5-chloroanthranilic acid;2-Amino-3-methyl-5-chlorobenzoic acid",
    "duplicated_cas_no": "",
    "SMILES": "C(O)(=O)C1=C(N)C(C)=CC(Cl)=C1",
    "meta_data": {
        "InChI": "InChI=1S/C8H8ClNO2/c1-4-2-5(9)3-6(7(4)10)8(11)12/h2-3H,10H2,1H3,(H,11,12)",
        "InChIKey": null,
        "Canonical SMILES": "O=C(O)C1=CC(Cl)=CC(=C1N)C",
        "Molecular Formula": "C<sub>8</sub>H<sub>8</sub>ClNO<sub>2</sub>",
        "Molecular Mass": "185.61",
        "Melting Point": "&gt;197 °C (decomp)"
    }
}