{
    "cas_no": "16939-73-4",
    "key_name": "(<em>E</em>)-2-Heptenyl acetate",
    "cn_name": "反式-2-庚烯酸乙酯;",
    "alternate_name": "2-Hepten-1-ol, 1-acetate, (2<em>E</em>)-;2-Hepten-1-ol, acetate, (<em>E</em>)-;2-Hepten-1-ol, acetate, (2<em>E</em>)-;<em>trans</em>-2-Heptenyl acetate;(<em>E</em>)-2-Heptenyl acetate",
    "duplicated_cas_no": "",
    "SMILES": "C(=C/CCCC)\\COC(C)=O",
    "meta_data": {
        "InChI": "InChI=1S/C9H16O2/c1-3-4-5-6-7-8-11-9(2)10/h6-7H,3-5,8H2,1-2H3/b7-6+",
        "InChIKey": null,
        "Canonical SMILES": "O=C(OCC=CCCCC)C",
        "Molecular Formula": "C<sub>9</sub>H<sub>16</sub>O<sub>2</sub>",
        "Molecular Mass": "156.22",
        "Boiling Point": "86.5 °C @ Press: 15 Torr"
    }
}