{
    "cas_no": "602-99-3",
    "key_name": "Trinitro-<em>m</em>-cresol",
    "cn_name": "2，4，6-三硝基间甲酚;",
    "alternate_name": "Phenol, 3-methyl-2,4,6-trinitro-;<em>m</em>-Cresol, 2,4,6-trinitro-;3-Methyl-2,4,6-trinitrophenol;3-Methylpicric acid;Methylpicric acid;2,4,6-Trinitro-3-methylphenol;2,4,6-Trinitro-<em>m</em>-cresol;Trinitro-<em>m</em>-cresol;Trinitro-<em>m</em>-cresolic acid;TNCr;1-Hydroxy-3-methyl-2,4,6-trinitrobenzene;NSC 3182;1-Methyl-3-hydroxy-2,4,6-trinitrobenzene",
    "duplicated_cas_no": "92582-87-1",
    "SMILES": "N(=O)(=O)C1=C(C)C(N(=O)=O)=CC(N(=O)=O)=C1O",
    "meta_data": {
        "InChI": "InChI=1S/C7H5N3O7/c1-3-4(8(12)13)2-5(9(14)15)7(11)6(3)10(16)17/h2,11H,1H3",
        "InChIKey": null,
        "Canonical SMILES": "O=N(=O)C=1C=C(C(=C(C1O)N(=O)=O)C)N(=O)=O",
        "Molecular Formula": "C<sub>7</sub>H<sub>5</sub>N<sub>3</sub>O<sub>7</sub>",
        "Molecular Mass": "243.13",
        "Melting Point": "109.5 °C"
    }
}