{
    "cas_no": "115063-39-3",
    "key_name": "Desmethylxanthohumol",
    "cn_name": null,
    "alternate_name": "2-Propen-1-one, 3-(4-hydroxyphenyl)-1-[2,4,6-trihydroxy-3-(3-methyl-2-buten-1-yl)phenyl]-, (2<em>E</em>)-;2-Propen-1-one, 3-(4-hydroxyphenyl)-1-[2,4,6-trihydroxy-3-(3-methyl-2-butenyl)phenyl]-, (<em>E</em>)-;2-Propen-1-one, 3-(4-hydroxyphenyl)-1-[2,4,6-trihydroxy-3-(3-methyl-2-butenyl)phenyl]-, (2<em>E</em>)-;(2<em>E</em>)-3-(4-Hydroxyphenyl)-1-[2,4,6-trihydroxy-3-(3-methyl-2-buten-1-yl)phenyl]-2-propen-1-one;Desmethylxanthohumol;Demethylxanthohumol",
    "duplicated_cas_no": "",
    "SMILES": "C(/C=C/C1=CC=C(O)C=C1)(=O)C2=C(O)C(CC=C(C)C)=C(O)C=C2O",
    "meta_data": {
        "InChI": "InChI=1S/C20H20O5/c1-12(2)3-9-15-17(23)11-18(24)19(20(15)25)16(22)10-6-13-4-7-14(21)8-5-13/h3-8,10-11,21,23-25H,9H2,1-2H3/b10-6+",
        "InChIKey": null,
        "Canonical SMILES": "O=C(C=CC1=CC=C(O)C=C1)C2=C(O)C=C(O)C(=C2O)CC=C(C)C",
        "Molecular Formula": "C<sub>20</sub>H<sub>20</sub>O<sub>5</sub>",
        "Molecular Mass": "340.37",
        "Melting Point": "154-155 °C"
    }
}