{
    "cas_no": "22236-45-9",
    "key_name": "<em>N</em>-(Dimethyloxido-λ<sup>4</sup>-sulfanylidene)-4-methylbenzenesulfonamide",
    "cn_name": "S,S-二甲基-N-(对甲苯磺酰基)磺基肟;",
    "alternate_name": "Benzenesulfonamide, <em>N</em>-(dimethyloxido-λ<sup>4</sup>-sulfanylidene)-4-methyl-;Sulfoximine, <em>S</em>,<em>S</em>-dimethyl-<em>N</em>-(<em>p</em>-tolylsulfonyl)-;Sulfoximine, <em>S</em>,<em>S</em>-dimethyl-<em>N</em>-[(4-methylphenyl)sulfonyl]-;<em>N</em>-(Dimethyloxido-λ<sup>4</sup>-sulfanylidene)-4-methylbenzenesulfonamide;NSC 202395;<em>S</em>,<em>S</em>-Dimethyl-<em>N</em>-(<em>p</em>-tolylsulfonyl)sulfoximine",
    "duplicated_cas_no": "70524-35-5",
    "SMILES": "S(N=S(C)(C)=O)(=O)(=O)C1=CC=C(C)C=C1",
    "meta_data": {
        "InChI": "InChI=1S/C9H13NO3S2/c1-8-4-6-9(7-5-8)15(12,13)10-14(2,3)11/h4-7H,1-3H3",
        "InChIKey": null,
        "Canonical SMILES": "O=S(=O)(N=S(=O)(C)C)C1=CC=C(C=C1)C",
        "Molecular Formula": "C<sub>9</sub>H<sub>13</sub>NO<sub>3</sub>S<sub>2</sub>",
        "Molecular Mass": "247.33",
        "Melting Point": "168 °C"
    }
}