{
    "cas_no": "31906-04-4",
    "key_name": "Liral",
    "cn_name": "新铃兰醛;4-(4\"-羟基-4\"-甲基戊基)-3-环己烯-1-甲醛;",
    "alternate_name": "3-Cyclohexene-1-carboxaldehyde, 4-(4-hydroxy-4-methylpentyl)-;4-(4-Hydroxy-4-methylpentyl)-3-cyclohexene-1-carboxaldehyde;4-(4-Hydroxy-4-methylpentyl)-3-cyclohexenecarboxaldehyde;4-(4-Methyl-4-hydroxyamyl)cyclohex-3-ene carboxaldehyde;Liral;Landolal",
    "duplicated_cas_no": "56493-02-8;80449-98-5;1384450-22-9",
    "SMILES": "C(CCC(C)(C)O)C=1CCC(C=O)CC1",
    "meta_data": {
        "InChI": "InChI=1S/C13H22O2/c1-13(2,15)9-3-4-11-5-7-12(10-14)8-6-11/h5,10,12,15H,3-4,6-9H2,1-2H3",
        "InChIKey": null,
        "Canonical SMILES": "O=CC1CC=C(CCCC(O)(C)C)CC1",
        "Molecular Formula": "C<sub>13</sub>H<sub>22</sub>O<sub>2</sub>",
        "Molecular Mass": "210.31",
        "Boiling Point": "120 °C @ Press: 1 Torr",
        "Density": "0.9941 g/cm³"
    }
}