{
    "cas_no": "13769-20-5",
    "key_name": "Europium chloride (EuCl<sub>2</sub>)",
    "cn_name": "氯化铕;",
    "alternate_name": "Europium chloride (EuCl<sub>2</sub>);Europium dichloride;NSC 281264",
    "duplicated_cas_no": "",
    "SMILES": "[Eu](Cl)Cl",
    "meta_data": {
        "InChI": "InChI=1S/2ClH.Eu/h2*1H;/q;;+2/p-2",
        "InChIKey": null,
        "Canonical SMILES": "Cl[Eu]Cl",
        "Molecular Formula": "Cl<sub>2</sub>Eu",
        "Molecular Mass": "",
        "Boiling Point": "2190 °C",
        "Melting Point": "738 °C"
    }
}