{
    "cas_no": "755-73-7",
    "key_name": "Methyl 2,2,3,3-tetrafluoro-3-methoxypropanoate",
    "cn_name": null,
    "alternate_name": "Propanoic acid, 2,2,3,3-tetrafluoro-3-methoxy-, methyl ester;Propionic acid, 2,2,3,3-tetrafluoro-3-methoxy-, methyl ester;Methyl 2,2,3,3-tetrafluoro-3-methoxypropanoate;Methyl 3-methoxyperfluoropropionate;Methyl 3-methoxytetrafluoropropionate;Methyl 2,2,3,3-tetrafluoro-3-methoxypropionate",
    "duplicated_cas_no": "",
    "SMILES": "C(C(OC)(F)F)(C(OC)=O)(F)F",
    "meta_data": {
        "InChI": "InChI=1S/C5H6F4O3/c1-11-3(10)4(6,7)5(8,9)12-2/h1-2H3",
        "InChIKey": null,
        "Canonical SMILES": "O=C(OC)C(F)(F)C(F)(F)OC",
        "Molecular Formula": "C<sub>5</sub>H<sub>6</sub>F<sub>4</sub>O<sub>3</sub>",
        "Molecular Mass": "190.09",
        "Boiling Point": "66-71 °C @ Press: 49 Torr"
    }
}