{
    "cas_no": "1565-80-6",
    "key_name": "(<em>S</em>)-2-Methyl-1-butanol",
    "cn_name": "S-(-)-2-甲基-1-丁醇;L-2-甲基丁醇;",
    "alternate_name": "1-Butanol, 2-methyl-, (2<em>S</em>)-;1-Butanol, 2-methyl-, (<em>S</em>)-;1-Butanol, 2-methyl-, <em>l</em>-;1-Butanol, 2-methyl-, (<em>S</em>)-(-)-;(2<em>S</em>)-2-Methyl-1-butanol;(<em>S</em>)-(-)-2-Methyl-1-butanol;(<em>S</em>)-2-Methyl-1-butanol;(-)-2-Methyl-1-butanol;(-)-(<em>S</em>)-2-Methyl-1-butanol;<span class=\"text-smallcaps\">D</span>-(-)-2-Methyl-1-butanol;(<em>S</em>)-(-)-2-Methylbutanol;(2<em>S</em>)-2-Methylbutan-1-ol;(-)-2-Methylbutanol;(2S)-2-Methyl-1-butanol",
    "duplicated_cas_no": "",
    "SMILES": "[C@H](CC)(CO)C",
    "meta_data": {
        "InChI": "InChI=1S/C5H12O/c1-3-5(2)4-6/h5-6H,3-4H2,1-2H3/t5-/m0/s1",
        "InChIKey": null,
        "Canonical SMILES": "OCC(C)CC",
        "Molecular Formula": "C<sub>5</sub>H<sub>12</sub>O",
        "Molecular Mass": "88.15",
        "Boiling Point": "103-104 °C @ Press: 21 Torr",
        "Melting Point": "130 °C",
        "Density": "0.8279 g/cm³ @ Temp: 30 °C"
    }
}