{
    "cas_no": "1868-53-7",
    "key_name": "Dibromofluoromethane",
    "cn_name": "二溴氟甲烷;",
    "alternate_name": "Methane, dibromofluoro-;Dibromofluoromethane;Fluorodibromomethane",
    "duplicated_cas_no": "",
    "SMILES": "C(Br)(Br)F",
    "meta_data": {
        "InChI": "InChI=1S/CHBr2F/c2-1(3)4/h1H",
        "InChIKey": null,
        "Canonical SMILES": "FC(Br)Br",
        "Molecular Formula": "CHBr<sub>2</sub>F",
        "Molecular Mass": "191.82",
        "Boiling Point": "64.9 °C",
        "Melting Point": "-78 °C",
        "Density": "2.4256 g/cm³ @ Temp: 18.5 °C"
    }
}