{
    "cas_no": "64249-01-0",
    "key_name": "Anilofos",
    "cn_name": "莎稗磷;O,O-二甲基-S-4-氯-N-异丙基苯氨基甲酰基甲基二硫代磷酸酯;",
    "alternate_name": "Phosphorodithioic acid, <em>S</em>-[2-[(4-chlorophenyl)(1-methylethyl)amino]-2-oxoethyl] <em>O</em>,<em>O</em>-dimethyl ester;HOE 30374;HOE 574;Anilofos;Arozin;Aniloguard;Aniloguard 30EC;Shabailin",
    "duplicated_cas_no": "",
    "SMILES": "N(C(CSP(OC)(OC)=S)=O)(C(C)C)C1=CC=C(Cl)C=C1",
    "meta_data": {
        "InChI": "InChI=1S/C13H19ClNO3PS2/c1-10(2)15(12-7-5-11(14)6-8-12)13(16)9-21-19(20,17-3)18-4/h5-8,10H,9H2,1-4H3",
        "InChIKey": null,
        "Canonical SMILES": "O=C(N(C1=CC=C(Cl)C=C1)C(C)C)CSP(=S)(OC)OC",
        "Molecular Formula": "C<sub>13</sub>H<sub>19</sub>ClNO<sub>3</sub>PS<sub>2</sub>",
        "Molecular Mass": "367.85",
        "Melting Point": "51 °C"
    }
}