{
    "cas_no": "22664-55-7",
    "key_name": "Metipranolol",
    "cn_name": null,
    "alternate_name": "Phenol, 4-[2-hydroxy-3-[(1-methylethyl)amino]propoxy]-2,3,6-trimethyl-, 1-acetate;2-Propanol, 1-(4-hydroxy-2,3,5-trimethylphenoxy)-3-(isopropylamino)-, 4-acetate;Trimepranol;VUFB 6453;Disorat;Metipranolol;Methypranol;BM 01.004;VUAB 6453;(±)-1-(4-Acetoxy-2,3,5-trimethylphenoxy)-3-(isopropylamino)-2-propanol;(<em>RS</em>)-Metipranolol;<span class=\"text-smallcaps\">D</smallcap><smallcap>L</span>-Metipranolol;(±)-Metipranolol;Glausyn;Betamet;Glauline;Turoptin;Betanol;[4-[2-Hydroxy-3-(propan-2-ylamino)propoxy]-2,3,6-trimethylphenyl] acetate;MeSH ID: D014290",
    "duplicated_cas_no": "38202-74-3;52849-55-5",
    "SMILES": "O(CC(CNC(C)C)O)C1=C(C)C(C)=C(OC(C)=O)C(C)=C1",
    "meta_data": {
        "InChI": "InChI=1S/C17H27NO4/c1-10(2)18-8-15(20)9-21-16-7-11(3)17(22-14(6)19)13(5)12(16)4/h7,10,15,18,20H,8-9H2,1-6H3",
        "InChIKey": null,
        "Canonical SMILES": "O=C(OC=1C(=CC(OCC(O)CNC(C)C)=C(C1C)C)C)C",
        "Molecular Formula": "C<sub>17</sub>H<sub>27</sub>NO<sub>4</sub>",
        "Molecular Mass": "309.40",
        "Melting Point": "105-107 °C"
    }
}