{
    "cas_no": "17605-67-3",
    "key_name": "Fucosterol",
    "cn_name": "岩皂甾醇;",
    "alternate_name": "Stigmasta-5,24(28)-dien-3-ol, (3β,24<em>E</em>)-;Stigmasta-5,24(28)-dien-3β-ol, (<em>E</em>)-;Fucosterol;(3β,24<em>E</em>)-Stigmasta-5,24(28)-dien-3-ol;Stigmasta-5,<em>trans</em>-24(28)-dien-3β-ol;<em>trans</em>-Stigmasta-5,24(28)-dien-3β-ol;Fucosterin;<em>trans</em>-24-Ethylidenecholesterol;24<em>E</em>-Ethylidenecholest-5-en-3β-ol;24-Ethylcholesta-5,24(28)E-dien-3β-ol;(28<em>E</em>)-24-Ethylcholesta-5,24(28)-dien-3-ol;(<em>E</em>)-Stigmasta-5,24-(28)-dien-3β-ol;Native Gastro",
    "duplicated_cas_no": "",
    "SMILES": "C[C@@]12[C@]([C@]3([C@@]([C@]4(C)C(=CC3)C[C@@H](O)CC4)(CC1)[H])[H])(CC[C@@]2([C@@H](CC/C(/C(C)C)=C\\C)C)[H])[H]",
    "meta_data": {
        "InChI": "InChI=1S/C29H48O/c1-7-21(19(2)3)9-8-20(4)25-12-13-26-24-11-10-22-18-23(30)14-16-28(22,5)27(24)15-17-29(25,26)6/h7,10,19-20,23-27,30H,8-9,11-18H2,1-6H3/b21-7+/t20-,23+,24+,25-,26+,27+,28+,29-/m1/s1",
        "InChIKey": null,
        "Canonical SMILES": "OC1CC2=CCC3C(CCC4(C)C(CCC34)C(C)CCC(=CC)C(C)C)C2(C)CC1",
        "Molecular Formula": "C<sub>29</sub>H<sub>48</sub>O",
        "Molecular Mass": "412.69",
        "Boiling Point": "220-230 °C",
        "Melting Point": "124 °C"
    }
}