{
    "cas_no": "615-65-6",
    "key_name": "2-Chloro-4-methylaniline",
    "cn_name": "2-氯-4-甲基苯胺;",
    "alternate_name": "Benzenamine, 2-chloro-4-methyl-;<em>p</em>-Toluidine, 2-chloro-;2-Chloro-4-methylbenzenamine;2-Chloro-<em>p</em>-toluidine;2-Chloro-4-methylaniline;3-Chloro-4-aminotoluene;4-Methyl-2-chloroaniline;4-Amino-3-chlorotoluene;1-Amino-2-chloro-4-methylbenzene;(2-Chloro-4-methylphenyl)amine;NSC 60120",
    "duplicated_cas_no": "",
    "SMILES": "ClC1=C(N)C=CC(C)=C1",
    "meta_data": {
        "InChI": "InChI=1S/C7H8ClN/c1-5-2-3-7(9)6(8)4-5/h2-4H,9H2,1H3",
        "InChIKey": null,
        "Canonical SMILES": "ClC1=CC(=CC=C1N)C",
        "Molecular Formula": "C<sub>7</sub>H<sub>8</sub>ClN",
        "Molecular Mass": "141.60",
        "Boiling Point": "219 °C @ Press: 732 Torr",
        "Melting Point": "7 °C",
        "Density": "1.151 g/cm³ @ Temp: 20 °C"
    }
}