{
    "cas_no": "139755-83-2",
    "key_name": "Sildenafil",
    "cn_name": "西地那非;1-[4-乙氧基-3-[5-(6,7-二氢-1-甲基-7-氧代-3-丙基-1H-吡唑并[4,3d]嘧啶)]苯磺酰]-4-甲基哌嗪;",
    "alternate_name": "7<em>H</em>-Pyrazolo[4,3-<em>d</em>]pyrimidin-7-one, 5-[2-ethoxy-5-[(4-methyl-1-piperazinyl)sulfonyl]phenyl]-1,6-dihydro-1-methyl-3-propyl-;Piperazine, 1-[[3-(4,7-dihydro-1-methyl-7-oxo-3-propyl-1<em>H</em>-pyrazolo[4,3-<em>d</em>]pyrimidin-5-yl)-4-ethoxyphenyl]sulfonyl]-4-methyl-;1<em>H</em>-Pyrazolo[4,3-<em>d</em>]pyrimidine, piperazine deriv.;5-[2-Ethoxy-5-[(4-methyl-1-piperazinyl)sulfonyl]phenyl]-1,6-dihydro-1-methyl-3-propyl-7<em>H</em>-pyrazolo[4,3-<em>d</em>]pyrimidin-7-one;Sildenafil;5-[2-Ethoxy-5-(4-methyl-1-piperazinylsulfonyl)phenyl]-1-methyl-3-<em>n</em>-propyl-1,6-dihydro-7<em>H</em>-pyrazolo[4,3-<em>d</em>]pyrimidin-7-one;Revatio;Vizarsin;Patrex",
    "duplicated_cas_no": "",
    "SMILES": "O(CC)C1=C(C=C(S(=O)(=O)N2CCN(C)CC2)C=C1)C=3NC4=C(C(=O)N3)N(C)N=C4CCC",
    "meta_data": {
        "InChI": "InChI=1S/C22H30N6O4S/c1-5-7-17-19-20(27(4)25-17)22(29)24-21(23-19)16-14-15(8-9-18(16)32-6-2)33(30,31)28-12-10-26(3)11-13-28/h8-9,14H,5-7,10-13H2,1-4H3,(H,23,24,29)",
        "InChIKey": null,
        "Canonical SMILES": "O=C1N=C(NC=2C(=NN(C12)C)CCC)C=3C=C(C=CC3OCC)S(=O)(=O)N4CCN(C)CC4",
        "Molecular Formula": "C<sub>22</sub>H<sub>30</sub>N<sub>6</sub>O<sub>4</sub>S",
        "Molecular Mass": "474.58",
        "Melting Point": "188-190 °C"
    }
}