{
    "cas_no": "590-63-6",
    "key_name": "Bethanechol chloride",
    "cn_name": "氯贝胆碱;氯化氨甲酰甲胆碱;2-[(氨基甲酰)氧基]-N,N,N-三甲基-1-丙铵氯化物;",
    "alternate_name": "1-Propanaminium, 2-[(aminocarbonyl)oxy]-<em>N</em>,<em>N</em>,<em>N</em>-trimethyl-, chloride (1:1);(2-Hydroxypropyl)trimethylammonium chloride carbamate;Ammonium, (2-hydroxypropyl)trimethyl-, chloride, carbamate;1-Propanaminium, 2-[(aminocarbonyl)oxy]-<em>N</em>,<em>N</em>,<em>N</em>-trimethyl-, chloride;Bethanechol chloride;Carbamylmethylcholine chloride;Mechothane;β-Methylcholine chloride urethan;Urecholine;Urecholine chloride;Mechotane;Myocholine;Mictone;Myotonine chloride;Uro-Carb;β-Methyl carbachol chloride;Trimethyl(2-carbamoyloxypropyl)ammonium chloride;Mecothane;Besacholine;(±)-Bethanechol;Myotonachol;NSC 30783;1-(Trimethylazaniumyl)propan-2-yl carbamate chloride",
    "duplicated_cas_no": "21293-39-0",
    "SMILES": "C([N+](C)(C)C)C(OC(N)=O)C.[Cl-]",
    "meta_data": {
        "InChI": "InChI=1S/C7H16N2O2.ClH/c1-6(11-7(8)10)5-9(2,3)4;/h6H,5H2,1-4H3,(H-,8,10);1H",
        "InChIKey": null,
        "Canonical SMILES": "[Cl-].O=C(OC(C)C[N+](C)(C)C)N",
        "Molecular Formula": "C<sub>7</sub>H<sub>17</sub>N<sub>2</sub>O<sub>2</sub>.Cl",
        "Molecular Mass": "",
        "Melting Point": "218-219 °C (decomp)"
    }
}