{
    "cas_no": "2075-45-8",
    "key_name": "4-Bromopyrazole",
    "cn_name": "4-溴吡唑;",
    "alternate_name": "1<em>H</em>-Pyrazole, 4-bromo-;Pyrazole, 4-bromo-;4-Bromo-1<em>H</em>-pyrazole;4-Bromopyrazole;NSC 522023",
    "duplicated_cas_no": "",
    "SMILES": "BrC=1C=NNC1",
    "meta_data": {
        "InChI": "InChI=1S/C3H3BrN2/c4-3-1-5-6-2-3/h1-2H,(H,5,6)",
        "InChIKey": null,
        "Canonical SMILES": "BrC=1C=NNC1",
        "Molecular Formula": "C<sub>3</sub>H<sub>3</sub>BrN<sub>2</sub>",
        "Molecular Mass": "146.97",
        "Melting Point": "94-96 °C"
    }
}