{
    "cas_no": "168293-10-5",
    "key_name": "<em>C</em>-Veratroylglycol",
    "cn_name": null,
    "alternate_name": "1-Propanone, 2,3-dihydroxy-1-(4-hydroxy-3-methoxyphenyl)-;2,3-Dihydroxy-1-(4-hydroxy-3-methoxyphenyl)-1-propanone;<em>C</em>-Veratroylglycol;2,3-Dihydroxy-1-(4-hydroxy-3-methoxyphenyl)propan-1-one",
    "duplicated_cas_no": "",
    "SMILES": "C(C(CO)O)(=O)C1=CC(OC)=C(O)C=C1",
    "meta_data": {
        "InChI": "InChI=1S/C10H12O5/c1-15-9-4-6(2-3-7(9)12)10(14)8(13)5-11/h2-4,8,11-13H,5H2,1H3",
        "InChIKey": null,
        "Canonical SMILES": "O=C(C1=CC=C(O)C(OC)=C1)C(O)CO",
        "Molecular Formula": "C<sub>10</sub>H<sub>12</sub>O<sub>5</sub>",
        "Molecular Mass": "212.20",
        "Melting Point": "54 °C"
    }
}