{
    "cas_no": "41078-02-8",
    "key_name": "Enprofylline",
    "cn_name": "恩丙茶碱;恩丙茶碱;英洛菲林;",
    "alternate_name": "1<em>H</em>-Purine-2,6-dione, 3,9-dihydro-3-propyl-;1<em>H</em>-Purine-2,6-dione, 3,7-dihydro-3-propyl-;3,9-Dihydro-3-propyl-1<em>H</em>-purine-2,6-dione;Enprofylline;3-Propylxanthine;D 4028;3-Propyl-1<em>H</em>-purine-2,6(3<em>H</em>,9<em>H</em>)-dione;3-Propyl-2,3,6,9-tetrahydro-1<em>H</em>-purine-2,6-dione;3,7-Dihydro-3-propyl-1<em>H</em>-purine-2,6-dione;3-Propyl-2,3,6,7-tetrahydro-1<em>H</em>-purine-2,6-dione",
    "duplicated_cas_no": "",
    "SMILES": "C(CC)N1C2=C(C(=O)NC1=O)NC=N2",
    "meta_data": {
        "InChI": "InChI=1S/C8H10N4O2/c1-2-3-12-6-5(9-4-10-6)7(13)11-8(12)14/h4H,2-3H2,1H3,(H,9,10)(H,11,13,14)",
        "InChIKey": null,
        "Canonical SMILES": "O=C1NC(=O)N(C=2N=CNC12)CCC",
        "Molecular Formula": "C<sub>8</sub>H<sub>10</sub>N<sub>4</sub>O<sub>2</sub>",
        "Molecular Mass": "194.19",
        "Melting Point": "287-289 °C",
        "Density": "1.38 g/cm³"
    }
}