{
    "cas_no": "443913-73-3",
    "key_name": "Vandetanib",
    "cn_name": "凡德他尼;4-(4-溴-2-氟苯胺基)-6-甲氧基-7-[(1-甲基哌啶-4-基)甲氧基]喹唑啉;",
    "alternate_name": "4-Quinazolinamine, <em>N</em>-(4-bromo-2-fluorophenyl)-6-methoxy-7-[(1-methyl-4-piperidinyl)methoxy]-;<em>N</em>-(4-Bromo-2-fluorophenyl)-6-methoxy-7-[(1-methyl-4-piperidinyl)methoxy]-4-quinazolinamine;ZD 6474;Vandetanib;4-(4-Bromo-2-fluoroanilino)-6-methoxy-7-[(1-methylpiperidin-4-yl)methoxy]quinazoline;Zactima;CH 331;Caprelsa;<em>N</em>-(4-Bromo-2-fluorophenyl)-6-methoxy-7-[(1-methylpiperidin-4-yl)methoxy]quinazolin-4-amine;<em>N</em>-(4-Bromo-2-fluorophenyl)-6-methoxy-7-(<em>N</em>-methylpiperidin-4-ylmethoxy)quinazolin-4-amine;AZD 6474;AZD6474;AZD-6474",
    "duplicated_cas_no": "338992-00-0;660412-36-2;790713-55-2",
    "SMILES": "N(C=1C2=C(C=C(OCC3CCN(C)CC3)C(OC)=C2)N=CN1)C4=C(F)C=C(Br)C=C4",
    "meta_data": {
        "InChI": "InChI=1S/C22H24BrFN4O2/c1-28-7-5-14(6-8-28)12-30-21-11-19-16(10-20(21)29-2)22(26-13-25-19)27-18-4-3-15(23)9-17(18)24/h3-4,9-11,13-14H,5-8,12H2,1-2H3,(H,25,26,27)",
        "InChIKey": null,
        "Canonical SMILES": "FC1=CC(Br)=CC=C1NC=2N=CN=C3C=C(OCC4CCN(C)CC4)C(OC)=CC32",
        "Molecular Formula": "C<sub>22</sub>H<sub>24</sub>BrFN<sub>4</sub>O<sub>2</sub>",
        "Molecular Mass": "475.35",
        "Melting Point": "242 °C"
    }
}