{
    "cas_no": "69227-51-6",
    "key_name": "<em>N</em>-Ethyl-<em>N</em>-methylpyrrolidinium bromide",
    "cn_name": null,
    "alternate_name": "Pyrrolidinium, 1-ethyl-1-methyl-, bromide (1:1);Pyrrolidinium, 1-ethyl-1-methyl-, bromide;<em>N</em>-Ethyl-<em>N</em>-methylpyrrolidinium bromide;1-Ethyl-1-methylpyrrolidinium bromide;1-Ethyl-1-methylpyrrolidin-1-ium bromide",
    "duplicated_cas_no": "",
    "SMILES": "C(C)[N+]1(C)CCCC1.[Br-]",
    "meta_data": {
        "InChI": "InChI=1S/C7H16N.BrH/c1-3-8(2)6-4-5-7-8;/h3-7H2,1-2H3;1H/q+1;/p-1",
        "InChIKey": null,
        "Canonical SMILES": "[Br-].CC[N+]1(C)CCCC1",
        "Molecular Formula": "C<sub>7</sub>H<sub>16</sub>N.Br",
        "Molecular Mass": "",
        "Melting Point": "106 °C"
    }
}