{
    "cas_no": "2473-03-2",
    "key_name": "1-Chloroundecane",
    "cn_name": "1-氯十一烷,98%;",
    "alternate_name": "Undecane, 1-chloro-;1-Chloroundecane;Undecyl chloride;<em>n</em>-Undecyl chloride;NSC 70016",
    "duplicated_cas_no": "",
    "SMILES": "C(CCCCCCl)CCCCC",
    "meta_data": {
        "InChI": "InChI=1S/C11H23Cl/c1-2-3-4-5-6-7-8-9-10-11-12/h2-11H2,1H3",
        "InChIKey": null,
        "Canonical SMILES": "ClCCCCCCCCCCC",
        "Molecular Formula": "C<sub>11</sub>H<sub>23</sub>Cl",
        "Molecular Mass": "190.75",
        "Boiling Point": "117 °C @ Press: 16 Torr",
        "Density": "0.8570 g/cm³ @ Temp: 21.5 °C"
    }
}