{
    "cas_no": "14267-17-5",
    "key_name": "Bis(diethyldithiocarbamato)nickel",
    "cn_name": "二乙基二硫代氨基甲酸镍盐;",
    "alternate_name": "Nickel, bis(<em>N</em>,<em>N</em>-diethylcarbamodithioato-κ<em>S</em>,κ<em>S</em>′)-, (<em>SP</em>-4-1)-;Nickel, bis(diethyldithiocarbamato)-;Nickel, bis(diethylcarbamodithioato-<em>S</em>,<em>S</em>′)-, (<em>SP</em>-4-1)-;Carbamic acid, diethyldithio-, Ni deriv.;Nickel, bis(diethylcarbamodithioato-κ<em>S</em>,κ<em>S</em>′)-, (<em>SP</em>-4-1)-;(<em>SP</em>-4-1)-Bis(<em>N</em>,<em>N</em>-diethylcarbamodithioato-κ<em>S</em>,κ<em>S</em>′)nickel;Nickel diethyldithiocarbamate;Bis(diethyldithiocarbamato)nickel;Nickel diethylcarbamodithioate;Nickel bis(<em>N</em>,<em>N</em>-diethyldithiocarbamate);Nickel(II)bis(diethyldithiocarbamate);Nickel bis(diethyldithiocarbamate);Bis(diethyldithiocarbamato)nickel(II);Bis(<em>N</em>,<em>N</em>-diethyldithiocarbamato)nickel;Nocrac NEC;Robac Ni PD",
    "duplicated_cas_no": "43158-99-2",
    "SMILES": "N(CC)(CC)C=1[S-][Ni+2]2([S-]C(N(CC)CC)=[S]2)[S]1",
    "meta_data": {
        "InChI": "InChI=1S/2C5H11NS2.Ni/c2*1-3-6(4-2)5(7)8;/h2*3-4H2,1-2H3,(H,7,8);/q;;+2/p-2",
        "InChIKey": null,
        "Canonical SMILES": "[S]1=C([S-][Ni+2]12[S]=C([S-]2)N(CC)CC)N(CC)CC",
        "Molecular Formula": "C<sub>10</sub>H<sub>20</sub>N<sub>2</sub>NiS<sub>4</sub>",
        "Molecular Mass": "",
        "Melting Point": "259 °C"
    }
}