{
    "cas_no": "115029-24-8",
    "key_name": "2-Fluoro-4-(trifluoromethyl)benzoic acid",
    "cn_name": "2-氟-4-三氟甲基苯甲酸;",
    "alternate_name": "Benzoic acid, 2-fluoro-4-(trifluoromethyl)-;2-Fluoro-4-(trifluoromethyl)benzoic acid",
    "duplicated_cas_no": "",
    "SMILES": "C(F)(F)(F)C1=CC(F)=C(C(O)=O)C=C1",
    "meta_data": {
        "InChI": "InChI=1S/C8H4F4O2/c9-6-3-4(8(10,11)12)1-2-5(6)7(13)14/h1-3H,(H,13,14)",
        "InChIKey": null,
        "Canonical SMILES": "O=C(O)C1=CC=C(C=C1F)C(F)(F)F",
        "Molecular Formula": "C<sub>8</sub>H<sub>4</sub>F<sub>4</sub>O<sub>2</sub>",
        "Molecular Mass": "208.11",
        "Melting Point": "160 °C"
    }
}