{
    "cas_no": "848259-27-8",
    "key_name": "Pemafibrate",
    "cn_name": null,
    "alternate_name": "Butanoic acid, 2-[3-[[2-benzoxazolyl[3-(4-methoxyphenoxy)propyl]amino]methyl]phenoxy]-, (2<em>R</em>)-;(2<em>R</em>)-2-[3-[[2-Benzoxazolyl[3-(4-methoxyphenoxy)propyl]amino]methyl]phenoxy]butanoic acid;(<em>R</em>)-2-[3-[[<em>N</em>-(Benzoxazol-2-yl)-<em>N</em>-[3-(4-methoxyphenoxy)propyl]amino]methyl]phenoxy]butanoic acid;(R)-K 13675;Pemafibrate;K 877",
    "duplicated_cas_no": "1707309-91-8",
    "SMILES": "N(CC1=CC(O[C@@H](C(O)=O)CC)=CC=C1)(CCCOC2=CC=C(OC)C=C2)C3=NC=4C(O3)=CC=CC4",
    "meta_data": {
        "InChI": "InChI=1S/C28H30N2O6/c1-3-25(27(31)32)35-23-9-6-8-20(18-23)19-30(28-29-24-10-4-5-11-26(24)36-28)16-7-17-34-22-14-12-21(33-2)13-15-22/h4-6,8-15,18,25H,3,7,16-17,19H2,1-2H3,(H,31,32)/t25-/m1/s1",
        "InChIKey": null,
        "Canonical SMILES": "O=C(O)C(OC1=CC=CC(=C1)CN(C2=NC=3C=CC=CC3O2)CCCOC4=CC=C(OC)C=C4)CC",
        "Molecular Formula": "C<sub>28</sub>H<sub>30</sub>N<sub>2</sub>O<sub>6</sub>",
        "Molecular Mass": "490.55",
        "Melting Point": "98-99 °C"
    }
}