{
    "cas_no": "80434-33-9",
    "key_name": "<em>rel</em>-(1<em>R</em>,2<em>R</em>,3<em>R</em>)-1-Ethyl-2,3-dihydro-4,5,7-trimethoxy-2-methyl-3-(2,4,5-trimethoxyphenyl)-1<em>H</em>-indene",
    "cn_name": null,
    "alternate_name": "1<em>H</em>-Indene, 1-ethyl-2,3-dihydro-4,5,7-trimethoxy-2-methyl-3-(2,4,5-trimethoxyphenyl)-, (1<em>R</em>,2<em>R</em>,3<em>R</em>)-<em>rel</em>-;1<em>H</em>-Indene, 1-ethyl-2,3-dihydro-4,5,7-trimethoxy-2-methyl-3-(2,4,5-trimethoxyphenyl)-, (1α,2β,3α)-;<em>rel</em>-(1<em>R</em>,2<em>R</em>,3<em>R</em>)-1-Ethyl-2,3-dihydro-4,5,7-trimethoxy-2-methyl-3-(2,4,5-trimethoxyphenyl)-1<em>H</em>-indene;Diasarone 2;2,3-Dihydro-4,5,7-trimethoxy-1-ethyl-2-methyl-3-(2,4,5-trimethoxyphenyl)indene;γ-Diasarone",
    "duplicated_cas_no": "130746-43-9;82373-99-7",
    "SMILES": "O(C)C1=C2[C@@H]([C@@H](C)[C@H](CC)C2=C(OC)C=C1OC)C3=C(OC)C=C(OC)C(OC)=C3",
    "meta_data": {
        "InChI": "InChI=1/C24H32O6/c1-9-14-13(2)21(15-10-17(26-4)18(27-5)11-16(15)25-3)23-22(14)19(28-6)12-20(29-7)24(23)30-8/h10-14,21H,9H2,1-8H3/t13-,14-,21-/s2",
        "InChIKey": null,
        "Canonical SMILES": "O(C=1C=C(OC)C(=CC1OC)C2C=3C(OC)=C(OC)C=C(OC)C3C(CC)C2C)C",
        "Molecular Formula": "C<sub>24</sub>H<sub>32</sub>O<sub>6</sub>",
        "Molecular Mass": "416.51",
        "Melting Point": "84 °C"
    }
}