{
    "cas_no": "34451-26-8",
    "key_name": "3,3,4,4,5,5,6,6,7,7,8,8,8-Tridecafluoro-1-octanethiol",
    "cn_name": null,
    "alternate_name": "1-Octanethiol, 3,3,4,4,5,5,6,6,7,7,8,8,8-tridecafluoro-;3,3,4,4,5,5,6,6,7,7,8,8,8-Tridecafluoro-1-octanethiol;1,1,2,2-Tetrahydroperfluorooctanethiol;2-(Perfluorohexyl)ethanethiol;1,1,2,2-Tetrahydroperfluorooctyl mercaptan;Foralkyl EM 6;1<em>H</em>,1<em>H</em>,2<em>H</em>,2<em>H</em>-Perfluorooctanethiol;2-(Perfluorohexyl)ethane-1-thiol;1<em>H</em>,1<em>H</em>,1<em>H</em>,2<em>H</em>-Perfluorooctanethiol",
    "duplicated_cas_no": "",
    "SMILES": "C(C(C(C(F)(F)F)(F)F)(F)F)(C(C(CCS)(F)F)(F)F)(F)F",
    "meta_data": {
        "InChI": "InChI=1S/C8H5F13S/c9-3(10,1-2-22)4(11,12)5(13,14)6(15,16)7(17,18)8(19,20)21/h22H,1-2H2",
        "InChIKey": null,
        "Canonical SMILES": "FC(F)(F)C(F)(F)C(F)(F)C(F)(F)C(F)(F)C(F)(F)CCS",
        "Molecular Formula": "C<sub>8</sub>H<sub>5</sub>F<sub>13</sub>S",
        "Molecular Mass": "380.17",
        "Boiling Point": "120 °C @ Press: 760 Torr"
    }
}