{
    "cas_no": "80-48-8",
    "key_name": "Methyl <em>p</em>-toluenesulfonate",
    "cn_name": "对甲苯磺酸甲酯;",
    "alternate_name": "Benzenesulfonic acid, 4-methyl-, methyl ester;<em>p</em>-Toluenesulfonic acid, methyl ester;Methyl <em>p</em>-toluenesulfonate;Methyl tosylate;Methyl <em>p</em>-tosylate;<em>p</em>-Methylbenzenesulfonic acid methyl ester;Methyl toluene-4-sulfonate;Methyl 4-methylbenzenesulfonate;Methyl <em>p</em>-methylbenzenesulfonate;Methyl toluenesulfonate;Toluene-4-sulfonic acid methyl ester;NSC 406335",
    "duplicated_cas_no": "",
    "SMILES": "S(OC)(=O)(=O)C1=CC=C(C)C=C1",
    "meta_data": {
        "InChI": "InChI=1S/C8H10O3S/c1-7-3-5-8(6-4-7)12(9,10)11-2/h3-6H,1-2H3",
        "InChIKey": null,
        "Canonical SMILES": "O=S(=O)(OC)C1=CC=C(C=C1)C",
        "Molecular Formula": "C<sub>8</sub>H<sub>10</sub>O<sub>3</sub>S",
        "Molecular Mass": "186.23",
        "Boiling Point": "292 °C @ Press: 760 Torr",
        "Melting Point": "28-29 °C",
        "Density": "1.234 g/cm³"
    }
}