{
    "cas_no": "10325-94-7",
    "key_name": "Cadmium nitrate",
    "cn_name": "硝酸镉;",
    "alternate_name": "Nitric acid, cadmium salt (2:1);Cadmium nitrate;Nitric acid, cadmium salt;Cadmium nitrate (Cd(NO<sub>3</sub>)<sub>2</sub>);Cadmium dinitrate;Cadmium(II) nitrate;Cadmium(II) dinitrate",
    "duplicated_cas_no": "14177-24-3",
    "SMILES": "N(=O)(=O)O.[Cd]",
    "meta_data": {
        "InChI": "InChI=1S/Cd.HNO3/c;2-1(3)4/h;(H,2,3,4)",
        "InChIKey": null,
        "Canonical SMILES": "[Cd].O=N(=O)O",
        "Molecular Formula": "Cd.2HNO<sub>3</sub>",
        "Molecular Mass": "",
        "Melting Point": "350 °C",
        "Density": "3.6 g/cm³"
    }
}