{
    "cas_no": "28957-72-4",
    "key_name": "8-Benzyl-8-azabicyclo[3.2.1]octan-3-one",
    "cn_name": "N-苄基托品酮;8-苄基-8-氮杂双环[3,2,1]辛-3-酮;",
    "alternate_name": "8-Azabicyclo[3.2.1]octan-3-one, 8-(phenylmethyl)-;1α<em>H</em>,5α<em>H</em>-Tropan-3-one, 9-phenyl-;3-Nortropanone, 8-benzyl-;8-(Phenylmethyl)-8-azabicyclo[3.2.1]octan-3-one;8-Benzyl-1α<em>H</em>,5α<em>H</em>-nortropan-3-one;8-Benzyl-3-nortropanone;<em>N</em>-Benzylnortropinone;8-Benzyl-8-azabicyclo[3.2.1]octan-3-one;<em>N</em>-Benzyl-3-tropinone;<em>N</em>-Benzyltropinone;8-Benzyltropinone;8-Benzylbicyclo[3.2.1]octan-3-one",
    "duplicated_cas_no": "868669-92-5;2243143-82-8",
    "SMILES": "C(N1C2CC(=O)CC1CC2)C3=CC=CC=C3",
    "meta_data": {
        "InChI": "InChI=1S/C14H17NO/c16-14-8-12-6-7-13(9-14)15(12)10-11-4-2-1-3-5-11/h1-5,12-13H,6-10H2",
        "InChIKey": null,
        "Canonical SMILES": "O=C1CC2N(CC=3C=CC=CC3)C(C1)CC2",
        "Molecular Formula": "C<sub>14</sub>H<sub>17</sub>NO",
        "Molecular Mass": "215.29",
        "Boiling Point": "161-168 °C @ Press: 0.25 Torr",
        "Melting Point": "110-111.5 °C"
    }
}