{
    "cas_no": "2490-97-3",
    "key_name": "Aceglutamide",
    "cn_name": "N-乙酰-L-谷氨酰胺;",
    "alternate_name": "<span class=\"text-smallcaps\">L</span>-Glutamine, <em>N</em><sup>2</sup>-acetyl-;Glutamine, <em>N</em><sup>2</sup>-acetyl-, <span class=\"text-smallcaps\">L</span>-;<em>N</em><sup>2</sup>-Acetyl-<span class=\"text-smallcaps\">L</span>-glutamine;Acetylglutamine;α-<em>N</em>-Acetyl-<span class=\"text-smallcaps\">L</span>-glutamine;Aceglutamide;Aceglutamid;<em>N</em><sup>2</sup>-Acetylglutamine;Acutil S;NSC 186896;(2S)-2-Acetamido-5-amino-5-oxopentanoic acid;(2S)-4-Carbamoyl-2-acetamidobutanoic acid",
    "duplicated_cas_no": "7577-60-8;30703-24-3",
    "SMILES": "[C@@H](CCC(N)=O)(NC(C)=O)C(O)=O",
    "meta_data": {
        "InChI": "InChI=1S/C7H12N2O4/c1-4(10)9-5(7(12)13)2-3-6(8)11/h5H,2-3H2,1H3,(H2,8,11)(H,9,10)(H,12,13)/t5-/m0/s1",
        "InChIKey": null,
        "Canonical SMILES": "O=C(O)C(NC(=O)C)CCC(=O)N",
        "Molecular Formula": "C<sub>7</sub>H<sub>12</sub>N<sub>2</sub>O<sub>4</sub>",
        "Molecular Mass": "188.18",
        "Melting Point": "197 °C",
        "Density": "1.382 g/cm³"
    }
}