{
    "cas_no": "701232-20-4",
    "key_name": "<em>trans</em>-4-[4-(4-Amino-7,7-dimethyl-7<em>H</em>-pyrimido[4,5-<em>b</em>][1,4]oxazin-6-yl)phenyl]cyclohexaneacetic acid",
    "cn_name": null,
    "alternate_name": "Cyclohexaneacetic acid, 4-[4-(4-amino-7,7-dimethyl-7<em>H</em>-pyrimido[4,5-<em>b</em>][1,4]oxazin-6-yl)phenyl]-, <em>trans</em>-;<em>trans</em>-4-[4-(4-Amino-7,7-dimethyl-7<em>H</em>-pyrimido[4,5-<em>b</em>][1,4]oxazin-6-yl)phenyl]cyclohexaneacetic acid;T 863",
    "duplicated_cas_no": "",
    "SMILES": "CC1(C)C(=NC=2C(O1)=NC=NC2N)C3=CC=C(C=C3)[C@@H]4CC[C@@H](CC(O)=O)CC4",
    "meta_data": {
        "InChI": "InChI=1/C22H26N4O3/c1-22(2)19(26-18-20(23)24-12-25-21(18)29-22)16-9-7-15(8-10-16)14-5-3-13(4-6-14)11-17(27)28/h7-10,12-14H,3-6,11H2,1-2H3,(H,27,28)(H2,23,24,25)/t13-,14-",
        "InChIKey": null,
        "Canonical SMILES": "O=C(O)CC1CCC(C=2C=CC(=CC2)C3=NC=4C(=NC=NC4N)OC3(C)C)CC1",
        "Molecular Formula": "C<sub>22</sub>H<sub>26</sub>N<sub>4</sub>O<sub>3</sub>",
        "Molecular Mass": "394.47",
        "Melting Point": "&gt;270 °C"
    }
}