{
    "cas_no": "2428-06-0",
    "key_name": "2-Chloro-5,5-dimethyl-1,3,2-dioxaphosphorinane",
    "cn_name": "2-氯-5,5-二甲基-1,3,2-二氧磷杂环己烷;",
    "alternate_name": "1,3,2-Dioxaphosphorinane, 2-chloro-5,5-dimethyl-;Phosphorochloridous acid, cyclic 2,2-dimethyltrimethylene ester;1,3-Propanediol, 2,2-dimethyl-, cyclic phosphorochloridite;2-Chloro-5,5-dimethyl-1,3,2-dioxaphosphorinane;Cyclic 2,2-dimethyltrimethylene phosphorochloridite;2,2-Dimethyl-1,3-propylene chlorophosphite;Neopentyl glycol chlorophosphite;Neopentylene phosphorochloridite;2-Chloro-5,5-dimethyl-[1,3,2]dioxaphosphinane;5,5-Dimethyl-2-chloro-1,3,2-dioxaphosphorinane",
    "duplicated_cas_no": "",
    "SMILES": "CC1(C)COP(Cl)OC1",
    "meta_data": {
        "InChI": "InChI=1S/C5H10ClO2P/c1-5(2)3-7-9(6)8-4-5/h3-4H2,1-2H3",
        "InChIKey": null,
        "Canonical SMILES": "ClP1OCC(C)(C)CO1",
        "Molecular Formula": "C<sub>5</sub>H<sub>10</sub>ClO<sub>2</sub>P",
        "Molecular Mass": "168.56",
        "Boiling Point": "66 °C @ Press: 13 Torr"
    }
}