{
    "cas_no": "111-44-4",
    "key_name": "Bis(2-chloroethyl) ether",
    "cn_name": "二氯乙醚;2,2\"-二氯乙醚;双(2-氯乙基)醚;",
    "alternate_name": "Ethane, 1,1′-oxybis[2-chloro-;Ether, bis(2-chloroethyl);Ether, bis(chloroethyl);1,1′-Oxybis[2-chloroethane];Bis(β-chloroethyl) ether;Bis(2-chloroethyl) ether;Chlorex;1-Chloro-2-(β-chloroethoxy)ethane;DCEE;2,2′-Dichlorethyl ether;β,β′-Dichloroethyl ether;Di(β-Chloroethyl) ether;β,β′-Dichlorodiethyl ether;2,2′-Dichlorodiethyl ether;2,2′-Dichloroethyl ether;<em>sym</em>-Dichloroethyl ether;2-Chloroethyl ether;1,5-Dichloro-3-oxapentane;Diethylene glycol dichloride;Oxygen mustard;1-Chloro-2-(2-chloroethoxy)ethane;2-(2-Chloroethoxy)ethyl chloride;Di-2-chloroethyl ether;NSC 406647;BCEE",
    "duplicated_cas_no": "92091-28-6",
    "SMILES": "O(CCCl)CCCl",
    "meta_data": {
        "InChI": "InChI=1S/C4H8Cl2O/c5-1-3-7-4-2-6/h1-4H2",
        "InChIKey": null,
        "Canonical SMILES": "ClCCOCCCl",
        "Molecular Formula": "C<sub>4</sub>H<sub>8</sub>Cl<sub>2</sub>O",
        "Molecular Mass": "143.01",
        "Boiling Point": "178.5 °C",
        "Melting Point": "-51.9 °C",
        "Density": "1.22 g/cm³ @ Temp: 20 °C"
    }
}