{
    "cas_no": "652-18-6",
    "key_name": "2,3,5,6-Tetrafluorobenzoic acid",
    "cn_name": "2,3,5,6-四氟苯甲酸;",
    "alternate_name": "Benzoic acid, 2,3,5,6-tetrafluoro-;2,3,5,6-Tetrafluorobenzoic acid",
    "duplicated_cas_no": "",
    "SMILES": "C(O)(=O)C1=C(F)C(F)=CC(F)=C1F",
    "meta_data": {
        "InChI": "InChI=1S/C7H2F4O2/c8-2-1-3(9)6(11)4(5(2)10)7(12)13/h1H,(H,12,13)",
        "InChIKey": null,
        "Canonical SMILES": "O=C(O)C=1C(F)=C(F)C=C(F)C1F",
        "Molecular Formula": "C<sub>7</sub>H<sub>2</sub>F<sub>4</sub>O<sub>2</sub>",
        "Molecular Mass": "194.08",
        "Melting Point": "151 °C"
    }
}