{
    "cas_no": "31637-97-5",
    "key_name": "Etofibrate",
    "cn_name": "依托贝特; 2-(4-氯苯氧基)-2-甲基丙酸 2-(烟酰氧)乙基酯;",
    "alternate_name": "3-Pyridinecarboxylic acid, 2-[2-(4-chlorophenoxy)-2-methyl-1-oxopropoxy]ethyl ester;Nicotinic acid, 2-hydroxyethyl ester 2-(<em>p</em>-chlorophenoxy)-2-methylpropionate (ester);Etofibrate;Lipo-Merz;Ethofibrate;Tricerol",
    "duplicated_cas_no": "",
    "SMILES": "O(C(C(OCCOC(=O)C=1C=CC=NC1)=O)(C)C)C2=CC=C(Cl)C=C2",
    "meta_data": {
        "InChI": "InChI=1S/C18H18ClNO5/c1-18(2,25-15-7-5-14(19)6-8-15)17(22)24-11-10-23-16(21)13-4-3-9-20-12-13/h3-9,12H,10-11H2,1-2H3",
        "InChIKey": null,
        "Canonical SMILES": "O=C(OCCOC(=O)C(OC1=CC=C(Cl)C=C1)(C)C)C=2C=NC=CC2",
        "Molecular Formula": "C<sub>18</sub>H<sub>18</sub>ClNO<sub>5</sub>",
        "Molecular Mass": "363.79",
        "Melting Point": "100 °C"
    }
}