{
    "cas_no": "827-36-1",
    "key_name": "α-(Dimethylamino)benzeneacetonitrile",
    "cn_name": "a-(N,N-二甲氨基)苯乙腈;",
    "alternate_name": "Benzeneacetonitrile, α-(dimethylamino)-;Acetonitrile, (dimethylamino)phenyl-;Glycinonitrile, <em>N</em>,<em>N</em>-dimethyl-2-phenyl-;α-(Dimethylamino)benzeneacetonitrile;α-(Dimethylamino)phenylacetonitrile;NSC 37416;2-(<em>N</em>,<em>N</em>-Dimethylamino)-2-phenylacetonitrile;2-(Dimethylamino)-2-phenylacetonitrile",
    "duplicated_cas_no": "6027-39-0",
    "SMILES": "C(N(C)C)(C#N)C1=CC=CC=C1",
    "meta_data": {
        "InChI": "InChI=1S/C10H12N2/c1-12(2)10(8-11)9-6-4-3-5-7-9/h3-7,10H,1-2H3",
        "InChIKey": null,
        "Canonical SMILES": "N#CC(C=1C=CC=CC1)N(C)C",
        "Molecular Formula": "C<sub>10</sub>H<sub>12</sub>N<sub>2</sub>",
        "Molecular Mass": "160.22",
        "Boiling Point": "120 °C @ Press: 16 Torr"
    }
}