{
    "cas_no": "95-00-1",
    "key_name": "2,4-Dichlorobenzenemethanamine",
    "cn_name": "2,4-二氯苯甲胺;",
    "alternate_name": "Benzenemethanamine, 2,4-dichloro-;Benzylamine, 2,4-dichloro-;2,4-Dichlorobenzenemethanamine;2,4-Dichlorobenzylamine;<em>o</em>,<em>p</em>-Dichlorobenzylamine;((2,4-Dichlorophenyl)methyl)amine;NSC 25064;1-(2,4-Dichlorophenyl)methanamine;(2,4-Dichlorophenyl)methanamine",
    "duplicated_cas_no": "",
    "SMILES": "C(N)C1=C(Cl)C=C(Cl)C=C1",
    "meta_data": {
        "InChI": "InChI=1S/C7H7Cl2N/c8-6-2-1-5(4-10)7(9)3-6/h1-3H,4,10H2",
        "InChIKey": null,
        "Canonical SMILES": "ClC1=CC=C(C(Cl)=C1)CN",
        "Molecular Formula": "C<sub>7</sub>H<sub>7</sub>Cl<sub>2</sub>N",
        "Molecular Mass": "176.04",
        "Boiling Point": "135 °C @ Press: 15 Torr"
    }
}