{
    "cas_no": "4294-57-9",
    "key_name": "<em>p</em>-Tolylmagnesium bromide",
    "cn_name": "对甲苯基溴化镁;4-甲基苯基溴化镁;",
    "alternate_name": "Magnesium, bromo(4-methylphenyl)-;Magnesium, bromo-<em>p</em>-tolyl-;<em>p</em>-Tolylmagnesium bromide;Bromo(4-methylphenyl)magnesium;Bromo-<em>p</em>-tolylmagnesium;(<em>p</em>-Methylphenyl)magnesium bromide;(4-Methylphenyl)magnesium bromide;4-Tolylmagnesium bromide;Bromo(4-tolyl)magnesium;Bromo(<em>p</em>-methylphenyl)magnesium;T 1700;Para-methylphenylmagnesium bromide",
    "duplicated_cas_no": "",
    "SMILES": "[Mg](Br)C1=CC=C(C)C=C1",
    "meta_data": {
        "InChI": "InChI=1S/C7H7.BrH.Mg/c1-7-5-3-2-4-6-7;;/h3-6H,1H3;1H;/q;;+1/p-1",
        "InChIKey": null,
        "Canonical SMILES": "Br[Mg]C1=CC=C(C=C1)C",
        "Molecular Formula": "C<sub>7</sub>H<sub>7</sub>BrMg",
        "Molecular Mass": "",
        "Melting Point": "143-144 °C"
    }
}