{
    "cas_no": "1155-64-2",
    "key_name": "ε-(Benzyloxycarbonyl)-<span class=\"text-smallcaps\">L</span>-lysine",
    "cn_name": "N6-Cbz-L-赖氨酸;N(e)-苄氧羰基-L-赖氨酸;",
    "alternate_name": "<span class=\"text-smallcaps\">L</span>-Lysine, <em>N</em><sup>6</sup>-[(phenylmethoxy)carbonyl]-;Lysine, <em>N</em><sup>6</sup>-carboxy-, <em>N</em><sup>6</sup>-benzyl ester, <span class=\"text-smallcaps\">L</span>-;Lysine, <em>N</em><sup>6</sup>-carboxy-, <em>N</em>-benzyl ester;<span class=\"text-smallcaps\">L</span>-Lysine, <em>N</em><sup>6</sup>-carboxy-, <em>N</em>-benzyl ester;<em>N</em><sup>6</sup>-[(Phenylmethoxy)carbonyl]-<span class=\"text-smallcaps\">L</span>-lysine;<em>N</em><sup>ε</sup>-(Benzyloxycarbonyl)-<span class=\"text-smallcaps\">L</span>-lysine;<em>N</em><sup>ε</sup>-(Benzyloxycarbonyl)lysine;<em>N</em><sup>ε</sup>-Carbobenzoxy-<span class=\"text-smallcaps\">L</span>-lysine;<em>N</em><sup>6</sup>-Carbobenzoxy-<span class=\"text-smallcaps\">L</span>-lysine;<em>N</em><sup>6</sup>-Carboxylysine <em>N</em><sup>6</sup>-benzyl ester;<em>N</em><sup>6</sup>-(Benzyloxycarbonyl)-<span class=\"text-smallcaps\">L</span>-lysine;<em>N</em><sup>6</sup>-(Phenylmethoxycarbonyl)-<span class=\"text-smallcaps\">L</span>-lysine;ε-(Benzyloxycarbonyl)-<span class=\"text-smallcaps\">L</span>-lysine;<em>N</em>-ε-Benzoyloxycarbonyllysine;<em>N</em><sup>6</sup>-Carbobenzyloxy-<span class=\"text-smallcaps\">L</span>-lysine;ε-<em>N</em>-Carbobenzyloxy-<span class=\"text-smallcaps\">L</span>-lysine;H-<span class=\"text-smallcaps\">L</span>-Lys(Cbz)-OH;<em>N</em>-ε-Carbobenzyloxyl-<span class=\"text-smallcaps\">L</span>-Lysine;(<em>S</em>)-2-Amino-6-(((benzyloxy)carbonyl)amino)hexanoic acid;(2S)-2-Amino-6-(phenylmethoxycarbonylamino)hexanoic acid;Nε-Benzyloxycarbonyl-<span class=\"text-smallcaps\">L</span>-lysine;(2S)-2-Amino-6-[[(benzyloxy)carbonyl]amino]hexanoic acid",
    "duplicated_cas_no": "22834-45-3;42381-16-8;1259560-02-5;1681057-06-6;1681057-08-8;1881273-60-4",
    "SMILES": "C(OC(NCCCC[C@@H](C(O)=O)N)=O)C1=CC=CC=C1",
    "meta_data": {
        "InChI": "InChI=1S/C14H20N2O4/c15-12(13(17)18)8-4-5-9-16-14(19)20-10-11-6-2-1-3-7-11/h1-3,6-7,12H,4-5,8-10,15H2,(H,16,19)(H,17,18)/t12-/m0/s1",
        "InChIKey": null,
        "Canonical SMILES": "O=C(OCC=1C=CC=CC1)NCCCCC(N)C(=O)O",
        "Molecular Formula": "C<sub>14</sub>H<sub>20</sub>N<sub>2</sub>O<sub>4</sub>",
        "Molecular Mass": "280.32",
        "Melting Point": "230 °C"
    }
}