{
    "cas_no": "927-80-0",
    "key_name": "Ethyne, ethoxy-",
    "cn_name": "乙氧基乙炔;",
    "alternate_name": "Ethyne, ethoxy-;Ether, ethyl ethynyl;Ethoxyacetylene;Ethyl ethynyl ether;Ethoxyethyne;1-Ethoxyethyne;Ethynyl ethyl ether",
    "duplicated_cas_no": "",
    "SMILES": "O(CC)C#C",
    "meta_data": {
        "InChI": "InChI=1S/C4H6O/c1-3-5-4-2/h1H,4H2,2H3",
        "InChIKey": null,
        "Canonical SMILES": "C#COCC",
        "Molecular Formula": "C<sub>4</sub>H<sub>6</sub>O",
        "Molecular Mass": "70.09",
        "Boiling Point": "50 °C",
        "Density": "0.7874 g/cm³ @ Temp: 25 °C"
    }
}