{
    "cas_no": "469-38-5",
    "key_name": "Cycloartenol",
    "cn_name": null,
    "alternate_name": "9,19-Cyclolanost-24-en-3-ol, (3β)-;Cycloartenol;9,19-Cyclo-9β-lanost-24-en-3β-ol;1<em>H</em>,19<em>H</em>-Cyclopropa[9,10]cyclopenta[<em>a</em>]phenanthrene, 9,19-cyclolanost-24-en-3-ol deriv.;(3β)-9,19-Cyclolanost-24-en-3-ol;Handianol;9,19-Cyclo-24-lanosten-3β-ol;Cycloart-24-en-3β-ol;NSC 670193",
    "duplicated_cas_no": "1253203-48-3",
    "SMILES": "C[C@]12[C@]3([C@]4([C@]5(C4)[C@](C(C)(C)[C@@H](O)CC5)(CC3)[H])CC[C@]1(C)[C@@]([C@@H](CCC=C(C)C)C)(CC2)[H])[H]",
    "meta_data": {
        "InChI": "InChI=1S/C30H50O/c1-20(2)9-8-10-21(3)22-13-15-28(7)24-12-11-23-26(4,5)25(31)14-16-29(23)19-30(24,29)18-17-27(22,28)6/h9,21-25,31H,8,10-19H2,1-7H3/t21-,22-,23+,24+,25+,27-,28+,29-,30+/m1/s1",
        "InChIKey": null,
        "Canonical SMILES": "OC1CCC23CC43CCC5(C)C(CCC5(C)C4CCC2C1(C)C)C(C)CCC=C(C)C",
        "Molecular Formula": "C<sub>30</sub>H<sub>50</sub>O",
        "Molecular Mass": "426.72",
        "Melting Point": "103.0-103.5 °C"
    }
}