{
    "cas_no": "4137-56-8",
    "key_name": "β-<span class=\"text-smallcaps\">D</span>-Ribofuranoside, methyl 2,3-<em>O</em>-(1-methylethylidene)-, 5-(4-methylbenzenesulfonate)",
    "cn_name": "1-甲氧基-2,3-O-异亚丙基-5-O-对甲苯磺酰基-beta-D-呋喃核糖苷;",
    "alternate_name": "β-<span class=\"text-smallcaps\">D</span>-Ribofuranoside, methyl 2,3-<em>O</em>-(1-methylethylidene)-, 5-(4-methylbenzenesulfonate);Ribofuranoside, methyl 2,3-<em>O</em>-isopropylidene-, <em>p</em>-toluenesulfonate, β-<span class=\"text-smallcaps\">D</span>-;β-<span class=\"text-smallcaps\">D</span>-Ribofuranoside, methyl 2,3-<em>O</em>-(1-methylethylidene)-, 4-methylbenzenesulfonate;Ribofuranoside, methyl 2,3-<em>O</em>-isopropylidene-, <em>p</em>-toluenesulfonate;Furo[3,4-<em>d</em>]-1,3-dioxole, β-<span class=\"text-smallcaps\">D</span>-ribofuranoside deriv.;Methyl 2,3-<em>O</em>-isopropylidene-5-<em>O</em>-<em>p</em>-tolylsulfonyl-β-<span class=\"text-smallcaps\">D</span>-ribofuranoside;Methyl 2,3-<em>O</em>-isopropylidene-5-<em>O</em>-tosyl-β-<span class=\"text-smallcaps\">D</span>-ribofuranoside;Methyl 2,3-<em>O</em>-isopropylidene-5-<em>O</em>-tosyl-<span class=\"text-smallcaps\">D</span>-ribonucleoside;NSC 85192;Methyl 2,3-<em>O</em>-isopropylidene-5-<em>O</em>-β-toluenesulfonyl-β-<span class=\"text-smallcaps\">D</span>-ribofuranoside;Methyl 2,3-<em>O</em>-isopropylidene-5-<em>O</em>-<em>p</em>-toluenesulfonyl-β-<span class=\"text-smallcaps\">D</span>-ribofuranoside",
    "duplicated_cas_no": "",
    "SMILES": "C(OS(=O)(=O)C1=CC=C(C)C=C1)[C@@H]2[C@@]3([C@]([C@H](OC)O2)(OC(C)(C)O3)[H])[H]",
    "meta_data": {
        "InChI": "InChI=1S/C16H22O7S/c1-10-5-7-11(8-6-10)24(17,18)20-9-12-13-14(15(19-4)21-12)23-16(2,3)22-13/h5-8,12-15H,9H2,1-4H3/t12-,13-,14-,15-/m1/s1",
        "InChIKey": null,
        "Canonical SMILES": "O=S(=O)(OCC1OC(OC)C2OC(OC12)(C)C)C3=CC=C(C=C3)C",
        "Molecular Formula": "C<sub>16</sub>H<sub>22</sub>O<sub>7</sub>S",
        "Molecular Mass": "358.41",
        "Melting Point": "82-84 °C"
    }
}