{
    "cas_no": "2809-69-0",
    "key_name": "2,4-Hexadiyne",
    "cn_name": "2,4-己二炔;2,4-己二炔;2,4-己二炔,98%;2,4-乙二炔;",
    "alternate_name": "2,4-Hexadiyne;Dimethyldiacetylene;Dimethylbutadiyne",
    "duplicated_cas_no": "",
    "SMILES": "C(C#CC)#CC",
    "meta_data": {
        "InChI": "InChI=1S/C6H6/c1-3-5-6-4-2/h1-2H3",
        "InChIKey": null,
        "Canonical SMILES": "C(C#CC)#CC",
        "Molecular Formula": "C<sub>6</sub>H<sub>6</sub>",
        "Molecular Mass": "78.11",
        "Boiling Point": "129.5 °C",
        "Melting Point": "67.8 °C"
    }
}