{
    "cas_no": "643-12-9",
    "key_name": "<span class=\"text-smallcaps\">D</span>-<em>chiro</em>-Inositol",
    "cn_name": null,
    "alternate_name": "<span class=\"text-smallcaps\">D</span>-<em>chiro</em>-Inositol;Inositol, <span class=\"text-smallcaps\">D</span>-<em>chiro</em>-;<span class=\"text-smallcaps\">D</span>-Inositol;(+)-<em>chiro</em>-Inositol;<span class=\"text-smallcaps\">D</span>-(+)-<em>chiro</em>-Inositol;<span class=\"text-smallcaps\">D</span>-Chiral-inositol",
    "duplicated_cas_no": "19030-27-4;36190-90-6",
    "SMILES": "OC1C(O)C(O)C(O)C(O)C1O",
    "meta_data": {
        "InChI": "InChI=1S/C6H12O6/c7-1-2(8)4(10)6(12)5(11)3(1)9/h1-12H",
        "InChIKey": null,
        "Canonical SMILES": "OC1C(O)C(O)C(O)C(O)C1O",
        "Molecular Formula": "C<sub>6</sub>H<sub>12</sub>O<sub>6</sub>",
        "Molecular Mass": "180.16",
        "Melting Point": "249.5 °C",
        "Density": "1.598 g/cm³ @ Temp: 20 °C"
    }
}