{
    "cas_no": "4909-78-8",
    "key_name": "1,1-Bis(2,2-dimethylpropoxy)-<em>N</em>,<em>N</em>-dimethylmethanamine",
    "cn_name": "N,N-二甲基甲酰胺二新戊基乙缩醛;1,1-二新戊氧基-N,N-二甲胺;",
    "alternate_name": "Methanamine, 1,1-bis(2,2-dimethylpropoxy)-<em>N</em>,<em>N</em>-dimethyl-;Trimethylamine, 1,1-bis(neopentyloxy)-;1,1-Bis(2,2-dimethylpropoxy)-<em>N</em>,<em>N</em>-dimethylmethanamine;Dimethylformamide dineopentyl acetal;<em>N</em>,<em>N</em>-Dimethylformamide dineopentyl acetal;DMF dineopentyl acetal;Dimethylformamide bis(2,2-dimethylpropyl) acetal",
    "duplicated_cas_no": "146490-05-3",
    "SMILES": "C(OCC(C)(C)C)(OCC(C)(C)C)N(C)C",
    "meta_data": {
        "InChI": "InChI=1S/C13H29NO2/c1-12(2,3)9-15-11(14(7)8)16-10-13(4,5)6/h11H,9-10H2,1-8H3",
        "InChIKey": null,
        "Canonical SMILES": "O(CC(C)(C)C)C(OCC(C)(C)C)N(C)C",
        "Molecular Formula": "C<sub>13</sub>H<sub>29</sub>NO<sub>2</sub>",
        "Molecular Mass": "231.37",
        "Melting Point": "253.5 °C"
    }
}