{
    "cas_no": "29134-29-0",
    "key_name": "1-Pyrrolidineacetonitrile",
    "cn_name": "(1-吡咯)乙腈;(1-吡咯)乙腈,97%;",
    "alternate_name": "1-Pyrrolidineacetonitrile;<em>N</em>-Pyrrolidinoacetonitrile;Pyrrolidinoacetonitrile;1-Cyanomethylpyrrolidine;Pyrrolidin-1-ylacetonitrile;NSC 26714;<em>N</em>-Cyanomethylpyrrolidine;2-Pyrrolidin-1-ylacetonitrile;2-(Pyrrolidin-1-yl)acetonitrile",
    "duplicated_cas_no": "",
    "SMILES": "C(C#N)N1CCCC1",
    "meta_data": {
        "InChI": "InChI=1S/C6H10N2/c7-3-6-8-4-1-2-5-8/h1-2,4-6H2",
        "InChIKey": null,
        "Canonical SMILES": "N#CCN1CCCC1",
        "Molecular Formula": "C<sub>6</sub>H<sub>10</sub>N<sub>2</sub>",
        "Molecular Mass": "110.16",
        "Boiling Point": "86 °C @ Press: 22 Torr"
    }
}