{
    "cas_no": "3353-89-7",
    "key_name": "Sulfonium, triphenyl-, bromide (1:1)",
    "cn_name": "三苯基溴化锍;",
    "alternate_name": "Sulfonium, triphenyl-, bromide (1:1);Sulfonium, triphenyl-, bromide;Triphenylsulfonium bromide",
    "duplicated_cas_no": "",
    "SMILES": "[S+](C1=CC=CC=C1)(C2=CC=CC=C2)C3=CC=CC=C3.[Br-]",
    "meta_data": {
        "InChI": "InChI=1S/C18H15S.BrH/c1-4-10-16(11-5-1)19(17-12-6-2-7-13-17)18-14-8-3-9-15-18;/h1-15H;1H/q+1;/p-1",
        "InChIKey": null,
        "Canonical SMILES": "[Br-].C=1C=CC(=CC1)[S+](C=2C=CC=CC2)C=3C=CC=CC3",
        "Molecular Formula": "C<sub>18</sub>H<sub>15</sub>S.Br",
        "Molecular Mass": "",
        "Melting Point": "290.5-290.9 °C"
    }
}