{
    "cas_no": "1141-59-9",
    "key_name": "4-(2-Pyridylazo)resorcinol",
    "cn_name": "4-(2-吡啶偶氮)间苯二酚;4-(2-吡啶偶氮)-1,3-苯二酚;4-(2-吡啶偶氮)间苯二酚;",
    "alternate_name": "1,3-Benzenediol, 4-[2-(2-pyridinyl)diazenyl]-;Resorcinol, 4-(2-pyridylazo)-;1,3-Benzenediol, 4-(2-pyridinylazo)-;4-[2-(2-Pyridinyl)diazenyl]-1,3-benzenediol;PAR;4-(2-Pyridylazo)resorcinol;1-(2-Pyridylazo)-2,4-dihydroxybenzene;4-(2-Pyridylazo)-1,3-benzenediol;1,3-Dihydroxy-4-(2′-pyridylazo)benzene;4-(2-Pyridinylazo)-1,3-benzenediol;4-(2-Pyridinylazo)resorcinol;PAR (resorcinol derivative);4-(2-Pyridinylazo)-1,3-dihydroxybenzene;NSC 148355;SBR 1586;XB 1006-1",
    "duplicated_cas_no": "",
    "SMILES": "N(=NC1=CC=CC=N1)C2=C(O)C=C(O)C=C2",
    "meta_data": {
        "InChI": "InChI=1S/C11H9N3O2/c15-8-4-5-9(10(16)7-8)13-14-11-3-1-2-6-12-11/h1-7,15-16H",
        "InChIKey": null,
        "Canonical SMILES": "OC1=CC=C(N=NC2=NC=CC=C2)C(O)=C1",
        "Molecular Formula": "C<sub>11</sub>H<sub>9</sub>N<sub>3</sub>O<sub>2</sub>",
        "Molecular Mass": "215.21",
        "Melting Point": "196-198 °C"
    }
}