{
    "cas_no": "2216-87-7",
    "key_name": "3-Undecanone",
    "cn_name": "3-十一酮;乙基辛基酮;",
    "alternate_name": "3-Undecanone;Ethyl octyl ketone;NSC 158429",
    "duplicated_cas_no": "",
    "SMILES": "C(CCC(CC)=O)CCCCC",
    "meta_data": {
        "InChI": "InChI=1S/C11H22O/c1-3-5-6-7-8-9-10-11(12)4-2/h3-10H2,1-2H3",
        "InChIKey": null,
        "Canonical SMILES": "O=C(CC)CCCCCCCC",
        "Molecular Formula": "C<sub>11</sub>H<sub>22</sub>O",
        "Molecular Mass": "170.29",
        "Boiling Point": "227 °C",
        "Melting Point": "12 °C",
        "Density": "0.8272 g/cm³ @ Temp: 20 °C"
    }
}