{
    "cas_no": "113-53-1",
    "key_name": "Dothiepin",
    "cn_name": "度琉平;度琉平;",
    "alternate_name": "1-Propanamine, 3-dibenzo[<em>b</em>,<em>e</em>]thiepin-11(6<em>H</em>)-ylidene-<em>N</em>,<em>N</em>-dimethyl-;Dibenzo[<em>b</em>,<em>e</em>]thiepin-Δ<sup>11(6</sup><em><sup>H</sup></em><sup>),γ</sup>-propylamine, <em>N</em>,<em>N</em>-dimethyl-;Dibenzo[<em>b</em>,<em>e</em>]thiepin, 1-propanamine deriv.;3-Dibenzo[<em>b</em>,<em>e</em>]thiepin-11(6<em>H</em>)-ylidene-<em>N</em>,<em>N</em>-dimethyl-1-propanamine;Dosulepin;Prothiadene;Prothiaden;Dothiepin;IZ 914;Dosulepine;Dothep",
    "duplicated_cas_no": "",
    "SMILES": "C(CCN(C)C)=C1C=2C(CSC=3C1=CC=CC3)=CC=CC2",
    "meta_data": {
        "InChI": "InChI=1S/C19H21NS/c1-20(2)13-7-11-17-16-9-4-3-8-15(16)14-21-19-12-6-5-10-18(17)19/h3-6,8-12H,7,13-14H2,1-2H3",
        "InChIKey": null,
        "Canonical SMILES": "S1C=2C=CC=CC2C(=CCCN(C)C)C=3C=CC=CC3C1",
        "Molecular Formula": "C<sub>19</sub>H<sub>21</sub>NS",
        "Molecular Mass": "295.44",
        "Boiling Point": "171-172 °C",
        "Melting Point": "55-57 °C"
    }
}