{
    "cas_no": "6311-92-8",
    "key_name": "3-Hexylpyridine",
    "cn_name": "3-正-己基吡啶;",
    "alternate_name": "Pyridine, 3-hexyl-;3-Hexylpyridine;NSC 42647",
    "duplicated_cas_no": "",
    "SMILES": "C(CCCCC)C=1C=CC=NC1",
    "meta_data": {
        "InChI": "InChI=1S/C11H17N/c1-2-3-4-5-7-11-8-6-9-12-10-11/h6,8-10H,2-5,7H2,1H3",
        "InChIKey": null,
        "Canonical SMILES": "N=1C=CC=C(C1)CCCCCC",
        "Molecular Formula": "C<sub>11</sub>H<sub>17</sub>N",
        "Molecular Mass": "163.26",
        "Boiling Point": "108-109 °C @ Press: 9 Torr"
    }
}