{
    "cas_no": "1916-08-1",
    "key_name": "3-Hydroxy-4,5-dimethoxybenzoic acid",
    "cn_name": "3,4-二甲氧基-5-羟基苯甲酸;",
    "alternate_name": "Benzoic acid, 3-hydroxy-4,5-dimethoxy-;Veratric acid, 5-hydroxy-;3-Hydroxy-4,5-dimethoxybenzoic acid;Gallic acid, 3,4-dimethyl ether;3,4-Dimethoxy-5-hydroxybenzoic acid;5-Hydroxy-3,4-dimethoxybenzoic acid;NSC 19885;3,4-<em>O</em>-Dimethylgallic acid",
    "duplicated_cas_no": "",
    "SMILES": "O(C)C1=C(OC)C=C(C(O)=O)C=C1O",
    "meta_data": {
        "InChI": "InChI=1S/C9H10O5/c1-13-7-4-5(9(11)12)3-6(10)8(7)14-2/h3-4,10H,1-2H3,(H,11,12)",
        "InChIKey": null,
        "Canonical SMILES": "O=C(O)C1=CC(O)=C(OC)C(OC)=C1",
        "Molecular Formula": "C<sub>9</sub>H<sub>10</sub>O<sub>5</sub>",
        "Molecular Mass": "198.17",
        "Melting Point": "194-195 °C"
    }
}