{
    "cas_no": "68-88-2",
    "key_name": "(±)-Hydroxyzine",
    "cn_name": "羟嗪;2-[2-[4-[(4-氯苯基)-苯甲基]哌嗪-1-基]乙氧基]乙醇;",
    "alternate_name": "Ethanol, 2-[2-[4-[(4-chlorophenyl)phenylmethyl]-1-piperazinyl]ethoxy]-;Ethanol, 2-[2-[4-(<em>p</em>-chloro-α-phenylbenzyl)-1-piperazinyl]ethoxy]-;Ethanol, 2-[2-[4-(4-chloro-α-phenylbenzyl)-1-piperazinyl]ethoxy]-;2-[2-[4-[(4-Chlorophenyl)phenylmethyl]-1-piperazinyl]ethoxy]ethanol;U.C.B 4492;1-(<em>p</em>-Chlorobenzhydryl)-4-[2-(2-hydroxyethoxy)ethyl]diethylenediamine;1-(<em>p</em>-Chlorobenzhydryl)-4-[2-(2-hydroxyethoxy)ethyl]piperazine;1-(<em>p</em>-Chlorodiphenylmethyl)-4-[2-(2-hydroxyethoxy)ethyl]piperazine;1-(<em>p</em>-Chloro-α-phenylbenzyl)-4-[2-((2-hydroxyethoxy)ethyl)]piperazine;2-[2-[4-(<em>p</em>-Chloro-α-phenylbenzyl)-1-piperazinyl]ethoxy]ethanol;Hydroxyzine;Tran-Q;Hydroxizine;Hydroxyzin;(±)-Hydroxyzine;Hydroxyzyne;Tranquizine;NSC 169188;2-(2-[4-[(4-Chlorophenyl)(phenyl)methyl]piperazin-1-yl]ethoxy)ethan-1-ol;MeSH ID: D006919",
    "duplicated_cas_no": "147152-21-4",
    "SMILES": "C(N1CCN(CCOCCO)CC1)(C2=CC=C(Cl)C=C2)C3=CC=CC=C3",
    "meta_data": {
        "InChI": "InChI=1S/C21H27ClN2O2/c22-20-8-6-19(7-9-20)21(18-4-2-1-3-5-18)24-12-10-23(11-13-24)14-16-26-17-15-25/h1-9,21,25H,10-17H2",
        "InChIKey": null,
        "Canonical SMILES": "ClC1=CC=C(C=C1)C(C=2C=CC=CC2)N3CCN(CCOCCO)CC3",
        "Molecular Formula": "C<sub>21</sub>H<sub>27</sub>ClN<sub>2</sub>O<sub>2</sub>",
        "Molecular Mass": "374.90",
        "Boiling Point": "250 °C @ Press: 0.1 Torr"
    }
}