{
    "cas_no": "481-30-1",
    "key_name": "Epitestosterone",
    "cn_name": "表睾酮;17a-羟基雄甾-4-烯-3-酮;",
    "alternate_name": "Androst-4-en-3-one, 17-hydroxy-, (17α)-;Androst-4-en-3-one, 17α-hydroxy-;(17α)-17-Hydroxyandrost-4-en-3-one;Androst-4-en-17α-ol-3-one;Epitestosterone;<em>epi</em>-Testosterone;17α-Testosterone;<em>cis</em>-Testosterone;Isotestosterone;Testosterone, <em>cis</em>-;17-Epitestosterone;17α-Hydroxyandrost-4-ene-3-one;4-Androstene-17α-ol-3-one;17α-Hydroxyandrost-4-en-3-one;17α-<em>cis</em>-Testosterone;NSC 26499;MeSH ID: D004845",
    "duplicated_cas_no": "2602564-49-6",
    "SMILES": "C[C@@]12[C@@]3([C@]([C@]4([C@](C)(CC3)[C@H](O)CC4)[H])(CCC1=CC(=O)CC2)[H])[H]",
    "meta_data": {
        "InChI": "InChI=1S/C19H28O2/c1-18-9-7-13(20)11-12(18)3-4-14-15-5-6-17(21)19(15,2)10-8-16(14)18/h11,14-17,21H,3-10H2,1-2H3/t14-,15-,16-,17+,18-,19-/m0/s1",
        "InChIKey": null,
        "Canonical SMILES": "O=C1C=C2CCC3C(CCC4(C)C(O)CCC34)C2(C)CC1",
        "Molecular Formula": "C<sub>19</sub>H<sub>28</sub>O<sub>2</sub>",
        "Molecular Mass": "288.42",
        "Melting Point": "155 °C"
    }
}