{
    "cas_no": "39648-67-4",
    "key_name": "(-)-1,1′-Binaphthyl-2,2′-diyl hydrogen phosphate",
    "cn_name": "R-联萘酚磷酸酯;",
    "alternate_name": "Dinaphtho[2,1-<em>d</em>:1′,2′-<em>f</em>][1,3,2]dioxaphosphepin, 4-hydroxy-, 4-oxide, (11b<em>R</em>)-;Dinaphtho[2,1-<em>d</em>:1′,2′-<em>f</em>][1,3,2]dioxaphosphepin, 4-hydroxy-, 4-oxide, (<em>R</em>)-;(<em>R</em>)-(-)-1,1′-Binaphthyl-2,2′-diyl hydrogen phosphate;(-)-4-Hydroxydinaphtho[2,1-<em>d</em>:1′,2′-<em>f</em>][1,3,2]dioxaphosphepin 4-oxide;(-)-1,1′-Binaphthyl-2,2′-diyl hydrogen phosphate;(-)-1,1′-Dinaphthyl-2,2′-diyl hydrogen phosphate;(<em>R</em>)-(-)-BNDHP;(<em>R</em>)-1,1′-Binaphthyl-2,2′-diyl hydrogen phosphate;(<em>R</em>)-1,1′-Bi-2-naphthol-2,2′-diyl hydrogen phosphate;(<em>R</em>)-(-)-Binaphthyl-2,2′-diyl hydrogen phosphate;(<em>R</em>)-BNPPA;(R)-1,1′-Binaphthyl-2,2′-diyl hydrogen phosphate;(<em>R</em>)-1,1′-Binaphthalene-2,2′-diyl hydrogen phosphate",
    "duplicated_cas_no": "50574-62-4;1072908-83-8",
    "SMILES": "O=P1(O)OC2=C(C=3C=4C(C=CC3O1)=CC=CC4)C=5C(C=C2)=CC=CC5",
    "meta_data": {
        "InChI": "InChI=1S/C20H13O4P/c21-25(22)23-17-11-9-13-5-1-3-7-15(13)19(17)20-16-8-4-2-6-14(16)10-12-18(20)24-25/h1-12H,(H,21,22)",
        "InChIKey": null,
        "Canonical SMILES": "O=P1(O)OC=2C=CC=3C=CC=CC3C2C4=C(O1)C=CC=5C=CC=CC54",
        "Molecular Formula": "C<sub>20</sub>H<sub>13</sub>O<sub>4</sub>P",
        "Molecular Mass": "348.29",
        "Melting Point": "220 °C"
    }
}