{
    "cas_no": "20358-00-3",
    "key_name": "5-Chloro-2-benzothiazolamine",
    "cn_name": null,
    "alternate_name": "2-Benzothiazolamine, 5-chloro-;Benzothiazole, 2-amino-5-chloro-;5-Chloro-2-benzothiazolamine;2-Amino-5-chlorobenzothiazole;5-Chloro-2-aminobenzothiazole;5-Chloro-2-benzothiazolylamine;NSC 44454;NSC 56970;5-Chlorobenzo[<em>d</em>]thiazol-2-amine",
    "duplicated_cas_no": "",
    "SMILES": "NC=1SC=2C(N1)=CC(Cl)=CC2",
    "meta_data": {
        "InChI": "InChI=1S/C7H5ClN2S/c8-4-1-2-6-5(3-4)10-7(9)11-6/h1-3H,(H2,9,10)",
        "InChIKey": null,
        "Canonical SMILES": "ClC=1C=CC=2SC(=NC2C1)N",
        "Molecular Formula": "C<sub>7</sub>H<sub>5</sub>ClN<sub>2</sub>S",
        "Molecular Mass": "184.65",
        "Melting Point": "196-198 °C"
    }
}