{
    "cas_no": "10521-91-2",
    "key_name": "5-Phenyl-1-pentanol",
    "cn_name": null,
    "alternate_name": "Benzenepentanol;1-Pentanol, 5-phenyl-;Phenylamyl alcohol;5-Phenylpentanol;Phenylpentanol;5-Phenyl-1-pentanol;5-Phenyl-1-pentyl alcohol;NSC 6590",
    "duplicated_cas_no": "",
    "SMILES": "C(CCCCO)C1=CC=CC=C1",
    "meta_data": {
        "InChI": "InChI=1S/C11H16O/c12-10-6-2-5-9-11-7-3-1-4-8-11/h1,3-4,7-8,12H,2,5-6,9-10H2",
        "InChIKey": null,
        "Canonical SMILES": "OCCCCCC=1C=CC=CC1",
        "Molecular Formula": "C<sub>11</sub>H<sub>16</sub>O",
        "Molecular Mass": "164.24",
        "Boiling Point": "155 °C @ Press: 20 Torr",
        "Density": "0.9704 g/cm³ @ Temp: 20 °C"
    }
}