{
    "cas_no": "5105-78-2",
    "key_name": "4-(Benzyloxycarbonylamino)butyric acid",
    "cn_name": "N-苄氧羰基-4-氨基丁酸;",
    "alternate_name": "Butanoic acid, 4-[[(phenylmethoxy)carbonyl]amino]-;Butyric acid, 4-(carboxyamino)-, <em>N</em>-benzyl ester;Butyric acid, 4-(carboxyamino)-, 4-benzyl ester;4-[[(Phenylmethoxy)carbonyl]amino]butanoic acid;Carbobenzoxy-4-aminobutyric acid;<em>N</em>-Carbobenzyloxy-γ-aminobutyric acid;4-(Benzyloxycarbonylamino)butyric acid;4-(Benzyloxycarbonylamino)butanoic acid;<em>N</em>-Benzyloxycarbonyl-γ-aminobutyric acid;4-[(<em>N</em>-Carbobenzoxy)amino]butyric acid;4-((<em>N</em>-Benzyloxycarbonyl)amino)butyric acid;NSC 120007;Benzyl (3-carboxypropyl)carbamate;4-(Cbz-amino)butyric acid",
    "duplicated_cas_no": "",
    "SMILES": "C(OC(NCCCC(O)=O)=O)C1=CC=CC=C1",
    "meta_data": {
        "InChI": "InChI=1S/C12H15NO4/c14-11(15)7-4-8-13-12(16)17-9-10-5-2-1-3-6-10/h1-3,5-6H,4,7-9H2,(H,13,16)(H,14,15)",
        "InChIKey": null,
        "Canonical SMILES": "O=C(O)CCCNC(=O)OCC=1C=CC=CC1",
        "Molecular Formula": "C<sub>12</sub>H<sub>15</sub>NO<sub>4</sub>",
        "Molecular Mass": "237.25",
        "Melting Point": "64.5 °C"
    }
}