{
    "cas_no": "2419-74-1",
    "key_name": "1,4-Dichloro-2-butanol",
    "cn_name": "1,4-二氯-2-丁醇;1，4-二氯-2-丁醇;",
    "alternate_name": "2-Butanol, 1,4-dichloro-;1,4-Dichloro-2-butanol",
    "duplicated_cas_no": "",
    "SMILES": "C(CCCl)(CCl)O",
    "meta_data": {
        "InChI": "InChI=1S/C4H8Cl2O/c5-2-1-4(7)3-6/h4,7H,1-3H2",
        "InChIKey": null,
        "Canonical SMILES": "ClCCC(O)CCl",
        "Molecular Formula": "C<sub>4</sub>H<sub>8</sub>Cl<sub>2</sub>O",
        "Molecular Mass": "143.01",
        "Boiling Point": "90-95 °C @ Press: 18 Torr",
        "Density": "1.2922 g/cm³ @ Temp: 20 °C"
    }
}