{
    "cas_no": "6028-89-3",
    "key_name": "1-(4-Methylphenyl)-3-(2-thienyl)-2-propen-1-one",
    "cn_name": null,
    "alternate_name": "2-Propen-1-one, 1-(4-methylphenyl)-3-(2-thienyl)-;Acrylophenone, 4′-methyl-3-(2-thienyl)-;1-(4-Methylphenyl)-3-(2-thienyl)-2-propen-1-one;1-(4-Methylphenyl)-3-(thien-2-yl)-2-propen-1-one",
    "duplicated_cas_no": "",
    "SMILES": "C(C=CC1=CC=CS1)(=O)C2=CC=C(C)C=C2",
    "meta_data": {
        "InChI": "InChI=1S/C14H12OS/c1-11-4-6-12(7-5-11)14(15)9-8-13-3-2-10-16-13/h2-10H,1H3",
        "InChIKey": null,
        "Canonical SMILES": "O=C(C=CC=1SC=CC1)C2=CC=C(C=C2)C",
        "Molecular Formula": "C<sub>14</sub>H<sub>12</sub>OS",
        "Molecular Mass": "228.31",
        "Melting Point": "79 °C"
    }
}