{
    "cas_no": "125367-34-2",
    "key_name": "<em>N</em>,<em>N</em>′-[1,2-Ethanediylbis(oxy-2,1-phenylene)]bis[<em>N</em>-(2-methoxy-2-oxoethyl)glycine] 1,1′-dimethyl ester",
    "cn_name": null,
    "alternate_name": "Glycine, <em>N</em>,<em>N</em>′-[1,2-ethanediylbis(oxy-2,1-phenylene)]bis[<em>N</em>-(2-methoxy-2-oxoethyl)-, 1,1′-dimethyl ester;Glycine, <em>N</em>,<em>N</em>′-[1,2-ethanediylbis(oxy-2,1-phenylene)]bis[<em>N</em>-(2-methoxy-2-oxoethyl)-, dimethyl ester;<em>N</em>,<em>N</em>′-[1,2-Ethanediylbis(oxy-2,1-phenylene)]bis[<em>N</em>-(2-methoxy-2-oxoethyl)glycine] 1,1′-dimethyl ester;Tetramethyl 1,2-bis(2-aminophenoxy)ethane-<em>N</em>,<em>N</em>,<em>N</em>′,<em>N</em>′-tetraacetate",
    "duplicated_cas_no": "",
    "SMILES": "N(CC(OC)=O)(CC(OC)=O)C1=C(OCCOC2=C(N(CC(OC)=O)CC(OC)=O)C=CC=C2)C=CC=C1",
    "meta_data": {
        "InChI": "InChI=1S/C26H32N2O10/c1-33-23(29)15-27(16-24(30)34-2)19-9-5-7-11-21(19)37-13-14-38-22-12-8-6-10-20(22)28(17-25(31)35-3)18-26(32)36-4/h5-12H,13-18H2,1-4H3",
        "InChIKey": null,
        "Canonical SMILES": "O=C(OC)CN(C=1C=CC=CC1OCCOC=2C=CC=CC2N(CC(=O)OC)CC(=O)OC)CC(=O)OC",
        "Molecular Formula": "C<sub>26</sub>H<sub>32</sub>N<sub>2</sub>O<sub>10</sub>",
        "Molecular Mass": "532.54",
        "Melting Point": "87-89 °C"
    }
}