{
    "cas_no": "443-84-5",
    "key_name": "1,3-Difluoro-2-methylbenzene",
    "cn_name": null,
    "alternate_name": "Benzene, 1,3-difluoro-2-methyl-;Toluene, 2,6-difluoro-;1,3-Difluoro-2-methylbenzene;2,6-Difluorotoluene;2,6-Difluoro(methyl)benzene",
    "duplicated_cas_no": "",
    "SMILES": "CC1=C(F)C=CC=C1F",
    "meta_data": {
        "InChI": "InChI=1S/C7H6F2/c1-5-6(8)3-2-4-7(5)9/h2-4H,1H3",
        "InChIKey": null,
        "Canonical SMILES": "FC1=CC=CC(F)=C1C",
        "Molecular Formula": "C<sub>7</sub>H<sub>6</sub>F<sub>2</sub>",
        "Molecular Mass": "128.12",
        "Boiling Point": "112 °C",
        "Density": "1.1296 g/cm³ @ Temp: 20 °C"
    }
}