{
    "cas_no": "137-07-5",
    "key_name": "2-Aminothiophenol",
    "cn_name": "2-氨基苯硫醇;",
    "alternate_name": "Benzenethiol, 2-amino-;Benzenethiol, <em>o</em>-amino-;2-Aminobenzenethiol;<em>o</em>-Aminobenzenethiol;<em>o</em>-Aminothiophenol;2-Aminothiophenol;<em>o</em>-Mercaptoaniline;2-Mercaptoaniline;1-Amino-2-mercaptobenzene;<em>o</em>-Aminophenyl mercaptan;2-Aminophenyl mercaptan;2-Amino-1-mercaptobenzene;α-Aminothiophenol;2-Thioaniline;NSC 106635",
    "duplicated_cas_no": "",
    "SMILES": "NC1=C(S)C=CC=C1",
    "meta_data": {
        "InChI": "InChI=1S/C6H7NS/c7-5-3-1-2-4-6(5)8/h1-4,8H,7H2",
        "InChIKey": null,
        "Canonical SMILES": "SC=1C=CC=CC1N",
        "Molecular Formula": "C<sub>6</sub>H<sub>7</sub>NS",
        "Molecular Mass": "125.19",
        "Boiling Point": "234 °C",
        "Melting Point": "26 °C"
    }
}