{
    "cas_no": "135-12-6",
    "key_name": "4,4′-Dichloro-2-nitrodiphenyl ether",
    "cn_name": "4,4\"-二氯-2-硝基二苯醚;",
    "alternate_name": "Benzene, 4-chloro-1-(4-chlorophenoxy)-2-nitro-;Ether, 4-chloro-2-nitrophenyl <em>p</em>-chlorophenyl;4-Chloro-1-(4-chlorophenoxy)-2-nitrobenzene;4-Chloro-2-nitrophenyl <em>p</em>-chlorophenyl ether;4,4′-Dichloro-2-nitrodiphenyl ether;4-Chlorophenyl 4-chloro-2-nitrophenyl ether;NSC 12988",
    "duplicated_cas_no": "",
    "SMILES": "O(C1=C(N(=O)=O)C=C(Cl)C=C1)C2=CC=C(Cl)C=C2",
    "meta_data": {
        "InChI": "InChI=1S/C12H7Cl2NO3/c13-8-1-4-10(5-2-8)18-12-6-3-9(14)7-11(12)15(16)17/h1-7H",
        "InChIKey": null,
        "Canonical SMILES": "O=N(=O)C1=CC(Cl)=CC=C1OC2=CC=C(Cl)C=C2",
        "Molecular Formula": "C<sub>12</sub>H<sub>7</sub>Cl<sub>2</sub>NO<sub>3</sub>",
        "Molecular Mass": "284.09",
        "Boiling Point": "220-223 °C @ Press: 11 Torr",
        "Melting Point": "79 °C"
    }
}