{
    "cas_no": "91-60-1",
    "key_name": "2-Naphthalenethiol",
    "cn_name": "2-萘硫醇;2-萘硫酚;",
    "alternate_name": "2-Naphthalenethiol;RPA 2;2-Mercaptonaphthalene;β-Naphthyl mercaptan;2-Naphthyl mercaptan;β-Thionaphthol;β-Mercaptonaphthalene;β-Naphthalenethiol;2-Thionaphthol;Vulcamel TBN;Renacit 1;NSC 4749",
    "duplicated_cas_no": "",
    "SMILES": "SC1=CC2=C(C=C1)C=CC=C2",
    "meta_data": {
        "InChI": "InChI=1S/C10H8S/c11-10-6-5-8-3-1-2-4-9(8)7-10/h1-7,11H",
        "InChIKey": null,
        "Canonical SMILES": "SC=1C=CC=2C=CC=CC2C1",
        "Molecular Formula": "C<sub>10</sub>H<sub>8</sub>S",
        "Molecular Mass": "160.24",
        "Boiling Point": "288 °C",
        "Melting Point": "81 °C"
    }
}