{
    "cas_no": "199850-67-4",
    "key_name": "<em>N</em>-[(4′-Bromo[1,1′-biphenyl]-4-yl)sulfonyl]-<span class=\"text-smallcaps\">L</span>-valine",
    "cn_name": "N-[(4\"-溴[1,1\"-联苯]-4-基)磺酰基]-L-缬氨酸;",
    "alternate_name": "<span class=\"text-smallcaps\">L</span>-Valine, <em>N</em>-[(4′-bromo[1,1′-biphenyl]-4-yl)sulfonyl]-;<em>N</em>-[(4′-Bromo[1,1′-biphenyl]-4-yl)sulfonyl]-<span class=\"text-smallcaps\">L</span>-valine;PD 166793-0000;PD 166793;(2S)-2-[[4-(4-Bromophenyl)phenyl]sulfonylamino]-3-methylbutanoic acid;(<em>S</em>)-2-(4′-Bromobiphenyl-4-ylsulfonamido)-3-methylbutanoic acid",
    "duplicated_cas_no": "",
    "SMILES": "S(N[C@@H]([C@@H](C)C)C(O)=O)(=O)(=O)C1=CC=C(C=C1)C2=CC=C(Br)C=C2",
    "meta_data": {
        "InChI": "InChI=1S/C17H18BrNO4S/c1-11(2)16(17(20)21)19-24(22,23)15-9-5-13(6-10-15)12-3-7-14(18)8-4-12/h3-11,16,19H,1-2H3,(H,20,21)/t16-/m0/s1",
        "InChIKey": null,
        "Canonical SMILES": "O=C(O)C(NS(=O)(=O)C1=CC=C(C=C1)C=2C=CC(Br)=CC2)C(C)C",
        "Molecular Formula": "C<sub>17</sub>H<sub>18</sub>BrNO<sub>4</sub>S",
        "Molecular Mass": "412.30",
        "Melting Point": "192-193 °C"
    }
}