{
    "cas_no": "617-37-8",
    "key_name": "Monoethyl oxalate",
    "cn_name": null,
    "alternate_name": "Ethanedioic acid, 1-ethyl ester;Oxalic acid, monoethyl ester;Ethanedioic acid, monoethyl ester;Oxalic acid, ethyl ester;Ethyl hydrogen oxalate;Monoethyl oxalate;2-Ethoxy-2-oxoacetic acid",
    "duplicated_cas_no": "",
    "SMILES": "C(OCC)(C(O)=O)=O",
    "meta_data": {
        "InChI": "InChI=1S/C4H6O4/c1-2-8-4(7)3(5)6/h2H2,1H3,(H,5,6)",
        "InChIKey": null,
        "Canonical SMILES": "O=C(O)C(=O)OCC",
        "Molecular Formula": "C<sub>4</sub>H<sub>6</sub>O<sub>4</sub>",
        "Molecular Mass": "118.09",
        "Melting Point": "195 °C (decomp)"
    }
}