{
    "cas_no": "25037-45-0",
    "key_name": "Bisphenol A-carbonic acid copolymer",
    "cn_name": null,
    "alternate_name": "Carbonic acid, polymer with 4,4′-(1-methylethylidene)bis[phenol];Carbonic acid, polyester with 4,4′-isopropylidenediphenol;Phenol, 4,4′-isopropylidenedi-, polyester with carbonic acid;Phenol, 4,4′-(1-methylethylidene)bis-, polymer with carbonic acid;Bisphenol A polycarbonate;Poly(dian carbonate);4,4′-Dihydroxydiphenyl-2,2-propane carbonate polymer;Poly(bisphenol A carbonate);Carbonic acid-2,2′-bis(<em>p</em>-hydroxyphenyl)propane copolymer;Bisphenol A-carbonic acid copolymer;Bisphenol A carbonate polymer;Bisphenol A-carbonic acid polymer;Carbonic acid-isopropylidenediphenol polymer;Carbonic acid-4,4′-isopropylidenediphenol polymer;Poly[2,2-bis(4-hydroxyphenyl)propane carbonate];Carbonic acid-bisphenol A polymer;Carbonic acid-2,2-bis(4-hydroxyphenyl)propane polymer;2,2-Bis(4-hydroxyphenyl)propane-carbonic acid polymer;Carbonic acid-diphenylolpropane copolymer;2,2-Bis(4-hydroxyphenyl)propane-carbonic acid copolymer;Carbonic acid-bisphenol A copolymer;Carbonic acid-4,4′-dihydroxydiphenyl-2,2-propane copolymer;Bisphenol A polycarbonate, monomer-based;Makrofol DE, monomer-based;Carbonic acid-4,4′-(1-methylethylidene)bis[phenol] copolymer;Bisphenol A carbonate homopolymer;SC 1100;Carbonic acid-2,2-di(4-hydroxyphenyl)propane copolymer;Carbonic acid-2,2-bis-(4-hydroxyphenyl)propane copolymer",
    "duplicated_cas_no": "",
    "SMILES": "C(=O)(O)O.C(C)(C)(C1=CC=C(O)C=C1)C2=CC=C(O)C=C2",
    "meta_data": {
        "InChI": "InChI=1S/C15H16O2.CH2O3/c1-15(2,11-3-7-13(16)8-4-11)12-5-9-14(17)10-6-12;2-1(3)4/h3-10,16-17H,1-2H3;(H2,2,3,4)",
        "InChIKey": null,
        "Canonical SMILES": "O=C(O)O.OC1=CC=C(C=C1)C(C2=CC=C(O)C=C2)(C)C",
        "Molecular Formula": "(C<sub>15</sub>H<sub>16</sub>O<sub>2</sub>.CH<sub>2</sub>O<sub>3</sub>)<sub>x</sub>",
        "Molecular Mass": "",
        "Melting Point": "197.7 °C",
        "Density": "1.20 g/cm³"
    }
}