{
    "cas_no": "824-11-3",
    "key_name": "4-Ethyl-2,6,7-trioxa-1-phosphabicyclo[2.2.2]octane",
    "cn_name": "三羟甲基丙烷亚磷酸酯;",
    "alternate_name": "2,6,7-Trioxa-1-phosphabicyclo[2.2.2]octane, 4-ethyl-;1,3-Propanediol, 2-ethyl-2-(hydroxymethyl)-, cyclic phosphite (1:1);1,3-Propanediol, 2-ethyl-2-(hydroxymethyl)-, cyclic phosphite;4-Ethyl-2,6,7-trioxa-1-phosphabicyclo[2.2.2]octane;Trimethylolpropane cyclic phosphite (1:1);Trimethylolpropane phosphite;2-Ethyl-2-hydroxymethyl-1,3-propanediol cyclic phosphite;1-Ethyl-3,5,8-trioxa-4-phospha[2.2.2]bicyclooctane;ETPB;Ethriol phosphite;4-Ethyl-1-phospha-2,6,7-trioxabicyclo[2.2.2]octane;NSC 127561",
    "duplicated_cas_no": "29267-12-7",
    "SMILES": "C(C)C12COP(OC1)OC2",
    "meta_data": {
        "InChI": "InChI=1S/C6H11O3P/c1-2-6-3-7-10(8-4-6)9-5-6/h2-5H2,1H3",
        "InChIKey": null,
        "Canonical SMILES": "O1P2OCC(C1)(CO2)CC",
        "Molecular Formula": "C<sub>6</sub>H<sub>11</sub>O<sub>3</sub>P",
        "Molecular Mass": "162.12",
        "Boiling Point": "93-110 °C @ Press: 3.5-9 Torr",
        "Melting Point": "53.7 °C"
    }
}