{
    "cas_no": "854646-94-9",
    "key_name": "5-Bromo-2-methylbenzeneacetic acid",
    "cn_name": null,
    "alternate_name": "Benzeneacetic acid, 5-bromo-2-methyl-;α-Toluic acid, 5-bromo-2-methyl-;5-Bromo-2-methylbenzeneacetic acid;2-(5-Bromo-2-methylphenyl)acetic acid",
    "duplicated_cas_no": "",
    "SMILES": "C(C(O)=O)C1=C(C)C=CC(Br)=C1",
    "meta_data": {
        "InChI": "InChI=1S/C9H9BrO2/c1-6-2-3-8(10)4-7(6)5-9(11)12/h2-4H,5H2,1H3,(H,11,12)",
        "InChIKey": null,
        "Canonical SMILES": "O=C(O)CC1=CC(Br)=CC=C1C",
        "Molecular Formula": "C<sub>9</sub>H<sub>9</sub>BrO<sub>2</sub>",
        "Molecular Mass": "229.07",
        "Melting Point": "93.5-94.5 °C"
    }
}