{
    "cas_no": "6574-98-7",
    "key_name": "2,4-Dichlorobenzonitrile",
    "cn_name": "2,4-二氯苯腈;",
    "alternate_name": "Benzonitrile, 2,4-dichloro-;2,4-Dichlorobenzonitrile",
    "duplicated_cas_no": "",
    "SMILES": "C(#N)C1=C(Cl)C=C(Cl)C=C1",
    "meta_data": {
        "InChI": "InChI=1S/C7H3Cl2N/c8-6-2-1-5(4-10)7(9)3-6/h1-3H",
        "InChIKey": null,
        "Canonical SMILES": "N#CC1=CC=C(Cl)C=C1Cl",
        "Molecular Formula": "C<sub>7</sub>H<sub>3</sub>Cl<sub>2</sub>N",
        "Molecular Mass": "172.01",
        "Melting Point": "61 °C"
    }
}