{
    "cas_no": "1472-93-1",
    "key_name": "Dimethyl octadecanedioate",
    "cn_name": "十八烷二酸二甲酯;",
    "alternate_name": "Octadecanedioic acid, 1,18-dimethyl ester;Octadecanedioic acid, dimethyl ester;Dimethyl octadecanedioate;Dimethyl 1,18-octadecanedioate",
    "duplicated_cas_no": "",
    "SMILES": "C(CCCCCCCCCCCCCCCCC(OC)=O)(OC)=O",
    "meta_data": {
        "InChI": "InChI=1S/C20H38O4/c1-23-19(21)17-15-13-11-9-7-5-3-4-6-8-10-12-14-16-18-20(22)24-2/h3-18H2,1-2H3",
        "InChIKey": null,
        "Canonical SMILES": "O=C(OC)CCCCCCCCCCCCCCCCC(=O)OC",
        "Molecular Formula": "C<sub>20</sub>H<sub>38</sub>O<sub>4</sub>",
        "Molecular Mass": "342.51",
        "Boiling Point": "170 °C @ Press: 0.1 Torr",
        "Melting Point": "59.5-60.5 °C"
    }
}