{
    "cas_no": "103-52-6",
    "key_name": "2-Phenylethyl butanoate",
    "cn_name": "丁酸苯乙酯;丁酸2-苯乙酯;丁酸苄基甲酯;",
    "alternate_name": "Butanoic acid, 2-phenylethyl ester;Butyric acid, phenethyl ester;Phenethyl alcohol, butyrate;Benzylcarbinyl butyrate;Phenethyl butyrate;2-Phenylethyl butyrate;2-Phenylethyl butanoate;2-Phenethyl butanoate;Phenethyl butanoate;2-Phenylethyl <em>n</em>-butyrate;NSC 406207",
    "duplicated_cas_no": "",
    "SMILES": "C(COC(CCC)=O)C1=CC=CC=C1",
    "meta_data": {
        "InChI": "InChI=1S/C12H16O2/c1-2-6-12(13)14-10-9-11-7-4-3-5-8-11/h3-5,7-8H,2,6,9-10H2,1H3",
        "InChIKey": null,
        "Canonical SMILES": "O=C(OCCC=1C=CC=CC1)CCC",
        "Molecular Formula": "C<sub>12</sub>H<sub>16</sub>O<sub>2</sub>",
        "Molecular Mass": "192.25",
        "Boiling Point": "238 °C",
        "Density": "0.9905 g/cm³ @ Temp: 20 °C"
    }
}