{
    "cas_no": "363-52-0",
    "key_name": "3-Fluoro-1,2-benzenediol",
    "cn_name": "3-氟邻苯二酚;",
    "alternate_name": "1,2-Benzenediol, 3-fluoro-;Pyrocatechol, 3-fluoro-;3-Fluoro-1,2-benzenediol;3-Fluorocatechol;3-Fluoro-2-hydroxyphenol;1,2-Dihydroxy-3-fluorobenzene",
    "duplicated_cas_no": "",
    "SMILES": "OC1=C(F)C=CC=C1O",
    "meta_data": {
        "InChI": "InChI=1S/C6H5FO2/c7-4-2-1-3-5(8)6(4)9/h1-3,8-9H",
        "InChIKey": null,
        "Canonical SMILES": "FC1=CC=CC(O)=C1O",
        "Molecular Formula": "C<sub>6</sub>H<sub>5</sub>FO<sub>2</sub>",
        "Molecular Mass": "128.10",
        "Melting Point": "71-71.5 °C"
    }
}