{
    "cas_no": "66104-23-2",
    "key_name": "Pergolide mesylate",
    "cn_name": "甲磺酸培高利特;",
    "alternate_name": "Ergoline, 8-[(methylthio)methyl]-6-propyl-, (8β)-, monomethanesulfonate;Indolo[4,3-<em>fg</em>]quinoline, ergoline deriv.;Pergolide mesylate;LY 127809;Pergolide methanesulfonate;Permax;Celance;NSC 319773",
    "duplicated_cas_no": "138932-34-0",
    "SMILES": "C(CC)N1[C@]2([C@@](C=3C=4C(C2)=CNC4C=CC3)(C[C@@H](CSC)C1)[H])[H].S(C)(=O)(=O)O",
    "meta_data": {
        "InChI": "InChI=1S/C19H26N2S.CH4O3S/c1-3-7-21-11-13(12-22-2)8-16-15-5-4-6-17-19(15)14(10-20-17)9-18(16)21;1-5(2,3)4/h4-6,10,13,16,18,20H,3,7-9,11-12H2,1-2H3;1H3,(H,2,3,4)/t13-,16-,18-;/m1./s1",
        "InChIKey": null,
        "Canonical SMILES": "O=S(=O)(O)C.S(C)CC1CN(CCC)C2CC3=CNC4=CC=CC(=C43)C2C1",
        "Molecular Formula": "C<sub>19</sub>H<sub>26</sub>N<sub>2</sub>S.CH<sub>4</sub>O<sub>3</sub>S",
        "Molecular Mass": "",
        "Melting Point": "225 °C"
    }
}