{
    "cas_no": "10259-22-0",
    "key_name": "Benzoic acid, 3-methoxy-, ethyl ester",
    "cn_name": "3-甲氧基苯甲酸乙酯;",
    "alternate_name": "Benzoic acid, 3-methoxy-, ethyl ester;<em>m</em>-Anisic acid, ethyl ester;Benzoic acid, <em>m</em>-methoxy-, ethyl ester;Ethyl <em>m</em>-methoxybenzoate;Ethyl 3-methoxybenzoate;3-Methoxybenzoic acid ethyl ester;Ethyl <em>m</em>-anisate",
    "duplicated_cas_no": "",
    "SMILES": "C(OCC)(=O)C1=CC(OC)=CC=C1",
    "meta_data": {
        "InChI": "InChI=1S/C10H12O3/c1-3-13-10(11)8-5-4-6-9(7-8)12-2/h4-7H,3H2,1-2H3",
        "InChIKey": null,
        "Canonical SMILES": "O=C(OCC)C=1C=CC=C(OC)C1",
        "Molecular Formula": "C<sub>10</sub>H<sub>12</sub>O<sub>3</sub>",
        "Molecular Mass": "180.20",
        "Boiling Point": "260.5 °C",
        "Density": "1.0993 g/cm³ @ Temp: 20 °C"
    }
}