{
    "cas_no": "14984-21-5",
    "key_name": "4,4′-Diphenoxybenzophenone",
    "cn_name": "4,4\"-二苯氧基二苯甲酮;",
    "alternate_name": "Methanone, bis(4-phenoxyphenyl)-;Benzophenone, 4,4′-diphenoxy-;Bis(4-phenoxyphenyl)methanone;4,4′-Diphenoxybenzophenone;DPB",
    "duplicated_cas_no": "1817604-21-9",
    "SMILES": "C(=O)(C1=CC=C(OC2=CC=CC=C2)C=C1)C3=CC=C(OC4=CC=CC=C4)C=C3",
    "meta_data": {
        "InChI": "InChI=1S/C25H18O3/c26-25(19-11-15-23(16-12-19)27-21-7-3-1-4-8-21)20-13-17-24(18-14-20)28-22-9-5-2-6-10-22/h1-18H",
        "InChIKey": null,
        "Canonical SMILES": "O=C(C1=CC=C(OC=2C=CC=CC2)C=C1)C3=CC=C(OC=4C=CC=CC4)C=C3",
        "Molecular Formula": "C<sub>25</sub>H<sub>18</sub>O<sub>3</sub>",
        "Molecular Mass": "366.41",
        "Melting Point": "147 °C"
    }
}