{
    "cas_no": "15227-42-6",
    "key_name": "<em>cis</em>-Dichlorobis(pyridine)platinum",
    "cn_name": "顺-二氯二(吡啶)铂(II);",
    "alternate_name": "Platinum, dichlorobis(pyridine)-, (<em>SP</em>-4-2)-;Platinum, dichlorobis(pyridine)-, <em>cis</em>-;(<em>SP</em>-4-2)-Dichlorobis(pyridine)platinum;<em>cis</em>-Dichloro(dipyridine)platinum(II);<em>cis</em>-Dichlorobis(pyridine)platinum;<em>cis</em>-Dichlorobis(pyridine)platinum(II);<em>cis</em>-Dichlorodipyridineplatinum;NSC 129540",
    "duplicated_cas_no": "",
    "SMILES": "[Pt+2]([Cl-])([Cl-])([N]=1C=CC=CC1)[N]=2C=CC=CC2",
    "meta_data": {
        "InChI": "InChI=1S/2C5H5N.2ClH.Pt/c2*1-2-4-6-5-3-1;;;/h2*1-5H;2*1H;/q;;;;+2/p-2",
        "InChIKey": null,
        "Canonical SMILES": "[Cl-][Pt+2]([Cl-])([N]=1C=CC=CC1)[N]=2C=CC=CC2",
        "Molecular Formula": "C<sub>10</sub>H<sub>10</sub>Cl<sub>2</sub>N<sub>2</sub>Pt",
        "Molecular Mass": "",
        "Melting Point": "227-229 °C"
    }
}