{
    "cas_no": "3301-79-9",
    "key_name": "6-Carboxyfluorescein",
    "cn_name": "6-羧基荧光素;",
    "alternate_name": "Spiro[isobenzofuran-1(3<em>H</em>),9′-[9<em>H</em>]xanthene]-6-carboxylic acid, 3′,6′-dihydroxy-3-oxo-;Spiro[phthalan-1,9′-xanthene]-6-carboxylic acid, 3′,6′-dihydroxy-3-oxo-;Terephthalic acid, (3,6,9-trihydroxyxanthen-9-yl)-, γ-lactone;3′,6′-Dihydroxy-3-oxospiro[isobenzofuran-1(3<em>H</em>),9′-[9<em>H</em>]xanthene]-6-carboxylic acid;Fluorescein, 6-carboxy-;6-Carboxyfluorescein;6-FAM;3′,6′-Dihydroxy-1-oxospiro[2-benzofuran-3,9′-xanthene]-5-carboxylic acid",
    "duplicated_cas_no": "",
    "SMILES": "O=C1OC2(C=3C1=CC=C(C(O)=O)C3)C=4C(OC=5C2=CC=C(O)C5)=CC(O)=CC4",
    "meta_data": {
        "InChI": "InChI=1S/C21H12O7/c22-11-2-5-14-17(8-11)27-18-9-12(23)3-6-15(18)21(14)16-7-10(19(24)25)1-4-13(16)20(26)28-21/h1-9,22-23H,(H,24,25)",
        "InChIKey": null,
        "Canonical SMILES": "O=C(O)C1=CC=C2C(=O)OC3(C4=CC=C(O)C=C4OC5=CC(O)=CC=C53)C2=C1",
        "Molecular Formula": "C<sub>21</sub>H<sub>12</sub>O<sub>7</sub>",
        "Molecular Mass": "376.32",
        "Melting Point": "&gt;360 °C"
    }
}