{
    "cas_no": "64419-24-5",
    "key_name": "2,4-Dihydroxybenzonitrile",
    "cn_name": null,
    "alternate_name": "Benzonitrile, 2,4-dihydroxy-;2,4-Dihydroxybenzonitrile",
    "duplicated_cas_no": "",
    "SMILES": "C(#N)C1=C(O)C=C(O)C=C1",
    "meta_data": {
        "InChI": "InChI=1S/C7H5NO2/c8-4-5-1-2-6(9)3-7(5)10/h1-3,9-10H",
        "InChIKey": null,
        "Canonical SMILES": "N#CC1=CC=C(O)C=C1O",
        "Molecular Formula": "C<sub>7</sub>H<sub>5</sub>NO<sub>2</sub>",
        "Molecular Mass": "135.12",
        "Melting Point": "179 °C"
    }
}