{
    "cas_no": "7637-07-2",
    "key_name": "Boron trifluoride",
    "cn_name": null,
    "alternate_name": "Borane, trifluoro-;Boron fluoride (BF<sub>3</sub>);Trifluoroborane;Boron fluoride;Boron trifluoride;Trifluoroboron;ANCA 1040",
    "duplicated_cas_no": "109704-87-2;372-85-0;155123-44-7",
    "SMILES": "B(F)(F)F",
    "meta_data": {
        "InChI": "InChI=1S/BF3/c2-1(3)4",
        "InChIKey": null,
        "Canonical SMILES": "FB(F)F",
        "Molecular Formula": "BF<sub>3</sub>",
        "Molecular Mass": "67.81",
        "Boiling Point": "-99.9 °C",
        "Melting Point": "-126.8 °C"
    }
}