{
    "cas_no": "98319-26-7",
    "key_name": "Finasteride",
    "cn_name": null,
    "alternate_name": "1<em>H</em>-Indeno[5,4-<em>f</em>]quinoline-7-carboxamide, <em>N</em>-(1,1-dimethylethyl)-2,4a,4b,5,6,6a,7,8,9,9a,9b,10,11,11a-tetradecahydro-4a,6a-dimethyl-2-oxo-, (4a<em>R</em>,4b<em>S</em>,6a<em>S</em>,7<em>S</em>,9a<em>S</em>,9b<em>S</em>,11a<em>R</em>)-;4-Azaandrost-1-ene-17-carboxamide, <em>N</em>-(1,1-dimethylethyl)-3-oxo-, (5α,17β)-;(4a<em>R</em>,4b<em>S</em>,6a<em>S</em>,7<em>S</em>,9a<em>S</em>,9b<em>S</em>,11a<em>R</em>)-<em>N</em>-(1,1-Dimethylethyl)-2,4a,4b,5,6,6a,7,8,9,9a,9b,10,11,11a-tetradecahydro-4a,6a-dimethyl-2-oxo-1<em>H</em>-indeno[5,4-<em>f</em>]quinoline-7-carboxamide;MK 906;Finasteride;Proscar;Prostide;Propecia;Finpecia;Finastid;Chibro-Proscar;Fincar;Fistide;Finax;Finast;Finara;Prosteride;<em>N</em>-(<em>tert</em>-Butyl)-3-oxo-4-aza-5α-androst-1-ene-17-carboxamide;Finalo;Geffina;Appecia;Finasterid Alternova;<em>N</em>-<em>tert</em>-Butyl-3-oxo-4-aza-5α-androst-1-ene-17β-carboxamide;MeSH ID: D018120",
    "duplicated_cas_no": "",
    "SMILES": "C[C@@]12[C@]([C@]3([C@@]([C@]4(C)[C@@](CC3)(NC(=O)C=C4)[H])(CC1)[H])[H])(CC[C@@H]2C(NC(C)(C)C)=O)[H]",
    "meta_data": {
        "InChI": "InChI=1S/C23H36N2O2/c1-21(2,3)25-20(27)17-8-7-15-14-6-9-18-23(5,13-11-19(26)24-18)16(14)10-12-22(15,17)4/h11,13-18H,6-10,12H2,1-5H3,(H,24,26)(H,25,27)/t14-,15-,16-,17+,18+,22-,23+/m0/s1",
        "InChIKey": null,
        "Canonical SMILES": "O=C1C=CC2(C)C(N1)CCC3C2CCC4(C)C(C(=O)NC(C)(C)C)CCC34",
        "Molecular Formula": "C<sub>23</sub>H<sub>36</sub>N<sub>2</sub>O<sub>2</sub>",
        "Molecular Mass": "372.54",
        "Melting Point": "252-254 °C"
    }
}