{
    "cas_no": "103365-69-1",
    "key_name": "(4<em>S</em>)-Hexahydro-1-methyl-2,6-dioxo-4-pyrimidinecarboxylic acid",
    "cn_name": "1-甲基-L-4,5-二氢乳清酸;(4S)-1-甲基-2,6-二氧代六氢-4-嘧啶甲酸;",
    "alternate_name": "4-Pyrimidinecarboxylic acid, hexahydro-1-methyl-2,6-dioxo-, (4<em>S</em>)-;4-Pyrimidinecarboxylic acid, hexahydro-1-methyl-2,6-dioxo-, (<em>S</em>)-;(4<em>S</em>)-Hexahydro-1-methyl-2,6-dioxo-4-pyrimidinecarboxylic acid;1-Methyl-<span class=\"text-smallcaps\">L</span>-4,5-dihydroorotic acid;(4S)-1-Methyl-2,6-dioxo-1,3-diazinane-4-carboxylic acid;(4S)-Hexahydro-1-methyl-2,6-dioxo-4-pyrimidinecarboxylic acid;(<em>S</em>)-1-Methyl-2,6-dioxohexahydropyrimidine-4-carboxylic acid",
    "duplicated_cas_no": "",
    "SMILES": "C(O)(=O)[C@@H]1CC(=O)N(C)C(=O)N1",
    "meta_data": {
        "InChI": "InChI=1S/C6H8N2O4/c1-8-4(9)2-3(5(10)11)7-6(8)12/h3H,2H2,1H3,(H,7,12)(H,10,11)/t3-/m0/s1",
        "InChIKey": null,
        "Canonical SMILES": "O=C1NC(C(=O)O)CC(=O)N1C",
        "Molecular Formula": "C<sub>6</sub>H<sub>8</sub>N<sub>2</sub>O<sub>4</sub>",
        "Molecular Mass": "172.14",
        "Melting Point": "214-216 °C"
    }
}