{
    "cas_no": "153-98-0",
    "key_name": "Serotonin hydrochloride",
    "cn_name": "5-羟基色胺盐酸盐;",
    "alternate_name": "1<em>H</em>-Indol-5-ol, 3-(2-aminoethyl)-, hydrochloride (1:1);Indol-5-ol, 3-(2-aminoethyl)-, monohydrochloride;1<em>H</em>-Indol-5-ol, 3-(2-aminoethyl)-, monohydrochloride;Hippophaine hydrochloride;Serotonin hydrochloride;5-Hydroxytryptamine hydrochloride;5-HT•HCl",
    "duplicated_cas_no": "",
    "SMILES": "C(CN)C=1C=2C(NC1)=CC=C(O)C2.Cl",
    "meta_data": {
        "InChI": "InChI=1S/C10H12N2O.ClH/c11-4-3-7-6-12-10-2-1-8(13)5-9(7)10;/h1-2,5-6,12-13H,3-4,11H2;1H",
        "InChIKey": null,
        "Canonical SMILES": "Cl.OC=1C=CC=2NC=C(C2C1)CCN",
        "Molecular Formula": "C<sub>10</sub>H<sub>12</sub>N<sub>2</sub>O.ClH",
        "Molecular Mass": "",
        "Melting Point": "167-168 °C"
    }
}