{
    "cas_no": "252916-29-3",
    "key_name": "Orantinib",
    "cn_name": null,
    "alternate_name": "1<em>H</em>-Pyrrole-3-propanoic acid, 5-[(1,2-dihydro-2-oxo-3<em>H</em>-indol-3-ylidene)methyl]-2,4-dimethyl-;5-[(1,2-Dihydro-2-oxo-3<em>H</em>-indol-3-ylidene)methyl]-2,4-dimethyl-1<em>H</em>-pyrrole-3-propanoic acid;SU 6668;3-[2,4-Dimethyl-5-[(2-oxo-1,2-dihydro-3<em>H</em>-indol-3-ylidene)methyl]-1<em>H</em>-pyrrol-3-yl]propionic acid;TSU 68;3-[4-(2-Carboxyethyl)-3,5-dimethylpyrrol-2-methylidenyl]-2-indolinone;NSC 702827;3-[2,4-Dimethyl-5-(2-oxo-1,2-dihydroindol-3-ylidenemethyl)-1<em>H</em>-pyrrol-3-yl]propionic acid;Orantinib",
    "duplicated_cas_no": "245036-27-5",
    "SMILES": "C(=C1C=2C(NC1=O)=CC=CC2)C3=C(C)C(CCC(O)=O)=C(C)N3",
    "meta_data": {
        "InChI": "InChI=1S/C18H18N2O3/c1-10-12(7-8-17(21)22)11(2)19-16(10)9-14-13-5-3-4-6-15(13)20-18(14)23/h3-6,9,19H,7-8H2,1-2H3,(H,20,23)(H,21,22)",
        "InChIKey": null,
        "Canonical SMILES": "O=C(O)CCC1=C(NC(C=C2C(=O)NC=3C=CC=CC32)=C1C)C",
        "Molecular Formula": "C<sub>18</sub>H<sub>18</sub>N<sub>2</sub>O<sub>3</sub>",
        "Molecular Mass": "310.35",
        "Melting Point": "252-254 °C"
    }
}