{
    "cas_no": "103-55-9",
    "key_name": "<em>N</em><sup>1</sup>,<em>N</em><sup>1</sup>-Dimethyl-<em>N</em><sup>2</sup>-(phenylmethyl)-1,2-ethanediamine",
    "cn_name": "N\"-苯甲基-N,N-二甲基乙二胺;N\"-苄基-N,N-二甲基乙二胺;",
    "alternate_name": "1,2-Ethanediamine, <em>N</em><sup>1</sup>,<em>N</em><sup>1</sup>-dimethyl-<em>N</em><sup>2</sup>-(phenylmethyl)-;Ethylenediamine, <em>N</em>′-benzyl-<em>N</em>,<em>N</em>-dimethyl-;1,2-Ethanediamine, <em>N</em>,<em>N</em>-dimethyl-<em>N</em>′-(phenylmethyl)-;<em>N</em><sup>1</sup>,<em>N</em><sup>1</sup>-Dimethyl-<em>N</em><sup>2</sup>-(phenylmethyl)-1,2-ethanediamine;<em>N</em>′-Benzyl-<em>N</em>,<em>N</em>-dimethylethylenediamine;<em>N</em>,<em>N</em>-Dimethyl-<em>N</em>′-benzylethylenediamine;Benzyl[2-(dimethylamino)ethyl]amine;<em>N</em>-Benzyl-<em>N</em>′,<em>N</em>′-dimethylethylenediamine;NSC 111162;NSC 118969;2-Benzylaminoethyldimethylamine;<em>N</em>-Benzyl-<em>N</em>-(2-dimethylaminoethyl)amine;<em>N</em>′-Benzyl-<em>N</em>,<em>N</em>-dimethylethane-1,2-diamine;<em>N</em>,<em>N</em>-Dimethyl-<em>N</em>′-benzyl-1,2-diaminoethane;<em>N</em>,<em>N</em>-Dimethyl-<em>N</em>′-phenylmethyl-1,2-ethanediamine;<em>N</em>-Benzyl-<em>N</em>′,<em>N</em>′-dimethylethane-1,2-diamine",
    "duplicated_cas_no": "",
    "SMILES": "C(NCCN(C)C)C1=CC=CC=C1",
    "meta_data": {
        "InChI": "InChI=1S/C11H18N2/c1-13(2)9-8-12-10-11-6-4-3-5-7-11/h3-7,12H,8-10H2,1-2H3",
        "InChIKey": null,
        "Canonical SMILES": "C=1C=CC(=CC1)CNCCN(C)C",
        "Molecular Formula": "C<sub>11</sub>H<sub>18</sub>N<sub>2</sub>",
        "Molecular Mass": "178.27",
        "Boiling Point": "128-132 °C @ Press: 18 Torr"
    }
}