{
    "cas_no": "16738-19-5",
    "key_name": "<em>N</em>-(2,5-Dimethylphenyl)thiourea",
    "cn_name": null,
    "alternate_name": "Thiourea, <em>N</em>-(2,5-dimethylphenyl)-;Urea, 2-thio-1-(2,5-xylyl)-;Thiourea, (2,5-dimethylphenyl)-;<em>N</em>-(2,5-Dimethylphenyl)thiourea;1-(2,5-Dimethylphenyl)thiourea;(2,5-Dimethylphenyl)thiourea",
    "duplicated_cas_no": "",
    "SMILES": "N(C(N)=S)C1=C(C)C=CC(C)=C1",
    "meta_data": {
        "InChI": "InChI=1S/C9H12N2S/c1-6-3-4-7(2)8(5-6)11-9(10)12/h3-5H,1-2H3,(H3,10,11,12)",
        "InChIKey": null,
        "Canonical SMILES": "S=C(N)NC1=CC(=CC=C1C)C",
        "Molecular Formula": "C<sub>9</sub>H<sub>12</sub>N<sub>2</sub>S",
        "Molecular Mass": "180.27",
        "Melting Point": "135 °C"
    }
}