{
    "cas_no": "52217-60-4",
    "key_name": "1,8-Bis(triethoxysilyl)octane",
    "cn_name": "1,8-二(三乙氧基硅烷基)辛烷;",
    "alternate_name": "3,14-Dioxa-4,13-disilahexadecane, 4,4,13,13-tetraethoxy-;4,4,13,13-Tetraethoxy-3,14-dioxa-4,13-disilahexadecane;1,8-Bis(triethoxysilyl)octane;SIB 1824;SIB 1824,0;BTESO",
    "duplicated_cas_no": "",
    "SMILES": "[Si](CCCCCCCC[Si](OCC)(OCC)OCC)(OCC)(OCC)OCC",
    "meta_data": {
        "InChI": "InChI=1S/C20H46O6Si2/c1-7-21-27(22-8-2,23-9-3)19-17-15-13-14-16-18-20-28(24-10-4,25-11-5)26-12-6/h7-20H2,1-6H3",
        "InChIKey": null,
        "Canonical SMILES": "O(CC)[Si](OCC)(OCC)CCCCCCCC[Si](OCC)(OCC)OCC",
        "Molecular Formula": "C<sub>20</sub>H<sub>46</sub>O<sub>6</sub>Si<sub>2</sub>",
        "Molecular Mass": "438.75",
        "Boiling Point": "172-175 °C @ Press: 0.75 Torr",
        "Density": "0.926 g/cm³"
    }
}