{
    "cas_no": "1282512-48-4",
    "key_name": "1<em>H</em>-Pyrazole-1-acetamide, 4-[5,6-dihydro-2-[3-methyl-1-(1-methylethyl)-1<em>H</em>-1,2,4-triazol-5-yl]imidazo[1,2-<em>d</em>][1,4]benzoxazepin-9-yl]-α,α-dimethyl-",
    "cn_name": null,
    "alternate_name": "1<em>H</em>-Pyrazole-1-acetamide, 4-[5,6-dihydro-2-[3-methyl-1-(1-methylethyl)-1<em>H</em>-1,2,4-triazol-5-yl]imidazo[1,2-<em>d</em>][1,4]benzoxazepin-9-yl]-α,α-dimethyl-;4-[5,6-Dihydro-2-[3-methyl-1-(1-methylethyl)-1<em>H</em>-1,2,4-triazol-5-yl]imidazo[1,2-<em>d</em>][1,4]benzoxazepin-9-yl]-α,α-dimethyl-1<em>H</em>-pyrazole-1-acetamide;GDC 0032;RG 7604;Taselisib;2-Methyl-2-[4-[2-(5-methyl-2-propan-2-yl-1,2,4-triazol-3-yl)-5,6-dihydroimidazo[1,2-<em>d</em>][1,4]benzoxazepin-9-yl]pyrazol-1-yl]propanamide",
    "duplicated_cas_no": "1395408-87-3",
    "SMILES": "C(C)(C)N1C(C=2N=C3C=4C(=CC(=CC4)C5=CN(C(C(N)=O)(C)C)N=C5)OCCN3C2)=NC(C)=N1",
    "meta_data": {
        "InChI": "InChI=1S/C24H28N8O2/c1-14(2)32-22(27-15(3)29-32)19-13-30-8-9-34-20-10-16(6-7-18(20)21(30)28-19)17-11-26-31(12-17)24(4,5)23(25)33/h6-7,10-14H,8-9H2,1-5H3,(H2,25,33)",
        "InChIKey": null,
        "Canonical SMILES": "O=C(N)C(N1N=CC(=C1)C2=CC=C3C(OCCN4C=C(N=C34)C5=NC(=NN5C(C)C)C)=C2)(C)C",
        "Molecular Formula": "C<sub>24</sub>H<sub>28</sub>N<sub>8</sub>O<sub>2</sub>",
        "Molecular Mass": "460.53",
        "Melting Point": "259 °C"
    }
}