{
    "cas_no": "49623-71-4",
    "key_name": "2,4,6-Tris(1-methylethyl)benzoic acid",
    "cn_name": "2,4,6-三异丙基苯甲酸;",
    "alternate_name": "Benzoic acid, 2,4,6-tris(1-methylethyl)-;Benzoic acid, 2,4,6-triisopropyl-;2,4,6-Tris(1-methylethyl)benzoic acid;2,4,6-Triisopropylbenzoic acid;2,4,6-Triisopropylphenylcarboxylic acid;NSC 60075",
    "duplicated_cas_no": "",
    "SMILES": "C(O)(=O)C1=C(C(C)C)C=C(C(C)C)C=C1C(C)C",
    "meta_data": {
        "InChI": "InChI=1S/C16H24O2/c1-9(2)12-7-13(10(3)4)15(16(17)18)14(8-12)11(5)6/h7-11H,1-6H3,(H,17,18)",
        "InChIKey": null,
        "Canonical SMILES": "O=C(O)C=1C(=CC(=CC1C(C)C)C(C)C)C(C)C",
        "Molecular Formula": "C<sub>16</sub>H<sub>24</sub>O<sub>2</sub>",
        "Molecular Mass": "248.36",
        "Melting Point": "186-187 °C"
    }
}