{
    "cas_no": "85-94-9",
    "key_name": "2′-Cytidylic acid",
    "cn_name": "胞苷2?-一磷酸;胞苷2?-一磷酸;",
    "alternate_name": "2′-Cytidylic acid;2′-CMP;Cytidine 2′-phosphate;Cytidine 2′-monophosphate",
    "duplicated_cas_no": "8070-16-4;27214-06-8",
    "SMILES": "O(P(=O)(O)O)[C@H]1[C@@H](O[C@H](CO)[C@H]1O)N2C(=O)N=C(N)C=C2",
    "meta_data": {
        "InChI": "InChI=1S/C9H14N3O8P/c10-5-1-2-12(9(15)11-5)8-7(20-21(16,17)18)6(14)4(3-13)19-8/h1-2,4,6-8,13-14H,3H2,(H2,10,11,15)(H2,16,17,18)/t4-,6-,7-,8-/m1/s1",
        "InChIKey": null,
        "Canonical SMILES": "O=C1N=C(N)C=CN1C2OC(CO)C(O)C2OP(=O)(O)O",
        "Molecular Formula": "C<sub>9</sub>H<sub>14</sub>N<sub>3</sub>O<sub>8</sub>P",
        "Molecular Mass": "323.20",
        "Melting Point": "240-242 °C (decomp)"
    }
}