{
    "cas_no": "6014-42-2",
    "key_name": "α-<span class=\"text-smallcaps\">L</span>-Rhamnose",
    "cn_name": null,
    "alternate_name": "α-<span class=\"text-smallcaps\">L</span>-Mannopyranose, 6-deoxy-;Rhamnopyranose, α-<span class=\"text-smallcaps\">L</span>-;6-Deoxy-α-<span class=\"text-smallcaps\">L</span>-mannopyranose;α-<span class=\"text-smallcaps\">L</span>-Rhamnose;α-<span class=\"text-smallcaps\">L</span>-Rhamnopyranose",
    "duplicated_cas_no": "31512-03-5;50857-83-5;82443-61-6;84107-91-5;118456-56-7;1621228-20-3",
    "SMILES": "O[C@@H]1[C@@H](O)[C@@H](O)[C@H](O)O[C@H]1C",
    "meta_data": {
        "InChI": "InChI=1S/C6H12O5/c1-2-3(7)4(8)5(9)6(10)11-2/h2-10H,1H3/t2-,3-,4+,5+,6+/m0/s1",
        "InChIKey": null,
        "Canonical SMILES": "OC1OC(C)C(O)C(O)C1O",
        "Molecular Formula": "C<sub>6</sub>H<sub>12</sub>O<sub>5</sub>",
        "Molecular Mass": "164.16",
        "Melting Point": "238-240 °C"
    }
}