{
    "cas_no": "2298-07-9",
    "key_name": "1-Amino-4-bromonaphthalene",
    "cn_name": "4-溴-1-萘胺;",
    "alternate_name": "1-Naphthalenamine, 4-bromo-;1-Naphthylamine, 4-bromo-;4-Bromo-1-naphthalenamine;4-Bromo-1-naphthylamine;1-Amino-4-bromonaphthalene;NSC 120524;NSC 16028;4-Bromo-1-naphthalenemine;1-Bromo-4-aminonaphthalene;(4-Bromonaphthalen-1-yl)amine",
    "duplicated_cas_no": "",
    "SMILES": "BrC=1C2=C(C(N)=CC1)C=CC=C2",
    "meta_data": {
        "InChI": "InChI=1S/C10H8BrN/c11-9-5-6-10(12)8-4-2-1-3-7(8)9/h1-6H,12H2",
        "InChIKey": null,
        "Canonical SMILES": "BrC1=CC=C(N)C=2C=CC=CC12",
        "Molecular Formula": "C<sub>10</sub>H<sub>8</sub>BrN",
        "Molecular Mass": "222.08",
        "Melting Point": "100-103 °C"
    }
}