{
    "cas_no": "1765-93-1",
    "key_name": "(4-Fluorophenyl)boronic acid",
    "cn_name": "4-氟苯硼酸;",
    "alternate_name": "Boronic acid, <em>B</em>-(4-fluorophenyl)-;Benzeneboronic acid, <em>p</em>-fluoro-;Boronic acid, (4-fluorophenyl)-;<em>B</em>-(4-Fluorophenyl)boronic acid;(4-Fluorophenyl)boronic acid;4-Fluorobenzeneboronic acid;<em>p</em>-Fluorophenylboronic acid;(<em>p</em>-Fluorophenyl)boric acid;(4-Fluorophenyl)dihydroxyboron;NSC 142683;<em>p</em>-Fluorobenzylboronic acid;(4-Fluorophenyl)dihydroxyborane",
    "duplicated_cas_no": "",
    "SMILES": "B(O)(O)C1=CC=C(F)C=C1",
    "meta_data": {
        "InChI": "InChI=1S/C6H6BFO2/c8-6-3-1-5(2-4-6)7(9)10/h1-4,9-10H",
        "InChIKey": null,
        "Canonical SMILES": "FC1=CC=C(C=C1)B(O)O",
        "Molecular Formula": "C<sub>6</sub>H<sub>6</sub>BFO<sub>2</sub>",
        "Molecular Mass": "139.92",
        "Melting Point": "289-290 °C"
    }
}