{
    "cas_no": "41908-12-7",
    "key_name": "1-[3-(Chloromethyl)phenyl]ethanone",
    "cn_name": null,
    "alternate_name": "Ethanone, 1-[3-(chloromethyl)phenyl]-;Acetophenone, 3′-(chloromethyl)-;1-[3-(Chloromethyl)phenyl]ethanone;3′-(Chloromethyl)acetophenone;3-Chloromethyl-acetophenone;1-[3-(Chloromethyl)phenyl]ethan-1-one",
    "duplicated_cas_no": "",
    "SMILES": "C(C)(=O)C1=CC(CCl)=CC=C1",
    "meta_data": {
        "InChI": "InChI=1S/C9H9ClO/c1-7(11)9-4-2-3-8(5-9)6-10/h2-5H,6H2,1H3",
        "InChIKey": null,
        "Canonical SMILES": "O=C(C1=CC=CC(=C1)CCl)C",
        "Molecular Formula": "C<sub>9</sub>H<sub>9</sub>ClO",
        "Molecular Mass": "168.62",
        "Boiling Point": "130-131 °C @ Press: 7 Torr"
    }
}