{
    "cas_no": "5398-11-8",
    "key_name": "3-Phenylphthalide",
    "cn_name": "3-苯基苯酞;3-苯基苯酞;",
    "alternate_name": "1(3<em>H</em>)-Isobenzofuranone, 3-phenyl-;Phthalide, 3-phenyl-;3-Phenyl-1(3<em>H</em>)-isobenzofuranone;3-Phenylphthalide;(±)-3-Phenylphthalide;NSC 4572;3-Phenylisobenzofuran-1-one;3-Phenyl-3<em>H</em>-2-benzofuran-1-one;3-Phenyl-1,3-dihydro-2-benzofuran-1-one",
    "duplicated_cas_no": "78772-69-7",
    "SMILES": "O=C1OC(C=2C1=CC=CC2)C3=CC=CC=C3",
    "meta_data": {
        "InChI": "InChI=1S/C14H10O2/c15-14-12-9-5-4-8-11(12)13(16-14)10-6-2-1-3-7-10/h1-9,13H",
        "InChIKey": null,
        "Canonical SMILES": "O=C1OC(C=2C=CC=CC2)C=3C=CC=CC13",
        "Molecular Formula": "C<sub>14</sub>H<sub>10</sub>O<sub>2</sub>",
        "Molecular Mass": "210.23",
        "Melting Point": "115 °C"
    }
}