{
    "cas_no": "645-62-5",
    "key_name": "2-Ethyl-2-hexenal",
    "cn_name": "2-乙基己烯醛;2-乙基-2-己烯醛;",
    "alternate_name": "2-Hexenal, 2-ethyl-;2-Ethyl-2-hexenal;2-Ethyl-3-propylacrolein;α-Ethyl-β-propylacrolein;2-Ethyl-2-hexen-1-al;α-Ethyl-2-hexenal;3-Formylhept-3-ene;CKB 1364;NSC 4787",
    "duplicated_cas_no": "128744-21-8;1197009-33-8",
    "SMILES": "C(=CCCC)(CC)C=O",
    "meta_data": {
        "InChI": "InChI=1S/C8H14O/c1-3-5-6-8(4-2)7-9/h6-7H,3-5H2,1-2H3",
        "InChIKey": null,
        "Canonical SMILES": "O=CC(=CCCC)CC",
        "Molecular Formula": "C<sub>8</sub>H<sub>14</sub>O",
        "Molecular Mass": "126.20",
        "Boiling Point": "175 °C",
        "Density": "0.8518 g/cm³"
    }
}