{
    "cas_no": "60705-62-6",
    "key_name": "<em>p</em>-<em>tert</em>-Butylcalix[4]arene",
    "cn_name": "4-叔-丁基杯[4]芳烃;对叔丁基杯[4]芳烃;",
    "alternate_name": "Pentacyclo[19.3.1.1<sup>3,7</sup>.1<sup>9,13</sup>.1<sup>15,19</sup>]octacosa-1(25),3,5,7(28),9,11,13(27),15,17,19(26),21,23-dodecaene-25,26,27,28-tetrol, 5,11,17,23-tetrakis(1,1-dimethylethyl)-;Pentacyclo[19.3.1.1<sup>3,7</sup>.1<sup>9,13</sup>.1<sup>15,19</sup>]octacosa-1(25),3,5,7(28),9,11,13(27),15,17,19(26),21,23-dodecaene-25,26,27,28-tetrol, 5,11,17,23-tetra-<em>tert</em>-butyl-;5,11,17,23-Tetrakis(1,1-dimethylethyl)pentacyclo[19.3.1.1<sup>3,7</sup>.1<sup>9,13</sup>.1<sup>15,19</sup>]octacosa-1(25),3,5,7(28),9,11,13(27),15,17,19(26),21,23-dodecaene-25,26,27,28-tetrol;Formaldehyde-<em>p</em>-<em>tert</em>-butylphenol cyclic tetramer;5,11,17,23-Tetra-4-<em>tert</em>-butyl-25,26,27,28-tetrahydroxycalix[4]arene;4-<em>tert</em>-Butylcalix[4]arene-25,26,27,28-tetrol;<em>p</em>-<em>tert</em>-Butylcalix[4]arene-25,26,27,28-tetrol;5,11,17,23-Tetra-<em>p</em>-<em>tert</em>-butyl-25,26,27,28-tetrahydroxycalix(4)arene;<em>p</em>-<em>tert</em>-Butylcalix[4]arenetetrol;<em>p</em>-<em>tert</em>-Butylcalix[4]arene;Tetra-<em>p</em>-<em>tert</em>-butyltetracalix[4]arene;5,11,17,23-Tetra-<em>tert</em>-butylcalix[4]arene;4-<em>tert</em>-Butylcalix[4]arene;5,11,17,23-Tetra-<em>tert</em>-butyl-25,26,27,28-tetrahydroxycalix[4]arene;NSC 344251;Tetra-<em>tert</em>-butylcalix[4]arene;<em>tert</em>-Butylcalix[4]arene;25,26,27,28-Tetrahydroxy-<em>p</em>-<em>tert</em>-butylcalix[4]arene;5,11,17,23-Tetra-(<em>t</em>-butyl)-25,26,27,28-tetrahydroxycalix[4]arene;CALX-B 4;5,11,17,23-Tetra(<em>tert</em>-butyl)calix[4]arene-25,26,27,28-tetrol",
    "duplicated_cas_no": "68803-64-5;73227-35-7;78077-36-8;83093-22-5;85694-20-8;141312-54-1;169873-28-3;185422-19-9;376646-18-3;1209003-08-6;2363173-64-0;2996862-30-5",
    "SMILES": "OC=1C=2CC=3C(O)=C(CC=4C(O)=C(CC5=C(O)C(CC1C=C(C(C)(C)C)C2)=CC(C(C)(C)C)=C5)C=C(C(C)(C)C)C4)C=C(C(C)(C)C)C3",
    "meta_data": {
        "InChI": "InChI=1S/C44H56O4/c1-41(2,3)33-17-25-13-27-19-34(42(4,5)6)21-29(38(27)46)15-31-23-36(44(10,11)12)24-32(40(31)48)16-30-22-35(43(7,8)9)20-28(39(30)47)14-26(18-33)37(25)45/h17-24,45-48H,13-16H2,1-12H3",
        "InChIKey": null,
        "Canonical SMILES": "OC=1C2=CC(=CC1CC3=CC(=CC(=C3O)CC=4C=C(C=C(C4O)CC=5C=C(C=C(C5O)C2)C(C)(C)C)C(C)(C)C)C(C)(C)C)C(C)(C)C",
        "Molecular Formula": "C<sub>44</sub>H<sub>56</sub>O<sub>4</sub>",
        "Molecular Mass": "648.91",
        "Melting Point": "342.5 °C"
    }
}