{
    "cas_no": "36947-68-9",
    "key_name": "2-Isopropylimidazole",
    "cn_name": null,
    "alternate_name": "1<em>H</em>-Imidazole, 2-(1-methylethyl)-;2-(1-Methylethyl)-1<em>H</em>-imidazole;2-Isopropylimidazole;2-Isopropyl-1<em>H</em>-imidazole;2-(Propan-2-yl)-1<em>H</em>-imidazole;2-Propan-2-yl-1<em>H</em>-imidazole",
    "duplicated_cas_no": "",
    "SMILES": "C(C)(C)C=1NC=CN1",
    "meta_data": {
        "InChI": "InChI=1S/C6H10N2/c1-5(2)6-7-3-4-8-6/h3-5H,1-2H3,(H,7,8)",
        "InChIKey": null,
        "Canonical SMILES": "N=1C=CNC1C(C)C",
        "Molecular Formula": "C<sub>6</sub>H<sub>10</sub>N<sub>2</sub>",
        "Molecular Mass": "110.16",
        "Melting Point": "130-135 °C"
    }
}