{
    "cas_no": "5930-28-9",
    "key_name": "4-Amino-2,6-dichlorophenol",
    "cn_name": "2,6-二氯-4-氨基苯酚;",
    "alternate_name": "Phenol, 4-amino-2,6-dichloro-;4-Amino-2,6-dichlorophenol;2,6-Dichloro-4-aminophenol;2,6-Dichloro-<em>p</em>-aminophenol;3,5-Dichloro-4-hydroxyaniline;NSC 156835;4-Hydroxy-3,5-dichloroaniline",
    "duplicated_cas_no": "",
    "SMILES": "OC1=C(Cl)C=C(N)C=C1Cl",
    "meta_data": {
        "InChI": "InChI=1S/C6H5Cl2NO/c7-4-1-3(9)2-5(8)6(4)10/h1-2,10H,9H2",
        "InChIKey": null,
        "Canonical SMILES": "ClC=1C=C(N)C=C(Cl)C1O",
        "Molecular Formula": "C<sub>6</sub>H<sub>5</sub>Cl<sub>2</sub>NO",
        "Molecular Mass": "178.02",
        "Melting Point": "168 °C"
    }
}