{
    "cas_no": "920-39-8",
    "key_name": "Bromo(1-methylethyl)magnesium",
    "cn_name": "异丙基溴化镁;异丙基溴化镁(禁运0802);",
    "alternate_name": "Magnesium, bromo(1-methylethyl)-;Magnesium, bromoisopropyl-;Isopropylmagnesium bromide;Magnesium, isopropyl-, bromide;Bromo(1-methylethyl)magnesium;Bromoisopropylmagnesium;1-Methylethylmagnesium bromide;<em>iso</em>-Propylmagnesium bromide;2-Propylmagnesium bromide",
    "duplicated_cas_no": "",
    "SMILES": "C([Mg]Br)(C)C",
    "meta_data": {
        "InChI": "InChI=1S/C3H7.BrH.Mg/c1-3-2;;/h3H,1-2H3;1H;/q;;+1/p-1",
        "InChIKey": null,
        "Canonical SMILES": "Br[Mg]C(C)C",
        "Molecular Formula": "C<sub>3</sub>H<sub>7</sub>BrMg",
        "Molecular Mass": "",
        "Boiling Point": "117-119 °C @ Press: 0.2 Torr",
        "Melting Point": "86.5-87 °C"
    }
}