{
    "cas_no": "5411-56-3",
    "key_name": "1-(2-Bromophenyl)ethanol",
    "cn_name": null,
    "alternate_name": "Benzenemethanol, 2-bromo-α-methyl-;Benzyl alcohol, <em>o</em>-bromo-α-methyl-;2-Bromo-α-methylbenzenemethanol;1-(2-Bromophenyl)ethanol;2-Bromo-α-methylbenzyl alcohol;NSC 10988;(±)-1-(<em>o</em>-Bromophenyl)ethanol;<em>o</em>-Bromo-α-methylbenzyl alcohol;1-(2-Bromophenyl)ethan-1-ol",
    "duplicated_cas_no": "118375-26-1",
    "SMILES": "C(C)(O)C1=C(Br)C=CC=C1",
    "meta_data": {
        "InChI": "InChI=1S/C8H9BrO/c1-6(10)7-4-2-3-5-8(7)9/h2-6,10H,1H3",
        "InChIKey": null,
        "Canonical SMILES": "BrC=1C=CC=CC1C(O)C",
        "Molecular Formula": "C<sub>8</sub>H<sub>9</sub>BrO",
        "Molecular Mass": "201.06",
        "Boiling Point": "128 °C @ Press: 15 Torr",
        "Density": "1.406 g/cm³ @ Temp: 17 °C"
    }
}