{
    "cas_no": "15930-53-7",
    "key_name": "6-Bromo-1,3-benzodioxole-5-carboxaldehyde",
    "cn_name": "6-溴-3,4-亚甲基二氧苯甲醛;6-溴-3,4-亚甲基二氧苯甲醛;6-溴-1,3-苯并间二氧-5-甲醛;6-溴胡椒醛;6-溴-3,4-;",
    "alternate_name": "1,3-Benzodioxole-5-carboxaldehyde, 6-bromo-;Piperonal, 6-bromo-;6-Bromo-1,3-benzodioxole-5-carboxaldehyde;2-Bromo-4,5-(methylenedioxy)benzaldehyde;6-Bromopiperonal;6-Bromo-3,4-(methylenedioxy)benzaldehyde;NSC 15639;6-Bromobenzodioxole-5-carboxaldehyde;6-Bromo-1,3-benzodioxol-5-carboxaldehyde;6-Bromobenzo[<em>d</em>][1,3]dioxole-5-carboxaldehyde;6-Bromo-3,4-methylenedioxybenzenecarboxaldehyde",
    "duplicated_cas_no": "",
    "SMILES": "C(=O)C=1C=C2C(=CC1Br)OCO2",
    "meta_data": {
        "InChI": "InChI=1S/C8H5BrO3/c9-6-2-8-7(11-4-12-8)1-5(6)3-10/h1-3H,4H2",
        "InChIKey": null,
        "Canonical SMILES": "O=CC=1C=C2OCOC2=CC1Br",
        "Molecular Formula": "C<sub>8</sub>H<sub>5</sub>BrO<sub>3</sub>",
        "Molecular Mass": "229.03",
        "Melting Point": "129 °C"
    }
}