{
    "cas_no": "4760-35-4",
    "key_name": "2-(Chloromethyl)-1-methylbenzimidazole",
    "cn_name": "2-(氯甲基)-1-甲基-1H-苯并咪唑;",
    "alternate_name": "1<em>H</em>-Benzimidazole, 2-(chloromethyl)-1-methyl-;Benzimidazole, 2-(chloromethyl)-1-methyl-;2-(Chloromethyl)-1-methyl-1<em>H</em>-benzimidazole;2-(Chloromethyl)-1-methylbenzimidazole;1-Methyl-2-(chloromethyl)benzimidazole;2-Chloromethyl-<em>N</em>-methylbenzimidazole;2-Chloromethyl-1-methyl-1<em>H</em>-benzimidazole;NSC 64201;2-(Chloromethyl)-1-methyl-1<em>H</em>-1,3-benzodiazole;2-(Chloromethyl)-1-methyl-1<em>H</em>-benzo[<em>d</em>]imidazole",
    "duplicated_cas_no": "",
    "SMILES": "CN1C=2C(N=C1CCl)=CC=CC2",
    "meta_data": {
        "InChI": "InChI=1S/C9H9ClN2/c1-12-8-5-3-2-4-7(8)11-9(12)6-10/h2-5H,6H2,1H3",
        "InChIKey": null,
        "Canonical SMILES": "ClCC1=NC=2C=CC=CC2N1C",
        "Molecular Formula": "C<sub>9</sub>H<sub>9</sub>ClN<sub>2</sub>",
        "Molecular Mass": "180.63",
        "Melting Point": "94 °C"
    }
}