{
    "cas_no": "1077-96-9",
    "key_name": "5-Fluoro-1<em>H</em>-indazole-3-carboxylic acid",
    "cn_name": "5-氟吲唑-3-羧酸;",
    "alternate_name": "1<em>H</em>-Indazole-3-carboxylic acid, 5-fluoro-;5-Fluoro-1<em>H</em>-indazole-3-carboxylic acid;5-Fluoroindazole-3-carboxylic acid",
    "duplicated_cas_no": "",
    "SMILES": "C(O)(=O)C=1C=2C(NN1)=CC=C(F)C2",
    "meta_data": {
        "InChI": "InChI=1S/C8H5FN2O2/c9-4-1-2-6-5(3-4)7(8(12)13)11-10-6/h1-3H,(H,10,11)(H,12,13)",
        "InChIKey": null,
        "Canonical SMILES": "O=C(O)C1=NNC=2C=CC(F)=CC21",
        "Molecular Formula": "C<sub>8</sub>H<sub>5</sub>FN<sub>2</sub>O<sub>2</sub>",
        "Molecular Mass": "180.14",
        "Melting Point": "299 °C"
    }
}