{
    "cas_no": "632-16-6",
    "key_name": "2,3-Dimethylthiophene",
    "cn_name": "2,3-二甲基噻吩;",
    "alternate_name": "Thiophene, 2,3-dimethyl-;2,3-Dimethylthiophene",
    "duplicated_cas_no": "",
    "SMILES": "CC1=C(C)SC=C1",
    "meta_data": {
        "InChI": "InChI=1S/C6H8S/c1-5-3-4-7-6(5)2/h3-4H,1-2H3",
        "InChIKey": null,
        "Canonical SMILES": "S1C=CC(=C1C)C",
        "Molecular Formula": "C<sub>6</sub>H<sub>8</sub>S",
        "Molecular Mass": "112.19",
        "Boiling Point": "141.6 °C",
        "Melting Point": "-49 °C",
        "Density": "1.0021 g/cm³ @ Temp: 20 °C"
    }
}