{
    "cas_no": "38941-47-8",
    "key_name": "Cyclohexanecarbohydrazide",
    "cn_name": null,
    "alternate_name": "Cyclohexanecarboxylic acid, hydrazide;Cyclohexanecarboxylic hydrazide;Cyclohexanecarbonylhydrazine;Cyclohexanecarbohydrazide;NSC 45908",
    "duplicated_cas_no": "",
    "SMILES": "C(NN)(=O)C1CCCCC1",
    "meta_data": {
        "InChI": "InChI=1S/C7H14N2O/c8-9-7(10)6-4-2-1-3-5-6/h6H,1-5,8H2,(H,9,10)",
        "InChIKey": null,
        "Canonical SMILES": "O=C(NN)C1CCCCC1",
        "Molecular Formula": "C<sub>7</sub>H<sub>14</sub>N<sub>2</sub>O",
        "Molecular Mass": "142.20",
        "Melting Point": "158-159 °C"
    }
}