{
    "cas_no": "22697-65-0",
    "key_name": "6-Hydroxykaempferol 3,6-dimethyl ether",
    "cn_name": null,
    "alternate_name": "4<em>H</em>-1-Benzopyran-4-one, 5,7-dihydroxy-2-(4-hydroxyphenyl)-3,6-dimethoxy-;Flavone, 4′,5,7-trihydroxy-3,6-dimethoxy-;5,7-Dihydroxy-2-(4-hydroxyphenyl)-3,6-dimethoxy-4<em>H</em>-1-benzopyran-4-one;4′,5,7-Trihydroxy-3,6-dimethoxyflavone;Galetin 3,6-dimethyl ether;6-Methoxykaempferol 3-methyl ether;5,7,4′-Trihydroxy-3,6-dimethoxyflavone;3,6-Dimethoxyapigenin;6-Hydroxykaempferol 3,6-dimethyl ether;6-Methoxy-3-<em>O</em>-methylkaempferol;NSC 271638;Viscosine (pharmaceutical);Viscosine",
    "duplicated_cas_no": "98006-96-3",
    "SMILES": "O=C1C=2C(OC(=C1OC)C3=CC=C(O)C=C3)=CC(O)=C(OC)C2O",
    "meta_data": {
        "InChI": "InChI=1S/C17H14O7/c1-22-16-10(19)7-11-12(13(16)20)14(21)17(23-2)15(24-11)8-3-5-9(18)6-4-8/h3-7,18-20H,1-2H3",
        "InChIKey": null,
        "Canonical SMILES": "O=C1C(OC)=C(OC2=CC(O)=C(OC)C(O)=C12)C=3C=CC(O)=CC3",
        "Molecular Formula": "C<sub>17</sub>H<sub>14</sub>O<sub>7</sub>",
        "Molecular Mass": "330.29",
        "Melting Point": "217 °C"
    }
}