{
    "cas_no": "312-21-0",
    "key_name": "4-[(Trifluoromethyl)sulfonyl]benzonitrile",
    "cn_name": "4-(三氟甲基磺酰基)苯甲腈;",
    "alternate_name": "Benzonitrile, 4-[(trifluoromethyl)sulfonyl]-;4-[(Trifluoromethyl)sulfonyl]benzonitrile;4-(Trifluoromethylsulfonyl)benzonitrile;4-Cyanophenyl trifluoromethyl sulfone",
    "duplicated_cas_no": "",
    "SMILES": "S(C(F)(F)F)(=O)(=O)C1=CC=C(C#N)C=C1",
    "meta_data": {
        "InChI": "InChI=1S/C8H4F3NO2S/c9-8(10,11)15(13,14)7-3-1-6(5-12)2-4-7/h1-4H",
        "InChIKey": null,
        "Canonical SMILES": "N#CC1=CC=C(C=C1)S(=O)(=O)C(F)(F)F",
        "Molecular Formula": "C<sub>8</sub>H<sub>4</sub>F<sub>3</sub>NO<sub>2</sub>S",
        "Molecular Mass": "235.18",
        "Melting Point": "89-90 °C"
    }
}