{
    "cas_no": "39416-48-3",
    "key_name": "Pyridinium tribromide",
    "cn_name": "三溴化吡啶鎓;吡啶氢溴酸盐高溴化物;吡啶鎓三溴化物;",
    "alternate_name": "Hydrogen tribromide, compd. with pyridine (1:1);Pyridine, (hydrogen tribromide);Pyridinium tribromide;Pyridinium bromide perbromide;Pyridinium hydrobromide perbromide;Pyridinium perbromide;NSC 61191",
    "duplicated_cas_no": "543-52-2;34842-62-1;36812-55-2;50514-09-5;66323-10-2;70873-43-7;91113-93-8;256464-56-9;1863030-75-4;2917610-92-3",
    "SMILES": "[BrH](Br)Br.C=1C=CN=CC1",
    "meta_data": {
        "InChI": "InChI=1S/C5H5N.Br3H/c1-2-4-6-5-3-1;1-3-2/h1-5H;3H",
        "InChIKey": null,
        "Canonical SMILES": "Br[BrH]Br.N=1C=CC=CC1",
        "Molecular Formula": "C<sub>5</sub>H<sub>5</sub>N.Br<sub>3</sub>H",
        "Molecular Mass": "",
        "Melting Point": "134 °C"
    }
}