{
    "cas_no": "19434-36-7",
    "key_name": "2-(4-Methoxyphenoxy)benzaldehyde",
    "cn_name": null,
    "alternate_name": "Benzaldehyde, 2-(4-methoxyphenoxy)-;Benzaldehyde, <em>o</em>-(<em>p</em>-methoxyphenoxy)-;2-(4-Methoxyphenoxy)benzaldehyde",
    "duplicated_cas_no": "",
    "SMILES": "O(C1=C(C=O)C=CC=C1)C2=CC=C(OC)C=C2",
    "meta_data": {
        "InChI": "InChI=1S/C14H12O3/c1-16-12-6-8-13(9-7-12)17-14-5-3-2-4-11(14)10-15/h2-10H,1H3",
        "InChIKey": null,
        "Canonical SMILES": "O=CC=1C=CC=CC1OC2=CC=C(OC)C=C2",
        "Molecular Formula": "C<sub>14</sub>H<sub>12</sub>O<sub>3</sub>",
        "Molecular Mass": "228.24",
        "Melting Point": "63-65 °C"
    }
}