{
    "cas_no": "589-08-2",
    "key_name": "<em>N</em>-Methylbenzeneethanamine",
    "cn_name": "N-甲基苯乙胺;",
    "alternate_name": "Benzeneethanamine, <em>N</em>-methyl-;Phenethylamine, <em>N</em>-methyl-;<em>N</em>-Methylbenzeneethanamine;<em>N</em>-Methylphenethylamine;<em>N</em>-Methyl-β-phenylethylamine;<em>N</em>-Methyl-β-phenethylamine;<em>N</em>-Methyl-<em>N</em>-(2-phenylethyl)amine;<em>N</em>-Methyl-2-phenylethylamine;<em>N</em>-(Phenylethyl)methylamine;<em>N</em>-Methyl-2-phenethylamine;<em>N</em>-Methyl-<em>N</em>-phenethylamine;<em>N</em>-Phenethylmethylamine;NSC 113957;(2-Phenylethyl)methylamine;<em>N</em>-Methyl-2-phenylethanamine;[2-(Methylamino)ethyl]benzene;<em>N</em>-Phenethyl-<em>N</em>-methylamine;<em>N</em>-Methyl-2-phenylethan-1-amine",
    "duplicated_cas_no": "",
    "SMILES": "C(CNC)C1=CC=CC=C1",
    "meta_data": {
        "InChI": "InChI=1S/C9H13N/c1-10-8-7-9-5-3-2-4-6-9/h2-6,10H,7-8H2,1H3",
        "InChIKey": null,
        "Canonical SMILES": "C=1C=CC(=CC1)CCNC",
        "Molecular Formula": "C<sub>9</sub>H<sub>13</sub>N",
        "Molecular Mass": "135.21",
        "Boiling Point": "206 °C",
        "Density": "0.934 g/cm³"
    }
}