{
    "cas_no": "96-20-8",
    "key_name": "2-Amino-1-butanol",
    "cn_name": "(±)-2-氨基-1-丁醇;氨基丁醇;2-氨基-1-丁醇;混旋-2-氨基丁醇;",
    "alternate_name": "1-Butanol, 2-amino-;2-Amino-1-butanol;1-(Hydroxymethyl)propylamine;1-Hydroxy-2-butylamine;2-Amino-1-hydroxybutane;2-Aminobutyl alcohol;1-Hydroxy-<em>sec</em>-butylamine;1-Hydroxy-2-aminobutane;<span class=\"text-smallcaps\">DL</span>-α-Aminobutanol;<span class=\"text-smallcaps\">DL</span>-2-Aminobutanol;<em>dl</em>-2-Amino-1-butanol;(±)-2-Amino-1-butanol;<span class=\"text-smallcaps\">DL</span>-2-Amino-1-butanol;(<em>RS</em>)-2-Amino-1-butanol;NSC 1068;1-Hydroxybutan-2-amine",
    "duplicated_cas_no": "13054-87-0",
    "SMILES": "C(CC)(CO)N",
    "meta_data": {
        "InChI": "InChI=1S/C4H11NO/c1-2-4(5)3-6/h4,6H,2-3,5H2,1H3",
        "InChIKey": null,
        "Canonical SMILES": "OCC(N)CC",
        "Molecular Formula": "C<sub>4</sub>H<sub>11</sub>NO",
        "Molecular Mass": "89.14",
        "Boiling Point": "178 °C",
        "Melting Point": "-2 °C",
        "Density": "0.9443 g/cm³ @ Temp: 26 °C"
    }
}