{
    "cas_no": "2426-02-0",
    "key_name": "3,4,5,6-Tetrahydrophthalic anhydride",
    "cn_name": "3,4,5,6-四氢苯酐;",
    "alternate_name": "1,3-Isobenzofurandione, 4,5,6,7-tetrahydro-;1-Cyclohexene-1,2-dicarboxylic anhydride;4,5,6,7-Tetrahydro-1,3-isobenzofurandione;3,4,5,6-Tetrahydrophthalic anhydride;3,4,5,6-Tetrahydrophthalic acid anhydride;δ<sup>1</sup>-Tetrahydrophthalic anhydride;1-Cyclohexene-1,2-dicarboxylic acid anhydride;Tetrahydrophthalic anhydride;NSC 11211;NSC 61333;Rikacid HT 1A;4,5,6,7-Tetrahydro-isobenzofuran-1,3-dione;1,3,4,5,6,7-Hexahydro-2-benzofuran-1,3-dione",
    "duplicated_cas_no": "",
    "SMILES": "O=C1C2=C(C(=O)O1)CCCC2",
    "meta_data": {
        "InChI": "InChI=1S/C8H8O3/c9-7-5-3-1-2-4-6(5)8(10)11-7/h1-4H2",
        "InChIKey": null,
        "Canonical SMILES": "O=C1OC(=O)C2=C1CCCC2",
        "Molecular Formula": "C<sub>8</sub>H<sub>8</sub>O<sub>3</sub>",
        "Molecular Mass": "152.15",
        "Boiling Point": "145-155 °C @ Press: 4-5 Torr",
        "Melting Point": "74 °C"
    }
}