{
    "cas_no": "585-76-2",
    "key_name": "3-Bromobenzoic acid",
    "cn_name": "3-溴苯甲酸;间溴苯甲酸;",
    "alternate_name": "Benzoic acid, 3-bromo-;Benzoic acid, <em>m</em>-bromo-;3-Bromobenzoic acid;<em>m</em>-Bromobenzoic acid;NSC 176129;NSC 32739;NSC 3980;NSC 83519;Benzoic acid, 3-(bromocarbonyl)-",
    "duplicated_cas_no": "2375204-50-3",
    "SMILES": "C(O)(=O)C1=CC(Br)=CC=C1",
    "meta_data": {
        "InChI": "InChI=1S/C7H5BrO2/c8-6-3-1-2-5(4-6)7(9)10/h1-4H,(H,9,10)",
        "InChIKey": null,
        "Canonical SMILES": "O=C(O)C=1C=CC=C(Br)C1",
        "Molecular Formula": "C<sub>7</sub>H<sub>5</sub>BrO<sub>2</sub>",
        "Molecular Mass": "201.02",
        "Boiling Point": "&gt;280 °C",
        "Melting Point": "155 °C"
    }
}