{
    "cas_no": "465-90-7",
    "key_name": "Hellebrigenin",
    "cn_name": null,
    "alternate_name": "Bufa-20,22-dienolide, 3,5,14-trihydroxy-19-oxo-, (3β,5β)-;5β-Bufa-20,22-dienolide, 3β,5,14-trihydroxy-19-oxo-;(3β,5β)-3,5,14-Trihydroxy-19-oxobufa-20,22-dienolide;Bufotalidin;Hellebrigenin;Gellebrigenin;NSC 89594",
    "duplicated_cas_no": "",
    "SMILES": "C(=O)[C@@]12[C@@]3([C@]([C@]4(O)[C@](C)(CC3)[C@H](CC4)C=5C=CC(=O)OC5)(CC[C@]1(O)C[C@@H](O)CC2)[H])[H]",
    "meta_data": {
        "InChI": "InChI=1S/C24H32O6/c1-21-8-5-18-19(6-10-23(28)12-16(26)4-9-22(18,23)14-25)24(21,29)11-7-17(21)15-2-3-20(27)30-13-15/h2-3,13-14,16-19,26,28-29H,4-12H2,1H3/t16-,17+,18-,19+,21+,22-,23-,24-/m0/s1",
        "InChIKey": null,
        "Canonical SMILES": "O=CC12CCC(O)CC2(O)CCC3C1CCC4(C)C(C5=COC(=O)C=C5)CCC34O",
        "Molecular Formula": "C<sub>24</sub>H<sub>32</sub>O<sub>6</sub>",
        "Molecular Mass": "416.51",
        "Melting Point": "175 °C"
    }
}