{
    "cas_no": "1879-09-0",
    "key_name": "2,4-Dimethyl-6-<em>tert</em>-butylphenol",
    "cn_name": "6-叔丁基-2,4-二甲基苯酚;",
    "alternate_name": "Phenol, 2-(1,1-dimethylethyl)-4,6-dimethyl-;2,4-Xylenol, 6-<em>tert</em>-butyl-;2-(1,1-Dimethylethyl)-4,6-dimethylphenol;2,4-Dimethyl-6-<em>tert</em>-butylphenol;Topanol A;2-<em>tert</em>-Butyl-4,6-dimethylphenol;6-<em>tert</em>-Butyl-2,4-xylenol;6-<em>tert</em>-Butyl-2,4-dimethylphenol;6-(1,1-Dimethylethyl)-2,4-dimethylphenol;M 24;M 24 (antioxidant);Antioxidant 30;2-Methyl-6-<em>tert</em>-butyl-<em>p</em>-cresol;NSC 8130;4,6-Dimethyl-2-<em>tert</em>-butylphenol;2-<em>tert</em>-Butyl-4,6-methylphenol;Lowinox 624;Antioxidant TBX;NA 30;NA 30 (polymerization inhibitor)",
    "duplicated_cas_no": "72847-40-6",
    "SMILES": "C(C)(C)(C)C1=C(O)C(C)=CC(C)=C1",
    "meta_data": {
        "InChI": "InChI=1S/C12H18O/c1-8-6-9(2)11(13)10(7-8)12(3,4)5/h6-7,13H,1-5H3",
        "InChIKey": null,
        "Canonical SMILES": "OC=1C(=CC(=CC1C(C)(C)C)C)C",
        "Molecular Formula": "C<sub>12</sub>H<sub>18</sub>O",
        "Molecular Mass": "178.27",
        "Boiling Point": "249 °C",
        "Melting Point": "22.3 °C"
    }
}