{
    "cas_no": "451-13-8",
    "key_name": "Homogentisic acid",
    "cn_name": "尿黑酸;",
    "alternate_name": "Benzeneacetic acid, 2,5-dihydroxy-;Acetic acid, (2,5-dihydroxyphenyl)-;2,5-Dihydroxybenzeneacetic acid;Alcapton;2,5-Dihydroxyphenylacetic acid;2,5-Dihydroxy-α-toluic acid;Homogentisic acid;Homogentisinic acid;NSC 88940;2-(2,5-Dihydroxyphenyl)acetic acid;MeSH ID: D006713",
    "duplicated_cas_no": "",
    "SMILES": "C(C(O)=O)C1=C(O)C=CC(O)=C1",
    "meta_data": {
        "InChI": "InChI=1S/C8H8O4/c9-6-1-2-7(10)5(3-6)4-8(11)12/h1-3,9-10H,4H2,(H,11,12)",
        "InChIKey": null,
        "Canonical SMILES": "O=C(O)CC1=CC(O)=CC=C1O",
        "Molecular Formula": "C<sub>8</sub>H<sub>8</sub>O<sub>4</sub>",
        "Molecular Mass": "168.15",
        "Melting Point": "153 °C"
    }
}