{
    "cas_no": "50892-62-1",
    "key_name": "8-Chloro-5,10-dihydro-11<em>H</em>-dibenzo[<em>b</em>,<em>e</em>][1,4]diazepin-11-one",
    "cn_name": "8-氯-5,10-二氢-11H-二苯并[b,e][1,4]二氮杂卓-11-酮;",
    "alternate_name": "11<em>H</em>-Dibenzo[<em>b</em>,<em>e</em>][1,4]diazepin-11-one, 8-chloro-5,10-dihydro-;8-Chloro-5,10-dihydro-11<em>H</em>-dibenzo[<em>b</em>,<em>e</em>][1,4]diazepin-11-one;8-Chloro-5,10-dihydrodibenzo[<em>b</em>,<em>e</em>][1,4]diazepin-11-one;8-Chloro-5<em>H</em>-dibenzo[<em>b</em>,<em>e</em>][1,4]diazepin-11(10<em>H</em>)-one",
    "duplicated_cas_no": "",
    "SMILES": "O=C1C=2C(NC=3C(N1)=CC(Cl)=CC3)=CC=CC2",
    "meta_data": {
        "InChI": "InChI=1S/C13H9ClN2O/c14-8-5-6-11-12(7-8)16-13(17)9-3-1-2-4-10(9)15-11/h1-7,15H,(H,16,17)",
        "InChIKey": null,
        "Canonical SMILES": "O=C1NC2=CC(Cl)=CC=C2NC=3C=CC=CC13",
        "Molecular Formula": "C<sub>13</sub>H<sub>9</sub>ClN<sub>2</sub>O",
        "Molecular Mass": "244.68",
        "Melting Point": "165 °C"
    }
}