{
    "cas_no": "3336-41-2",
    "key_name": "3,5-Dichloro-4-hydroxybenzoic acid",
    "cn_name": "3,5-二氯-4-羟基苯甲酸;3,5-二氯对羟基苯甲酸;",
    "alternate_name": "Benzoic acid, 3,5-dichloro-4-hydroxy-;3,5-Dichloro-4-hydroxybenzoic acid;NSC 21185;4-Hydroxy-3,5-dichlorobenzoic acid",
    "duplicated_cas_no": "",
    "SMILES": "C(O)(=O)C1=CC(Cl)=C(O)C(Cl)=C1",
    "meta_data": {
        "InChI": "InChI=1S/C7H4Cl2O3/c8-4-1-3(7(11)12)2-5(9)6(4)10/h1-2,10H,(H,11,12)",
        "InChIKey": null,
        "Canonical SMILES": "O=C(O)C1=CC(Cl)=C(O)C(Cl)=C1",
        "Molecular Formula": "C<sub>7</sub>H<sub>4</sub>Cl<sub>2</sub>O<sub>3</sub>",
        "Molecular Mass": "207.01",
        "Melting Point": "255-256 °C (decomp)"
    }
}