{
    "cas_no": "97-62-1",
    "key_name": "Ethyl isobutyrate",
    "cn_name": "异丁酸乙酯;2-甲基丙酸乙酯;",
    "alternate_name": "Propanoic acid, 2-methyl-, ethyl ester;Isobutyric acid, ethyl ester;Ethyl isobutyrate;Ethyl 2-methylpropanoate;Ethyl 2-methylpropionate;Ethyl isobutanoate;Ethyl 2,2-dimethylacetate;2-Methylpropanoic acid ethyl ester;2-Methylpropionic acid ethyl ester;NSC 97194;Ethyl 2-methyl-1-propanoate",
    "duplicated_cas_no": "",
    "SMILES": "C(OCC)(C(C)C)=O",
    "meta_data": {
        "InChI": "InChI=1S/C6H12O2/c1-4-8-6(7)5(2)3/h5H,4H2,1-3H3",
        "InChIKey": null,
        "Canonical SMILES": "O=C(OCC)C(C)C",
        "Molecular Formula": "C<sub>6</sub>H<sub>12</sub>O<sub>2</sub>",
        "Molecular Mass": "116.16",
        "Boiling Point": "110.1 °C",
        "Melting Point": "-88.2 °C",
        "Density": "0.84760 g/cm³ @ Temp: 40 °C"
    }
}