{
    "cas_no": "559-74-0",
    "key_name": "Friedelin",
    "cn_name": "无羁萜;无羁萜;",
    "alternate_name": "24,25,26-Trinoroleanan-3-one, 5,9,13-trimethyl-, (4β,5β,8α,9β,10α,13α,14β)-;<em>D</em>:<em>A</em>-Friedooleanan-3-one;Friedelin;(4β,5β,8α,9β,10α,13α,14β)-5,9,13-Trimethyl-24,25,26-trinoroleanan-3-one;(-)-Friedelin;Friedelan-3-one;Friedeline;Friedelanone;3(2<em>H</em>)-Picenone, eicosahydro-4,4a,6b,8a,11,11,12b,14a-octamethyl-, [4<em>R</em>-(4α,4aα,6aβ,6bα,8aα,12aα,12bβ,14aα,14bβ)]-;3(2<em>H</em>)-Picenone, eicosahydro-4,4a,6b,8a,11,11,12b,14a-octamethyl-, (4<em>R</em>,4a<em>S</em>,6a<em>S</em>,6b<em>R</em>,8a<em>R</em>,12a<em>R</em>,12b<em>S</em>,14a<em>S</em>,14b<em>S</em>)-;NSC 55141;3-Oxofriedelane",
    "duplicated_cas_no": "",
    "SMILES": "C[C@@]12[C@](C)([C@]3([C@@](C)(CC1)CCC(C)(C)C3)[H])CC[C@]4(C)[C@@]2(CC[C@@]5(C)[C@]4(CCC(=O)[C@@H]5C)[H])[H]",
    "meta_data": {
        "InChI": "InChI=1S/C30H50O/c1-20-21(31)9-10-22-27(20,5)12-11-23-28(22,6)16-18-30(8)24-19-25(2,3)13-14-26(24,4)15-17-29(23,30)7/h20,22-24H,9-19H2,1-8H3/t20-,22+,23-,24+,26+,27+,28-,29+,30-/m0/s1",
        "InChIKey": null,
        "Canonical SMILES": "O=C1CCC2C(C)(CCC3C2(C)CCC4(C)C5CC(C)(C)CCC5(C)CCC34C)C1C",
        "Molecular Formula": "C<sub>30</sub>H<sub>50</sub>O",
        "Molecular Mass": "426.72",
        "Melting Point": "263 °C"
    }
}