{
    "cas_no": "589-10-6",
    "key_name": "(2-Bromoethoxy)benzene",
    "cn_name": "2-苯氧乙基溴;2-溴乙基苯基醚;",
    "alternate_name": "Benzene, (2-bromoethoxy)-;Phenetole, β-bromo-;(2-Bromoethoxy)benzene;2-Phenoxyethyl bromide;β-Phenoxyethyl bromide;β-Bromophenetole;1-Bromo-2-phenoxyethane;2-Bromoethyl phenyl ether;1-Phenoxy-2-bromoethane;NSC 8055;2-Phenoxy-1-bromoethane;2-(2-Bromoethoxy)benzene;1-(2-Bromoethoxy)benzene",
    "duplicated_cas_no": "",
    "SMILES": "O(CCBr)C1=CC=CC=C1",
    "meta_data": {
        "InChI": "InChI=1S/C8H9BrO/c9-6-7-10-8-4-2-1-3-5-8/h1-5H,6-7H2",
        "InChIKey": null,
        "Canonical SMILES": "BrCCOC=1C=CC=CC1",
        "Molecular Formula": "C<sub>8</sub>H<sub>9</sub>BrO",
        "Molecular Mass": "201.06",
        "Boiling Point": "130-145 °C @ Press: 25 Torr",
        "Melting Point": "39 °C"
    }
}