{
    "cas_no": "26833-85-2",
    "key_name": "Harringtonine",
    "cn_name": "三尖杉酯碱;",
    "alternate_name": "Cephalotaxine, 3-[4-methyl (2<em>R</em>)-2-hydroxy-2-(3-hydroxy-3-methylbutyl)butanedioate];Harringtonine;Cephalotaxine, 4-methyl 2-hydroxy-2-(3-hydroxy-3-methylbutyl)butanedioate (ester), [3(<em>R</em>)]-;Cephalotaxine, 4-methyl (2<em>R</em>)-2-hydroxy-2-(3-hydroxy-3-methylbutyl)butanedioate (ester);4<em>H</em>-Cyclopenta[<em>a</em>][1,3]dioxolo[4,5-<em>h</em>]pyrrolo[2,1-<em>b</em>][3]benzazepine, cephalotaxine deriv.;Harringtonin;2′<em>R</em>-Harringtonine;NSC 124147",
    "duplicated_cas_no": "25302-09-4;88455-80-5",
    "SMILES": "O(C([C@@](CCC(C)(C)O)(CC(OC)=O)O)=O)[C@H]1[C@@]2([C@@]3(N(CCC=4C2=CC5=C(C4)OCO5)CCC3)C=C1OC)[H]",
    "meta_data": {
        "InChI": "InChI=1S/C28H37NO9/c1-26(2,32)8-9-28(33,15-22(30)35-4)25(31)38-24-21(34-3)14-27-7-5-10-29(27)11-6-17-12-19-20(37-16-36-19)13-18(17)23(24)27/h12-14,23-24,32-33H,5-11,15-16H2,1-4H3/t23-,24-,27+,28-/m1/s1",
        "InChIKey": null,
        "Canonical SMILES": "O=C(OC)CC(O)(C(=O)OC1C(OC)=CC23N(CCC4=CC=5OCOC5C=C4C12)CCC3)CCC(O)(C)C",
        "Molecular Formula": "C<sub>28</sub>H<sub>37</sub>NO<sub>9</sub>",
        "Molecular Mass": "531.59",
        "Melting Point": "68-69 °C"
    }
}