{
    "cas_no": "590-02-3",
    "key_name": "Butyl chloroacetate",
    "cn_name": "氯乙酸正丁酯;",
    "alternate_name": "Acetic acid, 2-chloro-, butyl ester;Acetic acid, chloro-, butyl ester;<em>n</em>-Butyl chloroacetate;Butyl chloroacetate;Chloroacetic acid <em>n</em>-butyl ester;NSC 1212;Butyl monochloroacetate;Chloroacetic acid butyl ester",
    "duplicated_cas_no": "",
    "SMILES": "C(OCCCC)(CCl)=O",
    "meta_data": {
        "InChI": "InChI=1S/C6H11ClO2/c1-2-3-4-9-6(8)5-7/h2-5H2,1H3",
        "InChIKey": null,
        "Canonical SMILES": "O=C(OCCCC)CCl",
        "Molecular Formula": "C<sub>6</sub>H<sub>11</sub>ClO<sub>2</sub>",
        "Molecular Mass": "150.60",
        "Boiling Point": "183 °C",
        "Density": "1.0704 g/cm³ @ Temp: 20 °C"
    }
}