{
    "cas_no": "40733-28-6",
    "key_name": "5′-<em>O</em>-[(1,1-Dimethylethyl)dimethylsilyl]thymidine",
    "cn_name": null,
    "alternate_name": "Thymidine, 5′-<em>O</em>-[(1,1-dimethylethyl)dimethylsilyl]-;5′-<em>O</em>-[(1,1-Dimethylethyl)dimethylsilyl]thymidine;5′-<em>O</em>-<em>tert</em>-Butyldimethylsilylthymidine;5′-<em>O</em>-(<em>tert</em>-Butyldimethylsilyl)deoxythymidine",
    "duplicated_cas_no": "2711811-29-7",
    "SMILES": "O=C1N([C@@H]2O[C@H](CO[Si](C(C)(C)C)(C)C)[C@@H](O)C2)C=C(C)C(=O)N1",
    "meta_data": {
        "InChI": "InChI=1S/C16H28N2O5Si/c1-10-8-18(15(21)17-14(10)20)13-7-11(19)12(23-13)9-22-24(5,6)16(2,3)4/h8,11-13,19H,7,9H2,1-6H3,(H,17,20,21)/t11-,12+,13+/m0/s1",
        "InChIKey": null,
        "Canonical SMILES": "O=C1NC(=O)N(C=C1C)C2OC(CO[Si](C)(C)C(C)(C)C)C(O)C2",
        "Molecular Formula": "C<sub>16</sub>H<sub>28</sub>N<sub>2</sub>O<sub>5</sub>Si",
        "Molecular Mass": "356.49",
        "Melting Point": "198-200 °C"
    }
}