{
    "cas_no": "1142-15-0",
    "key_name": "4-Methoxystilbene",
    "cn_name": "4-甲氧基二苯乙烯;",
    "alternate_name": "Benzene, 1-methoxy-4-(2-phenylethenyl)-;Anisole, <em>p</em>-styryl-;Stilbene, 4-methoxy-;1-Methoxy-4-(2-phenylethenyl)benzene;4-Methoxystilbene;<em>p</em>-Methoxystilbene;NSC 2139;1-(<em>p</em>-Methoxyphenyl)-2-phenylethene;1-(4-Methoxyphenyl)-2-phenylethene;1-(<em>p</em>-Methoxy)phenyl-2-phenylethylene;1-Methoxy-4-styrylbenzene",
    "duplicated_cas_no": "",
    "SMILES": "C(=CC1=CC=CC=C1)C2=CC=C(OC)C=C2",
    "meta_data": {
        "InChI": "InChI=1S/C15H14O/c1-16-15-11-9-14(10-12-15)8-7-13-5-3-2-4-6-13/h2-12H,1H3",
        "InChIKey": null,
        "Canonical SMILES": "O(C1=CC=C(C=C1)C=CC=2C=CC=CC2)C",
        "Molecular Formula": "C<sub>15</sub>H<sub>14</sub>O",
        "Molecular Mass": "210.27",
        "Melting Point": "132 °C"
    }
}