{
    "cas_no": "5461-06-3",
    "key_name": "Isobutyl octanoate",
    "cn_name": "正辛酸异丁酯;2-甲基丙醇辛酸酯;辛酸异丁酯;",
    "alternate_name": "Octanoic acid, 2-methylpropyl ester;Octanoic acid, isobutyl ester;Isobutyl caprylate;Isobutyl octanoate;NSC 23943;2-Methylpropyl octanoate",
    "duplicated_cas_no": "",
    "SMILES": "C(OCC(C)C)(CCCCCCC)=O",
    "meta_data": {
        "InChI": "InChI=1S/C12H24O2/c1-4-5-6-7-8-9-12(13)14-10-11(2)3/h11H,4-10H2,1-3H3",
        "InChIKey": null,
        "Canonical SMILES": "O=C(OCC(C)C)CCCCCCC",
        "Molecular Formula": "C<sub>12</sub>H<sub>24</sub>O<sub>2</sub>",
        "Molecular Mass": "200.32",
        "Melting Point": "94-96 °C"
    }
}