{
    "cas_no": "66711-21-5",
    "key_name": "Apraclonidine",
    "cn_name": "阿可乐定;2-((4-氨基-2,6-二氯苯基)亚氨基)咪唑烷;",
    "alternate_name": "1,4-Benzenediamine, 2,6-dichloro-<em>N</em><sup>1</sup>-(4,5-dihydro-1<em>H</em>-imidazol-2-yl)-;2,6-Dichloro-<em>N</em><sup>1</sup>-(4,5-dihydro-1<em>H</em>-imidazol-2-yl)-1,4-benzenediamine;<em>p</em>-Aminoclonidine;NC 14;Apraclonidine;Aplonidine;2-(4-Amino-2,6-dichlorophenylamino)-2-imidazoline;Lopidine;2,6-Dichloro-N1-(4,5-dihydro-1<em>H</em>-imidazol-2-yl)benzene-1,4-diamine;2,6-Dichloro-N1-(2-imidazolidinylidene)-1,4-benzenediamine",
    "duplicated_cas_no": "78693-46-6",
    "SMILES": "N(C1=C(Cl)C=C(N)C=C1Cl)C=2NCCN2",
    "meta_data": {
        "InChI": "InChI=1S/C9H10Cl2N4/c10-6-3-5(12)4-7(11)8(6)15-9-13-1-2-14-9/h3-4H,1-2,12H2,(H2,13,14,15)",
        "InChIKey": null,
        "Canonical SMILES": "ClC=1C=C(N)C=C(Cl)C1NC2=NCCN2",
        "Molecular Formula": "C<sub>9</sub>H<sub>10</sub>Cl<sub>2</sub>N<sub>4</sub>",
        "Molecular Mass": "245.11",
        "Melting Point": "&gt;230 °C"
    }
}