{
    "cas_no": "186028-80-8",
    "key_name": "Methylone hydrochloride",
    "cn_name": null,
    "alternate_name": "1-Propanone, 1-(1,3-benzodioxol-5-yl)-2-(methylamino)-, hydrochloride (1:1);1-Propanone, 1-(1,3-benzodioxol-5-yl)-2-(methylamino)-, hydrochloride;Methylone hydrochloride;1-Benzo[1,3]dioxol-5-yl-2-methylamino-propan-1-one hydrochloride;3,4-Methylenedioxymethcathinone hydrochloride",
    "duplicated_cas_no": "",
    "SMILES": "C(C(NC)C)(=O)C=1C=C2C(=CC1)OCO2.Cl",
    "meta_data": {
        "InChI": "InChI=1S/C11H13NO3.ClH/c1-7(12-2)11(13)8-3-4-9-10(5-8)15-6-14-9;/h3-5,7,12H,6H2,1-2H3;1H",
        "InChIKey": null,
        "Canonical SMILES": "Cl.O=C(C1=CC=C2OCOC2=C1)C(NC)C",
        "Molecular Formula": "C<sub>11</sub>H<sub>13</sub>NO<sub>3</sub>.ClH",
        "Molecular Mass": "",
        "Melting Point": "225-227 °C (decomp)"
    }
}