{
    "cas_no": "3846-73-9",
    "key_name": "4-Methyl-8-hydroxyquinoline",
    "cn_name": "4-甲基-8-羟基喹啉;",
    "alternate_name": "8-Quinolinol, 4-methyl-;4-Methyl-8-quinolinol;8-Hydroxylepidine;4-Methyl-8-hydroxyquinoline;8-Hydroxy-4-methylquinoline;NSC 402584",
    "duplicated_cas_no": "",
    "SMILES": "CC=1C2=C(C(O)=CC=C2)N=CC1",
    "meta_data": {
        "InChI": "InChI=1S/C10H9NO/c1-7-5-6-11-10-8(7)3-2-4-9(10)12/h2-6,12H,1H3",
        "InChIKey": null,
        "Canonical SMILES": "OC1=CC=CC=2C1=NC=CC2C",
        "Molecular Formula": "C<sub>10</sub>H<sub>9</sub>NO",
        "Molecular Mass": "159.18",
        "Melting Point": "141 °C"
    }
}