{
    "cas_no": "1445-79-0",
    "key_name": "Trimethylgallium",
    "cn_name": null,
    "alternate_name": "Gallium, trimethyl-;Trimethylgallium;Trimethylgallane;Trimethyl gallium ((CH<sub>3</sub>)<sub>3</sub>Ga);Trimethyl gallium",
    "duplicated_cas_no": "75325-77-8",
    "SMILES": "[Ga](C)(C)C",
    "meta_data": {
        "InChI": "InChI=1S/3CH3.Ga/h3*1H3;",
        "InChIKey": null,
        "Canonical SMILES": "[Ga](C)(C)C",
        "Molecular Formula": "C<sub>3</sub>H<sub>9</sub>Ga",
        "Molecular Mass": "",
        "Boiling Point": "55.7 °C @ Press: 762 Torr",
        "Melting Point": "-19 °C",
        "Density": "1.151 g/cm³ @ Temp: 15 °C"
    }
}