{
    "cas_no": "477-32-7",
    "key_name": "Visnadine",
    "cn_name": "维司那定;",
    "alternate_name": "Butanoic acid, 2-methyl-, (9<em>R</em>,10<em>R</em>)-10-(acetyloxy)-9,10-dihydro-8,8-dimethyl-2-oxo-2<em>H</em>,8<em>H</em>-benzo[1,2-<em>b</em>:3,4-<em>b</em>′]dipyran-9-yl ester, (2<em>R</em>)-;Visnadin;Butanoic acid, 2-methyl-, 10-(acetyloxy)-9,10-dihydro-8,8-dimethyl-2-oxo-2<em>H</em>,8<em>H</em>-benzo[1,2-<em>b</em>:3,4-<em>b</em>′]dipyran-9-yl ester, [9<em>R</em>-[9α(<em>R</em>*),10α]]-;Butyric acid, 2-methyl-, 9-ester with 9,10-dihydro-9,10-dihydroxy-8,8-dimethyl-2<em>H</em>,8<em>H</em>-benzo[1,2-<em>b</em>:3,4-<em>b</em>′]dipyran-2-one acetate;2<em>H</em>,8<em>H</em>-Benzo[1,2-<em>b</em>:3,4-<em>b</em>′]dipyran, butanoic acid deriv.;3-(α-Methylbutyryloxy)-4-acetoxy-3,4-dihydroseseline;3,4,5-Trihydroxy-2,2-dimethyl-6-chromanacrylic acid δ-lactone 4-acetate 3-(2-methylbutyrate);Visnadine;Carduben;Cardine;Provismine (A);Vibeline;Visgan;Visnacorin;Visnamine",
    "duplicated_cas_no": "24157-96-8",
    "SMILES": "O(C(C)=O)[C@@H]1C=2C3=C(C=CC2OC(C)(C)[C@@H]1OC([C@@H](CC)C)=O)C=CC(=O)O3",
    "meta_data": {
        "InChI": "InChI=1S/C21H24O7/c1-6-11(2)20(24)27-19-18(25-12(3)22)16-14(28-21(19,4)5)9-7-13-8-10-15(23)26-17(13)16/h7-11,18-19H,6H2,1-5H3/t11-,18-,19-/m1/s1",
        "InChIKey": null,
        "Canonical SMILES": "O=C1OC2=C(C=C1)C=CC=3OC(C)(C)C(OC(=O)C(C)CC)C(OC(=O)C)C32",
        "Molecular Formula": "C<sub>21</sub>H<sub>24</sub>O<sub>7</sub>",
        "Molecular Mass": "388.41",
        "Melting Point": "85-88 °C"
    }
}