{
    "cas_no": "1303-36-2",
    "key_name": "Arsenic selenide (As<sub>2</sub>Se<sub>3</sub>)",
    "cn_name": "硒化砷;",
    "alternate_name": "Arsenic selenide (As<sub>2</sub>Se<sub>3</sub>);Arsenic sesquiselenide;Arsenic sesquiselenide (As<sub>2</sub>Se<sub>3</sub>);Arsenous selenide;Diarsenic triselenide;Arsenic triselenide;Diarsenic triselenide (As<sub>2</sub>Se<sub>3</sub>);Arsenic selenide (AsSe<sub>1.5</sub>);Arsenic selenide (As<sub>0.4</sub>Se<sub>0.6</sub>);Arsenic selenide (As<sub>40</sub>Se<sub>60</sub>)",
    "duplicated_cas_no": "113228-99-2",
    "SMILES": "",
    "meta_data": {
        "InChI": "",
        "InChIKey": null,
        "Canonical SMILES": "",
        "Molecular Formula": "As<sub>2</sub>Se<sub>3</sub>",
        "Molecular Mass": "",
        "Melting Point": "260 °C",
        "Density": "4.62 g/cm³"
    }
}