{
    "uri": "substance/pt/1303362",
    "rn": "1303-36-2",
    "name": "Arsenic selenide (As<sub>2</sub>Se<sub>3</sub>)",
    "images": [],
    "inchi": "",
    "inchiKey": "",
    "smile": "",
    "canonicalSmile": "",
    "molecularFormula": "As<sub>2</sub>Se<sub>3</sub>",
    "molecularMass": "",
    "experimentalProperties": [
        {
            "name": "Melting Point",
            "property": "260 °C",
            "sourceNumber": 1
        },
        {
            "name": "Density",
            "property": "4.62 g/cm³",
            "sourceNumber": 2
        }
    ],
    "propertyCitations": [
        {
            "docUri": "",
            "sourceNumber": 1,
            "source": "PhysProp data were obtained from Syracuse Research Corporation of Syracuse, New York (US)"
        },
        {
            "docUri": "document/pt/document/26129869",
            "sourceNumber": 2,
            "source": "Shpak, I. I.; Zhurnal Fizichnikh Doslidzhen, (2003), 7(1), 114-117, CAplus"
        }
    ],
    "synonyms": [
        "Arsenic selenide (As<sub>2</sub>Se<sub>3</sub>)",
        "Arsenic sesquiselenide",
        "Arsenic sesquiselenide (As<sub>2</sub>Se<sub>3</sub>)",
        "Arsenous selenide",
        "Diarsenic triselenide",
        "Arsenic triselenide",
        "Diarsenic triselenide (As<sub>2</sub>Se<sub>3</sub>)",
        "Arsenic selenide (AsSe<sub>1.5</sub>)",
        "Arsenic selenide (As<sub>0.4</sub>Se<sub>0.6</sub>)",
        "Arsenic selenide (As<sub>40</sub>Se<sub>60</sub>)"
    ],
    "replacedRns": [
        "113228-99-2"
    ],
    "hasMolfile": false,
    "source": "https://commonchemistry.cas.org/detail?cas_rn=1303-36-2"
}