{
    "cas_no": "12057-24-8",
    "key_name": "Lithium oxide",
    "cn_name": null,
    "alternate_name": "Lithium oxide (Li<sub>2</sub>O);Dilithium oxide;Lithia;Dilithium monoxide;Lithium oxide;Lithium oxide (LiO<sub>0.5</sub>)",
    "duplicated_cas_no": "37382-39-1;216588-67-9;1492921-12-6;1629221-45-9;1892568-30-7;2567699-95-8",
    "SMILES": "O([Li])[Li]",
    "meta_data": {
        "InChI": "InChI=1S/2Li.O",
        "InChIKey": null,
        "Canonical SMILES": "[Li]O[Li]",
        "Molecular Formula": "Li<sub>2</sub>O",
        "Molecular Mass": "",
        "Melting Point": "&gt;1600 °C",
        "Density": "2.01 g/cm³"
    }
}