{
    "cas_no": "3964-18-9",
    "key_name": "2,3-Dimethyl-2,3-dinitrobutane",
    "cn_name": "2,3-二甲基-2,3-二硝基丁烷;",
    "alternate_name": "Butane, 2,3-dimethyl-2,3-dinitro-;2,3-Dimethyl-2,3-dinitrobutane;2,3-Dinitro-2,3-dimethylbutane;NSC 1156",
    "duplicated_cas_no": "",
    "SMILES": "C(C(N(=O)=O)(C)C)(N(=O)=O)(C)C",
    "meta_data": {
        "InChI": "InChI=1S/C6H12N2O4/c1-5(2,7(9)10)6(3,4)8(11)12/h1-4H3",
        "InChIKey": null,
        "Canonical SMILES": "O=N(=O)C(C)(C)C(N(=O)=O)(C)C",
        "Molecular Formula": "C<sub>6</sub>H<sub>12</sub>N<sub>2</sub>O<sub>4</sub>",
        "Molecular Mass": "176.17",
        "Melting Point": "208.4-209 °C",
        "Density": "1.352 g/cm³ (solid)"
    }
}