{
    "cas_no": "39856-57-0",
    "key_name": "2,6-Dibromo-3-pyridinamine",
    "cn_name": "2,6-二溴-3-氨基吡啶;3-氨基-2,6-二溴吡啶;",
    "alternate_name": "3-Pyridinamine, 2,6-dibromo-;2,6-Dibromo-3-pyridinamine;3-Amino-2,6-dibromopyridine;2,6-dibromo-3-pyridinamine",
    "duplicated_cas_no": "",
    "SMILES": "BrC1=C(N)C=CC(Br)=N1",
    "meta_data": {
        "InChI": "InChI=1S/C5H4Br2N2/c6-4-2-1-3(8)5(7)9-4/h1-2H,8H2",
        "InChIKey": null,
        "Canonical SMILES": "BrC=1N=C(Br)C(N)=CC1",
        "Molecular Formula": "C<sub>5</sub>H<sub>4</sub>Br<sub>2</sub>N<sub>2</sub>",
        "Molecular Mass": "251.91",
        "Melting Point": "142 °C"
    }
}