{
    "cas_no": "89795-51-7",
    "key_name": "2,1,3-Benzothiadiazole-5-methanol",
    "cn_name": "2,1,3-苯并噻二唑-5-甲醇;",
    "alternate_name": "2,1,3-Benzothiadiazole-5-methanol;2,1,3-Benzothiadiazol-5-ylmethanol",
    "duplicated_cas_no": "",
    "SMILES": "C(O)C1=CC=2C(C=C1)=NSN2",
    "meta_data": {
        "InChI": "InChI=1S/C7H6N2OS/c10-4-5-1-2-6-7(3-5)9-11-8-6/h1-3,10H,4H2",
        "InChIKey": null,
        "Canonical SMILES": "OCC=1C=CC2=NSN=C2C1",
        "Molecular Formula": "C<sub>7</sub>H<sub>6</sub>N<sub>2</sub>OS",
        "Molecular Mass": "166.20",
        "Melting Point": "53-54 °C"
    }
}