{
    "cas_no": "1486-70-0",
    "key_name": "3-<em>O</em>-Methylquercetin",
    "cn_name": null,
    "alternate_name": "4<em>H</em>-1-Benzopyran-4-one, 2-(3,4-dihydroxyphenyl)-5,7-dihydroxy-3-methoxy-;Flavone, 3′,4′,5,7-tetrahydroxy-3-methoxy-;2-(3,4-Dihydroxyphenyl)-5,7-dihydroxy-3-methoxy-4<em>H</em>-1-benzopyran-4-one;3-Methylquercetin;3′,4′,5,7-Tetrahydroxy-3-methoxyflavone;3-<em>O</em>-Methylquercetin;Quercetin 3-methyl ether;3-Methylquercetol;Quercetin-3-<em>O</em>-methyl ether;Quercetin 3-monomethyl ether;5,7,3′,4′-Tetrahydroxy-3-methoxyflavone;NSC 154016;3-Methoxy-3′,4′,5,7-tetrahydroxyflavone;3-Methoxy-5,7,3′,4′-tetrahydroxyflavone;3-Methoxyluteolin;2-(3,4-Dihydroxyphenyl)-5,7-dihydroxy-3-methoxychromen-4-one;2-(3,4-Dihydroxyphenyl)-5,7-dihydroxy-3-methoxy-4<em>H</em>-chromen-4-one",
    "duplicated_cas_no": "",
    "SMILES": "O(C)C1=C(OC=2C(C1=O)=C(O)C=C(O)C2)C3=CC(O)=C(O)C=C3",
    "meta_data": {
        "InChI": "InChI=1S/C16H12O7/c1-22-16-14(21)13-11(20)5-8(17)6-12(13)23-15(16)7-2-3-9(18)10(19)4-7/h2-6,17-20H,1H3",
        "InChIKey": null,
        "Canonical SMILES": "O=C1C(OC)=C(OC=2C=C(O)C=C(O)C12)C=3C=CC(O)=C(O)C3",
        "Molecular Formula": "C<sub>16</sub>H<sub>12</sub>O<sub>7</sub>",
        "Molecular Mass": "316.26",
        "Melting Point": "275 °C"
    }
}