{
    "cas_no": "579-43-1",
    "key_name": "<em>rel</em>-(1<em>R</em>,2<em>S</em>)-1,2-Diphenyl-1,2-ethanediol",
    "cn_name": "内消旋-1,2-二苯基-1,2-乙二醇;间氢化苯偶姻;",
    "alternate_name": "1,2-Ethanediol, 1,2-diphenyl-, (1<em>R</em>,2<em>S</em>)-<em>rel</em>-;1,2-Ethanediol, 1,2-diphenyl-, <em>meso</em>-;1,2-Ethanediol, 1,2-diphenyl-, (<em>R</em>*,<em>S</em>*)-;<em>rel</em>-(1<em>R</em>,2<em>S</em>)-1,2-Diphenyl-1,2-ethanediol;<em>meso</em>-1,2-Diphenylethylene glycol;<em>meso</em>-Hydrobenzoin;<em>meso</em>-1,2-Diphenyl-1,2-ethanediol;<em>meso</em>-Stilbene glycol;Hydrobenzoin, <em>meso</em>-;<em>erythro</em>-1,2-Diphenylethane-1,2-diol;<em>erythro</em>-Hydrobenzoin;NSC 133570;<em>cis</em>-1,2-Diphenyl-1,2-ethanediol;(<em>R</em>,<em>S</em>)-Dihydrobenzoin;(1<em>R</em>,2<em>S</em>)-1,2-Diphenyl-1,2-ethanediol;<em>trans</em>-1,2-Diphenylethane-1,2-diol",
    "duplicated_cas_no": "543681-34-1;1462855-86-2",
    "SMILES": "[C@H]([C@H](O)C1=CC=CC=C1)(O)C2=CC=CC=C2",
    "meta_data": {
        "InChI": "InChI=1/C14H14O2/c15-13(11-7-3-1-4-8-11)14(16)12-9-5-2-6-10-12/h1-10,13-16H/t13-,14+",
        "InChIKey": null,
        "Canonical SMILES": "OC(C=1C=CC=CC1)C(O)C=2C=CC=CC2",
        "Molecular Formula": "C<sub>14</sub>H<sub>14</sub>O<sub>2</sub>",
        "Molecular Mass": "214.26",
        "Melting Point": "138 °C"
    }
}