{
    "cas_no": "108-64-5",
    "key_name": "Ethyl isovalerate",
    "cn_name": "异戊酸乙酯;",
    "alternate_name": "Butanoic acid, 3-methyl-, ethyl ester;Isovaleric acid, ethyl ester;Ethyl isovalerate;Ethyl 3-methylbutyrate;Ethyl 3-methylbutanoate;Ethyl isopentanoate;3-Methylbutyric acid ethyl ester;Isopentanoic acid ethyl ester;3-Methylbutanoic acid ethyl ester;NSC 8869",
    "duplicated_cas_no": "117442-70-3",
    "SMILES": "C(C(OCC)=O)C(C)C",
    "meta_data": {
        "InChI": "InChI=1S/C7H14O2/c1-4-9-7(8)5-6(2)3/h6H,4-5H2,1-3H3",
        "InChIKey": null,
        "Canonical SMILES": "O=C(OCC)CC(C)C",
        "Molecular Formula": "C<sub>7</sub>H<sub>14</sub>O<sub>2</sub>",
        "Molecular Mass": "130.18",
        "Boiling Point": "135 °C",
        "Melting Point": "-99.3 °C",
        "Density": "0.88540 g/cm³ @ Temp: 0 °C"
    }
}