{
    "cas_no": "124-63-0",
    "key_name": "Methanesulfonyl chloride",
    "cn_name": "甲基磺酰氯;",
    "alternate_name": "Methanesulfonyl chloride;Methanesulfonic acid chloride;Methylsulfonyl chloride;Chloro methyl sulfone;Mesyl chloride;Methyl sulfochloride;NSC 15039;Methanesulfochloride;MsCl",
    "duplicated_cas_no": "2101638-66-6",
    "SMILES": "S(C)(Cl)(=O)=O",
    "meta_data": {
        "InChI": "InChI=1S/CH3ClO2S/c1-5(2,3)4/h1H3",
        "InChIKey": null,
        "Canonical SMILES": "O=S(=O)(Cl)C",
        "Molecular Formula": "CH<sub>3</sub>ClO<sub>2</sub>S",
        "Molecular Mass": "114.55",
        "Boiling Point": "62 °C @ Press: 18 Torr",
        "Melting Point": "-32 °C",
        "Density": "1.4805 g/cm³ @ Temp: 18 °C"
    }
}