{
    "cas_no": "90139-06-3",
    "key_name": "Cilazaprilat",
    "cn_name": null,
    "alternate_name": "6<em>H</em>-Pyridazino[1,2-<em>a</em>][1,2]diazepine-1-carboxylic acid, 9-[[(1<em>S</em>)-1-carboxy-3-phenylpropyl]amino]octahydro-10-oxo-, (1<em>S</em>,9<em>S</em>)-;6<em>H</em>-Pyridazino[1,2-<em>a</em>][1,2]diazepine-1-carboxylic acid, 9-[(1-carboxy-3-phenylpropyl)amino]octahydro-10-oxo-, [1<em>S</em>-[1α,9α(<em>R</em>*)]]-;(1<em>S</em>,9<em>S</em>)-9-[[(1<em>S</em>)-1-Carboxy-3-phenylpropyl]amino]octahydro-10-oxo-6<em>H</em>-pyridazino[1,2-<em>a</em>][1,2]diazepine-1-carboxylic acid;Ro 31-3113;Cilazaprilat",
    "duplicated_cas_no": "",
    "SMILES": "C(O)(=O)[C@H]1N2N(CCC1)CCC[C@H](N[C@@H](CCC3=CC=CC=C3)C(O)=O)C2=O",
    "meta_data": {
        "InChI": "InChI=1S/C20H27N3O5/c24-18-15(8-4-12-22-13-5-9-17(20(27)28)23(18)22)21-16(19(25)26)11-10-14-6-2-1-3-7-14/h1-3,6-7,15-17,21H,4-5,8-13H2,(H,25,26)(H,27,28)/t15-,16-,17-/m0/s1",
        "InChIKey": null,
        "Canonical SMILES": "O=C(O)C(NC1C(=O)N2N(CCC1)CCCC2C(=O)O)CCC=3C=CC=CC3",
        "Molecular Formula": "C<sub>20</sub>H<sub>27</sub>N<sub>3</sub>O<sub>5</sub>",
        "Molecular Mass": "389.45",
        "Melting Point": "242 °C"
    }
}