{
    "cas_no": "24730-10-7",
    "key_name": "Dihydroergocristine methanesulfonate",
    "cn_name": null,
    "alternate_name": "Ergotaman-3′,6′,18-trione, 9,10-dihydro-12′-hydroxy-2′-(1-methylethyl)-5′-(phenylmethyl)-, (5′α,10α)-, methanesulfonate (1:1);Ergocristine, 9,10-dihydro-, monomethanesulfonate (salt);Ergotaman-3′,6′,18-trione, 9,10-dihydro-12′-hydroxy-2′-(1-methylethyl)-5′-(phenylmethyl)-, (5′α,10α)-, monomethanesulfonate (salt);Ergocristine, dihydro-, methanesulfonate;Dihydroergocristine methanesulfonate;Dihydroergocristine mesylate;9,10-Dihydroergocristine methanesulfonate;GNF Pf 3462",
    "duplicated_cas_no": "22288-21-7;25377-54-2;27400-83-5;29261-92-5",
    "SMILES": "O[C@@]12N([C@@H](CC3=CC=CC=C3)C(=O)N4[C@]1(CCC4)[H])C(=O)[C@@](NC(=O)[C@@H]5C[C@@]6(C=7C=8C(C[C@]6(N(C)C5)[H])=CNC8C=CC7)[H])(C(C)C)O2.S(C)(=O)(=O)O",
    "meta_data": {
        "InChI": "InChI=1S/C35H41N5O5.CH4O3S/c1-20(2)34(37-31(41)23-16-25-24-11-7-12-26-30(24)22(18-36-26)17-27(25)38(3)19-23)33(43)40-28(15-21-9-5-4-6-10-21)32(42)39-14-8-13-29(39)35(40,44)45-34;1-5(2,3)4/h4-7,9-12,18,20,23,25,27-29,36,44H,8,13-17,19H2,1-3H3,(H,37,41);1H3,(H,2,3,4)/t23-,25-,27-,28+,29+,34-,35+;/m1./s1",
        "InChIKey": null,
        "Canonical SMILES": "O=C(NC1(OC2(O)N(C1=O)C(C(=O)N3CCCC32)CC=4C=CC=CC4)C(C)C)C5CN(C)C6CC7=CNC8=CC=CC(=C87)C6C5.O=S(=O)(O)C",
        "Molecular Formula": "C<sub>35</sub>H<sub>41</sub>N<sub>5</sub>O<sub>5</sub>.CH<sub>4</sub>O<sub>3</sub>S",
        "Molecular Mass": "",
        "Melting Point": "210 °C"
    }
}