{
    "cas_no": "498-63-5",
    "key_name": "Prolinol",
    "cn_name": "吡咯烷-2-甲醇;",
    "alternate_name": "2-Pyrrolidinemethanol;Prolinol;2-Hydroxymethylpyrrolidine;<span class=\"text-smallcaps\">DL</span>-Prolinol;NSC 367102;Pyrrolidin-2-ylmethanol",
    "duplicated_cas_no": "10200-26-7;95650-43-4",
    "SMILES": "C(O)C1CCCN1",
    "meta_data": {
        "InChI": "InChI=1S/C5H11NO/c7-4-5-2-1-3-6-5/h5-7H,1-4H2",
        "InChIKey": null,
        "Canonical SMILES": "OCC1NCCC1",
        "Molecular Formula": "C<sub>5</sub>H<sub>11</sub>NO",
        "Molecular Mass": "101.15",
        "Boiling Point": "148-153 °C @ Press: 12 Torr"
    }
}