{
    "cas_no": "144034-80-0",
    "key_name": "Rizatriptan",
    "cn_name": "利扎曲坦;N,N-二甲基-5-(1H-1,2,4-三氮唑-1-基甲基)-1H-吲哚-3-基乙胺;",
    "alternate_name": "1<em>H</em>-Indole-3-ethanamine, <em>N</em>,<em>N</em>-dimethyl-5-(1<em>H</em>-1,2,4-triazol-1-ylmethyl)-;<em>N</em>,<em>N</em>-Dimethyl-5-(1<em>H</em>-1,2,4-triazol-1-ylmethyl)-1<em>H</em>-indole-3-ethanamine;MK 462 free base;Rizatriptan;Risatriptan;<em>N</em>,<em>N</em>-Dimethyl-2-[5-(1<em>H</em>-1,2,4-triazol-1-ylmethyl)-1<em>H</em>-indol-3-yl]ethylamine;3-[2-(Dimethylamino)ethyl]-5-(1<em>H</em>-1,2,4-triazol-1-ylmethyl)indole;2-(5-((1<em>H</em>-1,2,4-Triazol-1-yl)methyl)-1<em>H</em>-indol-3-yl)-<em>N</em>,<em>N</em>-dimethylethanamine",
    "duplicated_cas_no": "174662-68-1",
    "SMILES": "C(CN(C)C)C=1C=2C(NC1)=CC=C(CN3C=NC=N3)C2",
    "meta_data": {
        "InChI": "InChI=1S/C15H19N5/c1-19(2)6-5-13-8-17-15-4-3-12(7-14(13)15)9-20-11-16-10-18-20/h3-4,7-8,10-11,17H,5-6,9H2,1-2H3",
        "InChIKey": null,
        "Canonical SMILES": "N=1C=NN(C1)CC=2C=CC=3NC=C(C3C2)CCN(C)C",
        "Molecular Formula": "C<sub>15</sub>H<sub>19</sub>N<sub>5</sub>",
        "Molecular Mass": "269.34",
        "Melting Point": "122-124 °C"
    }
}