{
    "cas_no": "54256-43-8",
    "key_name": "4-Decylbenzoyl chloride",
    "cn_name": "4-正癸基苯甲酰氯;",
    "alternate_name": "Benzoyl chloride, 4-decyl-;4-Decylbenzoyl chloride;<em>p</em>-Decylbenzoyl chloride",
    "duplicated_cas_no": "",
    "SMILES": "C(CCCCCCCCC)C1=CC=C(C(Cl)=O)C=C1",
    "meta_data": {
        "InChI": "InChI=1S/C17H25ClO/c1-2-3-4-5-6-7-8-9-10-15-11-13-16(14-12-15)17(18)19/h11-14H,2-10H2,1H3",
        "InChIKey": null,
        "Canonical SMILES": "O=C(Cl)C1=CC=C(C=C1)CCCCCCCCCC",
        "Molecular Formula": "C<sub>17</sub>H<sub>25</sub>ClO",
        "Molecular Mass": "280.83",
        "Boiling Point": "169 °C @ Press: 0.6 Torr"
    }
}