{
    "cas_no": "191-68-4",
    "key_name": "Dibenzo[<em>g</em>,<em>p</em>]chrysene",
    "cn_name": null,
    "alternate_name": "Dibenzo[<em>g</em>,<em>p</em>]chrysene;Tetrabenzonaphthalene;Dibenzo[<em>a</em>,<em>c</em>]triphenylene;1,2,3,4,5,6,7,8-Tetrabenzonaphthalene;Tetrabenzo[<em>a</em>,<em>c</em>,<em>f</em>,<em>h</em>]naphthalene;NSC 30878;NSC 90781;1,2,7,8-Dibenzochrysene",
    "duplicated_cas_no": "",
    "SMILES": "C12=C(C=3C(C=4C1=CC=CC4)=CC=CC3)C=5C(C=6C2=CC=CC6)=CC=CC5",
    "meta_data": {
        "InChI": "InChI=1S/C26H16/c1-5-13-21-17(9-1)18-10-2-6-14-22(18)26-24-16-8-4-12-20(24)19-11-3-7-15-23(19)25(21)26/h1-16H",
        "InChIKey": null,
        "Canonical SMILES": "C=1C=CC2=C(C1)C=3C=CC=CC3C=4C=5C=CC=CC5C=6C=CC=CC6C24",
        "Molecular Formula": "C<sub>26</sub>H<sub>16</sub>",
        "Molecular Mass": "328.41",
        "Melting Point": "218 °C"
    }
}