{
    "cas_no": "3251-69-2",
    "key_name": "1<em>H</em>-Imidazole-5-acetic acid, hydrochloride (1:1)",
    "cn_name": "咪唑-4-乙酸盐酸盐;4-咪唑乙酸盐酸盐;",
    "alternate_name": "1<em>H</em>-Imidazole-5-acetic acid, hydrochloride (1:1);Imidazole-4-acetic acid, monohydrochloride;Imidazoleacetic acid hydrochloride;1<em>H</em>-Imidazole-4-acetic acid, monohydrochloride;Imidazole-4-acetic acid hydrochloride;1<em>H</em>-Imidazole-4-acetic acid, hydrochloride;Imidazol-4-acetic acid hydrochloride;1<em>H</em>-Imidazole-5-acetic acid hydrochloride;(1<em>H</em>-Imidazol-4-yl)acetic acid hydrochloride;(1<em>H</em>-Imidazol-5-yl)acetic acid hydrochloride;2-(1<em>H</em>-Imidazol-5-yl)acetic acid hydrochloride;2-(1<em>H</em>-Imidazol-4-yl)acetic acid hydrochloride",
    "duplicated_cas_no": "27146-04-9",
    "SMILES": "C(C(O)=O)C1=CN=CN1.Cl",
    "meta_data": {
        "InChI": "InChI=1S/C5H6N2O2.ClH/c8-5(9)1-4-2-6-3-7-4;/h2-3H,1H2,(H,6,7)(H,8,9);1H",
        "InChIKey": null,
        "Canonical SMILES": "Cl.O=C(O)CC1=CN=CN1",
        "Molecular Formula": "C<sub>5</sub>H<sub>6</sub>N<sub>2</sub>O<sub>2</sub>.ClH",
        "Molecular Mass": "",
        "Melting Point": "127 °C"
    }
}