{
    "cas_no": "6280-15-5",
    "key_name": "3-Methylpentanedial",
    "cn_name": "3-甲基戊二醛;3-甲基-1,5-戊二醛;",
    "alternate_name": "Pentanedial, 3-methyl-;Glutaraldehyde, 3-methyl-;3-Methylpentanedial;3-Methylglutaraldehyde;NSC 11063",
    "duplicated_cas_no": "",
    "SMILES": "C(CC=O)(CC=O)C",
    "meta_data": {
        "InChI": "InChI=1S/C6H10O2/c1-6(2-4-7)3-5-8/h4-6H,2-3H2,1H3",
        "InChIKey": null,
        "Canonical SMILES": "O=CCC(C)CC=O",
        "Molecular Formula": "C<sub>6</sub>H<sub>10</sub>O<sub>2</sub>",
        "Molecular Mass": "114.14",
        "Boiling Point": "87-92 °C @ Press: 18 Torr"
    }
}