{
    "cas_no": "3588-57-6",
    "key_name": "<em>N</em>-(Benzyloxycarbonyl)-<span class=\"text-smallcaps\">DL</span>-phenylalanine",
    "cn_name": "N-苄氧羰基-DL-苯丙氨酸;",
    "alternate_name": "Phenylalanine, <em>N</em>-[(phenylmethoxy)carbonyl]-;Alanine, <em>N</em>-carboxy-3-phenyl-, <em>N</em>-benzyl ester, <span class=\"text-smallcaps\">DL</span>-;<em>N</em>-[(Phenylmethoxy)carbonyl]phenylalanine;Carbobenzoxy-<span class=\"text-smallcaps\">DL</span>-phenylalanine;<em>N</em>-(Benzyloxycarbonyl)-<em>dl</em>-phenylalanine;<em>N</em>-(Benzyloxycarbonyl)-<span class=\"text-smallcaps\">DL</span>-phenylalanine;<span class=\"text-smallcaps\">DL</span>-<em>N</em>-(Benzoxycarbonyl)phenylalanine;<em>N</em>-Carbobenzoxy-<span class=\"text-smallcaps\">DL</span>-phenylalanine;<span class=\"text-smallcaps\">DL</span>-(Carbobenzyloxy)phenylalanine;2-((Benzyloxycarbonyl)amino)-3-phenylpropanoic acid;NSC 333486;<span class=\"text-smallcaps\">DL</span>-Cbz phenylalanine;<em>N</em>-(Carbobenzyloxy)-<span class=\"text-smallcaps\">D</smallcap><smallcap>L</span>-phenylalanine;3-Phenyl-2-(phenylmethoxycarbonylamino)propanoic acid",
    "duplicated_cas_no": "95665-56-8;89684-27-5",
    "SMILES": "C(CC1=CC=CC=C1)(NC(OCC2=CC=CC=C2)=O)C(O)=O",
    "meta_data": {
        "InChI": "InChI=1S/C17H17NO4/c19-16(20)15(11-13-7-3-1-4-8-13)18-17(21)22-12-14-9-5-2-6-10-14/h1-10,15H,11-12H2,(H,18,21)(H,19,20)",
        "InChIKey": null,
        "Canonical SMILES": "O=C(O)C(NC(=O)OCC=1C=CC=CC1)CC=2C=CC=CC2",
        "Molecular Formula": "C<sub>17</sub>H<sub>17</sub>NO<sub>4</sub>",
        "Molecular Mass": "299.32",
        "Melting Point": "102-103 °C"
    }
}