{
    "cas_no": "136-77-6",
    "key_name": "Hexylresorcinol",
    "cn_name": "4-己基-1,3-苯二酚;4-己基间苯二酚;",
    "alternate_name": "1,3-Benzenediol, 4-hexyl-;Resorcinol, 4-hexyl-;4-Hexyl-1,3-benzenediol;S.T. 37;Caprokol;Crystoids;Cystoids Anthelmintic;4-Hexyl-1,3-dihydroxybenzene;4-Hexylresorcine;Hexylresorcinol;<em>p</em>-Hexylresorcinol;4-Hexylresorcinol;Sucrets;4-<em>n</em>-Hexylresorcinol;1,3-Dihydroxy-4-hexylbenzene;Adrover;Hidesol;Antascarin;Ascaricid;Oxana;Ascarinol;Prensol;4-(1-Hexyl)resorcinol;1-(2′,4′-Dihydroxyphenyl)hexane;Mycoderm;EverFresh;KOM 14;Worm-Agen;Gelovermin;Ascaryl;NSC 1570;Synovea HR;MeSH ID: D006604",
    "duplicated_cas_no": "",
    "SMILES": "C(CCCCC)C1=C(O)C=C(O)C=C1",
    "meta_data": {
        "InChI": "InChI=1S/C12H18O2/c1-2-3-4-5-6-10-7-8-11(13)9-12(10)14/h7-9,13-14H,2-6H2,1H3",
        "InChIKey": null,
        "Canonical SMILES": "OC1=CC=C(C(O)=C1)CCCCCC",
        "Molecular Formula": "C<sub>12</sub>H<sub>18</sub>O<sub>2</sub>",
        "Molecular Mass": "194.27",
        "Boiling Point": "178-180 °C @ Press: 6.7 Torr",
        "Melting Point": "67.5-69 °C"
    }
}