{
    "cas_no": "697300-73-5",
    "key_name": "3-Bromo-5-iodo-2-pyridinamine",
    "cn_name": null,
    "alternate_name": "2-Pyridinamine, 3-bromo-5-iodo-;3-Bromo-5-iodo-2-pyridinamine;3-Bromo-5-iodopyridin-2-amine;3-Bromo-5-iodo-pyridin-2-ylamine",
    "duplicated_cas_no": "",
    "SMILES": "BrC1=C(N)N=CC(I)=C1",
    "meta_data": {
        "InChI": "InChI=1S/C5H4BrIN2/c6-4-1-3(7)2-9-5(4)8/h1-2H,(H2,8,9)",
        "InChIKey": null,
        "Canonical SMILES": "BrC1=CC(I)=CN=C1N",
        "Molecular Formula": "C<sub>5</sub>H<sub>4</sub>BrIN<sub>2</sub>",
        "Molecular Mass": "298.91",
        "Melting Point": "106-110 °C"
    }
}