{
    "cas_no": "4312-99-6",
    "key_name": "1-Octen-3-one",
    "cn_name": "1-辛烯-3-酮;",
    "alternate_name": "1-Octen-3-one;Vinyl amyl ketone;Pentyl vinyl ketone;Amyl vinyl ketone;<em>n</em>-Amyl vinyl ketone",
    "duplicated_cas_no": "",
    "SMILES": "C(CCCCC)(C=C)=O",
    "meta_data": {
        "InChI": "InChI=1S/C8H14O/c1-3-5-6-7-8(9)4-2/h4H,2-3,5-7H2,1H3",
        "InChIKey": null,
        "Canonical SMILES": "O=C(C=C)CCCCC",
        "Molecular Formula": "C<sub>8</sub>H<sub>14</sub>O",
        "Molecular Mass": "126.20",
        "Boiling Point": "59-60 °C @ Press: 16 Torr",
        "Density": "0.8428 g/cm³ @ Temp: 30 °C"
    }
}