{
    "cas_no": "150-83-4",
    "key_name": "Sodium 3-hydroxybutyrate",
    "cn_name": null,
    "alternate_name": "Butanoic acid, 3-hydroxy-, sodium salt (1:1);Butyric acid, 3-hydroxy-, monosodium salt;Butanoic acid, 3-hydroxy-, monosodium salt;Butyric acid, 3-hydroxy-, sodium salt;Sodium β-hydroxybutyrate;β-Hydroxybutyric acid sodium salt;Sodium 3-hydroxybutyrate;Sodium <em>dl</em>-β-hydroxybutyrate;<span class=\"text-smallcaps\">DL</span>-β-Hydroxybutyric acid sodium salt",
    "duplicated_cas_no": "306-31-0",
    "SMILES": "C(C(C)O)C(O)=O.[Na]",
    "meta_data": {
        "InChI": "InChI=1S/C4H8O3.Na/c1-3(5)2-4(6)7;/h3,5H,2H2,1H3,(H,6,7);",
        "InChIKey": null,
        "Canonical SMILES": "[Na].O=C(O)CC(O)C",
        "Molecular Formula": "C<sub>4</sub>H<sub>8</sub>O<sub>3</sub>.Na",
        "Molecular Mass": "",
        "Melting Point": "160 °C"
    }
}