{
    "cas_no": "1470-99-1",
    "key_name": "<em>rel</em>-(3a<em>R</em>,7a<em>S</em>)-Octahydro-1<em>H</em>-isoindole",
    "cn_name": "顺式全氢异吲哚;",
    "alternate_name": "1<em>H</em>-Isoindole, octahydro-, (3a<em>R</em>,7a<em>S</em>)-<em>rel</em>-;Isoindoline, hexahydro-, <em>cis</em>-;1<em>H</em>-Isoindole, octahydro-, <em>cis</em>-;<em>rel</em>-(3a<em>R</em>,7a<em>S</em>)-Octahydro-1<em>H</em>-isoindole;<em>cis</em>-Octahydroisoindole;<em>cis</em>-Hexahydroisoindoline;<em>cis</em>-Octahydro-2<em>H</em>-isoindole;<em>cis</em>-Octahydro-1<em>H</em>-isoindole",
    "duplicated_cas_no": "",
    "SMILES": "[C@@]12([C@](CNC1)(CCCC2)[H])[H]",
    "meta_data": {
        "InChI": "InChI=1/C8H15N/c1-2-4-8-6-9-5-7(8)3-1/h7-9H,1-6H2/t7-,8+",
        "InChIKey": null,
        "Canonical SMILES": "N1CC2CCCCC2C1",
        "Molecular Formula": "C<sub>8</sub>H<sub>15</sub>N",
        "Molecular Mass": "125.21",
        "Boiling Point": "96 °C @ Press: 30 Torr"
    }
}