{
    "cas_no": "12064-03-8",
    "key_name": "Gallium antimonide",
    "cn_name": "锑化镓;",
    "alternate_name": "Antimony, compd. with gallium (1:1);Gallium antimonide (GaSb);Gallium, compd. with antimony (1:1);Gallium antimonide;Gallium monoantimonide;Gallium antimony (GaSb);Antimony alloy, base, Sb 64,Ga 36;Gallium alloy, nonbase, Sb 64,Ga 36;Antimony 50, gallium 50 (atomic)",
    "duplicated_cas_no": "42611-90-5;50789-88-3",
    "SMILES": "[Ga].[Sb]",
    "meta_data": {
        "InChI": "InChI=1S/Ga.Sb",
        "InChIKey": null,
        "Canonical SMILES": "[Ga].[Sb]",
        "Molecular Formula": "Ga.Sb",
        "Molecular Mass": "",
        "Melting Point": "705 °C",
        "Density": "5.62 g/cm³ (crystal)"
    }
}