{
    "uri": "substance/pt/12064038",
    "rn": "12064-03-8",
    "name": "Gallium antimonide",
    "images": [],
    "inchi": "InChI=1S/Ga.Sb",
    "inchiKey": "InChIKey=VTGARNNDLOTBET-UHFFFAOYSA-N",
    "smile": "[Ga].[Sb]",
    "canonicalSmile": "[Ga].[Sb]",
    "molecularFormula": "Ga.Sb",
    "molecularMass": "",
    "experimentalProperties": [
        {
            "name": "Melting Point",
            "property": "705 °C",
            "sourceNumber": 1
        },
        {
            "name": "Density",
            "property": "5.62 g/cm³ (crystal)",
            "sourceNumber": 2
        }
    ],
    "propertyCitations": [
        {
            "docUri": "document/pt/document/21618703",
            "sourceNumber": 1,
            "source": "Amirkhanov, Kh. I.; Ukrains'kii Fizichnii Zhurnal (Ukrainian Edition), (1967), 12(2), 198-201, CAplus"
        },
        {
            "docUri": "document/pt/document/48612785",
            "sourceNumber": 2,
            "source": "Kuleyev, I. I.; Physica Status Solidi C: Current Topics in Solid State Physics, (2017), 14(3-4), n/a, CAplus"
        }
    ],
    "synonyms": [
        "Antimony, compd. with gallium (1:1)",
        "Gallium antimonide (GaSb)",
        "Gallium, compd. with antimony (1:1)",
        "Gallium antimonide",
        "Gallium monoantimonide",
        "Gallium antimony (GaSb)",
        "Antimony alloy, base, Sb 64,Ga 36",
        "Gallium alloy, nonbase, Sb 64,Ga 36",
        "Antimony 50, gallium 50 (atomic)"
    ],
    "replacedRns": [
        "42611-90-5",
        "50789-88-3"
    ],
    "hasMolfile": true,
    "source": "https://commonchemistry.cas.org/detail?cas_rn=12064-03-8"
}