{
    "cas_no": "408-35-5",
    "key_name": "Sodium palmitate",
    "cn_name": "十六烷酸钠;",
    "alternate_name": "Hexadecanoic acid, sodium salt (1:1);Palmitic acid, sodium salt;Hexadecanoic acid, sodium salt;Sodium palmitate;Sodium pentadecanecarboxylate;Sodium hexadecanoate;C-Lube 16;Nonsoul PN 1;PN 1;C 16-98/100MY, sodium salt;C16 Soap",
    "duplicated_cas_no": "155215-74-0;159258-35-2",
    "SMILES": "C(CCCCCCCCCC)CCCCC(O)=O.[Na]",
    "meta_data": {
        "InChI": "InChI=1S/C16H32O2.Na/c1-2-3-4-5-6-7-8-9-10-11-12-13-14-15-16(17)18;/h2-15H2,1H3,(H,17,18);",
        "InChIKey": null,
        "Canonical SMILES": "[Na].O=C(O)CCCCCCCCCCCCCCC",
        "Molecular Formula": "C<sub>16</sub>H<sub>32</sub>O<sub>2</sub>.Na",
        "Molecular Mass": "",
        "Melting Point": "270 °C"
    }
}