{
    "cas_no": "2436-73-9",
    "key_name": "MCPA methyl ester",
    "cn_name": "4-氯邻甲苯基氧乙酸甲酯;",
    "alternate_name": "Acetic acid, 2-(4-chloro-2-methylphenoxy)-, methyl ester;Acetic acid, [(4-chloro-<em>o</em>-tolyl)oxy]-, methyl ester;Acetic acid, (4-chloro-2-methylphenoxy)-, methyl ester;Methyl 4-chloro-2-methylphenoxyacetate;2-Methyl-4-chlorophenoxyacetic acid methyl ester;MCPA methyl ester;(4-Chloro-2-methylphenoxy)acetic acid methyl ester",
    "duplicated_cas_no": "",
    "SMILES": "O(CC(OC)=O)C1=C(C)C=C(Cl)C=C1",
    "meta_data": {
        "InChI": "InChI=1S/C10H11ClO3/c1-7-5-8(11)3-4-9(7)14-6-10(12)13-2/h3-5H,6H2,1-2H3",
        "InChIKey": null,
        "Canonical SMILES": "O=C(OC)COC1=CC=C(Cl)C=C1C",
        "Molecular Formula": "C<sub>10</sub>H<sub>11</sub>ClO<sub>3</sub>",
        "Molecular Mass": "214.65",
        "Boiling Point": "127 °C @ Press: 7 Torr"
    }
}