{
    "cas_no": "2324-98-3",
    "key_name": "2,3,5,6-Tetrafluoroanisole",
    "cn_name": "2,3,5,6-四氟茴香醚;",
    "alternate_name": "Benzene, 1,2,4,5-tetrafluoro-3-methoxy-;Anisole, 2,3,5,6-tetrafluoro-;1,2,4,5-Tetrafluoro-3-methoxybenzene;2,3,5,6-Tetrafluoroanisole;NSC 96891;3-Methoxy-1,2,4,5-tetrafluorobenzene",
    "duplicated_cas_no": "",
    "SMILES": "O(C)C1=C(F)C(F)=CC(F)=C1F",
    "meta_data": {
        "InChI": "InChI=1S/C7H4F4O/c1-12-7-5(10)3(8)2-4(9)6(7)11/h2H,1H3",
        "InChIKey": null,
        "Canonical SMILES": "FC=1C=C(F)C(F)=C(OC)C1F",
        "Molecular Formula": "C<sub>7</sub>H<sub>4</sub>F<sub>4</sub>O",
        "Molecular Mass": "180.10",
        "Boiling Point": "138 °C"
    }
}