{
    "cas_no": "346656-42-6",
    "key_name": "2-(2-Chlorophenyl)-5,5-dimethyl-1,3,2-dioxaborinane",
    "cn_name": "2-(2-氯苯基)-5,5-二甲基-1,3,2-二氧硼杂环己烷;",
    "alternate_name": "1,3,2-Dioxaborinane, 2-(2-chlorophenyl)-5,5-dimethyl-;2-(2-Chlorophenyl)-5,5-dimethyl-1,3,2-dioxaborinane",
    "duplicated_cas_no": "",
    "SMILES": "ClC1=C(C=CC=C1)B2OCC(C)(C)CO2",
    "meta_data": {
        "InChI": "InChI=1S/C11H14BClO2/c1-11(2)7-14-12(15-8-11)9-5-3-4-6-10(9)13/h3-6H,7-8H2,1-2H3",
        "InChIKey": null,
        "Canonical SMILES": "ClC=1C=CC=CC1B2OCC(C)(C)CO2",
        "Molecular Formula": "C<sub>11</sub>H<sub>14</sub>BClO<sub>2</sub>",
        "Molecular Mass": "224.49",
        "Melting Point": "33-35 °C"
    }
}