{
    "cas_no": "82571-53-7",
    "key_name": "Ozagrel",
    "cn_name": "奥扎格雷;反式-3-[4-(1H-咪唑-1-基甲基)苯基]-2-丙烯酸;",
    "alternate_name": "2-Propenoic acid, 3-[4-(1<em>H</em>-imidazol-1-ylmethyl)phenyl]-, (2<em>E</em>)-;2-Propenoic acid, 3-[4-(1<em>H</em>-imidazol-1-ylmethyl)phenyl]-, (<em>E</em>)-;(2<em>E</em>)-3-[4-(1<em>H</em>-Imidazol-1-ylmethyl)phenyl]-2-propenoic acid;Ozagrel;(E)-4-(1-Imidazoylmethyl)cinnamic acid",
    "duplicated_cas_no": "",
    "SMILES": "C(C1=CC=C(/C=C/C(O)=O)C=C1)N2C=CN=C2",
    "meta_data": {
        "InChI": "InChI=1S/C13H12N2O2/c16-13(17)6-5-11-1-3-12(4-2-11)9-15-8-7-14-10-15/h1-8,10H,9H2,(H,16,17)/b6-5+",
        "InChIKey": null,
        "Canonical SMILES": "O=C(O)C=CC1=CC=C(C=C1)CN2C=NC=C2",
        "Molecular Formula": "C<sub>13</sub>H<sub>12</sub>N<sub>2</sub>O<sub>2</sub>",
        "Molecular Mass": "228.25",
        "Melting Point": "223-224 °C"
    }
}