{
    "cas_no": "29027-17-6",
    "key_name": "2-Chloro-3-methylbenzenamine",
    "cn_name": null,
    "alternate_name": "Benzenamine, 2-chloro-3-methyl-;<em>m</em>-Toluidine, 2-chloro-;2-Chloro-3-methylbenzenamine;2-Chloro-3-methylaniline;2-Chloro-3-aminotoluene;(2-Chloro-3-methylphenyl)amine",
    "duplicated_cas_no": "",
    "SMILES": "ClC1=C(C)C=CC=C1N",
    "meta_data": {
        "InChI": "InChI=1S/C7H8ClN/c1-5-3-2-4-6(9)7(5)8/h2-4H,9H2,1H3",
        "InChIKey": null,
        "Canonical SMILES": "ClC=1C(N)=CC=CC1C",
        "Molecular Formula": "C<sub>7</sub>H<sub>8</sub>ClN",
        "Molecular Mass": "141.60",
        "Melting Point": "6.6 °C"
    }
}