{
    "cas_no": "89-78-1",
    "key_name": "(±)-Menthol",
    "cn_name": "薄荷脑;2-异丙基-5-甲基环己醇;薄荷醇;",
    "alternate_name": "Cyclohexanol, 5-methyl-2-(1-methylethyl)-, (1<em>R</em>,2<em>S</em>,5<em>R</em>)-<em>rel</em>-;Menthol, <em>cis</em>-1,3,<em>trans</em>-1,4-;Cyclohexanol, 5-methyl-2-(1-methylethyl)-, (1α,2β,5α)-;Menthol, <em>dl</em>-;<em>rel</em>-(1<em>R</em>,2<em>S</em>,5<em>R</em>)-5-Methyl-2-(1-methylethyl)cyclohexanol;Hexahydrothymol;Menthacamphor;Menthomenthol;Peppermint camphor;Menthol;Racemic menthol;<em>dl</em>-Menthol;(±)-Menthol;Racementhol;<em>rac</em>-Menthol;(1<em>R</em>,2<em>S</em>,5<em>R</em>)-<em>rel</em>-5-Methyl-2-(1-methylethyl)cyclohexanol;Fisherman's Friend Lozenges;Therapeutic Mineral Ice;NSC 2603;Thymomenthol;<span class=\"text-smallcaps\">DL</span>-Menthol;Meggezone;MENTHOL JP COS SP;FT 11;Menthol JP COS",
    "duplicated_cas_no": "15356-70-4",
    "SMILES": "[C@H](C)(C)[C@H]1[C@H](O)C[C@H](C)CC1",
    "meta_data": {
        "InChI": "InChI=1/C10H20O/c1-7(2)9-5-4-8(3)6-10(9)11/h7-11H,4-6H2,1-3H3/t8-,9+,10-/s2",
        "InChIKey": null,
        "Canonical SMILES": "OC1CC(C)CCC1C(C)C",
        "Molecular Formula": "C<sub>10</sub>H<sub>20</sub>O",
        "Molecular Mass": "156.27",
        "Boiling Point": "212 °C",
        "Melting Point": "41-43 °C",
        "Density": "0.890 g/cm³"
    }
}