{
    "cas_no": "504-30-3",
    "key_name": "3(2<em>H</em>)-Pyridazinone",
    "cn_name": "3-哒嗪酮;",
    "alternate_name": "3(2<em>H</em>)-Pyridazinone;3-Pyridazinone;3-Pyridazinol;6-Pyridazinone;3-Hydroxypyridazine;2<em>H</em>-Pyridazin-3-one;NSC 21411;3-Oxo-2,3-dihydropyridazine;2,3-Dihydropyridazin-3-one;1<em>H</em>-Pyridazin-6-one",
    "duplicated_cas_no": "11069-18-4;20744-38-1",
    "SMILES": "O=C1C=CC=NN1",
    "meta_data": {
        "InChI": "InChI=1S/C4H4N2O/c7-4-2-1-3-5-6-4/h1-3H,(H,6,7)",
        "InChIKey": null,
        "Canonical SMILES": "O=C1C=CC=NN1",
        "Molecular Formula": "C<sub>4</sub>H<sub>4</sub>N<sub>2</sub>O",
        "Molecular Mass": "96.09",
        "Boiling Point": "143 °C @ Press: 19 Torr",
        "Melting Point": "103 °C",
        "Density": "1.478 g/cm³"
    }
}