{
    "cas_no": "87818-31-3",
    "key_name": "Cinmethylin",
    "cn_name": "环庚草醚;1-甲基-4-(1-甲基乙基)-2-(2-甲基苯基甲氧基)-7-噁二环[2,2,1]庚烷;",
    "alternate_name": "7-Oxabicyclo[2.2.1]heptane, 1-methyl-4-(1-methylethyl)-2-[(2-methylphenyl)methoxy]-, (1<em>R</em>,2<em>S</em>,4<em>S</em>)-<em>rel</em>-;7-Oxabicyclo[2.2.1]heptane, 1-methyl-4-(1-methylethyl)-2-[(2-methylphenyl)methoxy]-, <em>exo</em>-(±)-;<em>rel</em>-(1<em>R</em>,2<em>S</em>,4<em>S</em>)-1-Methyl-4-(1-methylethyl)-2-[(2-methylphenyl)methoxy]-7-oxabicyclo[2.2.1]heptane;Cinmethylin;Cinch;7-Oxabicyclo[2.2.1]heptane, 1-methyl-4-(1-methylethyl)-2-[(2-methylphenyl)methoxy]-, <em>exo</em>-;SD 95481;(±)-2-<em>exo</em>-(2-Methylbenzyloxy)-1-methyl-4-isopropyl-7-oxabicyclo[2.2.1]heptane;Luxinum Plus;Luxinum",
    "duplicated_cas_no": "89368-00-3",
    "SMILES": "C(C)(C)[C@@]12C[C@@H](OCC3=C(C)C=CC=C3)[C@@](C)(O1)CC2",
    "meta_data": {
        "InChI": "InChI=1/C18H26O2/c1-13(2)18-10-9-17(4,20-18)16(11-18)19-12-15-8-6-5-7-14(15)3/h5-8,13,16H,9-12H2,1-4H3/t16-,17+,18-/s2",
        "InChIKey": null,
        "Canonical SMILES": "O(CC=1C=CC=CC1C)C2CC3(OC2(C)CC3)C(C)C",
        "Molecular Formula": "C<sub>18</sub>H<sub>26</sub>O<sub>2</sub>",
        "Molecular Mass": "274.40",
        "Boiling Point": "313 °C",
        "Melting Point": "&lt;25 °C"
    }
}