{
    "cas_no": "64806-05-9",
    "key_name": "Captopril disulfide",
    "cn_name": null,
    "alternate_name": "<span class=\"text-smallcaps\">L</span>-Proline, 1,1′-[dithiobis[(2<em>S</em>)-2-methyl-1-oxo-3,1-propanediyl]]bis-;<span class=\"text-smallcaps\">L</span>-Proline, 1,1′-[dithiobis(2-methyl-1-oxo-3,1-propanediyl)]bis-, [<em>S</em>-(<em>R</em>*,<em>R</em>*)]-;1,1′-[Dithiobis[(2<em>S</em>)-2-methyl-1-oxo-3,1-propanediyl]]bis[<span class=\"text-smallcaps\">L</span>-proline];Captopril disulfide;SQ 14551;CAPTOPRDS",
    "duplicated_cas_no": "84389-03-7",
    "SMILES": "C([C@@H](CSSC[C@H](C(=O)N1[C@H](C(O)=O)CCC1)C)C)(=O)N2[C@H](C(O)=O)CCC2",
    "meta_data": {
        "InChI": "InChI=1S/C18H28N2O6S2/c1-11(15(21)19-7-3-5-13(19)17(23)24)9-27-28-10-12(2)16(22)20-8-4-6-14(20)18(25)26/h11-14H,3-10H2,1-2H3,(H,23,24)(H,25,26)/t11-,12-,13+,14+/m1/s1",
        "InChIKey": null,
        "Canonical SMILES": "O=C(O)C1N(C(=O)C(C)CSSCC(C(=O)N2CCCC2C(=O)O)C)CCC1",
        "Molecular Formula": "C<sub>18</sub>H<sub>28</sub>N<sub>2</sub>O<sub>6</sub>S<sub>2</sub>",
        "Molecular Mass": "432.55",
        "Melting Point": "224-226 °C"
    }
}