{
    "cas_no": "5663-96-7",
    "key_name": "2-Octynoic acid",
    "cn_name": "2-辛炔酸;",
    "alternate_name": "2-Octynoic acid;2-Octyn-1-oic acid;Pentylpropiolic acid;NSC 75855",
    "duplicated_cas_no": "",
    "SMILES": "C(CCCCC)#CC(O)=O",
    "meta_data": {
        "InChI": "InChI=1S/C8H12O2/c1-2-3-4-5-6-7-8(9)10/h2-5H2,1H3,(H,9,10)",
        "InChIKey": null,
        "Canonical SMILES": "O=C(O)C#CCCCCC",
        "Molecular Formula": "C<sub>8</sub>H<sub>12</sub>O<sub>2</sub>",
        "Molecular Mass": "140.18",
        "Boiling Point": "114 °C @ Press: 5 Torr",
        "Melting Point": "4 °C"
    }
}