{
    "cas_no": "38862-25-8",
    "key_name": "2,5-Dioxo-1-pyrrolidinyl 2-methyl-2-propenoate",
    "cn_name": null,
    "alternate_name": "2-Propenoic acid, 2-methyl-, 2,5-dioxo-1-pyrrolidinyl ester;2,5-Pyrrolidinedione, 1-[(2-methyl-1-oxo-2-propenyl)oxy]-;2,5-Dioxo-1-pyrrolidinyl 2-methyl-2-propenoate;<em>N</em>-(Methacryloyloxy)succinimide;<em>N</em>-Hydroxysuccinimide methacrylate ester;Methacryloyloxy succinimide;<em>N</em>-Hydroxysuccinimide methacrylate;Methacryloxy <em>N</em>-hydroxysuccinimide;<em>N</em>-Methacryloxysuccinimide;Methacrylic acid <em>N</em>-hydroxysuccinimide ester;2,5-Dioxopyrrolidin-1-yl methacrylate;Methacrylic acid <em>N</em>-hydroxysuccinimide ester-<em>N</em>,<em>N</em>-dimethylacrylamide copolymer",
    "duplicated_cas_no": "",
    "SMILES": "O(C(C(C)=C)=O)N1C(=O)CCC1=O",
    "meta_data": {
        "InChI": "InChI=1S/C8H9NO4/c1-5(2)8(12)13-9-6(10)3-4-7(9)11/h1,3-4H2,2H3",
        "InChIKey": null,
        "Canonical SMILES": "O=C(ON1C(=O)CCC1=O)C(=C)C",
        "Molecular Formula": "C<sub>8</sub>H<sub>9</sub>NO<sub>4</sub>",
        "Molecular Mass": "183.16",
        "Melting Point": "100.9 °C"
    }
}