{
    "cas_no": "2217-33-6",
    "key_name": "Tetrahydrofurfuryl butyrate",
    "cn_name": null,
    "alternate_name": "Butanoic acid, (tetrahydro-2-furanyl)methyl ester;Butyric acid, tetrahydrofurfuryl ester;Tetrahydrofurfuryl butyrate;Tetrahydro-2-furanylmethyl butyrate;2-(Butyryloxymethyl)tetrahydrofuran",
    "duplicated_cas_no": "92345-48-7",
    "SMILES": "C(OC(CCC)=O)C1CCCO1",
    "meta_data": {
        "InChI": "InChI=1S/C9H16O3/c1-2-4-9(10)12-7-8-5-3-6-11-8/h8H,2-7H2,1H3",
        "InChIKey": null,
        "Canonical SMILES": "O=C(OCC1OCCC1)CCC",
        "Molecular Formula": "C<sub>9</sub>H<sub>16</sub>O<sub>3</sub>",
        "Molecular Mass": "172.22",
        "Boiling Point": "97 °C @ Press: 0.2 Torr"
    }
}