{
    "cas_no": "3147-53-3",
    "key_name": "5-(Phenylazo)salicylic acid",
    "cn_name": null,
    "alternate_name": "Benzoic acid, 2-hydroxy-5-(2-phenyldiazenyl)-;Salicylic acid, 5-(phenylazo)-;Benzoic acid, 2-hydroxy-5-(phenylazo)-;2-Hydroxy-5-(2-phenyldiazenyl)benzoic acid;CK 46A;5-(Phenylazo)salicylic acid;2-Hydroxy-5-(phenylazo)benzoic acid;NSC 163392",
    "duplicated_cas_no": "",
    "SMILES": "N(=NC1=CC=CC=C1)C2=CC(C(O)=O)=C(O)C=C2",
    "meta_data": {
        "InChI": "InChI=1S/C13H10N2O3/c16-12-7-6-10(8-11(12)13(17)18)15-14-9-4-2-1-3-5-9/h1-8,16H,(H,17,18)",
        "InChIKey": null,
        "Canonical SMILES": "O=C(O)C1=CC(N=NC=2C=CC=CC2)=CC=C1O",
        "Molecular Formula": "C<sub>13</sub>H<sub>10</sub>N<sub>2</sub>O<sub>3</sub>",
        "Molecular Mass": "242.23",
        "Melting Point": "220.5 °C"
    }
}