{
    "cas_no": "55052-26-1",
    "key_name": "1,7-Dihydro-6<em>H</em>-pyrrolo[2,3-<em>b</em>]pyridin-6-one",
    "cn_name": null,
    "alternate_name": "6<em>H</em>-Pyrrolo[2,3-<em>b</em>]pyridin-6-one, 1,7-dihydro-;1,7-Dihydro-6<em>H</em>-pyrrolo[2,3-<em>b</em>]pyridin-6-one;1<em>H</em>-Pyrrolo[2,3-<em>b</em>]pyridin-6-ol;1,7-Dihydropyrrolo[2,3-<em>b</em>]pyridin-6-one",
    "duplicated_cas_no": "",
    "SMILES": "O=C1NC2=C(C=C1)C=CN2",
    "meta_data": {
        "InChI": "InChI=1S/C7H6N2O/c10-6-2-1-5-3-4-8-7(5)9-6/h1-4H,(H2,8,9,10)",
        "InChIKey": null,
        "Canonical SMILES": "O=C1C=CC=2C=CNC2N1",
        "Molecular Formula": "C<sub>7</sub>H<sub>6</sub>N<sub>2</sub>O",
        "Molecular Mass": "134.14",
        "Melting Point": "226-226.5 °C (decomp)"
    }
}