{
    "cas_no": "486460-23-5",
    "key_name": "1,1-Dimethylethyl <em>N</em>-[(1<em>R</em>)-3-[5,6-dihydro-3-(trifluoromethyl)-1,2,4-triazolo[4,3-<em>a</em>]pyrazin-7(8<em>H</em>)-yl]-3-oxo-1-[(2,4,5-trifluorophenyl)methyl]propyl]carbamate",
    "cn_name": null,
    "alternate_name": "Carbamic acid, <em>N</em>-[(1<em>R</em>)-3-[5,6-dihydro-3-(trifluoromethyl)-1,2,4-triazolo[4,3-<em>a</em>]pyrazin-7(8<em>H</em>)-yl]-3-oxo-1-[(2,4,5-trifluorophenyl)methyl]propyl]-, 1,1-dimethylethyl ester;Carbamic acid, [(1<em>R</em>)-3-[5,6-dihydro-3-(trifluoromethyl)-1,2,4-triazolo[4,3-<em>a</em>]pyrazin-7(8<em>H</em>)-yl]-3-oxo-1-[(2,4,5-trifluorophenyl)methyl]propyl]-, 1,1-dimethylethyl ester;1,1-Dimethylethyl <em>N</em>-[(1<em>R</em>)-3-[5,6-dihydro-3-(trifluoromethyl)-1,2,4-triazolo[4,3-<em>a</em>]pyrazin-7(8<em>H</em>)-yl]-3-oxo-1-[(2,4,5-trifluorophenyl)methyl]propyl]carbamate;<em>N</em>-BOC-Sitagliptin;<em>tert</em>-Butyl [(R)-4-oxo-4-(3-trifluoromethyl-5,6-dihydro-[1,2,4]triazolo[4,3-<em>a</em>]pyrazin-7(8<em>H</em>)-yl)-1-(2,4,5-trifluorophenyl)butan-2-yl]carbamate;<em>tert</em>-Butyl (R)-(4-oxo-4-(3-(trifluoromethyl)-5,6-dihydro-[1,2,4]triazolo[4,3-<em>a</em>]pyrazine-7(8<em>H</em>)-yl)-1-(2,4,5-trifluorophenyl)butan-2-yl)carbamate",
    "duplicated_cas_no": "",
    "SMILES": "C(F)(F)(F)C=1N2C(CN(C(C[C@@H](CC3=C(F)C=C(F)C(F)=C3)NC(OC(C)(C)C)=O)=O)CC2)=NN1",
    "meta_data": {
        "InChI": "InChI=1S/C21H23F6N5O3/c1-20(2,3)35-19(34)28-12(6-11-7-14(23)15(24)9-13(11)22)8-17(33)31-4-5-32-16(10-31)29-30-18(32)21(25,26)27/h7,9,12H,4-6,8,10H2,1-3H3,(H,28,34)/t12-/m1/s1",
        "InChIKey": null,
        "Canonical SMILES": "O=C(OC(C)(C)C)NC(CC(=O)N1CC2=NN=C(N2CC1)C(F)(F)F)CC3=CC(F)=C(F)C=C3F",
        "Molecular Formula": "C<sub>21</sub>H<sub>23</sub>F<sub>6</sub>N<sub>5</sub>O<sub>3</sub>",
        "Molecular Mass": "507.43",
        "Melting Point": "188-191 °C"
    }
}