{
    "cas_no": "3057-74-7",
    "key_name": "4-(1,1-Dimethylethyl) hydrogen <span class=\"text-smallcaps\">L</span>-aspartate",
    "cn_name": "L-天门冬氨酸-4-叔丁基酯;",
    "alternate_name": "<span class=\"text-smallcaps\">L</span>-Aspartic acid, 4-(1,1-dimethylethyl) ester;Aspartic acid, 4-<em>tert</em>-butyl ester;4-(1,1-Dimethylethyl) hydrogen <span class=\"text-smallcaps\">L</span>-aspartate;<span class=\"text-smallcaps\">L</span>-Aspartic acid 4-<em>tert</em>-butyl ester;β-<em>tert</em>-Butyl <span class=\"text-smallcaps\">L</span>-aspartate;β-<em>tert</em>-Butyl aspartate;Aspartic acid β-<em>tert</em>-butyl ester;<span class=\"text-smallcaps\">L</span>-Aspartic acid β-<em>tert</em>-butyl ester;(<em>S</em>)-2-Amino-4-<em>tert</em>-butoxy-4-oxobutanoic acid;(2S)-2-Amino-4-[(2-methylpropan-2-yl)oxy]-4-oxobutanoic acid;(2S)-2-Amino-4-(<em>tert</em>-butoxy)-4-oxobutanoic acid",
    "duplicated_cas_no": "688788-93-4;166194-54-3",
    "SMILES": "C(C(OC(C)(C)C)=O)[C@@H](C(O)=O)N",
    "meta_data": {
        "InChI": "InChI=1S/C8H15NO4/c1-8(2,3)13-6(10)4-5(9)7(11)12/h5H,4,9H2,1-3H3,(H,11,12)/t5-/m0/s1",
        "InChIKey": null,
        "Canonical SMILES": "O=C(O)C(N)CC(=O)OC(C)(C)C",
        "Molecular Formula": "C<sub>8</sub>H<sub>15</sub>NO<sub>4</sub>",
        "Molecular Mass": "189.21",
        "Melting Point": "189-190 °C"
    }
}