{
    "cas_no": "27893-41-0",
    "key_name": "4-(Heptyloxy)benzaldehyde",
    "cn_name": "4-正庚氧基苯胺甲醛;",
    "alternate_name": "Benzaldehyde, 4-(heptyloxy)-;Benzaldehyde, <em>p</em>-(heptyloxy)-;4-(Heptyloxy)benzaldehyde;<em>p</em>-(Heptyloxy)benzaldehyde;<em>p</em>-(<em>n</em>-Heptyloxy)benzaldehyde;4-(<em>n</em>-Heptyloxy)benzaldehyde;4-Heptoxybenzaldehyde",
    "duplicated_cas_no": "",
    "SMILES": "O(CCCCCCC)C1=CC=C(C=O)C=C1",
    "meta_data": {
        "InChI": "InChI=1S/C14H20O2/c1-2-3-4-5-6-11-16-14-9-7-13(12-15)8-10-14/h7-10,12H,2-6,11H2,1H3",
        "InChIKey": null,
        "Canonical SMILES": "O=CC1=CC=C(OCCCCCCC)C=C1",
        "Molecular Formula": "C<sub>14</sub>H<sub>20</sub>O<sub>2</sub>",
        "Molecular Mass": "220.31",
        "Boiling Point": "162-164 °C"
    }
}