{
    "cas_no": "4353-77-9",
    "key_name": "Trimethylsilyl chlorosulfonate",
    "cn_name": null,
    "alternate_name": "Chlorosulfuric acid, trimethylsilyl ester;Silanol, trimethyl-, chlorosulfate;Silanol, trimethyl-, chlorosulfonate;Trimethylsilyl chlorosulfonate;Trimethylsiloxysulfonyl chloride;Trimethylsilyl chlorosulfate;Chlorosulfonic acid trimethylsilyl ester;[Chlorosulfonyloxy(dimethyl)silyl]methane",
    "duplicated_cas_no": "",
    "SMILES": "O(S(Cl)(=O)=O)[Si](C)(C)C",
    "meta_data": {
        "InChI": "InChI=1S/C3H9ClO3SSi/c1-9(2,3)7-8(4,5)6/h1-3H3",
        "InChIKey": null,
        "Canonical SMILES": "O=S(=O)(Cl)O[Si](C)(C)C",
        "Molecular Formula": "C<sub>3</sub>H<sub>9</sub>ClO<sub>3</sub>SSi",
        "Molecular Mass": "188.71",
        "Boiling Point": "62-64 °C @ Press: 10 Torr",
        "Melting Point": "-26 °C",
        "Density": "1.230 g/cm³"
    }
}