{
    "cas_no": "100-17-4",
    "key_name": "4-Nitroanisole",
    "cn_name": "4-硝基苯甲醚;对硝基苯甲醚;对硝基茴香醚;",
    "alternate_name": "Benzene, 1-methoxy-4-nitro-;Anisole, <em>p</em>-nitro-;1-Methoxy-4-nitrobenzene;<em>p</em>-Methoxynitrobenzene;<em>p</em>-Nitroanisole;4-Nitroanisole;4-Methoxynitrobenzene;4-Methoxy-1-nitrobenzene;Methyl <em>p</em>-nitrophenyl ether;<em>p</em>-Nitromethoxybenzene;4-Nitrophenyl methyl ether;4-Nitromethoxybenzene;4-Nitro-1-methoxybenzene;<em>p</em>-Nitrobenzene methyl ether;Methyl 4-nitrophenyl ether;NSC 5507;1-Nitro-4-methoxybenzene",
    "duplicated_cas_no": "721942-42-3",
    "SMILES": "N(=O)(=O)C1=CC=C(OC)C=C1",
    "meta_data": {
        "InChI": "InChI=1S/C7H7NO3/c1-11-7-4-2-6(3-5-7)8(9)10/h2-5H,1H3",
        "InChIKey": null,
        "Canonical SMILES": "O=N(=O)C1=CC=C(OC)C=C1",
        "Molecular Formula": "C<sub>7</sub>H<sub>7</sub>NO<sub>3</sub>",
        "Molecular Mass": "153.14",
        "Boiling Point": "274 °C",
        "Melting Point": "54 °C",
        "Density": "1.2083 g/cm³ @ Temp: 68.4 °C"
    }
}