{
    "cas_no": "871-78-3",
    "key_name": "<em>N</em>,<em>N</em>′-Diacetylethylenediamine",
    "cn_name": "N,N\"-二乙酰基乙二胺;",
    "alternate_name": "Acetamide, <em>N</em>,<em>N</em>′-1,2-ethanediylbis-;Acetamide, <em>N</em>,<em>N</em>′-ethylenebis-;<em>N</em>,<em>N</em>′-1,2-Ethanediylbis[acetamide];1,2-Ethanediamine, <em>N</em>,<em>N</em>′-diacetyl-;<em>N</em>,<em>N</em>′-Diacetylethylenediamine;<em>N</em>,<em>N</em>′-Ethylenebisacetamide;Diacetylethylenediamine;1,2-Diacetamidoethane;<em>N</em>-[2-(Acetylamino)ethylene]acetamide;NSC 603;1,2-Ethylene bisacetamide;1,2-Bis(acetylamino)ethane",
    "duplicated_cas_no": "",
    "SMILES": "C(CNC(C)=O)NC(C)=O",
    "meta_data": {
        "InChI": "InChI=1S/C6H12N2O2/c1-5(9)7-3-4-8-6(2)10/h3-4H2,1-2H3,(H,7,9)(H,8,10)",
        "InChIKey": null,
        "Canonical SMILES": "O=C(NCCNC(=O)C)C",
        "Molecular Formula": "C<sub>6</sub>H<sub>12</sub>N<sub>2</sub>O<sub>2</sub>",
        "Molecular Mass": "144.17",
        "Boiling Point": "200 °C @ Press: 2.5 Torr",
        "Melting Point": "175 °C"
    }
}