{
    "cas_no": "938-16-9",
    "key_name": "2,2-Dimethyl-1-phenyl-1-propanone",
    "cn_name": "2,2-二甲基苯丙酮;三甲基苯乙酮;2,2,2-三甲基苯乙酮;",
    "alternate_name": "1-Propanone, 2,2-dimethyl-1-phenyl-;Pivalophenone;2,2-Dimethyl-1-phenyl-1-propanone;<em>tert</em>-Butyl phenyl ketone;Phenyl <em>tert</em>-butyl ketone;2,2-Dimethylpropiophenone;α,α-Dimethylpropiophenone;2,2,2-Trimethylacetophenone;1-Phenyl-2,2-dimethyl-1-propanone;α,α,α-Trimethylacetophenone;Phenyl tert-butyl ketone",
    "duplicated_cas_no": "",
    "SMILES": "C(C(C)(C)C)(=O)C1=CC=CC=C1",
    "meta_data": {
        "InChI": "InChI=1S/C11H14O/c1-11(2,3)10(12)9-7-5-4-6-8-9/h4-8H,1-3H3",
        "InChIKey": null,
        "Canonical SMILES": "O=C(C=1C=CC=CC1)C(C)(C)C",
        "Molecular Formula": "C<sub>11</sub>H<sub>14</sub>O",
        "Molecular Mass": "162.23",
        "Boiling Point": "220 °C",
        "Density": "1.016 g/cm³ @ Temp: 20 °C"
    }
}