{
    "cas_no": "72752-52-4",
    "key_name": "2-(1-Piperidinyl)benzonitrile",
    "cn_name": "2-(1-哌啶基)苯甲腈;",
    "alternate_name": "Benzonitrile, 2-(1-piperidinyl)-;2-(1-Piperidinyl)benzonitrile;2-Piperidinobenzonitrile;2-(Piperidin-1-yl)benzonitrile",
    "duplicated_cas_no": "",
    "SMILES": "C(#N)C1=C(C=CC=C1)N2CCCCC2",
    "meta_data": {
        "InChI": "InChI=1S/C12H14N2/c13-10-11-6-2-3-7-12(11)14-8-4-1-5-9-14/h2-3,6-7H,1,4-5,8-9H2",
        "InChIKey": null,
        "Canonical SMILES": "N#CC=1C=CC=CC1N2CCCCC2",
        "Molecular Formula": "C<sub>12</sub>H<sub>14</sub>N<sub>2</sub>",
        "Molecular Mass": "186.25",
        "Melting Point": "37-39 °C"
    }
}