{
    "cas_no": "1134-94-7",
    "key_name": "2-(Phenylthio)aniline",
    "cn_name": "2-氨基二苯硫醚;",
    "alternate_name": "Benzenamine, 2-(phenylthio)-;Aniline, <em>o</em>-(phenylthio)-;2-(Phenylthio)benzenamine;2-Aminophenyl phenyl sulfide;<em>o</em>-(Phenylthio)aniline;2-Aminodiphenyl sulfide;2-Aminophenyl phenyl thioether;2-(Phenylsulfanyl)phenylamine;2-(Phenylthio)aniline;2-Phenylsulfanylaniline",
    "duplicated_cas_no": "",
    "SMILES": "S(C1=C(N)C=CC=C1)C2=CC=CC=C2",
    "meta_data": {
        "InChI": "InChI=1S/C12H11NS/c13-11-8-4-5-9-12(11)14-10-6-2-1-3-7-10/h1-9H,13H2",
        "InChIKey": null,
        "Canonical SMILES": "S(C=1C=CC=CC1)C=2C=CC=CC2N",
        "Molecular Formula": "C<sub>12</sub>H<sub>11</sub>NS",
        "Molecular Mass": "201.29",
        "Melting Point": "31-32 °C"
    }
}