{
    "cas_no": "7138-40-1",
    "key_name": "Heptacosanoic acid",
    "cn_name": null,
    "alternate_name": "Heptacosanoic acid;Carboceric acid;Heptacosylic acid",
    "duplicated_cas_no": "",
    "SMILES": "C(CCCCCCCCCCCCCCCCCC)CCCCCCCC(O)=O",
    "meta_data": {
        "InChI": "InChI=1S/C27H54O2/c1-2-3-4-5-6-7-8-9-10-11-12-13-14-15-16-17-18-19-20-21-22-23-24-25-26-27(28)29/h2-26H2,1H3,(H,28,29)",
        "InChIKey": null,
        "Canonical SMILES": "O=C(O)CCCCCCCCCCCCCCCCCCCCCCCCCC",
        "Molecular Formula": "C<sub>27</sub>H<sub>54</sub>O<sub>2</sub>",
        "Molecular Mass": "410.72",
        "Melting Point": "86.8 °C"
    }
}