{
    "cas_no": "42890-76-6",
    "key_name": "(-)-1,2,4-Butanetriol",
    "cn_name": "(S)-(-)-1,2,4-丁三醇;",
    "alternate_name": "1,2,4-Butanetriol, (2<em>S</em>)-;1,2,4-Butanetriol, (<em>S</em>)-;(2<em>S</em>)-1,2,4-Butanetriol;(<em>S</em>)-1,2,4-Butanetriol;(2<em>S</em>)-Butane-1,2,4-triol;(<em>S</em>)-(-)-Butane-1,2,4-triol;(-)-1,2,4-Butanetriol;(-)-(<em>S</em>)-1,2,4-Butanetriol;(<em>S</em>)-Butan-1,2,4-triol;(2S)-Butane-1,2,4-triol",
    "duplicated_cas_no": "",
    "SMILES": "[C@H](CCO)(CO)O",
    "meta_data": {
        "InChI": "InChI=1S/C4H10O3/c5-2-1-4(7)3-6/h4-7H,1-3H2/t4-/m0/s1",
        "InChIKey": null,
        "Canonical SMILES": "OCCC(O)CO",
        "Molecular Formula": "C<sub>4</sub>H<sub>10</sub>O<sub>3</sub>",
        "Molecular Mass": "106.12",
        "Boiling Point": "133 °C @ Press: 0.8 Torr"
    }
}