{
    "cas_no": "498-74-8",
    "key_name": "3-Amino-4-methoxybenzenesulfonyl fluoride",
    "cn_name": "对甲氧基间胺酰氟;",
    "alternate_name": "Benzenesulfonyl fluoride, 3-amino-4-methoxy-;Metanilyl fluoride, 4-methoxy-;3-Amino-4-methoxybenzenesulfonyl fluoride;5-Fluorosulfonyl-2-methoxyaniline;4-Methoxymetanilyl fluoride;NSC 95416;3-Amino-4-methoxybenzene-1-sulfonyl fluoride",
    "duplicated_cas_no": "",
    "SMILES": "S(F)(=O)(=O)C1=CC(N)=C(OC)C=C1",
    "meta_data": {
        "InChI": "InChI=1S/C7H8FNO3S/c1-12-7-3-2-5(4-6(7)9)13(8,10)11/h2-4H,9H2,1H3",
        "InChIKey": null,
        "Canonical SMILES": "O=S(=O)(F)C1=CC=C(OC)C(N)=C1",
        "Molecular Formula": "C<sub>7</sub>H<sub>8</sub>FNO<sub>3</sub>S",
        "Molecular Mass": "205.21",
        "Melting Point": "62 °C"
    }
}