{
    "cas_no": "662-50-0",
    "key_name": "Heptafluorobutyramide",
    "cn_name": null,
    "alternate_name": "Butanamide, 2,2,3,3,4,4,4-heptafluoro-;Butyramide, 2,2,3,3,4,4,4-heptafluoro-;2,2,3,3,4,4,4-Heptafluorobutanamide;Heptafluorobutyramide;Perfluorobutyramide;Heptafluorobutanoic acid amide;NSC 9451;Heptafluorobutanamide",
    "duplicated_cas_no": "",
    "SMILES": "C(C(C(N)=O)(F)F)(C(F)(F)F)(F)F",
    "meta_data": {
        "InChI": "InChI=1S/C4H2F7NO/c5-2(6,1(12)13)3(7,8)4(9,10)11/h(H2,12,13)",
        "InChIKey": null,
        "Canonical SMILES": "O=C(N)C(F)(F)C(F)(F)C(F)(F)F",
        "Molecular Formula": "C<sub>4</sub>H<sub>2</sub>F<sub>7</sub>NO",
        "Molecular Mass": "213.05",
        "Melting Point": "103 °C"
    }
}