{
    "cas_no": "534-07-6",
    "key_name": "1,3-Dichloroacetone",
    "cn_name": "1,3-二氯丙酮;",
    "alternate_name": "2-Propanone, 1,3-dichloro-;1,3-Dichloro-2-propanone;1,3-Dichloroacetone;α,γ-Dichloroacetone;Bis(chloromethyl) ketone;<em>sym</em>-Dichloroacetone;α,α′-Dichloroacetone;NSC 8745",
    "duplicated_cas_no": "",
    "SMILES": "C(CCl)(CCl)=O",
    "meta_data": {
        "InChI": "InChI=1S/C3H4Cl2O/c4-1-3(6)2-5/h1-2H2",
        "InChIKey": null,
        "Canonical SMILES": "O=C(CCl)CCl",
        "Molecular Formula": "C<sub>3</sub>H<sub>4</sub>Cl<sub>2</sub>O",
        "Molecular Mass": "126.97",
        "Boiling Point": "173.4 °C",
        "Melting Point": "45 °C",
        "Density": "1.3826 g/cm³ @ Temp: 46 °C"
    }
}