{
    "cas_no": "39546-32-2",
    "key_name": "4-Piperidinecarboxamide",
    "cn_name": "4-哌啶甲酰胺;哌啶-4-甲酰胺;",
    "alternate_name": "4-Piperidinecarboxamide;Isonipecotamide;4-Carbamoylpiperidine;4-(Aminocarbonyl)piperidine;4-Piperidylcarboxamide;Piperidine-4-carboxylic acid amide;4-Carboxamidopiperidine;NSC 82318",
    "duplicated_cas_no": "65360-53-4",
    "SMILES": "C(N)(=O)C1CCNCC1",
    "meta_data": {
        "InChI": "InChI=1S/C6H12N2O/c7-6(9)5-1-3-8-4-2-5/h5,8H,1-4H2,(H2,7,9)",
        "InChIKey": null,
        "Canonical SMILES": "O=C(N)C1CCNCC1",
        "Molecular Formula": "C<sub>6</sub>H<sub>12</sub>N<sub>2</sub>O",
        "Molecular Mass": "128.17",
        "Melting Point": "152-153 °C"
    }
}