{
    "cas_no": "14691-88-4",
    "key_name": "4-Amino-2,2,6,6-tetramethylpiperidine-1-oxyl",
    "cn_name": null,
    "alternate_name": "1-Piperidinyloxy, 4-amino-2,2,6,6-tetramethyl-;Piperidinooxy, 4-amino-2,2,6,6-tetramethyl-;4-Amino-2,2,6,6-tetramethyl-1-piperidinyloxy;2,2,6,6-Tetramethyl-4-aminopiperidine-1-oxyl;4-Amino-2,2,6,6-tetramethyl-1-piperidinyloxyl;4-Amino-2,2,6,6-tetramethylpiperidinooxyl;4-Amino-2,2,6,6-tetramethylpiperidine-1-oxy;4-Amino-2,2,6,6-tetramethylpiperidino-1-oxyl;2,2,6,6-Tetramethyl-1-oxy-4-aminopiperidine;4-Amino-2,2,6,6-tetramethylpiperidin-1-oxyl;2,2,6,6-Tetramethyl-4-aminopiperidine <em>N</em>-oxide;4-Amino-2,2,6,6-tetramethylpiperidinyl-<em>N</em>-oxy;4-Amino-2,2,6,6-tetramethylpiperidino-1-oxy;Tempamine;4-Amino-2,2,6,6-tetramethylpiperidine-1-oxyl;Tempo-amine;4-Amino-2,2,6,6-tetramethylpiperidinyloxy;4-Amino-1-oxyl-2,2,6,6-tetramethylpiperidine;(2,2,6,6-Tetramethyl-1-oxy-4-piperidinyl)amine;6-Tempamine;4-Aminotempo;2,2,6,6-Tetramethyl-4-amino-1-piperidinyloxy;4-Amino-2,2,6,6-tetramethylpiperidine-<em>N</em>-oxyl;4-Amino-2,2,6,6-tetramethylpiperidine <em>N</em>-oxide;4-Amino-2,2,6,6-tetramethylpiperidine-1-nitroxide;TAMINE;4-Amino-2,2,6,6-tetramethylpiperidin-<em>N</em>-oxyl;4-NH<sub>2</sub>-TEMPO;ST 7820",
    "duplicated_cas_no": "26947-98-8;78774-22-8;125342-82-7;1818888-12-8",
    "SMILES": "",
    "meta_data": {
        "InChI": "",
        "InChIKey": null,
        "Canonical SMILES": "",
        "Molecular Formula": "C<sub>9</sub>H<sub>19</sub>N<sub>2</sub>O",
        "Molecular Mass": "",
        "Boiling Point": "84-86 °C",
        "Melting Point": "35-36 °C"
    }
}