{
    "cas_no": "2916-31-6",
    "key_name": "2,2-Dimethyl-1,3-dioxolane",
    "cn_name": "2,2-二甲基-1,3-二噁茂烷;2,2-二甲基-1,3-二恶茂烷;",
    "alternate_name": "1,3-Dioxolane, 2,2-dimethyl-;2,2-Dimethyl-1,3-dioxolane;Acetone, cyclic ethylene acetal;Acetone ethylene ketal;Acetone ethylene acetal;NSC 86111;2,2-Dimethyldioxolane",
    "duplicated_cas_no": "89728-65-4",
    "SMILES": "CC1(C)OCCO1",
    "meta_data": {
        "InChI": "InChI=1S/C5H10O2/c1-5(2)6-3-4-7-5/h3-4H2,1-2H3",
        "InChIKey": null,
        "Canonical SMILES": "O1CCOC1(C)C",
        "Molecular Formula": "C<sub>5</sub>H<sub>10</sub>O<sub>2</sub>",
        "Molecular Mass": "102.13",
        "Boiling Point": "92.5 °C",
        "Density": "0.9460 g/cm³ @ Temp: 15 °C"
    }
}