{
    "cas_no": "1198-14-7",
    "key_name": "5-Bromo-8-hydroxyquinoline",
    "cn_name": "5-溴-8-羟基喹啉;",
    "alternate_name": "8-Quinolinol, 5-bromo-;5-Bromo-8-quinolinol;5-Bromo-8-hydroxyquinoline;NSC 74941",
    "duplicated_cas_no": "",
    "SMILES": "BrC=1C2=C(C(O)=CC1)N=CC=C2",
    "meta_data": {
        "InChI": "InChI=1S/C9H6BrNO/c10-7-3-4-8(12)9-6(7)2-1-5-11-9/h1-5,12H",
        "InChIKey": null,
        "Canonical SMILES": "BrC=1C=CC(O)=C2N=CC=CC12",
        "Molecular Formula": "C<sub>9</sub>H<sub>6</sub>BrNO",
        "Molecular Mass": "224.05",
        "Melting Point": "124 °C"
    }
}