{
    "cas_no": "4478-43-7",
    "key_name": "α-<span class=\"text-smallcaps\">D</span>-Galactopyranose, 1,2:3,4-bis-<em>O</em>-(1-methylethylidene)-, 6-(4-methylbenzenesulfonate)",
    "cn_name": null,
    "alternate_name": "α-<span class=\"text-smallcaps\">D</span>-Galactopyranose, 1,2:3,4-bis-<em>O</em>-(1-methylethylidene)-, 6-(4-methylbenzenesulfonate);Galactopyranose, 1,2:3,4-di-<em>O</em>-isopropylidene-, <em>p</em>-toluenesulfonate, α-<span class=\"text-smallcaps\">D</span>-;α-<span class=\"text-smallcaps\">D</span>-Galactopyranose, 1,2:3,4-bis-<em>O</em>-(1-methylethylidene)-, 4-methylbenzenesulfonate;Galactose, 1,2:3,4-di-<em>O</em>-isopropylidene-, 6-<em>p</em>-toluenesulfonate;5<em>H</em>-Bis[1,3]dioxolo[4,5-<em>b</em>:4′,5′-<em>d</em>]pyran, α-<span class=\"text-smallcaps\">D</span>-galactopyranose deriv.;1,2:3,4-Di-<em>O</em>-Isopropylidene-6-<em>O</em>-<em>p</em>-tolylsulfonyl-α-<span class=\"text-smallcaps\">D</span>-galactopyranose;NSC 116274",
    "duplicated_cas_no": "342808-81-5",
    "SMILES": "C(OS(=O)(=O)C1=CC=C(C)C=C1)[C@@H]2[C@]3([C@@]([C@@]4([C@](O2)(OC(C)(C)O4)[H])[H])(OC(C)(C)O3)[H])[H]",
    "meta_data": {
        "InChI": "InChI=1S/C19H26O8S/c1-11-6-8-12(9-7-11)28(20,21)22-10-13-14-15(25-18(2,3)24-14)16-17(23-13)27-19(4,5)26-16/h6-9,13-17H,10H2,1-5H3/t13-,14+,15+,16-,17-/m1/s1",
        "InChIKey": null,
        "Canonical SMILES": "O=S(=O)(OCC1OC2OC(OC2C3OC(OC13)(C)C)(C)C)C4=CC=C(C=C4)C",
        "Molecular Formula": "C<sub>19</sub>H<sub>26</sub>O<sub>8</sub>S",
        "Molecular Mass": "414.47",
        "Melting Point": "147-149 °C"
    }
}