{
    "cas_no": "64407-07-4",
    "key_name": "3-(Chloromethyl)benzonitrile",
    "cn_name": "间氰基苄基氯;",
    "alternate_name": "Benzonitrile, 3-(chloromethyl)-;3-(Chloromethyl)benzonitrile;<em>m</em>-Cyanobenzyl chloride;<em>m</em>-(Chloromethyl)benzonitrile;3-Cyanobenzyl chloride;<em>m</em>-Nitrilebenzyl chloride",
    "duplicated_cas_no": "",
    "SMILES": "C(Cl)C1=CC(C#N)=CC=C1",
    "meta_data": {
        "InChI": "InChI=1S/C8H6ClN/c9-5-7-2-1-3-8(4-7)6-10/h1-4H,5H2",
        "InChIKey": null,
        "Canonical SMILES": "N#CC1=CC=CC(=C1)CCl",
        "Molecular Formula": "C<sub>8</sub>H<sub>6</sub>ClN",
        "Molecular Mass": "151.59",
        "Melting Point": "68-68.5 °C"
    }
}