{
    "cas_no": "553-82-2",
    "key_name": "2,4-Dichloroanisole",
    "cn_name": null,
    "alternate_name": "Benzene, 2,4-dichloro-1-methoxy-;Anisole, 2,4-dichloro-;2,4-Dichloro-1-methoxybenzene;2,4-Dichloroanisole;1,5-Dichloro-2-methoxybenzene;1-Methoxy-2,4-dichlorobenzene;NSC 6077;1,3-Dichloro-4-methoxybenzene",
    "duplicated_cas_no": "",
    "SMILES": "O(C)C1=C(Cl)C=C(Cl)C=C1",
    "meta_data": {
        "InChI": "InChI=1S/C7H6Cl2O/c1-10-7-3-2-5(8)4-6(7)9/h2-4H,1H3",
        "InChIKey": null,
        "Canonical SMILES": "ClC1=CC=C(OC)C(Cl)=C1",
        "Molecular Formula": "C<sub>7</sub>H<sub>6</sub>Cl<sub>2</sub>O",
        "Molecular Mass": "177.03",
        "Boiling Point": "232 °C",
        "Melting Point": "28.5 °C",
        "Density": "1.288 g/cm³"
    }
}