{
    "cas_no": "609-19-8",
    "key_name": "3,4,5-Trichlorophenol",
    "cn_name": "3,4,5-三氯苯酚;3,4,5-三氯酚;3,4,5-三氯苯酚;",
    "alternate_name": "Phenol, 3,4,5-trichloro-;3,4,5-Trichlorophenol;NSC 243667",
    "duplicated_cas_no": "",
    "SMILES": "ClC1=C(Cl)C=C(O)C=C1Cl",
    "meta_data": {
        "InChI": "InChI=1S/C6H3Cl3O/c7-4-1-3(10)2-5(8)6(4)9/h1-2,10H",
        "InChIKey": null,
        "Canonical SMILES": "ClC=1C=C(O)C=C(Cl)C1Cl",
        "Molecular Formula": "C<sub>6</sub>H<sub>3</sub>Cl<sub>3</sub>O",
        "Molecular Mass": "197.45",
        "Boiling Point": "275 °C",
        "Melting Point": "101 °C"
    }
}