{
    "cas_no": "4055-39-4",
    "key_name": "Mitomycin A",
    "cn_name": null,
    "alternate_name": "Azirino[2′,3′:3,4]pyrrolo[1,2-<em>a</em>]indole-4,7-dione, 8-[[(aminocarbonyl)oxy]methyl]-1,1a,2,8,8a,8b-hexahydro-6,8a-dimethoxy-5-methyl-, (1a<em>S</em>,8<em>S</em>,8a<em>R</em>,8b<em>S</em>)-;Mitomycin A;Azirino[2′,3′:3,4]pyrrolo[1,2-<em>a</em>]indole-4,7-dione, 1,1a,2,8,8a,8b-hexahydro-8-(hydroxymethyl)-6,8a-dimethoxy-5-methyl-, carbamate (ester);Azirino[2′,3′:3,4]pyrrolo[1,2-<em>a</em>]indole-4,7-dione, 8-[[(aminocarbonyl)oxy]methyl]-1,1a,2,8,8a,8b-hexahydro-6,8a-dimethoxy-5-methyl-, [1a<em>S</em>-(1aα,8β,8aα,8bα)]-;(1a<em>S</em>,8<em>S</em>,8a<em>R</em>,8b<em>S</em>)-8-[[(Aminocarbonyl)oxy]methyl]-1,1a,2,8,8a,8b-hexahydro-6,8a-dimethoxy-5-methylazirino[2′,3′:3,4]pyrrolo[1,2-<em>a</em>]indole-4,7-dione;NSC 75986",
    "duplicated_cas_no": "11030-55-0;18462-94-7",
    "SMILES": "O(C)[C@]12N(C3=C([C@H]1COC(N)=O)C(=O)C(OC)=C(C)C3=O)C[C@]4([C@@]2(N4)[H])[H]",
    "meta_data": {
        "InChI": "InChI=1S/C16H19N3O6/c1-6-11(20)10-9(12(21)13(6)23-2)7(5-25-15(17)22)16(24-3)14-8(18-14)4-19(10)16/h7-8,14,18H,4-5H2,1-3H3,(H2,17,22)/t7-,8+,14+,16-/m1/s1",
        "InChIKey": null,
        "Canonical SMILES": "O=C(OCC1C=2C(=O)C(OC)=C(C(=O)C2N3CC4NC4C31OC)C)N",
        "Molecular Formula": "C<sub>16</sub>H<sub>19</sub>N<sub>3</sub>O<sub>6</sub>",
        "Molecular Mass": "349.34",
        "Melting Point": "161 °C"
    }
}