{
    "cas_no": "4442-54-0",
    "key_name": "2,3-Dihydro-1,4-benzodioxin-6-carboxylic acid",
    "cn_name": "2,3-二氢-1,4-苯并二噁烷-6-羧酸;苯并-1,4-二恶烷-6-羧酸;苯并二氧六环-6-甲酸;",
    "alternate_name": "1,4-Benzodioxin-6-carboxylic acid, 2,3-dihydro-;1,4-Benzodioxan-6-carboxylic acid;2,3-Dihydro-1,4-benzodioxin-6-carboxylic acid;1,4-Benzodioxane-6-carboxylic acid;3,4-Ethylenedioxybenzoic acid;2,3-Dihydrobenzo[1,4]dioxine-6-carboxylic acid;2,3-Dihydrobenzo[1,4]dioxin-6-carboxylic acid;2,3-Dihydrobenzo[<em>b</em>][1,4]-dioxin-6-carboxylic acid;2,3-Dihydrobenzo[<em>b</em>][1,4]dioxine-6-carboxylic acid;2,3-Dihydro-1,4-benzodioxane-6-carboxylic acid",
    "duplicated_cas_no": "",
    "SMILES": "C(O)(=O)C=1C=C2C(=CC1)OCCO2",
    "meta_data": {
        "InChI": "InChI=1S/C9H8O4/c10-9(11)6-1-2-7-8(5-6)13-4-3-12-7/h1-2,5H,3-4H2,(H,10,11)",
        "InChIKey": null,
        "Canonical SMILES": "O=C(O)C1=CC=C2OCCOC2=C1",
        "Molecular Formula": "C<sub>9</sub>H<sub>8</sub>O<sub>4</sub>",
        "Molecular Mass": "180.16",
        "Melting Point": "135-136 °C"
    }
}