{
    "cas_no": "872-85-5",
    "key_name": "4-Pyridinecarboxaldehyde",
    "cn_name": "4-吡啶甲醛;",
    "alternate_name": "4-Pyridinecarboxaldehyde;Isonicotinaldehyde;4-Pyridinealdehyde;<em>p</em>-Pyridinealdehyde;4-Formylpyridine;Pyridine-4-carbaldehyde;Isonicotinic aldehyde;γ-Formylpyridine;Pyridin-4-al;Pyridin-4-ylcarboxaldehyde;<em>p</em>-Formylpyridine;NSC 8953;Pyridin-4-carboxaldehyde;4-Pyridylcarboxyaldehyde;<em>p</em>-Pyridylaldehyde",
    "duplicated_cas_no": "942039-01-2",
    "SMILES": "C(=O)C=1C=CN=CC1",
    "meta_data": {
        "InChI": "InChI=1S/C6H5NO/c8-5-6-1-3-7-4-2-6/h1-5H",
        "InChIKey": null,
        "Canonical SMILES": "O=CC=1C=CN=CC1",
        "Molecular Formula": "C<sub>6</sub>H<sub>5</sub>NO",
        "Molecular Mass": "107.11",
        "Boiling Point": "77-78 °C",
        "Melting Point": "164-165 °C"
    }
}