{
    "cas_no": "99-81-0",
    "key_name": "4-Nitrophenacyl bromide",
    "cn_name": "2-溴-4\"-硝基苯乙酮;2-溴代对硝基苯乙酮;",
    "alternate_name": "Ethanone, 2-bromo-1-(4-nitrophenyl)-;Acetophenone, 2-bromo-4′-nitro-;2-Bromo-1-(4-nitrophenyl)ethanone;α-Bromo-4-nitroacetophenone;4′-Nitro-2-bromoacetophenone;4-Nitrophenacyl bromide;<em>p</em>-Nitrophenacyl bromide;<em>p</em>-Nitro-α-bromoacetophenone;α-Bromo-<em>p</em>-nitroacetophenone;2-Bromo-<em>p</em>-nitroacetophenone;2-Bromo-4′-nitroacetophenone;ω-Bromo-<em>p</em>-nitroacetophenone;Bromomethyl <em>p</em>-nitrophenyl ketone;ω-Bromo-4-nitroacetophenone;Bromomethyl 4-nitrophenyl ketone;4-Nitro-α-bromoacetophenone;2-Bromo-1-(4-nitrophenyl)ethan-1-one;NSC 9805;α-Bromo-4′-nitroacetophenone",
    "duplicated_cas_no": "",
    "SMILES": "C(CBr)(=O)C1=CC=C(N(=O)=O)C=C1",
    "meta_data": {
        "InChI": "InChI=1S/C8H6BrNO3/c9-5-8(11)6-1-3-7(4-2-6)10(12)13/h1-4H,5H2",
        "InChIKey": null,
        "Canonical SMILES": "O=C(C1=CC=C(C=C1)N(=O)=O)CBr",
        "Molecular Formula": "C<sub>8</sub>H<sub>6</sub>BrNO<sub>3</sub>",
        "Molecular Mass": "244.04",
        "Melting Point": "95-97 °C"
    }
}