{
    "cas_no": "1314-32-5",
    "key_name": "Thallium oxide (Tl<sub>2</sub>O<sub>3</sub>)",
    "cn_name": "三氧化二铊;",
    "alternate_name": "Thallium oxide (Tl<sub>2</sub>O<sub>3</sub>);Thallic oxide;Thallium sesquioxide;Dithallium trioxide;Thallium(III) oxide;Thallium oxide;Thallium(3+) oxide;Thallium trioxide;Thallium oxide (2:3)",
    "duplicated_cas_no": "",
    "SMILES": "",
    "meta_data": {
        "InChI": "",
        "InChIKey": null,
        "Canonical SMILES": "",
        "Molecular Formula": "O<sub>3</sub>Tl<sub>2</sub>",
        "Molecular Mass": "",
        "Boiling Point": "896 °C",
        "Melting Point": "717 °C",
        "Density": "10.2 g/cm³"
    }
}