{
    "uri": "substance/pt/1314325",
    "rn": "1314-32-5",
    "name": "Thallium oxide (Tl<sub>2</sub>O<sub>3</sub>)",
    "images": [],
    "inchi": "",
    "inchiKey": "",
    "smile": "",
    "canonicalSmile": "",
    "molecularFormula": "O<sub>3</sub>Tl<sub>2</sub>",
    "molecularMass": "",
    "experimentalProperties": [
        {
            "name": "Boiling Point",
            "property": "896 °C",
            "sourceNumber": 1
        },
        {
            "name": "Melting Point",
            "property": "717 °C",
            "sourceNumber": 2
        },
        {
            "name": "Density",
            "property": "10.2 g/cm³",
            "sourceNumber": 2
        }
    ],
    "propertyCitations": [
        {
            "docUri": "document/pt/document/12367387",
            "sourceNumber": 1,
            "source": "Shchukarev, S. A.; Zhurnal Neorganicheskoi Khimii, (1961), 6, 2817-18, CAplus"
        },
        {
            "docUri": "",
            "sourceNumber": 2,
            "source": "Hazardous Substances Data Bank data were obtained from the National Library of Medicine (US)"
        }
    ],
    "synonyms": [
        "Thallium oxide (Tl<sub>2</sub>O<sub>3</sub>)",
        "Thallic oxide",
        "Thallium sesquioxide",
        "Dithallium trioxide",
        "Thallium(III) oxide",
        "Thallium oxide",
        "Thallium(3+) oxide",
        "Thallium trioxide",
        "Thallium oxide (2:3)"
    ],
    "replacedRns": [],
    "hasMolfile": false,
    "source": "https://commonchemistry.cas.org/detail?cas_rn=1314-32-5"
}