{
    "cas_no": "98-56-6",
    "key_name": "1-Chloro-4-(trifluoromethyl)benzene",
    "cn_name": "对氯三氟甲苯;",
    "alternate_name": "Benzene, 1-chloro-4-(trifluoromethyl)-;Toluene, <em>p</em>-chloro-α,α,α-trifluoro-;1-Chloro-4-(trifluoromethyl)benzene;<em>p</em>-Chloro-α,α,α-trifluorotoluene;<em>p</em>-Chlorobenzotrifluoride;<em>p</em>-Chloro(trifluoromethyl)benzene;<em>p</em>-Trifluoromethylphenyl chloride;4-Chlorobenzotrifluoride;(<em>p</em>-Chlorophenyl)trifluoromethane;4-Chloro-α,α,α-trifluorotoluene;<em>p</em>-(Trifluoromethyl)chlorobenzene;4-(Trifluoromethyl)chlorobenzene;4-Chloro(trifluoromethyl)benzene;4-Chlorobenzyltrifluoride;Oxsol 100;4-(Trifluoromethyl)phenyl chloride;NSC 10309;Oxol 100;4-Trifluoromethyl-1-chlorobenzene;4-Chloro-1-trifluoromethylbenzene;4-Chloro-α,α,α-benzotrifluoride;Oxsul 100",
    "duplicated_cas_no": "92709-16-5",
    "SMILES": "C(F)(F)(F)C1=CC=C(Cl)C=C1",
    "meta_data": {
        "InChI": "InChI=1S/C7H4ClF3/c8-6-3-1-5(2-4-6)7(9,10)11/h1-4H",
        "InChIKey": null,
        "Canonical SMILES": "FC(F)(F)C1=CC=C(Cl)C=C1",
        "Molecular Formula": "C<sub>7</sub>H<sub>4</sub>ClF<sub>3</sub>",
        "Molecular Mass": "180.55",
        "Boiling Point": "139.3 °C",
        "Melting Point": "-33 °C",
        "Density": "1.3340 g/cm³ @ Temp: 25 °C"
    }
}