{
    "cas_no": "5458-48-0",
    "key_name": "1-Cyclohexyl-4-nitrobenzene",
    "cn_name": "4-环己基-1-硝基苯;",
    "alternate_name": "Benzene, 1-cyclohexyl-4-nitro-;1-Cyclohexyl-4-nitrobenzene;1-Nitro-4-cyclohexylbenzene;(4-Nitrophenyl)cyclohexane;<em>p</em>-Cyclohexylnitrobenzene;4-Cyclohexylnitrobenzene;NSC 23569",
    "duplicated_cas_no": "",
    "SMILES": "N(=O)(=O)C1=CC=C(C=C1)C2CCCCC2",
    "meta_data": {
        "InChI": "InChI=1S/C12H15NO2/c14-13(15)12-8-6-11(7-9-12)10-4-2-1-3-5-10/h6-10H,1-5H2",
        "InChIKey": null,
        "Canonical SMILES": "O=N(=O)C1=CC=C(C=C1)C2CCCCC2",
        "Molecular Formula": "C<sub>12</sub>H<sub>15</sub>NO<sub>2</sub>",
        "Molecular Mass": "205.25",
        "Boiling Point": "142 °C",
        "Melting Point": "58.5 °C"
    }
}