{
    "cas_no": "20511-15-3",
    "key_name": "4-Chloro-3-pyridinamine",
    "cn_name": "3-氨基-4-氯吡啶;4-氯-3-氨基吡啶;",
    "alternate_name": "3-Pyridinamine, 4-chloro-;Pyridine, 3-amino-4-chloro-;4-Chloro-3-pyridinamine;3-Amino-4-chloropyridine;4-Chloro-3-aminopyridine;4-Chloropyrid-3-ylamine;(4-Chloropyridin-3-yl)amine",
    "duplicated_cas_no": "",
    "SMILES": "ClC=1C(N)=CN=CC1",
    "meta_data": {
        "InChI": "InChI=1S/C5H5ClN2/c6-4-1-2-8-3-5(4)7/h1-3H,7H2",
        "InChIKey": null,
        "Canonical SMILES": "ClC=1C=CN=CC1N",
        "Molecular Formula": "C<sub>5</sub>H<sub>5</sub>ClN<sub>2</sub>",
        "Molecular Mass": "128.56",
        "Melting Point": "82 °C"
    }
}