{
    "cas_no": "83657-22-1",
    "key_name": "Uniconazole",
    "cn_name": "烯效唑;(E)-(RS)-1-(4-氯苯基)-4,4-二甲基-2-(1H-,2,4-三唑-1-基)戊-1-烯-3-醇;",
    "alternate_name": "1<em>H</em>-1,2,4-Triazole-1-ethanol, β-[(4-chlorophenyl)methylene]-α-(1,1-dimethylethyl)-, (β<em>E</em>)-;1<em>H</em>-1,2,4-Triazole-1-ethanol, β-[(4-chlorophenyl)methylene]-α-(1,1-dimethylethyl)-, (<em>E</em>)-(±)-;(β<em>E</em>)-β-[(4-Chlorophenyl)methylene]-α-(1,1-dimethylethyl)-1<em>H</em>-1,2,4-triazole-1-ethanol;Uniconazole;XE 1019;Sumagic;Prunit;M 13144;Sumiseven;XE 1019D;S 3307D;S 327D;S 07;S 3307;Majic S 3307D;Majic;1<em>H</em>-1,2,4-Triazole-1-ethanol, β-[(4-chlorophenyl)methylene]-α-(1,1-dimethylethyl)-, (<em>E</em>)-;Pentefenzol;(<em>E</em>)-1-(4-Chlorophenyl)-4,4-dimethyl-2-(1,2,4-triazol-1-yl)-1-penten-3-ol;(βE)-β-[(4-Chlorophenyl)methylene]-α-(1,1-dimethylethyl)-1<em>H</em>-1,2,4-triazole-1-ethanol",
    "duplicated_cas_no": "105465-87-0;76714-83-5;1135441-36-9",
    "SMILES": "C(=C\\C1=CC=C(Cl)C=C1)(\\C(C(C)(C)C)O)/N2C=NC=N2",
    "meta_data": {
        "InChI": "InChI=1/C15H18ClN3O/c1-15(2,3)14(20)13(19-10-17-9-18-19)8-11-4-6-12(16)7-5-11/h4-10,14,20H,1-3H3/b13-8+",
        "InChIKey": null,
        "Canonical SMILES": "ClC1=CC=C(C=C1)C=C(N2N=CN=C2)C(O)C(C)(C)C",
        "Molecular Formula": "C<sub>15</sub>H<sub>18</sub>ClN<sub>3</sub>O",
        "Molecular Mass": "291.78",
        "Melting Point": "153 °C"
    }
}