{
    "cas_no": "109-97-7",
    "key_name": "1<em>H</em>-Pyrrole",
    "cn_name": "吡咯;氮杂茂;",
    "alternate_name": "1<em>H</em>-Pyrrole;Pyrrole;1-Aza-2,4-cyclopentadiene;Azole;Divinylenimine;Imidole;Monopyrrole;NSC 62777",
    "duplicated_cas_no": "21995-14-2;45361-50-0;1201695-24-0",
    "SMILES": "C=1C=CNC1",
    "meta_data": {
        "InChI": "InChI=1S/C4H5N/c1-2-4-5-3-1/h1-5H",
        "InChIKey": null,
        "Canonical SMILES": "C=1C=CNC1",
        "Molecular Formula": "C<sub>4</sub>H<sub>5</sub>N",
        "Molecular Mass": "67.09",
        "Boiling Point": "129.7 °C",
        "Melting Point": "-23.4 °C",
        "Density": "0.9698 g/cm³ @ Temp: 20 °C"
    }
}