{
    "cas_no": "17252-51-6",
    "key_name": "1,3-Bis(4′-pyridyl)propane",
    "cn_name": "4,4\"-(1,3-丙二基)双吡啶;",
    "alternate_name": "Pyridine, 4,4′-(1,3-propanediyl)bis-;Pyridine, 4,4′-trimethylenedi-;4,4′-(1,3-Propanediyl)bis[pyridine];1,3-Di-4-pyridylpropane;4,4′-Trimethylenedipyridine;4,4′-Trimethylenebispyridine;1,3-Bis(4-pyridyl)propane;4,4′-Bis(1,3-propanediyl)pyridine;1,3-Bis(4-pyridinyl)propane;NSC 42785;1,3-Bis(4′-pyridyl)propane;1,3-Bi(4-pyridyl)propane;1,3-Di(pyridin-4-yl)propane",
    "duplicated_cas_no": "862010-21-7",
    "SMILES": "C(CCC=1C=CN=CC1)C=2C=CN=CC2",
    "meta_data": {
        "InChI": "InChI=1S/C13H14N2/c1(2-12-4-8-14-9-5-12)3-13-6-10-15-11-7-13/h4-11H,1-3H2",
        "InChIKey": null,
        "Canonical SMILES": "N=1C=CC(=CC1)CCCC=2C=CN=CC2",
        "Molecular Formula": "C<sub>13</sub>H<sub>14</sub>N<sub>2</sub>",
        "Molecular Mass": "198.26",
        "Boiling Point": "158-162 °C @ Press: 2 Torr",
        "Melting Point": "57-60 °C"
    }
}