{
    "cas_no": "100-28-7",
    "key_name": "4-Nitrophenyl isocyanate",
    "cn_name": "异氰酸对硝基苯;对硝基苯异氰酸酯;",
    "alternate_name": "Benzene, 1-isocyanato-4-nitro-;Isocyanic acid, <em>p</em>-nitrophenyl ester;1-Isocyanato-4-nitrobenzene;4-Nitrophenyl isocyanate;<em>p</em>-Nitrophenyl isocyanate;1-Nitro-4-isocyanatobenzene;NSC 9800",
    "duplicated_cas_no": "",
    "SMILES": "N(=O)(=O)C1=CC=C(N=C=O)C=C1",
    "meta_data": {
        "InChI": "InChI=1S/C7H4N2O3/c10-5-8-6-1-3-7(4-2-6)9(11)12/h1-4H",
        "InChIKey": null,
        "Canonical SMILES": "O=C=NC1=CC=C(C=C1)N(=O)=O",
        "Molecular Formula": "C<sub>7</sub>H<sub>4</sub>N<sub>2</sub>O<sub>3</sub>",
        "Molecular Mass": "164.12",
        "Boiling Point": "162-164 °C",
        "Melting Point": "57 °C"
    }
}