{
    "cas_no": "2418-14-6",
    "key_name": "Dimercaptosuccinic acid",
    "cn_name": "2,3-二巯基丁二酸;2,3-二巯基琥珀酸;",
    "alternate_name": "Butanedioic acid, 2,3-dimercapto-;Succinic acid, 2,3-dimercapto-;2,3-Dimercaptobutanedioic acid;Dimercaptosuccinic acid;α,β-Dimercaptosuccinic acid;2,3-Dimercaptosuccinic acid;Asta 7512;DMSA;NSC 259951;2,3-Disulfanylbutanedioic acid",
    "duplicated_cas_no": "",
    "SMILES": "C(C(C(O)=O)S)(C(O)=O)S",
    "meta_data": {
        "InChI": "InChI=1S/C4H6O4S2/c5-3(6)1(9)2(10)4(7)8/h1-2,9-10H,(H,5,6)(H,7,8)",
        "InChIKey": null,
        "Canonical SMILES": "O=C(O)C(S)C(S)C(=O)O",
        "Molecular Formula": "C<sub>4</sub>H<sub>6</sub>O<sub>4</sub>S<sub>2</sub>",
        "Molecular Mass": "182.22",
        "Melting Point": "167-168 °C"
    }
}