{
    "cas_no": "21898-19-1",
    "key_name": "Clenbuterol hydrochloride",
    "cn_name": "盐酸克仑特罗;4-氨基-alpha-[(叔丁基氨基)甲基]-3,5-二氯苄醇盐酸盐;",
    "alternate_name": "Benzenemethanol, 4-amino-3,5-dichloro-α-[[(1,1-dimethylethyl)amino]methyl]-, hydrochloride (1:1);Benzyl alcohol, 4-amino-α-[(<em>tert</em>-butylamino)methyl]-3,5-dichloro-, monohydrochloride;Benzenemethanol, 4-amino-3,5-dichloro-α-[[(1,1-dimethylethyl)amino]methyl]-, monohydrochloride;1-(4-Amino-3,5-dichlorophenyl)-2-(<em>tert</em>-butylamino)ethanol hydrochloride;NAB 365;NAB 365Cl;Clenbuterol hydrochloride;Spiropent;4-Amino-α-(<em>tert</em>-butylaminomethyl)-3,5-dichlorobenzyl alcohol monohydrochloride;Ventipulmin;Clenasma",
    "duplicated_cas_no": "53144-57-3;69930-61-6",
    "SMILES": "C(CNC(C)(C)C)(O)C1=CC(Cl)=C(N)C(Cl)=C1.Cl",
    "meta_data": {
        "InChI": "InChI=1S/C12H18Cl2N2O.ClH/c1-12(2,3)16-6-10(17)7-4-8(13)11(15)9(14)5-7;/h4-5,10,16-17H,6,15H2,1-3H3;1H",
        "InChIKey": null,
        "Canonical SMILES": "Cl.ClC=1C=C(C=C(Cl)C1N)C(O)CNC(C)(C)C",
        "Molecular Formula": "C<sub>12</sub>H<sub>18</sub>Cl<sub>2</sub>N<sub>2</sub>O.ClH",
        "Molecular Mass": "",
        "Melting Point": "174-175 °C"
    }
}