{
    "cas_no": "565-71-9",
    "key_name": "Isoserine",
    "cn_name": "DL-异丝氨酸;3-氨基-2-羟基丙酸;",
    "alternate_name": "Propanoic acid, 3-amino-2-hydroxy-;Isoserine;3-Amino-2-hydroxypropanoic acid;3-Aminolactic acid;2-Hydroxy-β-alanine;3-Amino-2-hydroxypropionic acid;<span class=\"text-smallcaps\">DL</span>-Isoserine;(±)-Isoserine",
    "duplicated_cas_no": "632-12-2;52590-58-6",
    "SMILES": "C(C(O)=O)(CN)O",
    "meta_data": {
        "InChI": "InChI=1S/C3H7NO3/c4-1-2(5)3(6)7/h2,5H,1,4H2,(H,6,7)",
        "InChIKey": null,
        "Canonical SMILES": "O=C(O)C(O)CN",
        "Molecular Formula": "C<sub>3</sub>H<sub>7</sub>NO<sub>3</sub>",
        "Molecular Mass": "105.09",
        "Melting Point": "245 °C"
    }
}