{
    "cas_no": "993-07-7",
    "key_name": "Trimethylsilane",
    "cn_name": "三甲基硅烷;",
    "alternate_name": "Silane, trimethyl-;Trimethylsilane;2-Methyl-2-silapropane;Trimethylsilyl hydride;Dow Corning 9-5170",
    "duplicated_cas_no": "1223582-73-7",
    "SMILES": "[SiH](C)(C)C",
    "meta_data": {
        "InChI": "InChI=1S/C3H10Si/c1-4(2)3/h4H,1-3H3",
        "InChIKey": null,
        "Canonical SMILES": "C[SiH](C)C",
        "Molecular Formula": "C<sub>3</sub>H<sub>10</sub>Si",
        "Molecular Mass": "74.20",
        "Boiling Point": "6.7 °C",
        "Melting Point": "-135.9 °C",
        "Density": "0.638 g/cm³ @ Temp: 6.7 °C"
    }
}