{
    "cas_no": "13258-63-4",
    "key_name": "4-Pyridineethanamine",
    "cn_name": "4-(2-氨基乙基)吡啶;",
    "alternate_name": "4-Pyridineethanamine;Pyridine, 4-(2-aminoethyl)-;4-(2-Aminoethyl)pyridine;4-Pyridylethylamine;2-(γ-Pyridyl)ethylamine;2-(4-Pyridyl)ethylamine;4-(β-Aminoethyl)pyridine;2-(4-Pyridyl)ethanamine;2-(4-Pyridinyl)ethylamine;NSC 194298;2-(Pyridin-4-yl)ethanamine;2-(Pyridine-4-yl)ethanamine;2-(Pyridin-4-yl)ethan-1-amine",
    "duplicated_cas_no": "",
    "SMILES": "C(CN)C=1C=CN=CC1",
    "meta_data": {
        "InChI": "InChI=1S/C7H10N2/c8-4-1-7-2-5-9-6-3-7/h2-3,5-6H,1,4,8H2",
        "InChIKey": null,
        "Canonical SMILES": "N=1C=CC(=CC1)CCN",
        "Molecular Formula": "C<sub>7</sub>H<sub>10</sub>N<sub>2</sub>",
        "Molecular Mass": "122.17",
        "Boiling Point": "221-223 °C",
        "Melting Point": "115-116 °C"
    }
}