{
    "cas_no": "3085-42-5",
    "key_name": "1,1′-Sulfinylbis[4-chlorobenzene]",
    "cn_name": "4,4\"-二氯二苯基亚砜;",
    "alternate_name": "Benzene, 1,1′-sulfinylbis[4-chloro-;Sulfoxide, bis(<em>p</em>-chlorophenyl);1,1′-Sulfinylbis[4-chlorobenzene];4,4′-Dichlorodiphenyl sulfoxide;Bis(<em>p</em>-chlorophenyl) sulfoxide;<em>p</em>-Chlorophenyl sulfoxide;<em>p</em>,<em>p</em>′-Dichlorodiphenyl sulfoxide;Di-<em>p</em>-chlorophenyl sulfoxide;Bis(4-chlorophenyl) sulfoxide;4-Chlorophenyl sulfoxide;NSC 406205;1-Chloro-4-(4-chlorophenyl)sulfinylbenzene;4,4′-Sulfinyl bis(chlorobenzene)",
    "duplicated_cas_no": "",
    "SMILES": "S(=O)(C1=CC=C(Cl)C=C1)C2=CC=C(Cl)C=C2",
    "meta_data": {
        "InChI": "InChI=1S/C12H8Cl2OS/c13-9-1-5-11(6-2-9)16(15)12-7-3-10(14)4-8-12/h1-8H",
        "InChIKey": null,
        "Canonical SMILES": "O=S(C1=CC=C(Cl)C=C1)C2=CC=C(Cl)C=C2",
        "Molecular Formula": "C<sub>12</sub>H<sub>8</sub>Cl<sub>2</sub>OS",
        "Molecular Mass": "271.16",
        "Melting Point": "143 °C"
    }
}