{
    "cas_no": "692-86-4",
    "key_name": "Ethyl 10-undecenoate",
    "cn_name": null,
    "alternate_name": "10-Undecenoic acid, ethyl ester;Ethyl 10-undecenoate;Ethyl undecenoate",
    "duplicated_cas_no": "36118-46-4;62453-48-9",
    "SMILES": "C(CCCCCCCC=C)C(OCC)=O",
    "meta_data": {
        "InChI": "InChI=1S/C13H24O2/c1-3-5-6-7-8-9-10-11-12-13(14)15-4-2/h3H,1,4-12H2,2H3",
        "InChIKey": null,
        "Canonical SMILES": "O=C(OCC)CCCCCCCCC=C",
        "Molecular Formula": "C<sub>13</sub>H<sub>24</sub>O<sub>2</sub>",
        "Molecular Mass": "212.33",
        "Boiling Point": "264.5 °C",
        "Melting Point": "-38 °C"
    }
}