{
    "cas_no": "107263-95-6",
    "key_name": "Pyridinium, 1-fluoro-, 1,1,1-trifluoromethanesulfonate (1:1)",
    "cn_name": "三氟甲磺酸N-吡啶鎓;1-氟吡啶三氟甲磺酸盐;N-氟吡啶三氟甲磺酸盐;",
    "alternate_name": "Pyridinium, 1-fluoro-, 1,1,1-trifluoromethanesulfonate (1:1);Pyridinium, 1-fluoro-, salt with trifluoromethanesulfonic acid (1:1);Methanesulfonic acid, trifluoro-, ion(1-), 1-fluoropyridinium;<em>N</em>-Fluoropyridinium triflate;1-Fluoropyridinium triflate;FP-T 500;<em>N</em>-Fluoropyridinium trifluoromethanesulfonate;Florinate FP-T 500;1-Fluoropyridinium salt with trifluoromethanesulfonic acid (1:1)",
    "duplicated_cas_no": "",
    "SMILES": "F[N+]=1C=CC=CC1.C(S(=O)(=O)[O-])(F)(F)F",
    "meta_data": {
        "InChI": "InChI=1S/C5H5FN.CHF3O3S/c6-7-4-2-1-3-5-7;2-1(3,4)8(5,6)7/h1-5H;(H,5,6,7)/q+1;/p-1",
        "InChIKey": null,
        "Canonical SMILES": "O=S(=O)([O-])C(F)(F)F.F[N+]=1C=CC=CC1",
        "Molecular Formula": "C<sub>5</sub>H<sub>5</sub>FN.CF<sub>3</sub>O<sub>3</sub>S",
        "Molecular Mass": "",
        "Melting Point": "185-187 °C"
    }
}