{
    "cas_no": "17878-39-6",
    "key_name": "(Ethenylmethylsilyl)benzene",
    "cn_name": "甲基苯乙烯硅烷;",
    "alternate_name": "Benzene, (ethenylmethylsilyl)-;Silane, methylphenylvinyl-;Silane, ethenylmethylphenyl-;(Ethenylmethylsilyl)benzene;Methylphenylvinylsilane;Phenylmethylvinylsilane;(Ethenyl)(methyl)(phenyl)silane",
    "duplicated_cas_no": "147377-51-3",
    "SMILES": "[SiH](C=C)(C)C1=CC=CC=C1",
    "meta_data": {
        "InChI": "InChI=1S/C9H12Si/c1-3-10(2)9-7-5-4-6-8-9/h3-8,10H,1H2,2H3",
        "InChIKey": null,
        "Canonical SMILES": "C=C[SiH](C=1C=CC=CC1)C",
        "Molecular Formula": "C<sub>9</sub>H<sub>12</sub>Si",
        "Molecular Mass": "148.28",
        "Boiling Point": "56-57 °C @ Press: 7 Torr",
        "Density": "0.891 g/cm³"
    }
}