{
    "cas_no": "2518-24-3",
    "key_name": "3-Aminophthalimide",
    "cn_name": "3-氨基邻苯二甲酰亚胺;",
    "alternate_name": "1<em>H</em>-Isoindole-1,3(2<em>H</em>)-dione, 4-amino-;Phthalimide, 3-amino-;4-Amino-1<em>H</em>-isoindole-1,3(2<em>H</em>)-dione;3-Aminophthalimide;4-Amino-1,3-dioxo-2,3-dihydro-1<em>H</em>-isoindole;4-Amino-1H-isoindole-1,3(2H)-dione;4-Aminoisoindoline-1,3-dione",
    "duplicated_cas_no": "",
    "SMILES": "NC1=C2C(C(=O)NC2=O)=CC=C1",
    "meta_data": {
        "InChI": "InChI=1S/C8H6N2O2/c9-5-3-1-2-4-6(5)8(12)10-7(4)11/h1-3H,9H2,(H,10,11,12)",
        "InChIKey": null,
        "Canonical SMILES": "O=C1NC(=O)C=2C(N)=CC=CC12",
        "Molecular Formula": "C<sub>8</sub>H<sub>6</sub>N<sub>2</sub>O<sub>2</sub>",
        "Molecular Mass": "162.15",
        "Melting Point": "268-269 °C"
    }
}