{
    "cas_no": "141524-74-5",
    "key_name": "4-Bromo-1-methyl-1<em>H</em>-imidazole-5-carboxaldehyde",
    "cn_name": null,
    "alternate_name": "1<em>H</em>-Imidazole-5-carboxaldehyde, 4-bromo-1-methyl-;4-Bromo-1-methyl-1<em>H</em>-imidazole-5-carboxaldehyde;4-Bromo-1-methylimidazole-5-carboxaldehyde",
    "duplicated_cas_no": "",
    "SMILES": "C(=O)C1=C(Br)N=CN1C",
    "meta_data": {
        "InChI": "InChI=1S/C5H5BrN2O/c1-8-3-7-5(6)4(8)2-9/h2-3H,1H3",
        "InChIKey": null,
        "Canonical SMILES": "O=CC1=C(Br)N=CN1C",
        "Molecular Formula": "C<sub>5</sub>H<sub>5</sub>BrN<sub>2</sub>O",
        "Molecular Mass": "189.01",
        "Melting Point": "87-92 °C"
    }
}