{
    "cas_no": "3753-05-7",
    "key_name": "4,4′-[1,2-Ethanediylbis(oxy)]bis[benzoic acid]",
    "cn_name": "乙二醇双(对羧基苯)醚;",
    "alternate_name": "Benzoic acid, 4,4′-[1,2-ethanediylbis(oxy)]bis-;Benzoic acid, 4,4′-(ethylenedioxy)di-;4,4′-[1,2-Ethanediylbis(oxy)]bis[benzoic acid];α,α′-Bi-<em>p</em>-anisic acid;1,2-Bis(<em>p</em>-carboxyphenoxy)ethane;4,4′-Ethylenedioxybis[benzoic acid];1,2-Bis(4-carboxyphenoxy)ethane;4,4′-(Ethylenedioxy)dibenzoic acid;1,2-Diphenoxyethane-4,4′-dicarboxylic acid",
    "duplicated_cas_no": "",
    "SMILES": "C(O)(=O)C1=CC=C(OCCOC2=CC=C(C(O)=O)C=C2)C=C1",
    "meta_data": {
        "InChI": "InChI=1S/C16H14O6/c17-15(18)11-1-5-13(6-2-11)21-9-10-22-14-7-3-12(4-8-14)16(19)20/h1-8H,9-10H2,(H,17,18)(H,19,20)",
        "InChIKey": null,
        "Canonical SMILES": "O=C(O)C1=CC=C(OCCOC2=CC=C(C=C2)C(=O)O)C=C1",
        "Molecular Formula": "C<sub>16</sub>H<sub>14</sub>O<sub>6</sub>",
        "Molecular Mass": "302.28",
        "Melting Point": "352-355 °C"
    }
}