{
    "cas_no": "245653-52-5",
    "key_name": "2-Methyl-7-(4-<em>tert</em>-butylphenyl)-1<em>H</em>-indene",
    "cn_name": "7-(4-叔丁基苯基)-2-甲基-1H-茚;",
    "alternate_name": "1<em>H</em>-Indene, 7-[4-(1,1-dimethylethyl)phenyl]-2-methyl-;7-[4-(1,1-Dimethylethyl)phenyl]-2-methyl-1<em>H</em>-indene;2-Methyl-7-(4-<em>tert</em>-butylphenyl)-1<em>H</em>-indene",
    "duplicated_cas_no": "",
    "SMILES": "CC=1CC2=C(C=CC=C2C1)C3=CC=C(C(C)(C)C)C=C3",
    "meta_data": {
        "InChI": "InChI=1S/C20H22/c1-14-12-16-6-5-7-18(19(16)13-14)15-8-10-17(11-9-15)20(2,3)4/h5-12H,13H2,1-4H3",
        "InChIKey": null,
        "Canonical SMILES": "C1=CC=2C=C(C)CC2C(=C1)C3=CC=C(C=C3)C(C)(C)C",
        "Molecular Formula": "C<sub>20</sub>H<sub>22</sub>",
        "Molecular Mass": "262.39",
        "Melting Point": "66-68 °C"
    }
}