{
    "cas_no": "106-30-9",
    "key_name": "Ethyl heptanoate",
    "cn_name": "庚酸乙酯;",
    "alternate_name": "Heptanoic acid, ethyl ester;Enanthic acid, ethyl ester;Cognac oil;Enanthylic ether;Ethyl enanthate;Ethyl heptanoate;Ethyl heptoate;Ethyl heptylate;Ethyl oenanthate;Ethyl oenanthylate;Oenanthic ether;Ethyl <em>n</em>-heptanoate;NSC 8891;Synthetic cognac oil",
    "duplicated_cas_no": "",
    "SMILES": "C(CCCCCC)(OCC)=O",
    "meta_data": {
        "InChI": "InChI=1S/C9H18O2/c1-3-5-6-7-8-9(10)11-4-2/h3-8H2,1-2H3",
        "InChIKey": null,
        "Canonical SMILES": "O=C(OCC)CCCCCC",
        "Molecular Formula": "C<sub>9</sub>H<sub>18</sub>O<sub>2</sub>",
        "Molecular Mass": "158.24",
        "Boiling Point": "187 °C",
        "Melting Point": "-66.1 °C",
        "Density": "0.7775 g/cm³ @ Temp: 20 °C"
    }
}