{
    "cas_no": "6213-19-0",
    "key_name": "2-Chloro-<em>N</em>,<em>N</em>-dimethyl-4-nitrobenzenamine",
    "cn_name": null,
    "alternate_name": "Benzenamine, 2-chloro-<em>N</em>,<em>N</em>-dimethyl-4-nitro-;Aniline, 2-chloro-<em>N</em>,<em>N</em>-dimethyl-4-nitro-;2-Chloro-<em>N</em>,<em>N</em>-dimethyl-4-nitrobenzenamine;3-Chloro-4-(dimethylamino)nitrobenzene;2-Chloro-<em>N</em>,<em>N</em>-dimethyl-4-nitroaniline;(2-Chloro-4-nitro-phenyl)-dimethyl-amine",
    "duplicated_cas_no": "",
    "SMILES": "N(=O)(=O)C1=CC(Cl)=C(N(C)C)C=C1",
    "meta_data": {
        "InChI": "InChI=1S/C8H9ClN2O2/c1-10(2)8-4-3-6(11(12)13)5-7(8)9/h3-5H,1-2H3",
        "InChIKey": null,
        "Canonical SMILES": "O=N(=O)C1=CC=C(C(Cl)=C1)N(C)C",
        "Molecular Formula": "C<sub>8</sub>H<sub>9</sub>ClN<sub>2</sub>O<sub>2</sub>",
        "Molecular Mass": "200.62",
        "Melting Point": "78 °C"
    }
}