{
    "cas_no": "7440-67-7",
    "key_name": "Zirconium",
    "cn_name": null,
    "alternate_name": "Zirconium;Zirconium element;ZREO 2PB;MeSH ID: D015040",
    "duplicated_cas_no": "141631-74-5;141631-75-6;141631-77-8;182260-46-4;1864797-49-8",
    "SMILES": "[Zr]",
    "meta_data": {
        "InChI": "InChI=1S/Zr",
        "InChIKey": null,
        "Canonical SMILES": "[Zr]",
        "Molecular Formula": "Zr",
        "Molecular Mass": "",
        "Boiling Point": "3577 °C",
        "Melting Point": "1857 °C",
        "Density": "6.49 g/cm³"
    }
}