{
    "cas_no": "2987-46-4",
    "key_name": "Rhodan",
    "cn_name": "硫氰基苯胺;4-氰硫基苯胺;对硫氰酸基苯胺；对硫氰基苯胺；对氰硫基苯胺;",
    "alternate_name": "Thiocyanic acid, 4-aminophenyl ester;Thiocyanic acid, <em>p</em>-aminophenyl ester;Aniline, <em>p</em>-thiocyano-;<em>p</em>-Rhodananiline;<em>p</em>-Thiocyanatoaniline;Rodan;1-Amino-4-thiocyanatobenzene;Rhodan;4-Thiocyanatobenzenamine;4-Thiocyanatoaniline;<em>p</em>-(Thiocyano)aniline;4-Thiocyanoaniline;4-Aminophenyl thiocyanate;NSC 227955;Rodethanil",
    "duplicated_cas_no": "",
    "SMILES": "S(C#N)C1=CC=C(N)C=C1",
    "meta_data": {
        "InChI": "InChI=1S/C7H6N2S/c8-5-10-7-3-1-6(9)2-4-7/h1-4H,9H2",
        "InChIKey": null,
        "Canonical SMILES": "N#CSC1=CC=C(N)C=C1",
        "Molecular Formula": "C<sub>7</sub>H<sub>6</sub>N<sub>2</sub>S",
        "Molecular Mass": "150.20",
        "Melting Point": "57-57.5 °C",
        "Density": "1.37 g/cm³"
    }
}