{
    "cas_no": "143314-16-3",
    "key_name": "1-Ethyl-3-methylimidazolium tetrafluoroborate",
    "cn_name": "1-乙基-3-甲基咪唑四氟硼酸盐;",
    "alternate_name": "1<em>H</em>-Imidazolium, 3-ethyl-1-methyl-, tetrafluoroborate(1-) (1:1);1-Ethyl-3-methylimidazolium tetrafluoroborate;1-Ethyl-3-methyl-1<em>H</em>-imidazolium tetrafluoroborate(1-);3-Ethyl-1-methylimidazolium tetrafluoroborate;<em>N</em>-Methyl-<em>N</em>′-ethylimidazolium tetrafluoroborate;1-Ethyl-3-methyl-1<em>H</em>-imidazolium tetrafluoroborate;Ethylmethylimidazolium tetrafluoroborate;1-Ethyl-3-methylimidazolium tetrafluoroborate(1-);1-Methyl-3-ethylimidazolium tetrafluoroborate;SA 3;1-Ethyl-3-methylimidazolium tetrafluroborate",
    "duplicated_cas_no": "221200-96-0;1258269-00-9",
    "SMILES": "C(C)[N+]1=CN(C)C=C1.[B+3]([F-])([F-])([F-])[F-]",
    "meta_data": {
        "InChI": "InChI=1S/C6H11N2.BF4/c1-3-8-5-4-7(2)6-8;2-1(3,4)5/h4-6H,3H2,1-2H3;/q+1;-1",
        "InChIKey": null,
        "Canonical SMILES": "[F-][B+3]([F-])([F-])[F-].C1=C[N+](=CN1C)CC",
        "Molecular Formula": "C<sub>6</sub>H<sub>11</sub>N<sub>2</sub>.BF<sub>4</sub>",
        "Molecular Mass": "",
        "Melting Point": "13 °C",
        "Density": "1.28 g/cm³ @ Temp: Room temp"
    }
}