{
    "cas_no": "7663-77-6",
    "key_name": "1-(3-Aminopropyl)-2-pyrrolidinone",
    "cn_name": "1-(3-氨丙基)-2-吡咯烷酮;N-(3-丙胺基)-2-吡咯烷酮;N-(3-氨丙基)-2-吡咯烷酮;",
    "alternate_name": "2-Pyrrolidinone, 1-(3-aminopropyl)-;1-(3-Aminopropyl)-2-pyrrolidinone;<em>N</em>-(3-Aminopropyl)-γ-butyrolactam;<em>N</em>-(3-Aminopropyl)-2-pyrrolidinone;<em>N</em>-(3-Aminopropyl)-2-pyrrolidone;Acisoga;1-(3-Aminopropyl)-2-pyrrolidone;3-(2-Oxo-1-pyrrolidinyl)propylamine;1-(3-Aminopropyl)-2-oxopyrrolidine;[3-(2-Oxopyrrolidino)propyl]amine;NSC 108683;1-(3-Aminopropyl)pyrrolidin-2-one;2-Oxo-1-pyrrolidinepropanamine",
    "duplicated_cas_no": "1260848-40-5",
    "SMILES": "C(CCN)N1C(=O)CCC1",
    "meta_data": {
        "InChI": "InChI=1S/C7H14N2O/c8-4-2-6-9-5-1-3-7(9)10/h1-6,8H2",
        "InChIKey": null,
        "Canonical SMILES": "O=C1N(CCCN)CCC1",
        "Molecular Formula": "C<sub>7</sub>H<sub>14</sub>N<sub>2</sub>O",
        "Molecular Mass": "142.20",
        "Boiling Point": "121-124 °C @ Press: 1.5 Torr"
    }
}