{
    "cas_no": "13519-90-9",
    "key_name": "4-Fluoro-1,3-benzenedicarbonitrile",
    "cn_name": "4-氟间苯二腈;",
    "alternate_name": "1,3-Benzenedicarbonitrile, 4-fluoro-;Isophthalonitrile, 4-fluoro-;4-Fluoro-1,3-benzenedicarbonitrile;4-Fluoroisophthalonitrile",
    "duplicated_cas_no": "",
    "SMILES": "C(#N)C1=CC(C#N)=CC=C1F",
    "meta_data": {
        "InChI": "InChI=1S/C8H3FN2/c9-8-2-1-6(4-10)3-7(8)5-11/h1-3H",
        "InChIKey": null,
        "Canonical SMILES": "N#CC1=CC=C(F)C(C#N)=C1",
        "Molecular Formula": "C<sub>8</sub>H<sub>3</sub>FN<sub>2</sub>",
        "Molecular Mass": "146.12",
        "Melting Point": "82-84 °C"
    }
}