{
    "cas_no": "2379-57-9",
    "key_name": "DNQX",
    "cn_name": "二硝基喹酮;",
    "alternate_name": "2,3-Quinoxalinedione, 1,4-dihydro-6,7-dinitro-;2,3-Quinoxalinediol, 6,7-dinitro-;1,4-Dihydro-6,7-dinitro-2,3-quinoxalinedione;6,7-Dinitro-2,3-dihydroxyquinoxaline;FG 9041;DNQX;6,7-Dinitroquinoxaline-2,3-(1<em>H</em>,4<em>H</em>)-dione",
    "duplicated_cas_no": "",
    "SMILES": "N(=O)(=O)C1=C(N(=O)=O)C=C2C(=C1)NC(=O)C(=O)N2",
    "meta_data": {
        "InChI": "InChI=1S/C8H4N4O6/c13-7-8(14)10-4-2-6(12(17)18)5(11(15)16)1-3(4)9-7/h1-2H,(H,9,13)(H,10,14)",
        "InChIKey": null,
        "Canonical SMILES": "O=C1NC=2C=C(C(=CC2NC1=O)N(=O)=O)N(=O)=O",
        "Molecular Formula": "C<sub>8</sub>H<sub>4</sub>N<sub>4</sub>O<sub>6</sub>",
        "Molecular Mass": "252.14",
        "Melting Point": "&gt;360 °C"
    }
}