{
    "cas_no": "2338-18-3",
    "key_name": "2-Aminoindan hydrochloride",
    "cn_name": "2-氨基茚满盐酸盐;",
    "alternate_name": "1<em>H</em>-Inden-2-amine, 2,3-dihydro-, hydrochloride (1:1);2-Indanamine, hydrochloride;1<em>H</em>-Inden-2-amine, 2,3-dihydro-, hydrochloride;SU 8629 hydrochloride;2-Aminoindan hydrochloride;2-Amino-2,3-dihydro-1<em>H</em>-indene hydrochloride;Indan-2-ylamine hydrochloride;2-Aminoindan monohydrochloride;(2,3-Dihydro-1<em>H</em>-inden-2-yl)amine hydrochloride;2,3-Dihydro-1<em>H</em>-inden-2-amine hydrochloride;2,3-dihydro-1H-inden-2-amine hydrochloride (1:1);2,3-Dihydro-1<em>H</em>-inden-2-aminium chloride",
    "duplicated_cas_no": "",
    "SMILES": "NC1CC=2C(C1)=CC=CC2.Cl",
    "meta_data": {
        "InChI": "InChI=1S/C9H11N.ClH/c10-9-5-7-3-1-2-4-8(7)6-9;/h1-4,9H,5-6,10H2;1H",
        "InChIKey": null,
        "Canonical SMILES": "Cl.NC1CC=2C=CC=CC2C1",
        "Molecular Formula": "C<sub>9</sub>H<sub>11</sub>N.ClH",
        "Molecular Mass": "",
        "Melting Point": "240 °C"
    }
}