{
    "cas_no": "5111-70-6",
    "key_name": "5-Methoxy-1-indanone",
    "cn_name": "5-甲氧基-1-茚酮;5-甲氧基茚酮;",
    "alternate_name": "1<em>H</em>-Inden-1-one, 2,3-dihydro-5-methoxy-;1-Indanone, 5-methoxy-;2,3-Dihydro-5-methoxy-1<em>H</em>-inden-1-one;5-Methoxy-1-indanone;5-Methoxyhydrindone;5-Methoxyindanone;NSC 82964;5-Methoxy-2,3-dihydro-1<em>H</em>-inden-1-one;2,3-Dihydro-5-methoxyinden-1-one",
    "duplicated_cas_no": "1082840-84-3",
    "SMILES": "O=C1C=2C(=CC(OC)=CC2)CC1",
    "meta_data": {
        "InChI": "InChI=1S/C10H10O2/c1-12-8-3-4-9-7(6-8)2-5-10(9)11/h3-4,6H,2,5H2,1H3",
        "InChIKey": null,
        "Canonical SMILES": "O=C1C2=CC=C(OC)C=C2CC1",
        "Molecular Formula": "C<sub>10</sub>H<sub>10</sub>O<sub>2</sub>",
        "Molecular Mass": "162.19",
        "Boiling Point": "145-150 °C @ Press: 0.2 Torr",
        "Melting Point": "110 °C"
    }
}