{
    "cas_no": "1591-99-7",
    "key_name": "2,3-Dimethylphenyl isocyanate",
    "cn_name": null,
    "alternate_name": "Benzene, 1-isocyanato-2,3-dimethyl-;Isocyanic acid, 2,3-xylyl ester;1-Isocyanato-2,3-dimethylbenzene;2,3-Dimethylphenyl isocyanate",
    "duplicated_cas_no": "",
    "SMILES": "N(=C=O)C1=C(C)C(C)=CC=C1",
    "meta_data": {
        "InChI": "InChI=1S/C9H9NO/c1-7-4-3-5-9(8(7)2)10-6-11/h3-5H,1-2H3",
        "InChIKey": null,
        "Canonical SMILES": "O=C=NC1=CC=CC(=C1C)C",
        "Molecular Formula": "C<sub>9</sub>H<sub>9</sub>NO",
        "Molecular Mass": "147.17",
        "Boiling Point": "88-90 °C @ Press: 9.5 Torr"
    }
}