{
    "cas_no": "84487-14-9",
    "key_name": "2-Bromo-3-nitro-4-pyridinamine",
    "cn_name": null,
    "alternate_name": "4-Pyridinamine, 2-bromo-3-nitro-;Pyridine, 4-amino-2-bromo-3-nitro-;2-Bromo-3-nitro-4-pyridinamine;4-Amino-2-bromo-3-nitropyridine;2-Bromo-3-nitropyridin-4-amine;2-Bromo-3-nitropyridine-4-amine",
    "duplicated_cas_no": "",
    "SMILES": "N(=O)(=O)C=1C(N)=CC=NC1Br",
    "meta_data": {
        "InChI": "InChI=1S/C5H4BrN3O2/c6-5-4(9(10)11)3(7)1-2-8-5/h1-2H,(H2,7,8)",
        "InChIKey": null,
        "Canonical SMILES": "O=N(=O)C=1C(Br)=NC=CC1N",
        "Molecular Formula": "C<sub>5</sub>H<sub>4</sub>BrN<sub>3</sub>O<sub>2</sub>",
        "Molecular Mass": "218.01",
        "Melting Point": "197 °C"
    }
}