{
    "cas_no": "563-41-7",
    "key_name": "Aminourea hydrochloride",
    "cn_name": "盐酸氨基脲;",
    "alternate_name": "Hydrazinecarboxamide, hydrochloride (1:1);Semicarbazide, monohydrochloride;Hydrazinecarboxamide, monohydrochloride;Aminourea hydrochloride;Semicarbazide hydrochloride;Hydrazinecarboxamide, hydrochloride;Semicarbazide chloride",
    "duplicated_cas_no": "",
    "SMILES": "C(NN)(N)=O.Cl",
    "meta_data": {
        "InChI": "InChI=1S/CH5N3O.ClH/c2-1(5)4-3;/h3H2,(H3,2,4,5);1H",
        "InChIKey": null,
        "Canonical SMILES": "Cl.O=C(N)NN",
        "Molecular Formula": "CH<sub>5</sub>N<sub>3</sub>O.ClH",
        "Molecular Mass": "",
        "Melting Point": "175-185 °C"
    }
}