{
    "cas_no": "481-85-6",
    "key_name": "2-Methyl-1,4-naphthalenediol",
    "cn_name": null,
    "alternate_name": "1,4-Naphthalenediol, 2-methyl-;2-Methyl-1,4-naphthalenediol;Menadiol;2-Methyl-1,4-naphthoquinol;Vitamin K<sub>3</sub>H<sub>2</sub>;Dihydrovitamin K<sub>3</sub>;2-Methyl-1,4-naphthohydroquinone;Reduced menadione;2-Methylnaphthalene-1,4-diol;2-Methyl-1,4-dihydroxynaphthalene;2-Methylhydronaphthoquinone;Reduced vitamin K<sub>3</sub>;1,4-Dihydroxy-2-methylnaphthalene;4-Hydroxy-3-methyl-α-naphthol",
    "duplicated_cas_no": "",
    "SMILES": "OC=1C2=C(C(O)=CC1C)C=CC=C2",
    "meta_data": {
        "InChI": "InChI=1S/C11H10O2/c1-7-6-10(12)8-4-2-3-5-9(8)11(7)13/h2-6,12-13H,1H3",
        "InChIKey": null,
        "Canonical SMILES": "OC1=CC(=C(O)C=2C=CC=CC12)C",
        "Molecular Formula": "C<sub>11</sub>H<sub>10</sub>O<sub>2</sub>",
        "Molecular Mass": "174.20",
        "Melting Point": "169 °C"
    }
}