{
    "cas_no": "19402-64-3",
    "key_name": "Ammonium benzenesulfonate",
    "cn_name": "苯磺酸铵;",
    "alternate_name": "Benzenesulfonic acid, ammonium salt (1:1);Benzenesulfonic acid, ammonium salt;Ammonium benzenesulfonate",
    "duplicated_cas_no": "",
    "SMILES": "S(=O)(=O)(O)C1=CC=CC=C1.N",
    "meta_data": {
        "InChI": "InChI=1S/C6H6O3S.H3N/c7-10(8,9)6-4-2-1-3-5-6;/h1-5H,(H,7,8,9);1H3",
        "InChIKey": null,
        "Canonical SMILES": "O=S(=O)(O)C=1C=CC=CC1.N",
        "Molecular Formula": "C<sub>6</sub>H<sub>6</sub>O<sub>3</sub>S.H<sub>3</sub>N",
        "Molecular Mass": "",
        "Melting Point": "284-285 °C"
    }
}