{
    "cas_no": "5545-89-1",
    "key_name": "(3a<em>S</em>,3′a<em>S</em>,8a<em>S</em>,8′a<em>S</em>)-2,2′,3,3′,8,8′,8a,8′a-Octahydro-1,1′-dimethyl-3a,3′a(1<em>H</em>,1′<em>H</em>)-bipyrrolo[2,3-<em>b</em>]indole",
    "cn_name": null,
    "alternate_name": "3a,3′a(1<em>H</em>,1′<em>H</em>)-Bipyrrolo[2,3-<em>b</em>]indole, 2,2′,3,3′,8,8′,8a,8′a-octahydro-1,1′-dimethyl-, (3a<em>S</em>,3′a<em>S</em>,8a<em>S</em>,8′a<em>S</em>)-;Chimonanthine;Calycanthidine, 1-demethyl-;Pyrrolo[2,3-<em>b</em>]indole, calycanthidine deriv.;(3a<em>S</em>,3′a<em>S</em>,8a<em>S</em>,8′a<em>S</em>)-2,2′,3,3′,8,8′,8a,8′a-Octahydro-1,1′-dimethyl-3a,3′a(1<em>H</em>,1′<em>H</em>)-bipyrrolo[2,3-<em>b</em>]indole;(-)-Chimonanthine;Chimonanthin;<em>l</em>-Chimonanthine",
    "duplicated_cas_no": "23047-05-4;23102-84-3;856613-87-1",
    "SMILES": "CN1[C@]2([C@](C=3C(N2)=CC=CC3)(CC1)[C@]45C=6C(N[C@]4(N(C)CC5)[H])=CC=CC6)[H]",
    "meta_data": {
        "InChI": "InChI=1S/C22H26N4/c1-25-13-11-21(15-7-3-5-9-17(15)23-19(21)25)22-12-14-26(2)20(22)24-18-10-6-4-8-16(18)22/h3-10,19-20,23-24H,11-14H2,1-2H3/t19-,20-,21+,22+/m0/s1",
        "InChIKey": null,
        "Canonical SMILES": "C=1C=CC2=C(C1)NC3N(C)CCC23C45C=6C=CC=CC6NC5N(C)CC4",
        "Molecular Formula": "C<sub>22</sub>H<sub>26</sub>N<sub>4</sub>",
        "Molecular Mass": "346.47",
        "Melting Point": "188-189 °C"
    }
}