{
    "cas_no": "106261-64-7",
    "key_name": "Benzoyl chloride, 4-[(4-methyl-1-piperazinyl)methyl]-, hydrochloride (1:2)",
    "cn_name": "4-(4-甲基哌嗪甲基)苯甲酰氯二盐酸盐;",
    "alternate_name": "Benzoyl chloride, 4-[(4-methyl-1-piperazinyl)methyl]-, hydrochloride (1:2);Benzoyl chloride, 4-[(4-methyl-1-piperazinyl)methyl]-, dihydrochloride;4-(4-Methylpiperazinylmethyl)benzoyl chloride dihydrochloride;4-[(4-Methylpiperazin-1-yl)methyl]benzoyl chloride dihydrochloride",
    "duplicated_cas_no": "",
    "SMILES": "C(C1=CC=C(C(Cl)=O)C=C1)N2CCN(C)CC2.Cl",
    "meta_data": {
        "InChI": "InChI=1S/C13H17ClN2O.2ClH/c1-15-6-8-16(9-7-15)10-11-2-4-12(5-3-11)13(14)17;;/h2-5H,6-10H2,1H3;2*1H",
        "InChIKey": null,
        "Canonical SMILES": "Cl.O=C(Cl)C1=CC=C(C=C1)CN2CCN(C)CC2",
        "Molecular Formula": "C<sub>13</sub>H<sub>17</sub>ClN<sub>2</sub>O.2ClH",
        "Molecular Mass": "",
        "Melting Point": "300 °C (decomp)"
    }
}