{
    "cas_no": "7151-68-0",
    "key_name": "3-Methoxy-4-methylbenzoic acid",
    "cn_name": "3-甲氧基-4-甲基苯甲酸;",
    "alternate_name": "Benzoic acid, 3-methoxy-4-methyl-;<em>m</em>-Anisic acid, 4-methyl-;3-Methoxy-4-methylbenzoic acid;4-Methyl-3-methoxybenzoic acid;NSC 70224",
    "duplicated_cas_no": "",
    "SMILES": "O(C)C1=CC(C(O)=O)=CC=C1C",
    "meta_data": {
        "InChI": "InChI=1S/C9H10O3/c1-6-3-4-7(9(10)11)5-8(6)12-2/h3-5H,1-2H3,(H,10,11)",
        "InChIKey": null,
        "Canonical SMILES": "O=C(O)C1=CC=C(C(OC)=C1)C",
        "Molecular Formula": "C<sub>9</sub>H<sub>10</sub>O<sub>3</sub>",
        "Molecular Mass": "166.17",
        "Boiling Point": "168-170 °C @ Press: 11 Torr",
        "Melting Point": "158 °C"
    }
}