{
    "cas_no": "36701-01-6",
    "key_name": "Furfuryl pentanoate",
    "cn_name": "戊酸糠酯;",
    "alternate_name": "Pentanoic acid, 2-furanylmethyl ester;Furfuryl valerate;Furfuryl pentanoate;Oxaromate 884",
    "duplicated_cas_no": "",
    "SMILES": "C(OC(CCCC)=O)C1=CC=CO1",
    "meta_data": {
        "InChI": "InChI=1S/C10H14O3/c1-2-3-6-10(11)13-8-9-5-4-7-12-9/h4-5,7H,2-3,6,8H2,1H3",
        "InChIKey": null,
        "Canonical SMILES": "O=C(OCC=1OC=CC1)CCCC",
        "Molecular Formula": "C<sub>10</sub>H<sub>14</sub>O<sub>3</sub>",
        "Molecular Mass": "182.22",
        "Boiling Point": "228 °C"
    }
}