{
    "cas_no": "5415-44-1",
    "key_name": "1,3,7-Trimethyluric acid",
    "cn_name": "1,3,7-三甲基尿酸;1,3,7-三甲基尿酸;",
    "alternate_name": "1<em>H</em>-Purine-2,6,8(3<em>H</em>)-trione, 7,9-dihydro-1,3,7-trimethyl-;Uric acid, 1,3,7-trimethyl-;7,9-Dihydro-1,3,7-trimethyl-1<em>H</em>-purine-2,6,8(3<em>H</em>)-trione;1,3,7-Trimethyluric acid;Ba 2753;NSC 11259;NSC 95858;1,3,7-Trimethyl-9<em>H</em>-purine-2,6,8-trione;1,3,7-Trimethyl-1<em>H</em>-purine-2,6,8(3<em>H</em>,7<em>H</em>,9<em>H</em>)-trione",
    "duplicated_cas_no": "7026-63-3",
    "SMILES": "CN1C2=C(C(=O)N(C)C1=O)N(C)C(=O)N2",
    "meta_data": {
        "InChI": "InChI=1S/C8H10N4O3/c1-10-4-5(9-7(10)14)11(2)8(15)12(3)6(4)13/h1-3H3,(H,9,14)",
        "InChIKey": null,
        "Canonical SMILES": "O=C1NC2=C(C(=O)N(C(=O)N2C)C)N1C",
        "Molecular Formula": "C<sub>8</sub>H<sub>10</sub>N<sub>4</sub>O<sub>3</sub>",
        "Molecular Mass": "210.19",
        "Melting Point": "258-260 °C"
    }
}