{
    "cas_no": "106-54-7",
    "key_name": "4-Chlorobenzenethiol",
    "cn_name": "4-氯苯硫酚;对氯苯硫酚;",
    "alternate_name": "Benzenethiol, 4-chloro-;Benzenethiol, <em>p</em>-chloro-;4-Chlorobenzenethiol;<em>p</em>-Chlorobenzenethiol;<em>p</em>-Chlorothiophenol;4-Chlorothiophenol;4-Chlorophenylmercaptan;<em>p</em>-Chlorophenylmercaptan;<em>p</em>-Mercaptochlorobenzene;1-Chloro-4-mercaptobenzene;4-Chlorophenylthiol;<em>p</em>-Chlorophenylthiol;NSC 18714;NSC 229564;4-Mercaptophenyl chloride",
    "duplicated_cas_no": "",
    "SMILES": "ClC1=CC=C(S)C=C1",
    "meta_data": {
        "InChI": "InChI=1S/C6H5ClS/c7-5-1-3-6(8)4-2-5/h1-4,8H",
        "InChIKey": null,
        "Canonical SMILES": "ClC1=CC=C(S)C=C1",
        "Molecular Formula": "C<sub>6</sub>H<sub>5</sub>ClS",
        "Molecular Mass": "144.62",
        "Boiling Point": "206 °C",
        "Melting Point": "61 °C"
    }
}