{
    "cas_no": "18755-46-9",
    "key_name": "5-(2-Chloroethyl)-2<em>H</em>-tetrazole",
    "cn_name": "5-氯乙基四氮唑;",
    "alternate_name": "2<em>H</em>-Tetrazole, 5-(2-chloroethyl)-;1<em>H</em>-Tetrazole, 5-(2-chloroethyl)-;5-(2-Chloroethyl)-2<em>H</em>-tetrazole;5-(2-Chloroethyl)tetrazole;5-(2-Chloroethyl)-1<em>H</em>-tetrazole",
    "duplicated_cas_no": "",
    "SMILES": "C(CCl)C=1NN=NN1",
    "meta_data": {
        "InChI": "InChI=1S/C3H5ClN4/c4-2-1-3-5-7-8-6-3/h1-2H2,(H,5,6,7,8)",
        "InChIKey": null,
        "Canonical SMILES": "ClCCC1=NN=NN1",
        "Molecular Formula": "C<sub>3</sub>H<sub>5</sub>ClN<sub>4</sub>",
        "Molecular Mass": "132.55",
        "Melting Point": "96-98 °C"
    }
}