{
    "cas_no": "14070-48-5",
    "key_name": "<em>N</em>-[3-(2,5-Dihydro-5-thioxo-1<em>H</em>-tetrazol-1-yl)phenyl]acetamide",
    "cn_name": "1-(3-乙酰胺基)苯基-5-巯基四氮唑;",
    "alternate_name": "Acetamide, <em>N</em>-[3-(2,5-dihydro-5-thioxo-1<em>H</em>-tetrazol-1-yl)phenyl]-;Acetanilide, 3′-(5-mercapto-1<em>H</em>-tetrazol-1-yl)-;<em>N</em>-[3-(2,5-Dihydro-5-thioxo-1<em>H</em>-tetrazol-1-yl)phenyl]acetamide;1-(3-Acetamidophenyl)-5-mercaptotetrazole;1-(<em>m</em>-Acetamidophenyl)-5-mercaptotetrazole;1-(3-Acetamidophenyl)-2-tetrazoline-5-thione;FOG 0901",
    "duplicated_cas_no": "",
    "SMILES": "S=C1N(C2=CC(NC(C)=O)=CC=C2)N=NN1",
    "meta_data": {
        "InChI": "InChI=1S/C9H9N5OS/c1-6(15)10-7-3-2-4-8(5-7)14-9(16)11-12-13-14/h2-5H,1H3,(H,10,15)(H,11,13,16)",
        "InChIKey": null,
        "Canonical SMILES": "O=C(NC1=CC=CC(=C1)N2N=NNC2=S)C",
        "Molecular Formula": "C<sub>9</sub>H<sub>9</sub>N<sub>5</sub>OS",
        "Molecular Mass": "235.27",
        "Melting Point": "201-202 °C"
    }
}