{
    "cas_no": "50-90-8",
    "key_name": "5-Chloro-2′-deoxyuridine",
    "cn_name": "联苯醇;2-甲基-3-羟甲基联苯;2-甲基-3-苯基苯甲醇;",
    "alternate_name": "Uridine, 5-chloro-2′-deoxy-;5-Chloro-2′-deoxyuridine;5-Chlorodeoxyuridine;2′-Deoxy-5-chlorouridine;Chlorodeoxyuridine",
    "duplicated_cas_no": "1236363-50-0",
    "SMILES": "O=C1N([C@@H]2O[C@H](CO)[C@@H](O)C2)C=C(Cl)C(=O)N1",
    "meta_data": {
        "InChI": "InChI=1S/C9H11ClN2O5/c10-4-2-12(9(16)11-8(4)15)7-1-5(14)6(3-13)17-7/h2,5-7,13-14H,1,3H2,(H,11,15,16)/t5-,6+,7+/m0/s1",
        "InChIKey": null,
        "Canonical SMILES": "O=C1NC(=O)N(C=C1Cl)C2OC(CO)C(O)C2",
        "Molecular Formula": "C<sub>9</sub>H<sub>11</sub>ClN<sub>2</sub>O<sub>5</sub>",
        "Molecular Mass": "262.65",
        "Melting Point": "174-178 °C (decomp)"
    }
}