{
    "cas_no": "13522-14-0",
    "key_name": "(2β,3α,5α,16β)-3-Hydroxy-2,16-di-1-piperidinylandrostan-17-one",
    "cn_name": "3beta-羟基-2beta,16beta-二哌啶基-5-alpha-雄甾烷-17-酮;",
    "alternate_name": "Androstan-17-one, 3-hydroxy-2,16-di-1-piperidinyl-, (2β,3α,5α,16β)-;5α-Androstan-17-one, 3β-hydroxy-2β,16β-dipiperidino-;(2β,3α,5α,16β)-3-Hydroxy-2,16-di-1-piperidinylandrostan-17-one;2β,16β-Dipiperidino-5α-androstan-3α-ol-17-one",
    "duplicated_cas_no": "",
    "SMILES": "C[C@@]12[C@]([C@]3([C@@]([C@]4(C)[C@@](CC3)(C[C@H](O)[C@H](C4)N5CCCCC5)[H])(CC1)[H])[H])(C[C@@H](C2=O)N6CCCCC6)[H]",
    "meta_data": {
        "InChI": "InChI=1S/C29H48N2O2/c1-28-12-11-22-21(23(28)18-24(27(28)33)30-13-5-3-6-14-30)10-9-20-17-26(32)25(19-29(20,22)2)31-15-7-4-8-16-31/h20-26,32H,3-19H2,1-2H3/t20-,21+,22-,23-,24-,25-,26-,28-,29-/m0/s1",
        "InChIKey": null,
        "Canonical SMILES": "O=C1C(N2CCCCC2)CC3C4CCC5CC(O)C(N6CCCCC6)CC5(C)C4CCC13C",
        "Molecular Formula": "C<sub>29</sub>H<sub>48</sub>N<sub>2</sub>O<sub>2</sub>",
        "Molecular Mass": "456.70",
        "Melting Point": "179-185 °C"
    }
}