{
    "cas_no": "1072-16-8",
    "key_name": "2,7-Dimethyloctane",
    "cn_name": null,
    "alternate_name": "Octane, 2,7-dimethyl-;2,7-Dimethyloctane;Diisoamyl;Diisopentyl;NSC 6232",
    "duplicated_cas_no": "",
    "SMILES": "C(CCC(C)C)CC(C)C",
    "meta_data": {
        "InChI": "InChI=1S/C10H22/c1-9(2)7-5-6-8-10(3)4/h9-10H,5-8H2,1-4H3",
        "InChIKey": null,
        "Canonical SMILES": "CC(C)CCCCC(C)C",
        "Molecular Formula": "C<sub>10</sub>H<sub>22</sub>",
        "Molecular Mass": "142.28",
        "Boiling Point": "159.9 °C",
        "Melting Point": "-54.9 °C",
        "Density": "0.7283 g/cm³ @ Temp: 20 °C"
    }
}