{
    "cas_no": "64907-22-8",
    "key_name": "7α,25-Dihydroxycholesterol",
    "cn_name": null,
    "alternate_name": "Cholest-5-ene-3,7,25-triol, (3β,7α)-;(3β,7α)-Cholest-5-ene-3,7,25-triol;3β,7α,25-Trihydroxycholest-5-ene;7α,25-Dihydroxycholesterol",
    "duplicated_cas_no": "",
    "SMILES": "C[C@@]12[C@]([C@]3([C@@]([C@]4(C)C(=C[C@H]3O)C[C@@H](O)CC4)(CC1)[H])[H])(CC[C@@]2([C@@H](CCCC(C)(C)O)C)[H])[H]",
    "meta_data": {
        "InChI": "InChI=1S/C27H46O3/c1-17(7-6-12-25(2,3)30)20-8-9-21-24-22(11-14-27(20,21)5)26(4)13-10-19(28)15-18(26)16-23(24)29/h16-17,19-24,28-30H,6-15H2,1-5H3/t17-,19+,20-,21+,22+,23-,24+,26+,27-/m1/s1",
        "InChIKey": null,
        "Canonical SMILES": "OC1C=C2CC(O)CCC2(C)C3CCC4(C)C(CCC4C13)C(C)CCCC(O)(C)C",
        "Molecular Formula": "C<sub>27</sub>H<sub>46</sub>O<sub>3</sub>",
        "Molecular Mass": "418.65",
        "Melting Point": "235-236 °C"
    }
}