{
    "cas_no": "28874-58-0",
    "key_name": "7Z,10Z,13Z,16Z-Docosatetraenoic acid",
    "cn_name": "廿二碳四烯酸;廿二碳四烯酸;7,10,13,16-二十二碳四烯酸;",
    "alternate_name": "7,10,13,16-Docosatetraenoic acid, (7<em>Z</em>,10<em>Z</em>,13<em>Z</em>,16<em>Z</em>)-;7,10,13,16-Docosatetraenoic acid, (<em>all</em>-<em>Z</em>)-;(7<em>Z</em>,10<em>Z</em>,13<em>Z</em>,16<em>Z</em>)-7,10,13,16-Docosatetraenoic acid;<em>all</em>-<em>cis</em>-7,10,13,16-Docosatetraenoic acid;(<em>all</em>-<em>Z</em>)-7,10,13,16-Docosatetraenoic acid;Δ<sup>7,10,13,16</sup>-Docosatetraenoic acid;7Z,10Z,13Z,16Z-Docosatetraenoic acid;(7Z,10Z,13Z,16Z)-7,10,13,16-Docosatetraenoic acid;Adrenic acid",
    "duplicated_cas_no": "125972-39-6",
    "SMILES": "C(\\C/C=C\\C/C=C\\C/C=C\\CCCCC)=C\\CCCCCC(O)=O",
    "meta_data": {
        "InChI": "InChI=1S/C22H36O2/c1-2-3-4-5-6-7-8-9-10-11-12-13-14-15-16-17-18-19-20-21-22(23)24/h6-7,9-10,12-13,15-16H,2-5,8,11,14,17-21H2,1H3,(H,23,24)/b7-6-,10-9-,13-12-,16-15-",
        "InChIKey": null,
        "Canonical SMILES": "O=C(O)CCCCCC=CCC=CCC=CCC=CCCCCC",
        "Molecular Formula": "C<sub>22</sub>H<sub>36</sub>O<sub>2</sub>",
        "Molecular Mass": "332.52",
        "Boiling Point": "161-164.5 °C @ Press: 0.07 Torr",
        "Density": "0.9220 g/cm³ @ Temp: 20 °C"
    }
}