{
    "cas_no": "280744-09-4",
    "key_name": "3-(2,4-Dichlorophenyl)-4-(1-methyl-1<em>H</em>-indol-3-yl)-1<em>H</em>-pyrrole-2,5-dione",
    "cn_name": null,
    "alternate_name": "1<em>H</em>-Pyrrole-2,5-dione, 3-(2,4-dichlorophenyl)-4-(1-methyl-1<em>H</em>-indol-3-yl)-;3-(2,4-Dichlorophenyl)-4-(1-methyl-1<em>H</em>-indol-3-yl)-1<em>H</em>-pyrrole-2,5-dione;SB 216763",
    "duplicated_cas_no": "",
    "SMILES": "O=C1C(C=2C=3C(N(C)C2)=CC=CC3)=C(C(=O)N1)C4=C(Cl)C=C(Cl)C=C4",
    "meta_data": {
        "InChI": "InChI=1S/C19H12Cl2N2O2/c1-23-9-13(11-4-2-3-5-15(11)23)17-16(18(24)22-19(17)25)12-7-6-10(20)8-14(12)21/h2-9H,1H3,(H,22,24,25)",
        "InChIKey": null,
        "Canonical SMILES": "O=C1NC(=O)C(C2=CN(C=3C=CC=CC23)C)=C1C=4C=CC(Cl)=CC4Cl",
        "Molecular Formula": "C<sub>19</sub>H<sub>12</sub>Cl<sub>2</sub>N<sub>2</sub>O<sub>2</sub>",
        "Molecular Mass": "371.22",
        "Melting Point": "102-104 °C"
    }
}