{
    "cas_no": "97-50-7",
    "key_name": "5-Chloro-2,4-dimethoxyaniline",
    "cn_name": "5-氯-2,4-二甲氧基苯胺;",
    "alternate_name": "Benzenamine, 5-chloro-2,4-dimethoxy-;Aniline, 5-chloro-2,4-dimethoxy-;5-Chloro-2,4-dimethoxybenzenamine;5-Chloro-2,4-dimethoxyaniline;5-Chloro-2,4-dimethoxyaminobenzene;ITR Amine;3-Chloro-4,6-dimethoxyaniline;NSC 50657;(3-Chloro-4,6-dimethoxyphenyl)amine;5-Chloro-2,4-dimethoxyphenylamine",
    "duplicated_cas_no": "",
    "SMILES": "O(C)C1=CC(OC)=C(N)C=C1Cl",
    "meta_data": {
        "InChI": "InChI=1S/C8H10ClNO2/c1-11-7-4-8(12-2)6(10)3-5(7)9/h3-4H,10H2,1-2H3",
        "InChIKey": null,
        "Canonical SMILES": "ClC=1C=C(N)C(OC)=CC1OC",
        "Molecular Formula": "C<sub>8</sub>H<sub>10</sub>ClNO<sub>2</sub>",
        "Molecular Mass": "187.62",
        "Melting Point": "91 °C"
    }
}