{
    "cas_no": "58735-64-1",
    "key_name": "Roquefortine",
    "cn_name": null,
    "alternate_name": "2<em>H</em>-Pyrazino[1′,2′:1,5]pyrrolo[2,3-<em>b</em>]indole-1,4(3<em>H</em>,5a<em>H</em>)-dione, 10b-(1,1-dimethyl-2-propen-1-yl)-6,10b,11,11a-tetrahydro-3-(1<em>H</em>-imidazol-5-ylmethylene)-, (3<em>E</em>,5a<em>S</em>,10b<em>R</em>,11a<em>S</em>)-;2<em>H</em>-Pyrazino[1′,2′:1,5]pyrrolo[2,3-<em>b</em>]indole-1,4(3<em>H</em>,5a<em>H</em>)-dione, 10b-(1,1-dimethyl-2-propenyl)-6,10b,11,11a-tetrahydro-3-(1<em>H</em>-imidazol-4-ylmethylene)-, (3<em>E</em>,5a<em>S</em>,10b<em>R</em>,11a<em>S</em>)-;(3<em>E</em>,5a<em>S</em>,10b<em>R</em>,11a<em>S</em>)-10b-(1,1-Dimethyl-2-propen-1-yl)-6,10b,11,11a-tetrahydro-3-(1<em>H</em>-imidazol-5-ylmethylene)-2<em>H</em>-pyrazino[1′,2′:1,5]pyrrolo[2,3-<em>b</em>]indole-1,4(3<em>H</em>,5a<em>H</em>)-dione;Roquefortine;Roquefortine C;Roquefortin;NSC 292134;(-)-Roquefortine C",
    "duplicated_cas_no": "56832-54-3",
    "SMILES": "C(C=C)(C)(C)[C@]12[C@](N3[C@@](C1)(C(=O)N\\C(=C\\C4=CN=CN4)\\C3=O)[H])(NC=5C2=CC=CC5)[H]",
    "meta_data": {
        "InChI": "InChI=1S/C22H23N5O2/c1-4-21(2,3)22-10-17-18(28)25-16(9-13-11-23-12-24-13)19(29)27(17)20(22)26-15-8-6-5-7-14(15)22/h4-9,11-12,17,20,26H,1,10H2,2-3H3,(H,23,24)(H,25,28)/b16-9+/t17-,20-,22+/m0/s1",
        "InChIKey": null,
        "Canonical SMILES": "O=C1NC(=CC2=CN=CN2)C(=O)N3C4NC=5C=CC=CC5C4(CC13)C(C=C)(C)C",
        "Molecular Formula": "C<sub>22</sub>H<sub>23</sub>N<sub>5</sub>O<sub>2</sub>",
        "Molecular Mass": "389.45",
        "Melting Point": "202-205 °C"
    }
}