{
    "cas_no": "22348-97-6",
    "key_name": "Methyl 3-oxotetradecanoate",
    "cn_name": null,
    "alternate_name": "Tetradecanoic acid, 3-oxo-, methyl ester;Methyl 3-oxotetradecanoate;Methyl β-ketomyristate;Methyl 3-oxomyristate",
    "duplicated_cas_no": "",
    "SMILES": "C(CCCCCCCCCCC)(CC(OC)=O)=O",
    "meta_data": {
        "InChI": "InChI=1S/C15H28O3/c1-3-4-5-6-7-8-9-10-11-12-14(16)13-15(17)18-2/h3-13H2,1-2H3",
        "InChIKey": null,
        "Canonical SMILES": "O=C(OC)CC(=O)CCCCCCCCCCC",
        "Molecular Formula": "C<sub>15</sub>H<sub>28</sub>O<sub>3</sub>",
        "Molecular Mass": "256.38",
        "Boiling Point": "137-139 °C @ Press: 0.9 Torr",
        "Melting Point": "28.7 °C"
    }
}