{
    "cas_no": "28940-11-6",
    "key_name": "7-Methyl-2<em>H</em>-1,5-benzodioxepin-3(4<em>H</em>)-one",
    "cn_name": "西瓜酮;7-甲基-3,4-二氢-2H-1,5-苯并二氧杂卓-3-酮;",
    "alternate_name": "2<em>H</em>-1,5-Benzodioxepin-3(4<em>H</em>)-one, 7-methyl-;7-Methyl-2<em>H</em>-1,5-benzodioxepin-3(4<em>H</em>)-one;Calone 1951;Watermelon ketone;Calone;7-Methyl-2<em>H</em>-benzo[<em>b</em>][1,4]dioxepin-3(4<em>H</em>)-one",
    "duplicated_cas_no": "35783-05-2",
    "SMILES": "CC=1C=C2C(=CC1)OCC(=O)CO2",
    "meta_data": {
        "InChI": "InChI=1S/C10H10O3/c1-7-2-3-9-10(4-7)13-6-8(11)5-12-9/h2-4H,5-6H2,1H3",
        "InChIKey": null,
        "Canonical SMILES": "O=C1COC2=CC=C(C=C2OC1)C",
        "Molecular Formula": "C<sub>10</sub>H<sub>10</sub>O<sub>3</sub>",
        "Molecular Mass": "178.18",
        "Boiling Point": "71-82 °C @ Press: 0.01 Torr",
        "Melting Point": "38-39 °C"
    }
}