{
    "cas_no": "25503-90-6",
    "key_name": "1-Acetyl-4-piperidinecarboxylic acid",
    "cn_name": "1-乙酰基-4-哌啶甲酸;",
    "alternate_name": "4-Piperidinecarboxylic acid, 1-acetyl-;Isonipecotic acid, 1-acetyl-;1-Acetyl-4-piperidinecarboxylic acid;1-Acetylisonipecotic acid;<em>N</em>-Acetylisonipecotic acid;<em>N</em>-Acetylisonipecotinic acid;<em>N</em>-Acetylpiperidine-4-carboxylic acid;4-Acetylpiperidine-1-carboxylic acid",
    "duplicated_cas_no": "869721-82-4",
    "SMILES": "C(O)(=O)C1CCN(C(C)=O)CC1",
    "meta_data": {
        "InChI": "InChI=1S/C8H13NO3/c1-6(10)9-4-2-7(3-5-9)8(11)12/h7H,2-5H2,1H3,(H,11,12)",
        "InChIKey": null,
        "Canonical SMILES": "O=C(O)C1CCN(C(=O)C)CC1",
        "Molecular Formula": "C<sub>8</sub>H<sub>13</sub>NO<sub>3</sub>",
        "Molecular Mass": "171.19",
        "Melting Point": "163-178 °C"
    }
}