{
    "cas_no": "596-09-8",
    "key_name": "Fluorescein, diacetate",
    "cn_name": "荧光素二乙酸盐;3,6-二乙酸基荧光素;二-O-乙酰基荧光素;",
    "alternate_name": "Spiro[isobenzofuran-1(3<em>H</em>),9′-[9<em>H</em>]xanthen]-3-one, 3′,6′-bis(acetyloxy)-;Fluorescein, diacetate;3′,6′-Bis(acetyloxy)spiro[isobenzofuran-1(3<em>H</em>),9′-[9<em>H</em>]xanthen]-3-one;Fluorescein diacetate;3′,6′-Diacetylfluorescein;Fluorescein 3′,6′-diacetate;MFCD 5062;NSC 4726;NSC 667259;F 1303;FDA;(6′-Acetyloxy-3-oxospiro[2-benzofuran-1,9′-xanthene]-3′-yl) acetate",
    "duplicated_cas_no": "",
    "SMILES": "O=C1OC2(C=3C(OC=4C2=CC=C(OC(C)=O)C4)=CC(OC(C)=O)=CC3)C=5C1=CC=CC5",
    "meta_data": {
        "InChI": "InChI=1S/C24H16O7/c1-13(25)28-15-7-9-19-21(11-15)30-22-12-16(29-14(2)26)8-10-20(22)24(19)18-6-4-3-5-17(18)23(27)31-24/h3-12H,1-2H3",
        "InChIKey": null,
        "Canonical SMILES": "O=C1OC2(C3=CC=C(OC(=O)C)C=C3OC4=CC(OC(=O)C)=CC=C42)C=5C=CC=CC15",
        "Molecular Formula": "C<sub>24</sub>H<sub>16</sub>O<sub>7</sub>",
        "Molecular Mass": "416.38",
        "Melting Point": "205-206 °C"
    }
}