{
    "cas_no": "656820-32-5",
    "key_name": "Reversine",
    "cn_name": null,
    "alternate_name": "9<em>H</em>-Purine-2,6-diamine, <em>N</em><sup>6</sup>-cyclohexyl-<em>N</em><sup>2</sup>-[4-(4-morpholinyl)phenyl]-;1<em>H</em>-Purine-2,6-diamine, <em>N</em><sup>6</sup>-cyclohexyl-<em>N</em><sup>2</sup>-[4-(4-morpholinyl)phenyl]-;<em>N</em><sup>6</sup>-Cyclohexyl-<em>N</em><sup>2</sup>-[4-(4-morpholinyl)phenyl]-9<em>H</em>-purine-2,6-diamine;Reversine",
    "duplicated_cas_no": "",
    "SMILES": "N(C1=C2C(=NC(NC3=CC=C(C=C3)N4CCOCC4)=N1)N=CN2)C5CCCCC5",
    "meta_data": {
        "InChI": "InChI=1S/C21H27N7O/c1-2-4-15(5-3-1)24-20-18-19(23-14-22-18)26-21(27-20)25-16-6-8-17(9-7-16)28-10-12-29-13-11-28/h6-9,14-15H,1-5,10-13H2,(H3,22,23,24,25,26,27)",
        "InChIKey": null,
        "Canonical SMILES": "N1=CNC2=C1N=C(N=C2NC3CCCCC3)NC4=CC=C(C=C4)N5CCOCC5",
        "Molecular Formula": "C<sub>21</sub>H<sub>27</sub>N<sub>7</sub>O",
        "Molecular Mass": "393.49",
        "Melting Point": "305 °C (decomp)"
    }
}