{
    "cas_no": "10538-59-7",
    "key_name": "Methyl (3α,5β)-3-hydroxy-7-oxocholan-24-oate",
    "cn_name": null,
    "alternate_name": "Cholan-24-oic acid, 3-hydroxy-7-oxo-, methyl ester, (3α,5β)-;5β-Cholanic acid, 3α-hydroxy-7-oxo-, methyl ester;5β-Cholan-24-oic acid, 3α-hydroxy-7-oxo-, methyl ester;Methyl (3α,5β)-3-hydroxy-7-oxocholan-24-oate;Methyl 7-<em>keto</em>-3α-hydroxy-5β-cholanoate;Methyl 3α-hydroxy-7-oxo-5β-cholan-24-oate;Methyl 3α-hydroxy-7-oxo-5β-cholanoate;7-Ketolithocholic acid methyl ester;Methyl 3α-hydroxy-7-<em>keto</em>-5β-cholanate;3α-Hydroxy-7-oxo-5β-cholan-24-oic acid methyl ester",
    "duplicated_cas_no": "",
    "SMILES": "C[C@@]12[C@]([C@]3([C@@]([C@]4(C)[C@](CC3=O)(C[C@H](O)CC4)[H])(CC1)[H])[H])(CC[C@@]2([C@@H](CCC(OC)=O)C)[H])[H]",
    "meta_data": {
        "InChI": "InChI=1S/C25H40O4/c1-15(5-8-22(28)29-4)18-6-7-19-23-20(10-12-25(18,19)3)24(2)11-9-17(26)13-16(24)14-21(23)27/h15-20,23,26H,5-14H2,1-4H3/t15-,16+,17-,18-,19+,20+,23+,24+,25-/m1/s1",
        "InChIKey": null,
        "Canonical SMILES": "O=C(OC)CCC(C)C1CCC2C3C(=O)CC4CC(O)CCC4(C)C3CCC12C",
        "Molecular Formula": "C<sub>25</sub>H<sub>40</sub>O<sub>4</sub>",
        "Molecular Mass": "404.58",
        "Melting Point": "103-104 °C"
    }
}