{
    "cas_no": "620-16-6",
    "key_name": "1-Chloro-3-ethylbenzene",
    "cn_name": "1-氯-3-乙基苯;",
    "alternate_name": "Benzene, 1-chloro-3-ethyl-;1-Chloro-3-ethylbenzene;<em>m</em>-Chloroethylbenzene;3-Ethylchlorobenzene;3-Chloroethylbenzene;NSC 60919",
    "duplicated_cas_no": "",
    "SMILES": "C(C)C1=CC(Cl)=CC=C1",
    "meta_data": {
        "InChI": "InChI=1S/C8H9Cl/c1-2-7-4-3-5-8(9)6-7/h3-6H,2H2,1H3",
        "InChIKey": null,
        "Canonical SMILES": "ClC1=CC=CC(=C1)CC",
        "Molecular Formula": "C<sub>8</sub>H<sub>9</sub>Cl",
        "Molecular Mass": "140.61",
        "Boiling Point": "183.8 °C",
        "Melting Point": "-55 °C"
    }
}