{
    "cas_no": "6545-99-9",
    "key_name": "Phebalosin",
    "cn_name": null,
    "alternate_name": "2<em>H</em>-1-Benzopyran-2-one, 7-methoxy-8-[(2<em>R</em>,3<em>R</em>)-3-(1-methylethenyl)-2-oxiranyl]-, <em>rel</em>-;2<em>H</em>-1-Benzopyran-2-one, 7-methoxy-8-[3-(1-methylethenyl)oxiranyl]-, <em>trans</em>-;Phebalosin;Coumarin, 8-(1,2-epoxy-3-methyl-3-butenyl)-7-methoxy-, 8-<em>trans</em>-;2<em>H</em>-1-Benzopyran-2-one, 7-methoxy-8-[(2<em>R</em>,3<em>R</em>)-3-(1-methylethenyl)oxiranyl]-, <em>rel</em>-;<em>rel</em>-7-Methoxy-8-[(2<em>R</em>,3<em>R</em>)-3-(1-methylethenyl)-2-oxiranyl]-2<em>H</em>-1-benzopyran-2-one;Alosin",
    "duplicated_cas_no": "26116-48-3",
    "SMILES": "O(C)C=1C(=C2C(=CC1)C=CC(=O)O2)[C@H]3[C@H](C(C)=C)O3",
    "meta_data": {
        "InChI": "InChI=1S/C15H14O4/c1-8(2)13-15(19-13)12-10(17-3)6-4-9-5-7-11(16)18-14(9)12/h4-7,13,15H,1H2,2-3H3/t13-,15-/m0/s1",
        "InChIKey": null,
        "Canonical SMILES": "O=C1OC2=C(C=C1)C=CC(OC)=C2C3OC3C(=C)C",
        "Molecular Formula": "C<sub>15</sub>H<sub>14</sub>O<sub>4</sub>",
        "Molecular Mass": "258.27",
        "Melting Point": "120.5-121.5 °C"
    }
}