{
    "cas_no": "55689-64-0",
    "key_name": "Methyl 6,11-dihydro-11-oxodibenz[<em>b</em>,<em>e</em>]oxepin-2-acetate",
    "cn_name": null,
    "alternate_name": "Dibenz[<em>b</em>,<em>e</em>]oxepin-2-acetic acid, 6,11-dihydro-11-oxo-, methyl ester;Methyl 6,11-dihydro-11-oxodibenz[<em>b</em>,<em>e</em>]oxepin-2-acetate",
    "duplicated_cas_no": "",
    "SMILES": "O=C1C=2C(OCC=3C1=CC=CC3)=CC=C(CC(OC)=O)C2",
    "meta_data": {
        "InChI": "InChI=1S/C17H14O4/c1-20-16(18)9-11-6-7-15-14(8-11)17(19)13-5-3-2-4-12(13)10-21-15/h2-8H,9-10H2,1H3",
        "InChIKey": null,
        "Canonical SMILES": "O=C(OC)CC1=CC=C2OCC=3C=CC=CC3C(=O)C2=C1",
        "Molecular Formula": "C<sub>17</sub>H<sub>14</sub>O<sub>4</sub>",
        "Molecular Mass": "282.29",
        "Melting Point": "78-79 °C",
        "Density": "1.33 g/cm³"
    }
}