{
    "cas_no": "621-35-2",
    "key_name": "Acetamide, <em>N</em>-(3-aminophenyl)-, hydrochloride (1:1)",
    "cn_name": "间氨基乙酰苯胺盐酸盐;",
    "alternate_name": "Acetamide, <em>N</em>-(3-aminophenyl)-, hydrochloride (1:1);Acetamide, <em>N</em>-(3-aminophenyl)-, monohydrochloride;3-Acetylaminoaniline hydrochloride;1-Acetylamino-3-aminobenzene hydrochloride;<em>N</em>-(3-Aminophenyl)acetamide hydrochloride;<em>m</em>-Aminoacetanilide hydrochloride;3-Aminoacetanilide hydrochloride;3-Acetamidoanilinium chloride",
    "duplicated_cas_no": "",
    "SMILES": "N(C(C)=O)C1=CC(N)=CC=C1.Cl",
    "meta_data": {
        "InChI": "InChI=1S/C8H10N2O.ClH/c1-6(11)10-8-4-2-3-7(9)5-8;/h2-5H,9H2,1H3,(H,10,11);1H",
        "InChIKey": null,
        "Canonical SMILES": "Cl.O=C(NC=1C=CC=C(N)C1)C",
        "Molecular Formula": "C<sub>8</sub>H<sub>10</sub>N<sub>2</sub>O.ClH",
        "Molecular Mass": "",
        "Melting Point": "248-251 °C"
    }
}