{
    "cas_no": "121776-33-8",
    "key_name": "Furilazole",
    "cn_name": null,
    "alternate_name": "Ethanone, 2,2-dichloro-1-[5-(2-furanyl)-2,2-dimethyl-3-oxazolidinyl]-;Oxazolidine, 3-(dichloroacetyl)-5-(2-furanyl)-2,2-dimethyl-;2,2-Dichloro-1-[5-(2-furanyl)-2,2-dimethyl-3-oxazolidinyl]ethanone;Furilazole;MON 13900",
    "duplicated_cas_no": "141980-03-2",
    "SMILES": "C(C(Cl)Cl)(=O)N1CC(OC1(C)C)C2=CC=CO2",
    "meta_data": {
        "InChI": "InChI=1S/C11H13Cl2NO3/c1-11(2)14(10(15)9(12)13)6-8(17-11)7-4-3-5-16-7/h3-5,8-9H,6H2,1-2H3",
        "InChIKey": null,
        "Canonical SMILES": "O=C(N1CC(OC1(C)C)C=2OC=CC2)C(Cl)Cl",
        "Molecular Formula": "C<sub>11</sub>H<sub>13</sub>Cl<sub>2</sub>NO<sub>3</sub>",
        "Molecular Mass": "278.13",
        "Melting Point": "97 °C"
    }
}