{
    "cas_no": "111-58-0",
    "key_name": "Oleoylethanolamide",
    "cn_name": "油酰乙醇胺;油酰单乙醇胺;",
    "alternate_name": "9-Octadecenamide, <em>N</em>-(2-hydroxyethyl)-, (9<em>Z</em>)-;Oleamide, <em>N</em>-(2-hydroxyethyl)-;9-Octadecenamide, <em>N</em>-(2-hydroxyethyl)-, (<em>Z</em>)-;(9<em>Z</em>)-<em>N</em>-(2-Hydroxyethyl)-9-octadecenamide;Oleic acid ethanolamide;Oleic acid monoethanolamide;<em>N</em>-Oleoylethanolamine;<em>N</em>-Oleoyl-2-aminoethanol;<em>N</em>-(2-Hydroxyethyl)oleamide;AM 3101;Oleamide MEA;Oleoylethanolamide;<em>N</em>-(2-Hydroxyethyl)-9-<em>Z</em>-octadecenamide;<em>N</em>-Oleoylethanolamide",
    "duplicated_cas_no": "",
    "SMILES": "C(CCCCC/C=C\\CCCCCCCC)CC(NCCO)=O",
    "meta_data": {
        "InChI": "InChI=1S/C20H39NO2/c1-2-3-4-5-6-7-8-9-10-11-12-13-14-15-16-17-20(23)21-18-19-22/h9-10,22H,2-8,11-19H2,1H3,(H,21,23)/b10-9-",
        "InChIKey": null,
        "Canonical SMILES": "O=C(NCCO)CCCCCCCC=CCCCCCCCC",
        "Molecular Formula": "C<sub>20</sub>H<sub>39</sub>NO<sub>2</sub>",
        "Molecular Mass": "325.53",
        "Melting Point": "63-64 °C"
    }
}