{
    "cas_no": "18080-67-6",
    "key_name": "Quinoxaline, 2,3-bis(bromomethyl)-, 1,4-dioxide",
    "cn_name": null,
    "alternate_name": "Quinoxaline, 2,3-bis(bromomethyl)-, 1,4-dioxide;2,3-Bis(bromomethyl)quinoxaline 1,4-dioxide;Conoidin A;2,3-bis(bromomethyl)quinoxaline-1,4-diium-1,4-bis(olate);2,3-Bis(bromomethyl)-1-oxoquinoxalin-1-ium-4(1<em>H</em>)-olate",
    "duplicated_cas_no": "",
    "SMILES": "O=N=1C2=C(N(=O)=C(CBr)C1CBr)C=CC=C2",
    "meta_data": {
        "InChI": "InChI=1S/C10H8Br2N2O2/c11-5-9-10(6-12)14(16)8-4-2-1-3-7(8)13(9)15/h1-4H,5-6H2",
        "InChIKey": null,
        "Canonical SMILES": "O=N1=C2C=CC=CC2=N(=O)C(=C1CBr)CBr",
        "Molecular Formula": "C<sub>10</sub>H<sub>8</sub>Br<sub>2</sub>N<sub>2</sub>O<sub>2</sub>",
        "Molecular Mass": "347.99",
        "Melting Point": "180-190 °C (decomp)"
    }
}