{
    "cas_no": "3367-95-1",
    "key_name": "<em>N</em>,<em>N</em>-Diethyl-3-piperidinecarboxamide",
    "cn_name": "N,N-二乙基尼哌丁酰胺;N,N-二乙基尼哌丁酰胺;",
    "alternate_name": "3-Piperidinecarboxamide, <em>N</em>,<em>N</em>-diethyl-;Nipecotamide, <em>N</em>,<em>N</em>-diethyl-;<em>N</em>,<em>N</em>-Diethyl-3-piperidinecarboxamide;<em>N</em>,<em>N</em>-Diethylnipecotamide;3-[(Diethylamino)carbonyl]piperidine;3-(Diethylcarboxamido)piperidine;Piperidine-3-carboxylic acid diethylamide;3-(Diethylcarbamoyl)piperidine;Diethylnipecotamide",
    "duplicated_cas_no": "801996-13-4",
    "SMILES": "C(N(CC)CC)(=O)C1CCCNC1",
    "meta_data": {
        "InChI": "InChI=1S/C10H20N2O/c1-3-12(4-2)10(13)9-6-5-7-11-8-9/h9,11H,3-8H2,1-2H3",
        "InChIKey": null,
        "Canonical SMILES": "O=C(N(CC)CC)C1CNCCC1",
        "Molecular Formula": "C<sub>10</sub>H<sub>20</sub>N<sub>2</sub>O",
        "Molecular Mass": "184.28",
        "Boiling Point": "100 °C @ Press: 0.30-32 Torr"
    }
}