{
    "cas_no": "1067-55-6",
    "key_name": "Dibutyltin dimethoxide",
    "cn_name": "二丁基二甲氧基锡烷;",
    "alternate_name": "Stannane, dibutyldimethoxy-;Tin, dibutyldimethoxy-;Dibutyldimethoxystannane;Dibutyldimethoxytin;Dibutyltin dimethoxide;Dimethoxydibutyltin;S-Cat 27;NSC 101695",
    "duplicated_cas_no": "235102-07-5",
    "SMILES": "[Sn](CCCC)(CCCC)(OC)OC",
    "meta_data": {
        "InChI": "InChI=1S/2C4H9.2CH3O.Sn/c2*1-3-4-2;2*1-2;/h2*1,3-4H2,2H3;2*1H3;/q;;2*-1;+2",
        "InChIKey": null,
        "Canonical SMILES": "O(C)[Sn](OC)(CCCC)CCCC",
        "Molecular Formula": "C<sub>10</sub>H<sub>24</sub>O<sub>2</sub>Sn",
        "Molecular Mass": "295.01",
        "Boiling Point": "127 °C",
        "Density": "1.2862 g/cm³ @ Temp: 20 °C"
    }
}