{
    "cas_no": "187393-00-6",
    "key_name": "Bemotrizinol",
    "cn_name": null,
    "alternate_name": "Phenol, 2,2′-[6-(4-methoxyphenyl)-1,3,5-triazine-2,4-diyl]bis[5-[(2-ethylhexyl)oxy]-;2,2′-[6-(4-Methoxyphenyl)-1,3,5-triazine-2,4-diyl]bis[5-[(2-ethylhexyl)oxy]phenol];CGF 1607;Tinosorb S;BEMT;Bemotrizinol;FAT 70′884;2,4-Bis[4-(2-ethylhexyloxy)-2-hydroxyphenyl]-6-(4-methoxyphenyl)-1,3,5-triazine;Tinosorb S Aqua;Escalol S;Tianlaisch S;Parsol Shield;UV 627;Neo Heliopan BMT",
    "duplicated_cas_no": "263175-34-4;1000777-11-6;1171815-85-2;1598430-21-7;2101609-60-1;2116402-72-1",
    "SMILES": "OC1=C(C=2N=C(N=C(N2)C3=CC=C(OC)C=C3)C4=C(O)C=C(OCC(CCCC)CC)C=C4)C=CC(OCC(CCCC)CC)=C1",
    "meta_data": {
        "InChI": "InChI=1S/C38H49N3O5/c1-6-10-12-26(8-3)24-45-30-18-20-32(34(42)22-30)37-39-36(28-14-16-29(44-5)17-15-28)40-38(41-37)33-21-19-31(23-35(33)43)46-25-27(9-4)13-11-7-2/h14-23,26-27,42-43H,6-13,24-25H2,1-5H3",
        "InChIKey": null,
        "Canonical SMILES": "OC=1C=C(OCC(CC)CCCC)C=CC1C2=NC(=NC(=N2)C=3C=CC(OCC(CC)CCCC)=CC3O)C=4C=CC(OC)=CC4",
        "Molecular Formula": "C<sub>38</sub>H<sub>49</sub>N<sub>3</sub>O<sub>5</sub>",
        "Molecular Mass": "627.81",
        "Melting Point": "84-85 °C"
    }
}