{
    "cas_no": "92138-10-8",
    "key_name": "(2<em>Z</em>)-3-[(Aminoiminomethyl)thio]-2-propenoic acid",
    "cn_name": "3-(氨基亚氨基甲基)硫基-2-丙烯酸硫酸盐;",
    "alternate_name": "2-Propenoic acid, 3-[(aminoiminomethyl)thio]-, (2<em>Z</em>)-;2-Propenoic acid, 3-[(aminoiminomethyl)thio]-, (<em>Z</em>)-;(2<em>Z</em>)-3-[(Aminoiminomethyl)thio]-2-propenoic acid",
    "duplicated_cas_no": "",
    "SMILES": "C(=C\\C(O)=O)\\SC(=N)N",
    "meta_data": {
        "InChI": "InChI=1S/C4H6N2O2S/c5-4(6)9-2-1-3(7)8/h1-2H,(H3,5,6)(H,7,8)/b2-1-",
        "InChIKey": null,
        "Canonical SMILES": "O=C(O)C=CSC(=N)N",
        "Molecular Formula": "C<sub>4</sub>H<sub>6</sub>N<sub>2</sub>O<sub>2</sub>S",
        "Molecular Mass": "146.17",
        "Melting Point": "164 °C (decomp)"
    }
}