{
    "cas_no": "780-25-6",
    "key_name": "<em>N</em>-Benzylidenebenzylamine",
    "cn_name": "N-苄烯丁胺;",
    "alternate_name": "Benzenemethanamine, <em>N</em>-(phenylmethylene)-;Benzylamine, <em>N</em>-benzylidene-;<em>N</em>-(Phenylmethylene)benzenemethanamine;<em>N</em>-Benzylidenebenzylamine;Benzylidenebenzylamine;Benzaldehyde <em>N</em>-benzylimine;α-(Benzylideneamino)toluene;<em>N</em>-Benzylbenzenemethanimine;Benzaldehyde benzylimine;<em>N</em>-Benzylbenzaldimine;Benzyl(benzylidene)amine;<em>N</em>-Benzylidenebenzenemethanamine;NSC 38821;<em>N</em>-(Phenylmethylene)benzylamine;<em>N</em>-Benzyl-<em>N</em>-(benzylidene)amine;<em>N</em>-Benzylbenzylideneamine;<em>N</em>-Benzylidene-1-phenylmethanamine;<em>N</em>-Benzyl benzaldehyde imine",
    "duplicated_cas_no": "",
    "SMILES": "C(N=CC1=CC=CC=C1)C2=CC=CC=C2",
    "meta_data": {
        "InChI": "InChI=1S/C14H13N/c1-3-7-13(8-4-1)11-15-12-14-9-5-2-6-10-14/h1-11H,12H2",
        "InChIKey": null,
        "Canonical SMILES": "N(=CC=1C=CC=CC1)CC=2C=CC=CC2",
        "Molecular Formula": "C<sub>14</sub>H<sub>13</sub>N",
        "Molecular Mass": "195.26",
        "Boiling Point": "160 °C",
        "Melting Point": "141-142 °C",
        "Density": "1.047 g/cm³ @ Temp: 20 °C"
    }
}