{
    "cas_no": "964-52-3",
    "key_name": "Moxisylyte hydrochloride",
    "cn_name": "莫西赛利盐酸盐;4-(2-二甲氨基乙氧基)-5-异丙基-2-甲基酯盐酸盐;",
    "alternate_name": "Phenol, 4-[2-(dimethylamino)ethoxy]-2-methyl-5-(1-methylethyl)-, 1-acetate, hydrochloride (1:1);Carvacrol, 5-[2-(dimethylamino)ethoxy]-, acetate (ester), hydrochloride;Phenol, 4-[2-(dimethylamino)ethoxy]-2-methyl-5-(1-methylethyl)-, acetate (ester), hydrochloride;Carvacrol, 5-[2-(dimethylamino)ethoxy]-, acetate, hydrochloride;4-(2-Dimethylaminoethoxy)-5-isopropyl-2-methylphenyl acetate hydrochloride;Opilon hydrochloride;Thymoxamine hydrochloride;Moxisylyte hydrochloride;M 101;M 101 (vasodilator);Carlytene;Arlitine;Moxyl;Uroalpha;Vasoklin;Opilon",
    "duplicated_cas_no": "",
    "SMILES": "C(C)(C)C1=C(OCCN(C)C)C=C(C)C(OC(C)=O)=C1.Cl",
    "meta_data": {
        "InChI": "InChI=1S/C16H25NO3.ClH/c1-11(2)14-10-15(20-13(4)18)12(3)9-16(14)19-8-7-17(5)6;/h9-11H,7-8H2,1-6H3;1H",
        "InChIKey": null,
        "Canonical SMILES": "Cl.O=C(OC1=CC(=C(OCCN(C)C)C=C1C)C(C)C)C",
        "Molecular Formula": "C<sub>16</sub>H<sub>25</sub>NO<sub>3</sub>.ClH",
        "Molecular Mass": "",
        "Melting Point": "208-210 °C"
    }
}