{
    "cas_no": "71626-11-4",
    "key_name": "Benalaxyl",
    "cn_name": "苯霜灵;N-苯乙酰基-N-(2,6-二甲基苯基)-DL-alpha-氨基丙酸甲酯;",
    "alternate_name": "Alanine, <em>N</em>-(2,6-dimethylphenyl)-<em>N</em>-(2-phenylacetyl)-, methyl ester;Alanine, <em>N</em>-(2,6-dimethylphenyl)-<em>N</em>-(phenylacetyl)-, methyl ester;<span class=\"text-smallcaps\">D</smallcap><smallcap>L</span>-Alanine, <em>N</em>-(2,6-dimethylphenyl)-<em>N</em>-(phenylacetyl)-, methyl ester;M 9834;Galben;Benalaxyl;Galben R 4-33 Blu;(±)-Benalaxyl",
    "duplicated_cas_no": "82052-07-1;1135441-57-4",
    "SMILES": "N(C(C(OC)=O)C)(C(CC1=CC=CC=C1)=O)C2=C(C)C=CC=C2C",
    "meta_data": {
        "InChI": "InChI=1S/C20H23NO3/c1-14-9-8-10-15(2)19(14)21(16(3)20(23)24-4)18(22)13-17-11-6-5-7-12-17/h5-12,16H,13H2,1-4H3",
        "InChIKey": null,
        "Canonical SMILES": "O=C(OC)C(N(C(=O)CC=1C=CC=CC1)C=2C(=CC=CC2C)C)C",
        "Molecular Formula": "C<sub>20</sub>H<sub>23</sub>NO<sub>3</sub>",
        "Molecular Mass": "325.40",
        "Melting Point": "79 °C"
    }
}