{
    "cas_no": "2103-88-0",
    "key_name": "2-Mercapto-4-phenylthiazole",
    "cn_name": null,
    "alternate_name": "2(3<em>H</em>)-Thiazolethione, 4-phenyl-;4-Thiazoline-2-thione, 4-phenyl-;2-Thiazolethiol, 4-phenyl-;4-Phenyl-2(3<em>H</em>)-thiazolethione;2-Mercapto-4-phenylthiazole;4-Phenyl-Δ<sup>4</sup>-thiazoline-2-thione;4-Phenyl-2-mercaptothiazole;4-Phenylthiazole-2-thiol;4-Phenyl-4-thiazoline-2-thione;4-Phenyl-1,3-thiazole-2-thiol;NSC 678;3-Phenylthiazole-2-thiol",
    "duplicated_cas_no": "17374-08-2",
    "SMILES": "S=C1NC(=CS1)C2=CC=CC=C2",
    "meta_data": {
        "InChI": "InChI=1S/C9H7NS2/c11-9-10-8(6-12-9)7-4-2-1-3-5-7/h1-6H,(H,10,11)",
        "InChIKey": null,
        "Canonical SMILES": "S=C1SC=C(N1)C=2C=CC=CC2",
        "Molecular Formula": "C<sub>9</sub>H<sub>7</sub>NS<sub>2</sub>",
        "Molecular Mass": "193.29",
        "Melting Point": "168 °C"
    }
}