{
    "cas_no": "13488-22-7",
    "key_name": "5,8,11-Eicosatriynoic acid",
    "cn_name": "5,8,11-Eicosatriynoic acid;",
    "alternate_name": "5,8,11-Eicosatriynoic acid;ETI",
    "duplicated_cas_no": "",
    "SMILES": "C(#CCC#CCCCCCCCC)CC#CCCCC(O)=O",
    "meta_data": {
        "InChI": "InChI=1S/C20H28O2/c1-2-3-4-5-6-7-8-9-10-11-12-13-14-15-16-17-18-19-20(21)22/h2-8,11,14,17-19H2,1H3,(H,21,22)",
        "InChIKey": null,
        "Canonical SMILES": "O=C(O)CCCC#CCC#CCC#CCCCCCCCC",
        "Molecular Formula": "C<sub>20</sub>H<sub>28</sub>O<sub>2</sub>",
        "Molecular Mass": "300.44",
        "Melting Point": "70.5-71.5 °C"
    }
}