{
    "cas_no": "26402-26-6",
    "key_name": "Glyceryl monocaprylate",
    "cn_name": null,
    "alternate_name": "Octanoic acid, monoester with 1,2,3-propanetriol;Octanoin, mono-;Drewmulse CA;Glycerol monocaprylate;Monocaprylin;Monooctanoin;Caprylic acid monoglyceride;Glycerin monocaprylate;Glyceryl monocaprylate;Sunsoft 700p2;Monocapryl glyceride;Sefsol 318;Poem M 100;Imwitor 308;Capmul MCM-C 8;Sunsoft 700P;Glycerol monooctanoate;Sunsoft 700H;Glyceryl monooctanoate;Homotex PT;Capmul MCM-L 8;Lexgard GMCY;Glycerin monooctanoate;MG 80;Poem FB 28;Sunsoft 700P2C;Jolee 7097;Almax 1150;Dermosoft GMCY-MB;SymLite G8;Capmul 808G",
    "duplicated_cas_no": "119938-58-8;1330-55-8;26894-47-3",
    "SMILES": "",
    "meta_data": {
        "InChI": "",
        "InChIKey": null,
        "Canonical SMILES": "",
        "Molecular Formula": "C<sub>11</sub>H<sub>22</sub>O<sub>4</sub>",
        "Molecular Mass": "",
        "Melting Point": "32 °C"
    }
}