{
    "cas_no": "105-39-5",
    "key_name": "Ethyl chloroacetate",
    "cn_name": "氯乙酸乙酯;",
    "alternate_name": "Acetic acid, 2-chloro-, ethyl ester;Acetic acid, chloro-, ethyl ester;Ethyl chloroacetate;Ethyl chloroethanoate;Ethyl α-chloroacetate;Ethyl monochloracetate;Chloroacetic acid ethyl ester;Ethyl chloracetate;Ethyl monochloroacetate;Ethyl 2-chloroacetate;(Ethoxycarbonyl)methyl chloride;2-Chloroacetic acid ethyl ester;NSC 8833;Ethyl 2-monochloroacetate",
    "duplicated_cas_no": "",
    "SMILES": "C(OCC)(CCl)=O",
    "meta_data": {
        "InChI": "InChI=1S/C4H7ClO2/c1-2-7-4(6)3-5/h2-3H2,1H3",
        "InChIKey": null,
        "Canonical SMILES": "O=C(OCC)CCl",
        "Molecular Formula": "C<sub>4</sub>H<sub>7</sub>ClO<sub>2</sub>",
        "Molecular Mass": "122.55",
        "Boiling Point": "144-146 °C",
        "Melting Point": "-26 °C",
        "Density": "1.1498 g/cm³ @ Temp: 20 °C"
    }
}