{
    "cas_no": "24935-08-8",
    "key_name": "1-(2-Aminoethyl)-2-pyrrolidinone",
    "cn_name": null,
    "alternate_name": "2-Pyrrolidinone, 1-(2-aminoethyl)-;1-(2-Aminoethyl)-2-pyrrolidinone;<em>N</em>-(β-Aminoethyl)-2-pyrrolidinone;<em>N</em>-(2-Aminoethyl)-2-pyrrolidone;<em>N</em>-(2-Aminoethyl)pyrrolidin-2-one;1-(2-Aminoethyl)pyrrolidin-2-one;[2-(2-Oxopyrrolidin-1-yl)ethyl]amine",
    "duplicated_cas_no": "",
    "SMILES": "C(CN)N1C(=O)CCC1",
    "meta_data": {
        "InChI": "InChI=1S/C6H12N2O/c7-3-5-8-4-1-2-6(8)9/h1-5,7H2",
        "InChIKey": null,
        "Canonical SMILES": "O=C1N(CCN)CCC1",
        "Molecular Formula": "C<sub>6</sub>H<sub>12</sub>N<sub>2</sub>O",
        "Molecular Mass": "128.17",
        "Boiling Point": "125-130 °C @ Press: 0.5 Torr"
    }
}