{
    "cas_no": "34433-86-8",
    "key_name": "3-Bromo-2-piperidinone",
    "cn_name": null,
    "alternate_name": "2-Piperidinone, 3-bromo-;2-Piperidone, 3-bromo-;3-Bromo-2-piperidinone;α-Bromovalerolactam;3-Bromo-2-piperidone;3-Bromopiperidin-2-one",
    "duplicated_cas_no": "",
    "SMILES": "BrC1C(=O)NCCC1",
    "meta_data": {
        "InChI": "InChI=1S/C5H8BrNO/c6-4-2-1-3-7-5(4)8/h4H,1-3H2,(H,7,8)",
        "InChIKey": null,
        "Canonical SMILES": "O=C1NCCCC1Br",
        "Molecular Formula": "C<sub>5</sub>H<sub>8</sub>BrNO",
        "Molecular Mass": "178.03",
        "Melting Point": "147 °C"
    }
}