{
    "cas_no": "116-54-1",
    "key_name": "Methyl dichloroacetate",
    "cn_name": "二氯乙酸甲酯;",
    "alternate_name": "Acetic acid, 2,2-dichloro-, methyl ester;Acetic acid, dichloro-, methyl ester;Methyl dichloroacetate;Dichloroacetic acid methyl ester;Methyl 2,2-dichloroacetate;1,1-Dichloro-2-methoxy-2-oxoethane;NSC 2882",
    "duplicated_cas_no": "",
    "SMILES": "C(C(Cl)Cl)(OC)=O",
    "meta_data": {
        "InChI": "InChI=1S/C3H4Cl2O2/c1-7-3(6)2(4)5/h2H,1H3",
        "InChIKey": null,
        "Canonical SMILES": "O=C(OC)C(Cl)Cl",
        "Molecular Formula": "C<sub>3</sub>H<sub>4</sub>Cl<sub>2</sub>O<sub>2</sub>",
        "Molecular Mass": "142.97",
        "Boiling Point": "142.9 °C",
        "Melting Point": "-51.9 °C",
        "Density": "1.375 g/cm³ @ Temp: 20 °C"
    }
}