{
    "cas_no": "2845-62-7",
    "key_name": "Benzenesulfonyl isocyanate",
    "cn_name": "苯磺酰异氰酸酯;",
    "alternate_name": "Benzenesulfonyl isocyanate;Benzenesulfonic acid, anhydride with isocyanic acid;Sulfone, isocyanato phenyl;Isocyanic acid, anhydride with benzenesulfonic acid;Phenylsulfonyl isocyanate",
    "duplicated_cas_no": "",
    "SMILES": "S(N=C=O)(=O)(=O)C1=CC=CC=C1",
    "meta_data": {
        "InChI": "InChI=1S/C7H5NO3S/c9-6-8-12(10,11)7-4-2-1-3-5-7/h1-5H",
        "InChIKey": null,
        "Canonical SMILES": "O=C=NS(=O)(=O)C=1C=CC=CC1",
        "Molecular Formula": "C<sub>7</sub>H<sub>5</sub>NO<sub>3</sub>S",
        "Molecular Mass": "183.18",
        "Boiling Point": "79-83 °C @ Press: 0.7 Torr"
    }
}