{
    "cas_no": "2969-81-5",
    "key_name": "Ethyl 4-bromobutyrate",
    "cn_name": "4-溴丁酸乙酯;",
    "alternate_name": "Butanoic acid, 4-bromo-, ethyl ester;Butyric acid, 4-bromo-, ethyl ester;γ-Bromobutyric acid ethyl ester;4-Bromobutyric acid ethyl ester;Ethyl γ-bromobutyrate;Ethyl 4-bromobutanoate;4-Bromobutanoic acid ethyl ester;3-(Ethoxycarbonyl)propyl bromide;Ethyl 4-bromobutyrate;1-Bromo-3-(carboethoxy)propane;NSC 133462",
    "duplicated_cas_no": "1435486-26-2",
    "SMILES": "C(CCCBr)(OCC)=O",
    "meta_data": {
        "InChI": "InChI=1S/C6H11BrO2/c1-2-9-6(8)4-3-5-7/h2-5H2,1H3",
        "InChIKey": null,
        "Canonical SMILES": "O=C(OCC)CCCBr",
        "Molecular Formula": "C<sub>6</sub>H<sub>11</sub>BrO<sub>2</sub>",
        "Molecular Mass": "195.05",
        "Boiling Point": "73.0-74.5 °C @ Press: 7 Torr",
        "Melting Point": "98-100 °C",
        "Density": "1.35633 g/cm³ @ Temp: 25.00 °C"
    }
}