{
    "cas_no": "99011-02-6",
    "key_name": "Imiquimod",
    "cn_name": "咪喹莫特;1-(2-甲基丙基)-4-氨基-1H-咪唑并[4,5-c]喹啉;",
    "alternate_name": "1<em>H</em>-Imidazo[4,5-<em>c</em>]quinolin-4-amine, 1-(2-methylpropyl)-;1-(2-Methylpropyl)-1<em>H</em>-imidazo[4,5-<em>c</em>]quinolin-4-amine;S 26308;R 837;Imiquimod;Aldara;1-Isobutyl-1<em>H</em>-imidazo[4,5-<em>c</em>]quinolin-4-amine;Beselna;TMX 101;Zyclara;Keravort;1-(2-Methylpropyl)imidazo[4,5-<em>c</em>]quinolin-4-amine;1-Isobutyl-1<em>H</em>-imidazo[4,5-<em>c</em>]quinolin-4-ylamine;Zartra",
    "duplicated_cas_no": "",
    "SMILES": "C(C(C)C)N1C=2C=3C(N=C(N)C2N=C1)=CC=CC3",
    "meta_data": {
        "InChI": "InChI=1S/C14H16N4/c1-9(2)7-18-8-16-12-13(18)10-5-3-4-6-11(10)17-14(12)15/h3-6,8-9H,7H2,1-2H3,(H2,15,17)",
        "InChIKey": null,
        "Canonical SMILES": "N1=CN(C2=C1C(=NC=3C=CC=CC32)N)CC(C)C",
        "Molecular Formula": "C<sub>14</sub>H<sub>16</sub>N<sub>4</sub>",
        "Molecular Mass": "240.30",
        "Melting Point": "292-294 °C"
    }
}