{
    "cas_no": "7319-16-6",
    "key_name": "1-Propene, 1-methoxy-",
    "cn_name": "甲基1-丙烯基醚;",
    "alternate_name": "1-Propene, 1-methoxy-;Ether, methyl propenyl;Methyl 1-propenyl ether;1-Methoxypropene;1-Methoxy-1-propene;Methyl propenyl ether",
    "duplicated_cas_no": "",
    "SMILES": "C(=CC)OC",
    "meta_data": {
        "InChI": "InChI=1S/C4H8O/c1-3-4-5-2/h3-4H,1-2H3",
        "InChIKey": null,
        "Canonical SMILES": "O(C=CC)C",
        "Molecular Formula": "C<sub>4</sub>H<sub>8</sub>O",
        "Molecular Mass": "72.11",
        "Boiling Point": "48.3-48.4 °C @ Press: 760 Torr"
    }
}