{
    "cas_no": "5410-97-9",
    "key_name": "3-Nitrodibenzofuran",
    "cn_name": "3-硝基二苯并呋喃;",
    "alternate_name": "Dibenzofuran, 3-nitro-;3-Nitrodibenzofuran;NSC 10862;3-Nitrodibenzo[<em>b</em>,<em>d</em>]furan",
    "duplicated_cas_no": "",
    "SMILES": "N(=O)(=O)C=1C=C2C(C=3C(O2)=CC=CC3)=CC1",
    "meta_data": {
        "InChI": "InChI=1S/C12H7NO3/c14-13(15)8-5-6-10-9-3-1-2-4-11(9)16-12(10)7-8/h1-7H",
        "InChIKey": null,
        "Canonical SMILES": "O=N(=O)C=1C=CC2=C(OC=3C=CC=CC32)C1",
        "Molecular Formula": "C<sub>12</sub>H<sub>7</sub>NO<sub>3</sub>",
        "Molecular Mass": "213.19",
        "Melting Point": "181.5 °C"
    }
}