{
    "cas_no": "38713-56-3",
    "key_name": "Nonyl 4-hydroxybenzoate",
    "cn_name": "4-羟基苯甲酸壬酯;",
    "alternate_name": "Benzoic acid, 4-hydroxy-, nonyl ester;Benzoic acid, <em>p</em>-hydroxy-, nonyl ester;Nonyl <em>p</em>-hydroxybenzoate;<em>p</em>-Hydroxybenzoic acid nonyl ester;<em>n</em>-Nonyl 4-hydroxybenzoate;4-Hydroxy nonylbenzoate;Nonyl 4-hydroxybenzoate",
    "duplicated_cas_no": "",
    "SMILES": "C(OCCCCCCCCC)(=O)C1=CC=C(O)C=C1",
    "meta_data": {
        "InChI": "InChI=1S/C16H24O3/c1-2-3-4-5-6-7-8-13-19-16(18)14-9-11-15(17)12-10-14/h9-12,17H,2-8,13H2,1H3",
        "InChIKey": null,
        "Canonical SMILES": "O=C(OCCCCCCCCC)C1=CC=C(O)C=C1",
        "Molecular Formula": "C<sub>16</sub>H<sub>24</sub>O<sub>3</sub>",
        "Molecular Mass": "264.36",
        "Melting Point": "55 °C"
    }
}