{
    "cas_no": "1468-95-7",
    "key_name": "9-Anthracenemethanol",
    "cn_name": "9-蒽醇;9-蒽甲醇;",
    "alternate_name": "9-Anthracenemethanol;9-Anthrylcarbinol;9-Methylolanthracene;9-(Hydroxymethyl)anthracene;Anthracene-9-carbinol;9-Anthrylmethanol;9-Anthracenylmethanol;NSC 241166;9-Anthracenylmethyl alcohol",
    "duplicated_cas_no": "",
    "SMILES": "C(O)C=1C2=C(C=C3C1C=CC=C3)C=CC=C2",
    "meta_data": {
        "InChI": "InChI=1S/C15H12O/c16-10-15-13-7-3-1-5-11(13)9-12-6-2-4-8-14(12)15/h1-9,16H,10H2",
        "InChIKey": null,
        "Canonical SMILES": "OCC=1C=2C=CC=CC2C=C3C=CC=CC31",
        "Molecular Formula": "C<sub>15</sub>H<sub>12</sub>O",
        "Molecular Mass": "208.26",
        "Melting Point": "158 °C"
    }
}