{
    "cas_no": "133407-82-6",
    "key_name": "<em>N</em>-[(Phenylmethoxy)carbonyl]-<span class=\"text-smallcaps\">L</smallcap>-leucyl-<em>N</em>-[(1<em>S</em>)-1-formyl-3-methylbutyl]-<smallcap>L</span>-leucinamide",
    "cn_name": "MG-132;",
    "alternate_name": "<span class=\"text-smallcaps\">L</smallcap>-Leucinamide, <em>N</em>-[(phenylmethoxy)carbonyl]-<smallcap>L</span>-leucyl-<em>N</em>-[(1<em>S</em>)-1-formyl-3-methylbutyl]-;<span class=\"text-smallcaps\">L</smallcap>-Leucinamide, <em>N</em>-[(phenylmethoxy)carbonyl]-<smallcap>L</span>-leucyl-<em>N</em>-(1-formyl-3-methylbutyl)-, (<em>S</em>)-;<em>N</em>-[(Phenylmethoxy)carbonyl]-<span class=\"text-smallcaps\">L</smallcap>-leucyl-<em>N</em>-[(1<em>S</em>)-1-formyl-3-methylbutyl]-<smallcap>L</span>-leucinamide;MG 132;Calpain inhibitor IV-2",
    "duplicated_cas_no": "",
    "SMILES": "[C@@H](NC([C@@H](NC(OCC1=CC=CC=C1)=O)CC(C)C)=O)(C(N[C@@H](CC(C)C)C=O)=O)CC(C)C",
    "meta_data": {
        "InChI": "InChI=1S/C26H41N3O5/c1-17(2)12-21(15-30)27-24(31)22(13-18(3)4)28-25(32)23(14-19(5)6)29-26(33)34-16-20-10-8-7-9-11-20/h7-11,15,17-19,21-23H,12-14,16H2,1-6H3,(H,27,31)(H,28,32)(H,29,33)/t21-,22-,23-/m0/s1",
        "InChIKey": null,
        "Canonical SMILES": "O=CC(NC(=O)C(NC(=O)C(NC(=O)OCC=1C=CC=CC1)CC(C)C)CC(C)C)CC(C)C",
        "Molecular Formula": "C<sub>26</sub>H<sub>41</sub>N<sub>3</sub>O<sub>5</sub>",
        "Molecular Mass": "475.62",
        "Melting Point": "80-84 °C (decomp)"
    }
}