{
    "cas_no": "604-44-4",
    "key_name": "4-Chloro-1-naphthol",
    "cn_name": "4-氯-1-萘酚;氯萘酚;",
    "alternate_name": "1-Naphthalenol, 4-chloro-;1-Naphthol, 4-chloro-;4-Chloro-1-naphthalenol;4-Chloro-α-naphthol;4-Chloro-1-naphthol;1-Chloro-4-hydroxynaphthalene;1-Hydroxy-4-chloronaphthalene;NSC 44345;1-Chloro-4-naphthol",
    "duplicated_cas_no": "",
    "SMILES": "ClC=1C2=C(C(O)=CC1)C=CC=C2",
    "meta_data": {
        "InChI": "InChI=1S/C10H7ClO/c11-9-5-6-10(12)8-4-2-1-3-7(8)9/h1-6,12H",
        "InChIKey": null,
        "Canonical SMILES": "ClC1=CC=C(O)C=2C=CC=CC12",
        "Molecular Formula": "C<sub>10</sub>H<sub>7</sub>ClO",
        "Molecular Mass": "178.62",
        "Melting Point": "117-118 °C"
    }
}