{
    "cas_no": "20784-50-3",
    "key_name": "Isobavachalcone",
    "cn_name": null,
    "alternate_name": "2-Propen-1-one, 1-[2,4-dihydroxy-3-(3-methyl-2-buten-1-yl)phenyl]-3-(4-hydroxyphenyl)-, (2<em>E</em>)-;Chalcone, 2′,4,4′-trihydroxy-3′-(3-methyl-2-butenyl)-;2-Propen-1-one, 1-[2,4-dihydroxy-3-(3-methyl-2-butenyl)phenyl]-3-(4-hydroxyphenyl)-, (<em>E</em>)-;2-Propen-1-one, 1-[2,4-dihydroxy-3-(3-methyl-2-butenyl)phenyl]-3-(4-hydroxyphenyl)-, (2<em>E</em>)-;(2<em>E</em>)-1-[2,4-Dihydroxy-3-(3-methyl-2-butenyl)phenyl]-3-(4-hydroxyphenyl)-2-propen-1-one;Isobavachalcone;Corylifolinin;Isobacachalcone;4-Hydroxyisocordoin",
    "duplicated_cas_no": "",
    "SMILES": "C(/C=C/C1=CC=C(O)C=C1)(=O)C2=C(O)C(CC=C(C)C)=C(O)C=C2",
    "meta_data": {
        "InChI": "InChI=1S/C20H20O4/c1-13(2)3-9-16-19(23)12-10-17(20(16)24)18(22)11-6-14-4-7-15(21)8-5-14/h3-8,10-12,21,23-24H,9H2,1-2H3/b11-6+",
        "InChIKey": null,
        "Canonical SMILES": "O=C(C=CC1=CC=C(O)C=C1)C2=CC=C(O)C(=C2O)CC=C(C)C",
        "Molecular Formula": "C<sub>20</sub>H<sub>20</sub>O<sub>4</sub>",
        "Molecular Mass": "324.37",
        "Melting Point": "156.8-157.8 °C"
    }
}