{
    "cas_no": "327-51-5",
    "key_name": "1,4-Dibromo-2,5-difluorobenzene",
    "cn_name": "1,4-二溴-2,5-二氟苯;",
    "alternate_name": "Benzene, 1,4-dibromo-2,5-difluoro-;1,4-Dibromo-2,5-difluorobenzene;2,5-Dibromo-1,4-difluorobenzene;2,5-Difluoro-1,4-dibromobenzene",
    "duplicated_cas_no": "",
    "SMILES": "BrC1=C(F)C=C(Br)C(F)=C1",
    "meta_data": {
        "InChI": "InChI=1S/C6H2Br2F2/c7-3-1-5(9)4(8)2-6(3)10/h1-2H",
        "InChIKey": null,
        "Canonical SMILES": "FC=1C=C(Br)C(F)=CC1Br",
        "Molecular Formula": "C<sub>6</sub>H<sub>2</sub>Br<sub>2</sub>F<sub>2</sub>",
        "Molecular Mass": "271.88",
        "Boiling Point": "96 °C @ Press: 20 Torr",
        "Melting Point": "64.5-65.5 °C"
    }
}