{
    "cas_no": "24358-84-7",
    "key_name": "(+)-Mepivacaine",
    "cn_name": null,
    "alternate_name": "2-Piperidinecarboxamide, <em>N</em>-(2,6-dimethylphenyl)-1-methyl-, (2<em>S</em>)-;2′,6′-Pipecoloxylidide, 1-methyl-, (+)-;2-Piperidinecarboxamide, <em>N</em>-(2,6-dimethylphenyl)-1-methyl-, (<em>S</em>)-;(2<em>S</em>)-<em>N</em>-(2,6-Dimethylphenyl)-1-methyl-2-piperidinecarboxamide;Dexivacaine;(+)-1-Methyl-2′,6′-pipecoloxylidide;(+)-Mepivacaine;<span class=\"text-smallcaps\">L</span>-(+)-Mepivacaine;(<em>S</em>)-Mepivacaine;(<em>S</em>)-Mepavacaine",
    "duplicated_cas_no": "",
    "SMILES": "N(C(=O)[C@H]1N(C)CCCC1)C2=C(C)C=CC=C2C",
    "meta_data": {
        "InChI": "InChI=1S/C15H22N2O/c1-11-7-6-8-12(2)14(11)16-15(18)13-9-4-5-10-17(13)3/h6-8,13H,4-5,9-10H2,1-3H3,(H,16,18)/t13-/m0/s1",
        "InChIKey": null,
        "Canonical SMILES": "O=C(NC=1C(=CC=CC1C)C)C2N(C)CCCC2",
        "Molecular Formula": "C<sub>15</sub>H<sub>22</sub>N<sub>2</sub>O",
        "Molecular Mass": "246.35",
        "Melting Point": "148-150 °C"
    }
}