{
    "cas_no": "510-22-5",
    "key_name": "Voacangine",
    "cn_name": null,
    "alternate_name": "Ibogamine-18-carboxylic acid, 12-methoxy-, methyl ester;Voacangine;6,9-Methano-5<em>H</em>-pyrido[1′,2′:1,2]azepino[4,5-<em>b</em>]indole, ibogamine-18-carboxylic acid deriv.;Carbomethoxyibogaine;(-)-Voacangine;10-Methoxycoronaridine",
    "duplicated_cas_no": "",
    "SMILES": "C(OC)(=O)[C@]12[C@]3([N@](C[C@@](C1)(C[C@@H]3CC)[H])CCC4=C2NC=5C4=CC(OC)=CC5)[H]",
    "meta_data": {
        "InChI": "InChI=1S/C22H28N2O3/c1-4-14-9-13-11-22(21(25)27-3)19-16(7-8-24(12-13)20(14)22)17-10-15(26-2)5-6-18(17)23-19/h5-6,10,13-14,20,23H,4,7-9,11-12H2,1-3H3/t13-,14+,20+,22-/m1/s1",
        "InChIKey": null,
        "Canonical SMILES": "O=C(OC)C12C=3NC=4C=CC(OC)=CC4C3CCN5CC(CC(CC)C51)C2",
        "Molecular Formula": "C<sub>22</sub>H<sub>28</sub>N<sub>2</sub>O<sub>3</sub>",
        "Molecular Mass": "368.47",
        "Melting Point": "137-138 °C"
    }
}