{
    "cas_no": "97-64-3",
    "key_name": "Ethyl lactate",
    "cn_name": "乳酸乙酯;",
    "alternate_name": "Propanoic acid, 2-hydroxy-, ethyl ester;Lactic acid, ethyl ester;Actylol;Acytol;Ethyl α-hydroxypropionate;Ethyl lactate;Solactol;Ethyl 2-hydroxypropanoate;Ethyl 2-hydroxypropionate;Purasolv ELS;Ethyl <em>rac</em>-lactate;(±)-Ethyl lactate;<span class=\"text-smallcaps\">DL</span>-Ethyl lactate;<em>dl</em>-Lactic acid ethyl ester;(±)-Lactic acid ethyl ester;(±)-Ethyl 2-hydroxypropionate;2-Hydroxypropanoic acid ethyl ester;Vertec ELS;NSC 8850;PBR 40;VertecBio EL;Purasolv EL;Galaster ELIDL 98",
    "duplicated_cas_no": "2676-33-7",
    "SMILES": "C(OCC)(C(C)O)=O",
    "meta_data": {
        "InChI": "InChI=1S/C5H10O3/c1-3-8-5(7)4(2)6/h4,6H,3H2,1-2H3",
        "InChIKey": null,
        "Canonical SMILES": "O=C(OCC)C(O)C",
        "Molecular Formula": "C<sub>5</sub>H<sub>10</sub>O<sub>3</sub>",
        "Molecular Mass": "118.13",
        "Boiling Point": "154 °C",
        "Melting Point": "-25.0 °C",
        "Density": "1.0385 g/cm³"
    }
}