{
    "cas_no": "7791-18-6",
    "key_name": "Magnesium chloride (MgCl<sub>2</sub>) hydrate (1:6)",
    "cn_name": "氯化镁(六水合物);六水氯化镁;",
    "alternate_name": "Magnesium chloride (MgCl<sub>2</sub>), hydrate (1:6);Magnesium chloride, hexahydrate;Magnesium chloride (MgCl<sub>2</sub>), hexahydrate;Magnesium chloride (MgCl<sub>2</sub>) hydrate (1:6);Magnesium dichloride hexahydrate;Magnesium chloride hydrate (MgCl<sub>2</sub>.6H<sub>2</sub>O);Magnesium chloride hexahydrate (MgCl<sub>2</sub>.6H<sub>2</sub>O);Magnesium(II) chloride hexahydrate;Magnesium chloride hexahydrate;Crystallin CS;Bishopite;Magnesfine AT;MgCl<sub>2</sub>.6H<sub>2</sub>O;Magnesfine HT",
    "duplicated_cas_no": "",
    "SMILES": "[Mg](Cl)Cl.O",
    "meta_data": {
        "InChI": "InChI=1S/2ClH.Mg.6H2O/h2*1H;;6*1H2/q;;+2;;;;;;/p-2",
        "InChIKey": null,
        "Canonical SMILES": "Cl[Mg]Cl.O",
        "Molecular Formula": "Cl<sub>2</sub>Mg.6H<sub>2</sub>O",
        "Molecular Mass": "",
        "Melting Point": "116.7 °C",
        "Density": "1.56 g/cm³"
    }
}