{
    "cas_no": "2252-51-9",
    "key_name": "2-Chloro-4-fluorobenzoic acid",
    "cn_name": "2-氯-4-氟苯甲酸;邻氯对氟苯甲酸;",
    "alternate_name": "Benzoic acid, 2-chloro-4-fluoro-;2-Chloro-4-fluorobenzoic acid",
    "duplicated_cas_no": "",
    "SMILES": "C(O)(=O)C1=C(Cl)C=C(F)C=C1",
    "meta_data": {
        "InChI": "InChI=1S/C7H4ClFO2/c8-6-3-4(9)1-2-5(6)7(10)11/h1-3H,(H,10,11)",
        "InChIKey": null,
        "Canonical SMILES": "O=C(O)C1=CC=C(F)C=C1Cl",
        "Molecular Formula": "C<sub>7</sub>H<sub>4</sub>ClFO<sub>2</sub>",
        "Molecular Mass": "174.56",
        "Melting Point": "181-182 °C"
    }
}