{
    "cas_no": "62-54-4",
    "key_name": "Calcium acetate",
    "cn_name": "乙酸钙;醋酸钙;",
    "alternate_name": "Acetic acid, calcium salt (2:1);Calcium acetate;Acetic acid, calcium salt;Brown acetate;Calcium diacetate;Gray acetate;Lime acetate;Lime pyrolignite;Sorbo-Calcion;Teltozan;Sanopan;PhosLo;Royen;E 263;Phosex",
    "duplicated_cas_no": "",
    "SMILES": "C(C)(O)=O.[Ca]",
    "meta_data": {
        "InChI": "InChI=1S/C2H4O2.Ca/c1-2(3)4;/h1H3,(H,3,4);",
        "InChIKey": null,
        "Canonical SMILES": "[Ca].O=C(O)C",
        "Molecular Formula": "C<sub>2</sub>H<sub>4</sub>O<sub>2</sub>.<sup>1</sup>/<sub>2</sub>Ca",
        "Molecular Mass": "",
        "Melting Point": "160 °C (decomp)",
        "Density": "150 g/cm³"
    }
}