{
    "cas_no": "2432-42-0",
    "key_name": "<em>S</em>-Ethyl propanethioate",
    "cn_name": "硫代丙酸S-乙酯;硫代丙酸S-乙酯;",
    "alternate_name": "Propanethioic acid, <em>S</em>-ethyl ester;Propionic acid, thio-, <em>S</em>-ethyl ester;<em>S</em>-Ethyl thiopropanoate;<em>S</em>-Ethyl propanethioate;NSC 159051;<em>S</em>-Ethyl thiopropionate;1-(Ethylsulfanyl)propan-1-one",
    "duplicated_cas_no": "",
    "SMILES": "C(SCC)(CC)=O",
    "meta_data": {
        "InChI": "InChI=1S/C5H10OS/c1-3-5(6)7-4-2/h3-4H2,1-2H3",
        "InChIKey": null,
        "Canonical SMILES": "O=C(SCC)CC",
        "Molecular Formula": "C<sub>5</sub>H<sub>10</sub>OS",
        "Molecular Mass": "118.20",
        "Boiling Point": "130-132 °C",
        "Melting Point": "-95 °C",
        "Density": "0.9639 g/cm³ @ Temp: 0 °C"
    }
}