{
    "cas_no": "870-63-3",
    "key_name": "Prenyl bromide",
    "cn_name": "1-溴-3-甲基-2-丁烯;",
    "alternate_name": "2-Butene, 1-bromo-3-methyl-;1-Bromo-3-methyl-2-butene;3-Methyl-2-butenyl bromide;Prenyl bromide;γ,γ-Dimethylallyl bromide;3,3-Dimethylallyl bromide;4-Bromo-2-methyl-2-butene;3-Methylcrotyl bromide;Dimethylallyl bromide;3,3-Dimethallyl bromide;Isoprene hydrobromide;Isoprenyl bromide;3-Methyl-1-bromo-2-butene;3-Methyl-2-buten-1-yl bromide",
    "duplicated_cas_no": "",
    "SMILES": "C(=C(C)C)CBr",
    "meta_data": {
        "InChI": "InChI=1S/C5H9Br/c1-5(2)3-4-6/h3H,4H2,1-2H3",
        "InChIKey": null,
        "Canonical SMILES": "BrCC=C(C)C",
        "Molecular Formula": "C<sub>5</sub>H<sub>9</sub>Br",
        "Molecular Mass": "149.03",
        "Boiling Point": "62-64 °C @ Press: 67 Torr",
        "Density": "1.2930 g/cm³ @ Temp: 15 °C"
    }
}