{
    "cas_no": "16011-97-5",
    "key_name": "<em>N</em><sup>1</sup>,<em>N</em><sup>4</sup>-Dimethyl-1,4-butanediamine",
    "cn_name": "N,N\"-二甲基-1,4-丁烷二胺;",
    "alternate_name": "1,4-Butanediamine, <em>N</em><sup>1</sup>,<em>N</em><sup>4</sup>-dimethyl-;1,4-Butanediamine, <em>N</em>,<em>N</em>′-dimethyl-;<em>N</em><sup>1</sup>,<em>N</em><sup>4</sup>-Dimethyl-1,4-butanediamine;<em>N</em>,<em>N</em>′-Dimethyl-1,4-butanediamine;<em>N</em>,<em>N</em>′-Dimethyltetramethylenediamine;<em>N</em>,<em>N</em>′-Dimethylputrescine;1,4-Bis(methylamino)butane;<em>N</em>,<em>N</em>′-Dimethylbutanediamine;<em>N</em>,<em>N</em>′-Dimethyl-1,4-diaminobutane;1,4-Butanediamine N1,N4-dimethyl-",
    "duplicated_cas_no": "",
    "SMILES": "C(CCNC)CNC",
    "meta_data": {
        "InChI": "InChI=1S/C6H16N2/c1-7-5-3-4-6-8-2/h7-8H,3-6H2,1-2H3",
        "InChIKey": null,
        "Canonical SMILES": "N(C)CCCCNC",
        "Molecular Formula": "C<sub>6</sub>H<sub>16</sub>N<sub>2</sub>",
        "Molecular Mass": "116.20",
        "Boiling Point": "168 °C"
    }
}