{
    "cas_no": "15988-11-1",
    "key_name": "4-Phenyl-1,2,4-triazolidine-3,5-dione",
    "cn_name": null,
    "alternate_name": "1,2,4-Triazolidine-3,5-dione, 4-phenyl-;Bicarbamimide, <em>N</em>-phenyl-;4-Phenyl-1,2,4-triazolidine-3,5-dione;4-Phenylurazole;NSC 93432",
    "duplicated_cas_no": "",
    "SMILES": "O=C1N(C(=O)NN1)C2=CC=CC=C2",
    "meta_data": {
        "InChI": "InChI=1S/C8H7N3O2/c12-7-9-10-8(13)11(7)6-4-2-1-3-5-6/h1-5H,(H,9,12)(H,10,13)",
        "InChIKey": null,
        "Canonical SMILES": "O=C1NNC(=O)N1C=2C=CC=CC2",
        "Molecular Formula": "C<sub>8</sub>H<sub>7</sub>N<sub>3</sub>O<sub>2</sub>",
        "Molecular Mass": "177.16",
        "Melting Point": "202-203 °C"
    }
}