{
    "cas_no": "698-26-0",
    "key_name": "5-Chloro-1<em>H</em>-indazole",
    "cn_name": null,
    "alternate_name": "1<em>H</em>-Indazole, 5-chloro-;5-Chloro-1<em>H</em>-indazole;5-Chloroindazole;NSC 78434",
    "duplicated_cas_no": "",
    "SMILES": "ClC=1C=C2C(=CC1)NN=C2",
    "meta_data": {
        "InChI": "InChI=1S/C7H5ClN2/c8-6-1-2-7-5(3-6)4-9-10-7/h1-4H,(H,9,10)",
        "InChIKey": null,
        "Canonical SMILES": "ClC=1C=CC=2NN=CC2C1",
        "Molecular Formula": "C<sub>7</sub>H<sub>5</sub>ClN<sub>2</sub>",
        "Molecular Mass": "152.58",
        "Melting Point": "119-120 °C"
    }
}