{
    "cas_no": "1699-51-0",
    "key_name": "(±)-Laudanosine",
    "cn_name": null,
    "alternate_name": "Isoquinoline, 1-[(3,4-dimethoxyphenyl)methyl]-1,2,3,4-tetrahydro-6,7-dimethoxy-2-methyl-;Isoquinoline, 1,2,3,4-tetrahydro-6,7-dimethoxy-2-methyl-1-veratryl-, (±)-;Isoquinoline, 1-[(3,4-dimethoxyphenyl)methyl]-1,2,3,4-tetrahydro-6,7-dimethoxy-2-methyl-, (±)-;1-[(3,4-Dimethoxyphenyl)methyl]-1,2,3,4-tetrahydro-6,7-dimethoxy-2-methylisoquinoline;(±)-Laudanosine;<span class=\"text-smallcaps\">DL</span>-Laudanosine;<em>N</em>-Methyltetrahydropapaverine;1,2,3,4-Tetrahydro-6,7-dimethoxy-2-methyl-1-veratrylisoquinoline;Veraisoquin;NSC 331268;NSC 94267;1-[(3,4-Dimethoxyphenyl)methyl]-6,7-dimethoxy-2-methyl-3,4-dihydro-1<em>H</em>-isoquinoline",
    "duplicated_cas_no": "20412-65-1",
    "SMILES": "C(C1C=2C(=CC(OC)=C(OC)C2)CCN1C)C3=CC(OC)=C(OC)C=C3",
    "meta_data": {
        "InChI": "InChI=1S/C21H27NO4/c1-22-9-8-15-12-20(25-4)21(26-5)13-16(15)17(22)10-14-6-7-18(23-2)19(11-14)24-3/h6-7,11-13,17H,8-10H2,1-5H3",
        "InChIKey": null,
        "Canonical SMILES": "O(C1=CC=C(C=C1OC)CC2C3=CC(OC)=C(OC)C=C3CCN2C)C",
        "Molecular Formula": "C<sub>21</sub>H<sub>27</sub>NO<sub>4</sub>",
        "Molecular Mass": "357.44",
        "Melting Point": "114 °C"
    }
}