{
    "cas_no": "1445-39-2",
    "key_name": "5-Iodo-2-pyrimidinamine",
    "cn_name": "2-氨基-5-碘嘧啶;",
    "alternate_name": "2-Pyrimidinamine, 5-iodo-;Pyrimidine, 2-amino-5-iodo-;5-Iodo-2-pyrimidinamine;2-Amino-5-iodopyrimidine;NSC 48224;5-Iodopyrimidin-2-ylamine",
    "duplicated_cas_no": "",
    "SMILES": "IC=1C=NC(N)=NC1",
    "meta_data": {
        "InChI": "InChI=1S/C4H4IN3/c5-3-1-7-4(6)8-2-3/h1-2H,(H2,6,7,8)",
        "InChIKey": null,
        "Canonical SMILES": "IC1=CN=C(N=C1)N",
        "Molecular Formula": "C<sub>4</sub>H<sub>4</sub>IN<sub>3</sub>",
        "Molecular Mass": "221.00",
        "Melting Point": "224-226 °C"
    }
}