{
    "cas_no": "51516-68-8",
    "key_name": "5-Amino-1-(3-chlorophenyl)-1<em>H</em>-pyrazole-4-carbonitrile",
    "cn_name": "5-氨基-1-(3-氯苯基)-1H-吡唑-4-甲腈;",
    "alternate_name": "1<em>H</em>-Pyrazole-4-carbonitrile, 5-amino-1-(3-chlorophenyl)-;5-Amino-1-(3-chlorophenyl)-1<em>H</em>-pyrazole-4-carbonitrile",
    "duplicated_cas_no": "",
    "SMILES": "NC=1N(N=CC1C#N)C2=CC(Cl)=CC=C2",
    "meta_data": {
        "InChI": "InChI=1S/C10H7ClN4/c11-8-2-1-3-9(4-8)15-10(13)7(5-12)6-14-15/h1-4,6H,13H2",
        "InChIKey": null,
        "Canonical SMILES": "N#CC=1C=NN(C=2C=CC=C(Cl)C2)C1N",
        "Molecular Formula": "C<sub>10</sub>H<sub>7</sub>ClN<sub>4</sub>",
        "Molecular Mass": "218.64",
        "Melting Point": "188-189 °C"
    }
}