{
    "cas_no": "4436-24-2",
    "key_name": "2-(Phenylmethyl)oxirane",
    "cn_name": "(2,3-环氧丙基)苯;",
    "alternate_name": "Oxirane, 2-(phenylmethyl)-;Benzene, (2,3-epoxypropyl)-;Oxirane, (phenylmethyl)-;2-(Phenylmethyl)oxirane;Propane, 1,2-epoxy-3-phenyl-;1-Phenyl-2,3-epoxypropane;Benzylethylene oxide;3-Phenylpropene-1,2-oxide;2,3-Epoxy-1-phenylpropane;Allylbenzene oxide;1,2-Epoxy-3-phenylpropane;2-Benzyloxirane;3-Phenyl-1,2-epoxypropane;Benzyloxirane;Allylbenzene epoxide;(2,3-Epoxypropyl)benzene;Allylbenzene 2′,3′-oxide;(Phenylmethyl)oxirane;(±)-(2,3-Epoxypropyl)benzene;1-Benzyloxirane;NSC 4327",
    "duplicated_cas_no": "96553-68-3",
    "SMILES": "C(C1=CC=CC=C1)C2CO2",
    "meta_data": {
        "InChI": "InChI=1S/C9H10O/c1-2-4-8(5-3-1)6-9-7-10-9/h1-5,9H,6-7H2",
        "InChIKey": null,
        "Canonical SMILES": "O1CC1CC=2C=CC=CC2",
        "Molecular Formula": "C<sub>9</sub>H<sub>10</sub>O",
        "Molecular Mass": "134.18",
        "Boiling Point": "98-100 °C @ Press: 17 Torr",
        "Density": "1.0059 g/cm³ @ Temp: 0 °C"
    }
}