{
    "cas_no": "154-68-7",
    "key_name": "Antazoline phosphate",
    "cn_name": "安它唑啉磷酸酯;",
    "alternate_name": "1<em>H</em>-Imidazole-2-methanamine, 4,5-dihydro-<em>N</em>-phenyl-<em>N</em>-(phenylmethyl)-, phosphate (1:1);2-Imidazoline, 2-[(<em>N</em>-benzylanilino)methyl]-, phosphate (1:1);Antazoline phosphate;Antistine phosphate;2-[(<em>N</em>-Benzylanilino)methyl]-2-imidazoline dihydrogen phosphate",
    "duplicated_cas_no": "",
    "SMILES": "P(=O)(O)(O)O.N(CC1=CC=CC=C1)(CC=2NCCN2)C3=CC=CC=C3",
    "meta_data": {
        "InChI": "InChI=1S/C17H19N3.H3O4P/c1-3-7-15(8-4-1)13-20(14-17-18-11-12-19-17)16-9-5-2-6-10-16;1-5(2,3)4/h1-10H,11-14H2,(H,18,19);(H3,1,2,3,4)",
        "InChIKey": null,
        "Canonical SMILES": "O=P(O)(O)O.N1=C(NCC1)CN(C=2C=CC=CC2)CC=3C=CC=CC3",
        "Molecular Formula": "C<sub>17</sub>H<sub>19</sub>N<sub>3</sub>.H<sub>3</sub>O<sub>4</sub>P",
        "Molecular Mass": "",
        "Melting Point": "194-198 °C"
    }
}