{
    "cas_no": "495-78-3",
    "key_name": "Melilotic acid",
    "cn_name": null,
    "alternate_name": "Benzenepropanoic acid, 2-hydroxy-;Hydrocinnamic acid, <em>o</em>-hydroxy-;2-Hydroxybenzenepropanoic acid;Melilotic acid;<em>o</em>-Hydroxyphenylpropionic acid;Hydro-<em>o</em>-coumaric acid;Hydrocoumaric acid;<em>o</em>-Hydroxyhydrocinnamic acid;3-(2-Hydroxyphenyl)propanoic acid;Salicylacetic acid",
    "duplicated_cas_no": "",
    "SMILES": "C(CC(O)=O)C1=C(O)C=CC=C1",
    "meta_data": {
        "InChI": "InChI=1S/C9H10O3/c10-8-4-2-1-3-7(8)5-6-9(11)12/h1-4,10H,5-6H2,(H,11,12)",
        "InChIKey": null,
        "Canonical SMILES": "O=C(O)CCC=1C=CC=CC1O",
        "Molecular Formula": "C<sub>9</sub>H<sub>10</sub>O<sub>3</sub>",
        "Molecular Mass": "166.17",
        "Melting Point": "82-83 °C"
    }
}