{
    "cas_no": "367-57-7",
    "key_name": "1,1,1-Trifluoro-2,4-pentanedione",
    "cn_name": "1,1,1-三氟-2,4-戊二酮;1,1,1-三氟乙酰丙酮;",
    "alternate_name": "2,4-Pentanedione, 1,1,1-trifluoro-;1,1,1-Trifluoro-2,4-pentanedione;1,1,1-(Trifluoroacetyl)acetone;(Trifluoroacetyl)acetone;NSC 9455;1,1,1-Trifluoroacetylacetonate",
    "duplicated_cas_no": "",
    "SMILES": "C(CC(C)=O)(C(F)(F)F)=O",
    "meta_data": {
        "InChI": "InChI=1S/C5H5F3O2/c1-3(9)2-4(10)5(6,7)8/h2H2,1H3",
        "InChIKey": null,
        "Canonical SMILES": "O=C(C)CC(=O)C(F)(F)F",
        "Molecular Formula": "C<sub>5</sub>H<sub>5</sub>F<sub>3</sub>O<sub>2</sub>",
        "Molecular Mass": "154.09",
        "Boiling Point": "106 °C",
        "Density": "1.27 g/cm³"
    }
}