{
    "cas_no": "1128-23-0",
    "key_name": "Reduced ascorbate",
    "cn_name": "L-古洛糖酸-gamma-内酯;",
    "alternate_name": "<span class=\"text-smallcaps\">L</span>-Gulonic acid, γ-lactone;Gulonic acid, γ-lactone, <span class=\"text-smallcaps\">L</span>-;<span class=\"text-smallcaps\">L</span>-Gulono-1,4-lactone;<span class=\"text-smallcaps\">L</span>-Gulonolactone;<span class=\"text-smallcaps\">L</span>-Gulono-γ-lactone;Reduced ascorbic acid;γ-Gulonolactone;Reduced ascorbate;Dihydroascorbic acid;<span class=\"text-smallcaps\">L</span>-(+)-Gulonic acid γ-lactone",
    "duplicated_cas_no": "898817-28-2",
    "SMILES": "[C@@H](CO)(O)[C@@]1([C@H](O)[C@H](O)C(=O)O1)[H]",
    "meta_data": {
        "InChI": "InChI=1S/C6H10O6/c7-1-2(8)5-3(9)4(10)6(11)12-5/h2-5,7-10H,1H2/t2-,3+,4-,5+/m0/s1",
        "InChIKey": null,
        "Canonical SMILES": "O=C1OC(C(O)CO)C(O)C1O",
        "Molecular Formula": "C<sub>6</sub>H<sub>10</sub>O<sub>6</sub>",
        "Molecular Mass": "178.14",
        "Melting Point": "180-182 °C"
    }
}