{
    "cas_no": "623-27-8",
    "key_name": "1,4-Benzenedicarboxaldehyde",
    "cn_name": "对苯二甲醛;",
    "alternate_name": "1,4-Benzenedicarboxaldehyde;Terephthalaldehyde;Terephthalic aldehyde;1,4-Diformylbenzene;<em>p</em>-Benzenedicarboxaldehyde;4-Formylbenzaldehyde;<em>p</em>-Formylbenzaldehyde;Terephthaldialdehyde;1,4-Benzenedialdehyde;1,4-Benzenedicarbaldehyde;<em>p</em>-Phthaldialdehyde;<em>p</em>-Benzenedialdehyde;<em>p</em>-Diformylbenzene;NSC 13395;Terephthaldicarbaldehyde;1,4-Terephthaldicarbaldehyde;TPAL;Terephthal",
    "duplicated_cas_no": "",
    "SMILES": "C(=O)C1=CC=C(C=O)C=C1",
    "meta_data": {
        "InChI": "InChI=1S/C8H6O2/c9-5-7-1-2-8(6-10)4-3-7/h1-6H",
        "InChIKey": null,
        "Canonical SMILES": "O=CC1=CC=C(C=O)C=C1",
        "Molecular Formula": "C<sub>8</sub>H<sub>6</sub>O<sub>2</sub>",
        "Molecular Mass": "134.13",
        "Boiling Point": "246 °C",
        "Melting Point": "117 °C",
        "Density": "1.519 g/cm³"
    }
}