{
    "cas_no": "498-23-7",
    "key_name": "Citraconic acid",
    "cn_name": "柠康酸;顺式-2-甲基-2-丁烯二酸;",
    "alternate_name": "2-Butenedioic acid, 2-methyl-, (2<em>Z</em>)-;Citraconic acid;2-Butenedioic acid, 2-methyl-, (<em>Z</em>)-;(2<em>Z</em>)-2-Methyl-2-butenedioic acid;Methylmaleic acid;(<em>Z</em>)-2-Methyl-2-butenedioic acid;2-Methylmaleic acid",
    "duplicated_cas_no": "855122-60-0",
    "SMILES": "C(=C\\C(O)=O)(\\C(O)=O)/C",
    "meta_data": {
        "InChI": "InChI=1S/C5H6O4/c1-3(5(8)9)2-4(6)7/h2H,1H3,(H,6,7)(H,8,9)/b3-2-",
        "InChIKey": null,
        "Canonical SMILES": "O=C(O)C=C(C(=O)O)C",
        "Molecular Formula": "C<sub>5</sub>H<sub>6</sub>O<sub>4</sub>",
        "Molecular Mass": "130.10",
        "Boiling Point": "170-175 °C",
        "Melting Point": "93.5 °C"
    }
}