{
    "cas_no": "2905-27-3",
    "key_name": "3,5-Dimethylbenzenesulfonyl chloride",
    "cn_name": "3,5-二甲基苯磺酰基氯;",
    "alternate_name": "Benzenesulfonyl chloride, 3,5-dimethyl-;3,5-Xylenesulfonyl chloride;3,5-Dimethylbenzenesulfonyl chloride;3,5-Dimethylbenzene-1-sulfonyl chloride",
    "duplicated_cas_no": "",
    "SMILES": "S(Cl)(=O)(=O)C1=CC(C)=CC(C)=C1",
    "meta_data": {
        "InChI": "InChI=1S/C8H9ClO2S/c1-6-3-7(2)5-8(4-6)12(9,10)11/h3-5H,1-2H3",
        "InChIKey": null,
        "Canonical SMILES": "O=S(=O)(Cl)C=1C=C(C=C(C1)C)C",
        "Molecular Formula": "C<sub>8</sub>H<sub>9</sub>ClO<sub>2</sub>S",
        "Molecular Mass": "204.67",
        "Boiling Point": "89-90 °C @ Press: 0.2 Torr",
        "Melting Point": "128-130 °C"
    }
}