{
    "cas_no": "13656-57-0",
    "key_name": "5-Chloro-2,4-difluorobenzenesulfonyl chloride",
    "cn_name": "5-氯-2,4-二氟苯磺酰氯;",
    "alternate_name": "Benzenesulfonyl chloride, 5-chloro-2,4-difluoro-;5-Chloro-2,4-difluorobenzenesulfonyl chloride;5-Chloro-2,4-difluorophenylsulfonyl chloride;2,4-Difluoro-5-chlorobenzenesulfonyl chloride;5-Chloro-2,4-difluorobenzene-1-sulfonyl chloride",
    "duplicated_cas_no": "",
    "SMILES": "S(Cl)(=O)(=O)C1=C(F)C=C(F)C(Cl)=C1",
    "meta_data": {
        "InChI": "InChI=1S/C6H2Cl2F2O2S/c7-3-1-6(13(8,11)12)5(10)2-4(3)9/h1-2H",
        "InChIKey": null,
        "Canonical SMILES": "O=S(=O)(Cl)C1=CC(Cl)=C(F)C=C1F",
        "Molecular Formula": "C<sub>6</sub>H<sub>2</sub>Cl<sub>2</sub>F<sub>2</sub>O<sub>2</sub>S",
        "Molecular Mass": "247.05",
        "Boiling Point": "97-98 °C @ Press: 3.5 Torr"
    }
}