{
    "cas_no": "1817-47-6",
    "key_name": "1-Isopropyl-4-nitrobenzene",
    "cn_name": "4-异丙基硝基苯;",
    "alternate_name": "Benzene, 1-(1-methylethyl)-4-nitro-;Cumene, <em>p</em>-nitro-;1-(1-Methylethyl)-4-nitrobenzene;<em>p</em>-Isopropylnitrobenzene;4-Nitrocumene;<em>p</em>-Nitrocumene;1-Isopropyl-4-nitrobenzene;4-Nitroisopropylbenzene;2-(<em>p</em>-Nitrophenyl)propane;4-Isopropylnitrobenzene;4-Isopropyl-1-nitrobenzene;<em>p</em>-Nitroisopropylbenzene;NSC 14494;4-Nitro-1-isopropylbenzene;1-Nitro-4-(propan-2-yl)benzene;1-Nitro-4-propan-2-ylbenzene",
    "duplicated_cas_no": "",
    "SMILES": "C(C)(C)C1=CC=C(N(=O)=O)C=C1",
    "meta_data": {
        "InChI": "InChI=1S/C9H11NO2/c1-7(2)8-3-5-9(6-4-8)10(11)12/h3-7H,1-2H3",
        "InChIKey": null,
        "Canonical SMILES": "O=N(=O)C1=CC=C(C=C1)C(C)C",
        "Molecular Formula": "C<sub>9</sub>H<sub>11</sub>NO<sub>2</sub>",
        "Molecular Mass": "165.19",
        "Boiling Point": "122 °C",
        "Density": "1.0852 g/cm³ @ Temp: 20 °C"
    }
}