{
    "cas_no": "34097-60-4",
    "key_name": "Methyl 2-(phenylsulfonyl)acetate",
    "cn_name": "苯磺酰乙酸甲酯;",
    "alternate_name": "Acetic acid, 2-(phenylsulfonyl)-, methyl ester;Acetic acid, (phenylsulfonyl)-, methyl ester;Methyl 2-(phenylsulfonyl)acetate;(Methoxycarbonyl)methyl phenyl sulfone;Methyl (phenylsulfonyl)acetate;(Phenylsulfonyl)acetic acid methyl ester",
    "duplicated_cas_no": "",
    "SMILES": "S(CC(OC)=O)(=O)(=O)C1=CC=CC=C1",
    "meta_data": {
        "InChI": "InChI=1S/C9H10O4S/c1-13-9(10)7-14(11,12)8-5-3-2-4-6-8/h2-6H,7H2,1H3",
        "InChIKey": null,
        "Canonical SMILES": "O=C(OC)CS(=O)(=O)C=1C=CC=CC1",
        "Molecular Formula": "C<sub>9</sub>H<sub>10</sub>O<sub>4</sub>S",
        "Molecular Mass": "214.24",
        "Boiling Point": "130-135 °C @ Press: 0.75 Torr",
        "Melting Point": "35 °C",
        "Density": "1.3437 g/cm³ @ Temp: 20 °C"
    }
}