{
    "cas_no": "55149-83-2",
    "key_name": "Acetic acid, 2-ethoxy-2-imino-, ethyl ester, hydrochloride (1:1)",
    "cn_name": null,
    "alternate_name": "Acetic acid, 2-ethoxy-2-imino-, ethyl ester, hydrochloride (1:1);Acetic acid, ethoxyimino-, ethyl ester, hydrochloride",
    "duplicated_cas_no": "",
    "SMILES": "C(C(OCC)=O)(OCC)=N.Cl",
    "meta_data": {
        "InChI": "InChI=1S/C6H11NO3.ClH/c1-3-9-5(7)6(8)10-4-2;/h7H,3-4H2,1-2H3;1H",
        "InChIKey": null,
        "Canonical SMILES": "Cl.O=C(OCC)C(=N)OCC",
        "Molecular Formula": "C<sub>6</sub>H<sub>11</sub>NO<sub>3</sub>.ClH",
        "Molecular Mass": "",
        "Melting Point": "104 °C"
    }
}