{
    "cas_no": "52093-28-4",
    "key_name": "Methanesulfonic acid, 1,1,1-trifluoro-, samarium(3+) salt (3:1)",
    "cn_name": "三氟甲烷磺酸钐;",
    "alternate_name": "Methanesulfonic acid, 1,1,1-trifluoro-, samarium(3+) salt (3:1);Methanesulfonic acid, trifluoro-, samarium(3+) salt;Samarium(3+) trifluoromethanesulfonate;Samarium tris(trifluoromethanesulfonate);Samarium(III) trifluoromethanesulfonate;Samarium triflate;Samarium(3+) triflate;Samarium tris(triflate);Samarium(III) triflate;Trifluoromethanesulfonic acid samarium(3+) salt;Samarium trifluoromethanesulfonate",
    "duplicated_cas_no": "",
    "SMILES": "C(S(=O)(=O)O)(F)(F)F.[Sm]",
    "meta_data": {
        "InChI": "InChI=1S/CHF3O3S.Sm/c2-1(3,4)8(5,6)7;/h(H,5,6,7);",
        "InChIKey": null,
        "Canonical SMILES": "[Sm].O=S(=O)(O)C(F)(F)F",
        "Molecular Formula": "CHF<sub>3</sub>O<sub>3</sub>S.<sup>1</sup>/<sub>3</sub>Sm",
        "Molecular Mass": "",
        "Melting Point": "6 °C"
    }
}