{
    "cas_no": "3764-94-1",
    "key_name": "5-Chlorotryptamine",
    "cn_name": null,
    "alternate_name": "1<em>H</em>-Indole-3-ethanamine, 5-chloro-;Indole, 3-(2-aminoethyl)-5-chloro-;5-Chloro-1<em>H</em>-indole-3-ethanamine;5-Chlorotryptamine;2-(5-Chloro-1<em>H</em>-indol-3-yl)ethylamine;2-(5-Chloro-1<em>H</em>-indol-3-yl)ethanamine;5-Chloro-3-indoleethanamine;2-(5-Chloro-1<em>H</em>-indol-3-yl)ethan-1-amine",
    "duplicated_cas_no": "",
    "SMILES": "C(CN)C=1C=2C(NC1)=CC=C(Cl)C2",
    "meta_data": {
        "InChI": "InChI=1S/C10H11ClN2/c11-8-1-2-10-9(5-8)7(3-4-12)6-13-10/h1-2,5-6,13H,3-4,12H2",
        "InChIKey": null,
        "Canonical SMILES": "ClC=1C=CC=2NC=C(C2C1)CCN",
        "Molecular Formula": "C<sub>10</sub>H<sub>11</sub>ClN<sub>2</sub>",
        "Molecular Mass": "194.66",
        "Melting Point": "120 °C"
    }
}