{
    "cas_no": "35553-92-5",
    "key_name": "Ethyl 3-methoxybenzeneacetate",
    "cn_name": null,
    "alternate_name": "Benzeneacetic acid, 3-methoxy-, ethyl ester;Acetic acid, (<em>m</em>-methoxyphenyl)-, ethyl ester;Ethyl 3-methoxybenzeneacetate;Ethyl <em>m</em>-methoxyphenylacetate;Ethyl 3-methoxyphenylacetate;<em>m</em>-Methoxyphenylacetic acid ethyl ester;(3-Methoxyphenyl)acetic acid ethyl ester;Ethyl 2-(3-methoxyphenyl)acetate",
    "duplicated_cas_no": "",
    "SMILES": "C(C(OCC)=O)C1=CC(OC)=CC=C1",
    "meta_data": {
        "InChI": "InChI=1S/C11H14O3/c1-3-14-11(12)8-9-5-4-6-10(7-9)13-2/h4-7H,3,8H2,1-2H3",
        "InChIKey": null,
        "Canonical SMILES": "O=C(OCC)CC=1C=CC=C(OC)C1",
        "Molecular Formula": "C<sub>11</sub>H<sub>14</sub>O<sub>3</sub>",
        "Molecular Mass": "194.23",
        "Boiling Point": "90 °C @ Press: 0.0127 Torr",
        "Melting Point": "125-126 °C"
    }
}