{
    "cas_no": "3790-78-1",
    "key_name": "<em>cis</em>-Nerolidol",
    "cn_name": "CIS-橙花叔醇;CIS-橙花叔醇;",
    "alternate_name": "1,6,10-Dodecatrien-3-ol, 3,7,11-trimethyl-, (6<em>Z</em>)-;1,6,10-Dodecatrien-3-ol, 3,7,11-trimethyl-, (<em>Z</em>)-;(6<em>Z</em>)-3,7,11-Trimethyl-1,6,10-dodecatrien-3-ol;<em>cis</em>-Nerolidol;(<em>Z</em>)-Nerolidol;(±)-<em>cis</em>-Nerolidol;(6Z)-3,7,11-Trimethyl-1,6,10-dodecatrien-3-ol;(<em>Z</em>)-3,7,11-Trimethyl-1,6,10-dodecatrien-3-ol",
    "duplicated_cas_no": "24163-92-6;53991-23-4",
    "SMILES": "C(\\CCC(C=C)(C)O)=C(\\CCC=C(C)C)/C",
    "meta_data": {
        "InChI": "InChI=1/C15H26O/c1-6-15(5,16)12-8-11-14(4)10-7-9-13(2)3/h6,9,11,16H,1,7-8,10,12H2,2-5H3/b14-11-",
        "InChIKey": null,
        "Canonical SMILES": "OC(C=C)(C)CCC=C(C)CCC=C(C)C",
        "Molecular Formula": "C<sub>15</sub>H<sub>26</sub>O",
        "Molecular Mass": "222.37",
        "Boiling Point": "123-125 °C @ Press: 4 Torr",
        "Density": "0.8785 g/cm³ @ Temp: 20 °C"
    }
}