{
    "cas_no": "5973-83-1",
    "key_name": "1-(3-Pyridinyl)ethanone oxime",
    "cn_name": null,
    "alternate_name": "Ethanone, 1-(3-pyridinyl)-, oxime;Ketone, methyl 3-pyridyl, oxime;1-(3-Pyridinyl)ethanone oxime;3-Acetylpyridine oxime;NSC 72375;1-(Pyridin-3-yl)ethanoneoxime",
    "duplicated_cas_no": "",
    "SMILES": "C(=NO)(C)C=1C=CC=NC1",
    "meta_data": {
        "InChI": "InChI=1S/C7H8N2O/c1-6(9-10)7-3-2-4-8-5-7/h2-5,10H,1H3",
        "InChIKey": null,
        "Canonical SMILES": "ON=C(C=1C=NC=CC1)C",
        "Molecular Formula": "C<sub>7</sub>H<sub>8</sub>N<sub>2</sub>O",
        "Molecular Mass": "136.15",
        "Melting Point": "116-117 °C"
    }
}