{
    "cas_no": "768-94-5",
    "key_name": "Amantadine",
    "cn_name": "1-金刚烷胺;",
    "alternate_name": "Tricyclo[3.3.1.1<sup>3,7</sup>]decan-1-amine;1-Adamantanamine;Amantadine;1-Aminoadamantane;1-Adamantamine;Adamantylamine;1-Adamantylamine;1-Amantadine;Adamantamine;Adamantanamine;NSC 341865;Tricyclo[3.3.1.1<sup>3,7</sup>]decane-1-amine;(Adamantan-1-yl)amine;MeSH ID: D000547",
    "duplicated_cas_no": "744952-70-3",
    "SMILES": "NC12CC3CC(C1)CC(C2)C3",
    "meta_data": {
        "InChI": "InChI=1S/C10H17N/c11-10-4-7-1-8(5-10)3-9(2-7)6-10/h7-9H,1-6,11H2",
        "InChIKey": null,
        "Canonical SMILES": "NC12CC3CC(CC(C3)C1)C2",
        "Molecular Formula": "C<sub>10</sub>H<sub>17</sub>N",
        "Molecular Mass": "151.25",
        "Melting Point": "180 °C"
    }
}