{
    "cas_no": "36157-41-2",
    "key_name": "2,5-Dichloro-3-thiophenecarboxylic acid",
    "cn_name": "2,5-二氯噻吩-3-羧酸;2,5-二氯-3-噻吩甲酸;",
    "alternate_name": "3-Thiophenecarboxylic acid, 2,5-dichloro-;2,5-Dichloro-3-thiophenecarboxylic acid;2,5-Dichlorothiophene-3-carboxylic acid;NSC 14775",
    "duplicated_cas_no": "",
    "SMILES": "C(O)(=O)C=1C=C(Cl)SC1Cl",
    "meta_data": {
        "InChI": "InChI=1S/C5H2Cl2O2S/c6-3-1-2(5(8)9)4(7)10-3/h1H,(H,8,9)",
        "InChIKey": null,
        "Canonical SMILES": "O=C(O)C=1C=C(Cl)SC1Cl",
        "Molecular Formula": "C<sub>5</sub>H<sub>2</sub>Cl<sub>2</sub>O<sub>2</sub>S",
        "Molecular Mass": "197.04",
        "Melting Point": "146.5-147.5 °C"
    }
}