{
    "cas_no": "16423-19-1",
    "key_name": "<em>rel</em>-(4<em>R</em>,4a<em>R</em>,8a<em>S</em>)-Octahydro-4,8a-dimethyl-4a(2<em>H</em>)-naphthalenol",
    "cn_name": null,
    "alternate_name": "4a(2<em>H</em>)-Naphthalenol, octahydro-4,8a-dimethyl-, (4<em>R</em>,4a<em>R</em>,8a<em>S</em>)-<em>rel</em>-;4aα(2<em>H</em>)-Naphthol, octahydro-4α,8aβ-dimethyl-, (±)-;4a(2<em>H</em>)-Naphthalenol, octahydro-4,8a-dimethyl-, (4α,4aα,8aβ)-(±)-;4a(2<em>H</em>)-Naphthalenol, octahydro-4,8a-dimethyl-, (4α,4aα,8aβ)-;<em>rel</em>-(4<em>R</em>,4a<em>R</em>,8a<em>S</em>)-Octahydro-4,8a-dimethyl-4a(2<em>H</em>)-naphthalenol;<span class=\"text-smallcaps\">DL</span>-Geosmin;(±)-Geosmin;<em>dl</em>-Geosmin",
    "duplicated_cas_no": "",
    "SMILES": "O[C@]12[C@@](C)(CCCC1)CCC[C@H]2C",
    "meta_data": {
        "InChI": "InChI=1/C12H22O/c1-10-6-5-8-11(2)7-3-4-9-12(10,11)13/h10,13H,3-9H2,1-2H3/t10-,11+,12-/s2",
        "InChIKey": null,
        "Canonical SMILES": "OC12CCCCC2(C)CCCC1C",
        "Molecular Formula": "C<sub>12</sub>H<sub>22</sub>O",
        "Molecular Mass": "182.30",
        "Boiling Point": "110-112 °C @ Press: 8 Torr"
    }
}