{
    "cas_no": "102-77-2",
    "key_name": "2-(4-Morpholinothio)benzothiazole",
    "cn_name": "N-氧二乙撑基-2-苯并噻唑次磺酰胺;2-苯并噻唑基-N-吗啉基硫醚;橡胶促进剂NOBS;",
    "alternate_name": "Benzothiazole, 2-(4-morpholinylthio)-;Benzothiazole, 2-(morpholinothio)-;Morpholine, 4-(2-benzothiazolylthio)-;2-(4-Morpholinylthio)benzothiazole;Sulfenamide M;Amax;Santocure MOR;Vulcafor BSM;2-Benzothiazolyl <em>N</em>-morpholino sulfide;4-(2-Benzothiazolylthio)morpholine;<em>N</em>,<em>N</em>-(Oxydiethylene)benzothiazole-2-sulfenamide;2-(Morpholinothio)benzothiazole;Vulkacit MOZ;2-Benzothiazolesulfenemorpholide;2-Benzothiazolylsulfenylmorpholine;NOBS Special;2-(4-Morpholinylmercapto)benzothiazole;Sulfenax MOR;Nocceler MSA;Vulcafor MBS;<em>N</em>-Oxydiethylene-2-benzothiazolylsulfenamide;Meramid M;Soxinol NBS;Delac MOR;Vulkacit MOZ/LG;MBS;Sanceler NOB;Nocceler MSA-G;<em>N</em>-Morpholino-2-benzothiazolylsulfenamide;SA-M;<em>N</em>-Oxydiethyl-2-benzothiazolesulfenamide;OBTS;Cure-rite OBTS;2-Benzothiazolesulfenic acid morpholide;Accel NS;2-(4-Morpholinothio)benzothiazole;Rhenogran MBS 80;NSC 70078;Santocure MBS;Pilcure MOR;Accelerator NS;NS;NOBS;MBS 80;<em>N</em>-(Oxidiethylene)-2-benzothiazolyl sulfenamide;2-(Morpholin-4-ylsulfanyl)-1,3-benzothiazole;Morpholinyl mercaptobenzothiazole",
    "duplicated_cas_no": "31440-29-6;35309-99-0;40860-79-5;108251-60-1;182077-65-2;198352-30-6;909403-78-7",
    "SMILES": "S(C1=NC=2C(S1)=CC=CC2)N3CCOCC3",
    "meta_data": {
        "InChI": "InChI=1S/C11H12N2OS2/c1-2-4-10-9(3-1)12-11(15-10)16-13-5-7-14-8-6-13/h1-4H,5-8H2",
        "InChIKey": null,
        "Canonical SMILES": "N1=C(SC=2C=CC=CC12)SN3CCOCC3",
        "Molecular Formula": "C<sub>11</sub>H<sub>12</sub>N<sub>2</sub>OS<sub>2</sub>",
        "Molecular Mass": "252.36",
        "Melting Point": "80 °C",
        "Density": "1.34 g/cm³ @ Temp: 25 °C"
    }
}