{
    "cas_no": "57041-67-5",
    "key_name": "Desflurane",
    "cn_name": "地氟烷;去氟烷；地氟醚；优宁；去氯氟烷;",
    "alternate_name": "Ethane, 2-(difluoromethoxy)-1,1,1,2-tetrafluoro-;2-(Difluoromethoxy)-1,1,1,2-tetrafluoroethane;I 653;Desflurane;R-E 236ea1;HFE 236;Difluoromethyl 1,2,2,2-tetrafluoroethyl ether;Suprane;HFE 236eaEbg;1,2,2,2-Tetrafluoroethyl difluoromethyl ether",
    "duplicated_cas_no": "153482-15-6",
    "SMILES": "C(OC(F)F)(C(F)(F)F)F",
    "meta_data": {
        "InChI": "InChI=1S/C3H2F6O/c4-1(3(7,8)9)10-2(5)6/h1-2H",
        "InChIKey": null,
        "Canonical SMILES": "FC(F)OC(F)C(F)(F)F",
        "Molecular Formula": "C<sub>3</sub>H<sub>2</sub>F<sub>6</sub>O",
        "Molecular Mass": "168.04",
        "Boiling Point": "23.5 °C",
        "Density": "1.5 g/cm³"
    }
}