{
    "cas_no": "6506-37-2",
    "key_name": "Nimorazole",
    "cn_name": "尼莫拉唑;4-[2-(5-硝基咪唑-1-基)乙基]吗啉;",
    "alternate_name": "Morpholine, 4-[2-(5-nitro-1<em>H</em>-imidazol-1-yl)ethyl]-;Morpholine, 4-[2-(5-nitroimidazol-1-yl)ethyl]-;4-[2-(5-Nitro-1<em>H</em>-imidazol-1-yl)ethyl]morpholine;1-(β-Morpholinoethyl)-5-nitroimidazole;Nitrimidazine;Nimorazole;4-[2-(5-Nitroimidazol-1-yl)ethyl]morpholine;Naxogin;K-1900;Nimorazol;Naxofem;Nulogyl;Acterol;Esclama;NSC 107524;1-(Morpholinoethyl)-5-nitroimidazole",
    "duplicated_cas_no": "",
    "SMILES": "C(CN1CCOCC1)N2C(N(=O)=O)=CN=C2",
    "meta_data": {
        "InChI": "InChI=1S/C9H14N4O3/c14-13(15)9-7-10-8-12(9)2-1-11-3-5-16-6-4-11/h7-8H,1-6H2",
        "InChIKey": null,
        "Canonical SMILES": "O=N(=O)C1=CN=CN1CCN2CCOCC2",
        "Molecular Formula": "C<sub>9</sub>H<sub>14</sub>N<sub>4</sub>O<sub>3</sub>",
        "Molecular Mass": "226.23",
        "Melting Point": "110-111 °C"
    }
}