{
    "cas_no": "13110-96-8",
    "key_name": "5-Acetylsalicylic acid",
    "cn_name": "5-乙酰基水杨酸;",
    "alternate_name": "Benzoic acid, 5-acetyl-2-hydroxy-;Salicylic acid, 5-acetyl-;5-Acetyl-2-hydroxybenzoic acid;5-Acetylsalicylic acid;3-Acetyl-6-hydroxybenzoic acid;4-Hydroxy-3-carboxyacetophenone;2-Hydroxy-5-acetylbenzoic acid",
    "duplicated_cas_no": "",
    "SMILES": "C(O)(=O)C1=CC(C(C)=O)=CC=C1O",
    "meta_data": {
        "InChI": "InChI=1S/C9H8O4/c1-5(10)6-2-3-8(11)7(4-6)9(12)13/h2-4,11H,1H3,(H,12,13)",
        "InChIKey": null,
        "Canonical SMILES": "O=C(O)C1=CC(=CC=C1O)C(=O)C",
        "Molecular Formula": "C<sub>9</sub>H<sub>8</sub>O<sub>4</sub>",
        "Molecular Mass": "180.16",
        "Melting Point": "216-217 °C"
    }
}