{
    "cas_no": "328-42-7",
    "key_name": "Oxaloacetic acid",
    "cn_name": "草酰乙酸;2-羰基丁二酸;2-氧代丁二酸;",
    "alternate_name": "Butanedioic acid, 2-oxo-;Butanedioic acid, oxo-;Oxalacetic acid;2-Oxobutanedioic acid;Ketosuccinic acid;OAA;Oxaloacetic acid;Oxosuccinic acid;2-Ketosuccinic acid;α-Ketosuccinic acid;2-Oxosuccinic acid;Oxaloethanoic acid;NSC 284205;NSC 77688",
    "duplicated_cas_no": "",
    "SMILES": "C(CC(O)=O)(C(O)=O)=O",
    "meta_data": {
        "InChI": "InChI=1S/C4H4O5/c5-2(4(8)9)1-3(6)7/h1H2,(H,6,7)(H,8,9)",
        "InChIKey": null,
        "Canonical SMILES": "O=C(O)C(=O)CC(=O)O",
        "Molecular Formula": "C<sub>4</sub>H<sub>4</sub>O<sub>5</sub>",
        "Molecular Mass": "132.07",
        "Melting Point": "161 °C (decomp)"
    }
}