{
    "cas_no": "631-61-8",
    "key_name": "Ammonium acetate",
    "cn_name": "乙酸铵;醋酸铵;",
    "alternate_name": "Acetic acid, ammonium salt (1:1);Acetic acid, ammonium salt;Ammonium acetate;Mindererus's spirit;1BEEM;Ammonium acetate solution;Spirit of mindereus;Mindererus spirit",
    "duplicated_cas_no": "1066-32-6;8013-61-4;92206-38-7;856326-79-9;858824-31-4;2376994-75-9;2602663-38-5",
    "SMILES": "C(C)(O)=O.N",
    "meta_data": {
        "InChI": "InChI=1S/C2H4O2.H3N/c1-2(3)4;/h1H3,(H,3,4);1H3",
        "InChIKey": null,
        "Canonical SMILES": "O=C(O)C.N",
        "Molecular Formula": "C<sub>2</sub>H<sub>4</sub>O<sub>2</sub>.H<sub>3</sub>N",
        "Molecular Mass": "",
        "Melting Point": "114 °C",
        "Density": "1.17 g/cm³ @ Temp: 20 °C"
    }
}