{
    "cas_no": "5818-06-4",
    "key_name": "3-Hydroxybenzohydrazide",
    "cn_name": "3-羟基苯酰肼;",
    "alternate_name": "Benzoic acid, 3-hydroxy-, hydrazide;Benzoic acid, <em>m</em>-hydroxy-, hydrazide;<em>m</em>-Hydroxybenzoic acid hydrazide;3-Hydroxybenzoic acid hydrazide;(3-Hydroxybenzoyl)hydrazine;<em>m</em>-Hydroxybenzhydrazide;3-Hydroxybenzohydrazide;3-Hydroxybenzoylhydrazide;<em>m</em>-Hydroxybenzoic hydrazide;<em>m</em>-Hydroxybenzoylhydrazide;<em>m</em>-Hydroxybenzoylhydrazine;3-Hydroxybenzhydrazide;3-Hydroxybenzoic hydrazide;<em>m</em>-Hydroxybenzohydrazide",
    "duplicated_cas_no": "",
    "SMILES": "C(NN)(=O)C1=CC(O)=CC=C1",
    "meta_data": {
        "InChI": "InChI=1S/C7H8N2O2/c8-9-7(11)5-2-1-3-6(10)4-5/h1-4,10H,8H2,(H,9,11)",
        "InChIKey": null,
        "Canonical SMILES": "O=C(NN)C=1C=CC=C(O)C1",
        "Molecular Formula": "C<sub>7</sub>H<sub>8</sub>N<sub>2</sub>O<sub>2</sub>",
        "Molecular Mass": "152.15",
        "Melting Point": "240 °C"
    }
}