{
    "cas_no": "95-03-4",
    "key_name": "5-Chloro-2-methoxyaniline",
    "cn_name": "5-氯-2-甲氧基苯胺;4-氯-2-氨基苯甲醚;5-氯邻茴香胺;",
    "alternate_name": "Benzenamine, 5-chloro-2-methoxy-;<em>o</em>-Anisidine, 5-chloro-;5-Chloro-2-methoxybenzenamine;5-Chloro-<em>o</em>-anisidine;C.I. 37120, free base;Tulabase Fast Red R;Tulabase Fast Red RC;5-Chloro-2-methoxyaniline;2-Amino-4-chloro-1-methoxybenzene;2-Methoxy-5-chloroaniline;1-Amino-5-chloro-2-methoxybenzene;2-Amino-4-chloroanisole;4-Chloro-2-aminoanisole;NSC 6114;(5-Chloro-2-methoxyphenyl)amine",
    "duplicated_cas_no": "",
    "SMILES": "O(C)C1=C(N)C=C(Cl)C=C1",
    "meta_data": {
        "InChI": "InChI=1S/C7H8ClNO/c1-10-7-3-2-5(8)4-6(7)9/h2-4H,9H2,1H3",
        "InChIKey": null,
        "Canonical SMILES": "ClC1=CC=C(OC)C(N)=C1",
        "Molecular Formula": "C<sub>7</sub>H<sub>8</sub>ClNO",
        "Molecular Mass": "157.60",
        "Melting Point": "45-46 °C"
    }
}