{
    "cas_no": "4099-35-8",
    "key_name": "<em>S</em>-(2-Aminoethyl)-<span class=\"text-smallcaps\">L</span>-cysteine hydrochloride",
    "cn_name": "S-(2-氨基乙基)-L-半胱胺酸盐酸盐;",
    "alternate_name": "<span class=\"text-smallcaps\">L</span>-Cysteine, <em>S</em>-(2-aminoethyl)-, hydrochloride (1:1);Alanine, 3-[(2-aminoethyl)thio]-, monohydrochloride, <span class=\"text-smallcaps\">L</span>-;<span class=\"text-smallcaps\">L</span>-Cysteine, <em>S</em>-(2-aminoethyl)-, monohydrochloride;<em>S</em>-(β-Aminoethyl)-<span class=\"text-smallcaps\">L</span>-cysteine hydrochloride;Thialysine hydrochloride;<em>S</em>-(2-Aminoethyl)-<span class=\"text-smallcaps\">L</span>-cysteine hydrochloride;NSC 186915;<em>S</em>-(2-Aminoethyl)-<span class=\"text-smallcaps\">L</span>-cysteine monohydrochloride;<span class=\"text-smallcaps\">L</span>-4-Thialysine hydrochloride",
    "duplicated_cas_no": "",
    "SMILES": "[C@H](CSCCN)(C(O)=O)N.Cl",
    "meta_data": {
        "InChI": "InChI=1S/C5H12N2O2S.ClH/c6-1-2-10-3-4(7)5(8)9;/h4H,1-3,6-7H2,(H,8,9);1H/t4-;/m0./s1",
        "InChIKey": null,
        "Canonical SMILES": "Cl.O=C(O)C(N)CSCCN",
        "Molecular Formula": "C<sub>5</sub>H<sub>12</sub>N<sub>2</sub>O<sub>2</sub>S.ClH",
        "Molecular Mass": "",
        "Melting Point": "195 °C (decomp)"
    }
}