{
    "cas_no": "118353-05-2",
    "key_name": "Carbovir",
    "cn_name": "卡巴韦;2-氨基-1,9-二氢-9-[(1R,4S)-4-羟甲基-2-环戊烯-1-基]-6H-嘌呤-6-酮;",
    "alternate_name": "6<em>H</em>-Purin-6-one, 2-amino-1,9-dihydro-9-[(1<em>R</em>,4<em>S</em>)-4-(hydroxymethyl)-2-cyclopenten-1-yl]-, <em>rel</em>-;6<em>H</em>-Purin-6-one, 2-amino-1,9-dihydro-9-[4-(hydroxymethyl)-2-cyclopenten-1-yl]-, <em>cis</em>-(±)-;<em>rel</em>-2-Amino-1,9-dihydro-9-[(1<em>R</em>,4<em>S</em>)-4-(hydroxymethyl)-2-cyclopenten-1-yl]-6<em>H</em>-purin-6-one;NSC 614846;(±)-Carbovir;Carbovir;GR 90352X;6<em>H</em>-Purin-6-one, 2-amino-1,9-dihydro-9-[4-(hydroxymethyl)-2-cyclopenten-1-yl]-, <em>cis</em>-",
    "duplicated_cas_no": "124915-20-4",
    "SMILES": "O=C1C2=C(N(C=N2)[C@H]3C[C@@H](CO)C=C3)NC(N)=N1",
    "meta_data": {
        "InChI": "InChI=1/C11H13N5O2/c12-11-14-9-8(10(18)15-11)13-5-16(9)7-2-1-6(3-7)4-17/h1-2,5-7,17H,3-4H2,(H3,12,14,15,18)/t6-,7+/s2",
        "InChIKey": null,
        "Canonical SMILES": "O=C1N=C(N)NC2=C1N=CN2C3C=CC(CO)C3",
        "Molecular Formula": "C<sub>11</sub>H<sub>13</sub>N<sub>5</sub>O<sub>2</sub>",
        "Molecular Mass": "247.25",
        "Melting Point": "254-256 °C (decomp)"
    }
}