{
    "cas_no": "3392-10-7",
    "key_name": "1,2-Pyrrolidinedicarboxylic acid, 1-(1,1-dimethylethyl) 2-(2,5-dioxo-1-pyrrolidinyl) ester, (2<em>S</em>)-",
    "cn_name": null,
    "alternate_name": "1,2-Pyrrolidinedicarboxylic acid, 1-(1,1-dimethylethyl) 2-(2,5-dioxo-1-pyrrolidinyl) ester, (2<em>S</em>)-;Succinimide, <em>N</em>-[(1-carboxy-<span class=\"text-smallcaps\">L</span>-prolyl)oxy]-, <em>tert</em>-butyl ester;1-Pyrrolidinecarboxylic acid, 2-[[(2,5-dioxo-1-pyrrolidinyl)oxy]carbonyl]-, 1,1-dimethylethyl ester, (<em>S</em>)-;1-Pyrrolidinecarboxylic acid, 2-[[(2,5-dioxo-1-pyrrolidinyl)oxy]carbonyl]-, 1,1-dimethylethyl ester, (2<em>S</em>)-;1,2-Pyrrolidinedicarboxylic acid, 1-<em>tert</em>-butyl ester, succinimido deriv., <span class=\"text-smallcaps\">L</span>-;<em>N</em>-Boc-<span class=\"text-smallcaps\">L</span>-proline <em>N</em>-hydroxysuccinimidyl ester;1-<em>O</em>-<em>tert</em>-Butyl 2-<em>O</em>-(2,5-dioxopyrrolidin-1-yl) (2S)-pyrrolidine-1,2-dicarboxylate",
    "duplicated_cas_no": "113737-57-8;130812-42-9;65637-23-2",
    "SMILES": "C(ON1C(=O)CCC1=O)(=O)[C@H]2N(C(OC(C)(C)C)=O)CCC2",
    "meta_data": {
        "InChI": "InChI=1S/C14H20N2O6/c1-14(2,3)21-13(20)15-8-4-5-9(15)12(19)22-16-10(17)6-7-11(16)18/h9H,4-8H2,1-3H3/t9-/m0/s1",
        "InChIKey": null,
        "Canonical SMILES": "O=C(OC(C)(C)C)N1CCCC1C(=O)ON2C(=O)CCC2=O",
        "Molecular Formula": "C<sub>14</sub>H<sub>20</sub>N<sub>2</sub>O<sub>6</sub>",
        "Molecular Mass": "312.32",
        "Melting Point": "135-136 °C"
    }
}