{
    "cas_no": "437-74-1",
    "key_name": "Xanthinol nicotinate",
    "cn_name": "烟酸占替诺;尼可占替诺;7-[2-羟基-3-(2-羟乙基-甲胺基)丙基]-1,3-二甲基-嘌呤-2,6-二酮烟酸盐;",
    "alternate_name": "3-Pyridinecarboxylic acid, compd. with 3,7-dihydro-7-[2-hydroxy-3-[(2-hydroxyethyl)methylamino]propyl]-1,3-dimethyl-1<em>H</em>-purine-2,6-dione (1:1);Nicotinic acid, compd. with 7-[2-hydroxy-3-[(2-hydroxyethyl)methylamino]propyl]theophylline (1:1);Theophylline, 7-[2-hydroxy-3-[(2-hydroxyethyl)methylamino]propyl]-, nicotinate;Theophylline, 7-[2-hydroxy-3-[(2-hydroxyethyl)methylamino]propyl]-, mononicotinate (salt);1<em>H</em>-Purine-2,6-dione, 3,7-dihydro-7-[2-hydroxy-3-[(2-hydroxyethyl)methylamino]propyl]-1,3-dimethyl-, mono-3-pyridinecarboxylate (salt);SK 331A;Complamin;7-[2-Hydroxy-3-[<em>N</em>-(2-hydroxyethyl)-<em>N</em>-methylamino]propyl]-1,3-dimethylxanthine pyridine-3-carboxylate;7-[2-Hydroxy-3-[(2-hydroxyethyl)methylamino]propyl]theophylline nicotinate;7-[2-Hydroxy-3-[<em>N</em>-methyl-<em>N</em>-(2-hydroxyethyl)amino]-propyl]-theophylline nicotinate;Xanthinol niacinate;Xanthinol nicotinate;7-[3-(Methyl-2-hydroxyethylamino)-2-hydroxypropyl)]theophylline nicotinate;Complamin retard;Sadamine;Complamex;Angioamin;Contamex;Stenalgil;Teonicol;Vedrin;Xavin;Xantinol nicotinate;Landrina 300;Angiomin;NSC 113217;MeSH ID: D014971",
    "duplicated_cas_no": "8076-17-3",
    "SMILES": "C(C(CN(CCO)C)O)N1C2=C(N=C1)N(C)C(=O)N(C)C2=O.C(O)(=O)C=1C=CC=NC1",
    "meta_data": {
        "InChI": "InChI=1S/C13H21N5O4.C6H5NO2/c1-15(4-5-19)6-9(20)7-18-8-14-11-10(18)12(21)17(3)13(22)16(11)2;8-6(9)5-2-1-3-7-4-5/h8-9,19-20H,4-7H2,1-3H3;1-4H,(H,8,9)",
        "InChIKey": null,
        "Canonical SMILES": "O=C(O)C=1C=NC=CC1.O=C1C2=C(N=CN2CC(O)CN(C)CCO)N(C(=O)N1C)C",
        "Molecular Formula": "C<sub>13</sub>H<sub>21</sub>N<sub>5</sub>O<sub>4</sub>.C<sub>6</sub>H<sub>5</sub>NO<sub>2</sub>",
        "Molecular Mass": "",
        "Melting Point": "180 °C"
    }
}