{
    "cas_no": "521-18-6",
    "key_name": "Dihydrotestosterone",
    "cn_name": "雄诺龙;",
    "alternate_name": "Androstan-3-one, 17-hydroxy-, (5α,17β)-;5α-Androstan-3-one, 17β-hydroxy-;(5α,17β)-17-Hydroxyandrostan-3-one;Anaboleen;Androlone;Cristerona MB;4-Dihydrotestosterone;Dihydrotestosterone;17β-Hydroxy-3-androstanone;Neodrol;Stanaprol;Stanolone;Testosterone, dihydro-;5α-Dihydrotestosterone;5α-Androstan-17β-ol-3-one;17β-Hydroxy-5α-androstan-3-one;4,5α-Dihydrotestosterone;Androstanolone;17β-Hydroxy-5α-androstane-3-one;5α,17β-Hydroxyandrostan-3-one;(+)-Androstan-17β-ol-3-one;Androstan-17β-ol-3-one;Anabolex;5α-Androstanolone;LG 152;DHT;Andractim;NSC 10972;5-DHT;(5S,8R,9S,10S,13S,14S,17S)-17-Hydroxy-10,13-dimethyltetradecahydro-1<em>H</em>-cyclopenta[<em>a</em>]phenanthren-3(2<em>H</em>)-one;MeSH ID: D013196",
    "duplicated_cas_no": "12040-51-6;28801-96-9;1050679-06-5",
    "SMILES": "C[C@@]12[C@@]3([C@]([C@]4([C@](C)(CC3)[C@@H](O)CC4)[H])(CC[C@]1(CC(=O)CC2)[H])[H])[H]",
    "meta_data": {
        "InChI": "InChI=1S/C19H30O2/c1-18-9-7-13(20)11-12(18)3-4-14-15-5-6-17(21)19(15,2)10-8-16(14)18/h12,14-17,21H,3-11H2,1-2H3/t12-,14-,15-,16-,17-,18-,19-/m0/s1",
        "InChIKey": null,
        "Canonical SMILES": "O=C1CCC2(C)C(C1)CCC3C4CCC(O)C4(C)CCC32",
        "Molecular Formula": "C<sub>19</sub>H<sub>30</sub>O<sub>2</sub>",
        "Molecular Mass": "290.44",
        "Melting Point": "181 °C"
    }
}