{
    "cas_no": "19064-24-5",
    "key_name": "1,3-Difluoro-2-nitrobenzene",
    "cn_name": "2,6-二氟硝基苯;",
    "alternate_name": "Benzene, 1,3-difluoro-2-nitro-;1,3-Difluoro-2-nitrobenzene;2,6-Difluoronitrobenzene;2,6-Difluoro-1-nitrobenzene",
    "duplicated_cas_no": "",
    "SMILES": "N(=O)(=O)C1=C(F)C=CC=C1F",
    "meta_data": {
        "InChI": "InChI=1S/C6H3F2NO2/c7-4-2-1-3-5(8)6(4)9(10)11/h1-3H",
        "InChIKey": null,
        "Canonical SMILES": "O=N(=O)C=1C(F)=CC=CC1F",
        "Molecular Formula": "C<sub>6</sub>H<sub>3</sub>F<sub>2</sub>NO<sub>2</sub>",
        "Molecular Mass": "159.09",
        "Melting Point": "74 °C"
    }
}