{
    "cas_no": "53-36-1",
    "key_name": "Methylprednisolone acetate",
    "cn_name": "甲基泼尼松龙醋酸酯;",
    "alternate_name": "Pregna-1,4-diene-3,20-dione, 21-(acetyloxy)-11,17-dihydroxy-6-methyl-, (6α,11β)-;Pregna-1,4-diene-3,20-dione, 11β,17,21-trihydroxy-6α-methyl-, 21-acetate;(6α,11β)-21-(Acetyloxy)-11,17-dihydroxy-6-methylpregna-1,4-diene-3,20-dione;Depo-Medrol;Medrol acetate;6α-Methylprednisolone acetate;Urbason Crystal Suspension;MPA;Methylprednisolone acetate;U 8210;Methylprednisolone 21-acetate;6α-Methylprednisolone 21-acetate;21-Acetoxy-11β,17-dihydroxy-6α-methylpregna-1,4-diene-3,20-dione;Depo-methylprednisolone;6-Methylprednisolone acetate;Depo-Medrate;Depo-Medrone;DepMedalone 40;Vetacortyl;DepMedalone 80;Mepred;NSC 48985;11β,17α,21-Trihydroxy-6α-methylpregna-1,4-diene-3,20-dione 21-acetate",
    "duplicated_cas_no": "",
    "SMILES": "C[C@@]12[C@]([C@]3([C@@]([C@]4(C)C([C@@H](C)C3)=CC(=O)C=C4)([C@@H](O)C1)[H])[H])(CC[C@@]2(C(COC(C)=O)=O)O)[H]",
    "meta_data": {
        "InChI": "InChI=1S/C24H32O6/c1-13-9-16-17-6-8-24(29,20(28)12-30-14(2)25)23(17,4)11-19(27)21(16)22(3)7-5-15(26)10-18(13)22/h5,7,10,13,16-17,19,21,27,29H,6,8-9,11-12H2,1-4H3/t13-,16-,17-,19-,21+,22-,23-,24-/m0/s1",
        "InChIKey": null,
        "Canonical SMILES": "O=C1C=CC2(C(=C1)C(C)CC3C4CCC(O)(C(=O)COC(=O)C)C4(C)CC(O)C32)C",
        "Molecular Formula": "C<sub>24</sub>H<sub>32</sub>O<sub>6</sub>",
        "Molecular Mass": "416.51",
        "Melting Point": "205-208 °C"
    }
}