{
    "cas_no": "4856-97-7",
    "key_name": "1<em>H</em>-Benzimidazole-2-methanol",
    "cn_name": "2-羟甲基苯并咪唑;",
    "alternate_name": "1<em>H</em>-Benzimidazole-2-methanol;2-Benzimidazolemethanol;2-(Hydroxymethyl)benzimidazole;NSC 18284;1<em>H</em>-Benzimidazol-2-ylmethanol;1<em>H</em>-1,3-Benzodiazol-2-ylmethanol;(1<em>H</em>-1,3-Benzodiazol-2-yl)methanol;(1<em>H</em>-Benzo[<em>d</em>]imidazol-2-yl)methanol",
    "duplicated_cas_no": "",
    "SMILES": "C(O)C=1NC=2C(N1)=CC=CC2",
    "meta_data": {
        "InChI": "InChI=1S/C8H8N2O/c11-5-8-9-6-3-1-2-4-7(6)10-8/h1-4,11H,5H2,(H,9,10)",
        "InChIKey": null,
        "Canonical SMILES": "OCC1=NC=2C=CC=CC2N1",
        "Molecular Formula": "C<sub>8</sub>H<sub>8</sub>N<sub>2</sub>O",
        "Molecular Mass": "148.16",
        "Melting Point": "170.5-171.5 °C"
    }
}