{
    "cas_no": "82-71-3",
    "key_name": "Styphnic acid",
    "cn_name": "2,4,6-三硝基间苯二酚;2，4，6-三硝基间苯二酚，收敛酸;",
    "alternate_name": "1,3-Benzenediol, 2,4,6-trinitro-;Styphnic acid;Resorcinol, 2,4,6-trinitro-;2,4,6-Trinitro-1,3-benzenediol;2,4-Dihydroxy-1,3,5-trinitrobenzene;2,4,6-Trinitroresorcinol;3-Hydroxy-2,4,6-trinitrophenol;1,3-Dihydroxy-2,4,6-trinitrobenzene;NSC 36932",
    "duplicated_cas_no": "",
    "SMILES": "N(=O)(=O)C1=C(O)C(N(=O)=O)=CC(N(=O)=O)=C1O",
    "meta_data": {
        "InChI": "InChI=1S/C6H3N3O8/c10-5-2(7(12)13)1-3(8(14)15)6(11)4(5)9(16)17/h1,10-11H",
        "InChIKey": null,
        "Canonical SMILES": "O=N(=O)C=1C=C(C(O)=C(C1O)N(=O)=O)N(=O)=O",
        "Molecular Formula": "C<sub>6</sub>H<sub>3</sub>N<sub>3</sub>O<sub>8</sub>",
        "Molecular Mass": "245.10",
        "Melting Point": "175.5 °C"
    }
}