{
    "cas_no": "5793-94-2",
    "key_name": "Calcium stearoyl-2-lactylate",
    "cn_name": "硬脂酰-2-乳酸钙;硬脂酰乳酰乳酸钙;乳酰化硬脂酸钙;硬脂酰-2-乳酸钙;",
    "alternate_name": "Octadecanoic acid, 2-(1-carboxyethoxy)-1-methyl-2-oxoethyl ester, calcium salt (2:1);Stearic acid, ester with lactic acid bimol. ester calcium salt;Octadecanoic acid, 2-(1-carboxyethoxy)-1-methyl-2-oxoethyl ester, calcium salt;Stearic acid, ester with lactate of lactic acid, Ca salt;Stearyl-2-lactylic acid calcium salt;Verv-Ca;Calcium α-[α-(stearoyloxy)propionyloxy]propionate;Calcium stearoyl-2-lactyllactate;Calcium stearyl-2-lactylate;Calcium stearyl lactylate;Calcium stearoxyl-2-lactylate;Calcium stearoyllactylate;Calcium stearoyl-2-lactylate;Lamegin CSL;LAA;Verv;Artodan CP 80;Emalsy B 1-1000;Pationic 930;Pationic 940;Beolac CS 100P;CSL;E 482;Grindsted CSL-P 80;Admul CSL 2010;Pationic CSL;Berufu",
    "duplicated_cas_no": "90128-66-8;1081753-82-3",
    "SMILES": "O(C(C(OC(C(O)=O)C)=O)C)C(CCCCCCCCCCCCCCCCC)=O.[Ca]",
    "meta_data": {
        "InChI": "InChI=1S/C24H44O6.Ca/c1-4-5-6-7-8-9-10-11-12-13-14-15-16-17-18-19-22(25)29-21(3)24(28)30-20(2)23(26)27;/h20-21H,4-19H2,1-3H3,(H,26,27);",
        "InChIKey": null,
        "Canonical SMILES": "[Ca].O=C(OC(C(=O)OC(C(=O)O)C)C)CCCCCCCCCCCCCCCCC",
        "Molecular Formula": "C<sub>24</sub>H<sub>44</sub>O<sub>6</sub>.<sup>1</sup>/<sub>2</sub>Ca",
        "Molecular Mass": "",
        "Melting Point": "45.7-48.7 °C"
    }
}