{
    "cas_no": "886-38-4",
    "key_name": "Diphenylcyclopropenone",
    "cn_name": "1,2-二苯基环丙烯-3-酮;二苯基环丙烯酮;",
    "alternate_name": "2-Cyclopropen-1-one, 2,3-diphenyl-;Cyclopropenone, diphenyl-;2,3-Diphenyl-2-cyclopropen-1-one;2,3-Diphenylcyclopropenone;Diphenylcyclopropenone;1,2-Diphenylcyclopropenone;Diphencyprone;DPC;NSC 57541;Diphencyclopropenone;Diphenyl cyclopropenone;2,3-Diphenylcycloprop-2-enone;2,3-Diphenyl-cycloprop-2-enone",
    "duplicated_cas_no": "2941128-60-3",
    "SMILES": "O=C1C(=C1C2=CC=CC=C2)C3=CC=CC=C3",
    "meta_data": {
        "InChI": "InChI=1S/C15H10O/c16-15-13(11-7-3-1-4-8-11)14(15)12-9-5-2-6-10-12/h1-10H",
        "InChIKey": null,
        "Canonical SMILES": "O=C1C(C=2C=CC=CC2)=C1C=3C=CC=CC3",
        "Molecular Formula": "C<sub>15</sub>H<sub>10</sub>O",
        "Molecular Mass": "206.24",
        "Melting Point": "119 °C",
        "Density": "1.202 g/cm³"
    }
}