{
    "cas_no": "105-09-9",
    "key_name": "1,4-Benzenedimethanethiol",
    "cn_name": "对二甲巯基苯;1,4-苯二甲硫醇;",
    "alternate_name": "1,4-Benzenedimethanethiol;<em>p</em>-Xylene-α,α′-dithiol;1,4-Bis(mercaptomethyl)benzene;<em>p</em>-Xylylenedithiol;α,α′-<em>p</em>-Xylenedithiol;1,4-Benzenebis(methanethiol);α,α′-Dimercapto-<em>p</em>-xylene;1,4-Xylylenedithiol;NSC 72094;[4-(Sulfanylmethyl)phenyl]methanethiol;PXDT",
    "duplicated_cas_no": "",
    "SMILES": "C(S)C1=CC=C(CS)C=C1",
    "meta_data": {
        "InChI": "InChI=1S/C8H10S2/c9-5-7-1-2-8(6-10)4-3-7/h1-4,9-10H,5-6H2",
        "InChIKey": null,
        "Canonical SMILES": "SCC1=CC=C(C=C1)CS",
        "Molecular Formula": "C<sub>8</sub>H<sub>10</sub>S<sub>2</sub>",
        "Molecular Mass": "170.29",
        "Melting Point": "46-47 °C"
    }
}