{
    "cas_no": "2973-75-3",
    "key_name": "2,3-Dibromo-4-hydroxy-5-methoxybenzaldehyde",
    "cn_name": "2,3-二溴-4-羟基-5-甲氧基苯甲醛;",
    "alternate_name": "Benzaldehyde, 2,3-dibromo-4-hydroxy-5-methoxy-;Vanillin, 5,6-dibromo-;2,3-Dibromo-4-hydroxy-5-methoxybenzaldehyde;2,3-Dibromovanillin;5,6-Dibromovanillin",
    "duplicated_cas_no": "",
    "SMILES": "C(=O)C1=CC(OC)=C(O)C(Br)=C1Br",
    "meta_data": {
        "InChI": "InChI=1S/C8H6Br2O3/c1-13-5-2-4(3-11)6(9)7(10)8(5)12/h2-3,12H,1H3",
        "InChIKey": null,
        "Canonical SMILES": "O=CC1=CC(OC)=C(O)C(Br)=C1Br",
        "Molecular Formula": "C<sub>8</sub>H<sub>6</sub>Br<sub>2</sub>O<sub>3</sub>",
        "Molecular Mass": "309.94",
        "Melting Point": "218 °C"
    }
}