{
    "cas_no": "686344-29-6",
    "key_name": "1-[8-(2-Chlorophenyl)-9-(4-chlorophenyl)-9<em>H</em>-purin-6-yl]-4-(ethylamino)-4-piperidinecarboxamide",
    "cn_name": "奥替那班;1-[9-(4-氯苯基)-8-(2-氯苯基)-9H-嘌呤-6-基]-4-乙基氨基哌啶-4-甲酰胺;",
    "alternate_name": "4-Piperidinecarboxamide, 1-[8-(2-chlorophenyl)-9-(4-chlorophenyl)-9<em>H</em>-purin-6-yl]-4-(ethylamino)-;1-[8-(2-Chlorophenyl)-9-(4-chlorophenyl)-9<em>H</em>-purin-6-yl]-4-(ethylamino)-4-piperidinecarboxamide;1-[9-(4-Chlorophenyl)-8-(2-chlorophenyl)-9<em>H</em>-purin-6-yl]-4-ethylaminopiperidine-4-carboxamide;Otenabant;1-[8-(2-Chlorophenyl)-9-(4-chlorophenyl)purin-6-yl]-4-(ethylamino)piperidine-4-carboxamide;CP 945,598",
    "duplicated_cas_no": "",
    "SMILES": "ClC1=C(C=2N(C=3C(N2)=C(N=CN3)N4CCC(NCC)(C(N)=O)CC4)C5=CC=C(Cl)C=C5)C=CC=C1",
    "meta_data": {
        "InChI": "InChI=1S/C25H25Cl2N7O/c1-2-31-25(24(28)35)11-13-33(14-12-25)22-20-23(30-15-29-22)34(17-9-7-16(26)8-10-17)21(32-20)18-5-3-4-6-19(18)27/h3-10,15,31H,2,11-14H2,1H3,(H2,28,35)",
        "InChIKey": null,
        "Canonical SMILES": "O=C(N)C1(NCC)CCN(C=2N=CN=C3C2N=C(C=4C=CC=CC4Cl)N3C5=CC=C(Cl)C=C5)CC1",
        "Molecular Formula": "C<sub>25</sub>H<sub>25</sub>Cl<sub>2</sub>N<sub>7</sub>O",
        "Molecular Mass": "510.42",
        "Melting Point": "141-143 °C"
    }
}