{
    "cas_no": "1168-42-9",
    "key_name": "5,6,7,4′-Tetramethoxyflavone",
    "cn_name": "4,5,6,7-四甲氧基黄酮;4,5,6,7-四甲氧基黄酮;",
    "alternate_name": "4<em>H</em>-1-Benzopyran-4-one, 5,6,7-trimethoxy-2-(4-methoxyphenyl)-;Flavone, 4′,5,6,7-tetramethoxy-;5,6,7-Trimethoxy-2-(4-methoxyphenyl)-4<em>H</em>-1-benzopyran-4-one;4′,5,6,7-Tetramethoxyflavone;Tetra-<em>O</em>-methylscutellarein;Scutellarein tetramethyl ether;Tetramethyl-<em>O</em>-scutellarin;5,6,7,4′-Tetramethoxyflavone;5-Methoxysalvigenin;Tetramethylscutellarein;Pectolinarigenin dimethyl ether;NSC 53908",
    "duplicated_cas_no": "",
    "SMILES": "O(C)C1=C2C(OC(=CC2=O)C3=CC=C(OC)C=C3)=CC(OC)=C1OC",
    "meta_data": {
        "InChI": "InChI=1S/C19H18O6/c1-21-12-7-5-11(6-8-12)14-9-13(20)17-15(25-14)10-16(22-2)18(23-3)19(17)24-4/h5-10H,1-4H3",
        "InChIKey": null,
        "Canonical SMILES": "O=C1C=C(OC=2C=C(OC)C(OC)=C(OC)C12)C=3C=CC(OC)=CC3",
        "Molecular Formula": "C<sub>19</sub>H<sub>18</sub>O<sub>6</sub>",
        "Molecular Mass": "342.34",
        "Melting Point": "158-160 °C"
    }
}