{
    "cas_no": "4546-54-7",
    "key_name": "2-Aminopurine riboside",
    "cn_name": "2-氨基嘌呤核苷;",
    "alternate_name": "9<em>H</em>-Purin-2-amine, 9-β-<span class=\"text-smallcaps\">D</span>-ribofuranosyl-;9<em>H</em>-Purine, 2-amino-9-β-<span class=\"text-smallcaps\">D</span>-ribofuranosyl-;9-β-<span class=\"text-smallcaps\">D</span>-Ribofuranosyl-9<em>H</em>-purin-2-amine;2-Amino-9-β-<span class=\"text-smallcaps\">D</span>-ribofuranosylpurine;2-Aminopurine riboside;2-Aminonebularine;2-Aminopurine ribonucleoside;NSC 36906",
    "duplicated_cas_no": "2311-77-5;17659-89-1",
    "SMILES": "O[C@H]1[C@H](N2C=3C(N=C2)=CN=C(N)N3)O[C@H](CO)[C@H]1O",
    "meta_data": {
        "InChI": "InChI=1S/C10H13N5O4/c11-10-12-1-4-8(14-10)15(3-13-4)9-7(18)6(17)5(2-16)19-9/h1,3,5-7,9,16-18H,2H2,(H2,11,12,14)/t5-,6-,7-,9-/m1/s1",
        "InChIKey": null,
        "Canonical SMILES": "OCC1OC(N2C=NC=3C=NC(=NC32)N)C(O)C1O",
        "Molecular Formula": "C<sub>10</sub>H<sub>13</sub>N<sub>5</sub>O<sub>4</sub>",
        "Molecular Mass": "267.24",
        "Melting Point": "165 °C"
    }
}