{
    "cas_no": "42302-17-0",
    "key_name": "3-(Dimethylamino)-1-propanethiol",
    "cn_name": null,
    "alternate_name": "1-Propanethiol, 3-(dimethylamino)-;3-(Dimethylamino)-1-propanethiol;1-(Dimethylamino)-3-propanethiol;3-(Dimethylamino)propanethiol",
    "duplicated_cas_no": "93107-67-6;93107-65-4;93107-64-3",
    "SMILES": "C(N(C)C)CCS",
    "meta_data": {
        "InChI": "InChI=1S/C5H13NS/c1-6(2)4-3-5-7/h7H,3-5H2,1-2H3",
        "InChIKey": null,
        "Canonical SMILES": "SCCCN(C)C",
        "Molecular Formula": "C<sub>5</sub>H<sub>13</sub>NS",
        "Molecular Mass": "119.23",
        "Boiling Point": "40-41 °C @ Press: 12 Torr"
    }
}