{
    "cas_no": "20691-84-3",
    "key_name": "3-[2-[4-(Dimethylamino)phenyl]diazenyl]benzoic acid",
    "cn_name": "间甲基红;3-((4-(二甲基氨基)苯基)偶氮)苯甲酸;",
    "alternate_name": "Benzoic acid, 3-[2-[4-(dimethylamino)phenyl]diazenyl]-;Benzoic acid, <em>m</em>-[[<em>p</em>-(dimethylamino)phenyl]azo]-;Benzoic acid, 3-[[4-(dimethylamino)phenyl]azo]-;3-[2-[4-(Dimethylamino)phenyl]diazenyl]benzoic acid;3′-Carboxy-4-dimethylaminoazobenzene;3-[4-(Dimethylamino)phenylazo]benzoic acid;<em>m</em>-Methyl red;Meta-methyl red;3-[[4-(Dimethylamino)phenyl]diazenyl]benzoic acid",
    "duplicated_cas_no": "",
    "SMILES": "N(=NC1=CC=C(N(C)C)C=C1)C2=CC(C(O)=O)=CC=C2",
    "meta_data": {
        "InChI": "InChI=1S/C15H15N3O2/c1-18(2)14-8-6-12(7-9-14)16-17-13-5-3-4-11(10-13)15(19)20/h3-10H,1-2H3,(H,19,20)",
        "InChIKey": null,
        "Canonical SMILES": "O=C(O)C=1C=CC=C(N=NC2=CC=C(C=C2)N(C)C)C1",
        "Molecular Formula": "C<sub>15</sub>H<sub>15</sub>N<sub>3</sub>O<sub>2</sub>",
        "Molecular Mass": "269.30",
        "Melting Point": "207-208 °C"
    }
}