{
    "cas_no": "403-90-7",
    "key_name": "3-Fluoro-<span class=\"text-smallcaps\">DL</span>-tyrosine",
    "cn_name": "3-氟-DL-酪氨酸;间氟-DL-酪氨酸;3-氟-DL-酪氨酸;间-氟-DL-酪氨酸;3-氟-DL-酪氨酸,96%;3-氟酪胺酸;",
    "alternate_name": "Tyrosine, 3-fluoro-;Tyrosine, 3-fluoro-, <span class=\"text-smallcaps\">DL</span>-;<span class=\"text-smallcaps\">DL</span>-Tyrosine, 3-fluoro-;3-Fluorotyrosine;<span class=\"text-smallcaps\">DL</span>-<em>m</em>-Fluorotyrosine;Ba 2745;<span class=\"text-smallcaps\">DL</span>-3-Fluorotyrosine;3-Fluoro-<span class=\"text-smallcaps\">DL</span>-tyrosine;Pardinon;<em>m</em>-Fluoro-<span class=\"text-smallcaps\">DL</span>-tyrosine;<span class=\"text-smallcaps\">DL</span>-3-Fluorotyrosin;Fluorthyrin;NSC 83231;2-Amino-3-(3-fluoro-4-hydroxyphenyl)propanoic acid",
    "duplicated_cas_no": "139-26-4",
    "SMILES": "C(C(C(O)=O)N)C1=CC(F)=C(O)C=C1",
    "meta_data": {
        "InChI": "InChI=1S/C9H10FNO3/c10-6-3-5(1-2-8(6)12)4-7(11)9(13)14/h1-3,7,12H,4,11H2,(H,13,14)",
        "InChIKey": null,
        "Canonical SMILES": "O=C(O)C(N)CC1=CC=C(O)C(F)=C1",
        "Molecular Formula": "C<sub>9</sub>H<sub>10</sub>FNO<sub>3</sub>",
        "Molecular Mass": "199.18",
        "Melting Point": "276-277 °C (decomp)"
    }
}