{
    "cas_no": "15644-89-0",
    "key_name": "8-Methoxy-2-methyl-4-quinolinol",
    "cn_name": "8-Methoxy-2-methylquinolin-4-ol;",
    "alternate_name": "4-Quinolinol, 8-methoxy-2-methyl-;8-Methoxy-2-methyl-4-quinolinol;NSC 208722",
    "duplicated_cas_no": "",
    "SMILES": "O(C)C=1C2=C(C(O)=CC(C)=N2)C=CC1",
    "meta_data": {
        "InChI": "InChI=1S/C11H11NO2/c1-7-6-9(13)8-4-3-5-10(14-2)11(8)12-7/h3-6H,1-2H3,(H,12,13)",
        "InChIKey": null,
        "Canonical SMILES": "OC=1C=C(N=C2C(OC)=CC=CC12)C",
        "Molecular Formula": "C<sub>11</sub>H<sub>11</sub>NO<sub>2</sub>",
        "Molecular Mass": "189.21",
        "Melting Point": "222 °C"
    }
}