{
    "cas_no": "17146-08-6",
    "key_name": "[2-(Chlorodimethylsilyl)ethyl]benzene",
    "cn_name": "氯二甲基苯乙基硅烷;",
    "alternate_name": "Benzene, [2-(chlorodimethylsilyl)ethyl]-;Silane, chlorodimethylphenethyl-;Silane, chlorodimethyl(2-phenylethyl)-;[2-(Chlorodimethylsilyl)ethyl]benzene;Chlorodimethylphenethylsilane;2-Phenylethylchlorodimethylsilane;Phenethyldimethylsilyl chloride",
    "duplicated_cas_no": "1841090-67-2",
    "SMILES": "C(C[Si](C)(C)Cl)C1=CC=CC=C1",
    "meta_data": {
        "InChI": "InChI=1S/C10H15ClSi/c1-12(2,11)9-8-10-6-4-3-5-7-10/h3-7H,8-9H2,1-2H3",
        "InChIKey": null,
        "Canonical SMILES": "Cl[Si](C)(C)CCC=1C=CC=CC1",
        "Molecular Formula": "C<sub>10</sub>H<sub>15</sub>ClSi",
        "Molecular Mass": "198.76",
        "Boiling Point": "56 °C @ Press: 0.2 Torr",
        "Density": "0.999 g/cm³"
    }
}