{
    "cas_no": "55035-43-3",
    "key_name": "1,4-Bis[2-[4-[<em>N</em>,<em>N</em>-di(<em>p</em>-tolyl)amino]phenyl]vinyl]benzene",
    "cn_name": "1,4-二[4-(二甲氨苯基)苯乙烯基]苯;",
    "alternate_name": "Benzenamine, 4,4′-(1,4-phenylenedi-2,1-ethenediyl)bis[<em>N</em>,<em>N</em>-bis(4-methylphenyl)-;4,4′-(1,4-Phenylenedi-2,1-ethenediyl)bis[<em>N</em>,<em>N</em>-bis(4-methylphenyl)benzenamine];4-(Di-<em>p</em>-Tolylamino)-4′-[(di-<em>p</em>-tolylamino)styryl]stilbene;1,4-Bis[2-[4-[<em>N</em>,<em>N</em>-di(<em>p</em>-tolyl)amino]phenyl]vinyl]benzene;Blue-green 2;B 2080;OP 31",
    "duplicated_cas_no": "",
    "SMILES": "N(C1=CC=C(C=CC2=CC=C(C=CC3=CC=C(N(C4=CC=C(C)C=C4)C5=CC=C(C)C=C5)C=C3)C=C2)C=C1)(C6=CC=C(C)C=C6)C7=CC=C(C)C=C7",
    "meta_data": {
        "InChI": "InChI=1S/C50H44N2/c1-37-5-25-45(26-6-37)51(46-27-7-38(2)8-28-46)49-33-21-43(22-34-49)19-17-41-13-15-42(16-14-41)18-20-44-23-35-50(36-24-44)52(47-29-9-39(3)10-30-47)48-31-11-40(4)12-32-48/h5-36H,1-4H3",
        "InChIKey": null,
        "Canonical SMILES": "C=1C=C(C=CC1C=CC2=CC=C(C=C2)N(C3=CC=C(C=C3)C)C4=CC=C(C=C4)C)C=CC5=CC=C(C=C5)N(C6=CC=C(C=C6)C)C7=CC=C(C=C7)C",
        "Molecular Formula": "C<sub>50</sub>H<sub>44</sub>N<sub>2</sub>",
        "Molecular Mass": "672.90",
        "Melting Point": "223-224 °C"
    }
}