{
    "cas_no": "51581-54-5",
    "key_name": "1-(4-Chlorophenyl)-1<em>H</em>-imidazole",
    "cn_name": null,
    "alternate_name": "1<em>H</em>-Imidazole, 1-(4-chlorophenyl)-;1-(4-Chlorophenyl)-1<em>H</em>-imidazole;1-(<em>p</em>-Chlorophenyl)imidazole;1-(4-Chlorophenyl)imidazole;<em>N</em>-(4-Chlorophenyl)imidazole",
    "duplicated_cas_no": "",
    "SMILES": "ClC1=CC=C(C=C1)N2C=CN=C2",
    "meta_data": {
        "InChI": "InChI=1S/C9H7ClN2/c10-8-1-3-9(4-2-8)12-6-5-11-7-12/h1-7H",
        "InChIKey": null,
        "Canonical SMILES": "ClC1=CC=C(C=C1)N2C=NC=C2",
        "Molecular Formula": "C<sub>9</sub>H<sub>7</sub>ClN<sub>2</sub>",
        "Molecular Mass": "178.62",
        "Melting Point": "84-86 °C"
    }
}