{
    "cas_no": "1192-30-9",
    "key_name": "2-(Bromomethyl)tetrahydrofuran",
    "cn_name": "2-溴甲基四氢呋喃;",
    "alternate_name": "Furan, 2-(bromomethyl)tetrahydro-;2-(Bromomethyl)tetrahydrofuran;Tetrahydrofurfuryl bromide;(±)-Tetrahydrofurfuryl bromide;(<em>RS</em>)-Tetrahydrofurfuryl bromide;NSC 93886;(Tetrahydrofuran-2-yl)methyl bromide;2-(Bromomethyl)oxolane",
    "duplicated_cas_no": "57236-97-2",
    "SMILES": "C(Br)C1CCCO1",
    "meta_data": {
        "InChI": "InChI=1S/C5H9BrO/c6-4-5-2-1-3-7-5/h5H,1-4H2",
        "InChIKey": null,
        "Canonical SMILES": "BrCC1OCCC1",
        "Molecular Formula": "C<sub>5</sub>H<sub>9</sub>BrO",
        "Molecular Mass": "165.03",
        "Boiling Point": "170 °C",
        "Density": "1.483 g/cm³ @ Temp: 13 °C"
    }
}