{
    "cas_no": "436-77-1",
    "key_name": "Fangchinoline",
    "cn_name": "防己诺林碱;",
    "alternate_name": "16<em>H</em>-1,24:6,9-Dietheno-11,15-metheno-2<em>H</em>-pyrido[2′,3′:17,18][1,11]dioxacycloeicosino[2,3,4-<em>ij</em>]isoquinolin-22-ol, 3,4,4a,5,16a,17,18,19-octahydro-12,21,26-trimethoxy-4,17-dimethyl-, (4a<em>S</em>,16a<em>S</em>)-;Fangchinoline;Berbaman-7-ol, 6,6′,12-trimethoxy-2,2′-dimethyl-, (1β)-;(4a<em>S</em>,16a<em>S</em>)-3,4,4a,5,16a,17,18,19-Octahydro-12,21,26-trimethoxy-4,17-dimethyl-16<em>H</em>-1,24:6,9-dietheno-11,15-metheno-2<em>H</em>-pyrido[2′,3′:17,18][1,11]dioxacycloeicosino[2,3,4-<em>ij</em>]isoquinolin-22-ol;(+)-Limacine;(+)-Fangchinoline;7-<em>O</em>-Demethyltetrandrine;16<em>H</em>-1,24:6,9-Dietheno-11,15-metheno-2<em>H</em>-pyrido[2′,3′:17,18][1,11]dioxacycloeicosino[2,3,4-<em>ij</em>]isoquinolin-22-ol, 3,4,4a,5,16a,17,18,19-octahydro-12,21,26-trimethoxy-4,17-dimethyl-, [4a<em>S</em>-(4a<em>R</em>*,16a<em>R</em>*)]-;NSC 77036;Hanfangchin B",
    "duplicated_cas_no": "27800-75-5",
    "SMILES": "OC1=C2C=3[C@](CC=4C=C(C(OC)=CC4)OC=5C=CC(C[C@]6(C7=CC(O2)=C(OC)C=C7CCN6C)[H])=CC5)(N(C)CCC3C=C1OC)[H]",
    "meta_data": {
        "InChI": "InChI=1S/C37H40N2O6/c1-38-14-12-24-19-31(42-4)33-21-27(24)28(38)16-22-6-9-26(10-7-22)44-32-18-23(8-11-30(32)41-3)17-29-35-25(13-15-39(29)2)20-34(43-5)36(40)37(35)45-33/h6-11,18-21,28-29,40H,12-17H2,1-5H3/t28-,29-/m0/s1",
        "InChIKey": null,
        "Canonical SMILES": "OC1=C(OC)C=C2C3=C1OC=4C=C5C(=CC4OC)CCN(C)C5CC6=CC=C(OC7=CC(=CC=C7OC)CC3N(C)CC2)C=C6",
        "Molecular Formula": "C<sub>37</sub>H<sub>40</sub>N<sub>2</sub>O<sub>6</sub>",
        "Molecular Mass": "608.72",
        "Melting Point": "237-238 °C"
    }
}