{
    "cas_no": "57-08-9",
    "key_name": "Acexamic acid",
    "cn_name": "6-乙酰氨基己酸;醋氨己酸;",
    "alternate_name": "Hexanoic acid, 6-(acetylamino)-;Hexanoic acid, 6-acetamido-;6-(Acetylamino)hexanoic acid;Acexamic acid;6-Acetamidohexanoic acid;ε-Acetamidocaproic acid;6-Acetamidocaproic acid;<em>N</em>-Acetyl-ε-aminocaproic acid;<em>N</em>-Acetyl-6-aminohexanoic acid;Acemin;CY 153;Acetaminocaproic acid;NSC 12945",
    "duplicated_cas_no": "",
    "SMILES": "C(CC(O)=O)CCCNC(C)=O",
    "meta_data": {
        "InChI": "InChI=1S/C8H15NO3/c1-7(10)9-6-4-2-3-5-8(11)12/h2-6H2,1H3,(H,9,10)(H,11,12)",
        "InChIKey": null,
        "Canonical SMILES": "O=C(O)CCCCCNC(=O)C",
        "Molecular Formula": "C<sub>8</sub>H<sub>15</sub>NO<sub>3</sub>",
        "Molecular Mass": "173.21",
        "Boiling Point": "182-183 °C @ Press: 8 Torr",
        "Melting Point": "104.5 °C"
    }
}