{
    "cas_no": "102-56-7",
    "key_name": "2,5-Dimethoxyaniline",
    "cn_name": "2,5-二甲氧基苯胺;",
    "alternate_name": "Benzenamine, 2,5-dimethoxy-;Aniline, 2,5-dimethoxy-;2,5-Dimethoxybenzenamine;C.I. 35811;Aminohydroquinone dimethyl ether;2,5-Dimethoxyaniline;1-Amino-2,5-dimethoxybenzene;NSC 4138;2,5-Dimethoxyphenylamine;2,5-Dimethoxylaniline;2-Methoxy-5-methoxyaniline",
    "duplicated_cas_no": "",
    "SMILES": "O(C)C1=CC(N)=C(OC)C=C1",
    "meta_data": {
        "InChI": "InChI=1S/C8H11NO2/c1-10-6-3-4-8(11-2)7(9)5-6/h3-5H,9H2,1-2H3",
        "InChIKey": null,
        "Canonical SMILES": "O(C1=CC=C(OC)C(N)=C1)C",
        "Molecular Formula": "C<sub>8</sub>H<sub>11</sub>NO<sub>2</sub>",
        "Molecular Mass": "153.18",
        "Boiling Point": "270 °C",
        "Melting Point": "82.5 °C"
    }
}