{
    "cas_no": "56-12-2",
    "key_name": "γ-Aminobutyric acid",
    "cn_name": "4-氨基丁酸;",
    "alternate_name": "Butanoic acid, 4-amino-;Butyric acid, 4-amino-;4-Aminobutanoic acid;γ-Aminobutyric acid;GABA;Gamma-aminobutyric acid;4-Aminobutyric acid;Piperidinic acid;Piperidic acid;Gammalon;Gamarex;Gammalone;Gammasol;Mielogen;Mielomade;Gaballon;Gammar;γ-Aminobutanoic acid;Aminalon;ω-Aminobutyric acid;3-Carboxypropylamine;NSC 27418;NSC 32044;NSC 45460;NSC 51295;Pharmagaba;Pharmagaba 20;Pharmagaba 20D;Pharma-GABA 20S;Oryza GABA Extract HC 90;Pharma GABA 30L;Lacto Gaban;1: PN: TWI669392 SEQID: 1 claimed sequence;MeSH ID: D005680",
    "duplicated_cas_no": "3131-86-0",
    "SMILES": "C(C(O)=O)CCN",
    "meta_data": {
        "InChI": "InChI=1S/C4H9NO2/c5-3-1-2-4(6)7/h1-3,5H2,(H,6,7)",
        "InChIKey": null,
        "Canonical SMILES": "O=C(O)CCCN",
        "Molecular Formula": "C<sub>4</sub>H<sub>9</sub>NO<sub>2</sub>",
        "Molecular Mass": "103.12",
        "Melting Point": "203 °C (decomp)"
    }
}