{
    "cas_no": "6976-93-8",
    "key_name": "Methoxyethyl methacrylate",
    "cn_name": "甲基丙烯酸甲氧基乙酯;甲基丙烯酸-2-甲氧基乙酯;",
    "alternate_name": "2-Propenoic acid, 2-methyl-, 2-methoxyethyl ester;Methacrylic acid, 2-methoxyethyl ester;Ethanol, 2-methoxy-, methacrylate;β-Methoxyethyl methacrylate;2-Methoxyethyl methacrylate;Methoxyethyl methacrylate;Acryics C 1;Blemmer PME 50;NSC 24157;Acryester MT;EGMEMA;Ethylene glycol methacrylate methyl ether;2-Methoxyethylene glycol methacrylate;Ethylene glycol monomethyl ether methacrylate;Ethylene glycol methyl ether methacrylate;2-Methoxyethyl 2-methylprop-2-enoate;Methylmonoglycol methacrylate",
    "duplicated_cas_no": "",
    "SMILES": "C(OCCOC)(C(C)=C)=O",
    "meta_data": {
        "InChI": "InChI=1S/C7H12O3/c1-6(2)7(8)10-5-4-9-3/h1,4-5H2,2-3H3",
        "InChIKey": null,
        "Canonical SMILES": "O=C(OCCOC)C(=C)C",
        "Molecular Formula": "C<sub>7</sub>H<sub>12</sub>O<sub>3</sub>",
        "Molecular Mass": "144.17",
        "Boiling Point": "65 °C @ Press: 12 Torr",
        "Density": "0.993 g/cm³"
    }
}