{
    "cas_no": "536-90-3",
    "key_name": "3-Methoxyaniline",
    "cn_name": "间氨基苯甲醚;3-茴香胺;3-甲氧基苯胺;",
    "alternate_name": "Benzenamine, 3-methoxy-;<em>m</em>-Anisidine;3-Methoxybenzenamine;3-Aminoanisole;<em>m</em>-Anisylamine;3-Methoxyaniline;<em>m</em>-Aminoanisole;1-Amino-3-methoxybenzene;<em>m</em>-Aminomethoxybenzene;3-Methoxyphenylamine;<em>m</em>-Methoxyaniline;NSC 7631;1-Methoxy-3-aminobenzene;3-(Methyloxy)aniline",
    "duplicated_cas_no": "918666-97-4",
    "SMILES": "O(C)C1=CC(N)=CC=C1",
    "meta_data": {
        "InChI": "InChI=1S/C7H9NO/c1-9-7-4-2-3-6(8)5-7/h2-5H,8H2,1H3",
        "InChIKey": null,
        "Canonical SMILES": "O(C1=CC=CC(N)=C1)C",
        "Molecular Formula": "C<sub>7</sub>H<sub>9</sub>NO",
        "Molecular Mass": "123.15",
        "Boiling Point": "251 °C",
        "Melting Point": "&lt;0 °C",
        "Density": "1.1 g/cm³"
    }
}