{
    "cas_no": "17026-42-5",
    "key_name": "(+)-Dibenzoyltartaric acid",
    "cn_name": "D-二苯甲酰酒石酸;",
    "alternate_name": "Butanedioic acid, 2,3-bis(benzoyloxy)-, (2<em>S</em>,3<em>S</em>)-;Tartaric acid, dibenzoate, (+)-;Butanedioic acid, 2,3-bis(benzoyloxy)-, [<em>S</em>-(<em>R</em>*,<em>R</em>*)]-;(2<em>S</em>,3<em>S</em>)-2,3-Bis(benzoyloxy)butanedioic acid;(+)-<em>O</em>,<em>O</em>-Dibenzoyltartaric acid;(2<em>S</em>,3<em>S</em>)-(+)-Dibenzoyltartaric acid;<em>O</em>,<em>O</em>′-Dibenzoyl-(-)-tartaric acid;(+)-Dibenzoyltartaric acid;Dibenzoyl-(-)-tartaric acid;<span class=\"text-smallcaps\">D</span>-(+)-Dibenzoyltartaric acid;Dibenzoyl-<span class=\"text-smallcaps\">D</span>-tartaric acid;<span class=\"text-smallcaps\">D</span>-Dibenzoyltartaric acid;(+)-2,3-Dibenzoyl-<span class=\"text-smallcaps\">D</span>-tartaric acid;(+)-<span class=\"text-smallcaps\">D</span>-Dibenzoyltartaric acid;(<em>S</em>,<em>S</em>)-<em>O</em>,<em>O</em>′-Dibenzoyltartaric acid;(+)-Dibenzoyl-<span class=\"text-smallcaps\">D</span>-tartaric acid;(2<em>S</em>,3<em>S</em>)-(+)-Di-<em>O</em>-benzoyltartaric acid;NSC 97424;(+)-Di-<em>O</em>-benzoyl-<span class=\"text-smallcaps\">D</span>-tartaric acid;<em>O</em>,<em>O</em>′-Dibenzoyl-<span class=\"text-smallcaps\">D</span>-tartaric acid;2,3-Dibenzoyl-<span class=\"text-smallcaps\">D</span>-tartaric acid;(2<em>S</em>,3<em>S</em>)-2,3-Bis(benzoyloxy)succinic acid;(-)-<em>O</em>,<em>O</em>′-Dibenzoyl-(2<em>S</em>,3<em>S</em>)-tartaric acid;<span class=\"text-smallcaps\">D</span>-(+)-Di-<em>O</em>,<em>O</em>-benzoyltartaric acid;<em>O</em>,<em>O</em>′-Dibenzoyl-(2<em>S</em>,3<em>S</em>)-tartaric acid;(+)-(2<em>S</em>,3<em>S</em>)-Dibenzoyltartaric acid;(+)-<em>O</em>,<em>O</em>′-Dibenzoyl-<span class=\"text-smallcaps\">D</span>-tartaric acid;<em>O</em>-Dibenzoyl-<span class=\"text-smallcaps\">D</span>-tartaric acid",
    "duplicated_cas_no": "18320-46-2;22333-68-2;47464-87-9;52223-88-8;89874-45-3;113159-85-6;128637-88-7;132125-16-7;169042-94-8;1256597-54-2;2839751-76-5",
    "SMILES": "[C@@H]([C@H](OC(=O)C1=CC=CC=C1)C(O)=O)(OC(=O)C2=CC=CC=C2)C(O)=O",
    "meta_data": {
        "InChI": "InChI=1S/C18H14O8/c19-15(20)13(25-17(23)11-7-3-1-4-8-11)14(16(21)22)26-18(24)12-9-5-2-6-10-12/h1-10,13-14H,(H,19,20)(H,21,22)/t13-,14-/m0/s1",
        "InChIKey": null,
        "Canonical SMILES": "O=C(O)C(OC(=O)C=1C=CC=CC1)C(OC(=O)C=2C=CC=CC2)C(=O)O",
        "Molecular Formula": "C<sub>18</sub>H<sub>14</sub>O<sub>8</sub>",
        "Molecular Mass": "358.30",
        "Melting Point": "170 °C (decomp)"
    }
}