{
    "cas_no": "17350-17-3",
    "key_name": "1-[(Phenylmethoxy)carbonyl]-<span class=\"text-smallcaps\">L</smallcap>-prolyl-<smallcap>L</span>-phenylalanine",
    "cn_name": null,
    "alternate_name": "<span class=\"text-smallcaps\">L</smallcap>-Phenylalanine, 1-[(phenylmethoxy)carbonyl]-<smallcap>L</span>-prolyl-;1-Pyrrolidinecarboxylic acid, 2-[(α-carboxyphenethyl)carbamoyl]-, 1-benzyl ester, stereoisomer;<span class=\"text-smallcaps\">L</smallcap>-Phenylalanine, <em>N</em>-[1-[(phenylmethoxy)carbonyl]-<smallcap>L</span>-prolyl]-;1-Pyrrolidinecarboxylic acid, 2-[(α-carboxyphenethyl)carbamoyl]-, 1-benzyl ester;1-Pyrrolidinecarboxylic acid, 2-[(α-carboxyphenethyl)carbamoyl]-, benzyl ester;1-[(Phenylmethoxy)carbonyl]-<span class=\"text-smallcaps\">L</smallcap>-prolyl-<smallcap>L</span>-phenylalanine;<em>N</em>-(Benzyloxycarbonyl)-<span class=\"text-smallcaps\">L</smallcap>-prolyl-<smallcap>L</span>-phenylalanine;<em>N</em>-Carbobenzoxy-<span class=\"text-smallcaps\">L</smallcap>-prolyl-<smallcap>L</span>-phenylalanine;Benzyloxycarbonyl-<span class=\"text-smallcaps\">L</smallcap>-prolyl-<smallcap>L</span>-phenylalanine;NSC 334179",
    "duplicated_cas_no": "",
    "SMILES": "C(N[C@@H](CC1=CC=CC=C1)C(O)=O)(=O)[C@H]2N(C(OCC3=CC=CC=C3)=O)CCC2",
    "meta_data": {
        "InChI": "InChI=1S/C22H24N2O5/c25-20(23-18(21(26)27)14-16-8-3-1-4-9-16)19-12-7-13-24(19)22(28)29-15-17-10-5-2-6-11-17/h1-6,8-11,18-19H,7,12-15H2,(H,23,25)(H,26,27)/t18-,19-/m0/s1",
        "InChIKey": null,
        "Canonical SMILES": "O=C(OCC=1C=CC=CC1)N2CCCC2C(=O)NC(C(=O)O)CC=3C=CC=CC3",
        "Molecular Formula": "C<sub>22</sub>H<sub>24</sub>N<sub>2</sub>O<sub>5</sub>",
        "Molecular Mass": "396.44",
        "Melting Point": "126-127 °C"
    }
}