{
    "cas_no": "109-46-6",
    "key_name": "<em>N</em>,<em>N</em>′-Dibutylthiourea",
    "cn_name": "N,N\"-二丁基硫脲;",
    "alternate_name": "Thiourea, <em>N</em>,<em>N</em>′-dibutyl-;Urea, 1,3-dibutyl-2-thio-;<em>N</em>,<em>N</em>′-Dibutylthiourea;1,3-Dibutylthiourea;Pennzone B;1,3-Dibutyl-2-thiourea;Thiate U;Sanceler BUR;Accel BUR-F;NSC 3735;NSC 4148;Stannine 5525;Nocceler BUR;Accelerator DBTU;DBTU",
    "duplicated_cas_no": "30551-64-5",
    "SMILES": "N(C(NCCCC)=S)CCCC",
    "meta_data": {
        "InChI": "InChI=1S/C9H20N2S/c1-3-5-7-10-9(12)11-8-6-4-2/h3-8H2,1-2H3,(H2,10,11,12)",
        "InChIKey": null,
        "Canonical SMILES": "S=C(NCCCC)NCCCC",
        "Molecular Formula": "C<sub>9</sub>H<sub>20</sub>N<sub>2</sub>S",
        "Molecular Mass": "188.33",
        "Boiling Point": "122-128 °C @ Press: 14 Torr",
        "Melting Point": "64 °C"
    }
}