{
    "cas_no": "282109-83-5",
    "key_name": "1<em>H</em>-Imidazolium, 1,3-bis[2,6-bis(1-methylethyl)phenyl]-4,5-dihydro-, tetrafluoroborate(1-) (1:1)",
    "cn_name": null,
    "alternate_name": "1<em>H</em>-Imidazolium, 1,3-bis[2,6-bis(1-methylethyl)phenyl]-4,5-dihydro-, tetrafluoroborate(1-) (1:1);1<em>H</em>-Imidazolium, 1,3-bis[2,6-bis(1-methylethyl)phenyl]-4,5-dihydro-, tetrafluoroborate(1-);4,5-Dihydro-1,3-bis(2,6-diisopropylphenyl)imidazolium tetrafluoroborate;1,3-Bis(2,6-diisopropylphenyl)-4,5-dihydroimidazolium tetrafluoroborate;<em>N</em>,<em>N</em>′-Bis(2,6-diisopropylphenyl)dihydroimidazolium tetrafluoroborate;1,3-Bis(2,6-diisopropylphenyl)-4,5-dihydro-3<em>H</em>-imidazol-1-ium tetrafluoroborate",
    "duplicated_cas_no": "1072459-97-2;1323947-96-1",
    "SMILES": "C(C)(C)C1=C(C(C(C)C)=CC=C1)[N+]2=CN(CC2)C3=C(C(C)C)C=CC=C3C(C)C.[B+3]([F-])([F-])([F-])[F-]",
    "meta_data": {
        "InChI": "InChI=1S/C27H39N2.BF4/c1-18(2)22-11-9-12-23(19(3)4)26(22)28-15-16-29(17-28)27-24(20(5)6)13-10-14-25(27)21(7)8;2-1(3,4)5/h9-14,17-21H,15-16H2,1-8H3;/q+1;-1",
        "InChIKey": null,
        "Canonical SMILES": "[F-][B+3]([F-])([F-])[F-].C=1C=C(C(=C(C1)C(C)C)N2C=[N+](C=3C(=CC=CC3C(C)C)C(C)C)CC2)C(C)C",
        "Molecular Formula": "C<sub>27</sub>H<sub>39</sub>N<sub>2</sub>.BF<sub>4</sub>",
        "Molecular Mass": "",
        "Melting Point": "&gt;300 °C"
    }
}