{
    "cas_no": "23911-26-4",
    "key_name": "DTPA dianhydride",
    "cn_name": null,
    "alternate_name": "Glycine, <em>N</em>,<em>N</em>-bis[2-(2,6-dioxo-4-morpholinyl)ethyl]-;Glycine, <em>N</em>,<em>N</em>-bis[2-(2,6-dioxomorpholino)ethyl]-;2,6-Morpholinedione, 4,4′-[[(carboxymethyl)imino]diethylene]di-;<em>N</em>,<em>N</em>-Bis[2-(2,6-dioxo-4-morpholinyl)ethyl]glycine;Diethylenetriaminepentaacetic dianhydride;1,5-Bis(2,6-dioxomorpholino)-3-azapentane-3-acetic acid;Cyclic DTPA anhydride;DTPA anhydride;Diethylenetriaminepentaacetic acid dianhydride;DTPA cyclic anhydride;Diethylenetriaminepentaacetic bisanhydride;DTPA dianhydride;Diethylenetriamine-<em>N</em>,<em>N</em>,<em>N</em>′,<em>N</em>′′,<em>N</em>′′-pentaacetic acid <em>N</em>,<em>N</em>′′-dianhydride;NSC 379317;DTPAA;Diethylenetriamine-<em>N</em>,<em>N</em>,<em>N</em>′,<em>N</em>′′,<em>N</em>′′-pentacetic dianhydride;2-[Bis[2-(2,6-dioxomorpholino)ethyl]amino]acetic acid;2-[Bis[2-(2,6-dioxomorpholin-4-yl)ethyl]azaniumyl]acetate;DTPABA",
    "duplicated_cas_no": "111535-62-7;119895-99-7;120195-90-6;150909-78-7;167271-36-5;291290-07-8;1449610-02-9;1803340-60-4;1821684-33-6",
    "SMILES": "C(CN(CCN1CC(=O)OC(=O)C1)CC(O)=O)N2CC(=O)OC(=O)C2",
    "meta_data": {
        "InChI": "InChI=1S/C14H19N3O8/c18-10(19)5-15(1-3-16-6-11(20)24-12(21)7-16)2-4-17-8-13(22)25-14(23)9-17/h1-9H2,(H,18,19)",
        "InChIKey": null,
        "Canonical SMILES": "O=C(O)CN(CCN1CC(=O)OC(=O)C1)CCN2CC(=O)OC(=O)C2",
        "Molecular Formula": "C<sub>14</sub>H<sub>19</sub>N<sub>3</sub>O<sub>8</sub>",
        "Molecular Mass": "357.32",
        "Melting Point": "209-211 °C"
    }
}