{
    "cas_no": "7439-98-7",
    "key_name": "Molybdenum",
    "cn_name": null,
    "alternate_name": "Molybdenum;TsM1;MChVL;TMOIO;Molybdenum element;Metco 63;Amperit 106.2;Amperit 105.054;NSC 600660;NSC 600661;NSC 600665;NSC 603570;NSC 603571;NSC 603572;SGC 15;3N5;TMO 10;TMO 30;TMO 50;MeSH ID: D008982",
    "duplicated_cas_no": "",
    "SMILES": "[Mo]",
    "meta_data": {
        "InChI": "InChI=1S/Mo",
        "InChIKey": null,
        "Canonical SMILES": "[Mo]",
        "Molecular Formula": "Mo",
        "Molecular Mass": "",
        "Boiling Point": "~4825 °C (approx)",
        "Melting Point": "2622 °C",
        "Density": "10.28 g/cm³"
    }
}