{
    "cas_no": "612-64-6",
    "key_name": "<em>N</em>-Nitroso-<em>N</em>-ethylaniline",
    "cn_name": null,
    "alternate_name": "Benzenamine, <em>N</em>-ethyl-<em>N</em>-nitroso-;Aniline, <em>N</em>-ethyl-<em>N</em>-nitroso-;<em>N</em>-Ethyl-<em>N</em>-nitrosobenzenamine;<em>N</em>-Nitroso-<em>N</em>-ethylaniline;<em>N</em>-Ethyl-<em>N</em>-nitrosoaniline;<em>N</em>-Ethyl-<em>N</em>-phenylnitrosamine;<em>N</em>-Nitrosoethylphenylamine;NSC 405070",
    "duplicated_cas_no": "",
    "SMILES": "N(CC)(N=O)C1=CC=CC=C1",
    "meta_data": {
        "InChI": "InChI=1S/C8H10N2O/c1-2-10(9-11)8-6-4-3-5-7-8/h3-7H,2H2,1H3",
        "InChIKey": null,
        "Canonical SMILES": "O=NN(C=1C=CC=CC1)CC",
        "Molecular Formula": "C<sub>8</sub>H<sub>10</sub>N<sub>2</sub>O",
        "Molecular Mass": "150.18",
        "Boiling Point": "96-97 °C @ Press: 1.9 Torr",
        "Density": "1.0874 g/cm³ @ Temp: 20 °C"
    }
}