{
    "cas_no": "4707-32-8",
    "key_name": "β-Lapachone",
    "cn_name": null,
    "alternate_name": "2<em>H</em>-Naphtho[1,2-<em>b</em>]pyran-5,6-dione, 3,4-dihydro-2,2-dimethyl-;3,4-Dihydro-2,2-dimethyl-2<em>H</em>-naphtho[1,2-<em>b</em>]pyran-5,6-dione;β-Lapachone;SL 11001;NSC 26326;NSC 629749;ARQ 501;MB 12066;2,2-Dimethyl-3,4-dihydrobenzo[<em>h</em>]chromene-5,6-dione",
    "duplicated_cas_no": "",
    "SMILES": "O=C1C=2C(C3=C(C1=O)CCC(C)(C)O3)=CC=CC2",
    "meta_data": {
        "InChI": "InChI=1S/C15H14O3/c1-15(2)8-7-11-13(17)12(16)9-5-3-4-6-10(9)14(11)18-15/h3-6H,7-8H2,1-2H3",
        "InChIKey": null,
        "Canonical SMILES": "O=C1C(=O)C2=C(OC(C)(C)CC2)C=3C=CC=CC13",
        "Molecular Formula": "C<sub>15</sub>H<sub>14</sub>O<sub>3</sub>",
        "Molecular Mass": "242.27",
        "Melting Point": "154-156 °C"
    }
}