{
    "cas_no": "938-25-0",
    "key_name": "1,2-Naphthalenediamine",
    "cn_name": null,
    "alternate_name": "1,2-Naphthalenediamine;1,2-Diaminonaphthalene;NSC 62691",
    "duplicated_cas_no": "",
    "SMILES": "NC=1C2=C(C=CC1N)C=CC=C2",
    "meta_data": {
        "InChI": "InChI=1S/C10H10N2/c11-9-6-5-7-3-1-2-4-8(7)10(9)12/h1-6H,11-12H2",
        "InChIKey": null,
        "Canonical SMILES": "NC=1C=CC=2C=CC=CC2C1N",
        "Molecular Formula": "C<sub>10</sub>H<sub>10</sub>N<sub>2</sub>",
        "Molecular Mass": "158.20",
        "Boiling Point": "215 °C @ Press: 1 x 10<sup>-3</sup>-3 x 10<sup>-3</sup> Torr",
        "Melting Point": "98.5 °C"
    }
}