{
    "cas_no": "2472-22-2",
    "key_name": "6-Methoxy-2-tetralone",
    "cn_name": "6-甲氧基-3,4-二氢-1H-2-萘酮;",
    "alternate_name": "2(1<em>H</em>)-Naphthalenone, 3,4-dihydro-6-methoxy-;3,4-Dihydro-6-methoxy-2(1<em>H</em>)-naphthalenone;3,4-Dihydro-6-methoxynaphthalen-2(1<em>H</em>)-one;6-Methoxy-3,4-dihydro-2(1<em>H</em>)-naphthalenone;6-Methoxy-β-tetralone;6-Methoxy-2-tetralone;6-Methoxy-3,4-dihydro-1<em>H</em>-naphthalen-2-one;6-Methoxytetralin-2-one",
    "duplicated_cas_no": "",
    "SMILES": "O(C)C=1C=C2C(CC(=O)CC2)=CC1",
    "meta_data": {
        "InChI": "InChI=1S/C11H12O2/c1-13-11-5-3-8-6-10(12)4-2-9(8)7-11/h3,5,7H,2,4,6H2,1H3",
        "InChIKey": null,
        "Canonical SMILES": "O=C1CC2=CC=C(OC)C=C2CC1",
        "Molecular Formula": "C<sub>11</sub>H<sub>12</sub>O<sub>2</sub>",
        "Molecular Mass": "176.21",
        "Boiling Point": "135 °C @ Press: 0.8 Torr",
        "Melting Point": "34-35 °C"
    }
}