{
    "cas_no": "1193-02-8",
    "key_name": "4-Aminothiophenol",
    "cn_name": "4-氨基苯硫酚;对氨基苯硫酚;",
    "alternate_name": "Benzenethiol, 4-amino-;Benzenethiol, <em>p</em>-amino-;4-Aminobenzenethiol;4-Mercaptoaniline;<em>p</em>-Aminothiophenol;<em>p</em>-Aminobenzenethiol;<em>p</em>-Aminophenyl mercaptan;4-Aminothiophenol;<em>p</em>-Mercaptoaniline;4-Mercaptobenzenamine;<em>p</em>-Aminophenylthiol",
    "duplicated_cas_no": "",
    "SMILES": "NC1=CC=C(S)C=C1",
    "meta_data": {
        "InChI": "InChI=1S/C6H7NS/c7-5-1-3-6(8)4-2-5/h1-4,8H,7H2",
        "InChIKey": null,
        "Canonical SMILES": "SC1=CC=C(N)C=C1",
        "Molecular Formula": "C<sub>6</sub>H<sub>7</sub>NS",
        "Molecular Mass": "125.19",
        "Boiling Point": "143 °C",
        "Melting Point": "46 °C",
        "Density": "1.18 g/cm³ (solid)"
    }
}