{
    "cas_no": "4421-08-3",
    "key_name": "4-Hydroxy-3-methoxybenzonitrile",
    "cn_name": "4-羟基-3-甲氧基苯甲腈;3-甲氧基-4-羟基苯甲腈;",
    "alternate_name": "Benzonitrile, 4-hydroxy-3-methoxy-;Vanillonitrile;4-Hydroxy-3-methoxybenzonitrile;3-Methoxy-4-hydroxybenzonitrile;4-Cyano-2-methoxyphenol;2-Methoxy-4-cyanophenol;NSC 158285;4-Hydroxy-5-methoxybenzonitrile",
    "duplicated_cas_no": "",
    "SMILES": "O(C)C1=CC(C#N)=CC=C1O",
    "meta_data": {
        "InChI": "InChI=1S/C8H7NO2/c1-11-8-4-6(5-9)2-3-7(8)10/h2-4,10H,1H3",
        "InChIKey": null,
        "Canonical SMILES": "N#CC1=CC=C(O)C(OC)=C1",
        "Molecular Formula": "C<sub>8</sub>H<sub>7</sub>NO<sub>2</sub>",
        "Molecular Mass": "149.15",
        "Melting Point": "86 °C"
    }
}