{
    "cas_no": "8004-13-5",
    "key_name": "1,1′-Biphenyl, mixt. with 1,1′-oxybis[benzene]",
    "cn_name": null,
    "alternate_name": "1,1′-Biphenyl, mixt. with 1,1′-oxybis[benzene];Benzene, 1,1′-oxybis-, mixt. contg.;Dowtherm;Dinil;Dowtherm A;Biphenyl-diphenyl ether mixture;Biphenyl-phenyl ether mixture;Dinyl;Diphyl;Therminol VP;Therminol VP 1",
    "duplicated_cas_no": "16282-57-8;37272-02-9",
    "SMILES": "O(C1=CC=CC=C1)C2=CC=CC=C2.C1(=CC=CC=C1)C2=CC=CC=C2",
    "meta_data": {
        "InChI": "InChI=1S/C12H10O.C12H10/c1-3-7-11(8-4-1)13-12-9-5-2-6-10-12;1-3-7-11(8-4-1)12-9-5-2-6-10-12/h1-10H;1-10H",
        "InChIKey": null,
        "Canonical SMILES": "O(C=1C=CC=CC1)C=2C=CC=CC2.C=1C=CC(=CC1)C=2C=CC=CC2",
        "Molecular Formula": "C<sub>12</sub>H<sub>10</sub>O.C<sub>12</sub>H<sub>10</sub>",
        "Molecular Mass": "",
        "Boiling Point": "257 °C",
        "Melting Point": "12.2 °C",
        "Density": "1.06 g/cm³ @ Temp: 25 °C"
    }
}