{
    "cas_no": "58139-59-6",
    "key_name": "2,2′-Diamino-4,4′-bithiazole",
    "cn_name": null,
    "alternate_name": "[4,4′-Bithiazole]-2,2′-diamine;4,4′-Bithiazole, 2,2′-diamino-;2,2′-Diamino-4,4′-bithiazole;2,2′-Diamino-4,4′-bi-1,3-thiazole;2,2′-Diamino-4,4′-bis(1,3-thiazole)",
    "duplicated_cas_no": "368423-60-3;190516-19-9",
    "SMILES": "NC1=NC(=CS1)C=2N=C(N)SC2",
    "meta_data": {
        "InChI": "InChI=1S/C6H6N4S2/c7-5-9-3(1-11-5)4-2-12-6(8)10-4/h1-2H,(H2,7,9)(H2,8,10)",
        "InChIKey": null,
        "Canonical SMILES": "N1=C(SC=C1C=2N=C(SC2)N)N",
        "Molecular Formula": "C<sub>6</sub>H<sub>6</sub>N<sub>4</sub>S<sub>2</sub>",
        "Molecular Mass": "198.27",
        "Melting Point": "237-240 °C (decomp)"
    }
}