{
    "cas_no": "31676-54-7",
    "key_name": "5-Phenyl-3-pyridinamine",
    "cn_name": null,
    "alternate_name": "3-Pyridinamine, 5-phenyl-;Pyridine, 3-amino-5-phenyl-;5-Phenyl-3-pyridinamine;3-Amino-5-phenylpyridine;5-Phenylpyridin-3-amine",
    "duplicated_cas_no": "",
    "SMILES": "NC1=CC(=CN=C1)C2=CC=CC=C2",
    "meta_data": {
        "InChI": "InChI=1S/C11H10N2/c12-11-6-10(7-13-8-11)9-4-2-1-3-5-9/h1-8H,12H2",
        "InChIKey": null,
        "Canonical SMILES": "N1=CC(N)=CC(=C1)C=2C=CC=CC2",
        "Molecular Formula": "C<sub>11</sub>H<sub>10</sub>N<sub>2</sub>",
        "Molecular Mass": "170.21",
        "Melting Point": "136-137 °C"
    }
}