{
    "cas_no": "18110-87-7",
    "key_name": "4,5-Dimethoxycanthin-6-one",
    "cn_name": null,
    "alternate_name": "6<em>H</em>-Indolo[3,2,1-<em>de</em>][1,5]naphthyridin-6-one, 4,5-dimethoxy-;4,5-Dimethoxy-6<em>H</em>-indolo[3,2,1-<em>de</em>][1,5]naphthyridin-6-one;<em>O</em>-Methylnigakinone;4,5-Dimethoxycanthin-6-one;Methylnigakinone;4,5-Dimethoxy-β-canthin-6-one",
    "duplicated_cas_no": "",
    "SMILES": "O=C1N2C=3C(C=4C2=CC=CC4)=CC=NC3C(OC)=C1OC",
    "meta_data": {
        "InChI": "InChI=1S/C16H12N2O3/c1-20-14-12-13-10(7-8-17-12)9-5-3-4-6-11(9)18(13)16(19)15(14)21-2/h3-8H,1-2H3",
        "InChIKey": null,
        "Canonical SMILES": "O=C1C(OC)=C(OC)C2=NC=CC=3C4=CC=CC=C4N1C23",
        "Molecular Formula": "C<sub>16</sub>H<sub>12</sub>N<sub>2</sub>O<sub>3</sub>",
        "Molecular Mass": "280.28",
        "Melting Point": "145-146 °C"
    }
}