{
    "cas_no": "1689-64-1",
    "key_name": "Fluoren-9-ol",
    "cn_name": null,
    "alternate_name": "9<em>H</em>-Fluoren-9-ol;Fluoren-9-ol;9-Hydroxyfluorene;9-Hydroxy-9<em>H</em>-fluorene;9-Fluorenyl alcohol;NSC 5320",
    "duplicated_cas_no": "",
    "SMILES": "OC1C=2C(C=3C1=CC=CC3)=CC=CC2",
    "meta_data": {
        "InChI": "InChI=1S/C13H10O/c14-13-11-7-3-1-5-9(11)10-6-2-4-8-12(10)13/h1-8,13-14H",
        "InChIKey": null,
        "Canonical SMILES": "OC1C=2C=CC=CC2C=3C=CC=CC31",
        "Molecular Formula": "C<sub>13</sub>H<sub>10</sub>O",
        "Molecular Mass": "182.22",
        "Melting Point": "153.5 °C"
    }
}