{
    "cas_no": "90-05-1",
    "key_name": "Guaiacol",
    "cn_name": "愈创木酚;邻甲氧基苯酚;",
    "alternate_name": "Phenol, 2-methoxy-;Phenol, <em>o</em>-methoxy-;2-Methoxyphenol;Guaiacol;<em>o</em>-Hydroxyanisole;<em>o</em>-Methoxyphenol;Pyroguaiac acid;2-Hydroxyanisole;1-Hydroxy-2-methoxybenzene;<em>O</em>-Methyl catechol;Anastil;Guaiastil;<em>o</em>-Guaiacol;Pyrocatechol monomethyl ether;Methylcatechol;NSC 3815;2-Methoxyl-4-vinylphenol;MeSH ID: D006139",
    "duplicated_cas_no": "",
    "SMILES": "O(C)C1=C(O)C=CC=C1",
    "meta_data": {
        "InChI": "InChI=1S/C7H8O2/c1-9-7-5-3-2-4-6(7)8/h2-5,8H,1H3",
        "InChIKey": null,
        "Canonical SMILES": "OC=1C=CC=CC1OC",
        "Molecular Formula": "C<sub>7</sub>H<sub>8</sub>O<sub>2</sub>",
        "Molecular Mass": "124.14",
        "Boiling Point": "204-206 °C",
        "Melting Point": "32 °C",
        "Density": "1.1287 g/cm³ @ Temp: 21 °C"
    }
}