{
    "cas_no": "91-97-4",
    "key_name": "3,3′-Dimethylbiphenyl 4,4′-diisocyanate",
    "cn_name": "二甲基联苯二异氰酸酯;3,3\"-二甲基-4,4\"-联苯二异氰酸酯;邻联甲苯二异氰酸酯;",
    "alternate_name": "1,1′-Biphenyl, 4,4′-diisocyanato-3,3′-dimethyl-;Isocyanic acid, 3,3′-dimethyl-4,4′-biphenylylene ester;4,4′-Diisocyanato-3,3′-dimethyl-1,1′-biphenyl;Bitolylene diisocyanate;3,3′-Dimethyl-4,4′-biphenylylene diisocyanate;Nacconate 200;3,3′-Dimethylbiphenyl 4,4′-diisocyanate;4,4′-Diisocyanato-3,3′-bitolyl;3,3′-Bitolylene-4,4′-diisocyanate;3,3′-Dimethyl-4,4′-biphenylene isocyanate;3,3′-Dimethyl-4,4′-diphenylene diisocyanate;4,4′-Diisocyanato-3,3′-dimethylbiphenyl;NSC 9599;<em>o</em>-Tolidine diisocyanate;4,4′-Diisocyanato-3,3-dimethylbiphenyl;3,3′-Dimethyl-4,4′-diisocyanatobiphenyl;TODI;4,4′-Diisocyanato-3,3′-dimethyldiphenyl;3,3′-Dimethyl-4,4′-biphenylene diisocyanate;1-Isocyanato-4-(4-isocyanato-3-methylphenyl)-2-methylbenzene",
    "duplicated_cas_no": "119684-28-5;137534-82-8",
    "SMILES": "CC=1C=C(C=CC1N=C=O)C2=CC(C)=C(N=C=O)C=C2",
    "meta_data": {
        "InChI": "InChI=1S/C16H12N2O2/c1-11-7-13(3-5-15(11)17-9-19)14-4-6-16(18-10-20)12(2)8-14/h3-8H,1-2H3",
        "InChIKey": null,
        "Canonical SMILES": "O=C=NC=1C=CC(=CC1C)C2=CC=C(N=C=O)C(=C2)C",
        "Molecular Formula": "C<sub>16</sub>H<sub>12</sub>N<sub>2</sub>O<sub>2</sub>",
        "Molecular Mass": "264.28",
        "Melting Point": "69.5-70.5 °C"
    }
}