{
    "cas_no": "85098-64-2",
    "key_name": "4-(Phenylamino)-1-(phenylmethyl)-4-piperidinecarboxylic acid",
    "cn_name": "1-苄基-4-(苯胺基)哌啶-4-羧酸;",
    "alternate_name": "4-Piperidinecarboxylic acid, 4-(phenylamino)-1-(phenylmethyl)-;4-(Phenylamino)-1-(phenylmethyl)-4-piperidinecarboxylic acid;NSC 73748;1-Benzyl-4-(phenylamino)piperidine-4-carboxylic acid;4-Anilino-1-benzylpiperidine-4-carboxylic acid",
    "duplicated_cas_no": "",
    "SMILES": "N(C1(C(O)=O)CCN(CC2=CC=CC=C2)CC1)C3=CC=CC=C3",
    "meta_data": {
        "InChI": "InChI=1S/C19H22N2O2/c22-18(23)19(20-17-9-5-2-6-10-17)11-13-21(14-12-19)15-16-7-3-1-4-8-16/h1-10,20H,11-15H2,(H,22,23)",
        "InChIKey": null,
        "Canonical SMILES": "O=C(O)C1(NC=2C=CC=CC2)CCN(CC=3C=CC=CC3)CC1",
        "Molecular Formula": "C<sub>19</sub>H<sub>22</sub>N<sub>2</sub>O<sub>2</sub>",
        "Molecular Mass": "310.39",
        "Melting Point": "243-245 °C"
    }
}