{
    "cas_no": "66648-50-8",
    "key_name": "Ethyl trans-caffeate",
    "cn_name": null,
    "alternate_name": "2-Propenoic acid, 3-(3,4-dihydroxyphenyl)-, ethyl ester, (2<em>E</em>)-;2-Propenoic acid, 3-(3,4-dihydroxyphenyl)-, ethyl ester, (<em>E</em>)-;Ethyl <em>trans</em>-caffeate;<em>trans</em>-Caffeic acid ethyl ester;<em>trans</em>-Caffeoyl ethyl ester;Ethyl trans-caffeate;(<em>E</em>)-Caffeic acid ethyl ester;Ethyl caffeate;Ethyl(E)-3-(3,4-dihydroxyphenyl)acrylate",
    "duplicated_cas_no": "",
    "SMILES": "C(=C/C(OCC)=O)\\C1=CC(O)=C(O)C=C1",
    "meta_data": {
        "InChI": "InChI=1S/C11H12O4/c1-2-15-11(14)6-4-8-3-5-9(12)10(13)7-8/h3-7,12-13H,2H2,1H3/b6-4+",
        "InChIKey": null,
        "Canonical SMILES": "O=C(OCC)C=CC1=CC=C(O)C(O)=C1",
        "Molecular Formula": "C<sub>11</sub>H<sub>12</sub>O<sub>4</sub>",
        "Molecular Mass": "208.21",
        "Boiling Point": "148-149 °C",
        "Melting Point": "147-148 °C"
    }
}