{
    "cas_no": "93-61-8",
    "key_name": "<em>N</em>-Methylformanilide",
    "cn_name": "N-甲基甲酰苯胺;N-甲基-N-苯基甲酰胺;",
    "alternate_name": "Formamide, <em>N</em>-methyl-<em>N</em>-phenyl-;Formanilide, <em>N</em>-methyl-;<em>N</em>-Methyl-<em>N</em>-phenylformamide;<em>N</em>-Methylformanilide;<em>N</em>-Methyl-<em>N</em>-formylaniline;<em>N</em>-Formyl-<em>N</em>-methylaniline;<em>N</em>-Phenyl-<em>N</em>-methylformamide;Methylphenylformamide;NSC 3828",
    "duplicated_cas_no": "",
    "SMILES": "N(C=O)(C)C1=CC=CC=C1",
    "meta_data": {
        "InChI": "InChI=1S/C8H9NO/c1-9(7-10)8-5-3-2-4-6-8/h2-7H,1H3",
        "InChIKey": null,
        "Canonical SMILES": "O=CN(C=1C=CC=CC1)C",
        "Molecular Formula": "C<sub>8</sub>H<sub>9</sub>NO",
        "Molecular Mass": "135.16",
        "Boiling Point": "243 °C",
        "Melting Point": "14.5 °C"
    }
}