{
    "cas_no": "61477-40-5",
    "key_name": "(3<em>R</em>)-3-Amino-1-butanol",
    "cn_name": null,
    "alternate_name": "1-Butanol, 3-amino-, (3<em>R</em>)-;1-Butanol, 3-amino-, (<em>R</em>)-;(3<em>R</em>)-3-Amino-1-butanol;(<em>R</em>)-3-Aminobutan-1-ol;(R)-3-Aminobutanol",
    "duplicated_cas_no": "",
    "SMILES": "C([C@@H](C)N)CO",
    "meta_data": {
        "InChI": "InChI=1S/C4H11NO/c1-4(5)2-3-6/h4,6H,2-3,5H2,1H3/t4-/m1/s1",
        "InChIKey": null,
        "Canonical SMILES": "OCCC(N)C",
        "Molecular Formula": "C<sub>4</sub>H<sub>11</sub>NO",
        "Molecular Mass": "89.14",
        "Boiling Point": "51-53 °C @ Press: 3 mmHg"
    }
}