{
    "cas_no": "68406-26-8",
    "key_name": "Ginsenoside Rb<sub>3</sub>",
    "cn_name": "人参皂甙Rb3;",
    "alternate_name": "β-<span class=\"text-smallcaps\">D</smallcap>-Glucopyranoside, (3β,12β)-3-[(2-<em>O</em>-β-<smallcap>D</smallcap>-glucopyranosyl-β-<smallcap>D</smallcap>-glucopyranosyl)oxy]-12-hydroxydammar-24-en-20-yl 6-<em>O</em>-β-<smallcap>D</span>-xylopyranosyl-;Dammarane, β-<span class=\"text-smallcaps\">D</span>-glucopyranoside deriv.;(3β,12β)-3-[(2-<em>O</em>-β-<span class=\"text-smallcaps\">D</smallcap>-Glucopyranosyl-β-<smallcap>D</smallcap>-glucopyranosyl)oxy]-12-hydroxydammar-24-en-20-yl 6-<em>O</em>-β-<smallcap>D</smallcap>-xylopyranosyl-β-<smallcap>D</span>-glucopyranoside;Ginsenoside Rb<sub>3</sub>;Gypenoside IV;RB 3",
    "duplicated_cas_no": "87710-97-2;2412536-51-5",
    "SMILES": "C[C@]12[C@@]3(C)[C@@]([C@@]([C@@](O[C@@H]4O[C@H](CO[C@H]5[C@H](O)[C@@H](O)[C@H](O)CO5)[C@@H](O)[C@H](O)[C@H]4O)(CCC=C(C)C)C)(CC3)[H])([C@H](O)C[C@@]1([C@]6(C)[C@@](CC2)(C(C)(C)[C@@H](O[C@H]7[C@H](O[C@@H]8O[C@H](CO)[C@@H](O)[C@H](O)[C@H]8O)[C@@H](O)[C@H](O)[C@@H](CO)O7)CC6)[H])[H])[H]",
    "meta_data": {
        "InChI": "InChI=1S/C53H90O22/c1-23(2)10-9-14-53(8,75-47-43(67)39(63)37(61)29(72-47)22-69-45-41(65)34(58)26(57)21-68-45)24-11-16-52(7)33(24)25(56)18-31-50(5)15-13-32(49(3,4)30(50)12-17-51(31,52)6)73-48-44(40(64)36(60)28(20-55)71-48)74-46-42(66)38(62)35(59)27(19-54)70-46/h10,24-48,54-67H,9,11-22H2,1-8H3/t24-,25+,26+,27+,28+,29+,30-,31+,32-,33-,34-,35+,36+,37+,38-,39-,40-,41+,42+,43+,44+,45-,46-,47-,48-,50-,51+,52+,53-/m0/s1",
        "InChIKey": null,
        "Canonical SMILES": "OCC1OC(OC2C(O)C(O)C(OC2OC3CCC4(C)C(CCC5(C)C4CC(O)C6C(CCC65C)C(OC7OC(COC8OCC(O)C(O)C8O)C(O)C(O)C7O)(C)CCC=C(C)C)C3(C)C)CO)C(O)C(O)C1O",
        "Molecular Formula": "C<sub>53</sub>H<sub>90</sub>O<sub>22</sub>",
        "Molecular Mass": "1079.27",
        "Melting Point": "193-195 °C"
    }
}