{
    "cas_no": "17362-17-3",
    "key_name": "4-Hydroxybenzenepropanenitrile",
    "cn_name": "3-(4-羟基苯基)丙酸;",
    "alternate_name": "Benzenepropanenitrile, 4-hydroxy-;Hydrocinnamonitrile, <em>p</em>-hydroxy-;4-Hydroxybenzenepropanenitrile;<em>p</em>-(2-Cyanoethyl)phenol;3-(4-Hydroxyphenyl)propionitrile;4-(2-Cyanoethyl)phenol;4-Hydroxyhydrocinnamonitrile;3-(<em>p</em>-Hydroxyphenyl)propionitrile;β-(<em>p</em>-Hydroxyphenyl)propionitrile;β-(4-Hydroxyphenyl)propionitrile;NSC 163340;3-(4-Hydroxyphenyl)propanenitrile",
    "duplicated_cas_no": "",
    "SMILES": "C(CC#N)C1=CC=C(O)C=C1",
    "meta_data": {
        "InChI": "InChI=1S/C9H9NO/c10-7-1-2-8-3-5-9(11)6-4-8/h3-6,11H,1-2H2",
        "InChIKey": null,
        "Canonical SMILES": "N#CCCC1=CC=C(O)C=C1",
        "Molecular Formula": "C<sub>9</sub>H<sub>9</sub>NO",
        "Molecular Mass": "147.17",
        "Boiling Point": "157-163 °C @ Press: 1 Torr",
        "Melting Point": "58-59 °C"
    }
}