{
    "cas_no": "118864-75-8",
    "key_name": "(+)-1-Phenyl-1,2,3,4-tetrahydroisoquinoline",
    "cn_name": "(S)-1-苯基-1,2,3,4-四氢异喹啉;",
    "alternate_name": "Isoquinoline, 1,2,3,4-tetrahydro-1-phenyl-, (1<em>S</em>)-;Isoquinoline, 1,2,3,4-tetrahydro-1-phenyl-, (<em>S</em>)-;(1<em>S</em>)-1,2,3,4-Tetrahydro-1-phenylisoquinoline;(<em>S</em>)-1-Phenyl-1,2,3,4-tetrahydroisoquinoline;(1<em>S</em>)-1-Phenyl-1,2,3,4-tetrahydroisoquinoline;(+)-1-Phenyl-1,2,3,4-tetrahydroisoquinoline;(<em>S</em>)-(+)-1-Phenyl-1,2,3,4-tetrahydroisoquinoline;(1S)-1-Phenyl-1,2,3,4-tetrahydroisoquinoline;(-)-(<em>S</em>)-1-Phenyl-1,2,3,4-tetrahydroisoquinoline;(<em>S</em>)-1,2,3,4-Tetrahydro-1-phenylisoquinoline",
    "duplicated_cas_no": "",
    "SMILES": "[C@@H]1(C=2C(CCN1)=CC=CC2)C3=CC=CC=C3",
    "meta_data": {
        "InChI": "InChI=1S/C15H15N/c1-2-7-13(8-3-1)15-14-9-5-4-6-12(14)10-11-16-15/h1-9,15-16H,10-11H2/t15-/m0/s1",
        "InChIKey": null,
        "Canonical SMILES": "C=1C=CC(=CC1)C2NCCC=3C=CC=CC32",
        "Molecular Formula": "C<sub>15</sub>H<sub>15</sub>N",
        "Molecular Mass": "209.29",
        "Melting Point": "80-82 °C"
    }
}