{
    "cas_no": "100-14-1",
    "key_name": "4-Nitrobenzyl chloride",
    "cn_name": "1-(氯甲基)-4-硝基苯;对硝基氯化苄;",
    "alternate_name": "Benzene, 1-(chloromethyl)-4-nitro-;Toluene, α-chloro-<em>p</em>-nitro-;1-(Chloromethyl)-4-nitrobenzene;α-Chloro-<em>p</em>-nitrotoluene;<em>p</em>-Nitrobenzyl chloride;4-(Chloromethyl)nitrobenzene;4-Nitrobenzyl chloride;<em>p</em>-(Chloromethyl)nitrobenzene;α-Chloro-4-nitrotoluene;4-Nitrophenylmethyl chloride;4-Chloromethyl-1-nitrobenzene;NSC 9803",
    "duplicated_cas_no": "",
    "SMILES": "N(=O)(=O)C1=CC=C(CCl)C=C1",
    "meta_data": {
        "InChI": "InChI=1S/C7H6ClNO2/c8-5-6-1-3-7(4-2-6)9(10)11/h1-4H,5H2",
        "InChIKey": null,
        "Canonical SMILES": "O=N(=O)C1=CC=C(C=C1)CCl",
        "Molecular Formula": "C<sub>7</sub>H<sub>6</sub>ClNO<sub>2</sub>",
        "Molecular Mass": "171.58",
        "Boiling Point": "71-72 °C",
        "Melting Point": "71 °C"
    }
}