{
    "cas_no": "3001-72-7",
    "key_name": "1,5-Diazabicyclo[4.3.0]non-5-ene",
    "cn_name": "1,5-二氮杂双环[4.3.0]壬-5-烯;",
    "alternate_name": "Pyrrolo[1,2-<em>a</em>]pyrimidine, 2,3,4,6,7,8-hexahydro-;2,3,4,6,7,8-Hexahydropyrrolo[1,2-<em>a</em>]pyrimidine;DBN;DBN (heterocycle);1,5-Diazabicyclo[4.3.0]non-5-ene;1,5-Diazobicyclo[4.3.0]non-5-ene;NSC 118106;NBU;1,5-Diazabicyclo[4.3.0]nonene-5;D 1313;WS-A 201;2<em>H</em>,3<em>H</em>,4<em>H</em>,6<em>H</em>,7<em>H</em>,8<em>H</em>-Pyrrolo[1,2-<em>a</em>]pyrimidine;KPH-MN 2001;PC Cat DBN",
    "duplicated_cas_no": "25986-32-7;312727-86-9;2000224-92-8;2173149-14-7",
    "SMILES": "C1=2N(CCC1)CCCN2",
    "meta_data": {
        "InChI": "InChI=1S/C7H12N2/c1-3-7-8-4-2-6-9(7)5-1/h1-6H2",
        "InChIKey": null,
        "Canonical SMILES": "N1=C2N(CCC1)CCC2",
        "Molecular Formula": "C<sub>7</sub>H<sub>12</sub>N<sub>2</sub>",
        "Molecular Mass": "124.18",
        "Boiling Point": "97-99 °C @ Press: 11 Torr"
    }
}