{
    "cas_no": "473-08-5",
    "key_name": "(+)-α-Cyperone",
    "cn_name": "alpha-香附酮;(4aS,7R)-1,4a-二甲基-7-丙-1-烯-2-基-3,4,5,6,7,8-六氢萘-2-酮;",
    "alternate_name": "2(3<em>H</em>)-Naphthalenone, 4,4a,5,6,7,8-hexahydro-1,4a-dimethyl-7-(1-methylethenyl)-, (4a<em>S</em>,7<em>R</em>)-;α-Cyperone;Eudesma-4,11-dien-3-one;2(3<em>H</em>)-Naphthalenone, 4,4a,5,6,7,8-hexahydro-1,4a-dimethyl-7-(1-methylethenyl)-, (4a<em>S</em>-<em>cis</em>)-;(4a<em>S</em>,7<em>R</em>)-4,4a,5,6,7,8-Hexahydro-1,4a-dimethyl-7-(1-methylethenyl)-2(3<em>H</em>)-naphthalenone;α-Cyperone, (+)-;(+)-α-Cyperone",
    "duplicated_cas_no": "",
    "SMILES": "C[C@]12C(C[C@H](C(C)=C)CC1)=C(C)C(=O)CC2",
    "meta_data": {
        "InChI": "InChI=1S/C15H22O/c1-10(2)12-5-7-15(4)8-6-14(16)11(3)13(15)9-12/h12H,1,5-9H2,2-4H3/t12-,15+/m1/s1",
        "InChIKey": null,
        "Canonical SMILES": "O=C1C(=C2CC(C(=C)C)CCC2(C)CC1)C",
        "Molecular Formula": "C<sub>15</sub>H<sub>22</sub>O",
        "Molecular Mass": "218.33",
        "Boiling Point": "177 °C @ Press: 20 Torr",
        "Melting Point": "232 °C",
        "Density": "0.9946 g/cm³ @ Temp: 25 °C"
    }
}