{
    "cas_no": "6033-23-4",
    "key_name": "(+)-2-Heptanol",
    "cn_name": "(S)-(+)-2-庚醇;",
    "alternate_name": "2-Heptanol, (2<em>S</em>)-;2-Heptanol, (+)-;2-Heptanol, (<em>S</em>)-;(2<em>S</em>)-2-Heptanol;<em>d</em>-Amylmethylcarbinol;<em>d</em>-2-Heptanol;<em>d</em>-2-Hydroxyheptane;(+)-2-Heptanol;(<em>S</em>)-2-Heptanol;(<em>S</em>)-(+)-2-Heptanol;(2S)-Heptan-2-ol",
    "duplicated_cas_no": "",
    "SMILES": "C(CCCC)[C@H](C)O",
    "meta_data": {
        "InChI": "InChI=1S/C7H16O/c1-3-4-5-6-7(2)8/h7-8H,3-6H2,1-2H3/t7-/m0/s1",
        "InChIKey": null,
        "Canonical SMILES": "OC(C)CCCCC",
        "Molecular Formula": "C<sub>7</sub>H<sub>16</sub>O",
        "Molecular Mass": "116.20",
        "Boiling Point": "157.0-159.5 °C",
        "Density": "0.835 g/cm³ @ Temp: 25 °C"
    }
}