{
    "cas_no": "4250-81-1",
    "key_name": "1-Pentyn-1-ylbenzene",
    "cn_name": null,
    "alternate_name": "Benzene, 1-pentyn-1-yl-;1-Pentyne, 1-phenyl-;Benzene, 1-pentynyl-;1-Pentyn-1-ylbenzene;1-Phenyl-1-pentyne;1-Phenyl-2-propylacetylene;Phenylpropylacetylene;1-Pentynylbenzene;Pent-1-yn-1-ylbenzene",
    "duplicated_cas_no": "",
    "SMILES": "C(#CCCC)C1=CC=CC=C1",
    "meta_data": {
        "InChI": "InChI=1S/C11H12/c1-2-3-5-8-11-9-6-4-7-10-11/h4,6-7,9-10H,2-3H2,1H3",
        "InChIKey": null,
        "Canonical SMILES": "C(#CCCC)C=1C=CC=CC1",
        "Molecular Formula": "C<sub>11</sub>H<sub>12</sub>",
        "Molecular Mass": "144.21",
        "Boiling Point": "198-200 °C",
        "Density": "0.9138 g/cm³ @ Temp: 9 °C"
    }
}