{
    "cas_no": "7785-70-8",
    "key_name": "(1<em>R</em>)-α-Pinene",
    "cn_name": "蒎烯;(1R)-(+)-α蒎烯;(1R)-2,6,6-三甲基二环[3.3.1]庚-2-烯;",
    "alternate_name": "Bicyclo[3.1.1]hept-2-ene, 2,6,6-trimethyl-, (1<em>R</em>,5<em>R</em>)-;2-Pinene, (1<em>R</em>,5<em>R</em>)-(+)-;Bicyclo[3.1.1]hept-2-ene, 2,6,6-trimethyl-, (1<em>R</em>)-;(1<em>R</em>,5<em>R</em>)-2,6,6-Trimethylbicyclo[3.1.1]hept-2-ene;<em>d</em>-α-Pinene;(+)-(1<em>R</em>,5<em>R</em>)-α-Pinene;(+)-2-Pinene;(<em>R</em>)-(+)-α-Pinene;(1<em>R</em>,5<em>R</em>)-(+)-α-Pinene;(+)-α-Pinene;(1<em>R</em>)-(+)-α-Pinene;(+)-(1<em>R</em>)-α-Pinene;(1<em>R</em>)-α-Pinene;(1<em>R</em>)-2,6,6-Trimethylbicyclo[3.1.1]hept-2-ene;(1R,5R)-2,6,6-Trimethylbicyclo[3.1.1]hept-2-ene",
    "duplicated_cas_no": "",
    "SMILES": "CC1(C)[C@@]2(C[C@]1(CC=C2C)[H])[H]",
    "meta_data": {
        "InChI": "InChI=1S/C10H16/c1-7-4-5-8-6-9(7)10(8,2)3/h4,8-9H,5-6H2,1-3H3/t8-,9-/m1/s1",
        "InChIKey": null,
        "Canonical SMILES": "C1=C(C)C2CC(C1)C2(C)C",
        "Molecular Formula": "C<sub>10</sub>H<sub>16</sub>",
        "Molecular Mass": "136.23",
        "Boiling Point": "155.5 °C",
        "Melting Point": "-62 °C",
        "Density": "0.846158 g/cm³ @ Temp: 35.00 °C"
    }
}