{
    "cas_no": "1122-87-8",
    "key_name": "Piperidine, 4-ethoxy-, hydrochloride (1:1)",
    "cn_name": null,
    "alternate_name": "Piperidine, 4-ethoxy-, hydrochloride (1:1);Piperidine, 4-ethoxy-, hydrochloride;4-Ethoxypiperidine hydrochloride",
    "duplicated_cas_no": "",
    "SMILES": "O(CC)C1CCNCC1.Cl",
    "meta_data": {
        "InChI": "InChI=1S/C7H15NO.ClH/c1-2-9-7-3-5-8-6-4-7;/h7-8H,2-6H2,1H3;1H",
        "InChIKey": null,
        "Canonical SMILES": "Cl.O(CC)C1CCNCC1",
        "Molecular Formula": "C<sub>7</sub>H<sub>15</sub>NO.ClH",
        "Molecular Mass": "",
        "Melting Point": "145-147 °C"
    }
}