{
    "cas_no": "5448-47-5",
    "key_name": "Indole-3-acetic acid, hydrazide",
    "cn_name": "吲哚-3-乙酰肼;吲哚-3-乙酸肼;",
    "alternate_name": "1<em>H</em>-Indole-3-acetic acid, hydrazide;Indole-3-acetic acid, hydrazide;3-Indolylacetic acid hydrazide;NSC 17812;NSC 63799;Indole-3-acetylhydrazine;Indole-3-acetic hydrazide;(1<em>H</em>-Indol-3-yl)acetic acid hydrazide;Indole-3-acetohydrazide;2-(1<em>H</em>-Indol-3-yl)acetohydrazide",
    "duplicated_cas_no": "",
    "SMILES": "C(C(NN)=O)C=1C=2C(NC1)=CC=CC2",
    "meta_data": {
        "InChI": "InChI=1S/C10H11N3O/c11-13-10(14)5-7-6-12-9-4-2-1-3-8(7)9/h1-4,6,12H,5,11H2,(H,13,14)",
        "InChIKey": null,
        "Canonical SMILES": "O=C(NN)CC1=CNC=2C=CC=CC21",
        "Molecular Formula": "C<sub>10</sub>H<sub>11</sub>N<sub>3</sub>O",
        "Molecular Mass": "189.21",
        "Melting Point": "143-144 °C"
    }
}