{
    "cas_no": "4790-19-6",
    "key_name": "5,6-Bis(phenylmethoxy)-1<em>H</em>-indole",
    "cn_name": null,
    "alternate_name": "1<em>H</em>-Indole, 5,6-bis(phenylmethoxy)-;Indole, 5,6-bis(benzyloxy)-;5,6-Bis(phenylmethoxy)-1<em>H</em>-indole;5,6-Bis(benzyloxy)indole;5,6-Dibenzyloxyindole;NSC 83220",
    "duplicated_cas_no": "",
    "SMILES": "O(CC1=CC=CC=C1)C2=C(OCC3=CC=CC=C3)C=C4C(=C2)C=CN4",
    "meta_data": {
        "InChI": "InChI=1S/C22H19NO2/c1-3-7-17(8-4-1)15-24-21-13-19-11-12-23-20(19)14-22(21)25-16-18-9-5-2-6-10-18/h1-14,23H,15-16H2",
        "InChIKey": null,
        "Canonical SMILES": "O(C1=CC=2C=CNC2C=C1OCC=3C=CC=CC3)CC=4C=CC=CC4",
        "Molecular Formula": "C<sub>22</sub>H<sub>19</sub>NO<sub>2</sub>",
        "Molecular Mass": "329.39",
        "Melting Point": "114 °C"
    }
}