{
    "cas_no": "2436-29-5",
    "key_name": "3-Phthalimidopropionaldehyde",
    "cn_name": null,
    "alternate_name": "2<em>H</em>-Isoindole-2-propanal, 1,3-dihydro-1,3-dioxo-;Phthalimide, <em>N</em>-(2-formylethyl)-;1,3-Dihydro-1,3-dioxo-2<em>H</em>-isoindole-2-propanal;β-Phthalimidopropionaldehyde;3-Phthalimidopropionaldehyde;<em>N</em>-(2-Formylethyl)phthalimide;3-(1,3-Dioxo-1,3-dihydroisoindol-2-yl)propionaldehyde;NSC 166600;3-(1,3-Dioxo-1,3-dihydro-2<em>H</em>-isoindol-2-yl)propionaldehyde;2-(3-Oxopropyl)isoindole-1,3-dione;3-(1,3-Dioxo-1,3-dihydro-2<em>H</em>-isoindol-2-yl)propanal;<em>N</em>-(3-Oxopropyl)phthalimide;3-Phthalimidopropanal;3-(1,3-Dioxoisoindolin-2-yl)propanal;3-(1,3-Dioxo-2,3-dihydro-1<em>H</em>-isoindol-2-yl)propanal;3-(1,3-Dioxoisoindol-2-yl)propanal",
    "duplicated_cas_no": "872968-98-4",
    "SMILES": "O=C1C=2C(C(=O)N1CCC=O)=CC=CC2",
    "meta_data": {
        "InChI": "InChI=1S/C11H9NO3/c13-7-3-6-12-10(14)8-4-1-2-5-9(8)11(12)15/h1-2,4-5,7H,3,6H2",
        "InChIKey": null,
        "Canonical SMILES": "O=CCCN1C(=O)C=2C=CC=CC2C1=O",
        "Molecular Formula": "C<sub>11</sub>H<sub>9</sub>NO<sub>3</sub>",
        "Molecular Mass": "203.19",
        "Melting Point": "119-120 °C"
    }
}