{
    "cas_no": "115-99-1",
    "key_name": "Linalool formate",
    "cn_name": "3,7-二甲基-1,6-辛二烯-3-醇甲酸酯;",
    "alternate_name": "1,6-Octadien-3-ol, 3,7-dimethyl-, 3-formate;1,6-Octadien-3-ol, 3,7-dimethyl-, formate;Linalool formate;Linalyl formate;NSC 46116;3,7-Dimethyl-1,6-octadien-3-ol formate;3,7-Dimethylocta-1,6-dien-3-yl formate;3,7-Dimethyl-1,6-octadien-3-yl formate",
    "duplicated_cas_no": "1219134-10-7",
    "SMILES": "C(CCC=C(C)C)(OC=O)(C=C)C",
    "meta_data": {
        "InChI": "InChI=1S/C11H18O2/c1-5-11(4,13-9-12)8-6-7-10(2)3/h5,7,9H,1,6,8H2,2-4H3",
        "InChIKey": null,
        "Canonical SMILES": "O=COC(C=C)(C)CCC=C(C)C",
        "Molecular Formula": "C<sub>11</sub>H<sub>18</sub>O<sub>2</sub>",
        "Molecular Mass": "182.26",
        "Boiling Point": "41-42 °C @ Press: 0.3 Torr"
    }
}