{
    "cas_no": "25013-16-5",
    "key_name": "<em>tert</em>-Butylhydroxyanisole",
    "cn_name": null,
    "alternate_name": "Phenol, (1,1-dimethylethyl)-4-methoxy-;Phenol, <em>tert</em>-butyl-4-methoxy-;(1,1-Dimethylethyl)-4-methoxyphenol;Butylated hydroxyanisole;BHA;Butylhydroxyanisole;<em>tert</em>-Butylhydroxyanisole;<em>tert</em>-Butyl-4-hydroxyanisole;Antioxyne B;Embanox;Protex;<em>tert</em>-Butyl-<em>p</em>-hydroxyanisole;Sustane 1F;<em>tert</em>-Butyl-4-methoxyphenol;2(3)-<em>tert</em>-Butyl-4-hydroxyanisole;Tenox BHA;BOA (antioxidant);BOA;BHA (antioxidant);E 320;Grindox BHA;<em>tert</em>-Butyl-<em>p</em>-Hydroxyanisol;MeSH ID: D002083",
    "duplicated_cas_no": "1336-31-8;8003-24-5;8041-81-4;9009-68-1;37349-77-2;56587-66-7;57534-28-8",
    "SMILES": "",
    "meta_data": {
        "InChI": "",
        "InChIKey": null,
        "Canonical SMILES": "",
        "Molecular Formula": "C<sub>11</sub>H<sub>16</sub>O<sub>2</sub>",
        "Molecular Mass": "",
        "Boiling Point": "264-270 °C @ Press: 733 Torr",
        "Melting Point": "48-55 °C"
    }
}