{
    "cas_no": "336-50-5",
    "key_name": "1,1,2,2-Tetrachloro-3,3,4,4-tetrafluorocyclobutane",
    "cn_name": "1,1,2,2-四氯四氟环丁烷;",
    "alternate_name": "Cyclobutane, 1,1,2,2-tetrachloro-3,3,4,4-tetrafluoro-;1,1,2,2-Tetrachloro-3,3,4,4-tetrafluorocyclobutane;1,1,2,2-Tetrachlorotetrafluorocyclobutane;NSC 158685",
    "duplicated_cas_no": "",
    "SMILES": "ClC1(Cl)C(Cl)(Cl)C(F)(F)C1(F)F",
    "meta_data": {
        "InChI": "InChI=1S/C4Cl4F4/c5-1(6)2(7,8)4(11,12)3(1,9)10",
        "InChIKey": null,
        "Canonical SMILES": "FC1(F)C(F)(F)C(Cl)(Cl)C1(Cl)Cl",
        "Molecular Formula": "C<sub>4</sub>Cl<sub>4</sub>F<sub>4</sub>",
        "Molecular Mass": "265.85",
        "Melting Point": "83.2-83.5 °C"
    }
}