{
    "cas_no": "508-75-8",
    "key_name": "Convallatoxin",
    "cn_name": null,
    "alternate_name": "Card-20(22)-enolide, 3-[(6-deoxy-α-<span class=\"text-smallcaps\">L</span>-mannopyranosyl)oxy]-5,14-dihydroxy-19-oxo-, (3β,5β)-;Convallatoxin;(3β,5β)-3-[(6-Deoxy-α-<span class=\"text-smallcaps\">L</span>-mannopyranosyl)oxy]-5,14-dihydroxy-19-oxocard-20(22)-enolide;Convallaton;Corglykon;Korglykon;Convallatoxoside;Convallaotoxin;Corglycone;Convallotoxin;Corglycon;Convallatoxine;Strophanthidin α-<span class=\"text-smallcaps\">L</span>-rhamnoside;NSC 407808",
    "duplicated_cas_no": "12798-24-2",
    "SMILES": "C(=O)[C@@]12[C@@]3([C@]([C@]4(O)[C@](C)(CC3)[C@H](CC4)C5=CC(=O)OC5)(CC[C@]1(O)C[C@@H](O[C@H]6[C@H](O)[C@H](O)[C@@H](O)[C@H](C)O6)CC2)[H])[H]",
    "meta_data": {
        "InChI": "InChI=1S/C29H42O10/c1-15-22(32)23(33)24(34)25(38-15)39-17-3-8-27(14-30)19-4-7-26(2)18(16-11-21(31)37-13-16)6-10-29(26,36)20(19)5-9-28(27,35)12-17/h11,14-15,17-20,22-25,32-36H,3-10,12-13H2,1-2H3/t15-,17-,18+,19-,20+,22-,23+,24+,25-,26+,27-,28-,29-/m0/s1",
        "InChIKey": null,
        "Canonical SMILES": "O=CC12CCC(OC3OC(C)C(O)C(O)C3O)CC2(O)CCC4C1CCC5(C)C(C6=CC(=O)OC6)CCC45O",
        "Molecular Formula": "C<sub>29</sub>H<sub>42</sub>O<sub>10</sub>",
        "Molecular Mass": "550.64",
        "Melting Point": "235-242 °C"
    }
}