{
    "cas_no": "84852-53-9",
    "key_name": "Decabromodiphenylethane",
    "cn_name": "十溴二苯乙烷;",
    "alternate_name": "Benzene, 1,1′-(1,2-ethanediyl)bis[2,3,4,5,6-pentabromo-;1,1′-(1,2-Ethanediyl)bis[2,3,4,5,6-pentabromobenzene];1,2-Bis(pentabromophenyl)ethane;Decabromodiphenylethane;Decadiphenyl 8010;Saytex 8010;Planelon BDE;S 8010;1,2-Bis(2,3,4,5,6-pentabromophenyl)ethane;Firemaster 2100;Ethylenebis(pentabromobiphenyl);FCP 801;Ethylenebispentabromobenzene;RDT 3;CG 801;Bis(pentabromophenyl)ethane;Saytex 4010;F 8010;Yabao 8010;FR 105;FR 1410;RDT 3K;1,2-Bis(pentabromodiphenyl)ethane;DBDPE;HP 8010;1,2,3,4,5-Pentabromo-6-[2-(2,3,4,5,6-pentabromophenyl)ethyl]benzene;802A;Fire Cut FCP 801;Firemaster FM 2100R;FM 2100R;RTD 3;Firemaster 2100R;HT 106;SR 202 (flame retardant);SR 202;DTXSID2052732;FR 102WE;H 02NF;TY 202SX;Phlamoon 102",
    "duplicated_cas_no": "145054-64-4;2375505-65-8",
    "SMILES": "C(CC1=C(Br)C(Br)=C(Br)C(Br)=C1Br)C2=C(Br)C(Br)=C(Br)C(Br)=C2Br",
    "meta_data": {
        "InChI": "InChI=1S/C14H4Br10/c15-5-3(6(16)10(20)13(23)9(5)19)1-2-4-7(17)11(21)14(24)12(22)8(4)18/h1-2H2",
        "InChIKey": null,
        "Canonical SMILES": "BrC=1C(Br)=C(Br)C(=C(Br)C1Br)CCC=2C(Br)=C(Br)C(Br)=C(Br)C2Br",
        "Molecular Formula": "C<sub>14</sub>H<sub>4</sub>Br<sub>10</sub>",
        "Molecular Mass": "971.22",
        "Melting Point": "334-337 °C"
    }
}