{
    "cas_no": "1888-91-1",
    "key_name": "Acetylcaprolactam",
    "cn_name": "N-乙酰己内酰胺;",
    "alternate_name": "2<em>H</em>-Azepin-2-one, 1-acetylhexahydro-;1-Acetylhexahydro-2<em>H</em>-azepin-2-one;<em>N</em>-Acetylcaprolactam;<em>N</em>-Acetyl-ε-caprolactam;<em>N</em>-Acetyl-6-caprolactam;Acetylcaprolactam;1-Acetylhexahydroazepin-2-one;1-Acetylperhydro-2-azepinone;NSC 522408;Activator O;Aktivator O;1-Acetylazepan-2-one",
    "duplicated_cas_no": "",
    "SMILES": "C(C)(=O)N1C(=O)CCCCC1",
    "meta_data": {
        "InChI": "InChI=1S/C8H13NO2/c1-7(10)9-6-4-2-3-5-8(9)11/h2-6H2,1H3",
        "InChIKey": null,
        "Canonical SMILES": "O=C(N1C(=O)CCCCC1)C",
        "Molecular Formula": "C<sub>8</sub>H<sub>13</sub>NO<sub>2</sub>",
        "Molecular Mass": "155.19",
        "Boiling Point": "133-134 °C @ Press: 16 Torr",
        "Density": "1.0998 g/cm³ @ Temp: 20 °C"
    }
}