{
    "cas_no": "569-57-3",
    "key_name": "Chlorotrianisene",
    "cn_name": "氯烯雌醚;",
    "alternate_name": "Benzene, 1,1′,1′′-(1-chloro-1-ethenyl-2-ylidene)tris[4-methoxy-;Ethylene, chlorotris(<em>p</em>-methoxyphenyl)-;Chlorotrianisene;1,1′,1′′-(1-Chloro-1-ethenyl-2-ylidene)tris[4-methoxybenzene];Chlorotris(<em>p</em>-methoxyphenyl)ethylene;Tri-<em>p</em>-anisylchloroethylene;Tris(<em>p</em>-methoxyphenyl)chloroethylene;Merbentul;Tace;Hormonisene;Chlortrianizen;Khlortrianizen;Anisene;Clorestrolo;Clorotrisin;Metace;NSC 10108;Rianil;Trianisylchloroethylene;Tace (pharmaceutical)",
    "duplicated_cas_no": "13003-83-3",
    "SMILES": "C(=C(Cl)C1=CC=C(OC)C=C1)(C2=CC=C(OC)C=C2)C3=CC=C(OC)C=C3",
    "meta_data": {
        "InChI": "InChI=1S/C23H21ClO3/c1-25-19-10-4-16(5-11-19)22(17-6-12-20(26-2)13-7-17)23(24)18-8-14-21(27-3)15-9-18/h4-15H,1-3H3",
        "InChIKey": null,
        "Canonical SMILES": "ClC(C1=CC=C(OC)C=C1)=C(C2=CC=C(OC)C=C2)C3=CC=C(OC)C=C3",
        "Molecular Formula": "C<sub>23</sub>H<sub>21</sub>ClO<sub>3</sub>",
        "Molecular Mass": "380.86",
        "Melting Point": "114-116 °C"
    }
}