{
    "cas_no": "30830-27-4",
    "key_name": "3-Benzyloxycyclobutanone",
    "cn_name": null,
    "alternate_name": "Cyclobutanone, 3-(phenylmethoxy)-;Cyclobutanone, 3-(benzyloxy)-;3-(Phenylmethoxy)cyclobutanone;3-Benzyloxycyclobutanone;3-Benzyloxycyclobutan-1-one;3-(Phenylmethoxy)cyclobutan-1-one",
    "duplicated_cas_no": "",
    "SMILES": "O(CC1=CC=CC=C1)C2CC(=O)C2",
    "meta_data": {
        "InChI": "InChI=1S/C11H12O2/c12-10-6-11(7-10)13-8-9-4-2-1-3-5-9/h1-5,11H,6-8H2",
        "InChIKey": null,
        "Canonical SMILES": "O=C1CC(OCC=2C=CC=CC2)C1",
        "Molecular Formula": "C<sub>11</sub>H<sub>12</sub>O<sub>2</sub>",
        "Molecular Mass": "176.21",
        "Boiling Point": "123 °C @ Press: 4 Torr",
        "Density": "1.0896 g/cm³ @ Temp: 25 °C"
    }
}