{
    "cas_no": "3069-29-2",
    "key_name": "<em>N</em>-(β-Aminoethyl)-γ-aminopropylmethyldimethoxysilane",
    "cn_name": "N-氨乙基-3-氨丙基甲基二甲氧基硅烷;",
    "alternate_name": "1,2-Ethanediamine, <em>N</em><sup>1</sup>-[3-(dimethoxymethylsilyl)propyl]-;Ethylenediamine, <em>N</em>-[3-(dimethoxymethylsilyl)propyl]-;1,2-Ethanediamine, <em>N</em>-[3-(dimethoxymethylsilyl)propyl]-;<em>N</em><sup>1</sup>-[3-(Dimethoxymethylsilyl)propyl]-1,2-ethanediamine;<em>N</em>-[3-(Dimethoxymethylsilyl)propyl]ethylenediamine;[3-[(2-Aminoethyl)amino]propyl]methyldimethoxysilane;<em>N</em>-(2-Aminoethyl)-3-aminopropylmethyldimethoxysilane;<em>N</em>-(β-Aminoethyl)-γ-aminopropylmethyldimethoxysilane;Methyldimethoxy(β-aminoethyl-γ-aminopropyl)silane;<em>N</em>-[3-(Methyldimethoxysilyl)propyl]ethylenediamine;KBM 602;[3-[<em>N</em>-(2-Aminoethyl)amino]propyl]dimethoxymethylsilane;<em>N</em>-(2-Aminoethyl)-<em>N</em>-[3-(dimethoxymethylsilyl)propyl]amine;Sila-Ace S 310;SZ 6023;Dynasylan 1411;[(Aminoethylamino)propyl]methyldimethoxysilane;TSL 8345;GF 95;Silquest A 2120;DL 103;Silane 1411;γ-(β-Aminoethyl)aminopropylmethyldimethoxysilane;KLM 602;AP Silane 31;A 2120;S 310;HD 103;JH-M 602;SB 602;DL 602;Dynasylan DS 1411;M 602;JH 602;TM 602;SG-SI 602;SS 1020;Toray Silicone SS 1020;SCA 602;SCA 602 (coupling agent);DB 602;KH-Si 602;WD 53;WD 53 (coupling agent);<em>N</em>-Aminoethyl-γ-aminopropylmethyldimethoxysilane;Geniosil GF 95;Si 602;<em>N</em>-Aminoethyl-3-aminopropyl-dimethoxymethylsilane;(<em>N</em>-β-Aminoethyl-γ-aminopropyl)dimethoxymethylsilane;ZH 1304;2-Aminoethyl-3-aminopropylmethyldimethoxysilane;HD 602;β-Aminoethyl-(γ-aminopropyl)methyldimethoxysilane;KH 602;KHB 92;KBE 602;<em>N</em>-β-(Aminoethyl)-γ-aminpropylmethyldimethoxysilane;CX 550;(2-Aminoethyl)-γ-aminopropylmethyldimethoxysilane;2-(Aminoethyl)-3-aminopropyldimethoxysilane;YDH 602;<em>N</em>-(2-Aminoethyl)-γ-aminopropylmethyldimethoxysilane;CY 602;LT 602;<em>N</em>-Aminoethyl-3-aminopropylmethyldimethoxysilane;APDMS 55;SCA 613;A 0876;CG 602 (coupling agent);CG 602;DKOL 030;UP 602;CT 3841;FD 602",
    "duplicated_cas_no": "107853-34-9;327173-03-5;459411-55-3;862377-66-0;1227469-05-7;1714138-63-2;1982660-18-3;2129528-62-5",
    "SMILES": "[Si](CCCNCCN)(OC)(OC)C",
    "meta_data": {
        "InChI": "InChI=1S/C8H22N2O2Si/c1-11-13(3,12-2)8-4-6-10-7-5-9/h10H,4-9H2,1-3H3",
        "InChIKey": null,
        "Canonical SMILES": "O(C)[Si](OC)(C)CCCNCCN",
        "Molecular Formula": "C<sub>8</sub>H<sub>22</sub>N<sub>2</sub>O<sub>2</sub>Si",
        "Molecular Mass": "206.36",
        "Boiling Point": "265 °C",
        "Melting Point": "176-177 °C",
        "Density": "0.975 g/cm³ @ Temp: 25 °C"
    }
}