{
    "cas_no": "4152-09-4",
    "key_name": "<em>N</em>-Benzylethylenediamine",
    "cn_name": "N-苄基乙二胺;",
    "alternate_name": "1,2-Ethanediamine, <em>N</em><sup>1</sup>-(phenylmethyl)-;Ethylenediamine, <em>N</em>-benzyl-;1,2-Ethanediamine, <em>N</em>-(phenylmethyl)-;<em>N</em><sup>1</sup>-(Phenylmethyl)-1,2-ethanediamine;<em>N</em>-Benzylethylenediamine;<em>N</em>-Benzyl-1,2-ethanediamine;<em>N</em>-Benzyl-1,2-diaminoethane;<em>N</em>-Benzylethanediamine;<em>N</em>-(Phenylmethyl)-1,2-ethanediamine;1-Amino-2-(<em>N</em>-benzylamino)ethane;<em>N</em>-Benzyl-1,2-ethylenediamine;NSC 18480;2-(Benzylamino)ethylamine;(2-Aminoethyl)(benzyl)amine",
    "duplicated_cas_no": "",
    "SMILES": "C(NCCN)C1=CC=CC=C1",
    "meta_data": {
        "InChI": "InChI=1S/C9H14N2/c10-6-7-11-8-9-4-2-1-3-5-9/h1-5,11H,6-8,10H2",
        "InChIKey": null,
        "Canonical SMILES": "NCCNCC=1C=CC=CC1",
        "Molecular Formula": "C<sub>9</sub>H<sub>14</sub>N<sub>2</sub>",
        "Molecular Mass": "150.22",
        "Boiling Point": "100 °C @ Press: 4 Torr"
    }
}