{
    "cas_no": "95-41-0",
    "key_name": "2-Hexyl-2-cyclopenten-1-one",
    "cn_name": "二氢茉莉酮;2-己基-2-环戊烯-1-酮;",
    "alternate_name": "2-Cyclopenten-1-one, 2-hexyl-;2-Hexyl-2-cyclopenten-1-one;Dihydroisojasmone;2-Hexyl-2-cyclopentenone;2-Hexyl-1-cyclopenten-3-one;Isojasmol;NSC 78462;2-<em>n</em>-Hexyl-2-cyclopentenone;2-Hexyl-2-cyclopenten-1-on",
    "duplicated_cas_no": "",
    "SMILES": "C(CCCCC)C=1C(=O)CCC1",
    "meta_data": {
        "InChI": "InChI=1S/C11H18O/c1-2-3-4-5-7-10-8-6-9-11(10)12/h8H,2-7,9H2,1H3",
        "InChIKey": null,
        "Canonical SMILES": "O=C1C(=CCC1)CCCCCC",
        "Molecular Formula": "C<sub>11</sub>H<sub>18</sub>O",
        "Molecular Mass": "166.26",
        "Boiling Point": "120 °C",
        "Density": "0.9113 g/cm³ @ Temp: 20 °C"
    }
}