{
    "cas_no": "7522-62-5",
    "key_name": "2,3,5,6-Tetramethyl-1,4-benzenedimethanol",
    "cn_name": "3,6-双(羟甲基)均四甲苯;",
    "alternate_name": "1,4-Benzenedimethanol, 2,3,5,6-tetramethyl-;<em>p</em>-Xylene-α,α′-diol, 2,3,5,6-tetramethyl-;2,3,5,6-Tetramethyl-1,4-benzenedimethanol;2,3,5,6-Tetramethylbenzene-1,4-dimethanol;2,3,5,6-Tetramethyl-<em>p</em>-xylene-α,α′-diol;1,4-Bis(hydroxymethyl)-2,3,5,6-tetramethylbenzene;NSC 158279;[4-(Hydroxymethyl)-2,3,5,6-tetramethylphenyl]methanol;3,6-Bis(hydroxymethyl)durene",
    "duplicated_cas_no": "",
    "SMILES": "C(O)C1=C(C)C(C)=C(CO)C(C)=C1C",
    "meta_data": {
        "InChI": "InChI=1S/C12H18O2/c1-7-8(2)12(6-14)10(4)9(3)11(7)5-13/h13-14H,5-6H2,1-4H3",
        "InChIKey": null,
        "Canonical SMILES": "OCC1=C(C(=C(C(=C1C)C)CO)C)C",
        "Molecular Formula": "C<sub>12</sub>H<sub>18</sub>O<sub>2</sub>",
        "Molecular Mass": "194.27",
        "Melting Point": "245-247 °C"
    }
}