{
    "cas_no": "1201-99-6",
    "key_name": "3-(2,4-Dichlorophenyl)-2-propenoic acid",
    "cn_name": "2,4-二氯肉桂酸;反式-2,4-二氯苯乙烯酸;2,4-二氯肉桂酸;",
    "alternate_name": "2-Propenoic acid, 3-(2,4-dichlorophenyl)-;Cinnamic acid, 2,4-dichloro-;3-(2,4-Dichlorophenyl)-2-propenoic acid;2,4-Dichlorocinnamic acid;NSC 2076;3-(2,4-Dichlorophenyl)acrylic acid",
    "duplicated_cas_no": "",
    "SMILES": "C(=CC(O)=O)C1=C(Cl)C=C(Cl)C=C1",
    "meta_data": {
        "InChI": "InChI=1S/C9H6Cl2O2/c10-7-3-1-6(8(11)5-7)2-4-9(12)13/h1-5H,(H,12,13)",
        "InChIKey": null,
        "Canonical SMILES": "O=C(O)C=CC1=CC=C(Cl)C=C1Cl",
        "Molecular Formula": "C<sub>9</sub>H<sub>6</sub>Cl<sub>2</sub>O<sub>2</sub>",
        "Molecular Mass": "217.05",
        "Melting Point": "235-236 °C"
    }
}