{
    "cas_no": "645-88-5",
    "key_name": "(Aminooxy)acetic acid",
    "cn_name": null,
    "alternate_name": "Acetic acid, 2-(aminooxy)-;Acetic acid, (aminooxy)-;2-(Aminooxy)acetic acid;U 7524;(Aminooxy)acetic acid;AOAA;Hydroxylamine, <em>O</em>-(carboxymethyl)-;Methoxyamine, 1-carboxy-;Aminoxyacetic acid;(Carboxymethoxy)amine;(<em>O</em>-Carboxymethyl)hydroxylamine;α-Aminooxyacetic acid;AOA;<em>O</em>-(Carboxymethyl)hydroxyamine;MeSH ID: D000625",
    "duplicated_cas_no": "",
    "SMILES": "C(C(O)=O)ON",
    "meta_data": {
        "InChI": "InChI=1S/C2H5NO3/c3-6-1-2(4)5/h1,3H2,(H,4,5)",
        "InChIKey": null,
        "Canonical SMILES": "O=C(O)CON",
        "Molecular Formula": "C<sub>2</sub>H<sub>5</sub>NO<sub>3</sub>",
        "Molecular Mass": "91.07",
        "Melting Point": "138 °C"
    }
}