{
    "cas_no": "10102-18-8",
    "key_name": "Sodium selenite",
    "cn_name": "亚硒酸钠;",
    "alternate_name": "Selenious acid, sodium salt (1:2);Selenious acid (H<sub>2</sub>SeO<sub>3</sub>), disodium salt;Selenious acid, disodium salt;Disodium selenite;Sodium selenite;Sodium selenium oxide (Na<sub>2</sub>SeO<sub>3</sub>);Disodium selenium trioxide;Sodium selenite (Na<sub>2</sub>SeO<sub>3</sub>);Neoselen;Selamin;Selemag;Ekosel C-BB;Microgan Se;Selenious acid, sodium salt, ion(2-) (1:2);MeSH ID: D018038",
    "duplicated_cas_no": "29528-97-0;50647-14-8;1313437-33-0",
    "SMILES": "[Se](=O)(O)O.[Na]",
    "meta_data": {
        "InChI": "InChI=1S/2Na.H2O3Se/c;;1-4(2)3/h;;(H2,1,2,3)",
        "InChIKey": null,
        "Canonical SMILES": "[Na].O=[Se](O)O",
        "Molecular Formula": "H<sub>2</sub>O<sub>3</sub>Se.2Na",
        "Molecular Mass": "",
        "Melting Point": "710 °C (decomp)"
    }
}