{
    "cas_no": "50679-08-8",
    "key_name": "Terfenadine",
    "cn_name": "特非那定;alpha-[4-叔丁基苯基]-4-(羟基二苯基甲基)-1-哌啶丁醇;",
    "alternate_name": "1-Piperidinebutanol, α-[4-(1,1-dimethylethyl)phenyl]-4-(hydroxydiphenylmethyl)-;α-[4-(1,1-Dimethylethyl)phenyl]-4-(hydroxydiphenylmethyl)-1-piperidinebutanol;α-(<em>p</em>-<em>tert</em>-Butylphenyl)-4-(α-hydroxy-α-phenylbenzyl)-1-piperidinebutanol;Terfenadine;Teldane;Seldane;<em>dl</em>-Terfenadine;(±)-Terfenadine;Racemic terfenadine;Histadin;Triludan;NSC 665802;MDL 9918;Nebralin;Cyater;Allerplus;Terdin;Ternadin;Terfex;Teldanex;Histafen;Terfinax;1-(4-<em>tert</em>-Butylphenyl)-4-[4-[hydroxy(diphenyl)methyl]piperidin-1-yl]butan-1-ol;MeSH ID: D016593",
    "duplicated_cas_no": "126588-95-2;43076-19-3",
    "SMILES": "C(O)(C1CCN(CCCC(O)C2=CC=C(C(C)(C)C)C=C2)CC1)(C3=CC=CC=C3)C4=CC=CC=C4",
    "meta_data": {
        "InChI": "InChI=1S/C32H41NO2/c1-31(2,3)26-18-16-25(17-19-26)30(34)15-10-22-33-23-20-29(21-24-33)32(35,27-11-6-4-7-12-27)28-13-8-5-9-14-28/h4-9,11-14,16-19,29-30,34-35H,10,15,20-24H2,1-3H3",
        "InChIKey": null,
        "Canonical SMILES": "OC(C1=CC=C(C=C1)C(C)(C)C)CCCN2CCC(CC2)C(O)(C=3C=CC=CC3)C=4C=CC=CC4",
        "Molecular Formula": "C<sub>32</sub>H<sub>41</sub>NO<sub>2</sub>",
        "Molecular Mass": "471.67",
        "Melting Point": "146.5-148.5 °C"
    }
}