{
    "cas_no": "93-68-5",
    "key_name": "<em>o</em>-Acetoacetotoluidide",
    "cn_name": "2\"-甲基乙酰乙酰苯胺;邻甲基-N-乙酰乙酰苯胺;",
    "alternate_name": "Butanamide, <em>N</em>-(2-methylphenyl)-3-oxo-;<em>o</em>-Acetoacetotoluidide;<em>N</em>-(2-Methylphenyl)-3-oxobutanamide;2-(Acetoacetylamino)toluene;2′-Methylacetoacetanilide;<em>o</em>-Methylacetoacetanilide;Acetoacetic acid 2-methylanilide;2-Methylacetoacetanilide;Acetoacetic acid <em>o</em>-toluidide;NSC 7655;<em>N</em>-(2-Methylphenyl)acetoacetamide;<em>N</em>-Acetoacetyl-<em>o</em>-toluidine;<em>N</em>-Acetoacetyl-2-methylaniline;3-Oxo-<em>N</em>-<em>o</em>-tolyl-butyramide",
    "duplicated_cas_no": "",
    "SMILES": "N(C(CC(C)=O)=O)C1=C(C)C=CC=C1",
    "meta_data": {
        "InChI": "InChI=1S/C11H13NO2/c1-8-5-3-4-6-10(8)12-11(14)7-9(2)13/h3-6H,7H2,1-2H3,(H,12,14)",
        "InChIKey": null,
        "Canonical SMILES": "O=C(NC=1C=CC=CC1C)CC(=O)C",
        "Molecular Formula": "C<sub>11</sub>H<sub>13</sub>NO<sub>2</sub>",
        "Molecular Mass": "191.23",
        "Melting Point": "107-108 °C"
    }
}