{
    "cas_no": "2941-69-7",
    "key_name": "5-Methoxy-2-methylbenzothiazole",
    "cn_name": "2-甲基-5-甲氧基苯并噻唑;2-甲基-5-甲氧基硫氮茚;",
    "alternate_name": "Benzothiazole, 5-methoxy-2-methyl-;5-Methoxy-2-methylbenzothiazole;2-Methyl-5-methoxy-1,3-benzothiazole",
    "duplicated_cas_no": "",
    "SMILES": "CC=1SC=2C(=CC(OC)=CC2)N1",
    "meta_data": {
        "InChI": "InChI=1S/C9H9NOS/c1-6-10-8-5-7(11-2)3-4-9(8)12-6/h3-5H,1-2H3",
        "InChIKey": null,
        "Canonical SMILES": "N=1C=2C=C(OC)C=CC2SC1C",
        "Molecular Formula": "C<sub>9</sub>H<sub>9</sub>NOS",
        "Molecular Mass": "179.24",
        "Melting Point": "43-47 °C"
    }
}