{
    "cas_no": "3868-61-9",
    "key_name": "Endosulfan lactone",
    "cn_name": "硫丹内酯;硫丹内酯Endosulfanlactone;",
    "alternate_name": "4,7-Methanoisobenzofuran-1(3<em>H</em>)-one, 4,5,6,7,8,8-hexachloro-3a,4,7,7a-tetrahydro-;5-Norbornene-2-carboxylic acid, 1,4,5,6,7,7-hexachloro-3-(hydroxymethyl)-, γ-lactone;4,5,6,7,8,8-Hexachloro-3a,4,7,7a-tetrahydro-4,7-methanoisobenzofuran-1(3<em>H</em>)-one;Endosulfan lactone;Endolactone;4,5,6,7,8,8-Hexachloro-4,7-methano 1,3,3a,4,7,7a-hexahydroisobenzofuran-1-one",
    "duplicated_cas_no": "",
    "SMILES": "ClC12C3C(C(Cl)(C1(Cl)Cl)C(Cl)=C2Cl)COC3=O",
    "meta_data": {
        "InChI": "InChI=1S/C9H4Cl6O2/c10-4-5(11)8(13)3-2(1-17-6(3)16)7(4,12)9(8,14)15/h2-3H,1H2",
        "InChIKey": null,
        "Canonical SMILES": "O=C1OCC2C1C3(Cl)C(Cl)=C(Cl)C2(Cl)C3(Cl)Cl",
        "Molecular Formula": "C<sub>9</sub>H<sub>4</sub>Cl<sub>6</sub>O<sub>2</sub>",
        "Molecular Mass": "356.84",
        "Melting Point": "263-264 °C"
    }
}