{
    "cas_no": "1805-65-8",
    "key_name": "2-(1,1-Dimethylethyl)-1<em>H</em>-indole",
    "cn_name": null,
    "alternate_name": "1<em>H</em>-Indole, 2-(1,1-dimethylethyl)-;Indole, 2-<em>tert</em>-butyl-;2-(1,1-Dimethylethyl)-1<em>H</em>-indole;2-<em>tert</em>-Butylindole;2-<em>tert</em>-Butyl-1<em>H</em>-indole",
    "duplicated_cas_no": "",
    "SMILES": "C(C)(C)(C)C1=CC=2C(N1)=CC=CC2",
    "meta_data": {
        "InChI": "InChI=1S/C12H15N/c1-12(2,3)11-8-9-6-4-5-7-10(9)13-11/h4-8,13H,1-3H3",
        "InChIKey": null,
        "Canonical SMILES": "C=1C=CC=2NC(=CC2C1)C(C)(C)C",
        "Molecular Formula": "C<sub>12</sub>H<sub>15</sub>N",
        "Molecular Mass": "173.25",
        "Boiling Point": "85-95 °C @ Press: 0.05 Torr",
        "Melting Point": "65-69 °C"
    }
}