{
    "cas_no": "4337-37-5",
    "key_name": "Leucylglycylglycine",
    "cn_name": "DL-亮氨酰甘氨酰甘氨酸;",
    "alternate_name": "Glycine, leucylglycyl-;Glycine, <em>N</em>-(<em>N</em>-<span class=\"text-smallcaps\">DL</span>-leucylglycyl)-;Leucylglycylglycine;<span class=\"text-smallcaps\">DL</span>-Leucylglycylglycine;<em>N</em>-(<em>N</em>-<span class=\"text-smallcaps\">DL</span>-Leucylglycyl)glycine;NSC 89617;2-[2-(2-Amino-4-methylpentanamido)acetamido]acetic acid;2-[[2-[(2-Amino-4-methylpentanoyl)amino]acetyl]amino]acetic acid",
    "duplicated_cas_no": "3146-41-6",
    "SMILES": "C(C(CC(C)C)N)(NCC(NCC(O)=O)=O)=O",
    "meta_data": {
        "InChI": "InChI=1S/C10H19N3O4/c1-6(2)3-7(11)10(17)13-4-8(14)12-5-9(15)16/h6-7H,3-5,11H2,1-2H3,(H,12,14)(H,13,17)(H,15,16)",
        "InChIKey": null,
        "Canonical SMILES": "O=C(O)CNC(=O)CNC(=O)C(N)CC(C)C",
        "Molecular Formula": "C<sub>10</sub>H<sub>19</sub>N<sub>3</sub>O<sub>4</sub>",
        "Molecular Mass": "245.28",
        "Melting Point": "240 °C (decomp)",
        "Density": "1.28 g/cm³"
    }
}