{
    "cas_no": "16731-55-8",
    "key_name": "Potassium pyrosulfite",
    "cn_name": "焦亚硫酸钾;焦亚硫酸钾;偏重亚硫酸钾;偏硫代硫酸钾;二亚硫酸钾;焦亞硫酸鉀;偏重亚硫酸钾/偏硫代硫酸钾/焦亚;",
    "alternate_name": "Disulfurous acid, potassium salt (1:2);Pyrosulfurous acid, dipotassium salt;Potassium pyrosulfite;Disulfurous acid, dipotassium salt;Potassium metabisulfite;Potassium metabisulfite (K<sub>2</sub>S<sub>2</sub>O<sub>5</sub>);Dipotassium metabisulfite;Potassium pyrosulfite (K<sub>2</sub>S<sub>2</sub>O<sub>5</sub>);Dipotassium pyrosulfite;Dipotassium disulfite;Potassium disulfite (K<sub>2</sub>S<sub>2</sub>O<sub>5</sub>);E 224;Kadifit",
    "duplicated_cas_no": "4429-42-9",
    "SMILES": "S(S(=O)O)(=O)(=O)O.[K]",
    "meta_data": {
        "InChI": "InChI=1S/2K.H2O5S2/c;;1-6(2)7(3,4)5/h;;(H,1,2)(H,3,4,5)",
        "InChIKey": null,
        "Canonical SMILES": "[K].O=S(O)S(=O)(=O)O",
        "Molecular Formula": "H<sub>2</sub>O<sub>5</sub>S<sub>2</sub>.2K",
        "Molecular Mass": "",
        "Melting Point": "150 °C (decomp)",
        "Density": "2.3 g/cm³"
    }
}