{
    "cas_no": "51-80-9",
    "key_name": "Bis(dimethylamino)methane",
    "cn_name": "四甲基甲烷二胺;N,N,N\",N\"-四甲基甲二胺;四甲基甲烷二胺;N,N,N\",N\"-四甲基亚甲二胺;N,N,N\",N\"-四甲基二氨基;",
    "alternate_name": "Methanediamine, <em>N</em>,<em>N</em>,<em>N</em>′,<em>N</em>′-tetramethyl-;<em>N</em>,<em>N</em>,<em>N</em>′,<em>N</em>′-Tetramethylmethanediamine;<em>N</em>,<em>N</em>,<em>N</em>′,<em>N</em>′-Tetramethylmethylenediamine;Bis(dimethylamino)methane;Tetramethylmethylenediamine;<em>N</em>,<em>N</em>,<em>N</em>′,<em>N</em>′-Tetramethyldiaminomethane;Dimethyl[(dimethylamino)methyl]amine;<em>N</em>,<em>N</em>′-Tetramethyldiaminomethane;Methylenebis(dimethylamine);2,4-Dimethyl-2,4-diazapentane;Tetramethylmethanediamine;Tetramethyldiaminomethane;NSC 166169;NSC 54796;<em>N</em>,<em>N</em>′-Tetramethylmethanediamine;[(Dimethylamino)methyl]dimethylamine",
    "duplicated_cas_no": "102830-06-8;29572-95-0",
    "SMILES": "C(N(C)C)N(C)C",
    "meta_data": {
        "InChI": "InChI=1S/C5H14N2/c1-6(2)5-7(3)4/h5H2,1-4H3",
        "InChIKey": null,
        "Canonical SMILES": "N(C)(C)CN(C)C",
        "Molecular Formula": "C<sub>5</sub>H<sub>14</sub>N<sub>2</sub>",
        "Molecular Mass": "102.18",
        "Boiling Point": "83 °C"
    }
}