{
    "cas_no": "24900-79-6",
    "key_name": "4-Amino-2,4′-dichlorodiphenyl ether",
    "cn_name": null,
    "alternate_name": "Benzenamine, 3-chloro-4-(4-chlorophenoxy)-;Aniline, 3-chloro-4-(<em>p</em>-chlorophenoxy)-;3-Chloro-4-(4-chlorophenoxy)benzenamine;3-Chloro-4-<em>p</em>-chlorophenoxyaniline;3-Chloro-4-(<em>p</em>-chlorophenoxy)phenylamine;4-Amino-2-chlorophenyl <em>p</em>-chlorophenyl ether;4-Amino-2,4′-dichlorodiphenyl ether;3-Chloro-4-(4-chlorophenoxy)aniline;4-Amino-2-chlorophenyl 4-chlorophenyl ether;2,4′-Dichloro-4-aminodiphenyl ether;NSC 14501;NSC 151251;[3-Chloro-4-(4-chlorophenoxy)phenyl]amine",
    "duplicated_cas_no": "",
    "SMILES": "O(C1=C(Cl)C=C(N)C=C1)C2=CC=C(Cl)C=C2",
    "meta_data": {
        "InChI": "InChI=1S/C12H9Cl2NO/c13-8-1-4-10(5-2-8)16-12-6-3-9(15)7-11(12)14/h1-7H,15H2",
        "InChIKey": null,
        "Canonical SMILES": "ClC1=CC=C(OC2=CC=C(N)C=C2Cl)C=C1",
        "Molecular Formula": "C<sub>12</sub>H<sub>9</sub>Cl<sub>2</sub>NO",
        "Molecular Mass": "254.11",
        "Melting Point": "72-74 °C"
    }
}