{
    "cas_no": "1119-16-0",
    "key_name": "Isocaproaldehyde",
    "cn_name": null,
    "alternate_name": "Pentanal, 4-methyl-;Valeraldehyde, 4-methyl-;4-Methylpentanal;Isocaproaldehyde;Isohexanal;4-Methylvaleraldehyde;4-Methyl-1-pentanal;γ-Methylvaleraldehyde;4-Methylpentan-1-one",
    "duplicated_cas_no": "",
    "SMILES": "C(C(C)C)CC=O",
    "meta_data": {
        "InChI": "InChI=1S/C6H12O/c1-6(2)4-3-5-7/h5-6H,3-4H2,1-2H3",
        "InChIKey": null,
        "Canonical SMILES": "O=CCCC(C)C",
        "Molecular Formula": "C<sub>6</sub>H<sub>12</sub>O",
        "Molecular Mass": "100.16",
        "Boiling Point": "121 °C"
    }
}