{
    "cas_no": "10361-82-7",
    "key_name": "Samarium trichloride",
    "cn_name": "氯化钐水合物;氯化钐;超干氯化钐;无水氯化钐;",
    "alternate_name": "Samarium chloride (SmCl<sub>3</sub>);Samarium trichloride;Samarium chloride;Samarium(III) chloride;NSC 84277",
    "duplicated_cas_no": "",
    "SMILES": "[Sm](Cl)(Cl)Cl",
    "meta_data": {
        "InChI": "InChI=1S/3ClH.Sm/h3*1H;/q;;;+3/p-3",
        "InChIKey": null,
        "Canonical SMILES": "Cl[Sm](Cl)Cl",
        "Molecular Formula": "Cl<sub>3</sub>Sm",
        "Molecular Mass": "",
        "Melting Point": "677 °C",
        "Density": "4.31 g/cm³ @ Temp: 25 °C"
    }
}