{
    "cas_no": "992-04-1",
    "key_name": "Hexaphenylbenzene",
    "cn_name": null,
    "alternate_name": "1,1′:2′,1′′-Terphenyl, 3′,4′,5′,6′-tetraphenyl-;Benzene, hexaphenyl-;<em>m</em>-Terphenyl, 2′,4′,5′,6′-tetraphenyl-;3′,4′,5′,6′-Tetraphenyl-1,1′:2′,1′′-terphenyl;Hexaphenylbenzene;NSC 220313;1,2,3,4,5,6-Hexaphenylbenzene;1,2,3,4,5,6-Hexakis-phenylbenzene",
    "duplicated_cas_no": "",
    "SMILES": "C1(=C(C(=C(C(=C1C2=CC=CC=C2)C3=CC=CC=C3)C4=CC=CC=C4)C5=CC=CC=C5)C6=CC=CC=C6)C7=CC=CC=C7",
    "meta_data": {
        "InChI": "InChI=1S/C42H30/c1-7-19-31(20-8-1)37-38(32-21-9-2-10-22-32)40(34-25-13-4-14-26-34)42(36-29-17-6-18-30-36)41(35-27-15-5-16-28-35)39(37)33-23-11-3-12-24-33/h1-30H",
        "InChIKey": null,
        "Canonical SMILES": "C=1C=CC(=CC1)C=2C(C=3C=CC=CC3)=C(C=4C=CC=CC4)C(C=5C=CC=CC5)=C(C=6C=CC=CC6)C2C=7C=CC=CC7",
        "Molecular Formula": "C<sub>42</sub>H<sub>30</sub>",
        "Molecular Mass": "534.69",
        "Boiling Point": "418-420 °C",
        "Melting Point": "449-450 °C"
    }
}