{
    "cas_no": "104-68-7",
    "key_name": "Diethylene glycol monophenyl ether",
    "cn_name": "2-(2-苯氧基乙氧基)乙醇;",
    "alternate_name": "Ethanol, 2-(2-phenoxyethoxy)-;2-(2-Phenoxyethoxy)ethanol;Phenyl carbitol;Diethylene glycol monophenyl ether;Phenoxydiglycol;Diethylene glycol phenyl ether;Sunfine PH 20;NSC 406593;Phenyl Di Glycol;PhDG;2-(2-Phenoxyethoxy)ethan-1-ol;Hisolve DPH;SunBio PEE 15",
    "duplicated_cas_no": "",
    "SMILES": "O(CCOCCO)C1=CC=CC=C1",
    "meta_data": {
        "InChI": "InChI=1S/C10H14O3/c11-6-7-12-8-9-13-10-4-2-1-3-5-10/h1-5,11H,6-9H2",
        "InChIKey": null,
        "Canonical SMILES": "OCCOCCOC=1C=CC=CC1",
        "Molecular Formula": "C<sub>10</sub>H<sub>14</sub>O<sub>3</sub>",
        "Molecular Mass": "182.22",
        "Boiling Point": "121-125 °C @ Press: 2 Torr",
        "Density": "1.1176 g/cm³ @ Temp: 20 °C"
    }
}