{
    "cas_no": "519-98-2",
    "key_name": "Methylaminoantipyrine",
    "cn_name": "4-(甲氨基)安替比林;",
    "alternate_name": "3<em>H</em>-Pyrazol-3-one, 1,2-dihydro-1,5-dimethyl-4-(methylamino)-2-phenyl-;Antipyrine, 4-(methylamino)-;1,2-Dihydro-1,5-dimethyl-4-(methylamino)-2-phenyl-3<em>H</em>-pyrazol-3-one;Noraminopyrine;4-Monomethylaminoantipyrine;4-(Methylamino)antipyrine;4-Monomethylaminophenazone;<em>N</em>-Methyl-4-aminoantipyrine;Monomethylaminoantipyrine;Noramidopyrine;<em>N</em>-Methylaminoantipyrine;Methylaminoantipyrine;4-Methylaminophenazone;<em>N</em>-Methylaminophenazone;Methylaminophenazone;<em>N</em>-Methyl-4-aminophenazone;1,5-Dimethyl-4-methylamino-2-phenyl-1,2-dihydro-pyrazol-3-one;1,5-Dimethyl-4-(methylamino)-2-phenyl-2,3-dihydro-1<em>H</em>-pyrazol-3-one",
    "duplicated_cas_no": "141504-64-5",
    "SMILES": "O=C1N(N(C)C(C)=C1NC)C2=CC=CC=C2",
    "meta_data": {
        "InChI": "InChI=1S/C12H15N3O/c1-9-11(13-2)12(16)15(14(9)3)10-7-5-4-6-8-10/h4-8,13H,1-3H3",
        "InChIKey": null,
        "Canonical SMILES": "O=C1C(NC)=C(N(N1C=2C=CC=CC2)C)C",
        "Molecular Formula": "C<sub>12</sub>H<sub>15</sub>N<sub>3</sub>O",
        "Molecular Mass": "217.27",
        "Melting Point": "63 °C"
    }
}