{
    "cas_no": "624-54-4",
    "key_name": "Pentyl propionate",
    "cn_name": "丙酸戊酯;丙酸正戊酯;",
    "alternate_name": "Propanoic acid, pentyl ester;Propionic acid, pentyl ester;Amyl propionate;Pentyl propanoate;Pentyl propionate;<em>n</em>-Pentyl propionate;Amyl propanoate;<em>n</em>-Amyl propionate;<em>n</em>-Pentyl propanoate;NSC 7931",
    "duplicated_cas_no": "",
    "SMILES": "C(OCCCCC)(CC)=O",
    "meta_data": {
        "InChI": "InChI=1S/C8H16O2/c1-3-5-6-7-10-8(9)4-2/h3-7H2,1-2H3",
        "InChIKey": null,
        "Canonical SMILES": "O=C(OCCCCC)CC",
        "Molecular Formula": "C<sub>8</sub>H<sub>16</sub>O<sub>2</sub>",
        "Molecular Mass": "144.21",
        "Boiling Point": "168.6 °C",
        "Melting Point": "-73.1 °C"
    }
}