{
    "cas_no": "18979-61-8",
    "key_name": "Butylresorcinol",
    "cn_name": "4-正丁基间苯二酚;2,4-二羟基正丁苯;",
    "alternate_name": "1,3-Benzenediol, 4-butyl-;Resorcinol, 4-butyl-;4-Butyl-1,3-benzenediol;4-Butylresorcinol;Butylresorcinol;NKO 12;Rucinol;Iklen",
    "duplicated_cas_no": "",
    "SMILES": "C(CCC)C1=C(O)C=C(O)C=C1",
    "meta_data": {
        "InChI": "InChI=1S/C10H14O2/c1-2-3-4-8-5-6-9(11)7-10(8)12/h5-7,11-12H,2-4H2,1H3",
        "InChIKey": null,
        "Canonical SMILES": "OC1=CC=C(C(O)=C1)CCCC",
        "Molecular Formula": "C<sub>10</sub>H<sub>14</sub>O<sub>2</sub>",
        "Molecular Mass": "166.22",
        "Boiling Point": "155-175 °C @ Press: 7 Torr",
        "Melting Point": "47-48 °C"
    }
}