{
    "cas_no": "259-79-0",
    "key_name": "Biphenylene",
    "cn_name": "亚联苯;",
    "alternate_name": "Biphenylene;Cyclobutadibenzene;Diphenylene;Dibenzocyclobutadiene;NSC 101862",
    "duplicated_cas_no": "95048-68-3;95048-69-4",
    "SMILES": "C12=C3C(=C1C=CC=C2)C=CC=C3",
    "meta_data": {
        "InChI": "InChI=1S/C12H8/c1-2-6-10-9(5-1)11-7-3-4-8-12(10)11/h1-8H",
        "InChIKey": null,
        "Canonical SMILES": "C=1C=CC=2C(C1)=C3C=CC=CC23",
        "Molecular Formula": "C<sub>12</sub>H<sub>8</sub>",
        "Molecular Mass": "152.19",
        "Boiling Point": "263.1 °C",
        "Melting Point": "110 °C"
    }
}