{
    "cas_no": "5469-19-2",
    "key_name": "1-Bromo-2,4,5-trimethylbenzene",
    "cn_name": "5-溴-1,2,4-三甲苯;",
    "alternate_name": "Benzene, 1-bromo-2,4,5-trimethyl-;1-Bromo-2,4,5-trimethylbenzene;2,4,5-Trimethylbromobenzene;5-Bromopseudocumene;5-Bromo-1,2,4-trimethylbenzene;NSC 26913",
    "duplicated_cas_no": "",
    "SMILES": "BrC1=C(C)C=C(C)C(C)=C1",
    "meta_data": {
        "InChI": "InChI=1S/C9H11Br/c1-6-4-8(3)9(10)5-7(6)2/h4-5H,1-3H3",
        "InChIKey": null,
        "Canonical SMILES": "BrC=1C=C(C(=CC1C)C)C",
        "Molecular Formula": "C<sub>9</sub>H<sub>11</sub>Br",
        "Molecular Mass": "199.09",
        "Boiling Point": "234 °C",
        "Melting Point": "73 °C"
    }
}