{
    "cas_no": "599-67-7",
    "key_name": "1,1-Diphenylethanol",
    "cn_name": "1,1-二苯基乙醇;",
    "alternate_name": "Benzenemethanol, α-methyl-α-phenyl-;Benzhydrol, α-methyl-;α-Methyl-α-phenylbenzenemethanol;1,1-Diphenylethanol;1,1-Diphenyl-1-ethanol;α-Methylbenzhydrol;Methyldiphenylcarbinol;Diphenylmethylcarbinol;NSC 33;1-Hydroxy-1,1-diphenylethane",
    "duplicated_cas_no": "",
    "SMILES": "C(C)(O)(C1=CC=CC=C1)C2=CC=CC=C2",
    "meta_data": {
        "InChI": "InChI=1S/C14H14O/c1-14(15,12-8-4-2-5-9-12)13-10-6-3-7-11-13/h2-11,15H,1H3",
        "InChIKey": null,
        "Canonical SMILES": "OC(C=1C=CC=CC1)(C=2C=CC=CC2)C",
        "Molecular Formula": "C<sub>14</sub>H<sub>14</sub>O",
        "Molecular Mass": "198.26",
        "Boiling Point": "260 °C",
        "Melting Point": "80-81 °C",
        "Density": "1.1059 g/cm³ @ Temp: 15 °C"
    }
}