{
    "cas_no": "65214-82-6",
    "key_name": "1-Piperidinecarboxylic acid, 4-hydroxy-, ethyl ester",
    "cn_name": "4-羟基哌啶-1-甲酸乙酯;N-乙氧羰基-4-羟基哌啶;",
    "alternate_name": "1-Piperidinecarboxylic acid, 4-hydroxy-, ethyl ester;Ethyl 4-hydroxy-1-piperidinecarboxylate;NSC 71891;4-Oxypiperidine-1-carboxylic acid ethyl ester;1-(Ethoxycarbonyl)piperidin-4-ol",
    "duplicated_cas_no": "",
    "SMILES": "C(OCC)(=O)N1CCC(O)CC1",
    "meta_data": {
        "InChI": "InChI=1S/C8H15NO3/c1-2-12-8(11)9-5-3-7(10)4-6-9/h7,10H,2-6H2,1H3",
        "InChIKey": null,
        "Canonical SMILES": "O=C(OCC)N1CCC(O)CC1",
        "Molecular Formula": "C<sub>8</sub>H<sub>15</sub>NO<sub>3</sub>",
        "Molecular Mass": "173.21",
        "Boiling Point": "120-130 °C @ Press: 0.098 Torr",
        "Density": "1.1166 g/cm³ @ Temp: 20 °C"
    }
}