{
    "cas_no": "73602-61-6",
    "key_name": "Triethylamine trihydrofluoride",
    "cn_name": "三乙胺三氢氟酸盐;",
    "alternate_name": "Ethanamine, <em>N</em>,<em>N</em>-diethyl-, hydrofluoride (1:3);Ethanamine, <em>N</em>,<em>N</em>-diethyl-, trihydrofluoride;Triethylamine trihydrofluoride;Triethylamine tris(hydrogen fluoride);Triethylamine tri(hydrogen fluoride);Fluoride (H<sub>2</sub>F<sub>3</sub><sup>1-</sup>), hydrogen, compd. with <em>N</em>,<em>N</em>-diethylethanamine (1:1:1);TR 867",
    "duplicated_cas_no": "439809-39-9;1918238-43-3",
    "SMILES": "N(CC)(CC)CC.F",
    "meta_data": {
        "InChI": "InChI=1S/C6H15N.3FH/c1-4-7(5-2)6-3;;;/h4-6H2,1-3H3;3*1H",
        "InChIKey": null,
        "Canonical SMILES": "F.N(CC)(CC)CC",
        "Molecular Formula": "C<sub>6</sub>H<sub>15</sub>N.3FH",
        "Molecular Mass": "",
        "Melting Point": "-27 °C",
        "Density": "1.007 g/cm³ @ Temp: 20 °C"
    }
}