{
    "cas_no": "13654-09-6",
    "key_name": "Decabromobiphenyl",
    "cn_name": "2,2\",3,3\",4,4\",5,5\"6,6\"-十溴代-1,1\"-联苯;",
    "alternate_name": "1,1′-Biphenyl, 2,2′,3,3′,4,4′,5,5′,6,6′-decabromo-;Biphenyl, decabromo-;2,2′,3,3′,4,4′,5,5′,6,6′-Decabromo-1,1′-biphenyl;Perbromobiphenyl;Flammex B 10;Berkflam B 10;Decabromobiphenyl;Adine 0102;2,2′,3,3′,4,4′,5,5′,6,6′-Decabromobiphenyl;PBB 209;RBF 102;BB 209",
    "duplicated_cas_no": "39282-95-6",
    "SMILES": "BrC1=C(C(Br)=C(Br)C(Br)=C1Br)C2=C(Br)C(Br)=C(Br)C(Br)=C2Br",
    "meta_data": {
        "InChI": "InChI=1S/C12Br10/c13-3-1(4(14)8(18)11(21)7(3)17)2-5(15)9(19)12(22)10(20)6(2)16",
        "InChIKey": null,
        "Canonical SMILES": "BrC=1C(Br)=C(Br)C(=C(Br)C1Br)C=2C(Br)=C(Br)C(Br)=C(Br)C2Br",
        "Molecular Formula": "C<sub>12</sub>Br<sub>10</sub>",
        "Molecular Mass": "943.17",
        "Melting Point": "375 °C"
    }
}