{
    "cas_no": "6165-68-0",
    "key_name": "2-Thienylboronic acid",
    "cn_name": "2-噻吩硼酸;噻酚-2-硼酸;",
    "alternate_name": "Boronic acid, <em>B</em>-2-thienyl-;2-Thiopheneboronic acid;Boronic acid, 2-thienyl-;<em>B</em>-2-Thienylboronic acid;2-Thienylboronic acid;2-Thienylboric acid;Thien-5-ylboronic acid;2-Thiopheneboric acid",
    "duplicated_cas_no": "",
    "SMILES": "B(O)(O)C1=CC=CS1",
    "meta_data": {
        "InChI": "InChI=1S/C4H5BO2S/c6-5(7)4-2-1-3-8-4/h1-3,6-7H",
        "InChIKey": null,
        "Canonical SMILES": "OB(O)C=1SC=CC1",
        "Molecular Formula": "C<sub>4</sub>H<sub>5</sub>BO<sub>2</sub>S",
        "Molecular Mass": "127.96",
        "Melting Point": "134 °C"
    }
}