{
    "cas_no": "33468-35-8",
    "key_name": "6-Chloro-<span class=\"text-smallcaps\">L</span>-tryptophan",
    "cn_name": null,
    "alternate_name": "<span class=\"text-smallcaps\">L</span>-Tryptophan, 6-chloro-;Tryptophan, 6-chloro-, <span class=\"text-smallcaps\">L</span>-;6-Chloro-<span class=\"text-smallcaps\">L</span>-tryptophan;6-Chlorotryptophan;<span class=\"text-smallcaps\">L</span>-6-Chlorotryptophan;(<em>S</em>)-2-Amino-3-(6-chloro-1<em>H</em>-indol-3-yl)propanoic acid;(2S)-2-Amino-3-(6-chloro-1<em>H</em>-indol-3-yl)propanoic acid",
    "duplicated_cas_no": "",
    "SMILES": "C([C@@H](C(O)=O)N)C=1C=2C(NC1)=CC(Cl)=CC2",
    "meta_data": {
        "InChI": "InChI=1S/C11H11ClN2O2/c12-7-1-2-8-6(3-9(13)11(15)16)5-14-10(8)4-7/h1-2,4-5,9,14H,3,13H2,(H,15,16)/t9-/m0/s1",
        "InChIKey": null,
        "Canonical SMILES": "O=C(O)C(N)CC1=CNC=2C=C(Cl)C=CC21",
        "Molecular Formula": "C<sub>11</sub>H<sub>11</sub>ClN<sub>2</sub>O<sub>2</sub>",
        "Molecular Mass": "238.67",
        "Melting Point": "248-253 °C"
    }
}