{
    "cas_no": "27908-75-4",
    "key_name": "4,5,6,7-Tetrachloro-2-(2-quinolinyl)-1<em>H</em>-indene-1,3(2<em>H</em>)-dione",
    "cn_name": null,
    "alternate_name": "1<em>H</em>-Indene-1,3(2<em>H</em>)-dione, 4,5,6,7-tetrachloro-2-(2-quinolinyl)-;1,3-Indandione, 4,5,6,7-tetrachloro-2-(2-quinolyl)-;4,5,6,7-Tetrachloro-2-(2-quinolinyl)-1<em>H</em>-indene-1,3(2<em>H</em>)-dione",
    "duplicated_cas_no": "",
    "SMILES": "O=C1C=2C(C(=O)C1C3=NC4=C(C=C3)C=CC=C4)=C(Cl)C(Cl)=C(Cl)C2Cl",
    "meta_data": {
        "InChI": "InChI=1S/C18H7Cl4NO2/c19-13-11-12(14(20)16(22)15(13)21)18(25)10(17(11)24)9-6-5-7-3-1-2-4-8(7)23-9/h1-6,10H",
        "InChIKey": null,
        "Canonical SMILES": "O=C1C=2C(Cl)=C(Cl)C(Cl)=C(Cl)C2C(=O)C1C3=NC=4C=CC=CC4C=C3",
        "Molecular Formula": "C<sub>18</sub>H<sub>7</sub>Cl<sub>4</sub>NO<sub>2</sub>",
        "Molecular Mass": "411.07",
        "Melting Point": "&gt;350 °C"
    }
}