{
    "cas_no": "4926-55-0",
    "key_name": "HC Yellow 2",
    "cn_name": "N-(2-硝基苯基)乙醇胺;",
    "alternate_name": "Ethanol, 2-[(2-nitrophenyl)amino]-;Ethanol, 2-(<em>o</em>-nitroanilino)-;2-[(2-Nitrophenyl)amino]ethanol;<em>N</em>-(2-Hydroxyethyl)-<em>o</em>-nitroaniline;<em>N</em>-(2′-Hydroxyethyl)-2-nitroaniline;HC Yellow No. 2;<em>N</em>-(2-Hydroxyethyl)-2-nitroaniline;HC Yellow 2;<em>o</em>-Nitro-<em>N</em>-(2-hydroxyethyl)aniline;NSC 33878;NSC 68401;Covarine Yellow W 1122;Colorex HCY 2;1-(2′-Hydroxyethyl)amino-2-nitrobenzene;2-(2-Nitroanilino)ethanol;2-[(2-Nitrophenyl)amino]ethan-1-ol",
    "duplicated_cas_no": "",
    "SMILES": "N(CCO)C1=C(N(=O)=O)C=CC=C1",
    "meta_data": {
        "InChI": "InChI=1S/C8H10N2O3/c11-6-5-9-7-3-1-2-4-8(7)10(12)13/h1-4,9,11H,5-6H2",
        "InChIKey": null,
        "Canonical SMILES": "O=N(=O)C=1C=CC=CC1NCCO",
        "Molecular Formula": "C<sub>8</sub>H<sub>10</sub>N<sub>2</sub>O<sub>3</sub>",
        "Molecular Mass": "182.18",
        "Melting Point": "76 °C"
    }
}