{
    "cas_no": "598-77-6",
    "key_name": "1,1,2-Trichloropropane",
    "cn_name": "1,1,2-三氯丙烷;1,1,2-三氯丙烷;",
    "alternate_name": "Propane, 1,1,2-trichloro-;1,1,2-Trichloropropane;HCC 260DB;2-Chloropropylidene Chloride",
    "duplicated_cas_no": "",
    "SMILES": "C(C(Cl)Cl)(C)Cl",
    "meta_data": {
        "InChI": "InChI=1S/C3H5Cl3/c1-2(4)3(5)6/h2-3H,1H3",
        "InChIKey": null,
        "Canonical SMILES": "ClC(Cl)C(Cl)C",
        "Molecular Formula": "C<sub>3</sub>H<sub>5</sub>Cl<sub>3</sub>",
        "Molecular Mass": "147.43",
        "Boiling Point": "132 °C"
    }
}