{
    "cas_no": "22711-23-5",
    "key_name": "1-(4-Chlorophenyl)-2-phenyl-1,2-ethanedione",
    "cn_name": "对氯联苯酰;",
    "alternate_name": "1,2-Ethanedione, 1-(4-chlorophenyl)-2-phenyl-;Benzil, 4-chloro-;Ethanedione, (4-chlorophenyl)phenyl-;1-(4-Chlorophenyl)-2-phenyl-1,2-ethanedione;4-Chlorobenzil;(<em>p</em>-Chlorophenyl)phenylethanedione;<em>p</em>-Chlorobenzil;1-(4-Chlorophenyl)-2-phenylethan-1,2-dione",
    "duplicated_cas_no": "",
    "SMILES": "C(C(=O)C1=CC=CC=C1)(=O)C2=CC=C(Cl)C=C2",
    "meta_data": {
        "InChI": "InChI=1S/C14H9ClO2/c15-12-8-6-11(7-9-12)14(17)13(16)10-4-2-1-3-5-10/h1-9H",
        "InChIKey": null,
        "Canonical SMILES": "O=C(C=1C=CC=CC1)C(=O)C2=CC=C(Cl)C=C2",
        "Molecular Formula": "C<sub>14</sub>H<sub>9</sub>ClO<sub>2</sub>",
        "Molecular Mass": "244.67",
        "Boiling Point": "163-165 °C @ Press: 0.98 Torr",
        "Melting Point": "73 °C"
    }
}