{
    "cas_no": "25015-63-8",
    "key_name": "Pinacolborane",
    "cn_name": "频那醇硼烷;4,4,5,5-四甲基-1,3,2-二氧硼戊环;",
    "alternate_name": "1,3,2-Dioxaborolane, 4,4,5,5-tetramethyl-;2,3-Butanediol, 2,3-dimethyl-, cyclic ester with boronic acid;4,4,5,5-Tetramethyl-1,3,2-dioxaborolane;Pinacolborane;Pinacolatoborane;HBpin",
    "duplicated_cas_no": "",
    "SMILES": "CC1(C)C(C)(C)OBO1",
    "meta_data": {
        "InChI": "InChI=1S/C6H13BO2/c1-5(2)6(3,4)9-7-8-5/h7H,1-4H3",
        "InChIKey": null,
        "Canonical SMILES": "O1BOC(C)(C)C1(C)C",
        "Molecular Formula": "C<sub>6</sub>H<sub>13</sub>BO<sub>2</sub>",
        "Molecular Mass": "127.98",
        "Boiling Point": "36 °C @ Press: 42 Torr"
    }
}