{
    "cas_no": "765-14-0",
    "key_name": "Dodecyl vinyl ether",
    "cn_name": "十二烷基乙烯基醚;",
    "alternate_name": "Dodecane, 1-(ethenyloxy)-;Ether, dodecyl vinyl;1-(Ethenyloxy)dodecane;Dodecyl vinyl ether;Lauryl vinyl ether;Rapi-Cure DDVE",
    "duplicated_cas_no": "2092525-63-6",
    "SMILES": "C(CCCCCCC)CCCCOC=C",
    "meta_data": {
        "InChI": "InChI=1S/C14H28O/c1-3-5-6-7-8-9-10-11-12-13-14-15-4-2/h4H,2-3,5-14H2,1H3",
        "InChIKey": null,
        "Canonical SMILES": "O(C=C)CCCCCCCCCCCC",
        "Molecular Formula": "C<sub>14</sub>H<sub>28</sub>O",
        "Molecular Mass": "212.37",
        "Boiling Point": "120 °C @ Press: 4 Torr"
    }
}