{
    "cas_no": "97-18-7",
    "key_name": "Bithionol",
    "cn_name": "硫氯酚;硫双二氯酚;双(2-羟基-3,5-二氯苯)硫醚;",
    "alternate_name": "Phenol, 2,2′-thiobis[4,6-dichloro-;2,2′-Thiobis[4,6-dichlorophenol];XL 7;CP 3438;Actamer;Bidiphen;Bithionol;Bitin;2-Hydroxy-3,5-dichlorophenyl sulphide;Lorothidol;Lorothiodol;Neopellis;Vancide BL;Bis(2-hydroxy-3,5-dichlorophenyl) sulfide;2,2′-Dihydroxy-3,3′,5,5′-tetrachlorodiphenyl sulfide;Bithin;Bitionol;Bisoxyphen;D 26;Nobacter;TKhSD;NSC 47129;NSC 9872;2,2-Thiobis(4,6-dichlorophenol);2,4-Dichloro-6-(3,5-dichloro-2-hydroxyphenyl)sulfanylphenol;2,4-Dichloro-6-[(3,5-dichloro-2-hydroxyphenyl)sulfanyl]phenol;MeSH ID: D001735",
    "duplicated_cas_no": "",
    "SMILES": "S(C1=C(O)C(Cl)=CC(Cl)=C1)C2=C(O)C(Cl)=CC(Cl)=C2",
    "meta_data": {
        "InChI": "InChI=1S/C12H6Cl4O2S/c13-5-1-7(15)11(17)9(3-5)19-10-4-6(14)2-8(16)12(10)18/h1-4,17-18H",
        "InChIKey": null,
        "Canonical SMILES": "ClC=1C=C(Cl)C(O)=C(SC=2C=C(Cl)C=C(Cl)C2O)C1",
        "Molecular Formula": "C<sub>12</sub>H<sub>6</sub>Cl<sub>4</sub>O<sub>2</sub>S",
        "Molecular Mass": "356.05",
        "Melting Point": "188 °C",
        "Density": "1.73 g/cm³ @ Temp: 25 °C"
    }
}