{
    "cas_no": "996-98-5",
    "key_name": "Oxalic acid, dihydrazide",
    "cn_name": "乙二酸二酰肼;草酰二肼;",
    "alternate_name": "Ethanedioic acid, 1,2-dihydrazide;Oxalic acid, dihydrazide;Ethanedioic acid, dihydrazide;Oxaldihydrazide;Oxalyl hydrazide;Oxalhydrazide;Oxalyl dihydrazide;Oxalic dihydrazide;Oxaloylhydrazine;Oxalic acid hydrazide;Oxalic acid bishydrazide;Oxaloyl dihydrazide;NSC 264;Oxaloyldihydrazine",
    "duplicated_cas_no": "3011-40-3",
    "SMILES": "C(C(NN)=O)(NN)=O",
    "meta_data": {
        "InChI": "InChI=1S/C2H6N4O2/c3-5-1(7)2(8)6-4/h3-4H2,(H,5,7)(H,6,8)",
        "InChIKey": null,
        "Canonical SMILES": "O=C(NN)C(=O)NN",
        "Molecular Formula": "C<sub>2</sub>H<sub>6</sub>N<sub>4</sub>O<sub>2</sub>",
        "Molecular Mass": "118.09",
        "Melting Point": "243 °C (decomp)",
        "Density": "1.458 g/cm³ @ Temp: -5 °C"
    }
}