{
    "cas_no": "1128-67-2",
    "key_name": "3-Methyl-2-benzothiazolinone hydrazone",
    "cn_name": null,
    "alternate_name": "2(3<em>H</em>)-Benzothiazolone, 3-methyl-, hydrazone;2-Benzothiazolinone, 3-methyl-, hydrazone;3-Methyl-2-benzothiazolone hydrazone;3-Methyl-2-benzothiazolinone hydrazone;<em>N</em>-Methyl-2-benzothiazolone hydrazone;(3-Methyl-2-benzothiazolinylidene)hydrazine;<em>N</em>-Methyl-2-benzothiazolinone hydrazone;Besthorn's hydrazone;MBTH;(3-Methyl-1,3-benzothiazol-2-ylidene)hydrazine;2-Hydrazono-3-methyl-2,3-dihydrobenzo[<em>d</em>]thiazole",
    "duplicated_cas_no": "46045-62-9",
    "SMILES": "CN1C=2C(SC1=NN)=CC=CC2",
    "meta_data": {
        "InChI": "InChI=1S/C8H9N3S/c1-11-6-4-2-3-5-7(6)12-8(11)10-9/h2-5H,9H2,1H3",
        "InChIKey": null,
        "Canonical SMILES": "N(N)=C1SC=2C=CC=CC2N1C",
        "Molecular Formula": "C<sub>8</sub>H<sub>9</sub>N<sub>3</sub>S",
        "Molecular Mass": "179.24",
        "Melting Point": "143-144 °C"
    }
}