{
    "cas_no": "177931-17-8",
    "key_name": "Sauchinone",
    "cn_name": null,
    "alternate_name": "5<em>H</em>-Benzo[<em>kl</em>]bis[1,3]dioxolo[4,5-<em>b</em>:4′,5′-<em>g</em>]xanthen-5-one, 5a,6,7,8,8a,14b-hexahydro-7,8-dimethyl-, (5a<em>R</em>,7<em>R</em>,8<em>S</em>,8a<em>R</em>,14a<em>S</em>,14b<em>R</em>)-;5<em>H</em>-Benzo[<em>kl</em>]bis[1,3]dioxolo[4,5-<em>b</em>:4′,5′-<em>g</em>]xanthen-5-one, 5a,6,7,8,8a,14b-hexahydro-7,8-dimethyl-, (5aα,7α,8β,8aβ,14a<em>S</em>*,14bβ)-;(5a<em>R</em>,7<em>R</em>,8<em>S</em>,8a<em>R</em>,14a<em>S</em>,14b<em>R</em>)-5a,6,7,8,8a,14b-Hexahydro-7,8-dimethyl-5<em>H</em>-benzo[<em>kl</em>]bis[1,3]dioxolo[4,5-<em>b</em>:4′,5′-<em>g</em>]xanthen-5-one;Sauchinone",
    "duplicated_cas_no": "",
    "SMILES": "C[C@@H]1[C@@]2([C@]3([C@]4(C(=CC(=O)[C@@]3(C[C@H]1C)[H])OCO4)OC=5C2=CC6=C(C5)OCO6)[H])[H]",
    "meta_data": {
        "InChI": "InChI=1S/C20H20O6/c1-9-3-11-13(21)5-17-20(25-8-24-17)19(11)18(10(9)2)12-4-15-16(23-7-22-15)6-14(12)26-20/h4-6,9-11,18-19H,3,7-8H2,1-2H3/t9-,10+,11+,18+,19+,20+/m1/s1",
        "InChIKey": null,
        "Canonical SMILES": "O=C1C=C2OCOC32OC4=CC=5OCOC5C=C4C6C(C)C(C)CC1C63",
        "Molecular Formula": "C<sub>20</sub>H<sub>20</sub>O<sub>6</sub>",
        "Molecular Mass": "356.37",
        "Melting Point": "224-226 °C"
    }
}