{
    "cas_no": "50907-23-8",
    "key_name": "5-(4-Bromophenyl)-2<em>H</em>-tetrazole",
    "cn_name": null,
    "alternate_name": "2<em>H</em>-Tetrazole, 5-(4-bromophenyl)-;1<em>H</em>-Tetrazole, 5-(4-bromophenyl)-;Tetrazole, 5-(<em>p</em>-bromophenyl)-;5-(4-Bromophenyl)-2<em>H</em>-tetrazole;5-(<em>p</em>-Bromophenyl)-1<em>H</em>-tetrazole;5-(<em>p</em>-Bromophenyl)tetrazole;5-(4-Bromophenyl)-1<em>H</em>-tetrazole;5-(4-Bromophenyl)tetrazole;5-Bromo-2-(tetrazol-5-yl)benzene;5-(4′-Bromophenyl)tetrazole;5-(4′-Bromophenyl)-1<em>H</em>-tetrazole;5-(4-Bromophenyl)-1<em>H</em>-1,2,3,4-tetrazole",
    "duplicated_cas_no": "",
    "SMILES": "BrC1=CC=C(C=C1)C=2NN=NN2",
    "meta_data": {
        "InChI": "InChI=1S/C7H5BrN4/c8-6-3-1-5(2-4-6)7-9-11-12-10-7/h1-4H,(H,9,10,11,12)",
        "InChIKey": null,
        "Canonical SMILES": "BrC=1C=CC(=CC1)C2=NN=NN2",
        "Molecular Formula": "C<sub>7</sub>H<sub>5</sub>BrN<sub>4</sub>",
        "Molecular Mass": "225.05",
        "Melting Point": "260.6-261.0 °C"
    }
}