{
    "cas_no": "681-57-2",
    "key_name": "2,2-Dimethylglutaric acid",
    "cn_name": null,
    "alternate_name": "Pentanedioic acid, 2,2-dimethyl-;Glutaric acid, 2,2-dimethyl-;2,2-Dimethylpentanedioic acid;2,2-Dimethylglutaric acid;2,2-dimethylpentanedioic acid;NSC 61979;1,1-Dimethyl-1,3-propanedicarboxylic acid",
    "duplicated_cas_no": "",
    "SMILES": "C(CCC(O)=O)(C(O)=O)(C)C",
    "meta_data": {
        "InChI": "InChI=1S/C7H12O4/c1-7(2,6(10)11)4-3-5(8)9/h3-4H2,1-2H3,(H,8,9)(H,10,11)",
        "InChIKey": null,
        "Canonical SMILES": "O=C(O)CCC(C(=O)O)(C)C",
        "Molecular Formula": "C<sub>7</sub>H<sub>12</sub>O<sub>4</sub>",
        "Molecular Mass": "160.17",
        "Boiling Point": "180-200 °C @ Press: 2 Torr",
        "Melting Point": "83-85 °C"
    }
}