{
    "cas_no": "2524-52-9",
    "key_name": "Ethyl 2-pyridinecarboxylate",
    "cn_name": "2-吡啶甲酸乙酯;",
    "alternate_name": "2-Pyridinecarboxylic acid, ethyl ester;Picolinic acid, ethyl ester;Ethyl 2-pyridinecarboxylate;Ethyl picolinate;2-(Ethoxycarbonyl)pyridine;Ethyl 2-picolinate;NSC 31651;NSC 959;Ethyl pyridine-2-carboxylate",
    "duplicated_cas_no": "",
    "SMILES": "C(OCC)(=O)C1=CC=CC=N1",
    "meta_data": {
        "InChI": "InChI=1S/C8H9NO2/c1-2-11-8(10)7-5-3-4-6-9-7/h3-6H,2H2,1H3",
        "InChIKey": null,
        "Canonical SMILES": "O=C(OCC)C1=NC=CC=C1",
        "Molecular Formula": "C<sub>8</sub>H<sub>9</sub>NO<sub>2</sub>",
        "Molecular Mass": "151.16",
        "Boiling Point": "243 °C",
        "Melting Point": "1 °C",
        "Density": "1.5123 g/cm³ @ Temp: 20 °C"
    }
}