{
    "cas_no": "125-51-9",
    "key_name": "Pipenzolate bromide",
    "cn_name": "溴哌喷酯;溴哌喷酯;",
    "alternate_name": "Piperidinium, 1-ethyl-3-[(2-hydroxy-2,2-diphenylacetyl)oxy]-1-methyl-, bromide (1:1);Piperidinium, 1-ethyl-3-hydroxy-1-methyl-, bromide, benzilate;1-Ethyl-3-hydroxy-1-methylpiperidinium bromide benzilate;Piperidinium, 1-ethyl-3-[(hydroxydiphenylacetyl)oxy]-1-methyl-, bromide;Benzilic acid, ester with 1-ethyl-3-hydroxy-1-methylpiperidinium bromide;JB 323;<em>N</em>-Ethyl-3-piperidyl benzilate methobromide;Pipenzolate methobromide;Piptal;QPB;Pipenzolate bromide;Piper;Piptalake;Piptal (tablet);Pibenzolone bromide;NSC 4347;Babytal;1-Ethyl-3-(2-hydroxy-2,2-diphenylacetoxy)-1-methylpiperidin-1-ium bromide",
    "duplicated_cas_no": "",
    "SMILES": "C(C(OC1C[N+](CC)(C)CCC1)=O)(O)(C2=CC=CC=C2)C3=CC=CC=C3.[Br-]",
    "meta_data": {
        "InChI": "InChI=1S/C22H28NO3.BrH/c1-3-23(2)16-10-15-20(17-23)26-21(24)22(25,18-11-6-4-7-12-18)19-13-8-5-9-14-19;/h4-9,11-14,20,25H,3,10,15-17H2,1-2H3;1H/q+1;/p-1",
        "InChIKey": null,
        "Canonical SMILES": "[Br-].O=C(OC1CCC[N+](C)(CC)C1)C(O)(C=2C=CC=CC2)C=3C=CC=CC3",
        "Molecular Formula": "C<sub>22</sub>H<sub>28</sub>NO<sub>3</sub>.Br",
        "Molecular Mass": "",
        "Melting Point": "179.5 °C"
    }
}