{
    "cas_no": "82-05-3",
    "key_name": "Benzanthrone",
    "cn_name": "苯并蒽酮;",
    "alternate_name": "7<em>H</em>-Benz[<em>de</em>]anthracen-7-one;Benzanthrenone;Benzanthrone;7-Oxobenz[<em>de</em>]anthracene;Naphthanthrone;Benzoanthrone;1,9-Benz-10-anthrone;NSC 5189;NSC 631641;7<em>H</em>-Benz[<em>d</em>,<em>e</em>]anthracene-7-one",
    "duplicated_cas_no": "116495-96-6;57608-35-2;358773-23-6",
    "SMILES": "O=C1C=2C3=C(C=4C1=CC=CC4)C=CC=C3C=CC2",
    "meta_data": {
        "InChI": "InChI=1S/C17H10O/c18-17-14-8-2-1-7-12(14)13-9-3-5-11-6-4-10-15(17)16(11)13/h1-10H",
        "InChIKey": null,
        "Canonical SMILES": "O=C1C=2C=CC=CC2C=3C=CC=C4C=CC=C1C43",
        "Molecular Formula": "C<sub>17</sub>H<sub>10</sub>O",
        "Molecular Mass": "230.26",
        "Melting Point": "170 °C"
    }
}