{
    "cas_no": "4887-82-5",
    "key_name": "5-Chlorobenzimidazole",
    "cn_name": "5-氯苯并咪唑;5-氯苯并咪唑;",
    "alternate_name": "1<em>H</em>-Benzimidazole, 6-chloro-;Benzimidazole, 5-chloro-;1<em>H</em>-Benzimidazole, 5-chloro-;Benzimidazole, 5(<em>or</em> 6)-chloro-;6-Chloro-1<em>H</em>-benzimidazole;5-Chlorobenzimidazole;5-Chloro-1<em>H</em>-benzimidazole;NSC 3059",
    "duplicated_cas_no": "",
    "SMILES": "ClC=1C=C2C(=CC1)NC=N2",
    "meta_data": {
        "InChI": "InChI=1S/C7H5ClN2/c8-5-1-2-6-7(3-5)10-4-9-6/h1-4H,(H,9,10)",
        "InChIKey": null,
        "Canonical SMILES": "ClC=1C=CC=2NC=NC2C1",
        "Molecular Formula": "C<sub>7</sub>H<sub>5</sub>ClN<sub>2</sub>",
        "Molecular Mass": "152.58",
        "Melting Point": "166-167 °C"
    }
}