{
    "cas_no": "14068-54-3",
    "key_name": "5-Butyl-1,3,4-thiadiazol-2-amine",
    "cn_name": null,
    "alternate_name": "1,3,4-Thiadiazol-2-amine, 5-butyl-;1,3,4-Thiadiazole, 2-amino-5-butyl-;5-Butyl-1,3,4-thiadiazol-2-amine;5-Butyl-2-amino-1,3,4-thiadiazole;2-Amino-5-butyl-1,3,4-thiadiazole;2-Amino-5-<em>n</em>-butyl-1,3,4-thiadiazole",
    "duplicated_cas_no": "",
    "SMILES": "C(CCC)C=1SC(N)=NN1",
    "meta_data": {
        "InChI": "InChI=1S/C6H11N3S/c1-2-3-4-5-8-9-6(7)10-5/h2-4H2,1H3,(H2,7,9)",
        "InChIKey": null,
        "Canonical SMILES": "N=1N=C(SC1N)CCCC",
        "Molecular Formula": "C<sub>6</sub>H<sub>11</sub>N<sub>3</sub>S",
        "Molecular Mass": "157.24",
        "Melting Point": "195-196 °C"
    }
}