{
    "cas_no": "200936-87-4",
    "key_name": "Boc-Leu-OH monohydrate",
    "cn_name": null,
    "alternate_name": "<span class=\"text-smallcaps\">L</span>-Leucine, <em>N</em>-[(1,1-dimethylethoxy)carbonyl]-, hydrate (1:1);<span class=\"text-smallcaps\">L</span>-Leucine, <em>N</em>-[(1,1-dimethylethoxy)carbonyl]-, monohydrate;Boc-Leu-OH monohydrate;(<em>S</em>)-2-((<em>tert</em>-Butoxycarbonyl)amino)-4-methylpentanoic acid hydrate",
    "duplicated_cas_no": "204125-28-0",
    "SMILES": "[C@H](NC(OC(C)(C)C)=O)(CC(C)C)C(O)=O.O",
    "meta_data": {
        "InChI": "InChI=1S/C11H21NO4.H2O/c1-7(2)6-8(9(13)14)12-10(15)16-11(3,4)5;/h7-8H,6H2,1-5H3,(H,12,15)(H,13,14);1H2/t8-;/m0./s1",
        "InChIKey": null,
        "Canonical SMILES": "O=C(OC(C)(C)C)NC(C(=O)O)CC(C)C.O",
        "Molecular Formula": "C<sub>11</sub>H<sub>21</sub>NO<sub>4</sub>.H<sub>2</sub>O",
        "Molecular Mass": "",
        "Melting Point": "74 °C"
    }
}