{
    "cas_no": "1217501-08-0",
    "key_name": "1-Methyl 1-(4-boronophenyl)cyclopropanecarboxylate",
    "cn_name": null,
    "alternate_name": "Cyclopropanecarboxylic acid, 1-(4-boronophenyl)-, 1-methyl ester;1-Methyl 1-(4-boronophenyl)cyclopropanecarboxylate;(4-(1-(Methoxycarbonyl)cyclopropyl)phenyl)boronic acid",
    "duplicated_cas_no": "",
    "SMILES": "C(OC)(=O)C1(CC1)C2=CC=C(B(O)O)C=C2",
    "meta_data": {
        "InChI": "InChI=1S/C11H13BO4/c1-16-10(13)11(6-7-11)8-2-4-9(5-3-8)12(14)15/h2-5,14-15H,6-7H2,1H3",
        "InChIKey": null,
        "Canonical SMILES": "O=C(OC)C1(C2=CC=C(C=C2)B(O)O)CC1",
        "Molecular Formula": "C<sub>11</sub>H<sub>13</sub>BO<sub>4</sub>",
        "Molecular Mass": "220.03",
        "Melting Point": "251-254 °C"
    }
}