{
    "cas_no": "7646-78-8",
    "key_name": "Tin tetrachloride",
    "cn_name": "四氯化锡;",
    "alternate_name": "Stannane, tetrachloro-;Tin chloride (SnCl<sub>4</sub>);Tetrachlorostannane;Libavius Fuming spirit;Stannic chloride;Tin tetrachloride;Tin(IV) chloride;Stannic tetrachloride;Tin(IV) tetrachloride;Tetrachlorotin;NSC 209802",
    "duplicated_cas_no": "1044280-39-8",
    "SMILES": "[Sn](Cl)(Cl)(Cl)Cl",
    "meta_data": {
        "InChI": "InChI=1S/4ClH.Sn/h4*1H;/q;;;;+4/p-4",
        "InChIKey": null,
        "Canonical SMILES": "Cl[Sn](Cl)(Cl)Cl",
        "Molecular Formula": "Cl<sub>4</sub>Sn",
        "Molecular Mass": "260.52",
        "Boiling Point": "114.15 °C",
        "Melting Point": "-33 °C",
        "Density": "2.34 g/cm³"
    }
}