{
    "cas_no": "100-49-2",
    "key_name": "Cyclohexanemethanol",
    "cn_name": "环己甲醇;",
    "alternate_name": "Cyclohexanemethanol;Cyclohexanecarbinol;Cyclohexylcarbinol;Hexahydrobenzyl alcohol;Cyclohexylmethanol;(Hydroxymethyl)cyclohexane;Cyclohexylmethyl alcohol;NSC 5288",
    "duplicated_cas_no": "",
    "SMILES": "C(O)C1CCCCC1",
    "meta_data": {
        "InChI": "InChI=1S/C7H14O/c8-6-7-4-2-1-3-5-7/h7-8H,1-6H2",
        "InChIKey": null,
        "Canonical SMILES": "OCC1CCCCC1",
        "Molecular Formula": "C<sub>7</sub>H<sub>14</sub>O",
        "Molecular Mass": "114.19",
        "Boiling Point": "183 °C",
        "Melting Point": "-43 °C",
        "Density": "0.9445 g/cm³ @ Temp: 0 °C"
    }
}