{
    "cas_no": "1134-04-9",
    "key_name": "2,3,4,5-Tetrachloro-6-(trichloromethyl)pyridine",
    "cn_name": "2,3,4,5-四氯-6-(三氯甲基)吡啶;七氯甲基吡啶;",
    "alternate_name": "Pyridine, 2,3,4,5-tetrachloro-6-(trichloromethyl)-;2,3,4,5-Tetrachloro-6-(trichloromethyl)pyridine;3,4,5,6-Tetrachloro-2-(trichloromethyl)pyridine;Tetrachloro-2-(trichloromethyl)pyridine;2-(Trichloromethyl)tetrachloropyridine;Heptachloro-2-picoline;Perchloro-2-picoline",
    "duplicated_cas_no": "",
    "SMILES": "C(Cl)(Cl)(Cl)C1=C(Cl)C(Cl)=C(Cl)C(Cl)=N1",
    "meta_data": {
        "InChI": "InChI=1S/C6Cl7N/c7-1-2(8)4(6(11,12)13)14-5(10)3(1)9",
        "InChIKey": null,
        "Canonical SMILES": "ClC=1N=C(C(Cl)=C(Cl)C1Cl)C(Cl)(Cl)Cl",
        "Molecular Formula": "C<sub>6</sub>Cl<sub>7</sub>N",
        "Molecular Mass": "334.24",
        "Melting Point": "58-60 °C"
    }
}