{
    "cas_no": "95-76-1",
    "key_name": "3,4-Dichloroaniline",
    "cn_name": "3,4-二氯苯胺;",
    "alternate_name": "Benzenamine, 3,4-dichloro-;Aniline, 3,4-dichloro-;3,4-Dichlorobenzenamine;DCA (amine);3,4-Dichloraniline;3,4-Dichloroaniline;3,4-DCA;4,5-Dichloroaniline;<em>m</em>,<em>p</em>-Dichloroaniline;DCA;4-Amino-1,2-dichlorobenzene;LY 004892;3,4-Dichlorophenylamine;NSC 247",
    "duplicated_cas_no": "",
    "SMILES": "ClC1=C(Cl)C=CC(N)=C1",
    "meta_data": {
        "InChI": "InChI=1S/C6H5Cl2N/c7-5-2-1-4(9)3-6(5)8/h1-3H,9H2",
        "InChIKey": null,
        "Canonical SMILES": "ClC1=CC=C(N)C=C1Cl",
        "Molecular Formula": "C<sub>6</sub>H<sub>5</sub>Cl<sub>2</sub>N",
        "Molecular Mass": "162.02",
        "Boiling Point": "272 °C",
        "Melting Point": "71-72 °C",
        "Density": "1.33 g/cm³"
    }
}