{
    "cas_no": "105-54-4",
    "key_name": "Ethyl butyrate",
    "cn_name": "丁酸乙酯;",
    "alternate_name": "Butanoic acid, ethyl ester;Butyric acid, ethyl ester;Butyric acid, ester with EtOH;Ethyl butanoate;Ethyl butyrate;Ethyl <em>n</em>-butyrate;Ethyl <em>n</em>-butanoate;NSC 8857",
    "duplicated_cas_no": "",
    "SMILES": "C(CCC)(OCC)=O",
    "meta_data": {
        "InChI": "InChI=1S/C6H12O2/c1-3-5-6(7)8-4-2/h3-5H2,1-2H3",
        "InChIKey": null,
        "Canonical SMILES": "O=C(OCC)CCC",
        "Molecular Formula": "C<sub>6</sub>H<sub>12</sub>O<sub>2</sub>",
        "Molecular Mass": "116.16",
        "Boiling Point": "120-121 °C",
        "Melting Point": "-100.8 °C",
        "Density": "0.879 g/cm³ @ Temp: 20 °C"
    }
}