{
    "cas_no": "5902-51-2",
    "key_name": "Terbacil",
    "cn_name": "特草定;3-特丁基-5-氯-6-甲基脲嘧啶;",
    "alternate_name": "2,4(1<em>H</em>,3<em>H</em>)-Pyrimidinedione, 5-chloro-3-(1,1-dimethylethyl)-6-methyl-;Uracil, 3-<em>tert</em>-butyl-5-chloro-6-methyl-;5-Chloro-3-(1,1-dimethylethyl)-6-methyl-2,4(1<em>H</em>,3<em>H</em>)-pyrimidinedione;3-<em>tert</em>-Butyl-5-chloro-6-methyluracil;5-Chloro-3-<em>tert</em>-butyl-6-methyluracil;Experimental Herbicide 732;Terbacil;Du Pont 732;Sinbar;Geonter;Terbacil 80WP;3-<em>tert</em>-Butyl-5-chloro-6-methyl-1<em>H</em>-pyrimidine-2,4-dione",
    "duplicated_cas_no": "",
    "SMILES": "C(C)(C)(C)N1C(=O)C(Cl)=C(C)NC1=O",
    "meta_data": {
        "InChI": "InChI=1S/C9H13ClN2O2/c1-5-6(10)7(13)12(8(14)11-5)9(2,3)4/h1-4H3,(H,11,14)",
        "InChIKey": null,
        "Canonical SMILES": "O=C1NC(=C(Cl)C(=O)N1C(C)(C)C)C",
        "Molecular Formula": "C<sub>9</sub>H<sub>13</sub>ClN<sub>2</sub>O<sub>2</sub>",
        "Molecular Mass": "216.66",
        "Melting Point": "175-177 °C",
        "Density": "1.34 g/cm³ @ Temp: 25 °C"
    }
}