{
    "cas_no": "2142-69-0",
    "key_name": "2′-Bromoacetophenone",
    "cn_name": "2\"-溴苯乙酮;邻溴苯乙酮;",
    "alternate_name": "Ethanone, 1-(2-bromophenyl)-;Acetophenone, 2′-bromo-;1-(2-Bromophenyl)ethanone;<em>o</em>-Bromoacetophenone;2′-Bromoacetophenone;<em>o</em>-Bromophenyl methyl ketone;1-Acetyl-2-bromobenzene;2-Bromophenyl methyl ketone;2-Acetylbromobenzene;NSC 155380;1-Bromo-2-acetylbenzene;Methyl 2-bromophenyl ketone;1-(2-Bromophenyl)ethan-1-one;<em>o</em>-Acetylphenyl bromide",
    "duplicated_cas_no": "",
    "SMILES": "C(C)(=O)C1=C(Br)C=CC=C1",
    "meta_data": {
        "InChI": "InChI=1S/C8H7BrO/c1-6(10)7-4-2-3-5-8(7)9/h2-5H,1H3",
        "InChIKey": null,
        "Canonical SMILES": "O=C(C=1C=CC=CC1Br)C",
        "Molecular Formula": "C<sub>8</sub>H<sub>7</sub>BrO",
        "Molecular Mass": "199.04",
        "Boiling Point": "113-114 °C @ Press: 11 Torr"
    }
}