{
    "cas_no": "893-33-4",
    "key_name": "4,4,4-Trifluoro-1-(2-naphthyl)-1,3-butanedione",
    "cn_name": "1-(2-萘甲酰基 )-3,3,3-三氟丙酮;1-(2-萘酰)-3,3,3-三氟丙酮;1-(2-萘甲酰基)-3,3,3-三氟丙酮;",
    "alternate_name": "1,3-Butanedione, 4,4,4-trifluoro-1-(2-naphthalenyl)-;1,3-Butanedione, 4,4,4-trifluoro-1-(2-naphthyl)-;4,4,4-Trifluoro-1-(2-naphthalenyl)-1,3-butanedione;4,4,4-Trifluoro-1-(2-naphthyl)-1,3-butanedione;2-Naphthoyltrifluoroacetone;β-Naphthoyltrifluoroacetone;4,4,4-Trifluoro-1-(2′-naphthyl)-1,3-butanedione;1-(2-Naphthoyl)-3,3,3-trifluoroacetone;NSC 42790;4-(2-Naphthyl)-1,1,1-trifluoro-2,4-butanedione;1-(2-Naphthyl)-4,4,4-trifluoro-1,3-butanedione;4,4′,4′′-Trifluoro-1-(naphth-2-yl)-1,3-butanedione;4-(2-Naphthalenyl)-1,1,1-Trifluorobutane-2,4-dione;4,4,4-Trifluoro-1-(2-naphthyl)-1,4-butanedione;4,4,4-Trifluoro-1-(naphthalen-2-yl)-1,4-butanedione;1-(2-Naphthalenyl)-4,4,4-trifluoro-1,3-butanedione",
    "duplicated_cas_no": "",
    "SMILES": "C(CC(C(F)(F)F)=O)(=O)C1=CC2=C(C=C1)C=CC=C2",
    "meta_data": {
        "InChI": "InChI=1S/C14H9F3O2/c15-14(16,17)13(19)8-12(18)11-6-5-9-3-1-2-4-10(9)7-11/h1-7H,8H2",
        "InChIKey": null,
        "Canonical SMILES": "O=C(C=1C=CC=2C=CC=CC2C1)CC(=O)C(F)(F)F",
        "Molecular Formula": "C<sub>14</sub>H<sub>9</sub>F<sub>3</sub>O<sub>2</sub>",
        "Molecular Mass": "266.22",
        "Melting Point": "75 °C"
    }
}