{
    "cas_no": "22381-53-9",
    "key_name": "1-[(2-Chloroethyl)sulfonyl]-4-methylbenzene",
    "cn_name": "2-氯乙基对甲苯基砜;",
    "alternate_name": "Benzene, 1-[(2-chloroethyl)sulfonyl]-4-methyl-;Sulfone, 2-chloroethyl <em>p</em>-tolyl;1-[(2-Chloroethyl)sulfonyl]-4-methylbenzene;<em>p</em>-Toluene 2-chloroethyl sulphone;1-Tosyl-2-chloroethane;NSC 9012;1-(2-Chloroethanesulfonyl)-4-methylbenzene",
    "duplicated_cas_no": "",
    "SMILES": "S(CCCl)(=O)(=O)C1=CC=C(C)C=C1",
    "meta_data": {
        "InChI": "InChI=1S/C9H11ClO2S/c1-8-2-4-9(5-3-8)13(11,12)7-6-10/h2-5H,6-7H2,1H3",
        "InChIKey": null,
        "Canonical SMILES": "O=S(=O)(C1=CC=C(C=C1)C)CCCl",
        "Molecular Formula": "C<sub>9</sub>H<sub>11</sub>ClO<sub>2</sub>S",
        "Molecular Mass": "218.70",
        "Boiling Point": "140 °C @ Press: 1.5 Torr",
        "Melting Point": "22.5 °C"
    }
}