{
    "cas_no": "25570-02-9",
    "key_name": "3,3′,5,5′-Tetramethyl-1,1′-biphenyl",
    "cn_name": "3,3\",5,5\"-四甲基联苯;",
    "alternate_name": "1,1′-Biphenyl, 3,3′,5,5′-tetramethyl-;Biphenyl, 3,3′,5,5′-tetramethyl-;3,3′,5,5′-Tetramethyl-1,1′-biphenyl;3,3′,5,5′-Tetramethylbiphenyl;3,5,3′,5′-Tetramethylbiphenyl;3,5,3′,5′-Tetramethyl-1,1′-biphenyl;1-(3,5-Dimethylphenyl)-3,5-dimethylbenzene;3,3′,5′,5′-Tetraethynylbiphenyl",
    "duplicated_cas_no": "",
    "SMILES": "CC=1C=C(C=C(C)C1)C2=CC(C)=CC(C)=C2",
    "meta_data": {
        "InChI": "InChI=1S/C16H18/c1-11-5-12(2)8-15(7-11)16-9-13(3)6-14(4)10-16/h5-10H,1-4H3",
        "InChIKey": null,
        "Canonical SMILES": "C=1C(=CC(=CC1C)C)C=2C=C(C=C(C2)C)C",
        "Molecular Formula": "C<sub>16</sub>H<sub>18</sub>",
        "Molecular Mass": "210.31",
        "Boiling Point": "110 °C @ Press: 0.4 Torr",
        "Melting Point": "48.6-49 °C"
    }
}