{
    "cas_no": "32002-24-7",
    "key_name": "Ethyl 3,3-diethoxy-2-propenoate",
    "cn_name": "3,3-二乙氧基丙烯酸乙酯;",
    "alternate_name": "2-Propenoic acid, 3,3-diethoxy-, ethyl ester;Acrylic acid, 3-oxo-, ethyl ester, diethyl acetal;Ethyl 3,3-diethoxy-2-propenoate;Ethyl β,β-diethoxyacrylate;Carbethoxyketene diethyl acetal;Ethyl 3,3-diethoxyacrylate;3,3-Diethoxyacrylic acid ethyl ester",
    "duplicated_cas_no": "",
    "SMILES": "C(=CC(OCC)=O)(OCC)OCC",
    "meta_data": {
        "InChI": "InChI=1S/C9H16O4/c1-4-11-8(10)7-9(12-5-2)13-6-3/h7H,4-6H2,1-3H3",
        "InChIKey": null,
        "Canonical SMILES": "O=C(OCC)C=C(OCC)OCC",
        "Molecular Formula": "C<sub>9</sub>H<sub>16</sub>O<sub>4</sub>",
        "Molecular Mass": "188.22",
        "Boiling Point": "127.8-128.2 °C @ Press: 13 Torr",
        "Density": "1.0350 g/cm³ @ Temp: 13 °C"
    }
}