{
    "cas_no": "3188-00-9",
    "key_name": "Dihydro-2-methyl-3(2<em>H</em>)-furanone",
    "cn_name": "2-甲基四氢呋喃-3-酮;",
    "alternate_name": "3(2<em>H</em>)-Furanone, dihydro-2-methyl-;Dihydro-2-methyl-3(2<em>H</em>)-furanone;2-Methyltetrahydrofuran-3-one;2-Methyl-3-ketotetrahydrofuran;Dihydro-2-methyl-3-furanone;2-Methyl-3-oxotetrahydrofuran;2-Methyl-2<em>H</em>-furan-3-one;2-Methyloxolan-3-one;2-Methyldihydrofuran-3(2<em>H</em>)-one;2-Methyldihydrofuran-3-one;2-Methyltetrahydrofuran-3-ketone",
    "duplicated_cas_no": "159551-39-0",
    "SMILES": "O=C1C(C)OCC1",
    "meta_data": {
        "InChI": "InChI=1S/C5H8O2/c1-4-5(6)2-3-7-4/h4H,2-3H2,1H3",
        "InChIKey": null,
        "Canonical SMILES": "O=C1CCOC1C",
        "Molecular Formula": "C<sub>5</sub>H<sub>8</sub>O<sub>2</sub>",
        "Molecular Mass": "100.12",
        "Boiling Point": "139 °C"
    }
}