{
    "cas_no": "109008-28-8",
    "key_name": "Mauritianin",
    "cn_name": null,
    "alternate_name": "4<em>H</em>-1-Benzopyran-4-one, 3-[(<em>O</em>-6-deoxy-α-<span class=\"text-smallcaps\">L</smallcap>-mannopyranosyl-(1→2)-<em>O</em>-[6-deoxy-α-<smallcap>L</smallcap>-mannopyranosyl-(1→6)]-β-<smallcap>D</span>-galactopyranosyl)oxy]-5,7-dihydroxy-2-(4-hydroxyphenyl)-;3-[(<em>O</em>-6-Deoxy-α-<span class=\"text-smallcaps\">L</smallcap>-mannopyranosyl-(1→2)-<em>O</em>-[6-deoxy-α-<smallcap>L</smallcap>-mannopyranosyl-(1→6)]-β-<smallcap>D</span>-galactopyranosyl)oxy]-5,7-dihydroxy-2-(4-hydroxyphenyl)-4<em>H</em>-1-benzopyran-4-one;Mauritianin",
    "duplicated_cas_no": "216157-85-6;1214731-11-9",
    "SMILES": "O(C1=C(OC=2C(C1=O)=C(O)C=C(O)C2)C3=CC=C(O)C=C3)[C@H]4[C@H](O[C@H]5[C@H](O)[C@H](O)[C@@H](O)[C@H](C)O5)[C@@H](O)[C@@H](O)[C@@H](CO[C@H]6[C@H](O)[C@H](O)[C@@H](O)[C@H](C)O6)O4",
    "meta_data": {
        "InChI": "InChI=1S/C33H40O19/c1-10-19(37)23(41)26(44)31(47-10)46-9-17-21(39)25(43)30(52-32-27(45)24(42)20(38)11(2)48-32)33(50-17)51-29-22(40)18-15(36)7-14(35)8-16(18)49-28(29)12-3-5-13(34)6-4-12/h3-8,10-11,17,19-21,23-27,30-39,41-45H,9H2,1-2H3/t10-,11-,17+,19-,20-,21-,23+,24+,25-,26+,27+,30+,31+,32-,33-/m0/s1",
        "InChIKey": null,
        "Canonical SMILES": "O=C1C(OC2OC(COC3OC(C)C(O)C(O)C3O)C(O)C(O)C2OC4OC(C)C(O)C(O)C4O)=C(OC=5C=C(O)C=C(O)C15)C=6C=CC(O)=CC6",
        "Molecular Formula": "C<sub>33</sub>H<sub>40</sub>O<sub>19</sub>",
        "Molecular Mass": "740.66",
        "Melting Point": "196-198 °C"
    }
}