{
    "cas_no": "142-18-7",
    "key_name": "1-Monolaurin",
    "cn_name": "月桂酸甘油酯;十二酸-2,3-二羟基丙酯;十二酸单甘油酯;",
    "alternate_name": "Dodecanoic acid, 2,3-dihydroxypropyl ester;Laurin, 1-mono-;Glycerol 1-monolaurate;Glyceryl monolaurate;α-Monolaurin;1-Monolaurin;Glycerol α-monolaurate;Lauric acid 1-monoglyceride;Glycerin 1-monolaurate;Glyceryl monododecanoate;1-Glyceryl laurate;Lauric acid α-monoglyceride;Glyceryl laurate;Lauricidin;Dodecanoic acid α-monoglyceride;Glycerol 1-laurate;1-Monododecanoylglycerol;(±)-Glyceryl 1-monododecanoate;1-Monolauroyl-<em>rac</em>-glycerol;(±)-2,3-Dihydroxypropyl dodecanoate;3-Dodecanoyloxy-1,2-propanediol;NSC 698570;Glycerol 1-monododecanoate;2,3-Dihydroxypropyl dodecanoate",
    "duplicated_cas_no": "40738-26-9",
    "SMILES": "C(C(OCC(CO)O)=O)CCCCCCCCCC",
    "meta_data": {
        "InChI": "InChI=1S/C15H30O4/c1-2-3-4-5-6-7-8-9-10-11-15(18)19-13-14(17)12-16/h14,16-17H,2-13H2,1H3",
        "InChIKey": null,
        "Canonical SMILES": "O=C(OCC(O)CO)CCCCCCCCCCC",
        "Molecular Formula": "C<sub>15</sub>H<sub>30</sub>O<sub>4</sub>",
        "Molecular Mass": "274.40",
        "Melting Point": "52 °C"
    }
}