{
    "cas_no": "614-27-7",
    "key_name": "Methyl benzoylacetate",
    "cn_name": "苯甲酰乙酸甲酯;",
    "alternate_name": "Benzenepropanoic acid, β-oxo-, methyl ester;Acetic acid, benzoyl-, methyl ester;Methyl benzoylacetate;Methyl β-oxobenzenepropanoate;Methyl 3-phenyl-3-oxopropanoate;3-Oxo-3-phenylpropionic acid methyl ester;Methyl 3-oxo-3-phenylpropionate;Methyl 3-oxo-3-phenylpropanoate;β-Oxobenzenepropanoic acid methyl ester;NSC 407764;Methyl 2-benzoylacetate;Peplidiforone D",
    "duplicated_cas_no": "",
    "SMILES": "C(CC(OC)=O)(=O)C1=CC=CC=C1",
    "meta_data": {
        "InChI": "InChI=1S/C10H10O3/c1-13-10(12)7-9(11)8-5-3-2-4-6-8/h2-6H,7H2,1H3",
        "InChIKey": null,
        "Canonical SMILES": "O=C(OC)CC(=O)C=1C=CC=CC1",
        "Molecular Formula": "C<sub>10</sub>H<sub>10</sub>O<sub>3</sub>",
        "Molecular Mass": "178.18",
        "Boiling Point": "140-141 °C @ Press: 23 Torr",
        "Melting Point": "30-40 °C",
        "Density": "1.173 g/cm³ @ Temp: 0 °C"
    }
}