{
    "cas_no": "936329-95-2",
    "key_name": "Borate(1-), [(diethylamino)methyl]trifluoro-, potassium (1:1), (<em>T</em>-4)-",
    "cn_name": null,
    "alternate_name": "Borate(1-), [(diethylamino)methyl]trifluoro-, potassium (1:1), (<em>T</em>-4)-",
    "duplicated_cas_no": "",
    "SMILES": "[CH2-](N(CC)CC)[B+3]([F-])([F-])[F-].[K+]",
    "meta_data": {
        "InChI": "InChI=1S/C5H12BF3N.K/c1-3-10(4-2)5-6(7,8)9;/h3-5H2,1-2H3;/q-1;+1",
        "InChIKey": null,
        "Canonical SMILES": "[K+].[F-][B+3]([F-])([F-])[CH2-]N(CC)CC",
        "Molecular Formula": "C<sub>5</sub>H<sub>12</sub>BF<sub>3</sub>N.K",
        "Molecular Mass": "",
        "Melting Point": "100-102 °C"
    }
}