{
    "cas_no": "23616-79-7",
    "key_name": "Benzyltributylammonium chloride",
    "cn_name": "苄基三丁基氯化铵;",
    "alternate_name": "Benzenemethanaminium, <em>N</em>,<em>N</em>,<em>N</em>-tributyl-, chloride (1:1);Ammonium, benzyltributyl-, chloride;Benzenemethanaminium, <em>N</em>,<em>N</em>,<em>N</em>-tributyl-, chloride;Tributylbenzylammonium chloride;Benzyltributylammonium chloride;Tri-<em>n</em>-butylbenzylammonium chloride;Benzyltri<em>n</em>-butylammonium chloride;<em>N</em>,<em>N</em>,<em>N</em>-Tributyl-<em>N</em>-benzylammonium chloride;QBA 444;BTBAC 50",
    "duplicated_cas_no": "",
    "SMILES": "[N+](CC1=CC=CC=C1)(CCCC)(CCCC)CCCC.[Cl-]",
    "meta_data": {
        "InChI": "InChI=1S/C19H34N.ClH/c1-4-7-15-20(16-8-5-2,17-9-6-3)18-19-13-11-10-12-14-19;/h10-14H,4-9,15-18H2,1-3H3;1H/q+1;/p-1",
        "InChIKey": null,
        "Canonical SMILES": "[Cl-].C=1C=CC(=CC1)C[N+](CCCC)(CCCC)CCCC",
        "Molecular Formula": "C<sub>19</sub>H<sub>34</sub>N.Cl",
        "Molecular Mass": "",
        "Melting Point": "157 °C"
    }
}