{
    "cas_no": "75-77-4",
    "key_name": "Chlorotrimethylsilane",
    "cn_name": "三甲基氯硅烷;氯化三甲基硅烷;",
    "alternate_name": "Silane, chlorotrimethyl-;Chlorotrimethylsilane;Trimethylchlorosilane;Trimethylsilyl chloride;Trimethylsilicon chloride;Monochlorotrimethylsilicon;Trimethylsilane chloride;TSL 8031;Monochlorotrimethylsilane;KA 31;KA 31 (silane);NSC 15750;TMCS;LS 260;TMSCl",
    "duplicated_cas_no": "127290-36-2;36642-33-8",
    "SMILES": "[Si](C)(C)(C)Cl",
    "meta_data": {
        "InChI": "InChI=1S/C3H9ClSi/c1-5(2,3)4/h1-3H3",
        "InChIKey": null,
        "Canonical SMILES": "Cl[Si](C)(C)C",
        "Molecular Formula": "C<sub>3</sub>H<sub>9</sub>ClSi",
        "Molecular Mass": "108.64",
        "Boiling Point": "57 °C",
        "Melting Point": "-57.7 °C",
        "Density": "0.854 g/cm³ @ Temp: 25 °C"
    }
}