{
    "cas_no": "541-91-3",
    "key_name": "(±)-Muscone",
    "cn_name": "酮麝香;麝香酮;3-甲基环十五酮;",
    "alternate_name": "Cyclopentadecanone, 3-methyl-;Muscone;3-Methylcyclopentadecanone;Muskone;Moschus ketone;(±)-Muscone;<em>dl</em>-Muscone;3-Methylcyclopentadecan-1-one",
    "duplicated_cas_no": "956-82-1;22460-48-6",
    "SMILES": "CC1CC(=O)CCCCCCCCCCCC1",
    "meta_data": {
        "InChI": "InChI=1S/C16H30O/c1-15-12-10-8-6-4-2-3-5-7-9-11-13-16(17)14-15/h15H,2-14H2,1H3",
        "InChIKey": null,
        "Canonical SMILES": "O=C1CCCCCCCCCCCCC(C)C1",
        "Molecular Formula": "C<sub>16</sub>H<sub>30</sub>O",
        "Molecular Mass": "238.41",
        "Boiling Point": "130 °C @ Press: 0.5 Torr",
        "Density": "0.9921 g/cm³ @ Temp: 17 °C"
    }
}