{
    "cas_no": "15441-06-2",
    "key_name": "Dimethyl 3,3′-dithiobis[propanoate]",
    "cn_name": "3,3\"-二硫代二丙酸二甲酯;",
    "alternate_name": "Propanoic acid, 3,3′-dithiobis-, dimethyl ester;Propionic acid, 3,3′-dithiodi-, dimethyl ester;Dimethyl 3,3′-dithiobis[propanoate];Dimethyl 3,3′-dithiodipropionate;Bis(methoxycarbonylethyl) disulfide;3,3′-Dithiodipropionic acid dimethyl ester;NSC 638709;Bis[2-(methoxycarbonyl)ethyl] disulfide",
    "duplicated_cas_no": "",
    "SMILES": "C(CCSSCCC(OC)=O)(OC)=O",
    "meta_data": {
        "InChI": "InChI=1S/C8H14O4S2/c1-11-7(9)3-5-13-14-6-4-8(10)12-2/h3-6H2,1-2H3",
        "InChIKey": null,
        "Canonical SMILES": "O=C(OC)CCSSCCC(=O)OC",
        "Molecular Formula": "C<sub>8</sub>H<sub>14</sub>O<sub>4</sub>S<sub>2</sub>",
        "Molecular Mass": "238.32",
        "Boiling Point": "134 °C @ Press: 6.5 Torr",
        "Density": "1.1825 g/cm³ @ Temp: 20 °C"
    }
}