{
    "cas_no": "458-03-7",
    "key_name": "1-Ethoxy-3-fluorobenzene",
    "cn_name": "间氟苯乙醚;3-氟苯乙醚;",
    "alternate_name": "Benzene, 1-ethoxy-3-fluoro-;Phenetole, <em>m</em>-fluoro-;1-Ethoxy-3-fluorobenzene;3-Fluorophenetole;m-Fluorophenyl ethyl ether",
    "duplicated_cas_no": "",
    "SMILES": "O(CC)C1=CC(F)=CC=C1",
    "meta_data": {
        "InChI": "InChI=1S/C8H9FO/c1-2-10-8-5-3-4-7(9)6-8/h3-6H,2H2,1H3",
        "InChIKey": null,
        "Canonical SMILES": "FC1=CC=CC(OCC)=C1",
        "Molecular Formula": "C<sub>8</sub>H<sub>9</sub>FO",
        "Molecular Mass": "140.15",
        "Boiling Point": "172 °C",
        "Melting Point": "-27.5 °C",
        "Density": "1.0716 g/cm³ @ Temp: 18.4 °C"
    }
}