{
    "cas_no": "15811-32-2",
    "key_name": "Adenosine, 2-fluoro-, 2′,3′,5′-triacetate",
    "cn_name": "2-氟-2\",3\",5\"-三氧乙酰基腺苷;2-氟-2\",3\",5\"-三氧乙酰基腺甙;",
    "alternate_name": "Adenosine, 2-fluoro-, 2′,3′,5′-triacetate;NSC 108853;2′,3′,5′-Tri-<em>O</em>-acetyl-2-fluoroadenosine",
    "duplicated_cas_no": "",
    "SMILES": "O(C(C)=O)[C@H]1[C@@H](O[C@H](COC(C)=O)[C@H]1OC(C)=O)N2C=3C(N=C2)=C(N)N=C(F)N3",
    "meta_data": {
        "InChI": "InChI=1S/C16H18FN5O7/c1-6(23)26-4-9-11(27-7(2)24)12(28-8(3)25)15(29-9)22-5-19-10-13(18)20-16(17)21-14(10)22/h5,9,11-12,15H,4H2,1-3H3,(H2,18,20,21)/t9-,11-,12-,15-/m1/s1",
        "InChIKey": null,
        "Canonical SMILES": "O=C(OCC1OC(N2C=NC=3C(=NC(F)=NC32)N)C(OC(=O)C)C1OC(=O)C)C",
        "Molecular Formula": "C<sub>16</sub>H<sub>18</sub>FN<sub>5</sub>O<sub>7</sub>",
        "Molecular Mass": "411.34",
        "Melting Point": "210-212 °C"
    }
}