{
    "cas_no": "499-83-2",
    "key_name": "2,6-Pyridinedicarboxylic acid",
    "cn_name": "吡啶-2,6-二甲酸;2,6-吡啶二甲酸;",
    "alternate_name": "2,6-Pyridinedicarboxylic acid;Dipicolinic acid;DPAc;2,6-Dicarboxypyridine;2,6-Dipicolinic acid;DPA;6-Carboxypicolinic acid;NSC 176;Pyridine-2,6-diformic acid;Pyridine-2,6-dicarboxylic acid;2,6-PDA",
    "duplicated_cas_no": "",
    "SMILES": "C(O)(=O)C=1N=C(C(O)=O)C=CC1",
    "meta_data": {
        "InChI": "InChI=1S/C7H5NO4/c9-6(10)4-2-1-3-5(8-4)7(11)12/h1-3H,(H,9,10)(H,11,12)",
        "InChIKey": null,
        "Canonical SMILES": "O=C(O)C=1N=C(C=CC1)C(=O)O",
        "Molecular Formula": "C<sub>7</sub>H<sub>5</sub>NO<sub>4</sub>",
        "Molecular Mass": "167.12",
        "Melting Point": "249 °C (decomp)"
    }
}