{
    "cas_no": "17626-40-3",
    "key_name": "3,4-Diaminobenzonitrile",
    "cn_name": "3,4-二氨基苯甲腈;",
    "alternate_name": "Benzonitrile, 3,4-diamino-;3,4-Diaminobenzonitrile;4-Cyano-1,2-diaminobenzene;2-Amino-4-cyanoaniline;4-Cyano-<em>o</em>-phenylenediamine;1,2-Diamino-4-cyanobenzene;4-Cyano-1,2-benzenediamine;4-Cyano-1,2-phenylenediamine",
    "duplicated_cas_no": "",
    "SMILES": "C(#N)C1=CC(N)=C(N)C=C1",
    "meta_data": {
        "InChI": "InChI=1S/C7H7N3/c8-4-5-1-2-6(9)7(10)3-5/h1-3H,9-10H2",
        "InChIKey": null,
        "Canonical SMILES": "N#CC1=CC=C(N)C(N)=C1",
        "Molecular Formula": "C<sub>7</sub>H<sub>7</sub>N<sub>3</sub>",
        "Molecular Mass": "133.15",
        "Melting Point": "147.5 °C"
    }
}