{
    "cas_no": "27514-08-5",
    "key_name": "4-Acetamidocyclohexanone",
    "cn_name": "4-乙酰氨基环己酮;",
    "alternate_name": "Acetamide, <em>N</em>-(4-oxocyclohexyl)-;<em>N</em>-(4-Oxocyclohexyl)acetamide;4-Acetamidocyclohexanone;4-(Acetylamino)cyclohexanone",
    "duplicated_cas_no": "",
    "SMILES": "N(C(C)=O)C1CCC(=O)CC1",
    "meta_data": {
        "InChI": "InChI=1S/C8H13NO2/c1-6(10)9-7-2-4-8(11)5-3-7/h7H,2-5H2,1H3,(H,9,10)",
        "InChIKey": null,
        "Canonical SMILES": "O=C(NC1CCC(=O)CC1)C",
        "Molecular Formula": "C<sub>8</sub>H<sub>13</sub>NO<sub>2</sub>",
        "Molecular Mass": "155.19",
        "Melting Point": "134-135 °C"
    }
}