{
    "cas_no": "409345-29-5",
    "key_name": "(3,4-Dihydro-2<em>H</em>-pyrano[2,3-<em>b</em>]quinolin-7-yl)(<em>cis</em>-4-methoxycyclohexyl)methanone",
    "cn_name": null,
    "alternate_name": "Methanone, (3,4-dihydro-2<em>H</em>-pyrano[2,3-<em>b</em>]quinolin-7-yl)(<em>cis</em>-4-methoxycyclohexyl)-;(3,4-Dihydro-2<em>H</em>-pyrano[2,3-<em>b</em>]quinolin-7-yl)(<em>cis</em>-4-methoxycyclohexyl)methanone;JNJ 16259685",
    "duplicated_cas_no": "",
    "SMILES": "C(=O)(C1=CC2=C(N=C3C(=C2)CCCO3)C=C1)[C@H]4CC[C@@H](OC)CC4",
    "meta_data": {
        "InChI": "InChI=1/C20H23NO3/c1-23-17-7-4-13(5-8-17)19(22)14-6-9-18-16(11-14)12-15-3-2-10-24-20(15)21-18/h6,9,11-13,17H,2-5,7-8,10H2,1H3/t13-,17+",
        "InChIKey": null,
        "Canonical SMILES": "O=C(C=1C=CC2=NC=3OCCCC3C=C2C1)C4CCC(OC)CC4",
        "Molecular Formula": "C<sub>20</sub>H<sub>23</sub>NO<sub>3</sub>",
        "Molecular Mass": "325.40",
        "Melting Point": "115 °C"
    }
}