{
    "cas_no": "3234-85-3",
    "key_name": "Myristyl myristate",
    "cn_name": "十四(烷)酸十四烷基酯;肉豆蔻酸肉豆蔻酯;Goodway MME-01;十四酸十四酯;",
    "alternate_name": "Tetradecanoic acid, tetradecyl ester;Myristic acid, tetradecyl ester;1-Tetradecanol, myristate;Tetradecyl tetradecanoate;Myristyl myristate;Cyclochem MM;Ceraphyl 424;Tetradecyl myristate;Crodamol MM;Liponate MM;Cetiol MM;Alkamuls MM/M;Exceparl MY-M;Schercemol MM;Tegosoft MM;Nikkol MM;Super Refined Crodamol MM-SO-(JP);Radia 7744",
    "duplicated_cas_no": "",
    "SMILES": "C(OCCCCCCCCCCCCCC)(CCCCCCCCCCCCC)=O",
    "meta_data": {
        "InChI": "InChI=1S/C28H56O2/c1-3-5-7-9-11-13-15-17-19-21-23-25-27-30-28(29)26-24-22-20-18-16-14-12-10-8-6-4-2/h3-27H2,1-2H3",
        "InChIKey": null,
        "Canonical SMILES": "O=C(OCCCCCCCCCCCCCC)CCCCCCCCCCCCC",
        "Molecular Formula": "C<sub>28</sub>H<sub>56</sub>O<sub>2</sub>",
        "Molecular Mass": "424.74",
        "Melting Point": "37.4 °C"
    }
}