{
    "cas_no": "52099-72-6",
    "key_name": "1,3-Dihydro-1-(1-methylethenyl)-2<em>H</em>-benzimidazol-2-one",
    "cn_name": "1-异丙烯基-2-苯并咪唑酮;",
    "alternate_name": "2<em>H</em>-Benzimidazol-2-one, 1,3-dihydro-1-(1-methylethenyl)-;2-Benzimidazolinone, 1-isopropenyl-;1,3-Dihydro-1-(1-methylethenyl)-2<em>H</em>-benzimidazol-2-one;<em>N</em>-Isopropenyl-2-benzimidazolone;1-Isopropenyl-2-benzimidazolidinone;1-Isopropenyl-2-benzimidazolone;NSC 280600;1-Isopropenyl-1,3-dihydro-2<em>H</em>-benzimidazol-2-one;1-Isopropenyl-1<em>H</em>-benzoimidazol-2-ol;1-(Prop-1-en-2-yl)-2,3-dihydro-1<em>H</em>-1,3-benzodiazol-2-one;1-(Prop-1-en-2-yl)-1<em>H</em>-benzo[<em>d</em>]imidazol-2(3<em>H</em>)-one;1-(Prop-1-en-2-yl)-1<em>H</em>-1,3-benzodiazol-2-ol;3-Prop-1-en-2-yl-1<em>H</em>-benzimidazol-2-one",
    "duplicated_cas_no": "",
    "SMILES": "C(C)(=C)N1C=2C(NC1=O)=CC=CC2",
    "meta_data": {
        "InChI": "InChI=1S/C10H10N2O/c1-7(2)12-9-6-4-3-5-8(9)11-10(12)13/h3-6H,1H2,2H3,(H,11,13)",
        "InChIKey": null,
        "Canonical SMILES": "O=C1NC=2C=CC=CC2N1C(=C)C",
        "Molecular Formula": "C<sub>10</sub>H<sub>10</sub>N<sub>2</sub>O",
        "Molecular Mass": "174.20",
        "Melting Point": "121-122 °C"
    }
}