{
    "cas_no": "525-66-6",
    "key_name": "Propranolol",
    "cn_name": "普萘洛尔;1-异丙基氨基-3-(萘-1-氧基)丙-2-醇;",
    "alternate_name": "2-Propanol, 1-[(1-methylethyl)amino]-3-(1-naphthalenyloxy)-;2-Propanol, 1-(isopropylamino)-3-(1-naphthyloxy)-;1-[(1-Methylethyl)amino]-3-(1-naphthalenyloxy)-2-propanol;1-(Isopropylamino)-3-(1-naphthyloxy)-2-propanol;Propranolol;β-Propranolol;1-(1-Naphthyloxy)-3-(isopropylamino)-2-propanol;Proprasylyt;Reducor;Betalong;<em>dl</em>-Propranolol;(±)-Propranolol;Racemic propranolol;<span class=\"text-smallcaps\">DL</span>-Propranolol;AY 64043;Euprovasin;Innopran XL;3-(Naphth-1-yloxy)-1-(isopropylamino)propan-2-ol;1-Isopropylamino-3-naphthalen-1-yloxypropan-2-ol;[2-Hydroxy-3-(naphthalen-1-yloxy)propyl](propan-2-yl)amine;1-(Naphthalen-1-yloxy)-3-[(propan-2-yl)amino]propan-2-ol;MeSH ID: D011433",
    "duplicated_cas_no": "13013-17-7",
    "SMILES": "O(CC(CNC(C)C)O)C=1C2=C(C=CC1)C=CC=C2",
    "meta_data": {
        "InChI": "InChI=1S/C16H21NO2/c1-12(2)17-10-14(18)11-19-16-9-5-7-13-6-3-4-8-15(13)16/h3-9,12,14,17-18H,10-11H2,1-2H3",
        "InChIKey": null,
        "Canonical SMILES": "OC(COC1=CC=CC=2C=CC=CC12)CNC(C)C",
        "Molecular Formula": "C<sub>16</sub>H<sub>21</sub>NO<sub>2</sub>",
        "Molecular Mass": "259.34",
        "Melting Point": "96 °C",
        "Density": "0.44 g/cm³"
    }
}