{
    "cas_no": "429659-01-8",
    "key_name": "<em>N</em>-[4-(Methylamino)-3-nitrobenzoyl]-<em>N</em>-2-pyridinyl-β-alanine ethyl ester",
    "cn_name": null,
    "alternate_name": "β-Alanine, <em>N</em>-[4-(methylamino)-3-nitrobenzoyl]-<em>N</em>-2-pyridinyl-, ethyl ester;<em>N</em>-[4-(Methylamino)-3-nitrobenzoyl]-<em>N</em>-2-pyridinyl-β-alanine ethyl ester;Ethyl 3-[[4-(methylamino)-3-nitrobenzoyl](pyridin-2-yl)amino]propanoate",
    "duplicated_cas_no": "",
    "SMILES": "N(C(=O)C1=CC(N(=O)=O)=C(NC)C=C1)(CCC(OCC)=O)C2=CC=CC=N2",
    "meta_data": {
        "InChI": "InChI=1S/C18H20N4O5/c1-3-27-17(23)9-11-21(16-6-4-5-10-20-16)18(24)13-7-8-14(19-2)15(12-13)22(25)26/h4-8,10,12,19H,3,9,11H2,1-2H3",
        "InChIKey": null,
        "Canonical SMILES": "O=C(OCC)CCN(C(=O)C1=CC=C(NC)C(=C1)N(=O)=O)C2=NC=CC=C2",
        "Molecular Formula": "C<sub>18</sub>H<sub>20</sub>N<sub>4</sub>O<sub>5</sub>",
        "Molecular Mass": "372.38",
        "Melting Point": "86-88 °C"
    }
}