{
    "cas_no": "53112-28-0",
    "key_name": "Pyrimethanil",
    "cn_name": "嘧霉胺;N-(4,6-二甲基嘧啶-2-基)苯胺;",
    "alternate_name": "2-Pyrimidinamine, 4,6-dimethyl-<em>N</em>-phenyl-;4,6-Dimethyl-<em>N</em>-phenyl-2-pyrimidinamine;2-Anilino-4,6-dimethylpyrimidine;Pyrimethanil;Scala;Mythos;<em>N</em>-(4,6-Dimethylpyrimidin-2-yl)aniline;Penbotec;Siganex;Xedathane 20;Mythos 300SC",
    "duplicated_cas_no": "",
    "SMILES": "N(C=1N=C(C)C=C(C)N1)C2=CC=CC=C2",
    "meta_data": {
        "InChI": "InChI=1S/C12H13N3/c1-9-8-10(2)14-12(13-9)15-11-6-4-3-5-7-11/h3-8H,1-2H3,(H,13,14,15)",
        "InChIKey": null,
        "Canonical SMILES": "N=1C(=NC(=CC1C)C)NC=2C=CC=CC2",
        "Molecular Formula": "C<sub>12</sub>H<sub>13</sub>N<sub>3</sub>",
        "Molecular Mass": "199.25",
        "Melting Point": "96.3 °C",
        "Density": "1.15 g/cm³ @ Temp: 20 °C"
    }
}