{
    "cas_no": "118-91-2",
    "key_name": "2-Chlorobenzoic acid",
    "cn_name": "2-氯苯甲酸;邻氯苯甲酸;",
    "alternate_name": "Benzoic acid, 2-chloro-;Benzoic acid, <em>o</em>-chloro-;2-Chlorobenzoic acid;2-CBA;<em>o</em>-Chlorobenzoic acid;NSC 15042;NSC 32737",
    "duplicated_cas_no": "",
    "SMILES": "C(O)(=O)C1=C(Cl)C=CC=C1",
    "meta_data": {
        "InChI": "InChI=1S/C7H5ClO2/c8-6-4-2-1-3-5(6)7(9)10/h1-4H,(H,9,10)",
        "InChIKey": null,
        "Canonical SMILES": "O=C(O)C=1C=CC=CC1Cl",
        "Molecular Formula": "C<sub>7</sub>H<sub>5</sub>ClO<sub>2</sub>",
        "Molecular Mass": "156.57",
        "Boiling Point": "287 °C",
        "Melting Point": "142 °C",
        "Density": "1.544 g/cm³ @ Temp: 20 °C"
    }
}