{
    "cas_no": "14003-66-8",
    "key_name": "5-Methyl-4-nitroimidazole",
    "cn_name": "4-甲基-5-硝基咪唑;",
    "alternate_name": "1<em>H</em>-Imidazole, 4-methyl-5-nitro-;Imidazole, 4-methyl-5-nitro-;Imidazole, 4(<em>or</em> 5)-methyl-5(<em>or</em> 4)-nitro-;4-Methyl-5-nitro-1<em>H</em>-imidazole;4-Methyl-5-nitroimidazole;5-Methyl-4-nitroimidazole;RP 8549;NSC 156634",
    "duplicated_cas_no": "",
    "SMILES": "N(=O)(=O)C1=C(C)N=CN1",
    "meta_data": {
        "InChI": "InChI=1S/C4H5N3O2/c1-3-4(7(8)9)6-2-5-3/h2H,1H3,(H,5,6)",
        "InChIKey": null,
        "Canonical SMILES": "O=N(=O)C=1NC=NC1C",
        "Molecular Formula": "C<sub>4</sub>H<sub>5</sub>N<sub>3</sub>O<sub>2</sub>",
        "Molecular Mass": "127.10",
        "Melting Point": "242-245 °C"
    }
}