{
    "cas_no": "538-62-5",
    "key_name": "Diphenylcarbazone",
    "cn_name": "1,5-二苯基缩二氨基脲;二苯偶氮碳酰肼;二苯基卡巴腙;二苯卡巴腙;对称苯肼羰偶氮苯;二苯缩氨脲;",
    "alternate_name": "Diazenecarboxylic acid, 2-phenyl-, 2-phenylhydrazide;Formic acid, (phenylazo)-, 2-phenylhydrazide;Diazenecarboxylic acid, phenyl-, 2-phenylhydrazide;Diphenylcarbazone;<em>s</em>-Diphenylcarbazone;Hydrazinecarboxamide, 2-phenyl-<em>N</em>-(phenylimino)-;1,5-Diphenylcarbazone;Diazenecarbohydrazonic acid, <em>N</em>,2-diphenyl-;3-Hydroxy-1,5-diphenylformazan;1-Anilino-3-phenyliminourea",
    "duplicated_cas_no": "15102-05-3",
    "SMILES": "N(NC(N=NC1=CC=CC=C1)=O)C2=CC=CC=C2",
    "meta_data": {
        "InChI": "InChI=1S/C13H12N4O/c18-13(16-14-11-7-3-1-4-8-11)17-15-12-9-5-2-6-10-12/h1-10,14H,(H,16,18)",
        "InChIKey": null,
        "Canonical SMILES": "O=C(N=NC=1C=CC=CC1)NNC=2C=CC=CC2",
        "Molecular Formula": "C<sub>13</sub>H<sub>12</sub>N<sub>4</sub>O",
        "Molecular Mass": "240.26",
        "Melting Point": "157 °C (decomp)"
    }
}