{
    "cas_no": "4016-14-2",
    "key_name": "2-[(1-Methylethoxy)methyl]oxirane",
    "cn_name": "异丙基缩水甘油醚;2,3-环氧丙基异丙醚;",
    "alternate_name": "Oxirane, 2-[(1-methylethoxy)methyl]-;Propane, 1,2-epoxy-3-isopropoxy-;Oxirane, [(1-methylethoxy)methyl]-;2-[(1-Methylethoxy)methyl]oxirane;Glycidyl isopropyl ether;3-Isopropoxy-1,2-epoxypropane;(Isopropoxymethyl)oxirane;Isopropyl glycidyl ether;3-Isopropyloxypropylene oxide;1,2-Epoxy-3-isopropoxypropane;2,3-Epoxypropyl isopropyl ether;(±)-Glycidyl isopropyl ether;(Isopropyloxymethyl)oxirane;[(1-Methylethoxy)methyl]oxirane;NSC 4127;NSC 46562;2-(Isopropoxymethyl)oxirane;3-(Isopropoxy)propylene epoxide;2-[(Propan-2-yloxy)methyl]oxirane;2-(Propan-2-yloxymethyl)oxirane",
    "duplicated_cas_no": "126753-03-5",
    "SMILES": "C(OC(C)C)C1CO1",
    "meta_data": {
        "InChI": "InChI=1S/C6H12O2/c1-5(2)7-3-6-4-8-6/h5-6H,3-4H2,1-2H3",
        "InChIKey": null,
        "Canonical SMILES": "O(CC1OC1)C(C)C",
        "Molecular Formula": "C<sub>6</sub>H<sub>12</sub>O<sub>2</sub>",
        "Molecular Mass": "116.16",
        "Boiling Point": "137 °C @ Press: 760 Torr",
        "Density": "0.9186 g/cm³ @ Temp: 20 °C"
    }
}