{
    "cas_no": "140-82-9",
    "key_name": "2-[2-(Diethylamino)ethoxy]ethanol",
    "cn_name": "2-(2-二乙氨基乙氧基)乙醇;二乙氨基乙氧基乙醇;",
    "alternate_name": "Ethanol, 2-[2-(diethylamino)ethoxy]-;Ethanol, 2-(β-diethylaminoethoxy)-;2-[2-(Diethylamino)ethoxy]ethanol;2-(β-Diethylamino)ethoxyethanol;2-[2-(<em>N</em>,<em>N</em>-Diethylamino)ethoxy]ethanol;Diethyl[2-(2-hydroxyethoxy)ethyl]amine;NSC 163322;DEAE-EO;2-[2′-(Diethylamino)ethoxy]ethanol;2-[2-(Diethylamino)ethoxy]ethan-1-ol",
    "duplicated_cas_no": "",
    "SMILES": "N(CCOCCO)(CC)CC",
    "meta_data": {
        "InChI": "InChI=1S/C8H19NO2/c1-3-9(4-2)5-7-11-8-6-10/h10H,3-8H2,1-2H3",
        "InChIKey": null,
        "Canonical SMILES": "OCCOCCN(CC)CC",
        "Molecular Formula": "C<sub>8</sub>H<sub>19</sub>NO<sub>2</sub>",
        "Molecular Mass": "161.24",
        "Boiling Point": "221.5 °C",
        "Density": "0.9399 g/cm³ @ Temp: 25 °C"
    }
}