{
    "cas_no": "39769-09-0",
    "key_name": "4-Fluoro-<em>N</em>-[(4-fluorophenyl)methylene]benzenamine",
    "cn_name": null,
    "alternate_name": "Benzenamine, 4-fluoro-<em>N</em>-[(4-fluorophenyl)methylene]-;4-Fluoro-<em>N</em>-[(4-fluorophenyl)methylene]benzenamine;<em>N</em>-(4-Fluorophenyl)-<em>N</em>-[(4-fluorophenyl)methylene]amine;<em>N</em>-(4-Fluorophenylmethylene)-4-fluorobenzenamine;4-Fluoro-<em>N</em>-(4-fluorobenzylidene)aniline",
    "duplicated_cas_no": "",
    "SMILES": "C(=NC1=CC=C(F)C=C1)C2=CC=C(F)C=C2",
    "meta_data": {
        "InChI": "InChI=1S/C13H9F2N/c14-11-3-1-10(2-4-11)9-16-13-7-5-12(15)6-8-13/h1-9H",
        "InChIKey": null,
        "Canonical SMILES": "FC1=CC=C(N=CC2=CC=C(F)C=C2)C=C1",
        "Molecular Formula": "C<sub>13</sub>H<sub>9</sub>F<sub>2</sub>N",
        "Molecular Mass": "217.21",
        "Melting Point": "65 °C"
    }
}