{
    "cas_no": "1607-57-4",
    "key_name": "1-Bromo-1,2,2-triphenylethene",
    "cn_name": "三苯溴乙烯;",
    "alternate_name": "Benzene, 1,1′,1′′-(1-bromo-1-ethenyl-2-ylidene)tris-;Ethylene, bromotriphenyl-;1,1′,1′′-(1-Bromo-1-ethenyl-2-ylidene)tris[benzene];Triphenylethylene bromide;Eitriphin;1,2,2-Triphenylvinyl bromide;Bromotriphenylethylene;Bromotriphenylethene;Triphenylvinyl bromide;2-Bromo-1,1,2-triphenylethene;Triphenylethenyl bromide;NSC 38797;1-Bromotriphenylethylene;1-Bromo-1,2,2-triphenylethene;1-Bromo-1,2,2-triphenylethylene;Triphenylbromoethene;2-Bromo-1,1,2-triphenylethylene;1,1′,1′′-(2-Bromoethene-1,1,2-triyl)tribenzene;(1-Bromo-2,2-diphenylethenyl)benzene",
    "duplicated_cas_no": "",
    "SMILES": "C(=C(Br)C1=CC=CC=C1)(C2=CC=CC=C2)C3=CC=CC=C3",
    "meta_data": {
        "InChI": "InChI=1S/C20H15Br/c21-20(18-14-8-3-9-15-18)19(16-10-4-1-5-11-16)17-12-6-2-7-13-17/h1-15H",
        "InChIKey": null,
        "Canonical SMILES": "BrC(C=1C=CC=CC1)=C(C=2C=CC=CC2)C=3C=CC=CC3",
        "Molecular Formula": "C<sub>20</sub>H<sub>15</sub>Br",
        "Molecular Mass": "335.24",
        "Melting Point": "115 °C"
    }
}