{
    "cas_no": "25683-71-0",
    "key_name": "4,4′-[1,4-Phenylenebis(methylidynenitrilo)]bis[3-isoxazolidinone]",
    "cn_name": "特立齐酮Terizidone;",
    "alternate_name": "3-Isoxazolidinone, 4,4′-[1,4-phenylenebis(methylidynenitrilo)]bis-;3-Isoxazolidinone, 4,4′-[<em>p</em>-phenylenebis(methylidynenitrilo)]di-;4,4′-[1,4-Phenylenebis(methylidynenitrilo)]bis[3-isoxazolidinone];Terizidone;Terizidon;B 2360;Terivalidin",
    "duplicated_cas_no": "",
    "SMILES": "N(=CC1=CC=C(C=NC2C(=O)NOC2)C=C1)C3C(=O)NOC3",
    "meta_data": {
        "InChI": "InChI=1S/C14H14N4O4/c19-13-11(7-21-17-13)15-5-9-1-2-10(4-3-9)6-16-12-8-22-18-14(12)20/h1-6,11-12H,7-8H2,(H,17,19)(H,18,20)",
        "InChIKey": null,
        "Canonical SMILES": "O=C1NOCC1N=CC2=CC=C(C=NC3C(=O)NOC3)C=C2",
        "Molecular Formula": "C<sub>14</sub>H<sub>14</sub>N<sub>4</sub>O<sub>4</sub>",
        "Molecular Mass": "302.29",
        "Melting Point": "204-205 °C"
    }
}