{
    "cas_no": "3818-50-6",
    "key_name": "Bephenium hydroxynaphthoate",
    "cn_name": null,
    "alternate_name": "Benzenemethanaminium, <em>N</em>,<em>N</em>-dimethyl-<em>N</em>-(2-phenoxyethyl)-, 3-hydroxy-2-naphthalenecarboxylate (1:1);Benzyldimethyl(2-phenoxyethyl)ammonium 3-hydroxy-2-naphthoate;Ammonium, benzyldimethyl(2-phenoxyethyl)-, salt with 3-hydroxy-2-naphthoic acid (1:1);Benzenemethanaminium, <em>N</em>,<em>N</em>-dimethyl-<em>N</em>-(2-phenoxyethyl)-, salt with 3-hydroxy-2-naphthalenecarboxylic acid (1:1);2-Naphthoic acid, 3-hydroxy-, ion(1-), benzyldimethyl(2-phenoxyethyl)ammonium;2-Naphthalenecarboxylic acid, 3-hydroxy-, ion(1-), <em>N</em>,<em>N</em>-dimethyl-<em>N</em>-(2-phenoxyethyl)benzenemethanaminium;Alcopar;Alcopara;Bephenium 3-hydroxy-2-naphthoate;Naftamon;Bephenium hydroxynaphthoate;Frantin;Naphtamone;Naphtamon;Bephenamine hydroxynaphthoate;Bephenium embonate;Befen;Befeniol;Befenium;Debefenium;Fedal-Uncin;Lecibis;Nemex",
    "duplicated_cas_no": "",
    "SMILES": "C([N+](CCOC1=CC=CC=C1)(C)C)C2=CC=CC=C2.C([O-])(=O)C1=CC2=C(C=C1O)C=CC=C2",
    "meta_data": {
        "InChI": "InChI=1S/C17H22NO.C11H8O3/c1-18(2,15-16-9-5-3-6-10-16)13-14-19-17-11-7-4-8-12-17;12-10-6-8-4-2-1-3-7(8)5-9(10)11(13)14/h3-12H,13-15H2,1-2H3;1-6,12H,(H,13,14)/q+1;/p-1",
        "InChIKey": null,
        "Canonical SMILES": "O=C([O-])C1=CC=2C=CC=CC2C=C1O.O(C=1C=CC=CC1)CC[N+](C)(C)CC=2C=CC=CC2",
        "Molecular Formula": "C<sub>17</sub>H<sub>22</sub>NO.C<sub>11</sub>H<sub>7</sub>O<sub>3</sub>",
        "Molecular Mass": "",
        "Melting Point": "170-171 °C"
    }
}