{
    "cas_no": "31599-61-8",
    "key_name": "1-Iodo-3,4-dimethylbenzene",
    "cn_name": "3,4-二甲基碘苯;1,2-二甲基-4-碘代苯;",
    "alternate_name": "Benzene, 4-iodo-1,2-dimethyl-;<em>o</em>-Xylene, 4-iodo-;4-Iodo-1,2-dimethylbenzene;4-Iodo-<em>o</em>-xylene;1,2-Dimethyl-4-iodobenzene;1-Iodo-3,4-dimethylbenzene;3,4-Dimethyliodobenzene;3,4-Dimethylphenyl iodide;3,4-Dimethyl-1-iodobenzene",
    "duplicated_cas_no": "",
    "SMILES": "CC1=C(C)C=CC(I)=C1",
    "meta_data": {
        "InChI": "InChI=1S/C8H9I/c1-6-3-4-8(9)5-7(6)2/h3-5H,1-2H3",
        "InChIKey": null,
        "Canonical SMILES": "IC1=CC=C(C(=C1)C)C",
        "Molecular Formula": "C<sub>8</sub>H<sub>9</sub>I",
        "Molecular Mass": "232.06",
        "Boiling Point": "225 °C",
        "Melting Point": "228-235 °C"
    }
}