{
    "cas_no": "645-92-1",
    "key_name": "Ammeline",
    "cn_name": "4,6-二氨基-2-羟基-1,3,5-三嗪;三聚氰胺二酰胺;",
    "alternate_name": "1,3,5-Triazin-2(1<em>H</em>)-one, 4,6-diamino-;<em>s</em>-Triazin-2-ol, 4,6-diamino-;Ammeline;<em>s</em>-Triazin-2(1<em>H</em>)-one, 4,6-diamino-;4,6-Diamino-1,3,5-triazin-2(1<em>H</em>)-one;Ammelin;2,4-Diamino-6-hydroxy-<em>s</em>-triazine;2,4-Diamino-6-hydroxy-1,3,5-triazine;2-Hydroxy-4,6-diamino-<em>s</em>-triazine;4,6-Diamino-2-hydroxy-<em>s</em>-triazine;2,4-Diamino-1,3,5-triazin-6-one;Deethyldeisopropylhydroxyyatrazine;<em>s</em>-Diaminohydroxytriazine;2-Hydroxydesethyldesisopropylatrazine;GS 11791;NSC 9778;2,6-Diamino-1<em>H</em>-1,3,5-triazin-4-one",
    "duplicated_cas_no": "626-50-6;33684-20-7",
    "SMILES": "NC=1NC(N)=NC(=O)N1",
    "meta_data": {
        "InChI": "InChI=1S/C3H5N5O/c4-1-6-2(5)8-3(9)7-1/h(H5,4,5,6,7,8,9)",
        "InChIKey": null,
        "Canonical SMILES": "O=C1N=C(N)NC(=N1)N",
        "Molecular Formula": "C<sub>3</sub>H<sub>5</sub>N<sub>5</sub>O",
        "Molecular Mass": "127.10",
        "Melting Point": "&gt;290 °C"
    }
}