{
    "cas_no": "484-47-9",
    "key_name": "2,4,5-Triphenylimidazole",
    "cn_name": null,
    "alternate_name": "1<em>H</em>-Imidazole, 2,4,5-triphenyl-;Lophine;Imidazole, 2,4,5-triphenyl-;2,4,5-Triphenyl-1<em>H</em>-imidazole;2,4,5-Triphenylimidazole;2,4,5-Triphenyl-1,3-imidazole;Lophin;Triphendazole;NSC 62790;NSC 95931;T 0999;TPIZ",
    "duplicated_cas_no": "2408824-84-8",
    "SMILES": "C1(=C(N=C(N1)C2=CC=CC=C2)C3=CC=CC=C3)C4=CC=CC=C4",
    "meta_data": {
        "InChI": "InChI=1S/C21H16N2/c1-4-10-16(11-5-1)19-20(17-12-6-2-7-13-17)23-21(22-19)18-14-8-3-9-15-18/h1-15H,(H,22,23)",
        "InChIKey": null,
        "Canonical SMILES": "N1=C(NC(C=2C=CC=CC2)=C1C=3C=CC=CC3)C=4C=CC=CC4",
        "Molecular Formula": "C<sub>21</sub>H<sub>16</sub>N<sub>2</sub>",
        "Molecular Mass": "296.37",
        "Melting Point": "275 °C"
    }
}