{
    "cas_no": "12427-42-8",
    "key_name": "Cobaltocenium, hexafluorophosphate(1-) (1:1)",
    "cn_name": null,
    "alternate_name": "Cobaltocenium, hexafluorophosphate(1-) (1:1);Cobalt(1+), di-π-cyclopentadienyl-, hexafluorophosphate(1-);Cobaltocenium, hexafluorophosphate(1-);Dicyclopentadienylcobalt hexafluorophosphate;Phosphate(1-), hexafluoro-, di-π-cyclopentadienylcobalt(1+);Phosphate(1-), hexafluoro-, cobaltocenium;Cobaltocenium hexafluorophosphate;Bis(cyclopentadienyl)cobalt(1+) hexafluorophosphate(1-);Dicyclopentadienylcobalt(1+) hexafluorophosphate(1-);Bis(cyclopentadienyl)cobalt(1+) hexafluorophosphate;Bis(η<sup>5</sup>-cyclopentadienyl)cobalt(1+) hexafluorophosphate;Bis(cyclopentadienyl)cobalt(III) hexafluorophosphate",
    "duplicated_cas_no": "42941-98-0;1807539-63-4",
    "SMILES": "[P+5]([F-])([F-])([F-])([F-])([F-])[F-].[Co+3]12345678([CH]=9[CH]1=[CH]2[CH-]3[CH]49)[CH-]%10[CH]5=[CH]6[CH]7=[CH]8%10",
    "meta_data": {
        "InChI": "InChI=1S/2C5H5.Co.F6P/c2*1-2-4-5-3-1;;1-7(2,3,4,5)6/h2*1-5H;;/q2*-1;+3;-1",
        "InChIKey": null,
        "Canonical SMILES": "[F-][P+5]([F-])([F-])([F-])([F-])[F-].[CH]=12[CH]3=[CH]4[CH-]5[CH]1[Co+3]23678945[CH]=%10[CH]9=[CH]8[CH-]7[CH]%106",
        "Molecular Formula": "C<sub>10</sub>H<sub>10</sub>Co.F<sub>6</sub>P",
        "Molecular Mass": "",
        "Melting Point": "300 °C"
    }
}