{
    "cas_no": "10191-24-9",
    "key_name": "3-Hydroxyhexanoic acid",
    "cn_name": null,
    "alternate_name": "Hexanoic acid, 3-hydroxy-;Caproic acid, β-hydroxy-;3-Hydroxyhexanoic acid;β-Hydroxyhexanoic acid;β-Hydroxy-<em>n</em>-caproic acid;β-Hydroxycaproic acid;3-Hydroxycaproic acid;(±)-3-Hydroxyhexanoic acid",
    "duplicated_cas_no": "88930-06-7;1111092-32-0",
    "SMILES": "C(C(CCC)O)C(O)=O",
    "meta_data": {
        "InChI": "InChI=1S/C6H12O3/c1-2-3-5(7)4-6(8)9/h5,7H,2-4H2,1H3,(H,8,9)",
        "InChIKey": null,
        "Canonical SMILES": "O=C(O)CC(O)CCC",
        "Molecular Formula": "C<sub>6</sub>H<sub>12</sub>O<sub>3</sub>",
        "Molecular Mass": "132.16",
        "Melting Point": "13 °C"
    }
}