{
    "cas_no": "4044-99-9",
    "key_name": "6-Bromo-2-methylimidazo[1,2-<em>a</em>]pyridine",
    "cn_name": null,
    "alternate_name": "Imidazo[1,2-<em>a</em>]pyridine, 6-bromo-2-methyl-;6-Bromo-2-methylimidazo[1,2-<em>a</em>]pyridine",
    "duplicated_cas_no": "1947395-58-5",
    "SMILES": "CC=1N=C2N(C1)C=C(Br)C=C2",
    "meta_data": {
        "InChI": "InChI=1S/C8H7BrN2/c1-6-4-11-5-7(9)2-3-8(11)10-6/h2-5H,1H3",
        "InChIKey": null,
        "Canonical SMILES": "BrC=1C=CC2=NC(=CN2C1)C",
        "Molecular Formula": "C<sub>8</sub>H<sub>7</sub>BrN<sub>2</sub>",
        "Molecular Mass": "211.06",
        "Melting Point": "101.0-101.5 °C"
    }
}