{
    "cas_no": "17601-94-4",
    "key_name": "2-Amino-3-bromo-5-nitrobenzonitrile",
    "cn_name": "2-氰基-4-硝基-6-溴苯胺;",
    "alternate_name": "Benzonitrile, 2-amino-3-bromo-5-nitro-;2-Amino-3-bromo-5-nitrobenzonitrile;2-Bromo-6-cyano-4-nitroaniline;2-Cyano-4-nitro-6-bromoaniline;3-Bromo-5-nitroanthranilonitrile;2-Bromo-4-nitro-6-cyanoaniline;6-Bromo-2-cyano-4-nitroaniline;2-Cyano-6-bromo-4-nitroaniline",
    "duplicated_cas_no": "",
    "SMILES": "C(#N)C1=CC(N(=O)=O)=CC(Br)=C1N",
    "meta_data": {
        "InChI": "InChI=1S/C7H4BrN3O2/c8-6-2-5(11(12)13)1-4(3-9)7(6)10/h1-2H,10H2",
        "InChIKey": null,
        "Canonical SMILES": "N#CC1=CC(=CC(Br)=C1N)N(=O)=O",
        "Molecular Formula": "C<sub>7</sub>H<sub>4</sub>BrN<sub>3</sub>O<sub>2</sub>",
        "Molecular Mass": "242.03",
        "Melting Point": "190-192 °C"
    }
}