{
    "cas_no": "90-65-3",
    "key_name": "Penicillic acid",
    "cn_name": "青霉酸;",
    "alternate_name": "2,5-Hexadienoic acid, 3-methoxy-5-methyl-4-oxo-;Penicillic acid;3-Methoxy-5-methyl-4-oxo-2,5-hexadienoic acid;γ-<em>keto</em>-β-Methoxy-δ-methylene-Δ<sup>α</sup>-hexenoic acid;NSC 402844;MeSH ID: D010398",
    "duplicated_cas_no": "",
    "SMILES": "C(C(C(C)=C)=O)(=CC(O)=O)OC",
    "meta_data": {
        "InChI": "InChI=1S/C8H10O4/c1-5(2)8(11)6(12-3)4-7(9)10/h4H,1H2,2-3H3,(H,9,10)",
        "InChIKey": null,
        "Canonical SMILES": "O=C(O)C=C(OC)C(=O)C(=C)C",
        "Molecular Formula": "C<sub>8</sub>H<sub>10</sub>O<sub>4</sub>",
        "Molecular Mass": "170.16",
        "Melting Point": "83-84 °C"
    }
}