{
    "cas_no": "83081-75-8",
    "key_name": "Piperazine, 1-(2-ethoxyphenyl)-, hydrochloride (1:1)",
    "cn_name": null,
    "alternate_name": "Piperazine, 1-(2-ethoxyphenyl)-, hydrochloride (1:1);Piperazine, 1-(2-ethoxyphenyl)-, monohydrochloride;1-(2-Ethoxyphenyl)piperazine hydrochloride;1-(2-Ethoxyphenyl)piperazine monohydrochloride",
    "duplicated_cas_no": "",
    "SMILES": "O(CC)C1=C(C=CC=C1)N2CCNCC2.Cl",
    "meta_data": {
        "InChI": "InChI=1S/C12H18N2O.ClH/c1-2-15-12-6-4-3-5-11(12)14-9-7-13-8-10-14;/h3-6,13H,2,7-10H2,1H3;1H",
        "InChIKey": null,
        "Canonical SMILES": "Cl.O(C=1C=CC=CC1N2CCNCC2)CC",
        "Molecular Formula": "C<sub>12</sub>H<sub>18</sub>N<sub>2</sub>O.ClH",
        "Molecular Mass": "",
        "Melting Point": "207-209 °C"
    }
}