{
    "cas_no": "13368-42-8",
    "key_name": "4-(Trimethylsilyl)morpholine",
    "cn_name": "N-(三甲基硅基)吗啉;",
    "alternate_name": "Morpholine, 4-(trimethylsilyl)-;4-(Trimethylsilyl)morpholine;Trimethylmorpholinosilane;<em>N</em>-(Trimethylsilyl)morpholine;Morpholinotrimethylsilane",
    "duplicated_cas_no": "",
    "SMILES": "[Si](C)(C)(C)N1CCOCC1",
    "meta_data": {
        "InChI": "InChI=1S/C7H17NOSi/c1-10(2,3)8-4-6-9-7-5-8/h4-7H2,1-3H3",
        "InChIKey": null,
        "Canonical SMILES": "O1CCN(CC1)[Si](C)(C)C",
        "Molecular Formula": "C<sub>7</sub>H<sub>17</sub>NOSi",
        "Molecular Mass": "159.30",
        "Boiling Point": "160 °C",
        "Density": "0.897 g/cm³"
    }
}