{
    "cas_no": "719-59-5",
    "key_name": "2-Amino-5-chlorobenzophenone",
    "cn_name": "2-氨基-5-氯二苯甲酮;",
    "alternate_name": "Methanone, (2-amino-5-chlorophenyl)phenyl-;Benzophenone, 2-amino-5-chloro-;(2-Amino-5-chlorophenyl)phenylmethanone;2-Amino-5-chlorobenzophenone;5-Chloro-2-aminobenzophenone;2-Benzoyl-4-chloroaniline;2-Amino-5-chlorbenzophenone;2-Amino-5-chlorobenzylphenone;Oxazepam benzophenone;NSC 84157",
    "duplicated_cas_no": "68863-78-5;853942-39-9",
    "SMILES": "C(=O)(C1=C(N)C=CC(Cl)=C1)C2=CC=CC=C2",
    "meta_data": {
        "InChI": "InChI=1S/C13H10ClNO/c14-10-6-7-12(15)11(8-10)13(16)9-4-2-1-3-5-9/h1-8H,15H2",
        "InChIKey": null,
        "Canonical SMILES": "O=C(C=1C=CC=CC1)C2=CC(Cl)=CC=C2N",
        "Molecular Formula": "C<sub>13</sub>H<sub>10</sub>ClNO",
        "Molecular Mass": "231.68",
        "Melting Point": "99 °C"
    }
}