{
    "cas_no": "1073-62-7",
    "key_name": "Hydrazine, (phenylmethyl)-, hydrochloride (1:1)",
    "cn_name": "苄基肼二盐酸盐;",
    "alternate_name": "Hydrazine, (phenylmethyl)-, hydrochloride (1:1);Hydrazine, benzyl-, monohydrochloride;Hydrazine, (phenylmethyl)-, monohydrochloride;Benzylhydrazine hydrochloride;Z 102;Benzylhydrazine monohydrochloride;2-Benzylhydrazinium chloride",
    "duplicated_cas_no": "",
    "SMILES": "C(NN)C1=CC=CC=C1.Cl",
    "meta_data": {
        "InChI": "InChI=1S/C7H10N2.ClH/c8-9-6-7-4-2-1-3-5-7;/h1-5,9H,6,8H2;1H",
        "InChIKey": null,
        "Canonical SMILES": "Cl.NNCC=1C=CC=CC1",
        "Molecular Formula": "C<sub>7</sub>H<sub>10</sub>N<sub>2</sub>.ClH",
        "Molecular Mass": "",
        "Melting Point": "148 °C"
    }
}