{
    "cas_no": "7148-78-9",
    "key_name": "(3,3-Diethoxy-1-propen-1-yl)benzene",
    "cn_name": "肉桂醛二乙缩醛;",
    "alternate_name": "Benzene, (3,3-diethoxy-1-propen-1-yl)-;Cinnamaldehyde, diethyl acetal;Benzene, (3,3-diethoxy-1-propenyl)-;(3,3-Diethoxy-1-propen-1-yl)benzene;Benzene, (3,3-diethoxypropenyl)-;(3,3-Diethoxy-1-propenyl)benzene;NSC 53852",
    "duplicated_cas_no": "",
    "SMILES": "C(=CC(OCC)OCC)C1=CC=CC=C1",
    "meta_data": {
        "InChI": "InChI=1S/C13H18O2/c1-3-14-13(15-4-2)11-10-12-8-6-5-7-9-12/h5-11,13H,3-4H2,1-2H3",
        "InChIKey": null,
        "Canonical SMILES": "O(CC)C(OCC)C=CC=1C=CC=CC1",
        "Molecular Formula": "C<sub>13</sub>H<sub>18</sub>O<sub>2</sub>",
        "Molecular Mass": "206.28",
        "Boiling Point": "126-127 °C @ Press: 10 Torr"
    }
}