{
    "cas_no": "4630-20-0",
    "key_name": "3-Methylcarbazole",
    "cn_name": null,
    "alternate_name": "9<em>H</em>-Carbazole, 3-methyl-;Carbazole, 3-methyl-;3-Methyl-9<em>H</em>-carbazole;3-Methylcarbazole;6-Methylcarbazole;NSC 10154",
    "duplicated_cas_no": "",
    "SMILES": "CC=1C=C2C=3C(NC2=CC1)=CC=CC3",
    "meta_data": {
        "InChI": "InChI=1S/C13H11N/c1-9-6-7-13-11(8-9)10-4-2-3-5-12(10)14-13/h2-8,14H,1H3",
        "InChIKey": null,
        "Canonical SMILES": "C=1C=CC2=C(C1)NC=3C=CC(=CC32)C",
        "Molecular Formula": "C<sub>13</sub>H<sub>11</sub>N",
        "Molecular Mass": "181.23",
        "Boiling Point": "365 °C",
        "Melting Point": "208.5 °C"
    }
}