{
    "cas_no": "60669-69-4",
    "key_name": "Methanesulfonic acid, 1,1,1-trifluoro-, anhydride with <em>B</em>,<em>B</em>-dibutylborinic acid",
    "cn_name": null,
    "alternate_name": "Methanesulfonic acid, 1,1,1-trifluoro-, anhydride with <em>B</em>,<em>B</em>-dibutylborinic acid;Methanesulfonic acid, trifluoro-, anhydride with dibutylborinic acid;Dibutylboryl trifluoromethanesulfonate;Dibutylboryl triflate;Dibutylboron triflate;Di-<em>n</em>-butylboron triflate;Dibutyl(trifluoromethylsulfonyloxy)borane;Bu<sub>2</sub>BOTf;Dibutylboron trifluoromethanesulfonate",
    "duplicated_cas_no": "",
    "SMILES": "B(OS(C(F)(F)F)(=O)=O)(CCCC)CCCC",
    "meta_data": {
        "InChI": "InChI=1S/C9H18BF3O3S/c1-3-5-7-10(8-6-4-2)16-17(14,15)9(11,12)13/h3-8H2,1-2H3",
        "InChIKey": null,
        "Canonical SMILES": "O=S(=O)(OB(CCCC)CCCC)C(F)(F)F",
        "Molecular Formula": "C<sub>9</sub>H<sub>18</sub>BF<sub>3</sub>O<sub>3</sub>S",
        "Molecular Mass": "274.11",
        "Boiling Point": "37 °C @ Press: 0.12 Torr"
    }
}