{
    "cas_no": "57057-80-4",
    "key_name": "Ethyl (2<em>S</em>)-2-[[(4-methylphenyl)sulfonyl]oxy]propanoate",
    "cn_name": null,
    "alternate_name": "Propanoic acid, 2-[[(4-methylphenyl)sulfonyl]oxy]-, ethyl ester, (2<em>S</em>)-;Propanoic acid, 2-[[(4-methylphenyl)sulfonyl]oxy]-, ethyl ester, (<em>S</em>)-;Ethyl (2<em>S</em>)-2-[[(4-methylphenyl)sulfonyl]oxy]propanoate;Ethyl <em>O</em>-(<em>p</em>-toluenesulfonyl)-<span class=\"text-smallcaps\">L</span>-(-)-lactate;Ethyl <span class=\"text-smallcaps\">L</span>-(-)-lactate <em>p</em>-toluenesulfonate;Ethyl (<em>S</em>)-α-(4-methylphenylsulfonyloxy)propionate;Ethyl (<em>S</em>)-2-(4-methylphenylsulfonyloxy)propionate;Ethyl (<em>S</em>)-2-[(<em>p</em>-tolylsulfonyl)oxy]propionate",
    "duplicated_cas_no": "",
    "SMILES": "S(O[C@H](C(OCC)=O)C)(=O)(=O)C1=CC=C(C)C=C1",
    "meta_data": {
        "InChI": "InChI=1S/C12H16O5S/c1-4-16-12(13)10(3)17-18(14,15)11-7-5-9(2)6-8-11/h5-8,10H,4H2,1-3H3/t10-/m0/s1",
        "InChIKey": null,
        "Canonical SMILES": "O=C(OCC)C(OS(=O)(=O)C1=CC=C(C=C1)C)C",
        "Molecular Formula": "C<sub>12</sub>H<sub>16</sub>O<sub>5</sub>S",
        "Molecular Mass": "272.32",
        "Boiling Point": "145 °C @ Press: 0.05 Torr",
        "Melting Point": "31.5-32 °C"
    }
}