{
    "cas_no": "1250-95-9",
    "key_name": "5α,6α-Epoxycholesterol",
    "cn_name": null,
    "alternate_name": "Cholestan-3-ol, 5,6-epoxy-, (3β,5α,6α)-;5α-Cholestan-3β-ol, 5,6α-epoxy-;5,6-Epoxy-5<em>H</em>-cyclopenta[<em>a</em>]phenanthrene, cholestan-3-ol deriv.;(3β,5α,6α)-5,6-Epoxycholestan-3-ol;Cholesterol α-oxide;5α,6α-Epoxycholestanol;Cholesterol 5α,6α-epoxide;5,6α-Epoxy-5α-cholestan-3β-ol;Cholesterol α-epoxide;3β-Hydroxycholestane 5α,6α-epoxide;5α,6α-Epoxycholestan-3β-ol;Cholesterol 5α,6α-oxide;3β-Hydroxy-5,6α-epoxy-5α-cholestane;5α-Epoxycholesterol;5α,6α-Epoxycholesterol;NSC 18176;5,6α-Epoxycholesterol",
    "duplicated_cas_no": "114181-62-3;23656-94-2;1025357-05-4",
    "SMILES": "C[C@]12[C@@]3([C@@](O3)(C[C@@]4([C@@]1(CC[C@@]5(C)[C@]4(CC[C@@]5([C@@H](CCCC(C)C)C)[H])[H])[H])[H])[H])C[C@@H](O)CC2",
    "meta_data": {
        "InChI": "InChI=1S/C27H46O2/c1-17(2)7-6-8-18(3)21-9-10-22-20-15-24-27(29-24)16-19(28)11-14-26(27,5)23(20)12-13-25(21,22)4/h17-24,28H,6-16H2,1-5H3/t18-,19+,20+,21-,22+,23+,24+,25-,26-,27+/m1/s1",
        "InChIKey": null,
        "Canonical SMILES": "OC1CCC2(C)C3CCC4(C)C(CCC4C3CC5OC52C1)C(C)CCCC(C)C",
        "Molecular Formula": "C<sub>27</sub>H<sub>46</sub>O<sub>2</sub>",
        "Molecular Mass": "402.65",
        "Melting Point": "140-141 °C"
    }
}