{
    "cas_no": "14401-51-5",
    "key_name": "Benzenecarboximidamide, 4-chloro-, hydrochloride (1:1)",
    "cn_name": "4-氯苯甲脒盐酸盐;",
    "alternate_name": "Benzenecarboximidamide, 4-chloro-, hydrochloride (1:1);Benzamidine, <em>p</em>-chloro-, monohydrochloride;Benzenecarboximidamide, 4-chloro-, monohydrochloride;Benzamidine, <em>p</em>-chloro-, hydrochloride;4-Chlorobenzamidine hydrochloride;<em>p</em>-Chlorobenzamidine hydrochloride;4-Chlorophenylamidine hydrochloride;4-Chlorobenzenecarboximidamide monohydrochloride;4-Chlorobenzenecarboximidamide hydrochloride",
    "duplicated_cas_no": "2375087-56-0",
    "SMILES": "C(=N)(N)C1=CC=C(Cl)C=C1.Cl",
    "meta_data": {
        "InChI": "InChI=1S/C7H7ClN2.ClH/c8-6-3-1-5(2-4-6)7(9)10;/h1-4H,(H3,9,10);1H",
        "InChIKey": null,
        "Canonical SMILES": "Cl.ClC1=CC=C(C=C1)C(=N)N",
        "Molecular Formula": "C<sub>7</sub>H<sub>7</sub>ClN<sub>2</sub>.ClH",
        "Molecular Mass": "",
        "Melting Point": "241-242 °C"
    }
}