{
    "cas_no": "590-90-9",
    "key_name": "4-Hydroxy-2-butanone",
    "cn_name": "4-羟基-2-丁酮;",
    "alternate_name": "2-Butanone, 4-hydroxy-;4-Hydroxy-2-butanone;4-Butanol-2-one;Methylolacetone;3-Ketobutan-1-ol;3-Oxo-1-butanol;Monomethylolacetone;3-Oxobutanol;3-Ketobutanol;1-Hydroxybutan-3-one;2-Hydroxyethyl methyl ketone;NSC 41219",
    "duplicated_cas_no": "",
    "SMILES": "C(C(C)=O)CO",
    "meta_data": {
        "InChI": "InChI=1S/C4H8O2/c1-4(6)2-3-5/h5H,2-3H2,1H3",
        "InChIKey": null,
        "Canonical SMILES": "O=C(C)CCO",
        "Molecular Formula": "C<sub>4</sub>H<sub>8</sub>O<sub>2</sub>",
        "Molecular Mass": "88.11",
        "Boiling Point": "90-92 °C @ Press: 11 Torr",
        "Density": "1.1089 g/cm³ @ Temp: 24 °C"
    }
}