{
    "cas_no": "582-17-2",
    "key_name": "2,7-Naphthalenediol",
    "cn_name": "2,7-二羟基萘;",
    "alternate_name": "2,7-Naphthalenediol;2,7-Dihydroxynaphthalene;C.I. 76645;NSC 407541;2,7-Naphthohydroquinone;7-Hydroxy-2-naphthol;D 0594",
    "duplicated_cas_no": "",
    "SMILES": "OC1=CC2=C(C=CC(O)=C2)C=C1",
    "meta_data": {
        "InChI": "InChI=1S/C10H8O2/c11-9-3-1-7-2-4-10(12)6-8(7)5-9/h1-6,11-12H",
        "InChIKey": null,
        "Canonical SMILES": "OC=1C=CC2=CC=C(O)C=C2C1",
        "Molecular Formula": "C<sub>10</sub>H<sub>8</sub>O<sub>2</sub>",
        "Molecular Mass": "160.17",
        "Melting Point": "193 °C"
    }
}