{
    "cas_no": "46815-10-5",
    "key_name": "2-(Ethylthio)-10<em>H</em>-phenothiazine",
    "cn_name": "2-乙硫基吩噻嗪;",
    "alternate_name": "10<em>H</em>-Phenothiazine, 2-(ethylthio)-;Phenothiazine, 2-(ethylthio)-;2-(Ethylthio)-10<em>H</em>-phenothiazine;2-(Ethylthio)phenothiazine;2-Ethylsulfanyl-10<em>H</em>-phenothiazine;2-Ethylthiophenothiazine",
    "duplicated_cas_no": "",
    "SMILES": "S(CC)C=1C=C2C(SC=3C(N2)=CC=CC3)=CC1",
    "meta_data": {
        "InChI": "InChI=1S/C14H13NS2/c1-2-16-10-7-8-14-12(9-10)15-11-5-3-4-6-13(11)17-14/h3-9,15H,2H2,1H3",
        "InChIKey": null,
        "Canonical SMILES": "S1C=2C=CC=CC2NC3=CC(SCC)=CC=C13",
        "Molecular Formula": "C<sub>14</sub>H<sub>13</sub>NS<sub>2</sub>",
        "Molecular Mass": "259.39",
        "Melting Point": "95-97 °C"
    }
}