{
    "cas_no": "16499-88-0",
    "key_name": "3-Butoxy-1-propanamine",
    "cn_name": "3-丁氧基丙胺;",
    "alternate_name": "1-Propanamine, 3-butoxy-;Propylamine, 3-butoxy-;3-Butoxy-1-propanamine;3-(<em>n</em>-Butoxy)propylamine;3-Butoxypropylamine;γ-Butoxypropylamine;3-Butyloxy-1-propylamine;3-Butoxypropanamine;3-Aminopropyl butyl ether;3-(Butyloxy)propylamine",
    "duplicated_cas_no": "155634-28-9",
    "SMILES": "O(CCCC)CCCN",
    "meta_data": {
        "InChI": "InChI=1S/C7H17NO/c1-2-3-6-9-7-4-5-8/h2-8H2,1H3",
        "InChIKey": null,
        "Canonical SMILES": "O(CCCN)CCCC",
        "Molecular Formula": "C<sub>7</sub>H<sub>17</sub>NO",
        "Molecular Mass": "131.22",
        "Boiling Point": "80-84 °C @ Press: 30 Torr",
        "Density": "0.8514 g/cm³ @ Temp: 20 °C"
    }
}