{
    "cas_no": "112-05-0",
    "key_name": "Nonanoic acid",
    "cn_name": "壬酸;",
    "alternate_name": "Nonanoic acid;Nonoic acid;<em>n</em>-Nonoic acid;Nonylic acid;1-Octanecarboxylic acid;Pelargonic acid;<em>n</em>-Nonylic acid;<em>n</em>-Nonanoic acid;<em>n</em>-Pelargonic acid;Grantrico;NSC 62787;NSC 65450;NSC 65455;Emery 1203;Thinex;Emerion W 90PA;Emery 1202;Prifrac 2914;Herbatak Ultra;Katoun Gold;PLA 500EC",
    "duplicated_cas_no": "2243464-06-2",
    "SMILES": "C(CCCCC)CCC(O)=O",
    "meta_data": {
        "InChI": "InChI=1S/C9H18O2/c1-2-3-4-5-6-7-8-9(10)11/h2-8H2,1H3,(H,10,11)",
        "InChIKey": null,
        "Canonical SMILES": "O=C(O)CCCCCCCC",
        "Molecular Formula": "C<sub>9</sub>H<sub>18</sub>O<sub>2</sub>",
        "Molecular Mass": "158.24",
        "Boiling Point": "252-253 °C @ Press: 760 Torr",
        "Melting Point": "12.5 °C",
        "Density": "0.9052 g/cm³ @ Temp: 20 °C"
    }
}