{
    "cas_no": "495-76-1",
    "key_name": "Piperonyl alcohol",
    "cn_name": "胡椒醇;3,4-亚甲二氧基苯甲醇;5-羟甲基苯并-1,3-二氧环戊烷;",
    "alternate_name": "1,3-Benzodioxole-5-methanol;Piperonyl alcohol;1-Hydroxymethyl-3,4-methylenedioxybenzene;3,4-Methylenedioxybenzyl alcohol;5-Hydroxymethyl-1,3-benzodioxole;Piperonol;3,4-(Methylenedioxy)benzenemethanol;3,4-Methylenedioxyphenylmethanol;Benzo[1,3]dioxol-5-ylmethanol;NSC 26265;(Benzodioxol-5-yl)methanol;Benzo[<em>d</em>][1,3]dioxol-5-ylmethanol;Heliotropyl alcohol;Benzo[<em>d</em>][1,3]dioxol-5-ylmethyl alcohol;(1,3-Dioxaindan-5-yl)methanol;2<em>H</em>-1,3-Benzodioxol-5-ylmethanol",
    "duplicated_cas_no": "659726-31-5;2169723-84-4",
    "SMILES": "C(O)C=1C=C2C(=CC1)OCO2",
    "meta_data": {
        "InChI": "InChI=1S/C8H8O3/c9-4-6-1-2-7-8(3-6)11-5-10-7/h1-3,9H,4-5H2",
        "InChIKey": null,
        "Canonical SMILES": "OCC1=CC=C2OCOC2=C1",
        "Molecular Formula": "C<sub>8</sub>H<sub>8</sub>O<sub>3</sub>",
        "Molecular Mass": "152.15",
        "Boiling Point": "157 °C",
        "Melting Point": "58 °C"
    }
}