{
    "cas_no": "4546-04-7",
    "key_name": "<em>P</em>,<em>P</em>,<em>P</em>′,<em>P</em>′-Tetraethyl <em>P</em>,<em>P</em>′-[1,4-phenylenebis(methylene)]bis[phosphonate]",
    "cn_name": "对二甲苯二磷酸四乙酯;对苯二甲双膦酸四乙基酯;",
    "alternate_name": "Phosphonic acid, <em>P</em>,<em>P</em>′-[1,4-phenylenebis(methylene)]bis-, <em>P</em>,<em>P</em>,<em>P</em>′,<em>P</em>′-tetraethyl ester;Phosphonic acid, (<em>p</em>-phenylenedimethylene)di-, tetraethyl ester;Phosphonic acid, [1,4-phenylenebis(methylene)]bis-, tetraethyl ester;<em>P</em>,<em>P</em>,<em>P</em>′,<em>P</em>′-Tetraethyl <em>P</em>,<em>P</em>′-[1,4-phenylenebis(methylene)]bis[phosphonate];<em>p</em>-Xylylenebis(diethyl phosphonate);<em>p</em>-Bis(diethylphosphono)xylene;Tetraethyl <em>p</em>-xylylenediphosphonate;Tetraethyl <em>p</em>-xylylenebis(phosphonate);1,4-Xylenebis(diethylphosphonate);<em>p</em>-Xylenebis(diethyl phosphonate);Tetraethyl [1,4-phenylenebis(methylene)]bisphosphonate;NSC 203064;Tetraethyl α,α′-<em>p</em>-xylenediphosphonate;1,4-Bis(diethoxyphosphinylmethyl)benzene;Tetraethyl 1,4-phenylenebis(methylene)diphosphonate;1,4-Bis(diethoxyphosphorylmethyl)benzene;[4-(Diethoxy-phosphorylmethyl)-benzyl]-phosphonic acid diethyl ester",
    "duplicated_cas_no": "305814-65-7",
    "SMILES": "P(CC1=CC=C(CP(OCC)(OCC)=O)C=C1)(OCC)(OCC)=O",
    "meta_data": {
        "InChI": "InChI=1S/C16H28O6P2/c1-5-19-23(17,20-6-2)13-15-9-11-16(12-10-15)14-24(18,21-7-3)22-8-4/h9-12H,5-8,13-14H2,1-4H3",
        "InChIKey": null,
        "Canonical SMILES": "O=P(OCC)(OCC)CC1=CC=C(C=C1)CP(=O)(OCC)OCC",
        "Molecular Formula": "C<sub>16</sub>H<sub>28</sub>O<sub>6</sub>P<sub>2</sub>",
        "Molecular Mass": "378.34",
        "Boiling Point": "204 °C @ Press: 2 Torr",
        "Melting Point": "72-73 °C"
    }
}