{
    "cas_no": "626-97-1",
    "key_name": "Pentanamide",
    "cn_name": "戊酰胺;",
    "alternate_name": "Pentanamide;Valeramide;<em>n</em>-Valeramide;Pentanimidic acid;Valeric acid amide;NSC 400223",
    "duplicated_cas_no": "42861-33-6",
    "SMILES": "C(C(N)=O)CCC",
    "meta_data": {
        "InChI": "InChI=1S/C5H11NO/c1-2-3-4-5(6)7/h2-4H2,1H3,(H2,6,7)",
        "InChIKey": null,
        "Canonical SMILES": "O=C(N)CCCC",
        "Molecular Formula": "C<sub>5</sub>H<sub>11</sub>NO",
        "Molecular Mass": "101.15",
        "Boiling Point": "225 °C",
        "Melting Point": "106 °C",
        "Density": "0.8487 g/cm³ @ Temp: 20 °C"
    }
}