{
    "cas_no": "51114-94-4",
    "key_name": "Phosphonium, (2-carboxyethyl)triphenyl-, bromide (1:1)",
    "cn_name": null,
    "alternate_name": "Phosphonium, (2-carboxyethyl)triphenyl-, bromide (1:1);Phosphonium, (2-carboxyethyl)triphenyl-, bromide;(2-Carboxyethyl)triphenylphosphonium bromide;(β-Carboxyethyl)triphenylphosphonium bromide;3-(Triphenylphosphonium)propionic acid bromide;NSC 84145",
    "duplicated_cas_no": "2810842-69-2",
    "SMILES": "[P+](CCC(O)=O)(C1=CC=CC=C1)(C2=CC=CC=C2)C3=CC=CC=C3.[Br-]",
    "meta_data": {
        "InChI": "InChI=1S/C21H19O2P.BrH/c22-21(23)16-17-24(18-10-4-1-5-11-18,19-12-6-2-7-13-19)20-14-8-3-9-15-20;/h1-15H,16-17H2;1H",
        "InChIKey": null,
        "Canonical SMILES": "[Br-].O=C(O)CC[P+](C=1C=CC=CC1)(C=2C=CC=CC2)C=3C=CC=CC3",
        "Molecular Formula": "C<sub>21</sub>H<sub>20</sub>O<sub>2</sub>P.Br",
        "Molecular Mass": "",
        "Melting Point": "186 °C"
    }
}