{
    "cas_no": "1878-18-8",
    "key_name": "2-Methyl-1-butanethiol",
    "cn_name": "2-甲基-1-丁硫醇;",
    "alternate_name": "1-Butanethiol, 2-methyl-;2-Methyl-1-butanethiol;1-Mercapto-2-methylbutane",
    "duplicated_cas_no": "110549-12-7",
    "SMILES": "C(CC)(CS)C",
    "meta_data": {
        "InChI": "InChI=1S/C5H12S/c1-3-5(2)4-6/h5-6H,3-4H2,1-2H3",
        "InChIKey": null,
        "Canonical SMILES": "SCC(C)CC",
        "Molecular Formula": "C<sub>5</sub>H<sub>12</sub>S",
        "Molecular Mass": "104.21",
        "Boiling Point": "116.5 °C",
        "Density": "0.836 g/cm³ @ Temp: 20 °C"
    }
}