{
    "cas_no": "20934-81-0",
    "key_name": "2-(<em>p</em>-Aminophenyl)benzoxazole",
    "cn_name": null,
    "alternate_name": "Benzenamine, 4-(2-benzoxazolyl)-;Benzoxazole, 2-(<em>p</em>-aminophenyl)-;4-(2-Benzoxazolyl)benzenamine;<em>p</em>-2-Benzoxazolylaniline;2-(4-Aminophenyl)benzoxazole;2-(<em>p</em>-Aminophenyl)benzoxazole;2-(4′-Aminophenyl)benzoxazole;4-(Benzo[<em>d</em>]oxazol-2-yl)aniline;2-(4-Aminophenyl)benzo[<em>d</em>]oxazole",
    "duplicated_cas_no": "",
    "SMILES": "NC1=CC=C(C2=NC=3C(O2)=CC=CC3)C=C1",
    "meta_data": {
        "InChI": "InChI=1S/C13H10N2O/c14-10-7-5-9(6-8-10)13-15-11-3-1-2-4-12(11)16-13/h1-8H,14H2",
        "InChIKey": null,
        "Canonical SMILES": "N1=C(OC=2C=CC=CC12)C3=CC=C(N)C=C3",
        "Molecular Formula": "C<sub>13</sub>H<sub>10</sub>N<sub>2</sub>O",
        "Molecular Mass": "210.23",
        "Melting Point": "169-170 °C"
    }
}