{
    "cas_no": "192863-40-4",
    "key_name": "Borate(1-), trifluoro(3-nitrophenyl)-, potassium (1:1), (<em>T</em>-4)-",
    "cn_name": "3-硝基苯基三氟硼酸钾;",
    "alternate_name": "Borate(1-), trifluoro(3-nitrophenyl)-, potassium (1:1), (<em>T</em>-4)-;Borate(1-), trifluoro(3-nitrophenyl)-, potassium, (<em>T</em>-4)-;Potassium (3-nitrophenyl)trifluoroborate",
    "duplicated_cas_no": "1439402-09-1",
    "SMILES": "[B+3]([F-])([F-])([F-])[C-]=1C=C(N(=O)=O)C=CC1.[K+]",
    "meta_data": {
        "InChI": "InChI=1S/C6H4BF3NO2.K/c8-7(9,10)5-2-1-3-6(4-5)11(12)13;/h1-4H;/q-1;+1",
        "InChIKey": null,
        "Canonical SMILES": "[K+].O=N(=O)C1=CC=C[C-](=C1)[B+3]([F-])([F-])[F-]",
        "Molecular Formula": "C<sub>6</sub>H<sub>4</sub>BF<sub>3</sub>NO<sub>2</sub>.K",
        "Molecular Mass": "",
        "Melting Point": "235-236 °C"
    }
}