{
    "cas_no": "459-60-9",
    "key_name": "4-Fluoroanisole",
    "cn_name": "4-氟苯甲醚;对氟苯甲醚;",
    "alternate_name": "Benzene, 1-fluoro-4-methoxy-;Anisole, <em>p</em>-fluoro-;1-Fluoro-4-methoxybenzene;4-Fluoroanisole;<em>p</em>-Methoxyfluorobenzene;<em>p</em>-Fluoroanisole;<em>p</em>-Fluoromethoxybenzene;<em>p</em>-Fluorophenyl methyl ether;4-Fluoromethoxybenzene;4-Fluoro-1-methoxybenzene;4-Fluorophenyl methyl ether;4-Methoxyfluorobenzene;4-Methoxyphenyl fluoride;NSC 4672",
    "duplicated_cas_no": "",
    "SMILES": "O(C)C1=CC=C(F)C=C1",
    "meta_data": {
        "InChI": "InChI=1S/C7H7FO/c1-9-7-4-2-6(8)3-5-7/h2-5H,1H3",
        "InChIKey": null,
        "Canonical SMILES": "FC1=CC=C(OC)C=C1",
        "Molecular Formula": "C<sub>7</sub>H<sub>7</sub>FO",
        "Molecular Mass": "126.13",
        "Boiling Point": "157 °C",
        "Melting Point": "-45 °C",
        "Density": "1.1109 g/cm³ @ Temp: 25.00 °C"
    }
}