{
    "cas_no": "1719-88-6",
    "key_name": "Benzoic acid, 3,4,5-trimethoxy-, 1,1′-anhydride",
    "cn_name": "3,4,5-三甲氧基苯甲酸酐;",
    "alternate_name": "Benzoic acid, 3,4,5-trimethoxy-, 1,1′-anhydride;Benzoic acid, 3,4,5-trimethoxy-, anhydride;3,4,5-Trimethoxybenzoic anhydride;NSC 40557;(3,4,5-Trimethoxybenzoyl) 3,4,5-trimethoxybenzoate",
    "duplicated_cas_no": "29970-22-7;55692-45-0",
    "SMILES": "C(OC(=O)C1=CC(OC)=C(OC)C(OC)=C1)(=O)C2=CC(OC)=C(OC)C(OC)=C2",
    "meta_data": {
        "InChI": "InChI=1S/C20H22O9/c1-23-13-7-11(8-14(24-2)17(13)27-5)19(21)29-20(22)12-9-15(25-3)18(28-6)16(10-12)26-4/h7-10H,1-6H3",
        "InChIKey": null,
        "Canonical SMILES": "O=C(OC(=O)C1=CC(OC)=C(OC)C(OC)=C1)C2=CC(OC)=C(OC)C(OC)=C2",
        "Molecular Formula": "C<sub>20</sub>H<sub>22</sub>O<sub>9</sub>",
        "Molecular Mass": "406.38",
        "Melting Point": "156 °C"
    }
}