{
    "cas_no": "536-20-9",
    "key_name": "2,4,6-Pyridinetricarboxylic acid",
    "cn_name": null,
    "alternate_name": "2,4,6-Pyridinetricarboxylic acid;Trimesitic acid;2,4,6-Tricarboxypyridine;NSC 403251",
    "duplicated_cas_no": "",
    "SMILES": "C(O)(=O)C=1C=C(C(O)=O)N=C(C(O)=O)C1",
    "meta_data": {
        "InChI": "InChI=1S/C8H5NO6/c10-6(11)3-1-4(7(12)13)9-5(2-3)8(14)15/h1-2H,(H,10,11)(H,12,13)(H,14,15)",
        "InChIKey": null,
        "Canonical SMILES": "O=C(O)C=1N=C(C=C(C1)C(=O)O)C(=O)O",
        "Molecular Formula": "C<sub>8</sub>H<sub>5</sub>NO<sub>6</sub>",
        "Molecular Mass": "211.13",
        "Melting Point": "227 °C (decomp)"
    }
}