{
    "cas_no": "17288-15-2",
    "key_name": "Alanine, 2-methyl-, ethyl ester, hydrochloride (1:1)",
    "cn_name": null,
    "alternate_name": "Alanine, 2-methyl-, ethyl ester, hydrochloride (1:1);Alanine, 2-methyl-, ethyl ester, hydrochloride;Ethyl α-aminoisobutyrate hydrochloride;α-Methylalanine ethyl ester hydrochloride;α-Aminoisobutyric acid ethyl ester hydrochloride;Ethyl 2-amino-2-methylpropanoate hydrochloride;1-Ethoxycarbonyl-1-methylethylamine hydrochloride;1-Ethoxy-2-methyl-1-oxopropan-2-amine hydrochloride",
    "duplicated_cas_no": "",
    "SMILES": "C(C(C)(C)N)(OCC)=O.Cl",
    "meta_data": {
        "InChI": "InChI=1S/C6H13NO2.ClH/c1-4-9-5(8)6(2,3)7;/h4,7H2,1-3H3;1H",
        "InChIKey": null,
        "Canonical SMILES": "Cl.O=C(OCC)C(N)(C)C",
        "Molecular Formula": "C<sub>6</sub>H<sub>13</sub>NO<sub>2</sub>.ClH",
        "Molecular Mass": "",
        "Melting Point": "156-157 °C"
    }
}