{
    "cas_no": "7758-09-0",
    "key_name": "Potassium nitrite",
    "cn_name": "亚硝酸钾;",
    "alternate_name": "Nitrous acid, potassium salt (1:1);Nitrous acid, potassium salt;Potassium nitrite;Klear;E 249",
    "duplicated_cas_no": "",
    "SMILES": "N(=O)O.[K]",
    "meta_data": {
        "InChI": "InChI=1S/K.HNO2/c;2-1-3/h;(H,2,3)",
        "InChIKey": null,
        "Canonical SMILES": "[K].O=NO",
        "Molecular Formula": "HNO<sub>2</sub>.K",
        "Molecular Mass": "",
        "Melting Point": "441 °C (decomp)",
        "Density": "1.915 g/cm³"
    }
}