{
    "cas_no": "54-05-7",
    "key_name": "Chloroquine",
    "cn_name": "氯喹盐基4-(4-二乙氨基-1-甲基丁氨基)-7-氯喹啉;",
    "alternate_name": "1,4-Pentanediamine, <em>N</em><sup>4</sup>-(7-chloro-4-quinolinyl)-<em>N</em><sup>1</sup>,<em>N</em><sup>1</sup>-diethyl-;Quinoline, 7-chloro-4-[[4-(diethylamino)-1-methylbutyl]amino]-;<em>N</em><sup>4</sup>-(7-Chloro-4-quinolinyl)-<em>N</em><sup>1</sup>,<em>N</em><sup>1</sup>-diethyl-1,4-pentanediamine;Chloraquine;7-Chloro-4-[[4-(diethylamino)-1-methylbutyl]amino]quinoline;Chloroquine;Artrichin;Bipiquin;Reumachlor;Chlorochin;Ronaquine;ST 121;ST 121 (pharmaceutical);(±)-Chloroquine;RP 3377;Capquin;NSC 187208;Cloquin;Nivaquinp;E-Vivax;Hcqs;Premoquine;Maliago;Chlorolex;Rosq;1,4-Pentanediamine N4-(7-chloro-4-quinolinyl)-N1,N1-diethyl-;N4-(7-Chloroquinolin-4-yl)-N1,N1-diethylpentane-1,4-diamine;MeSH ID: D002738",
    "duplicated_cas_no": "56598-66-4",
    "SMILES": "N(C(CCCN(CC)CC)C)C=1C2=C(N=CC1)C=C(Cl)C=C2",
    "meta_data": {
        "InChI": "InChI=1S/C18H26ClN3/c1-4-22(5-2)12-6-7-14(3)21-17-10-11-20-18-13-15(19)8-9-16(17)18/h8-11,13-14H,4-7,12H2,1-3H3,(H,20,21)",
        "InChIKey": null,
        "Canonical SMILES": "ClC=1C=CC=2C(=NC=CC2NC(C)CCCN(CC)CC)C1",
        "Molecular Formula": "C<sub>18</sub>H<sub>26</sub>ClN<sub>3</sub>",
        "Molecular Mass": "319.87",
        "Boiling Point": "212-214 °C @ Press: 0.2 Torr",
        "Melting Point": "87-92 °C"
    }
}