{
    "cas_no": "2197-63-9",
    "key_name": "Dicetyl phosphate",
    "cn_name": "双十六烷基磷酸;",
    "alternate_name": "1-Hexadecanol, 1,1′-(hydrogen phosphate);1-Hexadecanol, hydrogen phosphate;Dicetyl phosphate;Dicetyl hydrogen phosphate;Dihexadecyl hydrogen phosphate;Dihexadecyl phosphate;Bis(hexadecyl) phosphate;Di(hexadecyl) monohydrogen phosphate;Di-<em>n</em>-hexadecyl phosphate;Phosphoric acid dihexadecyl ester;DAP 60H;NSC 12429;Crodafos CS 20A;CS 20A",
    "duplicated_cas_no": "",
    "SMILES": "O(P(OCCCCCCCCCCCCCCCC)(=O)O)CCCCCCCCCCCCCCCC",
    "meta_data": {
        "InChI": "InChI=1S/C32H67O4P/c1-3-5-7-9-11-13-15-17-19-21-23-25-27-29-31-35-37(33,34)36-32-30-28-26-24-22-20-18-16-14-12-10-8-6-4-2/h3-32H2,1-2H3,(H,33,34)",
        "InChIKey": null,
        "Canonical SMILES": "O=P(O)(OCCCCCCCCCCCCCCCC)OCCCCCCCCCCCCCCCC",
        "Molecular Formula": "C<sub>32</sub>H<sub>67</sub>O<sub>4</sub>P",
        "Molecular Mass": "546.85",
        "Melting Point": "68-70 °C"
    }
}