{
    "cas_no": "3569-99-1",
    "key_name": "<em>N</em>-(Hydroxymethyl)nicotinamide",
    "cn_name": "N-羟甲基烟酰胺;羟甲烟胺;",
    "alternate_name": "3-Pyridinecarboxamide, <em>N</em>-(hydroxymethyl)-;Nicotinamide, <em>N</em>-(hydroxymethyl)-;<em>N</em>-(Hydroxymethyl)-3-pyridinecarboxamide;Bilamid;Cholamide;Choligen;<em>N</em>-(Hydroxymethyl)nicotinamide;Nicodin;Nicodine;Nikoform;Cholamide (pyridine derivative);Nicoform;Nifoform;3-Pyridinecarboxylic acid hydroxymethylamide;Nikodin;Isochol;Felosan;Bilizorin;Bilocid;Biobilan;Biloide;Cholamid;C 1094;Coloton;Nikomethamide;Nicometamide;3-Pyridinecarboxylic acid <em>N</em>-hydroxymethylamide",
    "duplicated_cas_no": "",
    "SMILES": "C(NCO)(=O)C=1C=CC=NC1",
    "meta_data": {
        "InChI": "InChI=1S/C7H8N2O2/c10-5-9-7(11)6-2-1-3-8-4-6/h1-4,10H,5H2,(H,9,11)",
        "InChIKey": null,
        "Canonical SMILES": "O=C(NCO)C=1C=NC=CC1",
        "Molecular Formula": "C<sub>7</sub>H<sub>8</sub>N<sub>2</sub>O<sub>2</sub>",
        "Molecular Mass": "152.15",
        "Melting Point": "141.5 °C"
    }
}