{
    "cas_no": "7461-60-1",
    "key_name": "3-(2,3-Dimethoxyphenyl)-2-propenoic acid",
    "cn_name": "2,3-二甲氧基肉桂酸;",
    "alternate_name": "2-Propenoic acid, 3-(2,3-dimethoxyphenyl)-;Cinnamic acid, 2,3-dimethoxy-;3-(2,3-Dimethoxyphenyl)-2-propenoic acid;2,3-Dimethoxycinnamic acid;NSC 235795;NSC 403612",
    "duplicated_cas_no": "",
    "SMILES": "O(C)C1=C(C=CC(O)=O)C=CC=C1OC",
    "meta_data": {
        "InChI": "InChI=1S/C11H12O4/c1-14-9-5-3-4-8(11(9)15-2)6-7-10(12)13/h3-7H,1-2H3,(H,12,13)",
        "InChIKey": null,
        "Canonical SMILES": "O=C(O)C=CC=1C=CC=C(OC)C1OC",
        "Molecular Formula": "C<sub>11</sub>H<sub>12</sub>O<sub>4</sub>",
        "Molecular Mass": "208.21",
        "Melting Point": "180 °C"
    }
}