{
    "cas_no": "340-07-8",
    "key_name": "2,2,2-Trifluoro-1-(1-piperidinyl)ethanone",
    "cn_name": "1-三氟乙酰基哌啶;1-三氟乙酰基哌啶;",
    "alternate_name": "Ethanone, 2,2,2-trifluoro-1-(1-piperidinyl)-;Piperidine, 1-(trifluoroacetyl)-;2,2,2-Trifluoro-1-(1-piperidinyl)ethanone;1-(Trifluoroacetyl)piperidine;<em>N</em>-(Trifluoroacetyl)piperidine;2,2,2-Trifluoro-1-(piperidin-1-yl)ethanone;2,2,2-Trifluoro-1-(piperidin-1-yl)ethan-1-one",
    "duplicated_cas_no": "",
    "SMILES": "C(C(F)(F)F)(=O)N1CCCCC1",
    "meta_data": {
        "InChI": "InChI=1S/C7H10F3NO/c8-7(9,10)6(12)11-4-2-1-3-5-11/h1-5H2",
        "InChIKey": null,
        "Canonical SMILES": "O=C(N1CCCCC1)C(F)(F)F",
        "Molecular Formula": "C<sub>7</sub>H<sub>10</sub>F<sub>3</sub>NO",
        "Molecular Mass": "181.16",
        "Boiling Point": "90 °C @ Press: 11 Torr"
    }
}