{
    "cas_no": "7005-47-2",
    "key_name": "2-(Dimethylamino)-2-methyl-1-propanol",
    "cn_name": "2-二甲氨基-2-甲基-1-丙醇;2-二甲氨基-2-甲基-1-丙醇;二甲氨基甲基丙醇;",
    "alternate_name": "1-Propanol, 2-(dimethylamino)-2-methyl-;2-(Dimethylamino)-2-methyl-1-propanol;2-(<em>N</em>,<em>N</em>-Dimethylamino)-2-methyl-1-propanol;2-(Dimethylamino)-2-methylpropyl alcohol;DMAMP;<em>N</em>,<em>N</em>-Dimethyl-2-amino-2-methylpropan-1-ol;DMAMP 80;T-Amine WR 500;NSC 17706",
    "duplicated_cas_no": "95327-58-5",
    "SMILES": "C(N(C)C)(CO)(C)C",
    "meta_data": {
        "InChI": "InChI=1S/C6H15NO/c1-6(2,5-8)7(3)4/h8H,5H2,1-4H3",
        "InChIKey": null,
        "Canonical SMILES": "OCC(N(C)C)(C)C",
        "Molecular Formula": "C<sub>6</sub>H<sub>15</sub>NO",
        "Molecular Mass": "117.19",
        "Boiling Point": "160 °C",
        "Melting Point": "19 °C",
        "Density": "0.9007 g/cm³ @ Temp: 27 °C"
    }
}