{
    "cas_no": "53531-31-0",
    "key_name": "1-(9-Anthracenyl)-2,2,2-trifluoroethanone",
    "cn_name": "9-三氟乙酰基蒽;9-蒽基三氟甲基酮;",
    "alternate_name": "Ethanone, 1-(9-anthracenyl)-2,2,2-trifluoro-;1-(9-Anthracenyl)-2,2,2-trifluoroethanone;9-Anthryl trifluoromethyl ketone;9-(Trifluoroacetyl)anthracene",
    "duplicated_cas_no": "",
    "SMILES": "C(C(F)(F)F)(=O)C=1C2=C(C=C3C1C=CC=C3)C=CC=C2",
    "meta_data": {
        "InChI": "InChI=1S/C16H9F3O/c17-16(18,19)15(20)14-12-7-3-1-5-10(12)9-11-6-2-4-8-13(11)14/h1-9H",
        "InChIKey": null,
        "Canonical SMILES": "O=C(C=1C=2C=CC=CC2C=C3C=CC=CC31)C(F)(F)F",
        "Molecular Formula": "C<sub>16</sub>H<sub>9</sub>F<sub>3</sub>O",
        "Molecular Mass": "274.24",
        "Melting Point": "84-85 °C"
    }
}