{
    "cas_no": "3768-56-7",
    "key_name": "1-(Trimethylsilyl)piperidine",
    "cn_name": "1-(三甲基硅基)哌啶;1-(三甲基硅基)哌啶;",
    "alternate_name": "Piperidine, 1-(trimethylsilyl)-;1-(Trimethylsilyl)piperidine;<em>N</em>-(Trimethylsilyl)piperidine;Trimethylsilylpiperidine;Piperidinotrimethylsilane;Trimethylpiperidinosilane",
    "duplicated_cas_no": "",
    "SMILES": "[Si](C)(C)(C)N1CCCCC1",
    "meta_data": {
        "InChI": "InChI=1S/C8H19NSi/c1-10(2,3)9-7-5-4-6-8-9/h4-8H2,1-3H3",
        "InChIKey": null,
        "Canonical SMILES": "N1(CCCCC1)[Si](C)(C)C",
        "Molecular Formula": "C<sub>8</sub>H<sub>19</sub>NSi",
        "Molecular Mass": "157.33",
        "Boiling Point": "67 °C @ Press: 28 Torr"
    }
}