{
    "cas_no": "42576-02-3",
    "key_name": "Bifenox",
    "cn_name": "甲羧除草醚;甲酯除草醚;5-(2,4-二氯苯氧基)-2-硝基苯甲酸甲酯;",
    "alternate_name": "Benzoic acid, 5-(2,4-dichlorophenoxy)-2-nitro-, methyl ester;Modown;MC 4379;Methyl 5-(2,4-dichlorophenoxy)-2-nitrobenzoate;Bifenox;2,4-Dichlorophenyl 3-(methoxycarbonyl)-4-nitrophenyl ether;2,4-Dichlorophenyl 3′-carbomethoxy-4′-nitrophenyl ether;Biphenox;2,4-Dichlorophenyl-3′-methoxycarbonyl-4′-nitrophenyl ether;MC 79;3-Carbomethoxy-2′,4′-dichloro-4-nitrodiphenyl ether;Modown 4F;Weeral;Fox;Jiazhichucaomi;AG-B2-480 SC;Fox 480SC",
    "duplicated_cas_no": "12680-11-4",
    "SMILES": "C(OC)(=O)C1=C(N(=O)=O)C=CC(OC2=C(Cl)C=C(Cl)C=C2)=C1",
    "meta_data": {
        "InChI": "InChI=1S/C14H9Cl2NO5/c1-21-14(18)10-7-9(3-4-12(10)17(19)20)22-13-5-2-8(15)6-11(13)16/h2-7H,1H3",
        "InChIKey": null,
        "Canonical SMILES": "O=C(OC)C1=CC(OC2=CC=C(Cl)C=C2Cl)=CC=C1N(=O)=O",
        "Molecular Formula": "C<sub>14</sub>H<sub>9</sub>Cl<sub>2</sub>NO<sub>5</sub>",
        "Molecular Mass": "342.13",
        "Melting Point": "85 °C",
        "Density": "1.155 g/cm³"
    }
}