{
    "cas_no": "2232-12-4",
    "key_name": "1,3-Diiodo-5,5-dimethyl-2,4-imidazolidinedione",
    "cn_name": null,
    "alternate_name": "2,4-Imidazolidinedione, 1,3-diiodo-5,5-dimethyl-;Hydantoin, 1,3-diiodo-5,5-dimethyl-;1,3-Diiodo-5,5-dimethyl-2,4-imidazolidinedione;1,3-Diiodo-5,5-dimethylhydantoin;1,3-Diiodo-5,5-dimethylimidazolidine-2,4-dione;Diiodo-5,5-dimethylhydantoin",
    "duplicated_cas_no": "",
    "SMILES": "CC1(C)C(=O)N(I)C(=O)N1I",
    "meta_data": {
        "InChI": "InChI=1S/C5H6I2N2O2/c1-5(2)3(10)8(6)4(11)9(5)7/h1-2H3",
        "InChIKey": null,
        "Canonical SMILES": "O=C1N(I)C(=O)C(N1I)(C)C",
        "Molecular Formula": "C<sub>5</sub>H<sub>6</sub>I<sub>2</sub>N<sub>2</sub>O<sub>2</sub>",
        "Molecular Mass": "379.92",
        "Melting Point": "213-214 °C (decomp)"
    }
}