{
    "cas_no": "5813-89-8",
    "key_name": "2-Thiophenecarboxamide",
    "cn_name": null,
    "alternate_name": "2-Thiophenecarboxamide;2-Thenamide;2-(Aminocarbonyl)thiophene;NSC 109369",
    "duplicated_cas_no": "",
    "SMILES": "C(N)(=O)C1=CC=CS1",
    "meta_data": {
        "InChI": "InChI=1S/C5H5NOS/c6-5(7)4-2-1-3-8-4/h1-3H,(H2,6,7)",
        "InChIKey": null,
        "Canonical SMILES": "O=C(N)C=1SC=CC1",
        "Molecular Formula": "C<sub>5</sub>H<sub>5</sub>NOS",
        "Molecular Mass": "127.16",
        "Melting Point": "181-183 °C"
    }
}