{
    "cas_no": "70331-94-1",
    "key_name": "2,2′-Oxamidobis[ethyl 3-(3,5-di-<em>tert</em>-butyl-4-hydroxyphenyl)propionate]",
    "cn_name": "(3,5-二叔丁基-4-羟基苯基)丙酸草酰(二亚氨基-2,1-亚乙基酯);",
    "alternate_name": "Benzenepropanoic acid, 3,5-bis(1,1-dimethylethyl)-4-hydroxy-, 1,1′-[(1,2-dioxo-1,2-ethanediyl)bis(imino-2,1-ethanediyl)] ester;Benzenepropanoic acid, 3,5-bis(1,1-dimethylethyl)-4-hydroxy-, (1,2-dioxo-1,2-ethanediyl)bis(imino-2,1-ethanediyl) ester;XL 1;Naugard XL 1;2,2′-Oxamidodiethyl bis[3-(3,5-di-<em>tert</em>-butyl-4-hydroxyphenyl)propionate];2,2′-Oxamidobis[ethyl 3-(3,5-di-<em>tert</em>-butyl-4-hydroxyphenyl)propionate];<em>N</em>,<em>N</em>′-Bis(2-hydroxyethyl)oxamide bis[β-(3,5-di-<em>tert</em>-butyl-4-hydroxyphenyl)propionate];MD 697;MD 697 (antioxidant);ST 697;Naugard XL-I;Omnistab AN 697;(oxalylbis(azanediyl))bis(ethane-2,1-diyl) bis(3-(3,5-di-tert-butyl-4-hydroxyphenyl)propanoate);Thanox MD 1060",
    "duplicated_cas_no": "2020310-30-7",
    "SMILES": "C(CC(OCCNC(C(NCCOC(CCC1=CC(C(C)(C)C)=C(O)C(C(C)(C)C)=C1)=O)=O)=O)=O)C2=CC(C(C)(C)C)=C(O)C(C(C)(C)C)=C2",
    "meta_data": {
        "InChI": "InChI=1S/C40H60N2O8/c1-37(2,3)27-21-25(22-28(33(27)45)38(4,5)6)13-15-31(43)49-19-17-41-35(47)36(48)42-18-20-50-32(44)16-14-26-23-29(39(7,8)9)34(46)30(24-26)40(10,11)12/h21-24,45-46H,13-20H2,1-12H3,(H,41,47)(H,42,48)",
        "InChIKey": null,
        "Canonical SMILES": "O=C(NCCOC(=O)CCC=1C=C(C(O)=C(C1)C(C)(C)C)C(C)(C)C)C(=O)NCCOC(=O)CCC=2C=C(C(O)=C(C2)C(C)(C)C)C(C)(C)C",
        "Molecular Formula": "C<sub>40</sub>H<sub>60</sub>N<sub>2</sub>O<sub>8</sub>",
        "Molecular Mass": "696.91",
        "Melting Point": "178 °C"
    }
}