{
    "cas_no": "464-72-2",
    "key_name": "Benzopinacol",
    "cn_name": "苯频哪醇;四苯乙二醇;四苯基乙二醇;1,1,2,2-四苯基-1,2-乙二醇;",
    "alternate_name": "1,2-Ethanediol, 1,1,2,2-tetraphenyl-;Benzopinacol;1,1,2,2-Tetraphenyl-1,2-ethanediol;Benzopinacone;Benzpinacone;α,α′-Bibenzhydrol;Tetraphenylethylene glycol;Benzpinacol;Tetraphenyl-1,2-ethanediol;Benzophenone pinacol;1,1,2,2-Tetraphenylethylene glycol;NSC 120377;NSC 1973;1,1,2,2-Tetraphenyl-1,2-ethandiol;Benzopicanol",
    "duplicated_cas_no": "1082111-19-0",
    "SMILES": "C(C(O)(C1=CC=CC=C1)C2=CC=CC=C2)(O)(C3=CC=CC=C3)C4=CC=CC=C4",
    "meta_data": {
        "InChI": "InChI=1S/C26H22O2/c27-25(21-13-5-1-6-14-21,22-15-7-2-8-16-22)26(28,23-17-9-3-10-18-23)24-19-11-4-12-20-24/h1-20,27-28H",
        "InChIKey": null,
        "Canonical SMILES": "OC(C=1C=CC=CC1)(C=2C=CC=CC2)C(O)(C=3C=CC=CC3)C=4C=CC=CC4",
        "Molecular Formula": "C<sub>26</sub>H<sub>22</sub>O<sub>2</sub>",
        "Molecular Mass": "366.45",
        "Melting Point": "182 °C",
        "Density": "1.24 g/cm³"
    }
}