{
    "cas_no": "2438-80-4",
    "key_name": "Fucose",
    "cn_name": "L-(-)岩藻糖;6-脱氧-L-半乳糖;",
    "alternate_name": "<span class=\"text-smallcaps\">L</span>-Galactose, 6-deoxy-;Fucose, <span class=\"text-smallcaps\">L</span>-;6-Deoxy-<span class=\"text-smallcaps\">L</span>-galactose;Fucose;<span class=\"text-smallcaps\">L</span>-Fucose;<span class=\"text-smallcaps\">L</span>-Galactomethylose;6-Desoxygalactose;<span class=\"text-smallcaps\">L</span>-(-)-Fucose;(-)-Fucose;46: PN: US20220380460 SEQID: 47 claimed sequence;<span class=\"text-smallcaps\">L</span>-Galactopyranose, 6-deoxy-;NSC 1219;Elfucose;CERC 803",
    "duplicated_cas_no": "",
    "SMILES": "[C@@H]([C@@H]([C@H](C)O)O)([C@@H](C=O)O)O",
    "meta_data": {
        "InChI": "InChI=1S/C6H12O5/c1-3(8)5(10)6(11)4(9)2-7/h2-6,8-11H,1H3/t3-,4+,5+,6-/m0/s1",
        "InChIKey": null,
        "Canonical SMILES": "O=CC(O)C(O)C(O)C(O)C",
        "Molecular Formula": "C<sub>6</sub>H<sub>12</sub>O<sub>5</sub>",
        "Molecular Mass": "164.16",
        "Melting Point": "140 °C"
    }
}