{
    "cas_no": "73536-69-3",
    "key_name": "Bifendate",
    "cn_name": "联苯双酯;4,4\"-二甲氧基-5,6,5\",6\"-双亚甲二氧联苯-2,2\"-二甲酸二甲酯;",
    "alternate_name": "[4,4′-Bi-1,3-benzodioxole]-5,5′-dicarboxylic acid, 7,7′-dimethoxy-, 5,5′-dimethyl ester;[4,4′-Bi-1,3-benzodioxole]-5,5′-dicarboxylic acid, 7,7′-dimethoxy-, dimethyl ester;Bifendate;DDB;Dimethyl 4,4′-dimethoxy-5,6,5′,6′-di(methylenedioxy)biphenyl-2,2′-dicarboxylate;DDB (pharmaceutical);α-DDB;Dimethyl dicarboxylate biphenyl;Diphenyl dimethyl bicarboxylate;Bifendatatum",
    "duplicated_cas_no": "111897-19-9;80944-39-4",
    "SMILES": "C(OC)(=O)C=1C(=C2C(=C(OC)C1)OCO2)C3=C4C(=C(OC)C=C3C(OC)=O)OCO4",
    "meta_data": {
        "InChI": "InChI=1S/C20H18O10/c1-23-11-5-9(19(21)25-3)13(17-15(11)27-7-29-17)14-10(20(22)26-4)6-12(24-2)16-18(14)30-8-28-16/h5-6H,7-8H2,1-4H3",
        "InChIKey": null,
        "Canonical SMILES": "O=C(OC)C=1C=C(OC)C=2OCOC2C1C3=C4OCOC4=C(OC)C=C3C(=O)OC",
        "Molecular Formula": "C<sub>20</sub>H<sub>18</sub>O<sub>10</sub>",
        "Molecular Mass": "418.35",
        "Melting Point": "179-181 °C"
    }
}