{
    "cas_no": "39593-08-3",
    "key_name": "1-(4-Methylphenyl)piperazine",
    "cn_name": "1-(4-甲基苯基)哌嗪;",
    "alternate_name": "Piperazine, 1-(4-methylphenyl)-;1-(4-Methylphenyl)piperazine;1-<em>p</em>-Tolylpiperazine;1-(4-Tolyl)piperazine;<em>N</em>-<em>p</em>-Tolylpiperazine;<em>N</em>-4-Tolylpiperazine;1-(<em>p</em>-Methylphenyl)piperazine;<em>N</em>-(4-Methylphenyl)piperazine;4-(4-Methylphenyl)piperazine;4-(4-Tolyl)piperazine;NSC 150849",
    "duplicated_cas_no": "",
    "SMILES": "CC1=CC=C(C=C1)N2CCNCC2",
    "meta_data": {
        "InChI": "InChI=1S/C11H16N2/c1-10-2-4-11(5-3-10)13-8-6-12-7-9-13/h2-5,12H,6-9H2,1H3",
        "InChIKey": null,
        "Canonical SMILES": "C=1C=C(C=CC1N2CCNCC2)C",
        "Molecular Formula": "C<sub>11</sub>H<sub>16</sub>N<sub>2</sub>",
        "Molecular Mass": "176.26",
        "Boiling Point": "142-143 °C @ Press: 7 Torr",
        "Melting Point": "32-33 °C"
    }
}