{
    "cas_no": "26576-46-5",
    "key_name": "<em>N</em>-(2,3-Dihydro-2-oxo-1<em>H</em>-benzimidazol-5-yl)-3-oxobutanamide",
    "cn_name": "5－乙酰乙酰氨基苯并咪唑酮;",
    "alternate_name": "Butanamide, <em>N</em>-(2,3-dihydro-2-oxo-1<em>H</em>-benzimidazol-5-yl)-3-oxo-;<em>N</em>-(2,3-Dihydro-2-oxo-1<em>H</em>-benzimidazol-5-yl)-3-oxobutanamide;5-(Acetylacetamido)benzimidazolone;5-Acetoacetamido-2-benzimidazolinone;5-(Acetoacetylamino)benzimidazolone;5-(Acetoacetylamino)benzimidazolinone;5-(Acetoacetamido)benzimidazolone;5-Acetoacetamido-2-benzimidazolone;5-(Acetoacetylamino)benzimidazol-2-one;AA-BI;3-Oxo-<em>N</em>-(2-oxo-2,3-dihydro-1<em>H</em>-1,3-benzodiazol-5-yl)butanamide;3-Oxo-<em>N</em>-(2-oxo-1,3-dihydrobenzimidazol-5-yl)butanamide",
    "duplicated_cas_no": "",
    "SMILES": "N(C(CC(C)=O)=O)C=1C=C2C(=CC1)NC(=O)N2",
    "meta_data": {
        "InChI": "InChI=1S/C11H11N3O3/c1-6(15)4-10(16)12-7-2-3-8-9(5-7)14-11(17)13-8/h2-3,5H,4H2,1H3,(H,12,16)(H2,13,14,17)",
        "InChIKey": null,
        "Canonical SMILES": "O=C1NC2=CC=C(C=C2N1)NC(=O)CC(=O)C",
        "Molecular Formula": "C<sub>11</sub>H<sub>11</sub>N<sub>3</sub>O<sub>3</sub>",
        "Molecular Mass": "233.22",
        "Melting Point": "350-352 °C"
    }
}