{
    "cas_no": "6253-10-7",
    "key_name": "Disperse Orange 13",
    "cn_name": "分散橙13;",
    "alternate_name": "Phenol, 4-[2-[4-(2-phenyldiazenyl)-1-naphthalenyl]diazenyl]-;C.I. Disperse Orange 13;Phenol, 4-[[4-(phenylazo)-1-naphthalenyl]azo]-;4-[2-[4-(2-Phenyldiazenyl)-1-naphthalenyl]diazenyl]phenol;C.I. 26080;Dianix Fast Orange B;Dianix Orange B;Dispersol Printing Orange B;Kayalon Polyester Orange BF;Miketon Polyester Orange B;Palanil Orange G;Resolin Orange RL;Samaron Orange B;Serilene Orange BL;Setacyl Orange P-GRL;Sumikaron Orange B;Supracet Golden Orange GR;Supracet Golden Orange TG 2R;Dispersol Orange B 300;Disperse Orange 13;1-(4-Hydroxyphenylazo)-4-(phenylazo)naphthalene;C.I. Solvent Orange 52;Seriplas Orange BL;Dispersol Orange C-B;1-Phenylazo-4-(<em>p</em>-hydroxyphenylazo)naphthalene;Sumikaron Orange SE-B;Dispersol Orange G-B;Celliton Fast Orange B 300;Kayalon Polyester Orange B;Synten Orange P-B;Dianix Orange B-SE;Tulasteron Fast Orange B-C;Solvent Orange 52;Samaron Orange HB",
    "duplicated_cas_no": "12227-71-3;62996-33-2",
    "SMILES": "N(=NC1=CC=C(O)C=C1)C=2C3=C(C(N=NC4=CC=CC=C4)=CC2)C=CC=C3",
    "meta_data": {
        "InChI": "InChI=1S/C22H16N4O/c27-18-12-10-17(11-13-18)24-26-22-15-14-21(19-8-4-5-9-20(19)22)25-23-16-6-2-1-3-7-16/h1-15,27H",
        "InChIKey": null,
        "Canonical SMILES": "OC1=CC=C(N=NC2=CC=C(N=NC=3C=CC=CC3)C=4C=CC=CC24)C=C1",
        "Molecular Formula": "C<sub>22</sub>H<sub>16</sub>N<sub>4</sub>O",
        "Molecular Mass": "352.39",
        "Melting Point": "210.5 °C"
    }
}