{
    "cas_no": "13019-20-0",
    "key_name": "2-Methyl-3-heptanone",
    "cn_name": "2-甲基-3-庚酮;丁基异丙基甲酮;",
    "alternate_name": "3-Heptanone, 2-methyl-;2-Methyl-3-heptanone;NSC 21978;Butyl isopropyl ketone;6-Methyl-5-heptanone",
    "duplicated_cas_no": "",
    "SMILES": "C(C(C)C)(CCCC)=O",
    "meta_data": {
        "InChI": "InChI=1S/C8H16O/c1-4-5-6-8(9)7(2)3/h7H,4-6H2,1-3H3",
        "InChIKey": null,
        "Canonical SMILES": "O=C(CCCC)C(C)C",
        "Molecular Formula": "C<sub>8</sub>H<sub>16</sub>O",
        "Molecular Mass": "128.21",
        "Boiling Point": "158 °C",
        "Density": "0.816 g/cm³ @ Temp: 20 °C"
    }
}