{
    "cas_no": "3333-13-9",
    "key_name": "4-Allyltoluene",
    "cn_name": null,
    "alternate_name": "Benzene, 1-methyl-4-(2-propen-1-yl)-;Toluene, <em>p</em>-allyl-;Benzene, 1-methyl-4-(2-propenyl)-;1-Methyl-4-(2-propen-1-yl)benzene;<em>p</em>-Allyltoluene;1-Allyl-4-methylbenzene;3-<em>p</em>-Tolylpropene;<em>p</em>-Methylallylbenzene;4-Allyltoluene;4-Methyl-1-allylbenzene;NSC 73971;4-Methyl(allyl)benzene;3-(4-Methylphenyl)-1-propene;1-(4-Methylphenyl)-2-propene;1-Methyl-4-allyl benzene;1-Methyl-4-(2-propenyl)benzene",
    "duplicated_cas_no": "",
    "SMILES": "C(C=C)C1=CC=C(C)C=C1",
    "meta_data": {
        "InChI": "InChI=1S/C10H12/c1-3-4-10-7-5-9(2)6-8-10/h3,5-8H,1,4H2,2H3",
        "InChIKey": null,
        "Canonical SMILES": "C=CCC1=CC=C(C=C1)C",
        "Molecular Formula": "C<sub>10</sub>H<sub>12</sub>",
        "Molecular Mass": "132.20",
        "Boiling Point": "180-181 °C",
        "Density": "1.5082 g/cm³ @ Temp: 20 °C"
    }
}