{
    "cas_no": "3460-49-9",
    "key_name": "1-Ethoxy-4-isothiocyanatobenzene",
    "cn_name": "4-乙氧基苯基硫氰酸酯;",
    "alternate_name": "Benzene, 1-ethoxy-4-isothiocyanato-;Isothiocyanic acid, <em>p</em>-ethoxyphenyl ester;Phenetole, <em>p</em>-isothiocyanato-;1-Ethoxy-4-isothiocyanatobenzene;<em>p</em>-Ethoxyphenyl isothiocyanate;4-Ethoxyphenyl isothiocyanate;NSC 108217;1-Isothiocyanato-4-ethoxybenzene",
    "duplicated_cas_no": "",
    "SMILES": "N(=C=S)C1=CC=C(OCC)C=C1",
    "meta_data": {
        "InChI": "InChI=1S/C9H9NOS/c1-2-11-9-5-3-8(4-6-9)10-7-12/h3-6H,2H2,1H3",
        "InChIKey": null,
        "Canonical SMILES": "S=C=NC1=CC=C(OCC)C=C1",
        "Molecular Formula": "C<sub>9</sub>H<sub>9</sub>NOS",
        "Molecular Mass": "179.24",
        "Boiling Point": "153-154 °C @ Press: 15 Torr",
        "Melting Point": "62 °C"
    }
}