{
    "cas_no": "6486-23-3",
    "key_name": "Pigment Yellow 3",
    "cn_name": "颜料黄3;耐晒黄10G;2-[(4-氯-2-硝基苯基)偶氮]-N-(2-氯苯基)-3-氧代-丁酰胺;",
    "alternate_name": "Butanamide, 2-[2-(4-chloro-2-nitrophenyl)diazenyl]-<em>N</em>-(2-chlorophenyl)-3-oxo-;C.I. Pigment Yellow 3;Butanamide, 2-[(4-chloro-2-nitrophenyl)azo]-<em>N</em>-(2-chlorophenyl)-3-oxo-;Acetoacetanilide, 2′-chloro-2-(4-chloro-2-nitrophenylazo)-;2-[2-(4-Chloro-2-nitrophenyl)diazenyl]-<em>N</em>-(2-chlorophenyl)-3-oxobutanamide;C.I. 11710;ADC Pigment Yellow 10G;Arylamide Yellow 10G;Carnelio Yellow 10G;Chromatex Yellow 10J;Dainichi Fast Yellow 10G;Eljon Fast Primrose PV Extra;Eljon Fast Yellow 10G;Eljon Fast Yellow 10GX;Fanchon Yellow (10G) YH-4;Fastona Yellow 10G;Fast Yellow 10J;Fast Yellow 10JT;Fast Yellow 15J;Graphtol Yellow 10GL;Hancock Yellow 1007;Hansa Yellow 10G;Hansa Yellow 10GD;Hansa Yellow 10GT;Hansa Yellow 10G Extra;Hansa Yellow 10G Toner;Helio Fast Yellow 8GM;Hostaperm Yellow IOG;Irgalite Fast Yellow P 10G;Irgalite Yellow PV 4;Irgalite Yellow VG;Irgalite Yellow VGT;Irgalite Yellow VGX;Iroquois Yellow X 1285;Isol Aryl Yellow 10G;Isol Aryl Yellow 10GX;Kromon Yellow 10G Extra;Lutetia Fast Yellow 10J;Lutetia Fast Yellow 12J;Mono Fast Yellow 10G;Monolite Fast Paper Yellow 10G;Monolite Fast Yellow 10G;Monolite Fast Yellow 10GA;Monolite Fast Yellow 10GBA;Monolite Fast Yellow 10GV;Oralith Yellow 10G;Permanent Yellow Toner 10G;Permanent Yellow 10G-YT372;Permansa Yellow 10G;Pigment Yellow 10G;Polymo Yellow F 7G;Recolite Fast Yellow 10GT;Recolite Fast Yellow 10G;Sanyo Fast Yellow 10G;Segnale Light Yellow 10G;Siegle Yellow 10G;Silopol Yellow 10G;Silosol Yellow 10GN;Siloton Yellow 10GCL;Symuler Fast Yellow 10GH;Syton Fast Yellow 10G;Tertropigment Yellow 10G;Tertropigment Yellow 10GT;Toluidine Yellow AH 177;Versal Yellow 10G;Vulcol Yellow 10G;α-(4-Chloro-2-nitrophenylazo)acetoacetic acid <em>o</em>-chloroanilide;Pigment Yellow 2ZTP;Monolite Yellow 10G;Pigment Yellow 3;Irgalite Yellow 10G;Pigment Lightfast Yellow 2Z;Pigment Lightfast Yellow 2ZTP;Hansa Yellow 10G41;Yellow 23TP;Arylide Yellow 10G;Lemon Yellow (organic pigment);Talens Yellow Lemon;Lemon Yellow;Lutetia Yellow 10JN;Irgalite Yellow PDS 9;Sico Yellow L 0951;Levanyl Yellow 10GZ;Fast Yellow 10GH Conc.;Seikafast Yellow 10GH Conc S;Lightfast Yellow 10G;NSC 17264;Hansa Yellow 10G Pure;Aquarine Yellow 10G;Seikafast Yellow 10G Conc S;CI 11710 Yellow;Hansa Yellow 10GM;Hansa Yellow 3;PY 3;Seikafast Yellow 2030",
    "duplicated_cas_no": "10347-17-8;11129-86-5;50642-22-3;477904-36-2",
    "SMILES": "N(=NC(C(NC1=C(Cl)C=CC=C1)=O)C(C)=O)C2=C(N(=O)=O)C=C(Cl)C=C2",
    "meta_data": {
        "InChI": "InChI=1S/C16H12Cl2N4O4/c1-9(23)15(16(24)19-12-5-3-2-4-11(12)18)21-20-13-7-6-10(17)8-14(13)22(25)26/h2-8,15H,1H3,(H,19,24)",
        "InChIKey": null,
        "Canonical SMILES": "O=C(NC=1C=CC=CC1Cl)C(N=NC2=CC=C(Cl)C=C2N(=O)=O)C(=O)C",
        "Molecular Formula": "C<sub>16</sub>H<sub>12</sub>Cl<sub>2</sub>N<sub>4</sub>O<sub>4</sub>",
        "Molecular Mass": "395.20",
        "Melting Point": "230 °C"
    }
}