{
    "cas_no": "25395-22-6",
    "key_name": "Salicylamide <em>O</em>-acetic acid",
    "cn_name": "2-氨甲酰基苯氧乙酸;",
    "alternate_name": "Acetic acid, 2-[2-(aminocarbonyl)phenoxy]-;Acetic acid, (<em>o</em>-carbamoylphenoxy)-;Acetic acid, [2-(aminocarbonyl)phenoxy]-;2-[2-(Aminocarbonyl)phenoxy]acetic acid;(<em>o</em>-Carbamoylphenoxy)acetic acid;<em>o</em>-Carboxyamidophenoxyacetic acid;Salicylamide <em>O</em>-acetic acid;2-(Carboxymethoxy)benzamide;(2-Carbamoylphenoxy)acetic acid;[2-(Aminocarbonyl)phenoxy]acetic acid;NSC 65589;2-(2-Carbamoylphenoxy)acetic acid;2-(2-Carbamoylphenoxy)aceticacid",
    "duplicated_cas_no": "",
    "SMILES": "O(CC(O)=O)C1=C(C(N)=O)C=CC=C1",
    "meta_data": {
        "InChI": "InChI=1S/C9H9NO4/c10-9(13)6-3-1-2-4-7(6)14-5-8(11)12/h1-4H,5H2,(H2,10,13)(H,11,12)",
        "InChIKey": null,
        "Canonical SMILES": "O=C(O)COC=1C=CC=CC1C(=O)N",
        "Molecular Formula": "C<sub>9</sub>H<sub>9</sub>NO<sub>4</sub>",
        "Molecular Mass": "195.17",
        "Melting Point": "221 °C"
    }
}