{
    "cas_no": "3524-73-0",
    "key_name": "5-Methyl-1-hexene",
    "cn_name": "5-甲基-1-己烯;5-甲基己烯;",
    "alternate_name": "1-Hexene, 5-methyl-;5-Methyl-1-hexene;NSC 73927",
    "duplicated_cas_no": "",
    "SMILES": "C(C(C)C)CC=C",
    "meta_data": {
        "InChI": "InChI=1S/C7H14/c1-4-5-6-7(2)3/h4,7H,1,5-6H2,2-3H3",
        "InChIKey": null,
        "Canonical SMILES": "C=CCCC(C)C",
        "Molecular Formula": "C<sub>7</sub>H<sub>14</sub>",
        "Molecular Mass": "98.19",
        "Boiling Point": "85.3 °C",
        "Density": "0.7160 g/cm³ @ Temp: 16 °C"
    }
}