{
    "cas_no": "6628-86-0",
    "key_name": "5-Chloro-2-nitrobenzaldehyde",
    "cn_name": "5-氯-2-硝基苯甲醛;",
    "alternate_name": "Benzaldehyde, 5-chloro-2-nitro-;5-Chloro-2-nitrobenzaldehyde;2-Nitro-5-chlorobenzaldehyde;3-Chloro-6-nitrobenzaldehyde;NSC 59734",
    "duplicated_cas_no": "2130991-53-4",
    "SMILES": "C(=O)C1=C(N(=O)=O)C=CC(Cl)=C1",
    "meta_data": {
        "InChI": "InChI=1S/C7H4ClNO3/c8-6-1-2-7(9(11)12)5(3-6)4-10/h1-4H",
        "InChIKey": null,
        "Canonical SMILES": "O=CC1=CC(Cl)=CC=C1N(=O)=O",
        "Molecular Formula": "C<sub>7</sub>H<sub>4</sub>ClNO<sub>3</sub>",
        "Molecular Mass": "185.56",
        "Melting Point": "78.5-79.5 °C"
    }
}