{
    "cas_no": "1370003-76-1",
    "key_name": "Methyl (17α,20<em>E</em>)-17,20-[(1-methoxyethylidene)bis(oxy)]-3-oxo-19-norpregna-4,20-diene-21-carboxylate",
    "cn_name": null,
    "alternate_name": "19-Norpregna-4,20-diene-21-carboxylic acid, 17,20-[(1-methoxyethylidene)bis(oxy)]-3-oxo-, methyl ester, (17α,20<em>E</em>)-;Methyl (17α,20<em>E</em>)-17,20-[(1-methoxyethylidene)bis(oxy)]-3-oxo-19-norpregna-4,20-diene-21-carboxylate;YK 11",
    "duplicated_cas_no": "",
    "SMILES": "C[C@@]12[C@]3(/C(=C\\C(OC)=O)/OC(OC)(C)O3)CC[C@]1([C@]4([C@](CC2)([C@@]5(C(CC4)=CC(=O)CC5)[H])[H])[H])[H]",
    "meta_data": {
        "InChI": "InChI=1S/C25H34O6/c1-23-11-9-18-17-8-6-16(26)13-15(17)5-7-19(18)20(23)10-12-25(23)21(14-22(27)28-3)30-24(2,29-4)31-25/h13-14,17-20H,5-12H2,1-4H3/b21-14+/t17-,18+,19+,20-,23-,24?,25+/m0/s1",
        "InChIKey": null,
        "Canonical SMILES": "O=C(OC)C=C1OC(OC)(OC12CCC3C4CCC5=CC(=O)CCC5C4CCC32C)C",
        "Molecular Formula": "C<sub>25</sub>H<sub>34</sub>O<sub>6</sub>",
        "Molecular Mass": "430.53",
        "Melting Point": "136 °C"
    }
}