{
    "cas_no": "24398-88-7",
    "key_name": "Ethyl 3-bromobenzoate",
    "cn_name": "间溴苯甲酸乙酯 [24398-88-7];间溴苯甲酸乙酯;3-溴苯甲酸乙酯;",
    "alternate_name": "Benzoic acid, 3-bromo-, ethyl ester;Benzoic acid, <em>m</em>-bromo-, ethyl ester;Ethyl 3-bromobenzoate;Ethyl <em>m</em>-bromobenzoate;3-(Ethoxycarbonyl)phenyl bromide;3-Bromobenzoic acid ethyl ester",
    "duplicated_cas_no": "",
    "SMILES": "C(OCC)(=O)C1=CC(Br)=CC=C1",
    "meta_data": {
        "InChI": "InChI=1S/C9H9BrO2/c1-2-12-9(11)7-4-3-5-8(10)6-7/h3-6H,2H2,1H3",
        "InChIKey": null,
        "Canonical SMILES": "O=C(OCC)C=1C=CC=C(Br)C1",
        "Molecular Formula": "C<sub>9</sub>H<sub>9</sub>BrO<sub>2</sub>",
        "Molecular Mass": "229.07",
        "Boiling Point": "261 °C",
        "Melting Point": "26-30 °C"
    }
}