{
    "cas_no": "63321-70-0",
    "key_name": "2-Ethylhexyl caprylate",
    "cn_name": null,
    "alternate_name": "Octanoic acid, 2-ethylhexyl ester;2-Ethyl-1-hexyl octanoate;2-Ethylhexyl octanoate;2-Ethylhexyl caprylate;NSC 403894;Edenor LPL;Pastell 2H08;Radia 7126",
    "duplicated_cas_no": "",
    "SMILES": "C(COC(CCCCCCC)=O)(CCCC)CC",
    "meta_data": {
        "InChI": "InChI=1S/C16H32O2/c1-4-7-9-10-11-13-16(17)18-14-15(6-3)12-8-5-2/h15H,4-14H2,1-3H3",
        "InChIKey": null,
        "Canonical SMILES": "O=C(OCC(CC)CCCC)CCCCCCC",
        "Molecular Formula": "C<sub>16</sub>H<sub>32</sub>O<sub>2</sub>",
        "Molecular Mass": "256.42",
        "Boiling Point": "296 °C"
    }
}