{
    "cas_no": "31249-95-3",
    "key_name": "1,4,10-Trioxa-7,13-diazacyclopentadecane",
    "cn_name": "1,7-偶氮-15-冠醚-5;1,7-偶氮-15-冠-5;1，4，10-三噁-7，13-环十五烷;",
    "alternate_name": "1,4,10-Trioxa-7,13-diazacyclopentadecane;Kryptofix 21;4,7,13-Trioxa-1,10-diazacyclopentadecane;1,7-Diaza-4,10,13-trioxacyclopentadecane;1,7-Diaza-15-crown-5;Diaza crown ether 21;Cryptand 21;4,10-Diaza-15-crown-5;7,13-Diaza-15-crown-5;NSC 339327",
    "duplicated_cas_no": "119811-37-9",
    "SMILES": "C1COCCNCCOCCOCCN1",
    "meta_data": {
        "InChI": "InChI=1S/C10H22N2O3/c1-5-13-6-2-12-4-8-15-10-9-14-7-3-11-1/h11-12H,1-10H2",
        "InChIKey": null,
        "Canonical SMILES": "O1CCOCCNCCOCCNCC1",
        "Molecular Formula": "C<sub>10</sub>H<sub>22</sub>N<sub>2</sub>O<sub>3</sub>",
        "Molecular Mass": "218.29",
        "Boiling Point": "80-85 °C @ Press: 0.015 Torr",
        "Melting Point": "89-91 °C"
    }
}