{
    "cas_no": "846-49-1",
    "key_name": "Lorazepam",
    "cn_name": "劳拉西泮;7-氯-5-(2-氯苯基)-3-羟基-1,3-二氢-2H-1,4-苯二氮卓-2-酮;",
    "alternate_name": "2<em>H</em>-1,4-Benzodiazepin-2-one, 7-chloro-5-(2-chlorophenyl)-1,3-dihydro-3-hydroxy-;2<em>H</em>-1,4-Benzodiazepin-2-one, 7-chloro-5-(<em>o</em>-chlorophenyl)-1,3-dihydro-3-hydroxy-;7-Chloro-5-(2-chlorophenyl)-1,3-dihydro-3-hydroxy-2<em>H</em>-1,4-benzodiazepin-2-one;7-Chloro-5-(<em>o</em>-chlorophenyl)-1,3-dihydro-3-hydroxy-2<em>H</em>-1,4-benzodiazepin-2-one;Wy 4036;Lorazepam;Demethyllormetazepam;<em>o</em>-Chlorooxazepam;<em>o</em>-Chloroxazepam;Temesta;Tavor;Ativan;Wypax;Norlormetazepam;Delormetazepam;(±)-Lorazepam;(<em>RS</em>)-Lorazepam;Almazine;Orfidal;Apo-Lorazepam;Lorapam;Larpose;Aplacassee;Novo-lorazem;Loram;Lorabenz;Merlit;Lorenin;Wintin;Renaquil;Bonatranquan;Lorat;Novhepar;Upan;Lorazep;Lorax;Lorsedal;Efasedan;Sedatival;Sidenar;Nervistop L;Duralozam;Lorans;Punktyl;Lorazene;Lozepam;Sedizepan;Loridem;Bonton;Anxiedin;Lopam;Laubeel;Silence;Azurogen;Anxira;Anzepam;Aripax;Lorazon;Equitam;Trapax;Kalmalin;Lorzem;Lorivan;Aplacasse;Lorazin;Rocosgen;Tranqipam;Sinestron;Stapam;Control;NIC;Trapex;Titus;Emotival;Psicopax;Securit;Sedazin;Quait;Somagerol;Pro Dorm;Lorsilan;NSC 289758;Tavor Expidet;Lorazem;7-Chloro-5-(2-chlorophenyl)-3-hydroxy-1<em>H</em>-1,4-benzodiazepin-2(3<em>H</em>)-one;MeSH ID: D008140",
    "duplicated_cas_no": "91402-51-6",
    "SMILES": "ClC1=C(C=2C=3C(NC(=O)C(O)N2)=CC=C(Cl)C3)C=CC=C1",
    "meta_data": {
        "InChI": "InChI=1S/C15H10Cl2N2O2/c16-8-5-6-12-10(7-8)13(19-15(21)14(20)18-12)9-3-1-2-4-11(9)17/h1-7,15,21H,(H,18,20)",
        "InChIKey": null,
        "Canonical SMILES": "O=C1NC=2C=CC(Cl)=CC2C(=NC1O)C=3C=CC=CC3Cl",
        "Molecular Formula": "C<sub>15</sub>H<sub>10</sub>Cl<sub>2</sub>N<sub>2</sub>O<sub>2</sub>",
        "Molecular Mass": "321.16",
        "Melting Point": "167 °C"
    }
}