{
    "cas_no": "2545-59-7",
    "key_name": "2,4,5-T Butoxyethyl ester",
    "cn_name": "2,4,5-涕酸丁氧基乙酯;",
    "alternate_name": "Acetic acid, 2-(2,4,5-trichlorophenoxy)-, 2-butoxyethyl ester;Acetic acid, (2,4,5-trichlorophenoxy)-, 2-butoxyethyl ester;Ethanol, 2-butoxy-, (2,4,5-trichlorophenoxy)acetate;Butoxyethyl 2,4,5-T;2,4,5-Trichlorophenoxyacetic acid butoxyethyl ester;Trinoxol;(2,4,5-Trichlorophenoxy)acetic acid butoxyethanol ester;Butoxyethyl 2,4,5-trichlorophenoxyacetate;2,4,5-T Butoxyethanol ester;2,4,5-T Butoxyethyl ester;Hormoslyr 500T;Bladex H;Weedone 2,4,5-T;2,4,5-T 2-butoxyethyl ester;2-Butoxyethyl 2-(2,4,5-trichlorophenoxy)acetate;2,4,5-T-Butotyl",
    "duplicated_cas_no": "",
    "SMILES": "O(CC(OCCOCCCC)=O)C1=C(Cl)C=C(Cl)C(Cl)=C1",
    "meta_data": {
        "InChI": "InChI=1S/C14H17Cl3O4/c1-2-3-4-19-5-6-20-14(18)9-21-13-8-11(16)10(15)7-12(13)17/h7-8H,2-6,9H2,1H3",
        "InChIKey": null,
        "Canonical SMILES": "O=C(OCCOCCCC)COC1=CC(Cl)=C(Cl)C=C1Cl",
        "Molecular Formula": "C<sub>14</sub>H<sub>17</sub>Cl<sub>3</sub>O<sub>4</sub>",
        "Molecular Mass": "355.64",
        "Boiling Point": "163-166 °C",
        "Density": "1.280 g/cm³ @ Temp: 20 °C"
    }
}