{
    "cas_no": "6280-89-3",
    "key_name": "2-Chloro-5-methoxybenzoic acid",
    "cn_name": "2-氯-5-甲氧基苯甲酸;",
    "alternate_name": "Benzoic acid, 2-chloro-5-methoxy-;<em>m</em>-Anisic acid, 6-chloro-;2-Chloro-5-methoxybenzoic acid;6-Chloro-<em>m</em>-anisic acid;NSC 6159",
    "duplicated_cas_no": "",
    "SMILES": "C(O)(=O)C1=CC(OC)=CC=C1Cl",
    "meta_data": {
        "InChI": "InChI=1S/C8H7ClO3/c1-12-5-2-3-7(9)6(4-5)8(10)11/h2-4H,1H3,(H,10,11)",
        "InChIKey": null,
        "Canonical SMILES": "O=C(O)C1=CC(OC)=CC=C1Cl",
        "Molecular Formula": "C<sub>8</sub>H<sub>7</sub>ClO<sub>3</sub>",
        "Molecular Mass": "186.59",
        "Melting Point": "172.5-173 °C"
    }
}