{
    "cas_no": "4404-45-9",
    "key_name": "Hexyl isothiocyanate",
    "cn_name": "1-异硫代氰酸己酯;1-异硫代氰酸己酯;",
    "alternate_name": "Hexane, 1-isothiocyanato-;Isothiocyanic acid, hexyl ester;1-Isothiocyanatohexane;Hexyl isothiocyanate;<em>n</em>-Hexyl isothiocyanate;1-Hexyl isothiocyanate",
    "duplicated_cas_no": "1071559-86-8",
    "SMILES": "C(CCCC)CN=C=S",
    "meta_data": {
        "InChI": "InChI=1S/C7H13NS/c1-2-3-4-5-6-8-7-9/h2-6H2,1H3",
        "InChIKey": null,
        "Canonical SMILES": "S=C=NCCCCCC",
        "Molecular Formula": "C<sub>7</sub>H<sub>13</sub>NS",
        "Molecular Mass": "143.25",
        "Boiling Point": "210 °C",
        "Melting Point": "83 °C"
    }
}