{
    "cas_no": "464-45-9",
    "key_name": "(-)-Borneol",
    "cn_name": "合成右旋龙脑;2-莰醇;(1S)-(-)-冰片;内型-(1S)-1,7,7-三甲基二环[2.2.1]庚-2-醇;",
    "alternate_name": "Bicyclo[2.2.1]heptan-2-ol, 1,7,7-trimethyl-, (1<em>S</em>,2<em>R</em>,4<em>S</em>)-;Borneol, (1<em>S</em>,2<em>R</em>,4<em>S</em>)-(-)-;Bicyclo[2.2.1]heptan-2-ol, 1,7,7-trimethyl-, (1<em>S</em>-<em>endo</em>)-;(1<em>S</em>,2<em>R</em>,4<em>S</em>)-1,7,7-Trimethylbicyclo[2.2.1]heptan-2-ol;(-)-Borneol;Linderol;Ngai camphor;<em>l</em>-Borneol;(-)-(1<em>S</em>,4<em>S</em>)-Borneol;(2<em>R</em>)-(-)-Borneol;(1<em>S</em>,2<em>R</em>,4<em>S</em>)-Borneol;(-)-<em>endo</em>-Borneol;<span class=\"text-smallcaps\">L</span>-Borneol;<em>endo</em>-(-)-Borneol;(1<em>S</em>)-(-)-Borneol;(1<em>S</em>)-<em>endo</em>-Borneol;(1<em>S</em>)-<em>endo</em>-(-)-Borneol;(-)-[(1<em>S</em>)-<em>endo</em>]-Borneol;<em>endo</em>-(1<em>S</em>)-(-)-Borneol;Camphyl alcohol;(1S)-<em>endo</em>-(-)-Borneol",
    "duplicated_cas_no": "95650-45-6;1140588-66-4;2350248-19-8",
    "SMILES": "C[C@]12C(C)(C)[C@](C[C@H]1O)(CC2)[H]",
    "meta_data": {
        "InChI": "InChI=1S/C10H18O/c1-9(2)7-4-5-10(9,3)8(11)6-7/h7-8,11H,4-6H2,1-3H3/t7-,8+,10+/m0/s1",
        "InChIKey": null,
        "Canonical SMILES": "OC1CC2CCC1(C)C2(C)C",
        "Molecular Formula": "C<sub>10</sub>H<sub>18</sub>O",
        "Molecular Mass": "154.25",
        "Boiling Point": "210 °C",
        "Melting Point": "207 °C"
    }
}