{
    "cas_no": "6313-37-7",
    "key_name": "2,5-Dimethoxy-4-nitrobenzenamine",
    "cn_name": "2,5-二甲氧基-4-硝基苯胺;",
    "alternate_name": "Benzenamine, 2,5-dimethoxy-4-nitro-;Aniline, 2,5-dimethoxy-4-nitro-;2,5-Dimethoxy-4-nitrobenzenamine;2,5-Dimethoxy-4-nitroaniline;3,6-Dimethoxy-4-nitroaniline;1-Amino-2,5-dimethoxy-4-nitrobenzene;NSC 39868",
    "duplicated_cas_no": "",
    "SMILES": "N(=O)(=O)C1=C(OC)C=C(N)C(OC)=C1",
    "meta_data": {
        "InChI": "InChI=1S/C8H10N2O4/c1-13-7-4-6(10(11)12)8(14-2)3-5(7)9/h3-4H,9H2,1-2H3",
        "InChIKey": null,
        "Canonical SMILES": "O=N(=O)C=1C=C(OC)C(N)=CC1OC",
        "Molecular Formula": "C<sub>8</sub>H<sub>10</sub>N<sub>2</sub>O<sub>4</sub>",
        "Molecular Mass": "198.18",
        "Melting Point": "152-153 °C"
    }
}