{
    "cas_no": "121104-96-9",
    "key_name": "Celgosivir",
    "cn_name": null,
    "alternate_name": "Butanoic acid, (1<em>S</em>,6<em>S</em>,7<em>S</em>,8<em>R</em>,8a<em>R</em>)-octahydro-1,7,8-trihydroxy-6-indolizinyl ester;Butanoic acid, octahydro-1,7,8-trihydroxy-6-indolizinyl ester, [1<em>S</em>-(1α,6β,7α,8β,8aβ)]-;6-<em>O</em>-Butanoylcastanospermine;MDL 28574;BuCast;Celgosivir;6-<em>O</em>-Butyrylcastanospermine",
    "duplicated_cas_no": "134998-67-7",
    "SMILES": "O[C@@H]1[C@@]2(N(C[C@H](OC(CCC)=O)[C@H]1O)CC[C@@H]2O)[H]",
    "meta_data": {
        "InChI": "InChI=1S/C12H21NO5/c1-2-3-9(15)18-8-6-13-5-4-7(14)10(13)12(17)11(8)16/h7-8,10-12,14,16-17H,2-6H2,1H3/t7-,8-,10+,11+,12+/m0/s1",
        "InChIKey": null,
        "Canonical SMILES": "O=C(OC1CN2CCC(O)C2C(O)C1O)CCC",
        "Molecular Formula": "C<sub>12</sub>H<sub>21</sub>NO<sub>5</sub>",
        "Molecular Mass": "259.30",
        "Melting Point": "114-115 °C"
    }
}