{
    "cas_no": "91-16-7",
    "key_name": "Veratrole",
    "cn_name": "邻苯二甲醚;1,2-二甲氧基苯;",
    "alternate_name": "Benzene, 1,2-dimethoxy-;Benzene, <em>o</em>-dimethoxy-;1,2-Dimethoxybenzene;<em>o</em>-Dimethoxybenzene;Pyrocatechol dimethyl ether;Veratrol;Veratrole;<em>O</em>,<em>O</em>-Dimethylcatechol;Methylguaiacol;Catechol dimethyl ether;<em>o</em>-Methoxyanisole;<em>o</em>-Hydroquinone dimethyl ether;2-Methoxyanisole;NSC 16934",
    "duplicated_cas_no": "",
    "SMILES": "O(C)C1=C(OC)C=CC=C1",
    "meta_data": {
        "InChI": "InChI=1S/C8H10O2/c1-9-7-5-3-4-6-8(7)10-2/h3-6H,1-2H3",
        "InChIKey": null,
        "Canonical SMILES": "O(C=1C=CC=CC1OC)C",
        "Molecular Formula": "C<sub>8</sub>H<sub>10</sub>O<sub>2</sub>",
        "Molecular Mass": "138.16",
        "Boiling Point": "206 °C",
        "Melting Point": "22.5 °C",
        "Density": "1.2052 g/cm³ @ Temp: 17 °C"
    }
}