{
    "cas_no": "1009-11-6",
    "key_name": "4′-Hydroxybutyrophenone",
    "cn_name": "4\"-羟基苯丁酮;对羟基苯丁酮;",
    "alternate_name": "1-Butanone, 1-(4-hydroxyphenyl)-;Butyrophenone, 4′-hydroxy-;1-(4-Hydroxyphenyl)-1-butanone;<em>p</em>-Butyrylphenol;4-Butyrylphenol;<em>p</em>-Hydroxybutyrophenone;4-Butanoylphenol;NSC 17548;1-(4-Hydroxyphenyl)butan-1-one;4′-Hydroxybutyrophenone;1-(<em>p</em>-Hydroxyphenyl)-1-butanone",
    "duplicated_cas_no": "",
    "SMILES": "C(CCC)(=O)C1=CC=C(O)C=C1",
    "meta_data": {
        "InChI": "InChI=1S/C10H12O2/c1-2-3-10(12)8-4-6-9(11)7-5-8/h4-7,11H,2-3H2,1H3",
        "InChIKey": null,
        "Canonical SMILES": "O=C(C1=CC=C(O)C=C1)CCC",
        "Molecular Formula": "C<sub>10</sub>H<sub>12</sub>O<sub>2</sub>",
        "Molecular Mass": "164.20",
        "Boiling Point": "200 °C @ Press: 15 Torr",
        "Melting Point": "91 °C",
        "Density": "1.0435 g/cm³ @ Temp: 24 °C"
    }
}