{
    "cas_no": "867-27-6",
    "key_name": "Demeton-<em>O</em>-methyl",
    "cn_name": null,
    "alternate_name": "Phosphorothioic acid, <em>O</em>-[2-(ethylthio)ethyl] <em>O</em>,<em>O</em>-dimethyl ester;Phosphorothioic acid, <em>O</em>-[2-(ethylthio)ethyl] <em>O</em>,<em>O</em>-di-Me ester;<em>O</em>,<em>O</em>-Dimethyl <em>O</em>-2-(ethylthio)ethyl phosphorothioate;<em>O</em>-[2-(Ethylthio)ethyl] <em>O</em>,<em>O</em>-dimethyl phosphorothioate;<em>O</em>-[2-(Ethylthio)ethyl] <em>O</em>,<em>O</em>-dimethyl thiophosphate;Demeton-<em>O</em>-methyl;Methyl-<em>O</em>-demeton;<em>O</em>,<em>O</em>-Dimethyl <em>O</em>-[2-(ethylthio)ethyl] thiophosphate;2-Ethylsulfanylethoxy-dimethoxy-sulfanylidene-λ5-phosphane",
    "duplicated_cas_no": "1081812-40-9",
    "SMILES": "P(OCCSCC)(OC)(OC)=S",
    "meta_data": {
        "InChI": "InChI=1S/C6H15O3PS2/c1-4-12-6-5-9-10(11,7-2)8-3/h4-6H2,1-3H3",
        "InChIKey": null,
        "Canonical SMILES": "S=P(OC)(OC)OCCSCC",
        "Molecular Formula": "C<sub>6</sub>H<sub>15</sub>O<sub>3</sub>PS<sub>2</sub>",
        "Molecular Mass": "230.29",
        "Boiling Point": "93 °C @ Press: 0.5 Torr",
        "Melting Point": "&lt;25 °C",
        "Density": "1.2 g/cm³"
    }
}