{
    "cas_no": "500011-86-9",
    "key_name": "3-Bromo-1-(3-chloro-2-pyridinyl)-1<em>H</em>-pyrazole-5-carboxylic acid",
    "cn_name": null,
    "alternate_name": "1<em>H</em>-Pyrazole-5-carboxylic acid, 3-bromo-1-(3-chloro-2-pyridinyl)-;3-Bromo-1-(3-chloro-2-pyridinyl)-1<em>H</em>-pyrazole-5-carboxylic acid",
    "duplicated_cas_no": "1571925-45-5",
    "SMILES": "C(O)(=O)C=1N(N=C(Br)C1)C2=C(Cl)C=CC=N2",
    "meta_data": {
        "InChI": "InChI=1S/C9H5BrClN3O2/c10-7-4-6(9(15)16)14(13-7)8-5(11)2-1-3-12-8/h1-4H,(H,15,16)",
        "InChIKey": null,
        "Canonical SMILES": "O=C(O)C1=CC(Br)=NN1C2=NC=CC=C2Cl",
        "Molecular Formula": "C<sub>9</sub>H<sub>5</sub>BrClN<sub>3</sub>O<sub>2</sub>",
        "Molecular Mass": "302.51",
        "Melting Point": "197-200 °C"
    }
}