{
    "cas_no": "6807-83-6",
    "key_name": "Trifolirhizin",
    "cn_name": "三叶豆紫檀苷;",
    "alternate_name": "β-<span class=\"text-smallcaps\">D</span>-Glucopyranoside, (6a<em>R</em>,12a<em>R</em>)-6a,12a-dihydro-6<em>H</em>-[1,3]dioxolo[5,6]benzofuro[3,2-<em>c</em>][1]benzopyran-3-yl;Trifolirhizin;β-<span class=\"text-smallcaps\">D</span>-Glucopyranoside, 6a,12a-dihydro-6<em>H</em>-[1,3]dioxolo[5,6]benzofuro[3,2-<em>c</em>][1]benzopyran-3-yl, (6a<em>R</em>-<em>cis</em>)-;6<em>H</em>-[1,3]Dioxolo[5,6]benzofuro[3,2-<em>c</em>][1]benzopyran, β-<span class=\"text-smallcaps\">D</span>-glucopyranoside deriv.;(6a<em>R</em>,12a<em>R</em>)-6a,12a-Dihydro-6<em>H</em>-[1,3]dioxolo[5,6]benzofuro[3,2-<em>c</em>][1]benzopyran-3-yl β-<span class=\"text-smallcaps\">D</span>-glucopyranoside;Sophojaponicin B<sub>1</sub>;(-)-Maackiain-3-<em>O</em>-glucoside;(6a<em>R</em>,11a<em>R</em>)-Trifolirhizin",
    "duplicated_cas_no": "30329-17-0;60132-71-0",
    "SMILES": "O(C=1C=C2C([C@]3([C@](C=4C(O3)=CC5=C(C4)OCO5)(CO2)[H])[H])=CC1)[C@@H]6O[C@H](CO)[C@@H](O)[C@H](O)[C@H]6O",
    "meta_data": {
        "InChI": "InChI=1S/C22H22O10/c23-6-17-18(24)19(25)20(26)22(32-17)30-9-1-2-10-13(3-9)27-7-12-11-4-15-16(29-8-28-15)5-14(11)31-21(10)12/h1-5,12,17-26H,6-8H2/t12-,17+,18+,19-,20+,21-,22+/m0/s1",
        "InChIKey": null,
        "Canonical SMILES": "OCC1OC(OC2=CC=C3C(OCC4C5=CC=6OCOC6C=C5OC34)=C2)C(O)C(O)C1O",
        "Molecular Formula": "C<sub>22</sub>H<sub>22</sub>O<sub>10</sub>",
        "Molecular Mass": "446.40",
        "Melting Point": "223 °C"
    }
}