{
    "cas_no": "7170-40-3",
    "key_name": "5-Phenoxypentanoic acid",
    "cn_name": null,
    "alternate_name": "Pentanoic acid, 5-phenoxy-;Valeric acid, 5-phenoxy-;5-Phenoxypentanoic acid;5-Phenoxyvaleric acid;NSC 192711",
    "duplicated_cas_no": "",
    "SMILES": "O(CCCCC(O)=O)C1=CC=CC=C1",
    "meta_data": {
        "InChI": "InChI=1S/C11H14O3/c12-11(13)8-4-5-9-14-10-6-2-1-3-7-10/h1-3,6-7H,4-5,8-9H2,(H,12,13)",
        "InChIKey": null,
        "Canonical SMILES": "O=C(O)CCCCOC=1C=CC=CC1",
        "Molecular Formula": "C<sub>11</sub>H<sub>14</sub>O<sub>3</sub>",
        "Molecular Mass": "194.23",
        "Boiling Point": "140 °C @ Press: 0.1 Torr",
        "Melting Point": "55-56 °C"
    }
}