{
    "cas_no": "479-45-8",
    "key_name": "Tetryl",
    "cn_name": "2,4,6-三硝基苯甲硝胺;",
    "alternate_name": "Benzenamine, <em>N</em>-methyl-<em>N</em>,2,4,6-tetranitro-;Aniline, <em>N</em>-methyl-<em>N</em>,2,4,6-tetranitro-;<em>N</em>-Methyl-<em>N</em>,2,4,6-tetranitrobenzenamine;CE;Picrylmethylnitramine;Picrylnitromethylamine;Tetralite;Tetryl;2,4,6-Tetryl;2,4,6-Trinitrophenyl-<em>N</em>-methylnitramine;2,4,6-Trinitrophenylmethylnitroamine;<em>N</em>-Picryl-<em>N</em>-methylnitramine;<em>N</em>-Methyl-<em>N</em>-picrylnitramine;Nitramine;Tetralit;Tetril;2,4,6,<em>N</em>-Tetranitro-<em>N</em>-methylaniline;Nitramine (indicator);2,4,6-Trinitro-<em>N</em>-methyl-<em>N</em>-nitroaniline;NSC 2166;<em>N</em>-Methyl-<em>N</em>,2,4,6-tetranitroaniline;1-(Methylnitramino)-2,4,6-trinitrobenzene",
    "duplicated_cas_no": "",
    "SMILES": "N(N(=O)=O)(C)C1=C(N(=O)=O)C=C(N(=O)=O)C=C1N(=O)=O",
    "meta_data": {
        "InChI": "InChI=1S/C7H5N5O8/c1-8(12(19)20)7-5(10(15)16)2-4(9(13)14)3-6(7)11(17)18/h2-3H,1H3",
        "InChIKey": null,
        "Canonical SMILES": "O=N(=O)C=1C=C(C(=C(C1)N(=O)=O)N(N(=O)=O)C)N(=O)=O",
        "Molecular Formula": "C<sub>7</sub>H<sub>5</sub>N<sub>5</sub>O<sub>8</sub>",
        "Molecular Mass": "287.14",
        "Melting Point": "130-132 °C",
        "Density": "1.57 g/cm³"
    }
}