{
    "cas_no": "129135-87-1",
    "key_name": "Potassium bis(nonafluorobutanesulfonyl)imide",
    "cn_name": "双(九氟-1-丁烷磺酰)亚胺钾盐;",
    "alternate_name": "1-Butanesulfonamide, 1,1,2,2,3,3,4,4,4-nonafluoro-<em>N</em>-[(1,1,2,2,3,3,4,4,4-nonafluorobutyl)sulfonyl]-, potassium salt (1:1);1-Butanesulfonamide, 1,1,2,2,3,3,4,4,4-nonafluoro-<em>N</em>-[(nonafluorobutyl)sulfonyl]-, potassium salt;1,1,2,2,3,3,4,4,4-nonafluoro-<em>N</em>-[(nonafluorobutyl)sulfonyl]-1-butanesulfonamide potassium salt;Potassium bis(perfluorobutanesulfonyl)imide;Potassium bis(nonafluorobutanesulfonyl)imide;EF-N 442;Bis(nonafluorobutanesulfone)imide potassium salt;Potassium Bis(nonafluorobutanesulfonimide)",
    "duplicated_cas_no": "861927-95-9",
    "SMILES": "C(C(C(C(F)(F)F)(F)F)(F)F)(S(NS(C(C(C(C(F)(F)F)(F)F)(F)F)(F)F)(=O)=O)(=O)=O)(F)F.[K]",
    "meta_data": {
        "InChI": "InChI=1S/C8HF18NO4S2.K/c9-1(10,5(17,18)19)3(13,14)7(23,24)32(28,29)27-33(30,31)8(25,26)4(15,16)2(11,12)6(20,21)22;/h27H;",
        "InChIKey": null,
        "Canonical SMILES": "[K].O=S(=O)(NS(=O)(=O)C(F)(F)C(F)(F)C(F)(F)C(F)(F)F)C(F)(F)C(F)(F)C(F)(F)C(F)(F)F",
        "Molecular Formula": "C<sub>8</sub>HF<sub>18</sub>NO<sub>4</sub>S<sub>2</sub>.K",
        "Molecular Mass": "",
        "Melting Point": "340-341 °C (decomp)"
    }
}