{
    "cas_no": "15450-05-2",
    "key_name": "4,5-Dihydro-2-propyl-1<em>H</em>-imidazole",
    "cn_name": "2-正丙基-2-咪唑啉;",
    "alternate_name": "1<em>H</em>-Imidazole, 4,5-dihydro-2-propyl-;2-Imidazoline, 2-propyl-;4,5-Dihydro-2-propyl-1<em>H</em>-imidazole;2-Propyl-2-imidazoline;2-Propyl-1-imidazoline",
    "duplicated_cas_no": "",
    "SMILES": "C(CC)C=1NCCN1",
    "meta_data": {
        "InChI": "InChI=1S/C6H12N2/c1-2-3-6-7-4-5-8-6/h2-5H2,1H3,(H,7,8)",
        "InChIKey": null,
        "Canonical SMILES": "N1=C(NCC1)CCC",
        "Molecular Formula": "C<sub>6</sub>H<sub>12</sub>N<sub>2</sub>",
        "Molecular Mass": "112.17",
        "Boiling Point": "135-140 °C @ Press: 25 Torr",
        "Melting Point": "35.3 °C"
    }
}