{
    "cas_no": "624-18-0",
    "key_name": "<em>p</em>-Phenylenediamine, dihydrochloride",
    "cn_name": "1,4-苯二胺盐酸盐;对苯二胺盐酸盐;",
    "alternate_name": "1,4-Benzenediamine, hydrochloride (1:2);<em>p</em>-Phenylenediamine, dihydrochloride;1,4-Benzenediamine, dihydrochloride;C.I. 76061;C.I. Oxidation Base 10A;Durafur Black RC;Fourrine 64;Fourrine DS;Pelagol CD;Pelagol Grey CD;1,4-Diaminobenzene dihydrochloride;1,4-Phenylenediamine dihydrochloride;<em>p</em>-Phenylenediammonium dichloride",
    "duplicated_cas_no": "",
    "SMILES": "NC1=CC=C(N)C=C1.Cl",
    "meta_data": {
        "InChI": "InChI=1S/C6H8N2.2ClH/c7-5-1-2-6(8)4-3-5;;/h1-4H,7-8H2;2*1H",
        "InChIKey": null,
        "Canonical SMILES": "Cl.NC1=CC=C(N)C=C1",
        "Molecular Formula": "C<sub>6</sub>H<sub>8</sub>N<sub>2</sub>.2ClH",
        "Molecular Mass": "",
        "Melting Point": "275 °C"
    }
}