{
    "cas_no": "1736-60-3",
    "key_name": "1,2,3,4,5-Pentafluoro-6-(2-propen-1-yl)benzene",
    "cn_name": "烯丙基五氟化苯;",
    "alternate_name": "Benzene, 1,2,3,4,5-pentafluoro-6-(2-propen-1-yl)-;Benzene, allylpentafluoro-;Benzene, pentafluoro-2-propenyl-;1,2,3,4,5-Pentafluoro-6-(2-propen-1-yl)benzene;3-(Perfluorophenyl)propene;Allylpentafluorobenzene;3-Pentafluorophenyl-1-propene;3-Pentafluorophenylpropene;NSC 88279;1-Allyl-2,3,4,5,6-pentafluorobenzene;1,2,3,4,5-Pentafluoro-6-prop-2-enylbenzene",
    "duplicated_cas_no": "2642052-83-1",
    "SMILES": "C(C=C)C1=C(F)C(F)=C(F)C(F)=C1F",
    "meta_data": {
        "InChI": "InChI=1S/C9H5F5/c1-2-3-4-5(10)7(12)9(14)8(13)6(4)11/h2H,1,3H2",
        "InChIKey": null,
        "Canonical SMILES": "FC=1C(F)=C(F)C(=C(F)C1F)CC=C",
        "Molecular Formula": "C<sub>9</sub>H<sub>5</sub>F<sub>5</sub>",
        "Molecular Mass": "208.13",
        "Boiling Point": "150 °C"
    }
}