{
    "cas_no": "1867-73-8",
    "key_name": "<em>N</em><sup>6</sup>-Methyladenosine",
    "cn_name": "N6-甲基腺苷;",
    "alternate_name": "Adenosine, <em>N</em>-methyl-;<em>N</em>-Methyladenosine;<em>N</em><sup>6</sup>-Methyladenosine;6-Methyladenosine;6-Methylaminopurine riboside;6-Methylamino-9-β-<span class=\"text-smallcaps\">D</span>-ribofuranosylpurine;6-Methylaminopurine ribonucleoside;NSC 29409;6-Methylaminopurine <span class=\"text-smallcaps\">D</span>-riboside;9-β-<span class=\"text-smallcaps\">D</span>-Ribofuranosyl-<em>N</em><sup>6</sup>-methylaminopurine;2-(Hydroxymethyl)-5-(6-methylaminopurin-9-yl)oxolane-3,4-diol;N6-methyladenosine (m6A)",
    "duplicated_cas_no": "50607-67-5;1397178-65-2",
    "SMILES": "O[C@H]1[C@H](N2C=3C(N=C2)=C(NC)N=CN3)O[C@H](CO)[C@H]1O",
    "meta_data": {
        "InChI": "InChI=1S/C11H15N5O4/c1-12-9-6-10(14-3-13-9)16(4-15-6)11-8(19)7(18)5(2-17)20-11/h3-5,7-8,11,17-19H,2H2,1H3,(H,12,13,14)/t5-,7-,8-,11-/m1/s1",
        "InChIKey": null,
        "Canonical SMILES": "OCC1OC(N2C=NC=3C(=NC=NC32)NC)C(O)C1O",
        "Molecular Formula": "C<sub>11</sub>H<sub>15</sub>N<sub>5</sub>O<sub>4</sub>",
        "Molecular Mass": "281.27",
        "Melting Point": "172 °C"
    }
}