{
    "cas_no": "1671-49-4",
    "key_name": "1-Methyl-4-(methylsulfonyl)-2-nitrobenzene",
    "cn_name": "2-硝基-4-甲砜基甲苯;2-硝基-4-磺酰甲基甲苯;",
    "alternate_name": "Benzene, 1-methyl-4-(methylsulfonyl)-2-nitro-;Sulfone, methyl 3-nitro-<em>p</em>-tolyl;1-Methyl-4-(methylsulfonyl)-2-nitrobenzene;4-Methylsulfonyl-2-nitrotoluene;1-Methyl-4-methylsulfonyl-2-nitrobenzene;4-Methylsulfonyl-1-methyl-2-nitrobenzene;2-Nitro-4-methylsulfonyltoluene;2-Nitro-4-methanesulfone toluene;2-Nitro-4-methylsulfone toluene",
    "duplicated_cas_no": "",
    "SMILES": "N(=O)(=O)C1=CC(S(C)(=O)=O)=CC=C1C",
    "meta_data": {
        "InChI": "InChI=1S/C8H9NO4S/c1-6-3-4-7(14(2,12)13)5-8(6)9(10)11/h3-5H,1-2H3",
        "InChIKey": null,
        "Canonical SMILES": "O=N(=O)C1=CC(=CC=C1C)S(=O)(=O)C",
        "Molecular Formula": "C<sub>8</sub>H<sub>9</sub>NO<sub>4</sub>S",
        "Molecular Mass": "215.23",
        "Melting Point": "118-121 °C"
    }
}