{
    "cas_no": "5348-42-5",
    "key_name": "4,5-Dichloro-1,2-phenylenediamine",
    "cn_name": "4,5-二氯-1,2-苯二胺;",
    "alternate_name": "1,2-Benzenediamine, 4,5-dichloro-;<em>o</em>-Phenylenediamine, 4,5-dichloro-;4,5-Dichloro-1,2-benzenediamine;1,2-Dichloro-4,5-diaminobenzene;1,2-Diamino-4,5-dichlorobenzene;4,5-Dichloro-1,2-phenylenediamine;4,5-Dichloro-1,2-diaminobenzene;4,5-Dichloro-<em>o</em>-phenylenediamine;2-Amino-4,5-dichloroaniline;1,2-Dichloro-4,5-phenylenediamine;NSC 1577;4,5-Dichlorophenyldiamine;4,5-Dichloro-1,2-diamine",
    "duplicated_cas_no": "",
    "SMILES": "ClC1=C(Cl)C=C(N)C(N)=C1",
    "meta_data": {
        "InChI": "InChI=1S/C6H6Cl2N2/c7-3-1-5(9)6(10)2-4(3)8/h1-2H,9-10H2",
        "InChIKey": null,
        "Canonical SMILES": "ClC=1C=C(N)C(N)=CC1Cl",
        "Molecular Formula": "C<sub>6</sub>H<sub>6</sub>Cl<sub>2</sub>N<sub>2</sub>",
        "Molecular Mass": "177.03",
        "Melting Point": "159-162 °C"
    }
}