{
    "cas_no": "116529-60-3",
    "key_name": "2-Bromo-3,5-dinitrobenzoic acid",
    "cn_name": null,
    "alternate_name": "Benzoic acid, 2-bromo-3,5-dinitro-;2-Bromo-3,5-dinitrobenzoic acid",
    "duplicated_cas_no": "",
    "SMILES": "C(O)(=O)C1=C(Br)C(N(=O)=O)=CC(N(=O)=O)=C1",
    "meta_data": {
        "InChI": "InChI=1S/C7H3BrN2O6/c8-6-4(7(11)12)1-3(9(13)14)2-5(6)10(15)16/h1-2H,(H,11,12)",
        "InChIKey": null,
        "Canonical SMILES": "O=C(O)C=1C=C(C=C(C1Br)N(=O)=O)N(=O)=O",
        "Molecular Formula": "C<sub>7</sub>H<sub>3</sub>BrN<sub>2</sub>O<sub>6</sub>",
        "Molecular Mass": "291.01",
        "Melting Point": "213 °C"
    }
}