{
    "cas_no": "923-61-5",
    "key_name": "1,2-Dipalmitoyl-sn-<em>glycero</em>-3-phosphoethanolamine",
    "cn_name": "L-磷脂酰乙醇胺;",
    "alternate_name": "Hexadecanoic acid, 1,1′-[(1<em>R</em>)-1-[[[(2-aminoethoxy)hydroxyphosphinyl]oxy]methyl]-1,2-ethanediyl] ester;Palmitin, 1,2-di-, 2-aminoethyl hydrogen phosphate, <span class=\"text-smallcaps\">L</span>-;Hexadecanoic acid, 1-[[[(2-aminoethoxy)hydroxyphosphinyl]oxy]methyl]-1,2-ethanediyl ester, (<em>R</em>)-;Hexadecanoic acid, (1<em>R</em>)-1-[[[(2-aminoethoxy)hydroxyphosphinyl]oxy]methyl]-1,2-ethanediyl ester;Dipalmitoyl-<span class=\"text-smallcaps\">L</span>-α-cephalin;1,2-Dipalmitoyl-<span class=\"text-smallcaps\">L</span>-3-phosphatidylethanolamine;1,2-Dipalmitoylglycerophosphorylethanolamine;Dipalmitoyl-<span class=\"text-smallcaps\">L</span>-α-phosphatidylethanolamine;1,2-Dipalmitoyl-sn-<em>glycero</em>-3-phosphoethanolamine;<span class=\"text-smallcaps\">L</span>-β,γ-Dipalmitoyl-α-phosphatidylethanolamine;1,2-Dipalmitoyl-sn-glycerol-3-phosphoethanolamine;<span class=\"text-smallcaps\">L</span>-α-Dipalmitoylphosphatidylethanolamine;1,2-Dipalmitoyl-3-sn-phosphatidylethanolamine;1,2-Dihexadecanoyl-sn-glycerol-3-phosphorylethanolamine;sn-1,2-dipalmitoylglycerophosphoethanolamine;1,2-Dipalmitoyl-sn-glycerol-3-<span class=\"text-smallcaps\">L</span>-α-phosphorylethanolamine;1,2-Dipalmitoyl-<span class=\"text-smallcaps\">L</span>-α-phosphatidylethanolamine;1,2-Dipalmitoyl-sn-glycerophosphoethanolamine;1,2-Dipalmitoyl-sn-glycerol-3-phosphorylethanolamine;1,2-Dipalmitoyl-sn-glycero-3-phosphatidylethanolamine;1,2-Dipalmitoyl-sn-<em>glycero</em>-3-phosphatidylethanolamine;(<em>R</em>)-Dipalmitoylphosphatidylethanolamine;DPPE;Coatsome ME 6060;DHPE;1,2-Dipalmitoyl-sn-glycerol-3-phosphatidylethanolamine;2-Azaniumylethyl [(2R)-2,3-di(hexadecanoyloxy)propyl] phosphate",
    "duplicated_cas_no": "81064-60-0;157837-95-1",
    "SMILES": "[C@@H](OC(CCCCCCCCCCCCCCC)=O)(COC(CCCCCCCCCCCCCCC)=O)COP(OCCN)(=O)O",
    "meta_data": {
        "InChI": "InChI=1S/C37H74NO8P/c1-3-5-7-9-11-13-15-17-19-21-23-25-27-29-36(39)43-33-35(34-45-47(41,42)44-32-31-38)46-37(40)30-28-26-24-22-20-18-16-14-12-10-8-6-4-2/h35H,3-34,38H2,1-2H3,(H,41,42)/t35-/m1/s1",
        "InChIKey": null,
        "Canonical SMILES": "O=C(OCC(OC(=O)CCCCCCCCCCCCCCC)COP(=O)(O)OCCN)CCCCCCCCCCCCCCC",
        "Molecular Formula": "C<sub>37</sub>H<sub>74</sub>NO<sub>8</sub>P",
        "Molecular Mass": "691.96",
        "Melting Point": "190-191 °C"
    }
}