{
    "cas_no": "35691-93-1",
    "key_name": "1<em>H</em>-Pyrazole-4-carboxylic acid, 3,5-dimethyl-, ethyl ester",
    "cn_name": null,
    "alternate_name": "1<em>H</em>-Pyrazole-4-carboxylic acid, 3,5-dimethyl-, ethyl ester;Ethyl 3,5-dimethylpyrazole-4-carboxylate;3,5-Dimethylpyrazole-4-carboxylic acid ethyl ester;Ethyl 3,5-dimethyl-1<em>H</em>-pyrazole-4-carboxylate;3,5-Dimethyl-1<em>H</em>-pyrazole-4-carboxylic acid ethyl ester",
    "duplicated_cas_no": "",
    "SMILES": "C(OCC)(=O)C=1C(C)=NNC1C",
    "meta_data": {
        "InChI": "InChI=1S/C8H12N2O2/c1-4-12-8(11)7-5(2)9-10-6(7)3/h4H2,1-3H3,(H,9,10)",
        "InChIKey": null,
        "Canonical SMILES": "O=C(OCC)C=1C(=NNC1C)C",
        "Molecular Formula": "C<sub>8</sub>H<sub>12</sub>N<sub>2</sub>O<sub>2</sub>",
        "Molecular Mass": "168.19",
        "Melting Point": "96 °C"
    }
}