{
    "cas_no": "106-39-8",
    "key_name": "1-Bromo-4-chlorobenzene",
    "cn_name": "4-溴氯苯;对氯溴苯;对溴氯苯;",
    "alternate_name": "Benzene, 1-bromo-4-chloro-;1-Bromo-4-chlorobenzene;<em>p</em>-Chlorobromobenzene;4-Bromochlorobenzene;<em>p</em>-Bromochlorobenzene;<em>p</em>-Chlorophenyl bromide;1-Chloro-4-bromobenzene;4-Chlorophenyl bromide;4-Chlorobromobenzene;4-Chloro-1-bromobenzene;<em>p</em>-Bromophenyl chloride;4-Bromo-1-chlorobenzene;NSC 17587;4-Bromophenyl chloride;4-Chlorobenzene bromide",
    "duplicated_cas_no": "",
    "SMILES": "BrC1=CC=C(Cl)C=C1",
    "meta_data": {
        "InChI": "InChI=1S/C6H4BrCl/c7-5-1-3-6(8)4-2-5/h1-4H",
        "InChIKey": null,
        "Canonical SMILES": "ClC1=CC=C(Br)C=C1",
        "Molecular Formula": "C<sub>6</sub>H<sub>4</sub>BrCl",
        "Molecular Mass": "191.45",
        "Boiling Point": "196 °C",
        "Melting Point": "68 °C",
        "Density": "1.6349 g/cm³ @ Temp: 20 °C"
    }
}