{
    "cas_no": "580-02-9",
    "key_name": "Methyl 2-acetoxybenzoate",
    "cn_name": "乙酰水杨酸甲酯;2-(乙酰氧基)苯甲酸甲酯;甲基阿斯匹林;",
    "alternate_name": "Benzoic acid, 2-(acetyloxy)-, methyl ester;Salicylic acid acetate, methyl ester;Salicylic acid, methyl ester, acetate;Acetylsalicylic acid, methyl ester;Methyl acetylsalicylate;Methyl aspirin;Methyl rhodin;Methylrhodine;Methyl <em>O</em>-acetylsalicylate;Methyl <em>o</em>-acetoxybenzoate;Aspirin methyl ester;Methyl 2-acetoxybenzoate;NSC 403847",
    "duplicated_cas_no": "",
    "SMILES": "O(C(C)=O)C1=C(C(OC)=O)C=CC=C1",
    "meta_data": {
        "InChI": "InChI=1S/C10H10O4/c1-7(11)14-9-6-4-3-5-8(9)10(12)13-2/h3-6H,1-2H3",
        "InChIKey": null,
        "Canonical SMILES": "O=C(OC)C=1C=CC=CC1OC(=O)C",
        "Molecular Formula": "C<sub>10</sub>H<sub>10</sub>O<sub>4</sub>",
        "Molecular Mass": "194.18",
        "Boiling Point": "122 °C @ Press: 7 Torr",
        "Melting Point": "51.5 °C"
    }
}