{
    "cas_no": "18147-81-4",
    "key_name": "Propanoic acid, 3-(trichlorosilyl)-, methyl ester",
    "cn_name": "2-(羰基甲氧基)乙基三氯硅烷;",
    "alternate_name": "Propanoic acid, 3-(trichlorosilyl)-, methyl ester;Propionic acid, 3-(trichlorosilyl)-, methyl ester;(2-Carbomethoxyethyl)trichlorosilane;Methyl 3-(trichlorosilyl)propanoate",
    "duplicated_cas_no": "95061-83-9",
    "SMILES": "C(C(OC)=O)C[Si](Cl)(Cl)Cl",
    "meta_data": {
        "InChI": "InChI=1S/C4H7Cl3O2Si/c1-9-4(8)2-3-10(5,6)7/h2-3H2,1H3",
        "InChIKey": null,
        "Canonical SMILES": "O=C(OC)CC[Si](Cl)(Cl)Cl",
        "Molecular Formula": "C<sub>4</sub>H<sub>7</sub>Cl<sub>3</sub>O<sub>2</sub>Si",
        "Molecular Mass": "221.54",
        "Boiling Point": "90-92 °C @ Press: 25 Torr",
        "Density": "1.3250 g/cm³ @ Temp: 20 °C"
    }
}