{
    "cas_no": "65915-94-8",
    "key_name": "<em>N</em>-<em>tert</em>-Butoxycarbonyl-1,6-diaminohexane hydrochloride",
    "cn_name": null,
    "alternate_name": "Carbamic acid, <em>N</em>-(6-aminohexyl)-, 1,1-dimethylethyl ester, hydrochloride (1:1);Carbamic acid, (6-aminohexyl)-, 1,1-dimethylethyl ester, monohydrochloride;<em>N</em>-<em>tert</em>-Butyloxycarbonyl-1,6-diaminohexane hydrochloride;<em>N</em>-<em>tert</em>-Butoxycarbonyl-1,6-diaminohexane hydrochloride;<em>N</em>-BOC-1,6-diaminohexane hydrochloride;<em>tert</em>-Butyl <em>N</em>-(6-aminohexyl)carbamate hydrochloride;<em>N</em>-BOC-hexane-1,6-diamine hydrochloride;<em>N</em>-Boc-hexamethylenediamine hydrochloride;<em>tert</em>-Butyl (6-aminohexyl)carbamate hydrochloride",
    "duplicated_cas_no": "",
    "SMILES": "C(NCCCCCCN)(OC(C)(C)C)=O.Cl",
    "meta_data": {
        "InChI": "InChI=1S/C11H24N2O2.ClH/c1-11(2,3)15-10(14)13-9-7-5-4-6-8-12;/h4-9,12H2,1-3H3,(H,13,14);1H",
        "InChIKey": null,
        "Canonical SMILES": "Cl.O=C(OC(C)(C)C)NCCCCCCN",
        "Molecular Formula": "C<sub>11</sub>H<sub>24</sub>N<sub>2</sub>O<sub>2</sub>.ClH",
        "Molecular Mass": "",
        "Melting Point": "162.5-163.5 °C"
    }
}