{
    "cas_no": "1135-66-6",
    "key_name": "(-)-Isolongifolene",
    "cn_name": "异长叶烯;(2S)-1,3,4,5,6,7-六氢-1,1,5,5-四甲基-2H-2,4a-亚甲基萘;",
    "alternate_name": "2<em>H</em>-2,4a-Methanonaphthalene, 1,3,4,5,6,7-hexahydro-1,1,5,5-tetramethyl-, (2<em>S</em>,4a<em>R</em>)-;Isolongifolene;2<em>H</em>-2,4a-Methanonaphthalene, 1,3,4,5,6,7-hexahydro-1,1,5,5-tetramethyl-, (2<em>S</em>,4a<em>R</em>)-(-)-;2<em>H</em>-2,4a-Methanonaphthalene, 1,3,4,5,6,7-hexahydro-1,1,5,5-tetramethyl-, (2<em>S</em>)-;(2<em>S</em>,4a<em>R</em>)-1,3,4,5,6,7-Hexahydro-1,1,5,5-tetramethyl-2<em>H</em>-2,4a-methanonaphthalene;(-)-Isolongifolene",
    "duplicated_cas_no": "",
    "SMILES": "CC1(C)[C@]23C(C(C)(C)[C@](C2)(CC3)[H])=CCC1",
    "meta_data": {
        "InChI": "InChI=1S/C15H24/c1-13(2)8-5-6-12-14(3,4)11-7-9-15(12,13)10-11/h6,11H,5,7-10H2,1-4H3/t11-,15-/m0/s1",
        "InChIKey": null,
        "Canonical SMILES": "C1=C2C(C)(C)C3CCC2(C3)C(C)(C)CC1",
        "Molecular Formula": "C<sub>15</sub>H<sub>24</sub>",
        "Molecular Mass": "204.35",
        "Boiling Point": "107 °C @ Press: 7 Torr",
        "Density": "0.9295 g/cm³ @ Temp: 25 °C"
    }
}