{
    "cas_no": "1485-00-3",
    "key_name": "5-(2-Nitroethenyl)-1,3-benzodioxole",
    "cn_name": "3,4-亚甲二氧-beta-硝基苯乙烯;",
    "alternate_name": "1,3-Benzodioxole, 5-(2-nitroethenyl)-;Styrene, 3,4-(methylenedioxy)-β-nitro-;5-(2-Nitroethenyl)-1,3-benzodioxole;1-(2-Nitrovinyl)-3,4-methylenedioxybenzene;3,4-Methylenedioxy-1-(2-nitrovinyl)benzene;5-(2-Nitrovinyl)-1,3-benzodioxole;3,4-(Methylenedioxy)-β-nitrostyrene;5-(2-Nitrovinyl)benzodioxole;NSC 10120;NSC 105303;NSC 170724;MNS;Syk inhibitor III",
    "duplicated_cas_no": "",
    "SMILES": "C(=CN(=O)=O)C=1C=C2C(=CC1)OCO2",
    "meta_data": {
        "InChI": "InChI=1S/C9H7NO4/c11-10(12)4-3-7-1-2-8-9(5-7)14-6-13-8/h1-5H,6H2",
        "InChIKey": null,
        "Canonical SMILES": "O=N(=O)C=CC1=CC=C2OCOC2=C1",
        "Molecular Formula": "C<sub>9</sub>H<sub>7</sub>NO<sub>4</sub>",
        "Molecular Mass": "193.16",
        "Melting Point": "162.0-163 °C"
    }
}