{
    "cas_no": "10603-92-6",
    "key_name": "Ethenaminium, <em>N</em>,<em>N</em>,<em>N</em>-trimethyl-, bromide (1:1)",
    "cn_name": "三甲基乙烯基溴化铵;",
    "alternate_name": "Ethenaminium, <em>N</em>,<em>N</em>,<em>N</em>-trimethyl-, bromide (1:1);Ammonium, trimethylvinyl-, bromide;Ethenaminium, <em>N</em>,<em>N</em>,<em>N</em>-trimethyl-, bromide;Trimethylvinylammonium bromide;Neurine bromide",
    "duplicated_cas_no": "",
    "SMILES": "[N+](C=C)(C)(C)C.[Br-]",
    "meta_data": {
        "InChI": "InChI=1S/C5H12N.BrH/c1-5-6(2,3)4;/h5H,1H2,2-4H3;1H/q+1;/p-1",
        "InChIKey": null,
        "Canonical SMILES": "[Br-].C=C[N+](C)(C)C",
        "Molecular Formula": "C<sub>5</sub>H<sub>12</sub>N.Br",
        "Molecular Mass": "",
        "Melting Point": "192-193 °C (decomp)"
    }
}