{
    "cas_no": "83-87-4",
    "key_name": "Glucose pentaacetate",
    "cn_name": "1,2,3,4,6-alpha-D-葡萄糖五乙酸酯;1,2,3,4,6-alpha-D-葡萄糖五乙酸酯;",
    "alternate_name": "<span class=\"text-smallcaps\">D</span>-Glucopyranose, 1,2,3,4,6-pentaacetate;Glucopyranose, pentaacetate, <span class=\"text-smallcaps\">D</span>-;<span class=\"text-smallcaps\">D</span>-Glucopyranose, pentaacetate;<span class=\"text-smallcaps\">D</span>-Glucose, 1,2,3,4,6-pentaacetate;1,2,3,4,6-Penta-<em>O</em>-acetyl-<span class=\"text-smallcaps\">D</span>-glucopyranose;Pentaacetylglucose;Pentaacetyl-<span class=\"text-smallcaps\">D</span>-glucose;Peracetylated <span class=\"text-smallcaps\">D</span>-glucose;Penta-<em>O</em>-acetyl-<span class=\"text-smallcaps\">D</span>-glucopyranose;Glucopyranose pentaacetate;Pagosten-1;Glucose pentaacetate;Peracetyl-<span class=\"text-smallcaps\">D</span>-glucose;<span class=\"text-smallcaps\">D</span>-Glucose pentaacetate;Penta-<em>O</em>-acetyl-<span class=\"text-smallcaps\">D</span>-glucopyranoside",
    "duplicated_cas_no": "21056-42-8;234761-06-9;2166466-31-3",
    "SMILES": "O(C(C)=O)[C@H]1[C@H](OC(C)=O)[C@@H](COC(C)=O)OC(OC(C)=O)[C@@H]1OC(C)=O",
    "meta_data": {
        "InChI": "InChI=1S/C16H22O11/c1-7(17)22-6-12-13(23-8(2)18)14(24-9(3)19)15(25-10(4)20)16(27-12)26-11(5)21/h12-16H,6H2,1-5H3/t12-,13-,14+,15-,16?/m1/s1",
        "InChIKey": null,
        "Canonical SMILES": "O=C(OCC1OC(OC(=O)C)C(OC(=O)C)C(OC(=O)C)C1OC(=O)C)C",
        "Molecular Formula": "C<sub>16</sub>H<sub>22</sub>O<sub>11</sub>",
        "Molecular Mass": "390.34",
        "Boiling Point": "452 °C",
        "Melting Point": "129-130 °C"
    }
}