{
    "cas_no": "823221-94-9",
    "key_name": "2-Bromo-6-chloro-4-(trifluoromethyl)pyridine",
    "cn_name": null,
    "alternate_name": "Pyridine, 2-bromo-6-chloro-4-(trifluoromethyl)-;2-Bromo-6-chloro-4-(trifluoromethyl)pyridine",
    "duplicated_cas_no": "",
    "SMILES": "C(F)(F)(F)C=1C=C(Br)N=C(Cl)C1",
    "meta_data": {
        "InChI": "InChI=1S/C6H2BrClF3N/c7-4-1-3(6(9,10)11)2-5(8)12-4/h1-2H",
        "InChIKey": null,
        "Canonical SMILES": "FC(F)(F)C=1C=C(Cl)N=C(Br)C1",
        "Molecular Formula": "C<sub>6</sub>H<sub>2</sub>BrClF<sub>3</sub>N",
        "Molecular Mass": "260.44",
        "Boiling Point": "68-70 °C @ Press: 12 Torr",
        "Density": "1.770 g/cm³ @ Temp: 20 °C"
    }
}