{
    "cas_no": "2923-18-4",
    "key_name": "Sodium trifluoroacetate",
    "cn_name": "三氟乙酸钠;",
    "alternate_name": "Acetic acid, 2,2,2-trifluoro-, sodium salt (1:1);Acetic acid, trifluoro-, sodium salt;Sodium trifluoroacetate;Trifluoroacetic acid, sodium salt;Trifluoroacetate sodium;Sodium perfluoroacetate;Sodium trifluoromethanecarboxylate;Sodium 2,2,2-trifluoroacetate",
    "duplicated_cas_no": "114212-67-8;2020075-12-9",
    "SMILES": "C(C(O)=O)(F)(F)F.[Na]",
    "meta_data": {
        "InChI": "InChI=1S/C2HF3O2.Na/c3-2(4,5)1(6)7;/h(H,6,7);",
        "InChIKey": null,
        "Canonical SMILES": "[Na].O=C(O)C(F)(F)F",
        "Molecular Formula": "C<sub>2</sub>HF<sub>3</sub>O<sub>2</sub>.Na",
        "Molecular Mass": "",
        "Melting Point": "207 °C (decomp)",
        "Density": "1.907 g/cm³"
    }
}