{
    "cas_no": "626-99-3",
    "key_name": "2,4-Pentadienoic acid",
    "cn_name": "2,4-戊二烯酸;",
    "alternate_name": "2,4-Pentadienoic acid;α,γ-Pentadienoic acid;1,3-Butadiene-1-carboxylic acid;Butadiene-1-carboxylic acid;1-Carboxybutadiene;β-Vinylacrylic acid;1-Carboxy-1,3-butadiene;NSC 16628",
    "duplicated_cas_no": "",
    "SMILES": "C(C(O)=O)=CC=C",
    "meta_data": {
        "InChI": "InChI=1S/C5H6O2/c1-2-3-4-5(6)7/h2-4H,1H2,(H,6,7)",
        "InChIKey": null,
        "Canonical SMILES": "O=C(O)C=CC=C",
        "Molecular Formula": "C<sub>5</sub>H<sub>6</sub>O<sub>2</sub>",
        "Molecular Mass": "98.10",
        "Melting Point": "79 °C"
    }
}