{
    "cas_no": "6163-58-2",
    "key_name": "Tri-<em>o</em>-tolylphosphine",
    "cn_name": "三(邻甲苯基)膦;",
    "alternate_name": "Phosphine, tris(2-methylphenyl)-;Phosphine, tri-<em>o</em>-tolyl-;Tris(2-methylphenyl)phosphine;Tris(<em>o</em>-tolyl)phosphine;Tri-2-tolylphosphine;Tri-<em>o</em>-tolylphosphine;Tris(<em>o</em>-methylphenyl)phosphine;Tris(2-tolyl)phosphine;Tris(2-toluene)phosphine;NSC 116667;TOTP;Tri(2-methylphenyl)phosphine;Tris-<em>o</em>-tolyphosphine",
    "duplicated_cas_no": "",
    "SMILES": "P(C1=C(C)C=CC=C1)(C2=C(C)C=CC=C2)C3=C(C)C=CC=C3",
    "meta_data": {
        "InChI": "InChI=1S/C21H21P/c1-16-10-4-7-13-19(16)22(20-14-8-5-11-17(20)2)21-15-9-6-12-18(21)3/h4-15H,1-3H3",
        "InChIKey": null,
        "Canonical SMILES": "C=1C=CC(=C(C1)P(C=2C=CC=CC2C)C=3C=CC=CC3C)C",
        "Molecular Formula": "C<sub>21</sub>H<sub>21</sub>P",
        "Molecular Mass": "304.37",
        "Melting Point": "125 °C"
    }
}