{
    "cas_no": "520-36-5",
    "key_name": "Apigenin",
    "cn_name": "芹菜素;芹黄素;5,7,4\"-三羟基黄酮;",
    "alternate_name": "4<em>H</em>-1-Benzopyran-4-one, 5,7-dihydroxy-2-(4-hydroxyphenyl)-;Flavone, 4′,5,7-trihydroxy-;5,7-Dihydroxy-2-(4-hydroxyphenyl)-4<em>H</em>-1-benzopyran-4-one;Apigenin;Chamomile;C.I. Natural Yellow 1;4′,5,7-Trihydroxyflavone;Apigenine;Apigenol;5,7,4′-Trihydroxyflavone;LY 080400;UCCF 031;Pelargidenon 1449;Apegenin;Versulin;NSC 83244;5,7-Dihydroxy-2-(4-hydroxyphenyl)chromen-4-one;5,7-Dihydroxy-2-<em>p</em>-hydroxyphenyl-4-chromenone;ST 056301;MeSH ID: D047310",
    "duplicated_cas_no": "461015-54-3",
    "SMILES": "O=C1C=2C(OC(=C1)C3=CC=C(O)C=C3)=CC(O)=CC2O",
    "meta_data": {
        "InChI": "InChI=1S/C15H10O5/c16-9-3-1-8(2-4-9)13-7-12(19)15-11(18)5-10(17)6-14(15)20-13/h1-7,16-18H",
        "InChIKey": null,
        "Canonical SMILES": "O=C1C=C(OC=2C=C(O)C=C(O)C12)C=3C=CC(O)=CC3",
        "Molecular Formula": "C<sub>15</sub>H<sub>10</sub>O<sub>5</sub>",
        "Molecular Mass": "270.24",
        "Melting Point": "347.5 °C"
    }
}