{
    "cas_no": "128544-05-8",
    "key_name": "(<em>S</em>)-BINOL bis(triflate)",
    "cn_name": null,
    "alternate_name": "Methanesulfonic acid, 1,1,1-trifluoro-, 1,1′-(1<em>S</em>)-[1,1′-binaphthalene]-2,2′-diyl ester;Methanesulfonic acid, trifluoro-, [1,1′-binaphthalene]-2,2′-diyl ester, (<em>S</em>)-;Methanesulfonic acid, trifluoro-, (1<em>S</em>)-[1,1′-binaphthalene]-2,2′-diyl ester;(<em>S</em>)-2,2′-Bis(trifluoromethanesulfonyloxy)-1,1′-binaphthyl;(<em>S</em>)-(+)-1,1′-Bi-2-naphthol bis(trifluoromethanesulfonate);(<em>S</em>)-2,2′-Bis(trifluoromethanesulfonyloxy)-1,1′-binaphthalene;(<em>S</em>)-BINOL bis(triflate)",
    "duplicated_cas_no": "422318-72-7",
    "SMILES": "O(S(C(F)(F)F)(=O)=O)C1=C(C2=C(C=C1)C=CC=C2)C=3C4=C(C=CC3OS(C(F)(F)F)(=O)=O)C=CC=C4",
    "meta_data": {
        "InChI": "InChI=1S/C22H12F6O6S2/c23-21(24,25)35(29,30)33-17-11-9-13-5-1-3-7-15(13)19(17)20-16-8-4-2-6-14(16)10-12-18(20)34-36(31,32)22(26,27)28/h1-12H",
        "InChIKey": null,
        "Canonical SMILES": "O=S(=O)(OC=1C=CC=2C=CC=CC2C1C3=C(OS(=O)(=O)C(F)(F)F)C=CC=4C=CC=CC43)C(F)(F)F",
        "Molecular Formula": "C<sub>22</sub>H<sub>12</sub>F<sub>6</sub>O<sub>6</sub>S<sub>2</sub>",
        "Molecular Mass": "550.45",
        "Melting Point": "73-76 °C"
    }
}