{
    "cas_no": "93-99-2",
    "key_name": "Phenyl benzoate",
    "cn_name": "苯甲酸苯酯;安息香酸苯酯;",
    "alternate_name": "Benzoic acid, phenyl ester;Phenol, benzoate;Phenyl benzoate;NSC 37086;Phenyl ester benzoic acid;Phenoxy phenyl ketone",
    "duplicated_cas_no": "",
    "SMILES": "C(OC1=CC=CC=C1)(=O)C2=CC=CC=C2",
    "meta_data": {
        "InChI": "InChI=1S/C13H10O2/c14-13(11-7-3-1-4-8-11)15-12-9-5-2-6-10-12/h1-10H",
        "InChIKey": null,
        "Canonical SMILES": "O=C(OC=1C=CC=CC1)C=2C=CC=CC2",
        "Molecular Formula": "C<sub>13</sub>H<sub>10</sub>O<sub>2</sub>",
        "Molecular Mass": "198.22",
        "Boiling Point": "110-115 °C @ Press: 0.4 Torr",
        "Melting Point": "71 °C",
        "Density": "1.28 g/cm³"
    }
}