{
    "cas_no": "13636-18-5",
    "key_name": "Phenoxan",
    "cn_name": null,
    "alternate_name": "Benzenepropanamine, γ-phenyl-<em>N</em>-(1-phenylethyl)-, hydrochloride (1:1);Benzylamine, <em>N</em>-(3,3-diphenylpropyl)-α-methyl-, hydrochloride;Benzenepropanamine, γ-phenyl-<em>N</em>-(1-phenylethyl)-, hydrochloride;Fendiline hydrochloride;Sensit;Sensite;Phenoxan;Fendilar;Cordan;3,3-Diphenyl-<em>N</em>-(1-phenylethyl)propan-1-amine hydrochloride",
    "duplicated_cas_no": "119959-32-9",
    "SMILES": "C(CCNC(C)C1=CC=CC=C1)(C2=CC=CC=C2)C3=CC=CC=C3.Cl",
    "meta_data": {
        "InChI": "InChI=1S/C23H25N.ClH/c1-19(20-11-5-2-6-12-20)24-18-17-23(21-13-7-3-8-14-21)22-15-9-4-10-16-22;/h2-16,19,23-24H,17-18H2,1H3;1H",
        "InChIKey": null,
        "Canonical SMILES": "Cl.C=1C=CC(=CC1)C(NCCC(C=2C=CC=CC2)C=3C=CC=CC3)C",
        "Molecular Formula": "C<sub>23</sub>H<sub>25</sub>N.ClH",
        "Molecular Mass": "",
        "Melting Point": "204-205 °C"
    }
}