{
    "cas_no": "66346-59-6",
    "key_name": "5,7-Dihydroxy-4-propyl-2<em>H</em>-1-benzopyran-2-one",
    "cn_name": null,
    "alternate_name": "2<em>H</em>-1-Benzopyran-2-one, 5,7-dihydroxy-4-propyl-;Coumarin, 5,7-dihydroxy-4-propyl-;5,7-Dihydroxy-4-propyl-2<em>H</em>-1-benzopyran-2-one;5,7-Dihydroxy-4-propylcoumarin;5,7-Dihydro-4-propyl-2<em>H</em>-chromen-2-one",
    "duplicated_cas_no": "1151668-08-4",
    "SMILES": "C(CC)C=1C=2C(=CC(O)=CC2O)OC(=O)C1",
    "meta_data": {
        "InChI": "InChI=1S/C12H12O4/c1-2-3-7-4-11(15)16-10-6-8(13)5-9(14)12(7)10/h4-6,13-14H,2-3H2,1H3",
        "InChIKey": null,
        "Canonical SMILES": "O=C1OC=2C=C(O)C=C(O)C2C(=C1)CCC",
        "Molecular Formula": "C<sub>12</sub>H<sub>12</sub>O<sub>4</sub>",
        "Molecular Mass": "220.22",
        "Melting Point": "258 °C"
    }
}