{
    "cas_no": "2732-80-1",
    "key_name": "3-Bromo-4-chloroanisole",
    "cn_name": "3-溴-4-氯苯甲醚;",
    "alternate_name": "Benzene, 2-bromo-1-chloro-4-methoxy-;Anisole, 3-bromo-4-chloro-;2-Bromo-1-chloro-4-methoxybenzene;3-Bromo-4-chloroanisole;1-Bromo-2-chloro-5-methoxybenzene;2-Bromo-4-methoxy-1-chlorobenzene",
    "duplicated_cas_no": "",
    "SMILES": "O(C)C1=CC(Br)=C(Cl)C=C1",
    "meta_data": {
        "InChI": "InChI=1S/C7H6BrClO/c1-10-5-2-3-7(9)6(8)4-5/h2-4H,1H3",
        "InChIKey": null,
        "Canonical SMILES": "ClC1=CC=C(OC)C=C1Br",
        "Molecular Formula": "C<sub>7</sub>H<sub>6</sub>BrClO",
        "Molecular Mass": "221.48",
        "Boiling Point": "91-93 °C @ Press: 2 Torr"
    }
}