{
    "cas_no": "7228-38-8",
    "key_name": "5-Chloro-1,3-benzodioxole",
    "cn_name": "5-氯-1,3-苯并二噁唑;5-氯-1,3-苯并二恶唑;",
    "alternate_name": "1,3-Benzodioxole, 5-chloro-;Benzene, 4-chloro-1,2-(methylenedioxy)-;5-Chloro-1,3-benzodioxole;1-Chloro-3,4-methylenedioxybenzene;NSC 400867;4-Chloro-1,2-methylenedioxybenzene;6-Chloro-1,3-benzodioxole;5-Chlorobenzo[<em>d</em>][1,3]dioxole;3,4-Methylenedioxyphenyl chloride",
    "duplicated_cas_no": "",
    "SMILES": "ClC=1C=C2C(=CC1)OCO2",
    "meta_data": {
        "InChI": "InChI=1S/C7H5ClO2/c8-5-1-2-6-7(3-5)10-4-9-6/h1-3H,4H2",
        "InChIKey": null,
        "Canonical SMILES": "ClC1=CC=C2OCOC2=C1",
        "Molecular Formula": "C<sub>7</sub>H<sub>5</sub>ClO<sub>2</sub>",
        "Molecular Mass": "156.57",
        "Boiling Point": "65-69 °C"
    }
}