{
    "cas_no": "203854-59-5",
    "key_name": "(2<em>S</em>)-2-[[[(9<em>H</em>-Fluoren-9-ylmethoxy)carbonyl]amino]methyl]-3-methylbutanoic acid",
    "cn_name": null,
    "alternate_name": "Butanoic acid, 2-[[[(9<em>H</em>-fluoren-9-ylmethoxy)carbonyl]amino]methyl]-3-methyl-, (2<em>S</em>)-;Butanoic acid, 2-[[[(9<em>H</em>-fluoren-9-ylmethoxy)carbonyl]amino]methyl]-3-methyl-, (<em>S</em>)-;(2<em>S</em>)-2-[[[(9<em>H</em>-Fluoren-9-ylmethoxy)carbonyl]amino]methyl]-3-methylbutanoic acid;(<em>s</em>)-2-[(9<em>H</em>-Fluoren-9-ylmethoxycarbonylamino)-methyl]-3-methyl-butyric acid;(<em>S</em>)-2-(((((9<em>H</em>-Fluoren-9-yl)methoxy)carbonyl)amino)methyl)-3-methylbutanoic acid",
    "duplicated_cas_no": "",
    "SMILES": "C(OC(NC[C@H](C(C)C)C(O)=O)=O)C1C=2C(C=3C1=CC=CC3)=CC=CC2",
    "meta_data": {
        "InChI": "InChI=1S/C21H23NO4/c1-13(2)18(20(23)24)11-22-21(25)26-12-19-16-9-5-3-7-14(16)15-8-4-6-10-17(15)19/h3-10,13,18-19H,11-12H2,1-2H3,(H,22,25)(H,23,24)/t18-/m1/s1",
        "InChIKey": null,
        "Canonical SMILES": "O=C(OCC1C=2C=CC=CC2C=3C=CC=CC31)NCC(C(=O)O)C(C)C",
        "Molecular Formula": "C<sub>21</sub>H<sub>23</sub>NO<sub>4</sub>",
        "Molecular Mass": "353.41",
        "Melting Point": "121-123 °C"
    }
}