{
    "cas_no": "19139-31-2",
    "key_name": "Dihexyl fumarate",
    "cn_name": null,
    "alternate_name": "2-Butenedioic acid (2<em>E</em>)-, 1,4-dihexyl ester;Fumaric acid, dihexyl ester;2-Butenedioic acid (<em>E</em>)-, dihexyl ester;2-Butenedioic acid (2<em>E</em>)-, dihexyl ester;Dihexyl fumarate",
    "duplicated_cas_no": "197167-00-3",
    "SMILES": "C(/C=C/C(OCCCCCC)=O)(OCCCCCC)=O",
    "meta_data": {
        "InChI": "InChI=1S/C16H28O4/c1-3-5-7-9-13-19-15(17)11-12-16(18)20-14-10-8-6-4-2/h11-12H,3-10,13-14H2,1-2H3/b12-11+",
        "InChIKey": null,
        "Canonical SMILES": "O=C(OCCCCCC)C=CC(=O)OCCCCCC",
        "Molecular Formula": "C<sub>16</sub>H<sub>28</sub>O<sub>4</sub>",
        "Molecular Mass": "284.39",
        "Boiling Point": "162-164 °C @ Press: 2 Torr",
        "Density": "0.9549 g/cm³ @ Temp: 23 °C"
    }
}