{
    "cas_no": "1719-57-9",
    "key_name": "Chloro(chloromethyl)dimethylsilane",
    "cn_name": "氯甲基二甲基氯硅烷;",
    "alternate_name": "Silane, chloro(chloromethyl)dimethyl-;Chloro(chloromethyl)dimethylsilane;Chlorodimethyl(chloromethyl)silane;(Chloromethyl)dimethylsilyl chloride;Dimethylchloro(chloromethyl)silane;(Chloromethyl)chlorodimethylsilane;(Chloromethyl)dimethylchlorosilane;Dimethyl(chloromethyl)chlorosilane;LS 230;LS 230 (silane);SCA-C 1CG",
    "duplicated_cas_no": "",
    "SMILES": "[Si](CCl)(C)(C)Cl",
    "meta_data": {
        "InChI": "InChI=1S/C3H8Cl2Si/c1-6(2,5)3-4/h3H2,1-2H3",
        "InChIKey": null,
        "Canonical SMILES": "ClC[Si](Cl)(C)C",
        "Molecular Formula": "C<sub>3</sub>H<sub>8</sub>Cl<sub>2</sub>Si",
        "Molecular Mass": "143.09",
        "Boiling Point": "115.5 °C",
        "Melting Point": "&lt;-75 °C",
        "Density": "1.086 g/cm³"
    }
}