{
    "cas_no": "7459-33-8",
    "key_name": "Linoleoyl chloride",
    "cn_name": "亚麻酰氯;",
    "alternate_name": "9,12-Octadecadienoyl chloride, (9<em>Z</em>,12<em>Z</em>)-;Linoleoyl chloride;9,12-Octadecadienoyl chloride, (<em>Z</em>,<em>Z</em>)-;(9<em>Z</em>,12<em>Z</em>)-9,12-Octadecadienoyl chloride;Linoleic acid chloride;(<em>Z</em>,<em>Z</em>)-Octadeca-9,12-dienoyl chloride;(9Z,12Z)-Octadeca-9,12-dienoyl chloride",
    "duplicated_cas_no": "",
    "SMILES": "C(C/C=C\\C/C=C\\CCCCC)CCCCCC(Cl)=O",
    "meta_data": {
        "InChI": "InChI=1S/C18H31ClO/c1-2-3-4-5-6-7-8-9-10-11-12-13-14-15-16-17-18(19)20/h6-7,9-10H,2-5,8,11-17H2,1H3/b7-6-,10-9-",
        "InChIKey": null,
        "Canonical SMILES": "O=C(Cl)CCCCCCCC=CCC=CCCCCC",
        "Molecular Formula": "C<sub>18</sub>H<sub>31</sub>ClO",
        "Molecular Mass": "298.89",
        "Boiling Point": "163-164 °C @ Press: 0.5-1.0 Torr",
        "Density": "0.91 g/cm³ @ Temp: 20 °C"
    }
}