{
    "cas_no": "7202-43-9",
    "key_name": "(R)-(-)-Tetrahydrofurfurylamine",
    "cn_name": null,
    "alternate_name": "2-Furanmethanamine, tetrahydro-, (2<em>R</em>)-;Furfurylamine, tetrahydro-, (<em>R</em>)-;2-Furanmethanamine, tetrahydro-, (<em>R</em>)-;(2<em>R</em>)-Tetrahydro-2-furanmethanamine;(-)-(<em>R</em>)-Tetrahydrofurfurylamine;(<em>R</em>)-Tetrahydrofurfurylamine;(<em>R</em>)-(-)-Tetrahydrofurfurylamine;(2<em>R</em>)-Tetrahydrofuran-2-methanamine;[((<em>R</em>)-Tetrahydrofuran-2-yl)methyl]amine;[[(2<em>R</em>)-Tetrahydro-2-furanyl]methyl]amine;(<em>R</em>)-1-(Tetrahydrofuran-2-yl)methylamine;(<em>R</em>)-(Tetrahydrofuran-2-yl)methanamine;(2R)-2-Aminomethyltetrahydrofuran;[(R)-1-(Tetrahydro-furan-2-yl)]-methylamine;(R)-Tetrahydrofuran-2-ylmethylamine;(<em>R</em>)-1-(Tetrahydrofuran-2-yl)methanamine;(R)-(-)-Tetrahydrofurfurylamine;1-[(2R)-Tetrahydrofuran-2-yl]methanamine;[(2R)-Oxolan-2-yl]methanamine;(R)-Tetrahydrofurfurylamine;1-[(2R)-Oxolan-2-yl]methanamine;2-Furanmethanamine tetrahydro-, (2R)-",
    "duplicated_cas_no": "",
    "SMILES": "C(N)[C@H]1CCCO1",
    "meta_data": {
        "InChI": "InChI=1S/C5H11NO/c6-4-5-2-1-3-7-5/h5H,1-4,6H2/t5-/m1/s1",
        "InChIKey": null,
        "Canonical SMILES": "O1CCCC1CN",
        "Molecular Formula": "C<sub>5</sub>H<sub>11</sub>NO",
        "Molecular Mass": "101.15",
        "Boiling Point": "152-153 °C",
        "Density": "0.98 g/cm³"
    }
}