{
    "cas_no": "782-28-5",
    "key_name": "2-Naphthalenebutanoic acid",
    "cn_name": "2-萘丁酸;",
    "alternate_name": "2-Naphthalenebutanoic acid;2-Naphthalenebutyric acid;γ-(2-Naphthyl)butyric acid;4-(2-Naphthyl)butyric acid;4-(2-Naphthyl)butanoic acid;NSC 3036;4-(Naphthalen-2-yl)butanoic acid",
    "duplicated_cas_no": "",
    "SMILES": "C(CCC(O)=O)C1=CC2=C(C=C1)C=CC=C2",
    "meta_data": {
        "InChI": "InChI=1S/C14H14O2/c15-14(16)7-3-4-11-8-9-12-5-1-2-6-13(12)10-11/h1-2,5-6,8-10H,3-4,7H2,(H,15,16)",
        "InChIKey": null,
        "Canonical SMILES": "O=C(O)CCCC=1C=CC=2C=CC=CC2C1",
        "Molecular Formula": "C<sub>14</sub>H<sub>14</sub>O<sub>2</sub>",
        "Molecular Mass": "214.26",
        "Melting Point": "94-95 °C"
    }
}