{
    "cas_no": "53-79-2",
    "key_name": "Puromycin",
    "cn_name": null,
    "alternate_name": "Adenosine, 3′-[[(2<em>S</em>)-2-amino-3-(4-methoxyphenyl)-1-oxopropyl]amino]-3′-deoxy-<em>N</em>,<em>N</em>-dimethyl-;Adenosine, 3′-(α-amino-<em>p</em>-methoxyhydrocinnamamido)-3′-deoxy-<em>N</em>,<em>N</em>-dimethyl-, <span class=\"text-smallcaps\">L</span>-;Adenosine, 3′-[[2-amino-3-(4-methoxyphenyl)-1-oxopropyl]amino]-3′-deoxy-<em>N</em>,<em>N</em>-dimethyl-, (<em>S</em>)-;3′-[[(2<em>S</em>)-2-Amino-3-(4-methoxyphenyl)-1-oxopropyl]amino]-3′-deoxy-<em>N</em>,<em>N</em>-dimethyladenosine;1-MM;P 638;3123L;Puromycin;Stylomycin;Achromycin (purine derivative);β-<span class=\"text-smallcaps\">D</smallcap>-Ribofuranoside, 6-(dimethylamino)-9<em>H</em>-purine-9 3-deoxy-3-[(4-methoxy-<smallcap>L</span>-phenylalanyl)amino]-;Stillomycin;Achromycin;CL 13900;MeSH ID: D011691",
    "duplicated_cas_no": "",
    "SMILES": "O[C@H]1[C@H](N2C=3C(N=C2)=C(N(C)C)N=CN3)O[C@H](CO)[C@H]1NC([C@H](CC4=CC=C(OC)C=C4)N)=O",
    "meta_data": {
        "InChI": "InChI=1S/C22H29N7O5/c1-28(2)19-17-20(25-10-24-19)29(11-26-17)22-18(31)16(15(9-30)34-22)27-21(32)14(23)8-12-4-6-13(33-3)7-5-12/h4-7,10-11,14-16,18,22,30-31H,8-9,23H2,1-3H3,(H,27,32)/t14-,15+,16+,18+,22+/m0/s1",
        "InChIKey": null,
        "Canonical SMILES": "O=C(NC1C(O)C(OC1CO)N2C=NC=3C2=NC=NC3N(C)C)C(N)CC4=CC=C(OC)C=C4",
        "Molecular Formula": "C<sub>22</sub>H<sub>29</sub>N<sub>7</sub>O<sub>5</sub>",
        "Molecular Mass": "471.51",
        "Melting Point": "175.5-177 °C"
    }
}