{
    "cas_no": "82657-04-3",
    "key_name": "Bifenthrin",
    "cn_name": "氟氯菊酯;联苯菊酯;毕芬宁;(1R,S)-顺式-(Z)-2,2-二甲基-3-(2-氯-3,3,3-三氟-1-丙烯基)环丙烷羧酸-2-甲基-3-;",
    "alternate_name": "Cyclopropanecarboxylic acid, 3-[(1<em>Z</em>)-2-chloro-3,3,3-trifluoro-1-propen-1-yl]-2,2-dimethyl-, (2-methyl[1,1′-biphenyl]-3-yl)methyl ester, (1<em>R</em>,3<em>R</em>)-<em>rel</em>-;Cyclopropanecarboxylic acid, 3-(2-chloro-3,3,3-trifluoro-1-propenyl)-2,2-dimethyl-, (2-methyl[1,1′-biphenyl]-3-yl)methyl ester, [1α,3α(<em>Z</em>)]-(±)-;Cyclopropanecarboxylic acid, 3-[(1<em>Z</em>)-2-chloro-3,3,3-trifluoro-1-propenyl]-2,2-dimethyl-, (2-methyl[1,1′-biphenyl]-3-yl)methyl ester, (1<em>R</em>,3<em>R</em>)-<em>rel</em>-;FMC 54800;Biphenthrin;Bifenthrin;Biphentrin;Talstar;Brigade;Capture;Capture (pesticide);Biflex FT;Biflex;Brigade 10WP;Cyclopropanecarboxylic acid, 3-(2-chloro-3,3,3-trifluoro-1-propenyl)-2,2-dimethyl-, (2-methyl[1,1′-biphenyl]-3-yl)methyl ester, [1α,3α(<em>Z</em>)]-;Brigata Flo;Bifenthrine;Biphenate;TalstarOne;Semafor;Kiros EV;Empower;Discipline;Onyx;Onyx (insecticide);Silencer;Fanfare;AGST 02002;Capture LFR;Seizer;Bixan MG;DeterMite;Bifenture;Bixan;Talstar EZ;Talstar Pro;Gyro;Capture 2EC;Sniper;Sniper (pyrethroid insecticide);(±)-Bifenthrin;rac-Bifenthrin;Talstar F;Gold insecticide;UP Star gold insecticide;UP Star Gold insecticide;Akate Master;Talstar 80SC;Talstar 100EC;Bifen XTS;BISTAR 10WP",
    "duplicated_cas_no": "107497-60-9;107538-32-9;92880-79-0",
    "SMILES": "C(=C(/C(F)(F)F)\\Cl)\\[C@H]1[C@@H](C(OCC2=C(C)C(=CC=C2)C3=CC=CC=C3)=O)C1(C)C",
    "meta_data": {
        "InChI": "InChI=1/C23H22ClF3O2/c1-14-16(10-7-11-17(14)15-8-5-4-6-9-15)13-29-21(28)20-18(22(20,2)3)12-19(24)23(25,26)27/h4-12,18,20H,13H2,1-3H3/b19-12-/t18-,20-/s2",
        "InChIKey": null,
        "Canonical SMILES": "O=C(OCC1=CC=CC(C=2C=CC=CC2)=C1C)C3C(C=C(Cl)C(F)(F)F)C3(C)C",
        "Molecular Formula": "C<sub>23</sub>H<sub>22</sub>ClF<sub>3</sub>O<sub>2</sub>",
        "Molecular Mass": "422.87",
        "Melting Point": "69 °C",
        "Density": "1.212 g/cm³ @ Temp: 25 °C"
    }
}