{
    "cas_no": "15401-60-2",
    "key_name": "Methyl (2<em>S</em>,3<em>R</em>,4<em>S</em>)-4-[[(1<em>R</em>)-2-acetyl-1,2,3,4-tetrahydro-6,7-dihydroxy-1-isoquinolinyl]methyl]-3-ethenyl-2-(β-<span class=\"text-smallcaps\">D</span>-glucopyranosyloxy)-3,4-dihydro-2<em>H</em>-pyran-5-carboxylate",
    "cn_name": null,
    "alternate_name": "2<em>H</em>-Pyran-5-carboxylic acid, 4-[[(1<em>R</em>)-2-acetyl-1,2,3,4-tetrahydro-6,7-dihydroxy-1-isoquinolinyl]methyl]-3-ethenyl-2-(β-<span class=\"text-smallcaps\">D</span>-glucopyranosyloxy)-3,4-dihydro-, methyl ester, (2<em>S</em>,3<em>R</em>,4<em>S</em>)-;Ipecoside;2<em>H</em>-Pyran-5-carboxylic acid, 4-[(2-acetyl-1,2,3,4-tetrahydro-6,7-dihydroxy-1-isoquinolinyl)methyl]-3-ethenyl-2-(β-<span class=\"text-smallcaps\">D</span>-glucopyranosyloxy)-3,4-dihydro-, methyl ester, [2<em>S</em>-[2α,3β,4β(<em>S</em>*)]]-;Methyl (2<em>S</em>,3<em>R</em>,4<em>S</em>)-4-[[(1<em>R</em>)-2-acetyl-1,2,3,4-tetrahydro-6,7-dihydroxy-1-isoquinolinyl]methyl]-3-ethenyl-2-(β-<span class=\"text-smallcaps\">D</span>-glucopyranosyloxy)-3,4-dihydro-2<em>H</em>-pyran-5-carboxylate;NSC 603972",
    "duplicated_cas_no": "11038-89-4",
    "SMILES": "C([C@@H]1C=2C(CCN1C(C)=O)=CC(O)=C(O)C2)[C@H]3[C@@H](C=C)[C@H](O[C@@H]4O[C@H](CO)[C@@H](O)[C@H](O)[C@H]4O)OC=C3C(OC)=O",
    "meta_data": {
        "InChI": "InChI=1S/C27H35NO12/c1-4-14-16(8-18-15-9-20(32)19(31)7-13(15)5-6-28(18)12(2)30)17(25(36)37-3)11-38-26(14)40-27-24(35)23(34)22(33)21(10-29)39-27/h4,7,9,11,14,16,18,21-24,26-27,29,31-35H,1,5-6,8,10H2,2-3H3/t14-,16+,18-,21-,22-,23+,24-,26+,27+/m1/s1",
        "InChIKey": null,
        "Canonical SMILES": "O=C(OC)C1=COC(OC2OC(CO)C(O)C(O)C2O)C(C=C)C1CC3C4=CC(O)=C(O)C=C4CCN3C(=O)C",
        "Molecular Formula": "C<sub>27</sub>H<sub>35</sub>NO<sub>12</sub>",
        "Molecular Mass": "565.57",
        "Melting Point": "~175 °C (approx)"
    }
}