{
    "cas_no": "39222-73-6",
    "key_name": "5-(1,1-Dimethylethyl)-1,3,4-thiadiazol-2-amine",
    "cn_name": "2-氨基-5-叔-丁基-1,3,4-噻二唑;",
    "alternate_name": "1,3,4-Thiadiazol-2-amine, 5-(1,1-dimethylethyl)-;1,3,4-Thiadiazole, 2-amino-5-<em>tert</em>-butyl-;5-(1,1-Dimethylethyl)-1,3,4-thiadiazol-2-amine;5-Amino-2-<em>tert</em>-butyl-1,3,4-thiadiazole;5-<em>tert</em>-Butyl-2-amino-1,3,4-thiadiazole;2-Amino-5-<em>tert</em>-butyl-1,3,4-thiadiazole;2-<em>tert</em>-Butyl-5-amino-1,3,4-thiadiazole;2-Amino-4-<em>tert</em>-butyl-1,3,4-thiadiazole;Buthidazolamine;(5-<em>tert</em>-Butyl-[1,3,4]thiadiazol-2-yl)amine;5-(<em>tert</em>-Butyl)-[1,3,4]thiadiazole-2-amine;<em>N</em>-(5-<em>tert</em>-Butyl-1,3,4-thiadiazol-2-yl)amine;5-<em>tert</em>-Butyl-1,3,4-thiadiazol-2-amine",
    "duplicated_cas_no": "",
    "SMILES": "C(C)(C)(C)C=1SC(N)=NN1",
    "meta_data": {
        "InChI": "InChI=1S/C6H11N3S/c1-6(2,3)4-8-9-5(7)10-4/h1-3H3,(H2,7,9)",
        "InChIKey": null,
        "Canonical SMILES": "N=1N=C(SC1N)C(C)(C)C",
        "Molecular Formula": "C<sub>6</sub>H<sub>11</sub>N<sub>3</sub>S",
        "Molecular Mass": "157.24",
        "Melting Point": "180 °C"
    }
}