{
    "cas_no": "3622-30-8",
    "key_name": "2,4-Dichlorobenzothiazole",
    "cn_name": "2,4-二氯苯并噻唑;",
    "alternate_name": "Benzothiazole, 2,4-dichloro-;2,4-Dichlorobenzothiazole;2,4-Dichloro-1,3-benzothiazole;2,4-Dichlorobenzo[<em>d</em>]thiazole",
    "duplicated_cas_no": "",
    "SMILES": "ClC1=C2C(SC(Cl)=N2)=CC=C1",
    "meta_data": {
        "InChI": "InChI=1S/C7H3Cl2NS/c8-4-2-1-3-5-6(4)10-7(9)11-5/h1-3H",
        "InChIKey": null,
        "Canonical SMILES": "ClC1=NC=2C(Cl)=CC=CC2S1",
        "Molecular Formula": "C<sub>7</sub>H<sub>3</sub>Cl<sub>2</sub>NS",
        "Molecular Mass": "204.08",
        "Melting Point": "96-97 °C"
    }
}