{
    "cas_no": "1503-49-7",
    "key_name": "4-Cyanobenzophenone",
    "cn_name": "4-氰基苯并苯基酮;",
    "alternate_name": "Benzonitrile, 4-benzoyl-;Benzonitrile, <em>p</em>-benzoyl-;4-Benzoylbenzonitrile;<em>p</em>-Cyanobenzophenone;4-Cyanobenzophenone;<em>p</em>-Benzoylbenzonitrile;<em>p</em>-Cyanophenyl phenyl ketone;(4-Cyanophenyl)phenylmethanone;4-Cyanophenyl phenyl ketone",
    "duplicated_cas_no": "",
    "SMILES": "C(=O)(C1=CC=C(C#N)C=C1)C2=CC=CC=C2",
    "meta_data": {
        "InChI": "InChI=1S/C14H9NO/c15-10-11-6-8-13(9-7-11)14(16)12-4-2-1-3-5-12/h1-9H",
        "InChIKey": null,
        "Canonical SMILES": "N#CC1=CC=C(C=C1)C(=O)C=2C=CC=CC2",
        "Molecular Formula": "C<sub>14</sub>H<sub>9</sub>NO",
        "Molecular Mass": "207.23",
        "Melting Point": "107-108 °C"
    }
}