{
    "cas_no": "4521-33-9",
    "key_name": "5-Nitro-2-thiophenecarboxaldehyde",
    "cn_name": "5-硝基噻吩-2-甲醛;5-硝基噻酚-2-甲醛;",
    "alternate_name": "2-Thiophenecarboxaldehyde, 5-nitro-;5-Nitro-2-thiophenecarboxaldehyde;2-Formyl-5-nitrothiophene;5-Nitro-2-formylthiophene;5-Nitro-2-thiophenealdehyde;5-Nitro-2-thienylcarboxaldehyde;NTA;5-Nitro-2-thienylaldehyde;2-Nitrothiophene-5-carboxaldehyde;NSC 168226;5-Nitrothiophene-2-carbaldehyde;5-Nitro-2-thienaldehyde",
    "duplicated_cas_no": "",
    "SMILES": "N(=O)(=O)C=1SC(C=O)=CC1",
    "meta_data": {
        "InChI": "InChI=1S/C5H3NO3S/c7-3-4-1-2-5(10-4)6(8)9/h1-3H",
        "InChIKey": null,
        "Canonical SMILES": "O=CC=1SC(=CC1)N(=O)=O",
        "Molecular Formula": "C<sub>5</sub>H<sub>3</sub>NO<sub>3</sub>S",
        "Molecular Mass": "157.15",
        "Boiling Point": "118-120 °C @ Press: 3-4 Torr",
        "Melting Point": "77.0-77.5 °C",
        "Density": "1.701 g/cm³"
    }
}