{
    "cas_no": "4282-34-2",
    "key_name": "2,5-Thiophenedicarboxylic acid, 2,5-dimethyl ester",
    "cn_name": null,
    "alternate_name": "2,5-Thiophenedicarboxylic acid, 2,5-dimethyl ester;2,5-Thiophenedicarboxylic acid, dimethyl ester;Dimethyl 2,5-thiophenedicarboxylate;2,5-Bismethoxycarbonylthiophene;Dimethyl thiophene-2,5-carboxylate;2,5-Dimethyl thiophene-2,5-dicarboxylate",
    "duplicated_cas_no": "",
    "SMILES": "C(OC)(=O)C=1SC(C(OC)=O)=CC1",
    "meta_data": {
        "InChI": "InChI=1S/C8H8O4S/c1-11-7(9)5-3-4-6(13-5)8(10)12-2/h3-4H,1-2H3",
        "InChIKey": null,
        "Canonical SMILES": "O=C(OC)C=1SC(=CC1)C(=O)OC",
        "Molecular Formula": "C<sub>8</sub>H<sub>8</sub>O<sub>4</sub>S",
        "Molecular Mass": "200.21",
        "Melting Point": "148.5-149.5 °C"
    }
}