{
    "cas_no": "3149-28-8",
    "key_name": "2-Methoxypyrazine",
    "cn_name": "2-甲氧基吡嗪;",
    "alternate_name": "Pyrazine, 2-methoxy-;Pyrazine, methoxy-;2-Methoxypyrazine;Methoxypyrazine",
    "duplicated_cas_no": "",
    "SMILES": "O(C)C=1C=NC=CN1",
    "meta_data": {
        "InChI": "InChI=1S/C5H6N2O/c1-8-5-4-6-2-3-7-5/h2-4H,1H3",
        "InChIKey": null,
        "Canonical SMILES": "N=1C=CN=C(OC)C1",
        "Molecular Formula": "C<sub>5</sub>H<sub>6</sub>N<sub>2</sub>O",
        "Molecular Mass": "110.11",
        "Boiling Point": "61 °C"
    }
}