{
    "cas_no": "16851-82-4",
    "key_name": "1-(Phenylsulfonyl)-1<em>H</em>-pyrrole",
    "cn_name": "1-(苯基磺酰基)吡咯;",
    "alternate_name": "1<em>H</em>-Pyrrole, 1-(phenylsulfonyl)-;Pyrrole, 1-(phenylsulfonyl)-;1-(Phenylsulfonyl)-1<em>H</em>-pyrrole;<em>N</em>-Phenylsulfonylpyrrole;<em>N</em>-(Benzenesulfonyl)pyrrole;1-(Phenylsulfonyl)pyrrole;1-(Benzenesulfonyl)-1<em>H</em>-pyrrole;NSC 102019",
    "duplicated_cas_no": "",
    "SMILES": "S(=O)(=O)(N1C=CC=C1)C2=CC=CC=C2",
    "meta_data": {
        "InChI": "InChI=1S/C10H9NO2S/c12-14(13,11-8-4-5-9-11)10-6-2-1-3-7-10/h1-9H",
        "InChIKey": null,
        "Canonical SMILES": "O=S(=O)(C=1C=CC=CC1)N2C=CC=C2",
        "Molecular Formula": "C<sub>10</sub>H<sub>9</sub>NO<sub>2</sub>S",
        "Molecular Mass": "207.25",
        "Melting Point": "88-89 °C"
    }
}