{
    "cas_no": "994-30-9",
    "key_name": "Triethylsilyl chloride",
    "cn_name": "三乙基氯硅烷;",
    "alternate_name": "Silane, chlorotriethyl-;Chlorotriethylsilane;Triethylchlorosilane;Triethylsilyl chloride;TESCl",
    "duplicated_cas_no": "",
    "SMILES": "[Si](CC)(CC)(CC)Cl",
    "meta_data": {
        "InChI": "InChI=1S/C6H15ClSi/c1-4-8(7,5-2)6-3/h4-6H2,1-3H3",
        "InChIKey": null,
        "Canonical SMILES": "Cl[Si](CC)(CC)CC",
        "Molecular Formula": "C<sub>6</sub>H<sub>15</sub>ClSi",
        "Molecular Mass": "150.72",
        "Boiling Point": "144.5 °C",
        "Melting Point": "-50 °C",
        "Density": "0.896 g/cm³"
    }
}