{
    "cas_no": "943-73-7",
    "key_name": "<span class=\"text-smallcaps\">L</span>-Homophenylalanine",
    "cn_name": "S-苯基丁氨酸;L-2-氨基-4-苯基丁酸;",
    "alternate_name": "Benzenebutanoic acid, α-amino-, (α<em>S</em>)-;Butyric acid, 2-amino-4-phenyl-, <span class=\"text-smallcaps\">L</span>-;Benzenebutanoic acid, α-amino-, (<em>S</em>)-;(α<em>S</em>)-α-Aminobenzenebutanoic acid;<span class=\"text-smallcaps\">L</span>-Benzylalanine;<span class=\"text-smallcaps\">L</span>-2-Amino-4-phenylbutyric acid;<span class=\"text-smallcaps\">L</span>-γ-Phenylbutyrine;(+)-Homophenylalanine;(+)-(<em>S</em>)-Homophenylalanine;<span class=\"text-smallcaps\">L</span>-Homophenylalanine;(<em>S</em>)-Homophenylalanine;(+)-<span class=\"text-smallcaps\">L</span>-Homophenylalanine;(2S)-2-Amino-4-phenylbutanoic acid;(2S)-2-Azaniumyl-4-phenylbutanoate",
    "duplicated_cas_no": "1013313-66-0",
    "SMILES": "C(C[C@@H](C(O)=O)N)C1=CC=CC=C1",
    "meta_data": {
        "InChI": "InChI=1S/C10H13NO2/c11-9(10(12)13)7-6-8-4-2-1-3-5-8/h1-5,9H,6-7,11H2,(H,12,13)/t9-/m0/s1",
        "InChIKey": null,
        "Canonical SMILES": "O=C(O)C(N)CCC=1C=CC=CC1",
        "Molecular Formula": "C<sub>10</sub>H<sub>13</sub>NO<sub>2</sub>",
        "Molecular Mass": "179.22",
        "Melting Point": "286-290 °C"
    }
}