{
    "cas_no": "2835-39-4",
    "key_name": "Allyl isovalerate",
    "cn_name": "异戊酸烯丙酯;",
    "alternate_name": "Butanoic acid, 3-methyl-, 2-propen-1-yl ester;Isovaleric acid, allyl ester;Butanoic acid, 3-methyl-, 2-propenyl ester;Allyl isovalerate;Allyl isopentanoate;NSC 18606;Allyl 3-methylbutanoate",
    "duplicated_cas_no": "",
    "SMILES": "C(C(OCC=C)=O)C(C)C",
    "meta_data": {
        "InChI": "InChI=1S/C8H14O2/c1-4-5-10-8(9)6-7(2)3/h4,7H,1,5-6H2,2-3H3",
        "InChIKey": null,
        "Canonical SMILES": "O=C(OCC=C)CC(C)C",
        "Molecular Formula": "C<sub>8</sub>H<sub>14</sub>O<sub>2</sub>",
        "Molecular Mass": "142.20",
        "Boiling Point": "89-90 °C"
    }
}