{
    "cas_no": "2078-54-8",
    "key_name": "Propofol",
    "cn_name": "丙泊酚;2,6-二异丙基苯酚;",
    "alternate_name": "Phenol, 2,6-bis(1-methylethyl)-;Phenol, 2,6-diisopropyl-;2,6-Bis(1-methylethyl)phenol;2,6-Diisopropylphenol;ICI 35868;Diprivan;Propofol;2,6-Bis(isopropyl)phenol;PD 18215;Diprivan 10;Disoprivan;Recofol;Diprofol;Diprifusor;Propofol-lipuro;Rapinovet;NSC 5105;Ampofol;Ivofol;Disoprofol;Pofol;Pronest;Propovan;Fresofol;Aquafol;Vetofol;Anepol;PropVet;Plofed;Propoclear;2,6-Di(propan-2-yl)phenol;Propolipid",
    "duplicated_cas_no": "28449-97-0;50356-15-5",
    "SMILES": "C(C)(C)C1=C(O)C(C(C)C)=CC=C1",
    "meta_data": {
        "InChI": "InChI=1S/C12H18O/c1-8(2)10-6-5-7-11(9(3)4)12(10)13/h5-9,13H,1-4H3",
        "InChIKey": null,
        "Canonical SMILES": "OC=1C(=CC=CC1C(C)C)C(C)C",
        "Molecular Formula": "C<sub>12</sub>H<sub>18</sub>O",
        "Molecular Mass": "178.27",
        "Boiling Point": "242 °C",
        "Melting Point": "18 °C",
        "Density": "1.540 g/cm³ @ Temp: 20 °C"
    }
}