{
    "cas_no": "3587-64-2",
    "key_name": "1-Methoxy-2-methyl-2-propanol",
    "cn_name": "1-甲氧基-2-甲基-2-丙醇;1-甲氧基-2-甲基-2-丙醇;",
    "alternate_name": "2-Propanol, 1-methoxy-2-methyl-;1-Methoxy-2-methyl-2-propanol;1,1-Dimethyl-2-methoxyethanol;1-Methoxy-2-methylpropan-2-ol;2-Methoxy-1,1-dimethylethanol",
    "duplicated_cas_no": "",
    "SMILES": "C(C(C)(C)O)OC",
    "meta_data": {
        "InChI": "InChI=1S/C5H12O2/c1-5(2,6)4-7-3/h6H,4H2,1-3H3",
        "InChIKey": null,
        "Canonical SMILES": "OC(C)(C)COC",
        "Molecular Formula": "C<sub>5</sub>H<sub>12</sub>O<sub>2</sub>",
        "Molecular Mass": "104.15",
        "Boiling Point": "116.6 °C",
        "Density": "0.9021 g/cm³"
    }
}