{
    "cas_no": "5346-53-2",
    "key_name": "5-Amino-1-(2-hydroxyethyl)-1<em>H</em>-pyrazole-4-carbonitrile",
    "cn_name": "1-羟乙基-4-氰基-5-氨基吡唑;",
    "alternate_name": "1<em>H</em>-Pyrazole-4-carbonitrile, 5-amino-1-(2-hydroxyethyl)-;Pyrazole-4-carbonitrile, 5-amino-1-(2-hydroxyethyl)-;5-Amino-1-(2-hydroxyethyl)-1<em>H</em>-pyrazole-4-carbonitrile;NSC 114117;NSC 1632",
    "duplicated_cas_no": "",
    "SMILES": "C(CO)N1C(N)=C(C#N)C=N1",
    "meta_data": {
        "InChI": "InChI=1S/C6H8N4O/c7-3-5-4-9-10(1-2-11)6(5)8/h4,11H,1-2,8H2",
        "InChIKey": null,
        "Canonical SMILES": "N#CC=1C=NN(C1N)CCO",
        "Molecular Formula": "C<sub>6</sub>H<sub>8</sub>N<sub>4</sub>O",
        "Molecular Mass": "152.15",
        "Melting Point": "158-160 °C"
    }
}