{
    "cas_no": "1072-63-5",
    "key_name": "1-Vinylimidazole",
    "cn_name": "1-乙烯基咪唑;",
    "alternate_name": "1<em>H</em>-Imidazole, 1-ethenyl-;Imidazole, 1-vinyl-;1-Ethenyl-1<em>H</em>-imidazole;<em>N</em>-Vinylimidazole;1-Vinylimidazole;1-Vinyl-1<em>H</em>-imidazole;1-Ethenylimidazole",
    "duplicated_cas_no": "2055215-53-5",
    "SMILES": "C(=C)N1C=CN=C1",
    "meta_data": {
        "InChI": "InChI=1S/C5H6N2/c1-2-7-4-3-6-5-7/h2-5H,1H2",
        "InChIKey": null,
        "Canonical SMILES": "N=1C=CN(C1)C=C",
        "Molecular Formula": "C<sub>5</sub>H<sub>6</sub>N<sub>2</sub>",
        "Molecular Mass": "94.11",
        "Boiling Point": "100-113 °C @ Press: 20 Torr",
        "Density": "1.0414 g/cm³ @ Temp: 20 °C"
    }
}