{
    "cas_no": "524-95-8",
    "key_name": "2-Aminoethoxydiphenyl borate",
    "cn_name": null,
    "alternate_name": "Borinic acid, <em>B</em>,<em>B</em>-diphenyl-, 2-aminoethyl ester;Borinic acid, diphenyl-, 2-aminoethyl ester;Ethanol, 2-amino-, diphenylborinate (ester);<em>B</em>-(2-Aminoethoxy)diphenylborane;2-Aminoethoxydiphenylborane;(2-Aminoethyloxy)diphenylborane;2-Aminoethyl diphenylborinate;Naturstoffreagenz A;NSC 17107;2-APB;2-Aminoethoxydiphenyl borate;2-Diphenylboranyloxyethanamine",
    "duplicated_cas_no": "",
    "SMILES": "B(OCCN)(C1=CC=CC=C1)C2=CC=CC=C2",
    "meta_data": {
        "InChI": "InChI=1S/C14H16BNO/c16-11-12-17-15(13-7-3-1-4-8-13)14-9-5-2-6-10-14/h1-10H,11-12,16H2",
        "InChIKey": null,
        "Canonical SMILES": "O(B(C=1C=CC=CC1)C=2C=CC=CC2)CCN",
        "Molecular Formula": "C<sub>14</sub>H<sub>16</sub>BNO",
        "Molecular Mass": "225.09",
        "Melting Point": "188-190 °C (decomp)"
    }
}