{
    "cas_no": "19241-24-8",
    "key_name": "1-(1,1-Dimethylethyl)-4-isothiocyanatobenzene",
    "cn_name": "4-叔丁基苯基异氰酸酯;",
    "alternate_name": "Benzene, 1-(1,1-dimethylethyl)-4-isothiocyanato-;Isothiocyanic acid, <em>p</em>-<em>tert</em>-butylphenyl ester;1-(1,1-Dimethylethyl)-4-isothiocyanatobenzene;4-<em>tert</em>-Butylphenyl isothiocyanate;<em>p</em>-<em>tert</em>-Butylphenyl isothiocyanate;1-<em>tert</em>-Butyl-4-isothiocyanatobenzene",
    "duplicated_cas_no": "",
    "SMILES": "C(C)(C)(C)C1=CC=C(N=C=S)C=C1",
    "meta_data": {
        "InChI": "InChI=1S/C11H13NS/c1-11(2,3)9-4-6-10(7-5-9)12-8-13/h4-7H,1-3H3",
        "InChIKey": null,
        "Canonical SMILES": "S=C=NC1=CC=C(C=C1)C(C)(C)C",
        "Molecular Formula": "C<sub>11</sub>H<sub>13</sub>NS",
        "Molecular Mass": "191.29",
        "Boiling Point": "105 °C @ Press: 1.3 Torr",
        "Melting Point": "30 °C"
    }
}