{
    "cas_no": "573-98-8",
    "key_name": "1,2-Dimethylnaphthalene",
    "cn_name": "1,2-二甲基萘;1,2-二甲萘;",
    "alternate_name": "Naphthalene, 1,2-dimethyl-;1,2-Dimethylnaphthalene;NSC 59832",
    "duplicated_cas_no": "",
    "SMILES": "CC=1C2=C(C=CC1C)C=CC=C2",
    "meta_data": {
        "InChI": "InChI=1S/C12H12/c1-9-7-8-11-5-3-4-6-12(11)10(9)2/h3-8H,1-2H3",
        "InChIKey": null,
        "Canonical SMILES": "C=1C=CC2=C(C1)C=CC(=C2C)C",
        "Molecular Formula": "C<sub>12</sub>H<sub>12</sub>",
        "Molecular Mass": "156.22",
        "Boiling Point": "266.5 °C",
        "Melting Point": "1.6 °C",
        "Density": "1.0118 g/cm³ @ Temp: 19.0 °C"
    }
}