{
    "cas_no": "1113-12-8",
    "key_name": "Dimethyldi-2-propen-1-ylsilane",
    "cn_name": "二烯丙基二甲硅烷;",
    "alternate_name": "Silane, dimethyldi-2-propen-1-yl-;Silane, diallyldimethyl-;Silane, dimethyldi-2-propenyl-;Dimethyldi-2-propen-1-ylsilane;Diallyldimethylsilane;Dimethyldiallylsilane;4,4-Dimethyl-4-sila-1,6-heptadiene",
    "duplicated_cas_no": "",
    "SMILES": "[Si](CC=C)(CC=C)(C)C",
    "meta_data": {
        "InChI": "InChI=1S/C8H16Si/c1-5-7-9(3,4)8-6-2/h5-6H,1-2,7-8H2,3-4H3",
        "InChIKey": null,
        "Canonical SMILES": "C=CC[Si](C)(C)CC=C",
        "Molecular Formula": "C<sub>8</sub>H<sub>16</sub>Si",
        "Molecular Mass": "140.30",
        "Boiling Point": "137 °C",
        "Density": "0.767 g/cm³"
    }
}