{
    "cas_no": "3558-69-8",
    "key_name": "2,6-Diphenylpyridine",
    "cn_name": "2,6-二苯基哌啶;",
    "alternate_name": "Pyridine, 2,6-diphenyl-;2,6-Diphenylpyridine;NSC 133378",
    "duplicated_cas_no": "",
    "SMILES": "C=1(N=C(C=CC1)C2=CC=CC=C2)C3=CC=CC=C3",
    "meta_data": {
        "InChI": "InChI=1S/C17H13N/c1-3-8-14(9-4-1)16-12-7-13-17(18-16)15-10-5-2-6-11-15/h1-13H",
        "InChIKey": null,
        "Canonical SMILES": "N=1C(=CC=CC1C=2C=CC=CC2)C=3C=CC=CC3",
        "Molecular Formula": "C<sub>17</sub>H<sub>13</sub>N",
        "Molecular Mass": "231.29",
        "Boiling Point": "397 °C",
        "Melting Point": "82 °C"
    }
}