{
    "cas_no": "19816-88-7",
    "key_name": "4-Methylbenzenesulfonic acid 2-[2-phenyl-1-(phenylmethyl)ethylidene]hydrazide",
    "cn_name": "1,3-联苯基丙酮间-甲苯磺酰腙;",
    "alternate_name": "Benzenesulfonic acid, 4-methyl-, 2-[2-phenyl-1-(phenylmethyl)ethylidene]hydrazide;<em>p</em>-Toluenesulfonic acid, (α-benzylphenethylidene)hydrazide;Benzenesulfonic acid, 4-methyl-, [2-phenyl-1-(phenylmethyl)ethylidene]hydrazide;4-Methylbenzenesulfonic acid 2-[2-phenyl-1-(phenylmethyl)ethylidene]hydrazide;Dibenzyl ketone tolylsulfonylhydrazone;1,3-Diphenylpropanone tosylhydrazone;NSC 126949;1,3-Diphenylacetone <em>p</em>-tosylhydrazone;1,3-Diphenylpropan-2-one tosylhydrazone",
    "duplicated_cas_no": "",
    "SMILES": "C(CC1=CC=CC=C1)(CC2=CC=CC=C2)=NNS(=O)(=O)C3=CC=C(C)C=C3",
    "meta_data": {
        "InChI": "InChI=1S/C22H22N2O2S/c1-18-12-14-22(15-13-18)27(25,26)24-23-21(16-19-8-4-2-5-9-19)17-20-10-6-3-7-11-20/h2-15,24H,16-17H2,1H3",
        "InChIKey": null,
        "Canonical SMILES": "O=S(=O)(NN=C(CC=1C=CC=CC1)CC=2C=CC=CC2)C3=CC=C(C=C3)C",
        "Molecular Formula": "C<sub>22</sub>H<sub>22</sub>N<sub>2</sub>O<sub>2</sub>S",
        "Molecular Mass": "378.49",
        "Melting Point": "175-177 °C"
    }
}