{
    "cas_no": "22936-83-0",
    "key_name": "1-Methylcyclopropanamine",
    "cn_name": null,
    "alternate_name": "Cyclopropanamine, 1-methyl-;Cyclopropylamine, 1-methyl-;1-Methylcyclopropanamine;1-Methylcyclopropylamine;1-Amino-1-methylcyclopropane;1-Methylcyclopropan-1-amine",
    "duplicated_cas_no": "",
    "SMILES": "CC1(N)CC1",
    "meta_data": {
        "InChI": "InChI=1S/C4H9N/c1-4(5)2-3-4/h2-3,5H2,1H3",
        "InChIKey": null,
        "Canonical SMILES": "NC1(C)CC1",
        "Molecular Formula": "C<sub>4</sub>H<sub>9</sub>N",
        "Molecular Mass": "71.12",
        "Boiling Point": "58-60 °C"
    }
}