{
    "cas_no": "402-46-0",
    "key_name": "4-Fluorobenzenesulfonamide",
    "cn_name": "4-氟苯磺酰胺;对氟苯磺酰胺;",
    "alternate_name": "Benzenesulfonamide, 4-fluoro-;Benzenesulfonamide, <em>p</em>-fluoro-;4-Fluorobenzenesulfonamide;<em>p</em>-Fluorobenzenesulfonamide;4-Fluorobenzene-1-sulfonamide",
    "duplicated_cas_no": "",
    "SMILES": "S(N)(=O)(=O)C1=CC=C(F)C=C1",
    "meta_data": {
        "InChI": "InChI=1S/C6H6FNO2S/c7-5-1-3-6(4-2-5)11(8,9)10/h1-4H,(H2,8,9,10)",
        "InChIKey": null,
        "Canonical SMILES": "O=S(=O)(N)C1=CC=C(F)C=C1",
        "Molecular Formula": "C<sub>6</sub>H<sub>6</sub>FNO<sub>2</sub>S",
        "Molecular Mass": "175.18",
        "Melting Point": "125-126 °C"
    }
}