{
    "cas_no": "3335-98-6",
    "key_name": "1,3-Dihydro-1-phenyl-2<em>H</em>-indol-2-one",
    "cn_name": "N-苯基吲哚酮;",
    "alternate_name": "2<em>H</em>-Indol-2-one, 1,3-dihydro-1-phenyl-;2-Indolinone, 1-phenyl-;Oxindole, 1-phenyl-;1,3-Dihydro-1-phenyl-2<em>H</em>-indol-2-one;1-Phenyl-2-indolinone;<em>N</em>-Phenyl-2-indolinone;1-Phenyloxindole;NSC 234518;1-Phenyl-1,3-dihydro-2<em>H</em>-indol-2-one;<em>N</em>-Phenyloxindole;1-Phenyl-1<em>H</em>-indolin-2-one;1-Phenyl-1,3-dihydro-indol-2-one;1-Phenyl-3<em>H</em>-indol-2-one;1<em>H</em>-Indole, 1-phenyl-, 1-oxide",
    "duplicated_cas_no": "2754262-70-7",
    "SMILES": "O=C1N(C=2C(C1)=CC=CC2)C3=CC=CC=C3",
    "meta_data": {
        "InChI": "InChI=1S/C14H11NO/c16-14-10-11-6-4-5-9-13(11)15(14)12-7-2-1-3-8-12/h1-9H,10H2",
        "InChIKey": null,
        "Canonical SMILES": "O=C1N(C=2C=CC=CC2)C=3C=CC=CC3C1",
        "Molecular Formula": "C<sub>14</sub>H<sub>11</sub>NO",
        "Molecular Mass": "209.24",
        "Melting Point": "120.5-121 °C"
    }
}