{
    "cas_no": "5743-12-4",
    "key_name": "1<em>H</em>-Purine-2,6-dione, 3,7-dihydro-1,3,7-trimethyl-, hydrate (1:1)",
    "cn_name": "咖啡因(一水);1,3,7-三甲基黄嘌呤；甲基可可豆碱；咖啡碱；茶素;",
    "alternate_name": "1<em>H</em>-Purine-2,6-dione, 3,7-dihydro-1,3,7-trimethyl-, hydrate (1:1);Caffeine, monohydrate;1<em>H</em>-Purine-2,6-dione, 3,7-dihydro-1,3,7-trimethyl-, monohydrate",
    "duplicated_cas_no": "",
    "SMILES": "O=C1C2=C(N(C)C(=O)N1C)N=CN2C.O",
    "meta_data": {
        "InChI": "InChI=1S/C8H10N4O2.H2O/c1-10-4-9-6-5(10)7(13)12(3)8(14)11(6)2;/h4H,1-3H3;1H2",
        "InChIKey": null,
        "Canonical SMILES": "O=C1C2=C(N=CN2C)N(C(=O)N1C)C.O",
        "Molecular Formula": "C<sub>8</sub>H<sub>10</sub>N<sub>4</sub>O<sub>2</sub>.H<sub>2</sub>O",
        "Molecular Mass": "",
        "Melting Point": "344-346 °C"
    }
}