{
    "cas_no": "483-63-6",
    "key_name": "Crotamiton",
    "cn_name": "克罗米通;N-乙基-邻巴豆酰甲基苯胺;",
    "alternate_name": "2-Butenamide, <em>N</em>-ethyl-<em>N</em>-(2-methylphenyl)-;<em>o</em>-Crotonotoluidide, <em>N</em>-ethyl-;<em>N</em>-Ethyl-<em>N</em>-(2-methylphenyl)-2-butenamide;Crotamiton;<em>N</em>-Ethyl-<em>o</em>-crotonotoluidide;Eurax;Euraxil;<em>N</em>-Crotonyl-<em>N</em>-ethyl-<em>o</em>-toluidine;Veteusan;Crotalgin;Crotonyl <em>N</em>-ethyl-<em>o</em>-toluidine;Crotamitone;Crotamitex",
    "duplicated_cas_no": "",
    "SMILES": "N(C(C=CC)=O)(CC)C1=C(C)C=CC=C1",
    "meta_data": {
        "InChI": "InChI=1S/C13H17NO/c1-4-8-13(15)14(5-2)12-10-7-6-9-11(12)3/h4,6-10H,5H2,1-3H3",
        "InChIKey": null,
        "Canonical SMILES": "O=C(C=CC)N(C=1C=CC=CC1C)CC",
        "Molecular Formula": "C<sub>13</sub>H<sub>17</sub>NO",
        "Molecular Mass": "203.28",
        "Boiling Point": "154 °C",
        "Melting Point": "&lt;25 °C"
    }
}