{
    "cas_no": "4894-61-5",
    "key_name": "(2<em>E</em>)-1-Chloro-2-butene",
    "cn_name": null,
    "alternate_name": "2-Butene, 1-chloro-, (2<em>E</em>)-;2-Butene, 1-chloro-, (<em>E</em>)-;2-Butene, 1-chloro-, <em>trans</em>-;(2<em>E</em>)-1-Chloro-2-butene;<em>trans</em>-Crotyl chloride;<em>trans</em>-γ-Methallyl chloride;<em>trans</em>-1-Chloro-2-butene;(<em>E</em>)-1-Chloro-2-butene;<em>trans</em>-But-2-enyl chloride;(<em>E</em>)-Crotyl chloride;(<em>E</em>)-2-Butenyl chloride;<em>trans</em>-4-Chloro-2-butene;(E)-1-Chlorobut-2-ene",
    "duplicated_cas_no": "",
    "SMILES": "C(=C/C)\\CCl",
    "meta_data": {
        "InChI": "InChI=1S/C4H7Cl/c1-2-3-4-5/h2-3H,4H2,1H3/b3-2+",
        "InChIKey": null,
        "Canonical SMILES": "ClCC=CC",
        "Molecular Formula": "C<sub>4</sub>H<sub>7</sub>Cl",
        "Molecular Mass": "90.55",
        "Boiling Point": "85 °C",
        "Density": "0.9295 g/cm³ @ Temp: 20 °C"
    }
}