{
    "cas_no": "28741-08-4",
    "key_name": "<em>B</em>-Octylboronic acid",
    "cn_name": "1-辛基硼酸;",
    "alternate_name": "Boronic acid, <em>B</em>-octyl-;1-Octaneboronic acid;Boronic acid, octyl-;<em>B</em>-Octylboronic acid;Octylboronic acid;1-Octylboronic acid",
    "duplicated_cas_no": "",
    "SMILES": "C(CCCCC)CCB(O)O",
    "meta_data": {
        "InChI": "InChI=1S/C8H19BO2/c1-2-3-4-5-6-7-8-9(10)11/h10-11H,2-8H2,1H3",
        "InChIKey": null,
        "Canonical SMILES": "OB(O)CCCCCCCC",
        "Molecular Formula": "C<sub>8</sub>H<sub>19</sub>BO<sub>2</sub>",
        "Molecular Mass": "158.05",
        "Melting Point": "79 °C"
    }
}