{
    "cas_no": "109-87-5",
    "key_name": "Dimethoxymethane",
    "cn_name": "二甲醇缩甲醛;二甲氧基甲烷;",
    "alternate_name": "Methane, dimethoxy-;Dimethoxymethane;Anesthenyl;Formal;Methylal;Methylene dimethyl ether;Formaldehyde dimethyl acetal;Dimethyl formal;Methoxymethyl methyl ether;Formaldehyde methyl ketal;2,4-Dioxapentane;Bis(methoxy)methane;ODS;1,1-Dimethoxymethane;Methylene glycol dimethyl ether;Oxymethylene dimethyl ether;Solvalid DMM 100",
    "duplicated_cas_no": "",
    "SMILES": "C(OC)OC",
    "meta_data": {
        "InChI": "InChI=1S/C3H8O2/c1-4-3-5-2/h3H2,1-2H3",
        "InChIKey": null,
        "Canonical SMILES": "O(C)COC",
        "Molecular Formula": "C<sub>3</sub>H<sub>8</sub>O<sub>2</sub>",
        "Molecular Mass": "76.09",
        "Boiling Point": "41.6 °C @ Press: 760 Torr",
        "Melting Point": "-105 °C",
        "Density": "0.8593 g/cm³ @ Temp: 20 °C"
    }
}