{
    "cas_no": "18699-48-4",
    "key_name": "Diisobutyl terephthalate",
    "cn_name": null,
    "alternate_name": "1,4-Benzenedicarboxylic acid, 1,4-bis(2-methylpropyl) ester;Terephthalic acid, diisobutyl ester;1,4-Benzenedicarboxylic acid, bis(2-methylpropyl) ester;Diisobutyl terephthalate",
    "duplicated_cas_no": "",
    "SMILES": "C(OCC(C)C)(=O)C1=CC=C(C(OCC(C)C)=O)C=C1",
    "meta_data": {
        "InChI": "InChI=1S/C16H22O4/c1-11(2)9-19-15(17)13-5-7-14(8-6-13)16(18)20-10-12(3)4/h5-8,11-12H,9-10H2,1-4H3",
        "InChIKey": null,
        "Canonical SMILES": "O=C(OCC(C)C)C1=CC=C(C=C1)C(=O)OCC(C)C",
        "Molecular Formula": "C<sub>16</sub>H<sub>22</sub>O<sub>4</sub>",
        "Molecular Mass": "278.34",
        "Melting Point": "55 °C"
    }
}