{
    "cas_no": "17689-77-9",
    "key_name": "Ethyltriacetoxysilane",
    "cn_name": "三乙酰氧基乙基硅烷;",
    "alternate_name": "Silanetriol, 1-ethyl-, 1,1,1-triacetate;Silanetriol, ethyl-, triacetate;Ethyltriacetoxysilane;Triacetoxyethylsilane;Ethylsilanetriol triacetate;Tris(acetyloxy)ethylsilane;AC 3034;E 6345;ES 23;Wacker Crosslinker ES 23;[Diacetyloxy(ethyl)silyl] acetate",
    "duplicated_cas_no": "862207-18-9",
    "SMILES": "[Si](OC(C)=O)(OC(C)=O)(OC(C)=O)CC",
    "meta_data": {
        "InChI": "InChI=1S/C8H14O6Si/c1-5-15(12-6(2)9,13-7(3)10)14-8(4)11/h5H2,1-4H3",
        "InChIKey": null,
        "Canonical SMILES": "O=C(O[Si](OC(=O)C)(OC(=O)C)CC)C",
        "Molecular Formula": "C<sub>8</sub>H<sub>14</sub>O<sub>6</sub>Si",
        "Molecular Mass": "234.28",
        "Boiling Point": "107-108 °C @ Press: 8 Torr",
        "Melting Point": "7-9 °C",
        "Density": "1.143 g/cm³"
    }
}