{
    "cas_no": "119006-77-8",
    "key_name": "Flutrimazole",
    "cn_name": "氟曲吗唑;1-[(2-氟苯基)-(4-氟苯基)苯基甲基]-1H-咪唑;",
    "alternate_name": "1<em>H</em>-Imidazole, 1-[(2-fluorophenyl)(4-fluorophenyl)phenylmethyl]-;1-[(2-Fluorophenyl)(4-fluorophenyl)phenylmethyl]-1<em>H</em>-imidazole;Flutrimazole;UR 4056;1-[(2-Fluorophenyl)-(4-fluorophenyl)-phenylmethyl]imidazole",
    "duplicated_cas_no": "",
    "SMILES": "C(C1=C(F)C=CC=C1)(C2=CC=C(F)C=C2)(N3C=CN=C3)C4=CC=CC=C4",
    "meta_data": {
        "InChI": "InChI=1S/C22H16F2N2/c23-19-12-10-18(11-13-19)22(26-15-14-25-16-26,17-6-2-1-3-7-17)20-8-4-5-9-21(20)24/h1-16H",
        "InChIKey": null,
        "Canonical SMILES": "FC1=CC=C(C=C1)C(C=2C=CC=CC2)(C=3C=CC=CC3F)N4C=NC=C4",
        "Molecular Formula": "C<sub>22</sub>H<sub>16</sub>F<sub>2</sub>N<sub>2</sub>",
        "Molecular Mass": "346.37",
        "Melting Point": "164-167 °C"
    }
}