{
    "cas_no": "20289-26-3",
    "key_name": "4-Benzyloxyindole",
    "cn_name": "4-苄氧基吲哚;",
    "alternate_name": "1<em>H</em>-Indole, 4-(phenylmethoxy)-;Indole, 4-(benzyloxy)-;4-(Phenylmethoxy)-1<em>H</em>-indole;4-Benzyloxyindole;4-Benzyloxy-1<em>H</em>-indole;NSC 92539;CC-1-33",
    "duplicated_cas_no": "",
    "SMILES": "O(CC1=CC=CC=C1)C2=C3C(NC=C3)=CC=C2",
    "meta_data": {
        "InChI": "InChI=1S/C15H13NO/c1-2-5-12(6-3-1)11-17-15-8-4-7-14-13(15)9-10-16-14/h1-10,16H,11H2",
        "InChIKey": null,
        "Canonical SMILES": "O(C1=CC=CC=2NC=CC12)CC=3C=CC=CC3",
        "Molecular Formula": "C<sub>15</sub>H<sub>13</sub>NO",
        "Molecular Mass": "223.27",
        "Melting Point": "72-74 °C"
    }
}