{
    "cas_no": "75-44-5",
    "key_name": "Phosgene",
    "cn_name": null,
    "alternate_name": "Carbonic dichloride;Phosgene;CG;Chloroformyl chloride;Carbon oxychloride;Carbonyl chloride;Carbonyl dichloride;Phosgen;Carbon dichloride oxide;Dichloroformaldehyde;MeSH ID: D010705",
    "duplicated_cas_no": "957761-04-5;1173022-33-7",
    "SMILES": "C(Cl)(Cl)=O",
    "meta_data": {
        "InChI": "InChI=1S/CCl2O/c2-1(3)4",
        "InChIKey": null,
        "Canonical SMILES": "O=C(Cl)Cl",
        "Molecular Formula": "CCl<sub>2</sub>O",
        "Molecular Mass": "98.92",
        "Boiling Point": "8.2 °C @ Press: 760 Torr",
        "Melting Point": "-118 °C",
        "Density": "1.3719 g/cm³ @ Temp: 25 °C"
    }
}