{
    "cas_no": "13679-61-3",
    "key_name": "Methyl 2-thiofuroate",
    "cn_name": "硫代糠酸甲酯;糠酸甲硫醇酯;",
    "alternate_name": "2-Furancarbothioic acid, <em>S</em>-methyl ester;2-Furoic acid, thio-, <em>S</em>-methyl ester;Methyl 2-thiofuroate;Methylthiol furoate;<em>S</em>-Methyl 2-furancarbothioate;(Furan-2-yl)(methylsulfanyl)methanone",
    "duplicated_cas_no": "",
    "SMILES": "C(SC)(=O)C1=CC=CO1",
    "meta_data": {
        "InChI": "InChI=1S/C6H6O2S/c1-9-6(7)5-3-2-4-8-5/h2-4H,1H3",
        "InChIKey": null,
        "Canonical SMILES": "O=C(SC)C=1OC=CC1",
        "Molecular Formula": "C<sub>6</sub>H<sub>6</sub>O<sub>2</sub>S",
        "Molecular Mass": "142.18",
        "Boiling Point": "83 °C @ Press: 7 Torr"
    }
}