{
    "cas_no": "84-82-2",
    "key_name": "Xanthothricin",
    "cn_name": null,
    "alternate_name": "Pyrimido[5,4-<em>e</em>]-1,2,4-triazine-5,7(1<em>H</em>,6<em>H</em>)-dione, 1,6-dimethyl-;Pyrimido[5,4-<em>e</em>]-<em>as</em>-triazine-5,7(1<em>H</em>,6<em>H</em>)-dione, 1,6-dimethyl-;1,6-Dimethylpyrimido[5,4-<em>e</em>]-1,2,4-triazine-5,7(1<em>H</em>,6<em>H</em>)-dione;Toxoflavine;Xanthothricin;1,5,6,7-Tetrahydro-1,6-dimethylpyrimidino[5,4-<em>e</em>]triazine-5,7-dione;Toxoflavin;Xanthotricin;NSC 67078;PKF 118-310;SID 4251194;K4394;PKF118-310",
    "duplicated_cas_no": "",
    "SMILES": "O=C1C=2C(N(C)N=CN2)=NC(=O)N1C",
    "meta_data": {
        "InChI": "InChI=1S/C7H7N5O2/c1-11-6(13)4-5(10-7(11)14)12(2)9-3-8-4/h3H,1-2H3",
        "InChIKey": null,
        "Canonical SMILES": "O=C1N=C2C(=NC=NN2C)C(=O)N1C",
        "Molecular Formula": "C<sub>7</sub>H<sub>7</sub>N<sub>5</sub>O<sub>2</sub>",
        "Molecular Mass": "193.16",
        "Melting Point": "165 °C"
    }
}