{
    "cas_no": "18267-36-2",
    "key_name": "Ethyl 3-hydroxy-3-methylbutanoate",
    "cn_name": null,
    "alternate_name": "Butanoic acid, 3-hydroxy-3-methyl-, ethyl ester;Butyric acid, 3-hydroxy-3-methyl-, ethyl ester;Ethyl 3-hydroxy-3-methylbutyrate;Ethyl 3-hydroxy-3-methylbutanoate;Ethyl β-hydroxyisovalerate",
    "duplicated_cas_no": "",
    "SMILES": "C(CC(C)(C)O)(OCC)=O",
    "meta_data": {
        "InChI": "InChI=1S/C7H14O3/c1-4-10-6(8)5-7(2,3)9/h9H,4-5H2,1-3H3",
        "InChIKey": null,
        "Canonical SMILES": "O=C(OCC)CC(O)(C)C",
        "Molecular Formula": "C<sub>7</sub>H<sub>14</sub>O<sub>3</sub>",
        "Molecular Mass": "146.18",
        "Boiling Point": "179-180 °C",
        "Melting Point": "141-142.5 °C",
        "Density": "0.9740 g/cm³ @ Temp: 25 °C"
    }
}