{
    "cas_no": "65816-20-8",
    "key_name": "Ethyl 4-[[(ethylphenylamino)methylene]amino]benzoate",
    "cn_name": "N-(乙氧基羰基苯基)-N\"-乙基-N\"-苯基甲脒;紫外线吸收剂UV-2;",
    "alternate_name": "Benzoic acid, 4-[[(ethylphenylamino)methylene]amino]-, ethyl ester;Ethyl 4-[[(ethylphenylamino)methylene]amino]benzoate;Givsorb UV 2;<em>N</em>-(<em>p</em>-Ethoxycarbonylphenyl)-<em>N</em>′-ethyl-<em>N</em>′-phenylformamidine;<em>N</em>′-(4-Ethoxycarbonylphenyl)-<em>N</em>-ethyl-<em>N</em>-phenylformamidine",
    "duplicated_cas_no": "",
    "SMILES": "N(C=NC1=CC=C(C(OCC)=O)C=C1)(CC)C2=CC=CC=C2",
    "meta_data": {
        "InChI": "InChI=1S/C18H20N2O2/c1-3-20(17-8-6-5-7-9-17)14-19-16-12-10-15(11-13-16)18(21)22-4-2/h5-14H,3-4H2,1-2H3",
        "InChIKey": null,
        "Canonical SMILES": "O=C(OCC)C1=CC=C(N=CN(C=2C=CC=CC2)CC)C=C1",
        "Molecular Formula": "C<sub>18</sub>H<sub>20</sub>N<sub>2</sub>O<sub>2</sub>",
        "Molecular Mass": "296.36",
        "Boiling Point": "225 °C @ Press: 1 Torr"
    }
}