{
    "cas_no": "6777-05-5",
    "key_name": "1-(Phenylmethyl)-2,4-imidazolidinedione",
    "cn_name": "N-苄基海因;",
    "alternate_name": "2,4-Imidazolidinedione, 1-(phenylmethyl)-;Hydantoin, 1-benzyl-;1-(Phenylmethyl)-2,4-imidazolidinedione;1-Benzylhydantoin;1-Benzylimidazolidine-2,4-dione",
    "duplicated_cas_no": "",
    "SMILES": "C(N1C(=O)NC(=O)C1)C2=CC=CC=C2",
    "meta_data": {
        "InChI": "InChI=1S/C10H10N2O2/c13-9-7-12(10(14)11-9)6-8-4-2-1-3-5-8/h1-5H,6-7H2,(H,11,13,14)",
        "InChIKey": null,
        "Canonical SMILES": "O=C1NC(=O)CN1CC=2C=CC=CC2",
        "Molecular Formula": "C<sub>10</sub>H<sub>10</sub>N<sub>2</sub>O<sub>2</sub>",
        "Molecular Mass": "190.20",
        "Melting Point": "252-254 °C"
    }
}