{
    "cas_no": "10535-17-8",
    "key_name": "Adlerol",
    "cn_name": null,
    "alternate_name": "1,3-Propanediol, 1-(3,4-dimethoxyphenyl)-2-(2-methoxyphenoxy)-;1,3-Propanediol, 1-(3,4-dimethoxyphenyl)-2-(<em>o</em>-methoxyphenoxy)-;1-(3,4-Dimethoxyphenyl)-2-(2-methoxyphenoxy)-1,3-propanediol;Veratrylglycerol β-guaiacyl ether;Veratrylglycerol β-(<em>o</em>-methoxyphenyl) ether;3-(4,3-Dimethoxyphenyl)-2-glyceryl 2-methoxyphenyl ether;Veratryglycerol β-guaiacyl ether;Adlerol;2-(2-Methoxyphenoxy)-1-(3,4-dimethoxyphenyl)propane-1,3-diol;3-(3,4-Dimethoxyphenyl)-2-(2-methoxyphenoxy)propane-1,3-diol",
    "duplicated_cas_no": "2035256-56-3",
    "SMILES": "C(C(OC1=C(OC)C=CC=C1)CO)(O)C2=CC(OC)=C(OC)C=C2",
    "meta_data": {
        "InChI": "InChI=1S/C18H22O6/c1-21-13-6-4-5-7-15(13)24-17(11-19)18(20)12-8-9-14(22-2)16(10-12)23-3/h4-10,17-20H,11H2,1-3H3",
        "InChIKey": null,
        "Canonical SMILES": "OCC(OC=1C=CC=CC1OC)C(O)C2=CC=C(OC)C(OC)=C2",
        "Molecular Formula": "C<sub>18</sub>H<sub>22</sub>O<sub>6</sub>",
        "Molecular Mass": "334.36",
        "Melting Point": "97.5-98.5 °C"
    }
}