{
    "cas_no": "16694-18-1",
    "key_name": "4-Bromo-2-thiophenecarboxylic acid",
    "cn_name": "4-溴噻吩-2-甲酸;4-溴-2-噻吩甲酸;",
    "alternate_name": "2-Thiophenecarboxylic acid, 4-bromo-;4-Bromo-2-thiophenecarboxylic acid",
    "duplicated_cas_no": "",
    "SMILES": "C(O)(=O)C1=CC(Br)=CS1",
    "meta_data": {
        "InChI": "InChI=1S/C5H3BrO2S/c6-3-1-4(5(7)8)9-2-3/h1-2H,(H,7,8)",
        "InChIKey": null,
        "Canonical SMILES": "O=C(O)C=1SC=C(Br)C1",
        "Molecular Formula": "C<sub>5</sub>H<sub>3</sub>BrO<sub>2</sub>S",
        "Molecular Mass": "207.05",
        "Melting Point": "113-114 °C"
    }
}