{
    "cas_no": "68109-72-8",
    "key_name": "Ethanamine, <em>N</em>-ethyl-, phosphate (1:1)",
    "cn_name": null,
    "alternate_name": "Ethanamine, <em>N</em>-ethyl-, phosphate (1:1);Diethylammonium dihydrogen phosphate",
    "duplicated_cas_no": "",
    "SMILES": "P(=O)(O)(O)O.N(CC)CC",
    "meta_data": {
        "InChI": "InChI=1S/C4H11N.H3O4P/c1-3-5-4-2;1-5(2,3)4/h5H,3-4H2,1-2H3;(H3,1,2,3,4)",
        "InChIKey": null,
        "Canonical SMILES": "O=P(O)(O)O.N(CC)CC",
        "Molecular Formula": "C<sub>4</sub>H<sub>11</sub>N.H<sub>3</sub>O<sub>4</sub>P",
        "Molecular Mass": "",
        "Boiling Point": "330 °C",
        "Melting Point": "120 °C"
    }
}