{
    "cas_no": "6294-79-7",
    "key_name": "Diallyl isocyanurate",
    "cn_name": null,
    "alternate_name": "1,3,5-Triazine-2,4,6(1<em>H</em>,3<em>H</em>,5<em>H</em>)-trione, 1,3-di-2-propen-1-yl-;<em>s</em>-Triazine-2,4,6(1<em>H</em>,3<em>H</em>,5<em>H</em>)-trione, 1,3-diallyl-;1,3,5-Triazine-2,4,6(1<em>H</em>,3<em>H</em>,5<em>H</em>)-trione, 1,3-di-2-propenyl-;<em>s</em>-Triazine-2,4,6(1<em>H</em>,3<em>H</em>,5<em>H</em>)-trione, diallyl-;1,3-Di-2-propen-1-yl-1,3,5-triazine-2,4,6(1<em>H</em>,3<em>H</em>,5<em>H</em>)-trione;Diallyl isocyanurate;1,3-Diallylisocyanurate;1,3-Diallylisocyanuric acid;NSC 11691;DA-IC;DA-ICA;1,3-Bis(prop-2-enyl)-1,3,5-triazinane-2,4,6-trione;1,3-Bis(prop-2-en-1-yl)-1,3,5-triazinane-2,4,6-trione;1,3-Diallyl-[1,3,5]triazinane-2,4,6-trione;1,3-Diallyl-1,3,5-triazinane-2,4,6-trione",
    "duplicated_cas_no": "131212-86-7;2369021-37-2",
    "SMILES": "C(C=C)N1C(=O)N(CC=C)C(=O)NC1=O",
    "meta_data": {
        "InChI": "InChI=1S/C9H11N3O3/c1-3-5-11-7(13)10-8(14)12(6-4-2)9(11)15/h3-4H,1-2,5-6H2,(H,10,13,14)",
        "InChIKey": null,
        "Canonical SMILES": "O=C1NC(=O)N(C(=O)N1CC=C)CC=C",
        "Molecular Formula": "C<sub>9</sub>H<sub>11</sub>N<sub>3</sub>O<sub>3</sub>",
        "Molecular Mass": "209.20",
        "Melting Point": "143-145 °C"
    }
}