{
    "cas_no": "30950-27-7",
    "key_name": "Perillartine",
    "cn_name": "紫苏葶;(E)-4-(1-甲基乙烯基)环己烯基-1-甲醛肟;",
    "alternate_name": "1-Cyclohexene-1-carboxaldehyde, 4-(1-methylethenyl)-, oxime, [<em>C</em>(<em>E</em>)]-;1-Cyclohexene-1-carboxaldehyde, 4-(1-methylethenyl)-, oxime, (<em>E</em>)-;1-Cyclohexene-1-carboxaldehyde, 4-isopropenyl-, oxime, (<em>E</em>)-;Perillartine;<span class=\"text-smallcaps\">DL</span>-Perillartine;(±)-Perillartine",
    "duplicated_cas_no": "28305-56-8;32638-37-2",
    "SMILES": "C(C)(=C)C1CCC(/C=N/O)=CC1",
    "meta_data": {
        "InChI": "InChI=1/C10H15NO/c1-8(2)10-5-3-9(4-6-10)7-11-12/h3,7,10,12H,1,4-6H2,2H3/b11-7+",
        "InChIKey": null,
        "Canonical SMILES": "ON=CC1=CCC(C(=C)C)CC1",
        "Molecular Formula": "C<sub>10</sub>H<sub>15</sub>NO",
        "Molecular Mass": "165.23",
        "Melting Point": "100-102 °C"
    }
}