{
    "cas_no": "401-79-6",
    "key_name": "1-Methyl-3-(trifluoromethyl)benzene",
    "cn_name": "3-甲基三氟甲苯;",
    "alternate_name": "Benzene, 1-methyl-3-(trifluoromethyl)-;<em>m</em>-Xylene, α,α,α-trifluoro-;1-Methyl-3-(trifluoromethyl)benzene;<em>m</em>-(Trifluoromethyl)toluene;α,α,α-Trifluoro-<em>m</em>-xylene;3-(Trifluoromethyl)toluene;m-(Trifluoromethyl)toluene;1-Methyl-3-trifluoromethylbenzene;3-Methylbenzotrifluoride",
    "duplicated_cas_no": "",
    "SMILES": "C(F)(F)(F)C1=CC(C)=CC=C1",
    "meta_data": {
        "InChI": "InChI=1S/C8H7F3/c1-6-3-2-4-7(5-6)8(9,10)11/h2-5H,1H3",
        "InChIKey": null,
        "Canonical SMILES": "FC(F)(F)C=1C=CC=C(C1)C",
        "Molecular Formula": "C<sub>8</sub>H<sub>7</sub>F<sub>3</sub>",
        "Molecular Mass": "160.14",
        "Boiling Point": "127 °C @ Press: 734 Torr"
    }
}