{
    "cas_no": "64984-31-2",
    "key_name": "2-Phenylethynesulfonamide",
    "cn_name": null,
    "alternate_name": "Ethynesulfonamide, 2-phenyl-;2-Phenylethynesulfonamide;NSC 303580;Pifithrin-μ;2-Phenylacetylenesulfonamide",
    "duplicated_cas_no": "",
    "SMILES": "C(#CS(N)(=O)=O)C1=CC=CC=C1",
    "meta_data": {
        "InChI": "InChI=1S/C8H7NO2S/c9-12(10,11)7-6-8-4-2-1-3-5-8/h1-5H,(H2,9,10,11)",
        "InChIKey": null,
        "Canonical SMILES": "O=S(=O)(C#CC=1C=CC=CC1)N",
        "Molecular Formula": "C<sub>8</sub>H<sub>7</sub>NO<sub>2</sub>S",
        "Molecular Mass": "181.21",
        "Melting Point": "133 °C"
    }
}