{
    "cas_no": "325-13-3",
    "key_name": "6-(Trifluoromethyl)quinoline",
    "cn_name": null,
    "alternate_name": "Quinoline, 6-(trifluoromethyl)-;6-(Trifluoromethyl)quinoline;6-Trifluoromethylquinoline",
    "duplicated_cas_no": "",
    "SMILES": "C(F)(F)(F)C1=CC2=C(C=C1)N=CC=C2",
    "meta_data": {
        "InChI": "InChI=1S/C10H6F3N/c11-10(12,13)8-3-4-9-7(6-8)2-1-5-14-9/h1-6H",
        "InChIKey": null,
        "Canonical SMILES": "FC(F)(F)C1=CC=C2N=CC=CC2=C1",
        "Molecular Formula": "C<sub>10</sub>H<sub>6</sub>F<sub>3</sub>N",
        "Molecular Mass": "197.16",
        "Boiling Point": "224 °C @ Press: 714 Torr",
        "Melting Point": "39 °C"
    }
}