{
    "cas_no": "18858-06-5",
    "key_name": "5-Chloro-2-methylbenzenethiol",
    "cn_name": null,
    "alternate_name": "Benzenethiol, 5-chloro-2-methyl-;<em>o</em>-Toluenethiol, 5-chloro-;5-Chloro-2-methylbenzenethiol;3-Chloro-6-methylbenzenethiol;2-Methyl-5-chlorothiophenol;2-Methyl-5-chlorobenzenethiol;5-Chloro-2-methylthiophenol;5-Chloro-<em>o</em>-thiocresol;NSC 123874;NSC 89851",
    "duplicated_cas_no": "",
    "SMILES": "SC1=C(C)C=CC(Cl)=C1",
    "meta_data": {
        "InChI": "InChI=1S/C7H7ClS/c1-5-2-3-6(8)4-7(5)9/h2-4,9H,1H3",
        "InChIKey": null,
        "Canonical SMILES": "ClC1=CC=C(C(S)=C1)C",
        "Molecular Formula": "C<sub>7</sub>H<sub>7</sub>ClS",
        "Molecular Mass": "158.65",
        "Boiling Point": "114-117 °C @ Press: 17 Torr"
    }
}