{
    "cas_no": "2315-02-8",
    "key_name": "Oxymetazoline hydrochloride",
    "cn_name": "盐酸羟甲唑啉;2-(3-羟基-2,6-二甲基-4-叔丁基苄基)-2-咪唑啉盐酸盐;",
    "alternate_name": "Phenol, 3-[(4,5-dihydro-1<em>H</em>-imidazol-2-yl)methyl]-6-(1,1-dimethylethyl)-2,4-dimethyl-, hydrochloride (1:1);Phenol, 6-<em>tert</em>-butyl-3-(2-imidazolin-2-ylmethyl)-2,4-dimethyl-, monohydrochloride;Phenol, 3-[(4,5-dihydro-1<em>H</em>-imidazol-2-yl)methyl]-6-(1,1-dimethylethyl)-2,4-dimethyl-, monohydrochloride;Phenol, 6-<em>tert</em>-butyl-3-(2-imidazolin-2-ylmethyl)-2,4-dimethyl-, hydrochloride;H 990;Afrin;Afrin hydrochloride;2-(4-<em>tert</em>-Butyl-2,6-dimethyl-3-hydroxybenzyl)-2-imidazolinium chloride;6-<em>tert</em>-Butyl-3-(2-imidazolin-2-ylmethyl)-2,4-dimethylphenol hydrochloride;2,6-Dimethyl-4-tertiarybutyl-3-hydroxyphenyl)methylimidazoline hydrochloride;Nasivin;Oxymetazoline chloride;Oxymetazoline hydrochloride;Duration 12 Hour Nasal Spray;4-Way Nasal Spray;Nostrilla;Neo-Synephrine 12 Hour NTZ;Dristan Long-Lasting Nasal Mist;Allerest 12 Hour Nasal Spray;Ocuclear;Neo-Synephrine 12 Hour;Iliadin;Nafrine;Sch 9384;Afrazine;Oxilin;Duration;4-Way Nasal 12 Hour Spray;Respir",
    "duplicated_cas_no": "",
    "SMILES": "C(C1=C(C)C(O)=C(C(C)(C)C)C=C1C)C=2NCCN2.Cl",
    "meta_data": {
        "InChI": "InChI=1S/C16H24N2O.ClH/c1-10-8-13(16(3,4)5)15(19)11(2)12(10)9-14-17-6-7-18-14;/h8,19H,6-7,9H2,1-5H3,(H,17,18);1H",
        "InChIKey": null,
        "Canonical SMILES": "Cl.OC1=C(C(=C(C=C1C(C)(C)C)C)CC2=NCCN2)C",
        "Molecular Formula": "C<sub>16</sub>H<sub>24</sub>N<sub>2</sub>O.ClH",
        "Molecular Mass": "",
        "Melting Point": "300-303 °C (decomp)"
    }
}