{
    "cas_no": "10025-87-3",
    "key_name": "Phosphorus oxychloride",
    "cn_name": "三氯氧磷;磷酰氯;",
    "alternate_name": "Phosphoric trichloride;Phosphoryl chloride;Phosphorus oxychloride;Phosphorus oxytrichloride;Phosphorus chloride oxide (POCl<sub>3</sub>);Trichlorophosphine oxide;Phosphoryl trichloride;Phosphorus oxide trichloride;Phosphoroxychloride;Trichlorophosphorus oxide;Phosphoric chloride;Phosphorus trichloride oxide;Phosphoroxytrichloride;Phosphorus chloride oxide (PCl<sub>3</sub>O);Phosphorus monoxide trichloride;Phosphonyl trichloride;Phosphorous chloride oxide (POCl<sub>3</sub>)",
    "duplicated_cas_no": "39380-77-3;1258871-72-5",
    "SMILES": "P(Cl)(Cl)(Cl)=O",
    "meta_data": {
        "InChI": "InChI=1S/Cl3OP/c1-5(2,3)4",
        "InChIKey": null,
        "Canonical SMILES": "O=P(Cl)(Cl)Cl",
        "Molecular Formula": "Cl<sub>3</sub>OP",
        "Molecular Mass": "153.33",
        "Boiling Point": "105.8 °C",
        "Melting Point": "1.25 °C",
        "Density": "1.645 g/cm³ @ Temp: 25 °C"
    }
}