{
    "cas_no": "63675-72-9",
    "key_name": "Nisoldipine",
    "cn_name": null,
    "alternate_name": "3,5-Pyridinedicarboxylic acid, 1,4-dihydro-2,6-dimethyl-4-(2-nitrophenyl)-, 3-methyl 5-(2-methylpropyl) ester;3,5-Pyridinedicarboxylic acid, 1,4-dihydro-2,6-dimethyl-4-(2-nitrophenyl)-, methyl 2-methylpropyl ester;BAY-k 5552;Nisoldipine;(±)-Nisoldipine;(±)-BAY k 5552;Nisoldipin;Sular;Zadipina;Syscor;Nisocor;Baymycard;Geomatrix 16E;3-Methyl 5-(2-methylpropyl) 2,6-dimethyl-4-(2-nitrophenyl)-1,4-dihydropyridine-3,5-dicarboxylate;3-<em>O</em>-Methyl 5-<em>O</em>-(2-methylpropyl) 2,6-dimethyl-4-(2-nitrophenyl)-1,4-dihydropyridine-3,5-dicarboxylate;MeSH ID: D015737",
    "duplicated_cas_no": "86189-67-5",
    "SMILES": "C(OCC(C)C)(=O)C=1C(C(C(OC)=O)=C(C)NC1C)C2=C(N(=O)=O)C=CC=C2",
    "meta_data": {
        "InChI": "InChI=1S/C20H24N2O6/c1-11(2)10-28-20(24)17-13(4)21-12(3)16(19(23)27-5)18(17)14-8-6-7-9-15(14)22(25)26/h6-9,11,18,21H,10H2,1-5H3",
        "InChIKey": null,
        "Canonical SMILES": "O=C(OC)C1=C(NC(=C(C(=O)OCC(C)C)C1C=2C=CC=CC2N(=O)=O)C)C",
        "Molecular Formula": "C<sub>20</sub>H<sub>24</sub>N<sub>2</sub>O<sub>6</sub>",
        "Molecular Mass": "388.41",
        "Melting Point": "151-152 °C"
    }
}