{
    "cas_no": "1855-63-6",
    "key_name": "1-Cyclohexene-1-carbonitrile",
    "cn_name": "环己烯-1-甲腈;环己烯-1-甲腈;环己烯-1-腈;环己烯-1-腈,98%;",
    "alternate_name": "1-Cyclohexene-1-carbonitrile;1-Cyanocyclohexene;1-Cyclohexenyl cyanide;1-Cyano-1-cyclohexene;NSC 177484;1-Cyclohexenecarbonitrile",
    "duplicated_cas_no": "",
    "SMILES": "C(#N)C=1CCCCC1",
    "meta_data": {
        "InChI": "InChI=1S/C7H9N/c8-6-7-4-2-1-3-5-7/h4H,1-3,5H2",
        "InChIKey": null,
        "Canonical SMILES": "N#CC1=CCCCC1",
        "Molecular Formula": "C<sub>7</sub>H<sub>9</sub>N",
        "Molecular Mass": "107.15",
        "Boiling Point": "77-87 °C @ Press: 12 Torr",
        "Density": "0.94725 g/cm³ @ Temp: 20 °C"
    }
}