{
    "cas_no": "7789-39-1",
    "key_name": "Rubidium bromide",
    "cn_name": null,
    "alternate_name": "Rubidium bromide (RbBr);Rubidium bromide;Rubidium monobromide",
    "duplicated_cas_no": "59217-64-0",
    "SMILES": "Br[Rb]",
    "meta_data": {
        "InChI": "InChI=1S/BrH.Rb/h1H;/q;+1/p-1",
        "InChIKey": null,
        "Canonical SMILES": "Br[Rb]",
        "Molecular Formula": "BrRb",
        "Molecular Mass": "",
        "Melting Point": "692 °C",
        "Density": "3.350 g/cm³ @ Temp: 966 °C"
    }
}