{
    "cas_no": "5424-19-1",
    "key_name": "Phenyl-3-pyridinylmethanone",
    "cn_name": "3-苯甲酰基吡啶;",
    "alternate_name": "Methanone, phenyl-3-pyridinyl-;Ketone, phenyl 3-pyridyl;Phenyl-3-pyridinylmethanone;3-Benzoylpyridine;Phenyl 3-pyridyl ketone;3-Pyridyl phenyl ketone;NSC 13190;Phenyl(3-pyridinyl)methanone",
    "duplicated_cas_no": "",
    "SMILES": "C(=O)(C1=CC=CC=C1)C=2C=CC=NC2",
    "meta_data": {
        "InChI": "InChI=1S/C12H9NO/c14-12(10-5-2-1-3-6-10)11-7-4-8-13-9-11/h1-9H",
        "InChIKey": null,
        "Canonical SMILES": "O=C(C=1C=NC=CC1)C=2C=CC=CC2",
        "Molecular Formula": "C<sub>12</sub>H<sub>9</sub>NO",
        "Molecular Mass": "183.21",
        "Boiling Point": "307 °C",
        "Melting Point": "36-40 °C"
    }
}