{
    "cas_no": "17700-09-3",
    "key_name": "2,3,4-Trichloronitrobenzene",
    "cn_name": "2,3,4-三氯硝基苯;",
    "alternate_name": "Benzene, 1,2,3-trichloro-4-nitro-;1,2,3-Trichloro-4-nitrobenzene;2,3,4-Trichloro-1-nitrobenzene;2,3,4-Trichloronitrobenzene;NSC 91490",
    "duplicated_cas_no": "",
    "SMILES": "N(=O)(=O)C1=C(Cl)C(Cl)=C(Cl)C=C1",
    "meta_data": {
        "InChI": "InChI=1S/C6H2Cl3NO2/c7-3-1-2-4(10(11)12)6(9)5(3)8/h1-2H",
        "InChIKey": null,
        "Canonical SMILES": "O=N(=O)C1=CC=C(Cl)C(Cl)=C1Cl",
        "Molecular Formula": "C<sub>6</sub>H<sub>2</sub>Cl<sub>3</sub>NO<sub>2</sub>",
        "Molecular Mass": "226.44",
        "Melting Point": "55-56 °C"
    }
}