{
    "cas_no": "18132-72-4",
    "key_name": "1,3-Bis(3-chloropropyl)-1,1,3,3-tetramethyldisiloxane",
    "cn_name": "1,3-二(3-氯丙基)-1,1,3,3-四甲基二硅氧烷;",
    "alternate_name": "Disiloxane, 1,3-bis(3-chloropropyl)-1,1,3,3-tetramethyl-;1,3-Bis(3-chloropropyl)-1,1,3,3-tetramethyldisiloxane;1,1,3,3-Tetramethyl-1,3-bis(3-chloropropyl)disiloxane;1,1,3,3-Tetramethyl-1,3-di(3-chloropropyl)disiloxane;3-Chloropropyl-[3-chloropropyl(dimethyl)silyl]oxy-dimethylsilane",
    "duplicated_cas_no": "",
    "SMILES": "[Si](O[Si](CCCCl)(C)C)(CCCCl)(C)C",
    "meta_data": {
        "InChI": "InChI=1S/C10H24Cl2OSi2/c1-14(2,9-5-7-11)13-15(3,4)10-6-8-12/h5-10H2,1-4H3",
        "InChIKey": null,
        "Canonical SMILES": "ClCCC[Si](O[Si](C)(C)CCCCl)(C)C",
        "Molecular Formula": "C<sub>10</sub>H<sub>24</sub>Cl<sub>2</sub>OSi<sub>2</sub>",
        "Molecular Mass": "287.37",
        "Boiling Point": "128 °C @ Press: 7 Torr",
        "Density": "0.996 g/cm³ @ Temp: 25 °C"
    }
}