{
    "cas_no": "584-13-4",
    "key_name": "4-Amino-1,2,4-triazole",
    "cn_name": "4-氨基-1,2,4-三氮唑;4-氨基-1,2,4-三唑;",
    "alternate_name": "4<em>H</em>-1,2,4-Triazol-4-amine;4<em>H</em>-1,2,4-Triazole, 4-amino-;4-Amino-1,2,4-triazole;4-Amino-1,2,4(4<em>H</em>)-triazole;4-Amino-4<em>H</em>-1,2,4-triazole;1-Amino-1<em>H</em>-1,3,4-triazole;1-Amino-1,3,4-triazole;1,2,4-Triazol-4-amine;1,2,4-Triazol-4-ylamine;1,2,4-Triazole-4-amine;NSC 3263;NSC 7242;A 1137",
    "duplicated_cas_no": "",
    "SMILES": "NN1C=NN=C1",
    "meta_data": {
        "InChI": "InChI=1S/C2H4N4/c3-6-1-4-5-2-6/h1-2H,3H2",
        "InChIKey": null,
        "Canonical SMILES": "N=1N=CN(N)C1",
        "Molecular Formula": "C<sub>2</sub>H<sub>4</sub>N<sub>4</sub>",
        "Molecular Mass": "84.08",
        "Melting Point": "81 °C"
    }
}