{
    "cas_no": "75-46-7",
    "key_name": "Trifluoromethane",
    "cn_name": "三氟甲烷;氟仿;",
    "alternate_name": "Methane, trifluoro-;Trifluoromethane;Arcton 1;Carbon trifluoride;Fluoroform;Freon 23;Genetron 23;R 23 (halocarbon);Methyl trifluoride;Fluoryl;R 23;FC 23;FC 23 (fluorocarbon);Fron 23;Trifluoromethane (CHF<sub>3</sub>);HFC 23;HCFC 23;Ecolo Ace 23;FE 13",
    "duplicated_cas_no": "185009-29-4",
    "SMILES": "C(F)(F)F",
    "meta_data": {
        "InChI": "InChI=1S/CHF3/c2-1(3)4/h1H",
        "InChIKey": null,
        "Canonical SMILES": "FC(F)F",
        "Molecular Formula": "CHF<sub>3</sub>",
        "Molecular Mass": "70.01",
        "Boiling Point": "-84.4 °C",
        "Melting Point": "-160 °C",
        "Density": "1.44 g/cm³"
    }
}