{
    "cas_no": "64536-78-3",
    "key_name": "Iridium(1+), [(1,2,5,6-η)-1,5-cyclooctadiene](pyridine)(tricyclohexylphosphine)-, hexafluorophosphate(1-) (1:1)",
    "cn_name": null,
    "alternate_name": "Iridium(1+), [(1,2,5,6-η)-1,5-cyclooctadiene](pyridine)(tricyclohexylphosphine)-, hexafluorophosphate(1-) (1:1);Iridium(1+), [(1,2,5,6-η)-1,5-cyclooctadiene](pyridine)(tricyclohexylphosphine)-, hexafluorophosphate(1-);1,5-Cyclooctadiene, iridium complex;Phosphine, tricyclohexyl-, iridium complex;Phosphate(1-), hexafluoro-, [(1,2,5,6-η)-1,5-cyclooctadiene](pyridine)(tricyclohexylphosphine)iridium(1+);Felkin-Crabtree catalyst;(η<sup>4</sup>-1,5-Cyclooctadiene)(pyridine)(tricyclohexylphosphine)iridium(I) hexafluorophosphate;(1,5-Cyclooctadiene)pyridine(tricyclohexylphosphine)iridium hexafluorophosphate;Crabtree's catalyst;[(1,2,5,6-η)-1,5-Cyclooctadiene](pyridine)(tricyclohexylphosphine)iridium(1+) hexafluorophosphate(1-);(1,5-Cyclooctadiene)(pyridine)(tricyclohexylphosphine)iridium(1+) hexafluorophosphate;(1,5-Cyclohexadiene)pyridine(tricyclohexylphosphine)iridium hexafluorophosphate",
    "duplicated_cas_no": "",
    "SMILES": "[P]([Ir+]123([CH]4=[CH]1CC[CH]2=[CH]3CC4)[N]=5C=CC=CC5)(C6CCCCC6)(C7CCCCC7)C8CCCCC8.[P+5]([F-])([F-])([F-])([F-])([F-])[F-]",
    "meta_data": {
        "InChI": "InChI=1S/C18H33P.C8H12.C5H5N.F6P.Ir/c1-4-10-16(11-5-1)19(17-12-6-2-7-13-17)18-14-8-3-9-15-18;1-2-4-6-8-7-5-3-1;1-2-4-6-5-3-1;1-7(2,3,4,5)6;/h16-18H,1-15H2;1-2,7-8H,3-6H2;1-5H;;/q;;;-1;+1",
        "InChIKey": null,
        "Canonical SMILES": "[F-][P+5]([F-])([F-])([F-])([F-])[F-].C=1C=C[N](=CC1)[Ir+]234([CH]=5CC[CH]4=[CH]3CC[CH]52)[P](C6CCCCC6)(C7CCCCC7)C8CCCCC8",
        "Molecular Formula": "C<sub>31</sub>H<sub>50</sub>IrNP.F<sub>6</sub>P",
        "Molecular Mass": "",
        "Melting Point": "173-175 °C"
    }
}