{
    "cas_no": "2439-77-2",
    "key_name": "2-Methoxybenzamide",
    "cn_name": "2-甲氧基苯甲酰胺;",
    "alternate_name": "Benzamide, 2-methoxy-;<em>o</em>-Anisamide;Benzamide, <em>o</em>-methoxy-;2-Methoxybenzamide;<em>o</em>-Methoxybenzamide;Orthopramide;NSC 84232",
    "duplicated_cas_no": "",
    "SMILES": "O(C)C1=C(C(N)=O)C=CC=C1",
    "meta_data": {
        "InChI": "InChI=1S/C8H9NO2/c1-11-7-5-3-2-4-6(7)8(9)10/h2-5H,1H3,(H2,9,10)",
        "InChIKey": null,
        "Canonical SMILES": "O=C(N)C=1C=CC=CC1OC",
        "Molecular Formula": "C<sub>8</sub>H<sub>9</sub>NO<sub>2</sub>",
        "Molecular Mass": "151.16",
        "Boiling Point": "147-149 °C @ Press: 24 Torr",
        "Melting Point": "127.5 °C",
        "Density": "1.14 g/cm³"
    }
}