{
    "cas_no": "75-60-5",
    "key_name": "Dimethylarsinic acid",
    "cn_name": "二甲次胂酸;卡可基酸;",
    "alternate_name": "Arsinic acid, <em>As</em>,<em>As</em>-dimethyl-;Cacodylic acid;Arsine oxide, hydroxydimethyl-;Arsinic acid, dimethyl-;<em>As</em>,<em>As</em>-Dimethylarsinic acid;Ansar 138;Arsan;Dimethylarsinic acid;Hydroxydimethylarsine oxide;Silvisar 510;Dimethylarsenic acid;Sylvicor;Phytar;NSC 103115;NSC 71157;NSC 71158",
    "duplicated_cas_no": "8073-10-7;11126-73-1;58114-73-1",
    "SMILES": "[As](C)(C)(=O)O",
    "meta_data": {
        "InChI": "InChI=1S/C2H7AsO2/c1-3(2,4)5/h1-2H3,(H,4,5)",
        "InChIKey": null,
        "Canonical SMILES": "O=[As](O)(C)C",
        "Molecular Formula": "C<sub>2</sub>H<sub>7</sub>AsO<sub>2</sub>",
        "Molecular Mass": "138.00",
        "Boiling Point": "&gt;200 °C",
        "Melting Point": "195 °C"
    }
}