{
    "cas_no": "2903-34-6",
    "key_name": "<em>N</em>-(4-Chlorophenyl)-4-methylbenzenesulfonamide",
    "cn_name": "N-(4-Chlorophenyl)-p-toluenesulfonamide;",
    "alternate_name": "Benzenesulfonamide, <em>N</em>-(4-chlorophenyl)-4-methyl-;<em>p</em>-Toluenesulfonanilide, 4′-chloro-;<em>N</em>-(4-Chlorophenyl)-4-methylbenzenesulfonamide;<em>N</em>-Tosyl-<em>p</em>-chloroaniline;NSC 74681;<em>N</em>-(4-Chlorophenyl)-<em>p</em>-toluenesulfonamide;4-Methylbenzenesulfonamido-N-(4-chlorobenzene)",
    "duplicated_cas_no": "",
    "SMILES": "S(NC1=CC=C(Cl)C=C1)(=O)(=O)C2=CC=C(C)C=C2",
    "meta_data": {
        "InChI": "InChI=1S/C13H12ClNO2S/c1-10-2-8-13(9-3-10)18(16,17)15-12-6-4-11(14)5-7-12/h2-9,15H,1H3",
        "InChIKey": null,
        "Canonical SMILES": "O=S(=O)(NC1=CC=C(Cl)C=C1)C2=CC=C(C=C2)C",
        "Molecular Formula": "C<sub>13</sub>H<sub>12</sub>ClNO<sub>2</sub>S",
        "Molecular Mass": "281.76",
        "Melting Point": "118-119 °C"
    }
}