{
    "cas_no": "172595-67-4",
    "key_name": "1<em>H</em>-Indole-3-carboxylic acid, 5-chloro-, methyl ester",
    "cn_name": null,
    "alternate_name": "1<em>H</em>-Indole-3-carboxylic acid, 5-chloro-, methyl ester;5-Chloro-3-methoxycarbonyl-1<em>H</em>-indole;Methyl 5-chloro-1<em>H</em>-indole-3-carboxylate",
    "duplicated_cas_no": "",
    "SMILES": "C(OC)(=O)C=1C=2C(NC1)=CC=C(Cl)C2",
    "meta_data": {
        "InChI": "InChI=1S/C10H8ClNO2/c1-14-10(13)8-5-12-9-3-2-6(11)4-7(8)9/h2-5,12H,1H3",
        "InChIKey": null,
        "Canonical SMILES": "O=C(OC)C1=CNC=2C=CC(Cl)=CC21",
        "Molecular Formula": "C<sub>10</sub>H<sub>8</sub>ClNO<sub>2</sub>",
        "Molecular Mass": "209.63",
        "Melting Point": "196-198 °C"
    }
}