{
    "cas_no": "432-25-7",
    "key_name": "β-Cyclocitral",
    "cn_name": "2,6,6-三甲基-1-环己烯-1-羧醛;&beta;-环柠檬醛;",
    "alternate_name": "1-Cyclohexene-1-carboxaldehyde, 2,6,6-trimethyl-;2,6,6-Trimethyl-1-cyclohexene-1-carboxaldehyde;β-Cyclocitral;1-Formyl-2,6,6-trimethyl-1-cyclohexene;2,6,6-Trimethyl-1-cyclohexenecarboxaldehyde;2,6,6-Trimethylcyclohexene-1-carbaldehyde",
    "duplicated_cas_no": "",
    "SMILES": "C(=O)C=1C(C)(C)CCCC1C",
    "meta_data": {
        "InChI": "InChI=1S/C10H16O/c1-8-5-4-6-10(2,3)9(8)7-11/h7H,4-6H2,1-3H3",
        "InChIKey": null,
        "Canonical SMILES": "O=CC1=C(C)CCCC1(C)C",
        "Molecular Formula": "C<sub>10</sub>H<sub>16</sub>O",
        "Molecular Mass": "152.23",
        "Boiling Point": "90-92 °C @ Press: 10 Torr",
        "Density": "0.952 g/cm³ @ Temp: 15 °C"
    }
}