{
    "cas_no": "3641-14-3",
    "key_name": "Methyl 5-amino-1<em>H</em>-1,2,4-triazole-3-carboxylate",
    "cn_name": "5-氨基-1H-1,2,4-三氮唑-3-羧酸甲酯;",
    "alternate_name": "1<em>H</em>-1,2,4-Triazole-3-carboxylic acid, 5-amino-, methyl ester;<em>s</em>-Triazole-3-carboxylic acid, 5-amino-, methyl ester;3-Amino-5-(methoxycarbonyl)-1,2,4-triazole;Methyl 5-amino-1<em>H</em>-1,2,4-triazole-3-carboxylate;NSC 139097;5-Amino-1<em>H</em>-[1,2,4]triazole-3-carboxylic acid methyl ester;3-Amino-1,2,4-triazole-5-carboxylic acid methyl ester",
    "duplicated_cas_no": "",
    "SMILES": "C(OC)(=O)C=1NC(N)=NN1",
    "meta_data": {
        "InChI": "InChI=1S/C4H6N4O2/c1-10-3(9)2-6-4(5)8-7-2/h1H3,(H3,5,6,7,8)",
        "InChIKey": null,
        "Canonical SMILES": "O=C(OC)C1=NN=C(N)N1",
        "Molecular Formula": "C<sub>4</sub>H<sub>6</sub>N<sub>4</sub>O<sub>2</sub>",
        "Molecular Mass": "142.12",
        "Melting Point": "220 °C (decomp)"
    }
}