{
    "cas_no": "147-71-7",
    "key_name": "<span class=\"text-smallcaps\">D</span>-Tartaric acid",
    "cn_name": "D-酒石酸;D-2,3-二羟基丁二酸;",
    "alternate_name": "Butanedioic acid, 2,3-dihydroxy-, (2<em>S</em>,3<em>S</em>)-;Tartaric acid, <span class=\"text-smallcaps\">D</span>-(-)-;Butanedioic acid, 2,3-dihydroxy-, [<em>S</em>-(<em>R</em>*,<em>R</em>*)]-;(2<em>S</em>,3<em>S</em>)-2,3-Dihydroxybutanedioic acid;(-)-Tartaric acid;<span class=\"text-smallcaps\">D</span>-(-)-Tartaric acid;(<em>S</em>,<em>S</em>)-Tartaric acid;(2<em>S</em>,3<em>S</em>)-(-)-Tartaric acid;<em>l</em>-Tartaric acid;(<em>S</em>,<em>S</em>)-(-)-Tartaric acid;(2<em>S</em>,3<em>S</em>)-Tartaric acid;<span class=\"text-smallcaps\">D</span>-Tartaric acid;<em>levo</em>-Tartaric acid;(2<em>S</em>,3<em>S</em>)-2,3-Dihydroxysuccinic acid;(2S,3S)-Tartaric acid",
    "duplicated_cas_no": "1150316-16-7",
    "SMILES": "[C@H]([C@@H](C(O)=O)O)(C(O)=O)O",
    "meta_data": {
        "InChI": "InChI=1S/C4H6O6/c5-1(3(7)8)2(6)4(9)10/h1-2,5-6H,(H,7,8)(H,9,10)/t1-,2-/m0/s1",
        "InChIKey": null,
        "Canonical SMILES": "O=C(O)C(O)C(O)C(=O)O",
        "Molecular Formula": "C<sub>4</sub>H<sub>6</sub>O<sub>6</sub>",
        "Molecular Mass": "150.09",
        "Melting Point": "172.5 °C"
    }
}