{
    "cas_no": "1229208-44-9",
    "key_name": "Entospletinib",
    "cn_name": null,
    "alternate_name": "Imidazo[1,2-<em>a</em>]pyrazin-8-amine, 6-(1<em>H</em>-indazol-6-yl)-<em>N</em>-[4-(4-morpholinyl)phenyl]-;6-(1<em>H</em>-Indazol-6-yl)-<em>N</em>-[4-(4-morpholinyl)phenyl]imidazo[1,2-<em>a</em>]pyrazin-8-amine;GS 9973;Entospletinib",
    "duplicated_cas_no": "",
    "SMILES": "N(C=1C=2N(C=C(N1)C=3C=C4C(=CC3)C=NN4)C=CN2)C5=CC=C(C=C5)N6CCOCC6",
    "meta_data": {
        "InChI": "InChI=1S/C23H21N7O/c1-2-17-14-25-28-20(17)13-16(1)21-15-30-8-7-24-23(30)22(27-21)26-18-3-5-19(6-4-18)29-9-11-31-12-10-29/h1-8,13-15H,9-12H2,(H,25,28)(H,26,27)",
        "InChIKey": null,
        "Canonical SMILES": "N1=CC=2C=CC(=CC2N1)C=3N=C(NC4=CC=C(C=C4)N5CCOCC5)C6=NC=CN6C3",
        "Molecular Formula": "C<sub>23</sub>H<sub>21</sub>N<sub>7</sub>O",
        "Molecular Mass": "411.46",
        "Melting Point": "&gt;250 °C"
    }
}