{
    "cas_no": "616-16-0",
    "key_name": "(+)-2-Methyl-1-butanol",
    "cn_name": "(R)-2-甲基丁醇;",
    "alternate_name": "1-Butanol, 2-methyl-, (2<em>R</em>)-;1-Butanol, 2-methyl-, (<em>R</em>)-(+)-;1-Butanol, 2-methyl-, (<em>R</em>)-;1-Butanol, 2-methyl-, <em>d</em>-;(2<em>R</em>)-2-Methyl-1-butanol;(<em>R</em>)-2-Methyl-1-butanol;(<em>R</em>)-(+)-2-Methyl-1-butanol;(+)-2-Methyl-1-butanol;(R)-2-Methyl-1-butanol;(+)-2-Methylbutanol;(R)-2-Methylbutanol;((R)-2-Methylbutan-1-ol",
    "duplicated_cas_no": "",
    "SMILES": "[C@@H](CC)(CO)C",
    "meta_data": {
        "InChI": "InChI=1S/C5H12O/c1-3-5(2)4-6/h5-6H,3-4H2,1-2H3/t5-/m1/s1",
        "InChIKey": null,
        "Canonical SMILES": "OCC(C)CC",
        "Molecular Formula": "C<sub>5</sub>H<sub>12</sub>O",
        "Molecular Mass": "88.15",
        "Boiling Point": "129-130 °C",
        "Density": "0.826 g/cm³ @ Temp: 20 °C"
    }
}