{
    "cas_no": "81732-48-1",
    "key_name": "<em>C</em>,<em>C</em>′-(5-Acetyl-1,3-phenylene) bis(<em>N</em>,<em>N</em>-dimethylcarbamate)",
    "cn_name": null,
    "alternate_name": "Carbamic acid, <em>N</em>,<em>N</em>-dimethyl-, <em>C</em>,<em>C</em>′-(5-acetyl-1,3-phenylene) ester;Carbamic acid, dimethyl-, 5-acetyl-1,3-phenylene ester;<em>C</em>,<em>C</em>′-(5-Acetyl-1,3-phenylene) bis(<em>N</em>,<em>N</em>-dimethylcarbamate)",
    "duplicated_cas_no": "",
    "SMILES": "O(C(N(C)C)=O)C1=CC(OC(N(C)C)=O)=CC(C(C)=O)=C1",
    "meta_data": {
        "InChI": "InChI=1S/C14H18N2O5/c1-9(17)10-6-11(20-13(18)15(2)3)8-12(7-10)21-14(19)16(4)5/h6-8H,1-5H3",
        "InChIKey": null,
        "Canonical SMILES": "O=C(OC=1C=C(OC(=O)N(C)C)C=C(C1)C(=O)C)N(C)C",
        "Molecular Formula": "C<sub>14</sub>H<sub>18</sub>N<sub>2</sub>O<sub>5</sub>",
        "Molecular Mass": "294.30",
        "Melting Point": "58-60 °C"
    }
}