{
    "cas_no": "18301-56-9",
    "key_name": "3-(Dichloromethylsilyl)propyl 2-methyl-2-propenoate",
    "cn_name": null,
    "alternate_name": "2-Propenoic acid, 2-methyl-, 3-(dichloromethylsilyl)propyl ester;Methacrylic acid, 3-(dichloromethylsilyl)propyl ester;3-(Dichloromethylsilyl)propyl 2-methyl-2-propenoate;(γ-Methacryloxypropyl)methyldichlorosilane;(3-Methacryloyloxypropyl)methyldichlorosilane;KL 502;3-(Dichloromethylsilyl)propyl methacrylate;(3-Methacryloxypropyl)methyldichlorosilane;Dichloro[3-(methacryloyloxy)propyl]methylsilane;[γ-(Methacryloxy)propyl]dichloromethylsilane;Methyldichloro(3-methacryloxypropyl)silane",
    "duplicated_cas_no": "",
    "SMILES": "O(CCC[Si](C)(Cl)Cl)C(C(C)=C)=O",
    "meta_data": {
        "InChI": "InChI=1S/C8H14Cl2O2Si/c1-7(2)8(11)12-5-4-6-13(3,9)10/h1,4-6H2,2-3H3",
        "InChIKey": null,
        "Canonical SMILES": "O=C(OCCC[Si](Cl)(Cl)C)C(=C)C",
        "Molecular Formula": "C<sub>8</sub>H<sub>14</sub>Cl<sub>2</sub>O<sub>2</sub>Si",
        "Molecular Mass": "241.19",
        "Boiling Point": "75 °C @ Press: 2 Torr",
        "Density": "1.108 g/cm³ @ Temp: 25 °C"
    }
}