{
    "cas_no": "626-41-5",
    "key_name": "3,5-Dibromophenol",
    "cn_name": "3,5-二溴苯酚;",
    "alternate_name": "Phenol, 3,5-dibromo-;3,5-Dibromophenol;1-Hydroxy-3,5-Dibromobenzene",
    "duplicated_cas_no": "",
    "SMILES": "BrC1=CC(Br)=CC(O)=C1",
    "meta_data": {
        "InChI": "InChI=1S/C6H4Br2O/c7-4-1-5(8)3-6(9)2-4/h1-3,9H",
        "InChIKey": null,
        "Canonical SMILES": "BrC=1C=C(Br)C=C(O)C1",
        "Molecular Formula": "C<sub>6</sub>H<sub>4</sub>Br<sub>2</sub>O",
        "Molecular Mass": "251.90",
        "Boiling Point": "274 °C",
        "Melting Point": "81 °C"
    }
}