{
    "cas_no": "7440-09-7",
    "key_name": "Potassium",
    "cn_name": "钾;金属钾;",
    "alternate_name": "Potassium;K element;Atomic potassium;Potassium hyperkalemia;MeSH ID: D011188",
    "duplicated_cas_no": "31079-13-7",
    "SMILES": "[K]",
    "meta_data": {
        "InChI": "InChI=1S/K",
        "InChIKey": null,
        "Canonical SMILES": "[K]",
        "Molecular Formula": "K",
        "Molecular Mass": "",
        "Boiling Point": "765.5 °C",
        "Melting Point": "63.2 °C",
        "Density": "0.856 g/cm³ @ Temp: 20 °C"
    }
}