{
    "cas_no": "957-56-2",
    "key_name": "Fluindione",
    "cn_name": null,
    "alternate_name": "1<em>H</em>-Indene-1,3(2<em>H</em>)-dione, 2-(4-fluorophenyl)-;1,3-Indandione, 2-(<em>p</em>-fluorophenyl)-;2-(4-Fluorophenyl)-1<em>H</em>-indene-1,3(2<em>H</em>)-dione;Previscan;2-(<em>p</em>-Fluorophenyl)-1,3-indandione;LM 123;Fluindione",
    "duplicated_cas_no": "",
    "SMILES": "O=C1C(C(=O)C=2C1=CC=CC2)C3=CC=C(F)C=C3",
    "meta_data": {
        "InChI": "InChI=1S/C15H9FO2/c16-10-7-5-9(6-8-10)13-14(17)11-3-1-2-4-12(11)15(13)18/h1-8,13H",
        "InChIKey": null,
        "Canonical SMILES": "O=C1C=2C=CC=CC2C(=O)C1C3=CC=C(F)C=C3",
        "Molecular Formula": "C<sub>15</sub>H<sub>9</sub>FO<sub>2</sub>",
        "Molecular Mass": "240.23",
        "Melting Point": "120 °C"
    }
}