{
    "cas_no": "5022-29-7",
    "key_name": "2-Ethyl-1<em>H</em>-isoindole-1,3(2<em>H</em>)-dione",
    "cn_name": "2-乙基-1H-异吲哚-1,3(2H)-二酮;",
    "alternate_name": "1<em>H</em>-Isoindole-1,3(2<em>H</em>)-dione, 2-ethyl-;Phthalimide, <em>N</em>-ethyl-;2-Ethyl-1<em>H</em>-isoindole-1,3(2<em>H</em>)-dione;<em>N</em>-Ethylphthalimide;NSC 2774;2-Ethylisoindoline-1,3-dione;2-Ethyl-2,3-dihydro-1<em>H</em>-isoindole-1,3-dione;2-Ethylisoindole-1,3-dione",
    "duplicated_cas_no": "",
    "SMILES": "O=C1C=2C(C(=O)N1CC)=CC=CC2",
    "meta_data": {
        "InChI": "InChI=1S/C10H9NO2/c1-2-11-9(12)7-5-3-4-6-8(7)10(11)13/h3-6H,2H2,1H3",
        "InChIKey": null,
        "Canonical SMILES": "O=C1C=2C=CC=CC2C(=O)N1CC",
        "Molecular Formula": "C<sub>10</sub>H<sub>9</sub>NO<sub>2</sub>",
        "Molecular Mass": "175.18",
        "Boiling Point": "285.5 °C",
        "Melting Point": "79 °C"
    }
}