{
    "cas_no": "327-52-6",
    "key_name": "1-Bromo-2,4,5-trifluorobenzene",
    "cn_name": "2,4,5-三氟溴苯;",
    "alternate_name": "Benzene, 1-bromo-2,4,5-trifluoro-;1-Bromo-2,4,5-trifluorobenzene;2-Bromo-1,4,5-trifluorobenzene;2,4,5-Trifluorophenyl bromide;2,4,5-Trifluorobromobenzene",
    "duplicated_cas_no": "",
    "SMILES": "BrC1=C(F)C=C(F)C(F)=C1",
    "meta_data": {
        "InChI": "InChI=1S/C6H2BrF3/c7-3-1-5(9)6(10)2-4(3)8/h1-2H",
        "InChIKey": null,
        "Canonical SMILES": "FC=1C=C(F)C(Br)=CC1F",
        "Molecular Formula": "C<sub>6</sub>H<sub>2</sub>BrF<sub>3</sub>",
        "Molecular Mass": "210.98",
        "Boiling Point": "144 °C",
        "Melting Point": "~-19 °C (approx)",
        "Density": "1.8022 g/cm³ @ Temp: 20 °C"
    }
}