{
    "cas_no": "487-19-4",
    "key_name": "Nicotyrine",
    "cn_name": "二烯烟碱,尼可他因;二烯烟碱,尼可他因;",
    "alternate_name": "Pyridine, 3-(1-methyl-1<em>H</em>-pyrrol-2-yl)-;Pyridine, 3-(1-methylpyrrol-2-yl)-;Nicotyrine;3-(1-Methyl-1<em>H</em>-pyrrol-2-yl)pyridine;β-Nicotyrine;3-(1-Methyl-2-pyrrolyl)pyridine;3,2′-Nicotyrine;1-Methyl-2-(3-pyridyl)pyrrole;NSC 127943;NSC 407276",
    "duplicated_cas_no": "30813-25-3",
    "SMILES": "CN1C(=CC=C1)C=2C=CC=NC2",
    "meta_data": {
        "InChI": "InChI=1S/C10H10N2/c1-12-7-3-5-10(12)9-4-2-6-11-8-9/h2-8H,1H3",
        "InChIKey": null,
        "Canonical SMILES": "N=1C=CC=C(C1)C2=CC=CN2C",
        "Molecular Formula": "C<sub>10</sub>H<sub>10</sub>N<sub>2</sub>",
        "Molecular Mass": "158.20",
        "Boiling Point": "281 °C",
        "Melting Point": "168-169 °C"
    }
}