{
    "cas_no": "2455-14-3",
    "key_name": "4-[3,5-Bis(1,1-dimethylethyl)-4-oxo-2,5-cyclohexadien-1-ylidene]-2,6-bis(1,1-dimethylethyl)-2,5-cyclohexadien-1-one",
    "cn_name": "3,3\",5,5\"-四叔丁基-4,4\"-联苯醌;",
    "alternate_name": "2,5-Cyclohexadien-1-one, 4-[3,5-bis(1,1-dimethylethyl)-4-oxo-2,5-cyclohexadien-1-ylidene]-2,6-bis(1,1-dimethylethyl)-;[Bi-2,5-cyclohexadien-1-ylidene]-4,4′-dione, 3,3′,5,5′-tetra-<em>tert</em>-butyl-;Diphenoquinone, 3,3′,5,5′-tetra-<em>tert</em>-butyl-;4-[3,5-Bis(1,1-dimethylethyl)-4-oxo-2,5-cyclohexadien-1-ylidene]-2,6-bis(1,1-dimethylethyl)-2,5-cyclohexadien-1-one;3,3′,5,5′-Tetra-<em>tert</em>-butyl-4,4′-diphenoquinone;3,3′,5,5′-Tetra-<em>tert</em>-butyldiphenoquinone;Tetra-<em>tert</em>-butyldiphenoquinone;NSC 14478;3,5,3′,5′-Tetra-<em>tert</em>-butyldiphenoquinone;3,3′,5,5′-Tetra-tert-butyl-4,4′-diphenoquinone;2,6-Ditert-butyl-4-(3,5-ditert-butyl-4-oxocyclohexa-2,5-dien-1-ylidene)cyclohexa-2,5-dien-1-one;DPQ",
    "duplicated_cas_no": "139356-88-0;24738-18-9;74978-25-9;649735-40-0;147265-69-8;168481-82-1;184643-62-7;1177500-04-7;1071673-03-4",
    "SMILES": "C(C)(C)(C)C=1C(=O)C(C(C)(C)C)=CC(C1)=C2C=C(C(C)(C)C)C(=O)C(C(C)(C)C)=C2",
    "meta_data": {
        "InChI": "InChI=1S/C28H40O2/c1-25(2,3)19-13-17(14-20(23(19)29)26(4,5)6)18-15-21(27(7,8)9)24(30)22(16-18)28(10,11)12/h13-16H,1-12H3",
        "InChIKey": null,
        "Canonical SMILES": "O=C1C(=CC(C=C1C(C)(C)C)=C2C=C(C(=O)C(=C2)C(C)(C)C)C(C)(C)C)C(C)(C)C",
        "Molecular Formula": "C<sub>28</sub>H<sub>40</sub>O<sub>2</sub>",
        "Molecular Mass": "408.62",
        "Melting Point": "240 °C"
    }
}