{
    "cas_no": "619-60-3",
    "key_name": "4-(Dimethylamino)phenol",
    "cn_name": "4-二甲氨基苯酚;4-二甲氨基苯酚;4-二甲氨基酚；对二甲氨基酚；对羟基二甲苯胺;",
    "alternate_name": "Phenol, 4-(dimethylamino)-;Phenol, <em>p</em>-(dimethylamino)-;4-(Dimethylamino)phenol;<em>p</em>-(Dimethylamino)phenol;<em>p</em>-Hydroxy-<em>N</em>,<em>N</em>-dimethylaniline;<em>N</em>,<em>N</em>-Dimethyl-4-aminophenol;<em>N</em>,<em>N</em>-Dimethyl-<em>p</em>-hydroxyaniline",
    "duplicated_cas_no": "",
    "SMILES": "N(C)(C)C1=CC=C(O)C=C1",
    "meta_data": {
        "InChI": "InChI=1S/C8H11NO/c1-9(2)7-3-5-8(10)6-4-7/h3-6,10H,1-2H3",
        "InChIKey": null,
        "Canonical SMILES": "OC1=CC=C(C=C1)N(C)C",
        "Molecular Formula": "C<sub>8</sub>H<sub>11</sub>NO",
        "Molecular Mass": "137.18",
        "Melting Point": "77 °C"
    }
}