{
    "cas_no": "104-06-3",
    "key_name": "4′-Formylacetanilide thiosemicarbazone",
    "cn_name": null,
    "alternate_name": "Acetamide, <em>N</em>-[4-[[2-(aminothioxomethyl)hydrazinylidene]methyl]phenyl]-;Acetanilide, 4′-formyl-, 4′-(thiosemicarbazone);Acetamide, <em>N</em>-[4-[[(aminothioxomethyl)hydrazono]methyl]phenyl]-;Acetanilide, 4′-formyl-, thiosemicarbazone;<em>N</em>-[4-[[2-(Aminothioxomethyl)hydrazinylidene]methyl]phenyl]acetamide;Tb I/698;Sdt 1041;4207RP;<em>p</em>-Acetamidobenzaldehyde thiosemicarbazone;<em>p</em>-Acetylaminobenzaldehyde thiosemicarbazone;Aktivan;Ambathizon;Amithiozone;Antib;Benthiozone;Benzothiozane;Benzothiozon;Berculon A;Berkazon;Conteben;Diasan;Domakol;4′-Formylacetanilide thiosemicarbazone;Ilbion;Livazone;Myvizone;Neustab;Novakol;Nuclon argentinian;Panrone;Parazone;Seroden;Siocarbazone;Tb I;Tebalon;Tebecure;Tebemar;Tebethion;Tebethione;Tebezon;Thiacetazone;Thiacetone;Thibon;Thibone;Thioacetazone;Thiocarbazil;Thiomicid;Thionicid;Thioparamizone;Thiotebezin;Thizone;Tibicur;Tibione;Tibon;Tibone;Tiobicina;Tiocarone;Tiosecolo;Tubercazon;Tebesone I;Thiosemicarbazone;Tubigal;4-Acetylaminobenzaldehyde thiosemicarbazone;Tioacetazon;Tiacetazon;Amitiozon;Diazan;Tibion;Neotibil;Tibizan;Thioparamizon;Mivizon;Thioacetazon;Tioatsetazon;Tubin;Thiotebicina;Thiotebesin;SQ 2321;Thiosemicarbazone (pharmaceutical);Thiocarbazyl;Diazane;Mirizone Neustab;NSC 3550;MeSH ID: D013828",
    "duplicated_cas_no": "",
    "SMILES": "N(C(C)=O)C1=CC=C(C=NNC(N)=S)C=C1",
    "meta_data": {
        "InChI": "InChI=1S/C10H12N4OS/c1-7(15)13-9-4-2-8(3-5-9)6-12-14-10(11)16/h2-6H,1H3,(H,13,15)(H3,11,14,16)",
        "InChIKey": null,
        "Canonical SMILES": "O=C(NC1=CC=C(C=NNC(=S)N)C=C1)C",
        "Molecular Formula": "C<sub>10</sub>H<sub>12</sub>N<sub>4</sub>OS",
        "Molecular Mass": "236.29",
        "Melting Point": "225 °C (decomp)"
    }
}