{
    "cas_no": "4864-61-3",
    "key_name": "3-Octyl acetate",
    "cn_name": "乙酸-3-辛醇酯;",
    "alternate_name": "3-Octanol, 3-acetate;3-Octanol, acetate;3-Octyl acetate;Oct-3-yl ethanoate;3-Acetoxyoctane;(±)-3-Octyl acetate;(±)-3-Acetoxyoctane",
    "duplicated_cas_no": "50373-56-3",
    "SMILES": "C(CCCCC)(OC(C)=O)CC",
    "meta_data": {
        "InChI": "InChI=1S/C10H20O2/c1-4-6-7-8-10(5-2)12-9(3)11/h10H,4-8H2,1-3H3",
        "InChIKey": null,
        "Canonical SMILES": "O=C(OC(CC)CCCCC)C",
        "Molecular Formula": "C<sub>10</sub>H<sub>20</sub>O<sub>2</sub>",
        "Molecular Mass": "172.26",
        "Boiling Point": "90 °C @ Press: 10 Torr",
        "Density": "0.8646 g/cm³ @ Temp: 15 °C"
    }
}