{
    "cas_no": "2050-43-3",
    "key_name": "<em>N</em>-(2,4-Dimethylphenyl)acetamide",
    "cn_name": null,
    "alternate_name": "Acetamide, <em>N</em>-(2,4-dimethylphenyl)-;2′,4′-Acetoxylidide;<em>N</em>-(2,4-Dimethylphenyl)acetamide;2′,4′-Acetoxylidine;2′,4′-Dimethylacetanilide;2,4-Dimethylacetanilide;MBR 22441;NSC 37567;<em>N</em>-Acetyl 2,4-dimethylaniline",
    "duplicated_cas_no": "",
    "SMILES": "N(C(C)=O)C1=C(C)C=C(C)C=C1",
    "meta_data": {
        "InChI": "InChI=1S/C10H13NO/c1-7-4-5-10(8(2)6-7)11-9(3)12/h4-6H,1-3H3,(H,11,12)",
        "InChIKey": null,
        "Canonical SMILES": "O=C(NC1=CC=C(C=C1C)C)C",
        "Molecular Formula": "C<sub>10</sub>H<sub>13</sub>NO",
        "Molecular Mass": "163.22",
        "Boiling Point": "170 °C",
        "Melting Point": "129.3 °C"
    }
}