{
    "cas_no": "981-15-7",
    "key_name": "Ailanthone",
    "cn_name": "臭椿酮;臭椿酮;",
    "alternate_name": "Picrasa-3,13(21)-diene-2,16-dione, 11,20-epoxy-1,11,12-trihydroxy-, (1β,11β,12α)-;2<em>H</em>-1,11c-(Epoxymethano)phenanthro[10,1-<em>bc</em>]pyran-5,10(3<em>H</em>,6a<em>H</em>)-dione, 1,3a,4,7,7a,11,11a,11b-octahydro-1α,2β,11β-trihydroxy-8,11aβ-dimethyl-3-methylene-;Ailanthone;(1β,11β,12α)-11,20-Epoxy-1,11,12-trihydroxypicrasa-3,13(21)-diene-2,16-dione;Δ<sup>13</sup>-Dehydrochaparrinone;13,21-Didehydrochaparrinone",
    "duplicated_cas_no": "875827-88-6;162517-11-5",
    "SMILES": "C[C@@]12[C@@]3([C@@]45[C@@](C[C@]1(C(C)=CC(=O)[C@H]2O)[H])(OC(=O)C[C@]4(C(=C)[C@@H](O)[C@]3(O)OC5)[H])[H])[H]",
    "meta_data": {
        "InChI": "InChI=1S/C20H24O7/c1-8-4-12(21)16(24)18(3)10(8)5-13-19-7-26-20(25,17(18)19)15(23)9(2)11(19)6-14(22)27-13/h4,10-11,13,15-17,23-25H,2,5-7H2,1,3H3/t10-,11-,13+,15+,16+,17+,18+,19+,20-/m0/s1",
        "InChIKey": null,
        "Canonical SMILES": "O=C1OC2CC3C(=CC(=O)C(O)C3(C)C4C5(O)OCC24C(C(=C)C5O)C1)C",
        "Molecular Formula": "C<sub>20</sub>H<sub>24</sub>O<sub>7</sub>",
        "Molecular Mass": "376.40",
        "Melting Point": "235-237 °C"
    }
}