{
    "cas_no": "1517-72-2",
    "key_name": "1-(1-Naphthyl)ethanol",
    "cn_name": "1-(1-萘)乙醇;1-(1-萘)乙醇;",
    "alternate_name": "1-Naphthalenemethanol, α-methyl-;α-Methyl-1-naphthalenemethanol;1-(1-Naphthyl)ethanol;1-(α-Naphthyl)ethanol;1-(1-Hydroxyethyl)naphthalene;1-Naphthyl methyl carbinol;α-Methylnaphthalenemethanol;(±)-1-(α-Naphthyl)ethanol;(±)-1-(1-Naphthyl)ethanol;(<em>RS</em>)-1-(α-Naphthyl)ethanol;(±)-1-(1-Naphthalene)ethanol;1-(Naphthalen-1-yl)ethanol;(±)-α-Methyl-1-naphthalenemethanol;NSC 70018;1-(Naphthalen-1-yl)ethan-1-ol",
    "duplicated_cas_no": "57605-95-5;92278-18-7",
    "SMILES": "C(C)(O)C=1C2=C(C=CC1)C=CC=C2",
    "meta_data": {
        "InChI": "InChI=1S/C12H12O/c1-9(13)11-8-4-6-10-5-2-3-7-12(10)11/h2-9,13H,1H3",
        "InChIKey": null,
        "Canonical SMILES": "OC(C1=CC=CC=2C=CC=CC21)C",
        "Molecular Formula": "C<sub>12</sub>H<sub>12</sub>O",
        "Molecular Mass": "172.22",
        "Boiling Point": "170-175 °C @ Press: 35-40 Torr",
        "Melting Point": "64 °C"
    }
}