{
    "cas_no": "4064-06-6",
    "key_name": "1,2:3,4-Di-<em>O</em>-isopropylidene-α-<span class=\"text-smallcaps\">D</span>-galactopyranose",
    "cn_name": "双丙酮半乳糖;",
    "alternate_name": "α-<span class=\"text-smallcaps\">D</span>-Galactopyranose, 1,2:3,4-bis-<em>O</em>-(1-methylethylidene)-;Galactopyranose, 1,2:3,4-di-<em>O</em>-isopropylidene-, α-<span class=\"text-smallcaps\">D</span>-;Galactopyranose, 1,2:3,4-di-<em>O</em>-isopropylidene-;5<em>H</em>-Bis[1,3]dioxolo[4,5-<em>b</em>:4′,5′-<em>d</em>]pyran, α-<span class=\"text-smallcaps\">D</span>-galactopyranose deriv.;1,2:3,4-Bis-<em>O</em>-(1-methylethylidene)-α-<span class=\"text-smallcaps\">D</span>-galactopyranose;Diisopropylidenegalactose;1,2:3,4-Di-<em>O</em>-isopropylidene-α-<span class=\"text-smallcaps\">D</span>-galactopyranose;1,2:3,4-Di-<em>O</em>-isopropylidene-<span class=\"text-smallcaps\">D</span>-galactopyranose;1,2:3,4-Di-<em>O</em>-isopropylidene-<span class=\"text-smallcaps\">D</span>-galactose;1,2:3,4-Di-<em>O</em>-isopropylidene-α-<span class=\"text-smallcaps\">D</span>-galactose;1,2:3,4-Diisopropylidene-α-<span class=\"text-smallcaps\">D</span>-galactopyranose;NSC 89756;1,2:3,4-Di-<em>O</em>-isopropylidene-α-<span class=\"text-smallcaps\">D</span>-galactopyranoside;1,2:3,4-Di-<em>O</em>-isopropylidene-α-<span class=\"text-smallcaps\">D</span>-galactopyranosole;1,2,3,4-Diisopropyl-galactopyranose",
    "duplicated_cas_no": "53510-73-9;58510-53-5;68036-24-8;68128-08-5;70835-82-4;105876-45-7;150199-47-6;217807-62-0;232270-94-9;793670-52-7;886748-80-7;1432581-16-2;2407698-95-5",
    "SMILES": "C(O)[C@@H]1[C@]2([C@@]([C@@]3([C@](O1)(OC(C)(C)O3)[H])[H])(OC(C)(C)O2)[H])[H]",
    "meta_data": {
        "InChI": "InChI=1S/C12H20O6/c1-11(2)15-7-6(5-13)14-10-9(8(7)16-11)17-12(3,4)18-10/h6-10,13H,5H2,1-4H3/t6-,7+,8+,9-,10-/m1/s1",
        "InChIKey": null,
        "Canonical SMILES": "OCC1OC2OC(OC2C3OC(OC13)(C)C)(C)C",
        "Molecular Formula": "C<sub>12</sub>H<sub>20</sub>O<sub>6</sub>",
        "Molecular Mass": "260.28",
        "Boiling Point": "110-120 °C @ Press: 0.1-0.2 Torr",
        "Melting Point": "91-100 °C"
    }
}