{
    "cas_no": "4991-65-5",
    "key_name": "6-Hydroxy-1,3-benzoxathiol-2-one",
    "cn_name": "噻克索酮;6-羟基-1,3-苯并噁噻-2-酮;",
    "alternate_name": "1,3-Benzoxathiol-2-one, 6-hydroxy-;6-Hydroxy-1,3-benzoxathiol-2-one;6-Hydroxy-2-oxo-1,3-benzoxathiole;6-Hydroxy-2-oxobenzoxathiole;Acnosan;Camyna;OL 110;Stepin;Thidoxol;Thioxolon;Tioxolon;Thioxolone;Acnosan (antiseborrheic);Tioxolone;6-Hydroxybenz[<em>d</em>]oxathiol-2-one;6-(Hydroxy)benzo[<em>d</em>][1,3]oxathiol-2-one",
    "duplicated_cas_no": "",
    "SMILES": "O=C1SC=2C(O1)=CC(O)=CC2",
    "meta_data": {
        "InChI": "InChI=1S/C7H4O3S/c8-4-1-2-6-5(3-4)10-7(9)11-6/h1-3,8H",
        "InChIKey": null,
        "Canonical SMILES": "O=C1OC2=CC(O)=CC=C2S1",
        "Molecular Formula": "C<sub>7</sub>H<sub>4</sub>O<sub>3</sub>S",
        "Molecular Mass": "168.17",
        "Melting Point": "160 °C"
    }
}