{
    "cas_no": "71636-38-9",
    "key_name": "α-[[[2-(2-Chloro-3,4-dimethoxyphenyl)ethyl]amino]methyl]-4-methoxybenzenemethanol",
    "cn_name": "N-[2-羟基-2-(4-甲氧基苯基)乙基]-2-(2-氯-3,4-二甲氧基苯基)乙胺;",
    "alternate_name": "Benzenemethanol, α-[[[2-(2-chloro-3,4-dimethoxyphenyl)ethyl]amino]methyl]-4-methoxy-;α-[[[2-(2-Chloro-3,4-dimethoxyphenyl)ethyl]amino]methyl]-4-methoxybenzenemethanol;2-(2-Chloro-3,4-dimethoxyphenethylamino)-1-(4-methoxyphenyl)ethanol;2-[2-(2-Chloro-3,4-dimethoxyphenyl)ethylamino]-1-(4-methoxyphenyl)ethanol",
    "duplicated_cas_no": "",
    "SMILES": "O(C)C1=C(OC)C=CC(CCNCC(O)C2=CC=C(OC)C=C2)=C1Cl",
    "meta_data": {
        "InChI": "InChI=1S/C19H24ClNO4/c1-23-15-7-4-13(5-8-15)16(22)12-21-11-10-14-6-9-17(24-2)19(25-3)18(14)20/h4-9,16,21-22H,10-12H2,1-3H3",
        "InChIKey": null,
        "Canonical SMILES": "ClC1=C(OC)C(OC)=CC=C1CCNCC(O)C2=CC=C(OC)C=C2",
        "Molecular Formula": "C<sub>19</sub>H<sub>24</sub>ClNO<sub>4</sub>",
        "Molecular Mass": "365.85",
        "Melting Point": "118.5-121.0 °C"
    }
}