{
    "cas_no": "12060-01-4",
    "key_name": "Lead zirconate",
    "cn_name": "锆酸铅;",
    "alternate_name": "Lead zirconium oxide (PbZrO<sub>3</sub>);Zirconium lead oxide (PbZrO<sub>3</sub>);Lead zirconate;Lead zirconate (PbZrO<sub>3</sub>);Lead zirconium trioxide",
    "duplicated_cas_no": "14013-09-3",
    "SMILES": "[O].[Zr].[Pb]",
    "meta_data": {
        "InChI": "InChI=1S/O.Pb.Zr",
        "InChIKey": null,
        "Canonical SMILES": "[O].[Zr].[Pb]",
        "Molecular Formula": "O.Pb.Zr",
        "Molecular Mass": "",
        "Melting Point": "1570 °C",
        "Density": "7.98 g/cm³ (solid)"
    }
}