{
    "uri": "substance/pt/12060014",
    "rn": "12060-01-4",
    "name": "Lead zirconate",
    "images": [],
    "inchi": "InChI=1S/O.Pb.Zr",
    "inchiKey": "InChIKey=KICZHUUICHNUSL-UHFFFAOYSA-N",
    "smile": "[O].[Zr].[Pb]",
    "canonicalSmile": "[O].[Zr].[Pb]",
    "molecularFormula": "O.Pb.Zr",
    "molecularMass": "",
    "experimentalProperties": [
        {
            "name": "Melting Point",
            "property": "1570 °C",
            "sourceNumber": 1
        },
        {
            "name": "Density",
            "property": "7.98 g/cm³ (solid)",
            "sourceNumber": 2
        }
    ],
    "propertyCitations": [
        {
            "docUri": "document/pt/document/21655374",
            "sourceNumber": 1,
            "source": "Fushimi, Shoichi; Journal of the American Ceramic Society, (1967), 50(3), 129-32, CAplus"
        },
        {
            "docUri": "document/pt/document/49167349",
            "sourceNumber": 2,
            "source": "Foley, Brian M.; Journal of Applied Physics (Melville, NY, United States), (2017), 121(20), 205104/1-205104/13, CAplus"
        }
    ],
    "synonyms": [
        "Lead zirconium oxide (PbZrO<sub>3</sub>)",
        "Zirconium lead oxide (PbZrO<sub>3</sub>)",
        "Lead zirconate",
        "Lead zirconate (PbZrO<sub>3</sub>)",
        "Lead zirconium trioxide"
    ],
    "replacedRns": [
        "14013-09-3"
    ],
    "hasMolfile": true,
    "source": "https://commonchemistry.cas.org/detail?cas_rn=12060-01-4"
}