{
    "cas_no": "105-99-7",
    "key_name": "Dibutyl adipate",
    "cn_name": "己二酸二丁酯;",
    "alternate_name": "Hexanedioic acid, 1,6-dibutyl ester;Adipic acid, dibutyl ester;Hexanedioic acid, dibutyl ester;3PS;Dibutyl adipate;Di-<em>n</em>-butyl adipate;Experimental Tick Repellent 3;Experimental Tick Repellent 3PS;Butyl adipate;Dibutyl hexanedioate;Adipic acid di-<em>n</em>-butyl ester;Polycizer W 260;Cetiol B;Monocizer W 260;NSC 8086;W 260;Adimoll DB;1,6-Dibutyl hexanedioate",
    "duplicated_cas_no": "",
    "SMILES": "C(CCCCC(OCCCC)=O)(OCCCC)=O",
    "meta_data": {
        "InChI": "InChI=1S/C14H26O4/c1-3-5-11-17-13(15)9-7-8-10-14(16)18-12-6-4-2/h3-12H2,1-2H3",
        "InChIKey": null,
        "Canonical SMILES": "O=C(OCCCC)CCCCC(=O)OCCCC",
        "Molecular Formula": "C<sub>14</sub>H<sub>26</sub>O<sub>4</sub>",
        "Molecular Mass": "258.35",
        "Boiling Point": "145 °C @ Press: 4 Torr",
        "Melting Point": "-32.4 °C",
        "Density": "0.956 g/cm³ @ Temp: 20 °C"
    }
}