{
    "cas_no": "119-64-2",
    "key_name": "Tetralin",
    "cn_name": "1,2,3,4-四氢萘;萘满;",
    "alternate_name": "Naphthalene, 1,2,3,4-tetrahydro-;1,2,3,4-Tetrahydronaphthalene;Tetrahydronaphthalene;Tetralin;Tetranap;Benzocyclohexane;NSC 77451",
    "duplicated_cas_no": "",
    "SMILES": "C=12C(=CC=CC1)CCCC2",
    "meta_data": {
        "InChI": "InChI=1S/C10H12/c1-2-6-10-8-4-3-7-9(10)5-1/h1-2,5-6H,3-4,7-8H2",
        "InChIKey": null,
        "Canonical SMILES": "C=1C=CC2=C(C1)CCCC2",
        "Molecular Formula": "C<sub>10</sub>H<sub>12</sub>",
        "Molecular Mass": "132.20",
        "Boiling Point": "207.6 °C @ Press: 760 Torr",
        "Melting Point": "-35.8 °C",
        "Density": "0.9702 g/cm³ @ Temp: 20 °C"
    }
}