{
    "cas_no": "66575-29-9",
    "key_name": "Forskolin",
    "cn_name": "佛司可林;",
    "alternate_name": "1<em>H</em>-Naphtho[2,1-<em>b</em>]pyran-1-one, 5-(acetyloxy)-3-ethenyldodecahydro-6,10,10b-trihydroxy-3,4a,7,7,10a-pentamethyl-, (3<em>R</em>,4a<em>R</em>,5<em>S</em>,6<em>S</em>,6a<em>S</em>,10<em>S</em>,10a<em>R</em>,10b<em>S</em>)-;1<em>H</em>-Naphtho[2,1-<em>b</em>]pyran-1-one, 5-(acetyloxy)-3-ethenyldodecahydro-6,10,10b-trihydroxy-3,4a,7,7,10a-pentamethyl-, [3<em>R</em>-(3α,4aβ,5β,6β,6aα,10α,10aβ,10bα)]-;(3<em>R</em>,4a<em>R</em>,5<em>S</em>,6<em>S</em>,6a<em>S</em>,10<em>S</em>,10a<em>R</em>,10b<em>S</em>)-5-(Acetyloxy)-3-ethenyldodecahydro-6,10,10b-trihydroxy-3,4a,7,7,10a-pentamethyl-1<em>H</em>-naphtho[2,1-<em>b</em>]pyran-1-one;Forskolin;Coleonol;Colforsin;HL 362;L 75-1362B;ForsLean;NSC 357088;NSC 375489;(-)-Forskolin",
    "duplicated_cas_no": "64657-11-0",
    "SMILES": "O[C@@]12[C@]3(C)[C@@]([C@H](O)[C@H](OC(C)=O)[C@@]1(C)O[C@](C=C)(C)CC2=O)(C(C)(C)CC[C@@H]3O)[H]",
    "meta_data": {
        "InChI": "InChI=1S/C22H34O7/c1-8-19(5)11-14(25)22(27)20(6)13(24)9-10-18(3,4)16(20)15(26)17(28-12(2)23)21(22,7)29-19/h8,13,15-17,24,26-27H,1,9-11H2,2-7H3/t13-,15-,16-,17-,19-,20-,21+,22-/m0/s1",
        "InChIKey": null,
        "Canonical SMILES": "O=C(OC1C(O)C2C(C)(C)CCC(O)C2(C)C3(O)C(=O)CC(OC13C)(C=C)C)C",
        "Molecular Formula": "C<sub>22</sub>H<sub>34</sub>O<sub>7</sub>",
        "Molecular Mass": "410.50",
        "Melting Point": "232 °C"
    }
}