{
    "cas_no": "41394-05-2",
    "key_name": "Metamitron",
    "cn_name": "苯嗪草酮;3-甲基-4-氨基-6-苯基-4,5-二氢-1,2,4-三嗪-5-酮;",
    "alternate_name": "1,2,4-Triazin-5(4<em>H</em>)-one, 4-amino-3-methyl-6-phenyl-;4-Amino-3-methyl-6-phenyl-1,2,4-triazin-5(4<em>H</em>)-one;3-Methyl-4-amino-6-phenyl-1,2,4-triazin-5-one;Metamitron;BAY 6676;4-Amino-3-methyl-6-phenyl-1,2,4-triazin-5-one;DRW 1139;Goltix;BAY-DRW 1139;Goltix WG 70;Metron Stefes;Goltix VM 90;Goltix WG;Burakomitron;Goltix Compact;Gladiator;Goltix Top;Metron 700SL;Metafol 700SC;Goltix Ultradispersible;Goltix 90 Ultradispersible;Tornado SC;Tornado 700SC",
    "duplicated_cas_no": "",
    "SMILES": "O=C1C(=NN=C(C)N1N)C2=CC=CC=C2",
    "meta_data": {
        "InChI": "InChI=1S/C10H10N4O/c1-7-12-13-9(10(15)14(7)11)8-5-3-2-4-6-8/h2-6H,11H2,1H3",
        "InChIKey": null,
        "Canonical SMILES": "O=C1C(=NN=C(N1N)C)C=2C=CC=CC2",
        "Molecular Formula": "C<sub>10</sub>H<sub>10</sub>N<sub>4</sub>O",
        "Molecular Mass": "202.21",
        "Melting Point": "167 °C",
        "Density": "0.6 g/cm³"
    }
}