{
    "cas_no": "6793-92-6",
    "key_name": "1-(Benzyloxy)-4-bromobenzene",
    "cn_name": "4-苄氧基溴苯;1-苄氧基-4-溴苯;对苄氧基溴苯;4-溴苯苄醚;",
    "alternate_name": "Benzene, 1-bromo-4-(phenylmethoxy)-;Ether, benzyl <em>p</em>-bromophenyl;1-Bromo-4-(phenylmethoxy)benzene;<em>p</em>-Bromophenyl benzyl ether;4-(Benzyloxy)bromobenzene;1-(Benzyloxy)-4-bromobenzene;Benzyl <em>p</em>-bromophenyl ether;Benzyl 4-bromophenyl ether;<em>p</em>-(Benzyloxy)bromobenzene;<em>p</em>-(Benzyloxy)phenyl bromide;1-Bromo-4-(benzyloxy)benzene;4-Benzyloxy-1-bromobenzene;1-Bromo-4-[(phenylmethyl)oxy]benzene;4-Bromophenyl benzyl ether",
    "duplicated_cas_no": "2095639-53-3",
    "SMILES": "O(CC1=CC=CC=C1)C2=CC=C(Br)C=C2",
    "meta_data": {
        "InChI": "InChI=1S/C13H11BrO/c14-12-6-8-13(9-7-12)15-10-11-4-2-1-3-5-11/h1-9H,10H2",
        "InChIKey": null,
        "Canonical SMILES": "BrC1=CC=C(OCC=2C=CC=CC2)C=C1",
        "Molecular Formula": "C<sub>13</sub>H<sub>11</sub>BrO",
        "Molecular Mass": "263.13",
        "Boiling Point": "164-186 °C @ Press: 7 Torr",
        "Melting Point": "64-65 °C"
    }
}