{
    "cas_no": "3264-82-2",
    "key_name": "Bis(acetylacetonato)nickel",
    "cn_name": "二乙酰丙酮镍;乙酰丙酮酸镍;",
    "alternate_name": "Nickel, bis(2,4-pentanedionato-κ<em>O</em><sup>2</sup>,κ<em>O</em><sup>4</sup>)-, (<em>SP</em>-4-1)-;Nickel, bis(2,4-pentanedionato)-;Nickel, bis(2,4-pentanedionato-<em>O</em>,<em>O</em>′)-, (<em>SP</em>-4-1)-;Nickel, bis(2,4-pentanedionato-κ<em>O</em>,κ<em>O</em>′)-, (<em>SP</em>-4-1)-;(<em>SP</em>-4-1)-Bis(2,4-pentanedionato-κ<em>O</em><sup>2</sup>,κ<em>O</em><sup>4</sup>)nickel;Nickel acetylacetonate;Nickel bis(acetylacetonate);Nickel(II) acetylacetonate;Bis(acetylacetonato)nickel;Nickelous acetylacetonate;Bis(acetylacetonate)nickel;Bis(2,4-pentanedionato)nickel;Bis(acetylacetone)nickel;Nickel bis(2,4-pentanedionate);Acetylacetonatonickel(II);LC 5615;NSC 4657;Nacem Nickel;Nickel(II) acetoacetonate;Niax LC 5615;Ni(acac)<sub>2</sub>;Kosmos N 200",
    "duplicated_cas_no": "111866-22-9;14024-60-3;39691-34-4;46370-07-4;51185-42-3;58320-35-7;63353-43-5;65140-00-3;94552-59-7;94552-58-6;194044-27-4",
    "SMILES": "CC1=O[Ni+2]2(O=C(C)[CH-]C(C)=O2)O=C(C)[CH-]1",
    "meta_data": {
        "InChI": "InChI=1S/2C5H7O2.Ni/c2*1-4(6)3-5(2)7;/h2*3H,1-2H3;/q2*-1;+2",
        "InChIKey": null,
        "Canonical SMILES": "O1=C([CH-]C(=O[Ni+2]12O=C([CH-]C(=O2)C)C)C)C",
        "Molecular Formula": "C<sub>10</sub>H<sub>14</sub>NiO<sub>4</sub>",
        "Molecular Mass": "",
        "Boiling Point": "227 °C",
        "Melting Point": "229.5 °C"
    }
}