{
    "cas_no": "696-82-2",
    "key_name": "2,4,6-Trifluoropyrimidine",
    "cn_name": "2,4,6-三氟嘧啶;2,4,6-三氟嘧啶;2,4,6-三氟嘧啶,98%;",
    "alternate_name": "Pyrimidine, 2,4,6-trifluoro-;2,4,6-Trifluoropyrimidine",
    "duplicated_cas_no": "",
    "SMILES": "FC=1C=C(F)N=C(F)N1",
    "meta_data": {
        "InChI": "InChI=1S/C4HF3N2/c5-2-1-3(6)9-4(7)8-2/h1H",
        "InChIKey": null,
        "Canonical SMILES": "FC=1N=C(F)C=C(F)N1",
        "Molecular Formula": "C<sub>4</sub>HF<sub>3</sub>N<sub>2</sub>",
        "Molecular Mass": "134.06",
        "Boiling Point": "98 °C"
    }
}