{
    "cas_no": "698-01-1",
    "key_name": "2-Chloro-<em>N</em>,<em>N</em>-dimethylbenzenamine",
    "cn_name": "2-氯-N,N-二甲基苯胺;",
    "alternate_name": "Benzenamine, 2-chloro-<em>N</em>,<em>N</em>-dimethyl-;Aniline, <em>o</em>-chloro-<em>N</em>,<em>N</em>-dimethyl-;2-Chloro-<em>N</em>,<em>N</em>-dimethylbenzenamine;<em>o</em>-Chloro-<em>N</em>,<em>N</em>-dimethylaniline;2-Chloro-<em>N</em>,<em>N</em>-dimethylaniline",
    "duplicated_cas_no": "",
    "SMILES": "N(C)(C)C1=C(Cl)C=CC=C1",
    "meta_data": {
        "InChI": "InChI=1S/C8H10ClN/c1-10(2)8-6-4-3-5-7(8)9/h3-6H,1-2H3",
        "InChIKey": null,
        "Canonical SMILES": "ClC=1C=CC=CC1N(C)C",
        "Molecular Formula": "C<sub>8</sub>H<sub>10</sub>ClN",
        "Molecular Mass": "155.62",
        "Boiling Point": "205 °C",
        "Melting Point": "145 °C",
        "Density": "1.1067 g/cm³"
    }
}