{
    "cas_no": "18407-07-3",
    "key_name": "(Dodecyl)(methyl)dichlorosilane",
    "cn_name": "二氯正十二烷基甲基硅烷;",
    "alternate_name": "Silane, dichlorododecylmethyl-;Dichlorododecylmethylsilane;Dichloro(dodecyl)methylsilane;(Dodecyl)(methyl)dichlorosilane",
    "duplicated_cas_no": "",
    "SMILES": "C(CCCCCCCCC)CC[Si](C)(Cl)Cl",
    "meta_data": {
        "InChI": "InChI=1S/C13H28Cl2Si/c1-3-4-5-6-7-8-9-10-11-12-13-16(2,14)15/h3-13H2,1-2H3",
        "InChIKey": null,
        "Canonical SMILES": "Cl[Si](Cl)(C)CCCCCCCCCCCC",
        "Molecular Formula": "C<sub>13</sub>H<sub>28</sub>Cl<sub>2</sub>Si",
        "Molecular Mass": "283.35",
        "Boiling Point": "124-127 °C @ Press: 3 Torr",
        "Density": "0.955 g/cm³"
    }
}