{
    "cas_no": "20876-29-3",
    "key_name": "5-Methoxy-2-nitrobenzeneacetic acid",
    "cn_name": null,
    "alternate_name": "Benzeneacetic acid, 5-methoxy-2-nitro-;Acetic acid, (5-methoxy-2-nitrophenyl)-;5-Methoxy-2-nitrobenzeneacetic acid;(5-Methoxy-2-nitrophenyl)acetic acid;2-(5-Methoxy-2-nitrophenyl)acetic acid",
    "duplicated_cas_no": "",
    "SMILES": "C(C(O)=O)C1=C(N(=O)=O)C=CC(OC)=C1",
    "meta_data": {
        "InChI": "InChI=1S/C9H9NO5/c1-15-7-2-3-8(10(13)14)6(4-7)5-9(11)12/h2-4H,5H2,1H3,(H,11,12)",
        "InChIKey": null,
        "Canonical SMILES": "O=C(O)CC1=CC(OC)=CC=C1N(=O)=O",
        "Molecular Formula": "C<sub>9</sub>H<sub>9</sub>NO<sub>5</sub>",
        "Molecular Mass": "211.17",
        "Melting Point": "176 °C"
    }
}