{
    "cas_no": "260-94-6",
    "key_name": "Acridine",
    "cn_name": null,
    "alternate_name": "Acridine;10-Azaanthracene;Benzo[<em>b</em>]quinoline;Dibenzo[<em>b</em>,<em>e</em>]pyridine;9-Azaanthracene;2,3-Benzoquinoline;NSC 3408",
    "duplicated_cas_no": "",
    "SMILES": "C12=C(N=C3C(=C1)C=CC=C3)C=CC=C2",
    "meta_data": {
        "InChI": "InChI=1S/C13H9N/c1-3-7-12-10(5-1)9-11-6-2-4-8-13(11)14-12/h1-9H",
        "InChIKey": null,
        "Canonical SMILES": "N=1C=2C=CC=CC2C=C3C=CC=CC13",
        "Molecular Formula": "C<sub>13</sub>H<sub>9</sub>N",
        "Molecular Mass": "179.22",
        "Boiling Point": "345.5 °C @ Press: 760 Torr",
        "Melting Point": "108 °C",
        "Density": "1.005 g/cm³ @ Temp: 20 °C"
    }
}