{
    "cas_no": "1094-08-2",
    "key_name": "Ethopropazine hydrochloride",
    "cn_name": "盐酸乙丙嗪;盐酸乙丙嗪;",
    "alternate_name": "10<em>H</em>-Phenothiazine-10-ethanamine, <em>N</em>,<em>N</em>-diethyl-α-methyl-, hydrochloride (1:1);Phenothiazine, 10-[2-(diethylamino)propyl]-, monohydrochloride;10<em>H</em>-Phenothiazine-10-ethanamine, <em>N</em>,<em>N</em>-diethyl-α-methyl-, monohydrochloride;Phenothiazine, 10-[2-(diethylamino)propyl]-, hydrochloride;Ethopropazine hydrochloride;Lysivane hydrochloride;Parsidol hydrochloride;Profenamine hydrochloride;Isothazine hydrochloride;Parsidol monohydrochloride;Parsidol;Profenamine monohydrochloride;Dibutil;Lysivane;Pardisol;Parfezin;Parphezein;Parsotil;Parphezin;Parsitan;Rodipal;NSC 169467;NSC 64074",
    "duplicated_cas_no": "",
    "SMILES": "C(C(N(CC)CC)C)N1C=2C(SC=3C1=CC=CC3)=CC=CC2.Cl",
    "meta_data": {
        "InChI": "InChI=1S/C19H24N2S.ClH/c1-4-20(5-2)15(3)14-21-16-10-6-8-12-18(16)22-19-13-9-7-11-17(19)21;/h6-13,15H,4-5,14H2,1-3H3;1H",
        "InChIKey": null,
        "Canonical SMILES": "Cl.S1C=2C=CC=CC2N(C=3C=CC=CC13)CC(N(CC)CC)C",
        "Molecular Formula": "C<sub>19</sub>H<sub>24</sub>N<sub>2</sub>S.ClH",
        "Molecular Mass": "",
        "Melting Point": "223-225 °C"
    }
}