{
    "cas_no": "3638-73-1",
    "key_name": "2,5-Dibromoaniline",
    "cn_name": "2,5-二溴苯胺;",
    "alternate_name": "Benzenamine, 2,5-dibromo-;Aniline, 2,5-dibromo-;2,5-Dibromobenzenamine;2,5-Dibromoaniline;NSC 88348;2,5-Dibromophenylamine",
    "duplicated_cas_no": "",
    "SMILES": "NC1=C(Br)C=CC(Br)=C1",
    "meta_data": {
        "InChI": "InChI=1S/C6H5Br2N/c7-4-1-2-5(8)6(9)3-4/h1-3H,9H2",
        "InChIKey": null,
        "Canonical SMILES": "BrC1=CC=C(Br)C(N)=C1",
        "Molecular Formula": "C<sub>6</sub>H<sub>5</sub>Br<sub>2</sub>N",
        "Molecular Mass": "250.92",
        "Melting Point": "54.5-55 °C",
        "Density": "1.78 g/cm³"
    }
}