{
    "cas_no": "678-26-2",
    "key_name": "Perfluoropentane",
    "cn_name": "十二氟戊烷;全氟戊烷;全氟正戊烷;",
    "alternate_name": "Pentane, 1,1,1,2,2,3,3,4,4,5,5,5-dodecafluoro-;Pentane, dodecafluoro-;1,1,1,2,2,3,3,4,4,5,5,5-Dodecafluoropentane;Dodecafluoropentane;Perfluoropentane;Perfluoro-<em>n</em>-pentane;Flutec PP 50;R 41(12);PF 5050;Fluorinert FC 87;FC 87;Perflenapent;Fluorinert PF 5050;QW 7437;R-4112;PFC 41-12;FC 4112;NVX 108",
    "duplicated_cas_no": "96162-24-2;128664-89-1",
    "SMILES": "C(C(C(F)(F)F)(F)F)(C(C(F)(F)F)(F)F)(F)F",
    "meta_data": {
        "InChI": "InChI=1S/C5F12/c6-1(7,2(8,9)4(12,13)14)3(10,11)5(15,16)17",
        "InChIKey": null,
        "Canonical SMILES": "FC(F)(F)C(F)(F)C(F)(F)C(F)(F)C(F)(F)F",
        "Molecular Formula": "C<sub>5</sub>F<sub>12</sub>",
        "Molecular Mass": "288.03",
        "Boiling Point": "29.2 °C",
        "Melting Point": "-100 °C",
        "Density": "1.6200 g/cm³ @ Temp: 20 °C"
    }
}