{
    "cas_no": "14337-53-2",
    "key_name": "5-Br-PADAP",
    "cn_name": "2-[(5-溴-2-吡啶基)偶氮]-5-二乙基氨基苯酚;2-[(5-溴-2-吡啶)偶氮]-5-二乙氨基苯酚;2-[(5-溴-2-吡啶)-偶氮];",
    "alternate_name": "Phenol, 2-[2-(5-bromo-2-pyridinyl)diazenyl]-5-(diethylamino)-;Phenol, 2-[(5-bromo-2-pyridyl)azo]-5-(diethylamino)-;Phenol, 2-[(5-bromo-2-pyridinyl)azo]-5-(diethylamino)-;2-[2-(5-Bromo-2-pyridinyl)diazenyl]-5-(diethylamino)phenol;2-(5-Bromo-2-pyridylazo)-5-(diethylamino)phenol;5-Br-PADAP;2-(5-Bromo-2-pyridinylazo)-5-(diethylamino)phenol;2-(5′-Bromo-2′-pyridylazo)-5-(diethylamino)phenol;5-Bromo-PADAP;5-Bromo-DEPAP;2-(5-Bromo-2-pyridylazo)-5-diethylaminephenol;NSC 367081;5-Br-DEPAP;2-((5-Bromopyridin-2-yl)diazenyl)-5-(diethylamino)phenol",
    "duplicated_cas_no": "116044-34-9;94317-78-9",
    "SMILES": "N(CC)(CC)C1=CC(O)=C(N=NC2=CC=C(Br)C=N2)C=C1",
    "meta_data": {
        "InChI": "InChI=1S/C15H17BrN4O/c1-3-20(4-2)12-6-7-13(14(21)9-12)18-19-15-8-5-11(16)10-17-15/h5-10,21H,3-4H2,1-2H3",
        "InChIKey": null,
        "Canonical SMILES": "BrC1=CN=C(N=NC2=CC=C(C=C2O)N(CC)CC)C=C1",
        "Molecular Formula": "C<sub>15</sub>H<sub>17</sub>BrN<sub>4</sub>O",
        "Molecular Mass": "349.23",
        "Melting Point": "157-158 °C"
    }
}