{
    "cas_no": "109-07-9",
    "key_name": "2-Methylpiperazine",
    "cn_name": "2-甲基哌嗪;",
    "alternate_name": "Piperazine, 2-methyl-;Piperazine, 2-methyl-, (±)-;2-Methylpiperazine;(±)-2-Methylpiperazine;NSC 5277",
    "duplicated_cas_no": "75364-79-3",
    "SMILES": "CC1CNCCN1",
    "meta_data": {
        "InChI": "InChI=1S/C5H12N2/c1-5-4-6-2-3-7-5/h5-7H,2-4H2,1H3",
        "InChIKey": null,
        "Canonical SMILES": "N1CCNC(C)C1",
        "Molecular Formula": "C<sub>5</sub>H<sub>12</sub>N<sub>2</sub>",
        "Molecular Mass": "100.16",
        "Boiling Point": "153 °C",
        "Melting Point": "62 °C"
    }
}