{
    "cas_no": "38136-29-7",
    "key_name": "4-Methylpentanoyl chloride",
    "cn_name": "异己酰氯;4-甲基戊酰氯;",
    "alternate_name": "Pentanoyl chloride, 4-methyl-;4-Methylpentanoyl chloride;Isocaproyl chloride;4-Methylvaleryl chloride;Isohexanoyl chloride;4-Methylvaleroyl chloride;γ-Methylvaleryl chloride;4-Methylvaleric acid chloride;γ-Methylvaleroyl chloride",
    "duplicated_cas_no": "",
    "SMILES": "C(CC(Cl)=O)C(C)C",
    "meta_data": {
        "InChI": "InChI=1S/C6H11ClO/c1-5(2)3-4-6(7)8/h5H,3-4H2,1-2H3",
        "InChIKey": null,
        "Canonical SMILES": "O=C(Cl)CCC(C)C",
        "Molecular Formula": "C<sub>6</sub>H<sub>11</sub>ClO",
        "Molecular Mass": "134.60",
        "Boiling Point": "141-142 °C"
    }
}