{
    "cas_no": "6006-95-7",
    "key_name": "Pentadecylcyclohexane",
    "cn_name": null,
    "alternate_name": "Cyclohexane, pentadecyl-;Pentadecane, 1-cyclohexyl-;Pentadecylcyclohexane;<em>n</em>-Pentadecylcyclohexane;1-Cyclohexylpentadecane",
    "duplicated_cas_no": "",
    "SMILES": "C(CCCCCCCCCCCCCC)C1CCCCC1",
    "meta_data": {
        "InChI": "InChI=1S/C21H42/c1-2-3-4-5-6-7-8-9-10-11-12-13-15-18-21-19-16-14-17-20-21/h21H,2-20H2,1H3",
        "InChIKey": null,
        "Canonical SMILES": "CCCCCCCCCCCCCCCC1CCCCC1",
        "Molecular Formula": "C<sub>21</sub>H<sub>42</sub>",
        "Molecular Mass": "294.56",
        "Boiling Point": "373 °C",
        "Melting Point": "29 °C",
        "Density": "0.823 g/cm³ @ Temp: 30 °C"
    }
}