{
    "cas_no": "30377-52-7",
    "key_name": "Ethyl 2,2,3,3,4,4,5,5,6,6,7,7,8,8,9,9,9-heptadecafluorononanoate",
    "cn_name": "全氟壬酸乙酯;",
    "alternate_name": "Nonanoic acid, 2,2,3,3,4,4,5,5,6,6,7,7,8,8,9,9,9-heptadecafluoro-, ethyl ester;Nonanoic acid, heptadecafluoro-, ethyl ester;Ethyl 2,2,3,3,4,4,5,5,6,6,7,7,8,8,9,9,9-heptadecafluorononanoate;Ethyl perfluorononanoate;Ethyl perfluoropelargonate;Ethyl perfluorononan-1-oate",
    "duplicated_cas_no": "",
    "SMILES": "C(C(C(C(C(F)(F)F)(F)F)(F)F)(F)F)(C(C(C(C(OCC)=O)(F)F)(F)F)(F)F)(F)F",
    "meta_data": {
        "InChI": "InChI=1S/C11H5F17O2/c1-2-30-3(29)4(12,13)5(14,15)6(16,17)7(18,19)8(20,21)9(22,23)10(24,25)11(26,27)28/h2H2,1H3",
        "InChIKey": null,
        "Canonical SMILES": "O=C(OCC)C(F)(F)C(F)(F)C(F)(F)C(F)(F)C(F)(F)C(F)(F)C(F)(F)C(F)(F)F",
        "Molecular Formula": "C<sub>11</sub>H<sub>5</sub>F<sub>17</sub>O<sub>2</sub>",
        "Molecular Mass": "492.13",
        "Boiling Point": "105 °C @ Press: 20 Torr",
        "Density": "1.61 g/cm³"
    }
}