{
    "cas_no": "136-60-7",
    "key_name": "Butyl benzoate",
    "cn_name": "苯甲酸丁酯;",
    "alternate_name": "Benzoic acid, butyl ester;Butyl benzoate;<em>n</em>-Butyl benzoate;Chemcryl C 101N;IP Carrier N 20;Benzoic acid <em>n</em>-butyl ester;NSC 8474",
    "duplicated_cas_no": "",
    "SMILES": "C(OCCCC)(=O)C1=CC=CC=C1",
    "meta_data": {
        "InChI": "InChI=1S/C11H14O2/c1-2-3-9-13-11(12)10-7-5-4-6-8-10/h4-8H,2-3,9H2,1H3",
        "InChIKey": null,
        "Canonical SMILES": "O=C(OCCCC)C=1C=CC=CC1",
        "Molecular Formula": "C<sub>11</sub>H<sub>14</sub>O<sub>2</sub>",
        "Molecular Mass": "178.23",
        "Boiling Point": "250 °C",
        "Melting Point": "-22 °C",
        "Density": "1.00 g/cm³ @ Temp: 20 °C"
    }
}