{
    "cas_no": "528-90-5",
    "key_name": "2,4,5-Trimethylbenzoic acid",
    "cn_name": "2,4,5-三甲基苯甲酸;",
    "alternate_name": "Benzoic acid, 2,4,5-trimethyl-;2,4,5-Trimethylbenzoic acid;Durylic acid;NSC 147400",
    "duplicated_cas_no": "",
    "SMILES": "C(O)(=O)C1=C(C)C=C(C)C(C)=C1",
    "meta_data": {
        "InChI": "InChI=1S/C10H12O2/c1-6-4-8(3)9(10(11)12)5-7(6)2/h4-5H,1-3H3,(H,11,12)",
        "InChIKey": null,
        "Canonical SMILES": "O=C(O)C=1C=C(C(=CC1C)C)C",
        "Molecular Formula": "C<sub>10</sub>H<sub>12</sub>O<sub>2</sub>",
        "Molecular Mass": "164.20",
        "Boiling Point": "193-206 °C @ Press: 33 Torr",
        "Melting Point": "148-149 °C",
        "Density": "1.21 g/cm³"
    }
}