{
    "cas_no": "24680-50-0",
    "key_name": "<em>trans</em>-4-Methoxycinnamaldehyde",
    "cn_name": null,
    "alternate_name": "2-Propenal, 3-(4-methoxyphenyl)-, (2<em>E</em>)-;Cinnamaldehyde, <em>p</em>-methoxy-, (<em>E</em>)-;2-Propenal, 3-(4-methoxyphenyl)-, (<em>E</em>)-;(2<em>E</em>)-3-(4-Methoxyphenyl)-2-propenal;(<em>E</em>)-<em>p</em>-Methoxycinnamaldehyde;(<em>E</em>)-4′-Methoxycinnamaldehyde;<em>trans</em>-<em>p</em>-Methoxycinnamaldehyde;<em>trans</em>-4-Methoxycinnamaldehyde;(<em>E</em>)-3-(4-Methoxyphenyl)-2-propenal;(<em>E</em>)-4-Methoxycinnamaldehyde;NSC 134287;(<em>E</em>)-3-(4-Methoxyphenyl)propenal;trans-3-(4-Methoxyphenyl)acrolein;<em>E</em>-3-(4-Methoxyphenyl)acrylaldehyde;<em>trans</em>-3-(4-Methoxyphenyl)prop-2-enal;(E)-3-(4-Methoxyphenyl)acrylaldehyde;(<em>E</em>)-3-(4-methoxyphenyl)acrylaldehyde;(E)-3-(4-Methoxyphenyl)acrolein;PPC 007;(E)-4-Methoxycinnamaldehyde;(E)-3-(4-Methoxyphenyl)-2-propenal",
    "duplicated_cas_no": "",
    "SMILES": "C(=C/C=O)\\C1=CC=C(OC)C=C1",
    "meta_data": {
        "InChI": "InChI=1S/C10H10O2/c1-12-10-6-4-9(5-7-10)3-2-8-11/h2-8H,1H3/b3-2+",
        "InChIKey": null,
        "Canonical SMILES": "O=CC=CC1=CC=C(OC)C=C1",
        "Molecular Formula": "C<sub>10</sub>H<sub>10</sub>O<sub>2</sub>",
        "Molecular Mass": "162.19",
        "Boiling Point": "115-116 °C @ Press: 1 Torr",
        "Melting Point": "57-58 °C"
    }
}