{
    "cas_no": "117467-28-4",
    "key_name": "Cefditoren pivoxil",
    "cn_name": "头孢妥仑匹酯;2,2-二甲基丙酰氧甲基(6R,7R)-7-[(Z)-2-(2-氨基-4-噻唑基)-2-甲氧基亚氨乙酰氨基]-3-[(Z)-2-(;",
    "alternate_name": "5-Thia-1-azabicyclo[4.2.0]oct-2-ene-2-carboxylic acid, 7-[[(2<em>Z</em>)-2-(2-amino-4-thiazolyl)-2-(methoxyimino)acetyl]amino]-3-[(1<em>Z</em>)-2-(4-methyl-5-thiazolyl)ethenyl]-8-oxo-, (2,2-dimethyl-1-oxopropoxy)methyl ester, (6<em>R</em>,7<em>R</em>)-;5-Thia-1-azabicyclo[4.2.0]oct-2-ene-2-carboxylic acid, 7-[[(2-amino-4-thiazolyl)(methoxyimino)acetyl]amino]-3-[2-(4-methyl-5-thiazolyl)ethenyl]-8-oxo-, (2,2-dimethyl-1-oxopropoxy)methyl ester, [6<em>R</em>-[3(<em>Z</em>),6α,7β(<em>Z</em>)]]-;5-Thia-1-azabicyclo[4.2.0]oct-2-ene-2-carboxylic acid, 7-[[(2<em>Z</em>)-(2-amino-4-thiazolyl)(methoxyimino)acetyl]amino]-3-[(1<em>Z</em>)-2-(4-methyl-5-thiazolyl)ethenyl]-8-oxo-, (2,2-dimethyl-1-oxopropoxy)methyl ester, (6<em>R</em>,7<em>R</em>)-;ME 1207;Cefditoren pivoxil;Cefditoren pivoxyl;Meiact;Spectracef;CCRIS 7768;Cefditoren pivaloyloxymethyl ester;Cefditorin;Zostum-O;Cefditran;Ceftorin",
    "duplicated_cas_no": "",
    "SMILES": "C(OCOC(C(C)(C)C)=O)(=O)C=1N2[C@@]([C@H](NC(/C(=N\\OC)/C3=CSC(N)=N3)=O)C2=O)(SCC1/C=C\\C4=C(C)N=CS4)[H]",
    "meta_data": {
        "InChI": "InChI=1S/C25H28N6O7S3/c1-12-15(41-10-27-12)7-6-13-8-39-21-17(29-19(32)16(30-36-5)14-9-40-24(26)28-14)20(33)31(21)18(13)22(34)37-11-38-23(35)25(2,3)4/h6-7,9-10,17,21H,8,11H2,1-5H3,(H2,26,28)(H,29,32)/b7-6-,30-16-/t17-,21-/m1/s1",
        "InChIKey": null,
        "Canonical SMILES": "O=C(OCOC(=O)C(C)(C)C)C1=C(C=CC=2SC=NC2C)CSC3N1C(=O)C3NC(=O)C(=NOC)C=4N=C(SC4)N",
        "Molecular Formula": "C<sub>25</sub>H<sub>28</sub>N<sub>6</sub>O<sub>7</sub>S<sub>3</sub>",
        "Molecular Mass": "620.72",
        "Melting Point": "127-129 °C"
    }
}