{
    "cas_no": "120157-97-3",
    "key_name": "1,1-Dimethylethyl <em>N</em>-[2-(4-bromophenyl)ethyl]carbamate",
    "cn_name": null,
    "alternate_name": "Carbamic acid, <em>N</em>-[2-(4-bromophenyl)ethyl]-, 1,1-dimethylethyl ester;Carbamic acid, [2-(4-bromophenyl)ethyl]-, 1,1-dimethylethyl ester;1,1-Dimethylethyl <em>N</em>-[2-(4-bromophenyl)ethyl]carbamate;2-(4-Bromophenyl)-<em>N</em>-(<em>t</em>-butoxycarbonyl)ethylamine;<em>N</em>-Boc-4-bromophenethylamine;<em>N</em>-[2-(4-Bromophenyl)ethyl]carbamic acid tert-butyl ester;<em>tert</em>-Butyl <em>N</em>-[2-(4-bromophenyl)ethyl]carbamate;<em>tert</em>-Butyl 4-bromophenethylcarbamate;<em>N</em>-<em>tert</em>-Butoxycarbonyl-2-(4-bromophenyl)ethylamine",
    "duplicated_cas_no": "",
    "SMILES": "C(CNC(OC(C)(C)C)=O)C1=CC=C(Br)C=C1",
    "meta_data": {
        "InChI": "InChI=1S/C13H18BrNO2/c1-13(2,3)17-12(16)15-9-8-10-4-6-11(14)7-5-10/h4-7H,8-9H2,1-3H3,(H,15,16)",
        "InChIKey": null,
        "Canonical SMILES": "O=C(OC(C)(C)C)NCCC1=CC=C(Br)C=C1",
        "Molecular Formula": "C<sub>13</sub>H<sub>18</sub>BrNO<sub>2</sub>",
        "Molecular Mass": "300.19",
        "Melting Point": "58-59 °C"
    }
}