{
    "cas_no": "13832-70-7",
    "key_name": "Stearyl glycyrrhetinate",
    "cn_name": "硬脂醇甘草亭酸酯;",
    "alternate_name": "Olean-12-en-29-oic acid, 3-hydroxy-11-oxo-, octadecyl ester, (3β,20β)-;Olean-12-en-30-oic acid, 3β-hydroxy-11-oxo-, octadecyl ester;Stearyl glycyrrhetinate;α-Glycyrrhetinic acid stearyl ester;<em>n</em>-Octadecyl glycyrrhetinate;Octadecyl glycyrrhetinate;Stearyl glycyrrhetate;CO-Grhetinol;Sea og Retinol",
    "duplicated_cas_no": "34348-57-7;153953-28-7",
    "SMILES": "C[C@]12[C@@]3(C)[C@@]([C@]4(C)[C@@](CC3)(C(C)(C)[C@@H](O)CC4)[H])(C(=O)C=C1[C@]5([C@@](C)(CC2)CC[C@@](C(OCCCCCCCCCCCCCCCCCC)=O)(C)C5)[H])[H]",
    "meta_data": {
        "InChI": "InChI=1S/C48H82O4/c1-9-10-11-12-13-14-15-16-17-18-19-20-21-22-23-24-33-52-42(51)45(5)30-29-44(4)31-32-47(7)36(37(44)35-45)34-38(49)41-46(6)27-26-40(50)43(2,3)39(46)25-28-48(41,47)8/h34,37,39-41,50H,9-33,35H2,1-8H3/t37-,39-,40-,41+,44+,45-,46-,47+,48+/m0/s1",
        "InChIKey": null,
        "Canonical SMILES": "O=C(OCCCCCCCCCCCCCCCCCC)C1(C)CCC2(C)CCC3(C(=CC(=O)C4C5(C)CCC(O)C(C)(C)C5CCC43C)C2C1)C",
        "Molecular Formula": "C<sub>48</sub>H<sub>82</sub>O<sub>4</sub>",
        "Molecular Mass": "723.16",
        "Melting Point": "116-118 °C"
    }
}