{
    "cas_no": "3901-07-3",
    "key_name": "Methyl <em>trans</em>-4-methoxycinnamate",
    "cn_name": null,
    "alternate_name": "2-Propenoic acid, 3-(4-methoxyphenyl)-, methyl ester, (2<em>E</em>)-;Cinnamic acid, <em>p</em>-methoxy-, methyl ester, (<em>E</em>)-;2-Propenoic acid, 3-(4-methoxyphenyl)-, methyl ester, (<em>E</em>)-;Methyl <em>trans</em>-<em>p</em>-methoxycinnamate;4-Methoxy-<em>trans</em>-cinnamic acid methyl ester;Methyl (<em>E</em>)-<em>p</em>-methoxycinnamate;Methyl (<em>E</em>)-3-(4-methoxyphenyl)propenoate;Methyl <em>p</em>-methoxy-<em>trans</em>-cinnamate;Methyl <em>trans</em>-4-methoxycinnamate;(2<em>E</em>)-3-(4-Methoxyphenyl)-2-propenoic acid methyl ester;(<em>E</em>)-Methyl 4-methoxycinnamate;(<em>E</em>)-Methyl 3-(4-methoxyphenyl)acrylate;(E)-Methyl 3-(4-methoxyphenyl)acrylate;Methyl (E)-3-(4-methoxyphenyl)acrylate;Methyl (E)-3-(4′-methoxyphenyl)acrylate;Methyl (<em>E</em>)-3-(4-methoxyphenyl)-2-propenoate",
    "duplicated_cas_no": "",
    "SMILES": "C(=C/C(OC)=O)\\C1=CC=C(OC)C=C1",
    "meta_data": {
        "InChI": "InChI=1S/C11H12O3/c1-13-10-6-3-9(4-7-10)5-8-11(12)14-2/h3-8H,1-2H3/b8-5+",
        "InChIKey": null,
        "Canonical SMILES": "O=C(OC)C=CC1=CC=C(OC)C=C1",
        "Molecular Formula": "C<sub>11</sub>H<sub>12</sub>O<sub>3</sub>",
        "Molecular Mass": "192.21",
        "Melting Point": "86.5 °C"
    }
}