{
    "cas_no": "2345-38-2",
    "key_name": "(Trimethylsilyl)acetic acid",
    "cn_name": "2-(三甲基硅烷)乙酸;",
    "alternate_name": "Acetic acid, 2-(trimethylsilyl)-;Acetic acid, (trimethylsilyl)-;2-(Trimethylsilyl)acetic acid;(Trimethylsilyl)acetic acid",
    "duplicated_cas_no": "",
    "SMILES": "C([Si](C)(C)C)C(O)=O",
    "meta_data": {
        "InChI": "InChI=1S/C5H12O2Si/c1-8(2,3)4-5(6)7/h4H2,1-3H3,(H,6,7)",
        "InChIKey": null,
        "Canonical SMILES": "O=C(O)C[Si](C)(C)C",
        "Molecular Formula": "C<sub>5</sub>H<sub>12</sub>O<sub>2</sub>Si",
        "Molecular Mass": "132.23",
        "Boiling Point": "90-905 °C @ Press: 10 Torr",
        "Melting Point": "40-42 °C"
    }
}