{
    "cas_no": "2689-68-1",
    "key_name": "3-Thiophenecarboxylic acid, tetrahydro-4-oxo-, methyl ester",
    "cn_name": "4-氧代四氢噻酚-3-羧酸甲酯;",
    "alternate_name": "3-Thiophenecarboxylic acid, tetrahydro-4-oxo-, methyl ester;4-Carbomethoxy-3-thiophanone;Methyl tetrahydro-4-oxo-3-thiophenecarboxylate;Methyl 4-oxo-2,3,4,5-tetrahydrothiophene-3-carboxylate;Tetrahydro-4-oxo-3-thiophenecarboxylic acid methyl ester;4-Carbomethoxy-2,3,4,5-tetrahydro-3-thiophenone;Methyl 4-oxotetrahydrothiophene-3-carboxylate;Methyl 4-oxotetrahydrothienyl-3-carboxylate;NSC 127560;4-Oxotetrahydrothiophene-3-carboxylic acid methyl ester",
    "duplicated_cas_no": "99328-39-9",
    "SMILES": "C(OC)(=O)C1C(=O)CSC1",
    "meta_data": {
        "InChI": "InChI=1S/C6H8O3S/c1-9-6(8)4-2-10-3-5(4)7/h4H,2-3H2,1H3",
        "InChIKey": null,
        "Canonical SMILES": "O=C(OC)C1C(=O)CSC1",
        "Molecular Formula": "C<sub>6</sub>H<sub>8</sub>O<sub>3</sub>S",
        "Molecular Mass": "160.19",
        "Boiling Point": "128.5-129.5 °C @ Press: 20 Torr",
        "Melting Point": "37-38 °C"
    }
}