{
    "cas_no": "18503-89-4",
    "key_name": "<em>N</em>,<em>N</em>-Dimethyl-1,1-bis(1-methylethoxy)methanamine",
    "cn_name": "1,1-二异丙氧基三甲胺;N,N-二甲基甲酰胺二异丙基缩醛;",
    "alternate_name": "Methanamine, <em>N</em>,<em>N</em>-dimethyl-1,1-bis(1-methylethoxy)-;Trimethylamine, 1,1-diisopropoxy-;<em>N</em>,<em>N</em>-Dimethyl-1,1-bis(1-methylethoxy)methanamine;Dimethylformamide diisopropyl acetal;<em>N</em>,<em>N</em>-Dimethylformamide diisopropyl acetal;DMF diisopropyl acetal;N,N-Dimethylformamide diisopropyl acetal",
    "duplicated_cas_no": "",
    "SMILES": "C(OC(C)C)(OC(C)C)N(C)C",
    "meta_data": {
        "InChI": "InChI=1S/C9H21NO2/c1-7(2)11-9(10(5)6)12-8(3)4/h7-9H,1-6H3",
        "InChIKey": null,
        "Canonical SMILES": "O(C(OC(C)C)N(C)C)C(C)C",
        "Molecular Formula": "C<sub>9</sub>H<sub>21</sub>NO<sub>2</sub>",
        "Molecular Mass": "175.27",
        "Boiling Point": "152-155 °C @ Press: 760 Torr",
        "Density": "0.8522 g/cm³ @ Temp: 20 °C"
    }
}