{
    "cas_no": "1504-06-9",
    "key_name": "3-Methyloxindole",
    "cn_name": "3-甲基羟基吲哚;3-甲基羟基吲哚,97%;3-甲基羟基吲哚;",
    "alternate_name": "2<em>H</em>-Indol-2-one, 1,3-dihydro-3-methyl-;2-Indolinone, 3-methyl-;Oxindole, 3-methyl-;1,3-Dihydro-3-methyl-2<em>H</em>-indol-2-one;3-Methyloxindole;3-Methyl-2-oxindole;3-Methyl-2-indolinone;3-Methyl-2,3-dihydro-1<em>H</em>-indol-2-one;3-Methyl-1,3-dihydroindol-2-one",
    "duplicated_cas_no": "105703-69-3;128658-04-8",
    "SMILES": "CC1C=2C(NC1=O)=CC=CC2",
    "meta_data": {
        "InChI": "InChI=1S/C9H9NO/c1-6-7-4-2-3-5-8(7)10-9(6)11/h2-6H,1H3,(H,10,11)",
        "InChIKey": null,
        "Canonical SMILES": "O=C1NC=2C=CC=CC2C1C",
        "Molecular Formula": "C<sub>9</sub>H<sub>9</sub>NO",
        "Molecular Mass": "147.17",
        "Melting Point": "123-124 °C"
    }
}