{
    "cas_no": "7447-41-8",
    "key_name": "Lithium chloride",
    "cn_name": "氯化锂;",
    "alternate_name": "Lithium chloride (LiCl);Lithium chloride;Lithium monochloride;NSC 327172;Lithium Chloride Solution N;MeSH ID: D018021;Lithium chloride (LiCl<sub>5</sub>)",
    "duplicated_cas_no": "404596-80-1;1220508-63-3;1309791-76-1;2018280-04-9;2764904-34-7;2913215-68-4",
    "SMILES": "Cl[Li]",
    "meta_data": {
        "InChI": "InChI=1S/ClH.Li/h1H;/q;+1/p-1",
        "InChIKey": null,
        "Canonical SMILES": "[Li]Cl",
        "Molecular Formula": "ClLi",
        "Molecular Mass": "",
        "Boiling Point": "1360 °C",
        "Melting Point": "613 °C",
        "Density": "2.07 g/cm³"
    }
}