{
    "cas_no": "41234-43-9",
    "key_name": "Ethyl 1,2,3,4-tetrahydro-3-isoquinolinecarboxylate",
    "cn_name": null,
    "alternate_name": "3-Isoquinolinecarboxylic acid, 1,2,3,4-tetrahydro-, ethyl ester;Ethyl 1,2,3,4-tetrahydro-3-isoquinolinecarboxylate;Ethyl 1,2,3,4-tetrahydroisoquinoline-3-carboxylate;(±)-Ethyl 1,2,3,4-tetrahydroisoquinoline-3-carboxylate;1,2,3,4-Tetrahydroisoquinoline-3-carboxylic acid ethyl ester",
    "duplicated_cas_no": "55857-63-1",
    "SMILES": "C(OCC)(=O)C1CC=2C(CN1)=CC=CC2",
    "meta_data": {
        "InChI": "InChI=1S/C12H15NO2/c1-2-15-12(14)11-7-9-5-3-4-6-10(9)8-13-11/h3-6,11,13H,2,7-8H2,1H3",
        "InChIKey": null,
        "Canonical SMILES": "O=C(OCC)C1NCC=2C=CC=CC2C1",
        "Molecular Formula": "C<sub>12</sub>H<sub>15</sub>NO<sub>2</sub>",
        "Molecular Mass": "205.25",
        "Boiling Point": "120 °C @ Press: 1 Torr",
        "Melting Point": "204 °C"
    }
}