{
    "cas_no": "4653-11-6",
    "key_name": "2-Thiophenebutanoic acid",
    "cn_name": "4-(2-噻吩)丁酸;4-2-噻吩丁酸;",
    "alternate_name": "2-Thiophenebutanoic acid;2-Thiophenebutyric acid;4-(2-Thienyl)butyric acid;4-(2-Thienyl)butanoic acid;4-Thiophen-2-ylbutyric acid;4-(Thiophen-2-yl)butanoic acid",
    "duplicated_cas_no": "",
    "SMILES": "C(CCC(O)=O)C1=CC=CS1",
    "meta_data": {
        "InChI": "InChI=1S/C8H10O2S/c9-8(10)5-1-3-7-4-2-6-11-7/h2,4,6H,1,3,5H2,(H,9,10)",
        "InChIKey": null,
        "Canonical SMILES": "O=C(O)CCCC=1SC=CC1",
        "Molecular Formula": "C<sub>8</sub>H<sub>10</sub>O<sub>2</sub>S",
        "Molecular Mass": "170.23",
        "Boiling Point": "130-134 °C @ Press: 1.5 Torr",
        "Melting Point": "13.5-15 °C",
        "Density": "1.184 g/cm³ @ Temp: 19 °C"
    }
}