{
    "cas_no": "1162-53-4",
    "key_name": "16-Dehydropregnenolone",
    "cn_name": "16-妊娠双烯醇酮;3beta-羟基孕甾-5,16-二烯-20-酮;",
    "alternate_name": "Pregna-5,16-dien-20-one, 3-hydroxy-, (3β)-;Pregna-5,16-dien-20-one, 3β-hydroxy-;(3β)-3-Hydroxypregna-5,16-dien-20-one;16-Dehydropregnenolone;3β-Hydroxypregna-5,16-dien-20-one;Δ<sup>16</sup>-Pregnenolone;16-Dehydropregnolone;3β-Hydroxy-Δ<sup>5,16</sup>-pregnadien-20-one;3β-Hydroxy-20-oxopregna-5,16-diene;Pregna-5,16-dien-3β-ol-20-one;NSC 15467;Pregnadienolone;(-)-Pregnadienolone",
    "duplicated_cas_no": "",
    "SMILES": "C[C@@]12[C@@]3([C@]([C@]4([C@](C)(CC3)C(C(C)=O)=CC4)[H])(CC=C1C[C@@H](O)CC2)[H])[H]",
    "meta_data": {
        "InChI": "InChI=1S/C21H30O2/c1-13(22)17-6-7-18-16-5-4-14-12-15(23)8-10-20(14,2)19(16)9-11-21(17,18)3/h4,6,15-16,18-19,23H,5,7-12H2,1-3H3/t15-,16-,18-,19-,20-,21+/m0/s1",
        "InChIKey": null,
        "Canonical SMILES": "O=C(C1=CCC2C3CC=C4CC(O)CCC4(C)C3CCC12C)C",
        "Molecular Formula": "C<sub>21</sub>H<sub>30</sub>O<sub>2</sub>",
        "Molecular Mass": "314.46",
        "Melting Point": "212-214 °C"
    }
}