{
    "cas_no": "9003-22-9",
    "key_name": "Vinyl acetate-vinyl chloride copolymer",
    "cn_name": null,
    "alternate_name": "Acetic acid ethenyl ester, polymer with chloroethene;Acetic acid vinyl ester, polymer with chloroethylene;Ethylene, chloro-, polymer with vinyl acetate;Ethene, chloro-, polymer with ethenyl acetate;Vinyon;Corvic 51/83;Rhodopas 6000;Vinylite VYHH;Vinylite VYNS;Vinyl chloride-vinyl acetate copolymer;Vinyl acetate-vinyl chloride polymer;Exon 470;Vinyl chloride-vinyl acetate polymer;Geon 440L2;Vinylite VYHH 1;Vinylite VYDR;VYHH;Vinylite VYNW 5;Bakelite VYHH;Chloroethylene-vinyl acetate polymer;Exon 760;Geon 103EP-J;Geon 135;Geon 450x150PN;Marvinol VP 56;Pevikon C 870;Geon 100X150;Corvic 236581;Bakelite VLFV;A 15;Vilit 40;Bakelite VSJD 10;Breon 425;Diamond Shamrock 7401;Diamond Shamrock 744;Exon 450;Exon 454;Exon 481;Geon 130X10;Geon 351;Geon 400X47;Geon 434;Lucovyl GA 8502;Pliovic AO;Polyvinyl chloride-polyvinyl acetate;Resin 4301;Solvic 513PB;VH 10/60;Vinylite VGHH;Vinylite VYHD;Vinylite VYNW;VYNS;Lucovyl MA 6028;Opalon 400;Geon 427;Bakelite VYHD;Vinnol H 15/45;Vinnol H 40/60;Breon 351;Rhodopas AX;Geon 421;Vinylite VYNS 3;Lucovyl PA 1302;PVC Cordo;Denka Vinyl MM 90;Vinnol H 10/60;Rhodopas AX 85/15;Rhodopas AX 30/10;VYNW;Vinylite VYDR 21;Flovic;Hostalit PVP;Corvic R 46/88;Vinylite VYFS;Bakelite LP 70;VA 3;Geon 150XML;Lucovyl PA 1208;Solvic PA 513;Geon 103ZX;Breon AS 60/41;VA 3 (copolymer);Norvinyl P 6;Sarpifan HP 1;VLVF;Solvic 523KC;Sumilit PCX;50ME;A 15S (polymer);Bakelite VYNS;Bakelite VYNW;A 15 (polymer);Denkalac 41M;Bakelite VYHN;Sconatex;S 2803;Tygon;Denka AC 50;Vygen 220;Hostaflex VP 150;Cemedine 201;Vinacet 70/5;Denkalac 21;MA 800S;Vinyblan 386;Geon 103EP8J;Hostalit PA 5470/5;Tenneco 501;Tenneco 521;Denka Vinyl 1000S;Lucovyl SA 6001;Lucovyl MA 6035;Vinnol H 13/50S;Solvic 547SA;KhS 791;Denka 1000D;Vilit AS 42;Vilit AS 47;Vilit AC 43;Geon 135J;Sicron 822;Ryuron 710B;SC 500T;Breon AS 70/42;Denka 1000A;Geon 400X150ML;KhS 567;Bakelite VYLF;T 0765;Kanevilac LE;Kanevilac LCQ;Vinychlon 1000;Denka Vinyl 1000A;Geon 130X24;OH-DEX;Slovinyl KV 172;Geon 400X150P;Vinylite R;Denkalac 2.1;SC 400G;Aron 321;1000L;VA 15;SC 4000;Vinnol H 40/55;KhS 717;Denka Vinyl M 70;Shinetsulac EH 36;Vinnol E 15/45;Vinacet 60/10;Viplavil TJT;Denka Vinyl 1000LT<sub>3</sub>;Denka Vinyl 1000GS;Solvic 550GA;Kanevinyl M 1008;PS 402HS;Corvic Q 44/62;Bond VL 30;Denka Vinyl 1000AS;Vinika P 400;Vylit;Nipolit MR;Nipolit MH;Denka 1000G;CL 4520;Kanevinyl PBM 11;Kanevinyl PCH 12;Kanevilac L-GT;Kanevinyl RB 410;Denka Vinyl 100C;RB 4-10;Vilit 50;Termolen;S-Dine KX 13C;Geon 400-150P;Duco 9.92;Duco 835.90010;Solvic 547A;Slovinyl KA;PVC 74;T 318;Vinika 51ME;51ME;Kanevilac LCS;Vinyblan 610;CL 5440;Vinnol H 15/50;Kanevinyl PCM 12;S-Lec CN;S-Lec CL;S-Lec MPR-TA;S-Lec C;S-Lec L;Vinyl acetate-vinyl chloride copolymer;Kaneka MB 1008;Vinnol H 15/45M;Slovinyl KR 081;KhS 724;BR 521;Kaneka M 1008;MPR-TA 5C;Kanevinyl M 1007;Geon 400X150Z;VC 113;Corvic 23-4682;Vinylite VY;Slovinyl KV 171;Vestolit E 7091;MC 1000 (vinyl polymer);MC 1000;A 25 (vinyl polymer);Denka Vinyl 1000D;Denkatex AC 26;VC 265;A 25;MA 700;SC 400A;SIP 561;DB 101;Vinacet 50-15G;Vinacet 60-10I;VA 4;Geon 430C17;Geon 401C29;Geon 430C19;Denka Vinyl SM 160;Vinylite UYHH;103ZX;Cemedine 181;MPR 40;Denkatex K 300L;Denka Vinyl 1000MT;DB 101 (vinyl polymer);Denka Vinyl M 120;Corvic 47/488;VRC-A 101;Denka Vinyl ME 120;Geon 150X50;Bakelite VYNC;TC 705;Ucar VYNC;Hostaflex CM 131;A 200D;Geon 38J;Denka Vinyl 1000LCH;UIHH;MPR-DSA 2;Scotchcal 3920;Ucar AW 850;Tenneco 0565;Oxy 6338;Geon 37J;Denkalac 21K;Ryuron 850;Vinylite VYGH;1000L (vinyl polymer);Vinylite VYNC;SCP-A (vinyl polymer);SCP-A;Vinika P 500;38JK;PCH 12Z;Geon 54J;Geon 590X20;38J;A 15S;Vinacet 50/15;Vinnol H 10-60S;Vinnol VF 1048;MPR-TSN;Denkalac 61N;Vinnol E 5/65L;Vinnol C 8/62V;Vinyblan 601;400K110A;Ucarmag 527;Ucar VYNS;TA 5C;Vinyblan 240;VM Pearl Medium;VYNS 3;Vinyblan 550;FHS 1;Denkalac 1000D;Geon 51;Vinika 51SF;Oxy 315;Sunar SC 710A;Sunar SC 705A;Oxy 390;SB 500;Vinnol E 5/65C;Vinnol E 10/65;T 318 (vinyl polymer);Unisol PVC 168;39J;SB 500 (vinyl polymer);Denkalac 1000MT;Denkalac 1000A;Geon 400X150J;P 500;Kanevilac L-CN;Oxy 565;Poly(vinyl acetate-vinyl chloride);Vygen 226;Denka Vinyl 1000AKT;Kaneka PCH 12Z;Vinychlon 1000LG;Chloroethene-vinyl acetate copolymer;MPR-TSL;Corvic C 6297;Poly(vinyl chloride-co-vinyl acetate);Denka Vinyl 1000ALK;VC 168;Vinylite VMGH;Vinnol C 14/60V;Ryuron 751;Denka Vinyl 1000NT;Vinnol 50/25C;Denka Vinyl 1000L;M 2018;S-Lec 7A;YAHH;Oxy 521;Sericol VK 911;Dicseal A 100Z5A;SA 3060/10;Solbin C 40;MB 700;Ryuron TC 806;UK Medium;Solbin C;Denka Vinyl 1000MT2;Denka Vinyyl 1000MT3;CVL-PR;MPR-TS 5;Denkalac TF 200;1000ALK;FYES 4;Kanevinyl PCH 72;Denkalac 1000AKT;Formosa F 40;TV 800;Zest P 38J;Denka Vinyl MT 2;TF 120 (polymer);TF 120;Solbin CL;Solbin C 5;Solbin CN;KhS 720;A 201D;S-Lec CH;Elex 7;KBK 12;Bakelite VYMH;Denka Vinyl 100AT;Vinyblan 602;Haulac Mat PV 25-5;Zest C 150ML;CP 4915;Ucar Vinyl VYHD;Black PVC 512975;Kanevilac L-EY;Vinnolit K 704;VYNC;Oxy 1810;10000LK2;Solbin CH;Solbin CL 2;A 100Z4;Bakelite VYES 4;Ucar VYNC-P;Vinnol 14/36;Denkalac TF 300K;Sumirez 1130;MU 6091;Daikalac 587;Vestolit B 7092;MU 1720;MU 1720 black;M 1008;Vinyblan 380;MKK Medium;Airflex CF 70;Vinylite VYLF-X;Formalon F 40;VYLF-X;LK 170;XS 581 Medium NT;1000A;Solbin C 5R;Zest C 150S;C 150S;Ucar VYHD;HND 8;Chloroethylene-vinyl acetate copolymer;Vinyblan 995;Solbin CNL;Petco CR 80A;SC 5710;VYLF;Bostik 1782;Denkalac 21ZA;VSA 880;PCH 12;VYHD;SolVin 550GA;UCAR Solution Vinyl Resin VYHD;Vinnol H 11/59;Vinyblan 603;SolVin 560RA;H 40/43;UM 50;E 5/65C;L 15/45M;L 15/45;E 15/40A;E 22;E 22 (vinyl polymer);C 8J;Colorite 4915;H 15/42;H 40/50;Lacovyl GA 7701H;GA 7701H;Univure NT-DM Medium;CL;CL (vinyl polymer);Zest 135J;Vinnol E 14/36;Vinnol E 15/42;Vinnol E 40/43;PCMA 12;VA 390;VA 380;VA 97;VM 97;T 330;Vinnolit S 3157/11;Etinox 400;V 424PCV Primer;Solbin TR 5A;VA 5;CP 430;Kanevinyl PCH 843;Dicseal A 100Z;Solbin A 5;Solbin T 3;Vinyblan 603SA;SolVin 250SB;Vinnol H 14/36;Ucar VYHH;BL 3;KM 31;MP 36;PVC Resin SPRD;MP 36 (vinyl polymer);Sunvac HH;CP 710;H 14/36;LC 40;VMC;SA Varnish;Vinnol 15/46;Lacovyl GA 6015;BL 2;Vinyblan 603EML;Solvin 557RB;Ryuron Paste L 80;Ryuron L 80;Sucar VYHH;Sucar VAGA;Sucar VAGH;Kaneka T 555M;LC 201;E 22/48;MB 1008;Kanevinyl MB 1008;CP 450;H 15-45M;L 14/60;CP 427;PCM 12;Kanevinyl HM 515;ST-P-A Varnish;Kanevinyl PCH 175;Kanevinyl Paste PCH 175;PCH 175;KCM 12;M 5;LC 070;Kanevinyl MA 1008;DA 903;Atombond 100ED Nashi;CNL;E 1321;Vinnol E 22/48;Vinisol T 32;PCH 72;R 950;PCH 22;Kanevinyl PCH 22;Solbin M 5R;WCH 388;Ucar Solution Vinyl Resin VYHH;Kanevinyl HM 612;L 14/50;PCH 04;H 40/60;Vinnol H 40/43;Vinnol H 15/42;Vinnol H 40/50;Vinnol H 5/50A;Solter VM 350;Solter VM 395;Solter VM 510;Solter T 920A;Solter T 950A;Solter VH 525;Solter VH 820;Solter VH 820P;Solter VH 860;Meidao HD 21;Meidao HD 22;Meidao HD 31;Solter VH 126;Solter Ink 3;Solter Ink 26;Solter T 55;Vinyl chloride-vinyl acetate copolymer resin;UVC 5;Ryuron Paste 950;Ryuron 950;Vinnol H 14/45M;E 15/45;BIPB-vinyl chloride copolymer;Lacovyl PA 1384;K 1F;C 1008;LX 1613;Vinnolit SA 1062/7;Solbin CR 5;PA 1384;VINN 0222/48A;Formolon F 45;P 710;VDAR 20S;UM 62;MLC 14-62;NTD 40;Ryuron Paste 952;Ryuron Paste G 50;LB 082;Ryuron G 50;A 71076;Vinnol H 14/36TF;Kanevinyl T 5DA;LX 1612T;Slovinyl KV 173;Dicseal A 100ES-G2;Solbin TASR;K 50 (vinyl copolymer);E 418 (vinyl polymer);E 418;MLC 20;PCM 07;Cellophane WSZB;Solbin CLL 2;CP 700;HX 710;Solter VM 390",
    "duplicated_cas_no": "9066-95-9;34149-92-3;39310-27-5;39433-77-7;51990-45-5;54328-26-6;54992-20-0;61037-03-4;69597-97-3;75536-81-1;79030-15-2;80342-01-4;81544-85-6;82030-19-1;82030-35-1;82030-95-3;92680-82-5;94766-13-9;100631-32-1;110737-43-4;111643-91-5;113440-63-4;121382-24-9;130123-74-9;131594-89-3;134092-22-1;139440-61-2;159814-09-2;166433-32-5;170906-13-5;290312-88-8;672314-93-1;680190-46-9;1045707-98-9;1124344-50-8;2095115-14-1;2095180-89-3;2158319-33-4;2244218-45-7;2392026-73-0",
    "SMILES": "O(C(C)=O)C=C.C(=C)Cl",
    "meta_data": {
        "InChI": "InChI=1S/C4H6O2.C2H3Cl/c1-3-6-4(2)5;1-2-3/h3H,1H2,2H3;2H,1H2",
        "InChIKey": null,
        "Canonical SMILES": "O=C(OC=C)C.ClC=C",
        "Molecular Formula": "(C<sub>4</sub>H<sub>6</sub>O<sub>2</sub>.C<sub>2</sub>H<sub>3</sub>Cl)<sub>x</sub>",
        "Molecular Mass": "",
        "Melting Point": "80 °C",
        "Density": "0.86 g/cm³"
    }
}