{
    "cas_no": "53981-24-1",
    "key_name": "2-Amino-5-fluorophenol",
    "cn_name": "2-氨基-5-氟苯酚;",
    "alternate_name": "Phenol, 2-amino-5-fluoro-;2-Amino-5-fluorophenol;4-Fluoro-2-hydroxyaniline;5-Fluoro-2-aminophenol;(4-Fluoro-2-hydroxyphenyl)amine",
    "duplicated_cas_no": "",
    "SMILES": "OC1=C(N)C=CC(F)=C1",
    "meta_data": {
        "InChI": "InChI=1S/C6H6FNO/c7-4-1-2-5(8)6(9)3-4/h1-3,9H,8H2",
        "InChIKey": null,
        "Canonical SMILES": "FC1=CC=C(N)C(O)=C1",
        "Molecular Formula": "C<sub>6</sub>H<sub>6</sub>FNO",
        "Molecular Mass": "127.12",
        "Melting Point": "40.0 °C"
    }
}