{
    "cas_no": "82560-12-1",
    "key_name": "3-Amino-5-<em>tert</em>-butylpyrazole",
    "cn_name": "3-叔丁基-吡唑-5-胺;",
    "alternate_name": "1<em>H</em>-Pyrazol-3-amine, 5-(1,1-dimethylethyl)-;5-(1,1-Dimethylethyl)-1<em>H</em>-pyrazol-3-amine;5-Amino-3-<em>tert</em>-butyl-1<em>H</em>-pyrazole;3-<em>tert</em>-Butyl-5-aminopyrazole;3-<em>tert</em>-Butyl-1<em>H</em>-pyrazol-3-amine;5-Amino-3-<em>tert</em>-butylpyrazole;5-<em>tert</em>-Butyl-1<em>H</em>-pyrazol-3-ylamine;3-Amino-5-<em>tert</em>-butylpyrazole;3-Amino-5-<em>tert</em>-butyl-1<em>H</em>-pyrazole;5-<em>tert</em>-Butyl-1<em>H</em>-pyrazol-3-amine;5-<em>tert</em>-Butylpyrazole-3-amine;3-<em>tert</em>-Butyl-2<em>H</em>-pyrazol-5-amine;5-(<em>tert</em>-Butyl)-3-aminopyrazole",
    "duplicated_cas_no": "106985-65-3;108465-88-9;110086-09-4;128726-21-6;358350-59-1;494834-43-4;709653-76-9;149246-89-9;152828-22-3;159977-09-0;177727-24-1;180483-96-9;188673-49-6;229003-20-7;945538-36-3;947600-97-7;1028842-78-5;1201223-95-1",
    "SMILES": "C(C)(C)(C)C1=CC(N)=NN1",
    "meta_data": {
        "InChI": "InChI=1S/C7H13N3/c1-7(2,3)5-4-6(8)10-9-5/h4H,1-3H3,(H3,8,9,10)",
        "InChIKey": null,
        "Canonical SMILES": "N=1NC(=CC1N)C(C)(C)C",
        "Molecular Formula": "C<sub>7</sub>H<sub>13</sub>N<sub>3</sub>",
        "Molecular Mass": "139.20",
        "Melting Point": "80 °C"
    }
}