{
    "cas_no": "22679-54-5",
    "key_name": "4-<em>tert</em>-Butylbenzophenone",
    "cn_name": "4-叔丁基苯甲酮;4-叔丁基苯并苯基酮;",
    "alternate_name": "Methanone, [4-(1,1-dimethylethyl)phenyl]phenyl-;Benzophenone, 4-<em>tert</em>-butyl-;[4-(1,1-Dimethylethyl)phenyl]phenylmethanone;4-<em>tert</em>-Butylbenzophenone;<em>p</em>-<em>tert</em>-Butylbenzophenone;(4-(<em>tert</em>-Butyl)phenyl)(phenyl)methanone",
    "duplicated_cas_no": "",
    "SMILES": "C(=O)(C1=CC=C(C(C)(C)C)C=C1)C2=CC=CC=C2",
    "meta_data": {
        "InChI": "InChI=1S/C17H18O/c1-17(2,3)15-11-9-14(10-12-15)16(18)13-7-5-4-6-8-13/h4-12H,1-3H3",
        "InChIKey": null,
        "Canonical SMILES": "O=C(C=1C=CC=CC1)C2=CC=C(C=C2)C(C)(C)C",
        "Molecular Formula": "C<sub>17</sub>H<sub>18</sub>O",
        "Molecular Mass": "238.32",
        "Boiling Point": "132-134 °C @ Press: 0.1 Torr"
    }
}