{
    "cas_no": "103335-55-3",
    "key_name": "3-Oxo-4-aza-5α-androstane-17β-carboxylic acid",
    "cn_name": "3-酮-4-氮杂-5a-雄烷-17b-羧酸;4-氮杂-5a-雄甾-3-酮-17b-羧酸;",
    "alternate_name": "1<em>H</em>-Indeno[5,4-<em>f</em>]quinoline-7-carboxylic acid, hexadecahydro-4a,6a-dimethyl-2-oxo-, (4a<em>R</em>,4b<em>S</em>,6a<em>S</em>,7<em>S</em>,9a<em>S</em>,9b<em>S</em>,11a<em>R</em>)-;4-Azaandrostane-17-carboxylic acid, 3-oxo-, (5α,17β)-;(4a<em>R</em>,4b<em>S</em>,6a<em>S</em>,7<em>S</em>,9a<em>S</em>,9b<em>S</em>,11a<em>R</em>)-Hexadecahydro-4a,6a-dimethyl-2-oxo-1<em>H</em>-indeno[5,4-<em>f</em>]quinoline-7-carboxylic acid;1<em>H</em>-Indeno[5,4-<em>f</em>]quinoline-7-carboxylic acid, hexadecahydro-4a,6a-dimethyl-2-oxo-, [4a<em>R</em>-(4aα,4bβ,6aα,7α,9aβ,9bα,11aβ)]-;4-Aza-3-oxo-5α-androstane-17β-carboxylic acid;3-Oxo-4-aza-5α-androstan-17β-carboxylic acid;3-Oxo-4-aza-5α-androstane-17β-carboxylic acid;4-Aza-3-oxo-androstane-17β-carboxylic acid;3-Oxo-4-aza-5α-androstane-17-carboxylic acid;(5α,17β)-3-Oxo-4-aza-5α-androstane-17-carboxylic acid;(5α,17β)-3-Oxo-4-azaandrostane-17-carboxylic acid",
    "duplicated_cas_no": "",
    "SMILES": "C[C@@]12[C@@]3([C@]([C@]4([C@](C)(CC3)[C@@H](C(O)=O)CC4)[H])(CC[C@]1(NC(=O)CC2)[H])[H])[H]",
    "meta_data": {
        "InChI": "InChI=1S/C19H29NO3/c1-18-9-7-13-11(12(18)4-5-14(18)17(22)23)3-6-15-19(13,2)10-8-16(21)20-15/h11-15H,3-10H2,1-2H3,(H,20,21)(H,22,23)/t11-,12-,13-,14+,15+,18-,19+/m0/s1",
        "InChIKey": null,
        "Canonical SMILES": "O=C1NC2CCC3C4CCC(C(=O)O)C4(C)CCC3C2(C)CC1",
        "Molecular Formula": "C<sub>19</sub>H<sub>29</sub>NO<sub>3</sub>",
        "Molecular Mass": "319.44",
        "Melting Point": "&gt;308 °C"
    }
}