{
    "cas_no": "112-96-9",
    "key_name": "Octadecyl isocyanate",
    "cn_name": "异氰酸十八酯;十八烷基异氰酸酯;",
    "alternate_name": "Octadecane, 1-isocyanato-;Isocyanic acid, octadecyl ester;1-Isocyanatooctadecane;Stearyl isocyanate;Octadecyl isocyanate;Mondur O;Baykanol OI;<em>n</em>-Octadecyl isocyanate;1-Octadecyl isocyanate;Millionate O;NSC 66466;ODI",
    "duplicated_cas_no": "156520-08-0",
    "SMILES": "C(CCCCCCCCCC)CCCCCCCN=C=O",
    "meta_data": {
        "InChI": "InChI=1S/C19H37NO/c1-2-3-4-5-6-7-8-9-10-11-12-13-14-15-16-17-18-20-19-21/h2-18H2,1H3",
        "InChIKey": null,
        "Canonical SMILES": "O=C=NCCCCCCCCCCCCCCCCCC",
        "Molecular Formula": "C<sub>19</sub>H<sub>37</sub>NO",
        "Molecular Mass": "295.50",
        "Boiling Point": "190-210 °C @ Press: 10 Torr",
        "Melting Point": "15-16 °C"
    }
}