{
    "cas_no": "101420-67-1",
    "key_name": "4-Methyl-5-nitro-1<em>H</em>-indazole",
    "cn_name": null,
    "alternate_name": "1<em>H</em>-Indazole, 4-methyl-5-nitro-;4-Methyl-5-nitro-1<em>H</em>-indazole",
    "duplicated_cas_no": "",
    "SMILES": "CC1=C2C(=CC=C1N(=O)=O)NN=C2",
    "meta_data": {
        "InChI": "InChI=1S/C8H7N3O2/c1-5-6-4-9-10-7(6)2-3-8(5)11(12)13/h2-4H,1H3,(H,9,10)",
        "InChIKey": null,
        "Canonical SMILES": "O=N(=O)C1=CC=C2NN=CC2=C1C",
        "Molecular Formula": "C<sub>8</sub>H<sub>7</sub>N<sub>3</sub>O<sub>2</sub>",
        "Molecular Mass": "177.16",
        "Melting Point": "251-253 °C"
    }
}