{
    "cas_no": "17673-25-5",
    "key_name": "Phorbol",
    "cn_name": "PHORBOL;",
    "alternate_name": "5<em>H</em>-Cyclopropa[3,4]benz[1,2-<em>e</em>]azulen-5-one, 1,1a,1b,4,4a,7a,7b,8,9,9a-decahydro-4a,7b,9,9a-tetrahydroxy-3-(hydroxymethyl)-1,1,6,8-tetramethyl-, (1a<em>R</em>,1b<em>S</em>,4a<em>R</em>,7a<em>S</em>,7b<em>S</em>,8<em>R</em>,9<em>R</em>,9a<em>S</em>)-;5<em>H</em>-Cyclopropa[3,4]benz[1,2-<em>e</em>]azulen-5-one, 1,1aα,1bβ,4,4a,7aα,7b,8,9,9a-decahydro-4aβ,7bα,9β,9aα-tetrahydroxy-3-(hydroxymethyl)-1,1,6,8α-tetramethyl-, (+)-;Phorbol;5<em>H</em>-Cyclopropa[3,4]benz[1,2-<em>e</em>]azulen-5-one, 1,1a,1b,4,4a,7a,7b,8,9,9a-decahydro-4a,7b,9,9a-tetrahydroxy-3-(hydroxymethyl)-1,1,6,8-tetramethyl-, [1a<em>R</em>-(1aα,1bβ,4aβ,7aα,7bα,8α,9β,9aα)]-;(1a<em>R</em>,1b<em>S</em>,4a<em>R</em>,7a<em>S</em>,7b<em>S</em>,8<em>R</em>,9<em>R</em>,9a<em>S</em>)-1,1a,1b,4,4a,7a,7b,8,9,9a-Decahydro-4a,7b,9,9a-tetrahydroxy-3-(hydroxymethyl)-1,1,6,8-tetramethyl-5<em>H</em>-cyclopropa[3,4]benz[1,2-<em>e</em>]azulen-5-one;4β-Phorbol;NSC 154778;(+)-Phorbol",
    "duplicated_cas_no": "110675-79-1;19891-04-4;47519-45-9;60493-74-5",
    "SMILES": "O[C@]12[C@]([C@]3([C@@](O)([C@]4([C@](O)(CC(CO)=C3)C(=O)C(C)=C4)[H])[C@H](C)[C@H]1O)[H])(C2(C)C)[H]",
    "meta_data": {
        "InChI": "InChI=1S/C20H28O6/c1-9-5-13-18(24,15(9)22)7-11(8-21)6-12-14-17(3,4)20(14,26)16(23)10(2)19(12,13)25/h5-6,10,12-14,16,21,23-26H,7-8H2,1-4H3/t10-,12+,13-,14-,16-,18-,19-,20-/m1/s1",
        "InChIKey": null,
        "Canonical SMILES": "O=C1C(=CC2C1(O)CC(=CC3C4C(O)(C(O)C(C)C32O)C4(C)C)CO)C",
        "Molecular Formula": "C<sub>20</sub>H<sub>28</sub>O<sub>6</sub>",
        "Molecular Mass": "364.43",
        "Melting Point": "250-251 °C (decomp)"
    }
}