{
    "cas_no": "68641-49-6",
    "key_name": "Bis(2-oxo-3-oxazolidinyl)phosphinic chloride",
    "cn_name": "双(2-氧代-3-恶唑烷基)次磷酰氯;",
    "alternate_name": "Phosphinic chloride, <em>P</em>,<em>P</em>-bis(2-oxo-3-oxazolidinyl)-;Phosphinic chloride, bis(2-oxo-3-oxazolidinyl)-;<em>P</em>,<em>P</em>-Bis(2-oxo-3-oxazolidinyl)phosphinic chloride;BOP-Cl;Bis(2-oxo-3-oxazolidinyl)phosphinic chloride;BOPDC;NSC 377647;Bis(2-oxo-3-oxazolidinyl)phosphoryl chloride",
    "duplicated_cas_no": "",
    "SMILES": "P(Cl)(=O)(N1C(=O)OCC1)N2C(=O)OCC2",
    "meta_data": {
        "InChI": "InChI=1S/C6H8ClN2O5P/c7-15(12,8-1-3-13-5(8)10)9-2-4-14-6(9)11/h1-4H2",
        "InChIKey": null,
        "Canonical SMILES": "O=C1OCCN1P(=O)(Cl)N2C(=O)OCC2",
        "Molecular Formula": "C<sub>6</sub>H<sub>8</sub>ClN<sub>2</sub>O<sub>5</sub>P",
        "Molecular Mass": "254.56",
        "Melting Point": "191-193 °C"
    }
}