{
    "cas_no": "3782-00-1",
    "key_name": "2,3-Dimethylbenzofuran",
    "cn_name": "2,3-二甲基苯呋喃;",
    "alternate_name": "Benzofuran, 2,3-dimethyl-;2,3-Dimethylbenzofuran;2,3-Dimethyl-1-benzofuran",
    "duplicated_cas_no": "",
    "SMILES": "CC=1C=2C(OC1C)=CC=CC2",
    "meta_data": {
        "InChI": "InChI=1S/C10H10O/c1-7-8(2)11-10-6-4-3-5-9(7)10/h3-6H,1-2H3",
        "InChIKey": null,
        "Canonical SMILES": "O1C=2C=CC=CC2C(=C1C)C",
        "Molecular Formula": "C<sub>10</sub>H<sub>10</sub>O",
        "Molecular Mass": "146.19",
        "Boiling Point": "101-102 °C @ Press: 19 Torr"
    }
}