{
    "cas_no": "2243-62-1",
    "key_name": "1,5-Diaminonaphthalene",
    "cn_name": "1,5-萘二胺;",
    "alternate_name": "1,5-Naphthalenediamine;1,5-Diaminonaphthalene;1,5-Naphthylenediamine;NSC 401110;1,5-DAN",
    "duplicated_cas_no": "",
    "SMILES": "NC=1C2=C(C(N)=CC=C2)C=CC1",
    "meta_data": {
        "InChI": "InChI=1S/C10H10N2/c11-9-5-1-3-7-8(9)4-2-6-10(7)12/h1-6H,11-12H2",
        "InChIKey": null,
        "Canonical SMILES": "NC1=CC=CC=2C(N)=CC=CC12",
        "Molecular Formula": "C<sub>10</sub>H<sub>10</sub>N<sub>2</sub>",
        "Molecular Mass": "158.20",
        "Melting Point": "190 °C",
        "Density": "1.4 g/cm³ @ Temp: 25 °C"
    }
}