{
    "cas_no": "212141-54-3",
    "key_name": "Vatalanib",
    "cn_name": "瓦他拉尼碱;N-(4-氯苯基)-4-(吡啶-4-基甲基)二氮杂萘-1-胺;",
    "alternate_name": "1-Phthalazinamine, <em>N</em>-(4-chlorophenyl)-4-(4-pyridinylmethyl)-;<em>N</em>-(4-Chlorophenyl)-4-(4-pyridinylmethyl)-1-phthalazinamine;CGP 79787;Vatalanib;Pynasunate;Vatalinib;Valatinib",
    "duplicated_cas_no": "",
    "SMILES": "N(C=1C2=C(C(CC=3C=CN=CC3)=NN1)C=CC=C2)C4=CC=C(Cl)C=C4",
    "meta_data": {
        "InChI": "InChI=1S/C20H15ClN4/c21-15-5-7-16(8-6-15)23-20-18-4-2-1-3-17(18)19(24-25-20)13-14-9-11-22-12-10-14/h1-12H,13H2,(H,23,25)",
        "InChIKey": null,
        "Canonical SMILES": "ClC1=CC=C(C=C1)NC2=NN=C(C=3C=CC=CC23)CC=4C=CN=CC4",
        "Molecular Formula": "C<sub>20</sub>H<sub>15</sub>ClN<sub>4</sub>",
        "Molecular Mass": "346.81",
        "Melting Point": "209-212 °C"
    }
}