{
    "cas_no": "63938-10-3",
    "key_name": "Chlorotetrafluoroethane",
    "cn_name": null,
    "alternate_name": "Ethane, chlorotetrafluoro-;Chlorotetrafluoroethane;Tetrafluoromonochloroethane;Tetrafluorochloroethane",
    "duplicated_cas_no": "",
    "SMILES": "",
    "meta_data": {
        "InChI": "",
        "InChIKey": null,
        "Canonical SMILES": "",
        "Molecular Formula": "C<sub>2</sub>HClF<sub>4</sub>",
        "Molecular Mass": "",
        "Boiling Point": "-10 °C"
    }
}