{
    "cas_no": "513-48-4",
    "key_name": "2-Iodobutane",
    "cn_name": "2-碘丁烷;碘代仲丁烷;仲丁基碘;",
    "alternate_name": "Butane, 2-iodo-;2-Iodobutane;<em>sec</em>-Butyl iodide;<em>sec</em>-Iodobutane;2-Butyl iodide;(±)-2-Iodobutane;NSC 8422",
    "duplicated_cas_no": "52152-71-3",
    "SMILES": "C(CC)(C)I",
    "meta_data": {
        "InChI": "InChI=1S/C4H9I/c1-3-4(2)5/h4H,3H2,1-2H3",
        "InChIKey": null,
        "Canonical SMILES": "IC(C)CC",
        "Molecular Formula": "C<sub>4</sub>H<sub>9</sub>I",
        "Molecular Mass": "184.02",
        "Boiling Point": "120 °C",
        "Melting Point": "-104 °C",
        "Density": "1.585 g/cm³ @ Temp: 20 °C"
    }
}