{
    "cas_no": "1028-86-0",
    "key_name": "<em>N</em>-(2-Chloro-3-pyridinyl)-2-nitrobenzamide",
    "cn_name": null,
    "alternate_name": "Benzamide, <em>N</em>-(2-chloro-3-pyridinyl)-2-nitro-;Benzamide, <em>N</em>-(2-chloro-3-pyridyl)-<em>o</em>-nitro-;Pyridine, 2-chloro-3-(<em>o</em>-nitrobenzamido)-;<em>N</em>-(2-Chloro-3-pyridinyl)-2-nitrobenzamide;<em>N</em>-(2-Chloro-3-pyridyl)-<em>o</em>-nitrobenzamide",
    "duplicated_cas_no": "",
    "SMILES": "C(NC1=C(Cl)N=CC=C1)(=O)C2=C(N(=O)=O)C=CC=C2",
    "meta_data": {
        "InChI": "InChI=1S/C12H8ClN3O3/c13-11-9(5-3-7-14-11)15-12(17)8-4-1-2-6-10(8)16(18)19/h1-7H,(H,15,17)",
        "InChIKey": null,
        "Canonical SMILES": "O=C(NC1=CC=CN=C1Cl)C=2C=CC=CC2N(=O)=O",
        "Molecular Formula": "C<sub>12</sub>H<sub>8</sub>ClN<sub>3</sub>O<sub>3</sub>",
        "Molecular Mass": "277.66",
        "Melting Point": "158.0-161.5 °C"
    }
}