{
    "cas_no": "853-34-9",
    "key_name": "Kebuzone",
    "cn_name": "酮基保太松;酮基保太松;",
    "alternate_name": "3,5-Pyrazolidinedione, 4-(3-oxobutyl)-1,2-diphenyl-;4-(3-Oxobutyl)-1,2-diphenyl-3,5-pyrazolidinedione;Ketazon;Ketophenylbutazone;1,2-Diphenyl-4-(2-acetylethyl)pyrazolidine-3,5-dione;γ-Oxophenylbutazone;Kebuzone;γ-Ketazone;γ-Ketophenylbutazone;Ketazone;Chebutan;Chepirol;Chetazol;Chetil;Chetopir;Recheton;Reuchetal;Ejor;Gammachetone;Ketanol;Ketason;Chetazolidin;Phloguron;Copirene;Pecnon;KPB",
    "duplicated_cas_no": "",
    "SMILES": "O=C1N(N(C(=O)C1CCC(C)=O)C2=CC=CC=C2)C3=CC=CC=C3",
    "meta_data": {
        "InChI": "InChI=1S/C19H18N2O3/c1-14(22)12-13-17-18(23)20(15-8-4-2-5-9-15)21(19(17)24)16-10-6-3-7-11-16/h2-11,17H,12-13H2,1H3",
        "InChIKey": null,
        "Canonical SMILES": "O=C(C)CCC1C(=O)N(C=2C=CC=CC2)N(C=3C=CC=CC3)C1=O",
        "Molecular Formula": "C<sub>19</sub>H<sub>18</sub>N<sub>2</sub>O<sub>3</sub>",
        "Molecular Mass": "322.36",
        "Melting Point": "126.0-128.5 °C"
    }
}