{
    "cas_no": "56-89-3",
    "key_name": "(-)-Cystine",
    "cn_name": "L-胱氨酸;双硫代氨基丙酸;",
    "alternate_name": "<span class=\"text-smallcaps\">L</span>-Cystine;Cystine, <span class=\"text-smallcaps\">L</span>-;Bis(β-amino-β-carboxyethyl) disulfide;Cystine acid;β,β′-Diamino-β,β′-dicarboxydiethyl disulfide;Dicysteine;3,3′-Dithiobis(2-aminopropanoic acid);β,β′-Dithiodialanine;Cystine;<span class=\"text-smallcaps\">L</span>-Cysteine disulfide;Propanoic acid, 3,3′-dithiobis[2-amino-, [<em>R</em>-(<em>R</em>*,<em>R</em>*)]-;(-)-Cystine;<span class=\"text-smallcaps\">L</span>-Cystin;<span class=\"text-smallcaps\">L</span>-(-)-Cystine;Oxidized <span class=\"text-smallcaps\">L</span>-cysteine;[<em>R</em>-(<em>R</em>*,<em>R</em>*)]-3,3′-Dithiobis[2-aminopropanoic acid];<em>l</em>-Cystine;<span class=\"text-smallcaps\">L</span>-Alanine, 3,3′-dithiobis-;NSC 13203",
    "duplicated_cas_no": "24645-67-8;154605-69-3",
    "SMILES": "[C@H](CSSC[C@@H](C(O)=O)N)(C(O)=O)N",
    "meta_data": {
        "InChI": "InChI=1S/C6H12N2O4S2/c7-3(5(9)10)1-13-14-2-4(8)6(11)12/h3-4H,1-2,7-8H2,(H,9,10)(H,11,12)/t3-,4-/m0/s1",
        "InChIKey": null,
        "Canonical SMILES": "O=C(O)C(N)CSSCC(N)C(=O)O",
        "Molecular Formula": "C<sub>6</sub>H<sub>12</sub>N<sub>2</sub>O<sub>4</sub>S<sub>2</sub>",
        "Molecular Mass": "240.30",
        "Melting Point": "260.5 °C (decomp)",
        "Density": "1.677 g/cm³"
    }
}