{
    "cas_no": "1202-08-0",
    "key_name": "1-[2-Methyl-5-(1-methylethyl)phenyl]ethanone",
    "cn_name": null,
    "alternate_name": "Ethanone, 1-[2-methyl-5-(1-methylethyl)phenyl]-;Acetophenone, 5′-isopropyl-2′-methyl-;1-[2-Methyl-5-(1-methylethyl)phenyl]ethanone;2-Acetyl-<em>p</em>-cymene;1-Acetyl-5-isopropyl-2-methylbenzene;NSC 9414;1-(5-Isopropyl-2-methylphenyl)ethanone;1-(5-Isopropyl-2-methylphenyl)ethan-1-one;1-(2-Methyl-5-propan-2-ylphenyl)ethanone;1-[2-Methyl-5-(propan-2-yl)phenyl]ethan-1-one",
    "duplicated_cas_no": "",
    "SMILES": "C(C)(=O)C1=CC(C(C)C)=CC=C1C",
    "meta_data": {
        "InChI": "InChI=1S/C12H16O/c1-8(2)11-6-5-9(3)12(7-11)10(4)13/h5-8H,1-4H3",
        "InChIKey": null,
        "Canonical SMILES": "O=C(C1=CC(=CC=C1C)C(C)C)C",
        "Molecular Formula": "C<sub>12</sub>H<sub>16</sub>O",
        "Molecular Mass": "176.25",
        "Boiling Point": "249.5 °C",
        "Melting Point": "&lt;-20 °C",
        "Density": "0.9864 g/cm³ @ Temp: 0 °C"
    }
}