{
    "cas_no": "771-56-2",
    "key_name": "2,3,4,5,6-Pentafluorotoluene",
    "cn_name": "甲基戊氟苯;",
    "alternate_name": "Benzene, 1,2,3,4,5-pentafluoro-6-methyl-;Toluene, 2,3,4,5,6-pentafluoro-;Benzene, pentafluoromethyl-;1,2,3,4,5-Pentafluoro-6-methylbenzene;2,3,4,5,6-Pentafluorotoluene;Methylpentafluorobenzene;NSC 88285;Pentafluoro(methyl)benzene",
    "duplicated_cas_no": "",
    "SMILES": "CC1=C(F)C(F)=C(F)C(F)=C1F",
    "meta_data": {
        "InChI": "InChI=1S/C7H3F5/c1-2-3(8)5(10)7(12)6(11)4(2)9/h1H3",
        "InChIKey": null,
        "Canonical SMILES": "FC=1C(F)=C(F)C(=C(F)C1F)C",
        "Molecular Formula": "C<sub>7</sub>H<sub>3</sub>F<sub>5</sub>",
        "Molecular Mass": "182.09",
        "Boiling Point": "117.5 °C",
        "Melting Point": "-29.8 °C"
    }
}