{
    "cas_no": "554-57-4",
    "key_name": "Methazolamide",
    "cn_name": "醋甲唑胺;N-[(2E)-5-(氨基磺酰基)-3-甲基-1,3,4-噻二唑-2(3H)-亚基]乙酰胺;",
    "alternate_name": "Acetamide, <em>N</em>-[5-(aminosulfonyl)-3-methyl-1,3,4-thiadiazol-2(3<em>H</em>)-ylidene]-;Acetamide, <em>N</em>-(4-methyl-2-sulfamoyl-Δ<sup>2</sup>-1,3,4-thiadiazolin-5-ylidene)-;<em>N</em>-[5-(Aminosulfonyl)-3-methyl-1,3,4-thiadiazol-2(3<em>H</em>)-ylidene]acetamide;5-Acetylimino-4-methyl-Δ<sup>2</sup>-1,3,4-thiadiazoline-2-sulfonamide;Methazolamide;Methenamide;<em>N</em>-(4-Methyl-2-sulfamoyl-Δ<sup>2</sup>-1,3,4-thiadiazolin-5-ylidene)acetamide;Neptazane;Neptazaneat;L 584601;MeSH ID: D008704",
    "duplicated_cas_no": "",
    "SMILES": "N(C(C)=O)=C1SC(S(N)(=O)=O)=NN1C",
    "meta_data": {
        "InChI": "InChI=1S/C5H8N4O3S2/c1-3(10)7-4-9(2)8-5(13-4)14(6,11)12/h1-2H3,(H2,6,11,12)",
        "InChIKey": null,
        "Canonical SMILES": "O=C(N=C1SC(=NN1C)S(=O)(=O)N)C",
        "Molecular Formula": "C<sub>5</sub>H<sub>8</sub>N<sub>4</sub>O<sub>3</sub>S<sub>2</sub>",
        "Molecular Mass": "236.27",
        "Melting Point": "213-214 °C"
    }
}