{
    "cas_no": "134-31-6",
    "key_name": "Hydroxyquinoline sulfate",
    "cn_name": null,
    "alternate_name": "8-Quinolinol, sulfate (2:1);8-Quinolinol, sulfate (2:1) (salt);Chinosol;Cryptonol;8-Hydroxyquinoline sulfate;8-Hydroxyquinoline sulfuric acid salt;8-Hydroxyquinoline sulphate;Octofen;Oxine sulfate;8-Quinolinol sulphate;Quinosol;Sunoxol;Superol;Oxyquinoline sulfate;8-Quinolinol sulfate (salt);8-Quinolinol sulfate;Quinosol extra;Khinozol;Criptonol;Hydroxyquinoline sulfate;Solvochin-Extra;Oxyquinol;Quinolin-8-ol sulfate (2:1);Oxyquinoline Hemisulfate",
    "duplicated_cas_no": "",
    "SMILES": "S(=O)(=O)(O)O.OC=1C2=C(C=CC1)C=CC=N2",
    "meta_data": {
        "InChI": "InChI=1S/C9H7NO.H2O4S/c11-8-5-1-3-7-4-2-6-10-9(7)8;1-5(2,3)4/h1-6,11H;(H2,1,2,3,4)",
        "InChIKey": null,
        "Canonical SMILES": "O=S(=O)(O)O.OC=1C=CC=C2C=CC=NC12",
        "Molecular Formula": "C<sub>9</sub>H<sub>7</sub>NO.<sup>1</sup>/<sub>2</sub>H<sub>2</sub>O<sub>4</sub>S",
        "Molecular Mass": "",
        "Melting Point": "177.5 °C"
    }
}