{
    "cas_no": "56107-02-9",
    "key_name": "4-Chloro-3-nitrobenzophenone",
    "cn_name": "3-硝基-4-氯二苯甲酮;4-氯-3-硝基二苯甲酮;",
    "alternate_name": "Methanone, (4-chloro-3-nitrophenyl)phenyl-;Benzophenone, 4-chloro-3-nitro-;(4-Chloro-3-nitrophenyl)phenylmethanone;3-Nitro-4-chlorobenzophenone;4-Chloro-3-nitrobenzophenone;NSC 102519",
    "duplicated_cas_no": "",
    "SMILES": "C(=O)(C1=CC(N(=O)=O)=C(Cl)C=C1)C2=CC=CC=C2",
    "meta_data": {
        "InChI": "InChI=1S/C13H8ClNO3/c14-11-7-6-10(8-12(11)15(17)18)13(16)9-4-2-1-3-5-9/h1-8H",
        "InChIKey": null,
        "Canonical SMILES": "O=C(C=1C=CC=CC1)C2=CC=C(Cl)C(=C2)N(=O)=O",
        "Molecular Formula": "C<sub>13</sub>H<sub>8</sub>ClNO<sub>3</sub>",
        "Molecular Mass": "261.66",
        "Boiling Point": "235 °C @ Press: 13 Torr",
        "Melting Point": "105 °C"
    }
}