{
    "cas_no": "39562-27-1",
    "key_name": "Methyl 2-(2′-nitrobenzylidene)acetoacetate",
    "cn_name": null,
    "alternate_name": "Butanoic acid, 2-[(2-nitrophenyl)methylene]-3-oxo-, methyl ester;Methyl 2-(2-nitrobenzylidene)acetoacetate;Methyl (<em>o</em>-nitrobenzylidene)acetoacetate;Methyl 2-(<em>o</em>-nitrobenzylidene)acetoacetate;Methyl 2-(2′-nitrobenzylidene)acetoacetate;2-(2-Nitrobenzylidene)-3-oxobutanoic acid methyl ester",
    "duplicated_cas_no": "",
    "SMILES": "C(=C(C(OC)=O)C(C)=O)C1=C(N(=O)=O)C=CC=C1",
    "meta_data": {
        "InChI": "InChI=1S/C12H11NO5/c1-8(14)10(12(15)18-2)7-9-5-3-4-6-11(9)13(16)17/h3-7H,1-2H3",
        "InChIKey": null,
        "Canonical SMILES": "O=C(OC)C(=CC=1C=CC=CC1N(=O)=O)C(=O)C",
        "Molecular Formula": "C<sub>12</sub>H<sub>11</sub>NO<sub>5</sub>",
        "Molecular Mass": "249.22",
        "Melting Point": "100-101 °C"
    }
}