{
    "cas_no": "99199-60-7",
    "key_name": "6-Fluoro-3,4-dihydro-2<em>H</em>-1-benzopyran-2-carboxylic acid",
    "cn_name": "6-氟色满-2-羧酸;6-氟-3,4-二氢苯并吡喃-2-羧酸;",
    "alternate_name": "2<em>H</em>-1-Benzopyran-2-carboxylic acid, 6-fluoro-3,4-dihydro-;6-Fluoro-3,4-dihydro-2<em>H</em>-1-benzopyran-2-carboxylic acid;6-Fluorochroman-2-carboxylic acid",
    "duplicated_cas_no": "129050-20-0",
    "SMILES": "C(O)(=O)C1OC=2C(=CC(F)=CC2)CC1",
    "meta_data": {
        "InChI": "InChI=1S/C10H9FO3/c11-7-2-4-8-6(5-7)1-3-9(14-8)10(12)13/h2,4-5,9H,1,3H2,(H,12,13)",
        "InChIKey": null,
        "Canonical SMILES": "O=C(O)C1OC2=CC=C(F)C=C2CC1",
        "Molecular Formula": "C<sub>10</sub>H<sub>9</sub>FO<sub>3</sub>",
        "Molecular Mass": "196.18",
        "Melting Point": "129.2-130.3 °C"
    }
}