{
    "cas_no": "40808-24-0",
    "key_name": "4,5-Dimethyl-2-thiophenecarboxylic acid",
    "cn_name": "4,5-二甲基噻吩-2-羰酸;",
    "alternate_name": "2-Thiophenecarboxylic acid, 4,5-dimethyl-;4,5-Dimethyl-2-thiophenecarboxylic acid;4,5-Dimethylthiophene-2-carboxylic acid",
    "duplicated_cas_no": "",
    "SMILES": "C(O)(=O)C1=CC(C)=C(C)S1",
    "meta_data": {
        "InChI": "InChI=1S/C7H8O2S/c1-4-3-6(7(8)9)10-5(4)2/h3H,1-2H3,(H,8,9)",
        "InChIKey": null,
        "Canonical SMILES": "O=C(O)C=1SC(=C(C1)C)C",
        "Molecular Formula": "C<sub>7</sub>H<sub>8</sub>O<sub>2</sub>S",
        "Molecular Mass": "156.20",
        "Melting Point": "210-212 °C"
    }
}