{
    "cas_no": "33527-91-2",
    "key_name": "Tris[2-(dimethylamino)ethyl]amine",
    "cn_name": null,
    "alternate_name": "1,2-Ethanediamine, <em>N</em><sup>1</sup>,<em>N</em><sup>1</sup>-bis[2-(dimethylamino)ethyl]-<em>N</em><sup>2</sup>,<em>N</em><sup>2</sup>-dimethyl-;1,2-Ethanediamine, <em>N</em>,<em>N</em>-bis[2-(dimethylamino)ethyl]-<em>N</em>′,<em>N</em>′-dimethyl-;Diethylenetriamine, 4-[2-(dimethylamino)ethyl]-1,1,7,7-tetramethyl-;<em>N</em><sup>1</sup>,<em>N</em><sup>1</sup>-Bis[2-(dimethylamino)ethyl]-<em>N</em><sup>2</sup>,<em>N</em><sup>2</sup>-dimethyl-1,2-ethanediamine;Tris[β-(dimethylamino)ethyl]amine;Tris[2-(dimethylamino)ethyl]amine;Tris(3-methyl-3-azabutyl)amine;NSC 97411;Hexamethyltris(2-aminoethyl)amine;Tris[2-(<em>N</em>,<em>N</em>-dimethylamino)ethyl]amine;Me6TREN;Tris[<em>N</em>,<em>N</em>-(dimethylamino)ethyl]amine",
    "duplicated_cas_no": "",
    "SMILES": "N(CCN(C)C)(CCN(C)C)CCN(C)C",
    "meta_data": {
        "InChI": "InChI=1S/C12H30N4/c1-13(2)7-10-16(11-8-14(3)4)12-9-15(5)6/h7-12H2,1-6H3",
        "InChIKey": null,
        "Canonical SMILES": "N(C)(C)CCN(CCN(C)C)CCN(C)C",
        "Molecular Formula": "C<sub>12</sub>H<sub>30</sub>N<sub>4</sub>",
        "Molecular Mass": "230.39",
        "Boiling Point": "88 °C @ Press: 1.9 Torr"
    }
}