{
    "cas_no": "53003-10-4",
    "key_name": "Salinomycin",
    "cn_name": "盐霉素;",
    "alternate_name": "Salinomycin;1,6,8-Trioxadispiro[4.1.5.3]pentadecane, salinomycin deriv.;Coxistac;Stereoisomer of α-ethyl-6-[5-[2-(5-ethyltetrahydro-5-hydroxy-6-methyl-2<em>H</em>-pyran-2-yl)-15-hydroxy-2,10,12-trimethyl-1,6,8-trioxadispiro[4.1.5.3]pentadec-13-en-9-yl]-2-hydroxy-1,3-dimethyl-4-oxoheptyl]tetrahydro-5-methyl-2<em>H</em>-pyran-2-acetic acid;Antibiotic 61477",
    "duplicated_cas_no": "37362-39-3;50863-72-4",
    "SMILES": "O[C@H]1[C@]2(O[C@@]3(O[C@]([C@H](C([C@H]([C@H]([C@H](C)[C@@]4(O[C@@]([C@H](C(O)=O)CC)(CC[C@@H]4C)[H])[H])O)C)=O)CC)([C@@H](C)C[C@H]3C)[H])C=C1)O[C@@](C)(CC2)[C@@]5(O[C@@H](C)[C@](CC)(O)CC5)[H]",
    "meta_data": {
        "InChI": "InChI=1S/C42H70O11/c1-11-29(38(46)47)31-15-14-23(4)36(50-31)27(8)34(44)26(7)35(45)30(12-2)37-24(5)22-25(6)41(51-37)19-16-32(43)42(53-41)21-20-39(10,52-42)33-17-18-40(48,13-3)28(9)49-33/h16,19,23-34,36-37,43-44,48H,11-15,17-18,20-22H2,1-10H3,(H,46,47)/t23-,24-,25+,26-,27-,28-,29+,30-,31+,32+,33+,34+,36+,37-,39-,40+,41-,42-/m0/s1",
        "InChIKey": null,
        "Canonical SMILES": "O=C(O)C(CC)C1OC(C(C)CC1)C(C)C(O)C(C(=O)C(CC)C2OC3(OC4(OC(C)(CC4)C5OC(C)C(O)(CC)CC5)C(O)C=C3)C(C)CC2C)C",
        "Molecular Formula": "C<sub>42</sub>H<sub>70</sub>O<sub>11</sub>",
        "Molecular Mass": "751.00",
        "Melting Point": "112.5-113.5 °C"
    }
}