{
    "cas_no": "4439-24-1",
    "key_name": "Ethylene glycol monoisobutyl ether",
    "cn_name": "乙二醇单异丁醚;",
    "alternate_name": "Ethanol, 2-(2-methylpropoxy)-;Ethanol, 2-isobutoxy-;2-(2-Methylpropoxy)ethanol;Ethylene glycol monoisobutyl ether;2-Isobutoxyethanol;Isobutyl cellosolve;Isobutoxyethanol;2-(2-Methylpropoxy)ethan-1-ol",
    "duplicated_cas_no": "",
    "SMILES": "C(OCCO)C(C)C",
    "meta_data": {
        "InChI": "InChI=1S/C6H14O2/c1-6(2)5-8-4-3-7/h6-7H,3-5H2,1-2H3",
        "InChIKey": null,
        "Canonical SMILES": "OCCOCC(C)C",
        "Molecular Formula": "C<sub>6</sub>H<sub>14</sub>O<sub>2</sub>",
        "Molecular Mass": "118.17",
        "Boiling Point": "160 °C"
    }
}