{
    "cas_no": "87-65-0",
    "key_name": "2,6-Dichlorophenol",
    "cn_name": "2,6-二氯苯酚;2,6-二氯酚;",
    "alternate_name": "Phenol, 2,6-dichloro-;2,6-Dichlorophenol;NSC 60647",
    "duplicated_cas_no": "",
    "SMILES": "OC1=C(Cl)C=CC=C1Cl",
    "meta_data": {
        "InChI": "InChI=1S/C6H4Cl2O/c7-4-2-1-3-5(8)6(4)9/h1-3,9H",
        "InChIKey": null,
        "Canonical SMILES": "ClC1=CC=CC(Cl)=C1O",
        "Molecular Formula": "C<sub>6</sub>H<sub>4</sub>Cl<sub>2</sub>O",
        "Molecular Mass": "163.00",
        "Boiling Point": "220 °C",
        "Melting Point": "68.5 °C"
    }
}