{
    "cas_no": "19500-62-0",
    "key_name": "Quinoline, 1,2,3,4-tetrahydro-7-methoxy-, hydrochloride (1:1)",
    "cn_name": null,
    "alternate_name": "Quinoline, 1,2,3,4-tetrahydro-7-methoxy-, hydrochloride (1:1);Quinoline, 1,2,3,4-tetrahydro-7-methoxy-, hydrochloride",
    "duplicated_cas_no": "",
    "SMILES": "O(C)C=1C=C2C(=CC1)CCCN2.Cl",
    "meta_data": {
        "InChI": "InChI=1S/C10H13NO.ClH/c1-12-9-5-4-8-3-2-6-11-10(8)7-9;/h4-5,7,11H,2-3,6H2,1H3;1H",
        "InChIKey": null,
        "Canonical SMILES": "Cl.O(C1=CC=C2C(=C1)NCCC2)C",
        "Molecular Formula": "C<sub>10</sub>H<sub>13</sub>NO.ClH",
        "Molecular Mass": "",
        "Melting Point": "181 °C"
    }
}