{
    "cas_no": "3158-85-8",
    "key_name": "Dibenz[<em>b</em>,<em>f</em>][1,4]oxazepin-11(10<em>H</em>)-one",
    "cn_name": "10,11-二氢二苯[b,f][1,4]氧氮杂卓-11-酮;",
    "alternate_name": "Dibenz[<em>b</em>,<em>f</em>][1,4]oxazepin-11(10<em>H</em>)-one;<em>o</em>-(<em>o</em>-Aminophenoxy)benzoic acid lactam;Benzoic acid, 2-(2-aminophenoxy)-, lactam;Dibenzo[b,f][1,4]oxazepin-11(10H)-one",
    "duplicated_cas_no": "",
    "SMILES": "O=C1C=2C(OC=3C(N1)=CC=CC3)=CC=CC2",
    "meta_data": {
        "InChI": "InChI=1S/C13H9NO2/c15-13-9-5-1-3-7-11(9)16-12-8-4-2-6-10(12)14-13/h1-8H,(H,14,15)",
        "InChIKey": null,
        "Canonical SMILES": "O=C1NC=2C=CC=CC2OC=3C=CC=CC31",
        "Molecular Formula": "C<sub>13</sub>H<sub>9</sub>NO<sub>2</sub>",
        "Molecular Mass": "211.22",
        "Melting Point": "222-224 °C"
    }
}