{
    "cas_no": "1002-67-1",
    "key_name": "Diethylene glycol methyl ethyl ether",
    "cn_name": "二乙二醇甲乙醚;",
    "alternate_name": "Ethane, 1-ethoxy-2-(2-methoxyethoxy)-;Ethane, 1-(2-ethoxyethoxy)-2-methoxy-;1-Ethoxy-2-(2-methoxyethoxy)ethane;Diethylene glycol, ethyl methyl ether;Ethanol, 2,2′-oxybis-, ethyl methyl ether;Diethylene glycol methyl ethyl ether;Hisolve EDM;Hysorb EDM;Hisolve EDM-S;1-(2-Ethoxyethoxy)-2-methoxyethane;EDM-S",
    "duplicated_cas_no": "",
    "SMILES": "C(OCCOC)COCC",
    "meta_data": {
        "InChI": "InChI=1S/C7H16O3/c1-3-9-6-7-10-5-4-8-2/h3-7H2,1-2H3",
        "InChIKey": null,
        "Canonical SMILES": "O(C)CCOCCOCC",
        "Molecular Formula": "C<sub>7</sub>H<sub>16</sub>O<sub>3</sub>",
        "Molecular Mass": "148.20",
        "Boiling Point": "179 °C"
    }
}