{
    "cas_no": "98-01-1",
    "key_name": "Furfural",
    "cn_name": "糠醛;呋喃甲醛;",
    "alternate_name": "2-Furancarboxaldehyde;2-Furaldehyde;Artificial ant oil;Fural;2-Furanaldehyde;2-Furancarbonal;Furfural;Furfuraldehyde;Furfurol;Furfurole;Furole;Pyromucic aldehyde;α-Furole;Furancarbonal;2-Formylfuran;Furaldehyde;2-Furfural;2-Furfuraldehyde;2-Furylaldehyde;Furfurylaldehyde;2-Furylcarboxaldehyde;2-Furancarbaldehyde;NSC 8841;Furan-2-carboxaldehyde;2-Furanal;Furfurals",
    "duplicated_cas_no": "",
    "SMILES": "C(=O)C1=CC=CO1",
    "meta_data": {
        "InChI": "InChI=1S/C5H4O2/c6-4-5-2-1-3-7-5/h1-4H",
        "InChIKey": null,
        "Canonical SMILES": "O=CC=1OC=CC1",
        "Molecular Formula": "C<sub>5</sub>H<sub>4</sub>O<sub>2</sub>",
        "Molecular Mass": "96.08",
        "Boiling Point": "18.5 °C @ Press: 1.0 Torr",
        "Melting Point": "-38.7 °C",
        "Density": "1.1563 g/cm³ @ Temp: 25 °C"
    }
}