{
    "cas_no": "592-46-1",
    "key_name": "2,4-Hexadiene",
    "cn_name": "2,4-己二烯;2,4-己二烯;联丙烯；1,4-二甲基丁-1,3-二烯;",
    "alternate_name": "2,4-Hexadiene;Bipropenyl;Dipropenyl;1,4-Dimethylbutadiene;NSC 74169;1,4-Dimethyl-1,3-butadiene",
    "duplicated_cas_no": "",
    "SMILES": "C(C=CC)=CC",
    "meta_data": {
        "InChI": "InChI=1S/C6H10/c1-3-5-6-4-2/h3-6H,1-2H3",
        "InChIKey": null,
        "Canonical SMILES": "C(C=CC)=CC",
        "Molecular Formula": "C<sub>6</sub>H<sub>10</sub>",
        "Molecular Mass": "82.14",
        "Boiling Point": "80 °C",
        "Melting Point": "-79 °C",
        "Density": "0.72656 g/cm³ @ Temp: 0 °C"
    }
}