{
    "cas_no": "512-04-9",
    "key_name": "Diosgenin",
    "cn_name": "薯蓣皂素;薯蓣皂苷元;薯蓣皂甙元;",
    "alternate_name": "Spirost-5-en-3-ol, (3β,25<em>R</em>)-;Spirost-5-en-3β-ol, (25<em>R</em>)-;25<span class=\"text-smallcaps\">D</span>-Spirost-5-en-3β-ol;Spiro[8<em>H</em>-naphth[2′,1′:4,5]indeno[2,1-<em>b</em>]furan-8,2′-[2<em>H</em>]pyran], spirost-5-en-3-ol deriv.;(3β,25<em>R</em>)-Spirost-5-en-3-ol;Diosgenin;Nitogenin;(25<em>R</em>)-Spirost-5-en-3β-ol;25α-Spirost-5-en-3β-ol;NSC 33396;MeSH ID: D004144",
    "duplicated_cas_no": "",
    "SMILES": "C[C@@H]1[C@]2(O[C@@]3([C@]1([C@]4(C)[C@@](C3)([C@]5([C@](CC4)([C@]6(C)C(=CC5)C[C@@H](O)CC6)[H])[H])[H])[H])[H])CC[C@@H](C)CO2",
    "meta_data": {
        "InChI": "InChI=1S/C27H42O3/c1-16-7-12-27(29-15-16)17(2)24-23(30-27)14-22-20-6-5-18-13-19(28)8-10-25(18,3)21(20)9-11-26(22,24)4/h5,16-17,19-24,28H,6-15H2,1-4H3/t16-,17+,19+,20-,21+,22+,23+,24+,25+,26+,27-/m1/s1",
        "InChIKey": null,
        "Canonical SMILES": "OC1CC2=CCC3C(CCC4(C)C3CC5OC6(OCC(C)CC6)C(C)C54)C2(C)CC1",
        "Molecular Formula": "C<sub>27</sub>H<sub>42</sub>O<sub>3</sub>",
        "Molecular Mass": "414.62",
        "Melting Point": "205.5 °C"
    }
}