{
    "cas_no": "176763-62-5",
    "key_name": "[[2,2′-[(1<em>R</em>,2<em>R</em>)-1,2-Cyclohexanediylbis[(nitrilo-κ<em>N</em>)methylidyne]]bis[4,6-bis(1,1-dimethylethyl)phenolato-κ<em>O</em>]](2-)]cobalt",
    "cn_name": null,
    "alternate_name": "Cobalt, [[2,2′-[(1<em>R</em>,2<em>R</em>)-1,2-cyclohexanediylbis[(nitrilo-κ<em>N</em>)methylidyne]]bis[4,6-bis(1,1-dimethylethyl)phenolato-κ<em>O</em>]](2-)]-, (<em>SP</em>-4-2)-;Cobalt, [[2,2′-[1,2-cyclohexanediylbis[(nitrilo-κ<em>N</em>)methylidyne]]bis[4,6-bis(1,1-dimethylethyl)phenolato-κ<em>O</em>]](2-)]-, [<em>SP</em>-4-2-(1<em>R</em>-<em>trans</em>)]-;(<em>SP</em>-4-2)-[[2,2′-[(1<em>R</em>,2<em>R</em>)-1,2-Cyclohexanediylbis[(nitrilo-κ<em>N</em>)methylidyne]]bis[4,6-bis(1,1-dimethylethyl)phenolato-κ<em>O</em>]](2-)]cobalt;Cobalt, [[2,2′-[1,2-cyclohexanediylbis(nitrilomethylidyne)]bis[4,6-bis(1,1-dimethylethyl)phenolato]](2-)-<em>N</em>,<em>N</em>′,<em>O</em>,<em>O</em>′]-, [<em>SP</em>-4-2-(1<em>R</em>-<em>trans</em>)]-;(<em>R</em>,<em>R</em>)-<em>N</em>,<em>N</em>′-Bis(3,5-di-<em>tert</em>-butylsalicylidene)-1,2-cyclohexanediaminatocobalt(II);<em>N</em>,<em>N</em>′-Bis(3,5-di-<em>tert</em>-butylsalicylidene)-1,2-diaminocyclohexanecobalt(II);(<em>R</em>,<em>R</em>)-(-)-<em>N</em>,<em>N</em>′-Bis(3,5-di-<em>tert</em>-butylsalicylidene)-1,2-cyclohexanediaminocobalt(II);[[2,2′-[(1<em>R</em>,2<em>R</em>)-1,2-Cyclohexanediylbis[(nitrilo-κ<em>N</em>)methylidyne]]bis[4,6-bis(1,1-dimethylethyl)phenolato-κ<em>O</em>]](2-)]cobalt;(<em>R</em>,<em>R</em>)-Jacobsen HKR catalyst;(R,R)-Co(salen)",
    "duplicated_cas_no": "2389142-30-5",
    "SMILES": "C(C)(C)(C)C1=C2[O-][Co+2]34[N]([C@]5([C@]([N]3=CC2=CC(C(C)(C)C)=C1)(CCCC5)[H])[H])=CC=6C([O-]4)=C(C(C)(C)C)C=C(C(C)(C)C)C6",
    "meta_data": {
        "InChI": "InChI=1S/C36H54N2O2.Co/c1-33(2,3)25-17-23(31(39)27(19-25)35(7,8)9)21-37-29-15-13-14-16-30(29)38-22-24-18-26(34(4,5)6)20-28(32(24)40)36(10,11)12;/h17-22,29-30,39-40H,13-16H2,1-12H3;/q;+2/p-2/t29-,30-;/m1./s1",
        "InChIKey": null,
        "Canonical SMILES": "[O-]1C2=C(C=C(C=C2C(C)(C)C)C(C)(C)C)C=[N]3C4CCCCC4[N]5=CC=6C=C(C=C(C6[O-][Co+2]135)C(C)(C)C)C(C)(C)C",
        "Molecular Formula": "C<sub>36</sub>H<sub>52</sub>CoN<sub>2</sub>O<sub>2</sub>",
        "Molecular Mass": "",
        "Melting Point": "&gt;298 °C (decomp)"
    }
}