{
    "cas_no": "111-95-5",
    "key_name": "Bis(2-methoxyethyl)amine",
    "cn_name": "二(2-甲氧基乙基)胺;",
    "alternate_name": "Ethanamine, 2-methoxy-<em>N</em>-(2-methoxyethyl)-;Diethylamine, 2,2′-dimethoxy-;2-Methoxy-<em>N</em>-(2-methoxyethyl)ethanamine;2,2′-Dimethoxydiethylamine;Bis(2-methoxyethyl)amine;<em>N</em>,<em>N</em>-Bis(2-methoxyethyl)amine;Di(2-methoxyethyl)amine;NSC 78431",
    "duplicated_cas_no": "",
    "SMILES": "N(CCOC)CCOC",
    "meta_data": {
        "InChI": "InChI=1S/C6H15NO2/c1-8-5-3-7-4-6-9-2/h7H,3-6H2,1-2H3",
        "InChIKey": null,
        "Canonical SMILES": "O(C)CCNCCOC",
        "Molecular Formula": "C<sub>6</sub>H<sub>15</sub>NO<sub>2</sub>",
        "Molecular Mass": "133.19",
        "Boiling Point": "169-170 °C"
    }
}