{
    "cas_no": "67028-40-4",
    "key_name": "Ethyl 2-(4-methylphenoxy)acetate",
    "cn_name": null,
    "alternate_name": "Acetic acid, 2-(4-methylphenoxy)-, ethyl ester;Acetic acid, (4-methylphenoxy)-, ethyl ester;Acetic acid, <em>p</em>-tolyloxy-, ethyl ester;Ethyl 2-(4-methylphenoxy)acetate;Ethyl 4-methylphenoxyacetate;<em>p</em>-Tolyloxyacetic acid ethyl ester;(4-Methylphenoxy) Acetic Acid Ethyl Ester;Ethyl 2-(<em>p</em>-tolyloxy)acetate",
    "duplicated_cas_no": "",
    "SMILES": "O(CC(OCC)=O)C1=CC=C(C)C=C1",
    "meta_data": {
        "InChI": "InChI=1S/C11H14O3/c1-3-13-11(12)8-14-10-6-4-9(2)5-7-10/h4-7H,3,8H2,1-2H3",
        "InChIKey": null,
        "Canonical SMILES": "O=C(OCC)COC1=CC=C(C=C1)C",
        "Molecular Formula": "C<sub>11</sub>H<sub>14</sub>O<sub>3</sub>",
        "Molecular Mass": "194.23",
        "Boiling Point": "142-143 °C @ Press: 11 Torr"
    }
}