{
    "cas_no": "930-30-3",
    "key_name": "2-Cyclopenten-1-one",
    "cn_name": "2-环戊烯酮;",
    "alternate_name": "2-Cyclopenten-1-one;Cyclopenten-3-one;2-Cyclopentenone;1-Cyclopenten-3-one;NSC 73117;1-Cyclopenten-5-one;Cyclopent-2-en-1-one",
    "duplicated_cas_no": "",
    "SMILES": "O=C1CCC=C1",
    "meta_data": {
        "InChI": "InChI=1S/C5H6O/c6-5-3-1-2-4-5/h1,3H,2,4H2",
        "InChIKey": null,
        "Canonical SMILES": "O=C1C=CCC1",
        "Molecular Formula": "C<sub>5</sub>H<sub>6</sub>O",
        "Molecular Mass": "82.10",
        "Boiling Point": "40-45 °C @ Press: 15 Torr",
        "Density": "1.004 g/cm³ @ Temp: 20 °C"
    }
}