{
    "cas_no": "89-80-5",
    "key_name": "(±)-Menthone",
    "cn_name": null,
    "alternate_name": "Cyclohexanone, 5-methyl-2-(1-methylethyl)-, (2<em>R</em>,5<em>S</em>)-<em>rel</em>-;<em>p</em>-Menthan-3-one, <em>trans</em>-;Cyclohexanone, 5-methyl-2-(1-methylethyl)-, <em>trans</em>-;<em>rel</em>-(2<em>R</em>,5<em>S</em>)-5-Methyl-2-(1-methylethyl)cyclohexanone;Neomenthone;<em>trans</em>-<em>p</em>-Menthan-3-one;Menthone;<em>p</em>-Menthone;<em>trans</em>-Menthan-3-one;<em>trans</em>-Menthone;<em>dl</em>-Menthone;(±)-Menthone;<span class=\"text-smallcaps\">DL</span>-Menthone;<em>trans</em>-<em>p</em>-Menthone;Menthone G",
    "duplicated_cas_no": "1074-95-9;7786-64-3;17627-49-5",
    "SMILES": "[C@H](C)(C)[C@H]1C(=O)C[C@H](C)CC1",
    "meta_data": {
        "InChI": "InChI=1/C10H18O/c1-7(2)9-5-4-8(3)6-10(9)11/h7-9H,4-6H2,1-3H3/t8-,9+/s2",
        "InChIKey": null,
        "Canonical SMILES": "O=C1CC(C)CCC1C(C)C",
        "Molecular Formula": "C<sub>10</sub>H<sub>18</sub>O",
        "Molecular Mass": "154.25",
        "Boiling Point": "210 °C",
        "Density": "0.8980 g/cm³ @ Temp: 20 °C"
    }
}