{
    "cas_no": "5599-50-8",
    "key_name": "3,6-Dimethylcarbazole",
    "cn_name": null,
    "alternate_name": "9<em>H</em>-Carbazole, 3,6-dimethyl-;Carbazole, 3,6-dimethyl-;3,6-Dimethyl-9<em>H</em>-carbazole;3,6-Dimethylcarbazole",
    "duplicated_cas_no": "",
    "SMILES": "CC=1C=C2C=3C(NC2=CC1)=CC=C(C)C3",
    "meta_data": {
        "InChI": "InChI=1S/C14H13N/c1-9-3-5-13-11(7-9)12-8-10(2)4-6-14(12)15-13/h3-8,15H,1-2H3",
        "InChIKey": null,
        "Canonical SMILES": "C=1C=C2NC=3C=CC(=CC3C2=CC1C)C",
        "Molecular Formula": "C<sub>14</sub>H<sub>13</sub>N",
        "Molecular Mass": "195.26",
        "Melting Point": "173-187 °C"
    }
}