{
    "cas_no": "596-27-0",
    "key_name": "Cresolphthalein",
    "cn_name": "邻甲酚酞;3,3\"-二甲基酚酞;3,3-双(4-羟基-3-甲基苯基)-1(3H)-异苯并呋喃酮;",
    "alternate_name": "1(3<em>H</em>)-Isobenzofuranone, 3,3-bis(4-hydroxy-3-methylphenyl)-;<em>o</em>-Cresolphthalein;Phenolphthalein, 3′,3′′-dimethyl-;3,3-Bis(4-hydroxy-3-methylphenyl)-1(3<em>H</em>)-isobenzofuranone;Cresolphthalein;3,3-Bis(3-methyl-4-hydroxyphenyl)phthalide;3,3-Bis(4-hydroxy-3-methylphenyl)-2-benzofuran-1-one",
    "duplicated_cas_no": "80045-63-2",
    "SMILES": "O=C1OC(C=2C1=CC=CC2)(C3=CC(C)=C(O)C=C3)C4=CC(C)=C(O)C=C4",
    "meta_data": {
        "InChI": "InChI=1S/C22H18O4/c1-13-11-15(7-9-19(13)23)22(16-8-10-20(24)14(2)12-16)18-6-4-3-5-17(18)21(25)26-22/h3-12,23-24H,1-2H3",
        "InChIKey": null,
        "Canonical SMILES": "O=C1OC(C2=CC=C(O)C(=C2)C)(C3=CC=C(O)C(=C3)C)C=4C=CC=CC14",
        "Molecular Formula": "C<sub>22</sub>H<sub>18</sub>O<sub>4</sub>",
        "Molecular Mass": "346.38",
        "Melting Point": "223 °C"
    }
}