{
    "cas_no": "10340-23-5",
    "key_name": "(<em>Z</em>)-3-Nonen-1-ol",
    "cn_name": "顺-3-壬烯-1-醇;顺-3-壬烯醇;",
    "alternate_name": "3-Nonen-1-ol, (3<em>Z</em>)-;3-Nonen-1-ol, (<em>Z</em>)-;(3<em>Z</em>)-3-Nonen-1-ol;<em>cis</em>-3-Nonen-1-ol;<em>cis</em>-3-Nonenol;(<em>Z</em>)-3-Nonen-1-ol;3(<em>Z</em>)-Nonenol;(Z)-3-Nonen-1-ol;(3Z)-Non-3-en-1-ol",
    "duplicated_cas_no": "",
    "SMILES": "C(/C=C\\CCO)CCCC",
    "meta_data": {
        "InChI": "InChI=1S/C9H18O/c1-2-3-4-5-6-7-8-9-10/h6-7,10H,2-5,8-9H2,1H3/b7-6-",
        "InChIKey": null,
        "Canonical SMILES": "OCCC=CCCCCC",
        "Molecular Formula": "C<sub>9</sub>H<sub>18</sub>O",
        "Molecular Mass": "142.24",
        "Boiling Point": "103-104 °C @ Press: 20 Torr"
    }
}