{
    "cas_no": "91-99-6",
    "key_name": "<em>m</em>-Tolyldiethanolamine",
    "cn_name": "N,N-双(2-羟基乙基)-间甲苯胺;3-甲基-N,N-二羟乙基苯胺;",
    "alternate_name": "Ethanol, 2,2′-[(3-methylphenyl)imino]bis-;Ethanol, 2,2′-(<em>m</em>-tolylimino)di-;2,2′-[(3-Methylphenyl)imino]bis[ethanol];Diethanol-<em>m</em>-toluidine;<em>m</em>-Tolyldiethanolamine;<em>N</em>,<em>N</em>-Bis(2-hydroxyethyl)-<em>m</em>-toluidine;2,2′-(<em>m</em>-Tolylimino)diethanol;<em>N</em>,<em>N</em>-Bis(2-hydroxyethyl)-3-methylaniline;<em>N</em>,<em>N</em>-Bis(β-hydroxyethyl)-3-methylaniline;<em>N</em>,<em>N</em>-Di(β-hydroxyethyl)-<em>m</em>-toluidine;Emery 5709;<em>N</em>,<em>N</em>-Bis(2-hydroxyethyl)-3-toluidine;NSC 7488;<em>N</em>,<em>N</em>-Di(2-hydroxyethyl)-<em>m</em>-toluidine;2,2′-(<em>m</em>-Tolylazanediyl)diethanol;2-[(2-Hydroxyethyl)(3-methylphenyl)amino]ethan-1-ol;2-[<em>N</em>-(2-Hydroxyethyl)-3-methylanilino]ethanol",
    "duplicated_cas_no": "",
    "SMILES": "N(CCO)(CCO)C1=CC(C)=CC=C1",
    "meta_data": {
        "InChI": "InChI=1S/C11H17NO2/c1-10-3-2-4-11(9-10)12(5-7-13)6-8-14/h2-4,9,13-14H,5-8H2,1H3",
        "InChIKey": null,
        "Canonical SMILES": "OCCN(C1=CC=CC(=C1)C)CCO",
        "Molecular Formula": "C<sub>11</sub>H<sub>17</sub>NO<sub>2</sub>",
        "Molecular Mass": "195.26",
        "Boiling Point": "160-165 °C @ Press: 1 Torr",
        "Melting Point": "65-67 °C"
    }
}