{
    "cas_no": "6004-24-6",
    "key_name": "Cetylpyridinium chloride monohydrate",
    "cn_name": "十六烷基氯化吡啶;氯化十六烷基吡啶;氯代十六烷基吡啶;",
    "alternate_name": "Pyridinium, 1-hexadecyl-, chloride, hydrate (1:1:1);Pyridinium, 1-hexadecyl-, chloride, monohydrate;Cetylpyridinium chloride monohydrate;<em>N</em>-Hexadecylpyridinium chloride monohydrate;<em>N</em>-Cetylpyridinium chloride monohydrate",
    "duplicated_cas_no": "2624170-48-3",
    "SMILES": "C(CCCCCCCCCCCCCCC)[N+]=1C=CC=CC1.[Cl-].O",
    "meta_data": {
        "InChI": "InChI=1S/C21H38N.ClH.H2O/c1-2-3-4-5-6-7-8-9-10-11-12-13-14-16-19-22-20-17-15-18-21-22;;/h15,17-18,20-21H,2-14,16,19H2,1H3;1H;1H2/q+1;;/p-1",
        "InChIKey": null,
        "Canonical SMILES": "[Cl-].O.C=1C=C[N+](=CC1)CCCCCCCCCCCCCCCC",
        "Molecular Formula": "C<sub>21</sub>H<sub>38</sub>N.Cl.H<sub>2</sub>O",
        "Molecular Mass": "",
        "Melting Point": "77-78 °C"
    }
}