{
    "cas_no": "868-77-9",
    "key_name": "2-Hydroxyethyl methacrylate",
    "cn_name": "甲基丙烯酸羟乙酯;",
    "alternate_name": "2-Propenoic acid, 2-methyl-, 2-hydroxyethyl ester;Methacrylic acid, 2-hydroxyethyl ester;Methacrylic acid, ester with glycol;Glycol methacrylate;Glycol monomethacrylate;Monomer MG 1;β-Hydroxyethyl methacrylate;2-Hydroxyethyl methacrylate;Ethylene glycol monomethacrylate;2-(Methacryloyloxy)ethanol;Ethylene glycol methacrylate;Acryester HO;Rocryl 400;Light Ester HO;Bisomer SR;Mhoromer BM 903;NSC 24180;Blemmer E;Acryester HISS;Mhoromer BM 905;GE 610;HEMA;Light Ester HO 250;Bisomer HEMA;HEMA 90;EB 109 (monomer);EB 109;2-HEMA;Kayarad 2-HEMA;Acryester HOMA;Light Ester HO 250M;EM 321;2-Hydroxyethyl 2-methylprop-2-enoate;Acryl Ester HO;Light Ester HO 250N;Visiomer HEMA 98;M 0085;JB 4 Plus;Visiomer HEMA 97;H 140643;Light Ester HOM;A 69527;HO 250N;HO 250;SR 170;HCM 203",
    "duplicated_cas_no": "51026-91-6;58308-22-8;60974-06-3;61497-49-2;112813-65-7;123991-13-9;132051-71-9;141668-69-1;151638-45-8;155280-45-8;173306-28-0;201463-85-6;203300-24-7;203497-53-4;211862-46-3;212555-08-3;219840-96-7;225107-31-3;282528-79-4;473256-73-4;1136534-55-8;1151978-80-1;1184921-46-7;1206159-39-8;1260379-87-0;1418001-98-5;1449201-78-8;2231343-05-6;2242757-54-4",
    "SMILES": "C(C(C)=C)(OCCO)=O",
    "meta_data": {
        "InChI": "InChI=1S/C6H10O3/c1-5(2)6(8)9-4-3-7/h7H,1,3-4H2,2H3",
        "InChIKey": null,
        "Canonical SMILES": "O=C(OCCO)C(=C)C",
        "Molecular Formula": "C<sub>6</sub>H<sub>10</sub>O<sub>3</sub>",
        "Molecular Mass": "130.14",
        "Boiling Point": "89-92 °C @ Press: 7 Torr",
        "Melting Point": "83-85 °C",
        "Density": "1.034 g/cm³ @ Temp: 25 °C"
    }
}