{
    "cas_no": "1477-42-5",
    "key_name": "2-Amino-4-methylbenzothiazole",
    "cn_name": "2-氨基-4-甲基苯并噻唑;",
    "alternate_name": "2-Benzothiazolamine, 4-methyl-;Benzothiazole, 2-amino-4-methyl-;Benzothiazole, 1-amino-3-methyl-;4-Methyl-2-benzothiazolamine;2-Amino-4-methylbenzothiazole;4-Methyl-2-aminobenzothiazole;4-Methylbenzothiazol-2-ylamine;NSC 28732;4-Methyl-1,3-benzothiazol-2-amine;4-Methylbenzo[<em>d</em>]thiazol-2-amine;2-Amino-4-methylbenzo[<em>d</em>]thiazole",
    "duplicated_cas_no": "",
    "SMILES": "CC1=C2C(SC(N)=N2)=CC=C1",
    "meta_data": {
        "InChI": "InChI=1S/C8H8N2S/c1-5-3-2-4-6-7(5)10-8(9)11-6/h2-4H,1H3,(H2,9,10)",
        "InChIKey": null,
        "Canonical SMILES": "N1=C(SC2=CC=CC(=C12)C)N",
        "Molecular Formula": "C<sub>8</sub>H<sub>8</sub>N<sub>2</sub>S",
        "Molecular Mass": "164.23",
        "Melting Point": "138 °C"
    }
}