{
    "cas_no": "1070-83-3",
    "key_name": "3,3-Dimethylbutanoic acid",
    "cn_name": "3,3-二甲基-1-丁酸;叔丁基乙酸;",
    "alternate_name": "Butanoic acid, 3,3-dimethyl-;Butyric acid, 3,3-dimethyl-;Butyric acid, β,β-dimethyl-;3,3-Dimethylbutanoic acid;3,3-Dimethylbutyric acid;<em>tert</em>-Butylacetic acid;NSC 4537",
    "duplicated_cas_no": "852148-42-6",
    "SMILES": "C(C(C)(C)C)C(O)=O",
    "meta_data": {
        "InChI": "InChI=1S/C6H12O2/c1-6(2,3)4-5(7)8/h4H2,1-3H3,(H,7,8)",
        "InChIKey": null,
        "Canonical SMILES": "O=C(O)CC(C)(C)C",
        "Molecular Formula": "C<sub>6</sub>H<sub>12</sub>O<sub>2</sub>",
        "Molecular Mass": "116.16",
        "Boiling Point": "190 °C",
        "Melting Point": "6.5 °C",
        "Density": "0.9303 g/cm³ @ Temp: 0 °C"
    }
}