{
    "cas_no": "7783-93-9",
    "key_name": "Silver perchlorate",
    "cn_name": "高氯酸银;无水高氯酸银(I);",
    "alternate_name": "Perchloric acid, silver(1+) salt (1:1);Perchloric acid, silver(1+) salt;Silver perchlorate;Silver(1+) perchlorate;Silver(I) perchlorate;Silver perchlorate (AgClO<sub>4</sub>);Silver monoperchlorate",
    "duplicated_cas_no": "12587-98-3;1287211-56-6",
    "SMILES": "Cl(=O)(=O)(=O)O.[Ag]",
    "meta_data": {
        "InChI": "InChI=1S/Ag.ClHO4/c;2-1(3,4)5/h;(H,2,3,4,5)",
        "InChIKey": null,
        "Canonical SMILES": "[Ag].O=Cl(=O)(=O)O",
        "Molecular Formula": "Ag.ClHO<sub>4</sub>",
        "Molecular Mass": "",
        "Melting Point": "-6.15 °C",
        "Density": "1.04067 g/cm³ @ Temp: 15 °C"
    }
}