{
    "cas_no": "33401-94-4",
    "key_name": "Pyrantel tartrate",
    "cn_name": null,
    "alternate_name": "Pyrimidine, 1,4,5,6-tetrahydro-1-methyl-2-[(1<em>E</em>)-2-(2-thienyl)ethenyl]-, (2<em>R</em>,3<em>R</em>)-2,3-dihydroxybutanedioate (1:1);Pyrimidine, 1,4,5,6-tetrahydro-1-methyl-2-[2-(2-thienyl)vinyl]-, (<em>E</em>)-, tartrate (1:1);Pyrimidine, 1,4,5,6-tetrahydro-1-methyl-2-[2-(2-thienyl)ethenyl]-, (<em>E</em>)-, [<em>R</em>-(<em>R</em>*,<em>R</em>*)]-2,3-dihydroxybutanedioate (1:1);CP 10423-18;<em>trans</em>-1-Methyl-1,4,5,6-tetrahydro-2-[2-(thienyl)vinyl]pyrimidine tartrate;Pyrantel tartrate;1,4,5,6-Tetrahydro-1-methyl-2-[<em>trans</em>-2-(2-thienyl)vinyl]pyrimidine tartrate (1:1);Banminth;Pyrequan tartrate;Strongid C;Strongid",
    "duplicated_cas_no": "7085-69-0;7635-10-1",
    "SMILES": "C(=C/C1=CC=CS1)\\C=2N(C)CCCN2.[C@@H]([C@H](C(O)=O)O)(C(O)=O)O",
    "meta_data": {
        "InChI": "",
        "InChIKey": null,
        "Canonical SMILES": "O=C(O)C(O)C(O)C(=O)O.N1=C(C=CC=2SC=CC2)N(C)CCC1",
        "Molecular Formula": "C<sub>11</sub>H<sub>14</sub>N<sub>2</sub>S.C<sub>4</sub>H<sub>6</sub>O<sub>6</sub>",
        "Molecular Mass": "",
        "Melting Point": "148-150 °C"
    }
}