{
    "cas_no": "16104-28-2",
    "key_name": "1,3,5,7-Tetrahydroxyadamantane",
    "cn_name": null,
    "alternate_name": "Tricyclo[3.3.1.1<sup>3,7</sup>]decane-1,3,5,7-tetrol;1,3,5,7-Adamantanetetrol;1,3,5,7-Tetrahydroxyadamantane;1,3,5,7-Adamantanetetraol",
    "duplicated_cas_no": "",
    "SMILES": "OC12CC3(O)CC(O)(C1)CC(O)(C2)C3",
    "meta_data": {
        "InChI": "InChI=1S/C10H16O4/c11-7-1-8(12)4-9(13,2-7)6-10(14,3-7)5-8/h11-14H,1-6H2",
        "InChIKey": null,
        "Canonical SMILES": "OC12CC3(O)CC(O)(C1)CC(O)(C2)C3",
        "Molecular Formula": "C<sub>10</sub>H<sub>16</sub>O<sub>4</sub>",
        "Molecular Mass": "200.23",
        "Melting Point": "316-317 °C"
    }
}