{
    "cas_no": "14542-16-6",
    "key_name": "4-Methyl-2-thiazolecarboxylic acid",
    "cn_name": "4-甲基噻唑-2-甲酸;",
    "alternate_name": "2-Thiazolecarboxylic acid, 4-methyl-;4-Methyl-2-thiazolecarboxylic acid;4-Methylthiazole-2-carboxylic acid;4-Methyl-1,3-thiazole-2-carboxylic acid",
    "duplicated_cas_no": "",
    "SMILES": "C(O)(=O)C1=NC(C)=CS1",
    "meta_data": {
        "InChI": "InChI=1S/C5H5NO2S/c1-3-2-9-4(6-3)5(7)8/h2H,1H3,(H,7,8)",
        "InChIKey": null,
        "Canonical SMILES": "O=C(O)C1=NC(=CS1)C",
        "Molecular Formula": "C<sub>5</sub>H<sub>5</sub>NO<sub>2</sub>S",
        "Molecular Mass": "143.16",
        "Boiling Point": "122 °C @ Press: 5 Torr",
        "Melting Point": "99 °C"
    }
}