{
    "cas_no": "38864-21-0",
    "key_name": "<em>N</em>,<em>N</em>′,<em>N</em>′′-Triacetylchitotriose",
    "cn_name": "N,N\",N\"\"-三乙酰壳三糖;",
    "alternate_name": "<span class=\"text-smallcaps\">D</smallcap>-Glucose, <em>O</em>-2-(acetylamino)-2-deoxy-β-<smallcap>D</smallcap>-glucopyranosyl-(1→4)-<em>O</em>-2-(acetylamino)-2-deoxy-β-<smallcap>D</span>-glucopyranosyl-(1→4)-2-(acetylamino)-2-deoxy-;Glucopyranose, <em>O</em>-2-acetamido-2-deoxy-β-<span class=\"text-smallcaps\">D</smallcap>-glucopyranosyl-(1→4)-<em>O</em>-2-acetamido-2-deoxy-β-<smallcap>D</smallcap>-glucopyranosyl-(1→4)-2-acetamido-2-deoxy-, <smallcap>D</span>-;Chitotriose, tri-<em>N</em>-acetyl-;<em>O</em>-2-(Acetylamino)-2-deoxy-β-<span class=\"text-smallcaps\">D</smallcap>-glucopyranosyl-(1→4)-<em>O</em>-2-(acetylamino)-2-deoxy-β-<smallcap>D</smallcap>-glucopyranosyl-(1→4)-2-(acetylamino)-2-deoxy-<smallcap>D</span>-glucose;Chitotriose, <em>N</em>,<em>N</em>′,<em>N</em>′′-triacetyl-;Tri-<em>N</em>-acetylchitotriose;<em>N</em>,<em>N</em>′,<em>N</em>′′-Triacetylchitotriose;Tri-<em>N</em>-acetyl-<span class=\"text-smallcaps\">D</span>-glucosamine;Tri(<em>N</em>-acetylglucosamine);<em>N</em>-Acetylglucosamine trimer;N-acetylchitotriose;<em>N</em>′,<em>N</em>′′,<em>N</em>′′′-Triacetylchitotriose",
    "duplicated_cas_no": "2624-24-0;12770-36-4;35061-51-9;71798-56-6;123815-04-3;176664-43-0;1237822-01-3",
    "SMILES": "O([C@@H]1[C@@H](CO)O[C@@H](O[C@@H]([C@@H]([C@@H](NC(C)=O)C=O)O)[C@@H](CO)O)[C@H](NC(C)=O)[C@H]1O)[C@H]2[C@H](NC(C)=O)[C@@H](O)[C@H](O)[C@@H](CO)O2",
    "meta_data": {
        "InChI": "InChI=1S/C24H41N3O16/c1-8(32)25-11(4-28)17(36)21(12(35)5-29)42-24-16(27-10(3)34)20(39)22(14(7-31)41-24)43-23-15(26-9(2)33)19(38)18(37)13(6-30)40-23/h4,11-24,29-31,35-39H,5-7H2,1-3H3,(H,25,32)(H,26,33)(H,27,34)/t11-,12+,13+,14+,15+,16+,17+,18+,19+,20+,21+,22+,23-,24-/m0/s1",
        "InChIKey": null,
        "Canonical SMILES": "O=CC(NC(=O)C)C(O)C(OC1OC(CO)C(OC2OC(CO)C(O)C(O)C2NC(=O)C)C(O)C1NC(=O)C)C(O)CO",
        "Molecular Formula": "C<sub>24</sub>H<sub>41</sub>N<sub>3</sub>O<sub>16</sub>",
        "Molecular Mass": "627.59",
        "Melting Point": "304-306 °C (decomp)"
    }
}