{
    "cas_no": "43064-12-6",
    "key_name": "Pyridine, 1,2,3,6-tetrahydro-4-phenyl-, hydrochloride (1:1)",
    "cn_name": "4-苯基-1,2,3,6-四氢吡啶盐酸盐;",
    "alternate_name": "Pyridine, 1,2,3,6-tetrahydro-4-phenyl-, hydrochloride (1:1);Pyridine, 1,2,3,6-tetrahydro-4-phenyl-, hydrochloride;4-Phenyl-1,2,5,6-tetrahydropyridine hydrochloride;1,2,3,6-Tetrahydro-4-phenylpyridine hydrochloride;4-Phenyl-1,2,3,6-tetrahydropyridine hydrochloride",
    "duplicated_cas_no": "",
    "SMILES": "C1(=CC=CC=C1)C=2CCNCC2.Cl",
    "meta_data": {
        "InChI": "InChI=1S/C11H13N.ClH/c1-2-4-10(5-3-1)11-6-8-12-9-7-11;/h1-6,12H,7-9H2;1H",
        "InChIKey": null,
        "Canonical SMILES": "Cl.C=1C=CC(=CC1)C2=CCNCC2",
        "Molecular Formula": "C<sub>11</sub>H<sub>13</sub>N.ClH",
        "Molecular Mass": "",
        "Melting Point": "199-202 °C"
    }
}