{
    "cas_no": "15267-95-5",
    "key_name": "(Chloromethyl)triethoxysilane",
    "cn_name": "氯甲基三乙氧基硅烷;",
    "alternate_name": "Silane, (chloromethyl)triethoxy-;(Chloromethyl)triethoxysilane;Triethoxy(chloromethyl)silane;(Triethoxysilyl)methyl chloride;ND 41;Chemos 5612;SIC 2298.4;NQ 5151",
    "duplicated_cas_no": "",
    "SMILES": "[Si](OCC)(OCC)(OCC)CCl",
    "meta_data": {
        "InChI": "InChI=1S/C7H17ClO3Si/c1-4-9-12(7-8,10-5-2)11-6-3/h4-7H2,1-3H3",
        "InChIKey": null,
        "Canonical SMILES": "ClC[Si](OCC)(OCC)OCC",
        "Molecular Formula": "C<sub>7</sub>H<sub>17</sub>ClO<sub>3</sub>Si",
        "Molecular Mass": "212.75",
        "Boiling Point": "90-91 °C @ Press: 25 Torr",
        "Density": "1.048 g/cm³"
    }
}