{
    "cas_no": "5613-46-7",
    "key_name": "2,2-Bis(3,5-dimethyl-4-hydroxyphenyl)propane",
    "cn_name": "4,4-(1-亚异丙基)双(2，6-双甲基苯酚);2,2-双(4-羟基-3,5-二甲基苯基)丙烷;四甲基双酚A;(CH3)2C[C6H2(CH3)2;",
    "alternate_name": "Phenol, 4,4′-(1-methylethylidene)bis[2,6-dimethyl-;2,6-Xylenol, 4,4′-isopropylidenedi-;4,4′-(1-Methylethylidene)bis[2,6-dimethylphenol];2,2-Bis(4-hydroxy-3,5-dimethylphenyl)propane;4,4′-Isopropylidenedi-2,6-xylenol;Bisxylenol A;2,2-Bis(3,5-dimethyl-4-hydroxyphenyl)propane;4,4′-Isopropylidenebis(2,6-dimethylphenol);Tetramethylbisphenol A;3,3′,5,5′-Tetramethyl-4,4′-dihydroxydiphenyl-2,2-propane;NSC 73730;Bis(3,5-dimethyl-4-hydroxyphenyl)isopropylidene;2,2-Bis(4-hydrox-3,5-dimethylphenyl)propane;BP 26XA;3,3′,5,5′-Tetramethyl-4,4′-bisphenol A;TMBPA",
    "duplicated_cas_no": "50984-82-2;56345-14-3;790150-84-4",
    "SMILES": "C(C)(C)(C1=CC(C)=C(O)C(C)=C1)C2=CC(C)=C(O)C(C)=C2",
    "meta_data": {
        "InChI": "InChI=1S/C19H24O2/c1-11-7-15(8-12(2)17(11)20)19(5,6)16-9-13(3)18(21)14(4)10-16/h7-10,20-21H,1-6H3",
        "InChIKey": null,
        "Canonical SMILES": "OC=1C(=CC(=CC1C)C(C=2C=C(C(O)=C(C2)C)C)(C)C)C",
        "Molecular Formula": "C<sub>19</sub>H<sub>24</sub>O<sub>2</sub>",
        "Molecular Mass": "284.39",
        "Melting Point": "164-165 °C"
    }
}