{
    "cas_no": "32596-43-3",
    "key_name": "2,6-Diformyl-4-chlorophenol",
    "cn_name": "2,6-二甲酰基-4-氯苯酚;",
    "alternate_name": "1,3-Benzenedicarboxaldehyde, 5-chloro-2-hydroxy-;Isophthalaldehyde, 5-chloro-2-hydroxy-;5-Chloro-2-hydroxy-1,3-benzenedicarboxaldehyde;2,6-Diformyl-4-chlorophenol;4-Chloro-2,6-diformylphenol;5-Chloro-2-hydroxybenzene-1,3-dicarboxaldehyde;2-Hydroxy-5-chloroisophthalaldehyde;2-Hydroxy-5-chlorobenzene-1,3-dicarboxaldehyde;5-Chloro-2-hydroxybenzene-1,3-dicarbaldehyde;5-Chloro-2-hydroxyisophthalaldehyde",
    "duplicated_cas_no": "",
    "SMILES": "C(=O)C1=C(O)C(C=O)=CC(Cl)=C1",
    "meta_data": {
        "InChI": "InChI=1S/C8H5ClO3/c9-7-1-5(3-10)8(12)6(2-7)4-11/h1-4,12H",
        "InChIKey": null,
        "Canonical SMILES": "O=CC1=CC(Cl)=CC(C=O)=C1O",
        "Molecular Formula": "C<sub>8</sub>H<sub>5</sub>ClO<sub>3</sub>",
        "Molecular Mass": "184.58",
        "Melting Point": "126 °C"
    }
}