{
    "cas_no": "89-93-0",
    "key_name": "2-Methylbenzylamine",
    "cn_name": "2-甲基苄胺;",
    "alternate_name": "Benzenemethanamine, 2-methyl-;Benzylamine, <em>o</em>-methyl-;2-Methylbenzenemethanamine;<em>o</em>-Methylbenzylamine;2-Methylbenzylamine;<em>o</em>-Xylylamine;((2-Methylphenyl)methyl)amine;NSC 30466;(2-Methylphenyl)methanamine;<em>o</em>-Tolylmethanamine;1-(2-Methylphenyl)methanamine",
    "duplicated_cas_no": "",
    "SMILES": "C(N)C1=C(C)C=CC=C1",
    "meta_data": {
        "InChI": "InChI=1S/C8H11N/c1-7-4-2-3-5-8(7)6-9/h2-5H,6,9H2,1H3",
        "InChIKey": null,
        "Canonical SMILES": "NCC=1C=CC=CC1C",
        "Molecular Formula": "C<sub>8</sub>H<sub>11</sub>N",
        "Molecular Mass": "121.18",
        "Boiling Point": "206 °C",
        "Melting Point": "-30 °C"
    }
}