{
    "cas_no": "19130-96-2",
    "key_name": "Deoxynojirimycin",
    "cn_name": "1-脱氧野尻霉素;(2R,3R,4R,5S)-2-羟甲基哌啶-3,4,5-三醇;",
    "alternate_name": "3,4,5-Piperidinetriol, 2-(hydroxymethyl)-, (2<em>R</em>,3<em>R</em>,4<em>R</em>,5<em>S</em>)-;Glucopyranose, 5-amino-1,5-dideoxy-, <span class=\"text-smallcaps\">D</span>-;3,4,5-Piperidinetriol, 2-(hydroxymethyl)-, [2<em>R</em>-(2α,3β,4α,5β)]-;(2<em>R</em>,3<em>R</em>,4<em>R</em>,5<em>S</em>)-2-(Hydroxymethyl)-3,4,5-piperidinetriol;Nojirimycin, 1-deoxy-;1-Deoxynojirimycin;<span class=\"text-smallcaps\">D</span>-Glucitol, 1,5-dideoxy-1,5-imino-;Moranoline;5-Amino-1,5-dideoxy-<span class=\"text-smallcaps\">D</span>-glucopyranose;Moranolin;Deoxynojirimycin;BAY-h 5595;1,5-Dideoxy-1,5-imino-<span class=\"text-smallcaps\">D</span>-glucitol;<span class=\"text-smallcaps\">D</span>-1-Deoxynojirimycin;Duvoglustat;(+)-1-Deoxynojirimycin",
    "duplicated_cas_no": "70956-02-4",
    "SMILES": "C(O)[C@@H]1[C@@H](O)[C@H](O)[C@@H](O)CN1",
    "meta_data": {
        "InChI": "InChI=1S/C6H13NO4/c8-2-3-5(10)6(11)4(9)1-7-3/h3-11H,1-2H2/t3-,4+,5-,6-/m1/s1",
        "InChIKey": null,
        "Canonical SMILES": "OCC1NCC(O)C(O)C1O",
        "Molecular Formula": "C<sub>6</sub>H<sub>13</sub>NO<sub>4</sub>",
        "Molecular Mass": "163.17",
        "Melting Point": "204-205 °C"
    }
}