{
    "cas_no": "18029-54-4",
    "key_name": "5-[3-(Dimethylamino)propyl]-5<em>H</em>-dibenzo[<em>a</em>,<em>d</em>]cyclohepten-5-ol",
    "cn_name": null,
    "alternate_name": "5<em>H</em>-Dibenzo[<em>a</em>,<em>d</em>]cyclohepten-5-ol, 5-[3-(dimethylamino)propyl]-;5-[3-(Dimethylamino)propyl]-5<em>H</em>-dibenzo[<em>a</em>,<em>d</em>]cyclohepten-5-ol",
    "duplicated_cas_no": "",
    "SMILES": "C(CCN(C)C)C1(O)C=2C(C=CC=3C1=CC=CC3)=CC=CC2",
    "meta_data": {
        "InChI": "InChI=1S/C20H23NO/c1-21(2)15-7-14-20(22)18-10-5-3-8-16(18)12-13-17-9-4-6-11-19(17)20/h3-6,8-13,22H,7,14-15H2,1-2H3",
        "InChIKey": null,
        "Canonical SMILES": "OC1(C=2C=CC=CC2C=CC=3C=CC=CC31)CCCN(C)C",
        "Molecular Formula": "C<sub>20</sub>H<sub>23</sub>NO",
        "Molecular Mass": "293.40",
        "Melting Point": "139-140 °C"
    }
}