{
    "cas_no": "2973-58-2",
    "key_name": "2-Bromo-3-hydroxy-4-methoxybenzaldehyde",
    "cn_name": "2-溴-3-羟基-4-甲氧基苯甲醛;",
    "alternate_name": "Benzaldehyde, 2-bromo-3-hydroxy-4-methoxy-;<em>p</em>-Anisaldehyde, 2-bromo-3-hydroxy-;Isovanillin, 2-bromo-;2-Bromo-3-hydroxy-4-methoxybenzaldehyde;2-Bromoisovanillin;2-Bromo-3-hydroxy-<em>p</em>-anisaldehyde;2-Bromo-3-formyl-6-methoxyphenol;NSC 12212;NSC 139143;Bromovanin",
    "duplicated_cas_no": "",
    "SMILES": "C(=O)C1=C(Br)C(O)=C(OC)C=C1",
    "meta_data": {
        "InChI": "InChI=1S/C8H7BrO3/c1-12-6-3-2-5(4-10)7(9)8(6)11/h2-4,11H,1H3",
        "InChIKey": null,
        "Canonical SMILES": "O=CC1=CC=C(OC)C(O)=C1Br",
        "Molecular Formula": "C<sub>8</sub>H<sub>7</sub>BrO<sub>3</sub>",
        "Molecular Mass": "231.04",
        "Melting Point": "211-212 °C"
    }
}