{
    "cas_no": "589-57-1",
    "key_name": "Diethyl chlorophosphite",
    "cn_name": "二乙基氯代磷酸酯;氯代磷酸二乙酯;",
    "alternate_name": "Phosphorochloridous acid, diethyl ester;Ethyl phosphorochloridite;Diethyl phosphorochloridite;Ethyl chlorophosphite;Ethyl phosphorochloridite, (EtO)<sub>2</sub>ClP;Diethyl chlorophosphite;Chlorodiethoxyphosphine;Diethyl chlorophosphonite;Diethoxychlorophosphine",
    "duplicated_cas_no": "",
    "SMILES": "P(OCC)(OCC)Cl",
    "meta_data": {
        "InChI": "InChI=1S/C4H10ClO2P/c1-3-6-8(5)7-4-2/h3-4H2,1-2H3",
        "InChIKey": null,
        "Canonical SMILES": "ClP(OCC)OCC",
        "Molecular Formula": "C<sub>4</sub>H<sub>10</sub>ClO<sub>2</sub>P",
        "Molecular Mass": "156.55",
        "Boiling Point": "153 °C",
        "Melting Point": "&lt;25 °C",
        "Density": "1.0816 g/cm³ @ Temp: 20 °C"
    }
}