{
    "cas_no": "594-37-6",
    "key_name": "1,2-Dichloro-2-methylpropane",
    "cn_name": "1,2-二氯-2-甲基丙烷;",
    "alternate_name": "Propane, 1,2-dichloro-2-methyl-;1,2-Dichloro-2-methylpropane;(Chloromethyl)chlorodimethylmethane;NSC 166449;2-Methyl-1,2-dichloropropane;1,2-Dichloroisobutane",
    "duplicated_cas_no": "",
    "SMILES": "C(CCl)(C)(C)Cl",
    "meta_data": {
        "InChI": "InChI=1S/C4H8Cl2/c1-4(2,6)3-5/h3H2,1-2H3",
        "InChIKey": null,
        "Canonical SMILES": "ClCC(Cl)(C)C",
        "Molecular Formula": "C<sub>4</sub>H<sub>8</sub>Cl<sub>2</sub>",
        "Molecular Mass": "127.01",
        "Boiling Point": "106.5 °C",
        "Density": "1.093 g/cm³ @ Temp: 20 °C"
    }
}