{
    "cas_no": "716-53-0",
    "key_name": "9-Chloroanthracene",
    "cn_name": "9-氯蒽;",
    "alternate_name": "Anthracene, 9-chloro-;9-Chloroanthracene;10-Chloroanthracene",
    "duplicated_cas_no": "",
    "SMILES": "ClC=1C2=C(C=C3C1C=CC=C3)C=CC=C2",
    "meta_data": {
        "InChI": "InChI=1S/C14H9Cl/c15-14-12-7-3-1-5-10(12)9-11-6-2-4-8-13(11)14/h1-9H",
        "InChIKey": null,
        "Canonical SMILES": "ClC=1C=2C=CC=CC2C=C3C=CC=CC31",
        "Molecular Formula": "C<sub>14</sub>H<sub>9</sub>Cl",
        "Molecular Mass": "212.67",
        "Melting Point": "104-106 °C"
    }
}