{
    "cas_no": "63666-11-5",
    "key_name": "1<em>H</em>-1,2,4-Triazole-3-carboxylic acid, 5-amino-, ethyl ester",
    "cn_name": null,
    "alternate_name": "1<em>H</em>-1,2,4-Triazole-3-carboxylic acid, 5-amino-, ethyl ester;NSC 148474;Ethyl 5-amino-1<em>H</em>-1,2,4-triazole-3-carboxylate;Ethyl 2-amino-1,3,4-triazole-5-carboxylate;Ethyl 5-amino-1,2,4-triazole-3-carboxylate",
    "duplicated_cas_no": "",
    "SMILES": "C(OCC)(=O)C1=NN=C(N)N1",
    "meta_data": {
        "InChI": "InChI=1S/C5H8N4O2/c1-2-11-4(10)3-7-5(6)9-8-3/h2H2,1H3,(H3,6,7,8,9)",
        "InChIKey": null,
        "Canonical SMILES": "O=C(OCC)C1=NN=C(N)N1",
        "Molecular Formula": "C<sub>5</sub>H<sub>8</sub>N<sub>4</sub>O<sub>2</sub>",
        "Molecular Mass": "156.14",
        "Melting Point": "242-243 °C"
    }
}