{
    "cas_no": "69049-73-6",
    "key_name": "Nedocromil",
    "cn_name": "尼多克罗;奈多罗米;9-乙基-6,9-二氢-4,6-二氧代-10-丙基-4H-吡喃并[3,2-g]喹啉-2,8-二甲酸;",
    "alternate_name": "4<em>H</em>-Pyrano[3,2-<em>g</em>]quinoline-2,8-dicarboxylic acid, 9-ethyl-6,9-dihydro-4,6-dioxo-10-propyl-;9-Ethyl-6,9-dihydro-4,6-dioxo-10-propyl-4<em>H</em>-pyrano[3,2-<em>g</em>]quinoline-2,8-dicarboxylic acid;Nedocromil;FPL 59002",
    "duplicated_cas_no": "",
    "SMILES": "C(CC)C1=C2C(=CC3=C1OC(C(O)=O)=CC3=O)C(=O)C=C(C(O)=O)N2CC",
    "meta_data": {
        "InChI": "InChI=1S/C19H17NO7/c1-3-5-9-16-10(13(21)7-12(18(23)24)20(16)4-2)6-11-14(22)8-15(19(25)26)27-17(9)11/h6-8H,3-5H2,1-2H3,(H,23,24)(H,25,26)",
        "InChIKey": null,
        "Canonical SMILES": "O=C(O)C=1OC2=C(C=C3C(=O)C=C(C(=O)O)N(C3=C2CCC)CC)C(=O)C1",
        "Molecular Formula": "C<sub>19</sub>H<sub>17</sub>NO<sub>7</sub>",
        "Molecular Mass": "371.34",
        "Melting Point": "299 °C (decomp)"
    }
}