{
    "cas_no": "7152-24-1",
    "key_name": "2-(Methylthio)benzimidazole",
    "cn_name": null,
    "alternate_name": "1<em>H</em>-Benzimidazole, 2-(methylthio)-;Benzimidazole, 2-(methylthio)-;2-(Methylthio)-1<em>H</em>-benzimidazole;<em>S</em>-Methyl-2-mercaptobenzimidazole;2-Methylmercaptobenzimidazole;2-(Methylthio)benzimidazole;NSC 21699;2-(Methylsulfanyl)benzimidazole;2-(Methylsulfanyl)-1<em>H</em>-benzimidazole;2-(Methylsulfanyl)-1<em>H</em>-1,3-benzodiazole",
    "duplicated_cas_no": "",
    "SMILES": "S(C)C=1NC=2C(N1)=CC=CC2",
    "meta_data": {
        "InChI": "InChI=1S/C8H8N2S/c1-11-8-9-6-4-2-3-5-7(6)10-8/h2-5H,1H3,(H,9,10)",
        "InChIKey": null,
        "Canonical SMILES": "N1=C(SC)NC=2C=CC=CC12",
        "Molecular Formula": "C<sub>8</sub>H<sub>8</sub>N<sub>2</sub>S",
        "Molecular Mass": "164.23",
        "Melting Point": "203 °C"
    }
}