{
    "cas_no": "52329-60-9",
    "key_name": "Aminomebendazole",
    "cn_name": null,
    "alternate_name": "Methanone, (2-amino-1<em>H</em>-benzimidazol-6-yl)phenyl-;Methanone, (2-amino-1<em>H</em>-benzimidazol-5-yl)phenyl-;(2-Amino-1<em>H</em>-benzimidazol-6-yl)phenylmethanone;R 18986;(2-Amino-1<em>H</em>-benzimidazol-5-yl)phenylmethanone;2-Amino-5-benzoylbenzimidazole;G 1029;2-Amino-5-benzoyl-1<em>H</em>-benzimidazole;Aminomebendazole;(2-Amino-3<em>H</em>-benzimidazol-5-yl)-phenylmethanone",
    "duplicated_cas_no": "",
    "SMILES": "C(=O)(C=1C=C2C(=CC1)N=C(N)N2)C3=CC=CC=C3",
    "meta_data": {
        "InChI": "InChI=1S/C14H11N3O/c15-14-16-11-7-6-10(8-12(11)17-14)13(18)9-4-2-1-3-5-9/h1-8H,(H3,15,16,17)",
        "InChIKey": null,
        "Canonical SMILES": "O=C(C=1C=CC=CC1)C=2C=CC=3N=C(N)NC3C2",
        "Molecular Formula": "C<sub>14</sub>H<sub>11</sub>N<sub>3</sub>O",
        "Molecular Mass": "237.26",
        "Melting Point": "192 °C"
    }
}