{
    "cas_no": "96-27-5",
    "key_name": "Thioglycerol",
    "cn_name": "1-硫代甘油;3-巯基-1,2-丙二醇;1-巯基甘油;",
    "alternate_name": "1,2-Propanediol, 3-mercapto-;3-Mercapto-1,2-propanediol;1-Mercaptoglycerol;1-Mercapto-2,3-propanediol;α-Monothioglycerol;α-Thioglycerol;1-Thioglycerol;Thiovanol;1-Monothioglycerol;1-Thio-2,3-propanediol;Thioglycerol;α-Thiolglycerol;2,3-Dihydroxypropanethiol;Glycerol-1-thiol;2,3-Dihydroxy-1-propanethiol;3-Mercapto-1,2-dihydroxypropane;α-Thioglycerin;1-Mercapto-2,3-dihydroxypropane;1,2-Dihydroxy-3-mercaptopropane;1-Thio-<span class=\"text-smallcaps\">DL</span>-glycerol;<span class=\"text-smallcaps\">DL</span>-1-Thioglycerol;(±)-3-Mercapto-1,2-propanediol;Thioglycerin;NSC 5370;3-Sulfanylpropane-1,2-diol;Blemmer TGL;T 141418",
    "duplicated_cas_no": "1320-53-2;53023-42-0;913838-26-3",
    "SMILES": "C(CO)(CS)O",
    "meta_data": {
        "InChI": "InChI=1S/C3H8O2S/c4-1-3(5)2-6/h3-6H,1-2H2",
        "InChIKey": null,
        "Canonical SMILES": "OCC(O)CS",
        "Molecular Formula": "C<sub>3</sub>H<sub>8</sub>O<sub>2</sub>S",
        "Molecular Mass": "108.16",
        "Boiling Point": "118 °C @ Press: 5 Torr",
        "Melting Point": "&lt;25 °C",
        "Density": "1.295 g/cm³"
    }
}