{
    "cas_no": "129042-71-3",
    "key_name": "β-Aminocyclohexanepropanoic acid",
    "cn_name": null,
    "alternate_name": "Cyclohexanepropanoic acid, β-amino-;β-Aminocyclohexanepropanoic acid;3-Amino-3-cyclohexanepropionic acid;3-Amino-3-cyclohexylpropionic acid;(±)-3-Amino-3-cyclohexylpropanoic acid;3-Cyclohexyl-3-aminopropionic acid",
    "duplicated_cas_no": "104883-51-4",
    "SMILES": "C(CC(O)=O)(N)C1CCCCC1",
    "meta_data": {
        "InChI": "InChI=1S/C9H17NO2/c10-8(6-9(11)12)7-4-2-1-3-5-7/h7-8H,1-6,10H2,(H,11,12)",
        "InChIKey": null,
        "Canonical SMILES": "O=C(O)CC(N)C1CCCCC1",
        "Molecular Formula": "C<sub>9</sub>H<sub>17</sub>NO<sub>2</sub>",
        "Molecular Mass": "171.24",
        "Melting Point": "217-218 °C"
    }
}