{
    "cas_no": "626-56-2",
    "key_name": "3-Methylpiperidine",
    "cn_name": "3-甲基哌啶;",
    "alternate_name": "Piperidine, 3-methyl-;3-Pipecoline;Piperidine, 3-methyl-, (±)-;3-Methylpiperidine;β-Pipecoline;β-Methylpiperidine;(±)-3-Methylpiperidine;NSC 66494",
    "duplicated_cas_no": "53152-98-0",
    "SMILES": "CC1CCCNC1",
    "meta_data": {
        "InChI": "InChI=1S/C6H13N/c1-6-3-2-4-7-5-6/h6-7H,2-5H2,1H3",
        "InChIKey": null,
        "Canonical SMILES": "N1CCCC(C)C1",
        "Molecular Formula": "C<sub>6</sub>H<sub>13</sub>N",
        "Molecular Mass": "99.17",
        "Boiling Point": "125 °C",
        "Melting Point": "174-175 °C",
        "Density": "0.857 g/cm³ @ Temp: 20 °C"
    }
}