{
    "cas_no": "21594-52-5",
    "key_name": "6-Bromo-3<em>H</em>-oxazolo[4,5-<em>b</em>]pyridin-2-one",
    "cn_name": "6-溴-3H-恶唑并[4,5-b]吡啶-2-酮;",
    "alternate_name": "Oxazolo[4,5-<em>b</em>]pyridin-2(3<em>H</em>)-one, 6-bromo-;6-Bromooxazolo[4,5-<em>b</em>]pyridin-2(3<em>H</em>)-one;6-Bromo-3<em>H</em>-oxazolo[4,5-<em>b</em>]pyridin-2-one",
    "duplicated_cas_no": "",
    "SMILES": "O=C1NC=2C(O1)=CC(Br)=CN2",
    "meta_data": {
        "InChI": "InChI=1S/C6H3BrN2O2/c7-3-1-4-5(8-2-3)9-6(10)11-4/h1-2H,(H,8,9,10)",
        "InChIKey": null,
        "Canonical SMILES": "O=C1OC2=CC(Br)=CN=C2N1",
        "Molecular Formula": "C<sub>6</sub>H<sub>3</sub>BrN<sub>2</sub>O<sub>2</sub>",
        "Molecular Mass": "215.00",
        "Melting Point": "233-235 °C"
    }
}