{
    "cas_no": "591-78-6",
    "key_name": "2-Hexanone",
    "cn_name": "2-己酮;甲基丁基甲酮;",
    "alternate_name": "2-Hexanone;<em>n</em>-Butyl methyl ketone;Methyl butyl ketone;Butyl methyl ketone;2-Oxohexane;Methyl <em>n</em>-butyl ketone;MBK",
    "duplicated_cas_no": "",
    "SMILES": "C(C(C)=O)CCC",
    "meta_data": {
        "InChI": "InChI=1S/C6H12O/c1-3-4-5-6(2)7/h3-5H2,1-2H3",
        "InChIKey": null,
        "Canonical SMILES": "O=C(C)CCCC",
        "Molecular Formula": "C<sub>6</sub>H<sub>12</sub>O",
        "Molecular Mass": "100.16",
        "Boiling Point": "127.6 °C",
        "Melting Point": "-55.5 °C",
        "Density": "0.8113 g/cm³ @ Temp: 20 °C"
    }
}