{
    "cas_no": "2069-48-9",
    "key_name": "4-Chloro-4′-fluorobenzophenone",
    "cn_name": null,
    "alternate_name": "Methanone, (4-chlorophenyl)(4-fluorophenyl)-;Benzophenone, 4-chloro-4′-fluoro-;(4-Chlorophenyl)(4-fluorophenyl)methanone;4-Chloro-4′-fluorobenzophenone;4-Fluoro-4′-chlorobenzophenone",
    "duplicated_cas_no": "",
    "SMILES": "C(=O)(C1=CC=C(Cl)C=C1)C2=CC=C(F)C=C2",
    "meta_data": {
        "InChI": "InChI=1S/C13H8ClFO/c14-11-5-1-9(2-6-11)13(16)10-3-7-12(15)8-4-10/h1-8H",
        "InChIKey": null,
        "Canonical SMILES": "O=C(C1=CC=C(F)C=C1)C2=CC=C(Cl)C=C2",
        "Molecular Formula": "C<sub>13</sub>H<sub>8</sub>ClFO",
        "Molecular Mass": "234.65",
        "Melting Point": "114-115 °C"
    }
}