{
    "cas_no": "640-68-6",
    "key_name": "<span class=\"text-smallcaps\">D</span>-Valine",
    "cn_name": "D-缬氨酸;D-2-氨基-3-甲基丁酸;",
    "alternate_name": "<span class=\"text-smallcaps\">D</span>-Valine;Valine, <span class=\"text-smallcaps\">D</span>-;(<em>R</em>)-Valine;<span class=\"text-smallcaps\">D</span>-(-)-Valine;NSC 20654;(-)-2-Amino-3-methylbutyric acid;(<em>R</em>)-3-Methyl-2-aminobutanoic acid;(<em>R</em>)-2-Amino-3-methylbutanoic acid;(R)-2-Amino-3-methylbutanoic acid;(2R)-2-Amino-3-methylbutanoic acid",
    "duplicated_cas_no": "",
    "SMILES": "[C@@H](C(C)C)(C(O)=O)N",
    "meta_data": {
        "InChI": "InChI=1S/C5H11NO2/c1-3(2)4(6)5(7)8/h3-4H,6H2,1-2H3,(H,7,8)/t4-/m1/s1",
        "InChIKey": null,
        "Canonical SMILES": "O=C(O)C(N)C(C)C",
        "Molecular Formula": "C<sub>5</sub>H<sub>11</sub>NO<sub>2</sub>",
        "Molecular Mass": "117.15",
        "Melting Point": "280 °C"
    }
}