{
    "cas_no": "67392-87-4",
    "key_name": "Drospirenone",
    "cn_name": "屈螺酮;曲螺酮;6b,7b:15b,16b-二亚甲基-3-氧代-17a-孕甾-4-烯-21,17-羧内酯;",
    "alternate_name": "Spiro[17<em>H</em>-dicyclopropa[6,7:15,16]cyclopenta[<em>a</em>]phenanthrene-17,2′(5′<em>H</em>)-furan]-3,5′(2<em>H</em>)-dione, 1,3′,4′,6,7,8,9,10,11,12,13,14,15,16,20,21-hexadecahydro-10,13-dimethyl-, (2′<em>S</em>,6<em>R</em>,7<em>R</em>,8<em>R</em>,9<em>S</em>,10<em>R</em>,13<em>S</em>,14<em>S</em>,15<em>S</em>,16<em>S</em>)-;Spiro[17<em>H</em>-dicyclopropa[6,7:15,16]cyclopenta[<em>a</em>]phenanthrene-17,2′(5′<em>H</em>)-furan]-3,5′(2<em>H</em>)-dione, 1,3′,4′,6,7,8,9,10,11,12,13,14,15,16,20,21-hexadecahydro-10,13-dimethyl-, [6<em>R</em>-(6α,7α,8β,9α,10β,13β,14α,15α,16α,17β)]-;(2′<em>S</em>,6<em>R</em>,7<em>R</em>,8<em>R</em>,9<em>S</em>,10<em>R</em>,13<em>S</em>,14<em>S</em>,15<em>S</em>,16<em>S</em>)-1,3′,4′,6,7,8,9,10,11,12,13,14,15,16,20,21-Hexadecahydro-10,13-dimethylspiro[17<em>H</em>-dicyclopropa[6,7:15,16]cyclopenta[<em>a</em>]phenanthrene-17,2′(5′<em>H</em>)-furan]-3,5′(2<em>H</em>)-dione;1,2-Dihydrospirorenone;Drospirenone;Dihydrospirorenone;ZK 30595;3-Oxo-6β,7β:15β,16β-dimethylene-17α-pregn-4-en-21,17-carbolactone;BRN 4765500;CCRIS 6523;Drospirenona;6β,7β:15β,16β-Dimethylene-3-oxo-17α-pregn-4-ene-21,17-carbolactone;17β-Hydroxy-6β,7β:15β,16β-dimethylene-3-oxo-17α-pregn-4-ene-21-carboxylic acid γ-lactone",
    "duplicated_cas_no": "",
    "SMILES": "C[C@@]12[C@]3([C@@]4([C@]([C@]1([C@]5([C@](CC2)([C@]6(C)C([C@]7([C@@]5(C7)[H])[H])=CC(=O)CC6)[H])[H])[H])(C4)[H])[H])OC(=O)CC3",
    "meta_data": {
        "InChI": "InChI=1S/C24H30O3/c1-22-6-3-12(25)9-17(22)13-10-14(13)20-16(22)4-7-23(2)21(20)15-11-18(15)24(23)8-5-19(26)27-24/h9,13-16,18,20-21H,3-8,10-11H2,1-2H3/t13-,14+,15-,16+,18+,20-,21+,22-,23+,24+/m1/s1",
        "InChIKey": null,
        "Canonical SMILES": "O=C1OC2(CC1)C3CC3C4C5C6CC6C7=CC(=O)CCC7(C)C5CCC42C",
        "Molecular Formula": "C<sub>24</sub>H<sub>30</sub>O<sub>3</sub>",
        "Molecular Mass": "366.49",
        "Melting Point": "201.3 °C"
    }
}