{
    "cas_no": "628-73-9",
    "key_name": "Hexanenitrile",
    "cn_name": "己腈;正己腈;氰戊烷;正戊基氰;戊基氰;氰化正戊烷;",
    "alternate_name": "Hexanenitrile;Capronitrile;Pentyl cyanide;Hexanonitrile;Tricapronile;1-Cyanopentane;<em>n</em>-Hexanenitrile;<em>n</em>-Capronitrile;<em>n</em>-Pentyl cyanide;<em>n</em>-Amyl cyanide;NSC 1076",
    "duplicated_cas_no": "",
    "SMILES": "C(CCC)CC#N",
    "meta_data": {
        "InChI": "InChI=1S/C6H11N/c1-2-3-4-5-6-7/h2-5H2,1H3",
        "InChIKey": null,
        "Canonical SMILES": "N#CCCCCC",
        "Molecular Formula": "C<sub>6</sub>H<sub>11</sub>N",
        "Molecular Mass": "97.16",
        "Boiling Point": "163.6 °C",
        "Melting Point": "-80.3 °C",
        "Density": "0.82157 g/cm³ @ Temp: 0 °C"
    }
}