{
    "cas_no": "774-65-2",
    "key_name": "<em>tert</em>-Butyl benzoate",
    "cn_name": "叔丁基苯甲酸;",
    "alternate_name": "Benzoic acid, 1,1-dimethylethyl ester;Benzoic acid, <em>tert</em>-butyl ester;Trimethylcarbinol benzoate;<em>tert</em>-Butyl benzoate;1,1-Dimethylethyl benzoate;NSC 42534;2-Benzoyloxy-2-methylpropane",
    "duplicated_cas_no": "",
    "SMILES": "C(OC(C)(C)C)(=O)C1=CC=CC=C1",
    "meta_data": {
        "InChI": "InChI=1S/C11H14O2/c1-11(2,3)13-10(12)9-7-5-4-6-8-9/h4-8H,1-3H3",
        "InChIKey": null,
        "Canonical SMILES": "O=C(OC(C)(C)C)C=1C=CC=CC1",
        "Molecular Formula": "C<sub>11</sub>H<sub>14</sub>O<sub>2</sub>",
        "Molecular Mass": "178.23",
        "Boiling Point": "213 °C",
        "Density": "0.9928 g/cm³ @ Temp: 25 °C"
    }
}