{
    "cas_no": "2751-90-8",
    "key_name": "Tetraphenylphosphonium bromide",
    "cn_name": "四苯基溴化鏻;",
    "alternate_name": "Phosphonium, tetraphenyl-, bromide (1:1);Phosphonium, tetraphenyl-, bromide;Tetraphenylphosphonium bromide;Tetraphenylphosphorus bromide;TPP-PB;TTP-PB;Bromotetraphenylphosphorane;T 1069",
    "duplicated_cas_no": "15376-06-4;24038-30-0;1214986-42-1",
    "SMILES": "[P+](C1=CC=CC=C1)(C2=CC=CC=C2)(C3=CC=CC=C3)C4=CC=CC=C4.[Br-]",
    "meta_data": {
        "InChI": "InChI=1S/C24H20P.BrH/c1-5-13-21(14-6-1)25(22-15-7-2-8-16-22,23-17-9-3-10-18-23)24-19-11-4-12-20-24;/h1-20H;1H/q+1;/p-1",
        "InChIKey": null,
        "Canonical SMILES": "[Br-].C=1C=CC(=CC1)[P+](C=2C=CC=CC2)(C=3C=CC=CC3)C=4C=CC=CC4",
        "Molecular Formula": "C<sub>24</sub>H<sub>20</sub>P.Br",
        "Molecular Mass": "",
        "Melting Point": "286-288 °C"
    }
}