{
    "cas_no": "1291-32-3",
    "key_name": "Zirconocene, dichloride",
    "cn_name": "二氯二茂锆;双环戊二烯二氯化锆;",
    "alternate_name": "Zirconium, dichlorobis(η<sup>5</sup>-2,4-cyclopentadien-1-yl)-;Zirconium, dichlorodi-π-cyclopentadienyl-;Zirconium, dichlorodicyclopentadienyl-;Dichlorobis(η<sup>5</sup>-2,4-cyclopentadien-1-yl)zirconium;Zirconocene, dichloride;Dichlorodicyclopentadienylzirconium;Dichlorodi-π-cyclopentadienylzirconium;Dicyclopentadienyldichlorozirconium;Zirconium dicyclopentadiene dichloride;Bis-π-cyclopentadienyldichlorozirconium;Dichlorodi-π-dicyclopentadienylzirconium;Dichlorobis(cyclopentadienyl) zirconium;Dichlorozirconocene;Dichlorobis(π-cyclopentadienyl)zirconium;Bis(cyclopentadienyl)zirconium dichloride;Dichlorobis(η<sup>5</sup>-cyclopentadienyl)zirconium;Bis(cyclopentadienyl)dichlorozirconium;Bis(η<sup>5</sup>-cyclopentadienyl)zirconium dichloride;Dichloro(cyclopentadienyl)zirconium;Dicyclopentadienylzirconium dichloride;Eurecen 5034;Bis(cyclopentadienyl)zirconium(IV) dichloride;Bis(η<sup>5</sup>-cyclopentadienyl)dichlorozirconium;NSC 93930;dichlorobis(η<sup>5</sup>-2,4-cyclopentadien-1-yl)zirconium;Zirconocene dichloride;Cp2ZrCl2",
    "duplicated_cas_no": "23845-55-8",
    "SMILES": "[Cl-][Zr+4]12345678([Cl-])([CH]=9[CH]1=[CH]2[CH-]3[CH]49)[CH]=%10[CH]5=[CH]6[CH-]7[CH]8%10",
    "meta_data": {
        "InChI": "InChI=1S/2C5H5.2ClH.Zr/c2*1-2-4-5-3-1;;;/h2*1-5H;2*1H;/q2*-1;;;+4/p-2",
        "InChIKey": null,
        "Canonical SMILES": "[Cl-][Zr+4]12345678([Cl-])([CH]=9[CH]4=[CH]3[CH-]2[CH]91)[CH]=%10[CH]8=[CH]7[CH-]6[CH]%105",
        "Molecular Formula": "C<sub>10</sub>H<sub>10</sub>Cl<sub>2</sub>Zr",
        "Molecular Mass": "",
        "Boiling Point": "242-245 °C",
        "Melting Point": "242-243 °C"
    }
}