{
    "cas_no": "4097-22-7",
    "key_name": "Dideoxyadenosine",
    "cn_name": "2\",3\"-双脱氧腺苷;2\",3\"-双脱氧腺甙;",
    "alternate_name": "Adenosine, 2′,3′-dideoxy-;2′,3′-Dideoxyadenosine;Dideoxyadenosine;NSC 98700;NQZ-047",
    "duplicated_cas_no": "117174-26-2;6699-71-4",
    "SMILES": "NC1=C2C(N(C=N2)[C@@H]3O[C@H](CO)CC3)=NC=N1",
    "meta_data": {
        "InChI": "InChI=1S/C10H13N5O2/c11-9-8-10(13-4-12-9)15(5-14-8)7-2-1-6(3-16)17-7/h4-7,16H,1-3H2,(H2,11,12,13)/t6-,7+/m0/s1",
        "InChIKey": null,
        "Canonical SMILES": "OCC1OC(N2C=NC=3C(=NC=NC32)N)CC1",
        "Molecular Formula": "C<sub>10</sub>H<sub>13</sub>N<sub>5</sub>O<sub>2</sub>",
        "Molecular Mass": "235.24",
        "Melting Point": "184-186 °C"
    }
}