{
    "cas_no": "637-59-2",
    "key_name": "1-Bromo-3-phenylpropane",
    "cn_name": "1-溴-3-苯基丙烷;",
    "alternate_name": "Benzene, (3-bromopropyl)-;(3-Bromopropyl)benzene;(γ-Bromopropyl)benzene;1-Bromo-3-phenylpropane;3-Phenylpropyl bromide;3-Bromo-1-phenylpropane;1-Phenyl-3-bromopropane;3-Phenyl-1-bromopropane;NSC 133438",
    "duplicated_cas_no": "",
    "SMILES": "C(CCBr)C1=CC=CC=C1",
    "meta_data": {
        "InChI": "InChI=1S/C9H11Br/c10-8-4-7-9-5-2-1-3-6-9/h1-3,5-6H,4,7-8H2",
        "InChIKey": null,
        "Canonical SMILES": "BrCCCC=1C=CC=CC1",
        "Molecular Formula": "C<sub>9</sub>H<sub>11</sub>Br",
        "Molecular Mass": "199.09",
        "Boiling Point": "219.5 °C",
        "Melting Point": "95.7-96.8 °C",
        "Density": "1.3106 g/cm³ @ Temp: 25 °C"
    }
}