{
    "cas_no": "41453-56-9",
    "key_name": "<em>cis</em>-2-Nonen-1-ol",
    "cn_name": "顺式-2-壬烯-3-醇;",
    "alternate_name": "2-Nonen-1-ol, (2<em>Z</em>)-;2-Nonen-1-ol, (<em>Z</em>)-;(2<em>Z</em>)-2-Nonen-1-ol;<em>cis</em>-2-Nonen-1-ol;(<em>Z</em>)-2-Nonenyl alcohol;(<em>Z</em>)-2-Nonen-1-ol",
    "duplicated_cas_no": "",
    "SMILES": "C(C/C=C\\CO)CCCC",
    "meta_data": {
        "InChI": "InChI=1S/C9H18O/c1-2-3-4-5-6-7-8-9-10/h7-8,10H,2-6,9H2,1H3/b8-7-",
        "InChIKey": null,
        "Canonical SMILES": "OCC=CCCCCCC",
        "Molecular Formula": "C<sub>9</sub>H<sub>18</sub>O",
        "Molecular Mass": "142.24",
        "Boiling Point": "110 °C @ Press: 22 Torr"
    }
}