{
    "cas_no": "17261-28-8",
    "key_name": "2-(Diphenylphosphino)benzoic acid",
    "cn_name": "2-二苯基膦苯甲酸;",
    "alternate_name": "Benzoic acid, 2-(diphenylphosphino)-;Benzoic acid, <em>o</em>-(diphenylphosphino)-;2-(Diphenylphosphino)benzoic acid;<em>o</em>-(Diphenylphosphino)benzoic acid;(2-Carboxyphenyl)diphenylphosphine;2-(Diphenylphosphanyl)benzoic acid",
    "duplicated_cas_no": "1627500-87-1",
    "SMILES": "P(C1=C(C(O)=O)C=CC=C1)(C2=CC=CC=C2)C3=CC=CC=C3",
    "meta_data": {
        "InChI": "InChI=1S/C19H15O2P/c20-19(21)17-13-7-8-14-18(17)22(15-9-3-1-4-10-15)16-11-5-2-6-12-16/h1-14H,(H,20,21)",
        "InChIKey": null,
        "Canonical SMILES": "O=C(O)C=1C=CC=CC1P(C=2C=CC=CC2)C=3C=CC=CC3",
        "Molecular Formula": "C<sub>19</sub>H<sub>15</sub>O<sub>2</sub>P",
        "Molecular Mass": "306.30",
        "Boiling Point": "159 °C",
        "Melting Point": "165-167 °C"
    }
}