{
    "cas_no": "35418-16-7",
    "key_name": "5-Oxo-<span class=\"text-smallcaps\">L</span>-proline 1,1-dimethylethyl ester",
    "cn_name": null,
    "alternate_name": "<span class=\"text-smallcaps\">L</span>-Proline, 5-oxo-, 1,1-dimethylethyl ester;5-Oxo-<span class=\"text-smallcaps\">L</span>-proline 1,1-dimethylethyl ester;5-Oxo-<span class=\"text-smallcaps\">L</span>-proline <em>tert</em>-butyl ester;<em>tert</em>-Butyl <span class=\"text-smallcaps\">L</span>-pyroglutamate;<em>tert</em>-Butyl pyroglutamate;(<em>S</em>)-5-Oxoproline <em>tert</em>-butyl ester;<em>tert</em>-Butyl (<em>S</em>)-5-oxo-2-pyrrolidinecarboxylate;<em>tert</em>-Butyl 5-oxo-<span class=\"text-smallcaps\">L</span>-prolinate;(<em>S</em>)-<em>tert</em>-Butyl 5-oxopyrrolidine-2-carboxylate",
    "duplicated_cas_no": "",
    "SMILES": "C(OC(C)(C)C)(=O)[C@@H]1CCC(=O)N1",
    "meta_data": {
        "InChI": "InChI=1S/C9H15NO3/c1-9(2,3)13-8(12)6-4-5-7(11)10-6/h6H,4-5H2,1-3H3,(H,10,11)/t6-/m0/s1",
        "InChIKey": null,
        "Canonical SMILES": "O=C(OC(C)(C)C)C1NC(=O)CC1",
        "Molecular Formula": "C<sub>9</sub>H<sub>15</sub>NO<sub>3</sub>",
        "Molecular Mass": "185.22",
        "Melting Point": "104-106 °C"
    }
}