{
    "cas_no": "653-37-2",
    "key_name": "Pentafluorobenzaldehyde",
    "cn_name": "五氟苯甲醛;",
    "alternate_name": "Benzaldehyde, 2,3,4,5,6-pentafluoro-;Benzaldehyde, pentafluoro-;2,3,4,5,6-Pentafluorobenzaldehyde;Pentafluorobenzaldehyde;Perfluorobenzaldehyde;Formylpentafluorobenzene;NSC 96967",
    "duplicated_cas_no": "",
    "SMILES": "C(=O)C1=C(F)C(F)=C(F)C(F)=C1F",
    "meta_data": {
        "InChI": "InChI=1S/C7HF5O/c8-3-2(1-13)4(9)6(11)7(12)5(3)10/h1H",
        "InChIKey": null,
        "Canonical SMILES": "O=CC=1C(F)=C(F)C(F)=C(F)C1F",
        "Molecular Formula": "C<sub>7</sub>HF<sub>5</sub>O",
        "Molecular Mass": "196.07",
        "Boiling Point": "167 °C",
        "Melting Point": "20 °C"
    }
}