{
    "cas_no": "80-10-4",
    "key_name": "Dichlorodiphenylsilane",
    "cn_name": "二苯二氯硅烷;二氯二苯基硅烷;二苯基二氯硅烷;",
    "alternate_name": "Benzene, 1,1′-(dichlorosilylene)bis-;Silane, dichlorodiphenyl-;1,1′-(Dichlorosilylene)bis[benzene];Dichlorodiphenylsilane;Diphenyldichlorosilane;Diphenylsilicon dichloride;Diphenylsilyl dichloride;TSL 8062;NSC 77110",
    "duplicated_cas_no": "155684-38-1",
    "SMILES": "[Si](Cl)(Cl)(C1=CC=CC=C1)C2=CC=CC=C2",
    "meta_data": {
        "InChI": "InChI=1S/C12H10Cl2Si/c13-15(14,11-7-3-1-4-8-11)12-9-5-2-6-10-12/h1-10H",
        "InChIKey": null,
        "Canonical SMILES": "Cl[Si](Cl)(C=1C=CC=CC1)C=2C=CC=CC2",
        "Molecular Formula": "C<sub>12</sub>H<sub>10</sub>Cl<sub>2</sub>Si",
        "Molecular Mass": "253.20",
        "Boiling Point": "305 °C",
        "Melting Point": "-22 °C",
        "Density": "1.204 g/cm³ @ Temp: 25 °C"
    }
}