{
    "cas_no": "7778-74-7",
    "key_name": "Potassium perchlorate",
    "cn_name": "高氯酸钾;过氯酸钾;",
    "alternate_name": "Perchloric acid, potassium salt (1:1);Perchloric acid, potassium salt;Peroidin;Potassium perchlorate;Potassium perchlorate (KClO<sub>4</sub>);Spectrex Fire Extinguishant Formulation A",
    "duplicated_cas_no": "885624-01-1;1217793-70-8",
    "SMILES": "Cl(=O)(=O)(=O)O.[K]",
    "meta_data": {
        "InChI": "InChI=1S/ClHO4.K/c2-1(3,4)5;/h(H,2,3,4,5);",
        "InChIKey": null,
        "Canonical SMILES": "[K].O=Cl(=O)(=O)O",
        "Molecular Formula": "ClHO<sub>4</sub>.K",
        "Molecular Mass": "",
        "Melting Point": "525 °C",
        "Density": "2.53 g/cm³"
    }
}