{
    "cas_no": "3973-18-0",
    "key_name": "2-(2-Propyn-1-yloxy)ethanol",
    "cn_name": "丙炔醇乙氧基化合物;PME;",
    "alternate_name": "Ethanol, 2-(2-propyn-1-yloxy)-;Ethanol, 2-(2-propynyloxy)-;2-(2-Propyn-1-yloxy)ethanol;Ethylene glycol monopropargyl ether;4-Oxa-1-hexyn-6-ol;2-(2-Propynyloxy)ethanol;2-Propynoxyethanol;2-(Propargyloxy)ethanol;3-(2-Hydroxyethoxy)-1-propyne;2-(Prop-2-yn-1-yloxy)ethan-1-ol;2-Prop-2-ynoxyethanol;Ethanol, 2-(ethynyloxy)-",
    "duplicated_cas_no": "879551-19-6;2414345-39-2",
    "SMILES": "O(CC#C)CCO",
    "meta_data": {
        "InChI": "InChI=1S/C5H8O2/c1-2-4-7-5-3-6/h1,6H,3-5H2",
        "InChIKey": null,
        "Canonical SMILES": "C#CCOCCO",
        "Molecular Formula": "C<sub>5</sub>H<sub>8</sub>O<sub>2</sub>",
        "Molecular Mass": "100.12",
        "Boiling Point": "80-90 °C @ Press: 12-14 Torr",
        "Density": "1.0251 g/cm³ @ Temp: 20 °C"
    }
}