{
    "cas_no": "101968-85-8",
    "key_name": "<em>N</em>-[[(1,1-Dimethylethyl)amino]carbonyl]-3-methyl-<span class=\"text-smallcaps\">L</span>-valine",
    "cn_name": null,
    "alternate_name": "<span class=\"text-smallcaps\">L</span>-Valine, <em>N</em>-[[(1,1-dimethylethyl)amino]carbonyl]-3-methyl-;<em>N</em>-[[(1,1-Dimethylethyl)amino]carbonyl]-3-methyl-<span class=\"text-smallcaps\">L</span>-valine;<em>N</em>-<em>tert</em>-Butylcarbamoyl-<span class=\"text-smallcaps\">L</span>-<em>tert</em>-leucine;(2<em>S</em>)-2-(tert-butylaminocarbonylamino)-3,3-dimethylbutanoic acid;(<em>S</em>)-2-(3-<em>tert</em>-Butylureido)-3,3-dimethylbutanoic acid",
    "duplicated_cas_no": "",
    "SMILES": "[C@H](NC(NC(C)(C)C)=O)(C(C)(C)C)C(O)=O",
    "meta_data": {
        "InChI": "InChI=1S/C11H22N2O3/c1-10(2,3)7(8(14)15)12-9(16)13-11(4,5)6/h7H,1-6H3,(H,14,15)(H2,12,13,16)/t7-/m1/s1",
        "InChIKey": null,
        "Canonical SMILES": "O=C(NC(C(=O)O)C(C)(C)C)NC(C)(C)C",
        "Molecular Formula": "C<sub>11</sub>H<sub>22</sub>N<sub>2</sub>O<sub>3</sub>",
        "Molecular Mass": "230.30",
        "Melting Point": "185-192 °C"
    }
}