{
    "cas_no": "1081-71-6",
    "key_name": "Vanilpyruvic acid",
    "cn_name": "4-羟基-3-甲氧苯丙酮酸;",
    "alternate_name": "Benzenepropanoic acid, 4-hydroxy-3-methoxy-α-oxo-;Pyruvic acid, (4-hydroxy-3-methoxyphenyl)-;4-Hydroxy-3-methoxy-α-oxobenzenepropanoic acid;Guaiacylpyruvic acid;4-Hydroxy-3-methoxyphenylpyruvic acid;3-Methoxy-4-hydroxyphenylpyruvic acid;Vanilpyruvic acid;Vanylpyruvic acid;NSC 302091;4-Hydroxy-3-methoxy-Phenylacetylformic acid",
    "duplicated_cas_no": "",
    "SMILES": "C(C(C(O)=O)=O)C1=CC(OC)=C(O)C=C1",
    "meta_data": {
        "InChI": "InChI=1S/C10H10O5/c1-15-9-5-6(2-3-7(9)11)4-8(12)10(13)14/h2-3,5,11H,4H2,1H3,(H,13,14)",
        "InChIKey": null,
        "Canonical SMILES": "O=C(O)C(=O)CC1=CC=C(O)C(OC)=C1",
        "Molecular Formula": "C<sub>10</sub>H<sub>10</sub>O<sub>5</sub>",
        "Molecular Mass": "210.18",
        "Melting Point": "161 °C"
    }
}