{
    "cas_no": "4867-37-2",
    "key_name": "1-Chloro-3-(methylthio)benzene",
    "cn_name": "3-氯茴香硫醚;间氯茴香硫醚;",
    "alternate_name": "Benzene, 1-chloro-3-(methylthio)-;Sulfide, <em>m</em>-chlorophenyl methyl;1-Chloro-3-(methylthio)benzene;<em>m</em>-Chlorophenyl methyl sulfide;<em>m</em>-Chlorothioanisole;Methyl <em>m</em>-chlorophenyl sulfide;3-Chlorophenyl methyl sulfide;Methyl 3-chlorophenyl sulfide;NSC 133796;3-(Methylthio)-1-chlorobenzene;3-Chlorothioanisole;1-Chloro-3-methylthiobenzene;3-Methylthiophenyl chloride;1-Chloro-3-(methylsulfanyl)benzene;1-Chloro-3-methylsulfanylbenzene",
    "duplicated_cas_no": "",
    "SMILES": "S(C)C1=CC(Cl)=CC=C1",
    "meta_data": {
        "InChI": "InChI=1S/C7H7ClS/c1-9-7-4-2-3-6(8)5-7/h2-5H,1H3",
        "InChIKey": null,
        "Canonical SMILES": "ClC1=CC=CC(SC)=C1",
        "Molecular Formula": "C<sub>7</sub>H<sub>7</sub>ClS",
        "Molecular Mass": "158.65",
        "Boiling Point": "112 °C @ Press: 16 Torr"
    }
}