{
    "cas_no": "436-32-8",
    "key_name": "Diffractaic acid",
    "cn_name": "地弗地衣酸;",
    "alternate_name": "Benzoic acid, 2,4-dimethoxy-3,6-dimethyl-, 4-carboxy-3-hydroxy-2,5-dimethylphenyl ester;β-Resorcylic acid, 3,6-dimethyl-, 4-(2,4-dimethoxy-3,6-dimethylbenzoate);Diffractaic acid;NSC 685595;Difractaic acid;NSC 5901",
    "duplicated_cas_no": "",
    "SMILES": "C(OC1=C(C)C(O)=C(C(O)=O)C(C)=C1)(=O)C2=C(OC)C(C)=C(OC)C=C2C",
    "meta_data": {
        "InChI": "InChI=1S/C20H22O7/c1-9-8-14(11(3)17(21)15(9)19(22)23)27-20(24)16-10(2)7-13(25-5)12(4)18(16)26-6/h7-8,21H,1-6H3,(H,22,23)",
        "InChIKey": null,
        "Canonical SMILES": "O=C(O)C1=C(O)C(=C(OC(=O)C2=C(OC)C(=C(OC)C=C2C)C)C=C1C)C",
        "Molecular Formula": "C<sub>20</sub>H<sub>22</sub>O<sub>7</sub>",
        "Molecular Mass": "374.38",
        "Melting Point": "189-190 °C"
    }
}