{
    "cas_no": "22071-24-5",
    "key_name": "3-Benzoylbenzyl bromide",
    "cn_name": "3-苯甲酰苄基溴;3-(溴甲基)二苯甲酮;",
    "alternate_name": "Methanone, [3-(bromomethyl)phenyl]phenyl-;Benzophenone, 3-(bromomethyl)-;[3-(Bromomethyl)phenyl]phenylmethanone;3-(Bromomethyl)benzophenone;3-Benzoylbenzyl bromide",
    "duplicated_cas_no": "",
    "SMILES": "C(=O)(C1=CC(CBr)=CC=C1)C2=CC=CC=C2",
    "meta_data": {
        "InChI": "InChI=1S/C14H11BrO/c15-10-11-5-4-8-13(9-11)14(16)12-6-2-1-3-7-12/h1-9H,10H2",
        "InChIKey": null,
        "Canonical SMILES": "O=C(C=1C=CC=CC1)C2=CC=CC(=C2)CBr",
        "Molecular Formula": "C<sub>14</sub>H<sub>11</sub>BrO",
        "Molecular Mass": "275.14",
        "Melting Point": "67-68 °C"
    }
}