{
    "cas_no": "10602-37-6",
    "key_name": "1,1,3,3-Tetraethoxy-2-methylpropane",
    "cn_name": null,
    "alternate_name": "Propane, 1,1,3,3-tetraethoxy-2-methyl-;Malonaldehyde, methyl-, bis(diethyl acetal);1,1,3,3-Tetraethoxy-2-methylpropane;Methylmalonaldehyde tetraethyl diacetal;2-Methyl-1,1,3,3-tetraethoxypropane",
    "duplicated_cas_no": "",
    "SMILES": "C(C(C(OCC)OCC)C)(OCC)OCC",
    "meta_data": {
        "InChI": "InChI=1S/C12H26O4/c1-6-13-11(14-7-2)10(5)12(15-8-3)16-9-4/h10-12H,6-9H2,1-5H3",
        "InChIKey": null,
        "Canonical SMILES": "O(CC)C(OCC)C(C)C(OCC)OCC",
        "Molecular Formula": "C<sub>12</sub>H<sub>26</sub>O<sub>4</sub>",
        "Molecular Mass": "234.33",
        "Boiling Point": "118-122 °C @ Press: 30 Torr",
        "Density": "0.9164 g/cm³ @ Temp: 20 °C"
    }
}