{
    "cas_no": "28553-12-0",
    "key_name": "Diisononyl phthalate",
    "cn_name": "邻苯二甲酸二异壬酯;酞酸二异壬酯;",
    "alternate_name": "1,2-Benzenedicarboxylic acid, 1,2-diisononyl ester;Phthalic acid, diisononyl ester;1,2-Benzenedicarboxylic acid, diisononyl ester;Isononyl alcohol, phthalate (2:1);Diisononyl phthalate;Palatinol DN;Vestinol NN;Witamol 150;ENJ 2065;DINP;Sansocizer DINP;Phthalisocizer DINP;Palatinol N;Jayflex DINP;Baylectrol 4200;Vinycizer 90;Palatinol DINP;Vestinol 9;JAY-DINP;Diacizer DINP;Monocizer DINP;Plastomoll DINP;Jayflex DINP-S",
    "duplicated_cas_no": "105009-97-0;41375-91-1;58033-90-2",
    "SMILES": "",
    "meta_data": {
        "InChI": "",
        "InChIKey": null,
        "Canonical SMILES": "",
        "Molecular Formula": "C<sub>26</sub>H<sub>42</sub>O<sub>4</sub>",
        "Molecular Mass": "",
        "Boiling Point": "244-252 °C @ Press: 5 Torr",
        "Melting Point": "-43 °C",
        "Density": "1 x 10<sup>-6</sup> g/cm³ @ Temp: 20 °C"
    }
}