{
    "cas_no": "36239-09-5",
    "key_name": "Ethyl 3-chloro-3-oxopropanoate",
    "cn_name": "氯甲酰乙酸乙酯;",
    "alternate_name": "Propanoic acid, 3-chloro-3-oxo-, ethyl ester;Acetic acid, (chloroformyl)-, ethyl ester;Ethyl 3-chloro-3-oxopropanoate;(Chloroformyl)acetic acid ethyl ester;Carbethoxyethanoyl chloride;Ethyl (chloroformyl)acetate;Malonic acid monoethyl ester chloride;(Ethoxycarbonyl)acetyl chloride;Carbethoxyacetyl chloride;Ethyl (chlorocarbonyl)acetate;Ethyl malonoyl chloride;Ethyl malonyl chloride;2-(Ethoxycarbonyl)acetyl chloride;Malonic ethyl ester chloride;Malonic chloride ethyl ester;Malonic acid chloride ethyl ester;Malonic acid ethyl ester chloride;Monoethyl malonyl chloride;Ethyl 3-chloro-3-oxopropionate;Ethoxymalonyl chloride;Malonic acid chloride monoethyl ester;Ethyl 3-oxo-3-chloropropanoate;3-Chloro-3-oxopropanoic acid ethyl ester;Carboethoxyacetyl chloride;(Chlorocarbonyl)acetic acid ethyl ester;3-Ethoxy-3-oxopropanoyl chloride",
    "duplicated_cas_no": "",
    "SMILES": "C(C(OCC)=O)C(Cl)=O",
    "meta_data": {
        "InChI": "InChI=1S/C5H7ClO3/c1-2-9-5(8)3-4(6)7/h2-3H2,1H3",
        "InChIKey": null,
        "Canonical SMILES": "O=C(Cl)CC(=O)OCC",
        "Molecular Formula": "C<sub>5</sub>H<sub>7</sub>ClO<sub>3</sub>",
        "Molecular Mass": "150.56",
        "Boiling Point": "60 °C @ Press: 7 Torr"
    }
}