{
    "cas_no": "7789-43-7",
    "key_name": "Cobalt dibromide",
    "cn_name": "无水溴化钴(II);",
    "alternate_name": "Cobalt bromide (CoBr<sub>2</sub>);Cobaltous bromide;Cobalt(II) bromide;Cobalt dibromide;Cobalt bromide",
    "duplicated_cas_no": "",
    "SMILES": "[Co](Br)Br",
    "meta_data": {
        "InChI": "InChI=1S/2BrH.Co/h2*1H;/q;;+2/p-2",
        "InChIKey": null,
        "Canonical SMILES": "Br[Co]Br",
        "Molecular Formula": "Br<sub>2</sub>Co",
        "Molecular Mass": "",
        "Melting Point": "676.6 °C",
        "Density": "4.909 g/cm³ @ Temp: 25 °C"
    }
}