{
    "cas_no": "15145-69-4",
    "key_name": "1-Chloro-3-(dichloromethyl)benzene",
    "cn_name": "3-氯苄叉二氯;",
    "alternate_name": "Benzene, 1-chloro-3-(dichloromethyl)-;Toluene, <em>m</em>,α,α-trichloro-;1-Chloro-3-(dichloromethyl)benzene;3-Chlorobenzylidene chloride;<em>m</em>-Chlorobenzal chloride;3-Chlorobenzal chloride;<em>m</em>,α,α-Trichlorotoluene;1-(Dichloromethyl)-3-chlorobenzene",
    "duplicated_cas_no": "",
    "SMILES": "C(Cl)(Cl)C1=CC(Cl)=CC=C1",
    "meta_data": {
        "InChI": "InChI=1S/C7H5Cl3/c8-6-3-1-2-5(4-6)7(9)10/h1-4,7H",
        "InChIKey": null,
        "Canonical SMILES": "ClC1=CC=CC(=C1)C(Cl)Cl",
        "Molecular Formula": "C<sub>7</sub>H<sub>5</sub>Cl<sub>3</sub>",
        "Molecular Mass": "195.47",
        "Boiling Point": "66 °C @ Press: 0.2 Torr"
    }
}