{
    "cas_no": "124-40-3",
    "key_name": "Dimethylamine",
    "cn_name": "二甲胺;N-甲基甲胺;二甲胺水溶液,33%;二甲胺(无水);N-甲基甲胺溶液;二甲胺水溶液(33%);二甲胺,溶液;氨基二;",
    "alternate_name": "Methanamine, <em>N</em>-methyl-;Dimethylamine;<em>N</em>-Methylmethanamine;<em>N</em>,<em>N</em>-Dimethylamine;NSC 8650",
    "duplicated_cas_no": "",
    "SMILES": "N(C)C",
    "meta_data": {
        "InChI": "InChI=1S/C2H7N/c1-3-2/h3H,1-2H3",
        "InChIKey": null,
        "Canonical SMILES": "N(C)C",
        "Molecular Formula": "C<sub>2</sub>H<sub>7</sub>N",
        "Molecular Mass": "45.08",
        "Boiling Point": "6.8 °C",
        "Melting Point": "-92.2 °C",
        "Density": "0.6804 g/cm³ @ Temp: 0 °C"
    }
}