{
    "cas_no": "35661-40-6",
    "key_name": "FMOC-<span class=\"text-smallcaps\">L</span>-phenylalanine",
    "cn_name": "Fmoc-L-苯丙氨酸;芴甲氧羰基-L-苯丙氨酸;",
    "alternate_name": "<span class=\"text-smallcaps\">L</span>-Phenylalanine, <em>N</em>-[(9<em>H</em>-fluoren-9-ylmethoxy)carbonyl]-;<em>N</em>-[(9<em>H</em>-Fluoren-9-ylmethoxy)carbonyl]-<span class=\"text-smallcaps\">L</span>-phenylalanine;<em>N</em>-(9-Fluorenylmethoxycarbonyl)phenylalanine;<em>N</em>-(9-Fluorenylmethoxycarbonyl)-<span class=\"text-smallcaps\">L</span>-phenylalanine;FMOC-<span class=\"text-smallcaps\">L</span>-phenylalanine;Fmoc-phenylalanine;NSC 334293;(<em>S</em>)-2-[9<em>H</em>-Fluoren-9-yl(methoxycarbonyl)amino]-3-phenylpropionic acid;(<em>S</em>)-<em>N</em>-Fmoc-phenylalanine;917: PN: WO2006135786 PAGE: 59 claimed protein;226: PN: US20070042401 PAGE: 30 claimed protein;(2<em>S</em>)-2-[[[(9<em>H</em>-Fluoren-9-yl)methoxy]carbonyl]amino]-3-phenylpropanoic acid;<em>N</em>-α-[[(9<em>H</em>-Fluoren-9-yl)methoxy]carbonyl]-<span class=\"text-smallcaps\">L</span>-phenylalanine;<em>N</em>-9-Fluorenylmethoxycarbonylphenylalanine;(2S)-2-[[(9<em>H</em>-Fluoren-9-ylmethoxy)carbonyl]amino]-3-phenylpropanoic acid;4: PN: WO2022213118 TABLE: 12 claimed sequence",
    "duplicated_cas_no": "851968-54-2;725247-21-2",
    "SMILES": "C(OC(N[C@@H](CC1=CC=CC=C1)C(O)=O)=O)C2C=3C(C=4C2=CC=CC4)=CC=CC3",
    "meta_data": {
        "InChI": "InChI=1S/C24H21NO4/c26-23(27)22(14-16-8-2-1-3-9-16)25-24(28)29-15-21-19-12-6-4-10-17(19)18-11-5-7-13-20(18)21/h1-13,21-22H,14-15H2,(H,25,28)(H,26,27)/t22-/m0/s1",
        "InChIKey": null,
        "Canonical SMILES": "O=C(OCC1C=2C=CC=CC2C=3C=CC=CC31)NC(C(=O)O)CC=4C=CC=CC4",
        "Molecular Formula": "C<sub>24</sub>H<sub>21</sub>NO<sub>4</sub>",
        "Molecular Mass": "387.43",
        "Melting Point": "166-168 °C (decomp)"
    }
}