{
    "cas_no": "29922-56-3",
    "key_name": "3-Bromo-4-hydroxybenzenemethanol",
    "cn_name": null,
    "alternate_name": "Benzenemethanol, 3-bromo-4-hydroxy-;Benzyl alcohol, 3-bromo-4-hydroxy-;3-Bromo-4-hydroxybenzenemethanol;3-Bromo-4-hydroxybenzyl alcohol;3-bromo-4-hydroxybenzenemethanol;2-Bromo-4-hydroxymethylphenol",
    "duplicated_cas_no": "",
    "SMILES": "C(O)C1=CC(Br)=C(O)C=C1",
    "meta_data": {
        "InChI": "InChI=1S/C7H7BrO2/c8-6-3-5(4-9)1-2-7(6)10/h1-3,9-10H,4H2",
        "InChIKey": null,
        "Canonical SMILES": "BrC1=CC(=CC=C1O)CO",
        "Molecular Formula": "C<sub>7</sub>H<sub>7</sub>BrO<sub>2</sub>",
        "Molecular Mass": "203.03",
        "Melting Point": "127-129 °C"
    }
}