{
    "cas_no": "1956-25-8",
    "key_name": "5-(Phenylmethoxy)tryptophan",
    "cn_name": null,
    "alternate_name": "Tryptophan, 5-(phenylmethoxy)-;Tryptophan, 5-(benzyloxy)-;5-(Phenylmethoxy)tryptophan;5-Benzyloxytryptophan;<span class=\"text-smallcaps\">DL</span>-5-(Benzyloxy)tryptophan;5-(Phenylmethoxy)-<span class=\"text-smallcaps\">DL</span>-tryptophan;5-Benzyloxy-<span class=\"text-smallcaps\">DL</span>-tryptophan;NSC 56424;2-Amino-3-(5-(benzyloxy)-1<em>H</em>-indol-3-yl)propanoic acid;2-Amino-3-(5-benzyloxy-1<em>H</em>-indol-3-yl)-propionic acid;2-Azaniumyl-3-(5-phenylmethoxy-1<em>H</em>-indol-3-yl)propanoate;2-Amino-3-(5-phenylmethoxy-1<em>H</em>-indol-3-yl)propanoic acid",
    "duplicated_cas_no": "6383-70-6",
    "SMILES": "C(C(C(O)=O)N)C=1C=2C(NC1)=CC=C(OCC3=CC=CC=C3)C2",
    "meta_data": {
        "InChI": "InChI=1S/C18H18N2O3/c19-16(18(21)22)8-13-10-20-17-7-6-14(9-15(13)17)23-11-12-4-2-1-3-5-12/h1-7,9-10,16,20H,8,11,19H2,(H,21,22)",
        "InChIKey": null,
        "Canonical SMILES": "O=C(O)C(N)CC1=CNC=2C=CC(OCC=3C=CC=CC3)=CC21",
        "Molecular Formula": "C<sub>18</sub>H<sub>18</sub>N<sub>2</sub>O<sub>3</sub>",
        "Molecular Mass": "310.35",
        "Melting Point": "275-276 °C (decomp)"
    }
}