{
    "cas_no": "1435-46-7",
    "key_name": "1,3-Dichloro-5-fluorobenzene",
    "cn_name": "3,5-二氯氟苯;",
    "alternate_name": "Benzene, 1,3-dichloro-5-fluoro-;1,3-Dichloro-5-fluorobenzene;3,5-Dichlorofluorobenzene;3,5-Dichloro-1-fluorobenzene;1-Fluoro-3,5-dichlorobenzene",
    "duplicated_cas_no": "",
    "SMILES": "ClC1=CC(Cl)=CC(F)=C1",
    "meta_data": {
        "InChI": "InChI=1S/C6H3Cl2F/c7-4-1-5(8)3-6(9)2-4/h1-3H",
        "InChIKey": null,
        "Canonical SMILES": "FC=1C=C(Cl)C=C(Cl)C1",
        "Molecular Formula": "C<sub>6</sub>H<sub>3</sub>Cl<sub>2</sub>F",
        "Molecular Mass": "164.99",
        "Boiling Point": "160 °C"
    }
}