{
    "cas_no": "57465-28-8",
    "key_name": "PCB 126",
    "cn_name": null,
    "alternate_name": "1,1′-Biphenyl, 3,3′,4,4′,5-pentachloro-;3,3′,4,4′,5-Pentachloro-1,1′-biphenyl;3,3′,4,4′,5-Pentachlorobiphenyl;3,4,5,3′,4′-Pentachlorobiphenyl;3,4,3′,4′,5′-Pentachlorobiphenyl;PCB 126;CB 126;3,3′,4,4′,5′-Pentachlorobiphenyl;PnCP 176;Polychlorinated biphenyl-126;P 5CB 126",
    "duplicated_cas_no": "",
    "SMILES": "ClC=1C=C(C=C(Cl)C1Cl)C2=CC(Cl)=C(Cl)C=C2",
    "meta_data": {
        "InChI": "InChI=1S/C12H5Cl5/c13-8-2-1-6(3-9(8)14)7-4-10(15)12(17)11(16)5-7/h1-5H",
        "InChIKey": null,
        "Canonical SMILES": "ClC=1C=CC(=CC1Cl)C2=CC(Cl)=C(Cl)C(Cl)=C2",
        "Molecular Formula": "C<sub>12</sub>H<sub>5</sub>Cl<sub>5</sub>",
        "Molecular Mass": "326.43",
        "Melting Point": "158.5 °C"
    }
}