{
    "cas_no": "1107-99-9",
    "key_name": "Prednisolone pivalate",
    "cn_name": "泼尼松龙戊酸酯;",
    "alternate_name": "Pregna-1,4-diene-3,20-dione, 21-(2,2-dimethyl-1-oxopropoxy)-11,17-dihydroxy-, (11β)-;Pregna-1,4-diene-3,20-dione, 11β,17,21-trihydroxy-, 21-pivalate;(11β)-21-(2,2-Dimethyl-1-oxopropoxy)-11,17-dihydroxypregna-1,4-diene-3,20-dione;11β,17α-Dihydroxy-21-pivaloyloxypregna-1,4-diene-3,20-dione;Prednisolone pivalate;Prednisolone trimethylacetate;Prednisolone 21-trimethylacetate;PTMA;Ultracortenol;Vecortenol;Mecortolon;Ultracorterenol;Prednisolone 21-pivalate",
    "duplicated_cas_no": "8018-08-4",
    "SMILES": "C[C@@]12[C@@]3([C@]([C@]4([C@](C)(C[C@@H]3O)[C@](C(COC(C(C)(C)C)=O)=O)(O)CC4)[H])(CCC1=CC(=O)C=C2)[H])[H]",
    "meta_data": {
        "InChI": "InChI=1S/C26H36O6/c1-23(2,3)22(30)32-14-20(29)26(31)11-9-18-17-7-6-15-12-16(27)8-10-24(15,4)21(17)19(28)13-25(18,26)5/h8,10,12,17-19,21,28,31H,6-7,9,11,13-14H2,1-5H3/t17-,18-,19-,21+,24-,25-,26-/m0/s1",
        "InChIKey": null,
        "Canonical SMILES": "O=C1C=CC2(C(=C1)CCC3C4CCC(O)(C(=O)COC(=O)C(C)(C)C)C4(C)CC(O)C32)C",
        "Molecular Formula": "C<sub>26</sub>H<sub>36</sub>O<sub>6</sub>",
        "Molecular Mass": "444.56",
        "Melting Point": "233 °C"
    }
}