{
    "cas_no": "2955-65-9",
    "key_name": "3,6-Octanedione",
    "cn_name": null,
    "alternate_name": "3,6-Octanedione;3,6-Octandione",
    "duplicated_cas_no": "",
    "SMILES": "C(CCC(CC)=O)(CC)=O",
    "meta_data": {
        "InChI": "InChI=1S/C8H14O2/c1-3-7(9)5-6-8(10)4-2/h3-6H2,1-2H3",
        "InChIKey": null,
        "Canonical SMILES": "O=C(CC)CCC(=O)CC",
        "Molecular Formula": "C<sub>8</sub>H<sub>14</sub>O<sub>2</sub>",
        "Molecular Mass": "142.20",
        "Boiling Point": "98 °C @ Press: 14 Torr",
        "Melting Point": "34-35 °C"
    }
}