{
    "cas_no": "154-58-5",
    "key_name": "1,5-Anhydroglucitol",
    "cn_name": "1,5-无水葡萄糖醇;1,5-酐-D-山梨糖醇;",
    "alternate_name": "<span class=\"text-smallcaps\">D</span>-Glucitol, 1,5-anhydro-;Glucitol, 1,5-anhydro-, <span class=\"text-smallcaps\">D</span>-;Polygalitol;<span class=\"text-smallcaps\">D</span>-Glucose, 1-deoxy-;1,5-Anhydro-<span class=\"text-smallcaps\">D</span>-glucitol;Aceritol;1,5-Anhydroglucitol;1-Deoxy-<span class=\"text-smallcaps\">D</span>-glucopyranose;1,5-Anhydrosorbitol;1-Deoxy-<span class=\"text-smallcaps\">D</span>-glucose;1,5-Sorbitan;1,5-Anhydro-<span class=\"text-smallcaps\">D</span>-sorbitol",
    "duplicated_cas_no": "",
    "SMILES": "C(O)[C@@H]1[C@@H](O)[C@H](O)[C@@H](O)CO1",
    "meta_data": {
        "InChI": "InChI=1S/C6H12O5/c7-1-4-6(10)5(9)3(8)2-11-4/h3-10H,1-2H2/t3-,4+,5+,6+/m0/s1",
        "InChIKey": null,
        "Canonical SMILES": "OCC1OCC(O)C(O)C1O",
        "Molecular Formula": "C<sub>6</sub>H<sub>12</sub>O<sub>5</sub>",
        "Molecular Mass": "164.16",
        "Melting Point": "142-143 °C"
    }
}