{
    "cas_no": "63155-10-2",
    "key_name": "Ethyl 4,6-dichloro-2-pyrimidineacetate",
    "cn_name": null,
    "alternate_name": "2-Pyrimidineacetic acid, 4,6-dichloro-, ethyl ester;Ethyl 4,6-dichloro-2-pyrimidineacetate",
    "duplicated_cas_no": "",
    "SMILES": "C(C(OCC)=O)C=1N=C(Cl)C=C(Cl)N1",
    "meta_data": {
        "InChI": "InChI=1S/C8H8Cl2N2O2/c1-2-14-8(13)4-7-11-5(9)3-6(10)12-7/h3H,2,4H2,1H3",
        "InChIKey": null,
        "Canonical SMILES": "O=C(OCC)CC1=NC(Cl)=CC(Cl)=N1",
        "Molecular Formula": "C<sub>8</sub>H<sub>8</sub>Cl<sub>2</sub>N<sub>2</sub>O<sub>2</sub>",
        "Molecular Mass": "235.07",
        "Melting Point": "50-51 °C"
    }
}