{
    "cas_no": "25235-85-2",
    "key_name": "4-Chloroindole",
    "cn_name": "4-氯吲哚;",
    "alternate_name": "1<em>H</em>-Indole, 4-chloro-;Indole, 4-chloro-;4-Chloro-1<em>H</em>-indole;4-Chloroindole;NSC 88141",
    "duplicated_cas_no": "1425049-53-1",
    "SMILES": "ClC1=C2C(=CC=C1)NC=C2",
    "meta_data": {
        "InChI": "InChI=1S/C8H6ClN/c9-7-2-1-3-8-6(7)4-5-10-8/h1-5,10H",
        "InChIKey": null,
        "Canonical SMILES": "ClC1=CC=CC=2NC=CC12",
        "Molecular Formula": "C<sub>8</sub>H<sub>6</sub>ClN",
        "Molecular Mass": "151.59",
        "Boiling Point": "143 °C @ Press: 10 Torr",
        "Density": "1.2485 g/cm³ @ Temp: 20 °C"
    }
}