{
    "cas_no": "84852-15-3",
    "key_name": "Phenol, 4-nonyl-, branched",
    "cn_name": null,
    "alternate_name": "Phenol, 4-nonyl-, branched",
    "duplicated_cas_no": "",
    "SMILES": "",
    "meta_data": {
        "InChI": "",
        "InChIKey": null,
        "Canonical SMILES": "",
        "Molecular Formula": "Unspecified",
        "Molecular Mass": "",
        "Boiling Point": "295 °C"
    }
}