{
    "uri": "substance/pt/84852153",
    "rn": "84852-15-3",
    "name": "Phenol, 4-nonyl-, branched",
    "images": [],
    "inchi": "",
    "inchiKey": "",
    "smile": "",
    "canonicalSmile": "",
    "molecularFormula": "Unspecified",
    "molecularMass": "",
    "experimentalProperties": [
        {
            "name": "Boiling Point",
            "property": "295 °C",
            "sourceNumber": 1
        }
    ],
    "propertyCitations": [
        {
            "docUri": "",
            "sourceNumber": 1,
            "source": "PhysProp data were obtained from Syracuse Research Corporation of Syracuse, New York (US)"
        }
    ],
    "synonyms": [
        "Phenol, 4-nonyl-, branched"
    ],
    "replacedRns": [],
    "hasMolfile": false,
    "source": "https://commonchemistry.cas.org/detail?cas_rn=84852-15-3"
}