{
    "cas_no": "953-26-4",
    "key_name": "Ethyl 3-(4-nitrophenyl)-2-propenoate",
    "cn_name": "4-硝基肉桂酸乙酯;",
    "alternate_name": "2-Propenoic acid, 3-(4-nitrophenyl)-, ethyl ester;Cinnamic acid, <em>p</em>-nitro-, ethyl ester;Ethyl 3-(4-nitrophenyl)-2-propenoate;Ethyl <em>p</em>-nitrocinnamate;Ethyl 4-nitrocinnamate;3-(4-Nitrophenyl)acrylic acid ethyl ester;NSC 4697;NSC 636709;3-(4-Nitrophenyl)-2-propenoic acid ethyl ester",
    "duplicated_cas_no": "",
    "SMILES": "C(=CC(OCC)=O)C1=CC=C(N(=O)=O)C=C1",
    "meta_data": {
        "InChI": "InChI=1S/C11H11NO4/c1-2-16-11(13)8-5-9-3-6-10(7-4-9)12(14)15/h3-8H,2H2,1H3",
        "InChIKey": null,
        "Canonical SMILES": "O=C(OCC)C=CC1=CC=C(C=C1)N(=O)=O",
        "Molecular Formula": "C<sub>11</sub>H<sub>11</sub>NO<sub>4</sub>",
        "Molecular Mass": "221.21",
        "Melting Point": "138 °C"
    }
}