{
    "cas_no": "2856-63-5",
    "key_name": "(2-Chlorophenyl)acetonitrile",
    "cn_name": "邻氯苯乙腈;",
    "alternate_name": "Benzeneacetonitrile, 2-chloro-;Acetonitrile, (<em>o</em>-chlorophenyl)-;2-Chlorobenzeneacetonitrile;<em>o</em>-Chlorobenzyl cyanide;2-Chlorobenzyl cyanide;(2-Chlorophenyl)acetonitrile;<em>o</em>-Chlorophenylacetonitrile;<em>o</em>-Chlorobenzyl nitrile;NSC 39462;2-(2-Chlorophenyl)acetonitrile",
    "duplicated_cas_no": "",
    "SMILES": "C(C#N)C1=C(Cl)C=CC=C1",
    "meta_data": {
        "InChI": "InChI=1S/C8H6ClN/c9-8-4-2-1-3-7(8)5-6-10/h1-4H,5H2",
        "InChIKey": null,
        "Canonical SMILES": "N#CCC=1C=CC=CC1Cl",
        "Molecular Formula": "C<sub>8</sub>H<sub>6</sub>ClN",
        "Molecular Mass": "151.59",
        "Boiling Point": "251 °C",
        "Melting Point": "24 °C"
    }
}