{
    "cas_no": "590-42-1",
    "key_name": "<em>tert</em>-Butyl isothiocyanate",
    "cn_name": "叔丁基异硫氰酸酯;叔丁基异硫酸酯;异硫氰酸叔丁基酯;叔丁基异硫代异氰酸酯;",
    "alternate_name": "Propane, 2-isothiocyanato-2-methyl-;Isothiocyanic acid, <em>tert</em>-butyl ester;2-Isothiocyanato-2-methylpropane;<em>tert</em>-Butyl isothiocyanate;1,1-Dimethylethyl isothiocyanate",
    "duplicated_cas_no": "",
    "SMILES": "N(C(C)(C)C)=C=S",
    "meta_data": {
        "InChI": "InChI=1S/C5H9NS/c1-5(2,3)6-4-7/h1-3H3",
        "InChIKey": null,
        "Canonical SMILES": "S=C=NC(C)(C)C",
        "Molecular Formula": "C<sub>5</sub>H<sub>9</sub>NS",
        "Molecular Mass": "115.20",
        "Boiling Point": "140 °C",
        "Melting Point": "10.5 °C"
    }
}