{
    "cas_no": "59-43-8",
    "key_name": "Vitamin B<sub>1</sub>",
    "cn_name": "维生素B1;核黄素;盐酸硫胺;3-((4-氨基-2-甲基-5-嘧啶基)甲基)-5-(2-羟基乙基)-4-甲基噻唑氯化物;",
    "alternate_name": "Thiazolium, 3-[(4-amino-2-methyl-5-pyrimidinyl)methyl]-5-(2-hydroxyethyl)-4-methyl-, chloride (1:1);Thiamine;Thiazolium, 3-[(4-amino-2-methyl-5-pyrimidinyl)methyl]-5-(2-hydroxyethyl)-4-methyl-, chloride;3-[(4-Amino-2-methyl-5-pyrimidinyl)methyl]-5-(2-hydroxyethyl)-4-methylthiazolium chloride (1:1);3-[(4-Amino-2-methyl-5-pyrimidinyl)methyl]-5-(2-hydroxyethyl)-4-methylthiazolium chloride;Aneurine;Apatate Drape;Beivon;Bethiamin;Oryzanin;Vitamin B<sub>1</sub>;Thiamine monochloride;Thiamin;Vitaneurin;Thiacoat;3-[(4-Amino-2-methylpyrimidin-5-yl)methyl]-5-(2-hydroxyethyl)-4-methyl-1,3-thiazol-3-ium chloride;3-((4-Amino-2-methylpyrimidin-5-yl)methyl)-5-(2-hydroxyethyl)-4-methylthiazol-3-ium chloride;MeSH ID: D013831",
    "duplicated_cas_no": "100660-17-1;115461-66-0;55463-15-5;57777-32-9",
    "SMILES": "C([N+]=1C(C)=C(CCO)SC1)C=2C(N)=NC(C)=NC2.[Cl-]",
    "meta_data": {
        "InChI": "InChI=1S/C12H17N4OS.ClH/c1-8-11(3-4-17)18-7-16(8)6-10-5-14-9(2)15-12(10)13;/h5,7,17H,3-4,6H2,1-2H3,(H2,13,14,15);1H/q+1;/p-1",
        "InChIKey": null,
        "Canonical SMILES": "[Cl-].OCCC=1SC=[N+](C1C)CC2=CN=C(N=C2N)C",
        "Molecular Formula": "C<sub>12</sub>H<sub>17</sub>N<sub>4</sub>OS.Cl",
        "Molecular Mass": "",
        "Melting Point": "248 °C (decomp)",
        "Density": "1.43 g/cm³"
    }
}