{
    "cas_no": "49647-58-7",
    "key_name": "2,4,5,6-Pyrimidinetetramine, sulfate (1:?)",
    "cn_name": null,
    "alternate_name": "2,4,5,6-Pyrimidinetetramine, sulfate (1:?);Pyrimidinetetramine, sulfate;Pyrimidine, 2,4,5,6-tetraamino-, sulfate;2,4,5,6-Tetraaminopyrimidine sulfate",
    "duplicated_cas_no": "",
    "SMILES": "S(=O)(=O)(O)O.NC=1C(N)=NC(N)=NC1N",
    "meta_data": {
        "InChI": "InChI=1S/C4H8N6.H2O4S/c5-1-2(6)9-4(8)10-3(1)7;1-5(2,3)4/h5H2,(H6,6,7,8,9,10);(H2,1,2,3,4)",
        "InChIKey": null,
        "Canonical SMILES": "O=S(=O)(O)O.N=1C(=NC(N)=C(N)C1N)N",
        "Molecular Formula": "C<sub>4</sub>H<sub>8</sub>N<sub>6</sub>.xH<sub>2</sub>O<sub>4</sub>S",
        "Molecular Mass": "",
        "Melting Point": "&gt;360 °C"
    }
}