{
    "cas_no": "624-67-9",
    "key_name": "Propynal",
    "cn_name": "丙炔醛;丙炔醛;",
    "alternate_name": "2-Propynal;Propiolaldehyde;Propargylaldehyde;Propynal;2-Propyn-1-one;Formylacetylene;Propiolic aldehyde;Acetylenecarboxaldehyde",
    "duplicated_cas_no": "",
    "SMILES": "C(C=O)#C",
    "meta_data": {
        "InChI": "InChI=1S/C3H2O/c1-2-3-4/h1,3H",
        "InChIKey": null,
        "Canonical SMILES": "O=CC#C",
        "Molecular Formula": "C<sub>3</sub>H<sub>2</sub>O",
        "Molecular Mass": "54.05",
        "Boiling Point": "60 °C",
        "Density": "0.9152 g/cm³ @ Temp: 20 °C"
    }
}