{
    "cas_no": "6249-56-5",
    "key_name": "(3-Carboxypropyl)trimethylammonium chloride",
    "cn_name": "丁基甜菜碱盐酸盐;",
    "alternate_name": "1-Propanaminium, 3-carboxy-<em>N</em>,<em>N</em>,<em>N</em>-trimethyl-, chloride (1:1);Ammonium, (3-carboxypropyl)trimethyl-, chloride;1-Propanaminium, 3-carboxy-<em>N</em>,<em>N</em>,<em>N</em>-trimethyl-, chloride;(3-Carboxypropyl)trimethylammonium chloride;γ-Butyrobetaine hydrochloride;<em>N</em>-Trimethyl-γ-aminobutyric acid chloride;3-Carboxy-<em>N</em>,<em>N</em>,<em>N</em>-trimethylpropan-1-aminium chloride;3-Carboxy-<em>N</em>,<em>N</em>,<em>N</em>-trimethylpropan-1-aminiumchloride",
    "duplicated_cas_no": "188054-89-9",
    "SMILES": "C(CCC(O)=O)[N+](C)(C)C.[Cl-]",
    "meta_data": {
        "InChI": "InChI=1S/C7H15NO2.ClH/c1-8(2,3)6-4-5-7(9)10;/h4-6H2,1-3H3;1H",
        "InChIKey": null,
        "Canonical SMILES": "[Cl-].O=C(O)CCC[N+](C)(C)C",
        "Molecular Formula": "C<sub>7</sub>H<sub>16</sub>NO<sub>2</sub>.Cl",
        "Molecular Mass": "",
        "Melting Point": "212-214 °C"
    }
}