{
    "cas_no": "598-09-4",
    "key_name": "2-(Chloromethyl)-2-methyloxirane",
    "cn_name": "甲基环氧氯丙烷;2-氯甲基-2-甲基环氧乙烷;",
    "alternate_name": "Oxirane, 2-(chloromethyl)-2-methyl-;Propane, 1-chloro-2,3-epoxy-2-methyl-;2-(Chloromethyl)-2-methyloxirane;1,2-Epoxy-3-chloroisobutane;β-Methylepichlorohydrin;3-Chloro-1,2-epoxy-2-methylpropane;1,2-Epoxy-2-methyl-3-chloropropane;Methylepichlorohydrin;Methepichlorohydrin;1-Chloro-2,3-epoxy-2-methylpropane;2-Methyl-1-chloro-2,3-epoxypropane;2-Methylepichlorohydrin;2-Methyl-2-(chloromethyl)oxirane;NSC 24245;2-(Chloromethyl)-2-methoxirane;2-(Chloromethyl)-1,2-epoxypropane",
    "duplicated_cas_no": "",
    "SMILES": "C(Cl)C1(C)CO1",
    "meta_data": {
        "InChI": "InChI=1S/C4H7ClO/c1-4(2-5)3-6-4/h2-3H2,1H3",
        "InChIKey": null,
        "Canonical SMILES": "ClCC1(OC1)C",
        "Molecular Formula": "C<sub>4</sub>H<sub>7</sub>ClO",
        "Molecular Mass": "106.55",
        "Boiling Point": "122 °C",
        "Density": "1.1011 g/cm³ @ Temp: 20 °C"
    }
}