{
    "cas_no": "89-62-3",
    "key_name": "4-Methyl-2-nitroaniline",
    "cn_name": "4-甲基-2-硝基苯胺;2-硝基-4-甲苯胺;",
    "alternate_name": "Benzenamine, 4-methyl-2-nitro-;<em>p</em>-Toluidine, 2-nitro-;4-Methyl-2-nitrobenzenamine;C.I. 37110;Amarthol Fast Red GL Base;Amarthol Fast Red GL Salt;Azobase NAT;Azoene Fast Red Red GL Salt;Azofix Red GL Salt;Azoic Diazo Component 8;C.I. Azoic Diazo Component 8;Devol Red G;Devol Red Salt G;Diazo Fast Red GL;Fast Red G Base;Fast Red 3NT Base;Fast Red Base GL;Fast Red Base JL;Fast Red GL;Fast Red GL Base;Fast Red MGL Base;Fast Red 3NT Salt;HD Fast Red GL Base;Hiltonil Fast Red GL Base;Hiltosal Fast Red GL Salt;Lake Red G Base;Lithosol Scarlet Base M;Lithosol Scarlet Base MB;Lithosol Scarlet Base MBW;Lithosol Scarlet Base MW;4-Methyl-2-nitroaniline;Mitsui Red GL Base;MNPT;Naphthanil Red G Base;Naphtoelan Fast Red GL Base;2-Nitro-<em>p</em>-toluidine;Red G Base;Red Base Ciba VII;Red Base Irga VII;Red Base NGL;Red G Salt;Red Salt Ciba VII;Red Salt Irga VII;Sanyo Fast Red GL Base;Shinnippon Fast Red GL Base;Toyo Fast Red GL Base;Tulabase Fast Red GL;2-Nitro-4-methylaniline;Azoamine Red A;1-Amino-2-nitro-4-methylbenzene;4-Amino-3-nitrotoluene;3-Nitro-4-aminotoluene;4-Methyl-6-nitroaniline;4-Methyl-<em>o</em>-nitroaniline;<em>o</em>-Nitro-<em>p</em>-methylaniline;NSC 2759;(4-Methyl-2-nitrophenyl)amine;F. Red Gl Base;Conazoic Diazo M;Dycosbase Red GL Base;Azobase Red NAT;<em>p</em>-Methyl-<em>o</em>-nitroaniline",
    "duplicated_cas_no": "",
    "SMILES": "N(=O)(=O)C1=C(N)C=CC(C)=C1",
    "meta_data": {
        "InChI": "InChI=1S/C7H8N2O2/c1-5-2-3-6(8)7(4-5)9(10)11/h2-4H,8H2,1H3",
        "InChIKey": null,
        "Canonical SMILES": "O=N(=O)C1=CC(=CC=C1N)C",
        "Molecular Formula": "C<sub>7</sub>H<sub>8</sub>N<sub>2</sub>O<sub>2</sub>",
        "Molecular Mass": "152.15",
        "Boiling Point": "110-112 °C",
        "Melting Point": "116.3 °C"
    }
}