{
    "cas_no": "3066-86-2",
    "key_name": "5-Bromocytidine",
    "cn_name": null,
    "alternate_name": "Cytidine, 5-bromo-;5-Bromocytidine",
    "duplicated_cas_no": "347362-74-7",
    "SMILES": "O[C@H]1[C@@H](O[C@H](CO)[C@H]1O)N2C(=O)N=C(N)C(Br)=C2",
    "meta_data": {
        "InChI": "InChI=1S/C9H12BrN3O5/c10-3-1-13(9(17)12-7(3)11)8-6(16)5(15)4(2-14)18-8/h1,4-6,8,14-16H,2H2,(H2,11,12,17)/t4-,5-,6-,8-/m1/s1",
        "InChIKey": null,
        "Canonical SMILES": "O=C1N=C(N)C(Br)=CN1C2OC(CO)C(O)C2O",
        "Molecular Formula": "C<sub>9</sub>H<sub>12</sub>BrN<sub>3</sub>O<sub>5</sub>",
        "Molecular Mass": "322.11",
        "Melting Point": "183-185 °C"
    }
}