{
    "cas_no": "13836-37-8",
    "key_name": "<em>N</em><sup>2</sup>-[(1,1-Dimethylethoxy)carbonyl]-<em>N</em><sup>5</sup>-[imino[[(4-methylphenyl)sulfonyl]amino]methyl]-<span class=\"text-smallcaps\">L</span>-ornithine",
    "cn_name": "N-叔丁氧羰基-N\"-甲苯磺酰基-L-精氨酸;",
    "alternate_name": "<span class=\"text-smallcaps\">L</span>-Ornithine, <em>N</em><sup>2</sup>-[(1,1-dimethylethoxy)carbonyl]-<em>N</em><sup>5</sup>-[imino[[(4-methylphenyl)sulfonyl]amino]methyl]-;Ornithine, <em>N</em><sup>2</sup>-carboxy-<em>N</em><sup>5</sup>-[(<em>p</em>-tolylsulfonyl)amidino]-, <em>N</em><sup>2</sup>-<em>tert</em>-butyl ester, <span class=\"text-smallcaps\">L</span>-;<em>N</em><sup>2</sup>-[(1,1-Dimethylethoxy)carbonyl]-<em>N</em><sup>5</sup>-[imino[[(4-methylphenyl)sulfonyl]amino]methyl]-<span class=\"text-smallcaps\">L</span>-ornithine;<em>N</em><sup>2</sup>-<em>tert</em>-Butoxycarbonyl-<em>N</em><sup>G</sup>-tosyl-<span class=\"text-smallcaps\">L</span>-arginine;NSC 164058;Boc-<span class=\"text-smallcaps\">L</span>-Arg(Tos)-OH;(2S)-5-[[Amino-[(4-methylphenyl)sulfonylamino]methylidene]amino]-2-[(2-methylpropan-2-yl)oxycarbonylamino]pentanoic acid",
    "duplicated_cas_no": "111155-39-6;128625-53-6;129009-89-8;54784-62-2;62526-85-6;62720-22-3;158328-87-1",
    "SMILES": "S(NC(NCCC[C@H](NC(OC(C)(C)C)=O)C(O)=O)=N)(=O)(=O)C1=CC=C(C)C=C1",
    "meta_data": {
        "InChI": "InChI=1S/C18H28N4O6S/c1-12-7-9-13(10-8-12)29(26,27)22-16(19)20-11-5-6-14(15(23)24)21-17(25)28-18(2,3)4/h7-10,14H,5-6,11H2,1-4H3,(H,21,25)(H,23,24)(H3,19,20,22)/t14-/m0/s1",
        "InChIKey": null,
        "Canonical SMILES": "O=C(OC(C)(C)C)NC(C(=O)O)CCCNC(=N)NS(=O)(=O)C1=CC=C(C=C1)C",
        "Molecular Formula": "C<sub>18</sub>H<sub>28</sub>N<sub>4</sub>O<sub>6</sub>S",
        "Molecular Mass": "428.50",
        "Melting Point": "99-100 °C"
    }
}