{
    "cas_no": "345-24-4",
    "key_name": "1-Bromo-2,4-difluoro-5-nitrobenzene",
    "cn_name": "2,4-二氟-5-溴硝基苯;",
    "alternate_name": "Benzene, 1-bromo-2,4-difluoro-5-nitro-;1-Bromo-2,4-difluoro-5-nitrobenzene;5-Bromo-2,4-difluoronitrobenzene;2,4-Difluoro-5-nitrobromobenzene;NSC 10238;1-Bromo-2,4-difluoronitrobenzene",
    "duplicated_cas_no": "",
    "SMILES": "N(=O)(=O)C1=C(F)C=C(F)C(Br)=C1",
    "meta_data": {
        "InChI": "InChI=1S/C6H2BrF2NO2/c7-3-1-6(10(11)12)5(9)2-4(3)8/h1-2H",
        "InChIKey": null,
        "Canonical SMILES": "O=N(=O)C1=CC(Br)=C(F)C=C1F",
        "Molecular Formula": "C<sub>6</sub>H<sub>2</sub>BrF<sub>2</sub>NO<sub>2</sub>",
        "Molecular Mass": "237.99",
        "Boiling Point": "97 °C @ Press: 5 Torr"
    }
}