{
    "cas_no": "1606-67-3",
    "key_name": "1-Aminopyrene",
    "cn_name": "1-氨基芘;",
    "alternate_name": "1-Pyrenamine;3-Aminopyrene;1-Aminopyrene;α-Aminopyrene;NSC 11436;1-Aminopyren",
    "duplicated_cas_no": "1087757-03-6",
    "SMILES": "NC1=C2C3=C4C(C=C2)=CC=CC4=CC=C3C=C1",
    "meta_data": {
        "InChI": "InChI=1S/C16H11N/c17-14-9-7-12-5-4-10-2-1-3-11-6-8-13(14)16(12)15(10)11/h1-9H,17H2",
        "InChIKey": null,
        "Canonical SMILES": "NC1=CC=C2C=CC3=CC=CC=4C=CC1=C2C34",
        "Molecular Formula": "C<sub>16</sub>H<sub>11</sub>N",
        "Molecular Mass": "217.27",
        "Melting Point": "115-117 °C"
    }
}