{
    "cas_no": "569-65-3",
    "key_name": "Meclizine",
    "cn_name": null,
    "alternate_name": "Piperazine, 1-[(4-chlorophenyl)phenylmethyl]-4-[(3-methylphenyl)methyl]-;Piperazine, 1-(<em>p</em>-chloro-α-phenylbenzyl)-4-(<em>m</em>-methylbenzyl)-;1-[(4-Chlorophenyl)phenylmethyl]-4-[(3-methylphenyl)methyl]piperazine;U.C.B. 5062;Ancolan;Bonine;1-(<em>p</em>-Chlorobenzhydryl)-4-(<em>m</em>-methylbenzyl)diethylenediamine;1-(<em>p</em>-Chloro-α-phenylbenzyl)-4-(<em>m</em>-methylbenzyl)piperazine;Histametizyne;<em>Neo</em>-Istafene;Meclizine;Meclozine;Navicalm;Parachloramine;Postafene;1-(<em>p</em>-Chlorobenzhydryl)-4-(<em>m</em>-methylbenzyl)piperazine;Sabari;Suprimal;Ravelon;Vomisseis;(±)-Meclizine;NSC 169189;1-[(4-Chlorophenyl)-phenylmethyl]-4-[(3-methylphenyl)methyl]piperazine hydrate",
    "duplicated_cas_no": "1286986-99-9",
    "SMILES": "C(N1CCN(CC2=CC(C)=CC=C2)CC1)(C3=CC=C(Cl)C=C3)C4=CC=CC=C4",
    "meta_data": {
        "InChI": "InChI=1S/C25H27ClN2/c1-20-6-5-7-21(18-20)19-27-14-16-28(17-15-27)25(22-8-3-2-4-9-22)23-10-12-24(26)13-11-23/h2-13,18,25H,14-17,19H2,1H3",
        "InChIKey": null,
        "Canonical SMILES": "ClC1=CC=C(C=C1)C(C=2C=CC=CC2)N3CCN(CC=4C=CC=C(C4)C)CC3",
        "Molecular Formula": "C<sub>25</sub>H<sub>27</sub>ClN<sub>2</sub>",
        "Molecular Mass": "390.95",
        "Boiling Point": "230 °C @ Press: 2 Torr",
        "Melting Point": "43-45 °C"
    }
}