{
    "cas_no": "106-75-2",
    "key_name": "<em>C</em>,<em>C</em>′-(Oxydi-2,1-ethanediyl) dicarbonochloridate",
    "cn_name": "二乙二醇双氯甲酸酯;",
    "alternate_name": "Carbonochloridic acid, <em>C</em>,<em>C</em>′-(oxydi-2,1-ethanediyl) ester;Formic acid, chloro-, oxydiethylene ester;Carbonochloridic acid, oxydi-2,1-ethanediyl ester;Formic acid, chloro-, diester with diethylene glycol;Diethylene glycol, bis(chloroformate);<em>C</em>,<em>C</em>′-(Oxydi-2,1-ethanediyl) dicarbonochloridate;Oxydiethylene chloroformate;1,5-Bis[(chlorocarbonyl)oxy]-3-oxapentane;Oxydiethylene bis(chloroformate);Bis(2-chlorocarbonyloxyethyl)ether;NSC 2346",
    "duplicated_cas_no": "137891-98-6;51621-87-5",
    "SMILES": "C(OC(Cl)=O)COCCOC(Cl)=O",
    "meta_data": {
        "InChI": "InChI=1S/C6H8Cl2O5/c7-5(9)12-3-1-11-2-4-13-6(8)10/h1-4H2",
        "InChIKey": null,
        "Canonical SMILES": "O=C(Cl)OCCOCCOC(=O)Cl",
        "Molecular Formula": "C<sub>6</sub>H<sub>8</sub>Cl<sub>2</sub>O<sub>5</sub>",
        "Molecular Mass": "231.03",
        "Boiling Point": "127 °C @ Press: 5 Torr",
        "Density": "1.35 g/cm³ @ Temp: 27 °C"
    }
}