{
    "cas_no": "510-20-3",
    "key_name": "Malonic acid, diethyl-",
    "cn_name": "二乙基丙二酸;3,3-戊烷二羧酸;",
    "alternate_name": "Propanedioic acid, 2,2-diethyl-;Malonic acid, diethyl-;Propanedioic acid, diethyl-;2,2-Diethylpropanedioic acid;3,3-Pentanedicarboxylic acid;Diethylmalonic acid;2,2-Diethylmalonic acid;NSC 1986",
    "duplicated_cas_no": "",
    "SMILES": "C(C(O)=O)(C(O)=O)(CC)CC",
    "meta_data": {
        "InChI": "InChI=1S/C7H12O4/c1-3-7(4-2,5(8)9)6(10)11/h3-4H2,1-2H3,(H,8,9)(H,10,11)",
        "InChIKey": null,
        "Canonical SMILES": "O=C(O)C(C(=O)O)(CC)CC",
        "Molecular Formula": "C<sub>7</sub>H<sub>12</sub>O<sub>4</sub>",
        "Molecular Mass": "160.17",
        "Boiling Point": "115-120 °C",
        "Melting Point": "127 °C (decomp)"
    }
}