{
    "cas_no": "474-60-2",
    "key_name": "Campestanol",
    "cn_name": null,
    "alternate_name": "Ergostan-3-ol, (3β,5α,24<em>R</em>)-;5α-Ergostan-3β-ol, (24<em>R</em>)-;Campestanol;(3β,5α,24<em>R</em>)-Ergostan-3-ol;Chalinastanol;Neospongosterol, dihydro-;Dihydrocampesterin;5α-Dihydrocampesterol;24β-Ethylcholestanol;24β-Methylcholestanol",
    "duplicated_cas_no": "",
    "SMILES": "C[C@@]12[C@]([C@]3([C@@]([C@]4(C)[C@@](CC3)(C[C@@H](O)CC4)[H])(CC1)[H])[H])(CC[C@@]2([C@@H](CC[C@H](C(C)C)C)C)[H])[H]",
    "meta_data": {
        "InChI": "InChI=1S/C28H50O/c1-18(2)19(3)7-8-20(4)24-11-12-25-23-10-9-21-17-22(29)13-15-27(21,5)26(23)14-16-28(24,25)6/h18-26,29H,7-17H2,1-6H3/t19-,20-,21+,22+,23+,24-,25+,26+,27+,28-/m1/s1",
        "InChIKey": null,
        "Canonical SMILES": "OC1CCC2(C)C(CCC3C4CCC(C(C)CCC(C)C(C)C)C4(C)CCC32)C1",
        "Molecular Formula": "C<sub>28</sub>H<sub>50</sub>O",
        "Molecular Mass": "402.70",
        "Melting Point": "146-147 °C"
    }
}