{
    "cas_no": "708-76-9",
    "key_name": "4,6-Dimethoxysalicylaldehyde",
    "cn_name": "4,6-二甲氧基水杨醛;4,6-二甲氧基-2-羟基苯甲醛;",
    "alternate_name": "Benzaldehyde, 2-hydroxy-4,6-dimethoxy-;Salicylaldehyde, 4,6-dimethoxy-;2-Hydroxy-4,6-dimethoxybenzaldehyde;4,6-Dimethoxysalicylaldehyde;2,4-Dimethoxy-6-hydroxybenzaldehyde;4,6-Dimethoxy-2-hydroxybenzaldehyde;2-Formyl-3,5-dimethoxyphenol",
    "duplicated_cas_no": "",
    "SMILES": "O(C)C1=C(C=O)C(O)=CC(OC)=C1",
    "meta_data": {
        "InChI": "InChI=1S/C9H10O4/c1-12-6-3-8(11)7(5-10)9(4-6)13-2/h3-5,11H,1-2H3",
        "InChIKey": null,
        "Canonical SMILES": "O=CC=1C(O)=CC(OC)=CC1OC",
        "Molecular Formula": "C<sub>9</sub>H<sub>10</sub>O<sub>4</sub>",
        "Molecular Mass": "182.17",
        "Melting Point": "70 °C"
    }
}