{
    "cas_no": "589-43-5",
    "key_name": "(±)-2,4-Dimethylhexane",
    "cn_name": "2,4-二甲基己烷;",
    "alternate_name": "Hexane, 2,4-dimethyl-;2,4-Dimethylhexane;NSC 74171;(±)-2,4-Dimethylhexane",
    "duplicated_cas_no": "116502-44-4",
    "SMILES": "C(CC(C)C)(CC)C",
    "meta_data": {
        "InChI": "InChI=1S/C8H18/c1-5-8(4)6-7(2)3/h7-8H,5-6H2,1-4H3",
        "InChIKey": null,
        "Canonical SMILES": "CCC(C)CC(C)C",
        "Molecular Formula": "C<sub>8</sub>H<sub>18</sub>",
        "Molecular Mass": "114.23",
        "Boiling Point": "109.5 °C",
        "Melting Point": "&lt;25 °C",
        "Density": "0.7083 g/cm³ @ Temp: 15 °C"
    }
}