{
    "cas_no": "116-06-3",
    "key_name": "Aldicarb",
    "cn_name": null,
    "alternate_name": "Propanal, 2-methyl-2-(methylthio)-, <em>O</em>-[(methylamino)carbonyl]oxime;Propionaldehyde, 2-methyl-2-(methylthio)-, <em>O</em>-(methylcarbamoyl)oxime;2-Methyl-2-(methylthio)propionaldehyde <em>O</em>-(methylcarbamoyl)oxime;Temik;UC 21149;Temik 10G;Aldicarb;Temik G 10;OMS 771;NSC 379586;2-Methyl-2-(methylthio)propanal <em>O</em>-(<em>N</em>-methylcarbamoyl)oxime;MeSH ID: D000448",
    "duplicated_cas_no": "",
    "SMILES": "C(C=NOC(NC)=O)(SC)(C)C",
    "meta_data": {
        "InChI": "InChI=1S/C7H14N2O2S/c1-7(2,12-4)5-9-11-6(10)8-3/h5H,1-4H3,(H,8,10)",
        "InChIKey": null,
        "Canonical SMILES": "O=C(ON=CC(SC)(C)C)NC",
        "Molecular Formula": "C<sub>7</sub>H<sub>14</sub>N<sub>2</sub>O<sub>2</sub>S",
        "Molecular Mass": "190.26",
        "Melting Point": "99-100 °C",
        "Density": "1.1950 g/cm³ @ Temp: 25 °C"
    }
}