{
    "cas_no": "61259-48-1",
    "key_name": "<span class=\"text-smallcaps\">D</span>-Gluconic acid δ-lactone 2,3,4,6-tetraacetate",
    "cn_name": null,
    "alternate_name": "<span class=\"text-smallcaps\">D</span>-Gluconic acid, δ-lactone, 2,3,4,6-tetraacetate;<span class=\"text-smallcaps\">D</span>-Gluconic acid δ-lactone 2,3,4,6-tetraacetate",
    "duplicated_cas_no": "",
    "SMILES": "O(C(C)=O)[C@H]1[C@H](OC(C)=O)[C@@H](COC(C)=O)OC(=O)[C@@H]1OC(C)=O",
    "meta_data": {
        "InChI": "InChI=1S/C14H18O10/c1-6(15)20-5-10-11(21-7(2)16)12(22-8(3)17)13(14(19)24-10)23-9(4)18/h10-13H,5H2,1-4H3/t10-,11-,12+,13-/m1/s1",
        "InChIKey": null,
        "Canonical SMILES": "O=C(OCC1OC(=O)C(OC(=O)C)C(OC(=O)C)C1OC(=O)C)C",
        "Molecular Formula": "C<sub>14</sub>H<sub>18</sub>O<sub>10</sub>",
        "Molecular Mass": "346.29",
        "Melting Point": "103 °C"
    }
}