{
    "cas_no": "6836-11-9",
    "key_name": "Deltaline",
    "cn_name": null,
    "alternate_name": "Aconitane-6,10-diol, 20-ethyl-1,14,16-trimethoxy-4-methyl-7,8-[methylenebis(oxy)]-, 6-acetate, (1α,6β,14α,16β)-;Deltaline;Eldeline;Eldelin;Delphelatine;Deltamine 6-acetate",
    "duplicated_cas_no": "478614-07-2;860380-34-3",
    "SMILES": "O[C@]12[C@@]34[C@]5([C@]6([C@@H](OC(C)=O)[C@@]3([C@](C)(CN5CC)CC[C@@H]4OC)[H])[C@@]7([C@]1([C@@H](OC)[C@](C2)([C@@H](OC)C7)[H])[H])OCO6)[H]",
    "meta_data": {
        "InChI": "InChI=1S/C27H41NO8/c1-7-28-12-23(3)9-8-17(32-5)26-20(23)21(36-14(2)29)27(22(26)28)25(34-13-35-27)11-16(31-4)15-10-24(26,30)19(25)18(15)33-6/h15-22,30H,7-13H2,1-6H3/t15-,16+,17+,18+,19+,20-,21+,22+,23+,24+,25-,26-,27-/m1/s1",
        "InChIKey": null,
        "Canonical SMILES": "O=C(OC1C2C3(C)CN(CC)C4C51OCOC65CC(OC)C7CC(O)(C6C7OC)C42C(OC)CC3)C",
        "Molecular Formula": "C<sub>27</sub>H<sub>41</sub>NO<sub>8</sub>",
        "Molecular Mass": "507.62",
        "Melting Point": "180-181 °C"
    }
}