{
    "cas_no": "6291-95-8",
    "key_name": "Trimethallyl isocyanurate",
    "cn_name": null,
    "alternate_name": "1,3,5-Triazine-2,4,6(1<em>H</em>,3<em>H</em>,5<em>H</em>)-trione, 1,3,5-tris(2-methyl-2-propen-1-yl)-;<em>s</em>-Triazine-2,4,6(1<em>H</em>,3<em>H</em>,5<em>H</em>)-trione, 1,3,5-tris(2-methylallyl)-;1,3,5-Triazine-2,4,6(1<em>H</em>,3<em>H</em>,5<em>H</em>)-trione, 1,3,5-tris(2-methyl-2-propenyl)-;<em>s</em>-Triazine-2,4,6(1<em>H</em>,3<em>H</em>,5<em>H</em>)-trione, tris(2-methylallyl)-;1,3,5-Tris(2-methyl-2-propen-1-yl)-1,3,5-triazine-2,4,6(1<em>H</em>,3<em>H</em>,5<em>H</em>)-trione;Trimethallyl isocyanurate;NSC 63838;NSC 8189;TMAIC;Trimethallyl isocyarurate;1,3,5-Tris(2-methylallyl)-1,3,5-triazinane-2,4,6-trione;1,3,5-Tris(2-methyl-2-propenyl)-1,3,5-triazinane-2,4,6-trione;1,3,5-Tris(2-methylprop-2-enyl)-1,3,5-triazinane-2,4,6-trione;Trimethylallyl isocyanurate;Diak 8",
    "duplicated_cas_no": "",
    "SMILES": "C(C(C)=C)N1C(=O)N(CC(C)=C)C(=O)N(CC(C)=C)C1=O",
    "meta_data": {
        "InChI": "InChI=1S/C15H21N3O3/c1-10(2)7-16-13(19)17(8-11(3)4)15(21)18(14(16)20)9-12(5)6/h1,3,5,7-9H2,2,4,6H3",
        "InChIKey": null,
        "Canonical SMILES": "O=C1N(C(=O)N(C(=O)N1CC(=C)C)CC(=C)C)CC(=C)C",
        "Molecular Formula": "C<sub>15</sub>H<sub>21</sub>N<sub>3</sub>O<sub>3</sub>",
        "Molecular Mass": "291.35",
        "Melting Point": "85-86 °C"
    }
}