{
    "cas_no": "5400-78-2",
    "key_name": "α-Methyl-3-nitrobenzenemethanol",
    "cn_name": null,
    "alternate_name": "Benzenemethanol, α-methyl-3-nitro-;Benzyl alcohol, α-methyl-<em>m</em>-nitro-;α-Methyl-3-nitrobenzenemethanol;α-Methyl-<em>m</em>-nitrobenzyl alcohol;Methyl(<em>m</em>-nitrophenyl)carbinol;Methyl(3-nitrophenyl)carbinol;1-(<em>m</em>-Nitrophenyl)ethanol;1-(3-Nitrophenyl)ethanol;NSC 10385;1-(3-Nitrophenyl)-1-ethanol",
    "duplicated_cas_no": "125280-32-2",
    "SMILES": "C(C)(O)C1=CC(N(=O)=O)=CC=C1",
    "meta_data": {
        "InChI": "InChI=1S/C8H9NO3/c1-6(10)7-3-2-4-8(5-7)9(11)12/h2-6,10H,1H3",
        "InChIKey": null,
        "Canonical SMILES": "O=N(=O)C1=CC=CC(=C1)C(O)C",
        "Molecular Formula": "C<sub>8</sub>H<sub>9</sub>NO<sub>3</sub>",
        "Molecular Mass": "167.16",
        "Boiling Point": "154-155 °C @ Press: 9 Torr",
        "Melting Point": "62.5 °C",
        "Density": "1.2049 g/cm³ @ Temp: 31 °C"
    }
}