{
    "cas_no": "23418-38-4",
    "key_name": "4-Methyl-4-nonanol",
    "cn_name": "4-甲基-4-壬醇;",
    "alternate_name": "4-Nonanol, 4-methyl-;4-Methyl-4-nonanol;1-Methyl-1-propylhexanol;NSC 103159",
    "duplicated_cas_no": "",
    "SMILES": "C(CCCCC)(CCC)(C)O",
    "meta_data": {
        "InChI": "InChI=1S/C10H22O/c1-4-6-7-9-10(3,11)8-5-2/h11H,4-9H2,1-3H3",
        "InChIKey": null,
        "Canonical SMILES": "OC(C)(CCC)CCCCC",
        "Molecular Formula": "C<sub>10</sub>H<sub>22</sub>O",
        "Molecular Mass": "158.28",
        "Boiling Point": "92-93 °C @ Press: 15 Torr",
        "Density": "0.8245 g/cm³ @ Temp: 25 °C"
    }
}