{
    "cas_no": "57381-43-8",
    "key_name": "Methyl 2,5-dibromobenzoate",
    "cn_name": "2,5-二溴苯甲酸甲酯;",
    "alternate_name": "Benzoic acid, 2,5-dibromo-, methyl ester;Methyl 2,5-dibromobenzoate",
    "duplicated_cas_no": "",
    "SMILES": "C(OC)(=O)C1=C(Br)C=CC(Br)=C1",
    "meta_data": {
        "InChI": "InChI=1S/C8H6Br2O2/c1-12-8(11)6-4-5(9)2-3-7(6)10/h2-4H,1H3",
        "InChIKey": null,
        "Canonical SMILES": "O=C(OC)C1=CC(Br)=CC=C1Br",
        "Molecular Formula": "C<sub>8</sub>H<sub>6</sub>Br<sub>2</sub>O<sub>2</sub>",
        "Molecular Mass": "293.94",
        "Melting Point": "46-48 °C"
    }
}