{
    "cas_no": "1664-54-6",
    "key_name": "3-(3-Aminophenyl)propionic acid",
    "cn_name": null,
    "alternate_name": "Benzenepropanoic acid, 3-amino-;Hydrocinnamic acid, <em>m</em>-amino-;3-Aminobenzenepropanoic acid;3-Aminohydrocinnamic acid;3-(3-Aminophenyl)propionic acid;β-(3-Aminophenyl)propionic acid;3-(2-Carboxyethyl)aniline",
    "duplicated_cas_no": "",
    "SMILES": "C(CC(O)=O)C1=CC(N)=CC=C1",
    "meta_data": {
        "InChI": "InChI=1S/C9H11NO2/c10-8-3-1-2-7(6-8)4-5-9(11)12/h1-3,6H,4-5,10H2,(H,11,12)",
        "InChIKey": null,
        "Canonical SMILES": "O=C(O)CCC=1C=CC=C(N)C1",
        "Molecular Formula": "C<sub>9</sub>H<sub>11</sub>NO<sub>2</sub>",
        "Molecular Mass": "165.19",
        "Melting Point": "83 °C"
    }
}