{
    "cas_no": "96-08-2",
    "key_name": "Limonene dioxide",
    "cn_name": "1-甲基-4-(2-甲基环氧乙烷基)-7-氧杂双环[4.1.0]庚烷;二氧化萜二烯;二氧化二戊烯;",
    "alternate_name": "7-Oxabicyclo[4.1.0]heptane, 1-methyl-4-(2-methyl-2-oxiranyl)-;<em>p</em>-Menthane, 1,2:8,9-diepoxy-;7-Oxabicyclo[4.1.0]heptane, 1-methyl-4-(2-methyloxiranyl)-;1-Methyl-4-(2-methyl-2-oxiranyl)-7-oxabicyclo[4.1.0]heptane;1,2,8,9-Diepoxylimonene;Dipentene dioxide;Epoxide 269;Limonene dioxide;Unoxat Epoxide 269;Unox 269;α-Limonene diepoxide;1,2:8,9-Diepoxy-<em>p</em>-menthane;Dipentene diepoxide;1,2-Epoxy-1-methyl-4-(1-methylepoxyethyl)cyclohexane;Unox Epoxide 269;Dipentene oxide;Limonene diepoxide;Diepoxylimonene;NSC 30545;NSC 54753;1-Methyl-4-(2-methyloxiranyl)-7-oxabicyclo[4.1.0]heptane;C 3000;Limonene 1,2:8,9-diepoxide;Seroxide 3000;1,2-Epoxy-4-(2-methyloxiranyl)-1-methylcyclohexane;C 3000 monomer;Epoxy 269;TTA 20",
    "duplicated_cas_no": "17351-47-2;65520-49-2;100043-25-2;2780414-97-1",
    "SMILES": "CC12C(O1)CC(CC2)C3(C)CO3",
    "meta_data": {
        "InChI": "InChI=1S/C10H16O2/c1-9-4-3-7(5-8(9)12-9)10(2)6-11-10/h7-8H,3-6H2,1-2H3",
        "InChIKey": null,
        "Canonical SMILES": "O1CC1(C)C2CCC3(OC3C2)C",
        "Molecular Formula": "C<sub>10</sub>H<sub>16</sub>O<sub>2</sub>",
        "Molecular Mass": "168.23",
        "Boiling Point": "242 °C",
        "Density": "1.0287 g/cm³ @ Temp: 20 °C"
    }
}