{
    "cas_no": "602-01-7",
    "key_name": "2,3-Dinitrotoluene",
    "cn_name": "2,3-二硝基甲苯;",
    "alternate_name": "Benzene, 1-methyl-2,3-dinitro-;Toluene, 2,3-dinitro-;1-Methyl-2,3-dinitrobenzene;2,3-Dinitrotoluene;2,3-DNT;2,3-Dinitrotoluol",
    "duplicated_cas_no": "",
    "SMILES": "N(=O)(=O)C1=C(N(=O)=O)C=CC=C1C",
    "meta_data": {
        "InChI": "InChI=1S/C7H6N2O4/c1-5-3-2-4-6(8(10)11)7(5)9(12)13/h2-4H,1H3",
        "InChIKey": null,
        "Canonical SMILES": "O=N(=O)C1=CC=CC(=C1N(=O)=O)C",
        "Molecular Formula": "C<sub>7</sub>H<sub>6</sub>N<sub>2</sub>O<sub>4</sub>",
        "Molecular Mass": "182.13",
        "Boiling Point": "284 °C",
        "Melting Point": "59-61 °C",
        "Density": "1.3 g/cm³"
    }
}