{
    "cas_no": "6309-51-9",
    "key_name": "Isoamyl laurate",
    "cn_name": "十二烷基异戊酯;十二烷酸-3-甲基丁酯;",
    "alternate_name": "Dodecanoic acid, 3-methylbutyl ester;Lauric acid, isopentyl ester;Isopentyl alcohol, laurate;Isoamyl laurate;Isopentyl laurate;3-Methylbutyl dodecanoate;NSC 42577;Isoamyl dodecanoate;Dermofeel sensolv;Radiosolve 7529;Mackaderm LIA-MB;Mackaderm LIA MB;Dermofeel Sensolv MB",
    "duplicated_cas_no": "",
    "SMILES": "C(CCCCCCCCCCC)(OCCC(C)C)=O",
    "meta_data": {
        "InChI": "InChI=1S/C17H34O2/c1-4-5-6-7-8-9-10-11-12-13-17(18)19-15-14-16(2)3/h16H,4-15H2,1-3H3",
        "InChIKey": null,
        "Canonical SMILES": "O=C(OCCC(C)C)CCCCCCCCCCC",
        "Molecular Formula": "C<sub>17</sub>H<sub>34</sub>O<sub>2</sub>",
        "Molecular Mass": "270.45",
        "Boiling Point": "169 °C @ Press: 2 Torr"
    }
}