{
    "cas_no": "6272-74-8",
    "key_name": "Lapyrium chloride",
    "cn_name": null,
    "alternate_name": "Pyridinium, 1-[2-oxo-2-[[2-[(1-oxododecyl)oxy]ethyl]amino]ethyl]-, chloride (1:1);Pyridinium, 1-[[(2-hydroxyethyl)carbamoyl]methyl]-, chloride, laurate (ester);Pyridinium, 1-[2-oxo-2-[[2-[(1-oxododecyl)oxy]ethyl]amino]ethyl]-, chloride;1-[[(2-Hydroxyethyl)carbamoyl]methyl]pyridinium chloride, laurate;<em>N</em>-(Colaminoformylmethyl)pyridinium chloride laurate;Lapyrium chloride;1-[[(2-Hydroxyethyl)carbamoyl]methyl]pyridinium chloride laurate (ester);<em>N</em>-(Lauroylcolaminoformylmethyl)pyridinium chloride;<em>N</em>-(Acyl colamino formyl methyl)pyridinium chloride;<em>N</em>-[[<em>N</em>-(2-Dodecanoyloxyethyl)carbamoyl]methyl]pyridinium chloride;Emcol E 607L;Lapirium chloride;1-[2-Oxo-2-[[2-[(1-oxododecyl)oxy]ethyl]amino]ethyl]pyridinium chloride;1-(2-((2-(Dodecanoyloxy)ethyl)amino)-2-oxoethyl)pyridin-1-ium chloride",
    "duplicated_cas_no": "1341-07-7",
    "SMILES": "C(C(NCCOC(CCCCCCCCCCC)=O)=O)[N+]=1C=CC=CC1.[Cl-]",
    "meta_data": {
        "InChI": "InChI=1S/C21H34N2O3.ClH/c1-2-3-4-5-6-7-8-9-11-14-21(25)26-18-15-22-20(24)19-23-16-12-10-13-17-23;/h10,12-13,16-17H,2-9,11,14-15,18-19H2,1H3;1H",
        "InChIKey": null,
        "Canonical SMILES": "[Cl-].O=C(OCCNC(=O)C[N+]=1C=CC=CC1)CCCCCCCCCCC",
        "Molecular Formula": "C<sub>21</sub>H<sub>35</sub>N<sub>2</sub>O<sub>3</sub>.Cl",
        "Molecular Mass": "",
        "Melting Point": "141-144 °C"
    }
}