{
    "cas_no": "329974-09-6",
    "key_name": "4-Bromo-2,6-pyridinediamine",
    "cn_name": "4-溴-2,6-二氨基吡啶;2,6-二氨基-4-溴吡啶;",
    "alternate_name": "2,6-Pyridinediamine, 4-bromo-;4-Bromo-2,6-pyridinediamine;4-Bromo-2,6-diaminopyridine;2,6-Diamino-4-bromopyridine;4-Bromopyridine-2,6-diamine",
    "duplicated_cas_no": "",
    "SMILES": "BrC=1C=C(N)N=C(N)C1",
    "meta_data": {
        "InChI": "InChI=1S/C5H6BrN3/c6-3-1-4(7)9-5(8)2-3/h1-2H,(H4,7,8,9)",
        "InChIKey": null,
        "Canonical SMILES": "BrC=1C=C(N=C(N)C1)N",
        "Molecular Formula": "C<sub>5</sub>H<sub>6</sub>BrN<sub>3</sub>",
        "Molecular Mass": "188.03",
        "Melting Point": "126 °C"
    }
}