{
    "cas_no": "1897-50-3",
    "key_name": "5-Chloro-2,4,6-trifluoro-1,3-benzenedicarbonitrile",
    "cn_name": "5-氯-2,4,6-三氟间苯二甲腈;",
    "alternate_name": "1,3-Benzenedicarbonitrile, 5-chloro-2,4,6-trifluoro-;Isophthalonitrile, 5-chloro-2,4,6-trifluoro-;5-Chloro-2,4,6-trifluoro-1,3-benzenedicarbonitrile;5-Chloro-2,4,6-trifluoroisophthalonitrile;5-Chloro-2,4,6-trifluoro-1,3-benzodinitrile;SDB 028",
    "duplicated_cas_no": "",
    "SMILES": "C(#N)C1=C(F)C(C#N)=C(F)C(Cl)=C1F",
    "meta_data": {
        "InChI": "InChI=1S/C8ClF3N2/c9-5-7(11)3(1-13)6(10)4(2-14)8(5)12",
        "InChIKey": null,
        "Canonical SMILES": "N#CC1=C(F)C(Cl)=C(F)C(C#N)=C1F",
        "Molecular Formula": "C<sub>8</sub>ClF<sub>3</sub>N<sub>2</sub>",
        "Molecular Mass": "216.55",
        "Melting Point": "109-110 °C"
    }
}