{
    "cas_no": "28267-29-0",
    "key_name": "Ethyl tridecanoate",
    "cn_name": "十三烷酸乙酯;",
    "alternate_name": "Tridecanoic acid, ethyl ester;Ethyl tridecanoate;Ethyl <em>n</em>-tridecanoate",
    "duplicated_cas_no": "",
    "SMILES": "C(CCCCCCCCCC)CC(OCC)=O",
    "meta_data": {
        "InChI": "InChI=1S/C15H30O2/c1-3-5-6-7-8-9-10-11-12-13-14-15(16)17-4-2/h3-14H2,1-2H3",
        "InChIKey": null,
        "Canonical SMILES": "O=C(OCC)CCCCCCCCCCCC",
        "Molecular Formula": "C<sub>15</sub>H<sub>30</sub>O<sub>2</sub>",
        "Molecular Mass": "242.40",
        "Boiling Point": "133-134 °C @ Press: 4 Torr"
    }
}