{
    "cas_no": "34316-64-8",
    "key_name": "Hexyl laurate",
    "cn_name": "十二酸己酯;",
    "alternate_name": "Dodecanoic acid, hexyl ester;Lauric acid, hexyl ester;Hexyl laurate;<em>n</em>-Hexyl laurate;Cetiol A;Standamul CTA;Hexyl dodecanoate;Crodamol HL-R;KAK-HL;Exceparl HL;SR Crodamol HL;SR Crodamol HL-LQ",
    "duplicated_cas_no": "",
    "SMILES": "C(CCCCCCCCCCC)(OCCCCCC)=O",
    "meta_data": {
        "InChI": "InChI=1S/C18H36O2/c1-3-5-7-9-10-11-12-13-14-16-18(19)20-17-15-8-6-4-2/h3-17H2,1-2H3",
        "InChIKey": null,
        "Canonical SMILES": "O=C(OCCCCCC)CCCCCCCCCCC",
        "Molecular Formula": "C<sub>18</sub>H<sub>36</sub>O<sub>2</sub>",
        "Molecular Mass": "284.48",
        "Boiling Point": "134 °C @ Press: 5 Torr",
        "Melting Point": "-3.4 °C"
    }
}