{
    "cas_no": "142-91-6",
    "key_name": "Isopropyl palmitate",
    "cn_name": "棕榈酸异丙酯;",
    "alternate_name": "Hexadecanoic acid, 1-methylethyl ester;Palmitic acid, isopropyl ester;Deltyl;Deltyl Prime;Emcol IP;Isopal;Isopropyl palmitate;Propal;Sinnoester PIT;Kessco IPP;Wickenol 111;Crodamol IPP;Emerest 2316;Isopalm;Stepan D 70;Isopropyl hexadecanoate;Nikkol IPP;IPP;1-Methylethyl hexadecanoate;Exceparl IPP;Estol 1517;IPP-EX;Palmsurf IPP 98;Lexol IPP;NSC 69169;Versagel MP 1600;Stepan IPP;Neoderm IPP;Nikkol IPP-EX;SR Crodamol IPP-LQ;IPP-R;Radia 7732;Tegosoft P;Radia 7732 RSPO MB",
    "duplicated_cas_no": "",
    "SMILES": "C(CCCCCCCCCCCCC)CC(OC(C)C)=O",
    "meta_data": {
        "InChI": "InChI=1S/C19H38O2/c1-4-5-6-7-8-9-10-11-12-13-14-15-16-17-19(20)21-18(2)3/h18H,4-17H2,1-3H3",
        "InChIKey": null,
        "Canonical SMILES": "O=C(OC(C)C)CCCCCCCCCCCCCCC",
        "Molecular Formula": "C<sub>19</sub>H<sub>38</sub>O<sub>2</sub>",
        "Molecular Mass": "298.50",
        "Boiling Point": "342 °C",
        "Melting Point": "13.5 °C",
        "Density": "0.8404 g/cm³ @ Temp: 38 °C"
    }
}