{
    "cas_no": "94-09-7",
    "key_name": "Benzocaine",
    "cn_name": "苯唑卡因;对氨基苯甲酸乙酯;",
    "alternate_name": "Benzoic acid, 4-amino-, ethyl ester;Benzoic acid, <em>p</em>-amino-, ethyl ester;<em>p</em>-Aminobenzoic acid ethyl ester;Anaesthesin;Anesthesin;Anesthesine;Anesthone;Benzocaine;Ethyl <em>p</em>-aminobenzoate;Ethyl 4-aminobenzoate;Keloform;Norcain;Norcaine;Orthesin;Parathesin;<em>p</em>-Ethoxycarboxylic aniline;Amben ethyl ester;Ethyl <em>p</em>-aminophenylcarboxylate;<em>p</em>-Carbethoxyaniline;4-Aminobenzoic acid ethyl ester;4-Carbethoxyaniline;<em>p</em>-(Ethoxycarbonyl)aniline;Ethyl aminobenzoate;4-(Ethoxycarbonyl)aniline;Anestezin;Parathesine;Identhesin;Anaesthan-syngala;Solu H;Ora-jel;Anaesthin;Ethoform;Ethyl <em>p</em>-aminobenzenecarboxylate;(<em>p</em>-(Ethoxycarbonyl)phenylamine;4-(Ethoxycarbonyl)phenylamine;Slim Mint Gum;Diet Ayds;Americaine;Orabase-B;Baby Anbesol;Aethoform;NSC 41531;NSC 4688;Benzoak;Gingicaine;Anbesol;Et-PABA;MeSH ID: D001566",
    "duplicated_cas_no": "71123-91-6;1865741-16-7",
    "SMILES": "C(OCC)(=O)C1=CC=C(N)C=C1",
    "meta_data": {
        "InChI": "InChI=1S/C9H11NO2/c1-2-12-9(11)7-3-5-8(10)6-4-7/h3-6H,2,10H2,1H3",
        "InChIKey": null,
        "Canonical SMILES": "O=C(OCC)C1=CC=C(N)C=C1",
        "Molecular Formula": "C<sub>9</sub>H<sub>11</sub>NO<sub>2</sub>",
        "Molecular Mass": "165.19",
        "Boiling Point": "310 °C",
        "Melting Point": "92 °C"
    }
}