{
    "cas_no": "374-99-2",
    "key_name": "2,2,3,3,4,4,4-Heptafluorobutylamine",
    "cn_name": "2,2,3,3,4,4,4-七氟丁胺;2,2,3,3,4,4,4-七氟丁基胺;",
    "alternate_name": "1-Butanamine, 2,2,3,3,4,4,4-heptafluoro-;Butylamine, 2,2,3,3,4,4,4-heptafluoro-;2,2,3,3,4,4,4-Heptafluoro-1-butanamine;2,2,3,3,4,4,4-Heptafluorobutylamine;1<em>H</em>,1<em>H</em>-Heptafluorobutylamine",
    "duplicated_cas_no": "1395704-83-2",
    "SMILES": "C(C(CN)(F)F)(C(F)(F)F)(F)F",
    "meta_data": {
        "InChI": "InChI=1S/C4H4F7N/c5-2(6,1-12)3(7,8)4(9,10)11/h1,12H2",
        "InChIKey": null,
        "Canonical SMILES": "FC(F)(F)C(F)(F)C(F)(F)CN",
        "Molecular Formula": "C<sub>4</sub>H<sub>4</sub>F<sub>7</sub>N",
        "Molecular Mass": "199.07",
        "Boiling Point": "68 °C",
        "Density": "1.493 g/cm³ @ Temp: 20 °C"
    }
}