{
    "cas_no": "619-67-0",
    "key_name": "4-Hydrazinobenzoic acid",
    "cn_name": "4-肼基苯甲酸;对肼基苯甲酸;对羧基苯肼;",
    "alternate_name": "Benzoic acid, 4-hydrazinyl-;Benzoic acid, <em>p</em>-hydrazino-;Benzoic acid, 4-hydrazino-;4-Hydrazinylbenzoic acid;(<em>p</em>-Carboxyphenyl)hydrazine;4-Hydrazinobenzoic acid;(4-Carboxyphenyl)hydrazine;<em>p</em>-Hydrazinobenzoic acid;NSC 3813",
    "duplicated_cas_no": "",
    "SMILES": "C(O)(=O)C1=CC=C(NN)C=C1",
    "meta_data": {
        "InChI": "InChI=1S/C7H8N2O2/c8-9-6-3-1-5(2-4-6)7(10)11/h1-4,9H,8H2,(H,10,11)",
        "InChIKey": null,
        "Canonical SMILES": "O=C(O)C1=CC=C(C=C1)NN",
        "Molecular Formula": "C<sub>7</sub>H<sub>8</sub>N<sub>2</sub>O<sub>2</sub>",
        "Molecular Mass": "152.15",
        "Melting Point": "201-204 °C (decomp)"
    }
}