{
    "cas_no": "6627-89-0",
    "key_name": "Carbonic acid, 1,1-dimethylethyl phenyl ester",
    "cn_name": "叔丁基苯基碳酸酯;",
    "alternate_name": "Carbonic acid, 1,1-dimethylethyl phenyl ester;Carbonic acid, <em>tert</em>-butyl phenyl ester;<em>tert</em>-Butyl phenyl carbonate;Phenyl <em>tert</em>-butyl carbonate;1-<em>tert</em>-Butoxycarbonyloxybenzene;NSC 60248;1,1-Dimethylethyl phenyl carbonate",
    "duplicated_cas_no": "",
    "SMILES": "O(C(OC(C)(C)C)=O)C1=CC=CC=C1",
    "meta_data": {
        "InChI": "InChI=1S/C11H14O3/c1-11(2,3)14-10(12)13-9-7-5-4-6-8-9/h4-8H,1-3H3",
        "InChIKey": null,
        "Canonical SMILES": "O=C(OC=1C=CC=CC1)OC(C)(C)C",
        "Molecular Formula": "C<sub>11</sub>H<sub>14</sub>O<sub>3</sub>",
        "Molecular Mass": "194.23",
        "Boiling Point": "74-78 °C @ Press: 0.5 Torr",
        "Melting Point": "63-65 °C"
    }
}