{
    "cas_no": "56613-61-7",
    "key_name": "<em>p</em>-Nitro-<span class=\"text-smallcaps\">D</span>-phenylalanine",
    "cn_name": "4-硝基-D-苯丙氨酸(一水物);D-对硝基苯丙氨酸(一水物);",
    "alternate_name": "<span class=\"text-smallcaps\">D</span>-Phenylalanine, 4-nitro-;4-Nitro-<span class=\"text-smallcaps\">D</span>-phenylalanine;<em>p</em>-Nitro-<span class=\"text-smallcaps\">D</span>-phenylalanine;<span class=\"text-smallcaps\">D</span>-4-Nitrophenylalanine;(2R)-2-Azaniumyl-3-(4-nitrophenyl)propanoate;(2R)-2-Amino-3-(4-nitrophenyl)propanoic acid;(2<em>R</em>)-2-Amino-3-(4-nitrophenyl)propanoic acid",
    "duplicated_cas_no": "",
    "SMILES": "C([C@H](C(O)=O)N)C1=CC=C(N(=O)=O)C=C1",
    "meta_data": {
        "InChI": "InChI=1S/C9H10N2O4/c10-8(9(12)13)5-6-1-3-7(4-2-6)11(14)15/h1-4,8H,5,10H2,(H,12,13)/t8-/m1/s1",
        "InChIKey": null,
        "Canonical SMILES": "O=C(O)C(N)CC1=CC=C(C=C1)N(=O)=O",
        "Molecular Formula": "C<sub>9</sub>H<sub>10</sub>N<sub>2</sub>O<sub>4</sub>",
        "Molecular Mass": "210.19",
        "Melting Point": "238-240 °C (decomp)"
    }
}