{
    "cas_no": "29840-57-1",
    "key_name": "Pentanoic acid, 5-amino-, ethyl ester, hydrochloride (1:1)",
    "cn_name": null,
    "alternate_name": "Pentanoic acid, 5-amino-, ethyl ester, hydrochloride (1:1);Valeric acid, 5-amino-, ethyl ester, hydrochloride;Pentanoic acid, 5-amino-, ethyl ester, hydrochloride;5-Aminopentanoic acid ethyl ester hydrochloride;Ethyl 5-aminovalerate hydrochloride;5-Aminovaleric acid ethyl ester hydrochloride;Ethyl 5-aminopentanoate hydrochloride;5-Aminovaleic acid ethyl ester hydrochloride",
    "duplicated_cas_no": "",
    "SMILES": "C(C(OCC)=O)CCCN.Cl",
    "meta_data": {
        "InChI": "InChI=1S/C7H15NO2.ClH/c1-2-10-7(9)5-3-4-6-8;/h2-6,8H2,1H3;1H",
        "InChIKey": null,
        "Canonical SMILES": "Cl.O=C(OCC)CCCCN",
        "Molecular Formula": "C<sub>7</sub>H<sub>15</sub>NO<sub>2</sub>.ClH",
        "Molecular Mass": "",
        "Melting Point": "77-80 °C"
    }
}