{
    "cas_no": "949-69-9",
    "key_name": "1-(Phenylmethyl)-4-piperidinone oxime",
    "cn_name": "1-苄基-4-哌啶酮肟;1-苄基-4-哌啶酮肟;",
    "alternate_name": "4-Piperidinone, 1-(phenylmethyl)-, oxime;4-Piperidone, 1-benzyl-, oxime;1-(Phenylmethyl)-4-piperidinone oxime;1-Benzyl-4-piperidone oxime;1-Benzyl-4-piperidinone oxime;<em>N</em>-Benzyl-4-piperidone oxime",
    "duplicated_cas_no": "",
    "SMILES": "C(N1CCC(=NO)CC1)C2=CC=CC=C2",
    "meta_data": {
        "InChI": "InChI=1S/C12H16N2O/c15-13-12-6-8-14(9-7-12)10-11-4-2-1-3-5-11/h1-5,15H,6-10H2",
        "InChIKey": null,
        "Canonical SMILES": "ON=C1CCN(CC=2C=CC=CC2)CC1",
        "Molecular Formula": "C<sub>12</sub>H<sub>16</sub>N<sub>2</sub>O",
        "Molecular Mass": "204.27",
        "Melting Point": "126-128 °C"
    }
}