{
    "cas_no": "14098-24-9",
    "key_name": "Benzo-18-crown-6",
    "cn_name": null,
    "alternate_name": "1,4,7,10,13,16-Benzohexaoxacyclooctadecin, 2,3,5,6,8,9,11,12,14,15-decahydro-;2,3,5,6,8,9,11,12,14,15-Decahydro-1,4,7,10,13,16-benzohexaoxacyclooctadecin;2,3-Benzo-1,4,7,10,13,16-hexaoxacyclooctadeca-2-ene;Benzo-18-crown-6;2,3-Benzo-18-crown-6;Monobenzo-18-crown-6;Benzo18C6;18-Benzo-6-crown ether;2,5,8,11,14,17-Hexaoxabicyclo[16.4.0]docosa-1(22),18,20-triene",
    "duplicated_cas_no": "66746-85-8",
    "SMILES": "C=12C(=CC=CC1)OCCOCCOCCOCCOCCO2",
    "meta_data": {
        "InChI": "InChI=1S/C16H24O6/c1-2-4-16-15(3-1)21-13-11-19-9-7-17-5-6-18-8-10-20-12-14-22-16/h1-4H,5-14H2",
        "InChIKey": null,
        "Canonical SMILES": "O1C=2C=CC=CC2OCCOCCOCCOCCOCC1",
        "Molecular Formula": "C<sub>16</sub>H<sub>24</sub>O<sub>6</sub>",
        "Molecular Mass": "312.36",
        "Melting Point": "43-44 °C"
    }
}