{
    "cas_no": "55985-32-5",
    "key_name": "Nicardipine",
    "cn_name": "尼卡地平;甲基2-(甲基苯甲氨)乙基2,6-二甲基-4-间硝基苯基-1,4-二氢吡啶-3,5-二羧酸酯;",
    "alternate_name": "3,5-Pyridinedicarboxylic acid, 1,4-dihydro-2,6-dimethyl-4-(3-nitrophenyl)-, 3-methyl 5-[2-[methyl(phenylmethyl)amino]ethyl] ester;3,5-Pyridinedicarboxylic acid, 1,4-dihydro-2,6-dimethyl-4-(3-nitrophenyl)-, methyl 2-[methyl(phenylmethyl)amino]ethyl ester;Nicardipine;(±)-Nicardipine;Perpidine;MeSH ID: D009529",
    "duplicated_cas_no": "106664-28-2;146904-09-8",
    "SMILES": "C(OCCN(CC1=CC=CC=C1)C)(=O)C=2C(C(C(OC)=O)=C(C)NC2C)C3=CC(N(=O)=O)=CC=C3",
    "meta_data": {
        "InChI": "InChI=1S/C26H29N3O6/c1-17-22(25(30)34-4)24(20-11-8-12-21(15-20)29(32)33)23(18(2)27-17)26(31)35-14-13-28(3)16-19-9-6-5-7-10-19/h5-12,15,24,27H,13-14,16H2,1-4H3",
        "InChIKey": null,
        "Canonical SMILES": "O=C(OC)C1=C(NC(=C(C(=O)OCCN(C)CC=2C=CC=CC2)C1C=3C=CC=C(C3)N(=O)=O)C)C",
        "Molecular Formula": "C<sub>26</sub>H<sub>29</sub>N<sub>3</sub>O<sub>6</sub>",
        "Molecular Mass": "479.52",
        "Melting Point": "136-138 °C"
    }
}