{
    "cas_no": "102-69-2",
    "key_name": "Tripropylamine",
    "cn_name": "三正丙胺;三丙胺;",
    "alternate_name": "1-Propanamine, <em>N</em>,<em>N</em>-dipropyl-;Tripropylamine;<em>N</em>,<em>N</em>-Dipropyl-1-propanamine;Tri-<em>n</em>-propylamine;Propyldi-<em>n</em>-propylamine;<em>N</em>,<em>N</em>,<em>N</em>-Tri-<em>n</em>-propylamine",
    "duplicated_cas_no": "112488-51-4",
    "SMILES": "N(CCC)(CCC)CCC",
    "meta_data": {
        "InChI": "InChI=1S/C9H21N/c1-4-7-10(8-5-2)9-6-3/h4-9H2,1-3H3",
        "InChIKey": null,
        "Canonical SMILES": "N(CCC)(CCC)CCC",
        "Molecular Formula": "C<sub>9</sub>H<sub>21</sub>N",
        "Molecular Mass": "143.27",
        "Boiling Point": "156 °C",
        "Melting Point": "-93.5 °C",
        "Density": "0.7558 g/cm³ @ Temp: 20 °C"
    }
}