{
    "cas_no": "60731-73-9",
    "key_name": "2,6-Difluorobenzoyl isocyanate",
    "cn_name": "2,6-二氟苯甲酰异氰酸酯;",
    "alternate_name": "Benzoyl isocyanate, 2,6-difluoro-;2,6-Difluorobenzoyl isocyanate",
    "duplicated_cas_no": "",
    "SMILES": "C(N=C=O)(=O)C1=C(F)C=CC=C1F",
    "meta_data": {
        "InChI": "InChI=1S/C8H3F2NO2/c9-5-2-1-3-6(10)7(5)8(13)11-4-12/h1-3H",
        "InChIKey": null,
        "Canonical SMILES": "O=C=NC(=O)C=1C(F)=CC=CC1F",
        "Molecular Formula": "C<sub>8</sub>H<sub>3</sub>F<sub>2</sub>NO<sub>2</sub>",
        "Molecular Mass": "183.11",
        "Boiling Point": "83-88 °C @ Press: 9-10 Torr"
    }
}