{
    "cas_no": "10196-49-3",
    "key_name": "2,2,4-Trimethyl-1-oxa-4-aza-2-silacyclohexane",
    "cn_name": null,
    "alternate_name": "1-Oxa-4-aza-2-silacyclohexane, 2,2,4-trimethyl-;2,2,4-Trimethyl-1-oxa-4-aza-2-silacyclohexane;2,2,4-Trimethyl-2-silamorpholine;2,2,4-Trimethyl-1,4,2-oxazasilinane",
    "duplicated_cas_no": "",
    "SMILES": "C[Si]1(C)CN(C)CCO1",
    "meta_data": {
        "InChI": "InChI=1S/C6H15NOSi/c1-7-4-5-8-9(2,3)6-7/h4-6H2,1-3H3",
        "InChIKey": null,
        "Canonical SMILES": "O1CCN(C)C[Si]1(C)C",
        "Molecular Formula": "C<sub>6</sub>H<sub>15</sub>NOSi",
        "Molecular Mass": "145.27",
        "Boiling Point": "28 °C @ Press: 1 Torr"
    }
}