{
    "cas_no": "10147-36-1",
    "key_name": "Propanesulfonyl chloride",
    "cn_name": "丙基磺酰氯;",
    "alternate_name": "1-Propanesulfonyl chloride;Propanesulfonyl chloride;Propylsulfonyl chloride;<em>n</em>-Propanesulfonyl chloride;Propan-1-sulfonyl chloride;Propane-1-sulfonyl chloride",
    "duplicated_cas_no": "",
    "SMILES": "C(S(Cl)(=O)=O)CC",
    "meta_data": {
        "InChI": "InChI=1S/C3H7ClO2S/c1-2-3-7(4,5)6/h2-3H2,1H3",
        "InChIKey": null,
        "Canonical SMILES": "O=S(=O)(Cl)CCC",
        "Molecular Formula": "C<sub>3</sub>H<sub>7</sub>ClO<sub>2</sub>S",
        "Molecular Mass": "142.60",
        "Boiling Point": "76-78 °C @ Press: 13 Torr",
        "Melting Point": "-37 °C",
        "Density": "1.2728 g/cm³ @ Temp: 20 °C"
    }
}