{
    "cas_no": "18794-84-8",
    "key_name": "β-Farnesene",
    "cn_name": "(E)-β-金合欢烯;(E)-7,11-二甲基-3-亚甲基-1,6,10-十二碳三烯;金合欢烯;",
    "alternate_name": "1,6,10-Dodecatriene, 7,11-dimethyl-3-methylene-, (6<em>E</em>)-;1,6,10-Dodecatriene, 7,11-dimethyl-3-methylene-, (<em>E</em>)-;(6<em>E</em>)-7,11-Dimethyl-3-methylene-1,6,10-dodecatriene;β-Farnesene;(<em>E</em>)-7,11-Dimethyl-3-methylene-1,6,10-dodecatriene;<em>trans</em>-β-Farnesene;(<em>E</em>)-β-Farnesene;Biofene",
    "duplicated_cas_no": "502-60-3",
    "SMILES": "C(=C/CCC(C=C)=C)(\\CCC=C(C)C)/C",
    "meta_data": {
        "InChI": "InChI=1S/C15H24/c1-6-14(4)10-8-12-15(5)11-7-9-13(2)3/h6,9,12H,1,4,7-8,10-11H2,2-3,5H3/b15-12+",
        "InChIKey": null,
        "Canonical SMILES": "C=CC(=C)CCC=C(C)CCC=C(C)C",
        "Molecular Formula": "C<sub>15</sub>H<sub>24</sub>",
        "Molecular Mass": "204.35",
        "Boiling Point": "80-82 °C @ Press: 0.5 Torr",
        "Melting Point": "&lt;25 °C",
        "Density": "0.8399 g/cm³ @ Temp: 19 °C"
    }
}