{
    "cas_no": "52057-98-4",
    "key_name": "6-(4-Methoxyphenyl)-3-pyridinamine",
    "cn_name": "6-(4-甲氧基苯基)吡啶-3-胺;",
    "alternate_name": "3-Pyridinamine, 6-(4-methoxyphenyl)-;6-(4-Methoxyphenyl)-3-pyridinamine;3-Amino-6-(4-methoxyphenyl)pyridine;[6-(4-Methoxyphenyl)pyridin-3-yl]amine",
    "duplicated_cas_no": "",
    "SMILES": "O(C)C1=CC=C(C=C1)C2=CC=C(N)C=N2",
    "meta_data": {
        "InChI": "InChI=1S/C12H12N2O/c1-15-11-5-2-9(3-6-11)12-7-4-10(13)8-14-12/h2-8H,13H2,1H3",
        "InChIKey": null,
        "Canonical SMILES": "N=1C=C(N)C=CC1C=2C=CC(OC)=CC2",
        "Molecular Formula": "C<sub>12</sub>H<sub>12</sub>N<sub>2</sub>O",
        "Molecular Mass": "200.24",
        "Melting Point": "109-110 °C"
    }
}