{
    "cas_no": "2920-38-9",
    "key_name": "4-Cyanobiphenyl",
    "cn_name": "4-氰基联苯;4-苯基苯腈;对苯基苯甲腈;",
    "alternate_name": "[1,1′-Biphenyl]-4-carbonitrile;4-Biphenylcarbonitrile;4-Cyanobiphenyl;<em>p</em>-Cyanobiphenyl;<em>p</em>-Phenylbenzonitrile;4-Phenylbenzonitrile;4-Cyanodiphenyl;4-Biphenylnitrile;1,1′-Biphenyl-4-yl cyanide;NSC 176013;4-Cyano-1,1′-biphenyl;<em>p</em>-Cyanophenyl benzene;1,1′-Biphenyl-4-ylcarbonitrile;4-Phenylphenyl isocyanide",
    "duplicated_cas_no": "1401716-51-5",
    "SMILES": "C(#N)C1=CC=C(C=C1)C2=CC=CC=C2",
    "meta_data": {
        "InChI": "InChI=1S/C13H9N/c14-10-11-6-8-13(9-7-11)12-4-2-1-3-5-12/h1-9H",
        "InChIKey": null,
        "Canonical SMILES": "N#CC=1C=CC(=CC1)C=2C=CC=CC2",
        "Molecular Formula": "C<sub>13</sub>H<sub>9</sub>N",
        "Molecular Mass": "179.22",
        "Melting Point": "85-86 °C"
    }
}