{
    "cas_no": "1435-60-5",
    "key_name": "4-Hydroxy-4′-nitroazobenzene",
    "cn_name": "4-羟基-4-硝基偶氮苯;",
    "alternate_name": "Phenol, 4-[2-(4-nitrophenyl)diazenyl]-;Phenol, <em>p</em>-[(<em>p</em>-nitrophenyl)azo]-;Phenol, 4-[(4-nitrophenyl)azo]-;4-[2-(4-Nitrophenyl)diazenyl]phenol;<em>p</em>-Nitrophenylazophenol;4-Nitro-4′-hydroxyazobenzene;4-(<em>p</em>-Nitrophenylazo)phenol;4-Hydroxy-4′-nitroazobenzene;4-[(4-Nitrophenyl)azo]phenol;<em>p</em>-Hydroxy-<em>p</em>′-nitroazobenzene;4′-Nitro-4-hydroxyazobenzene;4-(4′-Nitrophenylazo)phenol;NSC 45166",
    "duplicated_cas_no": "",
    "SMILES": "N(=NC1=CC=C(O)C=C1)C2=CC=C(N(=O)=O)C=C2",
    "meta_data": {
        "InChI": "InChI=1S/C12H9N3O3/c16-12-7-3-10(4-8-12)14-13-9-1-5-11(6-2-9)15(17)18/h1-8,16H",
        "InChIKey": null,
        "Canonical SMILES": "O=N(=O)C1=CC=C(N=NC2=CC=C(O)C=C2)C=C1",
        "Molecular Formula": "C<sub>12</sub>H<sub>9</sub>N<sub>3</sub>O<sub>3</sub>",
        "Molecular Mass": "243.22",
        "Melting Point": "216 °C"
    }
}