{
    "cas_no": "88374-55-4",
    "key_name": "4-(Octyloxy)benzonitrile",
    "cn_name": "4-正辛氧基苯腈;",
    "alternate_name": "Benzonitrile, 4-(octyloxy)-;4-(Octyloxy)benzonitrile;4-Octyloxybenzonitrile;4-Octoxybenzonitrile",
    "duplicated_cas_no": "",
    "SMILES": "O(CCCCCCCC)C1=CC=C(C#N)C=C1",
    "meta_data": {
        "InChI": "InChI=1S/C15H21NO/c1-2-3-4-5-6-7-12-17-15-10-8-14(13-16)9-11-15/h8-11H,2-7,12H2,1H3",
        "InChIKey": null,
        "Canonical SMILES": "N#CC1=CC=C(OCCCCCCCC)C=C1",
        "Molecular Formula": "C<sub>15</sub>H<sub>21</sub>NO",
        "Molecular Mass": "231.33",
        "Boiling Point": "171-173 °C @ Press: 2 Torr",
        "Melting Point": "26.7-27.0 °C"
    }
}