{
    "cas_no": "498-66-8",
    "key_name": "Norbornene",
    "cn_name": "降冰片烯;",
    "alternate_name": "Bicyclo[2.2.1]hept-2-ene;2-Norbornene;Norcamphene;Norbornylene;Norfenchene;3,6-Endomethylenecyclohexene;Norbornene;Bicyclo[2.2.1]heptene;2-Norbornylene;NSC 120425;NSC 22453",
    "duplicated_cas_no": "27416-03-1",
    "SMILES": "C12CC(CC1)C=C2",
    "meta_data": {
        "InChI": "InChI=1S/C7H10/c1-2-7-4-3-6(1)5-7/h1-2,6-7H,3-5H2",
        "InChIKey": null,
        "Canonical SMILES": "C1=CC2CCC1C2",
        "Molecular Formula": "C<sub>7</sub>H<sub>10</sub>",
        "Molecular Mass": "94.15",
        "Boiling Point": "96 °C",
        "Melting Point": "45 °C",
        "Density": "0.8789 g/cm³ @ Temp: 13 °C"
    }
}