{
    "cas_no": "1556-09-8",
    "key_name": "Bromocyclooctane",
    "cn_name": "溴代环辛烷;",
    "alternate_name": "Cyclooctane, bromo-;Bromocyclooctane;Cyclooctyl bromide;NSC 226433",
    "duplicated_cas_no": "",
    "SMILES": "BrC1CCCCCCC1",
    "meta_data": {
        "InChI": "InChI=1S/C8H15Br/c9-8-6-4-2-1-3-5-7-8/h8H,1-7H2",
        "InChIKey": null,
        "Canonical SMILES": "BrC1CCCCCCC1",
        "Molecular Formula": "C<sub>8</sub>H<sub>15</sub>Br",
        "Molecular Mass": "191.11",
        "Boiling Point": "97 °C @ Press: 15 Torr",
        "Density": "1.282 g/cm³ @ Temp: 20 °C"
    }
}