{
    "cas_no": "80844-07-1",
    "key_name": "Ethofenprox",
    "cn_name": "醚菊酯;2-(4-乙氧基苯基-2-甲基丙基-3-苯氧基苄基醚;",
    "alternate_name": "Benzene, 1-[[2-(4-ethoxyphenyl)-2-methylpropoxy]methyl]-3-phenoxy-;1-[[2-(4-Ethoxyphenyl)-2-methylpropoxy]methyl]-3-phenoxybenzene;Ethofenprox;MTI 500;2-(4-Ethoxyphenyl)-2-methylpropyl 3-phenoxybenzyl ether;Ethophenprox;Trebon;Ethoproxyfen;Etofenprox;4-Ethoxyneophyl 3-phenoxybenzyl ether;Ethoproxyphen;Etof;SA 130301;Safety (insecticide);Zenivex E 20;Myungtaja;Vectron;Vectron 20WP;Trebon Star;NIXAM 416X",
    "duplicated_cas_no": "",
    "SMILES": "O(C1=CC(COCC(C)(C)C2=CC=C(OCC)C=C2)=CC=C1)C3=CC=CC=C3",
    "meta_data": {
        "InChI": "InChI=1S/C25H28O3/c1-4-27-22-15-13-21(14-16-22)25(2,3)19-26-18-20-9-8-12-24(17-20)28-23-10-6-5-7-11-23/h5-17H,4,18-19H2,1-3H3",
        "InChIKey": null,
        "Canonical SMILES": "O(C=1C=CC=CC1)C2=CC=CC(=C2)COCC(C3=CC=C(OCC)C=C3)(C)C",
        "Molecular Formula": "C<sub>25</sub>H<sub>28</sub>O<sub>3</sub>",
        "Molecular Mass": "376.49",
        "Boiling Point": "200 °C",
        "Melting Point": "37 °C"
    }
}