{
    "cas_no": "41753-43-9",
    "key_name": "Ginsenoside Rb<sub>1</sub>",
    "cn_name": "人参皂苷Rb1;人参皂甙Rb1;",
    "alternate_name": "β-<span class=\"text-smallcaps\">D</smallcap>-Glucopyranoside, (3β,12β)-20-[(6-<em>O</em>-β-<smallcap>D</smallcap>-glucopyranosyl-β-<smallcap>D</smallcap>-glucopyranosyl)oxy]-12-hydroxydammar-24-en-3-yl 2-<em>O</em>-β-<smallcap>D</span>-glucopyranosyl-;Dammarane, β-<span class=\"text-smallcaps\">D</span>-glucopyranoside deriv.;(3β,12β)-20-[(6-<em>O</em>-β-<span class=\"text-smallcaps\">D</smallcap>-Glucopyranosyl-β-<smallcap>D</smallcap>-glucopyranosyl)oxy]-12-hydroxydammar-24-en-3-yl 2-<em>O</em>-β-<smallcap>D</smallcap>-glucopyranosyl-β-<smallcap>D</span>-glucopyranoside;Ginsenoside Rb<sub>1</sub>;Sanchinoside E<sub>1</sub>;Gypenoside III;Gynosaponin C;Arasaponin E<sub>1</sub>;Panaxoside Rb<sub>1</sub>;Sanchinoside Rb<sub>1</sub>;Notoginsenoside Rb<sub>1</sub>;NSC 310103;RB 1",
    "duplicated_cas_no": "12770-17-1;52286-61-0;87700-07-0;212055-66-8;393829-67-9;2412536-38-8;2416257-88-8",
    "SMILES": "C[C@]12[C@@]([C@]3(C)[C@@](CC1)(C(C)(C)[C@@H](O[C@H]4[C@H](O[C@@H]5O[C@H](CO)[C@@H](O)[C@H](O)[C@H]5O)[C@@H](O)[C@H](O)[C@@H](CO)O4)CC3)[H])(C[C@@H](O)[C@]6([C@@]2(C)CC[C@@]6([C@@](O[C@@H]7O[C@H](CO[C@@H]8O[C@H](CO)[C@@H](O)[C@H](O)[C@H]8O)[C@@H](O)[C@H](O)[C@H]7O)(CCC=C(C)C)C)[H])[H])[H]",
    "meta_data": {
        "InChI": "InChI=1S/C54H92O23/c1-23(2)10-9-14-54(8,77-48-44(69)40(65)37(62)29(74-48)22-70-46-42(67)38(63)34(59)26(19-55)71-46)24-11-16-53(7)33(24)25(58)18-31-51(5)15-13-32(50(3,4)30(51)12-17-52(31,53)6)75-49-45(41(66)36(61)28(21-57)73-49)76-47-43(68)39(64)35(60)27(20-56)72-47/h10,24-49,55-69H,9,11-22H2,1-8H3/t24-,25+,26+,27+,28+,29+,30-,31+,32-,33-,34+,35+,36+,37+,38-,39-,40-,41-,42+,43+,44+,45+,46+,47-,48-,49-,51-,52+,53+,54-/m0/s1",
        "InChIKey": null,
        "Canonical SMILES": "OCC1OC(OCC2OC(OC(C)(CCC=C(C)C)C3CCC4(C)C3C(O)CC5C6(C)CCC(OC7OC(CO)C(O)C(O)C7OC8OC(CO)C(O)C(O)C8O)C(C)(C)C6CCC54C)C(O)C(O)C2O)C(O)C(O)C1O",
        "Molecular Formula": "C<sub>54</sub>H<sub>92</sub>O<sub>23</sub>",
        "Molecular Mass": "1109.29",
        "Melting Point": "186-188 °C"
    }
}