{
    "cas_no": "487-79-6",
    "key_name": "α-Kainic acid",
    "cn_name": null,
    "alternate_name": "3-Pyrrolidineacetic acid, 2-carboxy-4-(1-methylethenyl)-, (2<em>S</em>,3<em>S</em>,4<em>S</em>)-;3-Pyrrolidineacetic acid, 2-carboxy-4-isopropenyl-;3-Pyrrolidineacetic acid, 2-carboxy-4-(1-methylethenyl)-, [2<em>S</em>-(2α,3β,4β)]-;(2<em>S</em>,3<em>S</em>,4<em>S</em>)-2-Carboxy-4-(1-methylethenyl)-3-pyrrolidineacetic acid;Digenin;Helminal;α-Kainic acid;Digenic acid;<span class=\"text-smallcaps\">L</span>-α-Kainic acid;(-)-α-Kainic acid;(2<em>S</em>,3<em>S</em>,4<em>S</em>)-2-Carboxy-4-isopropenylpyrrolidine-3-acetic acid;(-)-Kainic acid;Kainic acid;MeSH ID: D007608",
    "duplicated_cas_no": "4071-38-9;46398-96-3",
    "SMILES": "C(C(O)=O)[C@H]1[C@@H](C(C)=C)CN[C@@H]1C(O)=O",
    "meta_data": {
        "InChI": "InChI=1S/C10H15NO4/c1-5(2)7-4-11-9(10(14)15)6(7)3-8(12)13/h6-7,9,11H,1,3-4H2,2H3,(H,12,13)(H,14,15)/t6-,7+,9-/m0/s1",
        "InChIKey": null,
        "Canonical SMILES": "O=C(O)CC1C(NCC1C(=C)C)C(=O)O",
        "Molecular Formula": "C<sub>10</sub>H<sub>15</sub>NO<sub>4</sub>",
        "Molecular Mass": "213.23",
        "Melting Point": "251 °C (decomp)"
    }
}