{
    "cas_no": "2825-83-4",
    "key_name": "<em>endo</em>-Tetrahydrodicyclopentadiene",
    "cn_name": null,
    "alternate_name": "4,7-Methano-1<em>H</em>-indene, octahydro-, (3a<em>R</em>,4<em>R</em>,7<em>S</em>,7a<em>S</em>)-<em>rel</em>-;4,7-Methanoindan, hexahydro-, <em>endo</em>-;4,7-Methano-1<em>H</em>-indene, octahydro-, (3aα,4α,7α,7aα)-;<em>rel</em>-(3a<em>R</em>,4<em>R</em>,7<em>S</em>,7a<em>S</em>)-Octahydro-4,7-methano-1<em>H</em>-indene;<em>endo</em>-Tetrahydrodicyclopentadiene;<em>endo</em>-Tetrahydrobicyclopentadiene;<em>endo</em>-Trimethylenenorbornane;<em>endo</em>-Tricyclo[5.2.1.0<sup>2,6</sup>]decane",
    "duplicated_cas_no": "",
    "SMILES": "[C@@]12([C@]([C@@]3(C[C@]1(CC3)[H])[H])(CCC2)[H])[H]",
    "meta_data": {
        "InChI": "InChI=1/C10H16/c1-2-9-7-4-5-8(6-7)10(9)3-1/h7-10H,1-6H2/t7-,8+,9-,10+",
        "InChIKey": null,
        "Canonical SMILES": "C1CC2C3CCC(C3)C2C1",
        "Molecular Formula": "C<sub>10</sub>H<sub>16</sub>",
        "Molecular Mass": "136.23",
        "Boiling Point": "188-190 °C",
        "Melting Point": "77 °C"
    }
}