{
    "cas_no": "14868-03-2",
    "key_name": "1,1-Dichloro-2,2-bis(4-hydroxyphenyl)ethylene",
    "cn_name": "双酚C;2,2-双(4-羟基苯基)-1,1-二氯乙烯;",
    "alternate_name": "Phenol, 4,4′-(2,2-dichloroethenylidene)bis-;Phenol, 4,4′-(dichlorovinylidene)di-;Phenol, 4,4′-(dichloroethenylidene)bis-;4,4′-(2,2-Dichloroethenylidene)bis[phenol];1,1-Bis(4-hydroxyphenyl)-2,2-dichloroethylene;1,1-Dichloro-2,2-bis(<em>p</em>-hydroxyphenyl)ethylene;1,1-Bis(<em>p</em>-hydroxyphenyl)-2,2-dichloroethylene;1,1-Dichloro-2,2-bis(4-hydroxyphenyl)ethylene;4,4′-(Dichlorovinylidene)diphenol;1,1-Dichloro-2,2-bis(4-hydroxyphenyl)ethene;2,2-Dichloro-1,1-bis(4-hydroxyphenyl)ethylene;Bisphenol C 2;2,2-Bis(4-hydroxyphenyl)-1,1-dichloroethylene;Bis(4-hydroxyphenyl)dichloroethylene;2,2-Bis(4-hydroxyphenyl)-1,1-dichloroethene;Bis(4-hydroxyphenyl)-2,2-dichloroethylene",
    "duplicated_cas_no": "",
    "SMILES": "C(=C(Cl)Cl)(C1=CC=C(O)C=C1)C2=CC=C(O)C=C2",
    "meta_data": {
        "InChI": "InChI=1S/C14H10Cl2O2/c15-14(16)13(9-1-5-11(17)6-2-9)10-3-7-12(18)8-4-10/h1-8,17-18H",
        "InChIKey": null,
        "Canonical SMILES": "ClC(Cl)=C(C1=CC=C(O)C=C1)C2=CC=C(O)C=C2",
        "Molecular Formula": "C<sub>14</sub>H<sub>10</sub>Cl<sub>2</sub>O<sub>2</sub>",
        "Molecular Mass": "281.13",
        "Melting Point": "210 °C"
    }
}