{
    "cas_no": "17617-05-9",
    "key_name": "3-Pyridinemethanethiol",
    "cn_name": null,
    "alternate_name": "3-Pyridinemethanethiol;3-Pyridylmethyl mercaptan;3-Pyridylmethanethiol;3-(Mercaptomethyl)pyridine;3-(Sulfanylmethyl)pyridine;Pyridin-3-ylmethanethiol",
    "duplicated_cas_no": "",
    "SMILES": "C(S)C=1C=CC=NC1",
    "meta_data": {
        "InChI": "InChI=1S/C6H7NS/c8-5-6-2-1-3-7-4-6/h1-4,8H,5H2",
        "InChIKey": null,
        "Canonical SMILES": "SCC=1C=NC=CC1",
        "Molecular Formula": "C<sub>6</sub>H<sub>7</sub>NS",
        "Molecular Mass": "125.19",
        "Boiling Point": "118-125 °C @ Press: 17-19 Torr"
    }
}