{
    "cas_no": "610-39-9",
    "key_name": "3,4-Dinitrotoluene",
    "cn_name": "3,4-二硝基甲苯;",
    "alternate_name": "Benzene, 4-methyl-1,2-dinitro-;Toluene, 3,4-dinitro-;4-Methyl-1,2-dinitrobenzene;3,4-Dinitrotoluene;3,4-DNT;1-Methyl-3,4-dinitrobenzene;5-Methyl-1,2-dinitrobenzene;NSC 52216",
    "duplicated_cas_no": "",
    "SMILES": "N(=O)(=O)C1=C(N(=O)=O)C=C(C)C=C1",
    "meta_data": {
        "InChI": "InChI=1S/C7H6N2O4/c1-5-2-3-6(8(10)11)7(4-5)9(12)13/h2-4H,1H3",
        "InChIKey": null,
        "Canonical SMILES": "O=N(=O)C1=CC=C(C=C1N(=O)=O)C",
        "Molecular Formula": "C<sub>7</sub>H<sub>6</sub>N<sub>2</sub>O<sub>4</sub>",
        "Molecular Mass": "182.13",
        "Boiling Point": "284 °C",
        "Melting Point": "58.3 °C",
        "Density": "1.2594 g/cm³ @ Temp: 111 °C"
    }
}