{
    "cas_no": "874-86-2",
    "key_name": "4-Cyanobenzyl chloride",
    "cn_name": "对氰基氯苄;",
    "alternate_name": "Benzonitrile, 4-(chloromethyl)-;<em>p</em>-Tolunitrile, α-chloro-;4-(Chloromethyl)benzonitrile;<em>p</em>-Cyanobenzyl chloride;4-Cyanobenzyl chloride;4-(Chloromethyl)benzeneacetonitrile;α-Chloro-<em>p</em>-tolunitrile;α-Chloro-<em>p</em>-toluonitrile;<em>p</em>-(Chloromethyl)benzonitrile;(4-Cyanophenyl)methyl chloride;NSC 44855;NSC 6307;α-Chloro-<em>p</em>-cyanotoluene",
    "duplicated_cas_no": "28754-04-3",
    "SMILES": "C(Cl)C1=CC=C(C#N)C=C1",
    "meta_data": {
        "InChI": "InChI=1S/C8H6ClN/c9-5-7-1-3-8(6-10)4-2-7/h1-4H,5H2",
        "InChIKey": null,
        "Canonical SMILES": "N#CC1=CC=C(C=C1)CCl",
        "Molecular Formula": "C<sub>8</sub>H<sub>6</sub>ClN",
        "Molecular Mass": "151.59",
        "Melting Point": "80-81 °C"
    }
}