{
    "cas_no": "31008-19-2",
    "key_name": "(±)-Fargesin",
    "cn_name": "辛夷脂素;",
    "alternate_name": "1,3-Benzodioxole, 5-[(1<em>R</em>,3a<em>S</em>,4<em>S</em>,6a<em>S</em>)-4-(3,4-dimethoxyphenyl)tetrahydro-1<em>H</em>,3<em>H</em>-furo[3,4-<em>c</em>]furan-1-yl]-, <em>rel</em>-;1,3-Benzodioxole, 5-[4-(3,4-dimethoxyphenyl)tetrahydro-1<em>H</em>,3<em>H</em>-furo[3,4-<em>c</em>]furan-1-yl]-, (1α,3aα,4β,6aα)-(±)-;1<em>H</em>,3<em>H</em>-Furo[3,4-<em>c</em>]furan, 1α-(3,4-dimethoxyphenyl)-3aβ,4,6,6aβ-tetrahydro-4β-[(3,4-methylenedioxy)phenyl]-;1<em>H</em>,3<em>H</em>-Furo[3,4-<em>c</em>]furan, 1,3-benzodioxole deriv.;<em>rel</em>-5-[(1<em>R</em>,3a<em>S</em>,4<em>S</em>,6a<em>S</em>)-4-(3,4-Dimethoxyphenyl)tetrahydro-1<em>H</em>,3<em>H</em>-furo[3,4-<em>c</em>]furan-1-yl]-1,3-benzodioxole;Fargesin;1,3-Benzodioxole, 5-[4-(3,4-dimethoxyphenyl)tetrahydro-1<em>H</em>,3<em>H</em>-furo[3,4-<em>c</em>]furan-1-yl]-, (1α,3aα,4β,6aα)-;(±)-Fargesin",
    "duplicated_cas_no": "55821-75-5;187604-37-1",
    "SMILES": "O(C)C=1C=C([C@H]2[C@@]3([C@@]([C@H](OC3)C=4C=C5C(=CC4)OCO5)(CO2)[H])[H])C=CC1OC",
    "meta_data": {
        "InChI": "InChI=1/C21H22O6/c1-22-16-5-3-12(7-18(16)23-2)20-14-9-25-21(15(14)10-24-20)13-4-6-17-19(8-13)27-11-26-17/h3-8,14-15,20-21H,9-11H2,1-2H3/t14-,15-,20-,21+/s2",
        "InChIKey": null,
        "Canonical SMILES": "O(C1=CC=C(C=C1OC)C2OCC3C(OCC23)C4=CC=C5OCOC5=C4)C",
        "Molecular Formula": "C<sub>21</sub>H<sub>22</sub>O<sub>6</sub>",
        "Molecular Mass": "370.40",
        "Melting Point": "139 °C"
    }
}