{
    "cas_no": "7209-38-3",
    "key_name": "1,4-Bis(3′-aminopropyl)piperazine",
    "cn_name": null,
    "alternate_name": "1,4-Piperazinedipropanamine;Piperazine, 1,4-bis(3-aminopropyl)-;<em>N</em>,<em>N</em>′-Bis(γ-aminopropyl)piperazine;<em>N</em>,<em>N</em>′-Bis(3-aminopropyl)piperazine;1,4-Piperazinebis(propylamine);1,4-Bis(3-aminopropyl)piperazine;1,4-Piperazinedipropylamine;1,4-Bis(3′-aminopropyl)piperazine;1,4-(3-Aminopropyl)piperazine;[3-[4-(3-Aminopropyl)piperazin-1-yl]propyl]amine;<em>N</em>,<em>N</em>′-Bis(<em>N</em>-aminopropyl)piperazine;Bis(3-aminopropyl)piperazine",
    "duplicated_cas_no": "",
    "SMILES": "C(CCN)N1CCN(CCCN)CC1",
    "meta_data": {
        "InChI": "InChI=1S/C10H24N4/c11-3-1-5-13-7-9-14(10-8-13)6-2-4-12/h1-12H2",
        "InChIKey": null,
        "Canonical SMILES": "NCCCN1CCN(CC1)CCCN",
        "Molecular Formula": "C<sub>10</sub>H<sub>24</sub>N<sub>4</sub>",
        "Molecular Mass": "200.32",
        "Boiling Point": "150-152 °C",
        "Melting Point": "15 °C"
    }
}