{
    "cas_no": "18362-64-6",
    "key_name": "2,6-Dimethyl-3,5-heptanedione",
    "cn_name": "2,6-二甲基-3,5-庚二酮;2,6-二甲基-3,5-庚二酮, 98+%;",
    "alternate_name": "3,5-Heptanedione, 2,6-dimethyl-;2,6-Dimethyl-3,5-heptanedione;Diisobutyrylmethane;Di-<em>iso</em>-butyrylmethane;2,6-Dimethyl-3,5-dioxoheptane;1,3-Diisopropyl-1,3-propanedione",
    "duplicated_cas_no": "",
    "SMILES": "C(CC(C(C)C)=O)(C(C)C)=O",
    "meta_data": {
        "InChI": "InChI=1S/C9H16O2/c1-6(2)8(10)5-9(11)7(3)4/h6-7H,5H2,1-4H3",
        "InChIKey": null,
        "Canonical SMILES": "O=C(CC(=O)C(C)C)C(C)C",
        "Molecular Formula": "C<sub>9</sub>H<sub>16</sub>O<sub>2</sub>",
        "Molecular Mass": "156.22",
        "Boiling Point": "75-77 °C @ Press: 7 Torr"
    }
}