{
    "cas_no": "4669-59-4",
    "key_name": "<em>N</em>,<em>N</em>,<em>N</em>′,<em>N</em>′-Tetraethyl-1,1-dimethylsilanediamine",
    "cn_name": null,
    "alternate_name": "Silanediamine, <em>N</em>,<em>N</em>,<em>N</em>′,<em>N</em>′-tetraethyl-1,1-dimethyl-;<em>N</em>,<em>N</em>,<em>N</em>′,<em>N</em>′-Tetraethyl-1,1-dimethylsilanediamine;Bis(diethylamino)dimethylsilane;NSC 379582;Dimethyldi(<em>N</em>,<em>N</em>-diethylamino)silane",
    "duplicated_cas_no": "",
    "SMILES": "[Si](N(CC)CC)(N(CC)CC)(C)C",
    "meta_data": {
        "InChI": "InChI=1S/C10H26N2Si/c1-7-11(8-2)13(5,6)12(9-3)10-4/h7-10H2,1-6H3",
        "InChIKey": null,
        "Canonical SMILES": "N(CC)(CC)[Si](N(CC)CC)(C)C",
        "Molecular Formula": "C<sub>10</sub>H<sub>26</sub>N<sub>2</sub>Si",
        "Molecular Mass": "202.41",
        "Boiling Point": "192-195 °C",
        "Density": "0.826 g/cm³"
    }
}