{
    "cas_no": "87394-65-8",
    "key_name": "1-(5-Chloropyridin-2-yl)piperazine",
    "cn_name": "1-(5-氯-2-哌啶基)哌嗪;",
    "alternate_name": "Piperazine, 1-(5-chloro-2-pyridinyl)-;1-(5-Chloro-2-pyridinyl)piperazine;1-(5-Chloro-2-pyridyl)piperazine;2-Piperazino-5-chloropyridine;1-(5-Chloropyridin-2-yl)piperazine;4-(5-Chloropyridin-2-yl)piperazine",
    "duplicated_cas_no": "",
    "SMILES": "ClC1=CC=C(N=C1)N2CCNCC2",
    "meta_data": {
        "InChI": "InChI=1S/C9H12ClN3/c10-8-1-2-9(12-7-8)13-5-3-11-4-6-13/h1-2,7,11H,3-6H2",
        "InChIKey": null,
        "Canonical SMILES": "ClC1=CN=C(C=C1)N2CCNCC2",
        "Molecular Formula": "C<sub>9</sub>H<sub>12</sub>ClN<sub>3</sub>",
        "Molecular Mass": "197.66",
        "Melting Point": "59-61 °C"
    }
}