{
    "cas_no": "3034-48-8",
    "key_name": "2-Bromo-5-nitrothiazole",
    "cn_name": "2-溴-5-硝基噻唑;",
    "alternate_name": "Thiazole, 2-bromo-5-nitro-;2-Bromo-5-nitrothiazole;5-Nitro-2-bromothiazole;2-Bromo-5-nitro-1,3-thiazole;NSC 91531",
    "duplicated_cas_no": "",
    "SMILES": "N(=O)(=O)C=1SC(Br)=NC1",
    "meta_data": {
        "InChI": "InChI=1S/C3HBrN2O2S/c4-3-5-1-2(9-3)6(7)8/h1H",
        "InChIKey": null,
        "Canonical SMILES": "O=N(=O)C=1SC(Br)=NC1",
        "Molecular Formula": "C<sub>3</sub>HBrN<sub>2</sub>O<sub>2</sub>S",
        "Molecular Mass": "209.02",
        "Melting Point": "91 °C"
    }
}