{
    "cas_no": "2131-61-5",
    "key_name": "4-Nitrophenyl isothiocyanate",
    "cn_name": "4-硝基苯硫代异氰酸酯;",
    "alternate_name": "Benzene, 1-isothiocyanato-4-nitro-;Isothiocyanic acid, <em>p</em>-nitrophenyl ester;1-Isothiocyanato-4-nitrobenzene;<em>p</em>-Nitrophenyl isothiocyanate;4-Nitrophenyl isothiocyanate",
    "duplicated_cas_no": "391256-09-0;2756239-56-0",
    "SMILES": "N(=O)(=O)C1=CC=C(N=C=S)C=C1",
    "meta_data": {
        "InChI": "InChI=1S/C7H4N2O2S/c10-9(11)7-3-1-6(2-4-7)8-5-12/h1-4H",
        "InChIKey": null,
        "Canonical SMILES": "O=N(=O)C1=CC=C(N=C=S)C=C1",
        "Molecular Formula": "C<sub>7</sub>H<sub>4</sub>N<sub>2</sub>O<sub>2</sub>S",
        "Molecular Mass": "180.18",
        "Boiling Point": "137-138 °C",
        "Melting Point": "110-112 °C"
    }
}