{
    "cas_no": "30413-58-2",
    "key_name": "2-Ethynyl-6-methylpyridine",
    "cn_name": null,
    "alternate_name": "Pyridine, 2-ethynyl-6-methyl-;2-Picoline, 6-ethynyl-;2-Ethynyl-6-methylpyridine;6-Ethynyl-2-picoline;6-Methyl-2-pyridylacetylene",
    "duplicated_cas_no": "",
    "SMILES": "C(#C)C=1N=C(C)C=CC1",
    "meta_data": {
        "InChI": "InChI=1S/C8H7N/c1-3-8-6-4-5-7(2)9-8/h1,4-6H,2H3",
        "InChIKey": null,
        "Canonical SMILES": "C#CC=1N=C(C=CC1)C",
        "Molecular Formula": "C<sub>8</sub>H<sub>7</sub>N",
        "Molecular Mass": "117.15",
        "Boiling Point": "92-94 °C @ Press: 25 Torr"
    }
}