{
    "cas_no": "529-53-3",
    "key_name": "Scutellarein",
    "cn_name": "野黄芩素; 野黄芩苷; 4\",5,6,7-四羟基黄酮; 5,6,7-三羟基-2-(4-羟基苯基)-4H-苯并吡喃-4-酮;",
    "alternate_name": "4<em>H</em>-1-Benzopyran-4-one, 5,6,7-trihydroxy-2-(4-hydroxyphenyl)-;Flavone, 4′,5,6,7-tetrahydroxy-;Scutellarein;5,6,7-Trihydroxy-2-(4-hydroxyphenyl)-4<em>H</em>-1-benzopyran-4-one;4′,5,6,7-Tetrahydroxyflavone;6-Hydroxyapigenin;5,6,7,4′-Tetrahydroxyflavone;5,6,7-Trihydroxy-2-(4-hydroxyphenyl)-4<em>H</em>-chromen-4-one;2-(4-Hydroxyphenyl)-5,6,7-tris(oxidanyl)chromen-4-one",
    "duplicated_cas_no": "",
    "SMILES": "O=C1C=2C(OC(=C1)C3=CC=C(O)C=C3)=CC(O)=C(O)C2O",
    "meta_data": {
        "InChI": "InChI=1S/C15H10O6/c16-8-3-1-7(2-4-8)11-5-9(17)13-12(21-11)6-10(18)14(19)15(13)20/h1-6,16,18-20H",
        "InChIKey": null,
        "Canonical SMILES": "O=C1C=C(OC2=CC(O)=C(O)C(O)=C12)C=3C=CC(O)=CC3",
        "Molecular Formula": "C<sub>15</sub>H<sub>10</sub>O<sub>6</sub>",
        "Molecular Mass": "286.24",
        "Melting Point": "340 °C (decomp)"
    }
}