{
    "cas_no": "463-00-3",
    "key_name": "γ-Guanidinobutyric acid",
    "cn_name": null,
    "alternate_name": "Butanoic acid, 4-[(aminoiminomethyl)amino]-;Butyric acid, 4-guanidino-;4-[(Aminoiminomethyl)amino]butanoic acid;γ-Guanidinobutyric acid;γ-Guanidinebutyric acid;4-Guanidinobutanoic acid;HL 6450;NSC 521717;<em>N</em>-(4-Butanoic acid)guanidine;4-Guanidinobutyric acid",
    "duplicated_cas_no": "19841-67-9;13516-07-9",
    "SMILES": "C(CNC(=N)N)CC(O)=O",
    "meta_data": {
        "InChI": "InChI=1S/C5H11N3O2/c6-5(7)8-3-1-2-4(9)10/h1-3H2,(H,9,10)(H4,6,7,8)",
        "InChIKey": null,
        "Canonical SMILES": "O=C(O)CCCNC(=N)N",
        "Molecular Formula": "C<sub>5</sub>H<sub>11</sub>N<sub>3</sub>O<sub>2</sub>",
        "Molecular Mass": "145.16",
        "Melting Point": "246-248 °C (decomp)"
    }
}