{
    "cas_no": "5785-06-8",
    "key_name": "3-Methoxybenzohydrazide",
    "cn_name": "3-甲氧基苯酰肼;",
    "alternate_name": "Benzoic acid, 3-methoxy-, hydrazide;<em>m</em>-Anisic acid, hydrazide;<em>m</em>-Methoxybenzohydrazide;<em>m</em>-Methoxybenzoic hydrazide;<em>m</em>-Methoxybenzoylhydrazide;<em>m</em>-Methoxybenzoic acid hydrazide;3-Methoxybenzohydrazide;3-Methoxybenzoylhydrazine;3-Methoxybenzoic acid hydrazide;3-Methoxybenzoylhydrazide;3-Methoxybenzenecarbohydrazide;3-Methoxybenzhydrazide;3-Methoxybenzoic hydrazide",
    "duplicated_cas_no": "",
    "SMILES": "C(NN)(=O)C1=CC(OC)=CC=C1",
    "meta_data": {
        "InChI": "InChI=1S/C8H10N2O2/c1-12-7-4-2-3-6(5-7)8(11)10-9/h2-5H,9H2,1H3,(H,10,11)",
        "InChIKey": null,
        "Canonical SMILES": "O=C(NN)C=1C=CC=C(OC)C1",
        "Molecular Formula": "C<sub>8</sub>H<sub>10</sub>N<sub>2</sub>O<sub>2</sub>",
        "Molecular Mass": "166.18",
        "Melting Point": "93-95 °C"
    }
}