{
    "cas_no": "1007-48-3",
    "key_name": "4-Pyridinemethanol, 4-acetate",
    "cn_name": "吡啶-4-甲基乙酸酯; 4-(乙酰氧甲基)吡啶;",
    "alternate_name": "4-Pyridinemethanol, 4-acetate;4-Pyridinemethanol, acetate (ester);Acetic acid, 4-pyridylmethyl ester;4-Pyridylcarbinol acetate (ester);4-Pyridylmethyl acetate;4-(Acetoxymethyl)pyridine;4-Picolyl acetate;NSC 403921",
    "duplicated_cas_no": "",
    "SMILES": "C(OC(C)=O)C=1C=CN=CC1",
    "meta_data": {
        "InChI": "InChI=1S/C8H9NO2/c1-7(10)11-6-8-2-4-9-5-3-8/h2-5H,6H2,1H3",
        "InChIKey": null,
        "Canonical SMILES": "O=C(OCC=1C=CN=CC1)C",
        "Molecular Formula": "C<sub>8</sub>H<sub>9</sub>NO<sub>2</sub>",
        "Molecular Mass": "151.16",
        "Boiling Point": "85-95 °C @ Press: 4 Torr"
    }
}