{
    "cas_no": "2507-55-3",
    "key_name": "2-Hydroxytetradecanoic acid",
    "cn_name": "2-羟基肉豆蔻酸;2-羟基十四烷酸;",
    "alternate_name": "Tetradecanoic acid, 2-hydroxy-;2-Hydroxytetradecanoic acid;α-Hydroxymyristic acid;2-Hydroxymyristic acid;α-Hydroxytetradecanoic acid;(±)-α-Hydroxymyristic acid;<span class=\"text-smallcaps\">DL</span>-2-Hydroxymyristic acid;<span class=\"text-smallcaps\">DL</span>-2-Hydroxytetradecanoic acid;(±)-2-Hydroxytetradecanoic acid;NSC 18938",
    "duplicated_cas_no": "37639-48-8",
    "SMILES": "C(CCCCCCCCCCC)C(C(O)=O)O",
    "meta_data": {
        "InChI": "InChI=1S/C14H28O3/c1-2-3-4-5-6-7-8-9-10-11-12-13(15)14(16)17/h13,15H,2-12H2,1H3,(H,16,17)",
        "InChIKey": null,
        "Canonical SMILES": "O=C(O)C(O)CCCCCCCCCCCC",
        "Molecular Formula": "C<sub>14</sub>H<sub>28</sub>O<sub>3</sub>",
        "Molecular Mass": "244.37",
        "Melting Point": "88.2 °C"
    }
}