{
    "cas_no": "101328-85-2",
    "key_name": "(5<em>R</em>)-6-(4-Aminophenyl)-4,5-dihydro-5-methyl-3(2<em>H</em>)-pyridazinone",
    "cn_name": "(R)-6-(4-氨基苯基)-4,5-二氢-5-甲基-3(2H)-哒嗪酮;",
    "alternate_name": "3(2<em>H</em>)-Pyridazinone, 6-(4-aminophenyl)-4,5-dihydro-5-methyl-, (5<em>R</em>)-;3(2<em>H</em>)-Pyridazinone, 6-(4-aminophenyl)-4,5-dihydro-5-methyl-, (<em>R</em>)-;(5<em>R</em>)-6-(4-Aminophenyl)-4,5-dihydro-5-methyl-3(2<em>H</em>)-pyridazinone;OR 1855;(R)-6-(4-Aminophenyl)-5-methyl-4,5-dihydropyridazin-3(2<em>H</em>)-one;(5R)-6-(4-Aminophenyl)-5-methyl-2,3,4,5-tetrahydropyridazin-3-one;(R)-6-(4-Aminophenyl)-4,5-dihydro-5-methyl-3(2<em>H</em>)-pyridazinone;(4R)-3-(4-Aminophenyl)-4-methyl-4,5-dihydro-1<em>H</em>-pyridazin-6-one",
    "duplicated_cas_no": "405554-97-4",
    "SMILES": "C[C@H]1C(C2=CC=C(N)C=C2)=NNC(=O)C1",
    "meta_data": {
        "InChI": "InChI=1S/C11H13N3O/c1-7-6-10(15)13-14-11(7)8-2-4-9(12)5-3-8/h2-5,7H,6,12H2,1H3,(H,13,15)/t7-/m1/s1",
        "InChIKey": null,
        "Canonical SMILES": "O=C1NN=C(C=2C=CC(N)=CC2)C(C)C1",
        "Molecular Formula": "C<sub>11</sub>H<sub>13</sub>N<sub>3</sub>O",
        "Molecular Mass": "203.24",
        "Melting Point": "201 °C"
    }
}