{
    "cas_no": "33725-74-5",
    "key_name": "Tetrabutylammonium borohydride",
    "cn_name": "四丁基硼氢化铵;",
    "alternate_name": "1-Butanaminium, <em>N</em>,<em>N</em>,<em>N</em>-tributyl-, tetrahydroborate(1-) (1:1);1-Butanaminium, <em>N</em>,<em>N</em>,<em>N</em>-tributyl-, tetrahydroborate(1-);Ammonium, tetrabutyl-, tetrahydroborate(1-);Borate(1-), tetrahydro-, <em>N</em>,<em>N</em>,<em>N</em>-tributyl-1-butanaminium;Tetrabutylammonium tetrahydroborate;Tetrabutylammonium tetrahydroborate(1-);Tetrabutylammonium borohydride",
    "duplicated_cas_no": "",
    "SMILES": "[B+3]([H-])([H-])([H-])[H-].[N+](CCCC)(CCCC)(CCCC)CCCC",
    "meta_data": {
        "InChI": "InChI=1S/C16H36N.BH4/c1-5-9-13-17(14-10-6-2,15-11-7-3)16-12-8-4;/h5-16H2,1-4H3;1H4/q+1;-1",
        "InChIKey": null,
        "Canonical SMILES": "[H-][B+3]([H-])([H-])[H-].CCCC[N+](CCCC)(CCCC)CCCC",
        "Molecular Formula": "C<sub>16</sub>H<sub>36</sub>N.BH<sub>4</sub>",
        "Molecular Mass": "",
        "Melting Point": "125-127 °C"
    }
}