{
    "cas_no": "2812-32-0",
    "key_name": "<em>N</em>,<em>N</em>-Dimethyl-<span class=\"text-smallcaps\">L</span>-valine",
    "cn_name": null,
    "alternate_name": "<span class=\"text-smallcaps\">L</span>-Valine, <em>N</em>,<em>N</em>-dimethyl-;Valine, <em>N</em>,<em>N</em>-dimethyl-, <span class=\"text-smallcaps\">L</span>-;Valine, <em>N</em>,<em>N</em>-dimethyl-;<em>N</em>,<em>N</em>-Dimethyl-<span class=\"text-smallcaps\">L</span>-valine;(2S)-2-(Dimethylazaniumyl)-3-methylbutanoate;(2S)-2-(Dimethylamino)-3-methylbutanoic acid",
    "duplicated_cas_no": "",
    "SMILES": "[C@H](C(C)C)(C(O)=O)N(C)C",
    "meta_data": {
        "InChI": "InChI=1S/C7H15NO2/c1-5(2)6(7(9)10)8(3)4/h5-6H,1-4H3,(H,9,10)/t6-/m0/s1",
        "InChIKey": null,
        "Canonical SMILES": "O=C(O)C(N(C)C)C(C)C",
        "Molecular Formula": "C<sub>7</sub>H<sub>15</sub>NO<sub>2</sub>",
        "Molecular Mass": "145.20",
        "Melting Point": "154 °C"
    }
}