{
    "cas_no": "122-52-1",
    "key_name": "Triethyl phosphite",
    "cn_name": "亚磷酸三乙酯;",
    "alternate_name": "Phosphorous acid, triethyl ester;Ethyl phosphite, (EtO)<sub>3</sub>P;Ethyl phosphite, Et<sub>3</sub>PO<sub>3</sub>;Tris(ethoxy)phosphine;Triethoxyphosphine;Triethyl phosphite;NSC 5284",
    "duplicated_cas_no": "",
    "SMILES": "P(OCC)(OCC)OCC",
    "meta_data": {
        "InChI": "InChI=1S/C6H15O3P/c1-4-7-10(8-5-2)9-6-3/h4-6H2,1-3H3",
        "InChIKey": null,
        "Canonical SMILES": "O(P(OCC)OCC)CC",
        "Molecular Formula": "C<sub>6</sub>H<sub>15</sub>O<sub>3</sub>P",
        "Molecular Mass": "166.16",
        "Boiling Point": "157.9 °C",
        "Melting Point": "-112 °C",
        "Density": "0.9629 g/cm³ @ Temp: 20 °C"
    }
}