{
    "cas_no": "133331-77-8",
    "key_name": "Perfluorohexyloctane",
    "cn_name": null,
    "alternate_name": "Tetradecane, 1,1,1,2,2,3,3,4,4,5,5,6,6-tridecafluoro-;1,1,1,2,2,3,3,4,4,5,5,6,6-Tridecafluorotetradecane;Perfluorohexyloctane;F 6H8;8-(Perfluorohexyl)octane;1-(Perfluorohexyl)octane;NOV03;NOV 03;Miebo",
    "duplicated_cas_no": "1242073-90-0",
    "SMILES": "C(C(C(C(F)(F)F)(F)F)(F)F)(C(C(CCCCCCCC)(F)F)(F)F)(F)F",
    "meta_data": {
        "InChI": "InChI=1S/C14H17F13/c1-2-3-4-5-6-7-8-9(15,16)10(17,18)11(19,20)12(21,22)13(23,24)14(25,26)27/h2-8H2,1H3",
        "InChIKey": null,
        "Canonical SMILES": "FC(F)(F)C(F)(F)C(F)(F)C(F)(F)C(F)(F)C(F)(F)CCCCCCCC",
        "Molecular Formula": "C<sub>14</sub>H<sub>17</sub>F<sub>13</sub>",
        "Molecular Mass": "432.26",
        "Boiling Point": "223 °C",
        "Melting Point": "-5.2 °C",
        "Density": "1.331 g/cm³ @ Temp: 25 °C"
    }
}