{
    "cas_no": "21535-47-7",
    "key_name": "Mianserin hydrochloride",
    "cn_name": "盐酸米安色林;1,2,3,4,10,14b-六氢-2-甲基二苯并[c,f]吡嗪并[1,2-a]氮杂卓盐酸盐;",
    "alternate_name": "Dibenzo[<em>c</em>,<em>f</em>]pyrazino[1,2-<em>a</em>]azepine, 1,2,3,4,10,14b-hexahydro-2-methyl-, hydrochloride (1:1);Dibenzo[<em>c</em>,<em>f</em>]pyrazino[1,2-<em>a</em>]azepine, 1,2,3,4,10,14b-hexahydro-2-methyl-, monohydrochloride;Mianserin hydrochloride;Tolvon;GB 94;Mianserine hydrochloride;Org GB 94;Toluon;Bolvidon;Athymil;Tetramide;Tolvin;Lantanon;Norval;NSC 292267;2-Methyl-1,2,3,4,10,14b-hexahydrodibenzo[<em>c</em>,<em>f</em>]pyrazino[1,2-<em>a</em>]azepine hydrochloride",
    "duplicated_cas_no": "78644-54-9",
    "SMILES": "CN1CC2N(C=3C(CC=4C2=CC=CC4)=CC=CC3)CC1.Cl",
    "meta_data": {
        "InChI": "InChI=1S/C18H20N2.ClH/c1-19-10-11-20-17-9-5-3-7-15(17)12-14-6-2-4-8-16(14)18(20)13-19;/h2-9,18H,10-13H2,1H3;1H",
        "InChIKey": null,
        "Canonical SMILES": "Cl.C=1C=CC2=C(C1)N3CCN(C)CC3C=4C=CC=CC4C2",
        "Molecular Formula": "C<sub>18</sub>H<sub>20</sub>N<sub>2</sub>.ClH",
        "Molecular Mass": "",
        "Melting Point": "282-284 °C"
    }
}