{
    "cas_no": "995-32-4",
    "key_name": "Tetraethyl ethylenediphosphonate",
    "cn_name": "亚乙基二磷酸四乙酯;亚乙基二磷酸四乙酯;",
    "alternate_name": "Phosphonic acid, <em>P</em>,<em>P</em>′-1,2-ethanediylbis-, <em>P</em>,<em>P</em>,<em>P</em>′,<em>P</em>′-tetraethyl ester;Phosphonic acid, ethylenedi-, tetraethyl ester;Phosphonic acid, 1,2-ethanediylbis-, tetraethyl ester;Tetraethyl ethylenebis(phosphonate);Tetraethyl ethylenediphosphonate;Ethane-1,2-diphosphonic acid tetraethyl ester;1,2-Bis(diethoxyphosphinyl)ethane;1,2-Ethylenediphosphonic acid tetraethyl ester;1,2-Bis(diethylphosphonyl)ethane;1,2-Bis(diethoxyphosphoryl)ethane",
    "duplicated_cas_no": "",
    "SMILES": "P(CCP(OCC)(OCC)=O)(OCC)(OCC)=O",
    "meta_data": {
        "InChI": "InChI=1S/C10H24O6P2/c1-5-13-17(11,14-6-2)9-10-18(12,15-7-3)16-8-4/h5-10H2,1-4H3",
        "InChIKey": null,
        "Canonical SMILES": "O=P(OCC)(OCC)CCP(=O)(OCC)OCC",
        "Molecular Formula": "C<sub>10</sub>H<sub>24</sub>O<sub>6</sub>P<sub>2</sub>",
        "Molecular Mass": "302.24",
        "Boiling Point": "167 °C @ Press: 1 Torr",
        "Density": "1.1376 g/cm³ @ Temp: 20 °C"
    }
}