{
    "cas_no": "123-03-5",
    "key_name": "Cetylpyridinium chloride",
    "cn_name": "西吡氯铵;氯化十六烷基吡啶;",
    "alternate_name": "Pyridinium, 1-hexadecyl-, chloride (1:1);1-Hexadecylpyridinium chloride;Pyridinium, 1-hexadecyl-, chloride;Cepacol chloride;Cetamium;<em>N</em>-Cetylpyridinium chloride;Cetylpyridinium chloride;<em>n</em>-Hexadecylpyridinium chloride;Hexadecylpyridinium chloride;Pyrisept;Ammonyx CPC;Ceprim;Aktivex;Biosept;1-Cetylpyridinium chloride;Quaternario CPC;Acetoquat CPC;Intexsan CPC;Ceepryn chloride;Pristacin;1-Palmitylpyridinium chloride;Cetafilm;CPC;Merocet;Merothol;Ipanol;1-<em>n</em>-Hexadecanepyridinium chloride;Newkalgen B 651P;Pionin B 651P;CPC (onium compound);Dobendan;Cepacol;Medilave;Cecure;Halset;NB 401;NB 002;TsPKh;NB 003;Septolete;<em>N</em>-Cetylpyridium chloride;Ronacare CPC;C 9002",
    "duplicated_cas_no": "27841-61-8;50958-35-5;136499-13-3;951742-58-8;2266591-56-2;2745197-72-0",
    "SMILES": "C(CCCCCCCCCCCCCCC)[N+]=1C=CC=CC1.[Cl-]",
    "meta_data": {
        "InChI": "InChI=1S/C21H38N.ClH/c1-2-3-4-5-6-7-8-9-10-11-12-13-14-16-19-22-20-17-15-18-21-22;/h15,17-18,20-21H,2-14,16,19H2,1H3;1H/q+1;/p-1",
        "InChIKey": null,
        "Canonical SMILES": "[Cl-].C=1C=C[N+](=CC1)CCCCCCCCCCCCCCCC",
        "Molecular Formula": "C<sub>21</sub>H<sub>38</sub>N.Cl",
        "Molecular Mass": "",
        "Melting Point": "80 °C",
        "Density": "0.83 g/cm³"
    }
}