{
    "cas_no": "3846-71-7",
    "key_name": "2-(2′-Hydroxy-3′5-di-<em>tert</em>-butylphenyl) benzotriazole",
    "cn_name": "2-(2\"-羟基-3\",5\"-二叔丁基苯基)-苯并三唑;紫外线吸收剂UV-320;",
    "alternate_name": "Phenol, 2-(2<em>H</em>-benzotriazol-2-yl)-4,6-bis(1,1-dimethylethyl)-;Phenol, 2-(2<em>H</em>-benzotriazol-2-yl)-4,6-di-<em>tert</em>-butyl-;2-(2<em>H</em>-Benzotriazol-2-yl)-4,6-bis(1,1-dimethylethyl)phenol;Tinuvin 320;2-(2′-Hydroxy-3′,5′-di-<em>tert</em>-butylphenyl)benzotriazole;2-(2-Hydroxy-3,5-di-<em>tert</em>-butylphenyl)benzotriazole;2-(2-Benzotriazolyl)-4,6-di-<em>tert</em>-butylphenol;2-(3,5-Di-<em>tert</em>-butyl-2-hydroxyphenyl)benzotriazole;2-(3,5-Di-<em>tert</em>-butyl-2-hydroxyphenyl)-2<em>H</em>-benzotriazole;Sumisorb 320;Viosorb 582;Kemisorb 75;Seesorb 705;2-(3′,5′-Di-<em>tert</em>-butyl-2′-hydroxyphenyl)benzotriazole;Eversorb 77;2-(2-Hydroxy-3,5-di-<em>tert</em>-butylphenyl)-2<em>H</em>-benzotriazole;2-(2′-Hydroxy-3′,5′-di-<em>t</em>-butylphenyl)benzotriazole;2-(2′-Hydroxy-3′5-di-<em>tert</em>-butylphenyl) benzotriazole;UV 320;Chisorb 320;2-(2<em>H</em>-Benzo[<em>d</em>][1,2,3]triazol-2-yl)-4,6-di-<em>tert</em>-butylphenol;2-(Benzotriazol-2-yl)-4,6-ditert-butylphenol;2-(2′-Hydroxy-3′,5′-di-<em>tert</em>-butylphenyl)-2<em>H</em>-benzotriazole;UVABZT 326",
    "duplicated_cas_no": "3135-21-5;29820-26-6;104817-17-6;131242-54-1;134512-21-3;189377-88-6;208761-49-3;420135-91-7;474264-63-6;796971-92-1;1357193-40-8",
    "SMILES": "OC1=C(C=C(C(C)(C)C)C=C1C(C)(C)C)N2N=C3C(=N2)C=CC=C3",
    "meta_data": {
        "InChI": "InChI=1S/C20H25N3O/c1-19(2,3)13-11-14(20(4,5)6)18(24)17(12-13)23-21-15-9-7-8-10-16(15)22-23/h7-12,24H,1-6H3",
        "InChIKey": null,
        "Canonical SMILES": "OC=1C(=CC(=CC1C(C)(C)C)C(C)(C)C)N2N=C3C=CC=CC3=N2",
        "Molecular Formula": "C<sub>20</sub>H<sub>25</sub>N<sub>3</sub>O",
        "Molecular Mass": "323.43",
        "Melting Point": "148.5-149.6 °C"
    }
}