{
    "cas_no": "1498-96-0",
    "key_name": "4-Butoxybenzoic acid",
    "cn_name": "对丁氧基苯甲酸;4-丁氧基苯甲酸;对丁氧基苯甲酸;4-N-丁氧基苯甲酸;4-正丁氧基苯甲酸;4-正丁氧基苯甲酸,98%;",
    "alternate_name": "Benzoic acid, 4-butoxy-;Benzoic acid, <em>p</em>-butoxy-;4-Butoxybenzoic acid;<em>p</em>-Butoxybenzoic acid;<em>p</em>-(Butyloxy)benzoic acid;<em>p</em>-(<em>n</em>-Butyloxy)benzoic acid;<em>p</em>-(<em>n</em>-Butoxy)benzoic acid;4-(Butyloxy)benzoic acid;4-(<em>n</em>-Butoxy)benzoic acid;NSC 60247",
    "duplicated_cas_no": "",
    "SMILES": "O(CCCC)C1=CC=C(C(O)=O)C=C1",
    "meta_data": {
        "InChI": "InChI=1S/C11H14O3/c1-2-3-8-14-10-6-4-9(5-7-10)11(12)13/h4-7H,2-3,8H2,1H3,(H,12,13)",
        "InChIKey": null,
        "Canonical SMILES": "O=C(O)C1=CC=C(OCCCC)C=C1",
        "Molecular Formula": "C<sub>11</sub>H<sub>14</sub>O<sub>3</sub>",
        "Molecular Mass": "194.23",
        "Melting Point": "147-150 °C",
        "Density": "1.15 g/cm³ (crystalline)"
    }
}