{
    "cas_no": "36404-30-5",
    "key_name": "1,2-Dichloro-4-methoxybenzene",
    "cn_name": "3,4-二氯苯甲醚;",
    "alternate_name": "Benzene, 1,2-dichloro-4-methoxy-;1,2-Dichloro-4-methoxybenzene;3,4-Dichloroanisole;3,4-Dichloromethoxybenzene;4,5-Dichlorophenyl methyl ether",
    "duplicated_cas_no": "",
    "SMILES": "O(C)C1=CC(Cl)=C(Cl)C=C1",
    "meta_data": {
        "InChI": "InChI=1S/C7H6Cl2O/c1-10-5-2-3-6(8)7(9)4-5/h2-4H,1H3",
        "InChIKey": null,
        "Canonical SMILES": "ClC1=CC=C(OC)C=C1Cl",
        "Molecular Formula": "C<sub>7</sub>H<sub>6</sub>Cl<sub>2</sub>O",
        "Molecular Mass": "177.03",
        "Boiling Point": "200-204 °C",
        "Melting Point": "206 °C"
    }
}