{
    "cas_no": "3820-67-5",
    "key_name": "Glafenine",
    "cn_name": null,
    "alternate_name": "Benzoic acid, 2-[(7-chloro-4-quinolinyl)amino]-, 2,3-dihydroxypropyl ester;Anthranilic acid, <em>N</em>-(7-chloro-4-quinolyl)-, 2,3-dihydroxypropyl ester;Glycerol, 1-[<em>N</em>-(7-chloro-4-quinolyl)anthranilate];R 1707;4-[2-(β,γ-Dihydroxypropoxycarbonyl)phenylamino]-7-chloroquinoline;2,3-Dihydroxypropyl <em>N</em>-(7-chloro-4-quinolyl)anthranilate;Glaphenine;Glifanan;Glycerylaminophenaquine;Glafenine;Glaphenin;2,3-Dihydroxypropyl-<em>N</em>-(7-chloro-4-quinolinyl)anthranilate;<em>N</em>-(7-Chloro-4-quinolyl)anthranilic acid 2,3-dihydroxypropyl ester;4-[(2-Carboxyphenyl)amino]-7-chloroquinoline α-monoglyceride;2-[(7-Chloro-4-quinolyl)amino]benzoic acid α-glyceride;Glifan;Alcidon;Dolomate;Glafenin;Glicafan;Glifanar;Privadol;2,3-Dihydroxypropyl 2-((7-chloroquinolin-4-yl)amino)benzoate",
    "duplicated_cas_no": "",
    "SMILES": "N(C=1C2=C(N=CC1)C=C(Cl)C=C2)C3=C(C(OCC(CO)O)=O)C=CC=C3",
    "meta_data": {
        "InChI": "InChI=1S/C19H17ClN2O4/c20-12-5-6-14-17(7-8-21-18(14)9-12)22-16-4-2-1-3-15(16)19(25)26-11-13(24)10-23/h1-9,13,23-24H,10-11H2,(H,21,22)",
        "InChIKey": null,
        "Canonical SMILES": "O=C(OCC(O)CO)C=1C=CC=CC1NC=2C=CN=C3C=C(Cl)C=CC32",
        "Molecular Formula": "C<sub>19</sub>H<sub>17</sub>ClN<sub>2</sub>O<sub>4</sub>",
        "Molecular Mass": "372.80",
        "Melting Point": "169.5 °C"
    }
}