{
    "cas_no": "4143-74-2",
    "key_name": "4′-Methoxyflavone",
    "cn_name": "4--甲氧基黄酮;4--甲氧基黄酮;",
    "alternate_name": "4<em>H</em>-1-Benzopyran-4-one, 2-(4-methoxyphenyl)-;Flavone, 4′-methoxy-;2-(4-Methoxyphenyl)-4<em>H</em>-1-benzopyran-4-one;4′-Methoxyflavone;2-(4-Methoxyphenyl)chromone;2-(4-Methoxyphenyl)-4<em>H</em>-chromen-4-one;2-(4-Methoxyphenyl)chromen-4-one",
    "duplicated_cas_no": "",
    "SMILES": "O=C1C=C(OC=2C1=CC=CC2)C3=CC=C(OC)C=C3",
    "meta_data": {
        "InChI": "InChI=1S/C16H12O3/c1-18-12-8-6-11(7-9-12)16-10-14(17)13-4-2-3-5-15(13)19-16/h2-10H,1H3",
        "InChIKey": null,
        "Canonical SMILES": "O=C1C=C(OC=2C=CC=CC12)C=3C=CC(OC)=CC3",
        "Molecular Formula": "C<sub>16</sub>H<sub>12</sub>O<sub>3</sub>",
        "Molecular Mass": "252.26",
        "Melting Point": "157-158 °C"
    }
}