{
    "cas_no": "33237-74-0",
    "key_name": "1,3-Propanediamine, <em>N</em><sup>1</sup>-(2,3-dihydro-1<em>H</em>-inden-2-yl)-<em>N</em><sup>3</sup>,<em>N</em><sup>3</sup>-diethyl-<em>N</em><sup>1</sup>-phenyl-, hydrochloride (1:1)",
    "cn_name": null,
    "alternate_name": "1,3-Propanediamine, <em>N</em><sup>1</sup>-(2,3-dihydro-1<em>H</em>-inden-2-yl)-<em>N</em><sup>3</sup>,<em>N</em><sup>3</sup>-diethyl-<em>N</em><sup>1</sup>-phenyl-, hydrochloride (1:1);1,3-Propanediamine, <em>N</em>,<em>N</em>-diethyl-<em>N</em>′-2-indanyl-<em>N</em>′-phenyl-, monohydrochloride;1,3-Propanediamine, <em>N</em>-(2,3-dihydro-1<em>H</em>-inden-2-yl)-<em>N</em>′,<em>N</em>′-diethyl-<em>N</em>-phenyl-, monohydrochloride;Aprindine hydrochloride;Fiboran;MS 5075;Aspenon;Amidonal;Compd 83846;Fibocil;Ritmusin;NSC 284614",
    "duplicated_cas_no": "41363-19-3",
    "SMILES": "N(CCCN(CC)CC)(C1CC=2C(C1)=CC=CC2)C3=CC=CC=C3.Cl",
    "meta_data": {
        "InChI": "InChI=1S/C22H30N2.ClH/c1-3-23(4-2)15-10-16-24(21-13-6-5-7-14-21)22-17-19-11-8-9-12-20(19)18-22;/h5-9,11-14,22H,3-4,10,15-18H2,1-2H3;1H",
        "InChIKey": null,
        "Canonical SMILES": "Cl.C=1C=CC(=CC1)N(CCCN(CC)CC)C2CC=3C=CC=CC3C2",
        "Molecular Formula": "C<sub>22</sub>H<sub>30</sub>N<sub>2</sub>.ClH",
        "Molecular Mass": "",
        "Melting Point": "120-121 °C"
    }
}