{
    "cas_no": "672-13-9",
    "key_name": "2-Hydroxy-5-methoxybenzaldehyde",
    "cn_name": "2-羟基-5-甲氧基苯甲醛;",
    "alternate_name": "Benzaldehyde, 2-hydroxy-5-methoxy-;<em>m</em>-Anisaldehyde, 6-hydroxy-;2-Hydroxy-5-methoxybenzaldehyde;5-Methoxysalicylaldehyde;2-Formyl-4-methoxyphenol;5-Methoxy-2-hydroxybenzaldehyde;4-Hydroxy-3-formylanisole;NSC 30116;3-Methoxy-6-hydroxybenzaldehyde",
    "duplicated_cas_no": "1489217-07-3",
    "SMILES": "C(=O)C1=CC(OC)=CC=C1O",
    "meta_data": {
        "InChI": "InChI=1S/C8H8O3/c1-11-7-2-3-8(10)6(4-7)5-9/h2-5,10H,1H3",
        "InChIKey": null,
        "Canonical SMILES": "O=CC1=CC(OC)=CC=C1O",
        "Molecular Formula": "C<sub>8</sub>H<sub>8</sub>O<sub>3</sub>",
        "Molecular Mass": "152.15",
        "Boiling Point": "247.5 °C",
        "Melting Point": "4 °C"
    }
}