{
    "cas_no": "434-75-3",
    "key_name": "2-Chloro-6-fluorobenzoic acid",
    "cn_name": "2-氯-6-氟苯甲酸;",
    "alternate_name": "Benzoic acid, 2-chloro-6-fluoro-;2-Chloro-6-fluorobenzoic acid;NSC 190689;6-Chloro-2-fluorobenzoic acid",
    "duplicated_cas_no": "",
    "SMILES": "C(O)(=O)C1=C(Cl)C=CC=C1F",
    "meta_data": {
        "InChI": "InChI=1S/C7H4ClFO2/c8-4-2-1-3-5(9)6(4)7(10)11/h1-3H,(H,10,11)",
        "InChIKey": null,
        "Canonical SMILES": "O=C(O)C=1C(F)=CC=CC1Cl",
        "Molecular Formula": "C<sub>7</sub>H<sub>4</sub>ClFO<sub>2</sub>",
        "Molecular Mass": "174.56",
        "Melting Point": "160 °C"
    }
}