{
    "cas_no": "13825-76-8",
    "key_name": "Holmium bromide (HoBr<sub>3</sub>)",
    "cn_name": "溴化钬(III);溴化钬(III)水合物;",
    "alternate_name": "Holmium bromide (HoBr<sub>3</sub>);Holmium tribromide;Holmium bromide",
    "duplicated_cas_no": "",
    "SMILES": "[Ho](Br)(Br)Br",
    "meta_data": {
        "InChI": "InChI=1S/3BrH.Ho/h3*1H;/q;;;+3/p-3",
        "InChIKey": null,
        "Canonical SMILES": "Br[Ho](Br)Br",
        "Molecular Formula": "Br<sub>3</sub>Ho",
        "Molecular Mass": "",
        "Melting Point": "914 °C"
    }
}