{
    "cas_no": "92-02-4",
    "key_name": "<em>N</em>-[3-[Bis(2-hydroxyethyl)amino]phenyl]acetamide",
    "cn_name": "3-(N,N-二羟乙基)氨基乙酰苯胺;",
    "alternate_name": "Acetamide, <em>N</em>-[3-[bis(2-hydroxyethyl)amino]phenyl]-;Acetanilide, 3′-[bis(2-hydroxyethyl)amino]-;<em>N</em>-[3-[Bis(2-hydroxyethyl)amino]phenyl]acetamide;3′-[Bis(2-hydroxyethyl)amino]acetanilide;3-Acetylamino-<em>N</em>,<em>N</em>-di(β-hydroxyethyl)aniline;<em>m</em>-[Bis(2-hydroxyethyl)amino]acetanilide;<em>N</em>,<em>N</em>-Bis(β-hydroxyethyl)-<em>m</em>-(acetylamino)aniline;3-Acetamido-<em>N</em>,<em>N</em>-bis(2-hydroxyethyl)aniline;3-(Acetylamino)-<em>N</em>,<em>N</em>-bis(2-hydroxyethyl)aniline;<em>m</em>-Acetamido-<em>N</em>,<em>N</em>-bis(2-hydroxyethyl)aniline",
    "duplicated_cas_no": "",
    "SMILES": "N(CCO)(CCO)C1=CC(NC(C)=O)=CC=C1",
    "meta_data": {
        "InChI": "InChI=1S/C12H18N2O3/c1-10(17)13-11-3-2-4-12(9-11)14(5-7-15)6-8-16/h2-4,9,15-16H,5-8H2,1H3,(H,13,17)",
        "InChIKey": null,
        "Canonical SMILES": "O=C(NC1=CC=CC(=C1)N(CCO)CCO)C",
        "Molecular Formula": "C<sub>12</sub>H<sub>18</sub>N<sub>2</sub>O<sub>3</sub>",
        "Molecular Mass": "238.28",
        "Melting Point": "116 °C"
    }
}