{
    "cas_no": "23761-24-2",
    "key_name": "3-Bromocyclobutanone",
    "cn_name": null,
    "alternate_name": "Cyclobutanone, 3-bromo-;3-Bromocyclobutanone;3-Bromocyclobutan-1-one",
    "duplicated_cas_no": "",
    "SMILES": "BrC1CC(=O)C1",
    "meta_data": {
        "InChI": "InChI=1S/C4H5BrO/c5-3-1-4(6)2-3/h3H,1-2H2",
        "InChIKey": null,
        "Canonical SMILES": "O=C1CC(Br)C1",
        "Molecular Formula": "C<sub>4</sub>H<sub>5</sub>BrO",
        "Molecular Mass": "148.99",
        "Boiling Point": "29 °C @ Press: 1.8 Torr"
    }
}