{
    "cas_no": "56077-28-2",
    "key_name": "2-Bromo-1-cyclohexylethanone",
    "cn_name": null,
    "alternate_name": "Ethanone, 2-bromo-1-cyclohexyl-;Ketone, bromomethyl cyclohexyl;2-Bromo-1-cyclohexylethanone;Bromomethyl cyclohexyl ketone;Cyclohexyl bromomethyl ketone;(Bromoacetyl)cyclohexane;1-Bromo-2-cyclohexylethan-2-one;2-Bromo-1-cyclohexylethan-1-one",
    "duplicated_cas_no": "",
    "SMILES": "C(CBr)(=O)C1CCCCC1",
    "meta_data": {
        "InChI": "InChI=1S/C8H13BrO/c9-6-8(10)7-4-2-1-3-5-7/h7H,1-6H2",
        "InChIKey": null,
        "Canonical SMILES": "O=C(CBr)C1CCCCC1",
        "Molecular Formula": "C<sub>8</sub>H<sub>13</sub>BrO",
        "Molecular Mass": "205.09",
        "Boiling Point": "124-125 °C @ Press: 25 Torr",
        "Melting Point": "-3.5-2 °C",
        "Density": "1.3616 g/cm³ @ Temp: 12 °C"
    }
}