{
    "cas_no": "33632-27-8",
    "key_name": "1-Acetyl-5-nitroindoline",
    "cn_name": "1-乙酰-5-硝基吲哚啉;1-乙酰基-5-硝基二氢吲哚;1-乙酰-5-硝基二氢吲哚;1-乙酰-5-硝基吲哚啉;",
    "alternate_name": "Ethanone, 1-(2,3-dihydro-5-nitro-1<em>H</em>-indol-1-yl)-;Indoline, 1-acetyl-5-nitro-;1<em>H</em>-Indole, 1-acetyl-2,3-dihydro-5-nitro-;1-(2,3-Dihydro-5-nitro-1<em>H</em>-indol-1-yl)ethanone;1-Acetyl-5-nitroindoline;<em>N</em>-Acetyl-5-nitroindoline;NSC 87626;1-(5-Nitroindolin-1-yl)ethanone;1-(5-Nitro-2,3-dihydro-1<em>H</em>-indol-1-yl)ethan-1-one;1-(5-Nitro-2,3-dihydroindol-1-yl)ethanone",
    "duplicated_cas_no": "",
    "SMILES": "C(C)(=O)N1C=2C(=CC(N(=O)=O)=CC2)CC1",
    "meta_data": {
        "InChI": "InChI=1S/C10H10N2O3/c1-7(13)11-5-4-8-6-9(12(14)15)2-3-10(8)11/h2-3,6H,4-5H2,1H3",
        "InChIKey": null,
        "Canonical SMILES": "O=C(N1C2=CC=C(C=C2CC1)N(=O)=O)C",
        "Molecular Formula": "C<sub>10</sub>H<sub>10</sub>N<sub>2</sub>O<sub>3</sub>",
        "Molecular Mass": "206.20",
        "Melting Point": "173.5-175.5 °C"
    }
}