{
    "cas_no": "1979-98-2",
    "key_name": "4,6-Dihydroxy-2-(methylthio)pyrimidine",
    "cn_name": "4,6-二羟基-2-甲巯基嘧啶;",
    "alternate_name": "4(3<em>H</em>)-Pyrimidinone, 6-hydroxy-2-(methylthio)-;4(1<em>H</em>)-Pyrimidinone, 6-hydroxy-2-(methylthio)-;4,6-Pyrimidinediol, 2-(methylthio)-;6-Hydroxy-2-(methylthio)-4(3<em>H</em>)-pyrimidinone;2-(Methylthio)-4,6-dihydroxypyrimidine;4,6-Dihydroxy-2-(methylmercapto)pyrimidine;4,6-Dihydroxy-2-(methylthio)pyrimidine;2-Methylsulfanylpyrimidine-4,6-diol;NSC 44557;6-Hydroxy-2-(methylthio)-4-pyrimidinone;6-Hydroxy-2-(methylthio)-4(1<em>H</em>)-pyrimidinone;2-Methylthiopyrimidine-4,6-diol;2-Methylmercapto-4,6-dihydroxypyrimidine",
    "duplicated_cas_no": "",
    "SMILES": "S(C)C=1NC(=O)C=C(O)N1",
    "meta_data": {
        "InChI": "InChI=1S/C5H6N2O2S/c1-10-5-6-3(8)2-4(9)7-5/h2H,1H3,(H2,6,7,8,9)",
        "InChIKey": null,
        "Canonical SMILES": "O=C1C=C(O)N=C(SC)N1",
        "Molecular Formula": "C<sub>5</sub>H<sub>6</sub>N<sub>2</sub>O<sub>2</sub>S",
        "Molecular Mass": "158.18",
        "Melting Point": "&lt;300 °C"
    }
}