{
    "cas_no": "272-14-0",
    "key_name": "Thieno[3,2-<em>c</em>]pyridine",
    "cn_name": null,
    "alternate_name": "Thieno[3,2-<em>c</em>]pyridine;5-Azathianaphthene",
    "duplicated_cas_no": "",
    "SMILES": "C1=2C(SC=C1)=CC=NC2",
    "meta_data": {
        "InChI": "InChI=1S/C7H5NS/c1-3-8-5-6-2-4-9-7(1)6/h1-5H",
        "InChIKey": null,
        "Canonical SMILES": "N=1C=CC=2SC=CC2C1",
        "Molecular Formula": "C<sub>7</sub>H<sub>5</sub>NS",
        "Molecular Mass": "135.19",
        "Melting Point": "42-43 °C"
    }
}