{
    "cas_no": "5396-61-2",
    "key_name": "3-Ethyl-1-heptyn-3-ol",
    "cn_name": "3-乙基-1-庚炔-3-醇;3-乙基-1-庚炔-3-醇;",
    "alternate_name": "1-Heptyn-3-ol, 3-ethyl-;3-Ethyl-1-heptyn-3-ol;NSC 4328",
    "duplicated_cas_no": "",
    "SMILES": "C(CCCC)(CC)(C#C)O",
    "meta_data": {
        "InChI": "InChI=1S/C9H16O/c1-4-7-8-9(10,5-2)6-3/h2,10H,4,6-8H2,1,3H3",
        "InChIKey": null,
        "Canonical SMILES": "C#CC(O)(CC)CCCC",
        "Molecular Formula": "C<sub>9</sub>H<sub>16</sub>O",
        "Molecular Mass": "140.22",
        "Boiling Point": "87-94 °C @ Press: 30 Torr"
    }
}