{
    "cas_no": "2129-89-7",
    "key_name": "Methyldiphenylphosphine oxide",
    "cn_name": "甲基二苯基氧膦;甲基二苯基氧化膦;",
    "alternate_name": "Phosphine oxide, methyldiphenyl-;Methyldiphenylphosphine oxide;Diphenylmethylphosphine oxide;NSC 407134;Methyldiphenyloxophosphine",
    "duplicated_cas_no": "",
    "SMILES": "P(C)(=O)(C1=CC=CC=C1)C2=CC=CC=C2",
    "meta_data": {
        "InChI": "InChI=1S/C13H13OP/c1-15(14,12-8-4-2-5-9-12)13-10-6-3-7-11-13/h2-11H,1H3",
        "InChIKey": null,
        "Canonical SMILES": "O=P(C=1C=CC=CC1)(C=2C=CC=CC2)C",
        "Molecular Formula": "C<sub>13</sub>H<sub>13</sub>OP",
        "Molecular Mass": "216.22",
        "Boiling Point": "151-152 °C @ Press: 10 Torr",
        "Melting Point": "109-110 °C"
    }
}