{
    "cas_no": "83130-01-2",
    "key_name": "Alanycarb",
    "cn_name": null,
    "alternate_name": "8-Oxa-5,11-dithia-4,6,9-triazadodec-9-enoic acid, 6,10-dimethyl-7-oxo-4-(phenylmethyl)-, ethyl ester, (9<em>Z</em>)-;5-Oxa-2,8-dithia-4,7,9-triazadodec-3-en-12-oic acid, 3,7-dimethyl-6-oxo-9-(phenylmethyl)-, ethyl ester, (<em>Z</em>)-;5-Oxa-2,8-dithia-4,7,9-triazadodec-3-en-12-oic acid, 3,7-dimethyl-6-oxo-9-(phenylmethyl)-, ethyl ester, (3<em>Z</em>)-;OK 135;Alanycarb;Alanicarb;Orion;Orion (insecticide)",
    "duplicated_cas_no": "103736-67-0",
    "SMILES": "N(CC1=CC=CC=C1)(SN(C(O/N=C(\\SC)/C)=O)C)CCC(OCC)=O",
    "meta_data": {
        "InChI": "InChI=1S/C17H25N3O4S2/c1-5-23-16(21)11-12-20(13-15-9-7-6-8-10-15)26-19(3)17(22)24-18-14(2)25-4/h6-10H,5,11-13H2,1-4H3/b18-14-",
        "InChIKey": null,
        "Canonical SMILES": "O=C(ON=C(SC)C)N(SN(CC=1C=CC=CC1)CCC(=O)OCC)C",
        "Molecular Formula": "C<sub>17</sub>H<sub>25</sub>N<sub>3</sub>O<sub>4</sub>S<sub>2</sub>",
        "Molecular Mass": "399.53",
        "Melting Point": "47 °C"
    }
}