{
    "cas_no": "123-54-6",
    "key_name": "Acetylacetone",
    "cn_name": "乙酰丙酮;2,4-戊二酮;间戊二酮;二乙酰基甲烷;",
    "alternate_name": "2,4-Pentanedione;Acetylacetone;Diacetylmethane;2-Propanone, acetyl-;2,4-Dioxopentane;Acetoacetone;2,4-Pentadione;ACAC;Pentan-2,4-dione;NSC 139614;NSC 2679;NSC 2927;NSC 52336;NSC 54069;NSC 5575;NSC 77075;NSC 78795;2,4-Pentandione",
    "duplicated_cas_no": "81235-32-7",
    "SMILES": "C(C(C)=O)C(C)=O",
    "meta_data": {
        "InChI": "InChI=1S/C5H8O2/c1-4(6)3-5(2)7/h3H2,1-2H3",
        "InChIKey": null,
        "Canonical SMILES": "O=C(C)CC(=O)C",
        "Molecular Formula": "C<sub>5</sub>H<sub>8</sub>O<sub>2</sub>",
        "Molecular Mass": "100.12",
        "Boiling Point": "140 °C",
        "Melting Point": "-23 °C",
        "Density": "0.9721 g/cm³ @ Temp: 25 °C"
    }
}