{
    "cas_no": "4971-18-0",
    "key_name": "2-Ethylcyclopentanone",
    "cn_name": null,
    "alternate_name": "Cyclopentanone, 2-ethyl-;2-Ethylcyclopentanone;NSC 105441;2-Ethylcyclopentan-1-one",
    "duplicated_cas_no": "64847-88-7",
    "SMILES": "C(C)C1C(=O)CCC1",
    "meta_data": {
        "InChI": "InChI=1S/C7H12O/c1-2-6-4-3-5-7(6)8/h6H,2-5H2,1H3",
        "InChIKey": null,
        "Canonical SMILES": "O=C1CCCC1CC",
        "Molecular Formula": "C<sub>7</sub>H<sub>12</sub>O",
        "Molecular Mass": "112.17",
        "Boiling Point": "157-158 °C",
        "Density": "0.9132 g/cm³ @ Temp: 17 °C"
    }
}