{
    "cas_no": "27402-68-2",
    "key_name": "3′,6′-Dihydroxy-6-nitrospiro[isobenzofuran-1(3<em>H</em>),9′-[9<em>H</em>]xanthen]-3-one",
    "cn_name": "5-硝基荧光素;",
    "alternate_name": "Spiro[isobenzofuran-1(3<em>H</em>),9′-[9<em>H</em>]xanthen]-3-one, 3′,6′-dihydroxy-6-nitro-;Fluorescein, 6-nitro-;3′,6′-Dihydroxy-6-nitrospiro[isobenzofuran-1(3<em>H</em>),9′-[9<em>H</em>]xanthen]-3-one;6-Nitrofluorescein;3′,6′-Dihydroxy-5-nitrospiro[2-benzofuran-3,9′-xanthene]-1-one",
    "duplicated_cas_no": "887407-12-7",
    "SMILES": "O=C1OC2(C=3C1=CC=C(N(=O)=O)C3)C=4C(OC=5C2=CC=C(O)C5)=CC(O)=CC4",
    "meta_data": {
        "InChI": "InChI=1S/C20H11NO7/c22-11-2-5-14-17(8-11)27-18-9-12(23)3-6-15(18)20(14)16-7-10(21(25)26)1-4-13(16)19(24)28-20/h1-9,22-23H",
        "InChIKey": null,
        "Canonical SMILES": "O=C1OC2(C3=CC=C(O)C=C3OC4=CC(O)=CC=C42)C5=CC(=CC=C15)N(=O)=O",
        "Molecular Formula": "C<sub>20</sub>H<sub>11</sub>NO<sub>7</sub>",
        "Molecular Mass": "377.30",
        "Melting Point": "&gt;250 °C (decomp)"
    }
}