{
    "cas_no": "50548-40-8",
    "key_name": "1-Dibenzofuranamine",
    "cn_name": null,
    "alternate_name": "1-Dibenzofuranamine;1-Aminodibenzofuran;Dibenzo[<em>b</em>,<em>d</em>]furan-1-amine",
    "duplicated_cas_no": "",
    "SMILES": "NC1=C2C=3C(OC2=CC=C1)=CC=CC3",
    "meta_data": {
        "InChI": "InChI=1S/C12H9NO/c13-9-5-3-7-11-12(9)8-4-1-2-6-10(8)14-11/h1-7H,13H2",
        "InChIKey": null,
        "Canonical SMILES": "O1C=2C=CC=CC2C=3C1=CC=CC3N",
        "Molecular Formula": "C<sub>12</sub>H<sub>9</sub>NO",
        "Molecular Mass": "183.21",
        "Melting Point": "118-119 °C"
    }
}