{
    "cas_no": "76-16-4",
    "key_name": "Hexafluoroethane",
    "cn_name": "电子级六氟乙烷;电子级六氟乙烷电子级氟碳；全氟乙烷；氟里昂116;",
    "alternate_name": "Ethane, 1,1,1,2,2,2-hexafluoro-;Ethane, hexafluoro-;1,1,1,2,2,2-Hexafluoroethane;F 116;Freon 116;Hexafluoroethane;Perfluoroethane;R 116;Ethyl hexafluoride;Perfluorocarbon 116;PFC 116;FC 1160;FC 116;F 116 (fluorocarbon);HFC 116;CFC 116",
    "duplicated_cas_no": "185009-34-1",
    "SMILES": "C(C(F)(F)F)(F)(F)F",
    "meta_data": {
        "InChI": "InChI=1S/C2F6/c3-1(4,5)2(6,7)8",
        "InChIKey": null,
        "Canonical SMILES": "FC(F)(F)C(F)(F)F",
        "Molecular Formula": "C<sub>2</sub>F<sub>6</sub>",
        "Molecular Mass": "138.01",
        "Boiling Point": "-78.1 °C",
        "Melting Point": "-100.7 °C",
        "Density": "1.85 g/cm³ @ Temp: -192 °C"
    }
}