{
    "cas_no": "119-47-1",
    "key_name": "2,2′-Methylenebis[4-methyl-6-<em>tert</em>-butylphenol]",
    "cn_name": "2,2\"-亚甲基双-(4-甲基-6-叔丁基苯酚);抗氧剂2246;防老剂2246;",
    "alternate_name": "Phenol, 2,2′-methylenebis[6-(1,1-dimethylethyl)-4-methyl-;<em>p</em>-Cresol, 2,2′-methylenebis[6-<em>tert</em>-butyl-;2,2′-Methylenebis[6-(1,1-dimethylethyl)-4-methylphenol];CAO 5;AO 2246;Advastab 405;Antioxidant 2246;2,2′-Bis(4-methyl-6-<em>tert</em>-butylphenol)methane;Lederle 2246;Bisalkofen BP;Bis(2-hydroxy-3-<em>tert</em>-butyl-5-methylphenyl)methane;Bis(3-<em>tert</em>-butyl-2-hydroxy-5-methylphenyl)methane;Bis(6-hydroxy-3-methyl-5-<em>tert</em>-butylphenyl)methane;Calco 2246;2,2′-Methylenebis[6-<em>tert</em>-butyl-<em>p</em>-cresol];6,6′-Di-<em>tert</em>-butyl-4,4′-dimethyl-2,2′-methylenediphenol;BKF;2,2′-Methylenebis(6-<em>tert</em>-butyl-4-methylphenol);NG 2246;Antioxidant 1;Antioxidant BKF;Antioxidant NG 2246;AO 1 (antioxidant);2,2′-Methylenebis[4-methyl-6-<em>tert</em>-butylphenol];Anti Ox;CAO 14;Chemanox 21;Bis(5-methyl-3-<em>tert</em>-butyl-2-hydroxyphenyl)methane;Catolin 14;Nocrac NS 6;AO 1;Antage W 400;Sumilizer MDP;Cyanox 2246;Vulkanox BKF;MBP 5;Agidol 2;Antioxidant OMB;Sumilizer MDP-S;Santowhite PC;Ongrostab 2246;Product 2246;6,6′-Methylenebis(2-<em>tert</em>-butyl-4-methylphenol);Irganox 2246;Lowinox 22M46;Naftonox 22M46;Yoshinox 2246R;Bis(2-hydroxy-5-methyl-3-<em>tert</em>-butylphenyl)methane;MDP;3,3′-Di-<em>tert</em>-butyl-2,2′-dihydroxy-5,5′-dimethyldiphenylmethane;Plastanox 2246;Yoshinox 2246G;GERI-BP 002A;Nonflex MPP;NS 6;Noclizer NS 6;A 02246;Additin RC 7115;Lowinox 22M48;2,2′-Methylenebis[4-methyl-6-<em>t</em>-butylphenol];NSC 7781;Sumilizer MDP 9;Nonflex MBP;Ionol 46;2,2′-Methylenebis(4-methyl-6-tert-butylphenol);Vanox MBPC;Baynox Plus;Antioxidant MBP;6,6-Methylenebis(2-tert-butyl-4-methylphenol);2,2′-Methylenebis(6-tert-butyl-p-cresol);Akrochem AO 235;AO 235;2,2- Methylene bis(4-methyl-6-tert-butyl-phenol);2,2′-Methylidenebis(6-<em>tert</em>-butyl-4-methylphenol);Vulkanox BPH;MDP-S;2-<em>tert</em>-Butyl-6-[(3-<em>tert</em>-butyl-2-hydroxy-5-methylphenyl)methyl]-4-methylphenol;W 400;Antioxidant 235;Irganox 235",
    "duplicated_cas_no": "107397-49-9;110736-51-1;111214-56-3;129514-93-8;12737-12-1;37268-48-7;52683-48-4;53807-25-3;54650-81-6;56509-58-1;59112-68-4;62339-93-9;67556-84-7;69645-40-5;90297-42-0;92880-05-2;149984-87-2;537040-81-6",
    "SMILES": "C(C1=C(O)C(C(C)(C)C)=CC(C)=C1)C2=C(O)C(C(C)(C)C)=CC(C)=C2",
    "meta_data": {
        "InChI": "InChI=1S/C23H32O2/c1-14-9-16(20(24)18(11-14)22(3,4)5)13-17-10-15(2)12-19(21(17)25)23(6,7)8/h9-12,24-25H,13H2,1-8H3",
        "InChIKey": null,
        "Canonical SMILES": "OC=1C(=CC(=CC1C(C)(C)C)C)CC2=CC(=CC(=C2O)C(C)(C)C)C",
        "Molecular Formula": "C<sub>23</sub>H<sub>32</sub>O<sub>2</sub>",
        "Molecular Mass": "340.50",
        "Melting Point": "118-128 °C",
        "Density": "107-110 g/cm³"
    }
}