{
    "cas_no": "693-25-4",
    "key_name": "Pentylmagnesium bromide",
    "cn_name": "正戊基溴化镁;戊烷溴化镁;正戊基溴化镁;",
    "alternate_name": "Magnesium, bromopentyl-;Pentylmagnesium bromide;Bromopentylmagnesium;1-Pentylmagnesium bromide;<em>n</em>-Pentylmagnesium bromide;Amylmagnesium bromide",
    "duplicated_cas_no": "871268-63-2",
    "SMILES": "C(CCC)C[Mg]Br",
    "meta_data": {
        "InChI": "InChI=1S/C5H11.BrH.Mg/c1-3-5-4-2;;/h1,3-5H2,2H3;1H;/q;;+1/p-1",
        "InChIKey": null,
        "Canonical SMILES": "Br[Mg]CCCCC",
        "Molecular Formula": "C<sub>5</sub>H<sub>11</sub>BrMg",
        "Molecular Mass": "",
        "Boiling Point": "135-137 °C @ Press: 0.2 Torr",
        "Melting Point": "76.5-77.5 °C"
    }
}