{
    "cas_no": "25265-71-8",
    "key_name": "Dipropylene glycol",
    "cn_name": null,
    "alternate_name": "Propanol, oxybis-;Dipropylene glycol;Oxybispropanol;ADK DPG-RF;DPG-FC;DPG-RF;Dowanol DPG;Diisopropylene glycol;A 33",
    "duplicated_cas_no": "25322-23-0;27941-91-9;27941-90-8;28678-26-4;30370-61-7;75047-14-2;78644-49-2",
    "SMILES": "",
    "meta_data": {
        "InChI": "",
        "InChIKey": null,
        "Canonical SMILES": "",
        "Molecular Formula": "C<sub>6</sub>H<sub>14</sub>O<sub>3</sub>",
        "Molecular Mass": "",
        "Boiling Point": "231.9 °C @ Press: 760 Torr",
        "Density": "1.0252 g/cm³ @ Temp: 20 °C"
    }
}