{
    "cas_no": "3034-57-9",
    "key_name": "5-Bromo-4-methyl-2-thiazolamine",
    "cn_name": null,
    "alternate_name": "2-Thiazolamine, 5-bromo-4-methyl-;Thiazole, 2-amino-5-bromo-4-methyl-;5-Bromo-4-methyl-2-thiazolamine;2-Amino-5-bromo-4-methylthiazole;2-Amino-4-methyl-5-bromothiazole;(5-Bromo-4-methylthiazol-2-yl)amine;5-Bromo-4-methylthiazol-2-amine",
    "duplicated_cas_no": "",
    "SMILES": "CC1=C(Br)SC(N)=N1",
    "meta_data": {
        "InChI": "InChI=1S/C4H5BrN2S/c1-2-3(5)8-4(6)7-2/h1H3,(H2,6,7)",
        "InChIKey": null,
        "Canonical SMILES": "BrC=1SC(=NC1C)N",
        "Molecular Formula": "C<sub>4</sub>H<sub>5</sub>BrN<sub>2</sub>S",
        "Molecular Mass": "193.06",
        "Melting Point": "105-108.5 °C (decomp)"
    }
}