{
    "cas_no": "2679-87-0",
    "key_name": "<em>sec</em>-Butyl ethyl ether",
    "cn_name": "2-乙氧基丁烷;",
    "alternate_name": "Butane, 2-ethoxy-;Ether, <em>sec</em>-butyl ethyl;2-Ethoxybutane;Ethyl <em>sec</em>-butyl ether;<em>sec</em>-Butyl ethyl ether",
    "duplicated_cas_no": "19316-73-5",
    "SMILES": "C(OCC)(CC)C",
    "meta_data": {
        "InChI": "InChI=1S/C6H14O/c1-4-6(3)7-5-2/h6H,4-5H2,1-3H3",
        "InChIKey": null,
        "Canonical SMILES": "O(CC)C(C)CC",
        "Molecular Formula": "C<sub>6</sub>H<sub>14</sub>O",
        "Molecular Mass": "102.17",
        "Boiling Point": "81 °C",
        "Density": "0.745 g/cm³ @ Temp: 20 °C"
    }
}