{
    "cas_no": "7790-92-3",
    "key_name": "Hypochlorous acid",
    "cn_name": null,
    "alternate_name": "Hypochlorous acid;Hypochlorous acid (HClO);Hypochlorous acid (HOCl);Pure Star MP 100000C;Comfosy;Brio HOCl;BriotechHOCl;Dent Zia;MeSH ID: D006997",
    "duplicated_cas_no": "14333-29-0;26190-92-1;1338439-06-7",
    "SMILES": "ClO",
    "meta_data": {
        "InChI": "InChI=1S/ClHO/c1-2/h2H",
        "InChIKey": null,
        "Canonical SMILES": "ClO",
        "Molecular Formula": "ClHO",
        "Molecular Mass": "52.46",
        "Boiling Point": "125-130 °C @ Press: 11 Torr",
        "Density": "1.1655 g/cm³ @ Temp: 20 °C"
    }
}