{
    "cas_no": "1141-23-7",
    "key_name": "β-(2-Amino-2-oxoethyl)-4-chlorobenzenepropanoic acid",
    "cn_name": "3-(4-氯苯基)戊二酸单酰胺;",
    "alternate_name": "Benzenepropanoic acid, β-(2-amino-2-oxoethyl)-4-chloro-;Glutaramic acid, 3-(<em>p</em>-chlorophenyl)-;β-(2-Amino-2-oxoethyl)-4-chlorobenzenepropanoic acid;3-(<em>p</em>-Chlorophenyl)glutaramic acid",
    "duplicated_cas_no": "",
    "SMILES": "C(CC(N)=O)(CC(O)=O)C1=CC=C(Cl)C=C1",
    "meta_data": {
        "InChI": "InChI=1S/C11H12ClNO3/c12-9-3-1-7(2-4-9)8(5-10(13)14)6-11(15)16/h1-4,8H,5-6H2,(H2,13,14)(H,15,16)",
        "InChIKey": null,
        "Canonical SMILES": "O=C(O)CC(C1=CC=C(Cl)C=C1)CC(=O)N",
        "Molecular Formula": "C<sub>11</sub>H<sub>12</sub>ClNO<sub>3</sub>",
        "Molecular Mass": "241.67",
        "Melting Point": "170-171 °C"
    }
}