{
    "cas_no": "92496-65-6",
    "key_name": "3′-Hydroxyflavanone",
    "cn_name": null,
    "alternate_name": "4<em>H</em>-1-Benzopyran-4-one, 2,3-dihydro-2-(3-hydroxyphenyl)-;Flavanone, 3′-hydroxy-;2,3-Dihydro-2-(3-hydroxyphenyl)-4<em>H</em>-1-benzopyran-4-one;3′-Hydroxyflavanone;2-(3-Hydroxyphenyl)chroman-4-one;2-(3-Hydroxyphenyl)-3,4-dihydro-2<em>H</em>-1-benzopyran-4-one;2-(3-Hydroxyphenyl)-2,3-dihydrochromen-4-one",
    "duplicated_cas_no": "",
    "SMILES": "O=C1CC(OC=2C1=CC=CC2)C3=CC(O)=CC=C3",
    "meta_data": {
        "InChI": "InChI=1S/C15H12O3/c16-11-5-3-4-10(8-11)15-9-13(17)12-6-1-2-7-14(12)18-15/h1-8,15-16H,9H2",
        "InChIKey": null,
        "Canonical SMILES": "O=C1C=2C=CC=CC2OC(C=3C=CC=C(O)C3)C1",
        "Molecular Formula": "C<sub>15</sub>H<sub>12</sub>O<sub>3</sub>",
        "Molecular Mass": "240.25",
        "Melting Point": "143-144 °C"
    }
}