{
    "cas_no": "29636-87-1",
    "key_name": "4-(Hydroxymethyl)-5-methylimidazole",
    "cn_name": "4-羟甲基-5-甲基咪唑;",
    "alternate_name": "1<em>H</em>-Imidazole-5-methanol, 4-methyl-;Imidazole-4-methanol, 5-methyl-;1<em>H</em>-Imidazole-4-methanol, 5-methyl-;Imidazole-4(<em>or</em> 5)-methanol, 5(<em>or</em> 4)-methyl-;4-Methyl-1<em>H</em>-imidazole-5-methanol;4-(Hydroxymethyl)-5-methylimidazole;5-Methyl-4-imidazolemethanol;5-(Hydroxymethyl)-4-methylimidazole;5-Methyl-1<em>H</em>-imidazole-4-methanol;4-Methyl-5-imidazolemethanol;4-Methyl-5-(hydroxymethyl)imidazole;4-(Hydroxymethyl)-5-methyl-1<em>H</em>-imidazole",
    "duplicated_cas_no": "",
    "SMILES": "C(O)C1=C(C)N=CN1",
    "meta_data": {
        "InChI": "InChI=1S/C5H8N2O/c1-4-5(2-8)7-3-6-4/h3,8H,2H2,1H3,(H,6,7)",
        "InChIKey": null,
        "Canonical SMILES": "OCC=1NC=NC1C",
        "Molecular Formula": "C<sub>5</sub>H<sub>8</sub>N<sub>2</sub>O",
        "Molecular Mass": "112.13",
        "Melting Point": "136 °C"
    }
}