{
    "cas_no": "39795-60-3",
    "key_name": "4-(4-Bromophenyl)pyridine",
    "cn_name": null,
    "alternate_name": "Pyridine, 4-(4-bromophenyl)-;4-(4-Bromophenyl)pyridine;4-(<em>p</em>-Bromophenyl)pyridine;4-(4-Pyridyl)bromobenzene;4-(4′-Bromophenyl)pyridine",
    "duplicated_cas_no": "",
    "SMILES": "BrC1=CC=C(C=C1)C=2C=CN=CC2",
    "meta_data": {
        "InChI": "InChI=1S/C11H8BrN/c12-11-3-1-9(2-4-11)10-5-7-13-8-6-10/h1-8H",
        "InChIKey": null,
        "Canonical SMILES": "BrC=1C=CC(=CC1)C=2C=CN=CC2",
        "Molecular Formula": "C<sub>11</sub>H<sub>8</sub>BrN",
        "Molecular Mass": "234.09",
        "Melting Point": "129.5 °C"
    }
}