{
    "cas_no": "10019-24-6",
    "key_name": "1,1′,1′′,1′′′-(1,2-Ethenediylidene)tetrakis[4-methoxybenzene]",
    "cn_name": null,
    "alternate_name": "Benzene, 1,1′,1′′,1′′′-(1,2-ethenediylidene)tetrakis[4-methoxy-;Ethylene, tetrakis(<em>p</em>-methoxyphenyl)-;1,1′,1′′,1′′′-(1,2-Ethenediylidene)tetrakis[4-methoxybenzene];Tetra-<em>p</em>-anisylethylene;Tetrakis(<em>p</em>-methoxyphenyl)ethylene;1,1,2,2-Tetrakis(<em>p</em>-methoxyphenyl)ethene;Tetrakis(4-methoxyphenyl)ethylene;Tetrakis(4-methoxyphenyl)ethene;Tetra(4-methoxyphenyl)ethylene;NSC 132124;Tetra(4-methoxyphenyl)ethene;1,1,2,2-Tetrakis(4′-methoxyphenyl)ethene;1-Methoxy-4-[1,2,2-tris(4-methoxyphenyl)ethenyl]benzene;1,1,2,2-Tetrakis(4-methoxyphenyl)ethene",
    "duplicated_cas_no": "",
    "SMILES": "C(=C(C1=CC=C(OC)C=C1)C2=CC=C(OC)C=C2)(C3=CC=C(OC)C=C3)C4=CC=C(OC)C=C4",
    "meta_data": {
        "InChI": "InChI=1S/C30H28O4/c1-31-25-13-5-21(6-14-25)29(22-7-15-26(32-2)16-8-22)30(23-9-17-27(33-3)18-10-23)24-11-19-28(34-4)20-12-24/h5-20H,1-4H3",
        "InChIKey": null,
        "Canonical SMILES": "O(C1=CC=C(C=C1)C(C2=CC=C(OC)C=C2)=C(C3=CC=C(OC)C=C3)C4=CC=C(OC)C=C4)C",
        "Molecular Formula": "C<sub>30</sub>H<sub>28</sub>O<sub>4</sub>",
        "Molecular Mass": "452.54",
        "Melting Point": "183 °C"
    }
}