{
    "cas_no": "41043-88-3",
    "key_name": "4-(Acetyloxy)cyclohexanone",
    "cn_name": null,
    "alternate_name": "Cyclohexanone, 4-(acetyloxy)-;Cyclohexanone, 4-hydroxy-, acetate;4-(Acetyloxy)cyclohexanone;4-Acetoxycyclohexanone;4-Oxocyclohexyl acetate",
    "duplicated_cas_no": "",
    "SMILES": "O(C(C)=O)C1CCC(=O)CC1",
    "meta_data": {
        "InChI": "InChI=1S/C8H12O3/c1-6(9)11-8-4-2-7(10)3-5-8/h8H,2-5H2,1H3",
        "InChIKey": null,
        "Canonical SMILES": "O=C(OC1CCC(=O)CC1)C",
        "Molecular Formula": "C<sub>8</sub>H<sub>12</sub>O<sub>3</sub>",
        "Molecular Mass": "156.18",
        "Boiling Point": "121-124 °C @ Press: 11 Torr"
    }
}