{
    "cas_no": "429-60-7",
    "key_name": "(3,3,3-Trifluoropropyl)trimethoxysilane",
    "cn_name": "3,3,3-三氟丙基三甲氧基硅;",
    "alternate_name": "Silane, trimethoxy(3,3,3-trifluoropropyl)-;Trimethoxy(3,3,3-trifluoropropyl)silane;(3,3,3-Trifluoropropyl)trimethoxysilane;1,1,1-Trifluoro-3-(trimethoxysilyl)propane;T 2847;XC 95-418;TSL 8262;LS 1090;Q 3-9030;AY 43-013;KBM 7103;AP Silane 75;FAS 3 (silane);FAS 3;Z 6333;Dow Corning Z 9030;Z 9030;DB-F 1100;SIT 8372.0;Trimethoxy(1<em>H</em>,1<em>H</em>,2<em>H</em>,2<em>H</em>-trifluoro-<em>n</em>-propyl)silane;FAS 3M;KH 331",
    "duplicated_cas_no": "871118-65-9;1129493-98-6;2640092-17-5",
    "SMILES": "[Si](CCC(F)(F)F)(OC)(OC)OC",
    "meta_data": {
        "InChI": "InChI=1S/C6H13F3O3Si/c1-10-13(11-2,12-3)5-4-6(7,8)9/h4-5H2,1-3H3",
        "InChIKey": null,
        "Canonical SMILES": "FC(F)(F)CC[Si](OC)(OC)OC",
        "Molecular Formula": "C<sub>6</sub>H<sub>13</sub>F<sub>3</sub>O<sub>3</sub>Si",
        "Molecular Mass": "218.25",
        "Boiling Point": "144 °C",
        "Density": "1.137 g/cm³"
    }
}