{
    "cas_no": "17916-88-0",
    "key_name": "<em>N</em>-Acetyl-<span class=\"text-smallcaps\">D</span>-valine",
    "cn_name": "N-乙酰-D-缬氨酸;D-2-乙酰氨基-3-甲基丁酸;N-乙酰基-D-穿心排草氨基酸;",
    "alternate_name": "<span class=\"text-smallcaps\">D</span>-Valine, <em>N</em>-acetyl-;Valine, <em>N</em>-acetyl-, <span class=\"text-smallcaps\">D</span>-;<em>N</em>-Acetyl-<span class=\"text-smallcaps\">D</span>-valine;<em>N</em>-Acetyl-(<em>R</em>)-valine;<span class=\"text-smallcaps\">D</span>-<em>N</em>-Acetylvaline;NSC 19758;(+)-(<em>R</em>)-<em>N</em>-Acetylvaline;(2R)-2-Acetamido-3-methylbutanoic acid",
    "duplicated_cas_no": "",
    "SMILES": "[C@@H](NC(C)=O)(C(C)C)C(O)=O",
    "meta_data": {
        "InChI": "InChI=1S/C7H13NO3/c1-4(2)6(7(10)11)8-5(3)9/h4,6H,1-3H3,(H,8,9)(H,10,11)/t6-/m1/s1",
        "InChIKey": null,
        "Canonical SMILES": "O=C(NC(C(=O)O)C(C)C)C",
        "Molecular Formula": "C<sub>7</sub>H<sub>13</sub>NO<sub>3</sub>",
        "Molecular Mass": "159.18",
        "Melting Point": "140-142 °C"
    }
}