{
    "cas_no": "1729-99-3",
    "key_name": "8-Bromo-1-naphthalenecarboxylic acid",
    "cn_name": "8-溴-1-萘甲酸;",
    "alternate_name": "1-Naphthalenecarboxylic acid, 8-bromo-;1-Naphthoic acid, 8-bromo-;8-Bromo-1-naphthalenecarboxylic acid;8-Bromo-1-naphthoic acid",
    "duplicated_cas_no": "",
    "SMILES": "C(O)(=O)C=1C2=C(C=CC=C2Br)C=CC1",
    "meta_data": {
        "InChI": "InChI=1S/C11H7BrO2/c12-9-6-2-4-7-3-1-5-8(10(7)9)11(13)14/h1-6H,(H,13,14)",
        "InChIKey": null,
        "Canonical SMILES": "O=C(O)C1=CC=CC=2C=CC=C(Br)C21",
        "Molecular Formula": "C<sub>11</sub>H<sub>7</sub>BrO<sub>2</sub>",
        "Molecular Mass": "251.08",
        "Melting Point": "178 °C"
    }
}