{
    "cas_no": "22286-82-4",
    "key_name": "Ethyl α-methylenebenzeneacetate",
    "cn_name": "2-苯基丙烯酸乙酯;",
    "alternate_name": "Benzeneacetic acid, α-methylene-, ethyl ester;Atropic acid, ethyl ester;Ethyl α-methylenebenzeneacetate;Ethyl atropate;Ethyl 2-phenylacrylate;Ethyl α-phenylacrylate;Ethyl 2-phenylprop-2-enoate;2-Phenylacrylic acid ethyl ester",
    "duplicated_cas_no": "",
    "SMILES": "C(C(OCC)=O)(=C)C1=CC=CC=C1",
    "meta_data": {
        "InChI": "InChI=1S/C11H12O2/c1-3-13-11(12)9(2)10-7-5-4-6-8-10/h4-8H,2-3H2,1H3",
        "InChIKey": null,
        "Canonical SMILES": "O=C(OCC)C(=C)C=1C=CC=CC1",
        "Molecular Formula": "C<sub>11</sub>H<sub>12</sub>O<sub>2</sub>",
        "Molecular Mass": "176.21",
        "Boiling Point": "124-125 °C @ Press: 17 Torr",
        "Density": "1.0419 g/cm³ @ Temp: 25 °C"
    }
}