{
    "cas_no": "16839-97-7",
    "key_name": "2-Methoxythiophene",
    "cn_name": "2-甲氧基噻吩(16839-97-7);",
    "alternate_name": "Thiophene, 2-methoxy-;2-Methoxythiophene",
    "duplicated_cas_no": "",
    "SMILES": "O(C)C1=CC=CS1",
    "meta_data": {
        "InChI": "InChI=1S/C5H6OS/c1-6-5-3-2-4-7-5/h2-4H,1H3",
        "InChIKey": null,
        "Canonical SMILES": "O(C=1SC=CC1)C",
        "Molecular Formula": "C<sub>5</sub>H<sub>6</sub>OS",
        "Molecular Mass": "114.17",
        "Boiling Point": "74-75 °C @ Press: 50 Torr",
        "Density": "1.120 g/cm³ @ Temp: 25 °C"
    }
}