{
    "cas_no": "120-80-9",
    "key_name": "Catechol",
    "cn_name": "邻苯二酚;1,2-苯二酚;儿茶酚;",
    "alternate_name": "1,2-Benzenediol;Pyrocatechol;C.I. 76500;<em>o</em>-Benzenediol;C.I. Oxidation Base 26;<em>o</em>-Dihydroxybenzene;1,2-Dihydroxybenzene;Durafur Developer C;Fouramine PCH;Fourrine 68;2-Hydroxyphenol;Oxyphenic acid;Pelagol Grey C;Pyrocatechin;Catechol;<em>o</em>-Dioxybenzene;<em>o</em>-Hydroxyphenol;Catechol (phenol);Pyrocatechine;<em>o</em>-Phenylenediol;Phthalhydroquinone;<em>o</em>-Hydroquinone;Phthalic alcohol;NSC 1573;Z 1;Z 1 (inhibitor);1,2-Hydroxybenzene;5,6-Dihydroxybenzene",
    "duplicated_cas_no": "16474-90-1;16474-89-8;37349-32-9",
    "SMILES": "OC1=C(O)C=CC=C1",
    "meta_data": {
        "InChI": "InChI=1S/C6H6O2/c7-5-3-1-2-4-6(5)8/h1-4,7-8H",
        "InChIKey": null,
        "Canonical SMILES": "OC=1C=CC=CC1O",
        "Molecular Formula": "C<sub>6</sub>H<sub>6</sub>O<sub>2</sub>",
        "Molecular Mass": "110.11",
        "Boiling Point": "245.5 °C @ Press: 760 Torr",
        "Melting Point": "105 °C",
        "Density": "1.344 g/cm³"
    }
}