{
    "cas_no": "13534-99-1",
    "key_name": "2-Amino-3-bromopyridine",
    "cn_name": "2-氨基-3-溴吡啶;",
    "alternate_name": "2-Pyridinamine, 3-bromo-;Pyridine, 2-amino-3-bromo-;3-Bromo-2-pyridinamine;3-Bromo-2-aminopyridine;2-Amino-3-bromopyridine;(3-Bromopyridin-2-yl)amine;2-Amino-3-bromo-2-pyridine",
    "duplicated_cas_no": "",
    "SMILES": "BrC1=C(N)N=CC=C1",
    "meta_data": {
        "InChI": "InChI=1S/C5H5BrN2/c6-4-2-1-3-8-5(4)7/h1-3H,(H2,7,8)",
        "InChIKey": null,
        "Canonical SMILES": "BrC1=CC=CN=C1N",
        "Molecular Formula": "C<sub>5</sub>H<sub>5</sub>BrN<sub>2</sub>",
        "Molecular Mass": "173.01",
        "Melting Point": "65-66 °C"
    }
}