{
    "cas_no": "2299-73-2",
    "key_name": "4-Methoxybenzaldehyde azine",
    "cn_name": null,
    "alternate_name": "Benzaldehyde, 4-methoxy-, 2-[(4-methoxyphenyl)methylene]hydrazone;<em>p</em>-Anisaldehyde, azine;Benzaldehyde, 4-methoxy-, [(4-methoxyphenyl)methylene]hydrazone;<em>p</em>-Anisalazine;Anisaldazine;<em>p</em>-Anisaldazine;Anisalazine;<em>p</em>-Methoxybenzaldehyde azine;<em>p</em>-Methoxybenzaldazine;4,4′-Dimethoxybenzylideneazine;4-Methoxybenzalazine;4-Methoxybenzaldehyde azine;NSC 1987;4-Methoxybenzaldehyde [(4-methoxyphenyl)methylene]hydrazone;4,4′-Dimethoxybenzaldazine;1,2-Bis(4-methoxybenzylidene)hydrazine",
    "duplicated_cas_no": "1331725-70-2",
    "SMILES": "C(=NN=CC1=CC=C(OC)C=C1)C2=CC=C(OC)C=C2",
    "meta_data": {
        "InChI": "InChI=1S/C16H16N2O2/c1-19-15-7-3-13(4-8-15)11-17-18-12-14-5-9-16(20-2)10-6-14/h3-12H,1-2H3",
        "InChIKey": null,
        "Canonical SMILES": "N(N=CC1=CC=C(OC)C=C1)=CC2=CC=C(OC)C=C2",
        "Molecular Formula": "C<sub>16</sub>H<sub>16</sub>N<sub>2</sub>O<sub>2</sub>",
        "Molecular Mass": "268.31",
        "Melting Point": "165 °C"
    }
}