{
    "cas_no": "136-90-3",
    "key_name": "4-Methoxy-3-methylaniline",
    "cn_name": "3-甲基-4-甲氧基苯胺;",
    "alternate_name": "Benzenamine, 4-methoxy-3-methyl-;<em>p</em>-Anisidine, 3-methyl-;4-Methoxy-3-methylbenzenamine;4-Amino-2-methylanisole;3-Methyl-<em>p</em>-anisidine;4-Methoxy-3-methylaniline;3-Methyl-4-methoxyaniline;3-Methyl-4-methoxybenzenamine;4-Methoxy-3-methylphenylamine",
    "duplicated_cas_no": "",
    "SMILES": "O(C)C1=C(C)C=C(N)C=C1",
    "meta_data": {
        "InChI": "InChI=1S/C8H11NO/c1-6-5-7(9)3-4-8(6)10-2/h3-5H,9H2,1-2H3",
        "InChIKey": null,
        "Canonical SMILES": "O(C1=CC=C(N)C=C1C)C",
        "Molecular Formula": "C<sub>8</sub>H<sub>11</sub>NO",
        "Molecular Mass": "137.18",
        "Melting Point": "92-93 °C"
    }
}