{
    "cas_no": "16947-63-0",
    "key_name": "2,6-Dimethyl-4-nitrobenzenamine",
    "cn_name": null,
    "alternate_name": "Benzenamine, 2,6-dimethyl-4-nitro-;2,6-Xylidine, 4-nitro-;2,6-Dimethyl-4-nitrobenzenamine;2,6-Dimethyl-4-nitroaniline;4-Nitro-2,6-xylidine;NSC 101580;2,6-Dimethyl-4-nitrophenylamine",
    "duplicated_cas_no": "",
    "SMILES": "N(=O)(=O)C1=CC(C)=C(N)C(C)=C1",
    "meta_data": {
        "InChI": "InChI=1S/C8H10N2O2/c1-5-3-7(10(11)12)4-6(2)8(5)9/h3-4H,9H2,1-2H3",
        "InChIKey": null,
        "Canonical SMILES": "O=N(=O)C=1C=C(C(N)=C(C1)C)C",
        "Molecular Formula": "C<sub>8</sub>H<sub>10</sub>N<sub>2</sub>O<sub>2</sub>",
        "Molecular Mass": "166.18",
        "Melting Point": "165 °C"
    }
}