{
    "cas_no": "97-02-9",
    "key_name": "2,4-Dinitroaniline",
    "cn_name": "2,4-二硝基苯胺;",
    "alternate_name": "Benzenamine, 2,4-dinitro-;Aniline, 2,4-dinitro-;2,4-Dinitrobenzenamine;2,4-Dinitroaniline;1-Amino-2,4-dinitrobenzene;NSC 8731;Dinitroaniline",
    "duplicated_cas_no": "1309774-70-6",
    "SMILES": "N(=O)(=O)C1=CC(N(=O)=O)=CC=C1N",
    "meta_data": {
        "InChI": "InChI=1S/C6H5N3O4/c7-5-2-1-4(8(10)11)3-6(5)9(12)13/h1-3H,7H2",
        "InChIKey": null,
        "Canonical SMILES": "O=N(=O)C1=CC=C(N)C(=C1)N(=O)=O",
        "Molecular Formula": "C<sub>6</sub>H<sub>5</sub>N<sub>3</sub>O<sub>4</sub>",
        "Molecular Mass": "183.12",
        "Boiling Point": "333.6 °C",
        "Melting Point": "187.5-188 °C",
        "Density": "1.615 g/cm³ @ Temp: 14 °C"
    }
}