{
    "cas_no": "108-55-4",
    "key_name": "Glutaric anhydride",
    "cn_name": "戌二酸酐;",
    "alternate_name": "2<em>H</em>-Pyran-2,6(3<em>H</em>)-dione, dihydro-;Glutaric anhydride;Dihydro-2<em>H</em>-pyran-2,6(3<em>H</em>)-dione;Pentanedioic anhydride;Glutaric acid anhydride;Pentanedioic acid anhydride;Pyroglutaric acid;NSC 16640;Dihydropyran-2,6-dione;Dihydro-3<em>H</em>-pyran-2,6-dione;Oxacyclohexane-2,6-dione;Pentahydropyran-2,6-dione;2,6-Dioxo-dihydropyrane;Glutaric anhydide",
    "duplicated_cas_no": "",
    "SMILES": "O=C1OC(=O)CCC1",
    "meta_data": {
        "InChI": "InChI=1S/C5H6O3/c6-4-2-1-3-5(7)8-4/h1-3H2",
        "InChIKey": null,
        "Canonical SMILES": "O=C1OC(=O)CCC1",
        "Molecular Formula": "C<sub>5</sub>H<sub>6</sub>O<sub>3</sub>",
        "Molecular Mass": "114.10",
        "Boiling Point": "287 °C",
        "Melting Point": "56.3 °C"
    }
}