{
    "cas_no": "63187-91-7",
    "key_name": "Menthone glycerin acetal",
    "cn_name": "6-异丙基-9-甲基-1,4-二氧螺环[4,5]癸烷-2-甲醇;",
    "alternate_name": "1,4-Dioxaspiro[4.5]decane-2-methanol, 9-methyl-6-(1-methylethyl)-;9-Methyl-6-(1-methylethyl)-1,4-dioxaspiro[4.5]decane-2-methanol;Frescolat MGA;Menthone glycerin acetal;Menthone glyceryl ketal;6-Isopropyl-9-methyl-1,4-dioxaspiro[4,5]decane-2-methanol;(6-Isopropyl-9-methyl-1,4-dioxaspiro[4.5]decan-2-yl)methanol;Fema Gras 3808;Menthone glycerine acetal;(9-Methyl-6-propan-2-yl-1,4-dioxaspiro[4.5]decan-3-yl)methanol;[9-Methyl-6-(propan-2-yl)-1,4-dioxaspiro[4.5]decan-2-yl]methanol",
    "duplicated_cas_no": "",
    "SMILES": "C(C)(C)C1C2(OC(CO)CO2)CC(C)CC1",
    "meta_data": {
        "InChI": "InChI=1S/C13H24O3/c1-9(2)12-5-4-10(3)6-13(12)15-8-11(7-14)16-13/h9-12,14H,4-8H2,1-3H3",
        "InChIKey": null,
        "Canonical SMILES": "OCC1OC2(OC1)CC(C)CCC2C(C)C",
        "Molecular Formula": "C<sub>13</sub>H<sub>24</sub>O<sub>3</sub>",
        "Molecular Mass": "228.33",
        "Boiling Point": "148-152 °C @ Press: 14 Torr"
    }
}