{
    "cas_no": "18016-58-5",
    "key_name": "Quercetin 3-<em>O</em>-glucoside 7-<em>O</em>-rhamnoside",
    "cn_name": null,
    "alternate_name": "4<em>H</em>-1-Benzopyran-4-one, 7-[(6-deoxy-α-<span class=\"text-smallcaps\">L</smallcap>-mannopyranosyl)oxy]-2-(3,4-dihydroxyphenyl)-3-(β-<smallcap>D</span>-glucopyranosyloxy)-5-hydroxy-;Vincetoxicoside A;7-[(6-Deoxy-α-<span class=\"text-smallcaps\">L</smallcap>-mannopyranosyl)oxy]-2-(3,4-dihydroxyphenyl)-3-(β-<smallcap>D</span>-glucopyranosyloxy)-5-hydroxy-4<em>H</em>-1-benzopyran-4-one;3-<em>O</em>-(β-Glucosyl)-7-<em>O</em>-rhamnosylquercetin;3-β-Glucosyl-7-rhamnosylquercetin;3-β-<span class=\"text-smallcaps\">D</span>-Glucosyl-7-rhamnosylquercetin;Petiolaroside;Quercetin 3-glucoside 7-rhamnoside;Quercetol 3-glucoside 7-rhamnoside;Quercetin 3-<em>O</em>-glucoside 7-<em>O</em>-rhamnoside;Quercetin 3-<em>O</em>-β-<span class=\"text-smallcaps\">D</smallcap>-glucopyranosyl 7-<em>O</em>-α-<smallcap>L</span>-rhamnopyranoside;3-<em>O</em>-β-Glucopyranosylquercetin 7-<em>O</em>-α-rhamnopyranoside",
    "duplicated_cas_no": "27459-82-1;28978-01-0;29317-64-4;163559-06-6;642474-43-9;1680174-92-8",
    "SMILES": "O(C1=C(OC=2C(C1=O)=C(O)C=C(O[C@H]3[C@H](O)[C@H](O)[C@@H](O)[C@H](C)O3)C2)C4=CC(O)=C(O)C=C4)[C@@H]5O[C@H](CO)[C@@H](O)[C@H](O)[C@H]5O",
    "meta_data": {
        "InChI": "InChI=1S/C27H30O16/c1-8-17(32)20(35)22(37)26(39-8)40-10-5-13(31)16-14(6-10)41-24(9-2-3-11(29)12(30)4-9)25(19(16)34)43-27-23(38)21(36)18(33)15(7-28)42-27/h2-6,8,15,17-18,20-23,26-33,35-38H,7H2,1H3/t8-,15+,17-,18+,20+,21-,22+,23+,26-,27-/m0/s1",
        "InChIKey": null,
        "Canonical SMILES": "O=C1C(OC2OC(CO)C(O)C(O)C2O)=C(OC3=CC(OC4OC(C)C(O)C(O)C4O)=CC(O)=C13)C=5C=CC(O)=C(O)C5",
        "Molecular Formula": "C<sub>27</sub>H<sub>30</sub>O<sub>16</sub>",
        "Molecular Mass": "610.52",
        "Melting Point": "230-232 °C"
    }
}