{
    "cas_no": "12030-88-5",
    "key_name": "Potassium superoxide",
    "cn_name": "过氧化钾;超氧化钾;",
    "alternate_name": "Potassium superoxide (K(O<sub>2</sub>));Potassium superoxide;Potassium dioxide;Potassium oxide (KO<sub>2</sub>)",
    "duplicated_cas_no": "",
    "SMILES": "[O-]([K+])=O",
    "meta_data": {
        "InChI": "InChI=1S/K.O2/c;1-2",
        "InChIKey": null,
        "Canonical SMILES": "O=[O-][K+]",
        "Molecular Formula": "KO<sub>2</sub>",
        "Molecular Mass": "",
        "Melting Point": "490-530 °C"
    }
}