{
    "cas_no": "359-38-6",
    "key_name": "2,2-Difluoroacetamide",
    "cn_name": null,
    "alternate_name": "Acetamide, 2,2-difluoro-;2,2-Difluoroacetamide;Difluoroacetamide",
    "duplicated_cas_no": "",
    "SMILES": "C(C(N)=O)(F)F",
    "meta_data": {
        "InChI": "InChI=1S/C2H3F2NO/c3-1(4)2(5)6/h1H,(H2,5,6)",
        "InChIKey": null,
        "Canonical SMILES": "O=C(N)C(F)F",
        "Molecular Formula": "C<sub>2</sub>H<sub>3</sub>F<sub>2</sub>NO",
        "Molecular Mass": "95.05",
        "Boiling Point": "108.63 °C @ Press: 35 Torr",
        "Melting Point": "51.8 °C"
    }
}