{
    "cas_no": "959-98-8",
    "key_name": "α-Endosulfan",
    "cn_name": "alpha-硫丹;alpha-安杀番;内-1,4,5,6,7,7-六氯-5-降冰片烯-2,3-二甲醇环亚硫酸酯;",
    "alternate_name": "6,9-Methano-2,4,3-benzodioxathiepin, 6,7,8,9,10,10-hexachloro-1,5,5a,6,9,9a-hexahydro-, 3-oxide, (3α,5aβ,6α,9α,9aβ)-;5-Norbornene-2,3-dimethanol, 1,4,5,6,7,7-hexachloro-, cyclic sulfite, <em>endo</em>-;Endosulfan A;Endosulfan I;α-Thiodan;Endosulfan 1;β-Thionex;α-Endosulfan;α-Benzoepin;Thiodan I;Endosulphan I;α-ES",
    "duplicated_cas_no": "12640-58-3;19595-59-6;29106-31-8;33213-66-0",
    "SMILES": "Cl[C@@]12[C@]3([C@@]([C@@](Cl)(C1(Cl)Cl)C(Cl)=C2Cl)(COS(=O)OC3)[H])[H]",
    "meta_data": {
        "InChI": "InChI=1/C9H6Cl6O3S/c10-5-6(11)8(13)4-2-18-19(16)17-1-3(4)7(5,12)9(8,14)15/h3-4H,1-2H2/t3-,4+,7-,8+,19+",
        "InChIKey": null,
        "Canonical SMILES": "O=S1OCC2C(CO1)C3(Cl)C(Cl)=C(Cl)C2(Cl)C3(Cl)Cl",
        "Molecular Formula": "C<sub>9</sub>H<sub>6</sub>Cl<sub>6</sub>O<sub>3</sub>S",
        "Molecular Mass": "406.93",
        "Melting Point": "109.2 °C"
    }
}