{
    "cas_no": "83465-22-9",
    "key_name": "Valiolamine",
    "cn_name": "井冈霉醇胺;",
    "alternate_name": "<span class=\"text-smallcaps\">D</span>-<em>epi</em>-Inositol, 4-amino-3,4-dideoxy-2-<em>C</em>-(hydroxymethyl)-;4-Amino-3,4-dideoxy-2-<em>C</em>-(hydroxymethyl)-<span class=\"text-smallcaps\">D</span>-<em>epi</em>-inositol;Valiolamine;EB 0155",
    "duplicated_cas_no": "",
    "SMILES": "C(O)[C@]1(O)[C@@H](O)[C@H](O)[C@@H](O)[C@@H](N)C1",
    "meta_data": {
        "InChI": "InChI=1S/C7H15NO5/c8-3-1-7(13,2-9)6(12)5(11)4(3)10/h3-6,9-13H,1-2,8H2/t3-,4-,5+,6-,7-/m0/s1",
        "InChIKey": null,
        "Canonical SMILES": "OCC1(O)CC(N)C(O)C(O)C1O",
        "Molecular Formula": "C<sub>7</sub>H<sub>15</sub>NO<sub>5</sub>",
        "Molecular Mass": "193.20",
        "Melting Point": "176.5-180.3 °C"
    }
}