{
    "cas_no": "3301-61-9",
    "key_name": "16β,17-Dihydroxy-<em>ent</em>-kauran-19-oic acid",
    "cn_name": null,
    "alternate_name": "Kauran-18-oic acid, 16,17-dihydroxy-, (4α)-;Kauran-18-oic acid, 16,17-dihydroxy-;(4α)-16,17-Dihydroxykauran-18-oic acid;16,17-Dihydroxy-16β-(-)-kauran-19-oic acid;(-)-16,17-Dihydroxy-16β-kauran-19-oic acid;16α,17-Hydroxy-(-)-kauran-19-oic acid;<em>ent</em>-16β,17-Dihydroxykauran-19-oic acid;16β,17-Dihydroxy-<em>ent</em>-kauran-19-oic acid;<em>ent</em>-16,17-Dihydroxykauran-19-oic acid;<em>Ent</em>-16α,17-Dihydroxy-kauran-19-oic-acid",
    "duplicated_cas_no": "870250-38-7;874150-53-5;2139370-63-9",
    "SMILES": "C[C@]12[C@]3([C@@]4(C[C@@](CO)(O)[C@@](C4)(CC3)[H])CC[C@@]1([C@@](C(O)=O)(C)CCC2)[H])[H]",
    "meta_data": {
        "InChI": "InChI=1S/C20H32O4/c1-17-7-3-8-18(2,16(22)23)14(17)6-9-19-10-13(4-5-15(17)19)20(24,11-19)12-21/h13-15,21,24H,3-12H2,1-2H3,(H,22,23)/t13-,14+,15+,17-,18-,19+,20+/m1/s1",
        "InChIKey": null,
        "Canonical SMILES": "O=C(O)C1(C)CCCC2(C)C1CCC34CC(CCC32)C(O)(CO)C4",
        "Molecular Formula": "C<sub>20</sub>H<sub>32</sub>O<sub>4</sub>",
        "Molecular Mass": "336.47",
        "Melting Point": "260-262 °C"
    }
}