{
    "cas_no": "2198-64-3",
    "key_name": "<em>N</em>-Benzoyl-<span class=\"text-smallcaps\">L</span>-alanine",
    "cn_name": "N-苯甲酰-L-丙氨酸;",
    "alternate_name": "<span class=\"text-smallcaps\">L</span>-Alanine, <em>N</em>-benzoyl-;Alanine, <em>N</em>-benzoyl-, <span class=\"text-smallcaps\">L</span>-;<em>N</em>-Benzoyl-<span class=\"text-smallcaps\">L</span>-alanine;<em>N</em>-Benzoylalanine;α-Methylhippuric acid;Methylhippuric acid;(<em>S</em>)-α-Methylhippuric acid;(<em>S</em>)-<em>N</em>-Benzoylalanine;<span class=\"text-smallcaps\">L</span>-<em>N</em>-Benzoylalanine;Benzoyl-<span class=\"text-smallcaps\">L</span>-alanine;<em>N</em>-Benzoyl-α-alanine;NSC 167298;NSC 43124;(2S)-2-(Phenylformamido)propanoic acid;Bz-L-Ala-OH",
    "duplicated_cas_no": "115245-45-9;10290-57-0;51769-51-8;55405-91-9;56023-79-1;58247-96-4;90988-29-7",
    "SMILES": "C(N[C@H](C(O)=O)C)(=O)C1=CC=CC=C1",
    "meta_data": {
        "InChI": "InChI=1S/C10H11NO3/c1-7(10(13)14)11-9(12)8-5-3-2-4-6-8/h2-7H,1H3,(H,11,12)(H,13,14)/t7-/m0/s1",
        "InChIKey": null,
        "Canonical SMILES": "O=C(O)C(NC(=O)C=1C=CC=CC1)C",
        "Molecular Formula": "C<sub>10</sub>H<sub>11</sub>NO<sub>3</sub>",
        "Molecular Mass": "193.20",
        "Boiling Point": "148-151 °C",
        "Melting Point": "119 °C"
    }
}