{
    "cas_no": "1085-98-9",
    "key_name": "Dichlofluanid",
    "cn_name": "苯氟磺胺;N-二氯氟甲硫基-N,N\"-二甲基-N-苯基硫酰二胺;N,N-二甲基-N-苯基-(N-氟二氯甲硫基)-磺酰胺;",
    "alternate_name": "Methanesulfenamide, 1,1-dichloro-<em>N</em>-[(dimethylamino)sulfonyl]-1-fluoro-<em>N</em>-phenyl-;Sulfamide, <em>N</em>-[(dichlorofluoromethyl)thio]-<em>N</em>′,<em>N</em>′-dimethyl-<em>N</em>-phenyl-;1,1-Dichloro-<em>N</em>-[(dimethylamino)sulfonyl]-1-fluoro-<em>N</em>-phenylmethanesulfenamide;Bayer 47531;Dichlofluanid;Euparen;<em>N</em>-[(Dichlorofluoromethyl)thio]-<em>N</em>′,<em>N</em>′-dimethyl-<em>N</em>-phenylsulfamide;BAY 47531;<em>N</em>-Phenyl-<em>N</em>-(fluorodichloromethylsulfenyl)-<em>N</em>′,<em>N</em>′-dimethylsulfamide;Dichlofluanide;<em>N</em>,<em>N</em>-Dimethyl-<em>N</em>′-phenyl-<em>N</em>′-(fluorodichloromethylthio)sulfamide;<em>N</em>′-(Dichlorofluoromethylthio)-<em>N</em>,<em>N</em>-dimethyl-<em>N</em>′-phenylsulfamide;Oiparen;<em>N</em>,<em>N</em>-Dimethyl-<em>N</em>′-phenyl-<em>N</em>′-(dichlorofluoromethylthio)sulfamide;Elvaron;Pecudin;Eparen;Diclofluanide;Chlormethionate;Preventol A 4;Preventol A 4S;Coatcide TW;Euparen WG;Lichenicide 246;<em>N</em>,<em>N</em>-Dimethyl-<em>N</em>′-(dichlorofluoromethylthio)-<em>N</em>′-phenylsulfamide;NSC 218451",
    "duplicated_cas_no": "129428-96-2;12698-56-5;56590-61-5;79235-99-7;90416-56-1;1135443-43-4",
    "SMILES": "N(S(N(C)C)(=O)=O)(SC(Cl)(Cl)F)C1=CC=CC=C1",
    "meta_data": {
        "InChI": "InChI=1S/C9H11Cl2FN2O2S2/c1-13(2)18(15,16)14(17-9(10,11)12)8-6-4-3-5-7-8/h3-7H,1-2H3",
        "InChIKey": null,
        "Canonical SMILES": "O=S(=O)(N(SC(F)(Cl)Cl)C=1C=CC=CC1)N(C)C",
        "Molecular Formula": "C<sub>9</sub>H<sub>11</sub>Cl<sub>2</sub>FN<sub>2</sub>O<sub>2</sub>S<sub>2</sub>",
        "Molecular Mass": "333.23",
        "Melting Point": "105-105.6 °C"
    }
}