{
    "cas_no": "5976-47-6",
    "key_name": "2-Chloro-2-propen-1-ol",
    "cn_name": "2-氯-2-丙烯-1-醇;",
    "alternate_name": "2-Propen-1-ol, 2-chloro-;2-Chloroallyl alcohol;2-Chloro-2-propen-1-ol;2-Chloro-2-propenol;2-Chloro-3-hydroxypropene;β-Chloroallyl alcohol;NSC 508743;NSC 87536;2-Chloro-1-prop-2-en-1-ol",
    "duplicated_cas_no": "",
    "SMILES": "C(CO)(=C)Cl",
    "meta_data": {
        "InChI": "InChI=1S/C3H5ClO/c1-3(4)2-5/h5H,1-2H2",
        "InChIKey": null,
        "Canonical SMILES": "ClC(=C)CO",
        "Molecular Formula": "C<sub>3</sub>H<sub>5</sub>ClO",
        "Molecular Mass": "92.52",
        "Boiling Point": "153.6 °C @ Press: 758 Torr",
        "Density": "1.1582 g/cm³ @ Temp: 35 °C"
    }
}