{
    "cas_no": "997-68-2",
    "key_name": "Saccharopine",
    "cn_name": null,
    "alternate_name": "<span class=\"text-smallcaps\">L</span>-Glutamic acid, <em>N</em>-[(5<em>S</em>)-5-amino-5-carboxypentyl]-;Saccharopine;Glutamic acid, <em>N</em>-(5-amino-5-carboxypentyl)-, <span class=\"text-smallcaps\">L</span>-;<span class=\"text-smallcaps\">L</span>-Glutamic acid, <em>N</em>-(5-amino-5-carboxypentyl)-, (<em>S</em>)-;<em>N</em>-[(5<em>S</em>)-5-Amino-5-carboxypentyl]-<span class=\"text-smallcaps\">L</span>-glutamic acid;<span class=\"text-smallcaps\">L</span>-Saccharopine;Saccharopin",
    "duplicated_cas_no": "38495-82-8",
    "SMILES": "[C@@H](CCC(O)=O)(NCCCC[C@@H](C(O)=O)N)C(O)=O",
    "meta_data": {
        "InChI": "InChI=1S/C11H20N2O6/c12-7(10(16)17)3-1-2-6-13-8(11(18)19)4-5-9(14)15/h7-8,13H,1-6,12H2,(H,14,15)(H,16,17)(H,18,19)/t7-,8-/m0/s1",
        "InChIKey": null,
        "Canonical SMILES": "O=C(O)CCC(NCCCCC(N)C(=O)O)C(=O)O",
        "Molecular Formula": "C<sub>11</sub>H<sub>20</sub>N<sub>2</sub>O<sub>6</sub>",
        "Molecular Mass": "276.29",
        "Melting Point": "257-259 °C (decomp)"
    }
}