{
    "cas_no": "654655-69-3",
    "key_name": "3-Benzyl-6-bromo-2-methoxyquinoline",
    "cn_name": null,
    "alternate_name": "Quinoline, 6-bromo-2-methoxy-3-(phenylmethyl)-;6-Bromo-2-methoxy-3-(phenylmethyl)quinoline;3-Benzyl-6-bromo-2-methoxyquinoline",
    "duplicated_cas_no": "",
    "SMILES": "C(C=1C(OC)=NC2=C(C1)C=C(Br)C=C2)C3=CC=CC=C3",
    "meta_data": {
        "InChI": "InChI=1S/C17H14BrNO/c1-20-17-14(9-12-5-3-2-4-6-12)10-13-11-15(18)7-8-16(13)19-17/h2-8,10-11H,9H2,1H3",
        "InChIKey": null,
        "Canonical SMILES": "BrC=1C=CC2=NC(OC)=C(C=C2C1)CC=3C=CC=CC3",
        "Molecular Formula": "C<sub>17</sub>H<sub>14</sub>BrNO",
        "Molecular Mass": "328.20",
        "Melting Point": "82-83 °C"
    }
}