{
    "cas_no": "481-46-9",
    "key_name": "Ginkgetin",
    "cn_name": null,
    "alternate_name": "4<em>H</em>-1-Benzopyran-4-one, 5,7-dihydroxy-8-[5-(5-hydroxy-7-methoxy-4-oxo-4<em>H</em>-1-benzopyran-2-yl)-2-methoxyphenyl]-2-(4-hydroxyphenyl)-;3′′′,8-Biflavone, 4′,5,5′′,7-tetrahydroxy-4′′′,7′′-dimethoxy-;5,7-Dihydroxy-8-[5-(5-hydroxy-7-methoxy-4-oxo-4<em>H</em>-1-benzopyran-2-yl)-2-methoxyphenyl]-2-(4-hydroxyphenyl)-4<em>H</em>-1-benzopyran-4-one;Ginkgetin;Amentoflavone 7′′,4′′′-dimethyl ether;7,4′-Dimethylamentoflavone;Ginkgotin;5,7-Dihydroxy-8-(5-(5-hydroxy-7-methoxy-4-oxo-4<em>H</em>-chromen-2-yl)-2-methoxyphenyl)-2-(4-hydroxyphenyl)-4<em>H</em>-chromen-4-one",
    "duplicated_cas_no": "",
    "SMILES": "OC=1C(=C2C(C(=O)C=C(O2)C3=CC=C(O)C=C3)=C(O)C1)C4=CC(=CC=C4OC)C=5OC=6C(C(=O)C5)=C(O)C=C(OC)C6",
    "meta_data": {
        "InChI": "InChI=1S/C32H22O10/c1-39-18-10-20(34)30-23(37)13-27(41-28(30)11-18)16-5-8-25(40-2)19(9-16)29-21(35)12-22(36)31-24(38)14-26(42-32(29)31)15-3-6-17(33)7-4-15/h3-14,33-36H,1-2H3",
        "InChIKey": null,
        "Canonical SMILES": "O=C1C=C(OC2=CC(OC)=CC(O)=C12)C=3C=CC(OC)=C(C3)C4=C(O)C=C(O)C=5C(=O)C=C(OC54)C=6C=CC(O)=CC6",
        "Molecular Formula": "C<sub>32</sub>H<sub>22</sub>O<sub>10</sub>",
        "Molecular Mass": "566.51",
        "Melting Point": "297 °C"
    }
}