{
    "cas_no": "7699-45-8",
    "key_name": "Zinc bromide",
    "cn_name": "溴化锌;",
    "alternate_name": "Zinc bromide (ZnBr<sub>2</sub>);Zinc bromide;Zinc dibromide",
    "duplicated_cas_no": "",
    "SMILES": "[Zn](Br)Br",
    "meta_data": {
        "InChI": "InChI=1S/2BrH.Zn/h2*1H;/q;;+2/p-2",
        "InChIKey": null,
        "Canonical SMILES": "Br[Zn]Br",
        "Molecular Formula": "Br<sub>2</sub>Zn",
        "Molecular Mass": "",
        "Boiling Point": "697 °C",
        "Melting Point": "394 °C",
        "Density": "4.3 g/cm³"
    }
}