{
    "cas_no": "1678-53-1",
    "key_name": "3-Methyl-4-nitropyridine",
    "cn_name": "3-甲基-4-硝基吡啶;",
    "alternate_name": "Pyridine, 3-methyl-4-nitro-;3-Picoline, 4-nitro-;3-Methyl-4-nitropyridine",
    "duplicated_cas_no": "",
    "SMILES": "N(=O)(=O)C=1C(C)=CN=CC1",
    "meta_data": {
        "InChI": "InChI=1S/C6H6N2O2/c1-5-4-7-3-2-6(5)8(9)10/h2-4H,1H3",
        "InChIKey": null,
        "Canonical SMILES": "O=N(=O)C=1C=CN=CC1C",
        "Molecular Formula": "C<sub>6</sub>H<sub>6</sub>N<sub>2</sub>O<sub>2</sub>",
        "Molecular Mass": "138.12",
        "Boiling Point": "57-59 °C @ Press: 0.4 Torr",
        "Melting Point": "28-29 °C"
    }
}