{
    "cas_no": "38186-88-8",
    "key_name": "2-Chloro-5-fluoronicotinic acid",
    "cn_name": "2-氯-5-氟烟酸;",
    "alternate_name": "3-Pyridinecarboxylic acid, 2-chloro-5-fluoro-;2-Chloro-5-fluoro-3-pyridinecarboxylic acid;2-Chloro-5-fluoronicotinic acid;2-Chloro-5-fluoropyridine-3-carboxylic acid",
    "duplicated_cas_no": "",
    "SMILES": "C(O)(=O)C1=C(Cl)N=CC(F)=C1",
    "meta_data": {
        "InChI": "InChI=1S/C6H3ClFNO2/c7-5-4(6(10)11)1-3(8)2-9-5/h1-2H,(H,10,11)",
        "InChIKey": null,
        "Canonical SMILES": "O=C(O)C1=CC(F)=CN=C1Cl",
        "Molecular Formula": "C<sub>6</sub>H<sub>3</sub>ClFNO<sub>2</sub>",
        "Molecular Mass": "175.54",
        "Melting Point": "132.9-134.0 °C"
    }
}