{
    "cas_no": "52085-14-0",
    "key_name": "2-Hydroxy-4-(phenylmethoxy)benzaldehyde",
    "cn_name": null,
    "alternate_name": "Benzaldehyde, 2-hydroxy-4-(phenylmethoxy)-;Salicylaldehyde, 4-(benzyloxy)-;2-Hydroxy-4-(phenylmethoxy)benzaldehyde;2-Hydroxy-4-(benzyloxy)benzaldehyde;4-(Benzyloxy)-2-hydroxybenzaldehyde;4-(Benzyloxy)salicylaldehyde",
    "duplicated_cas_no": "",
    "SMILES": "O(CC1=CC=CC=C1)C2=CC(O)=C(C=O)C=C2",
    "meta_data": {
        "InChI": "InChI=1S/C14H12O3/c15-9-12-6-7-13(8-14(12)16)17-10-11-4-2-1-3-5-11/h1-9,16H,10H2",
        "InChIKey": null,
        "Canonical SMILES": "O=CC1=CC=C(OCC=2C=CC=CC2)C=C1O",
        "Molecular Formula": "C<sub>14</sub>H<sub>12</sub>O<sub>3</sub>",
        "Molecular Mass": "228.24",
        "Boiling Point": "165-175 °C @ Press: 1 Torr",
        "Melting Point": "77-80 °C"
    }
}