{
    "cas_no": "38512-82-2",
    "key_name": "2-Methoxy-4-methyl-1-nitrobenzene",
    "cn_name": "甲基-2-硝基茴香醚;",
    "alternate_name": "Benzene, 2-methoxy-4-methyl-1-nitro-;Anisole, 5-methyl-2-nitro-;2-Methoxy-4-methyl-1-nitrobenzene;5-Methyl-2-nitroanisole;3-Methyl-6-nitroanisole;3-Methoxy-4-nitrotoluene;2-Methoxy-4-methylnitrobenzene;2-Nitro-5-methylanisole;NSC 124451",
    "duplicated_cas_no": "",
    "SMILES": "O(C)C1=C(N(=O)=O)C=CC(C)=C1",
    "meta_data": {
        "InChI": "InChI=1S/C8H9NO3/c1-6-3-4-7(9(10)11)8(5-6)12-2/h3-5H,1-2H3",
        "InChIKey": null,
        "Canonical SMILES": "O=N(=O)C1=CC=C(C=C1OC)C",
        "Molecular Formula": "C<sub>8</sub>H<sub>9</sub>NO<sub>3</sub>",
        "Molecular Mass": "167.16",
        "Boiling Point": "153 °C @ Press: 12 Torr",
        "Melting Point": "57-58 °C"
    }
}