{
    "cas_no": "613-51-4",
    "key_name": "7-Nitroquinoline",
    "cn_name": null,
    "alternate_name": "Quinoline, 7-nitro-;7-Nitroquinoline;NSC 137449;7-(Hydroxyl[<em>oxido</em>]amino)quinoline",
    "duplicated_cas_no": "",
    "SMILES": "N(=O)(=O)C1=CC2=C(C=C1)C=CC=N2",
    "meta_data": {
        "InChI": "InChI=1S/C9H6N2O2/c12-11(13)8-4-3-7-2-1-5-10-9(7)6-8/h1-6H",
        "InChIKey": null,
        "Canonical SMILES": "O=N(=O)C1=CC=C2C=CC=NC2=C1",
        "Molecular Formula": "C<sub>9</sub>H<sub>6</sub>N<sub>2</sub>O<sub>2</sub>",
        "Molecular Mass": "174.16",
        "Melting Point": "132.5 °C"
    }
}