{
    "cas_no": "552-89-6",
    "key_name": "2-Nitrobenzaldehyde",
    "cn_name": "邻硝基苯甲醛;",
    "alternate_name": "Benzaldehyde, 2-nitro-;Benzaldehyde, <em>o</em>-nitro-;<em>o</em>-Nitrobenzaldehyde;2-Nitrobenzaldehyde;1-Formyl-2-nitrobenzene;2-Formyl-3-nitrobenzene;NSC 5713;2-Nitrobenzenecarboxaldehyde;2-Formyl-1-nitrobenzene",
    "duplicated_cas_no": "2130991-52-3",
    "SMILES": "C(=O)C1=C(N(=O)=O)C=CC=C1",
    "meta_data": {
        "InChI": "InChI=1S/C7H5NO3/c9-5-6-3-1-2-4-7(6)8(10)11/h1-5H",
        "InChIKey": null,
        "Canonical SMILES": "O=CC=1C=CC=CC1N(=O)=O",
        "Molecular Formula": "C<sub>7</sub>H<sub>5</sub>NO<sub>3</sub>",
        "Molecular Mass": "151.12",
        "Boiling Point": "153 °C @ Press: 23 Torr",
        "Melting Point": "43.5 °C"
    }
}