{
    "cas_no": "100-43-6",
    "key_name": "4-Vinylpyridine",
    "cn_name": "4-乙烯基吡啶;",
    "alternate_name": "Pyridine, 4-ethenyl-;Pyridine, 4-vinyl-;4-Ethenylpyridine;4-Vinylpyridine;γ-Vinylpyridine;NSC 18256;2-(4-Pyridyl)ethylene;Pyridinium, 1-cyano-4-ethenyl-",
    "duplicated_cas_no": "80347-34-8;2923182-56-1",
    "SMILES": "C(=C)C=1C=CN=CC1",
    "meta_data": {
        "InChI": "InChI=1S/C7H7N/c1-2-7-3-5-8-6-4-7/h2-6H,1H2",
        "InChIKey": null,
        "Canonical SMILES": "N=1C=CC(C=C)=CC1",
        "Molecular Formula": "C<sub>7</sub>H<sub>7</sub>N",
        "Molecular Mass": "105.14",
        "Boiling Point": "65 °C @ Press: 15 Torr",
        "Melting Point": "&lt;25 °C",
        "Density": "0.9800 g/cm³ @ Temp: 20 °C"
    }
}