{
    "cas_no": "482-45-1",
    "key_name": "Isoimperatorin",
    "cn_name": "异欧前胡素;4-(3-甲基丁-2-烯氧基)呋喃并[3,2-g]苯并吡喃-7-酮;",
    "alternate_name": "7<em>H</em>-Furo[3,2-<em>g</em>][1]benzopyran-7-one, 4-[(3-methyl-2-buten-1-yl)oxy]-;Isoimperatorin;7<em>H</em>-Furo[3,2-<em>g</em>][1]benzopyran-7-one, 4-[(3-methyl-2-butenyl)oxy]-;4-[(3-Methyl-2-buten-1-yl)oxy]-7<em>H</em>-furo[3,2-<em>g</em>][1]benzopyran-7-one",
    "duplicated_cas_no": "",
    "SMILES": "O(CC=C(C)C)C=1C2=C(C=C3C1C=CO3)OC(=O)C=C2",
    "meta_data": {
        "InChI": "InChI=1S/C16H14O4/c1-10(2)5-7-19-16-11-3-4-15(17)20-14(11)9-13-12(16)6-8-18-13/h3-6,8-9H,7H2,1-2H3",
        "InChIKey": null,
        "Canonical SMILES": "O=C1OC=2C=C3OC=CC3=C(OCC=C(C)C)C2C=C1",
        "Molecular Formula": "C<sub>16</sub>H<sub>14</sub>O<sub>4</sub>",
        "Molecular Mass": "270.28",
        "Melting Point": "109 °C"
    }
}