{
    "cas_no": "59662-49-6",
    "key_name": "4′-Octyl[1,1′-biphenyl]-4-carboxylic acid",
    "cn_name": "对辛基联苯甲酸;",
    "alternate_name": "[1,1′-Biphenyl]-4-carboxylic acid, 4′-octyl-;4′-Octyl[1,1′-biphenyl]-4-carboxylic acid;4′-Octylbiphenyl-4-carboxylic acid;8BCA;4′-<em>n</em>-Octylbiphenyl-4-carboxylic acid;AC 55649;4′-Octyl-1,1′-biphenyl-4-carboxylic acid",
    "duplicated_cas_no": "",
    "SMILES": "C(O)(=O)C1=CC=C(C=C1)C2=CC=C(CCCCCCCC)C=C2",
    "meta_data": {
        "InChI": "InChI=1S/C21H26O2/c1-2-3-4-5-6-7-8-17-9-11-18(12-10-17)19-13-15-20(16-14-19)21(22)23/h9-16H,2-8H2,1H3,(H,22,23)",
        "InChIKey": null,
        "Canonical SMILES": "O=C(O)C=1C=CC(=CC1)C2=CC=C(C=C2)CCCCCCCC",
        "Molecular Formula": "C<sub>21</sub>H<sub>26</sub>O<sub>2</sub>",
        "Molecular Mass": "310.43",
        "Melting Point": "148-152 °C"
    }
}