{
    "cas_no": "6276-03-5",
    "key_name": "9<em>H</em>-Fluorene-1-carboxylic acid",
    "cn_name": null,
    "alternate_name": "9<em>H</em>-Fluorene-1-carboxylic acid;Fluorene-1-carboxylic acid;NSC 36445;1-Carboxyfluorene;Fluorine-1-carbocylic acid",
    "duplicated_cas_no": "",
    "SMILES": "C(O)(=O)C1=C2C(C=3C(C2)=CC=CC3)=CC=C1",
    "meta_data": {
        "InChI": "InChI=1S/C14H10O2/c15-14(16)12-7-3-6-11-10-5-2-1-4-9(10)8-13(11)12/h1-7H,8H2,(H,15,16)",
        "InChIKey": null,
        "Canonical SMILES": "O=C(O)C1=CC=CC=2C=3C=CC=CC3CC12",
        "Molecular Formula": "C<sub>14</sub>H<sub>10</sub>O<sub>2</sub>",
        "Molecular Mass": "210.23",
        "Melting Point": "246-249 °C"
    }
}