{
    "cas_no": "577-72-0",
    "key_name": "4-Methoxy-3-nitrobenzenamine",
    "cn_name": "4-甲氧基-3-硝基苯胺;",
    "alternate_name": "Benzenamine, 4-methoxy-3-nitro-;<em>p</em>-Anisidine, 3-nitro-;4-Methoxy-3-nitrobenzenamine;1-Amino-3-nitro-4-methoxybenzene;4-Amino-2-nitroanisole;4-Methoxy-3-nitroaniline;3-Nitro-4-methoxyaniline;3-Nitro-<em>p</em>-anisidine",
    "duplicated_cas_no": "",
    "SMILES": "N(=O)(=O)C1=C(OC)C=CC(N)=C1",
    "meta_data": {
        "InChI": "InChI=1S/C7H8N2O3/c1-12-7-3-2-5(8)4-6(7)9(10)11/h2-4H,8H2,1H3",
        "InChIKey": null,
        "Canonical SMILES": "O=N(=O)C1=CC(N)=CC=C1OC",
        "Molecular Formula": "C<sub>7</sub>H<sub>8</sub>N<sub>2</sub>O<sub>3</sub>",
        "Molecular Mass": "168.15",
        "Melting Point": "46-47 °C"
    }
}