{
    "cas_no": "367-25-9",
    "key_name": "2,4-Difluoroaniline",
    "cn_name": "2,4-二氟苯胺;",
    "alternate_name": "Benzenamine, 2,4-difluoro-;Aniline, 2,4-difluoro-;2,4-Difluorobenzenamine;2,4-Difluoroaniline;2,4-Difluorophenylamine;NSC 10297",
    "duplicated_cas_no": "",
    "SMILES": "FC1=C(N)C=CC(F)=C1",
    "meta_data": {
        "InChI": "InChI=1S/C6H5F2N/c7-4-1-2-6(9)5(8)3-4/h1-3H,9H2",
        "InChIKey": null,
        "Canonical SMILES": "FC1=CC=C(N)C(F)=C1",
        "Molecular Formula": "C<sub>6</sub>H<sub>5</sub>F<sub>2</sub>N",
        "Molecular Mass": "129.11",
        "Boiling Point": "170 °C",
        "Melting Point": "-7.5 °C"
    }
}