{
    "cas_no": "2312-15-4",
    "key_name": "4-(Dodecyloxy)benzoic acid",
    "cn_name": "4-十二烷氧基苯甲酸;对十二烷氧基苯甲酸;",
    "alternate_name": "Benzoic acid, 4-(dodecyloxy)-;Benzoic acid, <em>p</em>-(dodecyloxy)-;4-(Dodecyloxy)benzoic acid;<em>p</em>-(Dodecyloxy)benzoic acid;4-(<em>n</em>-Dodecyloxy)benzoic acid;NSC 411;<em>p</em>-<em>n</em>-Dodecyloxybenzoic acid",
    "duplicated_cas_no": "",
    "SMILES": "O(CCCCCCCCCCCC)C1=CC=C(C(O)=O)C=C1",
    "meta_data": {
        "InChI": "InChI=1S/C19H30O3/c1-2-3-4-5-6-7-8-9-10-11-16-22-18-14-12-17(13-15-18)19(20)21/h12-15H,2-11,16H2,1H3,(H,20,21)",
        "InChIKey": null,
        "Canonical SMILES": "O=C(O)C1=CC=C(OCCCCCCCCCCCC)C=C1",
        "Molecular Formula": "C<sub>19</sub>H<sub>30</sub>O<sub>3</sub>",
        "Molecular Mass": "306.44",
        "Melting Point": "95 °C"
    }
}