{
    "cas_no": "3622-32-0",
    "key_name": "2-Chloro-4-methylbenzothiazole",
    "cn_name": "2-氯-4-甲基苯并噻唑;",
    "alternate_name": "Benzothiazole, 2-chloro-4-methyl-;2-Chloro-4-methylbenzothiazole;2-Chloro-4-methyl-1,3-benzothiazole",
    "duplicated_cas_no": "",
    "SMILES": "CC1=C2C(SC(Cl)=N2)=CC=C1",
    "meta_data": {
        "InChI": "InChI=1S/C8H6ClNS/c1-5-3-2-4-6-7(5)10-8(9)11-6/h2-4H,1H3",
        "InChIKey": null,
        "Canonical SMILES": "ClC1=NC=2C(S1)=CC=CC2C",
        "Molecular Formula": "C<sub>8</sub>H<sub>6</sub>ClNS",
        "Molecular Mass": "183.66",
        "Boiling Point": "130 °C @ Press: 9 Torr",
        "Melting Point": "49-50 °C"
    }
}