{
    "cas_no": "53562-86-0",
    "key_name": "Methyl (+)-3-hydroxybutanoate",
    "cn_name": "(S)-3-羟基丁酸甲酯;",
    "alternate_name": "Butanoic acid, 3-hydroxy-, methyl ester, (3<em>S</em>)-;Butanoic acid, 3-hydroxy-, methyl ester, (<em>S</em>)-;Methyl (<em>S</em>)-3-hydroxybutyrate;(<em>S</em>)-Methyl 3-hydroxybutanoate;(<em>S</em>)-3-Hydroxybutanoic acid methyl ester;Methyl (+)-3-hydroxybutanoate;(+)-(3<em>S</em>)-3-Hydroxybutanoic acid methyl ester;(3<em>S</em>)-3-Hydroxybutanoic acid methyl ester;(<em>S</em>)-3-Hydroxybutyric acid methyl ester",
    "duplicated_cas_no": "",
    "SMILES": "C(C[C@H](C)O)(OC)=O",
    "meta_data": {
        "InChI": "InChI=1S/C5H10O3/c1-4(6)3-5(7)8-2/h4,6H,3H2,1-2H3/t4-/m0/s1",
        "InChIKey": null,
        "Canonical SMILES": "O=C(OC)CC(O)C",
        "Molecular Formula": "C<sub>5</sub>H<sub>10</sub>O<sub>3</sub>",
        "Molecular Mass": "118.13",
        "Boiling Point": "70-72 °C @ Press: 17 Torr",
        "Density": "1.0524 g/cm³ @ Temp: 25.00 °C"
    }
}