{
    "cas_no": "53066-19-6",
    "key_name": "2,6-Dichloro-α-methylbenzenemethanol",
    "cn_name": "1-(2,6-二氯苯基)乙醇;",
    "alternate_name": "Benzenemethanol, 2,6-dichloro-α-methyl-;Benzyl alcohol, 2,6-dichloro-α-methyl-;2,6-Dichloro-α-methylbenzenemethanol;2,6-Dichloro-α-methylbenzyl alcohol;1-(2,6-Dichlorophenyl)ethanol;1-(2,6-Dichlorophenyl)ethan-1-ol",
    "duplicated_cas_no": "",
    "SMILES": "C(C)(O)C1=C(Cl)C=CC=C1Cl",
    "meta_data": {
        "InChI": "InChI=1S/C8H8Cl2O/c1-5(11)8-6(9)3-2-4-7(8)10/h2-5,11H,1H3",
        "InChIKey": null,
        "Canonical SMILES": "ClC1=CC=CC(Cl)=C1C(O)C",
        "Molecular Formula": "C<sub>8</sub>H<sub>8</sub>Cl<sub>2</sub>O",
        "Molecular Mass": "191.05",
        "Boiling Point": "134-136 °C @ Press: 13 Torr",
        "Melting Point": "34-35 °C"
    }
}