{
    "cas_no": "30216-52-5",
    "key_name": "Thiazole, 2-hydrazinyl-, hydrochloride (1:1)",
    "cn_name": null,
    "alternate_name": "Thiazole, 2-hydrazinyl-, hydrochloride (1:1);Thiazole, 2-hydrazino-, monohydrochloride;2(3<em>H</em>)-Thiazolone, hydrazone, monohydrochloride;2-Hydrazinylthiazole hydrochloride",
    "duplicated_cas_no": "",
    "SMILES": "N(N)=C1NC=CS1.Cl",
    "meta_data": {
        "InChI": "InChI=1S/C3H5N3S.ClH/c4-6-3-5-1-2-7-3;/h1-2H,4H2,(H,5,6);1H",
        "InChIKey": null,
        "Canonical SMILES": "Cl.N(N)=C1SC=CN1",
        "Molecular Formula": "C<sub>3</sub>H<sub>5</sub>N<sub>3</sub>S.ClH",
        "Molecular Mass": "",
        "Melting Point": "104 °C"
    }
}