{
    "cas_no": "1063-77-0",
    "key_name": "Nomilin",
    "cn_name": "诺米林;",
    "alternate_name": "Oxireno[4,4a]-2-benzopyrano[6,5-<em>g</em>][2]benzoxepin-3,5,9(3a<em>H</em>,4b<em>H</em>,6<em>H</em>)-trione, 11-(acetyloxy)-1-(3-furanyl)decahydro-4b,7,7,11a,13a-pentamethyl-, (1<em>S</em>,3a<em>S</em>,4a<em>R</em>,4b<em>R</em>,6a<em>R</em>,11<em>S</em>,11a<em>R</em>,11b<em>R</em>,13a<em>S</em>)-;Oxireno[4,4a]-2-benzopyrano[6,5-<em>g</em>][2]benzoxepin-3,5,9(3a<em>H</em>,4b<em>H</em>,6<em>H</em>)-trione, 1-(3-furyl)decahydro-11-hydroxy-4b,7,7,11a,13a-pentamethyl-, acetate;Nomilin;Obacunoic acid, 1-(acetyloxy)-1,2-dihydro-, ε-lactone;(1<em>S</em>,3a<em>S</em>,4a<em>R</em>,4b<em>R</em>,6a<em>R</em>,11<em>S</em>,11a<em>R</em>,11b<em>R</em>,13a<em>S</em>)-11-(Acetyloxy)-1-(3-furanyl)decahydro-4b,7,7,11a,13a-pentamethyloxireno[4,4a]-2-benzopyrano[6,5-<em>g</em>][2]benzoxepin-3,5,9(3a<em>H</em>,4b<em>H</em>,6<em>H</em>)-trione;Oxireno[4,4a]-2-benzopyrano[6,5-<em>g</em>][2]benzoxepin-3,5,9(3a<em>H</em>,4b<em>H</em>,6<em>H</em>)-trione, 11-(acetyloxy)-1-(3-furanyl)decahydro-4b,7,7,11a,13a-pentamethyl-, [1<em>S</em>-(1α,3aα,4a<em>S</em>*,4bβ,6aα,11α,11aβ,11bα,13aα)]-;NSC 297134",
    "duplicated_cas_no": "",
    "SMILES": "C[C@]12[C@]34[C@](C)([C@@H](OC(=O)[C@]3(O4)[H])C=5C=COC5)CC[C@@]1([C@]6(C)[C@@](CC2=O)(C(C)(C)OC(=O)C[C@@H]6OC(C)=O)[H])[H]",
    "meta_data": {
        "InChI": "InChI=1S/C28H34O9/c1-14(29)34-19-12-20(31)36-24(2,3)17-11-18(30)27(6)16(26(17,19)5)7-9-25(4)21(15-8-10-33-13-15)35-23(32)22-28(25,27)37-22/h8,10,13,16-17,19,21-22H,7,9,11-12H2,1-6H3/t16-,17+,19+,21+,22-,25+,26-,27+,28-/m1/s1",
        "InChIKey": null,
        "Canonical SMILES": "O=C(OC1CC(=O)OC(C)(C)C2CC(=O)C3(C)C(CCC4(C)C(OC(=O)C5OC534)C6=COC=C6)C12C)C",
        "Molecular Formula": "C<sub>28</sub>H<sub>34</sub>O<sub>9</sub>",
        "Molecular Mass": "514.56",
        "Melting Point": "278-279 °C (decomp)"
    }
}