{
    "cas_no": "4518-98-3",
    "key_name": "1,1,2,2-Tetrachloro-1,2-dimethyldisilane",
    "cn_name": "1,2-二甲基-1,1,2,2-四氯二硅烷;",
    "alternate_name": "Disilane, 1,1,2,2-tetrachloro-1,2-dimethyl-;1,1,2,2-Tetrachloro-1,2-dimethyldisilane;1,2-Dimethyltetrachlorodisilane;1,1,2,2-Tetrachlorodimethyldisilane;<em>sym</em>-Dimethyltetrachlorodisilane;1,2-Dimethyl-1,1,2,2-tetrachlorodisilane",
    "duplicated_cas_no": "12192-38-0",
    "SMILES": "[Si]([Si](C)(Cl)Cl)(C)(Cl)Cl",
    "meta_data": {
        "InChI": "InChI=1S/C2H6Cl4Si2/c1-7(3,4)8(2,5)6/h1-2H3",
        "InChIKey": null,
        "Canonical SMILES": "Cl[Si](Cl)(C)[Si](Cl)(Cl)C",
        "Molecular Formula": "C<sub>2</sub>H<sub>6</sub>Cl<sub>4</sub>Si<sub>2</sub>",
        "Molecular Mass": "228.05",
        "Boiling Point": "45 °C @ Press: 5 Torr"
    }
}