{
    "cas_no": "5654-97-7",
    "key_name": "1,3-Dihydro-2<em>H</em>-pyrrolo[2,3-<em>b</em>]pyridin-2-one",
    "cn_name": null,
    "alternate_name": "2<em>H</em>-Pyrrolo[2,3-<em>b</em>]pyridin-2-one, 1,3-dihydro-;1,3-Dihydro-2<em>H</em>-pyrrolo[2,3-<em>b</em>]pyridin-2-one;7-Azaoxindole;7-Aza-2-oxindole;1,3-Dihydropyrrolo[2,3-<em>b</em>]pyridin-2-one;1<em>H</em>-Pyrrolo[2,3-<em>b</em>]pyridin-2(3<em>H</em>)-one;1<em>H</em>,2<em>H</em>,3<em>H</em>-Pyrrolo[2,3-<em>b</em>]pyridin-2-one",
    "duplicated_cas_no": "",
    "SMILES": "O=C1CC=2C(N1)=NC=CC2",
    "meta_data": {
        "InChI": "InChI=1S/C7H6N2O/c10-6-4-5-2-1-3-8-7(5)9-6/h1-3H,4H2,(H,8,9,10)",
        "InChIKey": null,
        "Canonical SMILES": "O=C1NC2=NC=CC=C2C1",
        "Molecular Formula": "C<sub>7</sub>H<sub>6</sub>N<sub>2</sub>O",
        "Molecular Mass": "134.14",
        "Melting Point": "175 °C"
    }
}