{
    "cas_no": "20442-79-9",
    "key_name": "3-Iodobiphenyl",
    "cn_name": null,
    "alternate_name": "1,1′-Biphenyl, 3-iodo-;Biphenyl, 3-iodo-;3-Iodo-1,1′-biphenyl;3-Iodobiphenyl;3-Biphenyl iodide;<em>m</em>-Iodobiphenyl;1-Iodo-3-phenylbenzene",
    "duplicated_cas_no": "",
    "SMILES": "IC=1C=C(C=CC1)C2=CC=CC=C2",
    "meta_data": {
        "InChI": "InChI=1S/C12H9I/c13-12-8-4-7-11(9-12)10-5-2-1-3-6-10/h1-9H",
        "InChIKey": null,
        "Canonical SMILES": "IC1=CC=CC(=C1)C=2C=CC=CC2",
        "Molecular Formula": "C<sub>12</sub>H<sub>9</sub>I",
        "Molecular Mass": "280.10",
        "Boiling Point": "149-152 °C @ Press: 1 Torr",
        "Melting Point": "26.5 °C"
    }
}