{
    "cas_no": "583-15-3",
    "key_name": "Benzoic acid, mercury(2+) salt (2:1)",
    "cn_name": "苯甲酸汞;",
    "alternate_name": "Benzoic acid, mercury(2+) salt (2:1);Benzoic acid, mercury(2+) salt;Mercury benzoate;Mercuric benzoate;β-Mercuribenzoate;Mercury(II) benzoate;Mercuribenzoate",
    "duplicated_cas_no": "875253-16-0;875814-94-1",
    "SMILES": "C(O)(=O)C1=CC=CC=C1.[Hg]",
    "meta_data": {
        "InChI": "InChI=1S/C7H6O2.Hg/c8-7(9)6-4-2-1-3-5-6;/h1-5H,(H,8,9);",
        "InChIKey": null,
        "Canonical SMILES": "[Hg].O=C(O)C=1C=CC=CC1",
        "Molecular Formula": "C<sub>7</sub>H<sub>6</sub>O<sub>2</sub>.<sup>1</sup>/<sub>2</sub>Hg",
        "Molecular Mass": "",
        "Melting Point": "165 °C"
    }
}