{
    "cas_no": "26028-65-9",
    "key_name": "5-(4-Chlorophenyl)-1,2-dihydro-3<em>H</em>-1,2,4-triazole-3-thione",
    "cn_name": "5-(4-氯苯基)-2,4-二氢-[1,2,4]-三唑-3-硫酮;",
    "alternate_name": "3<em>H</em>-1,2,4-Triazole-3-thione, 5-(4-chlorophenyl)-1,2-dihydro-;<em>s</em>-Triazole-3-thiol, 5-(<em>p</em>-chlorophenyl)-;5-(4-Chlorophenyl)-1,2-dihydro-3<em>H</em>-1,2,4-triazole-3-thione;5-(<em>p</em>-Chlorophenyl)-1,2,4-triazole-3-thiol;3-(4-Chlorophenyl)-1,2,4-triazole-5-thiol",
    "duplicated_cas_no": "",
    "SMILES": "S=C1NC(C2=CC=C(Cl)C=C2)=NN1",
    "meta_data": {
        "InChI": "InChI=1S/C8H6ClN3S/c9-6-3-1-5(2-4-6)7-10-8(13)12-11-7/h1-4H,(H2,10,11,12,13)",
        "InChIKey": null,
        "Canonical SMILES": "S=C1NN=C(N1)C=2C=CC(Cl)=CC2",
        "Molecular Formula": "C<sub>8</sub>H<sub>6</sub>ClN<sub>3</sub>S",
        "Molecular Mass": "211.67",
        "Melting Point": "298 °C"
    }
}