{
    "cas_no": "15987-00-5",
    "key_name": "2-Butyl-3-methylpyrazine",
    "cn_name": "2-丁基-3-甲基吡嗪;",
    "alternate_name": "Pyrazine, 2-butyl-3-methyl-;2-Butyl-3-methylpyrazine;2-Methyl-3-butylpyrazine",
    "duplicated_cas_no": "",
    "SMILES": "C(CCC)C=1C(C)=NC=CN1",
    "meta_data": {
        "InChI": "InChI=1S/C9H14N2/c1-3-4-5-9-8(2)10-6-7-11-9/h6-7H,3-5H2,1-2H3",
        "InChIKey": null,
        "Canonical SMILES": "N=1C=CN=C(C1C)CCCC",
        "Molecular Formula": "C<sub>9</sub>H<sub>14</sub>N<sub>2</sub>",
        "Molecular Mass": "150.22",
        "Boiling Point": "97-99 °C @ Press: 18 Torr"
    }
}