{
    "cas_no": "814-68-6",
    "key_name": "Acryloyl chloride",
    "cn_name": "丙烯酰氯;",
    "alternate_name": "2-Propenoyl chloride;Acryloyl chloride;Acrylyl chloride;Acrylic acid chloride;Propenoyl chloride;NSC 93770;A 0147",
    "duplicated_cas_no": "",
    "SMILES": "C(C=C)(Cl)=O",
    "meta_data": {
        "InChI": "InChI=1S/C3H3ClO/c1-2-3(4)5/h2H,1H2",
        "InChIKey": null,
        "Canonical SMILES": "O=C(Cl)C=C",
        "Molecular Formula": "C<sub>3</sub>H<sub>3</sub>ClO",
        "Molecular Mass": "90.51",
        "Boiling Point": "75 °C",
        "Density": "1.1136 g/cm³ @ Temp: 20 °C"
    }
}