{
    "cas_no": "1027-14-1",
    "key_name": "Mesocaine",
    "cn_name": null,
    "alternate_name": "Acetamide, 2-(diethylamino)-<em>N</em>-(2,4,6-trimethylphenyl)-, hydrochloride (1:1);Acetanilide, 2-(diethylamino)-2′,4′,6′-trimethyl-, monohydrochloride;Acetamide, 2-(diethylamino)-<em>N</em>-(2,4,6-trimethylphenyl)-, monohydrochloride;Acetanilide, 2-diethylamino-2′,4′,6′-trimethyl-, hydrochloride;Trimecaine hydrochloride;Trimekain hydrochloride;Mesocaine;Mesocain;2-Diethylamino-<em>N</em>-(2,4,6-trimethyl-phenyl)-acetamide; hydrochloride;2-(Diethylamino)-<em>N</em>-mesitylacetamide hydrochloride",
    "duplicated_cas_no": "",
    "SMILES": "N(C(CN(CC)CC)=O)C1=C(C)C=C(C)C=C1C.Cl",
    "meta_data": {
        "InChI": "InChI=1S/C15H24N2O.ClH/c1-6-17(7-2)10-14(18)16-15-12(4)8-11(3)9-13(15)5;/h8-9H,6-7,10H2,1-5H3,(H,16,18);1H",
        "InChIKey": null,
        "Canonical SMILES": "Cl.O=C(NC=1C(=CC(=CC1C)C)C)CN(CC)CC",
        "Molecular Formula": "C<sub>15</sub>H<sub>24</sub>N<sub>2</sub>O.ClH",
        "Molecular Mass": "",
        "Melting Point": "136-137 °C"
    }
}