{
    "cas_no": "2140-65-0",
    "key_name": "1-Methylguanosine",
    "cn_name": "1-甲基鸟酐(0度以下保存);1-甲基鸟酐(0度以下保存);",
    "alternate_name": "Guanosine, 1-methyl-;1-Methylguanosine;<em>N</em><sup>1</sup>-Methylguanosine;NSC 70897",
    "duplicated_cas_no": "",
    "SMILES": "O[C@H]1[C@H](N2C3=C(N=C2)C(=O)N(C)C(N)=N3)O[C@H](CO)[C@H]1O",
    "meta_data": {
        "InChI": "InChI=1S/C11H15N5O5/c1-15-9(20)5-8(14-11(15)12)16(3-13-5)10-7(19)6(18)4(2-17)21-10/h3-4,6-7,10,17-19H,2H2,1H3,(H2,12,14)/t4-,6-,7-,10-/m1/s1",
        "InChIKey": null,
        "Canonical SMILES": "O=C1C=2N=CN(C2N=C(N)N1C)C3OC(CO)C(O)C3O",
        "Molecular Formula": "C<sub>11</sub>H<sub>15</sub>N<sub>5</sub>O<sub>5</sub>",
        "Molecular Mass": "297.27",
        "Melting Point": "163 °C"
    }
}