{
    "cas_no": "119192-09-5",
    "key_name": "1-(4-Nitrobenzyl)-1<em>H</em>-1,2,4-triazole",
    "cn_name": "1-(4-硝基苯基)甲基-1,2,4-三氮唑;",
    "alternate_name": "1<em>H</em>-1,2,4-Triazole, 1-[(4-nitrophenyl)methyl]-;1-[(4-Nitrophenyl)methyl]-1<em>H</em>-1,2,4-triazole;4-(1,2,4-Triazol-1-ylmethyl)nitrobenzene;1-(4-Nitrobenzyl)-1<em>H</em>-1,2,4-triazole;1-(4-Nitrobenzyl)-1,2,4-triazole;1-(4-Nitrophenyl)methyl-1,2,4-triazole;1-[(4-Nitrophenyl)methyl]-1,2,4-triazole",
    "duplicated_cas_no": "",
    "SMILES": "C(C1=CC=C(N(=O)=O)C=C1)N2C=NC=N2",
    "meta_data": {
        "InChI": "InChI=1S/C9H8N4O2/c14-13(15)9-3-1-8(2-4-9)5-12-7-10-6-11-12/h1-4,6-7H,5H2",
        "InChIKey": null,
        "Canonical SMILES": "O=N(=O)C1=CC=C(C=C1)CN2N=CN=C2",
        "Molecular Formula": "C<sub>9</sub>H<sub>8</sub>N<sub>4</sub>O<sub>2</sub>",
        "Molecular Mass": "204.19",
        "Melting Point": "100-101 °C"
    }
}