{
    "cas_no": "13597-56-3",
    "key_name": "Zinc tungstate (ZnWO<sub>4</sub>)",
    "cn_name": "钨酸锌;",
    "alternate_name": "Tungsten zinc oxide (WZnO<sub>4</sub>);Tungstic acid (H<sub>2</sub>WO<sub>4</sub>), zinc salt (1:1);Zinc tungstate(VI) (ZnWO<sub>4</sub>);Zinc tungstate;Zinc tungstate (ZnWO<sub>4</sub>)",
    "duplicated_cas_no": "52014-39-8",
    "SMILES": "[O].[Zn].[W]",
    "meta_data": {
        "InChI": "InChI=1S/O.W.Zn",
        "InChIKey": null,
        "Canonical SMILES": "[O].[Zn].[W]",
        "Molecular Formula": "O.W.Zn",
        "Molecular Mass": "",
        "Melting Point": "1220 °C",
        "Density": "7.41 g/cm³ @ Temp: Room temp"
    }
}