{
    "uri": "substance/pt/13597563",
    "rn": "13597-56-3",
    "name": "Zinc tungstate (ZnWO<sub>4</sub>)",
    "images": [],
    "inchi": "InChI=1S/O.W.Zn",
    "inchiKey": "InChIKey=WOSCWBLSTPSYFY-UHFFFAOYSA-N",
    "smile": "[O].[Zn].[W]",
    "canonicalSmile": "[O].[Zn].[W]",
    "molecularFormula": "O.W.Zn",
    "molecularMass": "",
    "experimentalProperties": [
        {
            "name": "Melting Point",
            "property": "1220 °C",
            "sourceNumber": 1
        },
        {
            "name": "Density",
            "property": "7.41 g/cm³ @ Temp: Room temp",
            "sourceNumber": 2
        }
    ],
    "propertyCitations": [
        {
            "docUri": "document/pt/patent/2049492",
            "sourceNumber": 1,
            "source": "Takagi, Kazumasa; DE3148988, A1, 1982, CAplus"
        },
        {
            "docUri": "document/pt/document/28933161",
            "sourceNumber": 2,
            "source": "Yan, Kang; Guisuanyan Xuebao, (2006), 34(2), 251-254, CAplus"
        }
    ],
    "synonyms": [
        "Tungsten zinc oxide (WZnO<sub>4</sub>)",
        "Tungstic acid (H<sub>2</sub>WO<sub>4</sub>), zinc salt (1:1)",
        "Zinc tungstate(VI) (ZnWO<sub>4</sub>)",
        "Zinc tungstate",
        "Zinc tungstate (ZnWO<sub>4</sub>)"
    ],
    "replacedRns": [
        "52014-39-8"
    ],
    "hasMolfile": true,
    "source": "https://commonchemistry.cas.org/detail?cas_rn=13597-56-3"
}