{
    "cas_no": "5421-92-1",
    "key_name": "1,4′-Bipyridinium, chloride, hydrochloride (1:1:1)",
    "cn_name": "1-(4-吡啶基)吡啶氯盐酸盐;4-吡啶基吡啶氯化物盐酸盐;",
    "alternate_name": "1,4′-Bipyridinium, chloride, hydrochloride (1:1:1);1,4′-Bipyridinium, chloride, hydrochloride;1-(4-Pyridyl)pyridinium chloride, hydrochloride;1-(4-Pyridinyl)pyridinium chloride hydrochloride;<em>N</em>-(4-Pyridyl)pyridinium chloride hydrochloride;4-Pyridylpyridinium chloride hydrochloride",
    "duplicated_cas_no": "71643-74-8;149764-60-3;1159606-70-8",
    "SMILES": "C=1(C=CN=CC1)[N+]=2C=CC=CC2.[Cl-].Cl",
    "meta_data": {
        "InChI": "InChI=1S/C10H9N2.2ClH/c1-2-8-12(9-3-1)10-4-6-11-7-5-10;;/h1-9H;2*1H/q+1;;/p-1",
        "InChIKey": null,
        "Canonical SMILES": "[Cl-].Cl.N=1C=CC(=CC1)[N+]=2C=CC=CC2",
        "Molecular Formula": "C<sub>10</sub>H<sub>9</sub>N<sub>2</sub>.ClH.Cl",
        "Molecular Mass": "",
        "Melting Point": "172-174 °C"
    }
}