{
    "cas_no": "55142-85-3",
    "key_name": "Ticlopidine",
    "cn_name": "噻氯匹定;氯苄噻啶;氯苄噻哌啶;5-(2-氯苄基)-4,5,6,7-四氢噻吩并[3,2-c]吡啶;",
    "alternate_name": "Thieno[3,2-<em>c</em>]pyridine, 5-[(2-chlorophenyl)methyl]-4,5,6,7-tetrahydro-;5-[(2-Chlorophenyl)methyl]-4,5,6,7-tetrahydrothieno[3,2-<em>c</em>]pyridine;Ticlopidine;PCR 5332;Tiklyd;Ticlid;Ticlop;MeSH ID: D013988",
    "duplicated_cas_no": "",
    "SMILES": "C(N1CC2=C(CC1)SC=C2)C3=C(Cl)C=CC=C3",
    "meta_data": {
        "InChI": "InChI=1S/C14H14ClNS/c15-13-4-2-1-3-11(13)9-16-7-5-14-12(10-16)6-8-17-14/h1-4,6,8H,5,7,9-10H2",
        "InChIKey": null,
        "Canonical SMILES": "ClC=1C=CC=CC1CN2CC=3C=CSC3CC2",
        "Molecular Formula": "C<sub>14</sub>H<sub>14</sub>ClNS",
        "Molecular Mass": "263.79",
        "Boiling Point": "117-120 °C @ Press: 0.5 Torr",
        "Melting Point": "210-212 °C"
    }
}