{
    "cas_no": "88671-89-0",
    "key_name": "Myclobutanil",
    "cn_name": "腈菌唑;2-(4-氯苯基)-2-(1H,1,2,4-三唑-1-甲基)己腈;",
    "alternate_name": "1<em>H</em>-1,2,4-Triazole-1-propanenitrile, α-butyl-α-(4-chlorophenyl)-;α-Butyl-α-(4-chlorophenyl)-1<em>H</em>-1,2,4-triazole-1-propanenitrile;RH 3866;Myclobutanil;Systhane;HOE 39304F;Rally;Systhane 6 Flo;Nova W;Nova;Nu-Flow M;Nova (pesticide);Systhane 12E;(±)-Myclobutanil;Nova 40W;Systhane 40W;Spectracide Immunox Multi-Purpose Fungicide;Eagle;Deccotanil;Laredo 25EC;Laredo 25EW;Fungiben;Mycloss Xtra;Rally 40WSP;Rally 40 WP;Systhane 20EW;Systhane Duplo",
    "duplicated_cas_no": "96281-50-4;154144-93-1;205862-69-7;1135441-12-1;1256343-07-3",
    "SMILES": "C(CN1C=NC=N1)(CCCC)(C#N)C2=CC=C(Cl)C=C2",
    "meta_data": {
        "InChI": "InChI=1S/C15H17ClN4/c1-2-3-8-15(9-17,10-20-12-18-11-19-20)13-4-6-14(16)7-5-13/h4-7,11-12H,2-3,8,10H2,1H3",
        "InChIKey": null,
        "Canonical SMILES": "N#CC(C1=CC=C(Cl)C=C1)(CN2N=CN=C2)CCCC",
        "Molecular Formula": "C<sub>15</sub>H<sub>17</sub>ClN<sub>4</sub>",
        "Molecular Mass": "288.78",
        "Boiling Point": "202-208 °C @ Press: 1 Torr",
        "Melting Point": "65.5 °C"
    }
}