{
    "cas_no": "141-24-2",
    "key_name": "Methyl ricinoleate",
    "cn_name": null,
    "alternate_name": "9-Octadecenoic acid, 12-hydroxy-, methyl ester, (9<em>Z</em>,12<em>R</em>)-;Ricinoleic acid, methyl ester;9-Octadecenoic acid, 12-hydroxy-, methyl ester, [<em>R</em>-(<em>Z</em>)]-;Flexricin P 1;Methyl ricinoleate;<em>cis</em>-Ricinoleic acid methyl ester;Methyl 12-<span class=\"text-smallcaps\">D</span>-hydroxy-9-<em>cis</em>-octadecenoate;Methyl ricinate;Ricinic acid methyl ester;NSC 1254;Edenor Me-Ri 90;K-PON 180;K-PON 180HP;Ricinoleic methyl ester;Methyl (<em>R</em>)-ricinoleate;Methyl cis-(R)-12-hydroxyoctadec-9-enoate;Radia 7081",
    "duplicated_cas_no": "7705-99-9",
    "SMILES": "[C@H](C/C=C\\CCCCCCCC(OC)=O)(CCCCCC)O",
    "meta_data": {
        "InChI": "InChI=1S/C19H36O3/c1-3-4-5-12-15-18(20)16-13-10-8-6-7-9-11-14-17-19(21)22-2/h10,13,18,20H,3-9,11-12,14-17H2,1-2H3/b13-10-/t18-/m1/s1",
        "InChIKey": null,
        "Canonical SMILES": "O=C(OC)CCCCCCCC=CCC(O)CCCCCC",
        "Molecular Formula": "C<sub>19</sub>H<sub>36</sub>O<sub>3</sub>",
        "Molecular Mass": "312.49",
        "Boiling Point": "245 °C @ Press: 10 Torr",
        "Melting Point": "-4.5 °C",
        "Density": "0.9236 g/cm³ @ Temp: 22 °C"
    }
}