{
    "cas_no": "2380-36-1",
    "key_name": "3,5-Bis(1,1-dimethylethyl)benzenamine",
    "cn_name": "3,5-二叔丁基苯胺;",
    "alternate_name": "Benzenamine, 3,5-bis(1,1-dimethylethyl)-;Aniline, 3,5-di-<em>tert</em>-butyl-;3,5-Bis(1,1-dimethylethyl)benzenamine;3,5-Di-<em>tert</em>-butylaniline;(3,5-Di-<em>tert</em>-butylphenyl)amine;3,5-Bis-<em>tert</em>-butylbenzeneamine;3,5-Di(1,1-dimethylethyl)aniline;3,5-Ditert-butylaniline",
    "duplicated_cas_no": "2897573-93-0",
    "SMILES": "C(C)(C)(C)C1=CC(C(C)(C)C)=CC(N)=C1",
    "meta_data": {
        "InChI": "InChI=1S/C14H23N/c1-13(2,3)10-7-11(14(4,5)6)9-12(15)8-10/h7-9H,15H2,1-6H3",
        "InChIKey": null,
        "Canonical SMILES": "NC=1C=C(C=C(C1)C(C)(C)C)C(C)(C)C",
        "Molecular Formula": "C<sub>14</sub>H<sub>23</sub>N",
        "Molecular Mass": "205.34",
        "Melting Point": "56 °C"
    }
}