{
    "cas_no": "13484-50-9",
    "key_name": "2,3,5,6-Tetrachloropyrazine",
    "cn_name": null,
    "alternate_name": "Pyrazine, 2,3,5,6-tetrachloro-;Pyrazine, tetrachloro-;2,3,5,6-Tetrachloropyrazine;Tetrachloropyrazine;NSC 217912",
    "duplicated_cas_no": "",
    "SMILES": "ClC=1C(Cl)=NC(Cl)=C(Cl)N1",
    "meta_data": {
        "InChI": "InChI=1S/C4Cl4N2/c5-1-2(6)10-4(8)3(7)9-1",
        "InChIKey": null,
        "Canonical SMILES": "ClC=1N=C(Cl)C(Cl)=NC1Cl",
        "Molecular Formula": "C<sub>4</sub>Cl<sub>4</sub>N<sub>2</sub>",
        "Molecular Mass": "217.87",
        "Melting Point": "97 °C"
    }
}