{
    "cas_no": "1002-69-3",
    "key_name": "1-Chlorodecane",
    "cn_name": "1-氯癸烷;",
    "alternate_name": "Decane, 1-chloro-;1-Chlorodecane;Decyl chloride;<em>n</em>-Decyl chloride;NSC 6088",
    "duplicated_cas_no": "",
    "SMILES": "C(CCCCC)CCCCCl",
    "meta_data": {
        "InChI": "InChI=1S/C10H21Cl/c1-2-3-4-5-6-7-8-9-10-11/h2-10H2,1H3",
        "InChIKey": null,
        "Canonical SMILES": "ClCCCCCCCCCC",
        "Molecular Formula": "C<sub>10</sub>H<sub>21</sub>Cl",
        "Molecular Mass": "176.73",
        "Boiling Point": "223.4 °C",
        "Melting Point": "-31.3 °C",
        "Density": "0.8696 g/cm³ @ Temp: 20 °C"
    }
}