{
    "cas_no": "189816-05-5",
    "key_name": "4-Chloro-7-methoxy-2-phenylquinoline",
    "cn_name": null,
    "alternate_name": "Quinoline, 4-chloro-7-methoxy-2-phenyl-;4-Chloro-7-methoxy-2-phenylquinoline;4-Chloro-7-methoxy-2-(phenyl)quinoline",
    "duplicated_cas_no": "",
    "SMILES": "ClC=1C2=C(N=C(C1)C3=CC=CC=C3)C=C(OC)C=C2",
    "meta_data": {
        "InChI": "InChI=1S/C16H12ClNO/c1-19-12-7-8-13-14(17)10-15(18-16(13)9-12)11-5-3-2-4-6-11/h2-10H,1H3",
        "InChIKey": null,
        "Canonical SMILES": "ClC=1C=C(N=C2C=C(OC)C=CC12)C=3C=CC=CC3",
        "Molecular Formula": "C<sub>16</sub>H<sub>12</sub>ClNO",
        "Molecular Mass": "269.73",
        "Melting Point": "101-101.5 °C"
    }
}