{
    "cas_no": "10377-51-2",
    "key_name": "Lithium iodide",
    "cn_name": null,
    "alternate_name": "Lithium iodide (LiI);Lithium iodide;Lithium monoiodide",
    "duplicated_cas_no": "59216-97-6",
    "SMILES": "I[Li]",
    "meta_data": {
        "InChI": "InChI=1S/HI.Li/h1H;/q;+1/p-1",
        "InChIKey": null,
        "Canonical SMILES": "[Li]I",
        "Molecular Formula": "ILi",
        "Molecular Mass": "",
        "Melting Point": "469 °C",
        "Density": "4.1 g/cm³"
    }
}