{
    "cas_no": "34420-19-4",
    "key_name": "(1a<em>R</em>,2<em>E</em>,4a<em>R</em>,6<em>S</em>,7<em>S</em>,7a<em>R</em>,8<em>R</em>,11a<em>S</em>)-1,1a,4a,5,6,7,7a,8,9,10,11,11a-Dodecahydro-4a,7,8-trihydroxy-1,1,3,6-tetramethyl-9-methylene-4<em>H</em>-cyclopenta[<em>a</em>]cyclopropa[<em>f</em>]cycloundecen-4-one",
    "cn_name": "千金子二萜醇;",
    "alternate_name": "4<em>H</em>-Cyclopenta[<em>a</em>]cyclopropa[<em>f</em>]cycloundecen-4-one, 1,1a,4a,5,6,7,7a,8,9,10,11,11a-dodecahydro-4a,7,8-trihydroxy-1,1,3,6-tetramethyl-9-methylene-, (1a<em>R</em>,2<em>E</em>,4a<em>R</em>,6<em>S</em>,7<em>S</em>,7a<em>R</em>,8<em>R</em>,11a<em>S</em>)-;4<em>H</em>-Cyclopenta[<em>a</em>]cyclopropa[<em>f</em>]cycloundecen-4-one, 1,1a,4a,5,6,7,7a,8,9,10,11,11a-dodecahydro-4a,7,8-trihydroxy-1,1,3,6-tetramethyl-9-methylene-, [1a<em>R</em>-(1a<em>R</em>*,2<em>E</em>,4a<em>R</em>*,6<em>S</em>*,7<em>S</em>*,7a<em>R</em>*,8<em>R</em>*,11a<em>S</em>*)]-;(1a<em>R</em>,2<em>E</em>,4a<em>R</em>,6<em>S</em>,7<em>S</em>,7a<em>R</em>,8<em>R</em>,11a<em>S</em>)-1,1a,4a,5,6,7,7a,8,9,10,11,11a-Dodecahydro-4a,7,8-trihydroxy-1,1,3,6-tetramethyl-9-methylene-4<em>H</em>-cyclopenta[<em>a</em>]cyclopropa[<em>f</em>]cycloundecen-4-one;Lathyrol",
    "duplicated_cas_no": "",
    "SMILES": "",
    "meta_data": {
        "InChI": "",
        "InChIKey": null,
        "Canonical SMILES": "",
        "Molecular Formula": "C<sub>20</sub>H<sub>30</sub>O<sub>4</sub>",
        "Molecular Mass": "334.45",
        "Melting Point": "158-160 °C"
    }
}