{
    "cas_no": "3068-00-6",
    "key_name": "1,2,4-Butanetriol",
    "cn_name": "1,2,4-丁三醇;",
    "alternate_name": "1,2,4-Butanetriol;Triol 124;1,3,4-Butanetriol;1,2,4-Trihydroxybutane;2-Deoxyerythritol;(±)-1,2,4-Butanetriol;NSC 60197;Butan-1,2,4-triol",
    "duplicated_cas_no": "6810-31-7",
    "SMILES": "C(CCO)(CO)O",
    "meta_data": {
        "InChI": "InChI=1S/C4H10O3/c5-2-1-4(7)3-6/h4-7H,1-3H2",
        "InChIKey": null,
        "Canonical SMILES": "OCCC(O)CO",
        "Molecular Formula": "C<sub>4</sub>H<sub>10</sub>O<sub>3</sub>",
        "Molecular Mass": "106.12",
        "Boiling Point": "167-168 °C @ Press: 11 Torr",
        "Density": "1.1772 g/cm³ @ Temp: 19.64 °C"
    }
}