{
    "cas_no": "33948-22-0",
    "key_name": "5<em>H</em>-Dibenz[<em>b</em>,<em>f</em>]azepine-5-carbonyl chloride",
    "cn_name": "亚氨基芪甲酰氯;",
    "alternate_name": "5<em>H</em>-Dibenz[<em>b</em>,<em>f</em>]azepine-5-carbonyl chloride;<em>N</em>-(Chlorocarbonyl)-5<em>H</em>-dibenz[<em>b</em>,<em>f</em>]azepine;5-(Chlorocarbonyl)-5<em>H</em>-dibenz[<em>b</em>,<em>f</em>]azepine",
    "duplicated_cas_no": "",
    "SMILES": "C(Cl)(=O)N1C=2C(=CC=CC2)C=CC=3C1=CC=CC3",
    "meta_data": {
        "InChI": "InChI=1S/C15H10ClNO/c16-15(18)17-13-7-3-1-5-11(13)9-10-12-6-2-4-8-14(12)17/h1-10H",
        "InChIKey": null,
        "Canonical SMILES": "O=C(Cl)N1C=2C=CC=CC2C=CC=3C=CC=CC31",
        "Molecular Formula": "C<sub>15</sub>H<sub>10</sub>ClNO",
        "Molecular Mass": "255.70",
        "Melting Point": "148-149 °C"
    }
}