{
    "cas_no": "175278-08-7",
    "key_name": "2,3,4-Trifluorobenzenesulfonyl chloride",
    "cn_name": "2,3,4-三氟苯磺酰氯;",
    "alternate_name": "Benzenesulfonyl chloride, 2,3,4-trifluoro-;2,3,4-Trifluorobenzenesulfonyl chloride;2,3,4-Trifluorobenzene-1-sulfonyl chloride",
    "duplicated_cas_no": "",
    "SMILES": "S(Cl)(=O)(=O)C1=C(F)C(F)=C(F)C=C1",
    "meta_data": {
        "InChI": "InChI=1S/C6H2ClF3O2S/c7-13(11,12)4-2-1-3(8)5(9)6(4)10/h1-2H",
        "InChIKey": null,
        "Canonical SMILES": "O=S(=O)(Cl)C1=CC=C(F)C(F)=C1F",
        "Molecular Formula": "C<sub>6</sub>H<sub>2</sub>ClF<sub>3</sub>O<sub>2</sub>S",
        "Molecular Mass": "230.59",
        "Melting Point": "122-124 °C"
    }
}