{
    "cas_no": "7775-09-9",
    "key_name": "Sodium chlorate",
    "cn_name": "氯酸钠;",
    "alternate_name": "Chloric acid, sodium salt (1:1);Chloric acid, sodium salt;Atlacide;Sodium chlorate;VAL-DROP;Shed-A-Leaf;Sodium chlorate (NaClO<sub>3</sub>);Travex;Oxycil;Desolet;Asex;B-Herbatox;Evau-Super;Kusa-tohru;Granex O;Agrosan;Sodakem;Chlorate SL;Defol 750;Defol 5",
    "duplicated_cas_no": "11096-45-0;38869-74-8;38869-73-7",
    "SMILES": "Cl(=O)(=O)O.[Na]",
    "meta_data": {
        "InChI": "InChI=1S/ClHO3.Na/c2-1(3)4;/h(H,2,3,4);",
        "InChIKey": null,
        "Canonical SMILES": "[Na].O=Cl(=O)O",
        "Molecular Formula": "ClHO<sub>3</sub>.Na",
        "Molecular Mass": "",
        "Boiling Point": "122 °C",
        "Melting Point": "248 °C",
        "Density": "2.5 g/cm³"
    }
}