{
    "cas_no": "86118-11-8",
    "key_name": "<em>O</em>-Methyl-<span class=\"text-smallcaps\">D</span>-serine",
    "cn_name": null,
    "alternate_name": "<span class=\"text-smallcaps\">D</span>-Serine, <em>O</em>-methyl-;<em>O</em>-Methyl-<span class=\"text-smallcaps\">D</span>-serine;(<em>R</em>)-<em>O</em>-Methylserine;(R)-2-Amino-3-methoxypropanoic acid;(2R)-2-Amino-3-methoxypropanoic acid",
    "duplicated_cas_no": "",
    "SMILES": "[C@@H](COC)(C(O)=O)N",
    "meta_data": {
        "InChI": "InChI=1S/C4H9NO3/c1-8-2-3(5)4(6)7/h3H,2,5H2,1H3,(H,6,7)/t3-/m1/s1",
        "InChIKey": null,
        "Canonical SMILES": "O=C(O)C(N)COC",
        "Molecular Formula": "C<sub>4</sub>H<sub>9</sub>NO<sub>3</sub>",
        "Molecular Mass": "119.12",
        "Melting Point": "208-210 °C"
    }
}