{
    "cas_no": "3558-60-9",
    "key_name": "(2-Methoxyethyl)benzene",
    "cn_name": "甲基苯乙基醚;苯乙基甲基醚;",
    "alternate_name": "Benzene, (2-methoxyethyl)-;Ether, methyl phenethyl;(2-Methoxyethyl)benzene;Methyl 2-phenethyl ether;Methyl phenethyl ether;β-Phenylethyl methyl ether;1-Methoxy-2-phenylethane;Kewda ether;2-Phenylethyl methyl ether;NSC 81229;Pandanol;Methyl 2-phenylethyl ether",
    "duplicated_cas_no": "",
    "SMILES": "C(COC)C1=CC=CC=C1",
    "meta_data": {
        "InChI": "InChI=1S/C9H12O/c1-10-8-7-9-5-3-2-4-6-9/h2-6H,7-8H2,1H3",
        "InChIKey": null,
        "Canonical SMILES": "O(C)CCC=1C=CC=CC1",
        "Molecular Formula": "C<sub>9</sub>H<sub>12</sub>O",
        "Molecular Mass": "136.19",
        "Boiling Point": "190-195 °C",
        "Density": "1.0617 g/cm³ @ Temp: 25 °C"
    }
}