{
    "cas_no": "761446-44-0",
    "key_name": "1-Methyl-4-(4,4,5,5-tetramethyl-1,3,2-dioxaborolan-2-yl)-1H-pyrazole",
    "cn_name": "1-甲基-4-(4,4,5,5-四甲基-1,3,2-二氧杂戊硼烷-2-基)-1H-吡唑;",
    "alternate_name": "1<em>H</em>-Pyrazole, 1-methyl-4-(4,4,5,5-tetramethyl-1,3,2-dioxaborolan-2-yl)-;1-Methyl-4-(4,4,5,5-tetramethyl-1,3,2-dioxaborolan-2-yl)-1<em>H</em>-pyrazole;1-Methyl-4-(4,4,5,5-tetramethyl-1,3,2-dioxaborolan-2-yl)pyrazole;1-Methylpyrazole-4-boronic acid pinacol ester;2-(1-Methylpyrazol-4-yl)-4,4,5,5-tetramethyl-1,3,2-dioxaborolane;4-(4,4,5,5-Tetramethyl-1,3,2-dioxaborolan-2-yl)-1-methyl-1<em>H</em>-pyrazole;1-Methyl-4-(4,4,5,5-tetramethyl-1,3,2-dioxaborolan-2-yl)-1H-pyrazole;4-(4,4,5,5-Tetramethyl-1,3,2-dioxaborolan-2-yl)-1-methylpyrazole;1-Methyl-4-(tetramethyl-1,3,2-dioxaborolan-2-yl)-1<em>H</em>-pyrazole;(1-Methyl-1<em>H</em>-pyrazol-4-yl)boronic acid pinacol ester;1-Methyl-1<em>H</em>-pyrazole-4-boronic acid pinacol ester;1-Methyl-4-(4,4,5,5-Tetramethyl-1,3,2-dioxaborolan-2-yl)-1<em>H</em>-pyrazole;2-(1-Methyl-1<em>H</em>-pyrazol-4-yl)-4,4,5,5-tetramethyl-1,3,2-dioxaborolane",
    "duplicated_cas_no": "",
    "SMILES": "CC1(C)OB(OC1(C)C)C2=CN(C)N=C2",
    "meta_data": {
        "InChI": "InChI=1S/C10H17BN2O2/c1-9(2)10(3,4)15-11(14-9)8-6-12-13(5)7-8/h6-7H,1-5H3",
        "InChIKey": null,
        "Canonical SMILES": "N1=CC(=CN1C)B2OC(C)(C)C(O2)(C)C",
        "Molecular Formula": "C<sub>10</sub>H<sub>17</sub>BN<sub>2</sub>O<sub>2</sub>",
        "Molecular Mass": "208.07",
        "Melting Point": "67-69 °C"
    }
}