{
    "cas_no": "574-84-5",
    "key_name": "Fraxetin",
    "cn_name": "7,8-二羟基-6-甲氧基香豆素;秦皮亭;白蜡树内酯;秦皮素;",
    "alternate_name": "2<em>H</em>-1-Benzopyran-2-one, 7,8-dihydroxy-6-methoxy-;Coumarin, 7,8-dihydroxy-6-methoxy-;Fraxetin;7,8-Dihydroxy-6-methoxy-2<em>H</em>-1-benzopyran-2-one;7,8-Dihydroxy-6-methoxycoumarin;Fraxetol;6-Methoxy-7,8-dihydroxycoumarin;Fratexin",
    "duplicated_cas_no": "",
    "SMILES": "OC1=C2C(=CC(OC)=C1O)C=CC(=O)O2",
    "meta_data": {
        "InChI": "InChI=1S/C10H8O5/c1-14-6-4-5-2-3-7(11)15-10(5)9(13)8(6)12/h2-4,12-13H,1H3",
        "InChIKey": null,
        "Canonical SMILES": "O=C1OC=2C(O)=C(O)C(OC)=CC2C=C1",
        "Molecular Formula": "C<sub>10</sub>H<sub>8</sub>O<sub>5</sub>",
        "Molecular Mass": "208.17",
        "Melting Point": "231 °C"
    }
}