{
    "cas_no": "3558-24-5",
    "key_name": "1-Methyl-2-phenylindole",
    "cn_name": "1-甲基-2-苯基吲哚;",
    "alternate_name": "1<em>H</em>-Indole, 1-methyl-2-phenyl-;Indole, 1-methyl-2-phenyl-;1-Methyl-2-phenyl-1<em>H</em>-indole;1-Methyl-2-phenylindole;2-Phenyl-<em>N</em>-methylindole;<em>N</em>-Methyl-2-phenylindole;NSC 63793;2-Phenyl-1-methylindole",
    "duplicated_cas_no": "",
    "SMILES": "CN1C(=CC=2C1=CC=CC2)C3=CC=CC=C3",
    "meta_data": {
        "InChI": "InChI=1S/C15H13N/c1-16-14-10-6-5-9-13(14)11-15(16)12-7-3-2-4-8-12/h2-11H,1H3",
        "InChIKey": null,
        "Canonical SMILES": "C=1C=CC(=CC1)C2=CC=3C=CC=CC3N2C",
        "Molecular Formula": "C<sub>15</sub>H<sub>13</sub>N",
        "Molecular Mass": "207.27",
        "Melting Point": "100-101 °C"
    }
}