{
    "cas_no": "538-75-0",
    "key_name": "Dicyclohexylcarbodiimide",
    "cn_name": "二环己基碳二亚胺;",
    "alternate_name": "Cyclohexanamine, <em>N</em>,<em>N</em>′-methanetetraylbis-;Carbodiimide, dicyclohexyl-;<em>N</em>,<em>N</em>′-Methanetetraylbis[cyclohexanamine];DCCD;1,3-Dicyclohexylcarbodiimide;<em>N</em>,<em>N</em>′-Dicyclohexylcarbodiimide;Dicyclohexylcarbodiimide;DCCI;DCC;Bis(cyclohexyl)carbodiimide;NSC 30022;NSC 53373;NSC 57182;DN-TE 9;MeSH ID: D004024;DCC 1019",
    "duplicated_cas_no": "",
    "SMILES": "N(=C=NC1CCCCC1)C2CCCCC2",
    "meta_data": {
        "InChI": "InChI=1S/C13H22N2/c1-3-7-12(8-4-1)14-11-15-13-9-5-2-6-10-13/h12-13H,1-10H2",
        "InChIKey": null,
        "Canonical SMILES": "C(=NC1CCCCC1)=NC2CCCCC2",
        "Molecular Formula": "C<sub>13</sub>H<sub>22</sub>N<sub>2</sub>",
        "Molecular Mass": "206.33",
        "Boiling Point": "154-156 °C @ Press: 11 Torr",
        "Melting Point": "34.5 °C"
    }
}