{
    "cas_no": "13575-75-2",
    "key_name": "3,4-Dihydro-6,7-dimethoxy-1(2<em>H</em>)-naphthalenone",
    "cn_name": "6,7-二甲氧基-3,4-二氢-2H-1-萘酮;6,7-二甲氧基-1-四氢萘酮;",
    "alternate_name": "1(2<em>H</em>)-Naphthalenone, 3,4-dihydro-6,7-dimethoxy-;3,4-Dihydro-6,7-dimethoxy-1(2<em>H</em>)-naphthalenone;6,7-Dimethoxy-3,4-dihydro-1(2<em>H</em>)-naphthalenone;6,7-Dimethoxy-1-tetralone;6,7-Dimethoxy-α-tetralone;6,7-Dimethoxy-1-oxo-1,2,3,4-tetrahydronaphthalene;NSC 105617;6,7-Dimethoxy-1,2,3,4-tetrahydro-1-oxonaphthalene;6,7-Dimethoxy-3,4-dihydronaphthalen-1(2<em>H</em>)-one",
    "duplicated_cas_no": "",
    "SMILES": "O=C1C=2C(=CC(OC)=C(OC)C2)CCC1",
    "meta_data": {
        "InChI": "InChI=1S/C12H14O3/c1-14-11-6-8-4-3-5-10(13)9(8)7-12(11)15-2/h6-7H,3-5H2,1-2H3",
        "InChIKey": null,
        "Canonical SMILES": "O=C1C2=CC(OC)=C(OC)C=C2CCC1",
        "Molecular Formula": "C<sub>12</sub>H<sub>14</sub>O<sub>3</sub>",
        "Molecular Mass": "206.24",
        "Melting Point": "98-99 °C"
    }
}