{
    "cas_no": "24262-66-6",
    "key_name": "Methyl 4-acetoxybenzoate",
    "cn_name": "4-乙酰氧基苯甲酸甲酯;",
    "alternate_name": "Benzoic acid, 4-(acetyloxy)-, methyl ester;Benzoic acid, <em>p</em>-hydroxy-, methyl ester, acetate;Methyl <em>p</em>-acetoxybenzoate;<em>p</em>-(Methoxycarbonyl)phenyl acetate;Methyl 4-acetoxybenzoate;4-(Methoxycarbonyl)phenyl acetate;4-Acetoxybenzoic acid methyl ester",
    "duplicated_cas_no": "",
    "SMILES": "O(C(C)=O)C1=CC=C(C(OC)=O)C=C1",
    "meta_data": {
        "InChI": "InChI=1S/C10H10O4/c1-7(11)14-9-5-3-8(4-6-9)10(12)13-2/h3-6H,1-2H3",
        "InChIKey": null,
        "Canonical SMILES": "O=C(OC)C1=CC=C(OC(=O)C)C=C1",
        "Molecular Formula": "C<sub>10</sub>H<sub>10</sub>O<sub>4</sub>",
        "Molecular Mass": "194.18",
        "Melting Point": "79-81 °C"
    }
}