{
    "cas_no": "58349-17-0",
    "key_name": "2-Naphthalenamine, 1,2,3,4-tetrahydro-5-methoxy-, hydrochloride (1:1), (2<em>S</em>)-",
    "cn_name": "(S)-2-氨基-5-甲氧基四氢萘盐酸盐;",
    "alternate_name": "2-Naphthalenamine, 1,2,3,4-tetrahydro-5-methoxy-, hydrochloride (1:1), (2<em>S</em>)-;2-Naphthalenamine, 1,2,3,4-tetrahydro-5-methoxy-, hydrochloride, (<em>S</em>)-;2-Naphthalenamine, 1,2,3,4-tetrahydro-5-methoxy-, hydrochloride, (2<em>S</em>)-;(<em>S</em>)-2-Amino-5-methoxytetralin hydrochloride",
    "duplicated_cas_no": "",
    "SMILES": "O(C)C1=C2C(C[C@@H](N)CC2)=CC=C1.Cl",
    "meta_data": {
        "InChI": "InChI=1S/C11H15NO.ClH/c1-13-11-4-2-3-8-7-9(12)5-6-10(8)11;/h2-4,9H,5-7,12H2,1H3;1H/t9-;/m0./s1",
        "InChIKey": null,
        "Canonical SMILES": "Cl.O(C1=CC=CC2=C1CCC(N)C2)C",
        "Molecular Formula": "C<sub>11</sub>H<sub>15</sub>NO.ClH",
        "Molecular Mass": "",
        "Melting Point": "262-265 °C"
    }
}