{
    "cas_no": "108-36-1",
    "key_name": "1,3-Dibromobenzene",
    "cn_name": "1,3-二溴苯;间二溴苯;",
    "alternate_name": "Benzene, 1,3-dibromo-;Benzene, <em>m</em>-dibromo-;1,3-Dibromobenzene;<em>m</em>-Dibromobenzene;1-Bromo-3-bromobenzene",
    "duplicated_cas_no": "",
    "SMILES": "BrC1=CC(Br)=CC=C1",
    "meta_data": {
        "InChI": "InChI=1S/C6H4Br2/c7-5-2-1-3-6(8)4-5/h1-4H",
        "InChIKey": null,
        "Canonical SMILES": "BrC1=CC=CC(Br)=C1",
        "Molecular Formula": "C<sub>6</sub>H<sub>4</sub>Br<sub>2</sub>",
        "Molecular Mass": "235.90",
        "Boiling Point": "218 °C",
        "Melting Point": "-7 °C",
        "Density": "1.9523 g/cm³ @ Temp: 20.4 °C"
    }
}