{
    "cas_no": "18595-18-1",
    "key_name": "Benzoic acid, 3-amino-4-methyl-, methyl ester",
    "cn_name": "3-氨基-4-甲基苯甲酸甲酯;",
    "alternate_name": "Benzoic acid, 3-amino-4-methyl-, methyl ester;<em>p</em>-Toluic acid, 3-amino-, methyl ester;Methyl 3-amino-4-methylbenzoate;3-Amino-4-methylbenzoic acid methyl ester;NSC 356832;2-Methyl-5-methoxycarbonylaniline;Methyl 3-amino-4-methylbenzoic acid",
    "duplicated_cas_no": "",
    "SMILES": "C(OC)(=O)C1=CC(N)=C(C)C=C1",
    "meta_data": {
        "InChI": "InChI=1S/C9H11NO2/c1-6-3-4-7(5-8(6)10)9(11)12-2/h3-5H,10H2,1-2H3",
        "InChIKey": null,
        "Canonical SMILES": "O=C(OC)C1=CC=C(C(N)=C1)C",
        "Molecular Formula": "C<sub>9</sub>H<sub>11</sub>NO<sub>2</sub>",
        "Molecular Mass": "165.19",
        "Melting Point": "114.5-115.2 °C"
    }
}