{
    "cas_no": "96-09-3",
    "key_name": "Styrene oxide",
    "cn_name": "氧化苯乙烯;环氧苯乙烷;",
    "alternate_name": "Oxirane, 2-phenyl-;Benzene, (epoxyethyl)-;Oxirane, phenyl-;Ethane, 1,2-epoxy-1-phenyl-;2-Phenyloxirane;Epoxystyrene;1,2-Epoxyethylbenzene;Phenethylene oxide;Phenylethylene oxide;Styrene epoxide;Styrene oxide;Phenyloxirane;Styryl oxide;α,β-Epoxystyrene;1-Phenyl-1,2-epoxyethane;(Epoxyethyl)benzene;Styrene 7,8-oxide;Styrene 1′,2′-oxide;(±)-Styrene oxide;(±)-Phenylethylene oxide;(±)-Phenyloxirane;NSC 637;NSC 7582;STO",
    "duplicated_cas_no": "62497-63-6;67253-49-0",
    "SMILES": "C1(CO1)C2=CC=CC=C2",
    "meta_data": {
        "InChI": "InChI=1S/C8H8O/c1-2-4-7(5-3-1)8-6-9-8/h1-5,8H,6H2",
        "InChIKey": null,
        "Canonical SMILES": "O1CC1C=2C=CC=CC2",
        "Molecular Formula": "C<sub>8</sub>H<sub>8</sub>O",
        "Molecular Mass": "120.15",
        "Boiling Point": "194.1 °C",
        "Melting Point": "-35.6 °C",
        "Density": "1.0523 g/cm³ @ Temp: 16 °C"
    }
}