{
    "cas_no": "14644-61-2",
    "key_name": "Zirconium sulfate",
    "cn_name": null,
    "alternate_name": "Sulfuric acid, zirconium(4+) salt (2:1);Zirconium sulfate (Zr(SO<sub>4</sub>)<sub>2</sub>);Zirconium sulfate;Zirconium disulfate;Zirconium orthosulfate;Zirconium sulfate (1:2);Blancorol ZB 33;Tanfix SZS;Norsyn GSZ;ZB 33N",
    "duplicated_cas_no": "",
    "SMILES": "S(=O)(=O)(O)O.[Zr]",
    "meta_data": {
        "InChI": "InChI=1S/H2O4S.Zr/c1-5(2,3)4;/h(H2,1,2,3,4);",
        "InChIKey": null,
        "Canonical SMILES": "[Zr].O=S(=O)(O)O",
        "Molecular Formula": "H<sub>2</sub>O<sub>4</sub>S.<sup>1</sup>/<sub>2</sub>Zr",
        "Molecular Mass": "",
        "Melting Point": "410 °C (decomp)",
        "Density": "3.22 g/cm³ @ Temp: 16 °C"
    }
}