{
    "cas_no": "17422-33-2",
    "key_name": "6-Chloroindole",
    "cn_name": "6-氯吲哚;",
    "alternate_name": "1<em>H</em>-Indole, 6-chloro-;Indole, 6-chloro-;6-Chloro-1<em>H</em>-indole;6-Chloroindole;NSC 58083",
    "duplicated_cas_no": "2738884-89-2",
    "SMILES": "ClC=1C=C2C(=CC1)C=CN2",
    "meta_data": {
        "InChI": "InChI=1S/C8H6ClN/c9-7-2-1-6-3-4-10-8(6)5-7/h1-5,10H",
        "InChIKey": null,
        "Canonical SMILES": "ClC=1C=CC=2C=CNC2C1",
        "Molecular Formula": "C<sub>8</sub>H<sub>6</sub>ClN",
        "Molecular Mass": "151.59",
        "Boiling Point": "110 °C @ Press: 0.2 Torr",
        "Melting Point": "90 °C"
    }
}