{
    "cas_no": "7693-46-1",
    "key_name": "4-Nitrophenyl chloroformate",
    "cn_name": "对硝基苯基氯甲酸酯;",
    "alternate_name": "Carbonochloridic acid, 4-nitrophenyl ester;Formic acid, chloro-, <em>p</em>-nitrophenyl ester;<em>p</em>-Nitrophenyl chloroformate;(<em>p</em>-Nitrophenoxy)carbonyl chloride;4-Nitrophenyl chloroformate;Chloroformic acid <em>p</em>-nitrophenyl ester;<em>p</em>-Nitrophenyl chlorocarbonate;<em>p</em>-Nitrophenol chloroformate;(4-Nitrophenoxy)carbonyl chloride;Chloroformic acid 4-nitrophenyl ester;4-Nitrophenyl carbonochloridate;4-Nitrophenyl chlorocarbonate;Hypochlorous acid, 4-nitrophenyl ester",
    "duplicated_cas_no": "1269758-59-9;1945216-83-0;2490349-81-8",
    "SMILES": "O(C(Cl)=O)C1=CC=C(N(=O)=O)C=C1",
    "meta_data": {
        "InChI": "InChI=1S/C7H4ClNO4/c8-7(10)13-6-3-1-5(2-4-6)9(11)12/h1-4H",
        "InChIKey": null,
        "Canonical SMILES": "O=C(Cl)OC1=CC=C(C=C1)N(=O)=O",
        "Molecular Formula": "C<sub>7</sub>H<sub>4</sub>ClNO<sub>4</sub>",
        "Molecular Mass": "201.56",
        "Boiling Point": "115-128 °C @ Press: 0.8-2.5 Torr",
        "Melting Point": "81-82 °C"
    }
}