{
    "cas_no": "98-42-0",
    "key_name": "2-Aminoanisole-4-sulfonic acid",
    "cn_name": "邻氨基苯甲醚-4-磺酸;",
    "alternate_name": "Benzenesulfonic acid, 3-amino-4-methoxy-;Metanilic acid, 4-methoxy-;3-Amino-4-methoxybenzenesulfonic acid;<em>o</em>-Anisidine-<em>p</em>-sulfonic acid;2-Methoxy-5-sulfoaniline;2-Methoxyaniline-5-sulfonic acid;<em>o</em>-Anisidine-4-sulfonic acid;2-Aminoanisole-4-sulfonic acid;NSC 74459;3-Amino-4-methoxybenzene-1-sulfonic acid;2-Anisidine-4-sulfonic acid",
    "duplicated_cas_no": "1323572-06-0",
    "SMILES": "S(=O)(=O)(O)C1=CC(N)=C(OC)C=C1",
    "meta_data": {
        "InChI": "InChI=1S/C7H9NO4S/c1-12-7-3-2-5(4-6(7)8)13(9,10)11/h2-4H,8H2,1H3,(H,9,10,11)",
        "InChIKey": null,
        "Canonical SMILES": "O=S(=O)(O)C1=CC=C(OC)C(N)=C1",
        "Molecular Formula": "C<sub>7</sub>H<sub>9</sub>NO<sub>4</sub>S",
        "Molecular Mass": "203.22",
        "Melting Point": "62 °C"
    }
}