{
    "cas_no": "1620-98-0",
    "key_name": "3,5-Di-<em>tert</em>-butyl-4-hydroxybenzaldehyde",
    "cn_name": "3,5-二叔丁基-4-羟基苯甲醛;",
    "alternate_name": "Benzaldehyde, 3,5-bis(1,1-dimethylethyl)-4-hydroxy-;Benzaldehyde, 3,5-di-<em>tert</em>-butyl-4-hydroxy-;3,5-Bis(1,1-dimethylethyl)-4-hydroxybenzaldehyde;3,5-Di-<em>tert</em>-butyl-4-hydroxybenzaldehyde;2,6-Di-<em>tert</em>-Butyl-4-formylphenol;4-Hydroxy-3,5-di-<em>tert</em>-butylbenzaldehyde;4-Formyl-2,6-di-<em>tert</em>-butylphenol;NSC 14450;3,5-Ditert-butyl-4-hydroxybenzaldehyde",
    "duplicated_cas_no": "",
    "SMILES": "C(C)(C)(C)C1=C(O)C(C(C)(C)C)=CC(C=O)=C1",
    "meta_data": {
        "InChI": "InChI=1S/C15H22O2/c1-14(2,3)11-7-10(9-16)8-12(13(11)17)15(4,5)6/h7-9,17H,1-6H3",
        "InChIKey": null,
        "Canonical SMILES": "O=CC=1C=C(C(O)=C(C1)C(C)(C)C)C(C)(C)C",
        "Molecular Formula": "C<sub>15</sub>H<sub>22</sub>O<sub>2</sub>",
        "Molecular Mass": "234.33",
        "Melting Point": "189 °C"
    }
}