{
    "cas_no": "34671-83-5",
    "key_name": "2,2′-Bipyrimidine",
    "cn_name": "2,2\"-二嘧啶;2 2\"-联嘧啶;2,2\"-二嘧啶,96%;2,2\"-二嘧啶;2,2\"-二嘧啶, TYPICALL;",
    "alternate_name": "2,2′-Bipyrimidine;2,2′-Dipyrimidine;Bipyrimidyl;[2,2′]Bipyrimidinyl",
    "duplicated_cas_no": "",
    "SMILES": "C=1(N=CC=CN1)C=2N=CC=CN2",
    "meta_data": {
        "InChI": "InChI=1S/C8H6N4/c1-3-9-7(10-4-1)8-11-5-2-6-12-8/h1-6H",
        "InChIKey": null,
        "Canonical SMILES": "N=1C=CC=NC1C=2N=CC=CN2",
        "Molecular Formula": "C<sub>8</sub>H<sub>6</sub>N<sub>4</sub>",
        "Molecular Mass": "158.16",
        "Melting Point": "113.0-115.0 °C"
    }
}