{
    "cas_no": "78-51-3",
    "key_name": "Tris(2-butoxyethyl) phosphate",
    "cn_name": "磷酸三(丁氧基乙基)酯;丁氧基磷酸三乙酯;TBEP;",
    "alternate_name": "Ethanol, 2-butoxy-, 1,1′,1′′-phosphate;Ethanol, 2-butoxy-, phosphate (3:1);Phosphoric acid, tris(2-butoxyethyl) ester;KP 140;TBEP;Tri(2-butoxyethyl) phosphate;Tris(2-butoxyethyl) phosphate;<em>tris</em>-2-Butoxyethyl phosphate;2-Butoxyethanol phosphate;Tris(2-<em>n</em>-butoxyethyl) phosphate;TBXP;Phosflex T-BEP;Hostaphat B 310;NSC 4839;NSC 62228;Kronitex KP 140;Amgard TBEP;FMC-KP 140;Tris(2-butyloxyethyl) phosphate;Hostaphat TBEP;Tri(butoxylethyl) phosphate",
    "duplicated_cas_no": "119166-98-2;19040-50-7;31227-66-4",
    "SMILES": "P(OCCOCCCC)(OCCOCCCC)(OCCOCCCC)=O",
    "meta_data": {
        "InChI": "InChI=1S/C18H39O7P/c1-4-7-10-20-13-16-23-26(19,24-17-14-21-11-8-5-2)25-18-15-22-12-9-6-3/h4-18H2,1-3H3",
        "InChIKey": null,
        "Canonical SMILES": "O=P(OCCOCCCC)(OCCOCCCC)OCCOCCCC",
        "Molecular Formula": "C<sub>18</sub>H<sub>39</sub>O<sub>7</sub>P",
        "Molecular Mass": "398.47",
        "Boiling Point": "215-228 °C @ Press: 4 Torr",
        "Melting Point": "-70 °C",
        "Density": "1.020 g/cm³ @ Temp: 20 °C"
    }
}