{
    "cas_no": "175481-36-4",
    "key_name": "Lacosamide",
    "cn_name": "拉克酰胺;",
    "alternate_name": "Propanamide, 2-(acetylamino)-3-methoxy-<em>N</em>-(phenylmethyl)-, (2<em>R</em>)-;Propanamide, 2-(acetylamino)-3-methoxy-<em>N</em>-(phenylmethyl)-, (<em>R</em>)-;(2<em>R</em>)-2-(Acetylamino)-3-methoxy-<em>N</em>-(phenylmethyl)propanamide;Erlosamide;SPM 927;Lacosamide;ADD 243037;Harkoseride;Vimpat;(2<em>R</em>)-2-Acetamido-<em>N</em>-benzyl-3-methoxypropanamide;(R)-2-Acetamido-<em>N</em>-benzyl-3-methoxypropionamide;Lacoset 50;Lacoset;Lacosamide UCB;(+)-Lacosamide",
    "duplicated_cas_no": "",
    "SMILES": "C(NC([C@H](NC(C)=O)COC)=O)C1=CC=CC=C1",
    "meta_data": {
        "InChI": "InChI=1S/C13H18N2O3/c1-10(16)15-12(9-18-2)13(17)14-8-11-6-4-3-5-7-11/h3-7,12H,8-9H2,1-2H3,(H,14,17)(H,15,16)/t12-/m1/s1",
        "InChIKey": null,
        "Canonical SMILES": "O=C(NC(C(=O)NCC=1C=CC=CC1)COC)C",
        "Molecular Formula": "C<sub>13</sub>H<sub>18</sub>N<sub>2</sub>O<sub>3</sub>",
        "Molecular Mass": "250.29",
        "Melting Point": "142-143 °C"
    }
}