{
    "cas_no": "2526-64-9",
    "key_name": "Dichlorotriphenylphosphorane",
    "cn_name": "三苯基二氯化膦;",
    "alternate_name": "Phosphorane, dichlorotriphenyl-;Dichlorotriphenylphosphorane;Triphenylphosphine dichloride;Triphenyldichlorophosphorane;Triphenylphosphorus dichloride;Triphenylphosphorane dichloride;NSC 91701",
    "duplicated_cas_no": "",
    "SMILES": "P(Cl)(Cl)(C1=CC=CC=C1)(C2=CC=CC=C2)C3=CC=CC=C3",
    "meta_data": {
        "InChI": "InChI=1S/C18H15Cl2P/c19-21(20,16-10-4-1-5-11-16,17-12-6-2-7-13-17)18-14-8-3-9-15-18/h1-15H",
        "InChIKey": null,
        "Canonical SMILES": "ClP(Cl)(C=1C=CC=CC1)(C=2C=CC=CC2)C=3C=CC=CC3",
        "Molecular Formula": "C<sub>18</sub>H<sub>15</sub>Cl<sub>2</sub>P",
        "Molecular Mass": "333.19",
        "Melting Point": "176 °C"
    }
}