{
    "cas_no": "195062-62-5",
    "key_name": "Ethyl 4-(4,4,5,5-tetramethyl-1,3,2-dioxaborolan-2-yl)benzoate",
    "cn_name": "4-(4,4,5,5-四甲基-1,3,2-二氧硼戊环-2-基)苯甲酸乙酯;",
    "alternate_name": "Benzoic acid, 4-(4,4,5,5-tetramethyl-1,3,2-dioxaborolan-2-yl)-, ethyl ester;Ethyl 4-(4,4,5,5-tetramethyl-1,3,2-dioxaborolan-2-yl)benzoate;4-(4,4,5,5-Tetramethyl-[1,3,2]dioxaborolan-2-yl)benzoic acid ethyl ester;2-(4-(Ethoxycarbonyl)phenyl)-4,4,5,5-tetramethyl-1,3,2-dioxaborolane",
    "duplicated_cas_no": "",
    "SMILES": "CC1(C)OB(OC1(C)C)C2=CC=C(C(OCC)=O)C=C2",
    "meta_data": {
        "InChI": "InChI=1S/C15H21BO4/c1-6-18-13(17)11-7-9-12(10-8-11)16-19-14(2,3)15(4,5)20-16/h7-10H,6H2,1-5H3",
        "InChIKey": null,
        "Canonical SMILES": "O=C(OCC)C1=CC=C(C=C1)B2OC(C)(C)C(O2)(C)C",
        "Molecular Formula": "C<sub>15</sub>H<sub>21</sub>BO<sub>4</sub>",
        "Molecular Mass": "276.14",
        "Melting Point": "78-80 °C"
    }
}