{
    "cas_no": "4587-33-1",
    "key_name": "<em>N</em><sup>2</sup>-[(1,1-Dimethylethoxy)carbonyl]-<span class=\"text-smallcaps\">L</span>-asparagine 4-nitrophenyl ester",
    "cn_name": "丁氧羰基-L-天冬酰胺对硝苯基酯;BOC-L-天门冬酰胺4-硝基苯酯;",
    "alternate_name": "<span class=\"text-smallcaps\">L</span>-Asparagine, <em>N</em><sup>2</sup>-[(1,1-dimethylethoxy)carbonyl]-, 4-nitrophenyl ester;Asparagine, <em>N</em><sup>2</sup>-carboxy-, <em>N</em><sup>2</sup>-<em>tert</em>-butyl <em>p</em>-nitrophenyl ester, <span class=\"text-smallcaps\">L</span>-;Asparagine, <em>N</em><sup>2</sup>-carboxy-, <em>N</em>-<em>tert</em>-butyl <em>p</em>-nitrophenyl ester;<em>N</em><sup>2</sup>-[(1,1-Dimethylethoxy)carbonyl]-<span class=\"text-smallcaps\">L</span>-asparagine 4-nitrophenyl ester;<em>p</em>-Nitrophenyl <em>N</em><sup>α</sup>-<em>tert</em>-butoxycarbonyl-<span class=\"text-smallcaps\">L</span>-asparagine;<em>N</em><sup>2</sup>-<em>tert</em>-Butyloxycarbonyl-<span class=\"text-smallcaps\">L</span>-asparagine <em>p</em>-nitrophenyl ester;<em>N</em>-(<em>tert</em>-Butoxycarbonyl)-<span class=\"text-smallcaps\">L</span>-asparagine <em>p</em>-nitrophenyl ester;<em>N</em><sup>2</sup>-<em>tert</em>-Butoxycarbonyl-<span class=\"text-smallcaps\">L</span>-asparagine <em>p</em>-nitrophenyl ester;<em>N</em>-BOC-<span class=\"text-smallcaps\">L</span>-asparagine <em>p</em>-nitrophenyl ester;<em>N</em>-<em>tert</em>-Butoxycarbonylasparagine 4-nitrophenyl ester;(4-Nitrophenyl) (2S)-4-amino-2-[(2-methylpropan-2-yl)oxycarbonylamino]-4-oxobutanoate",
    "duplicated_cas_no": "51536-80-2;56618-49-6;292870-05-4",
    "SMILES": "O(C([C@@H](NC(OC(C)(C)C)=O)CC(N)=O)=O)C1=CC=C(N(=O)=O)C=C1",
    "meta_data": {
        "InChI": "InChI=1S/C15H19N3O7/c1-15(2,3)25-14(21)17-11(8-12(16)19)13(20)24-10-6-4-9(5-7-10)18(22)23/h4-7,11H,8H2,1-3H3,(H2,16,19)(H,17,21)/t11-/m0/s1",
        "InChIKey": null,
        "Canonical SMILES": "O=C(OC(C)(C)C)NC(C(=O)OC1=CC=C(C=C1)N(=O)=O)CC(=O)N",
        "Molecular Formula": "C<sub>15</sub>H<sub>19</sub>N<sub>3</sub>O<sub>7</sub>",
        "Molecular Mass": "353.33",
        "Melting Point": "180 °C"
    }
}