{
    "cas_no": "475-38-7",
    "key_name": "Naphthazarin",
    "cn_name": "萘茜;1,4-二羟基萘醌;",
    "alternate_name": "1,4-Naphthalenedione, 5,8-dihydroxy-;Naphthazarin;1,4-Naphthoquinone, 5,8-dihydroxy-;5,8-Dihydroxy-1,4-naphthalenedione;5,8-Dihydroxy-1,4-naphthosemiquinone;5,8-Dihydroxynaphthoquinone;Naphthazarine;Naphthazarone;5,8-Dihydroxy-1,4-naphthoquinone;NSC 26647;NSC 344555",
    "duplicated_cas_no": "",
    "SMILES": "O=C1C=2C(=C(O)C=CC2O)C(=O)C=C1",
    "meta_data": {
        "InChI": "InChI=1S/C10H6O4/c11-5-1-2-6(12)10-8(14)4-3-7(13)9(5)10/h1-4,11-12H",
        "InChIKey": null,
        "Canonical SMILES": "O=C1C=CC(=O)C=2C(O)=CC=C(O)C12",
        "Molecular Formula": "C<sub>10</sub>H<sub>6</sub>O<sub>4</sub>",
        "Molecular Mass": "190.15",
        "Melting Point": "232 °C"
    }
}