{
    "cas_no": "55481-88-4",
    "key_name": "Mollugin",
    "cn_name": "大叶茜草素; 獐牙菜苷; 6-羟基-2,2-二甲基苯并[h]苯并吡喃-5-羧酸甲酯;",
    "alternate_name": "2<em>H</em>-Naphtho[1,2-<em>b</em>]pyran-5-carboxylic acid, 6-hydroxy-2,2-dimethyl-, methyl ester;Mollugin;Rubimaillin;SMB 00431",
    "duplicated_cas_no": "",
    "SMILES": "C(OC)(=O)C1=C2C(=C3C(=C1O)C=CC=C3)OC(C)(C)C=C2",
    "meta_data": {
        "InChI": "InChI=1S/C17H16O4/c1-17(2)9-8-12-13(16(19)20-3)14(18)10-6-4-5-7-11(10)15(12)21-17/h4-9,18H,1-3H3",
        "InChIKey": null,
        "Canonical SMILES": "O=C(OC)C=1C(O)=C2C=CC=CC2=C3OC(C=CC31)(C)C",
        "Molecular Formula": "C<sub>17</sub>H<sub>16</sub>O<sub>4</sub>",
        "Molecular Mass": "284.31",
        "Melting Point": "129.5-131 °C"
    }
}