{
    "cas_no": "536-50-5",
    "key_name": "1-(4-Methylphenyl)ethanol",
    "cn_name": null,
    "alternate_name": "Benzenemethanol, α,4-dimethyl-;Benzyl alcohol, <em>p</em>,α-dimethyl-;α,4-Dimethylbenzenemethanol;<em>p</em>,α-Dimethylbenzyl alcohol;Galinex;4-(α-Hydroxyethyl)toluene;4-Methyl-α-phenethyl alcohol;Methyl-<em>p</em>-tolylcarbinol;<em>p</em>-Tolylmethylcarbinol;1-<em>p</em>-Tolylethanol;1-(<em>p</em>-Methylphenyl)ethanol;Bilagen;Norbilan;Tomobil;(4-Methylphenyl)methylcarbinol;α,4-Dimethylbenzyl alcohol;1-(4-Methylphenyl)ethanol;Methyl <em>p</em>-methylphenyl carbinol;(±)-<em>p</em>,α-Dimethylbenzyl alcohol;<em>dl</em>-<em>p</em>,α-Dimethylbenzyl alcohol;(±)-α,4-Dimethylbenzenemethanol;(±)-1-(4-Methylphenyl)ethanol;NSC 41714;(±)-1-(<em>p</em>-Methylphenyl)ethanol;α-Methyl-4-methylbenzyl alcohol",
    "duplicated_cas_no": "5788-09-0",
    "SMILES": "C(C)(O)C1=CC=C(C)C=C1",
    "meta_data": {
        "InChI": "InChI=1S/C9H12O/c1-7-3-5-9(6-4-7)8(2)10/h3-6,8,10H,1-2H3",
        "InChIKey": null,
        "Canonical SMILES": "OC(C1=CC=C(C=C1)C)C",
        "Molecular Formula": "C<sub>9</sub>H<sub>12</sub>O",
        "Molecular Mass": "136.19",
        "Boiling Point": "219 °C",
        "Density": "0.9832 g/cm³ @ Temp: 14 °C"
    }
}