{
    "cas_no": "31301-31-2",
    "key_name": "1,10-Phenanthroline-4,7-dicarboxylic acid",
    "cn_name": null,
    "alternate_name": "1,10-Phenanthroline-4,7-dicarboxylic acid;4,7-Dicarboxy-1,10-phenanthroline",
    "duplicated_cas_no": "",
    "SMILES": "C(O)(=O)C=1C=2C(=C3C(C(C(O)=O)=CC=N3)=CC2)N=CC1",
    "meta_data": {
        "InChI": "InChI=1S/C14H8N2O4/c17-13(18)9-3-5-15-11-7(9)1-2-8-10(14(19)20)4-6-16-12(8)11/h1-6H,(H,17,18)(H,19,20)",
        "InChIKey": null,
        "Canonical SMILES": "O=C(O)C=1C=CN=C2C=3N=CC=C(C(=O)O)C3C=CC21",
        "Molecular Formula": "C<sub>14</sub>H<sub>8</sub>N<sub>2</sub>O<sub>4</sub>",
        "Molecular Mass": "268.22",
        "Melting Point": "&gt;300 °C"
    }
}