{
    "cas_no": "57149-07-2",
    "key_name": "Naftopidil",
    "cn_name": null,
    "alternate_name": "1-Piperazineethanol, 4-(2-methoxyphenyl)-α-[(1-naphthalenyloxy)methyl]-;4-(2-Methoxyphenyl)-α-[(1-naphthalenyloxy)methyl]-1-piperazineethanol;Naftopidil;(±)-Naftopidil;Naftopil;3-[4-(2-Methoxyphenyl)piperazinyl]-1-naphthyloxypropan-2-ol;Avishot;Flivas;KT 611;1-[4-(2-Methoxyphenyl)piperazin-1-yl]-3-naphthalen-1-yloxypropan-2-ol;1-[4-(2-Methoxy-phenyl)-piperazin-1-yl]-3-(naphthalen-1-yloxy)-propan-2-ol",
    "duplicated_cas_no": "132295-16-0;428520-36-9",
    "SMILES": "O(CC(CN1CCN(CC1)C2=C(OC)C=CC=C2)O)C=3C4=C(C=CC3)C=CC=C4",
    "meta_data": {
        "InChI": "InChI=1S/C24H28N2O3/c1-28-24-11-5-4-10-22(24)26-15-13-25(14-16-26)17-20(27)18-29-23-12-6-8-19-7-2-3-9-21(19)23/h2-12,20,27H,13-18H2,1H3",
        "InChIKey": null,
        "Canonical SMILES": "OC(COC1=CC=CC=2C=CC=CC12)CN3CCN(C=4C=CC=CC4OC)CC3",
        "Molecular Formula": "C<sub>24</sub>H<sub>28</sub>N<sub>2</sub>O<sub>3</sub>",
        "Molecular Mass": "392.49",
        "Melting Point": "125-126 °C"
    }
}