{
    "cas_no": "25601-41-6",
    "key_name": "Methyl 9-decenoate",
    "cn_name": null,
    "alternate_name": "9-Decenoic acid, methyl ester;Methyl 9-decenoate",
    "duplicated_cas_no": "",
    "SMILES": "C(CCCCCCC=C)C(OC)=O",
    "meta_data": {
        "InChI": "InChI=1S/C11H20O2/c1-3-4-5-6-7-8-9-10-11(12)13-2/h3H,1,4-10H2,2H3",
        "InChIKey": null,
        "Canonical SMILES": "O=C(OC)CCCCCCCC=C",
        "Molecular Formula": "C<sub>11</sub>H<sub>20</sub>O<sub>2</sub>",
        "Molecular Mass": "184.28",
        "Boiling Point": "123 °C @ Press: 21 Torr"
    }
}