{
    "cas_no": "47758-37-2",
    "key_name": "9,9-Bis(4-glycidyloxyphenyl)fluorene",
    "cn_name": "9,9-二[(2,3-环氧丙氧基)苯基]芴;",
    "alternate_name": "Oxirane, 2,2′-[9<em>H</em>-fluoren-9-ylidenebis(4,1-phenyleneoxymethylene)]bis-;2,2′-[9<em>H</em>-Fluoren-9-ylidenebis(4,1-phenyleneoxymethylene)]bis[oxirane];9,9-Bis(4-glycidyloxyphenyl)fluorene;Bisphenolfluorene diglycidyl ether;Bisphenol FL diglycidyl ether;9,9-Bis(4-glycidoxyphenyl)fluorene;9,9′-Bis(4-glycidyloxyphenyl)fluorene;2-[[4-[9-[4-(Oxiran-2-ylmethoxy)phenyl]fluoren-9-yl]phenoxy]methyl]oxirane;4,4′-(9-Fluorenylidene)-diphenol diglycidyl ether",
    "duplicated_cas_no": "72704-28-0;157885-96-6",
    "SMILES": "O(CC1CO1)C2=CC=C(C3(C=4C(C=5C3=CC=CC5)=CC=CC4)C6=CC=C(OCC7CO7)C=C6)C=C2",
    "meta_data": {
        "InChI": "InChI=1S/C31H26O4/c1-3-7-29-27(5-1)28-6-2-4-8-30(28)31(29,21-9-13-23(14-10-21)32-17-25-19-34-25)22-11-15-24(16-12-22)33-18-26-20-35-26/h1-16,25-26H,17-20H2",
        "InChIKey": null,
        "Canonical SMILES": "O(C1=CC=C(C=C1)C2(C3=CC=C(OCC4OC4)C=C3)C=5C=CC=CC5C=6C=CC=CC62)CC7OC7",
        "Molecular Formula": "C<sub>31</sub>H<sub>26</sub>O<sub>4</sub>",
        "Molecular Mass": "462.54",
        "Melting Point": "153 °C"
    }
}