{
    "cas_no": "507-28-8",
    "key_name": "Tetraphenylarsonium chloride",
    "cn_name": null,
    "alternate_name": "Arsonium, tetraphenyl-, chloride (1:1);Arsonium, tetraphenyl-, chloride;Tetraphenylarsonium chloride;Phenylarsonium chloride (Ph<sub>4</sub>AsCl);Tetraphenylarsenic chloride;NSC 18857",
    "duplicated_cas_no": "1166-74-1;14842-08-1;60805-89-2;112003-22-2",
    "SMILES": "[As+](C1=CC=CC=C1)(C2=CC=CC=C2)(C3=CC=CC=C3)C4=CC=CC=C4.[Cl-]",
    "meta_data": {
        "InChI": "InChI=1S/C24H20As.ClH/c1-5-13-21(14-6-1)25(22-15-7-2-8-16-22,23-17-9-3-10-18-23)24-19-11-4-12-20-24;/h1-20H;1H/q+1;/p-1",
        "InChIKey": null,
        "Canonical SMILES": "[Cl-].C=1C=CC(=CC1)[As+](C=2C=CC=CC2)(C=3C=CC=CC3)C=4C=CC=CC4",
        "Molecular Formula": "C<sub>24</sub>H<sub>20</sub>As.Cl",
        "Molecular Mass": "",
        "Melting Point": "259 °C"
    }
}