{
    "cas_no": "30557-81-4",
    "key_name": "Bisabolangelone",
    "cn_name": null,
    "alternate_name": "4(2<em>H</em>)-Benzofuranone, 3,3a,7,7a-tetrahydro-3-hydroxy-3,6-dimethyl-2-(3-methyl-2-buten-1-ylidene)-, (2<em>Z</em>,3<em>R</em>,3a<em>R</em>,7a<em>S</em>)-;4(2<em>H</em>)-Benzofuranone, 3,3a,7,7a-tetrahydro-3-hydroxy-3,6-dimethyl-2-(3-methyl-2-butenylidene)-, [3<em>S</em>-(2<em>Z</em>,3α,3aβ,7aβ)]-;Bisabolangelone;4(2<em>H</em>)-Benzofuranone, 3,3a,7,7a-tetrahydro-3-hydroxy-3,6-dimethyl-2-(3-methyl-2-butenylidene)-, (2<em>Z</em>,3<em>R</em>,3a<em>R</em>,7a<em>S</em>)-;(2<em>Z</em>,3<em>R</em>,3a<em>R</em>,7a<em>S</em>)-3,3a,7,7a-Tetrahydro-3-hydroxy-3,6-dimethyl-2-(3-methyl-2-buten-1-ylidene)-4(2<em>H</em>)-benzofuranone;Angelikoreanol;Ligustilone;3-Hydroxy-3,6-dimethyl-2-(3-methylbut-2-enylidene)-3,3a,7,7a-tetrahydrobenzofuran-4(2<em>H</em>)-one;(+)-Bisabolangelone",
    "duplicated_cas_no": "1408-30-6;10208-69-2",
    "SMILES": "C[C@@]\\1(O)[C@]2([C@@](O/C1=C\\C=C(C)C)(CC(C)=CC2=O)[H])[H]",
    "meta_data": {
        "InChI": "InChI=1S/C15H20O3/c1-9(2)5-6-13-15(4,17)14-11(16)7-10(3)8-12(14)18-13/h5-7,12,14,17H,8H2,1-4H3/b13-6-/t12-,14+,15-/m0/s1",
        "InChIKey": null,
        "Canonical SMILES": "O=C1C=C(C)CC2OC(=CC=C(C)C)C(O)(C)C12",
        "Molecular Formula": "C<sub>15</sub>H<sub>20</sub>O<sub>3</sub>",
        "Molecular Mass": "248.32",
        "Melting Point": "157-158 °C"
    }
}