{
    "cas_no": "609-38-1",
    "key_name": "2-Furancarboxamide",
    "cn_name": null,
    "alternate_name": "2-Furancarboxamide;2-Furamide;Furamide;Furfurylamide;2-Furylamide;NSC 9351",
    "duplicated_cas_no": "",
    "SMILES": "C(N)(=O)C1=CC=CO1",
    "meta_data": {
        "InChI": "InChI=1S/C5H5NO2/c6-5(7)4-2-1-3-8-4/h1-3H,(H2,6,7)",
        "InChIKey": null,
        "Canonical SMILES": "O=C(N)C=1OC=CC1",
        "Molecular Formula": "C<sub>5</sub>H<sub>5</sub>NO<sub>2</sub>",
        "Molecular Mass": "111.10",
        "Melting Point": "142 °C"
    }
}