{
    "cas_no": "615-96-3",
    "key_name": "Hexanoic acid, 2-bromo-, ethyl ester",
    "cn_name": "2-溴己酸乙酯;",
    "alternate_name": "Hexanoic acid, 2-bromo-, ethyl ester;Ethyl 2-bromohexanoate;2-Bromohexanoic acid ethyl ester;Ethyl 2-bromocaproate;Ethyl α-bromocaproate;<span class=\"text-smallcaps\">DL</span>-Ethyl 2-bromohexanoate;NSC 8879",
    "duplicated_cas_no": "63034-18-4;63927-44-6",
    "SMILES": "C(C(OCC)=O)(CCCC)Br",
    "meta_data": {
        "InChI": "InChI=1S/C8H15BrO2/c1-3-5-6-7(9)8(10)11-4-2/h7H,3-6H2,1-2H3",
        "InChIKey": null,
        "Canonical SMILES": "O=C(OCC)C(Br)CCCC",
        "Molecular Formula": "C<sub>8</sub>H<sub>15</sub>BrO<sub>2</sub>",
        "Molecular Mass": "223.11",
        "Boiling Point": "95-96 °C @ Press: 9 Torr"
    }
}