{
    "cas_no": "16409-45-3",
    "key_name": "Menthyl acetate",
    "cn_name": null,
    "alternate_name": "Cyclohexanol, 5-methyl-2-(1-methylethyl)-, 1-acetate;Menthol, acetate;Cyclohexanol, 5-methyl-2-(1-methylethyl)-, acetate;Menthyl acetate;Acetic acid 5-methyl-2-(1-methylethyl)cyclohexyl ester;2-Isopropyl-5-methylcyclohexyl acetate",
    "duplicated_cas_no": "",
    "SMILES": "C(C)(C)C1C(OC(C)=O)CC(C)CC1",
    "meta_data": {
        "InChI": "InChI=1S/C12H22O2/c1-8(2)11-6-5-9(3)7-12(11)14-10(4)13/h8-9,11-12H,5-7H2,1-4H3",
        "InChIKey": null,
        "Canonical SMILES": "O=C(OC1CC(C)CCC1C(C)C)C",
        "Molecular Formula": "C<sub>12</sub>H<sub>22</sub>O<sub>2</sub>",
        "Molecular Mass": "198.30",
        "Boiling Point": "227 °C",
        "Melting Point": "&lt;25 °C",
        "Density": "0.925 g/cm³"
    }
}