{
    "cas_no": "5438-19-7",
    "key_name": "4-Propoxybenzoic acid",
    "cn_name": "4-丙氧基苯甲酸;对丙氧基苯甲酸;",
    "alternate_name": "Benzoic acid, 4-propoxy-;Benzoic acid, <em>p</em>-propoxy-;4-Propoxybenzoic acid;<em>p</em>-Propoxybenzoic acid;<em>p</em>-(<em>n</em>-Propoxy)benzoic acid;NSC 16632;4-Propyloxybenzoic acid",
    "duplicated_cas_no": "",
    "SMILES": "C(O)(=O)C1=CC=C(OCCC)C=C1",
    "meta_data": {
        "InChI": "InChI=1S/C10H12O3/c1-2-7-13-9-5-3-8(4-6-9)10(11)12/h3-6H,2,7H2,1H3,(H,11,12)",
        "InChIKey": null,
        "Canonical SMILES": "O=C(O)C1=CC=C(OCCC)C=C1",
        "Molecular Formula": "C<sub>10</sub>H<sub>12</sub>O<sub>3</sub>",
        "Molecular Mass": "180.20",
        "Melting Point": "144-146 °C"
    }
}