{
    "cas_no": "612-41-9",
    "key_name": "3-(2-Nitrophenyl)-2-propenoic acid",
    "cn_name": "2-硝基肉桂酸;邻硝基肉桂酸;",
    "alternate_name": "2-Propenoic acid, 3-(2-nitrophenyl)-;Cinnamic acid, <em>o</em>-nitro-;3-(2-Nitrophenyl)-2-propenoic acid;<em>o</em>-Nitrocinnamic acid;2-Nitrocinnamic acid;2-Nitrobenzenepropenoic acid;3-(2-Nitrophenyl)propenoic acid;NSC 14018;NSC 638145",
    "duplicated_cas_no": "",
    "SMILES": "C(=CC(O)=O)C1=C(N(=O)=O)C=CC=C1",
    "meta_data": {
        "InChI": "InChI=1S/C9H7NO4/c11-9(12)6-5-7-3-1-2-4-8(7)10(13)14/h1-6H,(H,11,12)",
        "InChIKey": null,
        "Canonical SMILES": "O=C(O)C=CC=1C=CC=CC1N(=O)=O",
        "Molecular Formula": "C<sub>9</sub>H<sub>7</sub>NO<sub>4</sub>",
        "Molecular Mass": "193.16",
        "Melting Point": "240 °C"
    }
}