{
    "cas_no": "3678-62-4",
    "key_name": "2-Chloro-4-methylpyridine",
    "cn_name": "2-氯-4-甲基吡啶;",
    "alternate_name": "Pyridine, 2-chloro-4-methyl-;4-Picoline, 2-chloro-;2-Chloro-4-methylpyridine;2-Chloro-4-picoline",
    "duplicated_cas_no": "",
    "SMILES": "CC=1C=C(Cl)N=CC1",
    "meta_data": {
        "InChI": "InChI=1S/C6H6ClN/c1-5-2-3-8-6(7)4-5/h2-4H,1H3",
        "InChIKey": null,
        "Canonical SMILES": "ClC1=NC=CC(=C1)C",
        "Molecular Formula": "C<sub>6</sub>H<sub>6</sub>ClN",
        "Molecular Mass": "127.57",
        "Boiling Point": "192 °C",
        "Melting Point": "115 °C"
    }
}