{
    "cas_no": "10262-69-8",
    "key_name": "Maprotiline",
    "cn_name": "马普替林;马洛噻平;N-甲基-9,10-桥亚乙基蒽-9(10H)-丙胺;",
    "alternate_name": "9,10-Ethanoanthracene-9(10<em>H</em>)-propanamine, <em>N</em>-methyl-;9,10-Ethanoanthracene-9(10<em>H</em>)-propylamine, <em>N</em>-methyl-;<em>N</em>-Methyl-9,10-ethanoanthracene-9(10<em>H</em>)-propanamine;Maprotiline;<em>N</em>-Methyl-9,10-ethanoanthracene-9(10<em>H</em>)-propylamine;[3-(9,10-Ethanoanthracen-9(10<em>H</em>)-yl)propyl]methylamine;MeSH ID: D008376",
    "duplicated_cas_no": "",
    "SMILES": "C(CCNC)C12C=3C(C(C=4C1=CC=CC4)CC2)=CC=CC3",
    "meta_data": {
        "InChI": "InChI=1S/C20H23N/c1-21-14-6-12-20-13-11-15(16-7-2-4-9-18(16)20)17-8-3-5-10-19(17)20/h2-5,7-10,15,21H,6,11-14H2,1H3",
        "InChIKey": null,
        "Canonical SMILES": "C=1C=CC2=C(C1)C3C=4C=CC=CC4C2(CCCNC)CC3",
        "Molecular Formula": "C<sub>20</sub>H<sub>23</sub>N",
        "Molecular Mass": "277.40",
        "Melting Point": "93 °C"
    }
}