{
    "cas_no": "4457-71-0",
    "key_name": "3-Methyl-1,5-pentanediol",
    "cn_name": "3-甲基-1,5-戊二醇;",
    "alternate_name": "1,5-Pentanediol, 3-methyl-;3-Methyl-1,5-pentanediol;1,5-Dihydroxy-3-methylpentane;MPD;Diol MPD;NSC 6496",
    "duplicated_cas_no": "",
    "SMILES": "C(CCO)(CCO)C",
    "meta_data": {
        "InChI": "InChI=1S/C6H14O2/c1-6(2-4-7)3-5-8/h6-8H,2-5H2,1H3",
        "InChIKey": null,
        "Canonical SMILES": "OCCC(C)CCO",
        "Molecular Formula": "C<sub>6</sub>H<sub>14</sub>O<sub>2</sub>",
        "Molecular Mass": "118.17",
        "Boiling Point": "84-95 °C @ Press: 0.7 Torr",
        "Melting Point": "106-107 °C",
        "Density": "0.9738 g/cm³ @ Temp: 20 °C"
    }
}