{
    "cas_no": "61869-08-7",
    "key_name": "(-)-Paroxetine",
    "cn_name": "帕罗西汀;帕罗昔丁;(-)-反式-4-(4-氟苯基)-3-{[(3\",4\"-亚甲二氧基)苯氧基]甲基}-哌啶;",
    "alternate_name": "Piperidine, 3-[(1,3-benzodioxol-5-yloxy)methyl]-4-(4-fluorophenyl)-, (3<em>S</em>,4<em>R</em>)-;Piperidine, 3-[(1,3-benzodioxol-5-yloxy)methyl]-4-(4-fluorophenyl)-, (3<em>S</em>-<em>trans</em>)-;(3<em>S</em>,4<em>R</em>)-3-[(1,3-Benzodioxol-5-yloxy)methyl]-4-(4-fluorophenyl)piperidine;FG 7051;Paroxetine;BRL 29060;(-)-<em>trans</em>-4-(4-Fluorophenyl)-3-(3,4-methylenedioxyphenoxymethyl)piperidine;(-)-Paroxetine;Paxil;Aropax;Motivan;Casbol;Frosinor;Besitram;Paxetil;PaxPar;Daparox;Arketis;Parogen;Xetanor;Arotin;Serotax;Brisdelle;M-Paroxetine;(-)-<em>trans</em>-Paroxetine;MeSH ID: D017374",
    "duplicated_cas_no": "63952-24-9",
    "SMILES": "C(OC=1C=C2C(=CC1)OCO2)[C@H]3[C@@H](CCNC3)C4=CC=C(F)C=C4",
    "meta_data": {
        "InChI": "InChI=1S/C19H20FNO3/c20-15-3-1-13(2-4-15)17-7-8-21-10-14(17)11-22-16-5-6-18-19(9-16)24-12-23-18/h1-6,9,14,17,21H,7-8,10-12H2/t14-,17-/m0/s1",
        "InChIKey": null,
        "Canonical SMILES": "FC1=CC=C(C=C1)C2CCNCC2COC3=CC=C4OCOC4=C3",
        "Molecular Formula": "C<sub>19</sub>H<sub>20</sub>FNO<sub>3</sub>",
        "Molecular Mass": "329.37",
        "Melting Point": "121-123 °C"
    }
}