{
    "cas_no": "2082-79-3",
    "key_name": "Antioxidant 1076",
    "cn_name": "3-(3,5-二叔丁基-4-羟基苯基)丙酸正十八烷醇酯;抗氧剂1076;抗氧剂AT76;",
    "alternate_name": "Benzenepropanoic acid, 3,5-bis(1,1-dimethylethyl)-4-hydroxy-, octadecyl ester;Hydrocinnamic acid, 3,5-di-<em>tert</em>-butyl-4-hydroxy-, octadecyl ester;Irganox 1076;Octadecyl 3,5-di-<em>tert</em>-butyl-4-hydroxyhydrocinnamate;Octadecyl β-(3,5-di-<em>tert</em>-butyl-4-hydroxyphenyl)propionate;Octadecyl β-(4′-hydroxy-3′,5′-di-<em>tert</em>-butylphenyl)propionate;2,6-Di-<em>tert</em>-butyl-4-[[(octadecyloxy)carbonyl]ethyl]phenol;Octadecyl 3,5-di-<em>tert</em>-butyl-4-hydroxyphenylpropionate;Stearyl β-(3,5-di-<em>tert</em>-butyl-4-hydroxyphenyl)propionate;Octadecyl β-(3,5-<em>tert</em>-butyl-4-hydroxyphenyl)propionate;Octadecyl 3-(3,5-di-<em>tert</em>-butyl-4-hydroxyphenyl)propionate;Stearyl 3,5-di-<em>tert</em>-butyl-4-hydroxyhydrocinnamate;4-Carboxyethyl)-2,6-di-<em>tert</em>-butyl-1-hydroxybenzene stearyl ester;Octadecyl-3-(3′,5′-di-<em>tert</em>-butyl-4′-hydroxyphenyl)propionate;3,5-Di-<em>tert</em>-butyl-4-hydroxyphenylpropionic acid octadecyl ester;2,6-Di-<em>tert</em>-butyl-4-(octadecanoxycarbonylethyl)phenol;<em>n</em>-Octadecyl β-(3,5-di-<em>tert</em>-butyl-4-hydroxyphenyl)propionate;3-(3,5-Di-<em>tert</em>-butyl-4-hydroxyphenyl)propionic acid octadecyl ester;3-(3,5-Di-<em>tert</em>-butyl-4-hydroxyphenol)propionic acid octadecyl ester;Stearyl 3-(3,5-di-<em>tert</em>-butyl-4-hydroxyphenyl)propionate;Octadecyl-3-(3′,5′-di-<em>tert</em>-butyl-4′-hydroxyphenyl)propenoate;Octadecyl β-(4-hydroxy-3,5-di-<em>tert</em>-butylphenyl)propionate;Octadecyl 3,5-di-<em>tert</em>-butyl-4-oxyphenylpropionate;Octadecyl 3-(3′,5′-di-<em>tert</em>-butyl-4-hydroxyphenyl) propionate;<em>n</em>-Octadecyl β-(4′-hydroxy-3′,5′-di-<em>tert</em>-butylphenyl)propionate;Antioxidant 1076;AO 4;Irganox 1906;Octadecyl 3-(4-hydroxy-3,5-di-<em>tert</em>-butylphenyl)propionate;Mark AO 50;U 276;Octadecyl 3,5-bis(1,1-dimethylethyl)-4-hydroxyphenylpropanoate;Naugard 76;Sumilizer BP 76;E 376;I 1076;IR 1076;Irganox 1976;Ralox 530;Anox PP 18;<em>n</em>-Octadecyl 3-(3,5-di-<em>tert</em>-butyl-4-hydroxyphenyl)propionate;ADK Stab AO 50;Irganox L 107;Octadecyl 3-(4′-hydroxy-3′,5′-di-<em>tert</em>-butylphenyl)propionate;Irganox I 1076;<em>n</em>-Octadecyl 3,5-di-<em>tert</em>-butyl-4-hydroxyhydrocinnamate;Ultranox 276;Octadecyl 3-[3,5-Bis(1,1-dimethylethyl)-4-hydroxybenzene]propionate;<em>n</em>-Octadecyl-3-(3′,5′-di-<em>tert</em>-butyl-4′-hydroxyphenyl)propionate;Tominokusu SS;Tominox SS;IX 1076;Selosol F 773;Arenox A 76;Irganox 1068;Hostanox O 16;O 16;Hostanox M 016;<em>n</em>-Octadecyl 3-(4′-hydroxy-3′,5′-di-<em>tert</em>-butylphenyl)propionate;AT 76;L 107;Octadecanyl β-(3,5-di-<em>tert</em>-butyl-4-hydroxyphenyl)propionate;AO 50;M 4;Quantox 1076;Irgastab PVC 76;Irganox 1076DWJ;Hostanox 016;Songnox 1076;Addiox 1016;Tinogard TS;JY 1076;KY 1076;Sonox 1076;Chinox 1076;Chemnox 1076;HG 1076;Irganox 1096;Antioxidant 1016;3-(3,5-Di-<em>tert</em>-butyl-4-hydroxyphenyl)propionic acid stearyl ester;AO 1076;Adeka Stab AO 50;Antioxidant 1068;Octadecyl 3-(3,5-bis(1,1-dimethylethyl)-4-hydroxyphenyl)propionate;Antioxidant 1081;β-(3,5-Di-<em>tert</em>-butyl-4-hydroxyphenyl)propionic acid octadecyl ester;Octadecyl 3-(3,5-bis-<em>tert</em>-butyl-4-hydroxyphenyl)propanoate;Octadecyl 3-(3,5-di-<em>t</em>ert-butyl-4-hydroxyphenyl) propionate;β-(3,5-Di-<em>tert</em>-butyl-4-hydroxyphenyl)propionic acid <em>n</em>-octadecyl alcohol ester;2,6-Di-<em>tert</em>-butyl-4-[(2-octadecyloxycarbonyl)ethyl]phenol;β-(3,5-Di-<em>tert</em>-butyl-4-hydroxyphenyl)propanoic acid <em>n</em>-octadecyl ester;Octadecyl 3-(3,5-di-<em>tert</em>-butyl-4-hydroxyphenyl)propanoate;Jyanox 1076;β-(4-Hydroxy-3,5-di-<em>tert</em>-butylphenyl)propanoic acid <em>n</em>-octadecyl ester;AT 1076;Dovernox 76;3,5-Bis(1,1-dimethylethyl)-4-hydroxybenzenepropanoic acid octadecyl ester;B 65227;SK 1076;Chemnox B 201;BC 1076;Rianox 1076",
    "duplicated_cas_no": "69093-37-4;80693-11-4;109265-64-7;119764-08-8;156511-59-0;947261-97-4;1352054-71-7;2640004-55-1",
    "SMILES": "C(CC(OCCCCCCCCCCCCCCCCCC)=O)C1=CC(C(C)(C)C)=C(O)C(C(C)(C)C)=C1",
    "meta_data": {
        "InChI": "InChI=1S/C35H62O3/c1-8-9-10-11-12-13-14-15-16-17-18-19-20-21-22-23-26-38-32(36)25-24-29-27-30(34(2,3)4)33(37)31(28-29)35(5,6)7/h27-28,37H,8-26H2,1-7H3",
        "InChIKey": null,
        "Canonical SMILES": "O=C(OCCCCCCCCCCCCCCCCCC)CCC=1C=C(C(O)=C(C1)C(C)(C)C)C(C)(C)C",
        "Molecular Formula": "C<sub>35</sub>H<sub>62</sub>O<sub>3</sub>",
        "Molecular Mass": "530.86",
        "Melting Point": "49-50 °C"
    }
}