{
    "cas_no": "36306-87-3",
    "key_name": "4-(1-Ethoxyethenyl)-3,3,5,5-tetramethylcyclohexanone",
    "cn_name": null,
    "alternate_name": "Cyclohexanone, 4-(1-ethoxyethenyl)-3,3,5,5-tetramethyl-;4-(1-Ethoxyethenyl)-3,3,5,5-tetramethylcyclohexanone;Kephalis;LRG 1182;4-(1-Ethoxyvinyl)-3,3,5,5-tetramethylcyclohexanone;4-(1-Ethoxyvinyl)-3,3,5,5-tetramethylcyclohexan-1-one",
    "duplicated_cas_no": "",
    "SMILES": "C(OCC)(=C)C1C(C)(C)CC(=O)CC1(C)C",
    "meta_data": {
        "InChI": "InChI=1S/C14H24O2/c1-7-16-10(2)12-13(3,4)8-11(15)9-14(12,5)6/h12H,2,7-9H2,1,3-6H3",
        "InChIKey": null,
        "Canonical SMILES": "O=C1CC(C)(C)C(C(OCC)=C)C(C)(C)C1",
        "Molecular Formula": "C<sub>14</sub>H<sub>24</sub>O<sub>2</sub>",
        "Molecular Mass": "224.34",
        "Boiling Point": "80-82 °C @ Press: 2 Torr"
    }
}