{
    "cas_no": "541-31-1",
    "key_name": "3-Methyl-1-butanethiol",
    "cn_name": "异戊硫醇;3-甲基-1-丁硫醇;",
    "alternate_name": "1-Butanethiol, 3-methyl-;3-Methyl-1-butanethiol;<em>iso</em>-Amyl mercaptan;Isoamyl sulfhydrate;2-Methyl-4-butanethiol;Isoamyl mercaptan;Isopentyl mercaptan;3-Methylbutanethiol;3-Methylbutyl mercaptan;Isopentylthiol;Isopentanethiol;3-Methylbutan-1-thiol",
    "duplicated_cas_no": "",
    "SMILES": "C(C(C)C)CS",
    "meta_data": {
        "InChI": "InChI=1S/C5H12S/c1-5(2)3-4-6/h5-6H,3-4H2,1-2H3",
        "InChIKey": null,
        "Canonical SMILES": "SCCC(C)C",
        "Molecular Formula": "C<sub>5</sub>H<sub>12</sub>S",
        "Molecular Mass": "104.21",
        "Boiling Point": "120 °C",
        "Density": "0.8322 g/cm³ @ Temp: 20 °C"
    }
}