{
    "cas_no": "17471-10-2",
    "key_name": "<em>N</em>-Desmethyldiphenhydramine",
    "cn_name": null,
    "alternate_name": "Ethanamine, 2-(diphenylmethoxy)-<em>N</em>-methyl-;Ethylamine, 2-(diphenylmethoxy)-<em>N</em>-methyl-;2-(Diphenylmethoxy)-<em>N</em>-methylethanamine;<em>N</em>-Demethyldiphenhydramine;2-(Diphenylmethoxy)-<em>N</em>-methylethylamine;<em>N</em>-Desmethyldiphenhydramine;FAR 8328V;Nordiphenhydramine;[2-(Diphenylmethoxy)ethyl](methyl)amine;2-Benzhydryloxy-<em>N</em>-methylethanamine",
    "duplicated_cas_no": "",
    "SMILES": "C(OCCNC)(C1=CC=CC=C1)C2=CC=CC=C2",
    "meta_data": {
        "InChI": "InChI=1S/C16H19NO/c1-17-12-13-18-16(14-8-4-2-5-9-14)15-10-6-3-7-11-15/h2-11,16-17H,12-13H2,1H3",
        "InChIKey": null,
        "Canonical SMILES": "O(CCNC)C(C=1C=CC=CC1)C=2C=CC=CC2",
        "Molecular Formula": "C<sub>16</sub>H<sub>19</sub>NO",
        "Molecular Mass": "241.33",
        "Boiling Point": "147-148 °C @ Press: 1.5 Torr"
    }
}