{
    "cas_no": "5334-99-6",
    "key_name": "1-Methyl-1<em>H</em>-pyrazolo[3,4-<em>d</em>]pyrimidin-4-amine",
    "cn_name": null,
    "alternate_name": "1<em>H</em>-Pyrazolo[3,4-<em>d</em>]pyrimidin-4-amine, 1-methyl-;1<em>H</em>-Pyrazolo[3,4-<em>d</em>]pyrimidine, 4-amino-1-methyl-;1-Methyl-1<em>H</em>-pyrazolo[3,4-<em>d</em>]pyrimidin-4-amine;NSC 1399;1-Methylpyrazolo[3,4-<em>d</em>]pyrimidin-4-amine",
    "duplicated_cas_no": "",
    "SMILES": "NC1=C2C(N(C)N=C2)=NC=N1",
    "meta_data": {
        "InChI": "InChI=1S/C6H7N5/c1-11-6-4(2-10-11)5(7)8-3-9-6/h2-3H,1H3,(H2,7,8,9)",
        "InChIKey": null,
        "Canonical SMILES": "N=1C=NC2=C(C=NN2C)C1N",
        "Molecular Formula": "C<sub>6</sub>H<sub>7</sub>N<sub>5</sub>",
        "Molecular Mass": "149.15",
        "Melting Point": "267-268 °C"
    }
}