{
    "cas_no": "1649-08-7",
    "key_name": "1,2-Dichloro-1,1-difluoroethane",
    "cn_name": "1,1-二氟-1,2-二氯乙烷;",
    "alternate_name": "Ethane, 1,2-dichloro-1,1-difluoro-;1,2-Dichloro-1,1-difluoroethane;1,1-Difluoro-1,2-dichloroethane;1,2-Dichloro-2,2-difluoroethane;Fron 132b;R 132b;HCFC 132b;FC 132b;CFC 132b;F 132b",
    "duplicated_cas_no": "",
    "SMILES": "C(CCl)(Cl)(F)F",
    "meta_data": {
        "InChI": "InChI=1S/C2H2Cl2F2/c3-1-2(4,5)6/h1H2",
        "InChIKey": null,
        "Canonical SMILES": "FC(F)(Cl)CCl",
        "Molecular Formula": "C<sub>2</sub>H<sub>2</sub>Cl<sub>2</sub>F<sub>2</sub>",
        "Molecular Mass": "134.94",
        "Boiling Point": "46.8 °C @ Press: 760 Torr",
        "Melting Point": "-101.2 °C",
        "Density": "1.4163 g/cm³ @ Temp: 20 °C"
    }
}