{
    "cas_no": "23039-28-3",
    "key_name": "3-(1,1-Dimethylethyl)benzaldehyde",
    "cn_name": null,
    "alternate_name": "Benzaldehyde, 3-(1,1-dimethylethyl)-;Benzaldehyde, <em>m</em>-<em>tert</em>-butyl-;3-(1,1-Dimethylethyl)benzaldehyde;<em>m</em>-<em>tert</em>-Butylbenzaldehyde;3-<em>tert</em>-Butylbenzaldehyde",
    "duplicated_cas_no": "",
    "SMILES": "C(C)(C)(C)C1=CC(C=O)=CC=C1",
    "meta_data": {
        "InChI": "InChI=1S/C11H14O/c1-11(2,3)10-6-4-5-9(7-10)8-12/h4-8H,1-3H3",
        "InChIKey": null,
        "Canonical SMILES": "O=CC1=CC=CC(=C1)C(C)(C)C",
        "Molecular Formula": "C<sub>11</sub>H<sub>14</sub>O",
        "Molecular Mass": "162.23",
        "Boiling Point": "140-150 °C"
    }
}