{
    "cas_no": "179324-69-7",
    "key_name": "Bortezomib",
    "cn_name": "保特佐米;[(1R)-3-甲基-1-[[(2S)-1-氧-3-苯基-2-[(吡嗪甲酰)氨基]丙基]氨基]丁基]-硼酸;",
    "alternate_name": "Boronic acid, <em>B</em>-[(1<em>R</em>)-3-methyl-1-[[(2<em>S</em>)-1-oxo-3-phenyl-2-[(2-pyrazinylcarbonyl)amino]propyl]amino]butyl]-;Boronic acid, [3-methyl-1-[[1-oxo-3-phenyl-2-[(pyrazinylcarbonyl)amino]propyl]amino]butyl]-, [<em>S</em>-(<em>R</em>*,<em>S</em>*)]-;Boronic acid, [(1<em>R</em>)-3-methyl-1-[[(2<em>S</em>)-1-oxo-3-phenyl-2-[(pyrazinylcarbonyl)amino]propyl]amino]butyl]-;<em>B</em>-[(1<em>R</em>)-3-Methyl-1-[[(2<em>S</em>)-1-oxo-3-phenyl-2-[(2-pyrazinylcarbonyl)amino]propyl]amino]butyl]boronic acid;PS 341;PS 341 (pharmaceutical);MG 341;LDP 341;Bortezomib;MLN 341;Velcade;NSC 681239;DPBA;Radiciol;PS 314;Brotezamide",
    "duplicated_cas_no": "197730-97-5",
    "SMILES": "[C@H](CC1=CC=CC=C1)(C(N[C@@H](CC(C)C)B(O)O)=O)NC(=O)C=2C=NC=CN2",
    "meta_data": {
        "InChI": "InChI=1S/C19H25BN4O4/c1-13(2)10-17(20(27)28)24-18(25)15(11-14-6-4-3-5-7-14)23-19(26)16-12-21-8-9-22-16/h3-9,12-13,15,17,27-28H,10-11H2,1-2H3,(H,23,26)(H,24,25)/t15-,17-/m0/s1",
        "InChIKey": null,
        "Canonical SMILES": "O=C(NC(C(=O)NC(B(O)O)CC(C)C)CC=1C=CC=CC1)C2=NC=CN=C2",
        "Molecular Formula": "C<sub>19</sub>H<sub>25</sub>BN<sub>4</sub>O<sub>4</sub>",
        "Molecular Mass": "384.24",
        "Melting Point": "121.2-122.7 °C"
    }
}