{
    "cas_no": "19881-18-6",
    "key_name": "Nitroscanate",
    "cn_name": null,
    "alternate_name": "Benzene, 1-isothiocyanato-4-(4-nitrophenoxy)-;Isothiocyanic acid, <em>p</em>-(<em>p</em>-nitrophenoxy)phenyl ester;1-Isothiocyanato-4-(4-nitrophenoxy)benzene;4-Nitro-4′-isothiocyanatodiphenyl ether;Nitroscanate;Cantrodifene;Lopatol;4-(4-Nitrophenoxy)phenyl isothiocyanate",
    "duplicated_cas_no": "",
    "SMILES": "O(C1=CC=C(N(=O)=O)C=C1)C2=CC=C(N=C=S)C=C2",
    "meta_data": {
        "InChI": "InChI=1S/C13H8N2O3S/c16-15(17)11-3-7-13(8-4-11)18-12-5-1-10(2-6-12)14-9-19/h1-8H",
        "InChIKey": null,
        "Canonical SMILES": "O=N(=O)C1=CC=C(OC2=CC=C(N=C=S)C=C2)C=C1",
        "Molecular Formula": "C<sub>13</sub>H<sub>8</sub>N<sub>2</sub>O<sub>3</sub>S",
        "Molecular Mass": "272.28",
        "Melting Point": "110 °C"
    }
}