{
    "cas_no": "485-49-4",
    "key_name": "Bicuculline",
    "cn_name": "(+)-荷包牡丹碱;毕枯枯林;山乌龟碱;",
    "alternate_name": "Furo[3,4-<em>e</em>]-1,3-benzodioxol-8(6<em>H</em>)-one, 6-[(5<em>S</em>)-5,6,7,8-tetrahydro-6-methyl-1,3-dioxolo[4,5-<em>g</em>]isoquinolin-5-yl]-, (6<em>R</em>)-;Bicuculline;Furo[3,4-<em>e</em>]-1,3-benzodioxol-8(6<em>H</em>)-one, 6-(5,6,7,8-tetrahydro-6-methyl-1,3-dioxolo[4,5-<em>g</em>]isoquinolin-5-yl)-, [<em>R</em>-(<em>R</em>*,<em>S</em>*)]-;1,3-Dioxolo[4,5-<em>g</em>]isoquinoline, furo[3,4-<em>e</em>]-1,3-benzodioxol-8(6<em>H</em>)-one deriv.;(6<em>R</em>)-6-[(5<em>S</em>)-5,6,7,8-Tetrahydro-6-methyl-1,3-dioxolo[4,5-<em>g</em>]isoquinolin-5-yl]furo[3,4-<em>e</em>]-1,3-benzodioxol-8(6<em>H</em>)-one;Bicucullin;<em>d</em>-Bicuculline;(+)-Bicuculline;Bucuculline;NSC 32192;MeSH ID: D001640",
    "duplicated_cas_no": "",
    "SMILES": "CN1[C@]([C@]2(C3=C(C(=O)O2)C4=C(C=C3)OCO4)[H])(C5=C(C=C6C(=C5)OCO6)CC1)[H]",
    "meta_data": {
        "InChI": "InChI=1S/C20H17NO6/c1-21-5-4-10-6-14-15(25-8-24-14)7-12(10)17(21)18-11-2-3-13-19(26-9-23-13)16(11)20(22)27-18/h2-3,6-7,17-18H,4-5,8-9H2,1H3/t17-,18+/m0/s1",
        "InChIKey": null,
        "Canonical SMILES": "O=C1OC(C2=CC=C3OCOC3=C12)C4C5=CC=6OCOC6C=C5CCN4C",
        "Molecular Formula": "C<sub>20</sub>H<sub>17</sub>NO<sub>6</sub>",
        "Molecular Mass": "367.35",
        "Melting Point": "194 °C"
    }
}