{
    "cas_no": "22632-59-3",
    "key_name": "Pentanoic acid, 2-propyl-, methyl ester",
    "cn_name": null,
    "alternate_name": "Pentanoic acid, 2-propyl-, methyl ester;Valeric acid, 2-propyl-, methyl ester;Methyl dipropylacetate;Methyl 2-propylpentanoate;Methyl valproate;2-Propyl-pentanoic acid methyl ester",
    "duplicated_cas_no": "",
    "SMILES": "C(C(OC)=O)(CCC)CCC",
    "meta_data": {
        "InChI": "InChI=1S/C9H18O2/c1-4-6-8(7-5-2)9(10)11-3/h8H,4-7H2,1-3H3",
        "InChIKey": null,
        "Canonical SMILES": "O=C(OC)C(CCC)CCC",
        "Molecular Formula": "C<sub>9</sub>H<sub>18</sub>O<sub>2</sub>",
        "Molecular Mass": "158.24",
        "Boiling Point": "171 °C"
    }
}