{
    "cas_no": "3393-78-0",
    "key_name": "1,1′-Thiobis[4-bromobenzene]",
    "cn_name": null,
    "alternate_name": "Benzene, 1,1′-thiobis[4-bromo-;Sulfide, bis(<em>p</em>-bromophenyl);1,1′-Thiobis[4-bromobenzene];Bis(<em>p</em>-bromophenyl) sulfide;4,4′-Di(bromophenyl sulfide);Bis(4-bromophenyl) sulfide;Di(4-bromophenyl) sulfide;Bis(4-Bromophenyl) thioether",
    "duplicated_cas_no": "",
    "SMILES": "S(C1=CC=C(Br)C=C1)C2=CC=C(Br)C=C2",
    "meta_data": {
        "InChI": "InChI=1S/C12H8Br2S/c13-9-1-5-11(6-2-9)15-12-7-3-10(14)4-8-12/h1-8H",
        "InChIKey": null,
        "Canonical SMILES": "BrC1=CC=C(SC2=CC=C(Br)C=C2)C=C1",
        "Molecular Formula": "C<sub>12</sub>H<sub>8</sub>Br<sub>2</sub>S",
        "Molecular Mass": "344.06",
        "Boiling Point": "268 °C",
        "Melting Point": "115 °C"
    }
}