{
    "cas_no": "5666-17-1",
    "key_name": "<em>N</em>,<em>N</em>-Diethyl-2-propen-1-amine",
    "cn_name": "N,N-二乙基烯丙胺;",
    "alternate_name": "2-Propen-1-amine, <em>N</em>,<em>N</em>-diethyl-;Allylamine, <em>N</em>,<em>N</em>-diethyl-;<em>N</em>,<em>N</em>-Diethyl-2-propen-1-amine;Ethanamine, <em>N</em>-ethyl-<em>N</em>-2-propenyl-;<em>N</em>-Allyldiethylamine;Allyldiethylamine;Diethylallylamine;<em>N</em>,<em>N</em>-Diethylallylamine;<em>N</em>-Allyl-<em>N</em>,<em>N</em>-diethylamine;3-(Diethylamino)-1-propene",
    "duplicated_cas_no": "",
    "SMILES": "N(CC=C)(CC)CC",
    "meta_data": {
        "InChI": "InChI=1S/C7H15N/c1-4-7-8(5-2)6-3/h4H,1,5-7H2,2-3H3",
        "InChIKey": null,
        "Canonical SMILES": "C=CCN(CC)CC",
        "Molecular Formula": "C<sub>7</sub>H<sub>15</sub>N",
        "Molecular Mass": "113.20",
        "Boiling Point": "30-31 °C @ Press: 22-23 Torr",
        "Density": "0.7477 g/cm³ @ Temp: 25 °C"
    }
}