{
    "cas_no": "153719-38-1",
    "key_name": "3,6-Dihydro-3-methyl-<em>N</em>-nitro-2<em>H</em>-1,3,5-oxadiazin-4-amine",
    "cn_name": "3-甲基-4-硝基亚胺四氢-1,3,5-恶二嗪;3-甲基-4-硝基亚胺四氢-1,3,5-噁二嗪;",
    "alternate_name": "2<em>H</em>-1,3,5-Oxadiazin-4-amine, 3,6-dihydro-3-methyl-<em>N</em>-nitro-;3,6-Dihydro-3-methyl-<em>N</em>-nitro-2<em>H</em>-1,3,5-oxadiazin-4-amine;3-Methyl-4-nitroimino-tetrahydro-1,3,5-oxadiazine;3-Methyl-<em>N</em>-nitro-3,6-dihydro-2<em>H</em>-1,3,5-oxadiazin-4-amine",
    "duplicated_cas_no": "",
    "SMILES": "N(N(=O)=O)C=1N(C)COCN1",
    "meta_data": {
        "InChI": "InChI=1S/C4H8N4O3/c1-7-3-11-2-5-4(7)6-8(9)10/h2-3H2,1H3,(H,5,6)",
        "InChIKey": null,
        "Canonical SMILES": "O=N(=O)NC1=NCOCN1C",
        "Molecular Formula": "C<sub>4</sub>H<sub>8</sub>N<sub>4</sub>O<sub>3</sub>",
        "Molecular Mass": "160.13",
        "Melting Point": "141-143 °C"
    }
}