{
    "cas_no": "1704-62-7",
    "key_name": "2-[2-(Dimethylamino)ethoxy]ethanol",
    "cn_name": "2-[2-(二甲基氨基)乙氧基]乙醇;N,N-二甲基氨乙基乙二醇;",
    "alternate_name": "Ethanol, 2-[2-(dimethylamino)ethoxy]-;2-[2-(Dimethylamino)ethoxy]ethanol;<em>N</em>,<em>N</em>-Dimethyldiglycolamine;(<em>N</em>,<em>N</em>-Dimethylaminoethoxy)ethanol;2-(2-<em>N</em>,<em>N</em>-Dimethylaminoethoxy)ethanol;Texacat ZR 70;5-(Dimethylamino)-3-oxapentan-1-ol;PC CAT NP 70;Kaolizer 26;PC CAT NP 170;Jeffcat ZR 70;ZR 70;NSC 3146;<em>N</em>,<em>N</em>-Dimethyl[2-(2-hydroxyethoxy)ethyl]amine;Lupragen N 107;Toyocat RX 3;2-(<em>N</em>,<em>N</em>-Dimethylaminoethoxy)ethanol;Tegoamin DMEE;DMAE-EO;Niax DMEE;<em>N</em>,<em>N</em>-Dimethyl-2-(2-aminoethoxy)ethanol;Polycat 37;2-[2-(Dimethylamino)ethoxy]ethan-1-ol;PC 37",
    "duplicated_cas_no": "136363-88-7;314270-53-6;1985590-30-4",
    "SMILES": "C(CN(C)C)OCCO",
    "meta_data": {
        "InChI": "InChI=1S/C6H15NO2/c1-7(2)3-5-9-6-4-8/h8H,3-6H2,1-2H3",
        "InChIKey": null,
        "Canonical SMILES": "OCCOCCN(C)C",
        "Molecular Formula": "C<sub>6</sub>H<sub>15</sub>NO<sub>2</sub>",
        "Molecular Mass": "133.19",
        "Boiling Point": "89-90 °C @ Press: 12 Torr"
    }
}