{
    "cas_no": "86-93-1",
    "key_name": "1-Phenyl-5-mercaptotetrazole",
    "cn_name": "5-疏基-1-苯基-四氮唑;1-苯基-5-巯基-1H-1,2,3,4-四氮唑;",
    "alternate_name": "5<em>H</em>-Tetrazole-5-thione, 1,2-dihydro-1-phenyl-;1<em>H</em>-Tetrazole-5-thiol, 1-phenyl-;2-Tetrazoline-5-thione, 1-phenyl-;1,2,3,4-Tetrazole-5-thiol, 1-phenyl-;1,2-Dihydro-1-phenyl-5<em>H</em>-tetrazole-5-thione;5-Mercapto-1-phenyltetrazole;1-Phenyl-5-mercapto-1,2,3,4-tetrazole;Mercaptophenyltetrazole;1-Phenyltetrazole-5-thiol;5-Mercapto-1-phenyl-1<em>H</em>-tetrazole;1-Phenyl-2-tetrazoline-5-thione;1-Phenyltetrazoline-5-thione;5-Mercapto-1-phenyl-1,2,3,4-tetrazole;1-Phenyl-5-tetrazolethione;1-Phenyl-1,2-tetrazoline-5-thione;1-Phenyl-1<em>H</em>-tetrazole-5-thiol;1-Phenyl-5-mercapto-1<em>H</em>-tetrazole;1-Phenyl-5-mercaptotetrazole;1-Phenyl-5-thioxo-4,5-dihydrotetrazole;1-Phenyl-1<em>H</em>-tetrazol-5-thiol;1-Phenyl-1<em>H</em>-tetrazole-5-thione;1-Phenyl-2<em>H</em>-tetrazole-5-thione;NSC 24018;NSC 44916;NSC 67819;(1-Phenyltetrazol-5-yl)mercaptan;1-Phenyl-4,5-dihydrotetrazole-5-thione;1-Phenyl-5-thio-1,2,3,4-tetrazole;5-Sulfanyl-1-phenyl-1<em>H</em>-tetrazole;1-Phenyl-1<em>H</em>-1,2,3,4-tetrazole-5-thiol;1-Phenyl-1<em>H</em>-1,2,3,4-tetraazole-5-thiol;1-Phenyl-1<em>H</em>-tetraazole-5-thiol;1-Phenyl-1,2,3,4-tetrazole-5-thiol",
    "duplicated_cas_no": "122546-70-7;1437-66-7;53741-94-9;69829-89-6",
    "SMILES": "S=C1N(N=NN1)C2=CC=CC=C2",
    "meta_data": {
        "InChI": "InChI=1S/C7H6N4S/c12-7-8-9-10-11(7)6-4-2-1-3-5-6/h1-5H,(H,8,10,12)",
        "InChIKey": null,
        "Canonical SMILES": "S=C1NN=NN1C=2C=CC=CC2",
        "Molecular Formula": "C<sub>7</sub>H<sub>6</sub>N<sub>4</sub>S",
        "Molecular Mass": "178.21",
        "Melting Point": "152 °C"
    }
}