{
    "cas_no": "5028-20-6",
    "key_name": "<em>N</em><sup>2</sup>-Methyl-2,3-pyridinediamine",
    "cn_name": null,
    "alternate_name": "2,3-Pyridinediamine, <em>N</em><sup>2</sup>-methyl-;Pyridine, 3-amino-2-(methylamino)-;<em>N</em><sup>2</sup>-Methyl-2,3-pyridinediamine;3-Amino-2-(methylamino)pyridine;2-(Methylamino)-3-aminopyridine;2,3-Pyridinediamine N2-methyl-;2-<em>N</em>-Methylpyridine-2,3-diamine",
    "duplicated_cas_no": "",
    "SMILES": "N(C)C1=C(N)C=CC=N1",
    "meta_data": {
        "InChI": "InChI=1S/C6H9N3/c1-8-6-5(7)3-2-4-9-6/h2-4H,7H2,1H3,(H,8,9)",
        "InChIKey": null,
        "Canonical SMILES": "N=1C=CC=C(N)C1NC",
        "Molecular Formula": "C<sub>6</sub>H<sub>9</sub>N<sub>3</sub>",
        "Molecular Mass": "123.16",
        "Boiling Point": "145 °C",
        "Melting Point": "100-101 °C"
    }
}