{
    "cas_no": "619-50-1",
    "key_name": "Methyl 4-nitrobenzoate",
    "cn_name": "对硝基苯甲酸甲酯;",
    "alternate_name": "Benzoic acid, 4-nitro-, methyl ester;Benzoic acid, <em>p</em>-nitro-, methyl ester;Methyl <em>p</em>-nitrobenzoate;<em>p</em>-Nitrobenzoic acid methyl ester;Methyl 4-nitrobenzoate;<em>p</em>-Carbomethoxynitrobenzene;4-Methoxycarbonylnitrobenzene;4-Nitrobenzoic acid methyl ester;NSC 4137",
    "duplicated_cas_no": "",
    "SMILES": "C(OC)(=O)C1=CC=C(N(=O)=O)C=C1",
    "meta_data": {
        "InChI": "InChI=1S/C8H7NO4/c1-13-8(10)6-2-4-7(5-3-6)9(11)12/h2-5H,1H3",
        "InChIKey": null,
        "Canonical SMILES": "O=C(OC)C1=CC=C(C=C1)N(=O)=O",
        "Molecular Formula": "C<sub>8</sub>H<sub>7</sub>NO<sub>4</sub>",
        "Molecular Mass": "181.15",
        "Boiling Point": "93 °C @ Press: 0.03 Torr",
        "Melting Point": "95 °C"
    }
}