{
    "cas_no": "130-15-4",
    "key_name": "1,4-Naphthoquinone",
    "cn_name": "1,4-萘醌;",
    "alternate_name": "1,4-Naphthalenedione;1,4-Naphthoquinone;1,4-Dihydro-1,4-diketonaphthalene;α-Naphthoquinone;1,4-Naphthylquinone;<em>p</em>-Naphthoquinone;NSC 113960;NSC 9583;Quino Power NQ;Quino Power NQI;1,4-Dihydronaphthalene-1,4-dione",
    "duplicated_cas_no": "",
    "SMILES": "O=C1C=2C(C(=O)C=C1)=CC=CC2",
    "meta_data": {
        "InChI": "InChI=1S/C10H6O2/c11-9-5-6-10(12)8-4-2-1-3-7(8)9/h1-6H",
        "InChIKey": null,
        "Canonical SMILES": "O=C1C=CC(=O)C=2C=CC=CC12",
        "Molecular Formula": "C<sub>10</sub>H<sub>6</sub>O<sub>2</sub>",
        "Molecular Mass": "158.15",
        "Boiling Point": "123 °C",
        "Melting Point": "126 °C",
        "Density": "1.422 g/cm³"
    }
}