{
    "cas_no": "100-86-7",
    "key_name": "2-Methyl-1-phenyl-2-propanol",
    "cn_name": "二甲基苄基原醇;",
    "alternate_name": "Benzeneethanol, α,α-dimethyl-;Phenethyl alcohol, α,α-dimethyl-;α,α-Dimethylbenzeneethanol;Dimethylbenzylcarbinol;α,α-Dimethylphenethyl alcohol;1,1-Dimethyl-2-phenylethanol;DMBC;Benzyldimethylcarbinol;1,1-Dimethylphenylethanol;α,α-Dimethylphenethanol;2-Hydroxy-2-methyl-1-phenylpropane;2-Methyl-1-phenyl-2-propanol;1-Phenyl-2-methylpropan-2-ol;β-Phenyl-<em>tert</em>-butyl alcohol;2-Benzyl-2-propanol;1-Benzyl-1-methylethanol;2-Methyl-3-phenyl-2-propanol;Phenyl-<em>tert</em>-butanol;1,1-Dimethyl-2-phenylethyl alcohol;NSC 27228;NSC 46103;NSC 5236;1-Phenyl-2-hydroxy-2-methylpropane;2-Hydroxy-2-methyl-1-phenyl-1-propane",
    "duplicated_cas_no": "",
    "SMILES": "C(C(C)(C)O)C1=CC=CC=C1",
    "meta_data": {
        "InChI": "InChI=1S/C10H14O/c1-10(2,11)8-9-6-4-3-5-7-9/h3-7,11H,8H2,1-2H3",
        "InChIKey": null,
        "Canonical SMILES": "OC(C)(C)CC=1C=CC=CC1",
        "Molecular Formula": "C<sub>10</sub>H<sub>14</sub>O",
        "Molecular Mass": "150.22",
        "Boiling Point": "215 °C",
        "Melting Point": "24 °C",
        "Density": "0.903 g/cm³ @ Temp: 20 °C"
    }
}