{
    "cas_no": "13431-34-0",
    "key_name": "Ethylthiosemicarbazide",
    "cn_name": "4-乙基-3-硫代氨基脲;4-乙基-3-硫代氨基脲;",
    "alternate_name": "Hydrazinecarbothioamide, <em>N</em>-ethyl-;Semicarbazide, 4-ethyl-3-thio-;<em>N</em>-Ethylhydrazinecarbothioamide;B 1131;4-Ethyl-3-thiosemicarbazide;4-Ethylthiosemicarbazide;Ethylthiosemicarbazide;4-Ethylthiosemicarbizide;<em>N</em>-Ethylthiosemicarbazide;<em>N</em><sup>1</sup>-Ethylthiosemicarbazide;NSC 84217;4-<em>N</em>-Ethyl-3-thiosemicarbazide;4-<em>N</em>-Ethylthiosemicarbazide;1-Amino-3-ethylthiourea;3-Amino-1-ethylthiourea",
    "duplicated_cas_no": "",
    "SMILES": "C(NCC)(NN)=S",
    "meta_data": {
        "InChI": "InChI=1S/C3H9N3S/c1-2-5-3(7)6-4/h2,4H2,1H3,(H2,5,6,7)",
        "InChIKey": null,
        "Canonical SMILES": "S=C(NN)NCC",
        "Molecular Formula": "C<sub>3</sub>H<sub>9</sub>N<sub>3</sub>S",
        "Molecular Mass": "119.19",
        "Melting Point": "83.5-84 °C"
    }
}