{
    "cas_no": "40925-70-0",
    "key_name": "2-Amino-5-methoxyphenol",
    "cn_name": null,
    "alternate_name": "Phenol, 2-amino-5-methoxy-;2-Amino-5-methoxyphenol;5-Methoxy-2-aminophenol;2-Hydroxy-4-methoxyaniline",
    "duplicated_cas_no": "",
    "SMILES": "O(C)C1=CC(O)=C(N)C=C1",
    "meta_data": {
        "InChI": "InChI=1S/C7H9NO2/c1-10-5-2-3-6(8)7(9)4-5/h2-4,9H,8H2,1H3",
        "InChIKey": null,
        "Canonical SMILES": "OC1=CC(OC)=CC=C1N",
        "Molecular Formula": "C<sub>7</sub>H<sub>9</sub>NO<sub>2</sub>",
        "Molecular Mass": "139.15",
        "Melting Point": "128-131 °C"
    }
}