{
    "cas_no": "13497-18-2",
    "key_name": "Bis(triethoxysilylpropyl)amine",
    "cn_name": "双[3-(三乙氧基硅)丙基]胺;",
    "alternate_name": "1-Propanamine, 3-(triethoxysilyl)-<em>N</em>-[3-(triethoxysilyl)propyl]-;3,13-Dioxa-8-aza-4,12-disilapentadecane, 4,4,12,12-tetraethoxy-;Silane, [iminobis(trimethylene)]bis[triethoxy-;3-(Triethoxysilyl)-<em>N</em>-[3-(triethoxysilyl)propyl]-1-propanamine;Bis(triethoxysilylpropyl)amine;3,3′-Bis(triethoxysilyl)propylamine;Bis[3-(triethoxysilyl)propyl]amine;G 402 (coupling agent);Si 252;G 402;Dynasylan 1122;Bis(3-methoxysilylpropyl)amine;SIB 1824.5;<em>N</em>,<em>N</em>-Bis(3-triethoxysilylpropyl)amine;DB 520;KH 270;SiSiB PC 1108;Y 11699;Silquest Y 11699;SCA-A 67X;Degussa D 1122;D 1122",
    "duplicated_cas_no": "2797259-20-0",
    "SMILES": "[Si](CCCNCCC[Si](OCC)(OCC)OCC)(OCC)(OCC)OCC",
    "meta_data": {
        "InChI": "InChI=1S/C18H43NO6Si2/c1-7-20-26(21-8-2,22-9-3)17-13-15-19-16-14-18-27(23-10-4,24-11-5)25-12-6/h19H,7-18H2,1-6H3",
        "InChIKey": null,
        "Canonical SMILES": "O(CC)[Si](OCC)(OCC)CCCNCCC[Si](OCC)(OCC)OCC",
        "Molecular Formula": "C<sub>18</sub>H<sub>43</sub>NO<sub>6</sub>Si<sub>2</sub>",
        "Molecular Mass": "425.71",
        "Boiling Point": "160 °C @ Press: 0.6 Torr",
        "Density": "0.97 g/cm³"
    }
}