{
    "cas_no": "72509-76-3",
    "key_name": "Felodipine",
    "cn_name": "非洛地平;非氯地平;4-(2,3-二氯苯基)-1,4-二氢-2,6-二甲基-3,5-吡啶二羧基乙基甲基酯;",
    "alternate_name": "3,5-Pyridinedicarboxylic acid, 4-(2,3-dichlorophenyl)-1,4-dihydro-2,6-dimethyl-, 3-ethyl 5-methyl ester;3,5-Pyridinedicarboxylic acid, 4-(2,3-dichlorophenyl)-1,4-dihydro-2,6-dimethyl-, ethyl methyl ester;Felodipine;Plendil;H 154/82;(±)-Felodipine;(<em>RS</em>)-Felodipine;Prevex;Hydac;Splendil;<em>dl</em>-Felodipine;Munobal;Flodil;Agon;Feloday;Delmuno;3-Ethyl 5-methyl 4-(2,3-dichlorophenyl)-2,6-dimethyl-1,4-dihydropyridine-3,5-dicarboxylate;MeSH ID: D015736",
    "duplicated_cas_no": "86189-69-7",
    "SMILES": "C(OCC)(=O)C=1C(C(C(OC)=O)=C(C)NC1C)C2=C(Cl)C(Cl)=CC=C2",
    "meta_data": {
        "InChI": "InChI=1S/C18H19Cl2NO4/c1-5-25-18(23)14-10(3)21-9(2)13(17(22)24-4)15(14)11-7-6-8-12(19)16(11)20/h6-8,15,21H,5H2,1-4H3",
        "InChIKey": null,
        "Canonical SMILES": "O=C(OC)C1=C(NC(=C(C(=O)OCC)C1C=2C=CC=C(Cl)C2Cl)C)C",
        "Molecular Formula": "C<sub>18</sub>H<sub>19</sub>Cl<sub>2</sub>NO<sub>4</sub>",
        "Molecular Mass": "384.25",
        "Melting Point": "145 °C",
        "Density": "1.28 g/cm³ (liquid)"
    }
}