{
    "cas_no": "5332-52-5",
    "key_name": "1-Undecanethiol",
    "cn_name": "1-十一烷硫醇;",
    "alternate_name": "1-Undecanethiol;Undecyl mercaptan;1-Mercaptoundecane;NSC 4031",
    "duplicated_cas_no": "874746-59-5",
    "SMILES": "C(CCCCCS)CCCCC",
    "meta_data": {
        "InChI": "InChI=1S/C11H24S/c1-2-3-4-5-6-7-8-9-10-11-12/h12H,2-11H2,1H3",
        "InChIKey": null,
        "Canonical SMILES": "SCCCCCCCCCCC",
        "Molecular Formula": "C<sub>11</sub>H<sub>24</sub>S",
        "Molecular Mass": "188.37",
        "Boiling Point": "257.4 °C",
        "Melting Point": "-3 °C",
        "Density": "0.8432 g/cm³"
    }
}