{
    "cas_no": "15726-15-5",
    "key_name": "3-Methyl-4-heptanone",
    "cn_name": "3-甲基-4-庚酮;",
    "alternate_name": "4-Heptanone, 3-methyl-;3-Methyl-4-heptanone;<em>sec</em>-Butyl propyl ketone",
    "duplicated_cas_no": "",
    "SMILES": "C(C(CC)C)(CCC)=O",
    "meta_data": {
        "InChI": "InChI=1S/C8H16O/c1-4-6-8(9)7(3)5-2/h7H,4-6H2,1-3H3",
        "InChIKey": null,
        "Canonical SMILES": "O=C(CCC)C(C)CC",
        "Molecular Formula": "C<sub>8</sub>H<sub>16</sub>O",
        "Molecular Mass": "128.21",
        "Boiling Point": "154 °C",
        "Density": "0.817 g/cm³ @ Temp: 20 °C"
    }
}