{
    "cas_no": "19432-88-3",
    "key_name": "2-Pyrrolidineethanol",
    "cn_name": null,
    "alternate_name": "2-Pyrrolidineethanol;2-(2-Hydroxyethyl)pyrrolidine;2-Pyrrolidin-2-ylethanol;2-(Pyrrolidin-2-yl)ethan-1-ol",
    "duplicated_cas_no": "133697-13-9",
    "SMILES": "C(CO)C1CCCN1",
    "meta_data": {
        "InChI": "InChI=1S/C6H13NO/c8-5-3-6-2-1-4-7-6/h6-8H,1-5H2",
        "InChIKey": null,
        "Canonical SMILES": "OCCC1NCCC1",
        "Molecular Formula": "C<sub>6</sub>H<sub>13</sub>NO",
        "Molecular Mass": "115.17",
        "Boiling Point": "678-680 °C @ Press: 0.03 Torr",
        "Density": "1.0117 g/cm³ @ Temp: 20 °C"
    }
}