{
    "cas_no": "7778-80-5",
    "key_name": "Potassium sulfate",
    "cn_name": "硫酸钾;",
    "alternate_name": "Sulfuric acid potassium salt (1:2);Sulfuric acid dipotassium salt;Potassium sulfate (2:1);Arcanum duplicatum;Potassium sulfate;Sal polychrestum;Tartarus vitriolatus;Dipotassium sulfate;Potassium sulfate (K<sub>2</sub>(SO<sub>4</sub>));Potassium sulphate;Potassium sulfate (K<sub>2</sub>SO<sub>4</sub>);Sulfuric acid, dipotassium salt;Sulfate of potash",
    "duplicated_cas_no": "",
    "SMILES": "S(=O)(=O)(O)O.[K]",
    "meta_data": {
        "InChI": "InChI=1S/2K.H2O4S/c;;1-5(2,3)4/h;;(H2,1,2,3,4)",
        "InChIKey": null,
        "Canonical SMILES": "[K].O=S(=O)(O)O",
        "Molecular Formula": "H<sub>2</sub>O<sub>4</sub>S.2K",
        "Molecular Mass": "",
        "Boiling Point": "1689 °C",
        "Melting Point": "1067 °C",
        "Density": "2.66 g/cm³"
    }
}