{
    "cas_no": "733039-20-8",
    "key_name": "5-Bromo-2-chloro-<em>N</em>-cyclopentyl-4-pyrimidinamine",
    "cn_name": null,
    "alternate_name": "4-Pyrimidinamine, 5-bromo-2-chloro-<em>N</em>-cyclopentyl-;5-Bromo-2-chloro-<em>N</em>-cyclopentyl-4-pyrimidinamine;<em>N</em>-(5-Bromo-2-chloropyrimidin-4-yl)(cyclopentyl)amine;5-Bromo-2-chloro-4-(cyclopentylamino)pyrimidine",
    "duplicated_cas_no": "",
    "SMILES": "N(C=1C(Br)=CN=C(Cl)N1)C2CCCC2",
    "meta_data": {
        "InChI": "InChI=1S/C9H11BrClN3/c10-7-5-12-9(11)14-8(7)13-6-3-1-2-4-6/h5-6H,1-4H2,(H,12,13,14)",
        "InChIKey": null,
        "Canonical SMILES": "ClC1=NC=C(Br)C(=N1)NC2CCCC2",
        "Molecular Formula": "C<sub>9</sub>H<sub>11</sub>BrClN<sub>3</sub>",
        "Molecular Mass": "276.56",
        "Melting Point": "95-96 °C"
    }
}