{
    "cas_no": "13552-72-2",
    "key_name": "Isocorydine hydrochloride",
    "cn_name": null,
    "alternate_name": "4<em>H</em>-Dibenzo[<em>de</em>,<em>g</em>]quinolin-11-ol, 5,6,6a,7-tetrahydro-1,2,10-trimethoxy-6-methyl-, hydrochloride (1:1), (6a<em>S</em>)-;6aα-Aporphin-11-ol, 1,2,10-trimethoxy-, hydrochloride;4<em>H</em>-Dibenzo[<em>de</em>,<em>g</em>]quinolin-11-ol, 5,6,6a,7-tetrahydro-1,2,10-trimethoxy-6-methyl-, hydrochloride, (<em>S</em>)-;4<em>H</em>-Dibenzo[<em>de</em>,<em>g</em>]quinolin-11-ol, 5,6,6a,7-tetrahydro-1,2,10-trimethoxy-6-methyl-, hydrochloride, (6a<em>S</em>)-;Isocorydine hydrochloride;(+)-Isocorydine hydrochloride",
    "duplicated_cas_no": "",
    "SMILES": "O(C)C1=C2C=3[C@](CC=4C2=C(O)C(OC)=CC4)(N(C)CCC3C=C1OC)[H].Cl",
    "meta_data": {
        "InChI": "InChI=1S/C20H23NO4.ClH/c1-21-8-7-12-10-15(24-3)20(25-4)18-16(12)13(21)9-11-5-6-14(23-2)19(22)17(11)18;/h5-6,10,13,22H,7-9H2,1-4H3;1H/t13-;/m0./s1",
        "InChIKey": null,
        "Canonical SMILES": "Cl.OC=1C(OC)=CC=C2C1C=3C(OC)=C(OC)C=C4C3C(N(C)CC4)C2",
        "Molecular Formula": "C<sub>20</sub>H<sub>23</sub>NO<sub>4</sub>.ClH",
        "Molecular Mass": "",
        "Melting Point": "200-210 °C"
    }
}