{
    "cas_no": "598-74-3",
    "key_name": "1,2-Dimethylpropylamine",
    "cn_name": "1,2-二甲基丙胺;",
    "alternate_name": "2-Butanamine, 3-methyl-;Propylamine, 1,2-dimethyl-;3-Methyl-2-butanamine;3-Methyl-2-aminobutane;2-Amino-3-methylbutane;1,2-Dimethylpropylamine;1,2-Dimethylpropanamine;(±)-3-Methyl-2-butanamine;(±)-3-Methyl-2-butylamine;3-Methyl-2-butylamine;(3-Methylbutan-2-yl)amine",
    "duplicated_cas_no": "110509-11-0",
    "SMILES": "C(C(C)N)(C)C",
    "meta_data": {
        "InChI": "InChI=1S/C5H13N/c1-4(2)5(3)6/h4-5H,6H2,1-3H3",
        "InChIKey": null,
        "Canonical SMILES": "NC(C)C(C)C",
        "Molecular Formula": "C<sub>5</sub>H<sub>13</sub>N",
        "Molecular Mass": "87.16",
        "Boiling Point": "85.5 °C",
        "Melting Point": "-50 °C",
        "Density": "0.7478 g/cm³ @ Temp: 23 °C"
    }
}