{
    "cas_no": "4630-82-4",
    "key_name": "Methyl cyclohexanecarboxylate",
    "cn_name": "环己甲酸甲酯;",
    "alternate_name": "Cyclohexanecarboxylic acid, methyl ester;Methyl cyclohexanecarboxylate;Hexahydrobenzoic acid methyl ester;Methyl cyclohexylcarboxylate;Methyl hexahydrobenzoate",
    "duplicated_cas_no": "1093864-54-0",
    "SMILES": "C(OC)(=O)C1CCCCC1",
    "meta_data": {
        "InChI": "InChI=1S/C8H14O2/c1-10-8(9)7-5-3-2-4-6-7/h7H,2-6H2,1H3",
        "InChIKey": null,
        "Canonical SMILES": "O=C(OC)C1CCCCC1",
        "Molecular Formula": "C<sub>8</sub>H<sub>14</sub>O<sub>2</sub>",
        "Molecular Mass": "142.20",
        "Boiling Point": "183 °C",
        "Melting Point": "48-50 °C",
        "Density": "0.9785 g/cm³ @ Temp: 20 °C"
    }
}