{
    "cas_no": "98-78-2",
    "key_name": "3-Oxocyclopentanecarboxylic acid",
    "cn_name": null,
    "alternate_name": "Cyclopentanecarboxylic acid, 3-oxo-;3-Oxocyclopentanecarboxylic acid;Cyclopentanone-3-carboxylic acid;NSC 19869;3-Ketocyclopentylcarboxylic acid;3-Oxocyclopentane-1-carboxylic acid;3-Carboxycyclopentanone",
    "duplicated_cas_no": "62696-96-2",
    "SMILES": "C(O)(=O)C1CC(=O)CC1",
    "meta_data": {
        "InChI": "InChI=1S/C6H8O3/c7-5-2-1-4(3-5)6(8)9/h4H,1-3H2,(H,8,9)",
        "InChIKey": null,
        "Canonical SMILES": "O=C(O)C1CC(=O)CC1",
        "Molecular Formula": "C<sub>6</sub>H<sub>8</sub>O<sub>3</sub>",
        "Molecular Mass": "128.13",
        "Boiling Point": "178-180 °C @ Press: 17 Torr",
        "Melting Point": "65 °C"
    }
}