{
    "cas_no": "13402-96-5",
    "key_name": "2-[2,4-Bis(1,1-dimethylpropyl)phenoxy]acetic acid",
    "cn_name": "2,4-二特戊基苯氧基乙酸;",
    "alternate_name": "Acetic acid, 2-[2,4-bis(1,1-dimethylpropyl)phenoxy]-;Acetic acid, (2,4-di-<em>tert</em>-pentylphenoxy)-;Acetic acid, [2,4-bis(1,1-dimethylpropyl)phenoxy]-;2-[2,4-Bis(1,1-dimethylpropyl)phenoxy]acetic acid;2,4-Di-<em>tert</em>-amylphenoxyacetic acid;2-(2,4-Di-<em>tert</em>-amylphenoxy)acetic acid;2,4-Bis(1,1-dimethylpropyl)phenoxyacetic acid;2-(2,4-Di-<em>tert</em>-pentylphenoxy)aceticacid;2-[2,4-Bis(2-methylbutan-2-yl)phenoxy]acetic acid;2-(2,4-Di-<em>tert</em>-pentylphenoxy)acetic acid",
    "duplicated_cas_no": "",
    "SMILES": "C(CC)(C)(C)C1=C(OCC(O)=O)C=CC(C(CC)(C)C)=C1",
    "meta_data": {
        "InChI": "InChI=1S/C18H28O3/c1-7-17(3,4)13-9-10-15(21-12-16(19)20)14(11-13)18(5,6)8-2/h9-11H,7-8,12H2,1-6H3,(H,19,20)",
        "InChIKey": null,
        "Canonical SMILES": "O=C(O)COC1=CC=C(C=C1C(C)(C)CC)C(C)(C)CC",
        "Molecular Formula": "C<sub>18</sub>H<sub>28</sub>O<sub>3</sub>",
        "Molecular Mass": "292.41",
        "Melting Point": "116-117 °C"
    }
}