{
    "cas_no": "41186-03-2",
    "key_name": "1-(3-Methylphenyl)piperazine",
    "cn_name": "1-间甲苯基哌嗪;",
    "alternate_name": "Piperazine, 1-(3-methylphenyl)-;1-(3-Methylphenyl)piperazine;1-<em>m</em>-Tolylpiperazine;1-(3-Tolyl)piperazine;<em>N</em>-(3-Methylphenyl)piperazine;<em>N</em>-<em>m</em>-Tolylpiperazine;<em>N</em>-(3-Tolyl)piperazine;1-(<em>m</em>-Methylphenyl)piperazine;4-(3-Methylphenyl)piperazine;NSC 150848;NSC 184825",
    "duplicated_cas_no": "",
    "SMILES": "CC=1C=C(C=CC1)N2CCNCC2",
    "meta_data": {
        "InChI": "InChI=1S/C11H16N2/c1-10-3-2-4-11(9-10)13-7-5-12-6-8-13/h2-4,9,12H,5-8H2,1H3",
        "InChIKey": null,
        "Canonical SMILES": "C=1C=C(C=C(C1)C)N2CCNCC2",
        "Molecular Formula": "C<sub>11</sub>H<sub>16</sub>N<sub>2</sub>",
        "Molecular Mass": "176.26",
        "Boiling Point": "138-140 °C @ Press: 10 Torr",
        "Melting Point": "125-128 °C"
    }
}