{
    "cas_no": "3615-41-6",
    "key_name": "<span class=\"text-smallcaps\">L</span>-Rhamnose",
    "cn_name": "L-鼠李糖;",
    "alternate_name": "<span class=\"text-smallcaps\">L</span>-Mannose, 6-deoxy-;Rhamnose, <span class=\"text-smallcaps\">L</span>-;6-Deoxy-<span class=\"text-smallcaps\">L</span>-mannose;Isodulcit;<span class=\"text-smallcaps\">L</span>-Mannomethylose;Rhamnose;<span class=\"text-smallcaps\">L</span>-Rhamnose;Isodulcitol;Locaose;NSC 2056;<span class=\"text-smallcaps\">L</span>-(+)-Rhamnose",
    "duplicated_cas_no": "4469-18-5;39665-53-7;2497593-58-3",
    "SMILES": "[C@@H]([C@H]([C@H](C)O)O)([C@H](C=O)O)O",
    "meta_data": {
        "InChI": "InChI=1S/C6H12O5/c1-3(8)5(10)6(11)4(9)2-7/h2-6,8-11H,1H3/t3-,4-,5-,6-/m0/s1",
        "InChIKey": null,
        "Canonical SMILES": "O=CC(O)C(O)C(O)C(O)C",
        "Molecular Formula": "C<sub>6</sub>H<sub>12</sub>O<sub>5</sub>",
        "Molecular Mass": "164.16",
        "Melting Point": "122 °C",
        "Density": "1.556 g/cm³ @ Temp: 20 °C"
    }
}