{
    "cas_no": "83278-86-8",
    "key_name": "3,4-Dihydro-2<em>H</em>-1-benzopyran-2-methanol",
    "cn_name": null,
    "alternate_name": "2<em>H</em>-1-Benzopyran-2-methanol, 3,4-dihydro-;3,4-Dihydro-2<em>H</em>-1-benzopyran-2-methanol;2-(Hydroxymethyl)chroman;3,4-Dihydro-2<em>H</em>-chromen-2-ylmethanol;(Chroman-2-yl)methanol;Chroman-2-ylmethyl alcohol;(3,4-Dihydro-2<em>H</em>-1-benzopyran-2-yl)methanol",
    "duplicated_cas_no": "164456-59-1",
    "SMILES": "C(O)C1OC=2C(CC1)=CC=CC2",
    "meta_data": {
        "InChI": "InChI=1S/C10H12O2/c11-7-9-6-5-8-3-1-2-4-10(8)12-9/h1-4,9,11H,5-7H2",
        "InChIKey": null,
        "Canonical SMILES": "OCC1OC=2C=CC=CC2CC1",
        "Molecular Formula": "C<sub>10</sub>H<sub>12</sub>O<sub>2</sub>",
        "Molecular Mass": "164.20",
        "Melting Point": "44 °C"
    }
}