{
    "cas_no": "598-04-9",
    "key_name": "1,1′-Sulfonylbis[butane]",
    "cn_name": "正丁砜;",
    "alternate_name": "Butane, 1,1′-sulfonylbis-;Butyl sulfone;1,1′-Sulfonylbis[butane];Dibutyl sulfone;Di-<em>n</em>-butyl sulfone;<em>n</em>-Butyl sulfone;NSC 2116;1-Butylsulfonyl-butane;1-Butylsulfonylbutane",
    "duplicated_cas_no": "",
    "SMILES": "S(CCCC)(CCCC)(=O)=O",
    "meta_data": {
        "InChI": "InChI=1S/C8H18O2S/c1-3-5-7-11(9,10)8-6-4-2/h3-8H2,1-2H3",
        "InChIKey": null,
        "Canonical SMILES": "O=S(=O)(CCCC)CCCC",
        "Molecular Formula": "C<sub>8</sub>H<sub>18</sub>O<sub>2</sub>S",
        "Molecular Mass": "178.29",
        "Boiling Point": "291 °C",
        "Melting Point": "45 °C"
    }
}