{
    "cas_no": "15872-41-0",
    "key_name": "4-(Pentyloxy)benzoic acid",
    "cn_name": "4-正戊氧基苯甲酸;对戊氧基苯甲酸;",
    "alternate_name": "Benzoic acid, 4-(pentyloxy)-;Benzoic acid, <em>p</em>-(pentyloxy)-;Benzoic acid, <em>p</em>-amoxy-;4-(Pentyloxy)benzoic acid;<em>p</em>-Pentoxybenzoic acid;<em>p</em>-<em>n</em>-Pentyloxybenzoic acid;<em>p</em>-(Pentyloxy)benzoic acid;<em>p</em>-Amyloxybenzoic acid;<em>p</em>-(<em>n</em>-Pentoxy)benzoic acid;4-Pentoxybenzoic acid;NSC 71397",
    "duplicated_cas_no": "",
    "SMILES": "C(O)(=O)C1=CC=C(OCCCCC)C=C1",
    "meta_data": {
        "InChI": "InChI=1S/C12H16O3/c1-2-3-4-9-15-11-7-5-10(6-8-11)12(13)14/h5-8H,2-4,9H2,1H3,(H,13,14)",
        "InChIKey": null,
        "Canonical SMILES": "O=C(O)C1=CC=C(OCCCCC)C=C1",
        "Molecular Formula": "C<sub>12</sub>H<sub>16</sub>O<sub>3</sub>",
        "Molecular Mass": "208.25",
        "Melting Point": "148 °C"
    }
}