{
    "cas_no": "6728-26-3",
    "key_name": "<em>trans</em>-2-Hexenal",
    "cn_name": null,
    "alternate_name": "2-Hexenal, (2<em>E</em>)-;2-Hexenal, (<em>E</em>)-;Leaf aldehyde;(2<em>E</em>)-2-Hexenal;<em>trans</em>-2-Hexen-1-al;(<em>E</em>)-2-Hexenal;(<em>E</em>)-2-Hexen-1-al;<em>trans</em>-2-Hexenal;(2<em>E</em>)-Hexenal;Green leaf aldehyde;(<em>E</em>)-Hex-2-enal",
    "duplicated_cas_no": "",
    "SMILES": "C(\\CCC)=C/C=O",
    "meta_data": {
        "InChI": "InChI=1S/C6H10O/c1-2-3-4-5-6-7/h4-6H,2-3H2,1H3/b5-4+",
        "InChIKey": null,
        "Canonical SMILES": "O=CC=CCCC",
        "Molecular Formula": "C<sub>6</sub>H<sub>10</sub>O",
        "Molecular Mass": "98.14",
        "Boiling Point": "146.5 °C"
    }
}