{
    "cas_no": "1188-37-0",
    "key_name": "<em>N</em>-Acetyl-<span class=\"text-smallcaps\">L</span>-glutamic acid",
    "cn_name": "N-乙酰-L-谷氨酰胺;",
    "alternate_name": "<span class=\"text-smallcaps\">L</span>-Glutamic acid, <em>N</em>-acetyl-;Glutamic acid, <em>N</em>-acetyl-, <span class=\"text-smallcaps\">L</span>-;<em>N</em>-Acetyl-<span class=\"text-smallcaps\">L</span>-glutamic acid;<em>N</em>-Acetylglutamic acid;<em>N</em>-Acetyl-<em>S</em>-glutamic acid;Acetylglutamic acid;<span class=\"text-smallcaps\">L</span>-<em>N</em>-Acetylglutamic acid;α-(<em>N</em>-Acetyl)-<span class=\"text-smallcaps\">L</span>-glutamic acid;<em>N</em>-Acetyl-<span class=\"text-smallcaps\">L</span>-glutaminic acid;(2S)-2-Acetamidopentanedioic acid",
    "duplicated_cas_no": "7728-87-2",
    "SMILES": "[C@@H](CCC(O)=O)(NC(C)=O)C(O)=O",
    "meta_data": {
        "InChI": "InChI=1S/C7H11NO5/c1-4(9)8-5(7(12)13)2-3-6(10)11/h5H,2-3H2,1H3,(H,8,9)(H,10,11)(H,12,13)/t5-/m0/s1",
        "InChIKey": null,
        "Canonical SMILES": "O=C(O)CCC(NC(=O)C)C(=O)O",
        "Molecular Formula": "C<sub>7</sub>H<sub>11</sub>NO<sub>5</sub>",
        "Molecular Mass": "189.17",
        "Melting Point": "195 °C"
    }
}