{
    "cas_no": "931-48-6",
    "key_name": "Ethynylcyclohexane",
    "cn_name": "环己乙炔;",
    "alternate_name": "Cyclohexane, ethynyl-;Ethynylcyclohexane;Ethyne, cyclohexyl-;Cyclohexylethyne;Cyclohexylacetylene;1-Cyclohexylethyne",
    "duplicated_cas_no": "1401716-54-8",
    "SMILES": "C(#C)C1CCCCC1",
    "meta_data": {
        "InChI": "InChI=1S/C8H12/c1-2-8-6-4-3-5-7-8/h1,8H,3-7H2",
        "InChIKey": null,
        "Canonical SMILES": "C#CC1CCCCC1",
        "Molecular Formula": "C<sub>8</sub>H<sub>12</sub>",
        "Molecular Mass": "108.18",
        "Boiling Point": "130-132 °C",
        "Melting Point": "130-132 °C",
        "Density": "0.8424 g/cm³ @ Temp: 20 °C"
    }
}