{
    "cas_no": "16695-22-0",
    "key_name": "4-Methyl-<em>N</em>,<em>N</em>-bis[2-[[(4-methylphenyl)sulfonyl]oxy]ethyl]benzenesulfonamide",
    "cn_name": "N,N-二[2-(p-苄基磺氧基)乙基]对甲苯磺酰胺;",
    "alternate_name": "Benzenesulfonamide, 4-methyl-<em>N</em>,<em>N</em>-bis[2-[[(4-methylphenyl)sulfonyl]oxy]ethyl]-;<em>p</em>-Toluenesulfonamide, <em>N</em>,<em>N</em>-bis(2-hydroxyethyl)-, di-<em>p</em>-toluenesulfonate (ester);<em>p</em>-Toluenesulfonamide, <em>N</em>,<em>N</em>-bis(2-hydroxyethyl)-, di-<em>p</em>-toluenesulfonate;4-Methyl-<em>N</em>,<em>N</em>-bis[2-[[(4-methylphenyl)sulfonyl]oxy]ethyl]benzenesulfonamide;2,2′-(<em>p</em>-Tolylsulfonylimino)diethanol di-<em>p</em>-toluenesulfonate;2,2′-(Tosylimino)bisethyl ditosylate;Diethanolamine tritosylate;<em>N</em>,<em>O</em>,<em>O</em>′-Tris(<em>p</em>-tolylsulfonyl)diethanolamine;Tritosyldiethanolamine;<em>N</em>,<em>O</em>,<em>O</em>′-Tris(<em>p</em>-toluenesulfonyl)diethanolamine;NSC 106624;1,5-(Tosyloxy)-3-tosyl-3-azapentane;<em>N</em>,<em>O</em>,<em>O</em>-Tri-(toluene-<em>p</em>-sulfonate)-diethanolamine;<em>N</em>,<em>O</em>,<em>O</em>-Tri(toluene-4-sulfonyl)diethanolamine;2-[(4-Methylphenyl)sulfonyl-[2-(4-methylphenyl)sulfonyloxyethyl]amino]ethyl 4-methylbenzenesulfonate",
    "duplicated_cas_no": "",
    "SMILES": "S(N(CCOS(=O)(=O)C1=CC=C(C)C=C1)CCOS(=O)(=O)C2=CC=C(C)C=C2)(=O)(=O)C3=CC=C(C)C=C3",
    "meta_data": {
        "InChI": "InChI=1S/C25H29NO8S3/c1-20-4-10-23(11-5-20)35(27,28)26(16-18-33-36(29,30)24-12-6-21(2)7-13-24)17-19-34-37(31,32)25-14-8-22(3)9-15-25/h4-15H,16-19H2,1-3H3",
        "InChIKey": null,
        "Canonical SMILES": "O=S(=O)(OCCN(CCOS(=O)(=O)C1=CC=C(C=C1)C)S(=O)(=O)C2=CC=C(C=C2)C)C3=CC=C(C=C3)C",
        "Molecular Formula": "C<sub>25</sub>H<sub>29</sub>NO<sub>8</sub>S<sub>3</sub>",
        "Molecular Mass": "567.69",
        "Melting Point": "98 °C"
    }
}