{
    "cas_no": "39811-17-1",
    "key_name": "4-Methoxy[1,1′-biphenyl]-3-amine",
    "cn_name": null,
    "alternate_name": "[1,1′-Biphenyl]-3-amine, 4-methoxy-;4-Methoxy[1,1′-biphenyl]-3-amine;3-Amino-4-methoxybiphenyl;5-Phenyl-<em>o</em>-anisidine;5-Phenyl-2-anisidine;2-Methoxy-5-phenylaniline;(4-Methoxy-1,1′-biphenyl-3-yl)amine;4-Methoxybiphenyl-3-ylamine;4-Methoxybiphenyl-3-amine",
    "duplicated_cas_no": "",
    "SMILES": "NC=1C=C(C=CC1OC)C2=CC=CC=C2",
    "meta_data": {
        "InChI": "InChI=1S/C13H13NO/c1-15-13-8-7-11(9-12(13)14)10-5-3-2-4-6-10/h2-9H,14H2,1H3",
        "InChIKey": null,
        "Canonical SMILES": "O(C=1C=CC(=CC1N)C=2C=CC=CC2)C",
        "Molecular Formula": "C<sub>13</sub>H<sub>13</sub>NO",
        "Molecular Mass": "199.25",
        "Melting Point": "80-81 °C"
    }
}