{
    "cas_no": "1123-95-1",
    "key_name": "5-(Hydroxymethyl)cytosine",
    "cn_name": "2-羟基-4-氨基-5-羟甲基嘧啶; 5-羟甲基胞嘧啶;",
    "alternate_name": "2(1<em>H</em>)-Pyrimidinone, 6-amino-5-(hydroxymethyl)-;Cytosine, 5-(hydroxymethyl)-;2(1<em>H</em>)-Pyrimidinone, 4-amino-5-(hydroxymethyl)-;6-Amino-5-(hydroxymethyl)-2(1<em>H</em>)-pyrimidinone;5-(Hydroxymethyl)cytosine;5-(Oxymethyl)cytosine;4-Amino-2-hydroxy-5-pyrimidinemethanol;Demethylbacimethrin;4-Amino-5-(hydroxymethyl)-2(1<em>H</em>)-pyrimidinone;NSC 27368",
    "duplicated_cas_no": "",
    "SMILES": "C(O)C1=C(N)NC(=O)N=C1",
    "meta_data": {
        "InChI": "InChI=1S/C5H7N3O2/c6-4-3(2-9)1-7-5(10)8-4/h1,9H,2H2,(H3,6,7,8,10)",
        "InChIKey": null,
        "Canonical SMILES": "O=C1N=CC(=C(N)N1)CO",
        "Molecular Formula": "C<sub>5</sub>H<sub>7</sub>N<sub>3</sub>O<sub>2</sub>",
        "Molecular Mass": "141.13",
        "Melting Point": "&gt;300 °C (decomp)"
    }
}