{
    "cas_no": "2914-69-4",
    "key_name": "3-Butyn-2-ol, (2<em>S</em>)-",
    "cn_name": "(S)-(-)-3-丁炔-2-醇;",
    "alternate_name": "3-Butyn-2-ol, (2<em>S</em>)-;3-Butyn-2-ol, (-)-;3-Butyn-2-ol, (<em>S</em>)-;(<em>S</em>)-(-)-1-Butyn-3-ol;(-)-3-Butyn-2-ol;(<em>S</em>)-3-Butyn-2-ol;(<em>S</em>)-(-)-3-Butyn-2-ol;(<em>S</em>)-1-Butyn-3-ol;(2<em>S</em>)-But-3-yn-2-ol;(2S)-3-Butyn-2-ol;(2S)-But-3-yn-2-ol",
    "duplicated_cas_no": "",
    "SMILES": "[C@@H](C#C)(C)O",
    "meta_data": {
        "InChI": "InChI=1S/C4H6O/c1-3-4(2)5/h1,4-5H,2H3/t4-/m0/s1",
        "InChIKey": null,
        "Canonical SMILES": "C#CC(O)C",
        "Molecular Formula": "C<sub>4</sub>H<sub>6</sub>O",
        "Molecular Mass": "70.09",
        "Boiling Point": "100 °C @ Press: 130 mmHg"
    }
}