{
    "cas_no": "65423-25-8",
    "key_name": "11-Dodecenoic acid",
    "cn_name": null,
    "alternate_name": "11-Dodecenoic acid;C12:1ω11",
    "duplicated_cas_no": "118020-77-2",
    "SMILES": "C(CCCCCCC=C)CCC(O)=O",
    "meta_data": {
        "InChI": "InChI=1S/C12H22O2/c1-2-3-4-5-6-7-8-9-10-11-12(13)14/h2H,1,3-11H2,(H,13,14)",
        "InChIKey": null,
        "Canonical SMILES": "O=C(O)CCCCCCCCCC=C",
        "Molecular Formula": "C<sub>12</sub>H<sub>22</sub>O<sub>2</sub>",
        "Molecular Mass": "198.30",
        "Boiling Point": "143-144 °C @ Press: 3 Torr",
        "Density": "0.9030 g/cm³ @ Temp: 20 °C"
    }
}