{
    "cas_no": "41052-75-9",
    "key_name": "2-Chlorophenylhydrazine hydrochloride",
    "cn_name": "2-氯苯肼盐酸盐;",
    "alternate_name": "Hydrazine, (2-chlorophenyl)-, hydrochloride (1:1);Hydrazine, (2-chlorophenyl)-, monohydrochloride;Hydrazine, (<em>o</em>-chlorophenyl)-, hydrochloride;2-Chlorophenylhydrazine hydrochloride;(<em>o</em>-Chlorophenyl)hydrazizne hydrochloride;<em>o</em>-Chlorophenylhydrazine hydrochloride;2-(2-Chlorophenyl)hydrazinium chloride",
    "duplicated_cas_no": "",
    "SMILES": "N(N)C1=C(Cl)C=CC=C1.Cl",
    "meta_data": {
        "InChI": "InChI=1S/C6H7ClN2.ClH/c7-5-3-1-2-4-6(5)9-8;/h1-4,9H,8H2;1H",
        "InChIKey": null,
        "Canonical SMILES": "Cl.ClC=1C=CC=CC1NN",
        "Molecular Formula": "C<sub>6</sub>H<sub>7</sub>ClN<sub>2</sub>.ClH",
        "Molecular Mass": "",
        "Melting Point": "198-200 °C (decomp)"
    }
}