{
    "cas_no": "6960-45-8",
    "key_name": "7-Nitro-1<em>H</em>-indole-2-carboxylic acid",
    "cn_name": "7-硝基吲哚-2-甲酸;",
    "alternate_name": "1<em>H</em>-Indole-2-carboxylic acid, 7-nitro-;Indole-2-carboxylic acid, 7-nitro-;7-Nitro-1<em>H</em>-indole-2-carboxylic acid;7-Nitroindol-2-carboxylic acid;7-Nitro-2-indolecarboxylic acid;NSC 69877;CRT 0044876",
    "duplicated_cas_no": "",
    "SMILES": "N(=O)(=O)C1=C2C(C=C(C(O)=O)N2)=CC=C1",
    "meta_data": {
        "InChI": "InChI=1S/C9H6N2O4/c12-9(13)6-4-5-2-1-3-7(11(14)15)8(5)10-6/h1-4,10H,(H,12,13)",
        "InChIKey": null,
        "Canonical SMILES": "O=C(O)C1=CC=2C=CC=C(C2N1)N(=O)=O",
        "Molecular Formula": "C<sub>9</sub>H<sub>6</sub>N<sub>2</sub>O<sub>4</sub>",
        "Molecular Mass": "206.15",
        "Melting Point": "231 °C"
    }
}