{
    "cas_no": "3663-44-3",
    "key_name": "γ-Aminopropylmethyldimethoxysilane",
    "cn_name": "3-氨丙基甲基二甲氧基硅烷;3-(二甲氧基甲基硅烷)-1-丙胺;",
    "alternate_name": "1-Propanamine, 3-(dimethoxymethylsilyl)-;Propylamine, 3-(dimethoxymethylsilyl)-;3-(Dimethoxymethylsilyl)-1-propanamine;γ-Aminopropylmethyldimethoxysilane;3-Aminopropylmethyldimethoxysilane;(3-Aminopropyl)dimethoxymethylsilane;3-(Dimethoxymethylsilyl)propylamine;γ-Aminopropyldimethoxymethylsilane;Q 2-8038;A 0742;KBM 902;Silquest A 2110C;YDH 660;Aminopropyldimethoxymethylsilane;Silquest A 2110;DB 912;3-(Dimethoxymethylsilyl)-1-propylamine;Chemos 266007;AJ 114;3-(Dimethoxymethylsilanyl)propylamine;KH 554;Si 903;A 311;KH 552;SCA-A 10T;FD 554;KBM 904;KH 920;SiSiB PC 1130",
    "duplicated_cas_no": "219561-88-3;1656992-09-4",
    "SMILES": "[Si](CCCN)(OC)(OC)C",
    "meta_data": {
        "InChI": "InChI=1S/C6H17NO2Si/c1-8-10(3,9-2)6-4-5-7/h4-7H2,1-3H3",
        "InChIKey": null,
        "Canonical SMILES": "O(C)[Si](OC)(C)CCCN",
        "Molecular Formula": "C<sub>6</sub>H<sub>17</sub>NO<sub>2</sub>Si",
        "Molecular Mass": "163.29",
        "Boiling Point": "58-60 °C @ Press: 4 Torr",
        "Density": "0.9430 g/cm³ @ Temp: 20 °C"
    }
}