{
    "cas_no": "629-36-7",
    "key_name": "1,1′-Oxybis[3-chloropropane]",
    "cn_name": null,
    "alternate_name": "Propane, 1,1′-oxybis[3-chloro-;Ether, bis(3-chloropropyl);1,1′-Oxybis[3-chloropropane];Bis(3-chloropropyl) ether;1,7-Dichloro-4-oxaheptane;NSC 6249;1-Chloro-3-(3-chloropropoxy)propane",
    "duplicated_cas_no": "",
    "SMILES": "O(CCCCl)CCCCl",
    "meta_data": {
        "InChI": "InChI=1S/C6H12Cl2O/c7-3-1-5-9-6-2-4-8/h1-6H2",
        "InChIKey": null,
        "Canonical SMILES": "ClCCCOCCCCl",
        "Molecular Formula": "C<sub>6</sub>H<sub>12</sub>Cl<sub>2</sub>O",
        "Molecular Mass": "171.06",
        "Boiling Point": "216 °C",
        "Melting Point": "&lt;-80 °C",
        "Density": "1.140 g/cm³ @ Temp: 20 °C"
    }
}