{
    "cas_no": "13351-61-6",
    "key_name": "2,2-Dimethyl-3-phenylpropanol",
    "cn_name": "2,2-二甲基-3-苯丙醇;alpha,alpha-二甲基苯丙醇;海风醇;",
    "alternate_name": "Benzenepropanol, β,β-dimethyl-;1-Propanol, 2,2-dimethyl-3-phenyl-;β,β-Dimethylbenzenepropanol;2,2-Dimethyl-3-phenylpropanol;2,2-Dimethyl-3-phenyl-1-propanol;2,2-Dimethyl-3-phenylpropyl alcohol;Muguet alcohol",
    "duplicated_cas_no": "",
    "SMILES": "C(C(CO)(C)C)C1=CC=CC=C1",
    "meta_data": {
        "InChI": "InChI=1S/C11H16O/c1-11(2,9-12)8-10-6-4-3-5-7-10/h3-7,12H,8-9H2,1-2H3",
        "InChIKey": null,
        "Canonical SMILES": "OCC(C)(C)CC=1C=CC=CC1",
        "Molecular Formula": "C<sub>11</sub>H<sub>16</sub>O",
        "Molecular Mass": "164.24",
        "Boiling Point": "120-124 °C @ Press: 14 Torr",
        "Melting Point": "34.5 °C"
    }
}