{
    "cas_no": "6222-17-9",
    "key_name": "1,6-Hexanediol, 1,6-diacetate",
    "cn_name": "1,6-二乙酰氧基己烷;1,6-己二醇二乙酸酯;",
    "alternate_name": "1,6-Hexanediol, 1,6-diacetate;1,6-Hexanediol, diacetate;Hexylene glycol diacetate;1,6-Diacetoxyhexane;1,6-Dihydroxyhexane diacetate;NSC 67922;1,6-Hexylene glycol diacetate;1,6-HDDA;CELTOL 1,6-HDDA",
    "duplicated_cas_no": "",
    "SMILES": "C(OC(C)=O)CCCCCOC(C)=O",
    "meta_data": {
        "InChI": "InChI=1S/C10H18O4/c1-9(11)13-7-5-3-4-6-8-14-10(2)12/h3-8H2,1-2H3",
        "InChIKey": null,
        "Canonical SMILES": "O=C(OCCCCCCOC(=O)C)C",
        "Molecular Formula": "C<sub>10</sub>H<sub>18</sub>O<sub>4</sub>",
        "Molecular Mass": "202.25",
        "Boiling Point": "103.5-106.0 °C @ Press: 3 Torr",
        "Density": "1.0135 g/cm³ @ Temp: 20 °C"
    }
}