{
    "cas_no": "49761-82-2",
    "key_name": "1<em>H</em>-Imidazole-1-carboxylic acid, 1,1-dimethylethyl ester",
    "cn_name": null,
    "alternate_name": "1<em>H</em>-Imidazole-1-carboxylic acid, 1,1-dimethylethyl ester;Imidazole-1-carboxylic acid, <em>tert</em>-butyl ester;1-(<em>tert</em>-Butoxycarbonyl)imidazole;<em>tert</em>-Butyl imidazole-1-carboxylate;<em>tert</em>-Butyl 1<em>H</em>-imidazole-1-carboxylate;1-Boc-imidazole;1,1-Dimethylethyl 1<em>H</em>-imidazole-1-carboxylate",
    "duplicated_cas_no": "71645-11-9",
    "SMILES": "C(OC(C)(C)C)(=O)N1C=CN=C1",
    "meta_data": {
        "InChI": "InChI=1S/C8H12N2O2/c1-8(2,3)12-7(11)10-5-4-9-6-10/h4-6H,1-3H3",
        "InChIKey": null,
        "Canonical SMILES": "O=C(OC(C)(C)C)N1C=NC=C1",
        "Molecular Formula": "C<sub>8</sub>H<sub>12</sub>N<sub>2</sub>O<sub>2</sub>",
        "Molecular Mass": "168.19",
        "Melting Point": "45-47.5 °C"
    }
}