{
    "cas_no": "2437-56-1",
    "key_name": "1-Tridecene",
    "cn_name": null,
    "alternate_name": "1-Tridecene;<em>n</em>-Tridec-1-ene;α-Tridecene;NSC 78473",
    "duplicated_cas_no": "",
    "SMILES": "C(CCCCCC)CCCCC=C",
    "meta_data": {
        "InChI": "InChI=1S/C13H26/c1-3-5-7-9-11-13-12-10-8-6-4-2/h3H,1,4-13H2,2H3",
        "InChIKey": null,
        "Canonical SMILES": "C=CCCCCCCCCCCC",
        "Molecular Formula": "C<sub>13</sub>H<sub>26</sub>",
        "Molecular Mass": "182.35",
        "Boiling Point": "232.8 °C",
        "Melting Point": "-13 °C",
        "Density": "0.7658 g/cm³ @ Temp: 20 °C"
    }
}