{
    "cas_no": "487-27-4",
    "key_name": "Oscine",
    "cn_name": null,
    "alternate_name": "2,5-Methano-2<em>H</em>-furo[3,2-<em>b</em>]pyrrol-6-ol, hexahydro-4-methyl-, (2<em>R</em>,3a<em>S</em>,5<em>R</em>,6<em>R</em>,6a<em>R</em>)-<em>rel</em>-;1β<span class=\"text-smallcaps\">H</smallcap>,5β<smallcap>H</span>-Tropan-6α-ol, 3β,7β-epoxy-;Scopoline;2,5-Methano-2<em>H</em>-furo[3,2-<em>b</em>]pyrrol-6-ol, hexahydro-4-methyl-, (2α,3aβ,5α,6β,6aβ)-;<em>rel</em>-(2<em>R</em>,3a<em>S</em>,5<em>R</em>,6<em>R</em>,6a<em>R</em>)-Hexahydro-4-methyl-2,5-methano-2<em>H</em>-furo[3,2-<em>b</em>]pyrrol-6-ol;Oscine;Oscin;Scopolin;(±)-Scopoline",
    "duplicated_cas_no": "116947-20-7;20764-40-3",
    "SMILES": "O[C@@H]1[C@@]2([C@@]3(N(C)[C@]1(CC(O2)(C3)[H])[H])[H])[H]",
    "meta_data": {
        "InChI": "InChI=1S/C8H13NO2/c1-9-5-2-4-3-6(9)8(11-4)7(5)10/h4-8,10H,2-3H2,1H3/t4?,5-,6+,7-,8-/m0/s1",
        "InChIKey": null,
        "Canonical SMILES": "OC1C2N(C)C3CC(OC13)C2",
        "Molecular Formula": "C<sub>8</sub>H<sub>13</sub>NO<sub>2</sub>",
        "Molecular Mass": "155.19",
        "Boiling Point": "248 °C",
        "Melting Point": "108.5 °C"
    }
}