{
    "cas_no": "116344-17-3",
    "key_name": "1-Phenyl-5-propyl-1<em>H</em>-pyrazole-4-carboxylic acid",
    "cn_name": null,
    "alternate_name": "1<em>H</em>-Pyrazole-4-carboxylic acid, 1-phenyl-5-propyl-;1-Phenyl-5-propyl-1<em>H</em>-pyrazole-4-carboxylic acid;1-Phenyl-5-propylpyrazole-4-carboxylic acid",
    "duplicated_cas_no": "",
    "SMILES": "C(CC)C=1N(N=CC1C(O)=O)C2=CC=CC=C2",
    "meta_data": {
        "InChI": "InChI=1S/C13H14N2O2/c1-2-6-12-11(13(16)17)9-14-15(12)10-7-4-3-5-8-10/h3-5,7-9H,2,6H2,1H3,(H,16,17)",
        "InChIKey": null,
        "Canonical SMILES": "O=C(O)C=1C=NN(C=2C=CC=CC2)C1CCC",
        "Molecular Formula": "C<sub>13</sub>H<sub>14</sub>N<sub>2</sub>O<sub>2</sub>",
        "Molecular Mass": "230.26",
        "Melting Point": "112 °C"
    }
}