{
    "cas_no": "615-22-5",
    "key_name": "2-(Methylthio)benzothiazole",
    "cn_name": "2-甲硫基苯并噻唑;2-甲硫基硫氮茚;",
    "alternate_name": "Benzothiazole, 2-(methylthio)-;2-(Methylthio)benzothiazole;2-(Methylmercapto)benzothiazole;Methylcaptax;NSC 31259;NSC 41046;NSC 5352;2-Methylsulfanyl-1,3-benzothiazole;2-(Methylthio)benzo[<em>d</em>]thiazole",
    "duplicated_cas_no": "",
    "SMILES": "S(C)C1=NC=2C(S1)=CC=CC2",
    "meta_data": {
        "InChI": "InChI=1S/C8H7NS2/c1-10-8-9-6-4-2-3-5-7(6)11-8/h2-5H,1H3",
        "InChIKey": null,
        "Canonical SMILES": "N1=C(SC=2C=CC=CC12)SC",
        "Molecular Formula": "C<sub>8</sub>H<sub>7</sub>NS<sub>2</sub>",
        "Molecular Mass": "181.28",
        "Boiling Point": "174-175 °C @ Press: 22 Torr",
        "Melting Point": "44 °C"
    }
}