{
    "cas_no": "7540-51-4",
    "key_name": "<span class=\"text-smallcaps\">L</span>-Citronellol",
    "cn_name": "(S)-3,7-二甲基-6-辛烯-1-醇;B-香茅醇;(&plusmn;)-&Beta;-香茅醇;&Beta;-香茅醇;二氢香叶醇;L-香茅醇;",
    "alternate_name": "6-Octen-1-ol, 3,7-dimethyl-, (3<em>S</em>)-;6-Octen-1-ol, 3,7-dimethyl-, (-)-;6-Octen-1-ol, 3,7-dimethyl-, (<em>S</em>)-;(3<em>S</em>)-3,7-Dimethyl-6-octen-1-ol;<em>l</em>-Citronellol;(-)-Citronellol;(<em>S</em>)-(-)-Citronellol;(<em>S</em>)-Citronellol;(<em>S</em>)-β-Citronellol;(<em>S</em>)-(-)-β-Citronellol;(-)-(<em>S</em>)-Citronellol;(-)-β-Citronellol;<span class=\"text-smallcaps\">L</span>-Citronellol;(<em>S</em>)-3,7-Dimethyl-6-octen-1-ol;(3S)-3,7-Dimethyloct-6-en-1-ol",
    "duplicated_cas_no": "",
    "SMILES": "[C@H](CCC=C(C)C)(CCO)C",
    "meta_data": {
        "InChI": "InChI=1S/C10H20O/c1-9(2)5-4-6-10(3)7-8-11/h5,10-11H,4,6-8H2,1-3H3/t10-/m0/s1",
        "InChIKey": null,
        "Canonical SMILES": "OCCC(C)CCC=C(C)C",
        "Molecular Formula": "C<sub>10</sub>H<sub>20</sub>O",
        "Molecular Mass": "156.27",
        "Boiling Point": "120 °C @ Press: 16 Torr"
    }
}