{
    "cas_no": "105-37-3",
    "key_name": "Ethyl propionate",
    "cn_name": "丙酸乙酯;",
    "alternate_name": "Propanoic acid, ethyl ester;Propionic acid, ethyl ester;Ethyl propionate;Propionic ester;Propionic ether;Ethyl propanoate;NSC 8848",
    "duplicated_cas_no": "",
    "SMILES": "C(OCC)(CC)=O",
    "meta_data": {
        "InChI": "InChI=1S/C5H10O2/c1-3-5(6)7-4-2/h3-4H2,1-2H3",
        "InChIKey": null,
        "Canonical SMILES": "O=C(OCC)CC",
        "Molecular Formula": "C<sub>5</sub>H<sub>10</sub>O<sub>2</sub>",
        "Molecular Mass": "102.13",
        "Boiling Point": "99.2 °C",
        "Melting Point": "-73.9 °C",
        "Density": "0.8917 g/cm³ @ Temp: 20 °C"
    }
}