{
    "cas_no": "4421-09-4",
    "key_name": "1,3-Benzodioxole-5-carbonitrile",
    "cn_name": "胡椒腈;3,4-(亚甲二氧基)苯甲腈;",
    "alternate_name": "1,3-Benzodioxole-5-carbonitrile;Piperonylonitrile;1-Cyano-3,4-methylenedioxybenzene;5-Cyano-1,3-benzodioxole;3,4-(Methylenedioxy)benzonitrile;NSC 27009;2<em>H</em>-Benzo[<em>d</em>]-1,3-dioxolane-5-carbonitrile;Benzodioxole-5-carbonitrile;Benzo[<em>d</em>][1,3]dioxole-5-carbonitrile;1,3-Dioxaindane-5-carbonitrile;2<em>H</em>-1,3-Benzodioxole-5-carbonitrile",
    "duplicated_cas_no": "",
    "SMILES": "C(#N)C=1C=C2C(=CC1)OCO2",
    "meta_data": {
        "InChI": "InChI=1S/C8H5NO2/c9-4-6-1-2-7-8(3-6)11-5-10-7/h1-3H,5H2",
        "InChIKey": null,
        "Canonical SMILES": "N#CC1=CC=C2OCOC2=C1",
        "Molecular Formula": "C<sub>8</sub>H<sub>5</sub>NO<sub>2</sub>",
        "Molecular Mass": "147.13",
        "Melting Point": "94-97 °C"
    }
}