{
    "cas_no": "51178-68-8",
    "key_name": "Poly(oxy-1,2-ethanediyl), α-(2-carboxyethyl)-ω-(2-carboxyethoxy)-",
    "cn_name": null,
    "alternate_name": "Poly(oxy-1,2-ethanediyl), α-(2-carboxyethyl)-ω-(2-carboxyethoxy)-;Polyethylene glycol bis(2-carboxyethyl) ether",
    "duplicated_cas_no": "173323-15-4;892155-64-5;1053656-79-3;1383567-60-9",
    "SMILES": "",
    "meta_data": {
        "InChI": "",
        "InChIKey": null,
        "Canonical SMILES": "",
        "Molecular Formula": "(C<sub>2</sub>H<sub>4</sub>O)<sub>n</sub>C<sub>6</sub>H<sub>10</sub>O<sub>5</sub>",
        "Molecular Mass": "",
        "Melting Point": "42-45 °C"
    }
}