{
    "cas_no": "766-82-5",
    "key_name": "3-Methylphenylacetylene",
    "cn_name": "3-甲基苯乙炔;3-乙炔基甲苯;",
    "alternate_name": "Benzene, 1-ethynyl-3-methyl-;Toluene, <em>m</em>-ethynyl-;1-Ethynyl-3-methylbenzene;<em>m</em>-Ethynyltoluene;<em>m</em>-Tolylacetylene;3-Tolylacetylene;3-Methylphenylacetylene;<em>m</em>-Methylphenylacetylene;3-Ethynyltoluene;1-Methyl-3-ethynylbenzene;3-Methylethynylbenzene;(3-Methylphenyl)ethyne",
    "duplicated_cas_no": "1401716-59-3",
    "SMILES": "C(#C)C1=CC(C)=CC=C1",
    "meta_data": {
        "InChI": "InChI=1S/C9H8/c1-3-9-6-4-5-8(2)7-9/h1,4-7H,2H3",
        "InChIKey": null,
        "Canonical SMILES": "C#CC1=CC=CC(=C1)C",
        "Molecular Formula": "C<sub>9</sub>H<sub>8</sub>",
        "Molecular Mass": "116.16",
        "Boiling Point": "58-59 °C @ Press: 14 Torr"
    }
}