{
    "cas_no": "6272-55-5",
    "key_name": "7-Hydroxy-7,8,9,10-tetrahydrobenzo[<em>a</em>]pyrene",
    "cn_name": "7,8,9,10-四氢苯并[a]芘-7-醇;",
    "alternate_name": "Benzo[<em>a</em>]pyren-7-ol, 7,8,9,10-tetrahydro-;7,8,9,10-Tetrahydrobenzo[<em>a</em>]pyren-7-ol;7-Hydroxy-7,8,9,10-tetrahydrobenzo[<em>a</em>]pyrene;(<em>RS</em>)-7,8,9,10-Tetrahydrobenzo[<em>a</em>]pyren-7-ol;(±)-7,8,9,10-Tetrahydrobenzo[<em>a</em>]pyren-7-ol;NSC 30871",
    "duplicated_cas_no": "91484-77-4",
    "SMILES": "OC1C2=C(C=3C4=C5C(=CC3)C=CC=C5C=CC4=C2)CCC1",
    "meta_data": {
        "InChI": "InChI=1S/C20H16O/c21-18-6-2-5-15-16-10-9-13-4-1-3-12-7-8-14(11-17(15)18)20(16)19(12)13/h1,3-4,7-11,18,21H,2,5-6H2",
        "InChIKey": null,
        "Canonical SMILES": "OC1C=2C=C3C=CC4=CC=CC=5C=CC(=C3C45)C2CCC1",
        "Molecular Formula": "C<sub>20</sub>H<sub>16</sub>O",
        "Molecular Mass": "272.34",
        "Melting Point": "141.5-142 °C"
    }
}