{
    "cas_no": "1153-51-1",
    "key_name": "5α-Androst-16-en-3α-ol",
    "cn_name": null,
    "alternate_name": "Androst-16-en-3-ol, (3α,5α)-;5α-Androst-16-en-3α-ol;(3α,5α)-Androst-16-en-3-ol;3α-Hydroxy-5α-androst-16-ene;3α-Hydroxyandrost-16-ene;E 281;NSC 71076;3α-Androstenol",
    "duplicated_cas_no": "",
    "SMILES": "C[C@@]12[C@@]3([C@]([C@]4([C@](C)(CC3)C=CC4)[H])(CC[C@]1(C[C@H](O)CC2)[H])[H])[H]",
    "meta_data": {
        "InChI": "InChI=1S/C19H30O/c1-18-9-3-4-16(18)15-6-5-13-12-14(20)7-11-19(13,2)17(15)8-10-18/h3,9,13-17,20H,4-8,10-12H2,1-2H3/t13-,14+,15-,16-,17-,18-,19-/m0/s1",
        "InChIKey": null,
        "Canonical SMILES": "OC1CCC2(C)C(CCC3C4CC=CC4(C)CCC32)C1",
        "Molecular Formula": "C<sub>19</sub>H<sub>30</sub>O",
        "Molecular Mass": "274.44",
        "Melting Point": "142.75 °C"
    }
}