{
    "cas_no": "42074-68-0",
    "key_name": "2-Chlorotrityl chloride",
    "cn_name": "氯代(邻氯苯基)二苯基甲烷;1-氯-2-(氯代二苯基甲基)苯;",
    "alternate_name": "Benzene, 1-chloro-2-(chlorodiphenylmethyl)-;1-Chloro-2-(chlorodiphenylmethyl)benzene;2-Chlorophenyldiphenylmethyl chloride;<em>o</em>-Chlorotriphenylchloromethane;Chloro(2-chlorophenyl)diphenylmethane;Diphenyl-2-chlorophenylmethyl chloride;2-Chlorophenyldiphenylchloromethane;2-Chlorotrityl chloride;(Chloro(2-chlorophenyl)methylene)dibenzene",
    "duplicated_cas_no": "",
    "SMILES": "C(Cl)(C1=C(Cl)C=CC=C1)(C2=CC=CC=C2)C3=CC=CC=C3",
    "meta_data": {
        "InChI": "InChI=1S/C19H14Cl2/c20-18-14-8-7-13-17(18)19(21,15-9-3-1-4-10-15)16-11-5-2-6-12-16/h1-14H",
        "InChIKey": null,
        "Canonical SMILES": "ClC=1C=CC=CC1C(Cl)(C=2C=CC=CC2)C=3C=CC=CC3",
        "Molecular Formula": "C<sub>19</sub>H<sub>14</sub>Cl<sub>2</sub>",
        "Molecular Mass": "313.22",
        "Melting Point": "136 °C"
    }
}