{
    "cas_no": "62012-15-1",
    "key_name": "1-(3-Hydroxypropyl)-2-pyrrolidinone",
    "cn_name": "N-羟丙基-2-吡咯烷酮;",
    "alternate_name": "2-Pyrrolidinone, 1-(3-hydroxypropyl)-;1-(3-Hydroxypropyl)-2-pyrrolidinone;1-(3-Hydroxypropyl)-2-pyrrolidone;1-(3-Hydroxy-1-propyl)-2-pyrrolidone;1-(3-Hydroxypropyl)-2-pyrrolidineone;3-(2-Oxopyrrolidin-1-yl)propanol",
    "duplicated_cas_no": "",
    "SMILES": "C(CCO)N1C(=O)CCC1",
    "meta_data": {
        "InChI": "InChI=1S/C7H13NO2/c9-6-2-5-8-4-1-3-7(8)10/h9H,1-6H2",
        "InChIKey": null,
        "Canonical SMILES": "O=C1N(CCCO)CCC1",
        "Molecular Formula": "C<sub>7</sub>H<sub>13</sub>NO<sub>2</sub>",
        "Molecular Mass": "143.18",
        "Boiling Point": "138-140 °C @ Press: 1 Torr"
    }
}