{
    "cas_no": "1129-28-8",
    "key_name": "Methyl 3-(bromomethyl)benzoate",
    "cn_name": "3-溴甲基苯甲酸甲酯;",
    "alternate_name": "Benzoic acid, 3-(bromomethyl)-, methyl ester;<em>m</em>-Toluic acid, α-bromo-, methyl ester;<em>m</em>-Carbomethoxybenzyl bromide;Methyl 3-(bromomethyl)benzoate;Methyl α-bromo-<em>m</em>-toluate;<em>m</em>-(Methoxycarbonyl)benzyl bromide;<em>m</em>-(Bromomethyl)benzoic acid methyl ester;Methyl <em>m</em>-(bromomethyl)benzoate;3-Methoxycarbonylbenzyl bromide;3-Carbomethoxybenzyl bromide;3-(Bromomethyl)benzoic acid methyl ester",
    "duplicated_cas_no": "2223039-95-8",
    "SMILES": "C(OC)(=O)C1=CC(CBr)=CC=C1",
    "meta_data": {
        "InChI": "InChI=1S/C9H9BrO2/c1-12-9(11)8-4-2-3-7(5-8)6-10/h2-5H,6H2,1H3",
        "InChIKey": null,
        "Canonical SMILES": "O=C(OC)C1=CC=CC(=C1)CBr",
        "Molecular Formula": "C<sub>9</sub>H<sub>9</sub>BrO<sub>2</sub>",
        "Molecular Mass": "229.07",
        "Boiling Point": "112-114 °C @ Press: 3 Torr",
        "Melting Point": "46-47 °C"
    }
}