{
    "cas_no": "29650-44-0",
    "key_name": "Phenol, 2-fluoro-, 1-acetate",
    "cn_name": null,
    "alternate_name": "Phenol, 2-fluoro-, 1-acetate;Phenol, <em>o</em>-fluoro-, acetate;Phenol, 2-fluoro-, acetate;<em>o</em>-Fluorophenyl acetate;2-Fluorophenyl acetate",
    "duplicated_cas_no": "",
    "SMILES": "O(C(C)=O)C1=C(F)C=CC=C1",
    "meta_data": {
        "InChI": "InChI=1S/C8H7FO2/c1-6(10)11-8-5-3-2-4-7(8)9/h2-5H,1H3",
        "InChIKey": null,
        "Canonical SMILES": "O=C(OC=1C=CC=CC1F)C",
        "Molecular Formula": "C<sub>8</sub>H<sub>7</sub>FO<sub>2</sub>",
        "Molecular Mass": "154.14",
        "Boiling Point": "192-194 °C @ Press: 737 Torr"
    }
}