{
    "cas_no": "303186-20-1",
    "key_name": "4-[Difluoro(3,4,5-trifluorophenoxy)methyl]-3,5-difluoro-4′-propyl-1,1′-biphenyl",
    "cn_name": null,
    "alternate_name": "1,1′-Biphenyl, 4-[difluoro(3,4,5-trifluorophenoxy)methyl]-3,5-difluoro-4′-propyl-;4-[Difluoro(3,4,5-trifluorophenoxy)methyl]-3,5-difluoro-4′-propyl-1,1′-biphenyl;PUQU 3F;PGQU 3F;3,5-Difluoro-4′-propyl-4-((3,4,5-trifluorophenoxy)difluoromethyl)biphenyl;3-BB(F,F)XB(F,F)-F;2-[Difluoro-(3,4,5-trifluorophenoxy)methyl]-1,3-difluoro-5-(4-propylphenyl)benzene",
    "duplicated_cas_no": "",
    "SMILES": "FC=1C=C(C=C(F)C1C(OC2=CC(F)=C(F)C(F)=C2)(F)F)C3=CC=C(CCC)C=C3",
    "meta_data": {
        "InChI": "InChI=1S/C22H15F7O/c1-2-3-12-4-6-13(7-5-12)14-8-16(23)20(17(24)9-14)22(28,29)30-15-10-18(25)21(27)19(26)11-15/h4-11H,2-3H2,1H3",
        "InChIKey": null,
        "Canonical SMILES": "FC=1C=C(OC(F)(F)C=2C(F)=CC(=CC2F)C3=CC=C(C=C3)CCC)C=C(F)C1F",
        "Molecular Formula": "C<sub>22</sub>H<sub>15</sub>F<sub>7</sub>O",
        "Molecular Mass": "428.34",
        "Melting Point": "42.511 °C"
    }
}