{
    "cas_no": "14434-47-0",
    "key_name": "(<em>OC</em>-6-11)-Tris(2,2,6,6-tetramethyl-3,5-heptanedionato-κ<em>O</em><sup>3</sup>,κ<em>O</em><sup>5</sup>)chromium",
    "cn_name": "三(2,2,6,6-四甲基-3,5-庚二酮)鉻(Ⅲ);",
    "alternate_name": "Chromium, tris(2,2,6,6-tetramethyl-3,5-heptanedionato-κ<em>O</em><sup>3</sup>,κ<em>O</em><sup>5</sup>)-, (<em>OC</em>-6-11)-;Chromium, tris(2,2,6,6-tetramethyl-3,5-heptanedionato-<em>O</em>,<em>O</em>′)-, (<em>OC</em>-6-11)-;Chromium, tris(2,2,6,6-tetramethyl-3,5-heptanedionato)-;Chromium, tris(2,2,6,6-tetramethyl-3,5-heptanedionato-κ<em>O</em>,κ<em>O</em>′)-, (<em>OC</em>-6-11)-;3,5-Heptanedione, 2,2,6,6-tetramethyl-, chromium complex;(<em>OC</em>-6-11)-Tris(2,2,6,6-tetramethyl-3,5-heptanedionato-κ<em>O</em><sup>3</sup>,κ<em>O</em><sup>5</sup>)chromium;Tris(dipivaloylmethanato)chromium;Tris(2,2,6,6-tetramethyl-3,5-heptanedionato)chromium;Chromium(III) 2,2,6,6-tetramethyl-3,5-heptanedionate;Chromium tris(2,2,6,6-tetramethyl-3,5-heptanedionate);Chromium tris(dipivaloylmethanate);Chromium tris(2,2,6,6-tetramethyl-3,5-heptadionate)",
    "duplicated_cas_no": "",
    "SMILES": "C(C)(C)(C)C1=O[Cr+3]23(O=C(C(C)(C)C)[CH-]C(C(C)(C)C)=O2)(O=C(C(C)(C)C)[CH-]C(C(C)(C)C)=O3)O=C(C(C)(C)C)[CH-]1",
    "meta_data": {
        "InChI": "InChI=1S/3C11H19O2.Cr/c3*1-10(2,3)8(12)7-9(13)11(4,5)6;/h3*7H,1-6H3;/q3*-1;+3",
        "InChIKey": null,
        "Canonical SMILES": "O1=C([CH-]C(=O[Cr+3]123(O=C([CH-]C(=O2)C(C)(C)C)C(C)(C)C)O=C([CH-]C(=O3)C(C)(C)C)C(C)(C)C)C(C)(C)C)C(C)(C)C",
        "Molecular Formula": "C<sub>33</sub>H<sub>57</sub>CrO<sub>6</sub>",
        "Molecular Mass": "",
        "Melting Point": "127 °C (sublm) @ Press: 0.8 Torr"
    }
}