{
    "cas_no": "592-76-7",
    "key_name": "1-Heptene",
    "cn_name": "1-庚烯;正庚烯;正戊基乙烯;",
    "alternate_name": "1-Heptene;1-<em>n</em>-Heptene;<em>n</em>-Hept-1-ene;NSC 74130",
    "duplicated_cas_no": "",
    "SMILES": "C(CCC)CC=C",
    "meta_data": {
        "InChI": "InChI=1S/C7H14/c1-3-5-7-6-4-2/h3H,1,4-7H2,2H3",
        "InChIKey": null,
        "Canonical SMILES": "C=CCCCCC",
        "Molecular Formula": "C<sub>7</sub>H<sub>14</sub>",
        "Molecular Mass": "98.19",
        "Boiling Point": "93.6 °C",
        "Melting Point": "-119.7 °C",
        "Density": "0.6970 g/cm³ @ Temp: 20 °C"
    }
}