{
    "cas_no": "3469-20-3",
    "key_name": "2,3-Diphenylindole",
    "cn_name": null,
    "alternate_name": "1<em>H</em>-Indole, 2,3-diphenyl-;Indole, 2,3-diphenyl-;2,3-Diphenyl-1<em>H</em>-indole;2,3-Diphenylindole;NSC 17363",
    "duplicated_cas_no": "2222571-86-8",
    "SMILES": "C1(=C(NC=2C1=CC=CC2)C3=CC=CC=C3)C4=CC=CC=C4",
    "meta_data": {
        "InChI": "InChI=1S/C20H15N/c1-3-9-15(10-4-1)19-17-13-7-8-14-18(17)21-20(19)16-11-5-2-6-12-16/h1-14,21H",
        "InChIKey": null,
        "Canonical SMILES": "C=1C=CC(=CC1)C=2NC=3C=CC=CC3C2C=4C=CC=CC4",
        "Molecular Formula": "C<sub>20</sub>H<sub>15</sub>N",
        "Molecular Mass": "269.34",
        "Boiling Point": "184-208 °C @ Press: 0.065 Torr",
        "Melting Point": "122-123 °C"
    }
}