{
    "cas_no": "493-77-6",
    "key_name": "2,4,6-Triphenyl-1,3,5-triazine",
    "cn_name": null,
    "alternate_name": "1,3,5-Triazine, 2,4,6-triphenyl-;<em>s</em>-Triazine, 2,4,6-triphenyl-;2,4,6-Triphenyl-1,3,5-triazine;Cyaphenine;Triphenyl-<em>s</em>-triazine;2,4,6-Triphenyl-<em>s</em>-triazine;2,4,6-Triphenyltriazine;Kyaphenine;NSC 46521",
    "duplicated_cas_no": "",
    "SMILES": "C=1(N=C(N=C(N1)C2=CC=CC=C2)C3=CC=CC=C3)C4=CC=CC=C4",
    "meta_data": {
        "InChI": "InChI=1S/C21H15N3/c1-4-10-16(11-5-1)19-22-20(17-12-6-2-7-13-17)24-21(23-19)18-14-8-3-9-15-18/h1-15H",
        "InChIKey": null,
        "Canonical SMILES": "N=1C(=NC(=NC1C=2C=CC=CC2)C=3C=CC=CC3)C=4C=CC=CC4",
        "Molecular Formula": "C<sub>21</sub>H<sub>15</sub>N<sub>3</sub>",
        "Molecular Mass": "309.36",
        "Melting Point": "231 °C"
    }
}