{
    "cas_no": "10147-37-2",
    "key_name": "2-Propanesulfonyl chloride",
    "cn_name": "异丙基磺酰氯;",
    "alternate_name": "2-Propanesulfonyl chloride;Isopropanesulfonyl chloride;Isopropylsulfonyl chloride;2-Propylsulfonyl chloride;i-Propanesulfonyl chloride;1-Methylethylsulfonyl chloride;Isopropyl-2-sulfonyl chloride;Propan-2-ylsulfonyl chloride;Propan-2-sulfonyl chloride",
    "duplicated_cas_no": "",
    "SMILES": "S(C(C)C)(Cl)(=O)=O",
    "meta_data": {
        "InChI": "InChI=1S/C3H7ClO2S/c1-3(2)7(4,5)6/h3H,1-2H3",
        "InChIKey": null,
        "Canonical SMILES": "O=S(=O)(Cl)C(C)C",
        "Molecular Formula": "C<sub>3</sub>H<sub>7</sub>ClO<sub>2</sub>S",
        "Molecular Mass": "142.60",
        "Boiling Point": "71-73 °C @ Press: 13 Torr",
        "Melting Point": "-47 °C",
        "Density": "1.2645 g/cm³ @ Temp: 20 °C"
    }
}