{
    "cas_no": "19237-84-4",
    "key_name": "Prazosin hydrochloride",
    "cn_name": null,
    "alternate_name": "Methanone, [4-(4-amino-6,7-dimethoxy-2-quinazolinyl)-1-piperazinyl]-2-furanyl-, hydrochloride (1:1);Piperazine, 1-(4-amino-6,7-dimethoxy-2-quinazolinyl)-4-(2-furoyl)-, monohydrochloride;Piperazine, 1-(4-amino-6,7-dimethoxy-2-quinazolinyl)-4-(2-furanylcarbonyl)-, monohydrochloride;Furazosin hydrochloride;2-[4-(2-Furoyl)piperazin-1-yl]-4-amino-6,7-dimethoxyquinazoline hydrochloride;Prazosin hydrochloride;CP 12299-1;Hypovase;Peripress;Hypovasole;Minipress;Deprazolin;Pratsiol;Adverszuten;Adversuten;NSC 292810;Duramipress;Sinetens;Eurex;Alpress LP;[4-(4-Amino-6,7-dimethoxy-quinazolin-2-yl)-piperazin-1-yl]-furan-2-yl-methanone; hydrochloride",
    "duplicated_cas_no": "86126-06-9",
    "SMILES": "NC=1C2=C(N=C(N1)N3CCN(C(=O)C4=CC=CO4)CC3)C=C(OC)C(OC)=C2.Cl",
    "meta_data": {
        "InChI": "InChI=1S/C19H21N5O4.ClH/c1-26-15-10-12-13(11-16(15)27-2)21-19(22-17(12)20)24-7-5-23(6-8-24)18(25)14-4-3-9-28-14;/h3-4,9-11H,5-8H2,1-2H3,(H2,20,21,22);1H",
        "InChIKey": null,
        "Canonical SMILES": "Cl.O=C(C=1OC=CC1)N2CCN(C=3N=C(N)C=4C=C(OC)C(OC)=CC4N3)CC2",
        "Molecular Formula": "C<sub>19</sub>H<sub>21</sub>N<sub>5</sub>O<sub>4</sub>.ClH",
        "Molecular Mass": "",
        "Melting Point": "258-259 °C (decomp)"
    }
}