{
    "cas_no": "24650-42-8",
    "key_name": "2,2-Dimethoxy-2-phenylacetophenone",
    "cn_name": "安息香双甲醚;2,2-二甲氧基-2-苯基苯乙酮;",
    "alternate_name": "Ethanone, 2,2-dimethoxy-1,2-diphenyl-;Benzil dimethyl acetal;2,2-Dimethoxy-1,2-diphenylethanone;Benzil mono(dimethyl ketal);Benzil mono(dimethyl acetal);Irgacure 651;α,α-Dimethoxy-α-phenylacetophenone;Irgacure E 651;1,2-Diphenyl-2,2-dimethoxyethanone;2-Phenyl-2,2-dimethoxyacetophenone;2,2-Dimethoxy-1,2-diphenyl-1-ethanone;Benzil dimethyl ketal;Lucirin BDK;ω,ω-Dimethoxy-ω-phenylacetophenone;Irgacure 951;α,α-Dimethoxydeoxybenzoin;2,2-Dimethoxy-2-phenylacetophenone;Esacure KB 1;Irgacure 641;Irgacure I 651;DMPA;KB 1;2,2-Dimethoxyphenylacetophenone;Kayacure BDMK;Irgacure 621;IRG 651;I 651;IR 651;Photomer 51;Aronix C 101;Quantacure BDK;C 101;Irgacure 654;Irgacure 671;Benzoin dimethyl ether;BDK;Micure BK 6;Photocure 51;Omnirad BDK;Chemcure BDK;Photoinitiator 651;Speedcure BKL;2,2-Dimethoxy-1,2-diphenylethan-1-one;PIBDK;Ciba 651;Photoinitiator 6512;UV 651;IC 127;Doublecure BDK;Omnirad 651;Photoinitiator BDK;C 61;SB-PI 751;Runtecure 1065;2,2-Dimethoxy-2-diphenylacetophenone;Gencure BDK;BK 6;2,2-Dimethyloxy-2-phenyl acetophenone;D 1702;KV 1 (photoinitiator);KV 1;Acetocure BDK;Irgacure 659;Genocure BDK;Omnirad 659",
    "duplicated_cas_no": "68072-91-3;85568-54-3;88658-61-1;89697-37-0;91234-65-0;91274-91-8;123584-60-1;190337-02-1;1345344-82-2",
    "SMILES": "C(C(=O)C1=CC=CC=C1)(OC)(OC)C2=CC=CC=C2",
    "meta_data": {
        "InChI": "InChI=1S/C16H16O3/c1-18-16(19-2,14-11-7-4-8-12-14)15(17)13-9-5-3-6-10-13/h3-12H,1-2H3",
        "InChIKey": null,
        "Canonical SMILES": "O=C(C=1C=CC=CC1)C(OC)(OC)C=2C=CC=CC2",
        "Molecular Formula": "C<sub>16</sub>H<sub>16</sub>O<sub>3</sub>",
        "Molecular Mass": "256.30",
        "Boiling Point": "100-110 °C @ Press: 1 x 10<sup>-3</sup> Torr",
        "Melting Point": "63-64 °C"
    }
}