{
    "cas_no": "1667-10-3",
    "key_name": "4,4′-Bis(chloromethyl)biphenyl",
    "cn_name": "联苯二氯苄;",
    "alternate_name": "1,1′-Biphenyl, 4,4′-bis(chloromethyl)-;<em>p</em>,<em>p</em>′-Bitolyl, α,α′-dichloro-;4,4′-Bis(chloromethyl)-1,1′-biphenyl;4,4′-Bis(chloromethyl)biphenyl;4,4′-Bis(chloromethyl)diphenyl;<em>p</em>,<em>p</em>′-Bis(chloromethyl)biphenyl;NSC 74077;4,4′-Dichloromethyldiphenyl;1-(Chloromethyl)-4-[4-(chloromethyl)phenyl]benzene",
    "duplicated_cas_no": "887574-02-9",
    "SMILES": "C(Cl)C1=CC=C(C=C1)C2=CC=C(CCl)C=C2",
    "meta_data": {
        "InChI": "InChI=1S/C14H12Cl2/c15-9-11-1-5-13(6-2-11)14-7-3-12(10-16)4-8-14/h1-8H,9-10H2",
        "InChIKey": null,
        "Canonical SMILES": "ClCC1=CC=C(C=C1)C=2C=CC(=CC2)CCl",
        "Molecular Formula": "C<sub>14</sub>H<sub>12</sub>Cl<sub>2</sub>",
        "Molecular Mass": "251.15",
        "Boiling Point": "235 °C",
        "Melting Point": "136 °C"
    }
}