{
    "cas_no": "10268-69-6",
    "key_name": "Benzoic acid, 2-amino-, phenyl ester",
    "cn_name": null,
    "alternate_name": "Benzoic acid, 2-amino-, phenyl ester;Anthranilic acid, phenyl ester;Phenyl <em>o</em>-aminobenzoate;Phenyl anthranilate;Phenyl 2-aminobenzoate;2-Aminobenzoic acid phenyl ester",
    "duplicated_cas_no": "",
    "SMILES": "C(OC1=CC=CC=C1)(=O)C2=C(N)C=CC=C2",
    "meta_data": {
        "InChI": "InChI=1S/C13H11NO2/c14-12-9-5-4-8-11(12)13(15)16-10-6-2-1-3-7-10/h1-9H,14H2",
        "InChIKey": null,
        "Canonical SMILES": "O=C(OC=1C=CC=CC1)C=2C=CC=CC2N",
        "Molecular Formula": "C<sub>13</sub>H<sub>11</sub>NO<sub>2</sub>",
        "Molecular Mass": "213.23",
        "Melting Point": "70 °C"
    }
}