{
    "cas_no": "57543-67-6",
    "key_name": "6-Chloro-2<em>H</em>-1-benzopyran-3-carbonitrile",
    "cn_name": null,
    "alternate_name": "2<em>H</em>-1-Benzopyran-3-carbonitrile, 6-chloro-;6-Chloro-2<em>H</em>-1-benzopyran-3-carbonitrile;6-Chloro-2<em>H</em>-chromene-3-carbonitrile",
    "duplicated_cas_no": "",
    "SMILES": "C(#N)C1=CC=2C(OC1)=CC=C(Cl)C2",
    "meta_data": {
        "InChI": "InChI=1S/C10H6ClNO/c11-9-1-2-10-8(4-9)3-7(5-12)6-13-10/h1-4H,6H2",
        "InChIKey": null,
        "Canonical SMILES": "N#CC1=CC=2C=C(Cl)C=CC2OC1",
        "Molecular Formula": "C<sub>10</sub>H<sub>6</sub>ClNO",
        "Molecular Mass": "191.61",
        "Melting Point": "124-126 °C"
    }
}