{
    "cas_no": "4542-47-6",
    "key_name": "4-Morpholinepropanenitrile",
    "cn_name": "3-(4-吗啉基)丙腈;3-(4-吗啉基)丙腈;",
    "alternate_name": "4-Morpholinepropanenitrile;4-Morpholinepropionitrile;β-Morpholinopropionitrile;3-Morpholinopropionitrile;3-Morpholinopropanenitrile;NSC 20547;NSC 41718;<em>N</em>-(2-Cyanoethyl)morpholine;3-(Morpholin-4-yl)propionitrile",
    "duplicated_cas_no": "",
    "SMILES": "C(CC#N)N1CCOCC1",
    "meta_data": {
        "InChI": "InChI=1S/C7H12N2O/c8-2-1-3-9-4-6-10-7-5-9/h1,3-7H2",
        "InChIKey": null,
        "Canonical SMILES": "N#CCCN1CCOCC1",
        "Molecular Formula": "C<sub>7</sub>H<sub>12</sub>N<sub>2</sub>O",
        "Molecular Mass": "140.18",
        "Boiling Point": "133-134 °C @ Press: 14 Torr",
        "Melting Point": "20.4-20.6 °C",
        "Density": "1.0375 g/cm³"
    }
}