{
    "cas_no": "81-32-3",
    "key_name": "3,4,9,10-Perylenetetracarboxylic acid",
    "cn_name": null,
    "alternate_name": "3,4,9,10-Perylenetetracarboxylic acid;3,4,9,10-Tetracarboxyperylene;NSC 89768",
    "duplicated_cas_no": "",
    "SMILES": "C(O)(=O)C=1C=2C3=C(C=4C=5C(C3=CC1)=CC=C(C(O)=O)C5C(C(O)=O)=CC4)C=CC2C(O)=O",
    "meta_data": {
        "InChI": "InChI=1S/C24H12O8/c25-21(26)13-5-1-9-10-2-6-15(23(29)30)20-16(24(31)32)8-4-12(18(10)20)11-3-7-14(22(27)28)19(13)17(9)11/h1-8H,(H,25,26)(H,27,28)(H,29,30)(H,31,32)",
        "InChIKey": null,
        "Canonical SMILES": "O=C(O)C1=CC=C2C3=CC=C(C(=O)O)C=4C(=CC=C(C=5C=CC(C(=O)O)=C1C25)C34)C(=O)O",
        "Molecular Formula": "C<sub>24</sub>H<sub>12</sub>O<sub>8</sub>",
        "Molecular Mass": "428.35",
        "Melting Point": "92-96 °C"
    }
}