{
    "cas_no": "401-78-5",
    "key_name": "1-Bromo-3-(trifluoromethyl)benzene",
    "cn_name": "间溴三氟甲苯;",
    "alternate_name": "Benzene, 1-bromo-3-(trifluoromethyl)-;Toluene, <em>m</em>-bromo-α,α,α-trifluoro-;1-Bromo-3-(trifluoromethyl)benzene;<em>m</em>-(Trifluoromethyl)bromobenzene;<em>m</em>-Bromobenzotrifluoride;3-Bromobenzotrifluoride;<em>m</em>-Bromo(trifluoromethyl)benzene;<em>m</em>-Bromo-α,α,α-trifluorotoluene;3-Bromobenzyltrifluoride;3-(Trifluoromethyl)bromobenzene;3-(Trifluoromethyl)phenyl bromide;<em>m</em>-(Trifluoromethyl)phenyl bromide;α,α,α-Trifluoro-<em>m</em>-tolyl bromide;3-Bromotrifluoromethylbenzene;2-Bromo-4-trifluoromethylbenzene;NSC 9468;3-(Trifluoromethyl)-1-bromobenzene;3-Bromo-1-trifluoromethylbenzene;3-Bromo-α,α,α-trifluorotoluene",
    "duplicated_cas_no": "",
    "SMILES": "C(F)(F)(F)C1=CC(Br)=CC=C1",
    "meta_data": {
        "InChI": "InChI=1S/C7H4BrF3/c8-6-3-1-2-5(4-6)7(9,10)11/h1-4H",
        "InChIKey": null,
        "Canonical SMILES": "FC(F)(F)C=1C=CC=C(Br)C1",
        "Molecular Formula": "C<sub>7</sub>H<sub>4</sub>BrF<sub>3</sub>",
        "Molecular Mass": "225.01",
        "Boiling Point": "151.5 °C",
        "Melting Point": "1 °C",
        "Density": "1.6371 g/cm³ @ Temp: 25 °C"
    }
}