{
    "cas_no": "51-52-5",
    "key_name": "Propylthiouracil",
    "cn_name": "丙基硫氧嘧啶;6-丙基-2-巯基-4-羟基嘧啶;6-丙基-2-硫代-2,3-二氢-4(1H)-嘧啶酮;",
    "alternate_name": "4(1<em>H</em>)-Pyrimidinone, 2,3-dihydro-6-propyl-2-thioxo-;Uracil, 6-propyl-2-thio-;2,3-Dihydro-6-propyl-2-thioxo-4(1<em>H</em>)-pyrimidinone;2-Mercapto-4-hydroxy-6-<em>n</em>-propylpyrimidine;Procasil;Propacil;Propycil;6-Propyl-2-thio-2,4(1<em>H</em>,3<em>H</em>)pyrimidinedione;Propylthiouracil;6-Propyl-2-thiouracil;6-Propylthiouracil;6-<em>n</em>-Propyl-2-thiouracil;6-<em>n</em>-Propylthiouracil;Prothyran;PTU;2-Thio-4-oxo-6-propyl-1,3-pyrimidine;2-Thio-6-propyl-1,3-pyrimidin-4-one;Thyreostat II;Propyl-Thyracil;2-Mercapto-4-hydroxy-6-propylpyrimidine;Prothiurone;Prothycil;Protiural;Propyl-Thiorist;Propylthiorit;Thiuragyl;Prothiucil;PTU (thyreostatic);NSC 6498;NSC 70461;2-Mercapto-6-propylpyrimidin-4-ol;6-Propyl-2-thioxo-2,3-dihydro-1<em>H</em>-pyrimidin-4-one;MeSH ID: D011441",
    "duplicated_cas_no": "500-50-5",
    "SMILES": "C(CC)C1=CC(=O)NC(=S)N1",
    "meta_data": {
        "InChI": "InChI=1S/C7H10N2OS/c1-2-3-5-4-6(10)9-7(11)8-5/h4H,2-3H2,1H3,(H2,8,9,10,11)",
        "InChIKey": null,
        "Canonical SMILES": "O=C1C=C(NC(=S)N1)CCC",
        "Molecular Formula": "C<sub>7</sub>H<sub>10</sub>N<sub>2</sub>OS",
        "Molecular Mass": "170.23",
        "Melting Point": "219-221 °C"
    }
}