{
    "cas_no": "4423-79-4",
    "key_name": "1,4-Dioxaspiro[4.5]decan-2-one",
    "cn_name": null,
    "alternate_name": "1,4-Dioxaspiro[4.5]decan-2-one;Acetic acid, [(1-hydroxycyclohexyl)oxy]-, γ-lactone",
    "duplicated_cas_no": "",
    "SMILES": "O=C1OC2(OC1)CCCCC2",
    "meta_data": {
        "InChI": "InChI=1S/C8H12O3/c9-7-6-10-8(11-7)4-2-1-3-5-8/h1-6H2",
        "InChIKey": null,
        "Canonical SMILES": "O=C1OC2(OC1)CCCCC2",
        "Molecular Formula": "C<sub>8</sub>H<sub>12</sub>O<sub>3</sub>",
        "Molecular Mass": "156.18",
        "Melting Point": "38-40 °C"
    }
}