{
    "cas_no": "1114-71-2",
    "key_name": "<em>S</em>-Propyl-<em>N</em>-butyl-<em>N</em>-ethylthiocarbamate",
    "cn_name": "克草猛;S-丙基丁基乙基硫代氨基甲酸酯；PEBC；R-2061;",
    "alternate_name": "Carbamothioic acid, <em>N</em>-butyl-<em>N</em>-ethyl-, <em>S</em>-propyl ester;Carbamic acid, butylethylthio-, <em>S</em>-propyl ester;Carbamothioic acid, butylethyl-, <em>S</em>-propyl ester;R 2061;PEBC;Pebulate;<em>S</em>-Propyl butylethylthiocarbamate;Stauffer R 2061;Tillam;<em>S</em>-Propyl-<em>N</em>-ethyl-<em>N</em>-butylthiocarbamate;Butylethylthiocarbamic acid <em>S</em>-propyl ester;Stauffer 2061;<em>S</em>-Propyl-<em>N</em>-butyl-<em>N</em>-ethylthiocarbamate",
    "duplicated_cas_no": "",
    "SMILES": "N(C(SCCC)=O)(CCCC)CC",
    "meta_data": {
        "InChI": "InChI=1S/C10H21NOS/c1-4-7-8-11(6-3)10(12)13-9-5-2/h4-9H2,1-3H3",
        "InChIKey": null,
        "Canonical SMILES": "O=C(SCCC)N(CC)CCCC",
        "Molecular Formula": "C<sub>10</sub>H<sub>21</sub>NOS",
        "Molecular Mass": "203.34",
        "Boiling Point": "142 °C @ Press: 20 Torr",
        "Melting Point": "&lt;25 °C",
        "Density": "0.9458 g/cm³ @ Temp: 30 °C"
    }
}