{
    "cas_no": "5407-04-5",
    "key_name": "3-(Dimethylamino)propyl chloride hydrochloride",
    "cn_name": "N,N-二甲氨基氯丙烷盐酸盐;N,N-二甲氨基-3-氯丙烷盐酸盐;",
    "alternate_name": "1-Propanamine, 3-chloro-<em>N</em>,<em>N</em>-dimethyl-, hydrochloride (1:1);1-Propanamine, 3-chloro-<em>N</em>,<em>N</em>-dimethyl-, hydrochloride;Propylamine, 3-chloro-<em>N</em>,<em>N</em>-dimethyl-, hydrochloride;<em>N</em>,<em>N</em>-Dimethyl-3-chloropropylamine hydrochloride;3-(Dimethylamino)-1-propyl chloride hydrochloride;3-Chloro-<em>N</em>,<em>N</em>-dimethylpropylamine hydrochloride;3-Chloro-1-(<em>N</em>,<em>N</em>-dimethylamino)propane hydrochloride;1-Chloro-3-(dimethylamino)propane hydrochloride;3-(Dimethylamino)propyl chloride hydrochloride;3-Chloro-<em>N</em>,<em>N</em>-dimethyl-1-propanamine hydrochloride;(3-Chloropropyl)dimethylamine hydrochloride;(3-Chloropropyl)dimethylammonium chloride;3-(Dimethylamino)-1-chloropropane hydrochloride;<em>N</em>-(3-Chloropropyl)dimethylamine hydrochloride;1-Dimethylamino-3-chloropropane hydrochloride;<em>N</em>,<em>N</em>-Dimethyl-<em>N</em>-(3-chloropropyl)amine hydrochloride;3-Chloro-<em>N</em>,<em>N</em>-dimethylpropane-1-amine hydrochloride;<em>N</em>,<em>N</em>-Dimethyl-3-chloropropan-1-amine hydrochloride;3-Chloro-<em>N</em>,<em>N</em>-dimethylpropanamine hydrochloride",
    "duplicated_cas_no": "",
    "SMILES": "C(N(C)C)CCCl.Cl",
    "meta_data": {
        "InChI": "InChI=1S/C5H12ClN.ClH/c1-7(2)5-3-4-6;/h3-5H2,1-2H3;1H",
        "InChIKey": null,
        "Canonical SMILES": "Cl.ClCCCN(C)C",
        "Molecular Formula": "C<sub>5</sub>H<sub>12</sub>ClN.ClH",
        "Molecular Mass": "",
        "Boiling Point": "50 °C @ Press: 40 Torr"
    }
}