{
    "cas_no": "38677-85-9",
    "key_name": "Flunixin",
    "cn_name": null,
    "alternate_name": "3-Pyridinecarboxylic acid, 2-[[2-methyl-3-(trifluoromethyl)phenyl]amino]-;2-[[2-Methyl-3-(trifluoromethyl)phenyl]amino]-3-pyridinecarboxylic acid;Flunixin;2-(2-Methyl-3-trifluoromethylanilino)nicotinic acid;Sch 14714",
    "duplicated_cas_no": "",
    "SMILES": "N(C1=C(C(O)=O)C=CC=N1)C2=C(C)C(C(F)(F)F)=CC=C2",
    "meta_data": {
        "InChI": "InChI=1S/C14H11F3N2O2/c1-8-10(14(15,16)17)5-2-6-11(8)19-12-9(13(20)21)4-3-7-18-12/h2-7H,1H3,(H,18,19)(H,20,21)",
        "InChIKey": null,
        "Canonical SMILES": "O=C(O)C1=CC=CN=C1NC2=CC=CC(=C2C)C(F)(F)F",
        "Molecular Formula": "C<sub>14</sub>H<sub>11</sub>F<sub>3</sub>N<sub>2</sub>O<sub>2</sub>",
        "Molecular Mass": "296.24",
        "Melting Point": "226-228 °C"
    }
}