{
    "cas_no": "17885-08-4",
    "key_name": "<em>O</em>-Phospho-<span class=\"text-smallcaps\">DL</span>-serine",
    "cn_name": null,
    "alternate_name": "Serine, <em>O</em>-phosphono-;Serine, dihydrogen phosphate (ester), <span class=\"text-smallcaps\">DL</span>-;Serine, dihydrogen phosphate (ester);<em>O</em>-Phosphonoserine;<em>dl</em>-<em>O</em>-Phosphoserine;<span class=\"text-smallcaps\">DL</span>-<em>O</em>-Serine phosphate;<span class=\"text-smallcaps\">DL</span>-Phosphoserine;Energoserina;Serophen;<span class=\"text-smallcaps\">DL</span>-<em>O</em>-Phosphorylserine;<em>O</em>-Phospho-<span class=\"text-smallcaps\">DL</span>-serine;NSC 90791;2-Amino-3-phosphonooxypropanoic acid;2-Amino-3-(phosphonooxy)propanoic acid",
    "duplicated_cas_no": "473476-82-3",
    "SMILES": "C(C(C(O)=O)N)OP(=O)(O)O",
    "meta_data": {
        "InChI": "InChI=1S/C3H8NO6P/c4-2(3(5)6)1-10-11(7,8)9/h2H,1,4H2,(H,5,6)(H2,7,8,9)",
        "InChIKey": null,
        "Canonical SMILES": "O=C(O)C(N)COP(=O)(O)O",
        "Molecular Formula": "C<sub>3</sub>H<sub>8</sub>NO<sub>6</sub>P",
        "Molecular Mass": "185.07",
        "Melting Point": "166-167 °C"
    }
}