{
    "cas_no": "4130-54-5",
    "key_name": "Stearic acid, hydrazide",
    "cn_name": null,
    "alternate_name": "Octadecanoic acid, hydrazide;Stearic acid, hydrazide;Stearohydrazide;Stearoylhydrazine;NSC 67213;Stearic hydrazide",
    "duplicated_cas_no": "",
    "SMILES": "C(CCCCCCCCCCCC)CCCCC(NN)=O",
    "meta_data": {
        "InChI": "InChI=1S/C18H38N2O/c1-2-3-4-5-6-7-8-9-10-11-12-13-14-15-16-17-18(21)20-19/h2-17,19H2,1H3,(H,20,21)",
        "InChIKey": null,
        "Canonical SMILES": "O=C(NN)CCCCCCCCCCCCCCCCC",
        "Molecular Formula": "C<sub>18</sub>H<sub>38</sub>N<sub>2</sub>O",
        "Molecular Mass": "298.51",
        "Melting Point": "114 °C"
    }
}