{
    "cas_no": "36282-47-0",
    "key_name": "Tramadol hydrochloride",
    "cn_name": null,
    "alternate_name": "Cyclohexanol, 2-[(dimethylamino)methyl]-1-(3-methoxyphenyl)-, hydrochloride (1:1), (1<em>R</em>,2<em>R</em>)-<em>rel</em>-;Cyclohexanol, 2-[(dimethylamino)methyl]-1-(3-methoxyphenyl)-, hydrochloride, <em>cis</em>-(±)-;Cyclohexanol, 2-[(dimethylamino)methyl]-1-(3-methoxyphenyl)-, hydrochloride, (1<em>R</em>,2<em>R</em>)-<em>rel</em>-;CG 315;(±)-<em>trans</em>-2-[(Dimethylamino)methyl]-1-(<em>m</em>-methoxyphenyl)cyclohexanol hydrochloride;Tramadol hydrochloride;Tramal;Cyclohexanol, 2-[(dimethylamino)methyl]-1-(3-methoxyphenyl)-, hydrochloride, <em>cis</em>-;Zumatran;Radol;Bellatram;Tadol;Tradol-Puren;Tramagit;Tramagetic;Tramazac;Topalgic;Trabar;Tramed;Tradonal;Tridol;Tramadex;Tramol;Dolana;Mabron;Ultram;Adamon;Contramal;Tradol;Omnidol;<em>cis</em>-Tramadol hydrochloride;Melanate;Zydol;Crispin;NIH 10969;Adolonta;Amadol;Zydol XL 150;Poltram;ULTRAM ER;Trodon;Tridural;Tramundin;Tramal Retard;Allapian;Ira-Tramadol;Tedamol;Tramadol-Pharma;Cemadol;Viotra;Dolotram;Abidol",
    "duplicated_cas_no": "22204-88-2;53611-16-8;194602-08-9",
    "SMILES": "O[C@]1([C@@H](CN(C)C)CCCC1)C2=CC(OC)=CC=C2.Cl",
    "meta_data": {
        "InChI": "InChI=1/C16H25NO2.ClH/c1-17(2)12-14-7-4-5-10-16(14,18)13-8-6-9-15(11-13)19-3;/h6,8-9,11,14,18H,4-5,7,10,12H2,1-3H3;1H/t14-,16+;/s2",
        "InChIKey": null,
        "Canonical SMILES": "Cl.OC1(C=2C=CC=C(OC)C2)CCCCC1CN(C)C",
        "Molecular Formula": "C<sub>16</sub>H<sub>25</sub>NO<sub>2</sub>.ClH",
        "Molecular Mass": "",
        "Melting Point": "180-181 °C"
    }
}