{
    "cas_no": "101622-51-9",
    "key_name": "Olomoucine",
    "cn_name": "2-(羟乙氨基)-6-苄氨基-9-甲基嘌呤;2-(羟乙氨基)-6-苄氨基-9-甲基嘌呤;",
    "alternate_name": "Ethanol, 2-[[9-methyl-6-[(phenylmethyl)amino]-9<em>H</em>-purin-2-yl]amino]-;2-[[9-Methyl-6-[(phenylmethyl)amino]-9<em>H</em>-purin-2-yl]amino]ethanol;6-(Benzylamino)-2-(2-hydroxyethylamino)-9-methylpurine;2-(2′-Hydroxyethylamino)-9-methyl-6-(benzylamino)purine;2-(2-Hydroxyethylamino)-6-(benzylamino)-9-methylpurine;Olomoucine;NSC 666096;2-(6-Benzylamino-9-methyl-9<em>H</em>-purin-2-ylamino)-ethanol;2-[[6-(Benzylamino)-9-methylpurin-2-yl]amino]ethanol",
    "duplicated_cas_no": "",
    "SMILES": "N(CC1=CC=CC=C1)C2=C3C(=NC(NCCO)=N2)N(C)C=N3",
    "meta_data": {
        "InChI": "InChI=1S/C15H18N6O/c1-21-10-18-12-13(17-9-11-5-3-2-4-6-11)19-15(16-7-8-22)20-14(12)21/h2-6,10,22H,7-9H2,1H3,(H2,16,17,19,20)",
        "InChIKey": null,
        "Canonical SMILES": "OCCNC=1N=C(NCC=2C=CC=CC2)C=3N=CN(C3N1)C",
        "Molecular Formula": "C<sub>15</sub>H<sub>18</sub>N<sub>6</sub>O",
        "Molecular Mass": "298.34",
        "Melting Point": "125-126 °C"
    }
}