{
    "cas_no": "19719-28-9",
    "key_name": "2,4-Dichlorophenylacetic acid",
    "cn_name": "2,4-二氯苯乙酸;",
    "alternate_name": "Benzeneacetic acid, 2,4-dichloro-;Acetic acid, (2,4-dichlorophenyl)-;2,4-Dichlorobenzeneacetic acid;2,4-Dichlorophenylacetic acid;NSC 54853;2-(2,4-Dichlorophenyl)acetic acid",
    "duplicated_cas_no": "",
    "SMILES": "C(C(O)=O)C1=C(Cl)C=C(Cl)C=C1",
    "meta_data": {
        "InChI": "InChI=1S/C8H6Cl2O2/c9-6-2-1-5(3-8(11)12)7(10)4-6/h1-2,4H,3H2,(H,11,12)",
        "InChIKey": null,
        "Canonical SMILES": "O=C(O)CC1=CC=C(Cl)C=C1Cl",
        "Molecular Formula": "C<sub>8</sub>H<sub>6</sub>Cl<sub>2</sub>O<sub>2</sub>",
        "Molecular Mass": "205.04",
        "Melting Point": "131 °C"
    }
}