{
    "cas_no": "95-53-4",
    "key_name": "<em>o</em>-Toluidine",
    "cn_name": "邻甲基苯胺;邻甲苯胺;",
    "alternate_name": "Benzenamine, 2-methyl-;<em>o</em>-Toluidine;2-Methylbenzenamine;2-Aminotoluene;<em>o</em>-Methylaniline;<em>o</em>-Methylbenzenamine;2-Methyl-1-aminobenzene;2-Toluidine;2-Methylaniline;<em>o</em>-Tolylamine;1-Amino-2-methylbenzene;<em>o</em>-Aminotoluene;2-Amino-1-methylbenzene;2-Methylphenylamine;2-Tolylamine;NSC 15348;6-Methylaniline",
    "duplicated_cas_no": "",
    "SMILES": "CC1=C(N)C=CC=C1",
    "meta_data": {
        "InChI": "InChI=1S/C7H9N/c1-6-4-2-3-5-7(6)8/h2-5H,8H2,1H3",
        "InChIKey": null,
        "Canonical SMILES": "NC=1C=CC=CC1C",
        "Molecular Formula": "C<sub>7</sub>H<sub>9</sub>N",
        "Molecular Mass": "107.15",
        "Boiling Point": "200.3 °C",
        "Melting Point": "-16.3 °C",
        "Density": "1.008 g/cm³ @ Temp: 20 °C"
    }
}