{
    "cas_no": "38026-46-9",
    "key_name": "Ethyl 1,2,3,4-tetrahydro-4-oxo-2-thioxo-5-pyrimidinecarboxylate",
    "cn_name": "2-硫代尿嘧啶-5-甲酸乙酯;2-硫代尿嘧啶-5-甲酸乙酯;",
    "alternate_name": "5-Pyrimidinecarboxylic acid, 1,2,3,4-tetrahydro-4-oxo-2-thioxo-, ethyl ester;5-Pyrimidinecarboxylic acid, 1,2,3,4-tetrahydro-4-oxo-2-thio-, ethyl ester;Ethyl 1,2,3,4-tetrahydro-4-oxo-2-thioxo-5-pyrimidinecarboxylate;Ethyl 2-mercapto-4-hydroxypyrimidine-5-carboxylate;2-Mercapto-5-carbethoxyuracil;5-Carbethoxy-2-thiouracil;NSC 11999;NSC 1584;Ethyl 2-mercapto-6-oxo-1,6-dihydropyrimidine-5-carboxylate",
    "duplicated_cas_no": "3346-79-0",
    "SMILES": "C(OCC)(=O)C=1C(=O)NC(=S)NC1",
    "meta_data": {
        "InChI": "InChI=1S/C7H8N2O3S/c1-2-12-6(11)4-3-8-7(13)9-5(4)10/h3H,2H2,1H3,(H2,8,9,10,13)",
        "InChIKey": null,
        "Canonical SMILES": "O=C(OCC)C1=CNC(=S)NC1=O",
        "Molecular Formula": "C<sub>7</sub>H<sub>8</sub>N<sub>2</sub>O<sub>3</sub>S",
        "Molecular Mass": "200.21",
        "Melting Point": "252 °C"
    }
}