{
    "cas_no": "86477-09-0",
    "key_name": "5,6-Dihydro-4<em>H</em>-pyrrolo[1,2-<em>b</em>]pyrazole-2-carboxylic acid ethyl ester",
    "cn_name": null,
    "alternate_name": "4<em>H</em>-Pyrrolo[1,2-<em>b</em>]pyrazole-2-carboxylic acid, 5,6-dihydro-, ethyl ester;5,6-Dihydro-4<em>H</em>-pyrrolo[1,2-<em>b</em>]pyrazole-2-carboxylic acid ethyl ester",
    "duplicated_cas_no": "",
    "SMILES": "C(OCC)(=O)C=1C=C2N(N1)CCC2",
    "meta_data": {
        "InChI": "InChI=1S/C9H12N2O2/c1-2-13-9(12)8-6-7-4-3-5-11(7)10-8/h6H,2-5H2,1H3",
        "InChIKey": null,
        "Canonical SMILES": "O=C(OCC)C1=NN2C(=C1)CCC2",
        "Molecular Formula": "C<sub>9</sub>H<sub>12</sub>N<sub>2</sub>O<sub>2</sub>",
        "Molecular Mass": "180.20",
        "Melting Point": "61-63 °C"
    }
}