{
    "cas_no": "15180-47-9",
    "key_name": "<em>N</em>-Ethyl-<em>N</em>-[(triethoxysilyl)methyl]ethanamine",
    "cn_name": "二乙胺基甲基三乙氧基硅烷;",
    "alternate_name": "Ethanamine, <em>N</em>-ethyl-<em>N</em>-[(triethoxysilyl)methyl]-;Diethylamine, <em>N</em>-[(triethoxysilyl)methyl]-;<em>N</em>-Ethyl-<em>N</em>-[(triethoxysilyl)methyl]ethanamine;ADE 3;(Diethylamino)methyltriethoxysilane;ND 22;(<em>N</em>,<em>N</em>-Diethylaminomethyl)triethoxysilane;KH-ND 22",
    "duplicated_cas_no": "",
    "SMILES": "[Si](CN(CC)CC)(OCC)(OCC)OCC",
    "meta_data": {
        "InChI": "InChI=1S/C11H27NO3Si/c1-6-12(7-2)11-16(13-8-3,14-9-4)15-10-5/h6-11H2,1-5H3",
        "InChIKey": null,
        "Canonical SMILES": "O(CC)[Si](OCC)(OCC)CN(CC)CC",
        "Molecular Formula": "C<sub>11</sub>H<sub>27</sub>NO<sub>3</sub>Si",
        "Molecular Mass": "249.42",
        "Boiling Point": "74-76 °C @ Press: 3 Torr",
        "Density": "0.9336 g/cm³ @ Temp: 25 °C"
    }
}