{
    "cas_no": "16090-02-1",
    "key_name": "C.I. Fluorescent Brightener 260",
    "cn_name": "荧光增白剂71;4,4\"-双[(4-苯胺基-6-吗啉基-1,3,5-三嗪-2-基)氨基]二苯乙烯-2,2\"-二磺酸二钠盐;",
    "alternate_name": "Benzenesulfonic acid, 2,2′-(1,2-ethenediyl)bis[5-[[4-(4-morpholinyl)-6-(phenylamino)-1,3,5-triazin-2-yl]amino]-, sodium salt (1:2);2,2′-Stilbenedisulfonic acid, 4,4′-bis[(4-anilino-6-morpholino-<em>s</em>-triazin-2-yl)amino]-, disodium salt;Benzenesulfonic acid, 2,2′-(1,2-ethenediyl)bis[5-[[4-(4-morpholinyl)-6-(phenylamino)-1,3,5-triazin-2-yl]amino]-, disodium salt;Disodium 4,4′-bis(4-anilino-6-morpholino-<em>s</em>-triazin-2-ylamino)stilbene-2,2′-disulfonate;Sodium 4,4′-bis(2-anilino-4-morpholino-6-amino-1,3,5-triazinyl)stilbene-2,2′-disulfonate;Disodium 4,4′-bis(2-anilino-4-morpholino-1,3,5-triazin-6-ylamino)-2,2′-stilbenedisulfonate;Disodium 4,4′-bis[(2-anilino-4-morpholino-<em>s</em>-triazin-6-yl)amino]-2,2′-stilbenedisulfonate;Disodium 4,4′-bis(4-anilino-2-morpholino-<em>s</em>-triazin-6-ylamino)stilbene-2,2′-disulfonate;4,4′-Bis[4′′-anilino-6′′-morpholinotriazinyl-2′′-amino]stilbene-2,2′-disulfonic acid disodium salt;4,4′-Bis(2-morpholino-4-anilino-<em>s</em>-triazinyl-6-amino)stilbene-2,2′-disulfonic acidisulfonic acid d disodium salt;Disodium 4,4′-bis(2-morpholino-4-phenylamino-<em>s</em>-triazin-6-ylamino)stilbine-2,2′-disulfonate;Tinopal AMS;Blankophor MBBH;C.I. Fluorescent Brightener 260;Tinopal EMS;Blankophor BBH;Mikephor TB;MBBH 766;Tinopal DMS-X;C.I. Fluorescent Brightener 71;Calcofluor White RC;Leukopur PAM;Stralex MD;Belotex KD;Hiltamine Arctic White DML;Phorwite MBBH 766;C.I. Fluorescent Brightener 244;Heliofor 3BC;C.I. Fluorescent Brightener 250;Heliofor BDC;Rylux D;C.I. 40625;Fluorescent Brightener 71;Whitex SA;Kayaphor MAS;Whitex SA extra conc.(H);Blancophor BBH;Optiblanc 2MG;DAS 1;Blankophor DML;Belofor KD 2;Tinopal DMS;Photine CBUS 560B;Photine CBUS;Brightener BR 15;DAS 1 (brightener);Tinopal AMS-GX;4,4′-Bis[(6-anilino-4-morpholino-1,3,5-triazin-2-yl)amino]-2,2′-disulfostilbene disodium salt;Disodium 4,4′-bis[(4-anilino-6-morpholino-1,3,5-triazin-2-yl)amino]stilbene-2,2′-disulfonate;FB 71;Tinopal DMA-X;4,4′-Bis[(4-anilino-6-morpholino-1,3,5-triazin-2-yl)amino]stilbene-2,2′-disulfonic acid disodium salt;Fluorescent Brightener 260;Fluorescent Brightener CXT;CXT;Optiblanc 2M/G-LT;DMS;DMA-X;2M/G-LT;Brightener 33;Tinopal DMA;Photine CBUS-B 560;D-MS;Disodium anilinomorpholinotriazinyl-aminostilbenesulfonate;CBUS 450",
    "duplicated_cas_no": "12646-20-7;39354-68-2;60397-72-0;60650-25-1;61902-21-4;63439-82-7;64294-87-7;73071-63-3;147601-90-9;196109-62-3",
    "SMILES": "N(C1=NC(=NC(NC2=CC=CC=C2)=N1)N3CCOCC3)C4=CC(S(=O)(=O)O)=C(C=CC5=C(S(=O)(=O)O)C=C(NC=6N=C(N=C(NC7=CC=CC=C7)N6)N8CCOCC8)C=C5)C=C4.[Na]",
    "meta_data": {
        "InChI": "InChI=1S/C40H40N12O8S2.2Na/c53-61(54,55)33-25-31(43-37-45-35(41-29-7-3-1-4-8-29)47-39(49-37)51-17-21-59-22-18-51)15-13-27(33)11-12-28-14-16-32(26-34(28)62(56,57)58)44-38-46-36(42-30-9-5-2-6-10-30)48-40(50-38)52-19-23-60-24-20-52;;/h1-16,25-26H,17-24H2,(H,53,54,55)(H,56,57,58)(H2,41,43,45,47,49)(H2,42,44,46,48,50);;",
        "InChIKey": null,
        "Canonical SMILES": "[Na].O=S(=O)(O)C1=CC(=CC=C1C=CC2=CC=C(C=C2S(=O)(=O)O)NC3=NC(=NC(=N3)N4CCOCC4)NC=5C=CC=CC5)NC6=NC(=NC(=N6)N7CCOCC7)NC=8C=CC=CC8",
        "Molecular Formula": "C<sub>40</sub>H<sub>40</sub>N<sub>12</sub>O<sub>8</sub>S<sub>2</sub>.2Na",
        "Molecular Mass": "",
        "Melting Point": "&gt;270 °C"
    }
}