{
    "cas_no": "29897-82-3",
    "key_name": "1-(Phenylmethyl)pyrrolidine",
    "cn_name": "N-苄基吡咯烷;1-苄基吡咯烷;",
    "alternate_name": "Pyrrolidine, 1-(phenylmethyl)-;Pyrrolidine, 1-benzyl-;1-(Phenylmethyl)pyrrolidine;<em>N</em>-Benzylpyrrolidine;<em>N</em>-Benzyltetrahydropyrrole;1-Benzylpyrrolidine",
    "duplicated_cas_no": "",
    "SMILES": "C(C1=CC=CC=C1)N2CCCC2",
    "meta_data": {
        "InChI": "InChI=1S/C11H15N/c1-2-6-11(7-3-1)10-12-8-4-5-9-12/h1-3,6-7H,4-5,8-10H2",
        "InChIKey": null,
        "Canonical SMILES": "C=1C=CC(=CC1)CN2CCCC2",
        "Molecular Formula": "C<sub>11</sub>H<sub>15</sub>N",
        "Molecular Mass": "161.24",
        "Boiling Point": "234-236 °C",
        "Melting Point": "125.5-128.0 °C",
        "Density": "0.9627 g/cm³ @ Temp: 20 °C"
    }
}