{
    "cas_no": "341-02-6",
    "key_name": "Methylium, triphenyl-, tetrafluoroborate(1-) (1:1)",
    "cn_name": null,
    "alternate_name": "Methylium, triphenyl-, tetrafluoroborate(1-) (1:1);Tritylium, tetrafluoroborate(1-);Tritylium tetrafluoroborate;Methylium, triphenyl-, tetrafluoroborate(1-);Tritylcarbonium fluoborate;Borate(1-), tetrafluoro-, tritylium;Borate(1-), tetrafluoro-, triphenylmethylium;Triphenylmethyl tetrafluoroborate;Trityl tetrafluoroborate;Triphenylcarbonium tetrafluoroborate;Triphenylmethyl fluoroborate;Trityl fluoroborate;Triphenylmethylium tetrafluoroborate;Triphenylcarbonium tetrafluoroborate(1-);Trityl tetrafluoroborate(1-);NSC 176021",
    "duplicated_cas_no": "",
    "SMILES": "[B+3]([F-])([F-])([F-])[F-].[C+](C1=CC=CC=C1)(C2=CC=CC=C2)C3=CC=CC=C3",
    "meta_data": {
        "InChI": "InChI=1S/C19H15.BF4/c1-4-10-16(11-5-1)19(17-12-6-2-7-13-17)18-14-8-3-9-15-18;2-1(3,4)5/h1-15H;/q+1;-1",
        "InChIKey": null,
        "Canonical SMILES": "[F-][B+3]([F-])([F-])[F-].C=1C=CC(=CC1)[C+](C=2C=CC=CC2)C=3C=CC=CC3",
        "Molecular Formula": "C<sub>19</sub>H<sub>15</sub>.BF<sub>4</sub>",
        "Molecular Mass": "",
        "Melting Point": "202 °C (decomp)"
    }
}