{
    "cas_no": "104-78-9",
    "key_name": "<em>N</em>,<em>N</em>-Diethyl-1,3-propanediamine",
    "cn_name": "3-二乙胺基丙胺;DEAPA;",
    "alternate_name": "1,3-Propanediamine, <em>N</em><sup>1</sup>,<em>N</em><sup>1</sup>-diethyl-;1,3-Propanediamine, <em>N</em>,<em>N</em>-diethyl-;<em>N</em><sup>1</sup>,<em>N</em><sup>1</sup>-Diethyl-1,3-propanediamine;1-Amino-3-(diethylamino)propane;<em>N</em>-(3-Diethylaminopropyl)amine;3-(Diethylamino)propylamine;Diethylaminotrimethylenamine;<em>N</em>,<em>N</em>-Diethyl-1,3-diaminopropane;<em>N</em>,<em>N</em>-Diethyl-1,3-propanediamine;3-Diethylamino-1-propylamine;3-(<em>N</em>,<em>N</em>-Diethylamino)-1-propylamine;γ-(Diethylamino)propylamine;<em>N</em>,<em>N</em>-Diethyltrimethylenediamine;<em>N</em>,<em>N</em>-Diethyl-1,3-propylenediamine;3-(Diethylamino)-<em>n</em>-propylamine;<em>N</em>-(Diethylaminopropyl)amine;3-(Diethylamino)propanamine;3-(<em>N</em>,<em>N</em>-Diethylamino)propylamine;NSC 7776;<em>N</em>-(3-Aminopropyl)-<em>N</em>,<em>N</em>-diethylamine;<em>N</em><sup>1</sup>,<em>N</em><sup>1</sup>-Diethylpropane-1,3-diamine;<em>N</em>-(3-Aminopropyl)diethylamine;(3-Diethylaminopropan-1-yl)amine;<em>N</em>,<em>N</em>-Ethylpropane-1,3-diamine;N-Aminopropyl-N,N-diethylamine;N1,N1-Diethylpropane-1,3-diamine;3-Diethylamino-1-propaneamine",
    "duplicated_cas_no": "2056284-82-1",
    "SMILES": "N(CCCN)(CC)CC",
    "meta_data": {
        "InChI": "InChI=1S/C7H18N2/c1-3-9(4-2)7-5-6-8/h3-8H2,1-2H3",
        "InChIKey": null,
        "Canonical SMILES": "NCCCN(CC)CC",
        "Molecular Formula": "C<sub>7</sub>H<sub>18</sub>N<sub>2</sub>",
        "Molecular Mass": "130.23",
        "Boiling Point": "168.5 °C",
        "Density": "0.8283 g/cm³ @ Temp: 20 °C"
    }
}