{
    "cas_no": "879-48-1",
    "key_name": "Benzeneacetic acid, α-amino-, ethyl ester, hydrochloride (1:1)",
    "cn_name": null,
    "alternate_name": "Benzeneacetic acid, α-amino-, ethyl ester, hydrochloride (1:1);Glycine, 2-phenyl-, ethyl ester, hydrochloride;Benzeneacetic acid, α-amino-, ethyl ester, hydrochloride;Phenylglycine ethyl ester hydrochloride;<span class=\"text-smallcaps\">DL</span>-Phenylglycine ethyl ester hydrochloride;Ethyl phenylglycinate hydrochloride;NSC 24595",
    "duplicated_cas_no": "72651-17-3",
    "SMILES": "C(C(OCC)=O)(N)C1=CC=CC=C1.Cl",
    "meta_data": {
        "InChI": "InChI=1S/C10H13NO2.ClH/c1-2-13-10(12)9(11)8-6-4-3-5-7-8;/h3-7,9H,2,11H2,1H3;1H",
        "InChIKey": null,
        "Canonical SMILES": "Cl.O=C(OCC)C(N)C=1C=CC=CC1",
        "Molecular Formula": "C<sub>10</sub>H<sub>13</sub>NO<sub>2</sub>.ClH",
        "Molecular Mass": "",
        "Melting Point": "119 °C"
    }
}