{
    "cas_no": "17902-23-7",
    "key_name": "Tegafur",
    "cn_name": "替加氟;1-(四氢-2-呋喃基)-5-氟-2,4(1H,3H)-嘧啶二酮;",
    "alternate_name": "2,4(1<em>H</em>,3<em>H</em>)-Pyrimidinedione, 5-fluoro-1-(tetrahydro-2-furanyl)-;Uracil, 5-fluoro-1-(tetrahydro-2-furyl)-;5-Fluoro-1-(tetrahydro-2-furanyl)-2,4(1<em>H</em>,3<em>H</em>)-pyrimidinedione;<em>N</em><sup>1</sup>-(2-Tetrahydrofuryl)-5-fluorouracil;Fluorofur;FT 207;5-Fluoro-1-(tetrahydro-2-furyl)uracil;<em>N</em><sup>1</sup>-(2′-Tetrahydrofuryl)-5-fluorouracil;Futraful;NSC 148958;5-Fluoro-1-(2-tetrahydrofuranyl)uracil;1-(Tetrahydro-2-furanyl)-5-fluorouracil;Tegafur;5-Fluoro-1-(tetrahydro-2-furanyl)-2,4-pyrimidinedione;1-(Tetrahydro-2-furanyl)-5-fluoro-2,4-pyrimidinedione;Fluaid;Ftorafur;Fluorafur;1-(2-Tetrahydrofuryl)-5-fluorouracil;<em>N</em><sup>1</sup>-(2-Tetrahydrofuranyl)-5-fluorouracil;5-Fluoro-1-(tetrahydro-2′-furyl)uracil;Racemic Ftorafur;Furofutran;Riol;Fulaid;Citofur;Lamar;Coparogin;Fulfeel;Neberk;Furafluor;Fental;Sinoflurol;MJF 12264;Nitobanil;Exonal;Franrose;Lifril;Tefsiel C;Sunfural;5-FU (TS 1);Utefos;MeSH ID: D005641",
    "duplicated_cas_no": "35959-67-2;37308-51-3;56767-38-5;65732-47-0;73120-84-0;79107-97-4",
    "SMILES": "O=C1N(C=C(F)C(=O)N1)C2CCCO2",
    "meta_data": {
        "InChI": "InChI=1S/C8H9FN2O3/c9-5-4-11(6-2-1-3-14-6)8(13)10-7(5)12/h4,6H,1-3H2,(H,10,12,13)",
        "InChIKey": null,
        "Canonical SMILES": "O=C1NC(=O)N(C=C1F)C2OCCC2",
        "Molecular Formula": "C<sub>8</sub>H<sub>9</sub>FN<sub>2</sub>O<sub>3</sub>",
        "Molecular Mass": "200.17",
        "Melting Point": "171-173 °C",
        "Density": "1.51 g/cm³"
    }
}