{
    "cas_no": "16940-81-1",
    "key_name": "Hexafluorophosphoric acid",
    "cn_name": "六氟磷酸;",
    "alternate_name": "Phosphate(1-), hexafluoro-, hydrogen (1:1);Hexafluorophosphoric acid;Hydrogen hexafluorophosphate;Phosphate(1-), hexafluoro-, hydrogen;Hydrogen hexafluorophosphate(1-);Hydrogen hexafluorophosphate (HPF<sub>6</sub>)",
    "duplicated_cas_no": "19214-61-0;59219-13-5;72974-14-2;86921-26-8;114675-70-6;118127-10-9;180724-56-5;410090-11-8;939426-00-3;957554-49-3;1079857-79-6;2058731-47-6;2762446-87-5",
    "SMILES": "[P+5]([F-])([F-])([F-])([F-])([F-])[F-].[H+]",
    "meta_data": {
        "InChI": "InChI=1S/F6P/c1-7(2,3,4,5)6/q-1/p+1",
        "InChIKey": null,
        "Canonical SMILES": "[H+].[F-][P+5]([F-])([F-])([F-])([F-])[F-]",
        "Molecular Formula": "F<sub>6</sub>P.H",
        "Molecular Mass": "",
        "Melting Point": "128-130 °C (decomp)",
        "Density": "1.75 g/cm³"
    }
}