{
    "cas_no": "86-92-0",
    "key_name": "1-<em>p</em>-Tolyl-3-methyl-5-pyrazolone",
    "cn_name": "1-(4-甲基苯基)-3-甲基-5-吡唑啉酮;",
    "alternate_name": "3<em>H</em>-Pyrazol-3-one, 2,4-dihydro-5-methyl-2-(4-methylphenyl)-;2-Pyrazolin-5-one, 3-methyl-1-<em>p</em>-tolyl-;2,4-Dihydro-5-methyl-2-(4-methylphenyl)-3<em>H</em>-pyrazol-3-one;1-(<em>p</em>-Tolyl)-3-methylpyrazolone-5;3-Methyl-1-(<em>p</em>-tolyl)-2-pyrazolin-5-one;3-Methyl-1-<em>p</em>-tolyl-5-pyrazolone;3-Methyl-1-(4-methylphenyl)-5-pyrazolone;3-Methyl-1-(4-methylphenyl)-2-pyrazolin-5-one;1-<em>p</em>-Tolyl-3-methyl-5-pyrazolone;3-Methyl-1-(4-methylphenyl)-4,5-dihydro-1<em>H</em>-pyrazol-5-one",
    "duplicated_cas_no": "",
    "SMILES": "O=C1N(N=C(C)C1)C2=CC=C(C)C=C2",
    "meta_data": {
        "InChI": "InChI=1S/C11H12N2O/c1-8-3-5-10(6-4-8)13-11(14)7-9(2)12-13/h3-6H,7H2,1-2H3",
        "InChIKey": null,
        "Canonical SMILES": "O=C1N(N=C(C)C1)C2=CC=C(C=C2)C",
        "Molecular Formula": "C<sub>11</sub>H<sub>12</sub>N<sub>2</sub>O",
        "Molecular Mass": "188.23",
        "Melting Point": "132-134 °C"
    }
}