{
    "cas_no": "2627-27-2",
    "key_name": "3-Phenylpropyl isothiocyanate",
    "cn_name": "3-苯基丙基硫代异氰酸酯;",
    "alternate_name": "Benzene, (3-isothiocyanatopropyl)-;Isothiocyanic acid, 3-phenylpropyl ester;(3-Isothiocyanatopropyl)benzene;Phenylpropyl mustard oil;3-Phenylpropyl isothiocyanate",
    "duplicated_cas_no": "",
    "SMILES": "C(CCN=C=S)C1=CC=CC=C1",
    "meta_data": {
        "InChI": "InChI=1S/C10H11NS/c12-9-11-8-4-7-10-5-2-1-3-6-10/h1-3,5-6H,4,7-8H2",
        "InChIKey": null,
        "Canonical SMILES": "S=C=NCCCC=1C=CC=CC1",
        "Molecular Formula": "C<sub>10</sub>H<sub>11</sub>NS",
        "Molecular Mass": "177.27",
        "Boiling Point": "130 °C @ Press: 2 Torr"
    }
}