{
    "cas_no": "70588-06-6",
    "key_name": "Chrysoobtusin",
    "cn_name": null,
    "alternate_name": "9,10-Anthracenedione, 2-hydroxy-1,6,7,8-tetramethoxy-3-methyl-;Anthraquinone, 2-hydroxy-1,6,7,8-tetramethoxy-3-methyl-;2-Hydroxy-1,6,7,8-tetramethoxy-3-methyl-9,10-anthracenedione;Chrysoobtusin;2-Hydroxy-1,6,7,8-tetramethoxy-3-methylanthraquinone",
    "duplicated_cas_no": "",
    "SMILES": "O(C)C1=C2C(C(=O)C=3C(C2=O)=C(OC)C(O)=C(C)C3)=CC(OC)=C1OC",
    "meta_data": {
        "InChI": "InChI=1S/C19H18O7/c1-8-6-9-12(18(25-4)14(8)20)16(22)13-10(15(9)21)7-11(23-2)17(24-3)19(13)26-5/h6-7,20H,1-5H3",
        "InChIKey": null,
        "Canonical SMILES": "O=C1C2=CC(OC)=C(OC)C(OC)=C2C(=O)C=3C(OC)=C(O)C(=CC13)C",
        "Molecular Formula": "C<sub>19</sub>H<sub>18</sub>O<sub>7</sub>",
        "Molecular Mass": "358.34",
        "Melting Point": "214-215 °C"
    }
}