{
    "cas_no": "67478-47-1",
    "key_name": "2-Bromo-1-(triphenylmethyl)-1<em>H</em>-imidazole",
    "cn_name": "2-溴-1-三苯甲基-1H-咪唑;",
    "alternate_name": "1<em>H</em>-Imidazole, 2-bromo-1-(triphenylmethyl)-;2-Bromo-1-(triphenylmethyl)-1<em>H</em>-imidazole;2-Bromo-1-trityl-1<em>H</em>-imidazole;2-Bromo-1-tritylimidazole",
    "duplicated_cas_no": "",
    "SMILES": "C(N1C(Br)=NC=C1)(C2=CC=CC=C2)(C3=CC=CC=C3)C4=CC=CC=C4",
    "meta_data": {
        "InChI": "InChI=1S/C22H17BrN2/c23-21-24-16-17-25(21)22(18-10-4-1-5-11-18,19-12-6-2-7-13-19)20-14-8-3-9-15-20/h1-17H",
        "InChIKey": null,
        "Canonical SMILES": "BrC1=NC=CN1C(C=2C=CC=CC2)(C=3C=CC=CC3)C=4C=CC=CC4",
        "Molecular Formula": "C<sub>22</sub>H<sub>17</sub>BrN<sub>2</sub>",
        "Molecular Mass": "389.29",
        "Melting Point": "208-209 °C"
    }
}