{
    "cas_no": "1310-82-3",
    "key_name": "Rubidium hydroxide",
    "cn_name": "氢氧化铷;",
    "alternate_name": "Rubidium hydroxide (Rb(OH));Rubidium hydroxide",
    "duplicated_cas_no": "",
    "SMILES": "O[Rb]",
    "meta_data": {
        "InChI": "InChI=1S/H2O.Rb/h1H2;/q;+1/p-1",
        "InChIKey": null,
        "Canonical SMILES": "[Rb]O",
        "Molecular Formula": "HORb",
        "Molecular Mass": "",
        "Melting Point": "301 °C",
        "Density": "1.0058 g/cm³ @ Temp: 25 °C"
    }
}