{
    "cas_no": "866823-73-6",
    "key_name": "Biphenyl indanone A",
    "cn_name": null,
    "alternate_name": "[1,1′-Biphenyl]-4-carboxylic acid, 3′-[[(2-cyclopentyl-2,3-dihydro-6,7-dimethyl-1-oxo-1<em>H</em>-inden-5-yl)oxy]methyl]-;3′-[[(2-Cyclopentyl-2,3-dihydro-6,7-dimethyl-1-oxo-1<em>H</em>-inden-5-yl)oxy]methyl][1,1′-biphenyl]-4-carboxylic acid;3′-[[(2-Cyclopentyl-6,7-dimethyl-1-oxo-2,3-dihydro-1<em>H</em>-inden-5-yl)oxy]methyl]biphenyl-4-carboxylic acid;MRLSD 230;Biphenyl indanone A;3′-(((2-Cyclopentyl-6,7-dimethyl-1-oxo-2,3-dihydro-1<em>H</em>-inden-5-yl)oxy)methyl)-[1,1′-biphenyl]-4-carboxylic acid;BINA (drug);BINA",
    "duplicated_cas_no": "",
    "SMILES": "O=C1C=2C(CC1C3CCCC3)=CC(OCC4=CC(=CC=C4)C5=CC=C(C(O)=O)C=C5)=C(C)C2C",
    "meta_data": {
        "InChI": "InChI=1S/C30H30O4/c1-18-19(2)28-25(15-26(29(28)31)22-7-3-4-8-22)16-27(18)34-17-20-6-5-9-24(14-20)21-10-12-23(13-11-21)30(32)33/h5-6,9-14,16,22,26H,3-4,7-8,15,17H2,1-2H3,(H,32,33)",
        "InChIKey": null,
        "Canonical SMILES": "O=C(O)C1=CC=C(C=C1)C=2C=CC=C(C2)COC=3C=C4C(C(=O)C(C4)C5CCCC5)=C(C3C)C",
        "Molecular Formula": "C<sub>30</sub>H<sub>30</sub>O<sub>4</sub>",
        "Molecular Mass": "454.56",
        "Melting Point": "238-241 °C"
    }
}