{
    "cas_no": "71449-78-0",
    "key_name": "Sulfonium, diphenyl[4-(phenylthio)phenyl]-, (<em>OC</em>-6-11)-hexafluoroantimonate(1-) (1:1)",
    "cn_name": "二苯基-(4-苯基硫)苯基锍六氟锑酸盐;",
    "alternate_name": "Sulfonium, diphenyl[4-(phenylthio)phenyl]-, (<em>OC</em>-6-11)-hexafluoroantimonate(1-) (1:1);Sulfonium, diphenyl[4-(phenylthio)phenyl]-, hexafluoroantimonate(1-);Sulfonium, diphenyl[4-(phenylthio)phenyl]-, (<em>OC</em>-6-11)-hexafluoroantimonate(1-);Antimonate(1-), hexafluoro-, diphenyl[4-(phenylthio)phenyl]sulfonium;Antimonate(1-), hexafluoro-, (<em>OC</em>-6-11)-, diphenyl[4-(phenylthio)phenyl]sulfonium;(<em>p</em>-Thiophenoxyphenyl)diphenylsulfonium hexafluoroantimonate;Diphenyl(<em>p</em>-thiophenoxyphenyl)sulfonium hexafluoroantimonate;Diphenyl[<em>p</em>-(phenylthio)phenyl]sulfonium hexafluoroantimonate;Diphenyl(4-phenylthiophenyl)sulfonium hexafluoroantimonate;<em>S</em>,<em>S</em>-Diphenyl-<em>S</em>-4-thiophenoxyphenylsulfoniumhexafluoroantimonate;4-(Phenylthio)phenyldiphenylsulfonium hexafluoroantimonate;(4-Thiophenoxyphenyl)diphenylsulfonium hexafluoroantimonate;DTS 103;CPI 100A;CPI 110A;CPI 101A;PAG 201;Aceto PI 6976;Photoinitiator 6976;UV 6976;Easepi 6976;PAG 002",
    "duplicated_cas_no": "1003840-00-3;1333484-00-6;2252492-63-8;2761877-74-9",
    "SMILES": "[S+](C1=CC=C(SC2=CC=CC=C2)C=C1)(C3=CC=CC=C3)C4=CC=CC=C4.[Sb+5]([F-])([F-])([F-])([F-])([F-])[F-]",
    "meta_data": {
        "InChI": "InChI=1S/C24H19S2.6FH.Sb/c1-4-10-20(11-5-1)25-21-16-18-24(19-17-21)26(22-12-6-2-7-13-22)23-14-8-3-9-15-23;;;;;;;/h1-19H;6*1H;/q+1;;;;;;;+5/p-6",
        "InChIKey": null,
        "Canonical SMILES": "[F-][Sb+5]([F-])([F-])([F-])([F-])[F-].S(C=1C=CC=CC1)C2=CC=C(C=C2)[S+](C=3C=CC=CC3)C=4C=CC=CC4",
        "Molecular Formula": "C<sub>24</sub>H<sub>19</sub>S<sub>2</sub>.F<sub>6</sub>Sb",
        "Molecular Mass": "",
        "Melting Point": "118-119 °C"
    }
}