{
    "cas_no": "124-87-8",
    "key_name": "Picrotoxin",
    "cn_name": "苦毒浆果[木防已属];",
    "alternate_name": "3,6-Methano-8<em>H</em>-1,5,7-trioxacyclopenta[<em>ij</em>]cycloprop[<em>a</em>]azulene-4,8(3<em>H</em>)-dione, hexahydro-2a-hydroxy-9-(1-hydroxy-1-methylethyl)-8b-methyl-, (1a<em>R</em>,2a<em>R</em>,3<em>S</em>,6<em>R</em>,6a<em>S</em>,8a<em>S</em>,8b<em>R</em>,9<em>S</em>)-, compd. with (1a<em>R</em>,2a<em>R</em>,3<em>S</em>,6<em>R</em>,6a<em>S</em>,8a<em>S</em>,8b<em>R</em>,9<em>R</em>)-hexahydro-2a-hydroxy-8b-methyl-9-(1-methylethenyl)-3,6-methano-8<em>H</em>-1,5,7-trioxacyclopenta[<em>ij</em>]cycloprop[<em>a</em>]azulene-4,8(3<em>H</em>)-dione (1:1);3,6-Methano-8<em>H</em>-1,5,7-trioxacyclopenta[<em>ij</em>]cycloprop[<em>a</em>]azulene-4,8(3<em>H</em>)-dione, hexahydro-2a-hydroxy-9-(1-hydroxy-1-methylethyl)-8b-methyl-, [1a<em>R</em>-(1aα,2aβ,3β,6β,6aβ,8a<em>S</em>*,8bβ,9<em>S</em>*)]-, compd. with [1a<em>R</em>-(1aα,2aβ,3β,6β,6aβ,8a<em>S</em>*,8bβ,9<em>R</em>*)]-hexahydro-2a-hydroxy-8b-methyl-9-(1-methylethenyl)-3,6-methano-8<em>H</em>-1,5,7-trioxacyclopenta[<em>ij</em>]cycloprop[<em>a</em>]azulene-4,8(3<em>H</em>)-dione (1:1);3,6-Methano-8<em>H</em>-1,5,7-trioxacyclopenta[<em>ij</em>]cycloprop[<em>a</em>]azulene-4,8(3<em>H</em>)-dione, hexahydro-2a-hydroxy-8b-methyl-9-(1-methylethenyl)-, [1a<em>R</em>-(1aα,2aβ,3β,6β,6aβ,8a<em>S</em>*,8bβ,9<em>R</em>*)]-, compd. with [1a<em>R</em>-(1aα,2aβ,3β,6β,6aβ,8a<em>S</em>*,8bβ,9<em>S</em>*)]-hexahydro-2a-hydroxy-9-(1-hydroxy-1-methylethyl)-8b-methyl-3,6-methano-8<em>H</em>-1,5,7-trioxacyclopenta[<em>ij</em>]cycloprop[<em>a</em>]azulene-4,8(3<em>H</em>)-dione (1:1);3,6-Methano-8<em>H</em>-1,5,7-trioxacyclopenta[<em>ij</em>]cycloprop[<em>a</em>]azulene-4,8(3<em>H</em>)-dione, hexahydro-2a-hydroxy-8b-methyl-9-(1-methylethenyl)-, (1a<em>R</em>,2a<em>R</em>,3<em>S</em>,6<em>R</em>,6a<em>S</em>,8a<em>S</em>,8b<em>R</em>,9<em>R</em>)-, compd. with (1a<em>R</em>,2a<em>R</em>,3<em>S</em>,6<em>R</em>,6a<em>S</em>,8a<em>S</em>,8b<em>R</em>,9<em>S</em>)-hexahydro-2a-hydroxy-9-(1-hydroxy-1-methylethyl)-8b-methyl-3,6-methano-8<em>H</em>-1,5,7-trioxacyclopenta[<em>ij</em>]cycloprop[<em>a</em>]azulene-4,8(3<em>H</em>)-dione (1:1);Cocculin;Picrotoxin;Fish berry;NSC 403139;Picrotoxinum;MeSH ID: D010852",
    "duplicated_cas_no": "11031-20-2",
    "SMILES": "C[C@]12[C@@]34[C@](O3)(C[C@@]1(O)[C@@]5([C@H]([C@](C)(C)O)[C@]([C@]2(OC4=O)[H])(OC5=O)[H])[H])[H].C[C@]12[C@@]34[C@](O3)(C[C@@]1(O)[C@@]5([C@H](C(C)=C)[C@]([C@]2(OC4=O)[H])(OC5=O)[H])[H])[H]",
    "meta_data": {
        "InChI": "InChI=1S/C15H18O7.C15H16O6/c1-12(2,18)6-7-10(16)20-8(6)9-13(3)14(7,19)4-5-15(13,22-5)11(17)21-9;1-5(2)7-8-11(16)19-9(7)10-13(3)14(8,18)4-6-15(13,21-6)12(17)20-10/h5-9,18-19H,4H2,1-3H3;6-10,18H,1,4H2,2-3H3/t5-,6+,7-,8-,9-,13-,14-,15+;6-,7+,8-,9-,10-,13-,14-,15+/m11/s1",
        "InChIKey": null,
        "Canonical SMILES": "O=C1OC2C3OC(=O)C45OC5CC(O)(C1C2C(=C)C)C34C.O=C1OC2C3OC(=O)C45OC5CC(O)(C1C2C(O)(C)C)C34C",
        "Molecular Formula": "C<sub>15</sub>H<sub>18</sub>O<sub>7</sub>.C<sub>15</sub>H<sub>16</sub>O<sub>6</sub>",
        "Molecular Mass": "",
        "Melting Point": "203 °C"
    }
}