{
    "cas_no": "1117-61-9",
    "key_name": "(+)-Citronellol",
    "cn_name": "(R)-(+)-β-香茅醇;D-香茅醇;(R)-3,7-二甲基-6-辛烯醇;",
    "alternate_name": "6-Octen-1-ol, 3,7-dimethyl-, (3<em>R</em>)-;6-Octen-1-ol, 3,7-dimethyl-, (<em>R</em>)-(+)-;6-Octen-1-ol, 3,7-dimethyl-, (<em>R</em>)-;(3<em>R</em>)-3,7-Dimethyl-6-octen-1-ol;(+)-Citronellol;<span class=\"text-smallcaps\">D</span>-Citronellol;(<em>R</em>)-Citronellol;(<em>R</em>)-(+)-Citronellol;<em>d</em>-Citronellol;(<em>R</em>)-(+)-β-Citronellol;(+)-(<em>R</em>)-Citronellol;(+)-β-Citronellol;(<em>R</em>)-β-Citronellol;(<em>R</em>)-(+)-3,7-Dimethyl-6-octen-1-ol;(<em>R</em>)-3,7-Dimethyl-6-octen-1-ol;(3<em>R</em>)-(+)-β-Citronellol;(R)-3,7-Dimethyl-6-octen-1-ol;(3R)-3,7-Dimethyloct-6-en-1-ol",
    "duplicated_cas_no": "",
    "SMILES": "[C@@H](CCC=C(C)C)(CCO)C",
    "meta_data": {
        "InChI": "InChI=1S/C10H20O/c1-9(2)5-4-6-10(3)7-8-11/h5,10-11H,4,6-8H2,1-3H3/t10-/m1/s1",
        "InChIKey": null,
        "Canonical SMILES": "OCCC(C)CCC=C(C)C",
        "Molecular Formula": "C<sub>10</sub>H<sub>20</sub>O",
        "Molecular Mass": "156.27",
        "Boiling Point": "110 °C @ Press: 10 Torr",
        "Melting Point": "225-226 °C",
        "Density": "0.8568 g/cm³ @ Temp: 20 °C"
    }
}