{
    "cas_no": "937-62-2",
    "key_name": "Carbonochloridic acid, 4-methylphenyl ester",
    "cn_name": "氯甲酸对甲苯;氯甲酸对甲苯酯;",
    "alternate_name": "Carbonochloridic acid, 4-methylphenyl ester;Formic acid, chloro-, <em>p</em>-tolyl ester;Chloroformic acid <em>p</em>-tolyl ester;<em>p</em>-Tolyl chloroformate;<em>p</em>-Methylphenyl chlorocarbonate;<em>p</em>-Methylphenyl chloroformate;4-Methylphenyl chloroformate;<em>p</em>-Methylphenoxycarbonyl chloride;4-Tolyl chloroformate;<em>p</em>-Tolyl carbonochloridate;4-Methylphenyl carbonochloridate",
    "duplicated_cas_no": "391912-50-8",
    "SMILES": "O(C(Cl)=O)C1=CC=C(C)C=C1",
    "meta_data": {
        "InChI": "InChI=1S/C8H7ClO2/c1-6-2-4-7(5-3-6)11-8(9)10/h2-5H,1H3",
        "InChIKey": null,
        "Canonical SMILES": "O=C(Cl)OC1=CC=C(C=C1)C",
        "Molecular Formula": "C<sub>8</sub>H<sub>7</sub>ClO<sub>2</sub>",
        "Molecular Mass": "170.59",
        "Boiling Point": "108 °C @ Press: 10 Torr"
    }
}