{
    "cas_no": "56961-75-2",
    "key_name": "2,3,5-Trichlorobenzaldehyde",
    "cn_name": "2,3,5-三氯苯甲醛;",
    "alternate_name": "Benzaldehyde, 2,3,5-trichloro-;2,3,5-Trichlorobenzaldehyde",
    "duplicated_cas_no": "",
    "SMILES": "C(=O)C1=C(Cl)C(Cl)=CC(Cl)=C1",
    "meta_data": {
        "InChI": "InChI=1S/C7H3Cl3O/c8-5-1-4(3-11)7(10)6(9)2-5/h1-3H",
        "InChIKey": null,
        "Canonical SMILES": "O=CC=1C=C(Cl)C=C(Cl)C1Cl",
        "Molecular Formula": "C<sub>7</sub>H<sub>3</sub>Cl<sub>3</sub>O",
        "Molecular Mass": "209.46",
        "Melting Point": "56 °C"
    }
}