{
    "cas_no": "110543-98-1",
    "key_name": "Ethyl 5-(acetyloxy)-6-bromo-2-(bromomethyl)-1-methyl-1<em>H</em>-indole-3-carboxylate",
    "cn_name": "5-乙酰氧基-6-溴-2-溴甲基-1-甲基吲哚-3-甲酸乙酯;",
    "alternate_name": "1<em>H</em>-Indole-3-carboxylic acid, 5-(acetyloxy)-6-bromo-2-(bromomethyl)-1-methyl-, ethyl ester;Ethyl 5-(acetyloxy)-6-bromo-2-(bromomethyl)-1-methyl-1<em>H</em>-indole-3-carboxylate",
    "duplicated_cas_no": "",
    "SMILES": "C(OCC)(=O)C=1C=2C(N(C)C1CBr)=CC(Br)=C(OC(C)=O)C2",
    "meta_data": {
        "InChI": "InChI=1S/C15H15Br2NO4/c1-4-21-15(20)14-9-5-13(22-8(2)19)10(17)6-11(9)18(3)12(14)7-16/h5-6H,4,7H2,1-3H3",
        "InChIKey": null,
        "Canonical SMILES": "O=C(OCC)C=1C=2C=C(OC(=O)C)C(Br)=CC2N(C1CBr)C",
        "Molecular Formula": "C<sub>15</sub>H<sub>15</sub>Br<sub>2</sub>NO<sub>4</sub>",
        "Molecular Mass": "433.09",
        "Melting Point": "168-171 °C"
    }
}