{
    "cas_no": "50461-74-0",
    "key_name": "Ethyl 2-oxopentanoate",
    "cn_name": "2-氧代戊酸乙酯;",
    "alternate_name": "Pentanoic acid, 2-oxo-, ethyl ester;Valeric acid, 2-oxo-, ethyl ester;Ethyl 2-oxopentanoate;2-Oxopentanoic acid ethyl ester",
    "duplicated_cas_no": "",
    "SMILES": "C(C(OCC)=O)(CCC)=O",
    "meta_data": {
        "InChI": "InChI=1S/C7H12O3/c1-3-5-6(8)7(9)10-4-2/h3-5H2,1-2H3",
        "InChIKey": null,
        "Canonical SMILES": "O=C(OCC)C(=O)CCC",
        "Molecular Formula": "C<sub>7</sub>H<sub>12</sub>O<sub>3</sub>",
        "Molecular Mass": "144.17",
        "Boiling Point": "182.5 °C",
        "Density": "0.9965 g/cm³ @ Temp: 18 °C"
    }
}