{
    "cas_no": "57-37-4",
    "key_name": "Benactyzine hydrochloride",
    "cn_name": "乙胺痉平;",
    "alternate_name": "Benzeneacetic acid, α-hydroxy-α-phenyl-, 2-(diethylamino)ethyl ester, hydrochloride (1:1);Benzilic acid, 2-(diethylamino)ethyl ester hydrochloride;Benzeneacetic acid, α-hydroxy-α-phenyl-, 2-(diethylamino)ethyl ester, hydrochloride;Ethanol, 2-diethylamino-, benzilate-HCl;AY 5406-1;Amisyl;Amizyl;Amyzyl;Benactyzine hydrochloride;Cafron;Cevanol;β-Diethylaminoethyl benzilate hydrochloride;2-Diethylaminoethyl benzilate hydrochloride;2-Diethylaminoethyl diphenylglycolate hydrochloride;Lucidil;Nervacton;Nutinal;Parasan;Parpon;Phobex;Suavitil;Amizil;Benactyzine chloride;Aktozin;Amitakon;Arkadin;Benaktin;Valladon;Katron;Leucidil;Neuraktil;Neurobenzil;Nervatil;Parazan;Prokalm;Stoikon;Tranquillin;Fobex;Cedad;AY 5406;Destendo;Valladan;Procalm;Win 5606;Ibiotyzil;Arcadine;Neuroleptone;Actozine",
    "duplicated_cas_no": "2702-56-9",
    "SMILES": "C(C(OCCN(CC)CC)=O)(O)(C1=CC=CC=C1)C2=CC=CC=C2.Cl",
    "meta_data": {
        "InChI": "InChI=1S/C20H25NO3.ClH/c1-3-21(4-2)15-16-24-19(22)20(23,17-11-7-5-8-12-17)18-13-9-6-10-14-18;/h5-14,23H,3-4,15-16H2,1-2H3;1H",
        "InChIKey": null,
        "Canonical SMILES": "Cl.O=C(OCCN(CC)CC)C(O)(C=1C=CC=CC1)C=2C=CC=CC2",
        "Molecular Formula": "C<sub>20</sub>H<sub>25</sub>NO<sub>3</sub>.ClH",
        "Molecular Mass": "",
        "Melting Point": "177-178 °C"
    }
}