{
    "cas_no": "2915-90-4",
    "key_name": "<em>N</em>-Dodecyl-<em>N</em>-methyl-1-dodecanamine",
    "cn_name": "N,N-二十二烷基甲基胺;",
    "alternate_name": "1-Dodecanamine, <em>N</em>-dodecyl-<em>N</em>-methyl-;Didodecylamine, <em>N</em>-methyl-;<em>N</em>-Dodecyl-<em>N</em>-methyl-1-dodecanamine;Methyldidodecylamine;Didodecylmethylamine;<em>N</em>,<em>N</em>-Didodecylmethylamine;<em>N</em>-Methyldidodecylamine;Dilaurylmethylamine;<em>N</em>-Methyl-<em>N</em>,<em>N</em>-didodecylamine;Farmin M<sub>2</sub> 20;Dilaurylmonomethylamine;Farmin M 2-2095;<em>N</em>,<em>N</em>-Didodecyl-<em>N</em>-methylamine;<em>N</em>-Dodecyl-<em>N</em>-methyldodecan-1-amine",
    "duplicated_cas_no": "",
    "SMILES": "N(CCCCCCCCCCCC)(CCCCCCCCCCCC)C",
    "meta_data": {
        "InChI": "InChI=1S/C25H53N/c1-4-6-8-10-12-14-16-18-20-22-24-26(3)25-23-21-19-17-15-13-11-9-7-5-2/h4-25H2,1-3H3",
        "InChIKey": null,
        "Canonical SMILES": "N(C)(CCCCCCCCCCCC)CCCCCCCCCCCC",
        "Molecular Formula": "C<sub>25</sub>H<sub>53</sub>N",
        "Molecular Mass": "367.70",
        "Boiling Point": "201 °C",
        "Melting Point": "15-16 °C"
    }
}