{
    "cas_no": "52431-78-4",
    "key_name": "1,2-Dihydro-1-(4-hydroxyphenyl)-5<em>H</em>-tetrazole-5-thione",
    "cn_name": "1-(4-羟基苯基)-5-巯基-四氮唑;",
    "alternate_name": "5<em>H</em>-Tetrazole-5-thione, 1,2-dihydro-1-(4-hydroxyphenyl)-;1,2-Dihydro-1-(4-hydroxyphenyl)-5<em>H</em>-tetrazole-5-thione;ORWO-OB 1209;1-(4-Hydroxyphenyl)-1<em>H</em>-tetrazole-5-thiol;4-(5-Mercaptotetrazol-1-yl)phenol;1-(4-Hydroxyphenyl)-5-mercaptotetrazole;4-Hydroxy-PMT;1-(4-Hydroxyphenyl)-2<em>H</em>-tetrazole-5-thione;1-(4-Hydroxyphenyl)-4,5-dihydro-1<em>H</em>-1,2,3,4-tetrazole-5-thione;4-(5-Sulfanyl-1<em>H</em>-1,2,3,4-tetrazol-1-yl)phenol;4-(5-Mercapto-1<em>H</em>-tetrazol-1-yl)phenol",
    "duplicated_cas_no": "",
    "SMILES": "S=C1N(N=NN1)C2=CC=C(O)C=C2",
    "meta_data": {
        "InChI": "InChI=1S/C7H6N4OS/c12-6-3-1-5(2-4-6)11-7(13)8-9-10-11/h1-4,12H,(H,8,10,13)",
        "InChIKey": null,
        "Canonical SMILES": "S=C1NN=NN1C2=CC=C(O)C=C2",
        "Molecular Formula": "C<sub>7</sub>H<sub>6</sub>N<sub>4</sub>OS",
        "Molecular Mass": "194.21",
        "Melting Point": "160 °C"
    }
}