{
    "cas_no": "68302-57-8",
    "key_name": "Amlexanox",
    "cn_name": null,
    "alternate_name": "5<em>H</em>-[1]Benzopyrano[2,3-<em>b</em>]pyridine-3-carboxylic acid, 2-amino-7-(1-methylethyl)-5-oxo-;2-Amino-7-(1-methylethyl)-5-oxo-5<em>H</em>-[1]benzopyrano[2,3-<em>b</em>]pyridine-3-carboxylic acid;AA 673;Amoxanox;Amlexanox;Elics;CHX 3673;Solfa;Aphtheal;Aphthasol;2-Amino-5-oxo-7-propan-2-ylchromeno[2,3-<em>b</em>]pyridine-3-carboxylic acid;2-Amino-7-isopropyl-5-oxo-5<em>H</em>-chromeno[2,3-<em>b</em>]pyridine-3-carboxylicacid",
    "duplicated_cas_no": "",
    "SMILES": "O=C1C=2C(OC=3C1=CC(C(C)C)=CC3)=NC(N)=C(C(O)=O)C2",
    "meta_data": {
        "InChI": "InChI=1S/C16H14N2O4/c1-7(2)8-3-4-12-9(5-8)13(19)10-6-11(16(20)21)14(17)18-15(10)22-12/h3-7H,1-2H3,(H2,17,18)(H,20,21)",
        "InChIKey": null,
        "Canonical SMILES": "O=C(O)C1=CC=2C(=O)C3=CC(=CC=C3OC2N=C1N)C(C)C",
        "Molecular Formula": "C<sub>16</sub>H<sub>14</sub>N<sub>2</sub>O<sub>4</sub>",
        "Molecular Mass": "298.29",
        "Melting Point": "&gt;300 °C"
    }
}