{
    "cas_no": "90-04-0",
    "key_name": "2-Methoxyaniline",
    "cn_name": "邻甲氧基苯胺;邻氨基苯甲醚;",
    "alternate_name": "Benzenamine, 2-methoxy-;<em>o</em>-Anisidine;2-Methoxybenzenamine;<em>o</em>-Aminoanisole;2-Aminoanisole;2-Methoxyaniline;<em>o</em>-Methoxyaniline;<em>o</em>-Methoxyphenylamine;1-Amino-2-methoxybenzene;2-Methoxy-1-aminobenzene;<em>o</em>-Aminomethoxybenzene;2-Methoxyphenylamine;2-Aminomethoxybenzene;NSC 3122;<em>o</em>-Anisidin",
    "duplicated_cas_no": "",
    "SMILES": "O(C)C1=C(N)C=CC=C1",
    "meta_data": {
        "InChI": "InChI=1S/C7H9NO/c1-9-7-5-3-2-4-6(7)8/h2-5H,8H2,1H3",
        "InChIKey": null,
        "Canonical SMILES": "O(C=1C=CC=CC1N)C",
        "Molecular Formula": "C<sub>7</sub>H<sub>9</sub>NO",
        "Molecular Mass": "123.15",
        "Boiling Point": "225 °C",
        "Melting Point": "5 °C",
        "Density": "1.098 g/cm³ @ Temp: 15 °C"
    }
}