{
    "cas_no": "165534-43-0",
    "key_name": "Diethyl 4-oxo-1,2,3-benzotriazin-3-yl phosphate",
    "cn_name": "DEPBT;3-(二乙氧基磷酰氧基)-1,2,3-苯并三嗪-4-酮;",
    "alternate_name": "Phosphoric acid, diethyl 4-oxo-1,2,3-benzotriazin-3-yl ester;1,2,3-Benzotriazin-4(3<em>H</em>)-one, 3-[(diethoxyphosphinyl)oxy]-;Diethyl 4-oxo-1,2,3-benzotriazin-3-yl phosphate;DEPBT;3-(Diethoxyphosphoryloxy)-1,2,3-benzotriazin-4(3<em>H</em>)-one;3-[(Diethoxyphosphinyl)oxy]-1,2,3-benzotriazin-4(3<em>H</em>)-one",
    "duplicated_cas_no": "",
    "SMILES": "O=C1C=2C(N=NN1OP(OCC)(OCC)=O)=CC=CC2",
    "meta_data": {
        "InChI": "InChI=1S/C11H14N3O5P/c1-3-17-20(16,18-4-2)19-14-11(15)9-7-5-6-8-10(9)12-13-14/h5-8H,3-4H2,1-2H3",
        "InChIKey": null,
        "Canonical SMILES": "O=C1C=2C=CC=CC2N=NN1OP(=O)(OCC)OCC",
        "Molecular Formula": "C<sub>11</sub>H<sub>14</sub>N<sub>3</sub>O<sub>5</sub>P",
        "Molecular Mass": "299.22",
        "Melting Point": "72-74 °C"
    }
}