{
    "cas_no": "13339-01-0",
    "key_name": "1-(2-Ethoxyphenyl)piperazine",
    "cn_name": null,
    "alternate_name": "Piperazine, 1-(2-ethoxyphenyl)-;Piperazine, 1-(<em>o</em>-ethoxyphenyl)-;1-(2-Ethoxyphenyl)piperazine;1-(<em>o</em>-Ethoxyphenyl)piperazine;4-(2-Ethoxyphenyl)piperazine;4-(2-Ethoxyphenyl)-1-piperazine;<em>N</em>-(2-Ethoxyphenyl)piperazine",
    "duplicated_cas_no": "",
    "SMILES": "O(CC)C1=C(C=CC=C1)N2CCNCC2",
    "meta_data": {
        "InChI": "InChI=1S/C12H18N2O/c1-2-15-12-6-4-3-5-11(12)14-9-7-13-8-10-14/h3-6,13H,2,7-10H2,1H3",
        "InChIKey": null,
        "Canonical SMILES": "O(C=1C=CC=CC1N2CCNCC2)CC",
        "Molecular Formula": "C<sub>12</sub>H<sub>18</sub>N<sub>2</sub>O",
        "Molecular Mass": "206.28",
        "Boiling Point": "112-114 °C @ Press: 0.08 Torr"
    }
}