{
    "cas_no": "635318-11-5",
    "key_name": "(1<em>R</em>,4<em>S</em>,5<em>S</em>,6<em>S</em>)-4-Amino-2-thiabicyclo[3.1.0]hexane-4,6-dicarboxylic acid 2,2-dioxide",
    "cn_name": null,
    "alternate_name": "2-Thiabicyclo[3.1.0]hexane-4,6-dicarboxylic acid, 4-amino-, 2,2-dioxide, (1<em>R</em>,4<em>S</em>,5<em>S</em>,6<em>S</em>)-;(1<em>R</em>,4<em>S</em>,5<em>S</em>,6<em>S</em>)-4-Amino-2-thiabicyclo[3.1.0]hexane-4,6-dicarboxylic acid 2,2-dioxide;LY 404039;LY 404040;Pomaglumetad;CHEMBL 375611",
    "duplicated_cas_no": "",
    "SMILES": "C(O)(=O)[C@@]1(N)[C@]2([C@]([C@@H]2C(O)=O)(S(=O)(=O)C1)[H])[H]",
    "meta_data": {
        "InChI": "InChI=1S/C7H9NO6S/c8-7(6(11)12)1-15(13,14)4-2(3(4)7)5(9)10/h2-4H,1,8H2,(H,9,10)(H,11,12)/t2-,3-,4+,7+/m1/s1",
        "InChIKey": null,
        "Canonical SMILES": "O=C(O)C1C2C1S(=O)(=O)CC2(N)C(=O)O",
        "Molecular Formula": "C<sub>7</sub>H<sub>9</sub>NO<sub>6</sub>S",
        "Molecular Mass": "235.21",
        "Melting Point": "&gt;250 °C"
    }
}