{
    "cas_no": "769-25-5",
    "key_name": "2-Ethenyl-1,3,5-trimethylbenzene",
    "cn_name": "2,4,6-三甲基苯乙烯;",
    "alternate_name": "Benzene, 2-ethenyl-1,3,5-trimethyl-;Styrene, 2,4,6-trimethyl-;2-Ethenyl-1,3,5-trimethylbenzene;2,4,6-Trimethylstyrene;Mesitylethylene;Vinylmesitylene;2-Vinylmesitylene;NSC 51012;1,3,5-Trimethyl-2-vinylbenzene",
    "duplicated_cas_no": "65322-31-8",
    "SMILES": "C(=C)C1=C(C)C=C(C)C=C1C",
    "meta_data": {
        "InChI": "InChI=1S/C11H14/c1-5-11-9(3)6-8(2)7-10(11)4/h5-7H,1H2,2-4H3",
        "InChIKey": null,
        "Canonical SMILES": "C=CC=1C(=CC(=CC1C)C)C",
        "Molecular Formula": "C<sub>11</sub>H<sub>14</sub>",
        "Molecular Mass": "146.23",
        "Boiling Point": "209 °C",
        "Melting Point": "-37 °C",
        "Density": "0.906 g/cm³ @ Temp: 21 °C"
    }
}