{
    "cas_no": "56467-43-7",
    "key_name": "4-Benzoylphenyl methacrylate",
    "cn_name": null,
    "alternate_name": "2-Propenoic acid, 2-methyl-, 4-benzoylphenyl ester;Methacrylic acid, ester with 4-hydroxybenzophenone;4-(Methacryloxy)benzophenone;4-(Methacryloyloxy)benzophenone;4-Benzoylphenyl methacrylate",
    "duplicated_cas_no": "",
    "SMILES": "C(=O)(C1=CC=C(OC(C(C)=C)=O)C=C1)C2=CC=CC=C2",
    "meta_data": {
        "InChI": "InChI=1S/C17H14O3/c1-12(2)17(19)20-15-10-8-14(9-11-15)16(18)13-6-4-3-5-7-13/h3-11H,1H2,2H3",
        "InChIKey": null,
        "Canonical SMILES": "O=C(OC1=CC=C(C=C1)C(=O)C=2C=CC=CC2)C(=C)C",
        "Molecular Formula": "C<sub>17</sub>H<sub>14</sub>O<sub>3</sub>",
        "Molecular Mass": "266.29",
        "Melting Point": "63 °C"
    }
}