{
    "cas_no": "87-73-0",
    "key_name": "Saccharic acid",
    "cn_name": "葡萄糖二酸;",
    "alternate_name": "<span class=\"text-smallcaps\">D</span>-Glucaric acid;Glucaric acid, <span class=\"text-smallcaps\">D</span>-;Saccharic acid;<span class=\"text-smallcaps\">D</span>-Glucosaccharic acid;<span class=\"text-smallcaps\">D</span>-Saccharic acid;<span class=\"text-smallcaps\">D</span>-Tetrahydroxyadipic acid;<span class=\"text-smallcaps\">L</span>-Gularic acid;<span class=\"text-smallcaps\">D</span>-Saccharate;<span class=\"text-smallcaps\">D</span>-(+)-Saccharic acid;Saccharic acids",
    "duplicated_cas_no": "910024-64-5",
    "SMILES": "[C@H]([C@@H]([C@@H](C(O)=O)O)O)([C@H](C(O)=O)O)O",
    "meta_data": {
        "InChI": "InChI=1S/C6H10O8/c7-1(3(9)5(11)12)2(8)4(10)6(13)14/h1-4,7-10H,(H,11,12)(H,13,14)/t1-,2-,3-,4+/m0/s1",
        "InChIKey": null,
        "Canonical SMILES": "O=C(O)C(O)C(O)C(O)C(O)C(=O)O",
        "Molecular Formula": "C<sub>6</sub>H<sub>10</sub>O<sub>8</sub>",
        "Molecular Mass": "210.14",
        "Melting Point": "125.5 °C"
    }
}