{
    "cas_no": "569-92-6",
    "key_name": "Rhamnocitrin",
    "cn_name": null,
    "alternate_name": "4<em>H</em>-1-Benzopyran-4-one, 3,5-dihydroxy-2-(4-hydroxyphenyl)-7-methoxy-;Flavone, 3,4′,5-trihydroxy-7-methoxy-;Rhamnocitrin;3,5-Dihydroxy-2-(4-hydroxyphenyl)-7-methoxy-4<em>H</em>-1-benzopyran-4-one;C.I. 75650;7-Methylkaempferol;Kaempferol 7-methyl ether;3,4′,5-Trihydroxy-7-methoxyflavone;7-<em>O</em>-Methylkaempferol;Kaempferol-7-<em>O</em>-methyl ether;3,5-Dihydroxy-2-(4-hydroxyphenyl)-7-methoxychromen-4-one",
    "duplicated_cas_no": "",
    "SMILES": "O=C1C=2C(OC(=C1O)C3=CC=C(O)C=C3)=CC(OC)=CC2O",
    "meta_data": {
        "InChI": "InChI=1S/C16H12O6/c1-21-10-6-11(18)13-12(7-10)22-16(15(20)14(13)19)8-2-4-9(17)5-3-8/h2-7,17-18,20H,1H3",
        "InChIKey": null,
        "Canonical SMILES": "O=C1C(O)=C(OC2=CC(OC)=CC(O)=C12)C=3C=CC(O)=CC3",
        "Molecular Formula": "C<sub>16</sub>H<sub>12</sub>O<sub>6</sub>",
        "Molecular Mass": "300.26",
        "Melting Point": "220-222 °C"
    }
}