{
    "cas_no": "12112-67-3",
    "key_name": "Di-μ-chlorobis[(1,2,5,6-η)-1,5-cyclooctadiene]diiridium",
    "cn_name": "1,5-环辛二烯氯化铱二聚体;",
    "alternate_name": "Iridium, di-μ-chlorobis[(1,2,5,6-η)-1,5-cyclooctadiene]di-;Iridium, di-μ-chlorobis(1,5-cyclooctadiene)di-;Iridium, dichlorobis(cyclooctadiene)di-;1,5-Cyclooctadiene, iridium complex;Di-μ-chlorobis[(1,2,5,6-η)-1,5-cyclooctadiene]diiridium;Di-μ-Chlorobis(π-1,5-cyclooctadiene)diiridium;μ,μ-Dichlorobis(1,5-cyclooctadiene)diiridium;Di-μ-Chlorobis(1,5-cyclooctadiene)diiridium;Dichlorobis(cyclooctadiene)diiridium;Chloro(1,5-cyclooctadiene)iridium dimer;5-Chlorobis(1,5-cyclooctadiene)diiridium;Dichlorobis(1,5-cyclooctadiene)diiridium;Cyclooctadieneiridium chloride dimer;(1,5-Cyclooctadiene)iridium chloride dimer;Dichlorobis(η<sup>4</sup>-1,5-cyclooctadiene)diiridium;(1,5-Cyclooctadiene)chloroiridium dimer;Bis(chloro(1,5-cyclooctadiene)iridium);Di-μ-chlorobis(η<sup>4</sup>-1,5-cyclooctadiene)diiridium;Bis(μ-chloro)bis(1,5-cyclooctadiene)diiridium;Bis((μ-chloro)(1,5-cyclooctadiene)iridium);(η<sup>4</sup>-1,5-Cyclooctadiene)iridium chloride dimer;Di-μ-chlorobis(η<sup>4</sup>-1,5-cyclooctadiene)diiridium(I);Chloro(cyclooctadiene)iridium dimer;Bis(chloro(cyclooctadiene)iridium);NSC 326162;Di-μ<sub>2</sub>-chlorobis(1,5-cyclooctadiene)diiridium;Bis(1,5-cyclooctadiene)diiridium(I) dichloride;Di-μ-chlorobis[(1,5-cyclooctadiene)iridium];Bis[μ-chloro(η<sup>4</sup>-1,5-cyclooctadiene)iridium]",
    "duplicated_cas_no": "69004-75-7",
    "SMILES": "[Ir+]1234([Cl-][Ir+]567([Cl-]1)[CH]8=[CH]5CC[CH]6=[CH]7CC8)[CH]9=[CH]2CC[CH]3=[CH]4CC9",
    "meta_data": {
        "InChI": "InChI=1S/2C8H12.2ClH.2Ir/c2*1-2-4-6-8-7-5-3-1;;;;/h2*1-2,7-8H,3-6H2;2*1H;;/q;;;;2*+1/p-2",
        "InChIKey": null,
        "Canonical SMILES": "[Cl-]1[Ir+]234([Cl-][Ir+]1567[CH]=8CC[CH]7=[CH]6CC[CH]85)[CH]=9CC[CH]4=[CH]3CC[CH]92",
        "Molecular Formula": "C<sub>16</sub>H<sub>24</sub>Cl<sub>2</sub>Ir<sub>2</sub>",
        "Molecular Mass": "",
        "Melting Point": "200-202 °C"
    }
}