{
    "cas_no": "4497-92-1",
    "key_name": "(+)-2-Carene",
    "cn_name": "2-蒈烯;",
    "alternate_name": "Bicyclo[4.1.0]hept-2-ene, 3,7,7-trimethyl-, (1<em>S</em>,6<em>R</em>)-;2-Carene, (1<em>S</em>,6<em>R</em>)-(+)-;Bicyclo[4.1.0]hept-2-ene, 3,7,7-trimethyl-, (1<em>S</em>)-;(1<em>S</em>,6<em>R</em>)-3,7,7-Trimethylbicyclo[4.1.0]hept-2-ene;Pinonene;(+)-2-Carene;delta-2-Carene;δ-2-Carene",
    "duplicated_cas_no": "1415-99-2",
    "SMILES": "CC1(C)[C@]2([C@@]1(C=C(C)CC2)[H])[H]",
    "meta_data": {
        "InChI": "InChI=1S/C10H16/c1-7-4-5-8-9(6-7)10(8,2)3/h6,8-9H,4-5H2,1-3H3/t8-,9+/m1/s1",
        "InChIKey": null,
        "Canonical SMILES": "C1=C(C)CCC2C1C2(C)C",
        "Molecular Formula": "C<sub>10</sub>H<sub>16</sub>",
        "Molecular Mass": "136.23",
        "Boiling Point": "50-51 °C @ Press: 12 Torr"
    }
}