{
    "cas_no": "636-01-1",
    "key_name": "3-(2,5-Dihydroxyphenyl)-2-propenoic acid",
    "cn_name": null,
    "alternate_name": "2-Propenoic acid, 3-(2,5-dihydroxyphenyl)-;Cinnamic acid, 2,5-dihydroxy-;3-(2,5-Dihydroxyphenyl)-2-propenoic acid;2,5-Dihydroxycinnamic acid",
    "duplicated_cas_no": "",
    "SMILES": "C(=CC(O)=O)C1=C(O)C=CC(O)=C1",
    "meta_data": {
        "InChI": "InChI=1S/C9H8O4/c10-7-2-3-8(11)6(5-7)1-4-9(12)13/h1-5,10-11H,(H,12,13)",
        "InChIKey": null,
        "Canonical SMILES": "O=C(O)C=CC1=CC(O)=CC=C1O",
        "Molecular Formula": "C<sub>9</sub>H<sub>8</sub>O<sub>4</sub>",
        "Molecular Mass": "180.16",
        "Melting Point": "207 °C"
    }
}