{
    "cas_no": "2351-37-3",
    "key_name": "4,4′-Biphenyldicarbonyl chloride",
    "cn_name": "4，4‘-联苯基乙酰氯;",
    "alternate_name": "[1,1′-Biphenyl]-4,4′-dicarbonyl dichloride;4,4′-Biphenyldicarbonyl chloride;<em>p</em>-Biphenylenedicarbonyl chloride;4,4′-Bis(chloroformyl)biphenyl;Diphenyl-4,4′-dicarboxylic acid chloride;4,4′-Bibenzoyl chloride;<em>p</em>,<em>p</em>′-Bis(chlorocarbonyl)biphenyl;4,4′-Biphenyldicarbonyl dichloride;4,4′-Biphenyldicarboxyl chloride;4,4′-Bis(chlorocarbonyl)-1,1′-biphenyl;4,4′-Biphenyldicarboxylic dichloride;4,4′-Dibenzoyl chloride;4BPAC;4,4′-Diphenyldicarboxylic acid dichloride",
    "duplicated_cas_no": "",
    "SMILES": "C(Cl)(=O)C1=CC=C(C=C1)C2=CC=C(C(Cl)=O)C=C2",
    "meta_data": {
        "InChI": "InChI=1S/C14H8Cl2O2/c15-13(17)11-5-1-9(2-6-11)10-3-7-12(8-4-10)14(16)18/h1-8H",
        "InChIKey": null,
        "Canonical SMILES": "O=C(Cl)C=1C=CC(=CC1)C2=CC=C(C=C2)C(=O)Cl",
        "Molecular Formula": "C<sub>14</sub>H<sub>8</sub>Cl<sub>2</sub>O<sub>2</sub>",
        "Molecular Mass": "279.12",
        "Melting Point": "181-182 °C"
    }
}