{
    "cas_no": "3066-90-8",
    "key_name": "2,3-Dimethoxy-5-methyl-1,4-benzenediol",
    "cn_name": "2,3-二甲氧基-5-甲基-1,4-苯二酚;",
    "alternate_name": "1,4-Benzenediol, 2,3-dimethoxy-5-methyl-;Hydroquinone, 2,3-dimethoxy-5-methyl-;2,3-Dimethoxy-5-methyl-1,4-benzenediol;Coenzyme Q<sub>0</sub>, dihydro-;Reduced coenzyme Q<sub>0</sub>;2,3-Dimethoxy-5-methyl-1,4-hydroquinone;2,3-Dimethoxy-5-methyl-1,4-benzohydroquinone;Ubiquinol 0;2,3-Dimethoxy-5-methylhydroquinone;2,3-Dimethoxy-5-methylbenzohydroquinone;2,3-Dimethoxy-5-methyl-1,4-dihydroxybenzene",
    "duplicated_cas_no": "",
    "SMILES": "O(C)C1=C(OC)C(O)=C(C)C=C1O",
    "meta_data": {
        "InChI": "InChI=1S/C9H12O4/c1-5-4-6(10)8(12-2)9(13-3)7(5)11/h4,10-11H,1-3H3",
        "InChIKey": null,
        "Canonical SMILES": "OC=1C=C(C(O)=C(OC)C1OC)C",
        "Molecular Formula": "C<sub>9</sub>H<sub>12</sub>O<sub>4</sub>",
        "Molecular Mass": "184.19",
        "Melting Point": "74.5-75.5 °C"
    }
}