{
    "cas_no": "18194-25-7",
    "key_name": "1,2-Dilauroyl-sn-<em>glycero</em>-3-phosphocholine",
    "cn_name": null,
    "alternate_name": "3,5,9-Trioxa-4-phosphaheneicosan-1-aminium, 4-hydroxy-<em>N</em>,<em>N</em>,<em>N</em>-trimethyl-10-oxo-7-[(1-oxododecyl)oxy]-, inner salt, 4-oxide, (7<em>R</em>)-;Choline, hydroxide, dihydrogen phosphate, inner salt, ester with 1,2-dilaurin, <span class=\"text-smallcaps\">L</span>-;3,5,9-Trioxa-4-phosphaheneicosan-1-aminium, 4-hydroxy-<em>N</em>,<em>N</em>,<em>N</em>-trimethyl-10-oxo-7-[(1-oxododecyl)oxy]-, hydroxide, inner salt, 4-oxide, (<em>R</em>)-;1,2-Dilaurin dihydrogen phosphate monoester with <span class=\"text-smallcaps\">L</span>-choline hydroxide inner salt;1,2-Dilauroyl-<span class=\"text-smallcaps\">L</span>-phosphatidylcholine;<span class=\"text-smallcaps\">L</span>-Dilauroyllecithin;Dilauryllecithin;Dilauroyl-<span class=\"text-smallcaps\">L</span>-α-lecithin;1,2-Dilauroyl-<em>sn</em>-<em>glycero</em>-3-phosphorylcholine;Dilauroyl-<span class=\"text-smallcaps\">L</span>-α-glycerophosphorylcholine;Dilauroylphosphatidylcholine;<span class=\"text-smallcaps\">L</span>-α-Di(dodecanoyl) lecithin;<span class=\"text-smallcaps\">L</span>-α-Dilauroyl phosphatidylcholine;1,2-Dilauroyl-<em>sn</em>-<em>glycero</em>-3-phosphocholine;Dilauroyl-<span class=\"text-smallcaps\">L</span>-α-phosphatidylcholine;Dilauroyl-<span class=\"text-smallcaps\">L</span>-α-glycerophosphocholine;<span class=\"text-smallcaps\">L</span>-α-Dilauroylglyceryl-3-phosphorylcholine;1,2-Dilauroyl-<em>sn</em>-<em>glycero</em>-3-phosphatidylcholine;Didodecanoyl-<em>sn</em>-glycero-3-phosphocholine;1,2-Didodecanoyl-<em>sn</em>-<em>glycero</em>-3-phosphocholine;1,2-Dilauroyl-sn-<em>glycero</em>-3-phosphocholine;1,2-Didodecanoyl-sn-<em>glycero</em>-3-phosphocholine;DLPC;Coatsome MC-1212;<span class=\"text-smallcaps\">L</span>-Dilauroylphosphatidylcholine;[(2R)-2,3-Di(dodecanoyloxy)propyl] 2-(trimethylazaniumyl)ethyl phosphate;1,2-Dilauroyl-sn-<em>glycero</em>-3-phosphatidyl choline",
    "duplicated_cas_no": "",
    "SMILES": "[C@H](COP(OCC[N+](C)(C)C)(=O)[O-])(COC(CCCCCCCCCCC)=O)OC(CCCCCCCCCCC)=O",
    "meta_data": {
        "InChI": "InChI=1S/C32H64NO8P/c1-6-8-10-12-14-16-18-20-22-24-31(34)38-28-30(29-40-42(36,37)39-27-26-33(3,4)5)41-32(35)25-23-21-19-17-15-13-11-9-7-2/h30H,6-29H2,1-5H3/t30-/m1/s1",
        "InChIKey": null,
        "Canonical SMILES": "O=C(OCC(OC(=O)CCCCCCCCCCC)COP(=O)([O-])OCC[N+](C)(C)C)CCCCCCCCCCC",
        "Molecular Formula": "C<sub>32</sub>H<sub>64</sub>NO<sub>8</sub>P",
        "Molecular Mass": "",
        "Melting Point": "-1 °C"
    }
}