{
    "cas_no": "105-58-8",
    "key_name": "Diethyl carbonate",
    "cn_name": "碳酸二乙酯;",
    "alternate_name": "Carbonic acid, diethyl ester;Diatol;Diethyl carbonate;Eufin;Ethyl carbonate ((EtO)<sub>2</sub>CO);DEC;NSC 8849;Diatol (carbonate);H-DEC;Diethylcarbonate",
    "duplicated_cas_no": "",
    "SMILES": "C(OCC)(OCC)=O",
    "meta_data": {
        "InChI": "InChI=1S/C5H10O3/c1-3-7-5(6)8-4-2/h3-4H2,1-2H3",
        "InChIKey": null,
        "Canonical SMILES": "O=C(OCC)OCC",
        "Molecular Formula": "C<sub>5</sub>H<sub>10</sub>O<sub>3</sub>",
        "Molecular Mass": "118.13",
        "Boiling Point": "126 °C",
        "Melting Point": "-43 °C",
        "Density": "0.9752 g/cm³ @ Temp: 20 °C"
    }
}