{
    "cas_no": "1605-18-1",
    "key_name": "1,4-Diisopropenylbenzene",
    "cn_name": "1,4-二异丙烯基苯;",
    "alternate_name": "Benzene, 1,4-bis(1-methylethenyl)-;Benzene, <em>p</em>-diisopropenyl-;1,4-Bis(1-methylethenyl)benzene;<em>p</em>-Diisopropenylbenzene;1,4-Bis(1-methylvinyl)benzene;1,4-Diisopropenylbenzene;NSC 84197;1,4-Di(prop-1-en-2-yl)benzene;1,4-Bis(prop-1-en-2-yl)benzene",
    "duplicated_cas_no": "",
    "SMILES": "C(C)(=C)C1=CC=C(C(C)=C)C=C1",
    "meta_data": {
        "InChI": "InChI=1S/C12H14/c1-9(2)11-5-7-12(8-6-11)10(3)4/h5-8H,1,3H2,2,4H3",
        "InChIKey": null,
        "Canonical SMILES": "C=C(C1=CC=C(C=C1)C(=C)C)C",
        "Molecular Formula": "C<sub>12</sub>H<sub>14</sub>",
        "Molecular Mass": "158.24",
        "Boiling Point": "46-48 °C @ Press: 0.07 Torr",
        "Melting Point": "63.6-64 °C"
    }
}