{
    "cas_no": "20582-85-8",
    "key_name": "4-(Methylthio)-1-butanol",
    "cn_name": "4-(甲硫基)丁醇;4-甲基硫代丁醇;",
    "alternate_name": "1-Butanol, 4-(methylthio)-;4-(Methylthio)-1-butanol",
    "duplicated_cas_no": "",
    "SMILES": "C(CCO)CSC",
    "meta_data": {
        "InChI": "InChI=1S/C5H12OS/c1-7-5-3-2-4-6/h6H,2-5H2,1H3",
        "InChIKey": null,
        "Canonical SMILES": "OCCCCSC",
        "Molecular Formula": "C<sub>5</sub>H<sub>12</sub>OS",
        "Molecular Mass": "120.21",
        "Boiling Point": "81-85 °C @ Press: 3 Torr"
    }
}