{
    "cas_no": "530-78-9",
    "key_name": "Flufenamic acid",
    "cn_name": "氟灭酸;2{[3-(三氟甲基)苯]氨基}-苯甲酸;",
    "alternate_name": "Benzoic acid, 2-[[3-(trifluoromethyl)phenyl]amino]-;Anthranilic acid, <em>N</em>-(α,α,α-trifluoro-<em>m</em>-tolyl)-;2-[[3-(Trifluoromethyl)phenyl]amino]benzoic acid;INF 1837;Arlef;Flufenamic acid;Fluphenamic acid;<em>N</em>-(<em>m</em>-Trifluoromethylphenyl)-2-aminobenzoic acid;<em>N</em>-(α,α,α-Trifluoro-<em>m</em>-tolyl)anthranilic acid;<em>N</em>-[3-(Trifluoromethyl)phenyl]anthranilic acid;3′-Trifluoromethyldiphenylamine-2-carboxylic acid;Achless;Fullsafe;Paraflu;Parlef;Surika;Tecramine;ANT-1;Parlif;Plostene;3′-Trifluoromethyl-<em>N</em>-phenylanthranilic acid;Pinox;Movilizin;2-[3-(Trifluoromethyl)anilino]benzoic acid;Ristogen;NSC 82699;Ansatin;Meralen;CI 440;CN 27544;Sastridex;NSC 219007;MeSH ID: D005439",
    "duplicated_cas_no": "",
    "SMILES": "N(C1=C(C(O)=O)C=CC=C1)C2=CC(C(F)(F)F)=CC=C2",
    "meta_data": {
        "InChI": "InChI=1S/C14H10F3NO2/c15-14(16,17)9-4-3-5-10(8-9)18-12-7-2-1-6-11(12)13(19)20/h1-8,18H,(H,19,20)",
        "InChIKey": null,
        "Canonical SMILES": "O=C(O)C=1C=CC=CC1NC2=CC=CC(=C2)C(F)(F)F",
        "Molecular Formula": "C<sub>14</sub>H<sub>10</sub>F<sub>3</sub>NO<sub>2</sub>",
        "Molecular Mass": "281.23",
        "Melting Point": "133.5 °C",
        "Density": "1.47 g/cm³ (Solid)"
    }
}