{
    "cas_no": "57-09-0",
    "key_name": "Hexadecyltrimethylammonium bromide",
    "cn_name": "十六烷基三甲基溴化铵;西曲溴铵;溴棕三甲铵;鲸蜡烷三甲基溴化铵;",
    "alternate_name": "1-Hexadecanaminium, <em>N</em>,<em>N</em>,<em>N</em>-trimethyl-, bromide (1:1);Ammonium, hexadecyltrimethyl-, bromide;1-Hexadecanaminium, <em>N</em>,<em>N</em>,<em>N</em>-trimethyl-, bromide;Hexadecyltrimethylammonium bromide;Cetrimonium bromide;<em>n</em>-Hexadecyltrimethylammonium bromide;<em>N</em>-Hexadecyl-<em>N</em>,<em>N</em>,<em>N</em>-trimethylammonium bromide;Trimethylcetylammonium bromide;Trimethylhexadecylammonium bromide;1-Hexadecyltrimethylammonium bromide;<em>N</em>-Cetyltrimethylammonium bromide;Cirrasol OD;CTAB;Pollacid;Bromat;Micol;Quamonium;Lissolamine A;Acetoquat CTAB;<em>N</em>,<em>N</em>,<em>N</em>-Trimethyl-1-hexadecanaminium bromide;Lissolamine;Softex KW;Hexadecyltrimethylamine bromide;<em>N</em>-Cetyl-<em>N</em>,<em>N</em>,<em>N</em>-trimethylammonium bromide;<em>N</em>,<em>N</em>,<em>N</em>-Trimethylhexadecylammonium bromide;Palmityltrimethylammonium bromide;Lauroseptol;HTAB;CTMB;CTMAB;BCTA;Arquad 16/60;HDTMA-Br;Rhodaquat M 242B99;Varisoft CTB 40;<em>N</em>,<em>N</em>,<em>N</em>-Trimethylhexadecan-1-ammonium bromide;CTABr;Accelerator DT 3126-1;Cetyltrimethylammonium bromide;Hexadecanyltrimethylammonium bromide;Catinal HTB 70ET;ZYS 08;C<sub>16</sub>TAB;Cetremide;Accelerator 1631;V 800113;H 0081;1165MP;200MP;S 15001;Pyridinium, 1-hexadecyl-4-(trimethylammonio)-, bromide (1:2)",
    "duplicated_cas_no": "12294-25-6;69217-35-2;79631-76-8;104302-76-3;108779-80-2;1255326-52-3",
    "SMILES": "C(CCCCCCCCCCCCC)CC[N+](C)(C)C.[Br-]",
    "meta_data": {
        "InChI": "InChI=1S/C19H42N.BrH/c1-5-6-7-8-9-10-11-12-13-14-15-16-17-18-19-20(2,3)4;/h5-19H2,1-4H3;1H/q+1;/p-1",
        "InChIKey": null,
        "Canonical SMILES": "[Br-].CCCCCCCCCCCCCCCC[N+](C)(C)C",
        "Molecular Formula": "C<sub>19</sub>H<sub>42</sub>N.Br",
        "Molecular Mass": "",
        "Melting Point": "240 °C",
        "Density": "2.24 g/cm³"
    }
}