{
    "cas_no": "40054-68-0",
    "key_name": "4-(2-Chlorophenyl)-2-ethyl-6<em>H</em>-thieno[3,2-<em>f</em>][1,2,4]triazolo[4,3-<em>a</em>][1,4]diazepine",
    "cn_name": null,
    "alternate_name": "6<em>H</em>-Thieno[3,2-<em>f</em>][1,2,4]triazolo[4,3-<em>a</em>][1,4]diazepine, 4-(2-chlorophenyl)-2-ethyl-;4-(2-Chlorophenyl)-2-ethyl-6<em>H</em>-thieno[3,2-<em>f</em>][1,2,4]triazolo[4,3-<em>a</em>][1,4]diazepine;Metizolam",
    "duplicated_cas_no": "",
    "SMILES": "C(C)C1=CC2=C(N3C(CN=C2C4=C(Cl)C=CC=C4)=NN=C3)S1",
    "meta_data": {
        "InChI": "InChI=1S/C16H13ClN4S/c1-2-10-7-12-15(11-5-3-4-6-13(11)17)18-8-14-20-19-9-21(14)16(12)22-10/h3-7,9H,2,8H2,1H3",
        "InChIKey": null,
        "Canonical SMILES": "ClC=1C=CC=CC1C2=NCC3=NN=CN3C=4SC(=CC24)CC",
        "Molecular Formula": "C<sub>16</sub>H<sub>13</sub>ClN<sub>4</sub>S",
        "Molecular Mass": "328.82",
        "Melting Point": "153-154 °C"
    }
}