{
    "cas_no": "1069-72-3",
    "key_name": "2-Bromo-<em>N</em>,<em>N</em>-diethylethylamine hydrobromide",
    "cn_name": "2-二乙氨基乙基溴化物氢溴酸盐;",
    "alternate_name": "Ethanamine, 2-bromo-<em>N</em>,<em>N</em>-diethyl-, hydrobromide (1:1);Triethylamine, 2-bromo-, hydrobromide;Ethanamine, 2-bromo-<em>N</em>,<em>N</em>-diethyl-, hydrobromide;(2-Bromoethyl)diethylamine hydrobromide;2-(Diethylamino)ethyl bromide hydrobromide;2-Bromotriethylamine hydrobromide;<em>N</em>-(2-Bromoethyl)diethylamine hydrobromide;<em>N</em>,<em>N</em>-Diethyl-2-amino-1-bromoethane hydrobromide;2-Bromo-<em>N</em>,<em>N</em>-diethylethylamine hydrobromide;2-Bromo-<em>N</em>,<em>N</em>-diethylethanamine hydrobromide;<em>N</em>,<em>N</em>-Diethyl-2-bromoethanamine hydrobromide",
    "duplicated_cas_no": "",
    "SMILES": "N(CCBr)(CC)CC.Br",
    "meta_data": {
        "InChI": "InChI=1S/C6H14BrN.BrH/c1-3-8(4-2)6-5-7;/h3-6H2,1-2H3;1H",
        "InChIKey": null,
        "Canonical SMILES": "Br.BrCCN(CC)CC",
        "Molecular Formula": "C<sub>6</sub>H<sub>14</sub>BrN.BrH",
        "Molecular Mass": "",
        "Melting Point": "209 °C"
    }
}