{
    "cas_no": "1949-88-8",
    "key_name": "<span class=\"text-smallcaps\">L</span>-Altrose",
    "cn_name": "L(-)-阿卓糖;",
    "alternate_name": "<span class=\"text-smallcaps\">L</span>-Altrose;Altrose, <span class=\"text-smallcaps\">L</span>-",
    "duplicated_cas_no": "",
    "SMILES": "[C@@H]([C@@H]([C@H](C=O)O)O)([C@H](CO)O)O",
    "meta_data": {
        "InChI": "InChI=1S/C6H12O6/c7-1-3(9)5(11)6(12)4(10)2-8/h1,3-6,8-12H,2H2/t3-,4-,5+,6-/m0/s1",
        "InChIKey": null,
        "Canonical SMILES": "O=CC(O)C(O)C(O)C(O)CO",
        "Molecular Formula": "C<sub>6</sub>H<sub>12</sub>O<sub>6</sub>",
        "Molecular Mass": "180.16",
        "Melting Point": "107-109.5 °C"
    }
}