{
    "cas_no": "5057-99-8",
    "key_name": "<em>trans</em>-1,2-Cyclopentanediol",
    "cn_name": "(±)-反-1,2-环戊二醇;反1,2-?戊二醇;",
    "alternate_name": "1,2-Cyclopentanediol, (1<em>R</em>,2<em>R</em>)-<em>rel</em>-;1,2-Cyclopentanediol, <em>trans</em>-;<em>rel</em>-(1<em>R</em>,2<em>R</em>)-1,2-Cyclopentanediol;<em>trans</em>-1,2-Cyclopentanediol;<em>trans</em>-(±)-1,2-Cyclopentanediol;1,2-<em>trans</em>-Cyclopentanediol;NSC 15389;(1<em>R</em>,2<em>R</em>)-<em>rel</em>-1,2-Cyclopentanediol;<em>trans</em>-1,2-Dihydroxycyclopentane",
    "duplicated_cas_no": "86703-52-8",
    "SMILES": "O[C@H]1[C@H](O)CCC1",
    "meta_data": {
        "InChI": "InChI=1/C5H10O2/c6-4-2-1-3-5(4)7/h4-7H,1-3H2/t4-,5-/s2",
        "InChIKey": null,
        "Canonical SMILES": "OC1CCCC1O",
        "Molecular Formula": "C<sub>5</sub>H<sub>10</sub>O<sub>2</sub>",
        "Molecular Mass": "102.13",
        "Boiling Point": "136 °C @ Press: 21.5 Torr",
        "Melting Point": "54.5-55 °C"
    }
}