{
    "cas_no": "64506-49-6",
    "key_name": "Sofalcone",
    "cn_name": "索法酮;2\"-羟甲氧基-4,4\"-双(3-甲基-2-丁氧基)查耳酮;",
    "alternate_name": "Acetic acid, 2-[5-[(3-methyl-2-buten-1-yl)oxy]-2-[3-[4-[(3-methyl-2-buten-1-yl)oxy]phenyl]-1-oxo-2-propen-1-yl]phenoxy]-;Acetic acid, [5-[(3-methyl-2-butenyl)oxy]-2-[3-[4-[(3-methyl-2-butenyl)oxy]phenyl]-1-oxo-2-propenyl]phenoxy]-;2-[5-[(3-Methyl-2-buten-1-yl)oxy]-2-[3-[4-[(3-methyl-2-buten-1-yl)oxy]phenyl]-1-oxo-2-propen-1-yl]phenoxy]acetic acid;SU 88;Sofalcone;Solon",
    "duplicated_cas_no": "",
    "SMILES": "O(CC(O)=O)C1=C(C(C=CC2=CC=C(OCC=C(C)C)C=C2)=O)C=CC(OCC=C(C)C)=C1",
    "meta_data": {
        "InChI": "InChI=1S/C27H30O6/c1-19(2)13-15-31-22-8-5-21(6-9-22)7-12-25(28)24-11-10-23(32-16-14-20(3)4)17-26(24)33-18-27(29)30/h5-14,17H,15-16,18H2,1-4H3,(H,29,30)",
        "InChIKey": null,
        "Canonical SMILES": "O=C(O)COC1=CC(OCC=C(C)C)=CC=C1C(=O)C=CC2=CC=C(OCC=C(C)C)C=C2",
        "Molecular Formula": "C<sub>27</sub>H<sub>30</sub>O<sub>6</sub>",
        "Molecular Mass": "450.52",
        "Melting Point": "143-144 °C"
    }
}