{
    "cas_no": "91-55-4",
    "key_name": "2,3-Dimethylindole",
    "cn_name": "2,3-二甲基吲哚;",
    "alternate_name": "1<em>H</em>-Indole, 2,3-dimethyl-;Indole, 2,3-dimethyl-;2,3-Dimethyl-1<em>H</em>-indole;2,3-Dimethylindole;NSC 24936",
    "duplicated_cas_no": "",
    "SMILES": "CC=1C=2C(NC1C)=CC=CC2",
    "meta_data": {
        "InChI": "InChI=1S/C10H11N/c1-7-8(2)11-10-6-4-3-5-9(7)10/h3-6,11H,1-2H3",
        "InChIKey": null,
        "Canonical SMILES": "C=1C=CC2=C(C1)NC(=C2C)C",
        "Molecular Formula": "C<sub>10</sub>H<sub>11</sub>N",
        "Molecular Mass": "145.20",
        "Boiling Point": "285 °C",
        "Melting Point": "106 °C"
    }
}