{
    "cas_no": "511-67-1",
    "key_name": "5,5-Dibromo-2,4,6(1<em>H</em>,3<em>H</em>,5<em>H</em>)-pyrimidinetrione",
    "cn_name": "5,5-二溴巴比妥酸; 5,5-二溴-2,4,6(1H,3H,5H)-嘧啶三酮;",
    "alternate_name": "2,4,6(1<em>H</em>,3<em>H</em>,5<em>H</em>)-Pyrimidinetrione, 5,5-dibromo-;Barbituric acid, 5,5-dibromo-;5,5-Dibromo-2,4,6(1<em>H</em>,3<em>H</em>,5<em>H</em>)-pyrimidinetrione;5,5-Dibromobarbituric acid;Dibromin;DBBA;NSC 6206;5,5-Dibromopyrimidine-2,4,6-trione",
    "duplicated_cas_no": "",
    "SMILES": "BrC1(Br)C(=O)NC(=O)NC1=O",
    "meta_data": {
        "InChI": "InChI=1S/C4H2Br2N2O3/c5-4(6)1(9)7-3(11)8-2(4)10/h(H2,7,8,9,10,11)",
        "InChIKey": null,
        "Canonical SMILES": "O=C1NC(=O)C(Br)(Br)C(=O)N1",
        "Molecular Formula": "C<sub>4</sub>H<sub>2</sub>Br<sub>2</sub>N<sub>2</sub>O<sub>3</sub>",
        "Molecular Mass": "285.88",
        "Melting Point": "234 °C"
    }
}