{
    "cas_no": "68767-14-6",
    "key_name": "Loxoprofen",
    "cn_name": "洛索洛芬;2-[4-(2-氧代环戊烷-1-基甲基)苯基]丙酸;",
    "alternate_name": "Benzeneacetic acid, α-methyl-4-[(2-oxocyclopentyl)methyl]-;α-Methyl-4-[(2-oxocyclopentyl)methyl]benzeneacetic acid;Loxoprofen;2-[4-[(2-Oxocyclopentan-1-yl)methyl]phenyl]propionic acid;2-[4-[(2-Oxocyclopentyl)methyl]phenyl]propionic acid;2-[4-[(2-Oxocyclopentyl)methyl]phenyl]propanoic acid",
    "duplicated_cas_no": "",
    "SMILES": "C(C1=CC=C(C(C(O)=O)C)C=C1)C2C(=O)CCC2",
    "meta_data": {
        "InChI": "InChI=1S/C15H18O3/c1-10(15(17)18)12-7-5-11(6-8-12)9-13-3-2-4-14(13)16/h5-8,10,13H,2-4,9H2,1H3,(H,17,18)",
        "InChIKey": null,
        "Canonical SMILES": "O=C(O)C(C1=CC=C(C=C1)CC2C(=O)CCC2)C",
        "Molecular Formula": "C<sub>15</sub>H<sub>18</sub>O<sub>3</sub>",
        "Molecular Mass": "246.30",
        "Boiling Point": "190-195 °C @ Press: 0.3 Torr",
        "Melting Point": "108.5-111 °C"
    }
}