{
    "cas_no": "124432-63-9",
    "key_name": "3-Bromo-2-methoxy-5-(trifluoromethyl)pyridine",
    "cn_name": null,
    "alternate_name": "Pyridine, 3-bromo-2-methoxy-5-(trifluoromethyl)-;3-Bromo-2-methoxy-5-(trifluoromethyl)pyridine;3-Bromo-2-methoxy-5-trifluoromethylpyridine",
    "duplicated_cas_no": "",
    "SMILES": "C(F)(F)(F)C=1C=C(Br)C(OC)=NC1",
    "meta_data": {
        "InChI": "InChI=1S/C7H5BrF3NO/c1-13-6-5(8)2-4(3-12-6)7(9,10)11/h2-3H,1H3",
        "InChIKey": null,
        "Canonical SMILES": "FC(F)(F)C1=CN=C(OC)C(Br)=C1",
        "Molecular Formula": "C<sub>7</sub>H<sub>5</sub>BrF<sub>3</sub>NO",
        "Molecular Mass": "256.02",
        "Boiling Point": "86-88 °C @ Press: 21 Torr"
    }
}