{
    "cas_no": "2922-51-2",
    "key_name": "2-Heptadecanone",
    "cn_name": null,
    "alternate_name": "2-Heptadecanone;Pentadecyl methyl ketone;Methyl pentadecyl ketone",
    "duplicated_cas_no": "",
    "SMILES": "C(CCCCCCCCCC)CCCCC(C)=O",
    "meta_data": {
        "InChI": "InChI=1S/C17H34O/c1-3-4-5-6-7-8-9-10-11-12-13-14-15-16-17(2)18/h3-16H2,1-2H3",
        "InChIKey": null,
        "Canonical SMILES": "O=C(C)CCCCCCCCCCCCCCC",
        "Molecular Formula": "C<sub>17</sub>H<sub>34</sub>O",
        "Molecular Mass": "254.45",
        "Boiling Point": "320 °C",
        "Melting Point": "48 °C"
    }
}