{
    "cas_no": "28418-88-4",
    "key_name": "3-Iodophthalic anhydride",
    "cn_name": null,
    "alternate_name": "1,3-Isobenzofurandione, 4-iodo-;Phthalic anhydride, 3-iodo-;4-Iodo-1,3-isobenzofurandione;3-Iodophthalic anhydride;NSC 135150;4-Iodo-2-benzofuran-1,3-dione;3-Iodophthalic acid anhydride;4-Iodoisobenzofuran-1,3-dione",
    "duplicated_cas_no": "",
    "SMILES": "IC1=C2C(C(=O)OC2=O)=CC=C1",
    "meta_data": {
        "InChI": "InChI=1S/C8H3IO3/c9-5-3-1-2-4-6(5)8(11)12-7(4)10/h1-3H",
        "InChIKey": null,
        "Canonical SMILES": "O=C1OC(=O)C=2C(I)=CC=CC12",
        "Molecular Formula": "C<sub>8</sub>H<sub>3</sub>IO<sub>3</sub>",
        "Molecular Mass": "274.01",
        "Melting Point": "159-161 °C"
    }
}