{
    "cas_no": "53398-80-4",
    "key_name": "<em>trans</em>-2-Hexenyl propionate",
    "cn_name": null,
    "alternate_name": "2-Hexen-1-ol, 1-propanoate, (2<em>E</em>)-;2-Hexen-1-ol, propanoate, (<em>E</em>)-;2-Hexen-1-ol, propanoate, (2<em>E</em>)-;<em>trans</em>-2-Hexenyl propionate;(<em>E</em>)-2-Hexenyl propanoate;(<em>E</em>)-2-Hexenyl propionate",
    "duplicated_cas_no": "139729-91-2",
    "SMILES": "C(OC(CC)=O)/C=C/CCC",
    "meta_data": {
        "InChI": "InChI=1S/C9H16O2/c1-3-5-6-7-8-11-9(10)4-2/h6-7H,3-5,8H2,1-2H3/b7-6+",
        "InChIKey": null,
        "Canonical SMILES": "O=C(OCC=CCCC)CC",
        "Molecular Formula": "C<sub>9</sub>H<sub>16</sub>O<sub>2</sub>",
        "Molecular Mass": "156.22",
        "Boiling Point": "90 °C @ Press: 15 Torr"
    }
}