{
    "cas_no": "6480-68-8",
    "key_name": "3-Quinolinecarboxylic acid",
    "cn_name": "喹啉-3-羧酸;",
    "alternate_name": "3-Quinolinecarboxylic acid;3-Carboxyquinoline;NSC 403263",
    "duplicated_cas_no": "",
    "SMILES": "C(O)(=O)C1=CC2=C(N=C1)C=CC=C2",
    "meta_data": {
        "InChI": "InChI=1S/C10H7NO2/c12-10(13)8-5-7-3-1-2-4-9(7)11-6-8/h1-6H,(H,12,13)",
        "InChIKey": null,
        "Canonical SMILES": "O=C(O)C1=CN=C2C=CC=CC2=C1",
        "Molecular Formula": "C<sub>10</sub>H<sub>7</sub>NO<sub>2</sub>",
        "Molecular Mass": "173.17",
        "Melting Point": "275 °C"
    }
}