{
    "cas_no": "1628-11-1",
    "key_name": "Dichloro(3-chloro-2-methylpropyl)methylsilane",
    "cn_name": "甲基-3-氯异丁基二氯硅烷;",
    "alternate_name": "Silane, dichloro(3-chloro-2-methylpropyl)methyl-;Dichloro(3-chloro-2-methylpropyl)methylsilane;(3-Chloro-2-methylpropyl)methyldichlorosilane",
    "duplicated_cas_no": "",
    "SMILES": "C([Si](C)(Cl)Cl)C(CCl)C",
    "meta_data": {
        "InChI": "InChI=1S/C5H11Cl3Si/c1-5(3-6)4-9(2,7)8/h5H,3-4H2,1-2H3",
        "InChIKey": null,
        "Canonical SMILES": "ClCC(C)C[Si](Cl)(Cl)C",
        "Molecular Formula": "C<sub>5</sub>H<sub>11</sub>Cl<sub>3</sub>Si",
        "Molecular Mass": "205.59",
        "Boiling Point": "196 °C",
        "Density": "1.1703 g/cm³"
    }
}