{
    "cas_no": "777-37-7",
    "key_name": "2-Chloro-5-nitrobenzotrifluoride",
    "cn_name": "2-氯-5-硝基三氟甲苯;",
    "alternate_name": "Benzene, 1-chloro-4-nitro-2-(trifluoromethyl)-;Toluene, 2-chloro-α,α,α-trifluoro-5-nitro-;1-Chloro-4-nitro-2-(trifluoromethyl)benzene;2-Chloro-5-nitrobenzotrifluoride;4-Chloro-3-(trifluoromethyl)nitrobenzene;2-(Trifluoromethyl)-4-nitrochlorobenzene;3-(Trifluoromethyl)-4-chloronitrobenzene;2-Chloro-α,α,α-trifluoro-5-nitrotoluene;2-Chloro-5-nitro-1-trifluoromethylbenzene;2-Chloro-5-nitrotrifluoromethylbenzene;NSC 9467;1-Chloro-2-trifluoromethyl-4-nitrobenzene;4-Nitro-2-(trifluoromethyl)-chlorobenzene",
    "duplicated_cas_no": "",
    "SMILES": "C(F)(F)(F)C1=CC(N(=O)=O)=CC=C1Cl",
    "meta_data": {
        "InChI": "InChI=1S/C7H3ClF3NO2/c8-6-2-1-4(12(13)14)3-5(6)7(9,10)11/h1-3H",
        "InChIKey": null,
        "Canonical SMILES": "O=N(=O)C1=CC=C(Cl)C(=C1)C(F)(F)F",
        "Molecular Formula": "C<sub>7</sub>H<sub>3</sub>ClF<sub>3</sub>NO<sub>2</sub>",
        "Molecular Mass": "225.55",
        "Boiling Point": "232 °C",
        "Melting Point": "22 °C"
    }
}