{
    "cas_no": "6746-94-7",
    "key_name": "Cyclopropylacetylene",
    "cn_name": "环丙乙炔;",
    "alternate_name": "Cyclopropane, ethynyl-;Ethynylcyclopropane;Acetylene, cyclopropyl-;Ethyne, cyclopropyl-;Cyclopropylacetylene;Cyclopropylethyne",
    "duplicated_cas_no": "",
    "SMILES": "C(#C)C1CC1",
    "meta_data": {
        "InChI": "InChI=1S/C5H6/c1-2-5-3-4-5/h1,5H,3-4H2",
        "InChIKey": null,
        "Canonical SMILES": "C#CC1CC1",
        "Molecular Formula": "C<sub>5</sub>H<sub>6</sub>",
        "Molecular Mass": "66.10",
        "Boiling Point": "51.5-52.5 °C",
        "Density": "0.7792 g/cm³ @ Temp: 20 °C"
    }
}