{
    "cas_no": "927-73-1",
    "key_name": "4-Chloro-1-butene",
    "cn_name": null,
    "alternate_name": "1-Butene, 4-chloro-;4-Chloro-1-butene;3-Butenyl chloride;1-Chloro-3-butene;3-Buten-1-yl chloride;Allylcarbinyl chloride",
    "duplicated_cas_no": "",
    "SMILES": "C(C=C)CCl",
    "meta_data": {
        "InChI": "InChI=1S/C4H7Cl/c1-2-3-4-5/h2H,1,3-4H2",
        "InChIKey": null,
        "Canonical SMILES": "ClCCC=C",
        "Molecular Formula": "C<sub>4</sub>H<sub>7</sub>Cl",
        "Molecular Mass": "90.55",
        "Boiling Point": "75 °C",
        "Density": "0.9211 g/cm³ @ Temp: 20 °C"
    }
}