{
    "cas_no": "13356-08-6",
    "key_name": "Fenbutatin oxide",
    "cn_name": "苯丁锡;双-[三(2-甲基-2-苯基丙基)锡]氧化物;",
    "alternate_name": "Distannoxane, 1,1,1,3,3,3-hexakis(2-methyl-2-phenylpropyl)-;Distannoxane, hexakis(β,β-dimethylphenethyl)-;Distannoxane, hexakis(2-methyl-2-phenylpropyl)-;1,1,1,3,3,3-Hexakis(2-methyl-2-phenylpropyl)distannoxane;Trineophyltin oxide;SD 14114;Vendex;Hexakis(2-methyl-2-phenylpropyl)distannoxane;Hexakis(β,β-dimethylphenethyl)distannoxane;Torque (pesticide);Fenbutatin oxide;Neostanox;Torque;Vendex 4L;Hexakis;Osadan;Vendex 4 Liquid;Bis[tris(2-methyl-2-phenylpropyl)tin] oxide;Partner;Bis[tri(2-phenyl-2-methylpropyl)tin] oxide;Bis[tris(2-phenyl-2-methylpropyl)tin] oxide;Bis[tri(2-methyl-2-phenylpropyl)tin] oxide;1,1,1,3,3,3-Hexakis(2,2-dimethyl-2-phenylethyl)distannoxane",
    "duplicated_cas_no": "12684-28-5;57547-75-8",
    "SMILES": "[Sn](O[Sn](CC(C)(C)C1=CC=CC=C1)(CC(C)(C)C2=CC=CC=C2)CC(C)(C)C3=CC=CC=C3)(CC(C)(C)C4=CC=CC=C4)(CC(C)(C)C5=CC=CC=C5)CC(C)(C)C6=CC=CC=C6",
    "meta_data": {
        "InChI": "InChI=1S/6C10H13.O.2Sn/c6*1-10(2,3)9-7-5-4-6-8-9;;;/h6*4-8H,1H2,2-3H3;;;",
        "InChIKey": null,
        "Canonical SMILES": "O([Sn](CC(C=1C=CC=CC1)(C)C)(CC(C=2C=CC=CC2)(C)C)CC(C=3C=CC=CC3)(C)C)[Sn](CC(C=4C=CC=CC4)(C)C)(CC(C=5C=CC=CC5)(C)C)CC(C=6C=CC=CC6)(C)C",
        "Molecular Formula": "C<sub>60</sub>H<sub>78</sub>OSn<sub>2</sub>",
        "Molecular Mass": "1052.68",
        "Boiling Point": "235-240 °C @ Press: 0.05 Torr",
        "Melting Point": "138-139 °C",
        "Density": "0.42 g/cm³"
    }
}