{
    "cas_no": "59-66-5",
    "key_name": "Acetazolamide",
    "cn_name": null,
    "alternate_name": "Acetamide, <em>N</em>-[5-(aminosulfonyl)-1,3,4-thiadiazol-2-yl]-;Acetamide, <em>N</em>-(5-sulfamoyl-1,3,4-thiadiazol-2-yl)-;<em>N</em>-[5-(Aminosulfonyl)-1,3,4-thiadiazol-2-yl]acetamide;5-Acetamide-1,3,4-thiadiazole-2-sulfonamide;2-Acetamido-5-sulfonamido-1,3,4-thiadiazole;Acetazolamide;Diacarb;Diamox;Diuramid;Edemox;Fonurit;Natrionex;Nephramide;Phonurit;5-Acetamido-1,3,4-thiadiazole-2-sulfonamide;2-Acetylamino-1,3,4-thiadiazole-5-sulfonamide;Cidamex;Acetamox;Nephramid;Diutazol;Diluran;Glaupax;Donmox;Glupax;Dehydratin;5-Acetylamino-1,3,4-thiadiazol-2-ylsulfonamide;Diakarb;Acetazolamid;5-Acetamido-1,3,4-thiodiazole-2-sulfonamide;Eumicton;Diuramide;L 579486;<em>N</em>-(5-Sulfamoyl-1,3,4-thiadiazol-2-yl)acetamide;2-Acetamido-1,3,4-thiadiazole-5-sulfonamide;Atenezol;Diuriwas;Defiltran;Didoc;Carbonic anhydrase inhibitor 6063;Diureticum-Holzinger;NSC 145177;N-(5-Sulfamoyl-1,3,4-thiadiazol-2-yl)acetamide;AZM;MeSH ID: D000086",
    "duplicated_cas_no": "5661-25-6;8017-69-4;909032-78-6",
    "SMILES": "S(N)(=O)(=O)C=1SC(NC(C)=O)=NN1",
    "meta_data": {
        "InChI": "InChI=1S/C4H6N4O3S2/c1-2(9)6-3-7-8-4(12-3)13(5,10)11/h1H3,(H2,5,10,11)(H,6,7,9)",
        "InChIKey": null,
        "Canonical SMILES": "O=C(NC1=NN=C(S1)S(=O)(=O)N)C",
        "Molecular Formula": "C<sub>4</sub>H<sub>6</sub>N<sub>4</sub>O<sub>3</sub>S<sub>2</sub>",
        "Molecular Mass": "222.25",
        "Melting Point": "260.5 °C"
    }
}