{
    "cas_no": "5466-77-3",
    "key_name": "2-Ethylhexyl 4-methoxycinnamate",
    "cn_name": null,
    "alternate_name": "2-Propenoic acid, 3-(4-methoxyphenyl)-, 2-ethylhexyl ester;Parsol MCX;2-Ethylhexyl <em>p</em>-methoxycinnamate;Neo Heliopan AV;Sunscreen AV;2-Ethylhexyl 4-methoxycinnamate;Ethylhexyl <em>p</em>-methoxycinnamate;Octyl 4-methoxycinnamate;Octyl <em>p</em>-methoxycinnamate;Parsol MCX-SA;Escalol 557;<em>p</em>-Methoxycinnamic acid 2-ethylhexyl ester;Uvinul 3088;Eusolex 2292;Uvinul MC 80;Octinoxate;Uvinul MC 80N;Octyl methoxycinnamate;4-Methoxycinnamic acid 2-ethylhexyl ester;Parsol MOX;Tinosorb OMC;Escalol 557T;NSC 26466;Escalol 557NB;Uvinul MC 90;Jeescreen OMC;Sun Caps 664;Solarom OMC;Ethylhexyl methoxycinnamate;2-Ethylhexyl methoxycinnamate;3-(4-Methoxyphenyl)-2-propenoic acid 2-ethylhexyl ester;Nomcort TAB-R;Nomcort TAB;Uvinal MC 80;2-Ethylhexyl3-(4-methoxyphenyl)acrylate;Uninul MC 80;Parsol MVX",
    "duplicated_cas_no": "155867-04-2;1202568-70-4",
    "SMILES": "C(=CC(OCC(CCCC)CC)=O)C1=CC=C(OC)C=C1",
    "meta_data": {
        "InChI": "InChI=1S/C18H26O3/c1-4-6-7-15(5-2)14-21-18(19)13-10-16-8-11-17(20-3)12-9-16/h8-13,15H,4-7,14H2,1-3H3",
        "InChIKey": null,
        "Canonical SMILES": "O=C(OCC(CC)CCCC)C=CC1=CC=C(OC)C=C1",
        "Molecular Formula": "C<sub>18</sub>H<sub>26</sub>O<sub>3</sub>",
        "Molecular Mass": "290.40",
        "Boiling Point": "140-150 °C @ Press: 0.076 Torr"
    }
}