{
    "cas_no": "496-73-1",
    "key_name": "4-Methylresorcinol",
    "cn_name": "-甲基-1,3-苯二酚;",
    "alternate_name": "1,3-Benzenediol, 4-methyl-;Resorcinol, 4-methyl-;4-Methyl-1,3-benzenediol;Cresorcinol;2,4-Dihydroxyphenylmethane;4-Methylresorcinol;2,4-Dihydroxytoluene;2,4-Toluenediol;1,3-Dihydroxy-4-methylbenzene;NKO 10;4-Methylresorcin;4-Methyl-1,3-dihydroxybenzene",
    "duplicated_cas_no": "102193-18-0",
    "SMILES": "OC1=C(C)C=CC(O)=C1",
    "meta_data": {
        "InChI": "InChI=1S/C7H8O2/c1-5-2-3-6(8)4-7(5)9/h2-4,8-9H,1H3",
        "InChIKey": null,
        "Canonical SMILES": "OC1=CC=C(C(O)=C1)C",
        "Molecular Formula": "C<sub>7</sub>H<sub>8</sub>O<sub>2</sub>",
        "Molecular Mass": "124.14",
        "Boiling Point": "268.5 °C",
        "Melting Point": "106 °C",
        "Density": "2.39 g/cm³"
    }
}