{
    "cas_no": "15462-91-6",
    "key_name": "3-[2-(3,4-Dimethoxybenzoyl)-4,5-dimethoxyphenyl]-2-pentanone",
    "cn_name": "3-[2-(3,4-二甲氧基苯甲酰基)-4,5-二甲氧基苯基]戊-2-酮;",
    "alternate_name": "2-Pentanone, 3-[2-(3,4-dimethoxybenzoyl)-4,5-dimethoxyphenyl]-;Benzophenone, 2-(1-ethylacetonyl)-3′,4,4′,5-tetramethoxy-;3-[2-(3,4-Dimethoxybenzoyl)-4,5-dimethoxyphenyl]-2-pentanone;3-[2-(3,4-Dimethoxybenzoyl)-4,5-dimethoxyphenyl]pentan-2-one;3-[2-[(3,4-Dimethoxyphenyl)carbonyl]-4,5-dimethoxyphenyl]pentan-2-one",
    "duplicated_cas_no": "",
    "SMILES": "C(=O)(C1=C(C(C(C)=O)CC)C=C(OC)C(OC)=C1)C2=CC(OC)=C(OC)C=C2",
    "meta_data": {
        "InChI": "InChI=1S/C22H26O6/c1-7-15(13(2)23)16-11-20(27-5)21(28-6)12-17(16)22(24)14-8-9-18(25-3)19(10-14)26-4/h8-12,15H,7H2,1-6H3",
        "InChIKey": null,
        "Canonical SMILES": "O=C(C1=CC=C(OC)C(OC)=C1)C2=CC(OC)=C(OC)C=C2C(C(=O)C)CC",
        "Molecular Formula": "C<sub>22</sub>H<sub>26</sub>O<sub>6</sub>",
        "Molecular Mass": "386.44",
        "Melting Point": "156-157 °C"
    }
}