{
    "cas_no": "1605-53-4",
    "key_name": "Diethylphenylphosphine",
    "cn_name": "二乙基苯基膦;",
    "alternate_name": "Phosphine, diethylphenyl-;Diethylphenylphosphine;Phenyldiethylphosphine;NSC 158475",
    "duplicated_cas_no": "",
    "SMILES": "P(CC)(CC)C1=CC=CC=C1",
    "meta_data": {
        "InChI": "InChI=1S/C10H15P/c1-3-11(4-2)10-8-6-5-7-9-10/h5-9H,3-4H2,1-2H3",
        "InChIKey": null,
        "Canonical SMILES": "C=1C=CC(=CC1)P(CC)CC",
        "Molecular Formula": "C<sub>10</sub>H<sub>15</sub>P",
        "Molecular Mass": "166.20",
        "Boiling Point": "100-121 °C @ Press: 10 Torr",
        "Melting Point": "45 °C",
        "Density": "0.9445 g/cm³ @ Temp: 20 °C"
    }
}