{
    "cas_no": "382-45-6",
    "key_name": "Adrenosterone",
    "cn_name": "肾上腺甾酮;肾上腺雄甾酮;雄甾-4-烯-3,11,17-三酮;",
    "alternate_name": "Androst-4-ene-3,11,17-trione;Adrenosterone;Δ<sup>4</sup>-Androstene-3,11,17-trione;11-Keto-4-androstene-3,17-dione;Reichstein's substance G;11-Oxo-4-androstene-3,17-dione;Andrenosterone;(+)-Adrenosterone;NSC 12166;Androst-4-en-3,11,17-trione",
    "duplicated_cas_no": "293738-14-4",
    "SMILES": "C[C@@]12[C@@]3([C@]([C@]4([C@](C)(CC3=O)C(=O)CC4)[H])(CCC1=CC(=O)CC2)[H])[H]",
    "meta_data": {
        "InChI": "InChI=1S/C19H24O3/c1-18-8-7-12(20)9-11(18)3-4-13-14-5-6-16(22)19(14,2)10-15(21)17(13)18/h9,13-14,17H,3-8,10H2,1-2H3/t13-,14-,17+,18-,19-/m0/s1",
        "InChIKey": null,
        "Canonical SMILES": "O=C1C=C2CCC3C(C(=O)CC4(C(=O)CCC34)C)C2(C)CC1",
        "Molecular Formula": "C<sub>19</sub>H<sub>24</sub>O<sub>3</sub>",
        "Molecular Mass": "300.39",
        "Melting Point": "222 °C"
    }
}