{
    "cas_no": "31480-93-0",
    "key_name": "4-Hydroxyphenyl 2-methyl-2-propenoate",
    "cn_name": null,
    "alternate_name": "2-Propenoic acid, 2-methyl-, 4-hydroxyphenyl ester;Methacrylic acid, <em>p</em>-hydroxyphenyl ester;4-Hydroxyphenyl 2-methyl-2-propenoate;4-Methacryloyloxyphenol;4-Hydroxyphenyl methacrylate;Hydroquinone monomethacrylate;<em>p</em>-Hydroxyphenyl methacrylate;PQMA;HQMA-H",
    "duplicated_cas_no": "",
    "SMILES": "O(C(C(C)=C)=O)C1=CC=C(O)C=C1",
    "meta_data": {
        "InChI": "InChI=1S/C10H10O3/c1-7(2)10(12)13-9-5-3-8(11)4-6-9/h3-6,11H,1H2,2H3",
        "InChIKey": null,
        "Canonical SMILES": "O=C(OC1=CC=C(O)C=C1)C(=C)C",
        "Molecular Formula": "C<sub>10</sub>H<sub>10</sub>O<sub>3</sub>",
        "Molecular Mass": "178.18",
        "Melting Point": "120 °C"
    }
}