{
    "cas_no": "10438-96-7",
    "key_name": "<em>N</em>-Methylsulfamoyl chloride",
    "cn_name": null,
    "alternate_name": "Sulfamoyl chloride, <em>N</em>-methyl-;Sulfamoyl chloride, methyl-;<em>N</em>-Methylsulfamoyl chloride;<em>N</em>-Methylaminosulfonyl chloride;Methylaminosulfonyl chloride;Methylsulfamoyl chloride",
    "duplicated_cas_no": "",
    "SMILES": "S(NC)(Cl)(=O)=O",
    "meta_data": {
        "InChI": "InChI=1S/CH4ClNO2S/c1-3-6(2,4)5/h3H,1H3",
        "InChIKey": null,
        "Canonical SMILES": "O=S(=O)(Cl)NC",
        "Molecular Formula": "CH<sub>4</sub>ClNO<sub>2</sub>S",
        "Molecular Mass": "129.57",
        "Boiling Point": "80 °C @ Press: 0.1 Torr"
    }
}