{
    "cas_no": "3244-54-0",
    "key_name": "3,6-Dinitrocarbazole",
    "cn_name": null,
    "alternate_name": "9<em>H</em>-Carbazole, 3,6-dinitro-;Carbazole, 3,6-dinitro-;3,6-Dinitro-9<em>H</em>-carbazole;3,6-Dinitrocarbazole",
    "duplicated_cas_no": "",
    "SMILES": "N(=O)(=O)C=1C=C2C=3C(NC2=CC1)=CC=C(N(=O)=O)C3",
    "meta_data": {
        "InChI": "InChI=1S/C12H7N3O4/c16-14(17)7-1-3-11-9(5-7)10-6-8(15(18)19)2-4-12(10)13-11/h1-6,13H",
        "InChIKey": null,
        "Canonical SMILES": "O=N(=O)C1=CC=C2NC=3C=CC(=CC3C2=C1)N(=O)=O",
        "Molecular Formula": "C<sub>12</sub>H<sub>7</sub>N<sub>3</sub>O<sub>4</sub>",
        "Molecular Mass": "257.20",
        "Melting Point": "365-367 °C"
    }
}