{
    "cas_no": "21050-95-3",
    "key_name": "1-Chlorobenzotriazole",
    "cn_name": null,
    "alternate_name": "1<em>H</em>-Benzotriazole, 1-chloro-;1-Chloro-1<em>H</em>-benzotriazole;1-Chlorobenzotriazole;<em>N</em>-Chlorobenzotriazole;1-Chloro-1,2,3-benzotriazole;NSC 186037;1-Chloro-1<em>H</em>-1,2,3-benzotriazole",
    "duplicated_cas_no": "",
    "SMILES": "ClN1C=2C(=CC=CC2)N=N1",
    "meta_data": {
        "InChI": "InChI=1S/C6H4ClN3/c7-10-6-4-2-1-3-5(6)8-9-10/h1-4H",
        "InChIKey": null,
        "Canonical SMILES": "ClN1N=NC=2C=CC=CC21",
        "Molecular Formula": "C<sub>6</sub>H<sub>4</sub>ClN<sub>3</sub>",
        "Molecular Mass": "153.57",
        "Melting Point": "105-106 °C"
    }
}