{
    "cas_no": "617-29-8",
    "key_name": "2-Methyl-3-hexanol",
    "cn_name": "邻甲基间羟基二苯胺;3-羟基-2\"-甲基二苯胺;",
    "alternate_name": "3-Hexanol, 2-methyl-;2-Methyl-3-hexanol;1-Isopropyl-1-butanol;5-Methyl-4-hexanol;2-Methyl-3-hexyl alcohol;(±)-2-Methyl-3-hexanol;NSC 91501;1-Isopropylbutyl alcohol",
    "duplicated_cas_no": "100295-82-7",
    "SMILES": "C(CCC)(C(C)C)O",
    "meta_data": {
        "InChI": "InChI=1S/C7H16O/c1-4-5-7(8)6(2)3/h6-8H,4-5H2,1-3H3",
        "InChIKey": null,
        "Canonical SMILES": "OC(CCC)C(C)C",
        "Molecular Formula": "C<sub>7</sub>H<sub>16</sub>O",
        "Molecular Mass": "116.20",
        "Boiling Point": "141 °C",
        "Density": "0.8303 g/cm³ @ Temp: 11 °C"
    }
}