{
    "cas_no": "99-12-7",
    "key_name": "1,3-Dimethyl-5-nitrobenzene",
    "cn_name": "3,5-二甲基硝基苯;5-硝基间二甲苯;5-硝基-1,3-二甲苯;1,3-二甲基-5-硝基苯;",
    "alternate_name": "Benzene, 1,3-dimethyl-5-nitro-;<em>m</em>-Xylene, 5-nitro-;1,3-Dimethyl-5-nitrobenzene;3,5-Dimethyl-1-nitrobenzene;5-Nitro-<em>m</em>-xylene;3,5-Dimethylnitrobenzene;1-Nitro-3,5-dimethylbenzene;NSC 5403;5-Methyl-3-nitrotoluene",
    "duplicated_cas_no": "",
    "SMILES": "N(=O)(=O)C1=CC(C)=CC(C)=C1",
    "meta_data": {
        "InChI": "InChI=1S/C8H9NO2/c1-6-3-7(2)5-8(4-6)9(10)11/h3-5H,1-2H3",
        "InChIKey": null,
        "Canonical SMILES": "O=N(=O)C=1C=C(C=C(C1)C)C",
        "Molecular Formula": "C<sub>8</sub>H<sub>9</sub>NO<sub>2</sub>",
        "Molecular Mass": "151.16",
        "Boiling Point": "274 °C",
        "Melting Point": "75 °C"
    }
}