{
    "cas_no": "82231-52-5",
    "key_name": "4-Bromo-5-methyl-1<em>H</em>-pyrazole-3-carboxylic acid",
    "cn_name": "5-甲基-4-溴-1H-吡唑-3-羧酸;",
    "alternate_name": "1<em>H</em>-Pyrazole-3-carboxylic acid, 4-bromo-5-methyl-;4-Bromo-5-methyl-1<em>H</em>-pyrazole-3-carboxylic acid;3-Carboxy-4-bromo-5-methylpyrazole;NSC 215265",
    "duplicated_cas_no": "861382-63-0;2850349-95-8",
    "SMILES": "C(O)(=O)C=1C(Br)=C(C)NN1",
    "meta_data": {
        "InChI": "InChI=1S/C5H5BrN2O2/c1-2-3(6)4(5(9)10)8-7-2/h1H3,(H,7,8)(H,9,10)",
        "InChIKey": null,
        "Canonical SMILES": "O=C(O)C1=NNC(=C1Br)C",
        "Molecular Formula": "C<sub>5</sub>H<sub>5</sub>BrN<sub>2</sub>O<sub>2</sub>",
        "Molecular Mass": "205.01",
        "Melting Point": "256-257 °C"
    }
}