{
    "cas_no": "373-44-4",
    "key_name": "1,8-Octanediamine",
    "cn_name": "1,8-辛二胺;",
    "alternate_name": "1,8-Octanediamine;1,8-Diaminooctane;Octamethylenediamine;1,8-Octamethylenediamine;1,8-Octylenediamine;1,8-Diamino-<em>n</em>-octane;α,ω-Octanediamine",
    "duplicated_cas_no": "95930-99-7",
    "SMILES": "C(CCCCN)CCCN",
    "meta_data": {
        "InChI": "InChI=1S/C8H20N2/c9-7-5-3-1-2-4-6-8-10/h1-10H2",
        "InChIKey": null,
        "Canonical SMILES": "NCCCCCCCCN",
        "Molecular Formula": "C<sub>8</sub>H<sub>20</sub>N<sub>2</sub>",
        "Molecular Mass": "144.26",
        "Boiling Point": "225 °C",
        "Melting Point": "52 °C"
    }
}