{
    "cas_no": "14593-04-5",
    "key_name": "γ-Aminobenzenepropanol",
    "cn_name": "3-氨基-3-苯基-1-丙醇;",
    "alternate_name": "Benzenepropanol, γ-amino-;1-Propanol, 3-amino-3-phenyl-;γ-Aminobenzenepropanol;3-Amino-3-phenyl-1-propanol;3-Amino-3-phenylpropanol;3-Hydroxy-1-phenylpropylamine",
    "duplicated_cas_no": "",
    "SMILES": "C(CCO)(N)C1=CC=CC=C1",
    "meta_data": {
        "InChI": "InChI=1S/C9H13NO/c10-9(6-7-11)8-4-2-1-3-5-8/h1-5,9,11H,6-7,10H2",
        "InChIKey": null,
        "Canonical SMILES": "OCCC(N)C=1C=CC=CC1",
        "Molecular Formula": "C<sub>9</sub>H<sub>13</sub>NO",
        "Molecular Mass": "151.21",
        "Boiling Point": "117-118 °C @ Press: 0.5 Torr",
        "Melting Point": "74.5-75 °C"
    }
}