{
    "cas_no": "2035-89-4",
    "key_name": "Formaldehyde, dimethylhydrazone",
    "cn_name": null,
    "alternate_name": "Formaldehyde, dimethylhydrazone;Dimethylmethylenehydrazine;Formaldehyde 2,2-dimethylhydrazone;NSC 516745",
    "duplicated_cas_no": "",
    "SMILES": "N(N=C)(C)C",
    "meta_data": {
        "InChI": "InChI=1S/C3H8N2/c1-4-5(2)3/h1H2,2-3H3",
        "InChIKey": null,
        "Canonical SMILES": "N(=C)N(C)C",
        "Molecular Formula": "C<sub>3</sub>H<sub>8</sub>N<sub>2</sub>",
        "Molecular Mass": "72.11",
        "Boiling Point": "72 °C @ Press: 730 Torr",
        "Melting Point": "-103 °C",
        "Density": "0.8125 g/cm³ @ Temp: 20 °C"
    }
}