{
    "cas_no": "56355-62-5",
    "key_name": "4-Thiazolecarboxylic acid, 2-bromo-5-methyl-, ethyl ester",
    "cn_name": null,
    "alternate_name": "4-Thiazolecarboxylic acid, 2-bromo-5-methyl-, ethyl ester;2-Bromo-5-methyl-1,3-thiazole-4-carboxylic acid ethyl ester;Ethyl 2-bromo-5-methylthiazole-4-carboxylate",
    "duplicated_cas_no": "",
    "SMILES": "C(OCC)(=O)C1=C(C)SC(Br)=N1",
    "meta_data": {
        "InChI": "InChI=1S/C7H8BrNO2S/c1-3-11-6(10)5-4(2)12-7(8)9-5/h3H2,1-2H3",
        "InChIKey": null,
        "Canonical SMILES": "O=C(OCC)C=1N=C(Br)SC1C",
        "Molecular Formula": "C<sub>7</sub>H<sub>8</sub>BrNO<sub>2</sub>S",
        "Molecular Mass": "250.11",
        "Melting Point": "51-52 °C"
    }
}