{
    "cas_no": "611-07-4",
    "key_name": "5-Chloro-2-nitrophenol",
    "cn_name": "2-硝基-5-氯苯酚;",
    "alternate_name": "Phenol, 5-chloro-2-nitro-;5-Chloro-2-nitrophenol;2-Nitro-5-chlorophenol",
    "duplicated_cas_no": "",
    "SMILES": "N(=O)(=O)C1=C(O)C=C(Cl)C=C1",
    "meta_data": {
        "InChI": "InChI=1S/C6H4ClNO3/c7-4-1-2-5(8(10)11)6(9)3-4/h1-3,9H",
        "InChIKey": null,
        "Canonical SMILES": "O=N(=O)C1=CC=C(Cl)C=C1O",
        "Molecular Formula": "C<sub>6</sub>H<sub>4</sub>ClNO<sub>3</sub>",
        "Molecular Mass": "173.55",
        "Melting Point": "41 °C"
    }
}