{
    "cas_no": "16400-51-4",
    "key_name": "3,3′-Dibromobiphenyl",
    "cn_name": null,
    "alternate_name": "1,1′-Biphenyl, 3,3′-dibromo-;Biphenyl, 3,3′-dibromo-;3,3′-Dibromo-1,1′-biphenyl;3,3′-Dibromobiphenyl;<em>m</em>,<em>m</em>′-Dibromobiphenyl;3,3′-Dibromodiphenyl;PBB 11;1-Bromo-3-(3-bromophenyl)benzene",
    "duplicated_cas_no": "",
    "SMILES": "BrC=1C=C(C=CC1)C2=CC(Br)=CC=C2",
    "meta_data": {
        "InChI": "InChI=1S/C12H8Br2/c13-11-5-1-3-9(7-11)10-4-2-6-12(14)8-10/h1-8H",
        "InChIKey": null,
        "Canonical SMILES": "BrC=1C=CC=C(C1)C=2C=CC=C(Br)C2",
        "Molecular Formula": "C<sub>12</sub>H<sub>8</sub>Br<sub>2</sub>",
        "Molecular Mass": "312.00",
        "Melting Point": "171 °C"
    }
}