{
    "cas_no": "5329-12-4",
    "key_name": "(2,4,6-Trichlorophenyl)hydrazine",
    "cn_name": "2,4,6-三氯苯肼;",
    "alternate_name": "Hydrazine, (2,4,6-trichlorophenyl)-;(2,4,6-Trichlorophenyl)hydrazine;NSC 1869;<em>N</em>-(2,4,6-Trichlorophenyl)hydrazine",
    "duplicated_cas_no": "",
    "SMILES": "N(N)C1=C(Cl)C=C(Cl)C=C1Cl",
    "meta_data": {
        "InChI": "InChI=1S/C6H5Cl3N2/c7-3-1-4(8)6(11-10)5(9)2-3/h1-2,11H,10H2",
        "InChIKey": null,
        "Canonical SMILES": "ClC=1C=C(Cl)C(NN)=C(Cl)C1",
        "Molecular Formula": "C<sub>6</sub>H<sub>5</sub>Cl<sub>3</sub>N<sub>2</sub>",
        "Molecular Mass": "211.48",
        "Melting Point": "138 °C"
    }
}