{
    "cas_no": "18623-11-5",
    "key_name": "Octadecylsilane",
    "cn_name": "十八烷基硅烷;",
    "alternate_name": "Silane, octadecyl-;Octadecylsilane;Octadecyltrihydridosilane",
    "duplicated_cas_no": "",
    "SMILES": "C(CCCCCCCCC)CCCCCCCC[SiH3]",
    "meta_data": {
        "InChI": "InChI=1S/C18H40Si/c1-2-3-4-5-6-7-8-9-10-11-12-13-14-15-16-17-18-19/h2-18H2,1,19H3",
        "InChIKey": null,
        "Canonical SMILES": "CCCCCCCCCCCCCCCCCC[SiH3]",
        "Molecular Formula": "C<sub>18</sub>H<sub>40</sub>Si",
        "Molecular Mass": "284.60",
        "Boiling Point": "195 °C @ Press: 15 Torr",
        "Melting Point": "29 °C",
        "Density": "0.794 g/cm³"
    }
}