{
    "cas_no": "110-69-0",
    "key_name": "Butanal, oxime",
    "cn_name": "丁醛肟;",
    "alternate_name": "Butanal, oxime;Butyraldehyde, oxime;Butyraldoxime;<em>n</em>-Butyraldoxime;Butylaldoxime;Butanaldoxime;<em>n</em>-Butylaldoxime;NSC 1487",
    "duplicated_cas_no": "",
    "SMILES": "C(C=NO)CC",
    "meta_data": {
        "InChI": "InChI=1S/C4H9NO/c1-2-3-4-5-6/h4,6H,2-3H2,1H3",
        "InChIKey": null,
        "Canonical SMILES": "ON=CCCC",
        "Molecular Formula": "C<sub>4</sub>H<sub>9</sub>NO",
        "Molecular Mass": "87.12",
        "Boiling Point": "154 °C",
        "Melting Point": "-29.5 °C",
        "Density": "0.906 g/cm³ @ Temp: 204 °C"
    }
}