{
    "cas_no": "63550-99-2",
    "key_name": "Rebaudioside C",
    "cn_name": "瑞鲍迪甙C;",
    "alternate_name": "Kaur-16-en-18-oic acid, 13-[(<em>O</em>-6-deoxy-α-<span class=\"text-smallcaps\">L</smallcap>-mannopyranosyl-(1→2)-<em>O</em>-[β-<smallcap>D</smallcap>-glucopyranosyl-(1→3)]-β-<smallcap>D</smallcap>-glucopyranosyl)oxy]-, β-<smallcap>D</span>-glucopyranosyl ester, (4α)-;Rebaudioside C;Dulcoside B",
    "duplicated_cas_no": "",
    "SMILES": "C[C@]12[C@]3([C@]4(C[C@](O[C@H]5[C@H](O[C@H]6[C@H](O)[C@H](O)[C@@H](O)[C@H](C)O6)[C@@H](O[C@@H]7O[C@H](CO)[C@@H](O)[C@H](O)[C@H]7O)[C@H](O)[C@@H](CO)O5)(C(=C)C4)CC3)CC[C@@]1([C@@](C(O[C@@H]8O[C@H](CO)[C@@H](O)[C@H](O)[C@H]8O)=O)(C)CCC2)[H])[H]",
    "meta_data": {
        "InChI": "InChI=1S/C44H70O22/c1-17-12-43-10-6-22-41(3,8-5-9-42(22,4)40(58)65-38-33(57)30(54)26(50)20(14-46)61-38)23(43)7-11-44(17,16-43)66-39-35(64-36-31(55)28(52)24(48)18(2)59-36)34(27(51)21(15-47)62-39)63-37-32(56)29(53)25(49)19(13-45)60-37/h18-39,45-57H,1,5-16H2,2-4H3/t18-,19+,20+,21+,22-,23-,24-,25+,26+,27+,28+,29-,30-,31+,32+,33+,34-,35+,36-,37-,38-,39-,41+,42+,43+,44-/m0/s1",
        "InChIKey": null,
        "Canonical SMILES": "O=C(OC1OC(CO)C(O)C(O)C1O)C2(C)CCCC3(C)C2CCC45CC(=C)C(OC6OC(CO)C(O)C(OC7OC(CO)C(O)C(O)C7O)C6OC8OC(C)C(O)C(O)C8O)(CCC43)C5",
        "Molecular Formula": "C<sub>44</sub>H<sub>70</sub>O<sub>22</sub>",
        "Molecular Mass": "",
        "Melting Point": "186-188 °C"
    }
}