{
    "cas_no": "2380-91-8",
    "key_name": "1-(4-Hydroxyphenyl)ethanol",
    "cn_name": null,
    "alternate_name": "Benzenemethanol, 4-hydroxy-α-methyl-;Benzyl alcohol, <em>p</em>-hydroxy-α-methyl-;4-Hydroxy-α-methylbenzenemethanol;1-(4-Hydroxyphenyl)ethyl alcohol;<em>p</em>-Hydroxy-α-methylbenzyl alcohol;1-(4-Hydroxyphenyl)-1-ethanol;1-(4-Hydroxyphenyl)ethanol;<em>p</em>-(1-Hydroxyethyl)phenol;(<em>RS</em>)-1-(4-Hydroxyphenyl)ethanol;4-Hydroxyphenylmethylcarbinol;4-(1-Hydroxyethyl)phenol;1-(<em>p</em>-Hydroxyphenyl)ethanol;α-Methyl(4-hydroxy)benzyl alcohol",
    "duplicated_cas_no": "93453-79-3",
    "SMILES": "C(C)(O)C1=CC=C(O)C=C1",
    "meta_data": {
        "InChI": "InChI=1S/C8H10O2/c1-6(9)7-2-4-8(10)5-3-7/h2-6,9-10H,1H3",
        "InChIKey": null,
        "Canonical SMILES": "OC1=CC=C(C=C1)C(O)C",
        "Molecular Formula": "C<sub>8</sub>H<sub>10</sub>O<sub>2</sub>",
        "Molecular Mass": "138.16",
        "Melting Point": "132-133 °C"
    }
}