{
    "cas_no": "1078-31-5",
    "key_name": "2-[(Trimethylsilyl)oxy]benzaldehyde",
    "cn_name": null,
    "alternate_name": "Benzaldehyde, 2-[(trimethylsilyl)oxy]-;Benzaldehyde, <em>o</em>-(trimethylsiloxy)-;2-[(Trimethylsilyl)oxy]benzaldehyde;2-(Trimethylsilyloxy)benzaldehyde;2-(Trimethylsiloxy)benzaldehyde;<em>o</em>-(Trimethylsiloxy)benzaldehyde;2-Trimethylsilanyloxy-benzaldehyde",
    "duplicated_cas_no": "",
    "SMILES": "O([Si](C)(C)C)C1=C(C=O)C=CC=C1",
    "meta_data": {
        "InChI": "InChI=1S/C10H14O2Si/c1-13(2,3)12-10-7-5-4-6-9(10)8-11/h4-8H,1-3H3",
        "InChIKey": null,
        "Canonical SMILES": "O=CC=1C=CC=CC1O[Si](C)(C)C",
        "Molecular Formula": "C<sub>10</sub>H<sub>14</sub>O<sub>2</sub>Si",
        "Molecular Mass": "194.30",
        "Boiling Point": "142 °C @ Press: 25 Torr",
        "Density": "1.013 g/cm³"
    }
}