{
    "cas_no": "88-86-8",
    "key_name": "2,5-Dichloro-3-nitrobenzoic acid",
    "cn_name": "2,5-二氯-3-硝基苯甲酸;",
    "alternate_name": "Benzoic acid, 2,5-dichloro-3-nitro-;2,5-Dichloro-3-nitrobenzoic acid;Dinoben;3-Nitro-2,5-dichlorobenzoic acid",
    "duplicated_cas_no": "",
    "SMILES": "C(O)(=O)C1=C(Cl)C(N(=O)=O)=CC(Cl)=C1",
    "meta_data": {
        "InChI": "InChI=1S/C7H3Cl2NO4/c8-3-1-4(7(11)12)6(9)5(2-3)10(13)14/h1-2H,(H,11,12)",
        "InChIKey": null,
        "Canonical SMILES": "O=C(O)C1=CC(Cl)=CC(=C1Cl)N(=O)=O",
        "Molecular Formula": "C<sub>7</sub>H<sub>3</sub>Cl<sub>2</sub>NO<sub>4</sub>",
        "Molecular Mass": "236.01",
        "Melting Point": "220 °C"
    }
}