{
    "cas_no": "782501-25-1",
    "key_name": "1,1-Dimethylethyl 4-(chlorosulfonyl)-1-piperidinecarboxylate",
    "cn_name": null,
    "alternate_name": "1-Piperidinecarboxylic acid, 4-(chlorosulfonyl)-, 1,1-dimethylethyl ester;1,1-Dimethylethyl 4-(chlorosulfonyl)-1-piperidinecarboxylate;4-Chlorosulfonylpiperidine-1-carboxylic acid tert-butyl ester;<em>tert</em>-Butyl 4-(chlorosulfonyl)piperidine-1-carboxylate",
    "duplicated_cas_no": "",
    "SMILES": "C(OC(C)(C)C)(=O)N1CCC(S(Cl)(=O)=O)CC1",
    "meta_data": {
        "InChI": "InChI=1S/C10H18ClNO4S/c1-10(2,3)16-9(13)12-6-4-8(5-7-12)17(11,14)15/h8H,4-7H2,1-3H3",
        "InChIKey": null,
        "Canonical SMILES": "O=C(OC(C)(C)C)N1CCC(CC1)S(=O)(=O)Cl",
        "Molecular Formula": "C<sub>10</sub>H<sub>18</sub>ClNO<sub>4</sub>S",
        "Molecular Mass": "283.77",
        "Melting Point": "83-84 °C"
    }
}