{
    "cas_no": "61516-73-2",
    "key_name": "Ethyl (2-oxo-1-pyrrolidinyl)acetate",
    "cn_name": null,
    "alternate_name": "1-Pyrrolidineacetic acid, 2-oxo-, ethyl ester;Ethyl 2-oxo-1-pyrrolidineacetate;Ethyl (2-oxo-1-pyrrolidinyl)acetate;1-(Ethoxycarbonylmethyl)-2-pyrrolidone",
    "duplicated_cas_no": "",
    "SMILES": "C(C(OCC)=O)N1C(=O)CCC1",
    "meta_data": {
        "InChI": "InChI=1S/C8H13NO3/c1-2-12-8(11)6-9-5-3-4-7(9)10/h2-6H2,1H3",
        "InChIKey": null,
        "Canonical SMILES": "O=C(OCC)CN1C(=O)CCC1",
        "Molecular Formula": "C<sub>8</sub>H<sub>13</sub>NO<sub>3</sub>",
        "Molecular Mass": "171.19",
        "Boiling Point": "108-113 °C @ Press: 1-2 Torr"
    }
}