{
    "cas_no": "2638-94-0",
    "key_name": "4,4-Azobis(4-cyanovaleric acid)",
    "cn_name": "4,4\"-偶氮双(4-氰基戊酸);",
    "alternate_name": "Pentanoic acid, 4,4′-(1,2-diazenediyl)bis[4-cyano-;Valeric acid, 4,4′-azobis[4-cyano-;Pentanoic acid, 4,4′-azobis[4-cyano-;4,4′-(1,2-Diazenediyl)bis[4-cyanopentanoic acid];4,4′-Azobis[4-cyanopentanoic acid];Azobis(cyanovaleric acid);4,4′-Azobis[4-cyanovaleric acid];V 501;4,4′-Azobis(cyanovaleric acid);4,4′-Azobis(4-cyanopentanecarboxylic acid);ACV-A;NSC 114466;ABCVA;VA 501;Vazo 68WSP;Vazo 68;NC 25;NC 25 (catalyst);ABCPA;Vazo V 501;4,4-Azobis(4-cyanovaleric acid);4,4′-Azobiscyanopentanoic acid;ACA",
    "duplicated_cas_no": "25532-89-2;30248-30-7;306284-14-0;158947-06-9;159172-39-1;209196-69-0;252237-53-9",
    "SMILES": "C(N=NC(CCC(O)=O)(C#N)C)(CCC(O)=O)(C#N)C",
    "meta_data": {
        "InChI": "InChI=1S/C12H16N4O4/c1-11(7-13,5-3-9(17)18)15-16-12(2,8-14)6-4-10(19)20/h3-6H2,1-2H3,(H,17,18)(H,19,20)",
        "InChIKey": null,
        "Canonical SMILES": "N#CC(N=NC(C#N)(C)CCC(=O)O)(C)CCC(=O)O",
        "Molecular Formula": "C<sub>12</sub>H<sub>16</sub>N<sub>4</sub>O<sub>4</sub>",
        "Molecular Mass": "280.28",
        "Melting Point": "120-123 °C (decomp)"
    }
}