{
    "cas_no": "67253-30-9",
    "key_name": "<em>N</em>-(2-Chloroacetyl)-<span class=\"text-smallcaps\">L</span>-isoleucine",
    "cn_name": "氯乙酰基-L-异亮氨酸;",
    "alternate_name": "<span class=\"text-smallcaps\">L</span>-Isoleucine, <em>N</em>-(2-chloroacetyl)-;<span class=\"text-smallcaps\">L</span>-Isoleucine, <em>N</em>-(chloroacetyl)-;Isoleucine, <em>N</em>-(chloroacetyl)-;<em>N</em>-(2-Chloroacetyl)-<span class=\"text-smallcaps\">L</span>-isoleucine;<em>N</em>-Chloroacetyl-<span class=\"text-smallcaps\">L</span>-isoleucine",
    "duplicated_cas_no": "",
    "SMILES": "[C@H](NC(CCl)=O)([C@H](CC)C)C(O)=O",
    "meta_data": {
        "InChI": "InChI=1S/C8H14ClNO3/c1-3-5(2)7(8(12)13)10-6(11)4-9/h5,7H,3-4H2,1-2H3,(H,10,11)(H,12,13)/t5-,7-/m0/s1",
        "InChIKey": null,
        "Canonical SMILES": "O=C(NC(C(=O)O)C(C)CC)CCl",
        "Molecular Formula": "C<sub>8</sub>H<sub>14</sub>ClNO<sub>3</sub>",
        "Molecular Mass": "207.65",
        "Melting Point": "81 °C"
    }
}