{
    "cas_no": "109-05-7",
    "key_name": "2-Methylpiperidine",
    "cn_name": "2-甲基哌啶;2-甲基六氢吡啶;",
    "alternate_name": "Piperidine, 2-methyl-;2-Pipecoline;2-Methylpiperidine;α-Pipecoline;α-Methylpiperidine;(±)-α-Pipecoline;<span class=\"text-smallcaps\">DL</span>-2-Methylpiperidine;(±)-2-Methylpiperidine;NSC 31047;NSC 462",
    "duplicated_cas_no": "3000-79-1",
    "SMILES": "CC1CCCCN1",
    "meta_data": {
        "InChI": "InChI=1S/C6H13N/c1-6-4-2-3-5-7-6/h6-7H,2-5H2,1H3",
        "InChIKey": null,
        "Canonical SMILES": "N1CCCCC1C",
        "Molecular Formula": "C<sub>6</sub>H<sub>13</sub>N",
        "Molecular Mass": "99.17",
        "Boiling Point": "120 °C",
        "Density": "0.9527 g/cm³ @ Temp: 21 °C"
    }
}