{
    "cas_no": "42016-91-1",
    "key_name": "2-Hydroxy-3,5-diiodobenzoyl chloride",
    "cn_name": "3,5-二碘水杨酰氯;",
    "alternate_name": "Benzoyl chloride, 2-hydroxy-3,5-diiodo-;Salicyloyl chloride, 3,5-diiodo-;Salicylyl chloride, 3,5-diiodo-;2-Hydroxy-3,5-diiodobenzoyl chloride;3,5-Diiodosalicylyl chloride;3,5-Diiodosalicyloyl chloride;3,5-Diiodosalicyl chloride;3,5-Diiodosalicylic acid chloride;3,5-Diiodo-2-hydroxybenzoyl chloride",
    "duplicated_cas_no": "",
    "SMILES": "C(Cl)(=O)C1=C(O)C(I)=CC(I)=C1",
    "meta_data": {
        "InChI": "InChI=1S/C7H3ClI2O2/c8-7(12)4-1-3(9)2-5(10)6(4)11/h1-2,11H",
        "InChIKey": null,
        "Canonical SMILES": "O=C(Cl)C=1C=C(I)C=C(I)C1O",
        "Molecular Formula": "C<sub>7</sub>H<sub>3</sub>ClI<sub>2</sub>O<sub>2</sub>",
        "Molecular Mass": "408.36",
        "Melting Point": "90 °C"
    }
}