{
    "cas_no": "4462-55-9",
    "key_name": "3-(2,6-Dichlorophenyl)-5-methyl-4-isoxazolecarbonyl chloride",
    "cn_name": "3-(2,6-二氯苯基)-5-甲基异噁唑-4-甲酰氯;",
    "alternate_name": "4-Isoxazolecarbonyl chloride, 3-(2,6-dichlorophenyl)-5-methyl-;3-(2,6-Dichlorophenyl)-5-methyl-4-isoxazolecarbonyl chloride;3-(2,6-Dichlorophenyl)-5-methyl-4-isoxazolylcarbonyl chloride;3-(2,6-Dichlorophenyl)-5-methylisoxazole-4-carbonyl chloride",
    "duplicated_cas_no": "",
    "SMILES": "ClC1=C(C(Cl)=CC=C1)C=2C(C(Cl)=O)=C(C)ON2",
    "meta_data": {
        "InChI": "InChI=1S/C11H6Cl3NO2/c1-5-8(11(14)16)10(15-17-5)9-6(12)3-2-4-7(9)13/h2-4H,1H3",
        "InChIKey": null,
        "Canonical SMILES": "O=C(Cl)C=1C(=NOC1C)C=2C(Cl)=CC=CC2Cl",
        "Molecular Formula": "C<sub>11</sub>H<sub>6</sub>Cl<sub>3</sub>NO<sub>2</sub>",
        "Molecular Mass": "290.53",
        "Melting Point": "88-91 °C"
    }
}