{
    "cas_no": "2950-43-8",
    "key_name": "Hydroxylamine-<em>O</em>-sulfonic acid",
    "cn_name": "羟胺磺酸;羟胺-O-磺酸;羟胺-2-磺酸;羟胺-邻磺酸;",
    "alternate_name": "Sulfuric acid, monoazanyl ester;Hydroxylamine-<em>O</em>-sulfonic acid;Amidoperoxymonosulfuric acid;Amidosulfonic peracid;Aminomonopersulfuric acid;Ammonia-<em>N</em>-oxide-<em>O</em>-sulfonic acid betaine;Hydroxylamine, <em>O</em>-sulfo-;Permonosulfamic acid;Sulfoperamidic acid;Amidoperoxymonosulfuric acid (HOS(O)<sub>2</sub>ONH<sub>2</sub>);HAOS;Hydroxylaminesulfonic acid;(Aminooxy)sulfonic acid;(Aminooxy)(hydroxy)sulfane dioxide",
    "duplicated_cas_no": "135484-95-6;1085697-83-1",
    "SMILES": "S(ON)(=O)(=O)O",
    "meta_data": {
        "InChI": "InChI=1S/H3NO4S/c1-5-6(2,3)4/h1H2,(H,2,3,4)",
        "InChIKey": null,
        "Canonical SMILES": "O=S(=O)(O)ON",
        "Molecular Formula": "H<sub>3</sub>NO<sub>4</sub>S",
        "Molecular Mass": "113.09",
        "Boiling Point": "39 °C @ Press: 0.4 Torr",
        "Melting Point": "210 °C"
    }
}