{
    "cas_no": "5447-86-9",
    "key_name": "10,10-Dimethyl-9(10<em>H</em>)-anthracenone",
    "cn_name": "10,10-二甲基蒽酮;",
    "alternate_name": "9(10<em>H</em>)-Anthracenone, 10,10-dimethyl-;Anthrone, 10,10-dimethyl-;10,10-Dimethyl-9(10<em>H</em>)-anthracenone;10,10-Dimethylanthrone;10,10-Dimethyl-9-anthrone;NSC 17539;10,10-Dimethyl-10<em>H</em>-anthracen-9-one;10,10-Dimethyl-9,10-dihydroanthracen-9-one;10,10-Dimethylanthracen-9-one",
    "duplicated_cas_no": "",
    "SMILES": "O=C1C=2C(C(C)(C)C=3C1=CC=CC3)=CC=CC2",
    "meta_data": {
        "InChI": "InChI=1S/C16H14O/c1-16(2)13-9-5-3-7-11(13)15(17)12-8-4-6-10-14(12)16/h3-10H,1-2H3",
        "InChIKey": null,
        "Canonical SMILES": "O=C1C=2C=CC=CC2C(C=3C=CC=CC13)(C)C",
        "Molecular Formula": "C<sub>16</sub>H<sub>14</sub>O",
        "Molecular Mass": "222.28",
        "Melting Point": "99.5-100.5 °C"
    }
}