{
    "cas_no": "91-21-4",
    "key_name": "1,2,3,4-Tetrahydroisoquinoline",
    "cn_name": "1,2,3,4-四氢异喹啉;四氢异喹啉;",
    "alternate_name": "Isoquinoline, 1,2,3,4-tetrahydro-;1,2,3,4-Tetrahydroisoquinoline;Tetrahydroisoquinoline;1,2,3,4-Tetrahydro-2-isoquinoline;1,2,3,4-Tetrahydro-2-azanaphthalene;3,4-Dihydro-1<em>H</em>-isoquinoline;NSC 15312;1,2,3,4-Tetrahydroisoquinline",
    "duplicated_cas_no": "",
    "SMILES": "C=12C(=CC=CC1)CNCC2",
    "meta_data": {
        "InChI": "InChI=1S/C9H11N/c1-2-4-9-7-10-6-5-8(9)3-1/h1-4,10H,5-7H2",
        "InChIKey": null,
        "Canonical SMILES": "C=1C=CC2=C(C1)CNCC2",
        "Molecular Formula": "C<sub>9</sub>H<sub>11</sub>N",
        "Molecular Mass": "133.19",
        "Boiling Point": "232.5 °C",
        "Melting Point": "&lt;-15 °C",
        "Density": "1.064 g/cm³"
    }
}