{
    "cas_no": "16086-14-9",
    "key_name": "2,2-Dichloro-1,1-ethanediol",
    "cn_name": "二氯乙醛水合物;",
    "alternate_name": "1,1-Ethanediol, 2,2-dichloro-;Acetaldehyde, dichloro-, hydrate;2,2-Dichloro-1,1-ethanediol;Dichloroacetaldehyde hydrate",
    "duplicated_cas_no": "",
    "SMILES": "C(C(O)O)(Cl)Cl",
    "meta_data": {
        "InChI": "InChI=1S/C2H4Cl2O2/c3-1(4)2(5)6/h1-2,5-6H",
        "InChIKey": null,
        "Canonical SMILES": "ClC(Cl)C(O)O",
        "Molecular Formula": "C<sub>2</sub>H<sub>4</sub>Cl<sub>2</sub>O<sub>2</sub>",
        "Molecular Mass": "130.96",
        "Boiling Point": "118 °C @ Press: 25 Torr"
    }
}