{
    "cas_no": "76513-69-4",
    "key_name": "2-(Trimethylsilyl)ethoxymethyl chloride",
    "cn_name": null,
    "alternate_name": "Silane, [2-(chloromethoxy)ethyl]trimethyl-;[2-(Chloromethoxy)ethyl]trimethylsilane;2-(Trimethylsilyl)ethoxymethyl chloride;Chloromethyl 2-(trimethylsilyl)ethyl ether;β-(Trimethylsilyl)ethoxymethyl chloride;Chloromethyl trimethylsilylethyl ether;SEM chloride;2-(Trimethylsilanyl)ethoxymethyl chloride;[2-[(Chloromethyl)oxy]ethyl]trimethylsilane;[[2-(Trimethylsilyl)ethyl]oxy]methyl chloride;SEM Cl;[[β-(Trimethylsilyl)ethyl]oxy]methyl chloride;(2-(Chloromethoxy)ethyl)trimethylsilane;Hypochlorous acid, 2-(trimethylsilyl)ethyl ester;2-(Trimethylsilyl)ethyl hypochlorite",
    "duplicated_cas_no": "2762206-50-6",
    "SMILES": "C([Si](C)(C)C)COCCl",
    "meta_data": {
        "InChI": "InChI=1S/C6H15ClOSi/c1-9(2,3)5-4-8-6-7/h4-6H2,1-3H3",
        "InChIKey": null,
        "Canonical SMILES": "ClCOCC[Si](C)(C)C",
        "Molecular Formula": "C<sub>6</sub>H<sub>15</sub>ClOSi",
        "Molecular Mass": "166.72",
        "Boiling Point": "57.00 °C"
    }
}