{
    "cas_no": "39225-17-7",
    "key_name": "Diethyl <em>P</em>-[(4-chlorophenyl)methyl]phosphonate",
    "cn_name": "4-氯苄基磷酸二乙酯;",
    "alternate_name": "Phosphonic acid, <em>P</em>-[(4-chlorophenyl)methyl]-, diethyl ester;Phosphonic acid, [(4-chlorophenyl)methyl]-, diethyl ester;Diethyl <em>P</em>-[(4-chlorophenyl)methyl]phosphonate;<em>p</em>-(Chlorobenzyl)phosphonic acid diethyl ester;Diethyl (<em>p</em>-chlorobenzyl)phosphonate;Diethyl (4-chlorobenzyl)phosphonate;[(4-Chlorophenyl)methyl]phosphonic acid diethyl ester;4-(Chlorobenzyl)phosphonic acid diethyl ester;NSC 202843;1-Chloro-4-(diethoxyphosphorylmethyl)benzene",
    "duplicated_cas_no": "1616981-99-7",
    "SMILES": "C(P(OCC)(OCC)=O)C1=CC=C(Cl)C=C1",
    "meta_data": {
        "InChI": "InChI=1S/C11H16ClO3P/c1-3-14-16(13,15-4-2)9-10-5-7-11(12)8-6-10/h5-8H,3-4,9H2,1-2H3",
        "InChIKey": null,
        "Canonical SMILES": "O=P(OCC)(OCC)CC1=CC=C(Cl)C=C1",
        "Molecular Formula": "C<sub>11</sub>H<sub>16</sub>ClO<sub>3</sub>P",
        "Molecular Mass": "262.67",
        "Boiling Point": "180 °C @ Press: 3 Torr",
        "Melting Point": "90 °C"
    }
}