{
    "cas_no": "5422-44-6",
    "key_name": "1-Methyl-1<em>H</em>-tetrazol-5-amine",
    "cn_name": null,
    "alternate_name": "1<em>H</em>-Tetrazol-5-amine, 1-methyl-;1<em>H</em>-Tetrazole, 5-amino-1-methyl-;1,2,3,4-Tetrazole, 5-amino-1-methyl-;1-Methyl-1<em>H</em>-tetrazol-5-amine;5-Amino-1-methyltetrazole;5-Amino-1-methyl-1<em>H</em>-tetrazole;1-Methyl-5-tetrazolamine;1-Methyl-5-aminotetrazole;NSC 11104;(1-Methyl-1<em>H</em>-tetrazol-5-yl)amine;1-Methyl-1<em>H</em>-1,2,3,4-tetrazol-5-amine;1-Methyl-1<em>H</em>-tetraazol-5-amine",
    "duplicated_cas_no": "2639683-65-9",
    "SMILES": "NC=1N(C)N=NN1",
    "meta_data": {
        "InChI": "InChI=1S/C2H5N5/c1-7-2(3)4-5-6-7/h1H3,(H2,3,4,6)",
        "InChIKey": null,
        "Canonical SMILES": "N=1N=C(N)N(N1)C",
        "Molecular Formula": "C<sub>2</sub>H<sub>5</sub>N<sub>5</sub>",
        "Molecular Mass": "99.09",
        "Melting Point": "222 °C"
    }
}