{
    "cas_no": "16497-41-9",
    "key_name": "<em>N</em><sup>1</sup>,<em>N</em><sup>2</sup>-Diphenyl-1,2-benzenedicarboxamide",
    "cn_name": "N-苯基邻苯二酰亚胺;",
    "alternate_name": "1,2-Benzenedicarboxamide, <em>N</em><sup>1</sup>,<em>N</em><sup>2</sup>-diphenyl-;Phthalanilide;1,2-Benzenedicarboxamide, <em>N</em>,<em>N</em>′-diphenyl-;<em>N</em><sup>1</sup>,<em>N</em><sup>2</sup>-Diphenyl-1,2-benzenedicarboxamide;<em>N</em>,<em>N</em>′-Diphenylphthalamide;1,2-Benzenedicarboxamide N1,N2-diphenyl-",
    "duplicated_cas_no": "",
    "SMILES": "C(NC1=CC=CC=C1)(=O)C2=C(C(NC3=CC=CC=C3)=O)C=CC=C2",
    "meta_data": {
        "InChI": "InChI=1S/C20H16N2O2/c23-19(21-15-9-3-1-4-10-15)17-13-7-8-14-18(17)20(24)22-16-11-5-2-6-12-16/h1-14H,(H,21,23)(H,22,24)",
        "InChIKey": null,
        "Canonical SMILES": "O=C(NC=1C=CC=CC1)C=2C=CC=CC2C(=O)NC=3C=CC=CC3",
        "Molecular Formula": "C<sub>20</sub>H<sub>16</sub>N<sub>2</sub>O<sub>2</sub>",
        "Molecular Mass": "316.35",
        "Melting Point": "253-255 °C"
    }
}