{
    "cas_no": "64834-63-5",
    "key_name": "2-[(4-Methoxybenzyl)amino]ethanol",
    "cn_name": null,
    "alternate_name": "Ethanol, 2-[[(4-methoxyphenyl)methyl]amino]-;Ethanol, 2-[(<em>p</em>-methoxybenzyl)amino]-;2-[[(4-Methoxyphenyl)methyl]amino]ethanol;NSC 11273;NSC 173113;2-[(4-Methoxybenzyl)amino]ethanol;2-[[(4-Methoxyphenyl)methyl]amino]ethan-1-ol",
    "duplicated_cas_no": "",
    "SMILES": "C(NCCO)C1=CC=C(OC)C=C1",
    "meta_data": {
        "InChI": "InChI=1S/C10H15NO2/c1-13-10-4-2-9(3-5-10)8-11-6-7-12/h2-5,11-12H,6-8H2,1H3",
        "InChIKey": null,
        "Canonical SMILES": "OCCNCC1=CC=C(OC)C=C1",
        "Molecular Formula": "C<sub>10</sub>H<sub>15</sub>NO<sub>2</sub>",
        "Molecular Mass": "181.23",
        "Boiling Point": "142-143 °C @ Press: 3 Torr",
        "Melting Point": "38-39 °C",
        "Density": "1.1016 g/cm³ @ Temp: 25 °C"
    }
}