{
    "cas_no": "5678-47-7",
    "key_name": "β-Amino-3-nitrobenzenepropanoic acid",
    "cn_name": "3-氨基-3-(3-硝基苯基)丙酸;",
    "alternate_name": "Benzenepropanoic acid, β-amino-3-nitro-;Hydrocinnamic acid, β-amino-<em>m</em>-nitro-;β-Amino-3-nitrobenzenepropanoic acid;NSC 40724;3-Amino-3-(3-nitrophenyl)propanoic acid;3-Amino-3-(3-nitro-phenyl)-propionic acid",
    "duplicated_cas_no": "",
    "SMILES": "C(CC(O)=O)(N)C1=CC(N(=O)=O)=CC=C1",
    "meta_data": {
        "InChI": "InChI=1S/C9H10N2O4/c10-8(5-9(12)13)6-2-1-3-7(4-6)11(14)15/h1-4,8H,5,10H2,(H,12,13)",
        "InChIKey": null,
        "Canonical SMILES": "O=C(O)CC(N)C=1C=CC=C(C1)N(=O)=O",
        "Molecular Formula": "C<sub>9</sub>H<sub>10</sub>N<sub>2</sub>O<sub>4</sub>",
        "Molecular Mass": "210.19",
        "Melting Point": "230 °C (decomp)"
    }
}