{
    "cas_no": "7126-39-8",
    "key_name": "Pyrrole-3-carboxaldehyde",
    "cn_name": "吡咯-3-甲醛;3-吡咯甲醛;",
    "alternate_name": "1<em>H</em>-Pyrrole-3-carboxaldehyde;Pyrrole-3-carboxaldehyde;3-Formylpyrrole;1<em>H</em>-Pyrrole-3-carbaldehyde",
    "duplicated_cas_no": "",
    "SMILES": "C(=O)C=1C=CNC1",
    "meta_data": {
        "InChI": "InChI=1S/C5H5NO/c7-4-5-1-2-6-3-5/h1-4,6H",
        "InChIKey": null,
        "Canonical SMILES": "O=CC=1C=CNC1",
        "Molecular Formula": "C<sub>5</sub>H<sub>5</sub>NO",
        "Molecular Mass": "95.10",
        "Melting Point": "64 °C"
    }
}