{
    "cas_no": "2598-99-4",
    "key_name": "Stearyl palmitate",
    "cn_name": "硬脂酰棕榈酸酯;十六(烷)酸十八(烷)酯;棕榈酸十八烷醇酯;",
    "alternate_name": "Hexadecanoic acid, octadecyl ester;Palmitic acid, octadecyl ester;Stearyl palmitate;Octadecyl hexadecanoate;Octadecyl palmitate;Purester 34",
    "duplicated_cas_no": "",
    "SMILES": "C(OCCCCCCCCCCCCCCCCCC)(CCCCCCCCCCCCCCC)=O",
    "meta_data": {
        "InChI": "InChI=1S/C34H68O2/c1-3-5-7-9-11-13-15-17-18-19-21-23-25-27-29-31-33-36-34(35)32-30-28-26-24-22-20-16-14-12-10-8-6-4-2/h3-33H2,1-2H3",
        "InChIKey": null,
        "Canonical SMILES": "O=C(OCCCCCCCCCCCCCCCCCC)CCCCCCCCCCCCCCC",
        "Molecular Formula": "C<sub>34</sub>H<sub>68</sub>O<sub>2</sub>",
        "Molecular Mass": "508.90",
        "Melting Point": "59 °C"
    }
}