{
    "cas_no": "1073-29-6",
    "key_name": "2-(Methylthio)phenol",
    "cn_name": "2-甲硫基苯酚;",
    "alternate_name": "Phenol, 2-(methylthio)-;Phenol, <em>o</em>-(methylthio)-;2-(Methylthio)phenol;<em>o</em>-Hydroxythioanisole;<em>o</em>-(Methylthio)phenol;2-Hydroxythioanisole;2-(Methylmercapto)phenol;Methyl 2-hydroxyphenyl sulfide;NSC 75839",
    "duplicated_cas_no": "",
    "SMILES": "S(C)C1=C(O)C=CC=C1",
    "meta_data": {
        "InChI": "InChI=1S/C7H8OS/c1-9-7-5-3-2-4-6(7)8/h2-5,8H,1H3",
        "InChIKey": null,
        "Canonical SMILES": "OC=1C=CC=CC1SC",
        "Molecular Formula": "C<sub>7</sub>H<sub>8</sub>OS",
        "Molecular Mass": "140.20",
        "Boiling Point": "148-151 °C @ Press: 14 Torr",
        "Melting Point": "84-85 °C",
        "Density": "1.168 g/cm³ @ Temp: 25 °C"
    }
}