{
    "cas_no": "28084-48-2",
    "key_name": "Benzoic acid, 4-hydroxy-, 4-hydroxyphenyl ester",
    "cn_name": null,
    "alternate_name": "Benzoic acid, 4-hydroxy-, 4-hydroxyphenyl ester;Benzoic acid, <em>p</em>-hydroxy-, <em>p</em>-hydroxyphenyl ester;Hydroquinone, mono(<em>p</em>-hydroxybenzoate);4-Hydroxyphenyl 4-hydroxybenzoate;4-Hydroxyphenyl <em>p</em>-hydroxybenzoate",
    "duplicated_cas_no": "",
    "SMILES": "C(OC1=CC=C(O)C=C1)(=O)C2=CC=C(O)C=C2",
    "meta_data": {
        "InChI": "InChI=1S/C13H10O4/c14-10-3-1-9(2-4-10)13(16)17-12-7-5-11(15)6-8-12/h1-8,14-15H",
        "InChIKey": null,
        "Canonical SMILES": "O=C(OC1=CC=C(O)C=C1)C2=CC=C(O)C=C2",
        "Molecular Formula": "C<sub>13</sub>H<sub>10</sub>O<sub>4</sub>",
        "Molecular Mass": "230.22",
        "Melting Point": "245-247 °C"
    }
}