{
    "cas_no": "706-31-0",
    "key_name": "<em>trans</em>,<em>trans</em>,<em>cis</em>-1,5,9-Cyclododecatriene",
    "cn_name": null,
    "alternate_name": "1,5,9-Cyclododecatriene, (1<em>E</em>,5<em>E</em>,9<em>Z</em>)-;1,5,9-Cyclododecatriene, (<em>E</em>,<em>E</em>,<em>Z</em>)-;(1<em>E</em>,5<em>E</em>,9<em>Z</em>)-1,5,9-Cyclododecatriene;1-<em>cis</em>-5-<em>trans</em>-9-<em>trans</em>-Cyclododecatriene;<em>trans</em>,<em>trans</em>,<em>cis</em>-1,5,9-Cyclododecatriene;<em>cis</em>,<em>trans</em>,<em>trans</em>-1,5,9-Cyclododecatriene;(<em>E</em>,<em>E</em>,<em>Z</em>)-1,5,9-Cyclododecatriene;(<em>Z</em>,<em>E</em>,<em>E</em>)-1,5,9-Cyclododecatriene;(1<em>Z</em>,5<em>E</em>,9<em>E</em>)-Cyclododecatriene",
    "duplicated_cas_no": "140940-26-7;21367-43-1;53859-78-2",
    "SMILES": "",
    "meta_data": {
        "InChI": "",
        "InChIKey": null,
        "Canonical SMILES": "",
        "Molecular Formula": "C<sub>12</sub>H<sub>18</sub>",
        "Molecular Mass": "162.27",
        "Boiling Point": "96 °C @ Press: 10 Torr",
        "Melting Point": "-18 °C",
        "Density": "0.8895 g/cm³ @ Temp: 25 °C"
    }
}