{
    "cas_no": "17654-68-1",
    "key_name": "4-Chloro-1,2-benzenedicarbonitrile",
    "cn_name": null,
    "alternate_name": "1,2-Benzenedicarbonitrile, 4-chloro-;Phthalonitrile, 4-chloro-;4-Chloro-1,2-benzenedicarbonitrile;4-Chlorophthalonitrile;4-Chlorophthalodinitrile;4-Chloro-1,2-dicyanobenzene;NSC 27005",
    "duplicated_cas_no": "",
    "SMILES": "C(#N)C1=C(C#N)C=C(Cl)C=C1",
    "meta_data": {
        "InChI": "InChI=1S/C8H3ClN2/c9-8-2-1-6(4-10)7(3-8)5-11/h1-3H",
        "InChIKey": null,
        "Canonical SMILES": "N#CC1=CC=C(Cl)C=C1C#N",
        "Molecular Formula": "C<sub>8</sub>H<sub>3</sub>ClN<sub>2</sub>",
        "Molecular Mass": "162.58",
        "Melting Point": "130-132 °C"
    }
}