{
    "cas_no": "551-08-6",
    "key_name": "Butylidenephthalide",
    "cn_name": "3-亚丁基-1(3H)-异苯并呋喃酮;",
    "alternate_name": "1(3<em>H</em>)-Isobenzofuranone, 3-butylidene-;Phthalide, 3-butylidene-;3-Butylidene-1(3<em>H</em>)-isobenzofuranone;Butylidenephthalide;3-Butylidenephthalide;Ligusticum lactone;NSC 325307",
    "duplicated_cas_no": "",
    "SMILES": "C(CCC)=C1C=2C(C(=O)O1)=CC=CC2",
    "meta_data": {
        "InChI": "InChI=1S/C12H12O2/c1-2-3-8-11-9-6-4-5-7-10(9)12(13)14-11/h4-8H,2-3H2,1H3",
        "InChIKey": null,
        "Canonical SMILES": "O=C1OC(=CCCC)C=2C=CC=CC12",
        "Molecular Formula": "C<sub>12</sub>H<sub>12</sub>O<sub>2</sub>",
        "Molecular Mass": "188.22",
        "Boiling Point": "140 °C",
        "Melting Point": "82-83 °C",
        "Density": "1.0930 g/cm³ @ Temp: 20 °C"
    }
}