{
    "cas_no": "532-54-7",
    "key_name": "Isonitrosoacetophenone",
    "cn_name": null,
    "alternate_name": "Benzeneacetaldehyde, α-oxo-, aldoxime;Glyoxal, phenyl-, 2-oxime;Glyoxal, phenyl-, aldoxime;Benzoylformaldoxime;Isonitrosoacetophenone;Phenylglyoxal aldoxime;Phenylglyoxal 2-oxime;2-(Hydroxyimino)acetophenone;2-Isonitrosoacetophenone;Phenylglyoxal monoxime;RA 54;α-(Hydroximino)acetophenone;α-(Hydroxyimino)acetophenone;NSC 1330;NSC 25388",
    "duplicated_cas_no": "",
    "SMILES": "C(C=NO)(=O)C1=CC=CC=C1",
    "meta_data": {
        "InChI": "InChI=1S/C8H7NO2/c10-8(6-9-11)7-4-2-1-3-5-7/h1-6,11H",
        "InChIKey": null,
        "Canonical SMILES": "O=C(C=NO)C=1C=CC=CC1",
        "Molecular Formula": "C<sub>8</sub>H<sub>7</sub>NO<sub>2</sub>",
        "Molecular Mass": "149.15",
        "Melting Point": "129 °C"
    }
}