{
    "cas_no": "12126-50-0",
    "key_name": "Decamethylferrocene",
    "cn_name": "二茂铁癸烷;双(五甲基环戊烯)铁;",
    "alternate_name": "Ferrocene, 1,1′,2,2′,3,3′,4,4′,5,5′-decamethyl-;Ferrocene, decamethyl-;1,1′,2,2′,3,3′,4,4′,5,5′-Decamethylferrocene;Permethylferrocene;Decamethylferrocene;Bis(pentamethylcyclopentadienyl)iron;Bis(η<sup>5</sup>-pentamethylcyclopentadienyl)iron;Bis(pentamethylcyclopentadienyl)iron(II)",
    "duplicated_cas_no": "",
    "SMILES": "CC1=2[Fe+2]3456789(C1(C)=C3(C)[C-]4(C)C52C)C=%10(C)C6(C)=C7(C)[C-]8(C)C9%10C",
    "meta_data": {
        "InChI": "InChI=1S/2C10H15.Fe/c2*1-6-7(2)9(4)10(5)8(6)3;/h2*1-5H3;/q2*-1;+2",
        "InChIKey": null,
        "Canonical SMILES": "CC=12C3(C)=C4(C)[C-]5(C)C1(C)[Fe+2]23678945C=%10(C)C9(C)=C8(C)[C-]7(C)C%106C",
        "Molecular Formula": "C<sub>20</sub>H<sub>30</sub>Fe",
        "Molecular Mass": "",
        "Melting Point": "277-278 °C"
    }
}