{
    "cas_no": "219967-69-8",
    "key_name": "(β<em>S</em>)-4-(1,1-Dimethylethoxy)-β-[[(9<em>H</em>-fluoren-9-ylmethoxy)carbonyl]amino]benzenebutanoic acid",
    "cn_name": null,
    "alternate_name": "Benzenebutanoic acid, 4-(1,1-dimethylethoxy)-β-[[(9<em>H</em>-fluoren-9-ylmethoxy)carbonyl]amino]-, (β<em>S</em>)-;(β<em>S</em>)-4-(1,1-Dimethylethoxy)-β-[[(9<em>H</em>-fluoren-9-ylmethoxy)carbonyl]amino]benzenebutanoic acid;(3S)-3-(9<em>H</em>-Fluoren-9-ylmethoxycarbonylamino)-4-[4-[(2-methylpropan-2-yl)oxy]phenyl]butanoic acid",
    "duplicated_cas_no": "",
    "SMILES": "C(OC(N[C@@H](CC1=CC=C(OC(C)(C)C)C=C1)CC(O)=O)=O)C2C=3C(C=4C2=CC=CC4)=CC=CC3",
    "meta_data": {
        "InChI": "InChI=1S/C29H31NO5/c1-29(2,3)35-21-14-12-19(13-15-21)16-20(17-27(31)32)30-28(33)34-18-26-24-10-6-4-8-22(24)23-9-5-7-11-25(23)26/h4-15,20,26H,16-18H2,1-3H3,(H,30,33)(H,31,32)/t20-/m0/s1",
        "InChIKey": null,
        "Canonical SMILES": "O=C(OCC1C=2C=CC=CC2C=3C=CC=CC31)NC(CC(=O)O)CC4=CC=C(OC(C)(C)C)C=C4",
        "Molecular Formula": "C<sub>29</sub>H<sub>31</sub>NO<sub>5</sub>",
        "Molecular Mass": "473.56",
        "Melting Point": "105-110 °C"
    }
}