{
    "cas_no": "13709-42-7",
    "key_name": "Neodymium fluoride (NdF<sub>3</sub>)",
    "cn_name": "氟化钕;无水氟化钕(III);三氟化钕;",
    "alternate_name": "Neodymium fluoride (NdF<sub>3</sub>);Neodymium trifluoride;Neodymium fluoride;Neodymium trifluoride (NdF<sub>3</sub>)",
    "duplicated_cas_no": "",
    "SMILES": "[Nd](F)(F)F",
    "meta_data": {
        "InChI": "InChI=1S/3FH.Nd/h3*1H;/q;;;+3/p-3",
        "InChIKey": null,
        "Canonical SMILES": "F[Nd](F)F",
        "Molecular Formula": "F<sub>3</sub>Nd",
        "Molecular Mass": "",
        "Melting Point": "1410 °C",
        "Density": "6.505 g/cm³"
    }
}