{
    "cas_no": "7446-14-2",
    "key_name": "Lead sulfate (PbSO<sub>4</sub>)",
    "cn_name": "硫酸铅;铅矾;",
    "alternate_name": "Sulfuric acid, lead(2+) salt (1:1);C.I. 77630;Anglislite;C.I. Pigment White 3;Fast White;Freemans White Lead;Lead Bottoms;Lead sulfate;Milk White;Mulhouse White;Lead(2+) sulfate;Lead monosulfate;Lead sulfate (1:1);Lead sulfate (PbSO<sub>4</sub>);Lead(II) sulfate;Pigment White 3;HB 2000;TS 100 (sulfate);TS 100;PbSO<sub>4</sub>;TS-E;Dibasic lead sulfate;Akstab PB-KLSS;Plumbous sulfate",
    "duplicated_cas_no": "12673-93-7;37223-83-9;37224-42-3;37251-28-8;2827010-23-9",
    "SMILES": "S(=O)(=O)(O)O.[Pb]",
    "meta_data": {
        "InChI": "InChI=1S/H2O4S.Pb/c1-5(2,3)4;/h(H2,1,2,3,4);",
        "InChIKey": null,
        "Canonical SMILES": "[Pb].O=S(=O)(O)O",
        "Molecular Formula": "H<sub>2</sub>O<sub>4</sub>S.Pb",
        "Molecular Mass": "",
        "Melting Point": "1170 °C",
        "Density": "6.2 g/cm³"
    }
}