{
    "cas_no": "24967-27-9",
    "key_name": "2-Deoxy-2,3-dehydro-<em>N</em>-acetylneuraminic acid",
    "cn_name": null,
    "alternate_name": "<span class=\"text-smallcaps\">D</smallcap>-<em>glycero</em>-<smallcap>D</span>-<em>galacto</em>-Non-2-enonic acid, 5-(acetylamino)-2,6-anhydro-3,5-dideoxy-;<span class=\"text-smallcaps\">D</smallcap>-<em>glycero</em>-<smallcap>D</span>-<em>galacto</em>-Non-2-enonic acid, 5-acetamido-2,6-anhydro-3,5-dideoxy-;5-(Acetylamino)-2,6-anhydro-3,5-dideoxy-<span class=\"text-smallcaps\">D</smallcap>-<em>glycero</em>-<smallcap>D</span>-<em>galacto</em>-non-2-enonic acid;2-Deoxy-2,3-dehydro-<em>N</em>-acetylneuraminic acid;Neuraminic acid, <em>N</em>-acetyl-2,3-didehydro-2-deoxy-;2-Deoxy-2,3-didehydro-<em>N</em>-acetylneuraminic acid;2,3-Dehydro-2-deoxy-<em>N</em>-acetylneuraminic acid;DANA;5-Acetamido-2,6-anhydro-3,5-dideoxy-<span class=\"text-smallcaps\">D</smallcap>-<em>glycero</em>-<smallcap>D</span>-galactonon-2-enonic Acid",
    "duplicated_cas_no": "124672-92-0",
    "SMILES": "[C@H]([C@@H](CO)O)(O)[C@]1([C@H](NC(C)=O)[C@@H](O)C=C(C(O)=O)O1)[H]",
    "meta_data": {
        "InChI": "InChI=1S/C11H17NO8/c1-4(14)12-8-5(15)2-7(11(18)19)20-10(8)9(17)6(16)3-13/h2,5-6,8-10,13,15-17H,3H2,1H3,(H,12,14)(H,18,19)/t5-,6+,8+,9+,10+/m0/s1",
        "InChIKey": null,
        "Canonical SMILES": "O=C(O)C=1OC(C(O)C(O)CO)C(NC(=O)C)C(O)C1",
        "Molecular Formula": "C<sub>11</sub>H<sub>17</sub>NO<sub>8</sub>",
        "Molecular Mass": "291.25",
        "Melting Point": "137.2-139.7 °C"
    }
}