{
    "cas_no": "615-20-3",
    "key_name": "2-Chlorobenzothiazole",
    "cn_name": "2-氯苯并噻唑;",
    "alternate_name": "Benzothiazole, 2-chloro-;Benzothiazole, 1-chloro-;2-Chlorobenzothiazole;NSC 8442;2-Chloro-1,3-benzothiazole;2-Chlorobenzo[<em>d</em>]thiazole;2-Chloro-1<em>H</em>-benzo[<em>d</em>]thiazole",
    "duplicated_cas_no": "",
    "SMILES": "ClC1=NC=2C(S1)=CC=CC2",
    "meta_data": {
        "InChI": "InChI=1S/C7H4ClNS/c8-7-9-5-3-1-2-4-6(5)10-7/h1-4H",
        "InChIKey": null,
        "Canonical SMILES": "ClC1=NC=2C=CC=CC2S1",
        "Molecular Formula": "C<sub>7</sub>H<sub>4</sub>ClNS",
        "Molecular Mass": "169.63",
        "Boiling Point": "248 °C",
        "Melting Point": "24 °C"
    }
}