{
    "cas_no": "657-36-3",
    "key_name": "4-(Trifluoromethyl)piperidine",
    "cn_name": "4-(三氟甲基)哌啶;",
    "alternate_name": "Piperidine, 4-(trifluoromethyl)-;4-(Trifluoromethyl)piperidine",
    "duplicated_cas_no": "",
    "SMILES": "C(F)(F)(F)C1CCNCC1",
    "meta_data": {
        "InChI": "InChI=1S/C6H10F3N/c7-6(8,9)5-1-3-10-4-2-5/h5,10H,1-4H2",
        "InChIKey": null,
        "Canonical SMILES": "FC(F)(F)C1CCNCC1",
        "Molecular Formula": "C<sub>6</sub>H<sub>10</sub>F<sub>3</sub>N",
        "Molecular Mass": "153.15",
        "Boiling Point": "133 °C"
    }
}