{
    "cas_no": "106-46-7",
    "key_name": "1,4-Dichlorobenzene",
    "cn_name": "1,4-二氯苯;对二氯苯;",
    "alternate_name": "Benzene, 1,4-dichloro-;Benzene, <em>p</em>-dichloro-;1,4-Dichlorobenzene;Di-chloricide;<em>p</em>-Dichlorobenzene;Paradi;Paradichlorobenzene;Paradow;Paramoth;PDB;Santochlor;<em>p</em>-Chlorophenyl chloride;Evola;Persia-Perazol;<em>para</em>-Dichlorobenzene;Dichlorocide;NSC 36935",
    "duplicated_cas_no": "",
    "SMILES": "ClC1=CC=C(Cl)C=C1",
    "meta_data": {
        "InChI": "InChI=1S/C6H4Cl2/c7-5-1-2-6(8)4-3-5/h1-4H",
        "InChIKey": null,
        "Canonical SMILES": "ClC1=CC=C(Cl)C=C1",
        "Molecular Formula": "C<sub>6</sub>H<sub>4</sub>Cl<sub>2</sub>",
        "Molecular Mass": "147.00",
        "Boiling Point": "174 °C @ Press: 760 Torr",
        "Melting Point": "52.7 °C",
        "Density": "1.2475 g/cm³ @ Temp: 20 °C"
    }
}