{
    "cas_no": "1716-07-0",
    "key_name": "Triglyceride OPO",
    "cn_name": null,
    "alternate_name": "9-Octadecenoic acid (9<em>Z</em>)-, 1,1′-[2-[(1-oxohexadecyl)oxy]-1,3-propanediyl] ester;Olein, 2-palmito-1,3-di-;9-Octadecenoic acid (<em>Z</em>)-, 2-[(1-oxohexadecyl)oxy]-1,3-propanediyl ester;9-Octadecenoic acid (9<em>Z</em>)-, 2-[(1-oxohexadecyl)oxy]-1,3-propanediyl ester;Palmitin, 1,3-dioleo-2-;Glyceryl 2-palmitate-1,3-dioleate;1,3-Dioleoyl-2-palmitoylglycerol;1-Oleo-2-palmito-3-olein;2-Palmito-1,3-diolein;2-Palmityl-1,3-diolein;Glyceryl 1,3-dioleate 2-palmitate;Triglyceride OPO,sn;1,3-Di-(9<em>Z</em>-octadecenoyl)-2-hexadecanoyl-<em>sn</em>-glycerol;Triglyceride OPO;Glycerol dioleate monopalmitate;1,3-Dioleyl-2-palmitoylglycerol",
    "duplicated_cas_no": "",
    "SMILES": "C(COC(CCCCCCC/C=C\\CCCCCCCC)=O)(COC(CCCCCCC/C=C\\CCCCCCCC)=O)OC(CCCCCCCCCCCCCCC)=O",
    "meta_data": {
        "InChI": "InChI=1S/C55H102O6/c1-4-7-10-13-16-19-22-25-27-30-32-35-38-41-44-47-53(56)59-50-52(61-55(58)49-46-43-40-37-34-29-24-21-18-15-12-9-6-3)51-60-54(57)48-45-42-39-36-33-31-28-26-23-20-17-14-11-8-5-2/h25-28,52H,4-24,29-51H2,1-3H3/b27-25-,28-26-",
        "InChIKey": null,
        "Canonical SMILES": "O=C(OCC(OC(=O)CCCCCCCCCCCCCCC)COC(=O)CCCCCCCC=CCCCCCCCC)CCCCCCCC=CCCCCCCCC",
        "Molecular Formula": "C<sub>55</sub>H<sub>102</sub>O<sub>6</sub>",
        "Molecular Mass": "859.39",
        "Melting Point": "19 °C",
        "Density": "0.9046 g/cm³ @ Temp: 20 °C"
    }
}