{
    "cas_no": "88-58-4",
    "key_name": "2,5-Di-<em>tert</em>-butylhydroquinone",
    "cn_name": "2,5-二特丁基对苯二酚;",
    "alternate_name": "1,4-Benzenediol, 2,5-bis(1,1-dimethylethyl)-;Hydroquinone, 2,5-di-<em>tert</em>-butyl-;2,5-Bis(1,1-dimethylethyl)-1,4-benzenediol;Santovar O;Dibug;DTBHQ;2,5-Di-<em>tert</em>-butylquinol;Nocrac NS 7;Antage DBH;Naugard 451;DBH;1,4-Dihydroxy-2,5-di-<em>tert</em>-butylbenzene;2,5-Di-<em>tert</em>-butyl-1,4-hydroquinone;Nonflex Alba;2,5-Di-<em>tert</em>-butyl-1,4-benzohydroquinone;2,5-Di-<em>tert</em>-butylhydroquinone;2,5-Di-<em>tert</em>-butyl-1,4-benzenediol;NSC 11;NSC 9886;BHQ;2,5-Dihydroxy-1,4-di-<em>tert</em>-butylbenzene;DBHQ;Alba;2,5-Di-<em>tert</em>-butyl-1,4-dihydroxybenzene;3,6-Di-<em>tert</em>-butylhydroquinone;Antioxidant NS 7;Antioxidant Alba;Antioxidant DBH;2,5-Ditert-butylbenzene-1,4-diol",
    "duplicated_cas_no": "",
    "SMILES": "C(C)(C)(C)C1=C(O)C=C(C(C)(C)C)C(O)=C1",
    "meta_data": {
        "InChI": "InChI=1S/C14H22O2/c1-13(2,3)9-7-12(16)10(8-11(9)15)14(4,5)6/h7-8,15-16H,1-6H3",
        "InChIKey": null,
        "Canonical SMILES": "OC=1C=C(C(O)=CC1C(C)(C)C)C(C)(C)C",
        "Molecular Formula": "C<sub>14</sub>H<sub>22</sub>O<sub>2</sub>",
        "Molecular Mass": "222.32",
        "Melting Point": "213-214 °C"
    }
}