{
    "cas_no": "917392-54-2",
    "key_name": "Benzoic acid, 4-methyl-3-[[4-(3-pyridinyl)-2-pyrimidinyl]amino]-, methyl ester",
    "cn_name": null,
    "alternate_name": "Benzoic acid, 4-methyl-3-[[4-(3-pyridinyl)-2-pyrimidinyl]amino]-, methyl ester;Methyl 4-methyl-3-[[4-(pyridin-3-yl)pyrimidin-2-yl]amino]benzoate",
    "duplicated_cas_no": "",
    "SMILES": "N(C=1N=C(C=CN1)C=2C=CC=NC2)C3=CC(C(OC)=O)=CC=C3C",
    "meta_data": {
        "InChI": "InChI=1S/C18H16N4O2/c1-12-5-6-13(17(23)24-2)10-16(12)22-18-20-9-7-15(21-18)14-4-3-8-19-11-14/h3-11H,1-2H3,(H,20,21,22)",
        "InChIKey": null,
        "Canonical SMILES": "O=C(OC)C1=CC=C(C(=C1)NC=2N=CC=C(N2)C3=CN=CC=C3)C",
        "Molecular Formula": "C<sub>18</sub>H<sub>16</sub>N<sub>4</sub>O<sub>2</sub>",
        "Molecular Mass": "320.35",
        "Melting Point": "117 °C"
    }
}