{
    "cas_no": "1985-51-9",
    "key_name": "Neopentyl glycol dimethacrylate",
    "cn_name": "新戊二醇二甲基丙烯酸酯;2,2-二甲基-1,3-亚丙基二甲基丙烯酸酯;",
    "alternate_name": "2-Propenoic acid, 2-methyl-, 1,1′-(2,2-dimethyl-1,3-propanediyl) ester;Methacrylic acid, 2,2-dimethyltrimethylene ester;2-Propenoic acid, 2-methyl-, 2,2-dimethyl-1,3-propanediyl ester;1,3-Propanediol, 2,2-dimethyl-, dimethacrylate;2,2-Dimethyl-1,3-propanediol dimethacrylate;Neopentyl glycol dimethacrylate;α,ω-Bis(methacryloyloxy)-2,2-dimethylpropylene;Neopentyl bis(methacrylate);Neopentanediol dimethacrylate;NK Ester NPG;TD 1523;Light Ester NP;NK Ester NPG-DM;Pleximon V 773;FA 125M;SR 248;Neopentyl dimethacrylate;Sartomer SR 248;NK NPG;Fancryl FA 125M;2,2-Dimethylpropane-1,3-diyl bis(2-methylacrylate);[2,2-Dimethyl-3-(2-methylprop-2-enoyloxy)propyl] 2-methylprop-2-enoate;Miramer M 213",
    "duplicated_cas_no": "104182-97-0;882185-24-2",
    "SMILES": "C(C(COC(C(C)=C)=O)(C)C)OC(C(C)=C)=O",
    "meta_data": {
        "InChI": "InChI=1S/C13H20O4/c1-9(2)11(14)16-7-13(5,6)8-17-12(15)10(3)4/h1,3,7-8H2,2,4-6H3",
        "InChIKey": null,
        "Canonical SMILES": "O=C(OCC(C)(C)COC(=O)C(=C)C)C(=C)C",
        "Molecular Formula": "C<sub>13</sub>H<sub>20</sub>O<sub>4</sub>",
        "Molecular Mass": "240.30",
        "Boiling Point": "87 °C"
    }
}