{
    "cas_no": "1732-96-3",
    "key_name": "Ethylene glycol bis(anhydrotrimellitate)",
    "cn_name": null,
    "alternate_name": "5-Isobenzofurancarboxylic acid, 1,3-dihydro-1,3-dioxo-, 5,5′-(1,2-ethanediyl) ester;1,2,4-Benzenetricarboxylic acid, cyclic 1,2-anhydride, ethylene ester;5-Isobenzofurancarboxylic acid, 1,3-dihydro-1,3-dioxo-, 1,2-ethanediyl ester;1,2,4-Benzenetricarboxylic acid, 1,2-anhydride, ethylene ester;Ethylene glycol, diester with 1,2,4-benzenetricarboxylic acid cyclic 1,2-anhydride;4,4′-Ethylene dimellitate dianhydride;Ethylene glycol bis(trimellitic anhydride);Trimellitic anhydride-ethylene glycol ester (2:1);Ethylene bis(trimellitate) dianhydride;Ethylene glycol bis(anhydrotrimellitate);Rikacid TMEG;Rikacid TMEG 200;Rikaresin TMEG;Rikacid TMEG 500;Rikacid TMEG 100;TMEG 200;TMEG 100;Rikacid TMEG-S;Rikacid TMEG 1000;Rikacid TMEG 600;TMEG;Ethylene glycol di(trimellitic anhydride) ester;Ethylene glycol bistrimellitate;Ethylene glycol bis(trimellitate anhydride);TMEG 600",
    "duplicated_cas_no": "64155-47-1;72068-03-2;148208-62-2;204382-89-8",
    "SMILES": "O=C1C=2C(C(=O)O1)=CC=C(C(OCCOC(=O)C=3C=C4C(=CC3)C(=O)OC4=O)=O)C2",
    "meta_data": {
        "InChI": "InChI=1S/C20H10O10/c21-15(9-1-3-11-13(7-9)19(25)29-17(11)23)27-5-6-28-16(22)10-2-4-12-14(8-10)20(26)30-18(12)24/h1-4,7-8H,5-6H2",
        "InChIKey": null,
        "Canonical SMILES": "O=C1OC(=O)C2=CC(=CC=C12)C(=O)OCCOC(=O)C3=CC=C4C(=O)OC(=O)C4=C3",
        "Molecular Formula": "C<sub>20</sub>H<sub>10</sub>O<sub>10</sub>",
        "Molecular Mass": "410.29",
        "Melting Point": "134 °C"
    }
}