{
    "cas_no": "6358-64-1",
    "key_name": "4-Chloro-2,5-dimethoxyaniline",
    "cn_name": "4-氯-2,5-二甲氧基苯胺;",
    "alternate_name": "Benzenamine, 4-chloro-2,5-dimethoxy-;Aniline, 4-chloro-2,5-dimethoxy-;4-Chloro-2,5-dimethoxybenzenamine;4-Chloro-2,5-dimethoxyaniline;1-Amino-4-chloro-2,5-dimethoxybenzene;NSC 60154;2,5-Dimethoxy-4-chloroaniline;(4-Chloro-2,5-dimethoxyphenyl)amine",
    "duplicated_cas_no": "",
    "SMILES": "O(C)C1=C(Cl)C=C(OC)C(N)=C1",
    "meta_data": {
        "InChI": "InChI=1S/C8H10ClNO2/c1-11-7-4-6(10)8(12-2)3-5(7)9/h3-4H,10H2,1-2H3",
        "InChIKey": null,
        "Canonical SMILES": "ClC=1C=C(OC)C(N)=CC1OC",
        "Molecular Formula": "C<sub>8</sub>H<sub>10</sub>ClNO<sub>2</sub>",
        "Molecular Mass": "187.62",
        "Melting Point": "118-119 °C"
    }
}