{
    "cas_no": "60323-98-0",
    "key_name": "Pyridine, 2-bromo-5-methyl-4-nitro-, 1-oxide",
    "cn_name": null,
    "alternate_name": "Pyridine, 2-bromo-5-methyl-4-nitro-, 1-oxide;2-Bromo-5-methyl-4-nitropyridine <em>N</em>-oxide;2-Bromo-5-methyl-4-nitropyridine 1-oxide;2-Bromo-5-methyl-4-nitropyridin-1-ium-1-olate;2-Bromo-5-methyl-4-nitro-1-oxidopyridin-1-ium",
    "duplicated_cas_no": "",
    "SMILES": "N(=O)(=O)C=1C(C)=CN(=O)=C(Br)C1",
    "meta_data": {
        "InChI": "InChI=1S/C6H5BrN2O3/c1-4-3-8(10)6(7)2-5(4)9(11)12/h2-3H,1H3",
        "InChIKey": null,
        "Canonical SMILES": "O=N(=O)C1=CC(Br)=N(=O)C=C1C",
        "Molecular Formula": "C<sub>6</sub>H<sub>5</sub>BrN<sub>2</sub>O<sub>3</sub>",
        "Molecular Mass": "233.02",
        "Melting Point": "158 °C"
    }
}