{
    "cas_no": "2307-69-9",
    "key_name": "Isopropyl tosylate",
    "cn_name": "对甲苯磺酸异丙酯;",
    "alternate_name": "Benzenesulfonic acid, 4-methyl-, 1-methylethyl ester;<em>p</em>-Toluenesulfonic acid, isopropyl ester;Isopropyl tosylate;Isopropyl <em>p</em>-toluenesulfonate;2-Propyl tosylate;Isopropyl <em>p</em>-tosylate;Isopropyl <em>p</em>-methylbenzenesulfonate;4-Methylbenzenesulfonic acid 1-methylethyl ester;Toluene-4-sulfonic acid isopropyl ester;Isopropyl 4-methylbenzenesulfonate",
    "duplicated_cas_no": "",
    "SMILES": "S(OC(C)C)(=O)(=O)C1=CC=C(C)C=C1",
    "meta_data": {
        "InChI": "InChI=1S/C10H14O3S/c1-8(2)13-14(11,12)10-6-4-9(3)5-7-10/h4-8H,1-3H3",
        "InChIKey": null,
        "Canonical SMILES": "O=S(=O)(OC(C)C)C1=CC=C(C=C1)C",
        "Molecular Formula": "C<sub>10</sub>H<sub>14</sub>O<sub>3</sub>S",
        "Molecular Mass": "214.28",
        "Boiling Point": "107-109 °C @ Press: 0.4 Torr",
        "Melting Point": "20 °C"
    }
}