{
    "cas_no": "60142-96-3",
    "key_name": "Gabapentin",
    "cn_name": "加巴喷丁盐酸盐;1-(氨甲基)环己烷乙酸盐酸盐;",
    "alternate_name": "Cyclohexaneacetic acid, 1-(aminomethyl)-;1-(Aminomethyl)cyclohexaneacetic acid;Gabapentin;CI 945;Go 3450;GOE 2450;Neurontin;GOE 3450;Gabapen;Bexal;Gabamox;Generis;2-[1-(Aminomethyl)cyclohexyl]acetic acid;Conventin;Neuronyin;Neuril;Convalis;Gabarone;Gralise;Nupentin;Fanatrex;Sigma G 154;(1-Aminomethyl-cyclohexyl)-acetic acid",
    "duplicated_cas_no": "",
    "SMILES": "C(C(O)=O)C1(CN)CCCCC1",
    "meta_data": {
        "InChI": "InChI=1S/C9H17NO2/c10-7-9(6-8(11)12)4-2-1-3-5-9/h1-7,10H2,(H,11,12)",
        "InChIKey": null,
        "Canonical SMILES": "O=C(O)CC1(CN)CCCCC1",
        "Molecular Formula": "C<sub>9</sub>H<sub>17</sub>NO<sub>2</sub>",
        "Molecular Mass": "171.24",
        "Melting Point": "162-166 °C"
    }
}