{
    "cas_no": "2566-32-7",
    "key_name": "<em>N</em>-Methylvaline",
    "cn_name": null,
    "alternate_name": "Valine, <em>N</em>-methyl-;<span class=\"text-smallcaps\">DL</span>-Valine, <em>N</em>-methyl-;<em>N</em>-Methylvaline;<em>N</em>-Methyl-<span class=\"text-smallcaps\">DL</span>-valine;3-Methyl-2-(methylamino)butanoic acid",
    "duplicated_cas_no": "82535-54-4",
    "SMILES": "C(C(C)C)(C(O)=O)NC",
    "meta_data": {
        "InChI": "InChI=1S/C6H13NO2/c1-4(2)5(7-3)6(8)9/h4-5,7H,1-3H3,(H,8,9)",
        "InChIKey": null,
        "Canonical SMILES": "O=C(O)C(NC)C(C)C",
        "Molecular Formula": "C<sub>6</sub>H<sub>13</sub>NO<sub>2</sub>",
        "Molecular Mass": "131.17",
        "Melting Point": "300 °C"
    }
}