{
    "cas_no": "15971-29-6",
    "key_name": "4-Methoxy-1-naphthaldehyde",
    "cn_name": "4-甲氧基-1-萘甲醛;",
    "alternate_name": "1-Naphthalenecarboxaldehyde, 4-methoxy-;1-Naphthaldehyde, 4-methoxy-;4-Methoxy-1-naphthalenecarboxaldehyde;4-Methoxy-1-naphthaldehyde;4-Methoxy-1-naphthylaldehyde;NSC 97025;4-Formyl-1-methoxynaphthalene;1-(4-Methoxy)naphthaldehyde;4-Methoxynaphthalene-1-carbaldehyde",
    "duplicated_cas_no": "",
    "SMILES": "C(=O)C=1C2=C(C(OC)=CC1)C=CC=C2",
    "meta_data": {
        "InChI": "InChI=1S/C12H10O2/c1-14-12-7-6-9(8-13)10-4-2-3-5-11(10)12/h2-8H,1H3",
        "InChIKey": null,
        "Canonical SMILES": "O=CC1=CC=C(OC)C=2C=CC=CC12",
        "Molecular Formula": "C<sub>12</sub>H<sub>10</sub>O<sub>2</sub>",
        "Molecular Mass": "186.21",
        "Boiling Point": "200-202 °C @ Press: 10 Torr",
        "Melting Point": "34.8 °C"
    }
}