{
    "cas_no": "1072-43-1",
    "key_name": "Propylene sulfide",
    "cn_name": "硫化丙烯;硫化丙烯;",
    "alternate_name": "Thiirane, 2-methyl-;Propane, 1,2-epithio-;Thiirane, methyl-;2-Methylthiirane;Propylene sulfide;Propene sulfide;Propylene episulfide;1,2-Epithiopropane;Methylthiirane;Epithiopropane;1,2-Propylene sulfide;<em>dl</em>-Propylene sulfide;<em>R</em>,<em>S</em>-Propylene sulfide;NSC 36643;NSC 48100",
    "duplicated_cas_no": "15423-00-4",
    "SMILES": "CC1CS1",
    "meta_data": {
        "InChI": "InChI=1S/C3H6S/c1-3-2-4-3/h3H,2H2,1H3",
        "InChIKey": null,
        "Canonical SMILES": "S1CC1C",
        "Molecular Formula": "C<sub>3</sub>H<sub>6</sub>S",
        "Molecular Mass": "74.14",
        "Boiling Point": "72.5 °C",
        "Melting Point": "-91 °C",
        "Density": "0.9588 g/cm³ @ Temp: 20 °C"
    }
}