{
    "cas_no": "94-71-3",
    "key_name": "2-Ethoxyphenol",
    "cn_name": "邻乙氧基苯酚;邻羟基苯乙醚;2-乙氧基苯酚;2-羟基苯乙醚;",
    "alternate_name": "Phenol, 2-ethoxy-;Phenol, <em>o</em>-ethoxy-;2-Ethoxyphenol;Guaethol;Guethol;<em>o</em>-Ethoxyphenol;Catechol monoethyl ether;1-Hydroxy-2-ethoxybenzene;Pyrocatechol monoethyl ether;NSC 1809",
    "duplicated_cas_no": "",
    "SMILES": "O(CC)C1=C(O)C=CC=C1",
    "meta_data": {
        "InChI": "InChI=1S/C8H10O2/c1-2-10-8-6-4-3-5-7(8)9/h3-6,9H,2H2,1H3",
        "InChIKey": null,
        "Canonical SMILES": "OC=1C=CC=CC1OCC",
        "Molecular Formula": "C<sub>8</sub>H<sub>10</sub>O<sub>2</sub>",
        "Molecular Mass": "138.16",
        "Boiling Point": "217 °C",
        "Melting Point": "29 °C",
        "Density": "1.0903 g/cm³ @ Temp: 25 °C"
    }
}