{
    "cas_no": "6939-89-5",
    "key_name": "Benzoic acid, 2-sulfo-, ammonium salt (1:1)",
    "cn_name": "2-磺基孢菌素铵盐;2-磺基苯甲酸单铵盐;",
    "alternate_name": "Benzoic acid, 2-sulfo-, ammonium salt (1:1);Benzoic acid, <em>o</em>-sulfo-, <em>S</em>-monoammonium salt;Benzoic acid, 2-sulfo-, monoammonium salt;Ammonium <em>o</em>-carboxybenzenesulfonate;Ammonium <em>o</em>-sulfobenzoic acid;Ammonium <em>o</em>-sulfobenzoate;2-Sulfobenzoic Acid Monoammonium Salt",
    "duplicated_cas_no": "861782-05-0",
    "SMILES": "S(=O)(=O)(O)C1=C(C(O)=O)C=CC=C1.N",
    "meta_data": {
        "InChI": "InChI=1S/C7H6O5S.H3N/c8-7(9)5-3-1-2-4-6(5)13(10,11)12;/h1-4H,(H,8,9)(H,10,11,12);1H3",
        "InChIKey": null,
        "Canonical SMILES": "O=C(O)C=1C=CC=CC1S(=O)(=O)O.N",
        "Molecular Formula": "C<sub>7</sub>H<sub>6</sub>O<sub>5</sub>S.H<sub>3</sub>N",
        "Molecular Mass": "",
        "Melting Point": "264-266 °C"
    }
}