{
    "cas_no": "4350-09-8",
    "key_name": "5-Hydroxy-<span class=\"text-smallcaps\">L</span>-tryptophan",
    "cn_name": "5-羟基色氨酸;",
    "alternate_name": "<span class=\"text-smallcaps\">L</span>-Tryptophan, 5-hydroxy-;Tryptophan, 5-hydroxy-, <span class=\"text-smallcaps\">L</span>-;5-Hydroxy-<span class=\"text-smallcaps\">L</span>-tryptophan;<span class=\"text-smallcaps\">L</span>-5-Hydroxytryptophan;5-Hydroxyl-<span class=\"text-smallcaps\">L</span>-tryptophan;Pretonine;Quietim;Oxitriptan;5-Hydroxytryptophan;Triptene;Levotinine;Telesol;Tript-Oh;Levothym;Oxyfan;Serotonyl;Cincofarm;<span class=\"text-smallcaps\">L</span>-5-HTP;(<em>S</em>)-5-Hydroxytryptophan;(2S)-2-Azaniumyl-3-(5-hydroxy-1<em>H</em>-indol-3-yl)propanoate;(2S)-2-Amino-3-(5-hydroxy-1<em>H</em>-indol-3-yl)propanoic acid;(<em>S</em>)-2-Amino-3-(5-hydroxy-1<em>H</em>-indol-3-yl)propanoic acid;Hydroxy-<span class=\"text-smallcaps\">L</span>-tryptophan",
    "duplicated_cas_no": "34953-84-9;1228817-95-5",
    "SMILES": "C([C@@H](C(O)=O)N)C=1C=2C(NC1)=CC=C(O)C2",
    "meta_data": {
        "InChI": "InChI=1S/C11H12N2O3/c12-9(11(15)16)3-6-5-13-10-2-1-7(14)4-8(6)10/h1-2,4-5,9,13-14H,3,12H2,(H,15,16)/t9-/m0/s1",
        "InChIKey": null,
        "Canonical SMILES": "O=C(O)C(N)CC1=CNC=2C=CC(O)=CC21",
        "Molecular Formula": "C<sub>11</sub>H<sub>12</sub>N<sub>2</sub>O<sub>3</sub>",
        "Molecular Mass": "220.22",
        "Melting Point": "273 °C (decomp)"
    }
}