{
    "cas_no": "422-05-9",
    "key_name": "2,2,3,3,3-Pentafluoropropanol",
    "cn_name": "1H,1H-五氟丙醇;",
    "alternate_name": "1-Propanol, 2,2,3,3,3-pentafluoro-;2,2,3,3,3-Pentafluoro-1-propanol;1,1-Dihydropentafluoropropanol;2,2,3,3,3-Pentafluoropropanol;1,1-Dihydroperfluoropropanol;1<em>H</em>,1<em>H</em>-Perfluoropropanol;3,3,3,2,2-Pentafluoropropan-1-ol;NSC 66413;P 0845;1<em>H</em>,1<em>H</em>-Pentafluoro-1-propanol",
    "duplicated_cas_no": "",
    "SMILES": "C(C(F)(F)F)(CO)(F)F",
    "meta_data": {
        "InChI": "InChI=1S/C3H3F5O/c4-2(5,1-9)3(6,7)8/h9H,1H2",
        "InChIKey": null,
        "Canonical SMILES": "FC(F)(F)C(F)(F)CO",
        "Molecular Formula": "C<sub>3</sub>H<sub>3</sub>F<sub>5</sub>O",
        "Molecular Mass": "150.05",
        "Boiling Point": "82 °C",
        "Density": "1.505 g/cm³ @ Temp: 20 °C"
    }
}