{
    "cas_no": "33252-28-7",
    "key_name": "6-Chloronicotinonitrile",
    "cn_name": "6-氯-3-氰基吡啶;2-氯-5-氰基吡啶;",
    "alternate_name": "3-Pyridinecarbonitrile, 6-chloro-;Nicotinonitrile, 6-chloro-;6-Chloro-3-pyridinecarbonitrile;2-Chloro-5-cyanopyridine;6-Chloronicotinonitrile;2-Chloro-5-pyridinecarbonitrile;6-Chloro-3-cyanopyridine;5-Cyano-2-chloropyridine;6-Chloronicotinitrile;6-Chloropyridin-3-nitrile;6-Chloropyridin-3-carbonitrile",
    "duplicated_cas_no": "",
    "SMILES": "C(#N)C=1C=CC(Cl)=NC1",
    "meta_data": {
        "InChI": "InChI=1S/C6H3ClN2/c7-6-2-1-5(3-8)4-9-6/h1-2,4H",
        "InChIKey": null,
        "Canonical SMILES": "N#CC1=CN=C(Cl)C=C1",
        "Molecular Formula": "C<sub>6</sub>H<sub>3</sub>ClN<sub>2</sub>",
        "Molecular Mass": "138.55",
        "Melting Point": "115 °C"
    }
}