{
    "cas_no": "50370-56-4",
    "key_name": "Win 35428",
    "cn_name": null,
    "alternate_name": "8-Azabicyclo[3.2.1]octane-2-carboxylic acid, 3-(4-fluorophenyl)-8-methyl-, methyl ester, (1<em>R</em>,2<em>S</em>,3<em>S</em>,5<em>S</em>)-;8-Azabicyclo[3.2.1]octane-2-carboxylic acid, 3-(4-fluorophenyl)-8-methyl-, methyl ester, [1<em>R</em>-(<em>exo</em>,<em>exo</em>)]-;Win 35428;(-)-Win 35,428;O 381;β-CFT;CFT;2β-Carbomethoxy-3β-(4′-fluorophenyl)tropane;Methyl (1R,2S,3S,5S)-3-(4-fluorophenyl)-8-methyl-8-azabicyclo[3.2.1]octane-2-carboxylate",
    "duplicated_cas_no": "185348-25-8;2055733-81-6",
    "SMILES": "C(OC)(=O)[C@H]1[C@H](C[C@]2(N(C)[C@@]1(CC2)[H])[H])C3=CC=C(F)C=C3",
    "meta_data": {
        "InChI": "InChI=1S/C16H20FNO2/c1-18-12-7-8-14(18)15(16(19)20-2)13(9-12)10-3-5-11(17)6-4-10/h3-6,12-15H,7-9H2,1-2H3/t12-,13+,14+,15-/m0/s1",
        "InChIKey": null,
        "Canonical SMILES": "O=C(OC)C1C(C2=CC=C(F)C=C2)CC3N(C)C1CC3",
        "Molecular Formula": "C<sub>16</sub>H<sub>20</sub>FNO<sub>2</sub>",
        "Molecular Mass": "277.33",
        "Melting Point": "90.5-91.5 °C"
    }
}