{
    "cas_no": "943-27-1",
    "key_name": "4′-<em>tert</em>-Butylacetophenone",
    "cn_name": null,
    "alternate_name": "Ethanone, 1-[4-(1,1-dimethylethyl)phenyl]-;Acetophenone, 4′-<em>tert</em>-butyl-;1-[4-(1,1-Dimethylethyl)phenyl]ethanone;4′-<em>tert</em>-Butylacetophenone;<em>p</em>-<em>tert</em>-Butylacetophenone;<em>p</em>-<em>tert</em>-Butylacetylbenzene;NSC 826;4-<em>tert</em>-Butylphenyl methyl ketone;1-(4-<em>tert</em>-Butylphenyl)ethanone;4-<em>t</em>-Butylacetophenone;1-[4-(<em>tert</em>-Butyl)phenyl]ethan-1-one;1-Acetyl-4-(<em>tert</em>-butyl)benzene",
    "duplicated_cas_no": "",
    "SMILES": "C(C)(C)(C)C1=CC=C(C(C)=O)C=C1",
    "meta_data": {
        "InChI": "InChI=1S/C12H16O/c1-9(13)10-5-7-11(8-6-10)12(2,3)4/h5-8H,1-4H3",
        "InChIKey": null,
        "Canonical SMILES": "O=C(C1=CC=C(C=C1)C(C)(C)C)C",
        "Molecular Formula": "C<sub>12</sub>H<sub>16</sub>O",
        "Molecular Mass": "176.25",
        "Boiling Point": "97-98 °C @ Press: 0.8 Torr",
        "Melting Point": "17.7 °C"
    }
}