{
    "cas_no": "4861-19-2",
    "key_name": "Urea dihydrogen phosphate",
    "cn_name": null,
    "alternate_name": "Urea, phosphate (1:1);Urea, compd. with H<sub>3</sub>PO<sub>4</sub>;Carbamide phosphoric acid;Urea monophosphate;Urea phosphate;Urea orthophosphate;Urea dihydrogen phosphate;Bepikor 1;Urea compd. with phosphoric acid (1:1)",
    "duplicated_cas_no": "",
    "SMILES": "P(=O)(O)(O)O.C(N)(N)=O",
    "meta_data": {
        "InChI": "InChI=1S/CH4N2O.H3O4P/c2-1(3)4;1-5(2,3)4/h(H4,2,3,4);(H3,1,2,3,4)",
        "InChIKey": null,
        "Canonical SMILES": "O=C(N)N.O=P(O)(O)O",
        "Molecular Formula": "CH<sub>4</sub>N<sub>2</sub>O.H<sub>3</sub>O<sub>4</sub>P",
        "Molecular Mass": "",
        "Melting Point": "118-121 °C"
    }
}