{
    "cas_no": "80-04-6",
    "key_name": "Hydrogenated bisphenol A",
    "cn_name": "氢化双酚A;",
    "alternate_name": "Cyclohexanol, 4,4′-(1-methylethylidene)bis-;Cyclohexanol, 4,4′-isopropylidenedi-;4,4′-(1-Methylethylidene)bis[cyclohexanol];HBPA;2,2-Bis(4-hydroxycyclohexyl)propane;Hydrogenated bisphenol A;1,1′-Isopropylidenebis[4-cyclohexanol];Dodecahydrobisphenol A;Perhydrobisphenol A;Hydrobisphenol A;Rikabinol HB;4,4′-Isopropylidenedicyclohexanol;NSC 8990;NSC 8991;NSC 8992;HBPA (diol);4,4′-(Propane-2,2-diyl)dicyclohexanol;ST 4100DX60",
    "duplicated_cas_no": "71402-84-1;93882-53-2",
    "SMILES": "C(C)(C)(C1CCC(O)CC1)C2CCC(O)CC2",
    "meta_data": {
        "InChI": "InChI=1S/C15H28O2/c1-15(2,11-3-7-13(16)8-4-11)12-5-9-14(17)10-6-12/h11-14,16-17H,3-10H2,1-2H3",
        "InChIKey": null,
        "Canonical SMILES": "OC1CCC(CC1)C(C)(C)C2CCC(O)CC2",
        "Molecular Formula": "C<sub>15</sub>H<sub>28</sub>O<sub>2</sub>",
        "Molecular Mass": "240.38",
        "Melting Point": "110-140 °C"
    }
}