{
    "cas_no": "2642-98-0",
    "key_name": "6-Aminochrysene",
    "cn_name": null,
    "alternate_name": "6-Chrysenamine;6-Aminochrysene;Chrysenex;Chrysonex;NSC 80186",
    "duplicated_cas_no": "",
    "SMILES": "NC1=CC2=C(C=3C1=CC=CC3)C=CC=4C2=CC=CC4",
    "meta_data": {
        "InChI": "InChI=1S/C18H13N/c19-18-11-17-13-6-2-1-5-12(13)9-10-15(17)14-7-3-4-8-16(14)18/h1-11H,19H2",
        "InChIKey": null,
        "Canonical SMILES": "NC1=CC=2C=3C=CC=CC3C=CC2C=4C=CC=CC14",
        "Molecular Formula": "C<sub>18</sub>H<sub>13</sub>N",
        "Molecular Mass": "243.30",
        "Melting Point": "210.5 °C"
    }
}