{
    "cas_no": "13472-08-7",
    "key_name": "2,2′-Azobis[2-methylbutyronitrile]",
    "cn_name": "偶氮二异戊腈;2,2\"-偶氮-二-(2-甲基丁腈);",
    "alternate_name": "Butanenitrile, 2,2′-(1,2-diazenediyl)bis[2-methyl-;Butyronitrile, 2,2′-azobis[2-methyl-;Butanenitrile, 2,2′-azobis[2-methyl-;2,2′-(1,2-Diazenediyl)bis[2-methylbutanenitrile];2,2′-Azobis[2-methylbutyronitrile];2,2′-Azobis[α-methylbutyronitrile];2,2′-Dimethyl-2,2′-azodibutyronitrile;Vazo 67;Perkadox AMBN;Azostarter V 59;2,2′-Azobis[2-methylbutanenitrile];Azocatalyst M;V 59;Wako V 59;AMBN;2,2′-Azobis(2-cyanobutane);Perkadox AMBN-gr;AIPN;ABN-E;Vazo 59;AIVN;2,2′-Azodi(2-methylbutyronitrile);2,2′-(Diazene-1,2-diyl)bis(2-methylbutanenitrile);2-[2-(1-Cyano-1-methylpropyl)diazen-1-yl]-2-methylbutanenitrile",
    "duplicated_cas_no": "1129282-73-0",
    "SMILES": "C(N=NC(CC)(C#N)C)(CC)(C#N)C",
    "meta_data": {
        "InChI": "InChI=1S/C10H16N4/c1-5-9(3,7-11)13-14-10(4,6-2)8-12/h5-6H2,1-4H3",
        "InChIKey": null,
        "Canonical SMILES": "N#CC(N=NC(C#N)(C)CC)(C)CC",
        "Molecular Formula": "C<sub>10</sub>H<sub>16</sub>N<sub>4</sub>",
        "Molecular Mass": "192.26",
        "Melting Point": "50 °C"
    }
}