{
    "cas_no": "39067-29-3",
    "key_name": "2-(3-Pyridinyl)-4-thiazolecarboxylic acid",
    "cn_name": null,
    "alternate_name": "4-Thiazolecarboxylic acid, 2-(3-pyridinyl)-;4-Thiazolecarboxylic acid, 2-(3-pyridyl)-;2-(3-Pyridinyl)-4-thiazolecarboxylic acid;2-(3-Pyridyl)thiazole-4-carboxylic acid;2-(3-Pyridinyl)-1,3-thiazole-4-carboxylic acid;2-(3-Pyridyl)-1,3-thiazole-4-carboxylic acid",
    "duplicated_cas_no": "",
    "SMILES": "C(O)(=O)C=1N=C(SC1)C=2C=CC=NC2",
    "meta_data": {
        "InChI": "InChI=1S/C9H6N2O2S/c12-9(13)7-5-14-8(11-7)6-2-1-3-10-4-6/h1-5H,(H,12,13)",
        "InChIKey": null,
        "Canonical SMILES": "O=C(O)C=1N=C(SC1)C=2C=NC=CC2",
        "Molecular Formula": "C<sub>9</sub>H<sub>6</sub>N<sub>2</sub>O<sub>2</sub>S",
        "Molecular Mass": "206.22",
        "Melting Point": "265-268 °C"
    }
}