{
    "cas_no": "100-46-9",
    "key_name": "Benzylamine",
    "cn_name": "苄胺;",
    "alternate_name": "Benzenemethanamine;Benzylamine;α-Aminotoluene;ω-Aminotoluene;Monobenzylamine;(Phenylmethyl)amine;(Aminomethyl)benzene;<em>N</em>-Benzylamine;NSC 8046;1-Phenylmethanamine;Phenylmethanamine",
    "duplicated_cas_no": "857483-23-9;858831-93-3;1647116-31-1",
    "SMILES": "C(N)C1=CC=CC=C1",
    "meta_data": {
        "InChI": "InChI=1S/C7H9N/c8-6-7-4-2-1-3-5-7/h1-5H,6,8H2",
        "InChIKey": null,
        "Canonical SMILES": "NCC=1C=CC=CC1",
        "Molecular Formula": "C<sub>7</sub>H<sub>9</sub>N",
        "Molecular Mass": "107.15",
        "Boiling Point": "185 °C",
        "Melting Point": "10 °C",
        "Density": "0.983 g/cm³ @ Temp: 19 °C"
    }
}