{
    "cas_no": "4531-53-7",
    "key_name": "1<em>H</em>-Imidazole, 5-chloro-1-methyl-, nitrate (1:1)",
    "cn_name": "1-甲基-5-氯咪唑硝酸盐;",
    "alternate_name": "1<em>H</em>-Imidazole, 5-chloro-1-methyl-, nitrate (1:1);Imidazole, 5-chloro-1-methyl-, nitrate;1<em>H</em>-Imidazole, 5-chloro-1-methyl-, mononitrate",
    "duplicated_cas_no": "",
    "SMILES": "N(=O)(=O)O.ClC=1N(C)C=NC1",
    "meta_data": {
        "InChI": "InChI=1S/C4H5ClN2.HNO3/c1-7-3-6-2-4(7)5;2-1(3)4/h2-3H,1H3;(H,2,3,4)",
        "InChIKey": null,
        "Canonical SMILES": "O=N(=O)O.ClC1=CN=CN1C",
        "Molecular Formula": "C<sub>4</sub>H<sub>5</sub>ClN<sub>2</sub>.HNO<sub>3</sub>",
        "Molecular Mass": "",
        "Melting Point": "144-145 °C (decomp)"
    }
}