{
    "cas_no": "100-74-3",
    "key_name": "Ethylmorpholine",
    "cn_name": "N-乙基吗啉;",
    "alternate_name": "Morpholine, 4-ethyl-;4-Ethylmorpholine;<em>N</em>-Ethylmorpholine;Ethylmorpholine;NEM;Kaolizer 22;Jeffcat NEM;NSC 6110;Dabco NEM;Toyocat NEM;KL 22",
    "duplicated_cas_no": "",
    "SMILES": "C(C)N1CCOCC1",
    "meta_data": {
        "InChI": "InChI=1S/C6H13NO/c1-2-7-3-5-8-6-4-7/h2-6H2,1H3",
        "InChIKey": null,
        "Canonical SMILES": "O1CCN(CC)CC1",
        "Molecular Formula": "C<sub>6</sub>H<sub>13</sub>NO",
        "Molecular Mass": "115.17",
        "Boiling Point": "138-139 °C @ Press: 763 Torr",
        "Melting Point": "-62.78 °C",
        "Density": "0.8996 g/cm³ @ Temp: 20 °C"
    }
}