{
    "cas_no": "4229-91-8",
    "key_name": "2-Propylfuran",
    "cn_name": "2-正丙基呋喃;",
    "alternate_name": "Furan, 2-propyl-;2-Propylfuran;α-Propylfuran;NSC 35553",
    "duplicated_cas_no": "",
    "SMILES": "C(CC)C1=CC=CO1",
    "meta_data": {
        "InChI": "InChI=1S/C7H10O/c1-2-4-7-5-3-6-8-7/h3,5-6H,2,4H2,1H3",
        "InChIKey": null,
        "Canonical SMILES": "O1C=CC=C1CCC",
        "Molecular Formula": "C<sub>7</sub>H<sub>10</sub>O",
        "Molecular Mass": "110.15",
        "Boiling Point": "115 °C",
        "Density": "0.882 g/cm³ @ Temp: 25 °C"
    }
}