{
    "cas_no": "28448-85-3",
    "key_name": "Bavachalcone",
    "cn_name": null,
    "alternate_name": "2-Propen-1-one, 1-[2,4-dihydroxy-5-(3-methyl-2-buten-1-yl)phenyl]-3-(4-hydroxyphenyl)-, (2<em>E</em>)-;2-Propen-1-one, 1-[2,4-dihydroxy-5-(3-methyl-2-butenyl)phenyl]-3-(4-hydroxyphenyl)-, (<em>E</em>)-;Chalcone, 2′,4,4′-trihydroxy-5′-(3-methyl-2-butenyl)-, (<em>E</em>)-;2-Propen-1-one, 1-[2,4-dihydroxy-5-(3-methyl-2-butenyl)phenyl]-3-(4-hydroxyphenyl)-, (2<em>E</em>)-;(2<em>E</em>)-1-[2,4-Dihydroxy-5-(3-methyl-2-buten-1-yl)phenyl]-3-(4-hydroxyphenyl)-2-propen-1-one;Bavachalcone;Broussochalcone B",
    "duplicated_cas_no": "",
    "SMILES": "C(/C=C/C1=CC=C(O)C=C1)(=O)C2=CC(CC=C(C)C)=C(O)C=C2O",
    "meta_data": {
        "InChI": "InChI=1S/C20H20O4/c1-13(2)3-7-15-11-17(20(24)12-19(15)23)18(22)10-6-14-4-8-16(21)9-5-14/h3-6,8-12,21,23-24H,7H2,1-2H3/b10-6+",
        "InChIKey": null,
        "Canonical SMILES": "O=C(C=CC1=CC=C(O)C=C1)C=2C=C(C(O)=CC2O)CC=C(C)C",
        "Molecular Formula": "C<sub>20</sub>H<sub>20</sub>O<sub>4</sub>",
        "Molecular Mass": "324.37",
        "Melting Point": "168-169 °C"
    }
}