{
    "cas_no": "37595-74-7",
    "key_name": "<em>N</em>-Phenyltrifluoromethanesulfonimide",
    "cn_name": "N-苯基双(三氟甲烷磺酰)亚胺;",
    "alternate_name": "Methanesulfonamide, 1,1,1-trifluoro-<em>N</em>-phenyl-<em>N</em>-[(trifluoromethyl)sulfonyl]-;1,1,1-Trifluoro-<em>N</em>-phenyl-<em>N</em>-[(trifluoromethyl)sulfonyl]methanesulfonamide;<em>N</em>,<em>N</em>-Bis(trifluoromethylsulfonyl)aniline;<em>N</em>,<em>N</em>-Bis(trifluoromethylsulfonyl)phenylamine;Phenyl triflimide;<em>N</em>-Phenyltriflimide;<em>N</em>,<em>N</em>-Bis(trifluoromethanesulfonyl)aniline;<em>N</em>-Phenyltrifluoromethanesulfonimide;<em>N</em>-Phenyltrifluoromethylsulfonimide;Phenyl bis((trifluoromethyl)sulfonyl)amine;Trifluoro-<em>N</em>-phenyl-<em>N</em>-[(trifluoromethyl)sulfonyl]methanesulfonamide;NSC 240874;<em>N</em>-Phenylbis(trifluoromethanesulfonimide);1,1,1-Trifluoro-<em>N</em>-phenyl-<em>N</em>-trifluoromethanesulfonylmethanesulfonamide;<em>N</em>-Phenyl-<em>N</em>-[(trifluoromethyl)sulfonyl]trifluoromethanesulfonamide;<em>N</em>-Phenylbis(trifluoromethanesulfonyl)imide;PhNTf<sub>2</sub>;<em>N</em>-Phenyl-<em>N</em>-(trifluoromethanesulfonyl)trifluoromethanesulfonamide;<em>N</em>,<em>N</em>′-Bis(trifluoromethanesulfonyl)aniline;<em>N</em>-Phenyl-bis(trifluoromethanesulfonimide)",
    "duplicated_cas_no": "155262-60-5",
    "SMILES": "N(S(C(F)(F)F)(=O)=O)(S(C(F)(F)F)(=O)=O)C1=CC=CC=C1",
    "meta_data": {
        "InChI": "InChI=1S/C8H5F6NO4S2/c9-7(10,11)20(16,17)15(6-4-2-1-3-5-6)21(18,19)8(12,13)14/h1-5H",
        "InChIKey": null,
        "Canonical SMILES": "O=S(=O)(N(C=1C=CC=CC1)S(=O)(=O)C(F)(F)F)C(F)(F)F",
        "Molecular Formula": "C<sub>8</sub>H<sub>5</sub>F<sub>6</sub>NO<sub>4</sub>S<sub>2</sub>",
        "Molecular Mass": "357.25",
        "Melting Point": "95-96 °C"
    }
}