{
    "cas_no": "14437-03-7",
    "key_name": "Methyl <em>N</em>-[(4-methylphenyl)sulfonyl]carbamate",
    "cn_name": null,
    "alternate_name": "Carbamic acid, <em>N</em>-[(4-methylphenyl)sulfonyl]-, methyl ester;Carbamic acid, (<em>p</em>-tolylsulfonyl)-, methyl ester;Carbamic acid, [(4-methylphenyl)sulfonyl]-, methyl ester;Methyl <em>N</em>-[(4-methylphenyl)sulfonyl]carbamate;Methyl <em>N</em>-(<em>p</em>-tosyl)carbamate;Methyl <em>N</em>-(<em>p</em>-toluenesulfonyl)carbamate;Methyl <em>N</em>-tosylcarbamate;Methyl tosylcarbamate",
    "duplicated_cas_no": "",
    "SMILES": "S(NC(OC)=O)(=O)(=O)C1=CC=C(C)C=C1",
    "meta_data": {
        "InChI": "InChI=1S/C9H11NO4S/c1-7-3-5-8(6-4-7)15(12,13)10-9(11)14-2/h3-6H,1-2H3,(H,10,11)",
        "InChIKey": null,
        "Canonical SMILES": "O=C(OC)NS(=O)(=O)C1=CC=C(C=C1)C",
        "Molecular Formula": "C<sub>9</sub>H<sub>11</sub>NO<sub>4</sub>S",
        "Molecular Mass": "229.25",
        "Melting Point": "115 °C"
    }
}