{
    "cas_no": "18791-75-8",
    "key_name": "4-Bromo-2-thiophenecarboxaldehyde",
    "cn_name": "4-溴-2-噻吩甲醛;",
    "alternate_name": "2-Thiophenecarboxaldehyde, 4-bromo-;4-Bromo-2-thiophenecarboxaldehyde;4-Bromo-2-formylthiophene;3-Bromo-5-formylthiophene;3-Bromo-5-thiophenecarboxaldehyde;4-Bromothiophen-2-aldehyde;4-Bromothiophen-2-carboxaldehyde;4-Bromothiophene-2-carbaldehyde",
    "duplicated_cas_no": "",
    "SMILES": "C(=O)C1=CC(Br)=CS1",
    "meta_data": {
        "InChI": "InChI=1S/C5H3BrOS/c6-4-1-5(2-7)8-3-4/h1-3H",
        "InChIKey": null,
        "Canonical SMILES": "O=CC=1SC=C(Br)C1",
        "Molecular Formula": "C<sub>5</sub>H<sub>3</sub>BrOS",
        "Molecular Mass": "191.05",
        "Boiling Point": "114-115 °C @ Press: 11 Torr",
        "Melting Point": "44-45 °C"
    }
}