{
    "cas_no": "77377-52-7",
    "key_name": "<em>N</em>-Methyl-<em>N</em>-(<em>tert</em>-butyldimethylsilyl)trifluoroacetamide",
    "cn_name": "N-(特丁基二甲基硅)-N-甲基三氟乙酰胺;",
    "alternate_name": "Acetamide, <em>N</em>-[(1,1-dimethylethyl)dimethylsilyl]-2,2,2-trifluoro-<em>N</em>-methyl-;<em>N</em>-[(1,1-Dimethylethyl)dimethylsilyl]-2,2,2-trifluoro-<em>N</em>-methylacetamide;<em>N</em>-Methyl-<em>N</em>-(<em>tert</em>-butyldimethylsilyl)trifluoroacetamide;<em>N</em>-(<em>tert</em>-Butyldimethylsilyl)-<em>N</em>-methyltrifluoroacetamide;<em>N</em>-Methyl-<em>N</em>-(<em>tert</em>-butyldimethylsilyl)-1,1,1-trifluoroacetamide;<em>N</em>-Methyl-<em>N</em>-(<em>tert</em>-butyltdimethylsilyl)trifluoroacetamide;<em>N</em>-(Tertbutyldimethylsilyl)-<em>N</em>-methyltrifluoroacetamide",
    "duplicated_cas_no": "",
    "SMILES": "N([Si](C(C)(C)C)(C)C)(C(C(F)(F)F)=O)C",
    "meta_data": {
        "InChI": "InChI=1S/C9H18F3NOSi/c1-8(2,3)15(5,6)13(4)7(14)9(10,11)12/h1-6H3",
        "InChIKey": null,
        "Canonical SMILES": "O=C(N(C)[Si](C)(C)C(C)(C)C)C(F)(F)F",
        "Molecular Formula": "C<sub>9</sub>H<sub>18</sub>F<sub>3</sub>NOSi",
        "Molecular Mass": "241.33",
        "Boiling Point": "168-170 °C",
        "Density": "1.023 g/cm³"
    }
}