{
    "cas_no": "271-34-1",
    "key_name": "1<em>H</em>-Pyrrolo[3,2-<em>c</em>]pyridine",
    "cn_name": "5-氮杂吲哚;",
    "alternate_name": "1<em>H</em>-Pyrrolo[3,2-<em>c</em>]pyridine;1,5-Diazaindene;5-Azaindole;3,7-Dideazapurine",
    "duplicated_cas_no": "",
    "SMILES": "C1=2C(NC=C1)=CC=NC2",
    "meta_data": {
        "InChI": "InChI=1S/C7H6N2/c1-4-9-7-2-3-8-5-6(1)7/h1-5,9H",
        "InChIKey": null,
        "Canonical SMILES": "N=1C=CC=2NC=CC2C1",
        "Molecular Formula": "C<sub>7</sub>H<sub>6</sub>N<sub>2</sub>",
        "Molecular Mass": "118.14",
        "Boiling Point": "97 °C @ Press: 0.5 Torr",
        "Melting Point": "112 °C"
    }
}