{
    "cas_no": "52943-21-2",
    "key_name": "2-Chloro-<em>N</em>,<em>N</em>-dimethyl-3-pyridinecarboxamide",
    "cn_name": "2-氯-N,N-二甲基烟酰胺; 2-氯-N,N-二甲基-3-吡啶甲酰胺;",
    "alternate_name": "3-Pyridinecarboxamide, 2-chloro-<em>N</em>,<em>N</em>-dimethyl-;2-Chloro-<em>N</em>,<em>N</em>-dimethyl-3-pyridinecarboxamide;2-Chloro-<em>N</em>,<em>N</em>-dimethylnicotinamide;<em>N</em>,<em>N</em>-Dimethyl-2-chloronicotinamide",
    "duplicated_cas_no": "",
    "SMILES": "C(N(C)C)(=O)C1=C(Cl)N=CC=C1",
    "meta_data": {
        "InChI": "InChI=1S/C8H9ClN2O/c1-11(2)8(12)6-4-3-5-10-7(6)9/h3-5H,1-2H3",
        "InChIKey": null,
        "Canonical SMILES": "O=C(C1=CC=CN=C1Cl)N(C)C",
        "Molecular Formula": "C<sub>8</sub>H<sub>9</sub>ClN<sub>2</sub>O",
        "Molecular Mass": "184.62",
        "Melting Point": "69.10 °C"
    }
}