{
    "cas_no": "3254-89-5",
    "key_name": "Diphenidol hydrochloride",
    "cn_name": "盐酸地芬尼多;1,1-二苯基-4-(1-哌啶基)-1-丁醇盐酸盐;",
    "alternate_name": "1-Piperidinebutanol, α,α-diphenyl-, hydrochloride (1:1);1-Piperidinebutanol, α,α-diphenyl-, hydrochloride;Diphenidol hydrochloride;Ansmin;Cefadol;Vontrol;Difenidolin;Tenesdol;SKF 478A;Wansar;Satanolon;Mecalmin;Pineroro;Celmidol;Maniol;Difenidol hydrochloride;1,1-Diphenyl-4-(piperidin-1-yl)butan-1-ol hydrochloride",
    "duplicated_cas_no": "",
    "SMILES": "C(CCCN1CCCCC1)(O)(C2=CC=CC=C2)C3=CC=CC=C3.Cl",
    "meta_data": {
        "InChI": "InChI=1S/C21H27NO.ClH/c23-21(19-11-4-1-5-12-19,20-13-6-2-7-14-20)15-10-18-22-16-8-3-9-17-22;/h1-2,4-7,11-14,23H,3,8-10,15-18H2;1H",
        "InChIKey": null,
        "Canonical SMILES": "Cl.OC(C=1C=CC=CC1)(C=2C=CC=CC2)CCCN3CCCCC3",
        "Molecular Formula": "C<sub>21</sub>H<sub>27</sub>NO.ClH",
        "Molecular Mass": "",
        "Melting Point": "212-214 °C"
    }
}