{
    "cas_no": "592-20-1",
    "key_name": "1-(Acetyloxy)-2-propanone",
    "cn_name": "乙酰氧基-2-丙酮;过氧化乙酰丙酮;丙酮基乙酸;",
    "alternate_name": "2-Propanone, 1-(acetyloxy)-;2-Propanone, 1-hydroxy-, acetate;2-Propanone, hydroxy-, acetate;1-(Acetyloxy)-2-propanone;<em>O</em>-Acetylacetol;Acetol acetate;Acetoxypropanone;1-Hydroxy-2-propanone acetate;Acetoxyacetone;Acetonyl acetate;Acetylmethyl acetate;1-Acetoxyacetone;2-Oxopropyl acetate;1-Acetoxy-2-propanone;Acetic acid acetonyl ester;1-(Acetyloxy)propan-2-one;NSC 2298;NSC 7614;Acetyloxyacetone",
    "duplicated_cas_no": "",
    "SMILES": "C(OC(C)=O)C(C)=O",
    "meta_data": {
        "InChI": "InChI=1S/C5H8O3/c1-4(6)3-8-5(2)7/h3H2,1-2H3",
        "InChIKey": null,
        "Canonical SMILES": "O=C(OCC(=O)C)C",
        "Molecular Formula": "C<sub>5</sub>H<sub>8</sub>O<sub>3</sub>",
        "Molecular Mass": "116.12",
        "Boiling Point": "171 °C",
        "Melting Point": "74.0-75.5 °C",
        "Density": "1.0757 g/cm³ @ Temp: 20 °C"
    }
}