{
    "cas_no": "162536-40-5",
    "key_name": "1,1-Dimethylethyl <em>N</em>-[(1<em>S</em>,2<em>R</em>)-3-chloro-2-hydroxy-1-(phenylmethyl)propyl]carbamate",
    "cn_name": null,
    "alternate_name": "Carbamic acid, <em>N</em>-[(1<em>S</em>,2<em>R</em>)-3-chloro-2-hydroxy-1-(phenylmethyl)propyl]-, 1,1-dimethylethyl ester;Carbamic acid, [3-chloro-2-hydroxy-1-(phenylmethyl)propyl]-, 1,1-dimethylethyl ester, [<em>R</em>-(<em>R</em>*,<em>S</em>*)]-;Carbamic acid, [(1<em>S</em>,2<em>R</em>)-3-chloro-2-hydroxy-1-(phenylmethyl)propyl]-, 1,1-dimethylethyl ester;1,1-Dimethylethyl <em>N</em>-[(1<em>S</em>,2<em>R</em>)-3-chloro-2-hydroxy-1-(phenylmethyl)propyl]carbamate;(2<em>R</em>,3<em>S</em>)-3-(<em>tert</em>-Butoxycarbonylamino)-1-chloro-2-hydroxy-4-phenylbutane;(2<em>R</em>,3<em>S</em>)-<em>N</em>-<em>tert</em>-Butoxycarbonyl-3-amino-1-chloro-2-hydroxy-4-phenylbutane;(2R,3S)-1-Chloro-3-<em>tert</em>-butoxycarbonylamino-4-phenyl-2-butanol",
    "duplicated_cas_no": "2577996-27-9",
    "SMILES": "[C@@H](CC1=CC=CC=C1)(NC(OC(C)(C)C)=O)[C@H](CCl)O",
    "meta_data": {
        "InChI": "InChI=1S/C15H22ClNO3/c1-15(2,3)20-14(19)17-12(13(18)10-16)9-11-7-5-4-6-8-11/h4-8,12-13,18H,9-10H2,1-3H3,(H,17,19)/t12-,13-/m0/s1",
        "InChIKey": null,
        "Canonical SMILES": "O=C(OC(C)(C)C)NC(CC=1C=CC=CC1)C(O)CCl",
        "Molecular Formula": "C<sub>15</sub>H<sub>22</sub>ClNO<sub>3</sub>",
        "Molecular Mass": "299.79",
        "Melting Point": "83-84 °C"
    }
}