{
    "cas_no": "612-22-6",
    "key_name": "1-Ethyl-2-nitrobenzene",
    "cn_name": "2-硝基乙基苯;邻硝基乙苯;",
    "alternate_name": "Benzene, 1-ethyl-2-nitro-;1-Ethyl-2-nitrobenzene;<em>o</em>-Nitroethylbenzene;<em>o</em>-Ethylnitrobenzene;2-Ethyl-1-nitrobenzene;2-Ethylnitrobenzene;NSC 5095;2-Nitro-1-ethylbenzene;2-Nitro(ethylbenzene);Benzenamine, 2-ethyl-<em>N</em>,<em>N</em>-dihydroxy-",
    "duplicated_cas_no": "2181166-23-2;2649108-34-7",
    "SMILES": "C(C)C1=C(N(=O)=O)C=CC=C1",
    "meta_data": {
        "InChI": "InChI=1S/C8H9NO2/c1-2-7-5-3-4-6-8(7)9(10)11/h3-6H,2H2,1H3",
        "InChIKey": null,
        "Canonical SMILES": "O=N(=O)C=1C=CC=CC1CC",
        "Molecular Formula": "C<sub>8</sub>H<sub>9</sub>NO<sub>2</sub>",
        "Molecular Mass": "151.16",
        "Boiling Point": "232.5 °C",
        "Melting Point": "-12.3 °C",
        "Density": "1.1236 g/cm³ @ Temp: 20 °C"
    }
}