{
    "cas_no": "13485-59-1",
    "key_name": "<span class=\"text-smallcaps\">L</smallcap>-Alanyl-<smallcap>L</span>-proline",
    "cn_name": "L-丙氨酰-L-脯氨酸;",
    "alternate_name": "<span class=\"text-smallcaps\">L</smallcap>-Proline, <smallcap>L</span>-alanyl-;Proline, 1-<span class=\"text-smallcaps\">L</smallcap>-alanyl-, <smallcap>L</span>-;<span class=\"text-smallcaps\">L</smallcap>-Proline, 1-<smallcap>L</span>-alanyl-;Proline, 1-<span class=\"text-smallcaps\">L</span>-alanyl-;<span class=\"text-smallcaps\">L</smallcap>-Alanyl-<smallcap>L</span>-proline;<span class=\"text-smallcaps\">L</smallcap>-α-Alanyl-<smallcap>L</span>-proline;Alanylproline;<em>N</em>-Alanylproline;NSC 97932;443: PN: WO2005081628 SEQID: 445 claimed protein;101: PN: US20070066537 PAGE: 17 claimed protein;150: PN: EP2161028 PAGE: 10 claimed protein;76: PN: WO2011146121 PAGE: 115 claimed sequence;12: PN: WO2014170713 SEQID: 112 claimed protein;3: PN: WO2019040282 PAGE: 70 claimed sequence;2: PN: WO2020023418 PAGE: 66 claimed sequence;20: PN: WO2020097235 SEQID: 249 claimed protein;96: PN: WO2021211467 SEQID: 249 claimed sequence;164: PN: WO2022103927 SEQID: 201 claimed protein;4: PN: WO2022197971 PAGE: 96 claimed sequence;51: PN: WO2022228492 SEQID: 51 claimed protein",
    "duplicated_cas_no": "",
    "SMILES": "C([C@H](C)N)(=O)N1[C@H](C(O)=O)CCC1",
    "meta_data": {
        "InChI": "InChI=1S/C8H14N2O3/c1-5(9)7(11)10-4-2-3-6(10)8(12)13/h5-6H,2-4,9H2,1H3,(H,12,13)/t5-,6-/m0/s1",
        "InChIKey": null,
        "Canonical SMILES": "O=C(O)C1N(C(=O)C(N)C)CCC1",
        "Molecular Formula": "C<sub>8</sub>H<sub>14</sub>N<sub>2</sub>O<sub>3</sub>",
        "Molecular Mass": "186.21",
        "Melting Point": "154-155 °C"
    }
}