{
    "cas_no": "67979-25-3",
    "key_name": "Aurantioobtusin",
    "cn_name": null,
    "alternate_name": "9,10-Anthracenedione, 1,3,7-trihydroxy-2,8-dimethoxy-6-methyl-;1,3,7-Trihydroxy-2,8-dimethoxy-6-methyl-9,10-anthracenedione;Aurantioobtusin",
    "duplicated_cas_no": "",
    "SMILES": "O(C)C1=C2C(C(=O)C=3C(C2=O)=C(O)C(OC)=C(O)C3)=CC(C)=C1O",
    "meta_data": {
        "InChI": "InChI=1S/C17H14O7/c1-6-4-7-11(17(24-3)12(6)19)14(21)10-8(13(7)20)5-9(18)16(23-2)15(10)22/h4-5,18-19,22H,1-3H3",
        "InChIKey": null,
        "Canonical SMILES": "O=C1C2=CC(O)=C(OC)C(O)=C2C(=O)C=3C(OC)=C(O)C(=CC13)C",
        "Molecular Formula": "C<sub>17</sub>H<sub>14</sub>O<sub>7</sub>",
        "Molecular Mass": "330.29",
        "Melting Point": "265-266 °C"
    }
}