{
    "cas_no": "16012-70-7",
    "key_name": "<em>N</em>-[(Phenylmethoxy)carbonyl]-<span class=\"text-smallcaps\">L</smallcap>-alanyl-<smallcap>L</span>-alanine",
    "cn_name": null,
    "alternate_name": "<span class=\"text-smallcaps\">L</smallcap>-Alanine, <em>N</em>-[(phenylmethoxy)carbonyl]-<smallcap>L</span>-alanyl-;Alanine, <em>N</em>-(<em>N</em>-carboxy-<span class=\"text-smallcaps\">L</smallcap>-alanyl)-, <em>N</em>-benzyl ester, <smallcap>L</span>-;<span class=\"text-smallcaps\">L</smallcap>-Alanine, <em>N</em>-[<em>N</em>-[(phenylmethoxy)carbonyl]-<smallcap>L</span>-alanyl]-;Alanine, <em>N</em>-(<em>N</em>-carboxyalanyl)-, <em>N</em>-benzyl ester;<em>N</em>-[(Phenylmethoxy)carbonyl]-<span class=\"text-smallcaps\">L</smallcap>-alanyl-<smallcap>L</span>-alanine;<em>N</em>-(Benzyloxycarbonyl)-<span class=\"text-smallcaps\">L</smallcap>-alanyl-<smallcap>L</span>-alanine;Benzyloxycarbonyl-<span class=\"text-smallcaps\">L</smallcap>-alanyl-<smallcap>L</span>-alanine;<em>N</em>-(Benzyloxycarbonyl)alanylalanine",
    "duplicated_cas_no": "",
    "SMILES": "C(OC(N[C@H](C(N[C@H](C(O)=O)C)=O)C)=O)C1=CC=CC=C1",
    "meta_data": {
        "InChI": "InChI=1S/C14H18N2O5/c1-9(12(17)15-10(2)13(18)19)16-14(20)21-8-11-6-4-3-5-7-11/h3-7,9-10H,8H2,1-2H3,(H,15,17)(H,16,20)(H,18,19)/t9-,10-/m0/s1",
        "InChIKey": null,
        "Canonical SMILES": "O=C(OCC=1C=CC=CC1)NC(C(=O)NC(C(=O)O)C)C",
        "Molecular Formula": "C<sub>14</sub>H<sub>18</sub>N<sub>2</sub>O<sub>5</sub>",
        "Molecular Mass": "294.30",
        "Melting Point": "136-140 °C"
    }
}