{
    "cas_no": "2274-11-5",
    "key_name": "Ethylene acrylate",
    "cn_name": "2-丙烯酸1,2-乙二基酯;",
    "alternate_name": "2-Propenoic acid, 1,1′-(1,2-ethanediyl) ester;Acrylic acid, ethylene ester;2-Propenoic acid, 1,2-ethanediyl ester;Ethylene glycol, diacrylate;Acrylic acid, diester with ethylene glycol;Ethylene diacrylate;Ethylene acrylate;1,2-Ethanediol diacrylate;Light Ester EG-A;NSC 24160;Lightacrylate EG-A;2-(Prop-2-enoyloxy)ethyl prop-2-enoate;Saret 230",
    "duplicated_cas_no": "136261-59-1",
    "SMILES": "O(CCOC(C=C)=O)C(C=C)=O",
    "meta_data": {
        "InChI": "InChI=1S/C8H10O4/c1-3-7(9)11-5-6-12-8(10)4-2/h3-4H,1-2,5-6H2",
        "InChIKey": null,
        "Canonical SMILES": "O=C(OCCOC(=O)C=C)C=C",
        "Molecular Formula": "C<sub>8</sub>H<sub>10</sub>O<sub>4</sub>",
        "Molecular Mass": "170.16",
        "Boiling Point": "53-57 °C @ Press: 0.6 Torr",
        "Melting Point": "184-193 °C"
    }
}