{
    "cas_no": "3290-99-1",
    "key_name": "4-Methoxybenzohydrazide",
    "cn_name": "4-甲氧基苯甲酰肼;对甲氧基苯甲酰肼;",
    "alternate_name": "Benzoic acid, 4-methoxy-, hydrazide;<em>p</em>-Anisic acid, hydrazide;Anisic acid hydrazide;<em>p</em>-Methoxybenzoic acid hydrazide;(<em>p</em>-Methoxybenzoyl)hydrazine;<em>p</em>-Anisoylhydrazine;(4-Methoxybenzoyl)hydrazine;4-Methoxybenzoic acid hydrazide;<em>p</em>-Methoxybenzoic hydrazide;<em>p</em>-Methoxybenzoyl hydrazide;<em>p</em>-Anisic hydrazide;4-Methoxybenzohydrazide;4-Methoxybenzhydrazide;<em>p</em>-Anisoylhydrazide;<em>p</em>-Methoxybenzohydrazide;4-Methoxybenzoic hydrazide;NSC 76223;<em>p</em>-Methoxybenzhydrazide;4-Methoxybenohydrazide;Benzoic acid, 4-methoxy-, hydrazinyl ester",
    "duplicated_cas_no": "2720505-67-7",
    "SMILES": "C(NN)(=O)C1=CC=C(OC)C=C1",
    "meta_data": {
        "InChI": "InChI=1S/C8H10N2O2/c1-12-7-4-2-6(3-5-7)8(11)10-9/h2-5H,9H2,1H3,(H,10,11)",
        "InChIKey": null,
        "Canonical SMILES": "O=C(NN)C1=CC=C(OC)C=C1",
        "Molecular Formula": "C<sub>8</sub>H<sub>10</sub>N<sub>2</sub>O<sub>2</sub>",
        "Molecular Mass": "166.18",
        "Melting Point": "135-136 °C"
    }
}