{
    "cas_no": "13373-97-2",
    "key_name": "1-Eicosanethiol",
    "cn_name": null,
    "alternate_name": "1-Eicosanethiol;<em>n</em>-Eicosylmercaptan;Eicosane-1-thiol",
    "duplicated_cas_no": "",
    "SMILES": "C(CCCCCCCCCC)CCCCCCCCCS",
    "meta_data": {
        "InChI": "InChI=1S/C20H42S/c1-2-3-4-5-6-7-8-9-10-11-12-13-14-15-16-17-18-19-20-21/h21H,2-20H2,1H3",
        "InChIKey": null,
        "Canonical SMILES": "SCCCCCCCCCCCCCCCCCCCC",
        "Molecular Formula": "C<sub>20</sub>H<sub>42</sub>S",
        "Molecular Mass": "314.61",
        "Melting Point": "31 °C"
    }
}