{
    "cas_no": "122836-35-5",
    "key_name": "Sulfentrazone",
    "cn_name": null,
    "alternate_name": "Methanesulfonamide, <em>N</em>-[2,4-dichloro-5-[4-(difluoromethyl)-4,5-dihydro-3-methyl-5-oxo-1<em>H</em>-1,2,4-triazol-1-yl]phenyl]-;<em>N</em>-[2,4-Dichloro-5-[4-(difluoromethyl)-4,5-dihydro-3-methyl-5-oxo-1<em>H</em>-1,2,4-triazol-1-yl]phenyl]methanesulfonamide;F 6285;Sulfentrazone;Authority;Authority 75DF;Capaz;Boral;Blanket;Spartan;Dismiss;2′,4′-Dichloro-5′-(4-difluoromethyl-4,5-dihydro-3-methyl-5-oxo-1H-1,2,4-triazol-1-yl)methanesulfonanilide",
    "duplicated_cas_no": "111991-58-3",
    "SMILES": "O=C1N(N=C(C)N1C(F)F)C2=CC(NS(C)(=O)=O)=C(Cl)C=C2Cl",
    "meta_data": {
        "InChI": "InChI=1S/C11H10Cl2F2N4O3S/c1-5-16-19(11(20)18(5)10(14)15)9-4-8(17-23(2,21)22)6(12)3-7(9)13/h3-4,10,17H,1-2H3",
        "InChIKey": null,
        "Canonical SMILES": "O=C1N(N=C(N1C(F)F)C)C2=CC(NS(=O)(=O)C)=C(Cl)C=C2Cl",
        "Molecular Formula": "C<sub>11</sub>H<sub>10</sub>Cl<sub>2</sub>F<sub>2</sub>N<sub>4</sub>O<sub>3</sub>S",
        "Molecular Mass": "387.19",
        "Melting Point": "121-123 °C",
        "Density": "1.21 g/cm³ @ Temp: 20 °C"
    }
}