{
    "cas_no": "627-03-2",
    "key_name": "Ethoxyacetic acid",
    "cn_name": "乙氧基乙酸;",
    "alternate_name": "Acetic acid, 2-ethoxy-;Acetic acid, ethoxy-;2-Ethoxyacetic acid;Ethoxyacetic acid;Ethyloxyacetic acid;NSC 6750;3-Oxapentanoic acid",
    "duplicated_cas_no": "",
    "SMILES": "C(C(O)=O)OCC",
    "meta_data": {
        "InChI": "InChI=1S/C4H8O3/c1-2-7-3-4(5)6/h2-3H2,1H3,(H,5,6)",
        "InChIKey": null,
        "Canonical SMILES": "O=C(O)COCC",
        "Molecular Formula": "C<sub>4</sub>H<sub>8</sub>O<sub>3</sub>",
        "Molecular Mass": "104.10",
        "Boiling Point": "206.5 °C",
        "Density": "1.0347 g/cm³ @ Temp: 10 °C"
    }
}