{
    "cas_no": "497-37-0",
    "key_name": "<em>exo</em>-Norborneol",
    "cn_name": null,
    "alternate_name": "Bicyclo[2.2.1]heptan-2-ol, (1<em>R</em>,2<em>R</em>,4<em>S</em>)-<em>rel</em>-;2-Norbornanol, <em>exo</em>-;Bicyclo[2.2.1]heptan-2-ol, <em>exo</em>-;<em>rel</em>-(1<em>R</em>,2<em>R</em>,4<em>S</em>)-Bicyclo[2.2.1]heptan-2-ol;<em>exo</em>-2-Norborneol;<em>exo</em>-2-Norbornanol;<em>exo</em>-Norbornanol;<em>exo</em>-Norborneol;<em>exo</em>-2-Norbornyl alcohol;<em>exo</em>-Bicyclo[2.2.1]heptan-2-ol;<em>exo</em>-Norbornyl alcohol;2-<em>exo</em>-Norbornanol;<em>exo</em>-2-Hydroxybicyclo[2.2.1]heptane;d,<em>l</em>-<em>exo</em>-Norborneol;(±)-<em>exo</em>-Norborneol;<em>exo</em>-(±)-2-Norborneol;NSC 167460;<em>exo</em>-2-Bicyclo[2.2.1]heptanol",
    "duplicated_cas_no": "60133-16-6",
    "SMILES": "O[C@@H]1[C@@]2(C[C@](C1)(CC2)[H])[H]",
    "meta_data": {
        "InChI": "InChI=1/C7H12O/c8-7-4-5-1-2-6(7)3-5/h5-8H,1-4H2/t5-,6+,7+/s2",
        "InChIKey": null,
        "Canonical SMILES": "OC1CC2CCC1C2",
        "Molecular Formula": "C<sub>7</sub>H<sub>12</sub>O",
        "Molecular Mass": "112.17",
        "Boiling Point": "176.5 °C",
        "Melting Point": "124 °C"
    }
}