{
    "cas_no": "1701-93-5",
    "key_name": "Silver thiocyanate",
    "cn_name": "硫氰酸银;",
    "alternate_name": "Thiocyanic acid, silver(1+) salt (1:1);Thiocyanic acid, silver(1+) salt;Silver thiocyanate;Silver thiocyanate (AgCNS);Silver isothiocyanate;Silver(1+) thiocyanate;Silver(I) thiocyanate",
    "duplicated_cas_no": "22842-84-8;858235-52-6",
    "SMILES": "C(#N)S.[Ag]",
    "meta_data": {
        "InChI": "InChI=1S/CHNS.Ag/c2-1-3;/h3H;",
        "InChIKey": null,
        "Canonical SMILES": "[Ag].N#CS",
        "Molecular Formula": "CHNS.Ag",
        "Molecular Mass": "",
        "Melting Point": "63-64 °C"
    }
}