{
    "cas_no": "12013-55-7",
    "key_name": "Calcium silicide (CaSi)",
    "cn_name": null,
    "alternate_name": "Calcium silicide (CaSi);Calcium monosilicide",
    "duplicated_cas_no": "389805-88-3;2087875-13-4",
    "SMILES": "",
    "meta_data": {
        "InChI": "",
        "InChIKey": null,
        "Canonical SMILES": "",
        "Molecular Formula": "CaSi",
        "Molecular Mass": "",
        "Melting Point": "1315 °C"
    }
}