{
    "cas_no": "827-15-6",
    "key_name": "Pentafluoroiodobenzene",
    "cn_name": "碘五氟苯;",
    "alternate_name": "Benzene, 1,2,3,4,5-pentafluoro-6-iodo-;Benzene, pentafluoroiodo-;1,2,3,4,5-Pentafluoro-6-iodobenzene;Pentafluoroiodobenzene;Iodopentafluorobenzene;Iodoperfluorobenzene;2,3,4,5,6-Pentafluoroiodobenzene;Pentafluorophenyl iodide;Perfluoroiodobenzene;NSC 88306",
    "duplicated_cas_no": "",
    "SMILES": "FC1=C(F)C(F)=C(I)C(F)=C1F",
    "meta_data": {
        "InChI": "InChI=1S/C6F5I/c7-1-2(8)4(10)6(12)5(11)3(1)9",
        "InChIKey": null,
        "Canonical SMILES": "FC=1C(F)=C(F)C(I)=C(F)C1F",
        "Molecular Formula": "C<sub>6</sub>F<sub>5</sub>I",
        "Molecular Mass": "293.96",
        "Boiling Point": "166 °C",
        "Melting Point": "-29 °C"
    }
}