{
    "cas_no": "2305-37-5",
    "key_name": "3-Amino-5-methylbenzoic acid",
    "cn_name": null,
    "alternate_name": "Benzoic acid, 3-amino-5-methyl-;<em>m</em>-Toluic acid, 5-amino-;3-Amino-5-methylbenzoic acid;5-Amino-<em>m</em>-toluic acid",
    "duplicated_cas_no": "",
    "SMILES": "C(O)(=O)C1=CC(C)=CC(N)=C1",
    "meta_data": {
        "InChI": "InChI=1S/C8H9NO2/c1-5-2-6(8(10)11)4-7(9)3-5/h2-4H,9H2,1H3,(H,10,11)",
        "InChIKey": null,
        "Canonical SMILES": "O=C(O)C1=CC(N)=CC(=C1)C",
        "Molecular Formula": "C<sub>8</sub>H<sub>9</sub>NO<sub>2</sub>",
        "Molecular Mass": "151.16",
        "Melting Point": "183-184 °C"
    }
}