{
    "cas_no": "497-30-3",
    "key_name": "Ergothioneine",
    "cn_name": null,
    "alternate_name": "1<em>H</em>-Imidazole-4-ethanaminium, α-carboxy-2,3-dihydro-<em>N</em>,<em>N</em>,<em>N</em>-trimethyl-2-thioxo-, inner salt, (α<em>S</em>)-;1<em>H</em>-Imidazole-4-ethanaminium, α-carboxy-2,3-dihydro-<em>N</em>,<em>N</em>,<em>N</em>-trimethyl-2-thioxo-, hydroxide, inner salt, (<em>S</em>)-;Ammonium, [1-carboxy-2-(2-mercaptoimidazol-4-yl)ethyl]trimethyl-, hydroxide, inner salt, <span class=\"text-smallcaps\">L</span>-(+)-;Ergothioneine;Sympectothion;Thiasine;Thioneine;Histidine, 2-mercapto-, trimethylbetaine;Histidine, 2-mercapto-<em>N</em>,<em>N</em>-dimethyl-, betaine;<span class=\"text-smallcaps\">L</span>-Ergothioneine;2-Mercapto-<em>N</em>,<em>N</em>-dimethylhistidine methyl ester betaine;2-Mercaptohistidine trimethylbetaine;Ergothionine;1<em>H</em>-Imidazole-4-ethanaminium, α-carboxy-2,3-dihydro-<em>N</em>,<em>N</em>,<em>N</em>-trimethyl-2-thioxo-, inner salt, (<em>S</em>)-;2-Mercaptohistidine betaine;NSC 7175;Thiotane;thiotaine;Phytothioneine;(<em>S</em>)-5-(2-Carboxy-2-(trimethylammonio)ethyl)-1<em>H</em>-imidazole-2-thiolate;(2S)-3-(2-Sulfanyl-1<em>H</em>-imidazol-4-yl)-2-(trimethylazaniumyl)propanoate;ErgoActive;L-(+)-Ergothionene;MeSH ID: D004880",
    "duplicated_cas_no": "616-50-2;644-57-5;6330-63-8",
    "SMILES": "[C@@H](CC=1NC(=S)NC1)([N@@+](C)(C)C)C([O-])=O",
    "meta_data": {
        "InChI": "InChI=1S/C9H15N3O2S/c1-12(2,3)7(8(13)14)4-6-5-10-9(15)11-6/h5,7H,4H2,1-3H3,(H2-,10,11,13,14,15)/t7-/m0/s1",
        "InChIKey": null,
        "Canonical SMILES": "O=C([O-])C(CC1=CNC(=S)N1)[N+](C)(C)C",
        "Molecular Formula": "C<sub>9</sub>H<sub>15</sub>N<sub>3</sub>O<sub>2</sub>S",
        "Molecular Mass": "",
        "Melting Point": "280 °C (decomp)"
    }
}