{
    "cas_no": "871-76-1",
    "key_name": "2,2′-Thiobis[ethanamine]",
    "cn_name": "氨乙基硫醚;",
    "alternate_name": "Ethanamine, 2,2′-thiobis-;Ethylamine, 2,2′-thiobis-;2,2′-Thiobis[ethanamine];β,β′-Diaminodiethyl sulfide;Bis(β-aminoethyl) sulfide;Monoethanolamine sulfide;Bis(2-aminoethyl) sulfide;3-Thiacadaverine;1,5-Diamino-3-thiapentane;2,2′-Thiobis[ethylamine];Lanthionamine;2,2′-Thiodiethylamine;1,7-Diaza-4-thiaheptane;3-Thia-1,5-pentanediamine;3-Thia-1,5-diaminopentane;NSC 203144;2-(2-Aminoethylthio)ethanamine;2-[(2-Aminoethyl)sulfanyl]ethan-1-amine;2-(2-Aminoethylsulfanyl)ethanamine;2,2′-Thiodiethanamine",
    "duplicated_cas_no": "",
    "SMILES": "S(CCN)CCN",
    "meta_data": {
        "InChI": "InChI=1S/C4H12N2S/c5-1-3-7-4-2-6/h1-6H2",
        "InChIKey": null,
        "Canonical SMILES": "S(CCN)CCN",
        "Molecular Formula": "C<sub>4</sub>H<sub>12</sub>N<sub>2</sub>S",
        "Molecular Mass": "120.22",
        "Boiling Point": "130-131 °C @ Press: 22 Torr",
        "Melting Point": "0.5-1.5 °C",
        "Density": "1.051 g/cm³ @ Temp: 20 °C"
    }
}