{
    "cas_no": "13726-76-6",
    "key_name": "<em>N</em>-<em>tert</em>-Butoxycarbonyl-<span class=\"text-smallcaps\">L</span>-arginine",
    "cn_name": "N-Boc-L-精氨酸;N-叔丁氧羰基-L-精氨酸;",
    "alternate_name": "<span class=\"text-smallcaps\">L</span>-Arginine, <em>N</em><sup>2</sup>-[(1,1-dimethylethoxy)carbonyl]-;Arginine, <em>N</em><sup>2</sup>-carboxy-, <em>N</em><sup>2</sup>-<em>tert</em>-butyl ester, <span class=\"text-smallcaps\">L</span>-;<em>N</em><sup>2</sup>-[(1,1-Dimethylethoxy)carbonyl]-<span class=\"text-smallcaps\">L</span>-arginine;<em>N</em>-<em>tert</em>-Butoxycarbonyl-<span class=\"text-smallcaps\">L</span>-arginine;<em>N</em>-α-Butyloxycarbonyl-<span class=\"text-smallcaps\">L</span>-arginine;<em>N</em><sup>2</sup>-<em>tert</em>-Butoxycarbonyl-<span class=\"text-smallcaps\">L</span>-arginine;(<em>S</em>)-2-[(<em>tert</em>-Butoxycarbonyl)amino]-5-guanidinopentanoic acid;Boc-<span class=\"text-smallcaps\">L</span>-arginine;(2S)-5-(Diaminomethylideneazaniumyl)-2-[(2-methylpropan-2-yl)oxycarbonylamino]pentanoate;(2S)-2-[[(<em>tert</em>-Butoxy)carbonyl]amino]-5-carbamimidamidopentanoic acid",
    "duplicated_cas_no": "1639833-81-0;2062685-20-3;2205123-67-5;2375540-66-0",
    "SMILES": "[C@H](NC(OC(C)(C)C)=O)(CCCNC(=N)N)C(O)=O",
    "meta_data": {
        "InChI": "InChI=1S/C11H22N4O4/c1-11(2,3)19-10(18)15-7(8(16)17)5-4-6-14-9(12)13/h7H,4-6H2,1-3H3,(H,15,18)(H,16,17)(H4,12,13,14)/t7-/m0/s1",
        "InChIKey": null,
        "Canonical SMILES": "O=C(OC(C)(C)C)NC(C(=O)O)CCCNC(=N)N",
        "Molecular Formula": "C<sub>11</sub>H<sub>22</sub>N<sub>4</sub>O<sub>4</sub>",
        "Molecular Mass": "274.32",
        "Melting Point": "121-124 °C"
    }
}