{
    "cas_no": "100-75-4",
    "key_name": "<em>N</em>-Nitrosopiperidine",
    "cn_name": "N-亚硝基哌啶;N-亚硝基哌啶1-Nitrosopiperidine;",
    "alternate_name": "Piperidine, 1-nitroso-;1-Nitrosopiperidine;<em>N</em>-Nitrosopiperidine;NSC 138;NPIP;NPI",
    "duplicated_cas_no": "68374-62-9",
    "SMILES": "N(=O)N1CCCCC1",
    "meta_data": {
        "InChI": "InChI=1S/C5H10N2O/c8-6-7-4-2-1-3-5-7/h1-5H2",
        "InChIKey": null,
        "Canonical SMILES": "O=NN1CCCCC1",
        "Molecular Formula": "C<sub>5</sub>H<sub>10</sub>N<sub>2</sub>O",
        "Molecular Mass": "114.15",
        "Boiling Point": "219 °C",
        "Melting Point": "170 °C (decomp)",
        "Density": "1.0631 g/cm³ @ Temp: 18.5 °C"
    }
}