{
    "cas_no": "762240-92-6",
    "key_name": "3-(Trifluoromethyl)-5,6,7,8-tetrahydro-[1,2,4]triazolo[4,3-<em>a</em>]pyrazine hydrochloride",
    "cn_name": "3-(三氟甲基)-5,6,7,8-四氢-[1,2,4]三唑并[4,3-a]吡嗪盐酸盐;",
    "alternate_name": "1,2,4-Triazolo[4,3-<em>a</em>]pyrazine, 5,6,7,8-tetrahydro-3-(trifluoromethyl)-, hydrochloride (1:1);1,2,4-Triazolo[4,3-<em>a</em>]pyrazine, 5,6,7,8-tetrahydro-3-(trifluoromethyl)-, monohydrochloride;3-(Trifluoromethyl)-5,6,7,8-tetrahydro-[1,2,4]triazolo[4,3-<em>a</em>]pyrazine hydrochloride;3-(Trifluoromethyl)-5,6,7,8-tetrahydro[1,2,4]triazolo[4,3-<em>a</em>]pyrazine monohydrochloride",
    "duplicated_cas_no": "",
    "SMILES": "C(F)(F)(F)C=1N2C(=NN1)CNCC2.Cl",
    "meta_data": {
        "InChI": "InChI=1S/C6H7F3N4.ClH/c7-6(8,9)5-12-11-4-3-10-1-2-13(4)5;/h10H,1-3H2;1H",
        "InChIKey": null,
        "Canonical SMILES": "Cl.FC(F)(F)C1=NN=C2N1CCNC2",
        "Molecular Formula": "C<sub>6</sub>H<sub>7</sub>F<sub>3</sub>N<sub>4</sub>.ClH",
        "Molecular Mass": "",
        "Melting Point": "264 °C (decomp)"
    }
}