{
    "cas_no": "53874-66-1",
    "key_name": "3-Phenoxybenzyl chloride",
    "cn_name": "3-苯氧基苄氯;",
    "alternate_name": "Benzene, 1-(chloromethyl)-3-phenoxy-;1-(Chloromethyl)-3-phenoxybenzene;<em>m</em>-Phenoxybenzyl chloride;3-Phenoxybenzyl chloride;α-Chloro-<em>m</em>-tolyl phenyl ether;3-Phenoxy-α-chlorotoluene;3-Phenoxyphenylmethyl chloride;1-Chloromethyl-3-phenoxybenzene",
    "duplicated_cas_no": "",
    "SMILES": "O(C1=CC(CCl)=CC=C1)C2=CC=CC=C2",
    "meta_data": {
        "InChI": "InChI=1S/C13H11ClO/c14-10-11-5-4-8-13(9-11)15-12-6-2-1-3-7-12/h1-9H,10H2",
        "InChIKey": null,
        "Canonical SMILES": "ClCC=1C=CC=C(OC=2C=CC=CC2)C1",
        "Molecular Formula": "C<sub>13</sub>H<sub>11</sub>ClO",
        "Molecular Mass": "218.68",
        "Boiling Point": "135-137 °C @ Press: 3 Torr"
    }
}