{
    "cas_no": "94-24-6",
    "key_name": "Amethocaine",
    "cn_name": "丁卡因;4-(丁氨基)-苯甲酸2-(二甲氨基)乙酯;",
    "alternate_name": "Benzoic acid, 4-(butylamino)-, 2-(dimethylamino)ethyl ester;Benzoic acid, <em>p</em>-(butylamino)-, 2-(dimethylamino)ethyl ester;Anetain;Contralgin;2-Dimethylaminoethyl <em>p</em>-butylaminobenzoate;Fissucain;Intercain;Laudocaine;Medicaine;Meethobalm;Metraspray;Mucaesthin;Rexocaine;Uromucaesthin;Amethocaine;Butylocaine;Tetracaine;β-Dimethylaminoethyl <em>p</em>-butylaminobenzoate;β-Dimethylaminoethyl <em>p</em>-<em>N</em>-butylaminobenzoate;Pontocaine;Ametop;Medihaler-Tetracaine;2-(Dimethylamino)ethyl 4-(butylamino)benzoate;MeSH ID: D013748",
    "duplicated_cas_no": "",
    "SMILES": "C(OCCN(C)C)(=O)C1=CC=C(NCCCC)C=C1",
    "meta_data": {
        "InChI": "InChI=1S/C15H24N2O2/c1-4-5-10-16-14-8-6-13(7-9-14)15(18)19-12-11-17(2)3/h6-9,16H,4-5,10-12H2,1-3H3",
        "InChIKey": null,
        "Canonical SMILES": "O=C(OCCN(C)C)C1=CC=C(C=C1)NCCCC",
        "Molecular Formula": "C<sub>15</sub>H<sub>24</sub>N<sub>2</sub>O<sub>2</sub>",
        "Molecular Mass": "264.36",
        "Boiling Point": "220-224 °C @ Press: 3-4 Torr",
        "Melting Point": "130 °C"
    }
}