{
    "cas_no": "28049-61-8",
    "key_name": "1-(4-Chlorophenyl)cyclobutanecarbonitrile",
    "cn_name": "1-(4-氯苯基)-1-氰基环丁烷;",
    "alternate_name": "Cyclobutanecarbonitrile, 1-(4-chlorophenyl)-;Cyclobutanecarbonitrile, 1-(<em>p</em>-chlorophenyl)-;1-(4-Chlorophenyl)cyclobutanecarbonitrile;1-(<em>p</em>-Chlorophenyl)cyclobutanecarbonitrile;NSC 154613;1-(4-Chlorophenyl)cyclobutane-1-carbonitrile;1-(4-Chlorophenyl)-1-cyclobutanecarbonitrile",
    "duplicated_cas_no": "",
    "SMILES": "C(#N)C1(CCC1)C2=CC=C(Cl)C=C2",
    "meta_data": {
        "InChI": "InChI=1S/C11H10ClN/c12-10-4-2-9(3-5-10)11(8-13)6-1-7-11/h2-5H,1,6-7H2",
        "InChIKey": null,
        "Canonical SMILES": "N#CC1(C2=CC=C(Cl)C=C2)CCC1",
        "Molecular Formula": "C<sub>11</sub>H<sub>10</sub>ClN",
        "Molecular Mass": "191.66",
        "Boiling Point": "110-112 °C @ Press: 0.5 Torr"
    }
}