{
    "cas_no": "5418-63-3",
    "key_name": "1,2,3,3-Tetramethyl-3<em>H</em>-indolium iodide",
    "cn_name": "1,2,3,3-四甲基-3H-吲哚鎓碘化物;",
    "alternate_name": "3<em>H</em>-Indolium, 1,2,3,3-tetramethyl-, iodide (1:1);3<em>H</em>-Indolium, 1,2,3,3-tetramethyl-, iodide;1,2,3,3-Tetramethyl-3<em>H</em>-indolium iodide;2,3,3-Trimethyl-3<em>H</em>-indole methiodide;1,2,3,3-Tetramethylindolium iodide;1,2,3,3-Tetramethyl-3<em>H</em>-indol-1-ium iodide;1-Methyl-2,3,3-trimethyl-3<em>H</em>-indolium;1,2,3,3-Tetramethyl-3<em>H</em>-indolinium iodide",
    "duplicated_cas_no": "1425113-48-9",
    "SMILES": "C[N+]=1C=2C(C(C)(C)C1C)=CC=CC2.[I-]",
    "meta_data": {
        "InChI": "InChI=1S/C12H16N.HI/c1-9-12(2,3)10-7-5-6-8-11(10)13(9)4;/h5-8H,1-4H3;1H/q+1;/p-1",
        "InChIKey": null,
        "Canonical SMILES": "[I-].C=1C=CC2=C(C1)[N+](=C(C)C2(C)C)C",
        "Molecular Formula": "C<sub>12</sub>H<sub>16</sub>N.I",
        "Molecular Mass": "",
        "Melting Point": "260 °C"
    }
}