{
    "cas_no": "10025-68-0",
    "key_name": "Selenium chloride (Se<sub>2</sub>Cl<sub>2</sub>)",
    "cn_name": "二氯化二硒;氯化硒;一氯化硒;",
    "alternate_name": "Selenium chloride (Se<sub>2</sub>Cl<sub>2</sub>);Selenium monochloride;Diselenium dichloride;Dichlorodiselenide",
    "duplicated_cas_no": "",
    "SMILES": "[Se]([Se]Cl)Cl",
    "meta_data": {
        "InChI": "InChI=1S/Cl2Se2/c1-3-4-2",
        "InChIKey": null,
        "Canonical SMILES": "Cl[Se][Se]Cl",
        "Molecular Formula": "Cl<sub>2</sub>Se<sub>2</sub>",
        "Molecular Mass": "228.83",
        "Boiling Point": "127 °C @ Press: 758 Torr",
        "Melting Point": "-85 °C (decomp)",
        "Density": "2.7741 g/cm³ @ Temp: 25 °C"
    }
}