{
    "cas_no": "5345-89-1",
    "key_name": "3-(2,6-Dichlorophenyl)-2-propenoic acid",
    "cn_name": null,
    "alternate_name": "2-Propenoic acid, 3-(2,6-dichlorophenyl)-;Cinnamic acid, 2,6-dichloro-;3-(2,6-Dichlorophenyl)-2-propenoic acid;2,6-Dichlorocinnamic acid;NSC 1762",
    "duplicated_cas_no": "",
    "SMILES": "C(=CC(O)=O)C1=C(Cl)C=CC=C1Cl",
    "meta_data": {
        "InChI": "InChI=1S/C9H6Cl2O2/c10-7-2-1-3-8(11)6(7)4-5-9(12)13/h1-5H,(H,12,13)",
        "InChIKey": null,
        "Canonical SMILES": "O=C(O)C=CC=1C(Cl)=CC=CC1Cl",
        "Molecular Formula": "C<sub>9</sub>H<sub>6</sub>Cl<sub>2</sub>O<sub>2</sub>",
        "Molecular Mass": "217.05",
        "Melting Point": "192-193 °C"
    }
}