{
    "cas_no": "884855-68-9",
    "key_name": "4-Bromo-1,3-dihydro-1-methyl-2<em>H</em>-indol-2-one",
    "cn_name": null,
    "alternate_name": "2<em>H</em>-Indol-2-one, 4-bromo-1,3-dihydro-1-methyl-;4-Bromo-1,3-dihydro-1-methyl-2<em>H</em>-indol-2-one;4-Bromo-1-methyl-1,3-dihydro-2-oxindole;4-Bromo-1-methylindolin-2-one",
    "duplicated_cas_no": "",
    "SMILES": "CN1C=2C(=C(Br)C=CC2)CC1=O",
    "meta_data": {
        "InChI": "InChI=1S/C9H8BrNO/c1-11-8-4-2-3-7(10)6(8)5-9(11)12/h2-4H,5H2,1H3",
        "InChIKey": null,
        "Canonical SMILES": "O=C1N(C=2C=CC=C(Br)C2C1)C",
        "Molecular Formula": "C<sub>9</sub>H<sub>8</sub>BrNO",
        "Molecular Mass": "226.07",
        "Melting Point": "135-136 °C"
    }
}