{
    "cas_no": "1066-40-6",
    "key_name": "Trimethylsilanol",
    "cn_name": "三甲基硅醇;三甲基羟基硅烷;",
    "alternate_name": "Silanol, 1,1,1-trimethyl-;Silanol, trimethyl-;1,1,1-Trimethylsilanol;Trimethylsilanol;Trimethylhydroxysilane;Hydroxytrimethylsilane;Trimethylsilyl alcohol;LS 310",
    "duplicated_cas_no": "",
    "SMILES": "[Si](C)(C)(C)O",
    "meta_data": {
        "InChI": "InChI=1S/C3H10OSi/c1-5(2,3)4/h4H,1-3H3",
        "InChIKey": null,
        "Canonical SMILES": "O[Si](C)(C)C",
        "Molecular Formula": "C<sub>3</sub>H<sub>10</sub>OSi",
        "Molecular Mass": "90.20",
        "Boiling Point": "99-100 °C",
        "Melting Point": "-4.5 °C",
        "Density": "0.8112 g/cm³ @ Temp: 20 °C"
    }
}