{
    "cas_no": "28995-89-3",
    "key_name": "1,3,6,8-Tetranitronaphthalene",
    "cn_name": "四硝基萘;",
    "alternate_name": "Naphthalene, 1,3,6,8-tetranitro-;1,3,6,8-Tetranitronaphthalene",
    "duplicated_cas_no": "",
    "SMILES": "N(=O)(=O)C=1C2=C(C=C(N(=O)=O)C=C2N(=O)=O)C=C(N(=O)=O)C1",
    "meta_data": {
        "InChI": "InChI=1S/C10H4N4O8/c15-11(16)6-1-5-2-7(12(17)18)4-9(14(21)22)10(5)8(3-6)13(19)20/h1-4H",
        "InChIKey": null,
        "Canonical SMILES": "O=N(=O)C1=CC2=CC(=CC(=C2C(=C1)N(=O)=O)N(=O)=O)N(=O)=O",
        "Molecular Formula": "C<sub>10</sub>H<sub>4</sub>N<sub>4</sub>O<sub>8</sub>",
        "Molecular Mass": "308.16",
        "Melting Point": "207 °C"
    }
}