{
    "cas_no": "487-93-4",
    "key_name": "Bufotenine",
    "cn_name": "4,4\"-二苯基二硼酸二频哪酯;N,N-二甲腦激胺;蟾蜍色胺;",
    "alternate_name": "1<em>H</em>-Indol-5-ol, 3-[2-(dimethylamino)ethyl]-;Bufotenine;Indol-5-ol, 3-[2-(dimethylamino)ethyl]-;3-[2-(Dimethylamino)ethyl]-1<em>H</em>-indol-5-ol;Bufotenin;Cinobufotenine;3-(β-Dimethylaminoethyl)-5-hydroxyindole;<em>N</em>,<em>N</em>-Dimethyl-5-hydroxytryptamine;<em>N</em>,<em>N</em>-Dimethylserotonin;Mappine;5-Hydroxy-<em>N</em>,<em>N</em>-dimethyltryptamine;Dimethylserotonin;3-(2-Dimethylaminoethyl)indol-5-ol;Mappin;NSC 89593;MeSH ID: D002027",
    "duplicated_cas_no": "",
    "SMILES": "C(CN(C)C)C=1C=2C(NC1)=CC=C(O)C2",
    "meta_data": {
        "InChI": "InChI=1S/C12H16N2O/c1-14(2)6-5-9-8-13-12-4-3-10(15)7-11(9)12/h3-4,7-8,13,15H,5-6H2,1-2H3",
        "InChIKey": null,
        "Canonical SMILES": "OC=1C=CC=2NC=C(C2C1)CCN(C)C",
        "Molecular Formula": "C<sub>12</sub>H<sub>16</sub>N<sub>2</sub>O",
        "Molecular Mass": "204.27",
        "Melting Point": "146.5 °C"
    }
}