{
    "cas_no": "7326-19-4",
    "key_name": "(+)-3-Phenyllactic acid",
    "cn_name": "D-3-苯乳酸;D-2-羟基-3-苯丙酸;",
    "alternate_name": "Benzenepropanoic acid, α-hydroxy-, (α<em>R</em>)-;Lactic acid, 3-phenyl-, (<em>R</em>)-;Benzenepropanoic acid, α-hydroxy-, (<em>R</em>)-;(α<em>R</em>)-α-Hydroxybenzenepropanoic acid;<span class=\"text-smallcaps\">D</span>-β-Phenyllactic acid;<span class=\"text-smallcaps\">D</span>-Phenyllactic acid;<span class=\"text-smallcaps\">D</span>-3-Phenyllactic acid;<span class=\"text-smallcaps\">D</span>-2-Hydroxy-3-phenylpropionic acid;(+)-β-Phenyllactic acid;(<em>R</em>)-β-Phenyllactic acid;(+)-3-Phenyllactic acid;(<em>R</em>)-2-Hydroxy-3-phenylpropionic acid;(<em>R</em>)-3-Phenyl-2-hydroxypropanoic acid;β-Phenyl-<span class=\"text-smallcaps\">D</span>-lactic acid;(2<em>R</em>)-2-Hydroxy-3-phenylpropionic acid;(<em>R</em>)-α-Hydroxy-3-phenylpropionic acid;(+)-2-Hydroxy-3-phenylpropionic acid;(<em>R</em>)-3-Phenyllactic acid;(2<em>R</em>)-2-Hydroxy-3-phenylpropanoic acid;(<em>R</em>)-Phenyllactic acid;(+)-2-Hydroxy-3-phenylpropanoic acid;3-(R)-Phenyl lactic acid;<span class=\"text-smallcaps\">D</span>-(+)-3-Phenyllactic acid;(2<em>R</em>)-3-Phenyl-2-hydroxypropanoic acid;(<em>R</em>)-3-Phenyl-2-hydroxypropionic acid;(2R)-2-Hydroxy-3-phenylpropanoic acid;(<em>R</em>)-2-Hydroxy-3-phenylpropanoic acid;2<em>R</em>-Hydroxy-3-phenylpropionic acid",
    "duplicated_cas_no": "4339-84-8",
    "SMILES": "C([C@H](C(O)=O)O)C1=CC=CC=C1",
    "meta_data": {
        "InChI": "InChI=1S/C9H10O3/c10-8(9(11)12)6-7-4-2-1-3-5-7/h1-5,8,10H,6H2,(H,11,12)/t8-/m1/s1",
        "InChIKey": null,
        "Canonical SMILES": "O=C(O)C(O)CC=1C=CC=CC1",
        "Molecular Formula": "C<sub>9</sub>H<sub>10</sub>O<sub>3</sub>",
        "Molecular Mass": "166.17",
        "Melting Point": "121 °C"
    }
}