{
    "cas_no": "1219-38-1",
    "key_name": "Octyl <em>p</em>-hydroxybenzoate",
    "cn_name": "尼泊金正辛酯;对羟基苯甲酸正辛酯;",
    "alternate_name": "Benzoic acid, 4-hydroxy-, octyl ester;Benzoic acid, <em>p</em>-hydroxy-, octyl ester;Octyl <em>p</em>-hydroxybenzoate;Octyl 4-hydroxybenzoate;<em>n</em>-Octyl <em>p</em>-hydroxybenzoate;<em>n</em>-Octyl 4-hydroxybenzoate;<em>p</em>-Hydroxybenzoic acid octyl ester;NSC 309820;Octyl paraben",
    "duplicated_cas_no": "",
    "SMILES": "C(OCCCCCCCC)(=O)C1=CC=C(O)C=C1",
    "meta_data": {
        "InChI": "InChI=1S/C15H22O3/c1-2-3-4-5-6-7-12-18-15(17)13-8-10-14(16)11-9-13/h8-11,16H,2-7,12H2,1H3",
        "InChIKey": null,
        "Canonical SMILES": "O=C(OCCCCCCCC)C1=CC=C(O)C=C1",
        "Molecular Formula": "C<sub>15</sub>H<sub>22</sub>O<sub>3</sub>",
        "Molecular Mass": "250.33",
        "Melting Point": "50.0 °C"
    }
}