{
    "cas_no": "394-01-4",
    "key_name": "4-Fluoro-2-nitrobenzoic acid",
    "cn_name": "2-硝基-4-氟苯甲酸;",
    "alternate_name": "Benzoic acid, 4-fluoro-2-nitro-;4-Fluoro-2-nitrobenzoic acid;2-Nitro-4-fluorobenzoic acid",
    "duplicated_cas_no": "",
    "SMILES": "C(O)(=O)C1=C(N(=O)=O)C=C(F)C=C1",
    "meta_data": {
        "InChI": "InChI=1S/C7H4FNO4/c8-4-1-2-5(7(10)11)6(3-4)9(12)13/h1-3H,(H,10,11)",
        "InChIKey": null,
        "Canonical SMILES": "O=C(O)C1=CC=C(F)C=C1N(=O)=O",
        "Molecular Formula": "C<sub>7</sub>H<sub>4</sub>FNO<sub>4</sub>",
        "Molecular Mass": "185.11",
        "Melting Point": "130 °C"
    }
}