{
    "cas_no": "13411-42-2",
    "key_name": "2-(Trimethylsilyl)-1,3-dithiane",
    "cn_name": "2-三甲基硅基-1,3-二噻吩;",
    "alternate_name": "1,3-Dithiane, 2-(trimethylsilyl)-;Silane, <em>m</em>-dithian-2-yltrimethyl-;Silane, 1,3-dithian-2-yltrimethyl-;2-(Trimethylsilyl)-1,3-dithiane;(1,3-Dithian-2-yl)trimethylsilane",
    "duplicated_cas_no": "",
    "SMILES": "[Si](C)(C)(C)C1SCCCS1",
    "meta_data": {
        "InChI": "InChI=1S/C7H16S2Si/c1-10(2,3)7-8-5-4-6-9-7/h7H,4-6H2,1-3H3",
        "InChIKey": null,
        "Canonical SMILES": "S1CCCSC1[Si](C)(C)C",
        "Molecular Formula": "C<sub>7</sub>H<sub>16</sub>S<sub>2</sub>Si",
        "Molecular Mass": "192.42",
        "Boiling Point": "85 °C @ Press: 1 Torr",
        "Density": "1.014 g/cm³"
    }
}