{
    "cas_no": "130676-64-1",
    "key_name": "2<em>H</em>-Pyran-2-one, 3-hexyl-5,6-dihydro-6-undecyl-, (<em>S</em>)-",
    "cn_name": null,
    "alternate_name": "2<em>H</em>-Pyran-2-one, 3-hexyl-5,6-dihydro-6-undecyl-, (<em>S</em>)-",
    "duplicated_cas_no": "",
    "SMILES": "C(CCCCCCCCCC)[C@@H]1OC(=O)C(CCCCCC)=CC1",
    "meta_data": {
        "InChI": "InChI=1S/C22H40O2/c1-3-5-7-9-10-11-12-13-15-17-21-19-18-20(22(23)24-21)16-14-8-6-4-2/h18,21H,3-17,19H2,1-2H3/t21-/m0/s1",
        "InChIKey": null,
        "Canonical SMILES": "O=C1OC(CC=C1CCCCCC)CCCCCCCCCCC",
        "Molecular Formula": "C<sub>22</sub>H<sub>40</sub>O<sub>2</sub>",
        "Molecular Mass": "336.55",
        "Melting Point": "51-53 °C"
    }
}