{
    "cas_no": "6665-74-3",
    "key_name": "Galangin 3-methyl ether",
    "cn_name": null,
    "alternate_name": "4<em>H</em>-1-Benzopyran-4-one, 5,7-dihydroxy-3-methoxy-2-phenyl-;Flavone, 5,7-dihydroxy-3-methoxy-;5,7-Dihydroxy-3-methoxy-2-phenyl-4<em>H</em>-1-benzopyran-4-one;3-<em>O</em>-Methylgalangin;Galangin 3-methyl ether;5,7-Dihydroxy-3-methoxyflavone;Galangin 3-<em>O</em>-methyl ether;3-Methylgalangin",
    "duplicated_cas_no": "",
    "SMILES": "O=C1C=2C(OC(=C1OC)C3=CC=CC=C3)=CC(O)=CC2O",
    "meta_data": {
        "InChI": "InChI=1S/C16H12O5/c1-20-16-14(19)13-11(18)7-10(17)8-12(13)21-15(16)9-5-3-2-4-6-9/h2-8,17-18H,1H3",
        "InChIKey": null,
        "Canonical SMILES": "O=C1C(OC)=C(OC=2C=C(O)C=C(O)C12)C=3C=CC=CC3",
        "Molecular Formula": "C<sub>16</sub>H<sub>12</sub>O<sub>5</sub>",
        "Molecular Mass": "284.26",
        "Melting Point": "299 °C"
    }
}