{
    "cas_no": "10138-41-7",
    "key_name": "Erbium chloride",
    "cn_name": null,
    "alternate_name": "Erbium chloride (ErCl<sub>3</sub>);Erbium trichloride;Erbium(III) chloride;Erbium trichloride (ErCl<sub>3</sub>);Erbium chloride;Erbium(3+) chloride",
    "duplicated_cas_no": "",
    "SMILES": "[Er](Cl)(Cl)Cl",
    "meta_data": {
        "InChI": "InChI=1S/3ClH.Er/h3*1H;/q;;;+3/p-3",
        "InChIKey": null,
        "Canonical SMILES": "Cl[Er](Cl)Cl",
        "Molecular Formula": "Cl<sub>3</sub>Er",
        "Molecular Mass": "",
        "Melting Point": "774 °C"
    }
}