{
    "cas_no": "1143-50-6",
    "key_name": "5<em>H</em>-Dibenz[<em>b</em>,<em>e</em>]azepine-6,11-dione",
    "cn_name": "6,11(5H)-Morphanthridinedione;",
    "alternate_name": "5<em>H</em>-Dibenz[<em>b</em>,<em>e</em>]azepine-6,11-dione;6,11(5<em>H</em>)-Morphanthridinedione;5<em>H</em>-Dibenzo[<em>b</em>,<em>e</em>]azepine-6,11-dione;NSC 144965;6,11-Dihydro-5<em>H</em>-dibenz[<em>b</em>,<em>e</em>]azepin-6,11-dione",
    "duplicated_cas_no": "",
    "SMILES": "O=C1C=2C(C(=O)NC=3C1=CC=CC3)=CC=CC2",
    "meta_data": {
        "InChI": "InChI=1S/C14H9NO2/c16-13-9-5-1-2-6-10(9)14(17)15-12-8-4-3-7-11(12)13/h1-8H,(H,15,17)",
        "InChIKey": null,
        "Canonical SMILES": "O=C1NC=2C=CC=CC2C(=O)C=3C=CC=CC13",
        "Molecular Formula": "C<sub>14</sub>H<sub>9</sub>NO<sub>2</sub>",
        "Molecular Mass": "223.23",
        "Boiling Point": "230-234 °C @ Press: 0.3 Torr",
        "Melting Point": "245-246 °C"
    }
}