{
    "cas_no": "103-28-6",
    "key_name": "Benzyl isobutyrate",
    "cn_name": "异丁酸苄酯;2-甲基丙酸苄酯;",
    "alternate_name": "Propanoic acid, 2-methyl-, phenylmethyl ester;Isobutyric acid, benzyl ester;Benzyl isobutyrate;Benzyl 2-methylpropionate;Benzyl isobutanoate;Phenylmethyl 2-methylpropanoate;NSC 406201;NSC 46112;Benzyl 2-methylpropanoate",
    "duplicated_cas_no": "",
    "SMILES": "C(OC(C(C)C)=O)C1=CC=CC=C1",
    "meta_data": {
        "InChI": "InChI=1S/C11H14O2/c1-9(2)11(12)13-8-10-6-4-3-5-7-10/h3-7,9H,8H2,1-2H3",
        "InChIKey": null,
        "Canonical SMILES": "O=C(OCC=1C=CC=CC1)C(C)C",
        "Molecular Formula": "C<sub>11</sub>H<sub>14</sub>O<sub>2</sub>",
        "Molecular Mass": "178.23",
        "Boiling Point": "229 °C"
    }
}