{
    "cas_no": "63-74-1",
    "key_name": "Sulfanilamide",
    "cn_name": "磺胺;磺酰胺;对氨基苯磺酰胺;",
    "alternate_name": "Benzenesulfonamide, 4-amino-;Sulfanilamide;4-Aminobenzenesulfonamide;F 1162;Albexan;Albosal;Ambeside;<em>p</em>-Aminobenzenesulfonamide;4-Aminophenylsulfonamide;<em>p</em>-Anilinesulfonamide;Antistrept;Astreptine;Astrocid;Bacteramid;Bactesid;Collomide;Colsulanyde;Copticide;Deseptyl;Ergaseptine;Erysipan;Estreptocida;Fourneau 1162;Gerison;Gombardol;Lusil;Lysococcine;Neococcyl;Orgaseptine;PABS;Prontalbin;Prontosil I;Prontosil Album;Prontosil white;Prontylin;Pronzin Album;Proseptal;Proseptine;Proseptol;Pysococcine;Rubiazol A;Sanamid;Septamide Album;Septanilam;Septinal;Septolix;Septoplex;Septoplix;Stopton Album;Stramid;Strepamide;Strepsan;Streptagol;Streptamid;Streptasol;Streptocid album;Streptoclase;Streptocom;Strepton;Streptosil;Streptozol;Streptozone;<em>p</em>-Sulfamidoaniline;Sulfamidyl;Sulfamine;Sulfana;Sulfanalone;Sulfanil;Sulfocidine;Sulphanilamide;Therapol;White streptocide;Sulfonamide P;Dipron;<em>p</em>-Aminophenylsulfonamide;A-349;Sulphonamide;Sulfonamide;Sulfonylamide;4-Sulfamoylaniline;Streptocid;<em>p</em>-Sulfamoylaniline;Streptocide (white);Exoseptoplix;Sulfanidyl;Tolder;Infepan;Streptopan;Streptocide;4-(Aminosulfonyl)aniline;Ro 1-3354;1162F;Sulfanilamide Vaginal Cream;(4-(Aminosulfonyl)phenyl)amine;NSC 7618;4-Aminobenzene-1-sulfonamide;Azol;Sulfonamid;4-Aminobenzenesulfonic acid amide",
    "duplicated_cas_no": "102489-34-9;1337-36-6;1337-39-9;12765-80-9;24706-25-0",
    "SMILES": "S(N)(=O)(=O)C1=CC=C(N)C=C1",
    "meta_data": {
        "InChI": "InChI=1S/C6H8N2O2S/c7-5-1-3-6(4-2-5)11(8,9)10/h1-4H,7H2,(H2,8,9,10)",
        "InChIKey": null,
        "Canonical SMILES": "O=S(=O)(N)C1=CC=C(N)C=C1",
        "Molecular Formula": "C<sub>6</sub>H<sub>8</sub>N<sub>2</sub>O<sub>2</sub>S",
        "Molecular Mass": "172.20",
        "Melting Point": "165.5 °C",
        "Density": "1.08 g/cm³ @ Temp: 25 °C"
    }
}