{
    "cas_no": "116-15-4",
    "key_name": "Hexafluoropropylene",
    "cn_name": "六氟丙烯;全氟丙烯;",
    "alternate_name": "1-Propene, 1,1,2,3,3,3-hexafluoro-;Propene, hexafluoro-;1,1,2,3,3,3-Hexafluoro-1-propene;Hexafluoro-1-propene;Perfluoropropene;Perfluoropropylene;Hexafluoropropene;Perfluoro-1-propene;Hexafluoropropylene;1,1,2,3,3,3-Hexafluoropropene;R 1216;F 1216;Propylene hexafluoride;Esafluoropropene;PFC 1216;HFC 1216;HFO 1216;FO 1216;HFP",
    "duplicated_cas_no": "",
    "SMILES": "C(C(F)(F)F)(=C(F)F)F",
    "meta_data": {
        "InChI": "InChI=1S/C3F6/c4-1(2(5)6)3(7,8)9",
        "InChIKey": null,
        "Canonical SMILES": "FC(F)=C(F)C(F)(F)F",
        "Molecular Formula": "C<sub>3</sub>F<sub>6</sub>",
        "Molecular Mass": "150.02",
        "Boiling Point": "-29.6 °C",
        "Melting Point": "-156.5 °C",
        "Density": "1.583 g/cm³ @ Temp: -40 °C"
    }
}