{
    "cas_no": "611-91-6",
    "key_name": "2,3-Dibromo-1,3-diphenyl-1-propanone",
    "cn_name": null,
    "alternate_name": "1-Propanone, 2,3-dibromo-1,3-diphenyl-;Propiophenone, 2,3-dibromo-3-phenyl-;2,3-Dibromo-1,3-diphenyl-1-propanone;1,3-Diphenyl-2,3-dibromo-1-propanone;Benzalacetophenone dibromide;Chalcone dibromide;2,3-Dibromo-3-phenylpropiophenone;NSC 2715",
    "duplicated_cas_no": "",
    "SMILES": "C(C(C(=O)C1=CC=CC=C1)Br)(Br)C2=CC=CC=C2",
    "meta_data": {
        "InChI": "InChI=1S/C15H12Br2O/c16-13(11-7-3-1-4-8-11)14(17)15(18)12-9-5-2-6-10-12/h1-10,13-14H",
        "InChIKey": null,
        "Canonical SMILES": "O=C(C=1C=CC=CC1)C(Br)C(Br)C=2C=CC=CC2",
        "Molecular Formula": "C<sub>15</sub>H<sub>12</sub>Br<sub>2</sub>O",
        "Molecular Mass": "368.06",
        "Melting Point": "158-159 °C"
    }
}