{
    "cas_no": "338-98-7",
    "key_name": "Isoflupredone acetate",
    "cn_name": "9-氟醋酸泼尼松龙;醋酸氟氢泼尼松;醋酸异氟泼尼松;",
    "alternate_name": "Pregna-1,4-diene-3,20-dione, 21-(acetyloxy)-9-fluoro-11,17-dihydroxy-, (11β)-;Pregna-1,4-diene-3,20-dione, 9-fluoro-11β,17,21-trihydroxy-, 21-acetate;(11β)-21-(Acetyloxy)-9-fluoro-11,17-dihydroxypregna-1,4-diene-3,20-dione;Predef;9-Fluoroprednisolone 21-acetate;9-Fluoroprednisolone acetate;9α-Fluoroprednisolone acetate;9-Fluoro-11β,17,21-trihydroxypregna-1,4-diene-3,20-dione 21-acetate;9α-Fluoro-11β,17α,21-trihydroxypregna-1,4-diene-3,20-dione 21-acetate;9α-Fluoroprednisolone 21-acetate;21-Acetoxy-9-fluoro-11β,17-dihydroxypregna-1,4-diene-3,20-dione;Isoflupredone acetate;Predef R 2X;U 6013;NSC 12600;NSC 37977",
    "duplicated_cas_no": "26906-38-7;1092535-27-7",
    "SMILES": "F[C@@]12[C@]([C@]3([C@](C)(C[C@@H]1O)[C@](C(COC(C)=O)=O)(O)CC3)[H])(CCC=4[C@]2(C)C=CC(=O)C4)[H]",
    "meta_data": {
        "InChI": "InChI=1S/C23H29FO6/c1-13(25)30-12-19(28)22(29)9-7-16-17-5-4-14-10-15(26)6-8-20(14,2)23(17,24)18(27)11-21(16,22)3/h6,8,10,16-18,27,29H,4-5,7,9,11-12H2,1-3H3/t16-,17-,18-,20-,21-,22-,23-/m0/s1",
        "InChIKey": null,
        "Canonical SMILES": "O=C1C=CC2(C(=C1)CCC3C4CCC(O)(C(=O)COC(=O)C)C4(C)CC(O)C32F)C",
        "Molecular Formula": "C<sub>23</sub>H<sub>29</sub>FO<sub>6</sub>",
        "Molecular Mass": "420.47",
        "Melting Point": "244-246 °C (decomp)"
    }
}