{
    "cas_no": "2706-56-1",
    "key_name": "2-Pyridineethanamine",
    "cn_name": "2-(2-氨乙基)吡啶;2-(2-吡啶基)乙胺;",
    "alternate_name": "2-Pyridineethanamine;Pyridine, 2-(2-aminoethyl)-;α-Pyridylethylamine;2-(2′-Aminoethyl)pyridine;2-(2-Pyridyl)ethylamine;Demethylbetahistine;α-(2-Aminoethyl)pyridine;2-(β-Aminoethyl)pyridine;2-Pyridylethylamine;2-(2′-Pyridyl)ethylamine;2-(α-Pyridyl)ethylamine;2-(2-Aminoethyl)pyridine;2-(2-Pyridinyl)ethanamine;2-Aminoethylpyridine;2-(2-Pyridinyl)ethylamine;2′-Aminoethyl-2-pyridine;NSC 71989;<em>N</em>-[2-(2-Pyridinyl)ethyl]amine;2-(Pyridin-2-yl)ethan-1-amine;2-(2-Pyridyl)ethanamine",
    "duplicated_cas_no": "",
    "SMILES": "C(CN)C1=CC=CC=N1",
    "meta_data": {
        "InChI": "InChI=1S/C7H10N2/c8-5-4-7-3-1-2-6-9-7/h1-3,6H,4-5,8H2",
        "InChIKey": null,
        "Canonical SMILES": "N=1C=CC=CC1CCN",
        "Molecular Formula": "C<sub>7</sub>H<sub>10</sub>N<sub>2</sub>",
        "Molecular Mass": "122.17",
        "Boiling Point": "131.5 °C",
        "Melting Point": "198-200 °C"
    }
}