{
    "cas_no": "36982-84-0",
    "key_name": "Trisyl azide",
    "cn_name": "2,4,6-三异丙基苯磺酰叠氮化物;",
    "alternate_name": "Benzenesulfonyl azide, 2,4,6-tris(1-methylethyl)-;2,4,6-Tris(1-methylethyl)benzenesulfonyl azide;2,4,6-Triisopropylphenylsulfonyl azide;2,4,6-Triisopropylbenzenesulfonyl azide;Trisyl azide;2,4,6-Tris(isopropyl)benzenesulfonyl azide;NSC 646156;2,4,6-Tris(propan-2-yl)benzene-1-sulfonyl azide",
    "duplicated_cas_no": "",
    "SMILES": "S(N=[N+]=[N-])(=O)(=O)C1=C(C(C)C)C=C(C(C)C)C=C1C(C)C",
    "meta_data": {
        "InChI": "InChI=1S/C15H23N3O2S/c1-9(2)12-7-13(10(3)4)15(14(8-12)11(5)6)21(19,20)18-17-16/h7-11H,1-6H3",
        "InChIKey": null,
        "Canonical SMILES": "[N-]=[N+]=NS(=O)(=O)C=1C(=CC(=CC1C(C)C)C(C)C)C(C)C",
        "Molecular Formula": "C<sub>15</sub>H<sub>23</sub>N<sub>3</sub>O<sub>2</sub>S",
        "Molecular Mass": "",
        "Melting Point": "42-43 °C"
    }
}