{
    "cas_no": "23103-98-2",
    "key_name": "Pirimicarb",
    "cn_name": "抗蚜威;2-N,N-二甲基氨基-5,6-二甲基嘧啶-4-基-N,N-二甲基氨基甲酸酯;",
    "alternate_name": "Carbamic acid, <em>N</em>,<em>N</em>-dimethyl-, 2-(dimethylamino)-5,6-dimethyl-4-pyrimidinyl ester;Carbamic acid, dimethyl-, 2-(dimethylamino)-5,6-dimethyl-4-pyrimidinyl ester;4-Pyrimidinol, 2-(dimethylamino)-5,6-dimethyl-, dimethylcarbamate (ester);Pirimicarb;PP 062;5,6-Dimethyl-2-dimethylamino-4-dimethylcarbamoyloxypyrimidine;Pirimor;2-Dimethylamino-5,6-dimethyl-4-pyrimidinyl dimethylcarbamate;2-Dimethylamino-5,6-dimethylpyrimidin-4-yl <em>N</em>,<em>N</em>-dimethylcarbamate;Fernos;Pyrimor;Pirimor G;Pirimor Granulate;Aphox;Pirimix;Aphox DG;Aficida;Patton Flow",
    "duplicated_cas_no": "",
    "SMILES": "O(C(N(C)C)=O)C1=NC(N(C)C)=NC(C)=C1C",
    "meta_data": {
        "InChI": "InChI=1S/C11H18N4O2/c1-7-8(2)12-10(14(3)4)13-9(7)17-11(16)15(5)6/h1-6H3",
        "InChIKey": null,
        "Canonical SMILES": "O=C(OC=1N=C(N=C(C1C)C)N(C)C)N(C)C",
        "Molecular Formula": "C<sub>11</sub>H<sub>18</sub>N<sub>4</sub>O<sub>2</sub>",
        "Molecular Mass": "238.29",
        "Melting Point": "90.5 °C",
        "Density": "1.21 g/cm³"
    }
}