{
    "cas_no": "34819-86-8",
    "key_name": "Di-<em>O</em>-acetyl-<span class=\"text-smallcaps\">L</span>-rhamnal",
    "cn_name": "3，4-乙酰基-6-脱氧-L-葡萄糖酸钙;",
    "alternate_name": "<span class=\"text-smallcaps\">L</span>-<em>arabino</em>-Hex-1-enitol, 1,5-anhydro-2,6-dideoxy-, 3,4-diacetate;<span class=\"text-smallcaps\">L</span>-<em>arabino</em>-Hex-1-enitol, 1,5-anhydro-2,6-dideoxy-, diacetate;3,4-Di-<em>O</em>-acetyl-<span class=\"text-smallcaps\">L</span>-rhamnal;Diacetyl-<span class=\"text-smallcaps\">L</span>-rhamnal;Di-<em>O</em>-acetyl-<span class=\"text-smallcaps\">L</span>-rhamnal;<span class=\"text-smallcaps\">L</span>-Rhamnal diacetate;6-Deoxy-<span class=\"text-smallcaps\">L</span>-glucal diacetate;3,4-Di-<em>O</em>-acetyl-6-deoxy-<span class=\"text-smallcaps\">L</span>-glucal",
    "duplicated_cas_no": "",
    "SMILES": "O(C(C)=O)[C@@H]1[C@@H](OC(C)=O)C=CO[C@H]1C",
    "meta_data": {
        "InChI": "InChI=1S/C10H14O5/c1-6-10(15-8(3)12)9(4-5-13-6)14-7(2)11/h4-6,9-10H,1-3H3/t6-,9-,10-/m0/s1",
        "InChIKey": null,
        "Canonical SMILES": "O=C(OC1C=COC(C)C1OC(=O)C)C",
        "Molecular Formula": "C<sub>10</sub>H<sub>14</sub>O<sub>5</sub>",
        "Molecular Mass": "214.22",
        "Boiling Point": "68-69 °C"
    }
}