{
    "cas_no": "2051-85-6",
    "key_name": "2,4-Dihydroxyazobenzene",
    "cn_name": null,
    "alternate_name": "1,3-Benzenediol, 4-(2-phenyldiazenyl)-;Sudan G;C.I. Solvent Orange 1;1,3-Benzenediol, 4-(phenylazo)-;4-(2-Phenyldiazenyl)-1,3-benzenediol;C.I. 11920;Benzeneazoresorcinol;Ceres Orange G;Ceres orange GN;Cerisol Yellow GR;C.I. Food Orange 3;2,4-Dibenzeneazoresorcinol;Fast Oil Orange T;Fast Oil Yellow G;Fat Orange A;Fat Orange G;Fat Orange GS;Fat Orange RG;Fat Victoria Yellow D;Fast Oil Yellow 2G;Grasol Yellow RSF;Hexacol Oil Yellow GG;Lacquer Orange V 3G;Oil Orange G;Oil Orange 4G;Oil Orange MO;Oil Orange MON;Oil Orange MON Extra;Oil Yellow G Extra;Oil Yellow GG;Organol Orange 2J;Plastoresin Orange F 3A;Resinol Orange G;Solvent Orange 1;Sudan Orange G;Sudan Yellow AR;Tertrogras Orange SG;1504 Yellow;Yellow M Soluble in Grease;Oil-sol. Yellow Zh;2,4-Dihydroxyazobenzene;4-(Phenylazo)resorcinol;Ceres Orange;Orange Au Gras W 2201;NSC 7949",
    "duplicated_cas_no": "",
    "SMILES": "N(=NC1=CC=CC=C1)C2=C(O)C=C(O)C=C2",
    "meta_data": {
        "InChI": "InChI=1S/C12H10N2O2/c15-10-6-7-11(12(16)8-10)14-13-9-4-2-1-3-5-9/h1-8,15-16H",
        "InChIKey": null,
        "Canonical SMILES": "OC1=CC=C(N=NC=2C=CC=CC2)C(O)=C1",
        "Molecular Formula": "C<sub>12</sub>H<sub>10</sub>N<sub>2</sub>O<sub>2</sub>",
        "Molecular Mass": "214.22",
        "Melting Point": "170 °C"
    }
}