{
    "cas_no": "522-97-4",
    "key_name": "(±)-Tetrahydroberberine",
    "cn_name": null,
    "alternate_name": "6<em>H</em>-Benzo[<em>g</em>]-1,3-benzodioxolo[5,6-<em>a</em>]quinolizine, 5,8,13,13a-tetrahydro-9,10-dimethoxy-;Berbine, 9,10-dimethoxy-2,3-(methylenedioxy)-;Berberine, 9-deoxy-16,17-dihydro-;5,8,13,13a-Tetrahydro-9,10-dimethoxy-6<em>H</em>-benzo[<em>g</em>]-1,3-benzodioxolo[5,6-<em>a</em>]quinolizine;Berberine, tetrahydro-;Tetrahydroberberine;Xanthopuccine;Canadine;Tetrahydroumbellatine;(±)-Canadine;(±)-Tetrahydroberberine;<em>dl</em>-Tetrahydroberberine;<em>dl</em>-Canadine;NSC 36351;NSC 94918;Tetrahydroberineper",
    "duplicated_cas_no": "4979-14-0;26548-75-4;28111-09-3;29074-38-2",
    "SMILES": "O(C)C1=C2CN3C(C=4C(=CC5=C(C4)OCO5)CC3)CC2=CC=C1OC",
    "meta_data": {
        "InChI": "InChI=1S/C20H21NO4/c1-22-17-4-3-12-7-16-14-9-19-18(24-11-25-19)8-13(14)5-6-21(16)10-15(12)20(17)23-2/h3-4,8-9,16H,5-7,10-11H2,1-2H3",
        "InChIKey": null,
        "Canonical SMILES": "O(C1=CC=C2C(=C1OC)CN3CCC4=CC=5OCOC5C=C4C3C2)C",
        "Molecular Formula": "C<sub>20</sub>H<sub>21</sub>NO<sub>4</sub>",
        "Molecular Mass": "339.39",
        "Melting Point": "166.5 °C"
    }
}