{
    "cas_no": "104-92-7",
    "key_name": "4-Bromoanisole",
    "cn_name": "4-溴苯甲醚;对溴苯甲醚;对溴茴香醚;1-溴-4-甲氧基苯;",
    "alternate_name": "Benzene, 1-bromo-4-methoxy-;Anisole, <em>p</em>-bromo-;1-Bromo-4-methoxybenzene;<em>p</em>-Bromoanisole;4-Bromoanisole;<em>p</em>-Bromanisole;<em>p</em>-Bromophenyl methyl ether;4-Methoxy-1-bromobenzene;<em>p</em>-Methoxyphenyl bromide;<em>p</em>-Methoxybromobenzene;4-Methoxybromobenzene;4-Anisyl bromide;4-Methoxyphenyl bromide;<em>p</em>-Anisyl bromide;4-Bromomethoxybenzene;<em>p</em>-Bromomethoxybenzene;4-Bromo-1-methoxybenzene;1-Methoxy-4-bromobenzene;NSC 8042;4-Bromoanisol",
    "duplicated_cas_no": "",
    "SMILES": "O(C)C1=CC=C(Br)C=C1",
    "meta_data": {
        "InChI": "InChI=1S/C7H7BrO/c1-9-7-4-2-6(8)3-5-7/h2-5H,1H3",
        "InChIKey": null,
        "Canonical SMILES": "BrC1=CC=C(OC)C=C1",
        "Molecular Formula": "C<sub>7</sub>H<sub>7</sub>BrO",
        "Molecular Mass": "187.03",
        "Boiling Point": "215 °C",
        "Melting Point": "13.5 °C"
    }
}