{
    "cas_no": "17422-74-1",
    "key_name": "3-Formylchromone",
    "cn_name": "色酮-3-甲醛;",
    "alternate_name": "4<em>H</em>-1-Benzopyran-3-carboxaldehyde, 4-oxo-;4-Oxo-4<em>H</em>-1-benzopyran-3-carboxaldehyde;3-Formylchromone;Chromone-3-aldehyde;Chromone-3-carboxaldehyde;4-Oxo-4<em>H</em>-chromene-3-carboxaldehyde;4-Oxo-1-benzopyran-3-carboxaldehyde;4-Oxo-4<em>H</em>-benzopyran-3-carboxaldehyde;3-Formyl-4<em>H</em>-1-benzopyran-4-one;Chromon-3-carboxaldehyde;NSC 291317;4-Oxobenzopyran-3-carboxaldehyde;4-Oxo-4<em>H</em>-chromen-3-carbaldehyde",
    "duplicated_cas_no": "",
    "SMILES": "O=C1C=2C(OC=C1C=O)=CC=CC2",
    "meta_data": {
        "InChI": "InChI=1S/C10H6O3/c11-5-7-6-13-9-4-2-1-3-8(9)10(7)12/h1-6H",
        "InChIKey": null,
        "Canonical SMILES": "O=CC1=COC=2C=CC=CC2C1=O",
        "Molecular Formula": "C<sub>10</sub>H<sub>6</sub>O<sub>3</sub>",
        "Molecular Mass": "174.15",
        "Melting Point": "149-151 °C",
        "Density": "1.70 g/cm³"
    }
}