{
    "cas_no": "14165-55-0",
    "key_name": "Germanium tetraethoxide",
    "cn_name": "乙氧基锗;四乙氧基铭;四乙氧基锗;",
    "alternate_name": "Ethanol, germanium(4+) salt (4:1);Ethyl alcohol, germanium(4+) salt;Ethanol, germanium(4+) salt;Ethyl germanate(IV);Tetraethoxygermanium;Tetraethyl germanate;Germane, tetraethoxy-;Germanium tetraethoxide;Germanium ethoxide;Ethyl orthogermanate;Tetraethoxygermane;Germanium ethylate;Germanium tetraethoxide (Ge(OEt)<sub>4</sub>);Ethyl germanate, Et<sub>4</sub>GeO<sub>4</sub>;Germanium(IV) ethoxide",
    "duplicated_cas_no": "25041-62-7;82022-54-6;325467-51-4;347363-11-5;872301-98-9;1079990-27-4;1355348-11-6;2241224-42-8",
    "SMILES": "C(C)O.[Ge]",
    "meta_data": {
        "InChI": "InChI=1S/C2H6O.Ge/c1-2-3;/h3H,2H2,1H3;",
        "InChIKey": null,
        "Canonical SMILES": "[Ge].OCC",
        "Molecular Formula": "C<sub>2</sub>H<sub>6</sub>O.<sup>1</sup>/<sub>4</sub>Ge",
        "Molecular Mass": "",
        "Boiling Point": "185-186 °C",
        "Melting Point": "-72 °C",
        "Density": "1.134 g/cm³"
    }
}