{
    "cas_no": "464-43-7",
    "key_name": "<em>d</em>-Borneol",
    "cn_name": null,
    "alternate_name": "Bicyclo[2.2.1]heptan-2-ol, 1,7,7-trimethyl-, (1<em>R</em>,2<em>S</em>,4<em>R</em>)-;Borneol, (1<em>R</em>,2<em>S</em>,4<em>R</em>)-(+)-;Bicyclo[2.2.1]heptan-2-ol, 1,7,7-trimethyl-, (1<em>R</em>-<em>endo</em>)-;(1<em>R</em>,2<em>S</em>,4<em>R</em>)-1,7,7-Trimethylbicyclo[2.2.1]heptan-2-ol;<em>d</em>-Borneol;(+)-(2<em>S</em>)-Borneol;Borneol, (+)-;(+)-Borneol;(+)-<em>endo</em>-Borneol;(1<em>R</em>)-(+)-Borneol;<em>d</em>-(+)-Borneol;(1<em>R</em>)-<em>endo</em>-Borneol;(+)-2-Borneol;Dexborneol;(1<em>R</em>,2<em>S</em>,4<em>R</em>)-Borneol",
    "duplicated_cas_no": "",
    "SMILES": "C[C@@]12C(C)(C)[C@@](C[C@@H]1O)(CC2)[H]",
    "meta_data": {
        "InChI": "InChI=1S/C10H18O/c1-9(2)7-4-5-10(9,3)8(11)6-7/h7-8,11H,4-6H2,1-3H3/t7-,8+,10+/m1/s1",
        "InChIKey": null,
        "Canonical SMILES": "OC1CC2CCC1(C)C2(C)C",
        "Molecular Formula": "C<sub>10</sub>H<sub>18</sub>O",
        "Molecular Mass": "154.25",
        "Melting Point": "208 °C"
    }
}