{
    "cas_no": "767-59-9",
    "key_name": "1-Methylindene",
    "cn_name": null,
    "alternate_name": "1<em>H</em>-Indene, 1-methyl-;Indene, 1-methyl-;1-Methyl-1<em>H</em>-indene;1-Methylindene;α-Methylindene;NSC 38857",
    "duplicated_cas_no": "56688-65-4",
    "SMILES": "CC1C=2C(=CC=CC2)C=C1",
    "meta_data": {
        "InChI": "InChI=1S/C10H10/c1-8-6-7-9-4-2-3-5-10(8)9/h2-8H,1H3",
        "InChIKey": null,
        "Canonical SMILES": "C=1C=CC2=C(C1)C=CC2C",
        "Molecular Formula": "C<sub>10</sub>H<sub>10</sub>",
        "Molecular Mass": "130.19",
        "Boiling Point": "199 °C",
        "Density": "0.9640 g/cm³ @ Temp: 20 °C"
    }
}