{
    "cas_no": "121-34-6",
    "key_name": "Vanillic acid",
    "cn_name": "香草酸;4-羟基-3-甲氧基苯甲酸;",
    "alternate_name": "Benzoic acid, 4-hydroxy-3-methoxy-;Vanillic acid;4-Hydroxy-3-methoxybenzoic acid;VA;3-Methoxy-4-hydroxybenzoic acid;2-Methoxy-4-carboxyphenol;NSC 3987;NSC 674322;<em>m</em>-Methoxy-<em>p</em>-hydroxy-benzoic acid;Methylprotocatechuic acid;4-Carboxyl-2-methoxyphenol;MeSH ID: D014641",
    "duplicated_cas_no": "",
    "SMILES": "O(C)C1=CC(C(O)=O)=CC=C1O",
    "meta_data": {
        "InChI": "InChI=1S/C8H8O4/c1-12-7-4-5(8(10)11)2-3-6(7)9/h2-4,9H,1H3,(H,10,11)",
        "InChIKey": null,
        "Canonical SMILES": "O=C(O)C1=CC=C(O)C(OC)=C1",
        "Molecular Formula": "C<sub>8</sub>H<sub>8</sub>O<sub>4</sub>",
        "Molecular Mass": "168.15",
        "Melting Point": "211.5 °C",
        "Density": "0.29081 g/cm³ @ Temp: 59.9 °C; Press: 75006 Torr"
    }
}