{
    "cas_no": "110-89-4",
    "key_name": "Piperidine",
    "cn_name": "哌啶;六氢吡啶;",
    "alternate_name": "Piperidine;Azacyclohexane;Cyclopentimine;Cypentil;Hexahydropyridine;Hexazane;Pentamethylenimine;Pyridine, hexahydro-;Perhydropyridine",
    "duplicated_cas_no": "",
    "SMILES": "C1CCNCC1",
    "meta_data": {
        "InChI": "InChI=1S/C5H11N/c1-2-4-6-5-3-1/h6H,1-5H2",
        "InChIKey": null,
        "Canonical SMILES": "N1CCCCC1",
        "Molecular Formula": "C<sub>5</sub>H<sub>11</sub>N",
        "Molecular Mass": "85.15",
        "Boiling Point": "106 °C @ Press: 760 Torr",
        "Melting Point": "-7 °C",
        "Density": "0.8622 g/cm³ @ Temp: 20 °C"
    }
}