{
    "cas_no": "1806-29-7",
    "key_name": "[1,1′-Biphenyl]-2,2′-diol",
    "cn_name": "2,2\"-二羟基联苯;",
    "alternate_name": "[1,1′-Biphenyl]-2,2′-diol;2,2′-Biphenyldiol;<em>o</em>,<em>o</em>′-Biphenol;2,2′-Dihydroxybiphenyl;<em>o</em>,<em>o</em>′-Diphenol;2,2′-Dihydroxydiphenyl;2,2′-Biphenol;<em>o</em>,<em>o</em>′-Dihydroxybiphenyl;2,2′-Dihydroxy-1,1′-biphenyl;1,1′-Bi-2-phenol;2,2′-Bisphenol;NSC 37068;2′-Hydroxy-1,1′-biphenyl-2-ol;2-(2-Hydroxyphenyl)phenol",
    "duplicated_cas_no": "",
    "SMILES": "OC1=C(C=CC=C1)C2=C(O)C=CC=C2",
    "meta_data": {
        "InChI": "InChI=1S/C12H10O2/c13-11-7-3-1-5-9(11)10-6-2-4-8-12(10)14/h1-8,13-14H",
        "InChIKey": null,
        "Canonical SMILES": "OC=1C=CC=CC1C=2C=CC=CC2O",
        "Molecular Formula": "C<sub>12</sub>H<sub>10</sub>O<sub>2</sub>",
        "Molecular Mass": "186.21",
        "Boiling Point": "320 °C",
        "Melting Point": "109 °C"
    }
}