{
    "cas_no": "92-66-0",
    "key_name": "4-Bromobiphenyl",
    "cn_name": "4-溴代联苯;",
    "alternate_name": "1,1′-Biphenyl, 4-bromo-;Biphenyl, 4-bromo-;4-Bromo-1,1′-biphenyl;<em>p</em>-Phenylbromobenzene;<em>p</em>-Bromobiphenyl;4-Biphenylyl bromide;4-Bromodiphenyl;<em>p</em>-Bromodiphenyl;<em>p</em>-Biphenylyl bromide;(4-Bromophenyl)benzene;<em>p</em>-Phenylphenyl bromide;1-Bromo-4-phenylbenzene;4-Bromobiphenyl;NSC 406933;4′-Bromobiphenyl;4-Biphenyl bromide;PBB 3;4-Phenylbromobenzene;<em>p</em>-Bromophenylbenzene",
    "duplicated_cas_no": "",
    "SMILES": "BrC1=CC=C(C=C1)C2=CC=CC=C2",
    "meta_data": {
        "InChI": "InChI=1S/C12H9Br/c13-12-8-6-11(7-9-12)10-4-2-1-3-5-10/h1-9H",
        "InChIKey": null,
        "Canonical SMILES": "BrC=1C=CC(=CC1)C=2C=CC=CC2",
        "Molecular Formula": "C<sub>12</sub>H<sub>9</sub>Br",
        "Molecular Mass": "233.10",
        "Boiling Point": "310 °C",
        "Melting Point": "91.5 °C"
    }
}