{
    "cas_no": "636-04-4",
    "key_name": "Thiobenzanilide",
    "cn_name": "N-苯基硫代苯甲酰胺;",
    "alternate_name": "Benzenecarbothioamide, <em>N</em>-phenyl-;Benzanilide, thio-;<em>N</em>-Phenylbenzenecarbothioamide;<em>N</em>-Phenylthiobenzamide;Thiobenzanilide;<em>N</em>-Thiobenzoylaniline;NSC 2580;<em>N</em>-Phenylbenzothioamide",
    "duplicated_cas_no": "",
    "SMILES": "C(NC1=CC=CC=C1)(=S)C2=CC=CC=C2",
    "meta_data": {
        "InChI": "InChI=1S/C13H11NS/c15-13(11-7-3-1-4-8-11)14-12-9-5-2-6-10-12/h1-10H,(H,14,15)",
        "InChIKey": null,
        "Canonical SMILES": "S=C(NC=1C=CC=CC1)C=2C=CC=CC2",
        "Molecular Formula": "C<sub>13</sub>H<sub>11</sub>NS",
        "Molecular Mass": "213.30",
        "Melting Point": "102 °C"
    }
}