{
    "cas_no": "16290-07-6",
    "key_name": "Kaempferol 7-<em>O</em>-glucoside",
    "cn_name": null,
    "alternate_name": "4<em>H</em>-1-Benzopyran-4-one, 7-(β-<span class=\"text-smallcaps\">D</span>-glucopyranosyloxy)-3,5-dihydroxy-2-(4-hydroxyphenyl)-;Populnin;7-(β-<span class=\"text-smallcaps\">D</span>-Glucopyranosyloxy)-3,5-dihydroxy-2-(4-hydroxyphenyl)-4<em>H</em>-1-benzopyran-4-one;Kaempferol 7-glucoside;Glucosyl-7-kaempferol;Kaempferol 7-monoglucoside;Kaempferol 7-β-<span class=\"text-smallcaps\">D</span>-glucopyranoside;Kaempferol 7-β-glucopyranoside;Kaempferol 7-<em>O</em>-β-<span class=\"text-smallcaps\">D</span>-glucoside;Kaempferol 7-<em>O</em>-glucoside;Kaempferol 7-<em>O</em>-β-<span class=\"text-smallcaps\">D</span>-glucopyranoside;Kaempferol 7-<em>O</em>-β-glucopyranoside;7-(β-Glucopyranosyloxy)kaempferol",
    "duplicated_cas_no": "29317-67-7",
    "SMILES": "O=C1C=2C(OC(=C1O)C3=CC=C(O)C=C3)=CC(O[C@@H]4O[C@H](CO)[C@@H](O)[C@H](O)[C@H]4O)=CC2O",
    "meta_data": {
        "InChI": "InChI=1S/C21H20O11/c22-7-13-15(25)17(27)19(29)21(32-13)30-10-5-11(24)14-12(6-10)31-20(18(28)16(14)26)8-1-3-9(23)4-2-8/h1-6,13,15,17,19,21-25,27-29H,7H2/t13-,15-,17+,19-,21-/m1/s1",
        "InChIKey": null,
        "Canonical SMILES": "O=C1C(O)=C(OC2=CC(OC3OC(CO)C(O)C(O)C3O)=CC(O)=C12)C=4C=CC(O)=CC4",
        "Molecular Formula": "C<sub>21</sub>H<sub>20</sub>O<sub>11</sub>",
        "Molecular Mass": "448.38",
        "Melting Point": "228-230 °C (decomp)"
    }
}