{
    "cas_no": "111-78-4",
    "key_name": "1,5-Cyclooctadiene",
    "cn_name": "1,5-环辛二烯;",
    "alternate_name": "1,5-Cyclooctadiene;1,5-COD;COD;NSC 60155;<em>cis</em>-1,5-Cyclooctadiene",
    "duplicated_cas_no": "1552-12-1",
    "SMILES": "C1CC=CCCC=C1",
    "meta_data": {
        "InChI": "InChI=1S/C8H12/c1-2-4-6-8-7-5-3-1/h1-2,7-8H,3-6H2",
        "InChIKey": null,
        "Canonical SMILES": "C1=CCCC=CCC1",
        "Molecular Formula": "C<sub>8</sub>H<sub>12</sub>",
        "Molecular Mass": "108.18",
        "Boiling Point": "150.8 °C @ Press: 757 Torr",
        "Melting Point": "-70--69 °C",
        "Density": "0.8818 g/cm³ @ Temp: 25 °C"
    }
}