{
    "cas_no": "96-50-4",
    "key_name": "2-Aminothiazole",
    "cn_name": "2-氨基噻唑;",
    "alternate_name": "2-Thiazolamine;Thiazole, 2-amino-;4-Thiazoline, 2-imino-;Abadol;Abadole;Aminothiazole;2-Aminothiazole;Basedol;2-Thiazolylamine;2-Amino-1,3-thiazole;NSC 1900;1,3-Thiazol-2-amine;2-Aminothiazol",
    "duplicated_cas_no": "5654-01-3;58473-79-3",
    "SMILES": "NC1=NC=CS1",
    "meta_data": {
        "InChI": "InChI=1S/C3H4N2S/c4-3-5-1-2-6-3/h1-2H,(H2,4,5)",
        "InChIKey": null,
        "Canonical SMILES": "N=1C=CSC1N",
        "Molecular Formula": "C<sub>3</sub>H<sub>4</sub>N<sub>2</sub>S",
        "Molecular Mass": "100.14",
        "Boiling Point": "140 °C @ Press: 12 Torr",
        "Melting Point": "93 °C"
    }
}