{
    "cas_no": "394-25-2",
    "key_name": "4-Methoxy-3-nitrobenzotrifluoride",
    "cn_name": "4-甲氧基-3-硝基三氟甲苯;",
    "alternate_name": "Benzene, 1-methoxy-2-nitro-4-(trifluoromethyl)-;Anisole, 2-nitro-4-(trifluoromethyl)-;1-Methoxy-2-nitro-4-(trifluoromethyl)benzene;4-Methoxy-3-nitrobenzotrifluoride;2-Nitro-4-(trifluoromethyl)anisole;NSC 88325;1-Methoxy-2-nitro-4-trifluoromethylbenzene",
    "duplicated_cas_no": "",
    "SMILES": "N(=O)(=O)C1=C(OC)C=CC(C(F)(F)F)=C1",
    "meta_data": {
        "InChI": "InChI=1S/C8H6F3NO3/c1-15-7-3-2-5(8(9,10)11)4-6(7)12(13)14/h2-4H,1H3",
        "InChIKey": null,
        "Canonical SMILES": "O=N(=O)C1=CC(=CC=C1OC)C(F)(F)F",
        "Molecular Formula": "C<sub>8</sub>H<sub>6</sub>F<sub>3</sub>NO<sub>3</sub>",
        "Molecular Mass": "221.13",
        "Boiling Point": "90-95 °C @ Press: 0.5 Torr",
        "Melting Point": "47-49 °C"
    }
}