{
    "cas_no": "593-84-0",
    "key_name": "Guanidine thiocyanate",
    "cn_name": null,
    "alternate_name": "Thiocyanic acid, compd. with guanidine (1:1);Guanidine thiocyanate;Guanidine, monothiocyanate;Guanidinium thiocyanate;Guanidine isothiocyanate;NSC 2119;RLT;Buffer AVL;Buffer ML;Buffer MTL;Buffer RLT;GTC;Guanidinium isothiocyanate",
    "duplicated_cas_no": "109028-07-1;134932-17-5;5341-59-3;40817-29-6;60930-22-5;90229-46-2;151201-26-2;1035686-36-2",
    "SMILES": "C(#N)S.C(=N)(N)N",
    "meta_data": {
        "InChI": "InChI=1S/CH5N3.CHNS/c2-1(3)4;2-1-3/h(H5,2,3,4);3H",
        "InChIKey": null,
        "Canonical SMILES": "N#CS.N=C(N)N",
        "Molecular Formula": "CH<sub>5</sub>N<sub>3</sub>.CHNS",
        "Molecular Mass": "",
        "Melting Point": "118 °C"
    }
}