{
    "cas_no": "2617-79-0",
    "key_name": "<em>N</em>-(4-Chlorophenyl)formamide",
    "cn_name": "N-(4-氯苯基)甲酰胺;",
    "alternate_name": "Formamide, <em>N</em>-(4-chlorophenyl)-;Formanilide, 4′-chloro-;<em>N</em>-(4-Chlorophenyl)formamide;<em>p</em>-Chloroformanilide;4′-Chloroformanilide;<em>N</em>-(<em>p</em>-Chlorophenyl)formamide;<em>N</em>-Formyl-<em>p</em>-chloroaniline;NSC 26266",
    "duplicated_cas_no": "",
    "SMILES": "N(C=O)C1=CC=C(Cl)C=C1",
    "meta_data": {
        "InChI": "InChI=1S/C7H6ClNO/c8-6-1-3-7(4-2-6)9-5-10/h1-5H,(H,9,10)",
        "InChIKey": null,
        "Canonical SMILES": "O=CNC1=CC=C(Cl)C=C1",
        "Molecular Formula": "C<sub>7</sub>H<sub>6</sub>ClNO",
        "Molecular Mass": "155.58",
        "Melting Point": "104 °C"
    }
}