{
    "cas_no": "84606-45-1",
    "key_name": "2-Methyl-1-(1-methylethyl)-1<em>H</em>-imidazole",
    "cn_name": null,
    "alternate_name": "1<em>H</em>-Imidazole, 2-methyl-1-(1-methylethyl)-;2-Methyl-1-(1-methylethyl)-1<em>H</em>-imidazole;1-Isopropyl-2-methylimidazole;2-Methyl-1-(propan-2-yl)-1<em>H</em>-imidazole",
    "duplicated_cas_no": "",
    "SMILES": "C(C)(C)N1C(C)=NC=C1",
    "meta_data": {
        "InChI": "InChI=1S/C7H12N2/c1-6(2)9-5-4-8-7(9)3/h4-6H,1-3H3",
        "InChIKey": null,
        "Canonical SMILES": "N=1C=CN(C1C)C(C)C",
        "Molecular Formula": "C<sub>7</sub>H<sub>12</sub>N<sub>2</sub>",
        "Molecular Mass": "124.18",
        "Boiling Point": "80 °C @ Press: 1.2 Torr"
    }
}