{
    "cas_no": "112984-60-8",
    "key_name": "Ulifloxacin",
    "cn_name": "6-氟-7-哌嗪-1-甲基-4-氧代-[1,3]硫氮杂环[3,2-a]喹啉-3-羧酸;",
    "alternate_name": "1<em>H</em>,4<em>H</em>-[1,3]Thiazeto[3,2-<em>a</em>]quinoline-3-carboxylic acid, 6-fluoro-1-methyl-4-oxo-7-(1-piperazinyl)-;6-Fluoro-1-methyl-4-oxo-7-(1-piperazinyl)-1<em>H</em>,4<em>H</em>-[1,3]thiazeto[3,2-<em>a</em>]quinoline-3-carboxylic acid;NAD 394;NM 394;AF 3013;Ulifloxacin",
    "duplicated_cas_no": "138330-14-0",
    "SMILES": "CC1N2C=3C(C(=O)C(C(O)=O)=C2S1)=CC(F)=C(C3)N4CCNCC4",
    "meta_data": {
        "InChI": "InChI=1S/C16H16FN3O3S/c1-8-20-11-7-12(19-4-2-18-3-5-19)10(17)6-9(11)14(21)13(16(22)23)15(20)24-8/h6-8,18H,2-5H2,1H3,(H,22,23)",
        "InChIKey": null,
        "Canonical SMILES": "O=C(O)C=1C(=O)C2=CC(F)=C(C=C2N3C1SC3C)N4CCNCC4",
        "Molecular Formula": "C<sub>16</sub>H<sub>16</sub>FN<sub>3</sub>O<sub>3</sub>S",
        "Molecular Mass": "349.38",
        "Melting Point": "215-218 °C (decomp)"
    }
}