{
    "cas_no": "60200-06-8",
    "key_name": "Clorsulon",
    "cn_name": "克洛索隆;氯舒隆;4-氨基-6-三氯乙烯基-1,3-苯二磺酰胺;",
    "alternate_name": "1,3-Benzenedisulfonamide, 4-amino-6-(1,2,2-trichloroethenyl)-;1,3-Benzenedisulfonamide, 4-amino-6-(trichloroethenyl)-;4-Amino-6-(1,2,2-trichloroethenyl)-1,3-benzenedisulfonamide;4-Amino-6-(trichloroethenyl)-1,3-benzenedisulfonamide;L 631529;MK 401;Clorsulon;Curatrem",
    "duplicated_cas_no": "",
    "SMILES": "C(=C(Cl)Cl)(Cl)C1=C(S(N)(=O)=O)C=C(S(N)(=O)=O)C(N)=C1",
    "meta_data": {
        "InChI": "InChI=1S/C8H8Cl3N3O4S2/c9-7(8(10)11)3-1-4(12)6(20(14,17)18)2-5(3)19(13,15)16/h1-2H,12H2,(H2,13,15,16)(H2,14,17,18)",
        "InChIKey": null,
        "Canonical SMILES": "O=S(=O)(N)C=1C=C(C(=CC1N)C(Cl)=C(Cl)Cl)S(=O)(=O)N",
        "Molecular Formula": "C<sub>8</sub>H<sub>8</sub>Cl<sub>3</sub>N<sub>3</sub>O<sub>4</sub>S<sub>2</sub>",
        "Molecular Mass": "380.66",
        "Melting Point": "203 °C"
    }
}