{
    "cas_no": "1118-71-4",
    "key_name": "2,2,6,6-Tetramethyl-3,5-heptanedione",
    "cn_name": "四甲基庚二酮;2,2,6,6-四甲基-3,5-庚二酮;",
    "alternate_name": "3,5-Heptanedione, 2,2,6,6-tetramethyl-;2,2,6,6-Tetramethyl-3,5-heptanedione;Dipivaloylmethane;NSC 174296;1,3-Di-<em>tert</em>-butyl-1,3-propanedione;1,3-(<em>tert</em>-Butyl)-1,3-propanedione",
    "duplicated_cas_no": "139996-82-0;61346-74-5;82846-74-0",
    "SMILES": "C(C(C(C)(C)C)=O)C(C(C)(C)C)=O",
    "meta_data": {
        "InChI": "InChI=1S/C11H20O2/c1-10(2,3)8(12)7-9(13)11(4,5)6/h7H2,1-6H3",
        "InChIKey": null,
        "Canonical SMILES": "O=C(CC(=O)C(C)(C)C)C(C)(C)C",
        "Molecular Formula": "C<sub>11</sub>H<sub>20</sub>O<sub>2</sub>",
        "Molecular Mass": "184.28",
        "Boiling Point": "96-97 °C @ Press: 20 Torr",
        "Melting Point": "&gt;400 °C (decomp)",
        "Density": "0.88 g/cm³"
    }
}