{
    "cas_no": "463-58-1",
    "key_name": "Carbonyl sulfide",
    "cn_name": "氧硫化碳;氧硫化碳羰基硫;",
    "alternate_name": "Carbon oxide sulfide (COS);Carbonyl sulfide;Carbon oxysulfide;Carbonyl sulfide (COS);Carbon oxysulfide (COS);Oxycarbon sulfide (COS);Carbon monoxide monosulfide;Carbon oxide sulfide;Thiocarbonyl oxide;OCS",
    "duplicated_cas_no": "20684-88-2",
    "SMILES": "C(=O)=S",
    "meta_data": {
        "InChI": "InChI=1S/COS/c2-1-3",
        "InChIKey": null,
        "Canonical SMILES": "O=C=S",
        "Molecular Formula": "COS",
        "Molecular Mass": "60.08",
        "Boiling Point": "-50 °C @ Press: 760 Torr",
        "Melting Point": "-138 °C",
        "Density": "1.028 g/cm³ @ Temp: 17 °C"
    }
}