{
    "cas_no": "136572-09-3",
    "key_name": "Irinotecan hydrochloride trihydrate",
    "cn_name": "盐酸伊立替康三水合物;盐酸依立替康三水合物;",
    "alternate_name": "[1,4′-Bipiperidine]-1′-carboxylic acid, (4<em>S</em>)-4,11-diethyl-3,4,12,14-tetrahydro-4-hydroxy-3,14-dioxo-1<em>H</em>-pyrano[3′,4′:6,7]indolizino[1,2-<em>b</em>]quinolin-9-yl ester, hydrochloride, hydrate (1:1:3);[1,4′-Bipiperidine]-1′-carboxylic acid, 4,11-diethyl-3,4,12,14-tetrahydro-4-hydroxy-3,14-dioxo-1<em>H</em>-pyrano[3′,4′:6,7]indolizino[1,2-<em>b</em>]quinolin-9-yl ester, monohydrochloride, trihydrate, (<em>S</em>)-;[1,4′-Bipiperidine]-1′-carboxylic acid, (4<em>S</em>)-4,11-diethyl-3,4,12,14-tetrahydro-4-hydroxy-3,14-dioxo-1<em>H</em>-pyrano[3′,4′:6,7]indolizino[1,2-<em>b</em>]quinolin-9-yl ester, monohydrochloride, trihydrate;1<em>H</em>-Pyrano[3′,4′:6,7]indolizino[1,2-<em>b</em>]quinoline, [1,4′-bipiperidine]-1′-carboxylic acid deriv.;Irinotecan hydrochloride hydrate;Irinotecan hydrochloride trihydrate;Onivyde;Onivyde pegylated liposomal",
    "duplicated_cas_no": "",
    "SMILES": "C(C)C1=C2C(C=3N(C2)C(=O)C4=C(C3)[C@](CC)(O)C(=O)OC4)=NC=5C1=CC(OC(=O)N6CCC(CC6)N7CCCCC7)=CC5.Cl.O",
    "meta_data": {
        "InChI": "InChI=1S/C33H38N4O6.ClH.3H2O/c1-3-22-23-16-21(43-32(40)36-14-10-20(11-15-36)35-12-6-5-7-13-35)8-9-27(23)34-29-24(22)18-37-28(29)17-26-25(30(37)38)19-42-31(39)33(26,41)4-2;;;;/h8-9,16-17,20,41H,3-7,10-15,18-19H2,1-2H3;1H;3*1H2/t33-;;;;/m0..../s1",
        "InChIKey": null,
        "Canonical SMILES": "Cl.O=C(OC=1C=CC2=NC=3C4=CC5=C(C(=O)N4CC3C(=C2C1)CC)COC(=O)C5(O)CC)N6CCC(N7CCCCC7)CC6.O",
        "Molecular Formula": "C<sub>33</sub>H<sub>38</sub>N<sub>4</sub>O<sub>6</sub>.ClH.3H<sub>2</sub>O",
        "Molecular Mass": "",
        "Melting Point": "256.5 °C"
    }
}