{
    "cas_no": "37526-88-8",
    "key_name": "Benzyl tiglate",
    "cn_name": null,
    "alternate_name": "2-Butenoic acid, 2-methyl-, phenylmethyl ester, (2<em>E</em>)-;2-Butenoic acid, 2-methyl-, phenylmethyl ester, (<em>E</em>)-;Tiglic acid benzyl ester;Benzyl tiglate;NSC 69098",
    "duplicated_cas_no": "",
    "SMILES": "C(OC(/C(=C/C)/C)=O)C1=CC=CC=C1",
    "meta_data": {
        "InChI": "InChI=1S/C12H14O2/c1-3-10(2)12(13)14-9-11-7-5-4-6-8-11/h3-8H,9H2,1-2H3/b10-3+",
        "InChIKey": null,
        "Canonical SMILES": "O=C(OCC=1C=CC=CC1)C(=CC)C",
        "Molecular Formula": "C<sub>12</sub>H<sub>14</sub>O<sub>2</sub>",
        "Molecular Mass": "190.24",
        "Boiling Point": "139 °C @ Press: 9 Torr",
        "Density": "1.0431 g/cm³ @ Temp: 12 °C"
    }
}