{
    "cas_no": "583-04-0",
    "key_name": "Allyl benzoate",
    "cn_name": "苯甲酸烯丙酯;",
    "alternate_name": "Benzoic acid, 2-propen-1-yl ester;Benzoic acid, allyl ester;Benzoic acid, 2-propenyl ester;Allyl benzoate;2-Propenyl benzoate;Allyl alcohol, benzoate;Monoallyl benzoate;NSC 32639;NSC 406846",
    "duplicated_cas_no": "874992-21-9",
    "SMILES": "C(OCC=C)(=O)C1=CC=CC=C1",
    "meta_data": {
        "InChI": "InChI=1S/C10H10O2/c1-2-8-12-10(11)9-6-4-3-5-7-9/h2-7H,1,8H2",
        "InChIKey": null,
        "Canonical SMILES": "O=C(OCC=C)C=1C=CC=CC1",
        "Molecular Formula": "C<sub>10</sub>H<sub>10</sub>O<sub>2</sub>",
        "Molecular Mass": "162.19",
        "Boiling Point": "162-163 °C @ Press: 50 Torr",
        "Density": "1.056 g/cm³ @ Temp: 20 °C"
    }
}