{
    "cas_no": "6138-23-4",
    "key_name": "Trehalose, dihydrate",
    "cn_name": "D(+)-海藻糖二水合物;alpha-D-吡喃葡糖苷基-alpha-D-吡喃葡糖苷;",
    "alternate_name": "α-<span class=\"text-smallcaps\">D</smallcap>-Glucopyranoside, α-<smallcap>D</span>-glucopyranosyl, hydrate (1:2);Trehalose, dihydrate;α-<span class=\"text-smallcaps\">D</smallcap>-Glucopyranoside, α-<smallcap>D</span>-glucopyranosyl, dihydrate;α-<span class=\"text-smallcaps\">D</smallcap>-Glucopyranosyl α-<smallcap>D</span>-glucopyranoside dihydrate;α,α-Trehalose dihydrate;<span class=\"text-smallcaps\">D</span>-(+)-Trehalose dihydrate;<span class=\"text-smallcaps\">D</span>-Trehalose dihydrate",
    "duplicated_cas_no": "219843-81-9;1082652-02-5;1195174-20-9",
    "SMILES": "O([C@H]1O[C@H](CO)[C@@H](O)[C@H](O)[C@H]1O)[C@H]2O[C@H](CO)[C@@H](O)[C@H](O)[C@H]2O.O",
    "meta_data": {
        "InChI": "InChI=1S/C12H22O11.2H2O/c13-1-3-5(15)7(17)9(19)11(21-3)23-12-10(20)8(18)6(16)4(2-14)22-12;;/h3-20H,1-2H2;2*1H2/t3-,4-,5-,6-,7+,8+,9-,10-,11-,12-;;/m1../s1",
        "InChIKey": null,
        "Canonical SMILES": "O.OCC1OC(OC2OC(CO)C(O)C(O)C2O)C(O)C(O)C1O",
        "Molecular Formula": "C<sub>12</sub>H<sub>22</sub>O<sub>11</sub>.2H<sub>2</sub>O",
        "Molecular Mass": "",
        "Boiling Point": "115.3 °C",
        "Density": "1.52 g/cm³"
    }
}