{
    "cas_no": "1746-81-2",
    "key_name": "Monolinuron",
    "cn_name": "绿谷隆;3-(对氯苯基)-1-甲氧基-1-甲基脲3-(p-chlorophenyl)-1-methoxy-1-methylurea;",
    "alternate_name": "Urea, <em>N</em>′-(4-chlorophenyl)-<em>N</em>-methoxy-<em>N</em>-methyl-;Urea, 3-(<em>p</em>-chlorophenyl)-1-methoxy-1-methyl-;<em>N</em>′-(4-Chlorophenyl)-<em>N</em>-methoxy-<em>N</em>-methylurea;Aresin;3-(4-Chlorophenyl)-1-methoxy-1-methylurea;<em>N</em>-4-Chlorophenyl-<em>N</em>′-methyl-<em>N</em>′-methoxyurea;Monolinuron;Arezine;<em>N</em>-(4-Chlorophenyl)-<em>N</em>′-methoxy-<em>N</em>′-methylurea;<em>N</em>′-(4-Chlorophenyl)-<em>N</em>-methyl-<em>N</em>-methoxyurea;3-(4-Chlorophenyl)-1-methyl-1-methoxyurea;Arezin;Monorotox;<em>N</em>-Methyl-<em>N</em>-methoxy-<em>N</em>′-(4-chlorophenyl)urea;1-Methoxy-1-methyl-3-(4-chlorophenyl)urea",
    "duplicated_cas_no": "56449-36-6",
    "SMILES": "N(C(N(OC)C)=O)C1=CC=C(Cl)C=C1",
    "meta_data": {
        "InChI": "InChI=1S/C9H11ClN2O2/c1-12(14-2)9(13)11-8-5-3-7(10)4-6-8/h3-6H,1-2H3,(H,11,13)",
        "InChIKey": null,
        "Canonical SMILES": "O=C(NC1=CC=C(Cl)C=C1)N(OC)C",
        "Molecular Formula": "C<sub>9</sub>H<sub>11</sub>ClN<sub>2</sub>O<sub>2</sub>",
        "Molecular Mass": "214.65",
        "Melting Point": "80-83 °C"
    }
}