{
    "cas_no": "5396-38-3",
    "key_name": "4-<em>tert</em>-Butylanisole",
    "cn_name": null,
    "alternate_name": "Benzene, 1-(1,1-dimethylethyl)-4-methoxy-;Anisole, <em>p</em>-<em>tert</em>-butyl-;1-(1,1-Dimethylethyl)-4-methoxybenzene;4-<em>tert</em>-Butylanisole;<em>p</em>-Methoxy-<em>tert</em>-butylbenzene;<em>p</em>-<em>tert</em>-Butylanisole;4-<em>tert</em>-Butylphenyl methyl ether;4-(1,1-Dimethylethyl)anisole;<em>p</em>-<em>tert</em>-Butylphenyl methyl ether;1-<em>tert</em>-Butyl-4-methoxybenzene;Methyl 4-<em>tert</em>-butylphenyl ether;4-<em>tert</em>-Butylmethoxybenzene;NSC 1266",
    "duplicated_cas_no": "",
    "SMILES": "C(C)(C)(C)C1=CC=C(OC)C=C1",
    "meta_data": {
        "InChI": "InChI=1S/C11H16O/c1-11(2,3)9-5-7-10(12-4)8-6-9/h5-8H,1-4H3",
        "InChIKey": null,
        "Canonical SMILES": "O(C1=CC=C(C=C1)C(C)(C)C)C",
        "Molecular Formula": "C<sub>11</sub>H<sub>16</sub>O",
        "Molecular Mass": "164.24",
        "Boiling Point": "238 °C",
        "Melting Point": "19 °C",
        "Density": "0.9435 g/cm³ @ Temp: 20 °C"
    }
}