{
    "cas_no": "1648-99-3",
    "key_name": "2,2,2-Trifluoroethanesulfonyl chloride",
    "cn_name": "2,2,2-三氟乙烷磺酰氯;2,2,2-三氟乙烷磺酰氯;",
    "alternate_name": "Ethanesulfonyl chloride, 2,2,2-trifluoro-;2,2,2-Trifluoroethanesulfonyl chloride;Tresyl chloride;2,2,2-Trifluoroethylsulfonyl chloride;2,2,2-Trifluoroethane-1-sulfonyl chloride;2,2,2-Trifluoroethan-1-sulfonyl chloride",
    "duplicated_cas_no": "",
    "SMILES": "C(C(F)(F)F)S(Cl)(=O)=O",
    "meta_data": {
        "InChI": "InChI=1S/C2H2ClF3O2S/c3-9(7,8)1-2(4,5)6/h1H2",
        "InChIKey": null,
        "Canonical SMILES": "O=S(=O)(Cl)CC(F)(F)F",
        "Molecular Formula": "C<sub>2</sub>H<sub>2</sub>ClF<sub>3</sub>O<sub>2</sub>S",
        "Molecular Mass": "182.55",
        "Boiling Point": "65 °C @ Press: 45 Torr"
    }
}