{
    "cas_no": "2818-58-8",
    "key_name": "Phenyl β-<span class=\"text-smallcaps\">D</span>-galactopyranoside",
    "cn_name": "苯基-beta-D-吡喃半乳糖苷;",
    "alternate_name": "β-<span class=\"text-smallcaps\">D</span>-Galactopyranoside, phenyl;Galactopyranoside, phenyl, β-<span class=\"text-smallcaps\">D</span>-;Galactopyranoside, phenyl;Phenyl β-<span class=\"text-smallcaps\">D</span>-galactopyranoside;Phenyl β-galactoside;Phenyl β-<span class=\"text-smallcaps\">D</span>-galactoside",
    "duplicated_cas_no": "30108-36-2",
    "SMILES": "O([C@H]1[C@H](O)[C@@H](O)[C@@H](O)[C@@H](CO)O1)C2=CC=CC=C2",
    "meta_data": {
        "InChI": "InChI=1S/C12H16O6/c13-6-8-9(14)10(15)11(16)12(18-8)17-7-4-2-1-3-5-7/h1-5,8-16H,6H2/t8-,9+,10+,11-,12-/m1/s1",
        "InChIKey": null,
        "Canonical SMILES": "OCC1OC(OC=2C=CC=CC2)C(O)C(O)C1O",
        "Molecular Formula": "C<sub>12</sub>H<sub>16</sub>O<sub>6</sub>",
        "Molecular Mass": "256.25",
        "Melting Point": "153-155 °C"
    }
}