{
    "cas_no": "13925-00-3",
    "key_name": "2-Ethylpyrazine",
    "cn_name": null,
    "alternate_name": "Pyrazine, 2-ethyl-;Pyrazine, ethyl-;2-Ethylpyrazine;Ethylpyrazine",
    "duplicated_cas_no": "",
    "SMILES": "C(C)C=1C=NC=CN1",
    "meta_data": {
        "InChI": "InChI=1S/C6H8N2/c1-2-6-5-7-3-4-8-6/h3-5H,2H2,1H3",
        "InChIKey": null,
        "Canonical SMILES": "N=1C=CN=C(C1)CC",
        "Molecular Formula": "C<sub>6</sub>H<sub>8</sub>N<sub>2</sub>",
        "Molecular Mass": "108.14",
        "Boiling Point": "152.5 °C"
    }
}