{
    "cas_no": "14338-36-4",
    "key_name": "(3-Aminophenyl)acetic acid",
    "cn_name": "3-氨基苯乙酸;",
    "alternate_name": "Benzeneacetic acid, 3-amino-;Acetic acid, (<em>m</em>-aminophenyl)-;3-Aminobenzeneacetic acid;(3-Aminophenyl)acetic acid;(<em>m</em>-Aminophenyl)acetic acid;2-(3-Aminophenyl)acetic acid",
    "duplicated_cas_no": "",
    "SMILES": "C(C(O)=O)C1=CC(N)=CC=C1",
    "meta_data": {
        "InChI": "InChI=1S/C8H9NO2/c9-7-3-1-2-6(4-7)5-8(10)11/h1-4H,5,9H2,(H,10,11)",
        "InChIKey": null,
        "Canonical SMILES": "O=C(O)CC=1C=CC=C(N)C1",
        "Molecular Formula": "C<sub>8</sub>H<sub>9</sub>NO<sub>2</sub>",
        "Molecular Mass": "151.16",
        "Melting Point": "151 °C"
    }
}