{
    "cas_no": "452-71-1",
    "key_name": "4-Fluoro-2-methylaniline",
    "cn_name": "4-氟-2-甲基苯胺;",
    "alternate_name": "Benzenamine, 4-fluoro-2-methyl-;<em>o</em>-Toluidine, 4-fluoro-;4-Fluoro-2-methylbenzenamine;2-Amino-5-fluorotoluene;4-Fluoro-2-methylaniline;6-Amino-3-fluorotoluene;2-Methyl-4-fluoroaniline;4-Fluoro-<em>o</em>-toluidine;NSC 88300;(4-Fluoro-2-methylphenyl)amine;2-Methyl-4-Fluorophenylamine;4-Fluoro-2-methyl-1-aminobenzene",
    "duplicated_cas_no": "",
    "SMILES": "CC1=C(N)C=CC(F)=C1",
    "meta_data": {
        "InChI": "InChI=1S/C7H8FN/c1-5-4-6(8)2-3-7(5)9/h2-4H,9H2,1H3",
        "InChIKey": null,
        "Canonical SMILES": "FC1=CC=C(N)C(=C1)C",
        "Molecular Formula": "C<sub>7</sub>H<sub>8</sub>FN",
        "Molecular Mass": "125.14",
        "Boiling Point": "97 °C @ Press: 20 Torr",
        "Melting Point": "14.2 °C",
        "Density": "1.1263 g/cm³ @ Temp: 18 °C"
    }
}