{
    "cas_no": "52152-93-9",
    "key_name": "Cefsulodin sodium",
    "cn_name": "头孢磺啶钠;(6R,7R)-3-[(4-氨基甲酰基吡啶-1-鎓-1-基)甲基]-8-氧代-7-[[(2R)-2-苯基-2-磺酸基乙酰]氨基]-5-;",
    "alternate_name": "Pyridinium, 4-(aminocarbonyl)-1-[[(6<em>R</em>,7<em>R</em>)-2-carboxy-8-oxo-7-[[(2<em>R</em>)-2-phenyl-2-sulfoacetyl]amino]-5-thia-1-azabicyclo[4.2.0]oct-2-en-3-yl]methyl]-, inner salt, sodium salt (1:1);Pyridinium, 4-(aminocarbonyl)-1-[[2-carboxy-8-oxo-7-[(phenylsulfoacetyl)amino]-5-thia-1-azabicyclo[4.2.0]oct-2-en-3-yl]methyl]-, hydroxide, inner salt, monosodium salt, [6<em>R</em>-[6α,7β(<em>R</em>*)]]-;Pyridinium, 4-(aminocarbonyl)-1-[[(6<em>R</em>,7<em>R</em>)-2-carboxy-8-oxo-7-[[(2<em>R</em>)-phenylsulfoacetyl]amino]-5-thia-1-azabicyclo[4.2.0]oct-2-en-3-yl]methyl]-, inner salt, monosodium salt;7-(<span class=\"text-smallcaps\">D</span>-α-Sulfophenylacetamido)ceph-3-em-3-(4′-carbamoylpyridinium)methyl-4-carboxylate sodium salt;SCE 129;Cefsulodin;Cefsulodin sodium;CGP 7174E;Monosodium cefsulodin;<span class=\"text-smallcaps\">D</span>-(-)-SCE-129;Takesulin;Tilmapor;Sodium cefsulodin;Pyridinium, 4-(aminocarbonyl)-1-[[2-carboxy-8-oxo-7-[(phenylsulfoacetyl)amino]-5-thia-1-azabicyclo[4.2.0]oct-2-en-3-yl]methyl]-, inner salt, monosodium salt, [6<em>R</em>-[6α,7β(<em>R</em>*)]]-;Pseudomonil;Sulcephalosporin;Abbot 46811;Cefomonil;Monaspor;Pyocefal;Ulfar;Pseudocef;MeSH ID: D002441",
    "duplicated_cas_no": "",
    "SMILES": "C([O-])(=O)C=1N2[C@@]([C@H](NC([C@H](S(=O)(=O)O)C3=CC=CC=C3)=O)C2=O)(SCC1C[N+]=4C=CC(C(N)=O)=CC4)[H].[Na]",
    "meta_data": {
        "InChI": "InChI=1S/C22H20N4O8S2.Na/c23-18(27)13-6-8-25(9-7-13)10-14-11-35-21-15(20(29)26(21)16(14)22(30)31)24-19(28)17(36(32,33)34)12-4-2-1-3-5-12;/h1-9,15,17,21H,10-11H2,(H4-,23,24,27,28,30,31,32,33,34);/t15-,17-,21-;/m1./s1",
        "InChIKey": null,
        "Canonical SMILES": "[Na].O=C([O-])C1=C(CSC2N1C(=O)C2NC(=O)C(C=3C=CC=CC3)S(=O)(=O)O)C[N+]4=CC=C(C=C4)C(=O)N",
        "Molecular Formula": "C<sub>22</sub>H<sub>20</sub>N<sub>4</sub>O<sub>8</sub>S<sub>2</sub>.Na",
        "Molecular Mass": "",
        "Melting Point": "175 °C (decomp)"
    }
}