{
    "cas_no": "42858-60-6",
    "key_name": "3,5-Dioxocyclohexanecarboxylic acid",
    "cn_name": "3,5-二氧代环己烷羧酸;",
    "alternate_name": "Cyclohexanecarboxylic acid, 3,5-dioxo-;3,5-Dioxocyclohexanecarboxylic acid;5-Carboxy-1,3-cyclohexanedione;Dihydroresorcylic acid;Dihydro-α-resorcylic acid;3,5-Dioxocyclohexane-1-carboxylic acid",
    "duplicated_cas_no": "",
    "SMILES": "C(O)(=O)C1CC(=O)CC(=O)C1",
    "meta_data": {
        "InChI": "InChI=1S/C7H8O4/c8-5-1-4(7(10)11)2-6(9)3-5/h4H,1-3H2,(H,10,11)",
        "InChIKey": null,
        "Canonical SMILES": "O=C(O)C1CC(=O)CC(=O)C1",
        "Molecular Formula": "C<sub>7</sub>H<sub>8</sub>O<sub>4</sub>",
        "Molecular Mass": "156.14",
        "Melting Point": "178.5-180 °C"
    }
}