{
    "cas_no": "17348-59-3",
    "key_name": "2-Methyl-2-(1-methylethoxy)propane",
    "cn_name": "叔丁基异丙基醚;",
    "alternate_name": "Propane, 2-methyl-2-(1-methylethoxy)-;Ether, <em>tert</em>-butyl isopropyl;2-Methyl-2-(1-methylethoxy)propane;<em>tert</em>-Butyl isopropyl ether;Isopropyl <em>tert</em>-butyl ether;2-Isopropoxy-2-methylpropane;2-Methyl-2-propan-2-yloxypropane;2-Methyl-2-(propan-2-yloxy)propane",
    "duplicated_cas_no": "",
    "SMILES": "O(C(C)(C)C)C(C)C",
    "meta_data": {
        "InChI": "InChI=1S/C7H16O/c1-6(2)8-7(3,4)5/h6H,1-5H3",
        "InChIKey": null,
        "Canonical SMILES": "O(C(C)C)C(C)(C)C",
        "Molecular Formula": "C<sub>7</sub>H<sub>16</sub>O",
        "Molecular Mass": "116.20",
        "Boiling Point": "87.6 °C",
        "Melting Point": "-88 °C",
        "Density": "0.742 g/cm³ @ Temp: 20 °C"
    }
}