{
    "cas_no": "4032-86-4",
    "key_name": "3,3-Dimethylheptane",
    "cn_name": null,
    "alternate_name": "Heptane, 3,3-dimethyl-;3,3-Dimethylheptane",
    "duplicated_cas_no": "",
    "SMILES": "C(CCCC)(CC)(C)C",
    "meta_data": {
        "InChI": "InChI=1S/C9H20/c1-5-7-8-9(3,4)6-2/h5-8H2,1-4H3",
        "InChIKey": null,
        "Canonical SMILES": "CCCCC(C)(C)CC",
        "Molecular Formula": "C<sub>9</sub>H<sub>20</sub>",
        "Molecular Mass": "128.26",
        "Boiling Point": "137.3 °C",
        "Density": "0.7304 g/cm³ @ Temp: 20 °C"
    }
}