{
    "cas_no": "6134-66-3",
    "key_name": "Butanoic acid, 2,2-dichloro-3-oxo-, ethyl ester",
    "cn_name": null,
    "alternate_name": "Butanoic acid, 2,2-dichloro-3-oxo-, ethyl ester;Acetoacetic acid, 2,2-dichloro-, ethyl ester;Ethyl α,α-dichloroacetoacetate;Ethyl 2,2-dichloroacetoacetate;2,2-Dichloro-3-oxobutanoic acid ethyl ester;Ethyl 2,2-dichloro-3-oxobutanoate",
    "duplicated_cas_no": "",
    "SMILES": "C(C(OCC)=O)(C(C)=O)(Cl)Cl",
    "meta_data": {
        "InChI": "InChI=1S/C6H8Cl2O3/c1-3-11-5(10)6(7,8)4(2)9/h3H2,1-2H3",
        "InChIKey": null,
        "Canonical SMILES": "O=C(OCC)C(Cl)(Cl)C(=O)C",
        "Molecular Formula": "C<sub>6</sub>H<sub>8</sub>Cl<sub>2</sub>O<sub>3</sub>",
        "Molecular Mass": "199.03",
        "Boiling Point": "206 °C",
        "Density": "1.2853 g/cm³ @ Temp: 20 °C"
    }
}