{
    "cas_no": "20859-73-8",
    "key_name": "Aluminum phosphide",
    "cn_name": "磷化铝;",
    "alternate_name": "Aluminum phosphide (AlP);Celphos;Delicia Gastoxin;Delicia;Detia Gas Ex-B;Phostoxin;Aluminium phosphide (AlP);Aluminum monophosphide;Detia-Ex-B;Phostoxin A;Gastion;Phosfume;Aluminum phosphide;Epifume",
    "duplicated_cas_no": "1302-45-0;8005-48-9;71751-04-7;182321-38-6;2395838-76-1",
    "SMILES": "[Al]#P",
    "meta_data": {
        "InChI": "InChI=1S/Al.P",
        "InChIKey": null,
        "Canonical SMILES": "[Al]#P",
        "Molecular Formula": "AlP",
        "Molecular Mass": "",
        "Melting Point": "2550 °C",
        "Density": "2.85 g/cm³ @ Temp: 15 °C"
    }
}