{
    "cas_no": "110-36-1",
    "key_name": "Butyl myristate",
    "cn_name": "十四烷酸丁基酯;肉豆蔻酸丁酯;正丁基十四烷酸酯;",
    "alternate_name": "Tetradecanoic acid, butyl ester;Myristic acid, butyl ester;Butyl myristate;Butyl tetradecanoate;Crodamol BM;NSC 4814",
    "duplicated_cas_no": "",
    "SMILES": "C(CCCCCCCCCCCC)C(OCCCC)=O",
    "meta_data": {
        "InChI": "InChI=1S/C18H36O2/c1-3-5-7-8-9-10-11-12-13-14-15-16-18(19)20-17-6-4-2/h3-17H2,1-2H3",
        "InChIKey": null,
        "Canonical SMILES": "O=C(OCCCC)CCCCCCCCCCCCC",
        "Molecular Formula": "C<sub>18</sub>H<sub>36</sub>O<sub>2</sub>",
        "Molecular Mass": "284.48",
        "Boiling Point": "125 °C",
        "Melting Point": "163-165 °C"
    }
}