{
    "cas_no": "4528-64-7",
    "key_name": "4,4-Diphenyl-2-cyclohexen-1-one",
    "cn_name": "4,4-二苯基-2-环己烯-1-酮;",
    "alternate_name": "2-Cyclohexen-1-one, 4,4-diphenyl-;4,4-Diphenyl-2-cyclohexen-1-one;4,4-Diphenyl-2-cyclohexenone;NSC 82171;2′<em>H</em>-[1,1′:1′,1′′-Terphenyl]-4′(3′<em>H</em>)-one",
    "duplicated_cas_no": "",
    "SMILES": "O=C1CCC(C=C1)(C2=CC=CC=C2)C3=CC=CC=C3",
    "meta_data": {
        "InChI": "InChI=1S/C18H16O/c19-17-11-13-18(14-12-17,15-7-3-1-4-8-15)16-9-5-2-6-10-16/h1-11,13H,12,14H2",
        "InChIKey": null,
        "Canonical SMILES": "O=C1C=CC(C=2C=CC=CC2)(C=3C=CC=CC3)CC1",
        "Molecular Formula": "C<sub>18</sub>H<sub>16</sub>O",
        "Molecular Mass": "248.32",
        "Melting Point": "88.0-90.5 °C"
    }
}