{
    "cas_no": "5345-54-0",
    "key_name": "3-Chloro-4-methoxyaniline",
    "cn_name": "3-氯-4-甲氧基苯胺;2-氯-4-氨基苯甲醚;邻氯对氨基苯甲醚;",
    "alternate_name": "Benzenamine, 3-chloro-4-methoxy-;<em>p</em>-Anisidine, 3-chloro-;3-Chloro-4-methoxybenzenamine;2-Chloro-4-aminoanisole;3-Chloro-4-methoxyaniline;3-Chloro-<em>p</em>-anisidine;4-Methoxy-3-chloroaniline;3-Chloro-4-methoxyphenylamine;3-Chloro-4-anisidine;NSC 1706;3-Chloro-4-(methyloxy)aniline",
    "duplicated_cas_no": "",
    "SMILES": "O(C)C1=C(Cl)C=C(N)C=C1",
    "meta_data": {
        "InChI": "InChI=1S/C7H8ClNO/c1-10-7-3-2-5(9)4-6(7)8/h2-4H,9H2,1H3",
        "InChIKey": null,
        "Canonical SMILES": "ClC1=CC(N)=CC=C1OC",
        "Molecular Formula": "C<sub>7</sub>H<sub>8</sub>ClNO",
        "Molecular Mass": "157.60",
        "Melting Point": "50-55 °C"
    }
}