{
    "cas_no": "336-59-4",
    "key_name": "Heptafluorobutyric anhydride",
    "cn_name": "七氟丁酸酐;全氟丁酸酐;",
    "alternate_name": "Butanoic acid, 2,2,3,3,4,4,4-heptafluoro-, 1,1′-anhydride;Butyric acid, heptafluoro-, anhydride;Butanoic acid, heptafluoro-, anhydride;Heptafluorobutyric anhydride;Perfluorobutyric anhydride;Heptafluorobutyric acid anhydride;Heptafluorobutyryl anhydride;Perfluorobutanoic anhydride;Heptafluorobutanoic anhydride;HFBA;2,2,3,3,4,4,4-Heptafluorobutanoyl 2,2,3,3,4,4,4-heptafluorobutanoate",
    "duplicated_cas_no": "",
    "SMILES": "C(C(C(F)(F)F)(F)F)(C(OC(C(C(C(F)(F)F)(F)F)(F)F)=O)=O)(F)F",
    "meta_data": {
        "InChI": "InChI=1S/C8F14O3/c9-3(10,5(13,14)7(17,18)19)1(23)25-2(24)4(11,12)6(15,16)8(20,21)22",
        "InChIKey": null,
        "Canonical SMILES": "O=C(OC(=O)C(F)(F)C(F)(F)C(F)(F)F)C(F)(F)C(F)(F)C(F)(F)F",
        "Molecular Formula": "C<sub>8</sub>F<sub>14</sub>O<sub>3</sub>",
        "Molecular Mass": "410.06",
        "Boiling Point": "106.5 °C",
        "Melting Point": "-43 °C"
    }
}