{
    "cas_no": "72300-69-7",
    "key_name": "(2<em>R</em>)-2-Pyrrolidinemethanamine",
    "cn_name": "(R)-2-(氨甲基)吡咯烷;",
    "alternate_name": "2-Pyrrolidinemethanamine, (2<em>R</em>)-;2-Pyrrolidinemethanamine, (<em>R</em>)-;(2<em>R</em>)-2-Pyrrolidinemethanamine;(<em>R</em>)-2-(Aminomethyl)pyrrolidine;(<em>R</em>)-2-Pyrrolidinemethanamine;[(2<em>R</em>)-2-Pyrrolidinylmethyl]amine;(R)-Pyrrolidin-2-ylmethanamine;[((2<em>R</em>)-2-Pyrrolidinyl)methyl]amine;(R)-2-Aminomethylpyrrolidine;[(2R)-Pyrrolidin-2-yl]methanamine;1-[(2R)-2-Pyrrolidinyl]methanamine",
    "duplicated_cas_no": "",
    "SMILES": "C(N)[C@H]1CCCN1",
    "meta_data": {
        "InChI": "InChI=1S/C5H12N2/c6-4-5-2-1-3-7-5/h5,7H,1-4,6H2/t5-/m1/s1",
        "InChIKey": null,
        "Canonical SMILES": "NCC1NCCC1",
        "Molecular Formula": "C<sub>5</sub>H<sub>12</sub>N<sub>2</sub>",
        "Molecular Mass": "100.16",
        "Boiling Point": "79-85 °C @ Press: 20 Torr"
    }
}