{
    "cas_no": "546-28-1",
    "key_name": "(+)-β-Cedrene",
    "cn_name": "B-柏木烯;B-柏木烯;",
    "alternate_name": "1<em>H</em>-3a,7-Methanoazulene, octahydro-3,8,8-trimethyl-6-methylene-, (3<em>R</em>,3a<em>S</em>,7<em>S</em>,8a<em>S</em>)-;Cedr-8(15)-ene;β-Cedrene;1<em>H</em>-3a,7-Methanoazulene, octahydro-3,8,8-trimethyl-6-methylene-, [3<em>R</em>-(3α,3aβ,7β,8aα)]-;(3<em>R</em>,3a<em>S</em>,7<em>S</em>,8a<em>S</em>)-Octahydro-3,8,8-trimethyl-6-methylene-1<em>H</em>-3a,7-methanoazulene;(+)-β-Cedrene;(+)-β-Funebrene",
    "duplicated_cas_no": "2258642-97-4",
    "SMILES": "C[C@H]1[C@@]23[C@](C(C)(C)[C@@](C2)(C(=C)CC3)[H])(CC1)[H]",
    "meta_data": {
        "InChI": "InChI=1S/C15H24/c1-10-7-8-15-9-12(10)14(3,4)13(15)6-5-11(15)2/h11-13H,1,5-9H2,2-4H3/t11-,12+,13+,15+/m1/s1",
        "InChIKey": null,
        "Canonical SMILES": "C=C1CCC23CC1C(C)(C)C3CCC2C",
        "Molecular Formula": "C<sub>15</sub>H<sub>24</sub>",
        "Molecular Mass": "204.35",
        "Boiling Point": "89 °C @ Press: 0.2 Torr",
        "Density": "0.935 g/cm³ @ Temp: 20 °C"
    }
}