{
    "cas_no": "13647-35-3",
    "key_name": "Trilostane",
    "cn_name": "曲洛斯坦;",
    "alternate_name": "Androst-2-ene-2-carbonitrile, 4,5-epoxy-3,17-dihydroxy-, (4α,5α,17β)-;(4α,5α,17β)-4,5-Epoxy-3,17-dihydroxyandrost-2-ene-2-carbonitrile;Trilostane;Win 24540;Modrenal;Modrefen;Desopan;Modrastane;Vetoryl",
    "duplicated_cas_no": "27107-98-8;28414-46-2",
    "SMILES": "C[C@@]12[C@]3([C@](O3)(C(O)=C(C#N)C1)[H])CC[C@@]4([C@@]2(CC[C@@]5(C)[C@]4(CC[C@@H]5O)[H])[H])[H]",
    "meta_data": {
        "InChI": "InChI=1S/C20H27NO3/c1-18-7-6-14-12(13(18)3-4-15(18)22)5-8-20-17(24-20)16(23)11(10-21)9-19(14,20)2/h12-15,17,22-23H,3-9H2,1-2H3/t12-,13-,14-,15-,17+,18-,19+,20+/m0/s1",
        "InChIKey": null,
        "Canonical SMILES": "N#CC1=C(O)C2OC32CCC4C5CCC(O)C5(C)CCC4C3(C)C1",
        "Molecular Formula": "C<sub>20</sub>H<sub>27</sub>NO<sub>3</sub>",
        "Molecular Mass": "329.43",
        "Melting Point": "264 °C (decomp)"
    }
}