{
    "cas_no": "3978-81-2",
    "key_name": "4-<em>tert</em>-Butylpyridine",
    "cn_name": "叔丁基吡啶;4-叔丁基吡啶;特丁基吡啶;",
    "alternate_name": "Pyridine, 4-(1,1-dimethylethyl)-;Pyridine, 4-<em>tert</em>-butyl-;4-(1,1-Dimethylethyl)pyridine;4-<em>t</em>-Butylpyridine;4-<em>tert</em>-Butylpyridine;<em>p</em>-<em>tert</em>-Butylpyridine;NSC 5104",
    "duplicated_cas_no": "",
    "SMILES": "C(C)(C)(C)C=1C=CN=CC1",
    "meta_data": {
        "InChI": "InChI=1S/C9H13N/c1-9(2,3)8-4-6-10-7-5-8/h4-7H,1-3H3",
        "InChIKey": null,
        "Canonical SMILES": "N=1C=CC(=CC1)C(C)(C)C",
        "Molecular Formula": "C<sub>9</sub>H<sub>13</sub>N",
        "Molecular Mass": "135.21",
        "Boiling Point": "196.5 °C",
        "Melting Point": "-41 °C",
        "Density": "0.915 g/cm³"
    }
}