{
    "cas_no": "103-25-3",
    "key_name": "Methyl 3-phenylpropionate",
    "cn_name": "3-苯丙酸甲酯;",
    "alternate_name": "Benzenepropanoic acid, methyl ester;Hydrocinnamic acid, methyl ester;Methyl hydrocinnamate;Methyl β-phenylpropionate;β-Phenylpropionic acid methyl ester;Methyl 3-phenylpropionate;Dihydrocinnamic acid methyl ester;Methyl 3-phenylpropanoate;Methyl benzenepropanoate;Methyl dihydrocinnamate;3-Phenylpropionic acid methyl ester;NSC 10128;NSC 404188;3-Phenylpropanoic acid methyl ester",
    "duplicated_cas_no": "",
    "SMILES": "C(CC(OC)=O)C1=CC=CC=C1",
    "meta_data": {
        "InChI": "InChI=1S/C10H12O2/c1-12-10(11)8-7-9-5-3-2-4-6-9/h2-6H,7-8H2,1H3",
        "InChIKey": null,
        "Canonical SMILES": "O=C(OC)CCC=1C=CC=CC1",
        "Molecular Formula": "C<sub>10</sub>H<sub>12</sub>O<sub>2</sub>",
        "Molecular Mass": "164.20",
        "Boiling Point": "238.5 °C",
        "Melting Point": "142-145 °C"
    }
}