{
    "cas_no": "103-03-7",
    "key_name": "1-Phenylsemicarbazide",
    "cn_name": "苯胺脲;乙酰替苯氨基脲;1-苯基半氨基脲;",
    "alternate_name": "Hydrazinecarboxamide, 2-phenyl-;Semicarbazide, 1-phenyl-;2-Phenylhydrazinecarboxamide;Cryogenine;Cryogenine (pharmaceutical);Phenylsemicarbazide;1-Phenylsemicarbazide;1-Carbamyl-2-phenylhydrazine;Phenicarbazide;Carbaphen;Febrimin;Phenicarbazid;Phenygenine;1-Carbamoyl-2-phenylhydrazine;Kryogenin;NSC 2763;(Phenylamino)urea",
    "duplicated_cas_no": "",
    "SMILES": "N(NC(N)=O)C1=CC=CC=C1",
    "meta_data": {
        "InChI": "InChI=1S/C7H9N3O/c8-7(11)10-9-6-4-2-1-3-5-6/h1-5,9H,(H3,8,10,11)",
        "InChIKey": null,
        "Canonical SMILES": "O=C(N)NNC=1C=CC=CC1",
        "Molecular Formula": "C<sub>7</sub>H<sub>9</sub>N<sub>3</sub>O",
        "Molecular Mass": "151.17",
        "Melting Point": "172 °C"
    }
}