{
    "cas_no": "37762-06-4",
    "key_name": "Zaprinast",
    "cn_name": "2-(2-丙氧苯基)-6-羟基-8-氮杂嘌呤;2-(2-丙氧苯基)-8-氮杂次黄嘌呤;",
    "alternate_name": "7<em>H</em>-1,2,3-Triazolo[4,5-<em>d</em>]pyrimidin-7-one, 3,6-dihydro-5-(2-propoxyphenyl)-;7<em>H</em>-1,2,3-Triazolo[4,5-<em>d</em>]pyrimidin-7-one, 1,4-dihydro-5-(2-propoxyphenyl)-;3,6-Dihydro-5-(2-propoxyphenyl)-7<em>H</em>-1,2,3-triazolo[4,5-<em>d</em>]pyrimidin-7-one;8-Aza-2-(2-propoxyphenyl)-6-purinone;2-(<em>o</em>-Propoxyphenyl)-8-azapurin-6-one;M&amp;B 22,948;M and B 22948;Zaprinast;2-(2-Propoxyphenyl)-8-aza-6-purinone;5-(2-Propoxyphenyl)-1<em>H</em>-[1,2,3]triazolo[4,5-<em>d</em>]pyrimidin-7(4<em>H</em>)-one;M&amp;B 22948",
    "duplicated_cas_no": "55122-20-8;68560-67-8",
    "SMILES": "O(CCC)C1=C(C=CC=C1)C=2NC3=C(C(=O)N2)NN=N3",
    "meta_data": {
        "InChI": "InChI=1S/C13H13N5O2/c1-2-7-20-9-6-4-3-5-8(9)11-14-12-10(13(19)15-11)16-18-17-12/h3-6H,2,7H2,1H3,(H2,14,15,16,17,18,19)",
        "InChIKey": null,
        "Canonical SMILES": "O=C1N=C(NC=2N=NNC12)C=3C=CC=CC3OCCC",
        "Molecular Formula": "C<sub>13</sub>H<sub>13</sub>N<sub>5</sub>O<sub>2</sub>",
        "Molecular Mass": "271.27",
        "Melting Point": "241 °C (decomp)"
    }
}