{
    "cas_no": "38064-90-3",
    "key_name": "2,4-Dimethoxytoluene",
    "cn_name": "2,4-二甲氧基甲苯;",
    "alternate_name": "Benzene, 2,4-dimethoxy-1-methyl-;Toluene, 2,4-dimethoxy-;2,4-Dimethoxy-1-methylbenzene;2,4-Dimethoxytoluene;4-Methylresorcinol dimethyl ether;1,3-Dimethoxy-4-methylbenzene;1-Methyl-2,4-dimethoxybenzene;4-Methyl-1,3-dimethoxybenzene;NSC 72351",
    "duplicated_cas_no": "",
    "SMILES": "O(C)C1=CC(OC)=CC=C1C",
    "meta_data": {
        "InChI": "InChI=1S/C9H12O2/c1-7-4-5-8(10-2)6-9(7)11-3/h4-6H,1-3H3",
        "InChIKey": null,
        "Canonical SMILES": "O(C1=CC=C(C(OC)=C1)C)C",
        "Molecular Formula": "C<sub>9</sub>H<sub>12</sub>O<sub>2</sub>",
        "Molecular Mass": "152.19",
        "Boiling Point": "110-120 °C"
    }
}