{
    "cas_no": "22515-18-0",
    "key_name": "4,4-Difluorocyclohexanone",
    "cn_name": "4,4-二氟环已酮;对双氟环己酮;",
    "alternate_name": "Cyclohexanone, 4,4-difluoro-;4,4-Difluorocyclohexanone;4,4-Difluorocyclohexan-1-one",
    "duplicated_cas_no": "",
    "SMILES": "FC1(F)CCC(=O)CC1",
    "meta_data": {
        "InChI": "InChI=1S/C6H8F2O/c7-6(8)3-1-5(9)2-4-6/h1-4H2",
        "InChIKey": null,
        "Canonical SMILES": "O=C1CCC(F)(F)CC1",
        "Molecular Formula": "C<sub>6</sub>H<sub>8</sub>F<sub>2</sub>O",
        "Molecular Mass": "134.12",
        "Melting Point": "31-32 °C"
    }
}