{
    "cas_no": "50440-82-9",
    "key_name": "2-Amino-6-methyl-4(3<em>H</em>)-quinazolinone",
    "cn_name": null,
    "alternate_name": "4(3<em>H</em>)-Quinazolinone, 2-amino-6-methyl-;4(1<em>H</em>)-Quinazolinone, 2-amino-6-methyl-;4-Quinazolinol, 2-amino-6-methyl-;2-Amino-6-methyl-4(3<em>H</em>)-quinazolinone;2-Amino-4-hydroxy-6-methylquinazoline;2-Amino-6-methyl-1<em>H</em>-quinazolin-4-one;2-Amino-6-methyl-3<em>H</em>-quinazolin-4-one;2-Amino-6-methylquinazolin-4-ol;2-Amino-6-methyl-3,4-dihydroquinazolin-4-one",
    "duplicated_cas_no": "",
    "SMILES": "O=C1C=2C(NC(N)=N1)=CC=C(C)C2",
    "meta_data": {
        "InChI": "InChI=1S/C9H9N3O/c1-5-2-3-7-6(4-5)8(13)12-9(10)11-7/h2-4H,1H3,(H3,10,11,12,13)",
        "InChIKey": null,
        "Canonical SMILES": "O=C1N=C(N)NC2=CC=C(C=C12)C",
        "Molecular Formula": "C<sub>9</sub>H<sub>9</sub>N<sub>3</sub>O",
        "Molecular Mass": "175.19",
        "Melting Point": "&gt;250 °C"
    }
}