{
    "cas_no": "20487-40-5",
    "key_name": "<em>tert</em>-Butyl propionate",
    "cn_name": null,
    "alternate_name": "Propanoic acid, 1,1-dimethylethyl ester;Propionic acid, <em>tert</em>-butyl ester;<em>tert</em>-Butyl propionate;1,1-Dimethylethyl propionate;<em>tert</em>-Butyl propanoate;Propionic acid tert-butyl ester",
    "duplicated_cas_no": "",
    "SMILES": "O(C(C)(C)C)C(CC)=O",
    "meta_data": {
        "InChI": "InChI=1S/C7H14O2/c1-5-6(8)9-7(2,3)4/h5H2,1-4H3",
        "InChIKey": null,
        "Canonical SMILES": "O=C(OC(C)(C)C)CC",
        "Molecular Formula": "C<sub>7</sub>H<sub>14</sub>O<sub>2</sub>",
        "Molecular Mass": "130.18",
        "Boiling Point": "118.25 °C",
        "Density": "0.8647 g/cm³ @ Temp: 20 °C"
    }
}