{
    "cas_no": "38289-28-0",
    "key_name": "<em>trans</em>-4-Butylcyclohexanecarboxylic acid",
    "cn_name": null,
    "alternate_name": "Cyclohexanecarboxylic acid, 4-butyl-, <em>trans</em>-;<em>trans</em>-4-Butylcyclohexanecarboxylic acid;<em>trans</em>-4-Butylcyclohexane-1-carboxylic acid;Bucyclic acid;CDB 2725;ZhKM 897;<em>trans</em>-4-Butylcyclohexylcarboxylic acid;<em>trans</em>-4-Butylcyclohexane carboxylate",
    "duplicated_cas_no": "",
    "SMILES": "C(O)(=O)[C@H]1CC[C@H](CCCC)CC1",
    "meta_data": {
        "InChI": "InChI=1/C11H20O2/c1-2-3-4-9-5-7-10(8-6-9)11(12)13/h9-10H,2-8H2,1H3,(H,12,13)/t9-,10-",
        "InChIKey": null,
        "Canonical SMILES": "O=C(O)C1CCC(CCCC)CC1",
        "Molecular Formula": "C<sub>11</sub>H<sub>20</sub>O<sub>2</sub>",
        "Molecular Mass": "184.28",
        "Melting Point": "35.2 °C"
    }
}