{
    "cas_no": "142-16-5",
    "key_name": "Bis(2-ethylhexyl) maleate",
    "cn_name": "马来酸二乙基己酯;马来酸二异辛酯;(Z)-2-丁烯二酸二(2-乙基己基)酯;",
    "alternate_name": "2-Butenedioic acid (2<em>Z</em>)-, 1,4-bis(2-ethylhexyl) ester;Maleic acid, bis(2-ethylhexyl) ester;2-Butenedioic acid (<em>Z</em>)-, bis(2-ethylhexyl) ester;2-Butenedioic acid (2<em>Z</em>)-, bis(2-ethylhexyl) ester;Bis(2-ethylhexyl) maleate;Di-2-ethylhexyl maleate;Dioctyl maleate;DOM;Ceraphyl 45;Activemol DOM-R;Diethylhexyl maleate",
    "duplicated_cas_no": "48075-77-0;77666-69-4",
    "SMILES": "C(COC(/C=C\\C(OCC(CCCC)CC)=O)=O)(CCCC)CC",
    "meta_data": {
        "InChI": "InChI=1/C20H36O4/c1-5-9-11-17(7-3)15-23-19(21)13-14-20(22)24-16-18(8-4)12-10-6-2/h13-14,17-18H,5-12,15-16H2,1-4H3/b14-13-",
        "InChIKey": null,
        "Canonical SMILES": "O=C(OCC(CC)CCCC)C=CC(=O)OCC(CC)CCCC",
        "Molecular Formula": "C<sub>20</sub>H<sub>36</sub>O<sub>4</sub>",
        "Molecular Mass": "340.50",
        "Boiling Point": "164 °C @ Press: 10 Torr",
        "Melting Point": "-60 °C",
        "Density": "0.9436 g/cm³"
    }
}