{
    "cas_no": "102-05-6",
    "key_name": "<em>N</em>-Methyl-<em>N</em>-(phenylmethyl)benzenemethanamine",
    "cn_name": null,
    "alternate_name": "Benzenemethanamine, <em>N</em>-methyl-<em>N</em>-(phenylmethyl)-;Dibenzylamine, <em>N</em>-methyl-;<em>N</em>-Methyl-<em>N</em>-(phenylmethyl)benzenemethanamine;Dibemethine;<em>N</em>,<em>N</em>-Dibenzylmethylamine;Dibenzylmethylamine;Methyldibenzylamine;<em>N</em>-Methyl-<em>N</em>,<em>N</em>-dibenzylamine;<em>N</em>-Methyldibenzylamine;Dibemethin;DBMA;L 566;Revoxyl;<em>N</em>-Benzyl-<em>N</em>-methylbenzylamine;NSC 163900;<em>N</em>-Benzyl-<em>N</em>-methylbenzenemethanamine;<em>N</em>-Benzyl-<em>N</em>-methyl-1-phenylmethanamine",
    "duplicated_cas_no": "",
    "SMILES": "C(N(CC1=CC=CC=C1)C)C2=CC=CC=C2",
    "meta_data": {
        "InChI": "InChI=1S/C15H17N/c1-16(12-14-8-4-2-5-9-14)13-15-10-6-3-7-11-15/h2-11H,12-13H2,1H3",
        "InChIKey": null,
        "Canonical SMILES": "C=1C=CC(=CC1)CN(C)CC=2C=CC=CC2",
        "Molecular Formula": "C<sub>15</sub>H<sub>17</sub>N",
        "Molecular Mass": "211.30",
        "Boiling Point": "304-305 °C @ Press: 765.5 Torr",
        "Melting Point": "50 °C",
        "Density": "0.996 g/cm³ @ Temp: 22 °C"
    }
}