{
    "cas_no": "1653-31-2",
    "key_name": "2-Tridecanol",
    "cn_name": "2-三癸醇;2-十三醇;2-三癸醇;2-十三烷醇;2-三癸醇,97%;",
    "alternate_name": "2-Tridecanol;2-Hydroxytridecane;1-Methyldodecanol;1-Methyl-1-dodecanol;NSC 9499;1-Methyldodecyl alcohol",
    "duplicated_cas_no": "112711-14-5",
    "SMILES": "C(CCCCCCCC)CCC(C)O",
    "meta_data": {
        "InChI": "InChI=1S/C13H28O/c1-3-4-5-6-7-8-9-10-11-12-13(2)14/h13-14H,3-12H2,1-2H3",
        "InChIKey": null,
        "Canonical SMILES": "OC(C)CCCCCCCCCCC",
        "Molecular Formula": "C<sub>13</sub>H<sub>28</sub>O",
        "Molecular Mass": "200.36",
        "Boiling Point": "148-150 °C @ Press: 10 Torr",
        "Melting Point": "23 °C"
    }
}