{
    "cas_no": "54812-56-5",
    "key_name": "Hydrazine, (3-chloro-4-methylphenyl)-, hydrochloride (1:1)",
    "cn_name": "3-氯-4-甲基苯肼盐酸盐;",
    "alternate_name": "Hydrazine, (3-chloro-4-methylphenyl)-, hydrochloride (1:1);Hydrazine, (3-chloro-4-methylphenyl)-, monohydrochloride;Hydrazine, (3-chloro-<em>p</em>-tolyl)-, hydrochloride;(3-Chloro-4-methylphenyl)hydrazine hydrochloride;1-(3-Chloro-4-methylphenyl)hydrazine hydrochloride",
    "duplicated_cas_no": "",
    "SMILES": "N(N)C1=CC(Cl)=C(C)C=C1.Cl",
    "meta_data": {
        "InChI": "InChI=1S/C7H9ClN2.ClH/c1-5-2-3-6(10-9)4-7(5)8;/h2-4,10H,9H2,1H3;1H",
        "InChIKey": null,
        "Canonical SMILES": "Cl.ClC1=CC(=CC=C1C)NN",
        "Molecular Formula": "C<sub>7</sub>H<sub>9</sub>ClN<sub>2</sub>.ClH",
        "Molecular Mass": "",
        "Melting Point": "230.5-231 °C (decomp)"
    }
}