{
    "cas_no": "104227-86-3",
    "key_name": "6-Deoxypenciclovir",
    "cn_name": null,
    "alternate_name": "1,3-Propanediol, 2-[2-(2-amino-9<em>H</em>-purin-9-yl)ethyl]-;2-[2-(2-Amino-9<em>H</em>-purin-9-yl)ethyl]-1,3-propanediol;BRL 42359;6-Deoxypenciclovir;2-[2-(2-Aminopurin-9-yl)ethyl]propane-1,3-diol",
    "duplicated_cas_no": "",
    "SMILES": "C(CC(CO)CO)N1C=2C(N=C1)=CN=C(N)N2",
    "meta_data": {
        "InChI": "InChI=1S/C10H15N5O2/c11-10-12-3-8-9(14-10)15(6-13-8)2-1-7(4-16)5-17/h3,6-7,16-17H,1-2,4-5H2,(H2,11,12,14)",
        "InChIKey": null,
        "Canonical SMILES": "OCC(CO)CCN1C=NC=2C=NC(=NC21)N",
        "Molecular Formula": "C<sub>10</sub>H<sub>15</sub>N<sub>5</sub>O<sub>2</sub>",
        "Molecular Mass": "237.26",
        "Melting Point": "152-154 °C"
    }
}