{
    "cas_no": "141112-29-0",
    "key_name": "Isoxaflutole",
    "cn_name": null,
    "alternate_name": "Methanone, (5-cyclopropyl-4-isoxazolyl)[2-(methylsulfonyl)-4-(trifluoromethyl)phenyl]-;(5-Cyclopropyl-4-isoxazolyl)[2-(methylsulfonyl)-4-(trifluoromethyl)phenyl]methanone;RPA 201772;Isoxaflutole;EXP 31130A;RP 201772;Merlin;Balance;EXP 30953;Balance Pro;Provence;Balance (herbicide);Balance Bean;ForDor WG 75",
    "duplicated_cas_no": "",
    "SMILES": "C(=O)(C1=C(ON=C1)C2CC2)C3=C(S(C)(=O)=O)C=C(C(F)(F)F)C=C3",
    "meta_data": {
        "InChI": "InChI=1S/C15H12F3NO4S/c1-24(21,22)12-6-9(15(16,17)18)4-5-10(12)13(20)11-7-19-23-14(11)8-2-3-8/h4-8H,2-3H2,1H3",
        "InChIKey": null,
        "Canonical SMILES": "O=C(C=1C=NOC1C2CC2)C3=CC=C(C=C3S(=O)(=O)C)C(F)(F)F",
        "Molecular Formula": "C<sub>15</sub>H<sub>12</sub>F<sub>3</sub>NO<sub>4</sub>S",
        "Molecular Mass": "359.32",
        "Melting Point": "140 °C"
    }
}