{
    "cas_no": "764-89-6",
    "key_name": "8-Hydroxyoctanoic acid",
    "cn_name": "8-羟基辛酸;",
    "alternate_name": "Octanoic acid, 8-hydroxy-;8-Hydroxyoctanoic acid;8-Hydroxycaprylic acid",
    "duplicated_cas_no": "",
    "SMILES": "C(CCCCO)CCC(O)=O",
    "meta_data": {
        "InChI": "InChI=1S/C8H16O3/c9-7-5-3-1-2-4-6-8(10)11/h9H,1-7H2,(H,10,11)",
        "InChIKey": null,
        "Canonical SMILES": "O=C(O)CCCCCCCO",
        "Molecular Formula": "C<sub>8</sub>H<sub>16</sub>O<sub>3</sub>",
        "Molecular Mass": "160.21",
        "Melting Point": "51-51.5 °C"
    }
}