{
    "cas_no": "76-84-6",
    "key_name": "Triphenylmethanol",
    "cn_name": "三苯基甲醇;三苯甲醇;",
    "alternate_name": "Benzenemethanol, α,α-diphenyl-;Methanol, triphenyl-;α,α-Diphenylbenzenemethanol;Triphenylcarbinol;Triphenylmethanol;Tritanol;Trityl alcohol;Triphenylmethyl alcohol;BL 3756;Hydroxytriphenylmethane;U 45483;NSC 4050;TrtOH",
    "duplicated_cas_no": "",
    "SMILES": "C(O)(C1=CC=CC=C1)(C2=CC=CC=C2)C3=CC=CC=C3",
    "meta_data": {
        "InChI": "InChI=1S/C19H16O/c20-19(16-10-4-1-5-11-16,17-12-6-2-7-13-17)18-14-8-3-9-15-18/h1-15,20H",
        "InChIKey": null,
        "Canonical SMILES": "OC(C=1C=CC=CC1)(C=2C=CC=CC2)C=3C=CC=CC3",
        "Molecular Formula": "C<sub>19</sub>H<sub>16</sub>O",
        "Molecular Mass": "260.33",
        "Boiling Point": "380 °C",
        "Melting Point": "164.2 °C"
    }
}