{
    "cas_no": "49713-58-8",
    "key_name": "4-Chloro-7-quinolinecarboxylic acid",
    "cn_name": null,
    "alternate_name": "7-Quinolinecarboxylic acid, 4-chloro-;4-Chloro-7-quinolinecarboxylic acid;7-Carboxy-4-chloroquinoline",
    "duplicated_cas_no": "",
    "SMILES": "ClC=1C2=C(C=C(C(O)=O)C=C2)N=CC1",
    "meta_data": {
        "InChI": "InChI=1S/C10H6ClNO2/c11-8-3-4-12-9-5-6(10(13)14)1-2-7(8)9/h1-5H,(H,13,14)",
        "InChIKey": null,
        "Canonical SMILES": "O=C(O)C=1C=CC2=C(Cl)C=CN=C2C1",
        "Molecular Formula": "C<sub>10</sub>H<sub>6</sub>ClNO<sub>2</sub>",
        "Molecular Mass": "207.61",
        "Melting Point": "211 °C"
    }
}