{
    "cas_no": "56341-41-4",
    "key_name": "5-Fluoro-1,3-dihydroindol-2-one",
    "cn_name": "5-氟吲哚-2-酮;5-氟-1,3-二氢吲哚-2-酮;5-氟氧化吲哚;",
    "alternate_name": "2<em>H</em>-Indol-2-one, 5-fluoro-1,3-dihydro-;5-Fluoro-1,3-dihydro-2<em>H</em>-indol-2-one;5-Fluoro-2-oxoindoline;5-Fluorooxindole;5-Fluoro-2-oxindole;5-Fluoro-2,3-dihydro-2-oxoindole;5-Fluoro-1,3-dihydroindol-2-one;5-Fluoroindolin-2-one;5-Fluoro-2,3-dihydroindol-2-one",
    "duplicated_cas_no": "1504576-69-5",
    "SMILES": "O=C1NC=2C(C1)=CC(F)=CC2",
    "meta_data": {
        "InChI": "InChI=1S/C8H6FNO/c9-6-1-2-7-5(3-6)4-8(11)10-7/h1-3H,4H2,(H,10,11)",
        "InChIKey": null,
        "Canonical SMILES": "O=C1NC2=CC=C(F)C=C2C1",
        "Molecular Formula": "C<sub>8</sub>H<sub>6</sub>FNO",
        "Molecular Mass": "151.14",
        "Melting Point": "143-144 °C"
    }
}