{
    "cas_no": "1643-30-7",
    "key_name": "3-(4-Bromophenyl)propionic acid",
    "cn_name": "3-(4-溴苯基)丙酸;对溴苯丙酸;",
    "alternate_name": "Benzenepropanoic acid, 4-bromo-;Hydrocinnamic acid, <em>p</em>-bromo-;4-Bromobenzenepropanoic acid;3-(4-Bromophenyl)propionic acid;4-Bromohydrocinnamic acid;3-(4-Bromophenyl)propanoic acid;4-Bromobenzenepropionic acid",
    "duplicated_cas_no": "",
    "SMILES": "C(CC(O)=O)C1=CC=C(Br)C=C1",
    "meta_data": {
        "InChI": "InChI=1S/C9H9BrO2/c10-8-4-1-7(2-5-8)3-6-9(11)12/h1-2,4-5H,3,6H2,(H,11,12)",
        "InChIKey": null,
        "Canonical SMILES": "O=C(O)CCC1=CC=C(Br)C=C1",
        "Molecular Formula": "C<sub>9</sub>H<sub>9</sub>BrO<sub>2</sub>",
        "Molecular Mass": "229.07",
        "Melting Point": "135 °C"
    }
}