{
    "cas_no": "23784-96-5",
    "key_name": "2-Chloro-5-(chloromethyl)thiophene",
    "cn_name": "2-氯-5-氯甲基噻吩;",
    "alternate_name": "Thiophene, 2-chloro-5-(chloromethyl)-;2-Chloro-5-(chloromethyl)thiophene;5-Chloro-2-(chloromethyl)thiophene;2-(Chloromethyl)-5-chlorothiophene",
    "duplicated_cas_no": "",
    "SMILES": "C(Cl)C=1SC(Cl)=CC1",
    "meta_data": {
        "InChI": "InChI=1S/C5H4Cl2S/c6-3-4-1-2-5(7)8-4/h1-2H,3H2",
        "InChIKey": null,
        "Canonical SMILES": "ClC=1SC(=CC1)CCl",
        "Molecular Formula": "C<sub>5</sub>H<sub>4</sub>Cl<sub>2</sub>S",
        "Molecular Mass": "167.06",
        "Boiling Point": "67-68 °C @ Press: 1 Torr",
        "Density": "1.385 g/cm³ @ Temp: 25 °C"
    }
}