{
    "cas_no": "1862-07-3",
    "key_name": "6-(Dimethylamino)-1-hexanol",
    "cn_name": "6-二甲胺基-1-己醇;6-二甲胺基-1-己醇;",
    "alternate_name": "1-Hexanol, 6-(dimethylamino)-;6-(Dimethylamino)-1-hexanol;6-(Dimethylamino)hexanol;Kaolizer 25;(6-Hydroxyhexyl)dimethylamine;NSC 165607;Kao 25;KL 25",
    "duplicated_cas_no": "",
    "SMILES": "C(CCCCO)CN(C)C",
    "meta_data": {
        "InChI": "InChI=1S/C8H19NO/c1-9(2)7-5-3-4-6-8-10/h10H,3-8H2,1-2H3",
        "InChIKey": null,
        "Canonical SMILES": "OCCCCCCN(C)C",
        "Molecular Formula": "C<sub>8</sub>H<sub>19</sub>NO",
        "Molecular Mass": "145.24",
        "Boiling Point": "120-125 °C @ Press: 12 Torr"
    }
}