{
    "cas_no": "778-94-9",
    "key_name": "2-Nitro-4-(trifluoromethyl)benzonitrile",
    "cn_name": null,
    "alternate_name": "Benzonitrile, 2-nitro-4-(trifluoromethyl)-;<em>p</em>-Tolunitrile, α,α,α-trifluoro-2-nitro-;2-Nitro-4-(trifluoromethyl)benzonitrile;2-Nitro-4-trifluoromethylbenzonitrile;NSC 88323;2-Nitro-4-(trifluoromethyl)benzenecarbonitrile",
    "duplicated_cas_no": "",
    "SMILES": "N(=O)(=O)C1=C(C#N)C=CC(C(F)(F)F)=C1",
    "meta_data": {
        "InChI": "InChI=1S/C8H3F3N2O2/c9-8(10,11)6-2-1-5(4-12)7(3-6)13(14)15/h1-3H",
        "InChIKey": null,
        "Canonical SMILES": "N#CC1=CC=C(C=C1N(=O)=O)C(F)(F)F",
        "Molecular Formula": "C<sub>8</sub>H<sub>3</sub>F<sub>3</sub>N<sub>2</sub>O<sub>2</sub>",
        "Molecular Mass": "216.12",
        "Boiling Point": "156-158 °C @ Press: 18-19 Torr",
        "Melting Point": "47-48 °C"
    }
}