{
    "cas_no": "19506-87-7",
    "key_name": "1,3-Dihydro-α-methyl-1,3-dioxo-2<em>H</em>-isoindole-2-acetic acid",
    "cn_name": "2-苯二甲酰亚氨基丙酸;",
    "alternate_name": "2<em>H</em>-Isoindole-2-acetic acid, 1,3-dihydro-α-methyl-1,3-dioxo-;2-Isoindolineacetic acid, α-methyl-1,3-dioxo-;1,3-Dihydro-α-methyl-1,3-dioxo-2<em>H</em>-isoindole-2-acetic acid;Alanine, <em>N</em>-phthaloyl-;2-Phthalimidopropionic acid;1,3-Dihydro-1,3-dioxo-α-methyl-2<em>H</em>-isoindole-2-acetic acid;<em>N</em>-Phthalyl-<span class=\"text-smallcaps\">DL</span>-alanine;<em>N</em>-Phthaloyl-<span class=\"text-smallcaps\">DL</span>-alanine;NSC 13404;2-(1,3-Dihydro-1,3-dioxo-2<em>H</em>-isoindol-2-yl)propanoic acid;<span class=\"text-smallcaps\">D</smallcap><smallcap>L</span>-<em>N</em>-Phthaloylalanine;2-(1,3-Dioxoisoindolin-2-yl)propanoic acid;2-Phthalimidopropanoic acid;2-(1,3-Dioxo-1,3-dihydro-2<em>H</em>-isoindol-2-yl)propanoic acid;2-(1,3-Dioxo-2,3-dihydro-1<em>H</em>-isoindol-2-yl)propanoic acid",
    "duplicated_cas_no": "21860-84-4",
    "SMILES": "C(C(O)=O)(C)N1C(=O)C=2C(C1=O)=CC=CC2",
    "meta_data": {
        "InChI": "InChI=1S/C11H9NO4/c1-6(11(15)16)12-9(13)7-4-2-3-5-8(7)10(12)14/h2-6H,1H3,(H,15,16)",
        "InChIKey": null,
        "Canonical SMILES": "O=C(O)C(N1C(=O)C=2C=CC=CC2C1=O)C",
        "Molecular Formula": "C<sub>11</sub>H<sub>9</sub>NO<sub>4</sub>",
        "Molecular Mass": "219.19",
        "Melting Point": "164 °C"
    }
}