{
    "cas_no": "106-29-6",
    "key_name": "Geranyl butyrate",
    "cn_name": "丁酸香叶酯;酪酸香叶酯;拢牛儿醇丁酸酯;3,7-二甲基-2,6-辛二烯-1-丁酸酯;(E)-丁酸-3,7-二甲基-2,6-辛二烯酯;",
    "alternate_name": "Butanoic acid, (2<em>E</em>)-3,7-dimethyl-2,6-octadien-1-yl ester;Butyric acid, 3,7-dimethyl-2,6-octadienyl ester, (<em>E</em>)-;Butanoic acid, 3,7-dimethyl-2,6-octadienyl ester, (<em>E</em>)-;Butyric acid, geranyl ester;Butanoic acid, (2<em>E</em>)-3,7-dimethyl-2,6-octadienyl ester;2,6-Octadien-1-ol, 3,7-dimethyl-, butyrate, (<em>E</em>)-;<em>trans</em>-3,7-Dimethyl-2,6-octadien-1-yl butyrate;Geraniol butyrate;Geranyl butyrate;Geranyl <em>n</em>-butyrate;Geranyl butanoate;AG 76;NSC 46146;NSC 70177",
    "duplicated_cas_no": "",
    "SMILES": "C(=C/COC(CCC)=O)(\\CCC=C(C)C)/C",
    "meta_data": {
        "InChI": "InChI=1S/C14H24O2/c1-5-7-14(15)16-11-10-13(4)9-6-8-12(2)3/h8,10H,5-7,9,11H2,1-4H3/b13-10+",
        "InChIKey": null,
        "Canonical SMILES": "O=C(OCC=C(C)CCC=C(C)C)CCC",
        "Molecular Formula": "C<sub>14</sub>H<sub>24</sub>O<sub>2</sub>",
        "Molecular Mass": "224.34",
        "Boiling Point": "126-128 °C @ Press: 9 Torr",
        "Density": "0.891-0.895 g/cm³ @ Temp: 25 °C"
    }
}