{
    "cas_no": "3470-50-6",
    "key_name": "3,4-Dihydro-6-hydroxy-1(2<em>H</em>)-naphthalenone",
    "cn_name": "6-羟基-3,4-二氢-2H-1-萘酮;6-羟基-1-四氢萘酮;",
    "alternate_name": "1(2<em>H</em>)-Naphthalenone, 3,4-dihydro-6-hydroxy-;3,4-Dihydro-6-hydroxy-1(2<em>H</em>)-naphthalenone;6-Hydroxy-1-tetralone;6-Hydroxy-α-tetralone;6-Hydroxy-3,4-dihydronaphthalen-1(2<em>H</em>)-one;3,4-Dihydro-6-hydroxy-1(2<em>H</em>)-Naphthalenone;6-Hydroxy-3,4-dihydro-2<em>H</em>-naphthalen-1-one;6-Hydroxy-3,4-dihydronaphthalene-1(2<em>H</em>)-one;6-Hydroxy-1,2,3,4-tetrahydronaphthalen-1-one;1,2,3,4-Tetrahydro-6-hydroxynaphthyl-1-one;6-Hydroxytetralin-1-one",
    "duplicated_cas_no": "",
    "SMILES": "O=C1C=2C(=CC(O)=CC2)CCC1",
    "meta_data": {
        "InChI": "InChI=1S/C10H10O2/c11-8-4-5-9-7(6-8)2-1-3-10(9)12/h4-6,11H,1-3H2",
        "InChIKey": null,
        "Canonical SMILES": "O=C1C2=CC=C(O)C=C2CCC1",
        "Molecular Formula": "C<sub>10</sub>H<sub>10</sub>O<sub>2</sub>",
        "Molecular Mass": "162.19",
        "Melting Point": "150 °C"
    }
}