{
    "cas_no": "480-96-6",
    "key_name": "Benzofuroxan",
    "cn_name": "苯并呋咱;苯并-2,1,3-恶二唑-1-氧化物;",
    "alternate_name": "2,1,3-Benzoxadiazole, 1-oxide;Benzofurazan, 1-oxide;Benzofurazan oxide;Benzofuroxan;Benzofuroxane;Benzofurazan <em>N</em>-oxide;KIH 403;NSC 19930;2,1,3-Benzoxadiazol-1-ium-1-olate;3-Oxido-2,1,3-benzoxadiazol-3-ium",
    "duplicated_cas_no": "114044-18-7;54182-68-2;60295-94-5;68100-26-5",
    "SMILES": "O=N1=C2C(C=CC=C2)=NO1",
    "meta_data": {
        "InChI": "InChI=1S/C6H4N2O2/c9-8-6-4-2-1-3-5(6)7-10-8/h1-4H",
        "InChIKey": null,
        "Canonical SMILES": "O=N=1ON=C2C=CC=CC21",
        "Molecular Formula": "C<sub>6</sub>H<sub>4</sub>N<sub>2</sub>O<sub>2</sub>",
        "Molecular Mass": "136.11",
        "Melting Point": "70 °C",
        "Density": "1.44 g/cm³"
    }
}