{
    "cas_no": "99614-01-4",
    "key_name": "Ondansetron hydrochloride",
    "cn_name": null,
    "alternate_name": "4<em>H</em>-Carbazol-4-one, 1,2,3,9-tetrahydro-9-methyl-3-[(2-methyl-1<em>H</em>-imidazol-1-yl)methyl]-, hydrochloride (1:1);4<em>H</em>-Carbazol-4-one, 1,2,3,9-tetrahydro-9-methyl-3-[(2-methyl-1<em>H</em>-imidazol-1-yl)methyl]-, monohydrochloride;GR 38032F;Ondansetron hydrochloride;SN 307;NSC 665799;1,2,3,4-Tetrahydro-9-methyl-3-[(2-methyl-1<em>H</em>-imidazol-1-yl)methyl]-9<em>H</em>-carbazol-4-one hydrochloride;Osetron;Emeset",
    "duplicated_cas_no": "110204-46-1;110707-92-1",
    "SMILES": "O=C1C=2C=3C(N(C)C2CCC1CN4C(C)=NC=C4)=CC=CC3.Cl",
    "meta_data": {
        "InChI": "InChI=1S/C18H19N3O.ClH/c1-12-19-9-10-21(12)11-13-7-8-16-17(18(13)22)14-5-3-4-6-15(14)20(16)2;/h3-6,9-10,13H,7-8,11H2,1-2H3;1H",
        "InChIKey": null,
        "Canonical SMILES": "Cl.O=C1C=2C=3C=CC=CC3N(C2CCC1CN4C=CN=C4C)C",
        "Molecular Formula": "C<sub>18</sub>H<sub>19</sub>N<sub>3</sub>O.ClH",
        "Molecular Mass": "",
        "Melting Point": "178.5-179.5 °C"
    }
}