{
    "cas_no": "866-55-7",
    "key_name": "Diethyltin dichloride",
    "cn_name": "二乙基二氯化锡;二氯二乙基锡;",
    "alternate_name": "Stannane, dichlorodiethyl-;Tin, diethyl-, dichloride;Dichlorodiethylstannane;Diethyltin dichloride;Diethyldichlorostannane;Dichlorodiethyltin;Diethyldichlorotin;Diethylstannyl dichloride;NSC 302600",
    "duplicated_cas_no": "69112-91-0",
    "SMILES": "[Sn](CC)(CC)(Cl)Cl",
    "meta_data": {
        "InChI": "InChI=1S/2C2H5.2ClH.Sn/c2*1-2;;;/h2*1H2,2H3;2*1H;/q;;;;+2/p-2",
        "InChIKey": null,
        "Canonical SMILES": "Cl[Sn](Cl)(CC)CC",
        "Molecular Formula": "C<sub>4</sub>H<sub>10</sub>Cl<sub>2</sub>Sn",
        "Molecular Mass": "247.74",
        "Boiling Point": "220 °C",
        "Melting Point": "82-84 °C"
    }
}