{
    "cas_no": "14473-91-7",
    "key_name": "(2<em>E</em>)-3-(3-Bromophenyl)-2-propenoic acid",
    "cn_name": "3-溴肉桂酸;3-溴苯乙烯酸;3-溴代肉桂酸;间溴肉桂酸;3-溴苯乙烯酸, 98+%;反-溴苯乙烯酸;",
    "alternate_name": "2-Propenoic acid, 3-(3-bromophenyl)-, (2<em>E</em>)-;Cinnamic acid, <em>m</em>-bromo-, (<em>E</em>)-;2-Propenoic acid, 3-(3-bromophenyl)-, (<em>E</em>)-;(2<em>E</em>)-3-(3-Bromophenyl)-2-propenoic acid;<em>trans</em>-<em>m</em>-Bromocinnamic acid;BW-A 800U;(<em>E</em>)-3-Bromocinnamic acid;<em>trans</em>-3-(3-Bromophenyl)-2-propenoic acid;<em>trans</em>-3-(3-Bromophenyl)acrylic acid;(<em>E</em>)-<em>m</em>-Bromocinnamic acid;(E)-3-(3-Bromophenyl)acrylic acid;3-Bromo-<em>trans</em>-cinnamic acid;<em>trans</em>-3-Bromocinnamic acid",
    "duplicated_cas_no": "",
    "SMILES": "C(=C/C(O)=O)\\C1=CC(Br)=CC=C1",
    "meta_data": {
        "InChI": "InChI=1S/C9H7BrO2/c10-8-3-1-2-7(6-8)4-5-9(11)12/h1-6H,(H,11,12)/b5-4+",
        "InChIKey": null,
        "Canonical SMILES": "O=C(O)C=CC=1C=CC=C(Br)C1",
        "Molecular Formula": "C<sub>9</sub>H<sub>7</sub>BrO<sub>2</sub>",
        "Molecular Mass": "227.05",
        "Melting Point": "174 °C"
    }
}