{
    "cas_no": "9016-45-9",
    "key_name": "Polyethylene glycol nonylphenyl ether",
    "cn_name": null,
    "alternate_name": "Poly(oxy-1,2-ethanediyl), α-(nonylphenyl)-ω-hydroxy-;Glycols, polyethylene, mono(nonylphenyl) ether;Lubrol L;Polyethylene glycol nonylphenyl ether;Fenopal;Polyethylene glycol nonylphenol ether;Polyethylene glycol mono(nonylphenyl) ether;Alfenol 8;Antarox CO 530;Antarox CO 880;Dowfax 9N9;Lissapol TN 450;Marlophen;Nonidet P 80;NP 10;Polyethylene glycol mono(nonylphenol) ether;Polyoxyethylated nonylphenol;Surfonic N 1;Tergitol NP 27;Tergitol NP 40;Tergitol TP 9;Texofor FN 8;Arkopal N;Igepal CO;Nonylphenol polyethylene glycol ether;Nonipol;Poly(oxyethylene) nonylphenyl ether;Nonylphenoxy polyethoxy ethanol;Alfenol 22;Nonylphenyl polyethylene glycol ether;Antarox CO 630;Antarox CO 730;Antarox CO 850;Arkopal N 040;Arkopal N 060;Arkopal N 090;B 350;DS 3195;Ethylene oxide-nonylphenol condensate;Ethylene oxide-nonylphenol polymer;Hostapal CV;Igepal CO 530;Igepal CO 710;Lerolat N;Lissapol NX;Lubrol APN 5;Nonion NS 230;Nonylphenoxypoly(ethyleneoxy)ethanol;Nonylphenoxypoly(oxyethylene)ethanol;NP 100;NP 80;Penetrax;Polyethylene glycol nonylphenyl monoether;Renex 690;Retzanol NP 100;Slovafol 909;Slovafol 920;Syn Fac N 95;Tergitol NPX;Tergitol NP;Tergitol NP 14;Tergitol NP 35;Triton N 57;Triton N;(Nonylphenoxy)polyethylene oxide;Nonylphenol polyethylene oxide;Dispergator BO;Mono(nonylphenyl)polyethylene glycol;Triton N 101;Polyethoxylated nonylphenol;Renex 650;Oxyethylene nonylphenyl ether;Poly(oxyethylene) nonylphenol ether;Lerolat N 300;Igepal CO 730;Alfenol 710;Igepal CO 430;Igepal CO 210;Ethoxylated nonylphenol;Tergitol NP 33;Hostapal W;Igepal CO 890;Antarox CO 970;Surfonic N;Surfonic N 40;Igepal CO 520;Emmon 15332;Polyethyleneoxide mono(nonylphenyl) ether;Imbentine;Merpoxen 230;Stokolan NS 9;Solar NF;Emulgen 903;Emulgen 905;Emulgen 950;α-(Nonylphenyl)-ω-hydroxypolyoxyethylene;Igepal CO 610;Syntopon C;NP 936;DME;Alfenol 18;Alfenol 28;Surfonic N 75;Marlophen 89;Tergitol TH;CO 610;Steinapal HV 3;Steinapal HV 5;Steinapal HV 14;Imbentin;Ethylan BCP;Synperonic NXP;Simulsol 830NP;Triton N 100;Liponox NCI;NP 14;Lipal 9N;Surfonic N 95;Renex 698;Chimipal WN 6;Ethylan TU;Arkopal N 110;Arkopal N 100;Berol 02;Emulgen 911;Noregal LC 4 Conc.;Teric N;Teric GN;Nonipol 45;Nonipol 55;Nonipol 60;Nonipol 70;Nonipol 85;Nonipol 95;Nonipol 100;Nonipol 110;Nonipol 120;Nonipol 130;Nonipol 140;Nonipol 160;Nonipol 200;Nonipol 400;Sinnopal NP;NP 20;Lutensol AP 9;A 730 (surfactant);Teric GN 9;YF 6500;Mergital OP 2;OP 2;A 730;NP 8;NP 17;Emulgen 913;Emulgen 931;Emulgen 985;Conco NI 190;Polyoxyethylene(20) nonylphenyl ether;Polyoxyethylene(15) nonylphenyl ether;EA 80;Triton N 150;Slovafol;EMU 02;EMU 09;Berol 09;Berol 296;Nonipol 20;Nissan Nonion NS 210;Nonion NS 210;NOP 9;Synthrapol N;Arkopal N 080;Arkopal N 150;Arkopal N 300;Igepal CO 970;Emulgen 930;Nonaril 910;Nonaril 930;Surfonic N 106;Newcol 568;Renex 697;Wasc;Igepal CO 850;Igepal CO 887;Agral R;Berol 259;Neutronyx 640;Marlophen 812;T-DET N 14;Synperonic NP 15;Lubrol N;Lubrol N 13;Synperonic NP;T-DET N;Liponox NCH;Noigen EA 80;Nikkol NP 5;Empilan NP 9;Synperonic N;Antarox CO;Siponic NP 9;Triton N 128;Siponic NP;Meriten NF 9;Antarox CO 430;Prevocell W-OF 100;Slovafol 903;Slovafol 905;Slovafol 906;Auxipon NP;Emulgator NP 10;Lutensol AP 10;Lutensol AP 20;Lissapol NXP 10;Surfonic N 60;Alfenol;Nonylphenol ethoxylate;Tenzilin FN 65;Emalex NP 15;NP 7.5;Alfenol 10;Varonic N 6;Varonic N 30-7;Synperonic NX;NP (nonionic surfactant);Merpoxen ON;Oxyethylated nonylphenol;Noigen EA 50;ω-Hydroxy-α-(nonylphenyl)poly(oxy-1,2-ethanediyl);NP;Nissan Nonion NS;Nonion NS 206;Nonion NS 212;Nonion NS 215;Nonion NS 240;NS 215;Cemulsol NP-EO 6;BLM;Teric N 9;Wellaid 711W;Igepal CO 990;Renex 678;Ethylan N;Steinapal HV;Renex 648;Renex 688;Sunaptol NP 55;Nonion NS 208.5;Nonion NS 220;Emulgen 900;Imbentin N 52;Berol 26;Berol 267;Burtemul N;Sterox ND;NP 13;Akyporox NP 105;Newcol 560;Surfonic N 150;CO 630;Marlophen 810;Ethylan N 5.5;Value 3706;Conco NI;Sunmorl X 1;Newcol 561H;Newcol 562;Nonal 210;Emulgen 935;Nonidet NP 40;Rexol 25J;α-(Nonylphenyl)-ω-hydroxypoly(oxy-1,2-ethanediyl);Agral 90;Agral;Synperonic NP 9;Lissapol N;Nissan Nonion NS 230;Poly-Tergent B;Nikkol NP;Teric N 40;Teric N 30;Teric N 450;Teric N 100;Igepal CO 977;Poly-Tergent B 350;Nikkol NP 7.5;Nikkol NP 10;Nikkol NP 15;Nikkol NP 18TX;Tergitol NP 10;Nonipol 40;N 100;Emulgen 910;Emulgen 920;Renex 679;Agral LN;Nikkol NP 2;Newcol 520;Polystep F 6;Polystep F 8;Makon 6;Makon 8;Makon 10;Makon 12;Makon 14;Makon 30;Makon 4;Triton N 60;Nonion NS;Nissan Nonion NS 203;Nissan Nonion NS 206;Nonion NS 203;Tergitol NP 15;Cemulsol NP 10;Akyporox NP 95;Ethylan 44;Ethylan HA;Emulson 20B;Emulson 9B;Triton N 42;Simulsol 630;Scourol 900;Emulgen 906;M 812;NP 40;Ethylan 20;Emulgen 909;Gafac CO 990;Noigen EA 70;Nonionik NI;Tenzilin 080;Alkasurf NP;Liponox NCG;Nemol K 1030;Nemol K 36;Nemol K 2030;NP 695;Cemulsol NP 9;Rewopal HV 10;Emulgen PI 20T;T-DET N 4;Neutronyx 676;Synperonic NP 8;Igepal CO 436;Nissan Nonion NS 215;Poly-Tergent B 150;Poly-Tergent B 300;Tergitol NP 4;Tergitol NP 7;Tergitol NP 6;Tergitol NP 13;T-DET N 507;Alkasurf NP 8;Alkasurf NP 11;Nissan Nonion NS 220;Teric N 12;Surfonic N 10;Nonal 208;Elfapur N 70;Noigen EA 150;Nonidet NP 50;Nonipol 800;Nemol K 34;Renex 647;CCC jelly;Rendells suppository;Dehscoxid 781;Newcol 564;Newcol 504;NP 660;Cemulsol NP 8;Ethylan 55;Steinapal HV 8;Marlophen 88;Renex 300;Renex 1000;Makon;Etolat 914;Triton N 998;Nikkol NP 100;Igepal CO 997;Rewopal HV 25;Liponox NCM;Igepal CO 660;Steinapal HV 9;Steinapal HV 10;Steinapal HV 25;Steinapal HV 4;Monopol 1020;Adekatol NP 700;Adekatol NP 1100;Igepal CO 220;Teric N 15;Nissan Nonion NS 204.5;Surfonic N 200;Teric N 5;Igepal LO 997;Surfonic N 120;Renex 40;Renex 230;Renex 110;Liponox NC 38;Tergitol NP 9;Nonylphenyl ethoxylate;Trycol 6954;Ethylan 77;Synperonic NP 5;Synperonic NP 6;Synperonic NP 12;Synperonic NP 13;Synperonic NP 20;Synperonic NP 30;Synperonic NP 4;E 913;Slovafol A;NPEO<sub>20</sub>;DME (polymer);Nemol K 38;Poly(ethylene oxide) nonylphenyl ether;Nemol K 1032;Nemol K 1035;Nemol K 3030;Nonipol 500;NS 220;NS 230;Levelan P 208;Nikkol NP 20;Mylura;Emulgen 904;Newcol 516;Elfapur N 90;Igepal CO 630;Rewopal HV 5;Sapal;Liponox NCD;Arkopal 130;Nemol K 39;Nemol K 539;Nemol K 1033;Renex 682;Nonylphenoxypoly(ethylenoxy)ethanol;Polystep F 8NP20;Polystep F 10NP40;Nissan Nonion NS 208.5;Serdox NNP 4;Serdox NNP 8.5;Serdox NNP 15;Serdox NNP 7;Polyoxyethylene monononylphenyl ether;TN 450;Arkopal N 130;Eumulgin 286;Penerol NP 10;Penerol NP 16;Dehscoxid 771;Arkopal N 230;Slovasol 903;Arkopal 40;Arkopal 60;Arkopal 80;Dowfax 9N50;Trycol 6940;Trycol 6964;Dikssol W 92;Synperonic NP 10;Triton N 111;Trycol NP 30;Trycol NP 40;Arkopal 9;Tergitol NP 101;Igepal CO 880;Noigen EA 130T;NPEO<sub>30</sub>;NPEO<sub>40</sub>;NPEO<sub>10</sub>;Nissan Nonion NS 270;Igepal CO 720;Slovafol X;Nonylphenol ethylene oxide condensate;PBI Spreader;Alfenol N 8;Berol WASC;Arkopal N 50;Serdox NNP 1.5;Serdox NNP 12;Serdox NNP 20;Serdox NNP 8;Serdox NNP;Igepal CO 897;Soprophor BC 4;Soprophor BC 2;Hyonic PE 100;Hyonic PE 90;Hyonic PE 120;Hyonic NP 90;Hyonic NP 4011;Hyonic NP 40;Hyonic NP 60;Slovafol 90S;Emulgator U 6;SA 1;Slovafol 910;Liponox NCA;Liponox NC 500F;Iconol NP 9;Igepal CO 987;Esapal NP 90;Soprophor BC 6;Soprophor BC 10;Soprophor BC 17;Soprophor BC 20;Soprophor BC 40;Witconol NP 100;Sterling NP 10;Chemax NP 9;Iconol NP 40;Macol NP 9.5;Macol NP;Witconol NP 60;Witconol NP 80;Cemulsol NP 6;Nissan Nonion NS 12;Adekatol NP 720;Triton N 302;Emalex NP 12;NF 4;Igepal CTA 639W;Ethylan KEO;Emulsit 100;Nonio-light PN 4;Nonio-light PN 6;Emulsit 161;T-Det N 50;Nonipol 6;NP 6;NP 9;Adekatol NP 650;Teric GN 5;BLM (polymer);Adekatol NP;Newcol 506;Alkasurf NP 15;Phenoxol 9/18;Phenoxol 9/20;Gedepal CO 210;Marlophen 83;Liponox NC 95;B 315;NP 30;Dowfax 9N20;Dowfax 9N6;Rioklen NF 9;Rioklen NF 10;Adekatol NP 660;Texofor FN 6;Nonio-light PN 12;Liponox NC 130;Rewopal NP 10;NS 205.5;Dehydrophen 100;Rexol 25/10;Witconol NP 40;Rhodiasurf NP 9;Macol NP 4;Serdox NNP 10;Liponox NC 86;Nonion NS 270;T-DET N 10.5;T-DET N 6;Polystep F 4;Nonal 206;Nissan Nonion NS 202S;Emulmin 140;Emulmin 240;Antarox 897;Cemulsol NP 5;Cemulsol NP 7;Soprophor NP 10;Cemulsol NP 12;Emalex NP 8.5;Prevocell N 11;Carsonon N;Carsonon N 8;Carsonon N 30;Carsonon N 4;ON 10;Berol 268;Newcol 509;TX 10;Veranol N 10;Igepal BC 16;Nonylphenyl polyoxyethylene ether;Rexol 25/9;Soprophor BS 10;Igepal CO 620;Pionin D 414;SER-AD FN 1566;Rexol 25/4;Rexol 25/15;Nissan Nonion NS 402;Emulgen 921;Rhodadasnif NP;Adekatol NP 900;Surf Ac N 040;Surf Ac N 0120;Berol 227;T-DET N 9.5;Nonion NS 202S;NP 700;HME;Prevocell N 55;Prevocell N 5.5;Prevocell N 12;Prevocell N 20;Prevocell N 30;Biefenol N 45;Ethylan BV;Nalco 5599;Nalco 5595;Nalco 5596;Surfonic N 31.5;CO 730;Trycol 6968;Surfonic N 300;Afilan CVH;Newcol 1568;Nonipol 300;Polyoxyethylene glycol nonylphenyl ether;Polystep F 5;Polystep F 3;NP 1000;Igepal NP 12;Nonipol 80;NP 85;Emulgen 999S;FN 20;FN 20 (polyoxyalkylene);Slovafol 915;B 315 (polyoxyalkylene);Tergitol NP 8;Tergitol NP 12;Tergitol NP 70;Ethal NP 10F;Atmer 508;Empilan NP 8;NP 7;Adekatol NP 760;Monopol NP 1025;Penerol NP 7;Eleminol HA 100;Trycol 6969;Eleminol HA 161;Emulgen 309P;Surfonic N 85;Surfonic N 100;NS 208.5;NS 240;NS 206;NS 270;Arkopal 160;Nonal 214;NP 50;Witconate NP 120;Tensioactiv NF 6;Tensioactiv NF 10;Nonion NS 202;Nissan Nonion NS 202;Nonal 212;MYN 108;Prevocell N 10;Igepal BC 5;Igepal BC 8;Igepal BC 14;Igepal BC 40;T-DET N 100;Igepal BC 17;Tergitol TNP 10;Iconol NP 6;Agral Plus;Trycol 6961;Arkopal N 308;TX 7;Poly-Tergent B 200;Dowfax 9N5;Rikemal A 23;Rexol 25/7;Ucefal DCN;Polystep F 9;Emulsit 16;Emulsit 9;Emulsit 25;Nonipol 90;NP 15 (defoamer);NP 15;Adekatol NP 675;Adekatol NP 683;Adekatol NP 686;Adekatol NP 690;Adekatol NP 710;Adekatol NP 1000;Renex 80;Alcosist PN;Adekatol NP 638;Kumiten;Nonfix 5;Nonfix 2;T-DET N 12;T-Det N 30;N 101;Surfonic N 102;Surfonic N 400;Surfonic N 550;Surfonic N 700;Surfonic N 800;Surfonic N 1000;Liponox NC 60;NS 202;Syn Fac 905;Noigen RA 80;NP 1018;Liponox NC 300F;Surfonic 60;Iconol NP 50;Iconol NP 70;Triton N 401;TX 12;Igepal CO 6030;Igepal NP 10;Teric N 2;Nonion NS 2045;CO 436;Liponox NC 300;Iconol NP 100 Pastille FD;Lutensol AP 14;Noigen EA 80E;Agral 600;Teric GN 8;Macol NP 6;Rheomix 610P;Nikkol NP 18;AlphoX 200;Noigen EA 170S;EA 170S;Igepal 520;Igepal 720;Chemax NP 1.5;Rohagal 12N;Nissan Nonion NS 2045;NS 204.5;NS 2045;Nonion NS 204.5;Synperonic NP 50;Remcopal NP 30;Weranol H 10;Hermoowet;Meriten FN 10;FN 10;Polypol;Trycol 6974;Ace Clean AD;Noigen E 120;NP 18PTX;Nonion NS 230-60;Nissan Nonion NS 230-60;NS 230-60;Sunmorl N 300;Igepal NP 6;Witconol NP 120;NP 5;Disponil NP 10;Igepal 710;NP 18TX;Emulgen 92D;Adekanol NP 1000;Tergitol 9.5;Surfonic 40;NPE 901;Disponil NP 307;TX 50 (surfactant);TX 50;Macol NP 9;Monopol NP 1019;Veranol H 10;Indulin XD 70;Fixade;Blaunon N 510;N 510;NF 16;Pannox 30;TN 111;TN 111 (polymer);Liponox NC 200;Pannox 122A;Berol 274;Igepal BC 8/14;Synperonic NP 6-20;Unitop 100;CO 720;Trycol 6970;Newcol 526;Sinnopal NP 307;NP 307;Synperonic NP 40;Surfacpol 906;Nofox 9;Nodox 4;NF 6 (detergent);NF 6;Egyptol PLM;Disponil NP 9;Disponil NP 20;Disponil NP 30;Disponil NP 4;NPE 14;Igepal CO 463;Emulgen 70;Nonfix 6;Nonfix 9;Emulgator BLM;Emulgin 600;Emulgin 1000;Nezhegol;HA 100;Tergitol NO 10;Libsorb;D 409;Imbentin 180;Findet Q 21.5NF;Kemonic 909;Renex 100;Empilan NP 20;Teric N 13;Bioten MK 40;NPE 10;ENP 95;ENP 150;Igepal BC 4;PEG nonylphenyl ether;Disponil NP 40;Findet 9Q21.5NF;Nonal 205;Hyoxide AAO;Synperonic N 8;Renex 95;Canasol NF 1000;Tergitol NP 30;Teric N 8;Dual Spacer B;Sanfresh 850;Ethal NP 9;Unitop 50;Vibnon 45;Neonol AF 8-10;Igeral ES;NP 9.5;KENON 9;KENON 10;KENON 30;KENON 40;Antarox CO 990;Marlasol 100;S 910;T-DET N 20;S 910 (surfactant);OP 50;OP 70;Tergitol N 4;Tergitol N 8;NP 7 (surfactant);PEN 88;NPE 70;NP 5 Igepal CO 520;Imbentin N 63;NP 21;Nonal 530;CO 897;Neonol 12;Neonol SNO 3B;SNO 3B;SNO 4D;NP 35;Nonidet P 40 substitute;NP 40S;Sunmorl N 95SM;N 308;TX 100;Ultranex NP 95;PX 10 (emulsifier);PX 10;TX 9;Ultranex NP 50;Ultranex NP 100;Ultranex NP 500;Ultranex NP 1000;CO 887;R 40;R 95;Remcopal N 4100;Remcopal N 9-1001;Burco APR 95;R 40 (polyether);R 95 (polyether);NP 25;NF-PEG;Blaunon N 509;TX 4;TX 4 (surfactant);NP 16;FOR 3;NP 2;SEM 35N;NP-EOA 70;Neutronyx 656;Phenol, nonyl-, ethoxylate;Pionin D 409;NP 4;NP 3;TX 3;TX 5;Polyoxyethylene(40) nonylphenyl ether;Lutensol AP 6;NP 18;Teric N 300;NP 90;NP 40F;Cedepal CO 630;Cedepal CO 710;Igepal BC 6;Nonylphenol polyoxyethylene ether;Triton CO 630;P 10;P 10 (emulsifier);Blaunon N 503;Blaunon N 506;Blaunon N 507;Blaunon N 508;Blaunon N 5085;Blaunon N 5095;Blaunon N 511;Blaunon N 512;Blaunon N 513;Blaunon N 514;Blaunon N 515;Blaunon N 520;Blaunon N 530;Blaunon N 504;Blaunon N 505;NPE 15;NPE 20;NPE 30;Igepal CO 30;NP 18 (polyether);Tergitol NP 9.5;TX 15;NP 12;NP 70;NP 70 (surfactant);OP 13;Ultranex NP 40;X 6;X 6 (surfactant);Peretex 1232;Ultranex NP 150;TX 6;Lutensol NP 10;CO 710;NP 11;Sorpol 3105;RA 80;Teric N 10;Arkopal N 238;NPE 6;NPE 40;Noigen EM 230D;Noigen EM 250;Iconol NP 20;Ultranex NP 80;CO 520;NPE 110;Intrapol LTN;N 45;OP 10;CO 977;Tergitol NP 5;Berol NP 10;Egyptol BLM;Triton 50;PCT Reactor Wetter 600 Surfactant;Reactor Wetter 600 Surfactant;Reactor Wetter 600;Igepal CS 360;Atsolyn A 1000;Blaunon BNP 30A;NPE 9TX",
    "duplicated_cas_no": "9021-03-8;9067-50-9;11098-16-1;11103-60-9;11107-93-0;12767-68-9;12789-12-7;12790-67-9;25640-88-4;27288-14-8;28136-10-9;29594-36-3;30676-83-6;32196-52-4;37187-23-8;37210-94-9;37230-99-2;37280-80-1;37291-67-1;37336-52-0;39289-57-1;39316-45-5;39316-73-9;39346-85-5;39373-71-2;39392-83-1;39393-36-7;39421-49-3;39453-05-9;39454-98-3;39475-46-2;42617-03-8;50855-29-3;50934-84-4;51059-97-3;51609-19-9;51668-51-0;51938-59-1;51938-60-4;52012-43-8;52038-46-7;52051-49-7;52434-07-8;52440-03-6;52440-78-5;52440-94-5;52504-18-4;52504-19-5;52683-07-5;53125-17-0;53529-49-0;53663-55-1;53763-35-2;53763-36-3;54174-36-6;54985-54-5;55126-80-2;55838-69-2;56590-96-6;57308-02-8;57571-69-4;59330-69-7;60098-67-1;60476-27-9;61614-07-1;61840-55-9;62169-44-2;62229-21-4;62229-24-7;62229-29-2;63440-03-9;63798-88-9;64296-14-6;64940-97-2;65035-40-7;65035-41-8;65777-14-2;66525-84-6;67053-58-1;72847-44-0;72847-45-1;74434-41-6;74656-63-6;74749-71-6;75882-09-6;76829-05-5;77271-60-4;80341-59-9;80966-32-1;81296-82-4;83271-48-1;90452-81-6;93095-76-2;95828-59-4;96231-61-7;96957-64-1;96958-17-7;96958-28-0;99402-83-2;99531-82-5;102188-45-4;103939-37-3;105269-88-3;106152-98-1;107231-62-9;111623-62-2;112509-36-1;114101-89-2;116711-78-5;123019-34-1;123068-21-3;124057-60-9;137263-06-0;139281-67-7;141490-14-4;142985-89-5;143929-07-1;167140-06-9;172521-16-3;188612-23-9;190856-87-2;202936-22-9;205577-03-3;226225-58-7;226225-59-8;286015-24-5;286015-28-9;376647-33-5;441352-55-2;441352-56-3;441352-57-4;441352-58-5;441352-59-6;509171-19-1;623588-93-2;874461-43-5;933050-99-8;942205-98-3;1163687-50-0;1202388-20-2;1202388-26-8;1809431-45-5;1809431-82-0;1943678-94-1;2091900-73-9;2096976-67-7;2323620-11-5;2332812-08-3;2408592-97-0",
    "SMILES": "",
    "meta_data": {
        "InChI": "",
        "InChIKey": null,
        "Canonical SMILES": "",
        "Molecular Formula": "(C<sub>2</sub>H<sub>4</sub>O)<sub>n</sub>C<sub>15</sub>H<sub>24</sub>O",
        "Molecular Mass": "",
        "Melting Point": "42-43 °C",
        "Density": "1.041 g/cm³ (liquid) @ Temp: 25 °C"
    }
}