{
    "cas_no": "1609-66-1",
    "key_name": "4-(<em>N</em>-Propionylaniline)piperidine",
    "cn_name": "N-苯基-N-(4-哌啶基)哌啶酰胺;N-苯基-N-(4-哌啶)丙胺 混合盐酸;N-苯基-N-(4-哌啶基)哌啶酰胺,98%;N-苯基-N-;",
    "alternate_name": "Propanamide, <em>N</em>-phenyl-<em>N</em>-4-piperidinyl-;Propionanilide, <em>N</em>-4-piperidyl-;<em>N</em>-Phenyl-<em>N</em>-4-piperidinylpropanamide;4-(<em>N</em>-Propionanilido)piperidine;4-(<em>N</em>-Propionylaniline)piperidine;Norfentanyl;<em>N</em>-Phenyl-<em>N</em>-4-piperidinylpropionamide;NSC 89293;<em>N</em>-Piperidin-4-yl-<em>N</em>-phenylpropionamide;<em>N</em>-[Piperidin-4-yl]-<em>N</em>-phenylpropionamide",
    "duplicated_cas_no": "",
    "SMILES": "N(C(CC)=O)(C1=CC=CC=C1)C2CCNCC2",
    "meta_data": {
        "InChI": "InChI=1S/C14H20N2O/c1-2-14(17)16(12-6-4-3-5-7-12)13-8-10-15-11-9-13/h3-7,13,15H,2,8-11H2,1H3",
        "InChIKey": null,
        "Canonical SMILES": "O=C(N(C=1C=CC=CC1)C2CCNCC2)CC",
        "Molecular Formula": "C<sub>14</sub>H<sub>20</sub>N<sub>2</sub>O",
        "Molecular Mass": "232.32",
        "Melting Point": "83-85 °C"
    }
}