{
    "cas_no": "13999-39-8",
    "key_name": "4,5-Dimethyl-3-isoxazolamine",
    "cn_name": "3-氨基-4,5-二甲基异噁唑;",
    "alternate_name": "3-Isoxazolamine, 4,5-dimethyl-;Isoxazole, 3-amino-4,5-dimethyl-;4,5-Dimethyl-3-isoxazolamine;4,5-Dimethyl-3-aminoisoxazole;3-Amino-4,5-dimethylisoxazole;(4,5-Dimethylisoxazol-3-yl)amine",
    "duplicated_cas_no": "",
    "SMILES": "CC=1C(N)=NOC1C",
    "meta_data": {
        "InChI": "InChI=1S/C5H8N2O/c1-3-4(2)8-7-5(3)6/h1-2H3,(H2,6,7)",
        "InChIKey": null,
        "Canonical SMILES": "N=1OC(=C(C1N)C)C",
        "Molecular Formula": "C<sub>5</sub>H<sub>8</sub>N<sub>2</sub>O",
        "Molecular Mass": "112.13",
        "Melting Point": "115-117 °C"
    }
}