{
    "cas_no": "501-52-0",
    "key_name": "Benzenepropanoic acid",
    "cn_name": "氢化肉桂酸;3-苯基丙酸;",
    "alternate_name": "Benzenepropanoic acid;Hydrocinnamic acid;Benzylacetic acid;β-Phenylpropionic acid;3-Phenylpropionic acid;Dihydrocinnamic acid;Benzenepropionic acid;3-Phenylpropanoic acid;3-Phenyl-<em>n</em>-propionic acid;ω-Phenylpropanoic acid;NSC 9272;β-Phenylpropanoic acid",
    "duplicated_cas_no": "",
    "SMILES": "C(CC(O)=O)C1=CC=CC=C1",
    "meta_data": {
        "InChI": "InChI=1S/C9H10O2/c10-9(11)7-6-8-4-2-1-3-5-8/h1-5H,6-7H2,(H,10,11)",
        "InChIKey": null,
        "Canonical SMILES": "O=C(O)CCC=1C=CC=CC1",
        "Molecular Formula": "C<sub>9</sub>H<sub>10</sub>O<sub>2</sub>",
        "Molecular Mass": "150.17",
        "Boiling Point": "279.8 °C",
        "Melting Point": "63 °C"
    }
}