{
    "cas_no": "7779-80-8",
    "key_name": "Isobutyl heptanoate",
    "cn_name": "庚酸异丁酯;",
    "alternate_name": "Heptanoic acid, 2-methylpropyl ester;Heptanoic acid, isobutyl ester;Isobutyl heptanoate;Isobutyl heptylate;2-Methylpropyl heptanoate",
    "duplicated_cas_no": "",
    "SMILES": "C(OCC(C)C)(CCCCCC)=O",
    "meta_data": {
        "InChI": "InChI=1S/C11H22O2/c1-4-5-6-7-8-11(12)13-9-10(2)3/h10H,4-9H2,1-3H3",
        "InChIKey": null,
        "Canonical SMILES": "O=C(OCC(C)C)CCCCCC",
        "Molecular Formula": "C<sub>11</sub>H<sub>22</sub>O<sub>2</sub>",
        "Molecular Mass": "186.29",
        "Boiling Point": "208 °C",
        "Density": "0.8593 g/cm³ @ Temp: 20 °C"
    }
}