{
    "cas_no": "13324-66-8",
    "key_name": "<em>N</em>-Cyclopropylbenzenemethanamine",
    "cn_name": null,
    "alternate_name": "Benzenemethanamine, <em>N</em>-cyclopropyl-;Benzylamine, <em>N</em>-cyclopropyl-;<em>N</em>-Cyclopropylbenzenemethanamine;<em>N</em>-Cyclopropylbenzylamine;<em>N</em>-Benzylcyclopropylamine;Benzylcyclopropylamine;<em>N</em>-Benzyl-<em>N</em>-(cyclopropyl)amine",
    "duplicated_cas_no": "",
    "SMILES": "C(NC1CC1)C2=CC=CC=C2",
    "meta_data": {
        "InChI": "InChI=1S/C10H13N/c1-2-4-9(5-3-1)8-11-10-6-7-10/h1-5,10-11H,6-8H2",
        "InChIKey": null,
        "Canonical SMILES": "C=1C=CC(=CC1)CNC2CC2",
        "Molecular Formula": "C<sub>10</sub>H<sub>13</sub>N",
        "Molecular Mass": "147.22",
        "Boiling Point": "80-81 °C @ Press: 5 Torr",
        "Melting Point": "97-98.5 °C"
    }
}