{
    "cas_no": "55701-05-8",
    "key_name": "Permethric acid",
    "cn_name": null,
    "alternate_name": "Cyclopropanecarboxylic acid, 3-(2,2-dichloroethenyl)-2,2-dimethyl-;Cyclopropanecarboxylic acid, 3-(2,2-dichlorovinyl)-2,2-dimethyl-;3-(2,2-Dichloroethenyl)-2,2-dimethylcyclopropanecarboxylic acid;Permethric acid;DV-chrysanthemic acid;3-(2,2-Dichlorovinyl)-2,2-dimethylcyclopropanecarboxylic acid;Permethrinic acid;3-(2,2-Dichlorovinyl)-2,2-dimethylcyclopropylcarboxylic acid;2,2-Dimethyl-3-(2,2-dichlorovinyl)cyclopropanecarboxylic acid;2-(2,2-Dichlorovinyl)-3,3-dimethylcyclopropanecarboxylic acid",
    "duplicated_cas_no": "80225-30-5",
    "SMILES": "C(O)(=O)C1C(C=C(Cl)Cl)C1(C)C",
    "meta_data": {
        "InChI": "InChI=1S/C8H10Cl2O2/c1-8(2)4(3-5(9)10)6(8)7(11)12/h3-4,6H,1-2H3,(H,11,12)",
        "InChIKey": null,
        "Canonical SMILES": "O=C(O)C1C(C=C(Cl)Cl)C1(C)C",
        "Molecular Formula": "C<sub>8</sub>H<sub>10</sub>Cl<sub>2</sub>O<sub>2</sub>",
        "Molecular Mass": "209.07",
        "Boiling Point": "92-94.5 °C",
        "Melting Point": "58.33 °C"
    }
}