{
    "cas_no": "1006-65-1",
    "key_name": "3-Phenylisoxazole",
    "cn_name": null,
    "alternate_name": "Isoxazole, 3-phenyl-;3-Phenylisoxazole;3-Phenyl-1,2-oxazole",
    "duplicated_cas_no": "",
    "SMILES": "C=1(C=CON1)C2=CC=CC=C2",
    "meta_data": {
        "InChI": "InChI=1S/C9H7NO/c1-2-4-8(5-3-1)9-6-7-11-10-9/h1-7H",
        "InChIKey": null,
        "Canonical SMILES": "N=1OC=CC1C=2C=CC=CC2",
        "Molecular Formula": "C<sub>9</sub>H<sub>7</sub>NO",
        "Molecular Mass": "145.16",
        "Boiling Point": "128 °C @ Press: 16 Torr",
        "Melting Point": "110-111 °C",
        "Density": "1.139 g/cm³ @ Temp: 20 °C"
    }
}