{
    "cas_no": "13676-02-3",
    "key_name": "2-Chloro-6-methoxyquinoline",
    "cn_name": null,
    "alternate_name": "Quinoline, 2-chloro-6-methoxy-;2-Chloro-6-methoxyquinoline",
    "duplicated_cas_no": "",
    "SMILES": "O(C)C1=CC2=C(N=C(Cl)C=C2)C=C1",
    "meta_data": {
        "InChI": "InChI=1S/C10H8ClNO/c1-13-8-3-4-9-7(6-8)2-5-10(11)12-9/h2-6H,1H3",
        "InChIKey": null,
        "Canonical SMILES": "ClC=1N=C2C=CC(OC)=CC2=CC1",
        "Molecular Formula": "C<sub>10</sub>H<sub>8</sub>ClNO",
        "Molecular Mass": "193.63",
        "Melting Point": "107-108 °C"
    }
}