{
    "cas_no": "29267-67-2",
    "key_name": "2-Methoxyresorcinol",
    "cn_name": null,
    "alternate_name": "1,3-Benzenediol, 2-methoxy-;Resorcinol, 2-methoxy-;2-Methoxy-1,3-benzenediol;1,3-Dihydroxy-2-methoxybenzene;2-<em>O</em>-Methylpyrogallol;2-Methoxyresorcinol;Pyrogallol-2-methyl ether;2,6-Dihydroxyanisole",
    "duplicated_cas_no": "",
    "SMILES": "O(C)C1=C(O)C=CC=C1O",
    "meta_data": {
        "InChI": "InChI=1S/C7H8O3/c1-10-7-5(8)3-2-4-6(7)9/h2-4,8-9H,1H3",
        "InChIKey": null,
        "Canonical SMILES": "OC1=CC=CC(O)=C1OC",
        "Molecular Formula": "C<sub>7</sub>H<sub>8</sub>O<sub>3</sub>",
        "Molecular Mass": "140.14",
        "Boiling Point": "146.0-147.5 °C @ Press: 17 Torr",
        "Melting Point": "89-90 °C"
    }
}