{
    "cas_no": "1561-86-0",
    "key_name": "2-Chlorocyclohexanol",
    "cn_name": null,
    "alternate_name": "Cyclohexanol, 2-chloro-;2-Chlorocyclohexanol;Cyclohexene chlorohydrin;2-Chloro-1-cyclohexanol;1-Chloro-2-cyclohexanol",
    "duplicated_cas_no": "",
    "SMILES": "ClC1C(O)CCCC1",
    "meta_data": {
        "InChI": "InChI=1S/C6H11ClO/c7-5-3-1-2-4-6(5)8/h5-6,8H,1-4H2",
        "InChIKey": null,
        "Canonical SMILES": "ClC1CCCCC1O",
        "Molecular Formula": "C<sub>6</sub>H<sub>11</sub>ClO",
        "Molecular Mass": "134.60",
        "Boiling Point": "92 °C @ Press: 10 Torr",
        "Melting Point": "29 °C",
        "Density": "1.142 g/cm³ @ Temp: 25 °C"
    }
}