{
    "cas_no": "77794-93-5",
    "key_name": "Benzenemethanaminium, <em>N</em>,<em>N</em>,<em>N</em>-triethyl-, tetrafluoroborate(1-) (1:1)",
    "cn_name": "苄基四乙基四氟硼酸铵;",
    "alternate_name": "Benzenemethanaminium, <em>N</em>,<em>N</em>,<em>N</em>-triethyl-, tetrafluoroborate(1-) (1:1);Benzenemethanaminium, <em>N</em>,<em>N</em>,<em>N</em>-triethyl-, tetrafluoroborate(1-);Borate(1-), tetrafluoro-, <em>N</em>,<em>N</em>,<em>N</em>-triethylbenzenemethanaminium;Benzyltriethylammonium tetrafluoroborate",
    "duplicated_cas_no": "",
    "SMILES": "[N+](CC1=CC=CC=C1)(CC)(CC)CC.[B+3]([F-])([F-])([F-])[F-]",
    "meta_data": {
        "InChI": "InChI=1S/C13H22N.BF4/c1-4-14(5-2,6-3)12-13-10-8-7-9-11-13;2-1(3,4)5/h7-11H,4-6,12H2,1-3H3;/q+1;-1",
        "InChIKey": null,
        "Canonical SMILES": "[F-][B+3]([F-])([F-])[F-].C=1C=CC(=CC1)C[N+](CC)(CC)CC",
        "Molecular Formula": "C<sub>13</sub>H<sub>22</sub>N.BF<sub>4</sub>",
        "Molecular Mass": "",
        "Melting Point": "114-115 °C"
    }
}