{
    "cas_no": "88909-96-0",
    "key_name": "Virstatin",
    "cn_name": null,
    "alternate_name": "1<em>H</em>-Benz[<em>de</em>]isoquinoline-2(3<em>H</em>)-butanoic acid, 1,3-dioxo-;1,3-Dioxo-1<em>H</em>-benz[<em>de</em>]isoquinoline-2(3<em>H</em>)-butanoic acid;Virstatin;ALX 430-147;4-(1,3-Dioxo-1<em>H</em>-benzo[<em>de</em>]isoquinolin-2(3<em>H</em>)-yl)butanoate",
    "duplicated_cas_no": "884230-35-7",
    "SMILES": "O=C1C=2C=3C(C(=O)N1CCCC(O)=O)=CC=CC3C=CC2",
    "meta_data": {
        "InChI": "InChI=1S/C16H13NO4/c18-13(19)8-3-9-17-15(20)11-6-1-4-10-5-2-7-12(14(10)11)16(17)21/h1-2,4-7H,3,8-9H2,(H,18,19)",
        "InChIKey": null,
        "Canonical SMILES": "O=C(O)CCCN1C(=O)C=2C=CC=C3C=CC=C(C1=O)C32",
        "Molecular Formula": "C<sub>16</sub>H<sub>13</sub>NO<sub>4</sub>",
        "Molecular Mass": "283.28",
        "Melting Point": "186-188 °C"
    }
}