{
    "cas_no": "38226-86-7",
    "key_name": "β-Anhydroicaritin",
    "cn_name": null,
    "alternate_name": "4<em>H</em>,8<em>H</em>-Benzo[1,2-<em>b</em>:3,4-<em>b</em>′]dipyran-4-one, 9,10-dihydro-3,5-dihydroxy-2-(4-methoxyphenyl)-8,8-dimethyl-;9,10-Dihydro-3,5-dihydroxy-2-(4-methoxyphenyl)-8,8-dimethyl-4<em>H</em>,8<em>H</em>-benzo[1,2-<em>b</em>:3,4-<em>b</em>′]dipyran-4-one;Icaritin, β-anhydro-;β-Anhydroicaritin;Cycloicaritin;Anhydroicaritin;3,5-Dihydroxy-2-(4-methoxyphenyl)-8,8-dimethyl-9,10-dihydropyrano[2,3-<em>h</em>]chromen-4-one",
    "duplicated_cas_no": "",
    "SMILES": "O=C1C2=C(C3=C(C=C2O)OC(C)(C)CC3)OC(=C1O)C4=CC=C(OC)C=C4",
    "meta_data": {
        "InChI": "InChI=1S/C21H20O6/c1-21(2)9-8-13-15(27-21)10-14(22)16-17(23)18(24)19(26-20(13)16)11-4-6-12(25-3)7-5-11/h4-7,10,22,24H,8-9H2,1-3H3",
        "InChIKey": null,
        "Canonical SMILES": "O=C1C(O)=C(OC=2C1=C(O)C=C3OC(C)(C)CCC32)C=4C=CC(OC)=CC4",
        "Molecular Formula": "C<sub>21</sub>H<sub>20</sub>O<sub>6</sub>",
        "Molecular Mass": "368.38",
        "Melting Point": "222-223 °C"
    }
}