{
    "cas_no": "565-62-8",
    "key_name": "3-Methyl-3-penten-2-one",
    "cn_name": "3-甲基-3-戊烯-2-酮;",
    "alternate_name": "3-Penten-2-one, 3-methyl-;3-Methyl-3-penten-2-one;2-Oxo-3-methyl-3-pentene;3-Methyl-2-penten-4-one;NSC 75836",
    "duplicated_cas_no": "",
    "SMILES": "C(C(C)=O)(=CC)C",
    "meta_data": {
        "InChI": "InChI=1S/C6H10O/c1-4-5(2)6(3)7/h4H,1-3H3",
        "InChIKey": null,
        "Canonical SMILES": "O=C(C(=CC)C)C",
        "Molecular Formula": "C<sub>6</sub>H<sub>10</sub>O",
        "Molecular Mass": "98.14",
        "Boiling Point": "136-138 °C",
        "Density": "0.874 g/cm³ @ Temp: 15 °C"
    }
}