{
    "cas_no": "3221-61-2",
    "key_name": "2-Methyloctane",
    "cn_name": "2-甲基辛烷;2-甲基辛烷;",
    "alternate_name": "Octane, 2-methyl-;2-Methyloctane;NSC 23695",
    "duplicated_cas_no": "",
    "SMILES": "C(CC(C)C)CCCC",
    "meta_data": {
        "InChI": "InChI=1S/C9H20/c1-4-5-6-7-8-9(2)3/h9H,4-8H2,1-3H3",
        "InChIKey": null,
        "Canonical SMILES": "CCCCCCC(C)C",
        "Molecular Formula": "C<sub>9</sub>H<sub>20</sub>",
        "Molecular Mass": "128.26",
        "Boiling Point": "143.2 °C",
        "Melting Point": "-80.3 °C",
        "Density": "0.7107 g/cm³ @ Temp: 20.1 °C"
    }
}