{
    "cas_no": "13484-38-3",
    "key_name": "1-(2-Ethoxyethyl)piperazine",
    "cn_name": "1-(2-乙氧基乙基)哌嗪;",
    "alternate_name": "Piperazine, 1-(2-ethoxyethyl)-;1-(2-Ethoxyethyl)piperazine;1-[2-(Ethyloxy)ethyl]piperazine",
    "duplicated_cas_no": "",
    "SMILES": "C(COCC)N1CCNCC1",
    "meta_data": {
        "InChI": "InChI=1S/C8H18N2O/c1-2-11-8-7-10-5-3-9-4-6-10/h9H,2-8H2,1H3",
        "InChIKey": null,
        "Canonical SMILES": "O(CC)CCN1CCNCC1",
        "Molecular Formula": "C<sub>8</sub>H<sub>18</sub>N<sub>2</sub>O",
        "Molecular Mass": "158.24",
        "Boiling Point": "100 °C @ Press: 10 Torr",
        "Melting Point": "115-117 °C"
    }
}