{
    "cas_no": "68123-30-8",
    "key_name": "2,3-Dihydro-9-hydroxy-7<em>H</em>-furo[3,2-<em>g</em>][1]benzopyran-7-one",
    "cn_name": "2,3-二氢-9-羟基-7H-呋喃并[3,2-G][1]苯并吡喃-7-酮;",
    "alternate_name": "7<em>H</em>-Furo[3,2-<em>g</em>][1]benzopyran-7-one, 2,3-dihydro-9-hydroxy-;5-Benzofuranacrylic acid, 2,3-dihydro-6,7-dihydroxy-, δ-lactone;2,3-Dihydro-9-hydroxy-7<em>H</em>-furo[3,2-<em>g</em>][1]benzopyran-7-one;2,3-Dihydroxanthotoxol",
    "duplicated_cas_no": "",
    "SMILES": "OC=1C2=C(C=C3C1OCC3)C=CC(=O)O2",
    "meta_data": {
        "InChI": "InChI=1S/C11H8O4/c12-8-2-1-6-5-7-3-4-14-10(7)9(13)11(6)15-8/h1-2,5,13H,3-4H2",
        "InChIKey": null,
        "Canonical SMILES": "O=C1OC=2C(O)=C3OCCC3=CC2C=C1",
        "Molecular Formula": "C<sub>11</sub>H<sub>8</sub>O<sub>4</sub>",
        "Molecular Mass": "204.18",
        "Melting Point": "202 °C"
    }
}