{
    "cas_no": "156-39-8",
    "key_name": "4-Hydroxyphenylpyruvic acid",
    "cn_name": "4-羟苯基丙酮酸;对羟苯基丙酮酸;",
    "alternate_name": "Benzenepropanoic acid, 4-hydroxy-α-oxo-;Pyruvic acid, (<em>p</em>-hydroxyphenyl)-;4-Hydroxy-α-oxobenzenepropanoic acid;4-Hydroxyphenylpyruvic acid;(<em>p</em>-Hydroxyphenyl)pyruvic acid;3-(<em>p</em>-Hydroxyphenyl)-2-oxopropionic acid;Testacid;3-(<em>p</em>-Hydroxyphenyl)pyruvic acid;HPPA;3-(4-Hydroxyphenyl)pyruvic acid;3-(4-Hydroxyphenyl)-2-oxopropionic acid;NSC 100738;NSC 666757;3-(4-Hydroxyphenyl)-2-oxopropanoic acid",
    "duplicated_cas_no": "854280-03-8",
    "SMILES": "C(C(C(O)=O)=O)C1=CC=C(O)C=C1",
    "meta_data": {
        "InChI": "InChI=1S/C9H8O4/c10-7-3-1-6(2-4-7)5-8(11)9(12)13/h1-4,10H,5H2,(H,12,13)",
        "InChIKey": null,
        "Canonical SMILES": "O=C(O)C(=O)CC1=CC=C(O)C=C1",
        "Molecular Formula": "C<sub>9</sub>H<sub>8</sub>O<sub>4</sub>",
        "Molecular Mass": "180.16",
        "Boiling Point": "123 °C @ Press: 0.03 Torr",
        "Melting Point": "218 °C"
    }
}