{
    "cas_no": "79349-82-9",
    "key_name": "(6<em>R</em>,7<em>R</em>)-7-Amino-3-ethenyl-8-oxo-5-thia-1-azabicyclo[4.2.0]oct-2-ene-2-carboxylic acid",
    "cn_name": null,
    "alternate_name": "5-Thia-1-azabicyclo[4.2.0]oct-2-ene-2-carboxylic acid, 7-amino-3-ethenyl-8-oxo-, (6<em>R</em>,7<em>R</em>)-;5-Thia-1-azabicyclo[4.2.0]oct-2-ene-2-carboxylic acid, 7-amino-3-ethenyl-8-oxo-, (6<em>R</em>-<em>trans</em>)-;(6<em>R</em>,7<em>R</em>)-7-Amino-3-ethenyl-8-oxo-5-thia-1-azabicyclo[4.2.0]oct-2-ene-2-carboxylic acid;7-Amino-3-vinyl-3-cephem-4-carboxylic acid",
    "duplicated_cas_no": "",
    "SMILES": "C(O)(=O)C=1N2[C@@]([C@H](N)C2=O)(SCC1C=C)[H]",
    "meta_data": {
        "InChI": "InChI=1S/C9H10N2O3S/c1-2-4-3-15-8-5(10)7(12)11(8)6(4)9(13)14/h2,5,8H,1,3,10H2,(H,13,14)/t5-,8-/m1/s1",
        "InChIKey": null,
        "Canonical SMILES": "O=C(O)C1=C(C=C)CSC2N1C(=O)C2N",
        "Molecular Formula": "C<sub>9</sub>H<sub>10</sub>N<sub>2</sub>O<sub>3</sub>S",
        "Molecular Mass": "226.25",
        "Melting Point": "&gt;200 °C (decomp)"
    }
}