{
    "cas_no": "319-84-6",
    "key_name": "α-Hexachlorocyclohexane",
    "cn_name": null,
    "alternate_name": "Cyclohexane, 1,2,3,4,5,6-hexachloro-, (1α,2α,3β,4α,5β,6β)-;Cyclohexane, 1,2,3,4,5,6-hexachloro-, α-;(1α,2α,3β,4α,5β,6β)-1,2,3,4,5,6-Hexachlorocyclohexane;α-BHC;α-Hexachlorocyclohexane;α-1,2,3,4,5,6-Hexachlorocyclohexane;α-Lindane;α-Hexachloran;α-Benzenehexachloride;α-HCH;α-Hexachlorane;α-Hexachlorcyclohexane;α-Benzohexachloride;α-666;(±)-α-HCH;(±)-α-Hexachlorocyclohexane",
    "duplicated_cas_no": "20437-97-2;60291-32-9",
    "SMILES": "Cl[C@H]1[C@@H](Cl)[C@H](Cl)[C@@H](Cl)[C@H](Cl)[C@@H]1Cl",
    "meta_data": {
        "InChI": "InChI=1/C6H6Cl6/c7-1-2(8)4(10)6(12)5(11)3(1)9/h1-6H/t1-,2-,3-,4-,5+,6+/s2",
        "InChIKey": null,
        "Canonical SMILES": "ClC1C(Cl)C(Cl)C(Cl)C(Cl)C1Cl",
        "Molecular Formula": "C<sub>6</sub>H<sub>6</sub>Cl<sub>6</sub>",
        "Molecular Mass": "290.83",
        "Boiling Point": "288 °C",
        "Melting Point": "159-160 °C",
        "Density": "1.87 g/cm³ @ Temp: 20 °C"
    }
}