{
    "cas_no": "23516-79-2",
    "key_name": "1-(4-Aminophenyl)-2,2,2-trifluoroethanone",
    "cn_name": "1-(4-氨基苯基)-2,2,2-三氟代乙烷-1-酮;",
    "alternate_name": "Ethanone, 1-(4-aminophenyl)-2,2,2-trifluoro-;Acetophenone, 4′-amino-2,2,2-trifluoro-;1-(4-Aminophenyl)-2,2,2-trifluoroethanone;4′-Amino-2,2,2-trifluoroacetophenone;<em>p</em>-(Trifluoroacetyl)aniline;4-Trifluoroacetylaniline;4-Aminophenyl trifluoromethyl ketone;1-(4-Aminophenyl)-2,2,2-trifluoroethan-1-one;1-(4-Aminophenyl)-2,2,2-trifluoro-1-ethanone",
    "duplicated_cas_no": "",
    "SMILES": "C(C(F)(F)F)(=O)C1=CC=C(N)C=C1",
    "meta_data": {
        "InChI": "InChI=1S/C8H6F3NO/c9-8(10,11)7(13)5-1-3-6(12)4-2-5/h1-4H,12H2",
        "InChIKey": null,
        "Canonical SMILES": "O=C(C1=CC=C(N)C=C1)C(F)(F)F",
        "Molecular Formula": "C<sub>8</sub>H<sub>6</sub>F<sub>3</sub>NO",
        "Molecular Mass": "189.13",
        "Melting Point": "87 °C"
    }
}