{
    "cas_no": "1007-32-5",
    "key_name": "1-Phenyl-2-butanone",
    "cn_name": "1-苯基-2-丁酮;1-苯基-2-丁酮;",
    "alternate_name": "2-Butanone, 1-phenyl-;1-Phenyl-2-butanone;Benzyl ethyl ketone;Ethyl benzyl ketone;NSC 133447",
    "duplicated_cas_no": "",
    "SMILES": "C(C(CC)=O)C1=CC=CC=C1",
    "meta_data": {
        "InChI": "InChI=1S/C10H12O/c1-2-10(11)8-9-6-4-3-5-7-9/h3-7H,2,8H2,1H3",
        "InChIKey": null,
        "Canonical SMILES": "O=C(CC=1C=CC=CC1)CC",
        "Molecular Formula": "C<sub>10</sub>H<sub>12</sub>O",
        "Molecular Mass": "148.20",
        "Boiling Point": "230 °C",
        "Melting Point": "72-73 °C",
        "Density": "1.002 g/cm³ @ Temp: 40 °C"
    }
}