{
    "cas_no": "56-47-3",
    "key_name": "Deoxycorticosterone acetate",
    "cn_name": "醋酸去氧皮质酮;",
    "alternate_name": "Pregn-4-ene-3,20-dione, 21-(acetyloxy)-;11-Deoxycorticosterone, acetate;Pregn-4-ene-3,20-dione, 21-hydroxy-, acetate;21-(Acetyloxy)pregn-4-ene-3,20-dione;21-Acetoxy-3,20-diketopregn-4-ene;Cortacet;Cortate;Cortenil;Cortesan;Cortexone acetate;Cortifar;Cortigen;Cortinaq;Cortiron;Cortivis;Cortixyl;DCA;Decortin;Decorten;Decosterone;Decostrate;11-Deoxycorticosterone 21-acetate;Deoxycorticosterone acetate;Deoxycorticosterone 21-acetate;Deoxycortone acetate;Descorterone;Descotone;Desoxycorticosterone acetate;Desoxycortone acetate;DOC acetate;Dorcostrin;Doxo;21-Hydroxypregn-4-ene-3,20-dione 21-acetate;21-Hydroxypregn-4-ene-3,20-dione acetate;Krinocorts;11-Desoxycorticosterone acetate;Ocriten;Percorten;Percotol;4-Pregnene-3,20-dione 21-acetate;4-Pregnene-3,20-dione-21-ol acetate;Primocort;Primocortan;Sincortex;Steraq;Syncort;Syncorta;Syncortyl;Unidocan;DOCA;21-Acetoxypregn-4-ene-3,20-dione;21-Acetoxypregn-4-en-3,20-dione;Doxycamon;Arcort;Ocritena;Bio-Corten;Decosteron;NSC 9567;21-Hydroxyprogesterone 21-acetate;MeSH ID: D064791",
    "duplicated_cas_no": "39282-34-3;106111-90-4;2055762-58-6",
    "SMILES": "C[C@@]12[C@]([C@]3([C@@]([C@]4(C)C(CC3)=CC(=O)CC4)(CC1)[H])[H])(CC[C@@H]2C(COC(C)=O)=O)[H]",
    "meta_data": {
        "InChI": "InChI=1S/C23H32O4/c1-14(24)27-13-21(26)20-7-6-18-17-5-4-15-12-16(25)8-10-22(15,2)19(17)9-11-23(18,20)3/h12,17-20H,4-11,13H2,1-3H3/t17-,18-,19-,20+,22-,23-/m0/s1",
        "InChIKey": null,
        "Canonical SMILES": "O=C(OCC(=O)C1CCC2C3CCC4=CC(=O)CCC4(C)C3CCC12C)C",
        "Molecular Formula": "C<sub>23</sub>H<sub>32</sub>O<sub>4</sub>",
        "Molecular Mass": "372.50",
        "Melting Point": "157 °C"
    }
}