{
    "cas_no": "13224-99-2",
    "key_name": "4,6-<em>O</em>-Ethylidene-α-<span class=\"text-smallcaps\">D</span>-glucopyranose",
    "cn_name": "4,6-亚乙基-alpha-D-葡萄糖;",
    "alternate_name": "α-<span class=\"text-smallcaps\">D</span>-Glucopyranose, 4,6-<em>O</em>-ethylidene-;Glucopyranose, 4,6-<em>O</em>-ethylidene-, α-<span class=\"text-smallcaps\">D</span>-;Pyrano[3,2-<em>d</em>]-1,3-dioxin, α-<span class=\"text-smallcaps\">D</span>-glucopyranose deriv.;4,6-<em>O</em>-Ethylidene-α-<span class=\"text-smallcaps\">D</span>-glucopyranose;Ethylidene glucose;4,6-<em>O</em>-Ethylidene α-<span class=\"text-smallcaps\">D</span>-glucopyranose;4,6-<em>O</em>-Ethylidene-α-<span class=\"text-smallcaps\">D</span>-glucose;NSC 89726",
    "duplicated_cas_no": "34624-49-2;1195230-33-1",
    "SMILES": "O[C@H]1[C@]2([C@](O[C@H](O)[C@@H]1O)(COC(C)O2)[H])[H]",
    "meta_data": {
        "InChI": "InChI=1S/C8H14O6/c1-3-12-2-4-7(13-3)5(9)6(10)8(11)14-4/h3-11H,2H2,1H3/t3?,4-,5-,6-,7-,8+/m1/s1",
        "InChIKey": null,
        "Canonical SMILES": "OC1OC2COC(OC2C(O)C1O)C",
        "Molecular Formula": "C<sub>8</sub>H<sub>14</sub>O<sub>6</sub>",
        "Molecular Mass": "206.19",
        "Melting Point": "179-182 °C"
    }
}