{
    "cas_no": "6375-27-5",
    "key_name": "<em>N</em>-(2,5-Dimethoxyphenyl)-3-oxobutanamide",
    "cn_name": "乙酰乙酰-2,5-二甲氧基苯胺;",
    "alternate_name": "Butanamide, <em>N</em>-(2,5-dimethoxyphenyl)-3-oxo-;Acetoacetanilide, 2′,5′-dimethoxy-;<em>N</em>-(2,5-Dimethoxyphenyl)-3-oxobutanamide;2′,5′-Dimethoxyacetoacetanilide;Acetoacetyl 2,5-dimethoxyanilide;NSC 50634",
    "duplicated_cas_no": "",
    "SMILES": "N(C(CC(C)=O)=O)C1=C(OC)C=CC(OC)=C1",
    "meta_data": {
        "InChI": "InChI=1S/C12H15NO4/c1-8(14)6-12(15)13-10-7-9(16-2)4-5-11(10)17-3/h4-5,7H,6H2,1-3H3,(H,13,15)",
        "InChIKey": null,
        "Canonical SMILES": "O=C(NC1=CC(OC)=CC=C1OC)CC(=O)C",
        "Molecular Formula": "C<sub>12</sub>H<sub>15</sub>NO<sub>4</sub>",
        "Molecular Mass": "237.25",
        "Melting Point": "67-68 °C"
    }
}