{
    "cas_no": "754-12-1",
    "key_name": "2,3,3,3-Tetrafluoropropene",
    "cn_name": null,
    "alternate_name": "1-Propene, 2,3,3,3-tetrafluoro-;Propene, 2,3,3,3-tetrafluoro-;2,3,3,3-Tetrafluoro-1-propene;2,3,3,3-Tetrafluoropropene;1,1,1,2-Tetrafluoro-2-propene;HFO 1234yf;HFC 1234yf;HFC 1134yf;R 1234yf;1234yf;1,1,1,2-Tetrafluoropropene;2,3,3,3-Tetrafluoropropylene;Solstice 1234yf;HFC 1234fy;1,1,1,2-Tetrafluoro-2-propylene",
    "duplicated_cas_no": "",
    "SMILES": "C(C(=C)F)(F)(F)F",
    "meta_data": {
        "InChI": "InChI=1S/C3H2F4/c1-2(4)3(5,6)7/h1H2",
        "InChIKey": null,
        "Canonical SMILES": "FC(=C)C(F)(F)F",
        "Molecular Formula": "C<sub>3</sub>H<sub>2</sub>F<sub>4</sub>",
        "Molecular Mass": "114.04",
        "Boiling Point": "-28.3 °C",
        "Density": "0.019560 g/cm³ @ Temp: 44.4810 °C; Press: 3135 Torr"
    }
}