{
    "cas_no": "4684-12-2",
    "key_name": "4-Chloro-1-naphthalenamine",
    "cn_name": "1-氨基-4-氯萘;",
    "alternate_name": "1-Naphthalenamine, 4-chloro-;1-Naphthylamine, 4-chloro-;4-Chloro-1-naphthalenamine;1-Amino-4-chloronaphthalene;4-Chloro-1-naphthylamine;NSC 60276;(4-Chloronaphthalen-1-yl)amine",
    "duplicated_cas_no": "",
    "SMILES": "ClC=1C2=C(C(N)=CC1)C=CC=C2",
    "meta_data": {
        "InChI": "InChI=1S/C10H8ClN/c11-9-5-6-10(12)8-4-2-1-3-7(8)9/h1-6H,12H2",
        "InChIKey": null,
        "Canonical SMILES": "ClC1=CC=C(N)C=2C=CC=CC12",
        "Molecular Formula": "C<sub>10</sub>H<sub>8</sub>ClN",
        "Molecular Mass": "177.63",
        "Melting Point": "96-97 °C"
    }
}