{
    "cas_no": "121303-76-2",
    "key_name": "2-Butenoic acid, 4,4,4-trifluoro-3-(methylamino)-, ethyl ester",
    "cn_name": "3-甲基氨基-4,4,4-三氟丁烯酸乙酯;",
    "alternate_name": "2-Butenoic acid, 4,4,4-trifluoro-3-(methylamino)-, ethyl ester;Ethyl 3-(methylamino)-4,4,4-trifluoro-2-butenoate;Ethyl 4,4,4-trifluoro-3-(methylamino)crotonate;Ethyl 3-methylamino-4,4,4-trifluorocrotonate;3-(Methylamino)-4,4,4-trifluorobut-2-enoic acid ethyl ester;Ethyl 4,4,4-trifluoro-3-(methylamino)but-2-enoate;3-Methylamino-4,4,4-trifluorocrotonic acid ethyl ester",
    "duplicated_cas_no": "",
    "SMILES": "C(=CC(OCC)=O)(C(F)(F)F)NC",
    "meta_data": {
        "InChI": "InChI=1S/C7H10F3NO2/c1-3-13-6(12)4-5(11-2)7(8,9)10/h4,11H,3H2,1-2H3",
        "InChIKey": null,
        "Canonical SMILES": "O=C(OCC)C=C(NC)C(F)(F)F",
        "Molecular Formula": "C<sub>7</sub>H<sub>10</sub>F<sub>3</sub>NO<sub>2</sub>",
        "Molecular Mass": "197.15",
        "Boiling Point": "95-98 °C @ Press: 19 Torr"
    }
}