{
    "cas_no": "589-91-3",
    "key_name": "4-Methylcyclohexanol",
    "cn_name": "4-甲基环己醇;",
    "alternate_name": "Cyclohexanol, 4-methyl-;4-Methylcyclohexanol;1-Methyl-4-cyclohexanol;4-Methyl-1-cyclohexanol;4-Methylcyclohexyl alcohol;NSC 3714",
    "duplicated_cas_no": "",
    "SMILES": "CC1CCC(O)CC1",
    "meta_data": {
        "InChI": "InChI=1S/C7H14O/c1-6-2-4-7(8)5-3-6/h6-8H,2-5H2,1H3",
        "InChIKey": null,
        "Canonical SMILES": "OC1CCC(C)CC1",
        "Molecular Formula": "C<sub>7</sub>H<sub>14</sub>O",
        "Molecular Mass": "114.19",
        "Boiling Point": "173 °C",
        "Density": "0.92 g/cm³"
    }
}