{
    "cas_no": "350-03-8",
    "key_name": "3-Acetylpyridine",
    "cn_name": "3-乙酰基吡啶;",
    "alternate_name": "Ethanone, 1-(3-pyridinyl)-;Ketone, methyl 3-pyridyl;1-(3-Pyridinyl)ethanone;β-Acetylpyridine;3-Acetylpyridine;Methyl β-pyridyl ketone;Methyl 3-pyridyl ketone;3-Acetopyridine;3-Pyridyl methyl ketone;3-Pyridinyl methyl ketone;NSC 761;1-(Pyridin-3-yl)ethan-1-one;1-(Pyridin-3-yl)ethanone;Methyl pyridin-3-yl ketone;1-(3-Pyridyl)ethanone;3-Pyridylethanone",
    "duplicated_cas_no": "",
    "SMILES": "C(C)(=O)C=1C=CC=NC1",
    "meta_data": {
        "InChI": "InChI=1S/C7H7NO/c1-6(9)7-3-2-4-8-5-7/h2-5H,1H3",
        "InChIKey": null,
        "Canonical SMILES": "O=C(C=1C=NC=CC1)C",
        "Molecular Formula": "C<sub>7</sub>H<sub>7</sub>NO",
        "Molecular Mass": "121.14",
        "Boiling Point": "220 °C",
        "Melting Point": "13.5 °C"
    }
}