{
    "cas_no": "1779-58-4",
    "key_name": "Phosphonium, (2-methoxy-2-oxoethyl)triphenyl-, bromide (1:1)",
    "cn_name": "甲氧甲酰基甲基三苯基溴化膦;(甲氧基羰基甲基)三苯基溴化鏻;",
    "alternate_name": "Phosphonium, (2-methoxy-2-oxoethyl)triphenyl-, bromide (1:1);Phosphonium, (carboxymethyl)triphenyl-, bromide, methyl ester;Phosphonium, (2-methoxy-2-oxoethyl)triphenyl-, bromide;(Carboxymethyl)triphenylphosphonium bromide, methyl ester;[(Methoxycarbonyl)methyl]triphenylphosphonium bromide;Carbomethoxymethyltriphenylphosphonium bromide;(2-Methoxy-2-oxoethyl)triphenylphosphonium bromide;NSC 136109",
    "duplicated_cas_no": "201005-17-6",
    "SMILES": "[P+](CC(OC)=O)(C1=CC=CC=C1)(C2=CC=CC=C2)C3=CC=CC=C3.[Br-]",
    "meta_data": {
        "InChI": "InChI=1S/C21H20O2P.BrH/c1-23-21(22)17-24(18-11-5-2-6-12-18,19-13-7-3-8-14-19)20-15-9-4-10-16-20;/h2-16H,17H2,1H3;1H/q+1;/p-1",
        "InChIKey": null,
        "Canonical SMILES": "[Br-].O=C(OC)C[P+](C=1C=CC=CC1)(C=2C=CC=CC2)C=3C=CC=CC3",
        "Molecular Formula": "C<sub>21</sub>H<sub>20</sub>O<sub>2</sub>P.Br",
        "Molecular Mass": "",
        "Melting Point": "145-155 °C (decomp)"
    }
}