{
    "cas_no": "77671-31-9",
    "key_name": "Enoximone",
    "cn_name": "依诺昔酮;1,3-二氢-4-甲基-5-(4-甲基硫代苯甲酰)-2H-咪唑-2-酮;",
    "alternate_name": "2<em>H</em>-Imidazol-2-one, 1,3-dihydro-4-methyl-5-[4-(methylthio)benzoyl]-;1,3-Dihydro-4-methyl-5-[4-(methylthio)benzoyl]-2<em>H</em>-imidazol-2-one;MDL 17043;Fenoximone;Enoximone;RMI 17043;Perfan;Perfane;MeSH ID: D017335",
    "duplicated_cas_no": "",
    "SMILES": "C(=O)(C1=C(C)NC(=O)N1)C2=CC=C(SC)C=C2",
    "meta_data": {
        "InChI": "InChI=1S/C12H12N2O2S/c1-7-10(14-12(16)13-7)11(15)8-3-5-9(17-2)6-4-8/h3-6H,1-2H3,(H2,13,14,16)",
        "InChIKey": null,
        "Canonical SMILES": "O=C1NC(C(=O)C2=CC=C(SC)C=C2)=C(N1)C",
        "Molecular Formula": "C<sub>12</sub>H<sub>12</sub>N<sub>2</sub>O<sub>2</sub>S",
        "Molecular Mass": "248.30",
        "Melting Point": "256 °C (decomp)"
    }
}