{
    "cas_no": "927-07-1",
    "key_name": "<em>tert</em>-Butyl peroxypivalate",
    "cn_name": "过氧化新戊酸叔丁酯;",
    "alternate_name": "Propaneperoxoic acid, 2,2-dimethyl-, 1,1-dimethylethyl ester;Peroxypivalic acid, <em>tert</em>-butyl ester;<em>tert</em>-Butyl perpivalate;Lupersol 11;Trigonox 25/75;<em>tert</em>-Butyl peroxypivalate;<em>tert</em>-Butyl 2,2-dimethylperoxypropionate;<em>tert</em>-Butyl trimethylperoxyacetate;<em>tert</em>-Butyl 2,2-dimethylpropaneperoxoate;Esperox 31M;<em>tert</em>-Butyl <em>tert</em>-valeryl peroxide;Perbutyl PV;Kayaester P;Kayaester P 70;Trigonox 25C75;Trigonox 25W33;Luperox 11M75;<em>t</em>-Butyl peroxypivalate;Trigonox 25;Luperox 11;<em>t</em>-Butyl perpivalate;Pivaloyl tert-butyl peroxide;TBPV;TX 25;C 32;Tert-Butyl peroxypivalate;TBPPI 75AL",
    "duplicated_cas_no": "928322-98-9;1935692-40-2",
    "SMILES": "O(C(C(C)(C)C)=O)OC(C)(C)C",
    "meta_data": {
        "InChI": "InChI=1S/C9H18O3/c1-8(2,3)7(10)11-12-9(4,5)6/h1-6H3",
        "InChIKey": null,
        "Canonical SMILES": "O=C(OOC(C)(C)C)C(C)(C)C",
        "Molecular Formula": "C<sub>9</sub>H<sub>18</sub>O<sub>3</sub>",
        "Molecular Mass": "174.24",
        "Boiling Point": "63-65 °C @ Press: 10-11 Torr",
        "Density": "0.9092 g/cm³ @ Temp: 20 °C"
    }
}