{
    "cas_no": "817204-33-4",
    "key_name": "2′-Deoxy-2′-fluoro-2′-<em>C</em>-methylcytidine",
    "cn_name": null,
    "alternate_name": "Cytidine, 2′-deoxy-2′-fluoro-2′-methyl-, (2′<em>R</em>)-;(2′<em>R</em>)-2′-Deoxy-2′-fluoro-2′-methylcytidine;PSI 6130;R 1656;2′-Deoxy-2′-fluoro-2′-<em>C</em>-methylcytidine;2′-Deoxy-2′-fluoro-2′-C-methylcytidine",
    "duplicated_cas_no": "1001913-07-0",
    "SMILES": "C[C@]1(F)[C@@H](O[C@H](CO)[C@H]1O)N2C(=O)N=C(N)C=C2",
    "meta_data": {
        "InChI": "InChI=1S/C10H14FN3O4/c1-10(11)7(16)5(4-15)18-8(10)14-3-2-6(12)13-9(14)17/h2-3,5,7-8,15-16H,4H2,1H3,(H2,12,13,17)/t5-,7-,8-,10-/m1/s1",
        "InChIKey": null,
        "Canonical SMILES": "O=C1N=C(N)C=CN1C2OC(CO)C(O)C2(F)C",
        "Molecular Formula": "C<sub>10</sub>H<sub>14</sub>FN<sub>3</sub>O<sub>4</sub>",
        "Molecular Mass": "259.23",
        "Melting Point": "216.4-218.0 °C"
    }
}