{
    "cas_no": "461-91-6",
    "key_name": "Arsinous acid, bis(trifluoromethyl)-, anhydride",
    "cn_name": null,
    "alternate_name": "Arsinous acid, bis(trifluoromethyl)-, anhydride;Arsine, oxybis[bis(trifluoromethyl)-",
    "duplicated_cas_no": "",
    "SMILES": "O([As](C(F)(F)F)C(F)(F)F)[As](C(F)(F)F)C(F)(F)F",
    "meta_data": {
        "InChI": "InChI=1S/C4As2F12O/c7-1(8,9)5(2(10,11)12)19-6(3(13,14)15)4(16,17)18",
        "InChIKey": null,
        "Canonical SMILES": "FC(F)(F)[As](O[As](C(F)(F)F)C(F)(F)F)C(F)(F)F",
        "Molecular Formula": "C<sub>4</sub>As<sub>2</sub>F<sub>12</sub>O",
        "Molecular Mass": "441.87",
        "Boiling Point": "100 °C"
    }
}