{
    "cas_no": "943-17-9",
    "key_name": "Etilefrine hydrochloride",
    "cn_name": "盐酸依替福林;4-羟基-alpha-((乙基氨基)甲基)-苄醇盐酸盐;",
    "alternate_name": "Benzenemethanol, α-[(ethylamino)methyl]-3-hydroxy-, hydrochloride (1:1);Benzyl alcohol, α-[(ethylamino)methyl]-<em>m</em>-hydroxy-, hydrochloride;Benzenemethanol, α-[(ethylamino)methyl]-3-hydroxy-, hydrochloride;α-[(Ethylamino)methyl]-<em>m</em>-hydroxybenzyl alcohol hydrochloride;1-(3-Hydroxyphenyl)-2-ethylaminoethanol hydrochloride;Etilefrine hydrochloride;Funasol;<em>dl</em>-Effortil hydrochloride;(±)-<em>N</em>-Ethylnorphenylephrine hydrochloride;<em>dl</em>-<em>N</em>-Ethylnorphenylephrine hydrochloride;<em>dl</em>-1-(3-Hydroxyphenyl)-1-hydroxy-2-ethylaminoethane hydrochloride;<em>dl</em>-1-(3-Hydroxyphenyl)-2-ethylaminoethanol hydrochloride;<em>dl</em>-Ethylphenylephrine hydrochloride;(±)-Ethylphenylephrine hydrochloride;Ethyl adrianol;Effontil;Effortil;Updormin;Phetanol;Ethylephrine hydrochloride;Tonus-Forte;Apocretin;Eti-Puren;Kertasin;<em>dl</em>-Etilefrin hydrochloride;Circupon;Effortilvet;Pulsamin",
    "duplicated_cas_no": "534-87-2",
    "SMILES": "C(CNCC)(O)C1=CC(O)=CC=C1.Cl",
    "meta_data": {
        "InChI": "InChI=1S/C10H15NO2.ClH/c1-2-11-7-10(13)8-4-3-5-9(12)6-8;/h3-6,10-13H,2,7H2,1H3;1H",
        "InChIKey": null,
        "Canonical SMILES": "Cl.OC1=CC=CC(=C1)C(O)CNCC",
        "Molecular Formula": "C<sub>10</sub>H<sub>15</sub>NO<sub>2</sub>.ClH",
        "Molecular Mass": "",
        "Melting Point": "121 °C"
    }
}