{
    "cas_no": "2567-14-8",
    "key_name": "1,1,3-Trichloro-1-propene",
    "cn_name": null,
    "alternate_name": "1-Propene, 1,1,3-trichloro-;Propene, 1,1,3-trichloro-;1,1,3-Trichloro-1-propene;1,1,3-Trichloropropene;1,3,3-Trichloro-2-propene;3,3-Dichloroallyl chloride;HCC 1240za;HCC-1240za;HCO-1240za",
    "duplicated_cas_no": "",
    "SMILES": "C(=C(Cl)Cl)CCl",
    "meta_data": {
        "InChI": "InChI=1S/C3H3Cl3/c4-2-1-3(5)6/h1H,2H2",
        "InChIKey": null,
        "Canonical SMILES": "ClC(Cl)=CCCl",
        "Molecular Formula": "C<sub>3</sub>H<sub>3</sub>Cl<sub>3</sub>",
        "Molecular Mass": "145.41",
        "Boiling Point": "131.5 °C",
        "Density": "1.401 g/cm³ @ Temp: 18 °C"
    }
}