{
    "cas_no": "22042-73-5",
    "key_name": "4-(2-Hydroxyethoxy)benzaldehyde",
    "cn_name": "4-(2-羟基乙氧基)苯甲醛;",
    "alternate_name": "Benzaldehyde, 4-(2-hydroxyethoxy)-;Benzaldehyde, <em>p</em>-(2-hydroxyethoxy)-;4-(2-Hydroxyethoxy)benzaldehyde;2-(<em>p</em>-Formylphenoxy)ethanol;<em>p</em>-Hydroxyethoxybenzaldehyde;<em>p</em>-(2-Hydroxyethoxy)benzaldehyde",
    "duplicated_cas_no": "",
    "SMILES": "O(CCO)C1=CC=C(C=O)C=C1",
    "meta_data": {
        "InChI": "InChI=1S/C9H10O3/c10-5-6-12-9-3-1-8(7-11)2-4-9/h1-4,7,10H,5-6H2",
        "InChIKey": null,
        "Canonical SMILES": "O=CC1=CC=C(OCCO)C=C1",
        "Molecular Formula": "C<sub>9</sub>H<sub>10</sub>O<sub>3</sub>",
        "Molecular Mass": "166.17",
        "Melting Point": "37 °C"
    }
}