{
    "cas_no": "535-77-3",
    "key_name": "<em>m</em>-Cymene",
    "cn_name": "间异丙基甲苯;M-异丙基甲苯;",
    "alternate_name": "Benzene, 1-methyl-3-(1-methylethyl)-;<em>m</em>-Cymene;1-Methyl-3-(1-methylethyl)benzene;<em>m</em>-Isopropyltoluene;β-Cymene;1-Methyl-3-isopropylbenzene;<em>m</em>-Cymol;1-Isopropyl-3-methylbenzene;<em>m</em>-Methylisopropylbenzene;Meta-cymene;3-Isopropyltoluene;NSC 73975;1-Methyl-3-(propan-2-yl)benzene",
    "duplicated_cas_no": "",
    "SMILES": "C(C)(C)C1=CC(C)=CC=C1",
    "meta_data": {
        "InChI": "InChI=1S/C10H14/c1-8(2)10-6-4-5-9(3)7-10/h4-8H,1-3H3",
        "InChIKey": null,
        "Canonical SMILES": "C=1C=C(C=C(C1)C(C)C)C",
        "Molecular Formula": "C<sub>10</sub>H<sub>14</sub>",
        "Molecular Mass": "134.22",
        "Boiling Point": "175.1 °C",
        "Melting Point": "-63.7 °C",
        "Density": "0.8610 g/cm³ @ Temp: 20 °C"
    }
}