{
    "cas_no": "110683-10-8",
    "key_name": "<em>N</em>-(<em>p</em>-Amylcinnamoyl)anthranilic acid",
    "cn_name": null,
    "alternate_name": "Benzoic acid, 2-[[1-oxo-3-(4-pentylphenyl)-2-propen-1-yl]amino]-;Benzoic acid, 2-[[1-oxo-3-(4-pentylphenyl)-2-propenyl]amino]-;2-[[1-Oxo-3-(4-pentylphenyl)-2-propen-1-yl]amino]benzoic acid;<em>N</em>-(4-Pentylcinnamoyl)anthranilic acid;<em>N</em>-(<em>p</em>-Amylcinnamoyl)anthranilic acid",
    "duplicated_cas_no": "",
    "SMILES": "N(C(C=CC1=CC=C(CCCCC)C=C1)=O)C2=C(C(O)=O)C=CC=C2",
    "meta_data": {
        "InChI": "InChI=1S/C21H23NO3/c1-2-3-4-7-16-10-12-17(13-11-16)14-15-20(23)22-19-9-6-5-8-18(19)21(24)25/h5-6,8-15H,2-4,7H2,1H3,(H,22,23)(H,24,25)",
        "InChIKey": null,
        "Canonical SMILES": "O=C(O)C=1C=CC=CC1NC(=O)C=CC2=CC=C(C=C2)CCCCC",
        "Molecular Formula": "C<sub>21</sub>H<sub>23</sub>NO<sub>3</sub>",
        "Molecular Mass": "337.41",
        "Melting Point": "175-177 °C"
    }
}