{
    "cas_no": "608-08-2",
    "key_name": "Indoxyl acetate",
    "cn_name": "吲哚乙酸酯;",
    "alternate_name": "1<em>H</em>-Indol-3-ol, 3-acetate;Indol-3-ol, acetate (ester);Indoxyl acetate;1<em>H</em>-Indol-3-ol, acetate (ester);Indol-3-ol, acetate;3-Acetoxyindole;3-Indoxyl acetate;3-Indolyl acetate;NSC 13964;1<em>H</em>-Indol-3-yl acetate",
    "duplicated_cas_no": "",
    "SMILES": "O(C(C)=O)C=1C=2C(NC1)=CC=CC2",
    "meta_data": {
        "InChI": "InChI=1S/C10H9NO2/c1-7(12)13-10-6-11-9-5-3-2-4-8(9)10/h2-6,11H,1H3",
        "InChIKey": null,
        "Canonical SMILES": "O=C(OC1=CNC=2C=CC=CC12)C",
        "Molecular Formula": "C<sub>10</sub>H<sub>9</sub>NO<sub>2</sub>",
        "Molecular Mass": "175.18",
        "Melting Point": "129 °C"
    }
}