{
    "cas_no": "923-02-4",
    "key_name": "Methylolmethacrylamide",
    "cn_name": null,
    "alternate_name": "2-Propenamide, <em>N</em>-(hydroxymethyl)-2-methyl-;Acrylamide, <em>N</em>-(hydroxymethyl)-2-methyl-;<em>N</em>-(Hydroxymethyl)-2-methyl-2-propenamide;<em>N</em>-Methylolmethacrylamide;Methylolmethacrylamide;<em>N</em>-(Hydroxymethyl)methacrylamide;NSC 2691;(Hydroxymethyl)methacrylamide",
    "duplicated_cas_no": "134617-55-3",
    "SMILES": "C(NCO)(C(C)=C)=O",
    "meta_data": {
        "InChI": "InChI=1S/C5H9NO2/c1-4(2)5(8)6-3-7/h7H,1,3H2,2H3,(H,6,8)",
        "InChIKey": null,
        "Canonical SMILES": "O=C(NCO)C(=C)C",
        "Molecular Formula": "C<sub>5</sub>H<sub>9</sub>NO<sub>2</sub>",
        "Molecular Mass": "115.13",
        "Melting Point": "53.5-54 °C"
    }
}