{
    "cas_no": "95-71-6",
    "key_name": "Methylhydroquinone",
    "cn_name": "2,5-二羟基甲苯;",
    "alternate_name": "1,4-Benzenediol, 2-methyl-;Hydroquinone, methyl-;2-Methyl-1,4-benzenediol;Methylhydroquinone;<em>p</em>-Toluhydroquinol;<em>p</em>-Toluhydroquinone;Toluhydroquinone;2-Methylhydroquinone;2,5-Dihydroxytoluene;Methyl-<em>p</em>-hydroquinone;<em>p</em>-Toluquinol;Tolylhydroquinone;THQ;2,5-Toluenediol;1,4-Dihydroxy-2-methylbenzene;2-Methyl-<em>p</em>-hydroquinone;2-Methyl-1,4-dihydroxybenzene;2-Methyl-1,4-hydroquinone;4-Hydroxy-2-methylphenol;M-HQ;NSC 4962;<em>o</em>-Methylhydroquinone;<em>m</em>-Methylhydroquinone;Methyl 1,4-dihydroxybenzene;Pyrolin",
    "duplicated_cas_no": "96937-50-7;135648-79-2;140627-29-8;29763-99-3;65916-21-4;78446-96-5",
    "SMILES": "CC1=C(O)C=CC(O)=C1",
    "meta_data": {
        "InChI": "InChI=1S/C7H8O2/c1-5-4-6(8)2-3-7(5)9/h2-4,8-9H,1H3",
        "InChIKey": null,
        "Canonical SMILES": "OC1=CC=C(O)C(=C1)C",
        "Molecular Formula": "C<sub>7</sub>H<sub>8</sub>O<sub>2</sub>",
        "Molecular Mass": "124.14",
        "Boiling Point": "272 °C",
        "Melting Point": "128 °C",
        "Density": "2.35 g/cm³"
    }
}