{
    "cas_no": "609-21-2",
    "key_name": "4-Amino-2,6-dibromophenol",
    "cn_name": "4-氨基-2,6-二溴苯酚;",
    "alternate_name": "Phenol, 4-amino-2,6-dibromo-;4-Amino-2,6-dibromophenol;2,6-Dibromo-4-aminophenol;3,5-Dibromo-4-hydroxyaniline;NSC 6217;4-Hydroxy-3,5-dibromoaniline",
    "duplicated_cas_no": "",
    "SMILES": "OC1=C(Br)C=C(N)C=C1Br",
    "meta_data": {
        "InChI": "InChI=1S/C6H5Br2NO/c7-4-1-3(9)2-5(8)6(4)10/h1-2,10H,9H2",
        "InChIKey": null,
        "Canonical SMILES": "BrC=1C=C(N)C=C(Br)C1O",
        "Molecular Formula": "C<sub>6</sub>H<sub>5</sub>Br<sub>2</sub>NO",
        "Molecular Mass": "266.92",
        "Melting Point": "191-193 °C"
    }
}