{
    "cas_no": "3034-34-2",
    "key_name": "4-Cyanobenzamide",
    "cn_name": "4-氰基苯甲酰胺;",
    "alternate_name": "Benzamide, 4-cyano-;Benzamide, <em>p</em>-cyano-;4-Cyanobenzamide;<em>p</em>-Cyanobenzamide;4-Carbamoylbenzonitrile",
    "duplicated_cas_no": "",
    "SMILES": "C(N)(=O)C1=CC=C(C#N)C=C1",
    "meta_data": {
        "InChI": "InChI=1S/C8H6N2O/c9-5-6-1-3-7(4-2-6)8(10)11/h1-4H,(H2,10,11)",
        "InChIKey": null,
        "Canonical SMILES": "N#CC1=CC=C(C=C1)C(=O)N",
        "Molecular Formula": "C<sub>8</sub>H<sub>6</sub>N<sub>2</sub>O",
        "Molecular Mass": "146.15",
        "Melting Point": "224 °C"
    }
}