{
    "cas_no": "17159-80-7",
    "key_name": "Ethyl 4-hydroxycyclohexanecarboxylate",
    "cn_name": null,
    "alternate_name": "Cyclohexanecarboxylic acid, 4-hydroxy-, ethyl ester;Ethyl 4-hydroxycyclohexanecarboxylate;4-Hydroxycyclohexanecarboxylic acid ethyl ester;Ethyl 4-hydroxycyclohexylcarboxylate;4-Hydroxycyclohexane-1-carboxylic acid ethyl ester;Ethyl 4-hydroxycyclohexane-1-carboxylate",
    "duplicated_cas_no": "",
    "SMILES": "C(OCC)(=O)C1CCC(O)CC1",
    "meta_data": {
        "InChI": "InChI=1S/C9H16O3/c1-2-12-9(11)7-3-5-8(10)6-4-7/h7-8,10H,2-6H2,1H3",
        "InChIKey": null,
        "Canonical SMILES": "O=C(OCC)C1CCC(O)CC1",
        "Molecular Formula": "C<sub>9</sub>H<sub>16</sub>O<sub>3</sub>",
        "Molecular Mass": "172.22",
        "Boiling Point": "136 °C @ Press: 8 Torr",
        "Density": "1.0667 g/cm³ @ Temp: 20 °C"
    }
}