{
    "cas_no": "658-93-5",
    "key_name": "(3,4-Difluorophenyl)acetic acid",
    "cn_name": "3,4-二氟苯乙酸;",
    "alternate_name": "Benzeneacetic acid, 3,4-difluoro-;Acetic acid, (3,4-difluorophenyl)-;3,4-Difluorobenzeneacetic acid;(3,4-Difluorophenyl)acetic acid;2-(3,4-Difluorophenyl)acetic acid",
    "duplicated_cas_no": "",
    "SMILES": "C(C(O)=O)C1=CC(F)=C(F)C=C1",
    "meta_data": {
        "InChI": "InChI=1S/C8H6F2O2/c9-6-2-1-5(3-7(6)10)4-8(11)12/h1-3H,4H2,(H,11,12)",
        "InChIKey": null,
        "Canonical SMILES": "O=C(O)CC1=CC=C(F)C(F)=C1",
        "Molecular Formula": "C<sub>8</sub>H<sub>6</sub>F<sub>2</sub>O<sub>2</sub>",
        "Molecular Mass": "172.13",
        "Melting Point": "40-42 °C"
    }
}