{
    "cas_no": "88950-64-5",
    "key_name": "1-[(<em>tert</em>-Butoxycarbonyl)amino]cyclopropanecarboxylic acid",
    "cn_name": "Boc-1-氨基环丙基甲酸;1-(叔丁氧羰基氨基)环丙烷甲酸;",
    "alternate_name": "Cyclopropanecarboxylic acid, 1-[[(1,1-dimethylethoxy)carbonyl]amino]-;1-[[(1,1-Dimethylethoxy)carbonyl]amino]cyclopropanecarboxylic acid;1-[(<em>tert</em>-Butoxycarbonyl)amino]cyclopropanecarboxylic acid;<em>N</em>-<em>tert</em>-Butoxycarbonyl 1-amino-1-cyclopropanecarboxylic acid;1-[<em>N</em>-(<em>tert</em>-Butoxycarbonyl)amino]cyclopropanecarboxylic acid;1-(Ter<em>t</em>-Butoxycarbonylamino)cyclopropanecarboxylic acid;1-(Boc-amino)cyclopropanecarboxylic acid;Boc-Acpc-OH;1-[[(<em>tert</em>-Butoxy)carbonyl]amino]cyclopropane-1-carboxylic acid;1-[(2-Methylpropan-2-yl)oxycarbonylamino]cyclopropane-1-carboxylic acid;1-((<em>tert</em>-Butoxycarbonyl)amino)cyclopropan-1-carboxylic acid",
    "duplicated_cas_no": "",
    "SMILES": "N(C(OC(C)(C)C)=O)C1(C(O)=O)CC1",
    "meta_data": {
        "InChI": "InChI=1S/C9H15NO4/c1-8(2,3)14-7(13)10-9(4-5-9)6(11)12/h4-5H2,1-3H3,(H,10,13)(H,11,12)",
        "InChIKey": null,
        "Canonical SMILES": "O=C(OC(C)(C)C)NC1(C(=O)O)CC1",
        "Molecular Formula": "C<sub>9</sub>H<sub>15</sub>NO<sub>4</sub>",
        "Molecular Mass": "201.22",
        "Melting Point": "174.4-175.3 °C"
    }
}