{
    "cas_no": "2623-87-2",
    "key_name": "4-Bromobutanoic acid",
    "cn_name": "4-溴丁酸;",
    "alternate_name": "Butanoic acid, 4-bromo-;Butyric acid, 4-bromo-;4-Bromobutanoic acid;4-Bromobutyric acid;γ-Bromobutyric acid;Carboxypropyl bromide;NSC 99322",
    "duplicated_cas_no": "671195-28-1;2131799-72-7",
    "SMILES": "C(C(O)=O)CCBr",
    "meta_data": {
        "InChI": "InChI=1S/C4H7BrO2/c5-3-1-2-4(6)7/h1-3H2,(H,6,7)",
        "InChIKey": null,
        "Canonical SMILES": "O=C(O)CCCBr",
        "Molecular Formula": "C<sub>4</sub>H<sub>7</sub>BrO<sub>2</sub>",
        "Molecular Mass": "167.00",
        "Boiling Point": "163-165 °C @ Press: 2 Torr",
        "Melting Point": "42-42.5 °C"
    }
}