{
    "cas_no": "519-23-3",
    "key_name": "Ellipticine",
    "cn_name": null,
    "alternate_name": "6<em>H</em>-Pyrido[4,3-<em>b</em>]carbazole, 5,11-dimethyl-;Ellipticine;5,11-Dimethyl-6<em>H</em>-pyrido[4,3-<em>b</em>]carbazole;NSC 71795;CP 5",
    "duplicated_cas_no": "",
    "SMILES": "CC1=C2C(=C(C)C=3C1=CN=CC3)NC=4C2=CC=CC4",
    "meta_data": {
        "InChI": "InChI=1S/C17H14N2/c1-10-14-9-18-8-7-12(14)11(2)17-16(10)13-5-3-4-6-15(13)19-17/h3-9,19H,1-2H3",
        "InChIKey": null,
        "Canonical SMILES": "N=1C=CC=2C(C1)=C(C=3C=4C=CC=CC4NC3C2C)C",
        "Molecular Formula": "C<sub>17</sub>H<sub>14</sub>N<sub>2</sub>",
        "Molecular Mass": "246.31",
        "Melting Point": "313 °C"
    }
}