{
    "cas_no": "1191-41-9",
    "key_name": "Ethyl linolenate",
    "cn_name": null,
    "alternate_name": "9,12,15-Octadecatrienoic acid, ethyl ester, (9<em>Z</em>,12<em>Z</em>,15<em>Z</em>)-;Linolenic acid, ethyl ester;9,12,15-Octadecatrienoic acid, ethyl ester, (<em>Z</em>,<em>Z</em>,<em>Z</em>)-;Ethyl linolenate;Ethyl <em>cis</em>,<em>cis</em>,<em>cis</em>-9,12,15-octadecatrienoate;Ethyl α-linolenate;Ethyl (<em>Z</em>,<em>Z</em>,<em>Z</em>)-9,12,15-octadecatrienoate;Ethyl linolenoate;(<em>Z</em>,<em>Z</em>,<em>Z</em>)-9,12,15-Octadecatrienoic acid ethyl ester;(Z,Z,Z)-9,12,15-Octadecatrienoic acid ethyl ester",
    "duplicated_cas_no": "34079-45-3",
    "SMILES": "C(CCCCC/C=C\\C/C=C\\C/C=C\\CC)CC(OCC)=O",
    "meta_data": {
        "InChI": "InChI=1S/C20H34O2/c1-3-5-6-7-8-9-10-11-12-13-14-15-16-17-18-19-20(21)22-4-2/h5-6,8-9,11-12H,3-4,7,10,13-19H2,1-2H3/b6-5-,9-8-,12-11-",
        "InChIKey": null,
        "Canonical SMILES": "O=C(OCC)CCCCCCCC=CCC=CCC=CCC",
        "Molecular Formula": "C<sub>20</sub>H<sub>34</sub>O<sub>2</sub>",
        "Molecular Mass": "306.48",
        "Boiling Point": "197 °C @ Press: 6.5 Torr"
    }
}