{
    "cas_no": "382-44-5",
    "key_name": "11β-Hydroxyandrost-4-ene-3,17-dione",
    "cn_name": "4-雄烯-11β-醇-3,17-二酮;",
    "alternate_name": "Androst-4-ene-3,17-dione, 11-hydroxy-, (11β)-;Androst-4-ene-3,17-dione, 11β-hydroxy-;(11β)-11-Hydroxyandrost-4-ene-3,17-dione;Δ<sup>4</sup>-Androsten-11β-ol-3,17-dione;11β-Hydroxy-Δ<sup>4</sup>-androstene-3,17-dione;11β-Hydroxyandrost-4-ene-3,17-dione;4-Androstene-11β-ol-3,17-dione;4-Androsten-11β-ol-3,17-dione;Δ<sup>4</sup>-Androstene-11β-ol-3,17-dione;U 2826;11β-Hydroxy-4-androsten-3,17-dione;NSC 12167;NSC 17102",
    "duplicated_cas_no": "",
    "SMILES": "C[C@@]12[C@@]3([C@]([C@]4([C@](C)(C[C@@H]3O)C(=O)CC4)[H])(CCC1=CC(=O)CC2)[H])[H]",
    "meta_data": {
        "InChI": "InChI=1S/C19H26O3/c1-18-8-7-12(20)9-11(18)3-4-13-14-5-6-16(22)19(14,2)10-15(21)17(13)18/h9,13-15,17,21H,3-8,10H2,1-2H3/t13-,14-,15-,17+,18-,19-/m0/s1",
        "InChIKey": null,
        "Canonical SMILES": "O=C1C=C2CCC3C4CCC(=O)C4(C)CC(O)C3C2(C)CC1",
        "Molecular Formula": "C<sub>19</sub>H<sub>26</sub>O<sub>3</sub>",
        "Molecular Mass": "302.41",
        "Melting Point": "195.5-200.5 °C"
    }
}