{
    "cas_no": "426-65-3",
    "key_name": "Ethyl 2,2,3,3,3-pentafluoropropanoate",
    "cn_name": "五氟丙酸乙酯;五氟丙酸乙酯;五氟丙酸乙酯, 98+%;",
    "alternate_name": "Propanoic acid, 2,2,3,3,3-pentafluoro-, ethyl ester;Propionic acid, pentafluoro-, ethyl ester;Propanoic acid, pentafluoro-, ethyl ester;Ethyl 2,2,3,3,3-pentafluoropropanoate;Ethyl pentafluoropropionate;Ethyl perfluoropropionate;Pentafluoropropanoic acid ethyl ester;Ethyl pentafluoropropanoate;Ethyl 2,2,3,3,3-pentafluoropropionate",
    "duplicated_cas_no": "",
    "SMILES": "C(C(OCC)=O)(C(F)(F)F)(F)F",
    "meta_data": {
        "InChI": "InChI=1S/C5H5F5O2/c1-2-12-3(11)4(6,7)5(8,9)10/h2H2,1H3",
        "InChIKey": null,
        "Canonical SMILES": "O=C(OCC)C(F)(F)C(F)(F)F",
        "Molecular Formula": "C<sub>5</sub>H<sub>5</sub>F<sub>5</sub>O<sub>2</sub>",
        "Molecular Mass": "192.08",
        "Boiling Point": "73 °C",
        "Density": "1.289 g/cm³ @ Temp: 20 °C"
    }
}