{
    "cas_no": "30633-94-4",
    "key_name": "2-[[(4-Butylphenyl)imino]methyl]-5-methoxyphenol",
    "cn_name": "N-(4-甲氧基-2-羟基苯亚甲基)-4-丁基苯胺;",
    "alternate_name": "Phenol, 2-[[(4-butylphenyl)imino]methyl]-5-methoxy-;Phenol, 2-[<em>N</em>-(<em>p</em>-butylphenyl)formimidoyl]-5-methoxy-;2-[[(4-Butylphenyl)imino]methyl]-5-methoxyphenol;<em>N</em>-(<em>o</em>-Hydroxy-<em>p</em>-methoxybenzylidene)-<em>p</em>-butylaniline;<em>N</em>-(2-Hydroxy-4-methoxybenzylidene)-4′-butylaniline;<em>o</em>-Hydroxy-<em>p</em>-methoxybenzylidene-<em>p</em>′-<em>n</em>-butylaniline;<em>N</em>-(2-Hydroxy-4-methoxybenzylidene)-<em>p</em>-butylaniline",
    "duplicated_cas_no": "",
    "SMILES": "C(=NC1=CC=C(CCCC)C=C1)C2=C(O)C=C(OC)C=C2",
    "meta_data": {
        "InChI": "InChI=1S/C18H21NO2/c1-3-4-5-14-6-9-16(10-7-14)19-13-15-8-11-17(21-2)12-18(15)20/h6-13,20H,3-5H2,1-2H3",
        "InChIKey": null,
        "Canonical SMILES": "OC1=CC(OC)=CC=C1C=NC2=CC=C(C=C2)CCCC",
        "Molecular Formula": "C<sub>18</sub>H<sub>21</sub>NO<sub>2</sub>",
        "Molecular Mass": "283.36",
        "Melting Point": "314.30 °C"
    }
}