{
    "cas_no": "17805-19-5",
    "key_name": "Diphenyl-<em>o</em>-carborane",
    "cn_name": null,
    "alternate_name": "1,2-Dicarbadodecaborane(12), 1,2-diphenyl-;1,2-Diphenyl-1,2-dicarbadodecaborane(12);Diphenyl-<em>o</em>-carborane;1,2-Diphenyl-<em>o</em>-carborane;1,2-Diphenylbarene;1,2-Diphenyl-1,2-dicarba-<em>closo</em>-dodecaborane(12);1,2-Diphenyl-1,2-dicarba-<em>closo</em>-decaborane;1,2-Diphenyl-<em>closo</em>-1,2-dicarbadodecaborane(12)",
    "duplicated_cas_no": "11065-83-1;75597-22-7",
    "SMILES": "C1234(C567([BH]189[BH]2%10%11[BH]3%12%13[BH]45%14[BH]6%15%16[BH]78%17[BH]9%10%18[BH]%12%11%19[BH]%14%13%15[BH]%16%17%18%19)C%20=CC=CC=C%20)C%21=CC=CC=C%21",
    "meta_data": {
        "InChI": "InChI=1S/C14H20B10/c1-3-7-11(8-4-1)13-14(12-9-5-2-6-10-12)15(13)17(13)18(13)16(13,14)20(14)19(14,15)21(15,17)23(17,18)22(16,18,20)24(19,20,21)23/h1-10,15-24H",
        "InChIKey": null,
        "Canonical SMILES": "C=1C=CC(=CC1)C2345[BH]678[BH]9%10%11[BH]%12%13%14[BH]96%15[BH]%12%16%17[BH]%13%18%19[BH]%10%14%20[BH]%1175[BH]%20%182C%16%194(C=%21C=CC=CC%21)[BH]%158%173",
        "Molecular Formula": "C<sub>14</sub>H<sub>20</sub>B<sub>10</sub>",
        "Molecular Mass": "",
        "Melting Point": "148-149 °C"
    }
}