{
    "cas_no": "33421-43-1",
    "key_name": "2,2′-Bipyridine, 1-oxide",
    "cn_name": "2,2-二吡啶基氮氧化物;",
    "alternate_name": "2,2′-Bipyridine, 1-oxide;2,2′-Dipyridyl <em>N</em>-oxide;2,2′-Bipyridine <em>N</em>-oxide;2,2′-Bipyridine monooxide;2,2′-Dipyridyl 1-oxide;2,2′-Bipyridyl <em>N</em>-oxide;[2,2′]Bipyridinyl <em>N</em>-oxide;<em>N</em>-Oxide-2,2′-bipyridine;1-Oxido-2-pyridin-2-ylpyridin-1-ium;2-(Pyridin-2-yl)pyridin-1-ium-1-olate",
    "duplicated_cas_no": "344287-76-9",
    "SMILES": "O=N=1C(C2=CC=CC=N2)=CC=CC1",
    "meta_data": {
        "InChI": "InChI=1S/C10H8N2O/c13-12-8-4-2-6-10(12)9-5-1-3-7-11-9/h1-8H",
        "InChIKey": null,
        "Canonical SMILES": "O=N=1C=CC=CC1C2=NC=CC=C2",
        "Molecular Formula": "C<sub>10</sub>H<sub>8</sub>N<sub>2</sub>O",
        "Molecular Mass": "172.18",
        "Melting Point": "58.5-59.5 °C"
    }
}