{
    "cas_no": "20357-25-9",
    "key_name": "DMNB",
    "cn_name": "6-硝基藜芦醛;2-硝基-4,5-二甲氧基苯甲醛;",
    "alternate_name": "Benzaldehyde, 4,5-dimethoxy-2-nitro-;Veratraldehyde, 6-nitro-;4,5-Dimethoxy-2-nitrobenzaldehyde;3,4-Dimethoxy-6-nitrobenzaldehyde;6-Nitroveratraldehyde;4-<em>O</em>-Methyl-6-nitrovanillin;2-Nitro-4,5-dimethoxybenzaldehyde;NSC 65590;DMNB",
    "duplicated_cas_no": "",
    "SMILES": "N(=O)(=O)C1=C(C=O)C=C(OC)C(OC)=C1",
    "meta_data": {
        "InChI": "InChI=1S/C9H9NO5/c1-14-8-3-6(5-11)7(10(12)13)4-9(8)15-2/h3-5H,1-2H3",
        "InChIKey": null,
        "Canonical SMILES": "O=CC1=CC(OC)=C(OC)C=C1N(=O)=O",
        "Molecular Formula": "C<sub>9</sub>H<sub>9</sub>NO<sub>5</sub>",
        "Molecular Mass": "211.17",
        "Melting Point": "133 °C"
    }
}