{
    "cas_no": "17918-14-8",
    "key_name": "2,5-Dimethoxybenzoyl chloride",
    "cn_name": "2,5-二甲氧基苯甲酰氯;",
    "alternate_name": "Benzoyl chloride, 2,5-dimethoxy-;2,5-Dimethoxybenzoyl chloride;2,5-Dimethoxyphenylcarbonyl chloride",
    "duplicated_cas_no": "",
    "SMILES": "C(Cl)(=O)C1=C(OC)C=CC(OC)=C1",
    "meta_data": {
        "InChI": "InChI=1S/C9H9ClO3/c1-12-6-3-4-8(13-2)7(5-6)9(10)11/h3-5H,1-2H3",
        "InChIKey": null,
        "Canonical SMILES": "O=C(Cl)C1=CC(OC)=CC=C1OC",
        "Molecular Formula": "C<sub>9</sub>H<sub>9</sub>ClO<sub>3</sub>",
        "Molecular Mass": "200.62",
        "Boiling Point": "163-164 °C @ Press: 15 Torr",
        "Melting Point": "53-54 °C"
    }
}