{
    "cas_no": "94497-51-5",
    "key_name": "Tamibarotene",
    "cn_name": "他米巴罗汀;4-[(5,5,8,8-四甲基-6,7-二氢萘-2-基)氨基甲酰]苯甲酸;",
    "alternate_name": "Benzoic acid, 4-[[(5,6,7,8-tetrahydro-5,5,8,8-tetramethyl-2-naphthalenyl)amino]carbonyl]-;4-[[(5,6,7,8-Tetrahydro-5,5,8,8-tetramethyl-2-naphthalenyl)amino]carbonyl]benzoic acid;Am 80;Tamibarotene;Am 80 (pharmaceutical);NSC 608000;Retinoid AM 80;Amnolake;4-[(5,6,7,8-Tetrahydro-5,5,8,8-tetramethyl-2-naphthalenyl)carbamoyl]benzoic acid;RR 110;SY 1425;Am 80 (RAR agonist);INNO 507;TM 441;TOS 80T;OP 01",
    "duplicated_cas_no": "",
    "SMILES": "CC1(C)C=2C(=CC(NC(=O)C3=CC=C(C(O)=O)C=C3)=CC2)C(C)(C)CC1",
    "meta_data": {
        "InChI": "InChI=1S/C22H25NO3/c1-21(2)11-12-22(3,4)18-13-16(9-10-17(18)21)23-19(24)14-5-7-15(8-6-14)20(25)26/h5-10,13H,11-12H2,1-4H3,(H,23,24)(H,25,26)",
        "InChIKey": null,
        "Canonical SMILES": "O=C(O)C1=CC=C(C=C1)C(=O)NC2=CC=C3C(=C2)C(C)(C)CCC3(C)C",
        "Molecular Formula": "C<sub>22</sub>H<sub>25</sub>NO<sub>3</sub>",
        "Molecular Mass": "351.44",
        "Melting Point": "231-232 °C"
    }
}