{
    "cas_no": "58498-61-6",
    "key_name": "5-Chloro-3-methyl-2(1<em>H</em>)-pyridinone",
    "cn_name": null,
    "alternate_name": "2(1<em>H</em>)-Pyridinone, 5-chloro-3-methyl-;2(1<em>H</em>)-Pyridone, 5-chloro-3-methyl-;5-Chloro-3-methyl-2(1<em>H</em>)-pyridinone;5-Chloro-3-methyl-2-pyridone;5-Chloro-3-methylpyridin-2-ol",
    "duplicated_cas_no": "",
    "SMILES": "CC=1C(=O)NC=C(Cl)C1",
    "meta_data": {
        "InChI": "InChI=1S/C6H6ClNO/c1-4-2-5(7)3-8-6(4)9/h2-3H,1H3,(H,8,9)",
        "InChIKey": null,
        "Canonical SMILES": "O=C1NC=C(Cl)C=C1C",
        "Molecular Formula": "C<sub>6</sub>H<sub>6</sub>ClNO",
        "Molecular Mass": "143.57",
        "Melting Point": "162-163 °C"
    }
}