{
    "cas_no": "4815-30-9",
    "key_name": "Diethyl 5-amino-3-methylthiophene-2,4-dicarboxylate",
    "cn_name": null,
    "alternate_name": "2,4-Thiophenedicarboxylic acid, 5-amino-3-methyl-, 2,4-diethyl ester;2,4-Thiophenedicarboxylic acid, 5-amino-3-methyl-, diethyl ester;2-Amino-3,5-bis(ethoxycarbonyl)-4-methylthiophene;2-Amino-3,5-dicarbethoxy-4-methylthiophene;Diethyl 5-amino-3-methylthiophene-2,4-dicarboxylate;NSC 149763;5-Amino-3-methyl-2,4-thiophenedicarboxylic acid diethyl ester;Diethyl 2-amino-4-methylthiophene-3,5-dicarboxylate;2,4-Diethyl 5-amino-3-methylthiophene-2,4-dicarboxylate",
    "duplicated_cas_no": "",
    "SMILES": "C(OCC)(=O)C1=C(C)C(C(OCC)=O)=C(N)S1",
    "meta_data": {
        "InChI": "InChI=1S/C11H15NO4S/c1-4-15-10(13)7-6(3)8(17-9(7)12)11(14)16-5-2/h4-5,12H2,1-3H3",
        "InChIKey": null,
        "Canonical SMILES": "O=C(OCC)C=1SC(N)=C(C(=O)OCC)C1C",
        "Molecular Formula": "C<sub>11</sub>H<sub>15</sub>NO<sub>4</sub>S",
        "Molecular Mass": "257.31",
        "Melting Point": "108-109 °C"
    }
}