{
    "cas_no": "21078-72-8",
    "key_name": "3-Methyl-3-nonanol",
    "cn_name": "3-甲基-3-壬醇;",
    "alternate_name": "3-Nonanol, 3-methyl-;3-Methyl-3-nonanol;2-Ethyl-2-octanol;Ethylhexylmethylcarbinol;3-Methylnonan-3-ol;(±)-3-Methyl-3-nonanol",
    "duplicated_cas_no": "150927-17-6",
    "SMILES": "C(C(CC)(C)O)CCCCC",
    "meta_data": {
        "InChI": "InChI=1S/C10H22O/c1-4-6-7-8-9-10(3,11)5-2/h11H,4-9H2,1-3H3",
        "InChIKey": null,
        "Canonical SMILES": "OC(C)(CC)CCCCCC",
        "Molecular Formula": "C<sub>10</sub>H<sub>22</sub>O",
        "Molecular Mass": "158.28",
        "Boiling Point": "75-76 °C @ Press: 5 Torr"
    }
}