{
    "cas_no": "6795-87-5",
    "key_name": "2-Methoxybutane",
    "cn_name": "甲基仲丁基醚;",
    "alternate_name": "Butane, 2-methoxy-;Ether, <em>sec</em>-butyl methyl;2-Methoxybutane;Methyl <em>sec</em>-butyl ether;<em>sec</em>-Butyl methyl ether;Methyl 1-methylpropyl ether;2-Butyl methyl ether;(±)-2-Methoxybutane;(±)-Methyl 2-butyl ether",
    "duplicated_cas_no": "116783-23-4",
    "SMILES": "C(CC)(OC)C",
    "meta_data": {
        "InChI": "InChI=1S/C5H12O/c1-4-5(2)6-3/h5H,4H2,1-3H3",
        "InChIKey": null,
        "Canonical SMILES": "O(C)C(C)CC",
        "Molecular Formula": "C<sub>5</sub>H<sub>12</sub>O",
        "Molecular Mass": "88.15",
        "Boiling Point": "65 °C",
        "Melting Point": "-100 °C",
        "Density": "0.7621 g/cm³ @ Temp: 0 °C"
    }
}