{
    "cas_no": "1127-76-0",
    "key_name": "1-Ethylnaphthalene",
    "cn_name": "1-乙基萘;",
    "alternate_name": "Naphthalene, 1-ethyl-;1-Ethylnaphthalene;α-Ethylnaphthalene;NSC 59390",
    "duplicated_cas_no": "",
    "SMILES": "C(C)C=1C2=C(C=CC1)C=CC=C2",
    "meta_data": {
        "InChI": "InChI=1S/C12H12/c1-2-10-7-5-8-11-6-3-4-9-12(10)11/h3-9H,2H2,1H3",
        "InChIKey": null,
        "Canonical SMILES": "C=1C=CC2=C(C1)C=CC=C2CC",
        "Molecular Formula": "C<sub>12</sub>H<sub>12</sub>",
        "Molecular Mass": "156.22",
        "Boiling Point": "258.6 °C",
        "Melting Point": "-13.9 °C",
        "Density": "1.0221 g/cm³ @ Temp: 0 °C"
    }
}