{
    "cas_no": "36323-28-1",
    "key_name": "1,3-Bis(dibromomethyl)benzene",
    "cn_name": "α,α, α,α-四溴间二甲苯;",
    "alternate_name": "Benzene, 1,3-bis(dibromomethyl)-;<em>m</em>-Xylene, α,α,α′,α′-tetrabromo-;1,3-Bis(dibromomethyl)benzene;α,α,α′,α′-Tetrabromo-<em>m</em>-xylene;NSC 76079",
    "duplicated_cas_no": "",
    "SMILES": "C(Br)(Br)C1=CC(C(Br)Br)=CC=C1",
    "meta_data": {
        "InChI": "InChI=1S/C8H6Br4/c9-7(10)5-2-1-3-6(4-5)8(11)12/h1-4,7-8H",
        "InChIKey": null,
        "Canonical SMILES": "BrC(Br)C1=CC=CC(=C1)C(Br)Br",
        "Molecular Formula": "C<sub>8</sub>H<sub>6</sub>Br<sub>4</sub>",
        "Molecular Mass": "421.75",
        "Melting Point": "107 °C"
    }
}