{
    "cas_no": "3638-64-0",
    "key_name": "Ethene, nitro-",
    "cn_name": "硝基乙烯;",
    "alternate_name": "Ethene, nitro-;Ethylene, nitro-;Nitroethylene;1-Nitroethylene;Nitroethene;1-Nitroethene",
    "duplicated_cas_no": "",
    "SMILES": "N(C=C)(=O)=O",
    "meta_data": {
        "InChI": "InChI=1S/C2H3NO2/c1-2-3(4)5/h2H,1H2",
        "InChIKey": null,
        "Canonical SMILES": "O=N(=O)C=C",
        "Molecular Formula": "C<sub>2</sub>H<sub>3</sub>NO<sub>2</sub>",
        "Molecular Mass": "73.05",
        "Boiling Point": "98.5 °C",
        "Melting Point": "-55.5 °C",
        "Density": "1.073 g/cm³ @ Temp: 13.8 °C"
    }
}