{
    "cas_no": "51503-08-3",
    "key_name": "4-(1,1-Dimethylethoxy)benzenemethanol",
    "cn_name": null,
    "alternate_name": "Benzenemethanol, 4-(1,1-dimethylethoxy)-;Benzyl alcohol, <em>p</em>-<em>tert</em>-butoxy-;4-(1,1-Dimethylethoxy)benzenemethanol;<em>p</em>-<em>tert</em>-Butoxybenzyl alcohol;4-<em>tert</em>-Butoxybenzyl alcohol;(4-<em>tert</em>-Butoxyphenyl)methanol;[4-[(2-Methylpropan-2-yl)oxy]phenyl]methanol",
    "duplicated_cas_no": "",
    "SMILES": "O(C(C)(C)C)C1=CC=C(CO)C=C1",
    "meta_data": {
        "InChI": "InChI=1S/C11H16O2/c1-11(2,3)13-10-6-4-9(8-12)5-7-10/h4-7,12H,8H2,1-3H3",
        "InChIKey": null,
        "Canonical SMILES": "OCC1=CC=C(OC(C)(C)C)C=C1",
        "Molecular Formula": "C<sub>11</sub>H<sub>16</sub>O<sub>2</sub>",
        "Molecular Mass": "180.24",
        "Boiling Point": "154-155 °C @ Press: 16 Torr"
    }
}