{
    "cas_no": "645-43-2",
    "key_name": "Guanethidine monosulfate",
    "cn_name": "单硫酸胍乙啶;",
    "alternate_name": "Guanidine, <em>N</em>-[2-(hexahydro-1(2<em>H</em>)-azocinyl)ethyl]-, sulfate (1:1);Guanidine, [2-(hexahydro-1(2<em>H</em>)-azocinyl)ethyl]-, sulfate (1:1);Azocine, guanidine deriv.;Guanethidine monosulfate;[2-(Hexahydro-1(2<em>H</em>)-azocinyl)ethyl]guanidine hydrogen sulfate;Guanethidine sulfate (1:1);1-(2-(Azocan-1-yl)ethyl)guanidine sulfate",
    "duplicated_cas_no": "",
    "SMILES": "S(=O)(=O)(O)O.C(CNC(=N)N)N1CCCCCCC1",
    "meta_data": {
        "InChI": "InChI=1S/C10H22N4.H2O4S/c11-10(12)13-6-9-14-7-4-2-1-3-5-8-14;1-5(2,3)4/h1-9H2,(H4,11,12,13);(H2,1,2,3,4)",
        "InChIKey": null,
        "Canonical SMILES": "O=S(=O)(O)O.N=C(N)NCCN1CCCCCCC1",
        "Molecular Formula": "C<sub>10</sub>H<sub>22</sub>N<sub>4</sub>.H<sub>2</sub>O<sub>4</sub>S",
        "Molecular Mass": "",
        "Melting Point": "276-281 °C"
    }
}