{
    "cas_no": "54-35-3",
    "key_name": "Penicillin G procaine",
    "cn_name": null,
    "alternate_name": "4-Thia-1-azabicyclo[3.2.0]heptane-2-carboxylic acid, 3,3-dimethyl-7-oxo-6-[(2-phenylacetyl)amino]- (2<em>S</em>,5<em>R</em>,6<em>R</em>)-, compd. with 2-(diethylamino)ethyl 4-aminobenzoate (1:1);4-Thia-1-azabicyclo[3.2.0]heptane-2-carboxylic acid, 3,3-dimethyl-7-oxo-6-(2-phenylacetamido)-, compd. with 2-(diethylamino)ethyl <em>p</em>-aminobenzoate (1:1);4-Thia-1-azabicyclo[3.2.0]heptane-2-carboxylic acid, 3,3-dimethyl-7-oxo-6-[(phenylacetyl)amino]-[2<em>S</em>-(2α,5α,6β)]-, compd. with 2-(diethylamino)ethyl 4-aminobenzoate (1:1);4-Thia-1-azabicyclo[3.2.0]heptane-2-carboxylic acid, 3,3-dimethyl-7-oxo-6-[(phenylacetyl)amino]- (2<em>S</em>,5<em>R</em>,6<em>R</em>)-, compd. with 2-(diethylamino)ethyl 4-aminobenzoate (1:1);Benzoic acid, 4-amino-, 2-(diethylamino)ethyl ester, mono[[2<em>S</em>-(2α,5α,6β)]-3,3-dimethyl-7-oxo-6-[(phenylacetyl)amino]-4-thia-1-azabicyclo[3.2.0]heptane-2-carboxylate];Benzoic acid, 4-amino-, 2-(diethylamino)ethyl ester, mono[(2<em>S</em>,5<em>R</em>,6<em>R</em>)-3,3-dimethyl-7-oxo-6-[(phenylacetyl)amino]-4-thia-1-azabicyclo[3.2.0]heptane-2-carboxylate];Penicillin G procaine;Hydracillin;Jenacillin O;Benzylpenicillin novocaine salt;Nopcaine;Micro-Pen;Procaine benzylpenicillinate;Procaine penicillin G;Penzal N 300;Hostacillin;Vitablend;Vetspen;Retardillin;Depocillin;Duphapen;Procaine benzylpenicillin;Procaine benzylpenicillin salt;Benzylpenicillin procaine salt;Benzylpenicillin procaine;Afsillin;Ampin-penicillin;Aquacillin;Aquasuspen;Aquacilina;Abbocillin DC;Cilicaine;Crysticillin;Despacilina;Distaquaine;Duracillin;Flo-Cillin Aqueous;Kabipenin;Ledercillin;Millicillin;Mylipen;Neoproc;Novocaine penicillin;Penaquacaine G;Pen-Fifty;Premocillin;Dorsallin AR;Procanodia;Pro-Pen;Prostabillin;Sharcillin;Wycillin;Ilcocillin P;Lenticillin;Mammacillin;Megapen;Pen 50;Pentaquacaine G;Avloprocil;Carepen;Penovet;Ethacilin;Geepenil;Masticillin;Penicillin procaine;MeSH ID: D010402",
    "duplicated_cas_no": "1110-47-0;8013-22-7;8013-21-6;8022-57-9;8028-79-3;8049-38-5;65917-09-1;213313-73-6",
    "SMILES": "C(O)(=O)[C@@H]1N2[C@@]([C@H](NC(CC3=CC=CC=C3)=O)C2=O)(SC1(C)C)[H].C(OCCN(CC)CC)(=O)C1=CC=C(N)C=C1",
    "meta_data": {
        "InChI": "InChI=1S/C16H18N2O4S.C13H20N2O2/c1-16(2)12(15(21)22)18-13(20)11(14(18)23-16)17-10(19)8-9-6-4-3-5-7-9;1-3-15(4-2)9-10-17-13(16)11-5-7-12(14)8-6-11/h3-7,11-12,14H,8H2,1-2H3,(H,17,19)(H,21,22);5-8H,3-4,9-10,14H2,1-2H3/t11-,12+,14-;/m1./s1",
        "InChIKey": null,
        "Canonical SMILES": "O=C(OCCN(CC)CC)C1=CC=C(N)C=C1.O=C(O)C1N2C(=O)C(NC(=O)CC=3C=CC=CC3)C2SC1(C)C",
        "Molecular Formula": "C<sub>16</sub>H<sub>18</sub>N<sub>2</sub>O<sub>4</sub>S.C<sub>13</sub>H<sub>20</sub>N<sub>2</sub>O<sub>2</sub>",
        "Molecular Mass": "",
        "Melting Point": "129-130 °C"
    }
}