{
    "cas_no": "51940-64-8",
    "key_name": "5-Pyrimidinecarboxylic acid, 2,4-dichloro-, ethyl ester",
    "cn_name": null,
    "alternate_name": "5-Pyrimidinecarboxylic acid, 2,4-dichloro-, ethyl ester;Ethyl 2,4-dichloro-5-pyrimidinecarboxylate;2,4-Dichloro-5-carbethoxypyrimidine;5-Carbethoxy-2,4-dichloropyrimidine;2,4-Dichloro-5-ethoxycarbonylpyrimidine;2,4-Dichloro-5-carboethoxypyrimidine;2,4-Dichloropyrimidine-5-carboxylic acid ethyl ester",
    "duplicated_cas_no": "2821089-17-0",
    "SMILES": "C(OCC)(=O)C=1C(Cl)=NC(Cl)=NC1",
    "meta_data": {
        "InChI": "InChI=1S/C7H6Cl2N2O2/c1-2-13-6(12)4-3-10-7(9)11-5(4)8/h3H,2H2,1H3",
        "InChIKey": null,
        "Canonical SMILES": "O=C(OCC)C1=CN=C(Cl)N=C1Cl",
        "Molecular Formula": "C<sub>7</sub>H<sub>6</sub>Cl<sub>2</sub>N<sub>2</sub>O<sub>2</sub>",
        "Molecular Mass": "221.04",
        "Boiling Point": "148-150 °C @ Press: 19-20 Torr",
        "Melting Point": "36-37 °C"
    }
}