{
    "cas_no": "86499-96-9",
    "key_name": "3-Bromo-1,3,4,5-tetrahydro-2<em>H</em>-1-benzazepin-2-one",
    "cn_name": "3-溴-1,3,4,5-四氢-2H-1-苯并氮杂卓-2-酮;3-溴-2,3,4,5-四氢-2-氧-1H-1-苯并氮杂卓;",
    "alternate_name": "2<em>H</em>-1-Benzazepin-2-one, 3-bromo-1,3,4,5-tetrahydro-;3-Bromo-1,3,4,5-tetrahydro-2<em>H</em>-1-benzazepin-2-one;3-Bromo-4,5-dihydro-1<em>H</em>-benzo[<em>b</em>]azepin-2(3<em>H</em>)-one;3-Bromo-2,3,4,5-tetrahydro-1<em>H</em>-1-benzazepin-2-one;3-Bromo-1,3,4,5-tetrahydro-1-benzazepin-2-one",
    "duplicated_cas_no": "103412-66-4",
    "SMILES": "O=C1NC=2C(CCC1Br)=CC=CC2",
    "meta_data": {
        "InChI": "InChI=1S/C10H10BrNO/c11-8-6-5-7-3-1-2-4-9(7)12-10(8)13/h1-4,8H,5-6H2,(H,12,13)",
        "InChIKey": null,
        "Canonical SMILES": "O=C1NC=2C=CC=CC2CCC1Br",
        "Molecular Formula": "C<sub>10</sub>H<sub>10</sub>BrNO",
        "Molecular Mass": "240.10",
        "Melting Point": "162-165 °C"
    }
}