{
    "cas_no": "33018-91-6",
    "key_name": "1-Ethyl heptanedioate",
    "cn_name": null,
    "alternate_name": "Heptanedioic acid, 1-ethyl ester;Pimelic acid, monoethyl ester;Heptanedioic acid, monoethyl ester;Pimelic acid, ethyl ester;1-Ethyl heptanedioate;Monoethyl heptanedioate;Monoethyl pimelate;Ethyl hydrogen pimelate;7-Ethoxy-7-oxoheptanoic acid",
    "duplicated_cas_no": "",
    "SMILES": "C(CC(OCC)=O)CCCC(O)=O",
    "meta_data": {
        "InChI": "InChI=1S/C9H16O4/c1-2-13-9(12)7-5-3-4-6-8(10)11/h2-7H2,1H3,(H,10,11)",
        "InChIKey": null,
        "Canonical SMILES": "O=C(O)CCCCCC(=O)OCC",
        "Molecular Formula": "C<sub>9</sub>H<sub>16</sub>O<sub>4</sub>",
        "Molecular Mass": "188.22",
        "Boiling Point": "182 °C @ Press: 18 Torr",
        "Melting Point": "10 °C",
        "Density": "0.9929 g/cm³ @ Temp: 20 °C"
    }
}