{
    "cas_no": "428-59-1",
    "key_name": "Hexafluoropropylene oxide",
    "cn_name": null,
    "alternate_name": "Oxirane, 2,2,3-trifluoro-3-(trifluoromethyl)-;Propane, 1,2-epoxy-1,1,2,3,3,3-hexafluoro-;Oxirane, trifluoro(trifluoromethyl)-;2,2,3-Trifluoro-3-(trifluoromethyl)oxirane;Hexafluoropropylene epoxide;Hexafluoropropylene oxide;Hexafluoropropene oxide;Perfluoropropylene oxide;Propylene oxide hexafluoride;(Trifluoromethyl)trifluorooxirane;Hexafluoropropene epoxide;Trifluoro(trifluoromethyl)oxirane;Hexafluoroepoxypropane;Hexafluoro-1,2-epoxypropane;Perfluoro(methyloxirane);Perfluoropropene oxide;Hexafluoropropene-1,2-oxide;1,2-Epoxyhexafluoropropane;Perfluoropropene-1,2-oxide;Cheminox FAEP 6",
    "duplicated_cas_no": "75579-38-3",
    "SMILES": "C(F)(F)(F)C1(F)C(F)(F)O1",
    "meta_data": {
        "InChI": "InChI=1S/C3F6O/c4-1(2(5,6)7)3(8,9)10-1",
        "InChIKey": null,
        "Canonical SMILES": "FC(F)(F)C1(F)OC1(F)F",
        "Molecular Formula": "C<sub>3</sub>F<sub>6</sub>O",
        "Molecular Mass": "166.02",
        "Boiling Point": "-27.4 °C"
    }
}