{
    "cas_no": "771-61-9",
    "key_name": "Pentafluorophenol",
    "cn_name": "五氟苯酚;",
    "alternate_name": "Phenol, 2,3,4,5,6-pentafluoro-;Phenol, pentafluoro-;2,3,4,5,6-Pentafluorophenol;Pentafluorophenol;Hydroxypentafluorobenzene;Perfluorophenol;Pentafluorohydroxybenzene;NSC 21627",
    "duplicated_cas_no": "",
    "SMILES": "FC1=C(F)C(F)=C(O)C(F)=C1F",
    "meta_data": {
        "InChI": "InChI=1S/C6HF5O/c7-1-2(8)4(10)6(12)5(11)3(1)9/h12H",
        "InChIKey": null,
        "Canonical SMILES": "FC=1C(F)=C(F)C(O)=C(F)C1F",
        "Molecular Formula": "C<sub>6</sub>HF<sub>5</sub>O",
        "Molecular Mass": "184.06",
        "Boiling Point": "145.6 °C",
        "Melting Point": "32.8 °C"
    }
}