{
    "cas_no": "111-46-6",
    "key_name": "Diethylene glycol",
    "cn_name": "二乙二醇;二甘醇;一缩二乙二醇;二羟二乙醚;二乙二醇醚;双甘醇;2,2\"-氧代二乙醇;",
    "alternate_name": "Ethanol, 2,2′-oxybis-;Diethylene glycol;2,2′-Oxybis[ethanol];TL4N;Brecolane NDG;Deactivator E;DEG;Dicol;Diglycol;β,β′-Dihydroxydiethyl ether;Dissolvant APV;Ethylene diglycol;3-Oxapentane-1,5-diol;2,2′-Oxydiethanol;Bis(β-hydroxyethyl) ether;Digol;Bis(2-hydroxyethyl) ether;Digenos;2,2′-Oxyethanol;2-(2-Hydroxyethoxy)ethanol;3-Oxapentamethylene-1,5-diol;1,5-Dihydroxy-3-oxapentane;2-Hydroxyethoxyethanol;NSC 36391;DST Powder 1.6;2,2′-Oxybis(ethan-1-ol);2-(2-Hydroxyethoxy)ethan-1-ol;KC 22;SH 1056-1991",
    "duplicated_cas_no": "4669-26-5;2126734-27-6",
    "SMILES": "O(CCO)CCO",
    "meta_data": {
        "InChI": "InChI=1S/C4H10O3/c5-1-3-7-4-2-6/h5-6H,1-4H2",
        "InChIKey": null,
        "Canonical SMILES": "OCCOCCO",
        "Molecular Formula": "C<sub>4</sub>H<sub>10</sub>O<sub>3</sub>",
        "Molecular Mass": "106.12",
        "Boiling Point": "244-245 °C",
        "Melting Point": "-6.5 °C",
        "Density": "1.18 g/cm³ @ Temp: 20 °C"
    }
}