{
    "cas_no": "84-96-8",
    "key_name": "(±)-Trimeprazine",
    "cn_name": "异丁嗪;N,N,2-三甲基-3-吩噻嗪-10-基-1-丙胺;",
    "alternate_name": "10<em>H</em>-Phenothiazine-10-propanamine, <em>N</em>,<em>N</em>,β-trimethyl-;Phenothiazine, 10-[3-(dimethylamino)-2-methylpropyl]-;<em>N</em>,<em>N</em>,β-Trimethyl-10<em>H</em>-phenothiazine-10-propanamine;Alimemazine;Alimezine;10-[3-(Dimethylamino)-2-methylpropyl]phenothiazine;10-(2-Methyl-3-dimethylaminopropyl)phenothiazine;Methylpromazine;Trimeprazine;Teralen;Bayer 1219;<em>dl</em>-Trimeprazine;(±)-Trimeprazine;(±)-Alimemazine;Teralene;MeSH ID: D014291",
    "duplicated_cas_no": "35309-60-5;47138-21-6",
    "SMILES": "C(C(CN(C)C)C)N1C=2C(SC=3C1=CC=CC3)=CC=CC2",
    "meta_data": {
        "InChI": "InChI=1S/C18H22N2S/c1-14(12-19(2)3)13-20-15-8-4-6-10-17(15)21-18-11-7-5-9-16(18)20/h4-11,14H,12-13H2,1-3H3",
        "InChIKey": null,
        "Canonical SMILES": "S1C=2C=CC=CC2N(C=3C=CC=CC13)CC(C)CN(C)C",
        "Molecular Formula": "C<sub>18</sub>H<sub>22</sub>N<sub>2</sub>S",
        "Molecular Mass": "298.45",
        "Boiling Point": "150-175 °C @ Press: 0.3 Torr",
        "Melting Point": "68 °C"
    }
}