{
    "cas_no": "611-23-4",
    "key_name": "2-Nitrosotoluene",
    "cn_name": "厄多司坦;N-[2-(羧甲基巯基)-乙酰基]-高半胱氨酸硫内酯;",
    "alternate_name": "Benzene, 1-methyl-2-nitroso-;Toluene, <em>o</em>-nitroso-;1-Methyl-2-nitrosobenzene;2-Nitrosotoluene;<em>o</em>-Nitrosotoluene;<em>o</em>-Methylnitrosobenzene;2-Methyl-1-nitrosobenzene;2-Methylnitrosobenzene;NSC 66507;NSC 677512",
    "duplicated_cas_no": "",
    "SMILES": "N(=O)C1=C(C)C=CC=C1",
    "meta_data": {
        "InChI": "InChI=1S/C7H7NO/c1-6-4-2-3-5-7(6)8-9/h2-5H,1H3",
        "InChIKey": null,
        "Canonical SMILES": "O=NC=1C=CC=CC1C",
        "Molecular Formula": "C<sub>7</sub>H<sub>7</sub>NO",
        "Molecular Mass": "121.14",
        "Melting Point": "72 °C"
    }
}