{
    "cas_no": "27530-80-9",
    "key_name": "<em>O</em>-Phosphonothreonine",
    "cn_name": "磷酸基苏氨酸;O-磷酸-DL-苏氨酸;DL-2-氨基-3-羟基丁酸-3-磷酸酯;",
    "alternate_name": "Threonine, <em>O</em>-phosphono-;Threonine, dihydrogen phosphate (ester), <span class=\"text-smallcaps\">D</smallcap><smallcap>L</span>-;Threonine, dihydrogen phosphate (ester);<span class=\"text-smallcaps\">D</smallcap><smallcap>L</span>-Threonine, dihydrogen phosphate (ester);<em>O</em>-Phosphonothreonine;<em>dl</em>-<em>O</em>-Phosphothreonine;<span class=\"text-smallcaps\">D</smallcap><smallcap>L</span>-Threonine phosphate;<span class=\"text-smallcaps\">D</smallcap><smallcap>L</span>-Threonine <em>O</em>-phosphate;<em>O</em>-Phospho-<span class=\"text-smallcaps\">D</smallcap><smallcap>L</span>-threonine;Phospho-<span class=\"text-smallcaps\">D</smallcap><smallcap>L</span>-threonine;<em>O</em>-Phosphoryl-<span class=\"text-smallcaps\">D</smallcap><smallcap>L</span>-threonine;<span class=\"text-smallcaps\">D</smallcap><smallcap>L</span>-Phosphothreonine;NSC 89296",
    "duplicated_cas_no": "876858-25-2;1638843-72-7",
    "SMILES": "[C@@H]([C@@H](C(O)=O)N)(OP(=O)(O)O)C",
    "meta_data": {
        "InChI": "InChI=1/C4H10NO6P/c1-2(3(5)4(6)7)11-12(8,9)10/h2-3H,5H2,1H3,(H,6,7)(H2,8,9,10)/t2-,3+/s2",
        "InChIKey": null,
        "Canonical SMILES": "O=C(O)C(N)C(OP(=O)(O)O)C",
        "Molecular Formula": "C<sub>4</sub>H<sub>10</sub>NO<sub>6</sub>P",
        "Molecular Mass": "199.10",
        "Melting Point": "184 °C"
    }
}