{
    "cas_no": "38942-50-6",
    "key_name": "4-Methyl-5-methyl-4<em>H</em>-[1,2,4]triazole-3-thiol",
    "cn_name": null,
    "alternate_name": "3<em>H</em>-1,2,4-Triazole-3-thione, 2,4-dihydro-4,5-dimethyl-;4<em>H</em>-1,2,4-Triazole-3-thiol, 4,5-dimethyl-;Δ<sup>2</sup>-1,2,4-Triazoline-5-thione, 3,4-dimethyl-;2,4-Dihydro-4,5-dimethyl-3<em>H</em>-1,2,4-triazole-3-thione;5-Mercapto-3,4-dimethyl-1,2,4-triazole;4,5-Dimethyl-3-mercapto-1,2,4-triazole;3,4-Dimethyl-1,2,4-triazoline-5-thione;3,4-Dimethyl-5-mercapto-1,2,4-triazole;3,4-Dimethyl-1,2,4-triazole-5-thiol;NSC 520788;4,5-Dimethyl-4<em>H</em>-1,2,4-triazole-3-thiol;4-Methyl-5-methyl-4<em>H</em>-[1,2,4]triazole-3-thiol;3,4-Dimethyl-1<em>H</em>-1,2,4-triazole-5-thione",
    "duplicated_cas_no": "6232-81-1",
    "SMILES": "CN1C(C)=NNC1=S",
    "meta_data": {
        "InChI": "InChI=1S/C4H7N3S/c1-3-5-6-4(8)7(3)2/h1-2H3,(H,6,8)",
        "InChIKey": null,
        "Canonical SMILES": "S=C1NN=C(N1C)C",
        "Molecular Formula": "C<sub>4</sub>H<sub>7</sub>N<sub>3</sub>S",
        "Molecular Mass": "129.18",
        "Melting Point": "210 °C"
    }
}