{
    "cas_no": "10173-01-0",
    "key_name": "Jaceidin",
    "cn_name": null,
    "alternate_name": "4<em>H</em>-1-Benzopyran-4-one, 5,7-dihydroxy-2-(4-hydroxy-3-methoxyphenyl)-3,6-dimethoxy-;Flavone, 4′,5,7-trihydroxy-3,3′,6-trimethoxy-;5,7-Dihydroxy-2-(4-hydroxy-3-methoxyphenyl)-3,6-dimethoxy-4<em>H</em>-1-benzopyran-4-one;Jaceidin;4′,5,7-Trihydroxy-3,3′,6-trimethoxyflavone;Jaceidine;5,7,4′-Trihydroxy-3,6,3′-trimethoxyflavone;Quercetagetin 3,3′,6-trimethyl ether;Quercetagetin 3,6,3′-trimethyl ether",
    "duplicated_cas_no": "",
    "SMILES": "O=C1C=2C(OC(=C1OC)C3=CC(OC)=C(O)C=C3)=CC(O)=C(OC)C2O",
    "meta_data": {
        "InChI": "InChI=1S/C18H16O8/c1-23-11-6-8(4-5-9(11)19)16-18(25-3)15(22)13-12(26-16)7-10(20)17(24-2)14(13)21/h4-7,19-21H,1-3H3",
        "InChIKey": null,
        "Canonical SMILES": "O=C1C(OC)=C(OC2=CC(O)=C(OC)C(O)=C12)C=3C=CC(O)=C(OC)C3",
        "Molecular Formula": "C<sub>18</sub>H<sub>16</sub>O<sub>8</sub>",
        "Molecular Mass": "360.31",
        "Melting Point": "127-133 °C"
    }
}