{
    "cas_no": "5720-05-8",
    "key_name": "<em>p</em>-Tolylboronic acid",
    "cn_name": "4-甲苯硼酸;4-甲基苯基硼酸;对甲基苯硼酸;",
    "alternate_name": "Boronic acid, <em>B</em>-(4-methylphenyl)-;<em>p</em>-Tolueneboronic acid;Boronic acid, (4-methylphenyl)-;<em>B</em>-(4-Methylphenyl)boronic acid;<em>p</em>-Methylbenzeneboronic acid;<em>p</em>-Tolylboronic acid;4-Methylbenzeneboronic acid;(<em>p</em>-Methylphenyl)boronic acid;(4-Methylphenyl)boronic acid;4-Tolylboronic acid;4-Tolueneboronic acid;NSC 62870",
    "duplicated_cas_no": "137105-92-1;80496-43-1",
    "SMILES": "B(O)(O)C1=CC=C(C)C=C1",
    "meta_data": {
        "InChI": "InChI=1S/C7H9BO2/c1-6-2-4-7(5-3-6)8(9)10/h2-5,9-10H,1H3",
        "InChIKey": null,
        "Canonical SMILES": "OB(O)C1=CC=C(C=C1)C",
        "Molecular Formula": "C<sub>7</sub>H<sub>9</sub>BO<sub>2</sub>",
        "Molecular Mass": "135.96",
        "Melting Point": "240 °C"
    }
}