{
    "cas_no": "461-72-3",
    "key_name": "Hydantoin",
    "cn_name": "海因;咪唑烷基二酮;乙内酰脲;",
    "alternate_name": "2,4-Imidazolidinedione;Hydantoin;2-Imidazolin-4(<em>or</em> 5)-one, 2-hydroxy-;Glycolylurea;Imidazole-2,4(3<em>H</em>,5<em>H</em>)-dione;NSC 9226",
    "duplicated_cas_no": "345341-10-8;1394977-74-2",
    "SMILES": "O=C1NC(=O)NC1",
    "meta_data": {
        "InChI": "InChI=1S/C3H4N2O2/c6-2-1-4-3(7)5-2/h1H2,(H2,4,5,6,7)",
        "InChIKey": null,
        "Canonical SMILES": "O=C1NC(=O)CN1",
        "Molecular Formula": "C<sub>3</sub>H<sub>4</sub>N<sub>2</sub>O<sub>2</sub>",
        "Molecular Mass": "100.08",
        "Melting Point": "220 °C"
    }
}