{
    "cas_no": "188-72-7",
    "key_name": "Tribenzo[<em>de</em>,<em>kl</em>,<em>rst</em>]pentaphene",
    "cn_name": null,
    "alternate_name": "Tribenzo[<em>de</em>,<em>kl</em>,<em>rst</em>]pentaphene;Phenaleno[1,2,3-<em>cd</em>]perylene;Terrylene;Chalkacene;Terrylen",
    "duplicated_cas_no": "",
    "SMILES": "C12=C3C=4C=5C=6C(C3=CC=C1C=7C=8C(C2=CC4)=CC=CC8C=CC7)=CC=CC6C=CC5",
    "meta_data": {
        "InChI": "InChI=1S/C30H16/c1-5-17-6-2-10-20-24-15-16-26-22-12-4-8-18-7-3-11-21(28(18)22)25-14-13-23(29(24)30(25)26)19(9-1)27(17)20/h1-16H",
        "InChIKey": null,
        "Canonical SMILES": "C1=CC=2C=CC=C3C4=CC=C5C6=CC=CC7=CC=CC(C8=CC=C(C(=C1)C23)C4=C85)=C76",
        "Molecular Formula": "C<sub>30</sub>H<sub>16</sub>",
        "Molecular Mass": "376.45",
        "Melting Point": "384-386 °C"
    }
}