{
    "cas_no": "22767-90-4",
    "key_name": "1,1,1-Trifluoro-5,5-dimethyl-2,4-hexanedione",
    "cn_name": "1,1,1-三氟-5,5-二甲基-2,4-己二酮;",
    "alternate_name": "2,4-Hexanedione, 1,1,1-trifluoro-5,5-dimethyl-;1,1,1-Trifluoro-5,5-dimethyl-2,4-hexanedione;(Trifluoroacetyl)pivaloylmethane;Pivaloyltrifluoroacetone;1,1,1-Trifluoro-5,5-dimethylhexane-2,4-dione;2,4-Pentanedione, 1,1,1-trifluoro-5,5,5-trimethyl-;6,6,6-Trifluoro-2,2-dimethyl-3,5-hexanedione;1,1,1-Trifluoro-3-pivaloylacetone;5,5-Dimethyl-1,1,1-trifluorohexane-2,4-dione;1,1,1-Trifluoro-5,5-dimethylhexan-2,4-dione",
    "duplicated_cas_no": "",
    "SMILES": "C(C(C(C)(C)C)=O)C(C(F)(F)F)=O",
    "meta_data": {
        "InChI": "InChI=1S/C8H11F3O2/c1-7(2,3)5(12)4-6(13)8(9,10)11/h4H2,1-3H3",
        "InChIKey": null,
        "Canonical SMILES": "O=C(CC(=O)C(C)(C)C)C(F)(F)F",
        "Molecular Formula": "C<sub>8</sub>H<sub>11</sub>F<sub>3</sub>O<sub>2</sub>",
        "Molecular Mass": "196.17",
        "Boiling Point": "39-41 °C @ Press: 17 Torr",
        "Density": "1.13 g/cm³"
    }
}