{
    "cas_no": "3561-48-6",
    "key_name": "<span class=\"text-smallcaps\">L</span>-Methionine, <em>N</em>-[<em>N</em>-[(phenylmethoxy)carbonyl]glycyl]-",
    "cn_name": null,
    "alternate_name": "<span class=\"text-smallcaps\">L</span>-Methionine, <em>N</em>-[<em>N</em>-[(phenylmethoxy)carbonyl]glycyl]-;Methionine, <em>N</em>-(<em>N</em>-carboxyglycyl)-, <em>N</em>-benzyl ester;<em>N</em>-(Benzyloxycarbonyl)glycyl-<span class=\"text-smallcaps\">L</span>-methionine;<em>N</em>-(Carbobenzyloxy)glycyl-<span class=\"text-smallcaps\">L</span>-methionine;NSC 169155;(2S)-4-Methylsulfanyl-2-[[2-(phenylmethoxycarbonylamino)acetyl]amino]butanoic acid",
    "duplicated_cas_no": "",
    "SMILES": "C(OC(NCC(N[C@@H](CCSC)C(O)=O)=O)=O)C1=CC=CC=C1",
    "meta_data": {
        "InChI": "InChI=1S/C15H20N2O5S/c1-23-8-7-12(14(19)20)17-13(18)9-16-15(21)22-10-11-5-3-2-4-6-11/h2-6,12H,7-10H2,1H3,(H,16,21)(H,17,18)(H,19,20)/t12-/m0/s1",
        "InChIKey": null,
        "Canonical SMILES": "O=C(OCC=1C=CC=CC1)NCC(=O)NC(C(=O)O)CCSC",
        "Molecular Formula": "C<sub>15</sub>H<sub>20</sub>N<sub>2</sub>O<sub>5</sub>S",
        "Molecular Mass": "340.39",
        "Melting Point": "110-111 °C"
    }
}