{
    "cas_no": "35013-72-0",
    "key_name": "Biotin <em>N</em>-hydroxysuccinimide ester",
    "cn_name": null,
    "alternate_name": "1<em>H</em>-Thieno[3,4-<em>d</em>]imidazole-4-pentanoic acid, hexahydro-2-oxo-, 2,5-dioxo-1-pyrrolidinyl ester, (3a<em>S</em>,4<em>S</em>,6a<em>R</em>)-;2,5-Pyrrolidinedione, 1-[[5-(hexahydro-2-oxo-1<em>H</em>-thieno[3,4-<em>d</em>]imidazol-4-yl)-1-oxopentyl]oxy]-, [3a<em>S</em>-(3aα,4β,6aα)]-;2,5-Pyrrolidinedione, 1-[[5-[(3a<em>S</em>,4<em>S</em>,6a<em>R</em>)-hexahydro-2-oxo-1<em>H</em>-thieno[3,4-<em>d</em>]imidazol-4-yl]-1-oxopentyl]oxy]-;1<em>H</em>-Thieno[3,4-<em>d</em>]imidazole, 2,5-pyrrolidinedione deriv.;Biotin <em>N</em>-hydroxysuccinimide ester;Biotin <em>N</em>-hydroxysuccinimide;(<em>N</em>-Hydroxysuccinimidyl)biotin;<span class=\"text-smallcaps\">D</span>-Biotin <em>N</em>-hydroxysuccinimide ester;NSC 345668;Biotin <em>N</em>-hydroxysuccinimidyl ester;(+)-Biotin <em>N</em>-hydroxysuccinimide ester;Biotin NHS;EZ-Link NHS-Biotin;NHS Biotin;Biotin succinimidyl ester;Biotin-OSu;Biotin NHS ester;<em>N</em>-Succinimidyl <span class=\"text-smallcaps\">D</span>-biotinate;(+)-Biotinyl-<em>N</em>-hydroxysuccinimide",
    "duplicated_cas_no": "69993-22-2;128631-45-8;130048-59-8;153086-77-2;680220-40-0;778592-57-7;867018-69-7;881663-32-7;1078713-81-1;1228700-55-7;1883511-79-2;2254515-62-1;2407762-80-3;2652025-68-6",
    "SMILES": "C(CCCC(ON1C(=O)CCC1=O)=O)[C@H]2[C@@]3([C@@](NC(=O)N3)(CS2)[H])[H]",
    "meta_data": {
        "InChI": "InChI=1S/C14H19N3O5S/c18-10-5-6-11(19)17(10)22-12(20)4-2-1-3-9-13-8(7-23-9)15-14(21)16-13/h8-9,13H,1-7H2,(H2,15,16,21)/t8-,9-,13-/m0/s1",
        "InChIKey": null,
        "Canonical SMILES": "O=C1NC2CSC(CCCCC(=O)ON3C(=O)CCC3=O)C2N1",
        "Molecular Formula": "C<sub>14</sub>H<sub>19</sub>N<sub>3</sub>O<sub>5</sub>S",
        "Molecular Mass": "341.38",
        "Melting Point": "138-140 °C"
    }
}