{
    "cas_no": "3772-56-3",
    "key_name": "(2<em>S</em>,4a<em>S</em>,10a<em>R</em>)-1,2,3,4,4a,9,10,10a-Octahydro-1,1,4a-trimethyl-8-(1-methylethyl)-2,7-phenanthrenediol",
    "cn_name": null,
    "alternate_name": "2,7-Phenanthrenediol, 1,2,3,4,4a,9,10,10a-octahydro-1,1,4a-trimethyl-8-(1-methylethyl)-, (2<em>S</em>,4a<em>S</em>,10a<em>R</em>)-;Podocarpa-8,11,13-triene-3β,13-diol, 14-isopropyl-;2,7-Phenanthrenediol, 1,2,3,4,4a,9,10,10a-octahydro-1,1,4a-trimethyl-8-(1-methylethyl)-, [2<em>S</em>-(2α,4aα,10aβ)]-;(2<em>S</em>,4a<em>S</em>,10a<em>R</em>)-1,2,3,4,4a,9,10,10a-Octahydro-1,1,4a-trimethyl-8-(1-methylethyl)-2,7-phenanthrenediol;Totaradiol;3β-Hydroxytotarol;(+)-Totaradiol",
    "duplicated_cas_no": "",
    "SMILES": "C[C@@]12C=3C(=C(C(C)C)C(O)=CC3)CC[C@]1(C(C)(C)[C@@H](O)CC2)[H]",
    "meta_data": {
        "InChI": "InChI=1S/C20H30O2/c1-12(2)18-13-6-9-16-19(3,4)17(22)10-11-20(16,5)14(13)7-8-15(18)21/h7-8,12,16-17,21-22H,6,9-11H2,1-5H3/t16-,17-,20+/m0/s1",
        "InChIKey": null,
        "Canonical SMILES": "OC1=CC=C2C(=C1C(C)C)CCC3C2(C)CCC(O)C3(C)C",
        "Molecular Formula": "C<sub>20</sub>H<sub>30</sub>O<sub>2</sub>",
        "Molecular Mass": "302.45",
        "Melting Point": "180.5-181.5 °C"
    }
}