{
    "cas_no": "120-44-5",
    "key_name": "1,2-Bis(4-methoxyphenyl)ethanone",
    "cn_name": null,
    "alternate_name": "Ethanone, 1,2-bis(4-methoxyphenyl)-;Acetophenone, 4′-methoxy-2-(<em>p</em>-methoxyphenyl)-;1,2-Bis(4-methoxyphenyl)ethanone;Deoxyanisoin;4,4′-Dimethoxydeoxybenzoin;4-Methoxybenzyl 4-methoxyphenyl ketone;Deoxy-<em>p</em>-anisoin;1,2-Di-<em>p</em>-anisylethanone;1,2-Bis(<em>p</em>-methoxyphenyl)ethanone;<em>p</em>-Methoxybenzyl <em>p</em>-methoxyphenyl ketone;4′-Methoxy-2-(<em>p</em>-methoxyphenyl)acetophenone;Desoxy-<em>p</em>-anisoin;α-(<em>p</em>-Methoxyphenyl)-<em>p</em>-methoxyacetophenone;4′-Methoxy-2-(4-methoxyphenyl)acetophenone;NSC 26660;NSC 8793;Desoxyanisoin",
    "duplicated_cas_no": "",
    "SMILES": "C(CC1=CC=C(OC)C=C1)(=O)C2=CC=C(OC)C=C2",
    "meta_data": {
        "InChI": "InChI=1S/C16H16O3/c1-18-14-7-3-12(4-8-14)11-16(17)13-5-9-15(19-2)10-6-13/h3-10H,11H2,1-2H3",
        "InChIKey": null,
        "Canonical SMILES": "O=C(C1=CC=C(OC)C=C1)CC2=CC=C(OC)C=C2",
        "Molecular Formula": "C<sub>16</sub>H<sub>16</sub>O<sub>3</sub>",
        "Molecular Mass": "256.30",
        "Boiling Point": "130-200 °C @ Press: 3 Torr",
        "Melting Point": "109-111 °C"
    }
}