{
    "cas_no": "113826-06-5",
    "key_name": "(<em>R</em>)-Glycidyl tosylate",
    "cn_name": "(R)-对甲苯磺酸缩水甘油酯;",
    "alternate_name": "2-Oxiranemethanol, 2-(4-methylbenzenesulfonate), (2<em>R</em>)-;Oxiranemethanol, 4-methylbenzenesulfonate, (<em>R</em>)-;Oxiranemethanol, 4-methylbenzenesulfonate, (2<em>R</em>)-;(<em>R</em>)-Glycidyl tosylate;(-)-Glycidyl tosylate;(<em>R</em>)-(-)-Glycidyl <em>p</em>-toluenesulfonate;(<em>R</em>)-Glycidol tosylate;<em>R</em>-(-)-Glycidyl tosylate;(2<em>R</em>)-(-)-Glycidyl tosylate;(<em>R</em>)-Oxiran-2-ylmethyl toluene-4-sulfonate;(<em>R</em>)-(-)-Oxiran-2-ylmethyl 4-methylbenzenesulfonate;(2<em>R</em>)-Glycidyl tosylate;4-Methylbenzyl (2R)-oxiran-2-ylmethanesulfonate;(R)-Oxiran-2-ylmethyl tosylate;[(2R)-Oxiran-2-yl]methyl 4-methylbenzenesulfonate;[(2R)-Oxiran-2-yl]methyl 4-methylbenzene-1-sulfonate",
    "duplicated_cas_no": "871824-51-0;1649447-11-9",
    "SMILES": "S(OC[C@H]1CO1)(=O)(=O)C2=CC=C(C)C=C2",
    "meta_data": {
        "InChI": "InChI=1S/C10H12O4S/c1-8-2-4-10(5-3-8)15(11,12)14-7-9-6-13-9/h2-5,9H,6-7H2,1H3/t9-/m1/s1",
        "InChIKey": null,
        "Canonical SMILES": "O=S(=O)(OCC1OC1)C2=CC=C(C=C2)C",
        "Molecular Formula": "C<sub>10</sub>H<sub>12</sub>O<sub>4</sub>S",
        "Molecular Mass": "228.26",
        "Melting Point": "45-46 °C"
    }
}