{
    "cas_no": "18085-02-4",
    "key_name": "3-Butene-1,2-diol, 1,2-diacetate",
    "cn_name": "3,4-二醋酸基-1-丁烯;",
    "alternate_name": "3-Butene-1,2-diol, 1,2-diacetate;3-Butene-1,2-diol, diacetate;Diacetoxybutene;2-(Acetoxymethyl)-3-acetoxy-1-propene;3,4-Diacetoxy-1-butene;1,2-Diacetoxy-3-butene;1-Butene-3,4-diyl diacetate;1-Butene-3,4-diol diacetate;3,4-Diacetyloxy-1-butene;1-(Acetyloxy)but-3-en-2-yl acetate",
    "duplicated_cas_no": "",
    "SMILES": "C(COC(C)=O)(OC(C)=O)C=C",
    "meta_data": {
        "InChI": "InChI=1S/C8H12O4/c1-4-8(12-7(3)10)5-11-6(2)9/h4,8H,1,5H2,2-3H3",
        "InChIKey": null,
        "Canonical SMILES": "O=C(OCC(OC(=O)C)C=C)C",
        "Molecular Formula": "C<sub>8</sub>H<sub>12</sub>O<sub>4</sub>",
        "Molecular Mass": "172.18",
        "Boiling Point": "94-98 °C @ Press: 12 Torr",
        "Density": "1.0603 g/cm³ @ Temp: 420 °C"
    }
}