{
    "cas_no": "96-30-0",
    "key_name": "2-Chloro-<em>N</em>-methylacetamide",
    "cn_name": "2-氯-N-甲基乙酰胺;",
    "alternate_name": "Acetamide, 2-chloro-<em>N</em>-methyl-;2-Chloro-<em>N</em>-methylacetamide;α-Chloro-<em>N</em>-methylacetamide;<em>N</em>-Methylchloroacetamide;<em>N</em>-Methyl-2-chloroacetamide;NSC 1725",
    "duplicated_cas_no": "",
    "SMILES": "C(CCl)(NC)=O",
    "meta_data": {
        "InChI": "InChI=1S/C3H6ClNO/c1-5-3(6)2-4/h2H2,1H3,(H,5,6)",
        "InChIKey": null,
        "Canonical SMILES": "O=C(NC)CCl",
        "Molecular Formula": "C<sub>3</sub>H<sub>6</sub>ClNO",
        "Molecular Mass": "107.54",
        "Boiling Point": "112-130 °C @ Press: 22 Torr",
        "Melting Point": "45-46 °C"
    }
}