{
    "cas_no": "1146-98-1",
    "key_name": "2-(4-Bromophenyl)-1<em>H</em>-indene-1,3(2<em>H</em>)-dione",
    "cn_name": null,
    "alternate_name": "1<em>H</em>-Indene-1,3(2<em>H</em>)-dione, 2-(4-bromophenyl)-;1,3-Indandione, 2-(<em>p</em>-bromophenyl)-;2-(4-Bromophenyl)-1<em>H</em>-indene-1,3(2<em>H</em>)-dione;Bromindione;Bromophenindione;Haldinone;Halinone;2-(<em>p</em>-Bromophenyl)-1,3-indandione;Fluidane;2-(4-Bromophenyl)-1,3-indandione;Bromophendione;Circladin;Fluidemin;Fluidemol;HL 255;M. G. 2555;2-(4-Bromophenyl)indene-1,3-dione",
    "duplicated_cas_no": "",
    "SMILES": "O=C1C(C(=O)C=2C1=CC=CC2)C3=CC=C(Br)C=C3",
    "meta_data": {
        "InChI": "InChI=1S/C15H9BrO2/c16-10-7-5-9(6-8-10)13-14(17)11-3-1-2-4-12(11)15(13)18/h1-8,13H",
        "InChIKey": null,
        "Canonical SMILES": "O=C1C=2C=CC=CC2C(=O)C1C3=CC=C(Br)C=C3",
        "Molecular Formula": "C<sub>15</sub>H<sub>9</sub>BrO<sub>2</sub>",
        "Molecular Mass": "301.13",
        "Melting Point": "138 °C"
    }
}