{
    "cas_no": "2235-25-8",
    "key_name": "Ethylmercury phosphate",
    "cn_name": "磷酸乙基汞;磷酸乙基汞；谷乐生；谷仁乐生；乌斯普龙；汞制剂2号；磷酸二乙基汞;",
    "alternate_name": "Mercurate(2-), ethyl[phosphato(3-)-κ<em>O</em>]-, hydrogen (1:2);Mercury, (dihydrogen phosphato)ethyl-;Mercurate(2-), ethyl[phosphato(3-)-<em>O</em>]-, dihydrogen;Ethylmercury phosphate;Mercurate(2-), ethyl[phosphato(3-)-κ<em>O</em>]-, dihydrogen;Phosphoric acid, mercury complex;Ethylmercuric phosphate;Lignasan;Ruberon granule;Granosan M;EMP;Ceresan NI;Fusariol universal",
    "duplicated_cas_no": "67466-59-5",
    "SMILES": "O(P(=O)([O-])[O-])[Hg]CC.[H+]",
    "meta_data": {
        "InChI": "InChI=1S/C2H5.Hg.H3O4P/c1-2;;1-5(2,3)4/h1H2,2H3;;(H3,1,2,3,4)/q;+1;/p-1",
        "InChIKey": null,
        "Canonical SMILES": "[H+].O=P([O-])([O-])O[Hg]CC",
        "Molecular Formula": "C<sub>2</sub>H<sub>5</sub>HgO<sub>4</sub>P.2H",
        "Molecular Mass": "",
        "Melting Point": "179-180 °C"
    }
}