{
    "cas_no": "24168-96-5",
    "key_name": "Isoconazole nitrate",
    "cn_name": "硝酸异康唑;1-[2-(2,4-二氯苯基)-2-[(2,6-二氯苯基)甲氧基]乙基]-1H-咪唑单硝酸盐;",
    "alternate_name": "1<em>H</em>-Imidazole, 1-[2-(2,4-dichlorophenyl)-2-[(2,6-dichlorophenyl)methoxy]ethyl]-, nitrate (1:1);Imidazole, 1-[2,4-dichloro-β-[(2,6-dichlorobenzyl)oxy]phenethyl]-, mononitrate;1<em>H</em>-Imidazole, 1-[2-(2,4-dichlorophenyl)-2-[(2,6-dichlorophenyl)methoxy]ethyl]-, mononitrate;Isoconazole nitrate;Adestan G 100;Gyno-Travogen;Fazol;Travogen;R 15454;Travogyn",
    "duplicated_cas_no": "",
    "SMILES": "C(CN1C=CN=C1)(OCC2=C(Cl)C=CC=C2Cl)C3=C(Cl)C=C(Cl)C=C3.N(=O)(=O)O",
    "meta_data": {
        "InChI": "InChI=1S/C18H14Cl4N2O.HNO3/c19-12-4-5-13(17(22)8-12)18(9-24-7-6-23-11-24)25-10-14-15(20)2-1-3-16(14)21;2-1(3)4/h1-8,11,18H,9-10H2;(H,2,3,4)",
        "InChIKey": null,
        "Canonical SMILES": "O=N(=O)O.ClC1=CC=C(C(Cl)=C1)C(OCC=2C(Cl)=CC=CC2Cl)CN3C=NC=C3",
        "Molecular Formula": "C<sub>18</sub>H<sub>14</sub>Cl<sub>4</sub>N<sub>2</sub>O.HNO<sub>3</sub>",
        "Molecular Mass": "",
        "Melting Point": "182-183 °C"
    }
}