{
    "cas_no": "1272-26-0",
    "key_name": "Tris(η<sup>5</sup>-2,4-cyclopentadien-1-yl)thulium",
    "cn_name": "三(环戊二烯基)铥(III);",
    "alternate_name": "Thulium, tris(η<sup>5</sup>-2,4-cyclopentadien-1-yl)-;Thulium, tri-π-cyclopentadienyl-;Thulium, tricyclopentadienyl-;Tris(η<sup>5</sup>-2,4-cyclopentadien-1-yl)thulium;Tris(cyclopentadienyl)thulium;Thulium tricyclopentadienide;Tricyclopentadienyl thulium;Tris(η<sup>5</sup>-cyclopentadienyl)thulium",
    "duplicated_cas_no": "",
    "SMILES": "[Tm+3]123456789%10%11%12([CH]=%13[CH-]1[CH]2=[CH]3[CH]4%13)([CH]%14=[CH]5[CH-]6[CH]7=[CH]8%14)[CH]=%15[CH]9=[CH]%10[CH-]%11[CH]%12%15",
    "meta_data": {
        "InChI": "InChI=1S/3C5H5.Tm/c3*1-2-4-5-3-1;/h3*1-5H;/q3*-1;+3",
        "InChIKey": null,
        "Canonical SMILES": "[CH]=12[CH]3=[CH]4[CH-]5[CH]1[Tm+3]236789%10%11%12%1345([CH]=%14[CH]9=[CH]8[CH-]7[CH]%146)[CH]=%15[CH]%13=[CH]%12[CH-]%11[CH]%15%10",
        "Molecular Formula": "C<sub>15</sub>H<sub>15</sub>Tm",
        "Molecular Mass": "",
        "Melting Point": "278 °C"
    }
}