{
    "cas_no": "553-53-7",
    "key_name": "Nicotinic acid, hydrazide",
    "cn_name": "烟酸酰肼;烟碱肼;烟酸酰肼;",
    "alternate_name": "3-Pyridinecarboxylic acid, hydrazide;Nicotinic acid, hydrazide;Nicotinoylhydrazine;3-Pyridoylhydrazine;Nicotinyl hydrazide;Nicotinic hydrazide;Nicotinoyl hydrazide;NSC 36088;(3-Pyridylcarbonyl)hydrazine;3-Pyridinecarboxylic hydrazide;Nicotinylhydrazine;Niazid;Nicotinohydrazide;NSC 18775;NSC 41703;INHd 37;3-Pyridinecarbohydrazide;<em>N</em>-Aminopyridine-3-carboxamide;Pyridine-3-carbonylhydrazine;3-Nicotinohydrazide",
    "duplicated_cas_no": "",
    "SMILES": "C(NN)(=O)C=1C=CC=NC1",
    "meta_data": {
        "InChI": "InChI=1S/C6H7N3O/c7-9-6(10)5-2-1-3-8-4-5/h1-4H,7H2,(H,9,10)",
        "InChIKey": null,
        "Canonical SMILES": "O=C(NN)C=1C=NC=CC1",
        "Molecular Formula": "C<sub>6</sub>H<sub>7</sub>N<sub>3</sub>O",
        "Molecular Mass": "137.14",
        "Melting Point": "161.5 °C",
        "Density": "1.454 g/cm³"
    }
}