{
    "cas_no": "65472-88-0",
    "key_name": "Naftifine",
    "cn_name": "萘替芬;3-苯基-2-丙烯-N-甲基-1-萘甲胺;",
    "alternate_name": "1-Naphthalenemethanamine, <em>N</em>-methyl-<em>N</em>-[(2<em>E</em>)-3-phenyl-2-propen-1-yl]-;1-Naphthalenemethanamine, <em>N</em>-methyl-<em>N</em>-(3-phenyl-2-propenyl)-, (<em>E</em>)-;1-Naphthalenemethanamine, <em>N</em>-methyl-<em>N</em>-[(2<em>E</em>)-3-phenyl-2-propenyl]-;<em>N</em>-Methyl-<em>N</em>-[(2<em>E</em>)-3-phenyl-2-propen-1-yl]-1-naphthalenemethanamine;Naftifine;Naftifungin;Nafetifine",
    "duplicated_cas_no": "",
    "SMILES": "C(N(C/C=C/C1=CC=CC=C1)C)C=2C3=C(C=CC2)C=CC=C3",
    "meta_data": {
        "InChI": "InChI=1S/C21H21N/c1-22(16-8-11-18-9-3-2-4-10-18)17-20-14-7-13-19-12-5-6-15-21(19)20/h2-15H,16-17H2,1H3/b11-8+",
        "InChIKey": null,
        "Canonical SMILES": "C=1C=CC(=CC1)C=CCN(C)CC2=CC=CC=3C=CC=CC32",
        "Molecular Formula": "C<sub>21</sub>H<sub>21</sub>N",
        "Molecular Mass": "287.40",
        "Boiling Point": "162-167 °C @ Press: 0.015 Torr"
    }
}