{
    "cas_no": "297-76-7",
    "key_name": "Ethynodiol diacetate",
    "cn_name": "双醋炔诺醇;",
    "alternate_name": "19-Norpregn-4-en-20-yne-3,17-diol, 3,17-diacetate, (3β,17α)-;19-Norpregn-4-en-20-yne-3,17-diol, diacetate, (3β,17α)-;19-Nor-17α-pregn-4-en-20-yne-3β,17-diol, diacetate;SC 11800;Ethynodiol acetate;17α-Ethynyl-4-estrene-3β,17β-diol diacetate;Ethynodiol diacetate;Metrodiol;Metrodiol, diacetate;17α-Ethynyl-4-estren-3β,17-diol diacetate;Ethinodiol diacetate;3β,17β-Diacetoxy-19-nor-17α-pregn-4-en-20-yne;17-Ethynyl-19-norandrost-4-ene-3β,17β-diol diacetate;Cervicundin;17α-Ethynyl-4-estrene-3β,17β-diacetate;8080CB;Luto-Metrodiol;β-Ethynodiol diacetate;Femulen;Continuin;Luteonorm;Etynodiol acetate;MeSH ID: D005040",
    "duplicated_cas_no": "",
    "SMILES": "O(C(C)=O)[C@]1(C#C)[C@]2(C)[C@@](CC1)([C@]3([C@](CC2)([C@@]4(C(CC3)=C[C@@H](OC(C)=O)CC4)[H])[H])[H])[H]",
    "meta_data": {
        "InChI": "InChI=1S/C24H32O4/c1-5-24(28-16(3)26)13-11-22-21-8-6-17-14-18(27-15(2)25)7-9-19(17)20(21)10-12-23(22,24)4/h1,14,18-22H,6-13H2,2-4H3/t18-,19-,20+,21+,22-,23-,24-/m0/s1",
        "InChIKey": null,
        "Canonical SMILES": "O=C(OC1C=C2CCC3C(CCC4(C)C3CCC4(C#C)OC(=O)C)C2CC1)C",
        "Molecular Formula": "C<sub>24</sub>H<sub>32</sub>O<sub>4</sub>",
        "Molecular Mass": "384.51",
        "Melting Point": "142-146 °C"
    }
}