{
    "cas_no": "10102-90-6",
    "key_name": "Copper pyrophosphate",
    "cn_name": "焦磷酸铜;",
    "alternate_name": "Diphosphoric acid, copper salt (1:?);Pyrophosphoric acid, copper salt;Diphosphoric acid, copper salt;Copper pyrophosphate",
    "duplicated_cas_no": "",
    "SMILES": "O(P(=O)(O)O)P(=O)(O)O.[Cu]",
    "meta_data": {
        "InChI": "InChI=1S/Cu.H4O7P2/c;1-8(2,3)7-9(4,5)6/h;(H2,1,2,3)(H2,4,5,6)",
        "InChIKey": null,
        "Canonical SMILES": "[Cu].O=P(O)(O)OP(=O)(O)O",
        "Molecular Formula": "Cu.xH<sub>4</sub>O<sub>7</sub>P<sub>2</sub>",
        "Molecular Mass": "",
        "Melting Point": "1140 °C",
        "Density": "4.2 g/cm³"
    }
}