{
    "cas_no": "637-64-9",
    "key_name": "Tetrahydrofurfuryl acetate",
    "cn_name": "乙酸四氢糠酯;四氢糠醇乙酸酯;乙酸四氢-2-呋喃甲酯;乙酸氢糠酯;乙酸四氢呋喃甲酯;",
    "alternate_name": "2-Furanmethanol, tetrahydro-, 2-acetate;Furfuryl alcohol, tetrahydro-, acetate;2-Furanmethanol, tetrahydro-, acetate;Tetrahydrofurfuryl acetate;2-(Acetoxymethyl)oxolane;2-(Acetoxymethyl)tetrahydrofuran;NSC 4872;(Tetrahydrofuran-2-yl)methyl acetate;(Oxolan-2-yl)methyl acetate",
    "duplicated_cas_no": "52630-61-2",
    "SMILES": "C(OC(C)=O)C1CCCO1",
    "meta_data": {
        "InChI": "InChI=1S/C7H12O3/c1-6(8)10-5-7-3-2-4-9-7/h7H,2-5H2,1H3",
        "InChIKey": null,
        "Canonical SMILES": "O=C(OCC1OCCC1)C",
        "Molecular Formula": "C<sub>7</sub>H<sub>12</sub>O<sub>3</sub>",
        "Molecular Mass": "144.17",
        "Boiling Point": "193 °C",
        "Density": "1.0770 g/cm³ @ Temp: 23 °C"
    }
}