{
    "cas_no": "86-19-1",
    "key_name": "2-Hydroxy-<em>N</em>-(4-methoxyphenyl)-11<em>H</em>-benzo[<em>a</em>]carbazole-3-carboxamide",
    "cn_name": "2-羟基-N-(4-甲氧基苯基)-11H-苯并[a]咔唑-3-甲酰胺;色酚AS-SG;纳夫妥AS-SG;",
    "alternate_name": "11<em>H</em>-Benzo[<em>a</em>]carbazole-3-carboxamide, 2-hydroxy-<em>N</em>-(4-methoxyphenyl)-;11<em>H</em>-Benzo[<em>a</em>]carbazole-3-carbox-<em>p</em>-anisidide, 2-hydroxy-;2-Hydroxy-<em>N</em>-(4-methoxyphenyl)-11<em>H</em>-benzo[<em>a</em>]carbazole-3-carboxamide;C.I. 37595;Amanil Naphthol AS-SG;Amarthol AS-SG;Azotol TCH;Brenthol GB;Cibanaphthol NS;Hiltonaphthol AS-SG;2-Hydroxy-11<em>H</em>-benzo[<em>a</em>]carbazole-3-carbox-<em>p</em>-anisidide;Naphtanilide SG;Naphtanilide SG-S 50;Naphthanilide SR;Naphthol AS-SG;Naphtholate AS-SG Soln.;Naphtoelan SG;Naphtol AS-SG;Naphtol AS-SGLL;Naphtol AS-SG Supra;Tulathol AS-SG;2-Hydroxy-3-[<em>N</em>-(4-methoxyphenyl)carbamoyl]-11<em>H</em>-benzo[<em>a</em>]carbazole;2-Hydroxy-α-benzocarbazole-3-carboxylic acid <em>p</em>-methoxyanilide;C.I. Azoic Coupling Component 13;Naphthol SG;Azoic Coupling Component 13;Scarlet RC Base;Dycosthol AS-SG;Napthol ASSG;Naftol AS-SG;<em>N</em>-(4-Methoxyphenyl)-2-hydroxy-11<em>H</em>-benzo[<em>a</em>]carbazole-3-carbamide",
    "duplicated_cas_no": "118489-39-7",
    "SMILES": "OC1=CC2=C3C(C=4C(N3)=CC=CC4)=CC=C2C=C1C(NC5=CC=C(OC)C=C5)=O",
    "meta_data": {
        "InChI": "InChI=1S/C24H18N2O3/c1-29-16-9-7-15(8-10-16)25-24(28)20-12-14-6-11-18-17-4-2-3-5-21(17)26-23(18)19(14)13-22(20)27/h2-13,26-27H,1H3,(H,25,28)",
        "InChIKey": null,
        "Canonical SMILES": "O=C(NC1=CC=C(OC)C=C1)C2=CC=3C=CC=4C=5C=CC=CC5NC4C3C=C2O",
        "Molecular Formula": "C<sub>24</sub>H<sub>18</sub>N<sub>2</sub>O<sub>3</sub>",
        "Molecular Mass": "382.41",
        "Melting Point": "246 °C"
    }
}