{
    "cas_no": "97-09-6",
    "key_name": "4-Chloro-3-nitrobenzenesulfonamide",
    "cn_name": "3-硝基-4-氯苯磺酰胺;对氯间硝基苯磺酰胺;",
    "alternate_name": "Benzenesulfonamide, 4-chloro-3-nitro-;4-Chloro-3-nitrobenzenesulfonamide;NSC 512314;4-Chloro-3-nitrobenzene-1-sulfonamide",
    "duplicated_cas_no": "",
    "SMILES": "N(=O)(=O)C1=CC(S(N)(=O)=O)=CC=C1Cl",
    "meta_data": {
        "InChI": "InChI=1S/C6H5ClN2O4S/c7-5-2-1-4(14(8,12)13)3-6(5)9(10)11/h1-3H,(H2,8,12,13)",
        "InChIKey": null,
        "Canonical SMILES": "O=N(=O)C1=CC(=CC=C1Cl)S(=O)(=O)N",
        "Molecular Formula": "C<sub>6</sub>H<sub>5</sub>ClN<sub>2</sub>O<sub>4</sub>S",
        "Molecular Mass": "236.63",
        "Boiling Point": "175-176 °C",
        "Melting Point": "176 °C"
    }
}