{
    "cas_no": "78033-08-6",
    "key_name": "8-Methoxymethyl-3-isobutyl-1-methylxanthine",
    "cn_name": "8-甲氧基甲基-3-异丁酰-1-甲基黄嘌呤;",
    "alternate_name": "1<em>H</em>-Purine-2,6-dione, 3,9-dihydro-8-(methoxymethyl)-1-methyl-3-(2-methylpropyl)-;1<em>H</em>-Purine-2,6-dione, 3,7-dihydro-8-(methoxymethyl)-1-methyl-3-(2-methylpropyl)-;3,9-Dihydro-8-(methoxymethyl)-1-methyl-3-(2-methylpropyl)-1<em>H</em>-purine-2,6-dione;1-Methyl-3-isobutyl-8-methoxymethylxanthine;8-Methoxymethyl-3-isobutyl-1-methylxanthine;MMPX;8-(Methoxymethyl)-1-methyl-3-(2-methylpropy l)-7<em>H</em>-purine-2,6-dione;3-Isobutyl-8-(methoxymethyl)-1-methyl-1<em>H</em>-purine-2,6(3<em>H</em>,7<em>H</em>)-dione",
    "duplicated_cas_no": "",
    "SMILES": "C(C(C)C)N1C2=C(NC(COC)=N2)C(=O)N(C)C1=O",
    "meta_data": {
        "InChI": "InChI=1S/C12H18N4O3/c1-7(2)5-16-10-9(11(17)15(3)12(16)18)13-8(14-10)6-19-4/h7H,5-6H2,1-4H3,(H,13,14)",
        "InChIKey": null,
        "Canonical SMILES": "O=C1C=2NC(=NC2N(C(=O)N1C)CC(C)C)COC",
        "Molecular Formula": "C<sub>12</sub>H<sub>18</sub>N<sub>4</sub>O<sub>3</sub>",
        "Molecular Mass": "266.30",
        "Melting Point": "196 °C"
    }
}