{
    "cas_no": "631-67-4",
    "key_name": "<em>N</em>,<em>N</em>-Dimethylethanethioamide",
    "cn_name": "N,N-二甲基硫代乙酰胺;二甲基硫代乙酰胺;",
    "alternate_name": "Ethanethioamide, <em>N</em>,<em>N</em>-dimethyl-;Acetamide, <em>N</em>,<em>N</em>-dimethylthio-;<em>N</em>,<em>N</em>-Dimethylethanethioamide;<em>N</em>,<em>N</em>-Dimethylthioacetamide;Dimethylthioacetamide",
    "duplicated_cas_no": "",
    "SMILES": "C(N(C)C)(C)=S",
    "meta_data": {
        "InChI": "InChI=1S/C4H9NS/c1-4(6)5(2)3/h1-3H3",
        "InChIKey": null,
        "Canonical SMILES": "S=C(N(C)C)C",
        "Molecular Formula": "C<sub>4</sub>H<sub>9</sub>NS",
        "Molecular Mass": "103.19",
        "Boiling Point": "105-106 °C @ Press: 12 Torr",
        "Melting Point": "72 °C"
    }
}