{
    "cas_no": "333-93-7",
    "key_name": "Putrescine dihydrochloride",
    "cn_name": "1,4-丁二胺二盐酸盐;1,4-二氨基丁烷二盐酸盐;",
    "alternate_name": "1,4-Butanediamine, hydrochloride (1:2);1,4-Butanediamine, dihydrochloride;Putrescine dihydrochloride;Putrescine hydrochloride;1,4-Diaminobutane dihydrochloride;Tetramethylenediamine dihydrochloride",
    "duplicated_cas_no": "29142-66-3",
    "SMILES": "C(CCN)CN.Cl",
    "meta_data": {
        "InChI": "InChI=1S/C4H12N2.2ClH/c5-3-1-2-4-6;;/h1-6H2;2*1H",
        "InChIKey": null,
        "Canonical SMILES": "Cl.NCCCCN",
        "Molecular Formula": "C<sub>4</sub>H<sub>12</sub>N<sub>2</sub>.2ClH",
        "Molecular Mass": "",
        "Melting Point": "280 °C (decomp)"
    }
}