{
    "cas_no": "85877-79-8",
    "key_name": "Nonafluorohexyltrimethoxysilane",
    "cn_name": null,
    "alternate_name": "Silane, trimethoxy(3,3,4,4,5,5,6,6,6-nonafluorohexyl)-;Trimethoxy(3,3,4,4,5,5,6,6,6-nonafluorohexyl)silane;Trimethoxy-2-perfluorobutylethylsilane;3,3,4,4,5,5,6,6,6-Nonafluorohexyltrimethoxysilane;Nonafluoro-1,1,2,2-tetrahydrohexyltrimethoxysilane;1,1,2,2-Tetrahydroperfluorohexyltrimethoxysilane;Dow Corning B 3958;Nonafluorobutylethyltrimethoxysilane;(1,1,2,2-Tetrahydrononafluorohexyl)trimethoxysilane;Nonafluorohexyltrimethoxysilane;2-Perfluorobutylethyltrimethoxysilane;Trimethoxy(1<em>H</em>,1<em>H</em>,2<em>H</em>,2<em>H</em>-nonafluorohexyl)silane;Trimethoxy(1<em>H</em>,1<em>H</em>,2<em>H</em>,2<em>H</em>-nonafluoro-<em>n</em>-hexyl)silane;T 2918;FAS 9E",
    "duplicated_cas_no": "",
    "SMILES": "[Si](CCC(C(C(C(F)(F)F)(F)F)(F)F)(F)F)(OC)(OC)OC",
    "meta_data": {
        "InChI": "InChI=1S/C9H13F9O3Si/c1-19-22(20-2,21-3)5-4-6(10,11)7(12,13)8(14,15)9(16,17)18/h4-5H2,1-3H3",
        "InChIKey": null,
        "Canonical SMILES": "FC(F)(F)C(F)(F)C(F)(F)C(F)(F)CC[Si](OC)(OC)OC",
        "Molecular Formula": "C<sub>9</sub>H<sub>13</sub>F<sub>9</sub>O<sub>3</sub>Si",
        "Molecular Mass": "368.27",
        "Boiling Point": "68-69 °C @ Press: 15 Torr",
        "Density": "1.335 g/cm³"
    }
}