{
    "cas_no": "17515-74-1",
    "key_name": "5-Methyl-2-(trifluoromethyl)-3-furancarboxylic acid",
    "cn_name": null,
    "alternate_name": "3-Furancarboxylic acid, 5-methyl-2-(trifluoromethyl)-;3-Furoic acid, 5-methyl-2-(trifluoromethyl)-;5-Methyl-2-(trifluoromethyl)-3-furancarboxylic acid;2-Methyl-5-(trifluoromethyl)-4-furancarboxylic acid;2-Trifluoromethyl-5-methyl-3-furancarboxylic acid;5-Methyl-2-trifluoromethylfuran-3-carboxylic acid",
    "duplicated_cas_no": "",
    "SMILES": "C(O)(=O)C1=C(C(F)(F)F)OC(C)=C1",
    "meta_data": {
        "InChI": "InChI=1S/C7H5F3O3/c1-3-2-4(6(11)12)5(13-3)7(8,9)10/h2H,1H3,(H,11,12)",
        "InChIKey": null,
        "Canonical SMILES": "O=C(O)C=1C=C(OC1C(F)(F)F)C",
        "Molecular Formula": "C<sub>7</sub>H<sub>5</sub>F<sub>3</sub>O<sub>3</sub>",
        "Molecular Mass": "194.11",
        "Melting Point": "106-108 °C"
    }
}