{
    "cas_no": "1599-67-3",
    "key_name": "1-Docosene",
    "cn_name": "1-二十二烯;1-二十二烯;",
    "alternate_name": "1-Docosene;NSC 78486",
    "duplicated_cas_no": "",
    "SMILES": "C(CCCCCCCCCC=C)CCCCCCCCCC",
    "meta_data": {
        "InChI": "InChI=1S/C22H44/c1-3-5-7-9-11-13-15-17-19-21-22-20-18-16-14-12-10-8-6-4-2/h3H,1,4-22H2,2H3",
        "InChIKey": null,
        "Canonical SMILES": "C=CCCCCCCCCCCCCCCCCCCCC",
        "Molecular Formula": "C<sub>22</sub>H<sub>44</sub>",
        "Molecular Mass": "308.58",
        "Boiling Point": "367 °C",
        "Melting Point": "38 °C"
    }
}