{
    "cas_no": "6607-34-7",
    "key_name": "1,4,7-Trioxacyclotridecane-8,13-dione",
    "cn_name": null,
    "alternate_name": "1,4,7-Trioxacyclotridecane-8,13-dione;Adipic acid, cyclic diester with diethylene glycol;Adipic acid, cyclic ester with diethylene glycol;Diethylene glycol, cyclic adipate;Cyclic diethylene glycol adipate",
    "duplicated_cas_no": "",
    "SMILES": "O=C1CCCCC(=O)OCCOCCO1",
    "meta_data": {
        "InChI": "InChI=1S/C10H16O5/c11-9-3-1-2-4-10(12)15-8-6-13-5-7-14-9/h1-8H2",
        "InChIKey": null,
        "Canonical SMILES": "O=C1OCCOCCOC(=O)CCCC1",
        "Molecular Formula": "C<sub>10</sub>H<sub>16</sub>O<sub>5</sub>",
        "Molecular Mass": "216.23",
        "Melting Point": "79-80 °C"
    }
}