{
    "cas_no": "929-77-1",
    "key_name": "Methyl behenate",
    "cn_name": "二十二烷酸甲酯;山嵛酸甲酯;二十二碳烷酸甲酯;",
    "alternate_name": "Docosanoic acid, methyl ester;Methyl behenate;Methyl docosanoate;Methyl <em>n</em>-docosanoate;Behenic acid methyl ester;Kemester 9022;Kemester 9027-90;NSC 158426",
    "duplicated_cas_no": "",
    "SMILES": "C(CCCCCCCCCCCCCCCC)CCCCC(OC)=O",
    "meta_data": {
        "InChI": "InChI=1S/C23H46O2/c1-3-4-5-6-7-8-9-10-11-12-13-14-15-16-17-18-19-20-21-22-23(24)25-2/h3-22H2,1-2H3",
        "InChIKey": null,
        "Canonical SMILES": "O=C(OC)CCCCCCCCCCCCCCCCCCCCC",
        "Molecular Formula": "C<sub>23</sub>H<sub>46</sub>O<sub>2</sub>",
        "Molecular Mass": "354.61",
        "Boiling Point": "224-225 °C @ Press: 15 Torr",
        "Melting Point": "54 °C"
    }
}