{
    "cas_no": "75-33-2",
    "key_name": "2-Propanethiol",
    "cn_name": "异丙硫醇;2-丙基硫醇;",
    "alternate_name": "2-Propanethiol;Isopropyl mercaptan;Isopropanethiol;Isopropylthiol;2-Mercaptopropane;1-Methylethanethiol;2-Propylmercaptan;i-Propylthiol;NSC 87537;i-Propanethiol;BHR 6986",
    "duplicated_cas_no": "",
    "SMILES": "C(C)(C)S",
    "meta_data": {
        "InChI": "InChI=1S/C3H8S/c1-3(2)4/h3-4H,1-2H3",
        "InChIKey": null,
        "Canonical SMILES": "SC(C)C",
        "Molecular Formula": "C<sub>3</sub>H<sub>8</sub>S",
        "Molecular Mass": "76.16",
        "Boiling Point": "52.5 °C @ Press: 760 Torr",
        "Melting Point": "-130.5 °C",
        "Density": "0.8143 g/cm³ @ Temp: 20 °C"
    }
}