{
    "cas_no": "7790-48-9",
    "key_name": "Tellurium iodide (TeI<sub>4</sub>), (<em>T</em>-4)-",
    "cn_name": "四碘化碲;碘化碲;",
    "alternate_name": "Tellurium iodide (TeI<sub>4</sub>), (<em>T</em>-4)-;Tellurium iodide (TeI<sub>4</sub>);Tellurium tetraiodide;Tellurium iodide (Te<sub>0.2</sub>I<sub>0.8</sub>)",
    "duplicated_cas_no": "213405-66-4",
    "SMILES": "[Te](I)(I)(I)I",
    "meta_data": {
        "InChI": "InChI=1S/I4Te/c1-5(2,3)4",
        "InChIKey": null,
        "Canonical SMILES": "I[Te](I)(I)I",
        "Molecular Formula": "I<sub>4</sub>Te",
        "Molecular Mass": "",
        "Melting Point": "280 °C",
        "Density": "5.05 g/cm³ @ Temp: 15 °C"
    }
}