{
    "cas_no": "99-89-8",
    "key_name": "4-Isopropylphenol",
    "cn_name": "4-异丙基苯酚;对异丙基苯酚;",
    "alternate_name": "Phenol, 4-(1-methylethyl)-;Phenol, <em>p</em>-isopropyl-;4-(1-Methylethyl)phenol;<em>p</em>-Isopropylphenol;Australol;4-Isopropylphenol;<em>p</em>-Cumenol;NSC 1888;4-(Propan-2-yl)phenol",
    "duplicated_cas_no": "",
    "SMILES": "C(C)(C)C1=CC=C(O)C=C1",
    "meta_data": {
        "InChI": "InChI=1S/C9H12O/c1-7(2)8-3-5-9(10)6-4-8/h3-7,10H,1-2H3",
        "InChIKey": null,
        "Canonical SMILES": "OC1=CC=C(C=C1)C(C)C",
        "Molecular Formula": "C<sub>9</sub>H<sub>12</sub>O",
        "Molecular Mass": "136.19",
        "Boiling Point": "230 °C",
        "Melting Point": "62.3 °C",
        "Density": "0.970 g/cm³ @ Temp: 15 °C"
    }
}