{
    "cas_no": "533-18-6",
    "key_name": "2-Methylphenyl acetate",
    "cn_name": "乙酸邻甲苯酯;",
    "alternate_name": "Acetic acid, 2-methylphenyl ester;Acetic acid, <em>o</em>-tolyl ester;Acetyl-<em>o</em>-cresol;<em>o</em>-Cresol acetate;<em>o</em>-Cresylic acetate;<em>o</em>-Tolyl acetate;<em>o</em>-Cresyl acetate;2-Methylphenyl acetate;<em>o</em>-Methylphenyl acetate;<em>o</em>-Acetoxytoluene;2-Acetoxytoluene;NSC 58961;NSC 6257",
    "duplicated_cas_no": "",
    "SMILES": "O(C(C)=O)C1=C(C)C=CC=C1",
    "meta_data": {
        "InChI": "InChI=1S/C9H10O2/c1-7-5-3-4-6-9(7)11-8(2)10/h3-6H,1-2H3",
        "InChIKey": null,
        "Canonical SMILES": "O=C(OC=1C=CC=CC1C)C",
        "Molecular Formula": "C<sub>9</sub>H<sub>10</sub>O<sub>2</sub>",
        "Molecular Mass": "150.17",
        "Boiling Point": "208 °C",
        "Density": "1.0578 g/cm³ @ Temp: 20 °C"
    }
}