{
    "cas_no": "489-39-4",
    "key_name": "Aromadendrene",
    "cn_name": "(+)-香橙烯;(+)-香橙烯;",
    "alternate_name": "1<em>H</em>-Cycloprop[<em>e</em>]azulene, decahydro-1,1,7-trimethyl-4-methylene-, (1a<em>R</em>,4a<em>R</em>,7<em>R</em>,7a<em>R</em>,7b<em>S</em>)-;Aromadendrene;1<em>H</em>-Cycloprop[<em>e</em>]azulene, decahydro-1,1,7-trimethyl-4-methylene-, (1a<em>R</em>,4a<em>R</em>,7<em>R</em>,7a<em>R</em>,7b<em>S</em>)-(+)-;1<em>H</em>-Cycloprop[<em>e</em>]azulene, decahydro-1,1,7-trimethyl-4-methylene-, [1a<em>R</em>-(1aα,4aα,7α,7aβ,7bα)]-;(1a<em>R</em>,4a<em>R</em>,7<em>R</em>,7a<em>R</em>,7b<em>S</em>)-Decahydro-1,1,7-trimethyl-4-methylene-1<em>H</em>-cycloprop[<em>e</em>]azulene;Aromadendrene, (+)-;(+)-Aromadendrene;Aromadendr-7(15)-ene;10(14)-Aromadendrene",
    "duplicated_cas_no": "25246-26-8",
    "SMILES": "CC1(C)[C@]2([C@]3([C@](C(=C)CC[C@]21[H])(CC[C@H]3C)[H])[H])[H]",
    "meta_data": {
        "InChI": "InChI=1S/C15H24/c1-9-6-8-12-14(15(12,3)4)13-10(2)5-7-11(9)13/h10-14H,1,5-8H2,2-4H3/t10-,11+,12-,13-,14-/m1/s1",
        "InChIKey": null,
        "Canonical SMILES": "C=C1CCC2C(C3C1CCC3C)C2(C)C",
        "Molecular Formula": "C<sub>15</sub>H<sub>24</sub>",
        "Molecular Mass": "204.35",
        "Boiling Point": "94 °C @ Press: 3 Torr",
        "Density": "0.9166 g/cm³ @ Temp: 204 °C"
    }
}