{
    "cas_no": "105942-10-7",
    "key_name": "3-Fluoro-4-formylbenzonitrile",
    "cn_name": "4-氰基-2-氟苯甲醛;",
    "alternate_name": "Benzonitrile, 3-fluoro-4-formyl-;3-Fluoro-4-formylbenzonitrile;2-Fluoro-4-cyanobenzaldehyde;4-Cyano-2-fluorobenzaldehyde",
    "duplicated_cas_no": "",
    "SMILES": "C(#N)C1=CC(F)=C(C=O)C=C1",
    "meta_data": {
        "InChI": "InChI=1S/C8H4FNO/c9-8-3-6(4-10)1-2-7(8)5-11/h1-3,5H",
        "InChIKey": null,
        "Canonical SMILES": "N#CC1=CC=C(C=O)C(F)=C1",
        "Molecular Formula": "C<sub>8</sub>H<sub>4</sub>FNO",
        "Molecular Mass": "149.12",
        "Melting Point": "76-77 °C"
    }
}