{
    "cas_no": "50-27-1",
    "key_name": "Estriol",
    "cn_name": "雌三醇;",
    "alternate_name": "Estra-1,3,5(10)-triene-3,16,17-triol, (16α,17β)-;Estriol;(16α,17β)-Estra-1,3,5(10)-triene-3,16,17-triol;Destriol;Estra-1,3,5(10)-triene-3,16α,17β-triol;Estratriol;Follicular hormone hydrate;OE<sub>3</sub>;Ovestin;Theelol;Tridestrin;3,16α,17β-Trihydroxyestra-1,3,5(10)-triene;Trihydroxyestrin;16α,17β-Estriol;3,16α,17β-Estriol;NSC 12169;16α-Estriol;16α-Hydroxyestradiol;Holin V;13β-Methyl-1,3,5(10)-gonatriene-3,16α,17β-triol;Oestriol;Colpogyn;Ortho-Gynest;Gynasan;Aacifemine;Oekolp;Triovex;Hormomed;Klimoral;Klimax E;Ovesterin;Ovo-Vinces;Incurin;Estriel;Ovestrion;MeSH ID: D004964",
    "duplicated_cas_no": "1050676-52-2",
    "SMILES": "C[C@@]12[C@]([C@]3([C@@](C=4C(CC3)=CC(O)=CC4)(CC1)[H])[H])(C[C@@H](O)[C@@H]2O)[H]",
    "meta_data": {
        "InChI": "InChI=1S/C18H24O3/c1-18-7-6-13-12-5-3-11(19)8-10(12)2-4-14(13)15(18)9-16(20)17(18)21/h3,5,8,13-17,19-21H,2,4,6-7,9H2,1H3/t13-,14-,15+,16-,17+,18+/m1/s1",
        "InChIKey": null,
        "Canonical SMILES": "OC1=CC=C2C(=C1)CCC3C2CCC4(C)C(O)C(O)CC34",
        "Molecular Formula": "C<sub>18</sub>H<sub>24</sub>O<sub>3</sub>",
        "Molecular Mass": "288.38",
        "Melting Point": "282 °C",
        "Density": "1.27 g/cm³"
    }
}