{
    "cas_no": "19992-45-1",
    "key_name": "4-Phenylcyclohexylamine",
    "cn_name": null,
    "alternate_name": "Cyclohexanamine, 4-phenyl-;Cyclohexylamine, 4-phenyl-;4-Phenylcyclohexanamine;4-Phenylcyclohexylamine;4-Phenylcyclohexan-1-amine",
    "duplicated_cas_no": "",
    "SMILES": "NC1CCC(CC1)C2=CC=CC=C2",
    "meta_data": {
        "InChI": "InChI=1S/C12H17N/c13-12-8-6-11(7-9-12)10-4-2-1-3-5-10/h1-5,11-12H,6-9,13H2",
        "InChIKey": null,
        "Canonical SMILES": "NC1CCC(C=2C=CC=CC2)CC1",
        "Molecular Formula": "C<sub>12</sub>H<sub>17</sub>N",
        "Molecular Mass": "175.27",
        "Boiling Point": "279 °C @ Press: 760 mmHg"
    }
}