{
    "cas_no": "104206-65-7",
    "key_name": "Nitisinone",
    "cn_name": null,
    "alternate_name": "1,3-Cyclohexanedione, 2-[2-nitro-4-(trifluoromethyl)benzoyl]-;2-[2-Nitro-4-(trifluoromethyl)benzoyl]-1,3-cyclohexanedione;Nitisinone;SC 0735;Orfadin;NTBC;Nitisone;Nityr",
    "duplicated_cas_no": "",
    "SMILES": "C(=O)(C1=C(N(=O)=O)C=C(C(F)(F)F)C=C1)C2C(=O)CCCC2=O",
    "meta_data": {
        "InChI": "InChI=1S/C14H10F3NO5/c15-14(16,17)7-4-5-8(9(6-7)18(22)23)13(21)12-10(19)2-1-3-11(12)20/h4-6,12H,1-3H2",
        "InChIKey": null,
        "Canonical SMILES": "O=C(C1=CC=C(C=C1N(=O)=O)C(F)(F)F)C2C(=O)CCCC2=O",
        "Molecular Formula": "C<sub>14</sub>H<sub>10</sub>F<sub>3</sub>NO<sub>5</sub>",
        "Molecular Mass": "329.23",
        "Melting Point": "140-142 °C"
    }
}