{
    "cas_no": "348-37-8",
    "key_name": "1<em>H</em>-Indole-2-carboxylic acid, 6-fluoro-, ethyl ester",
    "cn_name": "6-氟吲哚-2-甲酸乙酯;",
    "alternate_name": "1<em>H</em>-Indole-2-carboxylic acid, 6-fluoro-, ethyl ester;Indole-2-carboxylic acid, 6-fluoro-, ethyl ester;Ethyl 6-fluoro-1<em>H</em>-indole-2-carboxylate;6-Fluoro-1<em>H</em>-indole-2-carboxylic acid ethyl ester;Ethyl 6-fluoroindole-2-carboxylate",
    "duplicated_cas_no": "",
    "SMILES": "C(OCC)(=O)C=1NC=2C(C1)=CC=C(F)C2",
    "meta_data": {
        "InChI": "InChI=1S/C11H10FNO2/c1-2-15-11(14)10-5-7-3-4-8(12)6-9(7)13-10/h3-6,13H,2H2,1H3",
        "InChIKey": null,
        "Canonical SMILES": "O=C(OCC)C1=CC=2C=CC(F)=CC2N1",
        "Molecular Formula": "C<sub>11</sub>H<sub>10</sub>FNO<sub>2</sub>",
        "Molecular Mass": "207.20",
        "Melting Point": "143 °C"
    }
}