{
    "cas_no": "51779-32-9",
    "key_name": "1,3-Bis(1,1-dimethylethyl) imidodicarbonate",
    "cn_name": "双(叔丁氧羰基)胺;亚氨二甲酸二叔丁酯;",
    "alternate_name": "Imidodicarbonic acid, 1,3-bis(1,1-dimethylethyl) ester;Imidodicarbonic acid, bis(1,1-dimethylethyl) ester;Imidodicarboxylic acid, di-<em>tert</em>-butyl ester;1,3-Bis(1,1-dimethylethyl) imidodicarbonate;Di-<em>tert</em>-butyl imidodicarbonate;Di-<em>tert</em>-butyl imidodicarboxylate;Bis(<em>tert</em>-butoxycarbonyl)amine;Di-<em>tert</em>-butyl iminodicarboxylate;NSC 131088;Bis(Boc)amine;Iminodicarboxylic acid di(<em>tert</em>-butyl) ester;<em>tert</em>-Butyl <em>N</em>-(<em>tert</em>-butoxycarbonyl)carbamate;Di-<em>tert</em>-butyl iminodicarbonate",
    "duplicated_cas_no": "",
    "SMILES": "O(C(C)(C)C)C(NC(OC(C)(C)C)=O)=O",
    "meta_data": {
        "InChI": "InChI=1S/C10H19NO4/c1-9(2,3)14-7(12)11-8(13)15-10(4,5)6/h1-6H3,(H,11,12,13)",
        "InChIKey": null,
        "Canonical SMILES": "O=C(OC(C)(C)C)NC(=O)OC(C)(C)C",
        "Molecular Formula": "C<sub>10</sub>H<sub>19</sub>NO<sub>4</sub>",
        "Molecular Mass": "217.26",
        "Melting Point": "118-120 °C"
    }
}