{
    "cas_no": "84-54-8",
    "key_name": "2-Methylanthraquinone",
    "cn_name": "2-甲基蒽醌;",
    "alternate_name": "9,10-Anthracenedione, 2-methyl-;Anthraquinone, 2-methyl-;2-Methyl-9,10-anthracenedione;2-Methylanthraquinone;Tectoquinone;2-Methyl-9,10-anthraquinone;Tectochinon;2-Methylanthracene-9,10-dione;β-Methylanthraquinone;NSC 607",
    "duplicated_cas_no": "",
    "SMILES": "O=C1C=2C(C(=O)C=3C1=CC=CC3)=CC=C(C)C2",
    "meta_data": {
        "InChI": "InChI=1S/C15H10O2/c1-9-6-7-12-13(8-9)15(17)11-5-3-2-4-10(11)14(12)16/h2-8H,1H3",
        "InChIKey": null,
        "Canonical SMILES": "O=C1C=2C=CC=CC2C(=O)C3=CC(=CC=C13)C",
        "Molecular Formula": "C<sub>15</sub>H<sub>10</sub>O<sub>2</sub>",
        "Molecular Mass": "222.24",
        "Boiling Point": "215-220 °C @ Press: 4 Torr",
        "Melting Point": "177 °C"
    }
}