{
    "cas_no": "563-83-7",
    "key_name": "Isobutyramide",
    "cn_name": "异丁酰胺;",
    "alternate_name": "Propanamide, 2-methyl-;Isobutyramide;2-Methylpropanamide;Isobutyrimidic acid;Isopropylformamide;Isobutanamide;2-Methylpropionamide;VX 366;NSC 8423",
    "duplicated_cas_no": "",
    "SMILES": "C(C(N)=O)(C)C",
    "meta_data": {
        "InChI": "InChI=1S/C4H9NO/c1-3(2)4(5)6/h3H,1-2H3,(H2,5,6)",
        "InChIKey": null,
        "Canonical SMILES": "O=C(N)C(C)C",
        "Molecular Formula": "C<sub>4</sub>H<sub>9</sub>NO",
        "Molecular Mass": "87.12",
        "Boiling Point": "218 °C",
        "Melting Point": "128 °C"
    }
}