{
    "cas_no": "9003-29-6",
    "key_name": "Polybutylene",
    "cn_name": null,
    "alternate_name": "Butene, homopolymer;Butene, polymers;Amoco 15H;Polybutene SH 015;Polybutylene;Polybutene;Butene polymer;Oronite 6;Chevron 16;Petrofin 100;300H;Polyvis OO;Indopol 1900;PB 2110;Polybuden 300H;Indopol L 10;Chevron 6;Chevron 12;Chevron 18;Oktol 600;Hyvis 7000/45;L 14;LV 50;Polyvis 2000CH;L 14 (polymer);Witron 131;SV 7000;HE 1975;HE 375;Hyvis 3;Hyvis 10;Witron 0200;HE 300;10H;1600A;HV 15E;HV 100;Polybutene HV 100;Polybutene HV 35;HV 35;Polybutene HT-A;VH 100;5H;LV 100;Napvis D 30;Indopol H 25;Nisseki HV 300F;Nisseki HV 15;Nissan Polybutene 06N;Nisseki LV 10;Nisseki LV 50;Polyvis 200SH;Polyvis;Polyvis 06SH;Polyvis 025SH;Polyvis 150SH;HT 300;HV 15;Nisseki LV 100;Nisseki HV 35;Polybutene 100H;Polyvis NC 7000;Polyvis 300H;Polyvis 015N;Polyvis 5N;100H;Nisseki HV 100;Idemitsu Polybutene 5H;RHV 300;Nisseki LV 5;Polyvis 0N;PB 1500;Cosden OSH;Polyvis 06N;Nissan Polybutene 015N;Nissan Polybutene 5N;Indopol H 200;34R;Beaulon P 5040;Nisseki LV 15;Hyvis 5;Glissopal 91051;Glissopal CE 5203;Glissopal 92485;Glissopal 93026;Glissopal 93039;Nisseki HV 1000;Slovis 500;Slovis D 400;Slovis W 800;Glissopal 10;Oloa 9350;Parapol 700;HE 175;PB 4137;Poly-<em>n</em>-butene;ResinKit 22;Glissopal 3251;Ultravis 120;HV 300R;Polyvis 10N;Polybutene PB 5H;Polybutene 2000;Duraflex 8510;Poly SH 2500;Indopol H 40;Napvis DE 10;PB 8510;Polybutene 06N;Tafmer M 2481;Dynapak H 2000;Nissan Polybutene 200SH;200SH;Parapol 450;PB 100R;Polyvis ON;Polybutene 300H;Indopol 500;Indopol H 15;HV 300F;LZV 100;EIM 8;LP 15;LP 15 (polyolefin);Tafmer BL 027;NAS 5H;Indopol H 7;Indopol L 4;H 25;C 9900;Nissan Polybutene 06SH;Napvis 3;40SH;Idemitsu Polybutene 15R;15R;Polybutene 15R;Napvis 600;Napvis 2000;Vestowax B 912;B 912;NA (solvent);NA;NA Solvent NAS 5H;Poly SH 1900;Polybutene LV 50;Neosealer MS-N 12;Soltex 124;PM 2060;Idemitsu Polybutene OH;Polybutene 0H;PO 300H;Indopol H 1800;Polyvis 3SH;Nisseki Polybutene HV 300F;PB 15H;Indopol H 18000;Nisseki Polybutene LV 50;PH 162;Polybutene ON;HV 100F(SB);PB 450;PB 450 (polyolefin);Newglide M;PB 960;40SH (polyolefin);Idemitsu Polybutene 10H-A;Idemitsu Polybutene 300H;Idemitsu Polybutene 3000;10H-A;10<em>H</em>-A;PB 2;Polybutene 5SH;H 15;Polybutene 10N;Nisseki Polybutene HV 1900F;HV 1900F;Nissan Polybutene 10N;HR 2300;HV 30SH;Nisseki Polybutene LV 100;Nisseki Polybutene HV 300;HV 300;Nisseki Polybutene LV 7;LV 7;Nisseki HV 300;Polybutene SV 7000;Polybut 10;Polybut 30;TerPIB 950",
    "duplicated_cas_no": "9037-04-1;11121-22-5;42612-15-7;52012-58-5",
    "SMILES": "C(CC)C",
    "meta_data": {
        "InChI": "InChI=1S/C4H10/c1-3-4-2/h3-4H2,1-2H3",
        "InChIKey": null,
        "Canonical SMILES": "CCCC",
        "Molecular Formula": "(C<sub>4</sub>H<sub>8</sub>)<sub>x</sub>",
        "Molecular Mass": "",
        "Boiling Point": "293-341 °C",
        "Melting Point": "94.3-104.8 °C",
        "Density": "0.915 g/cm³"
    }
}