{
    "cas_no": "19241-36-2",
    "key_name": "4-Chloro-2-isothiocyanato-1-methylbenzene",
    "cn_name": "5-氯-2-甲基异硫氰酸苯酯;",
    "alternate_name": "Benzene, 4-chloro-2-isothiocyanato-1-methyl-;Isothiocyanic acid, 5-chloro-<em>o</em>-tolyl ester;4-Chloro-2-isothiocyanato-1-methylbenzene;5-Chloro-<em>o</em>-tolyl isothiocyanate;5-Chloro-2-methylphenyl isothiocyanate;2-Methyl-5-chlorophenyl isothiocyanate;NSC 134677",
    "duplicated_cas_no": "",
    "SMILES": "N(=C=S)C1=C(C)C=CC(Cl)=C1",
    "meta_data": {
        "InChI": "InChI=1S/C8H6ClNS/c1-6-2-3-7(9)4-8(6)10-5-11/h2-4H,1H3",
        "InChIKey": null,
        "Canonical SMILES": "S=C=NC1=CC(Cl)=CC=C1C",
        "Molecular Formula": "C<sub>8</sub>H<sub>6</sub>ClNS",
        "Molecular Mass": "183.66",
        "Boiling Point": "123 °C @ Press: 8 Torr"
    }
}