{
    "cas_no": "7782-61-8",
    "key_name": "Iron nitrate (Fe(NO<sub>3</sub>)<sub>3</sub>) nonahydrate",
    "cn_name": null,
    "alternate_name": "Nitric acid, iron(3+) salt, nonahydrate;Ferric nitrate nonahydrate;Iron(III) nitrate nonahydrate;Iron trinitrate nonahydrate;Iron(3+) nitrate nonahydrate;Iron nitrate (Fe(NO<sub>3</sub>)<sub>3</sub>) nonahydrate;Iron nitrate nonahydrate (Fe(NO<sub>3</sub>)<sub>3</sub>.9H<sub>2</sub>O)",
    "duplicated_cas_no": "13476-09-0;30296-82-3;850423-00-6;1313195-46-8",
    "SMILES": "N(=O)(=O)O.[Fe].O",
    "meta_data": {
        "InChI": "InChI=1S/Fe.HNO3.3H2O/c;2-1(3)4;;;/h;(H,2,3,4);3*1H2",
        "InChIKey": null,
        "Canonical SMILES": "[Fe].O=N(=O)O.O",
        "Molecular Formula": "Fe.9H<sub>2</sub>O.3HNO<sub>3</sub>",
        "Molecular Mass": "",
        "Melting Point": "47 °C"
    }
}