{
    "cas_no": "3266-23-7",
    "key_name": "2-Butylene oxide",
    "cn_name": "2,3-环氧丁烷;1,2-二甲基环氧乙烷;",
    "alternate_name": "Oxirane, 2,3-dimethyl-;Butane, 2,3-epoxy-;2,3-Dimethyloxirane;β-Oxybutene;β-Butylene oxide;2,3-Butylene oxide;2-Butene oxide;2,3-Epoxybutane;2-Butene epoxide;2-Butylene oxide",
    "duplicated_cas_no": "",
    "SMILES": "CC1C(C)O1",
    "meta_data": {
        "InChI": "InChI=1S/C4H8O/c1-3-4(2)5-3/h3-4H,1-2H3",
        "InChIKey": null,
        "Canonical SMILES": "O1C(C)C1C",
        "Molecular Formula": "C<sub>4</sub>H<sub>8</sub>O",
        "Molecular Mass": "72.11",
        "Boiling Point": "64-78 °C",
        "Density": "0.837 g/cm³ @ Temp: 51 °C"
    }
}