{
    "cas_no": "105-59-9",
    "key_name": "<em>N</em>-Methyldiethanolamine",
    "cn_name": "N-甲基二乙醇胺;",
    "alternate_name": "Ethanol, 2,2′-(methylimino)bis-;Ethanol, 2,2′-(methylimino)di-;2,2′-(Methylimino)bis[ethanol];Methyldiethanolamine;<em>N</em>-Methyldiethanolamine;<em>N</em>-Methyliminodiethanol;2,2′-(Methylimino)diethanol;<em>N</em>,<em>N</em>-Bis(2-hydroxyethyl)methylamine;Methylbis(2-hydroxyethyl)amine;Methyliminodiethanol;Diethanolmethylamine;<em>N</em>-Methylaminodiglycol;MDEA;Eve;<em>N</em>-(2-Hydroxyethyl)-<em>N</em>-methylethanolamine;<em>N</em>-Methylbis(2-hydroxyethyl)amine;MDEA (diol);Jefftreat MS 100;NSC 11690;NSC 49131;NSC 51500;2-[(2-Hydroxyethyl)(methyl)amino]ethanol;<em>N</em>,<em>N</em>-Di(2-hydroxyethyl)-<em>N</em>-methylamine;Gas Spec CS 2000;<em>N</em>,<em>N</em>-Di(2-hydroxyethyl)methylamine;Amino Alcohol MDA;<em>N</em>-Methyl-<em>N</em>,<em>N</em>-diethanolamine;ZC 10;<em>N</em>-Methyl-<em>N</em>,<em>N</em>-bis(2-hydroxyethyl)amine;<em>N</em>,<em>N</em>-Di(2-hydroxyethyl)methanamine;Bis(2-hydroxyethyl)-<em>N</em>-methylamine;2-[(2-Hydroxyethyl)(methyl)amino]ethan-1-ol;Genocure MDEA;Amietol M 12",
    "duplicated_cas_no": "214210-41-0;511262-76-3;944314-72-1",
    "SMILES": "N(CCO)(CCO)C",
    "meta_data": {
        "InChI": "InChI=1S/C5H13NO2/c1-6(2-4-7)3-5-8/h7-8H,2-5H2,1H3",
        "InChIKey": null,
        "Canonical SMILES": "OCCN(C)CCO",
        "Molecular Formula": "C<sub>5</sub>H<sub>13</sub>NO<sub>2</sub>",
        "Molecular Mass": "119.16",
        "Boiling Point": "247 °C",
        "Melting Point": "-21 °C",
        "Density": "1.0377 g/cm³ @ Temp: 20 °C"
    }
}