{
    "cas_no": "31752-99-5",
    "key_name": "[1,1′-Biphenyl]-4-carboxylic acid, (3a<em>R</em>,4<em>S</em>,5<em>R</em>,6a<em>S</em>)-hexahydro-4-(hydroxymethyl)-2-oxo-2<em>H</em>-cyclopenta[<em>b</em>]furan-5-yl ester",
    "cn_name": "(3aR,4S,5R,6aS)-(-)-六氢-4-(羟甲基)-2-氧代-2H-环戊并[b]呋喃-5-基1,1\"-联苯-4-甲酸酯;",
    "alternate_name": "[1,1′-Biphenyl]-4-carboxylic acid, (3a<em>R</em>,4<em>S</em>,5<em>R</em>,6a<em>S</em>)-hexahydro-4-(hydroxymethyl)-2-oxo-2<em>H</em>-cyclopenta[<em>b</em>]furan-5-yl ester;[1,1′-Biphenyl]-4-carboxylic acid, hexahydro-4-(hydroxymethyl)-2-oxo-2<em>H</em>-cyclopenta[<em>b</em>]furan-5-yl ester, [3a<em>R</em>-(3aα,4α,5β,6aα)]-;4-Biphenylcarboxylic acid, 5-ester with 3,3aα,4,5,6,6aα-hexahydro-5β-hydroxy-4α-(hydroxymethyl)-2<em>H</em>-cyclopenta[<em>b</em>]furan-2-one, (-)-;2<em>H</em>-Cyclopenta[<em>b</em>]furan, [1,1′-biphenyl]-4-carboxylic acid deriv.;(-)-Corey lactone;Corey lactone",
    "duplicated_cas_no": "57820-67-4",
    "SMILES": "C(O)[C@@H]1[C@@]2([C@](C[C@H]1OC(=O)C3=CC=C(C=C3)C4=CC=CC=C4)(OC(=O)C2)[H])[H]",
    "meta_data": {
        "InChI": "InChI=1S/C21H20O5/c22-12-17-16-10-20(23)25-18(16)11-19(17)26-21(24)15-8-6-14(7-9-15)13-4-2-1-3-5-13/h1-9,16-19,22H,10-12H2/t16-,17-,18+,19-/m1/s1",
        "InChIKey": null,
        "Canonical SMILES": "O=C(OC1CC2OC(=O)CC2C1CO)C=3C=CC(=CC3)C=4C=CC=CC4",
        "Molecular Formula": "C<sub>21</sub>H<sub>20</sub>O<sub>5</sub>",
        "Molecular Mass": "352.38",
        "Melting Point": "130.5-132 °C"
    }
}