{
    "cas_no": "4167-77-5",
    "key_name": "1,1-Cyclopentanedicarboxylic acid, 1,1-diethyl ester",
    "cn_name": null,
    "alternate_name": "1,1-Cyclopentanedicarboxylic acid, 1,1-diethyl ester;1,1-Cyclopentanedicarboxylic acid, diethyl ester;Diethyl 1,1-cyclopentanedicarboxylate;1,1-Bis(ethoxycarbonyl)cyclopentane;NSC 67352;1,1-Cyclopentanecarboxylic acid diethyl ester;1,1-Diethyl cyclopentane-1,1-dicarboxylate",
    "duplicated_cas_no": "",
    "SMILES": "C(OCC)(=O)C1(C(OCC)=O)CCCC1",
    "meta_data": {
        "InChI": "InChI=1S/C11H18O4/c1-3-14-9(12)11(7-5-6-8-11)10(13)15-4-2/h3-8H2,1-2H3",
        "InChIKey": null,
        "Canonical SMILES": "O=C(OCC)C1(C(=O)OCC)CCCC1",
        "Molecular Formula": "C<sub>11</sub>H<sub>18</sub>O<sub>4</sub>",
        "Molecular Mass": "214.26",
        "Boiling Point": "210 °C",
        "Density": "1.0186 g/cm³ @ Temp: 20 °C"
    }
}