{
    "cas_no": "111-19-3",
    "key_name": "Sebacoyl chloride",
    "cn_name": "癸二酰氯;氯化癸二酰;泌脂醯氯;",
    "alternate_name": "Decanedioyl dichloride;Sebacoyl chloride;Sebacoyl dichloride;Sebacyl chloride;Decanedioyl chloride;Sebacic acid dichloride;Sebacic acid chloride;Sebacic dichloride;Decanedioic dichloride;Decanedioic acid dichloride;NSC 56763",
    "duplicated_cas_no": "",
    "SMILES": "C(CC(Cl)=O)CCCCCCC(Cl)=O",
    "meta_data": {
        "InChI": "InChI=1S/C10H16Cl2O2/c11-9(13)7-5-3-1-2-4-6-8-10(12)14/h1-8H2",
        "InChIKey": null,
        "Canonical SMILES": "O=C(Cl)CCCCCCCCC(=O)Cl",
        "Molecular Formula": "C<sub>10</sub>H<sub>16</sub>Cl<sub>2</sub>O<sub>2</sub>",
        "Molecular Mass": "239.14",
        "Boiling Point": "152 °C @ Press: 12 Torr",
        "Melting Point": "-2.5 °C",
        "Density": "1.1375 g/cm³ @ Temp: 0 °C"
    }
}