{
    "cas_no": "38243-03-7",
    "key_name": "<em>R</em>-Ginsenoside Rg<sub>3</sub>",
    "cn_name": "人参皂苷Rg3;人参皂甙Rg3;",
    "alternate_name": "β-<span class=\"text-smallcaps\">D</smallcap>-Glucopyranoside, (3β,12β,20<em>R</em>)-12,20-dihydroxydammar-24-en-3-yl 2-<em>O</em>-β-<smallcap>D</span>-glucopyranosyl-;(3β,12β,20<em>R</em>)-12,20-Dihydroxydammar-24-en-3-yl 2-<em>O</em>-β-<span class=\"text-smallcaps\">D</smallcap>-glucopyranosyl-β-<smallcap>D</span>-glucopyranoside;20(<em>R</em>)-Propanaxadiol;20(<em>R</em>)-Ginsenoside Rg<sub>3</sub>;(3β,12β,20<em>R</em>)-12,20-Dihydroxydammar-24-en-3-yl <em>O</em>-β-<span class=\"text-smallcaps\">D</smallcap>-glucopyranosyl-(1→2)-β-<smallcap>D</span>-glucopyranoside;<em>R</em>-Ginsenoside Rg<sub>3</sub>;20R-Ginsenoside Rg3;Ginsenoside rg3(<em>R</em>);Ginsenoside R-Rg3",
    "duplicated_cas_no": "",
    "SMILES": "C[C@]12[C@@]3(C)[C@@]([C@@]([C@](CCC=C(C)C)(C)O)(CC3)[H])([C@H](O)C[C@@]1([C@]4(C)[C@@](CC2)(C(C)(C)[C@@H](O[C@H]5[C@H](O[C@@H]6O[C@H](CO)[C@@H](O)[C@H](O)[C@H]6O)[C@@H](O)[C@H](O)[C@@H](CO)O5)CC4)[H])[H])[H]",
    "meta_data": {
        "InChI": "InChI=1S/C42H72O13/c1-21(2)10-9-14-42(8,51)22-11-16-41(7)29(22)23(45)18-27-39(5)15-13-28(38(3,4)26(39)12-17-40(27,41)6)54-37-35(33(49)31(47)25(20-44)53-37)55-36-34(50)32(48)30(46)24(19-43)52-36/h10,22-37,43-51H,9,11-20H2,1-8H3/t22-,23+,24+,25+,26-,27+,28-,29-,30+,31+,32-,33-,34+,35+,36-,37-,39-,40+,41+,42+/m0/s1",
        "InChIKey": null,
        "Canonical SMILES": "OCC1OC(OC2C(O)C(O)C(OC2OC3CCC4(C)C(CCC5(C)C4CC(O)C6C(CCC65C)C(O)(C)CCC=C(C)C)C3(C)C)CO)C(O)C(O)C1O",
        "Molecular Formula": "C<sub>42</sub>H<sub>72</sub>O<sub>13</sub>",
        "Molecular Mass": "785.01",
        "Melting Point": "315-318 °C"
    }
}