{
    "cas_no": "76-78-8",
    "key_name": "(+)-Quassin",
    "cn_name": "甜蜜素;环己基氨基磺酸钠;",
    "alternate_name": "Picrasa-2,12-diene-1,11,16-trione, 2,12-dimethoxy-;Phenanthro[10,1-<em>bc</em>]pyran-1,5,11(4<em>H</em>)-trione, 3aβ,6aβ,7,7aα,8,11a,11bα,11c-octahydro-2,10-dimethoxy-3,8α,11aβ,11cβ-tetramethyl-;Quassin;Phenanthro[10,1-<em>bc</em>]pyran, picrasa-2,12-diene-1,11,16-trione deriv.;2,12-Dimethoxypicrasa-2,12-diene-1,11,16-trione;Nigakilactone D;Quassine;(+)-Quassin;NSC 36342",
    "duplicated_cas_no": "1405-17-0",
    "SMILES": "C[C@]12[C@]3([C@]4(C)[C@@](C[C@]1(OC(=O)C[C@]2(C(C)=C(OC)C3=O)[H])[H])([C@H](C)C=C(OC)C4=O)[H])[H]",
    "meta_data": {
        "InChI": "InChI=1S/C22H28O6/c1-10-7-14(26-5)20(25)22(4)12(10)8-15-21(3)13(9-16(23)28-15)11(2)18(27-6)17(24)19(21)22/h7,10,12-13,15,19H,8-9H2,1-6H3/t10-,12+,13+,15-,19+,21-,22+/m1/s1",
        "InChIKey": null,
        "Canonical SMILES": "O=C1OC2CC3C(C=C(OC)C(=O)C3(C)C4C(=O)C(OC)=C(C)C(C1)C24C)C",
        "Molecular Formula": "C<sub>22</sub>H<sub>28</sub>O<sub>6</sub>",
        "Molecular Mass": "388.45",
        "Melting Point": "222 °C"
    }
}