{
    "cas_no": "387-79-1",
    "key_name": "17-Hydroxypregnenolone",
    "cn_name": "17α-羟基妊娠烯醇酮;17α-羟基妊娠烯醇酮;",
    "alternate_name": "Pregn-5-en-20-one, 3,17-dihydroxy-, (3β)-;Pregn-5-en-20-one, 3β,17-dihydroxy-;(3β)-3,17-Dihydroxypregn-5-en-20-one;17-Hydroxypregnenolone;17α-Hydroxypregnenolone;3β,17α-Dihydroxypregn-5-en-20-one;17-Hydroxy-Δ<sup>5</sup>-pregnenolone;3β,17-Dihydroxy-5-pregnen-20-one;5-Pregnen-3β,17α-diol-20-one;NSC 63853",
    "duplicated_cas_no": "570-57-0;1499-60-1;1920-70-3;6697-78-5;85179-30-2",
    "SMILES": "C[C@@]12[C@]([C@]3([C@@]([C@]4(C)C(=CC3)C[C@@H](O)CC4)(CC1)[H])[H])(CC[C@@]2(C(C)=O)O)[H]",
    "meta_data": {
        "InChI": "InChI=1S/C21H32O3/c1-13(22)21(24)11-8-18-16-5-4-14-12-15(23)6-9-19(14,2)17(16)7-10-20(18,21)3/h4,15-18,23-24H,5-12H2,1-3H3/t15-,16+,17-,18-,19-,20-,21-/m0/s1",
        "InChIKey": null,
        "Canonical SMILES": "O=C(C)C1(O)CCC2C3CC=C4CC(O)CCC4(C)C3CCC21C",
        "Molecular Formula": "C<sub>21</sub>H<sub>32</sub>O<sub>3</sub>",
        "Molecular Mass": "332.48",
        "Melting Point": "265 °C"
    }
}