{
    "cas_no": "5995-86-8",
    "key_name": "3,4,5-Trihydroxybenzoic acid hydrate (1:1)",
    "cn_name": "没食子酸;3,4,5-三羟基苯甲酸;五倍子酸;",
    "alternate_name": "Benzoic acid, 3,4,5-trihydroxy-, hydrate (1:1);Gallic acid, monohydrate;Benzoic acid, 3,4,5-trihydroxy-, monohydrate;3,4,5-Trihydroxybenzoic acid hydrate (1:1)",
    "duplicated_cas_no": "2594416-37-0",
    "SMILES": "C(O)(=O)C1=CC(O)=C(O)C(O)=C1.O",
    "meta_data": {
        "InChI": "InChI=1S/C7H6O5.H2O/c8-4-1-3(7(11)12)2-5(9)6(4)10;/h1-2,8-10H,(H,11,12);1H2",
        "InChIKey": null,
        "Canonical SMILES": "O=C(O)C1=CC(O)=C(O)C(O)=C1.O",
        "Molecular Formula": "C<sub>7</sub>H<sub>6</sub>O<sub>5</sub>.H<sub>2</sub>O",
        "Molecular Mass": "",
        "Melting Point": "258-260 °C"
    }
}