{
    "cas_no": "111988-49-9",
    "key_name": "Thiacloprid",
    "cn_name": "噻虫啉;(3-((6-氯-3-吡啶基)甲基)-1,3-噻唑啉-2-亚基)氰胺;",
    "alternate_name": "Cyanamide, <em>N</em>-[3-[(6-chloro-3-pyridinyl)methyl]-2-thiazolidinylidene]-, [<em>N</em>(<em>Z</em>)]-;Cyanamide, [3-[(6-chloro-3-pyridinyl)methyl]-2-thiazolidinylidene]-, [<em>N</em>(<em>Z</em>)]-;[<em>N</em>(<em>Z</em>)]-<em>N</em>-[3-[(6-Chloro-3-pyridinyl)methyl]-2-thiazolidinylidene]cyanamide;Thiacloprid;Calypso;Calypso 70WG;Calypso (pesticide);Biscaya;Calypso Ultra;Bariard;Calypso 4F;Calypso 480SC;Sonido",
    "duplicated_cas_no": "443096-59-1",
    "SMILES": "C(N1\\C(=N\\C#N)\\SCC1)C=2C=CC(Cl)=NC2",
    "meta_data": {
        "InChI": "InChI=1S/C10H9ClN4S/c11-9-2-1-8(5-13-9)6-15-3-4-16-10(15)14-7-12/h1-2,5H,3-4,6H2/b14-10-",
        "InChIKey": null,
        "Canonical SMILES": "N#CN=C1SCCN1CC2=CN=C(Cl)C=C2",
        "Molecular Formula": "C<sub>10</sub>H<sub>9</sub>ClN<sub>4</sub>S",
        "Molecular Mass": "252.72",
        "Melting Point": "128-129 °C"
    }
}