{
    "cas_no": "131860-97-4",
    "key_name": "Methyl (α<em>E</em>)-2-[(6-chloro-4-pyrimidinyl)oxy]-α-(methoxymethylene)benzeneacetate",
    "cn_name": "(E)-2-[2-(6-氯嘧啶-4-基氧)苯基]-3-甲氧基丙烯酸甲酯;",
    "alternate_name": "Benzeneacetic acid, 2-[(6-chloro-4-pyrimidinyl)oxy]-α-(methoxymethylene)-, methyl ester, (α<em>E</em>)-;Benzeneacetic acid, 2-[(6-chloro-4-pyrimidinyl)oxy]-α-(methoxymethylene)-, methyl ester, (<em>E</em>)-;Methyl (α<em>E</em>)-2-[(6-chloro-4-pyrimidinyl)oxy]-α-(methoxymethylene)benzeneacetate;Methyl (<em>E</em>)-2-[2-(6-chloropyrimidin-4-yloxy)phenyl]-3-methoxypropenoate;Methyl (<em>E</em>)-2-[2-(6-chloropyrimidin-4-yloxy)phenyl]-3-methoxyacrylate;Methyl (E)-2-[2-[6-chloropyrimidin-4-yloxy]phenyl]-3-methoxyacrylate",
    "duplicated_cas_no": "1019207-69-2;2797996-60-0",
    "SMILES": "C(\\C(OC)=O)(=C/OC)/C1=C(OC=2C=C(Cl)N=CN2)C=CC=C1",
    "meta_data": {
        "InChI": "InChI=1S/C15H13ClN2O4/c1-20-8-11(15(19)21-2)10-5-3-4-6-12(10)22-14-7-13(16)17-9-18-14/h3-9H,1-2H3/b11-8+",
        "InChIKey": null,
        "Canonical SMILES": "O=C(OC)C(=COC)C=1C=CC=CC1OC=2N=CN=C(Cl)C2",
        "Molecular Formula": "C<sub>15</sub>H<sub>13</sub>ClN<sub>2</sub>O<sub>4</sub>",
        "Molecular Mass": "320.73",
        "Melting Point": "103-104 °C"
    }
}