{
    "cas_no": "16064-14-5",
    "key_name": "6-Chloro-4(3<em>H</em>)-quinazolinone",
    "cn_name": "4-羟基-6-氯喹唑啉;",
    "alternate_name": "4(3<em>H</em>)-Quinazolinone, 6-chloro-;4-Quinazolinol, 6-chloro-;4(1<em>H</em>)-Quinazolinone, 6-chloro-;6-Chloro-4(3<em>H</em>)-quinazolinone;6-Chloro-4-quinazolone;6-Chloro-4-quinazolinone;6-Chloro-4-quinazolinol;NSC 52062;6-Chloro-3,4-dihydroquinazolin-4-one",
    "duplicated_cas_no": "6635-70-7",
    "SMILES": "O=C1C=2C(=CC=C(Cl)C2)NC=N1",
    "meta_data": {
        "InChI": "InChI=1S/C8H5ClN2O/c9-5-1-2-7-6(3-5)8(12)11-4-10-7/h1-4H,(H,10,11,12)",
        "InChIKey": null,
        "Canonical SMILES": "O=C1N=CNC2=CC=C(Cl)C=C12",
        "Molecular Formula": "C<sub>8</sub>H<sub>5</sub>ClN<sub>2</sub>O",
        "Molecular Mass": "180.59",
        "Melting Point": "263-265 °C"
    }
}