{
    "cas_no": "5764-85-2",
    "key_name": "Ethyl β-hydroxybenzenepropanoate",
    "cn_name": "&beta;-羟基苯丙酸乙酯;",
    "alternate_name": "Benzenepropanoic acid, β-hydroxy-, ethyl ester;Hydracrylic acid, 3-phenyl-, ethyl ester;Ethyl β-hydroxybenzenepropanoate;3-Hydroxy-3-phenylpropionic acid ethyl ester;Ethyl 3-hydroxy-3-phenylpropanoate;Ethyl 3-hydroxy-3-phenylpropionate;Ethyl 3-phenylhydracrylate;Ethyl 3-phenyl-3-hydroxypropionate;β-Hydroxybenzenepropanoic acid ethyl ester;(±)-3-Hydroxy-3-phenylpropionic acid ethyl ester;NSC 226071",
    "duplicated_cas_no": "86286-51-3",
    "SMILES": "C(CC(OCC)=O)(O)C1=CC=CC=C1",
    "meta_data": {
        "InChI": "InChI=1S/C11H14O3/c1-2-14-11(13)8-10(12)9-6-4-3-5-7-9/h3-7,10,12H,2,8H2,1H3",
        "InChIKey": null,
        "Canonical SMILES": "O=C(OCC)CC(O)C=1C=CC=CC1",
        "Molecular Formula": "C<sub>11</sub>H<sub>14</sub>O<sub>3</sub>",
        "Molecular Mass": "194.23",
        "Boiling Point": "154-156 °C @ Press: 13 Torr"
    }
}