{
    "cas_no": "155184-81-9",
    "key_name": "2-Amino-4-chloro-5-methylbenzoic acid",
    "cn_name": null,
    "alternate_name": "Benzoic acid, 2-amino-4-chloro-5-methyl-;2-Amino-4-chloro-5-methylbenzoic acid;4-Chloro-5-methylanthranilic acid",
    "duplicated_cas_no": "",
    "SMILES": "C(O)(=O)C1=C(N)C=C(Cl)C(C)=C1",
    "meta_data": {
        "InChI": "InChI=1S/C8H8ClNO2/c1-4-2-5(8(11)12)7(10)3-6(4)9/h2-3H,10H2,1H3,(H,11,12)",
        "InChIKey": null,
        "Canonical SMILES": "O=C(O)C1=CC(=C(Cl)C=C1N)C",
        "Molecular Formula": "C<sub>8</sub>H<sub>8</sub>ClNO<sub>2</sub>",
        "Molecular Mass": "185.61",
        "Melting Point": "212-215 °C"
    }
}