{
    "cas_no": "86-76-0",
    "key_name": "2-Bromodibenzofuran",
    "cn_name": null,
    "alternate_name": "Dibenzofuran, 2-bromo-;2-Bromodibenzofuran;NSC 1735;2-Bromodibenzo[<em>b</em>,<em>d</em>]furan",
    "duplicated_cas_no": "",
    "SMILES": "BrC=1C=C2C=3C(OC2=CC1)=CC=CC3",
    "meta_data": {
        "InChI": "InChI=1S/C12H7BrO/c13-8-5-6-12-10(7-8)9-3-1-2-4-11(9)14-12/h1-7H",
        "InChIKey": null,
        "Canonical SMILES": "BrC=1C=CC=2OC=3C=CC=CC3C2C1",
        "Molecular Formula": "C<sub>12</sub>H<sub>7</sub>BrO",
        "Molecular Mass": "247.09",
        "Melting Point": "110 °C"
    }
}