{
    "cas_no": "1912-44-3",
    "key_name": "6-Chloro-1<em>H</em>-indole-3-acetic acid",
    "cn_name": null,
    "alternate_name": "1<em>H</em>-Indole-3-acetic acid, 6-chloro-;Indole-3-acetic acid, 6-chloro-;6-Chloro-1<em>H</em>-indole-3-acetic acid;6-Chloroindole-3-acetic acid;6-Chloro-IAA;2-(6-Chloro-1<em>H</em>-indol-3-yl)acetic acid;SR 058;NSC 295295",
    "duplicated_cas_no": "",
    "SMILES": "C(C(O)=O)C=1C=2C(NC1)=CC(Cl)=CC2",
    "meta_data": {
        "InChI": "InChI=1S/C10H8ClNO2/c11-7-1-2-8-6(3-10(13)14)5-12-9(8)4-7/h1-2,4-5,12H,3H2,(H,13,14)",
        "InChIKey": null,
        "Canonical SMILES": "O=C(O)CC1=CNC=2C=C(Cl)C=CC21",
        "Molecular Formula": "C<sub>10</sub>H<sub>8</sub>ClNO<sub>2</sub>",
        "Molecular Mass": "209.63",
        "Melting Point": "182-184 °C (decomp)"
    }
}