{
    "cas_no": "20611-21-6",
    "key_name": "2-(Phenylsulfonyl)ethanol",
    "cn_name": "2-(苯磺酰)乙醇;",
    "alternate_name": "Ethanol, 2-(phenylsulfonyl)-;2-(Phenylsulfonyl)ethanol;2-Hydroxyethyl phenyl sulfone;β-(Phenylsulfonyl)ethanol;Phenyl 2-hydroxyethyl sulfoxide;2-(Benzenesulfonyl)ethanol;2-(Benzenesulfonyl)ethan-1-ol",
    "duplicated_cas_no": "",
    "SMILES": "S(CCO)(=O)(=O)C1=CC=CC=C1",
    "meta_data": {
        "InChI": "InChI=1S/C8H10O3S/c9-6-7-12(10,11)8-4-2-1-3-5-8/h1-5,9H,6-7H2",
        "InChIKey": null,
        "Canonical SMILES": "O=S(=O)(C=1C=CC=CC1)CCO",
        "Molecular Formula": "C<sub>8</sub>H<sub>10</sub>O<sub>3</sub>S",
        "Molecular Mass": "186.23",
        "Boiling Point": "177 °C @ Press: 2 Torr",
        "Melting Point": "121.5 °C"
    }
}