{
    "cas_no": "535-75-1",
    "key_name": "Pipecolic acid",
    "cn_name": "六氢吡啶-alpha-羧酸;哌啶-2-甲酸;呢可酸;",
    "alternate_name": "2-Piperidinecarboxylic acid;Pipecolic acid;Dihydrobaikiane;Hexahydro-2-picolinic acid;Homoproline;Pipecolinic acid;α-Pipecolinic acid;Piperolinic acid;2-Carboxypiperidine;<span class=\"text-smallcaps\">D</smallcap><smallcap>L</span>-Pipecolic acid;(±)-2-Piperidinecarboxylic acid;<span class=\"text-smallcaps\">D</smallcap><smallcap>L</span>-2-Piperidinecarboxylic acid;(±)-Pipecolinic acid;(±)-Pipecolic acid;(<em>RS</em>)-2-Piperidinecarboxylic acid;<span class=\"text-smallcaps\">D</smallcap><smallcap>L</span>-Pipecolinic acid;NSC 17125;2-Pipecolinic acid;2-Piperidinylcarboxylic acid;Piperidine-6-carboxylic acid",
    "duplicated_cas_no": "4043-87-2",
    "SMILES": "C(O)(=O)C1CCCCN1",
    "meta_data": {
        "InChI": "InChI=1S/C6H11NO2/c8-6(9)5-3-1-2-4-7-5/h5,7H,1-4H2,(H,8,9)",
        "InChIKey": null,
        "Canonical SMILES": "O=C(O)C1NCCCC1",
        "Molecular Formula": "C<sub>6</sub>H<sub>11</sub>NO<sub>2</sub>",
        "Molecular Mass": "129.16",
        "Melting Point": "264 °C"
    }
}