{
    "cas_no": "175591-09-0",
    "key_name": "Tapentadol hydrochloride",
    "cn_name": null,
    "alternate_name": "Phenol, 3-[(1<em>R</em>,2<em>R</em>)-3-(dimethylamino)-1-ethyl-2-methylpropyl]-, hydrochloride (1:1);Phenol, 3-[3-(dimethylamino)-1-ethyl-2-methylpropyl]-, hydrochloride, [<em>R</em>-(<em>R</em>*,<em>R</em>*)]-;Phenol, 3-[(1<em>R</em>,2<em>R</em>)-3-(dimethylamino)-1-ethyl-2-methylpropyl]-, hydrochloride;Tapentadol hydrochloride;Nucynta;Tapal;Zyntap;Tydol;Tapenta",
    "duplicated_cas_no": "",
    "SMILES": "[C@H]([C@H](CN(C)C)C)(CC)C1=CC(O)=CC=C1.Cl",
    "meta_data": {
        "InChI": "InChI=1S/C14H23NO.ClH/c1-5-14(11(2)10-15(3)4)12-7-6-8-13(16)9-12;/h6-9,11,14,16H,5,10H2,1-4H3;1H/t11-,14+;/m0./s1",
        "InChIKey": null,
        "Canonical SMILES": "Cl.OC1=CC=CC(=C1)C(CC)C(C)CN(C)C",
        "Molecular Formula": "C<sub>14</sub>H<sub>23</sub>NO.ClH",
        "Molecular Mass": "",
        "Melting Point": "209-210 °C"
    }
}