{
    "cas_no": "5570-19-4",
    "key_name": "2-Nitrophenylboronic acid",
    "cn_name": null,
    "alternate_name": "Boronic acid, <em>B</em>-(2-nitrophenyl)-;Benzeneboronic acid, <em>o</em>-nitro-;Boronic acid, (2-nitrophenyl)-;<em>B</em>-(2-Nitrophenyl)boronic acid;2-Nitrophenylboronic acid;<em>o</em>-Nitrophenylboronic acid;2-Nitrobenzeneboronic acid",
    "duplicated_cas_no": "1079877-12-5",
    "SMILES": "B(O)(O)C1=C(N(=O)=O)C=CC=C1",
    "meta_data": {
        "InChI": "InChI=1S/C6H6BNO4/c9-7(10)5-3-1-2-4-6(5)8(11)12/h1-4,9-10H",
        "InChIKey": null,
        "Canonical SMILES": "O=N(=O)C=1C=CC=CC1B(O)O",
        "Molecular Formula": "C<sub>6</sub>H<sub>6</sub>BNO<sub>4</sub>",
        "Molecular Mass": "166.93",
        "Melting Point": "140-142 °C"
    }
}