{
    "cas_no": "1638-22-8",
    "key_name": "4-Butylphenol",
    "cn_name": "4-丁基苯酚;对丁基苯酚;",
    "alternate_name": "Phenol, 4-butyl-;Phenol, <em>p</em>-butyl-;4-Butylphenol;<em>p</em>-Butylphenol;<em>p</em>-Hydroxybutylbenzene;1-(<em>p</em>-Hydroxyphenyl)butane;4-<em>n</em>-Butylphenol;<em>p</em>-<em>n</em>-Butylphenol;<em>p</em>-Hydroxy-<em>n</em>-butylbenzene;NSC 407848",
    "duplicated_cas_no": "",
    "SMILES": "C(CCC)C1=CC=C(O)C=C1",
    "meta_data": {
        "InChI": "InChI=1S/C10H14O/c1-2-3-4-9-5-7-10(11)8-6-9/h5-8,11H,2-4H2,1H3",
        "InChIKey": null,
        "Canonical SMILES": "OC1=CC=C(C=C1)CCCC",
        "Molecular Formula": "C<sub>10</sub>H<sub>14</sub>O",
        "Molecular Mass": "150.22",
        "Boiling Point": "248 °C",
        "Melting Point": "22 °C",
        "Density": "0.978 g/cm³ @ Temp: 20 °C"
    }
}