{
    "cas_no": "67633-97-0",
    "key_name": "3-Mercapto-2-pentanone",
    "cn_name": "3-巯基-2-戊酮;",
    "alternate_name": "2-Pentanone, 3-mercapto-;3-Mercapto-2-pentanone;3-Sulfanylpentan-2-one",
    "duplicated_cas_no": "",
    "SMILES": "C(C(C)=O)(CC)S",
    "meta_data": {
        "InChI": "InChI=1S/C5H10OS/c1-3-5(7)4(2)6/h5,7H,3H2,1-2H3",
        "InChIKey": null,
        "Canonical SMILES": "O=C(C)C(S)CC",
        "Molecular Formula": "C<sub>5</sub>H<sub>10</sub>OS",
        "Molecular Mass": "118.20",
        "Boiling Point": "61-62 °C @ Press: 19 Torr"
    }
}