{
    "cas_no": "9005-25-8",
    "key_name": "Starch",
    "cn_name": null,
    "alternate_name": "Starch;Amylum;Arrowroot starch;W-Gum;Maranta;Meluna;Rice starch;W 13;Trogum;Corn starch;Amaizo W 13;Amylomaize VII;HRW 13;Tapon;Claro 5591;α-Starch;Melojel;Farinex 100;Amylose, mixt. with amylopectin;Sorghum gum;Clearjel;OK PRE-GEL;Maizena;Remyline Ac;CPC 6448;Staramic 747;CPC 3005;Keestar 328;Remyline;Amaizo 310;Hylon;Mira Quick C;Nabond;Stayco S;Impermex;Snowflake 30091;Amigel 12014;Snowflake 12615;Emjel 300;Emjel 200;ST 1500;Amigel 30076;Farinex TSC;Amysil K;Dexylose D 230;Dexylose D 215;Nikkalyco AS 180S;Tapioca (starch);Mogul (polysaccharide);Collamil;Mogul;Amylomaize starch;Pearl R;Potato starch;National Starch 1554;Amaizo 213;Amigel;Amylon 70;Prejel PA 5;Matsunorin CM;Raisio K 55;Hylon 7;Hylon 5;CSP 600;Hi-coastar DE 2;Nittaite DC 30;Hylon V;Amijel VA 160;Atomyl;Eurylon;Globe 3005;Matsunorin M;Hylon VII 20X;Fluidamid DF 12;Globe 03401;Tokiwanol 600;Buffalo 3401;Primotab ET;Era-Tab;Cargill Pearl;Amalean I-A 2131;Amalean I-A 7081;Alphajel KS 37;Eurylon 7;Cellfer 200;Midsol 50;Hwangmi;Suwon 147;Micro Pearl (starch);HR 160 (starch);HR 202;HR 160;Kordek 12270;Amyzet TK;Stayco C;Allbond 200;Sta-Rx 1500;Permalose;Amylox 1;Genvis 700;SMP 1100;Supergell;SDU;Empressol NE 25;Saizarin P;Clin-Link 692B;Flogel 40;Melojel 45-0802;Collofilm MS 00;Agglofroid 009;Fondlys 55007;Amilys 100;Agglofroid 313E;Cargill 1000;Definol WN;Hamaco 277;Supergell 1203C;Pregeflo M;Kiyou;Amaizo 710;Aeromyl 115;Amaizo 5;Amaizo 71;Redi-Bond 2005;Amicoa;Eurylon VII;Matsunorin M 22;Amycol W;Cerestar GL 03402;Novelose;Starch 1500;National 1551;Lycatab PGS;Matsunorin;Novation 3300;Bioren AM 50;Bioren K 25;Bioren MS 30;Bioren MS 50;Bioren 28;Amyren 14;Amyren 71;Bioren 80;Optagrade;Dexyace;Clean Green;Envirofil;Flo-Pak Bio 8;Renatur;PCS;PCS (starch);Finnpol A 215;Finnpol A 320;Paragon IM 1010;Paragon IM 10002;Farazym F;Sago;Delicastar H 100;C-Pur 01906;Perlsize K 98L;PA 220;PA 220 (starch);Ultra-sperse 5;Matsunorin W;DP 35;Cerestar GL 03406;DP 35 (polysaccharide);SF-α;Pearl Starch;Starpol 410;Min-Star 2050;Drilstar EW;Crystalean;PA 100 (starch);Ruuamairudo;PA 100;OHP-C 153;PH 270;C<sup>*</sup>Gel 30002;Starpol 580;Starpol 630;PCF 1000;Nikkalyco AS 100S;Jellcall AH-F;Redisol 412;Absorbo HP;Cerestar C Top 12018;Amaizo 100;KG Starch 22C;Unigel J 353;Supramyl 130;Delicastar H 200;Silver Medal Pearl 1100;Pure-Dent B 810;Graphro M;Rheotack;AS 225;C<sup>*</sup>Gel;AS 225 (starch);C<sup>*</sup>Gel 20006;C*Pharm 93000;PC 30A;Alstar B;Amylogum;Amidex 4001;Oilcure;Corn Y;B 200;Aytex P;B 200 (polysaccharide);Landy CP 100S;C<sup>*</sup>Gel 06090;Sepistab;Selectamyl D 8;Argo Corn Starch;Kuroba;Corn Alpha Y;Crisp Film;Remyrice DR;Pregel Corn Starch;Lactoway II;HS 425;Amycol HF;HS 425 (polysaccharide);Novelose 330;Novelose 240;Hi-Maize 1043;Bakeup YT 10;Gelose 80;HiMaize;Penplus UM;Lerf 37;Swely Gel 705;Tromelin granule;Cornstarch Yellow;TR 10;Matsunorin 500;TR 10 (polysaccharide);S Dyne CP 20;Ace P 320;Raisamyl 404N;Midsol 1;GIACI-GEL 2605;Amidex 3005;Amido-STA 1500;White Cornstarch;Uni-Pure WG;Soft-Set;MiraQuick;Pregel N;Wonder Starch SH 300;Latitek SP;PharmDC 93000;MKK 100;C*Pharm DC 93000;Jellcall EG 500;PC 10 (starch);PC 10;Matsunorin P 7;Alstar H;Excelsior;Pregel 2604;Emcap Instant 12639;Amylex 20/20;ST-C;Phyto RK;Mikrolys 54;Essancizer 600;C*Film 07321;Pregel 46;XP 951;Clearjel E;Dunamyl;Dolny Ohaj;Uni-Pure LD;Corbond 500;Dexylose H 235;Whetstar 4;Hylon VII;Mira-Gel 463;C*HiForm A 12747;Cerestar 07311;DL 20-1;GW 8900;Nenchaku-Kun Ekizai;Nenchaku-Kun 80;Amylogel 03003;Novellose 330;Matsunorin GS;Jellcall BO 15;Yamato Nori;Luremild;Novation;Amylomaize VI;Solka-Floc 90G;Amidex 3001;RD 337;H 4700;Amylogel 03001;Collys BR;Jelucel PF 60;P 4 (starch);P 4;Novelose 260;C<sup>*</sup>Gel 03402;MXPP;National 1545;Gemgel 100;Gemgel 100+;Paselli EZ 1080;PHAS 2012;Cremalys 516;Meritena 100-03/436;FiCAP 100;Melogel;National 377;Gelose 50;PG 280/270;Cargill Gel Instant 12030;Polisize 55;Glue S;KZR 10;Fueki Glue;Amyral;Solonace;Lorama LPR 41;Zeina B 860;Fito PK;Ultra-Sperse 2000;ST Starch P;Potato Starch Supra;Maize Starch B;C*Pharm 03406;C*Pharm 03302;Wheat Starch TB;Lycatab C;C*Pharm 12012;Spress B 820;Amisol 3408;Momiji;Zea gum;Paselli II;Ultra-Set LT;C-Dry Trglsirup;PC 03-1045;HS 7 Variety 4200;Amerikor 818;HQM Pregel;USG 95;Eurylon 6;C*Gum NC 03432;Hitex;Supergel 1203;PG 290;Solvicol GP 45 Plus;Nisshoku Waxy Alpha D 6;X 150;Fibraffin 2285;Fibraffin K 75;C-Flo 06205;Dry Flo AF Pure;Corn Starch Y;Rezista 682;MaxiGel 420;Sta-Slim 150;ST Starch C;Cleer-Cote 625;Floralys 380;Tackidex 009;Matsunorin SM;OxyDry 5929;OxyDry C;75A;Sta-Flo Liquid Starch;75A (polysaccharide);Clineo 716;ADM Clineo 716;Glico B;Yoki;T 220;TPS;TPS (polysaccharide);EMES-MS 70;Y 3P;EM 30;PB 7000;Foralys 380;Meriten 200;Matsunorin XA;Tokiwanol 770S;HIKRAFT M75;Aquabind 100B;Pince-Ace;Matsunorin 340;BKK 401;BKK 402;Amilofax 00;P 4N;Minstar 2100;P 4N (sizing agent);Waxylis;Waxy Alpha;Bioplus HSCP;C<sup>*</sup>Gel 70001;C*EmTex 06369;C*HiForm A 12791;Kosher FGPS;POT 10;Bioplus HSC;AccuGel;F-Smash;Foxhead 5901;Clinton 442;MRQ 74;Bunkyu SH Ka;Wakishi Starch W;Matsutani Bara;Nerikomi 9R;Amycol K;Novation 3600;Starpol 136;Ethlex 2005;Amidomax 4800;Amylox 1A;Cerestar C Drygel 03411;Clinton 185;Avon;C*Film TCF 07325;Starcap 1500;Miyabinori;C<sup>*</sup>Gel 03401;PenCook 10;Eco-Maize;Cargill Gel 03420;Gen Coat;Modesta SPRN;Globe Mz Star 03401;Cargill 235D;Raisamyl 01151;ST-P;Perfectamyl D 6;S 516;Pure-Dent B 700;Meritena 100;AS 2;AS 1;AS 2 (polysaccharide);AS 1 (polysaccharide);Optamyl SP;Solanyl BP 20F;Solanyl BP 30F;Promitor Resistant Starch 60;Cornpack 200;Remy FG;Remy B 7;Remy DR;Clearam TJ 2015;Clearam MH 0500;S 4251;S 5127;Finesnow;Perfectamul A 4692;Cerestar RG 03408;SB Gum-EVOSB;Thick &amp; Easy;Nisshoku Corn Starch W;Uni-Pure EX;PVS 300;PCS PC 10;Meritena 200;Mochile B;Better Friend;Supergel 1201;DS-SyncSTA S 50;DS-SyncSTA S 100;Swelstar PD 1;ReNew 400;AP 6040;Native Gel 03420;Ricestar RC;Ricestar H 2D;Amylogel;Starches;Perfiller 102;C*Gel 20002;Cerestar RG 03453;PregeFlow CH 20;Emcol F 1796;FA 8704;Amilofaks;HB 450;HF 200;Amylogel HB 450;SF 200;Amyzet 100;Delicastar HM 131;ZAM-X;Soltex P6;MO 1021HP;Nisshoku Corn Starch Y;Remi DR-I;KDL-H 70C;Starrier R;Perquel 630;Raisamyl 01511;D 01796;Tapioca Alpha TP 2;WA 105;Tenjin 300;Redifilm 5800;Matsunorin V;Amylomaize N 400;Matsutani Kikyo;Filter-Check;Raisamyl 00021;BK-V;Naviance Maize;CD 747;Jelcall CB 10;Jellcall CB 10;Mochile Alpha;Asensa NFF 11;Lyckeby PU 11597;Matsutani Yuri 8;Nisshoku Corn Starch IP W;EMES KSA 1502;A 1FB004215;Hi-Maize 260;PD 10370;Magic 60-WP0105;Starch 1500X;Novation Uno 260;Promitor L 70;SE 57;Swelstar FD 1;SE 57 (binder);Emcat L 50T;Film Coat 370;PD 10369;C*Gel 04230;S 7260;Genvis 200D;Cerestar PT 20002;Meritena 120;Casco 030050;S 7260 (polysaccharide);Corn Starch XX 16;Cornstarch White;Ceolus PCS FC 30;XX 16;PCS FC 50;ClearGum LG 7015;Ultra-sperse;PenPure 30;Thingum 107;Confectioners G;Mira-Set 285;Maritena 100;Cargill Gum 03460;C*iCoat 07520;C*Gum 03436;Chemistar E 226;Hi-Stard PSS 5;CPI 050820-156;WR 2;Sunalfa NTZ;Neotrust W 300;Matsunorin S 10;Matsunorin 880;1000Y (starch);C*Size 03453;Amylofiber SH;Slowflake G2310;Kemisuta BL 100;C*Flex 03408;Merizet 120;Cargill 39D;Cargill 34D;Perfectocote A 55;Maritena 120;Starch BS 100N;Clear set 75505;Natural Star HP 24;Stabilose 1000;Novation 2700;Asagao;BS 100N;National DC;Hi-Stard PSS 0-5;S 9679;dds, tabletstarch;HaemoCer;NKL-L;Meritena 400;V 110AA;Sakura;Tanpopo;TSF 8;Sakura (tapioca starch);Advance Snow P;Neobisu C 60;SD 500 (starch);SD 1000 (starch);SD 5000 (starch);SD 500;SD 1000;SD 5000;Tapioca Starch SF2050;Actisize CWH;Matsutani Kame;STE 57;Farinex AG 100;PR 1303A;1401B;GemStar 50;Tackidex N 735;Sanas 610;F 800;S 100;Motile Alpha;S 600;Pinebrand;F 800 (starch);S 100 (starch);S 600 (starch);Clearam PG 06;Pine Aqua;Biogum 25;Green Bond 1300;Cornstarch CD-Y;Ecosphere 2202D;Roadster;SK 200;C 26 (polysaccharide);SF 145O;Merigel;Tackidex O 36SP;Gelpro OS 28;Jelcall BP 200;Beneform 1100;MXPPJ;Amycol KF;RC 20 (polysaccharide);Act Body Eat 2;Modesta SPR;Starch EH;Nisshoku Waxy Corn Starch MD;Kitano Yuki;Nisshoku Silver Ling;MR 750;J-SPD;HS 7;BP 200;MSPrebiotic;Yukika II;OptaMist 364;Pinesoft T;Pinesoft 202;Stabilys A 30;Stabilys A 030;S 5296;Novation Indulge 1720;Precisa 600;Ultra-Sperse SR;ST 3205;SQ 330;Eliane GEL;H 100;Amicol C;Jelcall AH-F;High Amylose Corn Starch HS 7 class VII;Micropal F;C<sup>*</sup>EmTex 06369;Ecosphere 2330;G 80;Novation 2300;Claria Plus;Solanyl C 1201;EMES-EF;High Starch;Woxy Corn Starch Y;Versafibe 1490;Nihon Batter Starch 100;Amitroplast 8940;Creamgel;Foodstarch NE 01;Shiraki lotus;Matsutani Ayame;Kaneka V Short;C*Creamgel 7001;Emflo KVA 20;Jelcall B-α;Around Star AX 800;Aquabloc 403;Clearcote 640;Waxy D 6;WB 1;Milfix D;Farmal CS 3757;QT 096;HM 017;DKHG-MSDF 12;RS 3;Gemcor 54PG;Allstarch Quellstar CWS 10;Pregeflo P 100G;C*PolarTex-Instant 12650;SC 14;SC 14 (starch);WF 835;Neotrust W 120;HiForm 12748;HiForm 72345;PCS 50;JPCS-W;KM 262;N 735;Collamyl 7411;Amilogill 1500;Nisshoku Batter Starch 500;CAT 0308;Claria Elite;DSC 14;PR 1507B;Hungramid F;CG 03401;AG 03003;AG 03001;CS 1000;CS 1000 (starch);Empure AKS 100;Emjel E 70;C*Flex 20002;Inagel WG 406;Inagel WG 407;Amidex 40003;Cornstarch Y Non-GMO;Amidulin;AS 100S;MS 3000;TPS 36;TPS 47;Dry-Flo TS Pure;S 116030;S 4126;GWS 1600CG;Sealmaster P 30L;Soltex NP 6;Soltex NP 1;KSK 1518;Waxy Pearl 1108;NSP-B 1;JYS 9154;Clinton 106;JYM 001;LU 1432;Ecosenteur LNP 2115;Amilogill 2100;Tapioplast;Jellcall POT 05;TSK 13;Creamgel 7001;Catosize 380H;Solvicol 1290;Amylomaize N 460;PS 268;Puris Pea Starch PS 85B;Alpha Waxy Starch Y;NSP-EA;PS 268 (starch);Buffalo 034010;Stargel S;Rastergen FK;Amitroplast 8945;N 470;Starcap;Amicol H;Dynaplak 2020;Nisshoku MS 3800;Cleargum MB 70;Tapioplast TPS;Hi-Cat 1134A;Act Body A 800;Tapgel 1;Ginrin G 13;Powder Snow AL;Hylon 260;Amisol 4000;Hi-maize VII;Tapioplast TPS-FC;Chemistar 420;Chemistar 310;Remy ODR 6BIO;Solbond PC 60;Soljet P500;HB 310;GB/T 8885-2017;BevOat;SimPure 99408;HB 310 (starch);Batter Starch 500;Raisamyl 30067;Perfectafilm A 150;MeSH ID: D013213;Nisshoku Pearl;Petrosise L 2B;Kanzan VII;Kanzan H;Kanzan S;Kanzan T 2;Redifilm 5400;Stabilys EVO 280;Sankyo Golden Starch;Act Body KT 10NR;Amaze HTP Pure;Sepifine BB;Crispytec 574;Tackidex 1123;ERT-FC 45142;Amaze HTP;PTV-M 5083;Amylofax HS-A;Pregel 109I;Perfactamyl A 2177;S 9765",
    "duplicated_cas_no": "9057-05-0;42616-76-2;53112-52-0;53262-79-6;60496-95-9;67674-80-0;75138-75-9;75398-82-2;85746-25-4;118550-61-1;131800-97-0;152987-55-8;154636-77-8;730985-55-4;730985-56-5;730985-57-6;939768-85-1;955949-61-8;1017902-96-3;1152489-70-7;1309960-29-9;1374255-25-0;2075820-73-2;2168558-67-4;2247144-19-8;2416312-53-1;2835497-61-3;2919713-18-9;2919713-41-8;2982930-99-2",
    "SMILES": "",
    "meta_data": {
        "InChI": "",
        "InChIKey": null,
        "Canonical SMILES": "",
        "Molecular Formula": "Unspecified",
        "Molecular Mass": "",
        "Melting Point": "55.71 °C",
        "Density": "0.138 g/cm³"
    }
}