{
    "cas_no": "24188-74-7",
    "key_name": "7-Chloro-1(2<em>H</em>)-isoquinolinone",
    "cn_name": null,
    "alternate_name": "1(2<em>H</em>)-Isoquinolinone, 7-chloro-;Isocarbostyril, 7-chloro-;7-Chloro-1(2<em>H</em>)-isoquinolinone;7-Chloro-1(2<em>H</em>)-isoquinolone;7-Chloro-1,2-dihydroisoquinolin-1-one;7-Chloroisoquinolin-1-ol",
    "duplicated_cas_no": "26829-50-5",
    "SMILES": "O=C1C=2C(=CC=C(Cl)C2)C=CN1",
    "meta_data": {
        "InChI": "InChI=1S/C9H6ClNO/c10-7-2-1-6-3-4-11-9(12)8(6)5-7/h1-5H,(H,11,12)",
        "InChIKey": null,
        "Canonical SMILES": "O=C1NC=CC=2C=CC(Cl)=CC21",
        "Molecular Formula": "C<sub>9</sub>H<sub>6</sub>ClNO",
        "Molecular Mass": "179.60",
        "Melting Point": "245-247 °C"
    }
}