{
    "cas_no": "19493-45-9",
    "key_name": "3-Chloroisoquinoline",
    "cn_name": null,
    "alternate_name": "Isoquinoline, 3-chloro-;3-Chloroisoquinoline",
    "duplicated_cas_no": "",
    "SMILES": "ClC1=CC2=C(C=N1)C=CC=C2",
    "meta_data": {
        "InChI": "InChI=1S/C9H6ClN/c10-9-5-7-3-1-2-4-8(7)6-11-9/h1-6H",
        "InChIKey": null,
        "Canonical SMILES": "ClC=1N=CC2=CC=CC=C2C1",
        "Molecular Formula": "C<sub>9</sub>H<sub>6</sub>ClN",
        "Molecular Mass": "163.60",
        "Melting Point": "45-46 °C"
    }
}