{
    "cas_no": "15706-89-5",
    "key_name": "<span class=\"text-smallcaps\">L</smallcap>-Arginyl-<smallcap>L</span>-glutamic acid",
    "cn_name": null,
    "alternate_name": "<span class=\"text-smallcaps\">L</smallcap>-Glutamic acid, <smallcap>L</span>-arginyl-;<span class=\"text-smallcaps\">L</smallcap>-Glutamic acid, <em>N</em>-<smallcap>L</span>-arginyl-;Glutamic acid, <em>N</em>-arginyl-;<span class=\"text-smallcaps\">L</smallcap>-Arginyl-<smallcap>L</span>-glutamic acid;NSC 186916;1738: PN: WO2007124090 PAGE: 84 claimed protein;410: PN: EP2071334 SEQID: 441 claimed protein;410: PN: WO2009077864 SEQID: 441 claimed protein;7: PN: WO2011146121 PAGE: 113 claimed sequence;23: PN: WO2021055880 SEQID: 24 claimed protein;51: PN: WO2021211467 SEQID: 204 claimed sequence;20: PN: WO2023161197 SEQID: 22 claimed sequence",
    "duplicated_cas_no": "",
    "SMILES": "[C@H](NC([C@H](CCCNC(=N)N)N)=O)(CCC(O)=O)C(O)=O",
    "meta_data": {
        "InChI": "InChI=1S/C11H21N5O5/c12-6(2-1-5-15-11(13)14)9(19)16-7(10(20)21)3-4-8(17)18/h6-7H,1-5,12H2,(H,16,19)(H,17,18)(H,20,21)(H4,13,14,15)/t6-,7-/m0/s1",
        "InChIKey": null,
        "Canonical SMILES": "O=C(O)CCC(NC(=O)C(N)CCCNC(=N)N)C(=O)O",
        "Molecular Formula": "C<sub>11</sub>H<sub>21</sub>N<sub>5</sub>O<sub>5</sub>",
        "Molecular Mass": "303.31",
        "Melting Point": "193-194.5 °C (decomp)"
    }
}