{
    "cas_no": "1866-31-5",
    "key_name": "Allyl cinnamate",
    "cn_name": "桂酸烯丙酯;3-苯基-2-丙烯酸-2-丙烯基酯;",
    "alternate_name": "2-Propenoic acid, 3-phenyl-, 2-propen-1-yl ester;Cinnamic acid, allyl ester;2-Propenoic acid, 3-phenyl-, 2-propenyl ester;Allyl cinnamate;NSC 20972",
    "duplicated_cas_no": "",
    "SMILES": "C(=CC(OCC=C)=O)C1=CC=CC=C1",
    "meta_data": {
        "InChI": "InChI=1S/C12H12O2/c1-2-10-14-12(13)9-8-11-6-4-3-5-7-11/h2-9H,1,10H2",
        "InChIKey": null,
        "Canonical SMILES": "O=C(OCC=C)C=CC=1C=CC=CC1",
        "Molecular Formula": "C<sub>12</sub>H<sub>12</sub>O<sub>2</sub>",
        "Molecular Mass": "188.22",
        "Boiling Point": "163 °C @ Press: 17 Torr",
        "Density": "1.048 g/cm³ @ Temp: 20 °C"
    }
}