{
    "cas_no": "41199-19-3",
    "key_name": "1,2,3,4,4a,5,6,7-Octahydro-2,5,5-trimethyl-2-naphthalenol",
    "cn_name": "1,2,3,4,4a,5,6,7-八氢-2,5,5-三甲基-2-萘酚;龙涎醇;",
    "alternate_name": "2-Naphthalenol, 1,2,3,4,4a,5,6,7-octahydro-2,5,5-trimethyl-;1,2,3,4,4a,5,6,7-Octahydro-2,5,5-trimethyl-2-naphthalenol;Ambrinol;1,2,3,4,4a,5,6,7-Octahydro-2,5,5-trimethyl-2-naphthol;2,5,5-Trimethyl-1,2,3,4,4a,5,6,7-octahydronaphthalen-2-ol",
    "duplicated_cas_no": "",
    "SMILES": "CC1(C)C2C(CC(C)(O)CC2)=CCC1",
    "meta_data": {
        "InChI": "InChI=1S/C13H22O/c1-12(2)7-4-5-10-9-13(3,14)8-6-11(10)12/h5,11,14H,4,6-9H2,1-3H3",
        "InChIKey": null,
        "Canonical SMILES": "OC1(C)CC2=CCCC(C)(C)C2CC1",
        "Molecular Formula": "C<sub>13</sub>H<sub>22</sub>O",
        "Molecular Mass": "194.31",
        "Boiling Point": "72 °C @ Press: 0.25 Torr",
        "Density": "0.9647 g/cm³ @ Temp: 20 °C"
    }
}