{
    "cas_no": "127-71-9",
    "key_name": "Sulfabenzamide",
    "cn_name": "苯甲酰磺胺;磺胺苯甲酰;",
    "alternate_name": "Benzamide, <em>N</em>-[(4-aminophenyl)sulfonyl]-;Benzamide, <em>N</em>-sulfanilyl-;<em>N</em>-[(4-Aminophenyl)sulfonyl]benzamide;<em>N</em>-(<em>p</em>-Aminobenzenesulfonyl)benzamide;<em>N</em><sup>1</sup>-Benzoylsulfanilamide;Sulfabenzamide;Sulfabenzide;<em>N</em>-Sulfamylbenzamide;<em>N</em>-Sulfanilylbenzamide;Sulfabenzoylamide;Sulfabenzamid;Sulfabenzid;NSC 74587G;NSC 74587;<em>N</em>-(Benzoyl)-4-aminobenzenesulfonamide",
    "duplicated_cas_no": "",
    "SMILES": "S(NC(=O)C1=CC=CC=C1)(=O)(=O)C2=CC=C(N)C=C2",
    "meta_data": {
        "InChI": "InChI=1S/C13H12N2O3S/c14-11-6-8-12(9-7-11)19(17,18)15-13(16)10-4-2-1-3-5-10/h1-9H,14H2,(H,15,16)",
        "InChIKey": null,
        "Canonical SMILES": "O=C(NS(=O)(=O)C1=CC=C(N)C=C1)C=2C=CC=CC2",
        "Molecular Formula": "C<sub>13</sub>H<sub>12</sub>N<sub>2</sub>O<sub>3</sub>S",
        "Molecular Mass": "276.31",
        "Melting Point": "181.5 °C"
    }
}