{
    "cas_no": "7357-70-2",
    "key_name": "Cyanothioacetamide",
    "cn_name": "2-氰基硫代乙酰胺;代森胺;",
    "alternate_name": "Ethanethioamide, 2-cyano-;Acetamide, 2-cyanothio-;2-Cyanoethanethioamide;Cyanothioacetamide;α-Cyanothioacetamide;(Thiocarbamoyl)acetonitrile;2-Cyanothioacetamide;NSC 53405",
    "duplicated_cas_no": "",
    "SMILES": "C(C(N)=S)C#N",
    "meta_data": {
        "InChI": "InChI=1S/C3H4N2S/c4-2-1-3(5)6/h1H2,(H2,5,6)",
        "InChIKey": null,
        "Canonical SMILES": "N#CCC(=S)N",
        "Molecular Formula": "C<sub>3</sub>H<sub>4</sub>N<sub>2</sub>S",
        "Molecular Mass": "100.14",
        "Melting Point": "121-123 °C"
    }
}