{
    "cas_no": "58-14-0",
    "key_name": "Pyrimethamine",
    "cn_name": "乙胺嘧啶;2,4-二氨基-6-乙基-5-对氯苯基嘧啶;6-乙基-5-(4-氯苯基)-2,4-嘧啶二胺;息疟定;达拉匹林;",
    "alternate_name": "2,4-Pyrimidinediamine, 5-(4-chlorophenyl)-6-ethyl-;Pyrimidine, 2,4-diamino-5-(<em>p</em>-chlorophenyl)-6-ethyl-;5-(4-Chlorophenyl)-6-ethyl-2,4-pyrimidinediamine;4753 R.P.;BW 50-63;Chloridin;Chloridine;Darapram;Daraprim;2,4-Diamino-5-<em>p</em>-chlorophenyl-6-ethylpyrimidine;Malocide;Pyrimethamine;Daraprime;5-(4-Chlorophenyl)-2,4-diamino-6-ethylpyrimidine;2,4-Diamino-5-(4-chlorophenyl)-6-ethylpyrimidine;5-(<em>P</em>-Chlorophenyl)-6-ethyl-2,4-diaminopyrimidine;Darachlor;Malocid;Pirimetamin;Tindurin;Khloridin;Malacid;Pyrimethamin;Pirimecidan;Diaminopyritamin;Erbaprelina;NSC 3061;WR 2978;RP 4753;Tinduring;Broad ID:BRD-K 88429204;MeSH ID: D011739",
    "duplicated_cas_no": "",
    "SMILES": "C(C)C=1C(=C(N)N=C(N)N1)C2=CC=C(Cl)C=C2",
    "meta_data": {
        "InChI": "InChI=1S/C12H13ClN4/c1-2-9-10(11(14)17-12(15)16-9)7-3-5-8(13)6-4-7/h3-6H,2H2,1H3,(H4,14,15,16,17)",
        "InChIKey": null,
        "Canonical SMILES": "ClC1=CC=C(C=C1)C=2C(=NC(=NC2CC)N)N",
        "Molecular Formula": "C<sub>12</sub>H<sub>13</sub>ClN<sub>4</sub>",
        "Molecular Mass": "248.71",
        "Melting Point": "233.5 °C"
    }
}