{
    "cas_no": "35884-42-5",
    "key_name": "Dipropylene glycol monobutyl ether",
    "cn_name": "二丙二醇丁醚;",
    "alternate_name": "Propanol, 1(<em>or</em> 2)-(2-butoxymethylethoxy)-;1(<em>or</em> 2)-(2-Butoxymethylethoxy)propanol;Dipropylene glycol monobutyl ether;Butyl Dipropasol;Dowanol DPnB;Dipropyleneglycol butyl ether;Arcosolv DPNB;(Butoxypropoxy)propanol;Dalpad D;DBNP;DPNB;Arcosolve DPnB;YT 303",
    "duplicated_cas_no": "190969-08-5;196212-24-5;202990-51-0;241487-50-3",
    "SMILES": "",
    "meta_data": {
        "InChI": "",
        "InChIKey": null,
        "Canonical SMILES": "",
        "Molecular Formula": "C<sub>10</sub>H<sub>22</sub>O<sub>3</sub>",
        "Molecular Mass": "",
        "Boiling Point": "230 °C",
        "Density": "0.91 g/cm³ (liquid) @ Temp: 25 °C"
    }
}