{
    "cas_no": "392-12-1",
    "key_name": "Indole-3-pyruvic acid",
    "cn_name": "3-吲哚丙酮酸;吲哚-3-丙酮酸;3-(3-吲哚基)-2-氧代丙酸;",
    "alternate_name": "1<em>H</em>-Indole-3-propanoic acid, α-oxo-;Indole-3-pyruvic acid;Indolepyruvic acid;α-Oxo-1<em>H</em>-indole-3-propanoic acid;3-Indolylpyruvic acid;Indolyl-3-pyruvate;β-Indolylpyruvic acid;β-Indolepyruvic acid;3-Indolylpyroracemic acid;1<em>H</em>-Indole-3-pyruvic acid;Indole-3-pyruvate;3-(3-Indolyl)pyruvic acid;3-(3-Indolyl)-2-oxopropanoic acid;NSC 88874;POL 240;3-(1<em>H</em>-Indol-3-yl)-2-oxopropanoic acid",
    "duplicated_cas_no": "91364-04-4",
    "SMILES": "C(C(C(O)=O)=O)C=1C=2C(NC1)=CC=CC2",
    "meta_data": {
        "InChI": "InChI=1S/C11H9NO3/c13-10(11(14)15)5-7-6-12-9-4-2-1-3-8(7)9/h1-4,6,12H,5H2,(H,14,15)",
        "InChIKey": null,
        "Canonical SMILES": "O=C(O)C(=O)CC1=CNC=2C=CC=CC21",
        "Molecular Formula": "C<sub>11</sub>H<sub>9</sub>NO<sub>3</sub>",
        "Molecular Mass": "203.19",
        "Melting Point": "190-208 °C"
    }
}