{
    "cas_no": "7784-42-1",
    "key_name": "Arsine",
    "cn_name": null,
    "alternate_name": "Arsine;Arsenic trihydride;Arseniuretted hydrogen;Arsenous hydride;Hydrogen arsenide;Arsenic hydride (AsH<sub>3</sub>);Arsenic hydride",
    "duplicated_cas_no": "",
    "SMILES": "[AsH3]",
    "meta_data": {
        "InChI": "InChI=1S/AsH3/h1H3",
        "InChIKey": null,
        "Canonical SMILES": "[AsH3]",
        "Molecular Formula": "AsH<sub>3</sub>",
        "Molecular Mass": "",
        "Boiling Point": "-62.5 °C",
        "Melting Point": "-116 °C",
        "Density": "1.766 g/cm³ @ Temp: -111.8 °C"
    }
}