{
    "cas_no": "1358-76-5",
    "key_name": "Koumine",
    "cn_name": null,
    "alternate_name": "6,4-(Epoxymethano)-3,11b-methano-11b<em>H</em>-pyrido[4,3-<em>c</em>]carbazole, 11c-ethenyl-1,2,3,4,4a,5,6,11c-octahydro-2-methyl-, (3<em>S</em>,4<em>S</em>,4a<em>R</em>,6<em>R</em>,11b<em>S</em>,11c<em>S</em>)-;Koumine;7,20(2<em>H</em>,19<em>H</em>)-Cyclovobasan, 1,2,18,19-tetradehydro-3,17-epoxy-, (3<em>R</em>,7α,20α)-;6,4-(Epoxymethano)-3,11b-methano-11b<em>H</em>-pyrido[4,3-<em>c</em>]carbazole, 7,20(2<em>H</em>,19<em>H</em>)-cyclovobasan deriv.;(3<em>S</em>,4<em>S</em>,4a<em>R</em>,6<em>R</em>,11b<em>S</em>,11c<em>S</em>)-11c-Ethenyl-1,2,3,4,4a,5,6,11c-octahydro-2-methyl-6,4-(epoxymethano)-3,11b-methano-11b<em>H</em>-pyrido[4,3-<em>c</em>]carbazole",
    "duplicated_cas_no": "2223614-73-9",
    "SMILES": "C(=C)[C@@]12[C@]34C(C5(C[C@@]1([C@@]([C@](C3)(N(C)C2)[H])(CO5)[H])[H])[H])=NC=6C4=CC=CC6",
    "meta_data": {
        "InChI": "InChI=1S/C20H22N2O/c1-3-19-11-22(2)16-9-20(19)13-6-4-5-7-15(13)21-18(20)17-8-14(19)12(16)10-23-17/h3-7,12,14,16-17H,1,8-11H2,2H3/t12-,14+,16-,17?,19-,20?/m0/s1",
        "InChIKey": null,
        "Canonical SMILES": "N=1C=2C=CC=CC2C34C1C5OCC6C(N(C)CC3(C=C)C6C5)C4",
        "Molecular Formula": "C<sub>20</sub>H<sub>22</sub>N<sub>2</sub>O",
        "Molecular Mass": "306.40",
        "Melting Point": "168 °C"
    }
}