{
    "cas_no": "3759-28-2",
    "key_name": "2-Cyanobenzeneacetonitrile",
    "cn_name": "高酞腈;",
    "alternate_name": "Benzeneacetonitrile, 2-cyano-;<em>o</em>-Tolunitrile, α-cyano-;2-Cyanobenzeneacetonitrile;α-Cyano-<em>o</em>-tolunitrile;<em>o</em>-Cyanobenzyl cyanide;α-Cyano-<em>o</em>-toluonitrile;1-Cyano-2-(cyanomethyl)benzene;(<em>o</em>-Cyanophenyl)acetonitrile;2-Cyanobenzyl cyanide;(2-Cyanophenyl)acetonitrile;Homophthalonitrile;2-(Cyanomethyl)benzonitrile;NSC 340237",
    "duplicated_cas_no": "",
    "SMILES": "C(C#N)C1=C(C#N)C=CC=C1",
    "meta_data": {
        "InChI": "InChI=1S/C9H6N2/c10-6-5-8-3-1-2-4-9(8)7-11/h1-4H,5H2",
        "InChIKey": null,
        "Canonical SMILES": "N#CC=1C=CC=CC1CC#N",
        "Molecular Formula": "C<sub>9</sub>H<sub>6</sub>N<sub>2</sub>",
        "Molecular Mass": "142.16",
        "Melting Point": "79-80 °C"
    }
}