{
    "cas_no": "97-69-8",
    "key_name": "<em>N</em>-Acetyl-<span class=\"text-smallcaps\">L</span>-alanine",
    "cn_name": "N-乙酰-L-丙氨酸;",
    "alternate_name": "<span class=\"text-smallcaps\">L</span>-Alanine, <em>N</em>-acetyl-;Alanine, <em>N</em>-acetyl-, <span class=\"text-smallcaps\">L</span>-;<em>N</em>-Acetyl-<span class=\"text-smallcaps\">L</span>-alanine;Acetylalanine;<em>N</em>-Acetyl-(<em>S</em>)-alanine;<em>N</em>-Acetylalanine;Acetyl-<span class=\"text-smallcaps\">L</span>-alanine;<span class=\"text-smallcaps\">L</span>-<em>N</em>-Acetylalanine;(<em>S</em>)-<em>N</em>-Acetylalanine;(<em>S</em>)-(-)-<em>N</em>-Acetylalanine;NSC 186892;(2S)-2-Acetamidopropanoic acid",
    "duplicated_cas_no": "",
    "SMILES": "[C@@H](NC(C)=O)(C(O)=O)C",
    "meta_data": {
        "InChI": "InChI=1S/C5H9NO3/c1-3(5(8)9)6-4(2)7/h3H,1-2H3,(H,6,7)(H,8,9)/t3-/m0/s1",
        "InChIKey": null,
        "Canonical SMILES": "O=C(O)C(NC(=O)C)C",
        "Molecular Formula": "C<sub>5</sub>H<sub>9</sub>NO<sub>3</sub>",
        "Molecular Mass": "131.13",
        "Boiling Point": "100-102 °C @ Press: 0.2 Torr",
        "Melting Point": "120-122 °C"
    }
}