{
    "cas_no": "63843-89-0",
    "key_name": "Bis(1,2,2,6,6-pentamethyl-4-piperidyl) 2-(3,5-di-<em>tert</em>-butyl-4-hydroxybenzyl)-2-<em>n</em>-butylmalonate",
    "cn_name": "[[3,5-二叔丁基-4-羟基苯基]甲基]丁基丙二酸二(1,2,2,6,6-五甲基-4-哌啶基)酯;",
    "alternate_name": "Propanedioic acid, 2-[[3,5-bis(1,1-dimethylethyl)-4-hydroxyphenyl]methyl]-2-butyl-, 1,3-bis(1,2,2,6,6-pentamethyl-4-piperidinyl) ester;Propanedioic acid, [[3,5-bis(1,1-dimethylethyl)-4-hydroxyphenyl]methyl]butyl-, bis(1,2,2,6,6-pentamethyl-4-piperidinyl) ester;Bis(1,2,2,6,6-pentamethyl-4-piperidinyl) butyl(3,5-di-<em>tert</em>-butyl-4-hydroxybenzyl)malonate;Bis(1,2,2,6,6-pentamethyl-4-piperidyl) butyl(3,5-di-<em>tert</em>-butyl-4-hydroxybenzyl)malonate;Bis(1,2,2,6,6-pentamethyl-4-piperidyl) α-(3,5-di-<em>tert</em>-butyl-4-hydroxybenzyl)-α-butylmalonate;Tinuvin 144;Sanol LS 144;Bis(1,2,2,6,6-pentamethyl-4-piperidyl) 2-(3,5-di-<em>tert</em>-butyl-4-hydroxybenzyl)-2-<em>n</em>-butylmalonate;Bis(1,2,2,6,6-pentamethyl-4-piperidyl) 2-(3,5-di-<em>tert</em>-butyl-4-hydroxybenzyl)-2-butyl malonate;Tinuvin 114;Bis(1,2,2,6,6-pentamethylpiperidin-4-yl) (3,5-di-<em>tert</em>-butyl-4-hydroxybenzyl)butylmalonate;TN 144;Bis(1,2,2,6,6-pentamethyl-4-piperidinyl) (3,5-di-<em>tert</em>-butyl-4-hydroxybenzyl)butylpropanedioate;Bis(1,2,2,6,6-pentamethyl-4-piperidyl) [[3,5-bis(1,1-dimethylethyl)-4-hydroxyphenyl]methyl]butylmalonate;Bis(1,2,2,6,6-pentamethylpiperidin-4-yl) <em>n</em>-butyl-3,5-di-<em>tert</em>-butyl-4-hydroxybenzylmalonate;Tinuvin PA 144;Light Stabilizer 144;Bis(1,2,2,6,6-pentamethyl-4-piperidinyl) 2-butyl-2-(4-hydroxy-3,5-di-<em>tert</em>-butylbenzyl)propanedioate;Antioxidant 114;Bis(1,2,2,6,6-pentamethyl-4-piperidyl) <em>n</em>-butyl-3,5-di-<em>tert</em>-butyl-4-hydroxybenzylmalonate;2-[[3,5-Bis(1,1-dimethylethyl)-4-hydroxyphenyl]methyl]-2-butylpropanedioic acid 1,3-bis(1,2,2,6,6-pentamethyl-4-piperidinyl) ester;Bis(1,2,2,6,6-pentamethyl-4-piperidinyl) [3,5-bis(1,1-dimethylethyl-4-hydroxyphenyl)methyl]butylpropandioate;Light stabilizer 114;T 144;Chemsorb LS 144",
    "duplicated_cas_no": "116797-83-2;71714-47-1",
    "SMILES": "C(C(OC1CC(C)(C)N(C)C(C)(C)C1)=O)(C(OC2CC(C)(C)N(C)C(C)(C)C2)=O)(CC3=CC(C(C)(C)C)=C(O)C(C(C)(C)C)=C3)CCCC",
    "meta_data": {
        "InChI": "InChI=1S/C42H72N2O5/c1-18-19-20-42(34(46)48-29-24-38(8,9)43(16)39(10,11)25-29,35(47)49-30-26-40(12,13)44(17)41(14,15)27-30)23-28-21-31(36(2,3)4)33(45)32(22-28)37(5,6)7/h21-22,29-30,45H,18-20,23-27H2,1-17H3",
        "InChIKey": null,
        "Canonical SMILES": "O=C(OC1CC(N(C)C(C)(C)C1)(C)C)C(C(=O)OC2CC(N(C)C(C)(C)C2)(C)C)(CC=3C=C(C(O)=C(C3)C(C)(C)C)C(C)(C)C)CCCC",
        "Molecular Formula": "C<sub>42</sub>H<sub>72</sub>N<sub>2</sub>O<sub>5</sub>",
        "Molecular Mass": "685.03",
        "Melting Point": "147-149 °C"
    }
}