{
    "cas_no": "112-44-7",
    "key_name": "Undecanal",
    "cn_name": "十一醛;",
    "alternate_name": "Undecanal;Hendecanal;Hendecanaldehyde;Undecyl aldehyde;<em>n</em>-Undecyl aldehyde;Undecylic aldehyde;<em>n</em>-Undecanal;Undecanaldehyde;α-Undecanone;1-Undecanal;Undecanylaldehyde;NSC 22578",
    "duplicated_cas_no": "",
    "SMILES": "C(CCCCC=O)CCCCC",
    "meta_data": {
        "InChI": "InChI=1S/C11H22O/c1-2-3-4-5-6-7-8-9-10-11-12/h11H,2-10H2,1H3",
        "InChIKey": null,
        "Canonical SMILES": "O=CCCCCCCCCCC",
        "Molecular Formula": "C<sub>11</sub>H<sub>22</sub>O",
        "Molecular Mass": "170.29",
        "Boiling Point": "101-103 °C @ Press: 10 Torr",
        "Melting Point": "-4 °C",
        "Density": "0.8609 g/cm³ @ Temp: 18 °C"
    }
}