{
    "cas_no": "470-17-7",
    "key_name": "(+)-Isoalantolactone",
    "cn_name": "异土木香内酯;",
    "alternate_name": "Naphtho[2,3-<em>b</em>]furan-2(3<em>H</em>)-one, decahydro-8a-methyl-3,5-bis(methylene)-, (3a<em>R</em>,4a<em>S</em>,8a<em>R</em>,9a<em>R</em>)-;Eudesma-4(14),11(13)-dien-12-oic acid, 8β-hydroxy-, γ-lactone;Isoalantolactone;Naphtho[2,3-<em>b</em>]furan-2(3<em>H</em>)-one, decahydro-8a-methyl-3,5-bis(methylene)-, [3a<em>R</em>-(3aα,4aα,8aβ,9aα)]-;(3a<em>R</em>,4a<em>S</em>,8a<em>R</em>,9a<em>R</em>)-Decahydro-8a-methyl-3,5-bis(methylene)naphtho[2,3-<em>b</em>]furan-2(3<em>H</em>)-one;(+)-Isoalantolactone;Isoallantolactone;Isohelenin;5α<em>H</em>-Eudesma-4(15),11(13)-dien-12,8β-olide;NSC 241036",
    "duplicated_cas_no": "26380-84-7",
    "SMILES": "C[C@]12[C@@](C[C@]3([C@@](C1)(OC(=O)C3=C)[H])[H])(C(=C)CCC2)[H]",
    "meta_data": {
        "InChI": "InChI=1S/C15H20O2/c1-9-5-4-6-15(3)8-13-11(7-12(9)15)10(2)14(16)17-13/h11-13H,1-2,4-8H2,3H3/t11-,12+,13-,15-/m1/s1",
        "InChIKey": null,
        "Canonical SMILES": "O=C1OC2CC3(C)CCCC(=C)C3CC2C1=C",
        "Molecular Formula": "C<sub>15</sub>H<sub>20</sub>O<sub>2</sub>",
        "Molecular Mass": "232.32",
        "Melting Point": "115 °C"
    }
}