{
    "cas_no": "554-13-2",
    "key_name": "Lithium carbonate (Li<sub>2</sub>CO<sub>3</sub>)",
    "cn_name": "碳酸锂;",
    "alternate_name": "Carbonic acid, lithium salt (1:2);Carbonic acid, dilithium salt;Lithium carbonate (Li<sub>2</sub>CO<sub>3</sub>);Candamide;Dilithium carbonate;Eskalith;Carbonic acid lithium salt (Li<sub>2</sub>CO<sub>3</sub>);Camcolit;Carbolith;Hypnorex;Lithane;Lithonate;Lithotabs;Plenur;Priadel;Quilonum retard;CP 15467-61;Micalith;Lithocarb;Phasal;Lithobid;Teralithe;Quilonorm-retard;Liskonum;Ceglution;NSC 16895;Lithicarb;Limas;Carbolithium;Lithium carbonate;Lithuril;Li2CO3;QJ 0005;Lithmax;JC 0035",
    "duplicated_cas_no": "12767-19-0;216964-61-3;1312765-65-3;2006273-00-1",
    "SMILES": "C(=O)(O)O.[Li]",
    "meta_data": {
        "InChI": "InChI=1S/CH2O3.2Li/c2-1(3)4;;/h(H2,2,3,4);;",
        "InChIKey": null,
        "Canonical SMILES": "[Li].O=C(O)O",
        "Molecular Formula": "CH<sub>2</sub>O<sub>3</sub>.2Li",
        "Molecular Mass": "",
        "Melting Point": "723 °C",
        "Density": "2.11 g/cm³"
    }
}