{
    "cas_no": "344-65-0",
    "key_name": "1-Bromo-4-chloro-2-(trifluoromethyl)benzene",
    "cn_name": "2-溴-5-氯三氟甲苯;",
    "alternate_name": "Benzene, 1-bromo-4-chloro-2-(trifluoromethyl)-;Toluene, 2-bromo-5-chloro-α,α,α-trifluoro-;1-Bromo-4-chloro-2-(trifluoromethyl)benzene;4-Chloro-2-(trifluoromethyl)bromobenzene;2-Bromo-5-chlorobenzotrifluoride",
    "duplicated_cas_no": "",
    "SMILES": "C(F)(F)(F)C1=C(Br)C=CC(Cl)=C1",
    "meta_data": {
        "InChI": "InChI=1S/C7H3BrClF3/c8-6-2-1-4(9)3-5(6)7(10,11)12/h1-3H",
        "InChIKey": null,
        "Canonical SMILES": "FC(F)(F)C1=CC(Cl)=CC=C1Br",
        "Molecular Formula": "C<sub>7</sub>H<sub>3</sub>BrClF<sub>3</sub>",
        "Molecular Mass": "259.45",
        "Boiling Point": "195-196 °C @ Press: 740 Torr",
        "Melting Point": "14.9-16.2 °C"
    }
}