{
    "cas_no": "1135-67-7",
    "key_name": "1-Phenylcyclohexanecarboxylic acid",
    "cn_name": "1-苯基-1-环己羧酸;",
    "alternate_name": "Cyclohexanecarboxylic acid, 1-phenyl-;1-Phenylcyclohexanecarboxylic acid;NSC 401913;1-Phenylcyclohexane-1-carboxylic acid",
    "duplicated_cas_no": "",
    "SMILES": "C(O)(=O)C1(CCCCC1)C2=CC=CC=C2",
    "meta_data": {
        "InChI": "InChI=1S/C13H16O2/c14-12(15)13(9-5-2-6-10-13)11-7-3-1-4-8-11/h1,3-4,7-8H,2,5-6,9-10H2,(H,14,15)",
        "InChIKey": null,
        "Canonical SMILES": "O=C(O)C1(C=2C=CC=CC2)CCCCC1",
        "Molecular Formula": "C<sub>13</sub>H<sub>16</sub>O<sub>2</sub>",
        "Molecular Mass": "204.26",
        "Melting Point": "121 °C"
    }
}