{
    "cas_no": "1618-26-4",
    "key_name": "2,4-Dithiapentane",
    "cn_name": "二甲硫基甲烷;",
    "alternate_name": "Methane, bis(methylthio)-;Bis(methylthio)methane;Formaldehyde dimethyl mercaptal;Thioformaldehyde dimethyl acetal;2,4-Dithiapentane;Bis[methylmercapto]methane;Methylenebis[methyl sulfide];Formaldehyde dimethyl dithioacetal;NSC 96010",
    "duplicated_cas_no": "",
    "SMILES": "C(SC)SC",
    "meta_data": {
        "InChI": "InChI=1S/C3H8S2/c1-4-3-5-2/h3H2,1-2H3",
        "InChIKey": null,
        "Canonical SMILES": "S(C)CSC",
        "Molecular Formula": "C<sub>3</sub>H<sub>8</sub>S<sub>2</sub>",
        "Molecular Mass": "108.23",
        "Boiling Point": "148 °C",
        "Melting Point": "148 °C",
        "Density": "1.0594 g/cm³ @ Temp: 20 °C"
    }
}