{
    "cas_no": "56365-38-9",
    "key_name": "Capillarisin",
    "cn_name": "茵陈色原酮;5,7-二羟基-2-(4-羟基苯氧基)-6-甲氧基苯并吡喃-4-酮;",
    "alternate_name": "4<em>H</em>-1-Benzopyran-4-one, 5,7-dihydroxy-2-(4-hydroxyphenoxy)-6-methoxy-;5,7-Dihydroxy-2-(4-hydroxyphenoxy)-6-methoxy-4<em>H</em>-1-benzopyran-4-one;Capillarisin",
    "duplicated_cas_no": "",
    "SMILES": "OC1=C2C(OC(OC3=CC=C(O)C=C3)=CC2=O)=CC(O)=C1OC",
    "meta_data": {
        "InChI": "InChI=1S/C16H12O7/c1-21-16-11(19)6-12-14(15(16)20)10(18)7-13(23-12)22-9-4-2-8(17)3-5-9/h2-7,17,19-20H,1H3",
        "InChIKey": null,
        "Canonical SMILES": "O=C1C=C(OC2=CC=C(O)C=C2)OC3=CC(O)=C(OC)C(O)=C13",
        "Molecular Formula": "C<sub>16</sub>H<sub>12</sub>O<sub>7</sub>",
        "Molecular Mass": "316.26",
        "Melting Point": "202-205 °C"
    }
}