{
    "cas_no": "90-72-2",
    "key_name": "2,4,6-Tris[(dimethylamino)methyl]phenol",
    "cn_name": "2,4,6-三(二甲氨基甲基)苯酚;",
    "alternate_name": "Phenol, 2,4,6-tris[(dimethylamino)methyl]-;Mesitol, α,α′,α′′-tris(dimethylamino)-;Mesitol, α<sup>2</sup>,α<sup>4</sup>,α<sup>6</sup>-tris(dimethylamino)-;2,4,6-Tris[(dimethylamino)methyl]phenol;α,α′,α′′-Tris(dimethylamino)mesitol;2,4,6-Tris[(<em>N</em>,<em>N</em>-dimethylamino)methyl]phenol;DMF 3;S 41028-4;UP 606/2;Araldite DY 061;Araldite DY 064;Araldite Hardener HY 960;Sumicure D;DY 061;Araldite HY 960;Capcure EH 30;EH 30;Actiron NX 3;Anchor K 54;Ancamine K 54;K 54;Dabco TMR 30;DMP 30;Epilink 230;Protex NX 3;CK 54;Rutapox DMP 30;TAP;TAP (aminophenol);Versamine EH 30;NSC 3257;Versamine CEX 13320;HY 960-1;Ancamine 54;Agidol 53;JER Cure 3010;WHUT-RL-C;Luveak DMP 30;HY 960;JER 3010;Accelerator 960-1;Alkofen MA;TMR 30;Ankamine K 54;Epikure 3253;Seikuol TDMP;TMA-EH 30;Jointmine No 30;Jointmine 30;DEH 35;Daitocurar HD-Acc 43;Pcat 1030;Hiescat HI 54K;DPM 30;HI 54K;HY 9601;Docure KH 76K;Q-DMP 30",
    "duplicated_cas_no": "71503-41-8;102256-77-9;111366-64-4;111565-20-9;116283-46-6;152743-49-2;275822-73-6;1333383-47-3;2117650-66-3;2410367-48-3;2728646-73-7",
    "SMILES": "C(N(C)C)C1=C(O)C(CN(C)C)=CC(CN(C)C)=C1",
    "meta_data": {
        "InChI": "InChI=1S/C15H27N3O/c1-16(2)9-12-7-13(10-17(3)4)15(19)14(8-12)11-18(5)6/h7-8,19H,9-11H2,1-6H3",
        "InChIKey": null,
        "Canonical SMILES": "OC=1C(=CC(=CC1CN(C)C)CN(C)C)CN(C)C",
        "Molecular Formula": "C<sub>15</sub>H<sub>27</sub>N<sub>3</sub>O",
        "Molecular Mass": "265.39",
        "Boiling Point": "130-135 °C @ Press: 1 Torr",
        "Density": "0.974 g/cm³ @ Temp: 15 °C"
    }
}