{
    "cas_no": "4369-14-6",
    "key_name": "Acryloxypropyltrimethoxysilane",
    "cn_name": "3-(丙烯酰氧基)丙基三甲氧基硅烷;3-三甲氧基硅烷丙烯酸丙脂;",
    "alternate_name": "2-Propenoic acid, 3-(trimethoxysilyl)propyl ester;Acrylic acid, 3-(trimethoxysilyl)propyl ester;1-Propanol, 3-(trimethoxysilyl)-, acrylate;3-(Trimethoxysilyl)propyl acrylate;A 0397;[3-(Acryloyloxy)propyl]trimethoxysilane;[γ-(Acryloyloxy)propyl]trimethoxysilane;KBM 5103;Acryloxypropyltrimethoxysilane;(3-Acryloxypropyl)trimethoxysilane;γ-Acryloxypropyltrimethoxysilane;AY 43-310M;KMB 5103;SIA 0200.0;A 1597;KBM 5013;Trimethoxysilylpropyl acrylate;KBE 5103;VPS-ACMO;3-Trimethoxysilylpropyl prop-2-enoate;KH 5750",
    "duplicated_cas_no": "61737-71-1;2927475-81-6",
    "SMILES": "[Si](CCCOC(C=C)=O)(OC)(OC)OC",
    "meta_data": {
        "InChI": "InChI=1S/C9H18O5Si/c1-5-9(10)14-7-6-8-15(11-2,12-3)13-4/h5H,1,6-8H2,2-4H3",
        "InChIKey": null,
        "Canonical SMILES": "O=C(OCCC[Si](OC)(OC)OC)C=C",
        "Molecular Formula": "C<sub>9</sub>H<sub>18</sub>O<sub>5</sub>Si",
        "Molecular Mass": "234.32",
        "Boiling Point": "68 °C @ Press: 0.4 Torr",
        "Density": "1 g/cm³"
    }
}