{
    "cas_no": "80-56-8",
    "key_name": "(±)-α-Pinene",
    "cn_name": "2-蒎烯;alpha-蒎烯;2,6,6-三甲基双环[3.1.1]庚-2-烯;",
    "alternate_name": "Bicyclo[3.1.1]hept-2-ene, 2,6,6-trimethyl-;2-Pinene;2,6,6-Trimethylbicyclo[3.1.1]hept-2-ene;α-Pinene;PC 500;(±)-2-Pinene;(±)-α-Pinene;PC 500 (terpene);Acintene A;NSC 7727;Sylvapine A;alpha-Pinene;Leavo 95",
    "duplicated_cas_no": "2437-95-8",
    "SMILES": "CC1(C)C2CC1CC=C2C",
    "meta_data": {
        "InChI": "InChI=1S/C10H16/c1-7-4-5-8-6-9(7)10(8,2)3/h4,8-9H,5-6H2,1-3H3",
        "InChIKey": null,
        "Canonical SMILES": "C1=C(C)C2CC(C1)C2(C)C",
        "Molecular Formula": "C<sub>10</sub>H<sub>16</sub>",
        "Molecular Mass": "136.23",
        "Boiling Point": "156 °C @ Press: 2760 Torr",
        "Melting Point": "-62.5 °C",
        "Density": "0.8592 g/cm³ @ Temp: 20 °C"
    }
}