{
    "cas_no": "6425-32-7",
    "key_name": "3-Morpholino-1,2-propanediol",
    "cn_name": "3-(4-吗啉基)-1,2-丙二醇;3-(4-吗啉基)-1,2-丙烷二醇;",
    "alternate_name": "1,2-Propanediol, 3-(4-morpholinyl)-;1,2-Propanediol, 3-morpholino-;3-(4-Morpholinyl)-1,2-propanediol;3-Morpholino-1,2-propanediol;(±)-3-Morpholino-1,2-propanediol;3-Morpholin-4-ylpropane-1,2-diol;<em>N</em>-(2,3-Dihydroxypropyl)morpholine",
    "duplicated_cas_no": "",
    "SMILES": "C(C(CO)O)N1CCOCC1",
    "meta_data": {
        "InChI": "InChI=1S/C7H15NO3/c9-6-7(10)5-8-1-3-11-4-2-8/h7,9-10H,1-6H2",
        "InChIKey": null,
        "Canonical SMILES": "OCC(O)CN1CCOCC1",
        "Molecular Formula": "C<sub>7</sub>H<sub>15</sub>NO<sub>3</sub>",
        "Molecular Mass": "161.20",
        "Boiling Point": "145-148 °C @ Press: 5 Torr",
        "Melting Point": "162 °C"
    }
}