{
    "cas_no": "145-15-3",
    "key_name": "20β-Hydroxyprogesterone",
    "cn_name": "20β-羟基黄体酮;20β-羟基黄体酮;20β-羟基孕甾酮；20β-羟基-4-妊烯-3-酮；4-妊烯-20β-醇-3-酮;",
    "alternate_name": "Pregn-4-en-3-one, 20-hydroxy-, (20<em>R</em>)-;Pregn-4-en-3-one, 20β-hydroxy-;(20<em>R</em>)-20-Hydroxypregn-4-en-3-one;20β-Dihydroprogesterone;20β-Hydroxy-Δ<sup>4</sup>-pregnen-3-one;Δ4-Pregnene-20β-ol-3-one;Pregn-4-en-20β-ol-3-one;20β-Progerol;20β-Hydroxypregn-4-en-3-one;20β-Hydroxyprogesterone;4-Pregnene-20β-ol-3-one;Progesterol-20β;Δ<sup>4</sup>-Pregnen-20β-ol-3-one;Pregn-4-ene-20β-hydroxy-3-one",
    "duplicated_cas_no": "",
    "SMILES": "C[C@@]12[C@@]3([C@]([C@]4([C@](C)(CC3)[C@@]([C@@H](C)O)(CC4)[H])[H])(CCC1=CC(=O)CC2)[H])[H]",
    "meta_data": {
        "InChI": "InChI=1S/C21H32O2/c1-13(22)17-6-7-18-16-5-4-14-12-15(23)8-10-20(14,2)19(16)9-11-21(17,18)3/h12-13,16-19,22H,4-11H2,1-3H3/t13-,16+,17-,18+,19+,20+,21-/m1/s1",
        "InChIKey": null,
        "Canonical SMILES": "O=C1C=C2CCC3C(CCC4(C)C(CCC34)C(O)C)C2(C)CC1",
        "Molecular Formula": "C<sub>21</sub>H<sub>32</sub>O<sub>2</sub>",
        "Molecular Mass": "316.48",
        "Melting Point": "158-160 °C"
    }
}