{
    "cas_no": "3148-09-2",
    "key_name": "Verrucarin A",
    "cn_name": "疣孢菌素A;疣孢菌素A;黏液霉素A;",
    "alternate_name": "Verrucarin A;Spiro[16,18-methano-1<em>H</em>,3<em>H</em>,23<em>H</em>-[1,6,12]trioxacyclooctadecino[3,4-<em>d</em>][1]benzopyran-17(18<em>H</em>),2′-oxirane], verrucarin A deriv.;Muconomycin A;Muconomycin;Verrucarine A;NSC 126728;NSC 200736;Spiro[16,18-methano-1<em>H</em>,3<em>H</em>,23<em>H</em>-[1,6,12]trioxacyclooctadecino[3,4-<em>d</em>][1]benzopyran-17(18<em>H</em>),2′-oxirane]-3,9,14-trione, 4,5,6,7,16,16a,19a,22-octahydro-4-hydroxy-5,16a,21-trimethyl-, (4<em>S</em>,5<em>R</em>,10<em>E</em>,12<em>Z</em>,16<em>R</em>,16a<em>S</em>,17<em>S</em>,18<em>R</em>,19a<em>R</em>,23a<em>R</em>)-;(4<em>S</em>,5<em>R</em>,10<em>E</em>,12<em>Z</em>,16<em>R</em>,16a<em>S</em>,17<em>S</em>,18<em>R</em>,19a<em>R</em>,23a<em>R</em>)-4,5,6,7,16,16a,19a,22-Octahydro-4-hydroxy-5,16a,21-trimethylspiro[16,18-methano-1<em>H</em>,3<em>H</em>,23<em>H</em>-[1,6,12]trioxacyclooctadecino[3,4-<em>d</em>][1]benzopyran-17(18<em>H</em>),2′-oxirane]-3,9,14-trione",
    "duplicated_cas_no": "11039-36-4;18046-08-7;21462-53-3",
    "SMILES": "",
    "meta_data": {
        "InChI": "",
        "InChIKey": null,
        "Canonical SMILES": "",
        "Molecular Formula": "C<sub>27</sub>H<sub>34</sub>O<sub>9</sub>",
        "Molecular Mass": "502.55",
        "Melting Point": "&gt;300 °C"
    }
}