{
    "cas_no": "320-72-9",
    "key_name": "3,5-Dichlorosalicylic acid",
    "cn_name": "3,5-二氯水杨酸;",
    "alternate_name": "Benzoic acid, 3,5-dichloro-2-hydroxy-;Salicylic acid, 3,5-dichloro-;3,5-Dichloro-2-hydroxybenzoic acid;3,5-Dichlorosalicylic acid;2-Hydroxy-3,5-dichlorobenzoic acid;NSC 30109",
    "duplicated_cas_no": "50516-74-0",
    "SMILES": "C(O)(=O)C1=C(O)C(Cl)=CC(Cl)=C1",
    "meta_data": {
        "InChI": "InChI=1S/C7H4Cl2O3/c8-3-1-4(7(11)12)6(10)5(9)2-3/h1-2,10H,(H,11,12)",
        "InChIKey": null,
        "Canonical SMILES": "O=C(O)C=1C=C(Cl)C=C(Cl)C1O",
        "Molecular Formula": "C<sub>7</sub>H<sub>4</sub>Cl<sub>2</sub>O<sub>3</sub>",
        "Molecular Mass": "207.01",
        "Melting Point": "220-221 °C"
    }
}