{
    "cas_no": "22592-15-0",
    "key_name": "1-Chloro-2-pentyne",
    "cn_name": "2-戊炔氯;",
    "alternate_name": "2-Pentyne, 1-chloro-;1-Chloro-2-pentyne",
    "duplicated_cas_no": "",
    "SMILES": "C(#CCCl)CC",
    "meta_data": {
        "InChI": "InChI=1S/C5H7Cl/c1-2-3-4-5-6/h2,5H2,1H3",
        "InChIKey": null,
        "Canonical SMILES": "ClCC#CCC",
        "Molecular Formula": "C<sub>5</sub>H<sub>7</sub>Cl",
        "Molecular Mass": "102.56",
        "Melting Point": "195 °C"
    }
}