{
    "cas_no": "19691-80-6",
    "key_name": "Athidathion",
    "cn_name": null,
    "alternate_name": "Phosphorodithioic acid, <em>O</em>,<em>O</em>-diethyl <em>S</em>-[(5-methoxy-2-oxo-1,3,4-thiadiazol-3(2<em>H</em>)-yl)methyl] ester;Phosphorodithioic acid, <em>O</em>,<em>O</em>-diethyl ester, <em>S</em>-ester with 4-(mercaptomethyl)-2-methoxy-Δ<sup>2</sup>-1,3,4-thiadiazolin-5-one;Δ<sup>2</sup>-1,3,4-Thiadiazolin-5-one, 4-(mercaptomethyl)-2-methoxy-, <em>S</em>-ester with <em>O</em>,<em>O</em>-diethyl phosphorodithioate;GS 13006;Athidathion",
    "duplicated_cas_no": "857185-72-9",
    "SMILES": "P(SCN1C(=O)SC(OC)=N1)(OCC)(OCC)=S",
    "meta_data": {
        "InChI": "InChI=1S/C8H15N2O4PS3/c1-4-13-15(16,14-5-2)17-6-10-8(11)18-7(9-10)12-3/h4-6H2,1-3H3",
        "InChIKey": null,
        "Canonical SMILES": "O=C1SC(=NN1CSP(=S)(OCC)OCC)OC",
        "Molecular Formula": "C<sub>8</sub>H<sub>15</sub>N<sub>2</sub>O<sub>4</sub>PS<sub>3</sub>",
        "Molecular Mass": "330.38",
        "Melting Point": "43-44 °C"
    }
}