{
    "cas_no": "96-75-3",
    "key_name": "4-Nitroaniline-2-sulfonic acid",
    "cn_name": null,
    "alternate_name": "Benzenesulfonic acid, 2-amino-5-nitro-;2-Amino-5-nitrobenzenesulfonic acid;<em>p</em>-Nitroaniline-<em>o</em>-sulfonic acid;<em>p</em>-Nitroaniline-2-sulfonic acid;4-Nitro-2-sulfoaniline;2-Amino-5-nitrobenzene-1-sulfonic acid;4-Nitroaniline-2-sulfonic acid;1-Amino-4-nitrobenzene-2-sulfonic acid;5-Nitro-2-aminobenzenesulfonic acid;NSC 7540",
    "duplicated_cas_no": "",
    "SMILES": "S(=O)(=O)(O)C1=CC(N(=O)=O)=CC=C1N",
    "meta_data": {
        "InChI": "InChI=1S/C6H6N2O5S/c7-5-2-1-4(8(9)10)3-6(5)14(11,12)13/h1-3H,7H2,(H,11,12,13)",
        "InChIKey": null,
        "Canonical SMILES": "O=N(=O)C1=CC=C(N)C(=C1)S(=O)(=O)O",
        "Molecular Formula": "C<sub>6</sub>H<sub>6</sub>N<sub>2</sub>O<sub>5</sub>S",
        "Molecular Mass": "218.19",
        "Melting Point": "196 °C"
    }
}