{
    "cas_no": "19777-67-4",
    "key_name": "1,2-Propanediamine, hydrochloride (1:2), (2<em>R</em>)-",
    "cn_name": "(R)-(+)-二氨基丙烷二盐酸盐;",
    "alternate_name": "1,2-Propanediamine, hydrochloride (1:2), (2<em>R</em>)-;1,2-Propanediamine, dihydrochloride, <span class=\"text-smallcaps\">D</span>-;1,2-Propanediamine, dihydrochloride, (<em>R</em>)-;1,2-Propanediamine, dihydrochloride, (2<em>R</em>)-;(<em>R</em>)-(+)-1,2-Diaminopropane dihydrochloride;(+)-1,2-Propanediamine dihydrochloride;(<em>R</em>)-1,2-Diaminopropane dihydrochloride;(<em>R</em>)-Propane-1,2-diamine dihydrochloride",
    "duplicated_cas_no": "6944-03-2",
    "SMILES": "[C@H](CN)(C)N.Cl",
    "meta_data": {
        "InChI": "InChI=1S/C3H10N2.2ClH/c1-3(5)2-4;;/h3H,2,4-5H2,1H3;2*1H/t3-;;/m1../s1",
        "InChIKey": null,
        "Canonical SMILES": "Cl.NCC(N)C",
        "Molecular Formula": "C<sub>3</sub>H<sub>10</sub>N<sub>2</sub>.2ClH",
        "Molecular Mass": "",
        "Melting Point": "236-238 °C"
    }
}