{
    "cas_no": "2467-12-1",
    "key_name": "Trioctyl borate",
    "cn_name": "硼酸三辛酯;",
    "alternate_name": "Boric acid (H<sub>3</sub>BO<sub>3</sub>), trioctyl ester;Octyl borate;Trioctyl borate;Trioctyloxyborane;Borester 5;Boron octylate;NSC 783",
    "duplicated_cas_no": "",
    "SMILES": "B(OCCCCCCCC)(OCCCCCCCC)OCCCCCCCC",
    "meta_data": {
        "InChI": "InChI=1S/C24H51BO3/c1-4-7-10-13-16-19-22-26-25(27-23-20-17-14-11-8-5-2)28-24-21-18-15-12-9-6-3/h4-24H2,1-3H3",
        "InChIKey": null,
        "Canonical SMILES": "O(B(OCCCCCCCC)OCCCCCCCC)CCCCCCCC",
        "Molecular Formula": "C<sub>24</sub>H<sub>51</sub>BO<sub>3</sub>",
        "Molecular Mass": "398.47",
        "Boiling Point": "174 °C @ Press: 0.4 Torr"
    }
}