{
    "cas_no": "1309-38-2",
    "key_name": "Magnetite (Fe<sub>3</sub>O<sub>4</sub>)",
    "cn_name": "磁铁矿;",
    "alternate_name": "Magnetite (Fe<sub>3</sub>O<sub>4</sub>);11557 Black;Black Gold F 89;Magnetic Black;Magnetic oxide;Magnetite;Meramec M 25;H 3S;RB-BL;Black Iron BM;Toda Color EPT 500;EPT 1000;CJ 3000B;RN 320;CKN 320;KBC 100 (mineral);MTC 840;Iron ores, magnetite;BL 270;COP 1 (oxide);MTA 840;COP 1;EFP 500;KBC 100;MgW-PE;Bayferrox AC 5110M;Biomagnet;EP 7-500;KBC 100S;EPT 100;Bayferrox AC 5111M;MG-WL;Mapico BL 200;MTB 15;MER 1;EP 100 (oxide);BL 600;EP 100;MG-RF;MAT 740;MG-SH;Toda Color EPT 1001;EPT 1001;BD 5099FF;KBC 100L;KN 320;KBC 100SNW;MagniF 10;KBC 100SS;Tarox BL 50;BL 50;EPT 500;Magnetitium;Magnetitum;RB-SP;Geldart B;FO 0000/0090/HA;CTK 1;MagniF 150;MagniF 25;Magnet Pigment 340;FeRex;KS 63;DS 63",
    "duplicated_cas_no": "122303-97-3;123897-13-2;124364-57-4;137263-94-6;73904-98-0;90577-09-6;174794-75-3;151820-32-5",
    "SMILES": "[O].[Fe]",
    "meta_data": {
        "InChI": "InChI=1S/Fe.O",
        "InChIKey": null,
        "Canonical SMILES": "[O].[Fe]",
        "Molecular Formula": "Fe.O",
        "Molecular Mass": "",
        "Melting Point": "1595 °C",
        "Density": "0.37 g/cm³"
    }
}