{
    "cas_no": "107-51-7",
    "key_name": "Octamethyltrisiloxane",
    "cn_name": null,
    "alternate_name": "Trisiloxane, 1,1,1,3,3,5,5,5-octamethyl-;Trisiloxane, octamethyl-;1,1,1,3,3,5,5,5-Octamethyltrisiloxane;Octamethyltrisiloxane;Dimethylbis(trimethylsiloxy)silane;KF 96L1.0;OS 20;Pentamethyl(trimethylsilyloxy)disiloxane;KF 96A1cs;FRD 20;Pentamethyl(trimethylsiloxy)disiloxane;MDM;MDM (siloxane);OS 20 Fluid;Dow Corning OS 20;Dowsil OS 20;R 030007",
    "duplicated_cas_no": "1463470-58-7",
    "SMILES": "O([Si](O[Si](C)(C)C)(C)C)[Si](C)(C)C",
    "meta_data": {
        "InChI": "InChI=1S/C8H24O2Si3/c1-11(2,3)9-13(7,8)10-12(4,5)6/h1-8H3",
        "InChIKey": null,
        "Canonical SMILES": "O([Si](O[Si](C)(C)C)(C)C)[Si](C)(C)C",
        "Molecular Formula": "C<sub>8</sub>H<sub>24</sub>O<sub>2</sub>Si<sub>3</sub>",
        "Molecular Mass": "236.53",
        "Boiling Point": "153 °C",
        "Melting Point": "-80 °C",
        "Density": "0.820 g/cm³"
    }
}