{
    "cas_no": "1498-88-0",
    "key_name": "1′,3′-Dihydro-1′,3′,3′-trimethyl-6-nitrospiro[2<em>H</em>-1-benzopyran-2,2′-[2<em>H</em>]indole]",
    "cn_name": "螺[1,3,3-三甲基吲哚-(6-硝基苯并二氢吡喃)];螺[1,3,3-三甲基吲哚-(6\"-硝基苯并二氢吡喃)];",
    "alternate_name": "Spiro[2<em>H</em>-1-benzopyran-2,2′-[2<em>H</em>]indole], 1′,3′-dihydro-1′,3′,3′-trimethyl-6-nitro-;Spiro[2<em>H</em>-1-benzopyran-2,2′-indoline], 1′,3′,3′-trimethyl-6-nitro-;1′,3′-Dihydro-1′,3′,3′-trimethyl-6-nitrospiro[2<em>H</em>-1-benzopyran-2,2′-[2<em>H</em>]indole];1′,3′,3′-Trimethyl-6-nitrospiro[2<em>H</em>-1-benzopyran-2,2′-indoline];1,1,3-Trimethyl-6′-nitrospiro[indoline-2,2′-benzopyran];1,3,3-Trimethyl-2-(6-nitrospirobenzopyran-2-yl)indoline;1,3,3-Trimethyl-6′-nitrospiro[indoline-2,2′-benzopyran];6′-Nitro-1,3,3-trimethylspiro[indoline-2,2′-2′<em>H</em>-chromene];1,3,3-Trimethyl-6-nitrospiro(2<em>H</em>-1-benzopyran-2,2′-indoline);1,3,3-Trimethyl-6′-nitrospiro[indoline-2,2′(2′<em>H</em>)-chromene];1,3,3-Trimethyl-6-nitroindoline-2-spiro-2,2-benzopyran;6′-Nitro-1,3,3-trimethylspiro[2′<em>H</em>-1′-benzopyran-2′,2-indoline];1,3,3-Trimethyl-6′-nitrospiro(indolino-2,2′-benzopyran);1,3,3-Trimethyl-2-indolino-2′-spiro-6′-nitrobenzo[<em>b</em>]pyran;1,3,3-Trimethyl-6′-nitrospiro[indole-2,2′-benzopyran];1,3,3-Trimethyl-6′-nitroindoline-2-spiro-2′-benzopyran;6-Nitro-1′,3′,3′-trimethylspiro[2<em>H</em>-benzopyran-2,2′-indoline];SP 1 (dye);SP 1;1,3,3-Trimethylindolino-6′-nitrospirobenzopyran;6-Nitro-1′,3′,3′-trimethylspiro[2<em>H</em>-1-benzopyran-2,2′-indoline];6-Nitro-1′,3′,3′-trimethylspiro[1<em>H</em>-1-benzopyran-2,2′-indoline];2<em>H</em>-Spiro[6]nitrochromene-2,2′-[1,3,3]trimethylindoline;NSC 206176;1′,3′,3′-Trimethyl-6-nitrospiro[1(2<em>H</em>)-benzopyran-2,2′-indoline];1,3,3-Trimethylindolino-6′-nitrobenzopyrylospiran;1,3,3-Trimethyindolino-6′-nitrobenzopyry lospiran;T 0366;1,3,3-Trimethyl-6′-nitro-indolinospirobenzopyran;1′,3′,3′-Trimethyl-6-nitro-1′,3′-dihydrospiro[chromene-2,2′-indole];1′,3′,3′-Trimethyl-6-nitrospiro[chromene-2,2′-indole];1′,3′,3′-Trimethyl-6-nitrospiro[chromene-2,2′-indoline]",
    "duplicated_cas_no": "81558-16-9",
    "SMILES": "CC1(C)C2(N(C)C=3C1=CC=CC3)OC=4C(C=C2)=CC(N(=O)=O)=CC4",
    "meta_data": {
        "InChI": "InChI=1S/C19H18N2O3/c1-18(2)15-6-4-5-7-16(15)20(3)19(18)11-10-13-12-14(21(22)23)8-9-17(13)24-19/h4-12H,1-3H3",
        "InChIKey": null,
        "Canonical SMILES": "O=N(=O)C=1C=CC=2OC3(C=CC2C1)N(C=4C=CC=CC4C3(C)C)C",
        "Molecular Formula": "C<sub>19</sub>H<sub>18</sub>N<sub>2</sub>O<sub>3</sub>",
        "Molecular Mass": "322.36",
        "Melting Point": "179-180 °C"
    }
}