{
    "cas_no": "16191-84-7",
    "key_name": "1-Chloro-4-[(2-chloroethyl)sulfonyl]benzene",
    "cn_name": "2-氯乙基-4-氯苯基砜;",
    "alternate_name": "Benzene, 1-chloro-4-[(2-chloroethyl)sulfonyl]-;Sulfone, 2-chloroethyl <em>p</em>-chlorophenyl;1-Chloro-4-[(2-chloroethyl)sulfonyl]benzene;<em>p</em>-Chlorophenyl β-chloroethyl sulfone;2-Chloroethyl 4-chlorophenyl sulfone;NSC 196185;2-Chloro-1-[(4-chlorophenyl)sulfonyl]ethane",
    "duplicated_cas_no": "",
    "SMILES": "S(CCCl)(=O)(=O)C1=CC=C(Cl)C=C1",
    "meta_data": {
        "InChI": "InChI=1S/C8H8Cl2O2S/c9-5-6-13(11,12)8-3-1-7(10)2-4-8/h1-4H,5-6H2",
        "InChIKey": null,
        "Canonical SMILES": "O=S(=O)(C1=CC=C(Cl)C=C1)CCCl",
        "Molecular Formula": "C<sub>8</sub>H<sub>8</sub>Cl<sub>2</sub>O<sub>2</sub>S",
        "Molecular Mass": "239.12",
        "Melting Point": "98-99 °C"
    }
}