{
    "cas_no": "4546-55-8",
    "key_name": "<em>N</em><sup>6</sup>-Benzoyladenosine",
    "cn_name": "N6-苯甲酰腺苷;N-苯甲酰腺苷;",
    "alternate_name": "Adenosine, <em>N</em>-benzoyl-;Benzamide, <em>N</em>-(9-β-<span class=\"text-smallcaps\">D</span>-ribofuranosyl-9<em>H</em>-purin-6-yl)-;<em>N</em>-Benzoyladenosine;<em>N</em><sup>6</sup>-Benzoyladenosine",
    "duplicated_cas_no": "",
    "SMILES": "O[C@H]1[C@H](N2C=3C(N=C2)=C(NC(=O)C4=CC=CC=C4)N=CN3)O[C@H](CO)[C@H]1O",
    "meta_data": {
        "InChI": "InChI=1S/C17H17N5O5/c23-6-10-12(24)13(25)17(27-10)22-8-20-11-14(18-7-19-15(11)22)21-16(26)9-4-2-1-3-5-9/h1-5,7-8,10,12-13,17,23-25H,6H2,(H,18,19,21,26)/t10-,12-,13-,17-/m1/s1",
        "InChIKey": null,
        "Canonical SMILES": "O=C(NC1=NC=NC2=C1N=CN2C3OC(CO)C(O)C3O)C=4C=CC=CC4",
        "Molecular Formula": "C<sub>17</sub>H<sub>17</sub>N<sub>5</sub>O<sub>5</sub>",
        "Molecular Mass": "371.35",
        "Melting Point": "152 °C"
    }
}