{
    "cas_no": "1731-92-6",
    "key_name": "Methyl heptadecanoate",
    "cn_name": "十七酸甲酯;",
    "alternate_name": "Heptadecanoic acid, methyl ester;Methyl margarate;Methyl heptadecanoate;Margaric acid methyl ester;NSC 97364;A 27667",
    "duplicated_cas_no": "",
    "SMILES": "C(CCCCCCCCCCCC)CCCC(OC)=O",
    "meta_data": {
        "InChI": "InChI=1S/C18H36O2/c1-3-4-5-6-7-8-9-10-11-12-13-14-15-16-17-18(19)20-2/h3-17H2,1-2H3",
        "InChIKey": null,
        "Canonical SMILES": "O=C(OC)CCCCCCCCCCCCCCCC",
        "Molecular Formula": "C<sub>18</sub>H<sub>36</sub>O<sub>2</sub>",
        "Molecular Mass": "284.48",
        "Boiling Point": "185 °C @ Press: 9 Torr",
        "Melting Point": "30 °C"
    }
}