{
    "cas_no": "1156-19-0",
    "key_name": "Tolazamide",
    "cn_name": "甲磺氮草脲;",
    "alternate_name": "Benzenesulfonamide, <em>N</em>-[[(hexahydro-1<em>H</em>-azepin-1-yl)amino]carbonyl]-4-methyl-;Urea, 1-(hexahydro-1<em>H</em>-azepin-1-yl)-3-(<em>p</em>-tolylsulfonyl)-;<em>N</em>-[[(Hexahydro-1<em>H</em>-azepin-1-yl)amino]carbonyl]-4-methylbenzenesulfonamide;U 17835;1-(Hexahydro-1-azepinyl)-3-<em>p</em>-tolylsulfonylurea;1-(Hexahydro-1<em>H</em>-azepin-1-yl)-3-(<em>p</em>-tolylsulfonyl)urea;Tolazamide;Tolinase;<em>N</em>-(<em>p</em>-Toluenesulfonyl)-<em>N</em>′-hexamethyleniminourea;Norglycin;Tolanase;1-(4-Methylphenylsulfonyl)-3-(hexahydro-1<em>H</em>-azepin-1-yl)urea;Diabewas;NSC 70762;1-(Azepan-1-yl)-3-(4-methylphenyl)sulfonylurea;MeSH ID: D014042",
    "duplicated_cas_no": "",
    "SMILES": "S(NC(NN1CCCCCC1)=O)(=O)(=O)C2=CC=C(C)C=C2",
    "meta_data": {
        "InChI": "InChI=1S/C14H21N3O3S/c1-12-6-8-13(9-7-12)21(19,20)16-14(18)15-17-10-4-2-3-5-11-17/h6-9H,2-5,10-11H2,1H3,(H2,15,16,18)",
        "InChIKey": null,
        "Canonical SMILES": "O=C(NN1CCCCCC1)NS(=O)(=O)C2=CC=C(C=C2)C",
        "Molecular Formula": "C<sub>14</sub>H<sub>21</sub>N<sub>3</sub>O<sub>3</sub>S",
        "Molecular Mass": "311.40",
        "Melting Point": "170-173 °C"
    }
}