{
    "cas_no": "36076-26-3",
    "key_name": "1,4-Diethyl 1,4-benzenediacetate",
    "cn_name": "1,4-苯乙酸二乙酯;1,4-苯醋酸二乙酯;",
    "alternate_name": "1,4-Benzenediacetic acid, 1,4-diethyl ester;1,4-Benzenediacetic acid, diethyl ester;<em>p</em>-Benzenediacetic acid, diethyl ester;1,4-Diethyl 1,4-benzenediacetate;<em>p</em>-Phenylenediacetic acid diethyl ester;NSC 139681;Diethyl 1,4-benzenediacetate",
    "duplicated_cas_no": "",
    "SMILES": "C(C(OCC)=O)C1=CC=C(CC(OCC)=O)C=C1",
    "meta_data": {
        "InChI": "InChI=1S/C14H18O4/c1-3-17-13(15)9-11-5-7-12(8-6-11)10-14(16)18-4-2/h5-8H,3-4,9-10H2,1-2H3",
        "InChIKey": null,
        "Canonical SMILES": "O=C(OCC)CC1=CC=C(C=C1)CC(=O)OCC",
        "Molecular Formula": "C<sub>14</sub>H<sub>18</sub>O<sub>4</sub>",
        "Molecular Mass": "250.29",
        "Melting Point": "57 °C"
    }
}