{
    "cas_no": "464213-10-3",
    "key_name": "Ibipinabant",
    "cn_name": "伊必那班;(4S)-3-(4-氯苯基)-N-[(4-氯苯基)磺酰基]-4,5-二氢-N\"-甲基-4-苯基-1H-吡唑-1-甲脒;",
    "alternate_name": "1<em>H</em>-Pyrazole-1-carboximidamide, 3-(4-chlorophenyl)-<em>N</em>-[(4-chlorophenyl)sulfonyl]-4,5-dihydro-<em>N</em>′-methyl-4-phenyl-, (4<em>S</em>)-;(4<em>S</em>)-3-(4-Chlorophenyl)-<em>N</em>-[(4-chlorophenyl)sulfonyl]-4,5-dihydro-<em>N</em>′-methyl-4-phenyl-1<em>H</em>-pyrazole-1-carboximidamide;SLV 319;BMS 646256;Ibipinabant;JD 5001",
    "duplicated_cas_no": "",
    "SMILES": "C(NS(=O)(=O)C1=CC=C(Cl)C=C1)(=NC)N2N=C([C@H](C2)C3=CC=CC=C3)C4=CC=C(Cl)C=C4",
    "meta_data": {
        "InChI": "InChI=1S/C23H20Cl2N4O2S/c1-26-23(28-32(30,31)20-13-11-19(25)12-14-20)29-15-21(16-5-3-2-4-6-16)22(27-29)17-7-9-18(24)10-8-17/h2-14,21H,15H2,1H3,(H,26,28)/t21-/m1/s1",
        "InChIKey": null,
        "Canonical SMILES": "O=S(=O)(NC(=NC)N1N=C(C=2C=CC(Cl)=CC2)C(C=3C=CC=CC3)C1)C4=CC=C(Cl)C=C4",
        "Molecular Formula": "C<sub>23</sub>H<sub>20</sub>Cl<sub>2</sub>N<sub>4</sub>O<sub>2</sub>S",
        "Molecular Mass": "487.40",
        "Melting Point": "159-162 °C"
    }
}