{
    "cas_no": "3338-32-7",
    "key_name": "<span class=\"text-smallcaps\">L</span>-Aspartic acid, <em>N</em>-[(phenylmethoxy)carbonyl]-, 4-(1,1-dimethylethyl) 1-(2,5-dioxo-1-pyrrolidinyl) ester",
    "cn_name": "N-苄氧羰基-L-天冬氨酸 4-叔丁酯 1-(N-琥珀酰亚胺)酯;",
    "alternate_name": "<span class=\"text-smallcaps\">L</span>-Aspartic acid, <em>N</em>-[(phenylmethoxy)carbonyl]-, 4-(1,1-dimethylethyl) 1-(2,5-dioxo-1-pyrrolidinyl) ester;Succinimide, <em>N</em>-[(<em>N</em>-carboxy-<span class=\"text-smallcaps\">L</span>-α-aspartyl)oxy]-, <em>N</em>-benzyl <em>tert</em>-butyl ester;Butanoic acid, 4-[(2,5-dioxo-1-pyrrolidinyl)oxy]-4-oxo-3-[[(phenylmethoxy)carbonyl]amino]-, 1,1-dimethylethyl ester, (<em>S</em>)-;Butanoic acid, 4-[(2,5-dioxo-1-pyrrolidinyl)oxy]-4-oxo-3-[[(phenylmethoxy)carbonyl]amino]-, 1,1-dimethylethyl ester, (3<em>S</em>)-;Aspartic acid, <em>N</em>-carboxy-, <em>N</em>-benzyl 4-<em>tert</em>-butyl ester, succinimido deriv., <span class=\"text-smallcaps\">L</span>-;<em>N</em>-Benzyloxycarbonyl-<span class=\"text-smallcaps\">L</span>-aspartic acid 5-<em>tert</em>-butyl-1-hydroxysuccinimide diester",
    "duplicated_cas_no": "2639-47-6;51537-44-1;51537-23-6;1195504-39-2",
    "SMILES": "O(C([C@@H](NC(OCC1=CC=CC=C1)=O)CC(OC(C)(C)C)=O)=O)N2C(=O)CCC2=O",
    "meta_data": {
        "InChI": "InChI=1S/C20H24N2O8/c1-20(2,3)29-17(25)11-14(18(26)30-22-15(23)9-10-16(22)24)21-19(27)28-12-13-7-5-4-6-8-13/h4-8,14H,9-12H2,1-3H3,(H,21,27)/t14-/m0/s1",
        "InChIKey": null,
        "Canonical SMILES": "O=C(OCC=1C=CC=CC1)NC(C(=O)ON2C(=O)CCC2=O)CC(=O)OC(C)(C)C",
        "Molecular Formula": "C<sub>20</sub>H<sub>24</sub>N<sub>2</sub>O<sub>8</sub>",
        "Molecular Mass": "420.41",
        "Melting Point": "148-150 °C"
    }
}