{
    "cas_no": "1739-83-9",
    "key_name": "1,2,4,5-Tetramethyl-1<em>H</em>-imidazole",
    "cn_name": "1,2,4,5-四甲基棉隆酯;",
    "alternate_name": "1<em>H</em>-Imidazole, 1,2,4,5-tetramethyl-;Imidazole, 1,2,4,5-tetramethyl-;1,2,4,5-Tetramethyl-1<em>H</em>-imidazole;1,2,4,5-Tetramethylimidazole;Tetramethylimidazole;4<em>H</em>-Imidazolium, 2,3,4,5-tetramethyl-;2,3,4,5-Tetramethyl-4<em>H</em>-imidazolium",
    "duplicated_cas_no": "2863671-75-2",
    "SMILES": "CC=1N(C)C(C)=NC1C",
    "meta_data": {
        "InChI": "InChI=1S/C7H12N2/c1-5-6(2)9(4)7(3)8-5/h1-4H3",
        "InChIKey": null,
        "Canonical SMILES": "N=1C(=C(N(C1C)C)C)C",
        "Molecular Formula": "C<sub>7</sub>H<sub>12</sub>N<sub>2</sub>",
        "Molecular Mass": "124.18",
        "Boiling Point": "125-128 °C @ Press: 29 Torr",
        "Melting Point": "58 °C"
    }
}