{
    "cas_no": "120-11-6",
    "key_name": "Benzyl isoeugenol",
    "cn_name": "1-苄氧基-2-甲氧基-4-丙烯基苯;",
    "alternate_name": "Benzene, 2-methoxy-1-(phenylmethoxy)-4-(1-propen-1-yl)-;Benzene, 1-(benzyloxy)-2-methoxy-4-propenyl-;Benzene, 2-methoxy-1-(phenylmethoxy)-4-(1-propenyl)-;2-Methoxy-1-(phenylmethoxy)-4-(1-propen-1-yl)benzene;Benzyl isoeugenol;Benzyl isoeugenol ether;Benzyl 2-methoxy-4-propenylphenyl ether;Isoeugenol, benzyl ether;NSC 46157;Isoeugenyl benzyl ether",
    "duplicated_cas_no": "",
    "SMILES": "O(CC1=CC=CC=C1)C2=C(OC)C=C(C=CC)C=C2",
    "meta_data": {
        "InChI": "InChI=1S/C17H18O2/c1-3-7-14-10-11-16(17(12-14)18-2)19-13-15-8-5-4-6-9-15/h3-12H,13H2,1-2H3",
        "InChIKey": null,
        "Canonical SMILES": "O(C1=CC(=CC=C1OCC=2C=CC=CC2)C=CC)C",
        "Molecular Formula": "C<sub>17</sub>H<sub>18</sub>O<sub>2</sub>",
        "Molecular Mass": "254.32",
        "Boiling Point": "198-204 °C @ Press: 5 Torr",
        "Melting Point": "46-52 °C"
    }
}