{
    "cas_no": "74-79-3",
    "key_name": "<span class=\"text-smallcaps\">L</span>-Arginine",
    "cn_name": "L-精氨酸;2-氨基-5-胍基戊酸;",
    "alternate_name": "<span class=\"text-smallcaps\">L</span>-Arginine;Arginine, <span class=\"text-smallcaps\">L</span>-;Arginine;Pentanoic acid, 2-amino-5-[(aminoiminomethyl)amino]-, (<em>S</em>)-;<span class=\"text-smallcaps\">L</span>-(+)-Arginine;(<em>S</em>)-2-Amino-5-[(aminoiminomethyl)amino]pentanoic acid;<span class=\"text-smallcaps\">L</span>-Norvaline, 5-[(aminoiminomethyl)amino]-;<span class=\"text-smallcaps\">L</span>-Ornithine, <em>N</em><sup>5</sup>-(aminoiminomethyl)-;<span class=\"text-smallcaps\">L</span>-α-Amino-δ-guanidinovaleric acid;<span class=\"text-smallcaps\">L</span>-Arg;NSC 206269;L-arginine C Grade;A 0526;(2S)-2-Amino-5-(diaminomethylideneamino)pentanoic acid;42: PN: WO2020027640 SEQID: 105 claimed protein;42: PN: KR20200014684 SEQID: 105 claimed sequence;117: PN: WO2021061872 SEQID: 117 claimed protein;87: PN: WO2022010798 SEQID: 89 claimed protein;381: PN: WO2022056313 SEQID: 385 claimed protein;42: PN: WO2022204326 SEQID: 76 claimed protein;102: PN: WO2022204151 SEQID: 102 claimed protein;11: PN: WO2022235295 SEQID: 117 claimed protein;3: PN: WO2022269549 PAGE: 98 claimed sequence;MeSH ID: D001120;393: PN: WO2023172654 SEQID: 395 claimed sequence",
    "duplicated_cas_no": "142-49-4;7004-12-8;154605-63-7;154605-67-1;667422-95-9;1332377-47-5",
    "SMILES": "C(CCNC(=N)N)[C@@H](C(O)=O)N",
    "meta_data": {
        "InChI": "InChI=1S/C6H14N4O2/c7-4(5(11)12)2-1-3-10-6(8)9/h4H,1-3,7H2,(H,11,12)(H4,8,9,10)/t4-/m0/s1",
        "InChIKey": null,
        "Canonical SMILES": "O=C(O)C(N)CCCNC(=N)N",
        "Molecular Formula": "C<sub>6</sub>H<sub>14</sub>N<sub>4</sub>O<sub>2</sub>",
        "Molecular Mass": "174.20",
        "Melting Point": "244 °C",
        "Density": "1.10 g/cm³"
    }
}