{
    "cas_no": "1567-75-5",
    "key_name": "1-(1-Methylcyclopropyl)ethanone",
    "cn_name": "1-甲基环丙基甲基酮;甲基1-甲基环丙基酮;",
    "alternate_name": "Ethanone, 1-(1-methylcyclopropyl)-;Ketone, methyl 1-methylcyclopropyl;1-(1-Methylcyclopropyl)ethanone;Methyl 1-methylcyclopropyl ketone;1-Acetyl-1-methylcyclopropane;1-Methylcyclopropyl methyl ketone;NSC 97001;1-(1-Methylcyclopropyl)ethan-1-one",
    "duplicated_cas_no": "",
    "SMILES": "C(C)(=O)C1(C)CC1",
    "meta_data": {
        "InChI": "InChI=1S/C6H10O/c1-5(7)6(2)3-4-6/h3-4H2,1-2H3",
        "InChIKey": null,
        "Canonical SMILES": "O=C(C)C1(C)CC1",
        "Molecular Formula": "C<sub>6</sub>H<sub>10</sub>O",
        "Molecular Mass": "98.14",
        "Boiling Point": "126 °C"
    }
}