{
    "cas_no": "2437-49-2",
    "key_name": "2,4,6-Tribromoresorcinol",
    "cn_name": "2,4,6-三溴间苯二酚;1,3,5-三溴-2,4-二羟基苯;",
    "alternate_name": "1,3-Benzenediol, 2,4,6-tribromo-;Resorcinol, 2,4,6-tribromo-;2,4,6-Tribromo-1,3-benzenediol;2,4,6-Tribromoresorcinol;2,4,6-Tribromo-3-hydroxyphenol;1,3,5-Tribromo-2,4-dihydroxybenzene;NSC 10857;1,3,5-Tribromo-2,6-dihydroxybenzene",
    "duplicated_cas_no": "",
    "SMILES": "OC1=C(Br)C(O)=C(Br)C=C1Br",
    "meta_data": {
        "InChI": "InChI=1S/C6H3Br3O2/c7-2-1-3(8)6(11)4(9)5(2)10/h1,10-11H",
        "InChIKey": null,
        "Canonical SMILES": "BrC=1C=C(Br)C(O)=C(Br)C1O",
        "Molecular Formula": "C<sub>6</sub>H<sub>3</sub>Br<sub>3</sub>O<sub>2</sub>",
        "Molecular Mass": "346.80",
        "Melting Point": "114-116 °C"
    }
}