{
    "cas_no": "5728-52-9",
    "key_name": "Felbinac",
    "cn_name": "4-联苯乙酸;",
    "alternate_name": "[1,1′-Biphenyl]-4-acetic acid;4-Biphenylacetic acid;Acetic acid, (4-biphenylyl)-;<em>p</em>-Biphenylylacetic acid;4-Biphenylylacetic acid;<em>p</em>-Biphenylacetic acid;4-Carboxymethylbiphenyl;LY 61017;L 141;LJC 10141;Felbinac;Cl 83544;Traxam;4-Phenylphenylacetic acid;BPAA;Seltouch;NSC 16284;2-(Biphenyl-4-yl)acetic acid;([1,1′-Biphenyl]-4-yl)acetic acid;2-([1,1′-Biphenyl]-4-yl)acetic acid;(Biphenyl-4-yl)acetic acid;Felbion 35;2-(4-Phenylphenyl)acetic acid",
    "duplicated_cas_no": "154907-20-7",
    "SMILES": "C(C(O)=O)C1=CC=C(C=C1)C2=CC=CC=C2",
    "meta_data": {
        "InChI": "InChI=1S/C14H12O2/c15-14(16)10-11-6-8-13(9-7-11)12-4-2-1-3-5-12/h1-9H,10H2,(H,15,16)",
        "InChIKey": null,
        "Canonical SMILES": "O=C(O)CC=1C=CC(=CC1)C=2C=CC=CC2",
        "Molecular Formula": "C<sub>14</sub>H<sub>12</sub>O<sub>2</sub>",
        "Molecular Mass": "212.24",
        "Melting Point": "160.5 °C"
    }
}