{
    "cas_no": "617-97-0",
    "key_name": "3-Methylbenzenesulfonic acid",
    "cn_name": null,
    "alternate_name": "Benzenesulfonic acid, 3-methyl-;<em>m</em>-Toluenesulfonic acid;3-Methylbenzenesulfonic acid;<em>m</em>-Methylbenzenesulfonic acid;3-Methylbenzensulfonic acid;3-Methylbenzene-1-sulfonic acid",
    "duplicated_cas_no": "",
    "SMILES": "S(=O)(=O)(O)C1=CC(C)=CC=C1",
    "meta_data": {
        "InChI": "InChI=1S/C7H8O3S/c1-6-3-2-4-7(5-6)11(8,9)10/h2-5H,1H3,(H,8,9,10)",
        "InChIKey": null,
        "Canonical SMILES": "O=S(=O)(O)C=1C=CC=C(C1)C",
        "Molecular Formula": "C<sub>7</sub>H<sub>8</sub>O<sub>3</sub>S",
        "Molecular Mass": "172.20",
        "Melting Point": "119.5-121 °C"
    }
}