{
    "cas_no": "87-48-9",
    "key_name": "5-Bromoisatin",
    "cn_name": "5-溴靛红;5-溴吲哚啉-2,3-二酮;",
    "alternate_name": "1<em>H</em>-Indole-2,3-dione, 5-bromo-;Indole-2,3-dione, 5-bromo-;Isatin, 5-bromo-;5-Bromo-1<em>H</em>-indole-2,3-dione;5-Bromoindole-2,3-dione;5-Bromoisatin;5-Bromo-2,3-indolinedione;NSC 4980;5-Bromo-2,3-dihydro-1<em>H</em>-indole-2,3-dione",
    "duplicated_cas_no": "",
    "SMILES": "O=C1C=2C(NC1=O)=CC=C(Br)C2",
    "meta_data": {
        "InChI": "InChI=1S/C8H4BrNO2/c9-4-1-2-6-5(3-4)7(11)8(12)10-6/h1-3H,(H,10,11,12)",
        "InChIKey": null,
        "Canonical SMILES": "O=C1NC2=CC=C(Br)C=C2C1=O",
        "Molecular Formula": "C<sub>8</sub>H<sub>4</sub>BrNO<sub>2</sub>",
        "Molecular Mass": "226.03",
        "Melting Point": "255 °C"
    }
}