{
    "cas_no": "5197-95-5",
    "key_name": "Benzyltriethylammonium bromide",
    "cn_name": "苄基三乙基溴化铵;",
    "alternate_name": "Benzenemethanaminium, <em>N</em>,<em>N</em>,<em>N</em>-triethyl-, bromide (1:1);Ammonium, benzyltriethyl-, bromide;Benzenemethanaminium, <em>N</em>,<em>N</em>,<em>N</em>-triethyl-, bromide;Benzyltriethylammonium bromide;Triethylbenzylammonium bromide",
    "duplicated_cas_no": "",
    "SMILES": "[N+](CC1=CC=CC=C1)(CC)(CC)CC.[Br-]",
    "meta_data": {
        "InChI": "InChI=1S/C13H22N.BrH/c1-4-14(5-2,6-3)12-13-10-8-7-9-11-13;/h7-11H,4-6,12H2,1-3H3;1H/q+1;/p-1",
        "InChIKey": null,
        "Canonical SMILES": "[Br-].C=1C=CC(=CC1)C[N+](CC)(CC)CC",
        "Molecular Formula": "C<sub>13</sub>H<sub>22</sub>N.Br",
        "Molecular Mass": "",
        "Melting Point": "195 °C (decomp)"
    }
}