{
    "cas_no": "5610-40-2",
    "key_name": "(-)-Securinine",
    "cn_name": null,
    "alternate_name": "8<em>H</em>-6,11b-Methanofuro[2,3-<em>c</em>]pyrido[1,2-<em>a</em>]azepin-2(6<em>H</em>)-one, 9,10,11,11a-tetrahydro-, (6<em>S</em>,11a<em>R</em>,11b<em>S</em>)-;Securinine, (-)-;Securinine;Securinan-11-one;6,10-Methanopyrido[1,2-<em>a</em>]azepine-Δ<sup>9(6</sup><em><sup>H</sup></em><sup>),α</sup>-acetic acid, 1,2,3,4,10,10a-hexahydro-10-hydroxy-, γ-lactone;(6<em>S</em>,11a<em>R</em>,11b<em>S</em>)-9,10,11,11a-Tetrahydro-8<em>H</em>-6,11b-methanofuro[2,3-<em>c</em>]pyrido[1,2-<em>a</em>]azepin-2(6<em>H</em>)-one;Securinin;(-)-Securinine;<em>l</em>-Securinine;NSC 107413",
    "duplicated_cas_no": "780-62-1;13425-54-2",
    "SMILES": "O=C1O[C@@]23[C@@]4(N([C@@](C2)(C=CC3=C1)[H])CCCC4)[H]",
    "meta_data": {
        "InChI": "InChI=1S/C13H15NO2/c15-12-7-9-4-5-10-8-13(9,16-12)11-3-1-2-6-14(10)11/h4-5,7,10-11H,1-3,6,8H2/t10-,11-,13+/m1/s1",
        "InChIKey": null,
        "Canonical SMILES": "O=C1OC23C(C=CC(N4CCCCC42)C3)=C1",
        "Molecular Formula": "C<sub>13</sub>H<sub>15</sub>NO<sub>2</sub>",
        "Molecular Mass": "217.26",
        "Melting Point": "142-143 °C"
    }
}