{
    "cas_no": "10484-56-7",
    "key_name": "2-Butoxynaphthalene",
    "cn_name": "2-丁氧基萘;",
    "alternate_name": "Naphthalene, 2-butoxy-;2-Butoxynaphthalene;Fragarol;β-Naphthol butyl ether;Butyl β-naphthyl ether",
    "duplicated_cas_no": "",
    "SMILES": "O(CCCC)C1=CC2=C(C=C1)C=CC=C2",
    "meta_data": {
        "InChI": "InChI=1S/C14H16O/c1-2-3-10-15-14-9-8-12-6-4-5-7-13(12)11-14/h4-9,11H,2-3,10H2,1H3",
        "InChIKey": null,
        "Canonical SMILES": "O(C=1C=CC=2C=CC=CC2C1)CCCC",
        "Molecular Formula": "C<sub>14</sub>H<sub>16</sub>O",
        "Molecular Mass": "200.28",
        "Boiling Point": "147-150 °C @ Press: 4 Torr",
        "Melting Point": "31-33 °C"
    }
}