{
    "cas_no": "122-34-9",
    "key_name": "Simazine",
    "cn_name": "西玛津;西玛嗪;6-氯-N,N-二乙基-1,3,5-三嗪-2,4-二胺;2-氯-4,6-双(乙胺基)均三氮苯;",
    "alternate_name": "1,3,5-Triazine-2,4-diamine, 6-chloro-<em>N</em><sup>2</sup>,<em>N</em><sup>4</sup>-diethyl-;<em>s</em>-Triazine, 2-chloro-4,6-bis(ethylamino)-;1,3,5-Triazine-2,4-diamine, 6-chloro-<em>N</em>,<em>N</em>′-diethyl-;6-Chloro-<em>N</em><sup>2</sup>,<em>N</em><sup>4</sup>-diethyl-1,3,5-triazine-2,4-diamine;W 6658;G 27692;Geigy 27692;Aktinit S;2,4-Bis(ethylamino)-6-chloro-<em>s</em>-triazine;CDT;CET;2-Chloro-4,6-bis(ethylamino)-<em>s</em>-triazine;Herboxy;Hungazin DT;Simazin;Simazine;H 1803;Simazine 80W;Triazine A 384;2-Chloro-4,6-bis(ethylamino)-1,3,5-triazine;Herbex (pesticide);Tafazine 50W;Premazine;Radocon;Tafazine;Gesatop;Herbazin 50;Simazine 50;Herbazin;Radokor;Princep;Bitemol S 50;CAT (pesticide);Taphazine;Aquazine;Symazine;CAT;Gesatop 50;Herbex;Yrodazin;Simanex;4,6-Bis(ethylamino)-2-chlorotriazine;2-Chloro-4,6-bis(ethylamino)-<em>sym</em>-triazine;Herbatoxol S;Simatsin-neste;Gesatop D;Azotop;Batazina FLO;Simazin S 50;Simatox;2,4-Di(ethylamino)-6-chloro-1,3,5-triazine;NSC 25999;2-Chloro-4,6-di(ethylamino)triazine;6-Chloro-N<sup>2</sup>,N<sup>4</sup>-diethyl-1,3,5-triazine-2,4-diamine;Sim-Trol 4L;MeSH ID: D012839",
    "duplicated_cas_no": "119603-94-0;11141-20-1;12764-71-5;39291-64-0",
    "SMILES": "N(CC)C=1N=C(NCC)N=C(Cl)N1",
    "meta_data": {
        "InChI": "InChI=1S/C7H12ClN5/c1-3-9-6-11-5(8)12-7(13-6)10-4-2/h3-4H2,1-2H3,(H2,9,10,11,12,13)",
        "InChIKey": null,
        "Canonical SMILES": "ClC=1N=C(N=C(N1)NCC)NCC",
        "Molecular Formula": "C<sub>7</sub>H<sub>12</sub>ClN<sub>5</sub>",
        "Molecular Mass": "201.66",
        "Melting Point": "225-227 °C (decomp)",
        "Density": "1.33 g/cm³ @ Temp: 22 °C"
    }
}