{
    "cas_no": "21535-43-3",
    "key_name": "2-Chloro-<em>N</em>-[2-(phenylmethyl)phenyl]acetamide",
    "cn_name": "N-[2-(苯基甲基)苯基]-2-氯乙酰胺;",
    "alternate_name": "Acetamide, 2-chloro-<em>N</em>-[2-(phenylmethyl)phenyl]-;<em>o</em>-Acetotoluidide, 2-chloro-α-phenyl-;2-Chloro-<em>N</em>-[2-(phenylmethyl)phenyl]acetamide",
    "duplicated_cas_no": "",
    "SMILES": "C(C1=C(NC(CCl)=O)C=CC=C1)C2=CC=CC=C2",
    "meta_data": {
        "InChI": "InChI=1S/C15H14ClNO/c16-11-15(18)17-14-9-5-4-8-13(14)10-12-6-2-1-3-7-12/h1-9H,10-11H2,(H,17,18)",
        "InChIKey": null,
        "Canonical SMILES": "O=C(NC=1C=CC=CC1CC=2C=CC=CC2)CCl",
        "Molecular Formula": "C<sub>15</sub>H<sub>14</sub>ClNO",
        "Molecular Mass": "259.73",
        "Melting Point": "113-114 °C"
    }
}