{
    "cas_no": "4771-47-5",
    "key_name": "3-Chloro-2-nitrobenzoic acid",
    "cn_name": null,
    "alternate_name": "Benzoic acid, 3-chloro-2-nitro-;3-Chloro-2-nitrobenzoic acid;2-Nitro-3-chlorobenzoic acid",
    "duplicated_cas_no": "",
    "SMILES": "N(=O)(=O)C1=C(C(O)=O)C=CC=C1Cl",
    "meta_data": {
        "InChI": "InChI=1S/C7H4ClNO4/c8-5-3-1-2-4(7(10)11)6(5)9(12)13/h1-3H,(H,10,11)",
        "InChIKey": null,
        "Canonical SMILES": "O=C(O)C=1C=CC=C(Cl)C1N(=O)=O",
        "Molecular Formula": "C<sub>7</sub>H<sub>4</sub>ClNO<sub>4</sub>",
        "Molecular Mass": "201.56",
        "Melting Point": "238 °C"
    }
}