{
    "cas_no": "85979-49-3",
    "key_name": "4-(4-Fluorophenyl)-2-pyrimidinamine",
    "cn_name": null,
    "alternate_name": "2-Pyrimidinamine, 4-(4-fluorophenyl)-;4-(4-Fluorophenyl)-2-pyrimidinamine",
    "duplicated_cas_no": "",
    "SMILES": "NC=1N=C(C=CN1)C2=CC=C(F)C=C2",
    "meta_data": {
        "InChI": "InChI=1S/C10H8FN3/c11-8-3-1-7(2-4-8)9-5-6-13-10(12)14-9/h1-6H,(H2,12,13,14)",
        "InChIKey": null,
        "Canonical SMILES": "FC=1C=CC(=CC1)C2=NC(=NC=C2)N",
        "Molecular Formula": "C<sub>10</sub>H<sub>8</sub>FN<sub>3</sub>",
        "Molecular Mass": "189.19",
        "Melting Point": "166-167 °C"
    }
}