{
    "cas_no": "94-28-0",
    "key_name": "Eastman TEG-EH",
    "cn_name": "三乙二醇二异辛酸酯;三甘醇二异辛酸酯;三甘醇二-2-乙基己酸酯;",
    "alternate_name": "Hexanoic acid, 2-ethyl-, 1,1′-[1,2-ethanediylbis(oxy-2,1-ethanediyl)] ester;Hexanoic acid, 2-ethyl-, diester with triethylene glycol;Hexanoic acid, 2-ethyl-, 1,2-ethanediylbis(oxy-2,1-ethanediyl) ester;Triethylene glycol, bis(2-ethylhexanoate);Triethylene glycol di-2-ethylhexoate;Flexol 3GO;Triethylene glycol di(2-ethylhexanoate);3GO;Triethylene glycol bis(ethylhexanoate);S 2075;TegMeR 803;3G8;Triethylene glycol 2-ethylhexanoic acid diester (1:2);Solusolv 2075;WVC 3800;Triethylene glycol diisooctanoate;Oxsoft 3G8;Eastman TEG-EH;TEG-EH;3GEH;Proviplast 1783;Plasticizer 3GO;1,2-Bis-[2-(2-ethyl-hexanoyloxy)-ethoxy]-ethane;G 260 (plasticizer);G 260;Celanese PLX",
    "duplicated_cas_no": "1330-87-6;73513-61-8;1264485-21-3",
    "SMILES": "C(C(OCCOCCOCCOC(C(CCCC)CC)=O)=O)(CCCC)CC",
    "meta_data": {
        "InChI": "InChI=1S/C22H42O6/c1-5-9-11-19(7-3)21(23)27-17-15-25-13-14-26-16-18-28-22(24)20(8-4)12-10-6-2/h19-20H,5-18H2,1-4H3",
        "InChIKey": null,
        "Canonical SMILES": "O=C(OCCOCCOCCOC(=O)C(CC)CCCC)C(CC)CCCC",
        "Molecular Formula": "C<sub>22</sub>H<sub>42</sub>O<sub>6</sub>",
        "Molecular Mass": "402.57",
        "Boiling Point": "200-210 °C @ Press: 0.5 Torr"
    }
}