{
    "cas_no": "5004-07-9",
    "key_name": "4-(1-Pyrrolidinyl)piperidine",
    "cn_name": null,
    "alternate_name": "Piperidine, 4-(1-pyrrolidinyl)-;4-(1-Pyrrolidinyl)piperidine;4-Pyrrolidinopiperidine;4-(Pyrrolidinyl)piperidine;4-(1-Pyrrolidino)piperidine;1-(Piperidin-4-yl)pyrrolidine",
    "duplicated_cas_no": "",
    "SMILES": "N1(CCCC1)C2CCNCC2",
    "meta_data": {
        "InChI": "InChI=1S/C9H18N2/c1-2-8-11(7-1)9-3-5-10-6-4-9/h9-10H,1-8H2",
        "InChIKey": null,
        "Canonical SMILES": "N1CCC(N2CCCC2)CC1",
        "Molecular Formula": "C<sub>9</sub>H<sub>18</sub>N<sub>2</sub>",
        "Molecular Mass": "154.25",
        "Melting Point": "57-59 °C"
    }
}