{
    "cas_no": "6972-05-0",
    "key_name": "<em>N</em>,<em>N</em>-Dimethylthiourea",
    "cn_name": null,
    "alternate_name": "Thiourea, <em>N</em>,<em>N</em>-dimethyl-;Urea, 1,1-dimethyl-2-thio-;<em>N</em>,<em>N</em>-Dimethylthiourea;1,1-Dimethylthiourea;NSC 67246",
    "duplicated_cas_no": "",
    "SMILES": "C(N(C)C)(N)=S",
    "meta_data": {
        "InChI": "InChI=1S/C3H8N2S/c1-5(2)3(4)6/h1-2H3,(H2,4,6)",
        "InChIKey": null,
        "Canonical SMILES": "S=C(N)N(C)C",
        "Molecular Formula": "C<sub>3</sub>H<sub>8</sub>N<sub>2</sub>S",
        "Molecular Mass": "104.17",
        "Melting Point": "163-164 °C"
    }
}