{
    "cas_no": "21820-51-9",
    "key_name": "Phospho-<span class=\"text-smallcaps\">L</span>-tyrosine",
    "cn_name": "O-磷酸-L-酪氨酸;O-磷酸-L-酪氨酸;L-酪氨酸-L-磷酸酯；L-3-(4-羟苯基)丙氨酸-4-磷酸酯;",
    "alternate_name": "<span class=\"text-smallcaps\">L</span>-Tyrosine, <em>O</em>-phosphono-;Tyrosine, dihydrogen phosphate (ester), <span class=\"text-smallcaps\">L</span>-;<span class=\"text-smallcaps\">L</span>-Tyrosine, dihydrogen phosphate (ester);Tyrosine, di-H phosphate;Tyrosine, phosphate;<em>O</em>-Phosphono-<span class=\"text-smallcaps\">L</span>-tyrosine;Tyrosine <em>O</em>-phosphate;<em>O</em>-Phospho-<span class=\"text-smallcaps\">L</span>-tyrosine;<em>O</em>-Phosphotyrosine;Phosphotyrosine;<span class=\"text-smallcaps\">L</span>-Phosphotyrosine;Phospho-<span class=\"text-smallcaps\">L</span>-tyrosine;<span class=\"text-smallcaps\">L</span>-Tyrosine-<em>O</em>-phosphate;(2S)-2-Amino-3-(4-phosphonooxyphenyl)propanoic acid;Phosphonotyrosine",
    "duplicated_cas_no": "3387-80-2;21820-24-6",
    "SMILES": "O(P(=O)(O)O)C1=CC=C(C[C@@H](C(O)=O)N)C=C1",
    "meta_data": {
        "InChI": "InChI=1S/C9H12NO6P/c10-8(9(11)12)5-6-1-3-7(4-2-6)16-17(13,14)15/h1-4,8H,5,10H2,(H,11,12)(H2,13,14,15)/t8-/m0/s1",
        "InChIKey": null,
        "Canonical SMILES": "O=C(O)C(N)CC1=CC=C(OP(=O)(O)O)C=C1",
        "Molecular Formula": "C<sub>9</sub>H<sub>12</sub>NO<sub>6</sub>P",
        "Molecular Mass": "261.17",
        "Melting Point": "225 °C",
        "Density": "0.01380 mol/L"
    }
}