{
    "cas_no": "86060-94-8",
    "key_name": "<em>N</em>-[(9<em>H</em>-Fluoren-9-ylmethoxy)carbonyl]-<span class=\"text-smallcaps\">L</span>-methionine 2,3,4,5,6-pentafluorophenyl ester",
    "cn_name": "FMOC-L-蛋氨酸五氟苯基酯;",
    "alternate_name": "<span class=\"text-smallcaps\">L</span>-Methionine, <em>N</em>-[(9<em>H</em>-fluoren-9-ylmethoxy)carbonyl]-, 2,3,4,5,6-pentafluorophenyl ester;<span class=\"text-smallcaps\">L</span>-Methionine, <em>N</em>-[(9<em>H</em>-fluoren-9-ylmethoxy)carbonyl]-, pentafluorophenyl ester;<em>N</em>-[(9<em>H</em>-Fluoren-9-ylmethoxy)carbonyl]-<span class=\"text-smallcaps\">L</span>-methionine 2,3,4,5,6-pentafluorophenyl ester",
    "duplicated_cas_no": "",
    "SMILES": "C(OC(N[C@H](C(OC1=C(F)C(F)=C(F)C(F)=C1F)=O)CCSC)=O)C2C=3C(C=4C2=CC=CC4)=CC=CC3",
    "meta_data": {
        "InChI": "InChI=1S/C26H20F5NO4S/c1-37-11-10-18(25(33)36-24-22(30)20(28)19(27)21(29)23(24)31)32-26(34)35-12-17-15-8-4-2-6-13(15)14-7-3-5-9-16(14)17/h2-9,17-18H,10-12H2,1H3,(H,32,34)/t18-/m0/s1",
        "InChIKey": null,
        "Canonical SMILES": "O=C(OCC1C=2C=CC=CC2C=3C=CC=CC31)NC(C(=O)OC=4C(F)=C(F)C(F)=C(F)C4F)CCSC",
        "Molecular Formula": "C<sub>26</sub>H<sub>20</sub>F<sub>5</sub>NO<sub>4</sub>S",
        "Molecular Mass": "537.50",
        "Melting Point": "101-103 °C"
    }
}