{
    "cas_no": "1118-02-1",
    "key_name": "Trimethylsilyl isocyanate",
    "cn_name": "三甲基硅基异氰酸酯;三甲基硅基异氰酸酯;",
    "alternate_name": "Silane, isocyanatotrimethyl-;Isocyanatotrimethylsilane;Trimethylsilyl isocyanate;Isocyanic acid, trimethylsilyl ester;Trimethylisocyanatosilane;Orgatix SI 130;Trimethysilyl isocyanate",
    "duplicated_cas_no": "",
    "SMILES": "N([Si](C)(C)C)=C=O",
    "meta_data": {
        "InChI": "InChI=1S/C4H9NOSi/c1-7(2,3)5-4-6/h1-3H3",
        "InChIKey": null,
        "Canonical SMILES": "O=C=N[Si](C)(C)C",
        "Molecular Formula": "C<sub>4</sub>H<sub>9</sub>NOSi",
        "Molecular Mass": "115.21",
        "Boiling Point": "91 °C",
        "Melting Point": "12.0-12.5 °C",
        "Density": "0.867 g/cm³"
    }
}