{
    "cas_no": "17042-40-9",
    "key_name": "α-<span class=\"text-smallcaps\">D</span>-Mannopyranoside, 4-methoxyphenyl, 2,3,4,6-tetraacetate",
    "cn_name": "4-甲氧苯基-2,3,4,6-四-O-乙酰基-α-D-吡喃甘露糖苷;",
    "alternate_name": "α-<span class=\"text-smallcaps\">D</span>-Mannopyranoside, 4-methoxyphenyl, 2,3,4,6-tetraacetate;Mannopyranoside, <em>p</em>-methoxyphenyl, tetraacetate, α-<span class=\"text-smallcaps\">D</span>-;α-<span class=\"text-smallcaps\">D</span>-Mannopyranoside, 4-methoxyphenyl, tetraacetate",
    "duplicated_cas_no": "",
    "SMILES": "O(C(C)=O)[C@@H]1[C@H](OC(C)=O)[C@@H](OC2=CC=C(OC)C=C2)O[C@H](COC(C)=O)[C@H]1OC(C)=O",
    "meta_data": {
        "InChI": "InChI=1S/C21H26O11/c1-11(22)27-10-17-18(28-12(2)23)19(29-13(3)24)20(30-14(4)25)21(32-17)31-16-8-6-15(26-5)7-9-16/h6-9,17-21H,10H2,1-5H3/t17-,18-,19+,20+,21+/m1/s1",
        "InChIKey": null,
        "Canonical SMILES": "O=C(OCC1OC(OC2=CC=C(OC)C=C2)C(OC(=O)C)C(OC(=O)C)C1OC(=O)C)C",
        "Molecular Formula": "C<sub>21</sub>H<sub>26</sub>O<sub>11</sub>",
        "Molecular Mass": "454.42",
        "Melting Point": "101-103 °C"
    }
}