{
    "cas_no": "646-14-0",
    "key_name": "1-Nitrohexane",
    "cn_name": null,
    "alternate_name": "Hexane, 1-nitro-;1-Nitrohexane",
    "duplicated_cas_no": "",
    "SMILES": "C(CN(=O)=O)CCCC",
    "meta_data": {
        "InChI": "InChI=1S/C6H13NO2/c1-2-3-4-5-6-7(8)9/h2-6H2,1H3",
        "InChIKey": null,
        "Canonical SMILES": "O=N(=O)CCCCCC",
        "Molecular Formula": "C<sub>6</sub>H<sub>13</sub>NO<sub>2</sub>",
        "Molecular Mass": "131.17",
        "Boiling Point": "193 °C",
        "Density": "0.9269 g/cm³ @ Temp: 25 °C"
    }
}