{
    "cas_no": "64291-41-4",
    "key_name": "β-<span class=\"text-smallcaps\">D</span>-Glucopyranoside, 4-(hydroxymethyl)phenyl, 2,3,4,6-tetraacetate",
    "cn_name": null,
    "alternate_name": "β-<span class=\"text-smallcaps\">D</span>-Glucopyranoside, 4-(hydroxymethyl)phenyl, 2,3,4,6-tetraacetate;Acetagastrodine;Acetagastrodin",
    "duplicated_cas_no": "105054-56-6",
    "SMILES": "O(C(C)=O)[C@@H]1[C@@H](OC(C)=O)[C@H](OC2=CC=C(CO)C=C2)O[C@H](COC(C)=O)[C@H]1OC(C)=O",
    "meta_data": {
        "InChI": "InChI=1S/C21H26O11/c1-11(23)27-10-17-18(28-12(2)24)19(29-13(3)25)20(30-14(4)26)21(32-17)31-16-7-5-15(9-22)6-8-16/h5-8,17-22H,9-10H2,1-4H3/t17-,18-,19+,20-,21-/m1/s1",
        "InChIKey": null,
        "Canonical SMILES": "O=C(OCC1OC(OC2=CC=C(C=C2)CO)C(OC(=O)C)C(OC(=O)C)C1OC(=O)C)C",
        "Molecular Formula": "C<sub>21</sub>H<sub>26</sub>O<sub>11</sub>",
        "Molecular Mass": "454.42",
        "Melting Point": "170-171 °C"
    }
}