{
    "cas_no": "355-93-1",
    "key_name": "2,2,3,3,4,4,5,5-Octafluoropentyl methacrylate",
    "cn_name": "甲基丙烯酸八氟戊酯;2,2,3,3,4,4,5,5-八氟戊基甲基丙烯酸盐;",
    "alternate_name": "2-Propenoic acid, 2-methyl-, 2,2,3,3,4,4,5,5-octafluoropentyl ester;Methacrylic acid, 2,2,3,3,4,4,5,5-octafluoropentyl ester;2,2,3,3,4,4,5,5-Octafluoropentyl methacrylate;α,α,ω-Trihydroperfluoroamyl methacrylate;1<em>H</em>,1<em>H</em>,5<em>H</em>-Octafluoropentyl methacrylate;Viscoat 8FM;2,2,3,3,4,4,5,5-Octafluoroamyl methacrylate;1,1,5-Trihydroperfluoroamyl methacrylate;1,1,5-Trihydrooctafluoroamyl methacrylate;M 5410;V 8FM;1<em>H</em>,1<em>H</em>,5<em>H</em>-Perfluoropentyl methacrylate;2,2,3,3,4,4,5,5-Octafluoropentyl 2-methylprop-2-enoate;2,2,3,3,4,4,5,5-Octafluoro-1-pentyl methacrylate",
    "duplicated_cas_no": "105656-38-0",
    "SMILES": "C(C(COC(C(C)=C)=O)(F)F)(C(C(F)F)(F)F)(F)F",
    "meta_data": {
        "InChI": "InChI=1S/C9H8F8O2/c1-4(2)5(18)19-3-7(12,13)9(16,17)8(14,15)6(10)11/h6H,1,3H2,2H3",
        "InChIKey": null,
        "Canonical SMILES": "O=C(OCC(F)(F)C(F)(F)C(F)(F)C(F)F)C(=C)C",
        "Molecular Formula": "C<sub>9</sub>H<sub>8</sub>F<sub>8</sub>O<sub>2</sub>",
        "Molecular Mass": "300.15",
        "Boiling Point": "87 °C @ Press: 40 Torr",
        "Density": "1.2576 g/cm³ @ Temp: 20 °C"
    }
}