{
    "cas_no": "26583-60-8",
    "key_name": "2-(2-Methylphenoxy)ethanamine",
    "cn_name": null,
    "alternate_name": "Ethanamine, 2-(2-methylphenoxy)-;Ethylamine, 2-(<em>o</em>-tolyloxy)-;2-(2-Methylphenoxy)ethanamine;2-(2-Methylphenoxy)ethylamine;2-<em>o</em>-Tolyloxy-ethylamine;2-(2-Methylphenoxy)ethan-1-amine",
    "duplicated_cas_no": "",
    "SMILES": "O(CCN)C1=C(C)C=CC=C1",
    "meta_data": {
        "InChI": "InChI=1S/C9H13NO/c1-8-4-2-3-5-9(8)11-7-6-10/h2-5H,6-7,10H2,1H3",
        "InChIKey": null,
        "Canonical SMILES": "O(C=1C=CC=CC1C)CCN",
        "Molecular Formula": "C<sub>9</sub>H<sub>13</sub>NO",
        "Molecular Mass": "151.21",
        "Boiling Point": "128 °C @ Press: 19 Torr"
    }
}