{
    "cas_no": "2746-25-0",
    "key_name": "4-Methoxybenzyl bromide",
    "cn_name": "4-甲氧基溴苄;",
    "alternate_name": "Benzene, 1-(bromomethyl)-4-methoxy-;Anisole, <em>p</em>-(bromomethyl)-;1-(Bromomethyl)-4-methoxybenzene;<em>p</em>-Methoxybenzyl bromide;(4-Methoxyphenyl)methyl bromide;<em>p</em>-(Bromomethyl)anisole;4-(Bromomethyl)anisole;4-Methoxybenzyl bromide;4-Methoxy-1-(bromomethyl)benzene;1,4-Methoxybromomethylbenzene;(4-Bromomethylphenoxy)methane;Methyl <em>p</em>-Bromomethylphenyl ether",
    "duplicated_cas_no": "",
    "SMILES": "C(Br)C1=CC=C(OC)C=C1",
    "meta_data": {
        "InChI": "InChI=1S/C8H9BrO/c1-10-8-4-2-7(6-9)3-5-8/h2-5H,6H2,1H3",
        "InChIKey": null,
        "Canonical SMILES": "BrCC1=CC=C(OC)C=C1",
        "Molecular Formula": "C<sub>8</sub>H<sub>9</sub>BrO",
        "Molecular Mass": "201.06",
        "Boiling Point": "129 °C @ Press: 6 Torr",
        "Melting Point": "240 °C",
        "Density": "1.395 g/cm³ @ Temp: 19 °C"
    }
}