{
    "cas_no": "4210-32-6",
    "key_name": "4-(1,1-Dimethylethyl)benzonitrile",
    "cn_name": "4-叔丁基苄腈;对叔丁基苯甲腈;",
    "alternate_name": "Benzonitrile, 4-(1,1-dimethylethyl)-;Benzonitrile, <em>p</em>-<em>tert</em>-butyl-;4-(1,1-Dimethylethyl)benzonitrile;<em>p</em>-<em>tert</em>-Butylbenzonitrile;4-<em>tert</em>-Butylbenzonitrile;1-Cyano-4-(<em>tert</em>-butyl)benzene",
    "duplicated_cas_no": "",
    "SMILES": "C(C)(C)(C)C1=CC=C(C#N)C=C1",
    "meta_data": {
        "InChI": "InChI=1S/C11H13N/c1-11(2,3)10-6-4-9(8-12)5-7-10/h4-7H,1-3H3",
        "InChIKey": null,
        "Canonical SMILES": "N#CC1=CC=C(C=C1)C(C)(C)C",
        "Molecular Formula": "C<sub>11</sub>H<sub>13</sub>N",
        "Molecular Mass": "159.23",
        "Boiling Point": "126 °C @ Press: 14 Torr",
        "Melting Point": "12-14 °C",
        "Density": "0.9492 g/cm³ @ Temp: 20 °C"
    }
}