{
    "cas_no": "54401-85-3",
    "key_name": "Ethyl 4-pyridineacetate",
    "cn_name": "4-吡啶乙酸乙酯;4-吡啶乙酸乙酯;",
    "alternate_name": "4-Pyridineacetic acid, ethyl ester;Ethyl 4-pyridineacetate;Ethyl 4-pyridylacetate;Ethyl 4-pyridinylacetate;2-(Pyridin-4-yl)ethanoic acid ethyl ester;Ethyl 2-(4-pyridinyl)acetate;2-(4-Pyridyl)acetic acid ethyl ester;Ethyl 2-(4-pyridyl)acetate;(Pyridin-4-yl)acetic acid ethyl ester;(4-Pyridyl)acetic acid ethyl ester",
    "duplicated_cas_no": "",
    "SMILES": "C(C(OCC)=O)C=1C=CN=CC1",
    "meta_data": {
        "InChI": "InChI=1S/C9H11NO2/c1-2-12-9(11)7-8-3-5-10-6-4-8/h3-6H,2,7H2,1H3",
        "InChIKey": null,
        "Canonical SMILES": "O=C(OCC)CC=1C=CN=CC1",
        "Molecular Formula": "C<sub>9</sub>H<sub>11</sub>NO<sub>2</sub>",
        "Molecular Mass": "165.19",
        "Boiling Point": "107-108 °C @ Press: 3 Torr",
        "Melting Point": "18-19 °C"
    }
}