{
    "cas_no": "583-19-7",
    "key_name": "1-Bromo-2-ethoxybenzene",
    "cn_name": "邻溴苯乙醚;",
    "alternate_name": "Benzene, 1-bromo-2-ethoxy-;Phenetole, <em>o</em>-bromo-;1-Bromo-2-ethoxybenzene;<em>o</em>-Ethoxybromobenzene;<em>o</em>-Bromophenetole;2-Ethoxyphenyl bromide;<em>o</em>-Ethoxyphenyl bromide;2-Ethoxybromobenzene;NSC 8054;2-Bromo-1-ethoxybenzene;<em>o</em>-Bromoethoxybenzene",
    "duplicated_cas_no": "",
    "SMILES": "O(CC)C1=C(Br)C=CC=C1",
    "meta_data": {
        "InChI": "InChI=1S/C8H9BrO/c1-2-10-8-6-4-3-5-7(8)9/h3-6H,2H2,1H3",
        "InChIKey": null,
        "Canonical SMILES": "BrC=1C=CC=CC1OCC",
        "Molecular Formula": "C<sub>8</sub>H<sub>9</sub>BrO",
        "Molecular Mass": "201.06",
        "Boiling Point": "221-224 °C",
        "Melting Point": "201-202 °C"
    }
}