{
    "cas_no": "53109-32-3",
    "key_name": "Histidylproline diketopiperazine",
    "cn_name": null,
    "alternate_name": "Pyrrolo[1,2-<em>a</em>]pyrazine-1,4-dione, hexahydro-3-(1<em>H</em>-imidazol-4-ylmethyl)-, (3<em>S</em>,8a<em>S</em>)-;Pyrrolo[1,2-<em>a</em>]pyrazine-1,4-dione, hexahydro-3-(1<em>H</em>-imidazol-4-ylmethyl)-, (3<em>S</em>-<em>trans</em>)-;(3<em>S</em>,8a<em>S</em>)-Hexahydro-3-(1<em>H</em>-imidazol-4-ylmethyl)pyrrolo[1,2-<em>a</em>]pyrazine-1,4-dione;Histidylproline diketopiperazine;Cyclo(histidyl-proline);Histidylproline dioxopiperazine;Cyclo(<span class=\"text-smallcaps\">L</smallcap>-histidyl-<smallcap>L</span>-proline);Cyclo(prolylhistidine)",
    "duplicated_cas_no": "96887-26-2;102937-72-4",
    "SMILES": "O=C1N2[C@](C(=O)N[C@H]1CC3=CN=CN3)(CCC2)[H]",
    "meta_data": {
        "InChI": "InChI=1S/C11H14N4O2/c16-10-9-2-1-3-15(9)11(17)8(14-10)4-7-5-12-6-13-7/h5-6,8-9H,1-4H2,(H,12,13)(H,14,16)/t8-,9-/m0/s1",
        "InChIKey": null,
        "Canonical SMILES": "O=C1NC(C(=O)N2CCCC12)CC3=CN=CN3",
        "Molecular Formula": "C<sub>11</sub>H<sub>14</sub>N<sub>4</sub>O<sub>2</sub>",
        "Molecular Mass": "234.25",
        "Melting Point": "162-164 °C"
    }
}