{
    "cas_no": "1188-21-2",
    "key_name": "<em>N</em>-Acetyl-<span class=\"text-smallcaps\">L</span>-leucine",
    "cn_name": "N-乙酰基-L-亮氨酸;",
    "alternate_name": "<span class=\"text-smallcaps\">L</span>-Leucine, <em>N</em>-acetyl-;Leucine, <em>N</em>-acetyl-, <span class=\"text-smallcaps\">L</span>-;<em>N</em>-Acetyl-<span class=\"text-smallcaps\">L</span>-leucine;<em>N</em>-Acetylleucine;Acetyl-<span class=\"text-smallcaps\">L</span>-leucine;<em>N</em>-Acetyl-<span class=\"text-smallcaps\">L</span>-(-)-leucine;Acetylleucine;NSC 206316;(<em>S</em>)-2-Acetamido-4-methylpentanoic acid;(-)-<em>N</em>-Acetyl-<span class=\"text-smallcaps\">L</span>-leucine;(2S)-2-Acetamido-4-methylpentanoic acid",
    "duplicated_cas_no": "24160-46-1;90243-88-2",
    "SMILES": "[C@@H](CC(C)C)(NC(C)=O)C(O)=O",
    "meta_data": {
        "InChI": "InChI=1S/C8H15NO3/c1-5(2)4-7(8(11)12)9-6(3)10/h5,7H,4H2,1-3H3,(H,9,10)(H,11,12)/t7-/m0/s1",
        "InChIKey": null,
        "Canonical SMILES": "O=C(NC(C(=O)O)CC(C)C)C",
        "Molecular Formula": "C<sub>8</sub>H<sub>15</sub>NO<sub>3</sub>",
        "Molecular Mass": "173.21",
        "Melting Point": "189-190 °C"
    }
}