{
    "cas_no": "5813-64-9",
    "key_name": "Neopentylamine",
    "cn_name": "特戊胺;新戊胺;",
    "alternate_name": "1-Propanamine, 2,2-dimethyl-;Neopentylamine;2,2-Dimethyl-1-propanamine;2,2-Dimethylpropylamine;2,2-Dimethylpropanamine;2,2-Dimethyl-1-propylamine;1-Amino-2,2-dimethylpropane;NSC 165660",
    "duplicated_cas_no": "",
    "SMILES": "C(CN)(C)(C)C",
    "meta_data": {
        "InChI": "InChI=1S/C5H13N/c1-5(2,3)4-6/h4,6H2,1-3H3",
        "InChIKey": null,
        "Canonical SMILES": "NCC(C)(C)C",
        "Molecular Formula": "C<sub>5</sub>H<sub>13</sub>N",
        "Molecular Mass": "87.16",
        "Boiling Point": "82 °C",
        "Density": "0.7455 g/cm³ @ Temp: 20 °C"
    }
}