{
    "cas_no": "122-01-0",
    "key_name": "4-Chlorobenzoyl chloride",
    "cn_name": "4-氯苯甲酰氯;对氯苯甲酰氯;",
    "alternate_name": "Benzoyl chloride, 4-chloro-;Benzoyl chloride, <em>p</em>-chloro-;4-Chlorobenzoyl chloride;<em>p</em>-Chlorobenzoyl chloride;4-Chlorobenzoic acid chloride;<em>para</em>-Chlorobenzoyl chloride",
    "duplicated_cas_no": "1350454-33-9",
    "SMILES": "C(Cl)(=O)C1=CC=C(Cl)C=C1",
    "meta_data": {
        "InChI": "InChI=1S/C7H4Cl2O/c8-6-3-1-5(2-4-6)7(9)10/h1-4H",
        "InChIKey": null,
        "Canonical SMILES": "O=C(Cl)C1=CC=C(Cl)C=C1",
        "Molecular Formula": "C<sub>7</sub>H<sub>4</sub>Cl<sub>2</sub>O",
        "Molecular Mass": "175.01",
        "Boiling Point": "222 °C",
        "Melting Point": "16 °C"
    }
}