{
    "cas_no": "498-21-5",
    "key_name": "Methylsuccinic acid",
    "cn_name": "甲基丁二酸;",
    "alternate_name": "Butanedioic acid, 2-methyl-;Succinic acid, methyl-;Pyrotartaric acid;Butanedioic acid, methyl-;2-Methylbutanedioic acid;1,2-Propanedicarboxylic acid;Methylsuccinic acid;2-Methylsuccinic acid;Methylbutanedioic acid;<span class=\"text-smallcaps\">DL</span>-α-Methylsuccinic acid;<span class=\"text-smallcaps\">DL</span>-Methylsuccinic acid;(±)-Methylsuccinic acid;<span class=\"text-smallcaps\">DL</span>-Methylbutanedioic acid;<em>R</em>,<em>S</em>-2-Methylbutanedioic acid;(±)-α-Methylsuccinic acid;(±)-2-Methylsuccinic acid;2-Methylbutane-1,4-dioic acid;NSC 5276",
    "duplicated_cas_no": "636-60-2",
    "SMILES": "C(CC(O)=O)(C(O)=O)C",
    "meta_data": {
        "InChI": "InChI=1S/C5H8O4/c1-3(5(8)9)2-4(6)7/h3H,2H2,1H3,(H,6,7)(H,8,9)",
        "InChIKey": null,
        "Canonical SMILES": "O=C(O)CC(C(=O)O)C",
        "Molecular Formula": "C<sub>5</sub>H<sub>8</sub>O<sub>4</sub>",
        "Molecular Mass": "132.11",
        "Boiling Point": "102-106 °C @ Press: 12 Torr",
        "Melting Point": "117.5 °C",
        "Density": "1.4779 g/cm³"
    }
}