{
    "cas_no": "367-12-4",
    "key_name": "2-Fluorophenol",
    "cn_name": "2-氟苯酚;邻氟苯酚;",
    "alternate_name": "Phenol, 2-fluoro-;Phenol, <em>o</em>-fluoro-;2-Fluorophenol;<em>o</em>-Fluorophenol;1-Fluoro-2-hydroxybenzene;NSC 10294",
    "duplicated_cas_no": "811801-34-0",
    "SMILES": "FC1=C(O)C=CC=C1",
    "meta_data": {
        "InChI": "InChI=1S/C6H5FO/c7-5-3-1-2-4-6(5)8/h1-4,8H",
        "InChIKey": null,
        "Canonical SMILES": "FC=1C=CC=CC1O",
        "Molecular Formula": "C<sub>6</sub>H<sub>5</sub>FO",
        "Molecular Mass": "112.10",
        "Boiling Point": "151.5 °C",
        "Melting Point": "16.1 °C"
    }
}