{
    "cas_no": "871726-73-7",
    "key_name": "1,1-Dimethylethyl 1,4,5,7-tetrahydro-6<em>H</em>-pyrazolo[3,4-<em>c</em>]pyridine-6-carboxylate",
    "cn_name": null,
    "alternate_name": "6<em>H</em>-Pyrazolo[3,4-<em>c</em>]pyridine-6-carboxylic acid, 1,4,5,7-tetrahydro-, 1,1-dimethylethyl ester;1,1-Dimethylethyl 1,4,5,7-tetrahydro-6<em>H</em>-pyrazolo[3,4-<em>c</em>]pyridine-6-carboxylate;<em>tert</em>-Butyl 1,4,5,7-tetrahydro-6<em>H</em>-pyrazolo[3,4-<em>c</em>]pyridine-6-carboxylate",
    "duplicated_cas_no": "",
    "SMILES": "C(OC(C)(C)C)(=O)N1CC2=C(CC1)C=NN2",
    "meta_data": {
        "InChI": "InChI=1S/C11H17N3O2/c1-11(2,3)16-10(15)14-5-4-8-6-12-13-9(8)7-14/h6H,4-5,7H2,1-3H3,(H,12,13)",
        "InChIKey": null,
        "Canonical SMILES": "O=C(OC(C)(C)C)N1CC=2NN=CC2CC1",
        "Molecular Formula": "C<sub>11</sub>H<sub>17</sub>N<sub>3</sub>O<sub>2</sub>",
        "Molecular Mass": "223.27",
        "Melting Point": "74-75 °C"
    }
}