{
    "cas_no": "23132-52-7",
    "key_name": "1-(1,1-Dimethylethyl)-3-nitrobenzene",
    "cn_name": null,
    "alternate_name": "Benzene, 1-(1,1-dimethylethyl)-3-nitro-;Benzene, 1-<em>tert</em>-butyl-3-nitro-;1-(1,1-Dimethylethyl)-3-nitrobenzene;<em>m</em>-<em>tert</em>-Butylnitrobenzene;1-<em>tert</em>-Butyl-3-nitrobenzene;<em>m</em>-Nitro-<em>tert</em>-butylbenzene",
    "duplicated_cas_no": "",
    "SMILES": "C(C)(C)(C)C1=CC(N(=O)=O)=CC=C1",
    "meta_data": {
        "InChI": "InChI=1S/C10H13NO2/c1-10(2,3)8-5-4-6-9(7-8)11(12)13/h4-7H,1-3H3",
        "InChIKey": null,
        "Canonical SMILES": "O=N(=O)C1=CC=CC(=C1)C(C)(C)C",
        "Molecular Formula": "C<sub>10</sub>H<sub>13</sub>NO<sub>2</sub>",
        "Molecular Mass": "179.22",
        "Boiling Point": "254 °C",
        "Melting Point": "2 °C",
        "Density": "1.0645 g/cm³ @ Temp: 25 °C"
    }
}