{
    "cas_no": "13078-04-1",
    "key_name": "(±)-Anabasine",
    "cn_name": "DL-八角枫碱;(±)-毒藜碱;",
    "alternate_name": "Pyridine, 3-(2-piperidinyl)-;Anabasine, (±)-;Pyridine, 3-(2-piperidinyl)-, (±)-;Piperidine, 2-(3-pyridyl)-;3-(2-Piperidinyl)pyridine;(±)-Anabasine;<span class=\"text-smallcaps\">DL</span>-Anabasine;2-(3-Pyridyl)piperidine;3-(2-Piperidyl)pyridine;1,2,3,4,5,6-Hexahydro-[2,3′]bipyridinyl;3-(Piperidin-2-yl)pyridine;2-(Pyridin-3-yl)piperidine;Rac-anabasine",
    "duplicated_cas_no": "40774-73-0",
    "SMILES": "C=1(C=CC=NC1)C2CCCCN2",
    "meta_data": {
        "InChI": "InChI=1S/C10H14N2/c1-2-7-12-10(5-1)9-4-3-6-11-8-9/h3-4,6,8,10,12H,1-2,5,7H2",
        "InChIKey": null,
        "Canonical SMILES": "N=1C=CC=C(C1)C2NCCCC2",
        "Molecular Formula": "C<sub>10</sub>H<sub>14</sub>N<sub>2</sub>",
        "Molecular Mass": "162.23",
        "Boiling Point": "104-105 °C @ Press: 2 Torr",
        "Melting Point": "92-95 °C (decomp)",
        "Density": "1.0455 g/cm³ @ Temp: 20 °C"
    }
}