{
    "cas_no": "4779-94-6",
    "key_name": "Benzenemethanol, α-(aminomethyl)-3-hydroxy-, hydrochloride (1:1)",
    "cn_name": "盐酸去甲苯福林;",
    "alternate_name": "Benzenemethanol, α-(aminomethyl)-3-hydroxy-, hydrochloride (1:1);Benzyl alcohol, α-(aminomethyl)-<em>m</em>-hydroxy-, hydrochloride;Benzenemethanol, α-(aminomethyl)-3-hydroxy-, hydrochloride;Norfenefrin;Norphenephrine hydrochloride;Norphenylephrine hydrochloride;1-(<em>m</em>-Hydroxyphenyl)-2-aminoethanol hydrochloride;2-Amino-1-(3-hydroxyphenyl)ethanol hydrochloride;<em>m</em>-Octopamine hydrochloride;α-(Aminomethyl)-<em>m</em>-hydroxybenzyl alcohol hydrochloride;Norfenefrine hydrochloride;Zondel;(±)-Norphenylephrine hydrochloride;Novadral;<span class=\"text-smallcaps\">DL</span>-<em>m</em>-Octopamine hydrochloride;(±)-<em>m</em>-Octopamine hydrochloride;Stagural;<em>dl</em>-Norfenefrine hydrochloride;Energona;Tonolift;Coritat;WV 569;Depot-Novadral;Vingsal;Esbuphon;Molycor R;NSC 100733;NSC 297582",
    "duplicated_cas_no": "15308-34-6",
    "SMILES": "C(CN)(O)C1=CC(O)=CC=C1.Cl",
    "meta_data": {
        "InChI": "InChI=1S/C8H11NO2.ClH/c9-5-8(11)6-2-1-3-7(10)4-6;/h1-4,8,10-11H,5,9H2;1H",
        "InChIKey": null,
        "Canonical SMILES": "Cl.OC1=CC=CC(=C1)C(O)CN",
        "Molecular Formula": "C<sub>8</sub>H<sub>11</sub>NO<sub>2</sub>.ClH",
        "Molecular Mass": "",
        "Melting Point": "159-160 °C"
    }
}