{
    "cas_no": "838-88-0",
    "key_name": "4,4′-Diamino-3,3′-dimethyldiphenylmethane",
    "cn_name": "4,4\"-二氨基-3,3\"-二甲基二苯甲烷;3.3\"-二甲基-4.4\"二氨基二苯甲烷;",
    "alternate_name": "Benzenamine, 4,4′-methylenebis[2-methyl-;<em>o</em>-Toluidine, 4,4′-methylenedi-;4,4′-Methylenebis[2-methylbenzenamine];3,3′-Dimethyl-4,4′-diaminodiphenylmethane;2,2′-Dimethyl-4,4′-methylenedianiline;4,4′-Diamino-3,3′-dimethyldiphenylmethane;4,4′-Methylenedi-<em>o</em>-toluidine;Bis(3-methyl-4-aminophenyl)methane;4,4′-Methylenebis[2-methylaniline];Kayahard MDT;4,4′-Methylenebis(<em>o</em>-toluidine);Kayabond C 100;Di(3-methyl-4-aminophenyl)methane;4,4′-Amino-3,3′-dimethyldiphenylmethane;NSC 37146;Bis(4-amino-3-methylphenyl)methane",
    "duplicated_cas_no": "54649-88-6",
    "SMILES": "C(C1=CC(C)=C(N)C=C1)C2=CC(C)=C(N)C=C2",
    "meta_data": {
        "InChI": "InChI=1S/C15H18N2/c1-10-7-12(3-5-14(10)16)9-13-4-6-15(17)11(2)8-13/h3-8H,9,16-17H2,1-2H3",
        "InChIKey": null,
        "Canonical SMILES": "NC1=CC=C(C=C1C)CC2=CC=C(N)C(=C2)C",
        "Molecular Formula": "C<sub>15</sub>H<sub>18</sub>N<sub>2</sub>",
        "Molecular Mass": "226.32",
        "Melting Point": "158 °C"
    }
}