{
    "cas_no": "17496-14-9",
    "key_name": "2-Methyl-1-indanone",
    "cn_name": "2-甲基茚满-1-酮;",
    "alternate_name": "1<em>H</em>-Inden-1-one, 2,3-dihydro-2-methyl-;1-Indanone, 2-methyl-;2,3-Dihydro-2-methyl-1<em>H</em>-inden-1-one;2-Methylindanone;2-Methyl-1-indanone;2-Methyl-2,3-dihydro-1<em>H</em>-inden-1-one;NSC 67345;(±)-2-Methyl-1-indanone;2-Methyl-2,3-dihydro-1-indenone",
    "duplicated_cas_no": "107298-30-6",
    "SMILES": "O=C1C=2C(CC1C)=CC=CC2",
    "meta_data": {
        "InChI": "InChI=1S/C10H10O/c1-7-6-8-4-2-3-5-9(8)10(7)11/h2-5,7H,6H2,1H3",
        "InChIKey": null,
        "Canonical SMILES": "O=C1C=2C=CC=CC2CC1C",
        "Molecular Formula": "C<sub>10</sub>H<sub>10</sub>O",
        "Molecular Mass": "146.19",
        "Boiling Point": "119-120 °C @ Press: 16 Torr",
        "Melting Point": "47-47.5 °C",
        "Density": "1.064 g/cm³ @ Temp: 20 °C"
    }
}