{
    "cas_no": "1071-93-8",
    "key_name": "Adipic dihydrazide",
    "cn_name": "己二酸二酰肼;",
    "alternate_name": "Hexanedioic acid, 1,6-dihydrazide;Adipic acid, dihydrazide;Hexanedioic acid, dihydrazide;Adipic dihydrazide;Adipoyl hydrazide;ADH;Adipoyl dihydrazide;Adipoyldihydrazine;Qualimer ADH;BT 1000Z;BK 1000Z;NSC 29542;NSC 3378;ADH 4S;ADH (hydrazide);ADH-J;ADH-S;T 2210;Ajicure ADH;Adipic acid dihydrazide;Technicure ADH;Epicure PD 797;BCA-ADH;Technicure ADH-J",
    "duplicated_cas_no": "98152-55-7;124246-54-4;2978502-78-0",
    "SMILES": "C(CCCC(NN)=O)C(NN)=O",
    "meta_data": {
        "InChI": "InChI=1S/C6H14N4O2/c7-9-5(11)3-1-2-4-6(12)10-8/h1-4,7-8H2,(H,9,11)(H,10,12)",
        "InChIKey": null,
        "Canonical SMILES": "O=C(NN)CCCCC(=O)NN",
        "Molecular Formula": "C<sub>6</sub>H<sub>14</sub>N<sub>4</sub>O<sub>2</sub>",
        "Molecular Mass": "174.20",
        "Melting Point": "171 °C"
    }
}