{
    "cas_no": "10563-29-8",
    "key_name": "Dimethyldipropylenetriamine",
    "cn_name": "3-十二烷氧基丙胺;N’-(3-氨丙基)-N,N-二甲基-1,3-丙二胺;二甲基二丙烯三胺;",
    "alternate_name": "1,3-Propanediamine, <em>N</em><sup>3</sup>-(3-aminopropyl)-<em>N</em><sup>1</sup>,<em>N</em><sup>1</sup>-dimethyl-;Dipropylamine, 3-amino-3′-(dimethylamino)-;1,3-Propanediamine, <em>N</em>′-(3-aminopropyl)-<em>N</em>,<em>N</em>-dimethyl-;<em>N</em><sup>3</sup>-(3-Aminopropyl)-<em>N</em><sup>1</sup>,<em>N</em><sup>1</sup>-dimethyl-1,3-propanediamine;<em>N</em>,<em>N</em>-Dimethyl-<em>N</em>′-(γ-aminopropyl)trimethylenediamine;<em>N</em>-(3′-Dimethylaminopropyl)-1,3-diaminopropane;1-Amino-7-(dimethylamino)-4-azaheptane;<em>N</em>,<em>N</em>-Dimethyldipropylenetriamine;Araldite 2011B;Dimethyldipropylenetriamine;DMAPAPA;3-[[3-(Dimethylamino)propyl]amino]propylamine;(3-Aminopropyl)[3-(dimethylamino)propyl]amine;[3-[(3-Aminopropyl)amino]propyl]dimethylamine",
    "duplicated_cas_no": "",
    "SMILES": "C(NCCCN)CCN(C)C",
    "meta_data": {
        "InChI": "InChI=1S/C8H21N3/c1-11(2)8-4-7-10-6-3-5-9/h10H,3-9H2,1-2H3",
        "InChIKey": null,
        "Canonical SMILES": "NCCCNCCCN(C)C",
        "Molecular Formula": "C<sub>8</sub>H<sub>21</sub>N<sub>3</sub>",
        "Molecular Mass": "159.27",
        "Boiling Point": "67 °C @ Press: 0.1 Torr"
    }
}