{
    "cas_no": "14543-45-4",
    "key_name": "4-Amino-3-mercaptobenzoic acid",
    "cn_name": null,
    "alternate_name": "Benzoic acid, 4-amino-3-mercapto-;4-Amino-3-mercaptobenzoic acid;3-Mercapto-4-aminobenzoic acid",
    "duplicated_cas_no": "",
    "SMILES": "C(O)(=O)C1=CC(S)=C(N)C=C1",
    "meta_data": {
        "InChI": "InChI=1S/C7H7NO2S/c8-5-2-1-4(7(9)10)3-6(5)11/h1-3,11H,8H2,(H,9,10)",
        "InChIKey": null,
        "Canonical SMILES": "O=C(O)C1=CC=C(N)C(S)=C1",
        "Molecular Formula": "C<sub>7</sub>H<sub>7</sub>NO<sub>2</sub>S",
        "Molecular Mass": "169.20",
        "Melting Point": "290 °C (decomp)"
    }
}