{
    "cas_no": "2305-32-0",
    "key_name": "(±)-<em>trans</em>-1,2-Cyclohexanedicarboxylic acid",
    "cn_name": "反-1,2-环己烷二甲酸;",
    "alternate_name": "1,2-Cyclohexanedicarboxylic acid, (1<em>R</em>,2<em>R</em>)-<em>rel</em>-;1,2-Cyclohexanedicarboxylic acid, <em>trans</em>-;<em>rel</em>-(1<em>R</em>,2<em>R</em>)-1,2-Cyclohexanedicarboxylic acid;<em>trans</em>-1,2-Cyclohexanedicarboxylic acid;(±)-<em>trans</em>-1,2-Cyclohexanedicarboxylic acid;NSC 31593",
    "duplicated_cas_no": "610-10-6",
    "SMILES": "C(O)(=O)[C@H]1[C@H](C(O)=O)CCCC1",
    "meta_data": {
        "InChI": "InChI=1/C8H12O4/c9-7(10)5-3-1-2-4-6(5)8(11)12/h5-6H,1-4H2,(H,9,10)(H,11,12)/t5-,6-/s2",
        "InChIKey": null,
        "Canonical SMILES": "O=C(O)C1CCCCC1C(=O)O",
        "Molecular Formula": "C<sub>8</sub>H<sub>12</sub>O<sub>4</sub>",
        "Molecular Mass": "172.18",
        "Melting Point": "222 °C"
    }
}