{
    "cas_no": "4318-42-7",
    "key_name": "Isopropylpiperazine",
    "cn_name": "1-异丙基哌嗪;N-异丙基哌嗪;",
    "alternate_name": "Piperazine, 1-(1-methylethyl)-;Piperazine, 1-isopropyl-;1-(1-Methylethyl)piperazine;Isopropylpiperazine;1-Isopropylpiperazine;<em>N</em>-Isopropylpiperazine;4-Isopropylpiperazine;1-(Propan-2-yl)piperazine;4-(Propan-2-yl)piperazine;1-(2-Propyl)-piperazine",
    "duplicated_cas_no": "",
    "SMILES": "C(C)(C)N1CCNCC1",
    "meta_data": {
        "InChI": "InChI=1S/C7H16N2/c1-7(2)9-5-3-8-4-6-9/h7-8H,3-6H2,1-2H3",
        "InChIKey": null,
        "Canonical SMILES": "N1CCN(CC1)C(C)C",
        "Molecular Formula": "C<sub>7</sub>H<sub>16</sub>N<sub>2</sub>",
        "Molecular Mass": "128.22",
        "Boiling Point": "156-163 °C"
    }
}