{
    "cas_no": "3731-38-2",
    "key_name": "3-Quinuclidinone",
    "cn_name": "3-奎宁环酮; 1-氮杂双环[2.2.2]辛烷-3-酮;",
    "alternate_name": "1-Azabicyclo[2.2.2]octan-3-one;3-Quinuclidinone;3-Oxoquinuclidine;3-Quinuclidone;NSC 168448;4-Azabicyclo[2.2.2]octan-2-one",
    "duplicated_cas_no": "29924-73-0;82737-04-0",
    "SMILES": "O=C1C2CCN(C1)CC2",
    "meta_data": {
        "InChI": "InChI=1S/C7H11NO/c9-7-5-8-3-1-6(7)2-4-8/h6H,1-5H2",
        "InChIKey": null,
        "Canonical SMILES": "O=C1CN2CCC1CC2",
        "Molecular Formula": "C<sub>7</sub>H<sub>11</sub>NO",
        "Molecular Mass": "125.17",
        "Melting Point": "200 °C"
    }
}