{
    "cas_no": "78-33-1",
    "key_name": "Phenol, 4-(1,1-dimethylethyl)-, 1,1′,1′′-phosphate",
    "cn_name": "三(4-叔丁基苯)磷酸盐;磷酸三(对-叔丁基苯)酯;Tris(p-tert-butylphenyl) phosphate;4-(1,1-Dimethylethyl)p;",
    "alternate_name": "Phenol, 4-(1,1-dimethylethyl)-, 1,1′,1′′-phosphate;Phenol, <em>p</em>-<em>tert</em>-butyl-, phosphate (3:1);Phenol, 4-(1,1-dimethylethyl)-, phosphate (3:1);<em>p</em>-<em>tert</em>-Butylphenol, phosphate (3:1);Tris(<em>p</em>-<em>tert</em>-butylphenyl) phosphate;Tris(4-<em>tert</em>-butylphenyl) phosphate;Tris(4-<em>tert</em>-butoxyphenyl) phosphate;NSC 2884",
    "duplicated_cas_no": "",
    "SMILES": "P(OC1=CC=C(C(C)(C)C)C=C1)(OC2=CC=C(C(C)(C)C)C=C2)(OC3=CC=C(C(C)(C)C)C=C3)=O",
    "meta_data": {
        "InChI": "InChI=1S/C30H39O4P/c1-28(2,3)22-10-16-25(17-11-22)32-35(31,33-26-18-12-23(13-19-26)29(4,5)6)34-27-20-14-24(15-21-27)30(7,8)9/h10-21H,1-9H3",
        "InChIKey": null,
        "Canonical SMILES": "O=P(OC1=CC=C(C=C1)C(C)(C)C)(OC2=CC=C(C=C2)C(C)(C)C)OC3=CC=C(C=C3)C(C)(C)C",
        "Molecular Formula": "C<sub>30</sub>H<sub>39</sub>O<sub>4</sub>P",
        "Molecular Mass": "494.60",
        "Boiling Point": "224-226 °C @ Press: 0.1 Torr",
        "Melting Point": "96.2 °C"
    }
}