{
    "cas_no": "622-98-0",
    "key_name": "1-Chloro-4-ethylbenzene",
    "cn_name": null,
    "alternate_name": "Benzene, 1-chloro-4-ethyl-;1-Chloro-4-ethylbenzene;<em>p</em>-Chloroethylbenzene;4-Ethylchlorobenzene;4-Chloro-1-ethylbenzene;4-Chloroethylbenzene;4-Ethylphenyl chloride;1-Ethyl-4-chlorobenzene",
    "duplicated_cas_no": "",
    "SMILES": "C(C)C1=CC=C(Cl)C=C1",
    "meta_data": {
        "InChI": "InChI=1S/C8H9Cl/c1-2-7-3-5-8(9)6-4-7/h3-6H,2H2,1H3",
        "InChIKey": null,
        "Canonical SMILES": "ClC1=CC=C(C=C1)CC",
        "Molecular Formula": "C<sub>8</sub>H<sub>9</sub>Cl",
        "Molecular Mass": "140.61",
        "Boiling Point": "184.4 °C",
        "Melting Point": "-62.6 °C",
        "Density": "1.0463 g/cm³ @ Temp: 20 °C"
    }
}