{
    "cas_no": "354-69-8",
    "key_name": "1,1,1,2,2-Pentafluoro-3-iodopropane",
    "cn_name": "1-碘-2,2,3,3,3-五氟丙烷;1,1,1,2,2-五氟-3-碘丙烷;1-碘-2,2,3,3,3-五氟丙烷,;",
    "alternate_name": "Propane, 1,1,1,2,2-pentafluoro-3-iodo-;1,1,1,2,2-Pentafluoro-3-iodopropane;NSC 141151;1-Iodo-2,2,3,3,3-pentafluoropropane",
    "duplicated_cas_no": "",
    "SMILES": "C(C(F)(F)F)(CI)(F)F",
    "meta_data": {
        "InChI": "InChI=1S/C3H2F5I/c4-2(5,1-9)3(6,7)8/h1H2",
        "InChIKey": null,
        "Canonical SMILES": "FC(F)(F)C(F)(F)CI",
        "Molecular Formula": "C<sub>3</sub>H<sub>2</sub>F<sub>5</sub>I",
        "Molecular Mass": "259.94",
        "Boiling Point": "70.5 °C",
        "Density": "2.038 g/cm³ @ Temp: 25 °C"
    }
}