{
    "cas_no": "5754-35-8",
    "key_name": "1,3-Dioxolane-2-ethanamine",
    "cn_name": "2-(2-氨基乙基)-1,3-二氧戊烷;",
    "alternate_name": "1,3-Dioxolane-2-ethanamine;1,3-Dioxolane-2-ethylamine;2-(2-Aminoethyl)-1,3-dioxolane;3-Aminopropionaldehyde cyclic ethylene acetal;2-(1,3-Dioxolan-2-yl)ethylamine;[2-(Dioxolan-2-yl)ethyl]amine;2-(1,3-Dioxolan-2-yl)ethanamine;Dioxolane-2-ethanamine;2-(1,3-Dioxolan-2-yl)ethan-1-amine",
    "duplicated_cas_no": "",
    "SMILES": "C(CN)C1OCCO1",
    "meta_data": {
        "InChI": "InChI=1S/C5H11NO2/c6-2-1-5-7-3-4-8-5/h5H,1-4,6H2",
        "InChIKey": null,
        "Canonical SMILES": "O1CCOC1CCN",
        "Molecular Formula": "C<sub>5</sub>H<sub>11</sub>NO<sub>2</sub>",
        "Molecular Mass": "117.15",
        "Boiling Point": "70-75 °C @ Press: 18 Torr"
    }
}