{
    "cas_no": "603-51-0",
    "key_name": "<em>N</em>,<em>N</em>-Diphenylhydrazinecarboxamide",
    "cn_name": "4,4-二苯氨基脲;4,4-二苯基氨脲;",
    "alternate_name": "Hydrazinecarboxamide, <em>N</em>,<em>N</em>-diphenyl-;Semicarbazide, 4,4-diphenyl-;<em>N</em>,<em>N</em>-Diphenylhydrazinecarboxamide;4,4-Diphenylsemicarbazide;NSC 47698;NSC 8717;3-Amino-1,1-diphenylurea",
    "duplicated_cas_no": "",
    "SMILES": "N(C(NN)=O)(C1=CC=CC=C1)C2=CC=CC=C2",
    "meta_data": {
        "InChI": "InChI=1S/C13H13N3O/c14-15-13(17)16(11-7-3-1-4-8-11)12-9-5-2-6-10-12/h1-10H,14H2,(H,15,17)",
        "InChIKey": null,
        "Canonical SMILES": "O=C(NN)N(C=1C=CC=CC1)C=2C=CC=CC2",
        "Molecular Formula": "C<sub>13</sub>H<sub>13</sub>N<sub>3</sub>O",
        "Molecular Mass": "227.26",
        "Melting Point": "154 °C"
    }
}