{
    "cas_no": "624-16-8",
    "key_name": "4-Decanone",
    "cn_name": "4-癸酮;",
    "alternate_name": "4-Decanone;Propyl hexyl ketone;Hexyl propyl ketone",
    "duplicated_cas_no": "",
    "SMILES": "C(CCCCCC)(CCC)=O",
    "meta_data": {
        "InChI": "InChI=1S/C10H20O/c1-3-5-6-7-9-10(11)8-4-2/h3-9H2,1-2H3",
        "InChIKey": null,
        "Canonical SMILES": "O=C(CCC)CCCCCC",
        "Molecular Formula": "C<sub>10</sub>H<sub>20</sub>O",
        "Molecular Mass": "156.27",
        "Boiling Point": "206.5 °C",
        "Melting Point": "-9 °C",
        "Density": "0.8268 g/cm³ @ Temp: 20 °C"
    }
}