{
    "cas_no": "320-60-5",
    "key_name": "2,4-Dichlorobenzotrifluoride",
    "cn_name": "2,4-二氯三氟甲苯;",
    "alternate_name": "Benzene, 2,4-dichloro-1-(trifluoromethyl)-;Toluene, 2,4-dichloro-α,α,α-trifluoro-;2,4-Dichloro-1-(trifluoromethyl)benzene;1,3-Dichloro-4-(trifluoromethyl)benzene;2,4-Dichlorobenzotrifluoride;2,4-Dichloro-α,α,α-trifluorotoluene;2,4-Dichloro(trifluoromethyl)benzene",
    "duplicated_cas_no": "",
    "SMILES": "C(F)(F)(F)C1=C(Cl)C=C(Cl)C=C1",
    "meta_data": {
        "InChI": "InChI=1S/C7H3Cl2F3/c8-4-1-2-5(6(9)3-4)7(10,11)12/h1-3H",
        "InChIKey": null,
        "Canonical SMILES": "FC(F)(F)C1=CC=C(Cl)C=C1Cl",
        "Molecular Formula": "C<sub>7</sub>H<sub>3</sub>Cl<sub>2</sub>F<sub>3</sub>",
        "Molecular Mass": "215.00",
        "Boiling Point": "177.52 °C",
        "Melting Point": "-26 °C"
    }
}