{
    "cas_no": "7785-33-3",
    "key_name": "Geranyl tiglate",
    "cn_name": "惕各酸香叶酯;(E,E)-3,7-二甲基-2,6-辛二烯-1-醇-2-甲基-2-丁烯酸酯;",
    "alternate_name": "2-Butenoic acid, 2-methyl-, (2<em>E</em>)-3,7-dimethyl-2,6-octadien-1-yl ester, (2<em>E</em>)-;2-Butenoic acid, 2-methyl-, 3,7-dimethyl-2,6-octadienyl ester, (<em>E</em>,<em>E</em>)-;Tiglic acid, <em>trans</em>-3,7-dimethyl-2,6-octadienyl ester;Tiglic acid, geranyl ester;2-Butenoic acid, 2-methyl-, (2<em>E</em>)-3,7-dimethyl-2,6-octadienyl ester, (2<em>E</em>)-;Geranyl tiglate;Geranyl (E)-2-methyl-2-butenoate",
    "duplicated_cas_no": "",
    "SMILES": "O(C/C=C(/CCC=C(C)C)\\C)C(/C(=C/C)/C)=O",
    "meta_data": {
        "InChI": "InChI=1S/C15H24O2/c1-6-14(5)15(16)17-11-10-13(4)9-7-8-12(2)3/h6,8,10H,7,9,11H2,1-5H3/b13-10+,14-6+",
        "InChIKey": null,
        "Canonical SMILES": "O=C(OCC=C(C)CCC=C(C)C)C(=CC)C",
        "Molecular Formula": "C<sub>15</sub>H<sub>24</sub>O<sub>2</sub>",
        "Molecular Mass": "236.35",
        "Boiling Point": "149-151 °C",
        "Density": "0.9279 g/cm³ @ Temp: 15 °C"
    }
}