{
    "cas_no": "13945-76-1",
    "key_name": "Lauryl laurate",
    "cn_name": "月桂醇月桂酸酯;",
    "alternate_name": "Dodecanoic acid, dodecyl ester;Lauric acid, dodecyl ester;Dodecyl alcohol, laurate;Lauryl laurate;Dodecyl laurate;1-Dodecyl dodecanoate;Dodecyl dodecanoate;NSC 404384;Purester 24;Dodecanyl dodecanoate;Electol WE 20",
    "duplicated_cas_no": "",
    "SMILES": "C(OCCCCCCCCCCCC)(CCCCCCCCCCC)=O",
    "meta_data": {
        "InChI": "InChI=1S/C24H48O2/c1-3-5-7-9-11-13-15-17-19-21-23-26-24(25)22-20-18-16-14-12-10-8-6-4-2/h3-23H2,1-2H3",
        "InChIKey": null,
        "Canonical SMILES": "O=C(OCCCCCCCCCCCC)CCCCCCCCCCC",
        "Molecular Formula": "C<sub>24</sub>H<sub>48</sub>O<sub>2</sub>",
        "Molecular Mass": "368.64",
        "Boiling Point": "210 °C @ Press: 1 Torr",
        "Melting Point": "27 °C"
    }
}