{
    "cas_no": "23445-00-3",
    "key_name": "Swertianolin",
    "cn_name": null,
    "alternate_name": "9<em>H</em>-Xanthen-9-one, 8-(β-<span class=\"text-smallcaps\">D</span>-glucopyranosyloxy)-1,5-dihydroxy-3-methoxy-;Swertianolin;8-(β-<span class=\"text-smallcaps\">D</span>-Glucopyranosyloxy)-1,5-dihydroxy-3-methoxy-9<em>H</em>-xanthen-9-one;Bellidifolin 8-<em>O</em>-β-<span class=\"text-smallcaps\">D</span>-glucopyranoside;Bellidifolin-8-<em>O</em>-glucoside",
    "duplicated_cas_no": "161896-58-8;1578263-16-7",
    "SMILES": "O(C1=C2C(OC=3C(C2=O)=C(O)C=C(OC)C3)=C(O)C=C1)[C@@H]4O[C@H](CO)[C@@H](O)[C@H](O)[C@H]4O",
    "meta_data": {
        "InChI": "InChI=1S/C20H20O11/c1-28-7-4-9(23)13-11(5-7)29-19-8(22)2-3-10(14(19)16(13)25)30-20-18(27)17(26)15(24)12(6-21)31-20/h2-5,12,15,17-18,20-24,26-27H,6H2,1H3/t12-,15-,17+,18-,20-/m1/s1",
        "InChIKey": null,
        "Canonical SMILES": "O=C1C2=C(O)C=C(OC)C=C2OC=3C(O)=CC=C(OC4OC(CO)C(O)C(O)C4O)C13",
        "Molecular Formula": "C<sub>20</sub>H<sub>20</sub>O<sub>11</sub>",
        "Molecular Mass": "436.37",
        "Melting Point": "198-200 °C"
    }
}