{
    "cas_no": "452-14-2",
    "key_name": "(3-Fluoro-4-methoxyphenyl)acetic acid",
    "cn_name": "3-氟-4-甲氧基苯乙酸;",
    "alternate_name": "Benzeneacetic acid, 3-fluoro-4-methoxy-;Acetic acid, (3-fluoro-4-methoxyphenyl)-;3-Fluoro-4-methoxybenzeneacetic acid;(3-Fluoro-4-methoxyphenyl)acetic acid;2-(3-Fluoro-4-methoxyphenyl)acetic acid",
    "duplicated_cas_no": "",
    "SMILES": "O(C)C1=C(F)C=C(CC(O)=O)C=C1",
    "meta_data": {
        "InChI": "InChI=1S/C9H9FO3/c1-13-8-3-2-6(4-7(8)10)5-9(11)12/h2-4H,5H2,1H3,(H,11,12)",
        "InChIKey": null,
        "Canonical SMILES": "O=C(O)CC1=CC=C(OC)C(F)=C1",
        "Molecular Formula": "C<sub>9</sub>H<sub>9</sub>FO<sub>3</sub>",
        "Molecular Mass": "184.16",
        "Melting Point": "116 °C"
    }
}