{
    "cas_no": "5521-57-3",
    "key_name": "5-Methyl-2-pyrazinecarboxamide",
    "cn_name": "5-甲基吡嗪-2-羧酰胺;",
    "alternate_name": "2-Pyrazinecarboxamide, 5-methyl-;Pyrazinecarboxamide, 5-methyl-;5-Methyl-2-pyrazinecarboxamide;2-Methylpyrazine-5-carboxamide;5-Methylpyrazine-2-carboxamide",
    "duplicated_cas_no": "",
    "SMILES": "C(N)(=O)C=1C=NC(C)=CN1",
    "meta_data": {
        "InChI": "InChI=1S/C6H7N3O/c1-4-2-9-5(3-8-4)6(7)10/h2-3H,1H3,(H2,7,10)",
        "InChIKey": null,
        "Canonical SMILES": "O=C(N)C1=NC=C(N=C1)C",
        "Molecular Formula": "C<sub>6</sub>H<sub>7</sub>N<sub>3</sub>O",
        "Molecular Mass": "137.14",
        "Melting Point": "210-211 °C"
    }
}