{
    "cas_no": "79-61-8",
    "key_name": "Dichlorisone acetate",
    "cn_name": "糊状叶绿素;",
    "alternate_name": "Pregna-1,4-diene-3,20-dione, 21-(acetyloxy)-9,11-dichloro-17-hydroxy-, (11β)-;Pregna-1,4-diene-3,20-dione, 9,11β-dichloro-17,21-dihydroxy-, 21-acetate;(11β)-21-(Acetyloxy)-9,11-dichloro-17-hydroxypregna-1,4-diene-3,20-dione;Dichlorisone acetate;Δ<sup>1</sup>-9,11-Dichlorocortisone acetate;Diloderm;9α,11β-Dichloro-21-acetoxypregna-1,4-dien-17α-ol-3,20-dione;Cloriderm;Dermocid;Diclorisona;Disoderm;Visoderm;Astroderm;Dichlorisone 21-acetate",
    "duplicated_cas_no": "",
    "SMILES": "Cl[C@@]12[C@]([C@]3([C@](C)(C[C@@H]1Cl)[C@](C(COC(C)=O)=O)(O)CC3)[H])(CCC=4[C@]2(C)C=CC(=O)C4)[H]",
    "meta_data": {
        "InChI": "InChI=1S/C23H28Cl2O5/c1-13(26)30-12-19(28)22(29)9-7-16-17-5-4-14-10-15(27)6-8-20(14,2)23(17,25)18(24)11-21(16,22)3/h6,8,10,16-18,29H,4-5,7,9,11-12H2,1-3H3/t16-,17-,18-,20-,21-,22-,23-/m0/s1",
        "InChIKey": null,
        "Canonical SMILES": "O=C1C=CC2(C(=C1)CCC3C4CCC(O)(C(=O)COC(=O)C)C4(C)CC(Cl)C32Cl)C",
        "Molecular Formula": "C<sub>23</sub>H<sub>28</sub>Cl<sub>2</sub>O<sub>5</sub>",
        "Molecular Mass": "455.37",
        "Melting Point": "246-253 °C (decomp)"
    }
}