{
    "cas_no": "99586-31-9",
    "key_name": "2-(3-Bromophenyl)benzoxazole",
    "cn_name": null,
    "alternate_name": "Benzoxazole, 2-(3-bromophenyl)-;Benzoxazole, 2-(<em>m</em>-bromophenyl)-;2-(3-Bromophenyl)benzoxazole;2-(3-Bromophenyl)benzo[<em>d</em>]oxazole;2-(3-Bromophenyl)-1,3-benzoxazole;2-(3-Bromo-phenyl)-benzooxazole",
    "duplicated_cas_no": "",
    "SMILES": "BrC=1C=C(C2=NC=3C(O2)=CC=CC3)C=CC1",
    "meta_data": {
        "InChI": "InChI=1S/C13H8BrNO/c14-10-5-3-4-9(8-10)13-15-11-6-1-2-7-12(11)16-13/h1-8H",
        "InChIKey": null,
        "Canonical SMILES": "BrC=1C=CC=C(C1)C2=NC=3C=CC=CC3O2",
        "Molecular Formula": "C<sub>13</sub>H<sub>8</sub>BrNO",
        "Molecular Mass": "274.11",
        "Melting Point": "136-138 °C"
    }
}