{
    "cas_no": "3811-04-9",
    "key_name": "Potassium chlorate",
    "cn_name": null,
    "alternate_name": "Chloric acid, potassium salt (1:1);Chloric acid, potassium salt;Fekabit;Potassium chlorate;Potassium oxymuriate;Potassium chlorate (KClO<sub>3</sub>);Potcrate;Chloric acid (HClO<sub>3</sub>) potassium salt;Berthollet salt;Berthollet's salt;Anforstan;Chloric acid potassium salt (KClO<sub>3</sub>)",
    "duplicated_cas_no": "",
    "SMILES": "Cl(=O)(=O)O.[K]",
    "meta_data": {
        "InChI": "InChI=1S/ClHO3.K/c2-1(3)4;/h(H,2,3,4);",
        "InChIKey": null,
        "Canonical SMILES": "[K].O=Cl(=O)O",
        "Molecular Formula": "ClHO<sub>3</sub>.K",
        "Molecular Mass": "",
        "Melting Point": "368 °C",
        "Density": "2.32 g/cm³"
    }
}