{
    "cas_no": "592-57-4",
    "key_name": "1,3-Cyclohexadiene",
    "cn_name": null,
    "alternate_name": "1,3-Cyclohexadiene;Benzene, dihydro-;Cyclohex-1,3-diene",
    "duplicated_cas_no": "33004-09-0",
    "SMILES": "C1CC=CC=C1",
    "meta_data": {
        "InChI": "InChI=1S/C6H8/c1-2-4-6-5-3-1/h1-4H,5-6H2",
        "InChIKey": null,
        "Canonical SMILES": "C=1C=CCCC1",
        "Molecular Formula": "C<sub>6</sub>H<sub>8</sub>",
        "Molecular Mass": "80.13",
        "Boiling Point": "81 °C",
        "Melting Point": "-89 °C",
        "Density": "0.84 g/cm³"
    }
}