{
    "cas_no": "27685-90-1",
    "key_name": "2-Oxo-2,3-dihydrobenzo[<em>d</em>]oxazole-6-sulfonyl chloride",
    "cn_name": null,
    "alternate_name": "6-Benzoxazolesulfonyl chloride, 2,3-dihydro-2-oxo-;6-Benzoxazolinesulfonyl chloride, 2-oxo-;2,3-Dihydro-2-oxo-6-benzoxazolesulfonyl chloride;2-Oxo-2,3-dihydro-1,3-benzoxazole-6-sulfonyl Chloride;2-Oxo-2,3-dihydrobenzoxazole-6-sulfonyl chloride;2-Oxo-2,3-dihydrobenzo[<em>d</em>]oxazole-6-sulfonyl chloride;2-Oxo-3<em>H</em>-1,3-benzoxazole-6-sulfonyl chloride;2-Hydroxy-1,3-benzoxazole-6-sulfonyl chloride",
    "duplicated_cas_no": "",
    "SMILES": "S(Cl)(=O)(=O)C=1C=C2C(=CC1)NC(=O)O2",
    "meta_data": {
        "InChI": "InChI=1S/C7H4ClNO4S/c8-14(11,12)4-1-2-5-6(3-4)13-7(10)9-5/h1-3H,(H,9,10)",
        "InChIKey": null,
        "Canonical SMILES": "O=C1OC2=CC(=CC=C2N1)S(=O)(=O)Cl",
        "Molecular Formula": "C<sub>7</sub>H<sub>4</sub>ClNO<sub>4</sub>S",
        "Molecular Mass": "233.63",
        "Melting Point": "186-187 °C"
    }
}