{
    "cas_no": "20850-49-1",
    "key_name": "2-(3,4-Dimethoxyphenyl)-3-methylbutanenitrile",
    "cn_name": "3-甲基-2-(3,4-二甲氧基苯基)丁腈;2-(3,4-二甲氧基苯基)-beta-甲基丁腈;",
    "alternate_name": "Benzeneacetonitrile, 3,4-dimethoxy-α-(1-methylethyl)-;Butyronitrile, 2-(3,4-dimethoxyphenyl)-3-methyl-;3,4-Dimethoxy-α-(1-methylethyl)benzeneacetonitrile;2-(3,4-Dimethoxyphenyl)-3-methylbutyronitrile;2-(3,4-Dimethoxyphenyl)-2-isopropylacetonitrile;α-Isopropylveratryl cyanide;(±)-2-(3,4-Dimethoxyphenyl)-3-methylbutanenitrile;(±)-3,4-Dimethoxy-α-isopropylbenzeneacetonitrile;α-Isopropylhomoveratronitrile;Isopropyl(3,4-dimethoxyphenyl)acetonitrile;2-(3,4-Dimethoxyphenyl)-3-methylbutanenitrile;3-Methyl-2-(3,4-dimethoxyphenyl)butyronitrile",
    "duplicated_cas_no": "130209-37-9",
    "SMILES": "C(C(C)C)(C#N)C1=CC(OC)=C(OC)C=C1",
    "meta_data": {
        "InChI": "InChI=1S/C13H17NO2/c1-9(2)11(8-14)10-5-6-12(15-3)13(7-10)16-4/h5-7,9,11H,1-4H3",
        "InChIKey": null,
        "Canonical SMILES": "N#CC(C1=CC=C(OC)C(OC)=C1)C(C)C",
        "Molecular Formula": "C<sub>13</sub>H<sub>17</sub>NO<sub>2</sub>",
        "Molecular Mass": "219.28",
        "Boiling Point": "160-166 °C @ Press: 6 Torr",
        "Melting Point": "49-51 °C"
    }
}