{
    "cas_no": "81-19-6",
    "key_name": "2,6-Dichlorobenzylidene chloride",
    "cn_name": "2,6-二氯苄叉二氯;1,3-二氯-2-二氯甲基苯;",
    "alternate_name": "Benzene, 1,3-dichloro-2-(dichloromethyl)-;Toluene, α,α,2,6-tetrachloro-;1,3-Dichloro-2-(dichloromethyl)benzene;α,α,2,6-Tetrachlorotoluene;2,6-Dichlorobenzal chloride;2,6-Dichlorobenzylidene chloride;2,6,α,α-Tetrachlorotoluene;NSC 79866",
    "duplicated_cas_no": "",
    "SMILES": "C(Cl)(Cl)C1=C(Cl)C=CC=C1Cl",
    "meta_data": {
        "InChI": "InChI=1S/C7H4Cl4/c8-4-2-1-3-5(9)6(4)7(10)11/h1-3,7H",
        "InChIKey": null,
        "Canonical SMILES": "ClC1=CC=CC(Cl)=C1C(Cl)Cl",
        "Molecular Formula": "C<sub>7</sub>H<sub>4</sub>Cl<sub>4</sub>",
        "Molecular Mass": "229.92",
        "Boiling Point": "124-126 °C @ Press: 16 Torr"
    }
}