{
    "cas_no": "1678-25-7",
    "key_name": "<em>N</em>-Phenylbenzenesulfonamide",
    "cn_name": "N-苯基苯磺酰胺;",
    "alternate_name": "Benzenesulfonamide, <em>N</em>-phenyl-;Benzenesulfonanilide;<em>N</em>-Phenylbenzenesulfonamide;<em>N</em>-Benzenesulfonylaniline;NSC 30178;NSC 48357",
    "duplicated_cas_no": "",
    "SMILES": "N(S(=O)(=O)C1=CC=CC=C1)C2=CC=CC=C2",
    "meta_data": {
        "InChI": "InChI=1S/C12H11NO2S/c14-16(15,12-9-5-2-6-10-12)13-11-7-3-1-4-8-11/h1-10,13H",
        "InChIKey": null,
        "Canonical SMILES": "O=S(=O)(NC=1C=CC=CC1)C=2C=CC=CC2",
        "Molecular Formula": "C<sub>12</sub>H<sub>11</sub>NO<sub>2</sub>S",
        "Molecular Mass": "233.29",
        "Melting Point": "110 °C"
    }
}