{
    "cas_no": "3027-21-2",
    "key_name": "(Dimethoxymethylsilyl)benzene",
    "cn_name": null,
    "alternate_name": "Benzene, (dimethoxymethylsilyl)-;Silane, dimethoxymethylphenyl-;(Dimethoxymethylsilyl)benzene;Dimethoxymethylphenylsilane;Methylphenyldimethoxysilane;Dimethoxyphenylmethylsilane;Phenylmethyldimethoxysilane;Z 6073;SM 2 (silane);SM 2;NSC 93924;SIP 6740;SIP 6740.0;LS 2720;KBM 102;KH 1621;Methyldimethoxyphenylsilane;SCA-P 61T",
    "duplicated_cas_no": "",
    "SMILES": "[Si](OC)(OC)(C)C1=CC=CC=C1",
    "meta_data": {
        "InChI": "InChI=1S/C9H14O2Si/c1-10-12(3,11-2)9-7-5-4-6-8-9/h4-8H,1-3H3",
        "InChIKey": null,
        "Canonical SMILES": "O(C)[Si](OC)(C=1C=CC=CC1)C",
        "Molecular Formula": "C<sub>9</sub>H<sub>14</sub>O<sub>2</sub>Si",
        "Molecular Mass": "182.29",
        "Boiling Point": "199-200 °C",
        "Melting Point": "73-75 °C",
        "Density": "0.993 g/cm³"
    }
}