{
    "cas_no": "107-02-8",
    "key_name": "Acrolein",
    "cn_name": "丙烯醛;烯丙醛;",
    "alternate_name": "2-Propenal;Acrolein;Acrylaldehyde;Acrylic aldehyde;Allyl aldehyde;Aqualin;Propenal;Prop-2-en-1-al;2-Propen-1-one;NSC 8819;Magnacide H;Magnacide B;MeSH ID: D000171",
    "duplicated_cas_no": "25314-61-8",
    "SMILES": "C(C=O)=C",
    "meta_data": {
        "InChI": "InChI=1S/C3H4O/c1-2-3-4/h2-3H,1H2",
        "InChIKey": null,
        "Canonical SMILES": "O=CC=C",
        "Molecular Formula": "C<sub>3</sub>H<sub>4</sub>O",
        "Molecular Mass": "56.06",
        "Boiling Point": "52.5 °C @ Press: 760 Torr",
        "Melting Point": "-88 °C",
        "Density": "0.8075 g/cm³ @ Temp: 50 °C"
    }
}