{
    "cas_no": "827-43-0",
    "key_name": "2-Phenyl-4-methylimidazole",
    "cn_name": "4-甲基-2-苯基咪唑;",
    "alternate_name": "1<em>H</em>-Imidazole, 5-methyl-2-phenyl-;Imidazole, 4(<em>or</em> 5)-methyl-2-phenyl-;1<em>H</em>-Imidazole, 4-methyl-2-phenyl-;5-Methyl-2-phenyl-1<em>H</em>-imidazole;2-Phenyl-4-methylimidazole;4-Methyl-2-phenylimidazole;Curezol 2P4MZ;2P4MZ;4-Methyl-2-phenyl-1<em>H</em>-imidazole",
    "duplicated_cas_no": "",
    "SMILES": "CC=1NC(=NC1)C2=CC=CC=C2",
    "meta_data": {
        "InChI": "InChI=1S/C10H10N2/c1-8-7-11-10(12-8)9-5-3-2-4-6-9/h2-7H,1H3,(H,11,12)",
        "InChIKey": null,
        "Canonical SMILES": "N=1C=C(NC1C=2C=CC=CC2)C",
        "Molecular Formula": "C<sub>10</sub>H<sub>10</sub>N<sub>2</sub>",
        "Molecular Mass": "158.20",
        "Melting Point": "180 °C"
    }
}