{
    "cas_no": "51481-10-8",
    "key_name": "Deoxynivalenol",
    "cn_name": "脱氧瓜萎镰菌醇;脱氧瓜萎镰菌醇标准品;呕吐毒素;3α,7α,15-三羟基-12,13-环氧单端孢霉-9-蒽-8-酮;",
    "alternate_name": "Trichothec-9-en-8-one, 12,13-epoxy-3,7,15-trihydroxy-, (3α,7α)-;Spiro[2,5-methano-1-benzoxepin-10,2′-oxirane], trichothec-9-en-8-one deriv.;(3α,7α)-12,13-Epoxy-3,7,15-trihydroxytrichothec-9-en-8-one;Vomitoxin;Dehydronivalenol;Deoxynivalenol;4-Deoxynivalenol;4-Desoxynivalenol;DON;NSC 269144",
    "duplicated_cas_no": "50722-37-7;115825-61-1;1394244-12-2",
    "SMILES": "C[C@]12[C@@]3([C@](O[C@]4([C@]1(CO)[C@H](O)C(=O)C(C)=C4)[H])([C@H](O)C2)[H])CO3",
    "meta_data": {
        "InChI": "InChI=1S/C15H20O6/c1-7-3-9-14(5-16,11(19)10(7)18)13(2)4-8(17)12(21-9)15(13)6-20-15/h3,8-9,11-12,16-17,19H,4-6H2,1-2H3/t8-,9-,11-,12-,13-,14-,15+/m1/s1",
        "InChIKey": null,
        "Canonical SMILES": "O=C1C(=CC2OC3C(O)CC(C)(C43OC4)C2(CO)C1O)C",
        "Molecular Formula": "C<sub>15</sub>H<sub>20</sub>O<sub>6</sub>",
        "Molecular Mass": "296.32",
        "Melting Point": "151-153 °C"
    }
}