{
    "cas_no": "34352-74-4",
    "key_name": "α,α-Dimethyl[1,1′-biphenyl]-4-methanol",
    "cn_name": null,
    "alternate_name": "[1,1′-Biphenyl]-4-methanol, α,α-dimethyl-;4-Biphenylmethanol, α,α-dimethyl-;α,α-Dimethyl[1,1′-biphenyl]-4-methanol;2-(4-Biphenylyl)-2-propanol;2-<em>p</em>-Biphenylyl-2-propanol;4-(1-Hydroxy-1-methylethyl)biphenyl;2-(1,1′-Biphenyl-4-yl)-2-propanol;2-(4-Phenylphenyl)propan-2-ol",
    "duplicated_cas_no": "13860-22-5",
    "SMILES": "C(C)(C)(O)C1=CC=C(C=C1)C2=CC=CC=C2",
    "meta_data": {
        "InChI": "InChI=1S/C15H16O/c1-15(2,16)14-10-8-13(9-11-14)12-6-4-3-5-7-12/h3-11,16H,1-2H3",
        "InChIKey": null,
        "Canonical SMILES": "OC(C=1C=CC(=CC1)C=2C=CC=CC2)(C)C",
        "Molecular Formula": "C<sub>15</sub>H<sub>16</sub>O",
        "Molecular Mass": "212.29",
        "Boiling Point": "122-124 °C @ Press: 3 Torr",
        "Melting Point": "92-93 °C"
    }
}