{
    "cas_no": "627-58-7",
    "key_name": "2,5-Dimethyl-1,5-hexadiene",
    "cn_name": "2,5-二甲基-1,5-己二烯;2,5-二甲基己基-1,5-二烯;",
    "alternate_name": "1,5-Hexadiene, 2,5-dimethyl-;2,5-Dimethyl-1,5-hexadiene;Dimethallyl;Bimethallyl;NSC 10813",
    "duplicated_cas_no": "",
    "SMILES": "C(CC(C)=C)C(C)=C",
    "meta_data": {
        "InChI": "InChI=1S/C8H14/c1-7(2)5-6-8(3)4/h1,3,5-6H2,2,4H3",
        "InChIKey": null,
        "Canonical SMILES": "C=C(C)CCC(=C)C",
        "Molecular Formula": "C<sub>8</sub>H<sub>14</sub>",
        "Molecular Mass": "110.20",
        "Boiling Point": "114.3 °C",
        "Melting Point": "-75.6 °C",
        "Density": "0.7423 g/cm³ @ Temp: 20 °C"
    }
}