{
    "cas_no": "110-66-7",
    "key_name": "1-Pentanethiol",
    "cn_name": "1-戊硫醇;",
    "alternate_name": "1-Pentanethiol;Amyl mercaptan;Pentanethiol;Amyl hydrosulfide;Amyl sulfhydrate;Amyl thioalcohol;Pentyl mercaptan;<em>n</em>-Amyl mercaptan;1-Mercaptopentane;<em>n</em>-Pentyl mercaptan;Pentylthiol;<em>n</em>-Pentanethiol;<em>n</em>-Pentylthiol;1-Pentyl mercaptan;1-Pentylthiol;1-<em>n</em>-Pentanethiol;<em>n</em>-Amylthiol;Mercaptopentane",
    "duplicated_cas_no": "",
    "SMILES": "C(CCS)CC",
    "meta_data": {
        "InChI": "InChI=1S/C5H12S/c1-2-3-4-5-6/h6H,2-5H2,1H3",
        "InChIKey": null,
        "Canonical SMILES": "SCCCCC",
        "Molecular Formula": "C<sub>5</sub>H<sub>12</sub>S",
        "Molecular Mass": "104.21",
        "Boiling Point": "99.5 °C @ Press: 10 Torr",
        "Melting Point": "-75.7 °C",
        "Density": "0.8421 g/cm³ @ Temp: 20 °C"
    }
}