{
    "cas_no": "367-27-1",
    "key_name": "2,4-Difluorophenol",
    "cn_name": "2,4-二氟苯酚;",
    "alternate_name": "Phenol, 2,4-difluoro-;2,4-Difluorophenol",
    "duplicated_cas_no": "",
    "SMILES": "FC1=C(O)C=CC(F)=C1",
    "meta_data": {
        "InChI": "InChI=1S/C6H4F2O/c7-4-1-2-6(9)5(8)3-4/h1-3,9H",
        "InChIKey": null,
        "Canonical SMILES": "FC1=CC=C(O)C(F)=C1",
        "Molecular Formula": "C<sub>6</sub>H<sub>4</sub>F<sub>2</sub>O",
        "Molecular Mass": "130.09",
        "Boiling Point": "150 °C",
        "Melting Point": "22.4 °C"
    }
}