{
    "cas_no": "87392-12-9",
    "key_name": "<em>S</em>-Metolachlor",
    "cn_name": "异丙甲草胺;2-氯-N-(2-乙基-6-甲基苯基)-N-[(1S)-2-甲氧基-1-甲基乙基]乙酰胺;",
    "alternate_name": "Acetamide, 2-chloro-<em>N</em>-(2-ethyl-6-methylphenyl)-<em>N</em>-[(1<em>S</em>)-2-methoxy-1-methylethyl]-;Acetamide, 2-chloro-<em>N</em>-(2-ethyl-6-methylphenyl)-<em>N</em>-(2-methoxy-1-methylethyl)-, (<em>S</em>)-;2-Chloro-<em>N</em>-(2-ethyl-6-methylphenyl)-<em>N</em>-[(1<em>S</em>)-2-methoxy-1-methylethyl]acetamide;<em>S</em>-Metolachlor;Dual II Magnum;(<em>S</em>)-Metolachor;<em>S</em>-Metholachlor;Dual Gold;α-Metolachlor;Brawl;Pennant Magnum;Medal II",
    "duplicated_cas_no": "",
    "SMILES": "N([C@H](COC)C)(C(CCl)=O)C1=C(CC)C=CC=C1C",
    "meta_data": {
        "InChI": "InChI=1S/C15H22ClNO2/c1-5-13-8-6-7-11(2)15(13)17(14(18)9-16)12(3)10-19-4/h6-8,12H,5,9-10H2,1-4H3/t12-/m0/s1",
        "InChIKey": null,
        "Canonical SMILES": "O=C(N(C=1C(=CC=CC1CC)C)C(C)COC)CCl",
        "Molecular Formula": "C<sub>15</sub>H<sub>22</sub>ClNO<sub>2</sub>",
        "Molecular Mass": "283.79",
        "Boiling Point": "282 °C",
        "Melting Point": "-40 °C"
    }
}