{
    "cas_no": "35554-44-0",
    "key_name": "Imazalil",
    "cn_name": "抑霉唑;1-(beta-烯丙氧基-beta-2,4-二氯苯乙基)咪唑;1-[2-(2,4-二氯苯基)-2-(2-烯丙氧基)乙基]-1H-咪唑;",
    "alternate_name": "1<em>H</em>-Imidazole, 1-[2-(2,4-dichlorophenyl)-2-(2-propen-1-yloxy)ethyl]-;1<em>H</em>-Imidazole, 1-[2-(2,4-dichlorophenyl)-2-(2-propenyloxy)ethyl]-;1-[2-(2,4-Dichlorophenyl)-2-(2-propen-1-yloxy)ethyl]-1<em>H</em>-imidazole;Imazalil;R 23979;Fungaflor;Enilconazole;Florasan;Fungazil;CGA 41333;Deccozil S 75;NuZone;FloPro IMZ;1-[2-(2,4-Dichlorophenyl)-2-(2-propenyloxy)ethyl]-1<em>H</em>-imidazole;(±)-Imazalil;Clinafarm;Deccosil;Deccozil;Bromazil;Imaverol;Amolden MP 100;Magnate;(<em>R</em>,<em>S</em>)-1-[2-(2,4-Dichlorophenyl)-2-(2-propenyloxy)ethyl]-1<em>H</em>-imidazole;Freshgard;(<em>RS</em>)-1-[2-(Allyloxy)-2-(2,4-dichlorophenyl)ethyl]-1<em>H</em>-imidazole;1-[2-(Allyloxy)-2-(2,4-dichlorophenyl)ethyl]-1<em>H</em>-imidazole",
    "duplicated_cas_no": "51004-46-7;73790-28-0;1135441-05-2",
    "SMILES": "C(CN1C=CN=C1)(OCC=C)C2=C(Cl)C=C(Cl)C=C2",
    "meta_data": {
        "InChI": "InChI=1S/C14H14Cl2N2O/c1-2-7-19-14(9-18-6-5-17-10-18)12-4-3-11(15)8-13(12)16/h2-6,8,10,14H,1,7,9H2",
        "InChIKey": null,
        "Canonical SMILES": "ClC1=CC=C(C(Cl)=C1)C(OCC=C)CN2C=NC=C2",
        "Molecular Formula": "C<sub>14</sub>H<sub>14</sub>Cl<sub>2</sub>N<sub>2</sub>O",
        "Molecular Mass": "297.18",
        "Boiling Point": "347 °C",
        "Melting Point": "52.7 °C",
        "Density": "1.348 g/cm³ @ Temp: 26 °C"
    }
}