{
    "cas_no": "306-03-6",
    "key_name": "Hyoscyamine hydrobromide",
    "cn_name": "氢溴酸天仙子胺;",
    "alternate_name": "Benzeneacetic acid, α-(hydroxymethyl)-, (3-<em>endo</em>)-8-methyl-8-azabicyclo[3.2.1]oct-3-yl ester, hydrobromide (1:1), (α<em>S</em>)-;1α<span class=\"text-smallcaps\">H</smallcap>,5α<smallcap>H</span>-Tropan-3α-ol, (-)-tropate (ester), hydrobromide;Benzeneacetic acid, α-(hydroxymethyl)-, 8-methyl-8-azabicyclo[3.2.1]oct-3-yl ester, hydrobromide, [3(<em>S</em>)-<em>endo</em>]-;Benzeneacetic acid, α-(hydroxymethyl)-, (3-<em>endo</em>)-8-methyl-8-azabicyclo[3.2.1]oct-3-yl ester, hydrobromide, (α<em>S</em>)-;Daturine hydrobromide;Hyoscyaminium bromide;Hyoscyamine hydrobromide;<em>l</em>-Hyoscyamine hydrobromide;(-)-Atropine hydrobromide",
    "duplicated_cas_no": "4607-53-8",
    "SMILES": "O(C([C@H](CO)C1=CC=CC=C1)=O)[C@@H]2C[C@]3(N(C)[C@@](C2)(CC3)[H])[H].Br",
    "meta_data": {
        "InChI": "InChI=1S/C17H23NO3.BrH/c1-18-13-7-8-14(18)10-15(9-13)21-17(20)16(11-19)12-5-3-2-4-6-12;/h2-6,13-16,19H,7-11H2,1H3;1H/t13-,14+,15+,16-;/m1./s1",
        "InChIKey": null,
        "Canonical SMILES": "Br.O=C(OC1CC2N(C)C(CC2)C1)C(C=3C=CC=CC3)CO",
        "Molecular Formula": "C<sub>17</sub>H<sub>23</sub>NO<sub>3</sub>.BrH",
        "Molecular Mass": "",
        "Melting Point": "152 °C"
    }
}