{
    "cas_no": "121-46-0",
    "key_name": "Norbornadiene",
    "cn_name": "二环庚二烯;2,5-降冰片二烯;",
    "alternate_name": "Bicyclo[2.2.1]hepta-2,5-diene;2,5-Norbornadiene;3,6-Methano-1,4-cyclohexadiene;Bicyclo[2.2.1]heptadiene;Norbornadiene;NSC 13672",
    "duplicated_cas_no": "27236-36-8",
    "SMILES": "C12CC(C=C1)C=C2",
    "meta_data": {
        "InChI": "InChI=1S/C7H8/c1-2-7-4-3-6(1)5-7/h1-4,6-7H,5H2",
        "InChIKey": null,
        "Canonical SMILES": "C1=CC2C=CC1C2",
        "Molecular Formula": "C<sub>7</sub>H<sub>8</sub>",
        "Molecular Mass": "92.14",
        "Boiling Point": "89.5 °C",
        "Melting Point": "-19.1 °C",
        "Density": "0.8770-0.9100 g/cm³ @ Temp: 20 °C"
    }
}