{
    "cas_no": "584-94-1",
    "key_name": "(±)-2,3-Dimethylhexane",
    "cn_name": "2,3-二甲基己烷;",
    "alternate_name": "Hexane, 2,3-dimethyl-;2,3-Dimethylhexane;NSC 74170;(±)-2,3-Dimethylhexane",
    "duplicated_cas_no": "116435-59-7",
    "SMILES": "C(CCC)(C(C)C)C",
    "meta_data": {
        "InChI": "InChI=1S/C8H18/c1-5-6-8(4)7(2)3/h7-8H,5-6H2,1-4H3",
        "InChIKey": null,
        "Canonical SMILES": "CCCC(C)C(C)C",
        "Molecular Formula": "C<sub>8</sub>H<sub>18</sub>",
        "Molecular Mass": "114.23",
        "Boiling Point": "115.6 °C",
        "Density": "0.7246 g/cm³ @ Temp: 15 °C"
    }
}