{
    "cas_no": "93-18-5",
    "key_name": "2-Ethoxynaphthalene",
    "cn_name": "2-萘乙醚;2-乙氧基萘;乙位萘乙醚;",
    "alternate_name": "Naphthalene, 2-ethoxy-;2-Ethoxynaphthalene;Bromelia;Ethyl β-naphtholate;Ethyl β-naphthyl ether;β-Naphthol ethyl ether;β-Naphthyl ethyl ether;Nerolin II;Nerolin (new);Bromelia (compound);Ethyl 2-naphthyl ether;Nerolin Bromelia;NSC 1319",
    "duplicated_cas_no": "",
    "SMILES": "O(CC)C1=CC2=C(C=C1)C=CC=C2",
    "meta_data": {
        "InChI": "InChI=1S/C12H12O/c1-2-13-12-8-7-10-5-3-4-6-11(10)9-12/h3-9H,2H2,1H3",
        "InChIKey": null,
        "Canonical SMILES": "O(C=1C=CC=2C=CC=CC2C1)CC",
        "Molecular Formula": "C<sub>12</sub>H<sub>12</sub>O",
        "Molecular Mass": "172.22",
        "Boiling Point": "282 °C",
        "Melting Point": "37.5 °C"
    }
}