{
    "cas_no": "1723-00-8",
    "key_name": "(+)-Pipecolic acid",
    "cn_name": "D-(+)-2-哌啶酸;D-哌啶-2-羧酸;",
    "alternate_name": "2-Piperidinecarboxylic acid, (2<em>R</em>)-;2-Piperidinecarboxylic acid, (<em>R</em>)-;Pipecolic acid, <span class=\"text-smallcaps\">D</span>-(+)-;(2<em>R</em>)-2-Piperidinecarboxylic acid;(<em>R</em>)-Pipecolic acid;(+)-Pipecolic acid;<span class=\"text-smallcaps\">D</span>-Pipecolic acid;<span class=\"text-smallcaps\">D</span>-(+)-Pipecolic acid;<span class=\"text-smallcaps\">D</span>-Pipecolinic acid;<em>D</em>-Homoproline;(<em>R</em>)-Pipecolinic acid;(<em>R</em>)-2-Piperidinecarboxylic acid;(<em>R</em>)-(+)-Pipecolic acid;<span class=\"text-smallcaps\">D</span>-Piperidine-2-carboxylic acid;(+)-Pipecolinic acid;(<em>R</em>)-2-Carboxypiperidine;(2R)-Piperidine-2-carboxylic acid;(R)-(+)-2-Piperidinecarboxylic acid",
    "duplicated_cas_no": "",
    "SMILES": "C(O)(=O)[C@H]1CCCCN1",
    "meta_data": {
        "InChI": "InChI=1S/C6H11NO2/c8-6(9)5-3-1-2-4-7-5/h5,7H,1-4H2,(H,8,9)/t5-/m1/s1",
        "InChIKey": null,
        "Canonical SMILES": "O=C(O)C1NCCCC1",
        "Molecular Formula": "C<sub>6</sub>H<sub>11</sub>NO<sub>2</sub>",
        "Molecular Mass": "129.16",
        "Melting Point": "266-268 °C (decomp)"
    }
}