{
    "cas_no": "3061-36-7",
    "key_name": "1,4-Diphenoxybenzene",
    "cn_name": "1,4-二苯氧基苯;",
    "alternate_name": "Benzene, 1,4-diphenoxy-;Benzene, <em>p</em>-diphenoxy-;1,4-Diphenoxybenzene;<em>p</em>-Diphenoxybenzene;<em>p</em>-Phenoxyphenoxybenzene;4-Phenoxydiphenyl oxide;Hydroquinone diphenyl ether;<em>p</em>-Bis(<em>p</em>-phenoxyphenoxy)benzene",
    "duplicated_cas_no": "",
    "SMILES": "O(C1=CC=C(OC2=CC=CC=C2)C=C1)C3=CC=CC=C3",
    "meta_data": {
        "InChI": "InChI=1S/C18H14O2/c1-3-7-15(8-4-1)19-17-11-13-18(14-12-17)20-16-9-5-2-6-10-16/h1-14H",
        "InChIKey": null,
        "Canonical SMILES": "O(C=1C=CC=CC1)C2=CC=C(OC=3C=CC=CC3)C=C2",
        "Molecular Formula": "C<sub>18</sub>H<sub>14</sub>O<sub>2</sub>",
        "Molecular Mass": "262.30",
        "Boiling Point": "371-372 °C @ Press: 770 Torr",
        "Melting Point": "77 °C"
    }
}