{
    "cas_no": "19811-05-3",
    "key_name": "2,4-Dichlorobenzophenone",
    "cn_name": "2,4-二氯苯甲酮;",
    "alternate_name": "Methanone, (2,4-dichlorophenyl)phenyl-;Benzophenone, 2,4-dichloro-;(2,4-Dichlorophenyl)phenylmethanone;2,4-Dichlorobenzophenone;Benzoyl-2,4-dichlorobenzene;1-(2,4-Dichlorophenyl)-1-phenylmethanone",
    "duplicated_cas_no": "",
    "SMILES": "C(=O)(C1=C(Cl)C=C(Cl)C=C1)C2=CC=CC=C2",
    "meta_data": {
        "InChI": "InChI=1S/C13H8Cl2O/c14-10-6-7-11(12(15)8-10)13(16)9-4-2-1-3-5-9/h1-8H",
        "InChIKey": null,
        "Canonical SMILES": "O=C(C=1C=CC=CC1)C2=CC=C(Cl)C=C2Cl",
        "Molecular Formula": "C<sub>13</sub>H<sub>8</sub>Cl<sub>2</sub>O",
        "Molecular Mass": "251.11",
        "Melting Point": "48 °C"
    }
}