{
    "cas_no": "452-85-7",
    "key_name": "5-Fluoro-2-methylphenol",
    "cn_name": "5-氟-2-甲基苯酚;",
    "alternate_name": "Phenol, 5-fluoro-2-methyl-;<em>o</em>-Cresol, 5-fluoro-;5-Fluoro-2-methylphenol;2-Methyl-5-fluorophenol",
    "duplicated_cas_no": "",
    "SMILES": "OC1=C(C)C=CC(F)=C1",
    "meta_data": {
        "InChI": "InChI=1S/C7H7FO/c1-5-2-3-6(8)4-7(5)9/h2-4,9H,1H3",
        "InChIKey": null,
        "Canonical SMILES": "FC1=CC=C(C(O)=C1)C",
        "Molecular Formula": "C<sub>7</sub>H<sub>7</sub>FO",
        "Molecular Mass": "126.13",
        "Boiling Point": "66 °C @ Press: 4 Torr"
    }
}