{
    "cas_no": "1994-13-4",
    "key_name": "6-Fluoro-4-hydroxycoumarin",
    "cn_name": null,
    "alternate_name": "2<em>H</em>-1-Benzopyran-2-one, 6-fluoro-4-hydroxy-;Coumarin, 6-fluoro-4-hydroxy-;6-Fluoro-4-hydroxy-2<em>H</em>-1-benzopyran-2-one;6-Fluoro-4-hydroxycoumarin",
    "duplicated_cas_no": "",
    "SMILES": "OC=1C=2C(OC(=O)C1)=CC=C(F)C2",
    "meta_data": {
        "InChI": "InChI=1S/C9H5FO3/c10-5-1-2-8-6(3-5)7(11)4-9(12)13-8/h1-4,11H",
        "InChIKey": null,
        "Canonical SMILES": "O=C1OC=2C=CC(F)=CC2C(O)=C1",
        "Molecular Formula": "C<sub>9</sub>H<sub>5</sub>FO<sub>3</sub>",
        "Molecular Mass": "180.13",
        "Melting Point": "245-246 °C"
    }
}