{
    "cas_no": "63131-29-3",
    "key_name": "Methyl 4-fluoro-β-oxobenzenepropanoate",
    "cn_name": "4-氟苯乙酸甲酯;",
    "alternate_name": "Benzenepropanoic acid, 4-fluoro-β-oxo-, methyl ester;Methyl 4-fluoro-β-oxobenzenepropanoate;Methyl (4-fluorobenzoyl)acetate;Methyl (<em>p</em>-fluorobenzoyl)acetate;3-(4-Fluorophenyl)-3-oxo-propionic acid methyl ester;Methyl 2-(4-fluorobenzoyl)acetate;4-Fluoro-β-oxobenzenepropanoic acid methyl ester;Methyl 3-(4-fluorophenyl)-3-oxopropanoate;Methyl 3-(4-fluorophenyl)-3-oxopropionate;3-Oxo-3-(4-fluorophenyl)propionic acid methyl ester;Methyl 3-oxo-3-(4-fluorophenyl)propanoate;3-(4-Fluorophenyl)-3-oxopropanoic acid methyl ester",
    "duplicated_cas_no": "",
    "SMILES": "C(CC(OC)=O)(=O)C1=CC=C(F)C=C1",
    "meta_data": {
        "InChI": "InChI=1S/C10H9FO3/c1-14-10(13)6-9(12)7-2-4-8(11)5-3-7/h2-5H,6H2,1H3",
        "InChIKey": null,
        "Canonical SMILES": "O=C(OC)CC(=O)C1=CC=C(F)C=C1",
        "Molecular Formula": "C<sub>10</sub>H<sub>9</sub>FO<sub>3</sub>",
        "Molecular Mass": "196.18",
        "Boiling Point": "110 °C"
    }
}