{
    "cas_no": "4559-79-9",
    "key_name": "<em>N</em><sup>1</sup>,<em>N</em><sup>1</sup>,<em>N</em><sup>4</sup>,<em>N</em><sup>4</sup>-Tetramethyl-2-butene-1,4-diamine",
    "cn_name": null,
    "alternate_name": "2-Butene-1,4-diamine, <em>N</em><sup>1</sup>,<em>N</em><sup>1</sup>,<em>N</em><sup>4</sup>,<em>N</em><sup>4</sup>-tetramethyl-;2-Butene-1,4-diamine, <em>N</em>,<em>N</em>,<em>N</em>′,<em>N</em>′-tetramethyl-;<em>N</em><sup>1</sup>,<em>N</em><sup>1</sup>,<em>N</em><sup>4</sup>,<em>N</em><sup>4</sup>-Tetramethyl-2-butene-1,4-diamine;<em>N</em>,<em>N</em>,<em>N</em>′,<em>N</em>′-Tetramethyl-2-butene-1,4-diamine;1,4-Bis(dimethylamino)-2-butene;<em>N</em>,<em>N</em>,<em>N</em>′,<em>N</em>′-Tetramethyl-1,4-diamino-2-butene;2-Butene-1,4-diamine N1,N1,N4,N4-tetramethyl-;Tetramethyl butenediamine",
    "duplicated_cas_no": "",
    "SMILES": "C(=CCN(C)C)CN(C)C",
    "meta_data": {
        "InChI": "InChI=1S/C8H18N2/c1-9(2)7-5-6-8-10(3)4/h5-6H,7-8H2,1-4H3",
        "InChIKey": null,
        "Canonical SMILES": "C(=CCN(C)C)CN(C)C",
        "Molecular Formula": "C<sub>8</sub>H<sub>18</sub>N<sub>2</sub>",
        "Molecular Mass": "142.24",
        "Boiling Point": "171-172 °C @ Press: 723 Torr",
        "Density": "0.8198 g/cm³ @ Temp: 0 °C"
    }
}