{
    "cas_no": "152-11-4",
    "key_name": "Verapamil hydrochloride",
    "cn_name": "盐酸维拉帕米;alpha-[3-[[2-(3,4-二甲氧苯基)乙基]甲氨基]丙基]-alpha-异丙基-3,4-二甲氧基苯乙腈盐酸盐;",
    "alternate_name": "Benzeneacetonitrile, α-[3-[[2-(3,4-dimethoxyphenyl)ethyl]methylamino]propyl]-3,4-dimethoxy-α-(1-methylethyl)-, hydrochloride (1:1);Valeronitrile, 5-[(3,4-dimethoxyphenethyl)methylamino]-2-(3,4-dimethoxyphenyl)-2-isopropyl-, monohydrochloride;Benzeneacetonitrile, α-[3-[[2-(3,4-dimethoxyphenyl)ethyl]methylamino]propyl]-3,4-dimethoxy-α-(1-methylethyl)-, monohydrochloride;Valeronitrile, 5-[(3,4-dimethoxyphenethyl)methylamino]-2-(3,4-dimethoxyphenyl)-2-isopropyl-, hydrochloride;Iproveratril hydrochloride;Isoptin, hydrochloride;Verapamil hydrochloride;Izoptin hydrochloride;Manidon;Finoptin;LU 20175;Calan;<em>dl</em>-Verapamil hydrochloride;(±)-Verapamil hydrochloride;Verogalid ER;Lekoptin Retard;NSC 657799;Calan SR;Covera HS;Isoptin SR;Verelan;Ravamil SR;Verahexal;Civicor Retard;Veraloc;Civicor;Iso-Card SR;Verelan SR;Ikapress;Calaptin;Hexasoptin Retard;Berkatens;Vasopten;Veramex;Veracaps SR;Azupamil;Apoacor;Apo-Verap;Vasomil;Cordilox SR;Verdilac;Coraver;Dilacoran HTA;Vetrimil;Akilen;Cordilox;Verapin;Caveril;Calaptin 240SR;Ikacor;Securon;Veramil;Cardiabeltin;Flamon;Corpamil;Manidon Retard;Verpal;Hexasoptin;Isoptin Retard;Geangin;Veracor;Anpec;Novo-Veramil;Isoptine;Dilacoran;Univer;Vasolan;Isoptin;Isoptino;Verapress 240SR;Cardibeltin;Drosteakard;Veraptin;Verexamil;Arapamyl;Cardiagutt;Veracim;Quasar;Dignover;NSC 272366;Calaptin 80;2-(3,4-Dimethoxyphenyl)-5-[[2-(3,4-dimethoxyphenyl)ethyl](methyl)amino]-2-(propan-2-yl)pentanenitrile hydrochloride",
    "duplicated_cas_no": "23313-68-0;219944-20-4",
    "SMILES": "C(CCCN(CCC1=CC(OC)=C(OC)C=C1)C)(C(C)C)(C#N)C2=CC(OC)=C(OC)C=C2.Cl",
    "meta_data": {
        "InChI": "InChI=1S/C27H38N2O4.ClH/c1-20(2)27(19-28,22-10-12-24(31-5)26(18-22)33-7)14-8-15-29(3)16-13-21-9-11-23(30-4)25(17-21)32-6;/h9-12,17-18,20H,8,13-16H2,1-7H3;1H",
        "InChIKey": null,
        "Canonical SMILES": "Cl.N#CC(C1=CC=C(OC)C(OC)=C1)(CCCN(C)CCC2=CC=C(OC)C(OC)=C2)C(C)C",
        "Molecular Formula": "C<sub>27</sub>H<sub>38</sub>N<sub>2</sub>O<sub>4</sub>.ClH",
        "Molecular Mass": "",
        "Melting Point": "131-133 °C"
    }
}