{
    "cas_no": "92340-57-3",
    "key_name": "Hydroxyomeprazole",
    "cn_name": "5-羟基奥美拉唑;[4-甲氧基-6-[(6-甲氧基-1H-苯并咪唑-2-基)亚磺酰甲基]-5-甲基吡啶-3-基]甲醇;",
    "alternate_name": "3-Pyridinemethanol, 4-methoxy-6-[[(6-methoxy-1<em>H</em>-benzimidazol-2-yl)sulfinyl]methyl]-5-methyl-;3-Pyridinemethanol, 4-methoxy-6-[[(5-methoxy-1<em>H</em>-benzimidazol-2-yl)sulfinyl]methyl]-5-methyl-;4-Methoxy-6-[[(6-methoxy-1<em>H</em>-benzimidazol-2-yl)sulfinyl]methyl]-5-methyl-3-pyridinemethanol;Hydroxyomeprazole;5-Hydroxyomeprazole;5-Methoxy-2-[[(4-methoxy-3-methyl-5-hydroxymethyl-2-pyridinyl)methyl]sulfinyl]-1<em>H</em>-benzimidazole",
    "duplicated_cas_no": "",
    "SMILES": "S(CC1=C(C)C(OC)=C(CO)C=N1)(=O)C=2NC=3C(N2)=CC(OC)=CC3",
    "meta_data": {
        "InChI": "InChI=1S/C17H19N3O4S/c1-10-15(18-7-11(8-21)16(10)24-3)9-25(22)17-19-13-5-4-12(23-2)6-14(13)20-17/h4-7,21H,8-9H2,1-3H3,(H,19,20)",
        "InChIKey": null,
        "Canonical SMILES": "O=S(C1=NC=2C=C(OC)C=CC2N1)CC3=NC=C(C(OC)=C3C)CO",
        "Molecular Formula": "C<sub>17</sub>H<sub>19</sub>N<sub>3</sub>O<sub>4</sub>S",
        "Molecular Mass": "361.42",
        "Melting Point": "136-138 °C"
    }
}