{
    "cas_no": "616-24-0",
    "key_name": "3-Pentanamine",
    "cn_name": "3-氨基戊烷;1-乙基丙胺;3-戊胺;",
    "alternate_name": "3-Pentanamine;Propylamine, 1-ethyl-;3-Aminopentane;1-Ethylpropylamine;3-Pentylamine;NSC 165575",
    "duplicated_cas_no": "",
    "SMILES": "C(CC)(CC)N",
    "meta_data": {
        "InChI": "InChI=1S/C5H13N/c1-3-5(6)4-2/h5H,3-4,6H2,1-2H3",
        "InChIKey": null,
        "Canonical SMILES": "NC(CC)CC",
        "Molecular Formula": "C<sub>5</sub>H<sub>13</sub>N",
        "Molecular Mass": "87.16",
        "Boiling Point": "89 °C",
        "Density": "0.7479 g/cm³ @ Temp: 20 °C"
    }
}