{
    "cas_no": "6157-06-8",
    "key_name": "<span class=\"text-smallcaps\">L</smallcap>-Aspartyl-<smallcap>L</span>-glutamic acid",
    "cn_name": null,
    "alternate_name": "<span class=\"text-smallcaps\">L</smallcap>-Glutamic acid, <smallcap>L</span>-α-aspartyl-;Glutamic acid, <em>N</em>-<span class=\"text-smallcaps\">L</smallcap>-α-aspartyl-, <smallcap>L</span>-;<span class=\"text-smallcaps\">L</smallcap>-Glutamic acid, <em>N</em>-<smallcap>L</span>-α-aspartyl-;<span class=\"text-smallcaps\">L</smallcap>-α-Aspartyl-<smallcap>L</span>-glutamic acid;<span class=\"text-smallcaps\">L</smallcap>-Aspartyl-<smallcap>L</span>-glutamic acid;<em>N</em>-Aspartylglutamic acid;<em>N</em>-Aspartyl-<span class=\"text-smallcaps\">L</span>-glutamic acid;3: PN: WO2008083678 PAGE: 33 claimed protein;16: PN: EP2161028 PAGE: 10 claimed protein;7: PN: US20130196385 SEQID: 7 claimed sequence;57: PN: WO2023003984 SEQID: 67 claimed sequence;16: PN: WO2023056433 PAGE: 60 claimed sequence;2: PN: KR20230041901 SEQID: 2 claimed sequence",
    "duplicated_cas_no": "3106-84-1;911301-68-3",
    "SMILES": "[C@H](NC([C@H](CC(O)=O)N)=O)(CCC(O)=O)C(O)=O",
    "meta_data": {
        "InChI": "InChI=1S/C9H14N2O7/c10-4(3-7(14)15)8(16)11-5(9(17)18)1-2-6(12)13/h4-5H,1-3,10H2,(H,11,16)(H,12,13)(H,14,15)(H,17,18)/t4-,5-/m0/s1",
        "InChIKey": null,
        "Canonical SMILES": "O=C(O)CCC(NC(=O)C(N)CC(=O)O)C(=O)O",
        "Molecular Formula": "C<sub>9</sub>H<sub>14</sub>N<sub>2</sub>O<sub>7</sub>",
        "Molecular Mass": "262.22",
        "Melting Point": "150-155 °C"
    }
}