{
    "cas_no": "66332-96-5",
    "key_name": "Flutolanil",
    "cn_name": "氟酰胺;",
    "alternate_name": "Benzamide, <em>N</em>-[3-(1-methylethoxy)phenyl]-2-(trifluoromethyl)-;<em>N</em>-[3-(1-Methylethoxy)phenyl]-2-(trifluoromethyl)benzamide;3′-Isopropoxy-2-trifluoromethylbenzanilide;Flutolanil;Moncut;ProStar;Moncoat;Elegia (herbicide)",
    "duplicated_cas_no": "84461-35-8;1135441-60-9",
    "SMILES": "C(NC1=CC(OC(C)C)=CC=C1)(=O)C2=C(C(F)(F)F)C=CC=C2",
    "meta_data": {
        "InChI": "InChI=1S/C17H16F3NO2/c1-11(2)23-13-7-5-6-12(10-13)21-16(22)14-8-3-4-9-15(14)17(18,19)20/h3-11H,1-2H3,(H,21,22)",
        "InChIKey": null,
        "Canonical SMILES": "O=C(NC=1C=CC=C(OC(C)C)C1)C=2C=CC=CC2C(F)(F)F",
        "Molecular Formula": "C<sub>17</sub>H<sub>16</sub>F<sub>3</sub>NO<sub>2</sub>",
        "Molecular Mass": "323.31",
        "Melting Point": "102 °C",
        "Density": "1.3 g/cm³"
    }
}