{
    "cas_no": "21243-18-5",
    "key_name": "6-Fluoro-2,3-dihydro-4<em>H</em>-1-benzothiopyran-4-one",
    "cn_name": null,
    "alternate_name": "4<em>H</em>-1-Benzothiopyran-4-one, 6-fluoro-2,3-dihydro-;Thiochroman-4-one, 6-fluoro-;6-Fluoro-2,3-dihydro-4<em>H</em>-1-benzothiopyran-4-one;6-Fluorothiochroman-4-one;6-Fluoro-2,3-dihydro-4<em>H</em>-thiochromen-4-one;6-Fluoro-2,3-dihydro-4<em>H</em>-[1]benzothiopyran-4-one",
    "duplicated_cas_no": "",
    "SMILES": "O=C1C=2C(=CC=C(F)C2)SCC1",
    "meta_data": {
        "InChI": "InChI=1S/C9H7FOS/c10-6-1-2-9-7(5-6)8(11)3-4-12-9/h1-2,5H,3-4H2",
        "InChIKey": null,
        "Canonical SMILES": "O=C1C2=CC(F)=CC=C2SCC1",
        "Molecular Formula": "C<sub>9</sub>H<sub>7</sub>FOS",
        "Molecular Mass": "182.21",
        "Melting Point": "96-97 °C"
    }
}