{
    "cas_no": "637-90-1",
    "key_name": "9-Oxabicyclo[6.1.0]non-4-ene",
    "cn_name": "1,2-环氧基-5-环辛烯;",
    "alternate_name": "9-Oxabicyclo[6.1.0]non-4-ene;1,5-Cyclooctadiene monoepoxide;5,6-Epoxy-1-cyclooctene;1,2-Epoxy-5-cyclooctene;NSC 61254;1,5-Cyclooctadiene monoxide;5,6-Epoxycyclooctene;Cyclooctene monoepoxide",
    "duplicated_cas_no": "31598-71-7",
    "SMILES": "C12C(O1)CCC=CCC2",
    "meta_data": {
        "InChI": "InChI=1S/C8H12O/c1-2-4-6-8-7(9-8)5-3-1/h1-2,7-8H,3-6H2",
        "InChIKey": null,
        "Canonical SMILES": "O1C2CCC=CCCC12",
        "Molecular Formula": "C<sub>8</sub>H<sub>12</sub>O",
        "Molecular Mass": "124.18",
        "Boiling Point": "73-74 °C @ Press: 12 Torr"
    }
}