{
    "cas_no": "6242-98-4",
    "key_name": "4-Bromo-4′-nitro-1,1′-biphenyl",
    "cn_name": null,
    "alternate_name": "1,1′-Biphenyl, 4-bromo-4′-nitro-;Biphenyl, 4-bromo-4′-nitro-;4-Bromo-4′-nitro-1,1′-biphenyl;4-Bromo-4′-nitrobiphenyl;NSC 32424;4-(4-Bromophenyl)nitrobenzene;1-(4-Bromophenyl)-4-nitrobenzene",
    "duplicated_cas_no": "",
    "SMILES": "N(=O)(=O)C1=CC=C(C=C1)C2=CC=C(Br)C=C2",
    "meta_data": {
        "InChI": "InChI=1S/C12H8BrNO2/c13-11-5-1-9(2-6-11)10-3-7-12(8-4-10)14(15)16/h1-8H",
        "InChIKey": null,
        "Canonical SMILES": "O=N(=O)C1=CC=C(C=C1)C=2C=CC(Br)=CC2",
        "Molecular Formula": "C<sub>12</sub>H<sub>8</sub>BrNO<sub>2</sub>",
        "Molecular Mass": "278.10",
        "Melting Point": "173 °C"
    }
}