{
    "cas_no": "55860-22-5",
    "key_name": "2-Chloro-<em>N</em>-(2-methoxyphenyl)acetamide",
    "cn_name": null,
    "alternate_name": "Acetamide, 2-chloro-<em>N</em>-(2-methoxyphenyl)-;<em>o</em>-Acetanisidide, 2-chloro-;2-Chloro-<em>N</em>-(2-methoxyphenyl)acetamide;2-Chloro-<em>o</em>-acetanisidide;<em>N</em>-Chloroacetyl-2-methoxyaniline;<em>N</em>-(2-Anisyl)chloroacetamide;NSC 8284;<em>N</em>-(2-Methoxyphenyl)-2-chloroacetamide",
    "duplicated_cas_no": "",
    "SMILES": "N(C(CCl)=O)C1=C(OC)C=CC=C1",
    "meta_data": {
        "InChI": "InChI=1S/C9H10ClNO2/c1-13-8-5-3-2-4-7(8)11-9(12)6-10/h2-5H,6H2,1H3,(H,11,12)",
        "InChIKey": null,
        "Canonical SMILES": "O=C(NC=1C=CC=CC1OC)CCl",
        "Molecular Formula": "C<sub>9</sub>H<sub>10</sub>ClNO<sub>2</sub>",
        "Molecular Mass": "199.63",
        "Melting Point": "51 °C"
    }
}