{
    "cas_no": "23578-51-0",
    "key_name": "2,7-Octadien-1-ol",
    "cn_name": "2,7-辛二醇;2,7-辛二烯-1-醇;",
    "alternate_name": "2,7-Octadien-1-ol;1-Hydroxy-2,7-octadiene;2,7-Octadienyl-1-ol",
    "duplicated_cas_no": "",
    "SMILES": "C(CCC=C)C=CCO",
    "meta_data": {
        "InChI": "InChI=1S/C8H14O/c1-2-3-4-5-6-7-8-9/h2,6-7,9H,1,3-5,8H2",
        "InChIKey": null,
        "Canonical SMILES": "OCC=CCCCC=C",
        "Molecular Formula": "C<sub>8</sub>H<sub>14</sub>O",
        "Molecular Mass": "126.20",
        "Boiling Point": "75-76 °C @ Press: 4 Torr"
    }
}