{
    "cas_no": "877-44-1",
    "key_name": "1,2,4-Triethylbenzene",
    "cn_name": null,
    "alternate_name": "Benzene, 1,2,4-triethyl-;1,2,4-Triethylbenzene",
    "duplicated_cas_no": "",
    "SMILES": "C(C)C1=C(CC)C=CC(CC)=C1",
    "meta_data": {
        "InChI": "InChI=1S/C12H18/c1-4-10-7-8-11(5-2)12(6-3)9-10/h7-9H,4-6H2,1-3H3",
        "InChIKey": null,
        "Canonical SMILES": "C=1C=C(C(=CC1CC)CC)CC",
        "Molecular Formula": "C<sub>12</sub>H<sub>18</sub>",
        "Molecular Mass": "162.27",
        "Boiling Point": "218 °C"
    }
}