{
    "cas_no": "6578-06-9",
    "key_name": "5-Bromo-4-chloro-3-indolyl phosphate <em>p</em>-toluidine salt",
    "cn_name": "5-溴-4-氯-3-吲哚基磷酸酯对甲苯胺盐;",
    "alternate_name": "1<em>H</em>-Indol-3-ol, 5-bromo-4-chloro-, 3-(dihydrogen phosphate), compd. with 4-methylbenzenamine (1:1);Indol-3-ol, 5-bromo-4-chloro-, dihydrogen phosphate (ester), compd. with <em>p</em>-toluidine (1:1);1<em>H</em>-Indol-3-ol, 5-bromo-4-chloro-, dihydrogen phosphate (ester), compd. with 4-methylbenzenamine (1:1);Indol-3-ol, 5-bromo-4-chloro-, dihydrogen phosphate, compd. with <em>p</em>-toluidine;<em>p</em>-Toluidine, compd. with 5-bromo-4-chloroindol-3-ol dihydrogen phosphate (ester) (1:1);Benzenamine, 4-methyl-, compd. with 5-bromo-4-chloro-1<em>H</em>-indol-3-yl dihydrogen phosphate (1:1);5-Bromo-4-chloro-3-indolol phosphate mono-<em>p</em>-toluidine salt;5-Bromo-4-chloro-3-indolyl phosphate <em>p</em>-toluidine salt",
    "duplicated_cas_no": "",
    "SMILES": "O(P(=O)(O)O)C=1C=2C(NC1)=CC=C(Br)C2Cl.CC1=CC=C(N)C=C1",
    "meta_data": {
        "InChI": "InChI=1S/C8H6BrClNO4P.C7H9N/c9-4-1-2-5-7(8(4)10)6(3-11-5)15-16(12,13)14;1-6-2-4-7(8)5-3-6/h1-3,11H,(H2,12,13,14);2-5H,8H2,1H3",
        "InChIKey": null,
        "Canonical SMILES": "O=P(O)(O)OC1=CNC=2C=CC(Br)=C(Cl)C12.NC1=CC=C(C=C1)C",
        "Molecular Formula": "C<sub>8</sub>H<sub>6</sub>BrClNO<sub>4</sub>P.C<sub>7</sub>H<sub>9</sub>N",
        "Molecular Mass": "",
        "Melting Point": "194-195 °C"
    }
}