{
    "cas_no": "98534-80-6",
    "key_name": "1-(4-Chlorophenyl)-5-(trifluoromethyl)-1<em>H</em>-pyrazole-4-carboxylic acid",
    "cn_name": null,
    "alternate_name": "1<em>H</em>-Pyrazole-4-carboxylic acid, 1-(4-chlorophenyl)-5-(trifluoromethyl)-;1-(4-Chlorophenyl)-5-(trifluoromethyl)-1<em>H</em>-pyrazole-4-carboxylic acid;1-(4-Chlorophenyl)-5-trifluoromethyl-1<em>H</em>-pyrazole-4-carboxylic acid;2-(4-Chlorophenyl)-3-(trifluoromethyl)-2<em>H</em>-pyrazole-4-carboxylic acid;2-(4-Chlorophenyl)-3-(trifluoromethyl)pyrazole-4-carboxylic acid",
    "duplicated_cas_no": "2413482-28-5",
    "SMILES": "C(F)(F)(F)C=1N(N=CC1C(O)=O)C2=CC=C(Cl)C=C2",
    "meta_data": {
        "InChI": "InChI=1S/C11H6ClF3N2O2/c12-6-1-3-7(4-2-6)17-9(11(13,14)15)8(5-16-17)10(18)19/h1-5H,(H,18,19)",
        "InChIKey": null,
        "Canonical SMILES": "O=C(O)C=1C=NN(C2=CC=C(Cl)C=C2)C1C(F)(F)F",
        "Molecular Formula": "C<sub>11</sub>H<sub>6</sub>ClF<sub>3</sub>N<sub>2</sub>O<sub>2</sub>",
        "Molecular Mass": "290.63",
        "Melting Point": "136-138 °C"
    }
}