{
    "cas_no": "80-70-6",
    "key_name": "1,1,3,3-Tetramethylguanidine",
    "cn_name": "四甲基胍;1,1,3,3-四甲基胍;",
    "alternate_name": "Guanidine, <em>N</em>,<em>N</em>,<em>N</em>′,<em>N</em>′-tetramethyl-;Guanidine, 1,1,3,3-tetramethyl-;<em>N</em>,<em>N</em>,<em>N</em>′,<em>N</em>′-Tetramethylguanidine;1,1,3,3-Tetramethylguanidine;Tetramethylguanidine;<em>N</em><sup>1</sup>,<em>N</em><sup>1</sup>,<em>N</em><sup>3</sup>,<em>N</em><sup>3</sup>-Tetramethylguanidine;NSC 148309;PC-CAT TMG;Polycat 201",
    "duplicated_cas_no": "142118-43-2;197451-33-5;1708970-41-5",
    "SMILES": "C(N(C)C)(N(C)C)=N",
    "meta_data": {
        "InChI": "InChI=1S/C5H13N3/c1-7(2)5(6)8(3)4/h6H,1-4H3",
        "InChIKey": null,
        "Canonical SMILES": "N=C(N(C)C)N(C)C",
        "Molecular Formula": "C<sub>5</sub>H<sub>13</sub>N<sub>3</sub>",
        "Molecular Mass": "115.18",
        "Boiling Point": "159-160 °C",
        "Density": "0.91 g/cm³ @ Temp: 25 °C"
    }
}