{
    "cas_no": "784-50-9",
    "key_name": "Fluorenone-2-carboxylic acid",
    "cn_name": "9-芴酮-2-羧酸;",
    "alternate_name": "9<em>H</em>-Fluorene-2-carboxylic acid, 9-oxo-;Fluorene-2-carboxylic acid, 9-oxo-;9-Oxo-9<em>H</em>-fluorene-2-carboxylic acid;9-Fluorenone-2-carboxylic acid;Fluorenone-2-carboxylic acid;9-Oxofluorene-2-carboxylic acid;NSC 113321;NSC 81258;2-Carboxyfluoren-9-one",
    "duplicated_cas_no": "52901-18-5",
    "SMILES": "O=C1C=2C(C=3C1=CC=CC3)=CC=C(C(O)=O)C2",
    "meta_data": {
        "InChI": "InChI=1S/C14H8O3/c15-13-11-4-2-1-3-9(11)10-6-5-8(14(16)17)7-12(10)13/h1-7H,(H,16,17)",
        "InChIKey": null,
        "Canonical SMILES": "O=C(O)C=1C=CC=2C=3C=CC=CC3C(=O)C2C1",
        "Molecular Formula": "C<sub>14</sub>H<sub>8</sub>O<sub>3</sub>",
        "Molecular Mass": "224.21",
        "Melting Point": "341 °C"
    }
}