{
    "cas_no": "13629-22-6",
    "key_name": "9<em>H</em>-Fluoren-9-one, hydrazone",
    "cn_name": "9-芴酮腙;",
    "alternate_name": "9<em>H</em>-Fluoren-9-one, hydrazone;Fluoren-9-one, hydrazone;Fluorenone hydrazone;NSC 24099;NSC 90662;Fluoren-9-ylidenehydrazine;(9<em>H</em>-Fluoren-9-ylidene)hydrazine",
    "duplicated_cas_no": "",
    "SMILES": "N(N)=C1C=2C(C=3C1=CC=CC3)=CC=CC2",
    "meta_data": {
        "InChI": "InChI=1S/C13H10N2/c14-15-13-11-7-3-1-5-9(11)10-6-2-4-8-12(10)13/h1-8H,14H2",
        "InChIKey": null,
        "Canonical SMILES": "N(N)=C1C=2C=CC=CC2C=3C=CC=CC13",
        "Molecular Formula": "C<sub>13</sub>H<sub>10</sub>N<sub>2</sub>",
        "Molecular Mass": "194.23",
        "Melting Point": "149 °C"
    }
}