{
    "cas_no": "3411-37-8",
    "key_name": "(+)-Sophoranol",
    "cn_name": null,
    "alternate_name": "1<em>H</em>,5<em>H</em>,10<em>H</em>-Dipyrido[2,1-<em>f</em>:3′,2′,1′-<em>ij</em>][1,6]naphthyridin-10-one, dodecahydro-7a-hydroxy-, (7a<em>R</em>,13a<em>R</em>,13b<em>R</em>,13c<em>R</em>)-;Matrine, 5-hydroxy-;Matridin-15-one, 5-hydroxy-;Sophoranol;(7a<em>R</em>,13a<em>R</em>,13b<em>R</em>,13c<em>R</em>)-Dodecahydro-7a-hydroxy-1<em>H</em>,5<em>H</em>,10<em>H</em>-dipyrido[2,1-<em>f</em>:3′,2′,1′-<em>ij</em>][1,6]naphthyridin-10-one;(+)-Sophoranol;(+)-5α-Hydroxymatrine;5-Hydroxymatrine;1<em>H</em>,5<em>H</em>,10<em>H</em>-Dipyrido[2,1-<em>f</em>:3′,2′,1′-<em>ij</em>][1,6]naphthyridin-10-one, dodecahydro-7a-hydroxy-, [7a<em>R</em>-(7aα,13aβ,13bα,13cα)]-",
    "duplicated_cas_no": "516-19-8;16625-07-3",
    "SMILES": "O[C@@]12[C@]3([C@@]([C@@]4(N(C1)C(=O)CCC4)[H])(CCCN3CCC2)[H])[H]",
    "meta_data": {
        "InChI": "InChI=1S/C15H24N2O2/c18-13-6-1-5-12-11-4-2-8-16-9-3-7-15(19,14(11)16)10-17(12)13/h11-12,14,19H,1-10H2/t11-,12-,14-,15-/m1/s1",
        "InChIKey": null,
        "Canonical SMILES": "O=C1N2CC3(O)CCCN4CCCC(C2CCC1)C43",
        "Molecular Formula": "C<sub>15</sub>H<sub>24</sub>N<sub>2</sub>O<sub>2</sub>",
        "Molecular Mass": "264.36",
        "Melting Point": "171 °C"
    }
}