{
    "cas_no": "1732-08-7",
    "key_name": "Dimethyl pimelate",
    "cn_name": "庚二酸二甲酯;",
    "alternate_name": "Heptanedioic acid, 1,7-dimethyl ester;Pimelic acid, dimethyl ester;Heptanedioic acid, dimethyl ester;Dimethyl pimelate;Dimethyl heptanedioate;Dimethyl 1,7-heptanedioate;NSC 52563",
    "duplicated_cas_no": "",
    "SMILES": "C(CCCCC(OC)=O)C(OC)=O",
    "meta_data": {
        "InChI": "InChI=1S/C9H16O4/c1-12-8(10)6-4-3-5-7-9(11)13-2/h3-7H2,1-2H3",
        "InChIKey": null,
        "Canonical SMILES": "O=C(OC)CCCCCC(=O)OC",
        "Molecular Formula": "C<sub>9</sub>H<sub>16</sub>O<sub>4</sub>",
        "Molecular Mass": "188.22",
        "Boiling Point": "120 °C",
        "Melting Point": "-21 °C"
    }
}