{
    "cas_no": "513-92-8",
    "key_name": "Tetraiodoethylene",
    "cn_name": "四碘乙烯;四碘代乙烯;",
    "alternate_name": "Ethene, 1,1,2,2-tetraiodo-;Ethylene, tetraiodo-;Ethene, tetraiodo-;1,1,2,2-Tetraiodoethene;Diiodoform;Ethylene periodide;Ethylene tetraiodide;Periodoethene;Tetraiodoethylene;Tetraiodoethene;NSC 66408",
    "duplicated_cas_no": "",
    "SMILES": "C(=C(I)I)(I)I",
    "meta_data": {
        "InChI": "InChI=1S/C2I4/c3-1(4)2(5)6",
        "InChIKey": null,
        "Canonical SMILES": "IC(I)=C(I)I",
        "Molecular Formula": "C<sub>2</sub>I<sub>4</sub>",
        "Molecular Mass": "531.64",
        "Melting Point": "187 °C",
        "Density": "2.983 g/cm³ @ Temp: 20 °C"
    }
}