{
    "cas_no": "10366-35-5",
    "key_name": "2-Chloronicotinamide",
    "cn_name": "2-氯烟酰胺;",
    "alternate_name": "3-Pyridinecarboxamide, 2-chloro-;Nicotinamide, 2-chloro-;2-Chloro-3-pyridinecarboxamide;2-Chloronicotinamide",
    "duplicated_cas_no": "",
    "SMILES": "C(N)(=O)C1=C(Cl)N=CC=C1",
    "meta_data": {
        "InChI": "InChI=1S/C6H5ClN2O/c7-5-4(6(8)10)2-1-3-9-5/h1-3H,(H2,8,10)",
        "InChIKey": null,
        "Canonical SMILES": "O=C(N)C1=CC=CN=C1Cl",
        "Molecular Formula": "C<sub>6</sub>H<sub>5</sub>ClN<sub>2</sub>O",
        "Molecular Mass": "156.57",
        "Melting Point": "163-164 °C"
    }
}