{
    "cas_no": "2131-55-7",
    "key_name": "4-Chlorophenyl isothiocyanate",
    "cn_name": null,
    "alternate_name": "Benzene, 1-chloro-4-isothiocyanato-;Isothiocyanic acid, <em>p</em>-chlorophenyl ester;1-Chloro-4-isothiocyanatobenzene;4-Chlorophenyl isothiocyanate;Sch 20350;<em>p</em>-Chlorophenyl isothiocyanate;NSC 20213",
    "duplicated_cas_no": "1869985-70-5;2058089-23-7;2124236-49-1",
    "SMILES": "N(=C=S)C1=CC=C(Cl)C=C1",
    "meta_data": {
        "InChI": "InChI=1S/C7H4ClNS/c8-6-1-3-7(4-2-6)9-5-10/h1-4H",
        "InChIKey": null,
        "Canonical SMILES": "S=C=NC1=CC=C(Cl)C=C1",
        "Molecular Formula": "C<sub>7</sub>H<sub>4</sub>ClNS",
        "Molecular Mass": "169.63",
        "Boiling Point": "249.5 °C",
        "Melting Point": "46 °C"
    }
}