{
    "cas_no": "4857-06-1",
    "key_name": "2-Chlorobenzimidazole",
    "cn_name": "2-氯苯并咪唑;",
    "alternate_name": "1<em>H</em>-Benzimidazole, 2-chloro-;Benzimidazole, 2-chloro-;2-Chloro-1<em>H</em>-benzimidazole;2-Chlorobenzimidazole;NSC 111358;2-Chloro-1<em>H</em>-benzo[<em>d</em>]imidazole;2-Chloro-1<em>H</em>-1,3-benzodiazole",
    "duplicated_cas_no": "",
    "SMILES": "ClC=1NC=2C(N1)=CC=CC2",
    "meta_data": {
        "InChI": "InChI=1S/C7H5ClN2/c8-7-9-5-3-1-2-4-6(5)10-7/h1-4H,(H,9,10)",
        "InChIKey": null,
        "Canonical SMILES": "ClC1=NC=2C=CC=CC2N1",
        "Molecular Formula": "C<sub>7</sub>H<sub>5</sub>ClN<sub>2</sub>",
        "Molecular Mass": "152.58",
        "Melting Point": "212-215 °C"
    }
}