{
    "cas_no": "269410-10-8",
    "key_name": "Methyl 4-methoxy-3-(4,4,5,5-tetramethyl-1,3,2-dioxaborolan-2-yl)benzoate",
    "cn_name": null,
    "alternate_name": "Benzoic acid, 4-methoxy-3-(4,4,5,5-tetramethyl-1,3,2-dioxaborolan-2-yl)-, methyl ester;Methyl 4-methoxy-3-(4,4,5,5-tetramethyl-1,3,2-dioxaborolan-2-yl)benzoate",
    "duplicated_cas_no": "",
    "SMILES": "O(C)C1=C(B2OC(C)(C)C(C)(C)O2)C=C(C(OC)=O)C=C1",
    "meta_data": {
        "InChI": "InChI=1S/C15H21BO5/c1-14(2)15(3,4)21-16(20-14)11-9-10(13(17)19-6)7-8-12(11)18-5/h7-9H,1-6H3",
        "InChIKey": null,
        "Canonical SMILES": "O=C(OC)C1=CC=C(OC)C(=C1)B2OC(C)(C)C(O2)(C)C",
        "Molecular Formula": "C<sub>15</sub>H<sub>21</sub>BO<sub>5</sub>",
        "Molecular Mass": "292.14",
        "Melting Point": "143-144 °C"
    }
}