{
    "cas_no": "7774-44-9",
    "key_name": "Cyclohexyl isovalerate",
    "cn_name": "3-甲基丁酸环己基酯;",
    "alternate_name": "Butanoic acid, 3-methyl-, cyclohexyl ester;Isovaleric acid, cyclohexyl ester;Cyclohexyl isovalerate;Cyclohexyl 3-methylbutanoate;NSC 147480",
    "duplicated_cas_no": "",
    "SMILES": "O(C(CC(C)C)=O)C1CCCCC1",
    "meta_data": {
        "InChI": "InChI=1S/C11H20O2/c1-9(2)8-11(12)13-10-6-4-3-5-7-10/h9-10H,3-8H2,1-2H3",
        "InChIKey": null,
        "Canonical SMILES": "O=C(OC1CCCCC1)CC(C)C",
        "Molecular Formula": "C<sub>11</sub>H<sub>20</sub>O<sub>2</sub>",
        "Molecular Mass": "184.28",
        "Boiling Point": "240-241 °C @ Press: 760 Torr"
    }
}