{
    "cas_no": "28281-49-4",
    "key_name": "3′,4′-(Methylenedioxy)propiophenone",
    "cn_name": "3,4-(亚甲基二氧)苯丙酮;",
    "alternate_name": "1-Propanone, 1-(1,3-benzodioxol-5-yl)-;Propiophenone, 3′,4′-(methylenedioxy)-;1-(1,3-Benzodioxol-5-yl)-1-propanone;3′,4′-(Methylenedioxy)propiophenone;3,4-Methylenedioxyphenyl ethyl ketone;3,4-Methylenedioxypropiophenone;5-Propanoyl-1,3-benzodioxole;NSC 29484;1-(Benz[<em>d</em>][1,3]dioxol-5-yl)propan-1-one;1-(Benzo[<em>d</em>][1,3]dioxol-5-yl)propan-1-one;1-(2<em>H</em>-1,3-Benzodioxol-5-yl)propan-1-one",
    "duplicated_cas_no": "",
    "SMILES": "C(CC)(=O)C=1C=C2C(=CC1)OCO2",
    "meta_data": {
        "InChI": "InChI=1S/C10H10O3/c1-2-8(11)7-3-4-9-10(5-7)13-6-12-9/h3-5H,2,6H2,1H3",
        "InChIKey": null,
        "Canonical SMILES": "O=C(C1=CC=C2OCOC2=C1)CC",
        "Molecular Formula": "C<sub>10</sub>H<sub>10</sub>O<sub>3</sub>",
        "Molecular Mass": "178.18",
        "Boiling Point": "128 °C",
        "Melting Point": "38-39 °C"
    }
}