{
    "cas_no": "116-16-5",
    "key_name": "Hexachloroacetone",
    "cn_name": "六氯丙酮;",
    "alternate_name": "2-Propanone, 1,1,1,3,3,3-hexachloro-;2-Propanone, hexachloro-;1,1,1,3,3,3-Hexachloro-2-propanone;HCA;Hexachloroacetone;1,1,1,3,3,3-Hexachloropropanone;Hexachloropropanone;Bis(trichloromethyl) ketone;Perchloroacetone;Hexachloro-2-propanone;NSC 6852",
    "duplicated_cas_no": "",
    "SMILES": "C(C(Cl)(Cl)Cl)(C(Cl)(Cl)Cl)=O",
    "meta_data": {
        "InChI": "InChI=1S/C3Cl6O/c4-2(5,6)1(10)3(7,8)9",
        "InChIKey": null,
        "Canonical SMILES": "O=C(C(Cl)(Cl)Cl)C(Cl)(Cl)Cl",
        "Molecular Formula": "C<sub>3</sub>Cl<sub>6</sub>O",
        "Molecular Mass": "264.75",
        "Boiling Point": "202-204 °C",
        "Melting Point": "-2 °C",
        "Density": "1.444 g/cm³ @ Temp: 12 °C"
    }
}