{
    "cas_no": "42498-38-4",
    "key_name": "4-Bromo-<em>N</em>-(1,1-dimethylethyl)benzamide",
    "cn_name": null,
    "alternate_name": "Benzamide, 4-bromo-<em>N</em>-(1,1-dimethylethyl)-;4-Bromo-<em>N</em>-(1,1-dimethylethyl)benzamide;4-Bromo-<em>N</em>-(<em>tert</em>-butyl)benzamide;<em>N</em>-<em>tert</em>-Butyl-4-bromobenzamide",
    "duplicated_cas_no": "",
    "SMILES": "C(NC(C)(C)C)(=O)C1=CC=C(Br)C=C1",
    "meta_data": {
        "InChI": "InChI=1S/C11H14BrNO/c1-11(2,3)13-10(14)8-4-6-9(12)7-5-8/h4-7H,1-3H3,(H,13,14)",
        "InChIKey": null,
        "Canonical SMILES": "O=C(NC(C)(C)C)C1=CC=C(Br)C=C1",
        "Molecular Formula": "C<sub>11</sub>H<sub>14</sub>BrNO",
        "Molecular Mass": "256.14",
        "Melting Point": "134.98 °C"
    }
}