{
    "cas_no": "94-08-6",
    "key_name": "Ethyl 4-methylbenzoate",
    "cn_name": "对甲基苯甲酸乙酯;",
    "alternate_name": "Benzoic acid, 4-methyl-, ethyl ester;<em>p</em>-Toluic acid, ethyl ester;Ethyl <em>p</em>-toluate;Ethyl <em>p</em>-methylbenzoate;Ethyl 4-methylbenzoate;4-Methylbenzoic acid ethyl ester;NSC 24767;4-Methyl-1-benzoic acid ethyl ester",
    "duplicated_cas_no": "",
    "SMILES": "C(OCC)(=O)C1=CC=C(C)C=C1",
    "meta_data": {
        "InChI": "InChI=1S/C10H12O2/c1-3-12-10(11)9-6-4-8(2)5-7-9/h4-7H,3H2,1-2H3",
        "InChIKey": null,
        "Canonical SMILES": "O=C(OCC)C1=CC=C(C=C1)C",
        "Molecular Formula": "C<sub>10</sub>H<sub>12</sub>O<sub>2</sub>",
        "Molecular Mass": "164.20",
        "Boiling Point": "232 °C",
        "Melting Point": "131 °C",
        "Density": "1.025 g/cm³ @ Temp: 20 °C"
    }
}