{
    "cas_no": "3689-50-7",
    "key_name": "(±)-Oxomemazine",
    "cn_name": "双氧异丁嗪;双氧异丁嗪;",
    "alternate_name": "10<em>H</em>-Phenothiazine-10-propanamine, <em>N</em>,<em>N</em>,β-trimethyl-, 5,5-dioxide;Phenothiazine, 10-[3-(dimethylamino)-2-methylpropyl]-, 5,5-dioxide;6487 RP;6847 RP;Doxergan;Dysedon;Oxomemazine;Trimeprazine 5,5-dioxide;Oxomemazin;(±)-Oxomemazine;RP 6847;Imakol;Oplex;EXE-TOP",
    "duplicated_cas_no": "156576-01-1",
    "SMILES": "C(C(CN(C)C)C)N1C=2C(S(=O)(=O)C=3C1=CC=CC3)=CC=CC2",
    "meta_data": {
        "InChI": "InChI=1S/C18H22N2O2S/c1-14(12-19(2)3)13-20-15-8-4-6-10-17(15)23(21,22)18-11-7-5-9-16(18)20/h4-11,14H,12-13H2,1-3H3",
        "InChIKey": null,
        "Canonical SMILES": "O=S1(=O)C=2C=CC=CC2N(C=3C=CC=CC31)CC(C)CN(C)C",
        "Molecular Formula": "C<sub>18</sub>H<sub>22</sub>N<sub>2</sub>O<sub>2</sub>S",
        "Molecular Mass": "330.44",
        "Melting Point": "115 °C"
    }
}