{
    "cas_no": "7786-67-6",
    "key_name": "5-Methyl-2-(1-methylethenyl)cyclohexanol",
    "cn_name": "异蒲勒醇;",
    "alternate_name": "Cyclohexanol, 5-methyl-2-(1-methylethenyl)-;<em>p</em>-Menth-8-en-3-ol;5-Methyl-2-(1-methylethenyl)cyclohexanol;NSC 231369;2-Isopropenyl-5-methylcyclohexanol;5-Methyl-2-(1-methylvinyl)cyclohexanol",
    "duplicated_cas_no": "",
    "SMILES": "C(C)(=C)C1C(O)CC(C)CC1",
    "meta_data": {
        "InChI": "InChI=1S/C10H18O/c1-7(2)9-5-4-8(3)6-10(9)11/h8-11H,1,4-6H2,2-3H3",
        "InChIKey": null,
        "Canonical SMILES": "OC1CC(C)CCC1C(=C)C",
        "Molecular Formula": "C<sub>10</sub>H<sub>18</sub>O",
        "Molecular Mass": "154.25",
        "Boiling Point": "90 °C @ Press: 10 Torr",
        "Density": "0.9407 g/cm³ @ Temp: 0 °C"
    }
}