{
    "cas_no": "30484-77-6",
    "key_name": "Flunarizine hydrochloride",
    "cn_name": "盐酸氟桂利嗪;(E)-1-[双(4-氟苯基)甲基]-4-(3-苯基-2-丙烯基)-哌嗪二盐酸盐;",
    "alternate_name": "Piperazine, 1-[bis(4-fluorophenyl)methyl]-4-[(2<em>E</em>)-3-phenyl-2-propen-1-yl]-, hydrochloride (1:2);Piperazine, 1-[bis(<em>p</em>-fluorophenyl)methyl]-4-cinnamyl-, dihydrochloride, (<em>E</em>)-;Piperazine, 1-[bis(4-fluorophenyl)methyl]-4-(3-phenyl-2-propenyl)-, dihydrochloride, (<em>E</em>)-;Piperazine, 1-[bis(4-fluorophenyl)methyl]-4-[(2<em>E</em>)-3-phenyl-2-propenyl]-, dihydrochloride;Flunarizine hydrochloride;Flunarizine dihydrochloride;R 14950;Gradient;Flugeral;Fluxarten;Dinaplex;Issium;Flunagen;Mondus;Flunarl;(<em>E</em>)-1-[Bis(4-fluorophenyl)methyl]-4-cinnamylpiperazine dihydrochloride",
    "duplicated_cas_no": "",
    "SMILES": "C(N1CCN(C/C=C/C2=CC=CC=C2)CC1)(C3=CC=C(F)C=C3)C4=CC=C(F)C=C4.Cl",
    "meta_data": {
        "InChI": "InChI=1S/C26H26F2N2.2ClH/c27-24-12-8-22(9-13-24)26(23-10-14-25(28)15-11-23)30-19-17-29(18-20-30)16-4-7-21-5-2-1-3-6-21;;/h1-15,26H,16-20H2;2*1H/b7-4+;;",
        "InChIKey": null,
        "Canonical SMILES": "Cl.FC1=CC=C(C=C1)C(C2=CC=C(F)C=C2)N3CCN(CC=CC=4C=CC=CC4)CC3",
        "Molecular Formula": "C<sub>26</sub>H<sub>26</sub>F<sub>2</sub>N<sub>2</sub>.2ClH",
        "Molecular Mass": "",
        "Melting Point": "251.5 °C"
    }
}