{
    "cas_no": "28322-40-9",
    "key_name": "Phosphonium, (3-methylbutyl)triphenyl-, bromide (1:1)",
    "cn_name": "三苯基溴化膦异戊酯;",
    "alternate_name": "Phosphonium, (3-methylbutyl)triphenyl-, bromide (1:1);Phosphonium, isopentyltriphenyl-, bromide;Phosphonium, (3-methylbutyl)triphenyl-, bromide;Isopentyltriphenylphosphonium bromide;(3-Methylbutyl)triphenylphosphonium bromide;Isoamyltriphenylphosphonium bromide;(3-Methylbutyl)triphenylphosphanium bromide",
    "duplicated_cas_no": "25713-78-4",
    "SMILES": "[P+](CCC(C)C)(C1=CC=CC=C1)(C2=CC=CC=C2)C3=CC=CC=C3.[Br-]",
    "meta_data": {
        "InChI": "InChI=1S/C23H26P.BrH/c1-20(2)18-19-24(21-12-6-3-7-13-21,22-14-8-4-9-15-22)23-16-10-5-11-17-23;/h3-17,20H,18-19H2,1-2H3;1H/q+1;/p-1",
        "InChIKey": null,
        "Canonical SMILES": "[Br-].C=1C=CC(=CC1)[P+](C=2C=CC=CC2)(C=3C=CC=CC3)CCC(C)C",
        "Molecular Formula": "C<sub>23</sub>H<sub>26</sub>P.Br",
        "Molecular Mass": "",
        "Melting Point": "152-153 °C"
    }
}