{
    "cas_no": "15570-45-3",
    "key_name": "1,1′,1′′,1′′′-(1,3-Cyclopentadiene-1,2,3,4-tetrayl)tetrakis[benzene]",
    "cn_name": "1,2,3,4-四苯基-1,3-环戊二烯;",
    "alternate_name": "Benzene, 1,1′,1′′,1′′′-(1,3-cyclopentadiene-1,2,3,4-tetrayl)tetrakis-;1,3-Cyclopentadiene, 1,2,3,4-tetraphenyl-;Cyclopentadiene, 1,2,3,4-tetraphenyl-;1,1′,1′′,1′′′-(1,3-Cyclopentadiene-1,2,3,4-tetrayl)tetrakis[benzene];1,2,3,4-Tetraphenyl-1,3-cyclopentadiene;1,2,3,4-Tetraphenylcyclopentadiene;TPCP;NSC 72113;(2,3,4-Triphenylcyclopenta-1,3-dien-1-yl)benzene",
    "duplicated_cas_no": "",
    "SMILES": "C=1(C(=C(CC1C2=CC=CC=C2)C3=CC=CC=C3)C4=CC=CC=C4)C5=CC=CC=C5",
    "meta_data": {
        "InChI": "InChI=1S/C29H22/c1-5-13-22(14-6-1)26-21-27(23-15-7-2-8-16-23)29(25-19-11-4-12-20-25)28(26)24-17-9-3-10-18-24/h1-20H,21H2",
        "InChIKey": null,
        "Canonical SMILES": "C=1C=CC(=CC1)C=2C(C=3C=CC=CC3)=C(C=4C=CC=CC4)CC2C=5C=CC=CC5",
        "Molecular Formula": "C<sub>29</sub>H<sub>22</sub>",
        "Molecular Mass": "370.48",
        "Melting Point": "180 °C"
    }
}