{
    "cas_no": "30516-87-1",
    "key_name": "Azidothymidine",
    "cn_name": "齐多夫定;3\"-叠氮-3\"-脱氧胸苷;3\"-叠氮-3\"-脱氧胸甙;",
    "alternate_name": "Thymidine, 3′-azido-3′-deoxy-;3′-Azido-3′-deoxythymidine;Azidothymidine;3′-Deoxy-3′-azidothymidine;AZT;BW-A 509U;AZT (pharmaceutical);Zidovudine;Retrovir;3′-Azidothymidine;NSC 602670;Azitidin;ZDV;Timazid;Retrovir IV;ZVD;3-Azido-3-deoxythymidine;Compound S;Viro-Z;Zido-H;Retrovis;3′-AZT;Combvir",
    "duplicated_cas_no": "399024-19-2;1350915-89-7;1904592-23-9;2471391-52-1",
    "SMILES": "O=C1N([C@H]2C[C@H](N=[N+]=[N-])[C@@H](CO)O2)C=C(C)C(=O)N1",
    "meta_data": {
        "InChI": "InChI=1S/C10H13N5O4/c1-5-3-15(10(18)12-9(5)17)8-2-6(13-14-11)7(4-16)19-8/h3,6-8,16H,2,4H2,1H3,(H,12,17,18)/t6-,7+,8+/m0/s1",
        "InChIKey": null,
        "Canonical SMILES": "[N-]=[N+]=NC1CC(OC1CO)N2C=C(C(=O)NC2=O)C",
        "Molecular Formula": "C<sub>10</sub>H<sub>13</sub>N<sub>5</sub>O<sub>4</sub>",
        "Molecular Mass": "",
        "Melting Point": "106-112 °C"
    }
}