{
    "cas_no": "1003-10-7",
    "key_name": "Thiobutyrolactone",
    "cn_name": "γ--硫代丁内酯;",
    "alternate_name": "2(3<em>H</em>)-Thiophenone, dihydro-;Butyric acid, 4-mercapto-, γ-(thiolactone);Dihydro-2(3<em>H</em>)-thiophenone;γ-Thiobutyrolactone;4-Thiobutyrolactone;Butanoic acid, 4-mercapto-, γ-(thiolactone);Thiacyclopentanone-2;Thiolan-2-one;Tetrahydro-2-thiophenone;Thiacyclopentan-2-one;4-Butyrothiolactone;2-Oxotetrahydrothiophene;Thiobutyrolactone;Tetrahydrothiophene-2-one;NSC 54087;2-Oxothiolane",
    "duplicated_cas_no": "",
    "SMILES": "O=C1CCCS1",
    "meta_data": {
        "InChI": "InChI=1S/C4H6OS/c5-4-2-1-3-6-4/h1-3H2",
        "InChIKey": null,
        "Canonical SMILES": "O=C1SCCC1",
        "Molecular Formula": "C<sub>4</sub>H<sub>6</sub>OS",
        "Molecular Mass": "102.15",
        "Boiling Point": "55-56 °C @ Press: 3 Torr",
        "Melting Point": "138 °C",
        "Density": "1.1778 g/cm³ @ Temp: 20 °C"
    }
}