{
    "cas_no": "844-26-8",
    "key_name": "Bithionol sulfoxide",
    "cn_name": null,
    "alternate_name": "Phenol, 2,2′-sulfinylbis[4,6-dichloro-;2,2′-Sulfinylbis[4,6-dichlorophenol];Bis(2-hydroxy-3,5-dichlorophenyl) sulfoxide;Bis(3,5-dichloro-2-hydroxyphenyl) sulfoxide;Bithionol sulfoxide;2,2′-Dihydroxy-3,3′,5,5′-tetrachlorodiphenyl sulfoxide;Bitin S;3,5,3′,5′-Tetrachloro-2,2′-dihydroxydiphenyl sulfoxide;Distobitin;Disto-5-Cogla;Sulphene;Bithionoloxide;Levacid;NSC 523910;2,4-Dichloro-6-(3,5-dichloro-2-hydroxyphenyl)sulfinylphenol",
    "duplicated_cas_no": "28191-01-7;37372-41-1",
    "SMILES": "S(=O)(C1=C(O)C(Cl)=CC(Cl)=C1)C2=C(O)C(Cl)=CC(Cl)=C2",
    "meta_data": {
        "InChI": "InChI=1S/C12H6Cl4O3S/c13-5-1-7(15)11(17)9(3-5)20(19)10-4-6(14)2-8(16)12(10)18/h1-4,17-18H",
        "InChIKey": null,
        "Canonical SMILES": "O=S(C=1C=C(Cl)C=C(Cl)C1O)C=2C=C(Cl)C=C(Cl)C2O",
        "Molecular Formula": "C<sub>12</sub>H<sub>6</sub>Cl<sub>4</sub>O<sub>3</sub>S",
        "Molecular Mass": "372.05",
        "Melting Point": "220 °C"
    }
}