{
    "cas_no": "5399-03-1",
    "key_name": "2-Iodo-1-methoxy-4-nitrobenzene",
    "cn_name": "2-碘-4-硝基苯甲醚;",
    "alternate_name": "Benzene, 2-iodo-1-methoxy-4-nitro-;Anisole, 2-iodo-4-nitro-;2-Iodo-1-methoxy-4-nitrobenzene;2-Iodo-4-nitroanisole;1-Iodo-2-methoxy-5-nitrobenzene;NSC 3739;3-Iodo-4-methoxy-1-nitrobenzene;3-Iodo-4-(methoxy)nitrobenzene",
    "duplicated_cas_no": "",
    "SMILES": "N(=O)(=O)C1=CC(I)=C(OC)C=C1",
    "meta_data": {
        "InChI": "InChI=1S/C7H6INO3/c1-12-7-3-2-5(9(10)11)4-6(7)8/h2-4H,1H3",
        "InChIKey": null,
        "Canonical SMILES": "O=N(=O)C1=CC=C(OC)C(I)=C1",
        "Molecular Formula": "C<sub>7</sub>H<sub>6</sub>INO<sub>3</sub>",
        "Molecular Mass": "279.03",
        "Melting Point": "94 °C"
    }
}