{
    "cas_no": "98623-16-6",
    "key_name": "4-Amino-<em>N</em>-methylbenzeneethanesulfonamide",
    "cn_name": null,
    "alternate_name": "Benzeneethanesulfonamide, 4-amino-<em>N</em>-methyl-;4-Amino-<em>N</em>-methylbenzeneethanesulfonamide;2-(4-Aminophenyl)ethanesulfonic acid methylamide;<em>N</em>-Methyl-2-(4-aminophenyl)ethanesulfonamide;2-(4-Aminophenyl)-<em>N</em>-methylethanesulfonamide;2-(4-Aminophenyl)-<em>N</em>-methylethane-1-sulfonamide",
    "duplicated_cas_no": "",
    "SMILES": "C(CS(NC)(=O)=O)C1=CC=C(N)C=C1",
    "meta_data": {
        "InChI": "InChI=1S/C9H14N2O2S/c1-11-14(12,13)7-6-8-2-4-9(10)5-3-8/h2-5,11H,6-7,10H2,1H3",
        "InChIKey": null,
        "Canonical SMILES": "O=S(=O)(NC)CCC1=CC=C(N)C=C1",
        "Molecular Formula": "C<sub>9</sub>H<sub>14</sub>N<sub>2</sub>O<sub>2</sub>S",
        "Molecular Mass": "214.28",
        "Melting Point": "126-128 °C"
    }
}