{
    "cas_no": "3395-35-5",
    "key_name": "3,4-Dehydroproline",
    "cn_name": null,
    "alternate_name": "1<em>H</em>-Pyrrole-2-carboxylic acid, 2,5-dihydro-;3-Pyrroline-2-carboxylic acid, <span class=\"text-smallcaps\">DL</span>-;1<em>H</em>-Pyrrole-2-carboxylic acid, 2,5-dihydro-, (±)-;2,5-Dihydro-1<em>H</em>-pyrrole-2-carboxylic acid;3,4-Dehydro-<span class=\"text-smallcaps\">DL</span>-proline;<span class=\"text-smallcaps\">DL</span>-3,4-Dehydroproline;4-Pyrroline-2-carboxylic acid, <span class=\"text-smallcaps\">DL</span>-;3-Pyrroline-2-carboxylic acid;Proline, 3,4-didehydro-;3,4-Dehydroproline;3,4-Didehydroproline;NSC 49883;3,4-Dehydro-<span class=\"text-smallcaps\">D</smallcap>,<smallcap>L</span>-proline",
    "duplicated_cas_no": "3220-74-4;28874-39-7",
    "SMILES": "C(O)(=O)C1C=CCN1",
    "meta_data": {
        "InChI": "InChI=1S/C5H7NO2/c7-5(8)4-2-1-3-6-4/h1-2,4,6H,3H2,(H,7,8)",
        "InChIKey": null,
        "Canonical SMILES": "O=C(O)C1C=CCN1",
        "Molecular Formula": "C<sub>5</sub>H<sub>7</sub>NO<sub>2</sub>",
        "Molecular Mass": "113.11",
        "Melting Point": "236-237 °C"
    }
}