{
    "cas_no": "30319-05-2",
    "key_name": "3-Bromo-2-methylthiophene",
    "cn_name": null,
    "alternate_name": "Thiophene, 3-bromo-2-methyl-;3-Bromo-2-methylthiophene;NSC 69783;2-Methyl-3-bromothiophene",
    "duplicated_cas_no": "",
    "SMILES": "BrC1=C(C)SC=C1",
    "meta_data": {
        "InChI": "InChI=1S/C5H5BrS/c1-4-5(6)2-3-7-4/h2-3H,1H3",
        "InChIKey": null,
        "Canonical SMILES": "BrC=1C=CSC1C",
        "Molecular Formula": "C<sub>5</sub>H<sub>5</sub>BrS",
        "Molecular Mass": "177.06",
        "Boiling Point": "173-179 °C @ Press: 760 Torr"
    }
}