{
    "cas_no": "18166-37-5",
    "key_name": "Hexyltriethoxysilane",
    "cn_name": "正己基三乙氧基硅烷;",
    "alternate_name": "Silane, triethoxyhexyl-;Triethoxyhexylsilane;Hexyltriethoxysilane;HTS-E;Sila-Ace HTS-E;Epokuriito SA;AZ 6171;KBE 3063;KBG 3063;LS 4808;Z 6586;<em>n</em>-Hexyltriethoxysilane;SCA-K 06E",
    "duplicated_cas_no": "329356-67-4",
    "SMILES": "[Si](CCCCCC)(OCC)(OCC)OCC",
    "meta_data": {
        "InChI": "InChI=1S/C12H28O3Si/c1-5-9-10-11-12-16(13-6-2,14-7-3)15-8-4/h5-12H2,1-4H3",
        "InChIKey": null,
        "Canonical SMILES": "O(CC)[Si](OCC)(OCC)CCCCCC",
        "Molecular Formula": "C<sub>12</sub>H<sub>28</sub>O<sub>3</sub>Si",
        "Molecular Mass": "248.43",
        "Boiling Point": "115 °C @ Press: 18 Torr",
        "Density": "0.86 g/cm³"
    }
}