{
    "cas_no": "5418-51-9",
    "key_name": "5-Nitro-2(1<em>H</em>)-pyridinone",
    "cn_name": "2-羟基-5-硝基吡啶;",
    "alternate_name": "2(1<em>H</em>)-Pyridinone, 5-nitro-;2-Pyridinol, 5-nitro-;2-Pyridol, 5-nitro-;5-Nitro-2(1<em>H</em>)-pyridinone;5-Nitro-2-pyridinol;2-Hydroxy-5-nitropyridine;5-Nitro-2-hydroxypyridine;5-Nitro-2-pyridone;5-Nitro-2-pyridinone;5-Nitro-2(1<em>H</em>)-pyridone;NSC 10478;NSC 165495;NSC 165496;NSC 9454",
    "duplicated_cas_no": "6191-11-3",
    "SMILES": "N(=O)(=O)C=1C=CC(=O)NC1",
    "meta_data": {
        "InChI": "InChI=1S/C5H4N2O3/c8-5-2-1-4(3-6-5)7(9)10/h1-3H,(H,6,8)",
        "InChIKey": null,
        "Canonical SMILES": "O=C1C=CC(=CN1)N(=O)=O",
        "Molecular Formula": "C<sub>5</sub>H<sub>4</sub>N<sub>2</sub>O<sub>3</sub>",
        "Molecular Mass": "140.10",
        "Melting Point": "184 °C"
    }
}