{
    "cas_no": "21961-30-8",
    "key_name": "3-Amino-5-chlorobenzoic acid",
    "cn_name": null,
    "alternate_name": "Benzoic acid, 3-amino-5-chloro-;3-Amino-5-chlorobenzoic acid",
    "duplicated_cas_no": "",
    "SMILES": "C(O)(=O)C1=CC(Cl)=CC(N)=C1",
    "meta_data": {
        "InChI": "InChI=1S/C7H6ClNO2/c8-5-1-4(7(10)11)2-6(9)3-5/h1-3H,9H2,(H,10,11)",
        "InChIKey": null,
        "Canonical SMILES": "O=C(O)C=1C=C(Cl)C=C(N)C1",
        "Molecular Formula": "C<sub>7</sub>H<sub>6</sub>ClNO<sub>2</sub>",
        "Molecular Mass": "171.58",
        "Melting Point": "185-250 °C (decomp)"
    }
}