{
    "cas_no": "1733-12-6",
    "key_name": "Cresol red",
    "cn_name": "甲酚红;邻甲酚红;邻甲酚磺酰酞;",
    "alternate_name": "Phenol, 4,4′-(1,1-dioxido-3<em>H</em>-2,1-benzoxathiol-3-ylidene)bis[2-methyl-;<em>o</em>-Cresol, 4,4′-(3<em>H</em>-2,1-benzoxathiol-3-ylidene)di-, <em>S</em>,<em>S</em>-dioxide;<em>o</em>-Cresolsulfonephthalein;Phenol, 4,4′-(3<em>H</em>-2,1-benzoxathiol-3-ylidene)bis[2-methyl-, <em>S</em>,<em>S</em>-dioxide;<em>o</em>-Toluenesulfonic acid, α-hydroxy-α,α-bis(4-hydroxy-<em>m</em>-tolyl)-, γ-sultone;3<em>H</em>-2,1-Benzoxathiole, phenol deriv.;4,4′-(1,1-Dioxido-3<em>H</em>-2,1-benzoxathiol-3-ylidene)bis[2-methylphenol];<em>o</em>-Cresol Red;<em>o</em>-Cresolsulfonphthalein;Cresol red;3′,3′′-Dimethylphenolsulfonephthalein;Cresolsulfophthalein;NSC 7224;<em>m</em>-Cresol red",
    "duplicated_cas_no": "32210-84-7",
    "SMILES": "O=S1(=O)OC(C=2C1=CC=CC2)(C3=CC(C)=C(O)C=C3)C4=CC(C)=C(O)C=C4",
    "meta_data": {
        "InChI": "InChI=1S/C21H18O5S/c1-13-11-15(7-9-18(13)22)21(16-8-10-19(23)14(2)12-16)17-5-3-4-6-20(17)27(24,25)26-21/h3-12,22-23H,1-2H3",
        "InChIKey": null,
        "Canonical SMILES": "O=S1(=O)OC(C2=CC=C(O)C(=C2)C)(C3=CC=C(O)C(=C3)C)C=4C=CC=CC41",
        "Molecular Formula": "C<sub>21</sub>H<sub>18</sub>O<sub>5</sub>S",
        "Molecular Mass": "382.43",
        "Melting Point": "&gt;300 °C"
    }
}