{
    "cas_no": "90481-33-7",
    "key_name": "1,1-Dimethylethyl (3<em>S</em>,4<em>S</em>)-3,4-dihydroxy-1-pyrrolidinecarboxylate",
    "cn_name": null,
    "alternate_name": "1-Pyrrolidinecarboxylic acid, 3,4-dihydroxy-, 1,1-dimethylethyl ester, (3<em>S</em>,4<em>S</em>)-;1-Pyrrolidinecarboxylic acid, 3,4-dihydroxy-, 1,1-dimethylethyl ester, (3<em>S</em>-<em>trans</em>)-;1,1-Dimethylethyl (3<em>S</em>,4<em>S</em>)-3,4-dihydroxy-1-pyrrolidinecarboxylate;(3S,4S)-<em>tert</em>-Butyl 3,4-dihydroxypyrrolidine-1-carboxylate;<em>tert</em>-Butyl (3S,4S)-3,4-dihydroxypyrrolidine-1-carboxylate",
    "duplicated_cas_no": "",
    "SMILES": "C(OC(C)(C)C)(=O)N1C[C@H](O)[C@@H](O)C1",
    "meta_data": {
        "InChI": "InChI=1S/C9H17NO4/c1-9(2,3)14-8(13)10-4-6(11)7(12)5-10/h6-7,11-12H,4-5H2,1-3H3/t6-,7-/m0/s1",
        "InChIKey": null,
        "Canonical SMILES": "O=C(OC(C)(C)C)N1CC(O)C(O)C1",
        "Molecular Formula": "C<sub>9</sub>H<sub>17</sub>NO<sub>4</sub>",
        "Molecular Mass": "203.24",
        "Melting Point": "163-164 °C"
    }
}