{
    "cas_no": "72293-96-0",
    "key_name": "1-[4-[(4-Fluorophenyl)methoxy]phenyl]ethanone",
    "cn_name": null,
    "alternate_name": "Ethanone, 1-[4-[(4-fluorophenyl)methoxy]phenyl]-;1-[4-[(4-Fluorophenyl)methoxy]phenyl]ethanone;1-(4-((4-Fluorobenzyl)oxy)phenyl)ethan-1-one;1-[4-[(4-Fluorophenyl)methoxy]phenyl]ethan-1-one;1-(4-((4-Fluorobenzyl)oxy)phenyl)ethanone",
    "duplicated_cas_no": "",
    "SMILES": "O(CC1=CC=C(F)C=C1)C2=CC=C(C(C)=O)C=C2",
    "meta_data": {
        "InChI": "InChI=1S/C15H13FO2/c1-11(17)13-4-8-15(9-5-13)18-10-12-2-6-14(16)7-3-12/h2-9H,10H2,1H3",
        "InChIKey": null,
        "Canonical SMILES": "O=C(C1=CC=C(OCC2=CC=C(F)C=C2)C=C1)C",
        "Molecular Formula": "C<sub>15</sub>H<sub>13</sub>FO<sub>2</sub>",
        "Molecular Mass": "244.26",
        "Melting Point": "75-77 °C"
    }
}