{
    "cas_no": "475-25-2",
    "key_name": "Hematein",
    "cn_name": "氧化苏木精;",
    "alternate_name": "Benz[<em>b</em>]indeno[1,2-<em>d</em>]pyran-9(6<em>H</em>)-one, 6a,7-dihydro-3,4,6a,10-tetrahydroxy-;Hematein;6a,7-Dihydro-3,4,6a,10-tetrahydroxybenz[<em>b</em>]indeno[1,2-<em>d</em>]pyran-9(6<em>H</em>)-one;Haematein;Hematine;NSC 7333",
    "duplicated_cas_no": "53986-81-5",
    "SMILES": "OC12C(=C3C(C1)=CC(=O)C(O)=C3)C=4C(OC2)=C(O)C(O)=CC4",
    "meta_data": {
        "InChI": "InChI=1S/C16H12O6/c17-10-2-1-8-13-9-4-12(19)11(18)3-7(9)5-16(13,21)6-22-15(8)14(10)20/h1-4,17,19-21H,5-6H2",
        "InChIKey": null,
        "Canonical SMILES": "O=C1C=C2C(C=C1O)=C3C=4C=CC(O)=C(O)C4OCC3(O)C2",
        "Molecular Formula": "C<sub>16</sub>H<sub>12</sub>O<sub>6</sub>",
        "Molecular Mass": "300.26",
        "Melting Point": "250 °C (decomp)"
    }
}