{
    "cas_no": "6554-73-0",
    "key_name": "<em>N</em>-(1,1-Dimethylethyl)-2-methyl-2-propenamide",
    "cn_name": "N-叔丁基甲基酰胺;N-叔丁基甲基酰胺;",
    "alternate_name": "2-Propenamide, <em>N</em>-(1,1-dimethylethyl)-2-methyl-;Acrylamide, <em>N</em>-<em>tert</em>-butyl-2-methyl-;<em>N</em>-(1,1-Dimethylethyl)-2-methyl-2-propenamide;<em>N</em>-<em>tert</em>-Butylmethacrylamide;<em>tert</em>-Butylmethacrylamide",
    "duplicated_cas_no": "125984-65-8",
    "SMILES": "C(NC(C)(C)C)(C(C)=C)=O",
    "meta_data": {
        "InChI": "InChI=1S/C8H15NO/c1-6(2)7(10)9-8(3,4)5/h1H2,2-5H3,(H,9,10)",
        "InChIKey": null,
        "Canonical SMILES": "O=C(NC(C)(C)C)C(=C)C",
        "Molecular Formula": "C<sub>8</sub>H<sub>15</sub>NO",
        "Molecular Mass": "141.21",
        "Boiling Point": "111-112 °C @ Press: 43 Torr",
        "Melting Point": "59 °C"
    }
}