{
    "cas_no": "6100-74-9",
    "key_name": "1-(3-Hydroxy-4-methoxyphenyl)ethanone",
    "cn_name": null,
    "alternate_name": "Ethanone, 1-(3-hydroxy-4-methoxyphenyl)-;Acetophenone, 3′-hydroxy-4′-methoxy-;1-(3-Hydroxy-4-methoxyphenyl)ethanone;Isoacetovanillone;3′-Hydroxy-4′-methoxyacetophenone;2-Methoxy-5-acetylphenol;5-Acetyl-2-methoxyphenol;4′-Methoxy-3′-hydroxyacetophenone;Acetoisovanillone;NSC 30050;4-Acetyl-2-hydroxy-1-methoxybenzene;1-(3-Hydroxy-4-methoxyphenyl)ethan-1-one",
    "duplicated_cas_no": "",
    "SMILES": "C(C)(=O)C1=CC(O)=C(OC)C=C1",
    "meta_data": {
        "InChI": "InChI=1S/C9H10O3/c1-6(10)7-3-4-9(12-2)8(11)5-7/h3-5,11H,1-2H3",
        "InChIKey": null,
        "Canonical SMILES": "O=C(C1=CC=C(OC)C(O)=C1)C",
        "Molecular Formula": "C<sub>9</sub>H<sub>10</sub>O<sub>3</sub>",
        "Molecular Mass": "166.17",
        "Melting Point": "91 °C"
    }
}