{
    "cas_no": "6046-93-1",
    "key_name": "Copper diacetate monohydrate",
    "cn_name": "一水合醋酸铜;一水合乙酸铜;一水醋酸铜;一水乙酸铜;",
    "alternate_name": "Acetic acid, copper(2+) salt, hydrate (2:1:1);Acetic acid, copper(2+) salt, monohydrate;Copper diacetate monohydrate;Cupric acetate monohydrate;Copper(II) acetate monohydrate;Copper(2+) acetate monohydrate;Copper(2+) diacetate monohydrate",
    "duplicated_cas_no": "14914-81-9",
    "SMILES": "C(C)(O)=O.[Cu].O",
    "meta_data": {
        "InChI": "InChI=1S/C2H4O2.Cu.H2O/c1-2(3)4;;/h1H3,(H,3,4);;1H2",
        "InChIKey": null,
        "Canonical SMILES": "[Cu].O=C(O)C.O",
        "Molecular Formula": "C<sub>2</sub>H<sub>4</sub>O<sub>2</sub>.<sup>1</sup>/<sub>2</sub>Cu.<sup>1</sup>/<sub>2</sub>H<sub>2</sub>O",
        "Molecular Mass": "",
        "Boiling Point": "115 °C",
        "Density": "1.882 g/cm³"
    }
}