{
    "cas_no": "45378-62-9",
    "key_name": "2-[(Methylthio)methyl]oxirane",
    "cn_name": "甲硫代环氧丙烷;甲硫基环氧丙烷;甲硫代环氧丙烷;",
    "alternate_name": "Oxirane, 2-[(methylthio)methyl]-;Oxirane, [(methylthio)methyl]-;2-[(Methylthio)methyl]oxirane;Methyl glycidyl thioether;[(Methylthio)methyl]oxirane;2-[(Methylsulfanyl)methyl]oxirane;2-(Methylsulfanylmethyl)oxirane",
    "duplicated_cas_no": "",
    "SMILES": "C(SC)C1CO1",
    "meta_data": {
        "InChI": "InChI=1S/C4H8OS/c1-6-3-4-2-5-4/h4H,2-3H2,1H3",
        "InChIKey": null,
        "Canonical SMILES": "O1CC1CSC",
        "Molecular Formula": "C<sub>4</sub>H<sub>8</sub>OS",
        "Molecular Mass": "104.17",
        "Boiling Point": "48-52 °C @ Press: 20 Torr"
    }
}