{
    "cas_no": "874638-80-9",
    "key_name": "(2<em>R</em>)-2-Deoxy-2-fluoro-2-methyl-<span class=\"text-smallcaps\">D</span>-<em>erythro</em>-pentonic acid γ-lactone 3,5-dibenzoate",
    "cn_name": null,
    "alternate_name": "<span class=\"text-smallcaps\">D</span>-<em>erythro</em>-Pentonic acid, 2-deoxy-2-fluoro-2-methyl-, γ-lactone, 3,5-dibenzoate, (2<em>R</em>)-;(2<em>R</em>)-2-Deoxy-2-fluoro-2-methyl-<span class=\"text-smallcaps\">D</span>-<em>erythro</em>-pentonic acid γ-lactone 3,5-dibenzoate",
    "duplicated_cas_no": "1033394-81-8",
    "SMILES": "C(OC(=O)C1=CC=CC=C1)[C@@H]2[C@@H](OC(=O)C3=CC=CC=C3)[C@@](C)(F)C(=O)O2",
    "meta_data": {
        "InChI": "InChI=1S/C20H17FO6/c1-20(21)16(27-18(23)14-10-6-3-7-11-14)15(26-19(20)24)12-25-17(22)13-8-4-2-5-9-13/h2-11,15-16H,12H2,1H3/t15-,16-,20-/m1/s1",
        "InChIKey": null,
        "Canonical SMILES": "O=C(OCC1OC(=O)C(F)(C)C1OC(=O)C=2C=CC=CC2)C=3C=CC=CC3",
        "Molecular Formula": "C<sub>20</sub>H<sub>17</sub>FO<sub>6</sub>",
        "Molecular Mass": "372.34",
        "Melting Point": "132.9-133.1 °C"
    }
}