{
    "cas_no": "89226-13-1",
    "key_name": "1,1-Dimethylethyl <em>N</em>-(2-amino-2-thioxoethyl)carbamate",
    "cn_name": null,
    "alternate_name": "Carbamic acid, <em>N</em>-(2-amino-2-thioxoethyl)-, 1,1-dimethylethyl ester;Carbamic acid, (2-amino-2-thioxoethyl)-, 1,1-dimethylethyl ester;1,1-Dimethylethyl <em>N</em>-(2-amino-2-thioxoethyl)carbamate;2-(<em>tert</em>-Butylcarbamoyl)thioacetamide;<em>N</em>-<em>tert</em>-Butoxycarbonylglycinethioamide;<em>tert</em>-Butyl (2-amino-2-thioxoethyl)carbamate;[(Thiocarbamoyl)methyl]carbamic acid tert-butyl ester",
    "duplicated_cas_no": "",
    "SMILES": "O(C(NCC(N)=S)=O)C(C)(C)C",
    "meta_data": {
        "InChI": "InChI=1S/C7H14N2O2S/c1-7(2,3)11-6(10)9-4-5(8)12/h4H2,1-3H3,(H2,8,12)(H,9,10)",
        "InChIKey": null,
        "Canonical SMILES": "O=C(OC(C)(C)C)NCC(=S)N",
        "Molecular Formula": "C<sub>7</sub>H<sub>14</sub>N<sub>2</sub>O<sub>2</sub>S",
        "Molecular Mass": "190.26",
        "Melting Point": "125-127 °C"
    }
}