{
    "cas_no": "37942-01-1",
    "key_name": "5-Bromo-2-methoxyphenol",
    "cn_name": "5-溴-2-甲氧基苯酚;5-溴愈创木酚;",
    "alternate_name": "Phenol, 5-bromo-2-methoxy-;5-Bromo-2-methoxyphenol;2-Methoxy-5-bromophenol;3-Hydroxy-4-methoxybromobenzene",
    "duplicated_cas_no": "",
    "SMILES": "O(C)C1=C(O)C=C(Br)C=C1",
    "meta_data": {
        "InChI": "InChI=1S/C7H7BrO2/c1-10-7-3-2-5(8)4-6(7)9/h2-4,9H,1H3",
        "InChIKey": null,
        "Canonical SMILES": "BrC1=CC=C(OC)C(O)=C1",
        "Molecular Formula": "C<sub>7</sub>H<sub>7</sub>BrO<sub>2</sub>",
        "Molecular Mass": "203.03",
        "Boiling Point": "150 °C @ Press: 20 Torr",
        "Melting Point": "62-65 °C"
    }
}