{
    "cas_no": "3458-28-4",
    "key_name": "Mannose",
    "cn_name": "D-(+)-甘露糖;",
    "alternate_name": "<span class=\"text-smallcaps\">D</span>-Mannose;Mannose, <span class=\"text-smallcaps\">D</span>-;Carubinose;Seminose;Mannose;<span class=\"text-smallcaps\">D</span>(+)-Mannose;(+)-Mannose;NSC 26247;Anhydro-mannose;Demannose;CERC 802",
    "duplicated_cas_no": "147-74-0;50986-23-7;50986-24-8;149014-30-2",
    "SMILES": "[C@H]([C@@H]([C@@H](C=O)O)O)([C@@H](CO)O)O",
    "meta_data": {
        "InChI": "InChI=1S/C6H12O6/c7-1-3(9)5(11)6(12)4(10)2-8/h1,3-6,8-12H,2H2/t3-,4-,5-,6-/m1/s1",
        "InChIKey": null,
        "Canonical SMILES": "O=CC(O)C(O)C(O)C(O)CO",
        "Molecular Formula": "C<sub>6</sub>H<sub>12</sub>O<sub>6</sub>",
        "Molecular Mass": "180.16",
        "Melting Point": "132 °C (decomp)",
        "Density": "1.554 g/cm³ @ Temp: -5 °C"
    }
}