{
    "cas_no": "55441-95-7",
    "key_name": "2,2′-[[1,1′-Binaphthalene]-2,2′-diylbis(oxy)]bis[ethanol]",
    "cn_name": null,
    "alternate_name": "Ethanol, 2,2′-[[1,1′-binaphthalene]-2,2′-diylbis(oxy)]bis-;Ethanol, 2,2′-[[1,1′-binaphthalene]-2,2′-diylbis(oxy)]bis-, (±)-;2,2′-[[1,1′-Binaphthalene]-2,2′-diylbis(oxy)]bis[ethanol];2,2′-Bis(2-hydroxyethoxy)-1,1′-binaphthalene;NSC 245024;TBIS-BNE;1,1′-Bi[2-(2-hydroxyethoxy)naphthalene];2,2′-Bis(2-hydroxyethoxy)-1,1′-binaphthyl",
    "duplicated_cas_no": "16325-71-6",
    "SMILES": "O(CCO)C1=C(C2=C(C=C1)C=CC=C2)C=3C4=C(C=CC3OCCO)C=CC=C4",
    "meta_data": {
        "InChI": "InChI=1S/C24H22O4/c25-13-15-27-21-11-9-17-5-1-3-7-19(17)23(21)24-20-8-4-2-6-18(20)10-12-22(24)28-16-14-26/h1-12,25-26H,13-16H2",
        "InChIKey": null,
        "Canonical SMILES": "OCCOC=1C=CC=2C=CC=CC2C1C3=C(OCCO)C=CC=4C=CC=CC43",
        "Molecular Formula": "C<sub>24</sub>H<sub>22</sub>O<sub>4</sub>",
        "Molecular Mass": "374.43",
        "Melting Point": "203-205.5 °C"
    }
}