{
    "cas_no": "13139-16-7",
    "key_name": "<em>tert</em>-Butoxycarbonyl-<span class=\"text-smallcaps\">L</span>-isoleucine",
    "cn_name": "BOC-L-异亮氨酸;N-叔丁氧羰基-L-异亮氨酸;",
    "alternate_name": "<span class=\"text-smallcaps\">L</span>-Isoleucine, <em>N</em>-[(1,1-dimethylethoxy)carbonyl]-;Isoleucine, <em>N</em>-carboxy-, <em>N</em>-<em>tert</em>-butyl ester, <span class=\"text-smallcaps\">L</span>-;<em>N</em>-[(1,1-Dimethylethoxy)carbonyl]-<span class=\"text-smallcaps\">L</span>-isoleucine;<em>tert</em>-Butoxycarbonyl-<span class=\"text-smallcaps\">L</span>-isoleucine;<em>N</em>-(<em>tert</em>-Butoxycarbonyl)-<span class=\"text-smallcaps\">L</span>-isoleucine;<em>N</em>-(<em>tert</em>-Butyloxycarbonyl)-<span class=\"text-smallcaps\">L</span>-isoleucine;<em>N</em>-Carboxyisoleucine <em>N</em>-<em>tert</em>-butyl ester;<em>N</em>-<em>tert</em>-Butoxycarbonylisoleucine;BOC-isoleucine;BOC-<span class=\"text-smallcaps\">L</span>-isoleucine;NSC 334311;<em>N</em>-<em>t</em>-Boc-<span class=\"text-smallcaps\">L</span>-isoleucine;(2<em>S</em>,3<em>S</em>)-2-[(<em>tert</em>-Butoxycarbonyl)amino]-3-methylpentanoic acid;<em>N</em>-Boc-<span class=\"text-smallcaps\">L</span>-isoleucine;(2S,3S)-2-(<em>tert</em>-Butoxycarbonylamino)-3-methylpentanoic acid",
    "duplicated_cas_no": "251308-24-4;444189-87-1;760894-13-1;1055073-60-3;1133711-09-7;1161436-41-4;1236362-46-1;1324010-81-2;1357914-00-1;1396967-46-6;1447604-29-6;1567347-11-8;2242531-25-3;2375242-18-3",
    "SMILES": "[C@@H]([C@H](CC)C)(NC(OC(C)(C)C)=O)C(O)=O",
    "meta_data": {
        "InChI": "InChI=1S/C11H21NO4/c1-6-7(2)8(9(13)14)12-10(15)16-11(3,4)5/h7-8H,6H2,1-5H3,(H,12,15)(H,13,14)/t7-,8-/m0/s1",
        "InChIKey": null,
        "Canonical SMILES": "O=C(OC(C)(C)C)NC(C(=O)O)C(C)CC",
        "Molecular Formula": "C<sub>11</sub>H<sub>21</sub>NO<sub>4</sub>",
        "Molecular Mass": "231.29",
        "Melting Point": "48-52 °C"
    }
}