{
    "cas_no": "387-45-1",
    "key_name": "2-Chloro-6-fluorobenzaldehyde",
    "cn_name": "2-氯-6-氟-苯甲醛;",
    "alternate_name": "Benzaldehyde, 2-chloro-6-fluoro-;2-Chloro-6-fluorobenzaldehyde;2-Fluoro-6-chlorobenzaldehyde;6-Chloro-2-fluorobenzaldehyde",
    "duplicated_cas_no": "",
    "SMILES": "C(=O)C1=C(Cl)C=CC=C1F",
    "meta_data": {
        "InChI": "InChI=1S/C7H4ClFO/c8-6-2-1-3-7(9)5(6)4-10/h1-4H",
        "InChIKey": null,
        "Canonical SMILES": "O=CC=1C(F)=CC=CC1Cl",
        "Molecular Formula": "C<sub>7</sub>H<sub>4</sub>ClFO",
        "Molecular Mass": "158.56",
        "Boiling Point": "104-105 °C",
        "Melting Point": "38.5 °C"
    }
}