{
    "cas_no": "16024-58-1",
    "key_name": "[2-(2-Methoxyethoxy)ethoxy]acetic acid",
    "cn_name": null,
    "alternate_name": "Acetic acid, 2-[2-(2-methoxyethoxy)ethoxy]-;Acetic acid, [2-(2-methoxyethoxy)ethoxy]-;2-[2-(2-Methoxyethoxy)ethoxy]acetic acid;3,6,9-Trioxadecanoic acid;[2-(2-Methoxyethoxy)ethoxy]acetic acid;8-Methoxy-3,6-dioxaoctanoic acid",
    "duplicated_cas_no": "",
    "SMILES": "C(COCCOC)OCC(O)=O",
    "meta_data": {
        "InChI": "InChI=1S/C7H14O5/c1-10-2-3-11-4-5-12-6-7(8)9/h2-6H2,1H3,(H,8,9)",
        "InChIKey": null,
        "Canonical SMILES": "O=C(O)COCCOCCOC",
        "Molecular Formula": "C<sub>7</sub>H<sub>14</sub>O<sub>5</sub>",
        "Molecular Mass": "178.18",
        "Boiling Point": "155-156 °C @ Press: 4 Torr",
        "Density": "1.1492 g/cm³ @ Temp: 20 °C"
    }
}