{
    "cas_no": "81110-73-8",
    "key_name": "Racecadotril",
    "cn_name": "消旋卡多曲;N-[(R,S)-3-乙酰巯基-2-苄基丙酰基)]甘氨酸苄酯;",
    "alternate_name": "Glycine, <em>N</em>-[2-[(acetylthio)methyl]-1-oxo-3-phenylpropyl]-, phenylmethyl ester;Glycine, <em>N</em>-[2-[(acetylthio)methyl]-1-oxo-3-phenylpropyl]-, phenylmethyl ester, (±)-;Acetorphan;Racecadotril;Tiorfan;Redotil;Cadotril;Zedott;Hidrasec",
    "duplicated_cas_no": "81110-60-3",
    "SMILES": "C(CC1=CC=CC=C1)(C(NCC(OCC2=CC=CC=C2)=O)=O)CSC(C)=O",
    "meta_data": {
        "InChI": "InChI=1S/C21H23NO4S/c1-16(23)27-15-19(12-17-8-4-2-5-9-17)21(25)22-13-20(24)26-14-18-10-6-3-7-11-18/h2-11,19H,12-15H2,1H3,(H,22,25)",
        "InChIKey": null,
        "Canonical SMILES": "O=C(OCC=1C=CC=CC1)CNC(=O)C(CSC(=O)C)CC=2C=CC=CC2",
        "Molecular Formula": "C<sub>21</sub>H<sub>23</sub>NO<sub>4</sub>S",
        "Molecular Mass": "385.48",
        "Melting Point": "89 °C"
    }
}