{
    "cas_no": "20782-94-9",
    "key_name": "4-Chloro-2,5-dimethylbenzenamine",
    "cn_name": "4-氯-2,5-二甲基苯胺;",
    "alternate_name": "Benzenamine, 4-chloro-2,5-dimethyl-;2,5-Xylidine, 4-chloro-;4-Chloro-2,5-dimethylbenzenamine;4-Chloro-2,5-dimethylaniline;2,5-Dimethyl-4-chloroaniline",
    "duplicated_cas_no": "",
    "SMILES": "CC1=C(Cl)C=C(C)C(N)=C1",
    "meta_data": {
        "InChI": "InChI=1S/C8H10ClN/c1-5-4-8(10)6(2)3-7(5)9/h3-4H,10H2,1-2H3",
        "InChIKey": null,
        "Canonical SMILES": "ClC=1C=C(C(N)=CC1C)C",
        "Molecular Formula": "C<sub>8</sub>H<sub>10</sub>ClN",
        "Molecular Mass": "155.62",
        "Boiling Point": "135-136 °C @ Press: 15 Torr",
        "Melting Point": "92-93 °C"
    }
}