{
    "cas_no": "42906-19-4",
    "key_name": "4-[Bis(4-methylphenyl)amino]benzaldehyde",
    "cn_name": "4-二对甲苯胺基苯甲醛;4,4\"-二(4-甲苯)氨基苯甲醛;",
    "alternate_name": "Benzaldehyde, 4-[bis(4-methylphenyl)amino]-;4-[Bis(4-methylphenyl)amino]benzaldehyde;4-(Bis-<em>p</em>-tolylamino)benzaldehyde;4-(Di-<em>p</em>-tolylamino)benzaldehyde;4-(<em>N</em>,<em>N</em>-Di-<em>p</em>-tolylamino)benzaldehyde;4-[<em>N</em>,<em>N</em>-Bis(4-methylphenyl)amino]benzaldehyde;<em>N</em>-(4-Formylphenyl)-<em>N</em>,<em>N</em>-bis(4-methylphenyl)amine;4,4′-Dimethyl-4′′-formyltriphenylamine;(<em>p</em>-Formylphenyl)di(<em>p</em>-methylphenyl)amine;<em>N</em>,<em>N</em>-Bis(4-methylphenyl)-4-aminobenzaldehyde;4-[<em>N</em>,<em>N</em>-Di(4-methylphenyl)amino]benzaldehyde;4-(Di[4′-methylphenyl]amino)benzaldehyde",
    "duplicated_cas_no": "",
    "SMILES": "N(C1=CC=C(C=O)C=C1)(C2=CC=C(C)C=C2)C3=CC=C(C)C=C3",
    "meta_data": {
        "InChI": "InChI=1S/C21H19NO/c1-16-3-9-19(10-4-16)22(20-11-5-17(2)6-12-20)21-13-7-18(15-23)8-14-21/h3-15H,1-2H3",
        "InChIKey": null,
        "Canonical SMILES": "O=CC1=CC=C(C=C1)N(C2=CC=C(C=C2)C)C3=CC=C(C=C3)C",
        "Molecular Formula": "C<sub>21</sub>H<sub>19</sub>NO",
        "Molecular Mass": "301.38",
        "Melting Point": "112-113 °C"
    }
}