{
    "cas_no": "4324-37-2",
    "key_name": "2-Methoxypropanoic acid",
    "cn_name": null,
    "alternate_name": "Propanoic acid, 2-methoxy-;Propionic acid, 2-methoxy-;2-Methoxypropanoic acid;α-Methoxypropionic acid;2-Methoxypropionic acid",
    "duplicated_cas_no": "25039-08-1",
    "SMILES": "C(C(O)=O)(OC)C",
    "meta_data": {
        "InChI": "InChI=1S/C4H8O3/c1-3(7-2)4(5)6/h3H,1-2H3,(H,5,6)",
        "InChIKey": null,
        "Canonical SMILES": "O=C(O)C(OC)C",
        "Molecular Formula": "C<sub>4</sub>H<sub>8</sub>O<sub>3</sub>",
        "Molecular Mass": "104.10",
        "Boiling Point": "105-108 °C @ Press: 25 Torr",
        "Melting Point": "128.5 °C",
        "Density": "1.0915 g/cm³ @ Temp: 20 °C"
    }
}