{
    "cas_no": "82985-35-1",
    "key_name": "Bis(trimethoxysilylpropyl)amine",
    "cn_name": null,
    "alternate_name": "1-Propanamine, 3-(trimethoxysilyl)-<em>N</em>-[3-(trimethoxysilyl)propyl]-;3-(Trimethoxysilyl)-<em>N</em>-[3-(trimethoxysilyl)propyl]-1-propanamine;Bis(trimethoxysilylpropyl)amine;TSL 8208;A 1170;Bis[3-(trimethoxysilyl)propyl]amine;<em>N</em>,<em>N</em>-Bis[3-(trimethoxysilyl)propyl]amine;TSL 8206;Silquest A 1170;Bis(γ-trimethoxysilylpropyl)amine;Silquest 1170;D 1189;Dynasylan 1124;Dynasilan 1124;Silquest 9492;KBM 666P;SIB 1833.0;Geniosil GF 192;ZH 1170;LT 1170;KH 1170;Silquest Y 9492;KH 170;KH 170 (coupling agent)",
    "duplicated_cas_no": "154608-42-1;2797259-24-4",
    "SMILES": "[Si](CCCNCCC[Si](OC)(OC)OC)(OC)(OC)OC",
    "meta_data": {
        "InChI": "InChI=1S/C12H31NO6Si2/c1-14-20(15-2,16-3)11-7-9-13-10-8-12-21(17-4,18-5)19-6/h13H,7-12H2,1-6H3",
        "InChIKey": null,
        "Canonical SMILES": "O(C)[Si](OC)(OC)CCCNCCC[Si](OC)(OC)OC",
        "Molecular Formula": "C<sub>12</sub>H<sub>31</sub>NO<sub>6</sub>Si<sub>2</sub>",
        "Molecular Mass": "341.55",
        "Boiling Point": "152 °C @ Press: 4 Torr",
        "Density": "1.040 g/cm³"
    }
}