{
    "cas_no": "30529-70-5",
    "key_name": "2-Chloro-6-methylnicotinic acid",
    "cn_name": null,
    "alternate_name": "3-Pyridinecarboxylic acid, 2-chloro-6-methyl-;Nicotinic acid, 2-chloro-6-methyl-;2-Chloro-6-methyl-3-pyridinecarboxylic acid;2-Chloro-6-methylnicotinic acid",
    "duplicated_cas_no": "",
    "SMILES": "C(O)(=O)C1=C(Cl)N=C(C)C=C1",
    "meta_data": {
        "InChI": "InChI=1S/C7H6ClNO2/c1-4-2-3-5(7(10)11)6(8)9-4/h2-3H,1H3,(H,10,11)",
        "InChIKey": null,
        "Canonical SMILES": "O=C(O)C=1C=CC(=NC1Cl)C",
        "Molecular Formula": "C<sub>7</sub>H<sub>6</sub>ClNO<sub>2</sub>",
        "Molecular Mass": "171.58",
        "Melting Point": "160-162 °C"
    }
}