{
    "cas_no": "21637-25-2",
    "key_name": "Isoquercitrin",
    "cn_name": "异槲皮苷; 异槲皮甙; 槲皮素-3-葡萄糖甙;",
    "alternate_name": "4<em>H</em>-1-Benzopyran-4-one, 2-(3,4-dihydroxyphenyl)-3-(β-<span class=\"text-smallcaps\">D</span>-glucofuranosyloxy)-5,7-dihydroxy-;Flavone, 3,3′,4′,5,7-pentahydroxy-, 3-β-<span class=\"text-smallcaps\">D</span>-glucofuranoside;2-(3,4-Dihydroxyphenyl)-3-(β-<span class=\"text-smallcaps\">D</span>-glucofuranosyloxy)-5,7-dihydroxy-4<em>H</em>-1-benzopyran-4-one;Quercetin 3-(β-<span class=\"text-smallcaps\">D</span>-glucofuranoside);Isoquercitrin;Isoquercitroside;Isotrifoliin;Quercetin 3-<em>O</em>-β-<span class=\"text-smallcaps\">D</span>-glucofuranoside;Isoquercitrozide",
    "duplicated_cas_no": "1399-98-0",
    "SMILES": "O(C1=C(OC=2C(C1=O)=C(O)C=C(O)C2)C3=CC(O)=C(O)C=C3)[C@@H]4O[C@]([C@@H](CO)O)([C@H](O)[C@H]4O)[H]",
    "meta_data": {
        "InChI": "InChI=1S/C21H20O12/c22-6-12(27)19-16(29)17(30)21(32-19)33-20-15(28)14-11(26)4-8(23)5-13(14)31-18(20)7-1-2-9(24)10(25)3-7/h1-5,12,16-17,19,21-27,29-30H,6H2/t12-,16-,17-,19-,21+/m1/s1",
        "InChIKey": null,
        "Canonical SMILES": "O=C1C(OC2OC(C(O)CO)C(O)C2O)=C(OC=3C=C(O)C=C(O)C13)C=4C=CC(O)=C(O)C4",
        "Molecular Formula": "C<sub>21</sub>H<sub>20</sub>O<sub>12</sub>",
        "Molecular Mass": "464.38",
        "Melting Point": "226 °C"
    }
}