{
    "cas_no": "4887-42-7",
    "key_name": "<em>N</em>-(Hydroxymethyl)-3,4,5,6-tetrahydrophthalimide",
    "cn_name": "N-羟甲基-3,4,5,6-四氢邻苯二甲酰亚胺;",
    "alternate_name": "1<em>H</em>-Isoindole-1,3(2<em>H</em>)-dione, 4,5,6,7-tetrahydro-2-(hydroxymethyl)-;1-Cyclohexene-1,2-dicarboximide, <em>N</em>-(hydroxymethyl)-;4,5,6,7-Tetrahydro-2-(hydroxymethyl)-1<em>H</em>-isoindole-1,3(2<em>H</em>)-dione;<em>N</em>-(Hydroxymethyl)-3,4,5,6-tetrahydrophthalimide;<em>N</em>-(Hydroxymethyl)-1-cyclohexene-1,2-dicarboximide;(3,4,5,6-Tetrahydrophthalamido)methanol;(3,4,5,6-Tetrahydrophthalimido)methanol;3,4,5,6-Tetrahydrophthalimidomethyl alcohol;2-(Hydroxymethyl)-4,5,6,7-tetrahydroisoindole-1,3-dione;2-(Hydroxymethyl)-2,3,4,5,6,7-hexahydro-1<em>H</em>-isoindole-1,3-dione;<em>N</em>-Hydroxymethyl-3,4,5,6-tetrahydrophthalamide",
    "duplicated_cas_no": "",
    "SMILES": "O=C1C2=C(C(=O)N1CO)CCCC2",
    "meta_data": {
        "InChI": "InChI=1S/C9H11NO3/c11-5-10-8(12)6-3-1-2-4-7(6)9(10)13/h11H,1-5H2",
        "InChIKey": null,
        "Canonical SMILES": "O=C1C2=C(C(=O)N1CO)CCCC2",
        "Molecular Formula": "C<sub>9</sub>H<sub>11</sub>NO<sub>3</sub>",
        "Molecular Mass": "181.19",
        "Melting Point": "80-82 °C"
    }
}