{
    "cas_no": "25462-17-3",
    "key_name": "2-(Hydroxymethyl)-2-methylpentyl <em>N</em>-(1-methylethyl)carbamate",
    "cn_name": null,
    "alternate_name": "Carbamic acid, <em>N</em>-(1-methylethyl)-, 2-(hydroxymethyl)-2-methylpentyl ester;Carbamic acid, isopropyl-, 2-(hydroxymethyl)-2-methylpentyl ester;Carbamic acid, (1-methylethyl)-, 2-(hydroxymethyl)-2-methylpentyl ester;1,3-Propanediol, 2-methyl-2-propyl-, mono(isopropylcarbamate);2-(Hydroxymethyl)-2-methylpentyl <em>N</em>-(1-methylethyl)carbamate;3-Hydroxy-2-methyl-2-propylpropyl <em>N</em>-(propan-2-yl)carbamate;2-(Hydroxymethyl)-2-methylpentyl isopropyl-carbamate;2-(Hydroxymethyl)-2-methylpentyl isopropylcarbamate",
    "duplicated_cas_no": "",
    "SMILES": "C(COC(NC(C)C)=O)(CCC)(CO)C",
    "meta_data": {
        "InChI": "InChI=1S/C11H23NO3/c1-5-6-11(4,7-13)8-15-10(14)12-9(2)3/h9,13H,5-8H2,1-4H3,(H,12,14)",
        "InChIKey": null,
        "Canonical SMILES": "O=C(OCC(C)(CO)CCC)NC(C)C",
        "Molecular Formula": "C<sub>11</sub>H<sub>23</sub>NO<sub>3</sub>",
        "Molecular Mass": "217.31",
        "Boiling Point": "120-122 °C @ Press: 0.4 Torr"
    }
}