{
    "cas_no": "88-17-5",
    "key_name": "2-(Trifluoromethyl)aniline",
    "cn_name": "邻氨基三氟甲苯;邻三氟甲基苯胺;",
    "alternate_name": "Benzenamine, 2-(trifluoromethyl)-;<em>o</em>-Toluidine, α,α,α-trifluoro-;2-(Trifluoromethyl)benzenamine;α,α,α-Trifluoro-<em>o</em>-toluidine;2-(Trifluoromethyl)aniline;<em>o</em>-Aminobenzotrifluoride;<em>o</em>-(Trifluoromethyl)aniline;2-Aminobenzotrifluoride;2-Amino-α,α,α-trifluorotoluene;NSC 10336;<em>o</em>-(Trifluoromethyl)phenylamine;2-Trifluoromethylphenylamine",
    "duplicated_cas_no": "",
    "SMILES": "C(F)(F)(F)C1=C(N)C=CC=C1",
    "meta_data": {
        "InChI": "InChI=1S/C7H6F3N/c8-7(9,10)5-3-1-2-4-6(5)11/h1-4H,11H2",
        "InChIKey": null,
        "Canonical SMILES": "FC(F)(F)C=1C=CC=CC1N",
        "Molecular Formula": "C<sub>7</sub>H<sub>6</sub>F<sub>3</sub>N",
        "Molecular Mass": "161.12",
        "Boiling Point": "187 °C",
        "Melting Point": "35.5 °C"
    }
}