{
    "cas_no": "121-98-2",
    "key_name": "Methyl 4-methoxybenzoate",
    "cn_name": "4-甲氧基苯甲酸甲酯;对甲氧基苯甲酸甲酯;",
    "alternate_name": "Benzoic acid, 4-methoxy-, methyl ester;<em>p</em>-Anisic acid, methyl ester;Methyl <em>p</em>-methoxybenzoate;Methyl <em>p</em>-anisate;Methyl 4-methoxybenzoate;<em>p</em>-Methoxybenzoic acid methyl ester;4-Methoxybenzoic acid methyl ester;4-(Methoxycarbonyl)anisole;NSC 7324",
    "duplicated_cas_no": "",
    "SMILES": "C(OC)(=O)C1=CC=C(OC)C=C1",
    "meta_data": {
        "InChI": "InChI=1S/C9H10O3/c1-11-8-5-3-7(4-6-8)9(10)12-2/h3-6H,1-2H3",
        "InChIKey": null,
        "Canonical SMILES": "O=C(OC)C1=CC=C(OC)C=C1",
        "Molecular Formula": "C<sub>9</sub>H<sub>10</sub>O<sub>3</sub>",
        "Molecular Mass": "166.17",
        "Boiling Point": "256 °C",
        "Melting Point": "49 °C"
    }
}