{
    "cas_no": "136817-59-9",
    "key_name": "Delavirdine",
    "cn_name": "地拉呋定;地拉韦啶;地来夸明;地拉韦定;1-[3-[(1-甲基乙基)氨基]-2-吡啶基]-4-[[5-[(甲磺酰基)氨基]-1H-吲哚;",
    "alternate_name": "Methanesulfonamide, <em>N</em>-[2-[[4-[3-[(1-methylethyl)amino]-2-pyridinyl]-1-piperazinyl]carbonyl]-1<em>H</em>-indol-5-yl]-;Piperazine, 1-[3-[(1-methylethyl)amino]-2-pyridinyl]-4-[[5-[(methylsulfonyl)amino]-1<em>H</em>-indol-2-yl]carbonyl]-;<em>N</em>-[2-[[4-[3-[(1-Methylethyl)amino]-2-pyridinyl]-1-piperazinyl]carbonyl]-1<em>H</em>-indol-5-yl]methanesulfonamide;U 90152;1-[3-(Isopropylamino)-2-pyridyl]-4-[(5-methanesulfonamidoindol-2-yl)carbonyl]piperazine;Delavirdine;2-[4-(5-Methanesulfonamido-1<em>H</em>-indol-2-ylcarbonyl)-1-piperazinyl]-<em>N</em>-(1-methylethyl)-3-pyridinamine;BHAP-U 90152;MeSH ID: D020008",
    "duplicated_cas_no": "",
    "SMILES": "N(C(C)C)C1=C(N=CC=C1)N2CCN(C(=O)C3=CC=4C(N3)=CC=C(NS(C)(=O)=O)C4)CC2",
    "meta_data": {
        "InChI": "InChI=1S/C22H28N6O3S/c1-15(2)24-19-5-4-8-23-21(19)27-9-11-28(12-10-27)22(29)20-14-16-13-17(26-32(3,30)31)6-7-18(16)25-20/h4-8,13-15,24-26H,9-12H2,1-3H3",
        "InChIKey": null,
        "Canonical SMILES": "O=C(C1=CC=2C=C(C=CC2N1)NS(=O)(=O)C)N3CCN(C4=NC=CC=C4NC(C)C)CC3",
        "Molecular Formula": "C<sub>22</sub>H<sub>28</sub>N<sub>6</sub>O<sub>3</sub>S",
        "Molecular Mass": "456.56",
        "Melting Point": "226-228 °C"
    }
}