{
    "cas_no": "5044-23-5",
    "key_name": "1-(4-Chlorophenyl)-2,5-dimethyl-1<em>H</em>-pyrrole",
    "cn_name": "1-(4-氯苯基)-2,5-二甲基吡咯;2,5-二甲基-1-(4-氯苯基)吡咯;",
    "alternate_name": "1<em>H</em>-Pyrrole, 1-(4-chlorophenyl)-2,5-dimethyl-;Pyrrole, 1-(<em>p</em>-chlorophenyl)-2,5-dimethyl-;1-(4-Chlorophenyl)-2,5-dimethyl-1<em>H</em>-pyrrole;1-(4-Chlorophenyl)-2,5-dimethylpyrrole;<em>N</em>-(<em>p</em>-Chlorophenyl)-2,5-dimethylpyrrole;2,5-Dimethyl-1-(4-chlorophenyl)pyrrole",
    "duplicated_cas_no": "",
    "SMILES": "CC=1N(C(C)=CC1)C2=CC=C(Cl)C=C2",
    "meta_data": {
        "InChI": "InChI=1S/C12H12ClN/c1-9-3-4-10(2)14(9)12-7-5-11(13)6-8-12/h3-8H,1-2H3",
        "InChIKey": null,
        "Canonical SMILES": "ClC1=CC=C(C=C1)N2C(=CC=C2C)C",
        "Molecular Formula": "C<sub>12</sub>H<sub>12</sub>ClN",
        "Molecular Mass": "205.68",
        "Melting Point": "56 °C"
    }
}