{
    "cas_no": "30453-31-7",
    "key_name": "Ethyl propyl disulfide",
    "cn_name": null,
    "alternate_name": "Disulfide, ethyl propyl;Ethyl propyl disulfide;3,4-Dithiaheptane;1-(Ethyldisulfanyl)propane;1-Ethyl-2-propyldisulfane",
    "duplicated_cas_no": "",
    "SMILES": "S(CCC)SCC",
    "meta_data": {
        "InChI": "InChI=1S/C5H12S2/c1-3-5-7-6-4-2/h3-5H2,1-2H3",
        "InChIKey": null,
        "Canonical SMILES": "S(SCCC)CC",
        "Molecular Formula": "C<sub>5</sub>H<sub>12</sub>S<sub>2</sub>",
        "Molecular Mass": "136.28",
        "Boiling Point": "118.5 °C",
        "Melting Point": "-117.04 °C",
        "Density": "0.8324 g/cm³ @ Temp: 25 °C"
    }
}