{
    "cas_no": "603-33-8",
    "key_name": "Triphenylbismuth",
    "cn_name": "三苯基铋;",
    "alternate_name": "Bismuthine, triphenyl-;Triphenylbismuthine;Triphenylbismuth;NSC 465;TPB",
    "duplicated_cas_no": "",
    "SMILES": "[Bi](C1=CC=CC=C1)(C2=CC=CC=C2)C3=CC=CC=C3",
    "meta_data": {
        "InChI": "InChI=1S/3C6H5.Bi/c3*1-2-4-6-5-3-1;/h3*1-5H;",
        "InChIKey": null,
        "Canonical SMILES": "C=1C=CC(=CC1)[Bi](C=2C=CC=CC2)C=3C=CC=CC3",
        "Molecular Formula": "C<sub>18</sub>H<sub>15</sub>Bi",
        "Molecular Mass": "",
        "Boiling Point": "242 °C @ Press: 14 Torr",
        "Melting Point": "77.6 °C",
        "Density": "1.585 g/cm³"
    }
}