{
    "cas_no": "1675-54-3",
    "key_name": "Bisphenol A diglycidyl ether",
    "cn_name": null,
    "alternate_name": "Oxirane, 2,2′-[(1-methylethylidene)bis(4,1-phenyleneoxymethylene)]bis-;Propane, 2,2-bis[<em>p</em>-(2,3-epoxypropoxy)phenyl]-;2,2′-[(1-Methylethylidene)bis(4,1-phenyleneoxymethylene)]bis[oxirane];2,2-Bis[4-(2,3-epoxypropyloxy)phenyl]propane;2,2-Bis(<em>p</em>-glycidyloxyphenyl)propane;Bis(4-hydroxyphenyl)dimethylmethane diglycidyl ether;2,2-Bis(<em>p</em>-hydroxyphenyl)propane diglycidyl ether;2,2-Bis(4-hydroxyphenyl)propane diglycidyl ether;Diglycidyl bisphenol A ether;4,4′-Isopropylidenediphenol diglycidyl ether;Dian diglycidyl ether;Diomethane diglycidyl ether;4,4′-Bis(2,3-epoxypropoxy)diphenyldimethylmethane;Diglycidylbisphenol A;2,2-Bis[<em>p</em>-(2,3-epoxypropoxy)phenyl]propane;Bisphenol A diglycidyl ether;2,2-Bis[4-(2,3-epoxypropoxy)phenyl]propane;2,2-Bis(4-glycidyloxyphenyl)propane;Diglycidyl diphenylolpropane ether;4,4′-Isopropylidenebis[1-(2,3-epoxypropoxy)benzene];2,2-Bis(4′-glycidyloxyphenyl)propane;2,2-Bis(4′-glycidoxyphenyl)propane;Bisphenol A bisglycidyl ether;2,2-Di(4-glycidyloxyphenyl)propane;DGEBA;BADGE;NSC 5022;Bisphenol A bisoxiranyl ether;2,2-Bis(4-glycidoxyphenyl)propane;Badge (crosslinking agent);2,2-Bis[4-(glycidyloxy)pheny]propane;2-[[4-[2-[4-(Oxiran-2-ylmethoxy)phenyl]propan-2-yl]phenoxy]methyl]oxirane;4,4′-Isopropylidenediphenol oxirane;Bisphenol A diglycidyl epoxy ether;E 3000A;EP 6002;XK 0641",
    "duplicated_cas_no": "47424-12-4;64339-51-1;85101-00-4;116161-20-7;170962-54-6;220756-60-5;1018476-17-9;1226906-55-3;1253646-32-0;1416960-74-1;1608493-63-5;1645304-11-5;1826890-03-2;1826890-16-7;1886013-38-2;1889329-63-8",
    "SMILES": "C(C)(C)(C1=CC=C(OCC2CO2)C=C1)C3=CC=C(OCC4CO4)C=C3",
    "meta_data": {
        "InChI": "InChI=1S/C21H24O4/c1-21(2,15-3-7-17(8-4-15)22-11-19-13-24-19)16-5-9-18(10-6-16)23-12-20-14-25-20/h3-10,19-20H,11-14H2,1-2H3",
        "InChIKey": null,
        "Canonical SMILES": "O(C1=CC=C(C=C1)C(C2=CC=C(OCC3OC3)C=C2)(C)C)CC4OC4",
        "Molecular Formula": "C<sub>21</sub>H<sub>24</sub>O<sub>4</sub>",
        "Molecular Mass": "340.41",
        "Boiling Point": "210-230 °C @ Press: 0.05 Torr",
        "Melting Point": "8-12 °C",
        "Density": "1.17 g/cm³"
    }
}