{
    "cas_no": "13029-09-9",
    "key_name": "2,2′-Dibromobiphenyl",
    "cn_name": "2,2\"-二溴联苯基;2,2\"-双溴双苯;",
    "alternate_name": "1,1′-Biphenyl, 2,2′-dibromo-;Biphenyl, 2,2′-dibromo-;2,2′-Dibromo-1,1′-biphenyl;2,2′-Dibromobiphenyl;<em>o</em>,<em>o</em>′-Dibromobiphenyl;2,2′-Dibromodiphenyl;NSC 91566;PBB 4;1-Bromo-2-(2-bromophenyl)benzene",
    "duplicated_cas_no": "",
    "SMILES": "BrC1=C(C=CC=C1)C2=C(Br)C=CC=C2",
    "meta_data": {
        "InChI": "InChI=1S/C12H8Br2/c13-11-7-3-1-5-9(11)10-6-2-4-8-12(10)14/h1-8H",
        "InChIKey": null,
        "Canonical SMILES": "BrC=1C=CC=CC1C=2C=CC=CC2Br",
        "Molecular Formula": "C<sub>12</sub>H<sub>8</sub>Br<sub>2</sub>",
        "Molecular Mass": "312.00",
        "Melting Point": "81 °C"
    }
}