{
    "cas_no": "26218-80-4",
    "key_name": "3-Pyridinecarboxylic acid, 6-methoxy-, methyl ester",
    "cn_name": "6-甲氧基烟酸甲酯;6-甲氧基吡啶-3-甲酸甲酯;",
    "alternate_name": "3-Pyridinecarboxylic acid, 6-methoxy-, methyl ester;Nicotinic acid, 6-methoxy-, methyl ester;Methyl 6-Methoxynicotinate;6-Methoxynicotinic acid methyl ester;Methyl 6-methoxypyridine-3-carboxylate;Methyl 2-methoxypyridine-5-carboxylate",
    "duplicated_cas_no": "",
    "SMILES": "C(OC)(=O)C=1C=CC(OC)=NC1",
    "meta_data": {
        "InChI": "InChI=1S/C8H9NO3/c1-11-7-4-3-6(5-9-7)8(10)12-2/h3-5H,1-2H3",
        "InChIKey": null,
        "Canonical SMILES": "O=C(OC)C1=CN=C(OC)C=C1",
        "Molecular Formula": "C<sub>8</sub>H<sub>9</sub>NO<sub>3</sub>",
        "Molecular Mass": "167.16",
        "Boiling Point": "93 °C @ Press: 3 Torr",
        "Melting Point": "48-49 °C"
    }
}