{
    "cas_no": "6090-95-5",
    "key_name": "Conduritol B epoxide",
    "cn_name": "环己烯四醇β环氧化物;",
    "alternate_name": "<em>myo</em>-Inositol, 1,2-anhydro-;Inositol, 1,2-anhydro-, <em>myo</em>-;<span class=\"text-smallcaps\">DL</span>-<em>myo</em>-Inositol, 1,2-anhydro-;1,2-Anhydro-<em>myo</em>-inositol;Conduritol B epoxide",
    "duplicated_cas_no": "11000-80-9;83829-77-0",
    "SMILES": "O[C@H]1[C@@]2([C@@](O2)([C@H](O)[C@@H](O)[C@@H]1O)[H])[H]",
    "meta_data": {
        "InChI": "InChI=1/C6H10O5/c7-1-2(8)4(10)6-5(11-6)3(1)9/h1-10H/t1-,2-,3+,4+,5-,6+/s2",
        "InChIKey": null,
        "Canonical SMILES": "OC1C(O)C(O)C2OC2C1O",
        "Molecular Formula": "C<sub>6</sub>H<sub>10</sub>O<sub>5</sub>",
        "Molecular Mass": "162.14",
        "Melting Point": "154-155 °C"
    }
}