{
    "cas_no": "1438-94-4",
    "key_name": "1-Furfurylpyrrole",
    "cn_name": "1-糠基吡咯;1-(2-呋喃基甲基)-1H-吡咯;",
    "alternate_name": "1<em>H</em>-Pyrrole, 1-(2-furanylmethyl)-;Pyrrole, 1-furfuryl-;1-(2-Furanylmethyl)-1<em>H</em>-pyrrole;1-Furfurylpyrrole;<em>N</em>-(2-Furfuryl)pyrrole;<em>N</em>-Furfurylpyrrole;1-(2-Furylmethyl)pyrrole;<em>N</em>-(2-Furylmethyl)-1<em>H</em>-Pyrrole;1-(Furan-2-ylmethyl)pyrrole",
    "duplicated_cas_no": "97558-64-0",
    "SMILES": "C(C1=CC=CO1)N2C=CC=C2",
    "meta_data": {
        "InChI": "InChI=1S/C9H9NO/c1-2-6-10(5-1)8-9-4-3-7-11-9/h1-7H,8H2",
        "InChIKey": null,
        "Canonical SMILES": "O1C=CC=C1CN2C=CC=C2",
        "Molecular Formula": "C<sub>9</sub>H<sub>9</sub>NO",
        "Molecular Mass": "147.17",
        "Boiling Point": "76-78 °C"
    }
}