{
    "cas_no": "127799-54-6",
    "key_name": "1,1-Dimethylethyl 2-methylhydrazinecarboxylate",
    "cn_name": null,
    "alternate_name": "Hydrazinecarboxylic acid, 2-methyl-, 1,1-dimethylethyl ester;1,1-Dimethylethyl 2-methylhydrazinecarboxylate;2-Methylhydrazinecarboxylic acid tert-butyl ester;<em>tert</em>-Butyl 2-methylhydrazinecarboxylate;<em>tert</em>-Butyl <em>N</em>-(methylamino)carbamate;1-Boc-2-methylhydrazine;<em>tert</em>-Butyl 2-methylhydrazine-1-carboxylate;<em>tert</em>-Butyl 2-methylhydrazino-1-carboxylate",
    "duplicated_cas_no": "",
    "SMILES": "C(OC(C)(C)C)(NNC)=O",
    "meta_data": {
        "InChI": "InChI=1S/C6H14N2O2/c1-6(2,3)10-5(9)8-7-4/h7H,1-4H3,(H,8,9)",
        "InChIKey": null,
        "Canonical SMILES": "O=C(OC(C)(C)C)NNC",
        "Molecular Formula": "C<sub>6</sub>H<sub>14</sub>N<sub>2</sub>O<sub>2</sub>",
        "Molecular Mass": "146.19",
        "Melting Point": "49-51 °C"
    }
}