{
    "cas_no": "28957-08-6",
    "key_name": "Lasiokaurin",
    "cn_name": null,
    "alternate_name": "Kaur-16-en-15-one, 1-(acetyloxy)-7,20-epoxy-6,7,14-trihydroxy-, (1α,6β,7α,14<em>R</em>)-;Kaur-16-en-15-one, 7α,20-epoxy-1α,6β,7,14-tetrahydroxy-, 1-acetate, (14<em>R</em>)-;6,11b-(Epoxymethano)-6a,9-methano-1<em>H</em>-cyclohepta[<em>a</em>]naphthalene, kaur-16-en-15-one deriv.;(1α,6β,7α,14<em>R</em>)-1-(Acetyloxy)-7,20-epoxy-6,7,14-trihydroxykaur-16-en-15-one;Lasiokaurin;Lasiodin;NSC 250683;Oridonin 1-acetate",
    "duplicated_cas_no": "",
    "SMILES": "O[C@]12[C@]34[C@]([C@]5(C([C@@H]1O)(C(C)(C)CC[C@@H]5OC(C)=O)[H])CO2)(CC[C@]([C@H]3O)(C(=C)C4=O)[H])[H]",
    "meta_data": {
        "InChI": "InChI=1S/C22H30O7/c1-10-12-5-6-13-20-9-28-22(27,21(13,16(10)24)17(12)25)18(26)15(20)19(3,4)8-7-14(20)29-11(2)23/h12-15,17-18,25-27H,1,5-9H2,2-4H3/t12-,13-,14-,15?,17+,18?,20+,21-,22+/m0/s1",
        "InChIKey": null,
        "Canonical SMILES": "O=C(OC1CCC(C)(C)C2C(O)C3(O)OCC12C4CCC5C(=C)C(=O)C43C5O)C",
        "Molecular Formula": "C<sub>22</sub>H<sub>30</sub>O<sub>7</sub>",
        "Molecular Mass": "406.47",
        "Melting Point": "238-239 °C"
    }
}