{
    "cas_no": "26585-14-8",
    "key_name": "1-Ethyl-4-methoxy-9<em>H</em>-pyrido[3,4-<em>b</em>]indole",
    "cn_name": null,
    "alternate_name": "9<em>H</em>-Pyrido[3,4-<em>b</em>]indole, 1-ethyl-4-methoxy-;1-Ethyl-4-methoxy-9<em>H</em>-pyrido[3,4-<em>b</em>]indole;Crenatine;Crenatin;1-Ethyl-4-methoxy-β-carboline",
    "duplicated_cas_no": "",
    "SMILES": "O(C)C1=C2C(=C(CC)N=C1)NC=3C2=CC=CC3",
    "meta_data": {
        "InChI": "InChI=1S/C14H14N2O/c1-3-10-14-13(12(17-2)8-15-10)9-6-4-5-7-11(9)16-14/h4-8,16H,3H2,1-2H3",
        "InChIKey": null,
        "Canonical SMILES": "N=1C=C(OC)C=2C=3C=CC=CC3NC2C1CC",
        "Molecular Formula": "C<sub>14</sub>H<sub>14</sub>N<sub>2</sub>O",
        "Molecular Mass": "226.27",
        "Melting Point": "168 °C"
    }
}