{
    "cas_no": "52712-76-2",
    "key_name": "Bunazosin hydrochloride",
    "cn_name": "盐酸布那唑嗪;1-[4-(4-氨基-6,7-二甲氧基喹唑啉-2-基)-1,4-二氮杂环庚烷-1-基]丁-1-酮盐酸盐;",
    "alternate_name": "1-Butanone, 1-[4-(4-amino-6,7-dimethoxy-2-quinazolinyl)hexahydro-1<em>H</em>-1,4-diazepin-1-yl]-, hydrochloride (1:1);1<em>H</em>-1,4-Diazepine, 1-(4-amino-6,7-dimethoxy-2-quinazolinyl)hexahydro-4-(1-oxobutyl)-, monohydrochloride;E 643;DDQ;DDQ (pharmaceutical);Bunazosin hydrochloride;Detantol;1-(4-(4-Imino-6,7-dimethoxy-3,4-dihydroquinazolin-2-yl)-1,4-diazepan-1-yl)butan-1-one hydrochloride;1-(4-(4-Amino-6,7-dimethoxyquinazolin-2-yl)-1,4-diazepan-1-yl)butan-1-one hydrochloride",
    "duplicated_cas_no": "",
    "SMILES": "NC=1C2=C(N=C(N1)N3CCN(C(CCC)=O)CCC3)C=C(OC)C(OC)=C2.Cl",
    "meta_data": {
        "InChI": "InChI=1S/C19H27N5O3.ClH/c1-4-6-17(25)23-7-5-8-24(10-9-23)19-21-14-12-16(27-3)15(26-2)11-13(14)18(20)22-19;/h11-12H,4-10H2,1-3H3,(H2,20,21,22);1H",
        "InChIKey": null,
        "Canonical SMILES": "Cl.O=C(N1CCN(C=2N=C(N)C=3C=C(OC)C(OC)=CC3N2)CCC1)CCC",
        "Molecular Formula": "C<sub>19</sub>H<sub>27</sub>N<sub>5</sub>O<sub>3</sub>.ClH",
        "Molecular Mass": "",
        "Melting Point": "280-282 °C"
    }
}