{
    "cas_no": "1447-14-9",
    "key_name": "2,2-Dichloro-1-methylcyclopropanecarboxylic acid",
    "cn_name": null,
    "alternate_name": "Cyclopropanecarboxylic acid, 2,2-dichloro-1-methyl-;2,2-Dichloro-1-methylcyclopropanecarboxylic acid;2,2-Dichloro-1-methylcyclopropane-1-carboxylic acid",
    "duplicated_cas_no": "117221-86-0",
    "SMILES": "C(O)(=O)C1(C)C(Cl)(Cl)C1",
    "meta_data": {
        "InChI": "InChI=1S/C5H6Cl2O2/c1-4(3(8)9)2-5(4,6)7/h2H2,1H3,(H,8,9)",
        "InChIKey": null,
        "Canonical SMILES": "O=C(O)C1(C)CC1(Cl)Cl",
        "Molecular Formula": "C<sub>5</sub>H<sub>6</sub>Cl<sub>2</sub>O<sub>2</sub>",
        "Molecular Mass": "169.01",
        "Boiling Point": "85 °C @ Press: 8 Torr",
        "Melting Point": "60-61 °C"
    }
}