{
    "cas_no": "3843-74-1",
    "key_name": "Methyl caffeate",
    "cn_name": null,
    "alternate_name": "2-Propenoic acid, 3-(3,4-dihydroxyphenyl)-, methyl ester;Cinnamic acid, 3,4-dihydroxy-, methyl ester;Methyl caffeate;Caffeic acid methyl ester;Methyl 3,4-dihydroxycinnamate;Methyl caffeoate",
    "duplicated_cas_no": "",
    "SMILES": "C(=CC(OC)=O)C1=CC(O)=C(O)C=C1",
    "meta_data": {
        "InChI": "InChI=1S/C10H10O4/c1-14-10(13)5-3-7-2-4-8(11)9(12)6-7/h2-6,11-12H,1H3",
        "InChIKey": null,
        "Canonical SMILES": "O=C(OC)C=CC1=CC=C(O)C(O)=C1",
        "Molecular Formula": "C<sub>10</sub>H<sub>10</sub>O<sub>4</sub>",
        "Molecular Mass": "194.18",
        "Boiling Point": "112-115 °C @ Press: 1 x 10<sup>-3</sup> Torr",
        "Melting Point": "152-153 °C"
    }
}