{
    "cas_no": "97-53-0",
    "key_name": "Eugenol",
    "cn_name": "丁香酚;2-甲氧基-4-烯丙基酚;4-烯丙基愈疮木酚;4-烯丙基-2-甲氧基苯酚;",
    "alternate_name": "Phenol, 2-methoxy-4-(2-propen-1-yl)-;Phenol, 4-allyl-2-methoxy-;Phenol, 2-methoxy-4-(2-propenyl)-;2-Methoxy-4-(2-propen-1-yl)phenol;4-Allylguaiacol;4-Allyl-2-methoxyphenol;Caryophyllic acid;Eugenic acid;Eugenol;<em>p</em>-Allylguaiacol;<em>p</em>-Eugenol;2-Methoxy-4-allylphenol;4-Hydroxy-3-methoxyallylbenzene;2-Methoxy-1-hydroxy-4-allylbenzene;4-Allyl-1-hydroxy-2-methoxybenzene;1-Allyl-4-hydroxy-3-methoxybenzene;2-Hydroxy-5-allylanisole;3-(4-Hydroxy-3-methoxyphenyl)-1-propene;2-Methoxy-4-(2′-propenyl)phenol;3-(3-Methoxy-4-hydroxyphenyl)propene;2-Methoxy-4-(2-propenyl)phenol;Allylguaiacol;NSC 209525;NSC 8895;Dentogum;Bioxeda;2-Methoxy-4-[2-allyl]phenol;AQUI-S 20E;4-Allenylguaiacol;5-Allylguaiacol;1-Allyl-3-methoxy-4-hydroxybenzene;MeSH ID: D005054",
    "duplicated_cas_no": "",
    "SMILES": "O(C)C1=CC(CC=C)=CC=C1O",
    "meta_data": {
        "InChI": "InChI=1S/C10H12O2/c1-3-4-8-5-6-9(11)10(7-8)12-2/h3,5-7,11H,1,4H2,2H3",
        "InChIKey": null,
        "Canonical SMILES": "OC1=CC=C(C=C1OC)CC=C",
        "Molecular Formula": "C<sub>10</sub>H<sub>12</sub>O<sub>2</sub>",
        "Molecular Mass": "164.20",
        "Boiling Point": "253.2 °C @ Press: 760 Torr",
        "Melting Point": "-9.2--9.1 °C",
        "Density": "1.0664 g/cm³ @ Temp: 20 °C"
    }
}