{
    "cas_no": "764-42-1",
    "key_name": "(2<em>E</em>)-2-Butenedinitrile",
    "cn_name": "富马酸腈;反丁烯二腈;富马二腈;丁烯二腈;富马腈;反式-1,2-二氰基乙烯;富马酸腈;富马腈/丁烯二腈;富马二腈/;",
    "alternate_name": "2-Butenedinitrile, (2<em>E</em>)-;Fumaronitrile;2-Butenedinitrile, (<em>E</em>)-;(2<em>E</em>)-2-Butenedinitrile;<em>trans</em>-Dicyanoethylene;Fumaric nitrile;<em>trans</em>-1,2-Dicyanoethylene;Fumarodinitrile;<em>trans</em>-1,2-Dicyanoethene;(<em>E</em>)-1,2-Dicyanoethylene;<em>trans</em>-Butenedinitrile;<em>trans</em>-Dicyanobutene;Fumaric dinitrile;NSC 17555;(<em>E</em>)-2-Butenedinitrile",
    "duplicated_cas_no": "",
    "SMILES": "C(=C/C#N)\\C#N",
    "meta_data": {
        "InChI": "InChI=1S/C4H2N2/c5-3-1-2-4-6/h1-2H/b2-1+",
        "InChIKey": null,
        "Canonical SMILES": "N#CC=CC#N",
        "Molecular Formula": "C<sub>4</sub>H<sub>2</sub>N<sub>2</sub>",
        "Molecular Mass": "78.07",
        "Boiling Point": "186 °C",
        "Melting Point": "96.8 °C",
        "Density": "0.9416 g/cm³ @ Temp: 110.8 °C"
    }
}