{
    "cas_no": "1068-47-9",
    "key_name": "1-Mercapto-2-propanol",
    "cn_name": "1-巯基-2-丙醇;1-巯基-2-丙醇;2-羟基-1-丙硫醇;",
    "alternate_name": "2-Propanol, 1-mercapto-;1-Methyl-2-mercaptoethanol;2-Hydroxy-1-propanethiol;2-Hydroxy-3-propanethiol;β-Hydroxypropylmercaptan;1-Mercapto-2-propanol;3-Mercapto-2-propanol;(±)-1-Mercapto-2-propanol;1-Sulfanylpropan-2-ol",
    "duplicated_cas_no": "156713-33-6",
    "SMILES": "C(CS)(C)O",
    "meta_data": {
        "InChI": "InChI=1S/C3H8OS/c1-3(4)2-5/h3-5H,2H2,1H3",
        "InChIKey": null,
        "Canonical SMILES": "OC(C)CS",
        "Molecular Formula": "C<sub>3</sub>H<sub>8</sub>OS",
        "Molecular Mass": "92.16",
        "Boiling Point": "51 °C @ Press: 12 Torr",
        "Density": "1.0483 g/cm³ @ Temp: 20 °C"
    }
}