{
    "cas_no": "1779-54-0",
    "key_name": "Phosphonium, [(methylthio)methyl]triphenyl-, chloride (1:1)",
    "cn_name": "(甲硫基甲基)三苯基氯化鏻;(甲硫基甲基)三苯基氯化;",
    "alternate_name": "Phosphonium, [(methylthio)methyl]triphenyl-, chloride (1:1);Phosphonium, [(methylthio)methyl]triphenyl-, chloride;[(Methylthio)methyl]triphenylphosphonium chloride",
    "duplicated_cas_no": "1092095-01-6",
    "SMILES": "[P+](CSC)(C1=CC=CC=C1)(C2=CC=CC=C2)C3=CC=CC=C3.[Cl-]",
    "meta_data": {
        "InChI": "InChI=1S/C20H20PS.ClH/c1-22-17-21(18-11-5-2-6-12-18,19-13-7-3-8-14-19)20-15-9-4-10-16-20;/h2-16H,17H2,1H3;1H/q+1;/p-1",
        "InChIKey": null,
        "Canonical SMILES": "[Cl-].S(C)C[P+](C=1C=CC=CC1)(C=2C=CC=CC2)C=3C=CC=CC3",
        "Molecular Formula": "C<sub>20</sub>H<sub>20</sub>PS.Cl",
        "Molecular Mass": "",
        "Melting Point": "220-222 °C"
    }
}