{
    "cas_no": "86-26-0",
    "key_name": "2-Methoxybiphenyl",
    "cn_name": "2-甲氧基-1,1\"-联苯;2-甲氧基联苯;",
    "alternate_name": "1,1′-Biphenyl, 2-methoxy-;Anisole, <em>o</em>-phenyl-;2-Methoxy-1,1′-biphenyl;2-Methoxybiphenyl;<em>o</em>-Phenylanisole;2-Phenylanisole;<em>o</em>-Methoxybiphenyl;2-Hydroxybiphenyl methyl ether;NSC 2148;1-Methoxy-2-phenylbenzene;<em>o</em>-Phenylanisol",
    "duplicated_cas_no": "",
    "SMILES": "O(C)C1=C(C=CC=C1)C2=CC=CC=C2",
    "meta_data": {
        "InChI": "InChI=1S/C13H12O/c1-14-13-10-6-5-9-12(13)11-7-3-2-4-8-11/h2-10H,1H3",
        "InChIKey": null,
        "Canonical SMILES": "O(C=1C=CC=CC1C=2C=CC=CC2)C",
        "Molecular Formula": "C<sub>13</sub>H<sub>12</sub>O",
        "Molecular Mass": "184.23",
        "Boiling Point": "274 °C",
        "Melting Point": "29 °C"
    }
}