{
    "cas_no": "58123-77-6",
    "key_name": "3-Hydroxy-4-iodobenzoic acid",
    "cn_name": "3-羟基-4-碘苯甲酸;",
    "alternate_name": "Benzoic acid, 3-hydroxy-4-iodo-;3-Hydroxy-4-iodobenzoic acid",
    "duplicated_cas_no": "",
    "SMILES": "C(O)(=O)C1=CC(O)=C(I)C=C1",
    "meta_data": {
        "InChI": "InChI=1S/C7H5IO3/c8-5-2-1-4(7(10)11)3-6(5)9/h1-3,9H,(H,10,11)",
        "InChIKey": null,
        "Canonical SMILES": "O=C(O)C1=CC=C(I)C(O)=C1",
        "Molecular Formula": "C<sub>7</sub>H<sub>5</sub>IO<sub>3</sub>",
        "Molecular Mass": "264.02",
        "Melting Point": "226-228 °C (decomp)"
    }
}