{
    "cas_no": "869-52-3",
    "key_name": "Triethylenetetraminehexaacetic acid",
    "cn_name": "三乙烯四胺六乙酸;三亚乙基四胺六乙酸-3,6,9,12-四羧甲基-3,6,9,12-四氮杂十四烷二羧酸;",
    "alternate_name": "3,6,9,12-Tetraazatetradecanedioic acid, 3,6,9,12-tetrakis(carboxymethyl)-;Glycine, <em>N</em>,<em>N</em>′-ethylenebis[<em>N</em>-[2-[bis(carboxymethyl)amino]ethyl]-;Acetic acid, [ethylenebis[[(carboxymethyl)imino]ethylenenitrilo]]tetra-;3,6,9,12-Tetrakis(carboxymethyl)-3,6,9,12-tetraazatetradecanedioic acid;[Ethylenebis[[(carboxymethyl)imino]ethylenenitrilo]]tetraacetic acid;TTHA;Triethylenetetraminehexaacetic acid;Triethylenetetramine-<em>N</em>,<em>N</em>,<em>N</em>′,<em>N</em>′′,<em>N</em>′′′,<em>N</em>′′′-hexaacetic acid;(Triethylenetetraamino)hexaacetic acid;Triethylenetetramine hexaacetic acid;2-[2-[Bis(carboxymethyl)amino]ethyl-[2-[2-[bis(carboxymethyl)amino]ethyl-(carboxymethyl)amino]ethyl]amino]acetic acid",
    "duplicated_cas_no": "20261-67-0",
    "SMILES": "N(CCN(CCN(CC(O)=O)CC(O)=O)CC(O)=O)(CCN(CC(O)=O)CC(O)=O)CC(O)=O",
    "meta_data": {
        "InChI": "InChI=1S/C18H30N4O12/c23-13(24)7-19(3-5-21(9-15(27)28)10-16(29)30)1-2-20(8-14(25)26)4-6-22(11-17(31)32)12-18(33)34/h1-12H2,(H,23,24)(H,25,26)(H,27,28)(H,29,30)(H,31,32)(H,33,34)",
        "InChIKey": null,
        "Canonical SMILES": "O=C(O)CN(CC(=O)O)CCN(CC(=O)O)CCN(CC(=O)O)CCN(CC(=O)O)CC(=O)O",
        "Molecular Formula": "C<sub>18</sub>H<sub>30</sub>N<sub>4</sub>O<sub>12</sub>",
        "Molecular Mass": "494.45",
        "Melting Point": "222-224 °C (decomp)"
    }
}