{
    "cas_no": "52768-23-7",
    "key_name": "6,7-Isoquinolinediol, 1,2,3,4-tetrahydro-, hydrobromide (1:1)",
    "cn_name": null,
    "alternate_name": "6,7-Isoquinolinediol, 1,2,3,4-tetrahydro-, hydrobromide (1:1);6,7-Isoquinolinediol, 1,2,3,4-tetrahydro-, hydrobromide;6,7-Dihydroxytetrahydroisoquinoline hydrobromide;6,7-Dihydroxy-1,2,3,4-tetrahydroisoquinoline hydrobromide;1,2,3,4-Tetrahydro-6,7-isoquinolinediol hydrobromide",
    "duplicated_cas_no": "",
    "SMILES": "OC=1C=C2C(=CC1O)CNCC2.Br",
    "meta_data": {
        "InChI": "InChI=1S/C9H11NO2.BrH/c11-8-3-6-1-2-10-5-7(6)4-9(8)12;/h3-4,10-12H,1-2,5H2;1H",
        "InChIKey": null,
        "Canonical SMILES": "Br.OC=1C=C2C(=CC1O)CCNC2",
        "Molecular Formula": "C<sub>9</sub>H<sub>11</sub>NO<sub>2</sub>.BrH",
        "Molecular Mass": "",
        "Melting Point": "256-257 °C"
    }
}