{
    "cas_no": "189628-38-4",
    "key_name": "5-Fluoro-2-methoxybenzonitrile",
    "cn_name": "5-氟-2-甲氧基苯腈;",
    "alternate_name": "Benzonitrile, 5-fluoro-2-methoxy-;5-Fluoro-2-methoxybenzonitrile;3-Fluoro-6-methoxybenzonitrile",
    "duplicated_cas_no": "",
    "SMILES": "O(C)C1=C(C#N)C=C(F)C=C1",
    "meta_data": {
        "InChI": "InChI=1S/C8H6FNO/c1-11-8-3-2-7(9)4-6(8)5-10/h2-4H,1H3",
        "InChIKey": null,
        "Canonical SMILES": "N#CC1=CC(F)=CC=C1OC",
        "Molecular Formula": "C<sub>8</sub>H<sub>6</sub>FNO",
        "Molecular Mass": "151.14",
        "Melting Point": "112.5-113.7 °C"
    }
}