{
    "cas_no": "79996-99-9",
    "key_name": "1-Bromo-4-(bromomethyl)naphthalene",
    "cn_name": null,
    "alternate_name": "Naphthalene, 1-bromo-4-(bromomethyl)-;1-Bromo-4-(bromomethyl)naphthalene;1-(Bromomethyl)-4-bromonaphthalene;4-Bromo-1-(bromomethyl)naphthalene;1-Bromo-4-bromomethylnaphthalene",
    "duplicated_cas_no": "",
    "SMILES": "C(Br)C=1C2=C(C(Br)=CC1)C=CC=C2",
    "meta_data": {
        "InChI": "InChI=1S/C11H8Br2/c12-7-8-5-6-11(13)10-4-2-1-3-9(8)10/h1-6H,7H2",
        "InChIKey": null,
        "Canonical SMILES": "BrC1=CC=C(C=2C=CC=CC12)CBr",
        "Molecular Formula": "C<sub>11</sub>H<sub>8</sub>Br<sub>2</sub>",
        "Molecular Mass": "299.99",
        "Boiling Point": "175-205 °C @ Press: 14 Torr",
        "Melting Point": "102-104 °C"
    }
}