{
    "cas_no": "7054-25-3",
    "key_name": "Quinate",
    "cn_name": null,
    "alternate_name": "<span class=\"text-smallcaps\">D</span>-Gluconic acid, compd. with (9<em>S</em>)-6′-methoxycinchonan-9-ol (1:1);Gluconic acid, <span class=\"text-smallcaps\">D</span>-, compd. with quinidine (1:1);Quinidine gluconate;Quinidine, mono-<span class=\"text-smallcaps\">D</span>-gluconate (salt);Cinchonan-9-ol, 6′-methoxy-, (9<em>S</em>)-, mono-<span class=\"text-smallcaps\">D</span>-gluconate (salt);Quinaglute;Dura-Tab;Gluquinate;Quinate;Duraquin",
    "duplicated_cas_no": "11000-07-0;11039-93-3;29662-89-3;29826-49-1",
    "SMILES": "[C@H]([C@@H]([C@@H](CO)O)O)([C@H](C(O)=O)O)O.[C@H](O)(C=1C2=C(C=CC(OC)=C2)N=CC1)[C@@]3([N@@]4C[C@H](C=C)[C@](C3)(CC4)[H])[H]",
    "meta_data": {
        "InChI": "InChI=1S/C20H24N2O2.C6H12O7/c1-3-13-12-22-9-7-14(13)10-19(22)20(23)16-6-8-21-18-5-4-15(24-2)11-17(16)18;7-1-2(8)3(9)4(10)5(11)6(12)13/h3-6,8,11,13-14,19-20,23H,1,7,9-10,12H2,2H3;2-5,7-11H,1H2,(H,12,13)/t13-,14-,19+,20-;2-,3-,4+,5-/m01/s1",
        "InChIKey": null,
        "Canonical SMILES": "O=C(O)C(O)C(O)C(O)C(O)CO.OC(C=1C=CN=C2C=CC(OC)=CC21)C3N4CCC(C3)C(C=C)C4",
        "Molecular Formula": "C<sub>20</sub>H<sub>24</sub>N<sub>2</sub>O<sub>2</sub>.C<sub>6</sub>H<sub>12</sub>O<sub>7</sub>",
        "Molecular Mass": "",
        "Melting Point": "175-176.5 °C"
    }
}