{
    "cas_no": "99592-32-2",
    "key_name": "Sertaconazole",
    "cn_name": "硝酸舍他康唑;1-[2-(7-氯苯并[b]噻吩-3-基)甲氧基-2-(2,4-二氯苯)乙基]-1H-咪唑硝酸盐;",
    "alternate_name": "1<em>H</em>-Imidazole, 1-[2-[(7-chlorobenzo[<em>b</em>]thien-3-yl)methoxy]-2-(2,4-dichlorophenyl)ethyl]-;1-[2-[(7-Chlorobenzo[<em>b</em>]thien-3-yl)methoxy]-2-(2,4-dichlorophenyl)ethyl]-1<em>H</em>-imidazole;Sertaconazole;FI 7045",
    "duplicated_cas_no": "2416335-54-9",
    "SMILES": "C(OC(CN1C=CN=C1)C2=C(Cl)C=C(Cl)C=C2)C=3C=4C(SC3)=C(Cl)C=CC4",
    "meta_data": {
        "InChI": "InChI=1S/C20H15Cl3N2OS/c21-14-4-5-16(18(23)8-14)19(9-25-7-6-24-12-25)26-10-13-11-27-20-15(13)2-1-3-17(20)22/h1-8,11-12,19H,9-10H2",
        "InChIKey": null,
        "Canonical SMILES": "ClC1=CC=C(C(Cl)=C1)C(OCC2=CSC=3C(Cl)=CC=CC32)CN4C=NC=C4",
        "Molecular Formula": "C<sub>20</sub>H<sub>15</sub>Cl<sub>3</sub>N<sub>2</sub>OS",
        "Molecular Mass": "437.77",
        "Melting Point": "146-147 °C"
    }
}