{
    "cas_no": "18704-67-1",
    "key_name": "4-Chloro-2-(1<em>H</em>-pyrazol-3-yl)phenol",
    "cn_name": "4-氯-2-(1H-吡唑-3-基)苯酚;4-氯-2-吡唑苯酚;4-氯-2-(1H-吡唑-3-基)苯酚,98%;",
    "alternate_name": "Phenol, 4-chloro-2-(1<em>H</em>-pyrazol-3-yl)-;Phenol, 4-chloro-2-pyrazol-3-yl-;Phenol, 4-chloro-2-[pyrazol-3(<em>or</em> 5)-yl]-;4-Chloro-2-(1<em>H</em>-pyrazol-3-yl)phenol;Mycanodin;4-Chloro-2-(3-pyrazolyl)phenol;Kr 104",
    "duplicated_cas_no": "293740-24-6;771482-43-0",
    "SMILES": "OC1=C(C=C(Cl)C=C1)C=2C=CNN2",
    "meta_data": {
        "InChI": "InChI=1S/C9H7ClN2O/c10-6-1-2-9(13)7(5-6)8-3-4-11-12-8/h1-5,13H,(H,11,12)",
        "InChIKey": null,
        "Canonical SMILES": "ClC=1C=CC(O)=C(C1)C2=NNC=C2",
        "Molecular Formula": "C<sub>9</sub>H<sub>7</sub>ClN<sub>2</sub>O",
        "Molecular Mass": "194.62",
        "Melting Point": "150-152 °C"
    }
}