{
    "cas_no": "1270-98-0",
    "key_name": "Cyclopentadienyltitanium trichloride",
    "cn_name": "三氯一茂钛;三氯化环戊二烯基钛;环戊二烯钛三氯化物;(Η-环戊二烯基)三氯化钛;(η-环戊二烯基)三氯化钛;",
    "alternate_name": "Titanium, trichloro(η<sup>5</sup>-2,4-cyclopentadien-1-yl)-;Titanium, trichloro-π-cyclopentadienyl-;Titanium, trichlorocyclopentadienyl-;Cyclopentadienyltitanium(IV) trichloride;Trichloro(η<sup>5</sup>-2,4-cyclopentadien-1-yl)titanium;Cyclopentadienyltitanium trichloride;π-Cyclopentadienyltitanium trichloride;Trichloro-π-cyclopentadienyltitanium;Trichloro(cyclopentadienyl)titanium;Cyclopentadienyltrichlorotitanium;Trichloro(cyclopentyldienyl)titanium;η<sup>5</sup>-Cyclopentadienyltitanium trichloride;Trichloro(η<sup>5</sup>-cyclopentadienyl)titanium;Monocyclopentadienyltitanium trichloride;NSC 332761;Titanocene trichloride",
    "duplicated_cas_no": "",
    "SMILES": "[Cl-][Ti+4]1234([Cl-])([Cl-])[CH-]5[CH]1=[CH]2[CH]3=[CH]45",
    "meta_data": {
        "InChI": "InChI=1S/C5H5.3ClH.Ti/c1-2-4-5-3-1;;;;/h1-5H;3*1H;/q-1;;;;+4/p-3",
        "InChIKey": null,
        "Canonical SMILES": "[Cl-][Ti+4]1234([Cl-])([Cl-])[CH]=5[CH]4=[CH]3[CH-]2[CH]51",
        "Molecular Formula": "C<sub>5</sub>H<sub>5</sub>Cl<sub>3</sub>Ti",
        "Molecular Mass": "",
        "Melting Point": "198-199 °C"
    }
}