{
    "cas_no": "117-57-7",
    "key_name": "3-Hydroxy-2-methyl-4-quinolinecarboxylic acid",
    "cn_name": "2-甲基-3-羟基喹啉-4-羧酸;",
    "alternate_name": "4-Quinolinecarboxylic acid, 3-hydroxy-2-methyl-;Cinchoninic acid, 3-hydroxy-2-methyl-;3-Hydroxy-2-methyl-4-quinolinecarboxylic acid;2-Methyl-3-hydroxyquinoline-4-carboxylic acid;3-Hydroxy-2-methylcinchoninic acid;3-Hydroxy-4-quinaldinecarboxylic acid;3-Hydroxy-4-carboxyquinaldine;2-Methyl-3-hydroxy-4-carboxyquinoline;4-Carboxy-3-hydroxy-2-methylquinoline;2-Methyl-3-hydroxyquinoline-4-formic acid",
    "duplicated_cas_no": "",
    "SMILES": "C(O)(=O)C=1C2=C(N=C(C)C1O)C=CC=C2",
    "meta_data": {
        "InChI": "InChI=1S/C11H9NO3/c1-6-10(13)9(11(14)15)7-4-2-3-5-8(7)12-6/h2-5,13H,1H3,(H,14,15)",
        "InChIKey": null,
        "Canonical SMILES": "O=C(O)C1=C(O)C(=NC=2C=CC=CC21)C",
        "Molecular Formula": "C<sub>11</sub>H<sub>9</sub>NO<sub>3</sub>",
        "Molecular Mass": "203.19",
        "Melting Point": "229-230 °C (decomp)"
    }
}