{
    "cas_no": "464-06-2",
    "key_name": "2,2,3-Trimethylbutane",
    "cn_name": null,
    "alternate_name": "Butane, 2,2,3-trimethyl-;2,2,3-Trimethylbutane;Triptane;2,3,3-Trimethylbutane;Trimethylbutane;NSC 73938",
    "duplicated_cas_no": "",
    "SMILES": "C(C(C)C)(C)(C)C",
    "meta_data": {
        "InChI": "InChI=1S/C7H16/c1-6(2)7(3,4)5/h6H,1-5H3",
        "InChIKey": null,
        "Canonical SMILES": "CC(C)C(C)(C)C",
        "Molecular Formula": "C<sub>7</sub>H<sub>16</sub>",
        "Molecular Mass": "100.20",
        "Boiling Point": "80.8 °C",
        "Melting Point": "-25 °C",
        "Density": "0.6945 g/cm³ @ Temp: 15 °C"
    }
}