{
    "cas_no": "2517-04-6",
    "key_name": "(±)-2-Azetidinecarboxylic acid",
    "cn_name": "L-铃兰氨酸;L-铃兰氨酸;",
    "alternate_name": "2-Azetidinecarboxylic acid;<span class=\"text-smallcaps\">D</smallcap><smallcap>L</span>-2-Azetidinecarboxylic acid;(±)-2-Azetidinecarboxylic acid",
    "duplicated_cas_no": "20063-89-2",
    "SMILES": "C(O)(=O)C1CCN1",
    "meta_data": {
        "InChI": "InChI=1S/C4H7NO2/c6-4(7)3-1-2-5-3/h3,5H,1-2H2,(H,6,7)",
        "InChIKey": null,
        "Canonical SMILES": "O=C(O)C1NCC1",
        "Molecular Formula": "C<sub>4</sub>H<sub>7</sub>NO<sub>2</sub>",
        "Molecular Mass": "101.10",
        "Melting Point": "217 °C (decomp)"
    }
}