{
    "cas_no": "220353-20-8",
    "key_name": "2,4-Difluoro-3-methoxybenzonitrile",
    "cn_name": "2,4-二氟-3-甲氧基苯甲腈;",
    "alternate_name": "Benzonitrile, 2,4-difluoro-3-methoxy-;2,4-Difluoro-3-methoxybenzonitrile;2,4-Difluoro-3-methoxy-benzonitrile;3-Cyano-2,6-difluoroanisole",
    "duplicated_cas_no": "",
    "SMILES": "O(C)C1=C(F)C(C#N)=CC=C1F",
    "meta_data": {
        "InChI": "InChI=1S/C8H5F2NO/c1-12-8-6(9)3-2-5(4-11)7(8)10/h2-3H,1H3",
        "InChIKey": null,
        "Canonical SMILES": "N#CC1=CC=C(F)C(OC)=C1F",
        "Molecular Formula": "C<sub>8</sub>H<sub>5</sub>F<sub>2</sub>NO",
        "Molecular Mass": "169.13",
        "Melting Point": "41-42 °C"
    }
}