{
    "cas_no": "3007-31-6",
    "key_name": "Didodecylamine",
    "cn_name": "双十二烷基胺;十二烷基胺;",
    "alternate_name": "1-Dodecanamine, <em>N</em>-dodecyl-;Didodecylamine;<em>N</em>-Dodecyl-1-dodecanamine;Alamine 204;Dilaurylamine;Di-<em>n</em>-dodecylamine;Armeen 2-12;<em>N</em>,<em>N</em>-Didodecylamine;NSC 16573;NSC 56451;1-Dodecanamine, <em>N</em>-dodecyl-, ion(1-)",
    "duplicated_cas_no": "2655656-50-9",
    "SMILES": "N(CCCCCCCCCCCC)CCCCCCCCCCCC",
    "meta_data": {
        "InChI": "InChI=1S/C24H51N/c1-3-5-7-9-11-13-15-17-19-21-23-25-24-22-20-18-16-14-12-10-8-6-4-2/h25H,3-24H2,1-2H3",
        "InChIKey": null,
        "Canonical SMILES": "N(CCCCCCCCCCCC)CCCCCCCCCCCC",
        "Molecular Formula": "C<sub>24</sub>H<sub>51</sub>N",
        "Molecular Mass": "353.67",
        "Boiling Point": "160-200 °C",
        "Melting Point": "58 °C"
    }
}