{
    "cas_no": "1519-36-4",
    "key_name": "1,4-Dimethyl-9,10-anthracenedione",
    "cn_name": "1,4-二甲基蒽醌;",
    "alternate_name": "9,10-Anthracenedione, 1,4-dimethyl-;Anthraquinone, 1,4-dimethyl-;1,4-Dimethyl-9,10-anthracenedione;1,4-Dimethylanthraquinone;1,4-Dimethyl-9,10-anthraquinone",
    "duplicated_cas_no": "",
    "SMILES": "O=C1C=2C(C(=O)C=3C1=CC=CC3)=C(C)C=CC2C",
    "meta_data": {
        "InChI": "InChI=1S/C16H12O2/c1-9-7-8-10(2)14-13(9)15(17)11-5-3-4-6-12(11)16(14)18/h3-8H,1-2H3",
        "InChIKey": null,
        "Canonical SMILES": "O=C1C=2C=CC=CC2C(=O)C=3C(=CC=C(C13)C)C",
        "Molecular Formula": "C<sub>16</sub>H<sub>12</sub>O<sub>2</sub>",
        "Molecular Mass": "236.27",
        "Melting Point": "140.5 °C"
    }
}