{
    "cas_no": "612-62-4",
    "key_name": "2-Chloroquinoline",
    "cn_name": "2-氯喹啉;",
    "alternate_name": "Quinoline, 2-chloro-;2-Chloroquinoline;NSC 6163",
    "duplicated_cas_no": "",
    "SMILES": "ClC1=NC2=C(C=C1)C=CC=C2",
    "meta_data": {
        "InChI": "InChI=1S/C9H6ClN/c10-9-6-5-7-3-1-2-4-8(7)11-9/h1-6H",
        "InChIKey": null,
        "Canonical SMILES": "ClC=1N=C2C=CC=CC2=CC1",
        "Molecular Formula": "C<sub>9</sub>H<sub>6</sub>ClN",
        "Molecular Mass": "163.60",
        "Boiling Point": "266 °C",
        "Melting Point": "38 °C",
        "Density": "1.246 g/cm³ (Solid)"
    }
}