{
    "cas_no": "621-83-0",
    "key_name": "<em>N</em>-(Phenylmethyl)thiourea",
    "cn_name": "N-苄基硫脲;苄基硫脲;",
    "alternate_name": "Thiourea, <em>N</em>-(phenylmethyl)-;Urea, 1-benzyl-2-thio-;Thiourea, (phenylmethyl)-;<em>N</em>-(Phenylmethyl)thiourea;Benzylthiourea;<em>N</em>-Benzylthiourea;1-Benzylthiourea;NSC 15510",
    "duplicated_cas_no": "",
    "SMILES": "C(NC(N)=S)C1=CC=CC=C1",
    "meta_data": {
        "InChI": "InChI=1S/C8H10N2S/c9-8(11)10-6-7-4-2-1-3-5-7/h1-5H,6H2,(H3,9,10,11)",
        "InChIKey": null,
        "Canonical SMILES": "S=C(N)NCC=1C=CC=CC1",
        "Molecular Formula": "C<sub>8</sub>H<sub>10</sub>N<sub>2</sub>S",
        "Molecular Mass": "166.24",
        "Melting Point": "161-162 °C"
    }
}