{
    "cas_no": "614-33-5",
    "key_name": "Glyceryl tribenzoate",
    "cn_name": "甘油三苯甲酸酯;三苯精;",
    "alternate_name": "1,2,3-Propanetriol, 1,2,3-tribenzoate;Glycerol, tribenzoate;1,2,3-Propanetriol, tribenzoate;Glyceryl tribenzoate;Tribenzoin;Benzoflex S 404;Uniplex 260;NSC 2230",
    "duplicated_cas_no": "",
    "SMILES": "C(OC(COC(=O)C1=CC=CC=C1)COC(=O)C2=CC=CC=C2)(=O)C3=CC=CC=C3",
    "meta_data": {
        "InChI": "InChI=1S/C24H20O6/c25-22(18-10-4-1-5-11-18)28-16-21(30-24(27)20-14-8-3-9-15-20)17-29-23(26)19-12-6-2-7-13-19/h1-15,21H,16-17H2",
        "InChIKey": null,
        "Canonical SMILES": "O=C(OCC(OC(=O)C=1C=CC=CC1)COC(=O)C=2C=CC=CC2)C=3C=CC=CC3",
        "Molecular Formula": "C<sub>24</sub>H<sub>20</sub>O<sub>6</sub>",
        "Molecular Mass": "404.41",
        "Melting Point": "76 °C"
    }
}