{
    "cas_no": "6025-60-1",
    "key_name": "1-(2-Aminophenyl)pyrrole",
    "cn_name": "1-(2-氨基苯基)吡咯;",
    "alternate_name": "Benzenamine, 2-(1<em>H</em>-pyrrol-1-yl)-;Pyrrole, 1-(<em>o</em>-aminophenyl)-;2-(1<em>H</em>-Pyrrol-1-yl)benzenamine;<em>N</em>-(2-Aminophenyl)pyrrole;1-(<em>o</em>-Aminophenyl)pyrrole;1-(2-Aminophenyl)pyrrole;<em>o</em>-(1-Pyrrolyl)aniline;2-(1-Pyrrolyl)aniline;2-(1<em>H</em>-Pyrrol-1-yl)phenylamine;NSC 130753;2-Pyrrol-1-ylphenylamine;2-(1<em>H</em>-Pyrrol-1-yl)aniline",
    "duplicated_cas_no": "",
    "SMILES": "NC1=C(N2C=CC=C2)C=CC=C1",
    "meta_data": {
        "InChI": "InChI=1S/C10H10N2/c11-9-5-1-2-6-10(9)12-7-3-4-8-12/h1-8H,11H2",
        "InChIKey": null,
        "Canonical SMILES": "NC=1C=CC=CC1N2C=CC=C2",
        "Molecular Formula": "C<sub>10</sub>H<sub>10</sub>N<sub>2</sub>",
        "Molecular Mass": "158.20",
        "Melting Point": "94-96 °C"
    }
}