{
    "cas_no": "50984-88-8",
    "key_name": "<em>p</em>-Xylenolphthalein",
    "cn_name": "间二甲酚酞;2′,5′,2″,5″-四甲基酚酞;",
    "alternate_name": "1(3<em>H</em>)-Isobenzofuranone, 3,3-bis(4-hydroxy-2,5-dimethylphenyl)-;<em>p</em>-Xylenolphthalein;3,3-Bis(4-hydroxy-2,5-dimethylphenyl)-1(3<em>H</em>)-isobenzofuranone;3,3-Bis(4-hydroxy-2,5-dimethylphenyl)-2-benzofuran-1-one",
    "duplicated_cas_no": "",
    "SMILES": "CC1=C(C2(C=3C(C(=O)O2)=CC=CC3)C4=C(C)C=C(O)C(C)=C4)C=C(C)C(O)=C1",
    "meta_data": {
        "InChI": "InChI=1S/C24H22O4/c1-13-11-21(25)15(3)9-19(13)24(20-10-16(4)22(26)12-14(20)2)18-8-6-5-7-17(18)23(27)28-24/h5-12,25-26H,1-4H3",
        "InChIKey": null,
        "Canonical SMILES": "O=C1OC(C=2C=CC=CC12)(C3=CC(=C(O)C=C3C)C)C4=CC(=C(O)C=C4C)C",
        "Molecular Formula": "C<sub>24</sub>H<sub>22</sub>O<sub>4</sub>",
        "Molecular Mass": "374.43",
        "Melting Point": "286-289 °C"
    }
}