{
    "cas_no": "3336-43-4",
    "key_name": "1-Chloro-4-isoquinolinol",
    "cn_name": null,
    "alternate_name": "4-Isoquinolinol, 1-chloro-;1-Chloro-4-isoquinolinol;1-Chloroisoquinolin-4-ol;1-Chloro-4-hydroxyisoquinoline",
    "duplicated_cas_no": "",
    "SMILES": "OC=1C2=C(C(Cl)=NC1)C=CC=C2",
    "meta_data": {
        "InChI": "InChI=1S/C9H6ClNO/c10-9-7-4-2-1-3-6(7)8(12)5-11-9/h1-5,12H",
        "InChIKey": null,
        "Canonical SMILES": "ClC1=NC=C(O)C=2C=CC=CC12",
        "Molecular Formula": "C<sub>9</sub>H<sub>6</sub>ClNO",
        "Molecular Mass": "179.60",
        "Melting Point": "193.5-194 °C (decomp)"
    }
}