{
    "cas_no": "7486-35-3",
    "key_name": "Tributylvinyltin",
    "cn_name": "三丁基乙烯基锡;",
    "alternate_name": "Stannane, tributylethenyl-;Stannane, tributylvinyl-;Tin, tributylvinyl-;Tributylethenylstannane;Tributylvinylstannane;Vinyltributylstannane;Tributylvinyltin;Vinyltributyltin;Ethenyltributylstannane;(Tributylstannyl)ethene;(Tributylstannyl)ethylene;(Ethenyl)tributyltin;Tributyl(vinyl)stannane",
    "duplicated_cas_no": "",
    "SMILES": "[Sn](CCCC)(CCCC)(CCCC)C=C",
    "meta_data": {
        "InChI": "InChI=1S/3C4H9.C2H3.Sn/c3*1-3-4-2;1-2;/h3*1,3-4H2,2H3;1H,2H2;",
        "InChIKey": null,
        "Canonical SMILES": "C=C[Sn](CCCC)(CCCC)CCCC",
        "Molecular Formula": "C<sub>14</sub>H<sub>30</sub>Sn",
        "Molecular Mass": "317.10",
        "Boiling Point": "95 °C @ Press: 1.5 Torr",
        "Density": "1.081 g/cm³ @ Temp: 25 °C"
    }
}