{
    "cas_no": "4216-96-0",
    "key_name": "1,1-Dimethylethyl (2<em>R</em>)-2-hydroxy-3-methylbutanoate",
    "cn_name": null,
    "alternate_name": "Butanoic acid, 2-hydroxy-3-methyl-, 1,1-dimethylethyl ester, (2<em>R</em>)-;Butyric acid, 2-hydroxy-3-methyl-, <em>tert</em>-butyl ester, <span class=\"text-smallcaps\">D</span>-;Butanoic acid, 2-hydroxy-3-methyl-, 1,1-dimethylethyl ester, (<em>R</em>)-;1,1-Dimethylethyl (2<em>R</em>)-2-hydroxy-3-methylbutanoate;<span class=\"text-smallcaps\">D</span>-α-Hydroxyisovaleric acid <em>tert</em>-butyl ester;<em>tert</em>-Butyl <span class=\"text-smallcaps\">D</span>-2-hydroxyisovalerate;<em>tert</em>-Butyl (<em>R</em>)-2-hydroxy-3-methylbutyrate;(R)-<em>tert</em>-Butyl 2-hydroxy-3-methylbutanoate",
    "duplicated_cas_no": "",
    "SMILES": "C([C@@H](C(C)C)O)(OC(C)(C)C)=O",
    "meta_data": {
        "InChI": "InChI=1S/C9H18O3/c1-6(2)7(10)8(11)12-9(3,4)5/h6-7,10H,1-5H3/t7-/m1/s1",
        "InChIKey": null,
        "Canonical SMILES": "O=C(OC(C)(C)C)C(O)C(C)C",
        "Molecular Formula": "C<sub>9</sub>H<sub>18</sub>O<sub>3</sub>",
        "Molecular Mass": "174.24",
        "Boiling Point": "42-43 °C @ Press: 0.5 Torr",
        "Melting Point": "28-30 °C"
    }
}