{
    "cas_no": "60956-26-5",
    "key_name": "4-Bromo-1-methyl-2-nitrobenzene",
    "cn_name": "4-溴-2-硝基甲苯;2-硝基-4-溴甲苯;",
    "alternate_name": "Benzene, 4-bromo-1-methyl-2-nitro-;Toluene, 4-bromo-2-nitro-;4-Bromo-1-methyl-2-nitrobenzene;4-Bromo-2-nitrotoluene;1-Bromo-4-methyl-3-nitrobenzene;2-Nitro-4-bromotoluene;1-Methyl-2-nitro-4-bromobenzene",
    "duplicated_cas_no": "",
    "SMILES": "N(=O)(=O)C1=C(C)C=CC(Br)=C1",
    "meta_data": {
        "InChI": "InChI=1S/C7H6BrNO2/c1-5-2-3-6(8)4-7(5)9(10)11/h2-4H,1H3",
        "InChIKey": null,
        "Canonical SMILES": "O=N(=O)C1=CC(Br)=CC=C1C",
        "Molecular Formula": "C<sub>7</sub>H<sub>6</sub>BrNO<sub>2</sub>",
        "Molecular Mass": "216.03",
        "Boiling Point": "256 °C",
        "Melting Point": "46-47 °C"
    }
}