{
    "cas_no": "491-36-1",
    "key_name": "4(1<em>H</em>)-Quinazolinone",
    "cn_name": "4-羟基喹唑啉;喹唑酮-4;",
    "alternate_name": "4(3<em>H</em>)-Quinazolinone;4(1<em>H</em>)-Quinazolinone;4-Quinazolone;4-Quinazolinone;4-Quinazolinol;4-Hydroxyquinazoline;4-Oxoquinazoline;4(3<em>H</em>)-Quinazolone;4-Oxo-3,4-dihydroquinazoline;3,4-Dihydroquinazolin-4-one;NSC 5863;C 201-0583;1<em>H</em>-Quinazolin-4-one",
    "duplicated_cas_no": "17227-47-3;132305-20-5;134434-34-7",
    "SMILES": "O=C1C=2C(NC=N1)=CC=CC2",
    "meta_data": {
        "InChI": "InChI=1S/C8H6N2O/c11-8-6-3-1-2-4-7(6)9-5-10-8/h1-5H,(H,9,10,11)",
        "InChIKey": null,
        "Canonical SMILES": "O=C1N=CNC=2C=CC=CC12",
        "Molecular Formula": "C<sub>8</sub>H<sub>6</sub>N<sub>2</sub>O",
        "Molecular Mass": "146.15",
        "Melting Point": "217.5 °C"
    }
}