{
    "cas_no": "4549-02-4",
    "key_name": "Cyclo(<span class=\"text-smallcaps\">L</smallcap>-Pro-<smallcap>L</span>-Tyr)",
    "cn_name": "环(脯氨酸一酪氨酸);环(脯氨酸一酪氨酸);",
    "alternate_name": "Pyrrolo[1,2-<em>a</em>]pyrazine-1,4-dione, hexahydro-3-[(4-hydroxyphenyl)methyl]-, (3<em>S</em>,8a<em>S</em>)-;Pyrrolo[1,2-<em>a</em>]pyrazine-1,4-dione, hexahydro-3-(<em>p</em>-hydroxybenzyl)-;Pyrrolo[1,2-<em>a</em>]pyrazine-1,4-dione, hexahydro-3-[(4-hydroxyphenyl)methyl]-, (3<em>S</em>-<em>trans</em>)-;(3<em>S</em>,8a<em>S</em>)-Hexahydro-3-[(4-hydroxyphenyl)methyl]pyrrolo[1,2-<em>a</em>]pyrazine-1,4-dione;<span class=\"text-smallcaps\">L</smallcap>-Proline-<smallcap>L</span>-tyrosine anhydride;Maculosine;Maculosin;Cyclo(<span class=\"text-smallcaps\">L</smallcap>-prolinyl-<smallcap>L</span>-tyrosine);Maculosin 1;Maculosine 1;Cyclo(<span class=\"text-smallcaps\">L</smallcap>-tyrosyl-<smallcap>L</span>-proline);Cyclo(<span class=\"text-smallcaps\">L</smallcap>-Pro-<smallcap>L</span>-Tyr);Cyclo <span class=\"text-smallcaps\">L</smallcap>-Prolyl-<smallcap>L</span>-tyrosine;Cyclo(Tyr-Pro)",
    "duplicated_cas_no": "",
    "SMILES": "O=C1N2[C@](C(=O)N[C@H]1CC3=CC=C(O)C=C3)(CCC2)[H]",
    "meta_data": {
        "InChI": "InChI=1S/C14H16N2O3/c17-10-5-3-9(4-6-10)8-11-14(19)16-7-1-2-12(16)13(18)15-11/h3-6,11-12,17H,1-2,7-8H2,(H,15,18)/t11-,12-/m0/s1",
        "InChIKey": null,
        "Canonical SMILES": "O=C1NC(C(=O)N2CCCC12)CC3=CC=C(O)C=C3",
        "Molecular Formula": "C<sub>14</sub>H<sub>16</sub>N<sub>2</sub>O<sub>3</sub>",
        "Molecular Mass": "260.29",
        "Melting Point": "156-159 °C"
    }
}