{
    "cas_no": "22047-25-2",
    "key_name": "Acetylpyrazine",
    "cn_name": null,
    "alternate_name": "Ethanone, 1-(2-pyrazinyl)-;Ketone, methyl pyrazinyl;Ethanone, 1-pyrazinyl-;1-(2-Pyrazinyl)ethanone;2-Acetylpyrazine;Acetylpyrazine;Pyrazine methyl ketone;NSC 72374;1-(Pyrazin-2-yl)ethanone;1-(2-Pyrazinyl)-1-ethanone;2-Acetyl-1,4-pyrazine;Methyl pyrazin-2-yl ketone",
    "duplicated_cas_no": "131922-02-6",
    "SMILES": "C(C)(=O)C=1C=NC=CN1",
    "meta_data": {
        "InChI": "InChI=1S/C6H6N2O/c1-5(9)6-4-7-2-3-8-6/h2-4H,1H3",
        "InChIKey": null,
        "Canonical SMILES": "O=C(C1=NC=CN=C1)C",
        "Molecular Formula": "C<sub>6</sub>H<sub>6</sub>N<sub>2</sub>O",
        "Molecular Mass": "122.12",
        "Boiling Point": "79-80 °C",
        "Melting Point": "76-78 °C"
    }
}