{
    "cas_no": "481-18-5",
    "key_name": "α-Spinasterol",
    "cn_name": "Α-波菜甾醇;",
    "alternate_name": "Stigmasta-7,22-dien-3-ol, (3β,5α,22<em>E</em>)-;5α-Stigmasta-7,22-dien-3β-ol, (<em>E</em>)-;5α-Stigmasta-7,22-dien-3β-ol;(3β,5α,22<em>E</em>)-Stigmasta-7,22-dien-3-ol;Bessisterol;Hitodesterol;α-Spinasterin;Spinasterol;α-Spinasterol;Δ<sup>7,22</sup>-Stigmastan-3β-ol;Stigmasta-7,22-dien-3β-ol",
    "duplicated_cas_no": "27638-79-5",
    "SMILES": "C[C@@]12[C@](C=3[C@@]([C@]4(C)[C@@](CC3)(C[C@@H](O)CC4)[H])(CC1)[H])(CC[C@@]2([C@@H](/C=C/[C@H](C(C)C)CC)C)[H])[H]",
    "meta_data": {
        "InChI": "InChI=1S/C29H48O/c1-7-21(19(2)3)9-8-20(4)25-12-13-26-24-11-10-22-18-23(30)14-16-28(22,5)27(24)15-17-29(25,26)6/h8-9,11,19-23,25-27,30H,7,10,12-18H2,1-6H3/b9-8+/t20-,21-,22+,23+,25-,26+,27+,28+,29-/m1/s1",
        "InChIKey": null,
        "Canonical SMILES": "OC1CCC2(C)C3C(=CCC2C1)C4CCC(C(C=CC(CC)C(C)C)C)C4(C)CC3",
        "Molecular Formula": "C<sub>29</sub>H<sub>48</sub>O",
        "Molecular Mass": "412.69",
        "Melting Point": "168-169 °C"
    }
}