{
    "cas_no": "2386-25-6",
    "key_name": "1-(2,4-Dimethyl-1<em>H</em>-pyrrol-3-yl)ethanone",
    "cn_name": null,
    "alternate_name": "Ethanone, 1-(2,4-dimethyl-1<em>H</em>-pyrrol-3-yl)-;Ketone, 2,4-dimethylpyrrol-3-yl methyl;1-(2,4-Dimethyl-1<em>H</em>-pyrrol-3-yl)ethanone;2,4-Dimethyl-3-acetylpyrrole;3-Acetyl-2,4-dimethylpyrrole;2,4-Dimethylpyrrol-3-yl methyl ketone;NSC 10759;1-(2,4-Dimethyl-1-hydro-pyrrol-3-yl)ethanone;3-Acetyl-2,4-dimethyl-1<em>H</em>-pyrrole;1-(2,4-Dimethyl-1<em>H</em>-pyrrol-3-yl)ethan-1-one",
    "duplicated_cas_no": "",
    "SMILES": "C(C)(=O)C=1C(C)=CNC1C",
    "meta_data": {
        "InChI": "InChI=1S/C8H11NO/c1-5-4-9-6(2)8(5)7(3)10/h4,9H,1-3H3",
        "InChIKey": null,
        "Canonical SMILES": "O=C(C=1C(=CNC1C)C)C",
        "Molecular Formula": "C<sub>8</sub>H<sub>11</sub>NO",
        "Molecular Mass": "137.18",
        "Boiling Point": "170-173 °C @ Press: 12 Torr",
        "Melting Point": "139 °C"
    }
}