{
    "cas_no": "6945-92-2",
    "key_name": "Acetic acid, 2-hydrazinyl-, ethyl ester, hydrochloride (1:1)",
    "cn_name": "肼基乙酸乙酯盐酸盐;",
    "alternate_name": "Acetic acid, 2-hydrazinyl-, ethyl ester, hydrochloride (1:1);Acetic acid, hydrazino-, ethyl ester, monohydrochloride;Acetic acid, hydrazino-, ethyl ester, hydrochloride;Ethyl hydrazineacetate monohydrochloride;Hydrazineacetic acid ethyl ester hydrochloride;(Carbethoxymethyl)hydrazine hydrochloride;Ethyl hydrazinoacetate hydrochloride;Ethyl hydrazineacetate hydrochloride;Hydrazinoacetic acid ethyl ester hydrochloride;2-Hydrazinylacetic acid ethyl ester hydrochloride;Ethyl 2-(hydrazinyl)acetate hydrochloride;Ethyl hydrazinoacetate monohydrochloride;Ethyl 2-hydrazinoacetate hydrochloride",
    "duplicated_cas_no": "",
    "SMILES": "C(CNN)(OCC)=O.Cl",
    "meta_data": {
        "InChI": "InChI=1S/C4H10N2O2.ClH/c1-2-8-4(7)3-6-5;/h6H,2-3,5H2,1H3;1H",
        "InChIKey": null,
        "Canonical SMILES": "Cl.O=C(OCC)CNN",
        "Molecular Formula": "C<sub>4</sub>H<sub>10</sub>N<sub>2</sub>O<sub>2</sub>.ClH",
        "Molecular Mass": "",
        "Melting Point": "152-153 °C"
    }
}