{
    "cas_no": "14686-13-6",
    "key_name": "<em>trans</em>-2-Heptene",
    "cn_name": null,
    "alternate_name": "2-Heptene, (2<em>E</em>)-;2-Heptene, (<em>E</em>)-;(2<em>E</em>)-2-Heptene;<em>trans</em>-2-Heptene;(<em>E</em>)-2-Heptene;NSC 74131",
    "duplicated_cas_no": "",
    "SMILES": "C(CCC)/C=C/C",
    "meta_data": {
        "InChI": "InChI=1S/C7H14/c1-3-5-7-6-4-2/h3,5H,4,6-7H2,1-2H3/b5-3+",
        "InChIKey": null,
        "Canonical SMILES": "C(=CCCCC)C",
        "Molecular Formula": "C<sub>7</sub>H<sub>14</sub>",
        "Molecular Mass": "98.19",
        "Boiling Point": "98 °C",
        "Melting Point": "-109.5 °C"
    }
}