{
    "cas_no": "601-34-3",
    "key_name": "Cholesteryl palmitate",
    "cn_name": "胆固醇棕榈酸酯;",
    "alternate_name": "Cholest-5-en-3-ol (3β)-, 3-hexadecanoate;Cholesterol, palmitate;Cholest-5-en-3-ol (3β)-, hexadecanoate;Palmitic acid, cholesteryl ester;Cholesteryl palmitate;Cholesteryl hexadecanoate;Hexadecanoic acid cholesteryl ester;NSC 59692;Cholest-5-en-3β-ol stearate;5-Cholesten-3β-ol stearate;Cholesterol hexadecanoate;CE(16:0)",
    "duplicated_cas_no": "137036-84-1;870637-59-5",
    "SMILES": "C[C@@]12[C@@]3([C@]([C@]4([C@](C)(CC3)[C@@]([C@@H](CCCC(C)C)C)(CC4)[H])[H])(CC=C1C[C@@H](OC(CCCCCCCCCCCCCCC)=O)CC2)[H])[H]",
    "meta_data": {
        "InChI": "InChI=1S/C43H76O2/c1-7-8-9-10-11-12-13-14-15-16-17-18-19-23-41(44)45-36-28-30-42(5)35(32-36)24-25-37-39-27-26-38(34(4)22-20-21-33(2)3)43(39,6)31-29-40(37)42/h24,33-34,36-40H,7-23,25-32H2,1-6H3/t34-,36+,37+,38-,39+,40+,42+,43-/m1/s1",
        "InChIKey": null,
        "Canonical SMILES": "O=C(OC1CC2=CCC3C(CCC4(C)C(CCC34)C(C)CCCC(C)C)C2(C)CC1)CCCCCCCCCCCCCCC",
        "Molecular Formula": "C<sub>43</sub>H<sub>76</sub>O<sub>2</sub>",
        "Molecular Mass": "625.06",
        "Melting Point": "79 °C"
    }
}