{
    "cas_no": "18293-82-8",
    "key_name": "Dimethoxymethyl(2-methylpropyl)silane",
    "cn_name": null,
    "alternate_name": "Silane, dimethoxymethyl(2-methylpropyl)-;Silane, isobutyldimethoxymethyl-;Dimethoxymethyl(2-methylpropyl)silane;Isobutyl(methyl)dimethoxysilane;Isobutyldimethoxymethylsilane",
    "duplicated_cas_no": "",
    "SMILES": "[Si](CC(C)C)(OC)(OC)C",
    "meta_data": {
        "InChI": "InChI=1S/C7H18O2Si/c1-7(2)6-10(5,8-3)9-4/h7H,6H2,1-5H3",
        "InChIKey": null,
        "Canonical SMILES": "O(C)[Si](OC)(C)CC(C)C",
        "Molecular Formula": "C<sub>7</sub>H<sub>18</sub>O<sub>2</sub>Si",
        "Molecular Mass": "162.30",
        "Boiling Point": "63 °C @ Press: 40 Torr",
        "Density": "0.8637 g/cm³ @ Temp: 20 °C"
    }
}