{
    "cas_no": "2753-45-9",
    "key_name": "Mebeverine hydrochloride",
    "cn_name": "盐酸麦皮凡林;",
    "alternate_name": "Benzoic acid, 3,4-dimethoxy-, 4-[ethyl[2-(4-methoxyphenyl)-1-methylethyl]amino]butyl ester, hydrochloride (1:1);Veratric acid, 4-[ethyl(<em>p</em>-methoxy-α-methylphenethyl)amino]-, butyl ester, hydrochloride;Benzoic acid, 3,4-dimethoxy-, 4-[ethyl[2-(4-methoxyphenyl)-1-methylethyl]amino]butyl ester, hydrochloride;1-Butanol, 4-[ethyl(<em>p</em>-methoxy-α-methylphenethyl)amino]-, veratrate, hydrochloride;CSAG 144;4-[Ethyl(<em>p</em>-methoxy-α-methylphenethyl)amino]butyl veratrate hydrochloride;4′-[<em>N</em>-Ethyl-1′′-methyl-2′′-(4′′′-methoxyphenyl)ethylamino]butyl 3,4-dimethoxybenzoate hydrochloride;Mebeverine hydrochloride;Duspatalin;Colofac;Duspatal;NSC 169101;Colospasmin;Mebaspa;Colaspa;Spasmotaline;Duspataline;Coloverine;Colospasmine fort",
    "duplicated_cas_no": "14505-94-3",
    "SMILES": "C(OCCCCN(C(CC1=CC=C(OC)C=C1)C)CC)(=O)C2=CC(OC)=C(OC)C=C2.Cl",
    "meta_data": {
        "InChI": "InChI=1S/C25H35NO5.ClH/c1-6-26(19(2)17-20-9-12-22(28-3)13-10-20)15-7-8-16-31-25(27)21-11-14-23(29-4)24(18-21)30-5;/h9-14,18-19H,6-8,15-17H2,1-5H3;1H",
        "InChIKey": null,
        "Canonical SMILES": "Cl.O=C(OCCCCN(CC)C(C)CC1=CC=C(OC)C=C1)C2=CC=C(OC)C(OC)=C2",
        "Molecular Formula": "C<sub>25</sub>H<sub>35</sub>NO<sub>5</sub>.ClH",
        "Molecular Mass": "",
        "Melting Point": "125-127 °C"
    }
}