{
    "cas_no": "93-44-7",
    "key_name": "2-Naphthalenol, 2-benzoate",
    "cn_name": "苯甲酸萘酚酯;苯甲酸-2-萘酯;",
    "alternate_name": "2-Naphthalenol, 2-benzoate;2-Naphthol, benzoate;2-Naphthalenol, benzoate;Benzonaphthol;2-Benzoyloxynaphthalene;β-Naphthyl benzoate;2-Naphthyl benzoate;Betabenzon;NSC 5537;Naphthalen-2-yl benzoate;PPC 016",
    "duplicated_cas_no": "",
    "SMILES": "O(C(=O)C1=CC=CC=C1)C2=CC3=C(C=C2)C=CC=C3",
    "meta_data": {
        "InChI": "InChI=1S/C17H12O2/c18-17(14-7-2-1-3-8-14)19-16-11-10-13-6-4-5-9-15(13)12-16/h1-12H",
        "InChIKey": null,
        "Canonical SMILES": "O=C(OC=1C=CC=2C=CC=CC2C1)C=3C=CC=CC3",
        "Molecular Formula": "C<sub>17</sub>H<sub>12</sub>O<sub>2</sub>",
        "Molecular Mass": "248.28",
        "Melting Point": "107 °C"
    }
}