{
    "cas_no": "443305-33-7",
    "key_name": "Pyrimidinium, 2-[(2,5-dioxo-1-pyrrolidinyl)oxy]-3,4,5,6-tetrahydro-1,3-dimethyl-, hexafluorophosphate(1-) (1:1)",
    "cn_name": null,
    "alternate_name": "Pyrimidinium, 2-[(2,5-dioxo-1-pyrrolidinyl)oxy]-3,4,5,6-tetrahydro-1,3-dimethyl-, hexafluorophosphate(1-) (1:1);Pyrimidinium, 2-[(2,5-dioxo-1-pyrrolidinyl)oxy]-3,4,5,6-tetrahydro-1,3-dimethyl-, hexafluorophosphate(1-);HDPyOSu",
    "duplicated_cas_no": "",
    "SMILES": "O(N1C(=O)CCC1=O)C2=[N+](C)CCCN2C.[P+5]([F-])([F-])([F-])([F-])([F-])[F-]",
    "meta_data": {
        "InChI": "InChI=1S/C10H16N3O3.F6P/c1-11-6-3-7-12(2)10(11)16-13-8(14)4-5-9(13)15;1-7(2,3,4,5)6/h3-7H2,1-2H3;/q+1;-1",
        "InChIKey": null,
        "Canonical SMILES": "O=C1N(OC=2N(C)CCC[N+]2C)C(=O)CC1.[F-][P+5]([F-])([F-])([F-])([F-])[F-]",
        "Molecular Formula": "C<sub>10</sub>H<sub>16</sub>N<sub>3</sub>O<sub>3</sub>.F<sub>6</sub>P",
        "Molecular Mass": "",
        "Melting Point": "170-172 °C"
    }
}