{
    "cas_no": "13154-24-0",
    "key_name": "Triisopropylsilyl chloride",
    "cn_name": "三异丙基氯硅烷;",
    "alternate_name": "Silane, chlorotris(1-methylethyl)-;Silane, chlorotriisopropyl-;Chlorotris(1-methylethyl)silane;Triisopropylchlorosilane;Triisopropylsilyl chloride;Chlorotriisopropylsilane",
    "duplicated_cas_no": "",
    "SMILES": "[Si](C(C)C)(C(C)C)(C(C)C)Cl",
    "meta_data": {
        "InChI": "InChI=1S/C9H21ClSi/c1-7(2)11(10,8(3)4)9(5)6/h7-9H,1-6H3",
        "InChIKey": null,
        "Canonical SMILES": "Cl[Si](C(C)C)(C(C)C)C(C)C",
        "Molecular Formula": "C<sub>9</sub>H<sub>21</sub>ClSi",
        "Molecular Mass": "192.80",
        "Boiling Point": "79-80 °C @ Press: 10 Torr",
        "Density": "0.903 g/cm³"
    }
}