{
    "cas_no": "5911-04-6",
    "key_name": "(±)-3-Methylnonane",
    "cn_name": null,
    "alternate_name": "Nonane, 3-methyl-;3-Methylnonane;(±)-3-Methylnonane",
    "duplicated_cas_no": "82373-57-7",
    "SMILES": "C(CCCCCC)(CC)C",
    "meta_data": {
        "InChI": "InChI=1S/C10H22/c1-4-6-7-8-9-10(3)5-2/h10H,4-9H2,1-3H3",
        "InChIKey": null,
        "Canonical SMILES": "CCCCCCC(C)CC",
        "Molecular Formula": "C<sub>10</sub>H<sub>22</sub>",
        "Molecular Mass": "142.28",
        "Boiling Point": "167.9 °C",
        "Melting Point": "-84.8 °C",
        "Density": "0.7354 g/cm³ @ Temp: 20 °C"
    }
}