{
    "cas_no": "496-46-8",
    "key_name": "Glycoluril",
    "cn_name": "甘脲;",
    "alternate_name": "Imidazo[4,5-<em>d</em>]imidazole-2,5(1<em>H</em>,3<em>H</em>)-dione, tetrahydro-;Glycoluril;Tetrahydroimidazo[4,5-<em>d</em>]imidazole-2,5(1<em>H</em>,3<em>H</em>)-dione;Acetylene carbamide;Acetyleneurea;Glyoxaldiureine;Acetylenediurea;Acetylenediureine;Diurea glyoxalate;Glyoxalbiuret;NSC 2765;Tetrahydroimidazo[4,5-<em>d</em>]imidazole-2,5-dione;1,3,3a,4,6,6a-Hexahydroimidazo[4,5-<em>d</em>]imidazole-2,5-dione",
    "duplicated_cas_no": "",
    "SMILES": "O=C1NC2C(NC(=O)N2)N1",
    "meta_data": {
        "InChI": "InChI=1S/C4H6N4O2/c9-3-5-1-2(7-3)8-4(10)6-1/h1-2H,(H2,5,7,9)(H2,6,8,10)",
        "InChIKey": null,
        "Canonical SMILES": "O=C1NC2NC(=O)NC2N1",
        "Molecular Formula": "C<sub>4</sub>H<sub>6</sub>N<sub>4</sub>O<sub>2</sub>",
        "Molecular Mass": "142.12",
        "Melting Point": "300 °C (decomp)"
    }
}