{
    "cas_no": "17508-17-7",
    "key_name": "<em>O</em>-(2,4-Dinitrophenyl)hydroxylamine",
    "cn_name": null,
    "alternate_name": "Hydroxylamine, <em>O</em>-(2,4-dinitrophenyl)-;<em>O</em>-(2,4-Dinitrophenyl)hydroxylamine;DNPA;2,4-Dinitrophenoxyamine;2,4-Nitrophenoxyamine;1-Aminooxy-2,4-dinitrobenzene;NSC 148499",
    "duplicated_cas_no": "2250182-23-9",
    "SMILES": "N(=O)(=O)C1=C(ON)C=CC(N(=O)=O)=C1",
    "meta_data": {
        "InChI": "InChI=1S/C6H5N3O5/c7-14-6-2-1-4(8(10)11)3-5(6)9(12)13/h1-3H,7H2",
        "InChIKey": null,
        "Canonical SMILES": "O=N(=O)C1=CC=C(ON)C(=C1)N(=O)=O",
        "Molecular Formula": "C<sub>6</sub>H<sub>5</sub>N<sub>3</sub>O<sub>5</sub>",
        "Molecular Mass": "199.12",
        "Melting Point": "111 °C"
    }
}