{
    "cas_no": "2915-72-2",
    "key_name": "Dodecyl benzoate",
    "cn_name": "苯甲酸十二烷酯;",
    "alternate_name": "Benzoic acid, dodecyl ester;Dodecyl benzoate;Lauryl benzoate;Dodecyl alcohol, benzoate;<em>n</em>-Dodecyl benzoate",
    "duplicated_cas_no": "27615-31-2",
    "SMILES": "C(OCCCCCCCCCCCC)(=O)C1=CC=CC=C1",
    "meta_data": {
        "InChI": "InChI=1S/C19H30O2/c1-2-3-4-5-6-7-8-9-10-14-17-21-19(20)18-15-12-11-13-16-18/h11-13,15-16H,2-10,14,17H2,1H3",
        "InChIKey": null,
        "Canonical SMILES": "O=C(OCCCCCCCCCCCC)C=1C=CC=CC1",
        "Molecular Formula": "C<sub>19</sub>H<sub>30</sub>O<sub>2</sub>",
        "Molecular Mass": "290.44",
        "Boiling Point": "167-170 °C @ Press: 2 Torr",
        "Density": "0.9347 g/cm³ @ Temp: 20 °C"
    }
}