{
    "cas_no": "105-35-1",
    "key_name": "2-Chloro-<em>N</em>-ethylacetamide",
    "cn_name": null,
    "alternate_name": "Acetamide, 2-chloro-<em>N</em>-ethyl-;2-Chloro-<em>N</em>-ethylacetamide;α-Chloro-<em>N</em>-ethylacetamide;<em>N</em>-Ethyl-2-chloroacetamide;NSC 1192",
    "duplicated_cas_no": "",
    "SMILES": "C(NCC)(CCl)=O",
    "meta_data": {
        "InChI": "InChI=1S/C4H8ClNO/c1-2-6-4(7)3-5/h2-3H2,1H3,(H,6,7)",
        "InChIKey": null,
        "Canonical SMILES": "O=C(NCC)CCl",
        "Molecular Formula": "C<sub>4</sub>H<sub>8</sub>ClNO",
        "Molecular Mass": "121.57",
        "Boiling Point": "96 °C @ Press: 13 Torr",
        "Melting Point": "129 °C"
    }
}