{
    "cas_no": "3982-91-0",
    "key_name": "Thiophosphoryl chloride",
    "cn_name": "三氯硫磷;硫代磷酰氯;硫代氯化磷酰;三氯化硫磷;",
    "alternate_name": "Phosphorothioic trichloride;Thiophosphoryl chloride;Phosphorus sulfochloride;Phosphorus thiochloride;Phosphorothionic trichloride;Trichlorophosphine sulfide;Thiophosphoryl chloride (PSCl<sub>3</sub>);Thiophosphoryl trichloride;Thiophosphoric trichloride;Phosphorus trichloride sulfide;Phosphorus thiotrichloride;Thiophosphoric acid trichloride;Phosphorus sulfide trichloride;Trichlorophosphorus thioxide;NSC 158334;Phosphorus trichloride sulfide (PCl<sub>3</sub>S)",
    "duplicated_cas_no": "",
    "SMILES": "P(Cl)(Cl)(Cl)=S",
    "meta_data": {
        "InChI": "InChI=1S/Cl3PS/c1-4(2,3)5",
        "InChIKey": null,
        "Canonical SMILES": "S=P(Cl)(Cl)Cl",
        "Molecular Formula": "Cl<sub>3</sub>PS",
        "Molecular Mass": "169.40",
        "Boiling Point": "125 °C @ Press: 760 Torr",
        "Melting Point": "-35 °C",
        "Density": "1.635 g/cm³"
    }
}