{
    "cas_no": "5537-71-3",
    "key_name": "3-(1-Cyanoethyl)benzoic acid",
    "cn_name": "3-(1-氰乙基)苯甲酸;",
    "alternate_name": "Benzoic acid, 3-(1-cyanoethyl)-;Benzoic acid, <em>m</em>-(1-cyanoethyl)-;3-(1-Cyanoethyl)benzoic acid;2-(3-Carboxyphenyl)propionitrile;<em>m</em>-(1-Cyanoethyl)benzoic acid;NSC 113992;DF 2107Y",
    "duplicated_cas_no": "",
    "SMILES": "C(C#N)(C)C1=CC(C(O)=O)=CC=C1",
    "meta_data": {
        "InChI": "InChI=1S/C10H9NO2/c1-7(6-11)8-3-2-4-9(5-8)10(12)13/h2-5,7H,1H3,(H,12,13)",
        "InChIKey": null,
        "Canonical SMILES": "N#CC(C=1C=CC=C(C1)C(=O)O)C",
        "Molecular Formula": "C<sub>10</sub>H<sub>9</sub>NO<sub>2</sub>",
        "Molecular Mass": "175.18",
        "Melting Point": "140-141 °C"
    }
}