{
    "cas_no": "95-12-5",
    "key_name": "Bicyclo[2.2.1]hept-5-ene-2-methanol",
    "cn_name": "5-降冰片烯-2-甲醇;",
    "alternate_name": "Bicyclo[2.2.1]hept-5-ene-2-methanol;5-Norbornene-2-methanol;Cyclol;2-Hydroxymethyl-5-norbornene;5-(Hydroxymethyl)bicyclo[2.2.1]hept-2-ene;2-(Hydroxymethyl)bicyclo[2.2.1]hept-5-ene;5-Hydroxymethyl-2-norbornene;NSC 403110;Norbornene-5-methyl alcohol;Bicyclo[2.2.1]hept-5-en-2-ylmethanol;[Bicyclo[2.2.1]hept-5-en-2-yl]methanol;2-Norbornen-5-methanol;2-Norbornene-5-methanol",
    "duplicated_cas_no": "",
    "SMILES": "C(O)C1C2CC(C1)C=C2",
    "meta_data": {
        "InChI": "InChI=1S/C8H12O/c9-5-8-4-6-1-2-7(8)3-6/h1-2,6-9H,3-5H2",
        "InChIKey": null,
        "Canonical SMILES": "OCC1CC2C=CC1C2",
        "Molecular Formula": "C<sub>8</sub>H<sub>12</sub>O",
        "Molecular Mass": "124.18",
        "Boiling Point": "92-95 °C @ Press: 13 Torr",
        "Density": "1.028 g/cm³ @ Temp: 20 °C"
    }
}