{
    "cas_no": "867-81-2",
    "key_name": "Sodium pantothenate",
    "cn_name": "D-泛酸钠;右旋泛酸钠;(R)-N-(2,4-二羟基-3,3-二甲基-1-氧代丁基)-beta-丙氨酸单钠盐;",
    "alternate_name": "β-Alanine, <em>N</em>-[(2<em>R</em>)-2,4-dihydroxy-3,3-dimethyl-1-oxobutyl]-, sodium salt (1:1);Pantothenic acid, monosodium salt, <span class=\"text-smallcaps\">D</span>-;β-Alanine, <em>N</em>-(2,4-dihydroxy-3,3-dimethyl-1-oxobutyl)-, monosodium salt, (<em>R</em>)-;β-Alanine, <em>N</em>-[(2<em>R</em>)-2,4-dihydroxy-3,3-dimethyl-1-oxobutyl]-, monosodium salt;Sodium pantothenate;Sodium pantothenic acid;Sodium <span class=\"text-smallcaps\">D</span>-pantothenate;Pantothenic acid sodium salt",
    "duplicated_cas_no": "",
    "SMILES": "[C@@H](C(CO)(C)C)(C(NCCC(O)=O)=O)O.[Na]",
    "meta_data": {
        "InChI": "InChI=1S/C9H17NO5.Na/c1-9(2,5-11)7(14)8(15)10-4-3-6(12)13;/h7,11,14H,3-5H2,1-2H3,(H,10,15)(H,12,13);/t7-;/m0./s1",
        "InChIKey": null,
        "Canonical SMILES": "[Na].O=C(O)CCNC(=O)C(O)C(C)(C)CO",
        "Molecular Formula": "C<sub>9</sub>H<sub>17</sub>NO<sub>5</sub>.Na",
        "Molecular Mass": "",
        "Melting Point": "171-178 °C"
    }
}