{
    "cas_no": "10342-83-3",
    "key_name": "4′-Bromopropiophenone",
    "cn_name": "4\"-溴苯丙酮;对溴苯丙酮;",
    "alternate_name": "1-Propanone, 1-(4-bromophenyl)-;Propiophenone, 4′-bromo-;1-(4-Bromophenyl)-1-propanone;<em>p</em>-Bromopropiophenone;4′-Bromopropiophenone;NSC 83574;4-Bromophenyl ethyl ketone;1-(4-Bromophenyl)propanone;Ethyl 4-bromophenyl ketone",
    "duplicated_cas_no": "",
    "SMILES": "C(CC)(=O)C1=CC=C(Br)C=C1",
    "meta_data": {
        "InChI": "InChI=1S/C9H9BrO/c1-2-9(11)7-3-5-8(10)6-4-7/h3-6H,2H2,1H3",
        "InChIKey": null,
        "Canonical SMILES": "O=C(C1=CC=C(Br)C=C1)CC",
        "Molecular Formula": "C<sub>9</sub>H<sub>9</sub>BrO",
        "Molecular Mass": "213.07",
        "Boiling Point": "137-140 °C @ Press: 2 Torr",
        "Melting Point": "48 °C"
    }
}