{
    "cas_no": "6941-69-1",
    "key_name": "Acetic acid, 2-chloro-, 1,1′-(1,2-ethanediyl) ester",
    "cn_name": "乙二醇二(单氯乙酸酯);",
    "alternate_name": "Acetic acid, 2-chloro-, 1,1′-(1,2-ethanediyl) ester;Acetic acid, chloro-, 1,2-ethanediyl ester;Acetic acid, chloro-, ethylene ester;Ethylene glycol, bis(chloroacetate);1,2-Bis(chloroacetoxy)ethane;Bis(chloroacetyl)ethylene glycol;NSC 22574;2-(2-Chloro-acetoxy)ethyl chloroacetate;Ethylene glycol di(2-chloroacetate);2-[(2-Chloroacetyl)oxy]ethyl 2-chloroacetate;2-(2-Chloroacetyl)oxyethyl 2-chloroacetate",
    "duplicated_cas_no": "",
    "SMILES": "O(CCOC(CCl)=O)C(CCl)=O",
    "meta_data": {
        "InChI": "InChI=1S/C6H8Cl2O4/c7-3-5(9)11-1-2-12-6(10)4-8/h1-4H2",
        "InChIKey": null,
        "Canonical SMILES": "O=C(OCCOC(=O)CCl)CCl",
        "Molecular Formula": "C<sub>6</sub>H<sub>8</sub>Cl<sub>2</sub>O<sub>4</sub>",
        "Molecular Mass": "215.03",
        "Boiling Point": "142-144 °C @ Press: 2 Torr",
        "Melting Point": "45.5 °C"
    }
}