{
    "cas_no": "2043-38-1",
    "key_name": "Butizide",
    "cn_name": null,
    "alternate_name": "2<em>H</em>-1,2,4-Benzothiadiazine-7-sulfonamide, 6-chloro-3,4-dihydro-3-(2-methylpropyl)-, 1,1-dioxide;2<em>H</em>-1,2,4-Benzothiadiazine-7-sulfonamide, 6-chloro-3,4-dihydro-3-isobutyl-, 1,1-dioxide;Butizide;Eunephran;3-Isobutyl-6-chloro-3,4-dihydro-2<em>H</em>-1,2,4-benzothiadiazine-7-sulfonamide 1,1-dioxide;Isobutylhydrochlorothiazide;Saltucin;Thiabutazide;Buthiazide;Su 6187;S 3500;Butizid;3500S;Modenol",
    "duplicated_cas_no": "96782-86-4",
    "SMILES": "O=S1(=O)C=2C(NC(CC(C)C)N1)=CC(Cl)=C(S(N)(=O)=O)C2",
    "meta_data": {
        "InChI": "InChI=1S/C11H16ClN3O4S2/c1-6(2)3-11-14-8-4-7(12)9(20(13,16)17)5-10(8)21(18,19)15-11/h4-6,11,14-15H,3H2,1-2H3,(H2,13,16,17)",
        "InChIKey": null,
        "Canonical SMILES": "O=S(=O)(N)C=1C=C2C(=CC1Cl)NC(NS2(=O)=O)CC(C)C",
        "Molecular Formula": "C<sub>11</sub>H<sub>16</sub>ClN<sub>3</sub>O<sub>4</sub>S<sub>2</sub>",
        "Molecular Mass": "353.85",
        "Melting Point": "221.5 °C"
    }
}