{
    "cas_no": "2459-07-6",
    "key_name": "2-Pyridinecarboxylic acid, methyl ester",
    "cn_name": "2-吡啶甲酸甲酯;吡啶-2-甲酸甲酯;",
    "alternate_name": "2-Pyridinecarboxylic acid, methyl ester;Picolinic acid, methyl ester;Methyl picolinate;Methyl 2-pyridinecarboxylate;2-Carbomethoxypyridine;2-(Methoxycarbonyl)pyridine;NSC 1459;2-Picolinic acid methyl ester",
    "duplicated_cas_no": "",
    "SMILES": "C(OC)(=O)C1=CC=CC=N1",
    "meta_data": {
        "InChI": "InChI=1S/C7H7NO2/c1-10-7(9)6-4-2-3-5-8-6/h2-5H,1H3",
        "InChIKey": null,
        "Canonical SMILES": "O=C(OC)C1=NC=CC=C1",
        "Molecular Formula": "C<sub>7</sub>H<sub>7</sub>NO<sub>2</sub>",
        "Molecular Mass": "137.14",
        "Boiling Point": "112 °C @ Press: 13 Torr",
        "Melting Point": "18.7 °C"
    }
}