{
    "cas_no": "3615-56-3",
    "key_name": "<span class=\"text-smallcaps\">D</span>-Sorbose",
    "cn_name": "D-山梨糖;D-(+)-山梨糖;",
    "alternate_name": "<span class=\"text-smallcaps\">D</span>-Sorbose;Sorbose, <span class=\"text-smallcaps\">D</span>-;Sorbinose;<span class=\"text-smallcaps\">D</span>-(+)-Sorbose;<span class=\"text-smallcaps\">D</span>-<em>xylo</em>-2-Hexulose",
    "duplicated_cas_no": "37500-17-7",
    "SMILES": "[C@@H]([C@H](C(CO)=O)O)([C@@H](CO)O)O",
    "meta_data": {
        "InChI": "InChI=1S/C6H12O6/c7-1-3(9)5(11)6(12)4(10)2-8/h3,5-9,11-12H,1-2H2/t3-,5+,6+/m1/s1",
        "InChIKey": null,
        "Canonical SMILES": "O=C(CO)C(O)C(O)C(O)CO",
        "Molecular Formula": "C<sub>6</sub>H<sub>12</sub>O<sub>6</sub>",
        "Molecular Mass": "180.16",
        "Melting Point": "165 °C"
    }
}