{
    "cas_no": "18836-52-7",
    "key_name": "Pellitorine",
    "cn_name": null,
    "alternate_name": "2,4-Decadienamide, <em>N</em>-(2-methylpropyl)-, (2<em>E</em>,4<em>E</em>)-;2,4-Decadienamide, <em>N</em>-isobutyl-, (<em>E</em>,<em>E</em>)-;2,4-Decadienamide, <em>N</em>-(2-methylpropyl)-, (<em>E</em>,<em>E</em>)-;Pellitorine;(2<em>E</em>,4<em>E</em>)-<em>N</em>-(2-Methylpropyl)-2,4-decadienamide;<em>N</em>-Isobutyldeca-<em>trans</em>-2-<em>trans</em>-4-dienamide;<em>N</em>-(2-Methylpropyl)deca-<em>trans</em>-2-<em>trans</em>-4-dienamide;<em>N</em>-Isobutyl-2-<em>trans</em>-4-<em>trans</em>-decadienamide;(<em>E</em>,<em>E</em>)-<em>N</em>-(2-Methylpropyl)-2,4-decadienamide;Pellitorin;<em>trans</em>-Pellitorin;2<em>E</em>,4<em>E</em>-Decadienoic acid <em>N</em>-isobutylamide;(2<em>E</em>,4<em>E</em>)-<em>N</em>-Isobutyl-2,4-decadienamide;<em>trans</em>-Pellitorine;Optaflow A",
    "duplicated_cas_no": "53608-76-7",
    "SMILES": "C(\\C(NCC(C)C)=O)=C/C=C/CCCCC",
    "meta_data": {
        "InChI": "InChI=1S/C14H25NO/c1-4-5-6-7-8-9-10-11-14(16)15-12-13(2)3/h8-11,13H,4-7,12H2,1-3H3,(H,15,16)/b9-8+,11-10+",
        "InChIKey": null,
        "Canonical SMILES": "O=C(C=CC=CCCCCC)NCC(C)C",
        "Molecular Formula": "C<sub>14</sub>H<sub>25</sub>NO",
        "Molecular Mass": "223.35",
        "Melting Point": "72 °C"
    }
}