{
    "cas_no": "54337-90-5",
    "key_name": "3,4-Dihydroxybenzamide",
    "cn_name": "3,4-二羟基苯腈;",
    "alternate_name": "Benzamide, 3,4-dihydroxy-;3,4-Dihydroxybenzamide;4-Carbamoyl-1,2-benzenediol",
    "duplicated_cas_no": "",
    "SMILES": "C(N)(=O)C1=CC(O)=C(O)C=C1",
    "meta_data": {
        "InChI": "InChI=1S/C7H7NO3/c8-7(11)4-1-2-5(9)6(10)3-4/h1-3,9-10H,(H2,8,11)",
        "InChIKey": null,
        "Canonical SMILES": "O=C(N)C1=CC=C(O)C(O)=C1",
        "Molecular Formula": "C<sub>7</sub>H<sub>7</sub>NO<sub>3</sub>",
        "Molecular Mass": "153.14",
        "Melting Point": "216-218 °C"
    }
}