{
    "cas_no": "107259-05-2",
    "key_name": "1-(<em>tert</em>-Butoxycarbonylamino)cyclopropanecarboxylic acid ethyl ester",
    "cn_name": null,
    "alternate_name": "Cyclopropanecarboxylic acid, 1-[[(1,1-dimethylethoxy)carbonyl]amino]-, ethyl ester;1-(<em>tert</em>-Butoxycarbonylamino)cyclopropanecarboxylic acid ethyl ester;1-[[(1,1-Dimethylethoxy)carbonyl]amino]cyclopropanecarboxylic acid ethyl ester",
    "duplicated_cas_no": "",
    "SMILES": "C(OCC)(=O)C1(NC(OC(C)(C)C)=O)CC1",
    "meta_data": {
        "InChI": "InChI=1S/C11H19NO4/c1-5-15-8(13)11(6-7-11)12-9(14)16-10(2,3)4/h5-7H2,1-4H3,(H,12,14)",
        "InChIKey": null,
        "Canonical SMILES": "O=C(OC(C)(C)C)NC1(C(=O)OCC)CC1",
        "Molecular Formula": "C<sub>11</sub>H<sub>19</sub>NO<sub>4</sub>",
        "Molecular Mass": "229.27",
        "Melting Point": "44-46 °C"
    }
}