{
    "cas_no": "17791-52-5",
    "key_name": "(<em>tert</em>-Butoxycarbonyl)-<span class=\"text-smallcaps\">L</span>-histidine",
    "cn_name": "N-Boc-L-组氨酸;N-叔丁氧羰基-L-组氨酸;",
    "alternate_name": "<span class=\"text-smallcaps\">L</span>-Histidine, <em>N</em>-[(1,1-dimethylethoxy)carbonyl]-;Histidine, <em>N</em>-carboxy-, <em>N</em>-<em>tert</em>-butyl ester, <span class=\"text-smallcaps\">L</span>-;Histidine, <em>N</em>-carboxy-, <em>N</em>-<em>tert</em>-butyl ester;<em>N</em>-[(1,1-Dimethylethoxy)carbonyl]-<span class=\"text-smallcaps\">L</span>-histidine;<em>tert</em>-Butyloxycarbonyl-<span class=\"text-smallcaps\">L</span>-histidine;<em>N</em>-<em>tert</em>-Butyloxycarbonyl-<span class=\"text-smallcaps\">L</span>-histidine;<em>N</em><sup>α</sup>-<em>tert</em>-Butoxycarbonyl-<span class=\"text-smallcaps\">L</span>-histidine;<em>N</em>-<em>tert</em>-Butoxycarbonyl-<span class=\"text-smallcaps\">L</span>-histidine;<em>N</em>-(<em>tert</em>-Butoxycarbonyl)histidine;(<em>tert</em>-Butoxycarbonyl)histidine;<em>N</em><sup>α</sup>-(<em>tert</em>-Butyloxycarbonyl)-<span class=\"text-smallcaps\">L</span>-histidine;(<em>tert</em>-Butoxycarbonyl)-<span class=\"text-smallcaps\">L</span>-histidine;NSC 334942;(+)-<em>N</em><sup>α</sup>-(<em>tert</em>-Butoxycarbonyl)-<span class=\"text-smallcaps\">L</span>-histidine;(2S)-2-[[(<em>tert</em>-Butoxy)carbonyl]amino]-3-(1<em>H</em>-imidazol-4-yl)propanoic acid;(2S)-3-(1<em>H</em>-Imidazol-3-ium-5-yl)-2-[(2-methylpropan-2-yl)oxycarbonylamino]propanoate",
    "duplicated_cas_no": "498566-01-1",
    "SMILES": "[C@@H](CC1=CN=CN1)(NC(OC(C)(C)C)=O)C(O)=O",
    "meta_data": {
        "InChI": "InChI=1S/C11H17N3O4/c1-11(2,3)18-10(17)14-8(9(15)16)4-7-5-12-6-13-7/h5-6,8H,4H2,1-3H3,(H,12,13)(H,14,17)(H,15,16)/t8-/m0/s1",
        "InChIKey": null,
        "Canonical SMILES": "O=C(OC(C)(C)C)NC(C(=O)O)CC1=CN=CN1",
        "Molecular Formula": "C<sub>11</sub>H<sub>17</sub>N<sub>3</sub>O<sub>4</sub>",
        "Molecular Mass": "255.27",
        "Melting Point": "192-196 °C"
    }
}