{
    "cas_no": "556-90-1",
    "key_name": "Pseudothiohydantoin",
    "cn_name": "假硫代乙内酰脲;噻唑;",
    "alternate_name": "4(5<em>H</em>)-Thiazolone, 2-amino-;4-Thiazolidinone, 2-imino-;Pseudothiohydantoin;2-Thiazolin-4-one, 2-amino-;2-Amino-4(5<em>H</em>)-thiazolone;2-Imino-4-thiazolidinone;2-Imino-4-thiazolidone;2-Amino-2-thiazolin-4-one;2-Amino-4-oxothiazoline;NSC 2858;NSC 45956;Pseudohydantoin;2-Amino-4,5-dihydrothiazol-4-one;2-Amino-thiazol-4-one;2-Amino-4,5-dihydro-1,3-thiazol-4-one;2-Amino-1,3-thiazol-4-one",
    "duplicated_cas_no": "5324-10-7;325153-25-1;884380-87-4",
    "SMILES": "O=C1N=C(N)SC1",
    "meta_data": {
        "InChI": "InChI=1S/C3H4N2OS/c4-3-5-2(6)1-7-3/h1H2,(H2,4,5,6)",
        "InChIKey": null,
        "Canonical SMILES": "O=C1N=C(SC1)N",
        "Molecular Formula": "C<sub>3</sub>H<sub>4</sub>N<sub>2</sub>OS",
        "Molecular Mass": "116.14",
        "Melting Point": "&gt;200 °C",
        "Density": "1.637 g/cm³"
    }
}