{
    "cas_no": "58-73-1",
    "key_name": "Diphenhydramine",
    "cn_name": "苯海拉明;N,N-二甲基-2-(二苯甲氧基)乙胺;二甲氨基乙醇二苯甲醚;",
    "alternate_name": "Ethanamine, 2-(diphenylmethoxy)-<em>N</em>,<em>N</em>-dimethyl-;Ethylamine, 2-(diphenylmethoxy)-<em>N</em>,<em>N</em>-dimethyl-;2-(Diphenylmethoxy)-<em>N</em>,<em>N</em>-dimethylethanamine;<em>O</em>-Benzhydryldimethylaminoethanol;2-(Benzhydryloxy)-<em>N</em>,<em>N</em>-dimethylethylamine;β-Dimethylaminoethanol diphenylmethyl ether;α-(2-Dimethylaminoethoxy)diphenylmethane;β-Dimethylaminoethylbenzhydrylether;Diphenhydramine;2-(Diphenylmethoxy)-<em>N</em>,<em>N</em>-dimethylethylamine;Probedryl;<em>N</em>-[2-(Diphenylmethoxy)ethyl]-<em>N</em>,<em>N</em>-dimethylamine;Benzhydramine;DPH;Dimedrol base;FAR 90X2;NSC 665800;<em>N</em>,<em>N</em>-Dimethyl-2-(diphenylmethoxy)ethylamine;2-Benzhydryloxy-<em>N</em>,<em>N</em>-dimethylethanamine;2-(Benzhydryloxy)-<em>N</em>,<em>N</em>-dimethylethanamine;MeSH ID: D004155",
    "duplicated_cas_no": "2226543-89-9",
    "SMILES": "C(OCCN(C)C)(C1=CC=CC=C1)C2=CC=CC=C2",
    "meta_data": {
        "InChI": "InChI=1S/C17H21NO/c1-18(2)13-14-19-17(15-9-5-3-6-10-15)16-11-7-4-8-12-16/h3-12,17H,13-14H2,1-2H3",
        "InChIKey": null,
        "Canonical SMILES": "O(CCN(C)C)C(C=1C=CC=CC1)C=2C=CC=CC2",
        "Molecular Formula": "C<sub>17</sub>H<sub>21</sub>NO",
        "Molecular Mass": "255.35",
        "Boiling Point": "150-165 °C @ Press: 2.0 Torr",
        "Melting Point": "168 °C"
    }
}