{
    "cas_no": "1984-15-2",
    "key_name": "Methylenediphosphonic acid",
    "cn_name": null,
    "alternate_name": "Phosphonic acid, <em>P</em>,<em>P</em>′-methylenebis-;Phosphonic acid, methylenedi-;Phosphonic acid, methylenebis-;<em>P</em>,<em>P</em>′-Methylenebis[phosphonic acid];Methanediphosphonic acid;Methylenediphosphonic acid;Methanebisphosphonic acid;MDP;Medronic acid;Methylenebis[phosphonic acid];Methylene-1,1-bisphosphonic acid;Medronate;Methane-1,1-diphosphonic acid;(Phosphonomethyl)phosphonic acid",
    "duplicated_cas_no": "63347-66-0",
    "SMILES": "C(P(=O)(O)O)P(=O)(O)O",
    "meta_data": {
        "InChI": "InChI=1S/CH6O6P2/c2-8(3,4)1-9(5,6)7/h1H2,(H2,2,3,4)(H2,5,6,7)",
        "InChIKey": null,
        "Canonical SMILES": "O=P(O)(O)CP(=O)(O)O",
        "Molecular Formula": "CH<sub>6</sub>O<sub>6</sub>P<sub>2</sub>",
        "Molecular Mass": "176.00",
        "Melting Point": "199.5 °C"
    }
}