{
    "cas_no": "7783-99-5",
    "key_name": "Silver nitrite",
    "cn_name": "亚硝酸银;亚硝酸银;亚硝酸银(I);亞硝酸銀;",
    "alternate_name": "Nitrous acid, silver(1+) salt (1:1);Nitrous acid, silver(1+) salt;Silver nitrite;Silver(1+) nitrite;Silver(I) nitrite;Silver nitrite (AgNO<sub>2</sub>)",
    "duplicated_cas_no": "172850-11-2;1798290-57-9",
    "SMILES": "N(=O)O.[Ag]",
    "meta_data": {
        "InChI": "InChI=1S/Ag.HNO2/c;2-1-3/h;(H,2,3)",
        "InChIKey": null,
        "Canonical SMILES": "[Ag].O=NO",
        "Molecular Formula": "Ag.HNO<sub>2</sub>",
        "Molecular Mass": "",
        "Melting Point": "220-222 °C"
    }
}