{
    "cas_no": "5957-80-2",
    "key_name": "Carnosol",
    "cn_name": null,
    "alternate_name": "2<em>H</em>-9,4a-(Epoxymethano)phenanthren-12-one, 1,3,4,9,10,10a-hexahydro-5,6-dihydroxy-1,1-dimethyl-7-(1-methylethyl)-, (4a<em>R</em>,9<em>S</em>,10a<em>S</em>)-;Picrosalvin;Podocarpa-8,11,13-trien-17-oic acid, 7β,11,12-trihydroxy-13-isopropyl-, 17,7-lactone;2<em>H</em>-9,4a-(Epoxymethano)phenanthren-12-one, 1,3,4,9,10,10a-hexahydro-5,6-dihydroxy-1,1-dimethyl-7-(1-methylethyl)-, [4a<em>R</em>-(4aα,9α,10aβ)]-;(4a<em>R</em>,9<em>S</em>,10a<em>S</em>)-1,3,4,9,10,10a-Hexahydro-5,6-dihydroxy-1,1-dimethyl-7-(1-methylethyl)-2<em>H</em>-9,4a-(epoxymethano)phenanthren-12-one;Carnosol;NSC 39143;(4AR,10aS)-5,6-Dihydroxy-7-isopropyl-1,1-dimethyl-1,3,4,9,10,10a-hexahydro-2<em>H</em>-9,4a-(epoxymethano)phenanthren-12-one",
    "duplicated_cas_no": "",
    "SMILES": "O=C1[C@@]23C=4C([C@](C[C@]2(C(C)(C)CCC3)[H])(O1)[H])=CC(C(C)C)=C(O)C4O",
    "meta_data": {
        "InChI": "InChI=1S/C20H26O4/c1-10(2)11-8-12-13-9-14-19(3,4)6-5-7-20(14,18(23)24-13)15(12)17(22)16(11)21/h8,10,13-14,21-22H,5-7,9H2,1-4H3/t13-,14-,20+/m0/s1",
        "InChIKey": null,
        "Canonical SMILES": "O=C1OC2C3=CC(=C(O)C(O)=C3C14CCCC(C)(C)C4C2)C(C)C",
        "Molecular Formula": "C<sub>20</sub>H<sub>26</sub>O<sub>4</sub>",
        "Molecular Mass": "330.42",
        "Melting Point": "240-242 °C"
    }
}