{
    "cas_no": "3562-63-8",
    "key_name": "Megestrol",
    "cn_name": "甲地孕酮;",
    "alternate_name": "Pregna-4,6-diene-3,20-dione, 17-hydroxy-6-methyl-;17-Hydroxy-6-methylpregna-4,6-diene-3,20-dione;Megestrol;magestrol",
    "duplicated_cas_no": "",
    "SMILES": "C[C@@]12[C@]([C@]3([C@@]([C@]4(C)C(C(C)=C3)=CC(=O)CC4)(CC1)[H])[H])(CC[C@@]2(C(C)=O)O)[H]",
    "meta_data": {
        "InChI": "InChI=1S/C22H30O3/c1-13-11-16-17(20(3)8-5-15(24)12-19(13)20)6-9-21(4)18(16)7-10-22(21,25)14(2)23/h11-12,16-18,25H,5-10H2,1-4H3/t16-,17+,18+,20-,21+,22+/m1/s1",
        "InChIKey": null,
        "Canonical SMILES": "O=C1C=C2C(=CC3C(CCC4(C)C3CCC4(O)C(=O)C)C2(C)CC1)C",
        "Molecular Formula": "C<sub>22</sub>H<sub>30</sub>O<sub>3</sub>",
        "Molecular Mass": "342.47",
        "Melting Point": "207-208 °C"
    }
}