{
    "cas_no": "1609-06-9",
    "key_name": "<em>N</em>′-Cyano-<em>N</em>,<em>N</em>-dimethylguanidine",
    "cn_name": null,
    "alternate_name": "Guanidine, <em>N</em>′-cyano-<em>N</em>,<em>N</em>-dimethyl-;Guanidine, 3-cyano-1,1-dimethyl-;<em>N</em>′-Cyano-<em>N</em>,<em>N</em>-dimethylguanidine;1-Cyano-3,3-dimethylguanidine;1,1-Dimethyl-3-cyanoguanidine;3-Cyano-1,1-dimethylguanidine;NSC 643479",
    "duplicated_cas_no": "",
    "SMILES": "C(NC#N)(N(C)C)=N",
    "meta_data": {
        "InChI": "InChI=1S/C4H8N4/c1-8(2)4(6)7-3-5/h1-2H3,(H2,6,7)",
        "InChIKey": null,
        "Canonical SMILES": "N#CNC(=N)N(C)C",
        "Molecular Formula": "C<sub>4</sub>H<sub>8</sub>N<sub>4</sub>",
        "Molecular Mass": "112.13",
        "Melting Point": "176-177 °C"
    }
}