{
    "cas_no": "51301-87-2",
    "key_name": "4-Butoxy-3-methoxybenzaldehyde",
    "cn_name": null,
    "alternate_name": "Benzaldehyde, 4-butoxy-3-methoxy-;4-Butoxy-3-methoxybenzaldehyde;<em>O</em>-Butylvanillin;3-Methoxy-4-butoxybenzaldehyde;3-Methoxy-4-(n-butyloxy)benzaldehyde;3-Methoxy-4-<em>n</em>-butoxy-benzaldehyde",
    "duplicated_cas_no": "",
    "SMILES": "O(CCCC)C1=C(OC)C=C(C=O)C=C1",
    "meta_data": {
        "InChI": "InChI=1S/C12H16O3/c1-3-4-7-15-11-6-5-10(9-13)8-12(11)14-2/h5-6,8-9H,3-4,7H2,1-2H3",
        "InChIKey": null,
        "Canonical SMILES": "O=CC1=CC=C(OCCCC)C(OC)=C1",
        "Molecular Formula": "C<sub>12</sub>H<sub>16</sub>O<sub>3</sub>",
        "Molecular Mass": "208.25",
        "Boiling Point": "140.5-141 °C @ Press: 2 Torr",
        "Melting Point": "29.5-30.5 °C"
    }
}