{
    "cas_no": "66357-35-5",
    "key_name": "Ranitidine",
    "cn_name": "盐酸雷尼替丁;N\"-甲基-N-[2-[[[5-[(二甲氨基)甲基]-2-呋喃基]-甲基]硫代]乙基]-2-硝基-1,1-乙烯二胺盐酸盐;",
    "alternate_name": "1,1-Ethenediamine, <em>N</em>-[2-[[[5-[(dimethylamino)methyl]-2-furanyl]methyl]thio]ethyl]-<em>N</em>′-methyl-2-nitro-;<em>N</em>-[2-[[[5-[(Dimethylamino)methyl]-2-furanyl]methyl]thio]ethyl]-<em>N</em>′-methyl-2-nitro-1,1-ethenediamine;Ranitidine;Midaven;Zenetac;Ulcerit;Label;MeSH ID: D011899",
    "duplicated_cas_no": "70956-04-6;80020-48-0;86386-78-9",
    "SMILES": "C(N(C)C)C=1OC(CSCCNC(=CN(=O)=O)NC)=CC1",
    "meta_data": {
        "InChI": "InChI=1S/C13H22N4O3S/c1-14-13(9-17(18)19)15-6-7-21-10-12-5-4-11(20-12)8-16(2)3/h4-5,9,14-15H,6-8,10H2,1-3H3",
        "InChIKey": null,
        "Canonical SMILES": "O=N(=O)C=C(NC)NCCSCC=1OC(=CC1)CN(C)C",
        "Molecular Formula": "C<sub>13</sub>H<sub>22</sub>N<sub>4</sub>O<sub>3</sub>S",
        "Molecular Mass": "314.40",
        "Melting Point": "69-70 °C"
    }
}