{
    "cas_no": "109-66-0",
    "key_name": "Pentane",
    "cn_name": "正戊烷;戊烷;",
    "alternate_name": "Pentane;<em>n</em>-Pentane;Skellysolve A;Norpar 5S;NSC 72415;E 0121;M 004;Exxsol Pentane 80;Guchen MG 132;MG 132",
    "duplicated_cas_no": "8031-35-4;2063998-93-4",
    "SMILES": "C(CC)CC",
    "meta_data": {
        "InChI": "InChI=1S/C5H12/c1-3-5-4-2/h3-5H2,1-2H3",
        "InChIKey": null,
        "Canonical SMILES": "CCCCC",
        "Molecular Formula": "C<sub>5</sub>H<sub>12</sub>",
        "Molecular Mass": "72.15",
        "Boiling Point": "36.1 °C",
        "Melting Point": "-129.7 °C",
        "Density": "0.62638 g/cm³ @ Temp: 20 °C"
    }
}