{
    "cas_no": "13093-04-4",
    "key_name": "<em>N</em><sup>1</sup>,<em>N</em><sup>6</sup>-Dimethyl-1,6-hexanediamine",
    "cn_name": "N,N\"-二甲基-1,6-己二胺;",
    "alternate_name": "1,6-Hexanediamine, <em>N</em><sup>1</sup>,<em>N</em><sup>6</sup>-dimethyl-;1,6-Hexanediamine, <em>N</em>,<em>N</em>′-dimethyl-;<em>N</em><sup>1</sup>,<em>N</em><sup>6</sup>-Dimethyl-1,6-hexanediamine;<em>N</em>,<em>N</em>′-Dimethyl-1,6-hexanediamine;<em>N</em>,<em>N</em>′-Dimethylhexamethylenediamine;<em>N</em>,<em>N</em>′-Dimethyl-1,6-diaminohexane;1,6-Bis(methylamino)hexane;<em>N</em>,<em>N</em>′-Dimethylhexanediamine;<em>N</em>,<em>N</em>′-Dimethyl-1,6-hexamethylenediamine",
    "duplicated_cas_no": "",
    "SMILES": "C(CCCNC)CCNC",
    "meta_data": {
        "InChI": "InChI=1S/C8H20N2/c1-9-7-5-3-4-6-8-10-2/h9-10H,3-8H2,1-2H3",
        "InChIKey": null,
        "Canonical SMILES": "N(C)CCCCCCNC",
        "Molecular Formula": "C<sub>8</sub>H<sub>20</sub>N<sub>2</sub>",
        "Molecular Mass": "144.26",
        "Boiling Point": "85-90 °C @ Press: 9 Torr"
    }
}