{
    "cas_no": "34522-32-2",
    "key_name": "Octopine",
    "cn_name": "章鱼碱;章魚肉鹼;",
    "alternate_name": "<span class=\"text-smallcaps\">L</span>-Arginine, <em>N</em><sup>2</sup>-[(1<em>R</em>)-1-carboxyethyl]-;<span class=\"text-smallcaps\">L</span>-Arginine, <em>N</em><sup>2</sup>-(1-carboxyethyl)-, (<em>R</em>)-;Arginine, <em>N</em><sup>2</sup>-(1-carboxyethyl)-, <span class=\"text-smallcaps\">L</span>-;Octopine;<em>N</em><sup>2</sup>-[(1<em>R</em>)-1-Carboxyethyl]-<span class=\"text-smallcaps\">L</span>-arginine;<span class=\"text-smallcaps\">D</span>-Octopine;<span class=\"text-smallcaps\">D</span>-(+)-Octopine;<em>N</em><sup>2</sup>-(<span class=\"text-smallcaps\">D</smallcap>-1-Carboxyethyl)-<smallcap>L</span>-arginine",
    "duplicated_cas_no": "499-45-6;14358-35-1;23449-95-8;33034-23-0",
    "SMILES": "[C@H](N[C@@H](C(O)=O)C)(CCCNC(=N)N)C(O)=O",
    "meta_data": {
        "InChI": "InChI=1S/C9H18N4O4/c1-5(7(14)15)13-6(8(16)17)3-2-4-12-9(10)11/h5-6,13H,2-4H2,1H3,(H,14,15)(H,16,17)(H4,10,11,12)/t5-,6+/m1/s1",
        "InChIKey": null,
        "Canonical SMILES": "O=C(O)C(NC(C(=O)O)CCCNC(=N)N)C",
        "Molecular Formula": "C<sub>9</sub>H<sub>18</sub>N<sub>4</sub>O<sub>4</sub>",
        "Molecular Mass": "246.26",
        "Melting Point": "261-264 °C (decomp)"
    }
}