{
    "cas_no": "1737-26-4",
    "key_name": "α-Methyl-4-(trifluoromethyl)benzenemethanol",
    "cn_name": "1-[4-(三氟甲基)苯基]乙醇;",
    "alternate_name": "Benzenemethanol, α-methyl-4-(trifluoromethyl)-;Benzyl alcohol, α-methyl-<em>p</em>-(trifluoromethyl)-;α-Methyl-4-(trifluoromethyl)benzenemethanol;1-(4-Trifluoromethylphenyl)ethanol;α-Methyl-<em>p</em>-(trifluoromethyl)benzyl alcohol;1-(1-Hydroxyethyl)-4-trifluoromethylbenzene;4-Trifluoromethyl-α-methylbenzenemethanol;1-(<em>p</em>-Trifluoromethylphenyl)ethanol;α-Methyl-4-trifluoromethylbenzenemethanol;(±)-1-(<em>p</em>-Trifluoromethylphenyl)ethanol;1-[4-(Trifluoromethyl)phenyl]ethan-1-ol",
    "duplicated_cas_no": "68120-43-4",
    "SMILES": "C(F)(F)(F)C1=CC=C(C(C)O)C=C1",
    "meta_data": {
        "InChI": "InChI=1S/C9H9F3O/c1-6(13)7-2-4-8(5-3-7)9(10,11)12/h2-6,13H,1H3",
        "InChIKey": null,
        "Canonical SMILES": "FC(F)(F)C1=CC=C(C=C1)C(O)C",
        "Molecular Formula": "C<sub>9</sub>H<sub>9</sub>F<sub>3</sub>O",
        "Molecular Mass": "190.16",
        "Boiling Point": "116-118 °C @ Press: 20 Torr"
    }
}