{
    "cas_no": "42461-84-7",
    "key_name": "Flunixin meglumine",
    "cn_name": "氟尼辛葡甲胺;氟尼辛;氟胺烟酸葡甲胺;2-[[2-甲基-3-(三氟甲基)苯基]氨基]-3-吡啶甲酸1-甲胺基-1-去氧山梨醇;",
    "alternate_name": "<span class=\"text-smallcaps\">D</span>-Glucitol, 1-deoxy-1-(methylamino)-, 2-[[2-methyl-3-(trifluoromethyl)phenyl]amino]-3-pyridinecarboxylate (1:1);<span class=\"text-smallcaps\">D</span>-Glucitol, 1-deoxy-1-(methylamino)-, 2-[[2-methyl-3-(trifluoromethyl)phenyl]amino]-3-pyridinecarboxylate (salt);3-Pyridinecarboxylic acid, 2-[[2-methyl-3-(trifluoromethyl)phenyl]amino]-, compd. with 1-deoxy-1-(methylamino)-<span class=\"text-smallcaps\">D</span>-glucitol (1:1);2-(2-Methyl-3-trifluoromethylanilino)nicotinic acid <em>N</em>-methyl-<span class=\"text-smallcaps\">D</span>-glucamine salt;Banamine;Flunixin meglumine;Flunixin <em>N</em>-methylglucamine;Finadyne;NIH 10250;Ilium flunixil;Equileve;Flunimeg;Finadyne RP",
    "duplicated_cas_no": "54396-43-9",
    "SMILES": "N(C1=C(C(O)=O)C=CC=N1)C2=C(C)C(C(F)(F)F)=CC=C2.[C@H]([C@@H]([C@@H](CO)O)O)([C@H](CNC)O)O",
    "meta_data": {
        "InChI": "InChI=1S/C14H11F3N2O2.C7H17NO5/c1-8-10(14(15,16)17)5-2-6-11(8)19-12-9(13(20)21)4-3-7-18-12;1-8-2-4(10)6(12)7(13)5(11)3-9/h2-7H,1H3,(H,18,19)(H,20,21);4-13H,2-3H2,1H3/t;4-,5+,6+,7+/m.0/s1",
        "InChIKey": null,
        "Canonical SMILES": "O=C(O)C1=CC=CN=C1NC2=CC=CC(=C2C)C(F)(F)F.OCC(O)C(O)C(O)C(O)CNC",
        "Molecular Formula": "C<sub>14</sub>H<sub>11</sub>F<sub>3</sub>N<sub>2</sub>O<sub>2</sub>.C<sub>7</sub>H<sub>17</sub>NO<sub>5</sub>",
        "Molecular Mass": "",
        "Melting Point": "135-139 °C"
    }
}