{
    "cas_no": "2637-76-5",
    "key_name": "1-Acetyl-3-piperidinecarboxylic acid",
    "cn_name": null,
    "alternate_name": "3-Piperidinecarboxylic acid, 1-acetyl-;Nipecotic acid, 1-acetyl-;1-Acetyl-3-piperidinecarboxylic acid;<em>N</em>-Acetylnipecotic acid",
    "duplicated_cas_no": "",
    "SMILES": "C(O)(=O)C1CN(C(C)=O)CCC1",
    "meta_data": {
        "InChI": "InChI=1S/C8H13NO3/c1-6(10)9-4-2-3-7(5-9)8(11)12/h7H,2-5H2,1H3,(H,11,12)",
        "InChIKey": null,
        "Canonical SMILES": "O=C(O)C1CN(C(=O)C)CCC1",
        "Molecular Formula": "C<sub>8</sub>H<sub>13</sub>NO<sub>3</sub>",
        "Molecular Mass": "171.19",
        "Melting Point": "130.5-131.5 °C"
    }
}