{
    "cas_no": "2150-55-2",
    "key_name": "2-Aminothiazoline-4-carboxylic acid",
    "cn_name": null,
    "alternate_name": "4-Thiazolecarboxylic acid, 2-amino-4,5-dihydro-;2-Thiazoline-4-carboxylic acid, 2-amino-;2-Amino-4,5-dihydro-4-thiazolecarboxylic acid;2-Aminothiazoline-4-carboxylic acid;2-Iminothiazolidine-4-carboxylic acid;<span class=\"text-smallcaps\">D</smallcap><smallcap>L</span>-2-Aminothiazoline-4-carboxylic acid;<span class=\"text-smallcaps\">D</smallcap><smallcap>L</span>-2-Amino-Δ<sup>2</sup>-thiazoline-4-carboxylic acid;NSC 25069;<span class=\"text-smallcaps\">D</smallcap><smallcap>L</span>-2-Amino-2-thiazolin-4-carboxylic acid;2-Amino-2-thiazoline-4-carboxylic acid;2-Imino-1,3-thiazolidine-4-carboxylic acid;2-Amino-4,5-dihydro-1,3-thiazole-4-carboxylic acid;2-Amino-4,5-dihydro-1,3-thiazol-3-ium-4-carboxylate",
    "duplicated_cas_no": "19288-29-0;66855-91-2",
    "SMILES": "C(O)(=O)C1N=C(N)SC1",
    "meta_data": {
        "InChI": "InChI=1S/C4H6N2O2S/c5-4-6-2(1-9-4)3(7)8/h2H,1H2,(H2,5,6)(H,7,8)",
        "InChIKey": null,
        "Canonical SMILES": "O=C(O)C1N=C(SC1)N",
        "Molecular Formula": "C<sub>4</sub>H<sub>6</sub>N<sub>2</sub>O<sub>2</sub>S",
        "Molecular Mass": "146.17",
        "Melting Point": "212 °C"
    }
}