{
    "cas_no": "58-40-2",
    "key_name": "Promazine",
    "cn_name": "丙嗪;N,N-二甲基-3-(10H-吩噻嗪-10-基)丙-1-胺;",
    "alternate_name": "10<em>H</em>-Phenothiazine-10-propanamine, <em>N</em>,<em>N</em>-dimethyl-;Phenothiazine, 10-[3-(dimethylamino)propyl]-;<em>N</em>,<em>N</em>-Dimethyl-10<em>H</em>-phenothiazine-10-propanamine;A 145;RP 3276;Ampazine;10-[3-(Dimethylamino)propyl]phenothiazine;Esparin;Neo-Hibernex;Prazin;Prazine;Promazine;Protactyl;Verophen;Berophen;Romtiazin;Wy 1094;Sinophenin;Tomil;3276RP;<em>N</em>-(3-Dimethylaminopropyl)phenothiazine;NSC 31447;MeSH ID: D011395",
    "duplicated_cas_no": "",
    "SMILES": "C(CCN(C)C)N1C=2C(SC=3C1=CC=CC3)=CC=CC2",
    "meta_data": {
        "InChI": "InChI=1S/C17H20N2S/c1-18(2)12-7-13-19-14-8-3-5-10-16(14)20-17-11-6-4-9-15(17)19/h3-6,8-11H,7,12-13H2,1-2H3",
        "InChIKey": null,
        "Canonical SMILES": "S1C=2C=CC=CC2N(C=3C=CC=CC13)CCCN(C)C",
        "Molecular Formula": "C<sub>17</sub>H<sub>20</sub>N<sub>2</sub>S",
        "Molecular Mass": "284.42",
        "Boiling Point": "203-210 °C @ Press: 0.3 Torr",
        "Melting Point": "&lt;25 °C"
    }
}