{
    "cas_no": "471-25-0",
    "key_name": "Propiolic acid",
    "cn_name": "丙炔酸;",
    "alternate_name": "2-Propynoic acid;Propiolic acid;Acetylenecarboxylic acid;Propargylic acid;Propynoic acid;Carboxyacetylene;Acetylenemonocarboxylic acid;2-Propyne-1-carboxylic acid;NSC 16152",
    "duplicated_cas_no": "",
    "SMILES": "C(C#C)(O)=O",
    "meta_data": {
        "InChI": "InChI=1S/C3H2O2/c1-2-3(4)5/h1H,(H,4,5)",
        "InChIKey": null,
        "Canonical SMILES": "O=C(O)C#C",
        "Molecular Formula": "C<sub>3</sub>H<sub>2</sub>O<sub>2</sub>",
        "Molecular Mass": "70.05",
        "Boiling Point": "57 °C",
        "Melting Point": "9 °C",
        "Density": "1.1435 g/cm³ @ Temp: 15 °C"
    }
}