{
    "cas_no": "1588-89-2",
    "key_name": "2,3-Diphenylpyrazine",
    "cn_name": "2,3-二苯基哌嗪;2,3-联苯基哌嗪;2,3-二苯基哌嗪;2,3-二苯基哌嗪,98%;",
    "alternate_name": "Pyrazine, 2,3-diphenyl-;2,3-Diphenylpyrazine;NSC 54144",
    "duplicated_cas_no": "",
    "SMILES": "C=1(C(=NC=CN1)C2=CC=CC=C2)C3=CC=CC=C3",
    "meta_data": {
        "InChI": "InChI=1S/C16H12N2/c1-3-7-13(8-4-1)15-16(18-12-11-17-15)14-9-5-2-6-10-14/h1-12H",
        "InChIKey": null,
        "Canonical SMILES": "N1=CC=NC(C2=CC=CC=C2)=C1C=3C=CC=CC3",
        "Molecular Formula": "C<sub>16</sub>H<sub>12</sub>N<sub>2</sub>",
        "Molecular Mass": "232.28",
        "Melting Point": "120 °C"
    }
}