{
    "cas_no": "14531-55-6",
    "key_name": "3,5-Dimethyl-4-nitropyrazole",
    "cn_name": "3,5-二甲基-4-硝基吡唑;",
    "alternate_name": "1<em>H</em>-Pyrazole, 3,5-dimethyl-4-nitro-;Pyrazole, 3,5-dimethyl-4-nitro-;3,5-Dimethyl-4-nitro-1<em>H</em>-pyrazole;4-Nitro-3,5-dimethylpyrazole;3,5-Dimethyl-4-nitropyrazole",
    "duplicated_cas_no": "",
    "SMILES": "N(=O)(=O)C=1C(C)=NNC1C",
    "meta_data": {
        "InChI": "InChI=1S/C5H7N3O2/c1-3-5(8(9)10)4(2)7-6-3/h1-2H3,(H,6,7)",
        "InChIKey": null,
        "Canonical SMILES": "O=N(=O)C=1C(=NNC1C)C",
        "Molecular Formula": "C<sub>5</sub>H<sub>7</sub>N<sub>3</sub>O<sub>2</sub>",
        "Molecular Mass": "141.13",
        "Melting Point": "123-124 °C",
        "Density": "1.330 g/cm³ (solid)"
    }
}