{
    "cas_no": "1698-60-8",
    "key_name": "Chloridazon",
    "cn_name": "氯草敏;杀草敏;5-氨基-4-氯-2-苯基-3(2H)-哒嗪酮;",
    "alternate_name": "3(2<em>H</em>)-Pyridazinone, 5-amino-4-chloro-2-phenyl-;5-Amino-4-chloro-2-phenyl-3(2<em>H</em>)-pyridazinone;HS 119-1;5-Amino-4-chloro-2,3-dihydro-3-oxo-2-phenylpyridazine;PCA;Phenazon;1-Phenyl-4-amino-5-chloropyridazin-6-one;1-Phenyl-4-amino-5-chloro-6-pyridazone;1-Phenyl-4-amino-5-chloropyridazone-6;1-Phenyl-4-amino-5-chlorpyridaz-6-one;Pyramine;Pyrazon;Phenazone;Phenazone (herbicide);Pyramin;Pyramin (herbicide);4-Amino-5-chloro-1-phenylpyridazone;5-Amino-4-chloro-2-phenyl-3(2<em>H</em>)-pyridazone;1-Phenyl-4-amino-5-chloro-6(1<em>H</em>)-pyridazinone;4-Amino-5-chloro-1-phenyl-6-pyridazone;5-Amino-4-chloro-2-phenyl-3-pyridazinone;4-Amino-5-chloro-1-phenyl-6-pyridazinone;5-Amino-4-chloro-2-phenyl-2<em>H</em>-pyridazin-3-one;BAS 11916H;PAC;Chloridazon;PAC (pesticide);Chloridazone;Burex;BAS 13033;PCA (pesticide);Suzon;Pyramin FL;Phenosane;Betoxon;Pyramin turbo",
    "duplicated_cas_no": "58858-18-7",
    "SMILES": "O=C1N(N=CC(N)=C1Cl)C2=CC=CC=C2",
    "meta_data": {
        "InChI": "InChI=1S/C10H8ClN3O/c11-9-8(12)6-13-14(10(9)15)7-4-2-1-3-5-7/h1-6H,12H2",
        "InChIKey": null,
        "Canonical SMILES": "O=C1C(Cl)=C(N)C=NN1C=2C=CC=CC2",
        "Molecular Formula": "C<sub>10</sub>H<sub>8</sub>ClN<sub>3</sub>O",
        "Molecular Mass": "221.64",
        "Melting Point": "206 °C",
        "Density": "1.54 g/cm³ @ Temp: 20 °C"
    }
}