{
    "cas_no": "938-45-4",
    "key_name": "1-(2-Hydroxy-5-methylphenyl)-1-propanone",
    "cn_name": "1-(2-羟基-5-甲基苯基)-1-丙酮;1-(2-羟基-5-甲基苯基)-1-丙酮;",
    "alternate_name": "1-Propanone, 1-(2-hydroxy-5-methylphenyl)-;Propiophenone, 2′-hydroxy-5′-methyl-;1-(2-Hydroxy-5-methylphenyl)-1-propanone;2′-Hydroxy-5′-methylpropiophenone;2-Propionyl-<em>p</em>-cresol;1-(2-Hydroxy-5-methylphenyl)propan-1-one",
    "duplicated_cas_no": "",
    "SMILES": "C(CC)(=O)C1=C(O)C=CC(C)=C1",
    "meta_data": {
        "InChI": "InChI=1S/C10H12O2/c1-3-9(11)8-6-7(2)4-5-10(8)12/h4-6,12H,3H2,1-2H3",
        "InChIKey": null,
        "Canonical SMILES": "O=C(C1=CC(=CC=C1O)C)CC",
        "Molecular Formula": "C<sub>10</sub>H<sub>12</sub>O<sub>2</sub>",
        "Molecular Mass": "164.20",
        "Boiling Point": "123-124 °C @ Press: 11 Torr",
        "Melting Point": "2 °C"
    }
}