{
    "cas_no": "3734-33-6",
    "key_name": "Denatonium benzoate",
    "cn_name": "苯甲地那铵;地那铵苯甲酸盐;苄基二乙基[(2,6-二甲苯基氨基甲酰基)甲基]铵苯甲酸盐;",
    "alternate_name": "Benzenemethanaminium, <em>N</em>-[2-[(2,6-dimethylphenyl)amino]-2-oxoethyl]-<em>N</em>,<em>N</em>-diethyl-, benzoate (1:1);Ammonium, benzyldiethyl[(2,6-xylylcarbamoyl)methyl]-, benzoate;Benzyldiethyl[(2,6-xylylcarbamoyl)methyl]ammonium benzoate;Benzenemethanaminium, <em>N</em>-[2-[(2,6-dimethylphenyl)amino]-2-oxoethyl]-<em>N</em>,<em>N</em>-diethyl-, benzoate;THS 839;Bitrex;Denatonium benzoate;Win 16568;Lignocaine benzyl benzoate;Anispray;Gori;ECX 95BY;NSC 157658;<em>N</em>-[2-[(2,6-Dimethylphenyl)amino]-2-oxoethyl]-<em>N</em>,<em>N</em>-diethyl(phenylmethyl)ammonium benzoate;Aversion;Bitterant Bitrex PG",
    "duplicated_cas_no": "",
    "SMILES": "[N+](CC1=CC=CC=C1)(CC(NC2=C(C)C=CC=C2C)=O)(CC)CC.C([O-])(=O)C1=CC=CC=C1",
    "meta_data": {
        "InChI": "InChI=1S/C21H28N2O.C7H6O2/c1-5-23(6-2,15-19-13-8-7-9-14-19)16-20(24)22-21-17(3)11-10-12-18(21)4;8-7(9)6-4-2-1-3-5-6/h7-14H,5-6,15-16H2,1-4H3;1-5H,(H,8,9)",
        "InChIKey": null,
        "Canonical SMILES": "O=C([O-])C=1C=CC=CC1.O=C(NC=1C(=CC=CC1C)C)C[N+](CC=2C=CC=CC2)(CC)CC",
        "Molecular Formula": "C<sub>21</sub>H<sub>29</sub>N<sub>2</sub>O.C<sub>7</sub>H<sub>5</sub>O<sub>2</sub>",
        "Molecular Mass": "",
        "Melting Point": "168 °C"
    }
}