{
    "cas_no": "5390-04-5",
    "key_name": "4-Pentyn-1-ol",
    "cn_name": "4-戊炔-1-醇;",
    "alternate_name": "4-Pentyn-1-ol;1-Pentyn-5-ol;1-Hydroxy-4-pentyne;5-Hydroxy-1-pentyne;Pent-4-yne-1-ol;NSC 5274;(3-Hydroxypropyl)acetylene;Pent-4-yn-1-ol;Pentyne alcohol",
    "duplicated_cas_no": "",
    "SMILES": "C(CCO)C#C",
    "meta_data": {
        "InChI": "InChI=1S/C5H8O/c1-2-3-4-5-6/h1,6H,3-5H2",
        "InChIKey": null,
        "Canonical SMILES": "C#CCCCO",
        "Molecular Formula": "C<sub>5</sub>H<sub>8</sub>O",
        "Molecular Mass": "84.12",
        "Boiling Point": "154 °C",
        "Density": "0.909 g/cm³ @ Temp: 19 °C"
    }
}