{
    "cas_no": "790-83-0",
    "key_name": "4,4′-Methylenebis[benzoic acid]",
    "cn_name": null,
    "alternate_name": "Benzoic acid, 4,4′-methylenebis-;Benzoic acid, 4,4′-methylenedi-;4,4′-Methylenebis[benzoic acid];Bis(<em>p</em>-carboxyphenyl)methane;Diphenylmethane-4,4′-dicarboxylic acid;4,4′-Methylenedibenzoic acid;4-[(4-Carboxyphenyl)methyl]benzoic acid;4,4′-Methylenebis(benzoic acid);Bis(4-carboxyphenyl)methane",
    "duplicated_cas_no": "",
    "SMILES": "C(C1=CC=C(C(O)=O)C=C1)C2=CC=C(C(O)=O)C=C2",
    "meta_data": {
        "InChI": "InChI=1S/C15H12O4/c16-14(17)12-5-1-10(2-6-12)9-11-3-7-13(8-4-11)15(18)19/h1-8H,9H2,(H,16,17)(H,18,19)",
        "InChIKey": null,
        "Canonical SMILES": "O=C(O)C1=CC=C(C=C1)CC2=CC=C(C=C2)C(=O)O",
        "Molecular Formula": "C<sub>15</sub>H<sub>12</sub>O<sub>4</sub>",
        "Molecular Mass": "256.25",
        "Melting Point": "322-323 °C"
    }
}