{
    "cas_no": "3454-07-7",
    "key_name": "4-Ethylstyrene",
    "cn_name": null,
    "alternate_name": "Benzene, 1-ethenyl-4-ethyl-;Styrene, <em>p</em>-ethyl-;1-Ethenyl-4-ethylbenzene;<em>p</em>-Ethylstyrene;<em>p</em>-Ethylvinylbenzene;4-Ethylstyrene;p-Ethylethenylbenzene;1-Ethyl-4-vinylbenzene",
    "duplicated_cas_no": "",
    "SMILES": "C(C)C1=CC=C(C=C)C=C1",
    "meta_data": {
        "InChI": "InChI=1S/C10H12/c1-3-9-5-7-10(4-2)8-6-9/h3,5-8H,1,4H2,2H3",
        "InChIKey": null,
        "Canonical SMILES": "C=CC1=CC=C(C=C1)CC",
        "Molecular Formula": "C<sub>10</sub>H<sub>12</sub>",
        "Molecular Mass": "132.20",
        "Boiling Point": "192.3 °C",
        "Melting Point": "-49.7 °C",
        "Density": "0.8976 g/cm³ @ Temp: 25 °C"
    }
}