{
    "cas_no": "5602-96-0",
    "key_name": "Carbamic acid, <em>N</em>-(4-methylphenyl)-, methyl ester",
    "cn_name": null,
    "alternate_name": "Carbamic acid, <em>N</em>-(4-methylphenyl)-, methyl ester;Carbamic acid, (4-methylphenyl)-, methyl ester;Carbanilic acid, <em>p</em>-methyl-, methyl ester;Methyl <em>p</em>-tolylcarbamate;Methyl (4-methylphenyl)carbamate;Methyl <em>N</em>-<em>p</em>-tolylcarbamate;Methyl <em>p</em>-methylcarbanilate;Methyl (<em>p</em>-methylphenyl)carbamate;Methyl <em>N</em>-(4-methylphenyl)carbamate;(4-Methylphenyl)carbamic acid methyl ester",
    "duplicated_cas_no": "",
    "SMILES": "N(C(OC)=O)C1=CC=C(C)C=C1",
    "meta_data": {
        "InChI": "InChI=1S/C9H11NO2/c1-7-3-5-8(6-4-7)10-9(11)12-2/h3-6H,1-2H3,(H,10,11)",
        "InChIKey": null,
        "Canonical SMILES": "O=C(OC)NC1=CC=C(C=C1)C",
        "Molecular Formula": "C<sub>9</sub>H<sub>11</sub>NO<sub>2</sub>",
        "Molecular Mass": "165.19",
        "Melting Point": "98-99 °C"
    }
}