{
    "cas_no": "556-18-3",
    "key_name": "4-Aminobenzaldehyde",
    "cn_name": "4-氨基苯甲醛;对氨基苯甲醛;",
    "alternate_name": "Benzaldehyde, 4-amino-;Benzaldehyde, <em>p</em>-amino-;4-Aminobenzaldehyde;<em>p</em>-Aminobenzaldehyde;<em>p</em>-Formylaniline;4-Formylaniline;NSC 45163",
    "duplicated_cas_no": "",
    "SMILES": "C(=O)C1=CC=C(N)C=C1",
    "meta_data": {
        "InChI": "InChI=1S/C7H7NO/c8-7-3-1-6(5-9)2-4-7/h1-5H,8H2",
        "InChIKey": null,
        "Canonical SMILES": "O=CC1=CC=C(N)C=C1",
        "Molecular Formula": "C<sub>7</sub>H<sub>7</sub>NO",
        "Molecular Mass": "121.14",
        "Melting Point": "71 °C"
    }
}