{
    "cas_no": "745047-53-4",
    "key_name": "<em>N</em><sup>1</sup>-[(2,4-Dimethoxyphenyl)methyl]-<em>N</em><sup>2</sup>-[2-(2-pyridinyl)ethyl]ethanediamide",
    "cn_name": null,
    "alternate_name": "Ethanediamide, <em>N</em><sup>1</sup>-[(2,4-dimethoxyphenyl)methyl]-<em>N</em><sup>2</sup>-[2-(2-pyridinyl)ethyl]-;Ethanediamide, <em>N</em>-[(2,4-dimethoxyphenyl)methyl]-<em>N</em>′-[2-(2-pyridinyl)ethyl]-;<em>N</em><sup>1</sup>-[(2,4-Dimethoxyphenyl)methyl]-<em>N</em><sup>2</sup>-[2-(2-pyridinyl)ethyl]ethanediamide",
    "duplicated_cas_no": "",
    "SMILES": "C(NC(C(NCCC1=CC=CC=N1)=O)=O)C2=C(OC)C=C(OC)C=C2",
    "meta_data": {
        "InChI": "InChI=1S/C18H21N3O4/c1-24-15-7-6-13(16(11-15)25-2)12-21-18(23)17(22)20-10-8-14-5-3-4-9-19-14/h3-7,9,11H,8,10,12H2,1-2H3,(H,20,22)(H,21,23)",
        "InChIKey": null,
        "Canonical SMILES": "O=C(NCC1=CC=C(OC)C=C1OC)C(=O)NCCC2=NC=CC=C2",
        "Molecular Formula": "C<sub>18</sub>H<sub>21</sub>N<sub>3</sub>O<sub>4</sub>",
        "Molecular Mass": "343.38",
        "Melting Point": "123-124 °C"
    }
}