{
    "cas_no": "3923-52-2",
    "key_name": "1,1-Diphenyl-2-propyn-1-ol",
    "cn_name": "1,1-二苯基-2-丙炔-1-醇;",
    "alternate_name": "Benzenemethanol, α-ethynyl-α-phenyl-;2-Propyn-1-ol, 1,1-diphenyl-;α-Ethynyl-α-phenylbenzenemethanol;1,1-Diphenylpropargyl alcohol;1,1-Diphenyl-2-propyn-1-ol;3,3-Diphenyl-3-hydroxy-1-propyne;Ethynyldiphenylmethanol;1,1-Diphenylpropyn-1-ol;NSC 113228;1,1-Diphenyl-1-hydroxy-2-propyne;3,3-Diphenyl-propyn-1-ol;1,1-Diphenyl-2-propyne-1-ol",
    "duplicated_cas_no": "",
    "SMILES": "C(C#C)(O)(C1=CC=CC=C1)C2=CC=CC=C2",
    "meta_data": {
        "InChI": "InChI=1S/C15H12O/c1-2-15(16,13-9-5-3-6-10-13)14-11-7-4-8-12-14/h1,3-12,16H",
        "InChIKey": null,
        "Canonical SMILES": "C#CC(O)(C=1C=CC=CC1)C=2C=CC=CC2",
        "Molecular Formula": "C<sub>15</sub>H<sub>12</sub>O",
        "Molecular Mass": "208.26",
        "Boiling Point": "177-178 °C @ Press: 16-18 Torr",
        "Melting Point": "44.5 °C"
    }
}