{
    "cas_no": "367-21-5",
    "key_name": "3-Chloro-4-fluoroaniline",
    "cn_name": "3-氯-4-氟苯胺;",
    "alternate_name": "Benzenamine, 3-chloro-4-fluoro-;Aniline, 3-chloro-4-fluoro-;3-Chloro-4-fluorobenzenamine;3-Chloro-4-fluoroaniline;4-Fluoro-3-chloroaniline;<em>m</em>-Chloro-<em>p</em>-fluoroaniline;3-Chloro-4-fluorophenylamine;NSC 10290",
    "duplicated_cas_no": "",
    "SMILES": "ClC1=C(F)C=CC(N)=C1",
    "meta_data": {
        "InChI": "InChI=1S/C6H5ClFN/c7-5-3-4(9)1-2-6(5)8/h1-3H,9H2",
        "InChIKey": null,
        "Canonical SMILES": "FC1=CC=C(N)C=C1Cl",
        "Molecular Formula": "C<sub>6</sub>H<sub>5</sub>ClFN",
        "Molecular Mass": "145.56",
        "Boiling Point": "227.5 °C",
        "Melting Point": "45.5 °C"
    }
}