{
    "cas_no": "142-60-9",
    "key_name": "Octyl propionate",
    "cn_name": null,
    "alternate_name": "Propanoic acid, octyl ester;Propionic acid, octyl ester;Octyl alcohol, propionate;Octyl propionate;<em>n</em>-Octyl propionate;Octyl propanoate;NSC 190978",
    "duplicated_cas_no": "",
    "SMILES": "O(CCCCCCCC)C(CC)=O",
    "meta_data": {
        "InChI": "InChI=1S/C11H22O2/c1-3-5-6-7-8-9-10-13-11(12)4-2/h3-10H2,1-2H3",
        "InChIKey": null,
        "Canonical SMILES": "O=C(OCCCCCCCC)CC",
        "Molecular Formula": "C<sub>11</sub>H<sub>22</sub>O<sub>2</sub>",
        "Molecular Mass": "186.29",
        "Boiling Point": "228 °C",
        "Melting Point": "-42.6 °C"
    }
}