{
    "cas_no": "5632-84-8",
    "key_name": "8-Azabicyclo[3.2.1]octan-3-one",
    "cn_name": "去甲托品酮;8-氮杂双环[3,2,1]辛-3-酮;",
    "alternate_name": "8-Azabicyclo[3.2.1]octan-3-one;3-Nortropanone;Nortropinone;1α<span class=\"text-smallcaps\">H</smallcap>,5α<smallcap>H</span>-Nortropan-3-one;NSC 351100",
    "duplicated_cas_no": "",
    "SMILES": "O=C1CC2NC(CC2)C1",
    "meta_data": {
        "InChI": "InChI=1S/C7H11NO/c9-7-3-5-1-2-6(4-7)8-5/h5-6,8H,1-4H2",
        "InChIKey": null,
        "Canonical SMILES": "O=C1CC2NC(C1)CC2",
        "Molecular Formula": "C<sub>7</sub>H<sub>11</sub>NO",
        "Molecular Mass": "125.17",
        "Boiling Point": "69-71 °C @ Press: 0.6 Torr"
    }
}