{
    "cas_no": "1531-78-8",
    "key_name": "Benzoic acid, 2-(chloromethyl)-, ethyl ester",
    "cn_name": "2-氯甲基苯甲酸乙酯;",
    "alternate_name": "Benzoic acid, 2-(chloromethyl)-, ethyl ester;<em>o</em>-Toluic acid, α-chloro-, ethyl ester;Ethyl 2-chloromethylbenzoate;Ethyl <em>o</em>-chloromethylbenzoate;2-Chloromethyl-benzoic acid ethyl ester",
    "duplicated_cas_no": "",
    "SMILES": "C(OCC)(=O)C1=C(CCl)C=CC=C1",
    "meta_data": {
        "InChI": "InChI=1S/C10H11ClO2/c1-2-13-10(12)9-6-4-3-5-8(9)7-11/h3-6H,2,7H2,1H3",
        "InChIKey": null,
        "Canonical SMILES": "O=C(OCC)C=1C=CC=CC1CCl",
        "Molecular Formula": "C<sub>10</sub>H<sub>11</sub>ClO<sub>2</sub>",
        "Molecular Mass": "198.65",
        "Boiling Point": "140 °C @ Press: 14 Torr"
    }
}