{
    "cas_no": "68505-69-1",
    "key_name": "Benfuresate",
    "cn_name": null,
    "alternate_name": "Ethanesulfonic acid, 2,3-dihydro-3,3-dimethyl-5-benzofuranyl ester;NC 20484;Benfuresate;NS 112;Zerbex",
    "duplicated_cas_no": "",
    "SMILES": "CC1(C)C=2C(OC1)=CC=C(OS(CC)(=O)=O)C2",
    "meta_data": {
        "InChI": "InChI=1S/C12H16O4S/c1-4-17(13,14)16-9-5-6-11-10(7-9)12(2,3)8-15-11/h5-7H,4,8H2,1-3H3",
        "InChIKey": null,
        "Canonical SMILES": "O=S(=O)(OC1=CC=C2OCC(C2=C1)(C)C)CC",
        "Molecular Formula": "C<sub>12</sub>H<sub>16</sub>O<sub>4</sub>S",
        "Molecular Mass": "256.32",
        "Melting Point": "30.1 °C"
    }
}