{
    "cas_no": "104075-48-1",
    "key_name": "1<em>H</em>-Imidazole, 5-(2-ethyl-2,3-dihydro-1<em>H</em>-inden-2-yl)-, hydrochloride (1:1)",
    "cn_name": "阿替美唑盐酸盐;4-(2-乙基-2-茚满)咪唑盐酸盐;",
    "alternate_name": "1<em>H</em>-Imidazole, 5-(2-ethyl-2,3-dihydro-1<em>H</em>-inden-2-yl)-, hydrochloride (1:1);1<em>H</em>-Imidazole, 4-(2-ethyl-2,3-dihydro-1<em>H</em>-inden-2-yl)-, monohydrochloride;Atipamezole hydrochloride;Antisedan",
    "duplicated_cas_no": "",
    "SMILES": "C(C)C1(CC=2C(C1)=CC=CC2)C3=CN=CN3.Cl",
    "meta_data": {
        "InChI": "InChI=1S/C14H16N2.ClH/c1-2-14(13-9-15-10-16-13)7-11-5-3-4-6-12(11)8-14;/h3-6,9-10H,2,7-8H2,1H3,(H,15,16);1H",
        "InChIKey": null,
        "Canonical SMILES": "Cl.N1=CNC(=C1)C2(CC=3C=CC=CC3C2)CC",
        "Molecular Formula": "C<sub>14</sub>H<sub>16</sub>N<sub>2</sub>.ClH",
        "Molecular Mass": "",
        "Melting Point": "219.8 °C"
    }
}