{
    "cas_no": "13511-38-1",
    "key_name": "3-Chloro-2,2-dimethylpropanoic acid",
    "cn_name": null,
    "alternate_name": "Propanoic acid, 3-chloro-2,2-dimethyl-;Propionic acid, 3-chloro-2,2-dimethyl-;3-Chloro-2,2-dimethylpropanoic acid;β-Chloro-α,α-dimethylpropionic acid;Chloropivalic acid;3-Chloropivalic acid;β-Chloropivalic acid;Chlorotrimethylacetic acid;3-Chloro-2,2-dimethylpropionic acid;NSC 89696",
    "duplicated_cas_no": "",
    "SMILES": "C(C(O)=O)(CCl)(C)C",
    "meta_data": {
        "InChI": "InChI=1S/C5H9ClO2/c1-5(2,3-6)4(7)8/h3H2,1-2H3,(H,7,8)",
        "InChIKey": null,
        "Canonical SMILES": "O=C(O)C(C)(C)CCl",
        "Molecular Formula": "C<sub>5</sub>H<sub>9</sub>ClO<sub>2</sub>",
        "Molecular Mass": "136.58",
        "Boiling Point": "90-120 °C @ Press: 7 Torr",
        "Melting Point": "41.5 °C"
    }
}