{
    "cas_no": "100114-58-7",
    "key_name": "4-Amino-2-pyridinemethanol",
    "cn_name": null,
    "alternate_name": "2-Pyridinemethanol, 4-amino-;4-Amino-2-pyridinemethanol;(4-Amino-pyridin-2-yl)-methanol",
    "duplicated_cas_no": "",
    "SMILES": "C(O)C1=CC(N)=CC=N1",
    "meta_data": {
        "InChI": "InChI=1S/C6H8N2O/c7-5-1-2-8-6(3-5)4-9/h1-3,9H,4H2,(H2,7,8)",
        "InChIKey": null,
        "Canonical SMILES": "OCC1=NC=CC(N)=C1",
        "Molecular Formula": "C<sub>6</sub>H<sub>8</sub>N<sub>2</sub>O",
        "Molecular Mass": "124.14",
        "Melting Point": "114-115 °C"
    }
}