{
    "cas_no": "693-72-1",
    "key_name": "Vaccenic acid",
    "cn_name": null,
    "alternate_name": "11-Octadecenoic acid, (11<em>E</em>)-;11-Octadecenoic acid, (<em>E</em>)-;Vaccenic acid;(11<em>E</em>)-11-Octadecenoic acid;<em>trans</em>-11-Octadecenoic acid;<em>trans</em>-Vaccenic acid;(<em>E</em>)-11-Octadecenoic acid;<em>trans</em>-Δ<sup>11</sup>-Octadecenoic acid;11-<em>trans</em>-Octadecenoic acid;11(E)-Octadecenoic acid;(<em>E</em>)-Octadec-11-enoic acid",
    "duplicated_cas_no": "",
    "SMILES": "C(CCC/C=C/CCCCCC)CCCCCC(O)=O",
    "meta_data": {
        "InChI": "InChI=1S/C18H34O2/c1-2-3-4-5-6-7-8-9-10-11-12-13-14-15-16-17-18(19)20/h7-8H,2-6,9-17H2,1H3,(H,19,20)/b8-7+",
        "InChIKey": null,
        "Canonical SMILES": "O=C(O)CCCCCCCCCC=CCCCCCC",
        "Molecular Formula": "C<sub>18</sub>H<sub>34</sub>O<sub>2</sub>",
        "Molecular Mass": "282.46",
        "Boiling Point": "125 °C @ Press: 0.1 Torr",
        "Melting Point": "44 °C"
    }
}