{
    "cas_no": "61948-85-4",
    "key_name": "2-Amino-3,4,5-trimethoxybenzoic acid",
    "cn_name": null,
    "alternate_name": "Benzoic acid, 2-amino-3,4,5-trimethoxy-;2-Amino-3,4,5-trimethoxybenzoic acid;3,4,5-Trimethoxyanthranilic acid;NSC 81441",
    "duplicated_cas_no": "",
    "SMILES": "O(C)C1=C(OC)C(OC)=CC(C(O)=O)=C1N",
    "meta_data": {
        "InChI": "InChI=1S/C10H13NO5/c1-14-6-4-5(10(12)13)7(11)9(16-3)8(6)15-2/h4H,11H2,1-3H3,(H,12,13)",
        "InChIKey": null,
        "Canonical SMILES": "O=C(O)C1=CC(OC)=C(OC)C(OC)=C1N",
        "Molecular Formula": "C<sub>10</sub>H<sub>13</sub>NO<sub>5</sub>",
        "Molecular Mass": "227.21",
        "Melting Point": "136-137 °C"
    }
}