{
    "cas_no": "518-82-1",
    "key_name": "Emodin",
    "cn_name": "大黄素;朱砂莲甲素;1,3,8-三羟基-6-甲基蒽醌;",
    "alternate_name": "9,10-Anthracenedione, 1,3,8-trihydroxy-6-methyl-;Anthraquinone, 1,3,8-trihydroxy-6-methyl-;1,3,8-Trihydroxy-6-methyl-9,10-anthracenedione;Emodin;3-Methyl-1,6,8-trihydroxyanthraquinone;Rheum emodin;Schuttgelb;4,5,7-Trihydroxy-2-methylanthraquinone;1,3,8-Trihydroxy-6-methylanthraquinone;Frangula emodin;Emodol;1,3,8-Trihydroxy-6-methyl-9,10-anthraquinone;1,6,8-Trihydroxy-3-methylanthraquinone;Frangulic acid;Archin;NSC 408120;NSC 622947;Emodine;1,3,8-Trihydroxy-6-methyl-9,10-dihydroanthracene-9,10-dione;1,8-Dihydroxy-3-(methoxymethyl)-6-methylanthracene-9,10-dione;MeSH ID: D004642",
    "duplicated_cas_no": "2375546-29-3",
    "SMILES": "O=C1C=2C(C(=O)C=3C1=C(O)C=C(O)C3)=CC(C)=CC2O",
    "meta_data": {
        "InChI": "InChI=1S/C15H10O5/c1-6-2-8-12(10(17)3-6)15(20)13-9(14(8)19)4-7(16)5-11(13)18/h2-5,16-18H,1H3",
        "InChIKey": null,
        "Canonical SMILES": "O=C1C=2C=C(O)C=C(O)C2C(=O)C3=C(O)C=C(C=C13)C",
        "Molecular Formula": "C<sub>15</sub>H<sub>10</sub>O<sub>5</sub>",
        "Molecular Mass": "270.24",
        "Boiling Point": "60-80 °C",
        "Melting Point": "256-257 °C"
    }
}