{
    "cas_no": "36536-22-8",
    "key_name": "1,1′,3,3,3′,3′-Hexamethylindodicarbocyanine iodide",
    "cn_name": null,
    "alternate_name": "3<em>H</em>-Indolium, 2-[5-(1,3-dihydro-1,3,3-trimethyl-2<em>H</em>-indol-2-ylidene)-1,3-pentadien-1-yl]-1,3,3-trimethyl-, iodide (1:1);3<em>H</em>-Indolium, 2-[5-(1,3-dihydro-1,3,3-trimethyl-2<em>H</em>-indol-2-ylidene)-1,3-pentadienyl]-1,3,3-trimethyl-, iodide;1,3,3-Trimethyl-2-[5-(1,3,3-trimethyl-2-indolinylidene)-1,3-pentadienyl]-3<em>H</em>-indolium iodide;1,3,3,1′,3′,3′-Hexamethylindoledicarbocyanine iodide;NK 529;1,1′,3,3,3′,3′-Hexamethylindoledicarbocyanine iodide;HIDC;PK 643;SNC 6;Hexacyanine 2;1,1′,3,3,3′,3′-Hexamethylindodicarbocyanine iodide;HIDCI;ESNF 10;DiIC1(5);1,1,3,3,3′,3′-Hexamethylindodicarbocyanine iodide",
    "duplicated_cas_no": "149370-68-3;186311-60-4",
    "SMILES": "CC1(C)C=2C([N+](C)=C1C=CC=CC=C3N(C)C=4C(C3(C)C)=CC=CC4)=CC=CC2.[I-]",
    "meta_data": {
        "InChI": "InChI=1S/C27H31N2.HI/c1-26(2)20-14-10-12-16-22(20)28(5)24(26)18-8-7-9-19-25-27(3,4)21-15-11-13-17-23(21)29(25)6;/h7-19H,1-6H3;1H/q+1;/p-1",
        "InChIKey": null,
        "Canonical SMILES": "[I-].C(=CC=C1N(C=2C=CC=CC2C1(C)C)C)C=CC3=[N+](C=4C=CC=CC4C3(C)C)C",
        "Molecular Formula": "C<sub>27</sub>H<sub>31</sub>N<sub>2</sub>.I",
        "Molecular Mass": "",
        "Melting Point": "205 °C"
    }
}