{
    "cas_no": "695213-59-3",
    "key_name": "1-Pentyl-<em>N</em>-(phenylmethyl)-1<em>H</em>-indole-3-carboxamide",
    "cn_name": null,
    "alternate_name": "1<em>H</em>-Indole-3-carboxamide, 1-pentyl-<em>N</em>-(phenylmethyl)-;1-Pentyl-<em>N</em>-(phenylmethyl)-1<em>H</em>-indole-3-carboxamide",
    "duplicated_cas_no": "",
    "SMILES": "C(NCC1=CC=CC=C1)(=O)C=2C=3C(N(CCCCC)C2)=CC=CC3",
    "meta_data": {
        "InChI": "InChI=1S/C21H24N2O/c1-2-3-9-14-23-16-19(18-12-7-8-13-20(18)23)21(24)22-15-17-10-5-4-6-11-17/h4-8,10-13,16H,2-3,9,14-15H2,1H3,(H,22,24)",
        "InChIKey": null,
        "Canonical SMILES": "O=C(NCC=1C=CC=CC1)C2=CN(C=3C=CC=CC23)CCCCC",
        "Molecular Formula": "C<sub>21</sub>H<sub>24</sub>N<sub>2</sub>O",
        "Molecular Mass": "320.43",
        "Melting Point": "101-102 °C"
    }
}