{
    "cas_no": "82-45-1",
    "key_name": "1-Aminoanthraquinone",
    "cn_name": "1-氨基蒽醌;",
    "alternate_name": "9,10-Anthracenedione, 1-amino-;Anthraquinone, 1-amino-;1-Amino-9,10-anthracenedione;α-Aminoanthraquinone;1-Aminoanthraquinone;α-Anthraquinonylamine;1-Amino-9,10-anthraquinone;Smoke Orange G;1-AAQ;NSC 30415;NSC 458;9,10-Dioxo-9,10-dihydro-1-anthracenamine;1-Amino-9,10-dihydroanthracene-9,10-dione",
    "duplicated_cas_no": "",
    "SMILES": "O=C1C=2C(C(=O)C=3C1=CC=CC3)=CC=CC2N",
    "meta_data": {
        "InChI": "InChI=1S/C14H9NO2/c15-11-7-3-6-10-12(11)14(17)9-5-2-1-4-8(9)13(10)16/h1-7H,15H2",
        "InChIKey": null,
        "Canonical SMILES": "O=C1C=2C=CC=CC2C(=O)C=3C(N)=CC=CC13",
        "Molecular Formula": "C<sub>14</sub>H<sub>9</sub>NO<sub>2</sub>",
        "Molecular Mass": "223.23",
        "Melting Point": "253.5 °C"
    }
}