{
    "cas_no": "622-80-0",
    "key_name": "Propylaniline",
    "cn_name": "N-丙基苯胺;",
    "alternate_name": "Benzenamine, <em>N</em>-propyl-;Aniline, <em>N</em>-propyl-;<em>N</em>-Propylbenzenamine;<em>N</em>-Propylaniline;<em>N</em>-(<em>n</em>-Propyl)aniline;Propylaniline",
    "duplicated_cas_no": "",
    "SMILES": "N(CCC)C1=CC=CC=C1",
    "meta_data": {
        "InChI": "InChI=1S/C9H13N/c1-2-8-10-9-6-4-3-5-7-9/h3-7,10H,2,8H2,1H3",
        "InChIKey": null,
        "Canonical SMILES": "C=1C=CC(=CC1)NCCC",
        "Molecular Formula": "C<sub>9</sub>H<sub>13</sub>N",
        "Molecular Mass": "135.21",
        "Boiling Point": "222 °C",
        "Melting Point": "76 °C",
        "Density": "0.9404 g/cm³ @ Temp: 20 °C"
    }
}