{
    "cas_no": "15018-56-1",
    "key_name": "5-Bromo-6-methyl-2,4(1<em>H</em>,3<em>H</em>)-pyrimidinedione",
    "cn_name": "5-溴-6-甲基尿苷;",
    "alternate_name": "2,4(1<em>H</em>,3<em>H</em>)-Pyrimidinedione, 5-bromo-6-methyl-;Uracil, 5-bromo-6-methyl-;5-Bromo-6-methyl-2,4(1<em>H</em>,3<em>H</em>)-pyrimidinedione;5-Bromo-6-methyluracil;NSC 53064",
    "duplicated_cas_no": "1781-45-9",
    "SMILES": "BrC1=C(C)NC(=O)NC1=O",
    "meta_data": {
        "InChI": "InChI=1S/C5H5BrN2O2/c1-2-3(6)4(9)8-5(10)7-2/h1H3,(H2,7,8,9,10)",
        "InChIKey": null,
        "Canonical SMILES": "O=C1NC(=O)C(Br)=C(N1)C",
        "Molecular Formula": "C<sub>5</sub>H<sub>5</sub>BrN<sub>2</sub>O<sub>2</sub>",
        "Molecular Mass": "205.01",
        "Melting Point": "247 °C (decomp)"
    }
}