{
    "cas_no": "3058-47-7",
    "key_name": "1-(Methylthio)-2-nitrobenzene",
    "cn_name": "2-硝基硫代甲醚;",
    "alternate_name": "Benzene, 1-(methylthio)-2-nitro-;Sulfide, methyl <em>o</em>-nitrophenyl;1-(Methylthio)-2-nitrobenzene;Methyl <em>o</em>-nitrophenyl sulfide;Methyl 2-nitrophenyl sulfide;<em>o</em>-Nitrothioanisole;2-(Methylthio)nitrobenzene;2-Nitrophenyl methyl sulfide;NSC 62852;1-Methylsulfanyl-2-nitro-benzene;1-Methylsulfanyl-2-nitrobenzene;1-(Methylsulfanyl)-2-nitrobenzene",
    "duplicated_cas_no": "",
    "SMILES": "S(C)C1=C(N(=O)=O)C=CC=C1",
    "meta_data": {
        "InChI": "InChI=1S/C7H7NO2S/c1-11-7-5-3-2-4-6(7)8(9)10/h2-5H,1H3",
        "InChIKey": null,
        "Canonical SMILES": "O=N(=O)C=1C=CC=CC1SC",
        "Molecular Formula": "C<sub>7</sub>H<sub>7</sub>NO<sub>2</sub>S",
        "Molecular Mass": "169.20",
        "Melting Point": "64-65 °C"
    }
}