{
    "cas_no": "558-13-4",
    "key_name": "Carbon tetrabromide",
    "cn_name": null,
    "alternate_name": "Methane, tetrabromo-;Carbon tetrabromide;Tetrabromomethane;Carbon bromide (CBr<sub>4</sub>);Methane tetrabromide;NSC 6179",
    "duplicated_cas_no": "",
    "SMILES": "C(Br)(Br)(Br)Br",
    "meta_data": {
        "InChI": "InChI=1S/CBr4/c2-1(3,4)5",
        "InChIKey": null,
        "Canonical SMILES": "BrC(Br)(Br)Br",
        "Molecular Formula": "CBr<sub>4</sub>",
        "Molecular Mass": "331.63",
        "Boiling Point": "189.5 °C",
        "Melting Point": "90.1 °C",
        "Density": "2.9608 g/cm³ @ Temp: 100 °C"
    }
}