{
    "cas_no": "7783-41-7",
    "key_name": "Oxygen fluoride (OF<sub>2</sub>)",
    "cn_name": "二氟化氧;一氧化二氟;",
    "alternate_name": "Oxygen fluoride (OF<sub>2</sub>);Fluorine monoxide;Fluorine oxide;Oxygen difluoride;Oxygen fluoride;Fluorine oxide (F<sub>2</sub>O);Oxydifluoride;Fluorine monoxide (F<sub>2</sub>O);Difluorine monooxide;Difluorine monoxide;Difluorine oxide",
    "duplicated_cas_no": "12434-38-7;86100-45-0",
    "SMILES": "O(F)F",
    "meta_data": {
        "InChI": "InChI=1S/F2O/c1-3-2",
        "InChIKey": null,
        "Canonical SMILES": "FOF",
        "Molecular Formula": "F<sub>2</sub>O",
        "Molecular Mass": "54.00",
        "Boiling Point": "-144.75 °C",
        "Melting Point": "-223.8 °C"
    }
}