{
    "cas_no": "50262-48-1",
    "key_name": "4-(1-Oxopropoxy)benzaldehyde",
    "cn_name": "4-丙酰氧基苯甲醛;",
    "alternate_name": "Benzaldehyde, 4-(1-oxopropoxy)-;4-(1-Oxopropoxy)benzaldehyde;<em>p</em>-(Propionyloxy)benzaldehyde;4-Propionoxybenzaldehyde;4-(Propionyloxy)benzaldehyde;(4-Formylphenyl) propanoate",
    "duplicated_cas_no": "",
    "SMILES": "O(C(CC)=O)C1=CC=C(C=O)C=C1",
    "meta_data": {
        "InChI": "InChI=1S/C10H10O3/c1-2-10(12)13-9-5-3-8(7-11)4-6-9/h3-7H,2H2,1H3",
        "InChIKey": null,
        "Canonical SMILES": "O=CC1=CC=C(OC(=O)CC)C=C1",
        "Molecular Formula": "C<sub>10</sub>H<sub>10</sub>O<sub>3</sub>",
        "Molecular Mass": "178.18",
        "Boiling Point": "108 °C @ Press: 0.08 Torr"
    }
}