{
    "cas_no": "1843-05-6",
    "key_name": "2-Hydroxy-4-octoxybenzophenone",
    "cn_name": "紫外线吸收剂UV-531;紫外线吸收剂531;2-羟基-4-正辛氧基二苯甲酮;",
    "alternate_name": "Methanone, [2-hydroxy-4-(octyloxy)phenyl]phenyl-;Benzophenone, 2-hydroxy-4-(octyloxy)-;[2-Hydroxy-4-(octyloxy)phenyl]phenylmethanone;2-Hydroxy-4-octoxybenzophenone;2-Hydroxy-4-<em>n</em>-octoxybenzophenone;2-Hydroxy-4-(octyloxy)benzophenone;Octabenzone;4-<em>n</em>-Octyloxy-2-hydroxybenzophenone;4-(Octyloxy)-2-hydroxybenzophenone;Spectra-Sorb UV 531;Cyasorb UV 531;UF 4;2-Hydroxy-4-(<em>n</em>-octyloxy)benzophenone;Cyasorb 531;UV 531;Benzon OO;Benzophenone 12;2-Benzoyl-5-octyloxyphenol;UV 1;Advastab 46;Anti-UV P;Chimassorb 81;Carstab 700;Aduvex 248;Sumisorb 130;Viosorb 130;Ongrostab HOB;Mark 1413;Cyasorb UV 532;Rhodialux P;UV 1 (ultraviolet absorber);Asahi 1413;Uvinul M 408;Seikalizer E;Zislizer E;V 130;Sanduvor 3035;ADK Stab 1413;Seesorb 102;Lowilite 22;Adeka 1413;Hostavin ARO 8;ARO 8;Uvinul 3008;Specta-Sorb UV 531;NSC 163400;GW 531;C 81;LA 1413;Cytec UV 531;BP 12;UV 53;Chemisorb 81;Tinuvin UV 531;(2-Hydroxy-4-octoxyphenyl)-phenylmethanone;Riasorb UV 531;Adeka Stab 1413;UVABZP 81;Adeka Stab LA 1413;ADK Stab LA 1413",
    "duplicated_cas_no": "53571-69-0;58392-23-7;103843-15-8;478367-73-6;1643832-59-0",
    "SMILES": "C(=O)(C1=C(O)C=C(OCCCCCCCC)C=C1)C2=CC=CC=C2",
    "meta_data": {
        "InChI": "InChI=1S/C21H26O3/c1-2-3-4-5-6-10-15-24-18-13-14-19(20(22)16-18)21(23)17-11-8-7-9-12-17/h7-9,11-14,16,22H,2-6,10,15H2,1H3",
        "InChIKey": null,
        "Canonical SMILES": "O=C(C=1C=CC=CC1)C2=CC=C(OCCCCCCCC)C=C2O",
        "Molecular Formula": "C<sub>21</sub>H<sub>26</sub>O<sub>3</sub>",
        "Molecular Mass": "326.43",
        "Boiling Point": "175-180 °C @ Press: 0.1 Torr",
        "Melting Point": "45-46 °C"
    }
}