{
    "cas_no": "4731-65-1",
    "key_name": "Tris(2-methoxyphenyl)phosphine",
    "cn_name": "三(2-甲氧基苯基)膦;三(2-甲氧基苯基)膦;",
    "alternate_name": "Phosphine, tris(2-methoxyphenyl)-;Phosphine, tris(<em>o</em>-methoxyphenyl)-;Tris(2-methoxyphenyl)phosphine;Tris(<em>o</em>-anisyl)phosphine;Tri-<em>o</em>-anisylphosphine;Tris(<em>o</em>-methoxyphenyl)phosphine;Tri(<em>o</em>-methoxyphenyl)phosphine;Tri(2-methoxyphenyl)phosphine;NSC 93545;Tris(2-methoxylphenyl)phosphine;(<em>o</em>-Meoph)3p",
    "duplicated_cas_no": "",
    "SMILES": "P(C1=C(OC)C=CC=C1)(C2=C(OC)C=CC=C2)C3=C(OC)C=CC=C3",
    "meta_data": {
        "InChI": "InChI=1S/C21H21O3P/c1-22-16-10-4-7-13-19(16)25(20-14-8-5-11-17(20)23-2)21-15-9-6-12-18(21)24-3/h4-15H,1-3H3",
        "InChIKey": null,
        "Canonical SMILES": "O(C=1C=CC=CC1P(C=2C=CC=CC2OC)C=3C=CC=CC3OC)C",
        "Molecular Formula": "C<sub>21</sub>H<sub>21</sub>O<sub>3</sub>P",
        "Molecular Mass": "352.36",
        "Melting Point": "204 °C"
    }
}