{
    "cas_no": "2835-99-6",
    "key_name": "4-Amino-3-methylphenol",
    "cn_name": "4-氨基-3-甲基苯酚;",
    "alternate_name": "Phenol, 4-amino-3-methyl-;<em>m</em>-Cresol, 4-amino-;4-Amino-3-methylphenol;2-Methyl-4-hydroxyaniline;<em>p</em>-Amino-<em>m</em>-cresol;<em>p</em>-Hydroxy-<em>o</em>-toluidine;4-Amino-<em>m</em>-cresol;4-Hydroxy-2-methylaniline;3-Methyl-4-aminophenol;4-Hydroxy-<em>o</em>-toluidine;<em>m</em>-Methyl-<em>p</em>-aminophenol;3-Methyl-<em>p</em>-aminophenol;4-Amino-m-cresol;NSC 72170;4-Amino-3-cresol",
    "duplicated_cas_no": "",
    "SMILES": "CC1=C(N)C=CC(O)=C1",
    "meta_data": {
        "InChI": "InChI=1S/C7H9NO/c1-5-4-6(9)2-3-7(5)8/h2-4,9H,8H2,1H3",
        "InChIKey": null,
        "Canonical SMILES": "OC1=CC=C(N)C(=C1)C",
        "Molecular Formula": "C<sub>7</sub>H<sub>9</sub>NO",
        "Molecular Mass": "123.15",
        "Melting Point": "173-176 °C (decomp)"
    }
}