{
    "cas_no": "93-35-6",
    "key_name": "Umbelliferone",
    "cn_name": "7-羟基香豆素;7-羟基-2H-1-苯并吡喃-2-酮;",
    "alternate_name": "2<em>H</em>-1-Benzopyran-2-one, 7-hydroxy-;Coumarin, 7-hydroxy-;7-Hydroxy-2<em>H</em>-1-benzopyran-2-one;Hydrangine;7-Hydroxycoumarin;7-Oxycoumarin;Skimmetin;Skimmetine;Umbelliferone;Hydrangin;Umbelliferon;7-Hydroxy-2-chromenone;7-Hydroxy-2<em>H</em>-chromen-2-one;NSC 19790;7-Hydroxylcoumarin",
    "duplicated_cas_no": "1391-97-5;1082662-10-9",
    "SMILES": "OC=1C=C2C(C=CC(=O)O2)=CC1",
    "meta_data": {
        "InChI": "InChI=1S/C9H6O3/c10-7-3-1-6-2-4-9(11)12-8(6)5-7/h1-5,10H",
        "InChIKey": null,
        "Canonical SMILES": "O=C1OC=2C=C(O)C=CC2C=C1",
        "Molecular Formula": "C<sub>9</sub>H<sub>6</sub>O<sub>3</sub>",
        "Molecular Mass": "162.14",
        "Melting Point": "230.5 °C"
    }
}