{
    "cas_no": "112-24-3",
    "key_name": "Triethylenetetramine",
    "cn_name": "三乙烯四胺;三乙撑四胺;三亚乙基四胺;二缩三乙二胺;",
    "alternate_name": "1,2-Ethanediamine, <em>N</em><sup>1</sup>,<em>N</em><sup>2</sup>-bis(2-aminoethyl)-;Triethylenetetramine;1,2-Ethanediamine, <em>N</em>,<em>N</em>′-bis(2-aminoethyl)-;<em>N</em><sup>1</sup>,<em>N</em><sup>2</sup>-Bis(2-aminoethyl)-1,2-ethanediamine;<em>N</em>,<em>N</em>′-Bis(2-aminoethyl)ethylenediamine;3,6-Diazaoctane-1,8-diamine;TETA;Trien;Triethylenetetraamine;1,4,7,10-Tetraazadecane;TECZA;1,8-Diamino-3,6-diazaoctane;DEH 24;Araldite Hardener HY 951;HY 951;Trientine;Araldite HY 951;Z<sub>1</sub>;<em>N</em>,<em>N</em>′-Bis(2-aminoethyl)-1,2-diaminoethane;<em>N</em>,<em>N</em>′-Bis(2-aminoethyl)-1,2-ethanediamine;RT 1AX;VE 2896;Rutapox VE 2896;TETA (crosslinking agent);Ancamine TETA;NSC 443;Epicure 3234;EPH 925;1,2-Bis(2-aminoethylamino)ethane;Epicure 925;H 522;Epikure 3234;Ren HY 956;Hardener 758;Aradur HY 1300GB;EpoxySet 145-20020;Aradur HY 951;HA 11;Ren HY 956BR;FD 129;Aradur HY 840-1EN;MH 91;TETA-K 6;<em>N</em>,<em>N</em>′-Di(2-aminoethyl)ethylenediamine;K 6;Lapox K 6;Triethylene tetraamine;Bontamine 7100H100;Dicure 351;<em>N</em>,<em>N</em>′-Bis(2-aminoethyl)ethane-1,2-diamine;Triethylene 2,2,2 tetramine;IG 824K24;Aradur HY 956-2;Aradur 3140;EH 758;Hardener Z 1;Z 1;T 0429;PHG 110;KB 100;Bontamine 2341B;Hardener 301;H 4065 (hardener);H 4065;HY 951IN",
    "duplicated_cas_no": "14175-14-5;39421-77-7;71124-11-3;105093-20-7;110670-33-2;150139-02-9;193487-08-0;442681-17-6;801997-18-2;1309612-46-1;1404190-34-6;1821166-92-0;2245055-56-3",
    "SMILES": "C(CNCCN)NCCN",
    "meta_data": {
        "InChI": "InChI=1S/C6H18N4/c7-1-3-9-5-6-10-4-2-8/h9-10H,1-8H2",
        "InChIKey": null,
        "Canonical SMILES": "NCCNCCNCCN",
        "Molecular Formula": "C<sub>6</sub>H<sub>18</sub>N<sub>4</sub>",
        "Molecular Mass": "146.23",
        "Boiling Point": "266-267 °C @ Press: 760 Torr",
        "Melting Point": "12 °C",
        "Density": "0.9818 g/cm³ @ Temp: 20 °C"
    }
}