{
    "cas_no": "73286-70-1",
    "key_name": "<em>N</em>-(<em>tert</em>-Butoxycarbonyl)-2,5-dihydro-1<em>H</em>-pyrrole",
    "cn_name": null,
    "alternate_name": "1<em>H</em>-Pyrrole-1-carboxylic acid, 2,5-dihydro-, 1,1-dimethylethyl ester;1-<em>tert</em>-Butoxycarbonylpyrroline;2,5-Dihydro-1<em>H</em>-pyrrole-1-carboxylic acid 1,1-dimethylethyl ester;1-(<em>tert</em>-Butoxycarbonyl)-3-pyrroline;1-<em>tert</em>-Butyloxycarbonyl-3-pyrroline;2,5-Dihydro-1<em>H</em>-pyrrole-1-carboxylic acid tert-butyl ester;<em>tert</em>-Butyl 3-pyrroline-1-carboxylate;2,5-Dihydropyrrole-1-carboxylic acid tert-butyl ester;1-<em>t</em>-Butoxycarbonyl-3-pyrroline;<em>N</em>-Boc-2,5-dihydropyrrole;<em>N</em>-Boc-3-pyrroline;<em>N</em>-(<em>tert</em>-Butoxycarbonyl)-2,5-dihydro-1<em>H</em>-pyrrole;<em>tert</em>-Butyl 2,5-dihydro-1<em>H</em>-pyrrole-1-carboxylate;<em>tert</em>-Butyl 2,5-pyrroline-1-carboxylate;<em>tert</em>-Butyl 2,5-dihydropyrrole-1-carboxylate",
    "duplicated_cas_no": "",
    "SMILES": "C(OC(C)(C)C)(=O)N1CC=CC1",
    "meta_data": {
        "InChI": "InChI=1S/C9H15NO2/c1-9(2,3)12-8(11)10-6-4-5-7-10/h4-5H,6-7H2,1-3H3",
        "InChIKey": null,
        "Canonical SMILES": "O=C(OC(C)(C)C)N1CC=CC1",
        "Molecular Formula": "C<sub>9</sub>H<sub>15</sub>NO<sub>2</sub>",
        "Molecular Mass": "169.22",
        "Boiling Point": "65-75 °C @ Press: 1.5 Torr"
    }
}