{
    "cas_no": "543-67-9",
    "key_name": "Propyl nitrite",
    "cn_name": "亚硝酸丙酯;亚硝酸丙酯；亚硝酸正丙酯;",
    "alternate_name": "Nitrous acid, propyl ester;Propyl nitrite;Nitrous acid n-propyl ester;<em>n</em>-Propyl nitrite;Propanol nitrite",
    "duplicated_cas_no": "",
    "SMILES": "C(ON=O)CC",
    "meta_data": {
        "InChI": "InChI=1S/C3H7NO2/c1-2-3-6-4-5/h2-3H2,1H3",
        "InChIKey": null,
        "Canonical SMILES": "O=NOCCC",
        "Molecular Formula": "C<sub>3</sub>H<sub>7</sub>NO<sub>2</sub>",
        "Molecular Mass": "89.09",
        "Boiling Point": "48 °C"
    }
}