{
    "cas_no": "593-03-3",
    "key_name": "(±)-3-Hexadecanol",
    "cn_name": "3-十六烷醇;3-十六醇;",
    "alternate_name": "3-Hexadecanol;(±)-3-Hexadecanol",
    "duplicated_cas_no": "139183-33-8",
    "SMILES": "C(CCC(CC)O)CCCCCCCCCC",
    "meta_data": {
        "InChI": "InChI=1S/C16H34O/c1-3-5-6-7-8-9-10-11-12-13-14-15-16(17)4-2/h16-17H,3-15H2,1-2H3",
        "InChIKey": null,
        "Canonical SMILES": "OC(CC)CCCCCCCCCCCCC",
        "Molecular Formula": "C<sub>16</sub>H<sub>34</sub>O",
        "Molecular Mass": "242.44",
        "Boiling Point": "150 °C @ Press: 4 Torr",
        "Melting Point": "50 °C"
    }
}