{
    "cas_no": "4498-99-1",
    "key_name": "4-Methylbenzyl mercaptan",
    "cn_name": "4-甲基苄基硫醇;",
    "alternate_name": "Benzenemethanethiol, 4-methyl-;Methanethiol, <em>p</em>-tolyl-;4-Methylbenzenemethanethiol;<em>p</em>-Methylbenzyl mercaptan;<em>p</em>-Toluenemethanethiol;4-Methyltoluene-α-thiol;4-Methylbenzyl mercaptan;<em>p</em>-Tolylmethyl mercaptan;<em>p</em>-Tolylmethanethiol;(4-Tolyl)methanethiol;NSC 79870;(4-Methylphenyl)methanethiol;(<em>p</em>-Methylphenyl)methanethiol",
    "duplicated_cas_no": "",
    "SMILES": "C(S)C1=CC=C(C)C=C1",
    "meta_data": {
        "InChI": "InChI=1S/C8H10S/c1-7-2-4-8(6-9)5-3-7/h2-5,9H,6H2,1H3",
        "InChIKey": null,
        "Canonical SMILES": "SCC1=CC=C(C=C1)C",
        "Molecular Formula": "C<sub>8</sub>H<sub>10</sub>S",
        "Molecular Mass": "138.23",
        "Boiling Point": "93 °C @ Press: 12 Torr",
        "Melting Point": "76 °C",
        "Density": "1.034 g/cm³ @ Temp: 23 °C"
    }
}