{
    "cas_no": "42097-42-7",
    "key_name": "3-Hydroxy-6-methyl-2-pyridinemethanol",
    "cn_name": "3-羟基-6-甲基-2-吡啶甲醇;2,6-二甲基吡啶-α2,3-二醇;",
    "alternate_name": "2-Pyridinemethanol, 3-hydroxy-6-methyl-;3-Hydroxy-6-methyl-2-pyridinemethanol;2-(Hydroxymethyl)-6-methyl-3-pyridinol;2-(Hydroxymethyl)-3-hydroxy-6-methylpyridine;6-Methyl-2-(hydroxymethyl)-3-hydroxypyridine;2,6-Lutidine-α<sup>2</sup>,3-diol;3-Hydroxy-2-(hydroxymethyl)-6-methylpyridine",
    "duplicated_cas_no": "",
    "SMILES": "C(O)C1=C(O)C=CC(C)=N1",
    "meta_data": {
        "InChI": "InChI=1S/C7H9NO2/c1-5-2-3-7(10)6(4-9)8-5/h2-3,9-10H,4H2,1H3",
        "InChIKey": null,
        "Canonical SMILES": "OC1=CC=C(N=C1CO)C",
        "Molecular Formula": "C<sub>7</sub>H<sub>9</sub>NO<sub>2</sub>",
        "Molecular Mass": "139.15",
        "Melting Point": "153 °C"
    }
}