{
    "cas_no": "4490-82-8",
    "key_name": "Hydroxylamine, <em>O</em>-butyl-, hydrochloride (1:1)",
    "cn_name": null,
    "alternate_name": "Hydroxylamine, <em>O</em>-butyl-, hydrochloride (1:1);Hydroxylamine, <em>O</em>-butyl-, hydrochloride;Butoxyamine, hydrochloride;<em>O</em>-Butylhydroxylamine hydrochloride;<em>n</em>-Butoxyamine hydrochloride",
    "duplicated_cas_no": "",
    "SMILES": "C(CON)CC.Cl",
    "meta_data": {
        "InChI": "InChI=1S/C4H11NO.ClH/c1-2-3-4-6-5;/h2-5H2,1H3;1H",
        "InChIKey": null,
        "Canonical SMILES": "Cl.O(N)CCCC",
        "Molecular Formula": "C<sub>4</sub>H<sub>11</sub>NO.ClH",
        "Molecular Mass": "",
        "Melting Point": "156-157 °C"
    }
}