{
    "cas_no": "23052-80-4",
    "key_name": "3-Phosphono-<span class=\"text-smallcaps\">L</span>-alanine",
    "cn_name": null,
    "alternate_name": "<span class=\"text-smallcaps\">L</span>-Alanine, 3-phosphono-;Alanine, 3-phosphono-, <span class=\"text-smallcaps\">L</span>-;3-Phosphono-<span class=\"text-smallcaps\">L</span>-alanine;(<em>R</em>)-2-Amino-3-phosphonopropanoic acid;<span class=\"text-smallcaps\">L</span>-2-Amino-3-phosphonopropionic acid;<span class=\"text-smallcaps\">L</span>-AP 3;NSC 133887;(2R)-2-Amino-3-phosphonopropanoic acid",
    "duplicated_cas_no": "789457-82-5",
    "SMILES": "[C@H](CP(=O)(O)O)(C(O)=O)N",
    "meta_data": {
        "InChI": "InChI=1S/C3H8NO5P/c4-2(3(5)6)1-10(7,8)9/h2H,1,4H2,(H,5,6)(H2,7,8,9)/t2-/m0/s1",
        "InChIKey": null,
        "Canonical SMILES": "O=C(O)C(N)CP(=O)(O)O",
        "Molecular Formula": "C<sub>3</sub>H<sub>8</sub>NO<sub>5</sub>P",
        "Molecular Mass": "169.07",
        "Melting Point": "&gt;200 °C"
    }
}