{
    "cas_no": "58123-72-1",
    "key_name": "3-Chloro-4-iodobenzoic acid",
    "cn_name": null,
    "alternate_name": "Benzoic acid, 3-chloro-4-iodo-;3-Chloro-4-iodobenzoic acid",
    "duplicated_cas_no": "",
    "SMILES": "C(O)(=O)C1=CC(Cl)=C(I)C=C1",
    "meta_data": {
        "InChI": "InChI=1S/C7H4ClIO2/c8-5-3-4(7(10)11)1-2-6(5)9/h1-3H,(H,10,11)",
        "InChIKey": null,
        "Canonical SMILES": "O=C(O)C1=CC=C(I)C(Cl)=C1",
        "Molecular Formula": "C<sub>7</sub>H<sub>4</sub>ClIO<sub>2</sub>",
        "Molecular Mass": "282.46",
        "Melting Point": "210 °C"
    }
}