{
    "cas_no": "10496-16-9",
    "key_name": "Diheptyl disulfide",
    "cn_name": "二正庚基二硫醚;",
    "alternate_name": "Disulfide, diheptyl;Heptyl disulfide;Diheptyl disulfide;NSC 97275;1-(Heptyldisulfanyl)heptane",
    "duplicated_cas_no": "",
    "SMILES": "S(SCCCCCCC)CCCCCCC",
    "meta_data": {
        "InChI": "InChI=1S/C14H30S2/c1-3-5-7-9-11-13-15-16-14-12-10-8-6-4-2/h3-14H2,1-2H3",
        "InChIKey": null,
        "Canonical SMILES": "S(SCCCCCCC)CCCCCCC",
        "Molecular Formula": "C<sub>14</sub>H<sub>30</sub>S<sub>2</sub>",
        "Molecular Mass": "262.52",
        "Boiling Point": "143-147 °C @ Press: 5 Torr"
    }
}