{
    "cas_no": "2044-73-7",
    "key_name": "2-Pyridinemethanethiol",
    "cn_name": "吡啶-2-甲硫醇;2-巯基甲基吡啶;",
    "alternate_name": "2-Pyridinemethanethiol;Pyridine-2-thiocarbinol;2-(Mercaptomethyl)pyridine;2-Pyridylmethyl mercaptan;2-Pyridylmethanethiol;2-Picolylthiol;NSC 82320;Pyridin-2-ylmethanethiol",
    "duplicated_cas_no": "",
    "SMILES": "C(S)C1=CC=CC=N1",
    "meta_data": {
        "InChI": "InChI=1S/C6H7NS/c8-5-6-3-1-2-4-7-6/h1-4,8H,5H2",
        "InChIKey": null,
        "Canonical SMILES": "SCC1=NC=CC=C1",
        "Molecular Formula": "C<sub>6</sub>H<sub>7</sub>NS",
        "Molecular Mass": "125.19",
        "Boiling Point": "87-89 °C @ Press: 10 Torr"
    }
}