{
    "cas_no": "22345-47-7",
    "key_name": "Tofisopam",
    "cn_name": null,
    "alternate_name": "5<em>H</em>-2,3-Benzodiazepine, 1-(3,4-dimethoxyphenyl)-5-ethyl-7,8-dimethoxy-4-methyl-;1-(3,4-Dimethoxyphenyl)-5-ethyl-7,8-dimethoxy-4-methyl-5<em>H</em>-2,3-benzodiazepine;Tofisopam;Grandaxin;EGYT 341;7,8-Dimethoxy-1-(3,4-dimethoxyphenyl)-5-ethyl-4-methyl-5<em>H</em>-2,3-benzodiazepine;Seriel;1-(3,4-Dimethoxyphenyl)-4-methyl-5-ethyl-7,8-dimethoxy-5<em>H</em>-2,3-benzodiazepine;Nodeprine;1-(3,4-Dimethoxyphenyl)-5-ethyl-7,8-dimethoxy-4-methyl-5<em>H</em>-benzo[<em>d</em>][1,2]diazepine",
    "duplicated_cas_no": "87555-18-8",
    "SMILES": "C(C)C1C=2C(C(=NN=C1C)C3=CC(OC)=C(OC)C=C3)=CC(OC)=C(OC)C2",
    "meta_data": {
        "InChI": "InChI=1S/C22H26N2O4/c1-7-15-13(2)23-24-22(14-8-9-18(25-3)19(10-14)26-4)17-12-21(28-6)20(27-5)11-16(15)17/h8-12,15H,7H2,1-6H3",
        "InChIKey": null,
        "Canonical SMILES": "N=1N=C(C)C(C=2C=C(OC)C(OC)=CC2C1C=3C=CC(OC)=C(OC)C3)CC",
        "Molecular Formula": "C<sub>22</sub>H<sub>26</sub>N<sub>2</sub>O<sub>4</sub>",
        "Molecular Mass": "382.45",
        "Melting Point": "156.5 °C"
    }
}