{
    "cas_no": "766-05-2",
    "key_name": "Cyclohexanecarbonitrile",
    "cn_name": "环己甲腈;环己基甲腈;环己烷腈;",
    "alternate_name": "Cyclohexanecarbonitrile;Hexahydrobenzonitrile;Cyanocyclohexane;Cyclohexyl cyanide;Cyclohexanecarboxylic acid nitrile;Cyclohexanenitrile;NSC 17557",
    "duplicated_cas_no": "1800084-85-8",
    "SMILES": "C(#N)C1CCCCC1",
    "meta_data": {
        "InChI": "InChI=1S/C7H11N/c8-6-7-4-2-1-3-5-7/h7H,1-5H2",
        "InChIKey": null,
        "Canonical SMILES": "N#CC1CCCCC1",
        "Molecular Formula": "C<sub>7</sub>H<sub>11</sub>N",
        "Molecular Mass": "109.17",
        "Boiling Point": "75-77 °C @ Press: 16 Torr",
        "Melting Point": "11 °C",
        "Density": "0.919 g/cm³ @ Temp: 19 °C"
    }
}