{
    "uri": "substance/pt/12070121",
    "rn": "12070-12-1",
    "name": "Tungsten carbide (WC)",
    "images": [],
    "inchi": "",
    "inchiKey": "",
    "smile": "",
    "canonicalSmile": "",
    "molecularFormula": "CW",
    "molecularMass": "",
    "experimentalProperties": [
        {
            "name": "Boiling Point",
            "property": "6000 °C",
            "sourceNumber": 1
        },
        {
            "name": "Melting Point",
            "property": "2780 °C",
            "sourceNumber": 1
        },
        {
            "name": "Density",
            "property": "15.6 g/cm³",
            "sourceNumber": 1
        }
    ],
    "propertyCitations": [
        {
            "docUri": "",
            "sourceNumber": 1,
            "source": "International Chemical Safety Cards data were obtained from the National Institute for Occupational Safety and Health (US)"
        }
    ],
    "synonyms": [
        "Tungsten carbide (WC)",
        "Tungsten monocarbide",
        "Tungsten carbide",
        "Tungsten monocarbide (WC)",
        "WCIO",
        "SL 350",
        "Tungsten carbide (W<sub>2</sub>C<sub>2</sub>)",
        "WC 20",
        "Sylcarb SC 45",
        "Syl-Carb SC 104",
        "J 05",
        "TJ 05",
        "WC 20 (carbide)",
        "GWC 30",
        "WC 10 (carbide)",
        "Valenite 1399",
        "CW 500",
        "NC 16",
        "NC 16 (carbide)",
        "WC-F",
        "WWI 13PB",
        "WC 02NR",
        "Wolfram carbide",
        "YG 1",
        "1WC",
        "WC 50",
        "GWC 030",
        "ZBW 15",
        "XLWC 30",
        "ZWC 30",
        "Xiamen 20",
        "Xiamen 46",
        "Guangdong 17",
        "Guangdong 18",
        "WC 10",
        "WC 25",
        "WC60",
        "NCWC 10",
        "WC 250H",
        "WC 100C",
        "WC 25S",
        "W-U 010",
        "WC 60S",
        "WearPro 62"
    ],
    "replacedRns": [
        "52555-87-0",
        "182169-08-0",
        "182169-11-5",
        "188300-42-7",
        "188300-43-8",
        "188300-44-9",
        "188300-45-0",
        "2089386-72-9",
        "2135330-57-1",
        "2882826-22-2"
    ],
    "hasMolfile": false,
    "source": "https://commonchemistry.cas.org/detail?cas_rn=12070-12-1"
}