{
    "cas_no": "531-28-2",
    "key_name": "Androsin",
    "cn_name": null,
    "alternate_name": "Ethanone, 1-[4-(β-<span class=\"text-smallcaps\">D</span>-glucopyranosyloxy)-3-methoxyphenyl]-;Androsin;Glucopyranoside, 4-acetyl-2-methoxyphenyl;1-[4-(β-<span class=\"text-smallcaps\">D</span>-Glucopyranosyloxy)-3-methoxyphenyl]ethanone;4-Acetyl-2-methoxyphenyl glucoside;4-Hydroxy-3-methoxyacetophenone 4-<em>O</em>-β-<span class=\"text-smallcaps\">D</span>-glucopyranoside",
    "duplicated_cas_no": "17063-48-8;30395-67-6",
    "SMILES": "O(C1=C(OC)C=C(C(C)=O)C=C1)[C@@H]2O[C@H](CO)[C@@H](O)[C@H](O)[C@H]2O",
    "meta_data": {
        "InChI": "InChI=1S/C15H20O8/c1-7(17)8-3-4-9(10(5-8)21-2)22-15-14(20)13(19)12(18)11(6-16)23-15/h3-5,11-16,18-20H,6H2,1-2H3/t11-,12-,13+,14-,15-/m1/s1",
        "InChIKey": null,
        "Canonical SMILES": "O=C(C1=CC=C(OC2OC(CO)C(O)C(O)C2O)C(OC)=C1)C",
        "Molecular Formula": "C<sub>15</sub>H<sub>20</sub>O<sub>8</sub>",
        "Molecular Mass": "328.31",
        "Melting Point": "218-220 °C"
    }
}