{
    "cas_no": "52130-17-3",
    "key_name": "3-Amino-2-methylbenzoic acid",
    "cn_name": "2-甲基-3-氨基苯甲酸;3-氨基-2-甲基苯甲酸;",
    "alternate_name": "Benzoic acid, 3-amino-2-methyl-;<em>o</em>-Toluic acid, 3-amino-;3-Amino-2-methylbenzoic acid;2-Methyl-3-aminobenzoic acid;3-Amino-<em>o</em>-toluic acid",
    "duplicated_cas_no": "",
    "SMILES": "C(O)(=O)C1=C(C)C(N)=CC=C1",
    "meta_data": {
        "InChI": "InChI=1S/C8H9NO2/c1-5-6(8(10)11)3-2-4-7(5)9/h2-4H,9H2,1H3,(H,10,11)",
        "InChIKey": null,
        "Canonical SMILES": "O=C(O)C=1C=CC=C(N)C1C",
        "Molecular Formula": "C<sub>8</sub>H<sub>9</sub>NO<sub>2</sub>",
        "Molecular Mass": "151.16",
        "Melting Point": "128 °C"
    }
}