{
    "cas_no": "100-69-6",
    "key_name": "2-Vinylpyridine",
    "cn_name": "2-乙烯基吡啶;",
    "alternate_name": "Pyridine, 2-ethenyl-;Pyridine, 2-vinyl-;2-Ethenylpyridine;2-Vinylpyridine;α-Vinylpyridine;2-Pyridylethylene;NSC 18255",
    "duplicated_cas_no": "",
    "SMILES": "C(=C)C1=CC=CC=N1",
    "meta_data": {
        "InChI": "InChI=1S/C7H7N/c1-2-7-5-3-4-6-8-7/h2-6H,1H2",
        "InChIKey": null,
        "Canonical SMILES": "N=1C=CC=CC1C=C",
        "Molecular Formula": "C<sub>7</sub>H<sub>7</sub>N",
        "Molecular Mass": "105.14",
        "Boiling Point": "159.5 °C",
        "Density": "0.9985 g/cm³ @ Temp: 20 °C"
    }
}