{
    "cas_no": "955-10-2",
    "key_name": "3-Phenylcoumarin",
    "cn_name": null,
    "alternate_name": "2<em>H</em>-1-Benzopyran-2-one, 3-phenyl-;Coumarin, 3-phenyl-;3-Phenyl-2<em>H</em>-1-benzopyran-2-one;3-Phenylcoumarin;NSC 14860;3-Phenyl-chromen-2-one;3-Phenyl-2-chromenone;3-Phenylchromen-2-one",
    "duplicated_cas_no": "",
    "SMILES": "O=C1C(=CC=2C(O1)=CC=CC2)C3=CC=CC=C3",
    "meta_data": {
        "InChI": "InChI=1S/C15H10O2/c16-15-13(11-6-2-1-3-7-11)10-12-8-4-5-9-14(12)17-15/h1-10H",
        "InChIKey": null,
        "Canonical SMILES": "O=C1OC=2C=CC=CC2C=C1C=3C=CC=CC3",
        "Molecular Formula": "C<sub>15</sub>H<sub>10</sub>O<sub>2</sub>",
        "Molecular Mass": "222.24",
        "Melting Point": "140-141 °C"
    }
}