{
    "cas_no": "972-46-3",
    "key_name": "3-Ethoxyandrosta-3,5-dien-17-one",
    "cn_name": null,
    "alternate_name": "Androsta-3,5-dien-17-one, 3-ethoxy-;3-Ethoxyandrosta-3,5-dien-17-one;Androst-4-ene-3,17-dione 3-ethyl enol ether",
    "duplicated_cas_no": "",
    "SMILES": "C[C@@]12[C@@]3([C@]([C@]4([C@](C)(CC3)C(=O)CC4)[H])(CC=C1C=C(OCC)CC2)[H])[H]",
    "meta_data": {
        "InChI": "InChI=1S/C21H30O2/c1-4-23-15-9-11-20(2)14(13-15)5-6-16-17-7-8-19(22)21(17,3)12-10-18(16)20/h5,13,16-18H,4,6-12H2,1-3H3/t16-,17-,18-,20-,21-/m0/s1",
        "InChIKey": null,
        "Canonical SMILES": "O=C1CCC2C3CC=C4C=C(OCC)CCC4(C)C3CCC12C",
        "Molecular Formula": "C<sub>21</sub>H<sub>30</sub>O<sub>2</sub>",
        "Molecular Mass": "314.46",
        "Melting Point": "149-151.6 °C"
    }
}