{
    "cas_no": "552-45-4",
    "key_name": "2-Methylbenzyl chloride",
    "cn_name": "邻甲基氯化苄;",
    "alternate_name": "Benzene, 1-(chloromethyl)-2-methyl-;<em>o</em>-Xylene, α-chloro-;1-(Chloromethyl)-2-methylbenzene;ω-Chloro-<em>o</em>-xylene;<em>o</em>-Xylyl chloride;<em>o</em>-Xylyl-α-chloride;<em>o</em>-Methylbenzyl chloride;α-Chloro-<em>o</em>-xylene;2-Methylbenzyl chloride;2-(Chloromethyl)toluene;<em>o</em>-Chloromethyltoluene;1-Methyl-2-chloromethylbenzene",
    "duplicated_cas_no": "",
    "SMILES": "C(Cl)C1=C(C)C=CC=C1",
    "meta_data": {
        "InChI": "InChI=1S/C8H9Cl/c1-7-4-2-3-5-8(7)6-9/h2-5H,6H2,1H3",
        "InChIKey": null,
        "Canonical SMILES": "ClCC=1C=CC=CC1C",
        "Molecular Formula": "C<sub>8</sub>H<sub>9</sub>Cl",
        "Molecular Mass": "140.61",
        "Boiling Point": "195-203 °C",
        "Melting Point": "96.7 °C",
        "Density": "1.083 g/cm³ @ Temp: 21 °C"
    }
}