{
    "cas_no": "5003-71-4",
    "key_name": "3-Bromopropylamine hydrobromide",
    "cn_name": "3-溴丙胺氢溴酸盐;",
    "alternate_name": "1-Propanamine, 3-bromo-, hydrobromide (1:1);Propylamine, 3-bromo-, hydrobromide;1-Propanamine, 3-bromo-, hydrobromide;3-Bromopropylamine hydrobromide;1-Amino-3-bromopropane hydrobromide;3-Aminopropyl bromide hydrobromide;3-Bromo-1-propanamine hydrobromide;3-Bromopropanamine hydrobromide;3-Bromopropylammonium bromide;3-Bromopropylamine hydrobromide salt;3-Bromo-1-aminopropane hydrobromide;3-Bromo-1-propylamine hydrobromide",
    "duplicated_cas_no": "2581834-06-0",
    "SMILES": "C(CBr)CN.Br",
    "meta_data": {
        "InChI": "InChI=1S/C3H8BrN.BrH/c4-2-1-3-5;/h1-3,5H2;1H",
        "InChIKey": null,
        "Canonical SMILES": "Br.BrCCCN",
        "Molecular Formula": "C<sub>3</sub>H<sub>8</sub>BrN.BrH",
        "Molecular Mass": "",
        "Melting Point": "162 °C"
    }
}