{
    "cas_no": "141-31-1",
    "key_name": "2-Hydroxyadipaldehyde",
    "cn_name": "2-羟基己二醛;alpha-羟基己二醛;",
    "alternate_name": "Hexanedial, 2-hydroxy-;2-Hydroxyhexanedial;α-Hydroxyadipaldehyde;2-Hydroxyadipaldehyde;2-Hydroxyadipic dialdehyde;NSC 11064",
    "duplicated_cas_no": "121231-53-6",
    "SMILES": "C(CCCC=O)(C=O)O",
    "meta_data": {
        "InChI": "InChI=1S/C6H10O3/c7-4-2-1-3-6(9)5-8/h4-6,9H,1-3H2",
        "InChIKey": null,
        "Canonical SMILES": "O=CCCCC(O)C=O",
        "Molecular Formula": "C<sub>6</sub>H<sub>10</sub>O<sub>3</sub>",
        "Molecular Mass": "130.14",
        "Boiling Point": "78-82 °C @ Press: 1.5 Torr"
    }
}