{
    "cas_no": "42971-12-0",
    "key_name": "1<em>H</em>-Indolo[3,2,1-<em>de</em>]pyrido[3,2,1-<em>ij</em>][1,5]naphthyridine-12-carboxylic acid, 13a-ethyl-2,3,5,6,13a,13b-hexahydro-, ethyl ester, (13a<em>R</em>,13b<em>R</em>)-",
    "cn_name": null,
    "alternate_name": "1<em>H</em>-Indolo[3,2,1-<em>de</em>]pyrido[3,2,1-<em>ij</em>][1,5]naphthyridine-12-carboxylic acid, 13a-ethyl-2,3,5,6,13a,13b-hexahydro-, ethyl ester, (13a<em>R</em>,13b<em>R</em>)-;Eburnamenine-14-carboxylic acid, ethyl ester;1<em>H</em>-Indolo[3,2,1-<em>de</em>]pyrido[3,2,1-<em>ij</em>][1,5]naphthyridine, eburnamenine-14-carboxylic acid deriv.;(-)-Ethyl apovincaminate;Ethyl eburnamenine-14-carboxylate;(-)-Apovincaminic acid ethyl ester",
    "duplicated_cas_no": "887407-67-2",
    "SMILES": "C(C)[C@@]12[C@@]3(C=4N(C=5C(C4CCN3CCC1)=CC=CC5)C(C(OCC)=O)=C2)[H]",
    "meta_data": {
        "InChI": "InChI=1S/C22H26N2O2/c1-3-22-11-7-12-23-13-10-16-15-8-5-6-9-17(15)24(19(16)20(22)23)18(14-22)21(25)26-4-2/h5-6,8-9,14,20H,3-4,7,10-13H2,1-2H3/t20-,22+/m0/s1",
        "InChIKey": null,
        "Canonical SMILES": "O=C(OCC)C1=CC2(CC)CCCN3CCC=4C=5C=CC=CC5N1C4C32",
        "Molecular Formula": "C<sub>22</sub>H<sub>26</sub>N<sub>2</sub>O<sub>2</sub>",
        "Molecular Mass": "350.45",
        "Melting Point": "148-151 °C"
    }
}