{
    "cas_no": "491-37-2",
    "key_name": "Chromanone",
    "cn_name": "2,3-二氢苯并吡喃-4-酮;",
    "alternate_name": "4<em>H</em>-1-Benzopyran-4-one, 2,3-dihydro-;4-Chromanone;2,3-Dihydro-4<em>H</em>-1-benzopyran-4-one;Chromanone;2,3-Dihydro-4-benzopyranone;2,3-Dihydro-4<em>H</em>-chromen-4-one;NSC 174058;2,3-Dihydrochromen-4-one;Dihydrobenzopyran-4-one;3,4-Dihydro-2<em>H</em>-1-benzopyran-4-one;2,3-Dihydro-1-benzopyran-4-one",
    "duplicated_cas_no": "",
    "SMILES": "O=C1C=2C(OCC1)=CC=CC2",
    "meta_data": {
        "InChI": "InChI=1S/C9H8O2/c10-8-5-6-11-9-4-2-1-3-7(8)9/h1-4H,5-6H2",
        "InChIKey": null,
        "Canonical SMILES": "O=C1C=2C=CC=CC2OCC1",
        "Molecular Formula": "C<sub>9</sub>H<sub>8</sub>O<sub>2</sub>",
        "Molecular Mass": "148.16",
        "Boiling Point": "160 °C @ Press: 50 Torr",
        "Melting Point": "36.5 °C",
        "Density": "1.1291 g/cm³ @ Temp: 99.8 °C"
    }
}