{
    "cas_no": "617-89-0",
    "key_name": "2-Furanmethanamine",
    "cn_name": "2-呋喃甲胺;糠胺;",
    "alternate_name": "2-Furanmethanamine;Furfurylamine;2-Furanmethylamine;2-(Aminomethyl)furan;2-Furfurylamine;α-Furfurylamine;(2-Furylmethyl)amine;(2-Furanylmethyl)amine;2-Furylmethanamine;NSC 49136;NSC 61168;(Furan-2-yl)methanamine;1-(2-Furanyl)methanamine;Furan-2-ylmethylamine",
    "duplicated_cas_no": "1057722-37-8",
    "SMILES": "C(N)C1=CC=CO1",
    "meta_data": {
        "InChI": "InChI=1S/C5H7NO/c6-4-5-2-1-3-7-5/h1-3H,4,6H2",
        "InChIKey": null,
        "Canonical SMILES": "O1C=CC=C1CN",
        "Molecular Formula": "C<sub>5</sub>H<sub>7</sub>NO",
        "Molecular Mass": "97.12",
        "Boiling Point": "145.5 °C",
        "Density": "1.0533 g/cm³ @ Temp: 20 °C"
    }
}