{
    "cas_no": "64709-57-5",
    "key_name": "<em>N</em>-(2-Chloroacetyl)-<span class=\"text-smallcaps\">L</span>-tryptophan",
    "cn_name": "氯乙酰基-L-色氨酸;",
    "alternate_name": "<span class=\"text-smallcaps\">L</span>-Tryptophan, <em>N</em>-(2-chloroacetyl)-;<span class=\"text-smallcaps\">L</span>-Tryptophan, <em>N</em>-(chloroacetyl)-;Tryptophan, <em>N</em>-(chloroacetyl)-;<em>N</em>-(2-Chloroacetyl)-<span class=\"text-smallcaps\">L</span>-tryptophan;<em>N</em>-Chloroacetyl-<span class=\"text-smallcaps\">L</span>-tryptophan;NSC 523827",
    "duplicated_cas_no": "",
    "SMILES": "C([C@H](NC(CCl)=O)C(O)=O)C=1C=2C(NC1)=CC=CC2",
    "meta_data": {
        "InChI": "InChI=1S/C13H13ClN2O3/c14-6-12(17)16-11(13(18)19)5-8-7-15-10-4-2-1-3-9(8)10/h1-4,7,11,15H,5-6H2,(H,16,17)(H,18,19)/t11-/m0/s1",
        "InChIKey": null,
        "Canonical SMILES": "O=C(O)C(NC(=O)CCl)CC1=CNC=2C=CC=CC21",
        "Molecular Formula": "C<sub>13</sub>H<sub>13</sub>ClN<sub>2</sub>O<sub>3</sub>",
        "Molecular Mass": "280.71",
        "Melting Point": "159 °C"
    }
}