{
    "cas_no": "5407-51-2",
    "key_name": "2,6-Benzothiazolediamine",
    "cn_name": null,
    "alternate_name": "2,6-Benzothiazolediamine;Benzothiazole, 2,6-diamino-;2,6-Diaminobenzothiazole;NSC 5436;1,3-Benzothiazole-2,6-diamine",
    "duplicated_cas_no": "",
    "SMILES": "NC1=NC=2C(S1)=CC(N)=CC2",
    "meta_data": {
        "InChI": "InChI=1S/C7H7N3S/c8-4-1-2-5-6(3-4)11-7(9)10-5/h1-3H,8H2,(H2,9,10)",
        "InChIKey": null,
        "Canonical SMILES": "N1=C(SC=2C=C(N)C=CC12)N",
        "Molecular Formula": "C<sub>7</sub>H<sub>7</sub>N<sub>3</sub>S",
        "Molecular Mass": "165.22",
        "Melting Point": "207 °C"
    }
}