{
    "cas_no": "7488-55-3",
    "key_name": "Stannous sulfate",
    "cn_name": "硫酸亚锡;硫酸锡;",
    "alternate_name": "Sulfuric acid, tin(2+) salt (1:1);Tin sulfate (SnSO<sub>4</sub>);Stannous sulfate;Tin(II) sulfate;Tin(2+) sulfate",
    "duplicated_cas_no": "4327-98-4;210894-86-3",
    "SMILES": "S(=O)(=O)(O)O.[Sn]",
    "meta_data": {
        "InChI": "InChI=1S/H2O4S.Sn/c1-5(2,3)4;/h(H2,1,2,3,4);",
        "InChIKey": null,
        "Canonical SMILES": "[Sn].O=S(=O)(O)O",
        "Molecular Formula": "H<sub>2</sub>O<sub>4</sub>S.Sn",
        "Molecular Mass": "",
        "Melting Point": "360 °C (decomp)",
        "Density": "1.35 g/cm³"
    }
}