{
    "cas_no": "15050-04-1",
    "key_name": "1<em>H</em>-Indole-2-carboxylic acid, 6-methoxy-, ethyl ester",
    "cn_name": null,
    "alternate_name": "1<em>H</em>-Indole-2-carboxylic acid, 6-methoxy-, ethyl ester;Indole-2-carboxylic acid, 6-methoxy-, ethyl ester;Ethyl 6-methoxy-2-indolecarboxylate;6-Methoxy-1<em>H</em>-indole-2-carboxylic acid ethyl ester;6-Methoxyindole-2-carboxylic acid ethyl ester;Ethyl 6-methoxy-1<em>H</em>-indole-2-carboxylate",
    "duplicated_cas_no": "",
    "SMILES": "C(OCC)(=O)C=1NC=2C(C1)=CC=C(OC)C2",
    "meta_data": {
        "InChI": "InChI=1S/C12H13NO3/c1-3-16-12(14)11-6-8-4-5-9(15-2)7-10(8)13-11/h4-7,13H,3H2,1-2H3",
        "InChIKey": null,
        "Canonical SMILES": "O=C(OCC)C1=CC=2C=CC(OC)=CC2N1",
        "Molecular Formula": "C<sub>12</sub>H<sub>13</sub>NO<sub>3</sub>",
        "Molecular Mass": "219.24",
        "Melting Point": "135-136 °C"
    }
}