{
    "cas_no": "107-18-6",
    "key_name": "Allyl alcohol",
    "cn_name": null,
    "alternate_name": "2-Propen-1-ol;Allyl alcohol;Vinylcarbinol;1-Propen-3-ol;3-Hydroxypropene;2-Propenyl alcohol;2-Propenol;Shell unkrauttod A;Allylic alcohol;3-Hydroxy-1-propene;1-Hydroxy-2-propene;NSC 6526;Prop-2-ene-1-ol;Prop-2-en1-ol",
    "duplicated_cas_no": "",
    "SMILES": "C(CO)=C",
    "meta_data": {
        "InChI": "InChI=1S/C3H6O/c1-2-3-4/h2,4H,1,3H2",
        "InChIKey": null,
        "Canonical SMILES": "OCC=C",
        "Molecular Formula": "C<sub>3</sub>H<sub>6</sub>O",
        "Molecular Mass": "58.08",
        "Boiling Point": "97 °C",
        "Melting Point": "-129 °C",
        "Density": "0.8540 g/cm³ @ Temp: 20 °C"
    }
}