{
    "cas_no": "617-50-5",
    "key_name": "Isopropyl isobutyrate",
    "cn_name": "1-甲基乙基-2-甲基丙酸酯;异丁酸异丙酯;",
    "alternate_name": "Propanoic acid, 2-methyl-, 1-methylethyl ester;Isobutyric acid, isopropyl ester;Isopropyl isobutyrate;Isopropyl 2-methylpropanoate;2-Methylpropanoic acid 2-propyl ester",
    "duplicated_cas_no": "",
    "SMILES": "C(OC(C)C)(C(C)C)=O",
    "meta_data": {
        "InChI": "InChI=1S/C7H14O2/c1-5(2)7(8)9-6(3)4/h5-6H,1-4H3",
        "InChIKey": null,
        "Canonical SMILES": "O=C(OC(C)C)C(C)C",
        "Molecular Formula": "C<sub>7</sub>H<sub>14</sub>O<sub>2</sub>",
        "Molecular Mass": "130.18",
        "Boiling Point": "120.7 °C"
    }
}