{
    "cas_no": "6627-88-9",
    "key_name": "4-Allyl-2,6-dimethoxyphenol",
    "cn_name": "4-烯丙基-2,6-二甲氧基苯酚;4-烯丙基-2,6-二甲氧基苯酚;",
    "alternate_name": "Phenol, 2,6-dimethoxy-4-(2-propen-1-yl)-;Phenol, 4-allyl-2,6-dimethoxy-;Phenol, 2,6-dimethoxy-4-(2-propenyl)-;Chavicol, 2,6-dimethoxy-;2,6-Dimethoxy-4-(2-propen-1-yl)phenol;4-Hydroxy-3,5-dimethoxyallylbenzene;4-Allyl-2,6-dimethoxyphenol;2,6-Dimethoxy-4-allylphenol;Methoxyeugenol;4-Allylsyringol;2,6-Dimethoxychavicol;2,6-Dimethoxy-4-(2-propenyl)phenol;6-Methoxyeugenol;4-(2-Propenyl)syringol;NSC 16953;NSC 60246;4-(2-Propenyl)-2,6-dimethoxyphenol;4-Allenylsyringol",
    "duplicated_cas_no": "",
    "SMILES": "O(C)C1=C(O)C(OC)=CC(CC=C)=C1",
    "meta_data": {
        "InChI": "InChI=1S/C11H14O3/c1-4-5-8-6-9(13-2)11(12)10(7-8)14-3/h4,6-7,12H,1,5H2,2-3H3",
        "InChIKey": null,
        "Canonical SMILES": "OC1=C(OC)C=C(C=C1OC)CC=C",
        "Molecular Formula": "C<sub>11</sub>H<sub>14</sub>O<sub>3</sub>",
        "Molecular Mass": "194.23",
        "Boiling Point": "168-169 °C @ Press: 11 Torr"
    }
}