{
    "cas_no": "149877-41-8",
    "key_name": "Bifenazate",
    "cn_name": null,
    "alternate_name": "Hydrazinecarboxylic acid, 2-(4-methoxy[1,1′-biphenyl]-3-yl)-, 1-methylethyl ester;1-Methylethyl 2-(4-methoxy[1,1′-biphenyl]-3-yl)-hydrazinecarboxylate;Isopropyl 3-(4-methoxy-3-biphenylyl)carbazate;D 2341;Bifenazate;Floramite;Acramite;Lianbenjingzhi",
    "duplicated_cas_no": "1175647-34-3",
    "SMILES": "N(NC(OC(C)C)=O)C=1C=C(C=CC1OC)C2=CC=CC=C2",
    "meta_data": {
        "InChI": "InChI=1S/C17H20N2O3/c1-12(2)22-17(20)19-18-15-11-14(9-10-16(15)21-3)13-7-5-4-6-8-13/h4-12,18H,1-3H3,(H,19,20)",
        "InChIKey": null,
        "Canonical SMILES": "O=C(OC(C)C)NNC=1C=C(C=CC1OC)C=2C=CC=CC2",
        "Molecular Formula": "C<sub>17</sub>H<sub>20</sub>N<sub>2</sub>O<sub>3</sub>",
        "Molecular Mass": "300.35",
        "Melting Point": "120-124 °C",
        "Density": "1.31 g/cm³ @ Temp: 25 °C"
    }
}