{
    "cas_no": "50-49-7",
    "key_name": "Imipramine",
    "cn_name": null,
    "alternate_name": "5<em>H</em>-Dibenz[<em>b</em>,<em>f</em>]azepine-5-propanamine, 10,11-dihydro-<em>N</em>,<em>N</em>-dimethyl-;5<em>H</em>-Dibenz[<em>b</em>,<em>f</em>]azepine, 5-[3-(dimethylamino)propyl]-10,11-dihydro-;10,11-Dihydro-<em>N</em>,<em>N</em>-dimethyl-5<em>H</em>-dibenz[<em>b</em>,<em>f</em>]azepine-5-propanamine;Antideprin;5,6-Dihydro-<em>N</em>-[3-(dimethylamino)propyl]-11<em>H</em>-dibenz[<em>b</em>,<em>e</em>]azepine;<em>N</em>-(3-Dimethylaminopropyl)-<em>o</em>-iminodibenzyl;Imipramine;Melipramine;1-(3-Dimethylaminopropyl)-4,5-dihydro-2,3,6,7-dibenzazepine;Prazepine;<em>N</em>-(γ-Dimethylaminopropyl)iminodibenzyl;5-(3-Dimethylaminopropyl)-10,11-dihydro-5<em>H</em>-dibenz[<em>b</em>,<em>f</em>]azepine;Berkomine;Org 2463;NSC 169866;Cristalia;Sermonil;MeSH ID: D007099",
    "duplicated_cas_no": "",
    "SMILES": "C(CCN(C)C)N1C=2C(CCC=3C1=CC=CC3)=CC=CC2",
    "meta_data": {
        "InChI": "InChI=1S/C19H24N2/c1-20(2)14-7-15-21-18-10-5-3-8-16(18)12-13-17-9-4-6-11-19(17)21/h3-6,8-11H,7,12-15H2,1-2H3",
        "InChIKey": null,
        "Canonical SMILES": "C=1C=CC2=C(C1)N(C=3C=CC=CC3CC2)CCCN(C)C",
        "Molecular Formula": "C<sub>19</sub>H<sub>24</sub>N<sub>2</sub>",
        "Molecular Mass": "280.41",
        "Boiling Point": "160 °C @ Press: 0.1 Torr",
        "Melting Point": "174.5 °C"
    }
}