{
    "cas_no": "143-15-7",
    "key_name": "1-Bromododecane",
    "cn_name": "溴代十二烷;",
    "alternate_name": "Dodecane, 1-bromo-;1-Bromododecane;Dodecyl bromide;Lauryl bromide;<em>n</em>-Dodecyl bromide;1-Dodecyl bromide;<em>n</em>-Lauryl bromide;NSC 6786;12-Bromododecane",
    "duplicated_cas_no": "1600528-23-1",
    "SMILES": "C(CCCCCBr)CCCCCC",
    "meta_data": {
        "InChI": "InChI=1S/C12H25Br/c1-2-3-4-5-6-7-8-9-10-11-12-13/h2-12H2,1H3",
        "InChIKey": null,
        "Canonical SMILES": "BrCCCCCCCCCCCC",
        "Molecular Formula": "C<sub>12</sub>H<sub>25</sub>Br",
        "Molecular Mass": "249.23",
        "Boiling Point": "276 °C",
        "Melting Point": "-9.5 °C",
        "Density": "1.039 g/cm³ @ Temp: 20 °C"
    }
}