{
    "cas_no": "934-98-5",
    "key_name": "2-(4-Methylpiperazin-1-yl)ethylamine",
    "cn_name": "4-甲基-1-哌嗪乙胺; 1-(2-氨乙基)-4-甲基哌嗪;",
    "alternate_name": "1-Piperazineethanamine, 4-methyl-;Piperazine, 1-(2-aminoethyl)-4-methyl-;4-Methyl-1-piperazineethanamine;1-(2-Aminoethyl)-4-methylpiperazine;1-Methyl-4-(2-aminoethyl)piperazine;2-(4-Methylpiperazin-1-yl)ethylamine;2-(4-Methyl-1-piperazinyl)ethanamine;2-(4-Methylpiperazino)ethanamine;4-(2-Aminoethyl)-1-methylpiperazine;2-(4-Methylpiperazin-1-yl)ethan-1-amine",
    "duplicated_cas_no": "",
    "SMILES": "C(CN)N1CCN(C)CC1",
    "meta_data": {
        "InChI": "InChI=1S/C7H17N3/c1-9-4-6-10(3-2-8)7-5-9/h2-8H2,1H3",
        "InChIKey": null,
        "Canonical SMILES": "NCCN1CCN(C)CC1",
        "Molecular Formula": "C<sub>7</sub>H<sub>17</sub>N<sub>3</sub>",
        "Molecular Mass": "143.23",
        "Boiling Point": "81-83 °C @ Press: 11 Torr"
    }
}