{
    "cas_no": "4652-27-1",
    "key_name": "4-Methoxy-3-buten-2-one",
    "cn_name": "4-甲氧基-3-丁烯-2-酮;",
    "alternate_name": "3-Buten-2-one, 4-methoxy-;4-Methoxy-3-buten-2-one;1-Methoxy-1-buten-3-one;NSC 66263",
    "duplicated_cas_no": "",
    "SMILES": "C(C(C)=O)=COC",
    "meta_data": {
        "InChI": "InChI=1S/C5H8O2/c1-5(6)3-4-7-2/h3-4H,1-2H3",
        "InChIKey": null,
        "Canonical SMILES": "O=C(C=COC)C",
        "Molecular Formula": "C<sub>5</sub>H<sub>8</sub>O<sub>2</sub>",
        "Molecular Mass": "100.12",
        "Boiling Point": "54-56 °C @ Press: 10 Torr",
        "Density": "0.9973 g/cm³ @ Temp: 20 °C"
    }
}