{
    "cas_no": "2772-45-4",
    "key_name": "2,4-Dicumylphenol",
    "cn_name": "2,4-二枯基酚;",
    "alternate_name": "Phenol, 2,4-bis(1-methyl-1-phenylethyl)-;Phenol, 2,4-bis(α,α-dimethylbenzyl)-;2,4-Bis(1-methyl-1-phenylethyl)phenol;2,4-Bis(α,α-dimethylbenzyl)phenol;2,4-Dicumylphenol;2,4-(α,α-Dimethylbenzyl)phenol;4,6-Bis(α,α-dimethylbenzyl)phenol;2,4-Bis(2-phenylpropan-2-yl)phenol",
    "duplicated_cas_no": "106060-52-0;68957-56-2",
    "SMILES": "C(C)(C)(C1=CC(C(C)(C)C2=CC=CC=C2)=CC=C1O)C3=CC=CC=C3",
    "meta_data": {
        "InChI": "InChI=1S/C24H26O/c1-23(2,18-11-7-5-8-12-18)20-15-16-22(25)21(17-20)24(3,4)19-13-9-6-10-14-19/h5-17,25H,1-4H3",
        "InChIKey": null,
        "Canonical SMILES": "OC1=CC=C(C=C1C(C=2C=CC=CC2)(C)C)C(C=3C=CC=CC3)(C)C",
        "Molecular Formula": "C<sub>24</sub>H<sub>26</sub>O",
        "Molecular Mass": "330.46",
        "Boiling Point": "330 °C",
        "Melting Point": "65.5-67 °C",
        "Density": "1.063 g/cm³ @ Temp: 20 °C"
    }
}