{
    "cas_no": "14173-40-1",
    "key_name": "Phenylalanine, 4-chloro-, methyl ester, hydrochloride (1:1)",
    "cn_name": "4-氯-DL-苯丙氨酸甲酯盐酸盐;",
    "alternate_name": "Phenylalanine, 4-chloro-, methyl ester, hydrochloride (1:1);Alanine, 3-(<em>p</em>-chlorophenyl)-, methyl ester, hydrochloride, <span class=\"text-smallcaps\">DL</span>-;<span class=\"text-smallcaps\">DL</span>-Phenylalanine, 4-chloro-, methyl ester, hydrochloride;Phenylalanine, 4-chloro-, methyl ester, hydrochloride;<span class=\"text-smallcaps\">DL</span>-(<em>p</em>-Chlorophenyl)alanine methyl ester hydrochloride;<em>p</em>-Chlorophenylalanine methyl ester hydrochloride;4-Chlorophenylalanine methyl ester hydrochloride;<span class=\"text-smallcaps\">DL</span>-(4-Chlorophenyl)alanine methyl ester hydrochloride",
    "duplicated_cas_no": "23434-91-5",
    "SMILES": "C(C(C(OC)=O)N)C1=CC=C(Cl)C=C1.Cl",
    "meta_data": {
        "InChI": "InChI=1S/C10H12ClNO2.ClH/c1-14-10(13)9(12)6-7-2-4-8(11)5-3-7;/h2-5,9H,6,12H2,1H3;1H",
        "InChIKey": null,
        "Canonical SMILES": "Cl.O=C(OC)C(N)CC1=CC=C(Cl)C=C1",
        "Molecular Formula": "C<sub>10</sub>H<sub>12</sub>ClNO<sub>2</sub>.ClH",
        "Molecular Mass": "",
        "Melting Point": "185-186 °C"
    }
}