{
    "cas_no": "6456-44-6",
    "key_name": "Pyridinium, 3-(aminocarbonyl)-1-methyl-, iodide (1:1)",
    "cn_name": null,
    "alternate_name": "Pyridinium, 3-(aminocarbonyl)-1-methyl-, iodide (1:1);Pyridinium, 3-carbamoyl-1-methyl-, iodide;Pyridinium, 3-(aminocarbonyl)-1-methyl-, iodide;3-Carbamoyl-1-methylpyridinium iodide;Pyridinium, 3-carbamyl-1-methyl-, iodide;Nicotinamide methiodide;1-Methylnicotinamide iodide",
    "duplicated_cas_no": "",
    "SMILES": "C(N)(=O)C1=C[N+](C)=CC=C1.[I-]",
    "meta_data": {
        "InChI": "InChI=1S/C7H8N2O.HI/c1-9-4-2-3-6(5-9)7(8)10;/h2-5H,1H3,(H-,8,10);1H",
        "InChIKey": null,
        "Canonical SMILES": "[I-].O=C(N)C1=CC=C[N+](=C1)C",
        "Molecular Formula": "C<sub>7</sub>H<sub>9</sub>N<sub>2</sub>O.I",
        "Molecular Mass": "",
        "Melting Point": "208-209 °C"
    }
}