{
    "cas_no": "24589-77-3",
    "key_name": "Benzoic acid, 4-hydrazinyl-, hydrochloride (1:1)",
    "cn_name": "4-羧基苯肼盐酸盐;对羧基苯肼盐酸盐;",
    "alternate_name": "Benzoic acid, 4-hydrazinyl-, hydrochloride (1:1);Benzoic acid, <em>p</em>-hydrazino-, monohydrochloride;Benzoic acid, 4-hydrazino-, monohydrochloride;Benzoic acid, <em>p</em>-hydrazino-, hydrochloride;4-Carboxyphenylhydrazinium chloride;<em>p</em>-Carboxyphenylhydrazine hydrochloride;4-Carboxyphenylhydrazine hydrochloride;<em>p</em>-Hydrazinobenzoic acid hydrochloride;4-Hydrazinobenzoic acid hydrochloride;(4-Carboxyphenyl)hydrazine monohydrochloride;4-Hydrazinylbenzoic acid hydrochloride",
    "duplicated_cas_no": "",
    "SMILES": "C(O)(=O)C1=CC=C(NN)C=C1.Cl",
    "meta_data": {
        "InChI": "InChI=1S/C7H8N2O2.ClH/c8-9-6-3-1-5(2-4-6)7(10)11;/h1-4,9H,8H2,(H,10,11);1H",
        "InChIKey": null,
        "Canonical SMILES": "Cl.O=C(O)C1=CC=C(C=C1)NN",
        "Molecular Formula": "C<sub>7</sub>H<sub>8</sub>N<sub>2</sub>O<sub>2</sub>.ClH",
        "Molecular Mass": "",
        "Melting Point": "235-236 °C"
    }
}