{
    "cas_no": "19368-18-4",
    "key_name": "2-[[(2,6-Dimethylphenyl)amino]carbonyl]benzoic acid",
    "cn_name": null,
    "alternate_name": "Benzoic acid, 2-[[(2,6-dimethylphenyl)amino]carbonyl]-;Phthalanilic acid, 2′,6′-dimethyl-;2-[[(2,6-Dimethylphenyl)amino]carbonyl]benzoic acid;Ftaxilide;NSC 16112;2-[(2,6-Dimethylphenyl)carbamoyl]benzoic acid",
    "duplicated_cas_no": "",
    "SMILES": "C(NC1=C(C)C=CC=C1C)(=O)C2=C(C(O)=O)C=CC=C2",
    "meta_data": {
        "InChI": "InChI=1S/C16H15NO3/c1-10-6-5-7-11(2)14(10)17-15(18)12-8-3-4-9-13(12)16(19)20/h3-9H,1-2H3,(H,17,18)(H,19,20)",
        "InChIKey": null,
        "Canonical SMILES": "O=C(O)C=1C=CC=CC1C(=O)NC=2C(=CC=CC2C)C",
        "Molecular Formula": "C<sub>16</sub>H<sub>15</sub>NO<sub>3</sub>",
        "Molecular Mass": "269.30",
        "Melting Point": "188-189 °C"
    }
}