{
    "cas_no": "1392102-38-3",
    "key_name": "(6<em>S</em>)-3,10-Dibromo-6-phenyl-6<em>H</em>-indolo[1,2-<em>c</em>][1,3]benzoxazine",
    "cn_name": null,
    "alternate_name": "6<em>H</em>-Indolo[1,2-<em>c</em>][1,3]benzoxazine, 3,10-dibromo-6-phenyl-, (6<em>S</em>)-;(6<em>S</em>)-3,10-Dibromo-6-phenyl-6<em>H</em>-indolo[1,2-<em>c</em>][1,3]benzoxazine;(6S)-3,10-Dibromo-6-phenyl-6<em>H</em>-indolo[1,2-<em>c</em>][1,3]benzoxazine",
    "duplicated_cas_no": "",
    "SMILES": "BrC=1C=C2C(N3C(C=4C(O[C@H]3C5=CC=CC=C5)=CC(Br)=CC4)=C2)=CC1",
    "meta_data": {
        "InChI": "InChI=1S/C21H13Br2NO/c22-15-7-9-18-14(10-15)11-19-17-8-6-16(23)12-20(17)25-21(24(18)19)13-4-2-1-3-5-13/h1-12,21H/t21-/m0/s1",
        "InChIKey": null,
        "Canonical SMILES": "BrC=1C=CC2=C(OC(C=3C=CC=CC3)N4C5=CC=C(Br)C=C5C=C24)C1",
        "Molecular Formula": "C<sub>21</sub>H<sub>13</sub>Br<sub>2</sub>NO",
        "Molecular Mass": "455.14",
        "Melting Point": "177-179 °C"
    }
}