{
    "cas_no": "13515-97-4",
    "key_name": "Alanine, methyl ester, hydrochloride (1:1)",
    "cn_name": null,
    "alternate_name": "Alanine, methyl ester, hydrochloride (1:1);Alanine, methyl ester, hydrochloride, <span class=\"text-smallcaps\">D</smallcap><smallcap>L</span>-;<span class=\"text-smallcaps\">D</smallcap><smallcap>L</span>-Alanine, methyl ester, hydrochloride;Alanine, methyl ester, hydrochloride;(±)-Alanine methyl ester hydrochloride;Methyl <span class=\"text-smallcaps\">D</smallcap><smallcap>L</span>-alaninate hydrochloride;Methyl 2-aminopropanoate hydrochloride;<span class=\"text-smallcaps\">DL</span>-Alanine methyl ester hydrochloride",
    "duplicated_cas_no": "200067-17-0",
    "SMILES": "C(C(C)N)(OC)=O.Cl",
    "meta_data": {
        "InChI": "InChI=1S/C4H9NO2.ClH/c1-3(5)4(6)7-2;/h3H,5H2,1-2H3;1H",
        "InChIKey": null,
        "Canonical SMILES": "Cl.O=C(OC)C(N)C",
        "Molecular Formula": "C<sub>4</sub>H<sub>9</sub>NO<sub>2</sub>.ClH",
        "Molecular Mass": "",
        "Melting Point": "155-157 °C"
    }
}