{
    "cas_no": "128-53-0",
    "key_name": "<em>N</em>-Ethylmaleimide",
    "cn_name": "N-乙基马来酰亚胺;N-乙基顺丁烯二酰亚胺;",
    "alternate_name": "1<em>H</em>-Pyrrole-2,5-dione, 1-ethyl-;Maleimide, <em>N</em>-ethyl-;1-Ethyl-1<em>H</em>-pyrrole-2,5-dione;<em>N</em>-Ethylmaleimide;NEM;Ethylmaleimide;Maleic acid <em>N</em>-ethylimide;NSC 7638;1-Ethyl-2,5-dihydro-1<em>H</em>-pyrrole-2,5-dione;MeSH ID: D005033",
    "duplicated_cas_no": "",
    "SMILES": "C(C)N1C(=O)C=CC1=O",
    "meta_data": {
        "InChI": "InChI=1S/C6H7NO2/c1-2-7-5(8)3-4-6(7)9/h3-4H,2H2,1H3",
        "InChIKey": null,
        "Canonical SMILES": "O=C1C=CC(=O)N1CC",
        "Molecular Formula": "C<sub>6</sub>H<sub>7</sub>NO<sub>2</sub>",
        "Molecular Mass": "125.13",
        "Boiling Point": "128 °C @ Press: 10 Torr",
        "Melting Point": "45.5 °C"
    }
}