{
    "cas_no": "638-79-9",
    "key_name": "1,1,1,2,2,3,3,4,4,5,5-Undecafluoro-5-iodopentane",
    "cn_name": null,
    "alternate_name": "Pentane, 1,1,1,2,2,3,3,4,4,5,5-undecafluoro-5-iodo-;Pentane, undecafluoro-1-iodo-;1,1,1,2,2,3,3,4,4,5,5-Undecafluoro-5-iodopentane;Perfluoroamyl iodide;1-Iodoperfluoropentane;Perfluoropentyliodide;Iodoundecafluoropentane",
    "duplicated_cas_no": "",
    "SMILES": "C(C(C(F)(F)F)(F)F)(C(C(F)(F)I)(F)F)(F)F",
    "meta_data": {
        "InChI": "InChI=1S/C5F11I/c6-1(7,2(8,9)4(12,13)14)3(10,11)5(15,16)17",
        "InChIKey": null,
        "Canonical SMILES": "FC(F)(F)C(F)(F)C(F)(F)C(F)(F)C(F)(F)I",
        "Molecular Formula": "C<sub>5</sub>F<sub>11</sub>I",
        "Molecular Mass": "395.94",
        "Boiling Point": "94.4 °C",
        "Melting Point": "-50 °C"
    }
}