{
    "cas_no": "57646-30-7",
    "key_name": "Furalaxyl",
    "cn_name": "呋氨丙灵;",
    "alternate_name": "Alanine, <em>N</em>-(2,6-dimethylphenyl)-<em>N</em>-(2-furanylcarbonyl)-, methyl ester;<span class=\"text-smallcaps\">D</smallcap><smallcap>L</span>-Alanine, <em>N</em>-(2,6-dimethylphenyl)-<em>N</em>-(2-furanylcarbonyl)-, methyl ester;Fongarid;Furalaxyl;CGA 38140;A 5430;Fongaride",
    "duplicated_cas_no": "66063-54-5;1135443-59-2",
    "SMILES": "N(C(=O)C1=CC=CO1)(C(C(OC)=O)C)C2=C(C)C=CC=C2C",
    "meta_data": {
        "InChI": "InChI=1S/C17H19NO4/c1-11-7-5-8-12(2)15(11)18(13(3)17(20)21-4)16(19)14-9-6-10-22-14/h5-10,13H,1-4H3",
        "InChIKey": null,
        "Canonical SMILES": "O=C(OC)C(N(C(=O)C=1OC=CC1)C=2C(=CC=CC2C)C)C",
        "Molecular Formula": "C<sub>17</sub>H<sub>19</sub>NO<sub>4</sub>",
        "Molecular Mass": "301.34",
        "Melting Point": "70 °C"
    }
}