{
    "cas_no": "1848-84-6",
    "key_name": "2-Ethylbenzimidazole",
    "cn_name": "2-乙基苯并咪唑;",
    "alternate_name": "1<em>H</em>-Benzimidazole, 2-ethyl-;Benzimidazole, 2-ethyl-;2-Ethyl-1<em>H</em>-benzimidazole;2-Ethylbenzimidazole;NSC 28961;NSC 38878;2-Ethyl-1<em>H</em>-1,3-benzodiazole;2-Ethyl-1<em>H</em>-benzo[<em>d</em>]imidazole",
    "duplicated_cas_no": "",
    "SMILES": "C(C)C=1NC=2C(N1)=CC=CC2",
    "meta_data": {
        "InChI": "InChI=1S/C9H10N2/c1-2-9-10-7-5-3-4-6-8(7)11-9/h3-6H,2H2,1H3,(H,10,11)",
        "InChIKey": null,
        "Canonical SMILES": "N=1C=2C=CC=CC2NC1CC",
        "Molecular Formula": "C<sub>9</sub>H<sub>10</sub>N<sub>2</sub>",
        "Molecular Mass": "146.19",
        "Melting Point": "174-175 °C"
    }
}