{
    "cas_no": "105494-69-7",
    "key_name": "1-Methyl-2-(tributylstannyl)-1<em>H</em>-imidazole",
    "cn_name": null,
    "alternate_name": "1<em>H</em>-Imidazole, 1-methyl-2-(tributylstannyl)-;1-Methyl-2-(tributylstannyl)-1<em>H</em>-imidazole;1-Methyl-2-(tributylstannyl)imidazole;2-Tributylstannyl-<em>N</em>-methylimidazole;1-Methyl-2-(tributylstannanyl)-1<em>H</em>-imidazole;2-(Tributylstannanyl)-1-methyl-1<em>H</em>-imidazole",
    "duplicated_cas_no": "",
    "SMILES": "[Sn](CCCC)(CCCC)(CCCC)C=1N(C)C=CN1",
    "meta_data": {
        "InChI": "InChI=1S/C4H5N2.3C4H9.Sn/c1-6-3-2-5-4-6;3*1-3-4-2;/h2-3H,1H3;3*1,3-4H2,2H3;",
        "InChIKey": null,
        "Canonical SMILES": "N=1C=CN(C1[Sn](CCCC)(CCCC)CCCC)C",
        "Molecular Formula": "C<sub>16</sub>H<sub>32</sub>N<sub>2</sub>Sn",
        "Molecular Mass": "371.15",
        "Boiling Point": "145-146 °C @ Press: 0.05 Torr"
    }
}