{
    "cas_no": "106-25-2",
    "key_name": "Nerol",
    "cn_name": "橙花醇;3,7-二甲基-2,6-辛二烯-1-醇;",
    "alternate_name": "2,6-Octadien-1-ol, 3,7-dimethyl-, (2<em>Z</em>)-;2,6-Octadien-1-ol, 3,7-dimethyl-, (<em>Z</em>)-;Nerol;(2<em>Z</em>)-3,7-Dimethyl-2,6-octadien-1-ol;<em>cis</em>-3,7-Dimethyl-2,6-octadien-1-ol;<em>cis</em>-Geraniol;Neryl alcohol;β-Nerol;(<em>Z</em>)-Geraniol;(<em>Z</em>)-3,7-Dimethyl-2,6-octadien-1-ol;3,7-Dimethyl-<em>cis</em>-2,6-octadien-1-ol;(<em>Z</em>)-Nerol;2-<em>cis</em>-3,7-Dimethyl-2,6-octadien-1-ol;Nerol 900;(<em>Z</em>)-3,7-Dimethyl-2,6-octadienol;<em>cis</em>-1-Hydroxy-3,7-dimethyl-2,6-octadiene;(Z)-3,7-Dimethyloct-2,6-diene-1-ol;(Z)-3,7-Dimethylocta-2,6-dien-1-ol",
    "duplicated_cas_no": "",
    "SMILES": "C(\\CCC=C(C)C)(=C\\CO)/C",
    "meta_data": {
        "InChI": "InChI=1S/C10H18O/c1-9(2)5-4-6-10(3)7-8-11/h5,7,11H,4,6,8H2,1-3H3/b10-7-",
        "InChIKey": null,
        "Canonical SMILES": "OCC=C(C)CCC=C(C)C",
        "Molecular Formula": "C<sub>10</sub>H<sub>18</sub>O",
        "Molecular Mass": "154.25",
        "Boiling Point": "225 °C",
        "Melting Point": "&lt;-15 °C",
        "Density": "0.8756 g/cm³ @ Temp: 20 °C"
    }
}