{
    "cas_no": "21834-92-4",
    "key_name": "5-Methyl-2-phenyl-2-hexenal",
    "cn_name": "可卡醛;5-甲基-2-苯基-2-己烯醛;",
    "alternate_name": "Benzeneacetaldehyde, α-(3-methylbutylidene)-;2-Hexenal, 5-methyl-2-phenyl-;α-(3-Methylbutylidene)benzeneacetaldehyde;5-Methyl-2-phenyl-2-hexenal;2-Phenyl-5-methylhex-2-enal;Cocal",
    "duplicated_cas_no": "",
    "SMILES": "C(=CCC(C)C)(C=O)C1=CC=CC=C1",
    "meta_data": {
        "InChI": "InChI=1S/C13H16O/c1-11(2)8-9-13(10-14)12-6-4-3-5-7-12/h3-7,9-11H,8H2,1-2H3",
        "InChIKey": null,
        "Canonical SMILES": "O=CC(=CCC(C)C)C=1C=CC=CC1",
        "Molecular Formula": "C<sub>13</sub>H<sub>16</sub>O",
        "Molecular Mass": "188.27",
        "Boiling Point": "96-100 °C @ Press: 0.7 Torr"
    }
}