{
    "cas_no": "2432-90-8",
    "key_name": "Didodecyl phthalate",
    "cn_name": "邻苯二甲酸双十二酯;酞酸二月桂酯;",
    "alternate_name": "1,2-Benzenedicarboxylic acid, 1,2-didodecyl ester;Phthalic acid, didodecyl ester;1,2-Benzenedicarboxylic acid, didodecyl ester;Dilauryl phthalate;Didodecyl phthalate;Di-<em>n</em>-dodecyl phthalate;Vinycizer 126;NSC 68022;Bis-didecyl phthalate",
    "duplicated_cas_no": "",
    "SMILES": "C(OCCCCCCCCCCCC)(=O)C1=C(C(OCCCCCCCCCCCC)=O)C=CC=C1",
    "meta_data": {
        "InChI": "InChI=1S/C32H54O4/c1-3-5-7-9-11-13-15-17-19-23-27-35-31(33)29-25-21-22-26-30(29)32(34)36-28-24-20-18-16-14-12-10-8-6-4-2/h21-22,25-26H,3-20,23-24,27-28H2,1-2H3",
        "InChIKey": null,
        "Canonical SMILES": "O=C(OCCCCCCCCCCCC)C=1C=CC=CC1C(=O)OCCCCCCCCCCCC",
        "Molecular Formula": "C<sub>32</sub>H<sub>54</sub>O<sub>4</sub>",
        "Molecular Mass": "502.77",
        "Boiling Point": "271-275 °C @ Press: 1 Torr",
        "Density": "0.9389 g/cm³ @ Temp: 30 °C"
    }
}