{
    "cas_no": "5807-30-7",
    "key_name": "3,4-Dichlorophenylacetic acid",
    "cn_name": "3,4-二氯苯乙酸;",
    "alternate_name": "Benzeneacetic acid, 3,4-dichloro-;Acetic acid, (3,4-dichlorophenyl)-;3,4-Dichlorobenzeneacetic acid;3,4-Dichlorophenylacetic acid;NSC 132186;2-(3,4-Dichlorophenyl)acetic acid",
    "duplicated_cas_no": "",
    "SMILES": "C(C(O)=O)C1=CC(Cl)=C(Cl)C=C1",
    "meta_data": {
        "InChI": "InChI=1S/C8H6Cl2O2/c9-6-2-1-5(3-7(6)10)4-8(11)12/h1-3H,4H2,(H,11,12)",
        "InChIKey": null,
        "Canonical SMILES": "O=C(O)CC1=CC=C(Cl)C(Cl)=C1",
        "Molecular Formula": "C<sub>8</sub>H<sub>6</sub>Cl<sub>2</sub>O<sub>2</sub>",
        "Molecular Mass": "205.04",
        "Melting Point": "82-82.5 °C"
    }
}