{
    "cas_no": "93-89-0",
    "key_name": "Ethyl benzoate",
    "cn_name": "苯甲酸乙酯;",
    "alternate_name": "Benzoic acid, ethyl ester;Ethyl benzenecarboxylate;Ethyl benzoate;Benzoyl ethyl ether;NSC 8884",
    "duplicated_cas_no": "",
    "SMILES": "C(OCC)(=O)C1=CC=CC=C1",
    "meta_data": {
        "InChI": "InChI=1S/C9H10O2/c1-2-11-9(10)8-6-4-3-5-7-8/h3-7H,2H2,1H3",
        "InChIKey": null,
        "Canonical SMILES": "O=C(OCC)C=1C=CC=CC1",
        "Molecular Formula": "C<sub>9</sub>H<sub>10</sub>O<sub>2</sub>",
        "Molecular Mass": "150.17",
        "Boiling Point": "212 °C",
        "Melting Point": "-34 °C",
        "Density": "1.3202 g/cm³ @ Temp: 58 °C"
    }
}