{
    "cas_no": "482-25-7",
    "key_name": "(+)-Byakangelicin",
    "cn_name": null,
    "alternate_name": "7<em>H</em>-Furo[3,2-<em>g</em>][1]benzopyran-7-one, 9-[(2<em>R</em>)-2,3-dihydroxy-3-methylbutoxy]-4-methoxy-;Biacangelicin;7<em>H</em>-Furo[3,2-<em>g</em>][1]benzopyran-7-one, 9-(2,3-dihydroxy-3-methylbutoxy)-4-methoxy-, (<em>R</em>)-;9-[(2<em>R</em>)-2,3-Dihydroxy-3-methylbutoxy]-4-methoxy-7<em>H</em>-furo[3,2-<em>g</em>][1]benzopyran-7-one;Byakangelicin;Byankagelicine;5-Methoxy-8-(2,3-dihydroxy-3-methylbutoxy)psoralene;(+)-Byakangelicin;Bjakangelicin;Bjacangelicin",
    "duplicated_cas_no": "11034-80-3;26091-78-1",
    "SMILES": "O(C[C@H](C(C)(C)O)O)C=1C2=C(C(OC)=C3C1OC=C3)C=CC(=O)O2",
    "meta_data": {
        "InChI": "InChI=1S/C17H18O7/c1-17(2,20)11(18)8-23-16-14-10(6-7-22-14)13(21-3)9-4-5-12(19)24-15(9)16/h4-7,11,18,20H,8H2,1-3H3/t11-/m1/s1",
        "InChIKey": null,
        "Canonical SMILES": "O=C1OC=2C(OCC(O)C(O)(C)C)=C3OC=CC3=C(OC)C2C=C1",
        "Molecular Formula": "C<sub>17</sub>H<sub>18</sub>O<sub>7</sub>",
        "Molecular Mass": "334.32",
        "Melting Point": "117-118 °C"
    }
}