{
    "cas_no": "13679-70-4",
    "key_name": "5-Methyl-2-thiophenecarboxaldehyde",
    "cn_name": "5-甲基-2-噻吩甲醛;",
    "alternate_name": "2-Thiophenecarboxaldehyde, 5-methyl-;5-Methyl-2-thiophenecarboxaldehyde;5-Methyl-2-formylthiophene;2-Formyl-5-methylthiophene;5-Methylthiophene-2-carbaldehyde;2-Methylthiophene-5-carboxaldehyde;2-Methyl-5-formylthiophene;5-Methyl-2-thiophenealdehyde;5-Methyl-2-thienaldehyde;NSC 87542;5-Methyl-2-thienylcarbaldehyde;5-Methylthiophen-2-carboxaldehyde",
    "duplicated_cas_no": "",
    "SMILES": "C(=O)C=1SC(C)=CC1",
    "meta_data": {
        "InChI": "InChI=1S/C6H6OS/c1-5-2-3-6(4-7)8-5/h2-4H,1H3",
        "InChIKey": null,
        "Canonical SMILES": "O=CC=1SC(=CC1)C",
        "Molecular Formula": "C<sub>6</sub>H<sub>6</sub>OS",
        "Molecular Mass": "126.18",
        "Boiling Point": "52.5 °C @ Press: 0.7 Torr",
        "Melting Point": "184-186 °C",
        "Density": "1.17 g/cm³"
    }
}