{
    "cas_no": "89-32-7",
    "key_name": "Pyromellitic dianhydride",
    "cn_name": "均苯四甲酸二酐;1,2,4,5-均苯四甲酸二酐;PMDA;",
    "alternate_name": "1<em>H</em>,3<em>H</em>-Benzo[1,2-<em>c</em>:4,5-<em>c</em>′]difuran-1,3,5,7-tetrone;1,2,4,5-Benzenetetracarboxylic 1,2:4,5-dianhydride;Pyromellitic 1,2:4,5-dianhydride;Pyromellitic dianhydride;Pyromellitic anhydride;Pyromellitic acid dianhydride;1,2:4,5-Benzenetetracarboxylic dianhydride;Pyromellitic acid anhydride;1,2,4,5-Benzenetetracarboxylic acid dianhydride;PMDA;1,2,4,5-Benzenetetracarboxylic acid 1,2:4,5-dianhydride;NSC 4798;PMDA-M;SY 4;Benzene-1,2,4,5-tetracarboxylic dianhydride;1<em>H</em>,3<em>H</em>-Benzol[1,2-<em>c</em>:4,5-<em>c</em>′]difuran-1,3,5,7-tetrone;Benzo[1,2-<em>c</em>:4,5-<em>c</em>′]difuran-1,3,5,7-tetraone",
    "duplicated_cas_no": "7623-29-2;159104-96-8",
    "SMILES": "O=C1C=2C(=CC3=C(C2)C(=O)OC3=O)C(=O)O1",
    "meta_data": {
        "InChI": "InChI=1S/C10H2O6/c11-7-3-1-4-6(10(14)16-8(4)12)2-5(3)9(13)15-7/h1-2H",
        "InChIKey": null,
        "Canonical SMILES": "O=C1OC(=O)C=2C=C3C(=O)OC(=O)C3=CC12",
        "Molecular Formula": "C<sub>10</sub>H<sub>2</sub>O<sub>6</sub>",
        "Molecular Mass": "218.12",
        "Boiling Point": "397-400 °C",
        "Melting Point": "286 °C",
        "Density": "1.68 g/cm³"
    }
}