{
    "cas_no": "107-35-7",
    "key_name": "Taurine",
    "cn_name": "牛磺酸;2-氨基乙磺酸;",
    "alternate_name": "Ethanesulfonic acid, 2-amino-;Taurine;2-Aminoethanesulfonic acid;O-Due;β-Aminoethylsulfonic acid;2-Sulfoethylamine;Tauphon;1-Aminoethane-2-sulfonic acid;2-Aminoethylsulfonic acid;Taufon;Taukard;NSC 32428;Tauramin;2-Aminoethane-1-sulfonic acid;2-Azaniumylethanesulfonate;MeSH ID: D013654",
    "duplicated_cas_no": "91105-79-2;1365481-05-5;1629855-90-8;2087491-53-8",
    "SMILES": "C(S(=O)(=O)O)CN",
    "meta_data": {
        "InChI": "InChI=1S/C2H7NO3S/c3-1-2-7(4,5)6/h1-3H2,(H,4,5,6)",
        "InChIKey": null,
        "Canonical SMILES": "O=S(=O)(O)CCN",
        "Molecular Formula": "C<sub>2</sub>H<sub>7</sub>NO<sub>3</sub>S",
        "Molecular Mass": "125.15",
        "Melting Point": "328 °C"
    }
}