{
    "cas_no": "115550-35-1",
    "key_name": "Marbofloxacin",
    "cn_name": "马波沙星;麻保沙星;9-氟-2,3-二氢-3-甲基-10-(4-甲基-1-哌嗪基)-7-氧代-7H-吡啶并[3,2,1-ij][4,1,2]苯并噁;",
    "alternate_name": "7<em>H</em>-Pyrido[3,2,1-<em>ij</em>][4,1,2]benzoxadiazine-6-carboxylic acid, 9-fluoro-2,3-dihydro-3-methyl-10-(4-methyl-1-piperazinyl)-7-oxo-;9-Fluoro-2,3-dihydro-3-methyl-10-(4-methyl-1-piperazinyl)-7-oxo-7<em>H</em>-pyrido[3,2,1-<em>ij</em>][4,1,2]benzoxadiazine-6-carboxylic acid;Marbofloxacin;Marbocyl;Zeniquin;Aurizon;CID 60651;Pubchem CID: 60651",
    "duplicated_cas_no": "",
    "SMILES": "O=C1C=2C3=C(C(=C(F)C2)N4CCN(C)CC4)OCN(C)N3C=C1C(O)=O",
    "meta_data": {
        "InChI": "InChI=1S/C17H19FN4O4/c1-19-3-5-21(6-4-19)14-12(18)7-10-13-16(14)26-9-20(2)22(13)8-11(15(10)23)17(24)25/h7-8H,3-6,9H2,1-2H3,(H,24,25)",
        "InChIKey": null,
        "Canonical SMILES": "O=C(O)C1=CN2C3=C(OCN2C)C(=C(F)C=C3C1=O)N4CCN(C)CC4",
        "Molecular Formula": "C<sub>17</sub>H<sub>19</sub>FN<sub>4</sub>O<sub>4</sub>",
        "Molecular Mass": "362.36",
        "Melting Point": "268-269 °C (decomp)"
    }
}