{
    "cas_no": "1000623-98-2",
    "key_name": "3,6-Bis(5-bromothiophen-2-yl)-2,5-bis(2-hexyldecyl)pyrrolo[3,4-<em>c</em>]pyrrole-1,4(2<em>H</em>,5<em>H</em>)-dione",
    "cn_name": null,
    "alternate_name": "Pyrrolo[3,4-<em>c</em>]pyrrole-1,4-dione, 3,6-bis(5-bromo-2-thienyl)-2,5-bis(2-hexyldecyl)-2,5-dihydro-;3,6-Bis(5-bromo-2-thienyl)-2,5-bis(2-hexyldecyl)-2,5-dihydropyrrolo[3,4-<em>c</em>]pyrrole-1,4-dione;3,6-Bis(5-bromothiophen-2-yl)-2,5-bis(2-hexyldecyl)pyrrolo[3,4-<em>c</em>]pyrrole-1,4(2<em>H</em>,5<em>H</em>)-dione;1,4-Bis(5-bromothiophen-2-yl)-2,5-bis(2-hexyldecyl)pyrrolo[3,4-<em>c</em>]pyrrole-3,6-dione;3,6-Bis(5-bromo-2-thienyl)-2,5-bis(2-hexyldecyl)pyrrolo[3,4-<em>c</em>]pyrrole-1,4(2<em>H</em>,5<em>H</em>)-dione",
    "duplicated_cas_no": "2914137-28-1",
    "SMILES": "O=C1C=2C(=C(N1CC(CCCCCCCC)CCCCCC)C3=CC=C(Br)S3)C(=O)N(CC(CCCCCCCC)CCCCCC)C2C4=CC=C(Br)S4",
    "meta_data": {
        "InChI": "InChI=1S/C46H70Br2N2O2S2/c1-5-9-13-17-19-23-27-35(25-21-15-11-7-3)33-49-43(37-29-31-39(47)53-37)41-42(45(49)51)44(38-30-32-40(48)54-38)50(46(41)52)34-36(26-22-16-12-8-4)28-24-20-18-14-10-6-2/h29-32,35-36H,5-28,33-34H2,1-4H3",
        "InChIKey": null,
        "Canonical SMILES": "O=C1C=2C(C(=O)N(C2C=3SC(Br)=CC3)CC(CCCCCC)CCCCCCCC)=C(C=4SC(Br)=CC4)N1CC(CCCCCC)CCCCCCCC",
        "Molecular Formula": "C<sub>46</sub>H<sub>70</sub>Br<sub>2</sub>N<sub>2</sub>O<sub>2</sub>S<sub>2</sub>",
        "Molecular Mass": "907.00",
        "Melting Point": "114.5-116.0 °C"
    }
}