{
    "cas_no": "37143-54-7",
    "key_name": "2-Amino-1-methoxypropane",
    "cn_name": "1-甲氧基-2-丙胺;",
    "alternate_name": "2-Propanamine, 1-methoxy-;Ethylamine, 2-methoxy-1-methyl-;Ethylamine, 2-methoxymethyl-;1-Methoxy-2-propanamine;1-Methyl-2-methoxyethylamine;Methoxyisopropylamine;1-Methoxy-2-propylamine;1-Methoxy-2-aminopropane;1-Methoxyisopropylamine;2-Amino-1-methoxypropane;(±)-1-Methoxy-2-propylamine;(±)-1-Methoxy-2-propanamine;<span class=\"text-smallcaps\">D</smallcap><smallcap>L</span>-Alaninol methyl ether;2-Methoxy-1-methylethylamine;(1-Methoxypropan-2-yl)amine",
    "duplicated_cas_no": "123410-24-2",
    "SMILES": "C(C(C)N)OC",
    "meta_data": {
        "InChI": "InChI=1S/C4H11NO/c1-4(5)3-6-2/h4H,3,5H2,1-2H3",
        "InChIKey": null,
        "Canonical SMILES": "O(C)CC(N)C",
        "Molecular Formula": "C<sub>4</sub>H<sub>11</sub>NO",
        "Molecular Mass": "89.14",
        "Boiling Point": "92.5-93.5 °C @ Press: 743 Torr"
    }
}