{
    "cas_no": "1452-15-9",
    "key_name": "4-Thiazolecarbonitrile",
    "cn_name": null,
    "alternate_name": "4-Thiazolecarbonitrile;4-Cyanothiazole;1,3-Thiazole-4-carbonitrile",
    "duplicated_cas_no": "",
    "SMILES": "C(#N)C1=CSC=N1",
    "meta_data": {
        "InChI": "InChI=1S/C4H2N2S/c5-1-4-2-7-3-6-4/h2-3H",
        "InChIKey": null,
        "Canonical SMILES": "N#CC=1N=CSC1",
        "Molecular Formula": "C<sub>4</sub>H<sub>2</sub>N<sub>2</sub>S",
        "Molecular Mass": "110.14",
        "Boiling Point": "100-120 °C @ Press: 20 Torr",
        "Melting Point": "60-61 °C"
    }
}