{
    "cas_no": "2595-54-2",
    "key_name": "Mecarbam",
    "cn_name": "灭蚜磷;灭蚜蜱;灭芽磷;灭芽蜱;苯噻草胺;",
    "alternate_name": "7-Oxa-5-thia-2-aza-6-phosphanonanoic acid, 6-ethoxy-2-methyl-3-oxo-, ethyl ester, 6-sulfide;Carbamic acid, (mercaptoacetyl)methyl-, ethyl ester, <em>S</em>-ester with <em>O</em>,<em>O</em>-diethyl phosphorodithioate;Carbamic acid, (mercaptoacetyl)methyl-, ethyl ester, <em>O</em>,<em>O</em>-diethyl phosphorodithioate;MS 1053;MS 1143;<em>O</em>,<em>O</em>-Diethyl S-(<em>N</em>-ethoxycarbonyl-<em>N</em>-methylcarbamoylmethyl) phosphorodithioate;<em>O</em>,<em>O</em>-Diethyl <em>S</em>-(<em>N</em>-ethoxycarbonyl-<em>N</em>-methylcarbamoylmethyl) phosphorothiolothionate;Mecarbam;Pestan;Murfotox;TD 72;Pennsalt TD 72;Criotox",
    "duplicated_cas_no": "",
    "SMILES": "P(SCC(N(C(OCC)=O)C)=O)(OCC)(OCC)=S",
    "meta_data": {
        "InChI": "InChI=1S/C10H20NO5PS2/c1-5-14-10(13)11(4)9(12)8-19-17(18,15-6-2)16-7-3/h5-8H2,1-4H3",
        "InChIKey": null,
        "Canonical SMILES": "O=C(OCC)N(C(=O)CSP(=S)(OCC)OCC)C",
        "Molecular Formula": "C<sub>10</sub>H<sub>20</sub>NO<sub>5</sub>PS<sub>2</sub>",
        "Molecular Mass": "329.37",
        "Boiling Point": "144 °C @ Press: 0.02 Torr",
        "Melting Point": "&lt;25 °C",
        "Density": "1.222 g/cm³ @ Temp: 20 °C"
    }
}