{
    "cas_no": "112-34-5",
    "key_name": "Diethylene glycol monobutyl ether",
    "cn_name": "二乙二醇丁醚;二乙二醇单丁醚;2-(2-丁氧基乙氧基)乙醇;丁基卡必醇;",
    "alternate_name": "Ethanol, 2-(2-butoxyethoxy)-;2-(2-Butoxyethoxy)ethanol;Butyl Carbitol;<em>O</em>-Butyl diethylene glycol;Butyl dioxitol;Diethylene glycol <em>n</em>-butyl ether;Diethylene glycol butyl ether;Diethylene glycol monobutyl ether;Diglycol monobutyl ether;Dowanol DB;Poly-Solv DB;Butyl diglycol;Butyl digol;Butoxyethoxyethanol;Butyl Oxitol glycol ether;Diethylene glycol mono-<em>n</em>-butyl ether;3,6-Dioxa-1-decanol;Ektasolve DB;Butadigol;Ethanol, 2,2′-oxybis-, monobutyl ether;<em>n</em>-Butyl carbitol;NBC (solvent);NBC;BDG-NS;K 50181;Butyl Diglysolv;BDG;NSC 407762;Hisolve DB;Butysenol 20P;Bikanol B 2;Circuposit 4125;BDGE 20;2-(2-<em>n</em>-Butoxyethoxy)ethanol;Butysenol 20;Butycenol 20P;Glycol Ether DB;Circuposit Hole Prep 4125;C 4E2;DB;Circuposit 3304;Circuposit Hole Prep 3304;Sinopol BDG-LS;2-(2-Butoxyethoxy)ethan-1-ol",
    "duplicated_cas_no": "210818-08-9;875421-79-7",
    "SMILES": "C(COCCO)OCCCC",
    "meta_data": {
        "InChI": "InChI=1S/C8H18O3/c1-2-3-5-10-7-8-11-6-4-9/h9H,2-8H2,1H3",
        "InChIKey": null,
        "Canonical SMILES": "OCCOCCOCCCC",
        "Molecular Formula": "C<sub>8</sub>H<sub>18</sub>O<sub>3</sub>",
        "Molecular Mass": "162.23",
        "Boiling Point": "230.4 °C",
        "Melting Point": "-68.1 °C",
        "Density": "0.9536 g/cm³ @ Temp: 20 °C"
    }
}