{
    "cas_no": "127-88-8",
    "key_name": "<em>N</em>,<em>N</em>-Bis(2-chloroethyl)phosphoramidic dichloride",
    "cn_name": null,
    "alternate_name": "Phosphoramidic dichloride, <em>N</em>,<em>N</em>-bis(2-chloroethyl)-;Phosphoramidic dichloride, bis(2-chloroethyl)-;<em>N</em>,<em>N</em>-Bis(2-chloroethyl)phosphoramidic dichloride;(<em>N</em>,<em>N</em>-Di-2-chloroethyl) phosphoramidic dichloride;Bis(2-chloroethyl)phosphoramidic dichloride;<em>N</em>,<em>N</em>-Bis(2-chloroethyl)phosphamide dichloride;Bis(2-chloroethyl)aminophosphoric dichloride;Bis(2-chloroethyl)aminophosphoryl dichloride;NSC 64119;2-Chloro-<em>N</em>-(2-chloroethyl)-<em>N</em>-dichlorophosphorylethanamine",
    "duplicated_cas_no": "127025-92-7;1195248-43-1;2121600-95-9",
    "SMILES": "N(P(Cl)(Cl)=O)(CCCl)CCCl",
    "meta_data": {
        "InChI": "InChI=1S/C4H8Cl4NOP/c5-1-3-9(4-2-6)11(7,8)10/h1-4H2",
        "InChIKey": null,
        "Canonical SMILES": "O=P(Cl)(Cl)N(CCCl)CCCl",
        "Molecular Formula": "C<sub>4</sub>H<sub>8</sub>Cl<sub>4</sub>NOP",
        "Molecular Mass": "258.90",
        "Boiling Point": "127 °C @ Press: 2 Torr",
        "Melting Point": "56 °C"
    }
}