{
    "cas_no": "6529-53-9",
    "key_name": "1-(2-Bromoethyl)-4-chlorobenzene",
    "cn_name": "4-氯苯乙基溴化物;",
    "alternate_name": "Benzene, 1-(2-bromoethyl)-4-chloro-;1-(2-Bromoethyl)-4-chlorobenzene;<em>p</em>-Chlorophenethyl bromide;<em>p</em>-Chloro-β-phenethyl bromide;4-Chlorophenethyl bromide;2-(<em>p</em>-Chlorophenyl)ethyl bromide;1-Bromo-2-(4-chlorophenyl)ethane;1-Chloro-4-(2-bromoethyl)benzene;2-(4-Chlorophenyl)ethyl bromide",
    "duplicated_cas_no": "",
    "SMILES": "C(CBr)C1=CC=C(Cl)C=C1",
    "meta_data": {
        "InChI": "InChI=1S/C8H8BrCl/c9-6-5-7-1-3-8(10)4-2-7/h1-4H,5-6H2",
        "InChIKey": null,
        "Canonical SMILES": "ClC1=CC=C(C=C1)CCBr",
        "Molecular Formula": "C<sub>8</sub>H<sub>8</sub>BrCl",
        "Molecular Mass": "219.51",
        "Boiling Point": "120-121 °C @ Press: 8 Torr"
    }
}