{
    "cas_no": "50-52-2",
    "key_name": "Thioridazine",
    "cn_name": "硫利达嗪;甲硫达嗪;10-[2-(1-甲基-2-哌啶基)乙基]-2-甲硫基-10H-吩噻嗪;",
    "alternate_name": "10<em>H</em>-Phenothiazine, 10-[2-(1-methyl-2-piperidinyl)ethyl]-2-(methylthio)-;Phenothiazine, 10-[2-(1-methyl-2-piperidyl)ethyl]-2-(methylthio)-;10-[2-(1-Methyl-2-piperidinyl)ethyl]-2-(methylthio)-10<em>H</em>-phenothiazine;TP 21;Mellerette;Melleril;2-Methylmercapto-10-[2-<em>N</em>-methyl-2-piperidyl)ethyl]phenothiazine;10-[2-(1-Methyl-2-piperidyl)ethyl]-2-(methylthio)phenothiazine;Thioridazin;Thioridazine;Thioridazine prolongatum;Malloryl;Meleril;Mellerets;Sonapax;Melleril (liquid);<em>dl</em>-Thioridazine;(±)-Thioridazine;Mellaril S;10-[2-(1-Methylpiperidin-2-yl)ethyl]-2-methylsulfanylphenothiazine;10-[2-(1-Methylpiperidin-2-yl)ethyl]-2-(methylsulfanyl)-10<em>H</em>-phenothiazine;MeSH ID: D013881",
    "duplicated_cas_no": "57129-06-3",
    "SMILES": "C(CC1N(C)CCCC1)N2C=3C(SC=4C2=CC=CC4)=CC=C(SC)C3",
    "meta_data": {
        "InChI": "InChI=1S/C21H26N2S2/c1-22-13-6-5-7-16(22)12-14-23-18-8-3-4-9-20(18)25-21-11-10-17(24-2)15-19(21)23/h3-4,8-11,15-16H,5-7,12-14H2,1-2H3",
        "InChIKey": null,
        "Canonical SMILES": "S1C=2C=CC=CC2N(C3=CC(SC)=CC=C13)CCC4N(C)CCCC4",
        "Molecular Formula": "C<sub>21</sub>H<sub>26</sub>N<sub>2</sub>S<sub>2</sub>",
        "Molecular Mass": "370.57",
        "Boiling Point": "230 °C @ Press: 0.02 Torr",
        "Melting Point": "72-74 °C"
    }
}