{
    "cas_no": "13623-25-1",
    "key_name": "6-Methoxy-1-indanone",
    "cn_name": "6-甲氧基-1-茚酮;",
    "alternate_name": "1<em>H</em>-Inden-1-one, 2,3-dihydro-6-methoxy-;1-Indanone, 6-methoxy-;2,3-Dihydro-6-methoxy-1<em>H</em>-inden-1-one;6-Methoxy-1-indanone;6-Methoxyindane-1-one;NSC 338231;6-Methoxy-2,3-dihydro-1<em>H</em>-inden-1-one;2,3-Dihydro-6-methoxyinden-1-one",
    "duplicated_cas_no": "",
    "SMILES": "O=C1C=2C(=CC=C(OC)C2)CC1",
    "meta_data": {
        "InChI": "InChI=1S/C10H10O2/c1-12-8-4-2-7-3-5-10(11)9(7)6-8/h2,4,6H,3,5H2,1H3",
        "InChIKey": null,
        "Canonical SMILES": "O=C1C2=CC(OC)=CC=C2CC1",
        "Molecular Formula": "C<sub>10</sub>H<sub>10</sub>O<sub>2</sub>",
        "Molecular Mass": "162.19",
        "Melting Point": "109 °C"
    }
}