{
    "cas_no": "151-19-9",
    "key_name": "3,6-Dimethyl-3-octanol",
    "cn_name": null,
    "alternate_name": "3-Octanol, 3,6-dimethyl-;3,6-Dimethyl-3-octanol;AR 1;Aprol 100;NSC 5613",
    "duplicated_cas_no": "",
    "SMILES": "C(CC(CC)C)C(CC)(C)O",
    "meta_data": {
        "InChI": "InChI=1S/C10H22O/c1-5-9(3)7-8-10(4,11)6-2/h9,11H,5-8H2,1-4H3",
        "InChIKey": null,
        "Canonical SMILES": "OC(C)(CC)CCC(C)CC",
        "Molecular Formula": "C<sub>10</sub>H<sub>22</sub>O",
        "Molecular Mass": "158.28",
        "Boiling Point": "202.2 °C",
        "Melting Point": "-67.5 °C"
    }
}