{
    "cas_no": "81-82-3",
    "key_name": "(±)-Coumachlor",
    "cn_name": "氯灭鼠灵;氯杀鼠灵；比猫灵；;",
    "alternate_name": "2<em>H</em>-1-Benzopyran-2-one, 3-[1-(4-chlorophenyl)-3-oxobutyl]-4-hydroxy-;Coumachlor;Coumarin, 3-(α-acetonyl-<em>p</em>-chlorobenzyl)-4-hydroxy-;3-[1-(4-Chlorophenyl)-3-oxobutyl]-4-hydroxy-2<em>H</em>-1-benzopyran-2-one;3-(α-Acetonyl-4-chlorobenzyl)-4-hydroxycoumarin;3-(α-<em>p</em>-Chlorophenyl-β-acetylethyl)-4-hydroxycoumarin;Experimental Rodenticide 332;Geigy Rodenticide Exp. 332;Tomorin;3-[1-(<em>p</em>-Chlorophenyl)-2-acetylethyl]-4-hydroxycoumarin;Cumachlor;<em>p</em>-Chlorowarfarin;(±)-<em>p</em>-Chlorowarfarin;<span class=\"text-smallcaps\">DL</span>-3-(α-Acetonyl-4-chlorobenzyl)-4-hydroxycoumarin;(±)-Coumachlor;Racemic coumachlor;(±)-3-(α-Acetonyl-4-chlorobenzyl)-4-hydroxy coumarin",
    "duplicated_cas_no": "95041-39-7;128660-48-0",
    "SMILES": "C(CC(C)=O)(C1=C(O)C=2C(OC1=O)=CC=CC2)C3=CC=C(Cl)C=C3",
    "meta_data": {
        "InChI": "InChI=1S/C19H15ClO4/c1-11(21)10-15(12-6-8-13(20)9-7-12)17-18(22)14-4-2-3-5-16(14)24-19(17)23/h2-9,15,22H,10H2,1H3",
        "InChIKey": null,
        "Canonical SMILES": "O=C1OC=2C=CC=CC2C(O)=C1C(C3=CC=C(Cl)C=C3)CC(=O)C",
        "Molecular Formula": "C<sub>19</sub>H<sub>15</sub>ClO<sub>4</sub>",
        "Molecular Mass": "342.77",
        "Melting Point": "169-171 °C"
    }
}