{
    "cas_no": "136849-15-5",
    "key_name": "Cyclosulfamuron",
    "cn_name": "环丙嘧磺隆;1-[2-(环丙酰基)苯基氨基磺酰基]-3-(4,6-二甲氧嘧啶-2-)脲；金秋；环胺磺隆;",
    "alternate_name": "Urea, <em>N</em>-[[[2-(cyclopropylcarbonyl)phenyl]amino]sulfonyl]-<em>N</em>′-(4,6-dimethoxy-2-pyrimidinyl)-;<em>N</em>-[[[2-(Cyclopropylcarbonyl)phenyl]amino]sulfonyl]-<em>N</em>′-(4,6-dimethoxy-2-pyrimidinyl)urea;1-[[<em>o</em>-(Cyclopropylcarbonyl)phenyl]sulfamoyl]-3-(4,6-dimethoxy-2-pyrimidinyl)urea;AC 140;AC 322140;CL 322140;Cyclosulfamuron;AC 014;Sultan;Gopter",
    "duplicated_cas_no": "222169-06-4",
    "SMILES": "C(=O)(C1=C(NS(NC(NC=2N=C(OC)C=C(OC)N2)=O)(=O)=O)C=CC=C1)C3CC3",
    "meta_data": {
        "InChI": "InChI=1S/C17H19N5O6S/c1-27-13-9-14(28-2)19-16(18-13)20-17(24)22-29(25,26)21-12-6-4-3-5-11(12)15(23)10-7-8-10/h3-6,9-10,21H,7-8H2,1-2H3,(H2,18,19,20,22,24)",
        "InChIKey": null,
        "Canonical SMILES": "O=C(NC1=NC(OC)=CC(=N1)OC)NS(=O)(=O)NC=2C=CC=CC2C(=O)C3CC3",
        "Molecular Formula": "C<sub>17</sub>H<sub>19</sub>N<sub>5</sub>O<sub>6</sub>S",
        "Molecular Mass": "421.43",
        "Melting Point": "161.9 °C"
    }
}