{
    "cas_no": "1234616-70-6",
    "key_name": "6-Bromo-2,4-dichloropyrido[2,3-<em>d</em>]pyrimidine",
    "cn_name": null,
    "alternate_name": "Pyrido[2,3-<em>d</em>]pyrimidine, 6-bromo-2,4-dichloro-;6-Bromo-2,4-dichloropyrido[2,3-<em>d</em>]pyrimidine",
    "duplicated_cas_no": "",
    "SMILES": "ClC=1C2=C(N=C(Cl)N1)N=CC(Br)=C2",
    "meta_data": {
        "InChI": "InChI=1S/C7H2BrCl2N3/c8-3-1-4-5(9)12-7(10)13-6(4)11-2-3/h1-2H",
        "InChIKey": null,
        "Canonical SMILES": "ClC=1N=C(Cl)C2=CC(Br)=CN=C2N1",
        "Molecular Formula": "C<sub>7</sub>H<sub>2</sub>BrCl<sub>2</sub>N<sub>3</sub>",
        "Molecular Mass": "278.92",
        "Melting Point": "176-177 °C"
    }
}