{
    "cas_no": "40207-03-2",
    "key_name": "4-(4-Methoxyphenyl)thiosemicarbazide",
    "cn_name": null,
    "alternate_name": "Hydrazinecarbothioamide, <em>N</em>-(4-methoxyphenyl)-;Semicarbazide, 4-(<em>p</em>-methoxyphenyl)-3-thio-;<em>N</em>-(4-Methoxyphenyl)hydrazinecarbothioamide;4-(<em>p</em>-Methoxyphenyl)-3-thiosemicarbazide;4-(<em>p</em>-Methoxyphenyl)thiosemicarbazide;4-(4-Methoxyphenyl)thiosemicarbazide;4-(4-Methoxyphenyl)-3-thiosemicarbazide;NSC 157324;<em>N</em>-(4-Methoxyphenyl)thiosemicarbazide;1-Amino-3-(4-methoxyphenyl)thiourea;3-Amino-1-(4-methoxyphenyl)thiourea",
    "duplicated_cas_no": "2316801-75-7",
    "SMILES": "N(C(NN)=S)C1=CC=C(OC)C=C1",
    "meta_data": {
        "InChI": "InChI=1S/C8H11N3OS/c1-12-7-4-2-6(3-5-7)10-8(13)11-9/h2-5H,9H2,1H3,(H2,10,11,13)",
        "InChIKey": null,
        "Canonical SMILES": "S=C(NN)NC1=CC=C(OC)C=C1",
        "Molecular Formula": "C<sub>8</sub>H<sub>11</sub>N<sub>3</sub>OS",
        "Molecular Mass": "197.26",
        "Melting Point": "154 °C"
    }
}