{
    "cas_no": "14328-62-2",
    "key_name": "Cyclopentaneacetic acid, α-amino-, methyl ester, hydrochloride (1:1), (α<em>S</em>)-",
    "cn_name": null,
    "alternate_name": "Cyclopentaneacetic acid, α-amino-, methyl ester, hydrochloride (1:1), (α<em>S</em>)-;Cyclopentaneacetic acid, α-amino-, methyl ester, hydrochloride, <span class=\"text-smallcaps\">L</span>-;Cyclopentaneacetic acid, α-amino-, methyl ester, hydrochloride, (α<em>S</em>)-;(<em>S</em>)-Methyl 2-amino-2-cyclopentylacetate hydrochloride",
    "duplicated_cas_no": "",
    "SMILES": "[C@H](C(OC)=O)(N)C1CCCC1.Cl",
    "meta_data": {
        "InChI": "InChI=1S/C8H15NO2.ClH/c1-11-8(10)7(9)6-4-2-3-5-6;/h6-7H,2-5,9H2,1H3;1H/t7-;/m0./s1",
        "InChIKey": null,
        "Canonical SMILES": "Cl.O=C(OC)C(N)C1CCCC1",
        "Molecular Formula": "C<sub>8</sub>H<sub>15</sub>NO<sub>2</sub>.ClH",
        "Molecular Mass": "",
        "Melting Point": "177-179 °C"
    }
}