{
    "cas_no": "27532-96-3",
    "key_name": "Glycine tert-butyl ester hydrochloride",
    "cn_name": "甘氨酸叔丁酯盐酸盐;",
    "alternate_name": "Glycine, 1,1-dimethylethyl ester, hydrochloride (1:1);Glycine, 1,1-dimethylethyl ester, hydrochloride;Glycine, <em>tert</em>-butyl ester, hydrochloride;<em>tert</em>-Butylglycinate hydrochloride;Glycine tert-butyl ester hydrochloride;2-Aminoacetic acid <em>tert</em>-butyl ester hydrochloride;1,1-Dimethylethyl glycinate hydrochloride;Glycine tert-butyl ester monohydrochloride;<em>tert</em>-Butyl 2-aminoacetate hydrochloride;<em>tert</em>-Butyl glycine hydrochloride;2-(<em>tert</em>-Butoxy)-2-oxoethan-1-aminium chloride;<em>O</em>-<em>tert</em>-Butyl glycine hydrochloride;Gly-OtBu·HCl",
    "duplicated_cas_no": "",
    "SMILES": "O(C(C)(C)C)C(CN)=O.Cl",
    "meta_data": {
        "InChI": "InChI=1S/C6H13NO2.ClH/c1-6(2,3)9-5(8)4-7;/h4,7H2,1-3H3;1H",
        "InChIKey": null,
        "Canonical SMILES": "Cl.O=C(OC(C)(C)C)CN",
        "Molecular Formula": "C<sub>6</sub>H<sub>13</sub>NO<sub>2</sub>.ClH",
        "Molecular Mass": "",
        "Melting Point": "140-141 °C"
    }
}