{
    "cas_no": "3430-19-1",
    "key_name": "5-Methyl-3-pyridinamine",
    "cn_name": "3-氨基-5-甲基吡啶;5-甲基-3-氨基吡啶;",
    "alternate_name": "3-Pyridinamine, 5-methyl-;3-Picoline, 5-amino-;5-Methyl-3-pyridinamine;3-Amino-5-methylpyridine;(5-Methylpyridin-3-yl)amine;5-Methyl-3-aminopyridine;5-Methylpyridin-3-amine",
    "duplicated_cas_no": "",
    "SMILES": "CC=1C=C(N)C=NC1",
    "meta_data": {
        "InChI": "InChI=1S/C6H8N2/c1-5-2-6(7)4-8-3-5/h2-4H,7H2,1H3",
        "InChIKey": null,
        "Canonical SMILES": "N=1C=C(N)C=C(C1)C",
        "Molecular Formula": "C<sub>6</sub>H<sub>8</sub>N<sub>2</sub>",
        "Molecular Mass": "108.14",
        "Boiling Point": "153 °C @ Press: 21 Torr",
        "Melting Point": "57-59 °C"
    }
}