{
    "cas_no": "145414-76-2",
    "key_name": "6′,7′-Dihydroxybergamottin",
    "cn_name": null,
    "alternate_name": "7<em>H</em>-Furo[3,2-<em>g</em>][1]benzopyran-7-one, 4-[[(2<em>E</em>)-6,7-dihydroxy-3,7-dimethyl-2-octen-1-yl]oxy]-;7<em>H</em>-Furo[3,2-<em>g</em>][1]benzopyran-7-one, 4-[(6,7-dihydroxy-3,7-dimethyl-2-octenyl)oxy]-, (<em>E</em>)-;7<em>H</em>-Furo[3,2-<em>g</em>][1]benzopyran-7-one, 4-[[(2<em>E</em>)-6,7-dihydroxy-3,7-dimethyl-2-octenyl]oxy]-;4-[[(2<em>E</em>)-6,7-Dihydroxy-3,7-dimethyl-2-octen-1-yl]oxy]-7<em>H</em>-furo[3,2-<em>g</em>][1]benzopyran-7-one;6′,7′-Dihydroxybergamottin;Dihydroxybergamottin;6,7-Dihydroxybergagamottin",
    "duplicated_cas_no": "",
    "SMILES": "O(C/C=C(/CCC(C(C)(C)O)O)\\C)C=1C2=C(C=C3C1C=CO3)OC(=O)C=C2",
    "meta_data": {
        "InChI": "InChI=1/C21H24O6/c1-13(4-6-18(22)21(2,3)24)8-10-26-20-14-5-7-19(23)27-17(14)12-16-15(20)9-11-25-16/h5,7-9,11-12,18,22,24H,4,6,10H2,1-3H3/b13-8+",
        "InChIKey": null,
        "Canonical SMILES": "O=C1OC=2C=C3OC=CC3=C(OCC=C(C)CCC(O)C(O)(C)C)C2C=C1",
        "Molecular Formula": "C<sub>21</sub>H<sub>24</sub>O<sub>6</sub>",
        "Molecular Mass": "372.41",
        "Melting Point": "112-113 °C"
    }
}