{
    "cas_no": "32210-23-4",
    "key_name": "4-<em>tert</em>-Butylcyclohexyl acetate",
    "cn_name": null,
    "alternate_name": "Cyclohexanol, 4-(1,1-dimethylethyl)-, 1-acetate;Cyclohexanol, 4-<em>tert</em>-butyl-, acetate;Cyclohexanol, 4-(1,1-dimethylethyl)-, acetate;<em>p</em>-<em>tert</em>-Butylcyclohexyl acetate;4-<em>tert</em>-Butylcyclohexanol acetate;Vertenex;Oryclone;4-<em>tert</em>-Butylcyclohexyl acetate;NSC 163103;Oryclone special;4-(1,1-Dimethylethyl)cyclohexyl acetate;Verbeniax;Madeflor;PTBCHA;Velvetone;Oryclon extra;Vertopol;Vertinate;Ylanate;<em>p</em>-<em>t</em>-BCHA;<em>para</em>-<em>tert</em>-Butylcyclohexyl acetate;Boisinol A 464D;Dorisyl;Lorysia",
    "duplicated_cas_no": "104-05-2;449203-66-1",
    "SMILES": "C(C)(C)(C)C1CCC(OC(C)=O)CC1",
    "meta_data": {
        "InChI": "InChI=1S/C12H22O2/c1-9(13)14-11-7-5-10(6-8-11)12(2,3)4/h10-11H,5-8H2,1-4H3",
        "InChIKey": null,
        "Canonical SMILES": "O=C(OC1CCC(CC1)C(C)(C)C)C",
        "Molecular Formula": "C<sub>12</sub>H<sub>22</sub>O<sub>2</sub>",
        "Molecular Mass": "198.30",
        "Boiling Point": "100-105 °C @ Press: 8 Torr",
        "Density": "0.9429 g/cm³ @ Temp: 15 °C"
    }
}