{
    "cas_no": "2425-95-8",
    "key_name": "2,5-Bis(4-aminophenyl)-1,3,4-oxadiazole",
    "cn_name": "2,5-二(4-氨基苯基)-1,3,4-噁二唑;",
    "alternate_name": "Benzenamine, 4,4′-(1,3,4-oxadiazole-2,5-diyl)bis-;1,3,4-Oxadiazole, 2,5-bis(<em>p</em>-aminophenyl)-;4,4′-(1,3,4-Oxadiazole-2,5-diyl)bis[benzenamine];2,5-Bis(<em>p</em>-aminophenyl)-1,3,4-oxadiazole;2,5-Di(<em>p</em>-aminophenyl)-1,3,4-oxadiazole;2,5-Bis(4-aminophenyl)-1,3,4-oxadiazole;2,5-Bis(4′-aminophenyl)-1,3,4-oxadiazole",
    "duplicated_cas_no": "",
    "SMILES": "NC1=CC=C(C=2OC(=NN2)C3=CC=C(N)C=C3)C=C1",
    "meta_data": {
        "InChI": "InChI=1S/C14H12N4O/c15-11-5-1-9(2-6-11)13-17-18-14(19-13)10-3-7-12(16)8-4-10/h1-8H,15-16H2",
        "InChIKey": null,
        "Canonical SMILES": "N=1N=C(OC1C=2C=CC(N)=CC2)C=3C=CC(N)=CC3",
        "Molecular Formula": "C<sub>14</sub>H<sub>12</sub>N<sub>4</sub>O",
        "Molecular Mass": "252.27",
        "Melting Point": "254-255 °C"
    }
}