{
    "cas_no": "830-43-3",
    "key_name": "4-(Trifluoromethyl)benzenesulfonamide",
    "cn_name": "4-三氟甲基苯磺酰胺;对三氟甲基苯磺酰胺;",
    "alternate_name": "Benzenesulfonamide, 4-(trifluoromethyl)-;<em>p</em>-Toluenesulfonamide, α,α,α-trifluoro-;4-(Trifluoromethyl)benzenesulfonamide;α,α,α-Trifluoro-<em>p</em>-toluenesulfonamide;<em>p</em>-Trifluoromethylbenzenesulfonamide;4-(Trifluoromethyl)phenylsulfonamide",
    "duplicated_cas_no": "",
    "SMILES": "C(F)(F)(F)C1=CC=C(S(N)(=O)=O)C=C1",
    "meta_data": {
        "InChI": "InChI=1S/C7H6F3NO2S/c8-7(9,10)5-1-3-6(4-2-5)14(11,12)13/h1-4H,(H2,11,12,13)",
        "InChIKey": null,
        "Canonical SMILES": "O=S(=O)(N)C1=CC=C(C=C1)C(F)(F)F",
        "Molecular Formula": "C<sub>7</sub>H<sub>6</sub>F<sub>3</sub>NO<sub>2</sub>S",
        "Molecular Mass": "225.19",
        "Melting Point": "181-183 °C"
    }
}