{
    "cas_no": "1068-07-1",
    "key_name": "Diethyl <em>P</em>-octylphosphonate",
    "cn_name": "1-丙基膦酸二乙酯;",
    "alternate_name": "Phosphonic acid, <em>P</em>-octyl-, diethyl ester;Phosphonic acid, octyl-, diethyl ester;Diethyl <em>P</em>-octylphosphonate;Diethyl octylphosphonate;Diethyl octanephosphonate;1-Diethoxyphosphoryloctane",
    "duplicated_cas_no": "",
    "SMILES": "P(CCCCCCCC)(OCC)(OCC)=O",
    "meta_data": {
        "InChI": "InChI=1S/C12H27O3P/c1-4-7-8-9-10-11-12-16(13,14-5-2)15-6-3/h4-12H2,1-3H3",
        "InChIKey": null,
        "Canonical SMILES": "O=P(OCC)(OCC)CCCCCCCC",
        "Molecular Formula": "C<sub>12</sub>H<sub>27</sub>O<sub>3</sub>P",
        "Molecular Mass": "250.31",
        "Boiling Point": "119 °C @ Press: 1.2 Torr",
        "Density": "0.9490 g/cm³ @ Temp: 020 °C"
    }
}