{
    "cas_no": "90-80-2",
    "key_name": "δ-Gluconolactone",
    "cn_name": "葡萄糖酸内酯;",
    "alternate_name": "<span class=\"text-smallcaps\">D</span>-Gluconic acid, δ-lactone;Gluconic acid, δ-lactone, <span class=\"text-smallcaps\">D</span>-;Gluconic acid lactone;Gluconic acid, lactone, <span class=\"text-smallcaps\">D</span>-;<span class=\"text-smallcaps\">D</span>-Glucono-1,5-lactone;<span class=\"text-smallcaps\">D</span>-Gluconic acid 1,5-lactone;1,5-Gluconolactone;δ-Gluconolactone;<span class=\"text-smallcaps\">D</span>-(+)-Gluconic acid δ-lactone;<span class=\"text-smallcaps\">D</span>-Glucono-δ-lactone;<span class=\"text-smallcaps\">D</span>-(+)-Glucono-δ-lactone;<span class=\"text-smallcaps\">D</span>-Gluconic acid lactone;Gluconolactone;Fujiglucon;E 575;<span class=\"text-smallcaps\">D</span>-(+)-Glucono-1,5-lactone;Lysactone;Riken Lactone;<span class=\"text-smallcaps\">D</span>-(+)-Glucose δ-lactone;Glucono-δ-lactone;(3<em>R</em>,4<em>S</em>,5<em>S</em>,6<em>R</em>)-3,4,5-Trihydroxy-6-(hydroxymethyl)tetrahydro-2<em>H</em>-pyran-2-one;1,5-<span class=\"text-smallcaps\">D</span>-Gluconolactone;(3R,4S,5S,6R)-3,4,5-Trihydroxy-6-(hydroxymethyl)oxan-2-one",
    "duplicated_cas_no": "1335-57-5;4253-68-3;71033-49-3;302547-96-2;1020398-69-9;1025765-61-0;1245945-89-4;1542210-74-1",
    "SMILES": "C(O)[C@@H]1[C@@H](O)[C@H](O)[C@@H](O)C(=O)O1",
    "meta_data": {
        "InChI": "InChI=1S/C6H10O6/c7-1-2-3(8)4(9)5(10)6(11)12-2/h2-5,7-10H,1H2/t2-,3-,4+,5-/m1/s1",
        "InChIKey": null,
        "Canonical SMILES": "O=C1OC(CO)C(O)C(O)C1O",
        "Molecular Formula": "C<sub>6</sub>H<sub>10</sub>O<sub>6</sub>",
        "Molecular Mass": "178.14",
        "Melting Point": "153 °C",
        "Density": "1.610 g/cm³ @ Temp: -5 °C"
    }
}