{
    "cas_no": "530-62-1",
    "key_name": "1,1′-Carbonyldiimidazole",
    "cn_name": "N,N\"-羰基二咪唑;",
    "alternate_name": "Methanone, di-1<em>H</em>-imidazol-1-yl-;Imidazole, 1,1′-carbonyldi-;1<em>H</em>-Imidazole, 1,1′-carbonylbis-;Di-1<em>H</em>-imidazol-1-ylmethanone;<em>N</em>,<em>N</em>′-Carbonyldiimidazole;<em>N</em>,<em>N</em>′-Carbonylbis(imidazole);Diimidazol-1-yl ketone;1,1′-Carbonylbisimidazole;1,1′-Carbonylbis-1<em>H</em>-imidazole;1,1′-Carbonyldiimidazole;<em>N</em>,<em>N</em>-Carbonyldiimidazole;1-(1<em>H</em>-Imidazol-1-ylcarbonyl)-1<em>H</em>-imidazole;NSC 67203;Bis(imidazol-1-yl)methanone;Bis(imidazol-1-yl) ketone;Bis(1<em>H</em>-imidazol-1-yl)methanone;1,1-Carbonyldiimidazole;1-(1<em>H</em>-Imidazole-1-carbonyl)-1<em>H</em>-imidazole;Di(imidazol-1-yl)methanone",
    "duplicated_cas_no": "128456-94-0",
    "SMILES": "C(=O)(N1C=CN=C1)N2C=CN=C2",
    "meta_data": {
        "InChI": "InChI=1S/C7H6N4O/c12-7(10-3-1-8-5-10)11-4-2-9-6-11/h1-6H",
        "InChIKey": null,
        "Canonical SMILES": "O=C(N1C=NC=C1)N2C=NC=C2",
        "Molecular Formula": "C<sub>7</sub>H<sub>6</sub>N<sub>4</sub>O",
        "Molecular Mass": "162.15",
        "Melting Point": "119 °C"
    }
}