{
    "cas_no": "3375-31-3",
    "key_name": "Palladium diacetate",
    "cn_name": "醋酸钯;",
    "alternate_name": "Acetic acid, palladium(2+) salt (2:1);Acetic acid, palladium(2+) salt;Palladium acetate (Pd(OAc)<sub>2</sub>);Palladium diacetate;Palladium(2+) acetate;Palladous acetate;Palladium(II) acetate;Palladium acetate (Pd(OCOCH<sub>3</sub>)<sub>2</sub>);Diacetoxypalladium;Bis(acetato)palladium;Acetic acid palladium salt;Diacetatopalladium;Palladium(2+) diacetate;HyCat Base 1;HyCat 1",
    "duplicated_cas_no": "3376-66-7;4854-43-7;24175-85-7;33571-36-7;125089-63-6;138823-54-8;1145835-48-8;1931145-94-6",
    "SMILES": "C(C)(O)=O.[Pd]",
    "meta_data": {
        "InChI": "InChI=1S/C2H4O2.Pd/c1-2(3)4;/h1H3,(H,3,4);",
        "InChIKey": null,
        "Canonical SMILES": "[Pd].O=C(O)C",
        "Molecular Formula": "C<sub>2</sub>H<sub>4</sub>O<sub>2</sub>.<sup>1</sup>/<sub>2</sub>Pd",
        "Molecular Mass": "",
        "Melting Point": "101-103 °C"
    }
}