{
    "cas_no": "1912-30-7",
    "key_name": "Ethyl ethanesulfonate",
    "cn_name": null,
    "alternate_name": "Ethanesulfonic acid, ethyl ester;Ethyl ethanesulfonate;Ethyl ethyl sulfonate",
    "duplicated_cas_no": "",
    "SMILES": "S(OCC)(CC)(=O)=O",
    "meta_data": {
        "InChI": "InChI=1S/C4H10O3S/c1-3-7-8(5,6)4-2/h3-4H2,1-2H3",
        "InChIKey": null,
        "Canonical SMILES": "O=S(=O)(OCC)CC",
        "Molecular Formula": "C<sub>4</sub>H<sub>10</sub>O<sub>3</sub>S",
        "Molecular Mass": "138.19",
        "Boiling Point": "157 °C @ Press: 763 Torr",
        "Melting Point": "100-101 °C",
        "Density": "1.0829 g/cm³ @ Temp: 20 °C"
    }
}