{
    "cas_no": "18401-43-9",
    "key_name": "5-Triethoxysilyl-2-norbornene",
    "cn_name": "二环[2.2.1]-5-庚烯-2-基三乙氧基硅烷;",
    "alternate_name": "Bicyclo[2.2.1]hept-2-ene, 5-(triethoxysilyl)-;Silane, triethoxy-5-norbornen-2-yl-;Silane, bicyclo[2.2.1]hept-5-en-2-yltriethoxy-;5-(Triethoxysilyl)bicyclo[2.2.1]hept-2-ene;5-(Triethoxysilyl)norbornene;5-Triethoxysilyl-2-norbornene;SIB 0992;2-(Triethoxysilyl)bicyclo[2.2.1]hept-5-ene;5-Triethoxysilylbicyclo[2.2.1]hept-2-ene;LS 5080;(Bicyclo[2.2.1]hept-5-en-2-yl)triethoxysilane",
    "duplicated_cas_no": "",
    "SMILES": "[Si](OCC)(OCC)(OCC)C1C2CC(C1)C=C2",
    "meta_data": {
        "InChI": "InChI=1S/C13H24O3Si/c1-4-14-17(15-5-2,16-6-3)13-10-11-7-8-12(13)9-11/h7-8,11-13H,4-6,9-10H2,1-3H3",
        "InChIKey": null,
        "Canonical SMILES": "O(CC)[Si](OCC)(OCC)C1CC2C=CC1C2",
        "Molecular Formula": "C<sub>13</sub>H<sub>24</sub>O<sub>3</sub>Si",
        "Molecular Mass": "256.41",
        "Boiling Point": "106-108 °C @ Press: 8 Torr",
        "Density": "0.960 g/cm³"
    }
}