{
    "cas_no": "537-73-5",
    "key_name": "Isoferulic acid",
    "cn_name": "3-羟基-4-甲氧基肉桂酸;",
    "alternate_name": "2-Propenoic acid, 3-(3-hydroxy-4-methoxyphenyl)-;Cinnamic acid, 3-hydroxy-4-methoxy-;3-(3-Hydroxy-4-methoxyphenyl)-2-propenoic acid;Hesperetic acid;Isoferulic acid;3-Hydroxy-4-methoxycinnamic acid;NSC 51987;4-Methoxycaffeic acid;4-<em>O</em>-Methylcaffeic acid",
    "duplicated_cas_no": "",
    "SMILES": "C(=CC(O)=O)C1=CC(O)=C(OC)C=C1",
    "meta_data": {
        "InChI": "InChI=1S/C10H10O4/c1-14-9-4-2-7(6-8(9)11)3-5-10(12)13/h2-6,11H,1H3,(H,12,13)",
        "InChIKey": null,
        "Canonical SMILES": "O=C(O)C=CC1=CC=C(OC)C(O)=C1",
        "Molecular Formula": "C<sub>10</sub>H<sub>10</sub>O<sub>4</sub>",
        "Molecular Mass": "194.18",
        "Melting Point": "228 °C"
    }
}