{
    "cas_no": "289-80-5",
    "key_name": "Pyridazine",
    "cn_name": "哒嗪;",
    "alternate_name": "Pyridazine;1,2-Diazabenzene;1,2-Diazine;<em>o</em>-Diazine;NSC 90792",
    "duplicated_cas_no": "",
    "SMILES": "C=1C=CN=NC1",
    "meta_data": {
        "InChI": "InChI=1S/C4H4N2/c1-2-4-6-5-3-1/h1-4H",
        "InChIKey": null,
        "Canonical SMILES": "N=1N=CC=CC1",
        "Molecular Formula": "C<sub>4</sub>H<sub>4</sub>N<sub>2</sub>",
        "Molecular Mass": "80.09",
        "Boiling Point": "208 °C",
        "Melting Point": "-8 °C",
        "Density": "1.10535 g/cm³ @ Temp: 20 °C"
    }
}