{
    "cas_no": "131211-27-3",
    "key_name": "Di-1-adamantylphosphine",
    "cn_name": null,
    "alternate_name": "Phosphine, bis(tricyclo[3.3.1.1<sup>3,7</sup>]dec-1-yl)-;Bis(tricyclo[3.3.1.1<sup>3,7</sup>]dec-1-yl)phosphine;Di-1-adamantylphosphine;Diadamantylphosphine;Bis(adamant-1-yl)phosphine",
    "duplicated_cas_no": "",
    "SMILES": "P(C12CC3CC(C1)CC(C2)C3)C45CC6CC(C4)CC(C5)C6",
    "meta_data": {
        "InChI": "InChI=1S/C20H31P/c1-13-2-15-3-14(1)8-19(7-13,9-15)21-20-10-16-4-17(11-20)6-18(5-16)12-20/h13-18,21H,1-12H2",
        "InChIKey": null,
        "Canonical SMILES": "P(C12CC3CC(CC(C3)C1)C2)C45CC6CC(CC(C6)C4)C5",
        "Molecular Formula": "C<sub>20</sub>H<sub>31</sub>P",
        "Molecular Mass": "302.43",
        "Melting Point": "174-176 °C"
    }
}