{
    "cas_no": "594-36-5",
    "key_name": "2-Chloro-2-methylbutane",
    "cn_name": "2-氯-2-甲基丁烷;氯代叔戊烷;叔戊基氯;",
    "alternate_name": "Butane, 2-chloro-2-methyl-;2-Chloro-2-methylbutane;<em>tert</em>-Pentyl chloride;<em>tert</em>-Amyl chloride;1,1-Dimethylpropyl chloride;2-Methyl-2-chlorobutane;NSC 7900;1,1-Dimethyl-chloropropane",
    "duplicated_cas_no": "",
    "SMILES": "C(CC)(C)(C)Cl",
    "meta_data": {
        "InChI": "InChI=1S/C5H11Cl/c1-4-5(2,3)6/h4H2,1-3H3",
        "InChIKey": null,
        "Canonical SMILES": "ClC(C)(C)CC",
        "Molecular Formula": "C<sub>5</sub>H<sub>11</sub>Cl",
        "Molecular Mass": "106.59",
        "Boiling Point": "85.5 °C",
        "Melting Point": "-73.5 °C",
        "Density": "0.8709 g/cm³"
    }
}