{
    "cas_no": "608-34-4",
    "key_name": "3-Methyluracil",
    "cn_name": null,
    "alternate_name": "2,4(1<em>H</em>,3<em>H</em>)-Pyrimidinedione, 3-methyl-;Uracil, 3-methyl-;3-Methyl-2,4(1<em>H</em>,3<em>H</em>)-pyrimidinedione;3-Methyluracil;NSC 45626;3-Methyl-1<em>H</em>-pyrimidine-2,4-dione;3-Methyl-1,2,3,4-tetrahydropyrimidine-2,4-dione",
    "duplicated_cas_no": "",
    "SMILES": "CN1C(=O)C=CNC1=O",
    "meta_data": {
        "InChI": "InChI=1S/C5H6N2O2/c1-7-4(8)2-3-6-5(7)9/h2-3H,1H3,(H,6,9)",
        "InChIKey": null,
        "Canonical SMILES": "O=C1C=CNC(=O)N1C",
        "Molecular Formula": "C<sub>5</sub>H<sub>6</sub>N<sub>2</sub>O<sub>2</sub>",
        "Molecular Mass": "126.11",
        "Melting Point": "223-226 °C"
    }
}