{
    "cas_no": "563-80-4",
    "key_name": "3-Methyl-2-butanone",
    "cn_name": "3-甲基-2-丁酮;甲基异丙基甲酮;",
    "alternate_name": "2-Butanone, 3-methyl-;3-Methyl-2-butanone;Isopropyl methyl ketone;Methyl isopropyl ketone;2-Acetylpropane;2-Methylbutan-3-one;NSC 9379;MIPK",
    "duplicated_cas_no": "52325-52-7",
    "SMILES": "C(C(C)=O)(C)C",
    "meta_data": {
        "InChI": "InChI=1S/C5H10O/c1-4(2)5(3)6/h4H,1-3H3",
        "InChIKey": null,
        "Canonical SMILES": "O=C(C)C(C)C",
        "Molecular Formula": "C<sub>5</sub>H<sub>10</sub>O",
        "Molecular Mass": "86.13",
        "Boiling Point": "93 °C",
        "Melting Point": "-92 °C",
        "Density": "0.80 g/cm³"
    }
}