{
    "cas_no": "4291-63-8",
    "key_name": "Cladribine",
    "cn_name": "克拉利宾;克拉曲滨;2-氯-2\"-脱氧腺苷;2-氯-2\"-脱氧腺甙;",
    "alternate_name": "Adenosine, 2-chloro-2′-deoxy-;2-Chloro-2′-deoxyadenosine;2-Chloro-2′-deoxy-β-adenosine;2-Chloro-6-amino-9-(2-deoxy-β-<span class=\"text-smallcaps\">D</span>-<em>erythro</em>-pentofuranosyl)purine;2-Chlorodeoxyadenosine;NSC 105014-F;Cladribine;RWJ 26251;Leustatin;2-CdA;Cladarabine;NSC 105014;CldAdo;Jk 6251;Biodribin;Leustat;(2R,3S,5R)-5-(6-Amino-2-chloropurin-9-yl)-2-(hydroxymethyl)oxolan-3-ol;Vero-Cladribine;Mavenclad;Litak;MeSH ID: D017338",
    "duplicated_cas_no": "24757-90-2;2415265-73-3",
    "SMILES": "NC1=C2C(N(C=N2)[C@@H]3O[C@H](CO)[C@@H](O)C3)=NC(Cl)=N1",
    "meta_data": {
        "InChI": "InChI=1S/C10H12ClN5O3/c11-10-14-8(12)7-9(15-10)16(3-13-7)6-1-4(18)5(2-17)19-6/h3-6,17-18H,1-2H2,(H2,12,14,15)/t4-,5+,6+/m0/s1",
        "InChIKey": null,
        "Canonical SMILES": "ClC=1N=C(N)C=2N=CN(C2N1)C3OC(CO)C(O)C3",
        "Molecular Formula": "C<sub>10</sub>H<sub>12</sub>ClN<sub>5</sub>O<sub>3</sub>",
        "Molecular Mass": "285.69",
        "Melting Point": "208-210 °C"
    }
}