{
    "cas_no": "7783-54-2",
    "key_name": "Nitrogen trifluoride",
    "cn_name": "三氟化氮;",
    "alternate_name": "Nitrogen fluoride (NF<sub>3</sub>);Nitrogen trifluoride;Perfluoroammonia;Trifluoroammonia;Trifluoroamine",
    "duplicated_cas_no": "",
    "SMILES": "N(F)(F)F",
    "meta_data": {
        "InChI": "InChI=1S/F3N/c1-4(2)3",
        "InChIKey": null,
        "Canonical SMILES": "FN(F)F",
        "Molecular Formula": "F<sub>3</sub>N",
        "Molecular Mass": "71.00",
        "Boiling Point": "-129 °C",
        "Melting Point": "-208.5 °C",
        "Density": "1.92 g/cm³ @ Temp: -216.7 °C"
    }
}