{
    "cas_no": "1195-98-8",
    "key_name": "α,α-Dimethylbenzeneacetonitrile",
    "cn_name": "2-甲基-2-苯基丙腈;",
    "alternate_name": "Benzeneacetonitrile, α,α-dimethyl-;Hydratroponitrile, α-methyl-;α,α-Dimethylbenzeneacetonitrile;α-Phenylisobutyronitrile;α-Phenyl-α-methylpropionitrile;2-Methyl-2-phenylpropionitrile;Dimethylphenylacetonitrile;α,α-Dimethylbenzyl cyanide;2-Phenylisobutyronitrile;2-Methyl-2-phenylpropanenitrile",
    "duplicated_cas_no": "",
    "SMILES": "C(C#N)(C)(C)C1=CC=CC=C1",
    "meta_data": {
        "InChI": "InChI=1S/C10H11N/c1-10(2,8-11)9-6-4-3-5-7-9/h3-7H,1-2H3",
        "InChIKey": null,
        "Canonical SMILES": "N#CC(C=1C=CC=CC1)(C)C",
        "Molecular Formula": "C<sub>10</sub>H<sub>11</sub>N",
        "Molecular Mass": "145.20",
        "Boiling Point": "114-116 °C @ Press: 20 Torr"
    }
}