{
    "cas_no": "539-48-0",
    "key_name": "<em>p</em>-Xylylenediamine",
    "cn_name": "1,4-苯二甲胺;对苯二甲胺;",
    "alternate_name": "1,4-Benzenedimethanamine;<em>p</em>-Xylene-α,α′-diamine;<em>p</em>-Xylylenediamine;4-Aminomethylbenzylamine;1,4-Xylylenediamine;<em>p</em>-Bis(aminomethyl)benzene;1,4-Bis(aminomethyl)benzene;<em>p</em>-Phenylenedi(methylamine);α,α′-Diamino-<em>p</em>-xylene;Euredur 14;<em>p</em>-Aminomethylbenzylamine;Shoamine P;PXDA;1,4-Phenylenedimethanamine;<em>p</em>-Xylene diamine;[4-(Aminomethyl)phenyl]methanamine;1,4-Di(aminomethyl)benzene",
    "duplicated_cas_no": "",
    "SMILES": "C(N)C1=CC=C(CN)C=C1",
    "meta_data": {
        "InChI": "InChI=1S/C8H12N2/c9-5-7-1-2-8(6-10)4-3-7/h1-4H,5-6,9-10H2",
        "InChIKey": null,
        "Canonical SMILES": "NCC1=CC=C(C=C1)CN",
        "Molecular Formula": "C<sub>8</sub>H<sub>12</sub>N<sub>2</sub>",
        "Molecular Mass": "136.19",
        "Boiling Point": "111 °C @ Press: 2 Torr",
        "Melting Point": "63 °C"
    }
}