{
    "cas_no": "4300-97-4",
    "key_name": "3-Chloro-2,2-dimethylpropanoyl chloride",
    "cn_name": "氯代特戊酰氯;",
    "alternate_name": "Propanoyl chloride, 3-chloro-2,2-dimethyl-;Propionyl chloride, 3-chloro-2,2-dimethyl-;3-Chloro-2,2-dimethylpropanoyl chloride;β-Chloro-α,α-dimethylpropionyl chloride;3-Chloro-2,2-dimethylpropionyl chloride;β-Chloropivaloyl chloride;β-Chloropivalic acid chloride;3-Chloropivaloyl chloride;Chloropivaloyl chloride;2,2-Dimethyl-3-chloropropionyl chloride;3-Chloro-2,2-dimethylpropionoyl chloride",
    "duplicated_cas_no": "106847-57-8",
    "SMILES": "C(C(Cl)=O)(CCl)(C)C",
    "meta_data": {
        "InChI": "InChI=1S/C5H8Cl2O/c1-5(2,3-6)4(7)8/h3H2,1-2H3",
        "InChIKey": null,
        "Canonical SMILES": "O=C(Cl)C(C)(C)CCl",
        "Molecular Formula": "C<sub>5</sub>H<sub>8</sub>Cl<sub>2</sub>O",
        "Molecular Mass": "155.02",
        "Boiling Point": "110-112 °C @ Press: 760 Torr"
    }
}