{
    "cas_no": "10416-59-8",
    "key_name": "<em>N</em>,<em>O</em>-Bis(trimethylsilyl)acetamide",
    "cn_name": "N,O-双三甲硅基乙酰胺;",
    "alternate_name": "Ethanimidic acid, <em>N</em>-(trimethylsilyl)-, trimethylsilyl ester;Acetimidic acid, <em>N</em>-(trimethylsilyl)-, trimethylsilyl ester;<em>N</em>,<em>O</em>-Bis(trimethylsilyl)acetamide;BSA;Bis(trimethylsilyl)acetamide;BSiA;Bis(trimethylsilyl)acetimidate;<em>O</em>,<em>N</em>-Bis(trimethylsilyl)acetamide;LS 7270;<em>N</em>-(Trimethylsilyl)ethanimidic acid trimethylsilyl ester;<em>N</em>-(Trimethylsilyl)acetimidic acid trimethylsilyl ester;Dynasylan BSA;<em>N</em>,<em>O</em>-Di(trimethylsilyl)acetamide;<em>N</em>,<em>O</em>-Bis-trimethylsilylacetoamide",
    "duplicated_cas_no": "",
    "SMILES": "N([Si](C)(C)C)=C(O[Si](C)(C)C)C",
    "meta_data": {
        "InChI": "InChI=1S/C8H21NOSi2/c1-8(9-11(2,3)4)10-12(5,6)7/h1-7H3",
        "InChIKey": null,
        "Canonical SMILES": "N(=C(O[Si](C)(C)C)C)[Si](C)(C)C",
        "Molecular Formula": "C<sub>8</sub>H<sub>21</sub>NOSi<sub>2</sub>",
        "Molecular Mass": "203.43",
        "Boiling Point": "71-73 °C @ Press: 35 Torr",
        "Melting Point": "-24 °C",
        "Density": "0.832 g/cm³"
    }
}