{
    "cas_no": "2923-96-8",
    "key_name": "4-Fluoro-2-nitrobenzaldehyde",
    "cn_name": "4-氟-2-硝基苯甲醛;",
    "alternate_name": "Benzaldehyde, 4-fluoro-2-nitro-;4-Fluoro-2-nitrobenzaldehyde;NSC 96890;2-Nitro-4-fluorobenzaldehyde",
    "duplicated_cas_no": "",
    "SMILES": "N(=O)(=O)C1=C(C=O)C=CC(F)=C1",
    "meta_data": {
        "InChI": "InChI=1S/C7H4FNO3/c8-6-2-1-5(4-10)7(3-6)9(11)12/h1-4H",
        "InChIKey": null,
        "Canonical SMILES": "O=CC1=CC=C(F)C=C1N(=O)=O",
        "Molecular Formula": "C<sub>7</sub>H<sub>4</sub>FNO<sub>3</sub>",
        "Molecular Mass": "169.11",
        "Melting Point": "32-33 °C"
    }
}