{
    "cas_no": "830-79-5",
    "key_name": "2,4,6-Trimethoxybenzaldehyde",
    "cn_name": "2,4,6-三甲氧基苯甲醛;",
    "alternate_name": "Benzaldehyde, 2,4,6-trimethoxy-;2,4,6-Trimethoxybenzaldehyde",
    "duplicated_cas_no": "",
    "SMILES": "C(=O)C1=C(OC)C=C(OC)C=C1OC",
    "meta_data": {
        "InChI": "InChI=1S/C10H12O4/c1-12-7-4-9(13-2)8(6-11)10(5-7)14-3/h4-6H,1-3H3",
        "InChIKey": null,
        "Canonical SMILES": "O=CC=1C(OC)=CC(OC)=CC1OC",
        "Molecular Formula": "C<sub>10</sub>H<sub>12</sub>O<sub>4</sub>",
        "Molecular Mass": "196.20",
        "Melting Point": "120-121 °C"
    }
}