{
    "cas_no": "4074-25-3",
    "key_name": "1,3,5-Tris(1,1-dimethylethyl)-2-nitrobenzene",
    "cn_name": null,
    "alternate_name": "Benzene, 1,3,5-tris(1,1-dimethylethyl)-2-nitro-;Benzene, 1,3,5-tri-<em>tert</em>-butyl-2-nitro-;1,3,5-Tris(1,1-dimethylethyl)-2-nitrobenzene;1,3,5-Tri-<em>tert</em>-butyl-2-nitrobenzene;2,4,6-Tri-<em>tert</em>-butyl-1-nitrobenzene;2,4,6-Tri-<em>tert</em>-butylnitrobenzene;1,3,5-Tritert-butyl-2-nitrobenzene",
    "duplicated_cas_no": "",
    "SMILES": "N(=O)(=O)C1=C(C(C)(C)C)C=C(C(C)(C)C)C=C1C(C)(C)C",
    "meta_data": {
        "InChI": "InChI=1S/C18H29NO2/c1-16(2,3)12-10-13(17(4,5)6)15(19(20)21)14(11-12)18(7,8)9/h10-11H,1-9H3",
        "InChIKey": null,
        "Canonical SMILES": "O=N(=O)C=1C(=CC(=CC1C(C)(C)C)C(C)(C)C)C(C)(C)C",
        "Molecular Formula": "C<sub>18</sub>H<sub>29</sub>NO<sub>2</sub>",
        "Molecular Mass": "291.43",
        "Melting Point": "204-205 °C"
    }
}