{
    "cas_no": "25777-14-4",
    "key_name": "Butanedioic acid, polymer with 1,4-butanediol",
    "cn_name": null,
    "alternate_name": "Butanedioic acid, polymer with 1,4-butanediol;Succinic acid, polyester with 1,4-butanediol;1,4-Butanediol, polyester with succinic acid;1,4-Butanediol, polymer with butanedioic acid;Poly(tetramethylene succinate);1,4-Butanediol-succinic acid polymer;1,4-Butanediol-succinic acid copolymer;1,4-Butylene glycol-succinic acid copolymer;Butylene glycol-succinic acid copolymer;Succinic acid-1,4-butanediol copolymer;Butanedioic acid-1,4-butanediol copolymer;1,4-Butanedioic acid-1,4-butanediol copolymer;Succinic acid-butylene glycol copolymer;1,4-Butanediol-1,4-butanedioic acid copolymer",
    "duplicated_cas_no": "1783801-88-6",
    "SMILES": "C(CCO)CO.C(CC(O)=O)C(O)=O",
    "meta_data": {
        "InChI": "InChI=1S/C4H6O4.C4H10O2/c5-3(6)1-2-4(7)8;5-3-1-2-4-6/h1-2H2,(H,5,6)(H,7,8);5-6H,1-4H2",
        "InChIKey": null,
        "Canonical SMILES": "O=C(O)CCC(=O)O.OCCCCO",
        "Molecular Formula": "(C<sub>4</sub>H<sub>10</sub>O<sub>2</sub>.C<sub>4</sub>H<sub>6</sub>O<sub>4</sub>)<sub>x</sub>",
        "Molecular Mass": "",
        "Melting Point": "110-115 °C",
        "Density": "1.26 g/cm³"
    }
}