{
    "cas_no": "612-25-9",
    "key_name": "2-Nitrobenzyl alcohol",
    "cn_name": "邻硝基苯甲醇;2-硝基苯甲醇;",
    "alternate_name": "Benzenemethanol, 2-nitro-;Benzyl alcohol, <em>o</em>-nitro-;2-Nitrobenzenemethanol;<em>o</em>-Nitrobenzyl alcohol;2-Nitrobenzyl alcohol;<em>o</em>-(Hydroxymethyl)nitrobenzene;NSC 66512;(2-Nitrophenyl)methanol",
    "duplicated_cas_no": "185533-00-0",
    "SMILES": "C(O)C1=C(N(=O)=O)C=CC=C1",
    "meta_data": {
        "InChI": "InChI=1S/C7H7NO3/c9-5-6-3-1-2-4-7(6)8(10)11/h1-4,9H,5H2",
        "InChIKey": null,
        "Canonical SMILES": "O=N(=O)C=1C=CC=CC1CO",
        "Molecular Formula": "C<sub>7</sub>H<sub>7</sub>NO<sub>3</sub>",
        "Molecular Mass": "153.14",
        "Boiling Point": "270 °C",
        "Melting Point": "74 °C"
    }
}