{
    "cas_no": "43200-80-2",
    "key_name": "Zopiclone",
    "cn_name": "佐匹克隆;(5RS)-6-(5-氯吡啶-2-基)-7-[(4-甲基哌嗪-1-基)羰氧基]-5,6-二氢吡咯并[3,4-b]吡嗪-5-酮;",
    "alternate_name": "1-Piperazinecarboxylic acid, 4-methyl-, 6-(5-chloro-2-pyridinyl)-6,7-dihydro-7-oxo-5<em>H</em>-pyrrolo[3,4-<em>b</em>]pyrazin-5-yl ester;5<em>H</em>-Pyrrolo[3,4-<em>b</em>]pyrazine, 1-piperazinecarboxylic acid deriv.;Zopiclone;RP 27267;Imovane;(±)-Zopiclone;Amoban;Zimovane;Amovane;Sopivan;Imovance;Hypnor;Imoclone",
    "duplicated_cas_no": "138680-07-6",
    "SMILES": "O(C(=O)N1CCN(C)CC1)C2N(C(=O)C=3C2=NC=CN3)C4=CC=C(Cl)C=N4",
    "meta_data": {
        "InChI": "InChI=1S/C17H17ClN6O3/c1-22-6-8-23(9-7-22)17(26)27-16-14-13(19-4-5-20-14)15(25)24(16)12-3-2-11(18)10-21-12/h2-5,10,16H,6-9H2,1H3",
        "InChIKey": null,
        "Canonical SMILES": "O=C(OC1C2=NC=CN=C2C(=O)N1C3=NC=C(Cl)C=C3)N4CCN(C)CC4",
        "Molecular Formula": "C<sub>17</sub>H<sub>17</sub>ClN<sub>6</sub>O<sub>3</sub>",
        "Molecular Mass": "388.81",
        "Melting Point": "178 °C"
    }
}