{
    "cas_no": "23163-86-2",
    "key_name": "1-Chloro-4-isothiocyanato-2-(trifluoromethyl)benzene",
    "cn_name": "4-氯-3-三氟甲基苯基硫代异氰酸酯;",
    "alternate_name": "Benzene, 1-chloro-4-isothiocyanato-2-(trifluoromethyl)-;Isothiocyanic acid, 4-chloro-α,α,α-trifluoro-<em>m</em>-tolyl ester;1-Chloro-4-isothiocyanato-2-(trifluoromethyl)benzene;4-Chloro-3-(trifluoromethyl)phenyl isothiocyanate",
    "duplicated_cas_no": "",
    "SMILES": "C(F)(F)(F)C1=CC(N=C=S)=CC=C1Cl",
    "meta_data": {
        "InChI": "InChI=1S/C8H3ClF3NS/c9-7-2-1-5(13-4-14)3-6(7)8(10,11)12/h1-3H",
        "InChIKey": null,
        "Canonical SMILES": "FC(F)(F)C1=CC(N=C=S)=CC=C1Cl",
        "Molecular Formula": "C<sub>8</sub>H<sub>3</sub>ClF<sub>3</sub>NS",
        "Molecular Mass": "237.63",
        "Boiling Point": "115 °C @ Press: 12 Torr"
    }
}