{
    "cas_no": "57946-63-1",
    "key_name": "2-Bromo-4-trifluoromethylaniline",
    "cn_name": "4-氨基-3-溴三氟甲苯;2-溴-4-三氟甲基苯胺;3-溴-4-氨基三氟甲苯;",
    "alternate_name": "Benzenamine, 2-bromo-4-(trifluoromethyl)-;2-Bromo-4-(trifluoromethyl)benzenamine;2-Bromo-4-trifluoromethylaniline;3-Bromo-4-aminobenzotrifluoride;2-Bromo-4-trifluoromethylphenylamine;4-Trifluoromethyl-2-bromoaniline;4-Amino-3-bromobenzotrifluoride",
    "duplicated_cas_no": "",
    "SMILES": "C(F)(F)(F)C1=CC(Br)=C(N)C=C1",
    "meta_data": {
        "InChI": "InChI=1S/C7H5BrF3N/c8-5-3-4(7(9,10)11)1-2-6(5)12/h1-3H,12H2",
        "InChIKey": null,
        "Canonical SMILES": "FC(F)(F)C1=CC=C(N)C(Br)=C1",
        "Molecular Formula": "C<sub>7</sub>H<sub>5</sub>BrF<sub>3</sub>N",
        "Molecular Mass": "240.02",
        "Melting Point": "34-35 °C"
    }
}