{
    "cas_no": "118-78-5",
    "key_name": "5-Amino-2,4,6(1<em>H</em>,3<em>H</em>,5<em>H</em>)-pyrimidinetrione",
    "cn_name": "2-氨基巴比土酸;2-氨基丙二酰脲;",
    "alternate_name": "2,4,6(1<em>H</em>,3<em>H</em>,5<em>H</em>)-Pyrimidinetrione, 5-amino-;Barbituric acid, 5-amino-;Uramil;2,4,6-Pyrimidinetriol, 5-amino-;5-Amino-2,4,6(1<em>H</em>,3<em>H</em>,5<em>H</em>)-pyrimidinetrione;5-Aminobarbituric acid;Dialuramide;5-Amino-2,4,6-pyrimidinetriol;Murexan;5-Amino-2,4,6-trihydroxypyrimidine;5-Amino-6-hydroxy-2,4(1<em>H</em>,3<em>H</em>)-pyrimidinedione;Aminobarbituric acid;NSC 264287;NSC 3971",
    "duplicated_cas_no": "69340-99-4;133973-89-4;156861-96-0;952004-40-9",
    "SMILES": "NC1C(=O)NC(=O)NC1=O",
    "meta_data": {
        "InChI": "InChI=1S/C4H5N3O3/c5-1-2(8)6-4(10)7-3(1)9/h1H,5H2,(H2,6,7,8,9,10)",
        "InChIKey": null,
        "Canonical SMILES": "O=C1NC(=O)C(N)C(=O)N1",
        "Molecular Formula": "C<sub>4</sub>H<sub>5</sub>N<sub>3</sub>O<sub>3</sub>",
        "Molecular Mass": "143.10",
        "Melting Point": "&gt;400 °C"
    }
}