{
    "cas_no": "1074-99-3",
    "key_name": "2,4-Dimethyl-5-nitropyridine",
    "cn_name": "2,4-二甲基-5-硝基吡啶;",
    "alternate_name": "Pyridine, 2,4-dimethyl-5-nitro-;2,4-Lutidine, 5-nitro-;2,4-Dimethyl-5-nitropyridine",
    "duplicated_cas_no": "",
    "SMILES": "N(=O)(=O)C=1C(C)=CC(C)=NC1",
    "meta_data": {
        "InChI": "InChI=1S/C7H8N2O2/c1-5-3-6(2)8-4-7(5)9(10)11/h3-4H,1-2H3",
        "InChIKey": null,
        "Canonical SMILES": "O=N(=O)C1=CN=C(C=C1C)C",
        "Molecular Formula": "C<sub>7</sub>H<sub>8</sub>N<sub>2</sub>O<sub>2</sub>",
        "Molecular Mass": "152.15",
        "Boiling Point": "135-140 °C @ Press: 12 Torr",
        "Melting Point": "20.5 °C"
    }
}