{
    "cas_no": "979-92-0",
    "key_name": "Adenosylhomocysteine",
    "cn_name": null,
    "alternate_name": "<span class=\"text-smallcaps\">L</span>-Homocysteine, <em>S</em>-(5′-deoxyadenosin-5′-yl)-;Adenosine, 5′-<em>S</em>-(3-amino-3-carboxypropyl)-5′-thio-, <span class=\"text-smallcaps\">L</span>-;Homocysteine, <em>S</em>-adenosyl-, <span class=\"text-smallcaps\">L</span>-;<em>S</em>-(5′-Deoxyadenosin-5′-yl)-<span class=\"text-smallcaps\">L</span>-homocysteine;Adenosylhomocysteine;<em>S</em>-Adenosylhomocysteine;Adenosyl-<span class=\"text-smallcaps\">L</span>-homocysteine;<em>S</em>-Adenosyl-<span class=\"text-smallcaps\">L</span>-homocysteine;<span class=\"text-smallcaps\">L</span>-<em>S</em>-Adenosylhomocysteine;<em>S</em>-(5′-Adenosyl)-<span class=\"text-smallcaps\">L</span>-homocysteine;SAH;SAH (S-Adenosylhomocysteine)",
    "duplicated_cas_no": "120220-04-4;15519-61-6;21593-56-6;22620-01-5;361436-44-4",
    "SMILES": "O[C@H]1[C@H](N2C=3C(N=C2)=C(N)N=CN3)O[C@H](CSCC[C@@H](C(O)=O)N)[C@H]1O",
    "meta_data": {
        "InChI": "InChI=1S/C14H20N6O5S/c15-6(14(23)24)1-2-26-3-7-9(21)10(22)13(25-7)20-5-19-8-11(16)17-4-18-12(8)20/h4-7,9-10,13,21-22H,1-3,15H2,(H,23,24)(H2,16,17,18)/t6-,7+,9+,10+,13+/m0/s1",
        "InChIKey": null,
        "Canonical SMILES": "O=C(O)C(N)CCSCC1OC(N2C=NC=3C(=NC=NC32)N)C(O)C1O",
        "Molecular Formula": "C<sub>14</sub>H<sub>20</sub>N<sub>6</sub>O<sub>5</sub>S",
        "Molecular Mass": "384.41",
        "Melting Point": "209-211 °C"
    }
}