{
    "cas_no": "13071-11-9",
    "key_name": "(+)-Propranolol hydrochloride",
    "cn_name": null,
    "alternate_name": "2-Propanol, 1-[(1-methylethyl)amino]-3-(1-naphthalenyloxy)-, hydrochloride (1:1), (2<em>R</em>)-;2-Propanol, 1-(isopropylamino)-3-(1-naphthyloxy)-, hydrochloride, (+)-;2-Propanol, 1-[(1-methylethyl)amino]-3-(1-naphthalenyloxy)-, hydrochloride, (<em>R</em>)-;2-Propanol, 1-[(1-methylethyl)amino]-3-(1-naphthalenyloxy)-, hydrochloride, (2<em>R</em>)-;(+)-Propranolol hydrochloride;<em>d</em>-Propranolol hydrochloride;(+)-1-(Isopropylamino)-3-(1-naphthyloxy)-2-propanol hydrochloride;Dexpropranolol hydrochloride;AY 20694;<em>R</em>-(+)-1-Isopropylamino-3-(1-naphthoxy)-2-propanol hydrochloride;ICI 47319;<em>d</em>-Anapriline;(<em>R</em>)-(+)-Propranolol hydrochloride;(<em>R</em>)-Propranolol hydrochloride;(+)-Anapriline;(R)-1-(Isopropylamino)-3-(naphthalen-1-yloxy)propan-2-ol hydrochloride;(+)-(R)-1-(Isopropylamino)-3-(1-naphthyloxy)-2-propanol hydrochloride",
    "duplicated_cas_no": "",
    "SMILES": "O(C[C@@H](CNC(C)C)O)C=1C2=C(C=CC1)C=CC=C2.Cl",
    "meta_data": {
        "InChI": "InChI=1S/C16H21NO2.ClH/c1-12(2)17-10-14(18)11-19-16-9-5-7-13-6-3-4-8-15(13)16;/h3-9,12,14,17-18H,10-11H2,1-2H3;1H/t14-;/m1./s1",
        "InChIKey": null,
        "Canonical SMILES": "Cl.OC(COC1=CC=CC=2C=CC=CC12)CNC(C)C",
        "Molecular Formula": "C<sub>16</sub>H<sub>21</sub>NO<sub>2</sub>.ClH",
        "Molecular Mass": "",
        "Melting Point": "192 °C"
    }
}