{
    "cas_no": "104-11-0",
    "key_name": "4-Chloro-<em>N</em>-methylbenzenemethanamine",
    "cn_name": "N-甲基-4-氯苄胺;",
    "alternate_name": "Benzenemethanamine, 4-chloro-<em>N</em>-methyl-;Benzylamine, <em>p</em>-chloro-<em>N</em>-methyl-;4-Chloro-<em>N</em>-methylbenzenemethanamine;<em>p</em>-Chloro-<em>N</em>-methylbenzylamine;4-Chloro-<em>N</em>-methylbenzylamine;<em>N</em>-Methyl-<em>p</em>-chlorobenzylamine;<em>N</em>-(<em>p</em>-Chlorobenzyl)-<em>N</em>-methylamine;(4-Chlorobenzyl)methylamine;<em>N</em>-Methyl-4-chlorobenzylamine;NSC 39968;<em>N</em>-Methyl-<em>N</em>-(4-chlorobenzyl)amine;<em>N</em>-(4-Chlorobenzyl)-<em>N</em>-methylamine;4-Chlorobenzyl-<em>N</em>-methylamine;1-(4-Chlorophenyl)-<em>N</em>-methylmethanamine;[(4-Chlorophenyl)methyl](methyl)amine",
    "duplicated_cas_no": "",
    "SMILES": "C(NC)C1=CC=C(Cl)C=C1",
    "meta_data": {
        "InChI": "InChI=1S/C8H10ClN/c1-10-6-7-2-4-8(9)5-3-7/h2-5,10H,6H2,1H3",
        "InChIKey": null,
        "Canonical SMILES": "ClC1=CC=C(C=C1)CNC",
        "Molecular Formula": "C<sub>8</sub>H<sub>10</sub>ClN",
        "Molecular Mass": "155.62",
        "Boiling Point": "120-123 °C @ Press: 15 Torr"
    }
}