{
    "cas_no": "598-72-1",
    "key_name": "2-Bromopropionic acid",
    "cn_name": "2-溴丙酸;",
    "alternate_name": "Propanoic acid, 2-bromo-;Propionic acid, 2-bromo-;Propionic acid, α-bromo-;2-Bromopropanoic acid;α-Bromopropionic acid;2-Bromopropionic acid;<span class=\"text-smallcaps\">DL</span>-α-Bromopropionic acid;<span class=\"text-smallcaps\">DL</span>-2-Bromopropionic acid;(±)-α-Bromopropanoic acid;(±)-2-Bromopropionic acid;(<em>RS</em>)-α-Bromopropionic acid;(±)-2-Bromopropanoic acid;(<em>RS</em>)-2-Bromopropionic acid;NSC 172;(<em>RS</em>)-2-Bromopropanoic acid",
    "duplicated_cas_no": "10327-08-9",
    "SMILES": "C(C(O)=O)(Br)C",
    "meta_data": {
        "InChI": "InChI=1S/C3H5BrO2/c1-2(4)3(5)6/h2H,1H3,(H,5,6)",
        "InChIKey": null,
        "Canonical SMILES": "O=C(O)C(Br)C",
        "Molecular Formula": "C<sub>3</sub>H<sub>5</sub>BrO<sub>2</sub>",
        "Molecular Mass": "152.97",
        "Boiling Point": "203 °C",
        "Melting Point": "24.5 °C",
        "Density": "1.7000 g/cm³ @ Temp: 20 °C"
    }
}