{
    "cas_no": "103028-32-6",
    "key_name": "6-Bromo-8-methoxyquinoline",
    "cn_name": null,
    "alternate_name": "Quinoline, 6-bromo-8-methoxy-;6-Bromo-8-methoxyquinoline",
    "duplicated_cas_no": "",
    "SMILES": "O(C)C=1C2=C(C=C(Br)C1)C=CC=N2",
    "meta_data": {
        "InChI": "InChI=1S/C10H8BrNO/c1-13-9-6-8(11)5-7-3-2-4-12-10(7)9/h2-6H,1H3",
        "InChIKey": null,
        "Canonical SMILES": "BrC1=CC(OC)=C2N=CC=CC2=C1",
        "Molecular Formula": "C<sub>10</sub>H<sub>8</sub>BrNO",
        "Molecular Mass": "238.08",
        "Boiling Point": "70-80 °C @ Press: 24 Torr"
    }
}