{
    "cas_no": "621-30-7",
    "key_name": "3-Methylphenyl isothiocyanate",
    "cn_name": "间甲苯异硫氰酸酯;",
    "alternate_name": "Benzene, 1-isothiocyanato-3-methyl-;Isothiocyanic acid, <em>m</em>-tolyl ester;1-Isothiocyanato-3-methylbenzene;3-Methylphenyl isothiocyanate;<em>m</em>-Tolyl isothiocyanate;<em>m</em>-Methylphenyl isothiocyanate;3-Tolyl isothiocyanate;m-Tolyl isothiocyanate",
    "duplicated_cas_no": "",
    "SMILES": "N(=C=S)C1=CC(C)=CC=C1",
    "meta_data": {
        "InChI": "InChI=1S/C8H7NS/c1-7-3-2-4-8(5-7)9-6-10/h2-5H,1H3",
        "InChIKey": null,
        "Canonical SMILES": "S=C=NC1=CC=CC(=C1)C",
        "Molecular Formula": "C<sub>8</sub>H<sub>7</sub>NS",
        "Molecular Mass": "149.21",
        "Boiling Point": "243 °C",
        "Melting Point": "239 °C"
    }
}