{
    "cas_no": "28319-77-9",
    "key_name": "sn-glycero-3-Phosphocholine",
    "cn_name": "甘磷酸胆碱GPC;甘油磷酰胆碱;",
    "alternate_name": "Ethanaminium, 2-[[[(2<em>R</em>)-2,3-dihydroxypropoxy]hydroxyphosphinyl]oxy]-<em>N</em>,<em>N</em>,<em>N</em>-trimethyl-, inner salt;Ethanaminium, 2-[[(2,3-dihydroxypropoxy)hydroxyphosphinyl]oxy]-<em>N</em>,<em>N</em>,<em>N</em>-trimethyl-, hydroxide, inner salt, (<em>R</em>)-;<em>O</em>-(<em>sn</em>-<em>glycero</em>-3-Phosphoryl)-choline;Glycerophosphorylcholine;<em>sn</em>-<em>glycero</em>-3-Phosphorylcholine;<em>sn</em>-glycero-3-Phosphorylcholine;<span class=\"text-smallcaps\">L</span>-α-Glycerophosphorylcholine;<span class=\"text-smallcaps\">L</span>-α-Glycerylphosphorylcholine;Glycerophosphocholine;<span class=\"text-smallcaps\">L</span>-α-Glycerophosphocholine;Choline alfoscerate;Ethanaminium, 2-[[(2,3-dihydroxypropoxy)hydroxyphosphinyl]oxy]-<em>N</em>,<em>N</em>,<em>N</em>-trimethyl-, inner salt, (<em>R</em>)-;Gliatilin;Delecit;Brezal;<span class=\"text-smallcaps\">L</span>-α-GPC;Glycerol 3-phosphocholine;Glycerol 3-phosphorylcholine;Glycerophosphoric acid choline ester;α-Glycerophosphorylcholine;Glycerylphosphocholine;α-Glycerylphosphorylcholine;Glyceryl 3-phosphorylcholine;Glycerylphosphorylcholine;sn-glycero-3-Phosphocholine;Cholitiline;Cholicerin;Cereton;Choline alphoscerate;Glycerol phosphorylcholine;Nichiyu GPC 85R",
    "duplicated_cas_no": "103709-68-8;117829-79-5;1617495-71-2;1873315-25-3",
    "SMILES": "P(OC[C@@H](CO)O)(OCC[N+](C)(C)C)(=O)[O-]",
    "meta_data": {
        "InChI": "InChI=1S/C8H20NO6P/c1-9(2,3)4-5-14-16(12,13)15-7-8(11)6-10/h8,10-11H,4-7H2,1-3H3/t8-/m1/s1",
        "InChIKey": null,
        "Canonical SMILES": "O=P([O-])(OCC[N+](C)(C)C)OCC(O)CO",
        "Molecular Formula": "C<sub>8</sub>H<sub>20</sub>NO<sub>6</sub>P",
        "Molecular Mass": "",
        "Melting Point": "142.5 °C"
    }
}