{
    "cas_no": "40507-78-6",
    "key_name": "Indanazoline",
    "cn_name": null,
    "alternate_name": "1<em>H</em>-Imidazol-2-amine, <em>N</em>-(2,3-dihydro-1<em>H</em>-inden-4-yl)-4,5-dihydro-;<em>N</em>-(2,3-Dihydro-1<em>H</em>-inden-4-yl)-4,5-dihydro-1<em>H</em>-imidazol-2-amine;2-(4-Indanamino)-2-imidazoline;Indanazoline;(4,5-Dihydro-1<em>H</em>-imidazol-2-yl)-4-indanylamine",
    "duplicated_cas_no": "",
    "SMILES": "N(C1=C2C(=CC=C1)CCC2)C=3NCCN3",
    "meta_data": {
        "InChI": "InChI=1S/C12H15N3/c1-3-9-4-2-6-11(10(9)5-1)15-12-13-7-8-14-12/h2,4,6H,1,3,5,7-8H2,(H2,13,14,15)",
        "InChIKey": null,
        "Canonical SMILES": "N1=C(NC2=CC=CC3=C2CCC3)NCC1",
        "Molecular Formula": "C<sub>12</sub>H<sub>15</sub>N<sub>3</sub>",
        "Molecular Mass": "201.27",
        "Melting Point": "109-113 °C"
    }
}