{
    "cas_no": "85-31-4",
    "key_name": "Thioguanosine",
    "cn_name": "6-巯基鸟嘌呤核苷;6-硫基鸟嘌呤;",
    "alternate_name": "Guanosine, 6-thio-;6<em>H</em>-Purine-6-thione, 2-amino-1,9-dihydro-9-β-<span class=\"text-smallcaps\">D</span>-ribofuranosyl-;9<em>H</em>-Purine-6(1<em>H</em>)-thione, 2-amino-9-β-<span class=\"text-smallcaps\">D</span>-ribofuranosyl-;6-Thioguanosine;2-Amino-6-mercaptopurine ribonucleoside;2-Amino-9-(β-<span class=\"text-smallcaps\">D</span>-ribofuranosyl)purine-6-thiol;Thioguanosine;2-Amino-9-β-<span class=\"text-smallcaps\">D</span>-ribofuranosyl-9<em>H</em>-purine-6-thiol;2-Amino-9-β-<span class=\"text-smallcaps\">D</span>-ribofuranosylpurine-6-thione;6-Thioguanine riboside;6-Mercaptoguanosine;6-Thioguanine ribonucleoside;NSC-29422;2-Amino-6-mercaptopurine riboside;6-Mercaptoguanine riboside;9-β-<span class=\"text-smallcaps\">D</span>-Ribofuranosylthioguanine",
    "duplicated_cas_no": "2004-05-9;7281-89-2",
    "SMILES": "S=C1C2=C(N(C=N2)[C@@H]3O[C@H](CO)[C@@H](O)[C@H]3O)NC(N)=N1",
    "meta_data": {
        "InChI": "InChI=1S/C10H13N5O4S/c11-10-13-7-4(8(20)14-10)12-2-15(7)9-6(18)5(17)3(1-16)19-9/h2-3,5-6,9,16-18H,1H2,(H3,11,13,14,20)/t3-,5-,6-,9-/m1/s1",
        "InChIKey": null,
        "Canonical SMILES": "S=C1N=C(N)NC2=C1N=CN2C3OC(CO)C(O)C3O",
        "Molecular Formula": "C<sub>10</sub>H<sub>13</sub>N<sub>5</sub>O<sub>4</sub>S",
        "Molecular Mass": "299.31",
        "Melting Point": "224-227 °C"
    }
}