{
    "cas_no": "62596-34-3",
    "key_name": "Cyclomorusin",
    "cn_name": null,
    "alternate_name": "3<em>H</em>,7<em>H</em>,8<em>H</em>-Bis[1]benzopyrano[4,3-<em>b</em>:6′,5′-<em>e</em>]pyran-7-one, 6,11-dihydroxy-3,3-dimethyl-8-(2-methylpropen-1-yl)-;6,11-Dihydroxy-3,3-dimethyl-8-(2-methylpropen-1-yl)-3<em>H</em>,7<em>H</em>,8<em>H</em>-bis[1]benzopyrano[4,3-<em>b</em>:6′,5′-<em>e</em>]pyran-7-one;Cyclomorusin;Cyclomulberrochromene;Cyclomorusin A",
    "duplicated_cas_no": "",
    "SMILES": "C(=C(C)C)C1C2=C(C=3C(O1)=CC(O)=CC3)OC4=C(C2=O)C(O)=CC5=C4C=CC(C)(C)O5",
    "meta_data": {
        "InChI": "InChI=1S/C25H22O6/c1-12(2)9-19-21-22(28)20-16(27)11-18-15(7-8-25(3,4)31-18)23(20)30-24(21)14-6-5-13(26)10-17(14)29-19/h5-11,19,26-27H,1-4H3",
        "InChIKey": null,
        "Canonical SMILES": "O=C1C2=C(O)C=C3OC(C=CC3=C2OC=4C=5C=CC(O)=CC5OC(C=C(C)C)C14)(C)C",
        "Molecular Formula": "C<sub>25</sub>H<sub>22</sub>O<sub>6</sub>",
        "Molecular Mass": "418.44",
        "Melting Point": "233-234 °C"
    }
}