{
    "cas_no": "143382-03-0",
    "key_name": "5-(Methoxymethyl)-2,3-pyridinedicarboxylic acid",
    "cn_name": "5-甲氧基甲基-2,3-吡啶二羧酸;",
    "alternate_name": "2,3-Pyridinedicarboxylic acid, 5-(methoxymethyl)-;5-(Methoxymethyl)-2,3-pyridinedicarboxylic acid",
    "duplicated_cas_no": "",
    "SMILES": "C(O)(=O)C1=C(C(O)=O)N=CC(COC)=C1",
    "meta_data": {
        "InChI": "InChI=1S/C9H9NO5/c1-15-4-5-2-6(8(11)12)7(9(13)14)10-3-5/h2-3H,4H2,1H3,(H,11,12)(H,13,14)",
        "InChIKey": null,
        "Canonical SMILES": "O=C(O)C1=NC=C(C=C1C(=O)O)COC",
        "Molecular Formula": "C<sub>9</sub>H<sub>9</sub>NO<sub>5</sub>",
        "Molecular Mass": "211.17",
        "Melting Point": "161-162 °C"
    }
}