{
    "cas_no": "13048-33-4",
    "key_name": "1,6-Hexanediol diacrylate",
    "cn_name": "1,6-己二醇二丙烯酸酯;",
    "alternate_name": "2-Propenoic acid, 1,1′-(1,6-hexanediyl) ester;Acrylic acid, hexamethylene ester;2-Propenoic acid, 1,6-hexanediyl ester;1,6-Hexanediol diacrylate;Hexamethylene diacrylate;Hexamethylene acrylate;Hexamethyleneglycol diacrylate;1,6-Hexanediyl diacrylate;SR 238;1,6-Hexamethylene diacrylate;Sartomer SR 238;Setalux UV 2243;Hexaneglycol diacrylate;HDDA;Kayarad HDDA;Light Acrylate 1,6HX-A;1,6-HDDA;1,6-Hexenediol diacrylate;NK Ester A-HD;C 716;Viscoat 230;Photomer 4017;1,6HX-A;AHD;Sartomer 238;1,6-Hexamethylenediol diacrylate;Kayarad KS-HDDA;Actilane 425;Light Ester 1.6HX-A;Laromer HDDA;HDODA;Hexamethylenediol diacrylate;Genomer 1223;NK Ester A-HD-N;KS-HDDA;SR 238F;AgiSyn 2816;A-HD-N;1.6HX;EM 221;C 6DA;V 230;M 200;SM 626;M 200 (acrylate);Photomer 4017F;SR 2389;EM 221TF;SR 238NS;Light Acrylate SR 238F;SR 238B;FA 126AS;1,2-Bisacryloyloxyhexane;Miramer M 200;1,6-Hexandiol diacrylate;Newfrontier HDDA;LM 254;Hexylene-1,6-diacrylate;Doublemer HDDA;Cognis 4017;Fancryl FA 126AS;1,6-Hexyleneglycol diacrylate;SR 238TFN;EM 2021;Miramer M 201B;H 222;16HDA",
    "duplicated_cas_no": "74872-03-0;88250-32-2;106717-06-0;126038-89-9;174845-65-9;181826-08-4;198694-76-7;671774-75-7;1220287-86-4;1934258-74-8;2648990-16-1",
    "SMILES": "C(OCCCCCCOC(C=C)=O)(C=C)=O",
    "meta_data": {
        "InChI": "InChI=1S/C12H18O4/c1-3-11(13)15-9-7-5-6-8-10-16-12(14)4-2/h3-4H,1-2,5-10H2",
        "InChIKey": null,
        "Canonical SMILES": "O=C(OCCCCCCOC(=O)C=C)C=C",
        "Molecular Formula": "C<sub>12</sub>H<sub>18</sub>O<sub>4</sub>",
        "Molecular Mass": "226.27",
        "Boiling Point": "158-165 °C @ Press: 5 Torr",
        "Melting Point": "&lt;25 °C",
        "Density": "1.01 g/cm³"
    }
}