{
    "cas_no": "155-30-6",
    "key_name": "Methyl 1-thio-β-<span class=\"text-smallcaps\">D</span>-galactopyranoside",
    "cn_name": "甲基-1-硫代-Β-D-半乳糖苷;",
    "alternate_name": "β-<span class=\"text-smallcaps\">D</span>-Galactopyranoside, methyl 1-thio-;Galactopyranoside, methyl 1-thio-, β-<span class=\"text-smallcaps\">D</span>-;Methyl 1-thio-β-<span class=\"text-smallcaps\">D</span>-galactopyranoside;TMG;Thiomethyl β-<span class=\"text-smallcaps\">D</span>-galactopyranoside;Methyl β-thiogalactoside;Methyl β-<span class=\"text-smallcaps\">D</span>-thiogalactopyranoside;Methyl 1-thio-β-<span class=\"text-smallcaps\">D</span>-galactoside",
    "duplicated_cas_no": "27072-97-5;27251-92-9;92225-53-1",
    "SMILES": "C(O)[C@H]1O[C@@H](SC)[C@H](O)[C@@H](O)[C@H]1O",
    "meta_data": {
        "InChI": "InChI=1S/C7H14O5S/c1-13-7-6(11)5(10)4(9)3(2-8)12-7/h3-11H,2H2,1H3/t3-,4+,5+,6-,7+/m1/s1",
        "InChIKey": null,
        "Canonical SMILES": "OCC1OC(SC)C(O)C(O)C1O",
        "Molecular Formula": "C<sub>7</sub>H<sub>14</sub>O<sub>5</sub>S",
        "Molecular Mass": "210.25",
        "Melting Point": "174-175 °C"
    }
}