{
    "cas_no": "1072-12-4",
    "key_name": "Glyoxal dithiosemicarbazone",
    "cn_name": "乙二醛二硫代缩氨基脲;",
    "alternate_name": "Hydrazinecarbothioamide, 2,2′-(1,2-ethanediylidene)bis-;Glyoxal, bis(thiosemicarbazone);2,2′-(1,2-Ethanediylidene)bis[hydrazinecarbothioamide];2,2′-(1,2-Ethanediylidene)bishydrazinecarbothioamide;Glyoxal dithiosemicarbazone;GDTS;NSC 22181",
    "duplicated_cas_no": "1085698-35-6",
    "SMILES": "N(NC(N)=S)=CC=NNC(N)=S",
    "meta_data": {
        "InChI": "InChI=1S/C4H8N6S2/c5-3(11)9-7-1-2-8-10-4(6)12/h1-2H,(H3,5,9,11)(H3,6,10,12)",
        "InChIKey": null,
        "Canonical SMILES": "S=C(N)NN=CC=NNC(=S)N",
        "Molecular Formula": "C<sub>4</sub>H<sub>8</sub>N<sub>6</sub>S<sub>2</sub>",
        "Molecular Mass": "204.28",
        "Melting Point": "252 °C (decomp)"
    }
}