{
    "cas_no": "301-04-2",
    "key_name": "Lead diacetate",
    "cn_name": "乙酸铅试纸;",
    "alternate_name": "Acetic acid, lead(2+) salt (2:1);Acetic acid, lead(2+) salt;Lead diacetate;Salt of saturn;Sugar of lead;Lead(II) acetate;Lead acetate (Pb(O<sub>2</sub>C<sub>2</sub>H<sub>3</sub>)<sub>2</sub>);Lead(2+) acetate;Lead acetate [Pb(OAc)<sub>2</sub>];Lead acetate;Plumbous acetate;Lead dibasic acetate;Dibasic lead acetate;Acetic acid lead salt (2:1);Lead acetate (Pb(Ac)<sub>2</sub>);Lead bis(acetate);Normal lead acetate;Neutral lead acetate",
    "duplicated_cas_no": "2649269-80-5",
    "SMILES": "C(C)(O)=O.[Pb]",
    "meta_data": {
        "InChI": "InChI=1S/C2H4O2.Pb/c1-2(3)4;/h1H3,(H,3,4);",
        "InChIKey": null,
        "Canonical SMILES": "[Pb].O=C(O)C",
        "Molecular Formula": "C<sub>2</sub>H<sub>4</sub>O<sub>2</sub>.<sup>1</sup>/<sub>2</sub>Pb",
        "Molecular Mass": "",
        "Boiling Point": "1740 °C",
        "Melting Point": "280 °C",
        "Density": "3.25 g/cm³"
    }
}