{
    "cas_no": "1073-93-4",
    "key_name": "<em>N</em>-Isopropylmaleimide",
    "cn_name": "N-异丙基马来酰亚胺;",
    "alternate_name": "1<em>H</em>-Pyrrole-2,5-dione, 1-(1-methylethyl)-;Maleimide, <em>N</em>-isopropyl-;1-(1-Methylethyl)-1<em>H</em>-pyrrole-2,5-dione;<em>N</em>-Isopropylmaleimide;NSC 17658;1-Propan-2-ylpyrrole-2,5-dione",
    "duplicated_cas_no": "",
    "SMILES": "C(C)(C)N1C(=O)C=CC1=O",
    "meta_data": {
        "InChI": "InChI=1S/C7H9NO2/c1-5(2)8-6(9)3-4-7(8)10/h3-5H,1-2H3",
        "InChIKey": null,
        "Canonical SMILES": "O=C1C=CC(=O)N1C(C)C",
        "Molecular Formula": "C<sub>7</sub>H<sub>9</sub>NO<sub>2</sub>",
        "Molecular Mass": "139.15",
        "Boiling Point": "67 °C @ Press: 11 Torr",
        "Melting Point": "83 °C"
    }
}