{
    "cas_no": "132-64-9",
    "key_name": "Dibenzofuran",
    "cn_name": "二苯并呋喃;",
    "alternate_name": "Dibenzofuran;2,2′-Biphenylene oxide;2,2′-Biphenylylene oxide;Dibenzo[<em>b</em>,<em>d</em>]furan;Diphenylene oxide;[1,1′-Biphenyl]-2,2′-diyl oxide;NSC 1245",
    "duplicated_cas_no": "214827-48-2",
    "SMILES": "C1=2C=3C(OC1=CC=CC2)=CC=CC3",
    "meta_data": {
        "InChI": "InChI=1S/C12H8O/c1-3-7-11-9(5-1)10-6-2-4-8-12(10)13-11/h1-8H",
        "InChIKey": null,
        "Canonical SMILES": "O1C=2C=CC=CC2C=3C=CC=CC13",
        "Molecular Formula": "C<sub>12</sub>H<sub>8</sub>O",
        "Molecular Mass": "168.19",
        "Boiling Point": "287 °C @ Press: 760 Torr",
        "Melting Point": "86.5 °C",
        "Density": "1.0886 g/cm³ @ Temp: 99 °C"
    }
}