{
    "uri": "substance/pt/1330434",
    "rn": "1330-43-4",
    "name": "Sodium tetraborate",
    "images": [],
    "inchi": "",
    "inchiKey": "",
    "smile": "",
    "canonicalSmile": "",
    "molecularFormula": "B<sub>4</sub>Na<sub>2</sub>O<sub>7</sub>",
    "molecularMass": "",
    "experimentalProperties": [
        {
            "name": "Melting Point",
            "property": "741 °C",
            "sourceNumber": 1
        },
        {
            "name": "Density",
            "property": "2.367 g/cm³",
            "sourceNumber": 1
        }
    ],
    "propertyCitations": [
        {
            "docUri": "",
            "sourceNumber": 1,
            "source": "Hazardous Substances Data Bank data were obtained from the National Library of Medicine (US)"
        }
    ],
    "synonyms": [
        "Boron sodium oxide (B<sub>4</sub>Na<sub>2</sub>O<sub>7</sub>)",
        "Sodium tetraborate (Na<sub>2</sub>B<sub>4</sub>O<sub>7</sub>)",
        "Boric acid (H<sub>2</sub>B<sub>4</sub>O<sub>7</sub>), disodium salt",
        "Anhydrous borax",
        "Borax glass",
        "Fused Borax",
        "Sodium biborate",
        "Disodium tetraborate",
        "Sodium borate",
        "FR 28",
        "Rasorite 65",
        "Sodium tetraborate",
        "Sodium boron oxide (Na<sub>2</sub>B<sub>4</sub>O<sub>7</sub>)",
        "Spraybor",
        "Fireless B Liquid",
        "Fireless B",
        "Granubor",
        "FR 28 (borate)",
        "Ecoboron PRO",
        "Dehybor",
        "DC Dehybor",
        "Etibor 68",
        "Na<sub>2</sub>B<sub>4</sub>O<sub>7</sub>",
        "T 25734"
    ],
    "replacedRns": [
        "1332-28-1",
        "12045-54-4",
        "12589-17-2",
        "13764-83-5",
        "19223-62-2",
        "37199-25-0",
        "115372-65-1",
        "136349-33-2",
        "163701-93-7",
        "886584-11-8",
        "910783-70-9",
        "950582-57-7",
        "1039387-27-3",
        "1186126-93-1",
        "1189141-72-7",
        "1242163-02-5",
        "1247014-60-3",
        "1262222-67-2",
        "1262281-53-7",
        "1268472-42-9",
        "1314012-56-0",
        "1315317-92-0",
        "2123562-10-5",
        "2407294-88-4",
        "2648563-35-1"
    ],
    "hasMolfile": false,
    "source": "https://commonchemistry.cas.org/detail?cas_rn=1330-43-4"
}