{
    "cas_no": "106-33-2",
    "key_name": "Ethyl dodecanoate",
    "cn_name": "月桂酸乙酯;十二酸乙酯;",
    "alternate_name": "Dodecanoic acid, ethyl ester;Lauric acid, ethyl ester;Ethyl dodecanoate;Ethyl dodecylate;Ethyl laurate;Ethyl laurinate;Ethyl <em>n</em>-dodecanoate;NSC 83467;NSC 8912;Dodecanoic acid monoethyl ester",
    "duplicated_cas_no": "",
    "SMILES": "C(CCCCCCCCCCC)(OCC)=O",
    "meta_data": {
        "InChI": "InChI=1S/C14H28O2/c1-3-5-6-7-8-9-10-11-12-13-14(15)16-4-2/h3-13H2,1-2H3",
        "InChIKey": null,
        "Canonical SMILES": "O=C(OCC)CCCCCCCCCCC",
        "Molecular Formula": "C<sub>14</sub>H<sub>28</sub>O<sub>2</sub>",
        "Molecular Mass": "228.37",
        "Boiling Point": "271 °C",
        "Melting Point": "-10 °C",
        "Density": "0.8660 g/cm³ @ Temp: 15 °C"
    }
}