{
    "cas_no": "81777-89-1",
    "key_name": "Clomazone",
    "cn_name": "异恶草酮;2-(2-氯苄基)-4,4-二甲基异噁唑-3-酮;",
    "alternate_name": "3-Isoxazolidinone, 2-[(2-chlorophenyl)methyl]-4,4-dimethyl-;2-[(2-Chlorophenyl)methyl]-4,4-dimethyl-3-isoxazolidinone;Dimethazone;FMC 57020;Clomazone;Command;Command EC;Command (pesticide);Command 3ME;Cirrus 50WP;Cirrus;F 57020;Gamit;Centium 360CS;Isooxadiazon;Command 480 EC;2-(2-Chlorobenzyl)-4,4-dimethylisoxazolidin-3-one",
    "duplicated_cas_no": "89493-06-1",
    "SMILES": "C(N1C(=O)C(C)(C)CO1)C2=C(Cl)C=CC=C2",
    "meta_data": {
        "InChI": "InChI=1S/C12H14ClNO2/c1-12(2)8-16-14(11(12)15)7-9-5-3-4-6-10(9)13/h3-6H,7-8H2,1-2H3",
        "InChIKey": null,
        "Canonical SMILES": "O=C1N(OCC1(C)C)CC=2C=CC=CC2Cl",
        "Molecular Formula": "C<sub>12</sub>H<sub>14</sub>ClNO<sub>2</sub>",
        "Molecular Mass": "239.70",
        "Boiling Point": "275 °C",
        "Melting Point": "25 °C"
    }
}