{
    "cas_no": "529-51-1",
    "key_name": "Azaleatin",
    "cn_name": "杜鹃黄素; 2-(3,4-二羟基苯基)-3,7-二羟基-5-甲氧基苯并吡喃-4-酮;",
    "alternate_name": "4<em>H</em>-1-Benzopyran-4-one, 2-(3,4-dihydroxyphenyl)-3,7-dihydroxy-5-methoxy-;Flavone, 3,3′,4′,7-tetrahydroxy-5-methoxy-;2-(3,4-Dihydroxyphenyl)-3,7-dihydroxy-5-methoxy-4<em>H</em>-1-benzopyran-4-one;Azaleatin;Quercetin 5-methyl ether;5-<em>O</em>-Methylquercetin;3,3′,4′,7-Tetrahydroxy-5-methoxyflavone",
    "duplicated_cas_no": "",
    "SMILES": "O(C)C1=C2C(OC(=C(O)C2=O)C3=CC(O)=C(O)C=C3)=CC(O)=C1",
    "meta_data": {
        "InChI": "InChI=1S/C16H12O7/c1-22-11-5-8(17)6-12-13(11)14(20)15(21)16(23-12)7-2-3-9(18)10(19)4-7/h2-6,17-19,21H,1H3",
        "InChIKey": null,
        "Canonical SMILES": "O=C1C(O)=C(OC2=CC(O)=CC(OC)=C12)C=3C=CC(O)=C(O)C3",
        "Molecular Formula": "C<sub>16</sub>H<sub>12</sub>O<sub>7</sub>",
        "Molecular Mass": "316.26",
        "Melting Point": "305-308 °C"
    }
}