{
    "cas_no": "124-12-9",
    "key_name": "Octanenitrile",
    "cn_name": "辛腈;正辛腈;庚基氰;",
    "alternate_name": "Octanenitrile;Arneel 8;Caprylonitrile;Octanonitrile;<em>n</em>-Octanonitrile;1-Cyanoheptane;<em>n</em>-Heptyl cyanide;Heptylcyanide;NSC 5513;Aldinyle 3884 Synarome",
    "duplicated_cas_no": "",
    "SMILES": "C(CCCC)CCC#N",
    "meta_data": {
        "InChI": "InChI=1S/C8H15N/c1-2-3-4-5-6-7-8-9/h2-7H2,1H3",
        "InChIKey": null,
        "Canonical SMILES": "N#CCCCCCCC",
        "Molecular Formula": "C<sub>8</sub>H<sub>15</sub>N",
        "Molecular Mass": "125.21",
        "Boiling Point": "205.2 °C",
        "Melting Point": "-45.6 °C",
        "Density": "0.82862 g/cm³ @ Temp: 0 °C"
    }
}