{
    "cas_no": "7208-47-1",
    "key_name": "Sorbitol hexaacetate",
    "cn_name": "D-山梨糖醇六乙酸酯;山梨醇六乙酸酯;CH3CO2CH2[CH(O2CCH3)]4CH2O2CCH3;",
    "alternate_name": "<span class=\"text-smallcaps\">D</span>-Glucitol, 1,2,3,4,5,6-hexaacetate;Glucitol, hexaacetate, <span class=\"text-smallcaps\">D</span>-;<span class=\"text-smallcaps\">D</span>-Glucitol, hexaacetate;Sorbitol hexaacetate;Hexa-<em>O</em>-acetylglucitol;Sorbityl hexaacetate;<span class=\"text-smallcaps\">L</span>-Gulitol hexaacetate;1,2,3,4,5,6-Hexa-<em>O</em>-acetyl-<span class=\"text-smallcaps\">D</span>-glucitol;Pagosten 3;NSC 170204",
    "duplicated_cas_no": "",
    "SMILES": "[C@H]([C@@H]([C@@H](COC(C)=O)OC(C)=O)OC(C)=O)([C@H](COC(C)=O)OC(C)=O)OC(C)=O",
    "meta_data": {
        "InChI": "InChI=1S/C18H26O12/c1-9(19)25-7-15(27-11(3)21)17(29-13(5)23)18(30-14(6)24)16(28-12(4)22)8-26-10(2)20/h15-18H,7-8H2,1-6H3/t15-,16+,17-,18-/m1/s1",
        "InChIKey": null,
        "Canonical SMILES": "O=C(OCC(OC(=O)C)C(OC(=O)C)C(OC(=O)C)C(OC(=O)C)COC(=O)C)C",
        "Molecular Formula": "C<sub>18</sub>H<sub>26</sub>O<sub>12</sub>",
        "Molecular Mass": "434.39",
        "Melting Point": "98-99 °C"
    }
}