{
    "cas_no": "1555-66-4",
    "key_name": "3,3′-(Phenylimino)bis[propanenitrile]",
    "cn_name": "N,N-二氰乙基苯胺;",
    "alternate_name": "Propanenitrile, 3,3′-(phenylimino)bis-;Propionitrile, 3,3′-(phenylimino)di-;3,3′-(Phenylimino)bis[propanenitrile];<em>N</em>,<em>N</em>-Bis(2-cyanoethyl)aniline;<em>N</em>,<em>N</em>-Bis(cyanoethyl)aniline;<em>N</em>,<em>N</em>-Bis(β-cyanoethyl)aniline;Bis(2-cyanoethyl)phenylamine;NSC 108353;3,3′-(Phenylimino)dipropionitrile;3-[(2-Cyanoethyl)(phenyl)amino]propanenitrile;3,3′-(Phenylazanediyl)dipropanenitrile",
    "duplicated_cas_no": "",
    "SMILES": "N(CCC#N)(CCC#N)C1=CC=CC=C1",
    "meta_data": {
        "InChI": "InChI=1S/C12H13N3/c13-8-4-10-15(11-5-9-14)12-6-2-1-3-7-12/h1-3,6-7H,4-5,10-11H2",
        "InChIKey": null,
        "Canonical SMILES": "N#CCCN(C=1C=CC=CC1)CCC#N",
        "Molecular Formula": "C<sub>12</sub>H<sub>13</sub>N<sub>3</sub>",
        "Molecular Mass": "199.25",
        "Boiling Point": "165-167 °C @ Press: 6 Torr",
        "Melting Point": "80-82 °C",
        "Density": "0.9214 g/cm³ @ Temp: 20 °C"
    }
}