{
    "cas_no": "68844-77-9",
    "key_name": "Astemizole",
    "cn_name": "阿司咪唑;1-(4-氟苄基)-2-(1-[4-甲氧基苯乙基]哌啶-4-基)氨基苯并咪唑;",
    "alternate_name": "1<em>H</em>-Benzimidazol-2-amine, 1-[(4-fluorophenyl)methyl]-<em>N</em>-[1-[2-(4-methoxyphenyl)ethyl]-4-piperidinyl]-;1-[(4-Fluorophenyl)methyl]-<em>N</em>-[1-[2-(4-methoxyphenyl)ethyl]-4-piperidinyl]-1<em>H</em>-benzimidazol-2-amine;Astemizole;Hismanal;Novo-Nastizol A;Retolen;Astemisan;Histamen;Histaminos;Laridal;Kelp;Paralergin;Histazol;Metodik;R 43512;Waruzol;NSC 329963;Stemiz;1-(4-Fluorobenzyl)-2-(1-(4-methoxyphenethyl)piperidin-4-yl)aminobenzimidazole;MeSH ID: D016589",
    "duplicated_cas_no": "",
    "SMILES": "C(N1C=2C(N=C1NC3CCN(CCC4=CC=C(OC)C=C4)CC3)=CC=CC2)C5=CC=C(F)C=C5",
    "meta_data": {
        "InChI": "InChI=1S/C28H31FN4O/c1-34-25-12-8-21(9-13-25)14-17-32-18-15-24(16-19-32)30-28-31-26-4-2-3-5-27(26)33(28)20-22-6-10-23(29)11-7-22/h2-13,24H,14-20H2,1H3,(H,30,31)",
        "InChIKey": null,
        "Canonical SMILES": "FC1=CC=C(C=C1)CN2C(=NC=3C=CC=CC32)NC4CCN(CCC5=CC=C(OC)C=C5)CC4",
        "Molecular Formula": "C<sub>28</sub>H<sub>31</sub>FN<sub>4</sub>O",
        "Molecular Mass": "458.57",
        "Melting Point": "149.1 °C"
    }
}