{
    "cas_no": "2034-22-2",
    "key_name": "2,4,5-Tribromoimidazole",
    "cn_name": "2,4,5-三溴咪唑;",
    "alternate_name": "1<em>H</em>-Imidazole, 2,4,5-tribromo-;Imidazole, 2,4,5-tribromo-;2,4,5-Tribromo-1<em>H</em>-imidazole;2,4,5-Tribromoimidazole;NSC 514965",
    "duplicated_cas_no": "",
    "SMILES": "BrC1=C(Br)N=C(Br)N1",
    "meta_data": {
        "InChI": "InChI=1S/C3HBr3N2/c4-1-2(5)8-3(6)7-1/h(H,7,8)",
        "InChIKey": null,
        "Canonical SMILES": "BrC1=NC(Br)=C(Br)N1",
        "Molecular Formula": "C<sub>3</sub>HBr<sub>3</sub>N<sub>2</sub>",
        "Molecular Mass": "304.77",
        "Melting Point": "218 °C (decomp)"
    }
}