{
    "cas_no": "6740-87-0",
    "key_name": "1-[(2-Chlorophenyl)(methylimino)methyl]cyclopentanol",
    "cn_name": "1-[(2-氯苯基)(甲基亚氨基)甲基]环戊醇;N-甲基-[(1-羟基环戊基)-1-(2-氯苯基)]甲亚胺;",
    "alternate_name": "Cyclopentanol, 1-[(2-chlorophenyl)(methylimino)methyl]-;Cyclopentanol, 1-(<em>o</em>-chloro-<em>N</em>-methylbenzimidoyl)-;1-[(2-Chlorophenyl)(methylimino)methyl]cyclopentanol;1-[(2-Chlorophenyl)(methylimino)methyl]cyclopentan-1-ol",
    "duplicated_cas_no": "",
    "SMILES": "C(=NC)(C1=C(Cl)C=CC=C1)C2(O)CCCC2",
    "meta_data": {
        "InChI": "InChI=1S/C13H16ClNO/c1-15-12(13(16)8-4-5-9-13)10-6-2-3-7-11(10)14/h2-3,6-7,16H,4-5,8-9H2,1H3",
        "InChIKey": null,
        "Canonical SMILES": "ClC=1C=CC=CC1C(=NC)C2(O)CCCC2",
        "Molecular Formula": "C<sub>13</sub>H<sub>16</sub>ClNO",
        "Molecular Mass": "237.73",
        "Melting Point": "64-65 °C"
    }
}