{
    "cas_no": "2365-40-4",
    "key_name": "Isopentenyladenine",
    "cn_name": "N6-异戊烯基腺嘌呤;",
    "alternate_name": "9<em>H</em>-Purin-6-amine, <em>N</em>-(3-methyl-2-buten-1-yl)-;Adenine, <em>N</em>-(3-methyl-2-butenyl)-;1<em>H</em>-Purin-6-amine, <em>N</em>-(3-methyl-2-butenyl)-;<em>N</em>-(3-Methyl-2-buten-1-yl)-9<em>H</em>-purin-6-amine;6-(γ,γ-Dimethylallylamino)purine;6-<em>N</em>-(3-Methylbut-2-enylamino)purine;<em>N</em>-(γ,γ-Dimethylallyl)adenine;<em>N</em><sup>6</sup>-Isopentenyladenine;<em>N</em><sup>6</sup>-(2-Isopentenyl)adenine;<em>N</em><sup>6</sup>-(3-Methyl-2-butenyl)adenine;2ip;<em>N</em><sup>6</sup>-(Δ<sup>2</sup>-Isopentenyl)adenine;Isopentenyladenine;6-(3-Methyl-2-buten-1-ylamino)purine;<em>N</em>-(3-Methyl-2-butenyl)adenine;6-[(3-Methyl-2-butenyl)amino]purine;<em>N</em><sup>6</sup>-(Δ<sup>2</sup>-Isopentenyl)aminopurine;6-(Δ<sup>2</sup>-Isopentenylamino)purine;<em>N</em><sup>6</sup>-(γ,γ-Dimethylallyl)aminopurine;6-Isopentenyladenine;<em>N</em>-(3-Methyl-2-butenyl)-1<em>H</em>-purin-6-amine;IPA;Bryokinin;DMAA;NSC 106958;Enadenine;N6-Isopentenyladenine;N6-(Delta2-isopentenyl)adenine",
    "duplicated_cas_no": "5122-37-2;13255-47-5",
    "SMILES": "N(CC=C(C)C)C1=C2C(N=CN2)=NC=N1",
    "meta_data": {
        "InChI": "InChI=1S/C10H13N5/c1-7(2)3-4-11-9-8-10(13-5-12-8)15-6-14-9/h3,5-6H,4H2,1-2H3,(H2,11,12,13,14,15)",
        "InChIKey": null,
        "Canonical SMILES": "N1=CN=C(NCC=C(C)C)C=2NC=NC12",
        "Molecular Formula": "C<sub>10</sub>H<sub>13</sub>N<sub>5</sub>",
        "Molecular Mass": "203.24",
        "Melting Point": "218-220 °C"
    }
}