{
    "cas_no": "5447-02-9",
    "key_name": "3,4-Bis(benzyloxy)benzaldehyde",
    "cn_name": "3,4-二苄氧基苯甲醛;",
    "alternate_name": "Benzaldehyde, 3,4-bis(phenylmethoxy)-;Benzaldehyde, 3,4-bis(benzyloxy)-;3,4-Bis(phenylmethoxy)benzaldehyde;3,4-Di(benzyloxy)benzaldehyde;3,4-Bis(benzyloxy)benzaldehyde;Protocatechualdehyde dibenzyl ether;α,α′-Diphenylveratraldehyde;NSC 16747",
    "duplicated_cas_no": "1803176-86-4",
    "SMILES": "O(CC1=CC=CC=C1)C2=C(OCC3=CC=CC=C3)C=CC(C=O)=C2",
    "meta_data": {
        "InChI": "InChI=1S/C21H18O3/c22-14-19-11-12-20(23-15-17-7-3-1-4-8-17)21(13-19)24-16-18-9-5-2-6-10-18/h1-14H,15-16H2",
        "InChIKey": null,
        "Canonical SMILES": "O=CC1=CC=C(OCC=2C=CC=CC2)C(OCC=3C=CC=CC3)=C1",
        "Molecular Formula": "C<sub>21</sub>H<sub>18</sub>O<sub>3</sub>",
        "Molecular Mass": "318.37",
        "Melting Point": "93 °C"
    }
}