{
    "cas_no": "4670-09-1",
    "key_name": "3,5-Dihydroxyphenylacetic acid",
    "cn_name": "3,5-二羟基苯乙酸;",
    "alternate_name": "Benzeneacetic acid, 3,5-dihydroxy-;Acetic acid, (3,5-dihydroxyphenyl)-;3,5-Dihydroxybenzeneacetic acid;3,5-Dihydroxyphenylacetic acid;2-(3,5-Dihydroxyphenyl)acetic acid",
    "duplicated_cas_no": "",
    "SMILES": "C(C(O)=O)C1=CC(O)=CC(O)=C1",
    "meta_data": {
        "InChI": "InChI=1S/C8H8O4/c9-6-1-5(3-8(11)12)2-7(10)4-6/h1-2,4,9-10H,3H2,(H,11,12)",
        "InChIKey": null,
        "Canonical SMILES": "O=C(O)CC=1C=C(O)C=C(O)C1",
        "Molecular Formula": "C<sub>8</sub>H<sub>8</sub>O<sub>4</sub>",
        "Molecular Mass": "168.15",
        "Melting Point": "126-127 °C"
    }
}