{
    "cas_no": "612-42-0",
    "key_name": "<em>N</em>-(2-Carboxyphenyl)glycine",
    "cn_name": "N-(2-羧苯基)甘氨酸;",
    "alternate_name": "Benzoic acid, 2-[(carboxymethyl)amino]-;Anthranilic acid, <em>N</em>-(carboxymethyl)-;2-[(Carboxymethyl)amino]benzoic acid;<em>N</em>-(Carboxymethyl)anthranilic acid;<em>N</em>-(2-Carboxyphenyl)glycine;NSC 80600",
    "duplicated_cas_no": "",
    "SMILES": "N(CC(O)=O)C1=C(C(O)=O)C=CC=C1",
    "meta_data": {
        "InChI": "InChI=1S/C9H9NO4/c11-8(12)5-10-7-4-2-1-3-6(7)9(13)14/h1-4,10H,5H2,(H,11,12)(H,13,14)",
        "InChIKey": null,
        "Canonical SMILES": "O=C(O)C=1C=CC=CC1NCC(=O)O",
        "Molecular Formula": "C<sub>9</sub>H<sub>9</sub>NO<sub>4</sub>",
        "Molecular Mass": "195.17",
        "Melting Point": "218 °C"
    }
}