{
    "cas_no": "625-48-9",
    "key_name": "2-Nitroethanol",
    "cn_name": "2-硝基乙醇;",
    "alternate_name": "Ethanol, 2-nitro-;2-Nitroethanol;β-Nitroethanol;NSC 16151;2-Nitroethan-1-ol",
    "duplicated_cas_no": "",
    "SMILES": "C(N(=O)=O)CO",
    "meta_data": {
        "InChI": "InChI=1S/C2H5NO3/c4-2-1-3(5)6/h4H,1-2H2",
        "InChIKey": null,
        "Canonical SMILES": "O=N(=O)CCO",
        "Molecular Formula": "C<sub>2</sub>H<sub>5</sub>NO<sub>3</sub>",
        "Molecular Mass": "91.07",
        "Boiling Point": "194 °C",
        "Melting Point": "-80 °C",
        "Density": "1.309 g/cm³ @ Temp: 13.3 °C"
    }
}