{
    "cas_no": "533884-09-2",
    "key_name": "(3a<em>S</em>,4<em>R</em>,9b<em>R</em>)-1,2,3,3a,4,9b-Hexahydro-4-(4-hydroxyphenyl)cyclopenta[<em>c</em>][1]benzopyran-8-ol",
    "cn_name": null,
    "alternate_name": "Cyclopenta[<em>c</em>][1]benzopyran-8-ol, 1,2,3,3a,4,9b-hexahydro-4-(4-hydroxyphenyl)-, (3a<em>S</em>,4<em>R</em>,9b<em>R</em>)-;(3a<em>S</em>,4<em>R</em>,9b<em>R</em>)-1,2,3,3a,4,9b-Hexahydro-4-(4-hydroxyphenyl)cyclopenta[<em>c</em>][1]benzopyran-8-ol;LY 500307;Erteberel",
    "duplicated_cas_no": "",
    "SMILES": "OC=1C=C2[C@]3([C@@]([C@@H](OC2=CC1)C4=CC=C(O)C=C4)(CCC3)[H])[H]",
    "meta_data": {
        "InChI": "InChI=1S/C18H18O3/c19-12-6-4-11(5-7-12)18-15-3-1-2-14(15)16-10-13(20)8-9-17(16)21-18/h4-10,14-15,18-20H,1-3H2/t14-,15+,18+/m1/s1",
        "InChIKey": null,
        "Canonical SMILES": "OC1=CC=C(C=C1)C2OC3=CC=C(O)C=C3C4CCCC24",
        "Molecular Formula": "C<sub>18</sub>H<sub>18</sub>O<sub>3</sub>",
        "Molecular Mass": "282.33",
        "Melting Point": "204.1 °C"
    }
}