{
    "cas_no": "3438-48-0",
    "key_name": "4-Phenylpyrimidine",
    "cn_name": "4-苯基嘧啶;对苯基嘧啶;p-Phenylpyrimidine;",
    "alternate_name": "Pyrimidine, 4-phenyl-;4-Phenylpyrimidine;6-Phenylpyrimidine;NSC 84249",
    "duplicated_cas_no": "",
    "SMILES": "C1(=CC=CC=C1)C=2C=CN=CN2",
    "meta_data": {
        "InChI": "InChI=1S/C10H8N2/c1-2-4-9(5-3-1)10-6-7-11-8-12-10/h1-8H",
        "InChIKey": null,
        "Canonical SMILES": "N=1C=NC(=CC1)C=2C=CC=CC2",
        "Molecular Formula": "C<sub>10</sub>H<sub>8</sub>N<sub>2</sub>",
        "Molecular Mass": "156.18",
        "Boiling Point": "117 °C @ Press: 4 Torr",
        "Melting Point": "54-58 °C"
    }
}