{
    "cas_no": "887196-25-0",
    "key_name": "Calcium (β<em>S</em>,δ<em>R</em>)-2-(4-fluorophenyl)-β,δ-dihydroxy-5-(1-methylethyl)-3-phenyl-4-[(phenylamino)carbonyl]-1<em>H</em>-pyrrole-1-heptanoate (1:2)",
    "cn_name": null,
    "alternate_name": "1<em>H</em>-Pyrrole-1-heptanoic acid, 2-(4-fluorophenyl)-β,δ-dihydroxy-5-(1-methylethyl)-3-phenyl-4-[(phenylamino)carbonyl]-, calcium salt (2:1), (β<em>S</em>,δ<em>R</em>)-;Calcium (β<em>S</em>,δ<em>R</em>)-2-(4-fluorophenyl)-β,δ-dihydroxy-5-(1-methylethyl)-3-phenyl-4-[(phenylamino)carbonyl]-1<em>H</em>-pyrrole-1-heptanoate (1:2)",
    "duplicated_cas_no": "",
    "SMILES": "C(NC1=CC=CC=C1)(=O)C=2C(=C(N(CC[C@H](C[C@@H](CC(O)=O)O)O)C2C(C)C)C3=CC=C(F)C=C3)C4=CC=CC=C4.[Ca]",
    "meta_data": {
        "InChI": "InChI=1S/C33H35FN2O5.Ca/c1-21(2)31-30(33(41)35-25-11-7-4-8-12-25)29(22-9-5-3-6-10-22)32(23-13-15-24(34)16-14-23)36(31)18-17-26(37)19-27(38)20-28(39)40;/h3-16,21,26-27,37-38H,17-20H2,1-2H3,(H,35,41)(H,39,40);/t26-,27+;/m1./s1",
        "InChIKey": null,
        "Canonical SMILES": "[Ca].O=C(O)CC(O)CC(O)CCN1C(C=2C=CC(F)=CC2)=C(C=3C=CC=CC3)C(C(=O)NC=4C=CC=CC4)=C1C(C)C",
        "Molecular Formula": "C<sub>33</sub>H<sub>35</sub>FN<sub>2</sub>O<sub>5</sub>.<sup>1</sup>/<sub>2</sub>Ca",
        "Molecular Mass": "",
        "Melting Point": "160 °C (decomp)"
    }
}