{
    "cas_no": "3788-56-5",
    "key_name": "9-Hydroxynonanoic acid",
    "cn_name": "9-羟基壬酸;",
    "alternate_name": "Nonanoic acid, 9-hydroxy-;9-Hydroxynonanoic acid;9-Hydroxypelargonic acid;ω-Hydroxynonanoic acid",
    "duplicated_cas_no": "",
    "SMILES": "C(CCCCCO)CCC(O)=O",
    "meta_data": {
        "InChI": "InChI=1S/C9H18O3/c10-8-6-4-2-1-3-5-7-9(11)12/h10H,1-8H2,(H,11,12)",
        "InChIKey": null,
        "Canonical SMILES": "O=C(O)CCCCCCCCO",
        "Molecular Formula": "C<sub>9</sub>H<sub>18</sub>O<sub>3</sub>",
        "Molecular Mass": "174.24",
        "Melting Point": "53-54 °C"
    }
}