{
    "cas_no": "4747-71-1",
    "key_name": "Cyclopentyl isocyanate",
    "cn_name": null,
    "alternate_name": "Cyclopentane, isocyanato-;Isocyanic acid, cyclopentyl ester;Isocyanatocyclopentane;Cyclopentyl isocyanate;1-Cyclopentyl isocyanate",
    "duplicated_cas_no": "",
    "SMILES": "N(=C=O)C1CCCC1",
    "meta_data": {
        "InChI": "InChI=1S/C6H9NO/c8-5-7-6-3-1-2-4-6/h6H,1-4H2",
        "InChIKey": null,
        "Canonical SMILES": "O=C=NC1CCCC1",
        "Molecular Formula": "C<sub>6</sub>H<sub>9</sub>NO",
        "Molecular Mass": "111.14",
        "Boiling Point": "145-147 °C @ Press: 750 Torr"
    }
}