{
    "cas_no": "18395-90-9",
    "key_name": "Dichlorobis(1,1-dimethylethyl)silane",
    "cn_name": "二叔丁基二氯硅烷;二叔丁基氯硅烷;二叔丁基二氯硅烷;二叔丁基二氯硅烷,95%;",
    "alternate_name": "Silane, dichlorobis(1,1-dimethylethyl)-;Silane, di-<em>tert</em>-butyldichloro-;Dichlorobis(1,1-dimethylethyl)silane;Di-<em>tert</em>-butyldichlorosilane;Dichloro-di-<em>tert</em>-butylsilane",
    "duplicated_cas_no": "",
    "SMILES": "[Si](C(C)(C)C)(C(C)(C)C)(Cl)Cl",
    "meta_data": {
        "InChI": "InChI=1S/C8H18Cl2Si/c1-7(2,3)11(9,10)8(4,5)6/h1-6H3",
        "InChIKey": null,
        "Canonical SMILES": "Cl[Si](Cl)(C(C)(C)C)C(C)(C)C",
        "Molecular Formula": "C<sub>8</sub>H<sub>18</sub>Cl<sub>2</sub>Si",
        "Molecular Mass": "213.22",
        "Boiling Point": "190-191 °C",
        "Melting Point": "-15 °C",
        "Density": "1.009 g/cm³"
    }
}