{
    "cas_no": "85650-56-2",
    "key_name": "Asenapine maleate",
    "cn_name": null,
    "alternate_name": "1<em>H</em>-Dibenz[2,3:6,7]oxepino[4,5-<em>c</em>]pyrrole, 5-chloro-2,3,3a,12b-tetrahydro-2-methyl-, (3a<em>R</em>,12b<em>R</em>)-<em>rel</em>-, (2<em>Z</em>)-2-butenedioate (1:1);1<em>H</em>-Dibenz[2,3:6,7]oxepino[4,5-<em>c</em>]pyrrole, 5-chloro-2,3,3a,12b-tetrahydro-2-methyl-, <em>trans</em>-, (<em>Z</em>)-2-butenedioate (1:1);Org 5222;Asenapine maleate",
    "duplicated_cas_no": "135882-96-1",
    "SMILES": "CN1C[C@]2([C@@](C=3C(OC=4C2=CC(Cl)=CC4)=CC=CC3)(C1)[H])[H].C(=C\\C(O)=O)\\C(O)=O",
    "meta_data": {
        "InChI": "InChI=1/C17H16ClNO.C4H4O4/c1-19-9-14-12-4-2-3-5-16(12)20-17-7-6-11(18)8-13(17)15(14)10-19;5-3(6)1-2-4(7)8/h2-8,14-15H,9-10H2,1H3;1-2H,(H,5,6)(H,7,8)/b;2-1-/t14-,15-;/s2",
        "InChIKey": null,
        "Canonical SMILES": "O=C(O)C=CC(=O)O.ClC1=CC=C2OC=3C=CC=CC3C4CN(C)CC4C2=C1",
        "Molecular Formula": "C<sub>17</sub>H<sub>16</sub>ClNO.C<sub>4</sub>H<sub>4</sub>O<sub>4</sub>",
        "Molecular Mass": "",
        "Melting Point": "143-145 °C"
    }
}