{
    "cas_no": "1674-37-9",
    "key_name": "Octanophenone",
    "cn_name": "正辛基酰苯;辛基酰苯;正辛基酰苯;苯辛酮;正辛苯酮;正辛基酰苯,98%;",
    "alternate_name": "1-Octanone, 1-phenyl-;Octanophenone;1-Phenyl-1-octanone;Caprylophenone;Heptyl phenyl ketone;Phenyl <em>n</em>-heptyl ketone;<em>n</em>-Heptyl phenyl ketone;Phenyl heptyl ketone;NSC 22009;Octanoylbenzene",
    "duplicated_cas_no": "",
    "SMILES": "C(CCCCCCC)(=O)C1=CC=CC=C1",
    "meta_data": {
        "InChI": "InChI=1S/C14H20O/c1-2-3-4-5-9-12-14(15)13-10-7-6-8-11-13/h6-8,10-11H,2-5,9,12H2,1H3",
        "InChIKey": null,
        "Canonical SMILES": "O=C(C=1C=CC=CC1)CCCCCCC",
        "Molecular Formula": "C<sub>14</sub>H<sub>20</sub>O",
        "Molecular Mass": "204.31",
        "Boiling Point": "285 °C",
        "Melting Point": "22.8 °C",
        "Density": "0.94376 g/cm³ @ Temp: 30 °C"
    }
}