{
    "cas_no": "344-18-3",
    "key_name": "2,6-Dibromo-4-fluoroaniline",
    "cn_name": "2,6-二溴-4-氟苯胺;",
    "alternate_name": "Benzenamine, 2,6-dibromo-4-fluoro-;Aniline, 2,6-dibromo-4-fluoro-;2,6-Dibromo-4-fluorobenzenamine;2,6-Dibromo-4-fluoroaniline;NSC 51868;2,6-Dibromo-4-fluoro-phenylamine",
    "duplicated_cas_no": "",
    "SMILES": "NC1=C(Br)C=C(F)C=C1Br",
    "meta_data": {
        "InChI": "InChI=1S/C6H4Br2FN/c7-4-1-3(9)2-5(8)6(4)10/h1-2H,10H2",
        "InChIKey": null,
        "Canonical SMILES": "FC=1C=C(Br)C(N)=C(Br)C1",
        "Molecular Formula": "C<sub>6</sub>H<sub>4</sub>Br<sub>2</sub>FN",
        "Molecular Mass": "268.91",
        "Melting Point": "63-64 °C"
    }
}