{
    "cas_no": "109-16-0",
    "key_name": "Triethylene glycol dimethacrylate",
    "cn_name": "三乙二醇二甲基丙烯酸酯;双甲基丙烯酸二缩三乙二醇酯;三甘醇二-2-甲基丙烯酸酯;",
    "alternate_name": "2-Propenoic acid, 2-methyl-, 1,1′-[1,2-ethanediylbis(oxy-2,1-ethanediyl)] ester;Methacrylic acid, diester with triethylene glycol;2-Propenoic acid, 2-methyl-, 1,2-ethanediylbis(oxy-2,1-ethanediyl) ester;Methacrylic acid, ethylenebis(oxyethylene) ester;Triethylene glycol dimethacrylate;TGM 3;1,2-Bis[2-(methacryloyloxy)ethoxy]ethane;Ethylenebis(oxyethylene) methacrylate;TGM 3PC;NK Ester 3G;TEDMA;TGM 3S;SR 205;TEGDMA;ATM 2 (methacrylate);ATM 2;Esschem 943X7469;Acryester 3ED;Bisomer TEGDMA;Sartomer SR 205;Neomer PM 201;NSC 84260;Light Ester 3EG;Blemmer PDE 150;M 233;EM 328;Neomer PM 20;Luvomaxx TEDMA;Newfrontier NF Bisomer TEGDMA;NK 3G;SR 205NS;T 0498;2-[2-[2-(2-Methylprop-2-enoyloxy)ethoxy]ethoxy]ethyl 2-methylprop-2-enoate;Miramer M 233;V 389;Sartomer SR 205H",
    "duplicated_cas_no": "37291-80-8;52325-89-0;64641-52-7;72145-92-7;76611-53-5;77302-65-9;102770-39-8;107869-00-1;113723-03-8;116117-65-8;120415-48-7;121150-61-6;121484-13-7;143083-95-8;184845-37-2;202134-79-0;212247-03-5;476300-64-8;544700-08-5;664995-57-7;950837-40-8;2237225-55-5",
    "SMILES": "O(C(C(C)=C)=O)CCOCCOCCOC(C(C)=C)=O",
    "meta_data": {
        "InChI": "InChI=1S/C14H22O6/c1-11(2)13(15)19-9-7-17-5-6-18-8-10-20-14(16)12(3)4/h1,3,5-10H2,2,4H3",
        "InChIKey": null,
        "Canonical SMILES": "O=C(OCCOCCOCCOC(=O)C(=C)C)C(=C)C",
        "Molecular Formula": "C<sub>14</sub>H<sub>22</sub>O<sub>6</sub>",
        "Molecular Mass": "286.32",
        "Boiling Point": "155 °C @ Press: 0.98 Torr",
        "Melting Point": "&lt;25 °C",
        "Density": "1.072 g/cm³ @ Temp: 25 °C"
    }
}