{
    "cas_no": "98-05-5",
    "key_name": "Phenylarsonic acid",
    "cn_name": "苯胂酸;",
    "alternate_name": "Arsonic acid, <em>As</em>-phenyl-;Benzenearsonic acid;Arsonic acid, phenyl-;<em>As</em>-Phenylarsonic acid;Phenylarsonic acid;Monophenylarsonic acid;NSC 15566",
    "duplicated_cas_no": "",
    "SMILES": "[As](=O)(O)(O)C1=CC=CC=C1",
    "meta_data": {
        "InChI": "InChI=1S/C6H7AsO3/c8-7(9,10)6-4-2-1-3-5-6/h1-5H,(H2,8,9,10)",
        "InChIKey": null,
        "Canonical SMILES": "O=[As](O)(O)C=1C=CC=CC1",
        "Molecular Formula": "C<sub>6</sub>H<sub>7</sub>AsO<sub>3</sub>",
        "Molecular Mass": "202.04",
        "Boiling Point": "66 °C @ Press: 1 Torr",
        "Melting Point": "158 °C (decomp)",
        "Density": "1.760 g/cm³ @ Temp: 25 °C"
    }
}