{
    "cas_no": "131690-61-4",
    "key_name": "(β<em>R</em>)-β-Amino-4-chlorobenzenepropanoic acid",
    "cn_name": null,
    "alternate_name": "Benzenepropanoic acid, β-amino-4-chloro-, (β<em>R</em>)-;Benzenepropanoic acid, β-amino-4-chloro-, (<em>R</em>)-;(β<em>R</em>)-β-Amino-4-chlorobenzenepropanoic acid;(R)-3-Amino-3-(4-chlorophenyl)propanoic acid;(3R)-3-Azaniumyl-3-(4-chlorophenyl)propanoate;(3R)-3-Amino-3-(4-chlorophenyl)propanoic acid",
    "duplicated_cas_no": "",
    "SMILES": "[C@H](CC(O)=O)(N)C1=CC=C(Cl)C=C1",
    "meta_data": {
        "InChI": "InChI=1S/C9H10ClNO2/c10-7-3-1-6(2-4-7)8(11)5-9(12)13/h1-4,8H,5,11H2,(H,12,13)/t8-/m1/s1",
        "InChIKey": null,
        "Canonical SMILES": "O=C(O)CC(N)C1=CC=C(Cl)C=C1",
        "Molecular Formula": "C<sub>9</sub>H<sub>10</sub>ClNO<sub>2</sub>",
        "Molecular Mass": "199.63",
        "Melting Point": "241-244 °C (sublm)"
    }
}