{
    "cas_no": "50512-35-1",
    "key_name": "Isoprothiolane",
    "cn_name": "稻瘟灵;1,3-二硫杂环戊烷-2-叉丙二酸二异丙酯;",
    "alternate_name": "Propanedioic acid, 2-(1,3-dithiolan-2-ylidene)-, 1,3-bis(1-methylethyl) ester;Propanedioic acid, 1,3-dithiolan-2-ylidene-, bis(1-methylethyl) ester;NNF 109;Diisopropyl 1,3-dithiolan-2-ylidenemalonate;IPT;IPT (pesticide);Isoprothiolane;Fuji-one;NKK 100",
    "duplicated_cas_no": "1135443-34-3",
    "SMILES": "C(C(OC(C)C)=O)(C(OC(C)C)=O)=C1SCCS1",
    "meta_data": {
        "InChI": "InChI=1S/C12H18O4S2/c1-7(2)15-10(13)9(11(14)16-8(3)4)12-17-5-6-18-12/h7-8H,5-6H2,1-4H3",
        "InChIKey": null,
        "Canonical SMILES": "O=C(OC(C)C)C(C(=O)OC(C)C)=C1SCCS1",
        "Molecular Formula": "C<sub>12</sub>H<sub>18</sub>O<sub>4</sub>S<sub>2</sub>",
        "Molecular Mass": "290.40",
        "Boiling Point": "168 °C",
        "Melting Point": "54 °C"
    }
}