{
    "cas_no": "701977-09-5",
    "key_name": "Taranabant",
    "cn_name": null,
    "alternate_name": "Propanamide, <em>N</em>-[(1<em>S</em>,2<em>S</em>)-3-(4-chlorophenyl)-2-(3-cyanophenyl)-1-methylpropyl]-2-methyl-2-[[5-(trifluoromethyl)-2-pyridinyl]oxy]-;<em>N</em>-[(1<em>S</em>,2<em>S</em>)-3-(4-Chlorophenyl)-2-(3-cyanophenyl)-1-methylpropyl]-2-methyl-2-[[5-(trifluoromethyl)-2-pyridinyl]oxy]propanamide;<em>N</em>-[(1S,2S)-3-(4-Chlorophenyl)-2-(3-cyanophenyl)-1-methylpropyl]-2-methyl-2-[(5-(trifluoromethyl)pyridin-2-yl)oxy]propanamide;<em>N</em>-[(1<em>S</em>,2<em>S</em>)-3-(4-Chlorophenyl)-2-(3-cyanophenyl)-1-methylpropyl]-2-methyl-2-[[5-(trifluoromethyl)pyridin-2-yl]oxy]propanamide;Taranabant;MK 0364",
    "duplicated_cas_no": "",
    "SMILES": "[C@@H](CC1=CC=C(Cl)C=C1)([C@@H](NC(C(OC2=CC=C(C(F)(F)F)C=N2)(C)C)=O)C)C3=CC(C#N)=CC=C3",
    "meta_data": {
        "InChI": "InChI=1S/C27H25ClF3N3O2/c1-17(34-25(35)26(2,3)36-24-12-9-21(16-33-24)27(29,30)31)23(14-18-7-10-22(28)11-8-18)20-6-4-5-19(13-20)15-32/h4-13,16-17,23H,14H2,1-3H3,(H,34,35)/t17-,23+/m0/s1",
        "InChIKey": null,
        "Canonical SMILES": "N#CC1=CC=CC(=C1)C(CC2=CC=C(Cl)C=C2)C(NC(=O)C(OC3=NC=C(C=C3)C(F)(F)F)(C)C)C",
        "Molecular Formula": "C<sub>27</sub>H<sub>25</sub>ClF<sub>3</sub>N<sub>3</sub>O<sub>2</sub>",
        "Molecular Mass": "515.95",
        "Melting Point": "106.0-106.3 °C"
    }
}