{
    "cas_no": "59468-90-5",
    "key_name": "1′-Hydroxymidazolam",
    "cn_name": null,
    "alternate_name": "4<em>H</em>-Imidazo[1,5-<em>a</em>][1,4]benzodiazepine-1-methanol, 8-chloro-6-(2-fluorophenyl)-;8-Chloro-6-(2-fluorophenyl)-4<em>H</em>-imidazo[1,5-<em>a</em>][1,4]benzodiazepine-1-methanol;Ro 21-6347;α-Hydroxymidazolam;1-Hydroxymidazolam;1′-Hydroxymidazolam;[8-Chloro-6-(2-fluorophenyl)-4<em>H</em>-imidazo[1,5-<em>a</em>][1,4]benzodiazepin-1-yl]methanol",
    "duplicated_cas_no": "138614-39-8;79683-62-8;81877-60-3",
    "SMILES": "C(O)C=1N2C=3C(C(=NCC2=CN1)C4=C(F)C=CC=C4)=CC(Cl)=CC3",
    "meta_data": {
        "InChI": "InChI=1S/C18H13ClFN3O/c19-11-5-6-16-14(7-11)18(13-3-1-2-4-15(13)20)22-9-12-8-21-17(10-24)23(12)16/h1-8,24H,9-10H2",
        "InChIKey": null,
        "Canonical SMILES": "FC=1C=CC=CC1C2=NCC3=CN=C(N3C=4C=CC(Cl)=CC24)CO",
        "Molecular Formula": "C<sub>18</sub>H<sub>13</sub>ClFN<sub>3</sub>O",
        "Molecular Mass": "341.77",
        "Melting Point": "258-260 °C"
    }
}