{
    "cas_no": "617-94-7",
    "key_name": "2-Phenyl-2-propanol",
    "cn_name": "2-苯异丙醇;&alpha;,&alpha;-二甲基苄醇;",
    "alternate_name": "Benzenemethanol, α,α-dimethyl-;Benzyl alcohol, α,α-dimethyl-;α,α-Dimethylbenzenemethanol;α-Cumyl alcohol;α,α-Dimethylbenzyl alcohol;2-Propanol, 2-phenyl-;Dimethylphenylcarbinol;2-Phenyl-2-propanol;Dimethylphenylmethanol;1-Hydroxycumene;2-Phenylisopropanol;Phenyldimethylcarbinol;1-Methyl-1-phenylethanol;2-Hydroxy-2-phenylpropane;NSC 1261;NSC 212537",
    "duplicated_cas_no": "",
    "SMILES": "C(C)(C)(O)C1=CC=CC=C1",
    "meta_data": {
        "InChI": "InChI=1S/C9H12O/c1-9(2,10)8-6-4-3-5-7-8/h3-7,10H,1-2H3",
        "InChIKey": null,
        "Canonical SMILES": "OC(C=1C=CC=CC1)(C)C",
        "Molecular Formula": "C<sub>9</sub>H<sub>12</sub>O",
        "Molecular Mass": "136.19",
        "Boiling Point": "202 °C @ Press: 760 Torr",
        "Melting Point": "36 °C",
        "Density": "0.9735 g/cm³ @ Temp: 20 °C"
    }
}