{
    "cas_no": "12758-40-6",
    "key_name": "Carboxyethylgermanium sesquioxide",
    "cn_name": "二羧乙基三氧化二锗;",
    "alternate_name": "Propanoic acid, 3,3′-(1,3-dioxo-1,3-digermoxanediyl)bis-;3,3′-(1,3-Dioxo-1,3-digermoxanediyl)bis[propanoic acid];Carboxyethylgermanium sesquioxide;2-(Carboxyethyl)germanium sesquioxide;Ge 132;SK 818;Proxigermanium;β-Carboxyethylgermanium sesquioxide;Arlamol GEO;Rapagermanium;Serocion;Repagermanium;NSC 267004;3-[[2-Carboxyethyl(oxo)germyl]oxy-oxogermyl]propanoic acid",
    "duplicated_cas_no": "27031-31-8;31434-91-0;69992-83-2;83172-76-3;122402-75-9;1576423-70-5",
    "SMILES": "[Ge](O[Ge](CCC(O)=O)=O)(CCC(O)=O)=O",
    "meta_data": {
        "InChI": "InChI=1S/C6H10Ge2O7/c9-5(10)1-3-7(13)15-8(14)4-2-6(11)12/h1-4H2,(H,9,10)(H,11,12)",
        "InChIKey": null,
        "Canonical SMILES": "O=C(O)CC[Ge](=O)O[Ge](=O)CCC(=O)O",
        "Molecular Formula": "C<sub>6</sub>H<sub>10</sub>Ge<sub>2</sub>O<sub>7</sub>",
        "Molecular Mass": "339.42",
        "Melting Point": "270 °C (decomp)"
    }
}