{
    "cas_no": "52061-75-3",
    "key_name": "2,2-Dipropylpentanoic acid",
    "cn_name": null,
    "alternate_name": "Pentanoic acid, 2,2-dipropyl-;Valeric acid, 2,2-dipropyl-;2,2-Dipropylpentanoic acid;Tripropylacetic acid;2,2-Dipropyl-valeric acid",
    "duplicated_cas_no": "",
    "SMILES": "C(CCC)(CCC)(CCC)C(O)=O",
    "meta_data": {
        "InChI": "InChI=1S/C11H22O2/c1-4-7-11(8-5-2,9-6-3)10(12)13/h4-9H2,1-3H3,(H,12,13)",
        "InChIKey": null,
        "Canonical SMILES": "O=C(O)C(CCC)(CCC)CCC",
        "Molecular Formula": "C<sub>11</sub>H<sub>22</sub>O<sub>2</sub>",
        "Molecular Mass": "186.29",
        "Boiling Point": "114-117 °C @ Press: 5 Torr",
        "Melting Point": "65.5-67.5 °C"
    }
}