{
    "cas_no": "52025-34-0",
    "key_name": "6-Ethoxypyridin-3-amine",
    "cn_name": "5-氨基-2-乙氧基吡啶;",
    "alternate_name": "3-Pyridinamine, 6-ethoxy-;Pyridine, 5-amino-2-ethoxy-;6-Ethoxy-3-pyridinamine;5-Amino-2-ethoxypyridine;2-Ethoxy-5-aminopyridine;6-Ethoxypyridin-3-ylamine;6-Ethoxypyridin-3-amine",
    "duplicated_cas_no": "",
    "SMILES": "O(CC)C1=CC=C(N)C=N1",
    "meta_data": {
        "InChI": "InChI=1S/C7H10N2O/c1-2-10-7-4-3-6(8)5-9-7/h3-5H,2,8H2,1H3",
        "InChIKey": null,
        "Canonical SMILES": "N=1C=C(N)C=CC1OCC",
        "Molecular Formula": "C<sub>7</sub>H<sub>10</sub>N<sub>2</sub>O",
        "Molecular Mass": "138.17",
        "Melting Point": "67.5-68.5 °C"
    }
}