{
    "cas_no": "17407-09-9",
    "key_name": "2-(Trimethylsilyloxy)ethyl methacrylate",
    "cn_name": "2-(三甲基硅氧基)乙基甲基丙烯酸盐;",
    "alternate_name": "2-Propenoic acid, 2-methyl-, 2-[(trimethylsilyl)oxy]ethyl ester;Methacrylic acid, 2-(trimethylsiloxy)ethyl ester;Ethanol, 2-(trimethylsiloxy)-, methacrylate;Trimethylsiloxyethyl methacrylate;2-(Trimethylsiloxy)ethyl methacrylate;SIM 6481.0;2-(Trimethylsilyloxy)ethyl methacrylate;2-(Trimethoxysilyl)ethyl methacrylate;2-Trimethylsilyloxyethyl 2-methylprop-2-enoate;2-[(Trimethylsilyl)oxy]ethyl 2-methylprop-2-enoate",
    "duplicated_cas_no": "",
    "SMILES": "O(CCO[Si](C)(C)C)C(C(C)=C)=O",
    "meta_data": {
        "InChI": "InChI=1S/C9H18O3Si/c1-8(2)9(10)11-6-7-12-13(3,4)5/h1,6-7H2,2-5H3",
        "InChIKey": null,
        "Canonical SMILES": "O=C(OCCO[Si](C)(C)C)C(=C)C",
        "Molecular Formula": "C<sub>9</sub>H<sub>18</sub>O<sub>3</sub>Si",
        "Molecular Mass": "202.32",
        "Boiling Point": "65 °C @ Press: 0.9 Torr",
        "Melting Point": "60-62 °C",
        "Density": "0.928 g/cm³"
    }
}