{
    "cas_no": "24413-04-5",
    "key_name": "[<em>p</em>-(Chloromethyl)phenyl]trimethoxysilane",
    "cn_name": "4-(氯甲基)苯基三甲氧基硅烷;",
    "alternate_name": "Benzene, 1-(chloromethyl)-4-(trimethoxysilyl)-;Silane, [4-(chloromethyl)phenyl]trimethoxy-;1-(Chloromethyl)-4-(trimethoxysilyl)benzene;[<em>p</em>-(Chloromethyl)phenyl]trimethoxysilane;[4-(Chloromethyl)phenyl]trimethoxysilane;<em>p</em>-(Trimethoxysilyl)benzyl chloride;SIC 2296.2",
    "duplicated_cas_no": "1210069-69-4",
    "SMILES": "[Si](OC)(OC)(OC)C1=CC=C(CCl)C=C1",
    "meta_data": {
        "InChI": "InChI=1S/C10H15ClO3Si/c1-12-15(13-2,14-3)10-6-4-9(8-11)5-7-10/h4-7H,8H2,1-3H3",
        "InChIKey": null,
        "Canonical SMILES": "ClCC1=CC=C(C=C1)[Si](OC)(OC)OC",
        "Molecular Formula": "C<sub>10</sub>H<sub>15</sub>ClO<sub>3</sub>Si",
        "Molecular Mass": "246.76",
        "Boiling Point": "134-143 °C @ Press: 10 Torr",
        "Density": "1.14 g/cm³"
    }
}