{
    "cas_no": "351329-88-9",
    "key_name": "<em>N</em>-(3,5-Dimethyltricyclo[3.3.1.1<sup>3,7</sup>]dec-1-yl)formamide",
    "cn_name": null,
    "alternate_name": "Formamide, <em>N</em>-(3,5-dimethyltricyclo[3.3.1.1<sup>3,7</sup>]dec-1-yl)-;<em>N</em>-(3,5-Dimethyltricyclo[3.3.1.1<sup>3,7</sup>]dec-1-yl)formamide;1-Formylamino-3,5-dimethyladamantane;<em>N</em>-(3,5-Dimethyladamantan-1-yl)formamide;(3,5-Dimethyladamantan-1-yl)formamide;<em>N</em>-Formyl-3,5-dimethyladamantane-1-amine",
    "duplicated_cas_no": "",
    "SMILES": "N(C=O)C12CC3(C)CC(C)(C1)CC(C2)C3",
    "meta_data": {
        "InChI": "InChI=1S/C13H21NO/c1-11-3-10-4-12(2,6-11)8-13(5-10,7-11)14-9-15/h9-10H,3-8H2,1-2H3,(H,14,15)",
        "InChIKey": null,
        "Canonical SMILES": "O=CNC12CC3CC(C)(C1)CC(C)(C3)C2",
        "Molecular Formula": "C<sub>13</sub>H<sub>21</sub>NO",
        "Molecular Mass": "207.31",
        "Melting Point": "69.5 °C"
    }
}