{
    "cas_no": "613-30-9",
    "key_name": "2-Methyl-6-nitroquinoline",
    "cn_name": "2-甲基-6-硝基喹啉;",
    "alternate_name": "Quinoline, 2-methyl-6-nitro-;Quinaldine, 6-nitro-;2-Methyl-6-nitroquinoline;6-Nitroquinaldine",
    "duplicated_cas_no": "",
    "SMILES": "N(=O)(=O)C1=CC2=C(N=C(C)C=C2)C=C1",
    "meta_data": {
        "InChI": "InChI=1S/C10H8N2O2/c1-7-2-3-8-6-9(12(13)14)4-5-10(8)11-7/h2-6H,1H3",
        "InChIKey": null,
        "Canonical SMILES": "O=N(=O)C=1C=CC=2N=C(C=CC2C1)C",
        "Molecular Formula": "C<sub>10</sub>H<sub>8</sub>N<sub>2</sub>O<sub>2</sub>",
        "Molecular Mass": "188.18",
        "Melting Point": "164 °C"
    }
}