{
    "cas_no": "13363-59-2",
    "key_name": "Benzoic acid, 2,2′-dithiobis[3-methyl-",
    "cn_name": "2,2\"-二硫双(3-甲基苯甲酸);双(3-甲基苯甲酸)-2,2\"-二硫醚;",
    "alternate_name": "Benzoic acid, 2,2′-dithiobis[3-methyl-;<em>m</em>-Toluic acid, 2,2′-dithiodi-;2,2′-Dithiobis(3-methylbenzoic acid);2-[(2-Carboxy-6-methylphenyl)disulfanyl]-3-methylbenzoic acid",
    "duplicated_cas_no": "",
    "SMILES": "S(SC1=C(C(O)=O)C=CC=C1C)C2=C(C(O)=O)C=CC=C2C",
    "meta_data": {
        "InChI": "InChI=1S/C16H14O4S2/c1-9-5-3-7-11(15(17)18)13(9)21-22-14-10(2)6-4-8-12(14)16(19)20/h3-8H,1-2H3,(H,17,18)(H,19,20)",
        "InChIKey": null,
        "Canonical SMILES": "O=C(O)C1=CC=CC(=C1SSC=2C(=CC=CC2C)C(=O)O)C",
        "Molecular Formula": "C<sub>16</sub>H<sub>14</sub>O<sub>4</sub>S<sub>2</sub>",
        "Molecular Mass": "334.41",
        "Melting Point": "251-253 °C"
    }
}