{
    "cas_no": "714272-27-2",
    "key_name": "Plinabulin",
    "cn_name": null,
    "alternate_name": "2,5-Piperazinedione, 3-[[5-(1,1-dimethylethyl)-1<em>H</em>-imidazol-4-yl]methylene]-6-(phenylmethylene)-, (3<em>Z</em>,6<em>Z</em>)-;(3<em>Z</em>,6<em>Z</em>)-3-[[5-(1,1-Dimethylethyl)-1<em>H</em>-imidazol-4-yl]methylene]-6-(phenylmethylene)-2,5-piperazinedione;NPI 2358;Plinabulin;BPI 2358",
    "duplicated_cas_no": "",
    "SMILES": "C(\\C1=C(C(C)(C)C)N=CN1)=C\\2/C(=O)N/C(=C\\C3=CC=CC=C3)/C(=O)N2",
    "meta_data": {
        "InChI": "InChI=1S/C19H20N4O2/c1-19(2,3)16-13(20-11-21-16)10-15-18(25)22-14(17(24)23-15)9-12-7-5-4-6-8-12/h4-11H,1-3H3,(H,20,21)(H,22,25)(H,23,24)/b14-9-,15-10-",
        "InChIKey": null,
        "Canonical SMILES": "O=C1NC(=CC=2NC=NC2C(C)(C)C)C(=O)NC1=CC=3C=CC=CC3",
        "Molecular Formula": "C<sub>19</sub>H<sub>20</sub>N<sub>4</sub>O<sub>2</sub>",
        "Molecular Mass": "336.39",
        "Melting Point": "160-162 °C"
    }
}