{
    "cas_no": "298-08-8",
    "key_name": "(2-Oxopropyl)amine",
    "cn_name": null,
    "alternate_name": "2-Propanone, 1-amino-;2-Propanone, amino-;Aminoacetone;1-Amino-2-propanone;α-Aminoacetone;(2-Oxopropyl)amine",
    "duplicated_cas_no": "",
    "SMILES": "C(CN)(C)=O",
    "meta_data": {
        "InChI": "InChI=1S/C3H7NO/c1-3(5)2-4/h2,4H2,1H3",
        "InChIKey": null,
        "Canonical SMILES": "O=C(C)CN",
        "Molecular Formula": "C<sub>3</sub>H<sub>7</sub>NO",
        "Molecular Mass": "73.09",
        "Melting Point": "130-131 °C"
    }
}