{
    "cas_no": "119413-54-6",
    "key_name": "Topotecan hydrochloride",
    "cn_name": "盐酸拓扑替康;(S)-10-[(二甲基氨基)甲基]-4-乙基-4,9-二羟基-1H-吡喃并[3\",4\":6,7]氮茚并[1,2-b]-喹啉-3-14;",
    "alternate_name": "1<em>H</em>-Pyrano[3′,4′:6,7]indolizino[1,2-<em>b</em>]quinoline-3,14(4<em>H</em>,12<em>H</em>)-dione, 10-[(dimethylamino)methyl]-4-ethyl-4,9-dihydroxy-, hydrochloride (1:1), (4<em>S</em>)-;1<em>H</em>-Pyrano[3′,4′:6,7]indolizino[1,2-<em>b</em>]quinoline-3,14(4<em>H</em>,12<em>H</em>)-dione, 10-[(dimethylamino)methyl]-4-ethyl-4,9-dihydroxy-, monohydrochloride, (<em>S</em>)-;1<em>H</em>-Pyrano[3′,4′:6,7]indolizino[1,2-<em>b</em>]quinoline-3,14(4<em>H</em>,12<em>H</em>)-dione, 10-[(dimethylamino)methyl]-4-ethyl-4,9-dihydroxy-, monohydrochloride, (4<em>S</em>)-;SKF 104864A;NSC 609669;Topotecan hydrochloride;Hycamtin;SKFS 104864A;Nogitecan hydrochloride;Topotecan chlorohydrate;(<em>S</em>)-10-[(Dimethylamino)methyl]-4-ethyl-4,9-dihydroxy-1<em>H</em>-pyrano[3′,4′:6,7]indolizino[<em>l</em>,2-<em>b</em>]quinoline-3,14(4<em>H</em>,12<em>H</em>)-dione monohydrochloride;Xinze",
    "duplicated_cas_no": "",
    "SMILES": "C(C)[C@]1(O)C2=C(C(=O)N3C(=C2)C=4C(C3)=CC=5C(N4)=CC=C(O)C5CN(C)C)COC1=O.Cl",
    "meta_data": {
        "InChI": "InChI=1S/C23H23N3O5.ClH/c1-4-23(30)16-8-18-20-12(9-26(18)21(28)15(16)11-31-22(23)29)7-13-14(10-25(2)3)19(27)6-5-17(13)24-20;/h5-8,27,30H,4,9-11H2,1-3H3;1H/t23-;/m0./s1",
        "InChIKey": null,
        "Canonical SMILES": "Cl.O=C1OCC=2C(=O)N3C(=CC2C1(O)CC)C=4N=C5C=CC(O)=C(C5=CC4C3)CN(C)C",
        "Molecular Formula": "C<sub>23</sub>H<sub>23</sub>N<sub>3</sub>O<sub>5</sub>.ClH",
        "Molecular Mass": "",
        "Melting Point": "215 °C (decomp)"
    }
}