{
    "cas_no": "3530-82-3",
    "key_name": "5-(Phenylmethyl)-2,4-imidazolidinedione",
    "cn_name": "5-苄基海因;5-苄基-2,4-咪唑啉二酮;",
    "alternate_name": "2,4-Imidazolidinedione, 5-(phenylmethyl)-;Hydantoin, 5-benzyl-;5-(Phenylmethyl)-2,4-imidazolidinedione;5-Benzylhydantoin;Benzylhydantoin;<span class=\"text-smallcaps\">DL</span>-5-Benzylhydantoin;NSC 30459;NSC 50842",
    "duplicated_cas_no": "62698-08-2",
    "SMILES": "C(C1C(=O)NC(=O)N1)C2=CC=CC=C2",
    "meta_data": {
        "InChI": "InChI=1S/C10H10N2O2/c13-9-8(11-10(14)12-9)6-7-4-2-1-3-5-7/h1-5,8H,6H2,(H2,11,12,13,14)",
        "InChIKey": null,
        "Canonical SMILES": "O=C1NC(=O)C(N1)CC=2C=CC=CC2",
        "Molecular Formula": "C<sub>10</sub>H<sub>10</sub>N<sub>2</sub>O<sub>2</sub>",
        "Molecular Mass": "190.20",
        "Melting Point": "188-189 °C"
    }
}