{
    "cas_no": "10040-45-6",
    "key_name": "Sodium picosulfate",
    "cn_name": null,
    "alternate_name": "Phenol, 4,4′-(2-pyridinylmethylene)bis-, 1,1′-bis(hydrogen sulfate), sodium salt (1:2);Phenol, 4,4′-(2-pyridylmethylene)di-, bis(hydrogen sulfate) (ester) disodium salt;Phenol, 4,4′-(2-pyridinylmethylene)bis-, bis(hydrogen sulfate) (ester), disodium salt;4,4′-(2-Pyridylmethylene)diphenol bis(hydrogen sulfate) disodium salt;Sodium picosulfate;Picosulfol;Disodium bis[4-[(hydroxysulfonyl)oxy]phenyl](2-pyridyl)methane;Picosulfate sodium;Evacuol;Guttalax;Laxoberal;Rapilax;DA 1773;Laxoberon;Picolax;LA 391;Pico-Salax;Guttalax-Fher;Neopax;PicoPrep",
    "duplicated_cas_no": "27946-28-7;144857-73-8;1990499-10-9",
    "SMILES": "C(C1=CC=C(OS(=O)(=O)O)C=C1)(C2=CC=C(OS(=O)(=O)O)C=C2)C3=CC=CC=N3.[Na]",
    "meta_data": {
        "InChI": "InChI=1S/C18H15NO8S2.2Na/c20-28(21,22)26-15-8-4-13(5-9-15)18(17-3-1-2-12-19-17)14-6-10-16(11-7-14)27-29(23,24)25;;/h1-12,18H,(H,20,21,22)(H,23,24,25);;",
        "InChIKey": null,
        "Canonical SMILES": "[Na].O=S(=O)(O)OC1=CC=C(C=C1)C(C2=NC=CC=C2)C3=CC=C(OS(=O)(=O)O)C=C3",
        "Molecular Formula": "C<sub>18</sub>H<sub>15</sub>NO<sub>8</sub>S<sub>2</sub>.2Na",
        "Molecular Mass": "",
        "Melting Point": "273 °C (decomp)"
    }
}