{
    "cas_no": "22720-75-8",
    "key_name": "2-Acetylbenzothiophene",
    "cn_name": "2-乙酰基苯并噻吩;",
    "alternate_name": "Ethanone, 1-benzo[<em>b</em>]thien-2-yl-;Ketone, benzo[<em>b</em>]thien-2-yl methyl;1-Benzo[<em>b</em>]thien-2-ylethanone;2-Acetylbenzothiophene;2-Acetylbenzo[<em>b</em>]thiophene;1-(Benzo[<em>b</em>]thiophen-2-yl)ethan-1-one;1-Benzo[<em>b</em>]thiophen-2-ylethanone;1-(Benzothiophen-2-yl)ethanone;1-(Benzothien-2-yl)ethanone;1-(1-Benzothiophen-2-yl)ethan-1-one;1-(1-Benzothiophen-2-yl)ethanone;1-(Benzo[<em>b</em>]thien-2-yl)ethan-1-one",
    "duplicated_cas_no": "",
    "SMILES": "C(C)(=O)C1=CC=2C(S1)=CC=CC2",
    "meta_data": {
        "InChI": "InChI=1S/C10H8OS/c1-7(11)10-6-8-4-2-3-5-9(8)12-10/h2-6H,1H3",
        "InChIKey": null,
        "Canonical SMILES": "O=C(C=1SC=2C=CC=CC2C1)C",
        "Molecular Formula": "C<sub>10</sub>H<sub>8</sub>OS",
        "Molecular Mass": "176.23",
        "Melting Point": "88-89 °C"
    }
}