{
    "cas_no": "105-29-3",
    "key_name": "3-Methyl-2-penten-4-yn-1-ol",
    "cn_name": "3-甲基-2-戊烯-4-炔醇;",
    "alternate_name": "2-Penten-4-yn-1-ol, 3-methyl-;3-Methyl-2-penten-4-yn-1-ol;1-Hydroxy-3-methyl-2-penten-4-yne;5-Hydroxy-3-methylpent-3-en-1-yne;1-Pentol;3-Methyl-2-penten-4-ynol",
    "duplicated_cas_no": "",
    "SMILES": "C(=CCO)(C#C)C",
    "meta_data": {
        "InChI": "InChI=1S/C6H8O/c1-3-6(2)4-5-7/h1,4,7H,5H2,2H3",
        "InChIKey": null,
        "Canonical SMILES": "C#CC(=CCO)C",
        "Molecular Formula": "C<sub>6</sub>H<sub>8</sub>O",
        "Molecular Mass": "96.13",
        "Boiling Point": "65 °C",
        "Melting Point": "&lt;25 °C"
    }
}