{
    "cas_no": "1653-30-1",
    "key_name": "(±)-2-Undecanol",
    "cn_name": null,
    "alternate_name": "2-Undecanol;2-Hendecanol;Methyl nonyl carbinol;<em>sec</em>-Undecyl alcohol;2-Hydroxyundecane;α-Methyldecanol;(±)-2-Undecanol;<em>sec</em>-Undecanol",
    "duplicated_cas_no": "113666-64-1",
    "SMILES": "C(CCCCCC)CCC(C)O",
    "meta_data": {
        "InChI": "InChI=1S/C11H24O/c1-3-4-5-6-7-8-9-10-11(2)12/h11-12H,3-10H2,1-2H3",
        "InChIKey": null,
        "Canonical SMILES": "OC(C)CCCCCCCCC",
        "Molecular Formula": "C<sub>11</sub>H<sub>24</sub>O",
        "Molecular Mass": "172.31",
        "Boiling Point": "228-233 °C",
        "Melting Point": "48 °C",
        "Density": "0.827 g/cm³ @ Temp: 23 °C"
    }
}