{
    "cas_no": "1622-79-3",
    "key_name": "Melperone hydrochloride",
    "cn_name": null,
    "alternate_name": "1-Butanone, 1-(4-fluorophenyl)-4-(4-methyl-1-piperidinyl)-, hydrochloride (1:1);Butyrophenone, 4′-fluoro-4-(4-methylpiperidino)-, hydrochloride;1-Butanone, 1-(4-fluorophenyl)-4-(4-methyl-1-piperidinyl)-, hydrochloride;FG 5111;Methylperone hydrochloride;Eunerpan;Methylperone chloride;Melperone hydrochloride;Melpax;1-(4-Fluorophenyl)-4-(4-methylpiperidin-1-yl)butan-1-one hydrochloride",
    "duplicated_cas_no": "",
    "SMILES": "C(CCCN1CCC(C)CC1)(=O)C2=CC=C(F)C=C2.Cl",
    "meta_data": {
        "InChI": "InChI=1S/C16H22FNO.ClH/c1-13-8-11-18(12-9-13)10-2-3-16(19)14-4-6-15(17)7-5-14;/h4-7,13H,2-3,8-12H2,1H3;1H",
        "InChIKey": null,
        "Canonical SMILES": "Cl.O=C(C1=CC=C(F)C=C1)CCCN2CCC(C)CC2",
        "Molecular Formula": "C<sub>16</sub>H<sub>22</sub>FNO.ClH",
        "Molecular Mass": "",
        "Melting Point": "209-211 °C"
    }
}