{
    "cas_no": "50675-18-8",
    "key_name": "Tetrahydro-2<em>H</em>-pyran-4-carboxaldehyde",
    "cn_name": null,
    "alternate_name": "2<em>H</em>-Pyran-4-carboxaldehyde, tetrahydro-;Pyran-4-carboxaldehyde, tetrahydro-;Tetrahydro-2<em>H</em>-pyran-4-carboxaldehyde;Tetrahydropyran-4-carboxaldehyde;4-Formyltetrahydropyran;4-Tetrahydropyrancarbaldehyde;Tetrahydropyranyl-4-carboxaldehyde;Oxane-4-carboxaldehyde;4-Oxanaldehyde;Tetrahydro-2<em>H</em>-pyran-4-carbaldehyde",
    "duplicated_cas_no": "",
    "SMILES": "C(=O)C1CCOCC1",
    "meta_data": {
        "InChI": "InChI=1S/C6H10O2/c7-5-6-1-3-8-4-2-6/h5-6H,1-4H2",
        "InChIKey": null,
        "Canonical SMILES": "O=CC1CCOCC1",
        "Molecular Formula": "C<sub>6</sub>H<sub>10</sub>O<sub>2</sub>",
        "Molecular Mass": "114.14",
        "Boiling Point": "74-77 °C @ Press: 11 Torr"
    }
}