{
    "cas_no": "62613-82-5",
    "key_name": "Oxiracetam",
    "cn_name": "奥拉西坦;4-羟基-2-氧代吡咯烷-N-乙酰胺;",
    "alternate_name": "1-Pyrrolidineacetamide, 4-hydroxy-2-oxo-;4-Hydroxy-2-oxo-1-pyrrolidineacetamide;Oxiracetam;ISF 2522;Hydroxypiracetam;CT 848;CGP 21690;Neuractiv;Neuromet;CGP 21690E;2-(4-Hydroxy-2-oxopyrrolidin-1-yl)acetamide;4-Hydroxypyrrolidone-2-acetamide;Oxyracetam",
    "duplicated_cas_no": "68567-97-5",
    "SMILES": "C(C(N)=O)N1CC(O)CC1=O",
    "meta_data": {
        "InChI": "InChI=1S/C6H10N2O3/c7-5(10)3-8-2-4(9)1-6(8)11/h4,9H,1-3H2,(H2,7,10)",
        "InChIKey": null,
        "Canonical SMILES": "O=C(N)CN1C(=O)CC(O)C1",
        "Molecular Formula": "C<sub>6</sub>H<sub>10</sub>N<sub>2</sub>O<sub>3</sub>",
        "Molecular Mass": "158.16",
        "Melting Point": "165-168 °C"
    }
}