{
    "cas_no": "135-67-1",
    "key_name": "Phenoxazine",
    "cn_name": "吩嗪;吩噁嗪;",
    "alternate_name": "10<em>H</em>-Phenoxazine;Phenoxazine;2,3;5,6-Dibenzo-1,4-oxazine;Phenazoxine;NSC 72990",
    "duplicated_cas_no": "",
    "SMILES": "C1=2C(OC=3C(N1)=CC=CC3)=CC=CC2",
    "meta_data": {
        "InChI": "InChI=1S/C12H9NO/c1-3-7-11-9(5-1)13-10-6-2-4-8-12(10)14-11/h1-8,13H",
        "InChIKey": null,
        "Canonical SMILES": "O1C=2C=CC=CC2NC=3C=CC=CC13",
        "Molecular Formula": "C<sub>12</sub>H<sub>9</sub>NO",
        "Molecular Mass": "183.21",
        "Boiling Point": "215 °C @ Press: 4 Torr",
        "Melting Point": "156 °C"
    }
}