{
    "cas_no": "16265-04-6",
    "key_name": "2-Chloro-1<em>H</em>-imidazole",
    "cn_name": "2-氯咪唑;2-氯-1H-咪唑;",
    "alternate_name": "1<em>H</em>-Imidazole, 2-chloro-;Imidazole, 2-chloro-;2-Chloro-1<em>H</em>-imidazole;2-Chloroimidazole",
    "duplicated_cas_no": "151223-75-5",
    "SMILES": "ClC=1NC=CN1",
    "meta_data": {
        "InChI": "InChI=1S/C3H3ClN2/c4-3-5-1-2-6-3/h1-2H,(H,5,6)",
        "InChIKey": null,
        "Canonical SMILES": "ClC1=NC=CN1",
        "Molecular Formula": "C<sub>3</sub>H<sub>3</sub>ClN<sub>2</sub>",
        "Molecular Mass": "102.52",
        "Melting Point": "162-163 °C"
    }
}