{
    "cas_no": "138-41-0",
    "key_name": "4-Carboxybenzenesulfonamide",
    "cn_name": "对羧基苯磺酰胺;4-磺胺基苯甲酸;4-氨磺酰苯甲酸;对磺酰胺苯甲酸;",
    "alternate_name": "Benzoic acid, 4-(aminosulfonyl)-;Benzoic acid, <em>p</em>-sulfamoyl-;Benzoic acid, <em>p</em>-sulfamyl-;4-(Aminosulfonyl)benzoic acid;Benzoic acid <em>p</em>-sulfamide;<em>p</em>-Carboxybenzenesulfonamide;Carzenide;Dirnate;<em>p</em>-Sulfamoylbenzoic acid;<em>p</em>-Sulfamylbenzoic acid;<em>p</em>-Sulfonamidobenzoic acid;4-Carboxybenzenesulfonamide;<em>p</em>-Aminobenzoic acid sulfamide;4-Sulfamoylbenzoic acid;NSC 22976;NSC 683540;<em>p</em>-Aminosulfonylbenzoic acid",
    "duplicated_cas_no": "",
    "SMILES": "S(N)(=O)(=O)C1=CC=C(C(O)=O)C=C1",
    "meta_data": {
        "InChI": "InChI=1S/C7H7NO4S/c8-13(11,12)6-3-1-5(2-4-6)7(9)10/h1-4H,(H,9,10)(H2,8,11,12)",
        "InChIKey": null,
        "Canonical SMILES": "O=C(O)C1=CC=C(C=C1)S(=O)(=O)N",
        "Molecular Formula": "C<sub>7</sub>H<sub>7</sub>NO<sub>4</sub>S",
        "Molecular Mass": "201.20",
        "Melting Point": "290.5 °C (decomp)"
    }
}