{
    "cas_no": "775-06-4",
    "key_name": "<span class=\"text-smallcaps\">D</smallcap><smallcap>L</span>-<em>m</em>-Tyrosine",
    "cn_name": "DL-间酪氨酸;3-(3-羟基苯基)-DL-丙氨酸;",
    "alternate_name": "Phenylalanine, 3-hydroxy-;<em>m</em>-Tyrosine, <span class=\"text-smallcaps\">DL</span>-;<span class=\"text-smallcaps\">DL</span>-Phenylalanine, 3-hydroxy-;3-Hydroxyphenylalanine;<span class=\"text-smallcaps\">DL</span>-α-<em>m</em>-Tyrosine;<span class=\"text-smallcaps\">DL</span>-3-(<em>m</em>-Hydroxyphenyl)alanine;<em>m</em>-<span class=\"text-smallcaps\">DL</span>-Tyrosine;<span class=\"text-smallcaps\">DL</span>-3-Hydroxyphenylalanine;<span class=\"text-smallcaps\">DL</span>-Metatyrosine;Metatyrosine;<span class=\"text-smallcaps\">DL</span>-<em>m</em>-Hydroxyphenylalanine;<em>m</em>-Tyrosine;<em>m</em>-Hydroxyphenylalanine;<span class=\"text-smallcaps\">D</smallcap><smallcap>L</span>-<em>m</em>-Tyrosine;NSC 89304;2-Amino-3-(3-hydroxyphenyl)propanoic acid;<em>meta</em>-Tyrosine;α-Amino-3-hydroxybenzenepropanoic acid;2-Azaniumyl-3-(3-hydroxyphenyl)propanoate",
    "duplicated_cas_no": "2180-37-2",
    "SMILES": "C(C(C(O)=O)N)C1=CC(O)=CC=C1",
    "meta_data": {
        "InChI": "InChI=1S/C9H11NO3/c10-8(9(12)13)5-6-2-1-3-7(11)4-6/h1-4,8,11H,5,10H2,(H,12,13)",
        "InChIKey": null,
        "Canonical SMILES": "O=C(O)C(N)CC=1C=CC=C(O)C1",
        "Molecular Formula": "C<sub>9</sub>H<sub>11</sub>NO<sub>3</sub>",
        "Molecular Mass": "181.19",
        "Melting Point": "275 °C"
    }
}