{
    "cas_no": "147-61-5",
    "key_name": "5-(Hydroxymethyl)-6-methyl-2,4(1<em>H</em>,3<em>H</em>)-pyrimidinedione",
    "cn_name": null,
    "alternate_name": "2,4(1<em>H</em>,3<em>H</em>)-Pyrimidinedione, 5-(hydroxymethyl)-6-methyl-;Uracil, 5-(hydroxymethyl)-6-methyl-;5-(Hydroxymethyl)-6-methyl-2,4(1<em>H</em>,3<em>H</em>)-pyrimidinedione;5-Hydroxymethyl-6-methyluracil;Pentoxyl;4-Methyl-5-hydroxymethyluracil;5-Hydroxymethyl-4-methyluracil;Pentoxil;NSC 13202;NSC 667247;MeSH ID: D010432",
    "duplicated_cas_no": "",
    "SMILES": "C(O)C1=C(C)NC(=O)NC1=O",
    "meta_data": {
        "InChI": "InChI=1S/C6H8N2O3/c1-3-4(2-9)5(10)8-6(11)7-3/h9H,2H2,1H3,(H2,7,8,10,11)",
        "InChIKey": null,
        "Canonical SMILES": "O=C1NC(=O)C(=C(N1)C)CO",
        "Molecular Formula": "C<sub>6</sub>H<sub>8</sub>N<sub>2</sub>O<sub>3</sub>",
        "Molecular Mass": "156.14",
        "Melting Point": "314-315 °C"
    }
}