{
    "cas_no": "1476-52-4",
    "key_name": "(±)-Desethylchloroquine",
    "cn_name": null,
    "alternate_name": "1,4-Pentanediamine, <em>N</em><sup>4</sup>-(7-chloro-4-quinolinyl)-<em>N</em><sup>1</sup>-ethyl-;Quinoline, 7-chloro-4-[[4-(ethylamino)-1-methylbutyl]amino]-;<em>N</em><sup>4</sup>-(7-Chloro-4-quinolinyl)-<em>N</em><sup>1</sup>-ethyl-1,4-pentanediamine;Chloroquine, deethyl-;Deethylchloroquine;<em>N</em>-Deethylchloroquine;4-[[1-Methyl-4-((ethylamino)butyl]amino)]-7-chloroquinoline;Desethylchloroquine;WR 29623;Monodesethylchloroquine;7-Chloro-4-(4-<em>N</em>-ethylamino-1-methylbutylamino)quinoline;Monodeethylchloroquine;(±)-Desethylchloroquine;NSC 13254;1,4-Pentanediamine N4-(7-chloro-4-quinolinyl)-N1-ethyl-",
    "duplicated_cas_no": "137360-13-5",
    "SMILES": "N(C(CCCNCC)C)C=1C2=C(N=CC1)C=C(Cl)C=C2",
    "meta_data": {
        "InChI": "InChI=1S/C16H22ClN3/c1-3-18-9-4-5-12(2)20-15-8-10-19-16-11-13(17)6-7-14(15)16/h6-8,10-12,18H,3-5,9H2,1-2H3,(H,19,20)",
        "InChIKey": null,
        "Canonical SMILES": "ClC=1C=CC=2C(=NC=CC2NC(C)CCCNCC)C1",
        "Molecular Formula": "C<sub>16</sub>H<sub>22</sub>ClN<sub>3</sub>",
        "Molecular Mass": "291.82",
        "Boiling Point": "173-175 °C @ Press: 0.05 Torr",
        "Melting Point": "100-102 °C"
    }
}