{
    "cas_no": "6378-65-0",
    "key_name": "Hexyl hexanoate",
    "cn_name": "己酸己酯;",
    "alternate_name": "Hexanoic acid, hexyl ester;Hexyl hexanoate;Hexyl caproate;<em>n</em>-Hexyl hexanoate;Hexyl hexoate;1-Hexyl caproate;1-Hexyl hexanoate;<em>n</em>-Hexyl <em>n</em>-hexanoate;NSC 53799;<em>n</em>-Hexyl caproate",
    "duplicated_cas_no": "",
    "SMILES": "C(OCCCCCC)(CCCCC)=O",
    "meta_data": {
        "InChI": "InChI=1S/C12H24O2/c1-3-5-7-9-11-14-12(13)10-8-6-4-2/h3-11H2,1-2H3",
        "InChIKey": null,
        "Canonical SMILES": "O=C(OCCCCCC)CCCCC",
        "Molecular Formula": "C<sub>12</sub>H<sub>24</sub>O<sub>2</sub>",
        "Molecular Mass": "200.32",
        "Boiling Point": "246 °C",
        "Melting Point": "-55 °C",
        "Density": "0.8689 g/cm³ @ Temp: 20 °C"
    }
}