{
    "cas_no": "6066-49-5",
    "key_name": "Butylphthalide",
    "cn_name": "3-丁基-1(3H)-异苯并呋喃酮;",
    "alternate_name": "1(3<em>H</em>)-Isobenzofuranone, 3-butyl-;Phthalide, 3-butyl-;3-Butyl-1(3<em>H</em>)-isobenzofuranone;Butylphthalide;3-<em>n</em>-Butylphthalide;3-Butylphthalide;(±)-3-Butylphthalide;3-Butyl-1,3-dihydro-2-benzofuran-1-one;3-Butyl-3<em>H</em>-2-benzofuran-1-one;<span class=\"text-smallcaps\">L</span>-3-<em>N</em>-Butylphthalide;L-NBP",
    "duplicated_cas_no": "93133-67-6",
    "SMILES": "C(CCC)C1C=2C(C(=O)O1)=CC=CC2",
    "meta_data": {
        "InChI": "InChI=1S/C12H14O2/c1-2-3-8-11-9-6-4-5-7-10(9)12(13)14-11/h4-7,11H,2-3,8H2,1H3",
        "InChIKey": null,
        "Canonical SMILES": "O=C1OC(C=2C=CC=CC12)CCCC",
        "Molecular Formula": "C<sub>12</sub>H<sub>14</sub>O<sub>2</sub>",
        "Molecular Mass": "190.24",
        "Boiling Point": "138-139 °C @ Press: 6 Torr"
    }
}