{
    "cas_no": "137071-78-4",
    "key_name": "3,6-Dichloro-1,2,4-benzenetricarboxylic acid",
    "cn_name": null,
    "alternate_name": "1,2,4-Benzenetricarboxylic acid, 3,6-dichloro-;3,6-Dichloro-1,2,4-benzenetricarboxylic acid;3,6-Dichlorotrimellitic acid;2,5-Dichloro-1,3,4-benzenetricarboxylic acid",
    "duplicated_cas_no": "",
    "SMILES": "C(O)(=O)C1=C(C(O)=O)C(Cl)=CC(C(O)=O)=C1Cl",
    "meta_data": {
        "InChI": "InChI=1S/C9H4Cl2O6/c10-3-1-2(7(12)13)6(11)5(9(16)17)4(3)8(14)15/h1H,(H,12,13)(H,14,15)(H,16,17)",
        "InChIKey": null,
        "Canonical SMILES": "O=C(O)C1=CC(Cl)=C(C(=O)O)C(C(=O)O)=C1Cl",
        "Molecular Formula": "C<sub>9</sub>H<sub>4</sub>Cl<sub>2</sub>O<sub>6</sub>",
        "Molecular Mass": "279.03",
        "Melting Point": "226-230 °C"
    }
}