{
    "cas_no": "41295-20-9",
    "key_name": "4-(4-Methylphenoxy)benzenamine",
    "cn_name": "4-氨基-4-甲基二苯醚;",
    "alternate_name": "Benzenamine, 4-(4-methylphenoxy)-;4-(4-Methylphenoxy)benzenamine;<em>p</em>-(<em>p</em>-Tolyloxy)aniline;4-Amino-4′-methyldiphenyl ether;4-Aminophenyl 4-methylphenyl ether;4-(4-Methylphenoxy)aniline;NSC 509659;4-(4-Tolyloxy)aniline;4-(<em>p</em>-Tolyloxy)phenylamine;4-[(4-Methylphenyl)oxy]aniline;4-(<em>p</em>-Tolyloxy)aniline",
    "duplicated_cas_no": "",
    "SMILES": "O(C1=CC=C(C)C=C1)C2=CC=C(N)C=C2",
    "meta_data": {
        "InChI": "InChI=1S/C13H13NO/c1-10-2-6-12(7-3-10)15-13-8-4-11(14)5-9-13/h2-9H,14H2,1H3",
        "InChIKey": null,
        "Canonical SMILES": "O(C1=CC=C(N)C=C1)C2=CC=C(C=C2)C",
        "Molecular Formula": "C<sub>13</sub>H<sub>13</sub>NO",
        "Molecular Mass": "199.25",
        "Melting Point": "126 °C"
    }
}