{
    "cas_no": "499-80-9",
    "key_name": "2,4-Pyridinedicarboxylic acid",
    "cn_name": "2,4-吡啶二羧酸;吡啶-2,4-二羧酸;",
    "alternate_name": "2,4-Pyridinedicarboxylic acid;Lutidinic acid;2,4-Dicarboxylpyridine;2,4-Lutidinic acid;NSC 403248",
    "duplicated_cas_no": "",
    "SMILES": "C(O)(=O)C=1C=C(C(O)=O)N=CC1",
    "meta_data": {
        "InChI": "InChI=1S/C7H5NO4/c9-6(10)4-1-2-8-5(3-4)7(11)12/h1-3H,(H,9,10)(H,11,12)",
        "InChIKey": null,
        "Canonical SMILES": "O=C(O)C1=NC=CC(=C1)C(=O)O",
        "Molecular Formula": "C<sub>7</sub>H<sub>5</sub>NO<sub>4</sub>",
        "Molecular Mass": "167.12",
        "Melting Point": "249 °C"
    }
}