{
    "cas_no": "66592-87-8",
    "key_name": "Cefadroxil monohydrate",
    "cn_name": "头孢羟氨苄;(6R,7R)-3-甲基-7-[(R)-2-氨基-2-(4-羟基苯基)乙酰氨基]-8-氧代-5-硫杂-1-氮杂双环[4.2.0]辛-2-;",
    "alternate_name": "5-Thia-1-azabicyclo[4.2.0]oct-2-ene-2-carboxylic acid, 7-[[(2<em>R</em>)-2-amino-2-(4-hydroxyphenyl)acetyl]amino]-3-methyl-8-oxo-, hydrate (1:1), (6<em>R</em>,7<em>R</em>)-;5-Thia-1-azabicyclo[4.2.0]oct-2-ene-2-carboxylic acid, 7-[[amino(4-hydroxyphenyl)acetyl]amino]-3-methyl-8-oxo-, monohydrate, [6<em>R</em>-[6α,7β(<em>R</em>*)]]-;5-Thia-1-azabicyclo[4.2.0]oct-2-ene-2-carboxylic acid, 7-[[(2<em>R</em>)-amino(4-hydroxyphenyl)acetyl]amino]-3-methyl-8-oxo-, monohydrate, (6<em>R</em>,7<em>R</em>)-;Cefadroxil monohydrate;Duricef",
    "duplicated_cas_no": "",
    "SMILES": "C(O)(=O)C=1N2[C@@]([C@H](NC([C@H](N)C3=CC=C(O)C=C3)=O)C2=O)(SCC1C)[H].O",
    "meta_data": {
        "InChI": "InChI=1S/C16H17N3O5S.H2O/c1-7-6-25-15-11(14(22)19(15)12(7)16(23)24)18-13(21)10(17)8-2-4-9(20)5-3-8;/h2-5,10-11,15,20H,6,17H2,1H3,(H,18,21)(H,23,24);1H2/t10-,11-,15-;/m1./s1",
        "InChIKey": null,
        "Canonical SMILES": "O=C(O)C1=C(C)CSC2N1C(=O)C2NC(=O)C(N)C3=CC=C(O)C=C3.O",
        "Molecular Formula": "C<sub>16</sub>H<sub>17</sub>N<sub>3</sub>O<sub>5</sub>S.H<sub>2</sub>O",
        "Molecular Mass": "",
        "Melting Point": "197 °C (decomp)"
    }
}