{
    "cas_no": "91-63-4",
    "key_name": "2-Methylquinoline",
    "cn_name": "2-甲基喹啉;喹哪啶;",
    "alternate_name": "Quinoline, 2-methyl-;Quinaldine;2-Methylquinoline;Khinaldin;NSC 3397;2-Methylchinoline",
    "duplicated_cas_no": "",
    "SMILES": "CC1=NC2=C(C=C1)C=CC=C2",
    "meta_data": {
        "InChI": "InChI=1S/C10H9N/c1-8-6-7-9-4-2-3-5-10(9)11-8/h2-7H,1H3",
        "InChIKey": null,
        "Canonical SMILES": "N=1C=2C=CC=CC2C=CC1C",
        "Molecular Formula": "C<sub>10</sub>H<sub>9</sub>N",
        "Molecular Mass": "143.19",
        "Boiling Point": "246.5 °C",
        "Melting Point": "-1.5 °C",
        "Density": "1.038 g/cm³ @ Temp: 20 °C"
    }
}