{
    "cas_no": "29644-97-1",
    "key_name": "4-Amino-α-ethylbenzeneacetic acid",
    "cn_name": "2-(4-氨基苯基)丁酸;",
    "alternate_name": "Benzeneacetic acid, 4-amino-α-ethyl-;Butyric acid, 2-(<em>p</em>-aminophenyl)-;4-Amino-α-ethylbenzeneacetic acid;NSC 27530;2-(4-Aminophenyl)butanoic acid",
    "duplicated_cas_no": "118289-96-6",
    "SMILES": "C(C(O)=O)(CC)C1=CC=C(N)C=C1",
    "meta_data": {
        "InChI": "InChI=1S/C10H13NO2/c1-2-9(10(12)13)7-3-5-8(11)6-4-7/h3-6,9H,2,11H2,1H3,(H,12,13)",
        "InChIKey": null,
        "Canonical SMILES": "O=C(O)C(C1=CC=C(N)C=C1)CC",
        "Molecular Formula": "C<sub>10</sub>H<sub>13</sub>NO<sub>2</sub>",
        "Molecular Mass": "179.22",
        "Melting Point": "142-143 °C"
    }
}