{
    "cas_no": "4638-48-6",
    "key_name": "5-Chlorosalicylanilide",
    "cn_name": "5-氯水杨酰苯胺;",
    "alternate_name": "Benzamide, 5-chloro-2-hydroxy-<em>N</em>-phenyl-;Salicylanilide, 5-chloro-;5-Chloro-2-hydroxy-<em>N</em>-phenylbenzamide;5-Chlorosalicylanilide;WR 13084;NSC 402600",
    "duplicated_cas_no": "",
    "SMILES": "C(NC1=CC=CC=C1)(=O)C2=C(O)C=CC(Cl)=C2",
    "meta_data": {
        "InChI": "InChI=1S/C13H10ClNO2/c14-9-6-7-12(16)11(8-9)13(17)15-10-4-2-1-3-5-10/h1-8,16H,(H,15,17)",
        "InChIKey": null,
        "Canonical SMILES": "O=C(NC=1C=CC=CC1)C2=CC(Cl)=CC=C2O",
        "Molecular Formula": "C<sub>13</sub>H<sub>10</sub>ClNO<sub>2</sub>",
        "Molecular Mass": "247.68",
        "Melting Point": "211 °C"
    }
}