{
    "cas_no": "52888-80-9",
    "key_name": "Prosulfocarb",
    "cn_name": "苄草丹;S-苄基二丙基硫代氨基甲酯；ICI A 0574，SC-0574;",
    "alternate_name": "Carbamothioic acid, <em>N</em>,<em>N</em>-dipropyl-, <em>S</em>-(phenylmethyl) ester;Carbamothioic acid, dipropyl-, <em>S</em>-(phenylmethyl) ester;Carbamic acid, dipropylthio-, <em>S</em>-benzyl ester;<em>S</em>-Benzyl dipropylthiocarbamate;Benzyl dipropylthiolcarbamate;<em>S</em>-Benzyl <em>N</em>,<em>N</em>-dipropylthiocarbamate;R 15574;<em>S</em>-Benzyl dipropylthiolcarbamate;SC 0574;Prosulfocarb;Boxer;Boxer (ICI Agrochemicals);Arkade;Defi;Boxer EC;Boxer 800EC",
    "duplicated_cas_no": "123780-41-6",
    "SMILES": "N(C(SCC1=CC=CC=C1)=O)(CCC)CCC",
    "meta_data": {
        "InChI": "InChI=1S/C14H21NOS/c1-3-10-15(11-4-2)14(16)17-12-13-8-6-5-7-9-13/h5-9H,3-4,10-12H2,1-2H3",
        "InChIKey": null,
        "Canonical SMILES": "O=C(SCC=1C=CC=CC1)N(CCC)CCC",
        "Molecular Formula": "C<sub>14</sub>H<sub>21</sub>NOS",
        "Molecular Mass": "251.39",
        "Boiling Point": "129 °C",
        "Melting Point": "&lt;25 °C"
    }
}