{
    "cas_no": "51694-22-5",
    "key_name": "2-Nitrophenyl selenocyanate",
    "cn_name": null,
    "alternate_name": "Selenocyanic acid, 2-nitrophenyl ester;<em>o</em>-Nitrophenyl selenocyanate;<em>o</em>-Nitrophenyl selenocyanide;2-Nitrophenyl selenocyanate;<em>o</em>-Nitrophenylselenyl cyanide;1-Nitro-2-selenocyanatobenzene",
    "duplicated_cas_no": "72473-22-4",
    "SMILES": "N(=O)(=O)C1=C([Se]C#N)C=CC=C1",
    "meta_data": {
        "InChI": "InChI=1S/C7H4N2O2Se/c8-5-12-7-4-2-1-3-6(7)9(10)11/h1-4H",
        "InChIKey": null,
        "Canonical SMILES": "N#C[Se]C=1C=CC=CC1N(=O)=O",
        "Molecular Formula": "C<sub>7</sub>H<sub>4</sub>N<sub>2</sub>O<sub>2</sub>Se",
        "Molecular Mass": "227.08",
        "Melting Point": "142 °C"
    }
}