{
    "cas_no": "7446-70-0",
    "key_name": "Aluminum chloride",
    "cn_name": "三氯化铝;氯化铝;",
    "alternate_name": "Aluminum chloride (AlCl<sub>3</sub>);Aluminum chloride;Aluminum trichloride;Aluminium chloride;Aluminium trichloride;Trichloroaluminum;Aluminum(III) chloride;TK Flock;Lutan FN;NSC 143015;NSC 143016;Hemogin L;Takibine 100;Hemostop",
    "duplicated_cas_no": "41630-01-7;125690-94-0;195436-38-5;255839-01-1;1161430-81-4;1332483-60-9;1818401-35-2",
    "SMILES": "[Al](Cl)(Cl)Cl",
    "meta_data": {
        "InChI": "InChI=1S/Al.3ClH/h;3*1H/q+3;;;/p-3",
        "InChIKey": null,
        "Canonical SMILES": "Cl[Al](Cl)Cl",
        "Molecular Formula": "AlCl<sub>3</sub>",
        "Molecular Mass": "",
        "Boiling Point": "182.7 °C @ Press: 752 Torr",
        "Melting Point": "192.6 °C",
        "Density": "2.48 g/cm³"
    }
}