{
    "cas_no": "7116-95-2",
    "key_name": "4-Isopropylbiphenyl",
    "cn_name": "4-异丙基联苯;",
    "alternate_name": "1,1′-Biphenyl, 4-(1-methylethyl)-;Biphenyl, 4-isopropyl-;4-(1-Methylethyl)-1,1′-biphenyl;<em>p</em>-Isopropylbiphenyl;4-Isopropylbiphenyl;4-Isopropyl-1,1′-biphenyl;4-Isopropyldiphenyl",
    "duplicated_cas_no": "",
    "SMILES": "C(C)(C)C1=CC=C(C=C1)C2=CC=CC=C2",
    "meta_data": {
        "InChI": "InChI=1S/C15H16/c1-12(2)13-8-10-15(11-9-13)14-6-4-3-5-7-14/h3-12H,1-2H3",
        "InChIKey": null,
        "Canonical SMILES": "C=1C=CC(=CC1)C=2C=CC(=CC2)C(C)C",
        "Molecular Formula": "C<sub>15</sub>H<sub>16</sub>",
        "Molecular Mass": "196.29",
        "Boiling Point": "125-126 °C @ Press: 2 Torr",
        "Melting Point": "92 °C",
        "Density": "0.9651 g/cm³ @ Temp: 20 °C"
    }
}