{
    "cas_no": "587-04-2",
    "key_name": "3-Chlorobenzaldehyde",
    "cn_name": "3-氯苯甲醛;间氯苯甲醛;",
    "alternate_name": "Benzaldehyde, 3-chloro-;Benzaldehyde, <em>m</em>-chloro-;3-Chlorobenzaldehyde;<em>m</em>-Chlorobenzaldehyde;<em>m</em>-Chlorobenzenecarboxaldehyde;NSC 60107;3-Chlorophenylcarboxaldehyde",
    "duplicated_cas_no": "",
    "SMILES": "C(=O)C1=CC(Cl)=CC=C1",
    "meta_data": {
        "InChI": "InChI=1S/C7H5ClO/c8-7-3-1-2-6(4-7)5-9/h1-5H",
        "InChIKey": null,
        "Canonical SMILES": "O=CC=1C=CC=C(Cl)C1",
        "Molecular Formula": "C<sub>7</sub>H<sub>5</sub>ClO",
        "Molecular Mass": "140.57",
        "Boiling Point": "213.5 °C",
        "Melting Point": "17.5 °C"
    }
}