{
    "cas_no": "40771-26-4",
    "key_name": "1,5-Dihydroxy-1,2,3,4-tetrahydronaphthalene",
    "cn_name": "1,5-二羟基-1,2,3,4-四氢萘;",
    "alternate_name": "1,5-Naphthalenediol, 1,2,3,4-tetrahydro-;1,5-Naphthalenediol, 5,6,7,8-tetrahydro-;1,2,3,4-Tetrahydro-1,5-naphthalenediol;1,5-Dihydroxy-1,2,3,4-tetrahydronaphthalene;1,5-Dihydroxytetralin;1,2,3,4-Tetrahydro-1,5-dihydroxynaphthalene;5,6,7,8-Tetrahydro-1,5-dihydroxynaphthalene;(<em>RS</em>)-1,5-Dihydroxytetralin;1,2,3,4-Tetrahydronaphthalene-1,5-diol;NSC 96982;(±)-1,5-Dihydroxy-1,2,3,4-tetrahydronaphthalene",
    "duplicated_cas_no": "",
    "SMILES": "OC1C=2C(=C(O)C=CC2)CCC1",
    "meta_data": {
        "InChI": "InChI=1S/C10H12O2/c11-9-5-1-3-7-8(9)4-2-6-10(7)12/h1,3,5,10-12H,2,4,6H2",
        "InChIKey": null,
        "Canonical SMILES": "OC1=CC=CC2=C1CCCC2O",
        "Molecular Formula": "C<sub>10</sub>H<sub>12</sub>O<sub>2</sub>",
        "Molecular Mass": "164.20",
        "Melting Point": "131-133 °C"
    }
}