{
    "cas_no": "106921-60-2",
    "key_name": "2,2-Dimethyl-3-oxopentanal",
    "cn_name": null,
    "alternate_name": "Pentanal, 2,2-dimethyl-3-oxo-;2,2-Dimethyl-3-oxopentanal",
    "duplicated_cas_no": "",
    "SMILES": "C(C(CC)=O)(C=O)(C)C",
    "meta_data": {
        "InChI": "InChI=1S/C7H12O2/c1-4-6(9)7(2,3)5-8/h5H,4H2,1-3H3",
        "InChIKey": null,
        "Canonical SMILES": "O=CC(C(=O)CC)(C)C",
        "Molecular Formula": "C<sub>7</sub>H<sub>12</sub>O<sub>2</sub>",
        "Molecular Mass": "128.17",
        "Boiling Point": "62-64 °C @ Press: 20 Torr",
        "Density": "0.9582 g/cm³ @ Temp: 20 °C"
    }
}