{
    "cas_no": "97944-45-1",
    "key_name": "2-Chloro-5-methyl-4-nitropyridine",
    "cn_name": null,
    "alternate_name": "Pyridine, 2-chloro-5-methyl-4-nitro-;2-Chloro-5-methyl-4-nitropyridine",
    "duplicated_cas_no": "",
    "SMILES": "N(=O)(=O)C=1C(C)=CN=C(Cl)C1",
    "meta_data": {
        "InChI": "InChI=1S/C6H5ClN2O2/c1-4-3-8-6(7)2-5(4)9(10)11/h2-3H,1H3",
        "InChIKey": null,
        "Canonical SMILES": "O=N(=O)C1=CC(Cl)=NC=C1C",
        "Molecular Formula": "C<sub>6</sub>H<sub>5</sub>ClN<sub>2</sub>O<sub>2</sub>",
        "Molecular Mass": "172.57",
        "Boiling Point": "130 °C @ Press: 22 Torr"
    }
}