{
    "cas_no": "3141-24-0",
    "key_name": "2,3,5-Tribromothiophene",
    "cn_name": "2,3,5-三溴噻吩;",
    "alternate_name": "Thiophene, 2,3,5-tribromo-;2,3,5-Tribromothiophene;NSC 263503",
    "duplicated_cas_no": "",
    "SMILES": "BrC1=C(Br)SC(Br)=C1",
    "meta_data": {
        "InChI": "InChI=1S/C4HBr3S/c5-2-1-3(6)8-4(2)7/h1H",
        "InChIKey": null,
        "Canonical SMILES": "BrC=1SC(Br)=C(Br)C1",
        "Molecular Formula": "C<sub>4</sub>HBr<sub>3</sub>S",
        "Molecular Mass": "320.83",
        "Boiling Point": "260 °C",
        "Melting Point": "29 °C"
    }
}