{
    "cas_no": "1631-70-5",
    "key_name": "Benzyldimethylsilane",
    "cn_name": "苄基二甲基硅烷;",
    "alternate_name": "Benzene, [(dimethylsilyl)methyl]-;Silane, benzyldimethyl-;Silane, dimethyl(phenylmethyl)-;[(Dimethylsilyl)methyl]benzene;Benzyldimethylsilane;Benzyldimethylhydrosilane;NSC 155373;Dimethylbenzylsilane",
    "duplicated_cas_no": "",
    "SMILES": "C([SiH](C)C)C1=CC=CC=C1",
    "meta_data": {
        "InChI": "InChI=1S/C9H14Si/c1-10(2)8-9-6-4-3-5-7-9/h3-7,10H,8H2,1-2H3",
        "InChIKey": null,
        "Canonical SMILES": "C=1C=CC(=CC1)C[SiH](C)C",
        "Molecular Formula": "C<sub>9</sub>H<sub>14</sub>Si",
        "Molecular Mass": "150.29",
        "Boiling Point": "70 °C @ Press: 15 Torr",
        "Density": "0.949 g/cm³"
    }
}