{
    "cas_no": "52605-49-9",
    "key_name": "Sarcosine ethyl ester hydrochloride",
    "cn_name": "肌氨酸乙酯盐酸盐;N-甲基氨基乙酸乙酯盐酸盐;",
    "alternate_name": "Glycine, <em>N</em>-methyl-, ethyl ester, hydrochloride (1:1);Glycine, <em>N</em>-methyl-, ethyl ester, hydrochloride;Sarcosine ethyl ester hydrochloride;<em>N</em>-Methylglycine ethyl ester hydrochloride;2-Ethoxy-2-oxo-<em>N</em>-methylethylammonium chloride;Ethyl <em>N</em>-methylglycinate hydrochloride;Sacrosine ethyl ester hydrochloride;Ethyl sarcosinate hydrochloride;Ethyl <em>N</em>-methylaminoacetate hydrochloride;(Methylamino)acetic acid ethyl ester hydrochloride;<em>N</em>-[(Ethoxycarbonyl)methyl]-<em>N</em>-methylamine hydrochloride;2-(Methylamino)acetic acid ethyl ester hydrochloride;Ethyl 2-(methylamino)acetate hydrochloride",
    "duplicated_cas_no": "",
    "SMILES": "C(CNC)(OCC)=O.Cl",
    "meta_data": {
        "InChI": "InChI=1S/C5H11NO2.ClH/c1-3-8-5(7)4-6-2;/h6H,3-4H2,1-2H3;1H",
        "InChIKey": null,
        "Canonical SMILES": "Cl.O=C(OCC)CNC",
        "Molecular Formula": "C<sub>5</sub>H<sub>11</sub>NO<sub>2</sub>.ClH",
        "Molecular Mass": "",
        "Melting Point": "122-123 °C"
    }
}