{
    "cas_no": "85-66-5",
    "key_name": "Pyocyanin",
    "cn_name": "绿脓素;",
    "alternate_name": "1(5<em>H</em>)-Phenazinone, 5-methyl-;Sanazin;5-Methyl-1(5<em>H</em>)-phenazinone;Pyocyanine;Pyocyanin;Sanasin;MeSH ID: D011710",
    "duplicated_cas_no": "",
    "SMILES": "CN1C=2C(=NC=3C1=CC=CC3)C(=O)C=CC2",
    "meta_data": {
        "InChI": "InChI=1S/C13H10N2O/c1-15-10-6-3-2-5-9(10)14-13-11(15)7-4-8-12(13)16/h2-8H,1H3",
        "InChIKey": null,
        "Canonical SMILES": "O=C1C=CC=C2C1=NC=3C=CC=CC3N2C",
        "Molecular Formula": "C<sub>13</sub>H<sub>10</sub>N<sub>2</sub>O",
        "Molecular Mass": "210.23",
        "Melting Point": "133 °C (decomp)"
    }
}