{
    "cas_no": "153559-49-0",
    "key_name": "Bexarotene",
    "cn_name": "蓓萨罗丁;4-[1-(5,6,7,8-四氢-3,5,5,8,8-五甲基-2-萘基)乙烯基]苯甲酸;",
    "alternate_name": "Benzoic acid, 4-[1-(5,6,7,8-tetrahydro-3,5,5,8,8-pentamethyl-2-naphthalenyl)ethenyl]-;4-[1-(5,6,7,8-Tetrahydro-3,5,5,8,8-pentamethyl-2-naphthalenyl)ethenyl]benzoic acid;LGD 1069;LG 1069;LG 100069;Bexarotene;Targrexin;Targretyn;RO 26-4455;LG 69;Targretin;LG 69 (retinoid);Targret;SR 11247",
    "duplicated_cas_no": "",
    "SMILES": "CC1(C)C=2C(C(C)(C)CC1)=CC(C)=C(C(=C)C3=CC=C(C(O)=O)C=C3)C2",
    "meta_data": {
        "InChI": "InChI=1S/C24H28O2/c1-15-13-20-21(24(5,6)12-11-23(20,3)4)14-19(15)16(2)17-7-9-18(10-8-17)22(25)26/h7-10,13-14H,2,11-12H2,1,3-6H3,(H,25,26)",
        "InChIKey": null,
        "Canonical SMILES": "O=C(O)C1=CC=C(C=C1)C(=C)C=2C=C3C(=CC2C)C(C)(C)CCC3(C)C",
        "Molecular Formula": "C<sub>24</sub>H<sub>28</sub>O<sub>2</sub>",
        "Molecular Mass": "348.48",
        "Melting Point": "224-226 °C"
    }
}