{
    "cas_no": "39267-05-5",
    "key_name": "2,3-Dichloro-6-methylquinoxaline",
    "cn_name": null,
    "alternate_name": "Quinoxaline, 2,3-dichloro-6-methyl-;2,3-Dichloro-6-methylquinoxaline;2,3-Dichloro-7-methylquinoxaline",
    "duplicated_cas_no": "",
    "SMILES": "ClC1=NC2=C(N=C1Cl)C=CC(C)=C2",
    "meta_data": {
        "InChI": "InChI=1S/C9H6Cl2N2/c1-5-2-3-6-7(4-5)13-9(11)8(10)12-6/h2-4H,1H3",
        "InChIKey": null,
        "Canonical SMILES": "ClC=1N=C2C=CC(=CC2=NC1Cl)C",
        "Molecular Formula": "C<sub>9</sub>H<sub>6</sub>Cl<sub>2</sub>N<sub>2</sub>",
        "Molecular Mass": "213.06",
        "Melting Point": "113-114 °C"
    }
}