{
    "cas_no": "57078-98-5",
    "key_name": "4-Maleimidobutyric acid",
    "cn_name": null,
    "alternate_name": "1<em>H</em>-Pyrrole-1-butanoic acid, 2,5-dihydro-2,5-dioxo-;2,5-Dihydro-2,5-dioxo-1<em>H</em>-pyrrole-1-butanoic acid;γ-Maleimidobutyric acid;4-Maleimidobutyric acid;ω-Maleimidobutyric acid;<em>N</em>-(3-Carboxypropyl)maleimide;4-(2,5-Dioxo-2,5-dihydro-1<em>H</em>-pyrrol-1-yl)butanoic acid;4-Maleimidobutanoic acid",
    "duplicated_cas_no": "",
    "SMILES": "C(CCC(O)=O)N1C(=O)C=CC1=O",
    "meta_data": {
        "InChI": "InChI=1S/C8H9NO4/c10-6-3-4-7(11)9(6)5-1-2-8(12)13/h3-4H,1-2,5H2,(H,12,13)",
        "InChIKey": null,
        "Canonical SMILES": "O=C1C=CC(=O)N1CCCC(=O)O",
        "Molecular Formula": "C<sub>8</sub>H<sub>9</sub>NO<sub>4</sub>",
        "Molecular Mass": "183.16",
        "Melting Point": "93-94 °C"
    }
}