{
    "cas_no": "596-01-0",
    "key_name": "α-Naphtholphthalein",
    "cn_name": "1-萘酚酞;alpha-萘酚酞;3,3\"-双(4-羟基-1-萘基)-1(3H)-异苯并呋喃酮;",
    "alternate_name": "1(3<em>H</em>)-Isobenzofuranone, 3,3-bis(4-hydroxy-1-naphthalenyl)-;Phthalide, 3,3-bis(4-hydroxy-1-naphthyl)-;1,1′-Naphthol-4,4′-phthalein;3,3-Bis(4-hydroxy-1-naphthalenyl)-1(3<em>H</em>)-isobenzofuranone;α-Naphtholphthalein;Di-<em>p</em>-α-Naphtholphthalide;<em>p</em>-α-Naphtholphthalein;1-Naphtholphthalein;3,3-Bis(4-hydroxy-1-naphthyl)-1,3-dihydroisobenzofuran-1-one;Naphtholphthalein blue;3,3-Bis(4-hydroxy-1-naphthyl)phthalide;3,3-Bis(4-hydroxynaphthalen-1-yl)-2-benzofuran-1-one",
    "duplicated_cas_no": "",
    "SMILES": "O=C1OC(C=2C1=CC=CC2)(C=3C4=C(C(O)=CC3)C=CC=C4)C=5C6=C(C(O)=CC5)C=CC=C6",
    "meta_data": {
        "InChI": "InChI=1S/C28H18O4/c29-25-15-13-23(17-7-1-3-9-19(17)25)28(22-12-6-5-11-21(22)27(31)32-28)24-14-16-26(30)20-10-4-2-8-18(20)24/h1-16,29-30H",
        "InChIKey": null,
        "Canonical SMILES": "O=C1OC(C=2C=CC=CC12)(C3=CC=C(O)C=4C=CC=CC43)C5=CC=C(O)C=6C=CC=CC65",
        "Molecular Formula": "C<sub>28</sub>H<sub>18</sub>O<sub>4</sub>",
        "Molecular Mass": "418.44",
        "Melting Point": "254 °C"
    }
}