{
    "cas_no": "110-12-3",
    "key_name": "5-Methyl-2-hexanone",
    "cn_name": "5-甲基-2-己酮;异庚酮;",
    "alternate_name": "2-Hexanone, 5-methyl-;5-Methyl-2-hexanone;Isoamyl methyl ketone;2-Methyl-5-hexanone;Methyl isoamyl ketone;MIAK;Isopentyl methyl ketone;Methyl isopentyl ketone;3-Methylbutyl methyl ketone",
    "duplicated_cas_no": "",
    "SMILES": "C(CC(C)=O)C(C)C",
    "meta_data": {
        "InChI": "InChI=1S/C7H14O/c1-6(2)4-5-7(3)8/h6H,4-5H2,1-3H3",
        "InChIKey": null,
        "Canonical SMILES": "O=C(C)CCC(C)C",
        "Molecular Formula": "C<sub>7</sub>H<sub>14</sub>O",
        "Molecular Mass": "114.19",
        "Boiling Point": "144 °C",
        "Melting Point": "-74 °C",
        "Density": "0.888 g/cm³ @ Temp: 20 °C"
    }
}