{
    "cas_no": "1155-62-0",
    "key_name": "<em>N</em>-(Benzyloxycarbonyl)-<span class=\"text-smallcaps\">L</span>-glutamic acid",
    "cn_name": "N-苄氧羰基-L-谷氨酸;N-Cbz-L-谷氨酸;",
    "alternate_name": "<span class=\"text-smallcaps\">L</span>-Glutamic acid, <em>N</em>-[(phenylmethoxy)carbonyl]-;Glutamic acid, <em>N</em>-carboxy-, <em>N</em>-benzyl ester, <span class=\"text-smallcaps\">L</span>-;Glutamic acid, <em>N</em>-carboxy-, <em>N</em>-benzyl ester;<em>N</em>-[(Phenylmethoxy)carbonyl]-<span class=\"text-smallcaps\">L</span>-glutamic acid;<em>N</em>-Carbobenzoxy-<span class=\"text-smallcaps\">L</span>-glutamic acid;Carbobenzoxy-<span class=\"text-smallcaps\">L</span>-glutamic acid;<em>N</em>-(Benzyloxycarbonyl)glutamic acid;<em>N</em>-(Benzyloxycarbonyl)-<span class=\"text-smallcaps\">L</span>-glutamic acid;<em>N</em>-Cbz-<span class=\"text-smallcaps\">L</span>-glutamic acid;NSC 555;NSC 88494;Benzyloxycarbonyl-<span class=\"text-smallcaps\">L</span>-glutamic acid;(2S)-2-(Phenylmethoxycarbonylamino)pentanedioic acid;(2S)-2-[[(Benzyloxy)carbonyl]amino]pentanedioic acid;(<em>S</em>)-2-(((Benzyloxy)carbonyl)amino)pentanedioic acid",
    "duplicated_cas_no": "22259-07-0",
    "SMILES": "C(OC(N[C@@H](CCC(O)=O)C(O)=O)=O)C1=CC=CC=C1",
    "meta_data": {
        "InChI": "InChI=1S/C13H15NO6/c15-11(16)7-6-10(12(17)18)14-13(19)20-8-9-4-2-1-3-5-9/h1-5,10H,6-8H2,(H,14,19)(H,15,16)(H,17,18)/t10-/m0/s1",
        "InChIKey": null,
        "Canonical SMILES": "O=C(O)CCC(NC(=O)OCC=1C=CC=CC1)C(=O)O",
        "Molecular Formula": "C<sub>13</sub>H<sub>15</sub>NO<sub>6</sub>",
        "Molecular Mass": "281.26",
        "Melting Point": "121 °C"
    }
}