{
    "cas_no": "20086-07-1",
    "key_name": "(2<em>R</em>,3a<em>S</em>,6<em>S</em>,6a<em>S</em>,7<em>R</em>,9<em>R</em>,10a<em>R</em>,10b<em>S</em>)-2-(3-Furanyl)decahydro-9-hydroxy-10b-methyl-4-oxo-4<em>H</em>-3a,6-methanofuro[2,3-<em>d</em>][2]benzoxepin-7-carboxylic acid",
    "cn_name": null,
    "alternate_name": "4<em>H</em>-3a,6-Methanofuro[2,3-<em>d</em>][2]benzoxepin-7-carboxylic acid, 2-(3-furanyl)decahydro-9-hydroxy-10b-methyl-4-oxo-, (2<em>R</em>,3a<em>S</em>,6<em>S</em>,6a<em>S</em>,7<em>R</em>,9<em>R</em>,10a<em>R</em>,10b<em>S</em>)-;4<em>H</em>-3a,6-Methanofuro[2,3-<em>d</em>][2]benzoxepin-7-carboxylic acid, 2-(3-furanyl)decahydro-9-hydroxy-10b-methyl-4-oxo-, [2<em>R</em>-(2α,3aβ,6β,6aβ,7α,9α,10aα,10bβ)]-;Diosbulbin C;(2<em>R</em>,3a<em>S</em>,6<em>S</em>,6a<em>S</em>,7<em>R</em>,9<em>R</em>,10a<em>R</em>,10b<em>S</em>)-2-(3-Furanyl)decahydro-9-hydroxy-10b-methyl-4-oxo-4<em>H</em>-3a,6-methanofuro[2,3-<em>d</em>][2]benzoxepin-7-carboxylic acid",
    "duplicated_cas_no": "",
    "SMILES": "CC12C3(CC(OC3=O)C4C1CC(O)CC4C(O)=O)OC(C2)C=5C=COC5",
    "meta_data": {
        "InChI": "InChI=1S/C19H22O7/c1-18-6-13(9-2-3-24-8-9)26-19(18)7-14(25-17(19)23)15-11(16(21)22)4-10(20)5-12(15)18/h2-3,8,10-15,20H,4-7H2,1H3,(H,21,22)",
        "InChIKey": null,
        "Canonical SMILES": "O=C(O)C1CC(O)CC2C1C3OC(=O)C4(OC(C5=COC=C5)CC24C)C3",
        "Molecular Formula": "C<sub>19</sub>H<sub>22</sub>O<sub>7</sub>",
        "Molecular Mass": "362.37",
        "Melting Point": "247-250 °C"
    }
}