{
    "cas_no": "1912-43-2",
    "key_name": "2-Methyl-1<em>H</em>-indole-3-acetic acid",
    "cn_name": "2-甲基-3-吲哚乙酸;2-甲基吲哚-3-乙酸;",
    "alternate_name": "1<em>H</em>-Indole-3-acetic acid, 2-methyl-;Indole-3-acetic acid, 2-methyl-;2-Methyl-1<em>H</em>-indole-3-acetic acid;2-Methylindole-3-acetic acid;2-Methyl-3-indolylacetic acid;2-(2-Methyl-1<em>H</em>-indol-3-yl)acetic acid;(2-Methyl-1<em>H</em>-indol-3-yl)acetic acid",
    "duplicated_cas_no": "",
    "SMILES": "C(C(O)=O)C=1C=2C(NC1C)=CC=CC2",
    "meta_data": {
        "InChI": "InChI=1S/C11H11NO2/c1-7-9(6-11(13)14)8-4-2-3-5-10(8)12-7/h2-5,12H,6H2,1H3,(H,13,14)",
        "InChIKey": null,
        "Canonical SMILES": "O=C(O)CC=1C=2C=CC=CC2NC1C",
        "Molecular Formula": "C<sub>11</sub>H<sub>11</sub>NO<sub>2</sub>",
        "Molecular Mass": "189.21",
        "Melting Point": "199-200 °C"
    }
}