{
    "cas_no": "98-88-4",
    "key_name": "Benzoyl chloride",
    "cn_name": "苯甲酰氯;氯化苯甲酰;苯酰氯;",
    "alternate_name": "Benzoyl chloride;Benzaldehyde, α-chloro-;Benzenecarbonyl chloride;Benzoic acid chloride;Phenylcarbonyl chloride;B 0105;Phenylcarboxyl chloride;Benzoylchloride",
    "duplicated_cas_no": "1258517-80-4;1640987-68-3;2231811-43-9",
    "SMILES": "C(Cl)(=O)C1=CC=CC=C1",
    "meta_data": {
        "InChI": "InChI=1S/C7H5ClO/c8-7(9)6-4-2-1-3-5-6/h1-5H",
        "InChIKey": null,
        "Canonical SMILES": "O=C(Cl)C=1C=CC=CC1",
        "Molecular Formula": "C<sub>7</sub>H<sub>5</sub>ClO",
        "Molecular Mass": "140.57",
        "Boiling Point": "197.2 °C @ Press: 760 Torr",
        "Melting Point": "-1.0 °C",
        "Density": "1.2070 g/cm³ @ Temp: 25 °C"
    }
}