{
    "cas_no": "123-73-9",
    "key_name": "<em>trans</em>-Crotonaldehyde",
    "cn_name": "巴豆醛;反式丁烯醛;(E)-2-丁烯醛;",
    "alternate_name": "2-Butenal, (2<em>E</em>)-;Crotonaldehyde, (<em>E</em>)-;2-Butenal, (<em>E</em>)-;(2<em>E</em>)-2-Butenal;<em>trans</em>-2-Butenal;Topanel CA;<em>trans</em>-Crotonaldehyde;(<em>E</em>)-Crotonaldehyde;(<em>E</em>)-2-Butenal;<em>trans</em>-2-Buten-1-al;2(<em>E</em>)-Butenal;<em>trans</em>-Crotonal;(E)-But-2-en-1-al",
    "duplicated_cas_no": "",
    "SMILES": "C(=C/C)\\C=O",
    "meta_data": {
        "InChI": "InChI=1S/C4H6O/c1-2-3-4-5/h2-4H,1H3/b3-2+",
        "InChIKey": null,
        "Canonical SMILES": "O=CC=CC",
        "Molecular Formula": "C<sub>4</sub>H<sub>6</sub>O",
        "Molecular Mass": "70.09",
        "Boiling Point": "104 °C",
        "Melting Point": "-76 °C",
        "Density": "0.869 g/cm³ @ Temp: 20 °C"
    }
}