{
    "cas_no": "645-49-8",
    "key_name": "<em>cis</em>-Stilbene",
    "cn_name": "顺-均二苯乙烯;",
    "alternate_name": "Benzene, 1,1′-(1<em>Z</em>)-1,2-ethenediylbis-;Stilbene, (<em>Z</em>)-;Benzene, 1,1′-(1,2-ethenediyl)bis-, (<em>Z</em>)-;Stilbene, <em>cis</em>-;1,1′-(1<em>Z</em>)-1,2-Ethenediylbis[benzene];<em>cis</em>-1,2-Diphenylethylene;Isostilbene;<em>cis</em>-Stilbene;<em>cis</em>-Diphenylethene;<em>cis</em>-1,2-Diphenylethene;(<em>Z</em>)-1,2-Diphenylethene;(<em>Z</em>)-1,2-Diphenylethylene;(<em>Z</em>)-Stilbene;(Z)-1,2-Diphenylethene",
    "duplicated_cas_no": "",
    "SMILES": "C(=C\\C1=CC=CC=C1)\\C2=CC=CC=C2",
    "meta_data": {
        "InChI": "InChI=1S/C14H12/c1-3-7-13(8-4-1)11-12-14-9-5-2-6-10-14/h1-12H/b12-11-",
        "InChIKey": null,
        "Canonical SMILES": "C=1C=CC(=CC1)C=CC=2C=CC=CC2",
        "Molecular Formula": "C<sub>14</sub>H<sub>12</sub>",
        "Molecular Mass": "180.25",
        "Boiling Point": "141 °C",
        "Melting Point": "1 °C",
        "Density": "1.014 g/cm³ @ Temp: 24 °C"
    }
}