{
    "cas_no": "6375-46-8",
    "key_name": "<em>N</em>-[3-(Diethylamino)phenyl]acetamide",
    "cn_name": "3-(N,N-二乙基)氨基乙酰苯胺;",
    "alternate_name": "Acetamide, <em>N</em>-[3-(diethylamino)phenyl]-;Acetanilide, 3′-(diethylamino)-;<em>N</em>-[3-(Diethylamino)phenyl]acetamide;3′-(Diethylamino)acetanilide;(<em>m</em>-Acetamidophenyl)diethylamine;3-(Acetylamino)-<em>N</em>,<em>N</em>-diethylaniline;C.I. Developer 9;Serisol Navy Blue Developer RD;<em>N</em>-Acetyl-<em>N</em>′,<em>N</em>′-diethyl-1,3-benzenediamine;<em>N</em>,<em>N</em>-Diethyl-<em>m</em>-aminoacetanilide;3-Acetamido-<em>N</em>,<em>N</em>-diethylaniline;<em>m</em>-Acetamido-<em>N</em>,<em>N</em>-diethylaniline;<em>N</em>-Acetyl-<em>N</em>′,<em>N</em>′-diethyl-1,3-phenylenediamine;3-(Diethylamino)acetanilide;3-(<em>N</em>,<em>N</em>-Diethylamino)acetanilide;<em>m</em>-(Diethylamino)acetanilide;<em>N</em>-(3-Diethylaminophenyl)acetamide;<em>N</em>,<em>N</em>-Diethyl-<em>m</em>-acetaminoaniline",
    "duplicated_cas_no": "12239-22-4",
    "SMILES": "N(CC)(CC)C1=CC(NC(C)=O)=CC=C1",
    "meta_data": {
        "InChI": "InChI=1S/C12H18N2O/c1-4-14(5-2)12-8-6-7-11(9-12)13-10(3)15/h6-9H,4-5H2,1-3H3,(H,13,15)",
        "InChIKey": null,
        "Canonical SMILES": "O=C(NC1=CC=CC(=C1)N(CC)CC)C",
        "Molecular Formula": "C<sub>12</sub>H<sub>18</sub>N<sub>2</sub>O",
        "Molecular Mass": "206.28",
        "Melting Point": "77-79 °C"
    }
}