{
    "cas_no": "520-32-1",
    "key_name": "Tricin",
    "cn_name": "苜蓿素;5,7-二羟基-2-(4-羟基-3,5-二甲氧基苯基)苯并吡喃-4-酮;",
    "alternate_name": "4<em>H</em>-1-Benzopyran-4-one, 5,7-dihydroxy-2-(4-hydroxy-3,5-dimethoxyphenyl)-;Flavone, 4′,5,7-trihydroxy-3′,5′-dimethoxy-;Tricin;5,7-Dihydroxy-2-(4-hydroxy-3,5-dimethoxyphenyl)-4<em>H</em>-1-benzopyran-4-one;4′,5,7-Trihydroxy-3′,5′-dimethoxyflavone;5,7,4′-Trihydroxy-3′,5′-dimethoxyflavone;NSC 294579;3′,5′-<em>O</em>-Dimethyltricetin",
    "duplicated_cas_no": "",
    "SMILES": "O=C1C=2C(OC(=C1)C3=CC(OC)=C(O)C(OC)=C3)=CC(O)=CC2O",
    "meta_data": {
        "InChI": "InChI=1S/C17H14O7/c1-22-14-3-8(4-15(23-2)17(14)21)12-7-11(20)16-10(19)5-9(18)6-13(16)24-12/h3-7,18-19,21H,1-2H3",
        "InChIKey": null,
        "Canonical SMILES": "O=C1C=C(OC=2C=C(O)C=C(O)C12)C=3C=C(OC)C(O)=C(OC)C3",
        "Molecular Formula": "C<sub>17</sub>H<sub>14</sub>O<sub>7</sub>",
        "Molecular Mass": "330.29",
        "Melting Point": "288 °C"
    }
}