{
    "cas_no": "124937-52-6",
    "key_name": "Tolterodine tartrate",
    "cn_name": "酒石酸托特罗定;",
    "alternate_name": "Phenol, 2-[(1<em>R</em>)-3-[bis(1-methylethyl)amino]-1-phenylpropyl]-4-methyl-, (2<em>R</em>,3<em>R</em>)-2,3-dihydroxybutanedioate (1:1);Phenol, 2-[3-[bis(1-methylethyl)amino]-1-phenylpropyl]-4-methyl-, (<em>R</em>)-, [<em>R</em>-(<em>R</em>*,<em>R</em>*)]-2,3-dihydroxybutanedioate (1:1) (salt);Phenol, 2-[(1<em>R</em>)-3-[bis(1-methylethyl)amino]-1-phenylpropyl]-4-methyl-, (2<em>R</em>,3<em>R</em>)-2,3-dihydroxybutanedioate (1:1) (salt);Detrusitol;Tolterodine tartrate;PNU 200583E;Detrol;Tolterodinium (+)-(2<em>R</em>,3<em>R</em>)-hydrogen tartrate (1:1);(<em>R</em>)-Tolterodine <span class=\"text-smallcaps\">L</span>-tartrate;(<em>R</em>)-(+)-<em>N</em>,<em>N</em>-Diisopropyl-3-(2-hydroxy-5-methylphenyl)-3-phenylpropylamine <span class=\"text-smallcaps\">L</span>-tartrate;Tolterodine <span class=\"text-smallcaps\">L</span>-tartrate;(<em>R</em>)-Tolterodine tartrate;Tolterodine tartaric acid;Terol",
    "duplicated_cas_no": "",
    "SMILES": "[C@H](CCN(C(C)C)C(C)C)(C1=C(O)C=CC(C)=C1)C2=CC=CC=C2.[C@@H]([C@H](C(O)=O)O)(C(O)=O)O",
    "meta_data": {
        "InChI": "InChI=1S/C22H31NO.C4H6O6/c1-16(2)23(17(3)4)14-13-20(19-9-7-6-8-10-19)21-15-18(5)11-12-22(21)24;5-1(3(7)8)2(6)4(9)10/h6-12,15-17,20,24H,13-14H2,1-5H3;1-2,5-6H,(H,7,8)(H,9,10)/t20-;1-,2-/m11/s1",
        "InChIKey": null,
        "Canonical SMILES": "O=C(O)C(O)C(O)C(=O)O.OC1=CC=C(C=C1C(C=2C=CC=CC2)CCN(C(C)C)C(C)C)C",
        "Molecular Formula": "C<sub>22</sub>H<sub>31</sub>NO.C<sub>4</sub>H<sub>6</sub>O<sub>6</sub>",
        "Molecular Mass": "",
        "Melting Point": "216 °C"
    }
}