{
    "cas_no": "249296-44-4",
    "key_name": "Varenicline",
    "cn_name": "伐伦克林;7,8,9,10-四氢-6,10-亚甲基-6H-吡嗪并[2,3-h][3]苯并氮杂卓;",
    "alternate_name": "6,10-Methano-6<em>H</em>-pyrazino[2,3-<em>h</em>][3]benzazepine, 7,8,9,10-tetrahydro-;7,8,9,10-Tetrahydro-6,10-methano-6<em>H</em>-pyrazino[2,3-<em>h</em>][3]benzazepine;CP 526555;Varenicline;Chantix;Champix;MeSH ID: D000068580",
    "duplicated_cas_no": "",
    "SMILES": "C1=2C(C3CC1CNC3)=CC=4C(C2)=NC=CN4",
    "meta_data": {
        "InChI": "InChI=1S/C13H13N3/c1-2-16-13-5-11-9-3-8(6-14-7-9)10(11)4-12(13)15-1/h1-2,4-5,8-9,14H,3,6-7H2",
        "InChIKey": null,
        "Canonical SMILES": "N1=CC=NC2=CC3=C(C=C12)C4CNCC3C4",
        "Molecular Formula": "C<sub>13</sub>H<sub>13</sub>N<sub>3</sub>",
        "Molecular Mass": "211.26",
        "Melting Point": "138.5 °C"
    }
}