{
    "cas_no": "5877-42-9",
    "key_name": "4-Ethyl-1-octyn-3-ol",
    "cn_name": "4-乙基-1-辛炔-3-醇;4-乙基-1-辛炔-3-醇;",
    "alternate_name": "1-Octyn-3-ol, 4-ethyl-;4-Ethyl-1-octyn-3-ol;4-Ethyl-3-hydroxy-1-octyne;Ethyloctynol;NSC 62119",
    "duplicated_cas_no": "",
    "SMILES": "C(C(C#C)O)(CCCC)CC",
    "meta_data": {
        "InChI": "InChI=1S/C10H18O/c1-4-7-8-9(5-2)10(11)6-3/h3,9-11H,4-5,7-8H2,1-2H3",
        "InChIKey": null,
        "Canonical SMILES": "C#CC(O)C(CC)CCCC",
        "Molecular Formula": "C<sub>10</sub>H<sub>18</sub>O",
        "Molecular Mass": "154.25",
        "Boiling Point": "91 °C @ Press: 10 Torr",
        "Density": "0.873 g/cm³ @ Temp: 20 °C"
    }
}