{
    "cas_no": "5157-89-1",
    "key_name": "(+)-Menthyl acetate",
    "cn_name": null,
    "alternate_name": "Cyclohexanol, 5-methyl-2-(1-methylethyl)-, 1-acetate, (1<em>S</em>,2<em>R</em>,5<em>S</em>)-;Menthol, acetate, (+)-;Cyclohexanol, 5-methyl-2-(1-methylethyl)-, acetate, [1<em>S</em>-(1α,2β,5α)]-;Cyclohexanol, 5-methyl-2-(1-methylethyl)-, acetate, (1<em>S</em>,2<em>R</em>,5<em>S</em>)-;(+)-Menthyl acetate;<em>d</em>-Menthyl acetate",
    "duplicated_cas_no": "",
    "SMILES": "C(C)(C)[C@@H]1[C@@H](OC(C)=O)C[C@@H](C)CC1",
    "meta_data": {
        "InChI": "InChI=1S/C12H22O2/c1-8(2)11-6-5-9(3)7-12(11)14-10(4)13/h8-9,11-12H,5-7H2,1-4H3/t9-,11+,12-/m0/s1",
        "InChIKey": null,
        "Canonical SMILES": "O=C(OC1CC(C)CCC1C(C)C)C",
        "Molecular Formula": "C<sub>12</sub>H<sub>22</sub>O<sub>2</sub>",
        "Molecular Mass": "198.30",
        "Boiling Point": "229.5 °C",
        "Melting Point": "&lt;25 °C"
    }
}