{
    "cas_no": "108-60-1",
    "key_name": "Bis(2-chloro-1-methylethyl) ether",
    "cn_name": "二氯异丙醚;二氯异丙基醚，二氯异丙醚;二氯异乙醚;2,2ˊ-二氯异丙醚;二(2-氯异丙基)醚;二氯异丙(基)醚;二氯;",
    "alternate_name": "Propane, 2,2′-oxybis[1-chloro-;Ether, bis(2-chloro-1-methylethyl);2,2′-Oxybis[1-chloropropane];2,2′-Dichlorodiisopropyl ether;Bis(2-chloro-1-methylethyl) ether;β,β′-Dichlorodiisopropyl ether;DCIP (nematocide);DCIP;Bis(1-chloro-2-propyl) ether;NSC 2849;Nemamort;1-Chloro-2-[(1-chloropropan-2-yl)oxy]propane;1-Chloro-2-(1-chloropropan-2-yloxy)propane",
    "duplicated_cas_no": "52438-91-2",
    "SMILES": "O(C(CCl)C)C(CCl)C",
    "meta_data": {
        "InChI": "InChI=1S/C6H12Cl2O/c1-5(3-7)9-6(2)4-8/h5-6H,3-4H2,1-2H3",
        "InChIKey": null,
        "Canonical SMILES": "ClCC(OC(C)CCl)C",
        "Molecular Formula": "C<sub>6</sub>H<sub>12</sub>Cl<sub>2</sub>O",
        "Molecular Mass": "171.06",
        "Boiling Point": "187 °C @ Press: 760 Torr",
        "Melting Point": "-101.8--96.8 °C",
        "Density": "1.103 g/cm³ @ Temp: 20 °C"
    }
}