{
    "cas_no": "51019-43-3",
    "key_name": "(-)-<em>O</em>-Acetylmandelic acid",
    "cn_name": "(-)-O-乙酰-D-扁桃酸;",
    "alternate_name": "Benzeneacetic acid, α-(acetyloxy)-, (α<em>R</em>)-;Benzeneacetic acid, α-(acetyloxy)-, (<em>R</em>)-;(α<em>R</em>)-α-(Acetyloxy)benzeneacetic acid;<em>O</em>-Acetyl-<span class=\"text-smallcaps\">D</span>-mandelic acid;(<em>R</em>)-<em>O</em>-Acetylmandelic acid;(<em>R</em>)-Mandelic acid <em>O</em>-acetate;(<em>R</em>)-(-)-<em>O</em>-Acetylmandelic acid;<span class=\"text-smallcaps\">D</span>-(-)-Acetylmandelic Acid;<em>O</em>-Acetyl-(<em>R</em>)-mandelic acid;(<em>R</em>)-Acetylmandelic acid;(<em>R</em>)-2-Acetoxy-2-phenylacetic acid;<span class=\"text-smallcaps\">D</span>-<em>O</em>-Acetylmandelic acid;(-)-<em>O</em>-Acetylmandelic acid;(2R)-2-Acetoxy-2-phenylacetic acid;(2R)-2-Acetyloxy-2-phenylacetic acid;(R)-(-)-α-Acetoxyphenylacetic Acid;(2R)-2-(Acetyloxy)-2-phenylacetic acid",
    "duplicated_cas_no": "",
    "SMILES": "[C@H](OC(C)=O)(C(O)=O)C1=CC=CC=C1",
    "meta_data": {
        "InChI": "InChI=1S/C10H10O4/c1-7(11)14-9(10(12)13)8-5-3-2-4-6-8/h2-6,9H,1H3,(H,12,13)/t9-/m1/s1",
        "InChIKey": null,
        "Canonical SMILES": "O=C(O)C(OC(=O)C)C=1C=CC=CC1",
        "Molecular Formula": "C<sub>10</sub>H<sub>10</sub>O<sub>4</sub>",
        "Molecular Mass": "194.18",
        "Melting Point": "97 °C"
    }
}