{
    "cas_no": "7396-58-9",
    "key_name": "Didecylmethylamine",
    "cn_name": "N-甲基二癸基胺;二癸基甲胺;",
    "alternate_name": "1-Decanamine, <em>N</em>-decyl-<em>N</em>-methyl-;Didecylamine, <em>N</em>-methyl-;<em>N</em>-Decyl-<em>N</em>-methyl-1-decanamine;Methyldidecylamine;Didecylmethylamine;<em>N</em>-Methyldidecylamine;<em>N</em>,<em>N</em>-Didecyl-<em>N</em>-methylamine;DAMA 1010;Radiamine 6310;Armeen M 210D;<em>N</em>-Decyl-<em>N</em>-methyldecan-1-amine;<em>N</em>,<em>N</em>-Didecylmethylamine;Lipomin M 210D",
    "duplicated_cas_no": "",
    "SMILES": "C(N(CCCCCCCCCC)C)CCCCCCCCC",
    "meta_data": {
        "InChI": "InChI=1S/C21H45N/c1-4-6-8-10-12-14-16-18-20-22(3)21-19-17-15-13-11-9-7-5-2/h4-21H2,1-3H3",
        "InChIKey": null,
        "Canonical SMILES": "N(C)(CCCCCCCCCC)CCCCCCCCCC",
        "Molecular Formula": "C<sub>21</sub>H<sub>45</sub>N",
        "Molecular Mass": "311.59",
        "Boiling Point": "139 °C @ Press: 1 Torr"
    }
}