{
    "cas_no": "1012-91-5",
    "key_name": "1-(2,6-Dimethylphenyl)piperazine",
    "cn_name": null,
    "alternate_name": "Piperazine, 1-(2,6-dimethylphenyl)-;Piperazine, 1-(2,6-xylyl)-;1-(2,6-Dimethylphenyl)piperazine;1-(2,6-Xylyl)piperazine;4-(2,6-Dimethylphenyl)piperazine",
    "duplicated_cas_no": "",
    "SMILES": "CC1=C(C(C)=CC=C1)N2CCNCC2",
    "meta_data": {
        "InChI": "InChI=1S/C12H18N2/c1-10-4-3-5-11(2)12(10)14-8-6-13-7-9-14/h3-5,13H,6-9H2,1-2H3",
        "InChIKey": null,
        "Canonical SMILES": "C=1C=C(C(=C(C1)C)N2CCNCC2)C",
        "Molecular Formula": "C<sub>12</sub>H<sub>18</sub>N<sub>2</sub>",
        "Molecular Mass": "190.28",
        "Boiling Point": "148 °C @ Press: 10 Torr"
    }
}