{
    "cas_no": "431-05-0",
    "key_name": "1,1-Difluoro-2-propanone",
    "cn_name": null,
    "alternate_name": "2-Propanone, 1,1-difluoro-;1,1-Difluoro-2-propanone;1,1-Difluoroacetone;1,1-Difluoropropan-2-one",
    "duplicated_cas_no": "",
    "SMILES": "C(C(F)F)(C)=O",
    "meta_data": {
        "InChI": "InChI=1S/C3H4F2O/c1-2(6)3(4)5/h3H,1H3",
        "InChIKey": null,
        "Canonical SMILES": "O=C(C)C(F)F",
        "Molecular Formula": "C<sub>3</sub>H<sub>4</sub>F<sub>2</sub>O",
        "Molecular Mass": "94.06",
        "Boiling Point": "46 °C",
        "Density": "1.16 g/cm³"
    }
}