{
    "cas_no": "135-76-2",
    "key_name": "Sodium 6-hydroxy-2-naphthalenesulfonate",
    "cn_name": "6-羟基-2-萘磺酸钠;薛佛氏钠盐;2-萘酚-6-磺酸钠;",
    "alternate_name": "2-Naphthalenesulfonic acid, 6-hydroxy-, sodium salt (1:1);2-Naphthalenesulfonic acid, 6-hydroxy-, monosodium salt;Schaeffer's salt;Sodium β-naphthol-6-sulfonate;2-Naphthol-6-sodium sulfonate;Schaeffer salt;Sodium 2-naphthol-6-sulfonate;2-Naphthol-6-sulfonic acid sodium salt;Sodium 6-hydroxy-2-naphthalenesulfonate;6-Sulfo-2-naphthol sodium salt;2-Hydroxy-6-naphthalenesulfonic acid sodium salt;Sodium 2-naphthol-3-sulfonate",
    "duplicated_cas_no": "",
    "SMILES": "S(=O)(=O)(O)C1=CC2=C(C=C1)C=C(O)C=C2.[Na]",
    "meta_data": {
        "InChI": "InChI=1S/C10H8O4S.Na/c11-9-3-1-8-6-10(15(12,13)14)4-2-7(8)5-9;/h1-6,11H,(H,12,13,14);",
        "InChIKey": null,
        "Canonical SMILES": "[Na].O=S(=O)(O)C1=CC=C2C=C(O)C=CC2=C1",
        "Molecular Formula": "C<sub>10</sub>H<sub>8</sub>O<sub>4</sub>S.Na",
        "Molecular Mass": "",
        "Melting Point": "123 °C"
    }
}