{
    "cas_no": "26170-87-6",
    "key_name": "4-Phenyl-2-thiophenecarboxaldehyde",
    "cn_name": null,
    "alternate_name": "2-Thiophenecarboxaldehyde, 4-phenyl-;4-Phenyl-2-thiophenecarboxaldehyde;4-Phenylthiophene-2-aldehyde",
    "duplicated_cas_no": "",
    "SMILES": "C(=O)C1=CC(=CS1)C2=CC=CC=C2",
    "meta_data": {
        "InChI": "InChI=1S/C11H8OS/c12-7-11-6-10(8-13-11)9-4-2-1-3-5-9/h1-8H",
        "InChIKey": null,
        "Canonical SMILES": "O=CC=1SC=C(C1)C=2C=CC=CC2",
        "Molecular Formula": "C<sub>11</sub>H<sub>8</sub>OS",
        "Molecular Mass": "188.25",
        "Boiling Point": "80 °C @ Press: 0.1 Torr",
        "Melting Point": "56-57 °C"
    }
}