{
    "cas_no": "3162-29-6",
    "key_name": "5-Acetyl-1,3-benzodioxole",
    "cn_name": "3,4-亚甲二氧苯乙酮;",
    "alternate_name": "Ethanone, 1-(1,3-benzodioxol-5-yl)-;Acetophenone, 3′,4′-(methylenedioxy)-;Acetophenone, 3,4-methylenedioxy-;1-(1,3-Benzodioxol-5-yl)ethanone;Acetopiperone;1-Acetyl-3,4-(methylenedioxy)benzene;3′,4′-(Methylenedioxy)acetophenone;3,4-(Methylenedioxy)phenyl methyl ketone;Moskachan A;5-Acetyl-1,3-benzodioxole;NSC 21866;1-(Benzodioxol-5-yl)ethanone;1-(Benz[<em>d</em>][1,3]dioxol-5-yl)ethanone;1-(1,3-Dioxaindan-5-yl)ethan-1-one;1-(Benzo[<em>d</em>][1,3]dioxol-5-yl)ethanone;1-(2<em>H</em>-1,3-Benzodioxol-5-yl)ethan-1-one",
    "duplicated_cas_no": "",
    "SMILES": "C(C)(=O)C=1C=C2C(=CC1)OCO2",
    "meta_data": {
        "InChI": "InChI=1S/C9H8O3/c1-6(10)7-2-3-8-9(4-7)12-5-11-8/h2-4H,5H2,1H3",
        "InChIKey": null,
        "Canonical SMILES": "O=C(C1=CC=C2OCOC2=C1)C",
        "Molecular Formula": "C<sub>9</sub>H<sub>8</sub>O<sub>3</sub>",
        "Molecular Mass": "164.16",
        "Boiling Point": "138-140 °C",
        "Melting Point": "85-86 °C"
    }
}