{
    "cas_no": "15862-30-3",
    "key_name": "3-Bromo-5-nitropyridine",
    "cn_name": null,
    "alternate_name": "Pyridine, 3-bromo-5-nitro-;3-Bromo-5-nitropyridine",
    "duplicated_cas_no": "",
    "SMILES": "N(=O)(=O)C=1C=C(Br)C=NC1",
    "meta_data": {
        "InChI": "InChI=1S/C5H3BrN2O2/c6-4-1-5(8(9)10)3-7-2-4/h1-3H",
        "InChIKey": null,
        "Canonical SMILES": "O=N(=O)C=1C=NC=C(Br)C1",
        "Molecular Formula": "C<sub>5</sub>H<sub>3</sub>BrN<sub>2</sub>O<sub>2</sub>",
        "Molecular Mass": "202.99",
        "Melting Point": "167.5-168 °C"
    }
}