{
    "cas_no": "623-13-2",
    "key_name": "Methyl <em>p</em>-tolyl sulfide",
    "cn_name": "1-甲基-4-甲硫基苯;甲基对甲苯硫醚;",
    "alternate_name": "Benzene, 1-methyl-4-(methylthio)-;Sulfide, methyl <em>p</em>-tolyl;1-Methyl-4-(methylthio)benzene;4-(Methylthio)toluene;<em>p</em>-(Methylthio)toluene;<em>p</em>-Methylphenyl methyl sulfide;Methyl 4-methylphenyl sulfide;<em>p</em>-Tolyl methyl sulfide;<em>p</em>-Methylthioanisole;4-Methylthioanisole;Methyl <em>p</em>-tolyl sulfide;Methyl <em>p</em>-methylphenyl sulfide;NSC 6256;Methyl 4-tolyl sulfane;(4-Methylphenyl) methyl sulfide;4-(Methylsulfanyl)toluene;1-Methyl-4-(methylsulfanyl)benzene;Methyl(<em>p</em>-tolyl)sulfane",
    "duplicated_cas_no": "87494-89-1",
    "SMILES": "S(C)C1=CC=C(C)C=C1",
    "meta_data": {
        "InChI": "InChI=1S/C8H10S/c1-7-3-5-8(9-2)6-4-7/h3-6H,1-2H3",
        "InChIKey": null,
        "Canonical SMILES": "S(C1=CC=C(C=C1)C)C",
        "Molecular Formula": "C<sub>8</sub>H<sub>10</sub>S",
        "Molecular Mass": "138.23",
        "Boiling Point": "94 °C @ Press: 31 Torr",
        "Density": "1.0302 g/cm³ @ Temp: 16 °C"
    }
}