{
    "cas_no": "76-24-4",
    "key_name": "Alloxantin",
    "cn_name": "双阿脲;",
    "alternate_name": "[5,5′-Bipyrimidine]-2,2′,4,4′,6,6′(1<em>H</em>,1′<em>H</em>,3<em>H</em>,3′<em>H</em>,5<em>H</em>,5′<em>H</em>)-hexone, 5,5′-dihydroxy-;5,5′-Bibarbituric acid, 5,5′-dihydroxy-;Alloxantin;5,5′-Dihydroxy[5,5′-bipyrimidine]-2,2′,4,4′,6,6′(1<em>H</em>,1′<em>H</em>,3<em>H</em>,3′<em>H</em>,5<em>H</em>,5′<em>H</em>)-hexone;Uroxin;Uroxine;NSC 118963;NSC 7634",
    "duplicated_cas_no": "",
    "SMILES": "OC1(C(=O)NC(=O)NC1=O)C2(O)C(=O)NC(=O)NC2=O",
    "meta_data": {
        "InChI": "InChI=1S/C8H6N4O8/c13-1-7(19,2(14)10-5(17)9-1)8(20)3(15)11-6(18)12-4(8)16/h19-20H,(H2,9,10,13,14,17)(H2,11,12,15,16,18)",
        "InChIKey": null,
        "Canonical SMILES": "O=C1NC(=O)C(O)(C(=O)N1)C2(O)C(=O)NC(=O)NC2=O",
        "Molecular Formula": "C<sub>8</sub>H<sub>6</sub>N<sub>4</sub>O<sub>8</sub>",
        "Molecular Mass": "286.16",
        "Melting Point": "254 °C (decomp)"
    }
}