{
    "cas_no": "77242-30-9",
    "key_name": "2-Amino-5-nitrobenzenemethanol",
    "cn_name": null,
    "alternate_name": "Benzenemethanol, 2-amino-5-nitro-;2-Amino-5-nitrobenzenemethanol;2-Amino-5-nitrobenzyl alcohol;2-Hydroxymethyl-4-Nitroaniline;(2-Amino-5-nitrophenyl)methanol",
    "duplicated_cas_no": "",
    "SMILES": "C(O)C1=CC(N(=O)=O)=CC=C1N",
    "meta_data": {
        "InChI": "InChI=1S/C7H8N2O3/c8-7-2-1-6(9(11)12)3-5(7)4-10/h1-3,10H,4,8H2",
        "InChIKey": null,
        "Canonical SMILES": "O=N(=O)C1=CC=C(N)C(=C1)CO",
        "Molecular Formula": "C<sub>7</sub>H<sub>8</sub>N<sub>2</sub>O<sub>3</sub>",
        "Molecular Mass": "168.15",
        "Melting Point": "200-201 °C"
    }
}