{
    "cas_no": "4163-59-1",
    "key_name": "α-<span class=\"text-smallcaps\">D</span>-Galactopyranose, 1,2,3,4,6-pentaacetate",
    "cn_name": "1,2,3,4,6-戊-O-乙酰-a-D-吡喃半乳糖;",
    "alternate_name": "α-<span class=\"text-smallcaps\">D</span>-Galactopyranose, 1,2,3,4,6-pentaacetate;Galactopyranose, pentaacetate, α-<span class=\"text-smallcaps\">D</span>-;α-<span class=\"text-smallcaps\">D</span>-Galactopyranose, pentaacetate;Galactopyranose, α-<span class=\"text-smallcaps\">D</span>-, pentaacetate;Penta-<em>O</em>-acetyl-α-<span class=\"text-smallcaps\">D</span>-galactopyranose;1,2,3,4,6-Penta-<em>O</em>-acetyl-α-<span class=\"text-smallcaps\">D</span>-galactopyranose;1,2,3,4,6-Penta-<em>O</em>-acetyl-α-<span class=\"text-smallcaps\">D</span>-galactose;Pentaacetyl-α-<span class=\"text-smallcaps\">D</span>-galactopyranose;α-<span class=\"text-smallcaps\">D</span>-Galactose pentaacetate;2,3,4,6-Tetra-<em>O</em>-acetyl-α-<span class=\"text-smallcaps\">D</span>-galactopyranosyl acetate",
    "duplicated_cas_no": "36116-82-2",
    "SMILES": "O(C(C)=O)[C@H]1[C@@H](OC(C)=O)[C@@H](COC(C)=O)O[C@H](OC(C)=O)[C@@H]1OC(C)=O",
    "meta_data": {
        "InChI": "InChI=1S/C16H22O11/c1-7(17)22-6-12-13(23-8(2)18)14(24-9(3)19)15(25-10(4)20)16(27-12)26-11(5)21/h12-16H,6H2,1-5H3/t12-,13+,14+,15-,16+/m1/s1",
        "InChIKey": null,
        "Canonical SMILES": "O=C(OCC1OC(OC(=O)C)C(OC(=O)C)C(OC(=O)C)C1OC(=O)C)C",
        "Molecular Formula": "C<sub>16</sub>H<sub>22</sub>O<sub>11</sub>",
        "Molecular Mass": "390.34",
        "Melting Point": "95-96 °C"
    }
}