{
    "cas_no": "2548-87-0",
    "key_name": "(<em>E</em>)-2-Octenal",
    "cn_name": null,
    "alternate_name": "2-Octenal, (2<em>E</em>)-;2-Octenal, (<em>E</em>)-;(2<em>E</em>)-2-Octenal;<em>trans</em>-2-Octenal;<em>trans</em>-Oct-2-en-1-al;(<em>E</em>)-2-Octenal;(<em>E</em>)-2-Octen-1-al;(2<em>E</em>)-Octenal;(<em>E</em>)-Octen-2-enal;2-(E)-Octenal",
    "duplicated_cas_no": "",
    "SMILES": "C(CCCC)/C=C/C=O",
    "meta_data": {
        "InChI": "InChI=1S/C8H14O/c1-2-3-4-5-6-7-8-9/h6-8H,2-5H2,1H3/b7-6+",
        "InChIKey": null,
        "Canonical SMILES": "O=CC=CCCCCC",
        "Molecular Formula": "C<sub>8</sub>H<sub>14</sub>O",
        "Molecular Mass": "126.20",
        "Boiling Point": "75-78 °C @ Press: 13 Torr",
        "Density": "0.832 g/cm³ @ Temp: 20 °C; Press: 760 Torr"
    }
}