{
    "cas_no": "72571-06-3",
    "key_name": "5-(4-Bromophenyl)oxazole",
    "cn_name": null,
    "alternate_name": "Oxazole, 5-(4-bromophenyl)-;5-(4-Bromophenyl)oxazole;5-(<em>p</em>-Bromophenyl)oxazole;5-(4-Bromophenyl)-1,3-oxazole",
    "duplicated_cas_no": "",
    "SMILES": "BrC1=CC=C(C=C1)C2=CN=CO2",
    "meta_data": {
        "InChI": "InChI=1S/C9H6BrNO/c10-8-3-1-7(2-4-8)9-5-11-6-12-9/h1-6H",
        "InChIKey": null,
        "Canonical SMILES": "BrC=1C=CC(=CC1)C=2OC=NC2",
        "Molecular Formula": "C<sub>9</sub>H<sub>6</sub>BrNO",
        "Molecular Mass": "224.05",
        "Melting Point": "78.1-78.4 °C"
    }
}