{
    "cas_no": "88069-49-2",
    "key_name": "Pilsicainide hydrochloride",
    "cn_name": "盐酸吡西卡呢;N-(2,6-二甲基苯基)-2-(1,2,3,5,6,7-六氢吡咯烷嗪-8-基)乙酰胺盐酸盐;",
    "alternate_name": "1<em>H</em>-Pyrrolizine-7a(5<em>H</em>)-acetamide, <em>N</em>-(2,6-dimethylphenyl)tetrahydro-, hydrochloride (1:1);1<em>H</em>-Pyrrolizine-7a(5<em>H</em>)-acetamide, <em>N</em>-(2,6-dimethylphenyl)tetrahydro-, monohydrochloride;SUN 1165;Pilsicainide hydrochloride;Sunrythm;1<em>H</em>-Pyrrolizine-7a(5<em>H</em>)-acetamide <em>N</em>-(2,6-dimethylphenyl)tetrahydro-, hydrochloride",
    "duplicated_cas_no": "",
    "SMILES": "C(C(NC1=C(C)C=CC=C1C)=O)C23N(CCC2)CCC3.Cl",
    "meta_data": {
        "InChI": "InChI=1S/C17H24N2O.ClH/c1-13-6-3-7-14(2)16(13)18-15(20)12-17-8-4-10-19(17)11-5-9-17;/h3,6-7H,4-5,8-12H2,1-2H3,(H,18,20);1H",
        "InChIKey": null,
        "Canonical SMILES": "Cl.O=C(NC=1C(=CC=CC1C)C)CC23N(CCC2)CCC3",
        "Molecular Formula": "C<sub>17</sub>H<sub>24</sub>N<sub>2</sub>O.ClH",
        "Molecular Mass": "",
        "Melting Point": "212-214 °C"
    }
}