{
    "cas_no": "26504-29-0",
    "key_name": "Dibenzyltrithiocarbonate",
    "cn_name": null,
    "alternate_name": "Carbonotrithioic acid, bis(phenylmethyl) ester;Carbonic acid, trithio-, dibenzyl ester;Dibenzyltrithiocarbonate;NSC 33081;Dibenzyl carbonotrithioate;BM 1361;<em>S</em>,<em>S</em>′-Dibenzyl trithiocarbonate;DBTTC",
    "duplicated_cas_no": "",
    "SMILES": "C(SC(SCC1=CC=CC=C1)=S)C2=CC=CC=C2",
    "meta_data": {
        "InChI": "InChI=1S/C15H14S3/c16-15(17-11-13-7-3-1-4-8-13)18-12-14-9-5-2-6-10-14/h1-10H,11-12H2",
        "InChIKey": null,
        "Canonical SMILES": "S=C(SCC=1C=CC=CC1)SCC=2C=CC=CC2",
        "Molecular Formula": "C<sub>15</sub>H<sub>14</sub>S<sub>3</sub>",
        "Molecular Mass": "290.47",
        "Boiling Point": "140-150 °C @ Press: 0.06 Torr",
        "Melting Point": "28 °C"
    }
}