{
    "cas_no": "2902-98-9",
    "key_name": "α-Chloro-α-phenylbenzeneacetyl chloride",
    "cn_name": "2-氯-2,2-二苯基乙酰氯;",
    "alternate_name": "Benzeneacetyl chloride, α-chloro-α-phenyl-;Acetyl chloride, chlorodiphenyl-;α-Chloro-α-phenylbenzeneacetyl chloride;Diphenylchloroacetylchloride;Chlorodiphenylacetyl chloride;α-Chloro-α,α-diphenylacetyl chloride;2-Chloro-2,2-diphenylacetyl chloride;α,α-Diphenyl-α-chloroacetyl chloride;α-Chlorodiphenylacetyl chloride;NSC 400463",
    "duplicated_cas_no": "",
    "SMILES": "C(C(Cl)=O)(Cl)(C1=CC=CC=C1)C2=CC=CC=C2",
    "meta_data": {
        "InChI": "InChI=1S/C14H10Cl2O/c15-13(17)14(16,11-7-3-1-4-8-11)12-9-5-2-6-10-12/h1-10H",
        "InChIKey": null,
        "Canonical SMILES": "O=C(Cl)C(Cl)(C=1C=CC=CC1)C=2C=CC=CC2",
        "Molecular Formula": "C<sub>14</sub>H<sub>10</sub>Cl<sub>2</sub>O",
        "Molecular Mass": "265.13",
        "Boiling Point": "180 °C @ Press: 14 Torr",
        "Melting Point": "49-50 °C"
    }
}