{
    "cas_no": "71989-26-9",
    "key_name": "Fmoc-Lys(Boc)-OH",
    "cn_name": "N-alpha-芴甲氧羰基-N-epsilon-叔丁氧羰基-L-赖氨酸;",
    "alternate_name": "<span class=\"text-smallcaps\">L</span>-Lysine, <em>N</em><sup>6</sup>-[(1,1-dimethylethoxy)carbonyl]-<em>N</em><sup>2</sup>-[(9<em>H</em>-fluoren-9-ylmethoxy)carbonyl]-;<em>N</em><sup>6</sup>-[(1,1-Dimethylethoxy)carbonyl]-<em>N</em><sup>2</sup>-[(9<em>H</em>-fluoren-9-ylmethoxy)carbonyl]-<span class=\"text-smallcaps\">L</span>-lysine;Fmoc-Lys(Boc)-OH;<em>N</em><sup>α</sup>-(9-Fluorenylmethoxycarbonyl)-<em>N</em><sup>ε</sup>-(<em>tert</em>-butoxycarbonyl)lysine;N-α-(Fmoc)-N-ε-(t-boc)-<span class=\"text-smallcaps\">L</span>-Lysine-OH;NSC 334302;(<em>S</em>)-6-[(<em>tert</em>-Butoxycarbonyl)amino]-2-[[[(9<em>H</em>-fluoren-9-yl)methoxy]carbonyl]amino]hexanoic acid;(2<em>S</em>)-6-(<em>tert</em>-Butoxycarbonylamino)-2-[[[(9<em>H</em>-fluoren-9-yl)methoxy]carbonyl]amino]hexanoic acid;(<em>S</em>)-2-[[[(9<em>H</em>-Fluoren-9-yl)methoxy]carbonyl]amino]-6-(<em>tert</em>-butoxycarbonylamino)hexanoic acid;<em>N</em>-α-Fluorenylmethoxycarbonyl-<em>N</em>-ε-<em>tert</em>-butoxycarbonyl-<span class=\"text-smallcaps\">L</span>-lysine;(2S)-2-(9<em>H</em>-Fluoren-9-ylmethoxycarbonylamino)-6-[(2-methylpropan-2-yl)oxycarbonylamino]hexanoic acid;N2-Fmoc-N6-BOC-<span class=\"text-smallcaps\">L</span>-lysine",
    "duplicated_cas_no": "618901-75-0;1202364-64-4;1414933-21-3;1884207-95-7",
    "SMILES": "C(OC(N[C@@H](CCCCNC(OC(C)(C)C)=O)C(O)=O)=O)C1C=2C(C=3C1=CC=CC3)=CC=CC2",
    "meta_data": {
        "InChI": "InChI=1S/C26H32N2O6/c1-26(2,3)34-24(31)27-15-9-8-14-22(23(29)30)28-25(32)33-16-21-19-12-6-4-10-17(19)18-11-5-7-13-20(18)21/h4-7,10-13,21-22H,8-9,14-16H2,1-3H3,(H,27,31)(H,28,32)(H,29,30)/t22-/m0/s1",
        "InChIKey": null,
        "Canonical SMILES": "O=C(OCC1C=2C=CC=CC2C=3C=CC=CC31)NC(C(=O)O)CCCCNC(=O)OC(C)(C)C",
        "Molecular Formula": "C<sub>26</sub>H<sub>32</sub>N<sub>2</sub>O<sub>6</sub>",
        "Molecular Mass": "468.54",
        "Melting Point": "132-134 °C"
    }
}