{
    "cas_no": "149-30-4",
    "key_name": "2-Mercaptobenzothiazole",
    "cn_name": "2-巯基苯并噻唑;2-硫醇基苯并噻唑;促进剂M;",
    "alternate_name": "2(3<em>H</em>)-Benzothiazolethione;2-Benzothiazolethiol;2-Benzothiazolinethione;Captax;MBT;2-Mercaptobenzothiazole;2-Mercaptobenzthiazole;Mertax;Nuodeb 84;Rotax;Royal MBT;Thiotax;Mercaptobenzothiazole;Pneumax MBT;Mercaptobenzthiazole;Soxinol M;Vulkacit Mercapto;Ekagom G;Vulkacit M;Kaptax;Dermacid;Accelerator M;Kaptaks;2-MBT;Mebetizole;Mebithizol;Vulkacit Mercapto/C;Accel M;2-Benzothiazolyl mercaptan;Nocceler M;MBT (vulcanization accelerator);Aero Promoter 412;Sanceler M;Vulkacit Mercapto/MG;2,3-Dihydrobenzothiazole-2-thione;Mebetizol;Wobezit M;Nonflex NB;Benz-1,3-thiazolidine-2-thione;1,3-Benzothiazole-2-thione;Vulkafil ZN 94TT01;2-Sulfanylbenzothiazole;Nocceler M-P;Perkacit MBT;1,3-Benzothiazole-2-thiol;NSC 2041;Vulkacit Mercapto MG/C;Aero 407;Sanceler M-G;Benzothiazolethiol;Benzo[<em>d</em>]thiazole-2-thiol;2-Mercapto-1<em>H</em>-benzothiazole;Oricel M;RU 3;Captax MBT;DT 402;OCID;M 2;M 2 (rust inhibitor);accelerator MBT;NB;Rubator MBT;MBT-2;Accelerant M;Rhenogran MBT 80;MBT 80;2,3-Dihydro-1,3-benzothiazole-2-thione;2-Mercaptobenzo[<em>d</em>]thiazole;Rhenogran MBT;Rhenocure Mercapto C;Altermix MBT 80GE;MBT 80GE",
    "duplicated_cas_no": "1321-08-0;4464-58-8;12640-90-3;55199-93-4;81605-65-4;112242-83-8;119170-41-1;885216-62-6;2213445-86-2",
    "SMILES": "S=C1NC=2C(S1)=CC=CC2",
    "meta_data": {
        "InChI": "InChI=1S/C7H5NS2/c9-7-8-5-3-1-2-4-6(5)10-7/h1-4H,(H,8,9)",
        "InChIKey": null,
        "Canonical SMILES": "S=C1SC=2C=CC=CC2N1",
        "Molecular Formula": "C<sub>7</sub>H<sub>5</sub>NS<sub>2</sub>",
        "Molecular Mass": "167.25",
        "Melting Point": "180.2-181.7 °C",
        "Density": "1.42 g/cm³"
    }
}