{
    "cas_no": "57260-71-6",
    "key_name": "<em>N</em>-BOC-Piperazine",
    "cn_name": "1-叔丁氧羰基哌嗪;",
    "alternate_name": "1-Piperazinecarboxylic acid, 1,1-dimethylethyl ester;1-(<em>tert</em>-Butoxycarbonyl)piperazine;<em>N</em>-(<em>tert</em>-Butoxycarbonyl)piperazine;<em>tert</em>-Butyl 1-piperazinecarboxylate;1-[(1,1-Dimethylethoxy)carbonyl]piperazine;1,1-Dimethylethyl 1-piperazinecarboxylate;1-(<em>tert</em>-Butyloxycarbonyl)piperazine;1-Piperazinecarboxylic acid <em>tert</em>-butyl ester;<em>N</em>-<em>tert</em>-Butyloxycarbonylpiperazine;<em>N</em>-BOC-Piperazine;4-(<em>tert</em>-Butyloxycarbonyl)piperazine;1,1-Dimethylethyl piperazin-1-carboxylate;<em>tert</em>-Butoxy piperazine-1-carboxylate;Mono-<em>tert</em>-butoxycarbonylpiperazine;<em>tert</em>-Butyl piperazin-1-carboxylate;<em>N</em>-<em>tert</em>-Butoxycarbonylpiperazine;CD 3-3022",
    "duplicated_cas_no": "131339-76-9",
    "SMILES": "C(OC(C)(C)C)(=O)N1CCNCC1",
    "meta_data": {
        "InChI": "InChI=1S/C9H18N2O2/c1-9(2,3)13-8(12)11-6-4-10-5-7-11/h10H,4-7H2,1-3H3",
        "InChIKey": null,
        "Canonical SMILES": "O=C(OC(C)(C)C)N1CCNCC1",
        "Molecular Formula": "C<sub>9</sub>H<sub>18</sub>N<sub>2</sub>O<sub>2</sub>",
        "Molecular Mass": "186.25",
        "Melting Point": "70 °C"
    }
}