{
    "cas_no": "1007-15-4",
    "key_name": "1-(3-Bromo-4-fluorophenyl)ethanone",
    "cn_name": "3-溴-4-氟苯甲酮;",
    "alternate_name": "Ethanone, 1-(3-bromo-4-fluorophenyl)-;Acetophenone, 3′-bromo-4′-fluoro-;1-(3-Bromo-4-fluorophenyl)ethanone;3-Bromo-4-fluoroacetophenone;1-(3-Bromo-4-fluorophenyl)ethan-1-one;3′-Bromo-4′-fluoroacetophenone;1-Acetyl-3-bromo-4-fluorobenzene;4′-Fluoro-3′-bromoacetophenone;1-(4-Fluoro-3-bromophenyl)-ethanone",
    "duplicated_cas_no": "",
    "SMILES": "C(C)(=O)C1=CC(Br)=C(F)C=C1",
    "meta_data": {
        "InChI": "InChI=1S/C8H6BrFO/c1-5(11)6-2-3-8(10)7(9)4-6/h2-4H,1H3",
        "InChIKey": null,
        "Canonical SMILES": "O=C(C1=CC=C(F)C(Br)=C1)C",
        "Molecular Formula": "C<sub>8</sub>H<sub>6</sub>BrFO",
        "Molecular Mass": "217.04",
        "Boiling Point": "230 °C",
        "Melting Point": "57 °C"
    }
}