{
    "cas_no": "18212-21-0",
    "key_name": "4-Methyl-1,2,3-thiadiazole-5-carboxylic acid",
    "cn_name": "4-甲基-1,2,3-噻二唑-5-羧酸;",
    "alternate_name": "1,2,3-Thiadiazole-5-carboxylic acid, 4-methyl-;4-Methyl-1,2,3-thiadiazole-5-carboxylic acid;SV 03;NK-F 001",
    "duplicated_cas_no": "",
    "SMILES": "C(O)(=O)C1=C(C)N=NS1",
    "meta_data": {
        "InChI": "InChI=1S/C4H4N2O2S/c1-2-3(4(7)8)9-6-5-2/h1H3,(H,7,8)",
        "InChIKey": null,
        "Canonical SMILES": "O=C(O)C=1SN=NC1C",
        "Molecular Formula": "C<sub>4</sub>H<sub>4</sub>N<sub>2</sub>O<sub>2</sub>S",
        "Molecular Mass": "144.15",
        "Melting Point": "174-178 °C"
    }
}