{
    "cas_no": "2110-18-1",
    "key_name": "2-(3-Phenylpropyl)pyridine",
    "cn_name": null,
    "alternate_name": "Pyridine, 2-(3-phenylpropyl)-;2-(3-Phenylpropyl)pyridine",
    "duplicated_cas_no": "",
    "SMILES": "C(CCC1=CC=CC=N1)C2=CC=CC=C2",
    "meta_data": {
        "InChI": "InChI=1S/C14H15N/c1-2-7-13(8-3-1)9-6-11-14-10-4-5-12-15-14/h1-5,7-8,10,12H,6,9,11H2",
        "InChIKey": null,
        "Canonical SMILES": "N=1C=CC=CC1CCCC=2C=CC=CC2",
        "Molecular Formula": "C<sub>14</sub>H<sub>15</sub>N",
        "Molecular Mass": "197.28",
        "Boiling Point": "132-135 °C @ Press: 2 Torr",
        "Density": "1.0171 g/cm³ @ Temp: 25 °C"
    }
}