{
    "cas_no": "5470-66-6",
    "key_name": "Pyridine, 2-methyl-4-nitro-, 1-oxide",
    "cn_name": "2-甲基-4-硝基吡啶-N-氧化物;",
    "alternate_name": "Pyridine, 2-methyl-4-nitro-, 1-oxide;2-Picoline, 4-nitro-, 1-oxide;4-Nitro-2-methylpyridine <em>N</em>-oxide;4-Nitro-α-picoline <em>N</em>-oxide;2-Methyl-4-nitropyridine 1-oxide;4-Nitro-2-picoline <em>N</em>-oxide;2-Methyl-4-nitropyridine <em>N</em>-oxide;4-Nitro-2-methylpyridine 1-oxide;NSC 27962;2-Methyl-4-nitropyridin-1-ium-1-olate;2-Methyl-4-nitro-1-oxidopyridin-1-ium",
    "duplicated_cas_no": "",
    "SMILES": "N(=O)(=O)C=1C=C(C)N(=O)=CC1",
    "meta_data": {
        "InChI": "InChI=1S/C6H6N2O3/c1-5-4-6(8(10)11)2-3-7(5)9/h2-4H,1H3",
        "InChIKey": null,
        "Canonical SMILES": "O=N(=O)C1=CC=N(=O)C(=C1)C",
        "Molecular Formula": "C<sub>6</sub>H<sub>6</sub>N<sub>2</sub>O<sub>3</sub>",
        "Molecular Mass": "154.12",
        "Melting Point": "156-156.5 °C"
    }
}