{
    "cas_no": "65232-57-7",
    "key_name": "2-Bromo-1,3-diethylbenzene",
    "cn_name": "2,6-二乙基溴苯;",
    "alternate_name": "Benzene, 2-bromo-1,3-diethyl-;2-Bromo-1,3-diethylbenzene;1-Bromo-2,6-diethylbenzene;2,6-Diethylphenyl bromide;2,6-Diethyl-1-bromobenzene",
    "duplicated_cas_no": "",
    "SMILES": "C(C)C1=C(Br)C(CC)=CC=C1",
    "meta_data": {
        "InChI": "InChI=1S/C10H13Br/c1-3-8-6-5-7-9(4-2)10(8)11/h5-7H,3-4H2,1-2H3",
        "InChIKey": null,
        "Canonical SMILES": "BrC=1C(=CC=CC1CC)CC",
        "Molecular Formula": "C<sub>10</sub>H<sub>13</sub>Br",
        "Molecular Mass": "213.11",
        "Boiling Point": "109-114 °C @ Press: 16 Torr",
        "Density": "1.264 g/cm³ @ Temp: 27 °C"
    }
}