{
    "cas_no": "15937-07-2",
    "key_name": "2,3-Dihydro-5,6-dimethoxy-1<em>H</em>-indole",
    "cn_name": null,
    "alternate_name": "1<em>H</em>-Indole, 2,3-dihydro-5,6-dimethoxy-;Indoline, 5,6-dimethoxy-;2,3-Dihydro-5,6-dimethoxy-1<em>H</em>-indole;5,6-Dimethoxyindoline",
    "duplicated_cas_no": "",
    "SMILES": "O(C)C=1C=C2C(=CC1OC)NCC2",
    "meta_data": {
        "InChI": "InChI=1S/C10H13NO2/c1-12-9-5-7-3-4-11-8(7)6-10(9)13-2/h5-6,11H,3-4H2,1-2H3",
        "InChIKey": null,
        "Canonical SMILES": "O(C=1C=C2NCCC2=CC1OC)C",
        "Molecular Formula": "C<sub>10</sub>H<sub>13</sub>NO<sub>2</sub>",
        "Molecular Mass": "179.22",
        "Melting Point": "105 °C"
    }
}