{
    "cas_no": "21862-63-5",
    "key_name": "<em>trans</em>-4-<em>tert</em>-Butylcyclohexanol",
    "cn_name": null,
    "alternate_name": "Cyclohexanol, 4-(1,1-dimethylethyl)-, <em>trans</em>-;Cyclohexanol, 4-<em>tert</em>-butyl-, <em>trans</em>-;<em>trans</em>-4-(1,1-Dimethylethyl)cyclohexanol;<em>trans</em>-4-<em>tert</em>-Butylcyclohexanol;<em>trans</em>-1-<em>tert</em>-Butylcyclohexan-4-ol;<em>trans</em>-4-<em>tert</em>-Butyl-1-cyclohexanol;<em>trans</em>-4-<em>tert</em>-Butylcyclohexyl alcohol;<em>trans</em>-<em>p</em>-<em>tert</em>-Butylcyclohexanol;SymSitive 1609;SymSitive DPG;FEMA 4724",
    "duplicated_cas_no": "937-06-4",
    "SMILES": "C(C)(C)(C)[C@H]1CC[C@H](O)CC1",
    "meta_data": {
        "InChI": "InChI=1/C10H20O/c1-10(2,3)8-4-6-9(11)7-5-8/h8-9,11H,4-7H2,1-3H3/t8-,9-",
        "InChIKey": null,
        "Canonical SMILES": "OC1CCC(CC1)C(C)(C)C",
        "Molecular Formula": "C<sub>10</sub>H<sub>20</sub>O",
        "Molecular Mass": "156.27",
        "Melting Point": "78-79 °C"
    }
}