{
    "cas_no": "107-04-0",
    "key_name": "1-Bromo-2-chloroethane",
    "cn_name": "1-溴-2-氯乙烷;氯乙基溴;",
    "alternate_name": "Ethane, 1-bromo-2-chloro-;1-Bromo-2-chloroethane;1-Chloro-2-bromoethane;Ethylene chlorobromide;2-Bromo-1-chloroethane;2-Chloroethyl bromide;2-Bromoethyl chloride;β-Chloroethyl bromide;NSC 60186",
    "duplicated_cas_no": "",
    "SMILES": "C(CCl)Br",
    "meta_data": {
        "InChI": "InChI=1S/C2H4BrCl/c3-1-2-4/h1-2H2",
        "InChIKey": null,
        "Canonical SMILES": "ClCCBr",
        "Molecular Formula": "C<sub>2</sub>H<sub>4</sub>BrCl",
        "Molecular Mass": "143.41",
        "Boiling Point": "107 °C",
        "Melting Point": "-16.7 °C",
        "Density": "1.7392 g/cm³ @ Temp: 20 °C"
    }
}