{
    "cas_no": "79-16-3",
    "key_name": "<em>N</em>-Methylacetamide",
    "cn_name": "N-甲基乙酰胺;",
    "alternate_name": "Acetamide, <em>N</em>-methyl-;<em>N</em>-Methylacetamide;Methylacetamide;Monomethylacetamide;NSC 747;ACE-NME",
    "duplicated_cas_no": "1320-47-4",
    "SMILES": "C(NC)(C)=O",
    "meta_data": {
        "InChI": "InChI=1S/C3H7NO/c1-3(5)4-2/h1-2H3,(H,4,5)",
        "InChIKey": null,
        "Canonical SMILES": "O=C(NC)C",
        "Molecular Formula": "C<sub>3</sub>H<sub>7</sub>NO",
        "Molecular Mass": "73.09",
        "Boiling Point": "205 °C",
        "Melting Point": "28 °C",
        "Density": "0.9371 g/cm³ @ Temp: 25 °C"
    }
}