{
    "cas_no": "2396-68-1",
    "key_name": "4-<em>tert</em>-Butylthiophenol",
    "cn_name": "4-叔丁基苯硫酚;",
    "alternate_name": "Benzenethiol, 4-(1,1-dimethylethyl)-;Benzenethiol, <em>p</em>-<em>tert</em>-butyl-;4-(1,1-Dimethylethyl)benzenethiol;4-<em>tert</em>-Butylthiophenol;<em>p</em>-<em>tert</em>-Butylbenzenethiol;4-<em>tert</em>-Butylbenzenethiol;<em>p</em>-<em>tert</em>-Butylthiophenol;<em>p</em>-<em>tert</em>-Butylphenyl mercaptan;<em>p</em>-<em>tert</em>-Butylphenylthiol;NSC 229514;NSC 26804;NSC 57807;4-Tertbutylbenzenethiol;4-<em>tert</em>-Butylbenzenthiol",
    "duplicated_cas_no": "",
    "SMILES": "C(C)(C)(C)C1=CC=C(S)C=C1",
    "meta_data": {
        "InChI": "InChI=1S/C10H14S/c1-10(2,3)8-4-6-9(11)7-5-8/h4-7,11H,1-3H3",
        "InChIKey": null,
        "Canonical SMILES": "SC1=CC=C(C=C1)C(C)(C)C",
        "Molecular Formula": "C<sub>10</sub>H<sub>14</sub>S",
        "Molecular Mass": "166.28",
        "Boiling Point": "109-110 °C @ Press: 13 Torr"
    }
}