{
    "cas_no": "55268-74-1",
    "key_name": "Praziquantel",
    "cn_name": "吡喹酮;2-环己基甲酰基-1,2,3,6,7,11b-六氢-4H-吡嗪并[2,1-a]异喹啉-4-酮;",
    "alternate_name": "4<em>H</em>-Pyrazino[2,1-<em>a</em>]isoquinolin-4-one, 2-(cyclohexylcarbonyl)-1,2,3,6,7,11b-hexahydro-;2-(Cyclohexylcarbonyl)-1,2,3,6,7,11b-hexahydro-4<em>H</em>-pyrazino[2,1-<em>a</em>]isoquinolin-4-one;Praziquantel;Droncit;Embay 8440;Pyquiton;Biltricide;(±)-Praziquantel;Azinox;Distocide;Prazinon;Cesol;Cysticide;Warmnil;Saniquantrel;Hada Clean;Benesal;(±)-Praziquatel;Epiquantel;2-(Cyclohexanecarbonyl)-3,6,7,11b-tetrahydro-1<em>H</em>-pyrazino[2,1-<em>a</em>]isoquinolin-4-one;2-Cyclohexanecarbonyl-1,2,3,6,7,11b-hexahydro-pyrazino[2,1-<em>a</em>]isoquinolin-4-one;2-(Cyclohexanecarbonyl)-2,3,6,7-tetrahydro-1<em>H</em>-pyrazino[2,1-<em>a</em>]isoquinolin-4(11b<em>H</em>)-one;MeSH ID: D011223",
    "duplicated_cas_no": "135526-78-2;57452-31-0",
    "SMILES": "O=C1N2C(C=3C(CC2)=CC=CC3)CN(C(=O)C4CCCCC4)C1",
    "meta_data": {
        "InChI": "InChI=1S/C19H24N2O2/c22-18-13-20(19(23)15-7-2-1-3-8-15)12-17-16-9-5-4-6-14(16)10-11-21(17)18/h4-6,9,15,17H,1-3,7-8,10-13H2",
        "InChIKey": null,
        "Canonical SMILES": "O=C1N2CCC=3C=CC=CC3C2CN(C(=O)C4CCCCC4)C1",
        "Molecular Formula": "C<sub>19</sub>H<sub>24</sub>N<sub>2</sub>O<sub>2</sub>",
        "Molecular Mass": "312.41",
        "Melting Point": "136 °C"
    }
}