{
    "cas_no": "38840-23-2",
    "key_name": "Emodin 1-<em>O</em>-β-<span class=\"text-smallcaps\">D</span>-glucopyranoside",
    "cn_name": null,
    "alternate_name": "9,10-Anthracenedione, 1-(β-<span class=\"text-smallcaps\">D</span>-glucopyranosyloxy)-6,8-dihydroxy-3-methyl-;1-(β-<span class=\"text-smallcaps\">D</span>-Glucopyranosyloxy)-6,8-dihydroxy-3-methyl-9,10-anthracenedione;Emodin 1-β-<span class=\"text-smallcaps\">D</span>-glucopyranoside;1-<em>O</em>-β-<span class=\"text-smallcaps\">D</span>-Glucopyranosylemodin;Emodin 1-<em>O</em>-β-<span class=\"text-smallcaps\">D</span>-glucopyranoside;Emodin 1-β-glucoside;Emodin 1-<em>O</em>-β-<span class=\"text-smallcaps\">D</span>-glucoside;Emodin-1-<em>O</em>-glucoside",
    "duplicated_cas_no": "100456-03-9;82145-64-0",
    "SMILES": "O(C1=C2C(C(=O)C=3C(C2=O)=C(O)C=C(O)C3)=CC(C)=C1)[C@@H]4O[C@H](CO)[C@@H](O)[C@H](O)[C@H]4O",
    "meta_data": {
        "InChI": "InChI=1S/C21H20O10/c1-7-2-9-15(18(27)14-10(16(9)25)4-8(23)5-11(14)24)12(3-7)30-21-20(29)19(28)17(26)13(6-22)31-21/h2-5,13,17,19-24,26,28-29H,6H2,1H3/t13-,17-,19+,20-,21-/m1/s1",
        "InChIKey": null,
        "Canonical SMILES": "O=C1C=2C=C(O)C=C(O)C2C(=O)C3=C(OC4OC(CO)C(O)C(O)C4O)C=C(C=C13)C",
        "Molecular Formula": "C<sub>21</sub>H<sub>20</sub>O<sub>10</sub>",
        "Molecular Mass": "432.38",
        "Melting Point": "239-241 °C"
    }
}