{
    "cas_no": "61301-33-5",
    "key_name": "Schisandrin C",
    "cn_name": "五味子丙素;",
    "alternate_name": "Cycloocta[1,2-<em>f</em>:3,4-<em>f</em>′]bis[1,3]benzodioxole, 5,6,7,8-tetrahydro-13,14-dimethoxy-6,7-dimethyl-, (6<em>R</em>,7<em>S</em>,13a<em>S</em>)-;Cycloocta[1,2-<em>f</em>:3,4-<em>f</em>′]bis[1,3]benzodioxole, 5,6,7,8-tetrahydro-13,14-dimethoxy-6,7-dimethyl-, stereoisomer;(6<em>R</em>,7<em>S</em>,13a<em>S</em>)-5,6,7,8-Tetrahydro-13,14-dimethoxy-6,7-dimethylcycloocta[1,2-<em>f</em>:3,4-<em>f</em>′]bis[1,3]benzodioxole;Wuweizisu C;Schizandrin C;Schisandrin C;(-)-Wuweizisu C;(<em>S</em>)-(-)-Schisandrin C;(-)-Schisandrin C",
    "duplicated_cas_no": "",
    "SMILES": "O(C)C1=C2C3=C(OC)C4=C(C=C3CC(C)C(C)CC2=CC5=C1OCO5)OCO4",
    "meta_data": {
        "InChI": "InChI=1S/C22H24O6/c1-11-5-13-7-15-19(27-9-25-15)21(23-3)17(13)18-14(6-12(11)2)8-16-20(22(18)24-4)28-10-26-16/h7-8,11-12H,5-6,9-10H2,1-4H3",
        "InChIKey": null,
        "Canonical SMILES": "O(C1=C2OCOC2=CC3=C1C4=C(OC)C=5OCOC5C=C4CC(C)C(C)C3)C",
        "Molecular Formula": "C<sub>22</sub>H<sub>24</sub>O<sub>6</sub>",
        "Molecular Mass": "384.42",
        "Melting Point": "122-123 °C"
    }
}