{
    "cas_no": "3304-70-9",
    "key_name": "4,5-Dimethyl 1<em>H</em>-imidazole-4,5-dicarboxylate",
    "cn_name": "1H-咪唑-4,5-二甲酸二甲酯;",
    "alternate_name": "1<em>H</em>-Imidazole-4,5-dicarboxylic acid, 4,5-dimethyl ester;Imidazole-4,5-dicarboxylic acid, dimethyl ester;1<em>H</em>-Imidazole-4,5-dicarboxylic acid, dimethyl ester;4,5-Dimethyl 1<em>H</em>-imidazole-4,5-dicarboxylate;Dimethyl imidazole-4,5-dicarboxylate;Dimethyl 1<em>H</em>-imidazole-4,5-dicarboxylate;NSC 44628;NSC 44693;Imidazol-4,5-dicarboxylic acid dimethyl ester",
    "duplicated_cas_no": "",
    "SMILES": "C(OC)(=O)C1=C(C(OC)=O)N=CN1",
    "meta_data": {
        "InChI": "InChI=1S/C7H8N2O4/c1-12-6(10)4-5(7(11)13-2)9-3-8-4/h3H,1-2H3,(H,8,9)",
        "InChIKey": null,
        "Canonical SMILES": "O=C(OC)C=1N=CNC1C(=O)OC",
        "Molecular Formula": "C<sub>7</sub>H<sub>8</sub>N<sub>2</sub>O<sub>4</sub>",
        "Molecular Mass": "184.15",
        "Melting Point": "200-203 °C"
    }
}