{
    "cas_no": "6801-40-7",
    "key_name": "Magnocurarine",
    "cn_name": null,
    "alternate_name": "Isoquinolinium, 1,2,3,4-tetrahydro-7-hydroxy-1-[(4-hydroxyphenyl)methyl]-6-methoxy-2,2-dimethyl-, (1<em>R</em>)-;Magnocurarine;Isoquinolinium, 1,2,3,4-tetrahydro-7-hydroxy-1-[(4-hydroxyphenyl)methyl]-6-methoxy-2,2-dimethyl-, (<em>R</em>)-;(1<em>R</em>)-1,2,3,4-Tetrahydro-7-hydroxy-1-[(4-hydroxyphenyl)methyl]-6-methoxy-2,2-dimethylisoquinolinium;(-)-Magnocurarine;<span class=\"text-smallcaps\">D</span>-(-)-Magnocurarine;(R)-Magnocurarine;(1R)-1-[(4-Hydroxyphenyl)methyl]-6-methoxy-2,2-dimethyl-3,4-dihydro-1<em>H</em>-isoquinolin-2-ium-7-ol",
    "duplicated_cas_no": "",
    "SMILES": "C([C@@H]1C=2C(=CC(OC)=C(O)C2)CC[N+]1(C)C)C3=CC=C(O)C=C3",
    "meta_data": {
        "InChI": "InChI=1S/C19H23NO3/c1-20(2)9-8-14-11-19(23-3)18(22)12-16(14)17(20)10-13-4-6-15(21)7-5-13/h4-7,11-12,17H,8-10H2,1-3H3,(H-,21,22)/p+1/t17-/m1/s1",
        "InChIKey": null,
        "Canonical SMILES": "OC1=CC=C(C=C1)CC2C3=CC(O)=C(OC)C=C3CC[N+]2(C)C",
        "Molecular Formula": "C<sub>19</sub>H<sub>24</sub>NO<sub>3</sub>",
        "Molecular Mass": "",
        "Melting Point": "198-199 °C (decomp)"
    }
}