{
    "cas_no": "56-29-1",
    "key_name": "(±)-Hexobarbital",
    "cn_name": "环已巴比妥;环已巴比妥;",
    "alternate_name": "2,4,6(1<em>H</em>,3<em>H</em>,5<em>H</em>)-Pyrimidinetrione, 5-(1-cyclohexen-1-yl)-1,5-dimethyl-;Barbituric acid, 5-(1-cyclohexen-1-yl)-1,5-dimethyl-;5-(1-Cyclohexen-1-yl)-1,5-dimethyl-2,4,6(1<em>H</em>,3<em>H</em>,5<em>H</em>)-pyrimidinetrione;Citopan;5-(1-Cyclohexen-1-yl)-1,5-dimethylbarbituric acid;Cyclonal;Cyclopan;1,5-Dimethyl-5-(1-cyclohexenyl)barbituric acid;Dorico;Enhexymal;Evipal;Hexanastab Oral;Hexobarbital;Hexobarbitone;Methexenyl;<em>N</em>-Methyl-5-cyclohexenyl-5-methylbarbituric acid;Noctivane;Sombulex;Somnalert;Hexenal (barbiturate);Narcosan;5-(1-Cyclohexenyl-1)-1-methyl-5-methylbarbituric acid;Methylhexabital;Evipan;Barbidorm;Citodon;(±)-Hexobarbitone;(±)-Hexobarbital;(<em>RS</em>)-Hexobarbital;Sombucaps;Methylhexabarbital;NSC 71929;(±)-5-(1-Cyclohexen-1-yl)-1,5-dimethylbarbituric acid;MeSH ID: D006591",
    "duplicated_cas_no": "630-97-7;7200-11-5",
    "SMILES": "CC1(C(=O)N(C)C(=O)NC1=O)C=2CCCCC2",
    "meta_data": {
        "InChI": "InChI=1S/C12H16N2O3/c1-12(8-6-4-3-5-7-8)9(15)13-11(17)14(2)10(12)16/h6H,3-5,7H2,1-2H3,(H,13,15,17)",
        "InChIKey": null,
        "Canonical SMILES": "O=C1NC(=O)C(C(=O)N1C)(C2=CCCCC2)C",
        "Molecular Formula": "C<sub>12</sub>H<sub>16</sub>N<sub>2</sub>O<sub>3</sub>",
        "Molecular Mass": "236.27",
        "Melting Point": "146.5 °C"
    }
}