{
    "cas_no": "18381-45-8",
    "key_name": "4,4-Diethoxybutanenitrile",
    "cn_name": "3-氰基丙醛二乙基缩醛;",
    "alternate_name": "Butanenitrile, 4,4-diethoxy-;Succinaldehydonitrile, diethyl acetal;Propionaldehyde, 3-cyano-, diethyl acetal;4,4-Diethoxybutanenitrile;4,4-Diethoxybutyronitrile;3-Cyanopropionaldehyde diethyl acetal",
    "duplicated_cas_no": "",
    "SMILES": "C(CCC#N)(OCC)OCC",
    "meta_data": {
        "InChI": "InChI=1S/C8H15NO2/c1-3-10-8(11-4-2)6-5-7-9/h8H,3-6H2,1-2H3",
        "InChIKey": null,
        "Canonical SMILES": "N#CCCC(OCC)OCC",
        "Molecular Formula": "C<sub>8</sub>H<sub>15</sub>NO<sub>2</sub>",
        "Molecular Mass": "157.21",
        "Boiling Point": "104-106 °C",
        "Density": "0.947 g/cm³ @ Temp: 25 °C"
    }
}