{
    "cas_no": "14618-80-5",
    "key_name": "Benzyl (-)-glycidyl ether",
    "cn_name": "(R)-苄氧甲基环氧乙烷;",
    "alternate_name": "Oxirane, 2-[(phenylmethoxy)methyl]-, (2<em>R</em>)-;Propane, 1-(benzyloxy)-2,3-epoxy-, (<em>R</em>)-;Oxirane, [(phenylmethoxy)methyl]-, (<em>R</em>)-;Oxirane, [(phenylmethoxy)methyl]-, (2<em>R</em>)-;(2<em>R</em>)-2-[(Phenylmethoxy)methyl]oxirane;(<em>R</em>)-<em>O</em>-Benzylglycidol;(-)-2-(Benzyloxymethyl)oxirane;(<em>R</em>)-Glycidol benzyl ether;(<em>R</em>)-Benzylglycidol;(-)-(<em>R</em>)-1,2-Epoxy-3-(benzyloxy)propane;(<em>R</em>)-Glycidyl benzyl ether;(<em>R</em>)-(-)-Glycidyl benzyl ether;Benzyl (<em>R</em>)-(-)-glycidyl ether;Benzyl (-)-glycidyl ether;(<em>R</em>)-(-)-Benzylglycidol;(<em>R</em>)-2-(Benzyloxymethyl)oxirane;(-)-Glycidyl benzyl ether;(<em>R</em>)-Benzyl glycidyl ether;Benzyl (R)-glycidyl ether;(<em>R</em>)-1-Benzyloxy-2,3-epoxypropane;(<em>R</em>)-Benzyloxymethyloxirane;(2<em>R</em>)-2-[(Benzyloxy)methyl]oxirane;Benzyl (R)-2-epoxypropyl ether;(R)-Benzyloxymethyloxirane;(R)-(-)-Benzyl glycidyl ether;(2R)-2-(Phenylmethoxymethyl)oxirane",
    "duplicated_cas_no": "16495-05-9",
    "SMILES": "C(OCC1=CC=CC=C1)[C@H]2CO2",
    "meta_data": {
        "InChI": "InChI=1S/C10H12O2/c1-2-4-9(5-3-1)6-11-7-10-8-12-10/h1-5,10H,6-8H2/t10-/m0/s1",
        "InChIKey": null,
        "Canonical SMILES": "O(CC=1C=CC=CC1)CC2OC2",
        "Molecular Formula": "C<sub>10</sub>H<sub>12</sub>O<sub>2</sub>",
        "Molecular Mass": "164.20",
        "Boiling Point": "120-130 °C @ Press: 0.6 Torr"
    }
}