{
    "cas_no": "25038-32-8",
    "key_name": "Isoprene-styrene copolymer",
    "cn_name": null,
    "alternate_name": "Benzene, ethenyl-, polymer with 2-methyl-1,3-butadiene;Styrene, polymer with isoprene;Isoprene, polymer with styrene;1,3-Butadiene, 2-methyl-, polymer with ethenylbenzene;Isoprene-styrene copolymer;Isoprene-styrene polymer;XD 3709.08;Poly(styrene-isoprene);2-Methyl-1,3-butadiene-styrene copolymer;M 3062;Styrene-isoprene copolymer;Kraton D 116;Isopentadiene-styrene copolymer;Infineum SV 150;T 2650;Shellvis SV 201;BI-THIN 602",
    "duplicated_cas_no": "82762-01-4",
    "SMILES": "C(=C)C1=CC=CC=C1.C(C=C)(C)=C",
    "meta_data": {
        "InChI": "InChI=1S/C8H8.C5H8/c1-2-8-6-4-3-5-7-8;1-4-5(2)3/h2-7H,1H2;4H,1-2H2,3H3",
        "InChIKey": null,
        "Canonical SMILES": "C=CC=1C=CC=CC1.C=CC(=C)C",
        "Molecular Formula": "(C<sub>8</sub>H<sub>8</sub>.C<sub>5</sub>H<sub>8</sub>)<sub>x</sub>",
        "Molecular Mass": "",
        "Melting Point": "95 °C"
    }
}