{
    "cas_no": "1190-48-3",
    "key_name": "<em>N</em><sup>ε</sup>-Formyl-<span class=\"text-smallcaps\">L</span>-lysine",
    "cn_name": "Nε-甲酰-L-赖氨酸;",
    "alternate_name": "<span class=\"text-smallcaps\">L</span>-Lysine, <em>N</em><sup>6</sup>-formyl-;Lysine, <em>N</em><sup>6</sup>-formyl-, <span class=\"text-smallcaps\">L</span>-;Lysine, <em>N</em><sup>6</sup>-formyl-;<em>N</em><sup>6</sup>-Formyl-<span class=\"text-smallcaps\">L</span>-lysine;<em>N</em><sup>ε</sup>-Formyllysine;<em>N</em><sup>ε</sup>-Formyl-<span class=\"text-smallcaps\">L</span>-lysine;Formetol;NSC 334317",
    "duplicated_cas_no": "",
    "SMILES": "C([C@@H](C(O)=O)N)CCCNC=O",
    "meta_data": {
        "InChI": "InChI=1S/C7H14N2O3/c8-6(7(11)12)3-1-2-4-9-5-10/h5-6H,1-4,8H2,(H,9,10)(H,11,12)/t6-/m0/s1",
        "InChIKey": null,
        "Canonical SMILES": "O=CNCCCCC(N)C(=O)O",
        "Molecular Formula": "C<sub>7</sub>H<sub>14</sub>N<sub>2</sub>O<sub>3</sub>",
        "Molecular Mass": "174.20",
        "Melting Point": "214-215 °C"
    }
}