{
    "cas_no": "130-95-0",
    "key_name": "Quinine",
    "cn_name": "奎宁;无水奎宁;金鸡纳碱;金鸡纳霜;(6-甲氧基-4-喹啉基)(5-乙烯基-1-氮杂双环[2.2.2]辛烷-2-基)甲醇;",
    "alternate_name": "Cinchonan-9-ol, 6′-methoxy-, (8α,9<em>R</em>)-;Quinine;(8α,9<em>R</em>)-6′-Methoxycinchonan-9-ol;6′-Methoxycinchonidine;(-)-Quinine;(8<em>S</em>,9<em>R</em>)-Quinine;(<em>R</em>)-(-)-Quinine;NSC 192949;WR297608;Qualaquin;Mosgard;Quinlup;Quine 9;Cinkona;Quinex;Quinlex;Rezquin;QSM;SW 85833;(<em>R</em>)-(6-Methoxy-4-quinolyl)[(2<em>S</em>)-5-vinylquinuclidin-2-yl]methanol;MeSH ID: D011803",
    "duplicated_cas_no": "6912-57-8;12239-42-8;21480-31-9;55980-20-6;72646-90-3;95650-40-1;128544-03-6;767303-40-2;840482-04-4;857212-53-4;864908-93-0;875538-34-4;888714-03-2;890027-24-4;894767-09-0;898813-59-7;898814-28-3;899813-83-3;900786-66-5;900789-95-9;906550-97-8;909263-47-4;909767-48-2;909882-78-6;910878-25-0;910880-97-6;911445-75-5;918778-04-8;1071756-51-8;1267651-57-9;1628705-47-4;2244812-93-7;2244812-97-1;2409557-51-1;2566761-34-8;2929261-86-7;3032276-91-5",
    "SMILES": "[C@@H](O)(C=1C2=C(C=CC(OC)=C2)N=CC1)[C@]3([N@@]4C[C@H](C=C)[C@](C3)(CC4)[H])[H]",
    "meta_data": {
        "InChI": "InChI=1S/C20H24N2O2/c1-3-13-12-22-9-7-14(13)10-19(22)20(23)16-6-8-21-18-5-4-15(24-2)11-17(16)18/h3-6,8,11,13-14,19-20,23H,1,7,9-10,12H2,2H3/t13-,14-,19-,20+/m0/s1",
        "InChIKey": null,
        "Canonical SMILES": "OC(C=1C=CN=C2C=CC(OC)=CC21)C3N4CCC(C3)C(C=C)C4",
        "Molecular Formula": "C<sub>20</sub>H<sub>24</sub>N<sub>2</sub>O<sub>2</sub>",
        "Molecular Mass": "324.42",
        "Melting Point": "177 °C (decomp)"
    }
}