{
    "cas_no": "2511-09-3",
    "key_name": "Ethyl phenylphosphinate",
    "cn_name": "苯基亚膦酸乙酯;",
    "alternate_name": "Phosphinic acid, <em>P</em>-phenyl-, ethyl ester;Phosphinic acid, phenyl-, ethyl ester;Ethyl phenylphosphinate;<em>O</em>-Ethyl phenylphosphinate;Ethoxyphenylphosphine oxide;Ethyl benzenephosphinite;Phenylphosphinic acid ethyl ester;NSC 300841",
    "duplicated_cas_no": "111611-87-1;54441-79-1",
    "SMILES": "P(OCC)(=O)C1=CC=CC=C1",
    "meta_data": {
        "InChI": "InChI=1S/C8H11O2P/c1-2-10-11(9)8-6-4-3-5-7-8/h3-7,11H,2H2,1H3",
        "InChIKey": null,
        "Canonical SMILES": "O=P(OCC)C=1C=CC=CC1",
        "Molecular Formula": "C<sub>8</sub>H<sub>11</sub>O<sub>2</sub>P",
        "Molecular Mass": "170.15",
        "Boiling Point": "116-117 °C @ Press: 4 Torr"
    }
}