{
    "cas_no": "103079-11-4",
    "key_name": "4-[Bis(phenylmethyl)amino]-2-methylbenzaldehyde 2,2-diphenylhydrazone",
    "cn_name": "2-甲基-4-二苄氨基苯甲醛-1,1-二苯腙;",
    "alternate_name": "Benzaldehyde, 4-[bis(phenylmethyl)amino]-2-methyl-, 2,2-diphenylhydrazone;Benzaldehyde, 4-[bis(phenylmethyl)amino]-2-methyl-, diphenylhydrazone;4-[Bis(phenylmethyl)amino]-2-methylbenzaldehyde 2,2-diphenylhydrazone;CTC 191;2-Methyl-4-dibenzylaminobenzaldehyde <em>N</em>,<em>N</em>-diphenylhydrazone;4-Dibenzylamino-2-methylbenzaldehyde diphenylhydrazone;2-Methyl-4-dibenzylaminobenzoaldehyde-1,1-diphenylhydrazone",
    "duplicated_cas_no": "",
    "SMILES": "N(CC1=CC=CC=C1)(CC2=CC=CC=C2)C3=CC(C)=C(C=NN(C4=CC=CC=C4)C5=CC=CC=C5)C=C3",
    "meta_data": {
        "InChI": "InChI=1S/C34H31N3/c1-28-24-34(36(26-29-14-6-2-7-15-29)27-30-16-8-3-9-17-30)23-22-31(28)25-35-37(32-18-10-4-11-19-32)33-20-12-5-13-21-33/h2-25H,26-27H2,1H3",
        "InChIKey": null,
        "Canonical SMILES": "N(=CC1=CC=C(C=C1C)N(CC=2C=CC=CC2)CC=3C=CC=CC3)N(C=4C=CC=CC4)C=5C=CC=CC5",
        "Molecular Formula": "C<sub>34</sub>H<sub>31</sub>N<sub>3</sub>",
        "Molecular Mass": "481.63",
        "Melting Point": "148-150 °C"
    }
}