{
    "cas_no": "148-72-1",
    "key_name": "Pilocarpine nitrate",
    "cn_name": "硝酸毛果芸香碱;(3S,4R)-3-乙基二氢-4-[(1-甲基-1H-咪唑-5-基)甲基]-2(3H)-呋喃酮硝酸盐;",
    "alternate_name": "2(3<em>H</em>)-Furanone, 3-ethyldihydro-4-[(1-methyl-1<em>H</em>-imidazol-5-yl)methyl]-, (3<em>S</em>,4<em>R</em>)-, nitrate (1:1);Pilocarpine, mononitrate;2(3<em>H</em>)-Furanone, 3-ethyldihydro-4-[(1-methyl-1<em>H</em>-imidazol-5-yl)methyl]-, (3<em>S</em>-<em>cis</em>)-, mononitrate;2(3<em>H</em>)-Furanone, 3-ethyldihydro-4-[(1-methyl-1<em>H</em>-imidazol-5-yl)methyl]-, (3<em>S</em>,4<em>R</em>)-, mononitrate;Pilocarpine nitrate;Pilocarpine subnitrate;Pilagan;(+)-Pilocarpine nitrate",
    "duplicated_cas_no": "",
    "SMILES": "N(=O)(=O)O.C([C@@H]1[C@H](CC)C(=O)OC1)C=2N(C)C=NC2",
    "meta_data": {
        "InChI": "InChI=1S/C11H16N2O2.HNO3/c1-3-10-8(6-15-11(10)14)4-9-5-12-7-13(9)2;2-1(3)4/h5,7-8,10H,3-4,6H2,1-2H3;(H,2,3,4)/t8-,10-;/m0./s1",
        "InChIKey": null,
        "Canonical SMILES": "O=C1OCC(CC2=CN=CN2C)C1CC.O=N(=O)O",
        "Molecular Formula": "C<sub>11</sub>H<sub>16</sub>N<sub>2</sub>O<sub>2</sub>.HNO<sub>3</sub>",
        "Molecular Mass": "",
        "Melting Point": "178 °C"
    }
}