{
    "cas_no": "1576-37-0",
    "key_name": "<em>N</em>-Benzyl-<em>p</em>-toluenesulfonamide",
    "cn_name": "N-苄基-对甲苯磺酸胺;",
    "alternate_name": "Benzenesulfonamide, 4-methyl-<em>N</em>-(phenylmethyl)-;<em>p</em>-Toluenesulfonamide, <em>N</em>-benzyl-;4-Methyl-<em>N</em>-(phenylmethyl)benzenesulfonamide;<em>N</em>-Benzyl-<em>p</em>-toluenesulfonamide;<em>N</em>-Tosylbenzylamine;<em>N</em>-Benzyl-<em>p</em>-tosylamide;<em>N</em>-Benzyl-4-methylbenzenesulfonamide;NSC 37123;Benzyl(4-toluenesulfonyl)amine;Phenyl-<em>N</em>-tosylmethanamine",
    "duplicated_cas_no": "",
    "SMILES": "S(NCC1=CC=CC=C1)(=O)(=O)C2=CC=C(C)C=C2",
    "meta_data": {
        "InChI": "InChI=1S/C14H15NO2S/c1-12-7-9-14(10-8-12)18(16,17)15-11-13-5-3-2-4-6-13/h2-10,15H,11H2,1H3",
        "InChIKey": null,
        "Canonical SMILES": "O=S(=O)(NCC=1C=CC=CC1)C2=CC=C(C=C2)C",
        "Molecular Formula": "C<sub>14</sub>H<sub>15</sub>NO<sub>2</sub>S",
        "Molecular Mass": "261.34",
        "Melting Point": "113 °C"
    }
}