{
    "cas_no": "17109-49-8",
    "key_name": "Edifenphos",
    "cn_name": "克瘟散;敌瘟磷;O-乙基S,S-二苯基二硫代磷酸酯;",
    "alternate_name": "Phosphorodithioic acid, <em>O</em>-ethyl <em>S</em>,<em>S</em>-diphenyl ester;Hinosan;EDDP;<em>O</em>-Ethyl <em>S</em>,<em>S</em>-diphenyl phosphorodithioate;<em>S</em>,<em>S</em>-Diphenyl <em>O</em>-ethyl phosphorodithioate;Ethyl <em>S</em>,<em>S</em>-diphenyl phosphorodithioate;Bayer 78418;<em>O</em>-Ethyl <em>S</em>,<em>S</em>-diphenyl dithiophosphate;Edifenphos;Ediphenphos;BAY 78418;Edifenphpos;EDDP (pesticide)",
    "duplicated_cas_no": "1135443-36-5",
    "SMILES": "P(SC1=CC=CC=C1)(SC2=CC=CC=C2)(OCC)=O",
    "meta_data": {
        "InChI": "InChI=1S/C14H15O2PS2/c1-2-16-17(15,18-13-9-5-3-6-10-13)19-14-11-7-4-8-12-14/h3-12H,2H2,1H3",
        "InChIKey": null,
        "Canonical SMILES": "O=P(OCC)(SC=1C=CC=CC1)SC=2C=CC=CC2",
        "Molecular Formula": "C<sub>14</sub>H<sub>15</sub>O<sub>2</sub>PS<sub>2</sub>",
        "Molecular Mass": "310.37",
        "Boiling Point": "154 °C @ Press: 8 x 10<sup>-3</sup> Torr",
        "Melting Point": "-25 °C",
        "Density": "1.251 g/cm³ @ Temp: 20 °C"
    }
}