{
    "cas_no": "2275-23-2",
    "key_name": "Vamidothion",
    "cn_name": "蚜灭多;完灭硫磷;0,0-二甲基-S-[2-(1-甲基-2-甲胺基-2-氧代乙硫)乙基]硫代磷酸酯;",
    "alternate_name": "Phosphorothioic acid, <em>O</em>,<em>O</em>-dimethyl <em>S</em>-[2-[[1-methyl-2-(methylamino)-2-oxoethyl]thio]ethyl] ester;Phosphorothioic acid, <em>O</em>,<em>O</em>-dimethyl ester, <em>S</em>-ester with 2-[(2-mercaptoethyl)thio]-<em>N</em>-methylpropionamide;RP 9895;<em>O</em>,<em>O</em>-Dimethyl <em>S</em>-[2-(1-methylcarbamoylethylthio)ethyl] phosphorothioate;Dimethyl <em>S</em>-[2-(1-methylcarbamoylethylthio)ethyl] phosphorothiolate;Kilval;Vamidoate;Vamidothion;Bamidothion",
    "duplicated_cas_no": "80966-70-7",
    "SMILES": "P(SCCSC(C(NC)=O)C)(OC)(OC)=O",
    "meta_data": {
        "InChI": "InChI=1S/C8H18NO4PS2/c1-7(8(10)9-2)15-5-6-16-14(11,12-3)13-4/h7H,5-6H2,1-4H3,(H,9,10)",
        "InChIKey": null,
        "Canonical SMILES": "O=C(NC)C(SCCSP(=O)(OC)OC)C",
        "Molecular Formula": "C<sub>8</sub>H<sub>18</sub>NO<sub>4</sub>PS<sub>2</sub>",
        "Molecular Mass": "287.34",
        "Melting Point": "46-48 °C"
    }
}