{
    "cas_no": "33491-30-4",
    "key_name": "8-Bromo-2<em>H</em>-1-benzopyran-2-one",
    "cn_name": "8-溴-2H-1-苯并吡喃-2-酮;",
    "alternate_name": "2<em>H</em>-1-Benzopyran-2-one, 8-bromo-;Coumarin, 8-bromo-;8-Bromo-2<em>H</em>-1-benzopyran-2-one;8-Bromocoumarin",
    "duplicated_cas_no": "",
    "SMILES": "BrC1=C2C(C=CC(=O)O2)=CC=C1",
    "meta_data": {
        "InChI": "InChI=1S/C9H5BrO2/c10-7-3-1-2-6-4-5-8(11)12-9(6)7/h1-5H",
        "InChIKey": null,
        "Canonical SMILES": "O=C1OC=2C(Br)=CC=CC2C=C1",
        "Molecular Formula": "C<sub>9</sub>H<sub>5</sub>BrO<sub>2</sub>",
        "Molecular Mass": "225.04",
        "Melting Point": "135-136 °C"
    }
}