{
    "cas_no": "5588-33-0",
    "key_name": "Mesoridazine",
    "cn_name": "美索哒嗪;美索哒嗪;",
    "alternate_name": "10<em>H</em>-Phenothiazine, 10-[2-(1-methyl-2-piperidinyl)ethyl]-2-(methylsulfinyl)-;Phenothiazine, 10-[2-(1-methyl-2-piperidyl)ethyl]-2-(methylsulfinyl)-;10-[2-(1-Methyl-2-piperidinyl)ethyl]-2-(methylsulfinyl)-10<em>H</em>-phenothiazine;TPS 23;Mesoridazine;1-Methyl-2-[2-[2-(methylsulfinyl)phenothiazin-10-yl]ethyl]piperidine;10-[2-(1-Methyl-2-piperidyl)ethyl]-2-(methylsulfinyl)phenothiazine;Serentil;10-[2-(1-Methyl-2-piperidyl)ethyl]-2-(methylsulfinyl)-10<em>H</em>-phenothiazine;Thioridazine-2-sulfoxide;NSC 186066;MeSH ID: D008653",
    "duplicated_cas_no": "1034315-16-6",
    "SMILES": "C(CC1N(C)CCCC1)N2C=3C(SC=4C2=CC=CC4)=CC=C(S(C)=O)C3",
    "meta_data": {
        "InChI": "InChI=1S/C21H26N2OS2/c1-22-13-6-5-7-16(22)12-14-23-18-8-3-4-9-20(18)25-21-11-10-17(26(2)24)15-19(21)23/h3-4,8-11,15-16H,5-7,12-14H2,1-2H3",
        "InChIKey": null,
        "Canonical SMILES": "O=S(C1=CC=C2SC=3C=CC=CC3N(C2=C1)CCC4N(C)CCCC4)C",
        "Molecular Formula": "C<sub>21</sub>H<sub>26</sub>N<sub>2</sub>OS<sub>2</sub>",
        "Molecular Mass": "386.57",
        "Melting Point": "128-131 °C"
    }
}