{
    "cas_no": "6912-12-5",
    "key_name": "Dimethylammonium bromide",
    "cn_name": null,
    "alternate_name": "Methanamine, <em>N</em>-methyl-, hydrobromide;Dimethylamine, hydrobromide;Dimethylammonium bromide",
    "duplicated_cas_no": "",
    "SMILES": "N(C)C.Br",
    "meta_data": {
        "InChI": "InChI=1S/C2H7N.BrH/c1-3-2;/h3H,1-2H3;1H",
        "InChIKey": null,
        "Canonical SMILES": "Br.N(C)C",
        "Molecular Formula": "C<sub>2</sub>H<sub>7</sub>N.BrH",
        "Molecular Mass": "",
        "Melting Point": "131-131.5 °C"
    }
}