{
    "cas_no": "76280-91-6",
    "key_name": "Tecloftalam",
    "cn_name": "叶枯酞;N-(2,3-二氯苯基)-3,4,5,6-四氯酞氨酸;3,4,5,6-四氯-N-(2,3-二氯苯基)邻氨甲酰苯甲酸;",
    "alternate_name": "Benzoic acid, 2,3,4,5-tetrachloro-6-[[(2,3-dichlorophenyl)amino]carbonyl]-;2,3,4,5-Tetrachloro-6-[[(2,3-dichlorophenyl)amino]carbonyl]benzoic acid;Techlofthalam;Shirahagen S;Tecloftalam;2,3,4,5-Tetrachloro-6-((2,3-dichlorophenyl)carbamoyl)benzoicacid",
    "duplicated_cas_no": "",
    "SMILES": "C(NC1=C(Cl)C(Cl)=CC=C1)(=O)C2=C(C(O)=O)C(Cl)=C(Cl)C(Cl)=C2Cl",
    "meta_data": {
        "InChI": "InChI=1S/C14H5Cl6NO3/c15-4-2-1-3-5(8(4)16)21-13(22)6-7(14(23)24)10(18)12(20)11(19)9(6)17/h1-3H,(H,21,22)(H,23,24)",
        "InChIKey": null,
        "Canonical SMILES": "O=C(O)C=1C(Cl)=C(Cl)C(Cl)=C(Cl)C1C(=O)NC=2C=CC=C(Cl)C2Cl",
        "Molecular Formula": "C<sub>14</sub>H<sub>5</sub>Cl<sub>6</sub>NO<sub>3</sub>",
        "Molecular Mass": "447.91",
        "Melting Point": "198.5 °C"
    }
}