{
    "cas_no": "41507-35-1",
    "key_name": "3-Thiophenecarbonyl chloride",
    "cn_name": "3-噻吩甲酰氯;",
    "alternate_name": "3-Thiophenecarbonyl chloride;3-Thienoyl chloride;3-Thenoyl chloride;3-Thienylcarbonyl chloride;3-Thiophenecarboxylic acid chloride;3-Chlorocarbonylthiophene",
    "duplicated_cas_no": "",
    "SMILES": "C(Cl)(=O)C=1C=CSC1",
    "meta_data": {
        "InChI": "InChI=1S/C5H3ClOS/c6-5(7)4-1-2-8-3-4/h1-3H",
        "InChIKey": null,
        "Canonical SMILES": "O=C(Cl)C1=CSC=C1",
        "Molecular Formula": "C<sub>5</sub>H<sub>3</sub>ClOS",
        "Molecular Mass": "146.59",
        "Melting Point": "50-52 °C"
    }
}