{
    "cas_no": "616-05-7",
    "key_name": "2-Bromohexanoic acid",
    "cn_name": "2-溴己酸;",
    "alternate_name": "Hexanoic acid, 2-bromo-;2-Bromohexanoic acid;α-Bromocaproic acid;α-Bromo-<em>n</em>-caproic acid;2-Bromocaproic acid;α-Bromohexanoic acid;<span class=\"text-smallcaps\">DL</span>-α-Bromocaproic acid;(±)-α-Bromohexanoic acid;(±)-2-Bromocapronic acid;(±)-2-Bromohexanoic acid;NSC 73987",
    "duplicated_cas_no": "2681-83-6",
    "SMILES": "C(C(O)=O)(CCCC)Br",
    "meta_data": {
        "InChI": "InChI=1S/C6H11BrO2/c1-2-3-4-5(7)6(8)9/h5H,2-4H2,1H3,(H,8,9)",
        "InChIKey": null,
        "Canonical SMILES": "O=C(O)C(Br)CCCC",
        "Molecular Formula": "C<sub>6</sub>H<sub>11</sub>BrO<sub>2</sub>",
        "Molecular Mass": "195.05",
        "Boiling Point": "240 °C",
        "Melting Point": "&lt;25 °C"
    }
}