{
    "cas_no": "3086-72-4",
    "key_name": "4-Hydroxy-3,5-dimethoxybenzamide",
    "cn_name": "3,5-二甲氧基-4-羟基苯甲酰胺;",
    "alternate_name": "Benzamide, 4-hydroxy-3,5-dimethoxy-;4-Hydroxy-3,5-dimethoxybenzamide;Syringamide;NSC 164893;3,5-Dimethoxy-4-hydroxybenzamide",
    "duplicated_cas_no": "",
    "SMILES": "O(C)C1=C(O)C(OC)=CC(C(N)=O)=C1",
    "meta_data": {
        "InChI": "InChI=1S/C9H11NO4/c1-13-6-3-5(9(10)12)4-7(14-2)8(6)11/h3-4,11H,1-2H3,(H2,10,12)",
        "InChIKey": null,
        "Canonical SMILES": "O=C(N)C1=CC(OC)=C(O)C(OC)=C1",
        "Molecular Formula": "C<sub>9</sub>H<sub>11</sub>NO<sub>4</sub>",
        "Molecular Mass": "197.19",
        "Melting Point": "184-185 °C"
    }
}