{
    "cas_no": "274-79-3",
    "key_name": "Imidazo[1,2-<em>a</em>]pyrazine",
    "cn_name": null,
    "alternate_name": "Imidazo[1,2-<em>a</em>]pyrazine;1,7-Diazaindolizine;1,3a,6-Triazaindene",
    "duplicated_cas_no": "",
    "SMILES": "C=12N(C=CN1)C=CN=C2",
    "meta_data": {
        "InChI": "InChI=1S/C6H5N3/c1-3-9-4-2-8-6(9)5-7-1/h1-5H",
        "InChIKey": null,
        "Canonical SMILES": "N=1C=CN2C=CN=C2C1",
        "Molecular Formula": "C<sub>6</sub>H<sub>5</sub>N<sub>3</sub>",
        "Molecular Mass": "119.12",
        "Melting Point": "83-85 °C"
    }
}