{
    "cas_no": "688-74-4",
    "key_name": "Tributyl borate",
    "cn_name": "硼酸三丁酯;",
    "alternate_name": "Boric acid (H<sub>3</sub>BO<sub>3</sub>), tributyl ester;Butyl borate;Butyl borate, B(OBu)<sub>3</sub>;Borester 2;<em>n</em>-Butyl borate;Tributoxyborane;Tri-<em>n</em>-butoxyborane;Tributyl borate;Tri-<em>n</em>-butyl borate;Tributoxyboron;Tris(butoxy)borane;Boron tributoxide;Tributyl orthoborate;Boron tri-<em>n</em>-butoxide;Boron tris(butoxide);NSC 779;B(OC4H9)3;Boric acid tri-<em>n</em>-butyl ester",
    "duplicated_cas_no": "",
    "SMILES": "B(OCCCC)(OCCCC)OCCCC",
    "meta_data": {
        "InChI": "InChI=1S/C12H27BO3/c1-4-7-10-14-13(15-11-8-5-2)16-12-9-6-3/h4-12H2,1-3H3",
        "InChIKey": null,
        "Canonical SMILES": "O(B(OCCCC)OCCCC)CCCC",
        "Molecular Formula": "C<sub>12</sub>H<sub>27</sub>BO<sub>3</sub>",
        "Molecular Mass": "230.15",
        "Boiling Point": "230-231 °C",
        "Density": "0.8567 g/cm³ @ Temp: 20 °C"
    }
}