{
    "cas_no": "3159-07-7",
    "key_name": "Dibenzo[<em>b</em>,<em>f</em>][1,4]thiazepin-11(10<em>H</em>)-one",
    "cn_name": "二苯并[b,f][1,4]硫氮杂卓-11-[10H]酮;",
    "alternate_name": "Dibenzo[<em>b</em>,<em>f</em>][1,4]thiazepin-11(10<em>H</em>)-one;10,11-Dihydro-11-oxodibenz[<em>b</em>,<em>f</em>][1,4]thiazepine;NSC 653252;Dibenzo[<em>b</em>,<em>f</em>][1,4]thiazepine-11(10-H)-one;10,11-Dihydrodibenzo[<em>b</em>,<em>f</em>][1,4]thiazepin-11-one;dibenzo[b,f][1,4]thiazepin-11(10H)-one;10,11-Dihydro-11-oxodibenzo[<em>b</em>,<em>f</em>][1,4]thiazepine",
    "duplicated_cas_no": "",
    "SMILES": "O=C1C=2C(SC=3C(N1)=CC=CC3)=CC=CC2",
    "meta_data": {
        "InChI": "InChI=1S/C13H9NOS/c15-13-9-5-1-3-7-11(9)16-12-8-4-2-6-10(12)14-13/h1-8H,(H,14,15)",
        "InChIKey": null,
        "Canonical SMILES": "O=C1NC=2C=CC=CC2SC=3C=CC=CC31",
        "Molecular Formula": "C<sub>13</sub>H<sub>9</sub>NOS",
        "Molecular Mass": "227.28",
        "Melting Point": "257-259 °C"
    }
}