{
    "cas_no": "500-67-4",
    "key_name": "Spherophorol",
    "cn_name": "5-庚基苯-1,3-二醇;5-庚基间苯二酚;",
    "alternate_name": "1,3-Benzenediol, 5-heptyl-;Resorcinol, 5-heptyl-;Spherophorol;5-Heptyl-1,3-benzenediol;5-Heptylresorcinol;Sphaeropherol;3,5-Dihydroxy-1-heptylbenzene",
    "duplicated_cas_no": "",
    "SMILES": "C(CCCCCC)C1=CC(O)=CC(O)=C1",
    "meta_data": {
        "InChI": "InChI=1S/C13H20O2/c1-2-3-4-5-6-7-11-8-12(14)10-13(15)9-11/h8-10,14-15H,2-7H2,1H3",
        "InChIKey": null,
        "Canonical SMILES": "OC=1C=C(O)C=C(C1)CCCCCCC",
        "Molecular Formula": "C<sub>13</sub>H<sub>20</sub>O<sub>2</sub>",
        "Molecular Mass": "208.30",
        "Melting Point": "51 °C"
    }
}