{
    "cas_no": "621-51-2",
    "key_name": "3-Ethoxybenzoic acid",
    "cn_name": "3-乙氧基苯甲酸;间乙氧基苯甲酸;",
    "alternate_name": "Benzoic acid, 3-ethoxy-;Benzoic acid, <em>m</em>-ethoxy-;3-Ethoxybenzoic acid;<em>m</em>-Ethoxybenzoic acid",
    "duplicated_cas_no": "",
    "SMILES": "O(CC)C1=CC(C(O)=O)=CC=C1",
    "meta_data": {
        "InChI": "InChI=1S/C9H10O3/c1-2-12-8-5-3-4-7(6-8)9(10)11/h3-6H,2H2,1H3,(H,10,11)",
        "InChIKey": null,
        "Canonical SMILES": "O=C(O)C=1C=CC=C(OCC)C1",
        "Molecular Formula": "C<sub>9</sub>H<sub>10</sub>O<sub>3</sub>",
        "Molecular Mass": "166.17",
        "Melting Point": "137 °C"
    }
}