{
    "cas_no": "87-59-2",
    "key_name": "2,3-Dimethylaniline",
    "cn_name": "2,3-二甲基苯胺;",
    "alternate_name": "Benzenamine, 2,3-dimethyl-;2,3-Xylidine;2,3-Dimethylbenzenamine;2,3-Dimethylaniline;<em>o</em>-Xylidine;2,3-Xylylamine;3-Amino-<em>o</em>-xylene;2,3-Dimethylphenylamine",
    "duplicated_cas_no": "",
    "SMILES": "CC1=C(C)C=CC=C1N",
    "meta_data": {
        "InChI": "InChI=1S/C8H11N/c1-6-4-3-5-8(9)7(6)2/h3-5H,9H2,1-2H3",
        "InChIKey": null,
        "Canonical SMILES": "NC1=CC=CC(=C1C)C",
        "Molecular Formula": "C<sub>8</sub>H<sub>11</sub>N",
        "Molecular Mass": "121.18",
        "Boiling Point": "221.5 °C @ Press: 760 Torr",
        "Melting Point": "&lt;-15 °C",
        "Density": "0.9931 g/cm³ @ Temp: 20 °C"
    }
}