{
    "cas_no": "51012-32-9",
    "key_name": "Tiapride",
    "cn_name": "泰必利;硫必利;N-[2-(二乙基氨基)乙基]-2-甲氧基-5-(甲基磺酰基)苯甲酰胺;",
    "alternate_name": "Benzamide, <em>N</em>-[2-(diethylamino)ethyl]-2-methoxy-5-(methylsulfonyl)-;<em>N</em>-[2-(Diethylamino)ethyl]-2-methoxy-5-(methylsulfonyl)benzamide;Tiapride;Thiapride;FLO 1347;FLC 1374;Tiaprizal",
    "duplicated_cas_no": "",
    "SMILES": "C(NCCN(CC)CC)(=O)C1=C(OC)C=CC(S(C)(=O)=O)=C1",
    "meta_data": {
        "InChI": "InChI=1S/C15H24N2O4S/c1-5-17(6-2)10-9-16-15(18)13-11-12(22(4,19)20)7-8-14(13)21-3/h7-8,11H,5-6,9-10H2,1-4H3,(H,16,18)",
        "InChIKey": null,
        "Canonical SMILES": "O=C(NCCN(CC)CC)C1=CC(=CC=C1OC)S(=O)(=O)C",
        "Molecular Formula": "C<sub>15</sub>H<sub>24</sub>N<sub>2</sub>O<sub>4</sub>S",
        "Molecular Mass": "328.43",
        "Melting Point": "124 °C"
    }
}