{
    "cas_no": "7662-51-3",
    "key_name": "<span class=\"text-smallcaps\">L</span>-Tyrosine hydrazide",
    "cn_name": "L-酪氨酸乙酸肼;l-酪胺基乙酸肼;",
    "alternate_name": "<span class=\"text-smallcaps\">L</span>-Tyrosine, hydrazide;Tyrosine, hydrazide, <span class=\"text-smallcaps\">L</span>-;<span class=\"text-smallcaps\">L</span>-Tyrosine hydrazide;Tyrosine hydrazide;NSC 337746;<span class=\"text-smallcaps\">L</span>-(-)-Tyrosine hydrazide;<span class=\"text-smallcaps\">L</span>-(+)-Tyrosine hydrazide;(2S)-2-Amino-3-(4-hydroxyphenyl)propanehydrazide;(<em>S</em>)-2-Amino-3-(4-hydroxyphenyl)propanehydrazide",
    "duplicated_cas_no": "57165-94-3",
    "SMILES": "C([C@@H](C(NN)=O)N)C1=CC=C(O)C=C1",
    "meta_data": {
        "InChI": "InChI=1S/C9H13N3O2/c10-8(9(14)12-11)5-6-1-3-7(13)4-2-6/h1-4,8,13H,5,10-11H2,(H,12,14)/t8-/m0/s1",
        "InChIKey": null,
        "Canonical SMILES": "O=C(NN)C(N)CC1=CC=C(O)C=C1",
        "Molecular Formula": "C<sub>9</sub>H<sub>13</sub>N<sub>3</sub>O<sub>2</sub>",
        "Molecular Mass": "195.22",
        "Melting Point": "194 °C"
    }
}