{
    "cas_no": "16881-77-9",
    "key_name": "Methyldimethoxysilane",
    "cn_name": null,
    "alternate_name": "Silane, dimethoxymethyl-;Dimethoxymethylsilane;Methyldimethoxysilane;Dimethoxymethylhydrosilane;KBM 12;Dow Corning Z 6701;Z 6701;TEL 8117;D 2100",
    "duplicated_cas_no": "",
    "SMILES": "[SiH](OC)(OC)C",
    "meta_data": {
        "InChI": "InChI=1S/C3H10O2Si/c1-4-6(3)5-2/h6H,1-3H3",
        "InChIKey": null,
        "Canonical SMILES": "O(C)[SiH](OC)C",
        "Molecular Formula": "C<sub>3</sub>H<sub>10</sub>O<sub>2</sub>Si",
        "Molecular Mass": "106.20",
        "Boiling Point": "61 °C",
        "Melting Point": "-136 °C",
        "Density": "0.861 g/cm³"
    }
}