{
    "cas_no": "49769-78-0",
    "key_name": "1,3-Dimethyl 2-(phenylmethyl)propanedioate",
    "cn_name": "二甲基本甲基丙二酸;",
    "alternate_name": "Propanedioic acid, 2-(phenylmethyl)-, 1,3-dimethyl ester;Propanedioic acid, (phenylmethyl)-, dimethyl ester;Malonic acid, benzyl-, dimethyl ester;1,3-Dimethyl 2-(phenylmethyl)propanedioate;Dimethyl benzylmalonate;Dimethyl α-benzylmalonate;Dimethyl 2-benzylmalonate;2-Benzyl-malonic acid dimethyl ester",
    "duplicated_cas_no": "",
    "SMILES": "C(CC1=CC=CC=C1)(C(OC)=O)C(OC)=O",
    "meta_data": {
        "InChI": "InChI=1S/C12H14O4/c1-15-11(13)10(12(14)16-2)8-9-6-4-3-5-7-9/h3-7,10H,8H2,1-2H3",
        "InChIKey": null,
        "Canonical SMILES": "O=C(OC)C(C(=O)OC)CC=1C=CC=CC1",
        "Molecular Formula": "C<sub>12</sub>H<sub>14</sub>O<sub>4</sub>",
        "Molecular Mass": "222.24",
        "Boiling Point": "130 °C @ Press: 2 Torr"
    }
}