{
    "cas_no": "14220-64-5",
    "key_name": "Bis(benzonitrile)dichloropalladium",
    "cn_name": "二(氰基苯)二氯化钯;二苯腈二氯化钯;",
    "alternate_name": "Palladium, bis(benzonitrile)dichloro-;Palladium, dichlorobis(benzonitrile)-;Benzonitrile, palladium complex;Bis(benzonitrile)dichloropalladium;Dichlorobis(benzonitrile)palladium(II);Bis(benzonitrile)palladium dichloride;Dichlorobis(benzonitrile)palladium;Bis(benzonitrile)dichloropalladium(II);Dibenzonitrilepalladium dichloride;Dichlorobis(phenyl cyanide)palladium;Bis(benzonitrile)palladium(II) chloride;Bis(benzonitrile)palladium(2+) chloride;Palladium dichloride bis(benzonitrile);NSC 169967;Palladium chloride bisbenzonitrile complex;Bis(phenylnitrile)dichloropalladium",
    "duplicated_cas_no": "1714-32-5;31922-26-6;31989-56-7;42184-26-9",
    "SMILES": "C(#[N][Pd+2]([N]#CC1=CC=CC=C1)([Cl-])[Cl-])C2=CC=CC=C2",
    "meta_data": {
        "InChI": "InChI=1S/2C7H5N.2ClH.Pd/c2*8-6-7-4-2-1-3-5-7;;;/h2*1-5H;2*1H;/q;;;;+2/p-2",
        "InChIKey": null,
        "Canonical SMILES": "[Cl-][Pd+2]([Cl-])([N]#CC=1C=CC=CC1)[N]#CC=2C=CC=CC2",
        "Molecular Formula": "C<sub>14</sub>H<sub>10</sub>Cl<sub>2</sub>N<sub>2</sub>Pd",
        "Molecular Mass": "",
        "Melting Point": "129-130 °C"
    }
}