{
    "cas_no": "106-49-0",
    "key_name": "4-Methylaniline",
    "cn_name": "对甲苯胺;4-甲基苯胺;",
    "alternate_name": "Benzenamine, 4-methyl-;<em>p</em>-Toluidine;4-Methylbenzenamine;<em>p</em>-Aminotoluene;4-Aminotoluene;<em>p</em>-Tolylamine;4-Methylaniline;<em>p</em>-Methylaniline;<em>p</em>-Methylbenzenamine;4-Toluidine;C.I. 37107;C.I. Azoic Coupling Component 107;Naphtol AS-KG;Naphtol AS-KGLL;1-Amino-4-methylbenzene;<em>p</em>-Methylphenylamine;4-Methylphenylamine;4-Methyl-1-aminobenzene;4-Tolylamine;NSC 114040;NSC 15350;Naphthol AS-KG;4-Amino-1-methylbenzene",
    "duplicated_cas_no": "12221-03-3",
    "SMILES": "CC1=CC=C(N)C=C1",
    "meta_data": {
        "InChI": "InChI=1S/C7H9N/c1-6-2-4-7(8)5-3-6/h2-5H,8H2,1H3",
        "InChIKey": null,
        "Canonical SMILES": "NC1=CC=C(C=C1)C",
        "Molecular Formula": "C<sub>7</sub>H<sub>9</sub>N",
        "Molecular Mass": "107.15",
        "Boiling Point": "200.4 °C",
        "Melting Point": "44-45 °C",
        "Density": "1.046 g/cm³ @ Temp: 20 °C"
    }
}