{
    "cas_no": "2879-60-9",
    "key_name": "Acetic acid, 2,2,2-trichloro-, 2,3,4,5,6-pentachlorophenyl ester",
    "cn_name": "三氯乙酸五氯苯酯;",
    "alternate_name": "Acetic acid, 2,2,2-trichloro-, 2,3,4,5,6-pentachlorophenyl ester;Acetic acid, trichloro-, pentachlorophenyl ester;Phenol, pentachloro-, trichloroacetate;Pentachlorophenyl trichloroacetate;(2,3,4,5,6-Pentachlorophenyl) 2,2,2-trichloroacetate",
    "duplicated_cas_no": "",
    "SMILES": "O(C(C(Cl)(Cl)Cl)=O)C1=C(Cl)C(Cl)=C(Cl)C(Cl)=C1Cl",
    "meta_data": {
        "InChI": "InChI=1S/C8Cl8O2/c9-1-2(10)4(12)6(5(13)3(1)11)18-7(17)8(14,15)16",
        "InChIKey": null,
        "Canonical SMILES": "O=C(OC=1C(Cl)=C(Cl)C(Cl)=C(Cl)C1Cl)C(Cl)(Cl)Cl",
        "Molecular Formula": "C<sub>8</sub>Cl<sub>8</sub>O<sub>2</sub>",
        "Molecular Mass": "411.71",
        "Melting Point": "130-130.5 °C"
    }
}