{
    "cas_no": "112457-95-1",
    "key_name": "4,7-Methano-1<em>H</em>-isoindole-1,3(2<em>H</em>)-dione, hexahydro-2-[4-[4-(2-pyrimidinyl)-1-piperazinyl]butyl]-, (3a<em>R</em>,4<em>S</em>,7<em>R</em>,7a<em>S</em>)-<em>rel</em>-, 2-hydroxy-1,2,3-propanetricarboxylate (1:1)",
    "cn_name": null,
    "alternate_name": "4,7-Methano-1<em>H</em>-isoindole-1,3(2<em>H</em>)-dione, hexahydro-2-[4-[4-(2-pyrimidinyl)-1-piperazinyl]butyl]-, (3a<em>R</em>,4<em>S</em>,7<em>R</em>,7a<em>S</em>)-<em>rel</em>-, 2-hydroxy-1,2,3-propanetricarboxylate (1:1);4,7-Methano-1<em>H</em>-isoindole-1,3(2<em>H</em>)-dione, hexahydro-2-[4-[4-(2-pyrimidinyl)-1-piperazinyl]butyl]-, (3aα,4β,7β,7aα)-, 2-hydroxy-1,2,3-propanetricarboxylate (1:1);SM 3997;Tandospirone citrate;Sediel",
    "duplicated_cas_no": "",
    "SMILES": "O=C1[C@]2([C@]([C@]3(C[C@@]2(CC3)[H])[H])(C(=O)N1CCCCN4CCN(CC4)C=5N=CC=CN5)[H])[H].C(CC(O)=O)(CC(O)=O)(C(O)=O)O",
    "meta_data": {
        "InChI": "InChI=1/C21H29N5O2.C6H8O7/c27-19-17-15-4-5-16(14-15)18(17)20(28)26(19)9-2-1-8-24-10-12-25(13-11-24)21-22-6-3-7-23-21;7-3(8)1-6(13,5(11)12)2-4(9)10/h3,6-7,15-18H,1-2,4-5,8-14H2;13H,1-2H2,(H,7,8)(H,9,10)(H,11,12)/t15-,16+,17+,18-;",
        "InChIKey": null,
        "Canonical SMILES": "O=C(O)CC(O)(C(=O)O)CC(=O)O.O=C1N(C(=O)C2C1C3CCC2C3)CCCCN4CCN(C5=NC=CC=N5)CC4",
        "Molecular Formula": "C<sub>21</sub>H<sub>29</sub>N<sub>5</sub>O<sub>2</sub>.C<sub>6</sub>H<sub>8</sub>O<sub>7</sub>",
        "Molecular Mass": "",
        "Melting Point": "169.5-170 °C"
    }
}