{
    "cas_no": "13679-72-6",
    "key_name": "2-Acetyl-3-methylthiophene",
    "cn_name": "2-乙酰-3-甲基噻吩;",
    "alternate_name": "Ethanone, 1-(3-methyl-2-thienyl)-;Ketone, methyl 3-methyl-2-thienyl;1-(3-Methyl-2-thienyl)ethanone;2-Acetyl-3-methylthiophene;3-Methyl-2-acetylthiophene;3-Methyl-2-thienyl methyl ketone;NSC 170616;1-(3-Methylthien-2-yl)ethanone;1-(3-Methylthiophen-2-yl)ethanone;1-(3-Methylthiophen-2-yl)ethan-1-one",
    "duplicated_cas_no": "",
    "SMILES": "C(C)(=O)C1=C(C)C=CS1",
    "meta_data": {
        "InChI": "InChI=1S/C7H8OS/c1-5-3-4-9-7(5)6(2)8/h3-4H,1-2H3",
        "InChIKey": null,
        "Canonical SMILES": "O=C(C=1SC=CC1C)C",
        "Molecular Formula": "C<sub>7</sub>H<sub>8</sub>OS",
        "Molecular Mass": "140.20",
        "Boiling Point": "98-99 °C @ Press: 14 Torr"
    }
}