{
    "cas_no": "532-82-1",
    "key_name": "Chrysoidine",
    "cn_name": "碱性橙2;橘红;柯衣定G;4-苯基偶氮-1,3-苯二胺盐酸盐;",
    "alternate_name": "1,3-Benzenediamine, 4-(2-phenyldiazenyl)-, hydrochloride (1:1);C.I. Basic Orange 2, monohydrochloride;C.I. Basic Orange 2;1,3-Benzenediamine, 4-(phenylazo)-, monohydrochloride;C.I. 11270;Astra Chrysoidine R;Brasilazina Orange Y;Calcozine Orange YS;Chrysoidine;Chrysoidine A;Chrysoidine G;Chrysoidine J;Chrysoidine Y;Chrysoidine Y Crystals;Chrysoidine C;Chrysoidine B;Chrysoidine M;Chrysoidine GN;Chrysoidine GS;Chrysoidine HR;Chrysoidine orange;Chrysoidine PRL;Chrysoidine PRR;Chrysoidine SL;Chrysoidine Y Special;Chrysoidine SS;Chrysoidine YL;Chrysoidine YN;Chrysoidin FB;2,4-Diaminoazobenzene hydrochloride;Diazocard Chrysoidine G;Leather Orange HR;Nippon Kagaku Chrysoidine;Pure Chrysoidine YBH;Sugai Chrysoidine;Tertrophene Brown CG;Chrysoidin;Chrysoidine II;Chrysoidine hydrochloride;Atlantic Chrysoidine Y;Verona Chrysoidine GN;Basic Orange 2;Basonyl Orange 200;Chrysodine",
    "duplicated_cas_no": "",
    "SMILES": "N(=NC1=CC=CC=C1)C2=C(N)C=C(N)C=C2.Cl",
    "meta_data": {
        "InChI": "InChI=1S/C12H12N4.ClH/c13-9-6-7-12(11(14)8-9)16-15-10-4-2-1-3-5-10;/h1-8H,13-14H2;1H",
        "InChIKey": null,
        "Canonical SMILES": "Cl.N(=NC1=CC=C(N)C=C1N)C=2C=CC=CC2",
        "Molecular Formula": "C<sub>12</sub>H<sub>12</sub>N<sub>4</sub>.ClH",
        "Molecular Mass": "",
        "Boiling Point": "2262 °C",
        "Melting Point": "118-118.5 °C"
    }
}