{
    "cas_no": "2382-80-1",
    "key_name": "<em>N</em>-Acetyl-<span class=\"text-smallcaps\">L</span>-tryptophan ethyl ester",
    "cn_name": "N-乙酰-L-色氨酸乙酯;N-乙酰-L-色氨酸乙酯;",
    "alternate_name": "<span class=\"text-smallcaps\">L</span>-Tryptophan, <em>N</em>-acetyl-, ethyl ester;Tryptophan, <em>N</em>-acetyl-, ethyl ester, <span class=\"text-smallcaps\">L</span>-;<em>N</em>-Acetyl-<span class=\"text-smallcaps\">L</span>-tryptophan ethyl ester;Acetyl-<span class=\"text-smallcaps\">L</span>-tryptophan ethyl ester;<em>N</em>-Acetyltryptophan ethyl ester;<em>N</em><sup>α</sup>-Acetyl-<span class=\"text-smallcaps\">L</span>-tryptophan ethyl ester;<em>N</em>-Acetyltryptophan <em>O</em>-ethyl ester;Ac-Trp-OEt",
    "duplicated_cas_no": "17002-30-1;27442-41-7;27442-71-3;37784-18-2;685861-09-0",
    "SMILES": "C([C@@H](C(OCC)=O)NC(C)=O)C=1C=2C(NC1)=CC=CC2",
    "meta_data": {
        "InChI": "InChI=1S/C15H18N2O3/c1-3-20-15(19)14(17-10(2)18)8-11-9-16-13-7-5-4-6-12(11)13/h4-7,9,14,16H,3,8H2,1-2H3,(H,17,18)/t14-/m0/s1",
        "InChIKey": null,
        "Canonical SMILES": "O=C(OCC)C(NC(=O)C)CC1=CNC=2C=CC=CC21",
        "Molecular Formula": "C<sub>15</sub>H<sub>18</sub>N<sub>2</sub>O<sub>3</sub>",
        "Molecular Mass": "274.32",
        "Melting Point": "106 °C"
    }
}