{
    "cas_no": "14906-59-3",
    "key_name": "4-Pyridinecarbonitrile, 1-oxide",
    "cn_name": "4-氰基吡啶N-氧化物;4-氰基吡啶-1-酮;",
    "alternate_name": "4-Pyridinecarbonitrile, 1-oxide;Isonicotinonitrile, 1-oxide;4-Cyanopyridine <em>N</em>-oxide;4-Cyanopyridine 1-oxide;4-Cyanopyridine oxide;NSC 132883;1-Oxopyridine-4-carbonitrile;1-Oxidopyridin-1-ium-4-carbonitrile",
    "duplicated_cas_no": "",
    "SMILES": "C(#N)C=1C=CN(=O)=CC1",
    "meta_data": {
        "InChI": "InChI=1S/C6H4N2O/c7-5-6-1-3-8(9)4-2-6/h1-4H",
        "InChIKey": null,
        "Canonical SMILES": "N#CC1=CC=N(=O)C=C1",
        "Molecular Formula": "C<sub>6</sub>H<sub>4</sub>N<sub>2</sub>O",
        "Molecular Mass": "120.11",
        "Melting Point": "223-225 °C"
    }
}