{
    "cas_no": "1450-72-2",
    "key_name": "2′-Hydroxy-5′-methylacetophenone",
    "cn_name": "2-羟基-5-甲基苯乙酮;",
    "alternate_name": "Ethanone, 1-(2-hydroxy-5-methylphenyl)-;Acetophenone, 2′-hydroxy-5′-methyl-;1-(2-Hydroxy-5-methylphenyl)ethanone;2′-Hydroxy-5′-methylacetophenone;2-Acetyl-4-methylphenol;<em>o</em>-Acetyl-<em>p</em>-cresol;5′-Methyl-2′-hydroxyacetophenone;NSC 26458;NSC 63363;1-(2-Hydroxy-5-methylphenyl)ethan-1-one",
    "duplicated_cas_no": "1039415-68-3",
    "SMILES": "C(C)(=O)C1=C(O)C=CC(C)=C1",
    "meta_data": {
        "InChI": "InChI=1S/C9H10O2/c1-6-3-4-9(11)8(5-6)7(2)10/h3-5,11H,1-2H3",
        "InChIKey": null,
        "Canonical SMILES": "O=C(C1=CC(=CC=C1O)C)C",
        "Molecular Formula": "C<sub>9</sub>H<sub>10</sub>O<sub>2</sub>",
        "Molecular Mass": "150.17",
        "Boiling Point": "210 °C",
        "Melting Point": "50 °C"
    }
}