{
    "cas_no": "79-94-7",
    "key_name": "Tetrabromobisphenol A",
    "cn_name": "四溴双酚A;",
    "alternate_name": "Phenol, 4,4′-(1-methylethylidene)bis[2,6-dibromo-;Phenol, 4,4′-isopropylidenebis[2,6-dibromo-;4,4′-(1-Methylethylidene)bis[2,6-dibromophenol];Firemaster BP 4A;2,2-Bis(3,5-dibromo-4-hydroxyphenyl)propane;2,2-Bis(4-hydroxy-3,5-dibromophenyl)propane;3,5,3′,5′-Tetrabromobisphenol A;Tetrabromobisphenol A;Bromdian;2,2′,6,6′-Tetrabromobisphenol A;Fire Guard 2000;Tetrabromodian;BA 59;4,4′-Isopropylidenebis[2,6-dibromophenol];3,3′,5,5′-Tetrabromobisphenol A;Tetrabromodiphenylolpropane;Saytex RB 100PC;BA 59P;Flame Cut 120G;Saytex RB 100;GLCBA 59P;RB 100;PB 100;FG 2000;TBBPA;FR 1524;NSC 59775;Saytex CP 2000;CP 2000;Flame Cut 120R;T 0032;BA 59BP;FCP 2010;FR 1525;2,6-Dibromo-4-[2-(3,5-dibromo-4-hydroxyphenyl)propan-2-yl]phenol;Z 58;Taixing HT 108;HT 108;2,2′,6,6′-Tetrabromo-4,4′-isopropylidenediphenol;CXB 1500C;AP 1969;XZ 5000",
    "duplicated_cas_no": "107719-55-1;108608-60-2;110670-65-0;124779-54-0;131891-38-8;7300-23-4;30496-13-0;51253-31-7;76341-26-9;186673-39-2;224951-26-2",
    "SMILES": "C(C)(C)(C1=CC(Br)=C(O)C(Br)=C1)C2=CC(Br)=C(O)C(Br)=C2",
    "meta_data": {
        "InChI": "InChI=1S/C15H12Br4O2/c1-15(2,7-3-9(16)13(20)10(17)4-7)8-5-11(18)14(21)12(19)6-8/h3-6,20-21H,1-2H3",
        "InChIKey": null,
        "Canonical SMILES": "BrC=1C=C(C=C(Br)C1O)C(C2=CC(Br)=C(O)C(Br)=C2)(C)C",
        "Molecular Formula": "C<sub>15</sub>H<sub>12</sub>Br<sub>4</sub>O<sub>2</sub>",
        "Molecular Mass": "543.87",
        "Melting Point": "179-181 °C",
        "Density": "220 g/cm³ @ Temp: 4 °C"
    }
}