{
    "cas_no": "629-01-6",
    "key_name": "Octanamide",
    "cn_name": "辛酰胺;正辛酰胺;",
    "alternate_name": "Octanamide;Caprylamide;Caprylic acid amide;NSC 5515",
    "duplicated_cas_no": "",
    "SMILES": "C(CCCCC)CC(N)=O",
    "meta_data": {
        "InChI": "InChI=1S/C8H17NO/c1-2-3-4-5-6-7-8(9)10/h2-7H2,1H3,(H2,9,10)",
        "InChIKey": null,
        "Canonical SMILES": "O=C(N)CCCCCCC",
        "Molecular Formula": "C<sub>8</sub>H<sub>17</sub>NO",
        "Molecular Mass": "143.23",
        "Boiling Point": "239 °C",
        "Melting Point": "108 °C"
    }
}