{
    "cas_no": "217448-86-7",
    "key_name": "Methyl 1-[(2,6-difluorophenyl)methyl]-1<em>H</em>-1,2,3-triazole-4-carboxylate",
    "cn_name": null,
    "alternate_name": "1<em>H</em>-1,2,3-Triazole-4-carboxylic acid, 1-[(2,6-difluorophenyl)methyl]-, methyl ester;Methyl 1-[(2,6-difluorophenyl)methyl]-1<em>H</em>-1,2,3-triazole-4-carboxylate;1-(2,6-Difluorobenzyl)-1<em>H</em>-1,2,3-triazole-4-carboxylic acid methyl ester;Methyl 1-(2,6-difluorobenzyl)-1<em>H</em>-1,2,3-triazole-4-carboxylate;1-(2,6-Difluorobenzyl)-1,2,3-triazole-4-carboxylic acid methyl ester",
    "duplicated_cas_no": "",
    "SMILES": "C(C1=C(F)C=CC=C1F)N2C=C(C(OC)=O)N=N2",
    "meta_data": {
        "InChI": "InChI=1S/C11H9F2N3O2/c1-18-11(17)10-6-16(15-14-10)5-7-8(12)3-2-4-9(7)13/h2-4,6H,5H2,1H3",
        "InChIKey": null,
        "Canonical SMILES": "O=C(OC)C=1N=NN(C1)CC=2C(F)=CC=CC2F",
        "Molecular Formula": "C<sub>11</sub>H<sub>9</sub>F<sub>2</sub>N<sub>3</sub>O<sub>2</sub>",
        "Molecular Mass": "253.20",
        "Melting Point": "133-135 °C"
    }
}