{
    "cas_no": "1131-16-4",
    "key_name": "3,5-Dimethyl-1-phenylpyrazole",
    "cn_name": "3,5-二甲基-1-苯基吡唑;3,5-二甲基-1-苯基吡唑;",
    "alternate_name": "1<em>H</em>-Pyrazole, 3,5-dimethyl-1-phenyl-;Pyrazole, 3,5-dimethyl-1-phenyl-;3,5-Dimethyl-1-phenyl-1<em>H</em>-pyrazole;3,5-Dimethyl-1-phenylpyrazole;1-Phenyl-3,5-dimethylpyrazole;3,5-Dimethyl-<em>N</em>-phenylpyrazole;1-Phenyl-3,5-dimethyl-1<em>H</em>-pyrazole",
    "duplicated_cas_no": "102129-36-2",
    "SMILES": "CC=1N(N=C(C)C1)C2=CC=CC=C2",
    "meta_data": {
        "InChI": "InChI=1S/C11H12N2/c1-9-8-10(2)13(12-9)11-6-4-3-5-7-11/h3-8H,1-2H3",
        "InChIKey": null,
        "Canonical SMILES": "N1=C(C=C(N1C=2C=CC=CC2)C)C",
        "Molecular Formula": "C<sub>11</sub>H<sub>12</sub>N<sub>2</sub>",
        "Molecular Mass": "172.23",
        "Boiling Point": "273 °C",
        "Melting Point": "92 °C"
    }
}