{
    "cas_no": "831217-01-7",
    "key_name": "Acetildenafil",
    "cn_name": "红地那非;",
    "alternate_name": "7<em>H</em>-Pyrazolo[4,3-<em>d</em>]pyrimidin-7-one, 5-[2-ethoxy-5-[2-(4-ethyl-1-piperazinyl)acetyl]phenyl]-1,6-dihydro-1-methyl-3-propyl-;7<em>H</em>-Pyrazolo[4,3-<em>d</em>]pyrimidin-7-one, 5-[2-ethoxy-5-[(4-ethyl-1-piperazinyl)acetyl]phenyl]-1,4-dihydro-1-methyl-3-propyl-;5-[2-Ethoxy-5-[2-(4-ethyl-1-piperazinyl)acetyl]phenyl]-1,6-dihydro-1-methyl-3-propyl-7<em>H</em>-pyrazolo[4,3-<em>d</em>]pyrimidin-7-one;Acetildenafil;Hongdenafil",
    "duplicated_cas_no": "874184-87-9",
    "SMILES": "C(CC)C=1C2=C(C(=O)N=C(N2)C3=C(OCC)C=CC(C(CN4CCN(CC)CC4)=O)=C3)N(C)N1",
    "meta_data": {
        "InChI": "InChI=1S/C25H34N6O3/c1-5-8-19-22-23(29(4)28-19)25(33)27-24(26-22)18-15-17(9-10-21(18)34-7-3)20(32)16-31-13-11-30(6-2)12-14-31/h9-10,15H,5-8,11-14,16H2,1-4H3,(H,26,27,33)",
        "InChIKey": null,
        "Canonical SMILES": "O=C1N=C(NC=2C(=NN(C12)C)CCC)C=3C=C(C=CC3OCC)C(=O)CN4CCN(CC)CC4",
        "Molecular Formula": "C<sub>25</sub>H<sub>34</sub>N<sub>6</sub>O<sub>3</sub>",
        "Molecular Mass": "466.58",
        "Melting Point": "129-131 °C"
    }
}