{
    "cas_no": "565-48-0",
    "key_name": "<em>cis</em>-4-Hydroxy-α,α,4-trimethylcyclohexanemethanol",
    "cn_name": null,
    "alternate_name": "Cyclohexanemethanol, 4-hydroxy-α,α,4-trimethyl-, <em>cis</em>-;<em>p</em>-Menthane-1,8-diol, stereoisomer;<em>cis</em>-4-Hydroxy-α,α,4-trimethylcyclohexanemethanol;<em>cis</em>-1,8-<em>p</em>-Menthanediol;<em>cis</em>-<em>p</em>-Menthan-1,8-diol",
    "duplicated_cas_no": "",
    "SMILES": "C(C)(C)(O)[C@H]1CC[C@@](C)(O)CC1",
    "meta_data": {
        "InChI": "InChI=1/C10H20O2/c1-9(2,11)8-4-6-10(3,12)7-5-8/h8,11-12H,4-7H2,1-3H3/t8-,10+",
        "InChIKey": null,
        "Canonical SMILES": "OC(C)(C)C1CCC(O)(C)CC1",
        "Molecular Formula": "C<sub>10</sub>H<sub>20</sub>O<sub>2</sub>",
        "Molecular Mass": "172.26",
        "Melting Point": "104 °C"
    }
}