{
    "cas_no": "95-05-6",
    "key_name": "Sulfiram",
    "cn_name": null,
    "alternate_name": "Thiodicarbonic diamide ([(H<sub>2</sub>N)C(S)]<sub>2</sub>S), <em>N</em>,<em>N</em>,<em>N</em>′,<em>N</em>′-tetraethyl-;Sulfide, bis(diethylthiocarbamoyl);Thiodicarbonic diamide ([(H<sub>2</sub>N)C(S)]<sub>2</sub>S), tetraethyl-;Thiuram monosulfide, tetraethyl-;Bis(<em>N</em>,<em>N</em>-diethylthiocarbamoyl) sulfide;Bis(diethylthiocarbamyl) sulfide;Tetmos;Tetraethylthiuram monosulfide;Methanethioamide, 1,1′-thiobis[<em>N</em>,<em>N</em>-diethyl-;Sulfide, bis[(diethylamino)thioxomethyl];Carbamodithioic acid, diethyl-, anhydrosulfide;Sulfirame;Tetmosol;Bis(diethylthiocarbamoyl) sulfide;Kutka;Monosulfiram;Sanigal;Sarcocide B;Sulfiramum;Tetrucid;Sulfiram;TTMS;Kutkasin;NSC 36731",
    "duplicated_cas_no": "",
    "SMILES": "N(C(SC(N(CC)CC)=S)=S)(CC)CC",
    "meta_data": {
        "InChI": "InChI=1S/C10H20N2S3/c1-5-11(6-2)9(13)15-10(14)12(7-3)8-4/h5-8H2,1-4H3",
        "InChIKey": null,
        "Canonical SMILES": "S=C(SC(=S)N(CC)CC)N(CC)CC",
        "Molecular Formula": "C<sub>10</sub>H<sub>20</sub>N<sub>2</sub>S<sub>3</sub>",
        "Molecular Mass": "264.47",
        "Melting Point": "31 °C",
        "Density": "1.150 g/cm³ @ Temp: 20 °C"
    }
}