{
    "cas_no": "599-79-1",
    "key_name": "Sulfasalazine",
    "cn_name": "柳氮磺吡啶;5-[对-(2-吡啶胺磺酰基)苯]偶氮水杨酸;",
    "alternate_name": "Benzoic acid, 2-hydroxy-5-[2-[4-[(2-pyridinylamino)sulfonyl]phenyl]diazenyl]-;Salicylic acid, 5-[[<em>p</em>-(2-pyridylsulfamoyl)phenyl]azo]-;Benzoic acid, 2-hydroxy-5-[[4-[(2-pyridinylamino)sulfonyl]phenyl]azo]-;2-Hydroxy-5-[2-[4-[(2-pyridinylamino)sulfonyl]phenyl]diazenyl]benzoic acid;Azopyrin;Azopyrine;Azulfidine;5-[<em>p</em>-(2-Pyridylsulfamoyl)phenylazo]salicylic acid;5-[4-(2-Pyridylsulfamyl)phenylazo]-2-hydroxybenzoic acid;5-[<em>p</em>-(2-Pyridylsulfamyl)phenylazo]salicylic acid;Salazopyrin;Sulphasalazine;Salazosulfapyridine;Salicylazosulfapyridine;Sulfasalazine;Sulfasalazin;Salazosulfapyridin;Benzosulfa;Reupirin;Salazopyridin;Salisulf;Salazopyrine;2-Hydroxy-5-((4-((2-pyridinylamino)sulfonyl)phenyl)azo)benzoic acid;Colo-Pleon;NSC 203730;NSC 667219;Azulfidine EN;Azulfin;Sulazine;2-Hydroxy-5-((4-(<em>N</em>-(pyridin-2-yl)sulfamoyl)phenyl)diazenyl)benzoic acid;MeSH ID: D012460",
    "duplicated_cas_no": "",
    "SMILES": "S(NC1=CC=CC=N1)(=O)(=O)C2=CC=C(N=NC3=CC(C(O)=O)=C(O)C=C3)C=C2",
    "meta_data": {
        "InChI": "InChI=1S/C18H14N4O5S/c23-16-9-6-13(11-15(16)18(24)25)21-20-12-4-7-14(8-5-12)28(26,27)22-17-3-1-2-10-19-17/h1-11,23H,(H,19,22)(H,24,25)",
        "InChIKey": null,
        "Canonical SMILES": "O=C(O)C1=CC(N=NC2=CC=C(C=C2)S(=O)(=O)NC3=NC=CC=C3)=CC=C1O",
        "Molecular Formula": "C<sub>18</sub>H<sub>14</sub>N<sub>4</sub>O<sub>5</sub>S",
        "Molecular Mass": "398.39",
        "Melting Point": "220 °C"
    }
}