{
    "cas_no": "114-21-6",
    "key_name": "Benzeneacetic acid, α-hydroxy-, sodium salt (1:1)",
    "cn_name": "扁桃酸钠;",
    "alternate_name": "Benzeneacetic acid, α-hydroxy-, sodium salt (1:1);Mandelic acid, monosodium salt;Benzeneacetic acid, α-hydroxy-, monosodium salt;Sodium mandelate;Sodium <span class=\"text-smallcaps\">DL</span>-mandelate;2-Hydroxy-2-phenylacetic acid sodium salt",
    "duplicated_cas_no": "34166-39-7",
    "SMILES": "C(C(O)=O)(O)C1=CC=CC=C1.[Na]",
    "meta_data": {
        "InChI": "InChI=1S/C8H8O3.Na/c9-7(8(10)11)6-4-2-1-3-5-6;/h1-5,7,9H,(H,10,11);",
        "InChIKey": null,
        "Canonical SMILES": "[Na].O=C(O)C(O)C=1C=CC=CC1",
        "Molecular Formula": "C<sub>8</sub>H<sub>8</sub>O<sub>3</sub>.Na",
        "Molecular Mass": "",
        "Melting Point": "267 °C"
    }
}