{
    "cas_no": "26547-51-3",
    "key_name": "8-Phenyloctanoic acid",
    "cn_name": "8-苯基辛酸;8-苯基辛酸;8-苯基辛酸,97%;8-苯基辛烷;",
    "alternate_name": "Benzeneoctanoic acid;Octanoic acid, 8-phenyl-;8-Phenyloctanoic acid;ω-Phenyloctanoic acid;8-Phenylcaprylic acid",
    "duplicated_cas_no": "",
    "SMILES": "C(CCCCCCC(O)=O)C1=CC=CC=C1",
    "meta_data": {
        "InChI": "InChI=1S/C14H20O2/c15-14(16)12-8-3-1-2-5-9-13-10-6-4-7-11-13/h4,6-7,10-11H,1-3,5,8-9,12H2,(H,15,16)",
        "InChIKey": null,
        "Canonical SMILES": "O=C(O)CCCCCCCC=1C=CC=CC1",
        "Molecular Formula": "C<sub>14</sub>H<sub>20</sub>O<sub>2</sub>",
        "Molecular Mass": "220.31",
        "Boiling Point": "204-206 °C @ Press: 11 Torr",
        "Melting Point": "24-25 °C"
    }
}