{
    "cas_no": "26864-56-2",
    "key_name": "Penfluridol",
    "cn_name": "五氟利多;1-[4,4-双(4-氟苯基)丁基]-4-[4-氯-3-(三氟甲基)苯基]-4-哌啶醇;",
    "alternate_name": "4-Piperidinol, 1-[4,4-bis(4-fluorophenyl)butyl]-4-[4-chloro-3-(trifluoromethyl)phenyl]-;4-Piperidinol, 1-[4,4-bis(<em>p</em>-fluorophenyl)butyl]-4-(4-chloro-α,α,α-trifluoro-<em>m</em>-tolyl)-;1-[4,4-Bis(4-fluorophenyl)butyl]-4-[4-chloro-3-(trifluoromethyl)phenyl]-4-piperidinol;Penfluridol;1-[4,4-Bis(<em>p</em>-fluorophenyl)butyl]-4-(4-chloro-α,α,α-trifluoro-<em>m</em>-tolyl)-4-piperidinol;R 16341;McN-JR 16341;Semap",
    "duplicated_cas_no": "",
    "SMILES": "OC1(C2=CC(C(F)(F)F)=C(Cl)C=C2)CCN(CCCC(C3=CC=C(F)C=C3)C4=CC=C(F)C=C4)CC1",
    "meta_data": {
        "InChI": "InChI=1S/C28H27ClF5NO/c29-26-12-7-21(18-25(26)28(32,33)34)27(36)13-16-35(17-14-27)15-1-2-24(19-3-8-22(30)9-4-19)20-5-10-23(31)11-6-20/h3-12,18,24,36H,1-2,13-17H2",
        "InChIKey": null,
        "Canonical SMILES": "FC1=CC=C(C=C1)C(C2=CC=C(F)C=C2)CCCN3CCC(O)(C4=CC=C(Cl)C(=C4)C(F)(F)F)CC3",
        "Molecular Formula": "C<sub>28</sub>H<sub>27</sub>ClF<sub>5</sub>NO",
        "Molecular Mass": "523.97",
        "Melting Point": "106 °C"
    }
}