{
    "cas_no": "830-13-7",
    "key_name": "Cyclododecanone",
    "cn_name": "环十二酮;",
    "alternate_name": "Cyclododecanone;NSC 77116",
    "duplicated_cas_no": "",
    "SMILES": "O=C1CCCCCCCCCCC1",
    "meta_data": {
        "InChI": "InChI=1S/C12H22O/c13-12-10-8-6-4-2-1-3-5-7-9-11-12/h1-11H2",
        "InChIKey": null,
        "Canonical SMILES": "O=C1CCCCCCCCCCC1",
        "Molecular Formula": "C<sub>12</sub>H<sub>22</sub>O",
        "Molecular Mass": "182.30",
        "Boiling Point": "126-128 °C",
        "Melting Point": "59 °C",
        "Density": "0.9059 g/cm³ @ Temp: 66 °C"
    }
}