{
    "cas_no": "21956-56-9",
    "key_name": "<em>trans</em>-3,5-Dimethoxystilbene",
    "cn_name": null,
    "alternate_name": "Benzene, 1,3-dimethoxy-5-[(1<em>E</em>)-2-phenylethenyl]-;Stilbene, 3,5-dimethoxy-, (<em>E</em>)-;Benzene, 1,3-dimethoxy-5-(2-phenylethenyl)-, (<em>E</em>)-;1,3-Dimethoxy-5-[(1<em>E</em>)-2-phenylethenyl]benzene;<em>trans</em>-Pinosylvin dimethyl ether;<em>trans</em>-3,5-Dimethoxystilbene;Pinosylvin, dimethyl ether;(<em>E</em>)-1-(3,5-Dimethoxyphenyl)-2-phenylethene;(<em>E</em>)-3,5-Dimethoxystilbene;3,5-Dimethoxy-<em>trans</em>-stilbene;(<em>E</em>)-1,3-Dimethoxy-5-styrylbenzene",
    "duplicated_cas_no": "7249-33-4",
    "SMILES": "C(=C/C1=CC=CC=C1)\\C2=CC(OC)=CC(OC)=C2",
    "meta_data": {
        "InChI": "InChI=1S/C16H16O2/c1-17-15-10-14(11-16(12-15)18-2)9-8-13-6-4-3-5-7-13/h3-12H,1-2H3/b9-8+",
        "InChIKey": null,
        "Canonical SMILES": "O(C=1C=C(OC)C=C(C=CC=2C=CC=CC2)C1)C",
        "Molecular Formula": "C<sub>16</sub>H<sub>16</sub>O<sub>2</sub>",
        "Molecular Mass": "240.30",
        "Boiling Point": "180 °C @ Press: 1 Torr",
        "Melting Point": "54-55 °C"
    }
}