{
    "cas_no": "872-49-1",
    "key_name": "5-Chloro-1-methyl-1<em>H</em>-imidazole",
    "cn_name": "5-氯-1-甲基咪唑;",
    "alternate_name": "1<em>H</em>-Imidazole, 5-chloro-1-methyl-;Imidazole, 5-chloro-1-methyl-;5-Chloro-1-methyl-1<em>H</em>-imidazole;5-Chloro-1-methylimidazole;1-Methyl-5-chloroimidazole",
    "duplicated_cas_no": "126993-04-2",
    "SMILES": "ClC=1N(C)C=NC1",
    "meta_data": {
        "InChI": "InChI=1S/C4H5ClN2/c1-7-3-6-2-4(7)5/h2-3H,1H3",
        "InChIKey": null,
        "Canonical SMILES": "ClC1=CN=CN1C",
        "Molecular Formula": "C<sub>4</sub>H<sub>5</sub>ClN<sub>2</sub>",
        "Molecular Mass": "116.55",
        "Boiling Point": "250-252 °C"
    }
}