{
    "cas_no": "56932-44-6",
    "key_name": "HC Yellow 5",
    "cn_name": "N-(2-氨基-4-硝基苯基)乙醇胺;",
    "alternate_name": "Ethanol, 2-[(2-amino-4-nitrophenyl)amino]-;Ethanol, 2-(2-amino-4-nitroanilino)-;2-[(2-Amino-4-nitrophenyl)amino]ethanol;HC Yellow No. 5;<em>N</em><sup>1</sup>-(2-Hydroxyethyl)-4-nitro-<em>o</em>-phenylenediamine;HC Yellow 5;Yellow No. 5;1-(2′-Hydroxy-ethyl)amino-2-amino-4-nitro-benzene;2-[(2-Amino-4-nitrophenyl)amino]ethan-1-ol;2-(2-Amino-4-nitroanilino)ethanol",
    "duplicated_cas_no": "",
    "SMILES": "N(CCO)C1=C(N)C=C(N(=O)=O)C=C1",
    "meta_data": {
        "InChI": "InChI=1S/C8H11N3O3/c9-7-5-6(11(13)14)1-2-8(7)10-3-4-12/h1-2,5,10,12H,3-4,9H2",
        "InChIKey": null,
        "Canonical SMILES": "O=N(=O)C1=CC=C(NCCO)C(N)=C1",
        "Molecular Formula": "C<sub>8</sub>H<sub>11</sub>N<sub>3</sub>O<sub>3</sub>",
        "Molecular Mass": "197.19",
        "Melting Point": "133 °C"
    }
}