{
    "cas_no": "54-16-0",
    "key_name": "5-Hydroxyindoleacetic acid",
    "cn_name": "2-氟-5-硝基苯甲醚;5-羟基吲哚-3-乙酸;5-HIAA;",
    "alternate_name": "1<em>H</em>-Indole-3-acetic acid, 5-hydroxy-;Indole-3-acetic acid, 5-hydroxy-;5-Hydroxy-1<em>H</em>-indole-3-acetic acid;5-Hydroxyindoleacetic acid;5-Hydroxyindole-3-acetic acid;5-HIAA;5-Hydroxyindol-3-ylacetic acid;5-Oxyindoleacetic acid;5-Hydroxy-3-indolylacetate;5-Hydroxyheteroauxin;5-Hydroxy-IAA;NSC 90432;(5-Hydroxy-1<em>H</em>-indol-3-yl)acetic acid;2-(5-Hydroxy-1<em>H</em>-indol-3-yl)acetic acid;MeSH ID: D006897",
    "duplicated_cas_no": "99155-61-0;113303-91-6;1321-73-9",
    "SMILES": "C(C(O)=O)C=1C=2C(NC1)=CC=C(O)C2",
    "meta_data": {
        "InChI": "InChI=1S/C10H9NO3/c12-7-1-2-9-8(4-7)6(5-11-9)3-10(13)14/h1-2,4-5,11-12H,3H2,(H,13,14)",
        "InChIKey": null,
        "Canonical SMILES": "O=C(O)CC1=CNC=2C=CC(O)=CC21",
        "Molecular Formula": "C<sub>10</sub>H<sub>9</sub>NO<sub>3</sub>",
        "Molecular Mass": "191.18",
        "Melting Point": "162 °C (decomp)"
    }
}