{
    "cas_no": "4093-41-8",
    "key_name": "Methyl 4-acetylamino-2-methoxy-5-nitrobenzoate",
    "cn_name": "4-乙酰胺基-2-甲氧基-5-硝基苯甲酸甲酯;",
    "alternate_name": "Benzoic acid, 4-(acetylamino)-2-methoxy-5-nitro-, methyl ester;<em>o</em>-Anisic acid, 4-acetamido-5-nitro-, methyl ester;Methyl 2-methoxy-4-acetamido-5-nitrobenzoate;Methyl 4-acetylamino-2-methoxy-5-nitrobenzoate;4-Acetylamino-2-methoxy-5-nitrobenzoic acid methyl ester;Methyl 4-acetamido-2-methoxy-5-nitrobenzoate",
    "duplicated_cas_no": "",
    "SMILES": "C(OC)(=O)C1=C(OC)C=C(NC(C)=O)C(N(=O)=O)=C1",
    "meta_data": {
        "InChI": "InChI=1S/C11H12N2O6/c1-6(14)12-8-5-10(18-2)7(11(15)19-3)4-9(8)13(16)17/h4-5H,1-3H3,(H,12,14)",
        "InChIKey": null,
        "Canonical SMILES": "O=C(OC)C=1C=C(C(=CC1OC)NC(=O)C)N(=O)=O",
        "Molecular Formula": "C<sub>11</sub>H<sub>12</sub>N<sub>2</sub>O<sub>6</sub>",
        "Molecular Mass": "268.22",
        "Melting Point": "163-165 °C"
    }
}