{
    "cas_no": "575-44-0",
    "key_name": "1,6-Dihydroxynaphthalene",
    "cn_name": "1,6-二羟基萘;",
    "alternate_name": "1,6-Naphthalenediol;C.I. 76630;1,6-Dihydroxynaphthalene;2,5-Naphthalenediol;6-Hydroxy-1-naphthol;2,5-Dihydroxynaphthalene;NSC 7201;D 22520;D 0591",
    "duplicated_cas_no": "",
    "SMILES": "OC=1C2=C(C=C(O)C=C2)C=CC1",
    "meta_data": {
        "InChI": "InChI=1S/C10H8O2/c11-8-4-5-9-7(6-8)2-1-3-10(9)12/h1-6,11-12H",
        "InChIKey": null,
        "Canonical SMILES": "OC=1C=CC=2C(O)=CC=CC2C1",
        "Molecular Formula": "C<sub>10</sub>H<sub>8</sub>O<sub>2</sub>",
        "Molecular Mass": "160.17",
        "Melting Point": "138 °C"
    }
}