{
    "cas_no": "1565-74-8",
    "key_name": "(+)-1-Phenyl-1-propanol",
    "cn_name": null,
    "alternate_name": "Benzenemethanol, α-ethyl-, (α<em>R</em>)-;Benzyl alcohol, α-ethyl-, (+)-;Benzenemethanol, α-ethyl-, (<em>R</em>)-;(α<em>R</em>)-α-Ethylbenzenemethanol;(+)-1-Phenylpropyl alcohol;(<em>R</em>)-(+)-α-Hydroxypropylbenzene;(<em>R</em>)-(+)-1-Phenyl-1-propanol;(<em>R</em>)-(+)-α-Ethylbenzenemethanol;(+)-1-Phenyl-1-propanol;(+)-α-Ethylbenzyl alcohol;(<em>R</em>)-Phenylethylcarbinol;(<em>R</em>)-α-Ethylbenzyl alcohol;(<em>R</em>)-1-Phenyl-1-propanol;(<em>R</em>)-α-Hydroxypropylbenzene;(<em>R</em>)-1-Phenylpropanol;(+)-α-Phenylpropanol;(+)-1-Phenylpropanol;(<em>R</em>)-α-Ethylbenzenemethanol;(+)-(α<em>R</em>)-α-Ethylbenzenemethanol;(R)-(+)-1-Phenyl-1-propanol;(1R)-1-Phenylpropan-1-ol",
    "duplicated_cas_no": "",
    "SMILES": "[C@H](CC)(O)C1=CC=CC=C1",
    "meta_data": {
        "InChI": "InChI=1S/C9H12O/c1-2-9(10)8-6-4-3-5-7-8/h3-7,9-10H,2H2,1H3/t9-/m1/s1",
        "InChIKey": null,
        "Canonical SMILES": "OC(C=1C=CC=CC1)CC",
        "Molecular Formula": "C<sub>9</sub>H<sub>12</sub>O",
        "Molecular Mass": "136.19",
        "Boiling Point": "104 °C @ Press: 15 Torr",
        "Melting Point": "91.4-92 °C"
    }
}