{
    "cas_no": "551-16-6",
    "key_name": "6-Aminopenicillanic acid",
    "cn_name": "6-氨基青霉烷酸;6-氨基-3,3-二甲基-7-氧代-4-硫杂-1-氮杂二环[3.2.0]庚烷-2-羧酸;",
    "alternate_name": "4-Thia-1-azabicyclo[3.2.0]heptane-2-carboxylic acid, 6-amino-3,3-dimethyl-7-oxo-, (2<em>S</em>,5<em>R</em>,6<em>R</em>)-;4-Thia-1-azabicyclo[3.2.0]heptane-2-carboxylic acid, 6-amino-3,3-dimethyl-7-oxo-;4-Thia-1-azabicyclo[3.2.0]heptane-2-carboxylic acid, 6-amino-3,3-dimethyl-7-oxo-, [2<em>S</em>-(2α,5α,6β)]-;(2<em>S</em>,5<em>R</em>,6<em>R</em>)-6-Amino-3,3-dimethyl-7-oxo-4-thia-1-azabicyclo[3.2.0]heptane-2-carboxylic acid;6-APA;6-Aminopenicillanic acid;6-APS;6β-Aminopenicillanic acid;NSC 50071;(+)-6-Aminopenicillanic acid",
    "duplicated_cas_no": "1782955-12-7",
    "SMILES": "C(O)(=O)[C@@H]1N2[C@@]([C@H](N)C2=O)(SC1(C)C)[H]",
    "meta_data": {
        "InChI": "InChI=1S/C8H12N2O3S/c1-8(2)4(7(12)13)10-5(11)3(9)6(10)14-8/h3-4,6H,9H2,1-2H3,(H,12,13)/t3-,4+,6-/m1/s1",
        "InChIKey": null,
        "Canonical SMILES": "O=C(O)C1N2C(=O)C(N)C2SC1(C)C",
        "Molecular Formula": "C<sub>8</sub>H<sub>12</sub>N<sub>2</sub>O<sub>3</sub>S",
        "Molecular Mass": "216.26",
        "Melting Point": "208-209 °C (decomp)"
    }
}