{
    "cas_no": "3413-58-9",
    "key_name": "Cinchonan-9-ol, 6′-ethoxy-10,11-dihydro-, hydrochloride (1:1), (8α,9<em>R</em>)-",
    "cn_name": null,
    "alternate_name": "Cinchonan-9-ol, 6′-ethoxy-10,11-dihydro-, hydrochloride (1:1), (8α,9<em>R</em>)-;Hydrocupreine, <em>O</em><sup>6′</sup>-ethyl-, monohydrochloride;Cinchonan-9-ol, 6′-ethoxy-10,11-dihydro-, monohydrochloride, (8α,9<em>R</em>)-;<em>O</em>-Ethylhydrocupreine hydrochloride;Neumolisina;Numoquin hydrochloride;Optochin hydrochloride;Ethylhydrocupreine hydrochloride;NSC 5361",
    "duplicated_cas_no": "21156-78-5;27988-91-6",
    "SMILES": "[C@@H](O)(C=1C2=C(C=CC(OCC)=C2)N=CC1)[C@]3([N@@]4C[C@H](CC)[C@](C3)(CC4)[H])[H].Cl",
    "meta_data": {
        "InChI": "InChI=1S/C21H28N2O2.ClH/c1-3-14-13-23-10-8-15(14)11-20(23)21(24)17-7-9-22-19-6-5-16(25-4-2)12-18(17)19;/h5-7,9,12,14-15,20-21,24H,3-4,8,10-11,13H2,1-2H3;1H/t14-,15-,20-,21+;/m0./s1",
        "InChIKey": null,
        "Canonical SMILES": "Cl.OC(C=1C=CN=C2C=CC(OCC)=CC21)C3N4CCC(C3)C(C4)CC",
        "Molecular Formula": "C<sub>21</sub>H<sub>28</sub>N<sub>2</sub>O<sub>2</sub>.ClH",
        "Molecular Mass": "",
        "Melting Point": "252-254 °C"
    }
}