{
    "cas_no": "1738-76-7",
    "key_name": "Glycine, phenylmethyl ester, 4-methylbenzenesulfonate (1:1)",
    "cn_name": "甘氨酸苄酯对甲苯磺酸盐;",
    "alternate_name": "Glycine, phenylmethyl ester, 4-methylbenzenesulfonate (1:1);Glycine, benzyl ester, <em>p</em>-toluenesulfonate;Glycine, phenylmethyl ester, 4-methylbenzenesulfonate;Glycine benzyl ester <em>p</em>-tosylate;Glycine benzyl ester tosylate;Benzyl glycinate <em>p</em>-toluenesulfonate;Benzyl glycinate <em>p</em>-tolylsulfonate;Benzyl glycinate <em>p</em>-toluenesulfonic acid salt;Benzyl glycinate tosylate;Benzyl glycinate toluenesulfonate;Glycine benzyl ester 4-toluenesulfonate;Glycine benzyl ester 4-toluenesulfonic acid salt;Gly-OBzl TosOH;H-Gly-OBzl toluenesulfonate",
    "duplicated_cas_no": "97230-17-6;860642-15-5;901139-51-3",
    "SMILES": "C(OC(CN)=O)C1=CC=CC=C1.S(=O)(=O)(O)C1=CC=C(C)C=C1",
    "meta_data": {
        "InChI": "InChI=1S/C9H11NO2.C7H8O3S/c10-6-9(11)12-7-8-4-2-1-3-5-8;1-6-2-4-7(5-3-6)11(8,9)10/h1-5H,6-7,10H2;2-5H,1H3,(H,8,9,10)",
        "InChIKey": null,
        "Canonical SMILES": "O=C(OCC=1C=CC=CC1)CN.O=S(=O)(O)C1=CC=C(C=C1)C",
        "Molecular Formula": "C<sub>9</sub>H<sub>11</sub>NO<sub>2</sub>.C<sub>7</sub>H<sub>8</sub>O<sub>3</sub>S",
        "Molecular Mass": "",
        "Melting Point": "132-133 °C"
    }
}