{
    "cas_no": "34911-51-8",
    "key_name": "2-Bromo-1-(3-chlorophenyl)-1-propanone",
    "cn_name": "2-溴-3\"-氯苯丙酮;",
    "alternate_name": "1-Propanone, 2-bromo-1-(3-chlorophenyl)-;Propiophenone, 2-bromo-3′-chloro-;2-Bromo-1-(3-chlorophenyl)-1-propanone;2-Bromo-3′-chloropropiophenone;α-Bromo-<em>m</em>-chloropropiophenone;α-Bromo-3-chloropropiophenone;2-Bromo-1-(3-chlorophenyl)propan-1-one",
    "duplicated_cas_no": "92821-81-3",
    "SMILES": "C(C(Br)C)(=O)C1=CC(Cl)=CC=C1",
    "meta_data": {
        "InChI": "InChI=1S/C9H8BrClO/c1-6(10)9(12)7-3-2-4-8(11)5-7/h2-6H,1H3",
        "InChIKey": null,
        "Canonical SMILES": "O=C(C=1C=CC=C(Cl)C1)C(Br)C",
        "Molecular Formula": "C<sub>9</sub>H<sub>8</sub>BrClO",
        "Molecular Mass": "247.52",
        "Boiling Point": "148-148.5 °C @ Press: 9 Torr",
        "Density": "1.5316 g/cm³ @ Temp: 20 °C"
    }
}