{
    "cas_no": "10215-33-5",
    "key_name": "3-Butoxy-1-propanol",
    "cn_name": null,
    "alternate_name": "1-Propanol, 3-butoxy-;3-Butoxy-1-propanol;3-Butoxypropanol;3-<em>n</em>-Butoxy-1-propanol;NSC 221254",
    "duplicated_cas_no": "",
    "SMILES": "O(CCCC)CCCO",
    "meta_data": {
        "InChI": "InChI=1S/C7H16O2/c1-2-3-6-9-7-4-5-8/h8H,2-7H2,1H3",
        "InChIKey": null,
        "Canonical SMILES": "OCCCOCCCC",
        "Molecular Formula": "C<sub>7</sub>H<sub>16</sub>O<sub>2</sub>",
        "Molecular Mass": "132.20",
        "Boiling Point": "43-45 °C @ Press: 0.1 Torr"
    }
}