{
    "cas_no": "501-53-1",
    "key_name": "Benzyl chloroformate",
    "cn_name": "氯甲酸苄酯;",
    "alternate_name": "Carbonochloridic acid, phenylmethyl ester;Formic acid, chloro-, benzyl ester;Benzyl chloroformate;(Benzyloxy)carbonyl chloride;Carbobenzoxy chloride;Carbobenzyloxy chloride;Chloroformic acid benzyl ester;Benzyl carbonochloridate;Benzyl chlorocarbonate;Phenylmethyl chloroformate;NSC 83466;Benzyl chloridocarbonate;Benzyloxyformyl chloride",
    "duplicated_cas_no": "94274-21-2;728010-31-9;960053-05-8",
    "SMILES": "C(OC(Cl)=O)C1=CC=CC=C1",
    "meta_data": {
        "InChI": "InChI=1S/C8H7ClO2/c9-8(10)11-6-7-4-2-1-3-5-7/h1-5H,6H2",
        "InChIKey": null,
        "Canonical SMILES": "O=C(Cl)OCC=1C=CC=CC1",
        "Molecular Formula": "C<sub>8</sub>H<sub>7</sub>ClO<sub>2</sub>",
        "Molecular Mass": "170.59",
        "Boiling Point": "152 °C @ Press: 760 Torr",
        "Density": "1.2166 g/cm³ @ Temp: 20 °C"
    }
}