{
    "cas_no": "13289-18-4",
    "key_name": "Hellebrin",
    "cn_name": "蒜蘆黎素;",
    "alternate_name": "Bufa-20,22-dienolide, 3-[(6-deoxy-4-<em>O</em>-β-<span class=\"text-smallcaps\">D</smallcap>-glucopyranosyl-α-<smallcap>L</span>-mannopyranosyl)oxy]-5,14-dihydroxy-19-oxo-, (3β,5β)-;Hellebrin;(3β,5β)-3-[(6-Deoxy-4-<em>O</em>-β-<span class=\"text-smallcaps\">D</smallcap>-glucopyranosyl-α-<smallcap>L</span>-mannopyranosyl)oxy]-5,14-dihydroxy-19-oxobufa-20,22-dienolide;Corelborin;Corelborin π;Korelborin;Korelborin P;NSC 93134",
    "duplicated_cas_no": "12626-45-8;28518-57-2",
    "SMILES": "C(=O)C12C3C(C4(O)C(C)(CC3)C(CC4)C=5C=CC(=O)OC5)CCC1(O)CC(OC6C(O)C(O)C(OC7OC(CO)C(O)C(O)C7O)C(C)O6)CC2",
    "meta_data": {
        "InChI": "InChI=1S/C36H52O15/c1-17-30(51-32-28(43)26(41)25(40)23(14-37)50-32)27(42)29(44)31(48-17)49-19-5-10-34(16-38)21-6-9-33(2)20(18-3-4-24(39)47-15-18)8-12-36(33,46)22(21)7-11-35(34,45)13-19/h3-4,15-17,19-23,25-32,37,40-46H,5-14H2,1-2H3",
        "InChIKey": null,
        "Canonical SMILES": "O=CC12CCC(OC3OC(C)C(OC4OC(CO)C(O)C(O)C4O)C(O)C3O)CC2(O)CCC5C1CCC6(C)C(C7=COC(=O)C=C7)CCC56O",
        "Molecular Formula": "C<sub>36</sub>H<sub>52</sub>O<sub>15</sub>",
        "Molecular Mass": "724.79",
        "Melting Point": "283.5 °C"
    }
}