{
    "cas_no": "25155-18-4",
    "key_name": "Methylbenzethonium chloride",
    "cn_name": null,
    "alternate_name": "Benzenemethanaminium, <em>N</em>,<em>N</em>-dimethyl-<em>N</em>-[2-[2-[methyl-4-(1,1,3,3-tetramethylbutyl)phenoxy]ethoxy]ethyl]-, chloride (1:1);Ammonium, benzyldimethyl[2-[2-[[4-(1,1,3,3-tetramethylbutyl)tolyl]oxy]ethoxy]ethyl]-, chloride;Methylbenzethonium chloride;Benzenemethanaminium, <em>N</em>,<em>N</em>-dimethyl-<em>N</em>-[2-[2-[methyl-4-(1,1,3,3-tetramethylbutyl)phenoxy]ethoxy]ethyl]-, chloride;Benzyldimethyl[2-[2-[[4-(1,1,3,3-tetramethylbutyl)tolyl]oxy]ethoxy]ethyl]ammonium chloride;Hyamine 10X;Diaparene chloride;2-(2-(<em>p</em>-(Diisobutyl)cresoxy)ethoxy)ethyldimethylbenzylammonium chloride;Hyamina 10",
    "duplicated_cas_no": "1320-40-7;1519926-44-3",
    "SMILES": "",
    "meta_data": {
        "InChI": "",
        "InChIKey": null,
        "Canonical SMILES": "",
        "Molecular Formula": "C<sub>28</sub>H<sub>44</sub>NO<sub>2</sub>.Cl",
        "Molecular Mass": "",
        "Melting Point": "161-163 °C"
    }
}