{
    "cas_no": "15214-89-8",
    "key_name": "2-Acrylamido-2-methylpropanesulfonic acid",
    "cn_name": "2-丙烯酰胺基-2-甲基丙磺酸;AMPS;",
    "alternate_name": "1-Propanesulfonic acid, 2-methyl-2-[(1-oxo-2-propen-1-yl)amino]-;1-Propanesulfonic acid, 2-acrylamido-2-methyl-;1-Propanesulfonic acid, 2-methyl-2-[(1-oxo-2-propenyl)amino]-;2-Methyl-2-[(1-oxo-2-propen-1-yl)amino]-1-propanesulfonic acid;2-Acrylamido-2-methylpropanesulfonic acid;2-Acrylamido-2,2-dimethylethanesulfonic acid;AMPS;Lubrizol AMPS;2-Acrylamido-2-methylpropylsulfonic acid;AMPS (sulfonic acid);2-Acrylamido-2-methyl-1-propanesulfonic acid;Lubrizol 2404;TBAS-Q;2-Methyl-2-[(1-oxo-2-propenyl)amino]-1-propanesulfonic acid;Acrylamide <em>tert</em>-butylsulfonic acid;ATBS;<em>tert</em>-Butylacrylamidosulfonic acid;Lubrizol 2402;2-Acryloylamido-2-methylpropanesulfonic acid;CG 810S-P;2-Acryloylamino-2-methyl-1-propanesulfonic acid;<em>N</em>-Acryloyl-2,2-dimethyltaurine;(1,1-Dimethyl-2-sulfoethyl)acrylamide;2-Acrylamido-2-methy-1-propanesulfonic acid;2-Methyl-2-(prop-2-enamido)propane-1-sulfonic acid;2-Methyl-2-(prop-2-enoylamino)propane-1-sulfonic acid",
    "duplicated_cas_no": "82989-71-7;107240-62-0;114705-58-7;127889-32-1;155380-40-8;155401-75-5;382655-32-5;936232-42-7;1211475-04-5;1390640-03-5;1600517-24-5;2146156-10-5;2321346-04-5",
    "SMILES": "C(C(NC(C=C)=O)(C)C)S(=O)(=O)O",
    "meta_data": {
        "InChI": "InChI=1S/C7H13NO4S/c1-4-6(9)8-7(2,3)5-13(10,11)12/h4H,1,5H2,2-3H3,(H,8,9)(H,10,11,12)",
        "InChIKey": null,
        "Canonical SMILES": "O=C(C=C)NC(C)(C)CS(=O)(=O)O",
        "Molecular Formula": "C<sub>7</sub>H<sub>13</sub>NO<sub>4</sub>S",
        "Molecular Mass": "207.25",
        "Melting Point": "184-186 °C"
    }
}