{
    "cas_no": "610-35-5",
    "key_name": "4-Hydroxyphthalic acid",
    "cn_name": "4-羟基邻苯二甲酸;",
    "alternate_name": "1,2-Benzenedicarboxylic acid, 4-hydroxy-;Phthalic acid, 4-hydroxy-;4-Hydroxy-1,2-benzenedicarboxylic acid;4-Hydroxyphthalic acid",
    "duplicated_cas_no": "",
    "SMILES": "C(O)(=O)C1=C(C(O)=O)C=C(O)C=C1",
    "meta_data": {
        "InChI": "InChI=1S/C8H6O5/c9-4-1-2-5(7(10)11)6(3-4)8(12)13/h1-3,9H,(H,10,11)(H,12,13)",
        "InChIKey": null,
        "Canonical SMILES": "O=C(O)C1=CC=C(O)C=C1C(=O)O",
        "Molecular Formula": "C<sub>8</sub>H<sub>6</sub>O<sub>5</sub>",
        "Molecular Mass": "182.13",
        "Melting Point": "205 °C"
    }
}