{
    "cas_no": "19241-38-4",
    "key_name": "4-Bromo-1-isothiocyanato-2-methylbenzene",
    "cn_name": "4-溴-2-甲基苯基硫代异氰酸酯;",
    "alternate_name": "Benzene, 4-bromo-1-isothiocyanato-2-methyl-;Isothiocyanic acid, 4-bromo-<em>o</em>-tolyl ester;4-Bromo-1-isothiocyanato-2-methylbenzene;4-Bromo-2-methylphenyl isothiocyanate",
    "duplicated_cas_no": "",
    "SMILES": "N(=C=S)C1=C(C)C=C(Br)C=C1",
    "meta_data": {
        "InChI": "InChI=1S/C8H6BrNS/c1-6-4-7(9)2-3-8(6)10-5-11/h2-4H,1H3",
        "InChIKey": null,
        "Canonical SMILES": "S=C=NC1=CC=C(Br)C=C1C",
        "Molecular Formula": "C<sub>8</sub>H<sub>6</sub>BrNS",
        "Molecular Mass": "228.11",
        "Melting Point": "50-51 °C"
    }
}