{
    "cas_no": "17282-40-5",
    "key_name": "Pyridinium, 1-(2-ethoxy-2-oxoethyl)-, bromide (1:1)",
    "cn_name": null,
    "alternate_name": "Pyridinium, 1-(2-ethoxy-2-oxoethyl)-, bromide (1:1);Pyridinium, 1-(carboxymethyl)-, bromide, ethyl ester;Pyridinium, 1-(2-ethoxy-2-oxoethyl)-, bromide;Ethoxycarbonylmethylpyridinium bromide;<em>N</em>-(Ethoxycarbonylmethyl)pyridinium bromide;1-(Ethoxycarbonylmethyl)pyridinium bromide;1-(2-Ethoxy-2-oxoethyl)pyridinium bromide;<em>N</em>-(2-Ethoxy-2-oxoethyl)pyridinium bromide;1-(2-Ethoxy-2-oxoethyl)pyridin-1-ium bromide",
    "duplicated_cas_no": "",
    "SMILES": "C(C(OCC)=O)[N+]=1C=CC=CC1.[Br-]",
    "meta_data": {
        "InChI": "InChI=1S/C9H12NO2.BrH/c1-2-12-9(11)8-10-6-4-3-5-7-10;/h3-7H,2,8H2,1H3;1H/q+1;/p-1",
        "InChIKey": null,
        "Canonical SMILES": "[Br-].O=C(OCC)C[N+]=1C=CC=CC1",
        "Molecular Formula": "C<sub>9</sub>H<sub>12</sub>NO<sub>2</sub>.Br",
        "Molecular Mass": "",
        "Melting Point": "112-115 °C"
    }
}