{
    "cas_no": "41859-67-0",
    "key_name": "Bezafibrate",
    "cn_name": "苯扎贝特;2-[4-[2-(4-氯苯甲酰胺基)乙基]苯氧基]-2-甲基丙酸;",
    "alternate_name": "Propanoic acid, 2-[4-[2-[(4-chlorobenzoyl)amino]ethyl]phenoxy]-2-methyl-;2-[4-[2-[(4-Chlorobenzoyl)amino]ethyl]phenoxy]-2-methylpropanoic acid;BM 15075;Bezafibrate;Cedur;Bezalip;Difaterol;Befizal;Bezatol;Benzofibrate;MeSH ID: D001629",
    "duplicated_cas_no": "",
    "SMILES": "C(NCCC1=CC=C(OC(C(O)=O)(C)C)C=C1)(=O)C2=CC=C(Cl)C=C2",
    "meta_data": {
        "InChI": "InChI=1S/C19H20ClNO4/c1-19(2,18(23)24)25-16-9-3-13(4-10-16)11-12-21-17(22)14-5-7-15(20)8-6-14/h3-10H,11-12H2,1-2H3,(H,21,22)(H,23,24)",
        "InChIKey": null,
        "Canonical SMILES": "O=C(O)C(OC1=CC=C(C=C1)CCNC(=O)C2=CC=C(Cl)C=C2)(C)C",
        "Molecular Formula": "C<sub>19</sub>H<sub>20</sub>ClNO<sub>4</sub>",
        "Molecular Mass": "361.82",
        "Melting Point": "186 °C"
    }
}