{
    "cas_no": "699-51-4",
    "key_name": "1,3-Diazaspiro[4.4]nonane-2,4-dione",
    "cn_name": null,
    "alternate_name": "1,3-Diazaspiro[4.4]nonane-2,4-dione;Spiro[cyclopentane-1,5′-hydantoin];5,5-Tetramethylenehydantoin;Ba 2839;5,5′-Cyclopentanespirohydantoin;Hydantoin-5-spirocyclopentane;NSC 1024",
    "duplicated_cas_no": "",
    "SMILES": "O=C1C2(NC(=O)N1)CCCC2",
    "meta_data": {
        "InChI": "InChI=1S/C7H10N2O2/c10-5-7(3-1-2-4-7)9-6(11)8-5/h1-4H2,(H2,8,9,10,11)",
        "InChIKey": null,
        "Canonical SMILES": "O=C1NC(=O)C2(N1)CCCC2",
        "Molecular Formula": "C<sub>7</sub>H<sub>10</sub>N<sub>2</sub>O<sub>2</sub>",
        "Molecular Mass": "154.17",
        "Melting Point": "206 °C"
    }
}