{
    "cas_no": "84907-55-1",
    "key_name": "4,4′-(1,2-Ethynediyl)bis[benzaldehyde]",
    "cn_name": null,
    "alternate_name": "Benzaldehyde, 4,4′-(1,2-ethynediyl)bis-;Benzaldehyde, 4,4′-ethynylenedi-;4,4′-(1,2-Ethynediyl)bis[benzaldehyde];Bis(4-formylphenyl)acetylene;Bis(4-formylphenyl)ethyne;1,2-Bis(4-formylphenyl)ethyne;4,4′-(Ethyne-1,2-diyl)dibenzaldehyde",
    "duplicated_cas_no": "",
    "SMILES": "C(#CC1=CC=C(C=O)C=C1)C2=CC=C(C=O)C=C2",
    "meta_data": {
        "InChI": "InChI=1S/C16H10O2/c17-11-15-7-3-13(4-8-15)1-2-14-5-9-16(12-18)10-6-14/h3-12H",
        "InChIKey": null,
        "Canonical SMILES": "O=CC1=CC=C(C#CC2=CC=C(C=O)C=C2)C=C1",
        "Molecular Formula": "C<sub>16</sub>H<sub>10</sub>O<sub>2</sub>",
        "Molecular Mass": "234.25",
        "Melting Point": "213-214 °C"
    }
}