{
    "cas_no": "106-55-8",
    "key_name": "2,5-Dimethylpiperazine",
    "cn_name": "2,5-二甲基哌嗪;",
    "alternate_name": "Piperazine, 2,5-dimethyl-;2,5-Dimethylpiperazine",
    "duplicated_cas_no": "",
    "SMILES": "CC1CNC(C)CN1",
    "meta_data": {
        "InChI": "InChI=1S/C6H14N2/c1-5-3-8-6(2)4-7-5/h5-8H,3-4H2,1-2H3",
        "InChIKey": null,
        "Canonical SMILES": "N1CC(NCC1C)C",
        "Molecular Formula": "C<sub>6</sub>H<sub>14</sub>N<sub>2</sub>",
        "Molecular Mass": "114.19",
        "Boiling Point": "164 °C",
        "Melting Point": "116 °C"
    }
}