{
    "cas_no": "364-71-6",
    "key_name": "2-[(2-Fluoroacetyl)oxy]benzoic acid",
    "cn_name": null,
    "alternate_name": "Benzoic acid, 2-[(2-fluoroacetyl)oxy]-;Salicylic acid, 2-fluoroacetate;Benzoic acid, 2-[(fluoroacetyl)oxy]-;2-[(2-Fluoroacetyl)oxy]benzoic acid;2-[(Fluoroacetyl)oxy]benzoic acid;2-(2-Fluoroacetoxy)benzoic acid",
    "duplicated_cas_no": "",
    "SMILES": "C(O)(=O)C1=C(OC(CF)=O)C=CC=C1",
    "meta_data": {
        "InChI": "InChI=1S/C9H7FO4/c10-5-8(11)14-7-4-2-1-3-6(7)9(12)13/h1-4H,5H2,(H,12,13)",
        "InChIKey": null,
        "Canonical SMILES": "O=C(O)C=1C=CC=CC1OC(=O)CF",
        "Molecular Formula": "C<sub>9</sub>H<sub>7</sub>FO<sub>4</sub>",
        "Molecular Mass": "198.15",
        "Melting Point": "131.6 °C"
    }
}