{
    "cas_no": "131179-95-8",
    "key_name": "Efaproxiral",
    "cn_name": "乙丙昔罗;2-[4-(3,5-二甲基苯基氨基甲酰甲基)苯氧基]-2-甲基丙酸;",
    "alternate_name": "Propanoic acid, 2-[4-[2-[(3,5-dimethylphenyl)amino]-2-oxoethyl]phenoxy]-2-methyl-;2-[4-[2-[(3,5-Dimethylphenyl)amino]-2-oxoethyl]phenoxy]-2-methylpropanoic acid;RSR 13;2-[4-[[[(3,5-Dimethylphenyl)amino]carbonyl]methyl]phenoxy]-2-methylpropionic acid;Efaproxiral;2-[4-[(3,5-Dimethylanilino carbonyl)methyl]phenoxy]-2-methylpropionic acid",
    "duplicated_cas_no": "",
    "SMILES": "O(C(C(O)=O)(C)C)C1=CC=C(CC(NC2=CC(C)=CC(C)=C2)=O)C=C1",
    "meta_data": {
        "InChI": "InChI=1S/C20H23NO4/c1-13-9-14(2)11-16(10-13)21-18(22)12-15-5-7-17(8-6-15)25-20(3,4)19(23)24/h5-11H,12H2,1-4H3,(H,21,22)(H,23,24)",
        "InChIKey": null,
        "Canonical SMILES": "O=C(O)C(OC1=CC=C(C=C1)CC(=O)NC=2C=C(C=C(C2)C)C)(C)C",
        "Molecular Formula": "C<sub>20</sub>H<sub>23</sub>NO<sub>4</sub>",
        "Molecular Mass": "341.40",
        "Melting Point": "138-139 °C"
    }
}