{
    "cas_no": "629-15-2",
    "key_name": "Glycol diformate",
    "cn_name": "乙二醇二甲酸酯;",
    "alternate_name": "1,2-Ethanediol, 1,2-diformate;Ethylene glycol, diformate;1,2-Ethanediol, diformate;Ethylene formate;Glycol diformate;Ethylene diformate;NSC 8831;1,2-Diformyloxyethane;2-(Formyloxy)ethyl formate",
    "duplicated_cas_no": "",
    "SMILES": "C(COC=O)OC=O",
    "meta_data": {
        "InChI": "InChI=1S/C4H6O4/c5-3-7-1-2-8-4-6/h3-4H,1-2H2",
        "InChIKey": null,
        "Canonical SMILES": "O=COCCOC=O",
        "Molecular Formula": "C<sub>4</sub>H<sub>6</sub>O<sub>4</sub>",
        "Molecular Mass": "118.09",
        "Boiling Point": "174 °C",
        "Density": "1.1503 g/cm³ @ Temp: 20 °C"
    }
}