{
    "cas_no": "2491-37-4",
    "key_name": "2-Bromo-1-(3-hydroxyphenyl)ethanone",
    "cn_name": null,
    "alternate_name": "Ethanone, 2-bromo-1-(3-hydroxyphenyl)-;2-Bromo-1-(3-hydroxyphenyl)ethanone;<em>m</em>-Bromoacetylphenol;ω-Bromo-<em>m</em>-hydroxyacetophenone;3-Hydroxyphenacyl bromide;2-Bromo-3′-hydroxyacetophenone;α-Bromo-3-hydroxyacetophenone;2-Bromo-1-(3-hydroxyphenyl)ethan-1-one",
    "duplicated_cas_no": "",
    "SMILES": "C(CBr)(=O)C1=CC(O)=CC=C1",
    "meta_data": {
        "InChI": "InChI=1S/C8H7BrO2/c9-5-8(11)6-2-1-3-7(10)4-6/h1-4,10H,5H2",
        "InChIKey": null,
        "Canonical SMILES": "O=C(C=1C=CC=C(O)C1)CBr",
        "Molecular Formula": "C<sub>8</sub>H<sub>7</sub>BrO<sub>2</sub>",
        "Molecular Mass": "215.04",
        "Melting Point": "70-72 °C"
    }
}