{
    "cas_no": "1534-08-3",
    "key_name": "<em>S</em>-Methyl thioacetate",
    "cn_name": "硫代醋酸S-甲酯;硫代乙酸甲酯;硫代醋酸S-甲酯;硫代醋酸S-甲酯, 98+%;",
    "alternate_name": "Ethanethioic acid, <em>S</em>-methyl ester;Acetic acid, thio-, <em>S</em>-methyl ester;<em>S</em>-Methyl thioacetate;Methanethiol acetate;<em>S</em>-Methyl ethanethioate;<em>S</em>-Methylthioacetic acid;1-(Methylsulfanyl)ethan-1-one",
    "duplicated_cas_no": "",
    "SMILES": "C(SC)(C)=O",
    "meta_data": {
        "InChI": "InChI=1S/C3H6OS/c1-3(4)5-2/h1-2H3",
        "InChIKey": null,
        "Canonical SMILES": "O=C(SC)C",
        "Molecular Formula": "C<sub>3</sub>H<sub>6</sub>OS",
        "Molecular Mass": "90.14",
        "Boiling Point": "98 °C @ Press: 760 Torr",
        "Density": "1.0170 g/cm³ @ Temp: 25 °C"
    }
}