{
    "cas_no": "110-44-1",
    "key_name": "Sorbic acid",
    "cn_name": "山梨酸;2,4-己二烯酸;2-丙烯基丙烯酸;",
    "alternate_name": "2,4-Hexadienoic acid, (2<em>E</em>,4<em>E</em>)-;Sorbic acid;2,4-Hexadienoic acid, (<em>E</em>,<em>E</em>)-;(2<em>E</em>,4<em>E</em>)-2,4-Hexadienoic acid;(<em>E</em>,<em>E</em>)-1,3-Pentadiene-1-carboxylic acid;Sorbistat;<em>trans</em>,<em>trans</em>-Sorbic acid;α-<em>trans</em>-γ-<em>trans</em>-Sorbic acid;<em>trans</em>,<em>trans</em>-2,4-Hexadienoic acid;(<em>E</em>,<em>E</em>)-2,4-Hexadienoic acid;Panosorb;E 200;2<em>E</em>,4<em>E</em>-Hexadienoic acid;NSC 35405;NSC 49103;NSC 50268;SO 215;2,4-Hexadienoic acid;Sorbinic acid;(2E,4E)-Hexa-2,4-dienoic acid;MeSH ID: D013011",
    "duplicated_cas_no": "91751-55-2;1197240-56-4;2747926-89-0",
    "SMILES": "C(=C/C=C/C)\\C(O)=O",
    "meta_data": {
        "InChI": "InChI=1S/C6H8O2/c1-2-3-4-5-6(7)8/h2-5H,1H3,(H,7,8)/b3-2+,5-4+",
        "InChIKey": null,
        "Canonical SMILES": "O=C(O)C=CC=CC",
        "Molecular Formula": "C<sub>6</sub>H<sub>8</sub>O<sub>2</sub>",
        "Molecular Mass": "112.13",
        "Boiling Point": "90-92 °C @ Press: 35 Torr",
        "Melting Point": "134.5 °C",
        "Density": "1.204 g/cm³ @ Temp: 19 °C"
    }
}