{
    "cas_no": "99614-02-5",
    "key_name": "Ondansetron",
    "cn_name": "恩丹西酮;昂旦司琼;1,2,3,9-四氢-9-甲基-3-[(2-甲基-1H-咪唑-1-基)甲基]-4H-咔唑-4-酮;",
    "alternate_name": "4<em>H</em>-Carbazol-4-one, 1,2,3,9-tetrahydro-9-methyl-3-[(2-methyl-1<em>H</em>-imidazol-1-yl)methyl]-;1,2,3,9-Tetrahydro-9-methyl-3-[(2-methyl-1<em>H</em>-imidazol-1-yl)methyl]-4<em>H</em>-carbazol-4-one;Ondansetron;GR 38032;GR 38032X;Zofran;Zudan;Zophren;1,2,3,4-Tetrahydro-9-methyl-3-[(2-methyl-1<em>H</em>-imidazol-1-yl)methyl]-9<em>H</em>-carbazol-4-one;Ondanles;Setron;Yatrox;Bekinda;RHB 102;1,2,3,4-Tetrahydro-9-methyl-3-(2-methyl-1<em>H</em>-imidazol-1-ylmethyl)carbazol-4-one;MeSH ID: D017294;Danset;Ondalenz",
    "duplicated_cas_no": "108303-49-7;116002-70-1;808754-64-5",
    "SMILES": "O=C1C=2C=3C(N(C)C2CCC1CN4C(C)=NC=C4)=CC=CC3",
    "meta_data": {
        "InChI": "InChI=1S/C18H19N3O/c1-12-19-9-10-21(12)11-13-7-8-16-17(18(13)22)14-5-3-4-6-15(14)20(16)2/h3-6,9-10,13H,7-8,11H2,1-2H3",
        "InChIKey": null,
        "Canonical SMILES": "O=C1C=2C=3C=CC=CC3N(C2CCC1CN4C=CN=C4C)C",
        "Molecular Formula": "C<sub>18</sub>H<sub>19</sub>N<sub>3</sub>O",
        "Molecular Mass": "293.36",
        "Melting Point": "231-232 °C"
    }
}