{
    "cas_no": "54300-32-2",
    "key_name": "Bis(4-fluorophenyl)phenylphosphine oxide",
    "cn_name": "二(4-氟苯基)苯基氧化膦;",
    "alternate_name": "Phosphine oxide, bis(4-fluorophenyl)phenyl-;Bis(4-fluorophenyl)phenylphosphine oxide;4,4′-Difluorotriphenylphosphine oxide;4,4′-Difluorodiphenyl phenylphosphine oxide",
    "duplicated_cas_no": "",
    "SMILES": "P(=O)(C1=CC=C(F)C=C1)(C2=CC=C(F)C=C2)C3=CC=CC=C3",
    "meta_data": {
        "InChI": "InChI=1S/C18H13F2OP/c19-14-6-10-17(11-7-14)22(21,16-4-2-1-3-5-16)18-12-8-15(20)9-13-18/h1-13H",
        "InChIKey": null,
        "Canonical SMILES": "O=P(C=1C=CC=CC1)(C2=CC=C(F)C=C2)C3=CC=C(F)C=C3",
        "Molecular Formula": "C<sub>18</sub>H<sub>13</sub>F<sub>2</sub>OP",
        "Molecular Mass": "314.27",
        "Melting Point": "0.1 °C"
    }
}