{
    "cas_no": "23056-35-1",
    "key_name": "4-Chloro-2-methyl-3-nitropyridine",
    "cn_name": null,
    "alternate_name": "Pyridine, 4-chloro-2-methyl-3-nitro-;2-Picoline, 4-chloro-3-nitro-;4-Chloro-2-methyl-3-nitropyridine",
    "duplicated_cas_no": "",
    "SMILES": "N(=O)(=O)C=1C(Cl)=CC=NC1C",
    "meta_data": {
        "InChI": "InChI=1S/C6H5ClN2O2/c1-4-6(9(10)11)5(7)2-3-8-4/h2-3H,1H3",
        "InChIKey": null,
        "Canonical SMILES": "O=N(=O)C1=C(Cl)C=CN=C1C",
        "Molecular Formula": "C<sub>6</sub>H<sub>5</sub>ClN<sub>2</sub>O<sub>2</sub>",
        "Molecular Mass": "172.57",
        "Melting Point": "45-48 °C"
    }
}