{
    "cas_no": "3505-38-2",
    "key_name": "Carbinoxamine maleate",
    "cn_name": "马来酸罗托沙敏;",
    "alternate_name": "Ethanamine, 2-[(4-chlorophenyl)-2-pyridinylmethoxy]-<em>N</em>,<em>N</em>-dimethyl-, (2<em>Z</em>)-2-butenedioate (1:1);Pyridine, 2-[<em>p</em>-chloro-α-[2-(dimethylamino)ethoxy]benzyl]-, maleate (1:1);Ethanamine, 2-[(4-chlorophenyl)-2-pyridinylmethoxy]-<em>N</em>,<em>N</em>-dimethyl-, (<em>Z</em>)-2-butenedioate (1:1);Allergefon maleate;Carbinoxamine maleate;2-[<em>p</em>-Chloro-α-[2-(dimethylamino)ethoxy]benzyl]pyridine Bimaleate;2-[<em>p</em>-Chloro-α-[2-(dimethylamino)ethoxy]benzyl]pyridine maleate;Clistine Maleate;Paracarbinoxamine maleate;Cliston;Clistin;Rondec DM;Polistin T-Caps;Hislosine;Allergefon;Rondec;Ciberon;Lergefin;NSC 62362",
    "duplicated_cas_no": "121366-99-2",
    "SMILES": "C(OCCN(C)C)(C1=CC=C(Cl)C=C1)C2=CC=CC=N2.C(=C\\C(O)=O)\\C(O)=O",
    "meta_data": {
        "InChI": "InChI=1S/C16H19ClN2O.C4H4O4/c1-19(2)11-12-20-16(15-5-3-4-10-18-15)13-6-8-14(17)9-7-13;5-3(6)1-2-4(7)8/h3-10,16H,11-12H2,1-2H3;1-2H,(H,5,6)(H,7,8)/b;2-1-",
        "InChIKey": null,
        "Canonical SMILES": "O=C(O)C=CC(=O)O.ClC1=CC=C(C=C1)C(OCCN(C)C)C2=NC=CC=C2",
        "Molecular Formula": "C<sub>16</sub>H<sub>19</sub>ClN<sub>2</sub>O.C<sub>4</sub>H<sub>4</sub>O<sub>4</sub>",
        "Molecular Mass": "",
        "Melting Point": "117-119 °C"
    }
}