{
    "cas_no": "436799-34-7",
    "key_name": "3,5-Dibromo-2-iodopyridine",
    "cn_name": null,
    "alternate_name": "Pyridine, 3,5-dibromo-2-iodo-;3,5-Dibromo-2-iodopyridine",
    "duplicated_cas_no": "",
    "SMILES": "BrC1=C(I)N=CC(Br)=C1",
    "meta_data": {
        "InChI": "InChI=1S/C5H2Br2IN/c6-3-1-4(7)5(8)9-2-3/h1-2H",
        "InChIKey": null,
        "Canonical SMILES": "BrC1=CN=C(I)C(Br)=C1",
        "Molecular Formula": "C<sub>5</sub>H<sub>2</sub>Br<sub>2</sub>IN",
        "Molecular Mass": "362.79",
        "Melting Point": "70.5 °C"
    }
}