{
    "cas_no": "21988-87-4",
    "key_name": "1,3,5-Tris(bromomethyl)-2,4,6-trimethylbenzene",
    "cn_name": "2,4,6-三溴甲基三甲基苯;1,3,5-三溴甲基-2,4,6-三甲基苯;",
    "alternate_name": "Benzene, 1,3,5-tris(bromomethyl)-2,4,6-trimethyl-;1,3,5-Tris(bromomethyl)-2,4,6-trimethylbenzene;2,4,6-Tri(bromomethyl)mesitylene;Tris(bromomethyl)mesitylene;1,3,5-Tri(bromomethyl)-2,4,6-trimethylbenzene;2,4,6-Tris(bromomethyl)mesitylene;1,3,5-Tris(bromomethyl)mesitylene;2,4,6-Tris(bromomethyl)-1,3,5-trimethylbenzene;1,3,5-Tris(4-bromomethyl)-2,4,6-trimethylbenzene;1,3,5-Tris(bromoomethyl)-2,4,6-trimethylbenzene",
    "duplicated_cas_no": "",
    "SMILES": "C(Br)C1=C(C)C(CBr)=C(C)C(CBr)=C1C",
    "meta_data": {
        "InChI": "InChI=1S/C12H15Br3/c1-7-10(4-13)8(2)12(6-15)9(3)11(7)5-14/h4-6H2,1-3H3",
        "InChIKey": null,
        "Canonical SMILES": "BrCC=1C(=C(C(=C(C1C)CBr)C)CBr)C",
        "Molecular Formula": "C<sub>12</sub>H<sub>15</sub>Br<sub>3</sub>",
        "Molecular Mass": "398.96",
        "Melting Point": "184-185 °C"
    }
}