{
    "cas_no": "273-21-2",
    "key_name": "Imidazo[4,5-<em>b</em>]pyridine",
    "cn_name": "4-氮杂苯并咪唑;",
    "alternate_name": "3<em>H</em>-Imidazo[4,5-<em>b</em>]pyridine;1<em>H</em>-Imidazo[4,5-<em>b</em>]pyridine;Imidazo[4,5-<em>b</em>]pyridine;4-Azabenzimidazole;1-Deazapurine;3,4-Diazaindole;1-Deaza-9<em>H</em>-purine;7-Azabenzimidazole;1,3,4-Triaza-3<em>H</em>-indene;4-Aza-3<em>H</em>-benzimidazole;7-Aza-1<em>H</em>-benzimidazole;4-Azabenzodiazole;NSC 403091;4-Aza-1<em>H</em>-benzimidazole;1,3,4-Triaza-1<em>H</em>-indene",
    "duplicated_cas_no": "39514-47-1;170245-18-8;915749-03-0",
    "SMILES": "C1=2C(N=CN1)=NC=CC2",
    "meta_data": {
        "InChI": "InChI=1S/C6H5N3/c1-2-5-6(7-3-1)9-4-8-5/h1-4H,(H,7,8,9)",
        "InChIKey": null,
        "Canonical SMILES": "N1=CC=CC=2NC=NC12",
        "Molecular Formula": "C<sub>6</sub>H<sub>5</sub>N<sub>3</sub>",
        "Molecular Mass": "119.12",
        "Melting Point": "149.5 °C"
    }
}