{
    "cas_no": "979-32-8",
    "key_name": "Estradiol valerate",
    "cn_name": "戊酸雌二醇;3-羟基雌甾-1,3,5(10)-三烯-17b-醇17-戊酸酯;",
    "alternate_name": "Estra-1,3,5(10)-triene-3,17-diol (17β)-, 17-pentanoate;Estradiol, 17-valerate;Estradiol valerate;Delahormone unimatic;Delestrogen 4x;Estra-1,3,5(10)-triene-3,17β-diol 17-valerate;Estradiol 17β-valerate;Estradiol valerianate;Progynon-Depot;3-Hydroxy-17β-valeroyloxyestra-1,3,5(10)-triene;Atladiol;Deladiol;Progynova;Estraval;Femogex;Neofollin;Pharlon;Dura-Estradiol;Delestrogen;Primogyn-Depot;Nuvelle;Oestradiol valerinate;Pelanin Depot;Gynogen LA;Gynogen LA 40;NSC 17590;Valergen;Climaval;Primofol-Depot;Gynokadin;Meriestra;Valest;Estradiol valerat;E2 valerate",
    "duplicated_cas_no": "907-12-0;69557-95-5",
    "SMILES": "C[C@@]12[C@]([C@]3([C@@](C=4C(CC3)=CC(O)=CC4)(CC1)[H])[H])(CC[C@@H]2OC(CCCC)=O)[H]",
    "meta_data": {
        "InChI": "InChI=1S/C23H32O3/c1-3-4-5-22(25)26-21-11-10-20-19-8-6-15-14-16(24)7-9-17(15)18(19)12-13-23(20,21)2/h7,9,14,18-21,24H,3-6,8,10-13H2,1-2H3/t18-,19-,20+,21+,23+/m1/s1",
        "InChIKey": null,
        "Canonical SMILES": "O=C(OC1CCC2C3CCC4=CC(O)=CC=C4C3CCC12C)CCCC",
        "Molecular Formula": "C<sub>23</sub>H<sub>32</sub>O<sub>3</sub>",
        "Molecular Mass": "356.50",
        "Melting Point": "144-145 °C"
    }
}