{
    "cas_no": "16096-31-4",
    "key_name": "1,6-Hexanediol diglycidyl ether",
    "cn_name": "1,6-己二醇二缩水甘油醚;1,6-二(2,3-环氧丙氧基)己烷;",
    "alternate_name": "Oxirane, 2,2′-[1,6-hexanediylbis(oxymethylene)]bis-;Hexane, 1,6-bis(2,3-epoxypropoxy)-;2,2′-[1,6-Hexanediylbis(oxymethylene)]bis[oxirane];1,6-Hexamethylenediol diglycidyl ether;1,6-Hexanediol diglycidyl ether;Hexanediol diglycidyl ether;Hexamethylene glycol diglycidyl ether;Hexamethylene diglycidyl ether;1,6-Bis(glycidyloxy)hexane;1,6-Hexanediol bisglycidyl ether;1,6-Bis(2,3-epoxypropoxy)hexane;1,6-Hexandiol-diglycidyl ether;1,6-Bis(oxiran-2-ylmethoxy)hexane;Epoxy 205",
    "duplicated_cas_no": "",
    "SMILES": "C(OCCCCCCOCC1CO1)C2CO2",
    "meta_data": {
        "InChI": "InChI=1S/C12H22O4/c1(3-5-13-7-11-9-15-11)2-4-6-14-8-12-10-16-12/h11-12H,1-10H2",
        "InChIKey": null,
        "Canonical SMILES": "O(CCCCCCOCC1OC1)CC2OC2",
        "Molecular Formula": "C<sub>12</sub>H<sub>22</sub>O<sub>4</sub>",
        "Molecular Mass": "230.30",
        "Boiling Point": "132 °C @ Press: 0.2 Torr"
    }
}