{
    "cas_no": "161796-77-6",
    "key_name": "1<em>H</em>-Benzimidazole, 6-methoxy-2-[(<em>R</em>)-[(4-methoxy-3,5-dimethyl-2-pyridinyl)methyl]sulfinyl]-, sodium salt (1:1)",
    "cn_name": null,
    "alternate_name": "1<em>H</em>-Benzimidazole, 6-methoxy-2-[(<em>R</em>)-[(4-methoxy-3,5-dimethyl-2-pyridinyl)methyl]sulfinyl]-, sodium salt (1:1);1<em>H</em>-Benzimidazole, 5-methoxy-2-[[(4-methoxy-3,5-dimethyl-2-pyridinyl)methyl]sulfinyl]-, sodium salt, (<em>R</em>)-;1<em>H</em>-Benzimidazole, 5-methoxy-2-[(<em>R</em>)-[(4-methoxy-3,5-dimethyl-2-pyridinyl)methyl]sulfinyl]-, sodium salt;(<em>R</em>)-Omeprazole sodium",
    "duplicated_cas_no": "174610-95-8;177540-98-6",
    "SMILES": "S(CC1=C(C)C(OC)=C(C)C=N1)(=O)C=2NC=3C(N2)=CC=C(OC)C3.[Na]",
    "meta_data": {
        "InChI": "InChI=1S/C17H19N3O3S.Na/c1-10-8-18-15(11(2)16(10)23-4)9-24(21)17-19-13-6-5-12(22-3)7-14(13)20-17;/h5-8H,9H2,1-4H3,(H,19,20);/t24-;/m1./s1",
        "InChIKey": null,
        "Canonical SMILES": "[Na].O=S(C1=NC=2C=CC(OC)=CC2N1)CC3=NC=C(C(OC)=C3C)C",
        "Molecular Formula": "C<sub>17</sub>H<sub>19</sub>N<sub>3</sub>O<sub>3</sub>S.Na",
        "Molecular Mass": "",
        "Melting Point": "~160 °C (approx)"
    }
}