{
    "cas_no": "4136-37-2",
    "key_name": "Stachydrine, hydrochloride",
    "cn_name": "盐酸水苏碱;盐酸水苏碱;",
    "alternate_name": "Pyrrolidinium, 2-carboxy-1,1-dimethyl-, chloride (1:1), (2<em>S</em>)-;Stachydrine, hydrochloride;Pyrrolidinium, 2-carboxy-1,1-dimethyl-, chloride, (<em>S</em>)-;Stachydrine, chloride;Pyrrolidinium, 2-carboxy-1,1-dimethyl-, chloride, (2<em>S</em>)-;Cadabine hydrochloride",
    "duplicated_cas_no": "57101-95-8",
    "SMILES": "C(O)(=O)[C@H]1[N+](C)(C)CCC1.[Cl-]",
    "meta_data": {
        "InChI": "InChI=1S/C7H13NO2.ClH/c1-8(2)5-3-4-6(8)7(9)10;/h6H,3-5H2,1-2H3;1H/t6-;/m0./s1",
        "InChIKey": null,
        "Canonical SMILES": "[Cl-].O=C(O)C1CCC[N+]1(C)C",
        "Molecular Formula": "C<sub>7</sub>H<sub>14</sub>NO<sub>2</sub>.Cl",
        "Molecular Mass": "",
        "Melting Point": "222 °C"
    }
}