{
    "cas_no": "117007-51-9",
    "key_name": "3-Chloro-1<em>H</em>-pyrazolo[3,4-<em>b</em>]pyridine",
    "cn_name": null,
    "alternate_name": "1<em>H</em>-Pyrazolo[3,4-<em>b</em>]pyridine, 3-chloro-;3-Chloro-1<em>H</em>-pyrazolo[3,4-<em>b</em>]pyridine;3-Chloro-2<em>H</em>-pyrazolo[3,4-<em>b</em>]pyridine",
    "duplicated_cas_no": "",
    "SMILES": "ClC=1C=2C(=NC=CC2)NN1",
    "meta_data": {
        "InChI": "InChI=1S/C6H4ClN3/c7-5-4-2-1-3-8-6(4)10-9-5/h1-3H,(H,8,9,10)",
        "InChIKey": null,
        "Canonical SMILES": "ClC1=NNC=2N=CC=CC12",
        "Molecular Formula": "C<sub>6</sub>H<sub>4</sub>ClN<sub>3</sub>",
        "Molecular Mass": "153.57",
        "Melting Point": "174.5-176.5 °C"
    }
}