{
    "cas_no": "100-06-1",
    "key_name": "4′-Methoxyacetophenone",
    "cn_name": "对甲氧基苯乙酮;",
    "alternate_name": "Ethanone, 1-(4-methoxyphenyl)-;Acetophenone, 4′-methoxy-;1-(4-Methoxyphenyl)ethanone;<em>p</em>-Acetylanisole;Linarodin;Novatone;Vananote;4′-Methoxyacetophenone;<em>p</em>-Methoxyphenyl methyl ketone;<em>p</em>-Methoxyacetophenone;4-Methoxyphenyl methyl ketone;4-Acetylanisole;Methyl <em>p</em>-methoxyphenyl ketone;1-Acetyl-4-methoxybenzene;<em>p</em>-Anisyl methyl ketone;<em>para</em>-Methoxyacetophenone;Methyl 4-methoxyphenyl ketone;Acetoanisole;<em>p</em>-Methoxy(acetyl)benzene;NSC 209523;NSC 5601;4-Methoxyhypnone;1-(4-Methoxyphenyl)ethan-1-one;4-Methoxyphenylethanone",
    "duplicated_cas_no": "",
    "SMILES": "C(C)(=O)C1=CC=C(OC)C=C1",
    "meta_data": {
        "InChI": "InChI=1S/C9H10O2/c1-7(10)8-3-5-9(11-2)6-4-8/h3-6H,1-2H3",
        "InChIKey": null,
        "Canonical SMILES": "O=C(C1=CC=C(OC)C=C1)C",
        "Molecular Formula": "C<sub>9</sub>H<sub>10</sub>O<sub>2</sub>",
        "Molecular Mass": "150.17",
        "Boiling Point": "258 °C",
        "Melting Point": "38.5 °C",
        "Density": "1.0818 g/cm³ @ Temp: 41 °C"
    }
}