{
    "cas_no": "62089-34-3",
    "key_name": "3-Methoxy-5-methylbenzoic acid",
    "cn_name": "3-甲氧基-5-甲基苯甲酸;",
    "alternate_name": "Benzoic acid, 3-methoxy-5-methyl-;<em>m</em>-Anisic acid, 5-methyl-;3-Methoxy-5-methylbenzoic acid;3-Methyl-5-methoxybenzoic acid;NSC 175905",
    "duplicated_cas_no": "",
    "SMILES": "C(O)(=O)C1=CC(OC)=CC(C)=C1",
    "meta_data": {
        "InChI": "InChI=1S/C9H10O3/c1-6-3-7(9(10)11)5-8(4-6)12-2/h3-5H,1-2H3,(H,10,11)",
        "InChIKey": null,
        "Canonical SMILES": "O=C(O)C1=CC(OC)=CC(=C1)C",
        "Molecular Formula": "C<sub>9</sub>H<sub>10</sub>O<sub>3</sub>",
        "Molecular Mass": "166.17",
        "Melting Point": "130-131 °C"
    }
}