{
    "cas_no": "52710-27-7",
    "key_name": "4-Propylbenzoyl chloride",
    "cn_name": "4-正丙基苯甲酰氯;",
    "alternate_name": "Benzoyl chloride, 4-propyl-;4-Propylbenzoyl chloride;<em>p</em>-Propylbenzoyl chloride;4-<em>n</em>-Propylbenzoyl chloride",
    "duplicated_cas_no": "",
    "SMILES": "C(Cl)(=O)C1=CC=C(CCC)C=C1",
    "meta_data": {
        "InChI": "InChI=1S/C10H11ClO/c1-2-3-8-4-6-9(7-5-8)10(11)12/h4-7H,2-3H2,1H3",
        "InChIKey": null,
        "Canonical SMILES": "O=C(Cl)C1=CC=C(C=C1)CCC",
        "Molecular Formula": "C<sub>10</sub>H<sub>11</sub>ClO",
        "Molecular Mass": "182.65",
        "Boiling Point": "135-136 °C @ Press: 20 Torr",
        "Melting Point": "197-198 °C"
    }
}