{
    "cas_no": "34633-69-7",
    "key_name": "1-Chloro-2,5-dimethyl-4-nitrobenzene",
    "cn_name": null,
    "alternate_name": "Benzene, 1-chloro-2,5-dimethyl-4-nitro-;<em>p</em>-Xylene, 2-chloro-5-nitro-;1-Chloro-2,5-dimethyl-4-nitrobenzene;2-Chloro-5-nitro-<em>p</em>-xylene;NSC 75002;2,5-Dimethyl-4-chloro-1-nitrobenzene",
    "duplicated_cas_no": "",
    "SMILES": "N(=O)(=O)C1=C(C)C=C(Cl)C(C)=C1",
    "meta_data": {
        "InChI": "InChI=1S/C8H8ClNO2/c1-5-4-8(10(11)12)6(2)3-7(5)9/h3-4H,1-2H3",
        "InChIKey": null,
        "Canonical SMILES": "O=N(=O)C1=CC(=C(Cl)C=C1C)C",
        "Molecular Formula": "C<sub>8</sub>H<sub>8</sub>ClNO<sub>2</sub>",
        "Molecular Mass": "185.61",
        "Boiling Point": "135-136 °C @ Press: 13 Torr",
        "Melting Point": "97 °C"
    }
}