{
    "cas_no": "51146-56-6",
    "key_name": "(+)-Ibuprofen",
    "cn_name": "S-布洛芬;(2S)-2-(4-异丁基苯)丙酸;",
    "alternate_name": "Benzeneacetic acid, α-methyl-4-(2-methylpropyl)-, (α<em>S</em>)-;Benzeneacetic acid, α-methyl-4-(2-methylpropyl)-, (<em>S</em>)-;(α<em>S</em>)-α-Methyl-4-(2-methylpropyl)benzeneacetic acid;(+)-Ibuprofen;<em>d</em>-Ibuprofen;(<em>S</em>)-(+)-Ibuprofen;(<em>S</em>)-Ibuprofen;Dexibuprofen;(+)-(<em>S</em>)-Ibuprofen;(+)-Ibuprophen;(<em>S</em>)-2-(4-Isobutylphenyl)propionic acid;(<em>S</em>)-2-(4-Isobutylphenyl)propanoic acid;(+)-(<em>S</em>)-<em>p</em>-Isobutylhydratropic acid;(<em>S</em>)-2-(<em>p</em>-Isobutylphenyl)propionic acid;(+)-α-Methyl-4-(2-methylpropyl)benzeneacetic acid;(<em>S</em>)-(+)-4-Isobutyl-α-methylphenylacetic acid;(<em>S</em>)-(+)-2-(4-Isobutylphenyl)propionic acid;Seractil;(<em>S</em>)-(+)-<em>p</em>-Isobutylhydratropic acid;Nyfen;Ultraprofen;<em>S</em>-Optifen",
    "duplicated_cas_no": "",
    "SMILES": "[C@H](C(O)=O)(C)C1=CC=C(CC(C)C)C=C1",
    "meta_data": {
        "InChI": "InChI=1S/C13H18O2/c1-9(2)8-11-4-6-12(7-5-11)10(3)13(14)15/h4-7,9-10H,8H2,1-3H3,(H,14,15)/t10-/m0/s1",
        "InChIKey": null,
        "Canonical SMILES": "O=C(O)C(C1=CC=C(C=C1)CC(C)C)C",
        "Molecular Formula": "C<sub>13</sub>H<sub>18</sub>O<sub>2</sub>",
        "Molecular Mass": "206.28",
        "Boiling Point": "110 °C @ Press: 0.1 Torr",
        "Melting Point": "54 °C"
    }
}