{
    "cas_no": "2466-09-3",
    "key_name": "Pyrophosphoric acid",
    "cn_name": "焦磷酸;",
    "alternate_name": "Diphosphoric acid;Pyrophosphoric acid;Diphosphoric acid (H<sub>4</sub>P<sub>2</sub>O<sub>7</sub>)",
    "duplicated_cas_no": "133883-41-7;1531584-96-9",
    "SMILES": "O(P(=O)(O)O)P(=O)(O)O",
    "meta_data": {
        "InChI": "InChI=1S/H4O7P2/c1-8(2,3)7-9(4,5)6/h(H2,1,2,3)(H2,4,5,6)",
        "InChIKey": null,
        "Canonical SMILES": "O=P(O)(O)OP(=O)(O)O",
        "Molecular Formula": "H<sub>4</sub>O<sub>7</sub>P<sub>2</sub>",
        "Molecular Mass": "177.98",
        "Melting Point": "61 °C"
    }
}