{
    "cas_no": "122-72-5",
    "key_name": "3-Phenylpropyl acetate",
    "cn_name": null,
    "alternate_name": "Benzenepropanol, 1-acetate;1-Propanol, 3-phenyl-, acetate;Benzenepropanol, acetate;Hydrocinnamyl acetate;3-Acetoxy-1-phenylpropane;γ-Phenylpropyl acetate;3-Phenylpropyl acetate;(3-Acetoxypropyl)benzene;1-Acetoxy-3-phenylpropane;3-Phenyl-1-propanol acetate;3-Phenyl-1-propyl acetate;Acetic acid 3-phenylpropyl ester;NSC 404453",
    "duplicated_cas_no": "1335-15-5;143601-14-3",
    "SMILES": "C(CCOC(C)=O)C1=CC=CC=C1",
    "meta_data": {
        "InChI": "InChI=1S/C11H14O2/c1-10(12)13-9-5-8-11-6-3-2-4-7-11/h2-4,6-7H,5,8-9H2,1H3",
        "InChIKey": null,
        "Canonical SMILES": "O=C(OCCCC=1C=CC=CC1)C",
        "Molecular Formula": "C<sub>11</sub>H<sub>14</sub>O<sub>2</sub>",
        "Molecular Mass": "178.23",
        "Boiling Point": "87 °C @ Press: 1 Torr",
        "Density": "1.0242 g/cm³ @ Temp: 27 °C"
    }
}