{
    "cas_no": "629-56-1",
    "key_name": "2-Hexadecenoic acid",
    "cn_name": null,
    "alternate_name": "2-Hexadecenoic acid;Hypogaeic acid;Gaidic acid",
    "duplicated_cas_no": "",
    "SMILES": "C(CCCCCCCCCC)CCC=CC(O)=O",
    "meta_data": {
        "InChI": "InChI=1S/C16H30O2/c1-2-3-4-5-6-7-8-9-10-11-12-13-14-15-16(17)18/h14-15H,2-13H2,1H3,(H,17,18)",
        "InChIKey": null,
        "Canonical SMILES": "O=C(O)C=CCCCCCCCCCCCCC",
        "Molecular Formula": "C<sub>16</sub>H<sub>30</sub>O<sub>2</sub>",
        "Molecular Mass": "254.41",
        "Melting Point": "49 °C"
    }
}