{
    "cas_no": "307-98-2",
    "key_name": "2,2,3,3,4,4,5,5,6,6,7,7,8,8,8-Pentadecafluorooctyl 2-propenoate",
    "cn_name": "1H,1H-全氟辛基丙烯酸酯;1H,1H-全氟辛基丙烯酸酯;1H,1H-全氟辛基丙烯酸酯, 97%, STAB. WITH 50PPM 4-METHOX;",
    "alternate_name": "2-Propenoic acid, 2,2,3,3,4,4,5,5,6,6,7,7,8,8,8-pentadecafluorooctyl ester;Acrylic acid, 2,2,3,3,4,4,5,5,6,6,7,7,8,8,8-pentadecafluorooctyl ester;1-Octanol, 2,2,3,3,4,4,5,5,6,6,7,7,8,8,8-pentadecafluoro-, acrylate;2,2,3,3,4,4,5,5,6,6,7,7,8,8,8-Pentadecafluorooctyl 2-propenoate;1,1-Dihydroperfluorooctyl acrylate;1<em>H</em>,1<em>H</em>-Pentadecafluorooctyl acrylate;1<em>H</em>,1<em>H</em>-Perfluorooctyl acrylate;2,2,3,3,4,4,5,5,6,6,7,7,8,8,8-Pentadecafluorooctyl prop-2-enoate",
    "duplicated_cas_no": "152210-09-8",
    "SMILES": "C(C(C(C(COC(C=C)=O)(F)F)(F)F)(F)F)(C(C(C(F)(F)F)(F)F)(F)F)(F)F",
    "meta_data": {
        "InChI": "InChI=1S/C11H5F15O2/c1-2-4(27)28-3-5(12,13)6(14,15)7(16,17)8(18,19)9(20,21)10(22,23)11(24,25)26/h2H,1,3H2",
        "InChIKey": null,
        "Canonical SMILES": "O=C(OCC(F)(F)C(F)(F)C(F)(F)C(F)(F)C(F)(F)C(F)(F)C(F)(F)F)C=C",
        "Molecular Formula": "C<sub>11</sub>H<sub>5</sub>F<sub>15</sub>O<sub>2</sub>",
        "Molecular Mass": "454.13",
        "Boiling Point": "188 °C @ Press: 740 Torr"
    }
}