{
    "cas_no": "2767-54-6",
    "key_name": "Triethyltin bromide",
    "cn_name": "三乙基溴化锡;",
    "alternate_name": "Stannane, bromotriethyl-;Triethyltin bromide;Tin, bromotriethyl-;Bromotriethylstannane;Triethylstannyl bromide;Bromotriethyltin",
    "duplicated_cas_no": "",
    "SMILES": "[Sn](CC)(CC)(CC)Br",
    "meta_data": {
        "InChI": "InChI=1S/3C2H5.BrH.Sn/c3*1-2;;/h3*1H2,2H3;1H;/q;;;;+1/p-1",
        "InChIKey": null,
        "Canonical SMILES": "Br[Sn](CC)(CC)CC",
        "Molecular Formula": "C<sub>6</sub>H<sub>15</sub>BrSn",
        "Molecular Mass": "285.80",
        "Boiling Point": "223 °C",
        "Melting Point": "-14 °C",
        "Density": "1.63 g/cm³"
    }
}