{
    "cas_no": "569-80-2",
    "key_name": "Penduletin",
    "cn_name": null,
    "alternate_name": "4<em>H</em>-1-Benzopyran-4-one, 5-hydroxy-2-(4-hydroxyphenyl)-3,6,7-trimethoxy-;Flavone, 4′,5-dihydroxy-3,6,7-trimethoxy-;Penduletin;5-Hydroxy-2-(4-hydroxyphenyl)-3,6,7-trimethoxy-4<em>H</em>-1-benzopyran-4-one;4′,5-Dihydroxy-3,6,7-trimethoxyflavone;5,4′-Dihydroxy-3,6,7-trimethoxyflavone;6-Hydroxykaempferol 3,6,7-trimethyl ether",
    "duplicated_cas_no": "98006-97-4",
    "SMILES": "O=C1C=2C(OC(=C1OC)C3=CC=C(O)C=C3)=CC(OC)=C(OC)C2O",
    "meta_data": {
        "InChI": "InChI=1S/C18H16O7/c1-22-12-8-11-13(14(20)17(12)23-2)15(21)18(24-3)16(25-11)9-4-6-10(19)7-5-9/h4-8,19-20H,1-3H3",
        "InChIKey": null,
        "Canonical SMILES": "O=C1C(OC)=C(OC2=CC(OC)=C(OC)C(O)=C12)C=3C=CC(O)=CC3",
        "Molecular Formula": "C<sub>18</sub>H<sub>16</sub>O<sub>7</sub>",
        "Molecular Mass": "344.32",
        "Melting Point": "216-217 °C"
    }
}