{
    "cas_no": "1405-97-6",
    "key_name": "Gramicidin",
    "cn_name": null,
    "alternate_name": "Gramicidin;Gramicidins;Gramoderm;MeSH ID: D006096",
    "duplicated_cas_no": "12687-70-6",
    "SMILES": "",
    "meta_data": {
        "InChI": "",
        "InChIKey": null,
        "Canonical SMILES": "",
        "Molecular Formula": "Unspecified",
        "Molecular Mass": "",
        "Melting Point": "228-230 °C"
    }
}