{
    "uri": "substance/pt/1405976",
    "rn": "1405-97-6",
    "name": "Gramicidin",
    "images": [],
    "inchi": "",
    "inchiKey": "",
    "smile": "",
    "canonicalSmile": "",
    "molecularFormula": "Unspecified",
    "molecularMass": "",
    "experimentalProperties": [
        {
            "name": "Melting Point",
            "property": "228-230 °C",
            "sourceNumber": 1
        }
    ],
    "propertyCitations": [
        {
            "docUri": "document/pt/document/22250272",
            "sourceNumber": 1,
            "source": "Hotchkiss, Rollin D.; Journal of Biological Chemistry, (1940), 132, 791-2, CAplus"
        }
    ],
    "synonyms": [
        "Gramicidin",
        "Gramicidins",
        "Gramoderm",
        "MeSH ID: D006096"
    ],
    "replacedRns": [
        "12687-70-6"
    ],
    "hasMolfile": false,
    "source": "https://commonchemistry.cas.org/detail?cas_rn=1405-97-6"
}