{
    "cas_no": "64282-12-8",
    "key_name": "Phenylalanine, 4-fluoro-, methyl ester, hydrochloride (1:1)",
    "cn_name": null,
    "alternate_name": "Phenylalanine, 4-fluoro-, methyl ester, hydrochloride (1:1);Phenylalanine, 4-fluoro-, methyl ester, hydrochloride;4-Fluorophenylalanine methyl ester hydrochloride;NSC 523088",
    "duplicated_cas_no": "24602-11-7",
    "SMILES": "C(C(C(OC)=O)N)C1=CC=C(F)C=C1.Cl",
    "meta_data": {
        "InChI": "InChI=1S/C10H12FNO2.ClH/c1-14-10(13)9(12)6-7-2-4-8(11)5-3-7;/h2-5,9H,6,12H2,1H3;1H",
        "InChIKey": null,
        "Canonical SMILES": "Cl.O=C(OC)C(N)CC1=CC=C(F)C=C1",
        "Molecular Formula": "C<sub>10</sub>H<sub>12</sub>FNO<sub>2</sub>.ClH",
        "Molecular Mass": "",
        "Melting Point": "176.5-178.5 °C"
    }
}