{
    "cas_no": "2899-60-7",
    "key_name": "Glycine, <em>N</em>-[(phenylmethoxy)carbonyl]-, 2,5-dioxo-1-pyrrolidinyl ester",
    "cn_name": "Z-glycineN-succinimidylester;",
    "alternate_name": "Glycine, <em>N</em>-[(phenylmethoxy)carbonyl]-, 2,5-dioxo-1-pyrrolidinyl ester;Succinimide, <em>N</em>-[(<em>N</em>-carboxyglycyl)oxy]-, benzyl ester;Carbamic acid, [2-[(2,5-dioxo-1-pyrrolidinyl)oxy]-2-oxoethyl]-, phenylmethyl ester;Glycine, <em>N</em>-carboxy-, <em>N</em>-benzyl ester, <em>O</em>-succinimido deriv.;Carbobenzoxyglycine <em>N</em>-hydroxysuccinimide ester;<em>N</em>-Carbobenzoxyglycine <em>N</em>-hydroxysuccinimide ester;<em>N</em>-(Benzyloxycarbonyl)glycine <em>N</em>-hydroxysuccinimide ester;2,5-Pyrrolidinedione, 1-[[[[(phenylmethoxy)carbonyl]amino]acetyl]oxy]-;<em>N</em>-(Benzyloxycarbonyl)glycine <em>N</em>-hydroxysuccinimidyl ester;<em>N</em>-Benzyloxycarbonyl-glycyl-<em>N</em>-hydroxysuccinimide ester;2,5-Dioxopyrrolidin-1-yl 2-[[(benzyloxy)carbonyl]amino]acetate;(2,5-Dioxopyrrolidin-1-yl) 2-(phenylmethoxycarbonylamino)acetate",
    "duplicated_cas_no": "923586-81-6",
    "SMILES": "O(C(CNC(OCC1=CC=CC=C1)=O)=O)N2C(=O)CCC2=O",
    "meta_data": {
        "InChI": "InChI=1S/C14H14N2O6/c17-11-6-7-12(18)16(11)22-13(19)8-15-14(20)21-9-10-4-2-1-3-5-10/h1-5H,6-9H2,(H,15,20)",
        "InChIKey": null,
        "Canonical SMILES": "O=C(OCC=1C=CC=CC1)NCC(=O)ON2C(=O)CCC2=O",
        "Molecular Formula": "C<sub>14</sub>H<sub>14</sub>N<sub>2</sub>O<sub>6</sub>",
        "Molecular Mass": "306.27",
        "Melting Point": "113-114 °C"
    }
}