{
    "cas_no": "25415-62-7",
    "key_name": "Amyl isovalerate",
    "cn_name": "3-甲基丁酸戊酯;",
    "alternate_name": "Butanoic acid, 3-methyl-, pentyl ester;Isovaleric acid, pentyl ester;Pentyl 3-methylbutyrate;Amyl isovalerate;1-Pentyl isovalerate;Pentyl 3-methylbutanoate;Amyl 3-methylbutanoate;Pentyl isovalerate;Pentyl isopentanoate;NSC 46107",
    "duplicated_cas_no": "",
    "SMILES": "O(C(CC(C)C)=O)CCCCC",
    "meta_data": {
        "InChI": "InChI=1S/C10H20O2/c1-4-5-6-7-12-10(11)8-9(2)3/h9H,4-8H2,1-3H3",
        "InChIKey": null,
        "Canonical SMILES": "O=C(OCCCCC)CC(C)C",
        "Molecular Formula": "C<sub>10</sub>H<sub>20</sub>O<sub>2</sub>",
        "Molecular Mass": "172.26",
        "Melting Point": "190-195 °C"
    }
}