{
    "cas_no": "103628-46-2",
    "key_name": "Sumatriptan",
    "cn_name": "舒马曲坦;3-[2-(二甲胺基)乙基]-N-甲基-1H-吲哚-5-甲基磺酰胺;",
    "alternate_name": "1<em>H</em>-Indole-5-methanesulfonamide, 3-[2-(dimethylamino)ethyl]-<em>N</em>-methyl-;3-[2-(Dimethylamino)ethyl]-<em>N</em>-methyl-1<em>H</em>-indole-5-methanesulfonamide;Sumatriptan;GR 43175X;GR 43175;Zelrix;3-[2-(Dimethylamino)ethyl]-<em>N</em>-methylindolyl-5-methanesulfonamide;Onzetra Xsail;Zecuity;1-[3-[2-(Dimethylamino)ethyl]-1<em>H</em>-indol-5-yl]-<em>N</em>-methylmethanesulfonamide;Alsuma;Sumavel DosePro;MeSH ID: D018170",
    "duplicated_cas_no": "",
    "SMILES": "C(CN(C)C)C=1C=2C(NC1)=CC=C(CS(NC)(=O)=O)C2",
    "meta_data": {
        "InChI": "InChI=1S/C14H21N3O2S/c1-15-20(18,19)10-11-4-5-14-13(8-11)12(9-16-14)6-7-17(2)3/h4-5,8-9,15-16H,6-7,10H2,1-3H3",
        "InChIKey": null,
        "Canonical SMILES": "O=S(=O)(NC)CC=1C=CC=2NC=C(C2C1)CCN(C)C",
        "Molecular Formula": "C<sub>14</sub>H<sub>21</sub>N<sub>3</sub>O<sub>2</sub>S",
        "Molecular Mass": "295.40",
        "Melting Point": "169-171 °C"
    }
}