{
    "cas_no": "11079-53-1",
    "key_name": "Hyperforin",
    "cn_name": null,
    "alternate_name": "Bicyclo[3.3.1]non-3-ene-2,9-dione, 4-hydroxy-6-methyl-1,3,7-tris(3-methyl-2-buten-1-yl)-5-(2-methyl-1-oxopropyl)-6-(4-methyl-3-penten-1-yl)-, (1<em>R</em>,5<em>S</em>,6<em>R</em>,7<em>S</em>)-;Bicyclo[3.3.1]non-3-ene-2,9-dione, 4-hydroxy-6-methyl-1,3,7-tris(3-methyl-2-butenyl)-5-(2-methyl-1-oxopropyl)-6-(4-methyl-3-pentenyl)-, [1<em>R</em>-(6-<em>endo</em>,7-<em>exo</em>)]-;Bicyclo[3.3.1]non-3-ene-2,9-dione, 4-hydroxy-6-methyl-1,3,7-tris(3-methyl-2-butenyl)-5-(2-methyl-1-oxopropyl)-6-(4-methyl-3-pentenyl)-, (1<em>R</em>,5<em>S</em>,6<em>R</em>,7<em>S</em>)-;(1<em>R</em>,5<em>S</em>,6<em>R</em>,7<em>S</em>)-4-Hydroxy-6-methyl-1,3,7-tris(3-methyl-2-buten-1-yl)-5-(2-methyl-1-oxopropyl)-6-(4-methyl-3-penten-1-yl)bicyclo[3.3.1]non-3-ene-2,9-dione;Hyperforin;Bicyclo[3.3.1]non-3-ene-2,9-dione, 4-hydroxy-6-methyl-1,3,7-tris(3-methyl-2-butenyl)-S-(2-methyl-1-oxopropyl)-6-(4-methyl-3-pentenyl)-, [1<em>R</em>-(1α,5α,6β,7α)]-;(+)-Hyperforin",
    "duplicated_cas_no": "12751-20-1;57688-78-5",
    "SMILES": "C(C(C)C)(=O)[C@@]12[C@@](CCC=C(C)C)(C)[C@@H](CC=C(C)C)C[C@@](CC=C(C)C)(C1=O)C(=O)C(CC=C(C)C)=C2O",
    "meta_data": {
        "InChI": "InChI=1S/C35H52O4/c1-22(2)13-12-19-33(11)27(16-14-23(3)4)21-34(20-18-25(7)8)30(37)28(17-15-24(5)6)31(38)35(33,32(34)39)29(36)26(9)10/h13-15,18,26-27,38H,12,16-17,19-21H2,1-11H3/t27-,33+,34+,35-/m0/s1",
        "InChIKey": null,
        "Canonical SMILES": "O=C1C(=C(O)C2(C(=O)C(C)C)C(=O)C1(CC=C(C)C)CC(CC=C(C)C)C2(C)CCC=C(C)C)CC=C(C)C",
        "Molecular Formula": "C<sub>35</sub>H<sub>52</sub>O<sub>4</sub>",
        "Molecular Mass": "536.78",
        "Melting Point": "79-80 °C"
    }
}