{
    "cas_no": "64-77-7",
    "key_name": "Tolbutamide",
    "cn_name": "甲苯磺丁脲;",
    "alternate_name": "Benzenesulfonamide, <em>N</em>-[(butylamino)carbonyl]-4-methyl-;Urea, 1-butyl-3-(<em>p</em>-tolylsulfonyl)-;<em>N</em>-[(Butylamino)carbonyl]-4-methylbenzenesulfonamide;D 860;Artosin;Butamide;1-Butyl-3-(<em>p</em>-methylphenylsulfonyl)urea;<em>N</em>-Butyl-<em>N</em>′-<em>p</em>-toluenesulfonylurea;1-Butyl-3-(<em>p</em>-tolylsulfonyl)urea;<em>N</em>-<em>n</em>-Butyl-<em>N</em>′-tosylurea;Diaben;Diabuton;Dolipol;Ipoglicone;Mobenol;Orabet;Oralin;Orinase;Rastinon;<em>N</em>-(Sulfonyl-<em>p</em>-methylbenzene)-<em>N</em>′-<em>n</em>-butylurea;Tolbutamide;Toluina;<em>N</em>-(<em>p</em>-Tolylsulfonyl)-<em>N</em>′-butylcarbamide;3-(<em>p</em>-Tolyl-4-sulfonyl)-1-butylurea;Diabetol;Butamid;<em>N</em>-(4-Methylphenylsulfonyl)-<em>N</em>′-butylurea;<em>N</em>-(4-Methylbenzenesulfonyl)-<em>N</em>′-butylurea;Tolbutamid;<em>N</em>-Butyl-<em>N</em>′-(<em>p</em>-tolylsulfonyl)urea;<em>N</em>-Butyl-<em>N</em>′-(4-methylphenylsulfonyl)urea;Aglicid;Arkozal;Artozin;Diabetamid;Orezan;Orinaz;Tolumid;Toluvan;Oterben;Tolbusal;Willbutamide;HLS 831;<em>N</em>-(<em>p</em>-Methylbenzenesulfonyl)-<em>N</em>′-butylurea;Tolumide;Pramidex;Diasulfon;Glyconon;U 2043;NSC 23813;NSC 87833;1-Butyl-3-(4-methylphenyl)sulfonylurea;3-Butyl-1-(4-methylbenzenesulfonyl)urea;MeSH ID: D014044",
    "duplicated_cas_no": "100735-34-0",
    "SMILES": "S(NC(NCCCC)=O)(=O)(=O)C1=CC=C(C)C=C1",
    "meta_data": {
        "InChI": "InChI=1S/C12H18N2O3S/c1-3-4-9-13-12(15)14-18(16,17)11-7-5-10(2)6-8-11/h5-8H,3-4,9H2,1-2H3,(H2,13,14,15)",
        "InChIKey": null,
        "Canonical SMILES": "O=C(NCCCC)NS(=O)(=O)C1=CC=C(C=C1)C",
        "Molecular Formula": "C<sub>12</sub>H<sub>18</sub>N<sub>2</sub>O<sub>3</sub>S",
        "Molecular Mass": "270.35",
        "Melting Point": "128.5-129.5 °C",
        "Density": "1.245 g/cm³ @ Temp: 25 °C"
    }
}