{
    "cas_no": "79-08-3",
    "key_name": "Bromoacetic acid",
    "cn_name": "溴乙酸;",
    "alternate_name": "Acetic acid, 2-bromo-;Acetic acid, bromo-;2-Bromoacetic acid;Bromoacetic acid;Bromoethanoic acid;Monobromoacetic acid;Bromoacetate ion;To NTu;α-Bromoacetic acid;Carboxymethyl bromide;NSC 141;2-Bromoethanoic acid;MBAA",
    "duplicated_cas_no": "418768-49-7;418768-50-0",
    "SMILES": "C(CBr)(O)=O",
    "meta_data": {
        "InChI": "InChI=1S/C2H3BrO2/c3-1-2(4)5/h1H2,(H,4,5)",
        "InChIKey": null,
        "Canonical SMILES": "O=C(O)CBr",
        "Molecular Formula": "C<sub>2</sub>H<sub>3</sub>BrO<sub>2</sub>",
        "Molecular Mass": "138.95",
        "Boiling Point": "208 °C",
        "Melting Point": "50 °C"
    }
}