{
    "cas_no": "1825-21-4",
    "key_name": "Pentachloroanisole",
    "cn_name": "五氯茴香硫醚标准品;",
    "alternate_name": "Benzene, 1,2,3,4,5-pentachloro-6-methoxy-;Anisole, 2,3,4,5,6-pentachloro-;Benzene, pentachloromethoxy-;1,2,3,4,5-Pentachloro-6-methoxybenzene;Methyl pentachlorophenate;Pentachloroanisole;Pentachloromethoxybenzene;2,3,4,5,6-Pentachloroanisole;Methyl pentachlorophenyl ether;Pentachlorophenyl methyl ether;PCP methyl ether;Pentachlorophenol methyl ether",
    "duplicated_cas_no": "121272-34-2",
    "SMILES": "O(C)C1=C(Cl)C(Cl)=C(Cl)C(Cl)=C1Cl",
    "meta_data": {
        "InChI": "InChI=1S/C7H3Cl5O/c1-13-7-5(11)3(9)2(8)4(10)6(7)12/h1H3",
        "InChIKey": null,
        "Canonical SMILES": "ClC=1C(Cl)=C(Cl)C(OC)=C(Cl)C1Cl",
        "Molecular Formula": "C<sub>7</sub>H<sub>3</sub>Cl<sub>5</sub>O",
        "Molecular Mass": "280.36",
        "Boiling Point": "309 °C @ Press: 760 Torr",
        "Melting Point": "108-110 °C"
    }
}