{
    "cas_no": "5104-49-4",
    "key_name": "Flurbiprofen",
    "cn_name": "氟比洛芬;(+)-2-(2-氟-4-联苯基)-丙酸;",
    "alternate_name": "[1,1′-Biphenyl]-4-acetic acid, 2-fluoro-α-methyl-;4-Biphenylacetic acid, 2-fluoro-α-methyl-;Hydratropic acid, 3-fluoro-4-phenyl-;2-Fluoro-α-methyl[1,1′-biphenyl]-4-acetic acid;3-Fluoro-4-phenylhydratropic acid;2-(2-Fluoro-4-biphenylyl)propionic acid;Flurbiprofen;FP 70;2-(2-Fluoro-4-biphenyl)propionic acid;Froben;FP-A;Ansaid;Flugalin;U 27182;2-(2-Fluoro-4-biphenylyl)propanoic acid;2-Fluoro-α-methyl-4-diphenylacetic acid;2-Fluoro-α-methyl-4-biphenylacetic acid;<em>dl</em>-2-(2-Fluoro-4-biphenylyl)propionic acid;(±)-Flurbiprofen;Racemic flurbiprofen;<em>dl</em>-Flurbiprofen;<em>rac</em>-Flurbiprofen;Stayban;Adfeed;Antadys;Cebutid;Zepolas;Flurofen;BTS 18322;2-(2-Fluoro-1,1′-biphenyl-4-yl)propanoic acid;Fluribiprofen;Fluroben;Synalgo;Flurbifen;2-(3-Fluoro-4-phenylphenyl)propanoic acid;MeSH ID: D005480",
    "duplicated_cas_no": "51543-38-5;79212-68-3",
    "SMILES": "FC1=C(C=CC(C(C(O)=O)C)=C1)C2=CC=CC=C2",
    "meta_data": {
        "InChI": "InChI=1S/C15H13FO2/c1-10(15(17)18)12-7-8-13(14(16)9-12)11-5-3-2-4-6-11/h2-10H,1H3,(H,17,18)",
        "InChIKey": null,
        "Canonical SMILES": "O=C(O)C(C=1C=CC(=C(F)C1)C=2C=CC=CC2)C",
        "Molecular Formula": "C<sub>15</sub>H<sub>13</sub>FO<sub>2</sub>",
        "Molecular Mass": "244.26",
        "Melting Point": "110-111 °C",
        "Density": "0.32 g/cm³"
    }
}