{
    "cas_no": "32886-97-8",
    "key_name": "Pivmecillinam",
    "cn_name": null,
    "alternate_name": "4-Thia-1-azabicyclo[3.2.0]heptane-2-carboxylic acid, 6-[[(hexahydro-1<em>H</em>-azepin-1-yl)methylene]amino]-3,3-dimethyl-7-oxo-, (2,2-dimethyl-1-oxopropoxy)methyl ester, (2<em>S</em>,5<em>R</em>,6<em>R</em>)-;4-Thia-1-azabicyclo[3.2.0]heptane-2-carboxylic acid, 6-[[(hexahydro-1<em>H</em>-azepin-1-yl)methylene]amino]-3,3-dimethyl-7-oxo-, hydroxymethyl ester pivalate (ester), (+)-;4-Thia-1-azabicyclo[3.2.0]heptane-2-carboxylic acid, 6-[[(hexahydro-1<em>H</em>-azepin-1-yl)methylene]amino]-3,3-dimethyl-7-oxo-, (2,2-dimethyl-1-oxopropoxy)methyl ester, [2<em>S</em>-(2α,5α,6β)]-;FL 1039;Pivmecillinam;Amdinocillin pivoxil;Pivamdinocillin",
    "duplicated_cas_no": "",
    "SMILES": "C(OCOC(C(C)(C)C)=O)(=O)[C@@H]1N2[C@@]([C@H](N=CN3CCCCCC3)C2=O)(SC1(C)C)[H]",
    "meta_data": {
        "InChI": "InChI=1S/C21H33N3O5S/c1-20(2,3)19(27)29-13-28-18(26)15-21(4,5)30-17-14(16(25)24(15)17)22-12-23-10-8-6-7-9-11-23/h12,14-15,17H,6-11,13H2,1-5H3/t14-,15+,17-/m1/s1",
        "InChIKey": null,
        "Canonical SMILES": "O=C(OCOC(=O)C(C)(C)C)C1N2C(=O)C(N=CN3CCCCCC3)C2SC1(C)C",
        "Molecular Formula": "C<sub>21</sub>H<sub>33</sub>N<sub>3</sub>O<sub>5</sub>S",
        "Molecular Mass": "439.57",
        "Melting Point": "119 °C"
    }
}