{
    "cas_no": "515-25-3",
    "key_name": "Betonicine",
    "cn_name": null,
    "alternate_name": "Pyrrolidinium, 2-carboxy-4-hydroxy-1,1-dimethyl-, inner salt, (2<em>S</em>,4<em>R</em>)-;Betonicine;Pyrrolidinium, 2-carboxy-4-hydroxy-1,1-dimethyl-, hydroxide, inner salt, (2<em>S</em>-<em>trans</em>)-;2-Carboxy-4-hydroxy-1,1-dimethylpyrrolidinium hydroxide, inner salt, <span class=\"text-smallcaps\">L</span>-<em>trans</em>-;Achilleine;Betonicin;Achillein;<em>trans</em>-4-Hydroxyproline betaine;Pyrrolidinium, 2-carboxy-4-hydroxy-1,1-dimethyl-, inner salt, (2<em>S</em>-<em>trans</em>)-",
    "duplicated_cas_no": "4476-22-6",
    "SMILES": "C([O-])(=O)[C@H]1[N+](C)(C)C[C@H](O)C1",
    "meta_data": {
        "InChI": "InChI=1S/C7H13NO3/c1-8(2)4-5(9)3-6(8)7(10)11/h5-6,9H,3-4H2,1-2H3/t5-,6+/m1/s1",
        "InChIKey": null,
        "Canonical SMILES": "O=C([O-])C1CC(O)C[N+]1(C)C",
        "Molecular Formula": "C<sub>7</sub>H<sub>13</sub>NO<sub>3</sub>",
        "Molecular Mass": "",
        "Melting Point": "243-244 °C (decomp)"
    }
}