{
    "cas_no": "107-74-4",
    "key_name": "3,7-Dimethyl-1,7-octanediol",
    "cn_name": "3,7-二甲基-1,7-辛二醇;羟基香茅醇;",
    "alternate_name": "1,7-Octanediol, 3,7-dimethyl-;3,7-Dimethyl-1,7-octanediol;Hydroxycitronellol;Citronellol, hydroxy-;2,6-Dimethyl-2,8-octanediol;3,7-Dimethyloctan-1,7-diol;NSC 406140;NSC 67886;Hydroxyciol",
    "duplicated_cas_no": "1321-91-1",
    "SMILES": "C(C(C)(C)O)CCC(CCO)C",
    "meta_data": {
        "InChI": "InChI=1S/C10H22O2/c1-9(6-8-11)5-4-7-10(2,3)12/h9,11-12H,4-8H2,1-3H3",
        "InChIKey": null,
        "Canonical SMILES": "OCCC(C)CCCC(O)(C)C",
        "Molecular Formula": "C<sub>10</sub>H<sub>22</sub>O<sub>2</sub>",
        "Molecular Mass": "174.28",
        "Boiling Point": "265 °C",
        "Density": "0.935 g/cm³ @ Temp: 20 °C"
    }
}