{
    "cas_no": "25526-93-6",
    "key_name": "3′-Fluorothymidine",
    "cn_name": "3\"-脱氧-3-氟胸苷;",
    "alternate_name": "Thymidine, 3′-deoxy-3′-fluoro-;3′-Deoxy-3′-fluorothymidine;1-(3′-Deoxy-3′-fluoro-β-<span class=\"text-smallcaps\">D</span>-pentofuranosyl)thymine;3′-Fluorodeoxythymidine;3′-Fluorothymidine;3′-Fluoro-3′-deoxythymidine;FLT (deoxy fluorothymidine);Alovudine;CL 184824;NSC 140025;MIV 310;3′-Fluoro-2′,3′-dideoxythymidine",
    "duplicated_cas_no": "25515-31-5",
    "SMILES": "O=C1N([C@@H]2O[C@H](CO)[C@@H](F)C2)C=C(C)C(=O)N1",
    "meta_data": {
        "InChI": "InChI=1S/C10H13FN2O4/c1-5-3-13(10(16)12-9(5)15)8-2-6(11)7(4-14)17-8/h3,6-8,14H,2,4H2,1H3,(H,12,15,16)/t6-,7+,8+/m0/s1",
        "InChIKey": null,
        "Canonical SMILES": "O=C1NC(=O)N(C=C1C)C2OC(CO)C(F)C2",
        "Molecular Formula": "C<sub>10</sub>H<sub>13</sub>FN<sub>2</sub>O<sub>4</sub>",
        "Molecular Mass": "244.22",
        "Melting Point": "176-178 °C"
    }
}