{
    "cas_no": "617-90-3",
    "key_name": "2-Furancarbonitrile",
    "cn_name": "2-氰基呋喃;2-呋喃甲腈;",
    "alternate_name": "2-Furancarbonitrile;2-Furonitrile;2-Cyanofuran;2-Furyl cyanide;α-Furyl cyanide;2-Furylcarbonitrile;2-Furfuryl cyanide;NSC 35567",
    "duplicated_cas_no": "",
    "SMILES": "C(#N)C1=CC=CO1",
    "meta_data": {
        "InChI": "InChI=1S/C5H3NO/c6-4-5-2-1-3-7-5/h1-3H",
        "InChIKey": null,
        "Canonical SMILES": "N#CC=1OC=CC1",
        "Molecular Formula": "C<sub>5</sub>H<sub>3</sub>NO",
        "Molecular Mass": "93.08",
        "Boiling Point": "147 °C",
        "Melting Point": "147 °C",
        "Density": "1.04627 g/cm³ @ Temp: 20 °C"
    }
}