{
    "cas_no": "5368-81-0",
    "key_name": "Benzoic acid, 3-methoxy-, methyl ester",
    "cn_name": "3-甲氧基苯甲酸甲酯;",
    "alternate_name": "Benzoic acid, 3-methoxy-, methyl ester;<em>m</em>-Anisic acid, methyl ester;Benzoic acid, <em>m</em>-methoxy-, methyl ester;Methyl <em>m</em>-methoxybenzoate;Methyl 3-methoxybenzoate;<em>m</em>-Methoxybenzoic acid methyl ester;Methyl <em>m</em>-anisate;3-Methoxybenzoic acid methyl ester;NSC 100922",
    "duplicated_cas_no": "",
    "SMILES": "C(OC)(=O)C1=CC(OC)=CC=C1",
    "meta_data": {
        "InChI": "InChI=1S/C9H10O3/c1-11-8-5-3-4-7(6-8)9(10)12-2/h3-6H,1-2H3",
        "InChIKey": null,
        "Canonical SMILES": "O=C(OC)C=1C=CC=C(OC)C1",
        "Molecular Formula": "C<sub>9</sub>H<sub>10</sub>O<sub>3</sub>",
        "Molecular Mass": "166.17",
        "Boiling Point": "248 °C",
        "Melting Point": "45-46 °C"
    }
}