{
    "cas_no": "1335-46-2",
    "key_name": "Methylionone",
    "cn_name": null,
    "alternate_name": "Ionone, methyl-;Methylionone;6-Methylionone;Methylionone 70",
    "duplicated_cas_no": "",
    "SMILES": "",
    "meta_data": {
        "InChI": "",
        "InChIKey": null,
        "Canonical SMILES": "",
        "Molecular Formula": "C<sub>14</sub>H<sub>22</sub>O",
        "Molecular Mass": "",
        "Boiling Point": "125-128 °C @ Press: 8 Torr"
    }
}