{
    "uri": "substance/pt/1335462",
    "rn": "1335-46-2",
    "name": "Methylionone",
    "images": [],
    "inchi": "",
    "inchiKey": "",
    "smile": "",
    "canonicalSmile": "",
    "molecularFormula": "C<sub>14</sub>H<sub>22</sub>O",
    "molecularMass": "",
    "experimentalProperties": [
        {
            "name": "Boiling Point",
            "property": "125-128 °C @ Press: 8 Torr",
            "sourceNumber": 1
        }
    ],
    "propertyCitations": [
        {
            "docUri": "document/pt/document/17856550",
            "sourceNumber": 1,
            "source": "Yamashita, Masataro; Nippon Kagaku Kaishi (1921-47), (1942), 63, 1335-7, CAplus"
        }
    ],
    "synonyms": [
        "Ionone, methyl-",
        "Methylionone",
        "6-Methylionone",
        "Methylionone 70"
    ],
    "replacedRns": [],
    "hasMolfile": false,
    "source": "https://commonchemistry.cas.org/detail?cas_rn=1335-46-2"
}