{
    "cas_no": "630-20-6",
    "key_name": "1,1,1,2-Tetrachloroethane",
    "cn_name": "1,1,1,2-四氯乙烷;偏四氯乙烷;",
    "alternate_name": "Ethane, 1,1,1,2-tetrachloro-;1,1,1,2-Tetrachloroethane;(Chloromethyl)trichloromethane;TCA;F 130a;HCC 130a;Tetrachloroethane",
    "duplicated_cas_no": "",
    "SMILES": "C(CCl)(Cl)(Cl)Cl",
    "meta_data": {
        "InChI": "InChI=1S/C2H2Cl4/c3-1-2(4,5)6/h1H2",
        "InChIKey": null,
        "Canonical SMILES": "ClCC(Cl)(Cl)Cl",
        "Molecular Formula": "C<sub>2</sub>H<sub>2</sub>Cl<sub>4</sub>",
        "Molecular Mass": "167.85",
        "Boiling Point": "130.5 °C @ Press: 760 Torr",
        "Melting Point": "-70.2 °C",
        "Density": "1.5406 g/cm³ @ Temp: 20 °C"
    }
}