{
    "cas_no": "2480-23-1",
    "key_name": "<em>N</em>-Methyl-<span class=\"text-smallcaps\">L</span>-valine",
    "cn_name": "N-α-甲基-L-缬氨酸;",
    "alternate_name": "<span class=\"text-smallcaps\">L</span>-Valine, <em>N</em>-methyl-;Valine, <em>N</em>-methyl-, <span class=\"text-smallcaps\">L</span>-;<em>N</em>-Methyl-<span class=\"text-smallcaps\">L</span>-valine;NSC 89800;(<em>S</em>)-3-Methyl-2-(methylamino)butyric acid;(2S)-3-Methyl-2-(methylamino)butanoic acid;(2<em>S</em>)-3-Methyl-2-(methylamino)butanoic acid",
    "duplicated_cas_no": "52657-63-3",
    "SMILES": "[C@H](C(C)C)(C(O)=O)NC",
    "meta_data": {
        "InChI": "InChI=1S/C6H13NO2/c1-4(2)5(7-3)6(8)9/h4-5,7H,1-3H3,(H,8,9)/t5-/m0/s1",
        "InChIKey": null,
        "Canonical SMILES": "O=C(O)C(NC)C(C)C",
        "Molecular Formula": "C<sub>6</sub>H<sub>13</sub>NO<sub>2</sub>",
        "Molecular Mass": "131.17",
        "Melting Point": "290 °C"
    }
}