{
    "cas_no": "778-25-6",
    "key_name": "Methyldiphenylsilanol",
    "cn_name": null,
    "alternate_name": "Silanol, 1-methyl-1,1-diphenyl-;Silanol, methyldiphenyl-;1-Methyl-1,1-diphenylsilanol;Diphenyl(hydroxy)methylsilane;Diphenylmethylsilanol;Methyldiphenylsilanol;Methyldiphenylhydroxysilane;Diphenylmethylhydroxysilane",
    "duplicated_cas_no": "",
    "SMILES": "[Si](C)(O)(C1=CC=CC=C1)C2=CC=CC=C2",
    "meta_data": {
        "InChI": "InChI=1S/C13H14OSi/c1-15(14,12-8-4-2-5-9-12)13-10-6-3-7-11-13/h2-11,14H,1H3",
        "InChIKey": null,
        "Canonical SMILES": "O[Si](C=1C=CC=CC1)(C=2C=CC=CC2)C",
        "Molecular Formula": "C<sub>13</sub>H<sub>14</sub>OSi",
        "Molecular Mass": "214.34",
        "Boiling Point": "184-187 °C @ Press: 24 Torr",
        "Melting Point": "167 °C",
        "Density": "1.084 g/cm³ @ Temp: 25 °C"
    }
}