{
    "cas_no": "846-50-4",
    "key_name": "Temazepam",
    "cn_name": "替马西泮;替马西泮;",
    "alternate_name": "2<em>H</em>-1,4-Benzodiazepin-2-one, 7-chloro-1,3-dihydro-3-hydroxy-1-methyl-5-phenyl-;7-Chloro-1,3-dihydro-3-hydroxy-1-methyl-5-phenyl-2<em>H</em>-1,4-benzodiazepin-2-one;3-Hydroxydiazepam;<em>N</em>-Methyloxazepam;Ro 5-5345;Temazepam;7-Chloro-1,3-dihydro-1-methyl-3-hydroxy-5-phenyl-2<em>H</em>-1,4-benzodiazepin-2-one;Methyloxazepam;7-Chloro-3-hydroxy-1-methyl-2-oxo-5-phenyl-3<em>H</em>-1,4-benzodiazepine;ER 115;Oxydiazepam;1-Methyl-3-hydroxy-5-phenyl-7-chloro-1,3-dihydro-2<em>H</em>-1,4-benzodiazepin-2-one;Crisonar;Levanxene;Levanxol;Wy 3917;K 3917;Restoril;Normison;Tenox;Tenox (pharmaceutical);Euhypnos;Signopam;7-Chloro-1,3-dihydro-5-phenyl-3-hydroxy-1-methyl-2<em>H</em>-1,4-benzodiazepin-2-one;(±)-Temazepam;(<em>RS</em>)-Temazepam;Racemic temazepam;Planum;Euipnos;Ro 5-5354;Gelthix;Remestan;Perdorm;NSC 246303;MeSH ID: D013693",
    "duplicated_cas_no": "49620-97-5",
    "SMILES": "CN1C=2C(C(=NC(O)C1=O)C3=CC=CC=C3)=CC(Cl)=CC2",
    "meta_data": {
        "InChI": "InChI=1S/C16H13ClN2O2/c1-19-13-8-7-11(17)9-12(13)14(18-15(20)16(19)21)10-5-3-2-4-6-10/h2-9,15,20H,1H3",
        "InChIKey": null,
        "Canonical SMILES": "O=C1N(C=2C=CC(Cl)=CC2C(=NC1O)C=3C=CC=CC3)C",
        "Molecular Formula": "C<sub>16</sub>H<sub>13</sub>ClN<sub>2</sub>O<sub>2</sub>",
        "Molecular Mass": "300.74",
        "Melting Point": "119-121 °C"
    }
}