{
    "cas_no": "6170-42-9",
    "key_name": "Chloropyramine hydrochloride",
    "cn_name": "盐酸氯吡胺;N-(4-氯苄基)-N\",N\"-二甲基-N-2-吡啶基-1,2-乙二胺盐酸盐;",
    "alternate_name": "1,2-Ethanediamine, <em>N</em><sup>1</sup>-[(4-chlorophenyl)methyl]-<em>N</em><sup>2</sup>,<em>N</em><sup>2</sup>-dimethyl-<em>N</em><sup>1</sup>-2-pyridinyl-, hydrochloride (1:1);Pyridine, 2-[(<em>p</em>-chlorobenzyl)[2-(dimethylamino)ethyl]amino]-, monohydrochloride;1,2-Ethanediamine, <em>N</em>-[(4-chlorophenyl)methyl]-<em>N</em>′,<em>N</em>′-dimethyl-<em>N</em>-2-pyridinyl-, monohydrochloride;Chloropyribenzamine hydrochloride;Halopyramine hydrochloride;Chloropyramine hydrochloride;Chlorpyramine hydrochloride;<em>N</em>-(β-Dimethylaminoethyl)-<em>N</em>-(<em>p</em>-chlorobenzyl)-α-aminopyridine hydrochloride;Alergosan;Suprastin hydrochloride;Allergan S hydrochloride;Sinopen hydrochloride;NSC 409949;CFAK-C 4",
    "duplicated_cas_no": "",
    "SMILES": "N(CC1=CC=C(Cl)C=C1)(CCN(C)C)C2=CC=CC=N2.Cl",
    "meta_data": {
        "InChI": "InChI=1S/C16H20ClN3.ClH/c1-19(2)11-12-20(16-5-3-4-10-18-16)13-14-6-8-15(17)9-7-14;/h3-10H,11-13H2,1-2H3;1H",
        "InChIKey": null,
        "Canonical SMILES": "Cl.ClC1=CC=C(C=C1)CN(C2=NC=CC=C2)CCN(C)C",
        "Molecular Formula": "C<sub>16</sub>H<sub>20</sub>ClN<sub>3</sub>.ClH",
        "Molecular Mass": "",
        "Melting Point": "172-174 °C"
    }
}