{
    "cas_no": "4651-94-9",
    "key_name": "2-Amino-3-cyano-4,5-dimethylthiophene",
    "cn_name": "2-氨基-3-氰基-5-甲氧甲酰基噻吩;",
    "alternate_name": "3-Thiophenecarbonitrile, 2-amino-4,5-dimethyl-;2-Amino-4,5-dimethyl-3-thiophenecarbonitrile;2-Amino-3-cyano-4,5-dimethylthiophene;NSC 153327;2,3-Dimethyl-4-cyano-5-aminothiophene",
    "duplicated_cas_no": "",
    "SMILES": "C(#N)C=1C(C)=C(C)SC1N",
    "meta_data": {
        "InChI": "InChI=1S/C7H8N2S/c1-4-5(2)10-7(9)6(4)3-8/h9H2,1-2H3",
        "InChIKey": null,
        "Canonical SMILES": "N#CC1=C(SC(=C1C)C)N",
        "Molecular Formula": "C<sub>7</sub>H<sub>8</sub>N<sub>2</sub>S",
        "Molecular Mass": "152.22",
        "Melting Point": "141-142 °C"
    }
}