{
    "cas_no": "2432-14-6",
    "key_name": "2,6-Dibromo-4-methylphenol",
    "cn_name": "2,6-二溴-4-甲基苯酚;",
    "alternate_name": "Phenol, 2,6-dibromo-4-methyl-;<em>p</em>-Cresol, 2,6-dibromo-;2,6-Dibromo-4-methylphenol;2,6-Dibromo-<em>p</em>-cresol;Dibromocresol;2,6-Dibromo-4-cresol;NSC 76596",
    "duplicated_cas_no": "",
    "SMILES": "OC1=C(Br)C=C(C)C=C1Br",
    "meta_data": {
        "InChI": "InChI=1S/C7H6Br2O/c1-4-2-5(8)7(10)6(9)3-4/h2-3,10H,1H3",
        "InChIKey": null,
        "Canonical SMILES": "BrC=1C=C(C=C(Br)C1O)C",
        "Molecular Formula": "C<sub>7</sub>H<sub>6</sub>Br<sub>2</sub>O",
        "Molecular Mass": "265.93",
        "Boiling Point": "280-286 °C @ Press: 97 Torr",
        "Melting Point": "49-51 °C"
    }
}