{
    "cas_no": "536-74-3",
    "key_name": "Phenylacetylene",
    "cn_name": "苯乙炔;",
    "alternate_name": "Benzene, ethynyl-;Ethynylbenzene;Phenylacetylene;Phenylethyne;Ethyne, phenyl-;1-Phenylethyne;NSC 4957;1-Ethynylbenzene",
    "duplicated_cas_no": "1401716-44-6",
    "SMILES": "C(#C)C1=CC=CC=C1",
    "meta_data": {
        "InChI": "InChI=1S/C8H6/c1-2-8-6-4-3-5-7-8/h1,3-7H",
        "InChIKey": null,
        "Canonical SMILES": "C#CC=1C=CC=CC1",
        "Molecular Formula": "C<sub>8</sub>H<sub>6</sub>",
        "Molecular Mass": "102.13",
        "Boiling Point": "143 °C",
        "Melting Point": "-44.8 °C",
        "Density": "0.9303 g/cm³ @ Temp: 20 °C"
    }
}