{
    "cas_no": "328-90-5",
    "key_name": "2-Hydroxy-4-(trifluoromethyl)benzoic acid",
    "cn_name": "4-三氟甲基水杨酸;对三氟甲基水杨酸;2-羟基-4-三氟甲基苯甲酸;",
    "alternate_name": "Benzoic acid, 2-hydroxy-4-(trifluoromethyl)-;2,4-Cresotic acid, α,α,α-trifluoro-;2-Hydroxy-4-(trifluoromethyl)benzoic acid;4-(Trifluoromethyl)salicylic acid;4-Trifluoromethyl-2-hydroxybenzoic acid;<em>p</em>-(Trifluoromethyl)salicylic acid",
    "duplicated_cas_no": "",
    "SMILES": "C(F)(F)(F)C1=CC(O)=C(C(O)=O)C=C1",
    "meta_data": {
        "InChI": "InChI=1S/C8H5F3O3/c9-8(10,11)4-1-2-5(7(13)14)6(12)3-4/h1-3,12H,(H,13,14)",
        "InChIKey": null,
        "Canonical SMILES": "O=C(O)C1=CC=C(C=C1O)C(F)(F)F",
        "Molecular Formula": "C<sub>8</sub>H<sub>5</sub>F<sub>3</sub>O<sub>3</sub>",
        "Molecular Mass": "206.12",
        "Melting Point": "178 °C"
    }
}