{
    "cas_no": "15852-73-0",
    "key_name": "3-Bromobenzenemethanol",
    "cn_name": "3-溴苯甲醇;间溴苯甲醇;",
    "alternate_name": "Benzenemethanol, 3-bromo-;Benzyl alcohol, <em>m</em>-bromo-;3-Bromobenzenemethanol;3-Bromobenzyl alcohol;<em>m</em>-Bromobenzyl alcohol;3-Bromophenylmethanol",
    "duplicated_cas_no": "185532-90-5",
    "SMILES": "C(O)C1=CC(Br)=CC=C1",
    "meta_data": {
        "InChI": "InChI=1S/C7H7BrO/c8-7-3-1-2-6(4-7)5-9/h1-4,9H,5H2",
        "InChIKey": null,
        "Canonical SMILES": "BrC1=CC=CC(=C1)CO",
        "Molecular Formula": "C<sub>7</sub>H<sub>7</sub>BrO",
        "Molecular Mass": "187.03",
        "Boiling Point": "255-257 °C @ Press: 738 Torr",
        "Melting Point": "163 °C"
    }
}