{
    "cas_no": "1709-53-1",
    "key_name": "4-Amino-<em>N</em>-ethylbenzenesulfonamide",
    "cn_name": null,
    "alternate_name": "Benzenesulfonamide, 4-amino-<em>N</em>-ethyl-;Sulfanilamide, <em>N</em><sup>1</sup>-ethyl-;4-Amino-<em>N</em>-ethylbenzenesulfonamide;<em>N</em><sup>1</sup>-Ethylsulfanilamide",
    "duplicated_cas_no": "",
    "SMILES": "S(NCC)(=O)(=O)C1=CC=C(N)C=C1",
    "meta_data": {
        "InChI": "InChI=1S/C8H12N2O2S/c1-2-10-13(11,12)8-5-3-7(9)4-6-8/h3-6,10H,2,9H2,1H3",
        "InChIKey": null,
        "Canonical SMILES": "O=S(=O)(NCC)C1=CC=C(N)C=C1",
        "Molecular Formula": "C<sub>8</sub>H<sub>12</sub>N<sub>2</sub>O<sub>2</sub>S",
        "Molecular Mass": "200.26",
        "Melting Point": "106 °C"
    }
}