{
    "cas_no": "462-72-6",
    "key_name": "1-Bromo-4-fluorobutane",
    "cn_name": "1-溴-4-氟丁烷;",
    "alternate_name": "Butane, 1-bromo-4-fluoro-;1-Bromo-4-fluorobutane;4-Bromo-1-fluorobutane",
    "duplicated_cas_no": "",
    "SMILES": "C(CCF)CBr",
    "meta_data": {
        "InChI": "InChI=1S/C4H8BrF/c5-3-1-2-4-6/h1-4H2",
        "InChIKey": null,
        "Canonical SMILES": "FCCCCBr",
        "Molecular Formula": "C<sub>4</sub>H<sub>8</sub>BrF",
        "Molecular Mass": "155.01",
        "Boiling Point": "135 °C",
        "Density": "1.4298 g/cm³ @ Temp: 35 °C"
    }
}