{
    "cas_no": "243-28-7",
    "key_name": "5<em>H</em>-Benzo[<em>b</em>]carbazole",
    "cn_name": null,
    "alternate_name": "5<em>H</em>-Benzo[<em>b</em>]carbazole;2,3-Benzocarbazole;2,3-Benzcarbazole;NSC 59788;Benzofuro[3,2-<em>b</em>]carbazole",
    "duplicated_cas_no": "29255-56-9",
    "SMILES": "C1=2C=3C(NC1=CC=4C(C2)=CC=CC4)=CC=CC3",
    "meta_data": {
        "InChI": "InChI=1S/C16H11N/c1-2-6-12-10-16-14(9-11(12)5-1)13-7-3-4-8-15(13)17-16/h1-10,17H",
        "InChIKey": null,
        "Canonical SMILES": "C=1C=CC=2C=C3C(=CC2C1)NC=4C=CC=CC43",
        "Molecular Formula": "C<sub>16</sub>H<sub>11</sub>N",
        "Molecular Mass": "217.27",
        "Melting Point": "330-331 °C"
    }
}