{
    "cas_no": "51-12-7",
    "key_name": "Nialamide",
    "cn_name": "尼亚酰胺;烟肼酰胺;尼亚拉胺;",
    "alternate_name": "4-Pyridinecarboxylic acid, 2-[3-oxo-3-[(phenylmethyl)amino]propyl]hydrazide;Isonicotinic acid, 2-[2-(benzylcarbamoyl)ethyl]hydrazide;1-[2-(Benzylcarbamoyl)ethyl]-2-isonicotinoylhydrazine;<em>N</em><sub>1</sub>-Beta-Benzylcarbamoyl-ethyl-<em>N</em><sub>2</sub>-isonicotinoyl-hydrazine;Nialamide;Niamid;Niamidal;Niamide;Nuredal;Nialamid;Novazid;Niazin;Espril;Niaquitil;Nyezin;NSC 124514;MeSH ID: D009526",
    "duplicated_cas_no": "",
    "SMILES": "C(NNCCC(NCC1=CC=CC=C1)=O)(=O)C=2C=CN=CC2",
    "meta_data": {
        "InChI": "InChI=1S/C16H18N4O2/c21-15(18-12-13-4-2-1-3-5-13)8-11-19-20-16(22)14-6-9-17-10-7-14/h1-7,9-10,19H,8,11-12H2,(H,18,21)(H,20,22)",
        "InChIKey": null,
        "Canonical SMILES": "O=C(NNCCC(=O)NCC=1C=CC=CC1)C=2C=CN=CC2",
        "Molecular Formula": "C<sub>16</sub>H<sub>18</sub>N<sub>4</sub>O<sub>2</sub>",
        "Molecular Mass": "298.34",
        "Melting Point": "151.6 °C"
    }
}