{
    "cas_no": "79-43-6",
    "key_name": "Dichloroacetic acid",
    "cn_name": "二氯乙酸;二氯醋酸;",
    "alternate_name": "Acetic acid, 2,2-dichloro-;Acetic acid, dichloro-;2,2-Dichloroacetic acid;Dichloracetic acid;Dichlorethanoic acid;Dichloroacetic acid;DKhUK;DCA;Dichloroethanoic acid;DCA (acid);NSC 2654;DCAA;MeSH ID: D003999",
    "duplicated_cas_no": "42428-47-7",
    "SMILES": "C(C(O)=O)(Cl)Cl",
    "meta_data": {
        "InChI": "InChI=1S/C2H2Cl2O2/c3-1(4)2(5)6/h1H,(H,5,6)",
        "InChIKey": null,
        "Canonical SMILES": "O=C(O)C(Cl)Cl",
        "Molecular Formula": "C<sub>2</sub>H<sub>2</sub>Cl<sub>2</sub>O<sub>2</sub>",
        "Molecular Mass": "128.94",
        "Boiling Point": "193-194 °C",
        "Melting Point": "13.5 °C",
        "Density": "1.563 g/cm³ @ Temp: 20 °C"
    }
}