{
    "cas_no": "42882-31-5",
    "key_name": "1-(1-Naphthyl)ethylamine",
    "cn_name": null,
    "alternate_name": "1-Naphthalenemethanamine, α-methyl-;1-Naphthalenemethanamine, α-methyl-, (±)-;α-Methyl-1-naphthalenemethanamine;<em>dl</em>-α-(1-Naphthyl)ethylamine;(±)-1-(1-Naphthyl)ethylamine;(±)-1-(α-Naphthyl)ethylamine;(<em>RS</em>)-1-(1-Naphthyl)ethylamine;(<em>RS</em>)-1-(α-Naphthyl)ethylamine;α-Methyl-1-naphthalenemethylamine;1-(α-Naphthyl)ethylamine;1-(1-Naphthyl)ethylamine;1-Amino-1-(1-naphthyl)ethane;(1-(Naphthalen-1-yl)ethyl)amine;NSC 180601;NSC 75881;(±)-α-(1-Naphthyl)ethylamine;1-(Naphthalen-1-yl)ethanamine;1-Naphthylethylamine;1-(Naphthalen-1-yl)ethan-1-amine",
    "duplicated_cas_no": "3309-13-5",
    "SMILES": "C(C)(N)C=1C2=C(C=CC1)C=CC=C2",
    "meta_data": {
        "InChI": "InChI=1S/C12H13N/c1-9(13)11-8-4-6-10-5-2-3-7-12(10)11/h2-9H,13H2,1H3",
        "InChIKey": null,
        "Canonical SMILES": "NC(C1=CC=CC=2C=CC=CC21)C",
        "Molecular Formula": "C<sub>12</sub>H<sub>13</sub>N",
        "Molecular Mass": "171.24",
        "Boiling Point": "153 °C",
        "Density": "1.063 g/cm³ @ Temp: 19 °C"
    }
}