{
    "cas_no": "5232-99-5",
    "key_name": "Ethyl 2-cyano-3,3-diphenylacrylate",
    "cn_name": "依托立林;2-氰基-3,3-二苯基丙烯酸乙酯;",
    "alternate_name": "2-Propenoic acid, 2-cyano-3,3-diphenyl-, ethyl ester;Acrylic acid, 2-cyano-3,3-diphenyl-, ethyl ester;Ethyl 2-cyano-3,3-diphenylacrylate;Uvinul N 35;Ethyl α-cyano-β,β-diphenylacrylate;CE 2;UV Absorber 2;Etocrylene;Ethyl α-cyano-β-phenylcinnamate;CE 2 (ultraviolet absorber);Ethyl 2-cyano-3,3-diphenyl-2-propenoate;Etocrilene;Viosorb 910;2-Cyano-3-phenylcinnamic acid ethyl ester;Uvinul 3035;Seesorb 501;Ethyl 2-cyano-3,3-diphenylpropenoate;NSC 52678;2-Cyano-3,3-diphenyl-2-propenoic acid ethyl ester;N 35;UV 335;UV 3035",
    "duplicated_cas_no": "137902-95-5;1947317-26-1",
    "SMILES": "C(=C(C(OCC)=O)C#N)(C1=CC=CC=C1)C2=CC=CC=C2",
    "meta_data": {
        "InChI": "InChI=1S/C18H15NO2/c1-2-21-18(20)16(13-19)17(14-9-5-3-6-10-14)15-11-7-4-8-12-15/h3-12H,2H2,1H3",
        "InChIKey": null,
        "Canonical SMILES": "N#CC(C(=O)OCC)=C(C=1C=CC=CC1)C=2C=CC=CC2",
        "Molecular Formula": "C<sub>18</sub>H<sub>15</sub>NO<sub>2</sub>",
        "Molecular Mass": "277.32",
        "Boiling Point": "175-182 °C @ Press: 1 Torr",
        "Melting Point": "95-97 °C"
    }
}