{
    "cas_no": "382-21-8",
    "key_name": "1,1,3,3,3-Pentafluoro-2-(trifluoromethyl)-1-propene",
    "cn_name": "全氟异丁烯;八氟异丁烯;",
    "alternate_name": "1-Propene, 1,1,3,3,3-pentafluoro-2-(trifluoromethyl)-;Propene, pentafluoro-2-(trifluoromethyl)-;1,1,3,3,3-Pentafluoro-2-(trifluoromethyl)-1-propene;Perfluoroisobutylene;Octafluoroisobutene;Octafluoroisobutylene;Perfluoroisobutene;1,1,3,3,3-Pentafluoro-2-(trifluoromethyl)propene;Perfluoro-2-methylpropene;1,1-Difluoro-2,2-bis(trifluoromethyl)ethene;Perfluoro-2-(trifluoromethyl)propene;PFIB",
    "duplicated_cas_no": "",
    "SMILES": "C(C(F)(F)F)(C(F)(F)F)=C(F)F",
    "meta_data": {
        "InChI": "InChI=1S/C4F8/c5-2(6)1(3(7,8)9)4(10,11)12",
        "InChIKey": null,
        "Canonical SMILES": "FC(F)=C(C(F)(F)F)C(F)(F)F",
        "Molecular Formula": "C<sub>4</sub>F<sub>8</sub>",
        "Molecular Mass": "200.03",
        "Boiling Point": "7 °C",
        "Density": "1.5922 g/cm³ @ Temp: 0 °C"
    }
}