{
    "cas_no": "75-74-1",
    "key_name": "Tetramethyllead",
    "cn_name": "四甲基铅;四甲铅;",
    "alternate_name": "Plumbane, tetramethyl-;Lead, tetramethyl-;Tetramethylplumbane;Tetramethyllead",
    "duplicated_cas_no": "",
    "SMILES": "[Pb](C)(C)(C)C",
    "meta_data": {
        "InChI": "InChI=1S/4CH3.Pb/h4*1H3;",
        "InChIKey": null,
        "Canonical SMILES": "C[Pb](C)(C)C",
        "Molecular Formula": "C<sub>4</sub>H<sub>12</sub>Pb",
        "Molecular Mass": "267.34",
        "Boiling Point": "110 °C @ Press: 10 Torr",
        "Melting Point": "-27.5 °C",
        "Density": "199.5 g/cm³"
    }
}