{
    "cas_no": "113081-50-8",
    "key_name": "4-Bromo-3-methoxybenzeneacetonitrile",
    "cn_name": null,
    "alternate_name": "Benzeneacetonitrile, 4-bromo-3-methoxy-;4-Bromo-3-methoxybenzeneacetonitrile;4-Bromo-3-methoxyphenylacetonitrile;2-(4-Bromo-3-methoxyphenyl)acetonitrile",
    "duplicated_cas_no": "",
    "SMILES": "O(C)C1=CC(CC#N)=CC=C1Br",
    "meta_data": {
        "InChI": "InChI=1S/C9H8BrNO/c1-12-9-6-7(4-5-11)2-3-8(9)10/h2-3,6H,4H2,1H3",
        "InChIKey": null,
        "Canonical SMILES": "N#CCC1=CC=C(Br)C(OC)=C1",
        "Molecular Formula": "C<sub>9</sub>H<sub>8</sub>BrNO",
        "Molecular Mass": "226.07",
        "Melting Point": "52-53 °C"
    }
}