{
    "cas_no": "1498-42-6",
    "key_name": "Phosphorodichloridous acid, ethyl ester",
    "cn_name": "乙基二氯磷酸酯;",
    "alternate_name": "Phosphorodichloridous acid, ethyl ester;Ethyl phosphorodichloridite;Dichloroethoxyphosphine;Ethyl dichlorophosphinite;Ethyl dichlorophosphite;Dichloroethylphosphite;Ethoxyphosphonous dichloride;Ethoxyphosphorus dichloride",
    "duplicated_cas_no": "",
    "SMILES": "O(P(Cl)Cl)CC",
    "meta_data": {
        "InChI": "InChI=1S/C2H5Cl2OP/c1-2-5-6(3)4/h2H2,1H3",
        "InChIKey": null,
        "Canonical SMILES": "ClP(Cl)OCC",
        "Molecular Formula": "C<sub>2</sub>H<sub>5</sub>Cl<sub>2</sub>OP",
        "Molecular Mass": "146.94",
        "Boiling Point": "117-118 °C",
        "Density": "1.3300 g/cm³ @ Temp: 20 °C"
    }
}