{
    "cas_no": "28917-43-3",
    "key_name": "3,5-Bis(phenylmethoxy)benzoic acid",
    "cn_name": "3,5-二苄氧基苯甲酸;",
    "alternate_name": "Benzoic acid, 3,5-bis(phenylmethoxy)-;Benzoic acid, 3,5-bis(benzyloxy)-;3,5-Bis(phenylmethoxy)benzoic acid;3,5-Dibenzyloxybenzoic acid;NSC 210283;3,5-Benzyloxybenzoic acid",
    "duplicated_cas_no": "859103-46-1",
    "SMILES": "O(CC1=CC=CC=C1)C2=CC(OCC3=CC=CC=C3)=CC(C(O)=O)=C2",
    "meta_data": {
        "InChI": "InChI=1S/C21H18O4/c22-21(23)18-11-19(24-14-16-7-3-1-4-8-16)13-20(12-18)25-15-17-9-5-2-6-10-17/h1-13H,14-15H2,(H,22,23)",
        "InChIKey": null,
        "Canonical SMILES": "O=C(O)C=1C=C(OCC=2C=CC=CC2)C=C(OCC=3C=CC=CC3)C1",
        "Molecular Formula": "C<sub>21</sub>H<sub>18</sub>O<sub>4</sub>",
        "Molecular Mass": "334.37",
        "Melting Point": "209-211 °C"
    }
}