{
    "cas_no": "598-03-8",
    "key_name": "Propyl sulfone",
    "cn_name": "二丙砜;硫酸丙酯;",
    "alternate_name": "Propane, 1,1′-sulfonylbis-;Propyl sulfone;1,1′-Sulfonylbis[propane];Dipropyl sulfone;Di-<em>n</em>-propyl sulfone;NSC 4865;1-Propylsulfonylpropane;1-(Propane-1-sulfonyl)propane",
    "duplicated_cas_no": "",
    "SMILES": "S(CCC)(CCC)(=O)=O",
    "meta_data": {
        "InChI": "InChI=1S/C6H14O2S/c1-3-5-9(7,8)6-4-2/h3-6H2,1-2H3",
        "InChIKey": null,
        "Canonical SMILES": "O=S(=O)(CCC)CCC",
        "Molecular Formula": "C<sub>6</sub>H<sub>14</sub>O<sub>2</sub>S",
        "Molecular Mass": "150.24",
        "Boiling Point": "270 °C",
        "Melting Point": "29.5 °C",
        "Density": "1.04 g/cm³ @ Temp: 30 °C"
    }
}