{
    "cas_no": "62643-56-5",
    "key_name": "Heptanoic acid, 7-amino-, hydrochloride (1:1)",
    "cn_name": null,
    "alternate_name": "Heptanoic acid, 7-amino-, hydrochloride (1:1);Heptanoic acid, 7-amino-, hydrochloride;7-Aminoheptanoic acid hydrochloride",
    "duplicated_cas_no": "",
    "SMILES": "C(CCCCN)CC(O)=O.Cl",
    "meta_data": {
        "InChI": "InChI=1S/C7H15NO2.ClH/c8-6-4-2-1-3-5-7(9)10;/h1-6,8H2,(H,9,10);1H",
        "InChIKey": null,
        "Canonical SMILES": "Cl.O=C(O)CCCCCCN",
        "Molecular Formula": "C<sub>7</sub>H<sub>15</sub>NO<sub>2</sub>.ClH",
        "Molecular Mass": "",
        "Melting Point": "97-99 °C"
    }
}