{
    "cas_no": "24743-14-4",
    "key_name": "1-Methoxy-3-(2-propen-1-yl)benzene",
    "cn_name": null,
    "alternate_name": "Benzene, 1-methoxy-3-(2-propen-1-yl)-;Anisole, <em>m</em>-allyl-;Benzene, 1-methoxy-3-(2-propenyl)-;1-Methoxy-3-(2-propen-1-yl)benzene;3-Allylanisole;<em>m</em>-Allylanisole;3-(<em>m</em>-Methoxyphenyl)propene;1-Allyl-3-methoxybenzene;<em>m</em>-Estragole;1-Methoxy-3-prop-2-enylbenzene",
    "duplicated_cas_no": "",
    "SMILES": "C(C=C)C1=CC(OC)=CC=C1",
    "meta_data": {
        "InChI": "InChI=1S/C10H12O/c1-3-5-9-6-4-7-10(8-9)11-2/h3-4,6-8H,1,5H2,2H3",
        "InChIKey": null,
        "Canonical SMILES": "O(C1=CC=CC(=C1)CC=C)C",
        "Molecular Formula": "C<sub>10</sub>H<sub>12</sub>O",
        "Molecular Mass": "148.20",
        "Boiling Point": "70-71 °C @ Press: 2 Torr",
        "Melting Point": "124-126 °C",
        "Density": "0.978 g/cm³ @ Temp: 20 °C"
    }
}