{
    "cas_no": "659-22-3",
    "key_name": "4,4′-(1,2-Ethenediyl)bis[phenol]",
    "cn_name": "二苯乙烯-4,4\"-二醇;",
    "alternate_name": "Phenol, 4,4′-(1,2-ethenediyl)bis-;4,4′-Stilbenediol;4,4′-(1,2-Ethenediyl)bis[phenol];4,4′-Dihydroxystilbene;<em>p</em>,<em>p</em>′-Dihydroxystilbene;4,4′-Dioxystilbene;1,2-Bis(4-hydroxyphenyl)ethene;NSC 4184",
    "duplicated_cas_no": "1016644-63-5",
    "SMILES": "C(=CC1=CC=C(O)C=C1)C2=CC=C(O)C=C2",
    "meta_data": {
        "InChI": "InChI=1S/C14H12O2/c15-13-7-3-11(4-8-13)1-2-12-5-9-14(16)10-6-12/h1-10,15-16H",
        "InChIKey": null,
        "Canonical SMILES": "OC1=CC=C(C=C1)C=CC2=CC=C(O)C=C2",
        "Molecular Formula": "C<sub>14</sub>H<sub>12</sub>O<sub>2</sub>",
        "Molecular Mass": "212.24",
        "Melting Point": "278 °C"
    }
}