{
    "cas_no": "611-40-5",
    "key_name": "Tectoridin",
    "cn_name": null,
    "alternate_name": "4<em>H</em>-1-Benzopyran-4-one, 7-(β-<span class=\"text-smallcaps\">D</span>-glucopyranosyloxy)-5-hydroxy-3-(4-hydroxyphenyl)-6-methoxy-;Tectoridin;7-(β-<span class=\"text-smallcaps\">D</span>-Glucopyranosyloxy)-5-hydroxy-3-(4-hydroxyphenyl)-6-methoxy-4<em>H</em>-1-benzopyran-4-one;Shekanin;Tectorigenin 7-<em>O</em>-β-<span class=\"text-smallcaps\">D</span>-glucopyranoside",
    "duplicated_cas_no": "30142-53-1",
    "SMILES": "O=C1C=2C(=CC(O[C@@H]3O[C@H](CO)[C@@H](O)[C@H](O)[C@H]3O)=C(OC)C2O)OC=C1C4=CC=C(O)C=C4",
    "meta_data": {
        "InChI": "InChI=1S/C22H22O11/c1-30-21-13(32-22-20(29)19(28)17(26)14(7-23)33-22)6-12-15(18(21)27)16(25)11(8-31-12)9-2-4-10(24)5-3-9/h2-6,8,14,17,19-20,22-24,26-29H,7H2,1H3/t14-,17-,19+,20-,22-/m1/s1",
        "InChIKey": null,
        "Canonical SMILES": "O=C1C(=COC=2C=C(OC3OC(CO)C(O)C(O)C3O)C(OC)=C(O)C12)C=4C=CC(O)=CC4",
        "Molecular Formula": "C<sub>22</sub>H<sub>22</sub>O<sub>11</sub>",
        "Molecular Mass": "462.40",
        "Melting Point": "258 °C"
    }
}