{
    "cas_no": "3144-74-9",
    "key_name": "(Chloromethyl)dimethylsilane",
    "cn_name": "氯甲基(二甲基)硅烷;",
    "alternate_name": "Silane, (chloromethyl)dimethyl-;(Chloromethyl)dimethylsilane;Dimethyl(chloromethyl)silane;Dimethylsilylmethyl chloride;NSC 96776",
    "duplicated_cas_no": "",
    "SMILES": "[SiH](CCl)(C)C",
    "meta_data": {
        "InChI": "InChI=1S/C3H9ClSi/c1-5(2)3-4/h5H,3H2,1-2H3",
        "InChIKey": null,
        "Canonical SMILES": "ClC[SiH](C)C",
        "Molecular Formula": "C<sub>3</sub>H<sub>9</sub>ClSi",
        "Molecular Mass": "108.64",
        "Boiling Point": "81 °C",
        "Density": "0.892 g/cm³ @ Temp: 25 °C"
    }
}