{
    "cas_no": "101-16-6",
    "key_name": "3-Methoxydiphenylamine",
    "cn_name": "3-甲氧基二苯胺;",
    "alternate_name": "Benzenamine, 3-methoxy-<em>N</em>-phenyl-;<em>m</em>-Anisidine, <em>N</em>-phenyl-;3-Methoxy-<em>N</em>-phenylbenzenamine;<em>N</em>-Phenyl-<em>m</em>-anisidine;3-Methoxydiphenylamine;<em>m</em>-Methoxydiphenylamine;<em>N</em>-(<em>m</em>-Methoxyphenyl)aniline;<em>N</em>-(3-Methoxyphenyl)-<em>N</em>-phenylamine;3-Methoxy-<em>N</em>-phenylaniline",
    "duplicated_cas_no": "",
    "SMILES": "N(C1=CC(OC)=CC=C1)C2=CC=CC=C2",
    "meta_data": {
        "InChI": "InChI=1S/C13H13NO/c1-15-13-9-5-8-12(10-13)14-11-6-3-2-4-7-11/h2-10,14H,1H3",
        "InChIKey": null,
        "Canonical SMILES": "O(C1=CC=CC(=C1)NC=2C=CC=CC2)C",
        "Molecular Formula": "C<sub>13</sub>H<sub>13</sub>NO",
        "Molecular Mass": "199.25",
        "Boiling Point": "136-138 °C @ Press: 0.07 Torr",
        "Melting Point": "73 °C"
    }
}