{
    "cas_no": "18171-19-2",
    "key_name": "(3-Chloropropyl)dimethoxymethylsilane",
    "cn_name": "3-氯丙基甲基二甲氧基硅烷;",
    "alternate_name": "Silane, (3-chloropropyl)dimethoxymethyl-;(3-Chloropropyl)dimethoxymethylsilane;(γ-Chloropropyl)dimethoxymethylsilane;(3-Chloropropyl)methyldimethoxysilane;(γ-Chloropropyl)methyldimethoxysilane;Sila-Ace S 610;(α-Chloropropyl)(dimethoxymethyl)silane;Dimethoxymethyl(3-chloropropyl)silane;SIC 2355;DB 221;CG 221 (silane);CG 221",
    "duplicated_cas_no": "",
    "SMILES": "[Si](CCCCl)(OC)(OC)C",
    "meta_data": {
        "InChI": "InChI=1S/C6H15ClO2Si/c1-8-10(3,9-2)6-4-5-7/h4-6H2,1-3H3",
        "InChIKey": null,
        "Canonical SMILES": "ClCCC[Si](OC)(OC)C",
        "Molecular Formula": "C<sub>6</sub>H<sub>15</sub>ClO<sub>2</sub>Si",
        "Molecular Mass": "182.72",
        "Boiling Point": "70-72 °C @ Press: 11 Torr",
        "Density": "1.025 g/cm³"
    }
}