{
    "cas_no": "4651-91-6",
    "key_name": "2-Amino-4,5,6,7-tetrahydrobenzo[<em>b</em>]thiophene-3-carbonitrile",
    "cn_name": "2-氨基-3-腈基-4,5,6,7--四氢苯并[B]噻吩;",
    "alternate_name": "Benzo[<em>b</em>]thiophene-3-carbonitrile, 2-amino-4,5,6,7-tetrahydro-;2-Amino-4,5,6,7-tetrahydrobenzo[<em>b</em>]thiophene-3-carbonitrile;2-Amino-3-cyano-4,5,6,7-tetrahydrobenzo[<em>b</em>]thiophene;2-Amino-3-cyano-4,5-tetramethylenethiophene;NSC 86907;2-Amino-4,5,6,7-tetrahydro-4<em>H</em>-benzo[<em>b</em>]thiophene-3-carbonitrile;2-Amino-4,5,6,7-tetrahydro-1-benzothiophene-3-carbonitrile;2-Amino-4,5,6,7-tetrahydrobenzothiophene-3-carbonitrile",
    "duplicated_cas_no": "",
    "SMILES": "C(#N)C=1C2=C(SC1N)CCCC2",
    "meta_data": {
        "InChI": "InChI=1S/C9H10N2S/c10-5-7-6-3-1-2-4-8(6)12-9(7)11/h1-4,11H2",
        "InChIKey": null,
        "Canonical SMILES": "N#CC1=C(SC2=C1CCCC2)N",
        "Molecular Formula": "C<sub>9</sub>H<sub>10</sub>N<sub>2</sub>S",
        "Molecular Mass": "178.25",
        "Melting Point": "147-148 °C"
    }
}