{
    "cas_no": "21035-59-6",
    "key_name": "<em>N</em>-Methyl-2-pyridinemethanamine",
    "cn_name": null,
    "alternate_name": "2-Pyridinemethanamine, <em>N</em>-methyl-;Pyridine, 2-[(methylamino)methyl]-;<em>N</em>-Methyl-2-pyridinemethanamine;2-Picolylmethylamine;2-(Methylaminomethyl)pyridine;α-Picolylmethylamine;<em>N</em>-Methyl-2-picolylamine;<em>N</em>-Methyl-<em>N</em>-(2-pyridylmethyl)amine;2-(<em>N</em>-Methylaminomethyl)pyridine;<em>N</em>-Methyl-<em>N</em>-(pyridin-2-ylmethyl)amine;2-(2-Methylaminomethyl)pyridine;NSC 63910;<em>N</em>-Methylpyridine-2-methanamine;<em>N</em>-Methyl-1-(pyridin-2-yl)methanamine;Methyl(pyridin-2-ylmethyl)amine",
    "duplicated_cas_no": "",
    "SMILES": "C(NC)C1=CC=CC=N1",
    "meta_data": {
        "InChI": "InChI=1S/C7H10N2/c1-8-6-7-4-2-3-5-9-7/h2-5,8H,6H2,1H3",
        "InChIKey": null,
        "Canonical SMILES": "N=1C=CC=CC1CNC",
        "Molecular Formula": "C<sub>7</sub>H<sub>10</sub>N<sub>2</sub>",
        "Molecular Mass": "122.17",
        "Boiling Point": "78-80 °C @ Press: 10 Torr",
        "Melting Point": "64 °C"
    }
}