{
    "cas_no": "65414-74-6",
    "key_name": "<span class=\"text-smallcaps\">L</span>-Serinamide hydrochloride",
    "cn_name": "L-丝氨酰胺盐酸盐;",
    "alternate_name": "Propanamide, 2-amino-3-hydroxy-, hydrochloride (1:1), (2<em>S</em>)-;Propanamide, 2-amino-3-hydroxy-, monohydrochloride, (<em>S</em>)-;<span class=\"text-smallcaps\">L</span>-Serinamide hydrochloride;Propanamide, 2-amino-3-hydroxy-, monohydrochloride, (2<em>S</em>)-;<span class=\"text-smallcaps\">L</span>-Serine amide hydrochloride;(<em>S</em>)-2-Amino-3-hydroxypropanamide hydrochloride",
    "duplicated_cas_no": "",
    "SMILES": "[C@@H](C(N)=O)(CO)N.Cl",
    "meta_data": {
        "InChI": "InChI=1S/C3H8N2O2.ClH/c4-2(1-6)3(5)7;/h2,6H,1,4H2,(H2,5,7);1H/t2-;/m0./s1",
        "InChIKey": null,
        "Canonical SMILES": "Cl.O=C(N)C(N)CO",
        "Molecular Formula": "C<sub>3</sub>H<sub>8</sub>N<sub>2</sub>O<sub>2</sub>.ClH",
        "Molecular Mass": "",
        "Melting Point": "187-188 °C"
    }
}