{
    "cas_no": "5187-23-5",
    "key_name": "5-Ethyl-1,3-dioxane-5-methanol",
    "cn_name": "5-乙基-1,3-二恶烷-5-甲醇;",
    "alternate_name": "1,3-Dioxane-5-methanol, 5-ethyl-;<em>m</em>-Dioxane-5-methanol, 5-ethyl-;5-Ethyl-1,3-dioxane-5-methanol;5-Ethyl-<em>m</em>-dioxane-5-methanol;5-Ethyl-1,3-dioxan-5-methanol;Formaldehyde mono(1,1,1-trimethylolpropane) acetal;5-Ethyl-5-(hydroxymethyl)-1,3-dioxane;5-(Hydroxymethyl)-5-ethyl-1,3-dioxane;(5-Ethyl[1,3]dioxan-5-yl)methanol",
    "duplicated_cas_no": "",
    "SMILES": "C(C)C1(CO)COCOC1",
    "meta_data": {
        "InChI": "InChI=1S/C7H14O3/c1-2-7(3-8)4-9-6-10-5-7/h8H,2-6H2,1H3",
        "InChIKey": null,
        "Canonical SMILES": "OCC1(COCOC1)CC",
        "Molecular Formula": "C<sub>7</sub>H<sub>14</sub>O<sub>3</sub>",
        "Molecular Mass": "146.18",
        "Boiling Point": "85 °C @ Press: 4 mmHg"
    }
}