{
    "cas_no": "475479-34-6",
    "key_name": "Aleglitazar",
    "cn_name": "阿格列扎;(S)-2-甲氧基-3-[4-[2-(5-甲基-2-苯基恶唑-4-基)乙氧基]苯并[b]噻吩-7-基]丙酸;",
    "alternate_name": "Benzo[<em>b</em>]thiophene-7-propanoic acid, α-methoxy-4-[2-(5-methyl-2-phenyl-4-oxazolyl)ethoxy]-, (α<em>S</em>)-;(α<em>S</em>)-α-Methoxy-4-[2-(5-methyl-2-phenyl-4-oxazolyl)ethoxy]benzo[<em>b</em>]thiophene-7-propanoic acid;(<em>S</em>)-2-Methoxy-3-[4-[2-(5-methyl-2-phenyloxazol-4-yl)ethoxy]benzo[<em>b</em>]thiophen-7-yl]propionic acid;Aleglitazar;RO 0728804;R 1439",
    "duplicated_cas_no": "",
    "SMILES": "C([C@@H](C(O)=O)OC)C1=C2C(=C(OCCC=3N=C(OC3C)C4=CC=CC=C4)C=C1)C=CS2",
    "meta_data": {
        "InChI": "InChI=1S/C24H23NO5S/c1-15-19(25-23(30-15)16-6-4-3-5-7-16)10-12-29-20-9-8-17(14-21(28-2)24(26)27)22-18(20)11-13-31-22/h3-9,11,13,21H,10,12,14H2,1-2H3,(H,26,27)/t21-/m0/s1",
        "InChIKey": null,
        "Canonical SMILES": "O=C(O)C(OC)CC1=CC=C(OCCC=2N=C(OC2C)C=3C=CC=CC3)C=4C=CSC41",
        "Molecular Formula": "C<sub>24</sub>H<sub>23</sub>NO<sub>5</sub>S",
        "Molecular Mass": "437.51",
        "Melting Point": "146-147 °C"
    }
}