{
    "cas_no": "35978-39-3",
    "key_name": "5-Phenylthieno[2,3-<em>d</em>]pyrimidin-4(1<em>H</em>)-one",
    "cn_name": null,
    "alternate_name": "Thieno[2,3-<em>d</em>]pyrimidin-4(1<em>H</em>)-one, 5-phenyl-;Thieno[2,3-<em>d</em>]pyrimidin-4-ol, 5-phenyl-;5-Phenylthieno[2,3-<em>d</em>]pyrimidin-4(1<em>H</em>)-one;5-Phenylthieno[2,3-<em>d</em>]pyrimidin-4(3<em>H</em>)-one",
    "duplicated_cas_no": "17417-69-5",
    "SMILES": "O=C1C=2C(=CSC2NC=N1)C3=CC=CC=C3",
    "meta_data": {
        "InChI": "InChI=1S/C12H8N2OS/c15-11-10-9(8-4-2-1-3-5-8)6-16-12(10)14-7-13-11/h1-7H,(H,13,14,15)",
        "InChIKey": null,
        "Canonical SMILES": "O=C1N=CNC=2SC=C(C=3C=CC=CC3)C12",
        "Molecular Formula": "C<sub>12</sub>H<sub>8</sub>N<sub>2</sub>OS",
        "Molecular Mass": "228.27",
        "Melting Point": "216 °C"
    }
}