{
    "cas_no": "15646-46-5",
    "key_name": "Oxazolone",
    "cn_name": null,
    "alternate_name": "5(4<em>H</em>)-Oxazolone, 4-(ethoxymethylene)-2-phenyl-;2-Oxazolin-5-one, 4-(ethoxymethylene)-2-phenyl-;4-(Ethoxymethylene)-2-phenyl-5(4<em>H</em>)-oxazolone;2-Phenyl-1-4-heteromethylene-5-oxazolone;Oxazolone;2-Phenyl-4-ethoxymethylene-5-oxazolone;2-Phenyl-4-(ethoxymethylene)oxazolone;Oxazolone (sensitizing agent);2-Phenyl-4-(ethoxymethylene)-2-oxazolinone;4-Ethoxymethylene-2-phenyl oxazolone;4-Ethoxymethylene-2-phenyl-5-oxazolone;Oxazolone (allergen);4-Ethoxymethylene-2-phenyl-2-oxazolin-5-one",
    "duplicated_cas_no": "",
    "SMILES": "C(OCC)=C1N=C(OC1=O)C2=CC=CC=C2",
    "meta_data": {
        "InChI": "InChI=1S/C12H11NO3/c1-2-15-8-10-12(14)16-11(13-10)9-6-4-3-5-7-9/h3-8H,2H2,1H3",
        "InChIKey": null,
        "Canonical SMILES": "O=C1OC(=NC1=COCC)C=2C=CC=CC2",
        "Molecular Formula": "C<sub>12</sub>H<sub>11</sub>NO<sub>3</sub>",
        "Molecular Mass": "217.22",
        "Melting Point": "94-96 °C"
    }
}