{
    "cas_no": "7697-29-2",
    "key_name": "4-Chloro-3-methylbenzoic acid",
    "cn_name": "4-氯-3-甲基苯甲酸;",
    "alternate_name": "Benzoic acid, 4-chloro-3-methyl-;<em>m</em>-Toluic acid, 4-chloro-;4-Chloro-3-methylbenzoic acid;4-Chloro-<em>m</em>-toluic acid;NSC 137157",
    "duplicated_cas_no": "",
    "SMILES": "C(O)(=O)C1=CC(C)=C(Cl)C=C1",
    "meta_data": {
        "InChI": "InChI=1S/C8H7ClO2/c1-5-4-6(8(10)11)2-3-7(5)9/h2-4H,1H3,(H,10,11)",
        "InChIKey": null,
        "Canonical SMILES": "O=C(O)C1=CC=C(Cl)C(=C1)C",
        "Molecular Formula": "C<sub>8</sub>H<sub>7</sub>ClO<sub>2</sub>",
        "Molecular Mass": "170.59",
        "Melting Point": "208 °C"
    }
}