{
    "cas_no": "3113-72-2",
    "key_name": "5-Methyl-2-nitrobenzoic acid",
    "cn_name": "5-甲基-2-硝基苯甲酸;",
    "alternate_name": "Benzoic acid, 5-methyl-2-nitro-;<em>m</em>-Toluic acid, 6-nitro-;5-Methyl-2-nitrobenzoic acid;3-Methyl-6-nitrobenzoic acid;2-Nitro-5-methylbenzoic acid;NSC 38067;5-Methyl-2-nitrobenzoate",
    "duplicated_cas_no": "",
    "SMILES": "N(=O)(=O)C1=C(C(O)=O)C=C(C)C=C1",
    "meta_data": {
        "InChI": "InChI=1S/C8H7NO4/c1-5-2-3-7(9(12)13)6(4-5)8(10)11/h2-4H,1H3,(H,10,11)",
        "InChIKey": null,
        "Canonical SMILES": "O=C(O)C1=CC(=CC=C1N(=O)=O)C",
        "Molecular Formula": "C<sub>8</sub>H<sub>7</sub>NO<sub>4</sub>",
        "Molecular Mass": "181.15",
        "Melting Point": "219 °C"
    }
}