{
    "cas_no": "301-02-0",
    "key_name": "Oleamide",
    "cn_name": "油酸酰胺;油酰胺;(Z)-9-十八烯酸酰胺;",
    "alternate_name": "9-Octadecenamide, (9<em>Z</em>)-;Oleamide;9-Octadecenamide, (<em>Z</em>)-;(9<em>Z</em>)-9-Octadecenamide;Oleic acid amide;Oleylamide;Adogen 73;Petrac Slip-eze;Armoslip CP;Crodamide O;Crodamide OR;Amide O;Diamid O 200;Kemamide U;Amide O-N;Denon SL 1;Slip-eze;Unislip 4407;Oleic amide;Alflow 10E;9-<em>cis</em>-Oleamide;Armoslip CP-P;Unislip 1757;<em>cis</em>-9-Octadecenamide;PP 5926;Crodamide VR;Armoslip CP Flake;Diamid O;Kemamide O;Alflow E 10;(<em>Z</em>)-9-Octadecenamide;O 200;Atmer SA 1759FD;Kemamide VO;Neutron P;Crodamide VRX;Neutron (amide);Unislip 1759;Unislip 1758;Atmer SA 1758FD;Finawax O;Denon SL 12;Fatty Amide O-N;Diamid M 309;Finawax OK;Struktol TR 121;TR 121;PE 1;Neutron D;CP;Loxamid VPN 205;Daiwax OA;TP 16;Sipoamide OR;Armosil E;MO 2209;Sumikathene A 10;WK 1610;Chamide P;DH-K 220;<em>cis</em>-9-Octadecenoamide;OA 80;YT 1;YT 1 (amide);HS 703;Crodamide ORV-MB;ORV-MB;AC 5 (amide);AC 5;Lutamide 9820;Deurex A 27P;Croda ORX;ST 2022152;BJH 1;WK 1618",
    "duplicated_cas_no": "65862-65-9;69899-60-1;94554-98-0;181057-55-6;1905405-76-6;2905344-85-4",
    "SMILES": "C(C/C=C\\CCCCCCCC)CCCCCC(N)=O",
    "meta_data": {
        "InChI": "InChI=1S/C18H35NO/c1-2-3-4-5-6-7-8-9-10-11-12-13-14-15-16-17-18(19)20/h9-10H,2-8,11-17H2,1H3,(H2,19,20)/b10-9-",
        "InChIKey": null,
        "Canonical SMILES": "O=C(N)CCCCCCCC=CCCCCCCCC",
        "Molecular Formula": "C<sub>18</sub>H<sub>35</sub>NO",
        "Molecular Mass": "281.48",
        "Melting Point": "76 °C",
        "Density": "0.94 g/cm³"
    }
}