{
    "cas_no": "24686-78-0",
    "key_name": "1-Benzoyl-4-piperidone",
    "cn_name": "1-苯酰基-4-哌啶酮;",
    "alternate_name": "4-Piperidinone, 1-benzoyl-;4-Piperidone, 1-benzoyl-;1-Benzoyl-4-piperidinone;<em>N</em>-Benzoyl-4-piperidone;1-Benzoyl-4-piperidone;1-Benzoyl-4-oxopiperidine;NSC 97564",
    "duplicated_cas_no": "",
    "SMILES": "C(=O)(N1CCC(=O)CC1)C2=CC=CC=C2",
    "meta_data": {
        "InChI": "InChI=1S/C12H13NO2/c14-11-6-8-13(9-7-11)12(15)10-4-2-1-3-5-10/h1-5H,6-9H2",
        "InChIKey": null,
        "Canonical SMILES": "O=C(C=1C=CC=CC1)N2CCC(=O)CC2",
        "Molecular Formula": "C<sub>12</sub>H<sub>13</sub>NO<sub>2</sub>",
        "Molecular Mass": "203.24",
        "Boiling Point": "158-160 °C @ Press: 0.2 Torr",
        "Melting Point": "49-52 °C"
    }
}