{
    "cas_no": "529-36-2",
    "key_name": "1-Naphthalenethiol",
    "cn_name": "1-硫代萘酚;1-萘硫酚;",
    "alternate_name": "1-Naphthalenethiol;1-Mercaptonaphthalene;α-Naphthyl mercaptan;1-Naphthyl mercaptan;α-Thionaphthol;1-Thionaphthol;α-Naphthalenethiol;α-Mercaptonaphthalene",
    "duplicated_cas_no": "",
    "SMILES": "SC=1C2=C(C=CC1)C=CC=C2",
    "meta_data": {
        "InChI": "InChI=1S/C10H8S/c11-10-7-3-5-8-4-1-2-6-9(8)10/h1-7,11H",
        "InChIKey": null,
        "Canonical SMILES": "SC1=CC=CC=2C=CC=CC12",
        "Molecular Formula": "C<sub>10</sub>H<sub>8</sub>S",
        "Molecular Mass": "160.24",
        "Boiling Point": "285 °C",
        "Melting Point": "15 °C",
        "Density": "1.1607 g/cm³ @ Temp: 420 °C"
    }
}