{
    "cas_no": "62522-63-8",
    "key_name": "3-Methyl-2-oxo-2,3-dihydrobenzo[<em>d</em>]oxazole-6-sulfonyl chloride",
    "cn_name": null,
    "alternate_name": "6-Benzoxazolesulfonyl chloride, 2,3-dihydro-3-methyl-2-oxo-;2,3-Dihydro-3-methyl-2-oxo-6-benzoxazolesulfonyl chloride;3-Methyl-2-oxo-2,3-dihydrobenzo[<em>d</em>]oxazole-6-sulfonyl chloride;3-Methyl-2-oxo-2,3-dihydro-1,3-benzoxazole-6-sulfonyl chloride;3-Methylbenzoxazolone-6-sulfonyl chloride;3-Methyl-2-oxo-1,3-benzoxazole-6-sulfonyl chloride;3-Methyl-2-oxo-2,3-dihydro-benzooxazole-6-sulfonyl chloride",
    "duplicated_cas_no": "",
    "SMILES": "CN1C=2C(=CC(S(Cl)(=O)=O)=CC2)OC1=O",
    "meta_data": {
        "InChI": "InChI=1S/C8H6ClNO4S/c1-10-6-3-2-5(15(9,12)13)4-7(6)14-8(10)11/h2-4H,1H3",
        "InChIKey": null,
        "Canonical SMILES": "O=C1OC2=CC(=CC=C2N1C)S(=O)(=O)Cl",
        "Molecular Formula": "C<sub>8</sub>H<sub>6</sub>ClNO<sub>4</sub>S",
        "Molecular Mass": "247.66",
        "Melting Point": "128-130 °C"
    }
}