{
    "cas_no": "818-23-5",
    "key_name": "Diheptyl ketone",
    "cn_name": "8-十五烷酮;8-十五酮;二庚基酮;8-十五[碳]酮;",
    "alternate_name": "8-Pentadecanone;Diheptyl ketone;Heptyl ketone;Caprylone;NSC 595",
    "duplicated_cas_no": "",
    "SMILES": "C(CCCCCCC)(CCCCCCC)=O",
    "meta_data": {
        "InChI": "InChI=1S/C15H30O/c1-3-5-7-9-11-13-15(16)14-12-10-8-6-4-2/h3-14H2,1-2H3",
        "InChIKey": null,
        "Canonical SMILES": "O=C(CCCCCCC)CCCCCCC",
        "Molecular Formula": "C<sub>15</sub>H<sub>30</sub>O",
        "Molecular Mass": "226.40",
        "Boiling Point": "291 °C",
        "Melting Point": "43 °C"
    }
}