{
    "cas_no": "1313-99-1",
    "key_name": "Nickel monoxide",
    "cn_name": "氧化镍;",
    "alternate_name": "Nickel oxide (NiO);Nickel monooxide;Nickelous oxide;Nickel(II) oxide;Nickel monoxide;Nickel(2+) oxide;Mononickel oxide;Nickel Oxide Sinter 75;Nickel oxide;NiO-G 39;NiO-D;NiO-FP;High purity nickel oxide F;Avantama P21",
    "duplicated_cas_no": "185461-96-5;203645-17-4;339311-41-0;2214286-18-5;2566882-23-1;2644645-41-8;2706615-06-5",
    "SMILES": "[Ni]=O",
    "meta_data": {
        "InChI": "InChI=1S/Ni.O",
        "InChIKey": null,
        "Canonical SMILES": "O=[Ni]",
        "Molecular Formula": "NiO",
        "Molecular Mass": "",
        "Melting Point": "1955 °C",
        "Density": "6.72 g/cm³"
    }
}