{
    "cas_no": "863-76-3",
    "key_name": "α-Amyrin acetate",
    "cn_name": null,
    "alternate_name": "Urs-12-en-3-ol, 3-acetate, (3β)-;Urs-12-en-3β-ol, acetate;Urs-12-en-3-ol, acetate, (3β)-;α-Amyrin acetate;α-Amyrenyl acetate;3-<em>O</em>-Acetyl-α-amyrin;α-Acetylamyrin;NSC 160881;α-Amyrinone acetate",
    "duplicated_cas_no": "99630-72-5;22076-41-1",
    "SMILES": "C[C@]12[C@@]3(C)C([C@]4([C@@](C)(CC3)CC[C@@H](C)[C@@H]4C)[H])=CC[C@@]1([C@]5(C)[C@@](CC2)(C(C)(C)[C@@H](OC(C)=O)CC5)[H])[H]",
    "meta_data": {
        "InChI": "InChI=1S/C32H52O2/c1-20-12-15-29(6)18-19-31(8)23(27(29)21(20)2)10-11-25-30(7)16-14-26(34-22(3)33)28(4,5)24(30)13-17-32(25,31)9/h10,20-21,24-27H,11-19H2,1-9H3/t20-,21+,24+,25-,26+,27+,29-,30+,31-,32-/m1/s1",
        "InChIKey": null,
        "Canonical SMILES": "O=C(OC1CCC2(C)C(CCC3(C)C2CC=C4C5C(C)C(C)CCC5(C)CCC43C)C1(C)C)C",
        "Molecular Formula": "C<sub>32</sub>H<sub>52</sub>O<sub>2</sub>",
        "Molecular Mass": "468.75",
        "Melting Point": "225-226 °C"
    }
}