{
    "cas_no": "1878-91-7",
    "key_name": "2-(4-Bromophenoxy)acetic acid",
    "cn_name": "对溴苯氧乙酸;",
    "alternate_name": "Acetic acid, 2-(4-bromophenoxy)-;Acetic acid, (<em>p</em>-bromophenoxy)-;Acetic acid, (4-bromophenoxy)-;2-(4-Bromophenoxy)acetic acid;(4-Bromophenoxy)acetic acid;<em>p</em>-Bromophenoxyacetic acid;NSC 65085",
    "duplicated_cas_no": "",
    "SMILES": "O(CC(O)=O)C1=CC=C(Br)C=C1",
    "meta_data": {
        "InChI": "InChI=1S/C8H7BrO3/c9-6-1-3-7(4-2-6)12-5-8(10)11/h1-4H,5H2,(H,10,11)",
        "InChIKey": null,
        "Canonical SMILES": "O=C(O)COC1=CC=C(Br)C=C1",
        "Molecular Formula": "C<sub>8</sub>H<sub>7</sub>BrO<sub>3</sub>",
        "Molecular Mass": "231.04",
        "Melting Point": "160-161 °C"
    }
}