{
    "cas_no": "122-59-8",
    "key_name": "Phenoxyacetic acid",
    "cn_name": "苯氧乙酸;",
    "alternate_name": "Acetic acid, 2-phenoxy-;Acetic acid, phenoxy-;2-Phenoxyacetic acid;Glycolic acid phenyl ether;Phenoxyacetic acid;Phenoxyethanoic acid;POA;NSC 9810;2-Phenyloxyacetic acid",
    "duplicated_cas_no": "",
    "SMILES": "O(CC(O)=O)C1=CC=CC=C1",
    "meta_data": {
        "InChI": "InChI=1S/C8H8O3/c9-8(10)6-11-7-4-2-1-3-5-7/h1-5H,6H2,(H,9,10)",
        "InChIKey": null,
        "Canonical SMILES": "O=C(O)COC=1C=CC=CC1",
        "Molecular Formula": "C<sub>8</sub>H<sub>8</sub>O<sub>3</sub>",
        "Molecular Mass": "152.15",
        "Boiling Point": "285 °C",
        "Melting Point": "98.5 °C"
    }
}