{
    "cas_no": "5343-99-7",
    "key_name": "1,2-Naphthalenedicarboxylic anhydride",
    "cn_name": "1,2-环烷酸酐;",
    "alternate_name": "Naphtho[1,2-<em>c</em>]furan-1,3-dione;1,2-Naphthalenedicarboxylic anhydride;1,3-αβ-Isonaphthofurandione;1,2-Naphthalic anhydride;Naphthalene-3,4-dicarboxylic anhydride;Naphthalene-1,2-dicarboxylic anhydride;NSC 521",
    "duplicated_cas_no": "",
    "SMILES": "O=C1C=2C=3C(C=CC2C(=O)O1)=CC=CC3",
    "meta_data": {
        "InChI": "InChI=1S/C12H6O3/c13-11-9-6-5-7-3-1-2-4-8(7)10(9)12(14)15-11/h1-6H",
        "InChIKey": null,
        "Canonical SMILES": "O=C1OC(=O)C2=C1C=CC=3C=CC=CC32",
        "Molecular Formula": "C<sub>12</sub>H<sub>6</sub>O<sub>3</sub>",
        "Molecular Mass": "198.17",
        "Boiling Point": "180-195 °C @ Press: 12 Torr",
        "Melting Point": "165 °C"
    }
}