{
    "cas_no": "78-82-0",
    "key_name": "Isobutyronitrile",
    "cn_name": "异丁腈;2-甲基丙腈;",
    "alternate_name": "Propanenitrile, 2-methyl-;Isobutyronitrile;2-Methylpropanenitrile;Isopropyl cyanide;2-Methylpropionitrile;2-Cyanopropane;Isopropyl nitrile;1-Cyano-1-methylethane;Dimethylacetonitrile;α-Methylpropanenitrile;α-Methylpropionitrile;Isobutanenitrile;NSC 60536",
    "duplicated_cas_no": "1800084-83-6",
    "SMILES": "C(C#N)(C)C",
    "meta_data": {
        "InChI": "InChI=1S/C4H7N/c1-4(2)3-5/h4H,1-2H3",
        "InChIKey": null,
        "Canonical SMILES": "N#CC(C)C",
        "Molecular Formula": "C<sub>4</sub>H<sub>7</sub>N",
        "Molecular Mass": "69.11",
        "Boiling Point": "103.9 °C @ Press: 760 Torr",
        "Melting Point": "-71.5 °C",
        "Density": "0.7704 g/cm³ @ Temp: 20 °C"
    }
}