{
    "cas_no": "51169-17-6",
    "key_name": "5-(4′-Methylphenyl)-5-phenylhydantoin",
    "cn_name": null,
    "alternate_name": "2,4-Imidazolidinedione, 5-(4-methylphenyl)-5-phenyl-;Hydantoin, 5-phenyl-5-<em>p</em>-tolyl-;5-(4-Methylphenyl)-5-phenyl-2,4-imidazolidinedione;5-(<em>p</em>-Methylphenyl)-5-phenylhydantoin;5-Phenyl-5-(4-tolyl)hydantoin;5-<em>p</em>-Tolyl-5-phenylhydantoin;5-(4′-Methylphenyl)-5-phenylhydantoin;5-(4-Methylphenyl)-5-phenylhydantoin;(±)-5-(4-Methylphenyl)-5-phenyl hydantoin;NSC 32105;5-Phenyl-5-(<em>p</em>-tolyl)imidazolidine-2,4-dione;5-(4-Methylphenyl)-,5-phenylimidazolidine-2,4-dione",
    "duplicated_cas_no": "6322-50-5",
    "SMILES": "O=C1C(NC(=O)N1)(C2=CC=C(C)C=C2)C3=CC=CC=C3",
    "meta_data": {
        "InChI": "InChI=1S/C16H14N2O2/c1-11-7-9-13(10-8-11)16(12-5-3-2-4-6-12)14(19)17-15(20)18-16/h2-10H,1H3,(H2,17,18,19,20)",
        "InChIKey": null,
        "Canonical SMILES": "O=C1NC(=O)C(N1)(C=2C=CC=CC2)C3=CC=C(C=C3)C",
        "Molecular Formula": "C<sub>16</sub>H<sub>14</sub>N<sub>2</sub>O<sub>2</sub>",
        "Molecular Mass": "266.29",
        "Melting Point": "229-230 °C"
    }
}