{
    "cas_no": "131-15-7",
    "key_name": "Di-<em>sec</em>-octyl phthalate",
    "cn_name": "1,2-苯二甲酸二(1-甲基庚基)酯;邻苯二甲酸二仲辛酯;邻苯二甲酸二辛酰;",
    "alternate_name": "1,2-Benzenedicarboxylic acid, 1,2-bis(1-methylheptyl) ester;Phthalic acid, bis(1-methylheptyl) ester;1,2-Benzenedicarboxylic acid, bis(1-methylheptyl) ester;2-Octanol, phthalate (2:1);Genomoll 100;Di-<em>sec</em>-octyl phthalate;Di(2-octyl)phthalate;Bis(1-methylheptyl) phthalate;NSC 3926",
    "duplicated_cas_no": "",
    "SMILES": "C(OC(CCCCCC)C)(=O)C1=C(C(OC(CCCCCC)C)=O)C=CC=C1",
    "meta_data": {
        "InChI": "InChI=1S/C24H38O4/c1-5-7-9-11-15-19(3)27-23(25)21-17-13-14-18-22(21)24(26)28-20(4)16-12-10-8-6-2/h13-14,17-20H,5-12,15-16H2,1-4H3",
        "InChIKey": null,
        "Canonical SMILES": "O=C(OC(C)CCCCCC)C=1C=CC=CC1C(=O)OC(C)CCCCCC",
        "Molecular Formula": "C<sub>24</sub>H<sub>38</sub>O<sub>4</sub>",
        "Molecular Mass": "390.56",
        "Boiling Point": "206-210 °C @ Press: 0.5 Torr"
    }
}