{
    "cas_no": "628-16-0",
    "key_name": "1,5-Hexadiyne",
    "cn_name": "1,5-己二炔;双丙炔;",
    "alternate_name": "1,5-Hexadiyne;Bipropargyl;Dipropargyl;NSC 155174",
    "duplicated_cas_no": "",
    "SMILES": "C(CC#C)C#C",
    "meta_data": {
        "InChI": "InChI=1S/C6H6/c1-3-5-6-4-2/h1-2H,5-6H2",
        "InChIKey": null,
        "Canonical SMILES": "C#CCCC#C",
        "Molecular Formula": "C<sub>6</sub>H<sub>6</sub>",
        "Molecular Mass": "78.11",
        "Boiling Point": "86 °C",
        "Melting Point": "-6 °C",
        "Density": "0.79943 g/cm³ @ Temp: 20 °C"
    }
}