{
    "cas_no": "3680-02-2",
    "key_name": "Methyl vinyl sulfone",
    "cn_name": "甲基乙烯砜;甲基乙烯基砜;",
    "alternate_name": "Ethene, (methylsulfonyl)-;Sulfone, methyl vinyl;(Methylsulfonyl)ethene;Methyl vinyl sulfone;Methyl vinyl sulphone;URI 718;Vinyl methyl sulfone;NSC 518304;1-Methylsulfonylethylene;Methanesulfonylethene;1-Methylsulfonylethene",
    "duplicated_cas_no": "",
    "SMILES": "S(C=C)(C)(=O)=O",
    "meta_data": {
        "InChI": "InChI=1S/C3H6O2S/c1-3-6(2,4)5/h3H,1H2,2H3",
        "InChIKey": null,
        "Canonical SMILES": "O=S(=O)(C=C)C",
        "Molecular Formula": "C<sub>3</sub>H<sub>6</sub>O<sub>2</sub>S",
        "Molecular Mass": "106.14",
        "Boiling Point": "115-117 °C @ Press: 19 Torr",
        "Density": "1.2146 g/cm³ @ Temp: 20 °C"
    }
}