{
    "cas_no": "13453-07-1",
    "key_name": "Gold trichloride",
    "cn_name": "氯化金;三氯化金;",
    "alternate_name": "Gold chloride (AuCl<sub>3</sub>);Auric chloride;Gold trichloride;Gold chloride;Gold(III) chloride;Auric trichloride;520918-1G",
    "duplicated_cas_no": "",
    "SMILES": "[Au](Cl)(Cl)Cl",
    "meta_data": {
        "InChI": "InChI=1S/Au.3ClH/h;3*1H/q+3;;;/p-3",
        "InChIKey": null,
        "Canonical SMILES": "Cl[Au](Cl)Cl",
        "Molecular Formula": "AuCl<sub>3</sub>",
        "Molecular Mass": "",
        "Boiling Point": "265 °C",
        "Melting Point": "102-103 °C"
    }
}