{
    "cas_no": "2827-45-4",
    "key_name": "2,4-Diamino-6-methoxy-1,3,5-triazine",
    "cn_name": "2,4-二氨基-6-甲氧基-1,3,5-三嗪;",
    "alternate_name": "1,3,5-Triazine-2,4-diamine, 6-methoxy-;<em>s</em>-Triazine, 2,4-diamino-6-methoxy-;6-Methoxy-1,3,5-triazine-2,4-diamine;2,4-Diamino-6-methoxy-<em>s</em>-triazine;2-Methoxy-4,6-diamino-<em>s</em>-triazine;2,4-Diamino-6-methoxy-1,3,5-triazine;NSC 70448;6-Methoxyguanamine",
    "duplicated_cas_no": "",
    "SMILES": "O(C)C=1N=C(N)N=C(N)N1",
    "meta_data": {
        "InChI": "InChI=1S/C4H7N5O/c1-10-4-8-2(5)7-3(6)9-4/h1H3,(H4,5,6,7,8,9)",
        "InChIKey": null,
        "Canonical SMILES": "N=1C(=NC(=NC1N)N)OC",
        "Molecular Formula": "C<sub>4</sub>H<sub>7</sub>N<sub>5</sub>O",
        "Molecular Mass": "141.13",
        "Melting Point": "229-230 °C"
    }
}