{
    "cas_no": "3682-35-7",
    "key_name": "2,4,6-Tris(2′-pyridyl)-1,3,5-triazine",
    "cn_name": "2,4,6-反式2-吡啶基三嗪;",
    "alternate_name": "1,3,5-Triazine, 2,4,6-tri-2-pyridinyl-;<em>s</em>-Triazine, 2,4,6-tri-2-pyridinyl-;2,4,6-Tri-2-pyridinyl-1,3,5-triazine;2,4,6-Tri(2′-pyridyl)-<em>s</em>-triazine;Tri-2-pyridyl-<em>s</em>-triazine;2,4,6-Tripyridyl-1,3,5-triazine;2,4,6-Tris(2-pyridyl)-<em>s</em>-triazine;2,4,6-Tris(2-pyridyl)-1,3,5-triazine;2,4,6-Tripyridyl-<em>s</em>-triazine;TPTZ (iron reagent);2,4,6-Tri-2-pyridyl-1,3,5-triazine;2,4,6-Tri-2-pyridyl-<em>s</em>-triazine;TPTZ;Tri(2-pyridinyl)-<em>s</em>-triazine;2,4,6-(2-Pyridinyl)-<em>s</em>-triazine;NSC 112125;2,4,6-Tri-α-pyridyl-1,3,5-triazine;2,4,6-Tris(2′-pyridyl)-1,3,5-triazine;2,4,6-Tris(2-pyridiyl)-<em>s</em>-triazine;2,4,6-Tri(pyridin-2-yl)-1,3,5-<em>s</em>-triazine;NCI ID: NSC 112125",
    "duplicated_cas_no": "60681-69-8;1313184-30-3",
    "SMILES": "C=1(N=C(N=C(N1)C2=CC=CC=N2)C3=CC=CC=N3)C4=CC=CC=N4",
    "meta_data": {
        "InChI": "InChI=1S/C18H12N6/c1-4-10-19-13(7-1)16-22-17(14-8-2-5-11-20-14)24-18(23-16)15-9-3-6-12-21-15/h1-12H",
        "InChIKey": null,
        "Canonical SMILES": "N=1C=CC=CC1C2=NC(=NC(=N2)C=3N=CC=CC3)C4=NC=CC=C4",
        "Molecular Formula": "C<sub>18</sub>H<sub>12</sub>N<sub>6</sub>",
        "Molecular Mass": "312.33",
        "Melting Point": "210 °C"
    }
}