{
    "cas_no": "6484-52-2",
    "key_name": "Ammonium nitrate",
    "cn_name": "硝酸铵;",
    "alternate_name": "Nitric acid ammonium salt (1:1);Nitric acid ammonium salt;Ammonium nitrate (1:1);Ammonium nitrate;German saltpeter;Varioform I;Nitric acid, ammonium salt;Norwegian saltpeter;Norge saltpeter;Norway saltpeter;Plenco 12203;Emulite;Ammonium nitrate (NH<sub>4</sub>NO<sub>3</sub>);EXP 200;ZhVK;phospho ammonium nitrate",
    "duplicated_cas_no": "95255-40-6;893438-76-1;1388628-04-3;2732815-14-2",
    "SMILES": "N(=O)(=O)O.N",
    "meta_data": {
        "InChI": "InChI=1S/HNO3.H3N/c2-1(3)4;/h(H,2,3,4);1H3",
        "InChIKey": null,
        "Canonical SMILES": "O=N(=O)O.N",
        "Molecular Formula": "H<sub>3</sub>N.HNO<sub>3</sub>",
        "Molecular Mass": "",
        "Boiling Point": "210 °C @ Press: 11 Torr",
        "Melting Point": "169.6 °C",
        "Density": "1.725 g/cm³ @ Temp: 25 °C"
    }
}