{
    "cas_no": "687-63-8",
    "key_name": "<span class=\"text-smallcaps\">L</span>-Serylglycine",
    "cn_name": null,
    "alternate_name": "Glycine, <span class=\"text-smallcaps\">L</span>-seryl-;Glycine, <em>N</em>-<span class=\"text-smallcaps\">L</span>-seryl-;<span class=\"text-smallcaps\">L</span>-Serylglycine;Serylglycine;16: PN: WO03052099 PAGE: 83 claimed protein;NSC 88482;436: PN: WO2005081628 SEQID: 1545 claimed protein;127: PN: EP2071334 SEQID: 139 claimed protein;127: PN: WO2009077864 SEQID: 139 claimed protein;24: PN: WO2010037041 SEQID: 81 claimed protein;32: PN: WO2011015333 SEQID: 23 unclaimed sequence;100: PN: WO2011123785 SEQID: 81 unclaimed protein;22: PN: WO2014063098 TABLE: 5 claimed protein;119: PN: US20130123467 SEQID: 143 claimed protein;5: PN: US20130295106 SEQID: 81 claimed sequence;479: PN: WO2014018601 SEQID: 491 unclaimed protein;10: PN: WO2014120891 PAGE: 141 claimed sequence;2: PN: WO2015103072 PAGE: 93 claimed sequence;Growth differentiation factor 15 (synthetic);316: PN: WO2017109706 SEQID: 317 claimed protein;<span class=\"text-smallcaps\">L</span>-serine-glycine;511: PN: WO2020069398 SEQID: 794 claimed protein;2-[[(2S)-2-Amino-3-hydroxypropanoyl]amino]acetic acid;2-[(2S)-2-Amino-3-hydroxypropanamido]acetic acid;24: PN: WO2020109978 SEQID: 24 claimed protein;3: PN: WO2020135804 PAGE: 42 claimed sequence;31: PN: WO2021058563 SEQID: 34 claimed protein;159: PN: WO2021102345 SEQID: 160 claimed protein;322: PN: WO2021146320 SEQID: 322 claimed protein;94: PN: WO2021148547 SEQID: 95 claimed protein;142: PN: WO2022032140 SEQID: 144 claimed protein;172: PN: WO2022152282 SEQID: 237 claimed protein;34: PN: WO2022200442 SEQID: 34 claimed protein;1: PN: WO2023079102 PAGE: 200 claimed sequence;5: PN: WO2024068760 SEQID: 34 claimed sequence",
    "duplicated_cas_no": "",
    "SMILES": "C(NCC(O)=O)([C@H](CO)N)=O",
    "meta_data": {
        "InChI": "InChI=1S/C5H10N2O4/c6-3(2-8)5(11)7-1-4(9)10/h3,8H,1-2,6H2,(H,7,11)(H,9,10)/t3-/m0/s1",
        "InChIKey": null,
        "Canonical SMILES": "O=C(O)CNC(=O)C(N)CO",
        "Molecular Formula": "C<sub>5</sub>H<sub>10</sub>N<sub>2</sub>O<sub>4</sub>",
        "Molecular Mass": "162.14",
        "Melting Point": "215-216 °C (decomp)"
    }
}