{
    "cas_no": "724-98-1",
    "key_name": "2-(Phenoxymethyl)benzoic acid",
    "cn_name": "2-(苯氧基甲基)苯甲酸;",
    "alternate_name": "Benzoic acid, 2-(phenoxymethyl)-;<em>o</em>-Toluic acid, α-phenoxy-;2-(Phenoxymethyl)benzoic acid",
    "duplicated_cas_no": "",
    "SMILES": "C(OC1=CC=CC=C1)C2=C(C(O)=O)C=CC=C2",
    "meta_data": {
        "InChI": "InChI=1S/C14H12O3/c15-14(16)13-9-5-4-6-11(13)10-17-12-7-2-1-3-8-12/h1-9H,10H2,(H,15,16)",
        "InChIKey": null,
        "Canonical SMILES": "O=C(O)C=1C=CC=CC1COC=2C=CC=CC2",
        "Molecular Formula": "C<sub>14</sub>H<sub>12</sub>O<sub>3</sub>",
        "Molecular Mass": "228.24",
        "Boiling Point": "155-158 °C @ Press: 0.03 Torr",
        "Melting Point": "123-124 °C"
    }
}