{
    "cas_no": "92-87-5",
    "key_name": "4,4′-Diaminodiphenyl",
    "cn_name": "联苯胺;对二氨基联苯;4,4\"-二氨基联苯;",
    "alternate_name": "[1,1′-Biphenyl]-4,4′-diamine;Benzidine;4,4′-Biphenyldiamine;C.I. Azoic Diazo Component 112;4,4′-Diaminobiphenyl;<em>p</em>-Diaminodiphenyl;4,4′-Diphenylenediamine;Fast Corinth Base B;4,4′-Bianiline;4,4′-Diaminodiphenyl;<em>p</em>,<em>p</em>′-Diaminobiphenyl;<em>p</em>,<em>p</em>′-Bianiline;4,4′-Diamino-1,1′-biphenyl;4′-Amino-[1,1′-biphenyl]-4-ylamine;4-(4-Aminophenyl)aniline;NSC 146476;4,4′-Diaminobenzidine",
    "duplicated_cas_no": "46310-07-0;56481-94-8",
    "SMILES": "NC1=CC=C(C=C1)C2=CC=C(N)C=C2",
    "meta_data": {
        "InChI": "InChI=1S/C12H12N2/c13-11-5-1-9(2-6-11)10-3-7-12(14)8-4-10/h1-8H,13-14H2",
        "InChIKey": null,
        "Canonical SMILES": "NC=1C=CC(=CC1)C2=CC=C(N)C=C2",
        "Molecular Formula": "C<sub>12</sub>H<sub>12</sub>N<sub>2</sub>",
        "Molecular Mass": "184.24",
        "Boiling Point": "401 °C",
        "Melting Point": "120 °C",
        "Density": "1.250 g/cm³ @ Temp: 20 °C"
    }
}