{
    "cas_no": "14556-98-0",
    "key_name": "5-(Aminosulfonyl)-4-chloro-2-hydroxybenzoic acid",
    "cn_name": "4-氯水杨酸-5-磺酰胺;",
    "alternate_name": "Benzoic acid, 5-(aminosulfonyl)-4-chloro-2-hydroxy-;Salicylic acid, 4-chloro-5-sulfamoyl-;5-(Aminosulfonyl)-4-chloro-2-hydroxybenzoic acid;BE 1070",
    "duplicated_cas_no": "",
    "SMILES": "S(N)(=O)(=O)C1=CC(C(O)=O)=C(O)C=C1Cl",
    "meta_data": {
        "InChI": "InChI=1S/C7H6ClNO5S/c8-4-2-5(10)3(7(11)12)1-6(4)15(9,13)14/h1-2,10H,(H,11,12)(H2,9,13,14)",
        "InChIKey": null,
        "Canonical SMILES": "O=C(O)C1=CC(=C(Cl)C=C1O)S(=O)(=O)N",
        "Molecular Formula": "C<sub>7</sub>H<sub>6</sub>ClNO<sub>5</sub>S",
        "Molecular Mass": "251.64",
        "Melting Point": "258-260 °C"
    }
}