{
    "cas_no": "16002-29-2",
    "key_name": "1,1′-Dimethyl 2,2′-thiobis[acetate]",
    "cn_name": "硫代二乙酸二甲酯;",
    "alternate_name": "Acetic acid, 2,2′-thiobis-, 1,1′-dimethyl ester;Acetic acid, thiodi-, dimethyl ester;Acetic acid, 2,2′-thiobis-, dimethyl ester;1,1′-Dimethyl 2,2′-thiobis[acetate];Dimethyl thiodiacetate;Dimethyl thiodiglycolate",
    "duplicated_cas_no": "",
    "SMILES": "C(SCC(OC)=O)C(OC)=O",
    "meta_data": {
        "InChI": "InChI=1S/C6H10O4S/c1-9-5(7)3-11-4-6(8)10-2/h3-4H2,1-2H3",
        "InChIKey": null,
        "Canonical SMILES": "O=C(OC)CSCC(=O)OC",
        "Molecular Formula": "C<sub>6</sub>H<sub>10</sub>O<sub>4</sub>S",
        "Molecular Mass": "178.21",
        "Boiling Point": "130 °C @ Press: 15 Torr"
    }
}