{
    "cas_no": "422-03-7",
    "key_name": "2,2,3,3,3-Pentafluoropropylamine",
    "cn_name": "2,2,3,3,3-五氟丙胺;2,2,3,3,3-五氟丙基胺;",
    "alternate_name": "1-Propanamine, 2,2,3,3,3-pentafluoro-;Propylamine, 2,2,3,3,3-pentafluoro-;2,2,3,3,3-Pentafluoro-1-propanamine;2,2,3,3,3-Pentafluoropropylamine",
    "duplicated_cas_no": "",
    "SMILES": "C(C(F)(F)F)(CN)(F)F",
    "meta_data": {
        "InChI": "InChI=1S/C3H4F5N/c4-2(5,1-9)3(6,7)8/h1,9H2",
        "InChIKey": null,
        "Canonical SMILES": "FC(F)(F)C(F)(F)CN",
        "Molecular Formula": "C<sub>3</sub>H<sub>4</sub>F<sub>5</sub>N",
        "Molecular Mass": "149.06",
        "Boiling Point": "49 °C",
        "Density": "1.400 g/cm³ @ Temp: 20 °C"
    }
}