{
    "cas_no": "1008-79-3",
    "key_name": "1,2-Dihydro-1-phenyl-3<em>H</em>-pyrazol-3-one",
    "cn_name": null,
    "alternate_name": "3<em>H</em>-Pyrazol-3-one, 1,2-dihydro-1-phenyl-;Pyrazol-3-ol, 1-phenyl-;3-Pyrazolin-5-one, 2-phenyl-;1,2-Dihydro-1-phenyl-3<em>H</em>-pyrazol-3-one;1-Phenyl-3-hydroxypyrazole;1-Phenyl-1,2-dihydropyrazol-3-one;1-Phenyl-2,3-dihydro-1<em>H</em>-pyrazol-3-one;1-Phenyl-1<em>H</em>-pyrazol-3-ol;2-Phenyl-1<em>H</em>-pyrazol-5-one;3-Hydroxy-1-phenyl-1<em>H</em>-pyrazole;1-Phenyl-1<em>H</em>-pyrazol-3(2<em>H</em>)-one",
    "duplicated_cas_no": "18811-69-3;30342-52-0",
    "SMILES": "O=C1NN(C=C1)C2=CC=CC=C2",
    "meta_data": {
        "InChI": "InChI=1S/C9H8N2O/c12-9-6-7-11(10-9)8-4-2-1-3-5-8/h1-7H,(H,10,12)",
        "InChIKey": null,
        "Canonical SMILES": "O=C1C=CN(N1)C=2C=CC=CC2",
        "Molecular Formula": "C<sub>9</sub>H<sub>8</sub>N<sub>2</sub>O",
        "Molecular Mass": "160.17",
        "Boiling Point": "206-218 °C @ Press: 33 Torr",
        "Melting Point": "155-156 °C"
    }
}