{
    "cas_no": "5896-17-3",
    "key_name": "2-(Benzyloxy)benzaldehyde",
    "cn_name": "2-苄氧基苯甲醛;邻苄氧基苯甲醛;2-苯甲氧基苯甲醛;",
    "alternate_name": "Benzaldehyde, 2-(phenylmethoxy)-;Benzaldehyde, <em>o</em>-(benzyloxy)-;2-(Phenylmethoxy)benzaldehyde;<em>o</em>-(Benzyloxy)benzaldehyde;2-(Benzyloxy)benzaldehyde;<em>O</em>-Benzylsalicylaldehyde;NSC 401884",
    "duplicated_cas_no": "",
    "SMILES": "O(CC1=CC=CC=C1)C2=C(C=O)C=CC=C2",
    "meta_data": {
        "InChI": "InChI=1S/C14H12O2/c15-10-13-8-4-5-9-14(13)16-11-12-6-2-1-3-7-12/h1-10H,11H2",
        "InChIKey": null,
        "Canonical SMILES": "O=CC=1C=CC=CC1OCC=2C=CC=CC2",
        "Molecular Formula": "C<sub>14</sub>H<sub>12</sub>O<sub>2</sub>",
        "Molecular Mass": "212.24",
        "Boiling Point": "176-177 °C @ Press: 4 Torr",
        "Melting Point": "48-49 °C"
    }
}