{
    "cas_no": "21211-65-4",
    "key_name": "Dipyrrylmethane",
    "cn_name": null,
    "alternate_name": "1<em>H</em>-Pyrrole, 2,2′-methylenebis-;Pyrrole, 2,2′-methylenedi-;2,2′-Methylenebis[1<em>H</em>-pyrrole];2,2′-Dipyrromethane;Dipyrrylmethane;2,2′-Dipyrrolylmethane;2,2′-Dipyrrylmethane;Di(2-pyrryl)methane;Dipyrromethane;Bis(1<em>H</em>-pyrrol-2-yl)methane;2,2′-Dipyrrolemethane;Di(1<em>H</em>-pyrrol-2-yl)methane;Bis-pyrrol-2-ylmethane;2-(1<em>H</em>-Pyrrol-2-ylmethyl)-1<em>H</em>-pyrrole",
    "duplicated_cas_no": "",
    "SMILES": "C(C1=CC=CN1)C2=CC=CN2",
    "meta_data": {
        "InChI": "InChI=1S/C9H10N2/c1-3-8(10-5-1)7-9-4-2-6-11-9/h1-6,10-11H,7H2",
        "InChIKey": null,
        "Canonical SMILES": "C1=CNC(=C1)CC2=CC=CN2",
        "Molecular Formula": "C<sub>9</sub>H<sub>10</sub>N<sub>2</sub>",
        "Molecular Mass": "146.19",
        "Melting Point": "75 °C"
    }
}