{
    "cas_no": "7440-10-0",
    "key_name": "Praseodymium",
    "cn_name": "镨棒;镨;",
    "alternate_name": "Praseodymium;Praseodymium-141;MeSH ID: D011221",
    "duplicated_cas_no": "110123-50-7;24562-03-6",
    "SMILES": "[Pr]",
    "meta_data": {
        "InChI": "InChI=1S/Pr",
        "InChIKey": null,
        "Canonical SMILES": "[Pr]",
        "Molecular Formula": "Pr",
        "Molecular Mass": "",
        "Melting Point": "950 °C",
        "Density": "6.75 g/cm³ @ Temp: 18 °C"
    }
}