{
    "cas_no": "618-98-4",
    "key_name": "Benzoic acid, 3-nitro-, ethyl ester",
    "cn_name": null,
    "alternate_name": "Benzoic acid, 3-nitro-, ethyl ester;Benzoic acid, <em>m</em>-nitro-, ethyl ester;Ethyl <em>m</em>-nitrobenzoate;Ethyl 3-nitrobenzoate;3-Nitrobenzoic acid ethyl ester;NSC 32740;NSC 6762",
    "duplicated_cas_no": "",
    "SMILES": "C(OCC)(=O)C1=CC(N(=O)=O)=CC=C1",
    "meta_data": {
        "InChI": "InChI=1S/C9H9NO4/c1-2-14-9(11)7-4-3-5-8(6-7)10(12)13/h3-6H,2H2,1H3",
        "InChIKey": null,
        "Canonical SMILES": "O=C(OCC)C1=CC=CC(=C1)N(=O)=O",
        "Molecular Formula": "C<sub>9</sub>H<sub>9</sub>NO<sub>4</sub>",
        "Molecular Mass": "195.17",
        "Boiling Point": "297 °C",
        "Melting Point": "47 °C"
    }
}