{
    "cas_no": "3096-71-7",
    "key_name": "4-Amino-2,5-dimethylphenol",
    "cn_name": "4-氨基-2,5-二甲基苯酚;",
    "alternate_name": "Phenol, 4-amino-2,5-dimethyl-;2,5-Xylenol, 4-amino-;4-Amino-2,5-dimethylphenol;2,5-Dimethyl-4-aminophenol;2,5-Dimethyl-4-hydroxyaniline;(2,5-Dimethyl-4-hydroxyphenyl)amine",
    "duplicated_cas_no": "",
    "SMILES": "CC1=C(N)C=C(C)C(O)=C1",
    "meta_data": {
        "InChI": "InChI=1S/C8H11NO/c1-5-4-8(10)6(2)3-7(5)9/h3-4,10H,9H2,1-2H3",
        "InChIKey": null,
        "Canonical SMILES": "OC=1C=C(C(N)=CC1C)C",
        "Molecular Formula": "C<sub>8</sub>H<sub>11</sub>NO",
        "Molecular Mass": "137.18",
        "Melting Point": "241 °C (decomp)"
    }
}