{
    "cas_no": "920-66-1",
    "key_name": "1,1,1,3,3,3-Hexafluoro-2-propanol",
    "cn_name": "1,1,1,3,3,3-六氟代-2-丙醇;六氟异丙醇;",
    "alternate_name": "2-Propanol, 1,1,1,3,3,3-hexafluoro-;1,1,1,3,3,3-Hexafluoro-2-propanol;Hexafluoroisopropanol;1,1,1,3,3,3-Hexafluoroisopropyl alcohol;Hexafluoroisopropyl alcohol;Bis(trifluoromethyl)methanol;2,2,2-Trifluoro-1-(trifluoromethyl)ethanol;1,1,1,3,3,3-Hexafluoroisopropanol;1,1,1,3,3,3-Hexafluoro-2-hydroxypropane;NSC 96336;HFIP;1,1,1,3,3,3-Hexafluoropropanol;1,1,1,3,3,3-Hexafluoropropane-2-ol",
    "duplicated_cas_no": "",
    "SMILES": "C(C(F)(F)F)(C(F)(F)F)O",
    "meta_data": {
        "InChI": "InChI=1S/C3H2F6O/c4-2(5,6)1(10)3(7,8)9/h1,10H",
        "InChIKey": null,
        "Canonical SMILES": "FC(F)(F)C(O)C(F)(F)F",
        "Molecular Formula": "C<sub>3</sub>H<sub>2</sub>F<sub>6</sub>O",
        "Molecular Mass": "168.04",
        "Boiling Point": "59 °C",
        "Melting Point": "-4 °C",
        "Density": "1.4563 g/cm³ @ Temp: 20.5 °C"
    }
}