{
    "cas_no": "80126-54-1",
    "key_name": "2-Methyl-<span class=\"text-smallcaps\">D</span>-phenylalanine",
    "cn_name": null,
    "alternate_name": "<span class=\"text-smallcaps\">D</span>-Phenylalanine, 2-methyl-;2-Methyl-<span class=\"text-smallcaps\">D</span>-phenylalanine;<span class=\"text-smallcaps\">D</span>-2′-Methylphenylalanine;<span class=\"text-smallcaps\">D</span>-2-Methylphenylalanine;(<em>R</em>)-2-Amino-3-<em>o</em>-tolylpropionic acid;(R)-2-Amino-3-(<em>o</em>-tolyl)propanoicacid",
    "duplicated_cas_no": "",
    "SMILES": "C([C@H](C(O)=O)N)C1=C(C)C=CC=C1",
    "meta_data": {
        "InChI": "InChI=1S/C10H13NO2/c1-7-4-2-3-5-8(7)6-9(11)10(12)13/h2-5,9H,6,11H2,1H3,(H,12,13)/t9-/m1/s1",
        "InChIKey": null,
        "Canonical SMILES": "O=C(O)C(N)CC=1C=CC=CC1C",
        "Molecular Formula": "C<sub>10</sub>H<sub>13</sub>NO<sub>2</sub>",
        "Molecular Mass": "179.22",
        "Melting Point": "259-260 °C (decomp)"
    }
}