{
    "cas_no": "16436-00-3",
    "key_name": "Octyl acetoacetate",
    "cn_name": "乙酰乙酸正辛酯;",
    "alternate_name": "Butanoic acid, 3-oxo-, octyl ester;Acetoacetic acid, octyl ester;Octyl alcohol, acetoacetate;Octyl acetoacetate;1-Octyl acetoacetate;<em>n</em>-Octyl acetoacetate;<em>n</em>-Octyl acetylacetate;Octyl 3-oxobutanoate;1-Octyl 3-oxobutanoate",
    "duplicated_cas_no": "",
    "SMILES": "C(OCCCCCCCC)(CC(C)=O)=O",
    "meta_data": {
        "InChI": "InChI=1S/C12H22O3/c1-3-4-5-6-7-8-9-15-12(14)10-11(2)13/h3-10H2,1-2H3",
        "InChIKey": null,
        "Canonical SMILES": "O=C(OCCCCCCCC)CC(=O)C",
        "Molecular Formula": "C<sub>12</sub>H<sub>22</sub>O<sub>3</sub>",
        "Molecular Mass": "214.30",
        "Boiling Point": "140-141 °C @ Press: 16 Torr"
    }
}