{
    "cas_no": "932-96-7",
    "key_name": "4-Chloro-<em>N</em>-methylbenzenamine",
    "cn_name": "4-氯-N-甲基苯胺;",
    "alternate_name": "Benzenamine, 4-chloro-<em>N</em>-methyl-;Aniline, <em>p</em>-chloro-<em>N</em>-methyl-;4-Chloro-<em>N</em>-methylbenzenamine;<em>N</em>-Methyl-4-chloroaniline;<em>p</em>-Chloro-<em>N</em>-methylaniline;4-Chloro-<em>N</em>-methylaniline;<em>N</em>-Methyl-<em>p</em>-chloroaniline;<em>p</em>-(Methylamino)chlorobenzene;<em>N</em>-(4-Chlorophenyl)methylamine;<em>N</em>-(4-Chlorophenyl)-<em>N</em>-methylamine",
    "duplicated_cas_no": "",
    "SMILES": "N(C)C1=CC=C(Cl)C=C1",
    "meta_data": {
        "InChI": "InChI=1S/C7H8ClN/c1-9-7-4-2-6(8)3-5-7/h2-5,9H,1H3",
        "InChIKey": null,
        "Canonical SMILES": "ClC1=CC=C(C=C1)NC",
        "Molecular Formula": "C<sub>7</sub>H<sub>8</sub>ClN",
        "Molecular Mass": "141.60",
        "Boiling Point": "240 °C",
        "Melting Point": "107-110 °C"
    }
}