{
    "cas_no": "112-15-2",
    "key_name": "Carbitol acetate",
    "cn_name": "二乙二醇单乙基醚醋酸酯;乙基卡必醇醋酸酯;",
    "alternate_name": "Ethanol, 2-(2-ethoxyethoxy)-, 1-acetate;Ethanol, 2-(2-ethoxyethoxy)-, acetate;Carbitol acetate;Diethylene glycol monoethyl ether acetate;Diglycol monoethyl ether acetate;2-(2-Ethoxyethoxy)ethyl acetate;Diethylene glycol ethyl ether acetate;Ethyl carbitol acetate;Ektasolve DE acetate;NSC 8702;Carbotil acetate;Ethyl diglycol acetate;Diethylene glycol monoethyl acetate;D 0500;Celtol EDGAC;EDGAC",
    "duplicated_cas_no": "2121465-38-9",
    "SMILES": "C(OCCOCC)COC(C)=O",
    "meta_data": {
        "InChI": "InChI=1S/C8H16O4/c1-3-10-4-5-11-6-7-12-8(2)9/h3-7H2,1-2H3",
        "InChIKey": null,
        "Canonical SMILES": "O=C(OCCOCCOCC)C",
        "Molecular Formula": "C<sub>8</sub>H<sub>16</sub>O<sub>4</sub>",
        "Molecular Mass": "176.21",
        "Boiling Point": "218.5 °C",
        "Melting Point": "-25 °C",
        "Density": "1.0096 g/cm³ @ Temp: 20 °C"
    }
}