{
    "cas_no": "65731-84-2",
    "key_name": "(<em>S</em>)-Cyano(3-phenoxyphenyl)methyl (1<em>R</em>,3<em>R</em>)-3-(2,2-dichloroethenyl)-2,2-dimethylcyclopropanecarboxylate",
    "cn_name": "高效氯氰菊酯;",
    "alternate_name": "Cyclopropanecarboxylic acid, 3-(2,2-dichloroethenyl)-2,2-dimethyl-, (<em>S</em>)-cyano(3-phenoxyphenyl)methyl ester, (1<em>R</em>,3<em>R</em>)-;Cyclopropanecarboxylic acid, 3-(2,2-dichloroethenyl)-2,2-dimethyl-, cyano(3-phenoxyphenyl)methyl ester, [1<em>R</em>-[1α(<em>S</em>*),3α]]-;(<em>S</em>)-Cyano(3-phenoxyphenyl)methyl (1<em>R</em>,3<em>R</em>)-3-(2,2-dichloroethenyl)-2,2-dimethylcyclopropanecarboxylate;NRDC 168S;RU 24501;WL 48281",
    "duplicated_cas_no": "70088-49-2",
    "SMILES": "C(O[C@H](C#N)C1=CC(OC2=CC=CC=C2)=CC=C1)(=O)[C@@H]3[C@H](C=C(Cl)Cl)C3(C)C",
    "meta_data": {
        "InChI": "InChI=1S/C22H19Cl2NO3/c1-22(2)17(12-19(23)24)20(22)21(26)28-18(13-25)14-7-6-10-16(11-14)27-15-8-4-3-5-9-15/h3-12,17-18,20H,1-2H3/t17-,18+,20-/m0/s1",
        "InChIKey": null,
        "Canonical SMILES": "N#CC(OC(=O)C1C(C=C(Cl)Cl)C1(C)C)C=2C=CC=C(OC=3C=CC=CC3)C2",
        "Molecular Formula": "C<sub>22</sub>H<sub>19</sub>Cl<sub>2</sub>NO<sub>3</sub>",
        "Molecular Mass": "416.30",
        "Melting Point": "53-55 °C"
    }
}