{
    "cas_no": "3392-97-0",
    "key_name": "2,6-Dimethoxybenzaldehyde",
    "cn_name": "2,6-二甲氧基苯甲醛;",
    "alternate_name": "Benzaldehyde, 2,6-dimethoxy-;2,6-Dimethoxybenzaldehyde;NSC 72362",
    "duplicated_cas_no": "",
    "SMILES": "C(=O)C1=C(OC)C=CC=C1OC",
    "meta_data": {
        "InChI": "InChI=1S/C9H10O3/c1-11-8-4-3-5-9(12-2)7(8)6-10/h3-6H,1-2H3",
        "InChIKey": null,
        "Canonical SMILES": "O=CC=1C(OC)=CC=CC1OC",
        "Molecular Formula": "C<sub>9</sub>H<sub>10</sub>O<sub>3</sub>",
        "Molecular Mass": "166.17",
        "Boiling Point": "285 °C",
        "Melting Point": "98-99 °C"
    }
}