{
    "cas_no": "22280-60-0",
    "key_name": "6-Chloro-2-methyl-3-nitropyridine",
    "cn_name": "6-氯-2-甲基-3-硝基吡啶;2-氯-5-硝基-6-甲基吡啶;",
    "alternate_name": "Pyridine, 6-chloro-2-methyl-3-nitro-;2-Picoline, 6-chloro-3-nitro-;6-Chloro-2-methyl-3-nitropyridine;2-Chloro-5-nitro-6-methylpyridine;2-Chloro-6-methyl-5-nitropyridine;3-Nitro-6-chloro-2-picoline;6-Chloro-3-nitro-2-picoline;NSC 75592;2-Chloro-5-nitro-6-picoline",
    "duplicated_cas_no": "",
    "SMILES": "N(=O)(=O)C1=C(C)N=C(Cl)C=C1",
    "meta_data": {
        "InChI": "InChI=1S/C6H5ClN2O2/c1-4-5(9(10)11)2-3-6(7)8-4/h2-3H,1H3",
        "InChIKey": null,
        "Canonical SMILES": "O=N(=O)C1=CC=C(Cl)N=C1C",
        "Molecular Formula": "C<sub>6</sub>H<sub>5</sub>ClN<sub>2</sub>O<sub>2</sub>",
        "Molecular Mass": "172.57",
        "Melting Point": "54-55 °C"
    }
}