{
    "cas_no": "13498-14-1",
    "key_name": "Diphosphoryl chloride",
    "cn_name": "四氯三氧化二磷;焦磷酰氯;",
    "alternate_name": "Diphosphoryl chloride;Pyrophosphoryl chloride;Phosphorodichloridic anhydride;Tetrachloropyrophosphoric acid;Phosphorus chloride oxide (P<sub>2</sub>Cl<sub>4</sub>O<sub>3</sub>);Pyrophosphoryl tetrachloride",
    "duplicated_cas_no": "",
    "SMILES": "O(P(Cl)(Cl)=O)P(Cl)(Cl)=O",
    "meta_data": {
        "InChI": "InChI=1S/Cl4O3P2/c1-8(2,5)7-9(3,4)6",
        "InChIKey": null,
        "Canonical SMILES": "O=P(Cl)(Cl)OP(=O)(Cl)Cl",
        "Molecular Formula": "Cl<sub>4</sub>O<sub>3</sub>P<sub>2</sub>",
        "Molecular Mass": "251.76",
        "Boiling Point": "65 °C",
        "Density": "1.820 g/cm³ @ Temp: 415 °C"
    }
}