{
    "cas_no": "61439-59-6",
    "key_name": "4-(Phenylmethoxy)benzeneethanol",
    "cn_name": "2-(4-苯甲氧基苯基)乙醇;",
    "alternate_name": "Benzeneethanol, 4-(phenylmethoxy)-;4-(Phenylmethoxy)benzeneethanol;<em>p</em>-(Benzyloxy)phenethyl alcohol;2-(<em>p</em>-Benzyloxyphenyl)ethanol;2-(4-Benzyloxyphenyl)ethanol;β-(<em>p</em>-Benzyloxyphenyl)ethyl alcohol;4-Benzyloxyphenethyl alcohol;4-(Benzyloxy)benzeneethanol;2-[4-(Benzyloxy)phenyl]ethan-1-ol;2-(4-Phenylmethoxyphenyl)ethanol",
    "duplicated_cas_no": "",
    "SMILES": "O(CC1=CC=CC=C1)C2=CC=C(CCO)C=C2",
    "meta_data": {
        "InChI": "InChI=1S/C15H16O2/c16-11-10-13-6-8-15(9-7-13)17-12-14-4-2-1-3-5-14/h1-9,16H,10-12H2",
        "InChIKey": null,
        "Canonical SMILES": "OCCC1=CC=C(OCC=2C=CC=CC2)C=C1",
        "Molecular Formula": "C<sub>15</sub>H<sub>16</sub>O<sub>2</sub>",
        "Molecular Mass": "228.29",
        "Melting Point": "87-88 °C"
    }
}