{
    "cas_no": "2117-50-2",
    "key_name": "1,1′-(1,2-Ethynediyl)bis[1,1,1-trimethylstannane]",
    "cn_name": "双(三甲基锡)乙炔;",
    "alternate_name": "Stannane, 1,1′-(1,2-ethynediyl)bis[1,1,1-trimethyl-;Stannane, ethynylenebis[trimethyl-;Tin, ethynylenebis[trimethyl-;Stannane, 1,2-ethynediylbis[trimethyl-;1,1′-(1,2-Ethynediyl)bis[1,1,1-trimethylstannane];Bis(trimethylstannyl)acetylene;1,2-Bis(trimethylstannyl)ethyne;1,2-Ethynediylbis[trimethylstannane];1,2-Bis(trimethylstannyl)acetylene",
    "duplicated_cas_no": "",
    "SMILES": "C(#C[Sn](C)(C)C)[Sn](C)(C)C",
    "meta_data": {
        "InChI": "InChI=1S/C2.6CH3.2Sn/c1-2;;;;;;;;/h;6*1H3;;",
        "InChIKey": null,
        "Canonical SMILES": "C(#C[Sn](C)(C)C)[Sn](C)(C)C",
        "Molecular Formula": "C<sub>8</sub>H<sub>18</sub>Sn<sub>2</sub>",
        "Molecular Mass": "351.65",
        "Boiling Point": "97-98 °C @ Press: 16 Torr",
        "Melting Point": "57.5-59 °C"
    }
}