{
    "cas_no": "4338-95-8",
    "key_name": "Carbamimidothioic acid, methyl ester, hydriodide (1:1)",
    "cn_name": null,
    "alternate_name": "Carbamimidothioic acid, methyl ester, hydriodide (1:1);Pseudourea, 2-methyl-2-thio-, monohydriodide;Pseudourea, 2-methyl-2-thio-, hydriodide;Carbamimidothioic acid, methyl ester, monohydriodide;<em>S</em>-Methylthiuronium iodide;<em>S</em>-Methylisothiouronium iodide;2-Methyl-2-isothiourea hydriodide;<em>S</em>-Methylthiouronium iodide;<em>S</em>-Methylisothiourea hydriodide;<em>S</em>-Methylisothiuronium iodide;2-Methyl-2-thiopseudourea hydriodide;2-Methylisothiouronium iodide;Methyl carbamimidothioate hydroiodide;(Methylsulfanyl)methanimidamide hydroiodide;Methyl aminomethanimidothioate hydroiodide",
    "duplicated_cas_no": "38744-88-6;83893-18-9",
    "SMILES": "C(SC)(=N)N.I",
    "meta_data": {
        "InChI": "InChI=1S/C2H6N2S.HI/c1-5-2(3)4;/h1H3,(H3,3,4);1H",
        "InChIKey": null,
        "Canonical SMILES": "I.N=C(SC)N",
        "Molecular Formula": "C<sub>2</sub>H<sub>6</sub>N<sub>2</sub>S.HI",
        "Molecular Mass": "",
        "Melting Point": "117 °C"
    }
}