{
    "cas_no": "7453-26-1",
    "key_name": "1-Methyl-<em>N</em>-(methyldiphenylsilyl)-1,1-diphenylsilanamine",
    "cn_name": "1,3-二甲基-1,1,3,3-四苯基二甲硅基胺;",
    "alternate_name": "Silanamine, 1-methyl-<em>N</em>-(methyldiphenylsilyl)-1,1-diphenyl-;Disilazane, 1,3-dimethyl-1,1,3,3-tetraphenyl-;1-Methyl-<em>N</em>-(methyldiphenylsilyl)-1,1-diphenylsilanamine;1,3-Dimethyl-1,1,3,3-tetraphenyldisilazane;Bis(methyldiphenylsilyl)amine;1,1,3,3-Tetraphenyl-1,3-dimethyldisilazane",
    "duplicated_cas_no": "",
    "SMILES": "[Si](N[Si](C)(C1=CC=CC=C1)C2=CC=CC=C2)(C)(C3=CC=CC=C3)C4=CC=CC=C4",
    "meta_data": {
        "InChI": "InChI=1S/C26H27NSi2/c1-28(23-15-7-3-8-16-23,24-17-9-4-10-18-24)27-29(2,25-19-11-5-12-20-25)26-21-13-6-14-22-26/h3-22,27H,1-2H3",
        "InChIKey": null,
        "Canonical SMILES": "C=1C=CC(=CC1)[Si](N[Si](C=2C=CC=CC2)(C=3C=CC=CC3)C)(C=4C=CC=CC4)C",
        "Molecular Formula": "C<sub>26</sub>H<sub>27</sub>NSi<sub>2</sub>",
        "Molecular Mass": "409.67",
        "Boiling Point": "218-231 °C @ Press: 1-2 Torr",
        "Melting Point": "90.5-91.5 °C"
    }
}