{
    "cas_no": "73305-12-1",
    "key_name": "<em>N</em>-(2-Nitrophenyl)hydrazinecarbothioamide",
    "cn_name": null,
    "alternate_name": "Hydrazinecarbothioamide, <em>N</em>-(2-nitrophenyl)-;<em>N</em>-(2-Nitrophenyl)hydrazinecarbothioamide;4-(2-Nitrophenyl)-3-thiosemicarbazide;1-Amino-3-(2-nitrophenyl)thiourea;3-Amino-1-(2-nitrophenyl)thiourea",
    "duplicated_cas_no": "",
    "SMILES": "N(=O)(=O)C1=C(NC(NN)=S)C=CC=C1",
    "meta_data": {
        "InChI": "InChI=1S/C7H8N4O2S/c8-10-7(14)9-5-3-1-2-4-6(5)11(12)13/h1-4H,8H2,(H2,9,10,14)",
        "InChIKey": null,
        "Canonical SMILES": "O=N(=O)C=1C=CC=CC1NC(=S)NN",
        "Molecular Formula": "C<sub>7</sub>H<sub>8</sub>N<sub>4</sub>O<sub>2</sub>S",
        "Molecular Mass": "212.23",
        "Melting Point": "72 °C"
    }
}