{
    "cas_no": "6814-58-0",
    "key_name": "5-Chloro-3-methyl-4-nitro-1<em>H</em>-pyrazole",
    "cn_name": null,
    "alternate_name": "1<em>H</em>-Pyrazole, 3-chloro-5-methyl-4-nitro-;Pyrazole, 3(<em>or</em> 5)-chloro-5(<em>or</em> 3)-methyl-4-nitro-;3-Chloro-5-methyl-4-nitro-1<em>H</em>-pyrazole;ABG 3030;Release;5-Chloro-3-methyl-4-nitro-1<em>H</em>-pyrazole;CMN-Pyrazole;3-Chloro-4-nitro-5-methyl-1<em>H</em>-pyrazole",
    "duplicated_cas_no": "13551-81-0;52452-89-8;66163-48-2;73536-00-2;83588-42-5;383383-22-0;524726-08-7;925643-70-5;948551-16-4",
    "SMILES": "N(=O)(=O)C1=C(C)NN=C1Cl",
    "meta_data": {
        "InChI": "InChI=1S/C4H4ClN3O2/c1-2-3(8(9)10)4(5)7-6-2/h1H3,(H,6,7)",
        "InChIKey": null,
        "Canonical SMILES": "O=N(=O)C=1C(Cl)=NNC1C",
        "Molecular Formula": "C<sub>4</sub>H<sub>4</sub>ClN<sub>3</sub>O<sub>2</sub>",
        "Molecular Mass": "161.55",
        "Melting Point": "111 °C"
    }
}