{
    "cas_no": "518-83-2",
    "key_name": "Xanthopurpurin",
    "cn_name": null,
    "alternate_name": "9,10-Anthracenedione, 1,3-dihydroxy-;Anthraquinone, 1,3-dihydroxy-;Xanthopurpurin;1,3-Dihydroxy-9,10-anthracenedione;C.I. 75340;1,3-Dihydroxyanthraquinone;Purpuroxanthin;Purpuroxanthine;Xanthopurpurine;1,3-Dihydroxy-9,10-anthraquinone;1,3-Dihydroxy-9,10-dihydroanthracene-9,10-dione",
    "duplicated_cas_no": "",
    "SMILES": "O=C1C=2C(C(=O)C=3C1=CC=CC3)=CC(O)=CC2O",
    "meta_data": {
        "InChI": "InChI=1S/C14H8O4/c15-7-5-10-12(11(16)6-7)14(18)9-4-2-1-3-8(9)13(10)17/h1-6,15-16H",
        "InChIKey": null,
        "Canonical SMILES": "O=C1C=2C=CC=CC2C(=O)C=3C(O)=CC(O)=CC13",
        "Molecular Formula": "C<sub>14</sub>H<sub>8</sub>O<sub>4</sub>",
        "Molecular Mass": "240.21",
        "Melting Point": "262 °C"
    }
}