{
    "cas_no": "543-87-3",
    "key_name": "Isoamyl nitrate",
    "cn_name": "3-甲基-1-丁醇硝酸酯;硝基异戊酯;硝酸异戊酯;",
    "alternate_name": "1-Butanol, 3-methyl-, 1-nitrate;Isopentyl alcohol, nitrate;Isopentyl nitrate;1-Butanol, 3-methyl-, nitrate;<em>Iso</em>-Amylnitrate;Isoamyl nitrate;3-Methylbutyl nitrate",
    "duplicated_cas_no": "",
    "SMILES": "C(CC(C)C)ON(=O)=O",
    "meta_data": {
        "InChI": "InChI=1S/C5H11NO3/c1-5(2)3-4-9-6(7)8/h5H,3-4H2,1-2H3",
        "InChIKey": null,
        "Canonical SMILES": "O=N(=O)OCCC(C)C",
        "Molecular Formula": "C<sub>5</sub>H<sub>11</sub>NO<sub>3</sub>",
        "Molecular Mass": "133.15",
        "Boiling Point": "148 °C",
        "Melting Point": "&lt;0 °C"
    }
}