{
    "cas_no": "626-06-2",
    "key_name": "2,6-Dihydroxypyridine",
    "cn_name": "2,6-二羟基吡啶;",
    "alternate_name": "2(1<em>H</em>)-Pyridinone, 6-hydroxy-;2(1<em>H</em>)-Pyridone, 6-hydroxy-;6-Hydroxy-2(1<em>H</em>)-pyridinone;2,6-Dihydroxypyridine;6-Hydroxy-2-pyridone;2-Hydroxy-6-pyridinone;1-Deazauracil",
    "duplicated_cas_no": "14346-45-3",
    "SMILES": "O=C1NC(O)=CC=C1",
    "meta_data": {
        "InChI": "InChI=1S/C5H5NO2/c7-4-2-1-3-5(8)6-4/h1-3H,(H2,6,7,8)",
        "InChIKey": null,
        "Canonical SMILES": "O=C1C=CC=C(O)N1",
        "Molecular Formula": "C<sub>5</sub>H<sub>5</sub>NO<sub>2</sub>",
        "Molecular Mass": "111.10",
        "Melting Point": "202-203 °C"
    }
}