{
    "cas_no": "776-19-2",
    "key_name": "1,3,4,6-Tetrachlorotetrahydroimidazo[4,5-<em>d</em>]imidazole-2,5(1<em>H</em>,3<em>H</em>)-dione",
    "cn_name": "四氯甘脲;1,3,4,6-四氯甘脲;",
    "alternate_name": "Imidazo[4,5-<em>d</em>]imidazole-2,5(1<em>H</em>,3<em>H</em>)-dione, 1,3,4,6-tetrachlorotetrahydro-;Glycoluril, 1,3,4,6-tetrachloro-;1,3,4,6-Tetrachlorotetrahydroimidazo[4,5-<em>d</em>]imidazole-2,5(1<em>H</em>,3<em>H</em>)-dione;1,3,4,6-Tetrachloroglycoluril;2,4,6,8-Tetrachloro-2,4,6,8-tetraazabicyclo[3.3.0]octane-3,7-dione;Tetrachloroglycoluril;Qiangluan;NSC 100721",
    "duplicated_cas_no": "",
    "SMILES": "ClN1C2C(N(Cl)C(=O)N2Cl)N(Cl)C1=O",
    "meta_data": {
        "InChI": "InChI=1S/C4H2Cl4N4O2/c5-9-1-2(11(7)3(9)13)12(8)4(14)10(1)6/h1-2H",
        "InChIKey": null,
        "Canonical SMILES": "O=C1N(Cl)C2N(Cl)C(=O)N(Cl)C2N1Cl",
        "Molecular Formula": "C<sub>4</sub>H<sub>2</sub>Cl<sub>4</sub>N<sub>4</sub>O<sub>2</sub>",
        "Molecular Mass": "279.90",
        "Melting Point": "205 °C (decomp)"
    }
}