{
    "cas_no": "17672-22-9",
    "key_name": "2-Amino-6-methylphenol",
    "cn_name": null,
    "alternate_name": "Phenol, 2-amino-6-methyl-;<em>o</em>-Cresol, 6-amino-;2-Amino-6-methylphenol;6-Amino-<em>o</em>-cresol;6-Amino-2-methylphenol;6-Methyl-2-aminophenol;6-Methyl-o-aminophenol;6-Amino-2-cresol;2-Hydroxy-3-methylaniline",
    "duplicated_cas_no": "",
    "SMILES": "OC1=C(C)C=CC=C1N",
    "meta_data": {
        "InChI": "InChI=1S/C7H9NO/c1-5-3-2-4-6(8)7(5)9/h2-4,9H,8H2,1H3",
        "InChIKey": null,
        "Canonical SMILES": "OC=1C(N)=CC=CC1C",
        "Molecular Formula": "C<sub>7</sub>H<sub>9</sub>NO",
        "Molecular Mass": "123.15",
        "Melting Point": "89 °C"
    }
}