{
    "cas_no": "59-63-2",
    "key_name": "Isocarboxazid",
    "cn_name": "异卡波肼;异卡波肼;",
    "alternate_name": "3-Isoxazolecarboxylic acid, 5-methyl-, 2-(phenylmethyl)hydrazide;3-Isoxazolecarboxylic acid, 5-methyl-, 2-benzylhydrazide;Ro 5-0831;<em>N</em>′-Benzyl <em>N</em>-methyl-5-isoxazolecarboxylhydrazide-3;1-Benzyl-2-(5-methyl-3-isoxazolyl-carbonyl)hydrazine;Isocarboxazid;Isocarboxazide;Isocarboxyzid;Marplan;5-Methyl-3-isoxazolecarboxylic acid 2-benzylhydrazide;Benazide;BMIH;Enerzer;Marplon;NSC 169893;MeSH ID: D007520",
    "duplicated_cas_no": "",
    "SMILES": "C(NNCC1=CC=CC=C1)(=O)C=2C=C(C)ON2",
    "meta_data": {
        "InChI": "InChI=1S/C12H13N3O2/c1-9-7-11(15-17-9)12(16)14-13-8-10-5-3-2-4-6-10/h2-7,13H,8H2,1H3,(H,14,16)",
        "InChIKey": null,
        "Canonical SMILES": "O=C(NNCC=1C=CC=CC1)C2=NOC(=C2)C",
        "Molecular Formula": "C<sub>12</sub>H<sub>13</sub>N<sub>3</sub>O<sub>2</sub>",
        "Molecular Mass": "231.25",
        "Melting Point": "105-106 °C"
    }
}