{
    "cas_no": "385-01-3",
    "key_name": "3-Fluoro-2-nitrophenol",
    "cn_name": "3-氟-2-硝基苯酚;2-硝基-3-氟苯酚;",
    "alternate_name": "Phenol, 3-fluoro-2-nitro-;3-Fluoro-2-nitrophenol;2-Nitro-3-fluorophenol",
    "duplicated_cas_no": "",
    "SMILES": "N(=O)(=O)C1=C(F)C=CC=C1O",
    "meta_data": {
        "InChI": "InChI=1S/C6H4FNO3/c7-4-2-1-3-5(9)6(4)8(10)11/h1-3,9H",
        "InChIKey": null,
        "Canonical SMILES": "O=N(=O)C=1C(F)=CC=CC1O",
        "Molecular Formula": "C<sub>6</sub>H<sub>4</sub>FNO<sub>3</sub>",
        "Molecular Mass": "157.10",
        "Melting Point": "39 °C"
    }
}