{
    "cas_no": "464-05-1",
    "key_name": "Pyridinium trifluoroacetate",
    "cn_name": "三氟乙酸吡啶鎓;",
    "alternate_name": "Acetic acid, 2,2,2-trifluoro-, compd. with pyridine (1:1);Pyridine, trifluoroacetate;Acetic acid, trifluoro-, compd. with pyridine (1:1);Trifluoroacetic acid-pyridine complex;Pyridinium trifluoroacetate;NSC 211755",
    "duplicated_cas_no": "",
    "SMILES": "C=1C=CN=CC1.C(C(O)=O)(F)(F)F",
    "meta_data": {
        "InChI": "InChI=1S/C5H5N.C2HF3O2/c1-2-4-6-5-3-1;3-2(4,5)1(6)7/h1-5H;(H,6,7)",
        "InChIKey": null,
        "Canonical SMILES": "O=C(O)C(F)(F)F.N=1C=CC=CC1",
        "Molecular Formula": "C<sub>5</sub>H<sub>5</sub>N.C<sub>2</sub>HF<sub>3</sub>O<sub>2</sub>",
        "Molecular Mass": "",
        "Melting Point": "82-83 °C"
    }
}