{
    "cas_no": "3433-37-2",
    "key_name": "2-Piperidinemethanol",
    "cn_name": "2-羟甲基哌啶;2-哌啶甲醇;2-甲醇哌啶;",
    "alternate_name": "2-Piperidinemethanol;2-Hydroxymethylpiperidine;2-Piperidinylmethanol;(±)-2-Piperidinemethanol",
    "duplicated_cas_no": "2554-59-8",
    "SMILES": "C(O)C1CCCCN1",
    "meta_data": {
        "InChI": "InChI=1S/C6H13NO/c8-5-6-3-1-2-4-7-6/h6-8H,1-5H2",
        "InChIKey": null,
        "Canonical SMILES": "OCC1NCCCC1",
        "Molecular Formula": "C<sub>6</sub>H<sub>13</sub>NO",
        "Molecular Mass": "115.17",
        "Boiling Point": "80-83 °C @ Press: 1 Torr",
        "Melting Point": "69 °C"
    }
}