{
    "cas_no": "294-92-8",
    "key_name": "1,7-Dioxa-4,10-diazacyclododecane",
    "cn_name": "1,7-二氮-12-冠醚-4;1,7-二氮-12-冠醚-4;",
    "alternate_name": "1,7-Dioxa-4,10-diazacyclododecane;1,7-Diaza-4,10-dioxacyclododecane;1,7-Diaza-12-crown-4;4,10-Diaza-12-crown-4",
    "duplicated_cas_no": "135949-33-6",
    "SMILES": "C1COCCNCCOCCN1",
    "meta_data": {
        "InChI": "InChI=1S/C8H18N2O2/c1-5-11-7-3-10-4-8-12-6-2-9-1/h9-10H,1-8H2",
        "InChIKey": null,
        "Canonical SMILES": "O1CCNCCOCCNCC1",
        "Molecular Formula": "C<sub>8</sub>H<sub>18</sub>N<sub>2</sub>O<sub>2</sub>",
        "Molecular Mass": "174.24",
        "Melting Point": "82-84 °C"
    }
}