{
    "cas_no": "55-81-2",
    "key_name": "2-(4-Methoxyphenyl)ethylamine",
    "cn_name": "4-甲氧基苯乙胺;对甲氧基苯乙胺;",
    "alternate_name": "Benzeneethanamine, 4-methoxy-;Phenethylamine, <em>p</em>-methoxy-;4-Methoxybenzeneethanamine;Homoanisylamine;<em>p</em>-Methoxyphenethylamine;Tyramine, <em>O</em>-methyl-;4-Methoxyphenethylamine;4-Methoxyphenylethylamine;2-(<em>p</em>-Methoxyphenyl)ethylamine;4-Methoxy-β-phenethylamine;2-(4-Methoxyphenyl)ethylamine;4-Methoxy-β-phenylethylamine;<em>O</em>-Methyltyramine;2-(4-Methoxyphenyl)ethanamine;NSC 43687;[2-[4-(Methyloxy)phenyl]ethyl]amine;Tyramine methyl ether;2-(4-Methoxyphenyl)ethan-1-amine;1-(4-Methoxybenzyl)-<em>N</em>-methylamine",
    "duplicated_cas_no": "",
    "SMILES": "C(CN)C1=CC=C(OC)C=C1",
    "meta_data": {
        "InChI": "InChI=1S/C9H13NO/c1-11-9-4-2-8(3-5-9)6-7-10/h2-5H,6-7,10H2,1H3",
        "InChIKey": null,
        "Canonical SMILES": "O(C1=CC=C(C=C1)CCN)C",
        "Molecular Formula": "C<sub>9</sub>H<sub>13</sub>NO",
        "Molecular Mass": "151.21",
        "Boiling Point": "138-140 °C @ Press: 20 Torr",
        "Melting Point": "217 °C",
        "Density": "1.0365 g/cm³ @ Temp: 20 °C"
    }
}