{
    "cas_no": "111-42-2",
    "key_name": "Diethanolamine",
    "cn_name": "二乙醇胺;",
    "alternate_name": "Ethanol, 2,2′-iminobis-;Ethanol, 2,2′-iminodi-;2,2′-Iminobis[ethanol];Diethanolamine;2,2′-Dihydroxydiethylamine;Di(2-hydroxyethyl)amine;Bis(2-hydroxyethyl)amine;2,2′-Iminodi-1-ethanol;Iminodiethanol;2,2′-Iminodiethanol;<em>N</em>,<em>N</em>-Diethanolamine;Diolamine;2-[(2-Hydroxyethyl)amino]ethanol;<em>N</em>,<em>N</em>-Bis(2-hydroxyethyl)amine;Bis(hydroxyethyl)amine;Di(β-hydroxyethyl)amine;Niax DEOA-LF;Dabco DEOA-LF;NSC 4959;DEA 80;DEAO-LF;<em>N</em>,<em>N</em>-Di(2-hydroxyethyl)amine;Diethanolamine 80;Tegoamin DEOA 85;DEOA LF;2,2′-Azanediyldiethanol;2,2′-Azanediylbis(ethanol);D 5230;DEOA;2-[(2-Hydroxyethyl)amino]ethan-1-ol;Tegoamin DEOA;S 0376;PC DEOA",
    "duplicated_cas_no": "8033-73-6;165126-26-1;1357848-47-5;2122854-14-0",
    "SMILES": "N(CCO)CCO",
    "meta_data": {
        "InChI": "InChI=1S/C4H11NO2/c6-3-1-5-2-4-7/h5-7H,1-4H2",
        "InChIKey": null,
        "Canonical SMILES": "OCCNCCO",
        "Molecular Formula": "C<sub>4</sub>H<sub>11</sub>NO<sub>2</sub>",
        "Molecular Mass": "105.14",
        "Boiling Point": "268.8 °C @ Press: 760 Torr",
        "Melting Point": "28 °C",
        "Density": "1.0966 g/cm³ @ Temp: 20 °C"
    }
}