{
    "cas_no": "146374-27-8",
    "key_name": "2-Methyl-2-propanesulfinamide",
    "cn_name": "(S)-(-)-叔丁基亚磺酰胺;",
    "alternate_name": "2-Propanesulfinamide, 2-methyl-;2-Methyl-2-propanesulfinamide;<em>tert</em>-Butylsulfinamide;1,1-Dimethylethylsulfinamide;(±)-<em>tert</em>-Butylsulfinamide;2-Methylpropan-2-sulfinamide;<em>tert</em>-Butanesulfinamide",
    "duplicated_cas_no": "",
    "SMILES": "C(S(N)=O)(C)(C)C",
    "meta_data": {
        "InChI": "InChI=1S/C4H11NOS/c1-4(2,3)7(5)6/h5H2,1-3H3",
        "InChIKey": null,
        "Canonical SMILES": "O=S(N)C(C)(C)C",
        "Molecular Formula": "C<sub>4</sub>H<sub>11</sub>NOS",
        "Molecular Mass": "121.20",
        "Melting Point": "98-100 °C"
    }
}