{
    "cas_no": "66415-55-2",
    "key_name": "3-(Ethenyloxy)-1-propanamine",
    "cn_name": null,
    "alternate_name": "1-Propanamine, 3-(ethenyloxy)-;Propylamine, 3-(vinyloxy)-;3-(Ethenyloxy)-1-propanamine;3-(Vinyloxy)propylamine;3-Aminopropyl vinyl ether;3-Vinyloxy-1-propanamine;3-(Vinyloxy)-1-propylamine;3-Ethenoxypropan-1-amine",
    "duplicated_cas_no": "",
    "SMILES": "C(CCN)OC=C",
    "meta_data": {
        "InChI": "InChI=1S/C5H11NO/c1-2-7-5-3-4-6/h2H,1,3-6H2",
        "InChIKey": null,
        "Canonical SMILES": "O(C=C)CCCN",
        "Molecular Formula": "C<sub>5</sub>H<sub>11</sub>NO",
        "Molecular Mass": "101.15",
        "Boiling Point": "141-142 °C"
    }
}