{
    "cas_no": "610-54-8",
    "key_name": "1-Ethoxy-2,4-dinitrobenzene",
    "cn_name": "2,4-二硝基苯乙醚;",
    "alternate_name": "Benzene, 1-ethoxy-2,4-dinitro-;Phenetole, 2,4-dinitro-;1-Ethoxy-2,4-dinitrobenzene;2,4-Dinitrophenyl ethyl ether;2,4-Dinitrophenetole;1,3-Dinitro-4-ethoxybenzene;NSC 6227;2,4-Dinitro-1-ethoxybenzene",
    "duplicated_cas_no": "",
    "SMILES": "N(=O)(=O)C1=C(OCC)C=CC(N(=O)=O)=C1",
    "meta_data": {
        "InChI": "InChI=1S/C8H8N2O5/c1-2-15-8-4-3-6(9(11)12)5-7(8)10(13)14/h3-5H,2H2,1H3",
        "InChIKey": null,
        "Canonical SMILES": "O=N(=O)C1=CC=C(OCC)C(=C1)N(=O)=O",
        "Molecular Formula": "C<sub>8</sub>H<sub>8</sub>N<sub>2</sub>O<sub>5</sub>",
        "Molecular Mass": "212.16",
        "Melting Point": "87 °C"
    }
}