{
    "cas_no": "339-72-0",
    "key_name": "<span class=\"text-smallcaps\">L</span>-Cycloserine",
    "cn_name": "3-氟-4-(三氟甲基)苯甲醛;左环丝氨酸;环丝氨酸;L-4-氨基-3-异噁唑烷酮;L-环丝氨酸;D-4-异唑基酮;草霉素PA-9;",
    "alternate_name": "3-Isoxazolidinone, 4-amino-, (4<em>S</em>)-;3-Isoxazolidinone, 4-amino-, (-)-;3-Isoxazolidinone, 4-amino-, (<em>S</em>)-;(4<em>S</em>)-4-Amino-3-isoxazolidinone;<span class=\"text-smallcaps\">L</span>-Cycloserine;(<em>S</em>)-Cycloserine;<em>l</em>-4-Amino-3-isoxazolidinone;(<em>S</em>)-(-)-Cycloserine;<span class=\"text-smallcaps\">L</span>-4-Amino-3-isoxazolidinone;Cyclo-<span class=\"text-smallcaps\">L</span>-serine;Levcycloserine;(4S)-4-Amino-4,5-dihydro-1,2-oxazol-3-ol;(4S)-4-Amino-1,2-oxazolidin-3-one;(4S)-4-Azaniumyl-4,5-dihydro-1,2-oxazol-3-olate;(<em>S</em>)-4-Aminoisoxazolidin-3-one",
    "duplicated_cas_no": "433-56-7",
    "SMILES": "N[C@@H]1C(=O)NOC1",
    "meta_data": {
        "InChI": "InChI=1S/C3H6N2O2/c4-2-1-7-5-3(2)6/h2H,1,4H2,(H,5,6)/t2-/m0/s1",
        "InChIKey": null,
        "Canonical SMILES": "O=C1NOCC1N",
        "Molecular Formula": "C<sub>3</sub>H<sub>6</sub>N<sub>2</sub>O<sub>2</sub>",
        "Molecular Mass": "102.09",
        "Melting Point": "153-154 °C"
    }
}