{
    "cas_no": "94-14-4",
    "key_name": "Isobutyl <em>p</em>-aminobenzoate",
    "cn_name": "异丁基4-氨基苯甲酸;",
    "alternate_name": "Benzoic acid, 4-amino-, 2-methylpropyl ester;Cycloform;Benzoic acid, <em>p</em>-amino-, isobutyl ester;Isobutyl p-aminobenzoate;Isobutyl Keloform;Isocaine;Isobutyl <em>p</em>-aminobenzoate;Isobutyl 4-aminobenzoate;Isobutylcaine;Benzamelid;Cicloforme;Cyclocaine;Cyclogesin;Isobutamben;Isobutyl <em>p</em>-aminobenzobenzoate;NSC 23517;Isobutambene;2-Methylpropyl 4-aminobenzoate",
    "duplicated_cas_no": "",
    "SMILES": "C(OCC(C)C)(=O)C1=CC=C(N)C=C1",
    "meta_data": {
        "InChI": "InChI=1S/C11H15NO2/c1-8(2)7-14-11(13)9-3-5-10(12)6-4-9/h3-6,8H,7,12H2,1-2H3",
        "InChIKey": null,
        "Canonical SMILES": "O=C(OCC(C)C)C1=CC=C(N)C=C1",
        "Molecular Formula": "C<sub>11</sub>H<sub>15</sub>NO<sub>2</sub>",
        "Molecular Mass": "193.24",
        "Melting Point": "64.5 °C"
    }
}