{
    "cas_no": "504-78-9",
    "key_name": "Thiazolidine",
    "cn_name": "噻唑烷;",
    "alternate_name": "Thiazolidine;Thiazole, tetrahydro-;1-Thia-3-azacyclopentane;Tetrahydrothiazole;1,3-Thiazolidine",
    "duplicated_cas_no": "",
    "SMILES": "C1CSCN1",
    "meta_data": {
        "InChI": "InChI=1S/C3H7NS/c1-2-5-3-4-1/h4H,1-3H2",
        "InChIKey": null,
        "Canonical SMILES": "S1CNCC1",
        "Molecular Formula": "C<sub>3</sub>H<sub>7</sub>NS",
        "Molecular Mass": "89.16",
        "Boiling Point": "164-165 °C",
        "Density": "1.131 g/cm³ @ Temp: 25 °C"
    }
}