{
    "cas_no": "4651-67-6",
    "key_name": "7-Ketolithocholic acid",
    "cn_name": "3Α-羟基-7-氧代-5Β-胆烷酸;",
    "alternate_name": "Cholan-24-oic acid, 3-hydroxy-7-oxo-, (3α,5β)-;5β-Cholan-24-oic acid, 3α-hydroxy-7-oxo-;5β-Cholanic acid, 3α-hydroxy-7-oxo-;(3α,5β)-3-Hydroxy-7-oxocholan-24-oic acid;3α-Hydroxy-7-oxo-5β-cholanoic acid;7-Ketochenodeoxycholic acid;7-Ketolithocholic acid;7-Oxolithocholic acid;7-Oxo-3α-hydroxycholan-24-oic acid;3α-Hydroxy-7-oxo-5β-cholanic acid;5β-Cholanic acid-3α-ol-7-one;3α-Hydroxy-7-oxo-5β-cholan-24-oic acid;Nutriacholic acid;NSC 226118;7-<em>keto</em>-Lithocholic acid;3α-Hydroxy-7-oxo-5β-cholic acid;3α-Hydroxy-7-<em>keto</em>-5β-cholanic acid;7K-LCA;3α-Hydroxy-7-<em>keto</em>-5β-cholan-24-oic acid;<em>keto</em>-Lithocholic acid",
    "duplicated_cas_no": "98646-38-9",
    "SMILES": "C[C@@]12[C@]([C@]3([C@@]([C@]4(C)[C@](CC3=O)(C[C@H](O)CC4)[H])(CC1)[H])[H])(CC[C@@]2([C@@H](CCC(O)=O)C)[H])[H]",
    "meta_data": {
        "InChI": "InChI=1S/C24H38O4/c1-14(4-7-21(27)28)17-5-6-18-22-19(9-11-24(17,18)3)23(2)10-8-16(25)12-15(23)13-20(22)26/h14-19,22,25H,4-13H2,1-3H3,(H,27,28)/t14-,15+,16-,17-,18+,19+,22+,23+,24-/m1/s1",
        "InChIKey": null,
        "Canonical SMILES": "O=C(O)CCC(C)C1CCC2C3C(=O)CC4CC(O)CCC4(C)C3CCC12C",
        "Molecular Formula": "C<sub>24</sub>H<sub>38</sub>O<sub>4</sub>",
        "Molecular Mass": "390.56",
        "Melting Point": "202-203 °C"
    }
}