{
    "cas_no": "586-37-8",
    "key_name": "3-Methoxyacetophenone",
    "cn_name": "3-甲氧基苯乙酮;间甲氧基苯乙酮;",
    "alternate_name": "Ethanone, 1-(3-methoxyphenyl)-;Acetophenone, 3′-methoxy-;1-(3-Methoxyphenyl)ethanone;3-Methoxyacetophenone;3′-Methoxyacetophenon;3′-Methoxyacetophenone;3-Acetylanisole;Methyl 3-methoxyphenyl ketone;<em>m</em>-Methoxyacetophenone;1-Acetyl-3-methoxybenzene;3-Methoxyphenyl methyl ketone;<em>m</em>-Acetylanisole;NSC 65593;3-Methoxy-1-acetylbenzene;<em>m</em>-Acetanisole;1-(3-Methoxyphenyl)ethan-1-one;3-Methoxy hypnone",
    "duplicated_cas_no": "",
    "SMILES": "C(C)(=O)C1=CC(OC)=CC=C1",
    "meta_data": {
        "InChI": "InChI=1S/C9H10O2/c1-7(10)8-4-3-5-9(6-8)11-2/h3-6H,1-2H3",
        "InChIKey": null,
        "Canonical SMILES": "O=C(C=1C=CC=C(OC)C1)C",
        "Molecular Formula": "C<sub>9</sub>H<sub>10</sub>O<sub>2</sub>",
        "Molecular Mass": "150.17",
        "Boiling Point": "240 °C",
        "Melting Point": "95.5 °C",
        "Density": "1.0993 g/cm³ @ Temp: 15 °C"
    }
}