{
    "cas_no": "71678-03-0",
    "key_name": "Ilimaquinone",
    "cn_name": "3-[(十氢-1Β,2Β,4AΒ-三甲基-5-亚甲基-1-萘基)甲基]-2-羟基-5-甲氧基苯醌;",
    "alternate_name": "2,5-Cyclohexadiene-1,4-dione, 3-[[(1<em>R</em>,2<em>S</em>,4a<em>S</em>,8a<em>S</em>)-decahydro-1,2,4a-trimethyl-5-methylene-1-naphthalenyl]methyl]-2-hydroxy-5-methoxy-;2,5-Cyclohexadiene-1,4-dione, 3-[(decahydro-1,2,4a-trimethyl-5-methylene-1-naphthalenyl)methyl]-2-hydroxy-5-methoxy-, [1<em>R</em>-(1α,2β,4aβ,8aα)]-;3-[[(1<em>R</em>,2<em>S</em>,4a<em>S</em>,8a<em>S</em>)-Decahydro-1,2,4a-trimethyl-5-methylene-1-naphthalenyl]methyl]-2-hydroxy-5-methoxy-2,5-cyclohexadiene-1,4-dione;Ilimaquinone;Illimaquinone;(-)-Ilimaquinone",
    "duplicated_cas_no": "820243-60-5",
    "SMILES": "C([C@@]1(C)[C@]2([C@](C)(CC[C@@H]1C)C(=C)CCC2)[H])C=3C(=O)C(OC)=CC(=O)C3O",
    "meta_data": {
        "InChI": "InChI=1S/C22H30O4/c1-13-7-6-8-18-21(13,3)10-9-14(2)22(18,4)12-15-19(24)16(23)11-17(26-5)20(15)25/h11,14,18,24H,1,6-10,12H2,2-5H3/t14-,18+,21+,22+/m0/s1",
        "InChIKey": null,
        "Canonical SMILES": "O=C1C=C(OC)C(=O)C(=C1O)CC2(C)C(C)CCC3(C(=C)CCCC32)C",
        "Molecular Formula": "C<sub>22</sub>H<sub>30</sub>O<sub>4</sub>",
        "Molecular Mass": "358.47",
        "Melting Point": "108-110 °C"
    }
}