{
    "cas_no": "106917-52-6",
    "key_name": "Flusulfamide",
    "cn_name": "磺菌胺;",
    "alternate_name": "Benzenesulfonamide, 4-chloro-<em>N</em>-(2-chloro-4-nitrophenyl)-3-(trifluoromethyl)-;4-Chloro-<em>N</em>-(2-chloro-4-nitrophenyl)-3-(trifluoromethyl)benzenesulfonamide;MTF 651;Flusulfamide;3-Trifluoromethyl-4-chlorobenzenesulfone-2-chloro-4-nitroanilide;Scablock;NEBIJIN",
    "duplicated_cas_no": "1135443-44-5",
    "SMILES": "S(NC1=C(Cl)C=C(N(=O)=O)C=C1)(=O)(=O)C2=CC(C(F)(F)F)=C(Cl)C=C2",
    "meta_data": {
        "InChI": "InChI=1S/C13H7Cl2F3N2O4S/c14-10-3-2-8(6-9(10)13(16,17)18)25(23,24)19-12-4-1-7(20(21)22)5-11(12)15/h1-6,19H",
        "InChIKey": null,
        "Canonical SMILES": "O=N(=O)C1=CC=C(NS(=O)(=O)C2=CC=C(Cl)C(=C2)C(F)(F)F)C(Cl)=C1",
        "Molecular Formula": "C<sub>13</sub>H<sub>7</sub>Cl<sub>2</sub>F<sub>3</sub>N<sub>2</sub>O<sub>4</sub>S",
        "Molecular Mass": "415.17",
        "Melting Point": "170 °C"
    }
}