{
    "cas_no": "621-77-2",
    "key_name": "Tripentylamine",
    "cn_name": null,
    "alternate_name": "1-Pentanamine, <em>N</em>,<em>N</em>-dipentyl-;Tripentylamine;<em>N</em>,<em>N</em>-Dipentyl-1-pentanamine;Triamylamine;Tri-<em>n</em>-pentylamine;Tri-<em>n</em>-amylamine;NSC 406964",
    "duplicated_cas_no": "",
    "SMILES": "N(CCCCC)(CCCCC)CCCCC",
    "meta_data": {
        "InChI": "InChI=1S/C15H33N/c1-4-7-10-13-16(14-11-8-5-2)15-12-9-6-3/h4-15H2,1-3H3",
        "InChIKey": null,
        "Canonical SMILES": "N(CCCCC)(CCCCC)CCCCC",
        "Molecular Formula": "C<sub>15</sub>H<sub>33</sub>N",
        "Molecular Mass": "227.43",
        "Boiling Point": "242.5 °C"
    }
}