{
    "cas_no": "1118-89-4",
    "key_name": "<span class=\"text-smallcaps\">L</span>-Glutamic acid, 1,5-diethyl ester, hydrochloride (1:1)",
    "cn_name": "L-谷氨酸二乙酯盐酸盐;",
    "alternate_name": "<span class=\"text-smallcaps\">L</span>-Glutamic acid, 1,5-diethyl ester, hydrochloride (1:1);Glutamic acid, diethyl ester, hydrochloride, <span class=\"text-smallcaps\">L</span>-;<span class=\"text-smallcaps\">L</span>-Glutamic acid, diethyl ester, hydrochloride;Diethyl <span class=\"text-smallcaps\">L</span>-glutamate hydrochloride;Diethyl glutamate hydrochloride;Glutamic acid diethyl ester hydrochloride;NSC 12960;NSC 17007;(<em>S</em>)-1,5-Diethoxy-1,5-dioxopentan-2-amine hydrochloride;(<em>S</em>)-Diethyl 2-aminopentanedioate hydrochloride",
    "duplicated_cas_no": "",
    "SMILES": "C([C@@H](C(OCC)=O)N)CC(OCC)=O.Cl",
    "meta_data": {
        "InChI": "InChI=1S/C9H17NO4.ClH/c1-3-13-8(11)6-5-7(10)9(12)14-4-2;/h7H,3-6,10H2,1-2H3;1H/t7-;/m0./s1",
        "InChIKey": null,
        "Canonical SMILES": "Cl.O=C(OCC)CCC(N)C(=O)OCC",
        "Molecular Formula": "C<sub>9</sub>H<sub>17</sub>NO<sub>4</sub>.ClH",
        "Molecular Mass": "",
        "Melting Point": "112-113 °C"
    }
}