{
    "cas_no": "15872-43-2",
    "key_name": "4-(Nonyloxy)benzoic acid",
    "cn_name": "对壬氧基苯甲酸;4-壬氧基苯甲酸;液晶NB;",
    "alternate_name": "Benzoic acid, 4-(nonyloxy)-;Benzoic acid, <em>p</em>-(nonyloxy)-;4-(Nonyloxy)benzoic acid;<em>p</em>-(Nonyloxy)benzoic acid;<em>p</em>,<em>n</em>-Nonyloxybenzoic acid;4-Nonyloxybenzoic acid;<em>p</em>-(<em>n</em>-Nonoxy)benzoic acid;4-<em>n</em>-Nonyloxybenzoic acid",
    "duplicated_cas_no": "",
    "SMILES": "O(CCCCCCCCC)C1=CC=C(C(O)=O)C=C1",
    "meta_data": {
        "InChI": "InChI=1S/C16H24O3/c1-2-3-4-5-6-7-8-13-19-15-11-9-14(10-12-15)16(17)18/h9-12H,2-8,13H2,1H3,(H,17,18)",
        "InChIKey": null,
        "Canonical SMILES": "O=C(O)C1=CC=C(OCCCCCCCCC)C=C1",
        "Molecular Formula": "C<sub>16</sub>H<sub>24</sub>O<sub>3</sub>",
        "Molecular Mass": "264.36",
        "Melting Point": "118 °C (polymorph)"
    }
}