{
    "cas_no": "538-65-8",
    "key_name": "Butyl cinnamate",
    "cn_name": "肉桂酸丁酯;正丁基肉桂酸酯;",
    "alternate_name": "2-Propenoic acid, 3-phenyl-, butyl ester;Cinnamic acid, butyl ester;Butyl cinnamate;<em>n</em>-Butyl cinnamate;Cinnamic acid <em>n</em>-butyl ester;Eliminoxy;3-Phenyl-2-propenoic acid butyl ester;NSC 71966;Butyl 3-phenyl-2-propenoate;Butyl 3-phenylacrylate",
    "duplicated_cas_no": "",
    "SMILES": "C(=CC(OCCCC)=O)C1=CC=CC=C1",
    "meta_data": {
        "InChI": "InChI=1S/C13H16O2/c1-2-3-11-15-13(14)10-9-12-7-5-4-6-8-12/h4-10H,2-3,11H2,1H3",
        "InChIKey": null,
        "Canonical SMILES": "O=C(OCCCC)C=CC=1C=CC=CC1",
        "Molecular Formula": "C<sub>13</sub>H<sub>16</sub>O<sub>2</sub>",
        "Molecular Mass": "204.26",
        "Boiling Point": "177-178 °C @ Press: 13 Torr",
        "Density": "1.0270 g/cm³ @ Temp: 20 °C"
    }
}