{
    "cas_no": "1660-93-1",
    "key_name": "3,4,7,8-Tetramethyl-1,10-phenanthroline",
    "cn_name": "3,4,7,8-四甲基-1,10-菲罗啉;",
    "alternate_name": "1,10-Phenanthroline, 3,4,7,8-tetramethyl-;3,4,7,8-Tetramethyl-1,10-phenanthroline;3,4,7,8-Tetramethyl-<em>o</em>-phenanthroline;3,4,7,8-Tetramethylphenanthroline;3,4,7,8-Tetramethyl-1,10-diazaphenanthrene;TMPhen;Phenanthrene, 1,2,5,6-tetramethyl-",
    "duplicated_cas_no": "2408741-80-8",
    "SMILES": "CC=1C=2C(=C3C(C(C)=C(C)C=N3)=CC2)N=CC1C",
    "meta_data": {
        "InChI": "InChI=1S/C16H16N2/c1-9-7-17-15-13(11(9)3)5-6-14-12(4)10(2)8-18-16(14)15/h5-8H,1-4H3",
        "InChIKey": null,
        "Canonical SMILES": "N=1C=C(C(=C2C=CC3=C(N=CC(=C3C)C)C12)C)C",
        "Molecular Formula": "C<sub>16</sub>H<sub>16</sub>N<sub>2</sub>",
        "Molecular Mass": "236.31",
        "Melting Point": "278.5 °C"
    }
}