{
    "cas_no": "40244-90-4",
    "key_name": "Chlorodiisopropylphosphine",
    "cn_name": "氯二异丙基膦;",
    "alternate_name": "Phosphinous chloride, <em>P</em>,<em>P</em>-bis(1-methylethyl)-;Phosphinous chloride, bis(1-methylethyl)-;Phosphinous chloride, diisopropyl-;<em>P</em>,<em>P</em>-Bis(1-methylethyl)phosphinous chloride;Chlorodiisopropylphosphine;Diisopropylchlorophosphine;Diisopropylphosphinyl chloride;Diisopropylphosphinous chloride;Chlorobis(isopropyl)phosphine;Diisopropylphosphine chloride;Bis(1-methylethyl)phosphinous chloride",
    "duplicated_cas_no": "",
    "SMILES": "P(C(C)C)(C(C)C)Cl",
    "meta_data": {
        "InChI": "InChI=1S/C6H14ClP/c1-5(2)8(7)6(3)4/h5-6H,1-4H3",
        "InChIKey": null,
        "Canonical SMILES": "ClP(C(C)C)C(C)C",
        "Molecular Formula": "C<sub>6</sub>H<sub>14</sub>ClP",
        "Molecular Mass": "152.60",
        "Boiling Point": "55-60 °C @ Press: 10 Torr"
    }
}