{
    "cas_no": "10024-97-2",
    "key_name": "Nitrous oxide",
    "cn_name": "一氧化二氮[压缩的];一氧化二氮[压缩的]；氧化亚氮；笑气;",
    "alternate_name": "Nitrogen oxide (N<sub>2</sub>O);Laughing gas;Nitrous oxide;Dinitrogen oxide;Dinitrogen monoxide;Dinitrogen oxide (N<sub>2</sub>O);Hyponitrous acid anhydride;Factitious air;R 744A;MeSH ID: D009609",
    "duplicated_cas_no": "126386-65-0;129451-49-6;130835-71-1;147527-07-9;175876-44-5;794457-85-5;847968-13-2;850203-00-8;1818889-29-0;2227102-37-4",
    "SMILES": "N(#N)=O",
    "meta_data": {
        "InChI": "InChI=1S/N2O/c1-2-3",
        "InChIKey": null,
        "Canonical SMILES": "N#N=O",
        "Molecular Formula": "N<sub>2</sub>O",
        "Molecular Mass": "44.01",
        "Boiling Point": "-88.48 °C",
        "Melting Point": "-90.8 °C",
        "Density": "1.23 g/cm³ @ Temp: -89 °C"
    }
}