{
    "cas_no": "2348-82-5",
    "key_name": "2-Methoxy-1,4-naphthoquinone",
    "cn_name": "2-甲氧基-1,4-萘并醌;",
    "alternate_name": "1,4-Naphthalenedione, 2-methoxy-;1,4-Naphthoquinone, 2-methoxy-;2-Methoxy-1,4-naphthalenedione;2-Methoxy-1,4-naphthoquinone;2-Methoxy-<em>p</em>-naphthoquinone;2-Methoxynaphthoquinone;NSC 31530;Lawsone methyl ether;<em>O</em>-Methyllawsone;2-Methoxy-1,4-dihydronaphthalene-1,4-dione",
    "duplicated_cas_no": "",
    "SMILES": "O=C1C=2C(C(=O)C=C1OC)=CC=CC2",
    "meta_data": {
        "InChI": "InChI=1S/C11H8O3/c1-14-10-6-9(12)7-4-2-3-5-8(7)11(10)13/h2-6H,1H3",
        "InChIKey": null,
        "Canonical SMILES": "O=C1C=C(OC)C(=O)C=2C=CC=CC12",
        "Molecular Formula": "C<sub>11</sub>H<sub>8</sub>O<sub>3</sub>",
        "Molecular Mass": "188.18",
        "Melting Point": "184-185 °C"
    }
}