{
    "cas_no": "692-49-9",
    "key_name": "<em>cis</em>-1,1,1,4,4,4-Hexafluoro-2-butene",
    "cn_name": null,
    "alternate_name": "2-Butene, 1,1,1,4,4,4-hexafluoro-, (2<em>Z</em>)-;2-Butene, 1,1,1,4,4,4-hexafluoro-, (<em>Z</em>)-;(2<em>Z</em>)-1,1,1,4,4,4-Hexafluoro-2-butene;<em>cis</em>-1,1,1,4,4,4-Hexafluoro-2-butene;HFC 1336mzz;Z-FC 1336mzz;HFO 1336mzzm(z);<em>Z</em>-1,1,1,4,4,4-Hexafluoro-2-butene;Z-F 11E;HCFO-1336mzz(Z);(<em>Z</em>)-HFO 1336;<em>Z</em>-HFO 1336mzz;HFO-Z 1336mzz;1336mzzZ;HFO 1336mzz-Z;Opteon 1100;Formacel 1100;Formacel FEA 1100;FEA 1100;R 1336mzz(Z);HFO-1336mzz(<em>Z</em>);Opteon SF 33;(Z)-HFO 1336mzz",
    "duplicated_cas_no": "",
    "SMILES": "C(=C\\C(F)(F)F)\\C(F)(F)F",
    "meta_data": {
        "InChI": "InChI=1S/C4H2F6/c5-3(6,7)1-2-4(8,9)10/h1-2H/b2-1-",
        "InChIKey": null,
        "Canonical SMILES": "FC(F)(F)C=CC(F)(F)F",
        "Molecular Formula": "C<sub>4</sub>H<sub>2</sub>F<sub>6</sub>",
        "Molecular Mass": "164.05",
        "Boiling Point": "34-36 °C",
        "Density": "1.56676 g/cm³ @ Temp: 10.000 °C; Press: 7.50 x 10⁵ Torr"
    }
}