{
    "cas_no": "106-19-4",
    "key_name": "Dipropyl adipate",
    "cn_name": "己二酸二丙酯;",
    "alternate_name": "Hexanedioic acid, 1,6-dipropyl ester;Adipic acid, dipropyl ester;Hexanedioic acid, dipropyl ester;Dipropyl adipate;Di-<em>n</em>-propyl adipate;Dipropyl hexanedioate;Adipic acid di-<em>n</em>-propyl ester;NSC 4894",
    "duplicated_cas_no": "",
    "SMILES": "C(CCCCC(OCCC)=O)(OCCC)=O",
    "meta_data": {
        "InChI": "InChI=1S/C12H22O4/c1-3-9-15-11(13)7-5-6-8-12(14)16-10-4-2/h3-10H2,1-2H3",
        "InChIKey": null,
        "Canonical SMILES": "O=C(OCCC)CCCCC(=O)OCCC",
        "Molecular Formula": "C<sub>12</sub>H<sub>22</sub>O<sub>4</sub>",
        "Molecular Mass": "230.30",
        "Boiling Point": "155 °C @ Press: 16 Torr",
        "Melting Point": "-15.7 °C",
        "Density": "0.9804 g/cm³ @ Temp: 20 °C"
    }
}