{
    "cas_no": "32774-16-6",
    "key_name": "3,3′,4,4′,5,5′-Hexachlorobiphenyl",
    "cn_name": null,
    "alternate_name": "1,1′-Biphenyl, 3,3′,4,4′,5,5′-hexachloro-;Biphenyl, 3,3′,4,4′,5,5′-hexachloro-;3,3′,4,4′,5,5′-Hexachloro-1,1′-biphenyl;3,3′,4,4′,5,5′-Hexachlorobiphenyl;3,4,5,3′,4′,5′-Hexachlorobiphenyl;PCB 169;CB 169;HxCB 169;H 6CB 169",
    "duplicated_cas_no": "",
    "SMILES": "ClC=1C=C(C=C(Cl)C1Cl)C2=CC(Cl)=C(Cl)C(Cl)=C2",
    "meta_data": {
        "InChI": "InChI=1S/C12H4Cl6/c13-7-1-5(2-8(14)11(7)17)6-3-9(15)12(18)10(16)4-6/h1-4H",
        "InChIKey": null,
        "Canonical SMILES": "ClC=1C=C(C=C(Cl)C1Cl)C=2C=C(Cl)C(Cl)=C(Cl)C2",
        "Molecular Formula": "C<sub>12</sub>H<sub>4</sub>Cl<sub>6</sub>",
        "Molecular Mass": "360.88",
        "Melting Point": "198 °C"
    }
}