{
    "cas_no": "4209-24-9",
    "key_name": "2-Chloro-1-(4-methylphenyl)ethanone",
    "cn_name": null,
    "alternate_name": "Ethanone, 2-chloro-1-(4-methylphenyl)-;Acetophenone, 2-chloro-4′-methyl-;2-Chloro-1-(4-methylphenyl)ethanone;<em>p</em>-Methylphenacyl chloride;<em>p</em>-Methyl-2-chloroacetophenone;α-Chloro-4′-methylacetophenone;4-Methylphenacyl chloride;2-Chloro-4′-methylacetophenone;4-(2-Chloroacetyl)toluene;Chloromethyl 4-methylphenyl ketone;2-Chloro-1-(4′-methylphenyl)ethanone;Chloromethyl <em>p</em>-tolyl ketone;NSC 41667;2-Chloro-1-(<em>p</em>-tolyl)ethanone;2-Chloro-1-(4-methylphenyl)ethan-1-one",
    "duplicated_cas_no": "",
    "SMILES": "C(CCl)(=O)C1=CC=C(C)C=C1",
    "meta_data": {
        "InChI": "InChI=1S/C9H9ClO/c1-7-2-4-8(5-3-7)9(11)6-10/h2-5H,6H2,1H3",
        "InChIKey": null,
        "Canonical SMILES": "O=C(C1=CC=C(C=C1)C)CCl",
        "Molecular Formula": "C<sub>9</sub>H<sub>9</sub>ClO",
        "Molecular Mass": "168.62",
        "Boiling Point": "113 °C @ Press: 4 Torr",
        "Melting Point": "57-58 °C",
        "Density": "1.0937 g/cm³ @ Temp: 20 °C"
    }
}