{
    "cas_no": "5063-03-6",
    "key_name": "1-Bicyclo[2.2.1]hept-5-en-2-ylethanone",
    "cn_name": "2-乙酰基-5-降冰片烯;",
    "alternate_name": "Ethanone, 1-bicyclo[2.2.1]hept-5-en-2-yl-;Ketone, methyl 5-norbornen-2-yl;1-Bicyclo[2.2.1]hept-5-en-2-ylethanone;5-Acetyl-2-norbornene;6-Acetylbicyclo[2.2.1]hept-2-ene;2-Acetyl-5-norbornene;Methyl 5-norbornen-2-yl ketone;2-Acetylbicyclo[2.2.1]hept-5-ene;5-Acetylnorbornene;1-(Bicyclo[2.2.1]hept-5-en-2-yl)ethanone;1-(5-Bicyclo[2.2.1]hept-2-enyl)ethanone;1-[Bicyclo[2.2.1]hept-5-en-2-yl]ethan-1-one",
    "duplicated_cas_no": "",
    "SMILES": "C(C)(=O)C1C2CC(C1)C=C2",
    "meta_data": {
        "InChI": "InChI=1S/C9H12O/c1-6(10)9-5-7-2-3-8(9)4-7/h2-3,7-9H,4-5H2,1H3",
        "InChIKey": null,
        "Canonical SMILES": "O=C(C)C1CC2C=CC1C2",
        "Molecular Formula": "C<sub>9</sub>H<sub>12</sub>O",
        "Molecular Mass": "136.19",
        "Boiling Point": "84-86 °C @ Press: 18 Torr",
        "Density": "1.0090 g/cm³ @ Temp: 20 °C"
    }
}