{
    "cas_no": "1633-22-3",
    "key_name": "[2.2]Paracyclophane",
    "cn_name": "二聚对二甲苯;对二甲苯二聚体;对环芳烷;PCF;",
    "alternate_name": "Tricyclo[8.2.2.2<sup>4,7</sup>]hexadeca-4,6,10,12,13,15-hexaene;Di-<em>p</em>-xylylene;[2.2]Paracyclophane;Di-1,4-xylylene;[2.2]-<em>p</em>-Cyclophane;Cyclobis(benzene-1,4-dimethylene);[2.2](1,4)Cyclophane;1,4-Carbophane;NSC 91575;Parylene dimer",
    "duplicated_cas_no": "",
    "SMILES": "C1=2CCC=3C=CC(=CC3)CCC(C=C1)=CC2",
    "meta_data": {
        "InChI": "InChI=1S/C16H16/c1-2-14-4-3-13(1)9-10-15-5-7-16(8-6-15)12-11-14/h1-8H,9-12H2",
        "InChIKey": null,
        "Canonical SMILES": "C=1C=C2C=CC1CCC3=CC=C(C=C3)CC2",
        "Molecular Formula": "C<sub>16</sub>H<sub>16</sub>",
        "Molecular Mass": "208.30",
        "Melting Point": "285 °C"
    }
}