{
    "cas_no": "121-18-6",
    "key_name": "4-Chloro-3-nitrobenzenesulfonic acid",
    "cn_name": "4-氯-3-硝基苯磺酸;3-硝基-4-氯苯磺酸;间硝基对氯苯磺酸;",
    "alternate_name": "Benzenesulfonic acid, 4-chloro-3-nitro-;4-Chloro-3-nitrobenzenesulfonic acid;<em>o</em>-Nitrochlorobenzene-<em>p</em>-sulfonic acid;2-Nitrochlorobenzene-4-sulfonic acid;1-Chloro-2-nitrobenzene-4-sulfonic acid;3-Nitro-4-chlorobenzenesulfonic acid;NSC 7827",
    "duplicated_cas_no": "",
    "SMILES": "N(=O)(=O)C1=CC(S(=O)(=O)O)=CC=C1Cl",
    "meta_data": {
        "InChI": "InChI=1S/C6H4ClNO5S/c7-5-2-1-4(14(11,12)13)3-6(5)8(9)10/h1-3H,(H,11,12,13)",
        "InChIKey": null,
        "Canonical SMILES": "O=N(=O)C1=CC(=CC=C1Cl)S(=O)(=O)O",
        "Molecular Formula": "C<sub>6</sub>H<sub>4</sub>ClNO<sub>5</sub>S",
        "Molecular Mass": "237.62",
        "Melting Point": "114-115 °C"
    }
}