{
    "cas_no": "2049-67-4",
    "key_name": "1,5-Diethyl 2-pentenedioate",
    "cn_name": "戊烯二酸二乙酯;",
    "alternate_name": "2-Pentenedioic acid, 1,5-diethyl ester;Glutaconic acid, diethyl ester;2-Pentenedioic acid, diethyl ester;1,5-Diethyl 2-pentenedioate;Diethyl glutaconate;Diethyl 2-pentenedioate;NSC 62678",
    "duplicated_cas_no": "",
    "SMILES": "C(CC=CC(OCC)=O)(OCC)=O",
    "meta_data": {
        "InChI": "InChI=1S/C9H14O4/c1-3-12-8(10)6-5-7-9(11)13-4-2/h5-6H,3-4,7H2,1-2H3",
        "InChIKey": null,
        "Canonical SMILES": "O=C(OCC)C=CCC(=O)OCC",
        "Molecular Formula": "C<sub>9</sub>H<sub>14</sub>O<sub>4</sub>",
        "Molecular Mass": "186.21",
        "Boiling Point": "237 °C"
    }
}