{
    "cas_no": "808-71-9",
    "key_name": "Penethamate hydriodide",
    "cn_name": null,
    "alternate_name": "4-Thia-1-azabicyclo[3.2.0]heptane-2-carboxylic acid, 3,3-dimethyl-7-oxo-6-[(phenylacetyl)amino]-, 2-(diethylamino)ethyl ester, hydriodide (1:1), (2<em>S</em>,5<em>R</em>,6<em>R</em>)-;4-Thia-1-azabicyclo[3.2.0]heptane-2-carboxylic acid, 3,3-dimethyl-7-oxo-6-(2-phenylacetamido)-, 2-(diethylamino)ethyl ester, monohydriodide;4-Thia-1-azabicyclo[3.2.0]heptane-2-carboxylic acid, 3,3-dimethyl-7-oxo-6-[(phenylacetyl)amino]- [2<em>S</em>-(2α,5α,6β)]-, 2-(diethylamino)ethyl ester, monohydriodide;Penicillin, 2-(diethylamino)ethyl ester, hydriodide;Penicillin G, 2-(diethylamino)ethyl ester, hydriodide;4-Thia-1-azabicyclo[3.2.0]heptane-2-carboxylic acid, 3,3-dimethyl-7-oxo-6-[(phenylacetyl)amino]- (2<em>S</em>,5<em>R</em>,6<em>R</em>)-, 2-(diethylamino)ethyl ester, monohydriodide;Pulmo 500;Alivin;Benzylpenicillin β-diethylaminoethyl ester hydriodide;Bronchocillin;Diethylaminoethyl ester penicillin hydriodide;Estopen;Leocillin;Penicillin G diethylaminoethyl ester hydriodide;Neo-Penil;Pulmaxil N;Penethamate hydriodide;Penethacillin;β-Diethylaminoethyl benzylpenicillinate hydriodide;Ephicillin hydriodide;Broncopen;Eficillin;Bronchopen;Deripen;Penethecillin;Mamyzin",
    "duplicated_cas_no": "",
    "SMILES": "C(OCCN(CC)CC)(=O)[C@@H]1N2[C@@]([C@H](NC(CC3=CC=CC=C3)=O)C2=O)(SC1(C)C)[H].I",
    "meta_data": {
        "InChI": "InChI=1S/C22H31N3O4S.HI/c1-5-24(6-2)12-13-29-21(28)18-22(3,4)30-20-17(19(27)25(18)20)23-16(26)14-15-10-8-7-9-11-15;/h7-11,17-18,20H,5-6,12-14H2,1-4H3,(H,23,26);1H/t17-,18+,20-;/m1./s1",
        "InChIKey": null,
        "Canonical SMILES": "I.O=C(OCCN(CC)CC)C1N2C(=O)C(NC(=O)CC=3C=CC=CC3)C2SC1(C)C",
        "Molecular Formula": "C<sub>22</sub>H<sub>31</sub>N<sub>3</sub>O<sub>4</sub>S.HI",
        "Molecular Mass": "",
        "Melting Point": "178.5 °C"
    }
}