{
    "cas_no": "5053-63-4",
    "key_name": "α-(2-Aminoethyl)benzenemethanol",
    "cn_name": null,
    "alternate_name": "Benzenemethanol, α-(2-aminoethyl)-;Benzyl alcohol, α-(2-aminoethyl)-;α-(2-Aminoethyl)benzenemethanol;3-Amino-1-phenylpropanol;3-Hydroxy-3-phenylpropylamine;α-(2-Aminoethyl)benzyl alcohol;1-Phenyl-1-hydroxy-3-aminopropane;3-Amino-1-phenyl-1-propanol",
    "duplicated_cas_no": "59198-39-9",
    "SMILES": "C(CCN)(O)C1=CC=CC=C1",
    "meta_data": {
        "InChI": "InChI=1S/C9H13NO/c10-7-6-9(11)8-4-2-1-3-5-8/h1-5,9,11H,6-7,10H2",
        "InChIKey": null,
        "Canonical SMILES": "OC(C=1C=CC=CC1)CCN",
        "Molecular Formula": "C<sub>9</sub>H<sub>13</sub>NO",
        "Molecular Mass": "151.21",
        "Boiling Point": "126-130 °C @ Press: 1.5 Torr",
        "Melting Point": "63.5-64.5 °C"
    }
}