{
    "cas_no": "172529-93-0",
    "key_name": "1,3-Dimethyl 2-[2-(2-amino-6-chloro-9<em>H</em>-purin-9-yl)ethyl]propanedioate",
    "cn_name": "[2-(2-氨基-6-氯-9H-嘌呤-9-基)乙基]丙二酸二甲酯;",
    "alternate_name": "Propanedioic acid, 2-[2-(2-amino-6-chloro-9<em>H</em>-purin-9-yl)ethyl]-, 1,3-dimethyl ester;Propanedioic acid, [2-(2-amino-6-chloro-9<em>H</em>-purin-9-yl)ethyl]-, dimethyl ester;1,3-Dimethyl 2-[2-(2-amino-6-chloro-9<em>H</em>-purin-9-yl)ethyl]propanedioate;Dimethyl 2-[2-(2-amino-6-chloropurin-9-yl)ethyl]malonate",
    "duplicated_cas_no": "",
    "SMILES": "C(CC(C(OC)=O)C(OC)=O)N1C=2C(N=C1)=C(Cl)N=C(N)N2",
    "meta_data": {
        "InChI": "InChI=1S/C12H14ClN5O4/c1-21-10(19)6(11(20)22-2)3-4-18-5-15-7-8(13)16-12(14)17-9(7)18/h5-6H,3-4H2,1-2H3,(H2,14,16,17)",
        "InChIKey": null,
        "Canonical SMILES": "O=C(OC)C(C(=O)OC)CCN1C=NC=2C(Cl)=NC(=NC21)N",
        "Molecular Formula": "C<sub>12</sub>H<sub>14</sub>ClN<sub>5</sub>O<sub>4</sub>",
        "Molecular Mass": "327.72",
        "Melting Point": "140.6-142.9 °C"
    }
}