{
    "cas_no": "13200-86-7",
    "key_name": "<em>N</em>-Formyl-<span class=\"text-smallcaps\">L</span>-tyrosine",
    "cn_name": "N-甲酰-L-酪氨酸;",
    "alternate_name": "<span class=\"text-smallcaps\">L</span>-Tyrosine, <em>N</em>-formyl-;Tyrosine, <em>N</em>-formyl-, <span class=\"text-smallcaps\">L</span>-;Tyrosine, <em>N</em>-formyl-;<em>N</em>-Formyl-<span class=\"text-smallcaps\">L</span>-tyrosine;<em>N</em>-Formyltyrosine;FTyr;<span class=\"text-smallcaps\">L</span>-Formyltyrosine;NSC 74484;(2S)-3-(4-Hydroxyphenyl)-2-formamidopropanoic acid",
    "duplicated_cas_no": "",
    "SMILES": "C([C@H](NC=O)C(O)=O)C1=CC=C(O)C=C1",
    "meta_data": {
        "InChI": "InChI=1S/C10H11NO4/c12-6-11-9(10(14)15)5-7-1-3-8(13)4-2-7/h1-4,6,9,13H,5H2,(H,11,12)(H,14,15)/t9-/m0/s1",
        "InChIKey": null,
        "Canonical SMILES": "O=CNC(C(=O)O)CC1=CC=C(O)C=C1",
        "Molecular Formula": "C<sub>10</sub>H<sub>11</sub>NO<sub>4</sub>",
        "Molecular Mass": "209.20",
        "Melting Point": "170-171 °C"
    }
}