{
    "cas_no": "1670-83-3",
    "key_name": "1<em>H</em>-Indole-7-carboxylic acid",
    "cn_name": "7-吲哚甲酸;吲哚-7-羧酸;",
    "alternate_name": "1<em>H</em>-Indole-7-carboxylic acid;Indole-7-carboxylic acid;7-Carboxyindole",
    "duplicated_cas_no": "",
    "SMILES": "C(O)(=O)C1=C2C(C=CN2)=CC=C1",
    "meta_data": {
        "InChI": "InChI=1S/C9H7NO2/c11-9(12)7-3-1-2-6-4-5-10-8(6)7/h1-5,10H,(H,11,12)",
        "InChIKey": null,
        "Canonical SMILES": "O=C(O)C1=CC=CC=2C=CNC21",
        "Molecular Formula": "C<sub>9</sub>H<sub>7</sub>NO<sub>2</sub>",
        "Molecular Mass": "161.16",
        "Melting Point": "206-212 °C"
    }
}