{
    "cas_no": "3279-27-4",
    "key_name": "2-<em>tert</em>-Amylphenol",
    "cn_name": null,
    "alternate_name": "Phenol, 2-(1,1-dimethylpropyl)-;Phenol, <em>o</em>-<em>tert</em>-pentyl-;Phenol, <em>o</em>-(1,1-dimethylpropyl)-;2-(1,1-Dimethylpropyl)phenol;2-<em>tert</em>-Amylphenol;<em>o</em>-<em>tert</em>-Amylphenol;2-<em>tert</em>-Pentylphenol;<em>o</em>-<em>tert</em>-Pentylphenol;2-(2-Methylbutan-2-yl)phenol;2-(2-Methyl-2-butyl)phenol",
    "duplicated_cas_no": "",
    "SMILES": "C(CC)(C)(C)C1=C(O)C=CC=C1",
    "meta_data": {
        "InChI": "InChI=1S/C11H16O/c1-4-11(2,3)9-7-5-6-8-10(9)12/h5-8,12H,4H2,1-3H3",
        "InChIKey": null,
        "Canonical SMILES": "OC=1C=CC=CC1C(C)(C)CC",
        "Molecular Formula": "C<sub>11</sub>H<sub>16</sub>O",
        "Molecular Mass": "164.24",
        "Boiling Point": "147-148 °C @ Press: 45 Torr",
        "Melting Point": "280 °C"
    }
}