{
    "cas_no": "3073-77-6",
    "key_name": "2-Amino-5-nitropyrimidine",
    "cn_name": "2-氨基-5-硝基嘧啶;",
    "alternate_name": "2-Pyrimidinamine, 5-nitro-;Pyrimidine, 2-amino-5-nitro-;5-Nitro-2-pyrimidinamine;2-Amino-5-nitropyrimidine;Enheptin P;5-Nitro-2-aminopyrimidine;NSC 37682;NSC 48065;5-Nitropyrimidin-2-ylamine;5-Nitropyrimidine-2-amine",
    "duplicated_cas_no": "",
    "SMILES": "N(=O)(=O)C=1C=NC(N)=NC1",
    "meta_data": {
        "InChI": "InChI=1S/C4H4N4O2/c5-4-6-1-3(2-7-4)8(9)10/h1-2H,(H2,5,6,7)",
        "InChIKey": null,
        "Canonical SMILES": "O=N(=O)C1=CN=C(N=C1)N",
        "Molecular Formula": "C<sub>4</sub>H<sub>4</sub>N<sub>4</sub>O<sub>2</sub>",
        "Molecular Mass": "140.10",
        "Melting Point": "236 °C"
    }
}