{
    "cas_no": "130-80-3",
    "key_name": "Diethylstilbestrol dipropionate",
    "cn_name": "丙酸己烯雌酚;丙酸己烯雌酚;",
    "alternate_name": "Phenol, 4,4′-[(1<em>E</em>)-1,2-diethyl-1,2-ethenediyl]bis-, 1,1′-propanoate;4,4′-Stilbenediol, α,α′-diethyl-, dipropionate, (<em>E</em>)-;Phenol, 4,4′-(1,2-diethyl-1,2-ethenediyl)bis-, dipropanoate, (<em>E</em>)-;Phenol, 4,4′-[(1<em>E</em>)-1,2-diethyl-1,2-ethenediyl]bis-, dipropanoate;Clinestrol;Cyren B;Dibestil;α,α′-Diethyl-4,4′-stilbenediol dipropionate;Diethylstilbestrol dipropionate;<em>p</em>,<em>p</em>′-Dipropionoxy-<em>trans</em>-α,β-diethylstilbene;Estilben;Estilbin;Estroben DF;Estrobene DP;Euvestin;Neo-Oestranol II;New-Oestranol 11;Orestol;Pabestrol D;Stilbestrol dipropionate;Stilbestrol propionate;Stilbestronate;Stilboestrol DP;Stilronate;Syntestrin;Syntestrine;Willestrol;Diethylstilbestrol propionate;α,α′-Diethyl-4,4′-stilbenediol dipropionyl ester;Dihydroxydiethylstilbene dipropionate;Estrogenin;Estrostilben;Sinciclan;Gynolett;Horfemine;Stilbofax;Synoestron;Oestrogynaedron;Sinestrol;Synestrol;Synoestrol;Tauripar B;Vetoestrol",
    "duplicated_cas_no": "29864-80-0",
    "SMILES": "C(=C(/CC)\\C1=CC=C(OC(CC)=O)C=C1)(\\CC)/C2=CC=C(OC(CC)=O)C=C2",
    "meta_data": {
        "InChI": "InChI=1S/C24H28O4/c1-5-21(17-9-13-19(14-10-17)27-23(25)7-3)22(6-2)18-11-15-20(16-12-18)28-24(26)8-4/h9-16H,5-8H2,1-4H3/b22-21+",
        "InChIKey": null,
        "Canonical SMILES": "O=C(OC1=CC=C(C=C1)C(=C(C2=CC=C(OC(=O)CC)C=C2)CC)CC)CC",
        "Molecular Formula": "C<sub>24</sub>H<sub>28</sub>O<sub>4</sub>",
        "Molecular Mass": "380.48",
        "Melting Point": "104 °C"
    }
}