{
    "cas_no": "4324-38-3",
    "key_name": "3-Ethoxypropionic acid",
    "cn_name": null,
    "alternate_name": "Propanoic acid, 3-ethoxy-;Propionic acid, 3-ethoxy-;3-Ethoxypropanoic acid;3-Ethoxypropionic acid;β-Ethoxypropionic acid;NSC 16879;NSC 8118",
    "duplicated_cas_no": "",
    "SMILES": "C(COCC)C(O)=O",
    "meta_data": {
        "InChI": "InChI=1S/C5H10O3/c1-2-8-4-3-5(6)7/h2-4H2,1H3,(H,6,7)",
        "InChIKey": null,
        "Canonical SMILES": "O=C(O)CCOCC",
        "Molecular Formula": "C<sub>5</sub>H<sub>10</sub>O<sub>3</sub>",
        "Molecular Mass": "118.13",
        "Boiling Point": "112-114 °C @ Press: 15 Torr",
        "Density": "1.0515 g/cm³ @ Temp: 20 °C"
    }
}