{
    "cas_no": "445-29-4",
    "key_name": "2-Fluorobenzoic acid",
    "cn_name": "邻氟苯甲酸;",
    "alternate_name": "Benzoic acid, 2-fluoro-;Benzoic acid, <em>o</em>-fluoro-;2-Fluorobenzoic acid;<em>o</em>-Fluorobenzoic acid;NSC 10319",
    "duplicated_cas_no": "",
    "SMILES": "C(O)(=O)C1=C(F)C=CC=C1",
    "meta_data": {
        "InChI": "InChI=1S/C7H5FO2/c8-6-4-2-1-3-5(6)7(9)10/h1-4H,(H,9,10)",
        "InChIKey": null,
        "Canonical SMILES": "O=C(O)C=1C=CC=CC1F",
        "Molecular Formula": "C<sub>7</sub>H<sub>5</sub>FO<sub>2</sub>",
        "Molecular Mass": "140.11",
        "Boiling Point": "114 °C",
        "Melting Point": "126.5 °C"
    }
}