{
    "cas_no": "7425-80-1",
    "key_name": "1-Propanol, 2-methyl-, titanium(4+) salt (4:1)",
    "cn_name": "原钛酸四异丁酯;",
    "alternate_name": "1-Propanol, 2-methyl-, titanium(4+) salt (4:1);Isobutyl alcohol, titanium(4+) salt;1-Propanol, 2-methyl-, titanium(4+) salt;Isobutyl titanate(IV);Tetraisobutyl titanate;Isobutyl titanate;Tetrakis(isobutoxy)titanium;Titanium tetraisobutoxide;Titanic acid isobutyl ester;Titanium tetraisobutylate;Titanium isobutoxide;2-Methyl-1-propanol titanium(4+) salt;Tetraisobutyl orthotitanate;Titanium(IV) isobutoxide",
    "duplicated_cas_no": "112895-07-5;118815-01-3;14974-62-0",
    "SMILES": "C(CO)(C)C.[Ti]",
    "meta_data": {
        "InChI": "InChI=1S/C4H10O.Ti/c1-4(2)3-5;/h4-5H,3H2,1-2H3;",
        "InChIKey": null,
        "Canonical SMILES": "[Ti].OCC(C)C",
        "Molecular Formula": "C<sub>4</sub>H<sub>10</sub>O.<sup>1</sup>/<sub>4</sub>Ti",
        "Molecular Mass": "",
        "Boiling Point": "141 °C @ Press: 1 Torr",
        "Melting Point": "30-31 °C",
        "Density": "1.020 g/cm³"
    }
}