{
    "cas_no": "2142-73-6",
    "key_name": "1-(2,5-Dimethylphenyl)ethanone",
    "cn_name": null,
    "alternate_name": "Ethanone, 1-(2,5-dimethylphenyl)-;Acetophenone, 2′,5′-dimethyl-;1-(2,5-Dimethylphenyl)ethanone;2′,5′-Dimethylacetophenone;2,5-Dimethylacetophenone;1-Acetyl-2,5-dimethylbenzene;NSC 6325;1-(2,5-Dimethylphenyl)ethan-1-one",
    "duplicated_cas_no": "",
    "SMILES": "C(C)(=O)C1=C(C)C=CC(C)=C1",
    "meta_data": {
        "InChI": "InChI=1S/C10H12O/c1-7-4-5-8(2)10(6-7)9(3)11/h4-6H,1-3H3",
        "InChIKey": null,
        "Canonical SMILES": "O=C(C1=CC(=CC=C1C)C)C",
        "Molecular Formula": "C<sub>10</sub>H<sub>12</sub>O",
        "Molecular Mass": "148.20",
        "Boiling Point": "232.5 °C",
        "Melting Point": "-18.1 °C",
        "Density": "0.9955 g/cm³ @ Temp: 20 °C"
    }
}