{
    "cas_no": "3705-26-8",
    "key_name": "Cyclo(<span class=\"text-smallcaps\">L</smallcap>-Phe-<smallcap>L</span>-Pro)",
    "cn_name": "环(Phe-Pro);",
    "alternate_name": "Pyrrolo[1,2-<em>a</em>]pyrazine-1,4-dione, hexahydro-3-(phenylmethyl)-, (3<em>S</em>,8a<em>S</em>)-;Pyrrolo[1,2-<em>a</em>]pyrazine-1,4-dione, 3-benzylhexahydro-, (3<em>S</em>,8a<em>S</em>)-;Pyrrolo[1,2-<em>a</em>]pyrazine-1,4-dione, hexahydro-3-(phenylmethyl)-, (3<em>S</em>-<em>trans</em>)-;(3<em>S</em>,8a<em>S</em>)-Hexahydro-3-(phenylmethyl)pyrrolo[1,2-<em>a</em>]pyrazine-1,4-dione;<span class=\"text-smallcaps\">L</smallcap>-Phenylalanyl-<smallcap>L</span>-proline lactam;<span class=\"text-smallcaps\">L</smallcap>-Prolyl-<smallcap>L</span>-phenylalanine diketopiperazine;Cyclo(<span class=\"text-smallcaps\">L</smallcap>-prolyl-<smallcap>L</span>-phenylalanyl);Cyclo(<span class=\"text-smallcaps\">L</smallcap>-Phe-<smallcap>L</span>-Pro);Cyclo(<span class=\"text-smallcaps\">L</smallcap>-phenylalanyl-<smallcap>L</span>-prolyl-);Maculosin 2;Maculosine 2;SMFEI 02;Cyclo(Phe-Pro);Cyclo(<span class=\"text-smallcaps\">L</smallcap>-Pro-<smallcap>L</span>-Phe)",
    "duplicated_cas_no": "",
    "SMILES": "O=C1N2[C@](C(=O)N[C@H]1CC3=CC=CC=C3)(CCC2)[H]",
    "meta_data": {
        "InChI": "InChI=1S/C14H16N2O2/c17-13-12-7-4-8-16(12)14(18)11(15-13)9-10-5-2-1-3-6-10/h1-3,5-6,11-12H,4,7-9H2,(H,15,17)/t11-,12-/m0/s1",
        "InChIKey": null,
        "Canonical SMILES": "O=C1NC(C(=O)N2CCCC12)CC=3C=CC=CC3",
        "Molecular Formula": "C<sub>14</sub>H<sub>16</sub>N<sub>2</sub>O<sub>2</sub>",
        "Molecular Mass": "244.29",
        "Melting Point": "146-148 °C"
    }
}