{
    "cas_no": "481-49-2",
    "key_name": "(+)-Cepharanthine",
    "cn_name": "千金藤素;",
    "alternate_name": "1<em>H</em>-4,6:16,19-Dietheno-21,25-metheno-12<em>H</em>-[1,3]dioxolo[4,5-<em>g</em>]pyrido[2′,3′:17,18][1,10]dioxacycloeicosino[2,3,4-<em>ij</em>]isoquinoline, 2,3,13,14,14a,15,26,26a-octahydro-22,30-dimethoxy-1,14-dimethyl-, (14a<em>S</em>,26a<em>R</em>)-;Cepharanthine;Oxyacanthan, 6′,12′-dimethoxy-2,2′-dimethyl-6,7-[methylenebis(oxy)]-;(14a<em>S</em>,26a<em>R</em>)-2,3,13,14,14a,15,26,26a-Octahydro-22,30-dimethoxy-1,14-dimethyl-1<em>H</em>-4,6:16,19-dietheno-21,25-metheno-12<em>H</em>-[1,3]dioxolo[4,5-<em>g</em>]pyrido[2′,3′:17,18][1,10]dioxacycloeicosino[2,3,4-<em>ij</em>]isoquinoline;<em>O</em>-Methylcepharanoline;Cepharanthin;1<em>H</em>-4,6:16,19-Dietheno-21,25-metheno-12<em>H</em>-[1,3]dioxolo[4,5-<em>g</em>]pyrido[2′,3′:17,18][1,10]dioxacycloeicosino[2,3,4-<em>ij</em>]isoquinoline, 2,3,13,14,14a,15,26,26a-octahydro-22,30-dimethoxy-1,14-dimethyl-, [14a<em>S</em>-(14a<em>R</em>*,26a<em>S</em>*)]-;Cepharantin;(+)-Cepharanthine;NSC 623442;SML 1269;SC 9 (alkaloid)",
    "duplicated_cas_no": "1413-58-7;30255-28-8",
    "SMILES": "CN1[C@@]2(C=3C(=C4C(=CC3CC1)OCO4)OC=5C=C6[C@@](CC=7C=C(OC=8C=CC(C2)=CC8)C(OC)=CC7)(N(C)CCC6=CC5OC)[H])[H]",
    "meta_data": {
        "InChI": "InChI=1S/C37H38N2O6/c1-38-13-11-24-18-31(41-4)33-20-27(24)28(38)16-23-7-10-30(40-3)32(17-23)44-26-8-5-22(6-9-26)15-29-35-25(12-14-39(29)2)19-34-36(37(35)45-33)43-21-42-34/h5-10,17-20,28-29H,11-16,21H2,1-4H3/t28-,29+/m1/s1",
        "InChIKey": null,
        "Canonical SMILES": "O1C2=CC=C(C=C2)CC3C4=C(OC=5C=C6C(=CC5OC)CCN(C)C6CC7=CC=C(OC)C1=C7)C=8OCOC8C=C4CCN3C",
        "Molecular Formula": "C<sub>37</sub>H<sub>38</sub>N<sub>2</sub>O<sub>6</sub>",
        "Molecular Mass": "606.71",
        "Melting Point": "103 °C"
    }
}