{
    "cas_no": "37443-42-8",
    "key_name": "2-Furancarboxylic acid, tetrahydro-, methyl ester",
    "cn_name": "2-四氢糠酸甲酯;",
    "alternate_name": "2-Furancarboxylic acid, tetrahydro-, methyl ester;2-Furoic acid, tetrahydro-, methyl ester;Methyl tetrahydro-2-furancarboxylate;Tetrahydro-2-furancarboxylic acid methyl ester;Tetrahydro-2-furoic acid methyl ester;Methyl 2-tetrahydrofuroate",
    "duplicated_cas_no": "113300-06-4;37493-32-6",
    "SMILES": "C(OC)(=O)C1CCCO1",
    "meta_data": {
        "InChI": "InChI=1S/C6H10O3/c1-8-6(7)5-3-2-4-9-5/h5H,2-4H2,1H3",
        "InChIKey": null,
        "Canonical SMILES": "O=C(OC)C1OCCC1",
        "Molecular Formula": "C<sub>6</sub>H<sub>10</sub>O<sub>3</sub>",
        "Molecular Mass": "130.14",
        "Boiling Point": "179.5-180.5 °C @ Press: 736 Torr",
        "Density": "1.1080 g/cm³ @ Temp: 20 °C"
    }
}