{
    "cas_no": "139079-39-3",
    "key_name": "7-Hydroxyquetiapine",
    "cn_name": null,
    "alternate_name": "Dibenzo[<em>b</em>,<em>f</em>][1,4]thiazepin-7-ol, 11-[4-[2-(2-hydroxyethoxy)ethyl]-1-piperazinyl]-;11-[4-[2-(2-Hydroxyethoxy)ethyl]-1-piperazinyl]dibenzo[<em>b</em>,<em>f</em>][1,4]thiazepin-7-ol;ICI 214227;7-Hydroxyquetiapine",
    "duplicated_cas_no": "",
    "SMILES": "C(COCCO)N1CCN(C=2C=3C(SC=4C(N2)=CC=C(O)C4)=CC=CC3)CC1",
    "meta_data": {
        "InChI": "InChI=1S/C21H25N3O3S/c25-12-14-27-13-11-23-7-9-24(10-8-23)21-17-3-1-2-4-19(17)28-20-15-16(26)5-6-18(20)22-21/h1-6,15,25-26H,7-14H2",
        "InChIKey": null,
        "Canonical SMILES": "OC1=CC=C2N=C(C=3C=CC=CC3SC2=C1)N4CCN(CCOCCO)CC4",
        "Molecular Formula": "C<sub>21</sub>H<sub>25</sub>N<sub>3</sub>O<sub>3</sub>S",
        "Molecular Mass": "399.51",
        "Melting Point": "219-221 °C"
    }
}