{
    "cas_no": "82-02-0",
    "key_name": "Khellin",
    "cn_name": "呋喃并色酮;",
    "alternate_name": "5<em>H</em>-Furo[3,2-<em>g</em>][1]benzopyran-5-one, 4,9-dimethoxy-7-methyl-;4,9-Dimethoxy-7-methyl-5<em>H</em>-furo[3,2-<em>g</em>][1]benzopyran-5-one;Amicardine;Ammipuran;Ammivin;Ammivisnagen;Benecardin;Cardio-khellin;Corafurone;5,8-Dimethoxy-2-methyl-6,7-furanochromone;5,8-Dimethoxy-2-methyl-4′,5′-furano-6,7-chromone;5,8-Dimethoxy-2-methyl-4′,5′-furo-6,7-chromone;4,9-Dimethoxy-7-methyl-5-oxo-1,8-dioxabenz[f]indene;4,9-Dimethoxy-7-methyl-5-oxofuro[3,2-<em>g</em>][1]benzopyran;4,9-Dimethoxy-7-methyl-5-oxofuro[3,2-<em>g</em>]-1,2-chromene;Eskel;Kelamin;Kelicor;Kelicorin;Keloid;Khelfren;Khelisem;Khellin;Khelloyd;Lynamine;Methafrone;Norkel;Simeskellina;Vasokellina;Visammin;Viscardan;Visnagalin;Visnagen;Benekardin;Amikellin;Medekellin;Kellosal;Ammispasmin;Kalangin;Gynokhellin;Khelline I;Coronin;Hkelfren;Gynokhellan;Amicardien;NSC 25509;NSC 37744;NSC 8519",
    "duplicated_cas_no": "",
    "SMILES": "O(C)C=1C2=C(C(OC)=C3C1C=CO3)OC(C)=CC2=O",
    "meta_data": {
        "InChI": "InChI=1S/C14H12O5/c1-7-6-9(15)10-11(16-2)8-4-5-18-12(8)14(17-3)13(10)19-7/h4-6H,1-3H3",
        "InChIKey": null,
        "Canonical SMILES": "O=C1C=C(OC=2C(OC)=C3OC=CC3=C(OC)C12)C",
        "Molecular Formula": "C<sub>14</sub>H<sub>12</sub>O<sub>5</sub>",
        "Molecular Mass": "260.24",
        "Boiling Point": "180-200 °C @ Press: 0.05 Torr",
        "Melting Point": "154.5 °C (decomp)",
        "Density": "1.44 g/cm³"
    }
}