{
    "cas_no": "54010-75-2",
    "key_name": "Zinc triflate",
    "cn_name": "三氟甲烷磺酸锌;",
    "alternate_name": "Methanesulfonic acid, 1,1,1-trifluoro-, zinc salt (2:1);Methanesulfonic acid, trifluoro-, zinc salt;Zinc trifluoromethylsulfonate;Zinc bis(trifluoromethanesulfonate);Zinc triflate;Zinc trifluoromethanesulfonate;Bis(trifluoromethanesulfonato)zinc;Trifluoromethanesulfonic acid zinc salt (2:1);Zinc(II) triflate;Trifluoromethanesulfonic acid zinc salt;Zinc trifluoromethanesulfonate [Zn(CF<sub>3</sub>SO<sub>3</sub>)<sub>2</sub>];Zinc ditriflate;A 218;Zinc(II) trifluoromethanesulfonate",
    "duplicated_cas_no": "919781-74-1;2740548-14-3;2757588-71-7",
    "SMILES": "C(S(=O)(=O)O)(F)(F)F.[Zn]",
    "meta_data": {
        "InChI": "InChI=1S/CHF3O3S.Zn/c2-1(3,4)8(5,6)7;/h(H,5,6,7);",
        "InChIKey": null,
        "Canonical SMILES": "[Zn].O=S(=O)(O)C(F)(F)F",
        "Molecular Formula": "CHF<sub>3</sub>O<sub>3</sub>S.<sup>1</sup>/<sub>2</sub>Zn",
        "Molecular Mass": "",
        "Melting Point": "&gt;600 °C (decomp)"
    }
}