{
    "cas_no": "182500-28-3",
    "key_name": "4-Bromo-5-methyl-2-nitrophenol",
    "cn_name": null,
    "alternate_name": "Phenol, 4-bromo-5-methyl-2-nitro-;4-Bromo-5-methyl-2-nitrophenol;2-Nitro-5-methyl-4-bromophenol",
    "duplicated_cas_no": "",
    "SMILES": "N(=O)(=O)C1=C(O)C=C(C)C(Br)=C1",
    "meta_data": {
        "InChI": "InChI=1S/C7H6BrNO3/c1-4-2-7(10)6(9(11)12)3-5(4)8/h2-3,10H,1H3",
        "InChIKey": null,
        "Canonical SMILES": "O=N(=O)C1=CC(Br)=C(C=C1O)C",
        "Molecular Formula": "C<sub>7</sub>H<sub>6</sub>BrNO<sub>3</sub>",
        "Molecular Mass": "232.03",
        "Melting Point": "126 °C"
    }
}