{
    "cas_no": "129332-30-5",
    "key_name": "3-[3-(4-Fluorophenyl)-1-(1-methylethyl)-1<em>H</em>-indol-2-yl]-2-propenal",
    "cn_name": null,
    "alternate_name": "2-Propenal, 3-[3-(4-fluorophenyl)-1-(1-methylethyl)-1<em>H</em>-indol-2-yl]-;3-[3-(4-Fluorophenyl)-1-(1-methylethyl)-1<em>H</em>-indol-2-yl]-2-propenal",
    "duplicated_cas_no": "",
    "SMILES": "C(=CC=O)C1=C(C=2C(N1C(C)C)=CC=CC2)C3=CC=C(F)C=C3",
    "meta_data": {
        "InChI": "InChI=1S/C20H18FNO/c1-14(2)22-18-7-4-3-6-17(18)20(19(22)8-5-13-23)15-9-11-16(21)12-10-15/h3-14H,1-2H3",
        "InChIKey": null,
        "Canonical SMILES": "O=CC=CC1=C(C=2C=CC(F)=CC2)C=3C=CC=CC3N1C(C)C",
        "Molecular Formula": "C<sub>20</sub>H<sub>18</sub>FNO",
        "Molecular Mass": "307.36",
        "Melting Point": "122-124 °C"
    }
}