{
    "cas_no": "53111-20-9",
    "key_name": "(2-Methoxyphenyl)diphenylphosphine",
    "cn_name": null,
    "alternate_name": "Phosphine, (2-methoxyphenyl)diphenyl-;(2-Methoxyphenyl)diphenylphosphine;<em>o</em>-Anisyldiphenylphosphine;(<em>o</em>-Methoxyphenyl)diphenylphosphine;Diphenyl(<em>o</em>-anisyl)phosphine;Diphenyl-2-methoxyphenylphosphine;Diphenyl(<em>o</em>-methoxyphenyl)phosphine;2-(Diphenylphosphino)anisole",
    "duplicated_cas_no": "",
    "SMILES": "P(C1=C(OC)C=CC=C1)(C2=CC=CC=C2)C3=CC=CC=C3",
    "meta_data": {
        "InChI": "InChI=1S/C19H17OP/c1-20-18-14-8-9-15-19(18)21(16-10-4-2-5-11-16)17-12-6-3-7-13-17/h2-15H,1H3",
        "InChIKey": null,
        "Canonical SMILES": "O(C=1C=CC=CC1P(C=2C=CC=CC2)C=3C=CC=CC3)C",
        "Molecular Formula": "C<sub>19</sub>H<sub>17</sub>OP",
        "Molecular Mass": "292.31",
        "Melting Point": "123 °C"
    }
}