{
    "cas_no": "109-57-9",
    "key_name": "Allylthiourea",
    "cn_name": "烯丙基硫脲;",
    "alternate_name": "Thiourea, <em>N</em>-2-propen-1-yl-;Urea, 1-allyl-2-thio-;Thiourea, 2-propenyl-;<em>N</em>-2-Propen-1-ylthiourea;Allylthiourea;Aminosin;Rhodalline;Thiosinamine;1-Allyl-2-thiourea;U 19571;<em>N</em>-Allylthiourea;Allylthiocarbamide;1-Allylthiourea;Thiosinamin;Rhodallin;2-Propenylthiourea;NSC 1915;(Prop-2-en-1-yl)thiourea",
    "duplicated_cas_no": "",
    "SMILES": "N(C(N)=S)CC=C",
    "meta_data": {
        "InChI": "InChI=1S/C4H8N2S/c1-2-3-6-4(5)7/h2H,1,3H2,(H3,5,6,7)",
        "InChIKey": null,
        "Canonical SMILES": "S=C(N)NCC=C",
        "Molecular Formula": "C<sub>4</sub>H<sub>8</sub>N<sub>2</sub>S",
        "Molecular Mass": "116.18",
        "Melting Point": "78 °C"
    }
}