{
    "cas_no": "991-42-4",
    "key_name": "Norbormide",
    "cn_name": "鼠特灵;",
    "alternate_name": "4,7-Methano-1<em>H</em>-isoindole-1,3(2<em>H</em>)-dione, 3a,4,7,7a-tetrahydro-5-(hydroxyphenyl-2-pyridinylmethyl)-8-(phenyl-2-pyridinylmethylene)-;5-Norbornene-2,3-dicarboximide, 5-(α-hydroxy-α-2-pyridylbenzyl)-7-(α-2-pyridylbenzylidene)-;3a,4,7,7a-Tetrahydro-5-(hydroxyphenyl-2-pyridinylmethyl)-8-(phenyl-2-pyridinylmethylene)-4,7-methano-1<em>H</em>-isoindole-1,3(2<em>H</em>)-dione;McN 1025;S 6999;Compound S 6999;5-[(α-hydroxy-α-2-pyridyl)benzyl]-7-[α-(2-pyridyl)benzyl]-5-norbornene-2,3-dicarboximide;Norbormide;Raticate;5-(α-Hydroxy-α-2-pyridylbenzyl)-7-(α-2-pyridylbenzylidene)-5-norbornene-2,3-dicarboximide;Shoxin;NSC 101316",
    "duplicated_cas_no": "14841-34-0",
    "SMILES": "C(=C1C2C(C(O)(C3=CC=CC=C3)C4=CC=CC=N4)=CC1C5C2C(=O)NC5=O)(C6=CC=CC=C6)C7=CC=CC=N7",
    "meta_data": {
        "InChI": "InChI=1S/C33H25N3O3/c37-31-28-22-19-23(33(39,21-13-5-2-6-14-21)25-16-8-10-18-35-25)29(30(28)32(38)36-31)27(22)26(20-11-3-1-4-12-20)24-15-7-9-17-34-24/h1-19,22,28-30,39H,(H,36,37,38)",
        "InChIKey": null,
        "Canonical SMILES": "O=C1NC(=O)C2C3C(=CC(C3=C(C4=NC=CC=C4)C=5C=CC=CC5)C12)C(O)(C6=NC=CC=C6)C=7C=CC=CC7",
        "Molecular Formula": "C<sub>33</sub>H<sub>25</sub>N<sub>3</sub>O<sub>3</sub>",
        "Molecular Mass": "511.57",
        "Melting Point": "190-198 °C"
    }
}