{
    "cas_no": "22608-11-3",
    "key_name": "Demethoxycurcumin",
    "cn_name": null,
    "alternate_name": "1,6-Heptadiene-3,5-dione, 1-(4-hydroxy-3-methoxyphenyl)-7-(4-hydroxyphenyl)-, (1<em>E</em>,6<em>E</em>)-;1,6-Heptadiene-3,5-dione, 1-(4-hydroxy-3-methoxyphenyl)-7-(<em>p</em>-hydroxyphenyl)-;1,6-Heptadiene-3,5-dione, 1-(4-hydroxy-3-methoxyphenyl)-7-(4-hydroxyphenyl)-, (<em>E</em>,<em>E</em>)-;(1<em>E</em>,6<em>E</em>)-1-(4-Hydroxy-3-methoxyphenyl)-7-(4-hydroxyphenyl)-1,6-heptadiene-3,5-dione;Demethoxycurcumin;Curcumin II;Monodemethoxycurcumin;Desmethoxycurcumin;(1<em>E</em>,6<em>E</em>)-1-(4-Hydroxyphenyl)-7-(4-hydroxy-3-methoxyphenyl)-1,6-heptadiene-3,5-dione;(1E,6E)-1-(4-Hydroxy-3-methoxyphenyl)-7-(4-hydroxyphenyl)hepta-1,6-diene-3,5-dione",
    "duplicated_cas_no": "33171-16-3;85801-93-0;91884-87-6;1281950-91-1",
    "SMILES": "C(=C/C(CC(/C=C/C1=CC=C(O)C=C1)=O)=O)\\C2=CC(OC)=C(O)C=C2",
    "meta_data": {
        "InChI": "InChI=1S/C20H18O5/c1-25-20-12-15(6-11-19(20)24)5-10-18(23)13-17(22)9-4-14-2-7-16(21)8-3-14/h2-12,21,24H,13H2,1H3/b9-4+,10-5+",
        "InChIKey": null,
        "Canonical SMILES": "O=C(C=CC1=CC=C(O)C=C1)CC(=O)C=CC2=CC=C(O)C(OC)=C2",
        "Molecular Formula": "C<sub>20</sub>H<sub>18</sub>O<sub>5</sub>",
        "Molecular Mass": "338.35",
        "Melting Point": "168 °C"
    }
}