{
    "cas_no": "581-46-4",
    "key_name": "3,3′-Bipyridine",
    "cn_name": null,
    "alternate_name": "3,3′-Bipyridine;3,3′-Bipyridyl;3,3′-Dipyridyl;3-Pyridin-3-ylpyridine",
    "duplicated_cas_no": "",
    "SMILES": "C=1(C=CC=NC1)C=2C=CC=NC2",
    "meta_data": {
        "InChI": "InChI=1S/C10H8N2/c1-3-9(7-11-5-1)10-4-2-6-12-8-10/h1-8H",
        "InChIKey": null,
        "Canonical SMILES": "N1=CC=CC(=C1)C=2C=NC=CC2",
        "Molecular Formula": "C<sub>10</sub>H<sub>8</sub>N<sub>2</sub>",
        "Molecular Mass": "156.18",
        "Boiling Point": "291.5 °C",
        "Melting Point": "68 °C"
    }
}