{
    "cas_no": "79-27-6",
    "key_name": "1,1,2,2-Tetrabromoethane",
    "cn_name": "四溴乙烷;",
    "alternate_name": "Ethane, 1,1,2,2-tetrabromo-;1,1,2,2-Tetrabromoethane;Acetylene tetrabromide;Muthmann's liquid;TBE;1,1,2,2-Tetrabromoethylene;NSC 406889",
    "duplicated_cas_no": "",
    "SMILES": "C(C(Br)Br)(Br)Br",
    "meta_data": {
        "InChI": "InChI=1S/C2H2Br4/c3-1(4)2(5)6/h1-2H",
        "InChIKey": null,
        "Canonical SMILES": "BrC(Br)C(Br)Br",
        "Molecular Formula": "C<sub>2</sub>H<sub>2</sub>Br<sub>4</sub>",
        "Molecular Mass": "345.65",
        "Boiling Point": "151 °C @ Press: 54 Torr",
        "Melting Point": "0 °C",
        "Density": "2.9656 g/cm³ @ Temp: 20 °C"
    }
}