{
    "cas_no": "18595-16-9",
    "key_name": "Benzoic acid, 2-amino-5-methyl-, methyl ester",
    "cn_name": null,
    "alternate_name": "Benzoic acid, 2-amino-5-methyl-, methyl ester;<em>m</em>-Toluic acid, 6-amino-, methyl ester;Methyl 5-methylanthranilate;Methyl 2-amino-5-methylbenzoate;2-Amino-5-methylbenzoic acid methyl ester",
    "duplicated_cas_no": "",
    "SMILES": "C(OC)(=O)C1=C(N)C=CC(C)=C1",
    "meta_data": {
        "InChI": "InChI=1S/C9H11NO2/c1-6-3-4-8(10)7(5-6)9(11)12-2/h3-5H,10H2,1-2H3",
        "InChIKey": null,
        "Canonical SMILES": "O=C(OC)C1=CC(=CC=C1N)C",
        "Molecular Formula": "C<sub>9</sub>H<sub>11</sub>NO<sub>2</sub>",
        "Molecular Mass": "165.19",
        "Melting Point": "69-70 °C"
    }
}