{
    "cas_no": "507-19-7",
    "key_name": "<em>tert</em>-Butyl bromide",
    "cn_name": "溴代叔丁烷;三甲基溴甲烷;叔丁基溴;",
    "alternate_name": "Propane, 2-bromo-2-methyl-;2-Bromo-2-methylpropane;2-Bromoisobutane;<em>tert</em>-Butyl bromide;Trimethylbromomethane;Bromotrimethylmethane;2-Methyl-2-bromopropane;1,1-Dimethylethyl bromide;NSC 8418",
    "duplicated_cas_no": "",
    "SMILES": "C(Br)(C)(C)C",
    "meta_data": {
        "InChI": "InChI=1S/C4H9Br/c1-4(2,3)5/h1-3H3",
        "InChIKey": null,
        "Canonical SMILES": "BrC(C)(C)C",
        "Molecular Formula": "C<sub>4</sub>H<sub>9</sub>Br",
        "Molecular Mass": "137.02",
        "Boiling Point": "73.3 °C @ Press: 760 Torr",
        "Melting Point": "-16.2 °C",
        "Density": "1.2125 g/cm³ @ Temp: 25 °C"
    }
}