{
    "cas_no": "1112-67-0",
    "key_name": "Tetrabutylammonium chloride",
    "cn_name": "四丁基氯化铵;四正丁基氯化铵;",
    "alternate_name": "1-Butanaminium, <em>N</em>,<em>N</em>,<em>N</em>-tributyl-, chloride (1:1);Ammonium, tetrabutyl-, chloride;Tetrabutylammonium chloride;1-Butanaminium, <em>N</em>,<em>N</em>,<em>N</em>-tributyl-, chloride;<em>N</em>,<em>N</em>,<em>N</em>-Tributyl-1-butanaminium chloride;Tetra-<em>n</em>-butylammonium chloride;TBAC;TBAC 100;TBACl",
    "duplicated_cas_no": "25147-59-5;959714-50-2;959714-52-4;1095010-41-5;1393673-90-9",
    "SMILES": "[N+](CCCC)(CCCC)(CCCC)CCCC.[Cl-]",
    "meta_data": {
        "InChI": "InChI=1S/C16H36N.ClH/c1-5-9-13-17(14-10-6-2,15-11-7-3)16-12-8-4;/h5-16H2,1-4H3;1H/q+1;/p-1",
        "InChIKey": null,
        "Canonical SMILES": "[Cl-].CCCC[N+](CCCC)(CCCC)CCCC",
        "Molecular Formula": "C<sub>16</sub>H<sub>36</sub>N.Cl",
        "Molecular Mass": "",
        "Melting Point": "52-54 °C"
    }
}