{
    "cas_no": "109-78-4",
    "key_name": "3-Hydroxypropionitrile",
    "cn_name": "3-羟基丙腈;",
    "alternate_name": "Propanenitrile, 3-hydroxy-;Hydracrylonitrile;3-Hydroxypropanenitrile;2-Cyanoethanol;Ethylene cyanohydrin;Glycol cyanohydrin;β-Hydroxypropionitrile;3-Hydroxypropionitrile;2-Cyanoethyl alcohol;2-Hydroxycyanoethane;β-Cyanoethanol;2-Hydroxyethyl cyanide;1-Cyano-2-hydroxyethane;β-Hydroxyethyl cyanide;NSC 2598;Ethylene cyanhydrine",
    "duplicated_cas_no": "",
    "SMILES": "C(C#N)CO",
    "meta_data": {
        "InChI": "InChI=1S/C3H5NO/c4-2-1-3-5/h5H,1,3H2",
        "InChIKey": null,
        "Canonical SMILES": "N#CCCO",
        "Molecular Formula": "C<sub>3</sub>H<sub>5</sub>NO",
        "Molecular Mass": "71.08",
        "Boiling Point": "221 °C",
        "Melting Point": "-46 °C",
        "Density": "1.0404 g/cm³ @ Temp: 25 °C"
    }
}