{
    "cas_no": "629-63-0",
    "key_name": "Tetradecanenitrile",
    "cn_name": "十四腈;正十四烷基腈;十四腈;肉豆蔻腈;",
    "alternate_name": "Tetradecanenitrile;Myristonitrile;Tetradecanonitrile;<em>n</em>-Tetradecanonitrile;NSC 910;Tridecyl cyanide;Myristyl nitrile",
    "duplicated_cas_no": "",
    "SMILES": "C(CCCCCCC)CCCCCC#N",
    "meta_data": {
        "InChI": "InChI=1S/C14H27N/c1-2-3-4-5-6-7-8-9-10-11-12-13-14-15/h2-13H2,1H3",
        "InChIKey": null,
        "Canonical SMILES": "N#CCCCCCCCCCCCCC",
        "Molecular Formula": "C<sub>14</sub>H<sub>27</sub>N",
        "Molecular Mass": "209.37",
        "Melting Point": "19 °C"
    }
}