{
    "cas_no": "760-32-7",
    "key_name": "Diethylmethylsilane",
    "cn_name": "二乙基甲基硅烷;",
    "alternate_name": "Silane, diethylmethyl-;Diethylmethylsilane;Methyldiethylsilane",
    "duplicated_cas_no": "",
    "SMILES": "[SiH](CC)(CC)C",
    "meta_data": {
        "InChI": "InChI=1S/C5H14Si/c1-4-6(3)5-2/h6H,4-5H2,1-3H3",
        "InChIKey": null,
        "Canonical SMILES": "CC[SiH](C)CC",
        "Molecular Formula": "C<sub>5</sub>H<sub>14</sub>Si",
        "Molecular Mass": "102.25",
        "Boiling Point": "78 °C",
        "Density": "0.705 g/cm³"
    }
}