{
    "cas_no": "6975-98-0",
    "key_name": "2-Methyldecane",
    "cn_name": "2-甲基癸烷;2-甲基癸烷;",
    "alternate_name": "Decane, 2-methyl-;2-Methyldecane;NSC 20567",
    "duplicated_cas_no": "",
    "SMILES": "C(CCCCC)CCC(C)C",
    "meta_data": {
        "InChI": "InChI=1S/C11H24/c1-4-5-6-7-8-9-10-11(2)3/h11H,4-10H2,1-3H3",
        "InChIKey": null,
        "Canonical SMILES": "CCCCCCCCC(C)C",
        "Molecular Formula": "C<sub>11</sub>H<sub>24</sub>",
        "Molecular Mass": "156.31",
        "Boiling Point": "189.3 °C",
        "Melting Point": "-48.9 °C",
        "Density": "0.726 g/cm³"
    }
}