{
    "cas_no": "3073-66-3",
    "key_name": "3,3,5-Trimethylcyclohexane",
    "cn_name": "1,1,3-三甲基环己烷;",
    "alternate_name": "Cyclohexane, 1,1,3-trimethyl-;1,1,3-Trimethylcyclohexane;Cyclogeraniolane;NSC 73965;3,3,5-Trimethylcyclohexane",
    "duplicated_cas_no": "150927-12-1",
    "SMILES": "CC1(C)CC(C)CCC1",
    "meta_data": {
        "InChI": "InChI=1S/C9H18/c1-8-5-4-6-9(2,3)7-8/h8H,4-7H2,1-3H3",
        "InChIKey": null,
        "Canonical SMILES": "CC1CCCC(C)(C)C1",
        "Molecular Formula": "C<sub>9</sub>H<sub>18</sub>",
        "Molecular Mass": "126.24",
        "Boiling Point": "136.6 °C",
        "Melting Point": "-65.7 °C",
        "Density": "0.7868 g/cm³ @ Temp: 25 °C"
    }
}