{
    "cas_no": "50-02-2",
    "key_name": "Dexamethasone",
    "cn_name": "地塞米松;",
    "alternate_name": "Pregna-1,4-diene-3,20-dione, 9-fluoro-11,17,21-trihydroxy-16-methyl-, (11β,16α)-;Pregna-1,4-diene-3,20-dione, 9-fluoro-11β,17,21-trihydroxy-16α-methyl-;(11β,16α)-9-Fluoro-11,17,21-trihydroxy-16-methylpregna-1,4-diene-3,20-dione;MK 125;Corsone;Decaderm;Decadron;Decasone;1-Dehydro-16α-methyl-9α-fluorohydrocortisone;Dergramin;Deronil;Desadrene;Dexacort;Dexa-Cortidelt;Dexadeltone;Dexameth;Dexamethasone;Dextelan;9α-Fluoro-16α-methylprednisolone;9α-Fluoro-16α-methyl-1,4-pregnadiene-11β,17α,21-triol-3,20-dione;9α-Fluoro-16α-methyl-11β,17,21-trihydroxypregna-1,4-diene-3,20-dione;9-Fluoro-11β,17,21-trihydroxy-16α-methylpregna-1,4-diene-3,20-dione;9α-Fluoro-11β,17α,21-trihydroxy-16α-methyl-1,4-pregnadiene-3,20-dione;Gammacorten;Hexadecadrol;Hexadrol;16α-Methyl-9α-fluoro-Δ<sup>1</sup>-hydrocortisone;16α-Methyl-9α-fluoroprednisolone;16α-Methyl-9α-fluoro-1,4-pregnadiene-11β,17α,21-triol-3,20-dione;16α-Methyl-9α-fluoro-11β,17α,21-trihydroxypregna-1,4-diene-3,20-dione;Maxidex;Millicorten;Oradexon;Superprednol;Deltafluorene;Dexamethasone alcohol;Dexason;Prednisolon F;Dexa-Scheroson;Dexalona;Aphtasolon;Desameton;Calonat;Dekacort;Visumetazone;Prednisolone F;Dexapolcort;Azium;HL-Dex;Fluorocort;Dexaprol;Dexaltin;Aphthasolone;Dexasone;Dexonium;Luxazone;Decalix;Lokalison F;Dexa-sine;Aeroseb-Dex;Dinormon;Pet-Derm III;Deseronil;Dexacortal;Dexafarma;Dexapos;Dexacortin;Cortisumman;Loverine;Dexinoral;Fluormone;Dexamonozon;Isopto-Dex;Dexa-Mamallet;Decacort;Adexone;NSC 34521;Decadron A;Delipos;Gentalipos;Surodex;Etacortilen;Dexone;Diodex;Posurdex;Dexmethsone;Dekort;Ozurdex;Dexaratiopharm;Dexaven;Dexium;Minidex;Fluormethylprednisolone;DEX;Oftan;Neofordex;AVM 0703;De-Sone LA;Dxevo;Dextenza;24: PN: US20220380460 SEQID: 25 claimed sequence;MeSH ID: D003907",
    "duplicated_cas_no": "137098-19-2;8054-59-9;906422-84-2;1050677-47-8;906362-70-7",
    "SMILES": "F[C@@]12[C@]([C@]3([C@](C)(C[C@@H]1O)[C@](C(CO)=O)(O)[C@H](C)C3)[H])(CCC=4[C@]2(C)C=CC(=O)C4)[H]",
    "meta_data": {
        "InChI": "InChI=1S/C22H29FO5/c1-12-8-16-15-5-4-13-9-14(25)6-7-19(13,2)21(15,23)17(26)10-20(16,3)22(12,28)18(27)11-24/h6-7,9,12,15-17,24,26,28H,4-5,8,10-11H2,1-3H3/t12-,15+,16+,17+,19+,20+,21+,22+/m1/s1",
        "InChIKey": null,
        "Canonical SMILES": "O=C1C=CC2(C(=C1)CCC3C4CC(C)C(O)(C(=O)CO)C4(C)CC(O)C32F)C",
        "Molecular Formula": "C<sub>22</sub>H<sub>29</sub>FO<sub>5</sub>",
        "Molecular Mass": "392.46",
        "Melting Point": "262-264 °C"
    }
}