{
    "cas_no": "502-42-1",
    "key_name": "Cycloheptanone",
    "cn_name": "环庚酮;软木酮;",
    "alternate_name": "Cycloheptanone;Ketocycloheptane;Ketoheptamethylene;Suberone;Suberon;NSC 9471",
    "duplicated_cas_no": "",
    "SMILES": "O=C1CCCCCC1",
    "meta_data": {
        "InChI": "InChI=1S/C7H12O/c8-7-5-3-1-2-4-6-7/h1-6H2",
        "InChIKey": null,
        "Canonical SMILES": "O=C1CCCCCC1",
        "Molecular Formula": "C<sub>7</sub>H<sub>12</sub>O",
        "Molecular Mass": "112.17",
        "Boiling Point": "178.5 °C",
        "Melting Point": "&lt;25 °C",
        "Density": "0.9508 g/cm³ @ Temp: 20 °C"
    }
}