{
    "cas_no": "82547-58-8",
    "key_name": "Cefteram",
    "cn_name": "头孢特仑新戊酯;头孢特仑新戊酰氧甲酯;2,2-二甲基丙酰氧基甲基(6R,7R)-7-[(Z)-2-(2-氨基噻唑-4-基)-2-甲氧;",
    "alternate_name": "5-Thia-1-azabicyclo[4.2.0]oct-2-ene-2-carboxylic acid, 7-[[(2<em>Z</em>)-2-(2-amino-4-thiazolyl)-2-(methoxyimino)acetyl]amino]-3-[(5-methyl-2<em>H</em>-tetrazol-2-yl)methyl]-8-oxo-, (6<em>R</em>,7<em>R</em>)-;5-Thia-1-azabicyclo[4.2.0]oct-2-ene-2-carboxylic acid, 7-[[(2-amino-4-thiazolyl)(methoxyimino)acetyl]amino]-3-[(5-methyl-2<em>H</em>-tetrazol-2-yl)methyl]-8-oxo-, [6<em>R</em>-[6α,7β(<em>Z</em>)]]-;5-Thia-1-azabicyclo[4.2.0]oct-2-ene-2-carboxylic acid, 7-[[(2<em>Z</em>)-(2-amino-4-thiazolyl)(methoxyimino)acetyl]amino]-3-[(5-methyl-2<em>H</em>-tetrazol-2-yl)methyl]-8-oxo-, (6<em>R</em>,7<em>R</em>)-;(6<em>R</em>,7<em>R</em>)-7-[[(2<em>Z</em>)-2-(2-Amino-4-thiazolyl)-2-(methoxyimino)acetyl]amino]-3-[(5-methyl-2<em>H</em>-tetrazol-2-yl)methyl]-8-oxo-5-thia-1-azabicyclo[4.2.0]oct-2-ene-2-carboxylic acid;Ro 19-5247;Ceftetrame;Cefteram;T 2525;Antibiotic T 2525;Cefterame;Antibiotic Ro 19-5247",
    "duplicated_cas_no": "106033-46-9;110685-66-0",
    "SMILES": "C(O)(=O)C=1N2[C@@]([C@H](NC(/C(=N\\OC)/C=3N=C(N)SC3)=O)C2=O)(SCC1CN4N=C(C)N=N4)[H]",
    "meta_data": {
        "InChI": "InChI=1S/C16H17N9O5S2/c1-6-20-23-24(21-6)3-7-4-31-14-10(13(27)25(14)11(7)15(28)29)19-12(26)9(22-30-2)8-5-32-16(17)18-8/h5,10,14H,3-4H2,1-2H3,(H2,17,18)(H,19,26)(H,28,29)/b22-9-/t10-,14-/m1/s1",
        "InChIKey": null,
        "Canonical SMILES": "O=C(O)C1=C(CSC2N1C(=O)C2NC(=O)C(=NOC)C=3N=C(SC3)N)CN4N=NC(=N4)C",
        "Molecular Formula": "C<sub>16</sub>H<sub>17</sub>N<sub>9</sub>O<sub>5</sub>S<sub>2</sub>",
        "Molecular Mass": "479.49",
        "Melting Point": "&gt;200 °C"
    }
}