{
    "cas_no": "4957-14-6",
    "key_name": "4,4′-Dimethyldiphenylmethane",
    "cn_name": "二对甲苯基甲烷;",
    "alternate_name": "Benzene, 1-methyl-4-[(4-methylphenyl)methyl]-;Methane, di-<em>p</em>-tolyl-;Benzene, 1,1′-methylenebis[4-methyl-;1-Methyl-4-[(4-methylphenyl)methyl]benzene;4,4′-Dimethyldiphenylmethane;Di-<em>p</em>-tolylmethane;4,4′-Ditolylmethane;Bis(4-methylphenyl)methane;Bis(4-tolyl)methane;Bis(<em>p</em>-tolyl)methane;Di(<em>p</em>-methylphenyl)methane;<em>p</em>,<em>p</em>′-Ditolylmethane;NSC 93789;<em>p</em>-(<em>p</em>-Methylbenzyl)toluene;<em>p</em>-(4-Methylbenzyl)toluene",
    "duplicated_cas_no": "",
    "SMILES": "C(C1=CC=C(C)C=C1)C2=CC=C(C)C=C2",
    "meta_data": {
        "InChI": "InChI=1S/C15H16/c1-12-3-7-14(8-4-12)11-15-9-5-13(2)6-10-15/h3-10H,11H2,1-2H3",
        "InChIKey": null,
        "Canonical SMILES": "C=1C=C(C=CC1C)CC2=CC=C(C=C2)C",
        "Molecular Formula": "C<sub>15</sub>H<sub>16</sub>",
        "Molecular Mass": "196.29",
        "Boiling Point": "286 °C",
        "Melting Point": "28 °C",
        "Density": "0.9767 g/cm³ @ Temp: 20 °C"
    }
}