{
    "cas_no": "1145-81-9",
    "key_name": "<em>N</em>-[(Phenylmethoxy)carbonyl]glycine ethyl ester",
    "cn_name": null,
    "alternate_name": "Glycine, <em>N</em>-[(phenylmethoxy)carbonyl]-, ethyl ester;Glycine, <em>N</em>-carboxy-, <em>N</em>-benzyl ethyl ester;<em>N</em>-[(Phenylmethoxy)carbonyl]glycine ethyl ester;Ethyl <em>Z</em>-glycinate;Ethyl carbobenzoxyglycinate;<em>N</em>-Benzyloxycarbonylglycine ethyl ester;<em>N</em>-Carboxyglycine <em>N</em>-benzyl ethyl ester;Ethyl <em>N</em>-(benzyloxycarbonyl)glycinate;Z-Gly-OEt;NSC 617251",
    "duplicated_cas_no": "",
    "SMILES": "C(OC(NCC(OCC)=O)=O)C1=CC=CC=C1",
    "meta_data": {
        "InChI": "InChI=1S/C12H15NO4/c1-2-16-11(14)8-13-12(15)17-9-10-6-4-3-5-7-10/h3-7H,2,8-9H2,1H3,(H,13,15)",
        "InChIKey": null,
        "Canonical SMILES": "O=C(OCC=1C=CC=CC1)NCC(=O)OCC",
        "Molecular Formula": "C<sub>12</sub>H<sub>15</sub>NO<sub>4</sub>",
        "Molecular Mass": "237.25",
        "Melting Point": "35.5-36.5 °C"
    }
}