{
    "cas_no": "610-96-8",
    "key_name": "Methyl 2-chlorobenzoate",
    "cn_name": "2-氯苯甲酸甲酯;邻氯苯甲酸甲酯;",
    "alternate_name": "Benzoic acid, 2-chloro-, methyl ester;Benzoic acid, <em>o</em>-chloro-, methyl ester;Methyl 2-chlorobenzoate;Methyl <em>o</em>-chlorobenzoate;NSC 7320;2-Chlorobenzoic acid methyl ester",
    "duplicated_cas_no": "",
    "SMILES": "C(OC)(=O)C1=C(Cl)C=CC=C1",
    "meta_data": {
        "InChI": "InChI=1S/C8H7ClO2/c1-11-8(10)6-4-2-3-5-7(6)9/h2-5H,1H3",
        "InChIKey": null,
        "Canonical SMILES": "O=C(OC)C=1C=CC=CC1Cl",
        "Molecular Formula": "C<sub>8</sub>H<sub>7</sub>ClO<sub>2</sub>",
        "Molecular Mass": "170.59",
        "Boiling Point": "99 °C @ Press: 8.5 Torr"
    }
}