{
    "cas_no": "20059-73-8",
    "key_name": "4-[2-(Dimethylamino)ethoxy]benzenemethanamine",
    "cn_name": "4-[2-(二甲基氨基)乙氧基]苄胺;",
    "alternate_name": "Benzenemethanamine, 4-[2-(dimethylamino)ethoxy]-;Benzylamine, <em>p</em>-[2-(dimethylamino)ethoxy]-;4-[2-(Dimethylamino)ethoxy]benzenemethanamine;NSC 37857;4-[2-(Dimethylamino)ethoxy]benzylamine;2-[4-(Aminomethyl)phenoxy]-<em>N</em>,<em>N</em>-dimethylethanamine;[2-(4-Aminomethyl-phenoxy)-ethyl]-dimethyl-amine;[4-[2-(Dimethylamino)ethoxy]phenyl]methanamine;[2-[(4-Aminomethylphenyl)oxy]ethyl]dimethylamine;2-[4-(Aminomethyl)phenoxy]-<em>N</em>,<em>N</em>-dimethylethan-1-amine",
    "duplicated_cas_no": "",
    "SMILES": "O(CCN(C)C)C1=CC=C(CN)C=C1",
    "meta_data": {
        "InChI": "InChI=1S/C11H18N2O/c1-13(2)7-8-14-11-5-3-10(9-12)4-6-11/h3-6H,7-9,12H2,1-2H3",
        "InChIKey": null,
        "Canonical SMILES": "O(C1=CC=C(C=C1)CN)CCN(C)C",
        "Molecular Formula": "C<sub>11</sub>H<sub>18</sub>N<sub>2</sub>O",
        "Molecular Mass": "194.27",
        "Boiling Point": "120-123 °C @ Press: 0.3 Torr"
    }
}