{
    "cas_no": "515-30-0",
    "key_name": "Atrolactic acid",
    "cn_name": null,
    "alternate_name": "Benzeneacetic acid, α-hydroxy-α-methyl-;Atrolactic acid;Mandelic acid, α-methyl-;α-Hydroxy-α-methylbenzeneacetic acid;α-Hydroxy-α-phenylpropionic acid;2-Hydroxy-2-phenylpropionic acid;2-Phenyl-2-hydroxypropionic acid;α-Phenyllactic acid;2-Phenyllactic acid;Atrolactinic acid;α-Methylmandelic acid;α-Hydroxy-2-phenylpropionic acid;<span class=\"text-smallcaps\">DL</span>-Atrolactic acid;<span class=\"text-smallcaps\">DL</span>-α-Methylmandelic acid;(±)-α-Hydroxy-α-methylbenzeneacetic acid;<span class=\"text-smallcaps\">DL</span>-α-Phenyllactic acid;<em>dl</em>-Atrolactic acid;(±)-2-Hydroxy-2-phenylpropionic acid;(±)-Atrolactic acid;<span class=\"text-smallcaps\">DL</span>-2-Phenyllactic acid;(±)-2-Phenyllactic acid;2-Hydroxy-2-phenylpropanoic acid;(<em>RS</em>)-2-Phenyllactic acid;2-Hydroxy-2-phenyl-2-methylacetic acid;NSC 128998;NSC 401846",
    "duplicated_cas_no": "4607-38-9",
    "SMILES": "C(C(O)=O)(C)(O)C1=CC=CC=C1",
    "meta_data": {
        "InChI": "InChI=1S/C9H10O3/c1-9(12,8(10)11)7-5-3-2-4-6-7/h2-6,12H,1H3,(H,10,11)",
        "InChIKey": null,
        "Canonical SMILES": "O=C(O)C(O)(C=1C=CC=CC1)C",
        "Molecular Formula": "C<sub>9</sub>H<sub>10</sub>O<sub>3</sub>",
        "Molecular Mass": "166.17",
        "Boiling Point": "127 °C @ Press: 12 Torr",
        "Melting Point": "116.5 °C"
    }
}