{
    "cas_no": "8021-39-4",
    "key_name": "Wood creosote",
    "cn_name": null,
    "alternate_name": "Wood creosote;Creosote, wood;Creosote beechwood;Beechwood creosote",
    "duplicated_cas_no": "",
    "SMILES": "",
    "meta_data": {
        "InChI": "",
        "InChIKey": null,
        "Canonical SMILES": "",
        "Molecular Formula": "Unspecified",
        "Molecular Mass": "",
        "Boiling Point": "~203 °C (approx)"
    }
}