{
    "uri": "substance/pt/8021394",
    "rn": "8021-39-4",
    "name": "Wood creosote",
    "images": [],
    "inchi": "",
    "inchiKey": "",
    "smile": "",
    "canonicalSmile": "",
    "molecularFormula": "Unspecified",
    "molecularMass": "",
    "experimentalProperties": [
        {
            "name": "Boiling Point",
            "property": "~203 °C (approx)",
            "sourceNumber": 1
        }
    ],
    "propertyCitations": [
        {
            "docUri": "",
            "sourceNumber": 1,
            "source": "Hazardous Substances Data Bank data were obtained from the National Library of Medicine (US)"
        }
    ],
    "synonyms": [
        "Wood creosote",
        "Creosote, wood",
        "Creosote beechwood",
        "Beechwood creosote"
    ],
    "replacedRns": [],
    "hasMolfile": false,
    "source": "https://commonchemistry.cas.org/detail?cas_rn=8021-39-4"
}