{
    "cas_no": "56775-88-3",
    "key_name": "Zimelidine",
    "cn_name": "4-氨基邻苯二甲腈;泽麦定;",
    "alternate_name": "2-Propen-1-amine, 3-(4-bromophenyl)-<em>N</em>,<em>N</em>-dimethyl-3-(3-pyridinyl)-, (2<em>Z</em>)-;2-Propen-1-amine, 3-(4-bromophenyl)-<em>N</em>,<em>N</em>-dimethyl-3-(3-pyridinyl)-, (<em>Z</em>)-;(2<em>Z</em>)-3-(4-Bromophenyl)-<em>N</em>,<em>N</em>-dimethyl-3-(3-pyridinyl)-2-propen-1-amine;<em>cis</em>-H 102/09;Zimelidine;<em>cis</em>-Zimelidine;(<em>Z</em>)-Zimelidine;Zimeldine;H 102/09",
    "duplicated_cas_no": "",
    "SMILES": "C(=C/CN(C)C)(\\C1=CC=C(Br)C=C1)/C=2C=CC=NC2",
    "meta_data": {
        "InChI": "InChI=1S/C16H17BrN2/c1-19(2)11-9-16(14-4-3-10-18-12-14)13-5-7-15(17)8-6-13/h3-10,12H,11H2,1-2H3/b16-9-",
        "InChIKey": null,
        "Canonical SMILES": "BrC1=CC=C(C=C1)C(=CCN(C)C)C=2C=NC=CC2",
        "Molecular Formula": "C<sub>16</sub>H<sub>17</sub>BrN<sub>2</sub>",
        "Molecular Mass": "317.22",
        "Melting Point": "196-199 °C"
    }
}