{
    "cas_no": "26646-63-9",
    "key_name": "2-[2-(2-Methoxyphenoxy)ethyl]-1<em>H</em>-isoindole-1,3(2<em>H</em>)-dione",
    "cn_name": null,
    "alternate_name": "1<em>H</em>-Isoindole-1,3(2<em>H</em>)-dione, 2-[2-(2-methoxyphenoxy)ethyl]-;Phthalimide, <em>N</em>-[2-(<em>o</em>-methoxyphenoxy)ethyl]-;2-[2-(2-Methoxyphenoxy)ethyl]-1<em>H</em>-isoindole-1,3(2<em>H</em>)-dione;2-[2-(2-Methoxy-phenoxy)-ethyl]-isoindole-1,3-dione;2-[2-(2-Methoxyphenoxy)ethyl]-2,3-dihydro-1<em>H</em>-isoindole-1,3-dione",
    "duplicated_cas_no": "",
    "SMILES": "O=C1C=2C(C(=O)N1CCOC3=C(OC)C=CC=C3)=CC=CC2",
    "meta_data": {
        "InChI": "InChI=1S/C17H15NO4/c1-21-14-8-4-5-9-15(14)22-11-10-18-16(19)12-6-2-3-7-13(12)17(18)20/h2-9H,10-11H2,1H3",
        "InChIKey": null,
        "Canonical SMILES": "O=C1C=2C=CC=CC2C(=O)N1CCOC=3C=CC=CC3OC",
        "Molecular Formula": "C<sub>17</sub>H<sub>15</sub>NO<sub>4</sub>",
        "Molecular Mass": "297.31",
        "Melting Point": "102-108 °C"
    }
}