{
    "cas_no": "141-18-4",
    "key_name": "Bis(2-butoxyethyl) adipate",
    "cn_name": null,
    "alternate_name": "Hexanedioic acid, 1,6-bis(2-butoxyethyl) ester;Adipic acid, bis(2-butoxyethyl) ester;Hexanedioic acid, bis(2-butoxyethyl) ester;Ethanol, 2-butoxy-, adipate (2:1);Adipic acid, bis(ethylene glycol monobutyl ether) ester;Adipol BCA;Bis(2-butoxyethyl) adipate;Bis(ethylene glycol monobutyl ether) adipate;Di(2-butoxyethyl) adipate;Staflex DBEA;Di(butoxyethyl) adipate;Bis(butoxyethyl) adipate;Plasthall 203;Sunkonol 0862-0;D 931;NSC 4813;Bis(2-butoxylethyl) adipate;SDX 3789",
    "duplicated_cas_no": "",
    "SMILES": "C(CCCCC(OCCOCCCC)=O)(OCCOCCCC)=O",
    "meta_data": {
        "InChI": "InChI=1S/C18H34O6/c1-3-5-11-21-13-15-23-17(19)9-7-8-10-18(20)24-16-14-22-12-6-4-2/h3-16H2,1-2H3",
        "InChIKey": null,
        "Canonical SMILES": "O=C(OCCOCCCC)CCCCC(=O)OCCOCCCC",
        "Molecular Formula": "C<sub>18</sub>H<sub>34</sub>O<sub>6</sub>",
        "Molecular Mass": "346.46",
        "Boiling Point": "199-200 °C @ Press: 12 Torr",
        "Density": "1.051 g/cm³ @ Temp: 25 °C"
    }
}