{
    "cas_no": "5057-98-7",
    "key_name": "<em>cis</em>-1,2-Cyclopentanediol",
    "cn_name": "顺式-1,2-环戊二醇;顺式-1，2-环戊二醇;順1,2-環戊二醇;",
    "alternate_name": "1,2-Cyclopentanediol, (1<em>R</em>,2<em>S</em>)-<em>rel</em>-;1,2-Cyclopentanediol, <em>cis</em>-;<em>rel</em>-(1<em>R</em>,2<em>S</em>)-1,2-Cyclopentanediol;<em>cis</em>-1,2-Cyclopentanediol;1,2-<em>cis</em>-Cyclopentanediol;<em>meso</em>-1,2-Cyclopentanediol;<em>cis</em>-1,2-Dihydroxycyclopentane;(1<em>R</em>,2<em>S</em>)-1,2-Cyclopentanediol",
    "duplicated_cas_no": "905444-99-7;1093881-51-6;1268869-79-9;1402060-12-1;1418123-61-1;2291356-01-7;2847888-54-2;2983140-21-0",
    "SMILES": "O[C@H]1[C@@H](O)CCC1",
    "meta_data": {
        "InChI": "InChI=1/C5H10O2/c6-4-2-1-3-5(4)7/h4-7H,1-3H2/t4-,5+",
        "InChIKey": null,
        "Canonical SMILES": "OC1CCCC1O",
        "Molecular Formula": "C<sub>5</sub>H<sub>10</sub>O<sub>2</sub>",
        "Molecular Mass": "102.13",
        "Boiling Point": "130 °C @ Press: 20 Torr",
        "Melting Point": "48 °C"
    }
}