{
    "cas_no": "32795-47-4",
    "key_name": "Nomifensine maleate",
    "cn_name": "诺米芬新马来酸盐;",
    "alternate_name": "8-Isoquinolinamine, 1,2,3,4-tetrahydro-2-methyl-4-phenyl-, (2<em>Z</em>)-2-butenedioate (1:1);8-Isoquinolinamine, 1,2,3,4-tetrahydro-2-methyl-4-phenyl-, (<em>Z</em>)-2-butenedioate (1:1);Nomifensine maleate;Nomifensine hydrogen maleate;HOE 984;Alival (antidepressant);Alival;Merital;Psicronizer;(±)-Nomifensine hydrogen maleate;Neurolene;Hostalival;NSC 289114;2-Methyl-4-phenyl-1,2,3,4-tetrahydroisoquinolin-8-amine maleate",
    "duplicated_cas_no": "98644-14-5",
    "SMILES": "NC1=C2C(C(CN(C)C2)C3=CC=CC=C3)=CC=C1.C(=C\\C(O)=O)\\C(O)=O",
    "meta_data": {
        "InChI": "InChI=1S/C16H18N2.C4H4O4/c1-18-10-14(12-6-3-2-4-7-12)13-8-5-9-16(17)15(13)11-18;5-3(6)1-2-4(7)8/h2-9,14H,10-11,17H2,1H3;1-2H,(H,5,6)(H,7,8)/b;2-1-",
        "InChIKey": null,
        "Canonical SMILES": "O=C(O)C=CC(=O)O.NC1=CC=CC2=C1CN(C)CC2C=3C=CC=CC3",
        "Molecular Formula": "C<sub>16</sub>H<sub>18</sub>N<sub>2</sub>.C<sub>4</sub>H<sub>4</sub>O<sub>4</sub>",
        "Molecular Mass": "",
        "Melting Point": "199-201 °C"
    }
}