{
    "cas_no": "20725-03-5",
    "key_name": "(±)-Fustin",
    "cn_name": null,
    "alternate_name": "4<em>H</em>-1-Benzopyran-4-one, 2-(3,4-dihydroxyphenyl)-2,3-dihydro-3,7-dihydroxy-, (2<em>R</em>,3<em>R</em>)-<em>rel</em>-;Flavanone, 3,3′,4′,7-tetrahydroxy-;4<em>H</em>-1-Benzopyran-4-one, 2-(3,4-dihydroxyphenyl)-2,3-dihydro-3,7-dihydroxy-, <em>trans</em>-;Fustin;<em>rel</em>-(2<em>R</em>,3<em>R</em>)-2-(3,4-Dihydroxyphenyl)-2,3-dihydro-3,7-dihydroxy-4<em>H</em>-1-benzopyran-4-one;Dihydrofisetin;2,3-Dihydrofisetin;(±)-Fustin;<em>trans</em>-(±)-3,3′,4′,7-Tetrahydroxyflavanone;NSC 59264",
    "duplicated_cas_no": "490-33-5;1391-70-4;6514-92-7;20254-29-9;25532-60-9;30227-17-9",
    "SMILES": "O[C@@H]1[C@H](OC=2C(C1=O)=CC=C(O)C2)C3=CC(O)=C(O)C=C3",
    "meta_data": {
        "InChI": "InChI=1/C15H12O6/c16-8-2-3-9-12(6-8)21-15(14(20)13(9)19)7-1-4-10(17)11(18)5-7/h1-6,14-18,20H/t14-,15+/s2",
        "InChIKey": null,
        "Canonical SMILES": "O=C1C2=CC=C(O)C=C2OC(C3=CC=C(O)C(O)=C3)C1O",
        "Molecular Formula": "C<sub>15</sub>H<sub>12</sub>O<sub>6</sub>",
        "Molecular Mass": "288.25",
        "Melting Point": "226-228 °C"
    }
}