{
    "cas_no": "13042-39-2",
    "key_name": "Isosorbide 2-acetate",
    "cn_name": "异山梨醇-2-醋酸酯;2-乙酸异山梨醇酯;",
    "alternate_name": "<span class=\"text-smallcaps\">D</span>-Glucitol, 1,4:3,6-dianhydro-, 2-acetate;Glucitol, 1,4:3,6-dianhydro-, 2-acetate, <span class=\"text-smallcaps\">D</span>-;Glucitol, 1,4:3,6-dianhydro-, 2-acetate;Furo[3,2-<em>b</em>]furan, <span class=\"text-smallcaps\">D</span>-glucitol deriv.;Isosorbide 2-acetate;1,4:3,6-Dianhydro-<span class=\"text-smallcaps\">D</span>-glucitol 2-acetate",
    "duplicated_cas_no": "159662-05-2",
    "SMILES": "O(C(C)=O)[C@@H]1[C@@]2([C@@]([C@H](O)CO2)(OC1)[H])[H]",
    "meta_data": {
        "InChI": "InChI=1S/C8H12O5/c1-4(9)13-6-3-12-7-5(10)2-11-8(6)7/h5-8,10H,2-3H2,1H3/t5-,6+,7-,8-/m1/s1",
        "InChIKey": null,
        "Canonical SMILES": "O=C(OC1COC2C(O)COC12)C",
        "Molecular Formula": "C<sub>8</sub>H<sub>12</sub>O<sub>5</sub>",
        "Molecular Mass": "188.18",
        "Melting Point": "78 °C"
    }
}