{
    "cas_no": "76-62-0",
    "key_name": "Tetrabromophenolphthalein",
    "cn_name": "3,3,5,5-四溴酚酞;",
    "alternate_name": "1(3<em>H</em>)-Isobenzofuranone, 3,3-bis(3,5-dibromo-4-hydroxyphenyl)-;Phenolphthalein, 3′,3′′,5′,5′′-tetrabromo-;3,3-Bis(3,5-dibromo-4-hydroxyphenyl)-1(3<em>H</em>)-isobenzofuranone;Tetrabromophenolphthalein;3′,3′′,5′,5′′-Tetrabromophenolphthalein;NSC 21261;A 84568;3,3-Bis(3,5-dibromo-4-hydroxyphenyl)-2-benzofuran-1-one",
    "duplicated_cas_no": "",
    "SMILES": "O=C1OC(C=2C1=CC=CC2)(C3=CC(Br)=C(O)C(Br)=C3)C4=CC(Br)=C(O)C(Br)=C4",
    "meta_data": {
        "InChI": "InChI=1S/C20H10Br4O4/c21-13-5-9(6-14(22)17(13)25)20(10-7-15(23)18(26)16(24)8-10)12-4-2-1-3-11(12)19(27)28-20/h1-8,25-26H",
        "InChIKey": null,
        "Canonical SMILES": "O=C1OC(C2=CC(Br)=C(O)C(Br)=C2)(C3=CC(Br)=C(O)C(Br)=C3)C=4C=CC=CC14",
        "Molecular Formula": "C<sub>20</sub>H<sub>10</sub>Br<sub>4</sub>O<sub>4</sub>",
        "Molecular Mass": "633.91",
        "Melting Point": "296 °C"
    }
}