{
    "cas_no": "2846-89-1",
    "key_name": "5,6-Diamino-4(3<em>H</em>)-pyrimidinethione",
    "cn_name": "4,5-二氨基-6-巯基嘧啶;",
    "alternate_name": "4(3<em>H</em>)-Pyrimidinethione, 5,6-diamino-;4-Pyrimidinethiol, 5,6-diamino-;4(1<em>H</em>)-Pyrimidinethione, 5,6-diamino-;5,6-Diamino-4(3<em>H</em>)-pyrimidinethione;4,5-Diamino-6-mercaptopyrimidine;5,6-Diamino-4-pyrimidinethiol;4,5-Diaminopyrimidine-6(1<em>H</em>)-thione;NSC 30021",
    "duplicated_cas_no": "19215-27-1",
    "SMILES": "NC1=C(N)NC=NC1=S",
    "meta_data": {
        "InChI": "InChI=1S/C4H6N4S/c5-2-3(6)7-1-8-4(2)9/h1H,5H2,(H3,6,7,8,9)",
        "InChIKey": null,
        "Canonical SMILES": "S=C1N=CNC(N)=C1N",
        "Molecular Formula": "C<sub>4</sub>H<sub>6</sub>N<sub>4</sub>S",
        "Molecular Mass": "142.18",
        "Melting Point": "257 °C (decomp)"
    }
}