{
    "cas_no": "5458-06-0",
    "key_name": "5-(4-Hydroxybutyl)-2,4-imidazolidinedione",
    "cn_name": null,
    "alternate_name": "2,4-Imidazolidinedione, 5-(4-hydroxybutyl)-;Hydantoin, 5-(4-hydroxybutyl)-;5-(4-Hydroxybutyl)-2,4-imidazolidinedione;5-(ω-Hydroxybutyl)hydantoin;5-(4-Hydroxybutyl)hydantoin;NSC 16534;NSC 23788",
    "duplicated_cas_no": "68469-36-3",
    "SMILES": "C(CCCO)C1NC(=O)NC1=O",
    "meta_data": {
        "InChI": "InChI=1S/C7H12N2O3/c10-4-2-1-3-5-6(11)9-7(12)8-5/h5,10H,1-4H2,(H2,8,9,11,12)",
        "InChIKey": null,
        "Canonical SMILES": "O=C1NC(=O)C(N1)CCCCO",
        "Molecular Formula": "C<sub>7</sub>H<sub>12</sub>N<sub>2</sub>O<sub>3</sub>",
        "Molecular Mass": "172.18",
        "Melting Point": "152-155 °C"
    }
}