{
    "cas_no": "487-69-4",
    "key_name": "Orcylaldehyde",
    "cn_name": null,
    "alternate_name": "Benzaldehyde, 2,4-dihydroxy-6-methyl-;β-Resorcylaldehyde, 6-methyl-;2,4-Dihydroxy-6-methylbenzaldehyde;Orcylaldehyde;<em>o</em>-Orsellinaldehyde;Orcinaldehyde;4-Formyl-5-methylresorcinol;2-Formyl-5-hydroxy-3-methylphenol;NSC 72346;4-Formyl-5-methylbenzene-1,3-diol",
    "duplicated_cas_no": "",
    "SMILES": "C(=O)C1=C(C)C=C(O)C=C1O",
    "meta_data": {
        "InChI": "InChI=1S/C8H8O3/c1-5-2-6(10)3-8(11)7(5)4-9/h2-4,10-11H,1H3",
        "InChIKey": null,
        "Canonical SMILES": "O=CC=1C(O)=CC(O)=CC1C",
        "Molecular Formula": "C<sub>8</sub>H<sub>8</sub>O<sub>3</sub>",
        "Molecular Mass": "152.15",
        "Melting Point": "182-183 °C"
    }
}