{
    "cas_no": "14062-80-7",
    "key_name": "4-Chloro-<em>N</em>,<em>N</em>-dimethylbenzamide",
    "cn_name": null,
    "alternate_name": "Benzamide, 4-chloro-<em>N</em>,<em>N</em>-dimethyl-;Benzamide, <em>p</em>-chloro-<em>N</em>,<em>N</em>-dimethyl-;4-Chloro-<em>N</em>,<em>N</em>-dimethylbenzamide;<em>p</em>-Chloro-<em>N</em>,<em>N</em>-dimethylbenzamide;<em>N</em>,<em>N</em>-Methyl-<em>p</em>-chlorobenzamide;<em>N</em>,<em>N</em>-Dimethyl-4-chlorobenzamide;<em>N</em>,<em>N</em>-Dimethyl-<em>p</em>-chlorobenzamide;NSC 38420",
    "duplicated_cas_no": "",
    "SMILES": "C(N(C)C)(=O)C1=CC=C(Cl)C=C1",
    "meta_data": {
        "InChI": "InChI=1S/C9H10ClNO/c1-11(2)9(12)7-3-5-8(10)6-4-7/h3-6H,1-2H3",
        "InChIKey": null,
        "Canonical SMILES": "O=C(C1=CC=C(Cl)C=C1)N(C)C",
        "Molecular Formula": "C<sub>9</sub>H<sub>10</sub>ClNO",
        "Molecular Mass": "183.63",
        "Boiling Point": "128-130 °C @ Press: 1.2 Torr",
        "Melting Point": "57-58 °C"
    }
}