{
    "cas_no": "623-12-1",
    "key_name": "4-Chloroanisole",
    "cn_name": "4-氯苯甲醚;对氯苯甲醚;",
    "alternate_name": "Benzene, 1-chloro-4-methoxy-;Anisole, <em>p</em>-chloro-;1-Chloro-4-methoxybenzene;<em>p</em>-Chloroanisole;<em>p</em>-Chlorophenyl methyl ether;4-Chloroanisole;4-Chlorophenol methyl ether;Anisyl chloride;<em>p</em>-Chloromethoxybenzene;<em>p</em>-Methoxychlorobenzene;4-Methoxychlorobenzene;4-Methoxyphenyl chloride;<em>p</em>-Methoxyphenyl chloride;1-Methoxy-4-chlorobenzene;NSC 4129;4-Methoxy-1-chlorobenzene;4-Chlorophenyl methyl ether;4-Chloro-1-methoxybenzene",
    "duplicated_cas_no": "",
    "SMILES": "O(C)C1=CC=C(Cl)C=C1",
    "meta_data": {
        "InChI": "InChI=1S/C7H7ClO/c1-9-7-4-2-6(8)3-5-7/h2-5H,1H3",
        "InChIKey": null,
        "Canonical SMILES": "ClC1=CC=C(OC)C=C1",
        "Molecular Formula": "C<sub>7</sub>H<sub>7</sub>ClO",
        "Molecular Mass": "142.58",
        "Boiling Point": "197.5 °C",
        "Melting Point": "&lt;-18 °C"
    }
}