{
    "cas_no": "118-79-6",
    "key_name": "2,4,6-Tribromophenol",
    "cn_name": "三溴苯酚;2,4,6-三溴苯酚;2,4,6-三溴酚;",
    "alternate_name": "Phenol, 2,4,6-tribromo-;2,4,6-Tribromophenol;Bromol;Bromkal Pur 3;Flammex 3BP;1,3,5-Tribromo-2-hydroxybenzene;NSC 2136;PH 73",
    "duplicated_cas_no": "",
    "SMILES": "OC1=C(Br)C=C(Br)C=C1Br",
    "meta_data": {
        "InChI": "InChI=1S/C6H3Br3O/c7-3-1-4(8)6(10)5(9)2-3/h1-2,10H",
        "InChIKey": null,
        "Canonical SMILES": "BrC=1C=C(Br)C(O)=C(Br)C1",
        "Molecular Formula": "C<sub>6</sub>H<sub>3</sub>Br<sub>3</sub>O",
        "Molecular Mass": "330.80",
        "Boiling Point": "286 °C",
        "Melting Point": "94-96 °C",
        "Density": "2.55 g/cm³ @ Temp: 20 °C"
    }
}