{
    "cas_no": "62596-29-6",
    "key_name": "Morusin",
    "cn_name": null,
    "alternate_name": "4<em>H</em>,8<em>H</em>-Benzo[1,2-<em>b</em>:3,4-<em>b</em>′]dipyran-4-one, 2-(2,4-dihydroxyphenyl)-5-hydroxy-8,8-dimethyl-3-(3-methyl-2-buten-1-yl)-;4<em>H</em>,8<em>H</em>-Benzo[1,2-<em>b</em>:3,4-<em>b</em>′]dipyran-4-one, 2-(2,4-dihydroxyphenyl)-5-hydroxy-8,8-dimethyl-3-(3-methyl-2-butenyl)-;2-(2,4-Dihydroxyphenyl)-5-hydroxy-8,8-dimethyl-3-(3-methyl-2-buten-1-yl)-4<em>H</em>,8<em>H</em>-benzo[1,2-<em>b</em>:3,4-<em>b</em>′]dipyran-4-one;Morusin;Mulberrochromene;NSC 649220;2-(2,4-Dihydroxyphenyl)-5-hydroxy-8,8-dimethyl-3-(3-methylbut-2-enyl)pyrano[2,3-<em>h</em>]chromen-4-one",
    "duplicated_cas_no": "",
    "SMILES": "O=C1C2=C(C3=C(C=C2O)OC(C)(C)C=C3)OC(=C1CC=C(C)C)C4=C(O)C=C(O)C=C4",
    "meta_data": {
        "InChI": "InChI=1S/C25H24O6/c1-13(2)5-7-17-22(29)21-19(28)12-20-16(9-10-25(3,4)31-20)24(21)30-23(17)15-8-6-14(26)11-18(15)27/h5-6,8-12,26-28H,7H2,1-4H3",
        "InChIKey": null,
        "Canonical SMILES": "O=C1C2=C(O)C=C3OC(C=CC3=C2OC(C=4C=CC(O)=CC4O)=C1CC=C(C)C)(C)C",
        "Molecular Formula": "C<sub>25</sub>H<sub>24</sub>O<sub>6</sub>",
        "Molecular Mass": "420.45",
        "Melting Point": "232-235 °C"
    }
}