{
    "cas_no": "3528-51-6",
    "key_name": "1-(Phenylmethyl)-1<em>H</em>-pyrazol-5-amine",
    "cn_name": null,
    "alternate_name": "1<em>H</em>-Pyrazol-5-amine, 1-(phenylmethyl)-;Pyrazole, 5-amino-1-benzyl-;1-(Phenylmethyl)-1<em>H</em>-pyrazol-5-amine;5-Amino-1-benzylpyrazole;1-Benzyl-5-aminopyrazole;1-Benzyl-5-pyrazolamine;1-Benzyl-1<em>H</em>-pyrazol-5-amine;(1-Benzyl-1<em>H</em>-pyrazol-5-yl)amine;2-Benzyl-2<em>H</em>-pyrazol-3-ylamine;2-Benzylpyrazol-3-amine;1-Benzyl-1<em>H</em>-pyrazole-5-amine",
    "duplicated_cas_no": "",
    "SMILES": "C(N1C(N)=CC=N1)C2=CC=CC=C2",
    "meta_data": {
        "InChI": "InChI=1S/C10H11N3/c11-10-6-7-12-13(10)8-9-4-2-1-3-5-9/h1-7H,8,11H2",
        "InChIKey": null,
        "Canonical SMILES": "N1=CC=C(N)N1CC=2C=CC=CC2",
        "Molecular Formula": "C<sub>10</sub>H<sub>11</sub>N<sub>3</sub>",
        "Molecular Mass": "173.21",
        "Boiling Point": "176-178 °C @ Press: 0.5 Torr",
        "Melting Point": "79-81 °C"
    }
}