{
    "cas_no": "109-00-2",
    "key_name": "3-Hydroxypyridine",
    "cn_name": "3-羟基吡啶;",
    "alternate_name": "3-Pyridinol;3-Hydroxypyridine;3-Pyridol;β-Hydroxypyridine;<em>m</em>-Hydroxypyridine;3-Pyridyl alcohol;NSC 18470;β-Pyridinone;3(?<em>H</em>)-Pyridinone",
    "duplicated_cas_no": "58064-43-0",
    "SMILES": "OC=1C=CC=NC1",
    "meta_data": {
        "InChI": "InChI=1S/C5H5NO/c7-5-2-1-3-6-4-5/h1-4,7H",
        "InChIKey": null,
        "Canonical SMILES": "OC=1C=NC=CC1",
        "Molecular Formula": "C<sub>5</sub>H<sub>5</sub>NO",
        "Molecular Mass": "95.10",
        "Melting Point": "127.5 °C"
    }
}