{
    "cas_no": "1068-22-0",
    "key_name": "Ammonium diethyldithiophosphate",
    "cn_name": "O,O-二乙基二硫代磷酸铵;二乙基二丙烯酸铝盐;",
    "alternate_name": "Phosphorodithioic acid, <em>O</em>,<em>O</em>-diethyl ester, ammonium salt (1:1);Phosphorodithioic acid, <em>O</em>,<em>O</em>-diethyl ester, ammonium salt;Ammonium ethyl phosphorodithioate;Ammonium <em>O</em>,<em>O</em>′-diethyldithiophosphate;Ammonium <em>O</em>,<em>O</em>-diethyl dithiophosphate;<em>S</em>-Ammonium <em>O</em>,<em>O</em>′-diethyl phosphorodithioate;Ammonium <em>O</em>,<em>O</em>-diethyl phosphorodithioate;<em>O</em>,<em>O</em>-Diethyl ammonium phosphorodithioate;NF 133;Ammonium diethyldithiophosphate;Ammonium di-<em>O</em>-ethyl dithiophosphate;<em>O</em>,<em>O</em>-Diethylphosphorodithioic acid ammonium salt;Ammonium <em>O</em>,<em>O</em>-diethyl phosphorodithioate(1-);Ethyl ammonium phosphorodithioate, (EtO)<sub>2</sub>(NH<sub>4</sub>S)PS;Kejunlin",
    "duplicated_cas_no": "878786-15-3;883841-85-8;956084-37-0",
    "SMILES": "P(OCC)(OCC)(=S)S.N",
    "meta_data": {
        "InChI": "InChI=1S/C4H11O2PS2.H3N/c1-3-5-7(8,9)6-4-2;/h3-4H2,1-2H3,(H,8,9);1H3",
        "InChIKey": null,
        "Canonical SMILES": "S=P(S)(OCC)OCC.N",
        "Molecular Formula": "C<sub>4</sub>H<sub>11</sub>O<sub>2</sub>PS<sub>2</sub>.H<sub>3</sub>N",
        "Molecular Mass": "",
        "Melting Point": "165-166 °C"
    }
}