{
    "cas_no": "82409-02-7",
    "key_name": "1,1-Dimethylethyl 13,13-dimethyl-11-oxo-12-oxa-2,6,10-triazatetradecanoate",
    "cn_name": null,
    "alternate_name": "12-Oxa-2,6,10-triazatetradecanoic acid, 13,13-dimethyl-11-oxo-, 1,1-dimethylethyl ester;Carbamic acid, (iminodi-3,1-propanediyl)bis-, bis(1,1-dimethylethyl) ester;1,1-Dimethylethyl 13,13-dimethyl-11-oxo-12-oxa-2,6,10-triazatetradecanoate;[3-[[3-[(<em>tert</em>-Butoxycarbonyl)amino]propyl]amino]propyl]carbamic acid tert-butyl ester;1,9-BisBOC-1,5,9-Triazanonane",
    "duplicated_cas_no": "",
    "SMILES": "O(C(NCCCNCCCNC(OC(C)(C)C)=O)=O)C(C)(C)C",
    "meta_data": {
        "InChI": "InChI=1S/C16H33N3O4/c1-15(2,3)22-13(20)18-11-7-9-17-10-8-12-19-14(21)23-16(4,5)6/h17H,7-12H2,1-6H3,(H,18,20)(H,19,21)",
        "InChIKey": null,
        "Canonical SMILES": "O=C(OC(C)(C)C)NCCCNCCCNC(=O)OC(C)(C)C",
        "Molecular Formula": "C<sub>16</sub>H<sub>33</sub>N<sub>3</sub>O<sub>4</sub>",
        "Molecular Mass": "331.45",
        "Melting Point": "68.1-70.0 °C"
    }
}