{
    "cas_no": "15097-49-1",
    "key_name": "1-(Trimethylsilyl)pyrrolidine",
    "cn_name": "1-三甲硅基吡咯烷;",
    "alternate_name": "Pyrrolidine, 1-(trimethylsilyl)-;1-(Trimethylsilyl)pyrrolidine;<em>N</em>-Trimethylsilylpyrrolidine;Pyrrolidinotrimethylsilane;Trimethyl(1-pyrrolidino)silane;NSC 251739",
    "duplicated_cas_no": "",
    "SMILES": "[Si](C)(C)(C)N1CCCC1",
    "meta_data": {
        "InChI": "InChI=1S/C7H17NSi/c1-9(2,3)8-6-4-5-7-8/h4-7H2,1-3H3",
        "InChIKey": null,
        "Canonical SMILES": "N1(CCCC1)[Si](C)(C)C",
        "Molecular Formula": "C<sub>7</sub>H<sub>17</sub>NSi",
        "Molecular Mass": "143.30",
        "Boiling Point": "51 °C @ Press: 32 Torr"
    }
}