{
    "cas_no": "39629-87-3",
    "key_name": "1-(4-Chlorophenyl)-5-oxo-3-pyrrolidinecarboxylic acid",
    "cn_name": null,
    "alternate_name": "3-Pyrrolidinecarboxylic acid, 1-(4-chlorophenyl)-5-oxo-;3-Pyrrolidinecarboxylic acid, 1-(<em>p</em>-chlorophenyl)-5-oxo-;1-(4-Chlorophenyl)-5-oxo-3-pyrrolidinecarboxylic acid",
    "duplicated_cas_no": "",
    "SMILES": "O=C1N(CC(C(O)=O)C1)C2=CC=C(Cl)C=C2",
    "meta_data": {
        "InChI": "InChI=1S/C11H10ClNO3/c12-8-1-3-9(4-2-8)13-6-7(11(15)16)5-10(13)14/h1-4,7H,5-6H2,(H,15,16)",
        "InChIKey": null,
        "Canonical SMILES": "O=C(O)C1CC(=O)N(C2=CC=C(Cl)C=C2)C1",
        "Molecular Formula": "C<sub>11</sub>H<sub>10</sub>ClNO<sub>3</sub>",
        "Molecular Mass": "239.65",
        "Melting Point": "150-151 °C"
    }
}