{
    "cas_no": "17675-60-4",
    "key_name": "Urea, <em>N</em>-(aminoiminomethyl)-, phosphate (1:?)",
    "cn_name": null,
    "alternate_name": "Urea, <em>N</em>-(aminoiminomethyl)-, phosphate (1:?);Urea, amidino-, phosphate;Urea, (aminoiminomethyl)-, phosphate;Guanylurea phosphate;Dicyandiamidine phosphate;Apinon 403;Apinon 404;Apinon 405",
    "duplicated_cas_no": "960228-22-2",
    "SMILES": "P(=O)(O)(O)O.N(C(=N)N)C(N)=O",
    "meta_data": {
        "InChI": "InChI=1S/C2H6N4O.H3O4P/c3-1(4)6-2(5)7;1-5(2,3)4/h(H6,3,4,5,6,7);(H3,1,2,3,4)",
        "InChIKey": null,
        "Canonical SMILES": "O=C(N)NC(=N)N.O=P(O)(O)O",
        "Molecular Formula": "C<sub>2</sub>H<sub>6</sub>N<sub>4</sub>O.xH<sub>3</sub>O<sub>4</sub>P",
        "Molecular Mass": "",
        "Melting Point": "185-188 °C (decomp)",
        "Density": "1.62 g/cm³"
    }
}