{
    "cas_no": "42003-39-4",
    "key_name": "1-(Chloromethyl)-2,8,9-trioxa-5-aza-1-silabicyclo[3.3.3]undecane",
    "cn_name": null,
    "alternate_name": "2,8,9-Trioxa-5-aza-1-silabicyclo[3.3.3]undecane, 1-(chloromethyl)-;1-(Chloromethyl)-2,8,9-trioxa-5-aza-1-silabicyclo[3.3.3]undecane;1-(Chloromethyl)silatrane;Mival;Silimin;NSC 626545;Mival Zoo;Silacin;Silatsin",
    "duplicated_cas_no": "",
    "SMILES": "C(Cl)[Si]12OCCN(CCO1)CCO2",
    "meta_data": {
        "InChI": "InChI=1S/C7H14ClNO3Si/c8-7-13-10-4-1-9(2-5-11-13)3-6-12-13/h1-7H2",
        "InChIKey": null,
        "Canonical SMILES": "ClC[Si]12OCCN(CCO1)CCO2",
        "Molecular Formula": "C<sub>7</sub>H<sub>14</sub>ClNO<sub>3</sub>Si",
        "Molecular Mass": "223.73",
        "Melting Point": "221-222 °C"
    }
}