{
    "cas_no": "1694-06-0",
    "key_name": "Tosylurea",
    "cn_name": "对甲苯磺酰脲;",
    "alternate_name": "Benzenesulfonamide, <em>N</em>-(aminocarbonyl)-4-methyl-;Urea, (<em>p</em>-tolylsulfonyl)-;<em>N</em>-(Aminocarbonyl)-4-methylbenzenesulfonamide;<em>N</em>-(<em>p</em>-Tolylsulfonyl)urea;Tosylurea;(<em>p</em>-Toluenesulfonyl)urea;(<em>p</em>-Tolylsulfonyl)urea;H 16650;<em>N</em>-(<em>p</em>-Toluenesulfonyl)urea;(4-Methylphenyl)sulfonylurea;(4-Methylbenzenesulfonyl)urea",
    "duplicated_cas_no": "1215320-75-4",
    "SMILES": "S(NC(N)=O)(=O)(=O)C1=CC=C(C)C=C1",
    "meta_data": {
        "InChI": "InChI=1S/C8H10N2O3S/c1-6-2-4-7(5-3-6)14(12,13)10-8(9)11/h2-5H,1H3,(H3,9,10,11)",
        "InChIKey": null,
        "Canonical SMILES": "O=C(N)NS(=O)(=O)C1=CC=C(C=C1)C",
        "Molecular Formula": "C<sub>8</sub>H<sub>10</sub>N<sub>2</sub>O<sub>3</sub>S",
        "Molecular Mass": "214.24",
        "Melting Point": "192 °C"
    }
}