{
    "cas_no": "5536-61-8",
    "key_name": "Sodium methacrylate",
    "cn_name": "甲基丙烯酸钠;2-甲基-2-丙烯酸钠盐;甲基丙烯酸钠;",
    "alternate_name": "2-Propenoic acid, 2-methyl-, sodium salt (1:1);Methacrylic acid, sodium salt;2-Propenoic acid, 2-methyl-, sodium salt;Sodium methacrylate;S-MA",
    "duplicated_cas_no": "125395-40-6;161161-98-4;200284-44-2;511226-78-1;1656311-64-6",
    "SMILES": "C(C(O)=O)(C)=C.[Na]",
    "meta_data": {
        "InChI": "InChI=1S/C4H6O2.Na/c1-3(2)4(5)6;/h1H2,2H3,(H,5,6);",
        "InChIKey": null,
        "Canonical SMILES": "[Na].O=C(O)C(=C)C",
        "Molecular Formula": "C<sub>4</sub>H<sub>6</sub>O<sub>2</sub>.Na",
        "Molecular Mass": "",
        "Melting Point": "310 °C",
        "Density": "2.703 g/cm³"
    }
}