{
    "cas_no": "28314-83-2",
    "key_name": "5-Bromo-2,4-difluorobenzoic acid",
    "cn_name": null,
    "alternate_name": "Benzoic acid, 5-bromo-2,4-difluoro-;5-Bromo-2,4-difluorobenzoic acid;3-Bromo-4,6-difluorobenzoic acid",
    "duplicated_cas_no": "",
    "SMILES": "C(O)(=O)C1=C(F)C=C(F)C(Br)=C1",
    "meta_data": {
        "InChI": "InChI=1S/C7H3BrF2O2/c8-4-1-3(7(11)12)5(9)2-6(4)10/h1-2H,(H,11,12)",
        "InChIKey": null,
        "Canonical SMILES": "O=C(O)C1=CC(Br)=C(F)C=C1F",
        "Molecular Formula": "C<sub>7</sub>H<sub>3</sub>BrF<sub>2</sub>O<sub>2</sub>",
        "Molecular Mass": "237.00",
        "Melting Point": "148-150 °C"
    }
}