{
    "cas_no": "26296-54-8",
    "key_name": "Physcion 1-<em>O</em>-β-<span class=\"text-smallcaps\">D</span>-glucoside",
    "cn_name": null,
    "alternate_name": "9,10-Anthracenedione, 1-(β-<span class=\"text-smallcaps\">D</span>-glucopyranosyloxy)-8-hydroxy-6-methoxy-3-methyl-;Physcionin;1-(β-<span class=\"text-smallcaps\">D</span>-Glucopyranosyloxy)-8-hydroxy-6-methoxy-3-methyl-9,10-anthracenedione;Physcion 1-β-<span class=\"text-smallcaps\">D</span>-glucopyranoside;3-Methyl-6-methoxy-1,8-dihydroxyanthraquinone 1-glucoside;Physcion 1-<em>O</em>-β-<span class=\"text-smallcaps\">D</span>-glucoside;Physcion 1-<em>O</em>-β-<span class=\"text-smallcaps\">D</span>-glucopyranoside",
    "duplicated_cas_no": "37310-93-3;72108-63-5",
    "SMILES": "O(C1=C2C(C(=O)C=3C(C2=O)=C(O)C=C(OC)C3)=CC(C)=C1)[C@@H]4O[C@H](CO)[C@@H](O)[C@H](O)[C@H]4O",
    "meta_data": {
        "InChI": "InChI=1S/C22H22O10/c1-8-3-10-16(19(27)15-11(17(10)25)5-9(30-2)6-12(15)24)13(4-8)31-22-21(29)20(28)18(26)14(7-23)32-22/h3-6,14,18,20-24,26,28-29H,7H2,1-2H3/t14-,18-,20+,21-,22-/m1/s1",
        "InChIKey": null,
        "Canonical SMILES": "O=C1C2=CC(OC)=CC(O)=C2C(=O)C3=C(OC4OC(CO)C(O)C(O)C4O)C=C(C=C13)C",
        "Molecular Formula": "C<sub>22</sub>H<sub>22</sub>O<sub>10</sub>",
        "Molecular Mass": "446.40",
        "Melting Point": "235 °C"
    }
}