{
    "cas_no": "531-18-0",
    "key_name": "1,1′,1′′,1′′′,1′′′′,1′′′′′-(1,3,5-Triazine-2,4,6-triyltrinitrilo)hexakis[methanol]",
    "cn_name": null,
    "alternate_name": "Methanol, 1,1′,1′′,1′′′,1′′′′,1′′′′′-(1,3,5-triazine-2,4,6-triyltrinitrilo)hexakis-;Methanol, (<em>s</em>-triazine-2,4,6-triyltrinitrilo)hexa-;Methanol, (1,3,5-triazine-2,4,6-triyltrinitrilo)hexakis-;1,1′,1′′,1′′′,1′′′′,1′′′′′-(1,3,5-Triazine-2,4,6-triyltrinitrilo)hexakis[methanol];Cilag 61;Hexamethylolmelamine;2,4,6-Tris[di(hydroxymethyl)amino]-1,3,5-triazine;Resloom M 75;1,3,5-Triazine-2,4,6-triamine, hexakis(hydroxymethyl)-;Hexa(hydroxymethyl)melamine;Hexakis(hydroxymethyl)melamine;NSC 118741;Madurit MW 840/75WA;Binder A;[[4,6-Bis[bis(hydroxymethyl)amino]-1,3,5-triazin-2-yl]-(hydroxymethyl)amino]methanol;[[4,6-Bis-(bis-hydroxymethyl-amino)-[1,3,5]triazin-2-yl]-hydroxymethyl-amino]-methanol",
    "duplicated_cas_no": "1195264-09-5",
    "SMILES": "N(CO)(CO)C=1N=C(N(CO)CO)N=C(N(CO)CO)N1",
    "meta_data": {
        "InChI": "InChI=1S/C9H18N6O6/c16-1-13(2-17)7-10-8(14(3-18)4-19)12-9(11-7)15(5-20)6-21/h16-21H,1-6H2",
        "InChIKey": null,
        "Canonical SMILES": "OCN(C=1N=C(N=C(N1)N(CO)CO)N(CO)CO)CO",
        "Molecular Formula": "C<sub>9</sub>H<sub>18</sub>N<sub>6</sub>O<sub>6</sub>",
        "Molecular Mass": "306.28",
        "Melting Point": "137 °C"
    }
}