{
    "cas_no": "115-27-5",
    "key_name": "Chlorendic anhydride",
    "cn_name": "氯桥酸酐;1,4,5,6,7,7-六氯-5-降冰片烯-2,3-二甲酸酐;",
    "alternate_name": "4,7-Methanoisobenzofuran-1,3-dione, 4,5,6,7,8,8-hexachloro-3a,4,7,7a-tetrahydro-;5-Norbornene-2,3-dicarboxylic anhydride, 1,4,5,6,7,7-hexachloro-;Bicyclo[2.2.1]hept-5-ene-2,3-dicarboxylic anhydride, 1,4,5,6,7,7-hexachloro-;4,5,6,7,8,8-Hexachloro-3a,4,7,7a-tetrahydro-4,7-methanoisobenzofuran-1,3-dione;Chlorendic anhydride;2,3-Dicarboxy-1,4,5,6,7,7-hexachlorobicyclo[2.2.1]hept-5-ene anhydride;HET Anhydride;1,4,5,6,7,7-Hexachlorobicyclo[2.2.1]-5-heptene-2,3-dicarboxylic acid anhydride;1,4,5,6,7,7-Hexachlorobicyclo[2.2.1]hept-5-ene-2,3-dicarboxylic anhydride;<em>endo</em>-1,4,5,6,7,7-Hexachloro-1,2,3,4-tetrahydro-5-norbornene-2,3-dicarboxylic acid anhydride;3,4,5,6,7,7-Hexachloro-1,2,3,6-tetrahydro-3,6-<em>endo</em>-methylenephthalic anhydride;Hexachloroendomethylene tetrahydrophthalic anhydride;1,4,5,6,7,7-Hexachloro-5-norbornene-2,3-dicarboxylic anhydride;Bicyclo[2.2.1]hept-5-ene-2,3-dicarboxylic acid, 1,4,5,6,7,7-hexachloro-, anhydride;Hexachloro-5-norbornene-2,3-dicarboxylic anhydride;1,4,5,6,7,7-Hexachloro-5-bicyclo[2.2.1]heptene-2,3-dicarboxylic anhydride;Chloran 542;Kayahard CLA;NSC 22229",
    "duplicated_cas_no": "122485-51-2",
    "SMILES": "ClC12C3C(C(Cl)(C1(Cl)Cl)C(Cl)=C2Cl)C(=O)OC3=O",
    "meta_data": {
        "InChI": "InChI=1S/C9H2Cl6O3/c10-3-4(11)8(13)2-1(5(16)18-6(2)17)7(3,12)9(8,14)15/h1-2H",
        "InChIKey": null,
        "Canonical SMILES": "O=C1OC(=O)C2C1C3(Cl)C(Cl)=C(Cl)C2(Cl)C3(Cl)Cl",
        "Molecular Formula": "C<sub>9</sub>H<sub>2</sub>Cl<sub>6</sub>O<sub>3</sub>",
        "Molecular Mass": "370.83",
        "Melting Point": "239 °C",
        "Density": "173 g/cm³"
    }
}