{
    "cas_no": "120-05-8",
    "key_name": "Sulfuretin",
    "cn_name": null,
    "alternate_name": "3(2<em>H</em>)-Benzofuranone, 2-[(3,4-dihydroxyphenyl)methylene]-6-hydroxy-, (2<em>Z</em>)-;Sulfuretin;3(2<em>H</em>)-Benzofuranone, 2-(3,4-dihydroxybenzylidene)-6-hydroxy-;3(2<em>H</em>)-Benzofuranone, 2-[(3,4-dihydroxyphenyl)methylene]-6-hydroxy-, (<em>Z</em>)-;(2<em>Z</em>)-2-[(3,4-Dihydroxyphenyl)methylene]-6-hydroxy-3(2<em>H</em>)-benzofuranone;2-(3,4-Dihydroxybenzylidene)-6-hydroxy-3(2<em>H</em>)-benzofuranone;3′,4′,6-Trihydroxyaurone;3′,4′,6-Trihydroxybenzalcoumaranone;Sulphuretin",
    "duplicated_cas_no": "",
    "SMILES": "O=C\\1C=2C(O/C1=C\\C3=CC(O)=C(O)C=C3)=CC(O)=CC2",
    "meta_data": {
        "InChI": "InChI=1S/C15H10O5/c16-9-2-3-10-13(7-9)20-14(15(10)19)6-8-1-4-11(17)12(18)5-8/h1-7,16-18H/b14-6-",
        "InChIKey": null,
        "Canonical SMILES": "O=C1C(OC2=CC(O)=CC=C12)=CC3=CC=C(O)C(O)=C3",
        "Molecular Formula": "C<sub>15</sub>H<sub>10</sub>O<sub>5</sub>",
        "Molecular Mass": "270.24",
        "Melting Point": "303 °C"
    }
}