{
    "cas_no": "500-62-9",
    "key_name": "Yangonin",
    "cn_name": "甲氧醉椒素;",
    "alternate_name": "2<em>H</em>-Pyran-2-one, 4-methoxy-6-[(1<em>E</em>)-2-(4-methoxyphenyl)ethenyl]-;2<em>H</em>-Pyran-2-one, 4-methoxy-6-(<em>p</em>-methoxystyryl)-;Yangonin;2<em>H</em>-Pyran-2-one, 4-methoxy-6-[2-(4-methoxyphenyl)ethenyl]-, (<em>E</em>)-;4-Methoxy-6-[(1<em>E</em>)-2-(4-methoxyphenyl)ethenyl]-2<em>H</em>-pyran-2-one;4-Methoxy-6-[β-(<em>p</em>-anisyl)vinyl]-α-pyrone;6-(<em>p</em>-Methoxystyryl)-4-methoxy-α-pyrone",
    "duplicated_cas_no": "39986-88-4",
    "SMILES": "C(=C/C1=CC=C(OC)C=C1)\\C2=CC(OC)=CC(=O)O2",
    "meta_data": {
        "InChI": "InChI=1S/C15H14O4/c1-17-12-6-3-11(4-7-12)5-8-13-9-14(18-2)10-15(16)19-13/h3-10H,1-2H3/b8-5+",
        "InChIKey": null,
        "Canonical SMILES": "O=C1OC(C=CC2=CC=C(OC)C=C2)=CC(OC)=C1",
        "Molecular Formula": "C<sub>15</sub>H<sub>14</sub>O<sub>4</sub>",
        "Molecular Mass": "258.27",
        "Melting Point": "156 °C",
        "Density": "1.325 g/cm³ @ Temp: 20 °C"
    }
}