{
    "cas_no": "758-21-4",
    "key_name": "Ethyldimethylsilane",
    "cn_name": "二甲基乙基硅烷;",
    "alternate_name": "Silane, ethyldimethyl-;Ethyldimethylsilane;Dimethylethylsilane",
    "duplicated_cas_no": "",
    "SMILES": "[SiH](CC)(C)C",
    "meta_data": {
        "InChI": "InChI=1S/C4H12Si/c1-4-5(2)3/h5H,4H2,1-3H3",
        "InChIKey": null,
        "Canonical SMILES": "CC[SiH](C)C",
        "Molecular Formula": "C<sub>4</sub>H<sub>12</sub>Si",
        "Molecular Mass": "88.22",
        "Boiling Point": "45-46 °C",
        "Density": "0.668 g/cm³"
    }
}