{
    "cas_no": "1222-98-6",
    "key_name": "4-Nitrochalcone",
    "cn_name": "4-硝基查尔酮;4-硝基查耳酮;",
    "alternate_name": "2-Propen-1-one, 3-(4-nitrophenyl)-1-phenyl-;Chalcone, 4-nitro-;3-(4-Nitrophenyl)-1-phenyl-2-propen-1-one;4-Nitrochalcone;1-(4-Nitrophenyl)-3-oxo-3-phenylpropene;<em>p</em>-Nitrobenzylideneacetophenone;<em>p</em>-Nitrostyryl phenyl ketone;3-(<em>p</em>-Nitrophenyl)-1-phenyl-2-propen-1-one;4-Nitrostyryl phenyl ketone;NSC 3383;NSC 636936;<em>p</em>-Nitrochalcone;1-Phenyl-3-(4-nitrophenyl)-2-propenone;1-Phenyl-3-(4-nitrophenyl)-2-propen-1-one",
    "duplicated_cas_no": "",
    "SMILES": "C(C=CC1=CC=C(N(=O)=O)C=C1)(=O)C2=CC=CC=C2",
    "meta_data": {
        "InChI": "InChI=1S/C15H11NO3/c17-15(13-4-2-1-3-5-13)11-8-12-6-9-14(10-7-12)16(18)19/h1-11H",
        "InChIKey": null,
        "Canonical SMILES": "O=C(C=CC1=CC=C(C=C1)N(=O)=O)C=2C=CC=CC2",
        "Molecular Formula": "C<sub>15</sub>H<sub>11</sub>NO<sub>3</sub>",
        "Molecular Mass": "253.25",
        "Melting Point": "164.5 °C"
    }
}