{
    "cas_no": "5911-08-0",
    "key_name": "(Chloromethyl)cyclopropane",
    "cn_name": "环丙基甲基氯;氯甲基环丙烷;",
    "alternate_name": "Cyclopropane, (chloromethyl)-;(Chloromethyl)cyclopropane;Cyclopropylmethyl chloride;Cyclopropylcarbinyl chloride;Cyclopropanemethyl chloride;Chlorocyclopropylmethane;α-(Chloromethyl)cyclopropane;Cyclopropylchloromethane;1-Chloromethylcyclopropane",
    "duplicated_cas_no": "",
    "SMILES": "C(Cl)C1CC1",
    "meta_data": {
        "InChI": "InChI=1S/C4H7Cl/c5-3-4-1-2-4/h4H,1-3H2",
        "InChIKey": null,
        "Canonical SMILES": "ClCC1CC1",
        "Molecular Formula": "C<sub>4</sub>H<sub>7</sub>Cl",
        "Molecular Mass": "90.55",
        "Boiling Point": "88 °C",
        "Melting Point": "-90.9 °C",
        "Density": "0.981 g/cm³ @ Temp: 20 °C"
    }
}