{
    "cas_no": "443955-90-6",
    "key_name": "2,3-Dihydro-1,4-dioxino[2,3-<em>c</em>]pyridine-7-carboxaldehyde",
    "cn_name": "2,3-二氢[1,4]二恶并[2,3-C]吡啶-7-甲醛;",
    "alternate_name": "1,4-Dioxino[2,3-<em>c</em>]pyridine-7-carboxaldehyde, 2,3-dihydro-;2,3-Dihydro-1,4-dioxino[2,3-<em>c</em>]pyridine-7-carboxaldehyde;2,3-Dihydro[1,4]dioxino[2,3-<em>c</em>]pyridine-7-carboxaldehyde;2,3-Dihydro-[1,4]dioxino[2,3-<em>c</em>]pyridine-7-carbaldehyde;2<em>H</em>,3<em>H</em>-[1,4]Dioxino[2,3-<em>c</em>]pyridine-7-carbaldehyde",
    "duplicated_cas_no": "",
    "SMILES": "C(=O)C=1C=C2C(=CN1)OCCO2",
    "meta_data": {
        "InChI": "InChI=1S/C8H7NO3/c10-5-6-3-7-8(4-9-6)12-2-1-11-7/h3-5H,1-2H2",
        "InChIKey": null,
        "Canonical SMILES": "O=CC1=NC=C2OCCOC2=C1",
        "Molecular Formula": "C<sub>8</sub>H<sub>7</sub>NO<sub>3</sub>",
        "Molecular Mass": "165.15",
        "Melting Point": "120-122 °C"
    }
}