{
    "cas_no": "27813-02-1",
    "key_name": "Hydroxypropyl methacrylate",
    "cn_name": null,
    "alternate_name": "2-Propenoic acid, 2-methyl-, monoester with 1,2-propanediol;Methacrylic acid, monoester with 1,2-propanediol;Methacrylic acid, ester with 1,2-propanediol;1,2-Propanediol, monomethacrylate;Hydroxypropyl methacrylate;Rocryl 410;Propylene glycol monomethacrylate;HPMA 98;Bisomer HPMA;HPMA 97;1,2-Propylene glycol methacrylate;Propylene glycol methacrylate;Visiomer HPMA 98;Visiomer MPMA 98",
    "duplicated_cas_no": "27072-46-4;30348-68-6;32073-20-4;50851-93-9;50975-16-1;51424-40-9;51480-40-1;63625-57-0;99609-88-8;122413-04-1;124742-02-5;138258-23-8;191411-56-0;204013-27-4;2633008-75-8",
    "SMILES": "",
    "meta_data": {
        "InChI": "",
        "InChIKey": null,
        "Canonical SMILES": "",
        "Molecular Formula": "C<sub>7</sub>H<sub>12</sub>O<sub>3</sub>",
        "Molecular Mass": "",
        "Boiling Point": "96 °C",
        "Melting Point": "-89 °C",
        "Density": "1.066 g/cm³ @ Temp: 25 °C"
    }
}