{
    "cas_no": "298-06-6",
    "key_name": "<em>O</em>,<em>O</em>-Diethyl dithiophosphate",
    "cn_name": "二硫代磷酸二乙酯;O,O-二乙基硫代磷酸酯;",
    "alternate_name": "Phosphorodithioic acid, <em>O</em>,<em>O</em>-diethyl ester;<em>O</em>,<em>O</em>′-Diethyl hydrogen dithiophosphate;Dithiophosphoric acid <em>O</em>,<em>O</em>-diethyl ester;<em>O</em>,<em>O</em>-Diethyl dithiophosphate;<em>O</em>,<em>O</em>-Diethyl phosphorodithioate;<em>O</em>,<em>O</em>′-Diethyl dithiophosphate;<em>O</em>,<em>O</em>-Diethyl hydrogen phosphorodithioate;<em>O</em>,<em>O</em>-Diethyl dithiophosphoric acid ester;<em>O</em>,<em>O</em>-Diethyl thiolothionophosphate;Di-<em>O</em>-ethyl dithiophosphate;NSC 171184",
    "duplicated_cas_no": "40219-16-7",
    "SMILES": "P(OCC)(OCC)(=S)S",
    "meta_data": {
        "InChI": "InChI=1S/C4H11O2PS2/c1-3-5-7(8,9)6-4-2/h3-4H2,1-2H3,(H,8,9)",
        "InChIKey": null,
        "Canonical SMILES": "S=P(S)(OCC)OCC",
        "Molecular Formula": "C<sub>4</sub>H<sub>11</sub>O<sub>2</sub>PS<sub>2</sub>",
        "Molecular Mass": "186.23",
        "Boiling Point": "85-90 °C @ Press: 4-5 Torr",
        "Density": "1.1753 g/cm³ @ Temp: 13 °C"
    }
}