{
    "cas_no": "10387-50-5",
    "key_name": "<em>O</em>-Prenylumbelliferone",
    "cn_name": null,
    "alternate_name": "2<em>H</em>-1-Benzopyran-2-one, 7-[(3-methyl-2-buten-1-yl)oxy]-;Coumarin, 7-[(3-methyl-2-butenyl)oxy]-;2<em>H</em>-1-Benzopyran-2-one, 7-[(3-methyl-2-butenyl)oxy]-;7-[(3-Methyl-2-buten-1-yl)oxy]-2<em>H</em>-1-benzopyran-2-one;7-(Isopentenyloxy)coumarin;7-(3,3-Dimethylallyloxy)coumarin;7-<em>O</em>-Prenylumbelliferone;7-Hydroxycoumarin dimethylallyl ether;7-(3′,3′-Dimethylallyloxy)coumarin;7-(3-Methyl-2-butenyloxy)coumarin;<em>O</em>-Prenylumbelliferone;NSC 267697",
    "duplicated_cas_no": "",
    "SMILES": "O(CC=C(C)C)C=1C=C2C(=CC1)C=CC(=O)O2",
    "meta_data": {
        "InChI": "InChI=1S/C14H14O3/c1-10(2)7-8-16-12-5-3-11-4-6-14(15)17-13(11)9-12/h3-7,9H,8H2,1-2H3",
        "InChIKey": null,
        "Canonical SMILES": "O=C1OC=2C=C(OCC=C(C)C)C=CC2C=C1",
        "Molecular Formula": "C<sub>14</sub>H<sub>14</sub>O<sub>3</sub>",
        "Molecular Mass": "230.26",
        "Melting Point": "70-71 °C"
    }
}