{
    "cas_no": "372137-35-4",
    "key_name": "Saflufenacil",
    "cn_name": null,
    "alternate_name": "Benzamide, 2-chloro-5-[3,6-dihydro-3-methyl-2,6-dioxo-4-(trifluoromethyl)-1(2<em>H</em>)-pyrimidinyl]-4-fluoro-<em>N</em>-[[methyl(1-methylethyl)amino]sulfonyl]-;2-Chloro-5-[3,6-dihydro-3-methyl-2,6-dioxo-4-(trifluoromethyl)-1(2<em>H</em>)-pyrimidinyl]-4-fluoro-<em>N</em>-[[methyl(1-methylethyl)amino]sulfonyl]benzamide;Saflufenacil;2-Chloro-5-[3,6-dihydro-3-methyl-2,6-dioxo-4-trifluoromethyl-1(2<em>H</em>)-pyrimidinyl]-4-fluoro-<em>N</em>-[[<em>N</em>-methyl-<em>N</em>-(1-methylethyl)amino]sulfonyl]benzamide;<em>N</em>′-[2-Chloro-4-fluoro-5-[1,2,3,6-tetrahydro-3-methyl-2,6-dioxo-4-(trifluoromethyl)pyrimidin-1-yl]benzoyl]-<em>N</em>-isopropyl-<em>N</em>-methylsulfamide;Treevix;Kixor;2-Chloro-4-fluoro-<em>N</em>-[isopropyl(methyl)sulfamoyl]-5-[3-methyl-2,6-dioxo-4-(trifluoromethyl)pyrimidin-1-yl]benzamide;Eragon;Sharpen;Benmihuangcaoan;2-Chloro-5-[3,6-dihydro-3-methyl-2,6-dioxo-4-(trifluoromethyl)-1(2<em>H</em>)-pyrimidinyl]-4-fluoro-<em>N</em>-[(isopropyl)methylsulfamoyl]benzamide",
    "duplicated_cas_no": "",
    "SMILES": "FC=1C(=CC(C(NS(N(C(C)C)C)(=O)=O)=O)=C(Cl)C1)N2C(=O)N(C)C(C(F)(F)F)=CC2=O",
    "meta_data": {
        "InChI": "InChI=1S/C17H17ClF4N4O5S/c1-8(2)25(4)32(30,31)23-15(28)9-5-12(11(19)6-10(9)18)26-14(27)7-13(17(20,21)22)24(3)16(26)29/h5-8H,1-4H3,(H,23,28)",
        "InChIKey": null,
        "Canonical SMILES": "O=C(NS(=O)(=O)N(C)C(C)C)C1=CC(=C(F)C=C1Cl)N2C(=O)C=C(N(C2=O)C)C(F)(F)F",
        "Molecular Formula": "C<sub>17</sub>H<sub>17</sub>ClF<sub>4</sub>N<sub>4</sub>O<sub>5</sub>S",
        "Molecular Mass": "500.85",
        "Melting Point": "189.2-191.4 °C"
    }
}