{
    "cas_no": "20600-44-6",
    "key_name": "5-Chloro-2(3<em>H</em>)-benzothiazolone",
    "cn_name": null,
    "alternate_name": "2(3<em>H</em>)-Benzothiazolone, 5-chloro-;2-Benzothiazolol, 5-chloro-;2-Benzothiazolinone, 5-chloro-;5-Chloro-2(3<em>H</em>)-benzothiazolone;5-Chloro-2-benzothiazolinone;5-Chloro-2-hydroxybenzothiazole;5-Chloro-2-benzothiazolone;5-Chloro-2-oxobenzothiazoline;5-Chloro-3<em>H</em>-benzothiazol-2-one;5-Chloro-1,3-benzothiazol-2(3<em>H</em>)-one",
    "duplicated_cas_no": "40659-60-7",
    "SMILES": "O=C1SC=2C(N1)=CC(Cl)=CC2",
    "meta_data": {
        "InChI": "InChI=1S/C7H4ClNOS/c8-4-1-2-6-5(3-4)9-7(10)11-6/h1-3H,(H,9,10)",
        "InChIKey": null,
        "Canonical SMILES": "O=C1SC2=CC=C(Cl)C=C2N1",
        "Molecular Formula": "C<sub>7</sub>H<sub>4</sub>ClNOS",
        "Molecular Mass": "185.63",
        "Melting Point": "218 °C"
    }
}