{
    "cas_no": "660-68-4",
    "key_name": "Diethylammonium chloride",
    "cn_name": "二乙胺盐酸盐;盐酸二乙胺;",
    "alternate_name": "Ethanamine, <em>N</em>-ethyl-, hydrochloride (1:1);Diethylamine, hydrochloride;Ethanamine, <em>N</em>-ethyl-, hydrochloride;Diethylammonium chloride;<em>N</em>-Ethylethanamine hydrochloride;Diethylamine hydrochloride;<em>N</em>,<em>N</em>-Diethylamine hydrochloride",
    "duplicated_cas_no": "",
    "SMILES": "N(CC)CC.Cl",
    "meta_data": {
        "InChI": "InChI=1S/C4H11N.ClH/c1-3-5-4-2;/h5H,3-4H2,1-2H3;1H",
        "InChIKey": null,
        "Canonical SMILES": "Cl.N(CC)CC",
        "Molecular Formula": "C<sub>4</sub>H<sub>11</sub>N.ClH",
        "Molecular Mass": "",
        "Melting Point": "228.5 °C"
    }
}