{
    "cas_no": "2380-78-1",
    "key_name": "Homovanillyl alcohol",
    "cn_name": "4-羟基-3-甲氧基苯乙醇;高香草醇;高香兰醇;高香茅醇;",
    "alternate_name": "Benzeneethanol, 4-hydroxy-3-methoxy-;Phenethyl alcohol, 4-hydroxy-3-methoxy-;4-Hydroxy-3-methoxybenzeneethanol;3-Methoxy-4-hydroxyphenethanol;Ba 2772;Homovanillyl alcohol;Vanillylmethanol;4-Hydroxy-3-methoxyphenylethanol;2-(3-Methoxy-4-hydroxyphenyl)ethanol;2-(4-Hydroxy-3-methoxyphenyl)ethanol;4-(2-Hydroxyethyl)guaiacol;Homovanillic alcohol;4-Hydroxy-3-methoxyphenethyl alcohol;3-Methoxy-4-hydroxyphenethyl alcohol;4-(2-Hydroxyethyl)-2-methoxyphenol;2-(4′-Hydroxy-3′-methoxyphenyl)ethanol",
    "duplicated_cas_no": "",
    "SMILES": "O(C)C1=CC(CCO)=CC=C1O",
    "meta_data": {
        "InChI": "InChI=1S/C9H12O3/c1-12-9-6-7(4-5-10)2-3-8(9)11/h2-3,6,10-11H,4-5H2,1H3",
        "InChIKey": null,
        "Canonical SMILES": "OC1=CC=C(C=C1OC)CCO",
        "Molecular Formula": "C<sub>9</sub>H<sub>12</sub>O<sub>3</sub>",
        "Molecular Mass": "168.19",
        "Melting Point": "40-42 °C"
    }
}