{
    "cas_no": "15421-84-8",
    "key_name": "Trapidil",
    "cn_name": "乐可安;",
    "alternate_name": "[1,2,4]Triazolo[1,5-<em>a</em>]pyrimidin-7-amine, <em>N</em>,<em>N</em>-diethyl-5-methyl-;<em>s</em>-Triazolo[1,5-<em>a</em>]pyrimidine, 7-(diethylamino)-5-methyl-;<em>N</em>,<em>N</em>-Diethyl-5-methyl[1,2,4]triazolo[1,5-<em>a</em>]pyrimidin-7-amine;5-Methyl-7-(diethylamino)-<em>s</em>-triazolo[1,5-<em>a</em>]pyrimidine;5-Methyl-7-(diethylamino)-1,2,4-triazolo[1,5-<em>a</em>]pyrimidine;Rocornal;Trapymin;Trapymine;4-(Diethylamino)-6-methyl-1,3,3a,7-tetraazaindene;Trapidil;Avantrin;AR 12008;MeSH ID: D014192",
    "duplicated_cas_no": "",
    "SMILES": "N(CC)(CC)C=1N2C(N=C(C)C1)=NC=N2",
    "meta_data": {
        "InChI": "InChI=1S/C10H15N5/c1-4-14(5-2)9-6-8(3)13-10-11-7-12-15(9)10/h6-7H,4-5H2,1-3H3",
        "InChIKey": null,
        "Canonical SMILES": "N=1C=NN2C1N=C(C=C2N(CC)CC)C",
        "Molecular Formula": "C<sub>10</sub>H<sub>15</sub>N<sub>5</sub>",
        "Molecular Mass": "205.26",
        "Melting Point": "100 °C"
    }
}