{
    "cas_no": "130636-61-2",
    "key_name": "1,1-Dimethylethyl 4-[(4-nitrophenyl)methyl]-1-piperazinecarboxylate",
    "cn_name": null,
    "alternate_name": "1-Piperazinecarboxylic acid, 4-[(4-nitrophenyl)methyl]-, 1,1-dimethylethyl ester;1,1-Dimethylethyl 4-[(4-nitrophenyl)methyl]-1-piperazinecarboxylate;4-(4-Nitrobenzyl)piperazine-1-carboxylic acid tert-butyl ester;1-Boc-4-(4-Nitrobenzyl)piperazine",
    "duplicated_cas_no": "",
    "SMILES": "C(OC(C)(C)C)(=O)N1CCN(CC2=CC=C(N(=O)=O)C=C2)CC1",
    "meta_data": {
        "InChI": "InChI=1S/C16H23N3O4/c1-16(2,3)23-15(20)18-10-8-17(9-11-18)12-13-4-6-14(7-5-13)19(21)22/h4-7H,8-12H2,1-3H3",
        "InChIKey": null,
        "Canonical SMILES": "O=C(OC(C)(C)C)N1CCN(CC2=CC=C(C=C2)N(=O)=O)CC1",
        "Molecular Formula": "C<sub>16</sub>H<sub>23</sub>N<sub>3</sub>O<sub>4</sub>",
        "Molecular Mass": "321.37",
        "Melting Point": "99-100 °C"
    }
}