{
    "cas_no": "6301-60-6",
    "key_name": "4-Iodophthalic acid",
    "cn_name": null,
    "alternate_name": "1,2-Benzenedicarboxylic acid, 4-iodo-;Phthalic acid, 4-iodo-;4-Iodo-1,2-benzenedicarboxylic acid;4-Iodophthalic acid;NSC 42483;4-Iodobenzene-<em>o</em>-dicarboxylic acid",
    "duplicated_cas_no": "",
    "SMILES": "C(O)(=O)C1=C(C(O)=O)C=C(I)C=C1",
    "meta_data": {
        "InChI": "InChI=1S/C8H5IO4/c9-4-1-2-5(7(10)11)6(3-4)8(12)13/h1-3H,(H,10,11)(H,12,13)",
        "InChIKey": null,
        "Canonical SMILES": "O=C(O)C1=CC=C(I)C=C1C(=O)O",
        "Molecular Formula": "C<sub>8</sub>H<sub>5</sub>IO<sub>4</sub>",
        "Molecular Mass": "292.03",
        "Melting Point": "180-184 °C"
    }
}