{
    "cas_no": "7440-16-6",
    "key_name": "Rhodium",
    "cn_name": "铑,粉状;铑;",
    "alternate_name": "Rhodium;Rhodium-103;Rhodium black;Rhodium (nanoparticles);MeSH ID: D012238",
    "duplicated_cas_no": "100041-37-0;24546-24-5",
    "SMILES": "[Rh]",
    "meta_data": {
        "InChI": "InChI=1S/Rh",
        "InChIKey": null,
        "Canonical SMILES": "[Rh]",
        "Molecular Formula": "Rh",
        "Molecular Mass": "",
        "Boiling Point": "3695 °C",
        "Melting Point": "1964 °C",
        "Density": "12.41 g/cm³ @ Temp: 20 °C"
    }
}