{
    "cas_no": "155-41-9",
    "key_name": "(-)-Scopolamine methobromide",
    "cn_name": null,
    "alternate_name": "3-Oxa-9-azoniatricyclo[3.3.1.0<sup>2,4</sup>]nonane, 7-[(2<em>S</em>)-3-hydroxy-1-oxo-2-phenylpropoxy]-9,9-dimethyl-, bromide (1:1), (1α,2β,4β,5α,7β)-;1α<span class=\"text-smallcaps\">H</smallcap>,5α<smallcap>H</span>-Tropanium, 6β,7β-epoxy-3α-hydroxy-8-methyl-, bromide, (-)-tropate;3-Oxa-9-azoniatricyclo[3.3.1.0<sup>2,4</sup>]nonane, 7-(3-hydroxy-1-oxo-2-phenylpropoxy)-9,9-dimethyl-, bromide, [7(<em>S</em>)-(1α,2β,4β,5α,7β)]-;<em>N</em>-Methylscopolammonium bromide;3-Oxa-9-azoniatricyclo[3.3.1.0<sup>2,4</sup>]nonane, 7-[(2<em>S</em>)-3-hydroxy-1-oxo-2-phenylpropoxy]-9,9-dimethyl-, bromide, (1α,2β,4β,5α,7β)-;Tropic acid, (-), ester with 6β,7β-epoxy-3α-hydroxy-8-methyl-1α<span class=\"text-smallcaps\">H</smallcap>,5α<smallcap>H</span>-tropanium bromide;3-Oxa-9-azatricyclo[3.3.1.0<sup>2,4</sup>]nonane, 3-oxa-9-azoniatricyclo[3.3.1.0<sup>2,4</sup>]nonane deriv.;Ampyrox;Blocan;Diopal;Epoxymethamine bromide;Epoxytropine tropate methylbromide;Holopon;Lescopine bromide;Mescopil;Methscopolamine bromide;Methscopolamin bromide;Methylscopolamine bromide;Nutrop;Paraspan;Proscomide;Scopolamine methyl bromide;Hyoscine methyl bromide;Neo-Avagal;Pamine bromide;Restropin;Pamine;(-)-Scopolamine methyl bromide;Scopolamine methobromide;U 5036;Hyoscine methobromide;<em>N</em>-Methylscopolamine bromide;(-)-Scopolamine methobromide;NSC 120606;NSC 61809;<em>N</em>-Methylscopolaminium bromide",
    "duplicated_cas_no": "1420-31-1;2660-04-0",
    "SMILES": "C[N+]1(C)[C@@]2([C@]3([C@](O3)([C@]1(C[C@@H](OC([C@H](CO)C4=CC=CC=C4)=O)C2)[H])[H])[H])[H].[Br-]",
    "meta_data": {
        "InChI": "InChI=1S/C18H24NO4.BrH/c1-19(2)14-8-12(9-15(19)17-16(14)23-17)22-18(21)13(10-20)11-6-4-3-5-7-11;/h3-7,12-17,20H,8-10H2,1-2H3;1H/q+1;/p-1/t12-,13-,14-,15+,16-,17+;/m1./s1",
        "InChIKey": null,
        "Canonical SMILES": "[Br-].O=C(OC1CC2C3OC3C(C1)[N+]2(C)C)C(C=4C=CC=CC4)CO",
        "Molecular Formula": "C<sub>18</sub>H<sub>24</sub>NO<sub>4</sub>.Br",
        "Molecular Mass": "",
        "Melting Point": "214-217 °C (decomp)"
    }
}