{
    "cas_no": "565-80-0",
    "key_name": "Diisopropyl ketone",
    "cn_name": "2,4-二甲基-3-戊酮;二异丙基甲酮;",
    "alternate_name": "3-Pentanone, 2,4-dimethyl-;2,4-Dimethyl-3-pentanone;Diisopropyl ketone;Isobutyrone;Isopropyl ketone;NSC 14662",
    "duplicated_cas_no": "",
    "SMILES": "C(C(C)C)(C(C)C)=O",
    "meta_data": {
        "InChI": "InChI=1S/C7H14O/c1-5(2)7(8)6(3)4/h5-6H,1-4H3",
        "InChIKey": null,
        "Canonical SMILES": "O=C(C(C)C)C(C)C",
        "Molecular Formula": "C<sub>7</sub>H<sub>14</sub>O",
        "Molecular Mass": "114.19",
        "Boiling Point": "125.4 °C",
        "Melting Point": "-69 °C",
        "Density": "0.8039 g/cm³ @ Temp: 20 °C"
    }
}