{
    "cas_no": "541-58-2",
    "key_name": "2,4-Dimethylthiazole",
    "cn_name": "2,4-二甲基噻唑;",
    "alternate_name": "Thiazole, 2,4-dimethyl-;2,4-Dimethylthiazole;2,4-Methylthiazole;2,4-Dimethyl-1,3-thiazole;NSC 7510",
    "duplicated_cas_no": "",
    "SMILES": "CC=1N=C(C)SC1",
    "meta_data": {
        "InChI": "InChI=1S/C5H7NS/c1-4-3-7-5(2)6-4/h3H,1-2H3",
        "InChIKey": null,
        "Canonical SMILES": "N1=C(SC=C1C)C",
        "Molecular Formula": "C<sub>5</sub>H<sub>7</sub>NS",
        "Molecular Mass": "113.18",
        "Boiling Point": "146 °C",
        "Melting Point": "272 °C",
        "Density": "1.0513 g/cm³ @ Temp: 20 °C"
    }
}