{
    "cas_no": "3490-06-0",
    "key_name": "<em>N</em>-Methylhomoveratrylamine",
    "cn_name": "N-甲基-2-(3,4-二甲氧基苯基)乙胺;",
    "alternate_name": "Benzeneethanamine, 3,4-dimethoxy-<em>N</em>-methyl-;Phenethylamine, 3,4-dimethoxy-<em>N</em>-methyl-;3,4-Dimethoxy-<em>N</em>-methylbenzeneethanamine;<em>N</em>-Methyl-3,4-dimethoxy-β-phenethylamine;<em>N</em>-Methylhomoveratrylamine;<em>N</em>-Methyl-3,4-dimethoxy-β-phenylethylamine;3,4-Dimethoxy-<em>N</em>-methylphenethylamine;3,4-Dimethoxy-β-phenethylmethylamine;<em>N</em>-Methyl-3,4-dimethoxyphenethylamine;3,4-Dimethoxy-<em>N</em>-methylphenylethylamine;<em>N</em>-(3,4-Dimethoxyphenethyl)-<em>N</em>-methylamine;<em>N</em>-Methyl-2-(3,4-dimethoxyphenyl)ethylamine;2-(3,4-Dimethoxyphenyl)-<em>N</em>-methylethylamine;<em>N</em>-Methyl-3,4-dimethoxybenzeneethanamine;[2-(3,4-Dimethoxyphenyl)ethyl]methylamine;Methyl[2-(3,4-dimethoxyphenyl)ethyl]amine;NSC 187772;<em>N</em>-[2-(3,4-Dimethoxyphenyl)ethyl]-<em>N</em>-methylamine;2-(3,4-Dimethoxyphenyl)-<em>N</em>-methylethanamine",
    "duplicated_cas_no": "",
    "SMILES": "O(C)C1=C(OC)C=CC(CCNC)=C1",
    "meta_data": {
        "InChI": "InChI=1S/C11H17NO2/c1-12-7-6-9-4-5-10(13-2)11(8-9)14-3/h4-5,8,12H,6-7H2,1-3H3",
        "InChIKey": null,
        "Canonical SMILES": "O(C1=CC=C(C=C1OC)CCNC)C",
        "Molecular Formula": "C<sub>11</sub>H<sub>17</sub>NO<sub>2</sub>",
        "Molecular Mass": "195.26",
        "Boiling Point": "99.0-112.0 °C @ Press: 0.075-0.120 Torr"
    }
}