{
    "cas_no": "19396-83-9",
    "key_name": "Bicyclo[2.2.1]heptane-2-carboxaldehyde",
    "cn_name": null,
    "alternate_name": "Bicyclo[2.2.1]heptane-2-carboxaldehyde;2-Norbornanecarboxaldehyde;2-Norbornanecarbaldehyde;2-Formylbicyclo[2.2.1]heptane",
    "duplicated_cas_no": "",
    "SMILES": "C(=O)C1C2CC(C1)CC2",
    "meta_data": {
        "InChI": "InChI=1S/C8H12O/c9-5-8-4-6-1-2-7(8)3-6/h5-8H,1-4H2",
        "InChIKey": null,
        "Canonical SMILES": "O=CC1CC2CCC1C2",
        "Molecular Formula": "C<sub>8</sub>H<sub>12</sub>O",
        "Molecular Mass": "124.18",
        "Boiling Point": "75-76 °C @ Press: 25 Torr"
    }
}