{
    "cas_no": "30711-40-1",
    "key_name": "1-(2-Thienyl)-1-heptanone",
    "cn_name": "2-(正庚酰)噻吩;",
    "alternate_name": "1-Heptanone, 1-(2-thienyl)-;1-(2-Thienyl)-1-heptanone;2-Heptanoylthiophene;1-Thiophen-2-ylheptan-1-one;1-(Thiophen-2-yl)heptan-1-one",
    "duplicated_cas_no": "",
    "SMILES": "C(CCCCCC)(=O)C1=CC=CS1",
    "meta_data": {
        "InChI": "InChI=1S/C11H16OS/c1-2-3-4-5-7-10(12)11-8-6-9-13-11/h6,8-9H,2-5,7H2,1H3",
        "InChIKey": null,
        "Canonical SMILES": "O=C(C=1SC=CC1)CCCCCC",
        "Molecular Formula": "C<sub>11</sub>H<sub>16</sub>OS",
        "Molecular Mass": "196.31",
        "Boiling Point": "170-171 °C @ Press: 22 Torr"
    }
}