{
    "cas_no": "6380-24-1",
    "key_name": "<em>cis</em>-Methylisoeugenol",
    "cn_name": null,
    "alternate_name": "Benzene, 1,2-dimethoxy-4-(1<em>Z</em>)-1-propen-1-yl-;Benzene, 1,2-dimethoxy-4-propenyl-, (<em>Z</em>)-;Benzene, 1,2-dimethoxy-4-(1-propenyl)-, (<em>Z</em>)-;Benzene, 1,2-dimethoxy-4-(1<em>Z</em>)-1-propenyl-;Veratrole, 4-propenyl-, <em>cis</em>-;1,2-Dimethoxy-4-(1<em>Z</em>)-1-propen-1-ylbenzene;<em>cis</em>-Methylisoeugenol;<em>cis</em>-Isoeugenol methyl ether;4-<em>cis</em>-Propenylveratrole;(<em>Z</em>)-3,4-Dimethoxy-β-methylstyrene;(<em>Z</em>)-Methylisoeugenol;(<em>Z</em>)-<em>O</em>-Methylisoeugenol;1,2-Dimethoxy-4-(1-<em>cis</em>-propenyl)benzene;1,2-Dimethoxy-4-(1′-<em>Z</em>-propenyl)benzene;<em>cis</em>-<em>O</em>-Methylisoeugenol;(<em>Z</em>)-1,2-Dimethoxy-4-(prop-1-en-1-yl)benzene",
    "duplicated_cas_no": "",
    "SMILES": "O(C)C1=C(OC)C=CC(/C=C\\C)=C1",
    "meta_data": {
        "InChI": "InChI=1S/C11H14O2/c1-4-5-9-6-7-10(12-2)11(8-9)13-3/h4-8H,1-3H3/b5-4-",
        "InChIKey": null,
        "Canonical SMILES": "O(C1=CC=C(C=CC)C=C1OC)C",
        "Molecular Formula": "C<sub>11</sub>H<sub>14</sub>O<sub>2</sub>",
        "Molecular Mass": "178.23",
        "Boiling Point": "270.5 °C",
        "Melting Point": "70 °C"
    }
}