{
    "cas_no": "54556-98-8",
    "key_name": "Propiverine hydrochloride",
    "cn_name": "盐酸丙哌维林;1-甲基-4-哌啶基二苯基丙氧乙酸酯盐酸盐;",
    "alternate_name": "Benzeneacetic acid, α-phenyl-α-propoxy-, 1-methyl-4-piperidinyl ester, hydrochloride (1:1);Benzeneacetic acid, α-phenyl-α-propoxy-, 1-methyl-4-piperidinyl ester, hydrochloride;Acetic acid, diphenylpropoxy-, 1-methyl-4-piperidyl ester, hydrochloride;Propiverine hydrochloride;Mictonorm;P 4;P 4 (anticholinergic);Mictonetten;Pollarine;1-Methylpiperidin-4-yl 2,2-diphenyl-2-propoxyacetate hydrochloride",
    "duplicated_cas_no": "",
    "SMILES": "C(C(OC1CCN(C)CC1)=O)(OCCC)(C2=CC=CC=C2)C3=CC=CC=C3.Cl",
    "meta_data": {
        "InChI": "InChI=1S/C23H29NO3.ClH/c1-3-18-26-23(19-10-6-4-7-11-19,20-12-8-5-9-13-20)22(25)27-21-14-16-24(2)17-15-21;/h4-13,21H,3,14-18H2,1-2H3;1H",
        "InChIKey": null,
        "Canonical SMILES": "Cl.O=C(OC1CCN(C)CC1)C(OCCC)(C=2C=CC=CC2)C=3C=CC=CC3",
        "Molecular Formula": "C<sub>23</sub>H<sub>29</sub>NO<sub>3</sub>.ClH",
        "Molecular Mass": "",
        "Melting Point": "216-218 °C"
    }
}