{
    "cas_no": "7149-10-2",
    "key_name": "Phenol, 4-(aminomethyl)-2-methoxy-, hydrochloride (1:1)",
    "cn_name": "香兰素胺盐酸盐;3-甲氧基-4-羟基苄胺盐酸盐;",
    "alternate_name": "Phenol, 4-(aminomethyl)-2-methoxy-, hydrochloride (1:1);<em>p</em>-Cresol, α-amino-2-methoxy-, hydrochloride;Phenol, 4-(aminomethyl)-2-methoxy-, hydrochloride;Creosol, α-amino-, hydrochloride;Vanillylamine hydrochloride;3-Methoxy-4-hydroxybenzylamine hydrochloride;4-(Aminomethyl)-2-methoxyphenol hydrochloride;α-Aminocreosol hydrochloride;α-Amino-2-methoxy-<em>p</em>-cresol hydrochloride;4-Hydroxy-3-methoxybenzylamine hydrochloride;4-Hydroxy-3-methoxybenzylamine monohydrochloride;(4-Hydroxy-3-methoxyphenyl)methanaminium chloride",
    "duplicated_cas_no": "",
    "SMILES": "O(C)C1=CC(CN)=CC=C1O.Cl",
    "meta_data": {
        "InChI": "InChI=1S/C8H11NO2.ClH/c1-11-8-4-6(5-9)2-3-7(8)10;/h2-4,10H,5,9H2,1H3;1H",
        "InChIKey": null,
        "Canonical SMILES": "Cl.OC1=CC=C(C=C1OC)CN",
        "Molecular Formula": "C<sub>8</sub>H<sub>11</sub>NO<sub>2</sub>.ClH",
        "Molecular Mass": "",
        "Melting Point": "227 °C"
    }
}