{
    "cas_no": "17372-87-1",
    "key_name": "Eosin",
    "cn_name": "酸性红87;曙红微黄;四溴荧光素二钠;2\",4\",5\",7\"-四溴-3\",6\"-二羟基螺[异苯丙呋喃-1(3H),9\"(9H)-占吨]-3-酮;",
    "alternate_name": "Spiro[isobenzofuran-1(3<em>H</em>),9′-[9<em>H</em>]xanthen]-3-one, 2′,4′,5′,7′-tetrabromo-3′,6′-dihydroxy-, sodium salt (1:2);Fluorescein, 2′,4′,5′,7′-tetrabromo-, disodium salt;Spiro[isobenzofuran-1(3<em>H</em>),9′-[9<em>H</em>]xanthen]-3-one, 2′,4′,5′,7′-tetrabromo-3′,6′-dihydroxy-, disodium salt;Eosin Yellowish;Eosin;Eosine A;Eosine G;Eosine Yellowish;Eosine YS;11731 Red;Bromo X 100;Bromo 4D;Bromo 4DC;Bromo 4DL;Eosin Y;Eosine J;Eosine w/s;Eosine Y;Eosine 3G;Eosine 3Y;Eosine K Salt Free;Tetrabromofluorescein S;D and C Red No. 22;Eosine;Eosine sodium salt;C.I. Acid Red 87;Tetrabromofluorescein;11445 Red;C.I. 45380;Aizen Eosine GH;Bromo B;Bromoeosine;Bromo FL;Bromofluoresceic acid;Bromofluorescein;Bromo JPS;Bromo TS;Bromo XX;Bronze Bromo;Certiqual Eosine;Eosine BPC;Eosine BS;Eosine BS-SF;Eosine DA;Eosine DWC 73;Eosine Extra Conc. A. Export;Eosine FA;Eosine GF;Eosine Lake Red Y;Eosine OJ;Eosine Salt Free;Eosine YB;Eosin YS;Fenazo Eosine XG;Hidacid Boiling Bromo;Hidacid Bromo acid regular;Hidacid Dibromo Fluorescein;Hidacid Eosine Soda Salt;Hidacid White Bromo;Irgalite Bronze Red CL;Phloxine Red 20-7600;Phloxine Toner B;Phlox Red Toner X 1354;Pure Eosine YY;Symuler Eosin Toner;Tetrabromofluorescein D;Tetrabromofluorescein soluble;Toyo Eosine G;1903 Yellow Pink;Sodium eosine;Eosine S 13;Eosin yellow;Sodium eosinate;Bromo acid;Disodium eosin;Eosine sodium;Eosine S;Acid Red 87;Eosine water-soluble;Sodium eosin;Eosine Extra Yellowish;Eosine K;Food Red 103;Red 103;Eosine Yellow;Water Red 2;Orient Water Red 2;Japan Red 103;Red No. 103;Japan Red No. 103;Morning red;Dawn red;Eosine GH;Basacid Red 316;Eosin A;D&amp;C Red No. 22;Japan Red 230-1;Japan Red No. 230-1;Red No. 230-1;Eosin OJ;D&amp;C Red 22;Chugai Ink Red AM 5;Daiwa Red 103WB;Japan Red 230-2;Neelicol Eosine;D&amp;C Red No. 22-90133;Acid Red 87-39014;Triacid Eosine;Eosine AG;ABCO Eosin;Abbey Eosin;Silk Discharge Orange 3R;Eosine SSO;Eosine Y 90133;Simacid Eosine Y;Aizen Eosine;Orient Watger Red 2;Vicoacid Eosine;Cogilor Orange 212.10;Eosin Y 17255;Conacid Red ML;Dycosweak Acid Red A;Dinacid Eosine Red;Red 17255;Aizen Eosine GH 35%-L;Shuhong;Eosin G;Field's stain solution B;Field's stan B;Field stain B;Field stain solution B;Bromo X-100;Bromo Acid;Bromo Fluorescein;Eosine B;Phlox Red Toner X-1354;2,4,5,7-Tetrabromo-3,6-fluorandiol;Eosin yellowish",
    "duplicated_cas_no": "95917-83-2;122199-14-8;1340-15-4;12777-83-2;37361-24-3;84932-33-2;658700-91-5;198831-98-0;56588-87-5;528838-89-3",
    "SMILES": "O=C1OC2(C=3C(OC=4C2=CC(Br)=C(O)C4Br)=C(Br)C(O)=C(Br)C3)C=5C1=CC=CC5.[Na]",
    "meta_data": {
        "InChI": "InChI=1S/C20H8Br4O5.2Na/c21-11-5-9-17(13(23)15(11)25)28-18-10(6-12(22)16(26)14(18)24)20(9)8-4-2-1-3-7(8)19(27)29-20;;/h1-6,25-26H;;",
        "InChIKey": null,
        "Canonical SMILES": "[Na].O=C1OC2(C=3C=CC=CC13)C4=CC(Br)=C(O)C(Br)=C4OC5=C(Br)C(O)=C(Br)C=C52",
        "Molecular Formula": "C<sub>20</sub>H<sub>8</sub>Br<sub>4</sub>O<sub>5</sub>.2Na",
        "Molecular Mass": "",
        "Melting Point": "295.5 °C"
    }
}