{
    "cas_no": "2431-96-1",
    "key_name": "<em>N</em>,<em>N</em>-Diethyl-2-phenylacetamide",
    "cn_name": "N,N-二乙基-2-苯基乙酰胺;",
    "alternate_name": "Benzeneacetamide, <em>N</em>,<em>N</em>-diethyl-;Acetamide, <em>N</em>,<em>N</em>-diethyl-2-phenyl-;<em>N</em>,<em>N</em>-Diethylbenzeneacetamide;Phenyl-<em>N</em>,<em>N</em>-diethylacetamide;<em>N</em>,<em>N</em>-Diethyl phenylacetamide;NSC 8245;<em>N</em>,<em>N</em>-Diethyl-2-phenylacetamide",
    "duplicated_cas_no": "",
    "SMILES": "C(C(N(CC)CC)=O)C1=CC=CC=C1",
    "meta_data": {
        "InChI": "InChI=1S/C12H17NO/c1-3-13(4-2)12(14)10-11-8-6-5-7-9-11/h5-9H,3-4,10H2,1-2H3",
        "InChIKey": null,
        "Canonical SMILES": "O=C(N(CC)CC)CC=1C=CC=CC1",
        "Molecular Formula": "C<sub>12</sub>H<sub>17</sub>NO",
        "Molecular Mass": "191.27",
        "Boiling Point": "169-171 °C",
        "Melting Point": "84-86 °C",
        "Density": "1.007-1.014 g/cm³ @ Temp: 25 °C"
    }
}