{
    "cas_no": "101-20-2",
    "key_name": "Triclocarban",
    "cn_name": "三氯卡班;三氯卡巴;康洁新;3,4,4\"-三氯均二苯脲;3,4,4-三氯对称二苯脲;",
    "alternate_name": "Urea, <em>N</em>-(4-chlorophenyl)-<em>N</em>′-(3,4-dichlorophenyl)-;Carbanilide, 3,4,4′-trichloro-;<em>N</em>-(4-Chlorophenyl)-<em>N</em>′-(3,4-dichlorophenyl)urea;ENT 26925;Cutisan;TCC;3,4,4′-Trichlorocarbanilide;Triclocarban;3,4,4′-Trichlorodiphenylurea;<em>N</em>-(3,4-Dichlorophenyl)-<em>N</em>′-(4-chlorophenyl)urea;Cusiter;Genoface;Procutene;Solubacter;1-(4-Chlorophenyl)-3-(3,4-dichlorophenyl) urea;3-(4-Chlorophenyl)-1-(3,4-dichlorophenyl)urea;NSC 72005;Preventol SB extra;Preventol SB;Cuticura;Trichlorocarban",
    "duplicated_cas_no": "",
    "SMILES": "N(C(NC1=CC=C(Cl)C=C1)=O)C2=CC(Cl)=C(Cl)C=C2",
    "meta_data": {
        "InChI": "InChI=1S/C13H9Cl3N2O/c14-8-1-3-9(4-2-8)17-13(19)18-10-5-6-11(15)12(16)7-10/h1-7H,(H2,17,18,19)",
        "InChIKey": null,
        "Canonical SMILES": "O=C(NC1=CC=C(Cl)C=C1)NC2=CC=C(Cl)C(Cl)=C2",
        "Molecular Formula": "C<sub>13</sub>H<sub>9</sub>Cl<sub>3</sub>N<sub>2</sub>O",
        "Molecular Mass": "315.58",
        "Melting Point": "255.2-256 °C"
    }
}