{
    "cas_no": "2004-07-1",
    "key_name": "2-Amino-6-chloropurine riboside",
    "cn_name": "6-氯鸟嘌呤核苷;6-氯鸟嘌呤核甙;6-氯鸟苷;",
    "alternate_name": "9<em>H</em>-Purin-2-amine, 6-chloro-9-β-<span class=\"text-smallcaps\">D</span>-ribofuranosyl-;9<em>H</em>-Purine, 2-amino-6-chloro-9-β-<span class=\"text-smallcaps\">D</span>-ribofuranosyl-;6-Chloro-9-β-<span class=\"text-smallcaps\">D</span>-ribofuranosyl-9<em>H</em>-purin-2-amine;2-Amino-6-chloropurine ribonucleoside;NSC 44586;2-Amino-6-chloro-9-β-<span class=\"text-smallcaps\">D</span>-ribofuranosylpurine;2-Amino-6-chloropurine riboside;6-Chloroguanosine",
    "duplicated_cas_no": "",
    "SMILES": "ClC1=C2C(N(C=N2)[C@@H]3O[C@H](CO)[C@@H](O)[C@H]3O)=NC(N)=N1",
    "meta_data": {
        "InChI": "InChI=1S/C10H12ClN5O4/c11-7-4-8(15-10(12)14-7)16(2-13-4)9-6(19)5(18)3(1-17)20-9/h2-3,5-6,9,17-19H,1H2,(H2,12,14,15)/t3-,5-,6-,9-/m1/s1",
        "InChIKey": null,
        "Canonical SMILES": "ClC1=NC(=NC2=C1N=CN2C3OC(CO)C(O)C3O)N",
        "Molecular Formula": "C<sub>10</sub>H<sub>12</sub>ClN<sub>5</sub>O<sub>4</sub>",
        "Molecular Mass": "301.69",
        "Melting Point": "171-172 °C (decomp)"
    }
}