{
    "cas_no": "94-93-9",
    "key_name": "Salen",
    "cn_name": null,
    "alternate_name": "Phenol, 2,2′-[1,2-ethanediylbis(nitrilomethylidyne)]bis-;<em>o</em>-Cresol, α,α′-(ethylenedinitrilo)di-;2,2′-[1,2-Ethanediylbis(nitrilomethylidyne)]bis[phenol];<em>N</em>,<em>N</em>′-Di(salicylidene)ethylenediamine;α,α′-(Ethylenedinitrilo)di-<em>o</em>-cresol;1,2-Ethanediamine, <em>N</em>,<em>N</em>′-bis[(2-hydroxyphenyl)methylene]-;Di(salicylidene)ethylenediamine;<em>N</em>,<em>N</em>′-Bis(salicylidene)ethylenediamine;<em>N</em>,<em>N</em>′-Ethylenebis(salicylideneimine);Disalicylidene-1,2-ethanediamine;<em>N</em>,<em>N</em>′-Bis(2-hydroxybenzylidene)ethylenediamine;<em>N</em>,<em>N</em>′-Bis(<em>o</em>-hydroxybenzylidene)ethylenediamine;Salen;Bis(salicylaldehyde)ethylenediimine;<em>N</em>,<em>N</em>′-Disalicylidene-1,2-diaminoethane;<em>N</em>,<em>N</em>′-Bis(salicylidene)-1,2-ethanediamine;Salicylaldehyde ethylenediamine diimine;<em>N</em>,<em>N</em>′-Disalicylidene-1,2-ethanediamine;Salicylaldehyde ethylenediamine bisimine;NSC 2079;1,2-Bis[[(2-hydroxyphenyl)methylene]amino]ethane;1,2-Ethanedi(salicylaldimine);1,2-Bis(salicylideneamino)ethane;1,6-Bis(2-hydroxyphenyl)-2,5-diazahexa-1,5-diene;<em>N</em>,<em>N</em>′-Ethylenebis(salicylaldimine);<em>N</em>,<em>N</em>′-Bis(salicylidene)ethylene-1,2-diamine;<em>N</em>,<em>N</em>′-Bis(2-hydroxybenzylidene)-1,2-ethanediamine;2,2′-((Ethane-1,2-diylbis(azanylylidene))bis(methanylylidene))diphenol;<em>N</em>,<em>N</em>′-Ethylenebis(salicylimine)",
    "duplicated_cas_no": "77051-31-1",
    "SMILES": "C(=NCCN=CC1=C(O)C=CC=C1)C2=C(O)C=CC=C2",
    "meta_data": {
        "InChI": "InChI=1S/C16H16N2O2/c19-15-7-3-1-5-13(15)11-17-9-10-18-12-14-6-2-4-8-16(14)20/h1-8,11-12,19-20H,9-10H2",
        "InChIKey": null,
        "Canonical SMILES": "OC=1C=CC=CC1C=NCCN=CC=2C=CC=CC2O",
        "Molecular Formula": "C<sub>16</sub>H<sub>16</sub>N<sub>2</sub>O<sub>2</sub>",
        "Molecular Mass": "268.31",
        "Melting Point": "125.5 °C"
    }
}