{
    "cas_no": "603-81-6",
    "key_name": "2,3-Diaminobenzoic acid",
    "cn_name": null,
    "alternate_name": "Benzoic acid, 2,3-diamino-;2,3-Diaminobenzoic acid;3-Carboxy-1,2-diaminobenzene;3-Carboxy-<em>o</em>-phenylenediamine",
    "duplicated_cas_no": "",
    "SMILES": "C(O)(=O)C1=C(N)C(N)=CC=C1",
    "meta_data": {
        "InChI": "InChI=1S/C7H8N2O2/c8-5-3-1-2-4(6(5)9)7(10)11/h1-3H,8-9H2,(H,10,11)",
        "InChIKey": null,
        "Canonical SMILES": "O=C(O)C=1C=CC=C(N)C1N",
        "Molecular Formula": "C<sub>7</sub>H<sub>8</sub>N<sub>2</sub>O<sub>2</sub>",
        "Molecular Mass": "152.15",
        "Melting Point": "189-190 °C"
    }
}