{
    "cas_no": "22353-40-8",
    "key_name": "2,3-Dichloro-5-nitropyridine",
    "cn_name": "2,3-二氯-5-硝基吡啶;",
    "alternate_name": "Pyridine, 2,3-dichloro-5-nitro-;2,3-Dichloro-5-nitropyridine",
    "duplicated_cas_no": "",
    "SMILES": "N(=O)(=O)C=1C=C(Cl)C(Cl)=NC1",
    "meta_data": {
        "InChI": "InChI=1S/C5H2Cl2N2O2/c6-4-1-3(9(10)11)2-8-5(4)7/h1-2H",
        "InChIKey": null,
        "Canonical SMILES": "O=N(=O)C1=CN=C(Cl)C(Cl)=C1",
        "Molecular Formula": "C<sub>5</sub>H<sub>2</sub>Cl<sub>2</sub>N<sub>2</sub>O<sub>2</sub>",
        "Molecular Mass": "192.99",
        "Boiling Point": "254 °C",
        "Melting Point": "107-115 °C"
    }
}