{
    "cas_no": "556-50-3",
    "key_name": "Glycylglycine",
    "cn_name": "双甘肽;双甘氨肽;",
    "alternate_name": "Glycine, glycyl-;Glycine, <em>N</em>-glycyl-;Glycylglycine;<em>N</em>-Glycylglycine;Diglycine;α-Glycylglycine;Glycine dipeptide;Glycine-glycine;Gly<sub>2</sub>;2-(Aminoacetamido)acetic acid;Diglycocoll;NSC 49346;1: PN: WO2014159931 PAGE: 58 claimed sequence;36: PN: WO2010076654 SEQID: 36 claimed sequence;4: PN: WO2017095140 PAGE: 4 claimed sequence;2: PN: CN107034198 PAGE: 2 claimed sequence;9: PN: CN107098974 PAGE: 2 claimed sequence;13: PN: WO2017167712 SEQID: 23 claimed protein;7: PN: WO2018022936 SEQID: 142 claimed sequence;G 0124;1: PN: WO2018071767 PAGE: 80 claimed sequence;1: PN: WO2018075564 PAGE: 122 claimed sequence;4: PN: WO2018201047 SEQID: 102 claimed protein;89: PN: WO2019035010 SEQID: 89 claimed protein;38: PN: WO2020048525 SEQID: 46 claimed protein;29: PN: US20200095309 SEQID: 56 claimed protein;2-(2-Aminoacetamido)acetic acid;2-[(2-Aminoacetyl)amino]acetic acid;2: PN: WO2020191289 PAGE: 118 claimed sequence;16: PN: WO2021041934 SEQID: 69 claimed protein;3: PN: WO2021123229 PAGE: 77 claimed sequence;78: PN: WO2021155071 SEQID: 249 claimed protein;1: PN: WO2021191247 SEQID: 1 claimed protein;143: PN: WO2022032140 SEQID: 145 claimed protein;1: PN: WO2022057888 PAGE: 70 claimed sequence;4: PN: WO2022093718 PAGE: 104 claimed sequence;22: PN: WO2022164392 PAGE: 44 claimed sequence;4: PN: WO2022192664 PAGE: 110 claimed sequence;2: PN: WO2022218941 PAGE: 253 claimed sequence;2: PN: WO2022236009 SEQID: 92 claimed sequence;3: PN: WO2023044306 PAGE: 118 claimed sequence;MeSH ID: D006033;2: PN: WO2023141527 SEQID: 27 claimed protein;2: PN: WO2023212507 TABLE: 6 claimed sequence;55: PN: WO2023241653 SEQID: 63 claimed sequence;1: PN: WO2024050031 PAGE: 116 claimed protein",
    "duplicated_cas_no": "61499-00-1",
    "SMILES": "C(NCC(O)=O)(CN)=O",
    "meta_data": {
        "InChI": "InChI=1S/C4H8N2O3/c5-1-3(7)6-2-4(8)9/h1-2,5H2,(H,6,7)(H,8,9)",
        "InChIKey": null,
        "Canonical SMILES": "O=C(O)CNC(=O)CN",
        "Molecular Formula": "C<sub>4</sub>H<sub>8</sub>N<sub>2</sub>O<sub>3</sub>",
        "Molecular Mass": "132.12",
        "Melting Point": "215 °C (decomp)",
        "Density": "1.554 g/cm³ @ Temp: -5 °C"
    }
}