{
    "cas_no": "50816-19-8",
    "key_name": "8-Bromo-1-octanol",
    "cn_name": "8-溴-1-辛醇;",
    "alternate_name": "1-Octanol, 8-bromo-;8-Bromo-1-octanol;8-Bromooctanol;8-Hydroxy-1-bromooctane",
    "duplicated_cas_no": "",
    "SMILES": "C(CCCCO)CCCBr",
    "meta_data": {
        "InChI": "InChI=1S/C8H17BrO/c9-7-5-3-1-2-4-6-8-10/h10H,1-8H2",
        "InChIKey": null,
        "Canonical SMILES": "BrCCCCCCCCO",
        "Molecular Formula": "C<sub>8</sub>H<sub>17</sub>BrO",
        "Molecular Mass": "209.12",
        "Boiling Point": "126-128 °C @ Press: 3.999 Torr",
        "Density": "1.1246 g/cm³ @ Temp: 25 °C"
    }
}