{
    "cas_no": "547-58-0",
    "key_name": "Methyl orange",
    "cn_name": "甲基橙;对二甲氨基偶氮苯磺酸钠;4-[[4-(二甲氨基)苯基]偶氮基]苯磺酸钠;酸性橙52;",
    "alternate_name": "Benzenesulfonic acid, 4-[2-[4-(dimethylamino)phenyl]diazenyl]-, sodium salt (1:1);Orange III;Benzenesulfonic acid, <em>p</em>-[[<em>p</em>-(dimethylamino)phenyl]azo]-, sodium salt;Benzenesulfonic acid, 4-[[4-(dimethylamino)phenyl]azo]-, sodium salt;C.I. 13025;Eniamethyl Orange;Gold orange;Helianthine B;KCA Methyl Orange;Methyl Orange B;Sodium <em>p</em>-dimethylaminoazobenzenesulfonate;Tropaeolin D;C.I. Acid Orange 52;Methyl orange;Helianthine;Diazoben;Sodium 4′-(dimethylamino)azobenzene-4-sulfonate;Orange 3;Sodium 4-(dimethylamino)azobenzene-4′-sulfonate;4-Dimethylaminoazobenzene-4′-sulfonic acid sodium salt;Sodium 4-[4-(dimethylamino)phenylazo]benzenesulfonate;Sodium <em>p</em>-[[<em>p</em>-(dimethylamino)phenyl]azo]benzenesulfonate;Acid Orange 52;Albion Methyl Orange;Sodium 4-[(4-dimethylamino)phenyldiazenyl]benzenesulfonate",
    "duplicated_cas_no": "1342-24-1;66777-17-1;1773488-61-1;2734910-57-5",
    "SMILES": "N(=NC1=CC=C(N(C)C)C=C1)C2=CC=C(S(=O)(=O)O)C=C2.[Na]",
    "meta_data": {
        "InChI": "InChI=1S/C14H15N3O3S.Na/c1-17(2)13-7-3-11(4-8-13)15-16-12-5-9-14(10-6-12)21(18,19)20;/h3-10H,1-2H3,(H,18,19,20);",
        "InChIKey": null,
        "Canonical SMILES": "[Na].O=S(=O)(O)C1=CC=C(N=NC2=CC=C(C=C2)N(C)C)C=C1",
        "Molecular Formula": "C<sub>14</sub>H<sub>15</sub>N<sub>3</sub>O<sub>3</sub>S.Na",
        "Molecular Mass": "",
        "Melting Point": "&gt;300 °C",
        "Density": "1.468 g/cm³"
    }
}