{
    "cas_no": "2425-28-7",
    "key_name": "α-(Bromomethyl)benzenemethanol",
    "cn_name": null,
    "alternate_name": "Benzenemethanol, α-(bromomethyl)-;Benzyl alcohol, α-(bromomethyl)-;α-(Bromomethyl)benzenemethanol;Styrene β-bromohydrin;2-Bromo-1-phenylethanol;Styrene bromohydrin;(2-Bromo-1-hydroxyethyl)benzene;2-Bromo-1-phenyl-1-ethanol;(±)-2-Bromo-1-phenylethanol;α-(bromomethyl)benzenemethanol",
    "duplicated_cas_no": "74497-33-9",
    "SMILES": "C(CBr)(O)C1=CC=CC=C1",
    "meta_data": {
        "InChI": "InChI=1S/C8H9BrO/c9-6-8(10)7-4-2-1-3-5-7/h1-5,8,10H,6H2",
        "InChIKey": null,
        "Canonical SMILES": "BrCC(O)C=1C=CC=CC1",
        "Molecular Formula": "C<sub>8</sub>H<sub>9</sub>BrO",
        "Molecular Mass": "201.06",
        "Boiling Point": "109-110 °C @ Press: 2 Torr",
        "Melting Point": "110-111 °C",
        "Density": "1.4994 g/cm³ @ Temp: 20 °C"
    }
}