{
    "cas_no": "104372-31-8",
    "key_name": "4<em>H</em>-4a,7-Methanooxazirino[3,2-<em>i</em>][2,1]benzisothiazole, tetrahydro-9,9-dimethyl-, 3,3-dioxide, (4a<em>R</em>,7<em>S</em>,8a<em>R</em>)-",
    "cn_name": "(1R)-(-)-10-樟脑磺哑嗪;",
    "alternate_name": "4<em>H</em>-4a,7-Methanooxazirino[3,2-<em>i</em>][2,1]benzisothiazole, tetrahydro-9,9-dimethyl-, 3,3-dioxide, (4a<em>R</em>,7<em>S</em>,8a<em>R</em>)-;4<em>H</em>-4a,7-Methanooxazirino[3,2-<em>i</em>][2,1]benzisothiazole, tetrahydro-9,9-dimethyl-, 3,3-dioxide, [4a<em>R</em>-(4aα,7α,8a<em>R</em>*)]-;(-)-(Camphorsulfonyl)oxaziridine;(-)-(Camphorylsulfonyl)oxaziridine",
    "duplicated_cas_no": "125276-65-5",
    "SMILES": "CC1(C)[C@]23[C@@]4(N(O4)S(=O)(=O)C2)C[C@@]1(CC3)[H]",
    "meta_data": {
        "InChI": "InChI=1S/C10H15NO3S/c1-8(2)7-3-4-9(8)6-15(12,13)11-10(9,5-7)14-11/h7H,3-6H2,1-2H3/t7-,9+,10+,11?/m0/s1",
        "InChIKey": null,
        "Canonical SMILES": "O=S1(=O)N2OC23CC4CCC3(C1)C4(C)C",
        "Molecular Formula": "C<sub>10</sub>H<sub>15</sub>NO<sub>3</sub>S",
        "Molecular Mass": "229.30",
        "Melting Point": "163-165 °C"
    }
}