{
    "cas_no": "17865-11-1",
    "key_name": "[4-(Trimethylsilyl)phenyl]boronic acid",
    "cn_name": "4-(三甲基甲硅烷基)苯基硼酸;",
    "alternate_name": "Boronic acid, <em>B</em>-[4-(trimethylsilyl)phenyl]-;Benzeneboronic acid, <em>p</em>-(trimethylsilyl)-;Boronic acid, [4-(trimethylsilyl)phenyl]-;<em>B</em>-[4-(Trimethylsilyl)phenyl]boronic acid;4-(Trimethylsilyl)benzeneboronic acid;[4-(Trimethylsilyl)phenyl]boronic acid;<em>p</em>-Trimethylsilylbenzeneboronic acid;<em>p</em>-(Trimethylsilyl)phenylboronic acid",
    "duplicated_cas_no": "",
    "SMILES": "[Si](C)(C)(C)C1=CC=C(B(O)O)C=C1",
    "meta_data": {
        "InChI": "InChI=1S/C9H15BO2Si/c1-13(2,3)9-6-4-8(5-7-9)10(11)12/h4-7,11-12H,1-3H3",
        "InChIKey": null,
        "Canonical SMILES": "OB(O)C1=CC=C(C=C1)[Si](C)(C)C",
        "Molecular Formula": "C<sub>9</sub>H<sub>15</sub>BO<sub>2</sub>Si",
        "Molecular Mass": "194.11",
        "Melting Point": "193-194 °C"
    }
}