{
    "cas_no": "26177-43-5",
    "key_name": "Benzenemethanamine, 3-nitro-, hydrochloride (1:1)",
    "cn_name": "3-硝基苄胺盐酸盐;",
    "alternate_name": "Benzenemethanamine, 3-nitro-, hydrochloride (1:1);Benzylamine, <em>m</em>-nitro-, monohydrochloride;Benzenemethanamine, 3-nitro-, monohydrochloride;Benzylamine, <em>m</em>-nitro-, hydrochloride;3-Nitrobenzylamine monohydrochloride;3-Nitrobenzylamine hydrochloride;<em>m</em>-Nitrobenzylamine hydrochloride;3-Nitrobenzylammonium chloride;3-Nitrobenzenemethanamine hydrochloride;(3-Nitrophenyl)methanamine hydrochloride",
    "duplicated_cas_no": "",
    "SMILES": "N(=O)(=O)C1=CC(CN)=CC=C1.Cl",
    "meta_data": {
        "InChI": "InChI=1S/C7H8N2O2.ClH/c8-5-6-2-1-3-7(4-6)9(10)11;/h1-4H,5,8H2;1H",
        "InChIKey": null,
        "Canonical SMILES": "Cl.O=N(=O)C1=CC=CC(=C1)CN",
        "Molecular Formula": "C<sub>7</sub>H<sub>8</sub>N<sub>2</sub>O<sub>2</sub>.ClH",
        "Molecular Mass": "",
        "Melting Point": "225-227 °C"
    }
}