{
    "cas_no": "5216-25-1",
    "key_name": "4-Chlorobenzotrichloride",
    "cn_name": "4-氯三氯甲苯;对氯三氯甲苯;",
    "alternate_name": "Benzene, 1-chloro-4-(trichloromethyl)-;Toluene, <em>p</em>,α,α,α-tetrachloro-;1-Chloro-4-(trichloromethyl)benzene;<em>p</em>-Chlorobenzotrichloride;<em>p</em>-Chlorophenyltrichloromethane;4-Chlorobenzotrichloride;4,α,α,α-Tetrachlorotoluene;<em>p</em>,α,α,α-Tetrachlorotoluene;α,α,α,4-Tetrachlorotoluene;<em>p</em>-(Trichloromethyl)chlorobenzene;α,α,α,<em>p</em>-Tetrachlorotoluene;α,α,α-Trichloro-4-chlorotoluene;<em>p</em>-Chloro-α,α,α-trichlorotoluene",
    "duplicated_cas_no": "",
    "SMILES": "C(Cl)(Cl)(Cl)C1=CC=C(Cl)C=C1",
    "meta_data": {
        "InChI": "InChI=1S/C7H4Cl4/c8-6-3-1-5(2-4-6)7(9,10)11/h1-4H",
        "InChIKey": null,
        "Canonical SMILES": "ClC1=CC=C(C=C1)C(Cl)(Cl)Cl",
        "Molecular Formula": "C<sub>7</sub>H<sub>4</sub>Cl<sub>4</sub>",
        "Molecular Mass": "229.92",
        "Boiling Point": "245 °C"
    }
}