{
    "cas_no": "4383-05-5",
    "key_name": "2-Hydroxy-3-methoxybenzenemethanol",
    "cn_name": "2-羟基-3-甲氧基苄醇;",
    "alternate_name": "Benzenemethanol, 2-hydroxy-3-methoxy-;Benzyl alcohol, 2-hydroxy-3-methoxy-;2-Hydroxy-3-methoxybenzenemethanol;<em>o</em>-Vanillyl alcohol;2-Hydroxy-3-methoxybenzyl alcohol;3-Methoxysalicyl alcohol;<em>o</em>-(Hydroxymethyl)guaiacol;2-Hydroxymethyl-6-methoxyphenol;Ortho-vanillyl alcohol;2-Hydroxy-3-methoxy-hydroxymethyl benzene",
    "duplicated_cas_no": "",
    "SMILES": "C(O)C1=C(O)C(OC)=CC=C1",
    "meta_data": {
        "InChI": "InChI=1S/C8H10O3/c1-11-7-4-2-3-6(5-9)8(7)10/h2-4,9-10H,5H2,1H3",
        "InChIKey": null,
        "Canonical SMILES": "OC=1C(OC)=CC=CC1CO",
        "Molecular Formula": "C<sub>8</sub>H<sub>10</sub>O<sub>3</sub>",
        "Molecular Mass": "154.16",
        "Boiling Point": "135 °C",
        "Melting Point": "61.5 °C"
    }
}