{
    "cas_no": "3303-55-7",
    "key_name": "<span class=\"text-smallcaps\">L</smallcap>-Phenylalanyl-<smallcap>L</span>-leucine",
    "cn_name": null,
    "alternate_name": "<span class=\"text-smallcaps\">L</smallcap>-Leucine, <smallcap>L</span>-phenylalanyl-;Leucine, <em>N</em>-(3-phenyl-<span class=\"text-smallcaps\">L</smallcap>-alanyl)-, <smallcap>L</span>-;<span class=\"text-smallcaps\">L</smallcap>-Leucine, <em>N</em>-<smallcap>L</span>-phenylalanyl-;<span class=\"text-smallcaps\">L</smallcap>-Phenylalanyl-<smallcap>L</span>-leucine;2: PN: WO2004057976 PAGE: 32 claimed protein;22: PN: US20090239809 SEQID: 22 claimed protein;166: PN: EP2161028 PAGE: 10 claimed protein;1: PN: WO2018237354 PAGE: 31 claimed sequence",
    "duplicated_cas_no": "",
    "SMILES": "C([C@@H](C(N[C@@H](CC(C)C)C(O)=O)=O)N)C1=CC=CC=C1",
    "meta_data": {
        "InChI": "InChI=1S/C15H22N2O3/c1-10(2)8-13(15(19)20)17-14(18)12(16)9-11-6-4-3-5-7-11/h3-7,10,12-13H,8-9,16H2,1-2H3,(H,17,18)(H,19,20)/t12-,13-/m0/s1",
        "InChIKey": null,
        "Canonical SMILES": "O=C(O)C(NC(=O)C(N)CC=1C=CC=CC1)CC(C)C",
        "Molecular Formula": "C<sub>15</sub>H<sub>22</sub>N<sub>2</sub>O<sub>3</sub>",
        "Molecular Mass": "278.35",
        "Melting Point": "258-260 °C"
    }
}