{
    "cas_no": "31582-45-3",
    "key_name": "4-(Methacryloyloxy)-2,2,6,6-tetramethylpiperidine",
    "cn_name": "2-甲基-2-丙烯酸-2,2,6,6-四甲基-4-哌啶基酯;",
    "alternate_name": "2-Propenoic acid, 2-methyl-, 2,2,6,6-tetramethyl-4-piperidinyl ester;Methacrylic acid, 2,2,6,6-tetramethyl-4-piperidyl ester;4-(Methacryloyloxy)-2,2,6,6-tetramethylpiperidine;2,2,6,6-Tetramethyl-4-piperidinyl methacrylate;2,2,6,6-Tetramethyl-4-piperidyl methacrylate;2,2,6,6-Tetramethyl-4-piperidinyl 2-methyl-2-propenoate;Fancryl FA 712HM;Mark LA 87;ADK Stab LA 87;2,2,6,6-Tetramethylpiperidyl methacrylate;LA 87;FA 711H;TAA-ol methacrylate;FA 711HA;FA 712HM;Adeka Stab LA 87",
    "duplicated_cas_no": "126419-42-9;136894-89-8;344360-18-5;143320-58-5;145687-63-4;189048-01-9",
    "SMILES": "CC1(C)NC(C)(C)CC(OC(C(C)=C)=O)C1",
    "meta_data": {
        "InChI": "InChI=1S/C13H23NO2/c1-9(2)11(15)16-10-7-12(3,4)14-13(5,6)8-10/h10,14H,1,7-8H2,2-6H3",
        "InChIKey": null,
        "Canonical SMILES": "O=C(OC1CC(NC(C)(C)C1)(C)C)C(=C)C",
        "Molecular Formula": "C<sub>13</sub>H<sub>23</sub>NO<sub>2</sub>",
        "Molecular Mass": "225.33",
        "Melting Point": "60-62 °C"
    }
}