{
    "cas_no": "7782-78-7",
    "key_name": "Nitrosylsulfuric acid",
    "cn_name": "亚硝基硫酸;",
    "alternate_name": "Sulfuric acid, anhydride with nitrous acid (1:1);Nitrosyl sulfate ((NO)H(SO<sub>4</sub>));Nitrosyl sulfate;Sulfuric acid, monoanhydride with nitrous acid;Nitrosulfonic acid;Nitrosyl hydrogen sulfate;Nitrosylsulfuric acid;Nitrosylsulfuric acid (NOHSO<sub>4</sub>);Nitrosonium bisulfate;Nitrosyl bisulfate;Nitrosonium hydrogen sulfate;ADWL 03",
    "duplicated_cas_no": "26192-61-0",
    "SMILES": "O(S(=O)(=O)O)N=O",
    "meta_data": {
        "InChI": "InChI=1S/HNO5S/c2-1-6-7(3,4)5/h(H,3,4,5)",
        "InChIKey": null,
        "Canonical SMILES": "O=NOS(=O)(=O)O",
        "Molecular Formula": "HNO<sub>5</sub>S",
        "Molecular Mass": "127.08",
        "Melting Point": "73-74 °C"
    }
}