{
    "cas_no": "3029-30-9",
    "key_name": "1,4-Naphthalenedicarbonitrile",
    "cn_name": "萘-1,4-二腈;",
    "alternate_name": "1,4-Naphthalenedicarbonitrile;1,4-Dicyanonaphthalene;NSC 128542",
    "duplicated_cas_no": "",
    "SMILES": "C(#N)C=1C2=C(C(C#N)=CC1)C=CC=C2",
    "meta_data": {
        "InChI": "InChI=1S/C12H6N2/c13-7-9-5-6-10(8-14)12-4-2-1-3-11(9)12/h1-6H",
        "InChIKey": null,
        "Canonical SMILES": "N#CC1=CC=C(C#N)C=2C=CC=CC12",
        "Molecular Formula": "C<sub>12</sub>H<sub>6</sub>N<sub>2</sub>",
        "Molecular Mass": "178.19",
        "Melting Point": "206 °C"
    }
}