{
    "cas_no": "931-97-5",
    "key_name": "1-Hydroxycyclohexanecarbonitrile",
    "cn_name": "环己酮氰醇;",
    "alternate_name": "Cyclohexanecarbonitrile, 1-hydroxy-;1-Hydroxycyclohexanecarbonitrile;1-Cyano-1-hydroxycyclohexane;Cyclohexanone, cyanohydrin;NSC 14493;NSC 52190;1-Hydroxycyclohexane-1-carbonitrile",
    "duplicated_cas_no": "",
    "SMILES": "C(#N)C1(O)CCCCC1",
    "meta_data": {
        "InChI": "InChI=1S/C7H11NO/c8-6-7(9)4-2-1-3-5-7/h9H,1-5H2",
        "InChIKey": null,
        "Canonical SMILES": "N#CC1(O)CCCCC1",
        "Molecular Formula": "C<sub>7</sub>H<sub>11</sub>NO",
        "Molecular Mass": "125.17",
        "Boiling Point": "119.5 °C",
        "Melting Point": "35 °C",
        "Density": "1.01723 g/cm³ @ Temp: 30 °C"
    }
}