{
    "cas_no": "22737-36-6",
    "key_name": "<em>O</em>-(Trimethylsilyl)hydroxylamine",
    "cn_name": "O-(三甲基硅)羟胺;",
    "alternate_name": "Hydroxylamine, <em>O</em>-(trimethylsilyl)-;<em>O</em>-(Trimethylsilyl)hydroxylamine;Trimethylsiloxyamine",
    "duplicated_cas_no": "",
    "SMILES": "[Si](ON)(C)(C)C",
    "meta_data": {
        "InChI": "InChI=1S/C3H11NOSi/c1-6(2,3)5-4/h4H2,1-3H3",
        "InChIKey": null,
        "Canonical SMILES": "O(N)[Si](C)(C)C",
        "Molecular Formula": "C<sub>3</sub>H<sub>11</sub>NOSi",
        "Molecular Mass": "105.21",
        "Boiling Point": "98-99 °C",
        "Density": "0.86 g/cm³"
    }
}