{
    "cas_no": "4814-74-8",
    "key_name": "<em>N</em>-Hydroxymaleimide",
    "cn_name": "N-羟基马来酰亚胺;",
    "alternate_name": "1<em>H</em>-Pyrrole-2,5-dione, 1-hydroxy-;Maleimide, <em>N</em>-hydroxy-;1-Hydroxy-1<em>H</em>-pyrrole-2,5-dione;<em>N</em>-Hydroxymaleimide;1-Hydroxy-2,5-dihydro-1<em>H</em>-pyrrole-2,5-dione;1-Hydroxypyrrole-2,5-dione",
    "duplicated_cas_no": "",
    "SMILES": "ON1C(=O)C=CC1=O",
    "meta_data": {
        "InChI": "InChI=1S/C4H3NO3/c6-3-1-2-4(7)5(3)8/h1-2,8H",
        "InChIKey": null,
        "Canonical SMILES": "O=C1C=CC(=O)N1O",
        "Molecular Formula": "C<sub>4</sub>H<sub>3</sub>NO<sub>3</sub>",
        "Molecular Mass": "113.07",
        "Melting Point": "148-150 °C (decomp)"
    }
}