{
    "cas_no": "58-97-9",
    "key_name": "5′-UMP",
    "cn_name": null,
    "alternate_name": "5′-Uridylic acid;Uridylic acid;UMP;5′-UMP;Uridine 5′-monophosphate;Uridine monophosphate;Uridine 5′-phosphate;Uridine 5′-phosphoric acid;Uridine, mono(dihydrogen phosphate) (ester);Uridine, 5′-(dihydrogen phosphate);Uridine phosphate;Uridine 5′-(dihydrogen phosphate);UMP (nucleic acid);MeSH ID: D014542",
    "duplicated_cas_no": "53624-79-6;81795-92-8",
    "SMILES": "O[C@H]1[C@@H](O[C@H](COP(=O)(O)O)[C@H]1O)N2C(=O)NC(=O)C=C2",
    "meta_data": {
        "InChI": "InChI=1S/C9H13N2O9P/c12-5-1-2-11(9(15)10-5)8-7(14)6(13)4(20-8)3-19-21(16,17)18/h1-2,4,6-8,13-14H,3H2,(H,10,12,15)(H2,16,17,18)/t4-,6-,7-,8-/m1/s1",
        "InChIKey": null,
        "Canonical SMILES": "O=C1C=CN(C(=O)N1)C2OC(COP(=O)(O)O)C(O)C2O",
        "Molecular Formula": "C<sub>9</sub>H<sub>13</sub>N<sub>2</sub>O<sub>9</sub>P",
        "Molecular Mass": "324.18",
        "Melting Point": "202 °C (decomp)"
    }
}