{
    "cas_no": "1190-53-0",
    "key_name": "Buformin hydrochloride",
    "cn_name": null,
    "alternate_name": "Imidodicarbonimidic diamide, <em>N</em>-butyl-, hydrochloride (1:1);Biguanide, 1-butyl-, monohydrochloride;Imidodicarbonimidic diamide, <em>N</em>-butyl-, monohydrochloride;<em>N</em>-Butylbiguanide hydrochloride;1-Butylbiguanide hydrochloride;1-Butyldiguanide hydrochloride;<em>N</em><sup>1</sup>-<em>n</em>-Butylbiguanide hydrochloride;1-Butylbiguanide, monohydrochloride;Glybutide;<em>N</em><sup>1</sup>-Butyl-biguanide hydrochloride;Glibutide;Buformin hydrochloride;Biforon;Panformin;Bigunal;Andere;Bulbonin;Krebon;Bufonamin;Diabrin;Dibetos;Tidemol;Insulamin;Gliporal;Sindiatil;Ziavetine",
    "duplicated_cas_no": "",
    "SMILES": "N(C(NC(=N)N)=N)CCCC.Cl",
    "meta_data": {
        "InChI": "InChI=1S/C6H15N5.ClH/c1-2-3-4-10-6(9)11-5(7)8;/h2-4H2,1H3,(H6,7,8,9,10,11);1H",
        "InChIKey": null,
        "Canonical SMILES": "Cl.N=C(N)NC(=N)NCCCC",
        "Molecular Formula": "C<sub>6</sub>H<sub>15</sub>N<sub>5</sub>.ClH",
        "Molecular Mass": "",
        "Melting Point": "174-177 °C"
    }
}