{
    "cas_no": "22227-26-5",
    "key_name": "3,5-Bis(trifluoromethyl)benzamide",
    "cn_name": "3,5-双三氟甲基苯甲酰胺;",
    "alternate_name": "Benzamide, 3,5-bis(trifluoromethyl)-;3,5-Bis(trifluoromethyl)benzamide;3,5-Ditrifluoromethylbenzamide",
    "duplicated_cas_no": "",
    "SMILES": "C(F)(F)(F)C1=CC(C(F)(F)F)=CC(C(N)=O)=C1",
    "meta_data": {
        "InChI": "InChI=1S/C9H5F6NO/c10-8(11,12)5-1-4(7(16)17)2-6(3-5)9(13,14)15/h1-3H,(H2,16,17)",
        "InChIKey": null,
        "Canonical SMILES": "O=C(N)C=1C=C(C=C(C1)C(F)(F)F)C(F)(F)F",
        "Molecular Formula": "C<sub>9</sub>H<sub>5</sub>F<sub>6</sub>NO",
        "Molecular Mass": "257.13",
        "Melting Point": "181-183 °C"
    }
}