{
    "cas_no": "27593-23-3",
    "key_name": "6-Pentyl-2<em>H</em>-pyran-2-one",
    "cn_name": "6-戊基-2H-吡喃-2-酮;5-羟基-2,4-癸二烯酸gamma-内酯;",
    "alternate_name": "2<em>H</em>-Pyran-2-one, 6-pentyl-;6-Pentyl-2<em>H</em>-pyran-2-one;6-Pentyl-α-pyrone;6-<em>n</em>-Pentyl-α-pyrone;6-Pentyl-2-pyrone;6-(1-Pentyl)-2<em>H</em>-pyran-2-one;6-<em>n</em>-Pentyl-2<em>H</em>-pyran-2-one;6-Pentylpyran-2-one",
    "duplicated_cas_no": "",
    "SMILES": "C(CCCC)C=1OC(=O)C=CC1",
    "meta_data": {
        "InChI": "InChI=1S/C10H14O2/c1-2-3-4-6-9-7-5-8-10(11)12-9/h5,7-8H,2-4,6H2,1H3",
        "InChIKey": null,
        "Canonical SMILES": "O=C1OC(=CC=C1)CCCCC",
        "Molecular Formula": "C<sub>10</sub>H<sub>14</sub>O<sub>2</sub>",
        "Molecular Mass": "166.22",
        "Boiling Point": "92 °C @ Press: 0.5 Torr"
    }
}