{
    "cas_no": "392-04-1",
    "key_name": "Benzoic acid, 4-fluoro-2-hydroxy-, methyl ester",
    "cn_name": "4-氟水杨酸甲酯;",
    "alternate_name": "Benzoic acid, 4-fluoro-2-hydroxy-, methyl ester;Salicylic acid, 4-fluoro-, methyl ester;Methyl 4-fluoro-2-hydroxybenzoate;4-Fluoro-2-hydroxybenzoic acid methyl ester",
    "duplicated_cas_no": "",
    "SMILES": "C(OC)(=O)C1=C(O)C=C(F)C=C1",
    "meta_data": {
        "InChI": "InChI=1S/C8H7FO3/c1-12-8(11)6-3-2-5(9)4-7(6)10/h2-4,10H,1H3",
        "InChIKey": null,
        "Canonical SMILES": "O=C(OC)C1=CC=C(F)C=C1O",
        "Molecular Formula": "C<sub>8</sub>H<sub>7</sub>FO<sub>3</sub>",
        "Molecular Mass": "170.14",
        "Melting Point": "42 °C"
    }
}