{
    "cas_no": "579-75-9",
    "key_name": "2-Methoxybenzoic acid",
    "cn_name": "邻甲氧基苯甲酸;",
    "alternate_name": "Benzoic acid, 2-methoxy-;<em>o</em>-Anisic acid;2-Methoxybenzoic acid;<em>o</em>-Methoxybenzoic acid;Salicylic acid methyl ether;<em>O</em>-Methylsalicylic acid;NSC 3778",
    "duplicated_cas_no": "",
    "SMILES": "O(C)C1=C(C(O)=O)C=CC=C1",
    "meta_data": {
        "InChI": "InChI=1S/C8H8O3/c1-11-7-5-3-2-4-6(7)8(9)10/h2-5H,1H3,(H,9,10)",
        "InChIKey": null,
        "Canonical SMILES": "O=C(O)C=1C=CC=CC1OC",
        "Molecular Formula": "C<sub>8</sub>H<sub>8</sub>O<sub>3</sub>",
        "Molecular Mass": "152.15",
        "Melting Point": "101 °C"
    }
}