{
    "cas_no": "33036-62-3",
    "key_name": "4-Bromo-1-butanol",
    "cn_name": "4-溴-1-丁醇;",
    "alternate_name": "1-Butanol, 4-bromo-;4-Bromo-1-butanol;4-Bromobutanol;4-Bromobutan-1-ol;1-Bromo-4-butanol;1-Bromo-4-hydroxybutane",
    "duplicated_cas_no": "",
    "SMILES": "C(CCO)CBr",
    "meta_data": {
        "InChI": "InChI=1S/C4H9BrO/c5-3-1-2-4-6/h6H,1-4H2",
        "InChIKey": null,
        "Canonical SMILES": "BrCCCCO",
        "Molecular Formula": "C<sub>4</sub>H<sub>9</sub>BrO",
        "Molecular Mass": "153.02",
        "Boiling Point": "69-71 °C @ Press: 4.998 Torr"
    }
}