{
    "cas_no": "57837-19-1",
    "key_name": "Metalaxyl",
    "cn_name": "甲霜灵;氨丙灵;甲霜安;N-(2-甲氧基乙酰基)-N-(2,6-二甲基苯基)-DL-alpha-氨基丙酸甲酯;",
    "alternate_name": "Alanine, <em>N</em>-(2,6-dimethylphenyl)-<em>N</em>-(2-methoxyacetyl)-, methyl ester;Alanine, <em>N</em>-(2,6-dimethylphenyl)-<em>N</em>-(methoxyacetyl)-, methyl ester;<span class=\"text-smallcaps\">D</smallcap><smallcap>L</span>-Alanine, <em>N</em>-(2,6-dimethylphenyl)-<em>N</em>-(methoxyacetyl)-, methyl ester;CGA 48988;Ridomil;Metalaxyl;Metalaxil;Subdue;Metaxanine;CG 117;Metanaxin;Metasyl;Apron FL;Apron;Apron SD 35;Apron 350FW;Ridomil Vino;Apron 35WS;IPO-FS;Jiashuangling;Apron 35J;Methyl <em>N</em>-methoxyacetyl-<em>N</em>-(2,6-dimethylphenyl)-<span class=\"text-smallcaps\">D</smallcap><smallcap>L</span>-alaninate;Apron TL;(±)-Metalaxyl;Allegiance;Ridomil 72WP;Krilaxyl;Fonganil Neu;Sebring;Himil Gold;Acceleron DX 309;Acceleron DC 309;Allegiance FL;Axyl-Shield ST;RuiDuTong;STartUP METXL",
    "duplicated_cas_no": "102256-63-3;1135441-62-1",
    "SMILES": "N(C(C(OC)=O)C)(C(COC)=O)C1=C(C)C=CC=C1C",
    "meta_data": {
        "InChI": "InChI=1S/C15H21NO4/c1-10-7-6-8-11(2)14(10)16(13(17)9-19-4)12(3)15(18)20-5/h6-8,12H,9H2,1-5H3",
        "InChIKey": null,
        "Canonical SMILES": "O=C(OC)C(N(C(=O)COC)C=1C(=CC=CC1C)C)C",
        "Molecular Formula": "C<sub>15</sub>H<sub>21</sub>NO<sub>4</sub>",
        "Molecular Mass": "279.33",
        "Boiling Point": "295.9 °C @ Press: 760 Torr",
        "Melting Point": "71-72 °C",
        "Density": "1.20 g/cm³ @ Temp: 20 °C"
    }
}