{
    "cas_no": "75-55-8",
    "key_name": "2-Methylaziridine",
    "cn_name": "2-甲基氮丙啶;丙烯亚胺;丙撑亚胺;",
    "alternate_name": "Aziridine, 2-methyl-;2-Methylaziridine;Propylenimine;1,2-Propylenimine;2-Methylethylenimine;<span class=\"text-smallcaps\">DL</span>-2-Methylaziridine;NSC 20655",
    "duplicated_cas_no": "18961-44-9;18961-45-0;59204-10-3",
    "SMILES": "CC1CN1",
    "meta_data": {
        "InChI": "InChI=1S/C3H7N/c1-3-2-4-3/h3-4H,2H2,1H3",
        "InChIKey": null,
        "Canonical SMILES": "N1CC1C",
        "Molecular Formula": "C<sub>3</sub>H<sub>7</sub>N",
        "Molecular Mass": "57.09",
        "Boiling Point": "66-67 °C @ Press: 760 Torr",
        "Melting Point": "-65 °C",
        "Density": "0.812 g/cm³ @ Temp: 16 °C"
    }
}