{
    "cas_no": "119509-24-9",
    "key_name": "Atpenin A 5",
    "cn_name": null,
    "alternate_name": "2(1<em>H</em>)-Pyridinone, 3-[(2<em>S</em>,4<em>S</em>,5<em>R</em>)-5,6-dichloro-2,4-dimethyl-1-oxohexyl]-4-hydroxy-5,6-dimethoxy-;2(1<em>H</em>)-Pyridinone, 3-(5,6-dichloro-2,4-dimethyl-1-oxohexyl)-4-hydroxy-5,6-dimethoxy-, [2<em>S</em>-(2<em>R</em>*,4<em>R</em>*,5<em>S</em>*)]-;3-[(2<em>S</em>,4<em>S</em>,5<em>R</em>)-5,6-Dichloro-2,4-dimethyl-1-oxohexyl]-4-hydroxy-5,6-dimethoxy-2(1<em>H</em>)-pyridinone;Atpenin A 5;FO 125A<sub>5</sub>;Antibiotic FO 125A<sub>5</sub>",
    "duplicated_cas_no": "",
    "SMILES": "C([C@H](C[C@@H]([C@H](CCl)Cl)C)C)(=O)C1=C(O)C(OC)=C(OC)NC1=O",
    "meta_data": {
        "InChI": "InChI=1S/C15H21Cl2NO5/c1-7(9(17)6-16)5-8(2)11(19)10-12(20)13(22-3)15(23-4)18-14(10)21/h7-9H,5-6H2,1-4H3,(H2,18,20,21)/t7-,8-,9-/m0/s1",
        "InChIKey": null,
        "Canonical SMILES": "O=C1NC(OC)=C(OC)C(O)=C1C(=O)C(C)CC(C)C(Cl)CCl",
        "Molecular Formula": "C<sub>15</sub>H<sub>21</sub>Cl<sub>2</sub>NO<sub>5</sub>",
        "Molecular Mass": "366.24",
        "Melting Point": "83-85 °C"
    }
}