{
    "cas_no": "28862-80-8",
    "key_name": "CBZ-<span class=\"text-smallcaps\">D</span>-Methionine",
    "cn_name": null,
    "alternate_name": "<span class=\"text-smallcaps\">D</span>-Methionine, <em>N</em>-[(phenylmethoxy)carbonyl]-;Methionine, <em>N</em>-carboxy-, <em>N</em>-benzyl ester, <span class=\"text-smallcaps\">D</span>-;<em>N</em>-[(Phenylmethoxy)carbonyl]-<span class=\"text-smallcaps\">D</span>-methionine;<em>N</em>-(Benzyloxycarbonyl)-<span class=\"text-smallcaps\">D</span>-methionine;<span class=\"text-smallcaps\">D</span>-(Carbobenzyloxy)methionine;CBZ-<span class=\"text-smallcaps\">D</span>-Methionine;<em>N</em>-Carbobenzyloxy-<span class=\"text-smallcaps\">D</span>-methionine;(R)-2-(Benzyloxycarbonylamino)-4-(methylthio)butanoic acid;(2R)-4-Methylsulfanyl-2-(phenylmethoxycarbonylamino)butanoic acid",
    "duplicated_cas_no": "",
    "SMILES": "C(OC(N[C@H](CCSC)C(O)=O)=O)C1=CC=CC=C1",
    "meta_data": {
        "InChI": "InChI=1S/C13H17NO4S/c1-19-8-7-11(12(15)16)14-13(17)18-9-10-5-3-2-4-6-10/h2-6,11H,7-9H2,1H3,(H,14,17)(H,15,16)/t11-/m1/s1",
        "InChIKey": null,
        "Canonical SMILES": "O=C(OCC=1C=CC=CC1)NC(C(=O)O)CCSC",
        "Molecular Formula": "C<sub>13</sub>H<sub>17</sub>NO<sub>4</sub>S",
        "Molecular Mass": "283.34",
        "Melting Point": "62-63 °C"
    }
}