{
    "cas_no": "3971-31-1",
    "key_name": "1,3-Cyclohexanedicarboxylic acid",
    "cn_name": null,
    "alternate_name": "1,3-Cyclohexanedicarboxylic acid;Isophthalic acid, hexahydro-;1,3-Benzenedicarboxylic acid, hexahydro-;3-Carboxycyclohexanecarboxylic acid;Hexahydroisophthalic acid;Cyclohexan-1,3-dicarboxylic acid",
    "duplicated_cas_no": "",
    "SMILES": "C(O)(=O)C1CC(C(O)=O)CCC1",
    "meta_data": {
        "InChI": "InChI=1S/C8H12O4/c9-7(10)5-2-1-3-6(4-5)8(11)12/h5-6H,1-4H2,(H,9,10)(H,11,12)",
        "InChIKey": null,
        "Canonical SMILES": "O=C(O)C1CCCC(C(=O)O)C1",
        "Molecular Formula": "C<sub>8</sub>H<sub>12</sub>O<sub>4</sub>",
        "Molecular Mass": "172.18",
        "Melting Point": "188 °C"
    }
}