{
    "cas_no": "112093-28-4",
    "key_name": "Endoxifen",
    "cn_name": null,
    "alternate_name": "Phenol, 4-[(1<em>Z</em>)-1-[4-[2-(methylamino)ethoxy]phenyl]-2-phenyl-1-buten-1-yl]-;Phenol, 4-[1-[4-[2-(methylamino)ethoxy]phenyl]-2-phenyl-1-butenyl]-, (<em>Z</em>)-;Phenol, 4-[(1<em>Z</em>)-1-[4-[2-(methylamino)ethoxy]phenyl]-2-phenyl-1-butenyl]-;4-[(1<em>Z</em>)-1-[4-[2-(Methylamino)ethoxy]phenyl]-2-phenyl-1-buten-1-yl]phenol;4-Hydroxy-<em>N</em>-desmethyltamoxifen;Endoxifen;<em>N</em>-Desmethyl-4-hydroxytamoxifen;(<em>Z</em>)-Endoxifen",
    "duplicated_cas_no": "",
    "SMILES": "C(=C(/CC)\\C1=CC=CC=C1)(\\C2=CC=C(OCCNC)C=C2)/C3=CC=C(O)C=C3",
    "meta_data": {
        "InChI": "InChI=1S/C25H27NO2/c1-3-24(19-7-5-4-6-8-19)25(20-9-13-22(27)14-10-20)21-11-15-23(16-12-21)28-18-17-26-2/h4-16,26-27H,3,17-18H2,1-2H3/b25-24-",
        "InChIKey": null,
        "Canonical SMILES": "OC1=CC=C(C=C1)C(C2=CC=C(OCCNC)C=C2)=C(C=3C=CC=CC3)CC",
        "Molecular Formula": "C<sub>25</sub>H<sub>27</sub>NO<sub>2</sub>",
        "Molecular Mass": "373.49",
        "Melting Point": "139-143 °C"
    }
}