{
    "cas_no": "5392-40-5",
    "key_name": "Citral",
    "cn_name": "柠檬醛;3,7-二甲基-2,6-辛二烯醛;",
    "alternate_name": "2,6-Octadienal, 3,7-dimethyl-;3,7-Dimethyl-2,6-octadienal;Citral;Lemsyn GB;3,7-Dimethyl-2,6-octadien-1-al;Lemarome N;NSC 6170;Citral PQ Extra",
    "duplicated_cas_no": "8022-94-4;37350-34-8;96680-15-8;250599-19-0;433282-33-8;1392408-16-0;2321523-57-1",
    "SMILES": "C(CCC=C(C)C)(=CC=O)C",
    "meta_data": {
        "InChI": "InChI=1S/C10H16O/c1-9(2)5-4-6-10(3)7-8-11/h5,7-8H,4,6H2,1-3H3",
        "InChIKey": null,
        "Canonical SMILES": "O=CC=C(C)CCC=C(C)C",
        "Molecular Formula": "C<sub>10</sub>H<sub>16</sub>O",
        "Molecular Mass": "152.23",
        "Boiling Point": "227 °C",
        "Melting Point": "&lt;-10 °C",
        "Density": "0.891-0.897 g/cm³ @ Temp: 15 °C"
    }
}