{
    "cas_no": "64206-54-8",
    "key_name": "2-[(1-Oxopentyl)oxy]benzoic acid",
    "cn_name": "戊酰基水杨酸;",
    "alternate_name": "Benzoic acid, 2-[(1-oxopentyl)oxy]-;Salicylic acid, valerate;2-[(1-Oxopentyl)oxy]benzoic acid;2-Carboxyphenyl pentanoate;2-Valeryloxybenzoic acid;Valeroyl salicylate;Valeryl salicylate;2-(Pentanoyloxy)benzoic acid",
    "duplicated_cas_no": "",
    "SMILES": "C(O)(=O)C1=C(OC(CCCC)=O)C=CC=C1",
    "meta_data": {
        "InChI": "InChI=1S/C12H14O4/c1-2-3-8-11(13)16-10-7-5-4-6-9(10)12(14)15/h4-7H,2-3,8H2,1H3,(H,14,15)",
        "InChIKey": null,
        "Canonical SMILES": "O=C(O)C=1C=CC=CC1OC(=O)CCCC",
        "Molecular Formula": "C<sub>12</sub>H<sub>14</sub>O<sub>4</sub>",
        "Molecular Mass": "222.24",
        "Melting Point": "143 °C"
    }
}