{
    "cas_no": "1310-65-2",
    "key_name": "Lithium hydroxide",
    "cn_name": "氢氧化锂;",
    "alternate_name": "Lithium hydroxide (Li(OH));Lithium hydroxide;Bluesil SLT-CATA 51015",
    "duplicated_cas_no": "",
    "SMILES": "[Li]O",
    "meta_data": {
        "InChI": "InChI=1S/Li.H2O/h;1H2/q+1;/p-1",
        "InChIKey": null,
        "Canonical SMILES": "[Li]O",
        "Molecular Formula": "HLiO",
        "Molecular Mass": "",
        "Melting Point": "450 °C",
        "Density": "1.46 g/cm³"
    }
}