{
    "cas_no": "542-18-7",
    "key_name": "Chlorocyclohexane",
    "cn_name": "氯代环己烷;",
    "alternate_name": "Cyclohexane, chloro-;Chlorocyclohexane;Cyclohexyl chloride;Monochlorocyclohexane;NSC 8434",
    "duplicated_cas_no": "",
    "SMILES": "ClC1CCCCC1",
    "meta_data": {
        "InChI": "InChI=1S/C6H11Cl/c7-6-4-2-1-3-5-6/h6H,1-5H2",
        "InChIKey": null,
        "Canonical SMILES": "ClC1CCCCC1",
        "Molecular Formula": "C<sub>6</sub>H<sub>11</sub>Cl",
        "Molecular Mass": "118.60",
        "Boiling Point": "142 °C",
        "Melting Point": "-44.0 °C",
        "Density": "1.000 g/cm³ @ Temp: 20 °C"
    }
}