{
    "cas_no": "99-55-8",
    "key_name": "2-Methyl-5-nitroaniline",
    "cn_name": "2-氨基-4-硝基甲苯;",
    "alternate_name": "Benzenamine, 2-methyl-5-nitro-;<em>o</em>-Toluidine, 5-nitro-;Fast Scarlet G Base;2-Methyl-5-nitrobenzenamine;C.I. 37105;Amarthol Fast Scarlet G Base;Amarthol Fast Scarlet G Salt;Azoene Fast Scarlet GC Base;Azoene Fast Scarlet GC Salt;Azofix Scarlet G Salt;Azogene Fast Scarlet G;C.I. Azoic Diazo Component 12;Dainichi Fast Scarlet G Base;Daito Scarlet Base G;Devol Scarlet B;Devol Scarlet G Salt;Diabase Scarlet G;Diazo Fast Scarlet G;Fast Red SG Base;Fast Scarlet G;Fast Scarlet Base J;Fast Scarlet M 4NT Base;Fast Scarlet T Base;Fast Scarlet GC Base;Fast Scarlet G Salt;Fast Scarlet J Salt;Hiltonil Fast Scarlet G Base;Hiltonil Fast Scarlet GC Base;Hiltonil Fast Scarlet G Salt;Kayaku Scarlet G Base;Lake Scarlet G Base;Lithosol Orange R Base;Mitsui Scarlet G Base;6-Methyl-3-nitroaniline;Naphthanil Scarlet G Base;Naphtoelan Fast Scarlet G Base;Naphtoelan Fast Scarlet G Salt;PNOT;Scarlet G Base;Scarlet Base Ciba II;Scarlet Base Irga II;Scarlet Base NSP;Sugai Fast Scarlet G Base;Symulon Scarlet G Base;4-Nitro-2-aminotoluene;3-Nitro-6-methylaniline;1-Methyl-2-amino-4-nitrobenzene;2-Methyl-5-nitroaniline;5-Nitro-<em>o</em>-toluidine;2-Amino-4-nitrotoluene;5-Nitro-2-toluidine;5-Nitro-2-methylaniline;1-Amino-2-methyl-5-nitrobenzene;NSC 8947;(2-Methyl-5-nitrophenyl)amine;Scarlet G;Dycosbase Scarlet G Base;Icho Salt Scarlet G;Conazoic Diazo AB;Azoene Fast Scarlet G Salt;Scarlet Base G",
    "duplicated_cas_no": "",
    "SMILES": "N(=O)(=O)C1=CC(N)=C(C)C=C1",
    "meta_data": {
        "InChI": "InChI=1S/C7H8N2O2/c1-5-2-3-6(9(10)11)4-7(5)8/h2-4H,8H2,1H3",
        "InChIKey": null,
        "Canonical SMILES": "O=N(=O)C1=CC=C(C(N)=C1)C",
        "Molecular Formula": "C<sub>7</sub>H<sub>8</sub>N<sub>2</sub>O<sub>2</sub>",
        "Molecular Mass": "152.15",
        "Melting Point": "107-108 °C"
    }
}