{
    "cas_no": "5680-79-5",
    "key_name": "Glycine methyl ester hydrochloride",
    "cn_name": "甘氨酸甲酯盐酸盐;",
    "alternate_name": "Glycine, methyl ester, hydrochloride (1:1);Glycine, methyl ester, hydrochloride;Methyl glycinate hydrochloride;Aminoacetic acid methyl ester hydrochloride;Methyl aminoacetate hydrochloride;Glycine methyl ester monohydrochloride;Methyl α-aminoacetate hydrochloride;Methyl 2-aminoacetate hydrochloride;2-Aminoacetic acid methyl ester hydrochloride;Glycine methyl ester hydrochloride",
    "duplicated_cas_no": "2099112-83-9;2571584-49-9",
    "SMILES": "C(CN)(OC)=O.Cl",
    "meta_data": {
        "InChI": "InChI=1S/C3H7NO2.ClH/c1-6-3(5)2-4;/h2,4H2,1H3;1H",
        "InChIKey": null,
        "Canonical SMILES": "Cl.O=C(OC)CN",
        "Molecular Formula": "C<sub>3</sub>H<sub>7</sub>NO<sub>2</sub>.ClH",
        "Molecular Mass": "",
        "Melting Point": "175-176 °C"
    }
}