{
    "cas_no": "4319-49-7",
    "key_name": "4-Morpholinamine",
    "cn_name": "N-氨基吗啉;",
    "alternate_name": "4-Morpholinamine;Morpholine, 4-amino-;<em>N</em>-Aminomorpholine;4-Aminomorpholine;4-Morpholineamine;NSC 6825;(Morpholin-4-yl)amine",
    "duplicated_cas_no": "",
    "SMILES": "NN1CCOCC1",
    "meta_data": {
        "InChI": "InChI=1S/C4H10N2O/c5-6-1-3-7-4-2-6/h1-5H2",
        "InChIKey": null,
        "Canonical SMILES": "O1CCN(N)CC1",
        "Molecular Formula": "C<sub>4</sub>H<sub>10</sub>N<sub>2</sub>O",
        "Molecular Mass": "102.14",
        "Boiling Point": "166 °C"
    }
}