{
    "cas_no": "92-85-3",
    "key_name": "Thianthrene",
    "cn_name": "噻蒽;",
    "alternate_name": "Thianthrene;Thianthren;Dibenzodithiodioxane;NSC 439",
    "duplicated_cas_no": "",
    "SMILES": "C1=2C(SC=3C(S1)=CC=CC3)=CC=CC2",
    "meta_data": {
        "InChI": "InChI=1S/C12H8S2/c1-2-6-10-9(5-1)13-11-7-3-4-8-12(11)14-10/h1-8H",
        "InChIKey": null,
        "Canonical SMILES": "S1C=2C=CC=CC2SC=3C=CC=CC13",
        "Molecular Formula": "C<sub>12</sub>H<sub>8</sub>S<sub>2</sub>",
        "Molecular Mass": "216.32",
        "Boiling Point": "365 °C",
        "Melting Point": "159.3 °C",
        "Density": "1.43 g/cm³"
    }
}