{
    "cas_no": "20788-07-2",
    "key_name": "Resorantel",
    "cn_name": "雷琐太尔;N-(4-溴苯基)-2,6-二羟基苯甲酰胺;",
    "alternate_name": "Benzamide, <em>N</em>-(4-bromophenyl)-2,6-dihydroxy-;γ-Resorcylanilide, 4′-bromo-;<em>N</em>-(4-Bromophenyl)-2,6-dihydroxybenzamide;Terenol;4′-Bromo-2,6-dihydroxybenzanilide;Resorantel;4′-Bromo-γ-resorcylanilide;2,6-Dihydroxybenzoic acid 4′-bromanilide;Resorcylam;HOE 296V",
    "duplicated_cas_no": "",
    "SMILES": "C(NC1=CC=C(Br)C=C1)(=O)C2=C(O)C=CC=C2O",
    "meta_data": {
        "InChI": "InChI=1S/C13H10BrNO3/c14-8-4-6-9(7-5-8)15-13(18)12-10(16)2-1-3-11(12)17/h1-7,16-17H,(H,15,18)",
        "InChIKey": null,
        "Canonical SMILES": "O=C(NC1=CC=C(Br)C=C1)C=2C(O)=CC=CC2O",
        "Molecular Formula": "C<sub>13</sub>H<sub>10</sub>BrNO<sub>3</sub>",
        "Molecular Mass": "308.13",
        "Melting Point": "229 °C"
    }
}