{
    "cas_no": "88150-47-4",
    "key_name": "Amlodipine maleate",
    "cn_name": "马来酸氨氯地平;",
    "alternate_name": "3,5-Pyridinedicarboxylic acid, 2-[(2-aminoethoxy)methyl]-4-(2-chlorophenyl)-1,4-dihydro-6-methyl-, 3-ethyl 5-methyl ester, (2<em>Z</em>)-2-butenedioate (1:1);3,5-Pyridinedicarboxylic acid, 2-[(2-aminoethoxy)methyl]-4-(2-chlorophenyl)-1,4-dihydro-6-methyl-, 3-ethyl 5-methyl ester, (<em>Z</em>)-2-butenedioate (1:1);Amlodipine maleate;UK 48340-11",
    "duplicated_cas_no": "135877-50-8",
    "SMILES": "C(OCC)(=O)C=1C(C(C(OC)=O)=C(C)NC1COCCN)C2=C(Cl)C=CC=C2.C(=C\\C(O)=O)\\C(O)=O",
    "meta_data": {
        "InChI": "InChI=1S/C20H25ClN2O5.C4H4O4/c1-4-28-20(25)18-15(11-27-10-9-22)23-12(2)16(19(24)26-3)17(18)13-7-5-6-8-14(13)21;5-3(6)1-2-4(7)8/h5-8,17,23H,4,9-11,22H2,1-3H3;1-2H,(H,5,6)(H,7,8)/b;2-1-",
        "InChIKey": null,
        "Canonical SMILES": "O=C(O)C=CC(=O)O.O=C(OC)C1=C(NC(=C(C(=O)OCC)C1C=2C=CC=CC2Cl)COCCN)C",
        "Molecular Formula": "C<sub>20</sub>H<sub>25</sub>ClN<sub>2</sub>O<sub>5</sub>.C<sub>4</sub>H<sub>4</sub>O<sub>4</sub>",
        "Molecular Mass": "",
        "Melting Point": "174.23 °C"
    }
}