{
    "cas_no": "577-56-0",
    "key_name": "2-Acetylbenzoic acid",
    "cn_name": "2-乙酰苯甲酸;苯乙酮-2\"-羧酸;",
    "alternate_name": "Benzoic acid, 2-acetyl-;Benzoic acid, <em>o</em>-acetyl-;2-Acetylbenzoic acid;<em>o</em>-Acetylbenzoic acid;<em>o</em>-Carboxyacetophenone;2′-Carboxyacetophenone;NSC 407680;<em>o</em>-Acetophenonecarboxylic acid;2-Acetophenonecarboxylic acid;2-(1-Oxoethyl)-1-benzoic acid",
    "duplicated_cas_no": "",
    "SMILES": "C(C)(=O)C1=C(C(O)=O)C=CC=C1",
    "meta_data": {
        "InChI": "InChI=1S/C9H8O3/c1-6(10)7-4-2-3-5-8(7)9(11)12/h2-5H,1H3,(H,11,12)",
        "InChIKey": null,
        "Canonical SMILES": "O=C(O)C=1C=CC=CC1C(=O)C",
        "Molecular Formula": "C<sub>9</sub>H<sub>8</sub>O<sub>3</sub>",
        "Molecular Mass": "164.16",
        "Boiling Point": "110-112 °C",
        "Melting Point": "114.5 °C"
    }
}