{
    "cas_no": "1878-85-9",
    "key_name": "2-(2-Methoxyphenoxy)acetic acid",
    "cn_name": "2-甲氧基苯氧乙酸;",
    "alternate_name": "Acetic acid, 2-(2-methoxyphenoxy)-;Acetic acid, (<em>o</em>-methoxyphenoxy)-;Acetic acid, (2-methoxyphenoxy)-;2-(2-Methoxyphenoxy)acetic acid;Guaiacoxyacetic acid;(2-Methoxyphenoxy)acetic acid;(<em>o</em>-Methoxyphenoxy)acetic acid;NSC 5165",
    "duplicated_cas_no": "",
    "SMILES": "O(CC(O)=O)C1=C(OC)C=CC=C1",
    "meta_data": {
        "InChI": "InChI=1S/C9H10O4/c1-12-7-4-2-3-5-8(7)13-6-9(10)11/h2-5H,6H2,1H3,(H,10,11)",
        "InChIKey": null,
        "Canonical SMILES": "O=C(O)COC=1C=CC=CC1OC",
        "Molecular Formula": "C<sub>9</sub>H<sub>10</sub>O<sub>4</sub>",
        "Molecular Mass": "182.17",
        "Melting Point": "116-117 °C"
    }
}