{
    "cas_no": "61-73-4",
    "key_name": "Methylene blue",
    "cn_name": "亚甲兰;碱性湖藍BB;碱性蓝9;",
    "alternate_name": "Phenothiazin-5-ium, 3,7-bis(dimethylamino)-, chloride (1:1);C.I. Basic Blue 9;Phenothiazin-5-ium, 3,7-bis(dimethylamino)-, chloride;C.I. 52015;Aizen Methylene Blue FZ;Aizen Methylene Blue BH;Calcozine Blue ZF;Chromosmon;Hidaco Methylene Blue Salt Free;Leather Pure Blue HB;Methylene Blue D;Methylene Blue 2BP;Methylene Blue BBA;Methylene Blue A;Methylene Blue G;Methylene Blue 2BF;Methylene Blue 2B;Methylene Blue 2BN;Methylene Blue BD;Methylene Blue N;Methylene Blue BP;Methylene Blue BPC;Methylene Blue BX;Methylene Blue BZ;Methylene Blue chloride;Methylene Blue FZ;Methylene Blue GZ;Methylene Blue JFA;Methylene Blue NF;Methylene Blue NZ;Methylene Blue SG;Methylene Blue SP;Methylene Blue ZF;Methylene Blue Zinc Free;Methylene Blue ZX;Methylenium ceruleum;Methylthionine chloride;Methylthioninium chloride;Mitsui Methylene Blue;Schultz 1038;Swiss blue;Tetramethylthionine chloride;Yamamoto Methylene Blue B;Yamamoto Methylene Blue ZF;Ext D and C Blue No. 1;Methylene Blue B;Methylene blue;Basic Blue 9;Methylene Blue BB;Methylene Blue Iad;Methylene Blue HGG;Methylene blue polychrome;Sandocryl Blue BRL;External Blue 1;Tetramethylthionine;Duasyn Basic Blue IAD;Methylene Blue MB;Basic Lake Blue;Urolene Blue;Solvent Blue 8;C.I. Solvent Blue 8;Izit Crystal Dye;NSC 617593;Maxilon Blue SG;BIVN 401;Virostat;Suvus;Proveblue;Basic Blue 2B;TRx 0237;Methylene Blue solution alkaline according to Loeffler;Loffler's alkaline Methylene Blue;3,7-Bis(dimethylamino)-5λ4-phenothiazin-5-ylium chloride;Methylthioninium chloride Proveblue;Sigma A 4043;MeSH ID: D008751;ST 093058;ST093058;Rember TM",
    "duplicated_cas_no": "97130-83-1;105504-42-5;121067-62-7;1341-90-8;6476-03-5;12262-49-6;167498-52-4;923927-02-0;1001913-24-1;1001914-35-7;1219638-11-5",
    "SMILES": "N(C)(C)C1=CC2=C(N=C3C(=[S+]2)C=C(N(C)C)C=C3)C=C1.[Cl-]",
    "meta_data": {
        "InChI": "InChI=1S/C16H18N3S.ClH/c1-18(2)11-5-7-13-15(9-11)20-16-10-12(19(3)4)6-8-14(16)17-13;/h5-10H,1-4H3;1H/q+1;/p-1",
        "InChIKey": null,
        "Canonical SMILES": "[Cl-].N=1C2=CC=C(C=C2[S+]=C3C=C(C=CC13)N(C)C)N(C)C",
        "Molecular Formula": "C<sub>16</sub>H<sub>18</sub>N<sub>3</sub>S.Cl",
        "Molecular Mass": "",
        "Melting Point": "100-110 °C (decomp)",
        "Density": "1.31 g/cm³"
    }
}