{
    "cas_no": "13304-62-6",
    "key_name": "<em>N</em>-Benzylacrylamide",
    "cn_name": "N-苄基丙烯酰胺;",
    "alternate_name": "2-Propenamide, <em>N</em>-(phenylmethyl)-;Acrylamide, <em>N</em>-benzyl-;<em>N</em>-(Phenylmethyl)-2-propenamide;<em>N</em>-Benzylacrylamide;<em>N</em>-Benzyl-2-propenamide",
    "duplicated_cas_no": "",
    "SMILES": "C(NC(C=C)=O)C1=CC=CC=C1",
    "meta_data": {
        "InChI": "InChI=1S/C10H11NO/c1-2-10(12)11-8-9-6-4-3-5-7-9/h2-7H,1,8H2,(H,11,12)",
        "InChIKey": null,
        "Canonical SMILES": "O=C(C=C)NCC=1C=CC=CC1",
        "Molecular Formula": "C<sub>10</sub>H<sub>11</sub>NO",
        "Molecular Mass": "161.20",
        "Boiling Point": "138-140 °C @ Press: 0.3 Torr",
        "Melting Point": "69 °C"
    }
}