{
    "cas_no": "6873-15-0",
    "key_name": "Arborine",
    "cn_name": null,
    "alternate_name": "4(1<em>H</em>)-Quinazolinone, 1-methyl-2-(phenylmethyl)-;4(1<em>H</em>)-Quinazolinone, 2-benzyl-1-methyl-;Arborine;1-Methyl-2-(phenylmethyl)-4(1<em>H</em>)-quinazolinone;Glycosine (alkaloid);Glycosine;Arborin;Glycosin;NSC 127745;2-Benzyl-1-methylquinazolin-4-one;2-Benzyl-1-methylquinazolin-4(1<em>H</em>)-one",
    "duplicated_cas_no": "",
    "SMILES": "CN1C=2C(C(=O)N=C1CC3=CC=CC=C3)=CC=CC2",
    "meta_data": {
        "InChI": "InChI=1S/C16H14N2O/c1-18-14-10-6-5-9-13(14)16(19)17-15(18)11-12-7-3-2-4-8-12/h2-10H,11H2,1H3",
        "InChIKey": null,
        "Canonical SMILES": "O=C1N=C(N(C=2C=CC=CC12)C)CC=3C=CC=CC3",
        "Molecular Formula": "C<sub>16</sub>H<sub>14</sub>N<sub>2</sub>O",
        "Molecular Mass": "250.30",
        "Melting Point": "155-156 °C"
    }
}