{
    "cas_no": "80194-69-0",
    "key_name": "5-(Trifluoromethyl)pyridine-2-carboxylic acid",
    "cn_name": "5-三氟甲基吡啶-2-羧酸;5-三氟甲基吡啶-2-甲酸;",
    "alternate_name": "2-Pyridinecarboxylic acid, 5-(trifluoromethyl)-;5-(Trifluoromethyl)-2-pyridinecarboxylic acid;5-(Trifluoromethyl)pyridine-2-carboxylic acid;5-Trifluoromethylpicolinic acid",
    "duplicated_cas_no": "",
    "SMILES": "C(F)(F)(F)C=1C=CC(C(O)=O)=NC1",
    "meta_data": {
        "InChI": "InChI=1S/C7H4F3NO2/c8-7(9,10)4-1-2-5(6(12)13)11-3-4/h1-3H,(H,12,13)",
        "InChIKey": null,
        "Canonical SMILES": "O=C(O)C1=NC=C(C=C1)C(F)(F)F",
        "Molecular Formula": "C<sub>7</sub>H<sub>4</sub>F<sub>3</sub>NO<sub>2</sub>",
        "Molecular Mass": "191.11",
        "Melting Point": "134-135 °C"
    }
}