{
    "cas_no": "670-96-2",
    "key_name": "2-Phenylimidazole",
    "cn_name": "2-苯基咪唑;",
    "alternate_name": "1<em>H</em>-Imidazole, 2-phenyl-;Imidazole, 2-phenyl-;2-Phenyl-1<em>H</em>-imidazole;2-Phenylimidazole;Curezol 2PZ;2PZ;NSC 255226;2PZ-PW;Curezol 2PZ-S;Curezol 2PZ-PW;Curesol 2PZ;803A",
    "duplicated_cas_no": "78232-99-2;1349194-11-1",
    "SMILES": "C=1(NC=CN1)C2=CC=CC=C2",
    "meta_data": {
        "InChI": "InChI=1S/C9H8N2/c1-2-4-8(5-3-1)9-10-6-7-11-9/h1-7H,(H,10,11)",
        "InChIKey": null,
        "Canonical SMILES": "N=1C=CNC1C=2C=CC=CC2",
        "Molecular Formula": "C<sub>9</sub>H<sub>8</sub>N<sub>2</sub>",
        "Molecular Mass": "144.17",
        "Boiling Point": "340 °C",
        "Melting Point": "149.3 °C"
    }
}