{
    "cas_no": "7581-97-7",
    "key_name": "2,3-Dichlorobutane",
    "cn_name": null,
    "alternate_name": "Butane, 2,3-dichloro-;2,3-Dichlorobutane",
    "duplicated_cas_no": "",
    "SMILES": "C(C(C)Cl)(C)Cl",
    "meta_data": {
        "InChI": "InChI=1S/C4H8Cl2/c1-3(5)4(2)6/h3-4H,1-2H3",
        "InChIKey": null,
        "Canonical SMILES": "ClC(C)C(Cl)C",
        "Molecular Formula": "C<sub>4</sub>H<sub>8</sub>Cl<sub>2</sub>",
        "Molecular Mass": "127.01",
        "Boiling Point": "118 °C",
        "Melting Point": "-80 °C",
        "Density": "1.1051 g/cm³ @ Temp: 25 °C"
    }
}