{
    "cas_no": "7333-51-9",
    "key_name": "Cyclohexyltriphenylphosphonium bromide",
    "cn_name": "环己基三苯基溴化膦;环己基三苯基溴化膦;",
    "alternate_name": "Phosphonium, cyclohexyltriphenyl-, bromide (1:1);Phosphonium, cyclohexyltriphenyl-, bromide;Cyclohexyltriphenylphosphonium bromide;Bromo(cyclohexyl)triphenylphosphorane",
    "duplicated_cas_no": "59725-02-9",
    "SMILES": "[P+](C1CCCCC1)(C2=CC=CC=C2)(C3=CC=CC=C3)C4=CC=CC=C4.[Br-]",
    "meta_data": {
        "InChI": "InChI=1S/C24H26P.BrH/c1-5-13-21(14-6-1)25(22-15-7-2-8-16-22,23-17-9-3-10-18-23)24-19-11-4-12-20-24;/h1-3,5-10,13-18,24H,4,11-12,19-20H2;1H/q+1;/p-1",
        "InChIKey": null,
        "Canonical SMILES": "[Br-].C=1C=CC(=CC1)[P+](C=2C=CC=CC2)(C=3C=CC=CC3)C4CCCCC4",
        "Molecular Formula": "C<sub>24</sub>H<sub>26</sub>P.Br",
        "Molecular Mass": "",
        "Melting Point": "255-259 °C"
    }
}