{
    "cas_no": "755027-18-0",
    "key_name": "1-Bromo-4-iodo-2-methoxybenzene",
    "cn_name": null,
    "alternate_name": "Benzene, 1-bromo-4-iodo-2-methoxy-;1-Bromo-4-iodo-2-methoxybenzene;2-Bromo-5-iodoanisole",
    "duplicated_cas_no": "",
    "SMILES": "O(C)C1=C(Br)C=CC(I)=C1",
    "meta_data": {
        "InChI": "InChI=1S/C7H6BrIO/c1-10-7-4-5(9)2-3-6(7)8/h2-4H,1H3",
        "InChIKey": null,
        "Canonical SMILES": "BrC1=CC=C(I)C=C1OC",
        "Molecular Formula": "C<sub>7</sub>H<sub>6</sub>BrIO",
        "Molecular Mass": "312.93",
        "Melting Point": "53.1-55.6 °C"
    }
}