{
    "cas_no": "24304-84-5",
    "key_name": "2-[(2-Aminoethyl)thio]ethanol",
    "cn_name": null,
    "alternate_name": "Ethanol, 2-[(2-aminoethyl)thio]-;Ethanol, 2-(2-aminoethylmercapto)-;2-[(2-Aminoethyl)thio]ethanol;2-Hydroxyethyl 2-aminoethyl sulfide;2-β-Hydroxyethylthioethylamine;2-Hydroxyethylthioethylamine;5-Hydroxy-3-thiapentylamine;2-Aminoethyl 2-hydroxyethyl sulfide;5-Amino-3-thia-1-pentanol;2-(2-Aminoethylthio)ethanol;2-Aminoethyl 2′-hydroxyethyl sulfide;[2-[(2-Hydroxyethyl)thio]ethyl]amine;NSC 333199;2-(2-Aminoethylsulfanyl)ethanol;2-[(2-Aminoethyl)sulfanyl]ethan-1-ol;2-[(2-Aminoethyl)thio]ethan-1-ol",
    "duplicated_cas_no": "",
    "SMILES": "S(CCN)CCO",
    "meta_data": {
        "InChI": "InChI=1S/C4H11NOS/c5-1-3-7-4-2-6/h6H,1-5H2",
        "InChIKey": null,
        "Canonical SMILES": "OCCSCCN",
        "Molecular Formula": "C<sub>4</sub>H<sub>11</sub>NOS",
        "Molecular Mass": "121.20",
        "Boiling Point": "105-108 °C @ Press: 0.15 Torr"
    }
}