{
    "cas_no": "10534-59-5",
    "key_name": "Tetrabutylammonium acetate",
    "cn_name": "四丁基醋酸铵;",
    "alternate_name": "1-Butanaminium, <em>N</em>,<em>N</em>,<em>N</em>-tributyl-, acetate (1:1);Ammonium, tetrabutyl-, acetate;1-Butanaminium, <em>N</em>,<em>N</em>,<em>N</em>-tributyl-, acetate;Tetrabutylammonium acetate;Tetra-<em>n</em>-butylammonium acetate;<em>N</em>,<em>N</em>,<em>N</em>-Tributyl-1-butanaminium acetate",
    "duplicated_cas_no": "868274-17-3",
    "SMILES": "[N+](CCCC)(CCCC)(CCCC)CCCC.C(C)([O-])=O",
    "meta_data": {
        "InChI": "InChI=1S/C16H36N.C2H4O2/c1-5-9-13-17(14-10-6-2,15-11-7-3)16-12-8-4;1-2(3)4/h5-16H2,1-4H3;1H3,(H,3,4)/q+1;/p-1",
        "InChIKey": null,
        "Canonical SMILES": "O=C([O-])C.CCCC[N+](CCCC)(CCCC)CCCC",
        "Molecular Formula": "C<sub>16</sub>H<sub>36</sub>N.C<sub>2</sub>H<sub>3</sub>O<sub>2</sub>",
        "Molecular Mass": "",
        "Melting Point": "114-115 °C"
    }
}