{
    "cas_no": "451-69-4",
    "key_name": "3-(2-Fluorophenyl)-2-propenoic acid",
    "cn_name": "2-氟肉桂酸;邻氟肉桂酸;",
    "alternate_name": "2-Propenoic acid, 3-(2-fluorophenyl)-;Cinnamic acid, <em>o</em>-fluoro-;3-(2-Fluorophenyl)-2-propenoic acid;<em>o</em>-Fluorocinnamic acid;2-Fluorocinnamic acid;3-(2-Fluorophenyl)propenoic acid;NSC 73989;3-(2-Fluorophenyl)acrylic acid",
    "duplicated_cas_no": "",
    "SMILES": "C(=CC(O)=O)C1=C(F)C=CC=C1",
    "meta_data": {
        "InChI": "InChI=1S/C9H7FO2/c10-8-4-2-1-3-7(8)5-6-9(11)12/h1-6H,(H,11,12)",
        "InChIKey": null,
        "Canonical SMILES": "O=C(O)C=CC=1C=CC=CC1F",
        "Molecular Formula": "C<sub>9</sub>H<sub>7</sub>FO<sub>2</sub>",
        "Molecular Mass": "166.15",
        "Melting Point": "175 °C"
    }
}