{
    "cas_no": "18388-16-4",
    "key_name": "[(Trichlorosilyl)methyl]cyclohexane",
    "cn_name": null,
    "alternate_name": "Cyclohexane, [(trichlorosilyl)methyl]-;Silane, trichloro(cyclohexylmethyl)-;[(Trichlorosilyl)methyl]cyclohexane;(Cyclohexylmethyl)trichlorosilane",
    "duplicated_cas_no": "",
    "SMILES": "C([Si](Cl)(Cl)Cl)C1CCCCC1",
    "meta_data": {
        "InChI": "InChI=1S/C7H13Cl3Si/c8-11(9,10)6-7-4-2-1-3-5-7/h7H,1-6H2",
        "InChIKey": null,
        "Canonical SMILES": "Cl[Si](Cl)(Cl)CC1CCCCC1",
        "Molecular Formula": "C<sub>7</sub>H<sub>13</sub>Cl<sub>3</sub>Si",
        "Molecular Mass": "231.62",
        "Boiling Point": "94-98 °C @ Press: 11 Torr",
        "Density": "1.1765 g/cm³ @ Temp: 20 °C"
    }
}