{
    "cas_no": "70872-29-6",
    "key_name": "Isoxanthohumol",
    "cn_name": null,
    "alternate_name": "4<em>H</em>-1-Benzopyran-4-one, 2,3-dihydro-7-hydroxy-2-(4-hydroxyphenyl)-5-methoxy-8-(3-methyl-2-buten-1-yl)-, (2<em>S</em>)-;4<em>H</em>-1-Benzopyran-4-one, 2,3-dihydro-7-hydroxy-2-(4-hydroxyphenyl)-5-methoxy-8-(3-methyl-2-butenyl)-, (<em>S</em>)-;4<em>H</em>-1-Benzopyran-4-one, 2,3-dihydro-7-hydroxy-2-(4-hydroxyphenyl)-5-methoxy-8-(3-methyl-2-butenyl)-, (2<em>S</em>)-;(2<em>S</em>)-2,3-Dihydro-7-hydroxy-2-(4-hydroxyphenyl)-5-methoxy-8-(3-methyl-2-buten-1-yl)-4<em>H</em>-1-benzopyran-4-one;Isoxanthohumol;Isoxanthohumol (Sophora);(2<em>S</em>)-7,4′-Dihydroxy-5-methoxy-8-(γ,γ-dimethylallyl)flavanone;(-)-Isoxanthohumol;(2S)-7-Hydroxy-2-(4-hydroxyphenyl)-5-methoxy-8-(3-methylbut-2-enyl)-2,3-dihydrochromen-4-one",
    "duplicated_cas_no": "",
    "SMILES": "C(C=C(C)C)C1=C2C(=C(OC)C=C1O)C(=O)C[C@H](O2)C3=CC=C(O)C=C3",
    "meta_data": {
        "InChI": "InChI=1S/C21H22O5/c1-12(2)4-9-15-16(23)10-19(25-3)20-17(24)11-18(26-21(15)20)13-5-7-14(22)8-6-13/h4-8,10,18,22-23H,9,11H2,1-3H3/t18-/m0/s1",
        "InChIKey": null,
        "Canonical SMILES": "O=C1C=2C(OC)=CC(O)=C(C2OC(C3=CC=C(O)C=C3)C1)CC=C(C)C",
        "Molecular Formula": "C<sub>21</sub>H<sub>22</sub>O<sub>5</sub>",
        "Molecular Mass": "354.40",
        "Melting Point": "196-208 °C"
    }
}