{
    "cas_no": "6254-48-4",
    "key_name": "(β<em>R</em>)-β-Hydroxy-<span class=\"text-smallcaps\">L</span>-phenylalanine",
    "cn_name": "3-苯基-L-丝氨酸;(2S,3R)-2-氨基-3-羟基-3-苯基丙酸;",
    "alternate_name": "<span class=\"text-smallcaps\">L</span>-Phenylalanine, β-hydroxy-, (β<em>R</em>)-;Serine, 3-phenyl-, <span class=\"text-smallcaps\">L</span>-<em>threo</em>-;<span class=\"text-smallcaps\">L</span>-Phenylalanine, β-hydroxy-, <em>threo</em>-;(β<em>R</em>)-β-Hydroxy-<span class=\"text-smallcaps\">L</span>-phenylalanine;<span class=\"text-smallcaps\">L</span>-<em>threo</em>-3-Phenylserine;<em>threo</em>-β-Hydroxy-<span class=\"text-smallcaps\">L</span>-phenylalanine;<span class=\"text-smallcaps\">L</span>-<em>threo</em>-β-Phenylserine;(2S,3R)-2-Amino-3-hydroxy-3-phenylpropanoic acid;(2S,3R)-2-Amino-3-hydroxy-3-phenylpropionic acid",
    "duplicated_cas_no": "1822296-82-1",
    "SMILES": "[C@@H]([C@@H](C(O)=O)N)(O)C1=CC=CC=C1",
    "meta_data": {
        "InChI": "InChI=1S/C9H11NO3/c10-7(9(12)13)8(11)6-4-2-1-3-5-6/h1-5,7-8,11H,10H2,(H,12,13)/t7-,8+/m0/s1",
        "InChIKey": null,
        "Canonical SMILES": "O=C(O)C(N)C(O)C=1C=CC=CC1",
        "Molecular Formula": "C<sub>9</sub>H<sub>11</sub>NO<sub>3</sub>",
        "Molecular Mass": "181.19",
        "Melting Point": "195-197 °C (decomp)"
    }
}