{
    "cas_no": "52061-73-1",
    "key_name": "2,2-Dipropylpentanamide",
    "cn_name": null,
    "alternate_name": "Pentanamide, 2,2-dipropyl-;Valeramide, 2,2-dipropyl-;2,2-Dipropylpentanamide;2,2-Dipropylvaleramide;Tripropylacetamide;Tri-<em>n</em>-propylacetamide;Valdipromide;2,2-Di-<em>n</em>-propyl-valeramide",
    "duplicated_cas_no": "",
    "SMILES": "C(CCC)(CCC)(CCC)C(N)=O",
    "meta_data": {
        "InChI": "InChI=1S/C11H23NO/c1-4-7-11(8-5-2,9-6-3)10(12)13/h4-9H2,1-3H3,(H2,12,13)",
        "InChIKey": null,
        "Canonical SMILES": "O=C(N)C(CCC)(CCC)CCC",
        "Molecular Formula": "C<sub>11</sub>H<sub>23</sub>NO",
        "Molecular Mass": "185.31",
        "Boiling Point": "161 °C @ Press: 11 Torr",
        "Melting Point": "68-69 °C"
    }
}