{
    "cas_no": "2917-47-7",
    "key_name": "3-(Trimethylsilyl)-1-propanol",
    "cn_name": "3-三甲硅基-1-丙醇;",
    "alternate_name": "1-Propanol, 3-(trimethylsilyl)-;3-(Trimethylsilyl)-1-propanol;3-(Trimethylsilyl)propanol;3-Hydroxypropyltrimethylsilane;3-(Trimethylsilyl)propyl alcohol;1-(Trimethylsilyl)-3-propanol;NSC 96794",
    "duplicated_cas_no": "",
    "SMILES": "C([Si](C)(C)C)CCO",
    "meta_data": {
        "InChI": "InChI=1S/C6H16OSi/c1-8(2,3)6-4-5-7/h7H,4-6H2,1-3H3",
        "InChIKey": null,
        "Canonical SMILES": "OCCC[Si](C)(C)C",
        "Molecular Formula": "C<sub>6</sub>H<sub>16</sub>OSi",
        "Molecular Mass": "132.28",
        "Boiling Point": "141 °C",
        "Density": "0.0832 g/cm³"
    }
}