{
    "cas_no": "1159977-36-2",
    "key_name": "<em>N</em>-[4-Cyano-3-(trifluoromethyl)phenyl]-3-[(2-fluorophenyl)sulfonyl]-2-hydroxy-2-methylpropanamide",
    "cn_name": null,
    "alternate_name": "Propanamide, <em>N</em>-[4-cyano-3-(trifluoromethyl)phenyl]-3-[(2-fluorophenyl)sulfonyl]-2-hydroxy-2-methyl-;<em>N</em>-[4-Cyano-3-(trifluoromethyl)phenyl]-3-[(2-fluorophenyl)sulfonyl]-2-hydroxy-2-methylpropanamide",
    "duplicated_cas_no": "",
    "SMILES": "S(CC(C(NC1=CC(C(F)(F)F)=C(C#N)C=C1)=O)(C)O)(=O)(=O)C2=C(F)C=CC=C2",
    "meta_data": {
        "InChI": "InChI=1S/C18H14F4N2O4S/c1-17(26,10-29(27,28)15-5-3-2-4-14(15)19)16(25)24-12-7-6-11(9-23)13(8-12)18(20,21)22/h2-8,26H,10H2,1H3,(H,24,25)",
        "InChIKey": null,
        "Canonical SMILES": "N#CC1=CC=C(C=C1C(F)(F)F)NC(=O)C(O)(C)CS(=O)(=O)C=2C=CC=CC2F",
        "Molecular Formula": "C<sub>18</sub>H<sub>14</sub>F<sub>4</sub>N<sub>2</sub>O<sub>4</sub>S",
        "Molecular Mass": "430.37",
        "Melting Point": "160-164 °C"
    }
}