{
    "cas_no": "27231-36-3",
    "key_name": "2-Mercapto-5-methylbenzimidazole",
    "cn_name": "2-巯基-5-甲基苯并咪唑;5-甲基-2-巯基苯并咪唑;",
    "alternate_name": "2<em>H</em>-Benzimidazole-2-thione, 1,3-dihydro-5-methyl-;2-Benzimidazolinethione, 5-methyl-;2-Benzimidazolethiol, 5(<em>or</em> 6)-methyl-;1,3-Dihydro-5-methyl-2<em>H</em>-benzimidazole-2-thione;2-Mercapto-5-methylbenzimidazole;5-Methyl-2-mercaptobenzimidazole;5-Methylbenzimidazole-2-thiol;5-Methylbenzimidazoline-2-thione;2-Mercapto-5-methyl-1<em>H</em>-benzimidazole;NSC 231400;5-Methyl-2-mercapto-1<em>H</em>-benzimidazole;5-Methyl-1<em>H</em>-benzimidazole-2-thiol;2-Mercapto-5-methylbenzimidaole;5-Methyl-1,3-dihydro-2<em>H</em>-benzimidazole-2-thione",
    "duplicated_cas_no": "2360-37-4",
    "SMILES": "S=C1NC=2C(N1)=CC(C)=CC2",
    "meta_data": {
        "InChI": "InChI=1S/C8H8N2S/c1-5-2-3-6-7(4-5)10-8(11)9-6/h2-4H,1H3,(H2,9,10,11)",
        "InChIKey": null,
        "Canonical SMILES": "S=C1NC2=CC=C(C=C2N1)C",
        "Molecular Formula": "C<sub>8</sub>H<sub>8</sub>N<sub>2</sub>S",
        "Molecular Mass": "164.23",
        "Melting Point": "290-292 °C"
    }
}