{
    "cas_no": "3621-82-7",
    "key_name": "2,6-Dichlorobenzoxazole",
    "cn_name": "2,6-二氯苯并噁唑;",
    "alternate_name": "Benzoxazole, 2,6-dichloro-;2,6-Dichlorobenzoxazole;2,6-Dichlorobenzo[<em>d</em>]oxazole;2,6-Dichloro-1,3-benzooxazole;2,6-Dichloro-1,3-benzoxazole",
    "duplicated_cas_no": "",
    "SMILES": "ClC1=NC=2C(O1)=CC(Cl)=CC2",
    "meta_data": {
        "InChI": "InChI=1S/C7H3Cl2NO/c8-4-1-2-5-6(3-4)11-7(9)10-5/h1-3H",
        "InChIKey": null,
        "Canonical SMILES": "ClC1=NC=2C=CC(Cl)=CC2O1",
        "Molecular Formula": "C<sub>7</sub>H<sub>3</sub>Cl<sub>2</sub>NO",
        "Molecular Mass": "188.01",
        "Melting Point": "56-57 °C"
    }
}