{
    "cas_no": "17279-31-1",
    "key_name": "(α<em>S</em>)-<em>N</em>,<em>N</em>,α-Trimethylbenzenemethanamine",
    "cn_name": null,
    "alternate_name": "Benzenemethanamine, <em>N</em>,<em>N</em>,α-trimethyl-, (α<em>S</em>)-;Benzylamine, <em>N</em>,<em>N</em>,α-trimethyl-, (<em>S</em>)-(-)-;Benzenemethanamine, <em>N</em>,<em>N</em>,α-trimethyl-, (<em>S</em>)-;(α<em>S</em>)-<em>N</em>,<em>N</em>,α-Trimethylbenzenemethanamine;<em>S</em>-(-)-<em>N</em>,<em>N</em>-Dimethyl-1-phenylethylamine;(<em>S</em>)-<em>N</em>,<em>N</em>,α-Trimethylbenzenemethanamine;(<em>S</em>)-<em>N</em>,<em>N</em>-Dimethyl-1-phenylethylamine;(<em>S</em>)-[1-(Dimethylamino)ethyl]benzene;Dimethyl((<em>S</em>)-1-phenylethyl)amine;(1S)-<em>N</em>,<em>N</em>-Dimethyl-1-phenylethanamine;(-)-(<em>S</em>)-<em>N</em>,<em>N</em>-Dimethyl-1-phenylethylamine",
    "duplicated_cas_no": "",
    "SMILES": "[C@H](N(C)C)(C)C1=CC=CC=C1",
    "meta_data": {
        "InChI": "InChI=1S/C10H15N/c1-9(11(2)3)10-7-5-4-6-8-10/h4-9H,1-3H3/t9-/m0/s1",
        "InChIKey": null,
        "Canonical SMILES": "C=1C=CC(=CC1)C(N(C)C)C",
        "Molecular Formula": "C<sub>10</sub>H<sub>15</sub>N",
        "Molecular Mass": "149.23",
        "Boiling Point": "62 °C @ Press: 11 Torr"
    }
}