{
    "cas_no": "1757-72-8",
    "key_name": "1-Methyl-2-phenyl-1<em>H</em>-indole-3-carboxaldehyde",
    "cn_name": "1-甲基-2-苯基吲哚-3-甲醛;",
    "alternate_name": "1<em>H</em>-Indole-3-carboxaldehyde, 1-methyl-2-phenyl-;Indole-3-carboxaldehyde, 1-methyl-2-phenyl-;1-Methyl-2-phenyl-1<em>H</em>-indole-3-carboxaldehyde;1-Methyl-2-phenylindole-3-carboxaldehyde;3-Formyl-1-methyl-2-phenylindole;1-Methyl-2-phenyl-3-formylindole;1-Methyl-2-phenylindole-3-carbaldehyde;1-Methyl-2-phenyl-1<em>H</em>-indole-3-carbaldehyde",
    "duplicated_cas_no": "",
    "SMILES": "C(=O)C1=C(N(C)C=2C1=CC=CC2)C3=CC=CC=C3",
    "meta_data": {
        "InChI": "InChI=1S/C16H13NO/c1-17-15-10-6-5-9-13(15)14(11-18)16(17)12-7-3-2-4-8-12/h2-11H,1H3",
        "InChIKey": null,
        "Canonical SMILES": "O=CC=1C=2C=CC=CC2N(C1C=3C=CC=CC3)C",
        "Molecular Formula": "C<sub>16</sub>H<sub>13</sub>NO",
        "Molecular Mass": "235.28",
        "Melting Point": "128 °C"
    }
}