{
    "cas_no": "22338-67-6",
    "key_name": "Grandiflorenic acid",
    "cn_name": null,
    "alternate_name": "Kaura-9(11),16-dien-18-oic acid, (4α)-;Kaura-9(11),16-dien-18-oic acid;(4α)-Kaura-9(11),16-dien-18-oic acid;Grandiflorenic acid;(-)-Kaur-9(11),16-dien-19-oic acid;9,11-Dehydro-<em>ent</em>-kaurenoic acid;<em>ent</em>-9(11),16-Kauradien-19-oic acid;(+)-Grandiflorenic acid;<em>ent</em>-Kaura-9(11),16-dien-19-oic acid",
    "duplicated_cas_no": "23838-14-4;51956-36-6",
    "SMILES": "C[C@]12C=3[C@]4(C[C@@](CC3)(C(=C)C4)[H])CC[C@@]1([C@@](C(O)=O)(C)CCC2)[H]",
    "meta_data": {
        "InChI": "InChI=1S/C20H28O2/c1-13-11-20-10-7-15-18(2,16(20)6-5-14(13)12-20)8-4-9-19(15,3)17(21)22/h6,14-15H,1,4-5,7-12H2,2-3H3,(H,21,22)/t14-,15+,18-,19-,20-/m1/s1",
        "InChIKey": null,
        "Canonical SMILES": "O=C(O)C1(C)CCCC2(C3=CCC4C(=C)CC3(CCC12)C4)C",
        "Molecular Formula": "C<sub>20</sub>H<sub>28</sub>O<sub>2</sub>",
        "Molecular Mass": "300.44",
        "Melting Point": "155-157 °C"
    }
}