{
    "cas_no": "19652-33-6",
    "key_name": "5-Bromo-3-chloro-2-hydroxybenzaldehyde",
    "cn_name": null,
    "alternate_name": "Benzaldehyde, 5-bromo-3-chloro-2-hydroxy-;Salicylaldehyde, 5-bromo-3-chloro-;5-Bromo-3-chloro-2-hydroxybenzaldehyde;5-Bromo-3-chlorosalicylaldehyde",
    "duplicated_cas_no": "",
    "SMILES": "C(=O)C1=C(O)C(Cl)=CC(Br)=C1",
    "meta_data": {
        "InChI": "InChI=1S/C7H4BrClO2/c8-5-1-4(3-10)7(11)6(9)2-5/h1-3,11H",
        "InChIKey": null,
        "Canonical SMILES": "O=CC=1C=C(Br)C=C(Cl)C1O",
        "Molecular Formula": "C<sub>7</sub>H<sub>4</sub>BrClO<sub>2</sub>",
        "Molecular Mass": "235.46",
        "Melting Point": "100-102 °C"
    }
}