{
    "cas_no": "3665-51-8",
    "key_name": "3-Hydroxy-2-naphthalenecarboxamide",
    "cn_name": "2-羟基-3-萘甲酰胺;",
    "alternate_name": "2-Naphthalenecarboxamide, 3-hydroxy-;2-Naphthamide, 3-hydroxy-;3-Hydroxy-2-naphthalenecarboxamide;3-Hydroxy-2-naphthamide;2-Hydroxy-3-naphthalenecarboxamide;2-Hydroxy-3-naphthoamide;2-Hydroxy-3-naphthamide;2-Hydroxy-3-naphthoic acid amide;NSC 37060;3-Hydroxy-2-naphthalenecarbamide;3-Hydroxy-2-naphthoamide",
    "duplicated_cas_no": "",
    "SMILES": "C(N)(=O)C1=CC2=C(C=C1O)C=CC=C2",
    "meta_data": {
        "InChI": "InChI=1S/C11H9NO2/c12-11(14)9-5-7-3-1-2-4-8(7)6-10(9)13/h1-6,13H,(H2,12,14)",
        "InChIKey": null,
        "Canonical SMILES": "O=C(N)C1=CC=2C=CC=CC2C=C1O",
        "Molecular Formula": "C<sub>11</sub>H<sub>9</sub>NO<sub>2</sub>",
        "Molecular Mass": "187.19",
        "Melting Point": "185 °C"
    }
}