{
    "cas_no": "1531-77-7",
    "key_name": "Dibenzo[<em>b</em>,<em>e</em>]thiepin-11(6<em>H</em>)-one",
    "cn_name": "6,11-二氢二苯并[b,e]硫杂卓-11-酮;",
    "alternate_name": "Dibenzo[<em>b</em>,<em>e</em>]thiepin-11(6<em>H</em>)-one;Homothioxanthone;6,11-Dihydro-11-oxodibenzo[<em>b</em>,<em>e</em>]thiepin;6,11-Dihydrodibenzo[<em>b</em>,<em>e</em>]thiepin-11-one;6,11-Dihydrodibenz[<em>b</em>,<em>e</em>]thiepin-11-one",
    "duplicated_cas_no": "",
    "SMILES": "O=C1C=2C(CSC=3C1=CC=CC3)=CC=CC2",
    "meta_data": {
        "InChI": "InChI=1S/C14H10OS/c15-14-11-6-2-1-5-10(11)9-16-13-8-4-3-7-12(13)14/h1-8H,9H2",
        "InChIKey": null,
        "Canonical SMILES": "O=C1C=2C=CC=CC2SCC=3C=CC=CC13",
        "Molecular Formula": "C<sub>14</sub>H<sub>10</sub>OS",
        "Molecular Mass": "226.29",
        "Boiling Point": "162-165 °C @ Press: 0.1 Torr",
        "Melting Point": "80-87 °C"
    }
}