{
    "cas_no": "35212-22-7",
    "key_name": "Ipriflavone",
    "cn_name": "7-异丙氧基异黄酮;依普黄酮;伊普黄酮;",
    "alternate_name": "4<em>H</em>-1-Benzopyran-4-one, 7-(1-methylethoxy)-3-phenyl-;7-(1-Methylethoxy)-3-phenyl-4<em>H</em>-1-benzopyran-4-one;7-Isopropoxyisoflavone;Ipriflavone;FL 113;7-Isopropoxy-3-phenyl-4<em>H</em>-1-benzopyran-4-one;TC 80;Osteofix;Osteofix (pharmaceutical);Osten;Yambolap;Iprosten;TC 80 (pharmaceutical);Iprivone;3-Phenyl-7-propan-2-yloxychromen-4-one",
    "duplicated_cas_no": "",
    "SMILES": "O=C1C=2C(=CC(OC(C)C)=CC2)OC=C1C3=CC=CC=C3",
    "meta_data": {
        "InChI": "InChI=1S/C18H16O3/c1-12(2)21-14-8-9-15-17(10-14)20-11-16(18(15)19)13-6-4-3-5-7-13/h3-12H,1-2H3",
        "InChIKey": null,
        "Canonical SMILES": "O=C1C(=COC2=CC(OC(C)C)=CC=C21)C=3C=CC=CC3",
        "Molecular Formula": "C<sub>18</sub>H<sub>16</sub>O<sub>3</sub>",
        "Molecular Mass": "280.32",
        "Melting Point": "115-117 °C"
    }
}