{
    "cas_no": "2756-85-6",
    "key_name": "1-Aminocyclohexanecarboxylic acid",
    "cn_name": "1-氨基-1-环己基甲酸;",
    "alternate_name": "Cyclohexanecarboxylic acid, 1-amino-;1-Aminocyclohexanecarboxylic acid;α-Aminocyclohexanecarboxylic acid;Homocycloleucine;1-Aminocyclohexane-1-carboxylic acid;NSC 9059",
    "duplicated_cas_no": "",
    "SMILES": "C(O)(=O)C1(N)CCCCC1",
    "meta_data": {
        "InChI": "InChI=1S/C7H13NO2/c8-7(6(9)10)4-2-1-3-5-7/h1-5,8H2,(H,9,10)",
        "InChIKey": null,
        "Canonical SMILES": "O=C(O)C1(N)CCCCC1",
        "Molecular Formula": "C<sub>7</sub>H<sub>13</sub>NO<sub>2</sub>",
        "Molecular Mass": "143.18",
        "Melting Point": "350 °C (decomp)"
    }
}