{
    "cas_no": "791-28-6",
    "key_name": "Triphenylphosphine oxide",
    "cn_name": "三苯基氧化膦;三苯基氧膦;",
    "alternate_name": "Phosphine oxide, triphenyl-;Triphenylphosphine oxide;Triphenyl phosphorus oxide;Triphenylphosphine monoxide;TPPO;NSC 398;PP 560;(Diphenylphosphoroso)benzene",
    "duplicated_cas_no": "47027-44-1",
    "SMILES": "P(=O)(C1=CC=CC=C1)(C2=CC=CC=C2)C3=CC=CC=C3",
    "meta_data": {
        "InChI": "InChI=1S/C18H15OP/c19-20(16-10-4-1-5-11-16,17-12-6-2-7-13-17)18-14-8-3-9-15-18/h1-15H",
        "InChIKey": null,
        "Canonical SMILES": "O=P(C=1C=CC=CC1)(C=2C=CC=CC2)C=3C=CC=CC3",
        "Molecular Formula": "C<sub>18</sub>H<sub>15</sub>OP",
        "Molecular Mass": "278.28",
        "Boiling Point": "&gt;360 °C",
        "Melting Point": "156.5 °C",
        "Density": "1.140 g/cm³"
    }
}