{
    "cas_no": "139-08-2",
    "key_name": "Benzyldimethyltetradecylammonium chloride",
    "cn_name": "十四烷基二甲基苄基氯化铵;N,N-二甲基-N-十四烷基苯甲铵氯化物;肉豆蔻基苄基二甲基氯化铵;",
    "alternate_name": "Benzenemethanaminium, <em>N</em>,<em>N</em>-dimethyl-<em>N</em>-tetradecyl-, chloride (1:1);Benzyldimethyltetradecylammonium chloride;Ammonium, benzyldimethyltetradecyl-, chloride;Benzenemethanaminium, <em>N</em>,<em>N</em>-dimethyl-<em>N</em>-tetradecyl-, chloride;BTC 824P100;Dibactol;Dimethylbenzyltetradecylammonium chloride;Myristyldimethylbenzylammonium chloride;Tetradecyldimethylbenzylammonium chloride;Zephiramine;<em>N</em>-Benzyl-<em>N</em>,<em>N</em>-dimethylmyristylammonium chloride;Tetradecylbenzyldimethylammonium chloride;Quarton 14BCl;Sanibond 200LG;Dimethylbenzylmyristylammonium chloride;Barquat MS 100;<em>N</em>-Benzyl-<em>N</em>-tetradecyldimethylammonium chloride;Zephiramine chloride;<em>N</em>-Tetradecyl-<em>N</em>,<em>N</em>-dimethylbenzylammonium chloride;Benzyl(tetradecyl)dimethylammonium chloride;Sanisol M 100;<em>N</em>,<em>N</em>-Dimethyl-<em>N</em>-tetradecylbenzenemethanaminium chloride;Cation M 2-100;Nissan Cation M 2-100;Querton 14BCL;14BCL;Arquad DM 14B90;M 2-100;Miristalkonium chloride;Myristalkonium chloride;Cyncal;<em>N</em>-Benzyl-<em>N</em>,<em>N</em>-dimethyltetradecylammonium chloride;Zeph;JAQ Powdered Quat;Zephyramine;Zephyramine (surfactant);TDMBAC;Nissan Cation M 2-100R;Cation M 2-100R;M 2-100R;Ammonyx;<em>N</em>-Tetradecyl-<em>N</em>-benzyl-<em>N</em>,<em>N</em>-dimethylammonium chloride;TDBAC;Myristyl benzyl dimethyl ammonium chloride;Uniquat J",
    "duplicated_cas_no": "50641-12-8;51931-10-3;77465-44-2;113497-04-4;124548-64-7;867012-79-1;1427499-26-0",
    "SMILES": "C([N+](CCCCCCCCCCCCCC)(C)C)C1=CC=CC=C1.[Cl-]",
    "meta_data": {
        "InChI": "InChI=1S/C23H42N.ClH/c1-4-5-6-7-8-9-10-11-12-13-14-18-21-24(2,3)22-23-19-16-15-17-20-23;/h15-17,19-20H,4-14,18,21-22H2,1-3H3;1H/q+1;/p-1",
        "InChIKey": null,
        "Canonical SMILES": "[Cl-].C=1C=CC(=CC1)C[N+](C)(C)CCCCCCCCCCCCCC",
        "Molecular Formula": "C<sub>23</sub>H<sub>42</sub>N.Cl",
        "Molecular Mass": "",
        "Melting Point": "63 °C"
    }
}