{
    "cas_no": "13545-04-5",
    "key_name": "2,3-Dimethylsuccinic acid",
    "cn_name": null,
    "alternate_name": "Butanedioic acid, 2,3-dimethyl-;Succinic acid, 2,3-dimethyl-;Succinic acid, α,β-dimethyl-;2,3-Dimethylbutanedioic acid;2,3-Butanedicarboxylic acid;2,3-Dimethylsuccinic acid;α,β-Dimethylsuccinic acid;NSC 41215",
    "duplicated_cas_no": "",
    "SMILES": "C(C(C(O)=O)C)(C(O)=O)C",
    "meta_data": {
        "InChI": "InChI=1S/C6H10O4/c1-3(5(7)8)4(2)6(9)10/h3-4H,1-2H3,(H,7,8)(H,9,10)",
        "InChIKey": null,
        "Canonical SMILES": "O=C(O)C(C)C(C(=O)O)C",
        "Molecular Formula": "C<sub>6</sub>H<sub>10</sub>O<sub>4</sub>",
        "Molecular Mass": "146.14",
        "Boiling Point": "98-99 °C @ Press: 11 Torr",
        "Melting Point": "132 °C (decomp)",
        "Density": "0.9988 g/cm³ @ Temp: 20 °C"
    }
}