{
    "cas_no": "498-00-0",
    "key_name": "Vanillyl alcohol",
    "cn_name": "4-羟基-3-甲氧基苄醇;香草醇;香兰醇;",
    "alternate_name": "Benzenemethanol, 4-hydroxy-3-methoxy-;Vanillyl alcohol;4-Hydroxy-3-methoxybenzenemethanol;3-Methoxy-4-hydroxybenzyl alcohol;Vanillic alcohol;4-Hydroxy-3-methoxybenzyl alcohol;Vanillin alcohol;4-(Hydroxymethyl)-2-methoxyphenol;V 0018;V 0018 (alcohol);NSC 3993;<em>p</em>-(Hydroxymethyl)guaiacol;3-Methoxy-4-hydroxybenzenemethanol;3-Methoxyl-4-hydroxybenzyl alcohol",
    "duplicated_cas_no": "29515-42-2",
    "SMILES": "O(C)C1=CC(CO)=CC=C1O",
    "meta_data": {
        "InChI": "InChI=1S/C8H10O3/c1-11-8-4-6(5-9)2-3-7(8)10/h2-4,9-10H,5H2,1H3",
        "InChIKey": null,
        "Canonical SMILES": "OC1=CC=C(C=C1OC)CO",
        "Molecular Formula": "C<sub>8</sub>H<sub>10</sub>O<sub>3</sub>",
        "Molecular Mass": "154.16",
        "Melting Point": "115 °C"
    }
}