{
    "cas_no": "84000-11-3",
    "key_name": "<em>N</em>-[(9<em>H</em>-Fluoren-9-ylmethoxy)carbonyl]-<em>N</em>-methyl-<span class=\"text-smallcaps\">L</span>-valine",
    "cn_name": "Fmoc-N-甲基-L-缬氨酸;N-芴甲氧羰基-N-甲基-L-缬氨酸;",
    "alternate_name": "<span class=\"text-smallcaps\">L</span>-Valine, <em>N</em>-[(9<em>H</em>-fluoren-9-ylmethoxy)carbonyl]-<em>N</em>-methyl-;<em>N</em>-[(9<em>H</em>-Fluoren-9-ylmethoxy)carbonyl]-<em>N</em>-methyl-<span class=\"text-smallcaps\">L</span>-valine;<em>N</em>-(9-Fluorenylmethoxycarbonyl)-<em>N</em>-methylvaline;(2S)-2-[9<em>H</em>-Fluoren-9-ylmethoxycarbonyl(methyl)amino]-3-methylbutanoic acid;(2S)-2-([[(9<em>H</em>-Fluoren-9-yl)methoxy]carbonyl](methyl)amino)-3-methylbutanoic acid",
    "duplicated_cas_no": "",
    "SMILES": "C(OC(N([C@@H](C(C)C)C(O)=O)C)=O)C1C=2C(C=3C1=CC=CC3)=CC=CC2",
    "meta_data": {
        "InChI": "InChI=1S/C21H23NO4/c1-13(2)19(20(23)24)22(3)21(25)26-12-18-16-10-6-4-8-14(16)15-9-5-7-11-17(15)18/h4-11,13,18-19H,12H2,1-3H3,(H,23,24)/t19-/m0/s1",
        "InChIKey": null,
        "Canonical SMILES": "O=C(O)C(N(C(=O)OCC1C=2C=CC=CC2C=3C=CC=CC31)C)C(C)C",
        "Molecular Formula": "C<sub>21</sub>H<sub>23</sub>NO<sub>4</sub>",
        "Molecular Mass": "353.41",
        "Melting Point": "187-189 °C"
    }
}