{
    "cas_no": "5812-07-7",
    "key_name": "3-(4-Dimethylaminobenzylidenyl)-2-indolinone",
    "cn_name": null,
    "alternate_name": "2<em>H</em>-Indol-2-one, 3-[[4-(dimethylamino)phenyl]methylene]-1,3-dihydro-;2-Indolinone, 3-[<em>p</em>-(dimethylamino)benzylidene]-;3-[[4-(Dimethylamino)phenyl]methylene]-1,3-dihydro-2<em>H</em>-indol-2-one;SU 4312;3-(4-Dimethylaminobenzylidenyl)-2-indolinone;NSC 86429;DMBI;3-[[4-(Dimethylamino)phenyl]methylidene]-2,3-dihydro-1<em>H</em>-indol-2-one",
    "duplicated_cas_no": "",
    "SMILES": "C(=C1C=2C(NC1=O)=CC=CC2)C3=CC=C(N(C)C)C=C3",
    "meta_data": {
        "InChI": "InChI=1S/C17H16N2O/c1-19(2)13-9-7-12(8-10-13)11-15-14-5-3-4-6-16(14)18-17(15)20/h3-11H,1-2H3,(H,18,20)",
        "InChIKey": null,
        "Canonical SMILES": "O=C1NC=2C=CC=CC2C1=CC3=CC=C(C=C3)N(C)C",
        "Molecular Formula": "C<sub>17</sub>H<sub>16</sub>N<sub>2</sub>O",
        "Molecular Mass": "264.32",
        "Melting Point": "225-232 °C"
    }
}