{
    "cas_no": "2120-70-9",
    "key_name": "Phenoxyacetaldehyde",
    "cn_name": "苯氧代乙醛;",
    "alternate_name": "Acetaldehyde, 2-phenoxy-;Acetaldehyde, phenoxy-;2-Phenoxyacetaldehyde;Phenoxyacetaldehyde;2-Phenoxyethanal;NSC 49355",
    "duplicated_cas_no": "",
    "SMILES": "O(CC=O)C1=CC=CC=C1",
    "meta_data": {
        "InChI": "InChI=1S/C8H8O2/c9-6-7-10-8-4-2-1-3-5-8/h1-6H,7H2",
        "InChIKey": null,
        "Canonical SMILES": "O=CCOC=1C=CC=CC1",
        "Molecular Formula": "C<sub>8</sub>H<sub>8</sub>O<sub>2</sub>",
        "Molecular Mass": "136.15",
        "Boiling Point": "94 °C @ Press: 6 Torr",
        "Melting Point": "160-162 °C"
    }
}