{
    "cas_no": "123-96-6",
    "key_name": "2-Octanol",
    "cn_name": "仲辛醇;2-羟基辛烷;2-辛醇;辛醇-2;",
    "alternate_name": "2-Octanol;<em>sec</em>-Caprylic alcohol;Hexylmethylcarbinol;Methylhexylcarbinol;<em>s</em>-Octyl alcohol;β-Octyl alcohol;1-Methylheptyl alcohol;2-Octyl alcohol;<em>n</em>-Octan-2-ol;2-Hydroxyoctane;2-Hydroxy-<em>n</em>-octane;1-Methyl-1-heptanol;1-Methylheptanol;<span class=\"text-smallcaps\">DL</span>-2-Octanol;<em>dl</em>-Methylhexylcarbinol;(±)-2-Octanol;(<em>RS</em>)-2-Octanol;NSC 14759",
    "duplicated_cas_no": "113244-40-9;4128-31-8",
    "SMILES": "C(CC(C)O)CCCC",
    "meta_data": {
        "InChI": "InChI=1S/C8H18O/c1-3-4-5-6-7-8(2)9/h8-9H,3-7H2,1-2H3",
        "InChIKey": null,
        "Canonical SMILES": "OC(C)CCCCCC",
        "Molecular Formula": "C<sub>8</sub>H<sub>18</sub>O",
        "Molecular Mass": "130.23",
        "Boiling Point": "178.5 °C",
        "Melting Point": "-38.6 °C",
        "Density": "0.82 g/cm³"
    }
}