{
    "cas_no": "88917-22-0",
    "key_name": "Dipropylene glycol methyl ether acetate",
    "cn_name": "二丙二醇甲醚醋酸酯;DPMA;",
    "alternate_name": "Propanol, 1(<em>or</em> 2)-(2-methoxymethylethoxy)-, acetate;Dowanol DPMA;Arcosolv DPMA;Dipropylene glycol monomethyl ether acetate;Dipropylene glycol methyl ether acetate;DPM acetate;DPMA (solvent)",
    "duplicated_cas_no": "1432741-16-6",
    "SMILES": "",
    "meta_data": {
        "InChI": "",
        "InChIKey": null,
        "Canonical SMILES": "",
        "Molecular Formula": "C<sub>9</sub>H<sub>18</sub>O<sub>4</sub>",
        "Molecular Mass": "",
        "Boiling Point": "200 °C"
    }
}