{
    "cas_no": "111-02-4",
    "key_name": "Squalene",
    "cn_name": "反式角鲨烯;全反-2,6,10,15,19,23-六甲基-2,6,10,14,18,22-廿四碳六烯;",
    "alternate_name": "2,6,10,14,18,22-Tetracosahexaene, 2,6,10,15,19,23-hexamethyl-, (6<em>E</em>,10<em>E</em>,14<em>E</em>,18<em>E</em>)-;2,6,10,14,18,22-Tetracosahexaene, 2,6,10,15,19,23-hexamethyl-, (<em>all</em>-<em>E</em>)-;(6<em>E</em>,10<em>E</em>,14<em>E</em>,18<em>E</em>)-2,6,10,15,19,23-Hexamethyl-2,6,10,14,18,22-tetracosahexaene;Spinacene;<em>all</em>-<em>trans</em>-Squalene;<em>trans</em>-Squalene;Squalene;Spinacen;Squalen;(<em>E</em>,<em>E</em>,<em>E</em>,<em>E</em>)-Squalene;Nikko Squalane EX;Super Squalene;AddaVax;MeSH ID: D013185",
    "duplicated_cas_no": "94016-35-0",
    "SMILES": "C(C/C(=C/CC/C=C(/CC/C=C(/CCC=C(C)C)\\C)\\C)/C)/C=C(/CCC=C(C)C)\\C",
    "meta_data": {
        "InChI": "InChI=1S/C30H50/c1-25(2)15-11-19-29(7)23-13-21-27(5)17-9-10-18-28(6)22-14-24-30(8)20-12-16-26(3)4/h15-18,23-24H,9-14,19-22H2,1-8H3/b27-17+,28-18+,29-23+,30-24+",
        "InChIKey": null,
        "Canonical SMILES": "C(=C(C)C)CCC(=CCCC(=CCCC=C(C)CCC=C(C)CCC=C(C)C)C)C",
        "Molecular Formula": "C<sub>30</sub>H<sub>50</sub>",
        "Molecular Mass": "410.72",
        "Boiling Point": "284-285 °C @ Press: 25 Torr",
        "Melting Point": "&lt;-20 °C",
        "Density": "0.8596 g/cm³ @ Temp: 15 °C"
    }
}