{
    "cas_no": "1508-65-2",
    "key_name": "Oxybutynin hydrochloride",
    "cn_name": "盐酸奥昔布宁;4-(二乙基氨基)丁-2-炔环己基苯基羟基乙酸酯盐酸盐;",
    "alternate_name": "Benzeneacetic acid, α-cyclohexyl-α-hydroxy-, 4-(diethylamino)-2-butyn-1-yl ester, hydrochloride (1:1);Cyclohexaneglycolic acid, α-phenyl-, 4-(diethylamino)-2-butynyl ester, hydrochloride;Benzeneacetic acid, α-cyclohexyl-α-hydroxy-, 4-(diethylamino)-2-butynyl ester, hydrochloride;2-Butyn-1-ol, 4-(diethylamino)-, α-phenylcyclohexaneglycolate (ester), hydrochloride;MJ 4309-1;4-(Diethylamino)-2-butynyl α-phenylcyclohexaneglycolate hydrochloride;Oxybutynin hydrochloride;Oxybutynin chloride;MJ 50-58;Tropax;Cystrin;Dridase;Pollakisu;Gelnique;Neoxy Tape",
    "duplicated_cas_no": "99937-06-1",
    "SMILES": "C(C(OCC#CCN(CC)CC)=O)(O)(C1CCCCC1)C2=CC=CC=C2.Cl",
    "meta_data": {
        "InChI": "InChI=1S/C22H31NO3.ClH/c1-3-23(4-2)17-11-12-18-26-21(24)22(25,19-13-7-5-8-14-19)20-15-9-6-10-16-20;/h5,7-8,13-14,20,25H,3-4,6,9-10,15-18H2,1-2H3;1H",
        "InChIKey": null,
        "Canonical SMILES": "Cl.O=C(OCC#CCN(CC)CC)C(O)(C=1C=CC=CC1)C2CCCCC2",
        "Molecular Formula": "C<sub>22</sub>H<sub>31</sub>NO<sub>3</sub>.ClH",
        "Molecular Mass": "",
        "Melting Point": "129.5 °C"
    }
}