{
    "cas_no": "535-96-6",
    "key_name": "Marein",
    "cn_name": null,
    "alternate_name": "2-Propen-1-one, 3-(3,4-dihydroxyphenyl)-1-[4-(β-<span class=\"text-smallcaps\">D</span>-glucopyranosyloxy)-2,3-dihydroxyphenyl]-, (2<em>E</em>)-;2-Propen-1-one, 3-(3,4-dihydroxyphenyl)-1-[4-(β-<span class=\"text-smallcaps\">D</span>-glucopyranosyloxy)-2,3-dihydroxyphenyl]-, (<em>E</em>)-;Marein;Chalcone, 2′,3,3′,4,4′-pentahydroxy-, 4′-β-<span class=\"text-smallcaps\">D</span>-glucopyranoside;(2<em>E</em>)-3-(3,4-Dihydroxyphenyl)-1-[4-(β-<span class=\"text-smallcaps\">D</span>-glucopyranosyloxy)-2,3-dihydroxyphenyl]-2-propen-1-one;Glucopyranoside, okanin-4′, β-<span class=\"text-smallcaps\">D</span>-;Okanin 4′-<em>O</em>-β-<span class=\"text-smallcaps\">D</span>-Glucopyranoside",
    "duplicated_cas_no": "",
    "SMILES": "O([C@@H]1O[C@H](CO)[C@@H](O)[C@H](O)[C@H]1O)C2=C(O)C(O)=C(C(/C=C/C3=CC(O)=C(O)C=C3)=O)C=C2",
    "meta_data": {
        "InChI": "InChI=1S/C21H22O11/c22-8-15-18(28)19(29)20(30)21(32-15)31-14-6-3-10(16(26)17(14)27)11(23)4-1-9-2-5-12(24)13(25)7-9/h1-7,15,18-22,24-30H,8H2/b4-1+/t15-,18-,19+,20-,21-/m1/s1",
        "InChIKey": null,
        "Canonical SMILES": "O=C(C=CC1=CC=C(O)C(O)=C1)C2=CC=C(OC3OC(CO)C(O)C(O)C3O)C(O)=C2O",
        "Molecular Formula": "C<sub>21</sub>H<sub>22</sub>O<sub>11</sub>",
        "Molecular Mass": "450.39",
        "Melting Point": "130-132 °C"
    }
}