{
    "cas_no": "28024-69-3",
    "key_name": "α-Aminocyclobutaneacetic acid",
    "cn_name": null,
    "alternate_name": "Cyclobutaneacetic acid, α-amino-;Cyclobutaneacetic acid, α-amino-, (±)-;α-Aminocyclobutaneacetic acid;<span class=\"text-smallcaps\">DL</span>-α-Cyclobutylglycine;<span class=\"text-smallcaps\">DL</span>-Cyclobutaneglycine;α-Cyclobutylglycine;2-Amino-2-cyclobutylacetic acid",
    "duplicated_cas_no": "4426-01-1",
    "SMILES": "C(C(O)=O)(N)C1CCC1",
    "meta_data": {
        "InChI": "InChI=1S/C6H11NO2/c7-5(6(8)9)4-2-1-3-4/h4-5H,1-3,7H2,(H,8,9)",
        "InChIKey": null,
        "Canonical SMILES": "O=C(O)C(N)C1CCC1",
        "Molecular Formula": "C<sub>6</sub>H<sub>11</sub>NO<sub>2</sub>",
        "Molecular Mass": "129.16",
        "Melting Point": "240 °C (decomp)"
    }
}