{
    "cas_no": "1615-14-1",
    "key_name": "Imidazole-1-ethanol",
    "cn_name": "1-(2-羟乙基)咪唑;",
    "alternate_name": "1<em>H</em>-Imidazole-1-ethanol;Imidazole-1-ethanol;1-(β-Hydroxyethyl)imidazole;1-(2-Hydroxyethyl)imidazole;2-(1′-Imidazolyl)ethanol;2-(Imidazol-1-yl)ethanol;<em>N</em>-(2-Hydroxyethyl)imidazole;<em>N</em>-(2-Hydroxyethyl)-1<em>H</em>-imidazole;1-(2′-Hydroxyethyl)imidazole;2-(1<em>H</em>-Imidazol-1-yl)ethanol;1-(2-Hydroxyethyl)-1<em>H</em>-imidazole;2-(1<em>H</em>-Imidazol-1-yl)ethan-1-ol",
    "duplicated_cas_no": "25497-45-4",
    "SMILES": "C(CO)N1C=CN=C1",
    "meta_data": {
        "InChI": "InChI=1S/C5H8N2O/c8-4-3-7-2-1-6-5-7/h1-2,5,8H,3-4H2",
        "InChIKey": null,
        "Canonical SMILES": "OCCN1C=NC=C1",
        "Molecular Formula": "C<sub>5</sub>H<sub>8</sub>N<sub>2</sub>O",
        "Molecular Mass": "112.13",
        "Boiling Point": "202-206 °C @ Press: 20 Torr",
        "Melting Point": "39 °C"
    }
}