{
    "cas_no": "563-58-6",
    "key_name": "1,1-Dichloropropene",
    "cn_name": "1,1-二氯丙烯;",
    "alternate_name": "1-Propene, 1,1-dichloro-;Propene, 1,1-dichloro-;1,1-Dichloropropene;1,1-Dichloropropylene;1,1-Dichloro-1-propene;NSC 6201;1,1-Dichloro-1-propylene",
    "duplicated_cas_no": "",
    "SMILES": "C(=CC)(Cl)Cl",
    "meta_data": {
        "InChI": "InChI=1S/C3H4Cl2/c1-2-3(4)5/h2H,1H3",
        "InChIKey": null,
        "Canonical SMILES": "ClC(Cl)=CC",
        "Molecular Formula": "C<sub>3</sub>H<sub>4</sub>Cl<sub>2</sub>",
        "Molecular Mass": "110.97",
        "Boiling Point": "76.5 °C",
        "Density": "1.1675 g/cm³ @ Temp: 25 °C"
    }
}