{
    "cas_no": "3987-53-9",
    "key_name": "<em>N</em>-(Carboxymethyl)-<em>N</em>-(phenylmethyl)glycine",
    "cn_name": "N,N-二(羧甲基)苄胺;N-羧甲基-N-苄基甘氨酸;",
    "alternate_name": "Glycine, <em>N</em>-(carboxymethyl)-<em>N</em>-(phenylmethyl)-;Acetic acid, (benzylimino)di-;<em>N</em>-(Carboxymethyl)-<em>N</em>-(phenylmethyl)glycine;<em>N</em>-Benzyliminodiacetic acid;Benzyliminodiacetic acid;Benzylbis(carboxymethyl)amine;NSC 1003;Imidodicarbonic acid, 2-(phenylmethyl)-;(Benzyl-carboxymethyl-amino)-acetic acid;2-[Benzyl(carboxymethyl)amino]acetic acid",
    "duplicated_cas_no": "1448903-01-2",
    "SMILES": "N(CC1=CC=CC=C1)(CC(O)=O)CC(O)=O",
    "meta_data": {
        "InChI": "InChI=1S/C11H13NO4/c13-10(14)7-12(8-11(15)16)6-9-4-2-1-3-5-9/h1-5H,6-8H2,(H,13,14)(H,15,16)",
        "InChIKey": null,
        "Canonical SMILES": "O=C(O)CN(CC(=O)O)CC=1C=CC=CC1",
        "Molecular Formula": "C<sub>11</sub>H<sub>13</sub>NO<sub>4</sub>",
        "Molecular Mass": "223.23",
        "Melting Point": "198 °C (decomp)"
    }
}