{
    "cas_no": "621-34-1",
    "key_name": "3-Ethoxyphenol",
    "cn_name": "3-乙氧基苯酚;3-羟基苯乙醚;间羟基苯乙醚;间苯二酚单乙醚;",
    "alternate_name": "Phenol, 3-ethoxy-;Phenol, <em>m</em>-ethoxy-;3-Ethoxyphenol;Resorcinol monoethyl ether;<em>m</em>-Ethoxyphenol;NSC 4875",
    "duplicated_cas_no": "",
    "SMILES": "O(CC)C1=CC(O)=CC=C1",
    "meta_data": {
        "InChI": "InChI=1S/C8H10O2/c1-2-10-8-5-3-4-7(9)6-8/h3-6,9H,2H2,1H3",
        "InChIKey": null,
        "Canonical SMILES": "OC1=CC=CC(OCC)=C1",
        "Molecular Formula": "C<sub>8</sub>H<sub>10</sub>O<sub>2</sub>",
        "Molecular Mass": "138.16",
        "Boiling Point": "132-138 °C @ Press: 11 Torr"
    }
}