{
    "cas_no": "434-45-7",
    "key_name": "2,2,2-Trifluoro-1-phenylethanone",
    "cn_name": "2,2,2-三氟苯乙酮;",
    "alternate_name": "Ethanone, 2,2,2-trifluoro-1-phenyl-;Acetophenone, 2,2,2-trifluoro-;2,2,2-Trifluoro-1-phenylethanone;2,2,2-Trifluoroacetophenone;Phenyl trifluoromethyl ketone;Trifluoromethyl phenyl ketone;α,α,α-Trifluoroacetophenone;ω,ω,ω-Trifluoroacetophenone;2,2,2-Trifluoro-1-phenyl-1-ethanone;NSC 42752;(Trifluoroacetyl)benzene;1-Phenyl-2,2,2-trifluoro-ethanone;1-Phenyl-α,α,α-trifluoroethanone",
    "duplicated_cas_no": "",
    "SMILES": "C(C(F)(F)F)(=O)C1=CC=CC=C1",
    "meta_data": {
        "InChI": "InChI=1S/C8H5F3O/c9-8(10,11)7(12)6-4-2-1-3-5-6/h1-5H",
        "InChIKey": null,
        "Canonical SMILES": "O=C(C=1C=CC=CC1)C(F)(F)F",
        "Molecular Formula": "C<sub>8</sub>H<sub>5</sub>F<sub>3</sub>O",
        "Molecular Mass": "174.12",
        "Boiling Point": "153 °C",
        "Melting Point": "-40 °C",
        "Density": "1.279 g/cm³ @ Temp: 20 °C"
    }
}