{
    "cas_no": "712-30-1",
    "key_name": "6-Formylpterin",
    "cn_name": null,
    "alternate_name": "6-Pteridinecarboxaldehyde, 2-amino-3,4-dihydro-4-oxo-;6-Pteridinecarboxaldehyde, 2-amino-4-hydroxy-;6-Pteridinecarboxaldehyde, 2-amino-1,4-dihydro-4-oxo-;2-Amino-3,4-dihydro-4-oxo-6-pteridinecarboxaldehyde;2-Amino-4-hydroxypteridine-6-carboxaldehyde;2-Amino-4-hydroxy-6-formylpteridine;2-Amino-4-hydroxy-6-pteridylcarboxaldehyde;2-Amino-6-formylpteridin-4-one;6-Formylpterin;2-Amino-4-oxo-3,4-dihydropteridine-6-carbaldehyde;2-Amino-4-oxo-1,4-dihydropteridine-6-carbaldehyde;2-Amino-4-oxo-1<em>H</em>-pteridine-6-carbaldehyde;2-Amino-4-hydroxypteridine-6-carbaldehyde",
    "duplicated_cas_no": "23663-21-0",
    "SMILES": "O=C1C=2C(=NC(N)=N1)NC=C(C=O)N2",
    "meta_data": {
        "InChI": "InChI=1S/C7H5N5O2/c8-7-11-5-4(6(14)12-7)10-3(2-13)1-9-5/h1-2H,(H3,8,9,11,12,14)",
        "InChIKey": null,
        "Canonical SMILES": "O=CC=1N=C2C(=O)N=C(N=C2NC1)N",
        "Molecular Formula": "C<sub>7</sub>H<sub>5</sub>N<sub>5</sub>O<sub>2</sub>",
        "Molecular Mass": "191.15",
        "Melting Point": "280 °C (decomp)"
    }
}