{
    "cas_no": "36734-19-7",
    "key_name": "Iprodione",
    "cn_name": "异菌脲;3-(3,5-二氯苯基)-1-异丙基氨基甲酰基乙内酰脲;",
    "alternate_name": "1-Imidazolidinecarboxamide, 3-(3,5-dichlorophenyl)-<em>N</em>-(1-methylethyl)-2,4-dioxo-;3-(3,5-Dichlorophenyl)-<em>N</em>-(1-methylethyl)-2,4-dioxo-1-imidazolidinecarboxamide;RP 26019;Rovral;Glycophen;LFA 2043;Glycophene;Promidione;Iprodione;Chipco 26019;Iprodial;Rovral Flo;Verisan;Rovral 50WP;Rovral PM;Quintalic;Rovral Green GT;Xiuan;Kidan;Iprodin;Rovral 500 Aqua;Rovral Flo 255SC;Rovral Aquaflo;Civet;Junheling;Yijunniao;Botrix",
    "duplicated_cas_no": "61840-50-4",
    "SMILES": "O=C1N(C2=CC(Cl)=CC(Cl)=C2)C(=O)CN1C(NC(C)C)=O",
    "meta_data": {
        "InChI": "InChI=1S/C13H13Cl2N3O3/c1-7(2)16-12(20)17-6-11(19)18(13(17)21)10-4-8(14)3-9(15)5-10/h3-5,7H,6H2,1-2H3,(H,16,20)",
        "InChIKey": null,
        "Canonical SMILES": "O=C(NC(C)C)N1C(=O)N(C(=O)C1)C=2C=C(Cl)C=C(Cl)C2",
        "Molecular Formula": "C<sub>13</sub>H<sub>13</sub>Cl<sub>2</sub>N<sub>3</sub>O<sub>3</sub>",
        "Molecular Mass": "330.17",
        "Melting Point": "~136 °C (approx)"
    }
}