{
    "cas_no": "1875-48-5",
    "key_name": "<em>N</em>-Aminophthalimide",
    "cn_name": "N-氨基邻苯二甲酰亚胺;",
    "alternate_name": "1<em>H</em>-Isoindole-1,3(2<em>H</em>)-dione, 2-amino-;Phthalimide, <em>N</em>-amino-;2-Amino-1<em>H</em>-isoindole-1,3(2<em>H</em>)-dione;1,1-Phthaloylhydrazine;Phthalhydrazide;Phthalic acid, cyclic hydrazide;Hydrazine, 1,1-(1,2-phenylenedicarbonyl)-;<em>N</em>-Aminophthalimide;Phthalocyclohydrazide;NSC 407982;NSC 91685;2-Aminoisoindole-1,3-dione;2-Aminoisoindoline-1,3-dione;2-Amino-2,3-dihydro-1<em>H</em>-isoindole-1,3-dione",
    "duplicated_cas_no": "",
    "SMILES": "O=C1C=2C(C(=O)N1N)=CC=CC2",
    "meta_data": {
        "InChI": "InChI=1S/C8H6N2O2/c9-10-7(11)5-3-1-2-4-6(5)8(10)12/h1-4H,9H2",
        "InChIKey": null,
        "Canonical SMILES": "O=C1C=2C=CC=CC2C(=O)N1N",
        "Molecular Formula": "C<sub>8</sub>H<sub>6</sub>N<sub>2</sub>O<sub>2</sub>",
        "Molecular Mass": "162.15",
        "Melting Point": "200-205 °C"
    }
}