{
    "cas_no": "590-46-5",
    "key_name": "Betaine chloride",
    "cn_name": "盐酸甜菜碱;甜菜碱盐酸盐;甘氨酸三甲胺内盐;",
    "alternate_name": "Methanaminium, 1-carboxy-<em>N</em>,<em>N</em>,<em>N</em>-trimethyl-, chloride (1:1);Betaine, hydrochloride;Methanaminium, 1-carboxy-<em>N</em>,<em>N</em>,<em>N</em>-trimethyl-, chloride;Pluchine;Acidine;Acidol;Acidol hydrochloride;Betaine chloride;Acidin;Glycocoll betaine hydrochloride;Achylin;Acidogeno;Acinorm;Acipepsol;Aciventral forte;(Carboxymethyl)trimethylammonium chloride;Glycine betaine hydrochloride;Rubrine C hydrochloride;1-Carboxy-<em>N</em>,<em>N</em>,<em>N</em>-trimethylmethanaminium chloride;Trimethylglycine hydrochloride;Trimethylglycine hydrochloride salt",
    "duplicated_cas_no": "125883-10-5;141-58-2;11042-13-0;67332-80-3;771476-78-9",
    "SMILES": "C([N+](C)(C)C)C(O)=O.[Cl-]",
    "meta_data": {
        "InChI": "InChI=1S/C5H11NO2.ClH/c1-6(2,3)4-5(7)8;/h4H2,1-3H3;1H",
        "InChIKey": null,
        "Canonical SMILES": "[Cl-].O=C(O)C[N+](C)(C)C",
        "Molecular Formula": "C<sub>5</sub>H<sub>12</sub>NO<sub>2</sub>.Cl",
        "Molecular Mass": "",
        "Melting Point": "241-242 °C"
    }
}