{
    "cas_no": "1888-57-9",
    "key_name": "2,5-Dimethyl-3-hexanone",
    "cn_name": null,
    "alternate_name": "3-Hexanone, 2,5-dimethyl-;2,5-Dimethyl-3-hexanone;Isobutyl isopropyl ketone;Isopropyl isobutyl ketone;NSC 940",
    "duplicated_cas_no": "",
    "SMILES": "C(CC(C)C)(C(C)C)=O",
    "meta_data": {
        "InChI": "InChI=1S/C8H16O/c1-6(2)5-8(9)7(3)4/h6-7H,5H2,1-4H3",
        "InChIKey": null,
        "Canonical SMILES": "O=C(CC(C)C)C(C)C",
        "Molecular Formula": "C<sub>8</sub>H<sub>16</sub>O",
        "Molecular Mass": "128.21",
        "Boiling Point": "147.5 °C",
        "Density": "0.81223 g/cm³ @ Temp: 20 °C"
    }
}