{
    "cas_no": "82769-76-4",
    "key_name": "(-)-3-Amino-3-phenylpropanol",
    "cn_name": "(S)-3-氨基-3-苯基丙醇;",
    "alternate_name": "Benzenepropanol, γ-amino-, (γ<em>S</em>)-;Benzenepropanol, γ-amino-, (<em>S</em>)-;(γ<em>S</em>)-γ-Aminobenzenepropanol;(<em>S</em>)-3-Amino-3-phenyl-1-propanol;(3<em>S</em>)-3-Amino-3-phenyl-1-propanol;(<em>S</em>)-3-Amino-3-phenylpropanol;(-)-3-Amino-3-phenylpropanol;(3S)-3-Amino-3-phenylpropan-1-ol",
    "duplicated_cas_no": "",
    "SMILES": "[C@@H](CCO)(N)C1=CC=CC=C1",
    "meta_data": {
        "InChI": "InChI=1S/C9H13NO/c10-9(6-7-11)8-4-2-1-3-5-8/h1-5,9,11H,6-7,10H2/t9-/m0/s1",
        "InChIKey": null,
        "Canonical SMILES": "OCCC(N)C=1C=CC=CC1",
        "Molecular Formula": "C<sub>9</sub>H<sub>13</sub>NO",
        "Molecular Mass": "151.21",
        "Boiling Point": "90-100 °C @ Press: 0.13 Torr",
        "Melting Point": "68-69 °C"
    }
}