{
    "cas_no": "1132-39-4",
    "key_name": "1,1′-Selenobis[benzene]",
    "cn_name": "二苯硒醚;",
    "alternate_name": "Benzene, 1,1′-selenobis-;Phenyl selenide;1,1′-Selenobis[benzene];Diphenyl selenide;Diphenylselenium;NSC 49758;Diphenylselane",
    "duplicated_cas_no": "",
    "SMILES": "[Se](C1=CC=CC=C1)C2=CC=CC=C2",
    "meta_data": {
        "InChI": "InChI=1S/C12H10Se/c1-3-7-11(8-4-1)13-12-9-5-2-6-10-12/h1-10H",
        "InChIKey": null,
        "Canonical SMILES": "[Se](C=1C=CC=CC1)C=2C=CC=CC2",
        "Molecular Formula": "C<sub>12</sub>H<sub>10</sub>Se",
        "Molecular Mass": "233.17",
        "Boiling Point": "301.5 °C",
        "Melting Point": "2.5 °C",
        "Density": "1.3515 g/cm³ @ Temp: 20 °C"
    }
}