{
    "cas_no": "109-96-6",
    "key_name": "3-Pyrroline",
    "cn_name": "3-吡咯啉;2,5-二氢吡咯;",
    "alternate_name": "1<em>H</em>-Pyrrole, 2,5-dihydro-;3-Pyrroline;2,5-Dihydro-1<em>H</em>-pyrrole;2,5-Dihydropyrrole;Δ<sup>3</sup>-Pyrroline;3-Pyrolline;NSC 89295",
    "duplicated_cas_no": "856097-65-9",
    "SMILES": "C1=CCNC1",
    "meta_data": {
        "InChI": "InChI=1S/C4H7N/c1-2-4-5-3-1/h1-2,5H,3-4H2",
        "InChIKey": null,
        "Canonical SMILES": "C1=CCNC1",
        "Molecular Formula": "C<sub>4</sub>H<sub>7</sub>N",
        "Molecular Mass": "69.11",
        "Boiling Point": "90.5 °C"
    }
}