{
    "cas_no": "3567-00-8",
    "key_name": "Rubrofusarin",
    "cn_name": null,
    "alternate_name": "4<em>H</em>-Naphtho[2,3-<em>b</em>]pyran-4-one, 5,6-dihydroxy-8-methoxy-2-methyl-;Rubrofusarin;5,6-Dihydroxy-8-methoxy-2-methyl-4<em>H</em>-naphtho[2,3-<em>b</em>]pyran-4-one;NSC 258316",
    "duplicated_cas_no": "1402-22-8",
    "SMILES": "OC=1C2=C(C=C3C1C(=O)C=C(C)O3)C=C(OC)C=C2O",
    "meta_data": {
        "InChI": "InChI=1S/C15H12O5/c1-7-3-10(16)14-12(20-7)5-8-4-9(19-2)6-11(17)13(8)15(14)18/h3-6,17-18H,1-2H3",
        "InChIKey": null,
        "Canonical SMILES": "O=C1C=C(OC2=CC3=CC(OC)=CC(O)=C3C(O)=C12)C",
        "Molecular Formula": "C<sub>15</sub>H<sub>12</sub>O<sub>5</sub>",
        "Molecular Mass": "272.25",
        "Melting Point": "210-211 °C"
    }
}