{
    "cas_no": "7803-63-6",
    "key_name": "Ammonium bisulfate",
    "cn_name": null,
    "alternate_name": "Sulfuric acid, ammonium salt (1:1);Sulfuric acid, monoammonium salt;Ammonium sulfate ((NH<sub>4</sub>)HSO<sub>4</sub>);Acid ammonium sulfate;Ammonium acid sulfate;Ammonium bisulfate;Ammonium hydrogen sulfate;Monoammonium sulfate;Monoammonium hydrogen sulfate;Ammonium hydrogen sulfate (NH<sub>4</sub>HSO<sub>4</sub>);Ammonium monohydrogen sulfate",
    "duplicated_cas_no": "2724179-28-4",
    "SMILES": "S(=O)(=O)(O)O.N",
    "meta_data": {
        "InChI": "InChI=1S/H3N.H2O4S/c;1-5(2,3)4/h1H3;(H2,1,2,3,4)",
        "InChIKey": null,
        "Canonical SMILES": "O=S(=O)(O)O.N",
        "Molecular Formula": "H<sub>3</sub>N.H<sub>2</sub>O<sub>4</sub>S",
        "Molecular Mass": "",
        "Boiling Point": "358.8 °C",
        "Melting Point": "211 °C (decomp)",
        "Density": "1.78 g/cm³ @ Temp: 154 °C"
    }
}