{
    "cas_no": "35812-01-2",
    "key_name": "<em>N</em>-Bromosaccharin",
    "cn_name": "N-溴邻磺酰苯酰亚胺;N-溴糖精;N-溴沙卡林;",
    "alternate_name": "1,2-Benzisothiazol-3(2<em>H</em>)-one, 2-bromo-, 1,1-dioxide;Benzisothiazolin-3-one, 2-bromo-, 1,1-dioxide;<em>N</em>-Bromosaccharin;2-Bromo-1,1-dioxo-1,2-benzothiazol-3-one;2-Bromo-2,3-dihydro-1λ6,2-benzothiazole-1,1,3-trione;2-Bromobenzo[<em>d</em>]isothiazol-3(2<em>H</em>)-one 1,1-dioxide",
    "duplicated_cas_no": "",
    "SMILES": "O=C1C=2C(S(=O)(=O)N1Br)=CC=CC2",
    "meta_data": {
        "InChI": "InChI=1S/C7H4BrNO3S/c8-9-7(10)5-3-1-2-4-6(5)13(9,11)12/h1-4H",
        "InChIKey": null,
        "Canonical SMILES": "O=C1C=2C=CC=CC2S(=O)(=O)N1Br",
        "Molecular Formula": "C<sub>7</sub>H<sub>4</sub>BrNO<sub>3</sub>S",
        "Molecular Mass": "262.08",
        "Melting Point": "171-173 °C"
    }
}