{
    "cas_no": "402-40-4",
    "key_name": "BW 284C51",
    "cn_name": null,
    "alternate_name": "Benzenaminium, 4,4′-(3-oxo-1,5-pentanediyl)bis[<em>N</em>,<em>N</em>-dimethyl-<em>N</em>-2-propen-1-yl-, bromide (1:2);Ammonium, [(3-oxopentamethylene)di-<em>p</em>-phenylene]bis[allyldimethyl-, dibromide;Benzenaminium, 4,4′-(3-oxo-1,5-pentanediyl)bis[<em>N</em>,<em>N</em>-dimethyl-<em>N</em>-2-propenyl-, dibromide;[(3-Oxopentamethylene)di-<em>p</em>-phenylene]bis[allyldimethylammonium bromide];1,5-Bis(<em>p</em>-<em>N</em>-allylmethylaminophenyl)-pentan-3-one dimethylbromide;1,5-Bis[4-(allyldimethylammonium)phenyl]pentan-3-one dibromide;BW 284;BW 284C51",
    "duplicated_cas_no": "",
    "SMILES": "[N+](CC=C)(C)(C)C1=CC=C(CCC(CCC2=CC=C([N+](CC=C)(C)C)C=C2)=O)C=C1.[Br-]",
    "meta_data": {
        "InChI": "InChI=1S/C27H38N2O.2BrH/c1-7-21-28(3,4)25-15-9-23(10-16-25)13-19-27(30)20-14-24-11-17-26(18-12-24)29(5,6)22-8-2;;/h7-12,15-18H,1-2,13-14,19-22H2,3-6H3;2*1H/q+2;;/p-2",
        "InChIKey": null,
        "Canonical SMILES": "[Br-].O=C(CCC1=CC=C(C=C1)[N+](C)(C)CC=C)CCC2=CC=C(C=C2)[N+](C)(C)CC=C",
        "Molecular Formula": "C<sub>27</sub>H<sub>38</sub>N<sub>2</sub>O.2Br",
        "Molecular Mass": "",
        "Melting Point": "203-205 °C"
    }
}