{
    "cas_no": "5051-22-9",
    "key_name": "(+)-Propranolol",
    "cn_name": null,
    "alternate_name": "2-Propanol, 1-[(1-methylethyl)amino]-3-(1-naphthalenyloxy)-, (2<em>R</em>)-;2-Propanol, 1-(isopropylamino)-3-(1-naphthyloxy)-, (+)-;2-Propanol, 1-[(1-methylethyl)amino]-3-(1-naphthalenyloxy)-, (<em>R</em>)-;(2<em>R</em>)-1-[(1-Methylethyl)amino]-3-(1-naphthalenyloxy)-2-propanol;(+)-Propranolol;<em>d</em>-Propranolol;Dexpropranolol;Dextropropranolol;(<em>R</em>)-Propranolol;(2<em>R</em>)-Propranolol;(+)-(<em>R</em>)-Propranolol;(<em>R</em>)-(+)-Propranolol",
    "duplicated_cas_no": "",
    "SMILES": "O(C[C@@H](CNC(C)C)O)C=1C2=C(C=CC1)C=CC=C2",
    "meta_data": {
        "InChI": "InChI=1S/C16H21NO2/c1-12(2)17-10-14(18)11-19-16-9-5-7-13-6-3-4-8-15(13)16/h3-9,12,14,17-18H,10-11H2,1-2H3/t14-/m1/s1",
        "InChIKey": null,
        "Canonical SMILES": "OC(COC1=CC=CC=2C=CC=CC12)CNC(C)C",
        "Molecular Formula": "C<sub>16</sub>H<sub>21</sub>NO<sub>2</sub>",
        "Molecular Mass": "259.34",
        "Melting Point": "96 °C"
    }
}