{
    "cas_no": "24731-17-7",
    "key_name": "Cyclohexaneacetic acid, 2-oxo-, ethyl ester",
    "cn_name": "2-环己酮乙酸乙酯;",
    "alternate_name": "Cyclohexaneacetic acid, 2-oxo-, ethyl ester;Ethyl 2-oxocyclohexaneacetate;Ethyl 2-oxocyclohexylacetate;Ethyl 2-cyclohexanoneacetate;Ethyl 2-cyclohexenoneacetate;Ethyl (±)-2-oxocyclohexane-1-acetate;NSC 62116;Ethyl 2-(2-oxocyclohexyl)acetate;(2-Oxocyclohexyl)acetic acid ethyl ester",
    "duplicated_cas_no": "116780-61-1",
    "SMILES": "C(C(OCC)=O)C1C(=O)CCCC1",
    "meta_data": {
        "InChI": "InChI=1S/C10H16O3/c1-2-13-10(12)7-8-5-3-4-6-9(8)11/h8H,2-7H2,1H3",
        "InChIKey": null,
        "Canonical SMILES": "O=C(OCC)CC1C(=O)CCCC1",
        "Molecular Formula": "C<sub>10</sub>H<sub>16</sub>O<sub>3</sub>",
        "Molecular Mass": "184.23",
        "Boiling Point": "131-133 °C @ Press: 9.8 Torr"
    }
}