{
    "cas_no": "23828-92-4",
    "key_name": "Ambroxol hydrochloride",
    "cn_name": "盐酸氨溴索;反-4-[(2-氨基-3,5-二溴苄基)氨基]-环己醇盐酸盐;",
    "alternate_name": "Cyclohexanol, 4-[[(2-amino-3,5-dibromophenyl)methyl]amino]-, hydrochloride (1:1), <em>trans</em>-;Cyclohexanol, 4-[(2-amino-3,5-dibromobenzyl)amino]-, hydrochloride, <em>trans</em>-;Cyclohexanol, 4-[[(2-amino-3,5-dibromophenyl)methyl]amino]-, monohydrochloride, <em>trans</em>-;<em>trans</em>-4-[(2-Amino-3,5-dibromobenzyl)amino]cyclohexanol hydrochloride;<em>N</em>-(<em>trans</em>-4-Hydroxycyclohexyl)-2-amino-3,5-dibromobenzylamine hydrochloride;Ambroxol hydrochloride;Mucolear;Mucosolvan;Surbronc;Mucolin;Ambril;Lindoxyl;Muco-Burg;Mucovent;Stas-Hustenloser;Mucofar;Abramen;Solvolan;Mucasan;Surfactal;Fluibron;Motosol;Pect;Frenopect;Duramucal;Mucoclear;Fluixol;Bronchopront;Coughnol;Ambron;Ambrodil;Mucolite;Mucosal;Ambrolite;Ambroterol",
    "duplicated_cas_no": "108728-04-7;15942-05-9",
    "SMILES": "C(N[C@H]1CC[C@H](O)CC1)C2=C(N)C(Br)=CC(Br)=C2.Cl",
    "meta_data": {
        "InChI": "InChI=1/C13H18Br2N2O.ClH/c14-9-5-8(13(16)12(15)6-9)7-17-10-1-3-11(18)4-2-10;/h5-6,10-11,17-18H,1-4,7,16H2;1H/t10-,11-;",
        "InChIKey": null,
        "Canonical SMILES": "Cl.BrC=1C=C(Br)C(N)=C(C1)CNC2CCC(O)CC2",
        "Molecular Formula": "C<sub>13</sub>H<sub>18</sub>Br<sub>2</sub>N<sub>2</sub>O.ClH",
        "Molecular Mass": "",
        "Melting Point": "233-234.5 °C (decomp)",
        "Density": "1.0065 g/cm³"
    }
}