{
    "cas_no": "3383-96-8",
    "key_name": "Temephos",
    "cn_name": "双硫磷;4,4\"-双(O,O-二甲基硫代磷酰氧基)苯硫醚;",
    "alternate_name": "Phosphorothioic acid, <em>O</em><sup>p</sup>,<em>O</em><sup>p′</sup>-(thiodi-4,1-phenylene) <em>O</em><sup>p</sup>,<em>O</em><sup>p</sup>,<em>O</em><sup>p′</sup>,<em>O</em><sup>p′</sup>-tetramethyl ester;Phosphorothioic acid, <em>O</em>,<em>O</em>′-(thiodi-<em>p</em>-phenylene) <em>O</em>,<em>O</em>,<em>O</em>′,<em>O</em>′-tetramethyl ester;Phosphorothioic acid, <em>O</em>,<em>O</em>′-(thiodi-4,1-phenylene) <em>O</em>,<em>O</em>,<em>O</em>′,<em>O</em>′-tetramethyl ester;Phosphorothioic acid, <em>O</em>,<em>O</em>-dimethyl ester, <em>O</em>,<em>O</em>-diester with 4,4′-thiodiphenol;EI 52160;Experimental Insecticide 52,160;Abate;Biothion;AC 52160;<em>O</em>,<em>O</em>,<em>O</em>′,<em>O</em>′-Tetramethyl <em>O</em>,<em>O</em>′-thiodi-<em>p</em>-phenylene phosphorothioate;Diphos (pesticide);Temephos;Difos;Difenphos;Diphos;Nephis;Temefos;Nephis 1G;Abathion;Ecopro 1707;Procida;Biothon;ENT 27165;Lavifos;Mosq;Azai-SS;Abate 4E;Mosquit TB 10;Mosquit TB 100;Temecal;<em>O</em>,<em>O</em>,<em>O</em>′,<em>O</em>′-Tetramethyl-<em>O</em>,<em>O</em>′-sulfanediylbis(1,4-phenylene)diphosphorothioate",
    "duplicated_cas_no": "53320-58-4",
    "SMILES": "P(OC1=CC=C(SC2=CC=C(OP(OC)(OC)=S)C=C2)C=C1)(OC)(OC)=S",
    "meta_data": {
        "InChI": "InChI=1S/C16H20O6P2S3/c1-17-23(25,18-2)21-13-5-9-15(10-6-13)27-16-11-7-14(8-12-16)22-24(26,19-3)20-4/h5-12H,1-4H3",
        "InChIKey": null,
        "Canonical SMILES": "S=P(OC1=CC=C(SC2=CC=C(OP(=S)(OC)OC)C=C2)C=C1)(OC)OC",
        "Molecular Formula": "C<sub>16</sub>H<sub>20</sub>O<sub>6</sub>P<sub>2</sub>S<sub>3</sub>",
        "Molecular Mass": "466.47",
        "Melting Point": "30.5 °C"
    }
}