{
    "cas_no": "98546-51-1",
    "key_name": "4-(Methylthio)phenylboronic acid",
    "cn_name": null,
    "alternate_name": "Boronic acid, <em>B</em>-[4-(methylthio)phenyl]-;Benzeneboronic acid, <em>p</em>-(methylthio)-;Boronic acid, [4-(methylthio)phenyl]-;<em>B</em>-[4-(Methylthio)phenyl]boronic acid;<em>p</em>-(Methylthio)phenylboronic acid;4-(Methylthio)phenylboronic acid;4-(Methylthio)benzeneboronic acid;4-(Methylsulfanyl)phenylboronic acid;4-(Methylsulfanyl)benzeneboronic acid;<em>p</em>-Methylthiobenzylboronic acid",
    "duplicated_cas_no": "",
    "SMILES": "B(O)(O)C1=CC=C(SC)C=C1",
    "meta_data": {
        "InChI": "InChI=1S/C7H9BO2S/c1-11-7-4-2-6(3-5-7)8(9)10/h2-5,9-10H,1H3",
        "InChIKey": null,
        "Canonical SMILES": "OB(O)C1=CC=C(SC)C=C1",
        "Molecular Formula": "C<sub>7</sub>H<sub>9</sub>BO<sub>2</sub>S",
        "Molecular Mass": "168.02",
        "Melting Point": "209-209.5 °C"
    }
}