{
    "cas_no": "608-73-1",
    "key_name": "Cyclohexane, 1,2,3,4,5,6-hexachloro-",
    "cn_name": null,
    "alternate_name": "Cyclohexane, 1,2,3,4,5,6-hexachloro-;1,2,3,4,5,6-Hexachlorocyclohexane;HCH;BHC;NSC 11807;NSC 7909;NSC 8093",
    "duplicated_cas_no": "39284-22-5",
    "SMILES": "ClC1C(Cl)C(Cl)C(Cl)C(Cl)C1Cl",
    "meta_data": {
        "InChI": "InChI=1S/C6H6Cl6/c7-1-2(8)4(10)6(12)5(11)3(1)9/h1-6H",
        "InChIKey": null,
        "Canonical SMILES": "ClC1C(Cl)C(Cl)C(Cl)C(Cl)C1Cl",
        "Molecular Formula": "C<sub>6</sub>H<sub>6</sub>Cl<sub>6</sub>",
        "Molecular Mass": "290.83",
        "Melting Point": "112.5 °C",
        "Density": "1.87 g/cm³"
    }
}