{
    "cas_no": "1067-52-3",
    "key_name": "Tributylmethoxystannane",
    "cn_name": null,
    "alternate_name": "Stannane, tributylmethoxy-;Tin, tributylmethoxy-;Tributylmethoxystannane;Tributyltin methanolate;Tributylmethoxytin;Tributyltin methoxide;Methoxytributyltin;Methoxytributylstannane;NSC 202857",
    "duplicated_cas_no": "",
    "SMILES": "[Sn](CCCC)(CCCC)(CCCC)OC",
    "meta_data": {
        "InChI": "InChI=1S/3C4H9.CH3O.Sn/c3*1-3-4-2;1-2;/h3*1,3-4H2,2H3;1H3;/q;;;-1;+1",
        "InChIKey": null,
        "Canonical SMILES": "O(C)[Sn](CCCC)(CCCC)CCCC",
        "Molecular Formula": "C<sub>13</sub>H<sub>30</sub>OSn",
        "Molecular Mass": "321.09",
        "Boiling Point": "117 °C @ Press: 2 Torr",
        "Melting Point": "95-97 °C",
        "Density": "1.1294 g/cm³ @ Temp: 20 °C"
    }
}