{
    "cas_no": "41762-76-9",
    "key_name": "3-(Methylsulfonyl)-2-oxo-1-imidazolidinecarbonyl chloride",
    "cn_name": "1-氯甲酰基-3-甲磺酰基-2-咪唑烷酮;",
    "alternate_name": "1-Imidazolidinecarbonyl chloride, 3-(methylsulfonyl)-2-oxo-;3-(Methylsulfonyl)-2-oxo-1-imidazolidinecarbonyl chloride;1-(Chlorocarbonyl)-3-mesyl-2-oxoimidazolidine;3-Mesyl-2-oxo-1-imidazolidinecarbonyl chloride;3-(Methylsulfonyl)-2-oxoimidazolidine-1-carbonyl chloride;1-Chlorocarbonyl-3-methylsulfonylimidazolidin-2-one;3-(Methylsulfonyl)imidazolidin-2-one-1-carbonyl chloride;3-Chlorocarbonyl-1-methanesulfonyl-2-imidazolidinone;1-Chloroformyl-3-methanesulfonyl-2-imidazolidinone;3-Methanesulfonyl-2-oxoimidazolidine-1-carbonyl chloride",
    "duplicated_cas_no": "",
    "SMILES": "O=C1N(S(C)(=O)=O)CCN1C(Cl)=O",
    "meta_data": {
        "InChI": "InChI=1S/C5H7ClN2O4S/c1-13(11,12)8-3-2-7(4(6)9)5(8)10/h2-3H2,1H3",
        "InChIKey": null,
        "Canonical SMILES": "O=C(Cl)N1C(=O)N(CC1)S(=O)(=O)C",
        "Molecular Formula": "C<sub>5</sub>H<sub>7</sub>ClN<sub>2</sub>O<sub>4</sub>S",
        "Molecular Mass": "226.64",
        "Melting Point": "179-180 °C"
    }
}