{
    "cas_no": "118612-00-3",
    "key_name": "Dimethylanilinium tetrakis(pentafluorophenyl)borate",
    "cn_name": "N,N-二甲基苯铵四(五氟苯基)硼酸盐;",
    "alternate_name": "Borate(1-), tetrakis(pentafluorophenyl)-, hydrogen, compd. with <em>N</em>,<em>N</em>-dimethylbenzenamine (1:1:1);Benzene, pentafluoro-, boron complex;Benzenamine, <em>N</em>,<em>N</em>-dimethyl-, tetrakis(pentafluorophenyl)borate(1-);<em>N</em>,<em>N</em>-Dimethylanilinium tetrakis(pentafluorophenyl)borate;Dimethylanilinium tetrakis(pentafluorophenyl)borate;Dimethylphenylammonium tetrakis(pentafluorophenyl)borate;<em>N</em>,<em>N</em>-Dimethylanilinium tetrakis(perfluorophenyl)borate;BF 20;<em>N</em>,<em>N</em>-Dimethylphenylamine tetrakis(pentafluorophenyl)borate;Dimethylphenylammonium tetrakis(perfluorophenyl)borate;Dimethyl(phenyl)ammonium tetrakis(2,3,4,5,6-pentafluorophenyl)borate;Phenyldimethylammonium tetrakis(pentafluorophenyl)borate;<em>N</em>,<em>N</em>-Dimethylanilium tetrakis(pentafluorophenyl)borate;<em>N</em>,<em>N</em>-Dimethylanilinium (tetrapentafluorophenyl)borate;Dimethylphenylammonium tetrapentafluorophenylborate;<em>N</em>,<em>N</em>-Dimethylanilinium tetra(perfluorophenyl)borate;DMAH-BF 20;Borate(1-), tetrakis(2,3,4,5,6-pentafluorophenyl)-, hydrogen, compd. with <em>N</em>,<em>N</em>-dimethylbenzenamine (1:1:1)",
    "duplicated_cas_no": "151706-03-5;162744-64-1;166395-74-0;171745-68-9;195457-89-7;243987-12-4;2088641-79-4;2640076-23-7",
    "SMILES": "[B+3]([C-]=1C(F)=C(F)C(F)=C(F)C1F)([C-]=2C(F)=C(F)C(F)=C(F)C2F)([C-]=3C(F)=C(F)C(F)=C(F)C3F)[C-]=4C(F)=C(F)C(F)=C(F)C4F.[H+].N(C)(C)C1=CC=CC=C1",
    "meta_data": {
        "InChI": "InChI=1S/C24BF20.C8H11N/c26-5-1(6(27)14(35)21(42)13(5)34)25(2-7(28)15(36)22(43)16(37)8(2)29,3-9(30)17(38)23(44)18(39)10(3)31)4-11(32)19(40)24(45)20(41)12(4)33;1-9(2)8-6-4-3-5-7-8/h;3-7H,1-2H3/q-1;/p+1",
        "InChIKey": null,
        "Canonical SMILES": "[H+].FC=1C(F)=C(F)[C-](=C(F)C1F)[B+3]([C-]=2C(F)=C(F)C(F)=C(F)C2F)([C-]=3C(F)=C(F)C(F)=C(F)C3F)[C-]=4C(F)=C(F)C(F)=C(F)C4F.C=1C=CC(=CC1)N(C)C",
        "Molecular Formula": "C<sub>24</sub>BF<sub>20</sub>.C<sub>8</sub>H<sub>11</sub>N.H",
        "Molecular Mass": "",
        "Melting Point": "225-227 °C (decomp)"
    }
}