{
    "cas_no": "3600-24-6",
    "key_name": "Diethyl trisulfide",
    "cn_name": "二乙基三硫醚;二乙基三硫醚;",
    "alternate_name": "Trisulfide, diethyl;Ethyl trisulfide;Diethyl trisulfide;3,4,5-Trithiaheptane;Diethyl sulfide (C<sub>4</sub>H<sub>10</sub>S<sub>3</sub>);NSC 97329",
    "duplicated_cas_no": "",
    "SMILES": "S(SCC)SCC",
    "meta_data": {
        "InChI": "InChI=1S/C4H10S3/c1-3-5-7-6-4-2/h3-4H2,1-2H3",
        "InChIKey": null,
        "Canonical SMILES": "S(SCC)SCC",
        "Molecular Formula": "C<sub>4</sub>H<sub>10</sub>S<sub>3</sub>",
        "Molecular Mass": "154.32",
        "Boiling Point": "84-85 °C",
        "Melting Point": "-72.83 °C",
        "Density": "1.1082 g/cm³ @ Temp: 20 °C"
    }
}