{
    "cas_no": "7021-11-6",
    "key_name": "4-Hydroxybenzenebutanoic acid",
    "cn_name": "4-(4-羟基苯基)丁酸;",
    "alternate_name": "Benzenebutanoic acid, 4-hydroxy-;Butyric acid, 4-(<em>p</em>-hydroxyphenyl)-;4-Hydroxybenzenebutanoic acid;4-Carboxypropylphenol;NSC 131303",
    "duplicated_cas_no": "",
    "SMILES": "C(CCC(O)=O)C1=CC=C(O)C=C1",
    "meta_data": {
        "InChI": "InChI=1S/C10H12O3/c11-9-6-4-8(5-7-9)2-1-3-10(12)13/h4-7,11H,1-3H2,(H,12,13)",
        "InChIKey": null,
        "Canonical SMILES": "O=C(O)CCCC1=CC=C(O)C=C1",
        "Molecular Formula": "C<sub>10</sub>H<sub>12</sub>O<sub>3</sub>",
        "Molecular Mass": "180.20",
        "Boiling Point": "128-200 °C @ Press: 0.4 Torr",
        "Melting Point": "110-111 °C"
    }
}