{
    "cas_no": "88-09-5",
    "key_name": "2-Ethylbutanoic acid",
    "cn_name": "2-乙基丁酸;二乙基醋酸;",
    "alternate_name": "Butanoic acid, 2-ethyl-;Butyric acid, 2-ethyl-;Butyric acid, α-ethyl-;2-Ethylbutanoic acid;Acetic acid, diethyl-;Diethylacetic acid;α-Ethylbutyric acid;2-Ethylbutyric acid;3-Pentanecarboxylic acid;2-Ethyl-<em>n</em>-butyric acid;NSC 11765;NSC 8758",
    "duplicated_cas_no": "134331-89-8",
    "SMILES": "C(C(O)=O)(CC)CC",
    "meta_data": {
        "InChI": "InChI=1S/C6H12O2/c1-3-5(4-2)6(7)8/h5H,3-4H2,1-2H3,(H,7,8)",
        "InChIKey": null,
        "Canonical SMILES": "O=C(O)C(CC)CC",
        "Molecular Formula": "C<sub>6</sub>H<sub>12</sub>O<sub>2</sub>",
        "Molecular Mass": "116.16",
        "Boiling Point": "194 °C",
        "Melting Point": "-31.8 °C",
        "Density": "0.923 g/cm³ @ Temp: 26 °C"
    }
}