{
    "cas_no": "7116-96-3",
    "key_name": "4-Pentyl-1,1′-biphenyl",
    "cn_name": "对戊基联苯;4-正戊基联苯;4-戊基联苯;戊基联苯;",
    "alternate_name": "1,1′-Biphenyl, 4-pentyl-;Biphenyl, 4-pentyl-;4-Pentyl-1,1′-biphenyl;4-Pentylbiphenyl;<em>p</em>-Amylbiphenyl;1-Pentyl-4-phenylbenzene",
    "duplicated_cas_no": "",
    "SMILES": "C(CCCC)C1=CC=C(C=C1)C2=CC=CC=C2",
    "meta_data": {
        "InChI": "InChI=1S/C17H20/c1-2-3-5-8-15-11-13-17(14-12-15)16-9-6-4-7-10-16/h4,6-7,9-14H,2-3,5,8H2,1H3",
        "InChIKey": null,
        "Canonical SMILES": "C=1C=CC(=CC1)C=2C=CC(=CC2)CCCCC",
        "Molecular Formula": "C<sub>17</sub>H<sub>20</sub>",
        "Molecular Mass": "224.34",
        "Boiling Point": "142 °C @ Press: 3 Torr",
        "Melting Point": "9-10.5 °C"
    }
}