{
    "cas_no": "34846-44-1",
    "key_name": "3-(Bromomethyl)thiophene",
    "cn_name": "3-溴甲基噻吩;",
    "alternate_name": "Thiophene, 3-(bromomethyl)-;3-(Bromomethyl)thiophene;3-Thenyl bromide;3-Thienylmethyl bromide",
    "duplicated_cas_no": "",
    "SMILES": "C(Br)C=1C=CSC1",
    "meta_data": {
        "InChI": "InChI=1S/C5H5BrS/c6-3-5-1-2-7-4-5/h1-2,4H,3H2",
        "InChIKey": null,
        "Canonical SMILES": "BrCC1=CSC=C1",
        "Molecular Formula": "C<sub>5</sub>H<sub>5</sub>BrS",
        "Molecular Mass": "177.06",
        "Boiling Point": "75-78 °C @ Press: 1 Torr",
        "Melting Point": "-9 °C",
        "Density": "1.635 g/cm³ @ Temp: 20 °C"
    }
}