{
    "cas_no": "33956-49-9",
    "key_name": "Codlemone",
    "cn_name": "反式-8-反式-10-十二碳二烯-1-醇;反式-8-反式-10-十二碳二烯-1-醇;",
    "alternate_name": "8,10-Dodecadien-1-ol, (8<em>E</em>,10<em>E</em>)-;8,10-Dodecadien-1-ol, (<em>E</em>,<em>E</em>)-;(8<em>E</em>,10<em>E</em>)-8,10-Dodecadien-1-ol;<em>trans</em>-8,<em>trans</em>-10-Dodecadien-1-ol;Codlemone;8-<em>trans</em>,10-<em>trans</em>-Dodecadien-1-ol;Codlelure;(<em>E</em>,<em>E</em>)-8,10-Dodecadienol;Feroflon SR 2;Feroflor SR 2;(8<em>E</em>,10<em>E</em>)-Dodecadien-1-ol;CP-MK;(<em>E</em>,<em>E</em>)-8,10-Dodecadien-1-ol;(<em>E</em>,<em>E</em>)-8,10-Dodecadien-l-ol;<em>trans</em>-<em>trans</em>-8,10-Dodecadien-1-ol",
    "duplicated_cas_no": "76600-88-9",
    "SMILES": "C(C/C=C/C=C/C)CCCCCO",
    "meta_data": {
        "InChI": "InChI=1S/C12H22O/c1-2-3-4-5-6-7-8-9-10-11-12-13/h2-5,13H,6-12H2,1H3/b3-2+,5-4+",
        "InChIKey": null,
        "Canonical SMILES": "OCCCCCCCC=CC=CC",
        "Molecular Formula": "C<sub>12</sub>H<sub>22</sub>O",
        "Molecular Mass": "182.30",
        "Boiling Point": "115 °C",
        "Melting Point": "32 °C"
    }
}