{
    "cas_no": "162359-55-9",
    "key_name": "Fingolimod",
    "cn_name": null,
    "alternate_name": "1,3-Propanediol, 2-amino-2-[2-(4-octylphenyl)ethyl]-;2-Amino-2-[2-(4-octylphenyl)ethyl]-1,3-propanediol;Fingolimod;2-Amino-2-[2-(4-octylphenyl)ethyl]-1,3-propandiol;2-Amino-2-[2-(4-octylphenyl)ethyl]propane-1,3-diol",
    "duplicated_cas_no": "",
    "SMILES": "C(CC(CO)(CO)N)C1=CC=C(CCCCCCCC)C=C1",
    "meta_data": {
        "InChI": "InChI=1S/C19H33NO2/c1-2-3-4-5-6-7-8-17-9-11-18(12-10-17)13-14-19(20,15-21)16-22/h9-12,21-22H,2-8,13-16,20H2,1H3",
        "InChIKey": null,
        "Canonical SMILES": "OCC(N)(CO)CCC1=CC=C(C=C1)CCCCCCCC",
        "Molecular Formula": "C<sub>19</sub>H<sub>33</sub>NO<sub>2</sub>",
        "Molecular Mass": "307.47",
        "Melting Point": "121-124 °C"
    }
}