{
    "cas_no": "3964-52-1",
    "key_name": "4-Amino-2-chlorophenol",
    "cn_name": "2-氯-4-氨基苯酚;4-氨基-2-氯苯酚;",
    "alternate_name": "Phenol, 4-amino-2-chloro-;4-Amino-2-chlorophenol;2-Chloro-4-aminophenol;3-Chloro-4-hydroxyaniline;<em>m</em>-Chloro-<em>p</em>-hydroxyaniline;(3-Chloro-4-hydroxyphenyl)amine;2-Chloro-<em>p</em>-aminophenol",
    "duplicated_cas_no": "",
    "SMILES": "ClC1=C(O)C=CC(N)=C1",
    "meta_data": {
        "InChI": "InChI=1S/C6H6ClNO/c7-5-3-4(8)1-2-6(5)9/h1-3,9H,8H2",
        "InChIKey": null,
        "Canonical SMILES": "ClC1=CC(N)=CC=C1O",
        "Molecular Formula": "C<sub>6</sub>H<sub>6</sub>ClNO",
        "Molecular Mass": "143.57",
        "Melting Point": "162 °C"
    }
}