{
    "cas_no": "17229-14-0",
    "key_name": "Acetic acid, 2-(2-chloroethoxy)-, ethyl ester",
    "cn_name": "氯乙氧基乙酸乙酯;",
    "alternate_name": "Acetic acid, 2-(2-chloroethoxy)-, ethyl ester;Acetic acid, (2-chloroethoxy)-, ethyl ester;1-Chloro-2-(ethoxycarbonylmethoxy)ethane;Ethyl 2-chloroethoxyacetate;(2-Chloroethoxy)acetic acid ethyl ester",
    "duplicated_cas_no": "",
    "SMILES": "C(C(OCC)=O)OCCCl",
    "meta_data": {
        "InChI": "InChI=1S/C6H11ClO3/c1-2-10-6(8)5-9-4-3-7/h2-5H2,1H3",
        "InChIKey": null,
        "Canonical SMILES": "O=C(OCC)COCCCl",
        "Molecular Formula": "C<sub>6</sub>H<sub>11</sub>ClO<sub>3</sub>",
        "Molecular Mass": "166.60",
        "Boiling Point": "79-81 °C @ Press: 10 Torr"
    }
}