{
    "cas_no": "98-09-9",
    "key_name": "Benzenesulfonyl chloride",
    "cn_name": "苯磺酰氯;",
    "alternate_name": "Benzenesulfonyl chloride;Benzene sulfochloride;Benzenesulfonic chloride;Phenylsulfonyl chloride;NSC 2864;Benzene-1-sulfonyl chloride",
    "duplicated_cas_no": "114415-79-1",
    "SMILES": "S(Cl)(=O)(=O)C1=CC=CC=C1",
    "meta_data": {
        "InChI": "InChI=1S/C6H5ClO2S/c7-10(8,9)6-4-2-1-3-5-6/h1-5H",
        "InChIKey": null,
        "Canonical SMILES": "O=S(=O)(Cl)C=1C=CC=CC1",
        "Molecular Formula": "C<sub>6</sub>H<sub>5</sub>ClO<sub>2</sub>S",
        "Molecular Mass": "176.62",
        "Boiling Point": "120 °C @ Press: 10 Torr",
        "Melting Point": "14.5 °C",
        "Density": "1.3842 g/cm³ @ Temp: 15 °C"
    }
}