{
    "cas_no": "93-90-3",
    "key_name": "2-(Methylphenylamino)ethanol",
    "cn_name": "N-甲基-N-羟乙基苯胺;",
    "alternate_name": "Ethanol, 2-(methylphenylamino)-;Ethanol, 2-(<em>N</em>-methylanilino)-;2-(Methylphenylamino)ethanol;2-(<em>N</em>-Methylanilino)ethanol;<em>N</em>-Methyl-<em>N</em>-phenyl-2-aminoethanol;2-(<em>N</em>-Methyl-<em>N</em>-phenylamino)ethanol;<em>N</em>-Methyl-<em>N</em>-(2-hydroxyethyl)aniline;<em>N</em>-(2-Hydroxyethyl)-<em>N</em>-methylaniline;<em>N</em>-Methyl-<em>N</em>-phenylethanolamine;NSC 9274;<em>N</em>-Phenyl-<em>N</em>-methyl-ethanolamine;<em>N</em>-Hydroxyethyl-<em>N</em>-methylaniline;<em>N</em>-Methyl-<em>N</em>-phenyl-2-hydroxyethylamine;<em>N</em>-Methyl-<em>N</em>-hydroethyl aniline;2-[Methyl(phenyl)amino]ethan-1-ol",
    "duplicated_cas_no": "",
    "SMILES": "N(CCO)(C)C1=CC=CC=C1",
    "meta_data": {
        "InChI": "InChI=1S/C9H13NO/c1-10(7-8-11)9-5-3-2-4-6-9/h2-6,11H,7-8H2,1H3",
        "InChIKey": null,
        "Canonical SMILES": "OCCN(C=1C=CC=CC1)C",
        "Molecular Formula": "C<sub>9</sub>H<sub>13</sub>NO",
        "Molecular Mass": "151.21",
        "Boiling Point": "128 °C @ Press: 1 Torr",
        "Melting Point": "77 °C"
    }
}