{
    "cas_no": "39025-23-5",
    "key_name": "<em>Z</em>-Guggulsterone",
    "cn_name": "孕二烯二酮;",
    "alternate_name": "Pregna-4,17(20)-diene-3,16-dione, (17<em>Z</em>)-;(17<em>Z</em>)-Pregna-4,17(20)-diene-3,16-dione;(17<em>Z</em>)-Guggulsterone;<em>Z</em>-Guggulsterone;4,17(20)-<em>cis</em>-Pregnadiene-3,6-dione;<em>cis</em>-Guggulsterone;GR 235",
    "duplicated_cas_no": "137682-26-9",
    "SMILES": "C[C@@]1\\2[C@]([C@]3([C@@]([C@]4(C)C(CC3)=CC(=O)CC4)(CC1)[H])[H])(CC(=O)/C2=C\\C)[H]",
    "meta_data": {
        "InChI": "InChI=1S/C21H28O2/c1-4-16-19(23)12-18-15-6-5-13-11-14(22)7-9-20(13,2)17(15)8-10-21(16,18)3/h4,11,15,17-18H,5-10,12H2,1-3H3/b16-4+/t15-,17+,18+,20+,21-/m1/s1",
        "InChIKey": null,
        "Canonical SMILES": "O=C1C=C2CCC3C4CC(=O)C(=CC)C4(C)CCC3C2(C)CC1",
        "Molecular Formula": "C<sub>21</sub>H<sub>28</sub>O<sub>2</sub>",
        "Molecular Mass": "312.45",
        "Melting Point": "174-178 °C"
    }
}