{
    "cas_no": "42017-89-0",
    "key_name": "Fenofibric acid",
    "cn_name": "非诺贝特酸;2-(4-(4-氯苯甲酰)苯氧基)-2-甲基丙酸;",
    "alternate_name": "Propanoic acid, 2-[4-(4-chlorobenzoyl)phenoxy]-2-methyl-;2-[4-(4-Chlorobenzoyl)phenoxy]-2-methylpropanoic acid;2-[<em>p</em>-(<em>p</em>-Chlorobenzoyl)phenoxy]-2-methylpropionic acid;LF 178 acid;LF 153;2-[4′-(<em>p</em>-Chlorobenzoyl)phenoxy]-2-methylpropionic acid;Procetofenic acid;α-1081;Fenofibric acid;NSC 281318;FNF acid",
    "duplicated_cas_no": "3033604-65-5",
    "SMILES": "C(=O)(C1=CC=C(OC(C(O)=O)(C)C)C=C1)C2=CC=C(Cl)C=C2",
    "meta_data": {
        "InChI": "InChI=1S/C17H15ClO4/c1-17(2,16(20)21)22-14-9-5-12(6-10-14)15(19)11-3-7-13(18)8-4-11/h3-10H,1-2H3,(H,20,21)",
        "InChIKey": null,
        "Canonical SMILES": "O=C(O)C(OC1=CC=C(C=C1)C(=O)C2=CC=C(Cl)C=C2)(C)C",
        "Molecular Formula": "C<sub>17</sub>H<sub>15</sub>ClO<sub>4</sub>",
        "Molecular Mass": "318.75",
        "Melting Point": "179-180 °C"
    }
}