{
    "cas_no": "15403-56-2",
    "key_name": "1-(Methylamino)-4-[(1-methylethyl)amino]-9,10-anthracenedione",
    "cn_name": null,
    "alternate_name": "9,10-Anthracenedione, 1-(methylamino)-4-[(1-methylethyl)amino]-;Anthraquinone, 1-(isopropylamino)-4-(methylamino)-;1-(Methylamino)-4-[(1-methylethyl)amino]-9,10-anthracenedione;C.I. Solvent Blue 102;Solvent Blue 102",
    "duplicated_cas_no": "",
    "SMILES": "N(C(C)C)C1=C2C(C(=O)C=3C(C2=O)=CC=CC3)=C(NC)C=C1",
    "meta_data": {
        "InChI": "InChI=1S/C18H18N2O2/c1-10(2)20-14-9-8-13(19-3)15-16(14)18(22)12-7-5-4-6-11(12)17(15)21/h4-10,19-20H,1-3H3",
        "InChIKey": null,
        "Canonical SMILES": "O=C1C=2C=CC=CC2C(=O)C=3C(=CC=C(NC)C13)NC(C)C",
        "Molecular Formula": "C<sub>18</sub>H<sub>18</sub>N<sub>2</sub>O<sub>2</sub>",
        "Molecular Mass": "294.35",
        "Melting Point": "216-217 °C"
    }
}