{
    "cas_no": "73568-27-1",
    "key_name": "2-Chloro-3-formyl-6-methylquinoline",
    "cn_name": null,
    "alternate_name": "3-Quinolinecarboxaldehyde, 2-chloro-6-methyl-;2-Chloro-6-methyl-3-quinolinecarboxaldehyde;2-Chloro-3-formyl-6-methylquinoline;2-Chloro-6-methylquinoline-3-carbaldehyde;2-Chloro-6-methyl-3-quinolinecarbaldehyde",
    "duplicated_cas_no": "",
    "SMILES": "C(=O)C1=CC2=C(N=C1Cl)C=CC(C)=C2",
    "meta_data": {
        "InChI": "InChI=1S/C11H8ClNO/c1-7-2-3-10-8(4-7)5-9(6-14)11(12)13-10/h2-6H,1H3",
        "InChIKey": null,
        "Canonical SMILES": "O=CC=1C=C2C=C(C=CC2=NC1Cl)C",
        "Molecular Formula": "C<sub>11</sub>H<sub>8</sub>ClNO",
        "Molecular Mass": "205.64",
        "Melting Point": "123 °C"
    }
}