{
    "cas_no": "469-32-9",
    "key_name": "Hamamelitannin",
    "cn_name": "金缕梅单宁;金缕梅单宁;",
    "alternate_name": "<span class=\"text-smallcaps\">D</span>-Ribose, 2-<em>C</em>-[[(3,4,5-trihydroxybenzoyl)oxy]methyl]-, 5-(3,4,5-trihydroxybenzoate);Hamamelitannin;Ribose, 2-<em>C</em>-(hydroxymethyl)-, 2<sup>1</sup>,5-digallate, <span class=\"text-smallcaps\">D</span>-;Gallic acid, 2<sup>1</sup>,5-diester with 2-<em>C</em>-(hydroxymethyl)-<span class=\"text-smallcaps\">D</span>-ribose;2′,5-Di-<em>O</em>-galloyl-<span class=\"text-smallcaps\">D</span>-hamamelose",
    "duplicated_cas_no": "99786-30-8;90275-96-0",
    "SMILES": "C(OC[C@@]([C@@H]([C@@H](COC(=O)C1=CC(O)=C(O)C(O)=C1)O)O)(C=O)O)(=O)C2=CC(O)=C(O)C(O)=C2",
    "meta_data": {
        "InChI": "InChI=1S/C20H20O14/c21-6-20(32,7-34-19(31)9-3-12(24)16(28)13(25)4-9)17(29)14(26)5-33-18(30)8-1-10(22)15(27)11(23)2-8/h1-4,6,14,17,22-29,32H,5,7H2/t14-,17-,20-/m1/s1",
        "InChIKey": null,
        "Canonical SMILES": "O=CC(O)(COC(=O)C1=CC(O)=C(O)C(O)=C1)C(O)C(O)COC(=O)C2=CC(O)=C(O)C(O)=C2",
        "Molecular Formula": "C<sub>20</sub>H<sub>20</sub>O<sub>14</sub>",
        "Molecular Mass": "484.36",
        "Melting Point": "217-223 °C (decomp)"
    }
}