{
    "cas_no": "27511-79-1",
    "key_name": "3-Amino-1<em>H</em>-pyrazole-4-carboxamide sulfate (2:1)",
    "cn_name": "3-氨基-4-甲酰胺基吡唑半硫酸盐;",
    "alternate_name": "1<em>H</em>-Pyrazole-4-carboxamide, 3-amino-, sulfate (2:1);Pyrazole-4-carboxamide, 3-amino-, sulfate (2:1);3-Amino-1<em>H</em>-pyrazole-4-carboxamide sulfate (2:1);3-Amino-1<em>H</em>-pyrazole-4-carboxamide hemisulfate;3-Amino-4-pyrazolecarboxamide hemisulfate salt",
    "duplicated_cas_no": "38758-59-7;72915-02-7;102587-13-3;1429226-32-3",
    "SMILES": "S(=O)(=O)(O)O.C(N)(=O)C=1C(N)=NNC1",
    "meta_data": {
        "InChI": "InChI=1S/C4H6N4O.H2O4S/c5-3-2(4(6)9)1-7-8-3;1-5(2,3)4/h1H,(H2,6,9)(H3,5,7,8);(H2,1,2,3,4)",
        "InChIKey": null,
        "Canonical SMILES": "O=C(N)C1=CNN=C1N.O=S(=O)(O)O",
        "Molecular Formula": "C<sub>4</sub>H<sub>6</sub>N<sub>4</sub>O.<sup>1</sup>/<sub>2</sub>H<sub>2</sub>O<sub>4</sub>S",
        "Molecular Mass": "",
        "Melting Point": "222-225 °C"
    }
}