{
    "cas_no": "59320-13-7",
    "key_name": "HC Yellow 12",
    "cn_name": "4-氯-N-(2-羟基乙基)-2-硝基苯胺;",
    "alternate_name": "Ethanol, 2-[(4-chloro-2-nitrophenyl)amino]-;Ethanol, 2-(4-chloro-2-nitroanilino)-;2-[(4-Chloro-2-nitrophenyl)amino]ethanol;HC Yellow No. 12;HC Yellow 12;2-(4-Chloro-2-nitroanilino)ethanol;2-[(4-Chloro-2-nitrophenyl)amino]ethan-1-ol",
    "duplicated_cas_no": "",
    "SMILES": "N(CCO)C1=C(N(=O)=O)C=C(Cl)C=C1",
    "meta_data": {
        "InChI": "InChI=1S/C8H9ClN2O3/c9-6-1-2-7(10-3-4-12)8(5-6)11(13)14/h1-2,5,10,12H,3-4H2",
        "InChIKey": null,
        "Canonical SMILES": "O=N(=O)C1=CC(Cl)=CC=C1NCCO",
        "Molecular Formula": "C<sub>8</sub>H<sub>9</sub>ClN<sub>2</sub>O<sub>3</sub>",
        "Molecular Mass": "216.62",
        "Melting Point": "107 °C"
    }
}