{
    "cas_no": "2900-63-2",
    "key_name": "3,5-Dinitrobenzoic acid hydrazide",
    "cn_name": "3,5-二硝基苯甲酰肼;",
    "alternate_name": "Benzoic acid, 3,5-dinitro-, hydrazide;3,5-Dinitrobenzhydrazide;3,5-Dinitrobenzoic acid hydrazide;3,5-Dinitrobenzoylhydrazine;3,5-Dinitrobenzenecarboxylic acid hydrazide;3,5-Dinitrobenzoyl hydrazide;NSC 87798;3,5-Dinitrobenzohydrazide",
    "duplicated_cas_no": "",
    "SMILES": "C(NN)(=O)C1=CC(N(=O)=O)=CC(N(=O)=O)=C1",
    "meta_data": {
        "InChI": "InChI=1S/C7H6N4O5/c8-9-7(12)4-1-5(10(13)14)3-6(2-4)11(15)16/h1-3H,8H2,(H,9,12)",
        "InChIKey": null,
        "Canonical SMILES": "O=C(NN)C=1C=C(C=C(C1)N(=O)=O)N(=O)=O",
        "Molecular Formula": "C<sub>7</sub>H<sub>6</sub>N<sub>4</sub>O<sub>5</sub>",
        "Molecular Mass": "226.15",
        "Melting Point": "158 °C"
    }
}