{
    "cas_no": "7446-09-5",
    "key_name": "Sulfur dioxide",
    "cn_name": "二氧化硫;亚硫酸酐;",
    "alternate_name": "Sulfur dioxide;Sulfur superoxide;Sulfurous acid anhydride;Sulfurous anhydride;Sulfurous oxide;Sulfur oxide (SO<sub>2</sub>);Fermenticide liquid;Sulfur dioxide (SO<sub>2</sub>);Sulfur oxide;Sulphur dioxide;E 220;MeSH ID: D013458",
    "duplicated_cas_no": "8014-94-6;12396-99-5;83008-56-4;89125-89-3;1239882-82-6",
    "SMILES": "S(=O)=O",
    "meta_data": {
        "InChI": "InChI=1S/O2S/c1-3-2",
        "InChIKey": null,
        "Canonical SMILES": "O=S=O",
        "Molecular Formula": "O<sub>2</sub>S",
        "Molecular Mass": "64.06",
        "Boiling Point": "-10.05 °C",
        "Melting Point": "-75.5 °C",
        "Density": "2.811 x 10<sup>-3</sup> g/cm³"
    }
}