{
    "cas_no": "3350-19-4",
    "key_name": "<em>N</em>-[(1,1-Dimethylethoxy)carbonyl]-<span class=\"text-smallcaps\">L</span>-leucine 4-nitrophenyl ester",
    "cn_name": null,
    "alternate_name": "<span class=\"text-smallcaps\">L</span>-Leucine, <em>N</em>-[(1,1-dimethylethoxy)carbonyl]-, 4-nitrophenyl ester;Leucine, <em>N</em>-carboxy-, <em>N</em>-<em>tert</em>-butyl <em>p</em>-nitrophenyl ester, <span class=\"text-smallcaps\">L</span>-;Leucine, <em>N</em>-carboxy-, <em>N</em>-<em>tert</em>-butyl <em>p</em>-nitrophenyl ester;<em>N</em>-[(1,1-Dimethylethoxy)carbonyl]-<span class=\"text-smallcaps\">L</span>-leucine 4-nitrophenyl ester;<em>tert</em>-Butyloxycarbonyl-<span class=\"text-smallcaps\">L</span>-leucine <em>p</em>-nitrophenyl ester;<em>N</em>-<em>tert</em>-Butoxycarbonyl-<span class=\"text-smallcaps\">L</span>-leucine <em>p</em>-nitrophenyl ester;(4-Nitrophenyl) (2S)-4-methyl-2-[(2-methylpropan-2-yl)oxycarbonylamino]pentanoate",
    "duplicated_cas_no": "464153-99-9",
    "SMILES": "O(C([C@@H](NC(OC(C)(C)C)=O)CC(C)C)=O)C1=CC=C(N(=O)=O)C=C1",
    "meta_data": {
        "InChI": "InChI=1S/C17H24N2O6/c1-11(2)10-14(18-16(21)25-17(3,4)5)15(20)24-13-8-6-12(7-9-13)19(22)23/h6-9,11,14H,10H2,1-5H3,(H,18,21)/t14-/m0/s1",
        "InChIKey": null,
        "Canonical SMILES": "O=C(OC(C)(C)C)NC(C(=O)OC1=CC=C(C=C1)N(=O)=O)CC(C)C",
        "Molecular Formula": "C<sub>17</sub>H<sub>24</sub>N<sub>2</sub>O<sub>6</sub>",
        "Molecular Mass": "352.38",
        "Melting Point": "83-84 °C"
    }
}