{
    "cas_no": "22936-86-3",
    "key_name": "Cyprazine",
    "cn_name": null,
    "alternate_name": "1,3,5-Triazine-2,4-diamine, 6-chloro-<em>N</em><sup>2</sup>-cyclopropyl-<em>N</em><sup>4</sup>-(1-methylethyl)-;<em>s</em>-Triazine, 2-chloro-4-(cyclopropylamino)-6-(isopropylamino)-;1,3,5-Triazine-2,4-diamine, 6-chloro-<em>N</em>-cyclopropyl-<em>N</em>′-(1-methylethyl)-;6-Chloro-<em>N</em><sup>2</sup>-cyclopropyl-<em>N</em><sup>4</sup>-(1-methylethyl)-1,3,5-triazine-2,4-diamine;S 6115;2-Chloro-4-cyclopropylamino-6-isopropylamino-<em>s</em>-triazine;Cyprozine;Outfox;Cyprazine;2-Chloro-4-isopropylamino-6-cyclopropylamino-<em>s</em>-triazine;K 6295;2-Chloro-4-isopropylamino-6-cyclopropylamino-1,3,5-triazine",
    "duplicated_cas_no": "",
    "SMILES": "N(C=1N=C(NC(C)C)N=C(Cl)N1)C2CC2",
    "meta_data": {
        "InChI": "InChI=1S/C9H14ClN5/c1-5(2)11-8-13-7(10)14-9(15-8)12-6-3-4-6/h5-6H,3-4H2,1-2H3,(H2,11,12,13,14,15)",
        "InChIKey": null,
        "Canonical SMILES": "ClC=1N=C(N=C(N1)NC2CC2)NC(C)C",
        "Molecular Formula": "C<sub>9</sub>H<sub>14</sub>ClN<sub>5</sub>",
        "Molecular Mass": "227.69",
        "Melting Point": "167 °C",
        "Density": "1.24 g/cm³"
    }
}