{
    "cas_no": "14047-60-0",
    "key_name": "Sodium nonanoate",
    "cn_name": "正壬酸钠盐;",
    "alternate_name": "Nonanoic acid, sodium salt (1:1);Nonanoic acid, sodium salt;Sodium nonanoate;Sodium pelargonate;Pelargonic acid sodium salt;Monotrope 1250",
    "duplicated_cas_no": "144696-72-0",
    "SMILES": "C(CCCCC)CCC(O)=O.[Na]",
    "meta_data": {
        "InChI": "InChI=1S/C9H18O2.Na/c1-2-3-4-5-6-7-8-9(10)11;/h2-8H2,1H3,(H,10,11);",
        "InChIKey": null,
        "Canonical SMILES": "[Na].O=C(O)CCCCCCCC",
        "Molecular Formula": "C<sub>9</sub>H<sub>18</sub>O<sub>2</sub>.Na",
        "Molecular Mass": "",
        "Melting Point": "240-244 °C"
    }
}