{
    "cas_no": "18822-58-7",
    "key_name": "<em>O</em>-(1,1-Dimethylethyl)-<span class=\"text-smallcaps\">L</span>-serine",
    "cn_name": "O-tert-Butyl-L-serine;",
    "alternate_name": "<span class=\"text-smallcaps\">L</span>-Serine, <em>O</em>-(1,1-dimethylethyl)-;Alanine, 3-<em>tert</em>-butoxy-, <span class=\"text-smallcaps\">L</span>-;<em>O</em>-(1,1-Dimethylethyl)-<span class=\"text-smallcaps\">L</span>-serine;<em>O</em>-<em>tert</em>-Butyl-<span class=\"text-smallcaps\">L</span>-serine;3-<em>tert</em>-Butoxy-<span class=\"text-smallcaps\">L</span>-alanine;Serine <em>tert</em>-butyl ether;<em>O</em>-<em>tert</em>-Butylserine;<span class=\"text-smallcaps\">L</span>-Serine β-<em>tert</em>-butylether;(2S)-2-Amino-3-(<em>tert</em>-butoxy)propanoic acid;(2S)-2-Amino-3-[(2-methylpropan-2-yl)oxy]propanoic acid;(<em>S</em>)-2-Amino-3-(<em>tert</em>-butoxy)propanoic acid",
    "duplicated_cas_no": "117368-02-2",
    "SMILES": "C([C@@H](C(O)=O)N)OC(C)(C)C",
    "meta_data": {
        "InChI": "InChI=1S/C7H15NO3/c1-7(2,3)11-4-5(8)6(9)10/h5H,4,8H2,1-3H3,(H,9,10)/t5-/m0/s1",
        "InChIKey": null,
        "Canonical SMILES": "O=C(O)C(N)COC(C)(C)C",
        "Molecular Formula": "C<sub>7</sub>H<sub>15</sub>NO<sub>3</sub>",
        "Molecular Mass": "161.20",
        "Melting Point": "238-239 °C"
    }
}