{
    "cas_no": "583-58-4",
    "key_name": "3,4-Dimethylpyridine",
    "cn_name": "3,4-二甲基吡啶;",
    "alternate_name": "Pyridine, 3,4-dimethyl-;3,4-Lutidine;3,4-Dimethylpyridine;NSC 4675",
    "duplicated_cas_no": "",
    "SMILES": "CC=1C(C)=CN=CC1",
    "meta_data": {
        "InChI": "InChI=1S/C7H9N/c1-6-3-4-8-5-7(6)2/h3-5H,1-2H3",
        "InChIKey": null,
        "Canonical SMILES": "N=1C=CC(=C(C1)C)C",
        "Molecular Formula": "C<sub>7</sub>H<sub>9</sub>N",
        "Molecular Mass": "107.15",
        "Boiling Point": "179.1 °C",
        "Melting Point": "-11 °C",
        "Density": "0.9537 g/cm³ @ Temp: 26 °C"
    }
}