{
    "cas_no": "4114-31-2",
    "key_name": "Ethyl carbazate",
    "cn_name": "肼基甲酸乙酯;乙氧基甲酰肼;",
    "alternate_name": "Hydrazinecarboxylic acid, ethyl ester;Carbazic acid, ethyl ester;1-Carbethoxyhydrazine;Ethyl carbazate;Ethyl carbazinate;Ethyl hydrazinecarboxylate;<em>N</em>-(Ethoxycarbonyl)hydrazine;(Ethoxycarbonyl)hydrazine;Ethoxycarbonyl hydrazide;Carbethoxyhydrazine;Monocarbethoxyhydrazine;<em>N</em>-(Carbethoxy)hydrazine;1-(Ethoxycarbonyl)hydrazine;Ethyl hydrazinocarboxylate;Ethyl hydrazinoformate;NSC 2277;NSC 52663",
    "duplicated_cas_no": "343926-01-2",
    "SMILES": "C(OCC)(NN)=O",
    "meta_data": {
        "InChI": "InChI=1S/C3H8N2O2/c1-2-7-3(6)5-4/h2,4H2,1H3,(H,5,6)",
        "InChIKey": null,
        "Canonical SMILES": "O=C(OCC)NN",
        "Molecular Formula": "C<sub>3</sub>H<sub>8</sub>N<sub>2</sub>O<sub>2</sub>",
        "Molecular Mass": "104.11",
        "Boiling Point": "93 °C @ Press: 9 Torr",
        "Melting Point": "46 °C"
    }
}