{
    "cas_no": "393-55-5",
    "key_name": "2-Fluoronicotinic acid",
    "cn_name": "2-氟烟酸;2-氟-3-吡啶羧酸;",
    "alternate_name": "3-Pyridinecarboxylic acid, 2-fluoro-;Nicotinic acid, 2-fluoro-;2-Fluoro-3-pyridinecarboxylic acid;2-Fluoronicotinic acid;NSC 51588",
    "duplicated_cas_no": "",
    "SMILES": "C(O)(=O)C1=C(F)N=CC=C1",
    "meta_data": {
        "InChI": "InChI=1S/C6H4FNO2/c7-5-4(6(9)10)2-1-3-8-5/h1-3H,(H,9,10)",
        "InChIKey": null,
        "Canonical SMILES": "O=C(O)C1=CC=CN=C1F",
        "Molecular Formula": "C<sub>6</sub>H<sub>4</sub>FNO<sub>2</sub>",
        "Molecular Mass": "141.10",
        "Melting Point": "164-165 °C (decomp)"
    }
}