{
    "cas_no": "628-17-1",
    "key_name": "1-Iodopentane",
    "cn_name": "1-碘戊烷;碘代戊烷;正戊基碘;碘代正戊烷;",
    "alternate_name": "Pentane, 1-iodo-;1-Iodopentane;<em>n</em>-Pentyl iodide;Amyl iodide;Pentyl iodide;1-Pentyl iodide;<em>n</em>-Amyl iodide;NSC 7901;5-Iodopentane",
    "duplicated_cas_no": "",
    "SMILES": "C(CCI)CC",
    "meta_data": {
        "InChI": "InChI=1S/C5H11I/c1-2-3-4-5-6/h2-5H2,1H3",
        "InChIKey": null,
        "Canonical SMILES": "ICCCCC",
        "Molecular Formula": "C<sub>5</sub>H<sub>11</sub>I",
        "Molecular Mass": "198.05",
        "Boiling Point": "155 °C",
        "Melting Point": "-85.6 °C",
        "Density": "1.54572 g/cm³ @ Temp: 0 °C"
    }
}