{
    "cas_no": "104-54-1",
    "key_name": "Cinnamyl alcohol",
    "cn_name": "肉桂醇;beta-苯丙烯醇;",
    "alternate_name": "2-Propen-1-ol, 3-phenyl-;Cinnamyl alcohol;3-Phenyl-2-propen-1-ol;Cinnamic alcohol;γ-Phenylallyl alcohol;Styrone;Styryl carbinol;Styryl alcohol;3-Phenylallyl alcohol;3-Phenyl-2-propenol;3-Phenyl-2-propene-1-ol;1-Phenyl-3-hydroxy-1-propene;1-Phenylprop-1-en-3-ol;3-Hydroxy-1-phenylprop-1-ene;NSC 623440;NSC 8775",
    "duplicated_cas_no": "",
    "SMILES": "C(=CCO)C1=CC=CC=C1",
    "meta_data": {
        "InChI": "InChI=1S/C9H10O/c10-8-4-7-9-5-2-1-3-6-9/h1-7,10H,8H2",
        "InChIKey": null,
        "Canonical SMILES": "OCC=CC=1C=CC=CC1",
        "Molecular Formula": "C<sub>9</sub>H<sub>10</sub>O",
        "Molecular Mass": "134.18",
        "Boiling Point": "250.0 °C @ Press: 760 Torr",
        "Melting Point": "33 °C",
        "Density": "1.0397 g/cm³ @ Temp: 35 °C"
    }
}