{
    "cas_no": "1253-67-4",
    "key_name": "<em>N</em>-[2-(Hydroxymethyl)-2-phenylbutyl]-3,4,5-trimethoxy-<em>N</em>-propylbenzamide",
    "cn_name": null,
    "alternate_name": "Benzamide, <em>N</em>-[2-(hydroxymethyl)-2-phenylbutyl]-3,4,5-trimethoxy-<em>N</em>-propyl-;Benzamide, <em>N</em>-[β-ethyl-β-(hydroxymethyl)phenethyl]-3,4,5-trimethoxy-<em>N</em>-propyl-;<em>N</em>-[2-(Hydroxymethyl)-2-phenylbutyl]-3,4,5-trimethoxy-<em>N</em>-propylbenzamide",
    "duplicated_cas_no": "",
    "SMILES": "C(CN(C(=O)C1=CC(OC)=C(OC)C(OC)=C1)CCC)(CC)(CO)C2=CC=CC=C2",
    "meta_data": {
        "InChI": "InChI=1S/C24H33NO5/c1-6-13-25(16-24(7-2,17-26)19-11-9-8-10-12-19)23(27)18-14-20(28-3)22(30-5)21(15-18)29-4/h8-12,14-15,26H,6-7,13,16-17H2,1-5H3",
        "InChIKey": null,
        "Canonical SMILES": "O=C(C1=CC(OC)=C(OC)C(OC)=C1)N(CCC)CC(C=2C=CC=CC2)(CO)CC",
        "Molecular Formula": "C<sub>24</sub>H<sub>33</sub>NO<sub>5</sub>",
        "Molecular Mass": "415.52",
        "Melting Point": "125-126 °C"
    }
}