{
    "cas_no": "2467-02-9",
    "key_name": "Bis(2-hydroxyphenyl)methane",
    "cn_name": null,
    "alternate_name": "Phenol, 2,2′-methylenebis-;Phenol, 2,2′-methylenedi-;2,2′-Methylenebis[phenol];2,2′-Methylenediphenol;Bis(2-hydroxyphenyl)methane;2,2′-Dihydroxydiphenylmethane;<em>o</em>-(<em>o</em>-Hydroxybenzyl)phenol;Bisphenol F;2,2′-Bis(hydroxyphenyl)methane;<em>o</em>,<em>o</em>′-Bis(hydroxyphenyl)methane;NSC 402103;2-[(2-Hydroxyphenyl)methyl]phenol",
    "duplicated_cas_no": "",
    "SMILES": "C(C1=C(O)C=CC=C1)C2=C(O)C=CC=C2",
    "meta_data": {
        "InChI": "InChI=1S/C13H12O2/c14-12-7-3-1-5-10(12)9-11-6-2-4-8-13(11)15/h1-8,14-15H,9H2",
        "InChIKey": null,
        "Canonical SMILES": "OC=1C=CC=CC1CC=2C=CC=CC2O",
        "Molecular Formula": "C<sub>13</sub>H<sub>12</sub>O<sub>2</sub>",
        "Molecular Mass": "200.23",
        "Boiling Point": "228-230 °C @ Press: 15 Torr",
        "Melting Point": "118-119 °C"
    }
}