{
    "cas_no": "39499-34-8",
    "key_name": "5-Methyl-3-isoxazolecarbonyl chloride",
    "cn_name": "5-甲基异噁唑-3-甲酰氯;",
    "alternate_name": "3-Isoxazolecarbonyl chloride, 5-methyl-;5-Methyl-3-isoxazolecarbonyl chloride;5-Methylisoxazol-3-carbonyl chloride",
    "duplicated_cas_no": "62366-44-3",
    "SMILES": "C(Cl)(=O)C=1C=C(C)ON1",
    "meta_data": {
        "InChI": "InChI=1S/C5H4ClNO2/c1-3-2-4(5(6)8)7-9-3/h2H,1H3",
        "InChIKey": null,
        "Canonical SMILES": "O=C(Cl)C1=NOC(=C1)C",
        "Molecular Formula": "C<sub>5</sub>H<sub>4</sub>ClNO<sub>2</sub>",
        "Molecular Mass": "145.54",
        "Boiling Point": "88 °C @ Press: 18 Torr"
    }
}