{
    "cas_no": "369-33-5",
    "key_name": "1-(3,4-Difluorophenyl)ethanone",
    "cn_name": "3\",4\"-二氟苯乙酮;",
    "alternate_name": "Ethanone, 1-(3,4-difluorophenyl)-;Acetophenone, 3′,4′-difluoro-;1-(3,4-Difluorophenyl)ethanone;3′,4′-Difluoroacetophenone;1-(3,4-Difluorophenyl)ethan-1-one",
    "duplicated_cas_no": "",
    "SMILES": "C(C)(=O)C1=CC(F)=C(F)C=C1",
    "meta_data": {
        "InChI": "InChI=1S/C8H6F2O/c1-5(11)6-2-3-7(9)8(10)4-6/h2-4H,1H3",
        "InChIKey": null,
        "Canonical SMILES": "O=C(C1=CC=C(F)C(F)=C1)C",
        "Molecular Formula": "C<sub>8</sub>H<sub>6</sub>F<sub>2</sub>O",
        "Molecular Mass": "156.13",
        "Boiling Point": "200-201 °C @ Press: 734 Torr",
        "Melting Point": "19.5-20 °C"
    }
}