{
    "cas_no": "775-12-2",
    "key_name": "Diphenylsilane",
    "cn_name": "二苯基硅烷;",
    "alternate_name": "Benzene, 1,1′-silylenebis-;Silane, diphenyl-;1,1′-Silylenebis[benzene];Diphenylsilane;TSL 8224;NSC 33013;SID 4559.0",
    "duplicated_cas_no": "",
    "SMILES": "[SiH2](C1=CC=CC=C1)C2=CC=CC=C2",
    "meta_data": {
        "InChI": "InChI=1S/C12H12Si/c1-3-7-11(8-4-1)13-12-9-5-2-6-10-12/h1-10H,13H2",
        "InChIKey": null,
        "Canonical SMILES": "C=1C=CC(=CC1)[SiH2]C=2C=CC=CC2",
        "Molecular Formula": "C<sub>12</sub>H<sub>12</sub>Si",
        "Molecular Mass": "184.31",
        "Boiling Point": "95-97 °C @ Press: 13 Torr",
        "Melting Point": "79 °C",
        "Density": "0.996 g/cm³"
    }
}