{
    "cas_no": "514-39-6",
    "key_name": "Periplogenin",
    "cn_name": null,
    "alternate_name": "Card-20(22)-enolide, 3,5,14-trihydroxy-, (3β,5β)-;5β-Card-20(22)-enolide, 3β,5,14-trihydroxy-;(3β,5β)-3,5,14-Trihydroxycard-20(22)-enolide;Desoxostrophanthidin;5β-Hydroxydigitoxigenin;Periplogenin;3β,5β,14β-Trihydroxy-20(22)-cardenolide;3β,5β,14β-Trihydroxy-8β<em>H</em>-card-20(22)-enolide",
    "duplicated_cas_no": "",
    "SMILES": "O[C@@]12[C@]3([C@@]([C@]4(C)[C@](O)(CC3)C[C@@H](O)CC4)(CC[C@]1(C)[C@H](CC2)C5=CC(=O)OC5)[H])[H]",
    "meta_data": {
        "InChI": "InChI=1S/C23H34O5/c1-20-7-3-15(24)12-22(20,26)9-5-18-17(20)4-8-21(2)16(6-10-23(18,21)27)14-11-19(25)28-13-14/h11,15-18,24,26-27H,3-10,12-13H2,1-2H3/t15-,16+,17-,18+,20+,21+,22-,23-/m0/s1",
        "InChIKey": null,
        "Canonical SMILES": "O=C1OCC(=C1)C2CCC3(O)C4CCC5(O)CC(O)CCC5(C)C4CCC23C",
        "Molecular Formula": "C<sub>23</sub>H<sub>34</sub>O<sub>5</sub>",
        "Molecular Mass": "390.51",
        "Melting Point": "135-140 °C"
    }
}