{
    "cas_no": "121-75-5",
    "key_name": "Malathion",
    "cn_name": "马拉硫磷;马拉松;O,O-二甲基-S-[1,2-二(乙氧基羰基)乙基]二硫代磷酸酯;",
    "alternate_name": "Butanedioic acid, 2-[(dimethoxyphosphinothioyl)thio]-, 1,4-diethyl ester;Succinic acid, mercapto-, diethyl ester, <em>S</em>-ester with <em>O</em>,<em>O</em>-dimethyl phosphorodithioate;Butanedioic acid, [(dimethoxyphosphinothioyl)thio]-, diethyl ester;SF 60;8059HC;ENT 17,034;American Cyanamid 4,049;<em>S</em>-[1,2-Bis(ethoxycarbonyl)ethyl] <em>O</em>,<em>O</em>-dimethyl phosphorodithioate;<em>S</em>-[1,2-Bis(ethoxycarbonyl)ethyl] <em>O</em>,<em>O</em>-dimethyl thiophosphate;Carbophos;Compound 4049;Fosfothion;Insecticide no. 4049;Karbofos;Malathion;Malathion LV Concentrate;Mercaptothion;Phosphothion;Ethiolacar;Fosfotion;Malamar 50;Oleophosphothion;Sadophos;Siptox I;Sadofos;Cythion;<em>O</em>,<em>O</em>-Dimethyl <em>S</em>-(1,2-dicarbethoxyethyl) dithiophosphate;Sumitox;Carbetox;Malathion E 50;<em>S</em>-[1,2-Bis(carbethoxy)ethyl] <em>O</em>,<em>O</em>-dimethyl dithiophosphate;[(Dimethoxyphosphinothioyl)thio]butanedioic acid diethyl ester;Diethyl mercaptosuccinate <em>S</em>-ester with <em>O</em>,<em>O</em>-dimethyl phosphorodithioate;Insecticide 4049;Carbofos;Malaspray;Prioderm;Zithiol;Ortho Malathion;Malatol;Fyfanon;Moscarda;TM 4049;Malafor;Etiol;Vetiol;Carbetovur;TAK (pesticide);Malasol;Extermathion;Forthion;Malathyl;Cimexan;Hilthion;IFO 13140;Malataf;TAK;Mavidan;Security;Malathyne;Malamar;Malathine;Maldison;Ovide;Organoderm;Suleo M;Derbac M;ENT 17034;NSC 6524;Malatol 500CE;Malathion ULV;Hi-Yield;Radotion P 5;Radotion;Gammaxine;Atrapa;Nassrlathion;Kunamala;Radotion E 50;Hymal;Malataf 57EC;Malapron;MeSH ID: D008294",
    "duplicated_cas_no": "141263-96-9;11096-67-6;11130-60-2;12737-19-8;12767-62-3;75513-83-6",
    "SMILES": "C(SP(OC)(OC)=S)(CC(OCC)=O)C(OCC)=O",
    "meta_data": {
        "InChI": "InChI=1S/C10H19O6PS2/c1-5-15-9(11)7-8(10(12)16-6-2)19-17(18,13-3)14-4/h8H,5-7H2,1-4H3",
        "InChIKey": null,
        "Canonical SMILES": "O=C(OCC)CC(SP(=S)(OC)OC)C(=O)OCC",
        "Molecular Formula": "C<sub>10</sub>H<sub>19</sub>O<sub>6</sub>PS<sub>2</sub>",
        "Molecular Mass": "330.36",
        "Boiling Point": "156-157 °C @ Press: 0.7 Torr",
        "Melting Point": "2.9 °C",
        "Density": "1.23 g/cm³ @ Temp: 25 °C"
    }
}