{
    "cas_no": "25394-57-4",
    "key_name": "Spilanthol",
    "cn_name": null,
    "alternate_name": "2,6,8-Decatrienamide, <em>N</em>-(2-methylpropyl)-, (2<em>E</em>,6<em>Z</em>,8<em>E</em>)-;2,6,8-Decatrienamide, <em>N</em>-isobutyl-, (<em>E</em>,<em>E</em>,<em>Z</em>)-;Affinin;2,6,8-Decatrienamide, <em>N</em>-(2-methylpropyl)-, (<em>E</em>,<em>E</em>,<em>Z</em>)-;(2<em>E</em>,6<em>Z</em>,8<em>E</em>)-<em>N</em>-(2-Methylpropyl)-2,6,8-decatrienamide;Spilanthol;<em>N</em>-Isobutyldeca-<em>trans</em>-2,<em>cis</em>-6,<em>trans</em>-8-trienamide;2<em>E</em>,6<em>Z</em>,8<em>E</em>-Decatrienoic acid <em>N</em>-isobutylamide",
    "duplicated_cas_no": "504-47-2",
    "SMILES": "C(\\C(NCC(C)C)=O)=C/CC/C=C\\C=C\\C",
    "meta_data": {
        "InChI": "InChI=1S/C14H23NO/c1-4-5-6-7-8-9-10-11-14(16)15-12-13(2)3/h4-7,10-11,13H,8-9,12H2,1-3H3,(H,15,16)/b5-4+,7-6-,11-10+",
        "InChIKey": null,
        "Canonical SMILES": "O=C(C=CCCC=CC=CC)NCC(C)C",
        "Molecular Formula": "C<sub>14</sub>H<sub>23</sub>NO",
        "Molecular Mass": "221.34",
        "Boiling Point": "157 °C @ Press: 0.26 Torr",
        "Melting Point": "23 °C"
    }
}