{
    "cas_no": "362-06-1",
    "key_name": "2-Hydroxyestrone",
    "cn_name": "2-羟雌甾酮;2-羟雌甾酮;",
    "alternate_name": "Estra-1,3,5(10)-trien-17-one, 2,3-dihydroxy-;2,3-Dihydroxyestra-1,3,5(10)-trien-17-one;2-Hydroxyestrone;Catecholestrone",
    "duplicated_cas_no": "",
    "SMILES": "C[C@@]12[C@]([C@]3([C@@](C=4C(CC3)=CC(O)=C(O)C4)(CC1)[H])[H])(CCC2=O)[H]",
    "meta_data": {
        "InChI": "InChI=1S/C18H22O3/c1-18-7-6-11-12(14(18)4-5-17(18)21)3-2-10-8-15(19)16(20)9-13(10)11/h8-9,11-12,14,19-20H,2-7H2,1H3/t11-,12+,14-,18-/m0/s1",
        "InChIKey": null,
        "Canonical SMILES": "O=C1CCC2C3CCC4=CC(O)=C(O)C=C4C3CCC12C",
        "Molecular Formula": "C<sub>18</sub>H<sub>22</sub>O<sub>3</sub>",
        "Molecular Mass": "286.37",
        "Melting Point": "194-196 °C"
    }
}