{
    "cas_no": "14159-57-0",
    "key_name": "α-Phenyl-2-pyridinemethanol",
    "cn_name": null,
    "alternate_name": "2-Pyridinemethanol, α-phenyl-;α-Phenyl-2-pyridinemethanol;Phenyl-2-pyridylcarbinol;2-(α-Hydroxybenzyl)pyridine;(±)-2-Pyridylphenylmethanol;(±)-2-(α-Hydroxybenzyl)pyridine;Phenyl(2-pyridinyl)methanol;Phenyl(2-pyridyl)methanol;NSC 241060;1-Phenyl-1-(pyridin-2-yl)methanol",
    "duplicated_cas_no": "31796-72-2",
    "SMILES": "C(O)(C1=CC=CC=C1)C2=CC=CC=N2",
    "meta_data": {
        "InChI": "InChI=1S/C12H11NO/c14-12(10-6-2-1-3-7-10)11-8-4-5-9-13-11/h1-9,12,14H",
        "InChIKey": null,
        "Canonical SMILES": "OC(C1=NC=CC=C1)C=2C=CC=CC2",
        "Molecular Formula": "C<sub>12</sub>H<sub>11</sub>NO",
        "Molecular Mass": "185.22",
        "Boiling Point": "127-129 °C @ Press: 0.3 Torr",
        "Melting Point": "82 °C"
    }
}