{
    "cas_no": "92-86-4",
    "key_name": "4,4′-Dibromobiphenyl",
    "cn_name": "4,4\"-二溴联苯;",
    "alternate_name": "1,1′-Biphenyl, 4,4′-dibromo-;Biphenyl, 4,4′-dibromo-;4,4′-Dibromo-1,1′-biphenyl;4,4′-Dibromodiphenyl;<em>p</em>,<em>p</em>′-Dibromobiphenyl;PBB 15;4′,4-Dibromobiphenyl;4,4′-Dibromobiphenyl;NSC 2098;1-Bromo-4-(4-bromophenyl)benzene",
    "duplicated_cas_no": "",
    "SMILES": "BrC1=CC=C(C=C1)C2=CC=C(Br)C=C2",
    "meta_data": {
        "InChI": "InChI=1S/C12H8Br2/c13-11-5-1-9(2-6-11)10-3-7-12(14)8-4-10/h1-8H",
        "InChIKey": null,
        "Canonical SMILES": "BrC=1C=CC(=CC1)C2=CC=C(Br)C=C2",
        "Molecular Formula": "C<sub>12</sub>H<sub>8</sub>Br<sub>2</sub>",
        "Molecular Mass": "312.00",
        "Boiling Point": "357.5 °C",
        "Melting Point": "164 °C"
    }
}