{
    "cas_no": "615-13-4",
    "key_name": "2-Indanone",
    "cn_name": "2-茚酮;",
    "alternate_name": "2<em>H</em>-Inden-2-one, 1,3-dihydro-;2-Indanone;1,3-Dihydro-2<em>H</em>-inden-2-one;2-Oxoindane;1<em>H</em>-Inden-2(3<em>H</em>)-one;2-Oxobenzocyclopentane;2,3-Dihydro-1<em>H</em>-inden-2-one;1,3-Dihydroinden-2-one",
    "duplicated_cas_no": "",
    "SMILES": "O=C1CC=2C(C1)=CC=CC2",
    "meta_data": {
        "InChI": "InChI=1S/C9H8O/c10-9-5-7-3-1-2-4-8(7)6-9/h1-4H,5-6H2",
        "InChIKey": null,
        "Canonical SMILES": "O=C1CC=2C=CC=CC2C1",
        "Molecular Formula": "C<sub>9</sub>H<sub>8</sub>O",
        "Molecular Mass": "132.16",
        "Boiling Point": "84-89 °C @ Press: 0.1 Torr",
        "Melting Point": "59 °C",
        "Density": "1.0712 g/cm³ @ Temp: 66.8 °C"
    }
}