{
    "cas_no": "7758-29-4",
    "key_name": "Sodium tripolyphosphate",
    "cn_name": "三聚磷酸钠;",
    "alternate_name": "Triphosphoric acid, sodium salt (1:5);Triphosphoric acid, pentasodium salt;Pentasodium triphosphate;Sodium tripolyphosphate (Na<sub>5</sub>P<sub>3</sub>O<sub>10</sub>);Sodium triphosphate (Na<sub>5</sub>P<sub>3</sub>O<sub>10</sub>);Sodium triphosphate;Pentasodium tripolyphosphate;Armofos;Polygon;Pentasodium tripolyphosphate (Na<sub>5</sub>P<sub>3</sub>O<sub>10</sub>);Pentasodium triphosphate (Na<sub>5</sub>P<sub>3</sub>O<sub>10</sub>);Sodium phosphate (Na<sub>5</sub>P<sub>3</sub>O<sub>10</sub>);Sodium tripolyphosphate;Thermphos;S 400;Thermphos L 50;Thermphos N;Thermphos SPR;STPP;Empiphos STP-D;Freez-Gard FP 19;Sodium polyphosphate (Na<sub>5</sub>P<sub>3</sub>O<sub>10</sub>);Rhodiaphos LV;STP;S 400 (phosphate);Thermphos NW;Rhodiaphos H 5;Rhodiaphos HPA 3.5;Nutriphos 0-88;Albriphos 50F;Rhodiaphos A 4010;Rhodiaphos A 70HG;Rhodiaphos C 90H;Rhodiaphos C 90S Blue TX;Polypray H;L 2209;Tripolyphosphate soda;Thermphos L 500;Wandetto B;Polypray STPP;Sodium metaphosphate oxide (Na<sub>5</sub>(PO<sub>3</sub>)<sub>3</sub>O);E 451i;STPP 20E;Phosphorus sodium oxide (P<sub>3</sub>Na<sub>5</sub>O<sub>10</sub>);Na<sub>5</sub>P<sub>3</sub>O<sub>10</sub>;T 5633;S 400 (mica);Z 002",
    "duplicated_cas_no": "9010-08-6;187620-23-1;860389-18-0;1350716-07-2;1610338-39-0;2093160-08-6;2247930-54-5;2640487-48-3",
    "SMILES": "O(P(OP(=O)(O)O)(=O)O)P(=O)(O)O.[Na]",
    "meta_data": {
        "InChI": "InChI=1S/5Na.H5O10P3/c;;;;;1-11(2,3)9-13(7,8)10-12(4,5)6/h;;;;;(H,7,8)(H2,1,2,3)(H2,4,5,6)",
        "InChIKey": null,
        "Canonical SMILES": "[Na].O=P(O)(O)OP(=O)(O)OP(=O)(O)O",
        "Molecular Formula": "H<sub>5</sub>O<sub>10</sub>P<sub>3</sub>.5Na",
        "Molecular Mass": "",
        "Melting Point": "622 °C",
        "Density": "2.52 g/cm³"
    }
}