{
    "cas_no": "546-93-0",
    "key_name": "Magnesium carbonate",
    "cn_name": null,
    "alternate_name": "Carbonic acid, magnesium salt (1:1);Magnesium carbonate;C.I. 77713;Carbonate magnesium;DCI Light Magnesium Carbonate;Stan-Mag Magnesium Carbonate;Magnesium carbonate (MgCO<sub>3</sub>);Magnesium carbonate (1:1);Apolda;Kimboshi;GP 20 (carbonate);GP 20;Destab;MA 70 (carbonate);Gold Star;Gold Star (carbonate);Magfy;Magnesite 33;CSC Book Saver;CSC Book Saver Spray;TT;TT (carbonate);Magnesium Carbonate Gold Star;MSL;MSHP;PMK 75;Frimiz MZ 1;MSPS;Magnesite MSS;SG-MGC 01;MSS;MSL-AM;Upsalite;GP 30N;A 106;A 106 (carbonate);CH 01;CH 01 (carbonate);CH 02;CH 02 (carbonate);Zehui ZH 4;ZH 4;Magthermo MS-L;Magthermo MS-PS;Magthermo MS-S;ZH 2L;M 1128;HM 800A",
    "duplicated_cas_no": "1784-39-0;364320-47-8;183480-27-5",
    "SMILES": "C(=O)(O)O.[Mg]",
    "meta_data": {
        "InChI": "InChI=1S/CH2O3.Mg/c2-1(3)4;/h(H2,2,3,4);",
        "InChIKey": null,
        "Canonical SMILES": "[Mg].O=C(O)O",
        "Molecular Formula": "CH<sub>2</sub>O<sub>3</sub>.Mg",
        "Molecular Mass": "",
        "Melting Point": "990 °C",
        "Density": "3.0 g/cm³"
    }
}