{
    "cas_no": "2102-59-2",
    "key_name": "(-)-<em>cis</em>-Carveol",
    "cn_name": "(-)-香芹酚;(-)-香芹酚;",
    "alternate_name": "2-Cyclohexen-1-ol, 2-methyl-5-(1-methylethenyl)-, (1<em>R</em>,5<em>R</em>)-;<em>p</em>-Mentha-6,8-dien-2-ol, (2<em>R</em>,4<em>R</em>)-(-)-;2-Cyclohexen-1-ol, 2-methyl-5-(1-methylethenyl)-, (1<em>R</em>-<em>cis</em>)-;(1<em>R</em>,5<em>R</em>)-2-Methyl-5-(1-methylethenyl)-2-cyclohexen-1-ol;<span class=\"text-smallcaps\">L</span>-<em>cis</em>-Carveol;Carveol, <em>cis</em>-(-)-;(-)-<em>cis</em>-Carveol;<em>cis</em>-(-)-Carveol;(1<em>R</em>,5<em>R</em>)-(-)-<em>cis</em>-Carveol;(1<em>R</em>-<em>cis</em>)-2-Methyl-5-isopropenyl-2-cyclohexen-1-ol;(1<em>R</em>)-<em>cis</em>-Carveol;(-)-(4<em>R</em>,6<em>R</em>)-Carveol;(2<em>R</em>,5<em>R</em>)-2-Methyl-5-(prop-1-en-2-yl)cyclohex-2-en-1-ol;(1<em>R</em>,5<em>R</em>)-2-Methyl-5-(prop-1-en-2-yl)cyclohex-2-en-1-ol;(<em>R</em>,<em>R</em>)-Carveol;(R,R)-Carveol;<em>cis</em>-<span class=\"text-smallcaps\">L</span>-Carveol",
    "duplicated_cas_no": "",
    "SMILES": "C(C)(=C)[C@H]1C[C@@H](O)C(C)=CC1",
    "meta_data": {
        "InChI": "InChI=1S/C10H16O/c1-7(2)9-5-4-8(3)10(11)6-9/h4,9-11H,1,5-6H2,2-3H3/t9-,10-/m1/s1",
        "InChIKey": null,
        "Canonical SMILES": "OC1C(=CCC(C(=C)C)C1)C",
        "Molecular Formula": "C<sub>10</sub>H<sub>16</sub>O",
        "Molecular Mass": "152.23",
        "Melting Point": "24-25 °C"
    }
}