{
    "cas_no": "1076-22-8",
    "key_name": "3-Methylxanthine",
    "cn_name": "3-甲基黄嘌呤;3,7-二氢-3-甲基-1H-嘌呤-2,6-二酮;",
    "alternate_name": "1<em>H</em>-Purine-2,6-dione, 3,9-dihydro-3-methyl-;Xanthine, 3-methyl-;1<em>H</em>-Purine-2,6-dione, 3,7-dihydro-3-methyl-;3,9-Dihydro-3-methyl-1<em>H</em>-purine-2,6-dione;3-Methylxanthine;3-Methyl-3,7-dihydro-1<em>H</em>-purine-2,6-dione;NSC 515466;3-Methyl-3,7-dihydropurine-2,6-dione;3-Methyl-2,3,6,9-tetrahydro-1<em>H</em>-purine-2,6-dione;3-Methyl-1<em>H</em>-purine-2,6(3<em>H</em>,7<em>H</em>)-dione;3-Methyl-3,9-dihydro-purine-2,6-dione;3-Methyl-7<em>H</em>-purine-2,6-dione;3-Methyl-2,3,6,7-tetrahydro-1<em>H</em>-purine-2,6-dione",
    "duplicated_cas_no": "",
    "SMILES": "CN1C2=C(C(=O)NC1=O)NC=N2",
    "meta_data": {
        "InChI": "InChI=1S/C6H6N4O2/c1-10-4-3(7-2-8-4)5(11)9-6(10)12/h2H,1H3,(H,7,8)(H,9,11,12)",
        "InChIKey": null,
        "Canonical SMILES": "O=C1NC(=O)N(C=2N=CNC12)C",
        "Molecular Formula": "C<sub>6</sub>H<sub>6</sub>N<sub>4</sub>O<sub>2</sub>",
        "Molecular Mass": "166.14",
        "Melting Point": "&gt;300 °C"
    }
}