{
    "cas_no": "56962-11-9",
    "key_name": "2-Chloro-4-hydroxybenzaldehyde",
    "cn_name": null,
    "alternate_name": "Benzaldehyde, 2-chloro-4-hydroxy-;2-Chloro-4-hydroxybenzaldehyde;<em>o</em>-Chloro-<em>p</em>-hydroxybenzaldehyde;3-Chloro-4-formylphenol",
    "duplicated_cas_no": "",
    "SMILES": "C(=O)C1=C(Cl)C=C(O)C=C1",
    "meta_data": {
        "InChI": "InChI=1S/C7H5ClO2/c8-7-3-6(10)2-1-5(7)4-9/h1-4,10H",
        "InChIKey": null,
        "Canonical SMILES": "O=CC1=CC=C(O)C=C1Cl",
        "Molecular Formula": "C<sub>7</sub>H<sub>5</sub>ClO<sub>2</sub>",
        "Molecular Mass": "156.57",
        "Melting Point": "144-145 °C"
    }
}