{
    "cas_no": "929-37-3",
    "key_name": "Diethylene glycol monovinyl ether",
    "cn_name": "二乙二醇单乙烯基醚;",
    "alternate_name": "Ethanol, 2-[2-(ethenyloxy)ethoxy]-;Ethanol, 2-[2-(vinyloxy)ethoxy]-;2-[2-(Ethenyloxy)ethoxy]ethanol;Diethylene glycol monovinyl ether;2-[2-(Vinyloxy)ethoxy]ethanol;NSC 8267;2-(Hydroxyethoxy)ethyl vinyl ether;1-Vinyloxy-5-hydroxy-3-oxapentane;2-(2-Hydroxyethoxy)ethyl vinyl ether;2-(2-Ethenoxyethoxy)ethanol;EM 2241H",
    "duplicated_cas_no": "2708983-89-3",
    "SMILES": "C(COC=C)OCCO",
    "meta_data": {
        "InChI": "InChI=1S/C6H12O3/c1-2-8-5-6-9-4-3-7/h2,7H,1,3-6H2",
        "InChIKey": null,
        "Canonical SMILES": "OCCOCCOC=C",
        "Molecular Formula": "C<sub>6</sub>H<sub>12</sub>O<sub>3</sub>",
        "Molecular Mass": "132.16",
        "Boiling Point": "78-79 °C @ Press: 2.5 Torr",
        "Density": "1.0267 g/cm³ @ Temp: 20 °C"
    }
}