{
    "cas_no": "14678-02-5",
    "key_name": "5-Amino-3-methylisoxazole",
    "cn_name": null,
    "alternate_name": "5-Isoxazolamine, 3-methyl-;Isoxazole, 5-amino-3-methyl-;3-Methyl-5-isoxazolamine;3-Methyl-5-aminoisoxazole;5-Amino-3-methylisoxazole;5-Amino-3-methyl-1,2-oxazole;3-Methyl-5-isoxazolylamine;NSC 93421;3-Methyl-1,2-oxazol-5-ylamine;3-Methyl-1,2-oxazol-5-amine",
    "duplicated_cas_no": "",
    "SMILES": "CC=1C=C(N)ON1",
    "meta_data": {
        "InChI": "InChI=1S/C4H6N2O/c1-3-2-4(5)7-6-3/h2H,5H2,1H3",
        "InChIKey": null,
        "Canonical SMILES": "N=1OC(N)=CC1C",
        "Molecular Formula": "C<sub>4</sub>H<sub>6</sub>N<sub>2</sub>O",
        "Molecular Mass": "98.10",
        "Melting Point": "84-85 °C",
        "Density": "1.14 g/cm³ @ Temp: 25.000 °C; Press: 750 Torr"
    }
}