{
    "cas_no": "50-98-6",
    "key_name": "(-)-Ephedrine hydrochloride",
    "cn_name": "盐酸麻黄碱;(1R,2S)-2-甲氨基-苯丙烷-1-醇盐酸盐;",
    "alternate_name": "Benzenemethanol, α-[(1<em>S</em>)-1-(methylamino)ethyl]-, hydrochloride (1:1), (α<em>R</em>)-;Ephedrine, hydrochloride, (-)-;Benzenemethanol, α-[1-(methylamino)ethyl]-, hydrochloride, [<em>R</em>-(<em>R</em>*,<em>S</em>*)]-;Benzenemethanol, α-[(1<em>S</em>)-1-(methylamino)ethyl]-, hydrochloride, (α<em>R</em>)-;Ephedrine hydrochloride;<em>l</em>-Ephedrine hydrochloride;(-)-Ephedrine hydrochloride;<em>l</em>-α-[1-(Methylamino)ethyl]benzyl alcohol hydrochloride;Ephedrinium chloride;(1<em>R</em>,2<em>S</em>)-(-)-Ephedrine hydrochloride;<span class=\"text-smallcaps\">L</span>-<em>erythro</em>-Ephedrine hydrochloride;l-Ephedrine hydrochloride;Altusin;<span class=\"text-smallcaps\">L</span>-Ephedrine hydrochloride;(-)-Ephedrin hydrochloride;Ephedronguent;(1<em>R</em>,2<em>S</em>)-Ephedrine hydrochloride;CPDD 0047;Ephedral;Sanedrine;(1<em>R</em>,2<em>S</em>)-(-)-2-Ephedrinium hydrochloride;Enurace",
    "duplicated_cas_no": "877-36-1;7060-73-3;14992-57-5;15826-51-4",
    "SMILES": "[C@@H]([C@@H](NC)C)(O)C1=CC=CC=C1.Cl",
    "meta_data": {
        "InChI": "InChI=1S/C10H15NO.ClH/c1-8(11-2)10(12)9-6-4-3-5-7-9;/h3-8,10-12H,1-2H3;1H/t8-,10-;/m0./s1",
        "InChIKey": null,
        "Canonical SMILES": "Cl.OC(C=1C=CC=CC1)C(NC)C",
        "Molecular Formula": "C<sub>10</sub>H<sub>15</sub>NO.ClH",
        "Molecular Mass": "",
        "Melting Point": "218 °C"
    }
}