{
    "cas_no": "528-53-0",
    "key_name": "Delphinidin chloride",
    "cn_name": "氯化花翠素;氯化花翠素;",
    "alternate_name": "1-Benzopyrylium, 3,5,7-trihydroxy-2-(3,4,5-trihydroxyphenyl)-, chloride (1:1);Flavylium, 3,3′,4′,5,5′,7-hexahydroxy-, chloride;1-Benzopyrylium, 3,5,7-trihydroxy-2-(3,4,5-trihydroxyphenyl)-, chloride;Delphinidin;Delphinidin chloride;Ephdine;3,3′,4′,5,5′,7-Hexahydroxyflavylium chloride;3,3′,4′,5,5′,7-Hexahydroxy-2-phenylbenzopyrylium chloride;Delphinidine;Delphinidol;Delfinidol chloride;IdB 1056",
    "duplicated_cas_no": "",
    "SMILES": "OC=1C(=[O+]C2=C(C1)C(O)=CC(O)=C2)C3=CC(O)=C(O)C(O)=C3.[Cl-]",
    "meta_data": {
        "InChI": "InChI=1S/C15H10O7.ClH/c16-7-3-9(17)8-5-12(20)15(22-13(8)4-7)6-1-10(18)14(21)11(19)2-6;/h1-5H,(H5-,16,17,18,19,20,21);1H",
        "InChIKey": null,
        "Canonical SMILES": "[Cl-].OC=1C=C(O)C=2C=C(O)C(=[O+]C2C1)C=3C=C(O)C(O)=C(O)C3",
        "Molecular Formula": "C<sub>15</sub>H<sub>11</sub>O<sub>7</sub>.Cl",
        "Molecular Mass": "",
        "Melting Point": "&gt;350 °C"
    }
}