{
    "cas_no": "557-25-5",
    "key_name": "2,3-Dihydroxypropyl butanoate",
    "cn_name": null,
    "alternate_name": "Butanoic acid, 2,3-dihydroxypropyl ester;Butyrin, 1-mono-;2,3-Dihydroxypropyl butanoate;Glycerol-α-mono-<em>n</em>-butyrate;α-Monobutyrin;2,3-Dihydroxypropyl butyrate;Glycerol α-monobutyrate;1-Monobutyrin;Glyceryl 3-monobutyrate;NSC 8451;Glycerol 1-monobutyrate",
    "duplicated_cas_no": "116909-74-1",
    "SMILES": "O(CC(CO)O)C(CCC)=O",
    "meta_data": {
        "InChI": "InChI=1S/C7H14O4/c1-2-3-7(10)11-5-6(9)4-8/h6,8-9H,2-5H2,1H3",
        "InChIKey": null,
        "Canonical SMILES": "O=C(OCC(O)CO)CCC",
        "Molecular Formula": "C<sub>7</sub>H<sub>14</sub>O<sub>4</sub>",
        "Molecular Mass": "162.18",
        "Boiling Point": "280 °C"
    }
}