{
    "cas_no": "59756-60-4",
    "key_name": "Fluridone",
    "cn_name": "氟啶酮;1-甲基-3-苯基-5-(3-三氟甲基苯基)-4(1H)-吡啶酮;",
    "alternate_name": "4(1<em>H</em>)-Pyridinone, 1-methyl-3-phenyl-5-[3-(trifluoromethyl)phenyl]-;1-Methyl-3-phenyl-5-[3-(trifluoromethyl)phenyl]-4(1<em>H</em>)-pyridinone;EL 171;Fluridone;Sonar",
    "duplicated_cas_no": "",
    "SMILES": "O=C1C(=CN(C)C=C1C2=CC=CC=C2)C3=CC(C(F)(F)F)=CC=C3",
    "meta_data": {
        "InChI": "InChI=1S/C19H14F3NO/c1-23-11-16(13-6-3-2-4-7-13)18(24)17(12-23)14-8-5-9-15(10-14)19(20,21)22/h2-12H,1H3",
        "InChIKey": null,
        "Canonical SMILES": "O=C1C(=CN(C=C1C=2C=CC=C(C2)C(F)(F)F)C)C=3C=CC=CC3",
        "Molecular Formula": "C<sub>19</sub>H<sub>14</sub>F<sub>3</sub>NO",
        "Molecular Mass": "329.32",
        "Melting Point": "155 °C"
    }
}