{
    "cas_no": "76527-25-8",
    "key_name": "2-Oxiranecarboxylic acid, 3,3-diphenyl-, methyl ester",
    "cn_name": "3, 3-二苯基-2,3-环氧丙酸甲酯;",
    "alternate_name": "2-Oxiranecarboxylic acid, 3,3-diphenyl-, methyl ester;Oxiranecarboxylic acid, 3,3-diphenyl-, methyl ester;Methyl 3,3-diphenyl-2,3-epoxypropionate;Methyl 3,3-diphenyloxirane-2-carboxylate;3,3-Diphenyl-2,3-epoxypropanoic acid methyl ester",
    "duplicated_cas_no": "",
    "SMILES": "C(OC)(=O)C1C(O1)(C2=CC=CC=C2)C3=CC=CC=C3",
    "meta_data": {
        "InChI": "InChI=1S/C16H14O3/c1-18-15(17)14-16(19-14,12-8-4-2-5-9-12)13-10-6-3-7-11-13/h2-11,14H,1H3",
        "InChIKey": null,
        "Canonical SMILES": "O=C(OC)C1OC1(C=2C=CC=CC2)C=3C=CC=CC3",
        "Molecular Formula": "C<sub>16</sub>H<sub>14</sub>O<sub>3</sub>",
        "Molecular Mass": "254.28",
        "Boiling Point": "174-175 °C @ Press: 5 Torr",
        "Melting Point": "56-57 °C"
    }
}