{
    "cas_no": "51059-44-0",
    "key_name": "Wogonoside",
    "cn_name": null,
    "alternate_name": "β-<span class=\"text-smallcaps\">D</span>-Glucopyranosiduronic acid, 5-hydroxy-8-methoxy-4-oxo-2-phenyl-4<em>H</em>-1-benzopyran-7-yl;5-Hydroxy-8-methoxy-4-oxo-2-phenyl-4<em>H</em>-1-benzopyran-7-yl β-<span class=\"text-smallcaps\">D</span>-glucopyranosiduronic acid;Wogonoside;Wogonin 7-β-<span class=\"text-smallcaps\">D</span>-glucuronide;Wogonin 7-glucuronide;Oroxindin;Wogonin 7-<em>O</em>-glucuronide;Wogonin 7-<em>O</em>-β-<span class=\"text-smallcaps\">D</span>-glucuronide;Wogonin 7-<em>O</em>-β-<span class=\"text-smallcaps\">D</span>-glucuronopyranoside;Glychionide B",
    "duplicated_cas_no": "",
    "SMILES": "O(C)C1=C2C(=C(O)C=C1O[C@@H]3O[C@H](C(O)=O)[C@@H](O)[C@H](O)[C@H]3O)C(=O)C=C(O2)C4=CC=CC=C4",
    "meta_data": {
        "InChI": "InChI=1S/C22H20O11/c1-30-18-13(32-22-17(27)15(25)16(26)20(33-22)21(28)29)8-11(24)14-10(23)7-12(31-19(14)18)9-5-3-2-4-6-9/h2-8,15-17,20,22,24-27H,1H3,(H,28,29)/t15-,16-,17+,20-,22+/m0/s1",
        "InChIKey": null,
        "Canonical SMILES": "O=C(O)C1OC(OC2=CC(O)=C3C(=O)C=C(OC3=C2OC)C=4C=CC=CC4)C(O)C(O)C1O",
        "Molecular Formula": "C<sub>22</sub>H<sub>20</sub>O<sub>11</sub>",
        "Molecular Mass": "460.39",
        "Melting Point": "228-229 °C"
    }
}