{
    "cas_no": "2495-39-8",
    "key_name": "Sodium allylsulfonate",
    "cn_name": "烯丙基磺酸钠;丙烯磺酸钠;ALS;",
    "alternate_name": "2-Propene-1-sulfonic acid, sodium salt (1:1);2-Propene-1-sulfonic acid, sodium salt;Sodium allylsulfonate;Sodium 2-propene-1-sulfonate;Sodium 1-propene-3-sulfonate;Allylsulfonic acid, sodium salt",
    "duplicated_cas_no": "96105-94-1;1233322-44-5",
    "SMILES": "C(S(=O)(=O)O)C=C.[Na]",
    "meta_data": {
        "InChI": "InChI=1S/C3H6O3S.Na/c1-2-3-7(4,5)6;/h2H,1,3H2,(H,4,5,6);",
        "InChIKey": null,
        "Canonical SMILES": "[Na].O=S(=O)(O)CC=C",
        "Molecular Formula": "C<sub>3</sub>H<sub>6</sub>O<sub>3</sub>S.Na",
        "Molecular Mass": "",
        "Melting Point": "242 °C (decomp)"
    }
}