{
    "cas_no": "108-43-0",
    "key_name": "3-Chlorophenol",
    "cn_name": "3-氯苯酚;间氯苯酚;",
    "alternate_name": "Phenol, 3-chloro-;Phenol, <em>m</em>-chloro-;3-Chlorophenol;<em>m</em>-Chlorophenol;3-Hydroxychlorobenzene;<em>m</em>-Chlorophenic acid;NSC 59700;1-Chloro-3-hydroxybenzene",
    "duplicated_cas_no": "",
    "SMILES": "ClC1=CC(O)=CC=C1",
    "meta_data": {
        "InChI": "InChI=1S/C6H5ClO/c7-5-2-1-3-6(8)4-5/h1-4,8H",
        "InChIKey": null,
        "Canonical SMILES": "ClC1=CC=CC(O)=C1",
        "Molecular Formula": "C<sub>6</sub>H<sub>5</sub>ClO",
        "Molecular Mass": "128.56",
        "Boiling Point": "214 °C @ Press: 760 Torr",
        "Melting Point": "32.6 °C",
        "Density": "1.268 g/cm³ @ Temp: 25 °C"
    }
}