{
    "cas_no": "61049-69-2",
    "key_name": "3-Benzyloxy-2-methyl-4-pyrone",
    "cn_name": null,
    "alternate_name": "4<em>H</em>-Pyran-4-one, 2-methyl-3-(phenylmethoxy)-;2-Methyl-3-(phenylmethoxy)-4<em>H</em>-pyran-4-one;Maltol benzyl ether;3-Benzyloxy-2-methyl-4-pyrone;Benzylmaltol;3-<em>O</em>-Benzylmaltol;3-(Benzyloxy)-2-methyl-4<em>H</em>-pyran-4-one;3-(Benzyloxy)-2-methyl-4-oxo-4<em>H</em>-pyran;3-Benzyloxy-2-methyl-pyran-4-one;2-Methyl-3-phenylmethoxypyran-4-one",
    "duplicated_cas_no": "",
    "SMILES": "O(CC1=CC=CC=C1)C=2C(=O)C=COC2C",
    "meta_data": {
        "InChI": "InChI=1S/C13H12O3/c1-10-13(12(14)7-8-15-10)16-9-11-5-3-2-4-6-11/h2-8H,9H2,1H3",
        "InChIKey": null,
        "Canonical SMILES": "O=C1C=COC(=C1OCC=2C=CC=CC2)C",
        "Molecular Formula": "C<sub>13</sub>H<sub>12</sub>O<sub>3</sub>",
        "Molecular Mass": "216.23",
        "Boiling Point": "166-168 °C @ Press: 4 Torr",
        "Melting Point": "56-57 °C"
    }
}