{
    "cas_no": "126-18-1",
    "key_name": "Smilagenin",
    "cn_name": "菝葜;菝葜;",
    "alternate_name": "Spirostan-3-ol, (3β,5β,25<em>R</em>)-;Smilagenin;5β-Spirostan-3β-ol, (25<em>R</em>)-;Spiro[8<em>H</em>-naphth[2′,1′:4,5]indeno[2,1-<em>b</em>]furan-8,2′-[2<em>H</em>]pyran], spirostan-3-ol deriv.;(3β,5β,25<em>R</em>)-Spirostan-3-ol;Isosarsasapogenin;(25<em>R</em>)-5β-Spirostan-3β-ol;Esmilagenin;NSC 93747;PYM 50028;Cogane",
    "duplicated_cas_no": "",
    "SMILES": "C[C@@H]1[C@]2(O[C@@]3([C@]1([C@]4(C)[C@@](C3)([C@]5([C@](CC4)([C@]6(C)[C@](CC5)(C[C@@H](O)CC6)[H])[H])[H])[H])[H])[H])CC[C@@H](C)CO2",
    "meta_data": {
        "InChI": "InChI=1S/C27H44O3/c1-16-7-12-27(29-15-16)17(2)24-23(30-27)14-22-20-6-5-18-13-19(28)8-10-25(18,3)21(20)9-11-26(22,24)4/h16-24,28H,5-15H2,1-4H3/t16-,17+,18-,19+,20-,21+,22+,23+,24+,25+,26+,27-/m1/s1",
        "InChIKey": null,
        "Canonical SMILES": "OC1CCC2(C)C(CCC3C2CCC4(C)C3CC5OC6(OCC(C)CC6)C(C)C54)C1",
        "Molecular Formula": "C<sub>27</sub>H<sub>44</sub>O<sub>3</sub>",
        "Molecular Mass": "416.64",
        "Melting Point": "185 °C"
    }
}