{
    "cas_no": "149-74-6",
    "key_name": "Dichloromethylphenylsilane",
    "cn_name": "甲基苯基二氯硅烷;",
    "alternate_name": "Benzene, (dichloromethylsilyl)-;Silane, dichloromethylphenyl-;(Dichloromethylsilyl)benzene;Dichloromethylphenylsilane;Phenylmethyldichlorosilane;Methylphenyldichlorosilane;Phenyldichloro(methyl)silane;Dichlorophenylmethylsilane;LS 1490;TSL 8067;NSC 96621",
    "duplicated_cas_no": "155684-41-6;199330-98-8",
    "SMILES": "[Si](C)(Cl)(Cl)C1=CC=CC=C1",
    "meta_data": {
        "InChI": "InChI=1S/C7H8Cl2Si/c1-10(8,9)7-5-3-2-4-6-7/h2-6H,1H3",
        "InChIKey": null,
        "Canonical SMILES": "Cl[Si](Cl)(C=1C=CC=CC1)C",
        "Molecular Formula": "C<sub>7</sub>H<sub>8</sub>Cl<sub>2</sub>Si",
        "Molecular Mass": "191.13",
        "Boiling Point": "206.5 °C",
        "Melting Point": "-53 °C",
        "Density": "1.1866 g/cm³ @ Temp: 20 °C"
    }
}