{
    "cas_no": "591-08-2",
    "key_name": "Acetylthiourea",
    "cn_name": null,
    "alternate_name": "Acetamide, <em>N</em>-(aminothioxomethyl)-;Urea, 1-acetyl-2-thio-;<em>N</em>-(Aminothioxomethyl)acetamide;Acetylthiourea;<em>N</em>-Acetylthiourea;1-Acetyl-2-thiourea;1-Acetylthiourea;Acetothiourea;<em>N</em>-Acetylthiocarbamide;<em>N</em>-Acetyl-2-thiourea;Acetylthiocarbamide;NSC 7597",
    "duplicated_cas_no": "",
    "SMILES": "N(C(C)=O)C(N)=S",
    "meta_data": {
        "InChI": "InChI=1S/C3H6N2OS/c1-2(6)5-3(4)7/h1H3,(H3,4,5,6,7)",
        "InChIKey": null,
        "Canonical SMILES": "O=C(NC(=S)N)C",
        "Molecular Formula": "C<sub>3</sub>H<sub>6</sub>N<sub>2</sub>OS",
        "Molecular Mass": "118.16",
        "Melting Point": "165 °C"
    }
}