{
    "cas_no": "122-07-6",
    "key_name": "(Methylamino)acetaldehyde dimethyl acetal",
    "cn_name": "甲氨基乙醛缩二甲醇;",
    "alternate_name": "Ethanamine, 2,2-dimethoxy-<em>N</em>-methyl-;Acetaldehyde, (methylamino)-, dimethyl acetal;2,2-Dimethoxy-<em>N</em>-methylethanamine;(<em>N</em>-Methylamino)acetaldehyde dimethyl acetal;2,2-Dimethoxy-<em>N</em>-methylethylamine;2-(Methylamino)acetaldehyde dimethyl acetal;(Methylamino)acetaldehyde dimethyl acetal;<em>N</em>-(2,2-Dimethoxyethyl)methanamine;<em>N</em>-(2,2-Dimethoxyethyl)methylamine;Sarcosinal dimethyl acetal;1-(Methylamino)-2,2-dimethoxyethane;Methyl(2,2-dimethoxyethyl)amine;NSC 66270;<em>N</em>-(2,2-Dimethoxyethyl)-<em>N</em>-methylamine;(2,2-Dimethoxyethyl)methylamine;<em>N</em>-Methyl(2,2-dimethoxyethyl)amine;<em>N</em>-Methyl-2,2-dimethoxyethanamine;2,2-Dimethoxy-<em>N</em>-methylethan-1-amine",
    "duplicated_cas_no": "",
    "SMILES": "C(CNC)(OC)OC",
    "meta_data": {
        "InChI": "InChI=1S/C5H13NO2/c1-6-4-5(7-2)8-3/h5-6H,4H2,1-3H3",
        "InChIKey": null,
        "Canonical SMILES": "O(C)C(OC)CNC",
        "Molecular Formula": "C<sub>5</sub>H<sub>13</sub>NO<sub>2</sub>",
        "Molecular Mass": "119.16",
        "Boiling Point": "140 °C"
    }
}