{
    "cas_no": "97096-13-4",
    "key_name": "Benzoic acid, 2-amino-3,5-dibromo-, hydrazide",
    "cn_name": null,
    "alternate_name": "Benzoic acid, 2-amino-3,5-dibromo-, hydrazide;2-Amino-3,5-dibromobenzoic acid hydrazide;2-Amino-3,5-dibromobenzene-1-carbohydrazide;2-Amino-3,5-dibromobenzohydrazide",
    "duplicated_cas_no": "",
    "SMILES": "C(NN)(=O)C1=C(N)C(Br)=CC(Br)=C1",
    "meta_data": {
        "InChI": "InChI=1S/C7H7Br2N3O/c8-3-1-4(7(13)12-11)6(10)5(9)2-3/h1-2H,10-11H2,(H,12,13)",
        "InChIKey": null,
        "Canonical SMILES": "O=C(NN)C=1C=C(Br)C=C(Br)C1N",
        "Molecular Formula": "C<sub>7</sub>H<sub>7</sub>Br<sub>2</sub>N<sub>3</sub>O",
        "Molecular Mass": "308.96",
        "Melting Point": "190-192 °C"
    }
}