{
    "cas_no": "3179-89-3",
    "key_name": "Disperse Red 17",
    "cn_name": null,
    "alternate_name": "Ethanol, 2,2′-[[3-methyl-4-[2-(4-nitrophenyl)diazenyl]phenyl]imino]bis-;C.I. Disperse Red 17;Ethanol, 2,2′-[[3-methyl-4-[(4-nitrophenyl)azo]phenyl]imino]bis-;Ethanol, 2,2′-[4-(<em>p</em>-nitrophenylazo)-<em>m</em>-tolylimino]di-;2,2′-[[3-Methyl-4-[2-(4-nitrophenyl)diazenyl]phenyl]imino]bis[ethanol];C.I. 11210;Acetamine Red BE;Acetoquinone Light Red BZ;Amacel Red AB;Amacel Red GG;Calcosyn Red GG;Celliton Discharge Red GGL;Celliton Fast Red GG;Celliton Fast Red GGA-CF;Celutate Red R;Cibacete Red YNB;Cibacet Red 2G;Cilla Fast Red GG;Diacelliton Fast Red R;Diacelliton Red RF;Disperse Red R;Eastone Red R;Fenacet Fast Red 2G;Interchem Acetate Red RN;Interchem Hisperse Red RH;Kayalon Fast Red R;Miketon Fast Red R;Monocel Red GG;Nacelan Red AB;Nyloquinone Red BN;Palanil Red GG;Perliton Red 3B;Reliton GG;Serisol Fast Red 2RDX;Setacyl Red R;Supracet Fast Red G;Celliton Red GG;Disperse Red 17;4-Nitro-4′-[bis(2-hydroxyethyl)amino]-2′-methylazobenzene;4-[Bis(2-hydroxyethyl)amino]-2-methyl-4′-nitroazobenzene;Diacelliton Red R-M/D;Synten Red 2G;Ostacet Red P 2G;Intrasperse Red YNB;3-Methyl-4-(4′-nitrophenylazo)-<em>N</em>,<em>N</em>-bis(2-hydroxyethyl)aniline;Akasperse Red 2G",
    "duplicated_cas_no": "1081536-14-2",
    "SMILES": "N(CCO)(CCO)C1=CC(C)=C(N=NC2=CC=C(N(=O)=O)C=C2)C=C1",
    "meta_data": {
        "InChI": "InChI=1S/C17H20N4O4/c1-13-12-16(20(8-10-22)9-11-23)6-7-17(13)19-18-14-2-4-15(5-3-14)21(24)25/h2-7,12,22-23H,8-11H2,1H3",
        "InChIKey": null,
        "Canonical SMILES": "O=N(=O)C1=CC=C(N=NC2=CC=C(C=C2C)N(CCO)CCO)C=C1",
        "Molecular Formula": "C<sub>17</sub>H<sub>20</sub>N<sub>4</sub>O<sub>4</sub>",
        "Molecular Mass": "344.37",
        "Melting Point": "160 °C"
    }
}