{
    "cas_no": "85509-19-9",
    "key_name": "Flusilazole",
    "cn_name": null,
    "alternate_name": "1<em>H</em>-1,2,4-Triazole, 1-[[bis(4-fluorophenyl)methylsilyl]methyl]-;1-[[Bis(4-fluorophenyl)methylsilyl]methyl]-1<em>H</em>-1,2,4-triazole;DPX-H 6573;Flusilazole;Flusilazol;Punch;Punch (pesticide);Nustar;DPD 78710F;DPX-N 6573;Punch 40EC;Lyric;Olymp;Olymp 10EX;Sanction;Benocarp;Punch Bis;Capitan;Cane Strike;Cursor;Bis(4-fluorophenyl)methyl(1<em>H</em>-1,2,4-triazole-1-ylmethyl)silane;Genie;Genie (fungicide);Genie 25",
    "duplicated_cas_no": "96827-34-8;1135441-07-4",
    "SMILES": "[Si](CN1C=NC=N1)(C)(C2=CC=C(F)C=C2)C3=CC=C(F)C=C3",
    "meta_data": {
        "InChI": "InChI=1S/C16H15F2N3Si/c1-22(12-21-11-19-10-20-21,15-6-2-13(17)3-7-15)16-8-4-14(18)5-9-16/h2-11H,12H2,1H3",
        "InChIKey": null,
        "Canonical SMILES": "FC1=CC=C(C=C1)[Si](C2=CC=C(F)C=C2)(C)CN3N=CN=C3",
        "Molecular Formula": "C<sub>16</sub>H<sub>15</sub>F<sub>2</sub>N<sub>3</sub>Si",
        "Molecular Mass": "315.39",
        "Boiling Point": "393.00 °C",
        "Melting Point": "54 °C"
    }
}