{
    "cas_no": "823221-97-2",
    "key_name": "3-Bromo-5-chloro-2-iodopyridine",
    "cn_name": null,
    "alternate_name": "Pyridine, 3-bromo-5-chloro-2-iodo-;3-Bromo-5-chloro-2-iodopyridine;2-Iodo-3-bromo-5-chloropyridine",
    "duplicated_cas_no": "",
    "SMILES": "BrC1=C(I)N=CC(Cl)=C1",
    "meta_data": {
        "InChI": "InChI=1S/C5H2BrClIN/c6-4-1-3(7)2-9-5(4)8/h1-2H",
        "InChIKey": null,
        "Canonical SMILES": "ClC1=CN=C(I)C(Br)=C1",
        "Molecular Formula": "C<sub>5</sub>H<sub>2</sub>BrClIN",
        "Molecular Mass": "318.34",
        "Melting Point": "58-60 °C"
    }
}