{
    "cas_no": "117-39-5",
    "key_name": "Quercetin",
    "cn_name": "槲皮素;3,3\",4\",5,7-五羟基黄酮;",
    "alternate_name": "4<em>H</em>-1-Benzopyran-4-one, 2-(3,4-dihydroxyphenyl)-3,5,7-trihydroxy-;Flavone, 3,3′,4′,5,7-pentahydroxy-;Flavone, 3,4′,5,5′,7-pentahydroxy-;2-(3,4-Dihydroxyphenyl)-3,5,7-trihydroxy-4<em>H</em>-1-benzopyran-4-one;C.I. 75670;Meletin;3,5,7,3′,4′-Pentahydroxyflavone;Quercetin;Quercetine;Quercetol;Quertine;Sophoretin;Xanthaurine;3,3′,4′,5,7-Pentahydroxyflavone;Cyanidelonon 1522;Quertin;NSC 57655;NSC 9219;2-(3,4-Dihydroxyphenyl)-3,5,7-trihydroxy-4<em>H</em>-benzopyran-4-one;Corvitin;Korvitin;3′-Hydroxykaempferol;LDN 0052529;Lipoflavon;3,5,7-Trihydroxy-2-(3,4-dihydroxyphenyl)-4<em>H</em>-chromen-4-one;2-(3,4-Dihydroxyphenyl)-3,5,7-trihydroxychromen-4-one;2-(3,4-Dihydroxyphenyl)-3,5,7-trihydroxy-4<em>H</em>-chromen-4-one;TCM 5280343;Quercevita;MeSH ID: D011794",
    "duplicated_cas_no": "73123-10-1;74893-81-5",
    "SMILES": "O=C1C=2C(OC(=C1O)C3=CC(O)=C(O)C=C3)=CC(O)=CC2O",
    "meta_data": {
        "InChI": "InChI=1S/C15H10O7/c16-7-4-10(19)12-11(5-7)22-15(14(21)13(12)20)6-1-2-8(17)9(18)3-6/h1-5,16-19,21H",
        "InChIKey": null,
        "Canonical SMILES": "O=C1C(O)=C(OC=2C=C(O)C=C(O)C12)C=3C=CC(O)=C(O)C3",
        "Molecular Formula": "C<sub>15</sub>H<sub>10</sub>O<sub>7</sub>",
        "Molecular Mass": "302.24",
        "Melting Point": "316.5 °C"
    }
}