{
    "cas_no": "4245-37-8",
    "key_name": "Vinyl methacrylate",
    "cn_name": null,
    "alternate_name": "2-Propenoic acid, 2-methyl-, ethenyl ester;Methacrylic acid, vinyl ester;Vinyl methacrylate;NSC 32618",
    "duplicated_cas_no": "",
    "SMILES": "C(OC=C)(C(C)=C)=O",
    "meta_data": {
        "InChI": "InChI=1S/C6H8O2/c1-4-8-6(7)5(2)3/h4H,1-2H2,3H3",
        "InChIKey": null,
        "Canonical SMILES": "O=C(OC=C)C(=C)C",
        "Molecular Formula": "C<sub>6</sub>H<sub>8</sub>O<sub>2</sub>",
        "Molecular Mass": "112.13",
        "Boiling Point": "61-63 °C @ Press: 150 Torr",
        "Density": "0.9430 g/cm³ @ Temp: 20 °C"
    }
}