{
    "cas_no": "19840-99-4",
    "key_name": "7-Amino-4-methyl-2-quinolinone",
    "cn_name": null,
    "alternate_name": "2(1<em>H</em>)-Quinolinone, 7-amino-4-methyl-;Carbostyril, 7-amino-4-methyl-;7-Amino-4-methyl-2(1<em>H</em>)-quinolinone;2-Hydroxy-4-methyl-7-aminoquinoline;4-Methyl-7-aminocarbostyril;7-Amino-4-methyl-2-quinolinone;Carbostyril 124;7-Amino-4-methyl-2-quinolone;7-Amino-4-methylcarbostyril;Carbostyryl 7;7-Amino-2-hydroxy-4-methylquinoline",
    "duplicated_cas_no": "26078-22-8;148125-55-7",
    "SMILES": "CC=1C=2C(NC(=O)C1)=CC(N)=CC2",
    "meta_data": {
        "InChI": "InChI=1S/C10H10N2O/c1-6-4-10(13)12-9-5-7(11)2-3-8(6)9/h2-5H,11H2,1H3,(H,12,13)",
        "InChIKey": null,
        "Canonical SMILES": "O=C1C=C(C=2C=CC(N)=CC2N1)C",
        "Molecular Formula": "C<sub>10</sub>H<sub>10</sub>N<sub>2</sub>O",
        "Molecular Mass": "174.20",
        "Melting Point": "274 °C"
    }
}