{
    "cas_no": "29122-69-8",
    "key_name": "Benzeneacetamide, 4-(oxiranylmethoxy)-",
    "cn_name": null,
    "alternate_name": "Benzeneacetamide, 4-(2-oxiranylmethoxy)-;Acetamide, 2-[<em>p</em>-(2,3-epoxypropoxy)phenyl]-;Benzeneacetamide, 4-(oxiranylmethoxy)-;4-(2-Oxiranylmethoxy)benzeneacetamide;4-(2,3-Oxidopropoxy)phenylacetamide;4-(2,3-Epoxypropoxy)phenylacetamide;1-(<em>p</em>-Carbamoylmethylphenoxy)-2,3-epoxypropane;2-[4-(Oxiran-2-ylmethoxy)phenyl]acetamide",
    "duplicated_cas_no": "144015-95-2",
    "SMILES": "O(CC1CO1)C2=CC=C(CC(N)=O)C=C2",
    "meta_data": {
        "InChI": "InChI=1S/C11H13NO3/c12-11(13)5-8-1-3-9(4-2-8)14-6-10-7-15-10/h1-4,10H,5-7H2,(H2,12,13)",
        "InChIKey": null,
        "Canonical SMILES": "O=C(N)CC1=CC=C(OCC2OC2)C=C1",
        "Molecular Formula": "C<sub>11</sub>H<sub>13</sub>NO<sub>3</sub>",
        "Molecular Mass": "207.23",
        "Melting Point": "172-173 °C"
    }
}