{
    "cas_no": "1516-27-4",
    "key_name": "2-Propen-1-aminium, <em>N</em>,<em>N</em>,<em>N</em>-trimethyl-, chloride (1:1)",
    "cn_name": "烯丙基三甲基氯化铵;烯丙基三甲基氯化铵;",
    "alternate_name": "2-Propen-1-aminium, <em>N</em>,<em>N</em>,<em>N</em>-trimethyl-, chloride (1:1);Ammonium, allyltrimethyl-, chloride;2-Propen-1-aminium, <em>N</em>,<em>N</em>,<em>N</em>-trimethyl-, chloride;Allyltrimethylammonium chloride;Trimethylallylammonium chloride",
    "duplicated_cas_no": "",
    "SMILES": "C([N+](C)(C)C)C=C.[Cl-]",
    "meta_data": {
        "InChI": "InChI=1S/C6H14N.ClH/c1-5-6-7(2,3)4;/h5H,1,6H2,2-4H3;1H/q+1;/p-1",
        "InChIKey": null,
        "Canonical SMILES": "[Cl-].C=CC[N+](C)(C)C",
        "Molecular Formula": "C<sub>6</sub>H<sub>14</sub>N.Cl",
        "Molecular Mass": "",
        "Melting Point": "185-186 °C"
    }
}