{
    "cas_no": "4806-79-5",
    "key_name": "4-Chloro-β-methylbenzeneethanamine",
    "cn_name": "p-Chloro-beta-methylphenethylaminehydrochloride;",
    "alternate_name": "Benzeneethanamine, 4-chloro-β-methyl-;Phenethylamine, <em>p</em>-chloro-β-methyl-;4-Chloro-β-methylbenzeneethanamine;2-(<em>p</em>-Chlorophenyl)propylamine;<em>p</em>-Chloro-β-methylphenylethylamine;2-(4-Chlorophenyl)-1-propylamine;2-(4-Chlorophenyl)propan-1-amine;2-(4-Chlorophenyl)propylamine",
    "duplicated_cas_no": "58114-78-6",
    "SMILES": "C(CN)(C)C1=CC=C(Cl)C=C1",
    "meta_data": {
        "InChI": "InChI=1S/C9H12ClN/c1-7(6-11)8-2-4-9(10)5-3-8/h2-5,7H,6,11H2,1H3",
        "InChIKey": null,
        "Canonical SMILES": "ClC1=CC=C(C=C1)C(C)CN",
        "Molecular Formula": "C<sub>9</sub>H<sub>12</sub>ClN",
        "Molecular Mass": "169.65",
        "Boiling Point": "99-101 °C @ Press: 5 Torr",
        "Density": "0.9639 g/cm³ @ Temp: 20 °C"
    }
}