{
    "cas_no": "87-13-8",
    "key_name": "Diethyl (ethoxymethylene)malonate",
    "cn_name": "乙氧基甲叉丙二酸二乙酯;",
    "alternate_name": "Propanedioic acid, 2-(ethoxymethylene)-, 1,3-diethyl ester;Malonic acid, (ethoxymethylene)-, diethyl ester;Propanedioic acid, (ethoxymethylene)-, diethyl ester;Diethyl (ethoxymethylene)malonate;Diethyl 2-(ethoxymethylene)malonate;(Ethoxymethylene)malonic acid diethyl ester;2-Ethoxy-1,1-bis(ethoxycarbonyl)ethene;(Ethoxymethylene)propanedioic acid diethyl ester;Diethyl ethoxymethylidenemalonate;NSC 62117;NSC 9068;Diethyl[(ethyloxy)methylidene]propanedioate;Ethyl 3-ethoxy-2-(ethoxymethylene)-3-oxopropanoate;2-(Ethoxymethylene)malonic acid diethyl ester;Diethyl (ethoxymethylene)propanedioate;Diethyl 2-(ethoxymethylidene)propanedioate;Diethyl 2-(ethoxymethylene)propanedioate;Diethyl 2-[(ethyloxy)methylidene]propanedioate;Diethyl 2-ethoxymethylidene malonate;1,3-Diethyl 2-(ethoxymethylidene)propanedioate;Diethyl (ethoxymethylidene)propanedioate",
    "duplicated_cas_no": "69731-53-9",
    "SMILES": "C(C(OCC)=O)(C(OCC)=O)=COCC",
    "meta_data": {
        "InChI": "InChI=1S/C10H16O5/c1-4-13-7-8(9(11)14-5-2)10(12)15-6-3/h7H,4-6H2,1-3H3",
        "InChIKey": null,
        "Canonical SMILES": "O=C(OCC)C(=COCC)C(=O)OCC",
        "Molecular Formula": "C<sub>10</sub>H<sub>16</sub>O<sub>5</sub>",
        "Molecular Mass": "216.23",
        "Boiling Point": "108-110 °C @ Press: 0.25 Torr",
        "Melting Point": "67-68 °C"
    }
}