{
    "cas_no": "230-27-3",
    "key_name": "Benzo[<em>h</em>]quinoline",
    "cn_name": null,
    "alternate_name": "Benzo[<em>h</em>]quinoline;4-Azaphenanthrene;7,8-Benzoquinoline;α-Naphthoquinoline;α-Benzoquinoline;7,8-Benzo[<em>h</em>]quinoline;NSC 16033",
    "duplicated_cas_no": "",
    "SMILES": "C12=C3C(=CC=C1C=CC=C2)C=CC=N3",
    "meta_data": {
        "InChI": "InChI=1S/C13H9N/c1-2-6-12-10(4-1)7-8-11-5-3-9-14-13(11)12/h1-9H",
        "InChIKey": null,
        "Canonical SMILES": "N=1C=CC=C2C=CC=3C=CC=CC3C12",
        "Molecular Formula": "C<sub>13</sub>H<sub>9</sub>N",
        "Molecular Mass": "179.22",
        "Boiling Point": "339 °C",
        "Melting Point": "52 °C"
    }
}