{
    "cas_no": "27496-82-8",
    "key_name": "Methylenebis[2-hydroxybenzoic acid]",
    "cn_name": "5,5\"-亚甲基双水杨酸;",
    "alternate_name": "Benzoic acid, methylenebis[2-hydroxy-;Salicylic acid, methylenedi-;Methylenebis[2-hydroxybenzoic acid];Methylenedisalicylic acid",
    "duplicated_cas_no": "",
    "SMILES": "",
    "meta_data": {
        "InChI": "",
        "InChIKey": null,
        "Canonical SMILES": "",
        "Molecular Formula": "C<sub>15</sub>H<sub>12</sub>O<sub>6</sub>",
        "Molecular Mass": "",
        "Melting Point": "243-244 °C"
    }
}