{
    "cas_no": "7612-98-8",
    "key_name": "4-<em>N</em>,<em>N</em>-Dimethylaminoazobenzene-4′-isothiocyanate",
    "cn_name": "4-二甲氨基偶氮苯-4\"-硫代异氰酸酯;",
    "alternate_name": "Benzenamine, 4-[2-(4-isothiocyanatophenyl)diazenyl]-<em>N</em>,<em>N</em>-dimethyl-;Isothiocyanic acid, <em>p</em>-[[<em>p</em>-(dimethylamino)phenyl]azo]phenyl ester;Benzenamine, 4-[(4-isothiocyanatophenyl)azo]-<em>N</em>,<em>N</em>-dimethyl-;Aniline, <em>p</em>-[(<em>p</em>-isothiocyanatophenyl)azo]-<em>N</em>,<em>N</em>-dimethyl-;4-[2-(4-Isothiocyanatophenyl)diazenyl]-<em>N</em>,<em>N</em>-dimethylbenzenamine;4′-Dimethylaminoazobenzene-4-isothiocyanate;4-Dimethylamino-4′-isothiocyanatoazobenzene;4-<em>N</em>,<em>N</em>-Dimethylaminoazobenzene-4′-isothiocyanate;DABITC;4-Dimethylaminophenylazophenyl-4′-isothiocyanate",
    "duplicated_cas_no": "",
    "SMILES": "N(=NC1=CC=C(N=C=S)C=C1)C2=CC=C(N(C)C)C=C2",
    "meta_data": {
        "InChI": "InChI=1S/C15H14N4S/c1-19(2)15-9-7-14(8-10-15)18-17-13-5-3-12(4-6-13)16-11-20/h3-10H,1-2H3",
        "InChIKey": null,
        "Canonical SMILES": "S=C=NC1=CC=C(N=NC2=CC=C(C=C2)N(C)C)C=C1",
        "Molecular Formula": "C<sub>15</sub>H<sub>14</sub>N<sub>4</sub>S",
        "Molecular Mass": "282.36",
        "Melting Point": "220 °C"
    }
}