{
    "cas_no": "93-03-8",
    "key_name": "Veratryl alcohol",
    "cn_name": "3,4-二甲氧基苄醇;3,4-二甲氧基苯甲醇;藜芦醇;",
    "alternate_name": "Benzenemethanol, 3,4-dimethoxy-;Veratryl alcohol;3,4-Dimethoxybenzenemethanol;3,4-Dimethoxybenzyl alcohol;3,4-Dimethoxyphenylmethyl alcohol;Veratralcohol;(3,4-Dimethoxyphenyl)methanol;NSC 6317;[3,4-Bis(methyloxy)phenyl] methanol;Veratric alcohol",
    "duplicated_cas_no": "",
    "SMILES": "O(C)C1=C(OC)C=CC(CO)=C1",
    "meta_data": {
        "InChI": "InChI=1S/C9H12O3/c1-11-8-4-3-7(6-10)5-9(8)12-2/h3-5,10H,6H2,1-2H3",
        "InChIKey": null,
        "Canonical SMILES": "OCC1=CC=C(OC)C(OC)=C1",
        "Molecular Formula": "C<sub>9</sub>H<sub>12</sub>O<sub>3</sub>",
        "Molecular Mass": "168.19",
        "Boiling Point": "298 °C",
        "Density": "1.180 g/cm³ @ Temp: 16 °C"
    }
}