{
    "cas_no": "65-85-0",
    "key_name": "Benzoic acid",
    "cn_name": "苯甲酸;安息香酸;",
    "alternate_name": "Benzoic acid;Benzenecarboxylic acid;Carboxybenzene;Dracylic acid;Phenylformic acid;Retarder BA;Retardex;Tenn-Plas;Benzeneformic acid;Benzenemethanoic acid;Salvo liquid;Solvo powder;Phenylcarboxylic acid;HA 1;E 210;HA 1 (acid);NSC 149;MENNO-Florades;Purox B;VevoVitall;MeSH ID: D019817",
    "duplicated_cas_no": "8013-63-6;331473-08-6;2244876-11-5",
    "SMILES": "C(O)(=O)C1=CC=CC=C1",
    "meta_data": {
        "InChI": "InChI=1S/C7H6O2/c8-7(9)6-4-2-1-3-5-6/h1-5H,(H,8,9)",
        "InChIKey": null,
        "Canonical SMILES": "O=C(O)C=1C=CC=CC1",
        "Molecular Formula": "C<sub>7</sub>H<sub>6</sub>O<sub>2</sub>",
        "Molecular Mass": "122.12",
        "Boiling Point": "249.2 °C @ Press: 760 Torr",
        "Melting Point": "122.4 °C",
        "Density": "1.2659 g/cm³ @ Temp: 15 °C"
    }
}