{
    "cas_no": "56219-10-4",
    "key_name": "Ethyl palmitoleate",
    "cn_name": null,
    "alternate_name": "9-Hexadecenoic acid, ethyl ester, (9<em>Z</em>)-;9-Hexadecenoic acid, ethyl ester, (<em>Z</em>)-;Palmitoleic acid ethyl ester;Ethyl <em>cis</em>-9-hexadecenoate;Ethyl palmitoleate;<em>cis</em>-9-Hexadecenoic acid ethyl ester;Ethyl (<em>Z</em>)-9-hexadecenoate",
    "duplicated_cas_no": "",
    "SMILES": "C(CCCCC/C=C\\CCCCCC)CC(OCC)=O",
    "meta_data": {
        "InChI": "InChI=1S/C18H34O2/c1-3-5-6-7-8-9-10-11-12-13-14-15-16-17-18(19)20-4-2/h9-10H,3-8,11-17H2,1-2H3/b10-9-",
        "InChIKey": null,
        "Canonical SMILES": "O=C(OCC)CCCCCCCC=CCCCCCC",
        "Molecular Formula": "C<sub>18</sub>H<sub>34</sub>O<sub>2</sub>",
        "Molecular Mass": "282.46",
        "Melting Point": "33.9 °C"
    }
}