{
    "cas_no": "76-90-4",
    "key_name": "Mepenzolate bromide",
    "cn_name": "溴美喷酯;溴美喷酯;",
    "alternate_name": "Piperidinium, 3-[(2-hydroxy-2,2-diphenylacetyl)oxy]-1,1-dimethyl-, bromide (1:1);Piperidinium, 3-hydroxy-1,1-dimethyl-, bromide, benzilate;3-Hydroxy-1,1-dimethylpiperidinium bromide benzilate;Piperidinium, 3-[(hydroxydiphenylacetyl)oxy]-1,1-dimethyl-, bromide;Benzilic acid, ester with 3-hydroxy-1,1-dimethylpiperidinium bromide;JB 340;Cantil;Mepenzolate bromide;<em>N</em>-Methyl-3-piperidyl benzilate methyl bromide;1-Methyl-3-piperidyl benzilate methylbromide;<em>N</em>-Methyl-3-piperidyldiphenylglycolate methobromide;Gastropidil;Cantilaque;Cantilon;Trancolon;Cantril;Colibantil;Colopiril;Colum;Delevil;NSC 4358;Glycophenylate",
    "duplicated_cas_no": "88215-34-3",
    "SMILES": "C(C(OC1C[N+](C)(C)CCC1)=O)(O)(C2=CC=CC=C2)C3=CC=CC=C3.[Br-]",
    "meta_data": {
        "InChI": "InChI=1S/C21H26NO3.BrH/c1-22(2)15-9-14-19(16-22)25-20(23)21(24,17-10-5-3-6-11-17)18-12-7-4-8-13-18;/h3-8,10-13,19,24H,9,14-16H2,1-2H3;1H/q+1;/p-1",
        "InChIKey": null,
        "Canonical SMILES": "[Br-].O=C(OC1CCC[N+](C)(C)C1)C(O)(C=2C=CC=CC2)C=3C=CC=CC3",
        "Molecular Formula": "C<sub>21</sub>H<sub>26</sub>NO<sub>3</sub>.Br",
        "Molecular Mass": "",
        "Melting Point": "228 °C (decomp)"
    }
}