{
    "cas_no": "5332-73-0",
    "key_name": "3-Methoxypropylamine",
    "cn_name": "3-甲氧基丙胺;MOPA;",
    "alternate_name": "1-Propanamine, 3-methoxy-;Propylamine, 3-methoxy-;3-Methoxy-1-propanamine;γ-Methoxypropylamine;3-Methoxypropylamine;1-Amino-3-methoxypropane;3-Aminopropyl methyl ether;3-Methoxy-<em>n</em>-propylamine;Propanolamine methyl ether;NSC 552;3-Methoxy-1-aminopropane;1-Methoxy-3-aminopropane;(3-Methoxypropan-1-yl)amine;[3-(Methyloxy)propyl]amine;3-Amino-1-methoxypropane;3-(Methyloxy)-1-propanamine",
    "duplicated_cas_no": "",
    "SMILES": "C(COC)CN",
    "meta_data": {
        "InChI": "InChI=1S/C4H11NO/c1-6-4-2-3-5/h2-5H2,1H3",
        "InChIKey": null,
        "Canonical SMILES": "O(C)CCCN",
        "Molecular Formula": "C<sub>4</sub>H<sub>11</sub>NO",
        "Molecular Mass": "89.14",
        "Boiling Point": "117.5 °C",
        "Density": "0.8737 g/cm³ @ Temp: 20 °C"
    }
}