{
    "cas_no": "1000343-13-4",
    "key_name": "5-Bromo-6-methyl-1<em>H</em>-indole",
    "cn_name": null,
    "alternate_name": "1<em>H</em>-Indole, 5-bromo-6-methyl-;5-Bromo-6-methyl-1<em>H</em>-indole",
    "duplicated_cas_no": "",
    "SMILES": "BrC=1C=C2C(=CC1C)NC=C2",
    "meta_data": {
        "InChI": "InChI=1S/C9H8BrN/c1-6-4-9-7(2-3-11-9)5-8(6)10/h2-5,11H,1H3",
        "InChIKey": null,
        "Canonical SMILES": "BrC1=CC=2C=CNC2C=C1C",
        "Molecular Formula": "C<sub>9</sub>H<sub>8</sub>BrN",
        "Molecular Mass": "210.07",
        "Melting Point": "85-86 °C"
    }
}