{
    "cas_no": "29883-15-6",
    "key_name": "Amygdalin",
    "cn_name": "扁桃苷;苦杏仁甙;",
    "alternate_name": "Benzeneacetonitrile, α-[(6-<em>O</em>-β-<span class=\"text-smallcaps\">D</smallcap>-glucopyranosyl-β-<smallcap>D</span>-glucopyranosyl)oxy]-, (α<em>R</em>)-;Amygdalin;Benzeneacetonitrile, α-[(6-<em>O</em>-β-<span class=\"text-smallcaps\">D</smallcap>-glucopyranosyl-β-<smallcap>D</span>-glucopyranosyl)oxy]-, (<em>R</em>)-;(α<em>R</em>)-α-[(6-<em>O</em>-β-<span class=\"text-smallcaps\">D</smallcap>-Glucopyranosyl-β-<smallcap>D</span>-glucopyranosyl)oxy]benzeneacetonitrile;<span class=\"text-smallcaps\">D</span>-Amygdalin;Amygdaloside;Mandelonitrile-β-gentiobioside;(<em>R</em>)-Amygdalin;NSC 15780;(-)-Amygdalin;Amygdaloside (disaccharide);MeSH ID: D000678",
    "duplicated_cas_no": "672-72-0",
    "SMILES": "O([C@@H](C#N)C1=CC=CC=C1)[C@@H]2O[C@H](CO[C@@H]3O[C@H](CO)[C@@H](O)[C@H](O)[C@H]3O)[C@@H](O)[C@H](O)[C@H]2O",
    "meta_data": {
        "InChI": "InChI=1S/C20H27NO11/c21-6-10(9-4-2-1-3-5-9)30-20-18(28)16(26)14(24)12(32-20)8-29-19-17(27)15(25)13(23)11(7-22)31-19/h1-5,10-20,22-28H,7-8H2/t10-,11+,12+,13+,14+,15-,16-,17+,18+,19+,20+/m0/s1",
        "InChIKey": null,
        "Canonical SMILES": "N#CC(OC1OC(COC2OC(CO)C(O)C(O)C2O)C(O)C(O)C1O)C=3C=CC=CC3",
        "Molecular Formula": "C<sub>20</sub>H<sub>27</sub>NO<sub>11</sub>",
        "Molecular Mass": "457.43",
        "Melting Point": "223-226 °C"
    }
}