{
    "cas_no": "96784-54-2",
    "key_name": "3-Methyl-4-nitrobenzonitrile",
    "cn_name": "3-甲基-4-硝基苯甲腈;",
    "alternate_name": "Benzonitrile, 3-methyl-4-nitro-;<em>m</em>-Tolunitrile, 4-nitro-;3-Methyl-4-nitrobenzonitrile;4-Nitro-3-methylbenzonitrile",
    "duplicated_cas_no": "544696-43-7",
    "SMILES": "N(=O)(=O)C1=C(C)C=C(C#N)C=C1",
    "meta_data": {
        "InChI": "InChI=1S/C8H6N2O2/c1-6-4-7(5-9)2-3-8(6)10(11)12/h2-4H,1H3",
        "InChIKey": null,
        "Canonical SMILES": "N#CC1=CC=C(C(=C1)C)N(=O)=O",
        "Molecular Formula": "C<sub>8</sub>H<sub>6</sub>N<sub>2</sub>O<sub>2</sub>",
        "Molecular Mass": "162.15",
        "Melting Point": "80-81 °C"
    }
}