{
    "cas_no": "1484-26-0",
    "key_name": "3-(Benzyloxy)aniline",
    "cn_name": "3-苄氧基苯胺;",
    "alternate_name": "Benzenamine, 3-(phenylmethoxy)-;Aniline, <em>m</em>-(benzyloxy)-;3-(Phenylmethoxy)benzenamine;3-(Benzyloxy)aniline;<em>m</em>-(Benzyloxy)aniline;3-Aminophenyl benzyl ether;<em>m</em>-Aminophenyl benzyl ether;3-(Phenylmethoxy)aniline;3-(Benzyloxy)phenylamine;3-(Benzyloxy)benzenamine",
    "duplicated_cas_no": "",
    "SMILES": "O(CC1=CC=CC=C1)C2=CC(N)=CC=C2",
    "meta_data": {
        "InChI": "InChI=1S/C13H13NO/c14-12-7-4-8-13(9-12)15-10-11-5-2-1-3-6-11/h1-9H,10,14H2",
        "InChIKey": null,
        "Canonical SMILES": "O(C1=CC=CC(N)=C1)CC=2C=CC=CC2",
        "Molecular Formula": "C<sub>13</sub>H<sub>13</sub>NO",
        "Molecular Mass": "199.25",
        "Boiling Point": "170 °C @ Press: 3 Torr",
        "Melting Point": "61-62.5 °C"
    }
}