{
    "cas_no": "4214-76-0",
    "key_name": "2-Amino-5-nitropyridine",
    "cn_name": "2-氨基-5-硝基吡啶;",
    "alternate_name": "2-Pyridinamine, 5-nitro-;Pyridine, 2-amino-5-nitro-;5-Nitro-2-pyridinamine;2-Amino-5-nitropyridine;5-Nitro-2-aminopyridine;5-Nitropyridin-2-ylamine;NSC 23774",
    "duplicated_cas_no": "",
    "SMILES": "N(=O)(=O)C=1C=CC(N)=NC1",
    "meta_data": {
        "InChI": "InChI=1S/C5H5N3O2/c6-5-2-1-4(3-7-5)8(9)10/h1-3H,(H2,6,7)",
        "InChIKey": null,
        "Canonical SMILES": "O=N(=O)C1=CN=C(N)C=C1",
        "Molecular Formula": "C<sub>5</sub>H<sub>5</sub>N<sub>3</sub>O<sub>2</sub>",
        "Molecular Mass": "139.11",
        "Melting Point": "186-188 °C"
    }
}