{
    "cas_no": "25594-62-1",
    "key_name": "1-(2-Quinoxalinyl)ethanone",
    "cn_name": "2-乙酰喹喔啉,97%;",
    "alternate_name": "Ethanone, 1-(2-quinoxalinyl)-;Ketone, methyl 2-quinoxalinyl;1-(2-Quinoxalinyl)ethanone;2-Acetylquinoxaline;1-(Quinoxalin-2-yl)ethan-1-one",
    "duplicated_cas_no": "",
    "SMILES": "C(C)(=O)C1=NC2=C(N=C1)C=CC=C2",
    "meta_data": {
        "InChI": "InChI=1S/C10H8N2O/c1-7(13)10-6-11-8-4-2-3-5-9(8)12-10/h2-6H,1H3",
        "InChIKey": null,
        "Canonical SMILES": "O=C(C1=NC2=CC=CC=C2N=C1)C",
        "Molecular Formula": "C<sub>10</sub>H<sub>8</sub>N<sub>2</sub>O",
        "Molecular Mass": "172.18",
        "Melting Point": "77 °C"
    }
}