{
    "cas_no": "953787-60-5",
    "key_name": "Pantoprazole <em>N</em>-oxide",
    "cn_name": null,
    "alternate_name": "1<em>H</em>-Benzimidazole, 6-(difluoromethoxy)-2-[[(3,4-dimethoxy-1-oxido-2-pyridinyl)methyl]sulfinyl]-;6-(Difluoromethoxy)-2-[[(3,4-dimethoxy-1-oxido-2-pyridinyl)methyl]sulfinyl]-1<em>H</em>-benzimidazole;Pantoprazole <em>N</em>-oxide",
    "duplicated_cas_no": "",
    "SMILES": "S(CC1=C(OC)C(OC)=CC=N1=O)(=O)C=2NC=3C(N2)=CC=C(OC(F)F)C3",
    "meta_data": {
        "InChI": "InChI=1S/C16H15F2N3O5S/c1-24-13-5-6-21(22)12(14(13)25-2)8-27(23)16-19-10-4-3-9(26-15(17)18)7-11(10)20-16/h3-7,15H,8H2,1-2H3,(H,19,20)",
        "InChIKey": null,
        "Canonical SMILES": "O=N1=CC=C(OC)C(OC)=C1CS(=O)C2=NC=3C=CC(OC(F)F)=CC3N2",
        "Molecular Formula": "C<sub>16</sub>H<sub>15</sub>F<sub>2</sub>N<sub>3</sub>O<sub>5</sub>S",
        "Molecular Mass": "399.37",
        "Melting Point": "158-159 °C"
    }
}