{
    "cas_no": "515-83-3",
    "key_name": "2,2,2-Trichloro-1-ethoxyethanol",
    "cn_name": "2,2,2-三氯-1-乙氧基乙醇;",
    "alternate_name": "Ethanol, 2,2,2-trichloro-1-ethoxy-;2,2,2-Trichloro-1-ethoxyethanol;Trichloroacetaldehyde monoethylacetal;Chloral alcoholate;Chloral, ethyl hemiacetal;Ethanol chloral hemiacetal;Chloral semiacetal;NSC 8411;2,2,2-Trichloro-1-ethoxyethan-1-ol",
    "duplicated_cas_no": "110085-22-8",
    "SMILES": "C(C(Cl)(Cl)Cl)(OCC)O",
    "meta_data": {
        "InChI": "InChI=1S/C4H7Cl3O2/c1-2-9-3(8)4(5,6)7/h3,8H,2H2,1H3",
        "InChIKey": null,
        "Canonical SMILES": "ClC(Cl)(Cl)C(O)OCC",
        "Molecular Formula": "C<sub>4</sub>H<sub>7</sub>Cl<sub>3</sub>O<sub>2</sub>",
        "Molecular Mass": "193.46",
        "Boiling Point": "115.5 °C",
        "Melting Point": "56.5 °C"
    }
}