{
    "cas_no": "4672-30-4",
    "key_name": "Phenylethanephosphonic acid",
    "cn_name": null,
    "alternate_name": "Phosphonic acid, <em>P</em>-(2-phenylethyl)-;Phosphonic acid, phenethyl-;Phosphonic acid, (2-phenylethyl)-;<em>P</em>-(2-Phenylethyl)phosphonic acid;Phenylethanephosphonic acid;Phenethylphosphonic acid;NSC 140288",
    "duplicated_cas_no": "",
    "SMILES": "C(CP(=O)(O)O)C1=CC=CC=C1",
    "meta_data": {
        "InChI": "InChI=1S/C8H11O3P/c9-12(10,11)7-6-8-4-2-1-3-5-8/h1-5H,6-7H2,(H2,9,10,11)",
        "InChIKey": null,
        "Canonical SMILES": "O=P(O)(O)CCC=1C=CC=CC1",
        "Molecular Formula": "C<sub>8</sub>H<sub>11</sub>O<sub>3</sub>P",
        "Molecular Mass": "186.14",
        "Melting Point": "137-138 °C"
    }
}