{
    "cas_no": "59-30-3",
    "key_name": "Folic acid",
    "cn_name": "叶酸;N-[4-[(2-氨基-4-氧代-1,4-二氢-6-蝶啶)甲氨基]苯甲酰基]-L-谷氨酸;",
    "alternate_name": "<span class=\"text-smallcaps\">L</span>-Glutamic acid, <em>N</em>-[4-[[(2-amino-3,4-dihydro-4-oxo-6-pteridinyl)methyl]amino]benzoyl]-;Folic acid;<span class=\"text-smallcaps\">L</span>-Glutamic acid, <em>N</em>-[4-[[(2-amino-1,4-dihydro-4-oxo-6-pteridinyl)methyl]amino]benzoyl]-;<em>N</em>-[4-[[(2-Amino-3,4-dihydro-4-oxo-6-pteridinyl)methyl]amino]benzoyl]-<span class=\"text-smallcaps\">L</span>-glutamic acid;Pteroylglutamic acid;Vitamin B<sub>c</sub>;Vitamin M;Pteroylmonoglutamic acid;Pteroyl-<span class=\"text-smallcaps\">L</span>-glutamic acid;Folacin;Pteroyl-<span class=\"text-smallcaps\">L</span>-monoglutamic acid;PGA;Liver Lactobacillus casei factor;Cytofol;Foliamin;Folipac;Folsaure;Folsan;Folvite;Incafolic;Millafol;Folettes;Acifolic;Folsav;Folacid;Vitamin B<sub>e</sub>;Folbal;Folcidin;Dosfolat B activ;NSC 3073;Folicet;Foldine;Aspol;Folovit;Folnak;Vitamin B<sub>9</sub>;Dosfolat XS;(2S)-2-[(4-[[(2-Amino-4-hydroxypteridin-6-yl)methyl]amino]phenyl)formamido]pentanedioic acid;(2S)-2-[[4-[(2-Amino-4-oxo-1<em>H</em>-pteridin-6-yl)methylamino]benzoyl]amino]pentanedioic acid;MeSH ID: D005492",
    "duplicated_cas_no": "11096-55-2;33609-88-0",
    "SMILES": "O=C1C=2C(NC=C(CNC3=CC=C(C(N[C@@H](CCC(O)=O)C(O)=O)=O)C=C3)N2)=NC(N)=N1",
    "meta_data": {
        "InChI": "InChI=1S/C19H19N7O6/c20-19-25-15-14(17(30)26-19)23-11(8-22-15)7-21-10-3-1-9(2-4-10)16(29)24-12(18(31)32)5-6-13(27)28/h1-4,8,12,21H,5-7H2,(H,24,29)(H,27,28)(H,31,32)(H3,20,22,25,26,30)/t12-/m0/s1",
        "InChIKey": null,
        "Canonical SMILES": "O=C1N=C(N=C2NC=C(N=C12)CNC3=CC=C(C=C3)C(=O)NC(C(=O)O)CCC(=O)O)N",
        "Molecular Formula": "C<sub>19</sub>H<sub>19</sub>N<sub>7</sub>O<sub>6</sub>",
        "Molecular Mass": "441.40",
        "Melting Point": "250 °C (decomp)"
    }
}