{
    "cas_no": "1241-94-7",
    "key_name": "2-Ethylhexyl diphenyl phosphate",
    "cn_name": "2-乙基己基二苯基磷酸酯;二苯基磷酸-2-乙基己酯;磷酸-2-乙基己基二苯酯;",
    "alternate_name": "Phosphoric acid, 2-ethylhexyl diphenyl ester;Diphenyl 2-ethylhexyl phosphate;2-Ethylhexyl diphenyl phosphate;Santicizer 141;Octicizer;Phosflex 362;Disflamoll DPO;Phosflex 342;EHDPP",
    "duplicated_cas_no": "",
    "SMILES": "P(OC1=CC=CC=C1)(OC2=CC=CC=C2)(OCC(CCCC)CC)=O",
    "meta_data": {
        "InChI": "InChI=1S/C20H27O4P/c1-3-5-12-18(4-2)17-22-25(21,23-19-13-8-6-9-14-19)24-20-15-10-7-11-16-20/h6-11,13-16,18H,3-5,12,17H2,1-2H3",
        "InChIKey": null,
        "Canonical SMILES": "O=P(OC=1C=CC=CC1)(OC=2C=CC=CC2)OCC(CC)CCCC",
        "Molecular Formula": "C<sub>20</sub>H<sub>27</sub>O<sub>4</sub>P",
        "Molecular Mass": "362.40",
        "Boiling Point": "375 °C",
        "Melting Point": "-30 °C",
        "Density": "1.090 g/cm³ @ Temp: 25 °C"
    }
}