{
    "cas_no": "102-32-9",
    "key_name": "DOPAC",
    "cn_name": "3,4-二羟基苯乙酸;",
    "alternate_name": "Benzeneacetic acid, 3,4-dihydroxy-;Acetic acid, (3,4-dihydroxyphenyl)-;3,4-Dihydroxybenzeneacetic acid;DOPAC;Homoprotocatechuic acid;Ba 2773;Dopacetic acid;(3,4-Dihydroxyphenyl)acetic acid;Dihydroxyphenylacetic acid;NSC 73191;3′,4′-Dihydroxyphenylacetic acid;2-(3,4-Dihydroxyphenyl)acetic acid",
    "duplicated_cas_no": "",
    "SMILES": "C(C(O)=O)C1=CC(O)=C(O)C=C1",
    "meta_data": {
        "InChI": "InChI=1S/C8H8O4/c9-6-2-1-5(3-7(6)10)4-8(11)12/h1-3,9-10H,4H2,(H,11,12)",
        "InChIKey": null,
        "Canonical SMILES": "O=C(O)CC1=CC=C(O)C(O)=C1",
        "Molecular Formula": "C<sub>8</sub>H<sub>8</sub>O<sub>4</sub>",
        "Molecular Mass": "168.15",
        "Melting Point": "128.5 °C"
    }
}