{
    "cas_no": "130-22-3",
    "key_name": "Alizarin Red S",
    "cn_name": "茜素红;茜素红S;媒介红3;茜素磺酸钠;9,10-二氢-3,4-二羟基-9,10-二氧代-2-蒽磺酸单钠盐;",
    "alternate_name": "2-Anthracenesulfonic acid, 9,10-dihydro-3,4-dihydroxy-9,10-dioxo-, sodium salt (1:1);2-Anthracenesulfonic acid, 9,10-dihydro-3,4-dihydroxy-9,10-dioxo-, monosodium salt;2-Anthraquinonesulfonic acid, 3,4-dihydroxy-, sodium salt;C.I. 58005;Ahcoquinone Red S;Alizarin S;Alizarin Carmine;Alizarine Carmine;Alizarine Carmine Indicator;Alizarine S Extra Conc. A Export;Alizarine S Extra Pure A;Alizarine Red AS;Alizarine Red W;Alizarine Red S;Alizarine Red for Wool;Alizarine Red Indicator;Alizarine Red SW;Alizarine Red SZ;Alizarine Red WA;Alizarine Red WS;Alizarinsulfonate;Calcochrome Alizarine Red SC;Carnelio Rubine Lake;C.I. Mordant Red 3;Diamond Red W;Ext D and C Red No. 7;Fenakrom Red W;Mitsui Alizarine Red S;Oxanal Fast Red SW;Alizarin Red S;Sodium 3,4-dihydroxyanthraquinone-2-sulfonate;Sodium alizarin-3-sulfonate;Alizarine S;Sodium alizarinesulfonate;Alizarine Red A;Chrome Red Alizarine;Acid Red Alizarine;Alizarine Red S sodium salt;Sodium alizarinsulfonate;Mordant Red 3;Acid Mordant Red SW;Alizarin Red C;Mordant Scarlet S 80;Acid Mordant Red S 80;Mordant Red S 80;Alizarin Red S stain;Alizarin Red S staining;Alizarin Red assay",
    "duplicated_cas_no": "12777-35-4;63309-95-5;129038-88-6",
    "SMILES": "O=C1C=2C(C(=O)C=3C1=CC=CC3)=C(O)C(O)=C(S(=O)(=O)O)C2.[Na]",
    "meta_data": {
        "InChI": "InChI=1S/C14H8O7S.Na/c15-11-6-3-1-2-4-7(6)12(16)10-8(11)5-9(22(19,20)21)13(17)14(10)18;/h1-5,17-18H,(H,19,20,21);",
        "InChIKey": null,
        "Canonical SMILES": "[Na].O=C1C=2C=CC=CC2C(=O)C=3C(O)=C(O)C(=CC13)S(=O)(=O)O",
        "Molecular Formula": "C<sub>14</sub>H<sub>8</sub>O<sub>7</sub>S.Na",
        "Molecular Mass": "",
        "Melting Point": "283 °C"
    }
}