{
    "cas_no": "14444-77-0",
    "key_name": "(Diethoxymethoxy)benzene",
    "cn_name": "二乙基苯基原甲酸酯;",
    "alternate_name": "Benzene, (diethoxymethoxy)-;Orthoformic acid, diethyl phenyl ester;(Diethoxymethoxy)benzene;Diethoxyphenoxymethane;Diethyl phenyl orthoformate;Phenyl diethylorthoformate",
    "duplicated_cas_no": "",
    "SMILES": "C(OC1=CC=CC=C1)(OCC)OCC",
    "meta_data": {
        "InChI": "InChI=1S/C11H16O3/c1-3-12-11(13-4-2)14-10-8-6-5-7-9-10/h5-9,11H,3-4H2,1-2H3",
        "InChIKey": null,
        "Canonical SMILES": "O(C=1C=CC=CC1)C(OCC)OCC",
        "Molecular Formula": "C<sub>11</sub>H<sub>16</sub>O<sub>3</sub>",
        "Molecular Mass": "196.24",
        "Boiling Point": "109-110 °C @ Press: 10 Torr",
        "Density": "1.0275 g/cm³ @ Temp: 20 °C"
    }
}