{
    "cas_no": "2027-17-0",
    "key_name": "2-Isopropylnaphthalene",
    "cn_name": "2-异丙基萘;",
    "alternate_name": "Naphthalene, 2-(1-methylethyl)-;Naphthalene, 2-isopropyl-;2-(1-Methylethyl)naphthalene;2-Isopropylnaphthalene;β-Isopropylnaphthalene;NSC 166466;6-Isopropylnaphthalene;2-(Propan-2-yl)naphthalene;2-Propan-2-ylnaphthalene",
    "duplicated_cas_no": "",
    "SMILES": "C(C)(C)C1=CC2=C(C=C1)C=CC=C2",
    "meta_data": {
        "InChI": "InChI=1S/C13H14/c1-10(2)12-8-7-11-5-3-4-6-13(11)9-12/h3-10H,1-2H3",
        "InChIKey": null,
        "Canonical SMILES": "C=1C=CC=2C=C(C=CC2C1)C(C)C",
        "Molecular Formula": "C<sub>13</sub>H<sub>14</sub>",
        "Molecular Mass": "170.25",
        "Boiling Point": "268.2 °C",
        "Melting Point": "14.5 °C",
        "Density": "0.9753 g/cm³ @ Temp: 20 °C"
    }
}