{
    "cas_no": "119-81-3",
    "key_name": "<em>N</em>-(4-Methoxy-2-nitrophenyl)acetamide",
    "cn_name": null,
    "alternate_name": "Acetamide, <em>N</em>-(4-methoxy-2-nitrophenyl)-;<em>p</em>-Acetanisidide, 2′-nitro-;<em>N</em>-(4-Methoxy-2-nitrophenyl)acetamide;2′-Nitro-4′-methoxyacetanilide;4-Acetylamino-1-methoxy-3-nitrobenzene;4-Acetamido-1-methoxy-3-nitrobenzene;2′-Nitro-<em>p</em>-acetanisidide;4-Methoxy-2-nitroacetanilide;NSC 5516",
    "duplicated_cas_no": "",
    "SMILES": "N(C(C)=O)C1=C(N(=O)=O)C=C(OC)C=C1",
    "meta_data": {
        "InChI": "InChI=1S/C9H10N2O4/c1-6(12)10-8-4-3-7(15-2)5-9(8)11(13)14/h3-5H,1-2H3,(H,10,12)",
        "InChIKey": null,
        "Canonical SMILES": "O=C(NC1=CC=C(OC)C=C1N(=O)=O)C",
        "Molecular Formula": "C<sub>9</sub>H<sub>10</sub>N<sub>2</sub>O<sub>4</sub>",
        "Molecular Mass": "210.19",
        "Melting Point": "117 °C"
    }
}