{
    "cas_no": "4415-82-1",
    "key_name": "Cyclobutanemethanol",
    "cn_name": "环丁基甲醇;",
    "alternate_name": "Cyclobutanemethanol;Cyclobutylmethanol;Cyclobutylmethyl alcohol;Cyclobutylcarbinol;(Hydroxymethyl)cyclobutane",
    "duplicated_cas_no": "",
    "SMILES": "C(O)C1CCC1",
    "meta_data": {
        "InChI": "InChI=1S/C5H10O/c6-4-5-2-1-3-5/h5-6H,1-4H2",
        "InChIKey": null,
        "Canonical SMILES": "OCC1CCC1",
        "Molecular Formula": "C<sub>5</sub>H<sub>10</sub>O",
        "Molecular Mass": "86.13",
        "Boiling Point": "142-142.5 °C @ Press: 750 Torr",
        "Melting Point": "68.5 °C",
        "Density": "0.9129 g/cm³ @ Temp: 20 °C"
    }
}