{
    "cas_no": "52182-15-7",
    "key_name": "Ethyl benzilate",
    "cn_name": "1,1-二苯基-1-羟基乙酸乙酯;",
    "alternate_name": "Benzeneacetic acid, α-hydroxy-α-phenyl-, ethyl ester;Benzilic acid, ethyl ester;Ethyl diphenylglycolate;Ethyl benzilate;Ethyl α-phenylmandelate;NSC 62707;Ethyl 2-hydroxy-2,2-diphenylacetate",
    "duplicated_cas_no": "",
    "SMILES": "C(C(OCC)=O)(O)(C1=CC=CC=C1)C2=CC=CC=C2",
    "meta_data": {
        "InChI": "InChI=1S/C16H16O3/c1-2-19-15(17)16(18,13-9-5-3-6-10-13)14-11-7-4-8-12-14/h3-12,18H,2H2,1H3",
        "InChIKey": null,
        "Canonical SMILES": "O=C(OCC)C(O)(C=1C=CC=CC1)C=2C=CC=CC2",
        "Molecular Formula": "C<sub>16</sub>H<sub>16</sub>O<sub>3</sub>",
        "Molecular Mass": "256.30",
        "Boiling Point": "105 °C @ Press: 0.02 Torr",
        "Melting Point": "34 °C"
    }
}