{
    "cas_no": "33979-03-2",
    "key_name": "PCB 155",
    "cn_name": null,
    "alternate_name": "1,1′-Biphenyl, 2,2′,4,4′,6,6′-hexachloro-;Biphenyl, 2,2′,4,4′,6,6′-hexachloro-;2,2′,4,4′,6,6′-Hexachloro-1,1′-biphenyl;2,2′,4,4′,6,6′-Hexachlorobiphenyl;2,4,6,2′,4′,6′-Hexachlorobiphenyl;2,2′,4,4′,6,6′-Hexachlorodiphenyl;2,2′,4,4′,6,6′-HCB;PCB 155",
    "duplicated_cas_no": "",
    "SMILES": "ClC1=C(C(Cl)=CC(Cl)=C1)C2=C(Cl)C=C(Cl)C=C2Cl",
    "meta_data": {
        "InChI": "InChI=1S/C12H4Cl6/c13-5-1-7(15)11(8(16)2-5)12-9(17)3-6(14)4-10(12)18/h1-4H",
        "InChIKey": null,
        "Canonical SMILES": "ClC1=CC(Cl)=C(C(Cl)=C1)C2=C(Cl)C=C(Cl)C=C2Cl",
        "Molecular Formula": "C<sub>12</sub>H<sub>4</sub>Cl<sub>6</sub>",
        "Molecular Mass": "360.88",
        "Melting Point": "164-166 °C"
    }
}