{
    "cas_no": "137-30-4",
    "key_name": "Ziram",
    "cn_name": "福美锌;二甲基二硫代氨基甲酸锌;橡胶促进剂ZDMC;橡胶硫化促进剂PZ;",
    "alternate_name": "Zinc, bis(<em>N</em>,<em>N</em>-dimethylcarbamodithioato-κ<em>S</em>,κ<em>S</em>′)-, (<em>T</em>-4)-;Zinc, bis(dimethyldithiocarbamato)-;Zinc, bis(dimethylcarbamodithioato-<em>S</em>,<em>S</em>′)-, (<em>T</em>-4)-;Zinc, bis(dimethylcarbamodithioato-κ<em>S</em>,κ<em>S</em>′)-, (<em>T</em>-4)-;Carbamodithioic acid, dimethyl-, zinc complex;(<em>T</em>-4)-Bis(<em>N</em>,<em>N</em>-dimethylcarbamodithioato-κ<em>S</em>,κ<em>S</em>′)zinc;Accelerator L;Aceto ZDED;Aceto ZDMD;Alcobam ZM;Corona Corozate;Corozate;Eptac 1;Fuclasin;Fuklasin;Karbam White;Methasan;Methazate;Methyl Ziram;Milbam;Orchard brand Ziram;Vulcacure ZM;Zerlate;Zimate;Zinc dimethyldithiocarbamate;Ziram;Zirberk;Bis(dimethyldithiocarbamato)zinc;Cuman;Rhodiacid;Z 75;Soxinol PZ;Molurame;Methyl zimate;Carbamodithioic acid, dimethyl-, zinc salt;Methyl zineb;Soxinal PZ;Zinc bis(dimethyldithiocarbamate);Pomarzol Z-forte;Vulkacit L;Vulkacite L;Cymate;Carbazinc;Hermat ZDM;Hexazir;Aavolex;Aazira;Fuclasin-Ultra;Zarlate;Cuman L;Z-C Spray;Aaprotect;Zirthane;Mycronil;Crittam;Rodisan;Mezene;Nocceler PZ;Trikagol;Ziride;Ziradin;Fulasin;Sanceler PZ;ZnMDC;PZ;ZDMC;Zirol;NSC 737;Octocure ZDM 50;Perkacit ZDMC;Ancazate ME;Accelerator MZ Powder;Accelerator MZX;Vancide MZ 96;Ultra Zinc DMC;Rhenogran ZDMC 80;ZDMC 80;Accelerator PZ;Accel PZ;Carbamodithioic acid, <em>N</em>,<em>N</em>-dimethyl-, zinc salt (2:1);Zinc, bis(<em>N</em>,<em>N</em>-dimethylcarbamodithioato-κ<em>S</em>)-;Korit 420 FS;Korit Pro;Korit",
    "duplicated_cas_no": "8059-74-3;8070-07-3;12768-61-5;12773-04-5;14459-91-7;17125-91-6;19488-81-4;31300-71-7;50933-80-7;55870-88-7;98391-07-2;111922-61-3;1079126-29-6;1135443-10-5;1235552-59-6;2632305-33-8",
    "SMILES": "N(C)(C)C=1[S-][Zn+2]2([S-]C(N(C)C)=[S]2)[S]1",
    "meta_data": {
        "InChI": "InChI=1S/2C3H7NS2.Zn/c2*1-4(2)3(5)6;/h2*1-2H3,(H,5,6);/q;;+2/p-2",
        "InChIKey": null,
        "Canonical SMILES": "[S]1=C([S-][Zn+2]12[S]=C([S-]2)N(C)C)N(C)C",
        "Molecular Formula": "C<sub>6</sub>H<sub>12</sub>N<sub>2</sub>S<sub>4</sub>Zn",
        "Molecular Mass": "",
        "Melting Point": "246 °C",
        "Density": "1.7 g/cm³"
    }
}