{
    "cas_no": "33401-87-5",
    "key_name": "Panose",
    "cn_name": "潘糖(异构体混合物);",
    "alternate_name": "<span class=\"text-smallcaps\">D</smallcap>-Glucose, <em>O</em>-α-<smallcap>D</smallcap>-glucopyranosyl-(1→6)-<em>O</em>-α-<smallcap>D</span>-glucopyranosyl-(1→4)-;Panose;<em>O</em>-α-<span class=\"text-smallcaps\">D</smallcap>-Glucopyranosyl-(1→6)-<em>O</em>-α-<smallcap>D</smallcap>-glucopyranosyl-(1→4)-<smallcap>D</span>-glucose;4-α-Isomaltosylglucose;<span class=\"text-smallcaps\">D</span>-Panose;6<sup>2</sup>-α-Glucosylmaltose;6<sup>2</sup>-<em>O</em>-α-Glucosyl maltose;Panorich",
    "duplicated_cas_no": "25193-53-7;529493-94-5;1384100-97-3",
    "SMILES": "O([C@@H]([C@@H]([C@H](C=O)O)O)[C@@H](CO)O)[C@H]1O[C@H](CO[C@H]2O[C@H](CO)[C@@H](O)[C@H](O)[C@H]2O)[C@@H](O)[C@H](O)[C@H]1O",
    "meta_data": {
        "InChI": "InChI=1S/C18H32O16/c19-1-5(22)9(24)16(6(23)2-20)34-18-15(30)13(28)11(26)8(33-18)4-31-17-14(29)12(27)10(25)7(3-21)32-17/h1,5-18,20-30H,2-4H2/t5-,6+,7+,8+,9+,10+,11+,12-,13-,14+,15+,16+,17-,18+/m0/s1",
        "InChIKey": null,
        "Canonical SMILES": "O=CC(O)C(O)C(OC1OC(COC2OC(CO)C(O)C(O)C2O)C(O)C(O)C1O)C(O)CO",
        "Molecular Formula": "C<sub>18</sub>H<sub>32</sub>O<sub>16</sub>",
        "Molecular Mass": "504.44",
        "Melting Point": "221 °C (decomp)"
    }
}