{
    "cas_no": "7534-94-3",
    "key_name": "Isobornyl methacrylate",
    "cn_name": "甲基丙烯酸异冰片酯;",
    "alternate_name": "2-Propenoic acid, 2-methyl-, (1<em>R</em>,2<em>R</em>,4<em>R</em>)-1,7,7-trimethylbicyclo[2.2.1]hept-2-yl ester, <em>rel</em>-;Methacrylic acid, isobornyl ester;2-Propenoic acid, 2-methyl-, 1,7,7-trimethylbicyclo[2.2.1]hept-2-yl ester, <em>exo</em>-;<em>rel</em>-(1<em>R</em>,2<em>R</em>,4<em>R</em>)-1,7,7-trimethylbicyclo[2.2.1]hept-2-yl 2-methyl-2-propenoate;Isoborneol methacrylate;Isobornyl methacrylate;SR 423;Light Ester IB-X;Acryester IBX;SR 423A;IBXMA;NK Ester IB;Ageflex IBOMA;Sipomer IBOMA;Eternal EM 90;EM 90;Light Ester IB-XM;IBOMA;Photomer 2012;Visiomer Terra IBOMA;Visiomer IBOMA;Sarbio 6105;SR 423D;U 90 (methacrylate);U 90;IB-X;Genomer 1121M",
    "duplicated_cas_no": "7390-97-8;1271432-81-5;1467081-31-7",
    "SMILES": "C[C@@]12[C@@H](OC(C(C)=C)=O)C[C@@](C1(C)C)(CC2)[H]",
    "meta_data": {
        "InChI": "InChI=1/C14H22O2/c1-9(2)12(15)16-11-8-10-6-7-14(11,5)13(10,3)4/h10-11H,1,6-8H2,2-5H3/t10-,11-,14+/s2",
        "InChIKey": null,
        "Canonical SMILES": "O=C(OC1CC2CCC1(C)C2(C)C)C(=C)C",
        "Molecular Formula": "C<sub>14</sub>H<sub>22</sub>O<sub>2</sub>",
        "Molecular Mass": "222.32",
        "Boiling Point": "112-117 °C @ Press: 2.5 Torr",
        "Density": "0.980 g/cm³ @ Temp: 25 °C"
    }
}