{
    "cas_no": "467-77-6",
    "key_name": "(-)-Coronaridine",
    "cn_name": null,
    "alternate_name": "Ibogamine-18-carboxylic acid, methyl ester;Coronaridine;6,9-Methano-5<em>H</em>-pyrido[1′,2′:1,2]azepino[4,5-<em>b</em>]indole, ibogamine-18-carboxylic acid deriv.;(-)-Coronaridine;Coronaridin;NSC 127490",
    "duplicated_cas_no": "53368-34-6;53777-64-3;909343-39-1",
    "SMILES": "C(OC)(=O)[C@]12[C@]3([N@](C[C@@](C1)(C[C@@H]3CC)[H])CCC4=C2NC=5C4=CC=CC5)[H]",
    "meta_data": {
        "InChI": "InChI=1S/C21H26N2O2/c1-3-14-10-13-11-21(20(24)25-2)18-16(8-9-23(12-13)19(14)21)15-6-4-5-7-17(15)22-18/h4-7,13-14,19,22H,3,8-12H2,1-2H3/t13-,14+,19+,21-/m1/s1",
        "InChIKey": null,
        "Canonical SMILES": "O=C(OC)C12C=3NC=4C=CC=CC4C3CCN5CC(CC(CC)C51)C2",
        "Molecular Formula": "C<sub>21</sub>H<sub>26</sub>N<sub>2</sub>O<sub>2</sub>",
        "Molecular Mass": "338.44",
        "Melting Point": "92-93 °C"
    }
}