{
    "cas_no": "147852-84-4",
    "key_name": "<em>N</em>-Octanoyl-<span class=\"text-smallcaps\">L</span>-homoserine lactone",
    "cn_name": null,
    "alternate_name": "Octanamide, <em>N</em>-[(3<em>S</em>)-tetrahydro-2-oxo-3-furanyl]-;Octanamide, <em>N</em>-(tetrahydro-2-oxo-3-furanyl)-, (<em>S</em>)-;<em>N</em>-[(3<em>S</em>)-Tetrahydro-2-oxo-3-furanyl]octanamide;<em>N</em>-Octanoyl-<span class=\"text-smallcaps\">L</span>-homoserine lactone;(<em>S</em>)-<em>N</em>-(2-Oxotetrahydrofuran-3-yl)octanamide;<em>N</em>-[(3S)-Tetrahydro-2-oxo-3-furanyl]octanamide",
    "duplicated_cas_no": "",
    "SMILES": "N(C(CCCCCCC)=O)[C@@H]1C(=O)OCC1",
    "meta_data": {
        "InChI": "InChI=1S/C12H21NO3/c1-2-3-4-5-6-7-11(14)13-10-8-9-16-12(10)15/h10H,2-9H2,1H3,(H,13,14)/t10-/m0/s1",
        "InChIKey": null,
        "Canonical SMILES": "O=C(NC1C(=O)OCC1)CCCCCCC",
        "Molecular Formula": "C<sub>12</sub>H<sub>21</sub>NO<sub>3</sub>",
        "Molecular Mass": "227.30",
        "Melting Point": "134-135 °C"
    }
}