{
    "cas_no": "3055-97-8",
    "key_name": "Heptaethylene glycol dodecyl ether",
    "cn_name": "十二烷基七聚乙二醇醚;",
    "alternate_name": "3,6,9,12,15,18,21-Heptaoxatritriacontan-1-ol;Ethanol, 2-[2-[2-[2-[2-[2-[2-(dodecyloxy)ethoxy]ethoxy]ethoxy]ethoxy]ethoxy]ethoxy]-;Heptaethylene glycol, monododecyl ether;Heptaethyleneglycol monolauryl ether;Heptaethylene glycol dodecyl ether;Dodecanol heptaethoxy ether;AEO 7;C<sub>12</sub>E<sub>7</sub>;C<sub>12</sub>EO<sub>7</sub>;Heptaethylene glycol <em>n</em>-dodecyl ether;Mergital LT 7;Nikkol BL 7SY;Rhodasurf LA-7;Pingpingjia 7;LAE 7;2-[2-[2-[2-[2-[2-(2-Dodecoxyethoxy)ethoxy]ethoxy]ethoxy]ethoxy]ethoxy]ethanol;H 280285",
    "duplicated_cas_no": "647835-70-9;1422284-03-4;1629879-35-1",
    "SMILES": "C(COCCOCCOCCOCCOCCO)OCCOCCCCCCCCCCCC",
    "meta_data": {
        "InChI": "InChI=1S/C26H54O8/c1-2-3-4-5-6-7-8-9-10-11-13-28-15-17-30-19-21-32-23-25-34-26-24-33-22-20-31-18-16-29-14-12-27/h27H,2-26H2,1H3",
        "InChIKey": null,
        "Canonical SMILES": "OCCOCCOCCOCCOCCOCCOCCOCCCCCCCCCCCC",
        "Molecular Formula": "C<sub>26</sub>H<sub>54</sub>O<sub>8</sub>",
        "Molecular Mass": "494.70",
        "Melting Point": "27.8-28.1 °C"
    }
}