{
    "cas_no": "205-99-2",
    "key_name": "Benz[<em>e</em>]acephenanthrylene",
    "cn_name": "苯并(b)荧蒽;",
    "alternate_name": "Benz[<em>e</em>]acephenanthrylene;Benzo[<em>e</em>]fluoranthene;3,4-Benzofluoranthene;Benzo[<em>b</em>]fluoranthene;3,4-Benz[<em>e</em>]acephenanthrylene;3,4-Benzfluoranthene;2,3-Benzfluoranthene;NSC 89265;BbF",
    "duplicated_cas_no": "858790-60-0",
    "SMILES": "C12=C3C=4C(C1=CC=CC2=C5C(=C3)C=CC=C5)=CC=CC4",
    "meta_data": {
        "InChI": "InChI=1S/C20H12/c1-2-7-14-13(6-1)12-19-16-9-4-3-8-15(16)18-11-5-10-17(14)20(18)19/h1-12H",
        "InChIKey": null,
        "Canonical SMILES": "C=1C=CC2=C(C1)C=C3C4=CC=CC=C4C5=CC=CC2=C53",
        "Molecular Formula": "C<sub>20</sub>H<sub>12</sub>",
        "Molecular Mass": "252.31",
        "Boiling Point": "481 °C",
        "Melting Point": "168 °C"
    }
}