{
    "cas_no": "4595-61-3",
    "key_name": "5-Pyrimidinecarboxylic acid",
    "cn_name": "嘧啶-5-羧酸;",
    "alternate_name": "5-Pyrimidinecarboxylic acid;5-Carboxypyrimidine;Pyrimidine-5-carboxylic acid",
    "duplicated_cas_no": "",
    "SMILES": "C(O)(=O)C=1C=NC=NC1",
    "meta_data": {
        "InChI": "InChI=1S/C5H4N2O2/c8-5(9)4-1-6-3-7-2-4/h1-3H,(H,8,9)",
        "InChIKey": null,
        "Canonical SMILES": "O=C(O)C=1C=NC=NC1",
        "Molecular Formula": "C<sub>5</sub>H<sub>4</sub>N<sub>2</sub>O<sub>2</sub>",
        "Molecular Mass": "124.10",
        "Melting Point": "268-270 °C"
    }
}