{
    "cas_no": "3512-80-9",
    "key_name": "2,6-Dimethyl-4-pyridinamine",
    "cn_name": "3,5-二甲基-4-氨基吡啶;3,5-二甲基-4-氨基吡啶;",
    "alternate_name": "4-Pyridinamine, 2,6-dimethyl-;2,6-Lutidine, 4-amino-;2,6-Dimethyl-4-pyridinamine;2,6-Dimethyl-4-aminopyridine;4-Amino-2,6-dimethylpyridine;4-Amino-2,6-lutidine;NSC 5090;(2,6-Dimethylpyridin-4-yl)amine",
    "duplicated_cas_no": "",
    "SMILES": "NC=1C=C(C)N=C(C)C1",
    "meta_data": {
        "InChI": "InChI=1S/C7H10N2/c1-5-3-7(8)4-6(2)9-5/h3-4H,1-2H3,(H2,8,9)",
        "InChIKey": null,
        "Canonical SMILES": "N=1C(=CC(N)=CC1C)C",
        "Molecular Formula": "C<sub>7</sub>H<sub>10</sub>N<sub>2</sub>",
        "Molecular Mass": "122.17",
        "Boiling Point": "246 °C",
        "Melting Point": "192.5 °C"
    }
}