{
    "cas_no": "29338-49-6",
    "key_name": "α-Methyl-β-phenylbenzeneethanol",
    "cn_name": "1,1-联苯-2-丙醇;",
    "alternate_name": "Benzeneethanol, α-methyl-β-phenyl-;2-Propanol, 1,1-diphenyl-;α-Methyl-β-phenylbenzeneethanol;1,1-Diphenyl-2-propanol;Benzhydryl methyl carbinol;2-Hydroxy-1,1-diphenylpropane;NSC 244476",
    "duplicated_cas_no": "52225-24-8",
    "SMILES": "C(C(C)O)(C1=CC=CC=C1)C2=CC=CC=C2",
    "meta_data": {
        "InChI": "InChI=1S/C15H16O/c1-12(16)15(13-8-4-2-5-9-13)14-10-6-3-7-11-14/h2-12,15-16H,1H3",
        "InChIKey": null,
        "Canonical SMILES": "OC(C)C(C=1C=CC=CC1)C=2C=CC=CC2",
        "Molecular Formula": "C<sub>15</sub>H<sub>16</sub>O",
        "Molecular Mass": "212.29",
        "Melting Point": "62 °C"
    }
}