{
    "cas_no": "6268-09-3",
    "key_name": "1-Hydroxy-2-methylanthraquinone",
    "cn_name": null,
    "alternate_name": "9,10-Anthracenedione, 1-hydroxy-2-methyl-;Anthraquinone, 1-hydroxy-2-methyl-;1-Hydroxy-2-methyl-9,10-anthracenedione;1-Hydroxy-2-methylanthraquinone;1-Hydroxy-2-methyl-9,10-anthraquinone;NSC 37131;1-Hydroxy-2-methyl-9,10-dihydroanthracene-9,10-dione",
    "duplicated_cas_no": "",
    "SMILES": "O=C1C=2C(C(=O)C=3C1=CC=CC3)=CC=C(C)C2O",
    "meta_data": {
        "InChI": "InChI=1S/C15H10O3/c1-8-6-7-11-12(13(8)16)15(18)10-5-3-2-4-9(10)14(11)17/h2-7,16H,1H3",
        "InChIKey": null,
        "Canonical SMILES": "O=C1C=2C=CC=CC2C(=O)C3=C(O)C(=CC=C13)C",
        "Molecular Formula": "C<sub>15</sub>H<sub>10</sub>O<sub>3</sub>",
        "Molecular Mass": "238.24",
        "Melting Point": "184-185 °C"
    }
}