{
    "cas_no": "628-34-2",
    "key_name": "1-Chloro-2-ethoxyethane",
    "cn_name": "2-氯乙醚;2-乙氧基氯乙烷;2-氯乙基乙基醚;",
    "alternate_name": "Ethane, 1-chloro-2-ethoxy-;Ether, 2-chloroethyl ethyl;1-Chloro-2-ethoxyethane;2-Chloroethyl ethyl ether;β-Chloroethyl ethyl ether;Ethyl β-chloroethyl ether;2-Ethoxyethyl chloride;β-Chlorodiethyl ether;(2-Chloroethoxy)ethane",
    "duplicated_cas_no": "",
    "SMILES": "C(OCC)CCl",
    "meta_data": {
        "InChI": "InChI=1S/C4H9ClO/c1-2-6-4-3-5/h2-4H2,1H3",
        "InChIKey": null,
        "Canonical SMILES": "ClCCOCC",
        "Molecular Formula": "C<sub>4</sub>H<sub>9</sub>ClO",
        "Molecular Mass": "108.57",
        "Boiling Point": "107.5 °C",
        "Density": "0.9845 g/cm³ @ Temp: 22.3 °C"
    }
}