{
    "cas_no": "3282-56-2",
    "key_name": "1-(1,1-Dimethylethyl)-4-nitrobenzene",
    "cn_name": "1-叔丁基-4-硝基苯;",
    "alternate_name": "Benzene, 1-(1,1-dimethylethyl)-4-nitro-;Benzene, 1-<em>tert</em>-butyl-4-nitro-;1-(1,1-Dimethylethyl)-4-nitrobenzene;<em>p</em>-<em>tert</em>-Butylnitrobenzene;1-<em>tert</em>-Butyl-4-nitrobenzene;4-<em>tert</em>-Butylnitrobenzene;4-Nitro-<em>tert</em>-butylbenzene;<em>p</em>-Nitro-<em>tert</em>-butylbenzene;4-<em>tert</em>-Butyl-1-Nitrobenzene;NSC 43040",
    "duplicated_cas_no": "",
    "SMILES": "C(C)(C)(C)C1=CC=C(N(=O)=O)C=C1",
    "meta_data": {
        "InChI": "InChI=1S/C10H13NO2/c1-10(2,3)8-4-6-9(7-5-8)11(12)13/h4-7H,1-3H3",
        "InChIKey": null,
        "Canonical SMILES": "O=N(=O)C1=CC=C(C=C1)C(C)(C)C",
        "Molecular Formula": "C<sub>10</sub>H<sub>13</sub>NO<sub>2</sub>",
        "Molecular Mass": "179.22",
        "Boiling Point": "265-267 °C @ Press: 757 Torr",
        "Melting Point": "28-28.5 °C"
    }
}