{
    "cas_no": "227197-72-0",
    "key_name": "6-Chlorobenzoxazole",
    "cn_name": null,
    "alternate_name": "Benzoxazole, 6-chloro-;6-Chlorobenzoxazole;6-Chlorobenzo[<em>d</em>]oxazole",
    "duplicated_cas_no": "",
    "SMILES": "ClC=1C=C2C(=CC1)N=CO2",
    "meta_data": {
        "InChI": "InChI=1S/C7H4ClNO/c8-5-1-2-6-7(3-5)10-4-9-6/h1-4H",
        "InChIKey": null,
        "Canonical SMILES": "ClC=1C=CC=2N=COC2C1",
        "Molecular Formula": "C<sub>7</sub>H<sub>4</sub>ClNO",
        "Molecular Mass": "153.57",
        "Melting Point": "56-57 °C"
    }
}