{
    "cas_no": "2536-91-6",
    "key_name": "2-Amino-6-methylbenzothiazole",
    "cn_name": "2-氨基-6-甲基苯并噻唑;",
    "alternate_name": "2-Benzothiazolamine, 6-methyl-;Benzothiazole, 2-amino-6-methyl-;Benzothiazole, 1-amino-5-methyl-;6-Methyl-2-benzothiazolamine;2-Amino-6-methylbenzothiazole;6-Methyl-2-benzothiazolylamine;6-Methyl-2-aminobenzothiazole;6-Methyl-1,3-benzothiazol-2-ylamine;NSC 118944;NSC 12760;6-Methyl-1,3-benzothiazol-2-amine;6-Methylbenzo[<em>d</em>]thiazol-2-amine;2-Amino-6-methyl-1,3-benzothiazole;2-Methylbenzothiazole-6-amine",
    "duplicated_cas_no": "1293987-82-2",
    "SMILES": "NC1=NC=2C(S1)=CC(C)=CC2",
    "meta_data": {
        "InChI": "InChI=1S/C8H8N2S/c1-5-2-3-6-7(4-5)11-8(9)10-6/h2-4H,1H3,(H2,9,10)",
        "InChIKey": null,
        "Canonical SMILES": "N1=C(SC=2C=C(C=CC12)C)N",
        "Molecular Formula": "C<sub>8</sub>H<sub>8</sub>N<sub>2</sub>S",
        "Molecular Mass": "164.23",
        "Melting Point": "136 °C"
    }
}