{
    "cas_no": "4412-96-8",
    "key_name": "3-Methylfuran-2-carboxylic acid",
    "cn_name": "3-甲基-2-糠酸;3-甲基-2-呋喃甲酸;3-甲基呋喃-2-羧酸;",
    "alternate_name": "2-Furancarboxylic acid, 3-methyl-;2-Furoic acid, 3-methyl-;3-Methyl-2-furancarboxylic acid;Elsholtzic acid;3-Methyl-2-furoic acid;3-Methylfuran-2-carboxylic acid;NSC 508742",
    "duplicated_cas_no": "",
    "SMILES": "C(O)(=O)C1=C(C)C=CO1",
    "meta_data": {
        "InChI": "InChI=1S/C6H6O3/c1-4-2-3-9-5(4)6(7)8/h2-3H,1H3,(H,7,8)",
        "InChIKey": null,
        "Canonical SMILES": "O=C(O)C=1OC=CC1C",
        "Molecular Formula": "C<sub>6</sub>H<sub>6</sub>O<sub>3</sub>",
        "Molecular Mass": "126.11",
        "Melting Point": "134 °C"
    }
}