{
    "cas_no": "578-28-9",
    "key_name": "1-Chloro-2,5-difluoro-4-nitrobenzene",
    "cn_name": null,
    "alternate_name": "Benzene, 1-chloro-2,5-difluoro-4-nitro-;1-Chloro-2,5-difluoro-4-nitrobenzene;4-Chloro-2,5-difluoronitrobenzene",
    "duplicated_cas_no": "",
    "SMILES": "N(=O)(=O)C1=C(F)C=C(Cl)C(F)=C1",
    "meta_data": {
        "InChI": "InChI=1S/C6H2ClF2NO2/c7-3-1-5(9)6(10(11)12)2-4(3)8/h1-2H",
        "InChIKey": null,
        "Canonical SMILES": "O=N(=O)C=1C=C(F)C(Cl)=CC1F",
        "Molecular Formula": "C<sub>6</sub>H<sub>2</sub>ClF<sub>2</sub>NO<sub>2</sub>",
        "Molecular Mass": "193.54",
        "Boiling Point": "116 °C @ Press: 20 Torr"
    }
}