{
    "cas_no": "13093-65-7",
    "key_name": "α,4-Dihydroxybenzeneacetonitrile",
    "cn_name": null,
    "alternate_name": "Benzeneacetonitrile, α,4-dihydroxy-;Mandelonitrile, <em>p</em>-hydroxy-;α,4-Dihydroxybenzeneacetonitrile;(<em>p</em>-Hydroxyphenyl)glycolonitrile;<em>p</em>-Hydroxymandelonitrile;4-Hydroxymandelonitrile;(<em>R</em>,<em>S</em>)-<em>p</em>-Hydroxymandelonitrile;(±)-α,4-Dihydroxybenzeneacetonitrile;(±)-4-Hydroxymandelonitrile;Alpha-hydroxy 4-hydroxyphenylacetonitrile;2-Hydroxy-2-(4-hydroxyphenyl)acetonitrile",
    "duplicated_cas_no": "6851-36-1",
    "SMILES": "C(C#N)(O)C1=CC=C(O)C=C1",
    "meta_data": {
        "InChI": "InChI=1S/C8H7NO2/c9-5-8(11)6-1-3-7(10)4-2-6/h1-4,8,10-11H",
        "InChIKey": null,
        "Canonical SMILES": "N#CC(O)C1=CC=C(O)C=C1",
        "Molecular Formula": "C<sub>8</sub>H<sub>7</sub>NO<sub>2</sub>",
        "Molecular Mass": "149.15",
        "Melting Point": "99-102 °C"
    }
}