{
    "cas_no": "23583-21-3",
    "key_name": "<em>N</em>-(Phenylmethyl)-β-alanine ethyl ester",
    "cn_name": "3-(苄基氨基)丙酸乙酯;N-苄基-beta-丙氨酸乙酯;",
    "alternate_name": "β-Alanine, <em>N</em>-(phenylmethyl)-, ethyl ester;β-Alanine, <em>N</em>-benzyl-, ethyl ester;<em>N</em>-(Phenylmethyl)-β-alanine ethyl ester;Ethyl 3-(benzylamino)propionate;Ethyl <em>N</em>-benzyl-β-alaninate;<em>N</em>-Benzyl-3-aminopropionic acid ethyl ester;NSC 74954;3-Benzylaminopropionic acid ethyl ester;Ethyl 3-(benzylamino)propanoate;3-(Benzylamino)propanoic acid ethyl ester;<em>N</em>-Benzyl-β-alanine ethyl ester",
    "duplicated_cas_no": "",
    "SMILES": "C(NCCC(OCC)=O)C1=CC=CC=C1",
    "meta_data": {
        "InChI": "InChI=1S/C12H17NO2/c1-2-15-12(14)8-9-13-10-11-6-4-3-5-7-11/h3-7,13H,2,8-10H2,1H3",
        "InChIKey": null,
        "Canonical SMILES": "O=C(OCC)CCNCC=1C=CC=CC1",
        "Molecular Formula": "C<sub>12</sub>H<sub>17</sub>NO<sub>2</sub>",
        "Molecular Mass": "207.27",
        "Boiling Point": "132-134 °C @ Press: 2 Torr",
        "Density": "1.9126 g/cm³ @ Temp: 20 °C"
    }
}