{
    "cas_no": "13573-08-5",
    "key_name": "Germanium iodide (GeI<sub>2</sub>)",
    "cn_name": "二碘化锗;碘化锗(II);",
    "alternate_name": "Germanium iodide (GeI<sub>2</sub>);Germanium diiodide;Diiodogermylene;Germanium(II) iodide",
    "duplicated_cas_no": "",
    "SMILES": "[Ge](I)I",
    "meta_data": {
        "InChI": "InChI=1S/GeI2/c2-1-3",
        "InChIKey": null,
        "Canonical SMILES": "I[Ge]I",
        "Molecular Formula": "GeI<sub>2</sub>",
        "Molecular Mass": "",
        "Melting Point": "460 °C",
        "Density": "5.73 g/cm³"
    }
}