{
    "cas_no": "7366-56-5",
    "key_name": "4-[(Aminothioxomethyl)amino]benzoic acid",
    "cn_name": "(4-羧苯基)硫脲;",
    "alternate_name": "Benzoic acid, 4-[(aminothioxomethyl)amino]-;Benzoic acid, <em>p</em>-(thioureido)-;4-[(Aminothioxomethyl)amino]benzoic acid;(<em>p</em>-Carboxyphenyl)thiourea;4-Thioureidobenzoic acid;<em>N</em>-(4-Carboxyphenyl)thiourea;NSC 49255;Thiourea, 4-carboxyphenyl-;4-Carboxyphenylthiourea",
    "duplicated_cas_no": "",
    "SMILES": "N(C(N)=S)C1=CC=C(C(O)=O)C=C1",
    "meta_data": {
        "InChI": "InChI=1S/C8H8N2O2S/c9-8(13)10-6-3-1-5(2-4-6)7(11)12/h1-4H,(H,11,12)(H3,9,10,13)",
        "InChIKey": null,
        "Canonical SMILES": "O=C(O)C1=CC=C(C=C1)NC(=S)N",
        "Molecular Formula": "C<sub>8</sub>H<sub>8</sub>N<sub>2</sub>O<sub>2</sub>S",
        "Molecular Mass": "196.23",
        "Melting Point": "&lt;330 °C"
    }
}