{
    "cas_no": "18881-17-9",
    "key_name": "(<em>S</em>)-1,2,3,4-Tetrahydro-3-isoquinolinemethanol",
    "cn_name": "(S)-(-)-1,2,3,4-四氢-3-异喹啉甲醇;",
    "alternate_name": "3-Isoquinolinemethanol, 1,2,3,4-tetrahydro-, (3<em>S</em>)-;3-Isoquinolinemethanol, 1,2,3,4-tetrahydro-, (<em>S</em>)-;(3<em>S</em>)-1,2,3,4-Tetrahydro-3-isoquinolinemethanol;(<em>S</em>)-3-Hydroxymethyl-1,2,3,4-tetrahydroisoquinoline;(<em>S</em>)-(-)-1,2,3,4-Tetrahydro-3-isoquinolinemethanol;(<em>S</em>)-(1,2,3,4-Tetrahydroisoquinolin-3-yl)methanol;(<em>S</em>)-1,2,3,4-Tetrahydro-3-isoquinolinemethanol;((3<em>S</em>)-1,2,3,4-Tetrahydroisoquinolin-3-yl)methanol;(3S)-1,2,3,4-Tetrahydroisoquinolin-3-ylmethanol",
    "duplicated_cas_no": "",
    "SMILES": "C(O)[C@@H]1CC=2C(CN1)=CC=CC2",
    "meta_data": {
        "InChI": "InChI=1S/C10H13NO/c12-7-10-5-8-3-1-2-4-9(8)6-11-10/h1-4,10-12H,5-7H2/t10-/m0/s1",
        "InChIKey": null,
        "Canonical SMILES": "OCC1NCC=2C=CC=CC2C1",
        "Molecular Formula": "C<sub>10</sub>H<sub>13</sub>NO",
        "Molecular Mass": "163.22",
        "Melting Point": "105-107 °C"
    }
}