{
    "cas_no": "29898-32-6",
    "key_name": "2,4-Dichloro-1-iodobenzene",
    "cn_name": "2,4-二氯碘苯;",
    "alternate_name": "Benzene, 2,4-dichloro-1-iodo-;2,4-Dichloro-1-iodobenzene;2,4-Dichloroiodobenzene;2,4-Dichlorophenyl iodide;1,3-Dichloro-4-iodobenzene;NSC 90657",
    "duplicated_cas_no": "",
    "SMILES": "ClC1=C(I)C=CC(Cl)=C1",
    "meta_data": {
        "InChI": "InChI=1S/C6H3Cl2I/c7-4-1-2-6(9)5(8)3-4/h1-3H",
        "InChIKey": null,
        "Canonical SMILES": "ClC1=CC=C(I)C(Cl)=C1",
        "Molecular Formula": "C<sub>6</sub>H<sub>3</sub>Cl<sub>2</sub>I",
        "Molecular Mass": "272.90",
        "Boiling Point": "259-261 °C"
    }
}