{
    "cas_no": "713-95-1",
    "key_name": "δ-Dodecalactone",
    "cn_name": "丁位十二内酯;5-羟基十二酸-delta-内酯;",
    "alternate_name": "2<em>H</em>-Pyran-2-one, 6-heptyltetrahydro-;Dodecanoic acid, 5-hydroxy-, δ-lactone;6-Heptyltetrahydro-2<em>H</em>-pyran-2-one;δ-Dodecalactone;5-Hydroxydodecanoic acid δ-lactone;5-Hydroxydodecanoic acid lactone;δ-Heptyl-δ-valerolactone;5-Dodecanolide;AI 3-36030;δ-Dodecanolactone;(±)-δ-Dodecalactone;(<em>R</em>,<em>S</em>)-δ-Dodecalactone;δ-Dodecane lactone",
    "duplicated_cas_no": "3051-22-7",
    "SMILES": "C(CCCCCC)C1OC(=O)CCC1",
    "meta_data": {
        "InChI": "InChI=1S/C12H22O2/c1-2-3-4-5-6-8-11-9-7-10-12(13)14-11/h11H,2-10H2,1H3",
        "InChIKey": null,
        "Canonical SMILES": "O=C1OC(CCC1)CCCCCCC",
        "Molecular Formula": "C<sub>12</sub>H<sub>22</sub>O<sub>2</sub>",
        "Molecular Mass": "198.30",
        "Boiling Point": "126 °C @ Press: 1 Torr",
        "Density": "0.9536 g/cm³ @ Temp: 20 °C"
    }
}