{
    "cas_no": "89-51-0",
    "key_name": "Homophthalic acid",
    "cn_name": "邻羧基苯乙酸;高邻苯二甲酸;",
    "alternate_name": "Benzeneacetic acid, 2-carboxy-;<em>o</em>-Toluic acid, α-carboxy-;2-Carboxybenzeneacetic acid;α-Carboxy-<em>o</em>-toluic acid;Homophthalic acid;Toluene-α,2-dicarboxylic acid;(2-Carboxyphenyl)acetic acid;(<em>o</em>-Carboxymethyl)benzoic acid;<em>o</em>-Carboxybenzeneacetic acid;NSC 149596;NSC 15185;NSC 401692;2-Carboxymethylbenzoic acid",
    "duplicated_cas_no": "",
    "SMILES": "C(O)(=O)C1=C(CC(O)=O)C=CC=C1",
    "meta_data": {
        "InChI": "InChI=1S/C9H8O4/c10-8(11)5-6-3-1-2-4-7(6)9(12)13/h1-4H,5H2,(H,10,11)(H,12,13)",
        "InChIKey": null,
        "Canonical SMILES": "O=C(O)C=1C=CC=CC1CC(=O)O",
        "Molecular Formula": "C<sub>9</sub>H<sub>8</sub>O<sub>4</sub>",
        "Molecular Mass": "180.16",
        "Melting Point": "175-177 °C"
    }
}