{
    "cas_no": "1656-44-6",
    "key_name": "2,4-Dinitrobenzenesulfonyl chloride",
    "cn_name": "2,4-二硝基苯磺酰氯;2，4-二硝基苯磺酰氯;2,4-二硝基苯氯化砜;2,4-二硝基氯化苯磺酰;氯化-2,4-二硝基苯磺酰;",
    "alternate_name": "Benzenesulfonyl chloride, 2,4-dinitro-;2,4-Dinitrobenzenesulfonyl chloride;2,4-Dinitrophenylsulfonyl chloride;2,4-Dinitrobenzene-1-sulfonyl chloride",
    "duplicated_cas_no": "1804970-10-2",
    "SMILES": "N(=O)(=O)C1=C(S(Cl)(=O)=O)C=CC(N(=O)=O)=C1",
    "meta_data": {
        "InChI": "InChI=1S/C6H3ClN2O6S/c7-16(14,15)6-2-1-4(8(10)11)3-5(6)9(12)13/h1-3H",
        "InChIKey": null,
        "Canonical SMILES": "O=N(=O)C1=CC=C(C(=C1)N(=O)=O)S(=O)(=O)Cl",
        "Molecular Formula": "C<sub>6</sub>H<sub>3</sub>ClN<sub>2</sub>O<sub>6</sub>S",
        "Molecular Mass": "266.62",
        "Boiling Point": "60-80 °C",
        "Melting Point": "101-102 °C"
    }
}