{
    "cas_no": "7295-85-4",
    "key_name": "(±)-Catechol",
    "cn_name": null,
    "alternate_name": "2<em>H</em>-1-Benzopyran-3,5,7-triol, 2-(3,4-dihydroxyphenyl)-3,4-dihydro-, (2<em>R</em>,3<em>S</em>)-<em>rel</em>-;Catechol, (±)-;2<em>H</em>-1-Benzopyran-3,5,7-triol, 2-(3,4-dihydroxyphenyl)-3,4-dihydro-, <em>trans</em>-(±)-;<em>rel</em>-(2<em>R</em>,3<em>S</em>)-2-(3,4-Dihydroxyphenyl)-3,4-dihydro-2<em>H</em>-1-benzopyran-3,5,7-triol;<em>dl</em>-Catechin;<em>dl</em>-Catechol;(±)-Catechol;(±)-Catechin;<span class=\"text-smallcaps\">DL</span>-Catechin;<em>rac</em>-Catechin;Racemic catechin;2<em>H</em>-1-Benzopyran-3,5,7-triol, 2-(3,4-dihydroxyphenyl)-3,4-dihydro-, <em>trans</em>-",
    "duplicated_cas_no": "29907-20-8;72690-97-2",
    "SMILES": "O[C@@H]1[C@H](OC=2C(C1)=C(O)C=C(O)C2)C3=CC(O)=C(O)C=C3",
    "meta_data": {
        "InChI": "InChI=1/C15H14O6/c16-8-4-11(18)9-6-13(20)15(21-14(9)5-8)7-1-2-10(17)12(19)3-7/h1-5,13,15-20H,6H2/t13-,15+/s2",
        "InChIKey": null,
        "Canonical SMILES": "OC=1C=C(O)C2=C(OC(C3=CC=C(O)C(O)=C3)C(O)C2)C1",
        "Molecular Formula": "C<sub>15</sub>H<sub>14</sub>O<sub>6</sub>",
        "Molecular Mass": "290.27",
        "Melting Point": "212-216 °C"
    }
}