{
    "cas_no": "89-40-7",
    "key_name": "4-Nitrophthalimide",
    "cn_name": "4-硝基邻苯二甲酰亚胺;",
    "alternate_name": "1<em>H</em>-Isoindole-1,3(2<em>H</em>)-dione, 5-nitro-;Phthalimide, 4-nitro-;5-Nitro-1<em>H</em>-isoindole-1,3(2<em>H</em>)-dione;4-Nitrophthalimide;5-Nitrophthalimide;5-Nitroisoindole-1,3-dione;NSC 5394;5-Nitro-1H-isoindole-1,3(2H)-dione;5-Nitroisoindoline-1,3-dione",
    "duplicated_cas_no": "",
    "SMILES": "O=C1C=2C(C(=O)N1)=CC=C(N(=O)=O)C2",
    "meta_data": {
        "InChI": "InChI=1S/C8H4N2O4/c11-7-5-2-1-4(10(13)14)3-6(5)8(12)9-7/h1-3H,(H,9,11,12)",
        "InChIKey": null,
        "Canonical SMILES": "O=C1NC(=O)C2=CC(=CC=C12)N(=O)=O",
        "Molecular Formula": "C<sub>8</sub>H<sub>4</sub>N<sub>2</sub>O<sub>4</sub>",
        "Molecular Mass": "192.13",
        "Melting Point": "201 °C",
        "Density": "1.5947 g/cm³ @ Temp: 25.000 °C; Press: 750 Torr"
    }
}