{
    "cas_no": "969-33-5",
    "key_name": "Cyproheptadine hydrochloride",
    "cn_name": "二苯环庚啶盐酸盐;二苯环庚啶盐酸盐;盐酸二苯环庚啶；二苯环庚烷盐酸盐；甲哌啶叉二苯环庚啶盐酸盐；盐酸二;",
    "alternate_name": "Piperidine, 4-(5<em>H</em>-dibenzo[<em>a</em>,<em>d</em>]cyclohepten-5-ylidene)-1-methyl-, hydrochloride (1:1);Piperidine, 4-(5<em>H</em>-dibenzo[<em>a</em>,<em>d</em>]cyclohepten-5-ylidene)-1-methyl-, hydrochloride;Cyproheptadiene hydrochloride;Periactin hydrochloride;Cyproheptadine hydrochloride;Periactin syrup;Peritol;Periactinol;VUFB 3511;Nuran;Periactin;Cycloheptadine Hydrochloride;Ciplactin;Practin;Triactin;1-Methyl-4-(5<em>H</em>-dibenzo[<em>a</em>,<em>d</em>]cyclohepten-5-ylidene)piperidine hydrochloride",
    "duplicated_cas_no": "8057-33-8",
    "SMILES": "CN1CCC(=C2C=3C(C=CC=4C2=CC=CC4)=CC=CC3)CC1.Cl",
    "meta_data": {
        "InChI": "InChI=1S/C21H21N.ClH/c1-22-14-12-18(13-15-22)21-19-8-4-2-6-16(19)10-11-17-7-3-5-9-20(17)21;/h2-11H,12-15H2,1H3;1H",
        "InChIKey": null,
        "Canonical SMILES": "Cl.C=1C=CC2=C(C1)C=CC=3C=CC=CC3C2=C4CCN(C)CC4",
        "Molecular Formula": "C<sub>21</sub>H<sub>21</sub>N.ClH",
        "Molecular Mass": "",
        "Melting Point": "254-256.5 °C"
    }
}