{
    "cas_no": "69444-47-9",
    "key_name": "Ethanaminium, <em>N</em>,<em>N</em>-diethyl-<em>N</em>-methyl-, tetrafluoroborate(1-) (1:1)",
    "cn_name": null,
    "alternate_name": "Ethanaminium, <em>N</em>,<em>N</em>-diethyl-<em>N</em>-methyl-, tetrafluoroborate(1-) (1:1);Ethanaminium, <em>N</em>,<em>N</em>-diethyl-<em>N</em>-methyl-, tetrafluoroborate(1-);Borate(1-), tetrafluoro-, <em>N</em>,<em>N</em>-diethyl-<em>N</em>-methylethanaminium;Triethylmethylammonium tetrafluoroborate;Methyltriethylammonium tetrafluoroborate;Lipaste P/TEMAF 14N",
    "duplicated_cas_no": "1595035-26-9",
    "SMILES": "[B+3]([F-])([F-])([F-])[F-].[N+](CC)(CC)(CC)C",
    "meta_data": {
        "InChI": "InChI=1S/C7H18N.BF4/c1-5-8(4,6-2)7-3;2-1(3,4)5/h5-7H2,1-4H3;/q+1;-1",
        "InChIKey": null,
        "Canonical SMILES": "[F-][B+3]([F-])([F-])[F-].CC[N+](C)(CC)CC",
        "Molecular Formula": "C<sub>7</sub>H<sub>18</sub>N.BF<sub>4</sub>",
        "Molecular Mass": "",
        "Melting Point": "336 °C"
    }
}