{
    "cas_no": "144494-65-5",
    "key_name": "Tirofiban",
    "cn_name": "替罗非班;(2S)-2-(丁基磺酰氨基)-3-[4-[4-(4-哌啶基)丁氧基]苯基]丙酸;",
    "alternate_name": "<span class=\"text-smallcaps\">L</span>-Tyrosine, <em>N</em>-(butylsulfonyl)-<em>O</em>-[4-(4-piperidinyl)butyl]-;<em>N</em>-(Butylsulfonyl)-<em>O</em>-[4-(4-piperidinyl)butyl]-<span class=\"text-smallcaps\">L</span>-tyrosine;Tirofiban;Aggrestat",
    "duplicated_cas_no": "151065-53-1",
    "SMILES": "C([C@H](NS(CCCC)(=O)=O)C(O)=O)C1=CC=C(OCCCCC2CCNCC2)C=C1",
    "meta_data": {
        "InChI": "InChI=1S/C22H36N2O5S/c1-2-3-16-30(27,28)24-21(22(25)26)17-19-7-9-20(10-8-19)29-15-5-4-6-18-11-13-23-14-12-18/h7-10,18,21,23-24H,2-6,11-17H2,1H3,(H,25,26)/t21-/m0/s1",
        "InChIKey": null,
        "Canonical SMILES": "O=C(O)C(NS(=O)(=O)CCCC)CC1=CC=C(OCCCCC2CCNCC2)C=C1",
        "Molecular Formula": "C<sub>22</sub>H<sub>36</sub>N<sub>2</sub>O<sub>5</sub>S",
        "Molecular Mass": "440.60",
        "Melting Point": "223-225 °C"
    }
}