{
    "cas_no": "930-33-6",
    "key_name": "2,4-Dihydro-3<em>H</em>-1,2,4-triazol-3-one",
    "cn_name": "1,2-二氢-3H-1,2,4-三氮唑-3-酮;",
    "alternate_name": "3<em>H</em>-1,2,4-Triazol-3-one, 1,2-dihydro-;Δ<sup>2</sup>-1,2,4-Triazolin-5-one;<em>s</em>-Triazol-3-ol;1,2-Dihydro-3<em>H</em>-1,2,4-triazol-3-one;1<em>H</em>-1,2,4-Triazol-3-ol;2,4-Dihydro-3<em>H</em>-1,2,4-triazol-3-one;NSC 119861;NSC 153380;1,2-Dihydro-3<em>H</em>-1,2,4-triazole-3-one;1,2-Dihydro-1,2,4-triazol-3-one",
    "duplicated_cas_no": "5311-58-0;7271-59-2",
    "SMILES": "O=C1NC=NN1",
    "meta_data": {
        "InChI": "InChI=1S/C2H3N3O/c6-2-3-1-4-5-2/h1H,(H2,3,4,5,6)",
        "InChIKey": null,
        "Canonical SMILES": "O=C1NN=CN1",
        "Molecular Formula": "C<sub>2</sub>H<sub>3</sub>N<sub>3</sub>O",
        "Molecular Mass": "85.06",
        "Melting Point": "234-235 °C"
    }
}