{
    "cas_no": "71-68-1",
    "key_name": "Hydromorphone hydrochloride",
    "cn_name": "2,3-二氯-6-三氟甲基-4-硝基甲苯;盐酸氢吗啡酮;",
    "alternate_name": "Morphinan-6-one, 4,5-epoxy-3-hydroxy-17-methyl-, hydrochloride (1:1), (5α)-;Morphinan-6-one, 4,5α-epoxy-3-hydroxy-17-methyl-, hydrochloride;Morphinan-6-one, 4,5-epoxy-3-hydroxy-17-methyl-, hydrochloride, (5α)-;Morphinone, dihydro-, hydrochloride;Dihydromorphinone hydrochloride;Dilaudid;4,5-Epoxy-3-hydroxy-<em>N</em>-methyl-6-oxomorphinan hydrochloride;Hydromorphone hydrochloride;Dilaudid hydrochloride;Hymorphan;Laudicon;NSC 117862;Hydromorphodone;Palladone;Dilaudid-HP",
    "duplicated_cas_no": "",
    "SMILES": "O=C1[C@]2([C@]34C=5C(O2)=C(O)C=CC5C[C@]([C@@]3(CC1)[H])(N(C)CC4)[H])[H].Cl",
    "meta_data": {
        "InChI": "InChI=1S/C17H19NO3.ClH/c1-18-7-6-17-10-3-5-13(20)16(17)21-15-12(19)4-2-9(14(15)17)8-11(10)18;/h2,4,10-11,16,19H,3,5-8H2,1H3;1H/t10-,11+,16-,17-;/m0./s1",
        "InChIKey": null,
        "Canonical SMILES": "Cl.O=C1CCC2C3N(C)CCC42C5=C(OC14)C(O)=CC=C5C3",
        "Molecular Formula": "C<sub>17</sub>H<sub>19</sub>NO<sub>3</sub>.ClH",
        "Molecular Mass": "",
        "Melting Point": "&gt;280 °C (decomp)"
    }
}