{
    "cas_no": "2991-28-8",
    "key_name": "2,5-Difluorobenzoic acid",
    "cn_name": "2,5-二氟苯甲酸;",
    "alternate_name": "Benzoic acid, 2,5-difluoro-;2,5-Difluorobenzoic acid;NSC 190310",
    "duplicated_cas_no": "",
    "SMILES": "C(O)(=O)C1=C(F)C=CC(F)=C1",
    "meta_data": {
        "InChI": "InChI=1S/C7H4F2O2/c8-4-1-2-6(9)5(3-4)7(10)11/h1-3H,(H,10,11)",
        "InChIKey": null,
        "Canonical SMILES": "O=C(O)C1=CC(F)=CC=C1F",
        "Molecular Formula": "C<sub>7</sub>H<sub>4</sub>F<sub>2</sub>O<sub>2</sub>",
        "Molecular Mass": "158.10",
        "Melting Point": "133 °C"
    }
}