{
    "cas_no": "28356-58-3",
    "key_name": "4-Pyridineacetic acid",
    "cn_name": null,
    "alternate_name": "4-Pyridineacetic acid;4-Pyridylacetic acid;4-Carboxymethylpyridine;(4-Pyridinyl)acetic acid;2-(Pyridin-4-yl)acetic acid",
    "duplicated_cas_no": "",
    "SMILES": "C(C(O)=O)C=1C=CN=CC1",
    "meta_data": {
        "InChI": "InChI=1S/C7H7NO2/c9-7(10)5-6-1-3-8-4-2-6/h1-4H,5H2,(H,9,10)",
        "InChIKey": null,
        "Canonical SMILES": "O=C(O)CC=1C=CN=CC1",
        "Molecular Formula": "C<sub>7</sub>H<sub>7</sub>NO<sub>2</sub>",
        "Molecular Mass": "137.14",
        "Melting Point": "141 °C (decomp)"
    }
}