{
    "cas_no": "41514-64-1",
    "key_name": "3,4,5-Trimethoxyphenyl β-<span class=\"text-smallcaps\">D</span>-glucopyranoside",
    "cn_name": null,
    "alternate_name": "β-<span class=\"text-smallcaps\">D</span>-Glucopyranoside, 3,4,5-trimethoxyphenyl;3,4,5-Trimethoxyphenyl β-<span class=\"text-smallcaps\">D</span>-glucopyranoside;Koaburaside monomethyl ether;3,4,5-Trimethoxyphenol 1-<em>O</em>-β-<span class=\"text-smallcaps\">D</span>-glucopyranoside;3,4,5-Trimethoxyphenyl <em>O</em>-β-<span class=\"text-smallcaps\">D</span>-glucopyranoside;1,2,3-Trimethoxyphenyl-5-<em>O</em>-β-<span class=\"text-smallcaps\">D</span>-glucoside;Koaburside;3,4,5-Trimethoxyphenol β-<span class=\"text-smallcaps\">D</span>-glucopyranoside",
    "duplicated_cas_no": "1638096-88-4",
    "SMILES": "O(C)C1=C(OC)C=C(O[C@@H]2O[C@H](CO)[C@@H](O)[C@H](O)[C@H]2O)C=C1OC",
    "meta_data": {
        "InChI": "InChI=1S/C15H22O9/c1-20-8-4-7(5-9(21-2)14(8)22-3)23-15-13(19)12(18)11(17)10(6-16)24-15/h4-5,10-13,15-19H,6H2,1-3H3/t10-,11-,12+,13-,15-/m1/s1",
        "InChIKey": null,
        "Canonical SMILES": "OCC1OC(OC=2C=C(OC)C(OC)=C(OC)C2)C(O)C(O)C1O",
        "Molecular Formula": "C<sub>15</sub>H<sub>22</sub>O<sub>9</sub>",
        "Molecular Mass": "346.33",
        "Melting Point": "201-203 °C"
    }
}