{
    "cas_no": "2390-54-7",
    "key_name": "Thioflavin",
    "cn_name": "硫黄素T;碱性黄1;2-[4-(二甲基氨基)苯基]-3,6-二甲基苯并噻唑鎓氯化物;",
    "alternate_name": "Benzothiazolium, 2-[4-(dimethylamino)phenyl]-3,6-dimethyl-, chloride (1:1);Thioflavine T;Benzothiazolium, 2-[<em>p</em>-(dimethylamino)phenyl]-3,6-dimethyl-, chloride;Benzothiazolium, 2-[4-(dimethylamino)phenyl]-3,6-dimethyl-, chloride;2-[<em>p</em>-(Dimethylamino)phenyl]-3,6-dimethylbenzothiazolium chloride;C.I. 49005;Acronol Lake Yellow T;Acronol Lake Yellow TC;Acronol Yellow T;Acronol Yellow TC;Basic Yellow T;Brilliant Flavine T;Citroflavine 8G;C.I. Basic Yellow 1;Kansai Basic Flavine 8GO;Methylene Yellow N;Methylene Yellow NI;Nankai Basic Flavine 8G;Primoflavine 8G;Setoflavine T;Tannoflavine T;Thioflavine;Thioflavine TCN;Thioflavine TCND;Thioflavine TG;Thioflavin T;Acronol Yellow TC 180;Setoflavin T;3,6-Dimethyl-2-dimethylaminophenylbenzothiazolium chloride;Rhoduline Yellow;Purimofurabin 8G;Basic yellow 1;Thioflavin TCN extra;Thioflavin TCN;Basic Flavine 8G;Thioflavin;Th-T;19: PN: US20130338076 SEQID: 187 claimed sequence;2-(4-(Dimethylamino)phenyl)-3,6-dimethylbenzo[<em>d</em>]thiazol-3-ium chloride",
    "duplicated_cas_no": "",
    "SMILES": "C[N+]1=C(SC=2C1=CC=C(C)C2)C3=CC=C(N(C)C)C=C3.[Cl-]",
    "meta_data": {
        "InChI": "InChI=1S/C17H19N2S.ClH/c1-12-5-10-15-16(11-12)20-17(19(15)4)13-6-8-14(9-7-13)18(2)3;/h5-11H,1-4H3;1H/q+1;/p-1",
        "InChIKey": null,
        "Canonical SMILES": "[Cl-].S1C=2C=C(C=CC2[N+](=C1C3=CC=C(C=C3)N(C)C)C)C",
        "Molecular Formula": "C<sub>17</sub>H<sub>19</sub>N<sub>2</sub>S.Cl",
        "Molecular Mass": "",
        "Melting Point": "211-212 °C (decomp)"
    }
}