{
    "cas_no": "2436-90-0",
    "key_name": "3,7-Dimethyl-1,6-octadiene",
    "cn_name": "二氢月桂烯;3,7-二甲基-1,6-辛二烯;",
    "alternate_name": "1,6-Octadiene, 3,7-dimethyl-;3,7-Dimethyl-1,6-octadiene;Dihydromyrcene;Citronellene;β-Citronellene",
    "duplicated_cas_no": "128241-35-0",
    "SMILES": "C(CCC=C(C)C)(C=C)C",
    "meta_data": {
        "InChI": "InChI=1S/C10H18/c1-5-10(4)8-6-7-9(2)3/h5,7,10H,1,6,8H2,2-4H3",
        "InChIKey": null,
        "Canonical SMILES": "C=CC(C)CCC=C(C)C",
        "Molecular Formula": "C<sub>10</sub>H<sub>18</sub>",
        "Molecular Mass": "138.25",
        "Boiling Point": "165-167 °C @ Press: 750 Torr",
        "Density": "0.7811 g/cm³ @ Temp: 14.4 °C"
    }
}