{
    "cas_no": "75-56-9",
    "key_name": "(±)-Propylene oxide",
    "cn_name": "环氧丙烷;",
    "alternate_name": "Oxirane, 2-methyl-;Oxirane, methyl-;Propylene oxide;Propane, 1,2-epoxy-;Oxypropylene;2-Methyloxirane;1,2-Epoxypropane;Propene oxide;1,2-Propylene oxide;Epoxypropane;Methyloxirane;2,3-Epoxypropane;Propylene epoxide;AD 6 (suspending agent);AD 6;Methyloxacyclopropane;Epihydrin;<em>dl</em>-Propylene oxide;<span class=\"text-smallcaps\">DL</span>-1,2-Epoxypropane;(±)-Methyloxirane;(±)-2-Methyloxirane;(±)-Epoxypropane;(±)-Propylene oxide;(±)-1,2-Epoxypropane;Propozone;<em>rac</em>-Propylene oxide;Chemogas NV;SK 8613L;APA 0888;APA 0308;PO 8380;P 109309",
    "duplicated_cas_no": "16033-71-9",
    "SMILES": "CC1CO1",
    "meta_data": {
        "InChI": "InChI=1S/C3H6O/c1-3-2-4-3/h3H,2H2,1H3",
        "InChIKey": null,
        "Canonical SMILES": "O1CC1C",
        "Molecular Formula": "C<sub>3</sub>H<sub>6</sub>O",
        "Molecular Mass": "58.08",
        "Boiling Point": "34.23 °C",
        "Melting Point": "-112.13 °C",
        "Density": "0.8 g/cm³"
    }
}