{
    "cas_no": "324-93-6",
    "key_name": "4′-Fluoro[1,1′-biphenyl]-4-amine",
    "cn_name": null,
    "alternate_name": "[1,1′-Biphenyl]-4-amine, 4′-fluoro-;4-Biphenylamine, 4′-fluoro-;4′-Fluoro[1,1′-biphenyl]-4-amine;4-(<em>p</em>-Fluorophenyl)aniline;4-(4-Fluorophenyl)aniline;4-Amino-4′-fluorobiphenyl;4′-Fluoro-4-aminobiphenyl;4′-Fluoro-<em>p</em>-phenylaniline;4′-Fluoro-4-biphenylamine;NSC 88341;(4′-Fluorobiphenyl-4-yl)amine",
    "duplicated_cas_no": "",
    "SMILES": "FC1=CC=C(C=C1)C2=CC=C(N)C=C2",
    "meta_data": {
        "InChI": "InChI=1S/C12H10FN/c13-11-5-1-9(2-6-11)10-3-7-12(14)8-4-10/h1-8H,14H2",
        "InChIKey": null,
        "Canonical SMILES": "FC=1C=CC(=CC1)C2=CC=C(N)C=C2",
        "Molecular Formula": "C<sub>12</sub>H<sub>10</sub>FN",
        "Molecular Mass": "187.21",
        "Melting Point": "120 °C"
    }
}