{
    "cas_no": "99217-63-7",
    "key_name": "Kushenol A",
    "cn_name": null,
    "alternate_name": "4<em>H</em>-1-Benzopyran-4-one, 2,3-dihydro-5,7-dihydroxy-2-(2-hydroxyphenyl)-8-[(2<em>R</em>)-5-methyl-2-(1-methylethenyl)-4-hexen-1-yl]-, (2<em>S</em>)-;4<em>H</em>-1-Benzopyran-4-one, 2,3-dihydro-5,7-dihydroxy-2-(2-hydroxyphenyl)-8-[5-methyl-2-(1-methylethenyl)-4-hexenyl]-, [<em>S</em>-(<em>R</em>*,<em>S</em>*)]-;4<em>H</em>-1-Benzopyran-4-one, 2,3-dihydro-5,7-dihydroxy-2-(2-hydroxyphenyl)-8-[(2<em>R</em>)-5-methyl-2-(1-methylethenyl)-4-hexenyl]-, (2<em>S</em>)-;(2<em>S</em>)-2,3-Dihydro-5,7-dihydroxy-2-(2-hydroxyphenyl)-8-[(2<em>R</em>)-5-methyl-2-(1-methylethenyl)-4-hexen-1-yl]-4<em>H</em>-1-benzopyran-4-one;(-)-Kushenol A;Kushenol A;Leachianone E",
    "duplicated_cas_no": "124858-42-0;139542-47-5",
    "SMILES": "C([C@@H](CC=C(C)C)C(C)=C)C1=C2C(C(=O)C[C@H](O2)C3=C(O)C=CC=C3)=C(O)C=C1O",
    "meta_data": {
        "InChI": "InChI=1S/C25H28O5/c1-14(2)9-10-16(15(3)4)11-18-20(27)12-21(28)24-22(29)13-23(30-25(18)24)17-7-5-6-8-19(17)26/h5-9,12,16,23,26-28H,3,10-11,13H2,1-2,4H3/t16-,23+/m1/s1",
        "InChIKey": null,
        "Canonical SMILES": "O=C1C2=C(O)C=C(O)C(=C2OC(C=3C=CC=CC3O)C1)CC(C(=C)C)CC=C(C)C",
        "Molecular Formula": "C<sub>25</sub>H<sub>28</sub>O<sub>5</sub>",
        "Molecular Mass": "408.49",
        "Melting Point": "175-178 °C"
    }
}