{
    "cas_no": "502-52-3",
    "key_name": "1,3-Dipalmitin",
    "cn_name": null,
    "alternate_name": "Hexadecanoic acid, 1,1′-(2-hydroxy-1,3-propanediyl) ester;Palmitin, 1,3-di-;Hexadecanoic acid, 2-hydroxy-1,3-propanediyl ester;1,3-Dipalmitin;1,3-Dipalmitoylglycerol;1,3-Dipalmitoylglycerin;Glycerol 1,3-dipalmitate;Glycerol 1,3-dihexadecanoate;(3-Hexadecanoyloxy-2-hydroxypropyl) hexadecanoate",
    "duplicated_cas_no": "",
    "SMILES": "C(COC(CCCCCCCCCCCCCCC)=O)(COC(CCCCCCCCCCCCCCC)=O)O",
    "meta_data": {
        "InChI": "InChI=1S/C35H68O5/c1-3-5-7-9-11-13-15-17-19-21-23-25-27-29-34(37)39-31-33(36)32-40-35(38)30-28-26-24-22-20-18-16-14-12-10-8-6-4-2/h33,36H,3-32H2,1-2H3",
        "InChIKey": null,
        "Canonical SMILES": "O=C(OCC(O)COC(=O)CCCCCCCCCCCCCCC)CCCCCCCCCCCCCCC",
        "Molecular Formula": "C<sub>35</sub>H<sub>68</sub>O<sub>5</sub>",
        "Molecular Mass": "568.91",
        "Melting Point": "71.8-74.2 °C"
    }
}