{
    "cas_no": "10196-18-6",
    "key_name": "Zinc nitrate hexahydrate",
    "cn_name": "六水合硝酸锌;",
    "alternate_name": "Nitric acid, zinc salt, hydrate (2:1:6);Nitric acid, zinc salt, hexahydrate;Zinc nitrate hexahydrate;Zinc dinitrate hexahydrate;Zinc nitrate (Zn(NO<sub>3</sub>)<sub>2</sub>), hexahydrate;Zinc nitrate hexahydrate (Zn(NO<sub>3</sub>)<sub>2</sub>.6H<sub>2</sub>O)",
    "duplicated_cas_no": "15491-59-5;2379804-70-1;2414553-23-2",
    "SMILES": "N(=O)(=O)O.O.[Zn]",
    "meta_data": {
        "InChI": "InChI=1S/HNO3.3H2O.Zn/c2-1(3)4;;;;/h(H,2,3,4);3*1H2;",
        "InChIKey": null,
        "Canonical SMILES": "[Zn].O=N(=O)O.O",
        "Molecular Formula": "H<sub>2</sub>O.<sup>1</sup>/<sub>3</sub>HNO<sub>3</sub>.<sup>1</sup>/<sub>6</sub>Zn",
        "Molecular Mass": "",
        "Melting Point": "36.2 °C",
        "Density": "1.595 g/cm³ @ Temp: 25.000 °C"
    }
}