{
    "cas_no": "3366-95-8",
    "key_name": "Secnidazole",
    "cn_name": "塞克硝唑;1-(2-羟基丙基)-2-甲基-5-硝基咪唑;",
    "alternate_name": "1<em>H</em>-Imidazole-1-ethanol, α,2-dimethyl-5-nitro-;Imidazole-1-ethanol, α,2-dimethyl-5-nitro-;α,2-Dimethyl-5-nitro-1<em>H</em>-imidazole-1-ethanol;Secnidazole;RP 14539;Flagentyl;PM 185184;1-(2-Methyl-5-nitroimidazol-1-yl)-2-propanol;Secnol;Sabima;SYM 1219;Deprozol;Solosec;1-(2-Methyl-5-nitro-1<em>H</em>-imidazol-1-yl)propan-2-ol",
    "duplicated_cas_no": "56274-78-3",
    "SMILES": "C(C(C)O)N1C(N(=O)=O)=CN=C1C",
    "meta_data": {
        "InChI": "InChI=1S/C7H11N3O3/c1-5(11)4-9-6(2)8-3-7(9)10(12)13/h3,5,11H,4H2,1-2H3",
        "InChIKey": null,
        "Canonical SMILES": "O=N(=O)C1=CN=C(N1CC(O)C)C",
        "Molecular Formula": "C<sub>7</sub>H<sub>11</sub>N<sub>3</sub>O<sub>3</sub>",
        "Molecular Mass": "185.18",
        "Melting Point": "76 °C"
    }
}