{
    "cas_no": "86-86-2",
    "key_name": "1-Naphthaleneacetamide",
    "cn_name": "1-萘乙酰胺;",
    "alternate_name": "1-Naphthaleneacetamide;Amid-Thin;α-Naphthaleneacetamide;α-Naphthylacetamide;1-Naphthylacetamide;Amid-Thin W;2-(1-Naphthyl)acetamide;Dirigol N;Frufix;NAAm;α-NAA amide;Rootone;NSC 34862;Diramid;2-(Naphthalen-1-yl)acetamide;2-(Naphthalene-1-yl)-acetamide",
    "duplicated_cas_no": "",
    "SMILES": "C(C(N)=O)C=1C2=C(C=CC1)C=CC=C2",
    "meta_data": {
        "InChI": "InChI=1S/C12H11NO/c13-12(14)8-10-6-3-5-9-4-1-2-7-11(9)10/h1-7H,8H2,(H2,13,14)",
        "InChIKey": null,
        "Canonical SMILES": "O=C(N)CC1=CC=CC=2C=CC=CC21",
        "Molecular Formula": "C<sub>12</sub>H<sub>11</sub>NO",
        "Molecular Mass": "185.22",
        "Melting Point": "184 °C"
    }
}