{
    "cas_no": "347-66-0",
    "key_name": "2-Chloro-<em>N</em>-(2-fluorophenyl)acetamide",
    "cn_name": null,
    "alternate_name": "Acetamide, 2-chloro-<em>N</em>-(2-fluorophenyl)-;Acetanilide, 2-chloro-2′-fluoro-;2-Chloro-<em>N</em>-(2-fluorophenyl)acetamide;<em>N</em>-(2-Fluorophenyl)-2-chloroacetamide",
    "duplicated_cas_no": "",
    "SMILES": "N(C(CCl)=O)C1=C(F)C=CC=C1",
    "meta_data": {
        "InChI": "InChI=1S/C8H7ClFNO/c9-5-8(12)11-7-4-2-1-3-6(7)10/h1-4H,5H2,(H,11,12)",
        "InChIKey": null,
        "Canonical SMILES": "O=C(NC=1C=CC=CC1F)CCl",
        "Molecular Formula": "C<sub>8</sub>H<sub>7</sub>ClFNO",
        "Molecular Mass": "187.60",
        "Melting Point": "88-90 °C"
    }
}