{
    "cas_no": "54314-84-0",
    "key_name": "Benzyl 3-bromopropyl ether",
    "cn_name": "3-溴丙基苄基醚;",
    "alternate_name": "Benzene, [(3-bromopropoxy)methyl]-;Ether, benzyl 3-bromopropyl;[(3-Bromopropoxy)methyl]benzene;Benzyl 3-bromopropyl ether;3-Benzyloxypropyl bromide;3-Bromopropyl benzyl ether;1-Benzyloxy-3-bromopropane;3-(Benzyloxy)-1-bromopropane;3-Bromo-1-benzyloxypropane;3-Bromopropanol benzylic ether;3-Bromopropyl phenylmethyl ether;[(3-Bromopropyloxy)methyl]benzene;1-Bromo-3-(benzyloxy)propane",
    "duplicated_cas_no": "",
    "SMILES": "C(OCCCBr)C1=CC=CC=C1",
    "meta_data": {
        "InChI": "InChI=1S/C10H13BrO/c11-7-4-8-12-9-10-5-2-1-3-6-10/h1-3,5-6H,4,7-9H2",
        "InChIKey": null,
        "Canonical SMILES": "BrCCCOCC=1C=CC=CC1",
        "Molecular Formula": "C<sub>10</sub>H<sub>13</sub>BrO",
        "Molecular Mass": "229.11",
        "Boiling Point": "130-132 °C @ Press: 8 Torr"
    }
}