{
    "cas_no": "31036-80-3",
    "key_name": "Lofexidine",
    "cn_name": "洛非西定;2-[1-(2,6-二氯苯氧基)乙基]-2-咪唑啉;",
    "alternate_name": "1<em>H</em>-Imidazole, 2-[1-(2,6-dichlorophenoxy)ethyl]-4,5-dihydro-;2-Imidazoline, 2-[1-(2,6-dichlorophenoxy)ethyl]-;2-[1-(2,6-Dichlorophenoxy)ethyl]-4,5-dihydro-1<em>H</em>-imidazole;Lofexidine;(±)-Lofexidine;NIH 10868",
    "duplicated_cas_no": "73372-53-9",
    "SMILES": "O(C(C)C=1NCCN1)C2=C(Cl)C=CC=C2Cl",
    "meta_data": {
        "InChI": "InChI=1S/C11H12Cl2N2O/c1-7(11-14-5-6-15-11)16-10-8(12)3-2-4-9(10)13/h2-4,7H,5-6H2,1H3,(H,14,15)",
        "InChIKey": null,
        "Canonical SMILES": "ClC1=CC=CC(Cl)=C1OC(C2=NCCN2)C",
        "Molecular Formula": "C<sub>11</sub>H<sub>12</sub>Cl<sub>2</sub>N<sub>2</sub>O",
        "Molecular Mass": "259.13",
        "Melting Point": "127 °C"
    }
}