{
    "cas_no": "107367-98-6",
    "key_name": "2-Phenyl-5-methyloxazole-4-acetic acid",
    "cn_name": null,
    "alternate_name": "4-Oxazoleacetic acid, 5-methyl-2-phenyl-;5-Methyl-2-phenyl-4-oxazoleacetic acid;2-Phenyl-5-methyloxazole-4-acetic acid;5-Methyl-2-phenyloxazol-4-ylacetic acid;2-(5-Methyl-2-phenyloxazol-4-yl)acetic acid;(5-Methyl-2-phenyl-1,3-oxazol-4-yl)acetic acid;2-(5-Methyl-2-phenyl-1,3-oxazol-4-yl)acetic acid",
    "duplicated_cas_no": "130769-06-1",
    "SMILES": "C(C(O)=O)C=1N=C(OC1C)C2=CC=CC=C2",
    "meta_data": {
        "InChI": "InChI=1S/C12H11NO3/c1-8-10(7-11(14)15)13-12(16-8)9-5-3-2-4-6-9/h2-6H,7H2,1H3,(H,14,15)",
        "InChIKey": null,
        "Canonical SMILES": "O=C(O)CC=1N=C(OC1C)C=2C=CC=CC2",
        "Molecular Formula": "C<sub>12</sub>H<sub>11</sub>NO<sub>3</sub>",
        "Molecular Mass": "217.22",
        "Melting Point": "126-127 °C"
    }
}