{
    "cas_no": "28672-54-0",
    "key_name": "2-(2-Ethoxyethyl)pyridine",
    "cn_name": null,
    "alternate_name": "Pyridine, 2-(2-ethoxyethyl)-;2-(2-Ethoxyethyl)pyridine;NSC 163912",
    "duplicated_cas_no": "",
    "SMILES": "C(COCC)C1=CC=CC=N1",
    "meta_data": {
        "InChI": "InChI=1S/C9H13NO/c1-2-11-8-6-9-5-3-4-7-10-9/h3-5,7H,2,6,8H2,1H3",
        "InChIKey": null,
        "Canonical SMILES": "N=1C=CC=CC1CCOCC",
        "Molecular Formula": "C<sub>9</sub>H<sub>13</sub>NO",
        "Molecular Mass": "151.21",
        "Boiling Point": "74-75 °C @ Press: 3 Torr",
        "Density": "0.9611 g/cm³ @ Temp: 20 °C"
    }
}