{
    "cas_no": "104-10-9",
    "key_name": "2-(4-Aminophenyl)ethanol",
    "cn_name": "4-氨基苯乙醇;对氨基苯乙醇;",
    "alternate_name": "Benzeneethanol, 4-amino-;Phenethyl alcohol, <em>p</em>-amino-;4-Aminobenzeneethanol;<em>p</em>-Aminophenethyl alcohol;2-(<em>p</em>-Aminophenyl)ethanol;2-(4-Aminophenyl)ethanol;4-(2-Hydroxyethyl)aniline;<em>p</em>-(2-Hydroxyethyl)aniline;4-Aminophenethyl alcohol;4-(2-Hydroxyethyl)phenylamine;2-(4-Aminophenyl)-1-ethanol;NSC 409780;2-(4-Aminophenyl)ethyl alcohol",
    "duplicated_cas_no": "",
    "SMILES": "C(CO)C1=CC=C(N)C=C1",
    "meta_data": {
        "InChI": "InChI=1S/C8H11NO/c9-8-3-1-7(2-4-8)5-6-10/h1-4,10H,5-6,9H2",
        "InChIKey": null,
        "Canonical SMILES": "OCCC1=CC=C(N)C=C1",
        "Molecular Formula": "C<sub>8</sub>H<sub>11</sub>NO",
        "Molecular Mass": "137.18",
        "Boiling Point": "230-235 °C @ Press: 3-5 Torr",
        "Melting Point": "109 °C"
    }
}