{
    "cas_no": "87344-06-7",
    "key_name": "Amtolmetin guacil",
    "cn_name": "呱氨托美丁;2-甲氧苯基2-(1-甲基-5-(4-甲基苯甲酰)-1H-吡咯-2-乙酰氨基乙酸酯;",
    "alternate_name": "Glycine, <em>N</em>-[2-[1-methyl-5-(4-methylbenzoyl)-1<em>H</em>-pyrrol-2-yl]acetyl]-, 2-methoxyphenyl ester;Glycine, <em>N</em>-[[1-methyl-5-(4-methylbenzoyl)-1<em>H</em>-pyrrol-2-yl]acetyl]-, 2-methoxyphenyl ester;ST 679;MED 15;Amtolmetin guacil;Amtolmethin guacil;Amtolmetin guacyl;Finrid TM;(2-Methoxyphenyl)2-[[2-[1-methyl-5-(4-methylbenzoyl)pyrrol-2-yl]acetyl]amino]acetate;2-Methoxyphenyl 2-(2-(1-methyl-5-(4-methylbenzoyl)-1<em>H</em>-pyrrol-2-yl)acetamido)acetate",
    "duplicated_cas_no": "104076-16-6",
    "SMILES": "C(=O)(C=1N(C)C(CC(NCC(OC2=C(OC)C=CC=C2)=O)=O)=CC1)C3=CC=C(C)C=C3",
    "meta_data": {
        "InChI": "InChI=1S/C24H24N2O5/c1-16-8-10-17(11-9-16)24(29)19-13-12-18(26(19)2)14-22(27)25-15-23(28)31-21-7-5-4-6-20(21)30-3/h4-13H,14-15H2,1-3H3,(H,25,27)",
        "InChIKey": null,
        "Canonical SMILES": "O=C(OC=1C=CC=CC1OC)CNC(=O)CC2=CC=C(C(=O)C3=CC=C(C=C3)C)N2C",
        "Molecular Formula": "C<sub>24</sub>H<sub>24</sub>N<sub>2</sub>O<sub>5</sub>",
        "Molecular Mass": "420.46",
        "Melting Point": "117-120 °C"
    }
}