{
    "cas_no": "40594-98-7",
    "key_name": "Ethyl 1<em>H</em>-1,2,3-triazole-5-carboxylate",
    "cn_name": "1H-1,2,3-三氮唑-5-甲酸乙酯;",
    "alternate_name": "1<em>H</em>-1,2,3-Triazole-5-carboxylic acid, ethyl ester;1<em>H</em>-1,2,3-Triazole-4-carboxylic acid, ethyl ester;<em>v</em>-Triazole-4-carboxylic acid, ethyl ester;Ethyl 1<em>H</em>-1,2,3-triazole-5-carboxylate;Ethyl 1,2,3-triazole-5-carboxylate;Ethyl 1,2,3-triazole-4-carboxylate;Ethyl 1<em>H</em>-1,2,3-triazole-4-carboxylate;4-Ethoxycarbonyl-1<em>H</em>-1,2,3-triazole;1,2,3-Triazole-4-carboxylic acid ethyl ester",
    "duplicated_cas_no": "",
    "SMILES": "C(OCC)(=O)C1=CN=NN1",
    "meta_data": {
        "InChI": "InChI=1S/C5H7N3O2/c1-2-10-5(9)4-3-6-8-7-4/h3H,2H2,1H3,(H,6,7,8)",
        "InChIKey": null,
        "Canonical SMILES": "O=C(OCC)C1=CN=NN1",
        "Molecular Formula": "C<sub>5</sub>H<sub>7</sub>N<sub>3</sub>O<sub>2</sub>",
        "Molecular Mass": "141.13",
        "Melting Point": "102-104 °C"
    }
}