{
    "cas_no": "380-86-9",
    "key_name": "2,2-Difluoropentanedioic acid",
    "cn_name": null,
    "alternate_name": "Pentanedioic acid, 2,2-difluoro-;Glutaric acid, 2,2-difluoro-;2,2-Difluoropentanedioic acid",
    "duplicated_cas_no": "",
    "SMILES": "C(CCC(O)=O)(C(O)=O)(F)F",
    "meta_data": {
        "InChI": "InChI=1S/C5H6F2O4/c6-5(7,4(10)11)2-1-3(8)9/h1-2H2,(H,8,9)(H,10,11)",
        "InChIKey": null,
        "Canonical SMILES": "O=C(O)CCC(F)(F)C(=O)O",
        "Molecular Formula": "C<sub>5</sub>H<sub>6</sub>F<sub>2</sub>O<sub>4</sub>",
        "Molecular Mass": "168.10",
        "Melting Point": "103-105 °C"
    }
}