{
    "cas_no": "77-83-8",
    "key_name": "Ethyl 3-methyl-3-phenylglycidate",
    "cn_name": "杨梅醛;3-甲基-3-苯基缩水甘油酸乙酯;2-苄基-2,3-环丁酸乙酯;",
    "alternate_name": "2-Oxiranecarboxylic acid, 3-methyl-3-phenyl-, ethyl ester;Hydrocinnamic acid, α,β-epoxy-β-methyl-, ethyl ester;Oxiranecarboxylic acid, 3-methyl-3-phenyl-, ethyl ester;Aldehyde C<sub>16</sub>;Ethyl α,β-epoxy-β-methylhydrocinnamate;Ethyl methylphenylglycidate;Fraeseol;3-Methyl-3-phenylglycidic acid ethyl ester;Strawberry aldehyde;Ethyl 3-methyl-3-phenylglycidate;NSC 27905;Ethyl 3-methyl-3-phenyloxirane-2-carboxylate;FRAISE PURE",
    "duplicated_cas_no": "1322-04-9",
    "SMILES": "CC1(C(C(OCC)=O)O1)C2=CC=CC=C2",
    "meta_data": {
        "InChI": "InChI=1S/C12H14O3/c1-3-14-11(13)10-12(2,15-10)9-7-5-4-6-8-9/h4-8,10H,3H2,1-2H3",
        "InChIKey": null,
        "Canonical SMILES": "O=C(OCC)C1OC1(C=2C=CC=CC2)C",
        "Molecular Formula": "C<sub>12</sub>H<sub>14</sub>O<sub>3</sub>",
        "Molecular Mass": "206.24",
        "Boiling Point": "272-275 °C",
        "Density": "1.0442 g/cm³ @ Temp: 20 °C"
    }
}