{
    "cas_no": "6270-46-8",
    "key_name": "5-Amino-6-methyl-2,4(1<em>H</em>,3<em>H</em>)-pyrimidinedione",
    "cn_name": null,
    "alternate_name": "2,4(1<em>H</em>,3<em>H</em>)-Pyrimidinedione, 5-amino-6-methyl-;Uracil, 5-amino-6-methyl-;5-Amino-6-methyl-2,4(1<em>H</em>,3<em>H</em>)-pyrimidinedione;5-Amino-6-methyluracil;NSC 35527",
    "duplicated_cas_no": "22715-31-7",
    "SMILES": "NC1=C(C)NC(=O)NC1=O",
    "meta_data": {
        "InChI": "InChI=1S/C5H7N3O2/c1-2-3(6)4(9)8-5(10)7-2/h6H2,1H3,(H2,7,8,9,10)",
        "InChIKey": null,
        "Canonical SMILES": "O=C1NC(=O)C(N)=C(N1)C",
        "Molecular Formula": "C<sub>5</sub>H<sub>7</sub>N<sub>3</sub>O<sub>2</sub>",
        "Molecular Mass": "141.13",
        "Melting Point": "272-274 °C (decomp)"
    }
}