{
    "cas_no": "620-08-6",
    "key_name": "4-Methoxypyridine",
    "cn_name": "4-甲氧基吡啶;",
    "alternate_name": "Pyridine, 4-methoxy-;4-Methoxypyridine;γ-Methoxypyridine",
    "duplicated_cas_no": "",
    "SMILES": "O(C)C=1C=CN=CC1",
    "meta_data": {
        "InChI": "InChI=1S/C6H7NO/c1-8-6-2-4-7-5-3-6/h2-5H,1H3",
        "InChIKey": null,
        "Canonical SMILES": "N=1C=CC(OC)=CC1",
        "Molecular Formula": "C<sub>6</sub>H<sub>7</sub>NO",
        "Molecular Mass": "109.13",
        "Boiling Point": "190 °C",
        "Melting Point": "4 °C"
    }
}