{
    "cas_no": "1471-17-6",
    "key_name": "Pentaerythritol triallyl ether",
    "cn_name": null,
    "alternate_name": "1-Propanol, 3-(2-propen-1-yloxy)-2,2-bis[(2-propen-1-yloxy)methyl]-;1-Propanol, 3-(allyloxy)-2,2-bis[(allyloxy)methyl]-;1-Propanol, 3-(2-propenyloxy)-2,2-bis[(2-propenyloxy)methyl]-;3-(2-Propen-1-yloxy)-2,2-bis[(2-propen-1-yloxy)methyl]-1-propanol;Pentaerythritol triallyl ether;3-(Allyloxy)-2,2-bis[(allyloxy)methyl]-1-propanol;Triallyl pentaerythritol;Neoallyl P 30;Neoallyl P 30M;P 30;PETE;P 30M;Triallyl pentaerythritol ether;3-Prop-2-enoxy-2,2-bis(prop-2-enoxymethyl)propan-1-ol",
    "duplicated_cas_no": "250698-91-0",
    "SMILES": "C(COCC=C)(COCC=C)(COCC=C)CO",
    "meta_data": {
        "InChI": "InChI=1S/C14H24O4/c1-4-7-16-11-14(10-15,12-17-8-5-2)13-18-9-6-3/h4-6,15H,1-3,7-13H2",
        "InChIKey": null,
        "Canonical SMILES": "OCC(COCC=C)(COCC=C)COCC=C",
        "Molecular Formula": "C<sub>14</sub>H<sub>24</sub>O<sub>4</sub>",
        "Molecular Mass": "256.34",
        "Boiling Point": "152-152.50 °C @ Press: 9.5-10 Torr",
        "Density": "1.261 g/cm³ @ Temp: 22 °C"
    }
}