{
    "cas_no": "107-45-9",
    "key_name": "2,4,4-Trimethyl-2-pentanamine",
    "cn_name": "叔辛胺;1,1,3,3-四甲基丁胺;2,4,4-三甲基-2-戊胺;",
    "alternate_name": "2-Pentanamine, 2,4,4-trimethyl-;Butylamine, 1,1,3,3-tetramethyl-;2,4,4-Trimethyl-2-pentanamine;1,1,3,3-Tetramethylbutylamine;<em>tert</em>-Octylamine;2,4,4-Trimethyl-2-pentylamine;1,1,3,3-Tetramethylbutanamine;2-Amino-2,4,4-trimethylpentane;Primene TOA;<em>tert</em>-Octanamine;NSC 33852",
    "duplicated_cas_no": "38724-98-0;77658-17-4;89961-29-5",
    "SMILES": "C(C(C)(C)C)C(C)(C)N",
    "meta_data": {
        "InChI": "InChI=1S/C8H19N/c1-7(2,3)6-8(4,5)9/h6,9H2,1-5H3",
        "InChIKey": null,
        "Canonical SMILES": "NC(C)(C)CC(C)(C)C",
        "Molecular Formula": "C<sub>8</sub>H<sub>19</sub>N",
        "Molecular Mass": "129.24",
        "Boiling Point": "138 °C"
    }
}