{
    "cas_no": "10250-63-2",
    "key_name": "Ethyl 1-methyl-3-phenyl-1<em>H</em>-pyrazole-5-carboxylate",
    "cn_name": null,
    "alternate_name": "1<em>H</em>-Pyrazole-5-carboxylic acid, 1-methyl-3-phenyl-, ethyl ester;Pyrazole-5-carboxylic acid, 1-methyl-3-phenyl-, ethyl ester;Ethyl 1-methyl-3-phenyl-1<em>H</em>-pyrazole-5-carboxylate;2-Methyl-5-phenyl-2<em>H</em>-pyrazole-3-carboxylic acid ethyl ester",
    "duplicated_cas_no": "",
    "SMILES": "C(OCC)(=O)C1=CC(=NN1C)C2=CC=CC=C2",
    "meta_data": {
        "InChI": "InChI=1S/C13H14N2O2/c1-3-17-13(16)12-9-11(14-15(12)2)10-7-5-4-6-8-10/h4-9H,3H2,1-2H3",
        "InChIKey": null,
        "Canonical SMILES": "O=C(OCC)C1=CC(=NN1C)C=2C=CC=CC2",
        "Molecular Formula": "C<sub>13</sub>H<sub>14</sub>N<sub>2</sub>O<sub>2</sub>",
        "Molecular Mass": "230.26",
        "Melting Point": "27 °C"
    }
}