{
    "cas_no": "10519-88-7",
    "key_name": "1,1′-(Di-2-propen-1-ylsilylene)bis[benzene]",
    "cn_name": "己二烯二苯基硅烷;",
    "alternate_name": "Benzene, 1,1′-(di-2-propen-1-ylsilylene)bis-;Silane, diallyldiphenyl-;Silane, diphenyldi-2-propenyl-;1,1′-(Di-2-propen-1-ylsilylene)bis[benzene];Diallyldiphenylsilane;Diphenyldiallylsilane;NSC 269574;4,4-Diphenyl-4-sila-1,6-heptadiene",
    "duplicated_cas_no": "",
    "SMILES": "[Si](CC=C)(CC=C)(C1=CC=CC=C1)C2=CC=CC=C2",
    "meta_data": {
        "InChI": "InChI=1S/C18H20Si/c1-3-15-19(16-4-2,17-11-7-5-8-12-17)18-13-9-6-10-14-18/h3-14H,1-2,15-16H2",
        "InChIKey": null,
        "Canonical SMILES": "C=CC[Si](C=1C=CC=CC1)(C=2C=CC=CC2)CC=C",
        "Molecular Formula": "C<sub>18</sub>H<sub>20</sub>Si",
        "Molecular Mass": "264.44",
        "Boiling Point": "140-141 °C @ Press: 2 Torr",
        "Density": "0.995 g/cm³"
    }
}