{
    "cas_no": "27063-93-0",
    "key_name": "3-Bromo-2,4-dimethylpyridine",
    "cn_name": null,
    "alternate_name": "Pyridine, 3-bromo-2,4-dimethyl-;2,4-Lutidine, 3-bromo-;3-Bromo-2,4-dimethylpyridine;3-Bromo-2,4-lutidine",
    "duplicated_cas_no": "",
    "SMILES": "BrC=1C(C)=CC=NC1C",
    "meta_data": {
        "InChI": "InChI=1S/C7H8BrN/c1-5-3-4-9-6(2)7(5)8/h3-4H,1-2H3",
        "InChIKey": null,
        "Canonical SMILES": "BrC=1C(=NC=CC1C)C",
        "Molecular Formula": "C<sub>7</sub>H<sub>8</sub>BrN",
        "Molecular Mass": "186.05",
        "Boiling Point": "28-29 °C @ Press: 40 Torr"
    }
}