{
    "cas_no": "5291-77-0",
    "key_name": "1-Benzyl-2-pyrrolidinone",
    "cn_name": "N-苄基吡咯烷酮;1-苄基-2-吡咯烷酮;",
    "alternate_name": "2-Pyrrolidinone, 1-(phenylmethyl)-;2-Pyrrolidinone, 1-benzyl-;1-(Phenylmethyl)-2-pyrrolidinone;1-Benzyl-2-pyrrolidinone;<em>N</em>-Benzylpyrrolidin-2-one;<em>N</em>-Benzylpyrrolidone;1-Benzyl-2-pyrrolidone;<em>N</em>-Benzyl-2-pyrrolidone;1-Benzylazacyclopentan-2-one;1-Benzyl-2-oxopyrrolidine;<em>N</em>-Benzylbutyrolactam;NSC 30184",
    "duplicated_cas_no": "",
    "SMILES": "C(N1C(=O)CCC1)C2=CC=CC=C2",
    "meta_data": {
        "InChI": "InChI=1S/C11H13NO/c13-11-7-4-8-12(11)9-10-5-2-1-3-6-10/h1-3,5-6H,4,7-9H2",
        "InChIKey": null,
        "Canonical SMILES": "O=C1N(CC=2C=CC=CC2)CCC1",
        "Molecular Formula": "C<sub>11</sub>H<sub>13</sub>NO",
        "Molecular Mass": "175.23",
        "Boiling Point": "122.5-123 °C @ Press: 2 Torr",
        "Melting Point": "89 °C",
        "Density": "1.0983 g/cm³ @ Temp: 20 °C"
    }
}