{
    "cas_no": "1313-13-9",
    "key_name": "Manganese oxide (MnO<sub>2</sub>)",
    "cn_name": "二氧化锰;",
    "alternate_name": "Manganese oxide (MnO<sub>2</sub>);Manganese dioxide;Manganese dioxide (MnO<sub>2</sub>);Manganese oxide;Manganese(IV) oxide;FMH;Battery manganese;Eagle Picher G;Cellmax CMD 1;Cellmax CMD-U;EMD;G 80-325;γ-Manganese dioxide;EP Type II;CMD 100;RB-A;RB-A (oxide);PS 1102B;Thiobrown;HC 9;OL 1;HHTF;HC 9 (oxide);GH-T;GH-U;GMR-T;HH-TF 7;HM 370;HM 370 (oxide);HH-S;HH-XFA;Activated Manganese Dioxide;DK 420;Honeywell Fa 4;Manganese oxide (MnO<sub>2</sub>);YJ 0169;AMD 250;LMD 180;ZY 920",
    "duplicated_cas_no": "301678-04-6;1363198-04-2;1679350-32-3;1988696-45-2;2102309-28-2",
    "SMILES": "[Mn](=O)=O",
    "meta_data": {
        "InChI": "InChI=1S/Mn.2O",
        "InChIKey": null,
        "Canonical SMILES": "O=[Mn]=O",
        "Molecular Formula": "MnO<sub>2</sub>",
        "Molecular Mass": "",
        "Melting Point": "553 °C (decomp)",
        "Density": "5.0 g/cm³"
    }
}