{
    "cas_no": "54-25-1",
    "key_name": "6-Azauridine",
    "cn_name": "6-氮杂尿苷;氮尿苷;6-Azauracil riboside;2-β-D-Ribofuranosyl-1,2,4-triazine-3,5(2H,4H)-dione;",
    "alternate_name": "1,2,4-Triazine-3,5(2<em>H</em>,4<em>H</em>)-dione, 2-β-<span class=\"text-smallcaps\">D</span>-ribofuranosyl-;<em>as</em>-Triazine-3,5(2<em>H</em>,4<em>H</em>)-dione, 2-β-<span class=\"text-smallcaps\">D</span>-ribofuranosyl-;2-β-<span class=\"text-smallcaps\">D</span>-Ribofuranosyl-1,2,4-triazine-3,5(2<em>H</em>,4<em>H</em>)-dione;6-AzUr;NSC 32074;6-Azauracil-β-<span class=\"text-smallcaps\">D</span>-riboside;6-Azauridine;2-β-<span class=\"text-smallcaps\">D</span>-Ribofuranosyl-<em>as</em>-triazine-3,5(2<em>H</em>,4<em>H</em>)-dione;6-Azauracil 1-riboside;Riboazauracil;6-Azuridine;Rib-Azauracil;FSL 0296",
    "duplicated_cas_no": "39455-15-7",
    "SMILES": "O[C@H]1[C@@H](O[C@H](CO)[C@H]1O)N2C(=O)NC(=O)C=N2",
    "meta_data": {
        "InChI": "InChI=1S/C8H11N3O6/c12-2-3-5(14)6(15)7(17-3)11-8(16)10-4(13)1-9-11/h1,3,5-7,12,14-15H,2H2,(H,10,13,16)/t3-,5-,6-,7-/m1/s1",
        "InChIKey": null,
        "Canonical SMILES": "O=C1C=NN(C(=O)N1)C2OC(CO)C(O)C2O",
        "Molecular Formula": "C<sub>8</sub>H<sub>11</sub>N<sub>3</sub>O<sub>6</sub>",
        "Molecular Mass": "245.19",
        "Melting Point": "158 °C"
    }
}