{
    "cas_no": "1632-84-4",
    "key_name": "4-(Methylthio)phenyl isocyanate",
    "cn_name": "异氰酸- 4(甲硫基)苯酯;",
    "alternate_name": "Benzene, 1-isocyanato-4-(methylthio)-;Isocyanic acid, <em>p</em>-(methylthio)phenyl ester;Sulfide, <em>p</em>-isocyanatophenyl methyl;1-Isocyanato-4-(methylthio)benzene;4-(Methylthio)phenyl isocyanate;<em>p</em>-(Methylthio)phenyl isocyanate;(4-Methylsulfanylphenyl)isocyanate;1-Isocyanato-4-methylsulfanylbenzene",
    "duplicated_cas_no": "",
    "SMILES": "N(=C=O)C1=CC=C(SC)C=C1",
    "meta_data": {
        "InChI": "InChI=1S/C8H7NOS/c1-11-8-4-2-7(3-5-8)9-6-10/h2-5H,1H3",
        "InChIKey": null,
        "Canonical SMILES": "O=C=NC1=CC=C(SC)C=C1",
        "Molecular Formula": "C<sub>8</sub>H<sub>7</sub>NOS",
        "Molecular Mass": "165.21",
        "Boiling Point": "117-118 °C @ Press: 8 Torr"
    }
}