{
    "cas_no": "107-98-2",
    "key_name": "1-Methoxy-2-propanol",
    "cn_name": "丙二醇甲醚;丙二醇单甲醚;",
    "alternate_name": "2-Propanol, 1-methoxy-;1-Methoxy-2-propanol;Dowanol 33B;1-Methoxy-2-hydroxypropane;2-Methoxy-1-methylethanol;Dowtherm 209;3-Methoxy-2-propanol;Methoxyisopropanol;Closol;Propylene glycol 1-methyl ether;NSC 2409;Essilor altius;Glycol ether PM",
    "duplicated_cas_no": "58769-19-0",
    "SMILES": "C(C(C)O)OC",
    "meta_data": {
        "InChI": "InChI=1S/C4H10O2/c1-4(5)3-6-2/h4-5H,3H2,1-2H3",
        "InChIKey": null,
        "Canonical SMILES": "OC(C)COC",
        "Molecular Formula": "C<sub>4</sub>H<sub>10</sub>O<sub>2</sub>",
        "Molecular Mass": "90.12",
        "Boiling Point": "120.1 °C",
        "Melting Point": "-96 °C",
        "Density": "0.9620 g/cm³ @ Temp: 20 °C"
    }
}