{
    "cas_no": "40723-80-6",
    "key_name": "1,1,1,2,2-Pentafluoro-4-iodobutane",
    "cn_name": "1,1,1,2,2-五氟-4-碘丁烷;",
    "alternate_name": "Butane, 1,1,1,2,2-pentafluoro-4-iodo-;1,1,1,2,2-Pentafluoro-4-iodobutane;3,3,4,4,4-Pentafluorobutyl iodide;2-(Perfluoroethyl)ethyl iodide;4-Iodo-1,1,1,2,2-pentafluorobutane;Perfluoroethylethyl iodide;1,1,2,2-Tetrahydroperfluorobutyl iodide;1-Iodo-3,3,4,4,4-pentafluorobutane;3,3,4,4,4-Pentafluoro-1-iodobutane",
    "duplicated_cas_no": "",
    "SMILES": "C(C(F)(F)F)(CCI)(F)F",
    "meta_data": {
        "InChI": "InChI=1S/C4H4F5I/c5-3(6,1-2-10)4(7,8)9/h1-2H2",
        "InChIKey": null,
        "Canonical SMILES": "FC(F)(F)C(F)(F)CCI",
        "Molecular Formula": "C<sub>4</sub>H<sub>4</sub>F<sub>5</sub>I",
        "Molecular Mass": "273.97",
        "Boiling Point": "100 °C"
    }
}