{
    "cas_no": "848695-25-0",
    "key_name": "[6-Chloro-9-(4-methoxy-3,5-dimethylpyridin-2-ylmethyl)-9<em>H</em>-purin-2-yl]amine",
    "cn_name": null,
    "alternate_name": "9<em>H</em>-Purin-2-amine, 6-chloro-9-[(4-methoxy-3,5-dimethyl-2-pyridinyl)methyl]-;6-Chloro-9-[(4-methoxy-3,5-dimethyl-2-pyridinyl)methyl]-9<em>H</em>-purin-2-amine;[6-Chloro-9-(4-methoxy-3,5-dimethylpyridin-2-ylmethyl)-9<em>H</em>-purin-2-yl]amine;BIIB 021;CNF 2024",
    "duplicated_cas_no": "946090-40-0",
    "SMILES": "C(N1C=2C(N=C1)=C(Cl)N=C(N)N2)C3=C(C)C(OC)=C(C)C=N3",
    "meta_data": {
        "InChI": "InChI=1S/C14H15ClN6O/c1-7-4-17-9(8(2)11(7)22-3)5-21-6-18-10-12(15)19-14(16)20-13(10)21/h4,6H,5H2,1-3H3,(H2,16,19,20)",
        "InChIKey": null,
        "Canonical SMILES": "ClC1=NC(=NC2=C1N=CN2CC3=NC=C(C(OC)=C3C)C)N",
        "Molecular Formula": "C<sub>14</sub>H<sub>15</sub>ClN<sub>6</sub>O",
        "Molecular Mass": "318.76",
        "Melting Point": "192-193 °C"
    }
}