{
    "cas_no": "7722-64-7",
    "key_name": "Permanganic acid (HMnO<sub>4</sub>), potassium salt (1:1)",
    "cn_name": "高锰酸钾;过锰酸钾;",
    "alternate_name": "Permanganic acid (HMnO<sub>4</sub>), potassium salt (1:1);Permanganic acid (HMnO<sub>4</sub>), potassium salt;C.I. 77755;Chameleon mineral;Condy's crystals;Permanganic acid potassium salt;Cairox;Pure Light E 2;GS-KP;Turco 4338C;Tarco 4338C;Allways Fresh;HY 5;Concentrate Compact CP;Promoter 213;Potassium permanganate;Circuposit Promoter 3310/4140;MeSH ID: D011196",
    "duplicated_cas_no": "146104-97-4",
    "SMILES": "[Mn](O)(=O)(=O)=O.[K]",
    "meta_data": {
        "InChI": "InChI=1S/K.Mn.H2O.3O/h;;1H2;;;/q;+1;;;;/p-1",
        "InChIKey": null,
        "Canonical SMILES": "[K].O=[Mn](=O)(=O)O",
        "Molecular Formula": "HMnO<sub>4</sub>.K",
        "Molecular Mass": "",
        "Melting Point": "240 °C (decomp)",
        "Density": "2.7 g/cm³"
    }
}