{
    "cas_no": "1025-15-6",
    "key_name": "Triallyl isocyanurate",
    "cn_name": "三烯丙基异氰脲酸酯;三烯丙基异三聚氰酸酯;",
    "alternate_name": "1,3,5-Triazine-2,4,6(1<em>H</em>,3<em>H</em>,5<em>H</em>)-trione, 1,3,5-tri-2-propen-1-yl-;<em>s</em>-Triazine-2,4,6(1<em>H</em>,3<em>H</em>,5<em>H</em>)-trione, 1,3,5-triallyl-;1,3,5-Triazine-2,4,6(1<em>H</em>,3<em>H</em>,5<em>H</em>)-trione, 1,3,5-tri-2-propenyl-;<em>s</em>-Triazine-2,4,6(1<em>H</em>,3<em>H</em>,5<em>H</em>)-trione, triallyl-;1,3,5-Tri-2-propen-1-yl-1,3,5-triazine-2,4,6(1<em>H</em>,3<em>H</em>,5<em>H</em>)-trione;Isocyanuric acid triallyl ester;1,3,5-Triallylisocyanurate;Triallyl isocyanurate;1,3,5-Triallylisocyanuric acid;Diak 7;TAIC;Perkalink 301;M 60 (isocyanurate);M 60;Triallyl-1,3,5-triazine-2,4,6(1<em>H</em>,3<em>H</em>,5<em>H</em>)-trione;1,3,5-Tri-2-propenyl-1,3,5-triazine-2,4,6(1<em>H</em>,3<em>H</em>,5<em>H</em>)-trione;Perkalink 301-50D;Perkalink 301-501;Perkalink 301-50;TAIC-M 60;TAIC-M 6;M 6 (isocyanurate);M 6;DLC-A;1,3,5-Triallyl-1,3,5-triazine-2,4,6(1<em>H</em>,3<em>H</em>,5<em>H</em>)-trione;Drimix TAIC;NSC 11692;WH 60;1,3,5-Tris-2′-propenylisocyanuric acid;SR 533;TAIC 60;TAIC WH;Nor-TAIC KS;TAIC DLC-A;TAIC-WH 60;Perkalink 301-70DPD;Synpro PLC 4185;SR 533R;TAIC 100;Betalink IC/W 65PA6;Triallylisocyanuric acid;Luvomaxx TAIC-DL 70C;Luvomaxx TAIC-DL 70;Taicros;TAIC 70;Triallyl-1,3,5-triazine-2,4,6-trione;PL 301-50D;PL 301;1,3,5-Tris(2-propenyl) isocyanurate;HBSQ 2011;Rhenofit TAIC/S;Daik 7;TAIC-S;TAIC-B;T 123406;1,3,5-Triallyl-1,3,5-triazin-2,4,6-trione;CVD 50106;Taic-S 70;Drimix TAIC 75;Trilink 7;Kettlitz TAIC;1,3,5-Triallyl-1,3,5-triazinane-2,4,6-trione;Allyl isocyanurate;A 1712;1,3,5-Triallyl-1,3,5-triazine-2,4,6-trione;Farida TAIC-P;T-CROS;1,3,5-Trially-1,3,5-trione-2,4,6(1<em>H</em>,3<em>H</em>,5<em>H</em>)-triazine;Vulcofac TAIC 72DLC;STR 6400;Farida TAIC A;Norlink TAIC 70CS;Taicros M;Drimix TAIC 70;CX 100 (isocyanurate);CX 100;Altermix TAIC 70PD",
    "duplicated_cas_no": "109521-50-8;123339-46-8;196519-94-5;1086264-29-0",
    "SMILES": "C(C=C)N1C(=O)N(CC=C)C(=O)N(CC=C)C1=O",
    "meta_data": {
        "InChI": "InChI=1S/C12H15N3O3/c1-4-7-13-10(16)14(8-5-2)12(18)15(9-6-3)11(13)17/h4-6H,1-3,7-9H2",
        "InChIKey": null,
        "Canonical SMILES": "O=C1N(C(=O)N(C(=O)N1CC=C)CC=C)CC=C",
        "Molecular Formula": "C<sub>12</sub>H<sub>15</sub>N<sub>3</sub>O<sub>3</sub>",
        "Molecular Mass": "249.27",
        "Boiling Point": "107-114 °C @ Press: 0.5 Torr",
        "Melting Point": "20.5 °C",
        "Density": "1.382 g/cm³ @ Temp: 22 °C"
    }
}