{
    "cas_no": "28047-15-6",
    "key_name": "Phenylacetylglutamine",
    "cn_name": null,
    "alternate_name": "<span class=\"text-smallcaps\">L</span>-Glutamine, <em>N</em><sup>2</sup>-(2-phenylacetyl)-;Glutamine, <em>N</em><sup>2</sup>-(phenylacetyl)-, <span class=\"text-smallcaps\">L</span>-;<span class=\"text-smallcaps\">L</span>-Glutamine, <em>N</em><sup>2</sup>-(phenylacetyl)-;<em>N</em><sup>2</sup>-(2-Phenylacetyl)-<span class=\"text-smallcaps\">L</span>-glutamine;Phenylacetylglutamine;Phenylacetyl-<span class=\"text-smallcaps\">L</span>-glutamine;<em>N</em>-Phenylacetylglutamine;<em>N</em><sup>2</sup>-(Phenylacetyl)-<span class=\"text-smallcaps\">L</span>-glutamine;NSC 203800;(<em>S</em>)-5-Amino-5-oxo-2-(2-phenylacetamido)pentanoicacid;(<em>S</em>)-5-Amino-5-oxo-2-(2-phenylacetamido)pentanoic acid;(2S)-4-Carbamoyl-2-(2-phenylacetamido)butanoic acid",
    "duplicated_cas_no": "2798-52-9;17287-08-0",
    "SMILES": "[C@H](NC(CC1=CC=CC=C1)=O)(CCC(N)=O)C(O)=O",
    "meta_data": {
        "InChI": "InChI=1S/C13H16N2O4/c14-11(16)7-6-10(13(18)19)15-12(17)8-9-4-2-1-3-5-9/h1-5,10H,6-8H2,(H2,14,16)(H,15,17)(H,18,19)/t10-/m0/s1",
        "InChIKey": null,
        "Canonical SMILES": "O=C(N)CCC(NC(=O)CC=1C=CC=CC1)C(=O)O",
        "Molecular Formula": "C<sub>13</sub>H<sub>16</sub>N<sub>2</sub>O<sub>4</sub>",
        "Molecular Mass": "264.28",
        "Melting Point": "100 °C"
    }
}