{
    "cas_no": "31842-01-0",
    "key_name": "Indoprofen",
    "cn_name": null,
    "alternate_name": "Benzeneacetic acid, 4-(1,3-dihydro-1-oxo-2<em>H</em>-isoindol-2-yl)-α-methyl-;4-(1,3-Dihydro-1-oxo-2<em>H</em>-isoindol-2-yl)-α-methylbenzeneacetic acid;1-Oxo-2-[<em>p</em>-[(α-methyl)carboxymethyl]phenyl]isoindoline;K 4277;Indoprofen;2-[4-(1-Oxo-2-isoindolinyl)phenyl]propanoic acid;<em>dl</em>-α-[4-(1-Oxo-2-isoindolinyl)phenyl]propionic acid;(±)-Indoprofen;Racemic Indoprofen;Isindone;IPP;Bor-ind;Flosin;Praxis;Flosint;Reumofene;<em>p</em>-(1-Oxo-2-isoindolinyl)hydratropic acid;MeSH ID: D007216",
    "duplicated_cas_no": "53022-60-9",
    "SMILES": "O=C1N(CC=2C1=CC=CC2)C3=CC=C(C(C(O)=O)C)C=C3",
    "meta_data": {
        "InChI": "InChI=1S/C17H15NO3/c1-11(17(20)21)12-6-8-14(9-7-12)18-10-13-4-2-3-5-15(13)16(18)19/h2-9,11H,10H2,1H3,(H,20,21)",
        "InChIKey": null,
        "Canonical SMILES": "O=C(O)C(C1=CC=C(C=C1)N2C(=O)C=3C=CC=CC3C2)C",
        "Molecular Formula": "C<sub>17</sub>H<sub>15</sub>NO<sub>3</sub>",
        "Molecular Mass": "281.31",
        "Melting Point": "213-214 °C"
    }
}