{
    "cas_no": "767-15-7",
    "key_name": "2-Amino-4,6-dimethylpyrimidine",
    "cn_name": "2-氨基-4,6-二甲基嘧啶;",
    "alternate_name": "2-Pyrimidinamine, 4,6-dimethyl-;Pyrimidine, 2-amino-4,6-dimethyl-;4,6-Dimethyl-2-pyrimidinamine;2-Amino-4,6-dimethylpyrimidine;4,6-Dimethyl-2-aminopyrimidine;NSC 3278;(4,6-Dimethylpyrimidin-2-yl)amine",
    "duplicated_cas_no": "",
    "SMILES": "CC=1C=C(C)N=C(N)N1",
    "meta_data": {
        "InChI": "InChI=1S/C6H9N3/c1-4-3-5(2)9-6(7)8-4/h3H,1-2H3,(H2,7,8,9)",
        "InChIKey": null,
        "Canonical SMILES": "N=1C(=NC(=CC1C)C)N",
        "Molecular Formula": "C<sub>6</sub>H<sub>9</sub>N<sub>3</sub>",
        "Molecular Mass": "123.16",
        "Melting Point": "151-153 °C"
    }
}