{
    "cas_no": "420-37-1",
    "key_name": "Trimethyloxonium tetrafluoroborate",
    "cn_name": null,
    "alternate_name": "Oxonium, trimethyl-, tetrafluoroborate(1-) (1:1);Oxonium, trimethyl-, tetrafluoroborate(1-);Trimethyloxonium tetrafluoroborate;Trimethyloxonium fluoborate;Borate(1-), tetrafluoro-, trimethyloxonium;Trimethyloxonium fluoroborate;Trimethyloxonium tetrafluoroborate(1-);NSC 528455;Meerwein salt",
    "duplicated_cas_no": "106372-94-5;14323-64-9",
    "SMILES": "[O+](C)(C)C.[B+3]([F-])([F-])([F-])[F-]",
    "meta_data": {
        "InChI": "InChI=1S/C3H9O.BF4/c1-4(2)3;2-1(3,4)5/h1-3H3;/q+1;-1",
        "InChIKey": null,
        "Canonical SMILES": "[F-][B+3]([F-])([F-])[F-].[O+](C)(C)C",
        "Molecular Formula": "C<sub>3</sub>H<sub>9</sub>O.BF<sub>4</sub>",
        "Molecular Mass": "",
        "Melting Point": "124.5 °C (decomp)"
    }
}