{
    "cas_no": "109-69-3",
    "key_name": "Butyl chloride",
    "cn_name": "1-氯丁烷;氯代正丁烷;正丁基氯;",
    "alternate_name": "Butane, 1-chloro-;1-Chlorobutane;Butyl chloride;<em>n</em>-Butyl chloride;<em>n</em>-Propylcarbinyl chloride;<em>n</em>-Chlorobutane;Chlorobutane;NSC 8419;1-Butylchloride",
    "duplicated_cas_no": "",
    "SMILES": "C(CC)CCl",
    "meta_data": {
        "InChI": "InChI=1S/C4H9Cl/c1-2-3-4-5/h2-4H2,1H3",
        "InChIKey": null,
        "Canonical SMILES": "ClCCCC",
        "Molecular Formula": "C<sub>4</sub>H<sub>9</sub>Cl",
        "Molecular Mass": "92.57",
        "Boiling Point": "78.5 °C @ Press: 760 Torr",
        "Melting Point": "-123.1 °C",
        "Density": "0.88648 g/cm³ @ Temp: 20 °C"
    }
}