{
    "cas_no": "2050-22-8",
    "key_name": "2,3-Diethyl 2,3-pyridinedicarboxylate",
    "cn_name": "吡啶-2,3-二羧酸二乙酯;",
    "alternate_name": "2,3-Pyridinedicarboxylic acid, 2,3-diethyl ester;2,3-Pyridinedicarboxylic acid, diethyl ester;2,3-Diethyl 2,3-pyridinedicarboxylate;Diethyl 2,3-pyridinedicarboxylate;Diethyl quinolinate;Quinolinic acid diethyl ester",
    "duplicated_cas_no": "",
    "SMILES": "C(OCC)(=O)C1=C(C(OCC)=O)N=CC=C1",
    "meta_data": {
        "InChI": "InChI=1S/C11H13NO4/c1-3-15-10(13)8-6-5-7-12-9(8)11(14)16-4-2/h5-7H,3-4H2,1-2H3",
        "InChIKey": null,
        "Canonical SMILES": "O=C(OCC)C1=NC=CC=C1C(=O)OCC",
        "Molecular Formula": "C<sub>11</sub>H<sub>13</sub>NO<sub>4</sub>",
        "Molecular Mass": "223.23",
        "Boiling Point": "282 °C"
    }
}