{
    "cas_no": "171058-18-7",
    "key_name": "1-Decyl-3-methylimidazolium chloride",
    "cn_name": "癸基甲基氯化咪唑;",
    "alternate_name": "1<em>H</em>-Imidazolium, 3-decyl-1-methyl-, chloride (1:1);1<em>H</em>-Imidazolium, 1-decyl-3-methyl-, chloride;1-Decyl-3-methylimidazolium chloride",
    "duplicated_cas_no": "",
    "SMILES": "C(CCCCCCCCC)[N+]=1C=CN(C)C1.[Cl-]",
    "meta_data": {
        "InChI": "InChI=1S/C14H27N2.ClH/c1-3-4-5-6-7-8-9-10-11-16-13-12-15(2)14-16;/h12-14H,3-11H2,1-2H3;1H/q+1;/p-1",
        "InChIKey": null,
        "Canonical SMILES": "[Cl-].C1=C[N+](=CN1C)CCCCCCCCCC",
        "Molecular Formula": "C<sub>14</sub>H<sub>27</sub>N<sub>2</sub>.Cl",
        "Molecular Mass": "",
        "Melting Point": "38.02 °C",
        "Density": "0.95062 g/cm³ @ Temp: 85.020 °C; Press: 750 Torr"
    }
}