{
    "cas_no": "1671-77-8",
    "key_name": "1-(4-Methylphenyl)-1-pentanone",
    "cn_name": "4-甲基苯戊酮;",
    "alternate_name": "1-Pentanone, 1-(4-methylphenyl)-;Valerophenone, 4′-methyl-;1-(4-Methylphenyl)-1-pentanone;<em>p</em>-Methylvalerophenone;4′-Methylvalerophenone;NSC 115636",
    "duplicated_cas_no": "",
    "SMILES": "C(CCCC)(=O)C1=CC=C(C)C=C1",
    "meta_data": {
        "InChI": "InChI=1S/C12H16O/c1-3-4-5-12(13)11-8-6-10(2)7-9-11/h6-9H,3-5H2,1-2H3",
        "InChIKey": null,
        "Canonical SMILES": "O=C(C1=CC=C(C=C1)C)CCCC",
        "Molecular Formula": "C<sub>12</sub>H<sub>16</sub>O",
        "Molecular Mass": "176.25",
        "Boiling Point": "261 °C",
        "Melting Point": "17 °C"
    }
}