{
    "cas_no": "141-86-6",
    "key_name": "2,6-Diaminopyridine",
    "cn_name": "2,6-二氨基吡啶;",
    "alternate_name": "2,6-Pyridinediamine;Pyridine, 2,6-diamino-;2,6-Diaminopyridine;DAP;DAP (amine);NSC 1921;NSC 403346",
    "duplicated_cas_no": "84872-10-6",
    "SMILES": "NC=1N=C(N)C=CC1",
    "meta_data": {
        "InChI": "InChI=1S/C5H7N3/c6-4-2-1-3-5(7)8-4/h1-3H,(H4,6,7,8)",
        "InChIKey": null,
        "Canonical SMILES": "N=1C(N)=CC=CC1N",
        "Molecular Formula": "C<sub>5</sub>H<sub>7</sub>N<sub>3</sub>",
        "Molecular Mass": "109.13",
        "Boiling Point": "285 °C",
        "Melting Point": "121.5 °C"
    }
}