{
    "cas_no": "4331-29-7",
    "key_name": "1<em>H</em>-Benzimidazol-7-amine",
    "cn_name": "4-氨基苯并咪唑;",
    "alternate_name": "1<em>H</em>-Benzimidazol-7-amine;Benzimidazole, 4-amino-;1<em>H</em>-Benzimidazol-4-amine;Benzimidazole, 4(<em>or</em> 7)-amino-;4-Aminobenzimidazole;7-Aminobenzimidazole;Benzimidazol-4-ylamine;1<em>H</em>-Benzimidazol-4-ylamine;NSC 143985;1<em>H</em>-1,3-Benzodiazol-7-amine;1<em>H</em>-1,3-Benzodiazol-4-amine;1<em>H</em>-Benzoimidazol-4-ylamine",
    "duplicated_cas_no": "69984-77-6",
    "SMILES": "NC1=C2C(=CC=C1)N=CN2",
    "meta_data": {
        "InChI": "InChI=1S/C7H7N3/c8-5-2-1-3-6-7(5)10-4-9-6/h1-4H,8H2,(H,9,10)",
        "InChIKey": null,
        "Canonical SMILES": "N1=CNC2=C1C=CC=C2N",
        "Molecular Formula": "C<sub>7</sub>H<sub>7</sub>N<sub>3</sub>",
        "Molecular Mass": "133.15",
        "Melting Point": "120-121 °C"
    }
}