{
    "cas_no": "2293-07-4",
    "key_name": "(4-Methoxyphenyl)thiourea",
    "cn_name": null,
    "alternate_name": "Thiourea, <em>N</em>-(4-methoxyphenyl)-;Urea, 1-(<em>p</em>-methoxyphenyl)-2-thio-;Thiourea, (4-methoxyphenyl)-;<em>N</em>-(4-Methoxyphenyl)thiourea;<em>N</em>-(<em>p</em>-Methoxyphenyl)thiourea;(<em>p</em>-Methoxyphenyl)thiourea;(4-Methoxyphenyl)thiourea;<em>p</em>-Anisylthiourea;<em>N</em>-<em>p</em>-Anisylthiourea;1-(4-Methoxyphenyl)thiourea;4-Thioureidoanisole;1-(<em>p</em>-Methoxyphenyl)thiourea;NSC 402583;NSC 79869",
    "duplicated_cas_no": "",
    "SMILES": "N(C(N)=S)C1=CC=C(OC)C=C1",
    "meta_data": {
        "InChI": "InChI=1S/C8H10N2OS/c1-11-7-4-2-6(3-5-7)10-8(9)12/h2-5H,1H3,(H3,9,10,12)",
        "InChIKey": null,
        "Canonical SMILES": "S=C(N)NC1=CC=C(OC)C=C1",
        "Molecular Formula": "C<sub>8</sub>H<sub>10</sub>N<sub>2</sub>OS",
        "Molecular Mass": "182.24",
        "Melting Point": "208 °C"
    }
}