{
    "cas_no": "84087-01-4",
    "key_name": "Quinclorac",
    "cn_name": null,
    "alternate_name": "8-Quinolinecarboxylic acid, 3,7-dichloro-;3,7-Dichloro-8-quinolinecarboxylic acid;Quinclorac;BAS 514;Drive;Facet LA;Parmount 75WG;Paramount;Facet;BAS 514H;Accord 75DF;Quinclorac 75DF",
    "duplicated_cas_no": "113875-40-4",
    "SMILES": "C(O)(=O)C=1C2=C(C=CC1Cl)C=C(Cl)C=N2",
    "meta_data": {
        "InChI": "InChI=1S/C10H5Cl2NO2/c11-6-3-5-1-2-7(12)8(10(14)15)9(5)13-4-6/h1-4H,(H,14,15)",
        "InChIKey": null,
        "Canonical SMILES": "O=C(O)C1=C(Cl)C=CC2=CC(Cl)=CN=C21",
        "Molecular Formula": "C<sub>10</sub>H<sub>5</sub>Cl<sub>2</sub>NO<sub>2</sub>",
        "Molecular Mass": "242.06",
        "Melting Point": "274 °C"
    }
}