{
    "cas_no": "5579-66-8",
    "key_name": "Decaethylene glycol",
    "cn_name": "十甘醇; 十聚乙二醇; 聚乙二醇-10; PEG-10;",
    "alternate_name": "3,6,9,12,15,18,21,24,27-Nonaoxanonacosane-1,29-diol;Decaethylene glycol;2-[2-[2-[2-[2-[2-[2-[2-[2-(2-Hydroxyethoxy)ethoxy]ethoxy]ethoxy]ethoxy]ethoxy]ethoxy]ethoxy]ethoxy]ethanol",
    "duplicated_cas_no": "",
    "SMILES": "O(CCOCCOCCOCCOCCO)CCOCCOCCOCCOCCO",
    "meta_data": {
        "InChI": "InChI=1S/C20H42O11/c21-1-3-23-5-7-25-9-11-27-13-15-29-17-19-31-20-18-30-16-14-28-12-10-26-8-6-24-4-2-22/h21-22H,1-20H2",
        "InChIKey": null,
        "Canonical SMILES": "OCCOCCOCCOCCOCCOCCOCCOCCOCCOCCO",
        "Molecular Formula": "C<sub>20</sub>H<sub>42</sub>O<sub>11</sub>",
        "Molecular Mass": "458.54",
        "Melting Point": "25.8-28.3 °C"
    }
}