{
    "cas_no": "34885-03-5",
    "key_name": "4-Methylcyclohexanemethanol",
    "cn_name": null,
    "alternate_name": "Cyclohexanemethanol, 4-methyl-;4-Methylcyclohexanemethanol;Hexahydro-<em>p</em>-methylbenzyl alcohol;(4-Methylcyclohexyl)methanol;4-Methylcyclohexane methanol;1-(4-Methylcyclohexyl)methanol",
    "duplicated_cas_no": "",
    "SMILES": "C(O)C1CCC(C)CC1",
    "meta_data": {
        "InChI": "InChI=1S/C8H16O/c1-7-2-4-8(6-9)5-3-7/h7-9H,2-6H2,1H3",
        "InChIKey": null,
        "Canonical SMILES": "OCC1CCC(C)CC1",
        "Molecular Formula": "C<sub>8</sub>H<sub>16</sub>O",
        "Molecular Mass": "128.21",
        "Boiling Point": "202 °C",
        "Density": "1.0176 g/cm³ @ Temp: 20 °C"
    }
}