{
    "cas_no": "5834-17-3",
    "key_name": "2-Methoxy-3-dibenzofuranamine",
    "cn_name": "2-甲氧基-3-二苯并呋喃胺;",
    "alternate_name": "3-Dibenzofuranamine, 2-methoxy-;2-Methoxy-3-dibenzofuranamine;3-Amino-2-methoxydibenzofuran;2-Methoxy-3-aminodibenzofuran;(2-Methoxydibenzofuran-3-yl)amine;3-Amino-2-methoxybenzofuran;2-Methoxydibenzo[<em>b</em>,<em>d</em>]furan-3-amine",
    "duplicated_cas_no": "",
    "SMILES": "O(C)C=1C=C2C=3C(OC2=CC1N)=CC=CC3",
    "meta_data": {
        "InChI": "InChI=1S/C13H11NO2/c1-15-13-6-9-8-4-2-3-5-11(8)16-12(9)7-10(13)14/h2-7H,14H2,1H3",
        "InChIKey": null,
        "Canonical SMILES": "O1C=2C=CC=CC2C=3C=C(OC)C(N)=CC13",
        "Molecular Formula": "C<sub>13</sub>H<sub>11</sub>NO<sub>2</sub>",
        "Molecular Mass": "213.23",
        "Melting Point": "93 °C"
    }
}