{
    "cas_no": "622-47-9",
    "key_name": "<em>p</em>-Tolylacetic acid",
    "cn_name": "对甲基苯乙酸;",
    "alternate_name": "Benzeneacetic acid, 4-methyl-;Acetic acid, <em>p</em>-tolyl-;4-Methylbenzeneacetic acid;(4-Methylphenyl)acetic acid;<em>p</em>-Methylphenylacetic acid;<em>p</em>-Tolylacetic acid;2-<em>p</em>-Tolylacetic acid;4-Tolylacetic acid;NSC 65595;2-(4-Methylphenyl)acetic acid;<em>p</em>-Methylbenzeneacetic acid",
    "duplicated_cas_no": "",
    "SMILES": "C(C(O)=O)C1=CC=C(C)C=C1",
    "meta_data": {
        "InChI": "InChI=1S/C9H10O2/c1-7-2-4-8(5-3-7)6-9(10)11/h2-5H,6H2,1H3,(H,10,11)",
        "InChIKey": null,
        "Canonical SMILES": "O=C(O)CC1=CC=C(C=C1)C",
        "Molecular Formula": "C<sub>9</sub>H<sub>10</sub>O<sub>2</sub>",
        "Molecular Mass": "150.17",
        "Boiling Point": "265 °C",
        "Melting Point": "93 °C"
    }
}