{
    "cas_no": "27829-72-7",
    "key_name": "Ethyl <em>trans</em>-2-hexenoate",
    "cn_name": null,
    "alternate_name": "2-Hexenoic acid, ethyl ester, (2<em>E</em>)-;2-Hexenoic acid, ethyl ester, (<em>E</em>)-;(<em>E</em>)-Ethyl 2-hexenoate;Ethyl (<em>E</em>)-2-hexenoate;Ethyl <em>trans</em>-2-hexenoate;Ethyl (2E)-hex-2-enoate",
    "duplicated_cas_no": "",
    "SMILES": "C(\\C(OCC)=O)=C/CCC",
    "meta_data": {
        "InChI": "InChI=1S/C8H14O2/c1-3-5-6-7-8(9)10-4-2/h6-7H,3-5H2,1-2H3/b7-6+",
        "InChIKey": null,
        "Canonical SMILES": "O=C(OCC)C=CCCC",
        "Molecular Formula": "C<sub>8</sub>H<sub>14</sub>O<sub>2</sub>",
        "Molecular Mass": "142.20",
        "Boiling Point": "61 °C @ Press: 17 Torr"
    }
}