{
    "cas_no": "18800-53-8",
    "key_name": "3,4-Dimethylbenzenethiol",
    "cn_name": "3,4-二甲基苯硫酚;",
    "alternate_name": "Benzenethiol, 3,4-dimethyl-;3,4-Xylenethiol;3,4-Dimethylbenzenethiol;3,4-Dimethylthiophenol;3,4-Dimethylbenzene-1-thiol",
    "duplicated_cas_no": "",
    "SMILES": "CC1=C(C)C=CC(S)=C1",
    "meta_data": {
        "InChI": "InChI=1S/C8H10S/c1-6-3-4-8(9)5-7(6)2/h3-5,9H,1-2H3",
        "InChIKey": null,
        "Canonical SMILES": "SC1=CC=C(C(=C1)C)C",
        "Molecular Formula": "C<sub>8</sub>H<sub>10</sub>S",
        "Molecular Mass": "138.23",
        "Boiling Point": "132.5 °C @ Press: 50 Torr"
    }
}