{
    "cas_no": "402-23-3",
    "key_name": "3-(Trifluoromethyl)benzyl bromide",
    "cn_name": "3-(三氟甲基)溴苄;",
    "alternate_name": "Benzene, 1-(bromomethyl)-3-(trifluoromethyl)-;<em>m</em>-Xylene, α′-bromo-α,α,α-trifluoro-;1-(Bromomethyl)-3-(trifluoromethyl)benzene;α′-Bromo-α,α,α-trifluoro-<em>m</em>-xylene;3-(Bromomethyl)benzotrifluoride;3-(Trifluoromethyl)benzyl bromide;<em>m</em>-(Trifluoromethyl)benzyl bromide;3-(Bromomethyl)-1-(trifluoromethyl)benzene",
    "duplicated_cas_no": "",
    "SMILES": "C(F)(F)(F)C1=CC(CBr)=CC=C1",
    "meta_data": {
        "InChI": "InChI=1S/C8H6BrF3/c9-5-6-2-1-3-7(4-6)8(10,11)12/h1-4H,5H2",
        "InChIKey": null,
        "Canonical SMILES": "FC(F)(F)C=1C=CC=C(C1)CBr",
        "Molecular Formula": "C<sub>8</sub>H<sub>6</sub>BrF<sub>3</sub>",
        "Molecular Mass": "239.03",
        "Boiling Point": "69 °C @ Press: 4 Torr"
    }
}