{
    "cas_no": "26348-61-8",
    "key_name": "<span class=\"text-smallcaps\">L</span>-Serine, ethyl ester, hydrochloride (1:1)",
    "cn_name": "L-丝氨酸乙酯盐酸盐;",
    "alternate_name": "<span class=\"text-smallcaps\">L</span>-Serine, ethyl ester, hydrochloride (1:1);Serine, ethyl ester, hydrochloride, <span class=\"text-smallcaps\">L</span>-;<span class=\"text-smallcaps\">L</span>-Serine, ethyl ester, hydrochloride;Serine, ethyl ester, hydrochloride;<span class=\"text-smallcaps\">L</span>-Seryl ethyl ester hydrochloride;Ethyl <span class=\"text-smallcaps\">L</span>-serinate hydrochloride;Ethyl serinate hydrochloride",
    "duplicated_cas_no": "",
    "SMILES": "C([C@H](CO)N)(OCC)=O.Cl",
    "meta_data": {
        "InChI": "InChI=1S/C5H11NO3.ClH/c1-2-9-5(8)4(6)3-7;/h4,7H,2-3,6H2,1H3;1H/t4-;/m0./s1",
        "InChIKey": null,
        "Canonical SMILES": "Cl.O=C(OCC)C(N)CO",
        "Molecular Formula": "C<sub>5</sub>H<sub>11</sub>NO<sub>3</sub>.ClH",
        "Molecular Mass": "",
        "Melting Point": "130 °C"
    }
}