{
    "cas_no": "78092-53-2",
    "key_name": "<em>tert</em>-Butylcalix[6]arene",
    "cn_name": "4-叔丁基杯[6]芳烃;",
    "alternate_name": "Heptacyclo[31.3.1.1<sup>3,7</sup>.1<sup>9,13</sup>.1<sup>15,19</sup>.1<sup>21,25</sup>.1<sup>27,31</sup>]dotetraconta-1(37),3,5,7(42),9,11,13(41),15,17,19(40),21,23,25(39),27,29,31(38),33,35-octadecaene-37,38,39,40,41,42-hexol, 5,11,17,23,29,35-hexakis(1,1-dimethylethyl)-;5,11,17,23,29,35-Hexakis(1,1-dimethylethyl)heptacyclo[31.3.1.1<sup>3,7</sup>.1<sup>9,13</sup>.1<sup>15,19</sup>.1<sup>21,25</sup>.1<sup>27,31</sup>]dotetraconta-1(37),3,5,7(42),9,11,13(41),15,17,19(40),21,23,25(39),27,29,31(38),33,35-octadecaene-37,38,39,40,41,42-hexol;5,11,17,23,29,35-Hexa-<em>tert</em>-butyl-37,38,39,40,41,42-hexahydroxycalix[6]arene;4-<em>tert</em>-Butylcalix[6]arene;<em>p</em>-<em>tert</em>-Butylcalix[6]arene;NSC 344029;<em>p</em>-<em>t</em>-Butylcalix[6]arene;<em>tert</em>-Butylcalix[6]arene;CALX-B 6",
    "duplicated_cas_no": "119035-89-1;172094-28-9;376646-20-7;865792-01-4;1263817-64-6",
    "SMILES": "OC=1C=2CC=3C(O)=C(CC=4C(O)=C(CC=5C(O)=C(CC6=C(O)C(CC7=C(O)C(CC1C=C(C(C)(C)C)C2)=CC(C(C)(C)C)=C7)=CC(C(C)(C)C)=C6)C=C(C(C)(C)C)C5)C=C(C(C)(C)C)C4)C=C(C(C)(C)C)C3",
    "meta_data": {
        "InChI": "InChI=1S/C66H84O6/c1-61(2,3)49-25-37-19-39-27-50(62(4,5)6)29-41(56(39)68)21-43-31-52(64(10,11)12)33-45(58(43)70)23-47-35-54(66(16,17)18)36-48(60(47)72)24-46-34-53(65(13,14)15)32-44(59(46)71)22-42-30-51(63(7,8)9)28-40(57(42)69)20-38(26-49)55(37)67/h25-36,67-72H,19-24H2,1-18H3",
        "InChIKey": null,
        "Canonical SMILES": "OC=1C2=CC(=CC1CC3=CC(=CC(=C3O)CC4=CC(=CC(=C4O)CC=5C=C(C=C(C5O)CC=6C=C(C=C(C6O)CC=7C=C(C=C(C7O)C2)C(C)(C)C)C(C)(C)C)C(C)(C)C)C(C)(C)C)C(C)(C)C)C(C)(C)C",
        "Molecular Formula": "C<sub>66</sub>H<sub>84</sub>O<sub>6</sub>",
        "Molecular Mass": "973.37",
        "Melting Point": "373 °C"
    }
}