{
    "cas_no": "2566-20-3",
    "key_name": "<em>N</em>-[(Phenylmethoxy)carbonyl]glycylglycylglycine",
    "cn_name": null,
    "alternate_name": "Glycine, <em>N</em>-[(phenylmethoxy)carbonyl]glycylglycyl-;Glycine, <em>N</em>-[<em>N</em>-(<em>N</em>-carboxyglycyl)glycyl]-, <em>N</em>-benzyl ester;Glycine, <em>N</em>-[<em>N</em>-[<em>N</em>-[(phenylmethoxy)carbonyl]glycyl]glycyl]-;<em>N</em>-[(Phenylmethoxy)carbonyl]glycylglycylglycine;(Benzyloxycarbonyl)glycylglycylglycine;<em>N</em>-(Carbobenzoxy)glycylglycylglycine;<em>N</em>-(Benzyloxycarbonyl)triglycine;Z-Gly-Gly-Gly-OH;NSC 169175;NPD 5606;3,6,9-Trioxo-1-phenyl-2-oxa-4,7,10-triazadodecan-12-oicacid;2-[[2-[[2-(Phenylmethoxycarbonylamino)acetyl]amino]acetyl]amino]acetic acid",
    "duplicated_cas_no": "66505-83-7",
    "SMILES": "C(OC(NCC(NCC(NCC(O)=O)=O)=O)=O)C1=CC=CC=C1",
    "meta_data": {
        "InChI": "InChI=1S/C14H17N3O6/c18-11(16-8-13(20)21)6-15-12(19)7-17-14(22)23-9-10-4-2-1-3-5-10/h1-5H,6-9H2,(H,15,19)(H,16,18)(H,17,22)(H,20,21)",
        "InChIKey": null,
        "Canonical SMILES": "O=C(OCC=1C=CC=CC1)NCC(=O)NCC(=O)NCC(=O)O",
        "Molecular Formula": "C<sub>14</sub>H<sub>17</sub>N<sub>3</sub>O<sub>6</sub>",
        "Molecular Mass": "323.30",
        "Melting Point": "198 °C"
    }
}