{
    "cas_no": "7397-43-5",
    "key_name": "<em>tert</em>-Butyl borate",
    "cn_name": "三叔丁基硼酸;",
    "alternate_name": "Boric acid, tris(1,1-dimethylethyl) ester;Boric acid (H<sub>3</sub>BO<sub>3</sub>), tri-<em>tert</em>-butyl ester;Boric acid (H<sub>3</sub>BO<sub>3</sub>), tris(1,1-dimethylethyl) ester;<em>tert</em>-Butyl borate;Tris(<em>tert</em>-butyloxy)borane;Tri-<em>tert</em>-butyl borate;Tris(<em>tert</em>-butyl) borate;Tri-<em>tert</em>-butoxyborane;NSC 151952;Boron tri-<em>tert</em>-butoxide",
    "duplicated_cas_no": "",
    "SMILES": "O(B(OC(C)(C)C)OC(C)(C)C)C(C)(C)C",
    "meta_data": {
        "InChI": "InChI=1S/C12H27BO3/c1-10(2,3)14-13(15-11(4,5)6)16-12(7,8)9/h1-9H3",
        "InChIKey": null,
        "Canonical SMILES": "O(B(OC(C)(C)C)OC(C)(C)C)C(C)(C)C",
        "Molecular Formula": "C<sub>12</sub>H<sub>27</sub>BO<sub>3</sub>",
        "Molecular Mass": "230.15",
        "Boiling Point": "101 °C @ Press: 74 Torr",
        "Melting Point": "18-19 °C",
        "Density": "0.811 g/cm³"
    }
}