{
    "cas_no": "7667-80-3",
    "key_name": "Hexacontane",
    "cn_name": null,
    "alternate_name": "Hexacontane;<em>n</em>-Hexacontane",
    "duplicated_cas_no": "",
    "SMILES": "C(CCCCCCCCCCCCCCCCCCCCCCCCCCCCCC)CCCCCCCCCCCCCCCCCCCCCCCCCCCCC",
    "meta_data": {
        "InChI": "InChI=1S/C60H122/c1-3-5-7-9-11-13-15-17-19-21-23-25-27-29-31-33-35-37-39-41-43-45-47-49-51-53-55-57-59-60-58-56-54-52-50-48-46-44-42-40-38-36-34-32-30-28-26-24-22-20-18-16-14-12-10-8-6-4-2/h3-60H2,1-2H3",
        "InChIKey": null,
        "Canonical SMILES": "CCCCCCCCCCCCCCCCCCCCCCCCCCCCCCCCCCCCCCCCCCCCCCCCCCCCCCCCCCCC",
        "Molecular Formula": "C<sub>60</sub>H<sub>122</sub>",
        "Molecular Mass": "843.61",
        "Boiling Point": "250 °C",
        "Melting Point": "98.5-99.3 °C"
    }
}