{
    "cas_no": "51566-22-4",
    "key_name": "3-Methyl-2,6-pyridinediamine",
    "cn_name": null,
    "alternate_name": "2,6-Pyridinediamine, 3-methyl-;3-Picoline, 2,6-diamino-;3-Methyl-2,6-pyridinediamine",
    "duplicated_cas_no": "",
    "SMILES": "NC1=C(C)C=CC(N)=N1",
    "meta_data": {
        "InChI": "InChI=1S/C6H9N3/c1-4-2-3-5(7)9-6(4)8/h2-3H,1H3,(H4,7,8,9)",
        "InChIKey": null,
        "Canonical SMILES": "N=1C(N)=CC=C(C1N)C",
        "Molecular Formula": "C<sub>6</sub>H<sub>9</sub>N<sub>3</sub>",
        "Molecular Mass": "123.16",
        "Melting Point": "149-150 °C"
    }
}