{
    "cas_no": "35511-14-9",
    "key_name": "2<em>H</em>-1,2-Benzothiazine-3-carboxylic acid, 4-hydroxy-, methyl ester, 1,1-dioxide",
    "cn_name": "4-羟基-2H-1,2-苯并噻嗪-3-羧酸甲酯1,1-二氧化物;",
    "alternate_name": "2<em>H</em>-1,2-Benzothiazine-3-carboxylic acid, 4-hydroxy-, methyl ester, 1,1-dioxide;4-Hydroxy-2<em>H</em>-1,2-benzothiazine-3-carboxylic acid methyl ester 1,1-dioxide;Methyl 4-hydroxy-2<em>H</em>-1,2-benzothiazine-3-carboxylate 1,1-dioxide",
    "duplicated_cas_no": "",
    "SMILES": "O=S1(=O)C=2C(C(O)=C(C(OC)=O)N1)=CC=CC2",
    "meta_data": {
        "InChI": "InChI=1S/C10H9NO5S/c1-16-10(13)8-9(12)6-4-2-3-5-7(6)17(14,15)11-8/h2-5,11-12H,1H3",
        "InChIKey": null,
        "Canonical SMILES": "O=C(OC)C=1NS(=O)(=O)C=2C=CC=CC2C1O",
        "Molecular Formula": "C<sub>10</sub>H<sub>9</sub>NO<sub>5</sub>S",
        "Molecular Mass": "255.25",
        "Melting Point": "173 °C"
    }
}