{
    "cas_no": "53696-74-5",
    "key_name": "Armillarisin A",
    "cn_name": null,
    "alternate_name": "2<em>H</em>-1-Benzopyran-2-one, 3-acetyl-7-hydroxy-5-(hydroxymethyl)-;3-Acetyl-7-hydroxy-5-(hydroxymethyl)-2<em>H</em>-1-benzopyran-2-one;Armillarisin A;3-Acetyl-7-hydroxy-5-(hydroxymethyl)-2<em>H</em>-chromen-2-one;3-Acetyl-7-hydroxy-5-(hydroxymethyl)chromen-2-one",
    "duplicated_cas_no": "",
    "SMILES": "C(O)C1=C2C(OC(=O)C(C(C)=O)=C2)=CC(O)=C1",
    "meta_data": {
        "InChI": "InChI=1S/C12H10O5/c1-6(14)9-4-10-7(5-13)2-8(15)3-11(10)17-12(9)16/h2-4,13,15H,5H2,1H3",
        "InChIKey": null,
        "Canonical SMILES": "O=C1OC2=CC(O)=CC(=C2C=C1C(=O)C)CO",
        "Molecular Formula": "C<sub>12</sub>H<sub>10</sub>O<sub>5</sub>",
        "Molecular Mass": "234.20",
        "Melting Point": "245 °C"
    }
}