{
    "cas_no": "18163-34-3",
    "key_name": "Methyl 3-(dichloromethylsilyl)propanoate",
    "cn_name": "2-乙酰氧基乙基甲基二氯硅烷英文名称：3-(dichloromethylsilyl)-propanoicacidmethylester;2-乙酰氧基乙基;",
    "alternate_name": "Propanoic acid, 3-(dichloromethylsilyl)-, methyl ester;Propionic acid, 3-(dichloromethylsilyl)-, methyl ester;Methyl 3-(dichloromethylsilyl)propanoate",
    "duplicated_cas_no": "",
    "SMILES": "C(C(OC)=O)C[Si](C)(Cl)Cl",
    "meta_data": {
        "InChI": "InChI=1S/C5H10Cl2O2Si/c1-9-5(8)3-4-10(2,6)7/h3-4H2,1-2H3",
        "InChIKey": null,
        "Canonical SMILES": "O=C(OC)CC[Si](Cl)(Cl)C",
        "Molecular Formula": "C<sub>5</sub>H<sub>10</sub>Cl<sub>2</sub>O<sub>2</sub>Si",
        "Molecular Mass": "201.12",
        "Boiling Point": "98-99 °C @ Press: 25 Torr",
        "Density": "1.870 g/cm³ @ Temp: 25 °C"
    }
}