{
    "cas_no": "3878-44-2",
    "key_name": "Triphenylphosphine selenide",
    "cn_name": "三苯基硒化膦;",
    "alternate_name": "Phosphine selenide, triphenyl-;Triphenylphosphine selenide;NSC 171032",
    "duplicated_cas_no": "",
    "SMILES": "P(=[Se])(C1=CC=CC=C1)(C2=CC=CC=C2)C3=CC=CC=C3",
    "meta_data": {
        "InChI": "InChI=1S/C18H15PSe/c20-19(16-10-4-1-5-11-16,17-12-6-2-7-13-17)18-14-8-3-9-15-18/h1-15H",
        "InChIKey": null,
        "Canonical SMILES": "[Se]=P(C=1C=CC=CC1)(C=2C=CC=CC2)C=3C=CC=CC3",
        "Molecular Formula": "C<sub>18</sub>H<sub>15</sub>PSe",
        "Molecular Mass": "341.25",
        "Melting Point": "187-188 °C"
    }
}