{
    "cas_no": "16024-56-9",
    "key_name": "(2-Methoxyethoxy)acetic acid",
    "cn_name": "2-(2-甲氧基乙氧基)乙酸;",
    "alternate_name": "Acetic acid, 2-(2-methoxyethoxy)-;Acetic acid, (2-methoxyethoxy)-;2-(2-Methoxyethoxy)acetic acid;(2-Methoxyethoxy)acetic acid;3,6-Dioxaheptanoic acid;NSC 127858",
    "duplicated_cas_no": "",
    "SMILES": "O(CC(O)=O)CCOC",
    "meta_data": {
        "InChI": "InChI=1S/C5H10O4/c1-8-2-3-9-4-5(6)7/h2-4H2,1H3,(H,6,7)",
        "InChIKey": null,
        "Canonical SMILES": "O=C(O)COCCOC",
        "Molecular Formula": "C<sub>5</sub>H<sub>10</sub>O<sub>4</sub>",
        "Molecular Mass": "134.13",
        "Boiling Point": "121-122 °C @ Press: 4 Torr",
        "Density": "1.1634 g/cm³ @ Temp: 20 °C"
    }
}