{
    "cas_no": "19781-73-8",
    "key_name": "Heptadecylcyclohexane",
    "cn_name": null,
    "alternate_name": "Cyclohexane, heptadecyl-;Heptadecane, 1-cyclohexyl-;Heptadecylcyclohexane;<em>n</em>-Heptadecylcyclohexane",
    "duplicated_cas_no": "",
    "SMILES": "C(CCCCCCCCCCCCCCCC)C1CCCCC1",
    "meta_data": {
        "InChI": "InChI=1S/C23H46/c1-2-3-4-5-6-7-8-9-10-11-12-13-14-15-17-20-23-21-18-16-19-22-23/h23H,2-22H2,1H3",
        "InChIKey": null,
        "Canonical SMILES": "CCCCCCCCCCCCCCCCCC1CCCCC1",
        "Molecular Formula": "C<sub>23</sub>H<sub>46</sub>",
        "Molecular Mass": "322.61",
        "Boiling Point": "397 °C",
        "Melting Point": "38 °C"
    }
}