{
    "cas_no": "3179-76-8",
    "key_name": "γ-Aminopropylmethyldiethoxysilane",
    "cn_name": "氨丙基甲基二乙氧基硅烷;硅烷偶联剂JH-M902;",
    "alternate_name": "1-Propanamine, 3-(diethoxymethylsilyl)-;Propylamine, 3-(diethoxymethylsilyl)-;3-(Diethoxymethylsilyl)-1-propanamine;(3-Aminopropyl)diethoxymethylsilane;3-(Diethoxymethylsilyl)propylamine;(3-Aminopropyl)methyldiethoxysilane;γ-Aminopropylmethyldiethoxysilane;Dynasylan 1506;Dynasylan 1505;KBE 902;(Aminopropyl)methyldiethoxysilane;LS 2450;γ-Diethoxymethylsilylpropylamine;A 2100;YH 62;SG-SI 902;SIA 0606.0;SCA 1112;Si 902;WD 57;SCA 1113;KH 902;WD 257;3-(Diethoxymethylsilanyl)propylamine;DB 902;3-(Diethoxymethylsilyl)propan-1-amine;SIA 0605.0;KH 520;SCA-A 10F;JH-M 902;CG 902;FD 552;LT 902",
    "duplicated_cas_no": "327173-02-4;856823-12-6;1020103-36-9;1031873-11-6",
    "SMILES": "[Si](CCCN)(OCC)(OCC)C",
    "meta_data": {
        "InChI": "InChI=1S/C8H21NO2Si/c1-4-10-12(3,11-5-2)8-6-7-9/h4-9H2,1-3H3",
        "InChIKey": null,
        "Canonical SMILES": "O(CC)[Si](OCC)(C)CCCN",
        "Molecular Formula": "C<sub>8</sub>H<sub>21</sub>NO<sub>2</sub>Si",
        "Molecular Mass": "191.34",
        "Boiling Point": "85-88 °C @ Press: 8 Torr",
        "Density": "0.916 g/cm³"
    }
}