{
    "cas_no": "612-15-7",
    "key_name": "1-Ethenyl-2-methoxybenzene",
    "cn_name": "2-甲氧基苯乙烯;",
    "alternate_name": "Benzene, 1-ethenyl-2-methoxy-;Anisole, <em>o</em>-vinyl-;1-Ethenyl-2-methoxybenzene;2-Methoxystyrene;<em>o</em>-Methoxystyrene;<em>o</em>-Vinylanisole;2-Vinylanisole;1-Methoxy-2-vinylbenzene",
    "duplicated_cas_no": "",
    "SMILES": "C(=C)C1=C(OC)C=CC=C1",
    "meta_data": {
        "InChI": "InChI=1S/C9H10O/c1-3-8-6-4-5-7-9(8)10-2/h3-7H,1H2,2H3",
        "InChIKey": null,
        "Canonical SMILES": "O(C=1C=CC=CC1C=C)C",
        "Molecular Formula": "C<sub>9</sub>H<sub>10</sub>O",
        "Molecular Mass": "134.18",
        "Boiling Point": "197 °C",
        "Melting Point": "29 °C",
        "Density": "1.009 g/cm³ @ Temp: 16 °C"
    }
}