{
    "cas_no": "13035-19-3",
    "key_name": "4-Piperidinamine",
    "cn_name": "4-氨基哌啶;",
    "alternate_name": "4-Piperidinamine;Piperidine, 4-amino-;Piperidine, 4-amino-, 5610070f;;4-Aminopiperidine;Piperidin-4-ylamine",
    "duplicated_cas_no": "",
    "SMILES": "NC1CCNCC1",
    "meta_data": {
        "InChI": "InChI=1S/C5H12N2/c6-5-1-3-7-4-2-5/h5,7H,1-4,6H2",
        "InChIKey": null,
        "Canonical SMILES": "NC1CCNCC1",
        "Molecular Formula": "C<sub>5</sub>H<sub>12</sub>N<sub>2</sub>",
        "Molecular Mass": "100.16",
        "Boiling Point": "65 °C @ Press: 18 Torr"
    }
}