{
    "cas_no": "537-49-5",
    "key_name": "<em>N</em>-Methyl-<span class=\"text-smallcaps\">L</span>-tyrosine",
    "cn_name": null,
    "alternate_name": "<span class=\"text-smallcaps\">L</span>-Tyrosine, <em>N</em>-methyl-;Tyrosine, <em>N</em>-methyl-, <span class=\"text-smallcaps\">L</span>-;Surinamine;<em>N</em>-Methyl-<span class=\"text-smallcaps\">L</span>-tyrosine;Andirine;Andrine;Ratanhine;Ratanhin;Surinamin;<em>N</em>-Methyltyrosine;(+)-<em>N</em>-Methyltyrosine;<span class=\"text-smallcaps\">L</span>-(+)-<em>N</em>-Methyltyrosine;<span class=\"text-smallcaps\">L</span>-<em>N</em>-Methyltyrosine;(2S)-3-(4-Hydroxyphenyl)-2-(methylazaniumyl)propanoate;(2S)-3-(4-Hydroxyphenyl)-2-(methylamino)propanoic acid",
    "duplicated_cas_no": "10303-89-6",
    "SMILES": "C([C@@H](C(O)=O)NC)C1=CC=C(O)C=C1",
    "meta_data": {
        "InChI": "InChI=1S/C10H13NO3/c1-11-9(10(13)14)6-7-2-4-8(12)5-3-7/h2-5,9,11-12H,6H2,1H3,(H,13,14)/t9-/m0/s1",
        "InChIKey": null,
        "Canonical SMILES": "O=C(O)C(NC)CC1=CC=C(O)C=C1",
        "Molecular Formula": "C<sub>10</sub>H<sub>13</sub>NO<sub>3</sub>",
        "Molecular Mass": "195.22",
        "Melting Point": "293 °C"
    }
}