{
    "cas_no": "2163-69-1",
    "key_name": "Cycluron",
    "cn_name": "环莠隆;3-环辛基-1，1-二甲基脲；OMU；环辛隆;",
    "alternate_name": "Urea, <em>N</em>′-cyclooctyl-<em>N</em>,<em>N</em>-dimethyl-;Urea, 3-cyclooctyl-1,1-dimethyl-;<em>N</em>′-Cyclooctyl-<em>N</em>,<em>N</em>-dimethylurea;3-Cyclooctyl-1,1-dimethylurea;Cycluron;OMU;HS 61;1,1-Dimethyl-3-cyclooctylurea;1-Cyclooctyl-3,3-dimethylurea",
    "duplicated_cas_no": "",
    "SMILES": "N(C(N(C)C)=O)C1CCCCCCC1",
    "meta_data": {
        "InChI": "InChI=1S/C11H22N2O/c1-13(2)11(14)12-10-8-6-4-3-5-7-9-10/h10H,3-9H2,1-2H3,(H,12,14)",
        "InChIKey": null,
        "Canonical SMILES": "O=C(NC1CCCCCCC1)N(C)C",
        "Molecular Formula": "C<sub>11</sub>H<sub>22</sub>N<sub>2</sub>O",
        "Molecular Mass": "198.31",
        "Melting Point": "138 °C"
    }
}