{
    "cas_no": "7393-43-3",
    "key_name": "Tetraallyltin",
    "cn_name": "四烯丙基锡;",
    "alternate_name": "Stannane, tetra-2-propen-1-yl-;Stannane, tetraallyl-;Stannane, tetra-2-propenyl-;Tin, tetraallyl-;Tetra-2-propen-1-ylstannane;Tetraallyltin;Tetraallylstannane;Tetrakis(2-propenyl)stannane;Tetra(2-propenyl)stannane",
    "duplicated_cas_no": "",
    "SMILES": "[Sn](CC=C)(CC=C)(CC=C)CC=C",
    "meta_data": {
        "InChI": "InChI=1S/4C3H5.Sn/c4*1-3-2;/h4*3H,1-2H2;",
        "InChIKey": null,
        "Canonical SMILES": "C=CC[Sn](CC=C)(CC=C)CC=C",
        "Molecular Formula": "C<sub>12</sub>H<sub>20</sub>Sn",
        "Molecular Mass": "283.00",
        "Boiling Point": "69-70 °C @ Press: 1.5 Torr",
        "Density": "1.179 g/cm³"
    }
}