{
    "cas_no": "20989-17-7",
    "key_name": "(+)-Phenylglycinol",
    "cn_name": "L-苯甘氨醇;",
    "alternate_name": "Benzeneethanol, β-amino-, (β<em>S</em>)-;Phenethyl alcohol, β-amino-, <span class=\"text-smallcaps\">L</span>-;Benzeneethanol, β-amino-, (<em>S</em>)-;(β<em>S</em>)-β-Aminobenzeneethanol;(+)-2-Amino-2-phenylethanol;(<em>S</em>)-2-Amino-2-phenylethanol;<span class=\"text-smallcaps\">L</span>-Phenylglycinol;(+)-α-Phenylglycinol;(<em>S</em>)-2-Phenylglycinol;(+)-Phenylglycinol;(<em>S</em>)-Phenylglycinol;(<em>S</em>)-2-Phenylethanolamine;(<em>S</em>)-β-Aminobenzeneethanol;(+)-(<em>S</em>)-2-Amino-2-phenylethanol;<span class=\"text-smallcaps\">L</span>-β-Aminophenethyl alcohol;<span class=\"text-smallcaps\">L</span>-α-Phenylglycinol;(<em>S</em>)-(+)-Phenylglycinol;(<em>S</em>)-α-Aminophenylethanol;(2<em>S</em>)-2-Amino-2-phenyl-1-ethanol;(2<em>S</em>)-Phenylglycinol;(<em>S</em>)-1-Phenyl-2-hydroxyethylamine;(<em>S</em>)-(+)-2-Phenylglycinol;[(<em>S</em>)-2-Hydroxy-1-phenylethyl]amine;(2<em>S</em>)-2-Phenyl-2-aminoethanol;(2<em>S</em>)-2-Amino-2-phenylethanol;(1<em>S</em>)-2-Amino-2-phenylethanol;(1S)-2-Hydroxy-1-phenylethylamine;(<em>S</em>)-2-Amino-2-phenylethan-1-ol;(<em>S</em>)-(+)-2-Amino-2-phenylethanol;(2S)-2-Amino-2-phenylethan-1-ol",
    "duplicated_cas_no": "",
    "SMILES": "[C@H](CO)(N)C1=CC=CC=C1",
    "meta_data": {
        "InChI": "InChI=1S/C8H11NO/c9-8(6-10)7-4-2-1-3-5-7/h1-5,8,10H,6,9H2/t8-/m1/s1",
        "InChIKey": null,
        "Canonical SMILES": "OCC(N)C=1C=CC=CC1",
        "Molecular Formula": "C<sub>8</sub>H<sub>11</sub>NO",
        "Molecular Mass": "137.18",
        "Melting Point": "71-73 °C"
    }
}