{
    "cas_no": "67287-53-0",
    "key_name": "6-Chloro-2,3,4,5-tetrahydro-7,8-dimethoxy-1-(4-methoxyphenyl)-1<em>H</em>-3-benzazepine",
    "cn_name": "6-氯-2,3,4,5-四氢-7,8-二甲氧基-1-(4-甲氧基苯基)-1H-3-苯并氮杂卓;",
    "alternate_name": "1<em>H</em>-3-Benzazepine, 6-chloro-2,3,4,5-tetrahydro-7,8-dimethoxy-1-(4-methoxyphenyl)-;6-Chloro-2,3,4,5-tetrahydro-7,8-dimethoxy-1-(4-methoxyphenyl)-1<em>H</em>-3-benzazepine;2,3,4,5-Tetrahydro-6-chloro-7,8-dimethoxy-1-(4-methoxyphenyl)-3-benzazepine;6-Chloro-7,8-dimethoxy-1-(4-methoxyphenyl)-2,3,4,5-tetrahydro-1<em>H</em>-benzo[<em>d</em>]azepine",
    "duplicated_cas_no": "88764-14-1",
    "SMILES": "ClC1=C2C(C(CNCC2)C3=CC=C(OC)C=C3)=CC(OC)=C1OC",
    "meta_data": {
        "InChI": "InChI=1S/C19H22ClNO3/c1-22-13-6-4-12(5-7-13)16-11-21-9-8-14-15(16)10-17(23-2)19(24-3)18(14)20/h4-7,10,16,21H,8-9,11H2,1-3H3",
        "InChIKey": null,
        "Canonical SMILES": "ClC=1C(OC)=C(OC)C=C2C1CCNCC2C3=CC=C(OC)C=C3",
        "Molecular Formula": "C<sub>19</sub>H<sub>22</sub>ClNO<sub>3</sub>",
        "Molecular Mass": "347.84",
        "Melting Point": "141-142 °C"
    }
}