{
    "cas_no": "5333-88-0",
    "key_name": "Heptanoic acid, 2-bromo-, ethyl ester",
    "cn_name": "2-溴庚酸乙酯;",
    "alternate_name": "Heptanoic acid, 2-bromo-, ethyl ester;Enanthic acid, α-bromo-, ethyl ester;Ethyl 2-bromoheptanoate;NSC 2356",
    "duplicated_cas_no": "151094-00-7",
    "SMILES": "C(C(OCC)=O)(CCCCC)Br",
    "meta_data": {
        "InChI": "InChI=1S/C9H17BrO2/c1-3-5-6-7-8(10)9(11)12-4-2/h8H,3-7H2,1-2H3",
        "InChIKey": null,
        "Canonical SMILES": "O=C(OCC)C(Br)CCCCC",
        "Molecular Formula": "C<sub>9</sub>H<sub>17</sub>BrO<sub>2</sub>",
        "Molecular Mass": "237.13",
        "Boiling Point": "50 °C @ Press: 0.4 Torr"
    }
}