{
    "cas_no": "17869-76-0",
    "key_name": "Trimethyl[(1-methyl-2-propyn-1-yl)oxy]silane",
    "cn_name": null,
    "alternate_name": "Silane, trimethyl[(1-methyl-2-propyn-1-yl)oxy]-;Silane, trimethyl[(1-methyl-2-propynyl)oxy]-;Trimethyl[(1-methyl-2-propyn-1-yl)oxy]silane;3-(Trimethylsiloxy)-1-butyne;Trimethyl(1-methyl-2-propynyloxy)silane;3-Trimethylsilyloxy-1-butyne;[1-(Trimethylsiloxy)ethyl]acetylene;(But-3-yn-2-yloxy)trimethylsilane;2-Trimethylsilyloxy-3-butyne",
    "duplicated_cas_no": "",
    "SMILES": "O([Si](C)(C)C)C(C#C)C",
    "meta_data": {
        "InChI": "InChI=1S/C7H14OSi/c1-6-7(2)8-9(3,4)5/h1,7H,2-5H3",
        "InChIKey": null,
        "Canonical SMILES": "C#CC(O[Si](C)(C)C)C",
        "Molecular Formula": "C<sub>7</sub>H<sub>14</sub>OSi",
        "Molecular Mass": "142.27",
        "Boiling Point": "47.5-49 °C @ Press: 75 Torr",
        "Melting Point": "127-129 °C",
        "Density": "0.819 g/cm³"
    }
}