{
    "cas_no": "1074-24-4",
    "key_name": "2,5-Dibromo-<em>p</em>-xylene",
    "cn_name": "2,5-二溴-1,4-二甲基苯;2,5-二溴对二甲苯;",
    "alternate_name": "Benzene, 1,4-dibromo-2,5-dimethyl-;<em>p</em>-Xylene, 2,5-dibromo-;1,4-Dibromo-2,5-dimethylbenzene;2,5-Dimethyl-1,4-dibromobenzene;2,5-Dibromo-<em>p</em>-xylene;2,5-Dibromo-1,4-dimethylbenzene;2,5-Dibromo-1,4-xylene;NSC 106321",
    "duplicated_cas_no": "",
    "SMILES": "BrC1=C(C)C=C(Br)C(C)=C1",
    "meta_data": {
        "InChI": "InChI=1S/C8H8Br2/c1-5-3-8(10)6(2)4-7(5)9/h3-4H,1-2H3",
        "InChIKey": null,
        "Canonical SMILES": "BrC=1C=C(C(Br)=CC1C)C",
        "Molecular Formula": "C<sub>8</sub>H<sub>8</sub>Br<sub>2</sub>",
        "Molecular Mass": "263.96",
        "Melting Point": "73.5-74.0 °C"
    }
}