{
    "cas_no": "611-01-8",
    "key_name": "2,4-Dimethylbenzoic acid",
    "cn_name": "2,4-二甲基苯甲酸;",
    "alternate_name": "Benzoic acid, 2,4-dimethyl-;2,4-Dimethylbenzoic acid;4-Carboxy-1,3-dimethylbenzene;NSC 407532",
    "duplicated_cas_no": "",
    "SMILES": "C(O)(=O)C1=C(C)C=C(C)C=C1",
    "meta_data": {
        "InChI": "InChI=1S/C9H10O2/c1-6-3-4-8(9(10)11)7(2)5-6/h3-5H,1-2H3,(H,10,11)",
        "InChIKey": null,
        "Canonical SMILES": "O=C(O)C1=CC=C(C=C1C)C",
        "Molecular Formula": "C<sub>9</sub>H<sub>10</sub>O<sub>2</sub>",
        "Molecular Mass": "150.17",
        "Boiling Point": "268 °C",
        "Melting Point": "125-126 °C"
    }
}