{
    "cas_no": "1927-06-6",
    "key_name": "Ethanaminium, 2-hydroxy-<em>N</em>,<em>N</em>,<em>N</em>-trimethyl-, bromide (1:1)",
    "cn_name": null,
    "alternate_name": "Ethanaminium, 2-hydroxy-<em>N</em>,<em>N</em>,<em>N</em>-trimethyl-, bromide (1:1);Choline, bromide;Ethanaminium, 2-hydroxy-<em>N</em>,<em>N</em>,<em>N</em>-trimethyl-, bromide;Trimethyl(2-hydroxyethyl)ammonium bromide;(2-Hydroxyethyl)trimethylammonium bromide",
    "duplicated_cas_no": "",
    "SMILES": "C([N+](C)(C)C)CO.[Br-]",
    "meta_data": {
        "InChI": "InChI=1S/C5H14NO.BrH/c1-6(2,3)4-5-7;/h7H,4-5H2,1-3H3;1H/q+1;/p-1",
        "InChIKey": null,
        "Canonical SMILES": "[Br-].OCC[N+](C)(C)C",
        "Molecular Formula": "C<sub>5</sub>H<sub>14</sub>NO.Br",
        "Molecular Mass": "",
        "Melting Point": "287-289 °C (decomp)"
    }
}