{
    "cas_no": "23601-40-3",
    "key_name": "3,6,9,12,15,18-Hexaoxanonadecan-1-ol",
    "cn_name": "六乙二醇单甲醚;",
    "alternate_name": "3,6,9,12,15,18-Hexaoxanonadecan-1-ol;2,5,8,11,14,17-Hexaoxanonadecan-19-ol;Hexaethylene glycol, monomethyl ether;Hexaethylene glycol methyl ether;Methoxyhexaethylene glycol;2-[2-[2-[2-[2-(2-Methoxyethoxy)ethoxy]ethoxy]ethoxy]ethoxy]ethanol",
    "duplicated_cas_no": "",
    "SMILES": "C(OCCOCCOCCO)COCCOCCOC",
    "meta_data": {
        "InChI": "InChI=1S/C13H28O7/c1-15-4-5-17-8-9-19-12-13-20-11-10-18-7-6-16-3-2-14/h14H,2-13H2,1H3",
        "InChIKey": null,
        "Canonical SMILES": "OCCOCCOCCOCCOCCOCCOC",
        "Molecular Formula": "C<sub>13</sub>H<sub>28</sub>O<sub>7</sub>",
        "Molecular Mass": "296.36",
        "Boiling Point": "205 °C @ Press: 0.25 Torr"
    }
}