{
    "cas_no": "548-76-5",
    "key_name": "Irigenin",
    "cn_name": null,
    "alternate_name": "4<em>H</em>-1-Benzopyran-4-one, 5,7-dihydroxy-3-(3-hydroxy-4,5-dimethoxyphenyl)-6-methoxy-;Isoflavone, 3′,5,7-trihydroxy-4′,5′,6-trimethoxy-;Irigenin;5,7-Dihydroxy-3-(3-hydroxy-4,5-dimethoxyphenyl)-6-methoxy-4<em>H</em>-1-benzopyran-4-one",
    "duplicated_cas_no": "",
    "SMILES": "O=C1C=2C(=CC(O)=C(OC)C2O)OC=C1C3=CC(OC)=C(OC)C(O)=C3",
    "meta_data": {
        "InChI": "InChI=1S/C18H16O8/c1-23-13-5-8(4-10(19)17(13)24-2)9-7-26-12-6-11(20)18(25-3)16(22)14(12)15(9)21/h4-7,19-20,22H,1-3H3",
        "InChIKey": null,
        "Canonical SMILES": "O=C1C(=COC2=CC(O)=C(OC)C(O)=C12)C=3C=C(O)C(OC)=C(OC)C3",
        "Molecular Formula": "C<sub>18</sub>H<sub>16</sub>O<sub>8</sub>",
        "Molecular Mass": "360.31",
        "Melting Point": "185 °C"
    }
}