{
    "cas_no": "584-03-2",
    "key_name": "1,2-Butanediol",
    "cn_name": null,
    "alternate_name": "1,2-Butanediol;1,2-Butylene glycol;1,2-Dihydroxybutane;<span class=\"text-smallcaps\">DL</span>-1,2-Butanediol;(±)-Butane-1,2-diol;NSC 24242",
    "duplicated_cas_no": "26171-83-5",
    "SMILES": "C(CC)(CO)O",
    "meta_data": {
        "InChI": "InChI=1S/C4H10O2/c1-2-4(6)3-5/h4-6H,2-3H2,1H3",
        "InChIKey": null,
        "Canonical SMILES": "OCC(O)CC",
        "Molecular Formula": "C<sub>4</sub>H<sub>10</sub>O<sub>2</sub>",
        "Molecular Mass": "90.12",
        "Boiling Point": "195-196.9 °C",
        "Melting Point": "-50 °C",
        "Density": "1.0023 g/cm³ @ Temp: 20 °C"
    }
}