{
    "cas_no": "110623-73-9",
    "key_name": "Epimedin B",
    "cn_name": "朝藿定B;淫羊霍定B;",
    "alternate_name": "4<em>H</em>-1-Benzopyran-4-one, 3-[(6-deoxy-2-<em>O</em>-β-<span class=\"text-smallcaps\">D</smallcap>-xylopyranosyl-α-<smallcap>L</smallcap>-mannopyranosyl)oxy]-7-(β-<smallcap>D</span>-glucopyranosyloxy)-5-hydroxy-2-(4-methoxyphenyl)-8-(3-methyl-2-buten-1-yl)-;4<em>H</em>-1-Benzopyran-4-one, 3-[(6-deoxy-2-<em>O</em>-β-<span class=\"text-smallcaps\">D</smallcap>-xylopyranosyl-α-<smallcap>L</smallcap>-mannopyranosyl)oxy]-7-(β-<smallcap>D</span>-glucopyranosyloxy)-5-hydroxy-2-(4-methoxyphenyl)-8-(3-methyl-2-butenyl)-;3-[(6-Deoxy-2-<em>O</em>-β-<span class=\"text-smallcaps\">D</smallcap>-xylopyranosyl-α-<smallcap>L</smallcap>-mannopyranosyl)oxy]-7-(β-<smallcap>D</span>-glucopyranosyloxy)-5-hydroxy-2-(4-methoxyphenyl)-8-(3-methyl-2-buten-1-yl)-4<em>H</em>-1-benzopyran-4-one;Epimedin B",
    "duplicated_cas_no": "",
    "SMILES": "C(C=C(C)C)C1=C2C(C(=O)C(O[C@H]3[C@H](O[C@H]4[C@H](O)[C@@H](O)[C@H](O)CO4)[C@H](O)[C@@H](O)[C@H](C)O3)=C(O2)C5=CC=C(OC)C=C5)=C(O)C=C1O[C@@H]6O[C@H](CO)[C@@H](O)[C@H](O)[C@H]6O",
    "meta_data": {
        "InChI": "InChI=1S/C38H48O19/c1-14(2)5-10-18-21(53-37-31(49)28(46)26(44)22(12-39)54-37)11-19(40)23-27(45)34(32(55-33(18)23)16-6-8-17(50-4)9-7-16)56-38-35(29(47)24(42)15(3)52-38)57-36-30(48)25(43)20(41)13-51-36/h5-9,11,15,20,22,24-26,28-31,35-44,46-49H,10,12-13H2,1-4H3/t15-,20+,22+,24-,25-,26+,28-,29+,30+,31+,35+,36-,37+,38-/m0/s1",
        "InChIKey": null,
        "Canonical SMILES": "O=C1C(OC2OC(C)C(O)C(O)C2OC3OCC(O)C(O)C3O)=C(OC=4C1=C(O)C=C(OC5OC(CO)C(O)C(O)C5O)C4CC=C(C)C)C=6C=CC(OC)=CC6",
        "Molecular Formula": "C<sub>38</sub>H<sub>48</sub>O<sub>19</sub>",
        "Molecular Mass": "808.78",
        "Melting Point": "162-164 °C"
    }
}