{
    "cas_no": "3019-51-0",
    "key_name": "Isoboldine",
    "cn_name": null,
    "alternate_name": "4<em>H</em>-Dibenzo[<em>de</em>,<em>g</em>]quinoline-1,9-diol, 5,6,6a,7-tetrahydro-2,10-dimethoxy-6-methyl-, (6a<em>S</em>)-;Isoboldine;6aα-Aporphine-1,9-diol, 2,10-dimethoxy-;4<em>H</em>-Dibenzo[<em>de</em>,<em>g</em>]quinoline-1,9-diol, 5,6,6a,7-tetrahydro-2,10-dimethoxy-6-methyl-, (<em>S</em>)-;(6a<em>S</em>)-5,6,6a,7-Tetrahydro-2,10-dimethoxy-6-methyl-4<em>H</em>-dibenzo[<em>de</em>,<em>g</em>]quinoline-1,9-diol;(+)-Isoboldine;<em>d</em>-Isoboldine;(<em>S</em>)-(+)-Isoboldine;(<em>S</em>)-Isoboldine;<em>N</em>-Methyllaurelliptine;NSC 113983",
    "duplicated_cas_no": "",
    "SMILES": "OC1=C2C=3[C@](CC=4C2=CC(OC)=C(O)C4)(N(C)CCC3C=C1OC)[H]",
    "meta_data": {
        "InChI": "InChI=1S/C19H21NO4/c1-20-5-4-10-8-16(24-3)19(22)18-12-9-15(23-2)14(21)7-11(12)6-13(20)17(10)18/h7-9,13,21-22H,4-6H2,1-3H3/t13-/m0/s1",
        "InChIKey": null,
        "Canonical SMILES": "OC1=CC2=C(C=C1OC)C3=C(O)C(OC)=CC4=C3C(N(C)CC4)C2",
        "Molecular Formula": "C<sub>19</sub>H<sub>21</sub>NO<sub>4</sub>",
        "Molecular Mass": "327.37",
        "Melting Point": "180 °C"
    }
}