{
    "cas_no": "14447-18-8",
    "key_name": "Phenylmethyl 2-cyanoacetate",
    "cn_name": "氰基乙酸苄酯;",
    "alternate_name": "Acetic acid, 2-cyano-, phenylmethyl ester;Acetic acid, cyano-, benzyl ester;Acetic acid, cyano-, phenylmethyl ester;Phenylmethyl 2-cyanoacetate;Benzyl cyanoacetate;Cyanoacetic acid phenylmethyl ester;Cyanoacetic acid benzyl ester",
    "duplicated_cas_no": "1654002-82-0",
    "SMILES": "C(OC(CC#N)=O)C1=CC=CC=C1",
    "meta_data": {
        "InChI": "InChI=1S/C10H9NO2/c11-7-6-10(12)13-8-9-4-2-1-3-5-9/h1-5H,6,8H2",
        "InChIKey": null,
        "Canonical SMILES": "N#CCC(=O)OCC=1C=CC=CC1",
        "Molecular Formula": "C<sub>10</sub>H<sub>9</sub>NO<sub>2</sub>",
        "Molecular Mass": "175.18",
        "Boiling Point": "134-136 °C @ Press: 0.5 Torr",
        "Melting Point": "61-62 °C"
    }
}