{
    "cas_no": "80-07-9",
    "key_name": "4,4′-Dichlorodiphenyl sulfone",
    "cn_name": "4,4\"-二氯二苯砜;",
    "alternate_name": "Benzene, 1,1′-sulfonylbis[4-chloro-;Sulfone, bis(<em>p</em>-chlorophenyl);1,1′-Sulfonylbis[4-chlorobenzene];4-Chloro-1-(4-chlorophenylsulfonyl)benzene;Bis(4-chlorophenyl) sulfone;<em>p</em>,<em>p</em>′-Dichlorodiphenyl sulfone;Bis(<em>p</em>-chlorophenyl) sulfone;<em>p</em>-Chlorophenyl sulfone;4-Chlorophenyl sulfone;4,4′-Dichlorodiphenyl sulfone;Di-<em>p</em>-chlorophenyl sulfone;B 0810;NSC 23899;NSC 38759;NSC 50730;NSC 7207;1-Chloro-4-(4-chlorophenyl)sulfonylbenzene;1-Chloro-4-(4-chlorobenzenesulfonyl)benzene",
    "duplicated_cas_no": "85228-26-8;916849-48-4",
    "SMILES": "S(=O)(=O)(C1=CC=C(Cl)C=C1)C2=CC=C(Cl)C=C2",
    "meta_data": {
        "InChI": "InChI=1S/C12H8Cl2O2S/c13-9-1-5-11(6-2-9)17(15,16)12-7-3-10(14)4-8-12/h1-8H",
        "InChIKey": null,
        "Canonical SMILES": "O=S(=O)(C1=CC=C(Cl)C=C1)C2=CC=C(Cl)C=C2",
        "Molecular Formula": "C<sub>12</sub>H<sub>8</sub>Cl<sub>2</sub>O<sub>2</sub>S",
        "Molecular Mass": "287.16",
        "Boiling Point": "186-187 °C @ Press: 0.7 Torr",
        "Melting Point": "147.9 °C"
    }
}