{
    "cas_no": "75-81-0",
    "key_name": "1,2-Dibromo-1,1-dichloroethane",
    "cn_name": null,
    "alternate_name": "Ethane, 1,2-dibromo-1,1-dichloro-;1,2-Dibromo-1,1-dichloroethane;1,2-Dibromo-2,2-dichloroethane;1,1-Dichloro-1,2-dibromoethane;NSC 6199",
    "duplicated_cas_no": "",
    "SMILES": "C(CBr)(Br)(Cl)Cl",
    "meta_data": {
        "InChI": "InChI=1S/C2H2Br2Cl2/c3-1-2(4,5)6/h1H2",
        "InChIKey": null,
        "Canonical SMILES": "ClC(Cl)(Br)CBr",
        "Molecular Formula": "C<sub>2</sub>H<sub>2</sub>Br<sub>2</sub>Cl<sub>2</sub>",
        "Molecular Mass": "256.75",
        "Boiling Point": "195 °C",
        "Melting Point": "-26 °C",
        "Density": "2.135 g/cm³"
    }
}