{
    "cas_no": "96240-10-7",
    "key_name": "4-Amino-2,4-dihydro-5-(1-methylethyl)-3<em>H</em>-1,2,4-triazol-3-one",
    "cn_name": "4-氨基-3-异丙基-1,2,4-三唑啉-5-酮;",
    "alternate_name": "3<em>H</em>-1,2,4-Triazol-3-one, 4-amino-2,4-dihydro-5-(1-methylethyl)-;4-Amino-2,4-dihydro-5-(1-methylethyl)-3<em>H</em>-1,2,4-triazol-3-one;3-Isopropyl-4-amino-1,2,4-triazol-5-one;4-Amino-2,4-dihydro-5-isopropyl-1,2,4-triazol-3-one",
    "duplicated_cas_no": "",
    "SMILES": "C(C)(C)C=1N(N)C(=O)NN1",
    "meta_data": {
        "InChI": "InChI=1S/C5H10N4O/c1-3(2)4-7-8-5(10)9(4)6/h3H,6H2,1-2H3,(H,8,10)",
        "InChIKey": null,
        "Canonical SMILES": "O=C1NN=C(N1N)C(C)C",
        "Molecular Formula": "C<sub>5</sub>H<sub>10</sub>N<sub>4</sub>O",
        "Molecular Mass": "142.16",
        "Melting Point": "172 °C"
    }
}