{
    "cas_no": "112-90-3",
    "key_name": "Oleylamine",
    "cn_name": "油胺;9-十八烯胺;",
    "alternate_name": "9-Octadecen-1-amine, (9<em>Z</em>)-;9-Octadecenylamine, (<em>Z</em>)-;9-Octadecen-1-amine, (<em>Z</em>)-;(9<em>Z</em>)-9-Octadecen-1-amine;Alamine 11;Oleylamine;Oleinamine;Noram O;<em>cis</em>-9-Octadecenylamine;Oleamine;Kemamine P 989;Armeen O;Arosurf AA 60;Armeen OD;Kemamine P 989D;Adogen 172D;Armeen OLD-C;Noram OD;((<em>Z</em>)-9-Octadecenyl)amine;Genamin OL 100D;Amine OB;SK-FLOT;9-(<em>Z</em>)-Octadecen-1-amine;Corsamine POD-V;Lipomin O;Armeen OM 97;Farmin O-V;Nissan Amine OB",
    "duplicated_cas_no": "101963-56-8;39433-05-1;62169-25-9;90015-00-2;745822-78-0;163751-89-1",
    "SMILES": "C(=C\\CCCCCCCC)\\CCCCCCCCN",
    "meta_data": {
        "InChI": "InChI=1S/C18H37N/c1-2-3-4-5-6-7-8-9-10-11-12-13-14-15-16-17-18-19/h9-10H,2-8,11-19H2,1H3/b10-9-",
        "InChIKey": null,
        "Canonical SMILES": "NCCCCCCCCC=CCCCCCCCC",
        "Molecular Formula": "C<sub>18</sub>H<sub>37</sub>N",
        "Molecular Mass": "267.49",
        "Boiling Point": "175 °C @ Press: 0.2 Torr",
        "Melting Point": "-9.5 °C"
    }
}