{
    "cas_no": "2613-89-0",
    "key_name": "Phenylmalonic acid",
    "cn_name": "苯丙二酸;苯基丙二酸;",
    "alternate_name": "Propanedioic acid, 2-phenyl-;Malonic acid, phenyl-;Propanedioic acid, phenyl-;2-Phenylpropanedioic acid;Phenylmalonic acid;Toluene-α,α-dicarboxylic acid;2-Phenylmalonic acid;α-Carboxyphenylacetic acid;α-Phenylmalonic acid;NSC 27164;NSC 41697",
    "duplicated_cas_no": "",
    "SMILES": "C(C(O)=O)(C(O)=O)C1=CC=CC=C1",
    "meta_data": {
        "InChI": "InChI=1S/C9H8O4/c10-8(11)7(9(12)13)6-4-2-1-3-5-6/h1-5,7H,(H,10,11)(H,12,13)",
        "InChIKey": null,
        "Canonical SMILES": "O=C(O)C(C(=O)O)C=1C=CC=CC1",
        "Molecular Formula": "C<sub>9</sub>H<sub>8</sub>O<sub>4</sub>",
        "Molecular Mass": "180.16",
        "Melting Point": "152 °C (decomp)"
    }
}