{
    "cas_no": "41717-28-6",
    "key_name": "2-Benzofurancarbonyl chloride",
    "cn_name": null,
    "alternate_name": "2-Benzofurancarbonyl chloride;Coumarilic acid chloride;Coumariloyl chloride;Benzofuran-2-carboxylic acid chloride;2-Benzo[<em>b</em>]furancarbonyl chloride;NSC 162303;1-Benzofuran-2-carbonyl chloride;Benzo[<em>b</em>]furan-2-carbonyl chloride",
    "duplicated_cas_no": "",
    "SMILES": "C(Cl)(=O)C1=CC=2C(O1)=CC=CC2",
    "meta_data": {
        "InChI": "InChI=1S/C9H5ClO2/c10-9(11)8-5-6-3-1-2-4-7(6)12-8/h1-5H",
        "InChIKey": null,
        "Canonical SMILES": "O=C(Cl)C=1OC=2C=CC=CC2C1",
        "Molecular Formula": "C<sub>9</sub>H<sub>5</sub>ClO<sub>2</sub>",
        "Molecular Mass": "180.59",
        "Boiling Point": "267-269 °C @ Press: 746 Torr",
        "Melting Point": "54-55 °C"
    }
}