{
    "cas_no": "20174-70-3",
    "key_name": "2-Hydrazino-6-methoxybenzothiazole",
    "cn_name": null,
    "alternate_name": "Benzothiazole, 2-hydrazinyl-6-methoxy-;Benzothiazole, 2-hydrazino-6-methoxy-;2(3<em>H</em>)-Benzothiazolone, 6-methoxy-, hydrazone;2-Hydrazinyl-6-methoxybenzothiazole;2-Hydrazino-6-methoxybenzothiazole;(6-Methoxybenzothiazol-2-yl)hydrazine;(6-Methoxy-1,3-benzothiazol-2-yl)hydrazine;2-Hydrazinyl-6-methoxy-1,3-benzothiazole",
    "duplicated_cas_no": "",
    "SMILES": "N(N)=C1SC=2C(N1)=CC=C(OC)C2",
    "meta_data": {
        "InChI": "InChI=1S/C8H9N3OS/c1-12-5-2-3-6-7(4-5)13-8(10-6)11-9/h2-4H,9H2,1H3,(H,10,11)",
        "InChIKey": null,
        "Canonical SMILES": "N(N)=C1SC2=CC(OC)=CC=C2N1",
        "Molecular Formula": "C<sub>8</sub>H<sub>9</sub>N<sub>3</sub>OS",
        "Molecular Mass": "195.24",
        "Melting Point": "168-169 °C"
    }
}