{
    "cas_no": "40915-37-5",
    "key_name": "3,4-Dihydro-2<em>H</em>-pyran-5-carboxylic acid",
    "cn_name": null,
    "alternate_name": "2<em>H</em>-Pyran-5-carboxylic acid, 3,4-dihydro-;3,4-Dihydro-2<em>H</em>-pyran-5-carboxylic acid;2,3-Dihydro-pyran-5-carboxylic acid",
    "duplicated_cas_no": "",
    "SMILES": "C(O)(=O)C=1CCCOC1",
    "meta_data": {
        "InChI": "InChI=1S/C6H8O3/c7-6(8)5-2-1-3-9-4-5/h4H,1-3H2,(H,7,8)",
        "InChIKey": null,
        "Canonical SMILES": "O=C(O)C1=COCCC1",
        "Molecular Formula": "C<sub>6</sub>H<sub>8</sub>O<sub>3</sub>",
        "Molecular Mass": "128.13",
        "Melting Point": "72-74 °C"
    }
}