{
    "cas_no": "3801-06-7",
    "key_name": "Fluorometholone acetate",
    "cn_name": "氟米龙醋酸酯;",
    "alternate_name": "Pregna-1,4-diene-3,20-dione, 17-(acetyloxy)-9-fluoro-11-hydroxy-6-methyl-, (6α,11β)-;Pregna-1,4-diene-3,20-dione, 9-fluoro-11β,17-dihydroxy-6α-methyl-, 17-acetate;(6α,11β)-17-(Acetyloxy)-9-fluoro-11-hydroxy-6-methylpregna-1,4-diene-3,20-dione;U 17323;6α-Methyl-9α-fluoro-17-acetoxy-21-deoxyprednisolone;Oxylone acetate;6α-Methyl-9α-fluoro-21-desoxyprednisolone-17-acetate;Fluorometholone acetate;Flarex;NSC 47438;Eflone",
    "duplicated_cas_no": "80571-63-7",
    "SMILES": "F[C@@]12[C@]([C@]3([C@](C)(C[C@@H]1O)[C@@](OC(C)=O)(C(C)=O)CC3)[H])(C[C@H](C)C=4[C@]2(C)C=CC(=O)C4)[H]",
    "meta_data": {
        "InChI": "InChI=1S/C24H31FO5/c1-13-10-19-17-7-9-23(14(2)26,30-15(3)27)22(17,5)12-20(29)24(19,25)21(4)8-6-16(28)11-18(13)21/h6,8,11,13,17,19-20,29H,7,9-10,12H2,1-5H3/t13-,17-,19-,20-,21-,22-,23-,24-/m0/s1",
        "InChIKey": null,
        "Canonical SMILES": "O=C1C=CC2(C(=C1)C(C)CC3C4CCC(OC(=O)C)(C(=O)C)C4(C)CC(O)C32F)C",
        "Molecular Formula": "C<sub>24</sub>H<sub>31</sub>FO<sub>5</sub>",
        "Molecular Mass": "418.50",
        "Melting Point": "292-303 °C"
    }
}