{
    "cas_no": "116632-24-7",
    "key_name": "4,6-Dichloro-2-pyridinamine",
    "cn_name": "2-氨基-4,6-二氯吡啶;",
    "alternate_name": "2-Pyridinamine, 4,6-dichloro-;Pyridine, 2-amino-4,6-dichloro-;4,6-Dichloro-2-pyridinamine;2-Amino-4,6-dichloropyridine;4,6-Dichloropyridin-2-amine;(4,6-Dichloropyridin-2-yl)amine",
    "duplicated_cas_no": "",
    "SMILES": "ClC=1C=C(Cl)N=C(N)C1",
    "meta_data": {
        "InChI": "InChI=1S/C5H4Cl2N2/c6-3-1-4(7)9-5(8)2-3/h1-2H,(H2,8,9)",
        "InChIKey": null,
        "Canonical SMILES": "ClC=1N=C(N)C=C(Cl)C1",
        "Molecular Formula": "C<sub>5</sub>H<sub>4</sub>Cl<sub>2</sub>N<sub>2</sub>",
        "Molecular Mass": "163.00",
        "Melting Point": "112.5 °C"
    }
}