{
    "cas_no": "1053656-51-1",
    "key_name": "5-(1,1-Dimethylethyl) 2-ethyl 6,7-dihydrothiazolo[5,4-<em>c</em>]pyridine-2,5(4<em>H</em>)-dicarboxylate",
    "cn_name": null,
    "alternate_name": "Thiazolo[5,4-<em>c</em>]pyridine-2,5(4<em>H</em>)-dicarboxylic acid, 6,7-dihydro-, 5-(1,1-dimethylethyl) 2-ethyl ester;5-(1,1-Dimethylethyl) 2-ethyl 6,7-dihydrothiazolo[5,4-<em>c</em>]pyridine-2,5(4<em>H</em>)-dicarboxylate",
    "duplicated_cas_no": "",
    "SMILES": "C(OCC)(=O)C=1SC2=C(N1)CCN(C(OC(C)(C)C)=O)C2",
    "meta_data": {
        "InChI": "InChI=1S/C14H20N2O4S/c1-5-19-12(17)11-15-9-6-7-16(8-10(9)21-11)13(18)20-14(2,3)4/h5-8H2,1-4H3",
        "InChIKey": null,
        "Canonical SMILES": "O=C(OCC)C1=NC2=C(S1)CN(C(=O)OC(C)(C)C)CC2",
        "Molecular Formula": "C<sub>14</sub>H<sub>20</sub>N<sub>2</sub>O<sub>4</sub>S",
        "Molecular Mass": "312.38",
        "Melting Point": "138-140 °C"
    }
}