{
    "cas_no": "25948-11-2",
    "key_name": "5-Nitro-<em>N</em>-propyl-2-pyridinamine",
    "cn_name": "5-硝基-2-(正丙氨基)-吡啶;5-硝基-2-丙氨基)吡啶;",
    "alternate_name": "2-Pyridinamine, 5-nitro-<em>N</em>-propyl-;Pyridine, 5-nitro-2-(propylamino)-;5-Nitro-<em>N</em>-propyl-2-pyridinamine;2-Propylamino-5-nitropyridine;5-Nitro-2-(<em>n</em>-propylamino)pyridine",
    "duplicated_cas_no": "",
    "SMILES": "N(=O)(=O)C=1C=CC(NCCC)=NC1",
    "meta_data": {
        "InChI": "InChI=1S/C8H11N3O2/c1-2-5-9-8-4-3-7(6-10-8)11(12)13/h3-4,6H,2,5H2,1H3,(H,9,10)",
        "InChIKey": null,
        "Canonical SMILES": "O=N(=O)C1=CN=C(C=C1)NCCC",
        "Molecular Formula": "C<sub>8</sub>H<sub>11</sub>N<sub>3</sub>O<sub>2</sub>",
        "Molecular Mass": "181.19",
        "Melting Point": "97 °C"
    }
}