{
    "cas_no": "57018-46-9",
    "key_name": "4-Azidophenacyl bromide",
    "cn_name": "4-叠氮苯甲酰甲基溴;",
    "alternate_name": "Ethanone, 1-(4-azidophenyl)-2-bromo-;1-(4-Azidophenyl)-2-bromoethanone;<em>p</em>-Azidophenacyl bromide;4′-Azido-2-bromoacetophenone;4-Azidophenacyl bromide;<em>p</em>-Azidophenacetyl bromide;2-Bromo-4′-azidoacetophenone;1-(4-Azidophenyl)-2-bromoethan-1-one",
    "duplicated_cas_no": "",
    "SMILES": "C(CBr)(=O)C1=CC=C(N=[N+]=[N-])C=C1",
    "meta_data": {
        "InChI": "InChI=1S/C8H6BrN3O/c9-5-8(13)6-1-3-7(4-2-6)11-12-10/h1-4H,5H2",
        "InChIKey": null,
        "Canonical SMILES": "[N-]=[N+]=NC1=CC=C(C=C1)C(=O)CBr",
        "Molecular Formula": "C<sub>8</sub>H<sub>6</sub>BrN<sub>3</sub>O",
        "Molecular Mass": "",
        "Melting Point": "66-67 °C"
    }
}