{
    "cas_no": "18967-44-7",
    "key_name": "1-Chloro-2-(isothiocyanatomethyl)benzene",
    "cn_name": "2-氯苯甲基硫代异氰酸酯;",
    "alternate_name": "Benzene, 1-chloro-2-(isothiocyanatomethyl)-;Isothiocyanic acid, <em>o</em>-chlorobenzyl ester;Toluene, <em>o</em>-chloro-α-isothiocyanato-;1-Chloro-2-(isothiocyanatomethyl)benzene;2-Chlorobenzyl isothiocyanate;<em>o</em>-Chlorobenzyl isothiocyanate;NSC 221237",
    "duplicated_cas_no": "",
    "SMILES": "C(N=C=S)C1=C(Cl)C=CC=C1",
    "meta_data": {
        "InChI": "InChI=1S/C8H6ClNS/c9-8-4-2-1-3-7(8)5-10-6-11/h1-4H,5H2",
        "InChIKey": null,
        "Canonical SMILES": "S=C=NCC=1C=CC=CC1Cl",
        "Molecular Formula": "C<sub>8</sub>H<sub>6</sub>ClNS",
        "Molecular Mass": "183.66",
        "Boiling Point": "94-98 °C @ Press: 0.23 Torr",
        "Density": "1.282 g/cm³ @ Temp: 20 °C"
    }
}