{
    "cas_no": "4469-80-1",
    "key_name": "4-Propoxybenzenamine",
    "cn_name": "对正丙氧基苯胺;",
    "alternate_name": "Benzenamine, 4-propoxy-;Aniline, <em>p</em>-propoxy-;4-Propoxybenzenamine;4-Propoxyaniline;<em>p</em>-Propoxyaniline;4-(Propyloxy)aniline;4-Propoxyphenylamine",
    "duplicated_cas_no": "",
    "SMILES": "O(CCC)C1=CC=C(N)C=C1",
    "meta_data": {
        "InChI": "InChI=1S/C9H13NO/c1-2-7-11-9-5-3-8(10)4-6-9/h3-6H,2,7,10H2,1H3",
        "InChIKey": null,
        "Canonical SMILES": "O(C1=CC=C(N)C=C1)CCC",
        "Molecular Formula": "C<sub>9</sub>H<sub>13</sub>NO",
        "Molecular Mass": "151.21",
        "Boiling Point": "137 °C @ Press: 11 Torr",
        "Melting Point": "265-267 °C"
    }
}