{
    "cas_no": "85118-04-3",
    "key_name": "3,4-Difluorobenzamide",
    "cn_name": "3,4-二氟苯甲酰胺;",
    "alternate_name": "Benzamide, 3,4-difluoro-;3,4-Difluorobenzamide",
    "duplicated_cas_no": "",
    "SMILES": "C(N)(=O)C1=CC(F)=C(F)C=C1",
    "meta_data": {
        "InChI": "InChI=1S/C7H5F2NO/c8-5-2-1-4(7(10)11)3-6(5)9/h1-3H,(H2,10,11)",
        "InChIKey": null,
        "Canonical SMILES": "O=C(N)C1=CC=C(F)C(F)=C1",
        "Molecular Formula": "C<sub>7</sub>H<sub>5</sub>F<sub>2</sub>NO",
        "Molecular Mass": "157.12",
        "Melting Point": "129-130 °C"
    }
}