{
    "cas_no": "32692-19-6",
    "key_name": "5-Nitroindoline",
    "cn_name": "5-硝基二氢吲哚;2,3-二氢-5-硝基吲哚;",
    "alternate_name": "1<em>H</em>-Indole, 2,3-dihydro-5-nitro-;Indoline, 5-nitro-;2,3-Dihydro-5-nitro-1<em>H</em>-indole;5-Nitroindoline;5-Nitro-2,3-dihydroindole;2,3-Dihydro-5-nitroindole;NSC 61445;5-Nitro-2,3-dihydro-1<em>H</em>-indole;5-Nitro-1<em>H</em>-indoline",
    "duplicated_cas_no": "",
    "SMILES": "N(=O)(=O)C=1C=C2C(=CC1)NCC2",
    "meta_data": {
        "InChI": "InChI=1S/C8H8N2O2/c11-10(12)7-1-2-8-6(5-7)3-4-9-8/h1-2,5,9H,3-4H2",
        "InChIKey": null,
        "Canonical SMILES": "O=N(=O)C1=CC=C2NCCC2=C1",
        "Molecular Formula": "C<sub>8</sub>H<sub>8</sub>N<sub>2</sub>O<sub>2</sub>",
        "Molecular Mass": "164.16",
        "Melting Point": "92-94 °C"
    }
}