{
    "cas_no": "93413-69-5",
    "key_name": "Venlafaxine",
    "cn_name": "文拉法辛;(R/S)-1-[2-(二甲胺)-1-(4-甲氧苯基)乙基]环己醇;",
    "alternate_name": "Cyclohexanol, 1-[2-(dimethylamino)-1-(4-methoxyphenyl)ethyl]-;Cyclohexanol, 1-[2-(dimethylamino)-1-(4-methoxyphenyl)ethyl]-, (±)-;1-[2-(Dimethylamino)-1-(4-methoxyphenyl)ethyl]cyclohexanol;Venlafaxine;(±)-Venlafaxine;Venlafexine;Venlafaxin;Trevilor;Velafax;Venlafaxine XR;Venlor;Kanghong;1-[2-Dimethylamino(4-methoxyphenyl)ethyl] cyclohexanol",
    "duplicated_cas_no": "131801-71-3",
    "SMILES": "C(CN(C)C)(C1(O)CCCCC1)C2=CC=C(OC)C=C2",
    "meta_data": {
        "InChI": "InChI=1S/C17H27NO2/c1-18(2)13-16(17(19)11-5-4-6-12-17)14-7-9-15(20-3)10-8-14/h7-10,16,19H,4-6,11-13H2,1-3H3",
        "InChIKey": null,
        "Canonical SMILES": "OC1(CCCCC1)C(C2=CC=C(OC)C=C2)CN(C)C",
        "Molecular Formula": "C<sub>17</sub>H<sub>27</sub>NO<sub>2</sub>",
        "Molecular Mass": "277.40",
        "Melting Point": "102-104 °C"
    }
}