{
    "cas_no": "621-87-4",
    "key_name": "1-Phenoxy-2-propanone",
    "cn_name": "苯氧乙酮;苯氧基-2-丙酮;",
    "alternate_name": "2-Propanone, 1-phenoxy-;2-Propanone, phenoxy-;1-Phenoxy-2-propanone;Phenoxyacetone;1-Phenoxyacetone;Phenoxymethyl methyl ketone;Methyl phenoxymethyl ketone;Phenoxy-2-propanone;NSC 1876",
    "duplicated_cas_no": "",
    "SMILES": "O(CC(C)=O)C1=CC=CC=C1",
    "meta_data": {
        "InChI": "InChI=1S/C9H10O2/c1-8(10)7-11-9-5-3-2-4-6-9/h2-6H,7H2,1H3",
        "InChIKey": null,
        "Canonical SMILES": "O=C(C)COC=1C=CC=CC1",
        "Molecular Formula": "C<sub>9</sub>H<sub>10</sub>O<sub>2</sub>",
        "Molecular Mass": "150.17",
        "Boiling Point": "229.5 °C",
        "Density": "1.0903 g/cm³ @ Temp: 20 °C"
    }
}