{
    "cas_no": "6408-72-6",
    "key_name": "Disperse Violet 26",
    "cn_name": "分散紫26;溶剂紫59;1,4-二氨基-2,3-二苯氧基蒽醌;",
    "alternate_name": "9,10-Anthracenedione, 1,4-diamino-2,3-diphenoxy-;C.I. Disperse Violet 26;1,4-Diamino-2,3-diphenoxy-9,10-anthracenedione;C.I. 62025;1,4-Diamino-2,3-diphenoxyanthraquinone;Mowilith Red 3B;Mowilith Red TBP;C.I. Disperse Violet 31;Sumikaron Bordeaux B;Resolin Red Violet FBL;Samaron Violet HFRL;Dispersol Violet C 4R;Disperse Violet 26;PTV 57;Solvaperm Red Violet R;Red Violet R;Macrolex Red Violet R;Sumiplast Bordeaux HBL;Kayalon Polyester Red Violet FBL;Navilene Red Violet IFBL;Sumikaron Bordeaux SE-BL;Disperse Violet HFRL;Navilene Red Violet FBL;Serene Disperse Violet 26;Plast Red 8380;Solvent Violet 59;C.I. Solvent Violet 59;Sandoplast Red Violet R;Disperse Violet 31;Disperse Violet SE-BL;Disperse Violet 26/31;Kenawax Violet 5RP",
    "duplicated_cas_no": "115628-65-4;12217-95-7;12239-36-0;71244-46-7;75882-23-4",
    "SMILES": "NC1=C2C(=C(N)C(OC3=CC=CC=C3)=C1OC4=CC=CC=C4)C(=O)C=5C(C2=O)=CC=CC5",
    "meta_data": {
        "InChI": "InChI=1S/C26H18N2O4/c27-21-19-20(24(30)18-14-8-7-13-17(18)23(19)29)22(28)26(32-16-11-5-2-6-12-16)25(21)31-15-9-3-1-4-10-15/h1-14H,27-28H2",
        "InChIKey": null,
        "Canonical SMILES": "O=C1C=2C=CC=CC2C(=O)C=3C(N)=C(OC=4C=CC=CC4)C(OC=5C=CC=CC5)=C(N)C13",
        "Molecular Formula": "C<sub>26</sub>H<sub>18</sub>N<sub>2</sub>O<sub>4</sub>",
        "Molecular Mass": "422.43",
        "Melting Point": "195 °C"
    }
}