{
    "cas_no": "7126-51-4",
    "key_name": "5-Formyl-1<em>H</em>-pyrrole-2-carboxylic acid",
    "cn_name": null,
    "alternate_name": "1<em>H</em>-Pyrrole-2-carboxylic acid, 5-formyl-;Pyrrole-2-carboxylic acid, 5-formyl-;5-Formyl-1<em>H</em>-pyrrole-2-carboxylic acid;5-Formylpyrrole-2-carboxylic acid",
    "duplicated_cas_no": "",
    "SMILES": "C(O)(=O)C=1NC(C=O)=CC1",
    "meta_data": {
        "InChI": "InChI=1S/C6H5NO3/c8-3-4-1-2-5(7-4)6(9)10/h1-3,7H,(H,9,10)",
        "InChIKey": null,
        "Canonical SMILES": "O=CC1=CC=C(N1)C(=O)O",
        "Molecular Formula": "C<sub>6</sub>H<sub>5</sub>NO<sub>3</sub>",
        "Molecular Mass": "139.11",
        "Melting Point": "202-203 °C"
    }
}