{
    "cas_no": "191744-13-5",
    "key_name": "2,3,6a,7,8,9-Hexahydro-11<em>H</em>-1,4-dioxino[2,3-<em>g</em>]pyrrolo[2,1-<em>b</em>][1,3]benzoxazin-11-one",
    "cn_name": null,
    "alternate_name": "11<em>H</em>-1,4-Dioxino[2,3-<em>g</em>]pyrrolo[2,1-<em>b</em>][1,3]benzoxazin-11-one, 2,3,6a,7,8,9-hexahydro-;2,3,6a,7,8,9-Hexahydro-11<em>H</em>-1,4-dioxino[2,3-<em>g</em>]pyrrolo[2,1-<em>b</em>][1,3]benzoxazin-11-one;BDP 37;CX 614;LiD 37",
    "duplicated_cas_no": "197584-79-5",
    "SMILES": "O=C1C=2C(OC3N1CCC3)=CC4=C(C2)OCCO4",
    "meta_data": {
        "InChI": "InChI=1S/C13H13NO4/c15-13-8-6-10-11(17-5-4-16-10)7-9(8)18-12-2-1-3-14(12)13/h6-7,12H,1-5H2",
        "InChIKey": null,
        "Canonical SMILES": "O=C1C2=CC=3OCCOC3C=C2OC4N1CCC4",
        "Molecular Formula": "C<sub>13</sub>H<sub>13</sub>NO<sub>4</sub>",
        "Molecular Mass": "247.25",
        "Melting Point": "155-158 °C"
    }
}