{
    "cas_no": "610-97-9",
    "key_name": "Methyl 2-iodobenzoate",
    "cn_name": "2-碘苯甲酸甲酯;邻碘苯甲酸甲酯;",
    "alternate_name": "Benzoic acid, 2-iodo-, methyl ester;Benzoic acid, <em>o</em>-iodo-, methyl ester;Methyl 2-iodobenzoate;Methyl <em>o</em>-iodobenzoate;2-Iodobenzoic acid methyl ester;NSC 34638",
    "duplicated_cas_no": "",
    "SMILES": "C(OC)(=O)C1=C(I)C=CC=C1",
    "meta_data": {
        "InChI": "InChI=1S/C8H7IO2/c1-11-8(10)6-4-2-3-5-7(6)9/h2-5H,1H3",
        "InChIKey": null,
        "Canonical SMILES": "O=C(OC)C=1C=CC=CC1I",
        "Molecular Formula": "C<sub>8</sub>H<sub>7</sub>IO<sub>2</sub>",
        "Molecular Mass": "262.04",
        "Boiling Point": "280 °C"
    }
}