{
    "cas_no": "593-51-1",
    "key_name": "Methylamine hydrochloride",
    "cn_name": null,
    "alternate_name": "Methanamine, hydrochloride (1:1);Methylamine, hydrochloride;Methanamine, hydrochloride;Methylammonium chloride;Monomethylammonium chloride;Methanaminium chloride;Methylamine monohydrochloride;Methylamine hydrochloride",
    "duplicated_cas_no": "865-30-5;135862-86-1;2421217-10-7",
    "SMILES": "CN.Cl",
    "meta_data": {
        "InChI": "InChI=1S/CH5N.ClH/c1-2;/h2H2,1H3;1H",
        "InChIKey": null,
        "Canonical SMILES": "Cl.NC",
        "Molecular Formula": "CH<sub>5</sub>N.ClH",
        "Molecular Mass": "",
        "Boiling Point": "227 °C",
        "Melting Point": "227.5 °C"
    }
}