{
    "cas_no": "20651-73-4",
    "key_name": "4-Butylbenzonitrile",
    "cn_name": "4-正丁基苯甲腈;",
    "alternate_name": "Benzonitrile, 4-butyl-;Benzonitrile, <em>p</em>-butyl-;4-Butylbenzonitrile;<em>p</em>-Cyanobutylbenzene;<em>p</em>-Butylbenzonitrile",
    "duplicated_cas_no": "",
    "SMILES": "C(CCC)C1=CC=C(C#N)C=C1",
    "meta_data": {
        "InChI": "InChI=1S/C11H13N/c1-2-3-4-10-5-7-11(9-12)8-6-10/h5-8H,2-4H2,1H3",
        "InChIKey": null,
        "Canonical SMILES": "N#CC1=CC=C(C=C1)CCCC",
        "Molecular Formula": "C<sub>11</sub>H<sub>13</sub>N",
        "Molecular Mass": "159.23",
        "Boiling Point": "154 °C @ Press: 760 Torr"
    }
}