{
    "cas_no": "3303-31-9",
    "key_name": "<span class=\"text-smallcaps\">L</smallcap>-Leucyl-<smallcap>L</span>-leucine",
    "cn_name": "H-LEU-LEU-OH;",
    "alternate_name": "<span class=\"text-smallcaps\">L</smallcap>-Leucine, <smallcap>L</span>-leucyl-;Leucine, <em>N</em>-<span class=\"text-smallcaps\">L</smallcap>-leucyl-, <smallcap>L</span>-;<span class=\"text-smallcaps\">L</smallcap>-Leucine, <em>N</em>-<smallcap>L</span>-leucyl-;Leucine, <em>N</em>-<span class=\"text-smallcaps\">L</span>-leucyl-;<span class=\"text-smallcaps\">L</smallcap>-Leucyl-<smallcap>L</span>-leucine;Leucylleucine;NSC 89185;456: PN: EP2071334 SEQID: 488 claimed protein;456: PN: WO2009077864 SEQID: 488 claimed protein;11: PN: US20090239809 SEQID: 11 claimed protein;38: PN: EP2161028 PAGE: 10 claimed protein;2: PN: CN101845080 PAGE: 2 claimed protein;<span class=\"text-smallcaps\">L</smallcap>-Leucinyl-<smallcap>L</span>-leucine;21: PN: WO2014134509 SEQID: 21 claimed sequence;2: PN: CN110655554 PAGE: 2 claimed sequence;10: PN: WO2020097235 SEQID: 239 claimed protein;86: PN: WO2021211467 SEQID: 239 claimed sequence;1: PN: WO2023212507 TABLE: 6 claimed sequence",
    "duplicated_cas_no": "",
    "SMILES": "[C@H](NC([C@H](CC(C)C)N)=O)(CC(C)C)C(O)=O",
    "meta_data": {
        "InChI": "InChI=1S/C12H24N2O3/c1-7(2)5-9(13)11(15)14-10(12(16)17)6-8(3)4/h7-10H,5-6,13H2,1-4H3,(H,14,15)(H,16,17)/t9-,10-/m0/s1",
        "InChIKey": null,
        "Canonical SMILES": "O=C(O)C(NC(=O)C(N)CC(C)C)CC(C)C",
        "Molecular Formula": "C<sub>12</sub>H<sub>24</sub>N<sub>2</sub>O<sub>3</sub>",
        "Molecular Mass": "244.33",
        "Melting Point": "270 °C"
    }
}