{
    "cas_no": "15546-43-7",
    "key_name": "<em>N</em>,<em>N</em>,<em>N</em>′,<em>N</em>′-Tetraphenylbenzidine",
    "cn_name": "N,N,N\",N\"-四苯基联苯胺;",
    "alternate_name": "[1,1′-Biphenyl]-4,4′-diamine, <em>N</em><sup>4</sup>,<em>N</em><sup>4</sup>,<em>N</em><sup>4′</sup>,<em>N</em><sup>4′</sup>-tetraphenyl-;Benzidine, <em>N</em>,<em>N</em>,<em>N</em>′,<em>N</em>′-tetraphenyl-;[1,1′-Biphenyl]-4,4′-diamine, <em>N</em>,<em>N</em>,<em>N</em>′,<em>N</em>′-tetraphenyl-;<em>N</em>,<em>N</em>,<em>N</em>′,<em>N</em>′-Tetraphenylbenzidine;<em>N</em>,<em>N</em>,<em>N</em>′,<em>N</em>′-Tetraphenyl-[1,1′-biphenyl]-4,4′-diamine;<em>N</em>,<em>N</em>,<em>N</em>′,<em>N</em>′-Tetraphenylbiphenyl-4,4′-diamine",
    "duplicated_cas_no": "",
    "SMILES": "N(C1=CC=C(C=C1)C2=CC=C(N(C3=CC=CC=C3)C4=CC=CC=C4)C=C2)(C5=CC=CC=C5)C6=CC=CC=C6",
    "meta_data": {
        "InChI": "InChI=1S/C36H28N2/c1-5-13-31(14-6-1)37(32-15-7-2-8-16-32)35-25-21-29(22-26-35)30-23-27-36(28-24-30)38(33-17-9-3-10-18-33)34-19-11-4-12-20-34/h1-28H",
        "InChIKey": null,
        "Canonical SMILES": "C=1C=CC(=CC1)N(C=2C=CC=CC2)C3=CC=C(C=C3)C=4C=CC(=CC4)N(C=5C=CC=CC5)C=6C=CC=CC6",
        "Molecular Formula": "C<sub>36</sub>H<sub>28</sub>N<sub>2</sub>",
        "Molecular Mass": "488.62",
        "Melting Point": "227 °C",
        "Density": "1.191 g/cm³ (solid)"
    }
}