{
    "cas_no": "147526-32-7",
    "key_name": "Pitavastatin calcium",
    "cn_name": "匹伐他汀钙;(+)-双{(3R,5S,6E)-7-[2-环丙基-4-(4-氟代苯基)喹啉-3-基]-3,5-二羟基-6-庚烯酸}钙盐(2:1);",
    "alternate_name": "6-Heptenoic acid, 7-[2-cyclopropyl-4-(4-fluorophenyl)-3-quinolinyl]-3,5-dihydroxy-, calcium salt (2:1), (3<em>R</em>,5<em>S</em>,6<em>E</em>)-;6-Heptenoic acid, 7-[2-cyclopropyl-4-(4-fluorophenyl)-3-quinolinyl]-3,5-dihydroxy-, calcium salt (2:1), [<em>S</em>-[<em>R</em>*,<em>S</em>*-(<em>E</em>)]]-;NK 104;NK 104 (acid);Pitavastatin hemicalcium;(<em>E</em>)-(3<em>R</em>,5<em>S</em>)-7-[2-Cyclopropyl-4-(4-fluorophenyl)quinolin-3-yl]-3,5-dihydroxyhept-6-enoic acid hemicalcium salt;Livalo;Pitavastatin calcium;Pitava 1;Pitava;Flovas;Calcium (E,3R,5S)-7-[2-cyclopropyl-4-(4-fluorophenyl)quinolin-3-yl]-3,5-dihydroxyhept-6-enoate",
    "duplicated_cas_no": "1187847-92-2;1316291-17-4",
    "SMILES": "C(=C/[C@H](C[C@H](CC(O)=O)O)O)\\C1=C(C2=C(N=C1C3CC3)C=CC=C2)C4=CC=C(F)C=C4.[Ca]",
    "meta_data": {
        "InChI": "InChI=1S/C25H24FNO4.Ca/c26-17-9-7-15(8-10-17)24-20-3-1-2-4-22(20)27-25(16-5-6-16)21(24)12-11-18(28)13-19(29)14-23(30)31;/h1-4,7-12,16,18-19,28-29H,5-6,13-14H2,(H,30,31);/b12-11+;/t18-,19-;/m1./s1",
        "InChIKey": null,
        "Canonical SMILES": "[Ca].O=C(O)CC(O)CC(O)C=CC=1C(=NC=2C=CC=CC2C1C=3C=CC(F)=CC3)C4CC4",
        "Molecular Formula": "C<sub>25</sub>H<sub>24</sub>FNO<sub>4</sub>.<sup>1</sup>/<sub>2</sub>Ca",
        "Molecular Mass": "",
        "Melting Point": "214 °C (decomp)"
    }
}