{
    "cas_no": "60398-91-6",
    "key_name": "Bufuralol hydrochloride",
    "cn_name": null,
    "alternate_name": "2-Benzofuranmethanol, α-[[(1,1-dimethylethyl)amino]methyl]-7-ethyl-, hydrochloride (1:1);2-Benzofuranmethanol, α-[[(1,1-dimethylethyl)amino]methyl]-7-ethyl-, hydrochloride, (±)-;2-Benzofuranmethanol, α-[[(1,1-dimethylethyl)amino]methyl]-7-ethyl-, hydrochloride;(±)-Bufuralol hydrochloride;Ro 3-4787 hydrochloride;Bufuralol hydrochloride;Angium",
    "duplicated_cas_no": "59652-29-8",
    "SMILES": "C(C)C1=C2C(C=C(C(CNC(C)(C)C)O)O2)=CC=C1.Cl",
    "meta_data": {
        "InChI": "InChI=1S/C16H23NO2.ClH/c1-5-11-7-6-8-12-9-14(19-15(11)12)13(18)10-17-16(2,3)4;/h6-9,13,17-18H,5,10H2,1-4H3;1H",
        "InChIKey": null,
        "Canonical SMILES": "Cl.OC(C=1OC2=C(C=CC=C2CC)C1)CNC(C)(C)C",
        "Molecular Formula": "C<sub>16</sub>H<sub>23</sub>NO<sub>2</sub>.ClH",
        "Molecular Mass": "",
        "Melting Point": "146 °C"
    }
}