{
    "cas_no": "6924-68-1",
    "key_name": "2-Pyrazinecarboxylic acid, ethyl ester",
    "cn_name": null,
    "alternate_name": "2-Pyrazinecarboxylic acid, ethyl ester;Pyrazinecarboxylic acid, ethyl ester;Pyrazinoic acid, ethyl ester;Ethyl pyrazinecarboxylate;Ethyl 2-pyrazinecarboxylate;Ethyl pyrazinoate",
    "duplicated_cas_no": "",
    "SMILES": "C(OCC)(=O)C=1C=NC=CN1",
    "meta_data": {
        "InChI": "InChI=1S/C7H8N2O2/c1-2-11-7(10)6-5-8-3-4-9-6/h3-5H,2H2,1H3",
        "InChIKey": null,
        "Canonical SMILES": "O=C(OCC)C1=NC=CN=C1",
        "Molecular Formula": "C<sub>7</sub>H<sub>8</sub>N<sub>2</sub>O<sub>2</sub>",
        "Molecular Mass": "152.15",
        "Boiling Point": "120-122 °C @ Press: 6 Torr",
        "Melting Point": "49 °C"
    }
}