{
    "cas_no": "181528-64-3",
    "key_name": "2<em>H</em>,10<em>H</em>-Furo[3,2-<em>i</em>]-2-benzopyran-10-ol, octahydro-8-methoxy-4,7-dimethyl-, 10-acetate, (3a<em>S</em>,4<em>R</em>,6a<em>S</em>,7<em>R</em>,8<em>S</em>,10<em>R</em>,10a<em>R</em>)-",
    "cn_name": null,
    "alternate_name": "2<em>H</em>,10<em>H</em>-Furo[3,2-<em>i</em>]-2-benzopyran-10-ol, octahydro-8-methoxy-4,7-dimethyl-, 10-acetate, (3a<em>S</em>,4<em>R</em>,6a<em>S</em>,7<em>R</em>,8<em>S</em>,10<em>R</em>,10a<em>R</em>)-;2<em>H</em>,10<em>H</em>-Furo[3,2-<em>i</em>][2]benzopyran-10-ol, octahydro-8-methoxy-4,7-dimethyl-, acetate, [3a<em>S</em>-(3aα,4α,6aα,7β,8β,10α,10a<em>S</em>*)]-;2<em>H</em>,10<em>H</em>-Furo[3,2-<em>i</em>][2]benzopyran-10-ol, octahydro-8-methoxy-4,7-dimethyl-, acetate, (3a<em>S</em>,4<em>R</em>,6a<em>S</em>,7<em>R</em>,8<em>S</em>,10<em>R</em>,10a<em>R</em>)-;Artemether tetrahydrofuran acetate;β-Artemetherfurano acetate",
    "duplicated_cas_no": "",
    "SMILES": "O(C(C)=O)[C@@H]1[C@]23[C@]([C@@H](C)[C@@H](OC)O1)(CC[C@@H](C)[C@@]2(CCO3)[H])[H]",
    "meta_data": {
        "InChI": "InChI=1S/C16H26O5/c1-9-5-6-13-10(2)14(18-4)21-15(20-11(3)17)16(13)12(9)7-8-19-16/h9-10,12-15H,5-8H2,1-4H3/t9-,10-,12+,13+,14+,15+,16-/m1/s1",
        "InChIKey": null,
        "Canonical SMILES": "O=C(OC1OC(OC)C(C)C2CCC(C)C3CCOC132)C",
        "Molecular Formula": "C<sub>16</sub>H<sub>26</sub>O<sub>5</sub>",
        "Molecular Mass": "298.37",
        "Melting Point": "93-94 °C"
    }
}