{
    "cas_no": "762-75-4",
    "key_name": "<em>tert</em>-Butyl formate",
    "cn_name": "甲酸叔丁酯;",
    "alternate_name": "Formic acid, 1,1-dimethylethyl ester;Formic acid, <em>tert</em>-butyl ester;<em>tert</em>-Butyl alcohol, formate;<em>tert</em>-Butyl formate;2-Methyl-2-propyl formate",
    "duplicated_cas_no": "",
    "SMILES": "O(C(C)(C)C)C=O",
    "meta_data": {
        "InChI": "InChI=1S/C5H10O2/c1-5(2,3)7-4-6/h4H,1-3H3",
        "InChIKey": null,
        "Canonical SMILES": "O=COC(C)(C)C",
        "Molecular Formula": "C<sub>5</sub>H<sub>10</sub>O<sub>2</sub>",
        "Molecular Mass": "102.13",
        "Boiling Point": "75-76 °C"
    }
}