{
    "cas_no": "1032350-06-3",
    "key_name": "<em>tert</em>-Butyl [1-(4-bromophenyl)cyclobutyl]carbamate",
    "cn_name": null,
    "alternate_name": "Carbamic acid, <em>N</em>-[1-(4-bromophenyl)cyclobutyl]-, 1,1-dimethylethyl ester;<em>tert</em>-Butyl [1-(4-bromophenyl)cyclobutyl]carbamate",
    "duplicated_cas_no": "",
    "SMILES": "N(C(OC(C)(C)C)=O)C1(CCC1)C2=CC=C(Br)C=C2",
    "meta_data": {
        "InChI": "InChI=1S/C15H20BrNO2/c1-14(2,3)19-13(18)17-15(9-4-10-15)11-5-7-12(16)8-6-11/h5-8H,4,9-10H2,1-3H3,(H,17,18)",
        "InChIKey": null,
        "Canonical SMILES": "O=C(OC(C)(C)C)NC1(C2=CC=C(Br)C=C2)CCC1",
        "Molecular Formula": "C<sub>15</sub>H<sub>20</sub>BrNO<sub>2</sub>",
        "Molecular Mass": "326.23",
        "Melting Point": "120.2-121.2 °C"
    }
}