{
    "cas_no": "3939-13-7",
    "key_name": "2-Fluoro-3-pyridinecarbonitrile",
    "cn_name": "3-氰基-2-氟吡啶;",
    "alternate_name": "3-Pyridinecarbonitrile, 2-fluoro-;Nicotinonitrile, 2-fluoro-;2-Fluoro-3-pyridinecarbonitrile;2-Fluoronicotinonitrile;3-Cyano-2-fluoropyridine",
    "duplicated_cas_no": "",
    "SMILES": "C(#N)C1=C(F)N=CC=C1",
    "meta_data": {
        "InChI": "InChI=1S/C6H3FN2/c7-6-5(4-8)2-1-3-9-6/h1-3H",
        "InChIKey": null,
        "Canonical SMILES": "N#CC1=CC=CN=C1F",
        "Molecular Formula": "C<sub>6</sub>H<sub>3</sub>FN<sub>2</sub>",
        "Molecular Mass": "122.10",
        "Melting Point": "30 °C"
    }
}