{
    "cas_no": "937-30-4",
    "key_name": "4′-Ethylacetophenone",
    "cn_name": "对乙基苯乙酮;",
    "alternate_name": "Ethanone, 1-(4-ethylphenyl)-;Acetophenone, 4′-ethyl-;Acetophenone, <em>p</em>-ethyl-;1-(4-Ethylphenyl)ethanone;<em>p</em>-Ethylacetophenone;<em>p</em>-Acetylethylbenzene;4′-Ethylacetophenone;<em>p</em>-Ethylphenyl methyl ketone;1-Acetyl-4-ethylbenzene;NSC 6768;<em>p</em>-Ethyl-hypnone;1-(4-Ethylphenyl)ethan-1-one",
    "duplicated_cas_no": "",
    "SMILES": "C(C)(=O)C1=CC=C(CC)C=C1",
    "meta_data": {
        "InChI": "InChI=1S/C10H12O/c1-3-9-4-6-10(7-5-9)8(2)11/h4-7H,3H2,1-2H3",
        "InChIKey": null,
        "Canonical SMILES": "O=C(C1=CC=C(C=C1)CC)C",
        "Molecular Formula": "C<sub>10</sub>H<sub>12</sub>O",
        "Molecular Mass": "148.20",
        "Boiling Point": "114 °C @ Press: 10 Torr",
        "Melting Point": "-20.6 °C",
        "Density": "0.99272 g/cm³ @ Temp: 420 °C"
    }
}