{
    "cas_no": "53411-33-9",
    "key_name": "1-(2,4,6-Trichlorophenyl)-3-(2-chloro-5-aminoanilino)-5-pyrazolinone",
    "cn_name": "1-(2,4,6-三氯苯基)-3-(5-氨基-2-氯苯胺基)-5-吡唑酮;",
    "alternate_name": "3<em>H</em>-Pyrazol-3-one, 5-[(5-amino-2-chlorophenyl)amino]-2,4-dihydro-2-(2,4,6-trichlorophenyl)-;5-[(5-Amino-2-chlorophenyl)amino]-2,4-dihydro-2-(2,4,6-trichlorophenyl)-3<em>H</em>-pyrazol-3-one;1-(2,4,6-Trichlorophenyl)-3-(2-chloro-5-aminoanilino)-5-pyrazolone;1-(2,4,6-Trichlorophenyl)-3-(2-chloro-5-aminoanilino)-5-pyrazolinone;3-(5-Amino-2-chloroanilino)-1-(2,4,6-trichlorophenyl)-5-pyrazolone;1-(2,4,6-Trichlorophenyl)-3-(5-amino-2-chloroanilino)-5-pyrazolone",
    "duplicated_cas_no": "",
    "SMILES": "O=C1N(N=C(NC2=C(Cl)C=CC(N)=C2)C1)C3=C(Cl)C=C(Cl)C=C3Cl",
    "meta_data": {
        "InChI": "InChI=1S/C15H10Cl4N4O/c16-7-3-10(18)15(11(19)4-7)23-14(24)6-13(22-23)21-12-5-8(20)1-2-9(12)17/h1-5H,6,20H2,(H,21,22)",
        "InChIKey": null,
        "Canonical SMILES": "O=C1N(N=C(NC2=CC(N)=CC=C2Cl)C1)C=3C(Cl)=CC(Cl)=CC3Cl",
        "Molecular Formula": "C<sub>15</sub>H<sub>10</sub>Cl<sub>4</sub>N<sub>4</sub>O",
        "Molecular Mass": "404.08",
        "Melting Point": "237-238 °C"
    }
}