{
    "cas_no": "10419-77-9",
    "key_name": "Diethyl <em>P</em>-(iodomethyl)phosphonate",
    "cn_name": "碘甲基膦酸二乙酯;碘甲基磷酸二乙酯;",
    "alternate_name": "Phosphonic acid, <em>P</em>-(iodomethyl)-, diethyl ester;Phosphonic acid, (iodomethyl)-, diethyl ester;Diethyl <em>P</em>-(iodomethyl)phosphonate;Diethyl (iodomethyl)phosphonate;Diethyl iodomethanephosphonate;1-[Ethoxy(iodomethyl)phosphoryl]oxyethane",
    "duplicated_cas_no": "",
    "SMILES": "P(OCC)(OCC)(CI)=O",
    "meta_data": {
        "InChI": "InChI=1S/C5H12IO3P/c1-3-8-10(7,5-6)9-4-2/h3-5H2,1-2H3",
        "InChIKey": null,
        "Canonical SMILES": "O=P(OCC)(OCC)CI",
        "Molecular Formula": "C<sub>5</sub>H<sub>12</sub>IO<sub>3</sub>P",
        "Molecular Mass": "278.03",
        "Boiling Point": "119-120 °C @ Press: 5 Torr",
        "Density": "1.6606 g/cm³ @ Temp: 19 °C"
    }
}