{
    "cas_no": "540-10-3",
    "key_name": "Cetyl palmitate",
    "cn_name": "十六烷棕榈酸;",
    "alternate_name": "Hexadecanoic acid, hexadecyl ester;Palmitic acid, hexadecyl ester;Palmitic acid, cetyl ester;1-Hexadecanol, palmitate;Cetin;Cetyl palmitate;Hexadecyl palmitate;<em>n</em>-Hexadecyl hexadecanoate;Palmityl palmitate;Hexadecyl hexadecanoate;Standamul 1616;Starfol Wax CG;<em>n</em>-Hexadecyl <em>n</em>-hexadecanoate;Precifac;Cutina CP;Stepan 653;Stepantex 653;N-SP;Kessco 653;Palmitic acid palmityl ester;Cutina CPA;Estol 3694;Nikkol N-SP;Precifac ATO;S 653;Radia 7500;Nikkol N-SPV;Cutina CP-PH;Kollicream CP 15;Amleps PC;Monecol PC;Amreps PC;Crodamol CP;Cetaceum artificiale;Cutina CP-JP",
    "duplicated_cas_no": "",
    "SMILES": "C(OCCCCCCCCCCCCCCCC)(CCCCCCCCCCCCCCC)=O",
    "meta_data": {
        "InChI": "InChI=1S/C32H64O2/c1-3-5-7-9-11-13-15-17-19-21-23-25-27-29-31-34-32(33)30-28-26-24-22-20-18-16-14-12-10-8-6-4-2/h3-31H2,1-2H3",
        "InChIKey": null,
        "Canonical SMILES": "O=C(OCCCCCCCCCCCCCCCC)CCCCCCCCCCCCCCC",
        "Molecular Formula": "C<sub>32</sub>H<sub>64</sub>O<sub>2</sub>",
        "Molecular Mass": "480.85",
        "Boiling Point": "451 °C @ Press: 760 Torr",
        "Melting Point": "54 °C"
    }
}