{
    "cas_no": "7601-90-3",
    "key_name": "Perchloric acid",
    "cn_name": "高氯酸;高氯酸；过氯酸;",
    "alternate_name": "Perchloric acid;Perchloric acid (HClO<sub>4</sub>)",
    "duplicated_cas_no": "47999-51-9;90149-16-9;92785-38-1;95912-44-0;95998-58-6;101200-37-7;102278-63-7;106644-01-3;111341-24-3;119630-46-5;139339-89-2;143171-41-9;153389-31-2;200863-18-9;766444-83-1;845752-15-0;957554-95-9;1246816-77-2;1794766-48-5;2102523-83-9;2184990-61-0;2468891-42-9;2726304-17-0",
    "SMILES": "Cl(=O)(=O)(=O)O",
    "meta_data": {
        "InChI": "InChI=1S/ClHO4/c2-1(3,4)5/h(H,2,3,4,5)",
        "InChIKey": null,
        "Canonical SMILES": "O=Cl(=O)(=O)O",
        "Molecular Formula": "ClHO<sub>4</sub>",
        "Molecular Mass": "100.46",
        "Boiling Point": "19 °C @ Press: 11 Torr",
        "Melting Point": "-112 °C",
        "Density": "1.768 g/cm³ @ Temp: 22 °C"
    }
}