{
    "cas_no": "6123-63-3",
    "key_name": "1-(5-Methyl-1-phenyl-1<em>H</em>-pyrazol-4-yl)ethanone",
    "cn_name": "4-乙酰-5-甲基-1-苯基吡唑;",
    "alternate_name": "Ethanone, 1-(5-methyl-1-phenyl-1<em>H</em>-pyrazol-4-yl)-;Ketone, methyl 5-methyl-1-phenylpyrazol-4-yl;1-(5-Methyl-1-phenyl-1<em>H</em>-pyrazol-4-yl)ethanone;1-Phenyl-4-acetyl-5-methylpyrazole;4-Acetyl-5-methyl-1-phenylpyrazole;NSC 140728;1-(5-Methyl-1-phenylpyrazol-4-yl)ethanone;1-(5-Methyl-1-phenyl-1<em>H</em>-pyrazol-4-yl)ethan-1-one",
    "duplicated_cas_no": "",
    "SMILES": "CC=1N(N=CC1C(C)=O)C2=CC=CC=C2",
    "meta_data": {
        "InChI": "InChI=1S/C12H12N2O/c1-9-12(10(2)15)8-13-14(9)11-6-4-3-5-7-11/h3-8H,1-2H3",
        "InChIKey": null,
        "Canonical SMILES": "O=C(C=1C=NN(C=2C=CC=CC2)C1C)C",
        "Molecular Formula": "C<sub>12</sub>H<sub>12</sub>N<sub>2</sub>O",
        "Molecular Mass": "200.24",
        "Melting Point": "107-108 °C"
    }
}