{
    "cas_no": "19199-82-7",
    "key_name": "Acetic acid, 2-bromo-, 4-nitrophenyl ester",
    "cn_name": null,
    "alternate_name": "Acetic acid, 2-bromo-, 4-nitrophenyl ester;Acetic acid, bromo-, <em>p</em>-nitrophenyl ester;Acetic acid, bromo-, 4-nitrophenyl ester;4-Nitrophenyl bromoacetate;<em>p</em>-Nitrophenyl bromoacetate;NSC 341921;4-Nitrophenyl 2-bromoacetate",
    "duplicated_cas_no": "",
    "SMILES": "O(C(CBr)=O)C1=CC=C(N(=O)=O)C=C1",
    "meta_data": {
        "InChI": "InChI=1S/C8H6BrNO4/c9-5-8(11)14-7-3-1-6(2-4-7)10(12)13/h1-4H,5H2",
        "InChIKey": null,
        "Canonical SMILES": "O=C(OC1=CC=C(C=C1)N(=O)=O)CBr",
        "Molecular Formula": "C<sub>8</sub>H<sub>6</sub>BrNO<sub>4</sub>",
        "Molecular Mass": "260.04",
        "Melting Point": "72-75 °C (decomp)"
    }
}