{
    "cas_no": "556-48-9",
    "key_name": "1,4-Cyclohexanediol",
    "cn_name": "1,4-环己二醇;",
    "alternate_name": "1,4-Cyclohexanediol;Quinitol;1,4-Dihydroxycyclohexane;NSC 5651",
    "duplicated_cas_no": "",
    "SMILES": "OC1CCC(O)CC1",
    "meta_data": {
        "InChI": "InChI=1S/C6H12O2/c7-5-1-2-6(8)4-3-5/h5-8H,1-4H2",
        "InChIKey": null,
        "Canonical SMILES": "OC1CCC(O)CC1",
        "Molecular Formula": "C<sub>6</sub>H<sub>12</sub>O<sub>2</sub>",
        "Molecular Mass": "116.16",
        "Boiling Point": "247-248 °C",
        "Melting Point": "95 °C"
    }
}