{
    "cas_no": "5418-93-9",
    "key_name": "2-Amino-5-chlorobenzimidazole",
    "cn_name": null,
    "alternate_name": "1<em>H</em>-Benzimidazol-2-amine, 6-chloro-;Benzimidazole, 2-amino-5-chloro-;1<em>H</em>-Benzimidazol-2-amine, 5-chloro-;Benzimidazole, 2-amino-5(<em>or</em> 6)-chloro-;6-Chloro-1<em>H</em>-benzimidazol-2-amine;2-Amino-5-chlorobenzimidazole;2-Amino-6-chlorobenzimidazole;5-Chloro-2-benzimidazolamine;5-Chloro-2-aminobenzimidazole;2-Amino-5-chloro-1<em>H</em>-benzimidazole;NSC 10545;5-Chlorobenzoimidazol-2-ylamine;5-Chloro-1<em>H</em>-benzimidazol-2-amine;6-Chloro-1<em>H</em>-benzo[<em>d</em>]imidazol-2-amine",
    "duplicated_cas_no": "",
    "SMILES": "NC=1NC=2C(N1)=CC(Cl)=CC2",
    "meta_data": {
        "InChI": "InChI=1S/C7H6ClN3/c8-4-1-2-5-6(3-4)11-7(9)10-5/h1-3H,(H3,9,10,11)",
        "InChIKey": null,
        "Canonical SMILES": "ClC=1C=CC=2NC(=NC2C1)N",
        "Molecular Formula": "C<sub>7</sub>H<sub>6</sub>ClN<sub>3</sub>",
        "Molecular Mass": "167.60",
        "Melting Point": "167-168 °C"
    }
}