{
    "cas_no": "29104-30-1",
    "key_name": "Benzoximate",
    "cn_name": "苯螨特;",
    "alternate_name": "Benzoic acid, anhydride with 3-chloro-<em>N</em>-ethoxy-2,6-dimethoxybenzenecarboximidic acid;Benzoic acid, anhydride with 3-chloro-<em>N</em>-ethoxy-2,6-dimethoxybenzimidic acid;Benzimidic acid, 3-chloro-<em>N</em>-ethoxy-2,6-dimethoxy-, anhydride with benzoic acid;Ethyl O-benzoyl-3-chloro-2,6-dimethoxybenzohydroxamate;Benzomate;Citrazon;Benzoximate;Aazomate",
    "duplicated_cas_no": "",
    "SMILES": "C(OC(=O)C1=CC=CC=C1)(=NOCC)C2=C(OC)C(Cl)=CC=C2OC",
    "meta_data": {
        "InChI": "InChI=1S/C18H18ClNO5/c1-4-24-20-17(25-18(21)12-8-6-5-7-9-12)15-14(22-2)11-10-13(19)16(15)23-3/h5-11H,4H2,1-3H3",
        "InChIKey": null,
        "Canonical SMILES": "O=C(OC(=NOCC)C=1C(OC)=CC=C(Cl)C1OC)C=2C=CC=CC2",
        "Molecular Formula": "C<sub>18</sub>H<sub>18</sub>ClNO<sub>5</sub>",
        "Molecular Mass": "363.79",
        "Melting Point": "73 °C"
    }
}