{
    "cas_no": "71083-06-2",
    "key_name": "Ethyl 8-fluoro-4-oxo-1,4-dihydroquinoline-3-carboxylate",
    "cn_name": null,
    "alternate_name": "3-Quinolinecarboxylic acid, 8-fluoro-1,4-dihydro-4-oxo-, ethyl ester;Ethyl 8-fluoro-4-oxo-1,4-dihydroquinoline-3-carboxylate",
    "duplicated_cas_no": "",
    "SMILES": "O=C1C=2C(NC=C1C(OCC)=O)=C(F)C=CC2",
    "meta_data": {
        "InChI": "InChI=1S/C12H10FNO3/c1-2-17-12(16)8-6-14-10-7(11(8)15)4-3-5-9(10)13/h3-6H,2H2,1H3,(H,14,15)",
        "InChIKey": null,
        "Canonical SMILES": "O=C(OCC)C1=CNC=2C(F)=CC=CC2C1=O",
        "Molecular Formula": "C<sub>12</sub>H<sub>10</sub>FNO<sub>3</sub>",
        "Molecular Mass": "235.21",
        "Melting Point": "178 °C"
    }
}