{
    "cas_no": "7101-31-7",
    "key_name": "Dimethyl diselenide",
    "cn_name": "二甲基二硒醚;",
    "alternate_name": "Diselenide, dimethyl;Methyl diselenide;Dimethyl diselenide;(Methyldiselanyl)methane",
    "duplicated_cas_no": "",
    "SMILES": "[Se]([Se]C)C",
    "meta_data": {
        "InChI": "InChI=1S/C2H6Se2/c1-3-4-2/h1-2H3",
        "InChIKey": null,
        "Canonical SMILES": "[Se]([Se]C)C",
        "Molecular Formula": "C<sub>2</sub>H<sub>6</sub>Se<sub>2</sub>",
        "Molecular Mass": "187.99",
        "Boiling Point": "156 °C",
        "Density": "2.009 g/cm³ @ Temp: 20 °C"
    }
}