{
    "cas_no": "3452-09-3",
    "key_name": "1-Nonyne",
    "cn_name": "1-壬炔;",
    "alternate_name": "1-Nonyne;Heptylacetylene;<em>n</em>-Heptylacetylene",
    "duplicated_cas_no": "",
    "SMILES": "C(CCCC)CCC#C",
    "meta_data": {
        "InChI": "InChI=1S/C9H16/c1-3-5-7-9-8-6-4-2/h1H,4-9H2,2H3",
        "InChIKey": null,
        "Canonical SMILES": "C#CCCCCCCC",
        "Molecular Formula": "C<sub>9</sub>H<sub>16</sub>",
        "Molecular Mass": "124.22",
        "Boiling Point": "150.8 °C",
        "Melting Point": "-50 °C",
        "Density": "0.7924 g/cm³ @ Temp: 13 °C"
    }
}