{
    "cas_no": "109-92-2",
    "key_name": "Ethyl vinyl ether",
    "cn_name": "乙烯基乙醚;",
    "alternate_name": "Ethene, ethoxy-;Ether, ethyl vinyl;Ethoxyethene;Ethyl vinyl ether;EVE;Vinamar;Vinyl ethyl ether;1-Ethoxyethene;Ethoxyethylene;1-Ethoxyethylene;Ethyloxyethene;NSC 8405;[(Vinyl)oxy]ethane;[(Ethenyl)oxy]ethane;1-(Vinyloxy)ethane;A 15695-0F;A 15691-0F",
    "duplicated_cas_no": "",
    "SMILES": "O(CC)C=C",
    "meta_data": {
        "InChI": "InChI=1S/C4H8O/c1-3-5-4-2/h3H,1,4H2,2H3",
        "InChIKey": null,
        "Canonical SMILES": "O(C=C)CC",
        "Molecular Formula": "C<sub>4</sub>H<sub>8</sub>O",
        "Molecular Mass": "72.11",
        "Boiling Point": "36 °C",
        "Melting Point": "-115 °C",
        "Density": "0.8 g/cm³"
    }
}