{
    "cas_no": "7148-50-7",
    "key_name": "5-Methyl-5-propyl-1,3-dioxan-2-one",
    "cn_name": "5-甲基-5-丙基-1,3-二恶烷-2-酮;",
    "alternate_name": "1,3-Dioxan-2-one, 5-methyl-5-propyl-;Carbonic acid, cyclic 2-methyl-2-propyltrimethylene ester;1,3-Propanediol, 2-methyl-2-propyl-, cyclic carbonate;5-Methyl-5-propyl-1,3-dioxan-2-one;Carbonic acid, 2-methyl-2-propyltrimethylene ester;NSC 65885",
    "duplicated_cas_no": "",
    "SMILES": "C(CC)C1(C)COC(=O)OC1",
    "meta_data": {
        "InChI": "InChI=1S/C8H14O3/c1-3-4-8(2)5-10-7(9)11-6-8/h3-6H2,1-2H3",
        "InChIKey": null,
        "Canonical SMILES": "O=C1OCC(C)(CO1)CCC",
        "Molecular Formula": "C<sub>8</sub>H<sub>14</sub>O<sub>3</sub>",
        "Molecular Mass": "158.20",
        "Boiling Point": "125-130 °C @ Press: 0.1 Torr"
    }
}