{
    "cas_no": "3555-47-3",
    "key_name": "Tetrakis(trimethylsiloxy)silane",
    "cn_name": "四(三甲硅烷氧基)硅;1,1,1,5,5,5-六甲基-3,3-双[(三甲硅基)氧基]-三硅氧烷;",
    "alternate_name": "Trisiloxane, 1,1,1,5,5,5-hexamethyl-3,3-bis[(trimethylsilyl)oxy]-;Trisiloxane, 1,1,1,5,5,5-hexamethyl-3,3-bis(trimethylsiloxy)-;Silicic acid, tetrakis(trimethylsilyl) ester;1,1,1,5,5,5-Hexamethyl-3,3-bis[(trimethylsilyl)oxy]trisiloxane;Silanol, trimethyl-, tetraester with silicic acid (H<sub>4</sub>SiO<sub>4</sub>);Silicic acid (H<sub>4</sub>SiO<sub>4</sub>), tetrakis(trimethylsilyl) ester;Tetrakis(trimethylsiloxy)silane;Tetrakis(trimethylsilyl) silicate",
    "duplicated_cas_no": "",
    "SMILES": "[Si](O[Si](C)(C)C)(O[Si](C)(C)C)(O[Si](C)(C)C)O[Si](C)(C)C",
    "meta_data": {
        "InChI": "InChI=1S/C12H36O4Si5/c1-17(2,3)13-21(14-18(4,5)6,15-19(7,8)9)16-20(10,11)12/h1-12H3",
        "InChIKey": null,
        "Canonical SMILES": "O([Si](O[Si](C)(C)C)(O[Si](C)(C)C)O[Si](C)(C)C)[Si](C)(C)C",
        "Molecular Formula": "C<sub>12</sub>H<sub>36</sub>O<sub>4</sub>Si<sub>5</sub>",
        "Molecular Mass": "384.84",
        "Boiling Point": "103-106 °C @ Press: 2 Torr",
        "Melting Point": "-60 °C",
        "Density": "0.868 g/cm³"
    }
}