{
    "cas_no": "881674-56-2",
    "key_name": "5-(2-Fluorophenyl)-1<em>H</em>-pyrrole-3-carboxaldehyde",
    "cn_name": null,
    "alternate_name": "1<em>H</em>-Pyrrole-3-carboxaldehyde, 5-(2-fluorophenyl)-;5-(2-Fluorophenyl)-1<em>H</em>-pyrrole-3-carboxaldehyde",
    "duplicated_cas_no": "",
    "SMILES": "FC1=C(C2=CC(C=O)=CN2)C=CC=C1",
    "meta_data": {
        "InChI": "InChI=1S/C11H8FNO/c12-10-4-2-1-3-9(10)11-5-8(7-14)6-13-11/h1-7,13H",
        "InChIKey": null,
        "Canonical SMILES": "O=CC1=CNC(=C1)C=2C=CC=CC2F",
        "Molecular Formula": "C<sub>11</sub>H<sub>8</sub>FNO",
        "Molecular Mass": "189.19",
        "Melting Point": "130-131 °C"
    }
}