{
    "cas_no": "131-54-4",
    "key_name": "2,2′-Dihydroxy-4,4′-dimethoxybenzophenone",
    "cn_name": "2,2\"-二羟基-4,4\"-二甲氧基二苯甲酮;",
    "alternate_name": "Methanone, bis(2-hydroxy-4-methoxyphenyl)-;Benzophenone, 2,2′-dihydroxy-4,4′-dimethoxy-;Bis(2-hydroxy-4-methoxyphenyl)methanone;2,2′-Dihydroxy-4,4′-dimethoxybenzophenone;Uvinul D 49;Cyasorb UV 12;Benzophenone 6;4,4′-Dimethoxy-2,2′-dihydroxybenzophenone;Uvinul 3049;Seesorb 107;NSC 40149;UV 49;2-(2-Hydroxy-4-methoxybenzoyl)-5-methoxyphenol;BP 6;BP 6 (UV absorber);Dainsorb P 7;Chiguard BP-6;Chemsorb BP 6",
    "duplicated_cas_no": "862891-45-0",
    "SMILES": "C(=O)(C1=C(O)C=C(OC)C=C1)C2=C(O)C=C(OC)C=C2",
    "meta_data": {
        "InChI": "InChI=1S/C15H14O5/c1-19-9-3-5-11(13(16)7-9)15(18)12-6-4-10(20-2)8-14(12)17/h3-8,16-17H,1-2H3",
        "InChIKey": null,
        "Canonical SMILES": "O=C(C1=CC=C(OC)C=C1O)C2=CC=C(OC)C=C2O",
        "Molecular Formula": "C<sub>15</sub>H<sub>14</sub>O<sub>5</sub>",
        "Molecular Mass": "274.27",
        "Melting Point": "139.5 °C"
    }
}