{
    "cas_no": "927-67-3",
    "key_name": "<em>N</em>-Propylthiourea",
    "cn_name": "正丙基硫脲;丙硫脲;",
    "alternate_name": "Thiourea, <em>N</em>-propyl-;Urea, 1-propyl-2-thio-;Thiourea, propyl-;<em>N</em>-Propylthiourea;Propylthiourea;1-Propyl-2-thiourea",
    "duplicated_cas_no": "",
    "SMILES": "N(C(N)=S)CCC",
    "meta_data": {
        "InChI": "InChI=1S/C4H10N2S/c1-2-3-6-4(5)7/h2-3H2,1H3,(H3,5,6,7)",
        "InChIKey": null,
        "Canonical SMILES": "S=C(N)NCCC",
        "Molecular Formula": "C<sub>4</sub>H<sub>10</sub>N<sub>2</sub>S",
        "Molecular Mass": "118.20",
        "Melting Point": "109 °C"
    }
}