{
    "cas_no": "5579-84-0",
    "key_name": "Betahistine dihydrochloride",
    "cn_name": "盐酸倍他司汀;N-甲基-2-吡啶乙胺二盐酸盐;",
    "alternate_name": "2-Pyridineethanamine, <em>N</em>-methyl-, hydrochloride (1:2);Pyridine, 2-[2-(methylamino)ethyl]-, dihydrochloride;2-Pyridineethanamine, <em>N</em>-methyl-, dihydrochloride;PT 9;Betahistine hydrochloride;2-[2-(Methylamino)ethyl]pyridine dihydrochloride;Serc;Betahistine dihydrochloride;Sinmenier;Betaserc;Vasomotal",
    "duplicated_cas_no": "",
    "SMILES": "C(CNC)C1=CC=CC=N1.Cl",
    "meta_data": {
        "InChI": "InChI=1S/C8H12N2.2ClH/c1-9-7-5-8-4-2-3-6-10-8;;/h2-4,6,9H,5,7H2,1H3;2*1H",
        "InChIKey": null,
        "Canonical SMILES": "Cl.N=1C=CC=CC1CCNC",
        "Molecular Formula": "C<sub>8</sub>H<sub>12</sub>N<sub>2</sub>.2ClH",
        "Molecular Mass": "",
        "Melting Point": "148-149 °C"
    }
}