{
    "cas_no": "565-75-3",
    "key_name": "2,3,4-Trimethylpentane",
    "cn_name": "2,3,4-三甲基戊烷;",
    "alternate_name": "Pentane, 2,3,4-trimethyl-;2,3,4-Trimethylpentane;1,1-Diisopropylethane;NSC 24846",
    "duplicated_cas_no": "",
    "SMILES": "C(C(C)C)(C(C)C)C",
    "meta_data": {
        "InChI": "InChI=1S/C8H18/c1-6(2)8(5)7(3)4/h6-8H,1-5H3",
        "InChIKey": null,
        "Canonical SMILES": "CC(C)C(C)C(C)C",
        "Molecular Formula": "C<sub>8</sub>H<sub>18</sub>",
        "Molecular Mass": "114.23",
        "Boiling Point": "113.5 °C",
        "Melting Point": "-109.2 °C",
        "Density": "0.7179 g/cm³ @ Temp: 20 °C"
    }
}