{
    "cas_no": "423-55-2",
    "key_name": "Perfluorooctyl bromide",
    "cn_name": "全氟溴辛烷;全氟溴烷;全氟辛基溴;",
    "alternate_name": "Octane, 1-bromo-1,1,2,2,3,3,4,4,5,5,6,6,7,7,8,8,8-heptadecafluoro-;Octane, 1-bromoheptadecafluoro-;1-Bromo-1,1,2,2,3,3,4,4,5,5,6,6,7,7,8,8,8-heptadecafluorooctane;Perfluoroctyl bromide;1-Bromoperfluorooctane;Perfluorooctyl bromide;Imagent;PFOB;Perflubron;Imagent BP;Oxygent;Oxygent CA;<em>n</em>-Perfluorooctyl bromide;1-Bromoheptadecafluorooctane;Oxygent HT;Foralkyl Br 8;AF 0104;AFO 150;FO 6167",
    "duplicated_cas_no": "121762-73-0;159074-78-9;1201928-38-2",
    "SMILES": "C(C(C(C(C(F)(F)F)(F)F)(F)F)(F)F)(C(C(C(Br)(F)F)(F)F)(F)F)(F)F",
    "meta_data": {
        "InChI": "InChI=1S/C8BrF17/c9-7(22,23)5(18,19)3(14,15)1(10,11)2(12,13)4(16,17)6(20,21)8(24,25)26",
        "InChIKey": null,
        "Canonical SMILES": "FC(F)(F)C(F)(F)C(F)(F)C(F)(F)C(F)(F)C(F)(F)C(F)(F)C(F)(F)Br",
        "Molecular Formula": "C<sub>8</sub>BrF<sub>17</sub>",
        "Molecular Mass": "498.96",
        "Boiling Point": "141 °C",
        "Melting Point": "&lt;25 °C",
        "Density": "1.93 g/cm³"
    }
}