{
    "cas_no": "3333-15-1",
    "key_name": "2,3-Diphenylpropanoic acid",
    "cn_name": "2,3-二苯基丙酸;",
    "alternate_name": "Benzenepropanoic acid, α-phenyl-;Propionic acid, 2,3-diphenyl-;α-Phenylbenzenepropanoic acid;α-Phenylhydrocinnamic acid;Propanoic acid, 2,3-diphenyl-;Benzeneacetic acid, α-(phenylmethyl)-;2,3-Diphenylpropanoic acid;2,3-Diphenylpropionic acid;α-Benzylbenzeneacetic acid;NSC 11135;NSC 49",
    "duplicated_cas_no": "94942-89-9",
    "SMILES": "C(CC1=CC=CC=C1)(C(O)=O)C2=CC=CC=C2",
    "meta_data": {
        "InChI": "InChI=1S/C15H14O2/c16-15(17)14(13-9-5-2-6-10-13)11-12-7-3-1-4-8-12/h1-10,14H,11H2,(H,16,17)",
        "InChIKey": null,
        "Canonical SMILES": "O=C(O)C(C=1C=CC=CC1)CC=2C=CC=CC2",
        "Molecular Formula": "C<sub>15</sub>H<sub>14</sub>O<sub>2</sub>",
        "Molecular Mass": "226.27",
        "Melting Point": "88-89.5 °C"
    }
}