{
    "cas_no": "615-74-7",
    "key_name": "2-Chloro-5-methylphenol",
    "cn_name": "2-氯-5-甲酚;2-氯-5-甲基苯酚;",
    "alternate_name": "Phenol, 2-chloro-5-methyl-;<em>m</em>-Cresol, 6-chloro-;2-Chloro-5-methylphenol;6-Chloro-<em>m</em>-cresol;3-Methyl-6-chlorophenol;5-Methyl-2-chlorophenol;6-Chloro-3-methylphenol;4-Chloro-3-hydroxytoluene;1-Chloro-2-hydroxy-4-methylbenzene",
    "duplicated_cas_no": "",
    "SMILES": "OC1=C(Cl)C=CC(C)=C1",
    "meta_data": {
        "InChI": "InChI=1S/C7H7ClO/c1-5-2-3-6(8)7(9)4-5/h2-4,9H,1H3",
        "InChIKey": null,
        "Canonical SMILES": "ClC1=CC=C(C=C1O)C",
        "Molecular Formula": "C<sub>7</sub>H<sub>7</sub>ClO",
        "Molecular Mass": "142.58",
        "Boiling Point": "196 °C",
        "Melting Point": "45.5 °C",
        "Density": "1.215 g/cm³"
    }
}