{
    "cas_no": "6297-03-6",
    "key_name": "Octadecyl ether",
    "cn_name": "十八醚;",
    "alternate_name": "Octadecane, 1,1′-oxybis-;Octadecyl ether;1,1′-Oxybis[octadecane];Dioctadecyl ether;Distearyl ether;NSC 17520;Cosmacol SE;Nacol 18;Di-<em>n</em>-octadecyl ether;1-Octadecoxyoctadecane",
    "duplicated_cas_no": "1166297-32-0",
    "SMILES": "O(CCCCCCCCCCCCCCCCCC)CCCCCCCCCCCCCCCCCC",
    "meta_data": {
        "InChI": "InChI=1S/C36H74O/c1-3-5-7-9-11-13-15-17-19-21-23-25-27-29-31-33-35-37-36-34-32-30-28-26-24-22-20-18-16-14-12-10-8-6-4-2/h3-36H2,1-2H3",
        "InChIKey": null,
        "Canonical SMILES": "O(CCCCCCCCCCCCCCCCCC)CCCCCCCCCCCCCCCCCC",
        "Molecular Formula": "C<sub>36</sub>H<sub>74</sub>O",
        "Molecular Mass": "522.97",
        "Melting Point": "59-60 °C",
        "Density": "0.8072 g/cm³ @ Temp: 62 °C"
    }
}