{
    "cas_no": "480-64-8",
    "key_name": "Orsellinic acid",
    "cn_name": null,
    "alternate_name": "Benzoic acid, 2,4-dihydroxy-6-methyl-;β-Resorcylic acid, 6-methyl-;2,4-Dihydroxy-6-methylbenzoic acid;2,4-Dihydroxy-6-methylbenzenecarboxylic acid;4,6-Dihydroxy-<em>o</em>-toluic acid;6-Methyl-β-resorcylic acid;Orcinolcarboxylic acid;Orsellic acid;Orsellinic acid;<em>o</em>-Orsellinic acid;4,6-Dihydroxy-2-methylbenzoic acid",
    "duplicated_cas_no": "",
    "SMILES": "C(O)(=O)C1=C(C)C=C(O)C=C1O",
    "meta_data": {
        "InChI": "InChI=1S/C8H8O4/c1-4-2-5(9)3-6(10)7(4)8(11)12/h2-3,9-10H,1H3,(H,11,12)",
        "InChIKey": null,
        "Canonical SMILES": "O=C(O)C=1C(O)=CC(O)=CC1C",
        "Molecular Formula": "C<sub>8</sub>H<sub>8</sub>O<sub>4</sub>",
        "Molecular Mass": "168.15",
        "Melting Point": "176 °C (decomp)"
    }
}