{
    "cas_no": "1431-37-4",
    "key_name": "Dihexyl malonate",
    "cn_name": null,
    "alternate_name": "Propanedioic acid, 1,3-dihexyl ester;Malonic acid, dihexyl ester;Propanedioic acid, dihexyl ester;Dihexyl malonate;Di-<em>n</em>-hexyl malonate;Dihexyl propanedioate",
    "duplicated_cas_no": "",
    "SMILES": "C(CC(OCCCCCC)=O)(OCCCCCC)=O",
    "meta_data": {
        "InChI": "InChI=1S/C15H28O4/c1-3-5-7-9-11-18-14(16)13-15(17)19-12-10-8-6-4-2/h3-13H2,1-2H3",
        "InChIKey": null,
        "Canonical SMILES": "O=C(OCCCCCC)CC(=O)OCCCCCC",
        "Molecular Formula": "C<sub>15</sub>H<sub>28</sub>O<sub>4</sub>",
        "Molecular Mass": "272.38",
        "Boiling Point": "143-145 °C @ Press: 6 Torr",
        "Density": "0.9211 g/cm³ @ Temp: 20 °C"
    }
}