{
    "cas_no": "106-27-4",
    "key_name": "Isoamyl butyrate",
    "cn_name": "丁酸异戊酯;丁酸3-甲基丁酯;",
    "alternate_name": "Butanoic acid, 3-methylbutyl ester;Butyric acid, isopentyl ester;Isopentyl alcohol, butyrate;Isoamyl butanoate;Isoamyl butyrate;Isopentyl butyrate;3-Methylbutyl butyrate;Isoamyl butylate;Isopentyl butanoate;3-Methylbutyl <em>n</em>-butyrate;3-Methylbutyl butanoate;Butyric acid 3-methylbutyl ester;NSC 6548;3-Methyl-1-butyl butanoate",
    "duplicated_cas_no": "",
    "SMILES": "C(OCCC(C)C)(CCC)=O",
    "meta_data": {
        "InChI": "InChI=1S/C9H18O2/c1-4-5-9(10)11-7-6-8(2)3/h8H,4-7H2,1-3H3",
        "InChIKey": null,
        "Canonical SMILES": "O=C(OCCC(C)C)CCC",
        "Molecular Formula": "C<sub>9</sub>H<sub>18</sub>O<sub>2</sub>",
        "Molecular Mass": "158.24",
        "Boiling Point": "179 °C",
        "Melting Point": "-73.2 °C",
        "Density": "0.860 g/cm³ @ Temp: 154 °C"
    }
}