{
    "cas_no": "4472-44-0",
    "key_name": "2-Chloro-4,6-dimethylpyrimidine",
    "cn_name": "2-氯-4,6-二甲基嘧啶;",
    "alternate_name": "Pyrimidine, 2-chloro-4,6-dimethyl-;2-Chloro-4,6-dimethylpyrimidine;4,6-Dimethyl-2-chloropyrimidine;NSC 49016",
    "duplicated_cas_no": "",
    "SMILES": "CC=1C=C(C)N=C(Cl)N1",
    "meta_data": {
        "InChI": "InChI=1S/C6H7ClN2/c1-4-3-5(2)9-6(7)8-4/h3H,1-2H3",
        "InChIKey": null,
        "Canonical SMILES": "ClC=1N=C(C=C(N1)C)C",
        "Molecular Formula": "C<sub>6</sub>H<sub>7</sub>ClN<sub>2</sub>",
        "Molecular Mass": "142.59",
        "Boiling Point": "100.0-102.5 °C @ Press: 13 Torr",
        "Melting Point": "38 °C"
    }
}