{
    "cas_no": "75695-93-1",
    "key_name": "Isradipine",
    "cn_name": "伊拉地平;",
    "alternate_name": "3,5-Pyridinedicarboxylic acid, 4-(2,1,3-benzoxadiazol-4-yl)-1,4-dihydro-2,6-dimethyl-, 3-methyl 5-(1-methylethyl) ester;3,5-Pyridinedicarboxylic acid, 4-(4-benzofurazanyl)-1,4-dihydro-2,6-dimethyl-, methyl 1-methylethyl ester;3,5-Pyridinedicarboxylic acid, 4-(2,1,3-benzoxadiazol-4-yl)-1,4-dihydro-2,6-dimethyl-, methyl 1-methylethyl ester;2,1,3-Benzoxadiazole, 3,5-pyridinedicarboxylic acid deriv.;Isradipin;Isradipine;PN 200-110;Lomir;PN 200;(±)-Isradipine;DynaCire;DynaCire CR;Esradin;Clivoten;Prescal;Rebriden;Isrodipine;DynaCirc;Dynacrine;3-<em>O</em>-Methyl 5-<em>O</em>-propan-2-yl 4-(2,1,3-benzoxadiazol-4-yl)-2,6-dimethyl-1,4-dihydropyridine-3,5-dicarboxylate;MeSH ID: D017275",
    "duplicated_cas_no": "88977-22-4",
    "SMILES": "C(OC(C)C)(=O)C=1C(C(C(OC)=O)=C(C)NC1C)C=2C=3C(C=CC2)=NON3",
    "meta_data": {
        "InChI": "InChI=1S/C19H21N3O5/c1-9(2)26-19(24)15-11(4)20-10(3)14(18(23)25-5)16(15)12-7-6-8-13-17(12)22-27-21-13/h6-9,16,20H,1-5H3",
        "InChIKey": null,
        "Canonical SMILES": "O=C(OC)C1=C(NC(=C(C(=O)OC(C)C)C1C2=CC=CC3=NON=C32)C)C",
        "Molecular Formula": "C<sub>19</sub>H<sub>21</sub>N<sub>3</sub>O<sub>5</sub>",
        "Molecular Mass": "371.39",
        "Melting Point": "168-170 °C"
    }
}