{
    "cas_no": "17980-47-1",
    "key_name": "Isobutyltriethoxysilane",
    "cn_name": "异丁基三乙氧基硅烷;",
    "alternate_name": "Silane, triethoxy(2-methylpropyl)-;Silane, triethoxyisobutyl-;Triethoxy(2-methylpropyl)silane;Isobutyltriethoxysilane;Dynasylan BSM 100N;Dynasylan BSM 40N;Dynasylan IBTEO;Z 6403;Triethoxyisobutylsilane;Sicong SP 205;Xiameter OFS 6403;DB-H 358",
    "duplicated_cas_no": "",
    "SMILES": "[Si](CC(C)C)(OCC)(OCC)OCC",
    "meta_data": {
        "InChI": "InChI=1S/C10H24O3Si/c1-6-11-14(12-7-2,13-8-3)9-10(4)5/h10H,6-9H2,1-5H3",
        "InChIKey": null,
        "Canonical SMILES": "O(CC)[Si](OCC)(OCC)CC(C)C",
        "Molecular Formula": "C<sub>10</sub>H<sub>24</sub>O<sub>3</sub>Si",
        "Molecular Mass": "220.38",
        "Boiling Point": "190-191 °C",
        "Density": "0.910 g/cm³"
    }
}