{
    "cas_no": "612-14-6",
    "key_name": "1,2-Benzenedimethanol",
    "cn_name": "邻苯二甲醇;",
    "alternate_name": "1,2-Benzenedimethanol;<em>o</em>-Xylene-α,α′-diol;Phthalyl alcohol;<em>o</em>-Xylylene glycol;1,2-Bis(hydroxymethyl)benzene;<em>o</em>-Benzenedimethanol;<em>o</em>-Bis(hydroxymethyl)benzene;1,2-Di(hydroxymethyl)benzene;<em>o</em>-Xylylenediol;α,α′-Dihydroxy-<em>o</em>-xylene;<em>o</em>-Hydroxymethylbenzyl alcohol;<em>o</em>-Xylene glycol;(2-Hydroxymethylphenyl)methanol;NSC 403013;2-(Hydroxymethyl)benzyl alcohol;1,2-Phenylenedimethanol",
    "duplicated_cas_no": "",
    "SMILES": "C(O)C1=C(CO)C=CC=C1",
    "meta_data": {
        "InChI": "InChI=1S/C8H10O2/c9-5-7-3-1-2-4-8(7)6-10/h1-4,9-10H,5-6H2",
        "InChIKey": null,
        "Canonical SMILES": "OCC=1C=CC=CC1CO",
        "Molecular Formula": "C<sub>8</sub>H<sub>10</sub>O<sub>2</sub>",
        "Molecular Mass": "138.16",
        "Boiling Point": "140 °C @ Press: 0.8 Torr",
        "Melting Point": "63-64 °C"
    }
}