{
    "cas_no": "56-18-8",
    "key_name": "Bis(3-aminopropyl)amine",
    "cn_name": "3,3\"-二氨基二丙胺;3,3\"-二氨基二丙基胺;",
    "alternate_name": "1,3-Propanediamine, <em>N</em><sup>1</sup>-(3-aminopropyl)-;Dipropylamine, 3,3′-diamino-;1,3-Propanediamine, <em>N</em>-(3-aminopropyl)-;<em>N</em><sup>1</sup>-(3-Aminopropyl)-1,3-propanediamine;3,3′-Diaminodipropylamine;<em>N</em>-3-Aminopropyl-1,3-diaminopropane;1-Propanamine, 3,3′-iminobis-;3,3′-Iminobis(propylamine);4-Azaheptane-1,7-diamine;Dipropylenetriamine;Caldine;P 2 (hardener);Bis(3-aminopropyl)amine;1,7-Diamino-4-azaheptane;<em>N</em>-(3-Aminopropyl)-1,3-propanediamine;<em>sym</em>-Norspermidine;Norspermidine;4-Azaheptamethylenediamine;3,3′-Iminodi(propylamine);1,5,9-Triazanonane;Di(3-aminopropyl)amine;4-Aza-1,7-diaminoheptane;NSC 7773;Di(trimethylene)triamine;Bis(trimethylene)triamine;<em>N</em>-(3-Aminopropyl)-1,3-propandiamine;Baxxodur EC 110;EC 110;IBDA",
    "duplicated_cas_no": "",
    "SMILES": "N(CCCN)CCCN",
    "meta_data": {
        "InChI": "InChI=1S/C6H17N3/c7-3-1-5-9-6-2-4-8/h9H,1-8H2",
        "InChIKey": null,
        "Canonical SMILES": "NCCCNCCCN",
        "Molecular Formula": "C<sub>6</sub>H<sub>17</sub>N<sub>3</sub>",
        "Molecular Mass": "131.22",
        "Boiling Point": "210-230 °C",
        "Melting Point": "-14 °C",
        "Density": "0.9307 g/cm³ @ Temp: 20 °C"
    }
}