{
    "cas_no": "372-93-0",
    "key_name": "4-Fluoro-1-butanol",
    "cn_name": null,
    "alternate_name": "1-Butanol, 4-fluoro-;4-Fluoro-1-butanol",
    "duplicated_cas_no": "",
    "SMILES": "C(CCO)CF",
    "meta_data": {
        "InChI": "InChI=1S/C4H9FO/c5-3-1-2-4-6/h6H,1-4H2",
        "InChIKey": null,
        "Canonical SMILES": "FCCCCO",
        "Molecular Formula": "C<sub>4</sub>H<sub>9</sub>FO",
        "Molecular Mass": "92.11",
        "Boiling Point": "52.0-53.0 °C @ Press: 11 Torr"
    }
}