{
    "cas_no": "3368-21-6",
    "key_name": "3-[4-(1-Methylethyl)phenyl]-2-propenoic acid",
    "cn_name": null,
    "alternate_name": "2-Propenoic acid, 3-[4-(1-methylethyl)phenyl]-;Cinnamic acid, <em>p</em>-isopropyl-;3-[4-(1-Methylethyl)phenyl]-2-propenoic acid;<em>p</em>-Isopropylcinnamic acid;4-Isopropylcinnamic acid;NSC 216;3-(4-Isopropylphenyl)-2-propenoic acid;3-(4-Isopropylphenyl)acrylic acid",
    "duplicated_cas_no": "",
    "SMILES": "C(C)(C)C1=CC=C(C=CC(O)=O)C=C1",
    "meta_data": {
        "InChI": "InChI=1S/C12H14O2/c1-9(2)11-6-3-10(4-7-11)5-8-12(13)14/h3-9H,1-2H3,(H,13,14)",
        "InChIKey": null,
        "Canonical SMILES": "O=C(O)C=CC1=CC=C(C=C1)C(C)C",
        "Molecular Formula": "C<sub>12</sub>H<sub>14</sub>O<sub>2</sub>",
        "Molecular Mass": "190.24",
        "Melting Point": "165 °C"
    }
}