{
    "cas_no": "194602-23-8",
    "key_name": "2-Ethoxy-5-[(4-methyl-1-piperazinyl)sulfonyl]benzoic acid",
    "cn_name": null,
    "alternate_name": "Benzoic acid, 2-ethoxy-5-[(4-methyl-1-piperazinyl)sulfonyl]-;2-Ethoxy-5-[(4-methyl-1-piperazinyl)sulfonyl]benzoic acid;2-Ethoxy-5-(4-methyl-1-piperazinylsulfonyl)benzoic acid",
    "duplicated_cas_no": "200575-18-4",
    "SMILES": "S(=O)(=O)(C1=CC(C(O)=O)=C(OCC)C=C1)N2CCN(C)CC2",
    "meta_data": {
        "InChI": "InChI=1S/C14H20N2O5S/c1-3-21-13-5-4-11(10-12(13)14(17)18)22(19,20)16-8-6-15(2)7-9-16/h4-5,10H,3,6-9H2,1-2H3,(H,17,18)",
        "InChIKey": null,
        "Canonical SMILES": "O=C(O)C1=CC(=CC=C1OCC)S(=O)(=O)N2CCN(C)CC2",
        "Molecular Formula": "C<sub>14</sub>H<sub>20</sub>N<sub>2</sub>O<sub>5</sub>S",
        "Molecular Mass": "328.38",
        "Melting Point": "198-199 °C"
    }
}