{
    "cas_no": "78-30-8",
    "key_name": "<em>o</em>-Cresyl phosphate",
    "cn_name": null,
    "alternate_name": "Phosphoric acid, tris(2-methylphenyl) ester;Phosphoric acid, tri-<em>o</em>-tolyl ester;TOCP;Tri-<em>o</em>-cresyl phosphate;Tri-<em>o</em>-tolyl phosphate;TOTP;<em>o</em>-Cresyl phosphate;Tris(<em>o</em>-tolyl) phosphate;Phosflex 179C;Tris(<em>o</em>-methylphenyl) phosphate;TOKF;Tris(<em>o</em>-cresyl) phosphate;Tris(2-tolyl) phosphate;NSC 438;P(<em>o</em>-Tolyl)3;Tris(2-methylphenyl) phosphate",
    "duplicated_cas_no": "1336-40-9",
    "SMILES": "P(OC1=C(C)C=CC=C1)(OC2=C(C)C=CC=C2)(OC3=C(C)C=CC=C3)=O",
    "meta_data": {
        "InChI": "InChI=1S/C21H21O4P/c1-16-10-4-7-13-19(16)23-26(22,24-20-14-8-5-11-17(20)2)25-21-15-9-6-12-18(21)3/h4-15H,1-3H3",
        "InChIKey": null,
        "Canonical SMILES": "O=P(OC=1C=CC=CC1C)(OC=2C=CC=CC2C)OC=3C=CC=CC3C",
        "Molecular Formula": "C<sub>21</sub>H<sub>21</sub>O<sub>4</sub>P",
        "Molecular Mass": "368.36",
        "Boiling Point": "410 °C",
        "Melting Point": "11 °C",
        "Density": "1.1955 g/cm³ @ Temp: 20 °C"
    }
}