{
    "cas_no": "379-95-3",
    "key_name": "Propanedioic acid, 2,2-difluoro-, 1,3-dimethyl ester",
    "cn_name": null,
    "alternate_name": "Propanedioic acid, 2,2-difluoro-, 1,3-dimethyl ester;Malonic acid, difluoro-, dimethyl ester;Propanedioic acid, difluoro-, dimethyl ester;Dimethyl difluoromalonate;Dimethyl 2,2-difluoromalonate;1,3-Dimethyl 2,2-difluoropropanedioate",
    "duplicated_cas_no": "",
    "SMILES": "C(C(OC)=O)(C(OC)=O)(F)F",
    "meta_data": {
        "InChI": "InChI=1S/C5H6F2O4/c1-10-3(8)5(6,7)4(9)11-2/h1-2H3",
        "InChIKey": null,
        "Canonical SMILES": "O=C(OC)C(F)(F)C(=O)OC",
        "Molecular Formula": "C<sub>5</sub>H<sub>6</sub>F<sub>2</sub>O<sub>4</sub>",
        "Molecular Mass": "168.10",
        "Boiling Point": "58-59 °C @ Press: 9 Torr",
        "Melting Point": "~-35 °C (approx)",
        "Density": "1.3059 g/cm³ @ Temp: 20 °C"
    }
}