{
    "cas_no": "86-90-8",
    "key_name": "4-Bromophthalic anhydride",
    "cn_name": "4-溴邻苯二甲酸酐;",
    "alternate_name": "1,3-Isobenzofurandione, 5-bromo-;Phthalic anhydride, 4-bromo-;5-Bromo-1,3-isobenzofurandione;4-Bromophthalic anhydride;5-Bromoisobenzofuran-1,3-dione;5-Bromophthalic acid anhydride;5-Bromo-2-benzofuran-1,3-dione;5-Bromo-1,3-dihydro-2-benzofuran-1,3-dione",
    "duplicated_cas_no": "",
    "SMILES": "O=C1C=2C(C(=O)O1)=CC=C(Br)C2",
    "meta_data": {
        "InChI": "InChI=1S/C8H3BrO3/c9-4-1-2-5-6(3-4)8(11)12-7(5)10/h1-3H",
        "InChIKey": null,
        "Canonical SMILES": "O=C1OC(=O)C2=CC(Br)=CC=C12",
        "Molecular Formula": "C<sub>8</sub>H<sub>3</sub>BrO<sub>3</sub>",
        "Molecular Mass": "227.01",
        "Boiling Point": "305-309 °C",
        "Melting Point": "107 °C"
    }
}