{
    "cas_no": "169126-64-1",
    "key_name": "(1,1,4,4,7-Pentamethyltetralin-6-yl)boronic acid",
    "cn_name": "3,5,5,8,8-五甲基-5,6,7,8-四氢萘-2-硼酸;",
    "alternate_name": "Boronic acid, <em>B</em>-(5,6,7,8-tetrahydro-3,5,5,8,8-pentamethyl-2-naphthalenyl)-;Boronic acid, (5,6,7,8-tetrahydro-3,5,5,8,8-pentamethyl-2-naphthalenyl)-;<em>B</em>-(5,6,7,8-Tetrahydro-3,5,5,8,8-pentamethyl-2-naphthalenyl)boronic acid;(3,5,5,8,8-Pentamethyl-5,6,7,8-tetrahydronaphthalen-2-yl)boronic acid;(1,1,4,4,7-Pentamethyltetralin-6-yl)boronic acid",
    "duplicated_cas_no": "",
    "SMILES": "CC1(C)C=2C(C(C)(C)CC1)=CC(C)=C(B(O)O)C2",
    "meta_data": {
        "InChI": "InChI=1S/C15H23BO2/c1-10-8-11-12(9-13(10)16(17)18)15(4,5)7-6-14(11,2)3/h8-9,17-18H,6-7H2,1-5H3",
        "InChIKey": null,
        "Canonical SMILES": "OB(O)C=1C=C2C(=CC1C)C(C)(C)CCC2(C)C",
        "Molecular Formula": "C<sub>15</sub>H<sub>23</sub>BO<sub>2</sub>",
        "Molecular Mass": "246.15",
        "Melting Point": "220-225 °C"
    }
}