{
    "cas_no": "2425-54-9",
    "key_name": "1-Chlorotetradecane",
    "cn_name": "氯代十四烷;",
    "alternate_name": "Tetradecane, 1-chloro-;1-Chlorotetradecane;Tetradecyl chloride;Myristyl chloride",
    "duplicated_cas_no": "",
    "SMILES": "C(CCCCCCC)CCCCCCCl",
    "meta_data": {
        "InChI": "InChI=1S/C14H29Cl/c1-2-3-4-5-6-7-8-9-10-11-12-13-14-15/h2-14H2,1H3",
        "InChIKey": null,
        "Canonical SMILES": "ClCCCCCCCCCCCCCC",
        "Molecular Formula": "C<sub>14</sub>H<sub>29</sub>Cl",
        "Molecular Mass": "232.83",
        "Boiling Point": "292 °C",
        "Melting Point": "4.9 °C",
        "Density": "0.8268 g/cm³ @ Temp: 20 °C"
    }
}