{
    "cas_no": "73616-27-0",
    "key_name": "5-Amino-1<em>H</em>-pyrazole-1-ethanol",
    "cn_name": "5-氨基-1-(2-羟乙基)吡唑;2-(5-氨基-1H-吡唑-1-基)乙醇;",
    "alternate_name": "1<em>H</em>-Pyrazole-1-ethanol, 5-amino-;Pyrazole-1-ethanol, 5-amino-;5-Amino-1<em>H</em>-pyrazole-1-ethanol;5-Amino-1-(2-hydroxyethyl)pyrazole;NSC 267219;2-(5-Amino-1<em>H</em>-pyrazol-1-yl)ethanol;2-(5-Amino-1<em>H</em>-pyrazol-1-yl)ethan-1-ol;2-(5-Aminopyrazol-1-yl)ethanol",
    "duplicated_cas_no": "",
    "SMILES": "C(CO)N1C(N)=CC=N1",
    "meta_data": {
        "InChI": "InChI=1S/C5H9N3O/c6-5-1-2-7-8(5)3-4-9/h1-2,9H,3-4,6H2",
        "InChIKey": null,
        "Canonical SMILES": "OCCN1N=CC=C1N",
        "Molecular Formula": "C<sub>5</sub>H<sub>9</sub>N<sub>3</sub>O",
        "Molecular Mass": "127.14",
        "Boiling Point": "133-140 °C @ Press: 0.04 Torr",
        "Melting Point": "108-109 °C"
    }
}