{
    "cas_no": "140-79-4",
    "key_name": "<em>N</em>,<em>N</em>′-Dinitrosopiperazine",
    "cn_name": "1,4-二?硝哌【口+井】;1,4-二?硝哌【口+井】;",
    "alternate_name": "Piperazine, 1,4-dinitroso-;1,4-Dinitrosopiperazine;<em>N</em>,<em>N</em>′-Dinitrosopiperazine;DNP;NSC 339",
    "duplicated_cas_no": "",
    "SMILES": "N(=O)N1CCN(N=O)CC1",
    "meta_data": {
        "InChI": "InChI=1S/C4H8N4O2/c9-5-7-1-2-8(6-10)4-3-7/h1-4H2",
        "InChIKey": null,
        "Canonical SMILES": "O=NN1CCN(N=O)CC1",
        "Molecular Formula": "C<sub>4</sub>H<sub>8</sub>N<sub>4</sub>O<sub>2</sub>",
        "Molecular Mass": "144.13",
        "Melting Point": "158 °C"
    }
}