{
    "cas_no": "5538-51-2",
    "key_name": "Acetylsalicyloyl chloride",
    "cn_name": "邻乙酰氧基苯甲酰氯;乙酰水杨酰氯;邻乙酰水杨酰氯;",
    "alternate_name": "Benzoyl chloride, 2-(acetyloxy)-;Salicyloyl chloride, acetate;2-(Acetyloxy)benzoyl chloride;Acetylsalicyloyl chloride;Aspiryl chloride;Acetylsalicylic acid chloride;<em>o</em>-Acetoxybenzoyl chloride;2-Acetoxybenzoyl chloride;<em>O</em>-Acetylsalicyloyl chloride;Acetylsalicyl chloride;<em>O</em>-Acetylsalicylic acid chloride;2-Acetylsalicyloyl chloride;<em>o</em>-(Acetyloxy)benzoyl chloride;NSC 97216;2-(Chlorocarbonyl)phenyl acetate;Acetic acid 2-chlorocarbonylphenyl ester;Acetoxybenzoic acid chloride;Aspirin acyl chloride;Aspirinyl chloride;2-(Carbonochloridoyl)phenyl acetate",
    "duplicated_cas_no": "",
    "SMILES": "C(Cl)(=O)C1=C(OC(C)=O)C=CC=C1",
    "meta_data": {
        "InChI": "InChI=1S/C9H7ClO3/c1-6(11)13-8-5-3-2-4-7(8)9(10)12/h2-5H,1H3",
        "InChIKey": null,
        "Canonical SMILES": "O=C(Cl)C=1C=CC=CC1OC(=O)C",
        "Molecular Formula": "C<sub>9</sub>H<sub>7</sub>ClO<sub>3</sub>",
        "Molecular Mass": "198.60",
        "Boiling Point": "135 °C @ Press: 12 Torr",
        "Melting Point": "43 °C"
    }
}