{
    "cas_no": "623-48-3",
    "key_name": "Ethyl 2-iodoacetate",
    "cn_name": "碘乙酸乙酯;碘代乙酸乙酯;碘代醋酸乙酯;",
    "alternate_name": "Acetic acid, 2-iodo-, ethyl ester;Acetic acid, iodo-, ethyl ester;Ethyl 2-iodoacetate;Ethyl monoiodoacetate;Ethyl iodoacetate;Iodoacetic acid ethyl ester;KSK;NSC 58809",
    "duplicated_cas_no": "",
    "SMILES": "C(OCC)(CI)=O",
    "meta_data": {
        "InChI": "InChI=1S/C4H7IO2/c1-2-7-4(6)3-5/h2-3H2,1H3",
        "InChIKey": null,
        "Canonical SMILES": "O=C(OCC)CI",
        "Molecular Formula": "C<sub>4</sub>H<sub>7</sub>IO<sub>2</sub>",
        "Molecular Mass": "214.00",
        "Boiling Point": "179 °C",
        "Melting Point": "&lt;25 °C",
        "Density": "1.762 g/cm³ @ Temp: 24 °C"
    }
}