{
    "cas_no": "1009-14-9",
    "key_name": "Valerophenone",
    "cn_name": "1-苯基-1-戊酮;苯戊酮;",
    "alternate_name": "1-Pentanone, 1-phenyl-;Valerophenone;1-Phenyl-1-pentanone;Butyl phenyl ketone;Phenyl butyl ketone;Pentanophenone;<em>n</em>-Butyl phenyl ketone;<em>n</em>-Valerophenone;NSC 58959",
    "duplicated_cas_no": "",
    "SMILES": "C(CCCC)(=O)C1=CC=CC=C1",
    "meta_data": {
        "InChI": "InChI=1S/C11H14O/c1-2-3-9-11(12)10-7-5-4-6-8-10/h4-8H,2-3,9H2,1H3",
        "InChIKey": null,
        "Canonical SMILES": "O=C(C=1C=CC=CC1)CCCC",
        "Molecular Formula": "C<sub>11</sub>H<sub>14</sub>O",
        "Molecular Mass": "162.23",
        "Boiling Point": "245 °C",
        "Melting Point": "-9.4 °C",
        "Density": "0.988 g/cm³ @ Temp: 20 °C"
    }
}