{
    "cas_no": "1216941-48-8",
    "key_name": "Paritaprevir",
    "cn_name": null,
    "alternate_name": "Cyclopropa[<em>e</em>]pyrrolo[1,2-<em>a</em>][1,4]diazacyclopentadecine-14a(5<em>H</em>)-carboxamide, <em>N</em>-(cyclopropylsulfonyl)-1,2,3,6,7,8,9,10,11,13a,14,15,16,16a-tetradecahydro-6-[[(5-methyl-2-pyrazinyl)carbonyl]amino]-5,16-dioxo-2-(6-phenanthridinyloxy)-, (2<em>R</em>,6<em>S</em>,12<em>Z</em>,13a<em>S</em>,14a<em>R</em>,16a<em>S</em>)-;(2<em>R</em>,6<em>S</em>,12<em>Z</em>,13a<em>S</em>,14a<em>R</em>,16a<em>S</em>)-<em>N</em>-(Cyclopropylsulfonyl)-1,2,3,6,7,8,9,10,11,13a,14,15,16,16a-tetradecahydro-6-[[(5-methyl-2-pyrazinyl)carbonyl]amino]-5,16-dioxo-2-(6-phenanthridinyloxy)cyclopropa[<em>e</em>]pyrrolo[1,2-<em>a</em>][1,4]diazacyclopentadecine-14a(5<em>H</em>)-carboxamide;Paritaprevir;ABT 450",
    "duplicated_cas_no": "1221573-85-8",
    "SMILES": "",
    "meta_data": {
        "InChI": "",
        "InChIKey": null,
        "Canonical SMILES": "",
        "Molecular Formula": "C<sub>40</sub>H<sub>43</sub>N<sub>7</sub>O<sub>7</sub>S",
        "Molecular Mass": "765.88",
        "Melting Point": "169-172 °C"
    }
}