{
    "cas_no": "20532-30-3",
    "key_name": "5-Methoxybenzo[<em>b</em>]thiophene",
    "cn_name": null,
    "alternate_name": "Benzo[<em>b</em>]thiophene, 5-methoxy-;5-Methoxybenzo[<em>b</em>]thiophene;5-Methoxybenzothiophene",
    "duplicated_cas_no": "",
    "SMILES": "O(C)C=1C=C2C(=CC1)SC=C2",
    "meta_data": {
        "InChI": "InChI=1S/C9H8OS/c1-10-8-2-3-9-7(6-8)4-5-11-9/h2-6H,1H3",
        "InChIKey": null,
        "Canonical SMILES": "O(C=1C=CC=2SC=CC2C1)C",
        "Molecular Formula": "C<sub>9</sub>H<sub>8</sub>OS",
        "Molecular Mass": "164.22",
        "Melting Point": "42 °C"
    }
}