{
    "cas_no": "2425-77-6",
    "key_name": "2-Hexyl-1-decanol",
    "cn_name": null,
    "alternate_name": "1-Decanol, 2-hexyl-;2-Hexyl-1-decanol;2-Hexyldecanol;2-Hexyldecyl alcohol;NJCOL 160BR;Rilanit G 16;Exxal 16;Jarcol I 16;NJCOL 160BRA;Isofol 16;Guerbitol 16;Guerbet hexadecanol;NSC 2399;Guerbet C16;NJCOL 160B;Risonol 16SP;Hexyldecanol;Hexyldecyl alcohol;2-Octyl-1-octanol",
    "duplicated_cas_no": "123897-19-8;179606-93-0;179606-98-5",
    "SMILES": "C(CCCCCCCC)(CCCCCC)CO",
    "meta_data": {
        "InChI": "InChI=1S/C16H34O/c1-3-5-7-9-10-12-14-16(15-17)13-11-8-6-4-2/h16-17H,3-15H2,1-2H3",
        "InChIKey": null,
        "Canonical SMILES": "OCC(CCCCCC)CCCCCCCC",
        "Molecular Formula": "C<sub>16</sub>H<sub>34</sub>O",
        "Molecular Mass": "242.44",
        "Boiling Point": "170-180 °C @ Press: 24 Torr",
        "Melting Point": "16 °C",
        "Density": "0.838 g/cm³ @ Temp: 20 °C"
    }
}