{
    "cas_no": "21717-29-3",
    "key_name": "6-Ethyl-2-pyridinamine",
    "cn_name": "2-氨基-6-乙基吡啶;6-乙基吡啶-2-胺;",
    "alternate_name": "2-Pyridinamine, 6-ethyl-;Pyridine, 2-amino-6-ethyl-;6-Ethyl-2-pyridinamine;2-Amino-6-ethylpyridine;(6-Ethylpyridin-2-yl)amine",
    "duplicated_cas_no": "",
    "SMILES": "C(C)C=1N=C(N)C=CC1",
    "meta_data": {
        "InChI": "InChI=1S/C7H10N2/c1-2-6-4-3-5-7(8)9-6/h3-5H,2H2,1H3,(H2,8,9)",
        "InChIKey": null,
        "Canonical SMILES": "N=1C(N)=CC=CC1CC",
        "Molecular Formula": "C<sub>7</sub>H<sub>10</sub>N<sub>2</sub>",
        "Molecular Mass": "122.17",
        "Boiling Point": "217-219 °C"
    }
}