{
    "cas_no": "536-17-4",
    "key_name": "5-(4-Dimethylaminobenzylidene)rhodanine",
    "cn_name": null,
    "alternate_name": "4-Thiazolidinone, 5-[[4-(dimethylamino)phenyl]methylene]-2-thioxo-;Rhodanine, 5-[<em>p</em>-(dimethylamino)benzylidene]-;5-[[4-(Dimethylamino)phenyl]methylene]-2-thioxo-4-thiazolidinone;<em>p</em>-(Dimethylamino)benzalrhodanine;<em>p</em>-(Dimethylamino)benzal-5-rhodanine;5-[<em>p</em>-(Dimethylamino)benzylidene]rhodanine;5-[4-(Dimethylamino)benzylidene]-2-thioxo-4-thiazolidone;<em>p</em>-(Dimethylamino)benzylidenerhodanine;5-(4-Dimethylaminobenzylidene)rhodanine;5-(4′-Dimethylaminobenzylidene)rhodanine;4′-(Dimethylamino)benzalrhodanine;NSC 5042;5-(4-(Dimethylamino)benzylidene)-2-thioxothiazolidin-4-one",
    "duplicated_cas_no": "41259-57-8;93522-26-0;664997-25-5",
    "SMILES": "C(=C1SC(=S)NC1=O)C2=CC=C(N(C)C)C=C2",
    "meta_data": {
        "InChI": "InChI=1S/C12H12N2OS2/c1-14(2)9-5-3-8(4-6-9)7-10-11(15)13-12(16)17-10/h3-7H,1-2H3,(H,13,15,16)",
        "InChIKey": null,
        "Canonical SMILES": "O=C1NC(=S)SC1=CC2=CC=C(C=C2)N(C)C",
        "Molecular Formula": "C<sub>12</sub>H<sub>12</sub>N<sub>2</sub>OS<sub>2</sub>",
        "Molecular Mass": "264.37",
        "Melting Point": "270 °C (decomp)"
    }
}