{
    "cas_no": "312-84-5",
    "key_name": "<span class=\"text-smallcaps\">D</span>-Serine",
    "cn_name": "D-丝氨酸;D-2-氨基-3-羟基丙酸;",
    "alternate_name": "<span class=\"text-smallcaps\">D</span>-Serine;Serine, <span class=\"text-smallcaps\">D</span>-;(<em>R</em>)-Serine;NSC 77689;(<em>R</em>)-2-Amino-3-hydroxypropanoic acid;(2R)-2-Amino-3-hydroxypropanoic acid",
    "duplicated_cas_no": "",
    "SMILES": "[C@H](C(O)=O)(CO)N",
    "meta_data": {
        "InChI": "InChI=1S/C3H7NO3/c4-2(1-5)3(6)7/h2,5H,1,4H2,(H,6,7)/t2-/m1/s1",
        "InChIKey": null,
        "Canonical SMILES": "O=C(O)C(N)CO",
        "Molecular Formula": "C<sub>3</sub>H<sub>7</sub>NO<sub>3</sub>",
        "Molecular Mass": "105.09",
        "Melting Point": "229 °C (decomp)"
    }
}