{
    "cas_no": "4272-06-4",
    "key_name": "4-Undecanol",
    "cn_name": "4-十一烷醇;",
    "alternate_name": "4-Undecanol;(±)-4-Undecanol;NSC 158505",
    "duplicated_cas_no": "138194-02-2",
    "SMILES": "C(CCCCCCC)(CCC)O",
    "meta_data": {
        "InChI": "InChI=1S/C11H24O/c1-3-5-6-7-8-10-11(12)9-4-2/h11-12H,3-10H2,1-2H3",
        "InChIKey": null,
        "Canonical SMILES": "OC(CCC)CCCCCCC",
        "Molecular Formula": "C<sub>11</sub>H<sub>24</sub>O",
        "Molecular Mass": "172.31",
        "Boiling Point": "78-80 °C @ Press: 2 Torr",
        "Density": "0.8215 g/cm³ @ Temp: 20 °C"
    }
}