{
    "cas_no": "304-91-6",
    "key_name": "2-Iodosylbenzoic acid",
    "cn_name": "2-亚碘酰基苯甲酸;",
    "alternate_name": "Benzoic acid, 2-iodosyl-;Benzoic acid, <em>o</em>-iodoso-;2-Iodosylbenzoic acid;<em>o</em>-Iodosobenzoic acid;3<em>H</em>-1,2-Benziodoxol-1-ium, 3-oxo-, hydroxide;<em>o</em>-Iodosylbenzoic acid;2-Iodosobenzoic acid;NSC 34548",
    "duplicated_cas_no": "",
    "SMILES": "I(=O)C1=C(C(O)=O)C=CC=C1",
    "meta_data": {
        "InChI": "InChI=1S/C7H5IO3/c9-7(10)5-3-1-2-4-6(5)8-11/h1-4H,(H,9,10)",
        "InChIKey": null,
        "Canonical SMILES": "O=IC=1C=CC=CC1C(=O)O",
        "Molecular Formula": "C<sub>7</sub>H<sub>5</sub>IO<sub>3</sub>",
        "Molecular Mass": "264.02",
        "Melting Point": "242 °C (decomp)"
    }
}