{
    "cas_no": "759-65-9",
    "key_name": "1,4-Diethyl 2-methyl-3-oxobutanedioate",
    "cn_name": "草酰丙酸二乙酯;",
    "alternate_name": "Butanedioic acid, 2-methyl-3-oxo-, 1,4-diethyl ester;Oxalacetic acid, methyl-, diethyl ester;Butanedioic acid, methyloxo-, diethyl ester;1,4-Diethyl 2-methyl-3-oxobutanedioate;Diethyl 3-methyl-2-oxosuccinate;Ethyl α-ethoxalylpropionate;Diethyl 2-methyl-3-oxosuccinate;Diethyl oxalopropionate;Diethyl 2-oxo-3-methylsuccinate;Diethyl 2-methyl-3-oxo-1,4-butanedioate;Diethyl methyloxalacetate;NSC 33946;2-Methyl-3-(oxo)succinic acid diethyl ester;Diethyl 2-methyl-3-oxobutanedioate",
    "duplicated_cas_no": "",
    "SMILES": "C(C(C(OCC)=O)=O)(C(OCC)=O)C",
    "meta_data": {
        "InChI": "InChI=1S/C9H14O5/c1-4-13-8(11)6(3)7(10)9(12)14-5-2/h6H,4-5H2,1-3H3",
        "InChIKey": null,
        "Canonical SMILES": "O=C(OCC)C(=O)C(C(=O)OCC)C",
        "Molecular Formula": "C<sub>9</sub>H<sub>14</sub>O<sub>5</sub>",
        "Molecular Mass": "202.20",
        "Boiling Point": "116-119 °C @ Press: 12 Torr"
    }
}