{
    "cas_no": "434-90-2",
    "key_name": "Decafluorobiphenyl",
    "cn_name": "全氟联苯;十氟联苯;",
    "alternate_name": "1,1′-Biphenyl, 2,2′,3,3′,4,4′,5,5′,6,6′-decafluoro-;Biphenyl, decafluoro-;2,2′,3,3′,4,4′,5,5′,6,6′-Decafluoro-1,1′-biphenyl;Perfluorobiphenyl;Decafluorobiphenyl;2,2′,3,3′,4,4′,5,5′,6,6′-Decafluorobiphenyl;Decafluorodiphenyl;NSC 97070;1,2,3,4,5-Pentafluoro-6-(2,3,4,5,6-pentafluorophenyl)benzene;Perfluoro-[1,1′-biphenyl]",
    "duplicated_cas_no": "",
    "SMILES": "FC1=C(C(F)=C(F)C(F)=C1F)C2=C(F)C(F)=C(F)C(F)=C2F",
    "meta_data": {
        "InChI": "InChI=1S/C12F10/c13-3-1(4(14)8(18)11(21)7(3)17)2-5(15)9(19)12(22)10(20)6(2)16",
        "InChIKey": null,
        "Canonical SMILES": "FC=1C(F)=C(F)C(=C(F)C1F)C=2C(F)=C(F)C(F)=C(F)C2F",
        "Molecular Formula": "C<sub>12</sub>F<sub>10</sub>",
        "Molecular Mass": "334.11",
        "Boiling Point": "206 °C",
        "Melting Point": "67.5 °C"
    }
}