{
    "cas_no": "5041-67-8",
    "key_name": "Juglanin",
    "cn_name": null,
    "alternate_name": "4<em>H</em>-1-Benzopyran-4-one, 3-(α-<span class=\"text-smallcaps\">L</span>-arabinofuranosyloxy)-5,7-dihydroxy-2-(4-hydroxyphenyl)-;Flavone, 3,4′,5,7-tetrahydroxy-, 3-α-<span class=\"text-smallcaps\">L</span>-arabinofuranoside;Juglanin;Arabinofuranoside, kaempferol-3, α-<span class=\"text-smallcaps\">L</span>-;Arabinofuranoside, 5,7-dihydroxy-2-(<em>p</em>-hydroxyphenyl)-4-oxo-4<em>H</em>-1-benzopyran-3-yl, α-<span class=\"text-smallcaps\">L</span>-;3-(α-<span class=\"text-smallcaps\">L</span>-Arabinofuranosyloxy)-5,7-dihydroxy-2-(4-hydroxyphenyl)-4<em>H</em>-1-benzopyran-4-one;5,7,4′-Trihydroxyflavone 3-α-<span class=\"text-smallcaps\">L</span>-arabinofuranoside;Euglanin;Juglanin (Juglans);Kaempferol 3-arabinoside;Kaempferol 3-<em>O</em>-arabinoside;Kaempferol 3-<em>O</em>-α-<span class=\"text-smallcaps\">L</span>-arabinofuranoside",
    "duplicated_cas_no": "27133-77-3",
    "SMILES": "O(C1=C(OC=2C(C1=O)=C(O)C=C(O)C2)C3=CC=C(O)C=C3)[C@@H]4O[C@@H](CO)[C@H](O)[C@H]4O",
    "meta_data": {
        "InChI": "InChI=1S/C20H18O10/c21-7-13-15(25)17(27)20(29-13)30-19-16(26)14-11(24)5-10(23)6-12(14)28-18(19)8-1-3-9(22)4-2-8/h1-6,13,15,17,20-25,27H,7H2/t13-,15-,17+,20-/m0/s1",
        "InChIKey": null,
        "Canonical SMILES": "O=C1C(OC2OC(CO)C(O)C2O)=C(OC=3C=C(O)C=C(O)C13)C=4C=CC(O)=CC4",
        "Molecular Formula": "C<sub>20</sub>H<sub>18</sub>O<sub>10</sub>",
        "Molecular Mass": "418.35",
        "Melting Point": "224-225 °C"
    }
}