{
    "cas_no": "2349-58-8",
    "key_name": "4,5-Diphenyl-2-imidazolethiol",
    "cn_name": "4,5-Diphenyl-2-imidazolethiol;",
    "alternate_name": "2<em>H</em>-Imidazole-2-thione, 1,3-dihydro-4,5-diphenyl-;Imidazole-2-thiol, 4,5-diphenyl-;4-Imidazoline-2-thione, 4,5-diphenyl-;1,3-Dihydro-4,5-diphenyl-2<em>H</em>-imidazole-2-thione;4,5-Diphenyl-2-mercaptoimidazole;4,5-Diphenylmercaptoimidazole;2-Mercapto-4,5-diphenylimidazole;4,5-Diphenylimidazoline-2-thione;4,5-Diphenyl-4-imidazoline-2-thione;4,5-Diphenyl-2-imidazolethiol;4,5-Diphenyl-1<em>H</em>-imidazole-2-thiol;4,5-Diphenyl-1,3-dihydroimidazole-2-thione;4,5-Diphenyl-2-imidazolethione",
    "duplicated_cas_no": "3718-54-5",
    "SMILES": "S=C1NC(=C(N1)C2=CC=CC=C2)C3=CC=CC=C3",
    "meta_data": {
        "InChI": "InChI=1S/C15H12N2S/c18-15-16-13(11-7-3-1-4-8-11)14(17-15)12-9-5-2-6-10-12/h1-10H,(H2,16,17,18)",
        "InChIKey": null,
        "Canonical SMILES": "S=C1NC(C=2C=CC=CC2)=C(N1)C=3C=CC=CC3",
        "Molecular Formula": "C<sub>15</sub>H<sub>12</sub>N<sub>2</sub>S",
        "Molecular Mass": "252.33",
        "Melting Point": "316 °C"
    }
}