{
    "cas_no": "40817-08-1",
    "key_name": "4-Cyano-4′-pentylbiphenyl",
    "cn_name": "4\"-正戊基-4-氰基联苯;4-戊基-4\"-氰基联苯;戊基联苯腈;",
    "alternate_name": "[1,1′-Biphenyl]-4-carbonitrile, 4′-pentyl-;4′-Pentyl[1,1′-biphenyl]-4-carbonitrile;4′-<em>n</em>-Pentyl-4-biphenylcarbonitrile;4-Cyano-4′-pentylbiphenyl;Pentyl cyanobiphenyl;<em>p</em>′-Cyano-<em>p</em>-pentylbiphenyl;4′-<em>n</em>-Pentyl-4-cyanobiphenyl;4,4′-<em>n</em>-Pentylcyanobiphenyl;4′-Pentyl-4-biphenylcarbonitrile;4′-Amyl-4-cyanobiphenyl;4-Pentyl-4′-cyanobiphenyl;<em>p</em>-Pentyl-<em>p</em>′-cyanobiphenyl;4-Cyano-4′-<em>n</em>-pentylbiphenyl;4-Amyl-4′-cyanobiphenyl;5CB;<em>p</em>-<em>n</em>-Amylbenzylidene-<em>p</em>′-cyanoaniline;<em>p</em>-Cyano-<em>p</em>′-pentylbiphenyl;4-<em>n</em>-Pentyl-4′-cyanobiphenyl;4-<em>n</em>-Amyl-4′-cyanobiphenyl;<em>p</em>-<em>n</em>-Pentyl-<em>p</em>′-cyanobiphenyl;<em>p</em>-Amyl-<em>p</em>′-cyanobiphenyl;CPB;CB 5;K 15 (liquid crystal);K 15;5BF;4′-Cyano-4-pentylbiphenyl;PCB (liquid crystal);4-Cyano-4′-pentyl-1,1′-biphenyl;4-Cyano-4′-pentyldiphenyl;4-Cyano-4′-<em>n</em>-pentyldiphenyl;BDH-K 15;5TsB;LC 5CB;CB 5 (liquid crystal);4′-Pentyl-4-cyanobiphenyl;4-Cyano-4′-<em>n</em>-pentyl-1,1′-biphenyl;C 1550;5-BB-C;5CB (liquid crystal)",
    "duplicated_cas_no": "118217-27-9;956587-03-4",
    "SMILES": "C(CCCC)C1=CC=C(C=C1)C2=CC=C(C#N)C=C2",
    "meta_data": {
        "InChI": "InChI=1S/C18H19N/c1-2-3-4-5-15-6-10-17(11-7-15)18-12-8-16(14-19)9-13-18/h6-13H,2-5H2,1H3",
        "InChIKey": null,
        "Canonical SMILES": "N#CC=1C=CC(=CC1)C2=CC=C(C=C2)CCCCC",
        "Molecular Formula": "C<sub>18</sub>H<sub>19</sub>N",
        "Molecular Mass": "249.35",
        "Boiling Point": "178-182 °C @ Press: 2 Torr",
        "Melting Point": "24 °C",
        "Density": "1.0065 g/cm³"
    }
}