{
    "cas_no": "491-30-5",
    "key_name": "1(2<em>H</em>)-Isoquinolinone",
    "cn_name": "1-羟基异喹啉;",
    "alternate_name": "1(2<em>H</em>)-Isoquinolinone;Isocarbostyril;1(2<em>H</em>)-Isoquinolone;1-Isoquinolinol;1-Hydroxyisoquinoline;1-Oxo-1,2-dihydroisoquinoline;2(1<em>H</em>)-Isoquinolinone;NSC 27273;2<em>H</em>-Isoquinolin-1-one;1,2-Dihydroisoquinolin-1-one",
    "duplicated_cas_no": "4053-48-9",
    "SMILES": "O=C1C=2C(C=CN1)=CC=CC2",
    "meta_data": {
        "InChI": "InChI=1S/C9H7NO/c11-9-8-4-2-1-3-7(8)5-6-10-9/h1-6H,(H,10,11)",
        "InChIKey": null,
        "Canonical SMILES": "O=C1NC=CC=2C=CC=CC21",
        "Molecular Formula": "C<sub>9</sub>H<sub>7</sub>NO",
        "Molecular Mass": "145.16",
        "Melting Point": "212.5 °C"
    }
}