{
    "cas_no": "622-29-7",
    "key_name": "<em>N</em>-(Phenylmethylene)methanamine",
    "cn_name": "N-苄烯甲胺;苯亚甲基甲胺;N-苄基亚甲基甲胺;",
    "alternate_name": "Methanamine, <em>N</em>-(phenylmethylene)-;Methylamine, <em>N</em>-benzylidene-;Benzaldehyde, <em>N</em>-methyloxime;<em>N</em>-(Phenylmethylene)methanamine;Benzylidenemethylamine;Benzylidenemethanamine;<em>N</em>-Methylbenzaldimine;<em>N</em>-Methylbenzalimine;<em>N</em>-Methylbenzylidenimine;<em>N</em>-Benzylidenemethylamine;<em>N</em>-Methylbenzenemethanimine;Benzaldehyde <em>N</em>-methylimine;<em>N</em>-Benzylidenemethanamine;Benzalmethylamine;Benzaldehyde methylimine;<em>N</em>-Methylbenzylidenamine;<em>N</em>-Methylphenylmethanimine;NSC 69423",
    "duplicated_cas_no": "",
    "SMILES": "C(=NC)C1=CC=CC=C1",
    "meta_data": {
        "InChI": "InChI=1S/C8H9N/c1-9-7-8-5-3-2-4-6-8/h2-7H,1H3",
        "InChIKey": null,
        "Canonical SMILES": "N(=CC=1C=CC=CC1)C",
        "Molecular Formula": "C<sub>8</sub>H<sub>9</sub>N",
        "Molecular Mass": "119.16",
        "Boiling Point": "185 °C",
        "Melting Point": "185 °C",
        "Density": "0.962 g/cm³ @ Temp: 20 °C"
    }
}