{
    "cas_no": "23062-06-8",
    "key_name": "Androsta-4,16-dien-3β-ol",
    "cn_name": null,
    "alternate_name": "Androsta-4,16-dien-3-ol, (3β)-;Androsta-4,16-dien-3β-ol;(3β)-Androsta-4,16-dien-3-ol;Fasedienol;PH94B;PH 94B",
    "duplicated_cas_no": "",
    "SMILES": "C[C@@]12[C@@]3([C@]([C@]4([C@](C)(CC3)C=CC4)[H])(CCC1=C[C@@H](O)CC2)[H])[H]",
    "meta_data": {
        "InChI": "InChI=1S/C19H28O/c1-18-9-3-4-16(18)15-6-5-13-12-14(20)7-11-19(13,2)17(15)8-10-18/h3,9,12,14-17,20H,4-8,10-11H2,1-2H3/t14-,15-,16-,17-,18-,19-/m0/s1",
        "InChIKey": null,
        "Canonical SMILES": "OC1C=C2CCC3C4CC=CC4(C)CCC3C2(C)CC1",
        "Molecular Formula": "C<sub>19</sub>H<sub>28</sub>O",
        "Molecular Mass": "272.42",
        "Melting Point": "114-117 °C"
    }
}