{
    "cas_no": "347-55-7",
    "key_name": "2-[(Trifluoromethyl)thio]benzenamine",
    "cn_name": "2-(三氟甲基硫代)苯胺;2-(三氟甲基硫代)苯胺;",
    "alternate_name": "Benzenamine, 2-[(trifluoromethyl)thio]-;Aniline, <em>o</em>-[(trifluoromethyl)thio]-;2-[(Trifluoromethyl)thio]benzenamine;2-[(Trifluoromethyl)thio]aniline",
    "duplicated_cas_no": "",
    "SMILES": "S(C(F)(F)F)C1=C(N)C=CC=C1",
    "meta_data": {
        "InChI": "InChI=1S/C7H6F3NS/c8-7(9,10)12-6-4-2-1-3-5(6)11/h1-4H,11H2",
        "InChIKey": null,
        "Canonical SMILES": "FC(F)(F)SC=1C=CC=CC1N",
        "Molecular Formula": "C<sub>7</sub>H<sub>6</sub>F<sub>3</sub>NS",
        "Molecular Mass": "193.19",
        "Boiling Point": "70-72 °C @ Press: 7 Torr",
        "Melting Point": "30-31 °C"
    }
}