{
    "cas_no": "26628-47-7",
    "key_name": "9-(Diethylamino)spiro[12<em>H</em>-benzo[<em>a</em>]xanthene-12,1′(3′<em>H</em>)-isobenzofuran]-3′-one",
    "cn_name": "9-(二乙氨基)螺[12H-苯并[A]占吨-12,1\"(3\"H)-异苯并呋喃]-3\"-酮;",
    "alternate_name": "Spiro[12<em>H</em>-benzo[<em>a</em>]xanthene-12,1′(3′<em>H</em>)-isobenzofuran]-3′-one, 9-(diethylamino)-;Spiro[12<em>H</em>-benzo[<em>a</em>]xanthene-12,1′-phthalan]-3′-one, 9-(diethylamino)-;9-(Diethylamino)spiro[12<em>H</em>-benzo[<em>a</em>]xanthene-12,1′(3′<em>H</em>)-isobenzofuran]-3′-one;9-(Diethylamino)spiro[12<em>H</em>-benzo[<em>a</em>]xanthene-12,1′-phthalide];3-(Diethylamino)-7,8-benzofluoran;PSD-P;Color Former Red 3;Copikem 747;6-Diethylamino-1,2-benzofluoran;1,2-Benz-6-diethylaminofluorane;Yamamoto Red 3;1,2-Benzo-6-diethylaminofluorane;Red DCF;3-Diethylamino-7,8-benzo[α]fluoran",
    "duplicated_cas_no": "142107-22-0;52636-82-5;59141-18-3;93051-35-5",
    "SMILES": "O=C1OC2(C3=C(OC=4C2=CC=C(N(CC)CC)C4)C=CC=5C3=CC=CC5)C=6C1=CC=CC6",
    "meta_data": {
        "InChI": "InChI=1S/C28H23NO3/c1-3-29(4-2)19-14-15-23-25(17-19)31-24-16-13-18-9-5-6-10-20(18)26(24)28(23)22-12-8-7-11-21(22)27(30)32-28/h5-17H,3-4H2,1-2H3",
        "InChIKey": null,
        "Canonical SMILES": "O=C1OC2(C3=CC=C(C=C3OC=4C=CC=5C=CC=CC5C42)N(CC)CC)C=6C=CC=CC16",
        "Molecular Formula": "C<sub>28</sub>H<sub>23</sub>NO<sub>3</sub>",
        "Molecular Mass": "421.49",
        "Melting Point": "218-220 °C"
    }
}