{
    "cas_no": "51773-92-3",
    "key_name": "Mefloquine hydrochloride",
    "cn_name": "盐酸甲氟喹;盐酸六氟哌喹;(2R)-(+/-)-alpha-2-哌啶基-2,8-双三氟甲基-4-喹啉甲醇单盐酸盐;",
    "alternate_name": "4-Quinolinemethanol, α-(2<em>R</em>)-2-piperidinyl-2,8-bis(trifluoromethyl)-, hydrochloride (1:1), (α<em>S</em>)-<em>rel</em>-;4-Quinolinemethanol, α-2-piperidinyl-2,8-bis(trifluoromethyl)-, monohydrochloride, (<em>R</em>*,<em>S</em>*)-(±)-;4-Quinolinemethanol, α-(2<em>R</em>)-2-piperidinyl-2,8-bis(trifluoromethyl)-, monohydrochloride, (α<em>S</em>)-<em>rel</em>-;Mefloquine hydrochloride;WR 142490;4-Quinolinemethanol, α-2-piperidinyl-2,8-bis(trifluoromethyl)-, monohydrochloride, (<em>R</em>*,<em>S</em>*)-;Loriam;Ro 21-5998/001;NSC 157387;Mefloquin hydrochloride;(±)-Mefloquine hydrochloride",
    "duplicated_cas_no": "68682-28-0",
    "SMILES": "C(F)(F)(F)C=1C2=C(C([C@H](O)[C@]3(CCCCN3)[H])=CC(C(F)(F)F)=N2)C=CC1.Cl",
    "meta_data": {
        "InChI": "InChI=1/C17H16F6N2O.ClH/c18-16(19,20)11-5-3-4-9-10(15(26)12-6-1-2-7-24-12)8-13(17(21,22)23)25-14(9)11;/h3-5,8,12,15,24,26H,1-2,6-7H2;1H/t12-,15+;/s2",
        "InChIKey": null,
        "Canonical SMILES": "Cl.FC(F)(F)C1=NC2=C(C=CC=C2C(F)(F)F)C(=C1)C(O)C3NCCCC3",
        "Molecular Formula": "C<sub>17</sub>H<sub>16</sub>F<sub>6</sub>N<sub>2</sub>O.ClH",
        "Molecular Mass": "",
        "Melting Point": "259-260 °C (decomp)"
    }
}