{
    "cas_no": "13194-69-9",
    "key_name": "2-Iodo-5-methylbenzenamine",
    "cn_name": "3-Iodo-5-methylaniline;",
    "alternate_name": "Benzenamine, 2-iodo-5-methyl-;<em>m</em>-Toluidine, 6-iodo-;2-Iodo-5-methylbenzenamine;2-Iodo-5-methylaniline;2-Iodo-5-methylphenylamine",
    "duplicated_cas_no": "",
    "SMILES": "NC1=C(I)C=CC(C)=C1",
    "meta_data": {
        "InChI": "InChI=1S/C7H8IN/c1-5-2-3-6(8)7(9)4-5/h2-4H,9H2,1H3",
        "InChIKey": null,
        "Canonical SMILES": "IC1=CC=C(C=C1N)C",
        "Molecular Formula": "C<sub>7</sub>H<sub>8</sub>IN",
        "Molecular Mass": "233.05",
        "Melting Point": "37-39 °C"
    }
}