{
    "cas_no": "2148-56-3",
    "key_name": "2-Amino-6-chlorobenzoic acid",
    "cn_name": "2-氨基-6-氯苯甲酸;",
    "alternate_name": "Benzoic acid, 2-amino-6-chloro-;Anthranilic acid, 6-chloro-;2-Amino-6-chlorobenzoic acid;6-Chloroanthranilic acid;2-Chloro-6-aminobenzoic acid;NSC 17189;6-Chloro-2-aminobenzoic acid",
    "duplicated_cas_no": "",
    "SMILES": "C(O)(=O)C1=C(Cl)C=CC=C1N",
    "meta_data": {
        "InChI": "InChI=1S/C7H6ClNO2/c8-4-2-1-3-5(9)6(4)7(10)11/h1-3H,9H2,(H,10,11)",
        "InChIKey": null,
        "Canonical SMILES": "O=C(O)C=1C(Cl)=CC=CC1N",
        "Molecular Formula": "C<sub>7</sub>H<sub>6</sub>ClNO<sub>2</sub>",
        "Molecular Mass": "171.58",
        "Melting Point": "159 °C"
    }
}