{
    "cas_no": "321-17-5",
    "key_name": "1-Bromo-4,5-difluoro-2-nitrobenzene",
    "cn_name": null,
    "alternate_name": "Benzene, 1-bromo-4,5-difluoro-2-nitro-;1-Bromo-4,5-difluoro-2-nitrobenzene;2-Bromo-4,5-difluoronitrobenzene",
    "duplicated_cas_no": "",
    "SMILES": "N(=O)(=O)C1=C(Br)C=C(F)C(F)=C1",
    "meta_data": {
        "InChI": "InChI=1S/C6H2BrF2NO2/c7-3-1-4(8)5(9)2-6(3)10(11)12/h1-2H",
        "InChIKey": null,
        "Canonical SMILES": "O=N(=O)C1=CC(F)=C(F)C=C1Br",
        "Molecular Formula": "C<sub>6</sub>H<sub>2</sub>BrF<sub>2</sub>NO<sub>2</sub>",
        "Molecular Mass": "237.99",
        "Boiling Point": "72-74 °C @ Press: 4 Torr"
    }
}