{
    "cas_no": "7790-91-2",
    "key_name": "Chlorine trifluoride",
    "cn_name": null,
    "alternate_name": "Chlorine fluoride (ClF<sub>3</sub>);Chlorine trifluoride;Chlorine trifluoride (ClF<sub>3</sub>);Chlorotrifluoride;Chlorine fluoride (Cl<sub>2</sub>F<sub>6</sub>);Trifluorochlorine",
    "duplicated_cas_no": "12422-22-9;12526-02-2",
    "SMILES": "Cl(F)(F)F",
    "meta_data": {
        "InChI": "InChI=1S/ClF3/c2-1(3)4",
        "InChIKey": null,
        "Canonical SMILES": "FCl(F)F",
        "Molecular Formula": "ClF<sub>3</sub>",
        "Molecular Mass": "92.45",
        "Boiling Point": "11.75 °C",
        "Melting Point": "-76.34 °C"
    }
}