{
    "cas_no": "55341-87-2",
    "key_name": "3-Amino-2-thiophenecarboxylic acid",
    "cn_name": null,
    "alternate_name": "2-Thiophenecarboxylic acid, 3-amino-;3-Amino-2-thiophenecarboxylic acid",
    "duplicated_cas_no": "",
    "SMILES": "C(O)(=O)C1=C(N)C=CS1",
    "meta_data": {
        "InChI": "InChI=1S/C5H5NO2S/c6-3-1-2-9-4(3)5(7)8/h1-2H,6H2,(H,7,8)",
        "InChIKey": null,
        "Canonical SMILES": "O=C(O)C=1SC=CC1N",
        "Molecular Formula": "C<sub>5</sub>H<sub>5</sub>NO<sub>2</sub>S",
        "Molecular Mass": "143.16",
        "Melting Point": "82 °C (decomp)"
    }
}