{
    "cas_no": "768-42-3",
    "key_name": "6-Ethoxy-2-pyridinamine",
    "cn_name": "2-氨基-6-乙氧基吡啶;",
    "alternate_name": "2-Pyridinamine, 6-ethoxy-;Pyridine, 2-amino-6-ethoxy-;6-Ethoxy-2-pyridinamine;6-Ethoxypyridin-2-amine;2-Amino-6-ethoxypyridine",
    "duplicated_cas_no": "",
    "SMILES": "O(CC)C=1N=C(N)C=CC1",
    "meta_data": {
        "InChI": "InChI=1S/C7H10N2O/c1-2-10-7-5-3-4-6(8)9-7/h3-5H,2H2,1H3,(H2,8,9)",
        "InChIKey": null,
        "Canonical SMILES": "N=1C(OCC)=CC=CC1N",
        "Molecular Formula": "C<sub>7</sub>H<sub>10</sub>N<sub>2</sub>O",
        "Molecular Mass": "138.17",
        "Boiling Point": "238 °C"
    }
}