{
    "cas_no": "150-46-9",
    "key_name": "Triethyl borate",
    "cn_name": "硼酸三乙酯;",
    "alternate_name": "Boric acid (H<sub>3</sub>BO<sub>3</sub>), triethyl ester;Ethyl borate ((EtO)<sub>3</sub>B);Triethyl borate;Boron ethoxide;Triethoxyborane;Triethoxyboron;Boron triethoxide;Boron ethoxide (B(OEt)<sub>3</sub>);NSC 2055;B 0520",
    "duplicated_cas_no": "32692-78-7",
    "SMILES": "B(OCC)(OCC)OCC",
    "meta_data": {
        "InChI": "InChI=1S/C6H15BO3/c1-4-8-7(9-5-2)10-6-3/h4-6H2,1-3H3",
        "InChIKey": null,
        "Canonical SMILES": "O(B(OCC)OCC)CC",
        "Molecular Formula": "C<sub>6</sub>H<sub>15</sub>BO<sub>3</sub>",
        "Molecular Mass": "145.99",
        "Boiling Point": "120 °C",
        "Melting Point": "-84.8 °C",
        "Density": "0.858 g/cm³"
    }
}