{
    "cas_no": "825-99-0",
    "key_name": "3-(Methylthio)benzoic acid",
    "cn_name": "3-(甲硫基)苯甲酸;",
    "alternate_name": "Benzoic acid, 3-(methylthio)-;Benzoic acid, <em>m</em>-(methylthio)-;Benzoic acid, <em>m</em>-methylmercapto-;3-(Methylthio)benzoic acid;3-Mercaptobenzoic acid <em>S</em>-methyl ether;<em>m</em>-Methylthiobenzoic acid;NSC 2937;3-Methylsulfanylbenzoic acid;3-Methanesulfanylbenzoic acid",
    "duplicated_cas_no": "",
    "SMILES": "C(O)(=O)C1=CC(SC)=CC=C1",
    "meta_data": {
        "InChI": "InChI=1S/C8H8O2S/c1-11-7-4-2-3-6(5-7)8(9)10/h2-5H,1H3,(H,9,10)",
        "InChIKey": null,
        "Canonical SMILES": "O=C(O)C=1C=CC=C(SC)C1",
        "Molecular Formula": "C<sub>8</sub>H<sub>8</sub>O<sub>2</sub>S",
        "Molecular Mass": "168.21",
        "Melting Point": "126-127 °C"
    }
}