{
    "cas_no": "254-79-5",
    "key_name": "1,5-Naphthyridine",
    "cn_name": "1,5-萘啶;",
    "alternate_name": "1,5-Naphthyridine;1,5-Diazanaphthalene;1,5-Pyridopyridine;NSC 87514",
    "duplicated_cas_no": "",
    "SMILES": "C12=C(C=CC=N1)N=CC=C2",
    "meta_data": {
        "InChI": "InChI=1S/C8H6N2/c1-3-7-8(9-5-1)4-2-6-10-7/h1-6H",
        "InChIKey": null,
        "Canonical SMILES": "N=1C=CC=C2N=CC=CC12",
        "Molecular Formula": "C<sub>8</sub>H<sub>6</sub>N<sub>2</sub>",
        "Molecular Mass": "130.15",
        "Boiling Point": "112 °C @ Press: 12 Torr",
        "Melting Point": "75 °C"
    }
}