{
    "cas_no": "1676-63-7",
    "key_name": "1-(4-Ethoxyphenyl)ethanone",
    "cn_name": "4-乙氧基苯乙酮;对乙氧基苯乙酮;",
    "alternate_name": "Ethanone, 1-(4-ethoxyphenyl)-;Acetophenone, 4′-ethoxy-;1-(4-Ethoxyphenyl)ethanone;<em>p</em>-Ethoxyacetophenone;4′-Ethoxyacetophenone;NSC 403850;NSC 406258;40959-1A;1-(4-Ethoxyphenyl)ethan-1-one",
    "duplicated_cas_no": "",
    "SMILES": "C(C)(=O)C1=CC=C(OCC)C=C1",
    "meta_data": {
        "InChI": "InChI=1S/C10H12O2/c1-3-12-10-6-4-9(5-7-10)8(2)11/h4-7H,3H2,1-2H3",
        "InChIKey": null,
        "Canonical SMILES": "O=C(C1=CC=C(OCC)C=C1)C",
        "Molecular Formula": "C<sub>10</sub>H<sub>12</sub>O<sub>2</sub>",
        "Molecular Mass": "164.20",
        "Boiling Point": "145.4-145.8 °C @ Press: 13 Torr",
        "Melting Point": "37-38 °C"
    }
}