{
    "cas_no": "6812-16-4",
    "key_name": "2-Hydroxy-3-methoxybenzonitrile",
    "cn_name": null,
    "alternate_name": "Benzonitrile, 2-hydroxy-3-methoxy-;<em>m</em>-Anisonitrile, 2-hydroxy-;2-Hydroxy-3-methoxybenzonitrile;3-Methoxysalicylonitrile;<em>o</em>-Vanillonitrile;2-Cyano-6-methoxyphenol",
    "duplicated_cas_no": "",
    "SMILES": "C(#N)C1=C(O)C(OC)=CC=C1",
    "meta_data": {
        "InChI": "InChI=1S/C8H7NO2/c1-11-7-4-2-3-6(5-9)8(7)10/h2-4,10H,1H3",
        "InChIKey": null,
        "Canonical SMILES": "N#CC1=CC=CC(OC)=C1O",
        "Molecular Formula": "C<sub>8</sub>H<sub>7</sub>NO<sub>2</sub>",
        "Molecular Mass": "149.15",
        "Boiling Point": "172-178 °C @ Press: 2 Torr",
        "Melting Point": "61 °C"
    }
}