{
    "cas_no": "871700-17-3",
    "key_name": "Trametinib",
    "cn_name": null,
    "alternate_name": "Acetamide, <em>N</em>-[3-[3-cyclopropyl-5-[(2-fluoro-4-iodophenyl)amino]-3,4,6,7-tetrahydro-6,8-dimethyl-2,4,7-trioxopyrido[4,3-<em>d</em>]pyrimidin-1(2<em>H</em>)-yl]phenyl]-;<em>N</em>-[3-[3-Cyclopropyl-5-[(2-fluoro-4-iodophenyl)amino]-3,4,6,7-tetrahydro-6,8-dimethyl-2,4,7-trioxopyrido[4,3-<em>d</em>]pyrimidin-1(2<em>H</em>)-yl]phenyl]acetamide;JTP 74057;GSK 1120212;Trametinib;<em>N</em>-[3-[3-Cyclopropyl-5-(2-fluoro-4-iodo-phenylamino)-6,8-dimethyl-2,4,7-trioxo-3,4,6,7-tetrahydro-2<em>H</em>-pyrido[4,3-<em>d</em>]pyrimidin-1-yl]phenyl]acetamide;G 02442104;Mekinist;GSK 212;SNR 1611",
    "duplicated_cas_no": "1204531-14-5;1308251-24-2",
    "SMILES": "N(C1=C2C(N(C(=O)N(C2=O)C3CC3)C4=CC(NC(C)=O)=CC=C4)=C(C)C(=O)N1C)C5=C(F)C=C(I)C=C5",
    "meta_data": {
        "InChI": "InChI=1S/C26H23FIN5O4/c1-13-22-21(23(31(3)24(13)35)30-20-10-7-15(28)11-19(20)27)25(36)33(17-8-9-17)26(37)32(22)18-6-4-5-16(12-18)29-14(2)34/h4-7,10-12,17,30H,8-9H2,1-3H3,(H,29,34)",
        "InChIKey": null,
        "Canonical SMILES": "O=C(NC1=CC=CC(=C1)N2C(=O)N(C(=O)C3=C(NC4=CC=C(I)C=C4F)N(C(=O)C(=C32)C)C)C5CC5)C",
        "Molecular Formula": "C<sub>26</sub>H<sub>23</sub>FIN<sub>5</sub>O<sub>4</sub>",
        "Molecular Mass": "615.39",
        "Melting Point": "300-301 °C"
    }
}