{
    "cas_no": "3544-25-0",
    "key_name": "4-Aminobenzeneacetonitrile",
    "cn_name": "4-氨基苯乙腈;对氨基苯乙腈;",
    "alternate_name": "Benzeneacetonitrile, 4-amino-;Acetonitrile, (<em>p</em>-aminophenyl)-;4-Aminobenzeneacetonitrile;(<em>p</em>-Aminophenyl)acetonitrile;(4-Aminophenyl)acetonitrile;4-(Cyanomethyl)aniline;<em>p</em>-Aminobenzyl cyanide;4-Aminobenzyl cyanide;[4-(Cyanomethyl)phenyl]amine;4-Aminophenylacetic acid nitrile;2-(4-Aminophenyl)acetonitrile",
    "duplicated_cas_no": "1022970-98-4",
    "SMILES": "C(C#N)C1=CC=C(N)C=C1",
    "meta_data": {
        "InChI": "InChI=1S/C8H8N2/c9-6-5-7-1-3-8(10)4-2-7/h1-4H,5,10H2",
        "InChIKey": null,
        "Canonical SMILES": "N#CCC1=CC=C(N)C=C1",
        "Molecular Formula": "C<sub>8</sub>H<sub>8</sub>N<sub>2</sub>",
        "Molecular Mass": "132.16",
        "Boiling Point": "312 °C",
        "Melting Point": "46 °C"
    }
}