{
    "cas_no": "27561-51-9",
    "key_name": "1-Bromo-4-(bromomethyl)-2-methylbenzene",
    "cn_name": null,
    "alternate_name": "Benzene, 1-bromo-4-(bromomethyl)-2-methyl-;<em>m</em>-Xylene, α<sup>1</sup>,4-dibromo-;1-Bromo-4-(bromomethyl)-2-methylbenzene;4-Bromo-3-methylbenzyl bromide",
    "duplicated_cas_no": "156001-48-8",
    "SMILES": "C(Br)C1=CC(C)=C(Br)C=C1",
    "meta_data": {
        "InChI": "InChI=1S/C8H8Br2/c1-6-4-7(5-9)2-3-8(6)10/h2-4H,5H2,1H3",
        "InChIKey": null,
        "Canonical SMILES": "BrC1=CC=C(C=C1C)CBr",
        "Molecular Formula": "C<sub>8</sub>H<sub>8</sub>Br<sub>2</sub>",
        "Molecular Mass": "263.96",
        "Melting Point": "26-27 °C"
    }
}