{
    "cas_no": "10222-01-2",
    "key_name": "2,2-Dibromo-3-nitrilopropionamide",
    "cn_name": "2,2-二溴-3-次氮基丙酰胺;二溴氰基乙酰胺;DBNPA;",
    "alternate_name": "Acetamide, 2,2-dibromo-2-cyano-;2,2-Dibromo-2-cyanoacetamide;2,2-Dibromo-3-nitrilopropionamide;DBNPA;Dibromocyanoacetamide;DBNPA 7287;Biomate 723;Amerstat 300;Dibromonitrilopropionamide;X-CIDE 508;X-CIDE 509;NSC 98283;Dowicil QK 20;2-Cyano-2,2-dibromoacetamide;BE 3S;2,2-Dibromo-3-nitrilopropanamide;Mucosin NT;Busan 94;Dow antimicrobial 7287;Odycide B 340;AM 7287;QK 20;Thor DB 20;DB 20;2,2-Dibromo-3-3-trifluoropropionamide;Dow bactericide 7287;Fennosan R 20;Aqucar DB 20;Bioban DB 20;Aqucar RO 20;Acticide DBW;Mergal 530;Wancide DA 20;DA 20",
    "duplicated_cas_no": "63619-09-0;1838552-16-1",
    "SMILES": "C(C(N)=O)(C#N)(Br)Br",
    "meta_data": {
        "InChI": "InChI=1S/C3H2Br2N2O/c4-3(5,1-6)2(7)8/h(H2,7,8)",
        "InChIKey": null,
        "Canonical SMILES": "N#CC(Br)(Br)C(=O)N",
        "Molecular Formula": "C<sub>3</sub>H<sub>2</sub>Br<sub>2</sub>N<sub>2</sub>O",
        "Molecular Mass": "241.87",
        "Boiling Point": "123-126 °C",
        "Melting Point": "123-126 °C"
    }
}