{
    "cas_no": "16154-62-4",
    "key_name": "1-(2-Chloro-4-nitrophenyl)-4-methylpiperazine",
    "cn_name": null,
    "alternate_name": "Piperazine, 1-(2-chloro-4-nitrophenyl)-4-methyl-;1-(2-Chloro-4-nitrophenyl)-4-methylpiperazine",
    "duplicated_cas_no": "",
    "SMILES": "ClC1=C(C=CC(N(=O)=O)=C1)N2CCN(C)CC2",
    "meta_data": {
        "InChI": "InChI=1S/C11H14ClN3O2/c1-13-4-6-14(7-5-13)11-3-2-9(15(16)17)8-10(11)12/h2-3,8H,4-7H2,1H3",
        "InChIKey": null,
        "Canonical SMILES": "O=N(=O)C1=CC=C(C(Cl)=C1)N2CCN(C)CC2",
        "Molecular Formula": "C<sub>11</sub>H<sub>14</sub>ClN<sub>3</sub>O<sub>2</sub>",
        "Molecular Mass": "255.70",
        "Melting Point": "106 °C"
    }
}