{
    "cas_no": "626-27-7",
    "key_name": "Heptanoic anhydride",
    "cn_name": "庚酸酐;",
    "alternate_name": "Heptanoic acid, 1,1′-anhydride;Heptanoic anhydride;Heptanoic acid, anhydride;Enanthic anhydride;Heptanoyl anhydride;<em>n</em>-Heptanoic acid anhydride;NSC 67902",
    "duplicated_cas_no": "",
    "SMILES": "O(C(CCCCCC)=O)C(CCCCCC)=O",
    "meta_data": {
        "InChI": "InChI=1S/C14H26O3/c1-3-5-7-9-11-13(15)17-14(16)12-10-8-6-4-2/h3-12H2,1-2H3",
        "InChIKey": null,
        "Canonical SMILES": "O=C(OC(=O)CCCCCC)CCCCCC",
        "Molecular Formula": "C<sub>14</sub>H<sub>26</sub>O<sub>3</sub>",
        "Molecular Mass": "242.35",
        "Boiling Point": "269.5 °C",
        "Melting Point": "-12.4 °C",
        "Density": "0.90943 g/cm³ @ Temp: 30 °C"
    }
}