{
    "cas_no": "3191-86-4",
    "key_name": "5-(2-Methylpropyl)-1-phenyl-1<em>H</em>-pyrazole",
    "cn_name": null,
    "alternate_name": "1<em>H</em>-Pyrazole, 5-(2-methylpropyl)-1-phenyl-;Pyrazole, 5-isobutyl-1-phenyl-;5-(2-Methylpropyl)-1-phenyl-1<em>H</em>-pyrazole",
    "duplicated_cas_no": "",
    "SMILES": "C(C(C)C)C=1N(N=CC1)C2=CC=CC=C2",
    "meta_data": {
        "InChI": "InChI=1S/C13H16N2/c1-11(2)10-13-8-9-14-15(13)12-6-4-3-5-7-12/h3-9,11H,10H2,1-2H3",
        "InChIKey": null,
        "Canonical SMILES": "N1=CC=C(N1C=2C=CC=CC2)CC(C)C",
        "Molecular Formula": "C<sub>13</sub>H<sub>16</sub>N<sub>2</sub>",
        "Molecular Mass": "200.28",
        "Boiling Point": "115-120 °C @ Press: 0.1 Torr"
    }
}