{
    "cas_no": "1943-79-9",
    "key_name": "Phenyl methylcarbamate",
    "cn_name": null,
    "alternate_name": "Carbamic acid, <em>N</em>-methyl-, phenyl ester;Carbamic acid, methyl-, phenyl ester;Phenyl methylcarbamate;DRC 3345;Phenyl <em>N</em>-methylcarbamate;Phenmec;S 101;NSC 128138",
    "duplicated_cas_no": "",
    "SMILES": "O(C(NC)=O)C1=CC=CC=C1",
    "meta_data": {
        "InChI": "InChI=1S/C8H9NO2/c1-9-8(10)11-7-5-3-2-4-6-7/h2-6H,1H3,(H,9,10)",
        "InChIKey": null,
        "Canonical SMILES": "O=C(OC=1C=CC=CC1)NC",
        "Molecular Formula": "C<sub>8</sub>H<sub>9</sub>NO<sub>2</sub>",
        "Molecular Mass": "151.16",
        "Melting Point": "86 °C",
        "Density": "1.160 g/cm³"
    }
}