{
    "cas_no": "88768-45-0",
    "key_name": "2-(2-Pyrimidinylthio)acetic acid",
    "cn_name": "2-(羧基甲基硫代)嘧啶;",
    "alternate_name": "Acetic acid, 2-(2-pyrimidinylthio)-;Acetic acid, (2-pyrimidinylthio)-;2-(2-Pyrimidinylthio)acetic acid;(2-Pyrimidylthio)acetic acid;[(Pyrimidin-2-yl)thio]acetic acid;4-Pyrimidylthioacetic acid;2-(Carboxymethylthio)pyrimidine;(Pyrimidin-2-ylsulfanyl)acetic acid;2-(Pyrimidin-2-ylsulfanyl)acetic acid;2-Pyrimidin-2-ylsulfanylacetic acid",
    "duplicated_cas_no": "1397283-63-4",
    "SMILES": "S(CC(O)=O)C=1N=CC=CN1",
    "meta_data": {
        "InChI": "InChI=1S/C6H6N2O2S/c9-5(10)4-11-6-7-2-1-3-8-6/h1-3H,4H2,(H,9,10)",
        "InChIKey": null,
        "Canonical SMILES": "O=C(O)CSC1=NC=CC=N1",
        "Molecular Formula": "C<sub>6</sub>H<sub>6</sub>N<sub>2</sub>O<sub>2</sub>S",
        "Molecular Mass": "170.19",
        "Melting Point": "199-200 °C"
    }
}