{
    "cas_no": "303-45-7",
    "key_name": "Gossypol",
    "cn_name": "棉籽酚;棉子醇;棉酚;棉子酚;",
    "alternate_name": "[2,2′-Binaphthalene]-8,8′-dicarboxaldehyde, 1,1′,6,6′,7,7′-hexahydroxy-3,3′-dimethyl-5,5′-bis(1-methylethyl)-;[2,2′-Binaphthalene]-8,8′-dicarboxaldehyde, 1,1′,6,6′,7,7′-hexahydroxy-5,5′-diisopropyl-3,3′-dimethyl-;1,1′,6,6′,7,7′-Hexahydroxy-3,3′-dimethyl-5,5′-bis(1-methylethyl)[2,2′-binaphthalene]-8,8′-dicarboxaldehyde;2,2′-Bis[8-formyl-1,6,7-trihydroxy-5-isopropyl-3-methylnaphthyl];2,2′-Bis[1,6,7-trihydroxy-3-methyl-5-isopropyl-8-aldehydonaphthyl];Gossypol;1,1′,6,6′,7,7′-Hexahydroxy-5,5′-diisopropyl-3,3′-dimethyl-2,2′-binaphthalene-8,8′-dicarboxaldehyde;1,1′,6,6′,7,7′-Hexahydroxy-3,3′-dimethyl-5,5′-diisopropyl-2,2′-binaphthyl-8,8′-dialdehyde;1,1′,6,6′,7,7′-Hexahydroxy-3,3′-dimethyl-5,5′-diisopropyl[2,2′-binaphthalene]-8,8′-dicarboxaldehyde;Tash 1;(±)-Gossypol;Pogosin;No Fertil;NSC 56817;NSC 624336;1,6,7,1′,6′,7′-Hexahydroxy-5,5′-diisopropyl-3,3′-dimethyl-[2,2′]binaphthalenyl-8,8′-dicarboxaldehyde;BL 193;1,1′,6,6′,7,7′-Hexahydroxy-5,5′-diisopropyl-3,3′-dimethyl-[2,2′-binaphthalene]-8,8′-dicarbaldehyde;MeSH ID: D006072",
    "duplicated_cas_no": "40112-23-0;732279-01-5",
    "SMILES": "C(C)(C)C=1C2=C(C(C=O)=C(O)C1O)C(O)=C(C(C)=C2)C3=C(O)C4=C(C=C3C)C(C(C)C)=C(O)C(O)=C4C=O",
    "meta_data": {
        "InChI": "InChI=1S/C30H30O8/c1-11(2)19-15-7-13(5)21(27(35)23(15)17(9-31)25(33)29(19)37)22-14(6)8-16-20(12(3)4)30(38)26(34)18(10-32)24(16)28(22)36/h7-12,33-38H,1-6H3",
        "InChIKey": null,
        "Canonical SMILES": "O=CC1=C(O)C(O)=C(C2=CC(=C(C(O)=C12)C3=C(O)C4=C(C=O)C(O)=C(O)C(=C4C=C3C)C(C)C)C)C(C)C",
        "Molecular Formula": "C<sub>30</sub>H<sub>30</sub>O<sub>8</sub>",
        "Molecular Mass": "518.55",
        "Melting Point": "199 °C"
    }
}