{
    "cas_no": "54696-05-8",
    "key_name": "4-Benzyloxyacetophenone",
    "cn_name": "4-苯甲氧基苯乙酮;4-苄氧基苯乙酮;对苄氧基苯乙酮;",
    "alternate_name": "Ethanone, 1-[4-(phenylmethoxy)phenyl]-;Acetophenone, 4′-(benzyloxy)-;1-[4-(Phenylmethoxy)phenyl]ethanone;4-Benzyloxyacetophenone;<em>p</em>-(Benzyloxy)acetophenone;<em>p</em>-(Phenylmethoxy)acetophenone;4-Acetylphenyl benzyl ether;4′-Benzyloxyacetophenone;NSC 56945;1-(4-Benzyloxyphenyl)ethanone;1-(4-(Benzyloxy)phenyl)ethan-1-one",
    "duplicated_cas_no": "",
    "SMILES": "O(CC1=CC=CC=C1)C2=CC=C(C(C)=O)C=C2",
    "meta_data": {
        "InChI": "InChI=1S/C15H14O2/c1-12(16)14-7-9-15(10-8-14)17-11-13-5-3-2-4-6-13/h2-10H,11H2,1H3",
        "InChIKey": null,
        "Canonical SMILES": "O=C(C1=CC=C(OCC=2C=CC=CC2)C=C1)C",
        "Molecular Formula": "C<sub>15</sub>H<sub>14</sub>O<sub>2</sub>",
        "Molecular Mass": "226.27",
        "Melting Point": "93 °C"
    }
}