{
    "cas_no": "7785-23-1",
    "key_name": "Silver bromide",
    "cn_name": "溴化银;",
    "alternate_name": "Silver bromide (AgBr);Silver bromide;Silver monobromide;Silver(I) bromide;Argentous bromide",
    "duplicated_cas_no": "11078-33-4;2088452-75-7",
    "SMILES": "[Ag]Br",
    "meta_data": {
        "InChI": "InChI=1S/Ag.BrH/h;1H/q+1;/p-1",
        "InChIKey": null,
        "Canonical SMILES": "Br[Ag]",
        "Molecular Formula": "AgBr",
        "Molecular Mass": "",
        "Melting Point": "432 °C",
        "Density": "6.47 g/cm³"
    }
}