{
    "cas_no": "2499-95-8",
    "key_name": "Hexyl acrylate",
    "cn_name": "正己基丙烯酸酯;",
    "alternate_name": "2-Propenoic acid, hexyl ester;Acrylic acid, hexyl ester;Hexyl acrylate;<em>n</em>-Hexyl acrylate;Hexyl 2-propenoate;NSC 11786",
    "duplicated_cas_no": "",
    "SMILES": "C(OC(C=C)=O)CCCCC",
    "meta_data": {
        "InChI": "InChI=1S/C9H16O2/c1-3-5-6-7-8-11-9(10)4-2/h4H,2-3,5-8H2,1H3",
        "InChIKey": null,
        "Canonical SMILES": "O=C(OCCCCCC)C=C",
        "Molecular Formula": "C<sub>9</sub>H<sub>16</sub>O<sub>2</sub>",
        "Molecular Mass": "156.22",
        "Boiling Point": "40 °C @ Press: 1.1 Torr",
        "Melting Point": "-45 °C",
        "Density": "0.8882 g/cm³ @ Temp: 20 °C"
    }
}