{
    "cas_no": "906-33-2",
    "key_name": "Neochlorogenic acid",
    "cn_name": "新绿原酸;5-咖啡奎宁酸;",
    "alternate_name": "Cyclohexanecarboxylic acid, 3-[[(2<em>E</em>)-3-(3,4-dihydroxyphenyl)-1-oxo-2-propen-1-yl]oxy]-1,4,5-trihydroxy-, (1<em>R</em>,3<em>R</em>,4<em>S</em>,5<em>R</em>)-;Neochlorogenic acid;Cyclohexanecarboxylic acid, 3-[[3-(3,4-dihydroxyphenyl)-1-oxo-2-propenyl]oxy]-1,4,5-trihydroxy-, [1<em>R</em>-[1α,3α(<em>E</em>),4α,5β]]-;Cyclohexanecarboxylic acid, 3-[[(2<em>E</em>)-3-(3,4-dihydroxyphenyl)-1-oxo-2-propenyl]oxy]-1,4,5-trihydroxy-, (1<em>R</em>,3<em>R</em>,4<em>S</em>,5<em>R</em>)-;(1<em>R</em>,3<em>R</em>,4<em>S</em>,5<em>R</em>)-3-[[(2<em>E</em>)-3-(3,4-Dihydroxyphenyl)-1-oxo-2-propen-1-yl]oxy]-1,4,5-trihydroxycyclohexanecarboxylic acid;5-<em>O</em>-Caffeoylquinic acid;5-(<em>E</em>)-Caffeoylquinic acid;5-Caffeoylquinic acid;(<em>E</em>)-Neochlorogenic acid;trans-5-O-Caffeoylquinic acid;5-<em>O</em>-Caffeolyquinic acid;3-<em>O</em>-(<em>E</em>)-Caffeoylquinic acid;3-<em>trans</em>-<em>O</em>-Caffeoylquinic acid",
    "duplicated_cas_no": "29587-84-6;877123-86-9",
    "SMILES": "O(C(/C=C/C1=CC(O)=C(O)C=C1)=O)[C@@H]2C[C@](C(O)=O)(O)C[C@@H](O)[C@@H]2O",
    "meta_data": {
        "InChI": "InChI=1S/C16H18O9/c17-9-3-1-8(5-10(9)18)2-4-13(20)25-12-7-16(24,15(22)23)6-11(19)14(12)21/h1-5,11-12,14,17-19,21,24H,6-7H2,(H,22,23)/b4-2+/t11-,12-,14+,16-/m1/s1",
        "InChIKey": null,
        "Canonical SMILES": "O=C(O)C1(O)CC(O)C(O)C(OC(=O)C=CC2=CC=C(O)C(O)=C2)C1",
        "Molecular Formula": "C<sub>16</sub>H<sub>18</sub>O<sub>9</sub>",
        "Molecular Mass": "354.31",
        "Melting Point": "204-206 °C (decomp)"
    }
}