{
    "cas_no": "1865-01-6",
    "key_name": "4-Nitrophenyl formate",
    "cn_name": "甲酸对硝基苯酯;",
    "alternate_name": "Formic acid, 4-nitrophenyl ester;Formic acid, <em>p</em>-nitrophenyl ester;4-Nitrophenyl formate;<em>p</em>-Nitrophenyl formate;NSC 154301",
    "duplicated_cas_no": "",
    "SMILES": "N(=O)(=O)C1=CC=C(OC=O)C=C1",
    "meta_data": {
        "InChI": "InChI=1S/C7H5NO4/c9-5-12-7-3-1-6(2-4-7)8(10)11/h1-5H",
        "InChIKey": null,
        "Canonical SMILES": "O=COC1=CC=C(C=C1)N(=O)=O",
        "Molecular Formula": "C<sub>7</sub>H<sub>5</sub>NO<sub>4</sub>",
        "Molecular Mass": "167.12",
        "Melting Point": "73-74 °C"
    }
}