{
    "cas_no": "116-53-0",
    "key_name": "2-Methylbutanoic acid",
    "cn_name": "2-甲基丁酸;",
    "alternate_name": "Butanoic acid, 2-methyl-;Butyric acid, 2-methyl-;Butyric acid, α-methyl-;2-Methylbutanoic acid;Active valeric acid;Ethylmethylacetic acid;2-Methylbutyric acid;α-Methylbutyric acid;Methylethylacetic acid;α-Methyl-<em>n</em>-butyric acid;2-Methyl-<em>n</em>-butyric acid;<span class=\"text-smallcaps\">DL</span>-2-Methylbutyric acid;(±)-2-Methylbutyric acid;(±)-Methylethylacetic acid;<span class=\"text-smallcaps\">DL</span>-2-Methylbutanoic acid;<span class=\"text-smallcaps\">DL</span>-α-Methylbutyric acid;(±)-2-Methylbutanoic acid;(±)-α-Methylbutyric acid;2-Ethylpropanoic acid;NSC 7304;Hydroangelic acid",
    "duplicated_cas_no": "600-07-7",
    "SMILES": "C(C(O)=O)(CC)C",
    "meta_data": {
        "InChI": "InChI=1S/C5H10O2/c1-3-4(2)5(6)7/h4H,3H2,1-2H3,(H,6,7)",
        "InChIKey": null,
        "Canonical SMILES": "O=C(O)C(C)CC",
        "Molecular Formula": "C<sub>5</sub>H<sub>10</sub>O<sub>2</sub>",
        "Molecular Mass": "102.13",
        "Boiling Point": "176.5 °C",
        "Density": "0.9332 g/cm³ @ Temp: 20 °C"
    }
}