{
    "cas_no": "37893-02-0",
    "key_name": "Flubenzimine",
    "cn_name": "氟螨噻;",
    "alternate_name": "Benzenamine, <em>N</em>-[3-phenyl-4,5-bis[(trifluoromethyl)imino]-2-thiazolidinylidene]-;<em>N</em>-[3-Phenyl-4,5-bis[(trifluoromethyl)imino]-2-thiazolidinylidene]benzenamine;Flubenzimine;Cropotex;SLJ 0312",
    "duplicated_cas_no": "",
    "SMILES": "N(C(F)(F)F)=C1N(C(=NC2=CC=CC=C2)SC1=NC(F)(F)F)C3=CC=CC=C3",
    "meta_data": {
        "InChI": "InChI=1S/C17H10F6N4S/c18-16(19,20)25-13-14(26-17(21,22)23)28-15(24-11-7-3-1-4-8-11)27(13)12-9-5-2-6-10-12/h1-10H",
        "InChIKey": null,
        "Canonical SMILES": "FC(F)(F)N=C1SC(=NC=2C=CC=CC2)N(C=3C=CC=CC3)C1=NC(F)(F)F",
        "Molecular Formula": "C<sub>17</sub>H<sub>10</sub>F<sub>6</sub>N<sub>4</sub>S",
        "Molecular Mass": "416.34",
        "Melting Point": "118 °C"
    }
}