{
    "cas_no": "109-76-2",
    "key_name": "1,3-Propanediamine",
    "cn_name": "1,3-丙二胺;",
    "alternate_name": "1,3-Propanediamine;1,3-Diaminopropane;1,3-Propylenediamine;Trimethylenediamine;1,3-Trimethylenediamine;DAP;3-Aminopropylamine;1,3-Diamino-<em>n</em>-propane;α,ω-Propanediamine;NSC 8154",
    "duplicated_cas_no": "54018-94-9;1628783-17-4",
    "SMILES": "C(CN)CN",
    "meta_data": {
        "InChI": "InChI=1S/C3H10N2/c4-2-1-3-5/h1-5H2",
        "InChIKey": null,
        "Canonical SMILES": "NCCCN",
        "Molecular Formula": "C<sub>3</sub>H<sub>10</sub>N<sub>2</sub>",
        "Molecular Mass": "74.12",
        "Boiling Point": "139.8 °C",
        "Melting Point": "240-242 °C",
        "Density": "0.8834 g/cm³ @ Temp: 20 °C"
    }
}