{
    "cas_no": "149437-76-3",
    "key_name": "4-Fluoro-δ-oxobenzenepentanoic acid",
    "cn_name": "4-(4-氟苯甲酰基)丁酸;对氟苯甲酰丁酸;",
    "alternate_name": "Benzenepentanoic acid, 4-fluoro-δ-oxo-;4-Fluoro-δ-oxobenzenepentanoic acid;5-(4-Fluorophenyl)-5-oxopentanoic acid;4-(4-Fluorobenzoyl)butyric acid;4-(4-Fluorobenzoyl)butanoic acid",
    "duplicated_cas_no": "",
    "SMILES": "C(CCCC(O)=O)(=O)C1=CC=C(F)C=C1",
    "meta_data": {
        "InChI": "InChI=1S/C11H11FO3/c12-9-6-4-8(5-7-9)10(13)2-1-3-11(14)15/h4-7H,1-3H2,(H,14,15)",
        "InChIKey": null,
        "Canonical SMILES": "O=C(O)CCCC(=O)C1=CC=C(F)C=C1",
        "Molecular Formula": "C<sub>11</sub>H<sub>11</sub>FO<sub>3</sub>",
        "Molecular Mass": "210.20",
        "Melting Point": "140-143 °C"
    }
}