{
    "cas_no": "327-54-8",
    "key_name": "1,2,4,5-Tetrafluorobenzene",
    "cn_name": "1,2,4,5-四氟苯;",
    "alternate_name": "Benzene, 1,2,4,5-tetrafluoro-;1,2,4,5-Tetrafluorobenzene;2,3,5,6-Tetrafluorobenzene;<em>p</em>-Tetrafluorobenzene;NSC 10249",
    "duplicated_cas_no": "",
    "SMILES": "FC1=C(F)C=C(F)C(F)=C1",
    "meta_data": {
        "InChI": "InChI=1S/C6H2F4/c7-3-1-4(8)6(10)2-5(3)9/h1-2H",
        "InChIKey": null,
        "Canonical SMILES": "FC=1C=C(F)C(F)=CC1F",
        "Molecular Formula": "C<sub>6</sub>H<sub>2</sub>F<sub>4</sub>",
        "Molecular Mass": "150.07",
        "Boiling Point": "90.2 °C",
        "Melting Point": "4.5 °C",
        "Density": "1.4256 g/cm³ @ Temp: 20 °C"
    }
}