{
    "cas_no": "590-92-1",
    "key_name": "3-Bromopropionic acid",
    "cn_name": "3-溴丙酸;",
    "alternate_name": "Propanoic acid, 3-bromo-;Propionic acid, 3-bromo-;Propionic acid, β-bromo-;3-Bromopropanoic acid;β-Bromopropionic acid;3-Bromopropionic acid;2-Carboxyethyl bromide;β-Bromopropanoic acid;NSC 2638",
    "duplicated_cas_no": "",
    "SMILES": "C(C(O)=O)CBr",
    "meta_data": {
        "InChI": "InChI=1S/C3H5BrO2/c4-2-1-3(5)6/h1-2H2,(H,5,6)",
        "InChIKey": null,
        "Canonical SMILES": "O=C(O)CCBr",
        "Molecular Formula": "C<sub>3</sub>H<sub>5</sub>BrO<sub>2</sub>",
        "Molecular Mass": "152.97",
        "Boiling Point": "140-142 °C @ Press: 45 Torr",
        "Melting Point": "62.5 °C",
        "Density": "1.48 g/cm³"
    }
}