{
    "cas_no": "140-38-5",
    "key_name": "4-Chlorophenylurea",
    "cn_name": "4-氯苯基脲;",
    "alternate_name": "Urea, <em>N</em>-(4-chlorophenyl)-;Urea, (4-chlorophenyl)-;Urea, (<em>p</em>-chlorophenyl)-;<em>N</em>-(4-Chlorophenyl)urea;(<em>p</em>-Chlorophenyl)urea;4-Chlorophenylurea;<em>p</em>-CPU;3-(<em>p</em>-Chlorophenyl)urea;1-(4-Chlorophenyl)urea;NSC 12971;NSC 400071",
    "duplicated_cas_no": "",
    "SMILES": "N(C(N)=O)C1=CC=C(Cl)C=C1",
    "meta_data": {
        "InChI": "InChI=1S/C7H7ClN2O/c8-5-1-3-6(4-2-5)10-7(9)11/h1-4H,(H3,9,10,11)",
        "InChIKey": null,
        "Canonical SMILES": "O=C(N)NC1=CC=C(Cl)C=C1",
        "Molecular Formula": "C<sub>7</sub>H<sub>7</sub>ClN<sub>2</sub>O",
        "Molecular Mass": "170.60",
        "Melting Point": "212 °C"
    }
}