{
    "cas_no": "80060-09-9",
    "key_name": "Diafenthiuron",
    "cn_name": "丁醚脲;1-特丁基-3-(2,6-二异丙基-4-苯氧基苯基)硫脲;",
    "alternate_name": "Thiourea, <em>N</em>-[2,6-bis(1-methylethyl)-4-phenoxyphenyl]-<em>N</em>′-(1,1-dimethylethyl)-;<em>N</em>-[2,6-Bis(1-methylethyl)-4-phenoxyphenyl]-<em>N</em>′-(1,1-dimethylethyl)thiourea;Diafenthiuron;CGA 106630;Polo;Pegasus;Pegasus (pesticide);Dingminiao;Gamba;1-<em>tert</em>-Butyl-3-(2,6-diisopropyl-4-phenoxyphenyl)thiourea;Phoenix;Phoenix (thiourea insecticide);Polo 500 SC;Polo 500",
    "duplicated_cas_no": "",
    "SMILES": "N(C(NC(C)(C)C)=S)C1=C(C(C)C)C=C(OC2=CC=CC=C2)C=C1C(C)C",
    "meta_data": {
        "InChI": "InChI=1S/C23H32N2OS/c1-15(2)19-13-18(26-17-11-9-8-10-12-17)14-20(16(3)4)21(19)24-22(27)25-23(5,6)7/h8-16H,1-7H3,(H2,24,25,27)",
        "InChIKey": null,
        "Canonical SMILES": "S=C(NC=1C(=CC(OC=2C=CC=CC2)=CC1C(C)C)C(C)C)NC(C)(C)C",
        "Molecular Formula": "C<sub>23</sub>H<sub>32</sub>N<sub>2</sub>OS",
        "Molecular Mass": "384.58",
        "Melting Point": "146 °C"
    }
}