{
    "cas_no": "2879-15-4",
    "key_name": "3,9-Dihydro-1,3-dimethyl-8-(phenylmethyl)-1<em>H</em>-purine-2,6-dione",
    "cn_name": "8-苄基茶碱;",
    "alternate_name": "1<em>H</em>-Purine-2,6-dione, 3,9-dihydro-1,3-dimethyl-8-(phenylmethyl)-;Theophylline, 8-benzyl-;1<em>H</em>-Purine-2,6-dione, 3,7-dihydro-1,3-dimethyl-8-(phenylmethyl)-;3,9-Dihydro-1,3-dimethyl-8-(phenylmethyl)-1<em>H</em>-purine-2,6-dione;8-Benzyltheophylline;NSC 14131;8-Benzyltheophyline;8-Benzyl-1,3-dimethyl-2,3,6,7-tetrahydro-1<em>H</em>-purine-2,6-dione",
    "duplicated_cas_no": "",
    "SMILES": "O=C1C2=C(N(C)C(=O)N1C)N=C(CC3=CC=CC=C3)N2",
    "meta_data": {
        "InChI": "InChI=1S/C14H14N4O2/c1-17-12-11(13(19)18(2)14(17)20)15-10(16-12)8-9-6-4-3-5-7-9/h3-7H,8H2,1-2H3,(H,15,16)",
        "InChIKey": null,
        "Canonical SMILES": "O=C1C=2NC(=NC2N(C(=O)N1C)C)CC=3C=CC=CC3",
        "Molecular Formula": "C<sub>14</sub>H<sub>14</sub>N<sub>4</sub>O<sub>2</sub>",
        "Molecular Mass": "270.29",
        "Melting Point": "286-287 °C"
    }
}