{
    "cas_no": "595-37-9",
    "key_name": "2,2-Dimethylbutanoic acid",
    "cn_name": "2,2-二甲基丁酸;",
    "alternate_name": "Butanoic acid, 2,2-dimethyl-;Butyric acid, 2,2-dimethyl-;Butyric acid, α,α-dimethyl-;2,2-Dimethylbutanoic acid;2,2-Dimethylbutyric acid;α,α-Dimethylbutyric acid;Neohexanoic acid;α,α-Dimethylbutanoic acid;NSC 16045;NSC 741804;<em>tert</em>-Amylcarboxylic acid;Dimebutic acid",
    "duplicated_cas_no": "",
    "SMILES": "C(C(O)=O)(CC)(C)C",
    "meta_data": {
        "InChI": "InChI=1S/C6H12O2/c1-4-6(2,3)5(7)8/h4H2,1-3H3,(H,7,8)",
        "InChIKey": null,
        "Canonical SMILES": "O=C(O)C(C)(C)CC",
        "Molecular Formula": "C<sub>6</sub>H<sub>12</sub>O<sub>2</sub>",
        "Molecular Mass": "116.16",
        "Boiling Point": "186 °C",
        "Melting Point": "-14 °C",
        "Density": "0.9449 g/cm³ @ Temp: 0 °C"
    }
}