{
    "cas_no": "81405-85-8",
    "key_name": "Imazamethabenz-methyl",
    "cn_name": "咪草酸;",
    "alternate_name": "Benzoic acid, 2-[4,5-dihydro-4-methyl-4-(1-methylethyl)-5-oxo-1<em>H</em>-imidazol-2-yl]-4(<em>or</em> 5)-methyl-, methyl ester;AC 222293;Assert;Assert 300;Dagger;Imazamethabenz-methyl;Dagger G;Imazamethabenz methyl ester",
    "duplicated_cas_no": "104737-83-9",
    "SMILES": "",
    "meta_data": {
        "InChI": "",
        "InChIKey": null,
        "Canonical SMILES": "",
        "Molecular Formula": "C<sub>16</sub>H<sub>20</sub>N<sub>2</sub>O<sub>3</sub>",
        "Molecular Mass": "",
        "Melting Point": "133 °C"
    }
}