{
    "cas_no": "970-74-1",
    "key_name": "Epigallocatechin",
    "cn_name": "(-)-表没食子儿茶素;",
    "alternate_name": "2<em>H</em>-1-Benzopyran-3,5,7-triol, 3,4-dihydro-2-(3,4,5-trihydroxyphenyl)-, (2<em>R</em>,3<em>R</em>)-;2<em>H</em>-1-Benzopyran-3,5,7-triol, 3,4-dihydro-2-(3,4,5-trihydroxyphenyl)-, (2<em>R</em>-<em>cis</em>)-;Epigallocatechol;Gallocatechol, <em>l</em>-;(2<em>R</em>,3<em>R</em>)-3,4-Dihydro-2-(3,4,5-trihydroxyphenyl)-2<em>H</em>-1-benzopyran-3,5,7-triol;(-)-Epigallocatechin;(-)-Epigallocatechol;(-)-3,3′,4′,5,5′,7-Flavanhexol;<em>l</em>-Epigallocatechin;<em>l</em>-Epigallocatechol;Epigallocatechin;3,3′,4′,5,5′,7-Flavanhexol;Factor C<sub>2</sub> (antiscurvy);Antiscurvy factor C<sub>2</sub>;1-<em>epi</em>-3′,4′,5′,5,7-Pentahydroxy-3-flavanol;(-)-<em>epi</em>-Gallocatechin;<span class=\"text-smallcaps\">L</span>-Epigallocatechin;<em>epi</em>-Gallocatechin;NSC 674039;EGC;Sunphenon EGC;Galloepicatechin;(2<em>R</em>,3<em>R</em>)-2-(3,4,5-Trihydroxyphenyl)-3,5,7-trihydroxychroman",
    "duplicated_cas_no": "98032-84-9;2545-09-7",
    "SMILES": "O[C@H]1[C@H](OC=2C(C1)=C(O)C=C(O)C2)C3=CC(O)=C(O)C(O)=C3",
    "meta_data": {
        "InChI": "InChI=1S/C15H14O7/c16-7-3-9(17)8-5-12(20)15(22-13(8)4-7)6-1-10(18)14(21)11(19)2-6/h1-4,12,15-21H,5H2/t12-,15-/m1/s1",
        "InChIKey": null,
        "Canonical SMILES": "OC=1C=C(O)C2=C(OC(C3=CC(O)=C(O)C(O)=C3)C(O)C2)C1",
        "Molecular Formula": "C<sub>15</sub>H<sub>14</sub>O<sub>7</sub>",
        "Molecular Mass": "306.27",
        "Melting Point": "218 °C"
    }
}