{
    "cas_no": "171228-49-2",
    "key_name": "Posaconazole",
    "cn_name": "泊沙康唑;4-[4-[4-[4-[[(3R,5R)-5-(2,4-二氟苯基)-5-(1,2,4-三唑-1-基甲基)氧杂戊环-3-基]甲氧基]苯基]哌嗪;",
    "alternate_name": "<span class=\"text-smallcaps\">D</span>-<em>threo</em>-Pentitol, 2,5-anhydro-1,3,4-trideoxy-2-<em>C</em>-(2,4-difluorophenyl)-4-[[4-[4-[4-[1-[(1<em>S</em>,2<em>S</em>)-1-ethyl-2-hydroxypropyl]-1,5-dihydro-5-oxo-4<em>H</em>-1,2,4-triazol-4-yl]phenyl]-1-piperazinyl]phenoxy]methyl]-1-(1<em>H</em>-1,2,4-triazol-1-yl)-;3<em>H</em>-1,2,4-Triazol-3-one, 4-[4-[4-[4-[[5-(2,4-difluorophenyl)tetrahydro-5-(1<em>H</em>-1,2,4-triazol-1-ylmethyl)-3-furanyl]methoxy]phenyl]-1-piperazinyl]phenyl]-2-(1-ethyl-2-hydroxypropyl)-2,4-dihydro-, [3<em>R</em>-[3α(1<em>S</em>*,2<em>S</em>*),5α]]-;2,5-Anhydro-1,3,4-trideoxy-2-<em>C</em>-(2,4-difluorophenyl)-4-[[4-[4-[4-[1-[(1<em>S</em>,2<em>S</em>)-1-ethyl-2-hydroxypropyl]-1,5-dihydro-5-oxo-4<em>H</em>-1,2,4-triazol-4-yl]phenyl]-1-piperazinyl]phenoxy]methyl]-1-(1<em>H</em>-1,2,4-triazol-1-yl)-<span class=\"text-smallcaps\">D</span>-<em>threo</em>-pentitol;Sch 56592;Posaconazole;Noxafil;Posaconazole SP",
    "duplicated_cas_no": "177571-33-4;2408464-47-9",
    "SMILES": "C([C@@]1(C[C@H](COC2=CC=C(C=C2)N3CCN(CC3)C4=CC=C(C=C4)N5C(=O)N([C@H]([C@H](C)O)CC)N=C5)CO1)C6=C(F)C=C(F)C=C6)N7C=NC=N7",
    "meta_data": {
        "InChI": "InChI=1S/C37H42F2N8O4/c1-3-35(26(2)48)47-36(49)46(25-42-47)31-7-5-29(6-8-31)43-14-16-44(17-15-43)30-9-11-32(12-10-30)50-20-27-19-37(51-21-27,22-45-24-40-23-41-45)33-13-4-28(38)18-34(33)39/h4-13,18,23-27,35,48H,3,14-17,19-22H2,1-2H3/t26-,27+,35-,37-/m0/s1",
        "InChIKey": null,
        "Canonical SMILES": "O=C1N(N=CN1C2=CC=C(C=C2)N3CCN(C4=CC=C(OCC5COC(C6=CC=C(F)C=C6F)(CN7N=CN=C7)C5)C=C4)CC3)C(CC)C(O)C",
        "Molecular Formula": "C<sub>37</sub>H<sub>42</sub>F<sub>2</sub>N<sub>8</sub>O<sub>4</sub>",
        "Molecular Mass": "700.78",
        "Melting Point": "164-165 °C"
    }
}