{
    "cas_no": "152-16-9",
    "key_name": "Octamethyl",
    "cn_name": "八甲磷;八甲基焦磷酰胺;",
    "alternate_name": "Diphosphoramide, <em>N</em>,<em>N</em>,<em>N</em>′,<em>N</em>′,<em>N</em>′′,<em>N</em>′′,<em>N</em>′′′,<em>N</em>′′′-octamethyl-;Pyrophosphoramide, octamethyl-;Diphosphoramide, octamethyl-;<em>N</em>,<em>N</em>,<em>N</em>′,<em>N</em>′,<em>N</em>′′,<em>N</em>′′,<em>N</em>′′′,<em>N</em>′′′-Octamethyldiphosphoramide;Bis(dimethylamino)phosphonous anhydride;Octamethylpyrophosphoramide;Pestox 3;Schradan;Sytam;Tetrakisdimethylaminophosphonous anhydride;Pestox III;Pestox;OMPA;Octamethyl;Octamethylpyrophosphoric acid tetramide;Octamethylpyrophosphoric acid amide;NSC 8929",
    "duplicated_cas_no": "",
    "SMILES": "P(OP(N(C)C)(N(C)C)=O)(N(C)C)(N(C)C)=O",
    "meta_data": {
        "InChI": "InChI=1S/C8H24N4O3P2/c1-9(2)16(13,10(3)4)15-17(14,11(5)6)12(7)8/h1-8H3",
        "InChIKey": null,
        "Canonical SMILES": "O=P(OP(=O)(N(C)C)N(C)C)(N(C)C)N(C)C",
        "Molecular Formula": "C<sub>8</sub>H<sub>24</sub>N<sub>4</sub>O<sub>3</sub>P<sub>2</sub>",
        "Molecular Mass": "286.25",
        "Boiling Point": "120-125 °C @ Press: 0.5 Torr",
        "Melting Point": "17 °C",
        "Density": "1.1343 g/cm³ @ Temp: 25 °C"
    }
}