{
    "cas_no": "109-56-8",
    "key_name": "2-(Isopropylamino)ethanol",
    "cn_name": "2-[(1-甲基乙基)氨基]乙醇;2-(异丙基氨)乙醇;",
    "alternate_name": "Ethanol, 2-[(1-methylethyl)amino]-;Ethanol, 2-(isopropylamino)-;2-[(1-Methylethyl)amino]ethanol;2-(Isopropylamino)ethanol;2-(Monoisopropylamino)ethanol;<em>N</em>-(Hydroxyethyl)isopropylamine;<em>N</em>-Isopropylaminoethanol;<em>N</em>-Isopropylethanolamine;2-(<em>N</em>-Isopropylamino)ethanol;NSC 1090;NSC 128124;<em>N</em>-(2-Hydroxyethyl)isopropylamine;<em>N</em>-Isopropyl-2-hydroxyethylamine;2-(Isopropylamino)-1-ethanol;2-[(Propan-2-yl)amino]ethan-1-ol;2-(Propan-2-ylamino)ethanol",
    "duplicated_cas_no": "",
    "SMILES": "N(C(C)C)CCO",
    "meta_data": {
        "InChI": "InChI=1S/C5H13NO/c1-5(2)6-3-4-7/h5-7H,3-4H2,1-2H3",
        "InChIKey": null,
        "Canonical SMILES": "OCCNC(C)C",
        "Molecular Formula": "C<sub>5</sub>H<sub>13</sub>NO",
        "Molecular Mass": "103.16",
        "Boiling Point": "173 °C",
        "Melting Point": "128.5 °C",
        "Density": "0.8977 g/cm³ @ Temp: 25 °C"
    }
}