{
    "cas_no": "443-87-8",
    "key_name": "3-Fluoro-2-methylphenol",
    "cn_name": "3-氟-2-甲基苯酚;",
    "alternate_name": "Phenol, 3-fluoro-2-methyl-;<em>o</em>-Cresol, 3-fluoro-;3-Fluoro-2-methylphenol;NSC 190309",
    "duplicated_cas_no": "",
    "SMILES": "CC1=C(F)C=CC=C1O",
    "meta_data": {
        "InChI": "InChI=1S/C7H7FO/c1-5-6(8)3-2-4-7(5)9/h2-4,9H,1H3",
        "InChIKey": null,
        "Canonical SMILES": "FC1=CC=CC(O)=C1C",
        "Molecular Formula": "C<sub>7</sub>H<sub>7</sub>FO",
        "Molecular Mass": "126.13",
        "Boiling Point": "186-188 °C @ Press: 748 Torr",
        "Melting Point": "56.5 °C"
    }
}