{
    "cas_no": "39512-49-7",
    "key_name": "4-(4-Chlorophenyl)-4-hydroxypiperidine",
    "cn_name": "4-(4-氯苯基)-4-羟基哌啶;",
    "alternate_name": "4-Piperidinol, 4-(4-chlorophenyl)-;4-Piperidinol, 4-(<em>p</em>-chlorophenyl)-;4-(4-Chlorophenyl)-4-piperidinol;4-(<em>p</em>-Chlorophenyl)-4-piperidinol;4-(<em>p</em>-Chlorophenyl)-4-hydroxypiperidine;4-(4-Chlorophenyl)-4-hydroxypiperidine;4-Hydroxy-4-(4-chlorophenyl)piperidine;4-Hydroxy-4-(<em>p</em>-chlorophenyl)piperidine;4-(4′-Chlorophenyl)piperidin-4-ol;NSC 89568",
    "duplicated_cas_no": "132764-70-6",
    "SMILES": "OC1(CCNCC1)C2=CC=C(Cl)C=C2",
    "meta_data": {
        "InChI": "InChI=1S/C11H14ClNO/c12-10-3-1-9(2-4-10)11(14)5-7-13-8-6-11/h1-4,13-14H,5-8H2",
        "InChIKey": null,
        "Canonical SMILES": "ClC1=CC=C(C=C1)C2(O)CCNCC2",
        "Molecular Formula": "C<sub>11</sub>H<sub>14</sub>ClNO",
        "Molecular Mass": "211.69",
        "Melting Point": "134.4-136.0 °C"
    }
}