{
    "cas_no": "174899-66-2",
    "key_name": "1-Butyl-3-methylimidazolium trifluoromethanesulfonate",
    "cn_name": "1-正丁基-3-甲基咪唑三氟甲烷磺酸盐;",
    "alternate_name": "1<em>H</em>-Imidazolium, 3-butyl-1-methyl-, 1,1,1-trifluoromethanesulfonate (1:1);1<em>H</em>-Imidazolium, 1-butyl-3-methyl-, salt with trifluoromethanesulfonic acid (1:1);1-Butyl-3-methylimidazolium trifluoromethanesulfonate;1-Butyl-3-methylimidazolium triflate;1-<em>n</em>-Butyl-3-methylimidazolium triflate;1-Butyl-3-methyl-1<em>H</em>-imidazolium salt with trifluoromethanesulfonic acid (1:1);1-Butyl-3-methyl-1<em>H</em>-imidazolium trifluoromethanesulfonate;3-Butyl-1-methylimidazolium triflate;Bmim triflate;B 2337;1-Methyl-3-butylimidazolium trifluoromethylsulfonate;1-Methyl-3-butylimidazolium trifluoromethanesulfonate;[MIM][OTf];Butylmethylimidazolium trifluoromethanesulfonate;1-Butyl-3-methylimidazolium trifluoromethanesulfonate(1-);1-Butyl-3-methylimidazolium trifluoromethansulfonate;1-Butyl-3-methylimidazolium trifluoromethanesufonate",
    "duplicated_cas_no": "870079-68-8",
    "SMILES": "C(CCC)[N+]1=CN(C)C=C1.C(S(=O)(=O)[O-])(F)(F)F",
    "meta_data": {
        "InChI": "InChI=1S/C8H15N2.CHF3O3S/c1-3-4-5-10-7-6-9(2)8-10;2-1(3,4)8(5,6)7/h6-8H,3-5H2,1-2H3;(H,5,6,7)/q+1;/p-1",
        "InChIKey": null,
        "Canonical SMILES": "O=S(=O)([O-])C(F)(F)F.C1=C[N+](=CN1C)CCCC",
        "Molecular Formula": "C<sub>8</sub>H<sub>15</sub>N<sub>2</sub>.CF<sub>3</sub>O<sub>3</sub>S",
        "Molecular Mass": "",
        "Melting Point": "16.4 °C",
        "Density": "1.3013 g/cm³ @ Temp: 22.5-22.7 °C; Press: 800 Torr"
    }
}