{
    "cas_no": "61379-65-5",
    "key_name": "Rifapentine",
    "cn_name": "利福喷丁;环戊哌嗪利福霉素;环戊去甲利福平;环戊利福平;3-(4-环戊基-1-哌嗪基-亚氨甲基)-利福霉素;",
    "alternate_name": "Rifamycin, 3-[[(4-cyclopentyl-1-piperazinyl)imino]methyl]-;2,7-(Epoxypentadeca[1,11,13]trienimino)naphtho[2,1-<em>b</em>]furan, rifamycin deriv.;3-[[(4-Cyclopentyl-1-piperazinyl)imino]methyl]rifamycin;Rifamycin AF/ACPP;DL 473;Antibiotic DL 473IT;Rifapentine;MDL 473;Cyclopentylrifampicin;R 77-3;KTC 1;Priftin;Rifapentin;Prifitin",
    "duplicated_cas_no": "71950-35-1;773848-08-1",
    "SMILES": "",
    "meta_data": {
        "InChI": "",
        "InChIKey": null,
        "Canonical SMILES": "",
        "Molecular Formula": "C<sub>47</sub>H<sub>64</sub>N<sub>4</sub>O<sub>12</sub>",
        "Molecular Mass": "877.03",
        "Melting Point": "179-180 °C"
    }
}