{
    "cas_no": "39929-79-8",
    "key_name": "7-Deazaxanthine",
    "cn_name": "2,4-二羟基吡咯[2,3-d]嘧啶;",
    "alternate_name": "1<em>H</em>-Pyrrolo[2,3-<em>d</em>]pyrimidine-2,4(3<em>H</em>,7<em>H</em>)-dione;7<em>H</em>-Pyrrolo[2,3-<em>d</em>]pyrimidine-2,4-diol;7-Deazaxanthine;1,7-Dihydropyrrolo[2,3-<em>d</em>]pyrimidine-2,4-dione;1,7-Dihydro-pyrrolo[2,3-<em>d</em>]pyrimidine-2,4-dione",
    "duplicated_cas_no": "",
    "SMILES": "O=C1C2=C(NC(=O)N1)NC=C2",
    "meta_data": {
        "InChI": "InChI=1S/C6H5N3O2/c10-5-3-1-2-7-4(3)8-6(11)9-5/h1-2H,(H3,7,8,9,10,11)",
        "InChIKey": null,
        "Canonical SMILES": "O=C1NC(=O)C=2C=CNC2N1",
        "Molecular Formula": "C<sub>6</sub>H<sub>5</sub>N<sub>3</sub>O<sub>2</sub>",
        "Molecular Mass": "151.12",
        "Melting Point": "&gt;330 °C"
    }
}