{
    "cas_no": "106-42-3",
    "key_name": "<em>p</em>-Xylene",
    "cn_name": "对二甲苯;1,4-二甲苯;P-二甲苯;對二甲苯;",
    "alternate_name": "Benzene, 1,4-dimethyl-;<em>p</em>-Xylene;1,4-Dimethylbenzene;<em>p</em>-Xylol;1,4-Xylene;<em>p</em>-Dimethylbenzene;<em>p</em>-Methyltoluene;4-Methyltoluene;<em>p</em>-Phenylenebis(methylene);NSC 72419",
    "duplicated_cas_no": "",
    "SMILES": "CC1=CC=C(C)C=C1",
    "meta_data": {
        "InChI": "InChI=1S/C8H10/c1-7-3-5-8(2)6-4-7/h3-6H,1-2H3",
        "InChIKey": null,
        "Canonical SMILES": "C=1C=C(C=CC1C)C",
        "Molecular Formula": "C<sub>8</sub>H<sub>10</sub>",
        "Molecular Mass": "106.17",
        "Boiling Point": "138.35 °C",
        "Melting Point": "13.2 °C",
        "Density": "0.86104 g/cm³ @ Temp: 20 °C"
    }
}