{
    "cas_no": "3278-89-5",
    "key_name": "Allyl 2,4,6-tribromophenyl ether",
    "cn_name": "三溴苯烯丙醚;2,4,6-三溴苯基烯丙基醚;",
    "alternate_name": "Benzene, 1,3,5-tribromo-2-(2-propen-1-yloxy)-;Ether, allyl 2,4,6-tribromophenyl;Benzene, 1,3,5-tribromo-2-(2-propenyloxy)-;1,3,5-Tribromo-2-(2-propen-1-yloxy)benzene;2,4,6-Tribromophenyl allyl ether;Allyl 2,4,6-tribromophenyl ether;Pyroguard FR 100;NSC 35767;TBPAE;1,3,5-Tribromo-2-prop-2-enoxybenzene;2-Allyloxy-1,3,5-tribromobenzene",
    "duplicated_cas_no": "",
    "SMILES": "O(CC=C)C1=C(Br)C=C(Br)C=C1Br",
    "meta_data": {
        "InChI": "InChI=1S/C9H7Br3O/c1-2-3-13-9-7(11)4-6(10)5-8(9)12/h2,4-5H,1,3H2",
        "InChIKey": null,
        "Canonical SMILES": "BrC=1C=C(Br)C(OCC=C)=C(Br)C1",
        "Molecular Formula": "C<sub>9</sub>H<sub>7</sub>Br<sub>3</sub>O",
        "Molecular Mass": "370.86",
        "Melting Point": "41-42 °C"
    }
}