{
    "cas_no": "23593-75-1",
    "key_name": "Clotrimazole",
    "cn_name": "克霉唑;1-[(2-氯苯基)二苯甲基]-1H-咪唑;",
    "alternate_name": "1<em>H</em>-Imidazole, 1-[(2-chlorophenyl)diphenylmethyl]-;Imidazole, 1-(<em>o</em>-chloro-α,α-diphenylbenzyl)-;1-[(2-Chlorophenyl)diphenylmethyl]-1<em>H</em>-imidazole;1-(<em>o</em>-Chlorotrityl)imidazole;Clotrimazole;Diphenyl(2-chlorophenyl)(1-imidazolyl)methane;1-(<em>o</em>-Chlorophenyldiphenylmethyl)imidazole;BAY 5097;Canesten;Mycosporin;BAY-B 5097;Empecid;Lotrimin;Desamix F;Mycelex;Gyne-Lotrimin;Canifug;Lotrimin AF Solution;Veltrim;Femcare;Mycelex OTC;Mycelex Troche;Lotrimin Jock-Itch Cream;Trimysten;Rimazole;Mycelex 7;Mycofug;Mycelex G;Monobaycuten;Lotrimin AF Cream;Tibatin;Lotrimin Jock-Itch Lotion;Pedisafe;BAY 5907;NSC 257473;Gyne-Lotrimin 7;Plimycol;Locasten;Agisten;Clotrimazol;MeSH ID: D003022",
    "duplicated_cas_no": "117829-71-7",
    "SMILES": "C(C1=C(Cl)C=CC=C1)(N2C=CN=C2)(C3=CC=CC=C3)C4=CC=CC=C4",
    "meta_data": {
        "InChI": "InChI=1S/C22H17ClN2/c23-21-14-8-7-13-20(21)22(25-16-15-24-17-25,18-9-3-1-4-10-18)19-11-5-2-6-12-19/h1-17H",
        "InChIKey": null,
        "Canonical SMILES": "ClC=1C=CC=CC1C(C=2C=CC=CC2)(C=3C=CC=CC3)N4C=NC=C4",
        "Molecular Formula": "C<sub>22</sub>H<sub>17</sub>ClN<sub>2</sub>",
        "Molecular Mass": "344.84",
        "Melting Point": "147-149 °C"
    }
}