{
    "cas_no": "13708-12-8",
    "key_name": "5-Methylquinoxaline",
    "cn_name": "5-甲基喹喔啉;5-甲基喹喔啉;",
    "alternate_name": "Quinoxaline, 5-methyl-;5-Methylquinoxaline",
    "duplicated_cas_no": "",
    "SMILES": "CC=1C2=C(C=CC1)N=CC=N2",
    "meta_data": {
        "InChI": "InChI=1S/C9H8N2/c1-7-3-2-4-8-9(7)11-6-5-10-8/h2-6H,1H3",
        "InChIKey": null,
        "Canonical SMILES": "N1=CC=NC=2C1=CC=CC2C",
        "Molecular Formula": "C<sub>9</sub>H<sub>8</sub>N<sub>2</sub>",
        "Molecular Mass": "144.17",
        "Boiling Point": "120 °C @ Press: 15 Torr",
        "Melting Point": "20-21 °C"
    }
}