{
    "cas_no": "37156-84-6",
    "key_name": "4-[5-Amino-6-(phenylmethyl)-2-pyrazinyl]phenol",
    "cn_name": null,
    "alternate_name": "Phenol, 4-[5-amino-6-(phenylmethyl)-2-pyrazinyl]-;Phenol, 4-[5-amino-6-(phenylmethyl)pyrazinyl]-;4-[5-Amino-6-(phenylmethyl)-2-pyrazinyl]phenol;2-Amino-3-benzyl-5-(4′-hydroxyphenyl)pyrazine;2-Amino-3-benzyl 5-(<em>p</em>-hydroxyphenyl)pyrazine;Coelenteramine;Etioluciferin (Oplophorus);Etioluciferin;Aetioluciferin;2-Amino-3-benzyl-5-(4-hydroxyphenyl)pyrazine;4-(5-Amino-6-benzylpyrazin-2-yl)phenol",
    "duplicated_cas_no": "",
    "SMILES": "C(C=1N=C(C=NC1N)C2=CC=C(O)C=C2)C3=CC=CC=C3",
    "meta_data": {
        "InChI": "InChI=1S/C17H15N3O/c18-17-15(10-12-4-2-1-3-5-12)20-16(11-19-17)13-6-8-14(21)9-7-13/h1-9,11,21H,10H2,(H2,18,19)",
        "InChIKey": null,
        "Canonical SMILES": "OC1=CC=C(C=C1)C2=NC(=C(N=C2)N)CC=3C=CC=CC3",
        "Molecular Formula": "C<sub>17</sub>H<sub>15</sub>N<sub>3</sub>O",
        "Molecular Mass": "277.32",
        "Melting Point": "201.6-203.1 °C"
    }
}