{
    "cas_no": "10042-76-9",
    "key_name": "Strontium nitrate",
    "cn_name": "硝酸锶;",
    "alternate_name": "Nitric acid, strontium salt (2:1);Nitric acid, strontium salt;Strontium nitrate;Strontium dinitrate;Strontium nitrate (Sr(NO<sub>3</sub>)<sub>2</sub>);Strontium(2+) nitrate;Strontium nitrate (Sr(NO<sub>3</sub>)<sub>2</sub>)",
    "duplicated_cas_no": "518051-66-6;2374820-99-0;2684195-41-1;2709006-58-4;2952711-57-6",
    "SMILES": "N(=O)(=O)O.[Sr]",
    "meta_data": {
        "InChI": "InChI=1S/HNO3.Sr/c2-1(3)4;/h(H,2,3,4);",
        "InChIKey": null,
        "Canonical SMILES": "[Sr].O=N(=O)O",
        "Molecular Formula": "HNO<sub>3</sub>.<sup>1</sup>/<sub>2</sub>Sr",
        "Molecular Mass": "",
        "Boiling Point": "645 °C",
        "Melting Point": "570 °C",
        "Density": "2.99 g/cm³"
    }
}