{
    "cas_no": "12239-34-8",
    "key_name": "Disperse Blue 79",
    "cn_name": null,
    "alternate_name": "Acetamide, <em>N</em>-[5-[bis[2-(acetyloxy)ethyl]amino]-2-[2-(2-bromo-4,6-dinitrophenyl)diazenyl]-4-ethoxyphenyl]-;C.I. Disperse Blue 79;Acetamide, <em>N</em>-[5-[bis[2-(acetyloxy)ethyl]amino]-2-[(2-bromo-4,6-dinitrophenyl)azo]-4-ethoxyphenyl]-;<em>p</em>-Acetophenetidide, 5′-[bis(2-hydroxyethyl)amino]-2′-[(2-bromo-4,6-dinitrophenyl)azo]-, diacetate;<em>N</em>-[5-[Bis[2-(acetyloxy)ethyl]amino]-2-[2-(2-bromo-4,6-dinitrophenyl)diazenyl]-4-ethoxyphenyl]acetamide;Samaron Navy Blue G;Foron Navy 2GL;Foron Navy S 2GL;Foron Navy Blue S 2GL;Disperse Blue 79;Eastman Polyester Navy Blue 2R-LSW;Ostacet Navy Blue S-G;Navy Blue 2GL;Disperse Navy Blue 2GL;Disperse Blue 2GL;2-Bromo-4,6-dinitrophenylazo-2-acetamido-4-di-(2-acetoxyethyl)amino-5-ethoxybenzene;2′-Acetylamino-4′-[bis(acetoxyethyl)amino]-6-bromo-2,4-dinitro-5′-ethoxyazobenzene;2-Acetamido-4-[<em>N</em>,<em>N</em>-bis(β-acetoxyethyl)amino]-5-ethoxy-2′-bromo-4′,6′-dinitroazobenzene;Tulasteron Fast Navy Blue 2G-D;Samaron Marine Blue G;Terasil Navy GRL;Foron Navy S 2GLI;Serilene Navy Blue 2GN-LS;C.I. 11345;Miketon Polyester Navy Blue GLSF;Tulasteron Navy Blue 2GDN;Disperse Blue HGL;Dianix Navy S 2G;Disperse Dark Blue HGL;Disperse Deep Blue H-GL;Lonsperse Dark Blue HGL;Disperse Navy Blue HGL",
    "duplicated_cas_no": "3956-55-6;50814-74-9;52276-87-6;67426-79-3;73299-48-6;301323-52-4",
    "SMILES": "N(CCOC(C)=O)(CCOC(C)=O)C1=C(OCC)C=C(N=NC2=C(N(=O)=O)C=C(N(=O)=O)C=C2Br)C(NC(C)=O)=C1",
    "meta_data": {
        "InChI": "InChI=1S/C24H27BrN6O10/c1-5-39-23-13-20(27-28-24-18(25)10-17(30(35)36)11-22(24)31(37)38)19(26-14(2)32)12-21(23)29(6-8-40-15(3)33)7-9-41-16(4)34/h10-13H,5-9H2,1-4H3,(H,26,32)",
        "InChIKey": null,
        "Canonical SMILES": "O=C(OCCN(C1=CC(NC(=O)C)=C(N=NC2=C(Br)C=C(C=C2N(=O)=O)N(=O)=O)C=C1OCC)CCOC(=O)C)C",
        "Molecular Formula": "C<sub>24</sub>H<sub>27</sub>BrN<sub>6</sub>O<sub>10</sub>",
        "Molecular Mass": "639.41",
        "Melting Point": "157 °C"
    }
}