{
    "cas_no": "16867-03-1",
    "key_name": "2-Amino-3-hydroxypyridine",
    "cn_name": null,
    "alternate_name": "3-Pyridinol, 2-amino-;2-Amino-3-pyridinol;2-Amino-3-hydroxypyridine;3-Hydroxy-2-pyridinamine;3-Hydroxy-2-aminopyridine;NSC 136806;3-Hydroxypyridine-2-amine",
    "duplicated_cas_no": "",
    "SMILES": "OC1=C(N)N=CC=C1",
    "meta_data": {
        "InChI": "InChI=1S/C5H6N2O/c6-5-4(8)2-1-3-7-5/h1-3,8H,(H2,6,7)",
        "InChIKey": null,
        "Canonical SMILES": "OC1=CC=CN=C1N",
        "Molecular Formula": "C<sub>5</sub>H<sub>6</sub>N<sub>2</sub>O",
        "Molecular Mass": "110.11",
        "Melting Point": "167-170 °C"
    }
}