{
    "cas_no": "24297-59-4",
    "key_name": "1<em>H</em>-Indole-1-acetic acid",
    "cn_name": "吲哚-1-乙酸;",
    "alternate_name": "1<em>H</em>-Indole-1-acetic acid;Indole-1-acetic acid;Indole-<em>N</em>-acetic acid;<em>N</em>-Indolylacetic acid;NSC 75866;(Indole-1-yl)acetic acid;2-(1<em>H</em>-Indol-1-yl)acetic acid;2-Indol-1-ylacetic acid",
    "duplicated_cas_no": "",
    "SMILES": "C(C(O)=O)N1C=2C(C=C1)=CC=CC2",
    "meta_data": {
        "InChI": "InChI=1S/C10H9NO2/c12-10(13)7-11-6-5-8-3-1-2-4-9(8)11/h1-6H,7H2,(H,12,13)",
        "InChIKey": null,
        "Canonical SMILES": "O=C(O)CN1C=CC=2C=CC=CC21",
        "Molecular Formula": "C<sub>10</sub>H<sub>9</sub>NO<sub>2</sub>",
        "Molecular Mass": "175.18",
        "Melting Point": "178.4-179.4 °C"
    }
}