{
    "cas_no": "123-47-7",
    "key_name": "1,3-Propanediaminium, 2-hydroxy-<em>N</em><sup>1</sup>,<em>N</em><sup>1</sup>,<em>N</em><sup>1</sup>,<em>N</em><sup>3</sup>,<em>N</em><sup>3</sup>,<em>N</em><sup>3</sup>-hexamethyl-, iodide (1:2)",
    "cn_name": "普鲁碘胺;安妥碘;",
    "alternate_name": "1,3-Propanediaminium, 2-hydroxy-<em>N</em><sup>1</sup>,<em>N</em><sup>1</sup>,<em>N</em><sup>1</sup>,<em>N</em><sup>3</sup>,<em>N</em><sup>3</sup>,<em>N</em><sup>3</sup>-hexamethyl-, iodide (1:2);Ammonium, (2-hydroxytrimethylene)bis[trimethyl-, diiodide;1,3-Propanediaminium, 2-hydroxy-<em>N</em>,<em>N</em>,<em>N</em>,<em>N</em>′,<em>N</em>′,<em>N</em>′-hexamethyl-, diiodide;(2-Hydroxytrimethylene)bis[trimethylammonium iodide];Endoiodin;Endoiodine;Endoyodina;Entodon;Esoiodine;Hexayodina;Iodisan;Prolonium iodide;Propiodal;Yodanodia;Intraiodine;Endojodin;Yodorgan;Iodo-Fluothymina;Iodoxil;Espectona-Gotas;Soluyodina;Intrajodin;2-Hydroxy-<em>N</em>,<em>N</em>,<em>N</em>,<em>N</em>′,<em>N</em>′,<em>N</em>′-hexamethyl-1,3-propane diaminium diiodide",
    "duplicated_cas_no": "",
    "SMILES": "C([N+](C)(C)C)C(C[N+](C)(C)C)O.[I-]",
    "meta_data": {
        "InChI": "InChI=1S/C9H24N2O.2HI/c1-10(2,3)7-9(12)8-11(4,5)6;;/h9,12H,7-8H2,1-6H3;2*1H/q+2;;/p-2",
        "InChIKey": null,
        "Canonical SMILES": "[I-].OC(C[N+](C)(C)C)C[N+](C)(C)C",
        "Molecular Formula": "C<sub>9</sub>H<sub>24</sub>N<sub>2</sub>O.2I",
        "Molecular Mass": "",
        "Melting Point": "275 °C (decomp)"
    }
}