{
    "cas_no": "4023-02-3",
    "key_name": "1<em>H</em>-Pyrazole-1-carboxamidine hydrochloride",
    "cn_name": "1H-吡唑-1-甲脒盐酸盐;",
    "alternate_name": "1<em>H</em>-Pyrazole-1-carboximidamide, hydrochloride (1:1);Pyrazole-1-carboxamidine, hydrochloride;1<em>H</em>-Pyrazole-1-carboximidamide, monohydrochloride;1<em>H</em>-Pyrazole-1-carboxamidine hydrochloride;Pyrazole-1-carboximidamide hydrochloride;Praxadine hydrochloride;1-Amidinopyrazole hydrochloride;1<em>H</em>-Pyrazole-1-carboxamidine monohydrochloride;[Amino(pyrazol-1-yl)methylene]ammonium chloride",
    "duplicated_cas_no": "",
    "SMILES": "C(=N)(N)N1C=CC=N1.Cl",
    "meta_data": {
        "InChI": "InChI=1S/C4H6N4.ClH/c5-4(6)8-3-1-2-7-8;/h1-3H,(H3,5,6);1H",
        "InChIKey": null,
        "Canonical SMILES": "Cl.N=C(N)N1N=CC=C1",
        "Molecular Formula": "C<sub>4</sub>H<sub>6</sub>N<sub>4</sub>.ClH",
        "Molecular Mass": "",
        "Melting Point": "165-166 °C"
    }
}