{
    "cas_no": "2396-65-8",
    "key_name": "1,8-Nonadiyne",
    "cn_name": "1,8-壬二炔;",
    "alternate_name": "1,8-Nonadiyne;NSC 35136",
    "duplicated_cas_no": "",
    "SMILES": "C(CCC#C)CCC#C",
    "meta_data": {
        "InChI": "InChI=1S/C9H12/c1-3-5-7-9-8-6-4-2/h1-2H,5-9H2",
        "InChIKey": null,
        "Canonical SMILES": "C#CCCCCCC#C",
        "Molecular Formula": "C<sub>9</sub>H<sub>12</sub>",
        "Molecular Mass": "120.19",
        "Boiling Point": "162 °C",
        "Melting Point": "-27.3 °C",
        "Density": "0.8158 g/cm³ @ Temp: 20 °C"
    }
}