{
    "cas_no": "13001-39-3",
    "key_name": "2,2′-(1,4-Phenylenedi-2,1-ethenediyl)bis[benzonitrile]",
    "cn_name": "1,4-双(2-氰基苯乙烯基)苯;",
    "alternate_name": "Benzonitrile, 2,2′-(1,4-phenylenedi-2,1-ethenediyl)bis-;Benzonitrile, 2,2′-(<em>p</em>-phenylenedivinylene)di-;2,2′-(1,4-Phenylenedi-2,1-ethenediyl)bis[benzonitrile];ER 1;ER-I;Fluorescent Agent ER;2,2′-(1,4-Phenylenebis(ethene-2,1-diyl))dibenzonitrile;1,4-Bis(2-cyanostyryl)benzene;Fluorescent Brightener CPA;DTXSID4065317",
    "duplicated_cas_no": "",
    "SMILES": "C(=CC1=CC=C(C=CC2=C(C#N)C=CC=C2)C=C1)C3=C(C#N)C=CC=C3",
    "meta_data": {
        "InChI": "InChI=1S/C24H16N2/c25-17-23-7-3-1-5-21(23)15-13-19-9-11-20(12-10-19)14-16-22-6-2-4-8-24(22)18-26/h1-16H",
        "InChIKey": null,
        "Canonical SMILES": "N#CC=1C=CC=CC1C=CC2=CC=C(C=C2)C=CC=3C=CC=CC3C#N",
        "Molecular Formula": "C<sub>24</sub>H<sub>16</sub>N<sub>2</sub>",
        "Molecular Mass": "332.40",
        "Melting Point": "229-231 °C"
    }
}