{
    "cas_no": "7722-84-1",
    "key_name": "Hydrogen peroxide",
    "cn_name": "过氧化氢;双氧水;",
    "alternate_name": "Hydrogen peroxide (H<sub>2</sub>O<sub>2</sub>);Hydrogen peroxide;Albone;Inhibine;Perhydrol;Peroxaan;Hydrogen dioxide;T-Stuff;Superoxol;Albone DS;Oxysept I;Oxyfull;Odosat D;Hybrite;Select Bleach;Albone 35;Perone;Oxydol;Baquashock;Hipox;Metrokur;CIX;Peroxclean;Anti-Keim 50;Hioxyl;Oxysept;Mirasept;Lensan A;Pegasyl;Asepticper;NSC 19892;Crystacide;Dentasept;Oxigenal;Adeka Super EL;Crestal Whitestrips;Xtra White;Opalescence Xtra;Deslime LP;Quasar Brite;Clarigel Gold;Whitespeed;Nite White Excel 2;Magic Bleaching;Whiteness HP;Lase Peroxide;OxiDate;Crest whitestrips;Zerosil;Interox ST 50;Opalescence Xtra Boost;Dioxy 100L;EcoClearProx;Virox;Poladay;Opalescence Boost PF;Dezinbak Super;B-Cap 35;B-Cap 50;M 70;M 70 (peroxide);Whiteness HP/FGM;TerraClean;Corega Extradent;Day White;Interox Paramove 50;Peroxy-Blend PB 33;Peroxy-Blend PB 31;Whiteness HP Maxx;Neoseptal D;Perhidrol;Oxidol;Opalescence BOOST;ZOOM 2;Interox ST 60;Arion Cronos;Oxysept Comfort;OX-AGUA AL25;Peroxal 50;Diapower HP;UELM 35;B 296644;FQ 301;Hyprox 350;MeSH ID: D006861;Welloxon Perfect",
    "duplicated_cas_no": "8007-30-5;37355-84-3;66554-50-5;97929-73-2;218625-72-0",
    "SMILES": "OO",
    "meta_data": {
        "InChI": "InChI=1S/H2O2/c1-2/h1-2H",
        "InChIKey": null,
        "Canonical SMILES": "OO",
        "Molecular Formula": "H<sub>2</sub>O<sub>2</sub>",
        "Molecular Mass": "34.01",
        "Boiling Point": "152 °C",
        "Melting Point": "-0.43 °C",
        "Density": "1.4425 g/cm³ @ Temp: 25 °C"
    }
}