{
    "cas_no": "2052-46-2",
    "key_name": "1,4-Benzenediamine, <em>N</em><sup>1</sup>,<em>N</em><sup>1</sup>-dimethyl-, hydrochloride (1:1)",
    "cn_name": null,
    "alternate_name": "1,4-Benzenediamine, <em>N</em><sup>1</sup>,<em>N</em><sup>1</sup>-dimethyl-, hydrochloride (1:1);<em>p</em>-Phenylenediamine, <em>N</em>,<em>N</em>-dimethyl-, monohydrochloride;1,4-Benzenediamine, <em>N</em>,<em>N</em>-dimethyl-, monohydrochloride;<em>p</em>-Amino-<em>N</em>,<em>N</em>-dimethylaniline monohydrochloride;<em>N</em>,<em>N</em>-Dimethyl-<em>p</em>-phenylenediamine monohydrochloride;<em>N</em>,<em>N</em>-Dimethyl-1,4-benzenediamine hydrochloride;<em>N</em>,<em>N</em>-Dimethyl-1,4-phenylenediamine monohydrochloride",
    "duplicated_cas_no": "",
    "SMILES": "N(C)(C)C1=CC=C(N)C=C1.Cl",
    "meta_data": {
        "InChI": "InChI=1S/C8H12N2.ClH/c1-10(2)8-5-3-7(9)4-6-8;/h3-6H,9H2,1-2H3;1H",
        "InChIKey": null,
        "Canonical SMILES": "Cl.NC1=CC=C(C=C1)N(C)C",
        "Molecular Formula": "C<sub>8</sub>H<sub>12</sub>N<sub>2</sub>.ClH",
        "Molecular Mass": "",
        "Melting Point": "219 °C (decomp)"
    }
}