{
    "cas_no": "288-36-8",
    "key_name": "1<em>H</em>-1,2,3-Triazole",
    "cn_name": null,
    "alternate_name": "1<em>H</em>-1,2,3-Triazole;<em>v</em>-Triazole;Pyrrodiazole;Triazacyclopentadiene;Osotriazole;1,2,3-Triazole;2<em>H</em>-1,2,3-Triazole;2,3-Diazapyrrole",
    "duplicated_cas_no": "116421-30-8",
    "SMILES": "C1=CN=NN1",
    "meta_data": {
        "InChI": "InChI=1S/C2H3N3/c1-2-4-5-3-1/h1-2H,(H,3,4,5)",
        "InChIKey": null,
        "Canonical SMILES": "N1=NNC=C1",
        "Molecular Formula": "C<sub>2</sub>H<sub>3</sub>N<sub>3</sub>",
        "Molecular Mass": "69.07",
        "Boiling Point": "204 °C",
        "Melting Point": "23 °C"
    }
}