{
    "cas_no": "16839-13-7",
    "key_name": "<em>P</em>-(4-Bromophenyl)phosphonic acid",
    "cn_name": null,
    "alternate_name": "Phosphonic acid, <em>P</em>-(4-bromophenyl)-;Phosphonic acid, (<em>p</em>-bromophenyl)-;Phosphonic acid, (4-bromophenyl)-;<em>P</em>-(4-Bromophenyl)phosphonic acid;<em>p</em>-Bromobenzenephosphonic acid;NSC 13558;4-Bromophenylphosphonic acid",
    "duplicated_cas_no": "",
    "SMILES": "P(=O)(O)(O)C1=CC=C(Br)C=C1",
    "meta_data": {
        "InChI": "InChI=1S/C6H6BrO3P/c7-5-1-3-6(4-2-5)11(8,9)10/h1-4H,(H2,8,9,10)",
        "InChIKey": null,
        "Canonical SMILES": "O=P(O)(O)C1=CC=C(Br)C=C1",
        "Molecular Formula": "C<sub>6</sub>H<sub>6</sub>BrO<sub>3</sub>P",
        "Molecular Mass": "236.99",
        "Melting Point": "200-202 °C"
    }
}