{
    "cas_no": "4291-60-5",
    "key_name": "Tilianin",
    "cn_name": null,
    "alternate_name": "4<em>H</em>-1-Benzopyran-4-one, 7-(β-<span class=\"text-smallcaps\">D</span>-glucopyranosyloxy)-5-hydroxy-2-(4-methoxyphenyl)-;Tilianin;7-(β-<span class=\"text-smallcaps\">D</span>-Glucopyranosyloxy)-5-hydroxy-2-(4-methoxyphenyl)-4<em>H</em>-1-benzopyran-4-one;Moldavoside;Acacetin 7-<em>O</em>-β-<span class=\"text-smallcaps\">D</span>-glucopyranoside;Acacetin 7-<em>O</em>-glucoside;Acacetin 7-glucoside;Astroside;7-<em>O</em>-β-<span class=\"text-smallcaps\">D</span>-Glucopyranosyl-4′-methylapigenin;Acacetin 7-<em>O</em>-β-<span class=\"text-smallcaps\">D</span>-glucoside;Apigenin-7-<em>O</em>-β-<span class=\"text-smallcaps\">D</span>-glucopyranoside-4′-<em>O</em>-methyl ether;Tilianine;Clerodendronone 1b",
    "duplicated_cas_no": "101757-98-6;20943-10-6;27635-50-3",
    "SMILES": "O=C1C=2C(OC(=C1)C3=CC=C(OC)C=C3)=CC(O[C@@H]4O[C@H](CO)[C@@H](O)[C@H](O)[C@H]4O)=CC2O",
    "meta_data": {
        "InChI": "InChI=1S/C22H22O10/c1-29-11-4-2-10(3-5-11)15-8-14(25)18-13(24)6-12(7-16(18)31-15)30-22-21(28)20(27)19(26)17(9-23)32-22/h2-8,17,19-24,26-28H,9H2,1H3/t17-,19-,20+,21-,22-/m1/s1",
        "InChIKey": null,
        "Canonical SMILES": "O=C1C=C(OC2=CC(OC3OC(CO)C(O)C(O)C3O)=CC(O)=C12)C=4C=CC(OC)=CC4",
        "Molecular Formula": "C<sub>22</sub>H<sub>22</sub>O<sub>10</sub>",
        "Molecular Mass": "446.40",
        "Melting Point": "260-262 °C"
    }
}