{
    "uri": "substance/pt/409212",
    "rn": "409-21-2",
    "name": "Silicon monocarbide",
    "images": [],
    "inchi": "",
    "inchiKey": "",
    "smile": "",
    "canonicalSmile": "",
    "molecularFormula": "CSi",
    "molecularMass": "",
    "experimentalProperties": [
        {
            "name": "Melting Point",
            "property": "2600 °C",
            "sourceNumber": 1
        },
        {
            "name": "Density",
            "property": "3.23 g/cm³",
            "sourceNumber": 1
        }
    ],
    "propertyCitations": [
        {
            "docUri": "",
            "sourceNumber": 1,
            "source": "Hazardous Substances Data Bank data were obtained from the National Library of Medicine (US)"
        }
    ],
    "synonyms": [
        "Silicon carbide (SiC)",
        "Silundum",
        "Silicon monocarbide",
        "Silicon carbide",
        "Carbon silicide",
        "KZ 3M",
        "KZ 5M",
        "KZ 7M",
        "Carbofrax M",
        "Carborundum",
        "UA 1",
        "UA 2",
        "UA 3",
        "UA 4",
        "Crystolon B",
        "Crystolon 37",
        "Crystolon 39",
        "Green Densic GC 800",
        "Densic C 500",
        "Crystar",
        "Annanox CK",
        "Betarundum",
        "Betarundum ST-S",
        "Betarundum Ultrafine",
        "SC 201",
        "SCW 1",
        "SC 9 (carbide)",
        "UF 15",
        "SC 9",
        "Green Densic",
        "Hitaceram SC 101",
        "Betarundum UF",
        "DU-A 1",
        "DU-A 3C",
        "DU-A 4",
        "DU-A 3",
        "DU-A 2",
        "SD-GP 8000",
        "SD-GP 6000",
        "GC 10000",
        "37C150",
        "SCW 15",
        "BSC 059",
        "Carbogran F 36",
        "Carbogran F 80",
        "Carbogran F 180",
        "Norton 1000",
        "Tokawhisker",
        "Hexoloy SA",
        "Tokawhisker S 400",
        "MSM 33",
        "Densic RC 31",
        "SCW 1-50M",
        "HF 30",
        "A 20 (carbide)",
        "T 1 (carbide)",
        "T 1",
        "A 20",
        "UFB 10",
        "UA 4 (carbide)",
        "GMF 6S",
        "FCP 15",
        "Ibiden",
        "NC 203 (ceramic)",
        "NC 203",
        "SSC-W 49",
        "Polisher C 80",
        "RA 1200 Green Grit",
        "RA 1200 Black Grit",
        "MSC 20",
        "Densic 60",
        "Densic 80",
        "Densic 120",
        "Densic 180",
        "Densic 220",
        "Hexoloy SX",
        "FCP 13NLC",
        "CP 240",
        "CP 400",
        "GP 600",
        "GP 600 (abrasive)",
        "Halsic RX",
        "NFO 860",
        "P 1200",
        "P 1200 (ceramic)",
        "100FT",
        "OY 3",
        "OY 7",
        "OY 15",
        "F 20",
        "F 120",
        "F 500",
        "Densic C 600",
        "Densic C 150",
        "F 20 (abrasive)",
        "Lonza UF 05",
        "UF 05",
        "UF 05 (carbide)",
        "Carbogran UF 15",
        "UF 10",
        "UF 10 (carbide)",
        "Carbogran UF 45",
        "UltraFine",
        "UltraFine (carbide)",
        "SCP 00",
        "Shinano Rundum",
        "NG 220",
        "GC 1000F",
        "NG 220 (carbide)",
        "GC 400",
        "GC 8000",
        "BF 12",
        "GC 600",
        "GP-SFP 1.7",
        "EKasic D",
        "EKasic TRIBO 2000",
        "EKasic TRIBO 2000-1",
        "GC 4000",
        "SCH 07",
        "GC 6000",
        "B-HP (carbide)",
        "NG 80",
        "AE 60",
        "CGW 3",
        "0Y15",
        "B-HP",
        "P 240",
        "P 240 (carbide)",
        "F 120 (carbide)",
        "HSC (carbide)",
        "C 1000F",
        "GC 15",
        "E 299-400",
        "E 299-600",
        "E 599P1500",
        "GC 15 (carbide)",
        "BLOk",
        "GC 180",
        "GC 800",
        "GC 2000",
        "GC 2000 (carbide)",
        "Densic GC",
        "F 500 (carbide)",
        "GC 4000F",
        "GC 240",
        "GC 800S",
        "SixCy",
        "Diasic",
        "Crystolon F 240",
        "Crystolon F 320",
        "GC 1000",
        "GC 3000",
        "C 700D Dark",
        "C 800D Dark",
        "SiC 11",
        "P 600",
        "P 400",
        "P 320",
        "P 600 (ceramic)",
        "P 400 (ceramic)",
        "P 320 (ceramic)",
        "GMF 15H2",
        "Sika III",
        "SuperSiC",
        "G-UF",
        "AE 60 (carbide)",
        "F 1000 (carbide)",
        "F 1000",
        "Green Densic GC 120",
        "Green Densic GC 240",
        "Green Densic GC 280",
        "Green Densic GC 180",
        "M 14",
        "M 14 (carbide)",
        "SiC",
        "SC 211 (carbide)",
        "SC 211",
        "DCR 100F",
        "GC 1500",
        "GC 2500",
        "Refel F",
        "EKasic F",
        "EKasic C",
        "UF 25",
        "HSC",
        "SIKA",
        "Shinano Rundum GP 3000",
        "PS 5000",
        "Ceraloy 146-1S",
        "Purebide PS 5000",
        "HSC 490",
        "Cercom SiC-B",
        "Shinano Rundum GP 2000",
        "Carborandom",
        "EKasic T",
        "Ceralloy C 400",
        "NG 150",
        "SiC-P 8",
        "CF 4000",
        "NS 260",
        "GP 3000",
        "F 500B",
        "MP-SD",
        "OY 20",
        "GC 150 (carbide)",
        "Ibiceram SC 850",
        "GC 150",
        "M 2M28",
        "Cercom SiC-N",
        "Cercom SiC-SC 1R",
        "Coors SC 300",
        "Kyocera SC 1000",
        "GC 400 (carbide)",
        "UFB",
        "GC 15R",
        "SM 15",
        "BLOk II",
        "SM 15 (ceramic)",
        "Ultra Densic DU-A 1",
        "PureBeta",
        "SC 1000",
        "GC 20000",
        "GC 10 (carbide)",
        "GC 10",
        "CVD-SiC",
        "HF 30 (carbide)",
        "Sikatech 15FCPC",
        "SII01FA",
        "GP 400 (carbide)",
        "GP 400",
        "SH 7 (carbide)",
        "SH 7",
        "G 14",
        "GC 400B",
        "Shinano Rundum GP 700",
        "GP 700",
        "PureBeta R",
        "Alodur SiC-P 36",
        "GC 280",
        "GCR 1500",
        "NC 2000 (carbide)",
        "PB-P/Ff",
        "NC 2000",
        "HSC 490N",
        "GP 1000F",
        "F 220 (carbide)",
        "F 220",
        "NC 280",
        "NC 1000",
        "NC 6000",
        "Shinano Rundum GC-F 16",
        "Betack 1566",
        "SER-A 10",
        "F 360",
        "W 800",
        "F 360 (carbide)",
        "W 800 (carbide)",
        "54C-F100",
        "Shinano Rundum GP 1000",
        "GP 1000",
        "C-F 20",
        "ST-C 001",
        "Silar",
        "W 10",
        "W 5",
        "CW 10",
        "CW 28",
        "GCW 28",
        "Carbo 600",
        "Carbo 400",
        "KW 36591",
        "KW 20602",
        "GC 15000",
        "RS 900",
        "Carborex C 5-80",
        "NF 2/025KE",
        "NC 6000 (carbide)",
        "NG 60 (carbide)",
        "NG 600",
        "NG 60",
        "CP 1000 (carbide)",
        "Ultrafoam 100",
        "CP 1000",
        "FCP 15C",
        "HGB-SiN 2R10K",
        "GC 1200",
        "GP 800",
        "Greendensic GC-S 800",
        "GP 1200",
        "SER-A 06",
        "F 1200",
        "Shinano Rundum GP 500",
        "Densic C 1000",
        "FEPA-P 150",
        "NGC 2500",
        "Densic C 4000",
        "GMF 15H",
        "SII 08PB",
        "Fi-NITE",
        "NG 90",
        "Silcar G 14",
        "GP 180",
        "GP 100",
        "GP 6000",
        "Green Densic 3000",
        "H 3000",
        "RS 900 (carbide)",
        "GMF-C",
        "P 1500",
        "BF 15",
        "SER 06",
        "GC 320",
        "NGF 180",
        "GCF 180",
        "Tera 5",
        "GC 320 (filler)",
        "Nisso Rundum MSU",
        "D 501",
        "GC 320 (abrasive)",
        "J 3000 (abrasive)",
        "YB 70",
        "GP 1500",
        "Shinano Rundum GP 800",
        "ECCOSORB DSF",
        "E-Abrasic P 1500",
        "SC 5532",
        "Silar SR 9M",
        "SIC-UF 10",
        "NM SiC 99",
        "VSN 1393",
        "GMF 15",
        "CeramTec CD 110",
        "DK-SiC 002",
        "SiC 850",
        "SSC-A 01",
        "GF 500H",
        "Carborex G 21",
        "Sinet HP 90",
        "MH-SIC 40",
        "ST-C 001-1",
        "NO-C 001-1",
        "SSC-A 15",
        "SSC-A 30",
        "Electrocarb Black 800W",
        "Electrocarb Black 1200F",
        "Electrocarb Black SiC",
        "ELECTROCARB 1200/F BLACK SIC",
        "NG-F 46",
        "SiC 3000",
        "SiCW 80",
        "JL-SiC 1",
        "YT-Y 01-1",
        "GP 4000",
        "SiCW 90",
        "DK-SiC 001",
        "JN 0311",
        "Sintec 15C",
        "Unikiln FCP 07",
        "MG-N 019",
        "CW-SiC 001",
        "YQ-S 01",
        "ACM-SC 050",
        "XFJ 56",
        "F 800",
        "Sika ABR-F 240",
        "C 6F240",
        "AHP 500G",
        "W 14",
        "Jiuxing SF 90",
        "SF 90",
        "M 50",
        "M 30",
        "MG-C 002",
        "XF-J 54",
        "αSiC 2500N",
        "βSiC 2500N",
        "D 500",
        "F 14 (carbide)",
        "F 30 (carbide)",
        "F 14",
        "F 30",
        "XT-SIC 01",
        "490N",
        "SiC 001",
        "SICF 900",
        "SF 1 (carbide)",
        "K 3M28",
        "Carborex 800",
        "Densic CF 46",
        "Densic CF 100",
        "Sika 400",
        "Sika 320",
        "Sika ABR-I-F 500",
        "Silar SC 9M",
        "GC 40000",
        "MG-SiC 50",
        "GC 1000J"
    ],
    "replacedRns": [
        "12504-67-5",
        "37231-85-9",
        "54500-13-9",
        "63686-94-2",
        "66039-27-8",
        "76647-55-7",
        "78544-49-7",
        "84149-55-3",
        "86755-24-0",
        "92843-12-4",
        "95918-00-6",
        "145583-77-3",
        "146915-55-1",
        "148031-02-1",
        "152024-73-2",
        "154643-50-2",
        "156131-38-3",
        "160073-05-2",
        "167972-08-9",
        "215780-01-1",
        "259092-53-0",
        "288149-69-9",
        "577973-56-9",
        "1192824-22-8",
        "1356922-63-8",
        "1402835-26-0",
        "1454308-15-6",
        "1894216-33-1",
        "1962125-53-6",
        "2242727-07-5",
        "2245272-65-3",
        "2268704-52-3",
        "2387639-53-2",
        "2455522-11-7",
        "2488905-64-0"
    ],
    "hasMolfile": false,
    "source": "https://commonchemistry.cas.org/detail?cas_rn=409-21-2"
}