{
    "cas_no": "547-63-7",
    "key_name": "Methyl isobutyrate",
    "cn_name": "异丁酸甲酯;",
    "alternate_name": "Propanoic acid, 2-methyl-, methyl ester;Isobutyric acid, methyl ester;Methyl isobutyrate;Methyl 2-methylpropionate;Methyl 2-methylpropanoate;2-Methylpropanoic acid methyl ester;Methyl 2,2-dimethylacetate;NSC 126780;2-Methylpropionic acid methyl ester",
    "duplicated_cas_no": "",
    "SMILES": "C(C(C)C)(OC)=O",
    "meta_data": {
        "InChI": "InChI=1S/C5H10O2/c1-4(2)5(6)7-3/h4H,1-3H3",
        "InChIKey": null,
        "Canonical SMILES": "O=C(OC)C(C)C",
        "Molecular Formula": "C<sub>5</sub>H<sub>10</sub>O<sub>2</sub>",
        "Molecular Mass": "102.13",
        "Boiling Point": "92.5 °C",
        "Melting Point": "-84.7 °C",
        "Density": "0.91131 g/cm³ @ Temp: 40 °C"
    }
}