{
    "cas_no": "2743-40-0",
    "key_name": "<span class=\"text-smallcaps\">L</span>-Leucine, ethyl ester, hydrochloride (1:1)",
    "cn_name": "L-亮氨酸乙酯盐酸盐;",
    "alternate_name": "<span class=\"text-smallcaps\">L</span>-Leucine, ethyl ester, hydrochloride (1:1);Leucine, ethyl ester, hydrochloride, <span class=\"text-smallcaps\">L</span>-;<span class=\"text-smallcaps\">L</span>-Leucine, ethyl ester, hydrochloride;Leucine ethyl ester hydrochloride;Ethyl <span class=\"text-smallcaps\">L</span>-leucinate hydrochloride;(<em>S</em>)-Leucine ethyl ester hydrochloride;(<em>S</em>)-Ethyl 2-amino-4-methylpentanoate hydrochloride",
    "duplicated_cas_no": "",
    "SMILES": "[C@@H](C(OCC)=O)(CC(C)C)N.Cl",
    "meta_data": {
        "InChI": "InChI=1S/C8H17NO2.ClH/c1-4-11-8(10)7(9)5-6(2)3;/h6-7H,4-5,9H2,1-3H3;1H/t7-;/m0./s1",
        "InChIKey": null,
        "Canonical SMILES": "Cl.O=C(OCC)C(N)CC(C)C",
        "Molecular Formula": "C<sub>8</sub>H<sub>17</sub>NO<sub>2</sub>.ClH",
        "Molecular Mass": "",
        "Melting Point": "119 °C"
    }
}