{
    "cas_no": "15554-47-9",
    "key_name": "(<em>OC</em>-6-11)-Tris(2,4-pentanedionato-κ<em>O</em><sup>2</sup>,κ<em>O</em><sup>4</sup>)yttrium",
    "cn_name": "乙酰丙酮钇水合物;",
    "alternate_name": "Yttrium, tris(2,4-pentanedionato-κ<em>O</em><sup>2</sup>,κ<em>O</em><sup>4</sup>)-, (<em>OC</em>-6-11)-;Yttrium, tris(2,4-pentanedionato)-;Yttrium, tris(2,4-pentanedionato-<em>O</em>,<em>O</em>′)-, (<em>OC</em>-6-11)-;Yttrium, tris(2,4-pentanedionato-κ<em>O</em>,κ<em>O</em>′)-, (<em>OC</em>-6-11)-;(<em>OC</em>-6-11)-Tris(2,4-pentanedionato-κ<em>O</em><sup>2</sup>,κ<em>O</em><sup>4</sup>)yttrium;Acetylacetone yttrium;Yttrium acetylacetonate;Yttrium(III) acetylacetonate;Tris(acetylacetonato)yttrium;Tris(acetylacetonato)yttrium(III);Yttrium tris(acetylacetonate);NSC 139626;Tris(2,4-pentanedionato)yttrium;Yttrium 2,4-pentane dionate",
    "duplicated_cas_no": "",
    "SMILES": "CC1=O[Y+3]23(O=C(C)[CH-]C(C)=O2)(O=C(C)[CH-]C(C)=O3)O=C(C)[CH-]1",
    "meta_data": {
        "InChI": "InChI=1S/3C5H7O2.Y/c3*1-4(6)3-5(2)7;/h3*3H,1-2H3;/q3*-1;+3",
        "InChIKey": null,
        "Canonical SMILES": "O1=C([CH-]C(=O[Y+3]123(O=C([CH-]C(=O2)C)C)O=C([CH-]C(=O3)C)C)C)C",
        "Molecular Formula": "C<sub>15</sub>H<sub>21</sub>O<sub>6</sub>Y",
        "Molecular Mass": "",
        "Melting Point": "131 °C"
    }
}