{
    "cas_no": "253870-02-9",
    "key_name": "5-Formyl-2,4-dimethyl-1<em>H</em>-pyrrole-3-carboxylic acid",
    "cn_name": "2,4-二甲基-5-醛基-1H-吡咯-3-羧酸;",
    "alternate_name": "1<em>H</em>-Pyrrole-3-carboxylic acid, 5-formyl-2,4-dimethyl-;5-Formyl-2,4-dimethyl-1<em>H</em>-pyrrole-3-carboxylic acid;5-Formyl-2,4-dimethylpyrrole-3-carboxylic acid;2,4-Dimethyl-5-formyl-1<em>H</em>-pyrrole-3-carboxylic acid;2,4-Dimethyl-5-formylpyrrole-3-carboxylic acid",
    "duplicated_cas_no": "",
    "SMILES": "C(O)(=O)C=1C(C)=C(C=O)NC1C",
    "meta_data": {
        "InChI": "InChI=1S/C8H9NO3/c1-4-6(3-10)9-5(2)7(4)8(11)12/h3,9H,1-2H3,(H,11,12)",
        "InChIKey": null,
        "Canonical SMILES": "O=CC=1NC(=C(C(=O)O)C1C)C",
        "Molecular Formula": "C<sub>8</sub>H<sub>9</sub>NO<sub>3</sub>",
        "Molecular Mass": "167.16",
        "Melting Point": "286 °C (decomp)"
    }
}