{
    "cas_no": "1866-38-2",
    "key_name": "3-(3-Chlorophenyl)-2-propenoic acid",
    "cn_name": "间氯肉桂酸;3-氯肉桂酸;",
    "alternate_name": "2-Propenoic acid, 3-(3-chlorophenyl)-;Cinnamic acid, <em>m</em>-chloro-;3-(3-Chlorophenyl)-2-propenoic acid;<em>m</em>-Chlorocinnamic acid;3-Chlorocinnamic acid;NSC 61876;NSC 623439;3-(3-Chlorophenyl)acrylic acid",
    "duplicated_cas_no": "",
    "SMILES": "C(=CC(O)=O)C1=CC(Cl)=CC=C1",
    "meta_data": {
        "InChI": "InChI=1S/C9H7ClO2/c10-8-3-1-2-7(6-8)4-5-9(11)12/h1-6H,(H,11,12)",
        "InChIKey": null,
        "Canonical SMILES": "O=C(O)C=CC=1C=CC=C(Cl)C1",
        "Molecular Formula": "C<sub>9</sub>H<sub>7</sub>ClO<sub>2</sub>",
        "Molecular Mass": "182.60",
        "Melting Point": "161-162 °C"
    }
}