{
    "cas_no": "2414-98-4",
    "key_name": "Magnesium ethoxide",
    "cn_name": "乙醇镁;",
    "alternate_name": "Ethanol, magnesium salt (2:1);Ethyl alcohol, magnesium salt;Magnesium ethoxide;Ethanol, magnesium salt;Diethoxymagnesium;Magnesium diethoxide;Magnesium ethanolate;Magnesium ethylate;Magnesium ethoxide Mg(OC<sub>2</sub>H<sub>5</sub>)<sub>2</sub>;Magnesium ethanoate;Catylene 102;Catylen S 300",
    "duplicated_cas_no": "1185072-31-4",
    "SMILES": "C(C)O.[Mg]",
    "meta_data": {
        "InChI": "InChI=1S/C2H6O.Mg/c1-2-3;/h3H,2H2,1H3;",
        "InChIKey": null,
        "Canonical SMILES": "[Mg].OCC",
        "Molecular Formula": "C<sub>2</sub>H<sub>6</sub>O.<sup>1</sup>/<sub>2</sub>Mg",
        "Molecular Mass": "",
        "Melting Point": "270 °C (decomp)",
        "Density": "1.010 g/cm³"
    }
}