{
    "cas_no": "2508-29-4",
    "key_name": "5-Amino-1-pentanol",
    "cn_name": "5-氨基-1-戊醇;",
    "alternate_name": "1-Pentanol, 5-amino-;5-Amino-1-pentanol;5-Aminopentanol;5-Hydroxypentylamine;1-Amino-5-pentanol;Pentanolamine;5-Hydroxy-1-pentanamine;1-Amino-5-hydroxypentane;5-Aminopentan-1-ol;PC Amine MA 105",
    "duplicated_cas_no": "671195-14-5",
    "SMILES": "C(CCN)CCO",
    "meta_data": {
        "InChI": "InChI=1S/C5H13NO/c6-4-2-1-3-5-7/h7H,1-6H2",
        "InChIKey": null,
        "Canonical SMILES": "OCCCCCN",
        "Molecular Formula": "C<sub>5</sub>H<sub>13</sub>NO",
        "Molecular Mass": "103.16",
        "Boiling Point": "221.5 °C",
        "Melting Point": "38.5 °C",
        "Density": "0.9488 g/cm³ @ Temp: 17 °C"
    }
}