{
    "cas_no": "38048-32-7",
    "key_name": "<em>S</em>-(4-Nitrobenzyl)-6-thioinosine",
    "cn_name": "S-(4-硝基苄基)-6-硫肌苷;",
    "alternate_name": "Inosine, 6-<em>S</em>-[(4-nitrophenyl)methyl]-6-thio-;6-<em>S</em>-[(4-Nitrophenyl)methyl]-6-thioinosine;6-[(4-Nitrobenzyl)thio]-9-β-<span class=\"text-smallcaps\">D</span>-ribofuranosylpurine;<em>S</em>-(<em>p</em>-Nitrobenzyl)-6-mercapto-9-β-<span class=\"text-smallcaps\">D</span>-ribofuranosylpurine;<em>S</em>-(4-Nitrobenzyl)-6-thioinosine;NSC 296962;NBMPR;6-[(4-Nitrobenzyl)thio)inosine;2-(Hydroxymethyl)-5-[6-[(4-nitrophenyl)methylsulfanyl]purin-9-yl]oxolane-3,4-diol;2-(Hydroxymethyl)-5-[6-[(4-nitrophenyl)methylthio]purin-9-yl]oxolane-3,4-diol",
    "duplicated_cas_no": "56964-68-2;65177-80-2;1294455-79-0",
    "SMILES": "O[C@H]1[C@H](N2C=3C(N=C2)=C(SCC4=CC=C(N(=O)=O)C=C4)N=CN3)O[C@H](CO)[C@H]1O",
    "meta_data": {
        "InChI": "InChI=1S/C17H17N5O6S/c23-5-11-13(24)14(25)17(28-11)21-8-20-12-15(21)18-7-19-16(12)29-6-9-1-3-10(4-2-9)22(26)27/h1-4,7-8,11,13-14,17,23-25H,5-6H2/t11-,13-,14-,17-/m1/s1",
        "InChIKey": null,
        "Canonical SMILES": "O=N(=O)C1=CC=C(C=C1)CSC2=NC=NC3=C2N=CN3C4OC(CO)C(O)C4O",
        "Molecular Formula": "C<sub>17</sub>H<sub>17</sub>N<sub>5</sub>O<sub>6</sub>S",
        "Molecular Mass": "419.41",
        "Melting Point": "197-198 °C",
        "Density": "1.49 g/cm³"
    }
}