{
    "cas_no": "107-70-0",
    "key_name": "4-Methoxy-4-methyl-2-pentanone",
    "cn_name": "4-甲氧基-4-甲基戊-2-酮;4-甲氧基-4-甲基-2-戊酮;单甲基双丙酮醚;4-甲氧-4-甲-2-戊酮;",
    "alternate_name": "2-Pentanone, 4-methoxy-4-methyl-;4-Methoxy-4-methyl-2-pentanone;Pent-Oxone Solvent;Pentoxone;2-Methoxy-2-methyl-4-pentanone;4-Methyl-4-methoxy-2-pentanone;ME 6K;NSC 48083",
    "duplicated_cas_no": "",
    "SMILES": "C(C(OC)(C)C)C(C)=O",
    "meta_data": {
        "InChI": "InChI=1S/C7H14O2/c1-6(8)5-7(2,3)9-4/h5H2,1-4H3",
        "InChIKey": null,
        "Canonical SMILES": "O=C(C)CC(OC)(C)C",
        "Molecular Formula": "C<sub>7</sub>H<sub>14</sub>O<sub>2</sub>",
        "Molecular Mass": "130.18",
        "Boiling Point": "147-163 °C",
        "Density": "0.9 g/cm³ @ Temp: 25 °C"
    }
}