{
    "cas_no": "2531-84-2",
    "key_name": "2-Methylphenanthrene",
    "cn_name": "2-甲基菲;2-甲基菲;",
    "alternate_name": "Phenanthrene, 2-methyl-;2-Methylphenanthrene;NSC 89276",
    "duplicated_cas_no": "",
    "SMILES": "CC1=CC=2C(=C3C(=CC2)C=CC=C3)C=C1",
    "meta_data": {
        "InChI": "InChI=1S/C15H12/c1-11-6-9-15-13(10-11)8-7-12-4-2-3-5-14(12)15/h2-10H,1H3",
        "InChIKey": null,
        "Canonical SMILES": "C=1C=CC2=C(C1)C=CC=3C=C(C=CC32)C",
        "Molecular Formula": "C<sub>15</sub>H<sub>12</sub>",
        "Molecular Mass": "192.26",
        "Boiling Point": "155-160 °C",
        "Melting Point": "57-59 °C"
    }
}