{
    "cas_no": "6191-71-5",
    "key_name": "<em>cis</em>-4-Hepten-1-ol",
    "cn_name": "顺-4-庚烯-1-醇;",
    "alternate_name": "4-Hepten-1-ol, (4<em>Z</em>)-;4-Hepten-1-ol, (<em>Z</em>)-;(4<em>Z</em>)-4-Hepten-1-ol;<em>Z</em>-4-Hepten-1-ol;<em>cis</em>-4-Hepten-1-ol",
    "duplicated_cas_no": "",
    "SMILES": "C(\\CCCO)=C\\CC",
    "meta_data": {
        "InChI": "InChI=1S/C7H14O/c1-2-3-4-5-6-7-8/h3-4,8H,2,5-7H2,1H3/b4-3-",
        "InChIKey": null,
        "Canonical SMILES": "OCCCC=CCC",
        "Molecular Formula": "C<sub>7</sub>H<sub>14</sub>O",
        "Molecular Mass": "114.19",
        "Boiling Point": "78-79 °C @ Press: 15 Torr",
        "Density": "0.8445 g/cm³ @ Temp: 20 °C"
    }
}