{
    "cas_no": "39073-14-8",
    "key_name": "3-Pyridinecarboxylic acid, 2-chloro-6-methyl-, ethyl ester",
    "cn_name": null,
    "alternate_name": "3-Pyridinecarboxylic acid, 2-chloro-6-methyl-, ethyl ester;Nicotinic acid, 2-chloro-6-methyl-, ethyl ester;Ethyl 2-chloro-6-methylpyridine-3-carboxylate;2-Chloro-6-methylnicotinic acid ethyl ester",
    "duplicated_cas_no": "",
    "SMILES": "C(OCC)(=O)C1=C(Cl)N=C(C)C=C1",
    "meta_data": {
        "InChI": "InChI=1S/C9H10ClNO2/c1-3-13-9(12)7-5-4-6(2)11-8(7)10/h4-5H,3H2,1-2H3",
        "InChIKey": null,
        "Canonical SMILES": "O=C(OCC)C=1C=CC(=NC1Cl)C",
        "Molecular Formula": "C<sub>9</sub>H<sub>10</sub>ClNO<sub>2</sub>",
        "Molecular Mass": "199.63",
        "Boiling Point": "130 °C @ Press: 8 Torr",
        "Melting Point": "27-29 °C"
    }
}