{
    "cas_no": "1131-09-5",
    "key_name": "Benzo[<em>b</em>]thiophene-3-acetic acid",
    "cn_name": "苯并[b]噻吩-3-乙酸;",
    "alternate_name": "Benzo[<em>b</em>]thiophene-3-acetic acid;3-Benzo[<em>b</em>]thiopheneacetic acid;3-Benzo[<em>b</em>]thienylacetic acid;2-(Benzo[<em>b</em>]thiophen-3-yl)acetic acid;Benzo[<em>b</em>]thiophen-3-ylacetic acid;NSC 18875;NSC 93635;1-Benzothiophene-3-acetic acid;3-Benzothiopheneacetic acid;(Benzothien-3-yl)acetic acid;2-(1-Benzothiophen-3-yl)acetic acid",
    "duplicated_cas_no": "",
    "SMILES": "C(C(O)=O)C=1C=2C(SC1)=CC=CC2",
    "meta_data": {
        "InChI": "InChI=1S/C10H8O2S/c11-10(12)5-7-6-13-9-4-2-1-3-8(7)9/h1-4,6H,5H2,(H,11,12)",
        "InChIKey": null,
        "Canonical SMILES": "O=C(O)CC1=CSC=2C=CC=CC21",
        "Molecular Formula": "C<sub>10</sub>H<sub>8</sub>O<sub>2</sub>S",
        "Molecular Mass": "192.23",
        "Melting Point": "109 °C"
    }
}