{
    "cas_no": "1192651-49-2",
    "key_name": "(1<em>R</em>,2<em>S</em>,5<em>R</em>)-7-Oxo-6-(phenylmethoxy)-1,6-diazabicyclo[3.2.1]octane-2-carboxamide",
    "cn_name": null,
    "alternate_name": "1,6-Diazabicyclo[3.2.1]octane-2-carboxamide, 7-oxo-6-(phenylmethoxy)-, (1<em>R</em>,2<em>S</em>,5<em>R</em>)-;(1<em>R</em>,2<em>S</em>,5<em>R</em>)-7-Oxo-6-(phenylmethoxy)-1,6-diazabicyclo[3.2.1]octane-2-carboxamide;(2<em>S</em>,5<em>R</em>)-6-(Benzyloxy)-7-oxo-1,6-diazabicyclo[3.2.1]octane-2-carboxamide",
    "duplicated_cas_no": "",
    "SMILES": "C(N)(=O)[C@H]1[N@@]2C(=O)N(OCC3=CC=CC=C3)[C@@](C2)(CC1)[H]",
    "meta_data": {
        "InChI": "InChI=1S/C14H17N3O3/c15-13(18)12-7-6-11-8-16(12)14(19)17(11)20-9-10-4-2-1-3-5-10/h1-5,11-12H,6-9H2,(H2,15,18)/t11-,12+/m1/s1",
        "InChIKey": null,
        "Canonical SMILES": "O=C(N)C1N2C(=O)N(OCC=3C=CC=CC3)C(C2)CC1",
        "Molecular Formula": "C<sub>14</sub>H<sub>17</sub>N<sub>3</sub>O<sub>3</sub>",
        "Molecular Mass": "275.30",
        "Melting Point": "154.2-156.1 °C"
    }
}