{
    "cas_no": "23074-36-4",
    "key_name": "2-Bromo-1-butene",
    "cn_name": "2-溴-1-丁烯;",
    "alternate_name": "1-Butene, 2-bromo-;2-Bromo-1-butene;2-Bromobutene",
    "duplicated_cas_no": "",
    "SMILES": "C(CC)(Br)=C",
    "meta_data": {
        "InChI": "InChI=1S/C4H7Br/c1-3-4(2)5/h2-3H2,1H3",
        "InChIKey": null,
        "Canonical SMILES": "BrC(=C)CC",
        "Molecular Formula": "C<sub>4</sub>H<sub>7</sub>Br",
        "Molecular Mass": "135.00",
        "Boiling Point": "88 °C",
        "Melting Point": "-133.4 °C",
        "Density": "1.333 g/cm³ @ Temp: 20 °C"
    }
}