{
    "cas_no": "6267-02-3",
    "key_name": "9,9-Dimethyl-9,10-dihydroacridine",
    "cn_name": "9,10-二氢-9,9-二甲基吖啶;防老剂BLE;丙酮-二苯胺高温缩合物;",
    "alternate_name": "Acridine, 9,10-dihydro-9,9-dimethyl-;Acridan, 9,9-dimethyl-;9,10-Dihydro-9,9-dimethylacridine;9,9-Dimethyl-9,10-dihydroacridine;9,9-Dimethylacridan;NSC 36671;9,9-Dimethyl-10<em>H</em>-acridine;Antioxidant BLE;BLE;9,9-Dimethylacridine",
    "duplicated_cas_no": "475150-56-2;1643983-90-7;2295813-02-2;2304441-41-4",
    "SMILES": "CC1(C)C=2C(NC=3C1=CC=CC3)=CC=CC2",
    "meta_data": {
        "InChI": "InChI=1S/C15H15N/c1-15(2)11-7-3-5-9-13(11)16-14-10-6-4-8-12(14)15/h3-10,16H,1-2H3",
        "InChIKey": null,
        "Canonical SMILES": "C=1C=CC2=C(C1)NC=3C=CC=CC3C2(C)C",
        "Molecular Formula": "C<sub>15</sub>H<sub>15</sub>N",
        "Molecular Mass": "209.29",
        "Melting Point": "120-126 °C"
    }
}