{
    "cas_no": "74772-78-4",
    "key_name": "5-(4-Hydroxybenzyl)thiazolidine-2,4-dione",
    "cn_name": null,
    "alternate_name": "2,4-Thiazolidinedione, 5-[(4-hydroxyphenyl)methyl]-;5-[(4-Hydroxyphenyl)methyl]-2,4-thiazolidinedione;U 90441;5-(4-Hydroxybenzyl)thiazolidine-2,4-dione;5-(4-Hydroxybenzyl)thiazolidin-2,4-dione",
    "duplicated_cas_no": "",
    "SMILES": "C(C1SC(=O)NC1=O)C2=CC=C(O)C=C2",
    "meta_data": {
        "InChI": "InChI=1S/C10H9NO3S/c12-7-3-1-6(2-4-7)5-8-9(13)11-10(14)15-8/h1-4,8,12H,5H2,(H,11,13,14)",
        "InChIKey": null,
        "Canonical SMILES": "O=C1SC(C(=O)N1)CC2=CC=C(O)C=C2",
        "Molecular Formula": "C<sub>10</sub>H<sub>9</sub>NO<sub>3</sub>S",
        "Molecular Mass": "223.25",
        "Melting Point": "140.7-144.0 °C"
    }
}