{
    "cas_no": "451-02-5",
    "key_name": "Benzoic acid, 3-fluoro-, ethyl ester",
    "cn_name": "3-氟苯甲酸乙酯;间氟苯甲酸乙酯;",
    "alternate_name": "Benzoic acid, 3-fluoro-, ethyl ester;Benzoic acid, <em>m</em>-fluoro-, ethyl ester;Ethyl 3-fluorobenzoate;3-Fluorobenzoic acid ethyl ester",
    "duplicated_cas_no": "",
    "SMILES": "C(OCC)(=O)C1=CC(F)=CC=C1",
    "meta_data": {
        "InChI": "InChI=1S/C9H9FO2/c1-2-12-9(11)7-4-3-5-8(10)6-7/h3-6H,2H2,1H3",
        "InChIKey": null,
        "Canonical SMILES": "O=C(OCC)C=1C=CC=C(F)C1",
        "Molecular Formula": "C<sub>9</sub>H<sub>9</sub>FO<sub>2</sub>",
        "Molecular Mass": "168.16",
        "Boiling Point": "94-95 °C @ Press: 16 Torr",
        "Density": "1.1164 g/cm³ @ Temp: 40 °C"
    }
}