{
    "cas_no": "71058-35-0",
    "key_name": "<em>N</em>-(2,6-Dimethylphenyl)hydrazinecarbothioamide",
    "cn_name": "4-2,6-二氯苯-3-氨基硫脲;",
    "alternate_name": "Hydrazinecarbothioamide, <em>N</em>-(2,6-dimethylphenyl)-;<em>N</em>-(2,6-Dimethylphenyl)hydrazinecarbothioamide;4-(2,6-Dimethylphenyl)thiosemicarbazide;1-Amino-3-(2,6-dimethylphenyl)thiourea;4-(2,6-Dimethylphenyl)-3-thiosemicarbazide;3-Amino-1-(2,6-dimethylphenyl)thiourea;<em>N</em>-(2,6-Dimethylphenyl)thiosemicarbazide",
    "duplicated_cas_no": "",
    "SMILES": "N(C(NN)=S)C1=C(C)C=CC=C1C",
    "meta_data": {
        "InChI": "InChI=1S/C9H13N3S/c1-6-4-3-5-7(2)8(6)11-9(13)12-10/h3-5H,10H2,1-2H3,(H2,11,12,13)",
        "InChIKey": null,
        "Canonical SMILES": "S=C(NN)NC=1C(=CC=CC1C)C",
        "Molecular Formula": "C<sub>9</sub>H<sub>13</sub>N<sub>3</sub>S",
        "Molecular Mass": "195.28",
        "Melting Point": "204 °C"
    }
}