{
    "cas_no": "343-27-1",
    "key_name": "Harmine hydrochloride",
    "cn_name": "哈尔明盐酸盐;哈尔碱盐酸盐(水合);骆驼蓬碱盐酸盐;水合哈尔碱盐酸盐;盐酸-7-甲氧基-1-甲基-9H-吡啶并(3,4-B;",
    "alternate_name": "9<em>H</em>-Pyrido[3,4-<em>b</em>]indole, 7-methoxy-1-methyl-, hydrochloride (1:1);9<em>H</em>-Pyrido[3,4-<em>b</em>]indole, 7-methoxy-1-methyl-, monohydrochloride;Harmine monohydrochloride;7-Methoxy-1-methyl-9<em>H</em>-pyrido[3,4-<em>b</em>]indole monohydrochloride;Harmine hydrochloride",
    "duplicated_cas_no": "",
    "SMILES": "CC1=C2C(C=3C(N2)=CC(OC)=CC3)=CC=N1.Cl",
    "meta_data": {
        "InChI": "InChI=1S/C13H12N2O.ClH/c1-8-13-11(5-6-14-8)10-4-3-9(16-2)7-12(10)15-13;/h3-7,15H,1-2H3;1H",
        "InChIKey": null,
        "Canonical SMILES": "Cl.N=1C=CC=2C=3C=CC(OC)=CC3NC2C1C",
        "Molecular Formula": "C<sub>13</sub>H<sub>12</sub>N<sub>2</sub>O.ClH",
        "Molecular Mass": "",
        "Melting Point": "272-275 °C (decomp)"
    }
}