{
    "cas_no": "117-92-0",
    "key_name": "Quinaldine Red",
    "cn_name": "喹哪啶红;2-[4-(二甲基氨基)苯乙烯]-1-乙基喹啉鎓碘化物;",
    "alternate_name": "Quinolinium, 2-[2-[4-(dimethylamino)phenyl]ethenyl]-1-ethyl-, iodide (1:1);Quinolinium, 2-[<em>p</em>-(dimethylamino)styryl]-1-ethyl-, iodide;Quinaldine Red;Quinolinium, 2-[2-[4-(dimethylamino)phenyl]ethenyl]-1-ethyl-, iodide;2-[<em>p</em>-(Dimethylamino)styryl]-1-ethylquinolinium iodide;α-(<em>p</em>-Dimethylaminophenylethylene)quinoline ethiodide;2-(<em>p</em>-Dimethylaminostyryl)quinoline ethiodide;Eastman 1361;1-Ethyl-2-(<em>p</em>-dimethylaminostyryl)quinoline iodide;2-[4-(Dimethylamino)styryl]-1-ethylquinolinium iodide;NK 92",
    "duplicated_cas_no": "",
    "SMILES": "C(C)[N+]=1C2=C(C=CC1C=CC3=CC=C(N(C)C)C=C3)C=CC=C2.[I-]",
    "meta_data": {
        "InChI": "InChI=1S/C21H23N2.HI/c1-4-23-20(16-12-18-7-5-6-8-21(18)23)15-11-17-9-13-19(14-10-17)22(2)3;/h5-16H,4H2,1-3H3;1H/q+1;/p-1",
        "InChIKey": null,
        "Canonical SMILES": "[I-].C=1C=CC2=C(C1)C=CC(C=CC3=CC=C(C=C3)N(C)C)=[N+]2CC",
        "Molecular Formula": "C<sub>21</sub>H<sub>23</sub>N<sub>2</sub>.I",
        "Molecular Mass": "",
        "Melting Point": "241-243 °C"
    }
}