{
    "cas_no": "2045-00-3",
    "key_name": "<em>o</em>-Arsanilic acid",
    "cn_name": "2-氨基苯胂酸;邻氨基苯胂酸;",
    "alternate_name": "Arsonic acid, <em>As</em>-(2-aminophenyl)-;<em>o</em>-Arsanilic acid;Arsonic acid, (2-aminophenyl)-;<em>As</em>-(2-Aminophenyl)arsonic acid;<em>o</em>-Aminobenzenearsonic acid;2-Aminobenzenearsonic acid;(<em>o</em>-Aminophenyl)arsonic acid;2-Arsanilic acid;(2-Aminophenyl)arsonic acid;NSC 12611",
    "duplicated_cas_no": "",
    "SMILES": "[As](=O)(O)(O)C1=C(N)C=CC=C1",
    "meta_data": {
        "InChI": "InChI=1S/C6H8AsNO3/c8-6-4-2-1-3-5(6)7(9,10)11/h1-4H,8H2,(H2,9,10,11)",
        "InChIKey": null,
        "Canonical SMILES": "O=[As](O)(O)C=1C=CC=CC1N",
        "Molecular Formula": "C<sub>6</sub>H<sub>8</sub>AsNO<sub>3</sub>",
        "Molecular Mass": "217.05",
        "Melting Point": "153-154 °C",
        "Density": "1.79 g/cm³"
    }
}