{
    "cas_no": "20123-80-2",
    "key_name": "Calcium dobesilate",
    "cn_name": "2,5-二羟基苯磺酸钙;羟苯磺酸钙;",
    "alternate_name": "Benzenesulfonic acid, 2,5-dihydroxy-, calcium salt (2:1);Hydroquinone calcium sulfonate;Calcium bis(2,5-dihydroxybenzenesulfonate);Calcium dobesilate;Calcium <em>p</em>-dihydroxybenzenesulfonate;Doxium;Dobesilate calcium;2,5-Dihydroxybenzenesulfonic acid calcium salt;Calcium 2,5-dihydroxybenzenesulfonate;205E;Dobesilate calcium salt;Hydroquinone calcium sulfate;Dexium;Doxivenil;Eflevar",
    "duplicated_cas_no": "29138-74-7;39038-15-8",
    "SMILES": "S(=O)(=O)(O)C1=C(O)C=CC(O)=C1.[Ca]",
    "meta_data": {
        "InChI": "InChI=1S/C6H6O5S.Ca/c7-4-1-2-5(8)6(3-4)12(9,10)11;/h1-3,7-8H,(H,9,10,11);",
        "InChIKey": null,
        "Canonical SMILES": "[Ca].O=S(=O)(O)C1=CC(O)=CC=C1O",
        "Molecular Formula": "C<sub>6</sub>H<sub>6</sub>O<sub>5</sub>S.<sup>1</sup>/<sub>2</sub>Ca",
        "Molecular Mass": "",
        "Melting Point": "&gt;300 °C (decomp)"
    }
}