{
    "cas_no": "504-60-9",
    "key_name": "1,3-Pentadiene",
    "cn_name": null,
    "alternate_name": "1,3-Pentadiene;Piperylene;1-Methylbutadiene;1-Methyl-1,3-butadiene",
    "duplicated_cas_no": "",
    "SMILES": "C(C=C)=CC",
    "meta_data": {
        "InChI": "InChI=1S/C5H8/c1-3-5-4-2/h3-5H,1H2,2H3",
        "InChIKey": null,
        "Canonical SMILES": "C=CC=CC",
        "Molecular Formula": "C<sub>5</sub>H<sub>8</sub>",
        "Molecular Mass": "68.12",
        "Boiling Point": "42 °C",
        "Melting Point": "41-43 °C",
        "Density": "0.6760 g/cm³ @ Temp: 20 °C"
    }
}