{
    "cas_no": "2587-42-0",
    "key_name": "Diazene, 1,2-bis[4-(hexyloxy)phenyl]-, 1-oxide",
    "cn_name": null,
    "alternate_name": "Diazene, 1,2-bis[4-(hexyloxy)phenyl]-, 1-oxide;Azoxybenzene, 4,4′-bis(hexyloxy)-;Diazene, bis[4-(hexyloxy)phenyl]-, 1-oxide;<em>p</em>,<em>p</em>′-Bis(hexyloxy)azoxybenzene;<em>p</em>,<em>p</em>′-Dihexyloxyazoxybenzene;4,4′-Di-<em>n</em>-hexyloxyazoxybenzene;4,4′-Bis(hexyloxy)azoxybenzene;4,4′-Dihexyloxyazoxybenzene;<em>p</em>,<em>p</em>′-Bis(<em>n</em>-hexyloxy)azoxybenzene;4,4′-Dihexoxyazoxybenzene;4,4′-Bis(<em>n</em>-hexyloxy)azoxybenzene;HEXOAB;NSC 127558",
    "duplicated_cas_no": "",
    "SMILES": "N(=N(=O)C1=CC=C(OCCCCCC)C=C1)C2=CC=C(OCCCCCC)C=C2",
    "meta_data": {
        "InChI": "InChI=1S/C24H34N2O3/c1-3-5-7-9-19-28-23-15-11-21(12-16-23)25-26(27)22-13-17-24(18-14-22)29-20-10-8-6-4-2/h11-18H,3-10,19-20H2,1-2H3",
        "InChIKey": null,
        "Canonical SMILES": "O=N(=NC1=CC=C(OCCCCCC)C=C1)C2=CC=C(OCCCCCC)C=C2",
        "Molecular Formula": "C<sub>24</sub>H<sub>34</sub>N<sub>2</sub>O<sub>3</sub>",
        "Molecular Mass": "398.54",
        "Melting Point": "81 °C"
    }
}