{
    "cas_no": "5649-49-0",
    "key_name": "1,4-Piperazinedipropanoic acid",
    "cn_name": "1,4-双(2-羧乙基)哌嗪;",
    "alternate_name": "1,4-Piperazinedipropanoic acid;1,4-Piperazinedipropionic acid;1,4-Bis(2-carboxyethyl)piperazine;NSC 39644;<em>N</em>,<em>N</em>′-Piperazinedipropionic acid",
    "duplicated_cas_no": "",
    "SMILES": "C(CC(O)=O)N1CCN(CCC(O)=O)CC1",
    "meta_data": {
        "InChI": "InChI=1S/C10H18N2O4/c13-9(14)1-3-11-5-7-12(8-6-11)4-2-10(15)16/h1-8H2,(H,13,14)(H,15,16)",
        "InChIKey": null,
        "Canonical SMILES": "O=C(O)CCN1CCN(CCC(=O)O)CC1",
        "Molecular Formula": "C<sub>10</sub>H<sub>18</sub>N<sub>2</sub>O<sub>4</sub>",
        "Molecular Mass": "230.26",
        "Melting Point": "261-262 °C"
    }
}