{
    "cas_no": "1948-29-4",
    "key_name": "γ-Glu-Gly",
    "cn_name": null,
    "alternate_name": "Glycine, <span class=\"text-smallcaps\">L</span>-γ-glutamyl-;Glutamine, <em>N</em>-(carboxymethyl)-, <span class=\"text-smallcaps\">L</span>-;Glycine, <em>N</em>-<span class=\"text-smallcaps\">L</span>-γ-glutamyl-;Glutamine, <em>N</em>-(carboxymethyl)-;<span class=\"text-smallcaps\">L</span>-γ-Glutamylglycine;γ-Glutamylglycine;γ-<span class=\"text-smallcaps\">L</span>-Glutamylglycine;γ-Glu-Gly;NSC 334201;13: PN: WO2011158590 PAGE: 34 claimed sequence;6: PN: CN107114752 PAGE: 2 claimed sequence;(2S)-2-Amino-5-(carboxymethylamino)-5-oxopentanoic acid",
    "duplicated_cas_no": "",
    "SMILES": "C(C(NCC(O)=O)=O)C[C@@H](C(O)=O)N",
    "meta_data": {
        "InChI": "InChI=1S/C7H12N2O5/c8-4(7(13)14)1-2-5(10)9-3-6(11)12/h4H,1-3,8H2,(H,9,10)(H,11,12)(H,13,14)/t4-/m0/s1",
        "InChIKey": null,
        "Canonical SMILES": "O=C(O)CNC(=O)CCC(N)C(=O)O",
        "Molecular Formula": "C<sub>7</sub>H<sub>12</sub>N<sub>2</sub>O<sub>5</sub>",
        "Molecular Mass": "204.18",
        "Melting Point": "193-194 °C"
    }
}