{
    "cas_no": "50-34-0",
    "key_name": "Propantheline bromide",
    "cn_name": "溴丙胺太林;溴丙胺肽林;(2-羟乙基)二异丙基甲基溴化铵咕吨-9-羧酸酯;",
    "alternate_name": "2-Propanaminium, <em>N</em>-methyl-<em>N</em>-(1-methylethyl)-<em>N</em>-[2-[(9<em>H</em>-xanthen-9-ylcarbonyl)oxy]ethyl]-, bromide (1:1);Ammonium, (2-hydroxyethyl)diisopropylmethyl-, bromide, xanthene-9-carboxylate;(2-Hydroxyethyl)diisopropylmethylammonium bromide xanthene-9-carboxylate;2-Propanaminium, <em>N</em>-methyl-<em>N</em>-(1-methylethyl)-<em>N</em>-[2-[(9<em>H</em>-xanthen-9-ylcarbonyl)oxy]ethyl]-, bromide;Xanthene-9-carboxylic acid, ester with (2-hydroxyethyl)diisopropylmethylammonium bromide;β-Diisopropylaminoethyl xanthene-9-carboxylate methobromide;Neopepulsan;Pro-Banthine;Propantheline bromide;Prodixamon;Ketaman;Pantheline;Pervagal;Pro-Gastron;Ercorax;Propantel;Ercotina;SC 3171;Kivatin;Pantas;Corrigast;Neo-Metantyl;L 113;L 113 (leveling agent)",
    "duplicated_cas_no": "",
    "SMILES": "C(OCC[N+](C(C)C)(C(C)C)C)(=O)C1C=2C(OC=3C1=CC=CC3)=CC=CC2.[Br-]",
    "meta_data": {
        "InChI": "InChI=1S/C23H30NO3.BrH/c1-16(2)24(5,17(3)4)14-15-26-23(25)22-18-10-6-8-12-20(18)27-21-13-9-7-11-19(21)22;/h6-13,16-17,22H,14-15H2,1-5H3;1H/q+1;/p-1",
        "InChIKey": null,
        "Canonical SMILES": "[Br-].O=C(OCC[N+](C)(C(C)C)C(C)C)C1C=2C=CC=CC2OC=3C=CC=CC31",
        "Molecular Formula": "C<sub>23</sub>H<sub>30</sub>NO<sub>3</sub>.Br",
        "Molecular Mass": "",
        "Melting Point": "159.5 °C"
    }
}