{
    "cas_no": "443-79-8",
    "key_name": "<span class=\"text-smallcaps\">DL</span>-Isoleucine",
    "cn_name": "DL-异亮氨酸;DL-2-氨基-3-甲基戊酸;",
    "alternate_name": "Isoleucine;Isoleucine, <span class=\"text-smallcaps\">DL</span>-;<span class=\"text-smallcaps\">DL</span>-Isoleucine;(±)-Isoleucine;<span class=\"text-smallcaps\">DL</span>-Ile;NSC 9958",
    "duplicated_cas_no": "19883-67-1;198412-80-5;205879-85-2;224311-99-3;228416-77-1;676371-21-4;1160211-67-5;1649424-38-3;1798874-13-1",
    "SMILES": "[C@H]([C@H](CC)C)(C(O)=O)N",
    "meta_data": {
        "InChI": "InChI=1/C6H13NO2/c1-3-4(2)5(7)6(8)9/h4-5H,3,7H2,1-2H3,(H,8,9)/t4-,5-/s2",
        "InChIKey": null,
        "Canonical SMILES": "O=C(O)C(N)C(C)CC",
        "Molecular Formula": "C<sub>6</sub>H<sub>13</sub>NO<sub>2</sub>",
        "Molecular Mass": "131.17",
        "Melting Point": "95-96 °C"
    }
}