{
    "cas_no": "611-79-0",
    "key_name": "3,3′-Diaminobenzophenone",
    "cn_name": "3,3\"-二氨基二苯甲酮;",
    "alternate_name": "Methanone, bis(3-aminophenyl)-;Benzophenone, 3,3′-diamino-;Bis(3-aminophenyl)methanone;3,3′-Diaminobenzophenone;<em>m</em>,<em>m</em>′-Diaminobenzophenone;DABP;NSC 113058;3,3′-Diaminodiphenylketone",
    "duplicated_cas_no": "",
    "SMILES": "C(=O)(C1=CC(N)=CC=C1)C2=CC(N)=CC=C2",
    "meta_data": {
        "InChI": "InChI=1S/C13H12N2O/c14-11-5-1-3-9(7-11)13(16)10-4-2-6-12(15)8-10/h1-8H,14-15H2",
        "InChIKey": null,
        "Canonical SMILES": "O=C(C=1C=CC=C(N)C1)C=2C=CC=C(N)C2",
        "Molecular Formula": "C<sub>13</sub>H<sub>12</sub>N<sub>2</sub>O",
        "Molecular Mass": "212.25",
        "Boiling Point": "285 °C @ Press: 11 Torr",
        "Melting Point": "173.5 °C"
    }
}