{
    "cas_no": "10128-55-9",
    "key_name": "<em>N</em>-[2-(4-Oxo-4<em>H</em>-3,1-benzoxazin-2-yl)phenyl]-2-naphthalenesulfonamide",
    "cn_name": "N-[2-(4-氧代-4H-3,1-苯丙恶嗪-2-基)苯基]-2-萘磺酰胺;",
    "alternate_name": "2-Naphthalenesulfonamide, <em>N</em>-[2-(4-oxo-4<em>H</em>-3,1-benzoxazin-2-yl)phenyl]-;2-Naphthalenesulfonanilide, 2′-(4-oxo-4<em>H</em>-3,1-benzoxazin-2-yl)-;4<em>H</em>-3,1-Benzoxazine, 2-naphthalenesulfonamide deriv.;<em>N</em>-[2-(4-Oxo-4<em>H</em>-3,1-benzoxazin-2-yl)phenyl]-2-naphthalenesulfonamide;Orlum White 520T;Cartax CXDP;Cartax DP;Cartax CXDP Powder;Cartax DP liquid",
    "duplicated_cas_no": "136362-01-1",
    "SMILES": "N(S(=O)(=O)C1=CC2=C(C=C1)C=CC=C2)C3=C(C=CC=C3)C4=NC=5C(C(=O)O4)=CC=CC5",
    "meta_data": {
        "InChI": "InChI=1S/C24H16N2O4S/c27-24-20-10-4-5-11-21(20)25-23(30-24)19-9-3-6-12-22(19)26-31(28,29)18-14-13-16-7-1-2-8-17(16)15-18/h1-15,26H",
        "InChIKey": null,
        "Canonical SMILES": "O=C1OC(=NC=2C=CC=CC12)C=3C=CC=CC3NS(=O)(=O)C=4C=CC=5C=CC=CC5C4",
        "Molecular Formula": "C<sub>24</sub>H<sub>16</sub>N<sub>2</sub>O<sub>4</sub>S",
        "Molecular Mass": "428.46",
        "Melting Point": "184.8-185.5 °C"
    }
}