{
    "cas_no": "108998-83-0",
    "key_name": "(2<em>S</em>)-1,1,2-Triphenyl-1,2-ethanediol",
    "cn_name": "(S)-(-)-1,1,2-三苯基-1,2-乙二醇;",
    "alternate_name": "1,2-Ethanediol, 1,1,2-triphenyl-, (2<em>S</em>)-;1,2-Ethanediol, 1,1,2-triphenyl-, (<em>S</em>)-;(2<em>S</em>)-1,1,2-Triphenyl-1,2-ethanediol;(<em>S</em>)-1,1,2-Triphenyl-1,2-ethanediol;(2S)-1,1,2-Triphenylethane-1,2-diol;1,2-Ethanediol 1,1,2-triphenyl-, (2S)-;(<em>S</em>)-(-)-1,1,2-Triphenyl-1,2-ethanediol",
    "duplicated_cas_no": "",
    "SMILES": "C([C@@H](O)C1=CC=CC=C1)(O)(C2=CC=CC=C2)C3=CC=CC=C3",
    "meta_data": {
        "InChI": "InChI=1S/C20H18O2/c21-19(16-10-4-1-5-11-16)20(22,17-12-6-2-7-13-17)18-14-8-3-9-15-18/h1-15,19,21-22H/t19-/m0/s1",
        "InChIKey": null,
        "Canonical SMILES": "OC(C=1C=CC=CC1)C(O)(C=2C=CC=CC2)C=3C=CC=CC3",
        "Molecular Formula": "C<sub>20</sub>H<sub>18</sub>O<sub>2</sub>",
        "Molecular Mass": "290.36",
        "Melting Point": "127-128 °C"
    }
}