{
    "cas_no": "5733-86-8",
    "key_name": "5-Oxo-1-(phenylmethyl)-3-pyrrolidinecarboxylic acid",
    "cn_name": "1-苄基-5-氧代-吡咯啉-3-甲酸;1-苄基-5-氧代-吡咯啉-3-甲酸;",
    "alternate_name": "3-Pyrrolidinecarboxylic acid, 5-oxo-1-(phenylmethyl)-;3-Pyrrolidinecarboxylic acid, 1-benzyl-5-oxo-;5-Oxo-1-(phenylmethyl)-3-pyrrolidinecarboxylic acid;1-Benzyl-4-carboxy-2-pyrrolidone;1-Benzyl-5-oxo-3-pyrrolidinecarboxylic acid;Web 2124;1-Benzyl-2-oxopyrrolidine-4-carboxylic acid;NSC 165809",
    "duplicated_cas_no": "",
    "SMILES": "C(N1CC(C(O)=O)CC1=O)C2=CC=CC=C2",
    "meta_data": {
        "InChI": "InChI=1S/C12H13NO3/c14-11-6-10(12(15)16)8-13(11)7-9-4-2-1-3-5-9/h1-5,10H,6-8H2,(H,15,16)",
        "InChIKey": null,
        "Canonical SMILES": "O=C(O)C1CC(=O)N(CC=2C=CC=CC2)C1",
        "Molecular Formula": "C<sub>12</sub>H<sub>13</sub>NO<sub>3</sub>",
        "Molecular Mass": "219.24",
        "Melting Point": "143-144 °C"
    }
}