{
    "cas_no": "2688-48-4",
    "key_name": "Homogentisic acid lactone",
    "cn_name": "2,5-二羟基苯基乙酸γ-内酯;",
    "alternate_name": "2(3<em>H</em>)-Benzofuranone, 5-hydroxy-;Acetic acid, (2,5-dihydroxyphenyl)-, γ-lactone;5-Hydroxy-2(3<em>H</em>)-benzofuranone;Homogentisic acid lactone;Homogentisic lactone;2,5-Dihydroxyphenylacetic acid lactone;5-Hydroxy-2-coumaranone;2,5-Dihydroxyphenylacetic acid γ-lactone;NSC 61996;5-Hydroxy-3<em>H</em>-benzofuran-2-one;Homogentisic acid γ-lactone",
    "duplicated_cas_no": "31547-73-6",
    "SMILES": "O=C1OC=2C(C1)=CC(O)=CC2",
    "meta_data": {
        "InChI": "InChI=1S/C8H6O3/c9-6-1-2-7-5(3-6)4-8(10)11-7/h1-3,9H,4H2",
        "InChIKey": null,
        "Canonical SMILES": "O=C1OC2=CC=C(O)C=C2C1",
        "Molecular Formula": "C<sub>8</sub>H<sub>6</sub>O<sub>3</sub>",
        "Molecular Mass": "150.13",
        "Melting Point": "189-190 °C"
    }
}