{
    "cas_no": "107097-80-3",
    "key_name": "Loxiglumide",
    "cn_name": null,
    "alternate_name": "Pentanoic acid, 4-[(3,4-dichlorobenzoyl)amino]-5-[(3-methoxypropyl)pentylamino]-5-oxo-;Pentanoic acid, 4-[(3,4-dichlorobenzoyl)amino]-5-[(3-methoxypropyl)pentylamino]-5-oxo-, (±)-;4-[(3,4-Dichlorobenzoyl)amino]-5-[(3-methoxypropyl)pentylamino]-5-oxopentanoic acid;CR 1505;Loxiglumide",
    "duplicated_cas_no": "",
    "SMILES": "C(C(N(CCCCC)CCCOC)=O)(NC(=O)C1=CC(Cl)=C(Cl)C=C1)CCC(O)=O",
    "meta_data": {
        "InChI": "InChI=1S/C21H30Cl2N2O5/c1-3-4-5-11-25(12-6-13-30-2)21(29)18(9-10-19(26)27)24-20(28)15-7-8-16(22)17(23)14-15/h7-8,14,18H,3-6,9-13H2,1-2H3,(H,24,28)(H,26,27)",
        "InChIKey": null,
        "Canonical SMILES": "O=C(O)CCC(NC(=O)C1=CC=C(Cl)C(Cl)=C1)C(=O)N(CCCOC)CCCCC",
        "Molecular Formula": "C<sub>21</sub>H<sub>30</sub>Cl<sub>2</sub>N<sub>2</sub>O<sub>5</sub>",
        "Molecular Mass": "461.38",
        "Melting Point": "113-115 °C"
    }
}