{
    "cas_no": "3204-27-1",
    "key_name": "Dinoterb acetate",
    "cn_name": "特乐酯;特乐酯;地乐消乳剂[;地乐消;",
    "alternate_name": "Phenol, 2-(1,1-dimethylethyl)-4,6-dinitro-, 1-acetate;Phenol, 2-<em>tert</em>-butyl-4,6-dinitro-, acetate (ester);Phenol, 2-(1,1-dimethylethyl)-4,6-dinitro-, acetate (ester);Phenol, 2-<em>tert</em>-butyl-4,6-dinitro-, acetate;MC 1108;2-<em>tert</em>-Butyl-4,6-dinitrophenyl acetate;Dinoterb acetate;Dinoil",
    "duplicated_cas_no": "",
    "SMILES": "O(C(C)=O)C1=C(C(C)(C)C)C=C(N(=O)=O)C=C1N(=O)=O",
    "meta_data": {
        "InChI": "InChI=1S/C12H14N2O6/c1-7(15)20-11-9(12(2,3)4)5-8(13(16)17)6-10(11)14(18)19/h5-6H,1-4H3",
        "InChIKey": null,
        "Canonical SMILES": "O=C(OC=1C(=CC(=CC1C(C)(C)C)N(=O)=O)N(=O)=O)C",
        "Molecular Formula": "C<sub>12</sub>H<sub>14</sub>N<sub>2</sub>O<sub>6</sub>",
        "Molecular Mass": "282.25",
        "Melting Point": "133.0-134.5 °C"
    }
}