{
    "cas_no": "349-58-6",
    "key_name": "3,5-Bis(trifluoromethyl)phenol",
    "cn_name": "3,5-二三氟甲基苯酚;3,5-双三氟甲基苯酚;",
    "alternate_name": "Phenol, 3,5-bis(trifluoromethyl)-;3,5-Xylenol, α,α,α,α′,α′,α′-hexafluoro-;3,5-Bis(trifluoromethyl)phenol;NSC 88299",
    "duplicated_cas_no": "",
    "SMILES": "C(F)(F)(F)C1=CC(C(F)(F)F)=CC(O)=C1",
    "meta_data": {
        "InChI": "InChI=1S/C8H4F6O/c9-7(10,11)4-1-5(8(12,13)14)3-6(15)2-4/h1-3,15H",
        "InChIKey": null,
        "Canonical SMILES": "FC(F)(F)C1=CC(O)=CC(=C1)C(F)(F)F",
        "Molecular Formula": "C<sub>8</sub>H<sub>4</sub>F<sub>6</sub>O",
        "Molecular Mass": "230.11",
        "Boiling Point": "97.2 °C @ Press: 50 Torr",
        "Melting Point": "20.4-21.3 °C"
    }
}