{
    "cas_no": "54504-70-0",
    "key_name": "Theofibrate",
    "cn_name": null,
    "alternate_name": "Propanoic acid, 2-(4-chlorophenoxy)-2-methyl-, 2-(1,2,3,6-tetrahydro-1,3-dimethyl-2,6-dioxo-7<em>H</em>-purin-7-yl)ethyl ester;ML 1024;Etofylline clofibrate;Duolip;Theofibrate;Etophylline clofibrate;Ethophylline clofibrate;NSC 234348;2-(1,3-Dimethyl-2,6-dioxo-2,3,6,7-tetrahydro-1<em>H</em>-purin-7-yl)ethyl 2-(4-chlorophenoxy)-2-methylpropanoate",
    "duplicated_cas_no": "",
    "SMILES": "C(COC(C(OC1=CC=C(Cl)C=C1)(C)C)=O)N2C3=C(N=C2)N(C)C(=O)N(C)C3=O",
    "meta_data": {
        "InChI": "InChI=1S/C19H21ClN4O5/c1-19(2,29-13-7-5-12(20)6-8-13)17(26)28-10-9-24-11-21-15-14(24)16(25)23(4)18(27)22(15)3/h5-8,11H,9-10H2,1-4H3",
        "InChIKey": null,
        "Canonical SMILES": "O=C(OCCN1C=NC2=C1C(=O)N(C(=O)N2C)C)C(OC3=CC=C(Cl)C=C3)(C)C",
        "Molecular Formula": "C<sub>19</sub>H<sub>21</sub>ClN<sub>4</sub>O<sub>5</sub>",
        "Molecular Mass": "420.85",
        "Melting Point": "133-135 °C"
    }
}