{
    "cas_no": "1820-81-1",
    "key_name": "5-Chlorouracil",
    "cn_name": "5-氯尿嘧啶;",
    "alternate_name": "2,4(1<em>H</em>,3<em>H</em>)-Pyrimidinedione, 5-chloro-;Uracil, 5-chloro-;5-Chloro-2,4(1<em>H</em>,3<em>H</em>)-pyrimidinedione;5-Chlorouracil;5-Chloro-2,4-pyrimidinedione;NSC 28172;5-Chloro-2,4-dihydroxypyrimidine;5-Chloropyrimidine-2,4-diol",
    "duplicated_cas_no": "5909-22-8",
    "SMILES": "O=C1C(Cl)=CNC(=O)N1",
    "meta_data": {
        "InChI": "InChI=1S/C4H3ClN2O2/c5-2-1-6-4(9)7-3(2)8/h1H,(H2,6,7,8,9)",
        "InChIKey": null,
        "Canonical SMILES": "O=C1NC=C(Cl)C(=O)N1",
        "Molecular Formula": "C<sub>4</sub>H<sub>3</sub>ClN<sub>2</sub>O<sub>2</sub>",
        "Molecular Mass": "146.53",
        "Melting Point": "&gt;300 °C"
    }
}