{
    "cas_no": "115-07-1",
    "key_name": "Propylene",
    "cn_name": "丙烯;1-丙烯;",
    "alternate_name": "1-Propene;Propene;Methylethylene;Propylene;1-Propylene;R 1270;HC 1270;N 25;N 25 (olefin)",
    "duplicated_cas_no": "676-63-1;33004-01-2",
    "SMILES": "C(C)=C",
    "meta_data": {
        "InChI": "InChI=1S/C3H6/c1-3-2/h3H,1H2,2H3",
        "InChIKey": null,
        "Canonical SMILES": "C=CC",
        "Molecular Formula": "C<sub>3</sub>H<sub>6</sub>",
        "Molecular Mass": "42.08",
        "Boiling Point": "-48 °C @ Press: 760 Torr",
        "Melting Point": "-185 °C",
        "Density": "0.5 g/cm³"
    }
}