{
    "cas_no": "2421-28-5",
    "key_name": "Benzophenonetetracarboxylic dianhydride",
    "cn_name": "3,3\",4,4\"-二苯甲酮四甲酸二酐;",
    "alternate_name": "1,3-Isobenzofurandione, 5,5′-carbonylbis-;Phthalic anhydride, 4,4′-carbonyldi-;5,5′-Carbonylbis[1,3-isobenzofurandione];Benzophenonetetracarboxylic acid dianhydride;3,4,3′,4′-Benzophenonetetracarboxylic acid anhydride;3,3′,4,4′-Tetracarboxybenzophenone dianhydride;Benzophenonetetracarboxylic dianhydride;4,4′-Carbonylbis(phthalic anhydride);3,4,3′,4′-Benzophenonetetracarboxylic dianhydride;4,4′-Carbonyldiphthalic anhydride;4,4′-Diphthalic anhydride ketone;3,3′,4,4′-Benzophenonetetracarboxylic acid dianhydride;BTDA;3,3′,4,4′-Benzophenonetetracarboxylic dianhydride;Benzophenone-3,3′,4,4′-tetracarboxylic acid anhydride;NSC 78480;3,3′,4,4′-Benzophenonetetracarboxylic anhydride;BTDA-PF;BTDA-UP;4,4-Carbonyldiphthalic anhydride",
    "duplicated_cas_no": "101505-15-1;55206-66-1;64308-15-2;65929-27-3;68593-66-8;86442-22-0;160903-84-4;163915-23-9;174612-63-6;1156492-00-0;1189096-76-1",
    "SMILES": "O=C1C=2C(C(=O)O1)=CC=C(C(=O)C=3C=C4C(=CC3)C(=O)OC4=O)C2",
    "meta_data": {
        "InChI": "InChI=1S/C17H6O7/c18-13(7-1-3-9-11(5-7)16(21)23-14(9)19)8-2-4-10-12(6-8)17(22)24-15(10)20/h1-6H",
        "InChIKey": null,
        "Canonical SMILES": "O=C1OC(=O)C2=CC(=CC=C12)C(=O)C3=CC=C4C(=O)OC(=O)C4=C3",
        "Molecular Formula": "C<sub>17</sub>H<sub>6</sub>O<sub>7</sub>",
        "Molecular Mass": "322.23",
        "Melting Point": "225-226.5 °C"
    }
}