{
    "cas_no": "26186-02-7",
    "key_name": "1-Tridecyne",
    "cn_name": "1-十三炔;1-十三炔;1-十三炔,97%;",
    "alternate_name": "1-Tridecyne;1-Tridecylene",
    "duplicated_cas_no": "",
    "SMILES": "C(CCCCCC)CCCCC#C",
    "meta_data": {
        "InChI": "InChI=1S/C13H24/c1-3-5-7-9-11-13-12-10-8-6-4-2/h1H,4-13H2,2H3",
        "InChIKey": null,
        "Canonical SMILES": "C#CCCCCCCCCCCC",
        "Molecular Formula": "C<sub>13</sub>H<sub>24</sub>",
        "Molecular Mass": "180.33",
        "Boiling Point": "130 °C @ Press: 30 Torr",
        "Melting Point": "2.5 °C"
    }
}