{
    "cas_no": "37641-36-4",
    "key_name": "1,3,4-Oxadiazole-2-carboxylic acid, 5-methyl-, ethyl ester",
    "cn_name": null,
    "alternate_name": "1,3,4-Oxadiazole-2-carboxylic acid, 5-methyl-, ethyl ester;Ethyl 5-methyl-1,3,4-oxadiazole-2-carboxylate",
    "duplicated_cas_no": "1445797-13-6",
    "SMILES": "C(OCC)(=O)C1=NN=C(C)O1",
    "meta_data": {
        "InChI": "InChI=1S/C6H8N2O3/c1-3-10-6(9)5-8-7-4(2)11-5/h3H2,1-2H3",
        "InChIKey": null,
        "Canonical SMILES": "O=C(OCC)C1=NN=C(O1)C",
        "Molecular Formula": "C<sub>6</sub>H<sub>8</sub>N<sub>2</sub>O<sub>3</sub>",
        "Molecular Mass": "156.14",
        "Melting Point": "43-45 °C"
    }
}