{
    "cas_no": "19523-57-0",
    "key_name": "2-Ethoxy-1-naphthalenecarboxaldehyde",
    "cn_name": "2-乙氧基-1-萘亚甲基醛;2-乙氧基萘醛;邻乙氧基萘甲醛;2-乙氧基-1-萘醛;",
    "alternate_name": "1-Naphthalenecarboxaldehyde, 2-ethoxy-;1-Naphthaldehyde, 2-ethoxy-;2-Ethoxy-1-naphthalenecarboxaldehyde;2-Ethoxynaphthaldehyde;2-Ethoxy-1-naphthaldehyde;NSC 74560;2-Ethoxynaphthalene-1-carbaldehyde",
    "duplicated_cas_no": "",
    "SMILES": "C(=O)C=1C2=C(C=CC1OCC)C=CC=C2",
    "meta_data": {
        "InChI": "InChI=1S/C13H12O2/c1-2-15-13-8-7-10-5-3-4-6-11(10)12(13)9-14/h3-9H,2H2,1H3",
        "InChIKey": null,
        "Canonical SMILES": "O=CC1=C(OCC)C=CC=2C=CC=CC21",
        "Molecular Formula": "C<sub>13</sub>H<sub>12</sub>O<sub>2</sub>",
        "Molecular Mass": "200.23",
        "Melting Point": "115 °C"
    }
}