{
    "cas_no": "4270-27-3",
    "key_name": "6-Chlorouracil",
    "cn_name": "6-氯尿嘧啶;",
    "alternate_name": "2,4(1<em>H</em>,3<em>H</em>)-Pyrimidinedione, 6-chloro-;Uracil, 6-chloro-;6-Chloro-2,4(1<em>H</em>,3<em>H</em>)-pyrimidinedione;4-Chloro-2,6-dihydroxypyrimidine;6-Chlorouracil;6-Chloro-2,4-pyrimidinediol;6-Chloro-2,4-dihydroxypyrimidine;6-Chloropyrimidine-2,4(1<em>H</em>,3<em>H</em>)-dione;NSC 210419;NSC 43265;6-Chloropyrimidine-2,4-dione",
    "duplicated_cas_no": "",
    "SMILES": "ClC1=CC(=O)NC(=O)N1",
    "meta_data": {
        "InChI": "InChI=1S/C4H3ClN2O2/c5-2-1-3(8)7-4(9)6-2/h1H,(H2,6,7,8,9)",
        "InChIKey": null,
        "Canonical SMILES": "O=C1C=C(Cl)NC(=O)N1",
        "Molecular Formula": "C<sub>4</sub>H<sub>3</sub>ClN<sub>2</sub>O<sub>2</sub>",
        "Molecular Mass": "146.53",
        "Melting Point": "300 °C"
    }
}