{
    "cas_no": "20511-20-0",
    "key_name": "Ethyl 3-(4-methylphenyl)-2-propenoate",
    "cn_name": "对甲基肉桂酸乙酯;",
    "alternate_name": "2-Propenoic acid, 3-(4-methylphenyl)-, ethyl ester;Cinnamic acid, <em>p</em>-methyl-, ethyl ester;Ethyl 3-(4-methylphenyl)-2-propenoate;Ethyl <em>p</em>-methylcinnamate;4-Methylcinnamic acid ethyl ester;Ethyl 4-methylcinnamate;NSC 338436;Ethyl 3-(<em>p</em>-tolyl)acrylate;Ethyl 3-(4-methylphenyl)propenoate",
    "duplicated_cas_no": "",
    "SMILES": "C(=CC(OCC)=O)C1=CC=C(C)C=C1",
    "meta_data": {
        "InChI": "InChI=1S/C12H14O2/c1-3-14-12(13)9-8-11-6-4-10(2)5-7-11/h4-9H,3H2,1-2H3",
        "InChIKey": null,
        "Canonical SMILES": "O=C(OCC)C=CC1=CC=C(C=C1)C",
        "Molecular Formula": "C<sub>12</sub>H<sub>14</sub>O<sub>2</sub>",
        "Molecular Mass": "190.24",
        "Boiling Point": "142 °C @ Press: 1 Torr"
    }
}