{
    "cas_no": "105-66-8",
    "key_name": "Propyl butyrate",
    "cn_name": "丁酸丙酯;",
    "alternate_name": "Butanoic acid, propyl ester;Butyric acid, propyl ester;Propyl butyrate;Propyl <em>n</em>-butyrate;Propyl butanoate;<em>n</em>-Propanol butyrate;<em>n</em>-Propyl butanoate",
    "duplicated_cas_no": "",
    "SMILES": "C(OCCC)(CCC)=O",
    "meta_data": {
        "InChI": "InChI=1S/C7H14O2/c1-3-5-7(8)9-6-4-2/h3-6H2,1-2H3",
        "InChIKey": null,
        "Canonical SMILES": "O=C(OCCC)CCC",
        "Molecular Formula": "C<sub>7</sub>H<sub>14</sub>O<sub>2</sub>",
        "Molecular Mass": "130.18",
        "Boiling Point": "143 °C",
        "Melting Point": "-95.2 °C"
    }
}