{
    "cas_no": "617-79-8",
    "key_name": "2-Ethylbutylamine",
    "cn_name": "2-乙基丁胺;2-乙基-正丁基胺;",
    "alternate_name": "1-Butanamine, 2-ethyl-;Butylamine, 2-ethyl-;2-Ethyl-1-butanamine;2-Ethylbutylamine;1-Amino-2-ethylbutane;(2-Ethyl-<em>n</em>-butyl)amine;3-(Aminomethyl)pentane",
    "duplicated_cas_no": "",
    "SMILES": "C(CC)(CC)CN",
    "meta_data": {
        "InChI": "InChI=1S/C6H15N/c1-3-6(4-2)5-7/h6H,3-5,7H2,1-2H3",
        "InChIKey": null,
        "Canonical SMILES": "NCC(CC)CC",
        "Molecular Formula": "C<sub>6</sub>H<sub>15</sub>N",
        "Molecular Mass": "101.19",
        "Boiling Point": "125 °C",
        "Melting Point": "42-43 °C",
        "Density": "0.776 g/cm³ @ Temp: 20 °C"
    }
}