{
    "cas_no": "102676-47-1",
    "key_name": "Fadrozole",
    "cn_name": "法倔唑;",
    "alternate_name": "Benzonitrile, 4-(5,6,7,8-tetrahydroimidazo[1,5-<em>a</em>]pyridin-5-yl)-;Imidazo[1,5-<em>a</em>]pyridine, benzonitrile deriv.;4-(5,6,7,8-Tetrahydroimidazo[1,5-<em>a</em>]pyridin-5-yl)benzonitrile;Fadrozole",
    "duplicated_cas_no": "131833-76-6",
    "SMILES": "C(#N)C1=CC=C(C2N3C(CCC2)=CN=C3)C=C1",
    "meta_data": {
        "InChI": "InChI=1S/C14H13N3/c15-8-11-4-6-12(7-5-11)14-3-1-2-13-9-16-10-17(13)14/h4-7,9-10,14H,1-3H2",
        "InChIKey": null,
        "Canonical SMILES": "N#CC1=CC=C(C=C1)C2N3C=NC=C3CCC2",
        "Molecular Formula": "C<sub>14</sub>H<sub>13</sub>N<sub>3</sub>",
        "Molecular Mass": "223.27",
        "Melting Point": "117-118 °C"
    }
}