{
    "cas_no": "62865-36-5",
    "key_name": "Diclomezine",
    "cn_name": "哒菌酮;6-(3，5-二氯-4-甲苯基)-3-(2H)哒嗪酮;",
    "alternate_name": "3(2<em>H</em>)-Pyridazinone, 6-(3,5-dichloro-4-methylphenyl)-;6-(3,5-Dichloro-4-methylphenyl)-3(2<em>H</em>)-pyridazinone;Diclomezine;Monguard",
    "duplicated_cas_no": "109675-63-0;1135442-72-6",
    "SMILES": "ClC=1C=C(C=C(Cl)C1C)C=2C=CC(=O)NN2",
    "meta_data": {
        "InChI": "InChI=1S/C11H8Cl2N2O/c1-6-8(12)4-7(5-9(6)13)10-2-3-11(16)15-14-10/h2-5H,1H3,(H,15,16)",
        "InChIKey": null,
        "Canonical SMILES": "O=C1C=CC(=NN1)C=2C=C(Cl)C(=C(Cl)C2)C",
        "Molecular Formula": "C<sub>11</sub>H<sub>8</sub>Cl<sub>2</sub>N<sub>2</sub>O",
        "Molecular Mass": "255.10",
        "Melting Point": "251.5 °C"
    }
}