{
    "cas_no": "20013-75-6",
    "key_name": "6,7-Dihydro-1,5,8-trimethylnaphtho[2,1-<em>b</em>]furan",
    "cn_name": null,
    "alternate_name": "Naphtho[2,1-<em>b</em>]furan, 6,7-dihydro-1,5,8-trimethyl-;6,7-Dihydro-1,5,8-trimethylnaphtho[2,1-<em>b</em>]furan;Pyrocurzerenone;Pyrocurzerenon;1,5,8-Trimethyl-6<em>H</em>,7<em>H</em>-naphtho[2,1-<em>b</em>]furan",
    "duplicated_cas_no": "",
    "SMILES": "CC=1C=2C3=C(C(C)=CC2OC1)CCC(C)=C3",
    "meta_data": {
        "InChI": "InChI=1S/C15H16O/c1-9-4-5-12-10(2)7-14-15(13(12)6-9)11(3)8-16-14/h6-8H,4-5H2,1-3H3",
        "InChIKey": null,
        "Canonical SMILES": "O1C=C(C=2C1=CC(=C3C2C=C(C)CC3)C)C",
        "Molecular Formula": "C<sub>15</sub>H<sub>16</sub>O",
        "Molecular Mass": "212.29",
        "Melting Point": "76.5-77.5 °C"
    }
}