{
    "cas_no": "69-93-2",
    "key_name": "Uric acid",
    "cn_name": null,
    "alternate_name": "1<em>H</em>-Purine-2,6,8(3<em>H</em>)-trione, 7,9-dihydro-;Uric acid;7,9-Dihydro-1<em>H</em>-purine-2,6,8(3<em>H</em>)-trione;Lithic acid;Purine-2,6,8(1<em>H</em>,3<em>H</em>,9<em>H</em>)-trione;2,6,8-Trioxypurine;1<em>H</em>-Purine-2,6,8-triol;2,6,8-Trioxopurine;2,6,8-Trihydroxypurine;NSC 3975;2,3,6,7,8,9-Hexahydro-1<em>H</em>-purine-2,6,8-trione;MeSH ID: D014527",
    "duplicated_cas_no": "530-13-2;13154-20-6;33278-42-1;34318-07-5;42911-28-4;42911-27-3;42911-25-1",
    "SMILES": "O=C1C2=C(NC(=O)N2)NC(=O)N1",
    "meta_data": {
        "InChI": "InChI=1S/C5H4N4O3/c10-3-1-2(7-4(11)6-1)8-5(12)9-3/h(H4,6,7,8,9,10,11,12)",
        "InChIKey": null,
        "Canonical SMILES": "O=C1NC(=O)C=2NC(=O)NC2N1",
        "Molecular Formula": "C<sub>5</sub>H<sub>4</sub>N<sub>4</sub>O<sub>3</sub>",
        "Molecular Mass": "168.11",
        "Melting Point": "310 °C (decomp)",
        "Density": "1.003-1.010 g/cm³"
    }
}