{
    "cas_no": "492-97-7",
    "key_name": "2,2′-Bithiophene",
    "cn_name": "二噻吩;",
    "alternate_name": "2,2′-Bithiophene;2,2′-Bithienyl;2,2′-Dithienyl;2,2′-Dithiophene;2,2′-Bisthiophene;α-Bithiophene;2-(2-Thienyl)thiophene;2-(Thiophen-2-yl)thiophene;2-Thiophen-2-ylthiophene",
    "duplicated_cas_no": "",
    "SMILES": "C1(=CC=CS1)C2=CC=CS2",
    "meta_data": {
        "InChI": "InChI=1S/C8H6S2/c1-3-7(9-5-1)8-4-2-6-10-8/h1-6H",
        "InChIKey": null,
        "Canonical SMILES": "S1C=CC=C1C=2SC=CC2",
        "Molecular Formula": "C<sub>8</sub>H<sub>6</sub>S<sub>2</sub>",
        "Molecular Mass": "166.26",
        "Boiling Point": "260 °C",
        "Melting Point": "33 °C"
    }
}