{
    "cas_no": "3870-07-3",
    "key_name": "(11β,16α)-21-(Acetyloxy)-9-fluoro-11-hydroxy-16,17-[(1-methylethylidene)bis(oxy)]pregna-1,4-diene-3,20-dione",
    "cn_name": "醋酸曲安奈德;",
    "alternate_name": "Pregna-1,4-diene-3,20-dione, 21-(acetyloxy)-9-fluoro-11-hydroxy-16,17-[(1-methylethylidene)bis(oxy)]-, (11β,16α)-;Pregna-1,4-diene-3,20-dione, 9-fluoro-11β,16α,17,21-tetrahydroxy-, cyclic 16,17-acetal with acetone, 21-acetate;2<em>H</em>-Naphth[2′,1′:4,5]indeno[1,2-<em>d</em>][1,3]dioxole, pregna-1,4-diene-3,20-dione deriv.;(11β,16α)-21-(Acetyloxy)-9-fluoro-11-hydroxy-16,17-[(1-methylethylidene)bis(oxy)]pregna-1,4-diene-3,20-dione;Triamcinolone acetonide 21-acetate",
    "duplicated_cas_no": "",
    "SMILES": "C(COC(C)=O)(=O)[C@]12[C@]3(C)[C@@](C[C@]1(OC(C)(C)O2)[H])([C@]4([C@](F)([C@@H](O)C3)[C@]5(C)C(CC4)=CC(=O)C=C5)[H])[H]",
    "meta_data": {
        "InChI": "InChI=1S/C26H33FO7/c1-14(28)32-13-20(31)26-21(33-22(2,3)34-26)11-18-17-7-6-15-10-16(29)8-9-23(15,4)25(17,27)19(30)12-24(18,26)5/h8-10,17-19,21,30H,6-7,11-13H2,1-5H3/t17-,18-,19-,21+,23-,24-,25-,26+/m0/s1",
        "InChIKey": null,
        "Canonical SMILES": "O=C1C=CC2(C(=C1)CCC3C4CC5OC(OC5(C(=O)COC(=O)C)C4(C)CC(O)C32F)(C)C)C",
        "Molecular Formula": "C<sub>26</sub>H<sub>33</sub>FO<sub>7</sub>",
        "Molecular Mass": "476.53",
        "Melting Point": "266 °C"
    }
}