{
    "cas_no": "1453-58-3",
    "key_name": "3-Methylpyrazole",
    "cn_name": "3-甲基吡唑;",
    "alternate_name": "1<em>H</em>-Pyrazole, 3-methyl-;Pyrazole, 3-methyl-;Pyrazole, 3(<em>or</em> 5)-methyl-;3-Methyl-1<em>H</em>-pyrazole;3-Methylpyrazole;5-Methylpyrazole",
    "duplicated_cas_no": "1706-48-5;73616-29-2;77624-22-7;82357-97-9;84736-94-7;1198420-88-0",
    "SMILES": "CC=1C=CNN1",
    "meta_data": {
        "InChI": "InChI=1S/C4H6N2/c1-4-2-3-5-6-4/h2-3H,1H3,(H,5,6)",
        "InChIKey": null,
        "Canonical SMILES": "N=1NC=CC1C",
        "Molecular Formula": "C<sub>4</sub>H<sub>6</sub>N<sub>2</sub>",
        "Molecular Mass": "82.10",
        "Boiling Point": "204 °C",
        "Melting Point": "36.5 °C",
        "Density": "1.0206 g/cm³ @ Temp: 14 °C"
    }
}