{
    "cas_no": "110-99-6",
    "key_name": "Diglycolic acid",
    "cn_name": "二甘醇酸;2,2\"-氧二乙酸;一缩二乙醇酸;",
    "alternate_name": "Acetic acid, 2,2′-oxybis-;Diglycolic acid;Acetic acid, oxydi-;2,2′-Oxybis[acetic acid];Oxybisacetic acid;Oxydiacetic acid;Oxydiethanolic acid;Bis(carboxymethyl) ether;2,2′-Oxydiacetic acid;Oxodiacetic acid;3-Oxapentanedioic acid;3-Oxapentane-1,5-dioic acid;NSC 8651;2-(Carboxymethoxy)acetic acid",
    "duplicated_cas_no": "77409-76-8",
    "SMILES": "O(CC(O)=O)CC(O)=O",
    "meta_data": {
        "InChI": "InChI=1S/C4H6O5/c5-3(6)1-9-2-4(7)8/h1-2H2,(H,5,6)(H,7,8)",
        "InChIKey": null,
        "Canonical SMILES": "O=C(O)COCC(=O)O",
        "Molecular Formula": "C<sub>4</sub>H<sub>6</sub>O<sub>5</sub>",
        "Molecular Mass": "134.09",
        "Melting Point": "148 °C",
        "Density": "1.54 g/cm³"
    }
}