{
    "cas_no": "11006-76-1",
    "key_name": "Streptogramin",
    "cn_name": "维吉尼霉素;奥斯立星；抗金菌霉素；抗菌素849；美加霉素；米加霉素；米卡霉素；蜜柑霉素；普那霉素;",
    "alternate_name": "Virginiamycin;Mikamycin;Streptogramin;Virgimycin;RP 7293;Pyostacine;Stapyocine;Eskalin V;Eskalin 500;Stafac 500;Pyostacin;Stafac 20;Stafac;Lactrol;V-max;Livelong;Lactrol XP",
    "duplicated_cas_no": "1401-44-1;1407-07-4;8065-94-9;11006-28-3;11006-49-8;11100-46-2;11113-94-3;11132-90-4;12620-11-0;63496-49-1;63496-50-4",
    "SMILES": "",
    "meta_data": {
        "InChI": "",
        "InChIKey": null,
        "Canonical SMILES": "",
        "Molecular Formula": "Unspecified",
        "Molecular Mass": "",
        "Melting Point": "~155 °C (approx)"
    }
}