{
    "uri": "substance/pt/11006761",
    "rn": "11006-76-1",
    "name": "Streptogramin",
    "images": [],
    "inchi": "",
    "inchiKey": "",
    "smile": "",
    "canonicalSmile": "",
    "molecularFormula": "Unspecified",
    "molecularMass": "",
    "experimentalProperties": [
        {
            "name": "Melting Point",
            "property": "~155 °C (approx)",
            "sourceNumber": 1
        }
    ],
    "propertyCitations": [
        {
            "docUri": "document/pt/document/15898506",
            "sourceNumber": 1,
            "source": "GB776035, 1957, CAplus"
        }
    ],
    "synonyms": [
        "Virginiamycin",
        "Mikamycin",
        "Streptogramin",
        "Virgimycin",
        "RP 7293",
        "Pyostacine",
        "Stapyocine",
        "Eskalin V",
        "Eskalin 500",
        "Stafac 500",
        "Pyostacin",
        "Stafac 20",
        "Stafac",
        "Lactrol",
        "V-max",
        "Livelong",
        "Lactrol XP"
    ],
    "replacedRns": [
        "1401-44-1",
        "1407-07-4",
        "8065-94-9",
        "11006-28-3",
        "11006-49-8",
        "11100-46-2",
        "11113-94-3",
        "11132-90-4",
        "12620-11-0",
        "63496-49-1",
        "63496-50-4"
    ],
    "hasMolfile": false,
    "source": "https://commonchemistry.cas.org/detail?cas_rn=11006-76-1"
}