{
    "cas_no": "1912-42-1",
    "key_name": "1<em>H</em>-Pyrrolo[2,3-<em>b</em>]pyridine-3-acetic acid",
    "cn_name": null,
    "alternate_name": "1<em>H</em>-Pyrrolo[2,3-<em>b</em>]pyridine-3-acetic acid;7-Azaindole-3-acetic acid;(1<em>H</em>-Pyrrolo[2,3-<em>b</em>]pyridin-3-yl)acetic acid;2-[1<em>H</em>-Pyrrolo[2,3-<em>b</em>]pyridin-3-yl]acetic acid;2-(1<em>H</em>-Pyrrolo[2,3-<em>b</em>]pyridin-3-yl)aceticacid",
    "duplicated_cas_no": "",
    "SMILES": "C(C(O)=O)C=1C=2C(NC1)=NC=CC2",
    "meta_data": {
        "InChI": "InChI=1S/C9H8N2O2/c12-8(13)4-6-5-11-9-7(6)2-1-3-10-9/h1-3,5H,4H2,(H,10,11)(H,12,13)",
        "InChIKey": null,
        "Canonical SMILES": "O=C(O)CC1=CNC=2N=CC=CC21",
        "Molecular Formula": "C<sub>9</sub>H<sub>8</sub>N<sub>2</sub>O<sub>2</sub>",
        "Molecular Mass": "176.17",
        "Melting Point": "214.5-215.0 °C (decomp)"
    }
}