{
    "cas_no": "3430-13-5",
    "key_name": "5-Bromo-2-methylpyridine",
    "cn_name": "5-溴-2-甲基吡啶;",
    "alternate_name": "Pyridine, 5-bromo-2-methyl-;2-Picoline, 5-bromo-;5-Bromo-2-methylpyridine;5-Bromo-2-picoline;3-Bromo-6-methylpyridine;2-Methyl-5-bromopyridine",
    "duplicated_cas_no": "",
    "SMILES": "BrC=1C=CC(C)=NC1",
    "meta_data": {
        "InChI": "InChI=1S/C6H6BrN/c1-5-2-3-6(7)4-8-5/h2-4H,1H3",
        "InChIKey": null,
        "Canonical SMILES": "BrC1=CN=C(C=C1)C",
        "Molecular Formula": "C<sub>6</sub>H<sub>6</sub>BrN",
        "Molecular Mass": "172.02",
        "Melting Point": "32 °C"
    }
}