{
    "cas_no": "1302-09-6",
    "key_name": "Silver selenide (Ag<sub>2</sub>Se)",
    "cn_name": null,
    "alternate_name": "Silver selenide (Ag<sub>2</sub>Se);Disilver selenide;Silver selenide;Silver(1+) selenide;Disilver monoselenide;Silver(I) selenide",
    "duplicated_cas_no": "2562305-77-3;2755121-72-1",
    "SMILES": "[Se]([Ag])[Ag]",
    "meta_data": {
        "InChI": "InChI=1S/2Ag.Se",
        "InChIKey": null,
        "Canonical SMILES": "[Ag][Se][Ag]",
        "Molecular Formula": "Ag<sub>2</sub>Se",
        "Molecular Mass": "",
        "Melting Point": "880 °C",
        "Density": "7.5 g/cm³"
    }
}