{
    "cas_no": "25747-41-5",
    "key_name": "4-Hydroxy-2-pyrrolidinone",
    "cn_name": null,
    "alternate_name": "2-Pyrrolidinone, 4-hydroxy-;4-Hydroxy-2-pyrrolidinone;γ-Amino-β-hydroxybutyric lactam;β-Hydroxy-γ-aminobutyrolactam;4-Hydroxy-2-pyrrolidone;<span class=\"text-smallcaps\">DL</span>-2-Oxo-4-hydroxypyrrolidine;(±)-4-Hydroxypyrrolidone",
    "duplicated_cas_no": "96820-00-7;62624-29-7;270921-43-2",
    "SMILES": "OC1CC(=O)NC1",
    "meta_data": {
        "InChI": "InChI=1S/C4H7NO2/c6-3-1-4(7)5-2-3/h3,6H,1-2H2,(H,5,7)",
        "InChIKey": null,
        "Canonical SMILES": "O=C1NCC(O)C1",
        "Molecular Formula": "C<sub>4</sub>H<sub>7</sub>NO<sub>2</sub>",
        "Molecular Mass": "101.10",
        "Boiling Point": "130-150 °C @ Press: 0.05-0.1 Torr",
        "Melting Point": "116-118 °C"
    }
}