{
    "cas_no": "6214-45-5",
    "key_name": "4-Butoxybenzenemethanol",
    "cn_name": "4-丁氧基苯基甲醇;4-丁氧基苄醇;",
    "alternate_name": "Benzenemethanol, 4-butoxy-;Benzyl alcohol, <em>p</em>-butoxy-;4-Butoxybenzenemethanol;4-Butoxybenzyl alcohol;<em>p</em>-Butoxybenzyl alcohol;NSC 69089;(4-Butoxyphenyl)methanol",
    "duplicated_cas_no": "",
    "SMILES": "O(CCCC)C1=CC=C(CO)C=C1",
    "meta_data": {
        "InChI": "InChI=1S/C11H16O2/c1-2-3-8-13-11-6-4-10(9-12)5-7-11/h4-7,12H,2-3,8-9H2,1H3",
        "InChIKey": null,
        "Canonical SMILES": "OCC1=CC=C(OCCCC)C=C1",
        "Molecular Formula": "C<sub>11</sub>H<sub>16</sub>O<sub>2</sub>",
        "Molecular Mass": "180.24",
        "Boiling Point": "135-137 °C @ Press: 3 Torr",
        "Melting Point": "30-31 °C"
    }
}