{
    "cas_no": "35700-21-1",
    "key_name": "Methyl carboprost",
    "cn_name": "15(S)-15-甲基前列腺素;",
    "alternate_name": "Prosta-5,13-dien-1-oic acid, 9,11,15-trihydroxy-15-methyl-, methyl ester, (5<em>Z</em>,9α,11α,13<em>E</em>,15<em>S</em>)-;(15<em>S</em>)-15-Methyl-PGF<sub>2α</sub> methyl ester;(15<em>S</em>)-15-Methylprostaglandin F<sub>2α</sub> methyl ester;U 36384;Methyl carboprost;<em>cis</em>-Methyl carboprost;Carboprost methyl ester",
    "duplicated_cas_no": "98114-69-3;37467-76-8",
    "SMILES": "C(=C/[C@@](CCCCC)(C)O)\\[C@@H]1[C@@H](C/C=C\\CCCC(OC)=O)[C@@H](O)C[C@H]1O",
    "meta_data": {
        "InChI": "InChI=1S/C22H38O5/c1-4-5-10-14-22(2,26)15-13-18-17(19(23)16-20(18)24)11-8-6-7-9-12-21(25)27-3/h6,8,13,15,17-20,23-24,26H,4-5,7,9-12,14,16H2,1-3H3/b8-6-,15-13+/t17-,18-,19+,20-,22+/m1/s1",
        "InChIKey": null,
        "Canonical SMILES": "O=C(OC)CCCC=CCC1C(O)CC(O)C1C=CC(O)(C)CCCCC",
        "Molecular Formula": "C<sub>22</sub>H<sub>38</sub>O<sub>5</sub>",
        "Molecular Mass": "382.53",
        "Melting Point": "55-56 °C"
    }
}