{
    "cas_no": "1210-33-9",
    "key_name": "5-Chlorodibenzosuberane",
    "cn_name": "5-氯-10,11-二氢-5H-二苯并[a,d]环庚烷;二苯并环庚烯酮基氯;",
    "alternate_name": "5<em>H</em>-Dibenzo[<em>a</em>,<em>d</em>]cycloheptene, 5-chloro-10,11-dihydro-;5-Chloro-10,11-dihydro-5<em>H</em>-dibenzo[<em>a</em>,<em>d</em>]cycloheptene;10,11-Dihydro-5<em>H</em>-dibenzo[<em>a</em>,<em>d</em>]cyclohepten-5-yl chloride;5-Chlorodibenzo[<em>a</em>,<em>d</em>]cyclohepta[1,4]diene;5-Chlorodibenzo[<em>a</em>,<em>d</em>]cycloheptane;5-Chlorodibenzosuberane;NSC 86154;Dibenzosuberanyl chloride",
    "duplicated_cas_no": "",
    "SMILES": "ClC1C=2C(CCC=3C1=CC=CC3)=CC=CC2",
    "meta_data": {
        "InChI": "InChI=1S/C15H13Cl/c16-15-13-7-3-1-5-11(13)9-10-12-6-2-4-8-14(12)15/h1-8,15H,9-10H2",
        "InChIKey": null,
        "Canonical SMILES": "ClC1C=2C=CC=CC2CCC=3C=CC=CC31",
        "Molecular Formula": "C<sub>15</sub>H<sub>13</sub>Cl",
        "Molecular Mass": "228.72",
        "Melting Point": "105-107 °C"
    }
}