{
    "cas_no": "1197-55-3",
    "key_name": "4-Aminophenylacetic acid",
    "cn_name": "对氨基苯乙酸;",
    "alternate_name": "Benzeneacetic acid, 4-amino-;Acetic acid, (<em>p</em>-aminophenyl)-;4-Aminobenzeneacetic acid;<em>p</em>-Aminophenylacetic acid;4-Aminophenylacetic acid;4-(Carboxymethyl)aniline;2-(4-Aminophenyl)acetic acid;NSC 7929",
    "duplicated_cas_no": "",
    "SMILES": "C(C(O)=O)C1=CC=C(N)C=C1",
    "meta_data": {
        "InChI": "InChI=1S/C8H9NO2/c9-7-3-1-6(2-4-7)5-8(10)11/h1-4H,5,9H2,(H,10,11)",
        "InChIKey": null,
        "Canonical SMILES": "O=C(O)CC1=CC=C(N)C=C1",
        "Molecular Formula": "C<sub>8</sub>H<sub>9</sub>NO<sub>2</sub>",
        "Molecular Mass": "151.16",
        "Melting Point": "200 °C (decomp)"
    }
}