{
    "cas_no": "80-23-9",
    "key_name": "3-Amino-4-hydroxy-<em>N</em>-methylbenzenesulfonamide",
    "cn_name": "2-氨基苯酚-4-磺酰甲胺;",
    "alternate_name": "Benzenesulfonamide, 3-amino-4-hydroxy-<em>N</em>-methyl-;Metanilamide, 4-hydroxy-<em>N</em><sup>1</sup>-methyl-;Metanilamide, 4-hydroxy-<em>N</em>-methyl-;1-Phenol-4-sulfonamide, 2-amino-<em>N</em>-methyl-;3-Amino-4-hydroxy-<em>N</em>-methylbenzenesulfonamide;2-Amino-<em>N</em>-methyl-1-phenol-4-sulfonamide;2-Aminophenol-4-sulfomethylamide;2-Aminophenol-4-sulfonic acid methylamide;4-Hydroxy-<em>N</em><sup>1</sup>-methylmetanilamide;2-Amino-4-(methylsulfamoyl)phenol;3-Amino-4-hydroxy-<em>N</em>-methylbenzene-1-sulfonamide",
    "duplicated_cas_no": "",
    "SMILES": "S(NC)(=O)(=O)C1=CC(N)=C(O)C=C1",
    "meta_data": {
        "InChI": "InChI=1S/C7H10N2O3S/c1-9-13(11,12)5-2-3-7(10)6(8)4-5/h2-4,9-10H,8H2,1H3",
        "InChIKey": null,
        "Canonical SMILES": "O=S(=O)(NC)C1=CC=C(O)C(N)=C1",
        "Molecular Formula": "C<sub>7</sub>H<sub>10</sub>N<sub>2</sub>O<sub>3</sub>S",
        "Molecular Mass": "202.23",
        "Melting Point": "129-130 °C"
    }
}