{
    "cas_no": "124-68-5",
    "key_name": "2-Amino-2-methyl-1-propanol",
    "cn_name": "2-氨基-2-甲基-1-丙醇;氨甲基丙醇;",
    "alternate_name": "1-Propanol, 2-amino-2-methyl-;2-Amino-2-methyl-1-propanol;β-Aminoisobutanol;2-Amino-2-methylpropanol;Isobutanol-2-amine;2-Methyl-2-aminopropanol;2-Aminoisobutanol;1,1-Dimethyl-2-hydroxyethylamine;2-Methyl-2-amino-1-propanol;2-Amino-2,2-dimethylethanol;Hydroxy-<em>tert</em>-butylamine;2-Hydroxymethyl-2-propylamine;2-Amino-1-hydroxy-2-methylpropane;AMP Regular;AMP 95;2,2-Dimethylethanolamine;2-Hydroxy-1,1-dimethylethylamine;AMP;AMP (thinner);KV 5088;Corrguard 75;AMP 75;NSC 441;AMP 90 (amine);AMP 90;Pamabron;AMP 100;1-Hydroxy-2-methylpropan-2-amine;AMP-ULTRA PC 2000;AMP-Ultra PC 1000;AMP buffer;Dolapix A 88;CE 64;AMP-Ultra PC;produkt kv 5088;AMP 95 (dispersant)",
    "duplicated_cas_no": "189832-99-3;471883-87-1;2376634-60-3",
    "SMILES": "C(CO)(C)(C)N",
    "meta_data": {
        "InChI": "InChI=1S/C4H11NO/c1-4(2,5)3-6/h6H,3,5H2,1-2H3",
        "InChIKey": null,
        "Canonical SMILES": "OCC(N)(C)C",
        "Molecular Formula": "C<sub>4</sub>H<sub>11</sub>NO",
        "Molecular Mass": "89.14",
        "Boiling Point": "165 °C @ Press: 760 Torr",
        "Melting Point": "31 °C",
        "Density": "0.934 g/cm³ @ Temp: 20 °C"
    }
}