{
    "cas_no": "10137-69-6",
    "key_name": "4-(Trichlorosilyl)cyclohexene",
    "cn_name": "环己烯基三氯硅烷;",
    "alternate_name": "Cyclohexene, 4-(trichlorosilyl)-;Silane, trichloro-3-cyclohexen-1-yl-;4-(Trichlorosilyl)cyclohexene;3-Cyclohexenyltrichlorosilane;1-(Trichlorosilyl)-3-cyclohexene;Trichloro-3-cyclohexen-1-ylsilane",
    "duplicated_cas_no": "",
    "SMILES": "[Si](Cl)(Cl)(Cl)C1CCC=CC1",
    "meta_data": {
        "InChI": "InChI=1S/C6H9Cl3Si/c7-10(8,9)6-4-2-1-3-5-6/h1-2,6H,3-5H2",
        "InChIKey": null,
        "Canonical SMILES": "Cl[Si](Cl)(Cl)C1CC=CCC1",
        "Molecular Formula": "C<sub>6</sub>H<sub>9</sub>Cl<sub>3</sub>Si",
        "Molecular Mass": "215.58",
        "Boiling Point": "87-88 °C @ Press: 16 Torr",
        "Density": "1.250 g/cm³"
    }
}