{
    "cas_no": "369-68-6",
    "key_name": "3-[(Trifluoromethyl)thio]benzenamine",
    "cn_name": "3-(三氟甲硫基)苯胺;",
    "alternate_name": "Benzenamine, 3-[(trifluoromethyl)thio]-;Aniline, <em>m</em>-[(trifluoromethyl)thio]-;3-[(Trifluoromethyl)thio]benzenamine;<em>m</em>-(Trifluoromethylthio)aniline;3-Trifluoromethylthioaniline;3-Aminophenyl trifluoromethyl sulfide;(3-((Trifluoromethyl)thio)phenyl)amine;3-(Trifluoromethylthio)benzenamine",
    "duplicated_cas_no": "",
    "SMILES": "S(C(F)(F)F)C1=CC(N)=CC=C1",
    "meta_data": {
        "InChI": "InChI=1S/C7H6F3NS/c8-7(9,10)12-6-3-1-2-5(11)4-6/h1-4H,11H2",
        "InChIKey": null,
        "Canonical SMILES": "FC(F)(F)SC1=CC=CC(N)=C1",
        "Molecular Formula": "C<sub>7</sub>H<sub>6</sub>F<sub>3</sub>NS",
        "Molecular Mass": "193.19",
        "Boiling Point": "108-110 °C @ Press: 5 Torr"
    }
}