{
    "cas_no": "630-10-4",
    "key_name": "Selenourea",
    "cn_name": null,
    "alternate_name": "Selenourea;Urea, seleno-;Carbamimidoselenoic acid;2-Selenourea;Selenouronium;Isoselenourea;NSC 227840",
    "duplicated_cas_no": "",
    "SMILES": "C(N)(N)=[Se]",
    "meta_data": {
        "InChI": "InChI=1S/CH4N2Se/c2-1(3)4/h(H4,2,3,4)",
        "InChIKey": null,
        "Canonical SMILES": "[Se]=C(N)N",
        "Molecular Formula": "CH<sub>4</sub>N<sub>2</sub>Se",
        "Molecular Mass": "123.02",
        "Melting Point": "200 °C (decomp)"
    }
}