{
    "cas_no": "59290-82-3",
    "key_name": "3-Nitroisonicotinic acid",
    "cn_name": "3-硝基-4-吡啶羧酸;",
    "alternate_name": "4-Pyridinecarboxylic acid, 3-nitro-;Isonicotinic acid, 3-nitro-;3-Nitro-4-pyridinecarboxylic acid;3-Nitroisonicotinic acid;4-Carboxy-3-nitropyridine;3-Nitropyridine-4-carboxylic acid",
    "duplicated_cas_no": "",
    "SMILES": "C(O)(=O)C=1C(N(=O)=O)=CN=CC1",
    "meta_data": {
        "InChI": "InChI=1S/C6H4N2O4/c9-6(10)4-1-2-7-3-5(4)8(11)12/h1-3H,(H,9,10)",
        "InChIKey": null,
        "Canonical SMILES": "O=C(O)C=1C=CN=CC1N(=O)=O",
        "Molecular Formula": "C<sub>6</sub>H<sub>4</sub>N<sub>2</sub>O<sub>4</sub>",
        "Molecular Mass": "168.11",
        "Melting Point": "217 °C"
    }
}