{
    "cas_no": "3600-86-0",
    "key_name": "2,5-Dimethoxyphenethylamine",
    "cn_name": "2,5-二甲氧基苯乙胺;",
    "alternate_name": "Benzeneethanamine, 2,5-dimethoxy-;Phenethylamine, 2,5-dimethoxy-;2,5-Dimethoxybenzeneethanamine;2,5-Dimethoxyphenethylamine;2-(2,5-Dimethoxyphenyl)ethylamine;2-Aminoethyl-2,5-dimethoxybenzene;NSC 168525;2-(2-Aminoethyl)-1,4-dimethoxybenzene;2-(2,5-Dimethoxyphenyl)ethanamine;2-(2,5-Dimethoxyphenyl)ethan-1-amine",
    "duplicated_cas_no": "",
    "SMILES": "C(CN)C1=C(OC)C=CC(OC)=C1",
    "meta_data": {
        "InChI": "InChI=1S/C10H15NO2/c1-12-9-3-4-10(13-2)8(7-9)5-6-11/h3-4,7H,5-6,11H2,1-2H3",
        "InChIKey": null,
        "Canonical SMILES": "O(C1=CC=C(OC)C(=C1)CCN)C",
        "Molecular Formula": "C<sub>10</sub>H<sub>15</sub>NO<sub>2</sub>",
        "Molecular Mass": "181.23",
        "Boiling Point": "148 °C @ Press: 8 Torr"
    }
}