{
    "cas_no": "15266-35-0",
    "key_name": "Dihydroevocarpine",
    "cn_name": null,
    "alternate_name": "4(1<em>H</em>)-Quinolinone, 1-methyl-2-tridecyl-;4(1<em>H</em>)-Quinolone, 1-methyl-2-tridecyl-;1-Methyl-2-tridecyl-4(1<em>H</em>)-quinolinone;Dihydroevocarpine;1-Methyl-2-tridecyl-4(1<em>H</em>)-quinolone;1-Methyl-2-tridecylquinolin-4-one",
    "duplicated_cas_no": "11036-31-0",
    "SMILES": "CN1C=2C(C(=O)C=C1CCCCCCCCCCCCC)=CC=CC2",
    "meta_data": {
        "InChI": "InChI=1S/C23H35NO/c1-3-4-5-6-7-8-9-10-11-12-13-16-20-19-23(25)21-17-14-15-18-22(21)24(20)2/h14-15,17-19H,3-13,16H2,1-2H3",
        "InChIKey": null,
        "Canonical SMILES": "O=C1C=C(N(C=2C=CC=CC12)C)CCCCCCCCCCCCC",
        "Molecular Formula": "C<sub>23</sub>H<sub>35</sub>NO",
        "Molecular Mass": "341.53",
        "Melting Point": "57 °C"
    }
}