{
    "cas_no": "14866-43-4",
    "key_name": "Phosphonium, hexadecyltriphenyl-, bromide (1:1)",
    "cn_name": "十六烷基三苯基溴化膦;",
    "alternate_name": "Phosphonium, hexadecyltriphenyl-, bromide (1:1);Phosphonium, hexadecyltriphenyl-, bromide;Hexadecyltriphenylphosphonium bromide;Cetyltriphenylphosphonium bromide",
    "duplicated_cas_no": "",
    "SMILES": "[P+](CCCCCCCCCCCCCCCC)(C1=CC=CC=C1)(C2=CC=CC=C2)C3=CC=CC=C3.[Br-]",
    "meta_data": {
        "InChI": "InChI=1S/C34H48P.BrH/c1-2-3-4-5-6-7-8-9-10-11-12-13-14-24-31-35(32-25-18-15-19-26-32,33-27-20-16-21-28-33)34-29-22-17-23-30-34;/h15-23,25-30H,2-14,24,31H2,1H3;1H/q+1;/p-1",
        "InChIKey": null,
        "Canonical SMILES": "[Br-].C=1C=CC(=CC1)[P+](C=2C=CC=CC2)(C=3C=CC=CC3)CCCCCCCCCCCCCCCC",
        "Molecular Formula": "C<sub>34</sub>H<sub>48</sub>P.Br",
        "Molecular Mass": "",
        "Melting Point": "101 °C"
    }
}