{
    "cas_no": "39183-20-5",
    "key_name": "2-Chloro-6-methyl-3-nitrophenol",
    "cn_name": "6-氯-5-硝基邻甲酚;2-甲基-5-硝基-6-氯苯酚;",
    "alternate_name": "Phenol, 2-chloro-6-methyl-3-nitro-;2-Chloro-6-methyl-3-nitrophenol;2-Methyl-5-nitro-6-chlorophenol",
    "duplicated_cas_no": "",
    "SMILES": "N(=O)(=O)C1=C(Cl)C(O)=C(C)C=C1",
    "meta_data": {
        "InChI": "InChI=1S/C7H6ClNO3/c1-4-2-3-5(9(11)12)6(8)7(4)10/h2-3,10H,1H3",
        "InChIKey": null,
        "Canonical SMILES": "O=N(=O)C1=CC=C(C(O)=C1Cl)C",
        "Molecular Formula": "C<sub>7</sub>H<sub>6</sub>ClNO<sub>3</sub>",
        "Molecular Mass": "187.58",
        "Melting Point": "74 °C"
    }
}