{
    "cas_no": "6263-65-6",
    "key_name": "1-Phenylethanethiol",
    "cn_name": "1-苯乙硫醇;",
    "alternate_name": "Benzenemethanethiol, α-methyl-;α-Toluenethiol, α-methyl-;Ethanethiol, 1-phenyl-;α-Methylbenzenemethanethiol;1-Phenylethanethiol;1-Phenylethylthiol;α-Methylbenzyl mercaptan;α-Methyl-α-toluenethiol;NSC 66561;α-Methylbenzyl thiol",
    "duplicated_cas_no": "75081-57-1",
    "SMILES": "C(C)(S)C1=CC=CC=C1",
    "meta_data": {
        "InChI": "InChI=1S/C8H10S/c1-7(9)8-5-3-2-4-6-8/h2-7,9H,1H3",
        "InChIKey": null,
        "Canonical SMILES": "SC(C=1C=CC=CC1)C",
        "Molecular Formula": "C<sub>8</sub>H<sub>10</sub>S",
        "Molecular Mass": "138.23",
        "Boiling Point": "83-84 °C @ Press: 14 Torr",
        "Melting Point": "58-59 °C",
        "Density": "1.039 g/cm³ @ Temp: 18 °C"
    }
}