{
    "cas_no": "18420-09-2",
    "key_name": "1,3-Diethoxy-1,1,3,3-tetramethyldisiloxane",
    "cn_name": "1,3-二乙氧基-1,1,3,3-四甲基二硅氧烷;",
    "alternate_name": "Disiloxane, 1,3-diethoxy-1,1,3,3-tetramethyl-;1,3-Diethoxy-1,1,3,3-tetramethyldisiloxane;α,ω-Diethoxytetramethyldisiloxane;1,3-Diethoxytetramethyldisiloxane;1,1,3,3-Tetramethyl-1,3-diethoxydisiloxane",
    "duplicated_cas_no": "",
    "SMILES": "[Si](O[Si](OCC)(C)C)(OCC)(C)C",
    "meta_data": {
        "InChI": "InChI=1S/C8H22O3Si2/c1-7-9-12(3,4)11-13(5,6)10-8-2/h7-8H2,1-6H3",
        "InChIKey": null,
        "Canonical SMILES": "O(CC)[Si](O[Si](OCC)(C)C)(C)C",
        "Molecular Formula": "C<sub>8</sub>H<sub>22</sub>O<sub>3</sub>Si<sub>2</sub>",
        "Molecular Mass": "222.43",
        "Boiling Point": "161 °C",
        "Melting Point": "-134 °C",
        "Density": "0.879 g/cm³"
    }
}