{
    "cas_no": "606-17-7",
    "key_name": "Adipiodon",
    "cn_name": "胆影酸;",
    "alternate_name": "Benzoic acid, 3,3′-[(1,6-dioxo-1,6-hexanediyl)diimino]bis[2,4,6-triiodo-;Benzoic acid, 3,3′-(adipoyldiimino)bis[2,4,6-triiodo-;3,3′-[(1,6-Dioxo-1,6-hexanediyl)diimino]bis[2,4,6-triiodobenzoic acid];Adipic acid bis(3-carboxy-2,4,6-triiodoanilide);Adipic acid di(3-carboxy-2,4,6-triiodoanilide);Adipiodon;Adipiodone;3,3′-(Adipoyldiimino)-bis(2,4,6-triiodobenzoic acid);<em>N</em>,<em>N</em>′-Adipylbis(3-amino-2,4,6-triiodobenzoic acid);Bilignost;Biligrafin;Iodipamide;Cholografin;Transbilix;Iodipamic acid;3,3′-(adipoylbis(azanediyl))bis(2,4,6-triiodobenzoic acid);MeSH ID: D007458",
    "duplicated_cas_no": "",
    "SMILES": "N(C(CCCCC(NC1=C(I)C(C(O)=O)=C(I)C=C1I)=O)=O)C2=C(I)C(C(O)=O)=C(I)C=C2I",
    "meta_data": {
        "InChI": "InChI=1S/C20H14I6N2O6/c21-7-5-9(23)17(15(25)13(7)19(31)32)27-11(29)3-1-2-4-12(30)28-18-10(24)6-8(22)14(16(18)26)20(33)34/h5-6H,1-4H2,(H,27,29)(H,28,30)(H,31,32)(H,33,34)",
        "InChIKey": null,
        "Canonical SMILES": "O=C(O)C=1C(I)=CC(I)=C(NC(=O)CCCCC(=O)NC2=C(I)C=C(I)C(C(=O)O)=C2I)C1I",
        "Molecular Formula": "C<sub>20</sub>H<sub>14</sub>I<sub>6</sub>N<sub>2</sub>O<sub>6</sub>",
        "Molecular Mass": "1139.76",
        "Melting Point": "307 °C (decomp)"
    }
}