{
    "cas_no": "54060-30-9",
    "key_name": "3-Ethynylaniline",
    "cn_name": "3-氨基苯乙炔;间氨基苯乙炔;3-乙炔苯胺;",
    "alternate_name": "Benzenamine, 3-ethynyl-;3-Ethynylbenzenamine;(3-Aminophenyl)acetylene;<em>m</em>-Ethynylaniline;3-Ethynylaniline;1-Amino-3-ethynylbenzene;(<em>m</em>-Aminophenyl)acetylene;(3-Ethynylphenyl)amine;3-Acetylenylaniline;3-Amino-1-ethynylbenzene",
    "duplicated_cas_no": "",
    "SMILES": "C(#C)C1=CC(N)=CC=C1",
    "meta_data": {
        "InChI": "InChI=1S/C8H7N/c1-2-7-4-3-5-8(9)6-7/h1,3-6H,9H2",
        "InChIKey": null,
        "Canonical SMILES": "C#CC1=CC=CC(N)=C1",
        "Molecular Formula": "C<sub>8</sub>H<sub>7</sub>N",
        "Molecular Mass": "117.15",
        "Boiling Point": "78-80 °C @ Press: 0.2 Torr"
    }
}