{
    "cas_no": "6006-82-2",
    "key_name": "1,3-Benzodioxole-5-ethanol",
    "cn_name": null,
    "alternate_name": "1,3-Benzodioxole-5-ethanol;Phenethyl alcohol, 3,4-(methylenedioxy)-;Homopiperonyl alcohol;3,4-(Methylenedioxy)phenethyl alcohol;2-(1,3-Benzodioxol-5-yl)ethanol;2-(3,4-Methylenedioxyphenyl)ethanol;2-(3,4-Methylenedioxyphenyl)ethyl alcohol;2-(3,4-Methylenedioxyphenyl)-1-ethanol;2-(1,3-Dioxaindan-5-yl)ethan-1-ol;2-(2<em>H</em>-1,3-Benzodioxol-5-yl)ethan-1-ol;2-(1,2-Methylenedioxybenzen-4-yl)ethanol",
    "duplicated_cas_no": "",
    "SMILES": "C(CO)C=1C=C2C(=CC1)OCO2",
    "meta_data": {
        "InChI": "InChI=1S/C9H10O3/c10-4-3-7-1-2-8-9(5-7)12-6-11-8/h1-2,5,10H,3-4,6H2",
        "InChIKey": null,
        "Canonical SMILES": "OCCC1=CC=C2OCOC2=C1",
        "Molecular Formula": "C<sub>9</sub>H<sub>10</sub>O<sub>3</sub>",
        "Molecular Mass": "166.17",
        "Boiling Point": "120-122 °C @ Press: 2.5 Torr"
    }
}