{
    "cas_no": "364-77-2",
    "key_name": "4-Fluoro-1-iodo-2-nitrobenzene",
    "cn_name": "4-氟-1-碘-2-硝基苯;",
    "alternate_name": "Benzene, 4-fluoro-1-iodo-2-nitro-;4-Fluoro-1-iodo-2-nitrobenzene;5-Fluoro-2-iodonitrobenzene;2-Iodo-5-fluoronitrobenzene",
    "duplicated_cas_no": "",
    "SMILES": "N(=O)(=O)C1=C(I)C=CC(F)=C1",
    "meta_data": {
        "InChI": "InChI=1S/C6H3FINO2/c7-4-1-2-5(8)6(3-4)9(10)11/h1-3H",
        "InChIKey": null,
        "Canonical SMILES": "O=N(=O)C1=CC(F)=CC=C1I",
        "Molecular Formula": "C<sub>6</sub>H<sub>3</sub>FINO<sub>2</sub>",
        "Molecular Mass": "267.00",
        "Boiling Point": "126-128 °C @ Press: 9.8 Torr"
    }
}