{
    "cas_no": "366453-22-7",
    "key_name": "2,3-Dihydro-4-methoxy-1<em>H</em>-isoindol-1-one",
    "cn_name": null,
    "alternate_name": "1<em>H</em>-Isoindol-1-one, 2,3-dihydro-4-methoxy-;2,3-Dihydro-4-methoxy-1<em>H</em>-isoindol-1-one;4-Methoxy-2,3-dihydroisoindol-1-one",
    "duplicated_cas_no": "",
    "SMILES": "O(C)C1=C2C(C(=O)NC2)=CC=C1",
    "meta_data": {
        "InChI": "InChI=1S/C9H9NO2/c1-12-8-4-2-3-6-7(8)5-10-9(6)11/h2-4H,5H2,1H3,(H,10,11)",
        "InChIKey": null,
        "Canonical SMILES": "O=C1NCC=2C(OC)=CC=CC12",
        "Molecular Formula": "C<sub>9</sub>H<sub>9</sub>NO<sub>2</sub>",
        "Molecular Mass": "163.17",
        "Melting Point": "&gt;200 °C"
    }
}