{
    "cas_no": "150399-23-8",
    "key_name": "<span class=\"text-smallcaps\">L</span>-Glutamic acid, <em>N</em>-[4-[2-(2-amino-4,7-dihydro-4-oxo-3<em>H</em>-pyrrolo[2,3-<em>d</em>]pyrimidin-5-yl)ethyl]benzoyl]-, sodium salt (1:2)",
    "cn_name": "培美曲塞二钠;N-[4-[2-(2-氨基-4,7-二氢-4-氧代-1H-吡咯[2,3-d]嘧啶-5-基)乙基]苯甲酰]-L-谷氨酸二钠;",
    "alternate_name": "<span class=\"text-smallcaps\">L</span>-Glutamic acid, <em>N</em>-[4-[2-(2-amino-4,7-dihydro-4-oxo-3<em>H</em>-pyrrolo[2,3-<em>d</em>]pyrimidin-5-yl)ethyl]benzoyl]-, sodium salt (1:2);<span class=\"text-smallcaps\">L</span>-Glutamic acid, <em>N</em>-[4-[2-(2-amino-4,7-dihydro-4-oxo-1<em>H</em>-pyrrolo[2,3-<em>d</em>]pyrimidin-5-yl)ethyl]benzoyl]-, disodium salt;1<em>H</em>-Pyrrolo[2,3-<em>d</em>]pyrimidine, <span class=\"text-smallcaps\">L</span>-glutamic acid deriv.;Tifolar;Pemetrexed disodium;Rolazar;LY 231514;Alimta;LY 231514 disodium;Pemetrexed sodium",
    "duplicated_cas_no": "",
    "SMILES": "C(CC1=CC=C(C(N[C@@H](CCC(O)=O)C(O)=O)=O)C=C1)C=2C3=C(NC2)NC(N)=NC3=O.[Na]",
    "meta_data": {
        "InChI": "InChI=1S/C20H21N5O6.2Na/c21-20-24-16-15(18(29)25-20)12(9-22-16)6-3-10-1-4-11(5-2-10)17(28)23-13(19(30)31)7-8-14(26)27;;/h1-2,4-5,9,13H,3,6-8H2,(H,23,28)(H,26,27)(H,30,31)(H4,21,22,24,25,29);;/t13-;;/m0../s1",
        "InChIKey": null,
        "Canonical SMILES": "[Na].O=C1N=C(N)NC=2NC=C(C12)CCC3=CC=C(C=C3)C(=O)NC(C(=O)O)CCC(=O)O",
        "Molecular Formula": "C<sub>20</sub>H<sub>21</sub>N<sub>5</sub>O<sub>6</sub>.2Na",
        "Molecular Mass": "",
        "Melting Point": "&gt;260 °C"
    }
}