{
    "cas_no": "6305-38-0",
    "key_name": "Homoserine lactone hydrobromide",
    "cn_name": "α-氨基-γ-丁内酯氢溴酸盐;DL-丝氨酸内酯氢溴酸;",
    "alternate_name": "2(3<em>H</em>)-Furanone, 3-aminodihydro-, hydrobromide (1:1);2(3<em>H</em>)-Furanone, 3-aminodihydro-, hydrobromide;2(3<em>H</em>)-Furanone, 3-aminodihydro-, hydrobromide, (±)-;α-Amino-γ-butyrolactone hydrobromide;2-Aminobutyrolactone hydrobromide;2-Amino-4-butyrolactone hydrobromide;<span class=\"text-smallcaps\">DL</span>-Homoserine lactone hydrobromide;(±)-3-Aminodihydro-2(3<em>H</em>)-furanone hydrobromide;3-Aminodihydro-2(3<em>H</em>)-furanone hydrobromide;Homoserine lactone hydrobromide;NSC 41120;3-Aminooxolan-2-one hydrobromide",
    "duplicated_cas_no": "67580-93-2",
    "SMILES": "NC1C(=O)OCC1.Br",
    "meta_data": {
        "InChI": "InChI=1S/C4H7NO2.BrH/c5-3-1-2-7-4(3)6;/h3H,1-2,5H2;1H",
        "InChIKey": null,
        "Canonical SMILES": "Br.O=C1OCCC1N",
        "Molecular Formula": "C<sub>4</sub>H<sub>7</sub>NO<sub>2</sub>.BrH",
        "Molecular Mass": "",
        "Melting Point": "221 °C (decomp)"
    }
}