{
    "cas_no": "1204-28-0",
    "key_name": "Trimellitic anhydride chloride",
    "cn_name": "1,2,4-偏苯三酸酐酰氯;氯化偏苯三酸酐;",
    "alternate_name": "5-Isobenzofurancarbonyl chloride, 1,3-dihydro-1,3-dioxo-;Phthalic anhydride, 4-(chloroformyl)-;1,3-Dihydro-1,3-dioxo-5-isobenzofurancarbonyl chloride;Trimellitic anhydride monoacid chloride;Trimellitic anhydride chloride;4-(Chloroformyl)phthalic anhydride;Trimellitic anhydride acid chloride;4-(Chlorocarbonyl)phthalic anhydride;Trimellitic acid anhydride 4-monoacid chloride;1,3-Benzofurandione-5-carbonyl chloride;Trimellitic acid anhydride chloride;Anhydrotrimellitic acid chloride;Trimellitic anhydride monochloride;1,3-Dioxo-1,3-dihydro-2-benzofuran-5-carbonyl chloride;NSC 89728;1,3-Dioxo-2-benzofuran-5-carbonyl chloride;1,3-Dioxo-1,3-dihydro-isobenzofuran-5-carbonyl chloride",
    "duplicated_cas_no": "",
    "SMILES": "O=C1C=2C(C(=O)O1)=CC=C(C(Cl)=O)C2",
    "meta_data": {
        "InChI": "InChI=1S/C9H3ClO4/c10-7(11)4-1-2-5-6(3-4)9(13)14-8(5)12/h1-3H",
        "InChIKey": null,
        "Canonical SMILES": "O=C(Cl)C1=CC=C2C(=O)OC(=O)C2=C1",
        "Molecular Formula": "C<sub>9</sub>H<sub>3</sub>ClO<sub>4</sub>",
        "Molecular Mass": "210.57",
        "Boiling Point": "162-164 °C @ Press: 1 Torr",
        "Melting Point": "68 °C"
    }
}