{
    "cas_no": "79055-62-2",
    "key_name": "2-Chloro-5-methyl-4-pyridinamine",
    "cn_name": null,
    "alternate_name": "4-Pyridinamine, 2-chloro-5-methyl-;2-Chloro-5-methyl-4-pyridinamine;4-Amino-2-chloro-5-methylpyridine;2-Chloro-4-amino-5-methylpyridine;2-Chloro-5-methyl-pyridin-4-ylamine",
    "duplicated_cas_no": "",
    "SMILES": "NC=1C(C)=CN=C(Cl)C1",
    "meta_data": {
        "InChI": "InChI=1S/C6H7ClN2/c1-4-3-9-6(7)2-5(4)8/h2-3H,1H3,(H2,8,9)",
        "InChIKey": null,
        "Canonical SMILES": "ClC1=NC=C(C(N)=C1)C",
        "Molecular Formula": "C<sub>6</sub>H<sub>7</sub>ClN<sub>2</sub>",
        "Molecular Mass": "142.59",
        "Melting Point": "115 °C"
    }
}