{
    "cas_no": "2267-25-6",
    "key_name": "2-Chloro-4-fluoro-1-methoxybenzene",
    "cn_name": "2-氯-4-氟苯甲醚;",
    "alternate_name": "Benzene, 2-chloro-4-fluoro-1-methoxy-;Anisole, 2-chloro-4-fluoro-;2-Chloro-4-fluoro-1-methoxybenzene;2-Chloro-4-fluoroanisole",
    "duplicated_cas_no": "",
    "SMILES": "O(C)C1=C(Cl)C=C(F)C=C1",
    "meta_data": {
        "InChI": "InChI=1S/C7H6ClFO/c1-10-7-3-2-5(9)4-6(7)8/h2-4H,1H3",
        "InChIKey": null,
        "Canonical SMILES": "FC1=CC=C(OC)C(Cl)=C1",
        "Molecular Formula": "C<sub>7</sub>H<sub>6</sub>ClFO",
        "Molecular Mass": "160.57",
        "Boiling Point": "67 °C @ Press: 5 Torr"
    }
}