{
    "cas_no": "70155-90-7",
    "key_name": "2-Propyn-1-aminium, <em>N</em>,<em>N</em>-diethyl-<em>N</em>-(3-sulfopropyl)-, inner salt",
    "cn_name": "N,N-二乙基丙炔胺丙烷磺酸内盐;",
    "alternate_name": "2-Propyn-1-aminium, <em>N</em>,<em>N</em>-diethyl-<em>N</em>-(3-sulfopropyl)-, inner salt",
    "duplicated_cas_no": "",
    "SMILES": "[N+](CCCS(=O)(=O)[O-])(CC#C)(CC)CC",
    "meta_data": {
        "InChI": "InChI=1S/C10H19NO3S/c1-4-8-11(5-2,6-3)9-7-10-15(12,13)14/h1H,5-10H2,2-3H3",
        "InChIKey": null,
        "Canonical SMILES": "O=S(=O)([O-])CCC[N+](CC#C)(CC)CC",
        "Molecular Formula": "C<sub>10</sub>H<sub>19</sub>NO<sub>3</sub>S",
        "Molecular Mass": "",
        "Melting Point": "230-235 °C (decomp)"
    }
}