{
    "cas_no": "76884-34-9",
    "key_name": "3-Isoquinolinemethanol",
    "cn_name": null,
    "alternate_name": "3-Isoquinolinemethanol;3-(Hydroxymethyl)isoquinoline;Isoquinolin-3-ylmethanol",
    "duplicated_cas_no": "",
    "SMILES": "C(O)C1=CC2=C(C=N1)C=CC=C2",
    "meta_data": {
        "InChI": "InChI=1S/C10H9NO/c12-7-10-5-8-3-1-2-4-9(8)6-11-10/h1-6,12H,7H2",
        "InChIKey": null,
        "Canonical SMILES": "OCC=1N=CC2=CC=CC=C2C1",
        "Molecular Formula": "C<sub>10</sub>H<sub>9</sub>NO",
        "Molecular Mass": "159.18",
        "Melting Point": "81 °C"
    }
}