{
    "cas_no": "38379-99-6",
    "key_name": "PCB 95",
    "cn_name": null,
    "alternate_name": "1,1′-Biphenyl, 2,2′,3,5′,6-pentachloro-;2,2′,3,5′,6-Pentachloro-1,1′-biphenyl;2,5,2′,3′,6′-Pentachlorobiphenyl;2,3,6,2′,5′-Pentachlorobiphenyl;2,2′,3,5′,6-Pentachlorobiphenyl;2,2′,3′,5,6′-Pentachlorobiphenyl;PCB 95;(±)-PCB 95",
    "duplicated_cas_no": "151262-33-8",
    "SMILES": "ClC1=C(C(Cl)=CC=C1Cl)C2=C(Cl)C=CC(Cl)=C2",
    "meta_data": {
        "InChI": "InChI=1S/C12H5Cl5/c13-6-1-2-8(14)7(5-6)11-9(15)3-4-10(16)12(11)17/h1-5H",
        "InChIKey": null,
        "Canonical SMILES": "ClC1=CC=C(Cl)C(=C1)C=2C(Cl)=CC=C(Cl)C2Cl",
        "Molecular Formula": "C<sub>12</sub>H<sub>5</sub>Cl<sub>5</sub>",
        "Molecular Mass": "326.43",
        "Melting Point": "91-92 °C"
    }
}