{
    "cas_no": "45267-19-4",
    "key_name": "Myristamidopropyl dimethylamine",
    "cn_name": null,
    "alternate_name": "Tetradecanamide, <em>N</em>-[3-(dimethylamino)propyl]-;<em>N</em>-[3-(Dimethylamino)propyl]tetradecanamide;Myristamidopropyl dimethylamine;Dimethylaminopropyl myristamide;<em>N</em>-[3-(Dimethylamino)propyl]myristamide;Lexamine M 13;Schercodine M;Aldox;Opti-free Aldox",
    "duplicated_cas_no": "",
    "SMILES": "C(C(NCCCN(C)C)=O)CCCCCCCCCCCC",
    "meta_data": {
        "InChI": "InChI=1S/C19H40N2O/c1-4-5-6-7-8-9-10-11-12-13-14-16-19(22)20-17-15-18-21(2)3/h4-18H2,1-3H3,(H,20,22)",
        "InChIKey": null,
        "Canonical SMILES": "O=C(NCCCN(C)C)CCCCCCCCCCCCC",
        "Molecular Formula": "C<sub>19</sub>H<sub>40</sub>N<sub>2</sub>O",
        "Molecular Mass": "312.53",
        "Boiling Point": "208-215 °C @ Press: 1-2 Torr",
        "Melting Point": "48-49 °C"
    }
}