{
    "cas_no": "452-74-4",
    "key_name": "4-Bromo-3-fluorotoluene",
    "cn_name": "4-溴-3-氟甲苯;",
    "alternate_name": "Benzene, 1-bromo-2-fluoro-4-methyl-;Toluene, 4-bromo-3-fluoro-;1-Bromo-2-fluoro-4-methylbenzene;3-Fluoro-4-bromotoluene;4-Bromo-3-fluorotoluene;2-Fluoro-4-methyl-1-bromobenzene",
    "duplicated_cas_no": "193357-29-8",
    "SMILES": "FC1=C(Br)C=CC(C)=C1",
    "meta_data": {
        "InChI": "InChI=1S/C7H6BrF/c1-5-2-3-6(8)7(9)4-5/h2-4H,1H3",
        "InChIKey": null,
        "Canonical SMILES": "FC1=CC(=CC=C1Br)C",
        "Molecular Formula": "C<sub>7</sub>H<sub>6</sub>BrF",
        "Molecular Mass": "189.02",
        "Boiling Point": "169 °C @ Press: 756 Torr"
    }
}