{
    "cas_no": "3478-94-2",
    "key_name": "Piperalin",
    "cn_name": "病花灵;",
    "alternate_name": "Benzoic acid, 3,4-dichloro-, 3-(2-methyl-1-piperidinyl)propyl ester;Benzoic acid, 3,4-dichloro-, 3-(2-methylpiperidino)propyl ester;1-Piperidinepropanol, 2-methyl-, 3,4-dichlorobenzoate (ester);EL 211;γ-(2-Methylpiperidino)propyl 3,4-dichlorobenzoate;3-(2-Methylpiperidino)propyl 3,4-dichlorobenzoate;Piperalin;Pipron",
    "duplicated_cas_no": "1135443-00-3",
    "SMILES": "C(OCCCN1C(C)CCCC1)(=O)C2=CC(Cl)=C(Cl)C=C2",
    "meta_data": {
        "InChI": "InChI=1S/C16H21Cl2NO2/c1-12-5-2-3-8-19(12)9-4-10-21-16(20)13-6-7-14(17)15(18)11-13/h6-7,11-12H,2-5,8-10H2,1H3",
        "InChIKey": null,
        "Canonical SMILES": "O=C(OCCCN1CCCCC1C)C2=CC=C(Cl)C(Cl)=C2",
        "Molecular Formula": "C<sub>16</sub>H<sub>21</sub>Cl<sub>2</sub>NO<sub>2</sub>",
        "Molecular Mass": "330.25",
        "Boiling Point": "156-157 °C @ Press: 20 Torr",
        "Melting Point": "&lt;25 °C",
        "Density": "1.18 g/cm³"
    }
}