{
    "cas_no": "612-40-8",
    "key_name": "2-(2-Carboxyethenyl)benzoic acid",
    "cn_name": "2-羧基肉桂酸;",
    "alternate_name": "Benzoic acid, 2-(2-carboxyethenyl)-;Cinnamic acid, <em>o</em>-carboxy-;2-(2-Carboxyethenyl)benzoic acid;2-Carboxycinnamic acid;NSC 16636;<em>o</em>-Carboxycinnamic acid;2-(2-Carboxyvinyl)benzoic acid",
    "duplicated_cas_no": "",
    "SMILES": "C(=CC(O)=O)C1=C(C(O)=O)C=CC=C1",
    "meta_data": {
        "InChI": "InChI=1S/C10H8O4/c11-9(12)6-5-7-3-1-2-4-8(7)10(13)14/h1-6H,(H,11,12)(H,13,14)",
        "InChIKey": null,
        "Canonical SMILES": "O=C(O)C=CC=1C=CC=CC1C(=O)O",
        "Molecular Formula": "C<sub>10</sub>H<sub>8</sub>O<sub>4</sub>",
        "Molecular Mass": "192.17",
        "Melting Point": "182 °C"
    }
}