{
    "cas_no": "23391-99-3",
    "key_name": "[1,1′-Bicyclohexyl]-4,4′-dione",
    "cn_name": "4,4\"-二环己酮;",
    "alternate_name": "[1,1′-Bicyclohexyl]-4,4′-dione;[Bicyclohexyl]-4,4′-dione;4,4′-Bis(cyclohexanone);4,4′-Dioxo-2,2′,3,3′,5,5′,6,6′-octahydro-1,1′-biphenyl;4,4′-Bi[cyclohexanone];Bis(4-oxocyclohexyl);Bis(4-cyclohexanone);NSC 100201;1,1′-Bicyclohexane-4,4′-dione",
    "duplicated_cas_no": "",
    "SMILES": "O=C1CCC(CC1)C2CCC(=O)CC2",
    "meta_data": {
        "InChI": "InChI=1S/C12H18O2/c13-11-5-1-9(2-6-11)10-3-7-12(14)8-4-10/h9-10H,1-8H2",
        "InChIKey": null,
        "Canonical SMILES": "O=C1CCC(CC1)C2CCC(=O)CC2",
        "Molecular Formula": "C<sub>12</sub>H<sub>18</sub>O<sub>2</sub>",
        "Molecular Mass": "194.27",
        "Melting Point": "118-119 °C"
    }
}