{
    "cas_no": "84-80-0",
    "key_name": "Phylloquinone",
    "cn_name": "维生素K1;植物甲萘醌;2-甲基-3-(3,7,11,15-四甲基十六-2-烯基)-1,4-萘醌;",
    "alternate_name": "1,4-Naphthalenedione, 2-methyl-3-[(2<em>E</em>,7<em>R</em>,11<em>R</em>)-3,7,11,15-tetramethyl-2-hexadecen-1-yl]-;Phylloquinone;1,4-Naphthalenedione, 2-methyl-3-(3,7,11,15-tetramethyl-2-hexadecenyl)-, [<em>R</em>-[<em>R</em>*,<em>R</em>*-(<em>E</em>)]]-;1,4-Naphthalenedione, 2-methyl-3-[(2<em>E</em>,7<em>R</em>,11<em>R</em>)-3,7,11,15-tetramethyl-2-hexadecenyl]-;2-Methyl-3-[(2<em>E</em>,7<em>R</em>,11<em>R</em>)-3,7,11,15-tetramethyl-2-hexadecen-1-yl]-1,4-naphthalenedione;Antihemorrhagic vitamin;Mephyton;2-Methyl-3-phytyl-1,4-naphthoquinone;Mono-Kay;Phytomenadione;Phytonadione;Phytylmenadione;Vitamin K<sub>1(20)</sub>;α-Phylloquinone;Konakion;<em>trans</em>-Phylloquinone;2′,3′-<em>trans</em>-Vitamin K<sub>1</sub>;Synthex P;Kephton;Kinadion;Monodion;Combinal K<sub>1</sub>;Kativ N;AquaMEPHYTON;Kaywan;Phylloquinone K<sub>1</sub>;Phytylmenaquinone;Pediatrico;Orakay;Veta K<sub>1</sub>;Veda K<sub>1</sub>;NSC 270681;Kanakion;Amri-K;Haemokion;Kenadion;Reconval",
    "duplicated_cas_no": "10485-69-5;15973-57-6;50926-17-5",
    "SMILES": "O=C1C=2C(C(=O)C(C)=C1C/C=C(/CCC[C@@H](CCC[C@@H](CCCC(C)C)C)C)\\C)=CC=CC2",
    "meta_data": {
        "InChI": "InChI=1S/C31H46O2/c1-22(2)12-9-13-23(3)14-10-15-24(4)16-11-17-25(5)20-21-27-26(6)30(32)28-18-7-8-19-29(28)31(27)33/h7-8,18-20,22-24H,9-17,21H2,1-6H3/b25-20+/t23-,24-/m1/s1",
        "InChIKey": null,
        "Canonical SMILES": "O=C1C=2C=CC=CC2C(=O)C(=C1C)CC=C(C)CCCC(C)CCCC(C)CCCC(C)C",
        "Molecular Formula": "C<sub>31</sub>H<sub>46</sub>O<sub>2</sub>",
        "Molecular Mass": "450.70",
        "Boiling Point": "140-145 °C @ Press: 1 x 10<sup>-3</sup> Torr",
        "Melting Point": "-20 °C",
        "Density": "0.964 g/cm³ @ Temp: 25 °C"
    }
}