{
    "cas_no": "480-67-1",
    "key_name": "2,6-Dihydroxy-4-methylbenzoic acid",
    "cn_name": "2,6-二羟基-4-甲基苯甲酸;",
    "alternate_name": "Benzoic acid, 2,6-dihydroxy-4-methyl-;γ-Resorcylic acid, 4-methyl-;2,6-Dihydroxy-4-methylbenzoic acid;4-Methyl-γ-resorcylic acid;<em>p</em>-Orsellinic acid",
    "duplicated_cas_no": "",
    "SMILES": "C(O)(=O)C1=C(O)C=C(C)C=C1O",
    "meta_data": {
        "InChI": "InChI=1S/C8H8O4/c1-4-2-5(9)7(8(11)12)6(10)3-4/h2-3,9-10H,1H3,(H,11,12)",
        "InChIKey": null,
        "Canonical SMILES": "O=C(O)C1=C(O)C=C(C=C1O)C",
        "Molecular Formula": "C<sub>8</sub>H<sub>8</sub>O<sub>4</sub>",
        "Molecular Mass": "168.15",
        "Melting Point": "166-168 °C (decomp)"
    }
}