{
    "cas_no": "50-41-9",
    "key_name": "Clostilbegit",
    "cn_name": "枸橼酸氯米芬;N,N-二乙基-2-[4-(1,2-二苯基-2-氯乙烯基)苯氧基]乙胺枸橼酸盐;",
    "alternate_name": "Ethanamine, 2-[4-(2-chloro-1,2-diphenylethenyl)phenoxy]-<em>N</em>,<em>N</em>-diethyl-, 2-hydroxy-1,2,3-propanetricarboxylate (1:1);Triethylamine, 2-[<em>p</em>-(2-chloro-1,2-diphenylvinyl)phenoxy]-, citrate (1:1);Triethylamine, 2-[<em>p</em>-(2-chloro-1,2-diphenylvinyl)phenoxy]-, citrate;MRL 41;Chloramiphene;2-[<em>p</em>-(2-Chloro-1,2-diphenylvinyl)phenoxy]triethylamine dihydrogen citrate;Clomid;1-[<em>p</em>-(β-Diethylaminoethoxy)phenyl]-1,2-diphenyl-2-chloroethylene citrate;Clomiphene citrate;Clomiphene dihydrogen citrate;Racemic clomiphene citrate;Clomifene citrate;Omifin;Clomifeno;Clomivid;Clomphid;Dyneric;Genozym;Ikaclomin;Mer 41;Fertyl;Fertivet;Clostilbegyt;Ikaclomine;Pergotime;Serophene;NSC 35770;Clostilbegit;Clomhexal;Siphene;Klomen;2-(4-(2-Chloro-1,2-diphenylvinyl)phenoxy)-<em>N</em>,<em>N</em>-diethylethanamine 2-hydroxypropane-1,2,3-tricarboxylate",
    "duplicated_cas_no": "",
    "SMILES": "C(=C(Cl)C1=CC=CC=C1)(C2=CC=C(OCCN(CC)CC)C=C2)C3=CC=CC=C3.C(CC(O)=O)(CC(O)=O)(C(O)=O)O",
    "meta_data": {
        "InChI": "InChI=1S/C26H28ClNO.C6H8O7/c1-3-28(4-2)19-20-29-24-17-15-22(16-18-24)25(21-11-7-5-8-12-21)26(27)23-13-9-6-10-14-23;7-3(8)1-6(13,5(11)12)2-4(9)10/h5-18H,3-4,19-20H2,1-2H3;13H,1-2H2,(H,7,8)(H,9,10)(H,11,12)",
        "InChIKey": null,
        "Canonical SMILES": "O=C(O)CC(O)(C(=O)O)CC(=O)O.ClC(C=1C=CC=CC1)=C(C=2C=CC=CC2)C3=CC=C(OCCN(CC)CC)C=C3",
        "Molecular Formula": "C<sub>26</sub>H<sub>28</sub>ClNO.C<sub>6</sub>H<sub>8</sub>O<sub>7</sub>",
        "Molecular Mass": "",
        "Melting Point": "116.5-118 °C"
    }
}