{
    "cas_no": "127667-01-0",
    "key_name": "2-Fluoro-5-methoxybenzonitrile",
    "cn_name": null,
    "alternate_name": "Benzonitrile, 2-fluoro-5-methoxy-;2-Fluoro-5-methoxybenzonitrile;2-Fluoro-5-(methyloxy)benzonitrile",
    "duplicated_cas_no": "",
    "SMILES": "C(#N)C1=CC(OC)=CC=C1F",
    "meta_data": {
        "InChI": "InChI=1S/C8H6FNO/c1-11-7-2-3-8(9)6(4-7)5-10/h2-4H,1H3",
        "InChIKey": null,
        "Canonical SMILES": "N#CC1=CC(OC)=CC=C1F",
        "Molecular Formula": "C<sub>8</sub>H<sub>6</sub>FNO",
        "Molecular Mass": "151.14",
        "Melting Point": "82-84 °C"
    }
}