{
    "cas_no": "613-42-3",
    "key_name": "<em>p</em>-Benzylbiphenyl",
    "cn_name": "4-苄基联苯;4-苯基甲基-1,1\"-联苯;",
    "alternate_name": "1,1′-Biphenyl, 4-(phenylmethyl)-;Biphenyl, 4-benzyl-;4-(Phenylmethyl)-1,1′-biphenyl;4-Benzylbiphenyl;<em>p</em>-Benzylbiphenyl;4-Benzyl-1,1′-biphenyl;<em>p</em>-Biphenylylphenylmethane;PBBP;NSC 59812;4-Phenyldiphenylmethane;1-Benzyl-4-phenylbenzene",
    "duplicated_cas_no": "",
    "SMILES": "C(C1=CC=C(C=C1)C2=CC=CC=C2)C3=CC=CC=C3",
    "meta_data": {
        "InChI": "InChI=1S/C19H16/c1-3-7-16(8-4-1)15-17-11-13-19(14-12-17)18-9-5-2-6-10-18/h1-14H,15H2",
        "InChIKey": null,
        "Canonical SMILES": "C=1C=CC(=CC1)C=2C=CC(=CC2)CC=3C=CC=CC3",
        "Molecular Formula": "C<sub>19</sub>H<sub>16</sub>",
        "Molecular Mass": "244.33",
        "Melting Point": "85 °C"
    }
}