{
    "cas_no": "171364-86-6",
    "key_name": "2-(Benzo[<em>b</em>]thiophen-3-yl)-4,4,5,5-tetramethyl-[1,3,2]dioxaborolane",
    "cn_name": null,
    "alternate_name": "Benzo[<em>b</em>]thiophene, 3-(4,4,5,5-tetramethyl-1,3,2-dioxaborolan-2-yl)-;3-(4,4,5,5-Tetramethyl-1,3,2-dioxaborolan-2-yl)benzo[<em>b</em>]thiophene;2-(Benzo[<em>b</em>]thiophen-3-yl)-4,4,5,5-tetramethyl-[1,3,2]dioxaborolane;4,4,5,5-Tetramethyl-2-benzo[<em>b</em>]thiophen-3-yl-[1,3,2]dioxaborolane;3-(4,4,5,5-Tetramethyl-1,3,2-dioxaborolan-2-yl)benzothiophene;2-(1-Benzothiophen-3-yl)-4,4,5,5-tetramethyl-1,3,2-dioxaborolane",
    "duplicated_cas_no": "",
    "SMILES": "CC1(C)OB(C=2C=3C(SC2)=CC=CC3)OC1(C)C",
    "meta_data": {
        "InChI": "InChI=1S/C14H17BO2S/c1-13(2)14(3,4)17-15(16-13)11-9-18-12-8-6-5-7-10(11)12/h5-9H,1-4H3",
        "InChIKey": null,
        "Canonical SMILES": "O1B(OC(C)(C)C1(C)C)C2=CSC=3C=CC=CC32",
        "Molecular Formula": "C<sub>14</sub>H<sub>17</sub>BO<sub>2</sub>S",
        "Molecular Mass": "260.16",
        "Melting Point": "65-66 °C"
    }
}