{
    "cas_no": "991-84-4",
    "key_name": "2,4-Bis-(<em>n</em>-octylthio)-6-(4-hydroxy-3′,5′-di-<em>tert</em>-butylanilino)-1,3,5-triazine",
    "cn_name": "抗氧剂565;4-[(4,6-二辛硫基-1,3,5-三嗪-2-基)氨基]-2,6-二叔丁基苯酚;",
    "alternate_name": "Phenol, 4-[[4,6-bis(octylthio)-1,3,5-triazin-2-yl]amino]-2,6-bis(1,1-dimethylethyl)-;Phenol, 4-[[4,6-bis(octylthio)-<em>s</em>-triazin-2-yl]amino]-2,6-di-<em>tert</em>-butyl-;4-[[4,6-Bis(octylthio)-1,3,5-triazin-2-yl]amino]-2,6-bis(1,1-dimethylethyl)phenol;2,4-Bis-(<em>n</em>-octylthio)-6-(4-hydroxy-3,5-di-<em>tert</em>-butylanilino)-1,3,5-triazine;2,4-Bis(octylthio)-6-(4-hydroxy-3,5-di-<em>tert</em>-butylanilino)-1,3,5-triazine;2,4-Bis(octylthio)-6-(4-hydroxy-3,5-di-<em>tert</em>-butylanilino)-<em>s</em>-triazine;Irganox 565;Irganox RA 565;2-(4-Hydroxy-3,5-di-<em>tert</em>-butylanilino)-4,6-bis(octylthio)-1,3,5-triazine;6-(4-Hydroxy-3,5-di-<em>tert</em>-butylanilino)-2,4-bis(octylthio)-<em>s</em>-triazine;6-(3,5-di-<em>tert</em>-Butyl-4-hydroxyanilino)-2,4-bis(<em>n</em>-octylthio)-<em>s</em>-triazine;2,4-Bis(<em>n</em>-octylthio)-6-(3,5-di-<em>tert</em>-butyl-4-hydroxyphenylamino)-<em>s</em>-triazine;2-(4-Hydroxy-3,5-di-<em>tert</em>-butylanilino)-4,6-di(octylthio)-<em>s</em>-triazine;2-(4-Hydroxy-3,5-di-<em>tert</em>-butylanilino)-4,6-bis(octylthio)-<em>s</em>-triazine;6-(4-Hydroxy-3,5-di-<em>tert</em>-butylanilino)-2,4-bis(<em>n</em>-octylthio)-1,3,5-triazine;6-(3,5-Di-<em>tert</em>-butyl-4-hydroxyanilino)-2,4-bis(octylthio)-<em>s</em>-triazine;2,4-Bis(octylthio)-6-(3,5-di-<em>tert</em>-butyl-4-hydroxyanilino)-<em>s</em>-triazine;1-(3,5-Di-<em>tert</em>-butyl-4-hydroxyanilino)-3,5-bis(octylthio)-<em>s</em>-triazine;6-(4-Hydroxy-3,5-di-<em>tert</em>-butylanilino)-2,4-bis(octylthio)-1,3,5-triazine;2,4-Bis(octylthio)-6-(4′-hydroxy-3′,5′-di-<em>tert</em>-butylanilino)-1,3,5-triazine;NSC 328455;2,6-Di-<em>tert</em>-butyl-4-[4,6-bis(octylthio)-1,3,5-triazin-2-ylamino]phenol;2,4-Bis-(<em>n</em>-octylthio)-6-(4-hydroxy-3′,5′-di-<em>tert</em>-butylanilino)-1,3,5-triazine;Tinogard MD 1;Antioxidant 565;2,4-Bis(<em>n</em>-octylthio)-6-(4′-hydroxy-3′,5′-di-<em>tert</em>-butylanilino)-1,3,5-triazine;Eunox AO 565;BNX 565;BOTAP;4-[[4,6-Bis(octylsulfanyl)-1,3,5-triazin-2-yl]amino]-2,6-di-<em>tert</em>-butylphenol;Irgafos 565;4-[[4,6-Bis(<em>n</em>-octylthio)-1,3,5-triazin-2-yl]amino]-2,6-di-<em>tert</em>-butylphenol",
    "duplicated_cas_no": "140232-83-3;357915-92-5;1385782-57-9",
    "SMILES": "N(C1=CC(C(C)(C)C)=C(O)C(C(C)(C)C)=C1)C=2N=C(SCCCCCCCC)N=C(SCCCCCCCC)N2",
    "meta_data": {
        "InChI": "InChI=1S/C33H56N4OS2/c1-9-11-13-15-17-19-21-39-30-35-29(36-31(37-30)40-22-20-18-16-14-12-10-2)34-25-23-26(32(3,4)5)28(38)27(24-25)33(6,7)8/h23-24,38H,9-22H2,1-8H3,(H,34,35,36,37)",
        "InChIKey": null,
        "Canonical SMILES": "OC=1C(=CC(=CC1C(C)(C)C)NC=2N=C(N=C(N2)SCCCCCCCC)SCCCCCCCC)C(C)(C)C",
        "Molecular Formula": "C<sub>33</sub>H<sub>56</sub>N<sub>4</sub>OS<sub>2</sub>",
        "Molecular Mass": "588.95",
        "Melting Point": "92-95 °C"
    }
}