{
    "cas_no": "586-22-1",
    "key_name": "1-(3-Fluoro-4-methoxyphenyl)-1-propanone",
    "cn_name": null,
    "alternate_name": "1-Propanone, 1-(3-fluoro-4-methoxyphenyl)-;Propiophenone, 3′-fluoro-4′-methoxy-;1-(3-Fluoro-4-methoxyphenyl)-1-propanone;NSC 123876;3′-Fluoro-4′-methoxypropiophenone",
    "duplicated_cas_no": "",
    "SMILES": "C(CC)(=O)C1=CC(F)=C(OC)C=C1",
    "meta_data": {
        "InChI": "InChI=1S/C10H11FO2/c1-3-9(12)7-4-5-10(13-2)8(11)6-7/h4-6H,3H2,1-2H3",
        "InChIKey": null,
        "Canonical SMILES": "O=C(C1=CC=C(OC)C(F)=C1)CC",
        "Molecular Formula": "C<sub>10</sub>H<sub>11</sub>FO<sub>2</sub>",
        "Molecular Mass": "182.19",
        "Melting Point": "83-85 °C"
    }
}