{
    "cas_no": "126-14-7",
    "key_name": "Octaacetyl sucrose",
    "cn_name": "蔗糖八乙酸酯;蔗糖八醋酸酯;八乙酰蔗糖;",
    "alternate_name": "α-<span class=\"text-smallcaps\">D</smallcap>-Glucopyranoside, 1,3,4,6-tetra-<em>O</em>-acetyl-β-<smallcap>D</span>-fructofuranosyl, 2,3,4,6-tetraacetate;Sucrose, octaacetate;α-<span class=\"text-smallcaps\">D</smallcap>-Glucopyranoside, 1,3,4,6-tetra-<em>O</em>-acetyl-β-<smallcap>D</span>-fructofuranosyl, tetraacetate;Octaacetyl sucrose;2,3,4,6,1′,3′,4′,6′-Octa-<em>O</em>-acetylsucrose;Octa-<em>O</em>-acetylsucrose;Saccharose octaacetate;NSC 1695;Monopet SOA",
    "duplicated_cas_no": "68006-08-6;94273-23-1",
    "SMILES": "O([C@@]1(COC(C)=O)[C@@H](OC(C)=O)[C@H](OC(C)=O)[C@@H](COC(C)=O)O1)[C@@H]2[C@H](OC(C)=O)[C@@H](OC(C)=O)[C@H](OC(C)=O)[C@@H](COC(C)=O)O2",
    "meta_data": {
        "InChI": "InChI=1S/C28H38O19/c1-12(29)37-9-20-22(40-15(4)32)24(42-17(6)34)25(43-18(7)35)27(45-20)47-28(11-39-14(3)31)26(44-19(8)36)23(41-16(5)33)21(46-28)10-38-13(2)30/h20-27H,9-11H2,1-8H3/t20-,21-,22-,23-,24+,25-,26+,27-,28+/m1/s1",
        "InChIKey": null,
        "Canonical SMILES": "O=C(OCC1OC(OC2(OC(COC(=O)C)C(OC(=O)C)C2OC(=O)C)COC(=O)C)C(OC(=O)C)C(OC(=O)C)C1OC(=O)C)C",
        "Molecular Formula": "C<sub>28</sub>H<sub>38</sub>O<sub>19</sub>",
        "Molecular Mass": "678.59",
        "Boiling Point": "0.180-5 °C @ Press: 1 x 10<sup>-4</sup> Torr",
        "Melting Point": "86.5 °C",
        "Density": "1.335 g/cm³"
    }
}