{
    "cas_no": "5669-14-7",
    "key_name": "2,2-Dimethyl-3-phenylpropanoic acid",
    "cn_name": null,
    "alternate_name": "Benzenepropanoic acid, α,α-dimethyl-;Hydrocinnamic acid, α,α-dimethyl-;α,α-Dimethylbenzenepropanoic acid;Benzyldimethylacetic acid;α,α-Dimethylhydrocinnamic acid;2,2-Dimethyl-3-phenylpropionic acid;2,2-Dimethyl-3-phenylpropanoic acid",
    "duplicated_cas_no": "",
    "SMILES": "C(C(C(O)=O)(C)C)C1=CC=CC=C1",
    "meta_data": {
        "InChI": "InChI=1S/C11H14O2/c1-11(2,10(12)13)8-9-6-4-3-5-7-9/h3-7H,8H2,1-2H3,(H,12,13)",
        "InChIKey": null,
        "Canonical SMILES": "O=C(O)C(C)(C)CC=1C=CC=CC1",
        "Molecular Formula": "C<sub>11</sub>H<sub>14</sub>O<sub>2</sub>",
        "Molecular Mass": "178.23",
        "Boiling Point": "200 °C @ Press: 1.5 Torr",
        "Melting Point": "59-60 °C"
    }
}