{
    "cas_no": "479073-80-8",
    "key_name": "Thiohomosildenafil",
    "cn_name": null,
    "alternate_name": "7<em>H</em>-Pyrazolo[4,3-<em>d</em>]pyrimidine-7-thione, 5-[2-ethoxy-5-[(4-ethyl-1-piperazinyl)sulfonyl]phenyl]-1,6-dihydro-1-methyl-3-propyl-;Piperazine, 1-[[3-(4,7-dihydro-1-methyl-3-propyl-7-thioxo-1<em>H</em>-pyrazolo[4,3-<em>d</em>]pyrimidin-5-yl)-4-ethoxyphenyl]sulfonyl]-4-ethyl-;5-[2-Ethoxy-5-[(4-ethyl-1-piperazinyl)sulfonyl]phenyl]-1,6-dihydro-1-methyl-3-propyl-7<em>H</em>-pyrazolo[4,3-<em>d</em>]pyrimidine-7-thione;Thiohomosildenafil;Sulfohomosildenafil",
    "duplicated_cas_no": "",
    "SMILES": "C(CC)C=1C2=C(C(=S)N=C(N2)C3=C(OCC)C=CC(S(=O)(=O)N4CCN(CC)CC4)=C3)N(C)N1",
    "meta_data": {
        "InChI": "InChI=1S/C23H32N6O3S2/c1-5-8-18-20-21(27(4)26-18)23(33)25-22(24-20)17-15-16(9-10-19(17)32-7-3)34(30,31)29-13-11-28(6-2)12-14-29/h9-10,15H,5-8,11-14H2,1-4H3,(H,24,25,33)",
        "InChIKey": null,
        "Canonical SMILES": "O=S(=O)(C=1C=CC(OCC)=C(C1)C2=NC(=S)C3=C(N2)C(=NN3C)CCC)N4CCN(CC)CC4",
        "Molecular Formula": "C<sub>23</sub>H<sub>32</sub>N<sub>6</sub>O<sub>3</sub>S<sub>2</sub>",
        "Molecular Mass": "504.67",
        "Melting Point": "183-185 °C"
    }
}