{
    "cas_no": "729-24-8",
    "key_name": "Valine β-naphthylamide",
    "cn_name": null,
    "alternate_name": "Butanamide, 2-amino-3-methyl-<em>N</em>-2-naphthalenyl-, (2<em>S</em>)-;Butyramide, 2-amino-3-methyl-<em>N</em>-2-naphthyl-, <span class=\"text-smallcaps\">L</span>-;Butanamide, 2-amino-3-methyl-<em>N</em>-2-naphthalenyl-, (<em>S</em>)-;(2<em>S</em>)-2-Amino-3-methyl-<em>N</em>-2-naphthalenylbutanamide;<span class=\"text-smallcaps\">L</span>-Valyl β-naphthylamide;<span class=\"text-smallcaps\">L</span>-Valine β-naphthylamide;Valine β-naphthylamide;Valyl-β-naphthylamide;(2S)-2-Amino-3-methyl-<em>N</em>-(naphthalen-2-yl)butanamide;(2S)-2-Amino-3-methyl-<em>N</em>-naphthalen-2-ylbutanamide",
    "duplicated_cas_no": "",
    "SMILES": "N(C([C@H](C(C)C)N)=O)C1=CC2=C(C=C1)C=CC=C2",
    "meta_data": {
        "InChI": "InChI=1S/C15H18N2O/c1-10(2)14(16)15(18)17-13-8-7-11-5-3-4-6-12(11)9-13/h3-10,14H,16H2,1-2H3,(H,17,18)/t14-/m0/s1",
        "InChIKey": null,
        "Canonical SMILES": "O=C(NC=1C=CC=2C=CC=CC2C1)C(N)C(C)C",
        "Molecular Formula": "C<sub>15</sub>H<sub>18</sub>N<sub>2</sub>O",
        "Molecular Mass": "242.32",
        "Melting Point": "100-102 °C"
    }
}