{
    "cas_no": "70124-77-5",
    "key_name": "Flucythrinate",
    "cn_name": "氟氰菊酯;中西氟氰菊酯;氟氰戊菊酯;(R,S)&alpha;-氰基-间苯氧基苄基(S)-2-(对二氟甲氧基苯基)-3-甲基丁酸酯;",
    "alternate_name": "Benzeneacetic acid, 4-(difluoromethoxy)-α-(1-methylethyl)-, cyano(3-phenoxyphenyl)methyl ester;AC 222705;CyBolt;Pay-Off;Flucythrinate;Fluorocythrin;α-Cyano-3-phenoxybenzyl 2-[<em>p</em>-(difluoromethoxy)phenyl]isovalerate;Flucythrinate I;Flucythrinate II",
    "duplicated_cas_no": "71611-31-9;102984-46-3;2048189-80-4;2048190-24-3",
    "SMILES": "C(C(OC(C#N)C1=CC(OC2=CC=CC=C2)=CC=C1)=O)(C(C)C)C3=CC=C(OC(F)F)C=C3",
    "meta_data": {
        "InChI": "InChI=1S/C26H23F2NO4/c1-17(2)24(18-11-13-21(14-12-18)32-26(27)28)25(30)33-23(16-29)19-7-6-10-22(15-19)31-20-8-4-3-5-9-20/h3-15,17,23-24,26H,1-2H3",
        "InChIKey": null,
        "Canonical SMILES": "N#CC(OC(=O)C(C1=CC=C(OC(F)F)C=C1)C(C)C)C=2C=CC=C(OC=3C=CC=CC3)C2",
        "Molecular Formula": "C<sub>26</sub>H<sub>23</sub>F<sub>2</sub>NO<sub>4</sub>",
        "Molecular Mass": "451.46",
        "Boiling Point": "108 °C @ Press: 0.35 Torr",
        "Melting Point": "&lt;25 °C",
        "Density": "1.189 g/cm³ @ Temp: 22 °C"
    }
}