{
    "cas_no": "16142-27-1",
    "key_name": "3-Morpholinosydnonimine hydrochloride",
    "cn_name": "5-氨基-3-(4-吗啉基)-1,2,3-恶二唑鎓盐酸盐;",
    "alternate_name": "1,2,3-Oxadiazolium, 5-amino-3-(4-morpholinyl)-, chloride (1:1);Sydnone imine, 3-morpholino-, monohydrochloride;Sydnone imine, 3-(4-morpholinyl)-, monohydrochloride;1,2,3-Oxadiazolium, 5-amino-3-(4-morpholinyl)-, chloride;3-Morpholinosydnonimine hydrochloride;3-Morpholinosydnone imine monohydrochloride;Linsidomine chlorhydrate;Linsidomine hydrochloride;5-Amino-3-(4-morpholinyl)-1,2,3-oxadiazolium chloride",
    "duplicated_cas_no": "25800-18-4;30066-68-3;108964-49-4;161225-30-5;1301238-39-0",
    "SMILES": "NC1=C[N+](=NO1)N2CCOCC2.[Cl-]",
    "meta_data": {
        "InChI": "InChI=1S/C6H11N4O2.ClH/c7-6-5-10(8-12-6)9-1-3-11-4-2-9;/h5H,1-4,7H2;1H/q+1;/p-1",
        "InChIKey": null,
        "Canonical SMILES": "[Cl-].N=1OC(N)=C[N+]1N2CCOCC2",
        "Molecular Formula": "C<sub>6</sub>H<sub>11</sub>N<sub>4</sub>O<sub>2</sub>.Cl",
        "Molecular Mass": "",
        "Melting Point": "171-173 °C (decomp)"
    }
}