{
    "cas_no": "19231-06-2",
    "key_name": "Iodonium, bis(4-methoxyphenyl)-, bromide (1:1)",
    "cn_name": null,
    "alternate_name": "Iodonium, bis(4-methoxyphenyl)-, bromide (1:1);Iodonium, bis(<em>p</em>-methoxyphenyl)-, bromide;Iodonium, bis(4-methoxyphenyl)-, bromide;<em>p</em>,<em>p</em>′-Dimethoxydiphenyliodonium bromide;Di(<em>p</em>-Anisyl)iodonium bromide;Bis(<em>p</em>-anisyl)iodonium bromide;Bis(4-methoxyphenyl)iodonium bromide;NSC 141350",
    "duplicated_cas_no": "57422-09-0",
    "SMILES": "[I+](C1=CC=C(OC)C=C1)C2=CC=C(OC)C=C2.[Br-]",
    "meta_data": {
        "InChI": "InChI=1S/C14H14IO2.BrH/c1-16-13-7-3-11(4-8-13)15-12-5-9-14(17-2)10-6-12;/h3-10H,1-2H3;1H/q+1;/p-1",
        "InChIKey": null,
        "Canonical SMILES": "[Br-].O(C1=CC=C([I+]C2=CC=C(OC)C=C2)C=C1)C",
        "Molecular Formula": "C<sub>14</sub>H<sub>14</sub>IO<sub>2</sub>.Br",
        "Molecular Mass": "",
        "Melting Point": "190-192 °C"
    }
}