{
    "cas_no": "1330-61-6",
    "key_name": "Isodecyl acrylate",
    "cn_name": "丙烯酸异癸酯;",
    "alternate_name": "2-Propenoic acid, isodecyl ester;Acrylic acid, isodecyl ester;Isodecyl alcohol, acrylate;Isodecyl acrylate;SR 395;SR 396;Sartomer 395;Miramer M 130;EM 219;EM 219 (acrylate);Miramer 130;M 130;M 130 (ester);Sartomer SR 395;SR 395NS;Photomer 4810;EM 2191;FA 111A;IDAA;CM 2112",
    "duplicated_cas_no": "32073-49-7;1467079-46-4;1467081-67-9",
    "SMILES": "",
    "meta_data": {
        "InChI": "",
        "InChIKey": null,
        "Canonical SMILES": "",
        "Molecular Formula": "C<sub>13</sub>H<sub>24</sub>O<sub>2</sub>",
        "Molecular Mass": "",
        "Boiling Point": "158 °C @ Press: 50 Torr",
        "Melting Point": "-100 °C",
        "Density": "0.885 g/cm³ @ Temp: 20 °C"
    }
}