{
    "cas_no": "65-29-2",
    "key_name": "Gallamine triethiodide",
    "cn_name": null,
    "alternate_name": "Ethanaminium, 2,2′,2′′-[1,2,3-benzenetriyltris(oxy)]tris[<em>N</em>,<em>N</em>,<em>N</em>-triethyl-, iodide (1:3);[<em>v</em>-Phenenyltris(oxyethylene)]tris[triethylammonium iodide];Ammonium, [<em>v</em>-phenenyltris(oxyethylene)]tris[triethyl-, triiodide;Ethanaminium, 2,2′,2′′-[1,2,3-benzenetriyltris(oxy)]tris[<em>N</em>,<em>N</em>,<em>N</em>-triethyl-, triiodide;F 2559;3697 RP;RP 3697;Benzcurine iodide;Flacedil;Flaxedil;Fourneau 2559;Gallamine iodide;Gallamine triethiodide;Gallamine triiodoethylate;Gallamin triethiodide;Pyrogallol 1,2,3-(diethylaminoethyl ether) tris(ethyliodide);Relaxan;Remyolan;Retensin;Sincurarine;Syncurarine;1,2,3-Tri(β-diethylaminoethoxy)benzene triethiodide;Tri(β-diethylaminoethoxy)-1,2,3-benzene tri-iodoethylate;Tri(diethylaminoethoxy)-1,2,3-benzene triiodoethylate;1,2,3-Tris(diethylaminoethoxy)benzene triethiodide;1,2,3-Tris(2-diethylaminoethoxy)benzene triethiodide;1,2,3-Tris(2-diethylaminoethoxy)benzene tris(ethyliodide);1,2,3-Tris(2-triethylammonium ethoxy)benzene triiodide;Flaxedil iodide;Gallaflex;HL 8583;Miowas G;Parexyl;Pyrolaxon;Gallamone triethiodide;MeSH ID: D005703",
    "duplicated_cas_no": "",
    "SMILES": "O(CC[N+](CC)(CC)CC)C1=C(OCC[N+](CC)(CC)CC)C=CC=C1OCC[N+](CC)(CC)CC.[I-]",
    "meta_data": {
        "InChI": "InChI=1S/C30H60N3O3.3HI/c1-10-31(11-2,12-3)22-25-34-28-20-19-21-29(35-26-23-32(13-4,14-5)15-6)30(28)36-27-24-33(16-7,17-8)18-9;;;/h19-21H,10-18,22-27H2,1-9H3;3*1H/q+3;;;/p-3",
        "InChIKey": null,
        "Canonical SMILES": "[I-].O(C1=CC=CC(OCC[N+](CC)(CC)CC)=C1OCC[N+](CC)(CC)CC)CC[N+](CC)(CC)CC",
        "Molecular Formula": "C<sub>30</sub>H<sub>60</sub>N<sub>3</sub>O<sub>3</sub>.3I",
        "Molecular Mass": "",
        "Melting Point": "147.5 °C"
    }
}