{
    "cas_no": "631-69-6",
    "key_name": "beta-Boswellic acid",
    "cn_name": null,
    "alternate_name": "Urs-12-en-23-oic acid, 3-hydroxy-, (3α,4β)-;Urs-12-en-24-oic acid, 3α-hydroxy-;β-Boswellic acid;(3α,4β)-3-Hydroxyurs-12-en-23-oic acid;3α-Hydroxyurs-12-en-24-oic acid;beta-Boswellic acid",
    "duplicated_cas_no": "1285527-37-8",
    "SMILES": "C[C@]12[C@@]([C@]3(C)[C@@](CC1)([C@](C(O)=O)(C)[C@H](O)CC3)[H])(CC=C4[C@@]2(C)CC[C@]5(C)[C@]4([C@@H](C)[C@H](C)CC5)[H])[H]",
    "meta_data": {
        "InChI": "InChI=1S/C30H48O3/c1-18-10-13-26(3)16-17-28(5)20(24(26)19(18)2)8-9-21-27(4)14-12-23(31)30(7,25(32)33)22(27)11-15-29(21,28)6/h8,18-19,21-24,31H,9-17H2,1-7H3,(H,32,33)/t18-,19+,21-,22-,23-,24+,26-,27-,28-,29-,30-/m1/s1",
        "InChIKey": null,
        "Canonical SMILES": "O=C(O)C1(C)C(O)CCC2(C)C3CC=C4C5C(C)C(C)CCC5(C)CCC4(C)C3(C)CCC12",
        "Molecular Formula": "C<sub>30</sub>H<sub>48</sub>O<sub>3</sub>",
        "Molecular Mass": "456.70",
        "Melting Point": "238 °C"
    }
}