{
    "cas_no": "7697-37-2",
    "key_name": "Nitric acid",
    "cn_name": "硝酸;浓硝酸;",
    "alternate_name": "Nitric acid;Aqua fortis;Azotic acid;Hydrogen nitrate;Nitryl hydroxide;Nital;Nitric acid (HONO<sub>2</sub>);Fumic acid;NSC 147791;NSC 15203;MeSH ID: D017942",
    "duplicated_cas_no": "78989-43-2;218625-70-8;802862-59-5;807260-90-8;1053657-18-3;1173016-70-0;1316336-39-6;1431325-80-2;2108694-78-4;2195414-73-2;2732749-95-8",
    "SMILES": "N(=O)(=O)O",
    "meta_data": {
        "InChI": "InChI=1S/HNO3/c2-1(3)4/h(H,2,3,4)",
        "InChIKey": null,
        "Canonical SMILES": "O=N(=O)O",
        "Molecular Formula": "HNO<sub>3</sub>",
        "Molecular Mass": "63.01",
        "Boiling Point": "83 °C",
        "Melting Point": "-41.6 °C",
        "Density": "1.55 g/cm³"
    }
}