{
    "cas_no": "80194-71-4",
    "key_name": "3-Fluoro-5-(trifluoromethyl)-2-pyridinecarbonitrile",
    "cn_name": null,
    "alternate_name": "2-Pyridinecarbonitrile, 3-fluoro-5-(trifluoromethyl)-;3-Fluoro-5-(trifluoromethyl)-2-pyridinecarbonitrile;3-Fluoro-5-trifluoromethylpyridine-2-carbonitrile",
    "duplicated_cas_no": "",
    "SMILES": "C(F)(F)(F)C=1C=C(F)C(C#N)=NC1",
    "meta_data": {
        "InChI": "InChI=1S/C7H2F4N2/c8-5-1-4(7(9,10)11)3-13-6(5)2-12/h1,3H",
        "InChIKey": null,
        "Canonical SMILES": "N#CC1=NC=C(C=C1F)C(F)(F)F",
        "Molecular Formula": "C<sub>7</sub>H<sub>2</sub>F<sub>4</sub>N<sub>2</sub>",
        "Molecular Mass": "190.10",
        "Boiling Point": "90-94 °C @ Press: 30 Torr"
    }
}