{
    "cas_no": "4133-35-1",
    "key_name": "6-Bromo-2-tetralone",
    "cn_name": "6-溴-3,4-二氢-1H-2-萘酮;6-溴-2-四氢萘酮;",
    "alternate_name": "2(1<em>H</em>)-Naphthalenone, 6-bromo-3,4-dihydro-;6-Bromo-3,4-dihydro-2(1<em>H</em>)-naphthalenone;6-Bromo-2-tetralone;6-Bromo-β-tetralone;6-Bromo-3,4-dihydro-1<em>H</em>-naphthalen-2-one;6-Bromo-3,4-dihydronaphthalen-2(1<em>H</em>)-one",
    "duplicated_cas_no": "",
    "SMILES": "BrC=1C=C2C(CC(=O)CC2)=CC1",
    "meta_data": {
        "InChI": "InChI=1S/C10H9BrO/c11-9-3-1-8-6-10(12)4-2-7(8)5-9/h1,3,5H,2,4,6H2",
        "InChIKey": null,
        "Canonical SMILES": "O=C1CC2=CC=C(Br)C=C2CC1",
        "Molecular Formula": "C<sub>10</sub>H<sub>9</sub>BrO",
        "Molecular Mass": "225.08",
        "Melting Point": "74.5-75.5 °C"
    }
}