{
    "cas_no": "701-97-3",
    "key_name": "Cyclohexanepropanoic acid",
    "cn_name": "3-环己基丙酸;",
    "alternate_name": "Cyclohexanepropanoic acid;Cyclohexanepropionic acid;3-Cyclohexanepropionic acid;3-Cyclohexylpropanoic acid;3-Cyclohexylpropionic acid;Cyclohexylpropionic acid;NSC 404945;3-Cyclohexanepropanoic acid",
    "duplicated_cas_no": "",
    "SMILES": "C(CC(O)=O)C1CCCCC1",
    "meta_data": {
        "InChI": "InChI=1S/C9H16O2/c10-9(11)7-6-8-4-2-1-3-5-8/h8H,1-7H2,(H,10,11)",
        "InChIKey": null,
        "Canonical SMILES": "O=C(O)CCC1CCCCC1",
        "Molecular Formula": "C<sub>9</sub>H<sub>16</sub>O<sub>2</sub>",
        "Molecular Mass": "156.22",
        "Boiling Point": "276.5 °C",
        "Melting Point": "16 °C",
        "Density": "0.9848 g/cm³ @ Temp: 38 °C"
    }
}