{
    "cas_no": "13531-52-7",
    "key_name": "3-(Aminopropyl)ethylenediamine",
    "cn_name": null,
    "alternate_name": "1,3-Propanediamine, <em>N</em><sup>1</sup>-(2-aminoethyl)-;1,3-Propanediamine, <em>N</em>-(2-aminoethyl)-;<em>N</em><sup>1</sup>-(2-Aminoethyl)-1,3-propanediamine;1,4,8-Triazaoctane;<em>N</em>-(3-Aminopropyl)-1,2-diaminoethane;3-(Aminopropyl)ethylenediamine;3-[(2-Aminoethyl)amino]propylamine;<em>N</em>-(2-Aminoethyl)-1,3-diaminopropane;<em>N</em>-(3-Aminopropyl)ethylenediamine;3-Azahexane-1,6-diamine;N<sub>3</sub> Amine;1,6-Diamino-3-azahexane;<em>N</em>-(3-Aminoethyl)-1,3-propanediamine;<em>N</em>-(2-Aminoethyl)-1,3-propanediamine;1,6-Diamino-4-azahexane;(2-Aminoethyl)(3-aminopropyl)amine",
    "duplicated_cas_no": "",
    "SMILES": "C(NCCN)CCN",
    "meta_data": {
        "InChI": "InChI=1S/C5H15N3/c6-2-1-4-8-5-3-7/h8H,1-7H2",
        "InChIKey": null,
        "Canonical SMILES": "NCCNCCCN",
        "Molecular Formula": "C<sub>5</sub>H<sub>15</sub>N<sub>3</sub>",
        "Molecular Mass": "117.19",
        "Boiling Point": "72 °C @ Press: 1.0 Torr",
        "Density": "0.9401 g/cm³ @ Temp: 20 °C"
    }
}