{
    "cas_no": "10109-95-2",
    "key_name": "2,5-Dianilinoterephthalic acid",
    "cn_name": "2,5-二(苯基氨基)-1,4-苯二甲酸;2,5-二(苯基氨基)-1,4-苯二甲酸;",
    "alternate_name": "1,4-Benzenedicarboxylic acid, 2,5-bis(phenylamino)-;Terephthalic acid, 2,5-dianilino-;2,5-Bis(phenylamino)-1,4-benzenedicarboxylic acid;2,5-Dianilinoterephthalic acid;2,5-Bis(phenylamino)terephthalic acid;2,5-Di(phenylamino)terephthalic acid;Anilic acid",
    "duplicated_cas_no": "",
    "SMILES": "N(C1=C(C(O)=O)C=C(NC2=CC=CC=C2)C(C(O)=O)=C1)C3=CC=CC=C3",
    "meta_data": {
        "InChI": "InChI=1S/C20H16N2O4/c23-19(24)15-12-18(22-14-9-5-2-6-10-14)16(20(25)26)11-17(15)21-13-7-3-1-4-8-13/h1-12,21-22H,(H,23,24)(H,25,26)",
        "InChIKey": null,
        "Canonical SMILES": "O=C(O)C1=CC(NC=2C=CC=CC2)=C(C=C1NC=3C=CC=CC3)C(=O)O",
        "Molecular Formula": "C<sub>20</sub>H<sub>16</sub>N<sub>2</sub>O<sub>4</sub>",
        "Molecular Mass": "348.35",
        "Melting Point": "308-312 °C (decomp)"
    }
}