{
    "cas_no": "85979-59-5",
    "key_name": "2-Chloro-4-(4-fluorophenyl)pyrimidine",
    "cn_name": null,
    "alternate_name": "Pyrimidine, 2-chloro-4-(4-fluorophenyl)-;2-Chloro-4-(4-fluorophenyl)pyrimidine",
    "duplicated_cas_no": "",
    "SMILES": "ClC=1N=C(C=CN1)C2=CC=C(F)C=C2",
    "meta_data": {
        "InChI": "InChI=1S/C10H6ClFN2/c11-10-13-6-5-9(14-10)7-1-3-8(12)4-2-7/h1-6H",
        "InChIKey": null,
        "Canonical SMILES": "FC=1C=CC(=CC1)C2=NC(Cl)=NC=C2",
        "Molecular Formula": "C<sub>10</sub>H<sub>6</sub>ClFN<sub>2</sub>",
        "Molecular Mass": "208.62",
        "Melting Point": "125-126 °C"
    }
}