{
    "cas_no": "53170-93-7",
    "key_name": "3-Hydroxy-1-(4-hydroxyphenyl)-1-propanone",
    "cn_name": null,
    "alternate_name": "1-Propanone, 3-hydroxy-1-(4-hydroxyphenyl)-;3-Hydroxy-1-(4-hydroxyphenyl)-1-propanone;3,4′-Dihydroxypropiophenone;4-Hydroxy-(3-hydroxypropionyl)benzene",
    "duplicated_cas_no": "",
    "SMILES": "C(CCO)(=O)C1=CC=C(O)C=C1",
    "meta_data": {
        "InChI": "InChI=1S/C9H10O3/c10-6-5-9(12)7-1-3-8(11)4-2-7/h1-4,10-11H,5-6H2",
        "InChIKey": null,
        "Canonical SMILES": "O=C(C1=CC=C(O)C=C1)CCO",
        "Molecular Formula": "C<sub>9</sub>H<sub>10</sub>O<sub>3</sub>",
        "Molecular Mass": "166.17",
        "Melting Point": "141 °C"
    }
}