{
    "cas_no": "108-69-0",
    "key_name": "3,5-Dimethylaniline",
    "cn_name": "1-氨基-3,5-二甲苯;3,5-二甲基苯胺;",
    "alternate_name": "Benzenamine, 3,5-dimethyl-;3,5-Xylidine;3,5-Dimethylbenzenamine;3,5-Dimethylaniline;5-Amino-1,3-dimethylbenzene;5-Amino-1,3-xylene;3,5-Xylylamine;3,5-Dimethylphenylamine;3,5-Dimethyl-1-aminobenzene;NSC 26880;3,5-Dimethyl-<em>N</em>-phenylamine",
    "duplicated_cas_no": "",
    "SMILES": "CC1=CC(C)=CC(N)=C1",
    "meta_data": {
        "InChI": "InChI=1S/C8H11N/c1-6-3-7(2)5-8(9)4-6/h3-5H,9H2,1-2H3",
        "InChIKey": null,
        "Canonical SMILES": "NC=1C=C(C=C(C1)C)C",
        "Molecular Formula": "C<sub>8</sub>H<sub>11</sub>N",
        "Molecular Mass": "121.18",
        "Boiling Point": "220.5 °C",
        "Melting Point": "9.8 °C",
        "Density": "0.9706 g/cm³ @ Temp: 20 °C"
    }
}