{
    "cas_no": "1743-01-7",
    "key_name": "2-Naphthalenamine, 1,2,3,4-tetrahydro-, hydrochloride (1:1)",
    "cn_name": null,
    "alternate_name": "2-Naphthalenamine, 1,2,3,4-tetrahydro-, hydrochloride (1:1);2-Naphthylamine, 1,2,3,4-tetrahydro-, hydrochloride;2-Naphthalenamine, 1,2,3,4-tetrahydro-, hydrochloride;1,2,3,4-Tetrahydro-2-naphthylamine hydrochloride;(±)-2-Aminotetralin hydrochloride;NSC 52717;(1,2,3,4-Tetrahydronaphthalen-2-yl)amine hydrochloride",
    "duplicated_cas_no": "15826-49-0;49812-93-3",
    "SMILES": "NC1CC=2C(CC1)=CC=CC2.Cl",
    "meta_data": {
        "InChI": "InChI=1S/C10H13N.ClH/c11-10-6-5-8-3-1-2-4-9(8)7-10;/h1-4,10H,5-7,11H2;1H",
        "InChIKey": null,
        "Canonical SMILES": "Cl.NC1CC=2C=CC=CC2CC1",
        "Molecular Formula": "C<sub>10</sub>H<sub>13</sub>N.ClH",
        "Molecular Mass": "",
        "Melting Point": "241 °C"
    }
}