{
    "cas_no": "1009-22-9",
    "key_name": "<em>N</em>-(2-Bromo-4-fluorophenyl)acetamide",
    "cn_name": "2\"-溴-4\"-氟乙酰苯胺;2-溴-4-氟苯乙酰胺;",
    "alternate_name": "Acetamide, <em>N</em>-(2-bromo-4-fluorophenyl)-;Acetanilide, 2′-bromo-4′-fluoro-;<em>N</em>-(2-Bromo-4-fluorophenyl)acetamide;<em>N</em>-2-Bromo-4-fluorophenylacetamide;2′-Bromo-4′-fluoroacetanilide;2-Bromo-4-fluoroacetanilide",
    "duplicated_cas_no": "",
    "SMILES": "N(C(C)=O)C1=C(Br)C=C(F)C=C1",
    "meta_data": {
        "InChI": "InChI=1S/C8H7BrFNO/c1-5(12)11-8-3-2-6(10)4-7(8)9/h2-4H,1H3,(H,11,12)",
        "InChIKey": null,
        "Canonical SMILES": "O=C(NC1=CC=C(F)C=C1Br)C",
        "Molecular Formula": "C<sub>8</sub>H<sub>7</sub>BrFNO",
        "Molecular Mass": "232.05",
        "Melting Point": "119-120 °C"
    }
}