{
    "cas_no": "22395-24-0",
    "key_name": "2-(3,4-Dimethoxyphenyl)-7-methoxy-4<em>H</em>-1-benzopyran-4-one",
    "cn_name": null,
    "alternate_name": "4<em>H</em>-1-Benzopyran-4-one, 2-(3,4-dimethoxyphenyl)-7-methoxy-;Flavone, 3′,4′,7-trimethoxy-;2-(3,4-Dimethoxyphenyl)-7-methoxy-4<em>H</em>-1-benzopyran-4-one;3′,4′,7-Trimethoxyflavone;7,3′,4′-Trimethoxyflavone;2-(3,4-Dimethoxyphenyl)-7-methoxy-4<em>H</em>-chromen-4-one;2-(3,4-Dimethoxyphenyl)-7-methoxychromen-4-one",
    "duplicated_cas_no": "",
    "SMILES": "O=C1C=2C(OC(=C1)C3=CC(OC)=C(OC)C=C3)=CC(OC)=CC2",
    "meta_data": {
        "InChI": "InChI=1S/C18H16O5/c1-20-12-5-6-13-14(19)10-16(23-17(13)9-12)11-4-7-15(21-2)18(8-11)22-3/h4-10H,1-3H3",
        "InChIKey": null,
        "Canonical SMILES": "O=C1C=C(OC2=CC(OC)=CC=C12)C=3C=CC(OC)=C(OC)C3",
        "Molecular Formula": "C<sub>18</sub>H<sub>16</sub>O<sub>5</sub>",
        "Molecular Mass": "312.32",
        "Melting Point": "176 °C"
    }
}