{
    "cas_no": "2305-13-7",
    "key_name": "Dihydroconiferyl alcohol",
    "cn_name": "3-(4-羟基-3-甲氧基苯基)-1-丙醇;",
    "alternate_name": "Benzenepropanol, 4-hydroxy-3-methoxy-;1-Propanol, 3-(4-hydroxy-3-methoxyphenyl)-;4-Hydroxy-3-methoxybenzenepropanol;Coniferyl alcohol, dihydro-;Dihydroconiferyl alcohol;3-(<em>p</em>-Hydroxy-<em>m</em>-methoxyphenyl)-1-propanol;4-(3-Hydroxypropyl)-2-methoxyphenol;3-Guaiacyl-1-propanol;Guaiacyl-3-propanol;1-Guaiacyl-3-propanol;4-(γ-Hydroxypropyl)-2-methoxyphenol;3-(4-Hydroxy-3-methoxyphenyl)-1-propanol;3-(3-Methoxy-4-hydroxyphenyl)propanol;3-(4-Hydroxy-3-methoxyphenyl)propanol;NSC 4591;DHCA;3-(3-Methoxy-4-hydroxyphenyl)-1-propanol;4-Propanolguaiacol;4-(3-Hydroxypropyl)guaiacol",
    "duplicated_cas_no": "",
    "SMILES": "C(CCO)C1=CC(OC)=C(O)C=C1",
    "meta_data": {
        "InChI": "InChI=1S/C10H14O3/c1-13-10-7-8(3-2-6-11)4-5-9(10)12/h4-5,7,11-12H,2-3,6H2,1H3",
        "InChIKey": null,
        "Canonical SMILES": "OC1=CC=C(C=C1OC)CCCO",
        "Molecular Formula": "C<sub>10</sub>H<sub>14</sub>O<sub>3</sub>",
        "Molecular Mass": "182.22",
        "Boiling Point": "196 °C @ Press: 16 Torr",
        "Melting Point": "65 °C"
    }
}