{
    "cas_no": "707-60-8",
    "key_name": "4-Bromo-<em>N</em>,<em>N</em>-dimethylbenzenesulfonamide",
    "cn_name": "4-溴-N,N-二甲基苯磺胺;",
    "alternate_name": "Benzenesulfonamide, 4-bromo-<em>N</em>,<em>N</em>-dimethyl-;Benzenesulfonamide, <em>p</em>-bromo-<em>N</em>,<em>N</em>-dimethyl-;4-Bromo-<em>N</em>,<em>N</em>-dimethylbenzenesulfonamide;<em>p</em>-Bromo-<em>N</em>,<em>N</em>-dimethylbenzenesulfonamide;<em>N</em>,<em>N</em>-Dimethyl-4-bromobenzenesulfonamide;NSC 406130",
    "duplicated_cas_no": "",
    "SMILES": "S(N(C)C)(=O)(=O)C1=CC=C(Br)C=C1",
    "meta_data": {
        "InChI": "InChI=1S/C8H10BrNO2S/c1-10(2)13(11,12)8-5-3-7(9)4-6-8/h3-6H,1-2H3",
        "InChIKey": null,
        "Canonical SMILES": "O=S(=O)(C1=CC=C(Br)C=C1)N(C)C",
        "Molecular Formula": "C<sub>8</sub>H<sub>10</sub>BrNO<sub>2</sub>S",
        "Molecular Mass": "264.14",
        "Melting Point": "85-108 °C"
    }
}