{
    "cas_no": "69002-84-2",
    "key_name": "5-Hydroxydiclofenac",
    "cn_name": null,
    "alternate_name": "Benzeneacetic acid, 2-[(2,6-dichlorophenyl)amino]-5-hydroxy-;2-[(2,6-Dichlorophenyl)amino]-5-hydroxybenzeneacetic acid;5-Hydroxydiclofenac;2-[2-(2,6-Dichloroanilino)-5-hydroxyphenyl]acetic acid;2-(2-((2,6-Dichlorophenyl)amino)-5-hydroxyphenyl)acetic acid",
    "duplicated_cas_no": "",
    "SMILES": "N(C1=C(CC(O)=O)C=C(O)C=C1)C2=C(Cl)C=CC=C2Cl",
    "meta_data": {
        "InChI": "InChI=1S/C14H11Cl2NO3/c15-10-2-1-3-11(16)14(10)17-12-5-4-9(18)6-8(12)7-13(19)20/h1-6,17-18H,7H2,(H,19,20)",
        "InChIKey": null,
        "Canonical SMILES": "O=C(O)CC1=CC(O)=CC=C1NC=2C(Cl)=CC=CC2Cl",
        "Molecular Formula": "C<sub>14</sub>H<sub>11</sub>Cl<sub>2</sub>NO<sub>3</sub>",
        "Molecular Mass": "312.15",
        "Melting Point": "176-178 °C"
    }
}