{
    "cas_no": "7506-66-3",
    "key_name": "<em>rel</em>-(3a<em>R</em>,7a<em>S</em>)-Hexahydro-1<em>H</em>-isoindole-1,3(2<em>H</em>)-dione",
    "cn_name": "顺式环己-1,2-二甲酰亚胺;",
    "alternate_name": "1<em>H</em>-Isoindole-1,3(2<em>H</em>)-dione, hexahydro-, (3a<em>R</em>,7a<em>S</em>)-<em>rel</em>-;1,2-Cyclohexanedicarboximide, <em>cis</em>-;1<em>H</em>-Isoindole-1,3(2<em>H</em>)-dione, hexahydro-, <em>cis</em>-;<em>rel</em>-(3a<em>R</em>,7a<em>S</em>)-Hexahydro-1<em>H</em>-isoindole-1,3(2<em>H</em>)-dione;<em>cis</em>-1,2-Cyclohexanedicarboximide;<em>cis</em>-Hexahydro-1<em>H</em>-isoindole-1,3(2<em>H</em>)-dione;<em>cis</em>-Hexahydrophthalimide;<em>cis</em>-Perhydrophthalimide",
    "duplicated_cas_no": "1628167-84-9",
    "SMILES": "O=C1[C@@]2([C@](C(=O)N1)(CCCC2)[H])[H]",
    "meta_data": {
        "InChI": "InChI=1/C8H11NO2/c10-7-5-3-1-2-4-6(5)8(11)9-7/h5-6H,1-4H2,(H,9,10,11)/t5-,6+",
        "InChIKey": null,
        "Canonical SMILES": "O=C1NC(=O)C2CCCCC12",
        "Molecular Formula": "C<sub>8</sub>H<sub>11</sub>NO<sub>2</sub>",
        "Molecular Mass": "153.18",
        "Melting Point": "132 °C"
    }
}