{
    "cas_no": "7758-02-3",
    "key_name": "Potassium bromide",
    "cn_name": "溴化钾;",
    "alternate_name": "Potassium bromide (KBr);Potassium bromide;NSC 77367",
    "duplicated_cas_no": "59217-61-7",
    "SMILES": "Br[K]",
    "meta_data": {
        "InChI": "InChI=1S/BrH.K/h1H;/q;+1/p-1",
        "InChIKey": null,
        "Canonical SMILES": "[K]Br",
        "Molecular Formula": "BrK",
        "Molecular Mass": "",
        "Boiling Point": "1435 °C",
        "Melting Point": "730 °C",
        "Density": "2.75 g/cm³ @ Temp: 25 °C"
    }
}