{
    "cas_no": "58-05-9",
    "key_name": "Leucovorin",
    "cn_name": "亚叶酸;5-甲酰-5,6,7,8-四氢叶酸;",
    "alternate_name": "<span class=\"text-smallcaps\">L</span>-Glutamic acid, <em>N</em>-[4-[[(2-amino-5-formyl-3,4,5,6,7,8-hexahydro-4-oxo-6-pteridinyl)methyl]amino]benzoyl]-;Glutamic acid, <em>N</em>-[<em>p</em>-[[(2-amino-5-formyl-5,6,7,8-tetrahydro-4-hydroxy-6-pteridinyl)methyl]amino]benzoyl]-, <span class=\"text-smallcaps\">L</span>-;<span class=\"text-smallcaps\">L</span>-Glutamic acid, <em>N</em>-[4-[[(2-amino-5-formyl-1,4,5,6,7,8-hexahydro-4-oxo-6-pteridinyl)methyl]amino]benzoyl]-;<em>N</em>-[4-[[(2-Amino-5-formyl-3,4,5,6,7,8-hexahydro-4-oxo-6-pteridinyl)methyl]amino]benzoyl]-<span class=\"text-smallcaps\">L</span>-glutamic acid;Folinic acid;<em>N</em><sup>5</sup>-Formyl-5,6,7,8-tetrahydrofolic acid;5-Formyl-5,6,7,8-tetrahydrofolic acid;<em>N</em><sup>5</sup>-Formyltetrahydrofolic acid;Leucovorin;5-Formyltetrahydropteroylglutamic acid;Folinic acid-SF;Leucal;5-Formyltetrahydrofolic acid;<em>l</em>-Leucovorin;Welcovorin;Leucoverin;CF;(6<em>R</em>,<em>S</em>)-5-Formyltetrahydrofolate;Kunyrin;<em>N</em><sup>5</sup>-Formyl-THF;5-Formyl-(6<em>RS</em>)-tetrahydrofolic acid;MeSH ID: D002955",
    "duplicated_cas_no": "121521-95-7;641-41-8;3102-53-2;17435-36-8;33299-78-4;34786-59-9;40244-99-3",
    "SMILES": "C(=O)N1C2=C(NCC1CNC3=CC=C(C(N[C@@H](CCC(O)=O)C(O)=O)=O)C=C3)NC(N)=NC2=O",
    "meta_data": {
        "InChI": "InChI=1S/C20H23N7O7/c21-20-25-16-15(18(32)26-20)27(9-28)12(8-23-16)7-22-11-3-1-10(2-4-11)17(31)24-13(19(33)34)5-6-14(29)30/h1-4,9,12-13,22H,5-8H2,(H,24,31)(H,29,30)(H,33,34)(H4,21,23,25,26,32)/t12?,13-/m0/s1",
        "InChIKey": null,
        "Canonical SMILES": "O=CN1C=2C(=O)N=C(N)NC2NCC1CNC3=CC=C(C=C3)C(=O)NC(C(=O)O)CCC(=O)O",
        "Molecular Formula": "C<sub>20</sub>H<sub>23</sub>N<sub>7</sub>O<sub>7</sub>",
        "Molecular Mass": "473.44",
        "Melting Point": "245 °C (decomp)"
    }
}