{
    "cas_no": "943-45-3",
    "key_name": "Fibric acid",
    "cn_name": null,
    "alternate_name": "Propanoic acid, 2-methyl-2-phenoxy-;Propionic acid, 2-methyl-2-phenoxy-;2-Methyl-2-phenoxypropanoic acid;Phenoxy-α-isobutyric acid;2-Phenoxy-2-methylpropionic acid;Phenoxyisobutyric acid;2-Phenoxyisobutyric acid;2,2-Dimethylphenoxyacetic acid;2,2-Dimethyl-2-phenoxyacetic acid;Fibric acid;NSC 34010;2-Phenoxy-2,2-dimethyl acetic acid",
    "duplicated_cas_no": "19128-87-1;19128-86-0",
    "SMILES": "O(C(C(O)=O)(C)C)C1=CC=CC=C1",
    "meta_data": {
        "InChI": "InChI=1S/C10H12O3/c1-10(2,9(11)12)13-8-6-4-3-5-7-8/h3-7H,1-2H3,(H,11,12)",
        "InChIKey": null,
        "Canonical SMILES": "O=C(O)C(OC=1C=CC=CC1)(C)C",
        "Molecular Formula": "C<sub>10</sub>H<sub>12</sub>O<sub>3</sub>",
        "Molecular Mass": "180.20",
        "Melting Point": "97-98 °C"
    }
}