{
    "cas_no": "20838-44-2",
    "key_name": "3-Nitrophenyl β-<span class=\"text-smallcaps\">D</span>-glucopyranoside",
    "cn_name": null,
    "alternate_name": "β-<span class=\"text-smallcaps\">D</span>-Glucopyranoside, 3-nitrophenyl;Glucopyranoside, <em>m</em>-nitrophenyl, β-<span class=\"text-smallcaps\">D</span>-;3-Nitrophenyl β-<span class=\"text-smallcaps\">D</span>-glucopyranoside;<em>m</em>-Nitrophenyl β-<span class=\"text-smallcaps\">D</span>-glucopyranoside;β-[<em>m</em>-Nitrophenyl]-<span class=\"text-smallcaps\">D</span>-glucopyranoside;3-Nitrophenyl β-<span class=\"text-smallcaps\">D</span>-glucoside",
    "duplicated_cas_no": "",
    "SMILES": "O([C@H]1[C@H](O)[C@@H](O)[C@H](O)[C@@H](CO)O1)C2=CC(N(=O)=O)=CC=C2",
    "meta_data": {
        "InChI": "InChI=1S/C12H15NO8/c14-5-8-9(15)10(16)11(17)12(21-8)20-7-3-1-2-6(4-7)13(18)19/h1-4,8-12,14-17H,5H2/t8-,9-,10+,11-,12-/m1/s1",
        "InChIKey": null,
        "Canonical SMILES": "O=N(=O)C=1C=CC=C(OC2OC(CO)C(O)C(O)C2O)C1",
        "Molecular Formula": "C<sub>12</sub>H<sub>15</sub>NO<sub>8</sub>",
        "Molecular Mass": "301.25",
        "Melting Point": "171-172 °C"
    }
}