{
    "cas_no": "70918-74-0",
    "key_name": "Methanone, (2,3-dihydro-1,4-benzodioxin-2-yl)-1-piperazinyl-, hydrochloride (1:1)",
    "cn_name": "N-[(1,4-苯并二噁烷-2-基)羰基]哌嗪盐酸盐;",
    "alternate_name": "Methanone, (2,3-dihydro-1,4-benzodioxin-2-yl)-1-piperazinyl-, hydrochloride (1:1);Piperazine, 1-[(2,3-dihydro-1,4-benzodioxin-2-yl)carbonyl]-, monohydrochloride;1,4-Benzodioxin, piperazine deriv.;1-(2,3-Dihydro-1,4-benzodioxin-2-ylcarbonyl)piperazine hydrochloride;1-(2,3-Dihydro-1,4-benzodioxine-2-carbonyl)piperazine hydrochloride",
    "duplicated_cas_no": "",
    "SMILES": "C(=O)(C1OC=2C(OC1)=CC=CC2)N3CCNCC3.Cl",
    "meta_data": {
        "InChI": "InChI=1S/C13H16N2O3.ClH/c16-13(15-7-5-14-6-8-15)12-9-17-10-3-1-2-4-11(10)18-12;/h1-4,12,14H,5-9H2;1H",
        "InChIKey": null,
        "Canonical SMILES": "Cl.O=C(N1CCNCC1)C2OC=3C=CC=CC3OC2",
        "Molecular Formula": "C<sub>13</sub>H<sub>16</sub>N<sub>2</sub>O<sub>3</sub>.ClH",
        "Molecular Mass": "",
        "Melting Point": "262-263 °C"
    }
}