{
    "cas_no": "1123-40-6",
    "key_name": "4,4-Dimethyl-2,6-piperidinedione",
    "cn_name": "3,3-二甲基戊二酰亚胺;4,4-二甲基-2,6-哌啶二酮;",
    "alternate_name": "2,6-Piperidinedione, 4,4-dimethyl-;Glutarimide, 3,3-dimethyl-;4,4-Dimethyl-2,6-piperidinedione;β,β-Dimethylglutarimide;4,4-Dimethylglutarimide;3,3-Dimethylglutarimide;NSC 58194;NSC 99206",
    "duplicated_cas_no": "1338727-72-2",
    "SMILES": "CC1(C)CC(=O)NC(=O)C1",
    "meta_data": {
        "InChI": "InChI=1S/C7H11NO2/c1-7(2)3-5(9)8-6(10)4-7/h3-4H2,1-2H3,(H,8,9,10)",
        "InChIKey": null,
        "Canonical SMILES": "O=C1NC(=O)CC(C)(C)C1",
        "Molecular Formula": "C<sub>7</sub>H<sub>11</sub>NO<sub>2</sub>",
        "Molecular Mass": "141.17",
        "Melting Point": "145-146 °C"
    }
}