{
    "cas_no": "2201-23-2",
    "key_name": "1-Phenylcyclohexanecarbonitrile",
    "cn_name": "1-苯基-1-环己基甲腈;1-苯基环己腈;",
    "alternate_name": "Cyclohexanecarbonitrile, 1-phenyl-;1-Phenylcyclohexanecarbonitrile;1-Phenylcyclohexanenitrile;NSC 106872;1-Phenyl-1-cyclohexanecarbonitrile;1-Phenylcyclohexane-1-carbonitrile",
    "duplicated_cas_no": "",
    "SMILES": "C(#N)C1(CCCCC1)C2=CC=CC=C2",
    "meta_data": {
        "InChI": "InChI=1S/C13H15N/c14-11-13(9-5-2-6-10-13)12-7-3-1-4-8-12/h1,3-4,7-8H,2,5-6,9-10H2",
        "InChIKey": null,
        "Canonical SMILES": "N#CC1(C=2C=CC=CC2)CCCCC1",
        "Molecular Formula": "C<sub>13</sub>H<sub>15</sub>N",
        "Molecular Mass": "185.26",
        "Boiling Point": "125-127 °C @ Press: 3 Torr"
    }
}