{
    "cas_no": "24169-02-6",
    "key_name": "Econazole nitrate",
    "cn_name": "硝酸益康唑;1-[2,4-二氯-2-(4-氯苄氧基)苯乙基]咪唑硝酸盐;",
    "alternate_name": "1<em>H</em>-Imidazole, 1-[2-[(4-chlorophenyl)methoxy]-2-(2,4-dichlorophenyl)ethyl]-, nitrate (1:1);Imidazole, 1-[2,4-dichloro-β-[(<em>p</em>-chlorobenzyl)oxy]phenethyl]-, mononitrate;1<em>H</em>-Imidazole, 1-[2-[(4-chlorophenyl)methoxy]-2-(2,4-dichlorophenyl)ethyl]-, mononitrate;1<em>H</em>-Imidazole, 1-[2-[(4-chlorophenyl)methoxy]-2-(2,4-dichlorophenyl)ethyl]-, (±)-, mononitrate;Econazole nitrate;R 14827;1-[2-(4-Chlorobenzyloxy)-2-(2,4-dichlorophenyl)ethyl]imidazole nitrate;Pevaryl;(±)-Econazole nitrate;Spectazole;Pargin;Epi-Pevaryl;Ifenec;Ecostatin;Micogin;SQ 13050;Gyno-Pevaril;Palavale;Micofugal;NSC 243115;Gynoryl",
    "duplicated_cas_no": "68797-31-9",
    "SMILES": "C(CN1C=CN=C1)(OCC2=CC=C(Cl)C=C2)C3=C(Cl)C=C(Cl)C=C3.N(=O)(=O)O",
    "meta_data": {
        "InChI": "InChI=1S/C18H15Cl3N2O.HNO3/c19-14-3-1-13(2-4-14)11-24-18(10-23-8-7-22-12-23)16-6-5-15(20)9-17(16)21;2-1(3)4/h1-9,12,18H,10-11H2;(H,2,3,4)",
        "InChIKey": null,
        "Canonical SMILES": "O=N(=O)O.ClC1=CC=C(C=C1)COC(C2=CC=C(Cl)C=C2Cl)CN3C=NC=C3",
        "Molecular Formula": "C<sub>18</sub>H<sub>15</sub>Cl<sub>3</sub>N<sub>2</sub>O.HNO<sub>3</sub>",
        "Molecular Mass": "",
        "Melting Point": "162 °C"
    }
}