{
    "cas_no": "17455-13-9",
    "key_name": "18-Crown-6",
    "cn_name": "18-冠醚-6;18-冠-6-醚;",
    "alternate_name": "1,4,7,10,13,16-Hexaoxacyclooctadecane;18-Crown-6 ether;Ethylene oxide cyclic hexamer;18-Crown-6;18C6;18-Crown ether-6;NSC 159836;Coronand 18C6;Crown Ether O 18;30243D",
    "duplicated_cas_no": "134316-24-8;63172-42-9;65154-22-5;66037-87-4;71210-94-1;71211-03-5;71245-01-7;71251-38-2;71251-42-8;71251-39-3;168081-58-1",
    "SMILES": "C1COCCOCCOCCOCCOCCO1",
    "meta_data": {
        "InChI": "InChI=1S/C12H24O6/c1-2-14-5-6-16-9-10-18-12-11-17-8-7-15-4-3-13-1/h1-12H2",
        "InChIKey": null,
        "Canonical SMILES": "O1CCOCCOCCOCCOCCOCC1",
        "Molecular Formula": "C<sub>12</sub>H<sub>24</sub>O<sub>6</sub>",
        "Molecular Mass": "264.32",
        "Boiling Point": "264 °C @ Press: 33 Torr",
        "Melting Point": "39 °C",
        "Density": "1.237 g/cm³"
    }
}