{
    "cas_no": "607-86-3",
    "key_name": "Benzoic acid, 2-methyl-, 1,1′-anhydride",
    "cn_name": null,
    "alternate_name": "Benzoic acid, 2-methyl-, 1,1′-anhydride;<em>o</em>-Toluic anhydride;Benzoic acid, 2-methyl-, anhydride;<em>o</em>-Toluic acid anhydride;2-Methylbenzoic anhydride;2-Methylbenzoic acid anhydride;(2-Methylbenzoyl) 2-methylbenzoate",
    "duplicated_cas_no": "",
    "SMILES": "C(OC(=O)C1=C(C)C=CC=C1)(=O)C2=C(C)C=CC=C2",
    "meta_data": {
        "InChI": "InChI=1S/C16H14O3/c1-11-7-3-5-9-13(11)15(17)19-16(18)14-10-6-4-8-12(14)2/h3-10H,1-2H3",
        "InChIKey": null,
        "Canonical SMILES": "O=C(OC(=O)C=1C=CC=CC1C)C=2C=CC=CC2C",
        "Molecular Formula": "C<sub>16</sub>H<sub>14</sub>O<sub>3</sub>",
        "Molecular Mass": "254.28",
        "Melting Point": "30-37 °C"
    }
}