{
    "cas_no": "18060-79-2",
    "key_name": "4-Pentenyl isothiocyanate",
    "cn_name": "4-戊烯基异硫氰酸酯;",
    "alternate_name": "1-Pentene, 5-isothiocyanato-;Isothiocyanic acid, 4-pentenyl ester;5-Isothiocyanato-1-pentene;4-Pentenyl isothiocyanate",
    "duplicated_cas_no": "",
    "SMILES": "C(CN=C=S)CC=C",
    "meta_data": {
        "InChI": "InChI=1S/C6H9NS/c1-2-3-4-5-7-6-8/h2H,1,3-5H2",
        "InChIKey": null,
        "Canonical SMILES": "S=C=NCCCC=C",
        "Molecular Formula": "C<sub>6</sub>H<sub>9</sub>NS",
        "Molecular Mass": "127.21",
        "Boiling Point": "12 °C @ Press: 75 Torr"
    }
}