{
    "cas_no": "10075-50-0",
    "key_name": "5-Bromoindole",
    "cn_name": "5-溴吲哚;",
    "alternate_name": "1<em>H</em>-Indole, 5-bromo-;Indole, 5-bromo-;5-Bromo-1<em>H</em>-indole;5-Bromoindole;NSC 75581",
    "duplicated_cas_no": "",
    "SMILES": "BrC=1C=C2C(=CC1)NC=C2",
    "meta_data": {
        "InChI": "InChI=1S/C8H6BrN/c9-7-1-2-8-6(5-7)3-4-10-8/h1-5,10H",
        "InChIKey": null,
        "Canonical SMILES": "BrC=1C=CC=2NC=CC2C1",
        "Molecular Formula": "C<sub>8</sub>H<sub>6</sub>BrN",
        "Molecular Mass": "196.04",
        "Melting Point": "90-92 °C"
    }
}