{
    "cas_no": "15441-07-3",
    "key_name": "Propanoic acid, 3-(chlorosulfonyl)-, methyl ester",
    "cn_name": null,
    "alternate_name": "Propanoic acid, 3-(chlorosulfonyl)-, methyl ester;Propionic acid, 3-(chlorosulfonyl)-, methyl ester;2-Methoxycarbonylethanesulfonyl chloride;Methyl 3-chlorosulfonylpropionate;Methyl 3-chlorosulfonylpropanoate;3-Chlorosulfonylpropionic acid methyl ester;3-Methoxy-3-oxopropanesulfonyl chloride",
    "duplicated_cas_no": "",
    "SMILES": "C(C(OC)=O)CS(Cl)(=O)=O",
    "meta_data": {
        "InChI": "InChI=1S/C4H7ClO4S/c1-9-4(6)2-3-10(5,7)8/h2-3H2,1H3",
        "InChIKey": null,
        "Canonical SMILES": "O=C(OC)CCS(=O)(=O)Cl",
        "Molecular Formula": "C<sub>4</sub>H<sub>7</sub>ClO<sub>4</sub>S",
        "Molecular Mass": "186.61",
        "Boiling Point": "110-113 °C @ Press: 4 Torr"
    }
}