{
    "cas_no": "718-64-9",
    "key_name": "α,α-Bis(trifluoromethyl)benzenemethanol",
    "cn_name": "1,1,1,3,3,3-六氟代-2-苯基-2-丙醇;",
    "alternate_name": "Benzenemethanol, α,α-bis(trifluoromethyl)-;Benzyl alcohol, α,α-bis(trifluoromethyl)-;α,α-Bis(trifluoromethyl)benzenemethanol;Hexafluoro-2-phenyl-2-propanol;1,1,1,3,3,3-Hexafluoro-2-phenyl-2-propanol;Bis(trifluoromethyl)phenylcarbinol;(2-Hydroxyhexafluoro-2-propyl)benzene;Bis(trifluoromethyl)benzyl alcohol;1,3-Bis(1,1,1,3,3,3-hexafluoro-2-hydroxy-2-propyl)benzene;Hexafluoro-2-phenylisopropanol;1-Phenyl-2,2,2-trifluoro-1-trifluoromethylethanol;α,α-Bis(trifluoromethyl)benzyl alcohol;2-Phenyl-1,1,1,3,3,3-hexafluoropropan-2-ol;(Hexafluoro-2-hydroxyisopropyl)benzene",
    "duplicated_cas_no": "",
    "SMILES": "C(C(F)(F)F)(C(F)(F)F)(O)C1=CC=CC=C1",
    "meta_data": {
        "InChI": "InChI=1S/C9H6F6O/c10-8(11,12)7(16,9(13,14)15)6-4-2-1-3-5-6/h1-5,16H",
        "InChIKey": null,
        "Canonical SMILES": "FC(F)(F)C(O)(C=1C=CC=CC1)C(F)(F)F",
        "Molecular Formula": "C<sub>9</sub>H<sub>6</sub>F<sub>6</sub>O",
        "Molecular Mass": "244.13",
        "Boiling Point": "160 °C",
        "Density": "1.4510 g/cm³ @ Temp: 20 °C"
    }
}