{
    "cas_no": "58539-65-4",
    "key_name": "2-Methyl-3-pyridinecarboxamide",
    "cn_name": null,
    "alternate_name": "3-Pyridinecarboxamide, 2-methyl-;2-Methyl-3-pyridinecarboxamide;2-Methylnicotinamide;2-Methylpyridine-3-carboxamide",
    "duplicated_cas_no": "",
    "SMILES": "C(N)(=O)C1=C(C)N=CC=C1",
    "meta_data": {
        "InChI": "InChI=1S/C7H8N2O/c1-5-6(7(8)10)3-2-4-9-5/h2-4H,1H3,(H2,8,10)",
        "InChIKey": null,
        "Canonical SMILES": "O=C(N)C1=CC=CN=C1C",
        "Molecular Formula": "C<sub>7</sub>H<sub>8</sub>N<sub>2</sub>O",
        "Molecular Mass": "136.15",
        "Melting Point": "158 °C"
    }
}