{
    "cas_no": "1112-39-6",
    "key_name": "Dimethoxydimethylsilane",
    "cn_name": "二甲基二甲氧基硅烷;二甲氧基二甲基硅烷;",
    "alternate_name": "Silane, dimethoxydimethyl-;Dimethoxydimethylsilane;Dimethyldimethoxysilane;KBM 22;TSL 8117;AY 43-004;TSL 8112;LS 520;NSC 93882;DMDMOS;Z 6329;D 1052;DP 321;CG 112;CG 112 (coupling agent);OFS 6194;Xiameter OFS 6194;FD 371;KH 2121;Dowsil Z 6329;DMeDMS",
    "duplicated_cas_no": "103735-12-2",
    "SMILES": "[Si](OC)(OC)(C)C",
    "meta_data": {
        "InChI": "InChI=1S/C4H12O2Si/c1-5-7(3,4)6-2/h1-4H3",
        "InChIKey": null,
        "Canonical SMILES": "O(C)[Si](OC)(C)C",
        "Molecular Formula": "C<sub>4</sub>H<sub>12</sub>O<sub>2</sub>Si",
        "Molecular Mass": "120.22",
        "Boiling Point": "82 °C",
        "Melting Point": "-80 °C",
        "Density": "0.864 g/cm³"
    }
}