{
    "cas_no": "14205-46-0",
    "key_name": "2-Butenoic acid, 3-amino-, 1-methylethyl ester",
    "cn_name": null,
    "alternate_name": "2-Butenoic acid, 3-amino-, 1-methylethyl ester;Crotonic acid, 3-amino-, isopropyl ester;Isopropyl β-aminocrotonate;Isopropyl 3-aminocrotonate;1-Methylethyl 3-amino-2-butenoate;1-Methylethyl 3-aminocrotonate;Isopropyl 3-amino-2-butenoate;3-Aminocrotonic acid isopropyl ester",
    "duplicated_cas_no": "117751-91-4",
    "SMILES": "C(C(OC(C)C)=O)=C(C)N",
    "meta_data": {
        "InChI": "InChI=1S/C7H13NO2/c1-5(2)10-7(9)4-6(3)8/h4-5H,8H2,1-3H3",
        "InChIKey": null,
        "Canonical SMILES": "O=C(OC(C)C)C=C(N)C",
        "Molecular Formula": "C<sub>7</sub>H<sub>13</sub>NO<sub>2</sub>",
        "Molecular Mass": "143.18",
        "Boiling Point": "80 °C @ Press: 1 Torr"
    }
}