{
    "cas_no": "81103-11-9",
    "key_name": "Clarithromycin",
    "cn_name": "克拉霉素;甲氧基红霉素;",
    "alternate_name": "Erythromycin, 6-<em>O</em>-methyl-;Oxacyclotetradecane, erythromycin deriv.;6-<em>O</em>-Methylerythromycin;A 56268;Antibiotic TE 31;Antibiotic A 56268;6-<em>O</em>-Methylerythromycin A;Clarithromycin;TE 031;Biaxin;Klacid;Fromilid;Kelamycin;Clamicin;Veclam;Klaricid;Naxy;Zeclar;Macladin;Clathromycin;Abbott 56268;Claris;Fascar;Crixan;Clarithro;Claric;BIAXIN XL;Clarith;Claritek;Klaribac;Klarithran MR;CRIXAN OD;Klarimix;Klabax;Claridar;CLARIPEN;MeSH ID: D017291",
    "duplicated_cas_no": "108599-07-1;1240384-19-3;2089627-44-9;2243310-63-4",
    "SMILES": "O([C@H]1[C@@](OC)(C)C[C@@H](C)C(=O)[C@H](C)[C@@H](O)[C@](C)(O)[C@@H](CC)OC(=O)[C@H](C)[C@@H](O[C@H]2C[C@](OC)(C)[C@@H](O)[C@H](C)O2)[C@@H]1C)[C@H]3[C@H](O)[C@@H](N(C)C)C[C@@H](C)O3",
    "meta_data": {
        "InChI": "InChI=1S/C38H69NO13/c1-15-26-38(10,45)31(42)21(4)28(40)19(2)17-37(9,47-14)33(52-35-29(41)25(39(11)12)16-20(3)48-35)22(5)30(23(6)34(44)50-26)51-27-18-36(8,46-13)32(43)24(7)49-27/h19-27,29-33,35,41-43,45H,15-18H2,1-14H3/t19-,20-,21+,22+,23-,24+,25+,26-,27+,29-,30+,31-,32+,33-,35+,36-,37-,38-/m1/s1",
        "InChIKey": null,
        "Canonical SMILES": "O=C1OC(CC)C(O)(C)C(O)C(C(=O)C(C)CC(OC)(C)C(OC2OC(C)CC(N(C)C)C2O)C(C)C(OC3OC(C)C(O)C(OC)(C)C3)C1C)C",
        "Molecular Formula": "C<sub>38</sub>H<sub>69</sub>NO<sub>13</sub>",
        "Molecular Mass": "747.95",
        "Melting Point": "220 °C (decomp)"
    }
}