{
    "cas_no": "131-56-6",
    "key_name": "2,4-Dihydroxybenzophenone",
    "cn_name": "2,4-二羟二苯甲酮;紫外线吸收剂UV-0;",
    "alternate_name": "Methanone, (2,4-dihydroxyphenyl)phenyl-;Benzophenone, 2,4-dihydroxy-;(2,4-Dihydroxyphenyl)phenylmethanone;Uvinul 400;2,4-Dihydroxybenzophenone;Eastman inhibitor DHPB;UF 1;UV 12;Benzoresorcinol;Advastab 48;Benzophenone 1;4-Benzoylresorcinol;Inhibitor DHBP;Uvistat 12;Resbenzophenone;HHB;Dastib 263;Seesorb 100;Sumisorb 100;NC 011;Aduvex 12;ASL 23;Viosorb 100;Ultrafast 800;Syntase 100;Uvinul M 400;Uvinul 3000;Lowilite 24;Sanduvor 3041;NSC 38555;NSC 5358;UV 214;Eversorb 10;Uvasorb 20H;UV 0;Zislizer;UV-O;UV 214 (UV absorber);BP 1;CD 113500;Misorb UV 0",
    "duplicated_cas_no": "120920-25-4;1341-53-3;73468-18-5;86280-86-6;92092-63-2;895160-29-9",
    "SMILES": "C(=O)(C1=C(O)C=C(O)C=C1)C2=CC=CC=C2",
    "meta_data": {
        "InChI": "InChI=1S/C13H10O3/c14-10-6-7-11(12(15)8-10)13(16)9-4-2-1-3-5-9/h1-8,14-15H",
        "InChIKey": null,
        "Canonical SMILES": "O=C(C=1C=CC=CC1)C2=CC=C(O)C=C2O",
        "Molecular Formula": "C<sub>13</sub>H<sub>10</sub>O<sub>3</sub>",
        "Molecular Mass": "214.22",
        "Boiling Point": "194 °C @ Press: 1 Torr",
        "Melting Point": "142 °C"
    }
}