{
    "cas_no": "3171-45-7",
    "key_name": "4,5-Dimethyl-1,2-phenylenediamine",
    "cn_name": "4,5-二甲基-1,2-邻苯二胺;4,5-二甲基-1,2-苯二胺;",
    "alternate_name": "1,2-Benzenediamine, 4,5-dimethyl-;<em>o</em>-Phenylenediamine, 4,5-dimethyl-;4,5-Dimethyl-1,2-benzenediamine;4,5-Diamino-<em>o</em>-xylene;1,2-Dimethyl-4,5-diaminobenzene;4,5-Dimethyl-<em>o</em>-phenylenediamine;4,5-Diamino-1,2-dimethylbenzene;<em>o</em>-Xylene-4,5-diamine;1,2-Diamino-4,5-dimethylbenzene;4,5-Dimethyl-1,2-phenylenediamine;4,5-Dimethyl-1,2-diaminobenzene;2,3-Diamino-5,6-dimethylbenzene;2-Amino-4,5-dimethylaniline;NSC 12978",
    "duplicated_cas_no": "",
    "SMILES": "CC1=C(C)C=C(N)C(N)=C1",
    "meta_data": {
        "InChI": "InChI=1S/C8H12N2/c1-5-3-7(9)8(10)4-6(5)2/h3-4H,9-10H2,1-2H3",
        "InChIKey": null,
        "Canonical SMILES": "NC=1C=C(C(=CC1N)C)C",
        "Molecular Formula": "C<sub>8</sub>H<sub>12</sub>N<sub>2</sub>",
        "Molecular Mass": "136.19",
        "Melting Point": "133 °C"
    }
}