{
    "cas_no": "32832-01-2",
    "key_name": "Cholesteryl 2,4-dichlorobenzoate",
    "cn_name": "胆甾烯基2,4-二氯苯甲酸酯;",
    "alternate_name": "Cholest-5-en-3-ol (3β)-, 3-(2,4-dichlorobenzoate);Cholesterol, 2,4-dichlorobenzoate;Cholest-5-en-3-ol (3β)-, 2,4-dichlorobenzoate;Cholesteryl 2,4-dichlorobenzoate",
    "duplicated_cas_no": "",
    "SMILES": "C[C@@]12[C@@]3([C@]([C@]4([C@](C)(CC3)[C@@]([C@@H](CCCC(C)C)C)(CC4)[H])[H])(CC=C1C[C@@H](OC(=O)C5=C(Cl)C=C(Cl)C=C5)CC2)[H])[H]",
    "meta_data": {
        "InChI": "InChI=1S/C34H48Cl2O2/c1-21(2)7-6-8-22(3)28-13-14-29-26-11-9-23-19-25(38-32(37)27-12-10-24(35)20-31(27)36)15-17-33(23,4)30(26)16-18-34(28,29)5/h9-10,12,20-22,25-26,28-30H,6-8,11,13-19H2,1-5H3/t22-,25+,26+,28-,29+,30+,33+,34-/m1/s1",
        "InChIKey": null,
        "Canonical SMILES": "O=C(OC1CC2=CCC3C(CCC4(C)C(CCC34)C(C)CCCC(C)C)C2(C)CC1)C5=CC=C(Cl)C=C5Cl",
        "Molecular Formula": "C<sub>34</sub>H<sub>48</sub>Cl<sub>2</sub>O<sub>2</sub>",
        "Molecular Mass": "559.65",
        "Melting Point": "133.7 °C"
    }
}