{
    "cas_no": "7601-89-0",
    "key_name": "Sodium perchlorate",
    "cn_name": "高氯酸钠;",
    "alternate_name": "Perchloric acid, sodium salt (1:1);Perchloric acid, sodium salt;Sodium perchlorate;CPL 46;Irenat;CL 500;CL 510;MP 100;MP 100 (perchlorate);CX 1;CX 1 (perchlorate)",
    "duplicated_cas_no": "885623-96-1;1037073-67-8;1154032-84-4;1217793-67-3;1234553-43-5;1491161-91-1;2415964-78-0;2588541-90-4;2883459-57-0",
    "SMILES": "Cl(=O)(=O)(=O)O.[Na]",
    "meta_data": {
        "InChI": "InChI=1S/ClHO4.Na/c2-1(3,4)5;/h(H,2,3,4,5);",
        "InChIKey": null,
        "Canonical SMILES": "[Na].O=Cl(=O)(=O)O",
        "Molecular Formula": "ClHO<sub>4</sub>.Na",
        "Molecular Mass": "",
        "Melting Point": "480 °C (decomp)",
        "Density": "2.52 g/cm³"
    }
}