{
    "cas_no": "2199-87-3",
    "key_name": "6-Bromo-2-oxo-2<em>H</em>-chromene-3-carboxylic acid",
    "cn_name": "6-溴香豆素-3-甲酸;",
    "alternate_name": "2<em>H</em>-1-Benzopyran-3-carboxylic acid, 6-bromo-2-oxo-;6-Bromo-2-oxo-2<em>H</em>-1-benzopyran-3-carboxylic acid;6-Bromo-2-oxo-2<em>H</em>-chromene-3-carboxylic acid;6-Bromo-3-carboxycoumarin;6-Bromocoumarin-3-carboxylic acid;UBP 608",
    "duplicated_cas_no": "",
    "SMILES": "C(O)(=O)C1=CC=2C(OC1=O)=CC=C(Br)C2",
    "meta_data": {
        "InChI": "InChI=1S/C10H5BrO4/c11-6-1-2-8-5(3-6)4-7(9(12)13)10(14)15-8/h1-4H,(H,12,13)",
        "InChIKey": null,
        "Canonical SMILES": "O=C(O)C1=CC=2C=C(Br)C=CC2OC1=O",
        "Molecular Formula": "C<sub>10</sub>H<sub>5</sub>BrO<sub>4</sub>",
        "Molecular Mass": "269.05",
        "Melting Point": "200 °C"
    }
}