{
    "cas_no": "548-62-9",
    "key_name": "Crystal violet",
    "cn_name": "结晶紫;甲基紫;龙胆紫;碱性紫3;",
    "alternate_name": "Methanaminium, <em>N</em>-[4-[bis[4-(dimethylamino)phenyl]methylene]-2,5-cyclohexadien-1-ylidene]-<em>N</em>-methyl-, chloride (1:1);C.I. Basic Violet 3;Methanaminium, <em>N</em>-[4-[bis[4-(dimethylamino)phenyl]methylene]-2,5-cyclohexadien-1-ylidene]-<em>N</em>-methyl-, chloride;C.I. 42555;Adergon;Aizen Crystal Violet;Aizen Crystal Violet Extra Pure;Aniline violet pyoktanine;Axuris;Badil;Basic Violet BN;Calcozine Violet C;Calcozine Violet 6BN;Crystal Violet 5BO;Crystal Violet 6BO;Crystal Violet AO;Crystal Violet AON;Crystal Violet BPC;Crystal Violet chloride;Crystal Violet Extra Pure;Crystal Violet Extra Pure APN;Crystal Violet Extra Pure APNX;Crystal Violet FN;Crystal Violet HL 2;Crystal Violet Pure DSC;Crystal Violet Pure DSC Brilliant;Crystal Violet SS;Crystal Violet Technical;Crystal Violet USP;Crystal Violet O;Crystal Violet 6B;Crystal Violet 10B;Gentersal;Gentiaverm;Hectograph Violet SR;Hecto Violet R;Hexamethylpararosaniline chloride;Hexamethyl-<em>p</em>-rosaniline chloride;Hidaco Brilliant Crystal Violet;Methylrosaniline chloride;Methyl Violet 5BNO;Methyl Violet 5BO;Methyl Violet 10BO;Methyl Violet 10BD;Methyl Violet 10BK;Methyl Violet 10B;Methyl Violet 10BN;Mitsui Crystal Violet;Paper Blue R;Pararosaniline, <em>N</em>,<em>N</em>,<em>N</em>′,<em>N</em>′,<em>N</em>′′,<em>N</em>′′-hexamethyl-, chloride;Plastoresin Violet 5BO;Pyoktanin;Viocid;Violet 5BO;12416 Violet;Violet CP;Violet 6BN;Crystal Violet BP;Gentian violet;Crystal violet;Violet XXIII;Aniline violet;Meroxylan-Wander;Meroxyl-Wander;Vianin;Methyl Violet 10BNS;Basic Violet 3;Vermicid;Atmonil;Avermin;Genticid;Gentioletten;Oxiuran;Oxycolor;Oxyozyl;Hexamethyl violet;Methyl Violet 6B;Methyl Violet 6B (biological stain);Sanyo Fanal Violet R;Gentian Violet B;Basonyl Violet 610;Methylrosanilinium chloride;Meroxylan;Meroxyl;Aizen Crystal Violet Powder;Violet 612;Chlorohexamethylene-<em>p</em>-fuchsin;Keyazine Crystal Violet 6B",
    "duplicated_cas_no": "7077-31-8;23355-47-7",
    "SMILES": "C(C1=CC=C(N(C)C)C=C1)(C2=CC=C(N(C)C)C=C2)=C3C=CC(=[N+](C)C)C=C3.[Cl-]",
    "meta_data": {
        "InChI": "InChI=1S/C25H30N3.ClH/c1-26(2)22-13-7-19(8-14-22)25(20-9-15-23(16-10-20)27(3)4)21-11-17-24(18-12-21)28(5)6;/h7-18H,1-6H3;1H/q+1;/p-1",
        "InChIKey": null,
        "Canonical SMILES": "[Cl-].C=1C=C(C=CC1C(C2=CC=C(C=C2)N(C)C)=C3C=CC(C=C3)=[N+](C)C)N(C)C",
        "Molecular Formula": "C<sub>25</sub>H<sub>30</sub>N<sub>3</sub>.Cl",
        "Molecular Mass": "",
        "Melting Point": "205-215 °C (decomp)"
    }
}