{
    "cas_no": "4563-33-1",
    "key_name": "Phenylmethanesulfonamide",
    "cn_name": "苯甲磺酰胺;苄基磺酰胺;",
    "alternate_name": "Benzenemethanesulfonamide;α-Toluenesulfonamide;Phenylmethanesulfonamide;Benzylsulfonamide;1-Phenylmethanesulfonamide;Griltex PS 7200;NSC 28899;Alpha-toluenesulfonamide",
    "duplicated_cas_no": "",
    "SMILES": "C(S(N)(=O)=O)C1=CC=CC=C1",
    "meta_data": {
        "InChI": "InChI=1S/C7H9NO2S/c8-11(9,10)6-7-4-2-1-3-5-7/h1-5H,6H2,(H2,8,9,10)",
        "InChIKey": null,
        "Canonical SMILES": "O=S(=O)(N)CC=1C=CC=CC1",
        "Molecular Formula": "C<sub>7</sub>H<sub>9</sub>NO<sub>2</sub>S",
        "Molecular Mass": "171.22",
        "Melting Point": "102.5 °C"
    }
}