{
    "cas_no": "80734-02-7",
    "key_name": "4-Thia-1-azabicyclo[3.2.0]heptane-2-carboxylic acid, 6-[[(2<em>R</em>)-2-amino-2-phenylacetyl]amino]-3,3-dimethyl-7-oxo-, (5-methyl-2-oxo-1,3-dioxol-4-yl)methyl ester, hydrochloride (1:1), (2<em>S</em>,5<em>R</em>,6<em>R</em>)-",
    "cn_name": null,
    "alternate_name": "4-Thia-1-azabicyclo[3.2.0]heptane-2-carboxylic acid, 6-[[(2<em>R</em>)-2-amino-2-phenylacetyl]amino]-3,3-dimethyl-7-oxo-, (5-methyl-2-oxo-1,3-dioxol-4-yl)methyl ester, hydrochloride (1:1), (2<em>S</em>,5<em>R</em>,6<em>R</em>)-;4-Thia-1-azabicyclo[3.2.0]heptane-2-carboxylic acid, 6-[(aminophenylacetyl)amino]-3,3-dimethyl-7-oxo-, (5-methyl-2-oxo-1,3-dioxol-4-yl)methyl ester, monohydrochloride, [2<em>S</em>-[2α,5α,6β(<em>S</em>*)]]-;4-Thia-1-azabicyclo[3.2.0]heptane-2-carboxylic acid, 6-[[(2<em>R</em>)-aminophenylacetyl]amino]-3,3-dimethyl-7-oxo-, (5-methyl-2-oxo-1,3-dioxol-4-yl)methyl ester, monohydrochloride, (2<em>S</em>,5<em>R</em>,6<em>R</em>)-;1,3-Dioxole, 4-thia-1-azabicyclo[3.2.0]heptane-2-carboxylic acid deriv.;KB 1585;KBT 1585;Lenampicillin hydrochloride;Takacillin;Varacillin",
    "duplicated_cas_no": "87080-37-3",
    "SMILES": "C(OCC=1OC(=O)OC1C)(=O)[C@@H]2N3[C@@]([C@H](NC([C@H](N)C4=CC=CC=C4)=O)C3=O)(SC2(C)C)[H].Cl",
    "meta_data": {
        "InChI": "InChI=1S/C21H23N3O7S.ClH/c1-10-12(31-20(28)30-10)9-29-19(27)15-21(2,3)32-18-14(17(26)24(15)18)23-16(25)13(22)11-7-5-4-6-8-11;/h4-8,13-15,18H,9,22H2,1-3H3,(H,23,25);1H/t13-,14-,15+,18-;/m1./s1",
        "InChIKey": null,
        "Canonical SMILES": "Cl.O=C1OC(=C(O1)COC(=O)C2N3C(=O)C(NC(=O)C(N)C=4C=CC=CC4)C3SC2(C)C)C",
        "Molecular Formula": "C<sub>21</sub>H<sub>23</sub>N<sub>3</sub>O<sub>7</sub>S.ClH",
        "Molecular Mass": "",
        "Melting Point": "145 °C"
    }
}