{
    "cas_no": "26464-05-1",
    "key_name": "2-Bromo-3-methylbutanoyl bromide",
    "cn_name": "2-溴-3-甲基丁酰溴;",
    "alternate_name": "Butanoyl bromide, 2-bromo-3-methyl-;Butyryl bromide, 2-bromo-3-methyl-;2-Bromo-3-methylbutanoyl bromide;α-Bromoisovaleryl bromide;2-Bromo-3-methylbutyryl bromide",
    "duplicated_cas_no": "",
    "SMILES": "C(C(Br)=O)(C(C)C)Br",
    "meta_data": {
        "InChI": "InChI=1S/C5H8Br2O/c1-3(2)4(6)5(7)8/h3-4H,1-2H3",
        "InChIKey": null,
        "Canonical SMILES": "O=C(Br)C(Br)C(C)C",
        "Molecular Formula": "C<sub>5</sub>H<sub>8</sub>Br<sub>2</sub>O",
        "Molecular Mass": "243.92",
        "Boiling Point": "65-70 °C @ Press: 10 Torr"
    }
}