{
    "cas_no": "57912-35-3",
    "key_name": "<em>N</em>,<em>S</em>-Bis[(phenylmethoxy)carbonyl]-<span class=\"text-smallcaps\">L</span>-cysteine",
    "cn_name": "N,S-Di-Z-L-cysteine;",
    "alternate_name": "<span class=\"text-smallcaps\">L</span>-Cysteine, <em>N</em>,<em>S</em>-bis[(phenylmethoxy)carbonyl]-;<span class=\"text-smallcaps\">L</span>-Cysteine, <em>N</em>-[(phenylmethoxy)carbonyl]-, phenylmethyl carbonate (ester);Cysteine, <em>N</em>-carboxy-, <em>N</em>-benzyl ester, benzyl carbonate;<em>N</em>,<em>S</em>-Bis[(phenylmethoxy)carbonyl]-<span class=\"text-smallcaps\">L</span>-cysteine;<em>N</em>,<em>S</em>-Bis(benzyloxycarbonyl)-<span class=\"text-smallcaps\">L</span>-cysteine;NSC 88487;(R)-2-(((Benzyloxy)carbonyl)amino)-3-(((benzyloxy)carbonyl)thio)propanoic acid;(2R)-2-(Phenylmethoxycarbonylamino)-3-phenylmethoxycarbonylsulfanylpropanoic acid",
    "duplicated_cas_no": "",
    "SMILES": "C(OC(N[C@@H](CSC(OCC1=CC=CC=C1)=O)C(O)=O)=O)C2=CC=CC=C2",
    "meta_data": {
        "InChI": "InChI=1S/C19H19NO6S/c21-17(22)16(20-18(23)25-11-14-7-3-1-4-8-14)13-27-19(24)26-12-15-9-5-2-6-10-15/h1-10,16H,11-13H2,(H,20,23)(H,21,22)/t16-/m0/s1",
        "InChIKey": null,
        "Canonical SMILES": "O=C(OCC=1C=CC=CC1)SCC(NC(=O)OCC=2C=CC=CC2)C(=O)O",
        "Molecular Formula": "C<sub>19</sub>H<sub>19</sub>NO<sub>6</sub>S",
        "Molecular Mass": "389.42",
        "Melting Point": "97-98 °C"
    }
}