{
    "cas_no": "553-08-2",
    "key_name": "Thonzonium bromide",
    "cn_name": "嘧苯十六铵;",
    "alternate_name": "1-Hexadecanaminium, <em>N</em>-[2-[[(4-methoxyphenyl)methyl]-2-pyrimidinylamino]ethyl]-<em>N</em>,<em>N</em>-dimethyl-, bromide (1:1);Ammonium, hexadecyl[2-[(<em>p</em>-methoxybenzyl)-2-pyrimidinylamino]ethyl]dimethyl-, bromide;Hexadecyl[2-[(<em>p</em>-methoxybenzyl)-2-pyrimidinylamino]ethyl]dimethylammonium bromide;1-Hexadecanaminium, <em>N</em>-[2-[[(4-methoxyphenyl)methyl]-2-pyrimidinylamino]ethyl]-<em>N</em>,<em>N</em>-dimethyl-, bromide;NC 1264;Cetyl[2-[(<em>p</em>-methoxybenzyl)-2-pyrimidinylamino]ethyl]dimethylammonium bromide;<em>N</em>-(2-Pyrimidyl)-<em>N</em>-(<em>p</em>-methoxybenzyl)-<em>N</em>′,<em>N</em>′-dimethyl-<em>N</em>′-cetyl-<em>N</em>′-bromoethylenediamine;Thonzide;Thonzonium bromide;Tonzonium bromide",
    "duplicated_cas_no": "",
    "SMILES": "N(CC1=CC=C(OC)C=C1)(CC[N+](CCCCCCCCCCCCCCCC)(C)C)C=2N=CC=CN2.[Br-]",
    "meta_data": {
        "InChI": "InChI=1S/C32H55N4O.BrH/c1-5-6-7-8-9-10-11-12-13-14-15-16-17-18-27-36(2,3)28-26-35(32-33-24-19-25-34-32)29-30-20-22-31(37-4)23-21-30;/h19-25H,5-18,26-29H2,1-4H3;1H/q+1;/p-1",
        "InChIKey": null,
        "Canonical SMILES": "[Br-].N=1C=CC=NC1N(CC2=CC=C(OC)C=C2)CC[N+](C)(C)CCCCCCCCCCCCCCCC",
        "Molecular Formula": "C<sub>32</sub>H<sub>55</sub>N<sub>4</sub>O.Br",
        "Molecular Mass": "",
        "Melting Point": "91.5 °C"
    }
}