{
    "cas_no": "6051-87-2",
    "key_name": "β-Naphthoflavone",
    "cn_name": null,
    "alternate_name": "1<em>H</em>-Naphtho[2,1-<em>b</em>]pyran-1-one, 3-phenyl-;5,6-Benzoflavone;3-Phenyl-1<em>H</em>-naphtho[2,1-<em>b</em>]pyran-1-one;β-Naphthoflavone;NSC 136015;BNF;3-Phenyl-1<em>H</em>-benzo[<em>f</em>]chromen-1-one;3-Phenylbenzo[<em>f</em>]chromen-1-one",
    "duplicated_cas_no": "",
    "SMILES": "O=C1C2=C3C(=CC=C2OC(=C1)C4=CC=CC=C4)C=CC=C3",
    "meta_data": {
        "InChI": "InChI=1S/C19H12O2/c20-16-12-18(14-7-2-1-3-8-14)21-17-11-10-13-6-4-5-9-15(13)19(16)17/h1-12H",
        "InChIKey": null,
        "Canonical SMILES": "O=C1C=C(OC=2C=CC=3C=CC=CC3C12)C=4C=CC=CC4",
        "Molecular Formula": "C<sub>19</sub>H<sub>12</sub>O<sub>2</sub>",
        "Molecular Mass": "272.30",
        "Melting Point": "164-165 °C"
    }
}