{
    "cas_no": "43119-28-4",
    "key_name": "(3a<em>R</em>,6a<em>S</em>)-3,3a,6,6a-Tetrahydro-2<em>H</em>-cyclopenta[<em>b</em>]furan-2-one",
    "cn_name": null,
    "alternate_name": "2<em>H</em>-Cyclopenta[<em>b</em>]furan-2-one, 3,3a,6,6a-tetrahydro-, (3a<em>R</em>,6a<em>S</em>)-;2<em>H</em>-Cyclopenta[<em>b</em>]furan-2-one, 3,3a,6,6a-tetrahydro-, (3a<em>R</em>-<em>cis</em>)-;(3a<em>R</em>,6a<em>S</em>)-3,3a,6,6a-Tetrahydro-2<em>H</em>-cyclopenta[<em>b</em>]furan-2-one;(1<em>S</em>,5<em>R</em>)-2-Oxabicyclo[3.3.0]oct-6-en-3-one;(-)-(1<em>S</em>,5<em>R</em>)-2-Oxabicyclo[3.3.0]oct-6-en-3-one;(1S,5R)-2-Oxabicyclo[3.3.0]oct-6-en-3-one;(3aR,6aS)-3,3a,6,6a-tetrahydro-2<em>H</em>-cyclopenta[<em>b</em>]furan-2-one;(3<em>a</em>R,6<em>a</em>S)-3,3a,6,6a-Tetrahydrocyclopenta[<em>b</em>]furan-2-one;(-)-(1S,5R)-2-Oxabicyclo[3.3.0]oct-6-en-3-one",
    "duplicated_cas_no": "",
    "SMILES": "O=C1C[C@]2([C@@](O1)(CC=C2)[H])[H]",
    "meta_data": {
        "InChI": "InChI=1S/C7H8O2/c8-7-4-5-2-1-3-6(5)9-7/h1-2,5-6H,3-4H2/t5-,6-/m0/s1",
        "InChIKey": null,
        "Canonical SMILES": "O=C1OC2CC=CC2C1",
        "Molecular Formula": "C<sub>7</sub>H<sub>8</sub>O<sub>2</sub>",
        "Molecular Mass": "124.14",
        "Melting Point": "46.5 °C"
    }
}