{
    "cas_no": "452-83-5",
    "key_name": "2-Chloro-5-fluorobenzenamine",
    "cn_name": "2-氯-5-氟苯胺;",
    "alternate_name": "Benzenamine, 2-chloro-5-fluoro-;Aniline, 2-chloro-5-fluoro-;2-Chloro-5-fluorobenzenamine;2-Chloro-5-fluoroaniline;2-Chloro-5-fluoro-phenylamine",
    "duplicated_cas_no": "",
    "SMILES": "NC1=C(Cl)C=CC(F)=C1",
    "meta_data": {
        "InChI": "InChI=1S/C6H5ClFN/c7-5-2-1-4(8)3-6(5)9/h1-3H,9H2",
        "InChIKey": null,
        "Canonical SMILES": "FC1=CC=C(Cl)C(N)=C1",
        "Molecular Formula": "C<sub>6</sub>H<sub>5</sub>ClFN",
        "Molecular Mass": "145.56",
        "Boiling Point": "211 °C",
        "Melting Point": "26 °C"
    }
}