{
    "cas_no": "668-45-1",
    "key_name": "2-Chloro-6-fluorobenzonitrile",
    "cn_name": "2-氯-6-氟苯腈;",
    "alternate_name": "Benzonitrile, 2-chloro-6-fluoro-;2-Chloro-6-fluorobenzonitrile;2-Chloro-6-fluorocyanobenzene;2-Fluoro-6-chlorobenzonitrile",
    "duplicated_cas_no": "",
    "SMILES": "C(#N)C1=C(Cl)C=CC=C1F",
    "meta_data": {
        "InChI": "InChI=1S/C7H3ClFN/c8-6-2-1-3-7(9)5(6)4-10/h1-3H",
        "InChIKey": null,
        "Canonical SMILES": "N#CC=1C(F)=CC=CC1Cl",
        "Molecular Formula": "C<sub>7</sub>H<sub>3</sub>ClFN",
        "Molecular Mass": "155.56",
        "Melting Point": "56-59 °C"
    }
}