{
    "cas_no": "607-69-2",
    "key_name": "2-Chloro-4(3<em>H</em>)-quinazolinone",
    "cn_name": null,
    "alternate_name": "4(3<em>H</em>)-Quinazolinone, 2-chloro-;4(1<em>H</em>)-Quinazolinone, 2-chloro-;2-Chloro-4(3<em>H</em>)-quinazolinone;2-Chloro-4-quinazolinol;2-Chloro-4(1<em>H</em>)-quinazolinone;2-Chloro-3,4-dihydro-4-oxoquinazoline;2-Chloro-4-hydroxyquinazoline;2-Chloroquinazolin-4-one;2-Chloro-1,4-dihydroquinazolin-4-one;2-Chloro-1<em>H</em>-quinazolin-4-one;2-Chloro-3,4-dihydroquinazolin-4-one",
    "duplicated_cas_no": "",
    "SMILES": "O=C1C=2C(NC(Cl)=N1)=CC=CC2",
    "meta_data": {
        "InChI": "InChI=1S/C8H5ClN2O/c9-8-10-6-4-2-1-3-5(6)7(12)11-8/h1-4H,(H,10,11,12)",
        "InChIKey": null,
        "Canonical SMILES": "O=C1N=C(Cl)NC=2C=CC=CC12",
        "Molecular Formula": "C<sub>8</sub>H<sub>5</sub>ClN<sub>2</sub>O",
        "Molecular Mass": "180.59",
        "Melting Point": "218-220 °C"
    }
}