{
    "cas_no": "62437-99-4",
    "key_name": "2-Hydrazinopyridine dihydrochloride",
    "cn_name": null,
    "alternate_name": "Pyridine, 2-hydrazinyl-, hydrochloride (1:2);2(1<em>H</em>)-Pyridinone, hydrazone, dihydrochloride;2-Hydrazinopyridine dihydrochloride;2-Hydrazinylpyridine dihydrochloride",
    "duplicated_cas_no": "",
    "SMILES": "N(N)=C1C=CC=CN1.Cl",
    "meta_data": {
        "InChI": "InChI=1S/C5H7N3.2ClH/c6-8-5-3-1-2-4-7-5;;/h1-4H,6H2,(H,7,8);2*1H",
        "InChIKey": null,
        "Canonical SMILES": "Cl.N(N)=C1C=CC=CN1",
        "Molecular Formula": "C<sub>5</sub>H<sub>7</sub>N<sub>3</sub>.2ClH",
        "Molecular Mass": "",
        "Melting Point": "212-213 °C (decomp)"
    }
}