{
    "cas_no": "39515-47-4",
    "key_name": "α-Cyano-3-phenoxybenzyl alcohol",
    "cn_name": null,
    "alternate_name": "Benzeneacetonitrile, α-hydroxy-3-phenoxy-;α-Hydroxy-3-phenoxybenzeneacetonitrile;3-Phenoxy-α-cyanobenzyl alcohol;α-Cyano-<em>m</em>-phenoxybenzyl alcohol;3-Phenoxybenzaldehyde cyanohydrin;(<em>m</em>-Phenoxyphenyl)glycolonitrile;<em>m</em>-Phenoxymandelonitrile;α-Cyano-3-phenoxybenzyl alcohol;3-Phenoxymandelonitrile;<em>m</em>-Phenoxybenzaldehyde cyanohydrin;(±)-α-Cyano-3-phenoxybenzyl alcohol;(<em>RS</em>)-α-Cyano-3-phenoxybenzyl alcohol;2-Hydroxy-2-(3-phenoxyphenyl)acetonitrile",
    "duplicated_cas_no": "52315-06-7;66775-58-4",
    "SMILES": "O(C1=CC(C(C#N)O)=CC=C1)C2=CC=CC=C2",
    "meta_data": {
        "InChI": "InChI=1S/C14H11NO2/c15-10-14(16)11-5-4-8-13(9-11)17-12-6-2-1-3-7-12/h1-9,14,16H",
        "InChIKey": null,
        "Canonical SMILES": "N#CC(O)C=1C=CC=C(OC=2C=CC=CC2)C1",
        "Molecular Formula": "C<sub>14</sub>H<sub>11</sub>NO<sub>2</sub>",
        "Molecular Mass": "225.24",
        "Melting Point": "79 °C"
    }
}