{
    "cas_no": "548-82-3",
    "key_name": "Pinobanksin",
    "cn_name": null,
    "alternate_name": "4<em>H</em>-1-Benzopyran-4-one, 2,3-dihydro-3,5,7-trihydroxy-2-phenyl-, (2<em>R</em>,3<em>R</em>)-;Flavanone, 3,5,7-trihydroxy-;Pinobanksin;4<em>H</em>-1-Benzopyran-4-one, 2,3-dihydro-3,5,7-trihydroxy-2-phenyl-, (2<em>R</em>-<em>trans</em>)-;(2<em>R</em>,3<em>R</em>)-2,3-Dihydro-3,5,7-trihydroxy-2-phenyl-4<em>H</em>-1-benzopyran-4-one;Dihydrogalangin;3,5,7-Trihydroxyflavanone;(2<em>R</em>,3<em>R</em>)-Pinobanksin",
    "duplicated_cas_no": "96335-75-0;25843-82-7;253195-21-0;902458-07-5;910619-93-1",
    "SMILES": "O=C1C=2C(O[C@@H]([C@H]1O)C3=CC=CC=C3)=CC(O)=CC2O",
    "meta_data": {
        "InChI": "InChI=1S/C15H12O5/c16-9-6-10(17)12-11(7-9)20-15(14(19)13(12)18)8-4-2-1-3-5-8/h1-7,14-17,19H/t14-,15+/m0/s1",
        "InChIKey": null,
        "Canonical SMILES": "O=C1C=2C(O)=CC(O)=CC2OC(C=3C=CC=CC3)C1O",
        "Molecular Formula": "C<sub>15</sub>H<sub>12</sub>O<sub>5</sub>",
        "Molecular Mass": "272.25",
        "Melting Point": "173-175 °C"
    }
}