{
    "cas_no": "5395-79-9",
    "key_name": "4-Chloro-4′-methylbenzophenone",
    "cn_name": null,
    "alternate_name": "Methanone, (4-chlorophenyl)(4-methylphenyl)-;Benzophenone, 4-chloro-4′-methyl-;(4-Chlorophenyl)(4-methylphenyl)methanone;4-Chloro-4′-methylbenzophenone;4-Chlorophenyl 4-methylphenyl ketone;NSC 29;(4-Chlorophenyl)(<em>p</em>-tolyl)methanone",
    "duplicated_cas_no": "",
    "SMILES": "C(=O)(C1=CC=C(C)C=C1)C2=CC=C(Cl)C=C2",
    "meta_data": {
        "InChI": "InChI=1S/C14H11ClO/c1-10-2-4-11(5-3-10)14(16)12-6-8-13(15)9-7-12/h2-9H,1H3",
        "InChIKey": null,
        "Canonical SMILES": "O=C(C1=CC=C(Cl)C=C1)C2=CC=C(C=C2)C",
        "Molecular Formula": "C<sub>14</sub>H<sub>11</sub>ClO",
        "Molecular Mass": "230.69",
        "Melting Point": "128.5-129 °C"
    }
}