{
    "cas_no": "18979-60-7",
    "key_name": "4-Propylresorcinol",
    "cn_name": "4-丙基间苯二酚;4-丙基-1,3-苯二酚;",
    "alternate_name": "1,3-Benzenediol, 4-propyl-;Resorcinol, 4-propyl-;4-Propyl-1,3-benzenediol;4-<em>n</em>-Propylresorcinol;6-Propylresorcinol;4-Propylresorcinol",
    "duplicated_cas_no": "",
    "SMILES": "C(CC)C1=C(O)C=C(O)C=C1",
    "meta_data": {
        "InChI": "InChI=1S/C9H12O2/c1-2-3-7-4-5-8(10)6-9(7)11/h4-6,10-11H,2-3H2,1H3",
        "InChIKey": null,
        "Canonical SMILES": "OC1=CC=C(C(O)=C1)CCC",
        "Molecular Formula": "C<sub>9</sub>H<sub>12</sub>O<sub>2</sub>",
        "Molecular Mass": "152.19",
        "Melting Point": "82.5 °C"
    }
}