{
    "cas_no": "768-05-8",
    "key_name": "2-Pyrazinecarboxylic acid, hydrazide",
    "cn_name": "吡嗪-2-甲酰肼;",
    "alternate_name": "2-Pyrazinecarboxylic acid, hydrazide;Pyrazinecarboxylic acid, hydrazide;NSC 8810;Pyrazinylcarbonylhydrazine;Pyrazinoic acid hydrazide;2-(Hydrazinocarbonyl)pyrazine;Pyrazinecarbohydrazide;2-Pyrazinoyl hydrazide;NSC 88100;Idv 128;Pyrazinic acid hydrazide;Pyrazine-2-carboxylic hydrazide;Pyrazine-2-carbohydrazide",
    "duplicated_cas_no": "",
    "SMILES": "C(NN)(=O)C=1C=NC=CN1",
    "meta_data": {
        "InChI": "InChI=1S/C5H6N4O/c6-9-5(10)4-3-7-1-2-8-4/h1-3H,6H2,(H,9,10)",
        "InChIKey": null,
        "Canonical SMILES": "O=C(NN)C1=NC=CN=C1",
        "Molecular Formula": "C<sub>5</sub>H<sub>6</sub>N<sub>4</sub>O",
        "Molecular Mass": "138.13",
        "Melting Point": "169 °C"
    }
}