{
    "cas_no": "85614-43-3",
    "key_name": "Methyl 2-hydroxy-3-methoxy-5-(2-propen-1-yl)benzoate",
    "cn_name": "5-烯丙基-3-甲氧基水杨酸甲酯;",
    "alternate_name": "Benzoic acid, 2-hydroxy-3-methoxy-5-(2-propen-1-yl)-, methyl ester;Benzoic acid, 2-hydroxy-3-methoxy-5-(2-propenyl)-, methyl ester;Methyl 2-hydroxy-3-methoxy-5-(2-propen-1-yl)benzoate;Methyl 5-allyl-2-hydroxy-3-methoxybenzoate;Methyl 5-allyl-3-methoxysalicylate",
    "duplicated_cas_no": "",
    "SMILES": "C(OC)(=O)C1=C(O)C(OC)=CC(CC=C)=C1",
    "meta_data": {
        "InChI": "InChI=1S/C12H14O4/c1-4-5-8-6-9(12(14)16-3)11(13)10(7-8)15-2/h4,6-7,13H,1,5H2,2-3H3",
        "InChIKey": null,
        "Canonical SMILES": "O=C(OC)C1=CC(=CC(OC)=C1O)CC=C",
        "Molecular Formula": "C<sub>12</sub>H<sub>14</sub>O<sub>4</sub>",
        "Molecular Mass": "222.24",
        "Boiling Point": "173-174 °C @ Press: 12 Torr",
        "Melting Point": "55-55.5 °C"
    }
}