{
    "cas_no": "1798-11-4",
    "key_name": "(4-Nitrophenoxy)acetic acid",
    "cn_name": "4-硝基苯氧乙酸;对硝基苯氧乙酸;",
    "alternate_name": "Acetic acid, 2-(4-nitrophenoxy)-;Acetic acid, (<em>p</em>-nitrophenoxy)-;Acetic acid, (4-nitrophenoxy)-;2-(4-Nitrophenoxy)acetic acid;(<em>p</em>-Nitrophenoxy)acetic acid;Ba 2690;(4-Nitrophenoxy)acetic acid;α-(4-Nitrophenoxy)acetic acid;NSC 166278",
    "duplicated_cas_no": "2374889-61-7",
    "SMILES": "N(=O)(=O)C1=CC=C(OCC(O)=O)C=C1",
    "meta_data": {
        "InChI": "InChI=1S/C8H7NO5/c10-8(11)5-14-7-3-1-6(2-4-7)9(12)13/h1-4H,5H2,(H,10,11)",
        "InChIKey": null,
        "Canonical SMILES": "O=C(O)COC1=CC=C(C=C1)N(=O)=O",
        "Molecular Formula": "C<sub>8</sub>H<sub>7</sub>NO<sub>5</sub>",
        "Molecular Mass": "197.14",
        "Melting Point": "183 °C"
    }
}