{
    "cas_no": "626-93-7",
    "key_name": "(±)-2-Hexanol",
    "cn_name": null,
    "alternate_name": "2-Hexanol;2-Hydroxyhexane;(±)-2-Hexanol;<span class=\"text-smallcaps\">DL</span>-Hexan-2-ol;(±)-1-Methyl-1-pentanol;NSC 3706",
    "duplicated_cas_no": "20281-86-1",
    "SMILES": "C(C(C)O)CCC",
    "meta_data": {
        "InChI": "InChI=1S/C6H14O/c1-3-4-5-6(2)7/h6-7H,3-5H2,1-2H3",
        "InChIKey": null,
        "Canonical SMILES": "OC(C)CCCC",
        "Molecular Formula": "C<sub>6</sub>H<sub>14</sub>O",
        "Molecular Mass": "102.17",
        "Boiling Point": "136 °C",
        "Melting Point": "71-72 °C",
        "Density": "0.8 g/cm³"
    }
}