{
    "cas_no": "1193-24-4",
    "key_name": "4,6-Dihydroxypyrimidine",
    "cn_name": "4,6-二羟基嘧啶;",
    "alternate_name": "4(3<em>H</em>)-Pyrimidinone, 6-hydroxy-;4(1<em>H</em>)-Pyrimidinone, 6-hydroxy-;4,6-Pyrimidinediol;6-Hydroxy-4(3<em>H</em>)-pyrimidinone;4,6-Dihydroxypyrimidine;NSC 22838;6-Hydroxypyrimidin-4(3<em>H</em>)-one",
    "duplicated_cas_no": "18337-68-3",
    "SMILES": "O=C1C=C(O)N=CN1",
    "meta_data": {
        "InChI": "InChI=1S/C4H4N2O2/c7-3-1-4(8)6-2-5-3/h1-2H,(H2,5,6,7,8)",
        "InChIKey": null,
        "Canonical SMILES": "O=C1C=C(O)N=CN1",
        "Molecular Formula": "C<sub>4</sub>H<sub>4</sub>N<sub>2</sub>O<sub>2</sub>",
        "Molecular Mass": "112.09",
        "Melting Point": "&gt;230 °C (decomp)"
    }
}