{
    "cas_no": "772-31-6",
    "key_name": "Cyclopropyl(4-fluorophenyl)methanone",
    "cn_name": "4-氟苯基环丙基甲酮;",
    "alternate_name": "Methanone, cyclopropyl(4-fluorophenyl)-;Ketone, cyclopropyl <em>p</em>-fluorophenyl;Cyclopropyl(4-fluorophenyl)methanone;Cyclopropyl 4-fluorophenyl ketone;Cyclopropyl <em>p</em>-fluorophenyl ketone;<em>p</em>-Fluorophenyl cyclopropyl ketone;4-Fluorophenyl cyclopropyl ketone;NSC 70847",
    "duplicated_cas_no": "",
    "SMILES": "C(=O)(C1CC1)C2=CC=C(F)C=C2",
    "meta_data": {
        "InChI": "InChI=1S/C10H9FO/c11-9-5-3-8(4-6-9)10(12)7-1-2-7/h3-7H,1-2H2",
        "InChIKey": null,
        "Canonical SMILES": "O=C(C1=CC=C(F)C=C1)C2CC2",
        "Molecular Formula": "C<sub>10</sub>H<sub>9</sub>FO",
        "Molecular Mass": "164.18",
        "Boiling Point": "108-112 °C @ Press: 12 Torr"
    }
}