{
    "cas_no": "139-77-5",
    "key_name": "<em>N</em>-(3-Methoxyphenyl)urea",
    "cn_name": null,
    "alternate_name": "Urea, <em>N</em>-(3-methoxyphenyl)-;Urea, (<em>m</em>-methoxyphenyl)-;Urea, (3-methoxyphenyl)-;<em>N</em>-(3-Methoxyphenyl)urea;(<em>m</em>-Methoxyphenyl)urea;G 5;3-Ureidoanisole;3-Methoxyphenylurea;NSC 526659;1-(3-Methoxyphenyl)urea",
    "duplicated_cas_no": "",
    "SMILES": "N(C(N)=O)C1=CC(OC)=CC=C1",
    "meta_data": {
        "InChI": "InChI=1S/C8H10N2O2/c1-12-7-4-2-3-6(5-7)10-8(9)11/h2-5H,1H3,(H3,9,10,11)",
        "InChIKey": null,
        "Canonical SMILES": "O=C(N)NC=1C=CC=C(OC)C1",
        "Molecular Formula": "C<sub>8</sub>H<sub>10</sub>N<sub>2</sub>O<sub>2</sub>",
        "Molecular Mass": "166.18",
        "Melting Point": "134.5 °C"
    }
}