{
    "cas_no": "7756-96-9",
    "key_name": "Butyl anthranilate",
    "cn_name": "邻氨基苯甲酸正丁酯;",
    "alternate_name": "Benzoic acid, 2-amino-, butyl ester;Anthranilic acid, butyl ester;Butyl anthranilate;2-Aminobenzoic acid butyl ester;Butyl <em>o</em>-aminobenzoate;NSC 406509;Butyl 2-aminobenzoate",
    "duplicated_cas_no": "",
    "SMILES": "C(OCCCC)(=O)C1=C(N)C=CC=C1",
    "meta_data": {
        "InChI": "InChI=1S/C11H15NO2/c1-2-3-8-14-11(13)9-6-4-5-7-10(9)12/h4-7H,2-3,8,12H2,1H3",
        "InChIKey": null,
        "Canonical SMILES": "O=C(OCCCC)C=1C=CC=CC1N",
        "Molecular Formula": "C<sub>11</sub>H<sub>15</sub>NO<sub>2</sub>",
        "Molecular Mass": "193.24",
        "Boiling Point": "182 °C",
        "Melting Point": "&lt;0 °C"
    }
}