{
    "cas_no": "2288-13-3",
    "key_name": "1-Methyl-2,8,9-trioxa-5-aza-1-silabicyclo[3.3.3]undecane",
    "cn_name": "1-甲基-2,8,9-三氧杂-5-氮杂-1-硅杂二环[3.3.3]十一烷;",
    "alternate_name": "2,8,9-Trioxa-5-aza-1-silabicyclo[3.3.3]undecane, 1-methyl-;1-Methyl-2,8,9-trioxa-5-aza-1-silabicyclo[3.3.3]undecane;Methylsilatrane;1-Methylsilatrane",
    "duplicated_cas_no": "",
    "SMILES": "C[Si]12OCCN(CCO1)CCO2",
    "meta_data": {
        "InChI": "InChI=1S/C7H15NO3Si/c1-12-9-5-2-8(3-6-10-12)4-7-11-12/h2-7H2,1H3",
        "InChIKey": null,
        "Canonical SMILES": "O1CCN2CCO[Si]1(OCC2)C",
        "Molecular Formula": "C<sub>7</sub>H<sub>15</sub>NO<sub>3</sub>Si",
        "Molecular Mass": "189.28",
        "Boiling Point": "174 °C @ Press: 31 Torr",
        "Melting Point": "152 °C"
    }
}