{
    "cas_no": "100-63-0",
    "key_name": "Hydrazine, phenyl-",
    "cn_name": "苯肼;",
    "alternate_name": "Hydrazine, phenyl-;Phenylhydrazine;Hydrazinobenzene;Monophenylhydrazine;MeSH ID: D010659",
    "duplicated_cas_no": "1057722-40-3",
    "SMILES": "N(N)C1=CC=CC=C1",
    "meta_data": {
        "InChI": "InChI=1S/C6H8N2/c7-8-6-4-2-1-3-5-6/h1-5,8H,7H2",
        "InChIKey": null,
        "Canonical SMILES": "NNC=1C=CC=CC1",
        "Molecular Formula": "C<sub>6</sub>H<sub>8</sub>N<sub>2</sub>",
        "Molecular Mass": "108.14",
        "Boiling Point": "71.8 °C @ Press: 1 Torr",
        "Melting Point": "19.5 °C",
        "Density": "1.0978 g/cm³ @ Temp: 20 °C"
    }
}