{
    "cas_no": "41481-66-7",
    "key_name": "4,4′-Sulfonylbis[2-(2-propen-1-yl)phenol]",
    "cn_name": null,
    "alternate_name": "Phenol, 4,4′-sulfonylbis[2-(2-propen-1-yl)-;Phenol, 4,4′-sulfonylbis[2-(2-propenyl)-;4,4′-Sulfonylbis[2-(2-propen-1-yl)phenol];Bis(4-hydroxy-3-allylphenyl) sulfone;3,3′-Diallyl-4,4′-dihydroxydiphenylsulfone;4,4′-Sulfonylbis(2-allylphenol);Bis(3-allyl-4-hydroxyphenyl) sulfone;TG-SA;TGSH;3,3′-Diallyl-4,4′-dihydroxybiphenyl sulfone;2,2′-Diallyl-4,4′-sulfonyldiphenol;4,4′-Sulfonylbis[2-(2-propenyl)phenol];B 916361;BPS 33AC;TGSH(H)",
    "duplicated_cas_no": "118731-67-2",
    "SMILES": "S(=O)(=O)(C1=CC(CC=C)=C(O)C=C1)C2=CC(CC=C)=C(O)C=C2",
    "meta_data": {
        "InChI": "InChI=1S/C18H18O4S/c1-3-5-13-11-15(7-9-17(13)19)23(21,22)16-8-10-18(20)14(12-16)6-4-2/h3-4,7-12,19-20H,1-2,5-6H2",
        "InChIKey": null,
        "Canonical SMILES": "O=S(=O)(C1=CC=C(O)C(=C1)CC=C)C2=CC=C(O)C(=C2)CC=C",
        "Molecular Formula": "C<sub>18</sub>H<sub>18</sub>O<sub>4</sub>S",
        "Molecular Mass": "330.40",
        "Melting Point": "138.5 °C"
    }
}