{
    "cas_no": "571-61-9",
    "key_name": "1,5-Dimethylnaphthalene",
    "cn_name": null,
    "alternate_name": "Naphthalene, 1,5-dimethyl-;1,5-Dimethylnaphthalene;NSC 59388",
    "duplicated_cas_no": "",
    "SMILES": "CC=1C2=C(C(C)=CC=C2)C=CC1",
    "meta_data": {
        "InChI": "InChI=1S/C12H12/c1-9-5-3-8-12-10(2)6-4-7-11(9)12/h3-8H,1-2H3",
        "InChIKey": null,
        "Canonical SMILES": "C1=CC=2C(=CC=CC2C)C(=C1)C",
        "Molecular Formula": "C<sub>12</sub>H<sub>12</sub>",
        "Molecular Mass": "156.22",
        "Boiling Point": "265 °C",
        "Melting Point": "82 °C"
    }
}