{
    "cas_no": "71441-28-6",
    "key_name": "TTNPB",
    "cn_name": "芳维甲酸;",
    "alternate_name": "Benzoic acid, 4-[(1<em>E</em>)-2-(5,6,7,8-tetrahydro-5,5,8,8-tetramethyl-2-naphthalenyl)-1-propen-1-yl]-;Benzoic acid, 4-[2-(5,6,7,8-tetrahydro-5,5,8,8-tetramethyl-2-naphthalenyl)-1-propenyl]-, (<em>E</em>)-;Benzoic acid, 4-[(1<em>E</em>)-2-(5,6,7,8-tetrahydro-5,5,8,8-tetramethyl-2-naphthalenyl)-1-propenyl]-;4-[(1<em>E</em>)-2-(5,6,7,8-Tetrahydro-5,5,8,8-tetramethyl-2-naphthalenyl)-1-propen-1-yl]benzoic acid;Ro 13-7410;Arotinoid acid;Arotinoid free acid;TTNPB;AGN 191183;TTNB;4-[(E)-2-(5,6,7,8-Tetrahydro-5,5,8,8-tetramethyl-2-naphthalenyl)-1-propenyl]benzoic acid",
    "duplicated_cas_no": "111035-66-6",
    "SMILES": "CC1(C)C=2C(C(C)(C)CC1)=CC=C(\\C(=C\\C3=CC=C(C(O)=O)C=C3)\\C)C2",
    "meta_data": {
        "InChI": "InChI=1S/C24H28O2/c1-16(14-17-6-8-18(9-7-17)22(25)26)19-10-11-20-21(15-19)24(4,5)13-12-23(20,2)3/h6-11,14-15H,12-13H2,1-5H3,(H,25,26)/b16-14+",
        "InChIKey": null,
        "Canonical SMILES": "O=C(O)C1=CC=C(C=C1)C=C(C2=CC=C3C(=C2)C(C)(C)CCC3(C)C)C",
        "Molecular Formula": "C<sub>24</sub>H<sub>28</sub>O<sub>2</sub>",
        "Molecular Mass": "348.48",
        "Melting Point": "239-240 °C"
    }
}