{
    "cas_no": "1084-65-7",
    "key_name": "Arresten",
    "cn_name": "蒲硫杂茶磺胺;蒲硫杂茶磺胺;",
    "alternate_name": "2<em>H</em>-1-Benzothiopyran-7-sulfonamide, 3,4-dihydro-6-methyl-, 1,1-dioxide;Thiochroman-7-sulfonamide, 6-methyl-, 1,1-dioxide;6-Methyl-7-sulfamide-thiochromane 1,1-dioxode;Meticrane;Meticran;6-Methylthiochroman-7-sulfonamide 1,1-dioxide;6-Methyl-7-sulfamoylthiochroman 1,1-dioxide;Fontilix;E 103E;SD 171-02;Arresten;SD 17102",
    "duplicated_cas_no": "",
    "SMILES": "O=S1(=O)C=2C(=CC(C)=C(S(N)(=O)=O)C2)CCC1",
    "meta_data": {
        "InChI": "InChI=1S/C10H13NO4S2/c1-7-5-8-3-2-4-16(12,13)10(8)6-9(7)17(11,14)15/h5-6H,2-4H2,1H3,(H2,11,14,15)",
        "InChIKey": null,
        "Canonical SMILES": "O=S(=O)(N)C=1C=C2C(=CC1C)CCCS2(=O)=O",
        "Molecular Formula": "C<sub>10</sub>H<sub>13</sub>NO<sub>4</sub>S<sub>2</sub>",
        "Molecular Mass": "275.34",
        "Melting Point": "236.5 °C"
    }
}