{
    "cas_no": "621-70-5",
    "key_name": "Tricaproin",
    "cn_name": "三己酸甘油酯;",
    "alternate_name": "Hexanoic acid, 1,1′,1′′-(1,2,3-propanetriyl) ester;Hexanoin, tri-;Hexanoic acid, 1,2,3-propanetriyl ester;Caproin, tri-;Tricaproin;Tricapronin;Trihexanoylglycerol;Glycerol tricaproate;Caproic triglyceride;Trihexanoin;Tricaproylglycerol;Glyceryl tricaproate;Glycerin trihexanoate;Glycerin tricaproate;NSC 406885;Glycerol tricapronate;Glycerol trihexanoate;Glyceryl trihexanoate;2,3-Di(hexanoyloxy)propyl hexanoate",
    "duplicated_cas_no": "",
    "SMILES": "C(COC(CCCCC)=O)(COC(CCCCC)=O)OC(CCCCC)=O",
    "meta_data": {
        "InChI": "InChI=1S/C21H38O6/c1-4-7-10-13-19(22)25-16-18(27-21(24)15-12-9-6-3)17-26-20(23)14-11-8-5-2/h18H,4-17H2,1-3H3",
        "InChIKey": null,
        "Canonical SMILES": "O=C(OCC(OC(=O)CCCCC)COC(=O)CCCCC)CCCCC",
        "Molecular Formula": "C<sub>21</sub>H<sub>38</sub>O<sub>6</sub>",
        "Molecular Mass": "386.52",
        "Boiling Point": "&gt;200 °C",
        "Melting Point": "-60 °C",
        "Density": "0.9821 g/cm³ @ Temp: 20 °C"
    }
}