{
    "cas_no": "29736-80-9",
    "key_name": "Methyl 3,5-dioxohexanoate",
    "cn_name": null,
    "alternate_name": "Hexanoic acid, 3,5-dioxo-, methyl ester;Methyl 3,5-dioxohexanoate",
    "duplicated_cas_no": "",
    "SMILES": "C(CC(OC)=O)(CC(C)=O)=O",
    "meta_data": {
        "InChI": "InChI=1S/C7H10O4/c1-5(8)3-6(9)4-7(10)11-2/h3-4H2,1-2H3",
        "InChIKey": null,
        "Canonical SMILES": "O=C(OC)CC(=O)CC(=O)C",
        "Molecular Formula": "C<sub>7</sub>H<sub>10</sub>O<sub>4</sub>",
        "Molecular Mass": "158.15",
        "Boiling Point": "68-80 °C @ Press: 1 Torr"
    }
}