{
    "cas_no": "38675-79-5",
    "key_name": "Cyclopropyl[4-(1,1-dimethylethyl)phenyl]methanone",
    "cn_name": null,
    "alternate_name": "Methanone, cyclopropyl[4-(1,1-dimethylethyl)phenyl]-;Ketone, <em>p</em>-<em>tert</em>-butylphenyl cyclopropyl;Cyclopropyl[4-(1,1-dimethylethyl)phenyl]methanone;<em>p</em>-<em>tert</em>-Butylphenyl cyclopropyl ketone;NSC 163106;(4-<em>tert</em>-Butylphenyl)-cyclopropylmethanone;(4-<em>tert</em>-Butylphenyl)(cyclopropyl)methanone",
    "duplicated_cas_no": "802003-71-0",
    "SMILES": "C(=O)(C1=CC=C(C(C)(C)C)C=C1)C2CC2",
    "meta_data": {
        "InChI": "InChI=1S/C14H18O/c1-14(2,3)12-8-6-11(7-9-12)13(15)10-4-5-10/h6-10H,4-5H2,1-3H3",
        "InChIKey": null,
        "Canonical SMILES": "O=C(C1=CC=C(C=C1)C(C)(C)C)C2CC2",
        "Molecular Formula": "C<sub>14</sub>H<sub>18</sub>O",
        "Molecular Mass": "202.29",
        "Melting Point": "56-59 °C"
    }
}