{
    "cas_no": "2051-96-9",
    "key_name": "Benzyl lactate",
    "cn_name": "乳酸苄酯;",
    "alternate_name": "Propanoic acid, 2-hydroxy-, phenylmethyl ester;Lactic acid, benzyl ester;Benzyl lactate;Benzyl 2-hydroxypropionate;Phenylmethyl 2-hydroxypropanoate;NSC 72745;Benzyl (±)-lactate;Benzyl 2-hydroxypropanoate",
    "duplicated_cas_no": "",
    "SMILES": "C(OC(C(C)O)=O)C1=CC=CC=C1",
    "meta_data": {
        "InChI": "InChI=1S/C10H12O3/c1-8(11)10(12)13-7-9-5-3-2-4-6-9/h2-6,8,11H,7H2,1H3",
        "InChIKey": null,
        "Canonical SMILES": "O=C(OCC=1C=CC=CC1)C(O)C",
        "Molecular Formula": "C<sub>10</sub>H<sub>12</sub>O<sub>3</sub>",
        "Molecular Mass": "180.20",
        "Boiling Point": "128-130 °C @ Press: 5-6 Torr",
        "Melting Point": "41-42 °C"
    }
}