{
    "cas_no": "15448-47-2",
    "key_name": "(+)-Propylene oxide",
    "cn_name": "(R)-环氧丙烷;(R)-(+)-1,2-环氧丙烷;",
    "alternate_name": "Oxirane, 2-methyl-, (2<em>R</em>)-;Propylene oxide, (<em>R</em>)-(+)-;Oxirane, methyl-, (<em>R</em>)-;Oxirane, methyl-, (2<em>R</em>)-;(2<em>R</em>)-2-Methyloxirane;(+)-Propylene oxide;<em>d</em>-Propylene oxide;(<em>R</em>)-Propylene oxide;(<em>R</em>)-(+)-Methyloxirane;(+)-Methyloxirane;(<em>R</em>)-Methyloxirane;(<em>R</em>)-1,2-Epoxypropane;(<em>R</em>)-(+)-1,2-Epoxypropane;(+)-(<em>R</em>)-Propylene oxide;(<em>R</em>)-(+)-Propylene oxide;(<em>R</em>)-Propenoxide;(<em>R</em>)-2-Methyloxirane;(2<em>R</em>)-Methyloxirane;(R)-(+)-1,2-Epoxypropane;(R)-1,2-Epoxypropane;(2R)-2-Methyloxirane",
    "duplicated_cas_no": "",
    "SMILES": "C[C@@H]1CO1",
    "meta_data": {
        "InChI": "InChI=1S/C3H6O/c1-3-2-4-3/h3H,2H2,1H3/t3-/m1/s1",
        "InChIKey": null,
        "Canonical SMILES": "O1CC1C",
        "Molecular Formula": "C<sub>3</sub>H<sub>6</sub>O",
        "Molecular Mass": "58.08",
        "Boiling Point": "35 °C",
        "Density": "1.171 g/cm³ @ Temp: 20 °C"
    }
}