{
    "cas_no": "14984-76-0",
    "key_name": "Imidodisulfuryl fluoride, potassium salt (1:1)",
    "cn_name": null,
    "alternate_name": "Imidodisulfuryl fluoride, potassium salt (1:1);Imidodisulfuryl fluoride, potassium salt;Potassium, [bis(fluorosulfonyl)amino]-;Potassium bis(fluorosulfonyl)amide;F 2 (antistatic agent);F 2;Potassium bis(fluorosulfonyl)imide;Potassium bis(fluorosulfonyl)imidate;K-FSI",
    "duplicated_cas_no": "1970233-94-3",
    "SMILES": "N(S(F)(=O)=O)S(F)(=O)=O.[K]",
    "meta_data": {
        "InChI": "InChI=1S/F2HNO4S2.K/c1-8(4,5)3-9(2,6)7;/h3H;",
        "InChIKey": null,
        "Canonical SMILES": "[K].O=S(=O)(F)NS(=O)(=O)F",
        "Molecular Formula": "F<sub>2</sub>HNO<sub>4</sub>S<sub>2</sub>.K",
        "Molecular Mass": "",
        "Melting Point": "96 °C"
    }
}