{
    "cas_no": "96-73-1",
    "key_name": "2-Chloro-5-nitrobenzenesulfonic acid",
    "cn_name": "5-硝基-2-氯磺酸;对硝基氯苯邻磺酸;2-氯-5-硝基苯磺酸;4-硝基氯苯邻磺酸;",
    "alternate_name": "Benzenesulfonic acid, 2-chloro-5-nitro-;2-Chloro-5-nitrobenzenesulfonic acid;4-Nitro-1-chlorobenzene-2-sulfonic acid;4-Chloro-1-nitro-3-sulfobenzene;1-Chloro-4-nitrobenzene-2-sulfonic acid;4-Nitro-2-sulfochlorobenzene;NSC 5375;3-Sulfo-4-chloronitrobenzene",
    "duplicated_cas_no": "1323551-43-4",
    "SMILES": "S(=O)(=O)(O)C1=CC(N(=O)=O)=CC=C1Cl",
    "meta_data": {
        "InChI": "InChI=1S/C6H4ClNO5S/c7-5-2-1-4(8(9)10)3-6(5)14(11,12)13/h1-3H,(H,11,12,13)",
        "InChIKey": null,
        "Canonical SMILES": "O=N(=O)C1=CC=C(Cl)C(=C1)S(=O)(=O)O",
        "Molecular Formula": "C<sub>6</sub>H<sub>4</sub>ClNO<sub>5</sub>S",
        "Molecular Mass": "237.62",
        "Melting Point": "169-170 °C"
    }
}