{
    "cas_no": "43189-45-3",
    "key_name": "<span class=\"text-smallcaps\">L</span>-α-(2-Thienyl)glycine",
    "cn_name": "D-α-(2-噻吩基)甘氨酸;",
    "alternate_name": "2-Thiopheneacetic acid, α-amino-, (α<em>S</em>)-;2-Thiopheneacetic acid, α-amino-, (<em>S</em>)-;(α<em>S</em>)-α-Amino-2-thiopheneacetic acid;<span class=\"text-smallcaps\">D</span>-2-Thienylglycine;<span class=\"text-smallcaps\">D</span>(-)-2-Thienylglycine;<span class=\"text-smallcaps\">D</span>-2-(2-Thienyl)glycine;<span class=\"text-smallcaps\">D</span>-α-Amino-2-thiopheneacetic acid;<span class=\"text-smallcaps\">L</span>-α-(2-Thienyl)glycine;(<em>S</em>)-2-Amino-2-(thiophen-2-yl)acetic acid",
    "duplicated_cas_no": "",
    "SMILES": "[C@@H](C(O)=O)(N)C1=CC=CS1",
    "meta_data": {
        "InChI": "InChI=1S/C6H7NO2S/c7-5(6(8)9)4-2-1-3-10-4/h1-3,5H,7H2,(H,8,9)/t5-/m1/s1",
        "InChIKey": null,
        "Canonical SMILES": "O=C(O)C(N)C=1SC=CC1",
        "Molecular Formula": "C<sub>6</sub>H<sub>7</sub>NO<sub>2</sub>S",
        "Molecular Mass": "157.19",
        "Melting Point": "189-191 °C (decomp)"
    }
}