{
    "cas_no": "462-06-6",
    "key_name": "Fluorobenzene",
    "cn_name": "氟化苯;氟代苯;氟苯;",
    "alternate_name": "Benzene, fluoro-;Fluorobenzene;Phenyl fluoride;Monofluorobenzene;NSC 68416",
    "duplicated_cas_no": "",
    "SMILES": "FC1=CC=CC=C1",
    "meta_data": {
        "InChI": "InChI=1S/C6H5F/c7-6-4-2-1-3-5-6/h1-5H",
        "InChIKey": null,
        "Canonical SMILES": "FC=1C=CC=CC1",
        "Molecular Formula": "C<sub>6</sub>H<sub>5</sub>F",
        "Molecular Mass": "96.10",
        "Boiling Point": "84.7 °C",
        "Melting Point": "-42.2 °C",
        "Density": "1.04653 g/cm³ @ Temp: 40 °C"
    }
}