{
    "cas_no": "1062-96-0",
    "key_name": "Cholesteryl caproate",
    "cn_name": "胆甾烯基己酸酯;胆甾醇己酸酯;",
    "alternate_name": "Cholest-5-en-3-ol (3β)-, hexanoate;Cholesterol, hexanoate;Hexanoic acid, cholesteryl ester;Cholesteryl caproate;Cholesterol caproate;Cholesteryl hexanoate;3β-(Caproyloxy)cholest-5-ene;Cholest-5-en-3β-ol caproate;5-Cholesten-3β-ol caproate;3-(Hexanoyloxy)cholest-5-ene",
    "duplicated_cas_no": "137036-81-8;313219-53-3",
    "SMILES": "C[C@@]12[C@@]3([C@]([C@]4([C@](C)(CC3)[C@@]([C@@H](CCCC(C)C)C)(CC4)[H])[H])(CC=C1C[C@@H](OC(CCCCC)=O)CC2)[H])[H]",
    "meta_data": {
        "InChI": "InChI=1S/C33H56O2/c1-7-8-9-13-31(34)35-26-18-20-32(5)25(22-26)14-15-27-29-17-16-28(24(4)12-10-11-23(2)3)33(29,6)21-19-30(27)32/h14,23-24,26-30H,7-13,15-22H2,1-6H3/t24-,26+,27+,28-,29+,30+,32+,33-/m1/s1",
        "InChIKey": null,
        "Canonical SMILES": "O=C(OC1CC2=CCC3C(CCC4(C)C(CCC34)C(C)CCCC(C)C)C2(C)CC1)CCCCC",
        "Molecular Formula": "C<sub>33</sub>H<sub>56</sub>O<sub>2</sub>",
        "Molecular Mass": "484.80",
        "Melting Point": "98-99 °C"
    }
}