{
    "cas_no": "3085-76-5",
    "key_name": "<em>N</em>,<em>N</em>-Bis(1-methylethyl)cyanamide",
    "cn_name": "Diisopropylcyanamide;",
    "alternate_name": "Cyanamide, <em>N</em>,<em>N</em>-bis(1-methylethyl)-;Cyanamide, diisopropyl-;Cyanamide, bis(1-methylethyl)-;<em>N</em>,<em>N</em>-Bis(1-methylethyl)cyanamide;Diisopropylcyanamide;NSC 7775",
    "duplicated_cas_no": "",
    "SMILES": "N(C(C)C)(C(C)C)C#N",
    "meta_data": {
        "InChI": "InChI=1S/C7H14N2/c1-6(2)9(5-8)7(3)4/h6-7H,1-4H3",
        "InChIKey": null,
        "Canonical SMILES": "N#CN(C(C)C)C(C)C",
        "Molecular Formula": "C<sub>7</sub>H<sub>14</sub>N<sub>2</sub>",
        "Molecular Mass": "126.20",
        "Boiling Point": "93-94 °C @ Press: 25 Torr"
    }
}