{
    "cas_no": "3468-01-7",
    "key_name": "3-Methylflavone-8-carboxylic acid",
    "cn_name": "3-甲基黄酮-8-羧酸;3-甲基-4-氧代-2-苯基-4H-1-苯并呋喃-8-羧酸;",
    "alternate_name": "4<em>H</em>-1-Benzopyran-8-carboxylic acid, 3-methyl-4-oxo-2-phenyl-;3-Methyl-4-oxo-2-phenyl-4<em>H</em>-1-benzopyran-8-carboxylic acid;3-Methylflavone-8-carboxylic acid;8-Carboxy-3-methylflavone;3-Methyl-4-oxo-2-phenyl-4<em>H</em>-chromene-8-carboxylic acid;3-Methyl-4-oxo-2-phenylchromene-8-carboxylic acid",
    "duplicated_cas_no": "108978-28-5",
    "SMILES": "C(O)(=O)C1=C2C(C(=O)C(C)=C(O2)C3=CC=CC=C3)=CC=C1",
    "meta_data": {
        "InChI": "InChI=1S/C17H12O4/c1-10-14(18)12-8-5-9-13(17(19)20)16(12)21-15(10)11-6-3-2-4-7-11/h2-9H,1H3,(H,19,20)",
        "InChIKey": null,
        "Canonical SMILES": "O=C(O)C1=CC=CC=2C(=O)C(=C(OC12)C=3C=CC=CC3)C",
        "Molecular Formula": "C<sub>17</sub>H<sub>12</sub>O<sub>4</sub>",
        "Molecular Mass": "280.27",
        "Melting Point": "215-220 °C"
    }
}