{
    "cas_no": "61312-84-3",
    "key_name": "Butanoic acid, 3-oxo-, (4-nitrophenyl)methyl ester",
    "cn_name": "乙酰乙酸对硝基苄酯;对硝基乙酰乙酸苄酯;",
    "alternate_name": "Butanoic acid, 3-oxo-, (4-nitrophenyl)methyl ester;Acetoacetic acid, <em>p</em>-nitrobenzyl ester;<em>p</em>-Nitrobenzyl 3-oxobutanoate;4-Nitrobenzyl acetoacetate;<em>p</em>-Nitrobenzyl acetoacetate;4-Nitrobenzyl acetylacetate;(4-Nitrophenyl)methyl 3-oxobutanoate",
    "duplicated_cas_no": "",
    "SMILES": "C(OC(CC(C)=O)=O)C1=CC=C(N(=O)=O)C=C1",
    "meta_data": {
        "InChI": "InChI=1S/C11H11NO5/c1-8(13)6-11(14)17-7-9-2-4-10(5-3-9)12(15)16/h2-5H,6-7H2,1H3",
        "InChIKey": null,
        "Canonical SMILES": "O=C(OCC1=CC=C(C=C1)N(=O)=O)CC(=O)C",
        "Molecular Formula": "C<sub>11</sub>H<sub>11</sub>NO<sub>5</sub>",
        "Molecular Mass": "237.21",
        "Melting Point": "47-49 °C"
    }
}