{
    "cas_no": "174721-08-5",
    "key_name": "Ginsenoside Rh<sub>4</sub>",
    "cn_name": null,
    "alternate_name": "β-<span class=\"text-smallcaps\">D</span>-Glucopyranoside, (3β,6α,12β,20<em>E</em>)-3,12-dihydroxydammara-20(22),24-dien-6-yl;(3β,6α,12β,20<em>E</em>)-3,12-Dihydroxydammara-20(22),24-dien-6-yl β-<span class=\"text-smallcaps\">D</span>-glucopyranoside;Ginsenoside Rh<sub>4</sub>",
    "duplicated_cas_no": "",
    "SMILES": "C[C@]12[C@@]([C@]3(C)[C@@]([C@@H](O[C@@H]4O[C@H](CO)[C@@H](O)[C@H](O)[C@H]4O)C1)(C(C)(C)[C@@H](O)CC3)[H])(C[C@@H](O)[C@]5([C@@]2(C)CC[C@@H]5\\C(=C\\CC=C(C)C)\\C)[H])[H]",
    "meta_data": {
        "InChI": "InChI=1S/C36H60O8/c1-19(2)10-9-11-20(3)21-12-15-35(7)27(21)22(38)16-25-34(6)14-13-26(39)33(4,5)31(34)23(17-36(25,35)8)43-32-30(42)29(41)28(40)24(18-37)44-32/h10-11,21-32,37-42H,9,12-18H2,1-8H3/b20-11+/t21-,22-,23+,24-,25-,26+,27+,28-,29+,30-,31+,32-,34-,35-,36-/m1/s1",
        "InChIKey": null,
        "Canonical SMILES": "OCC1OC(OC2CC3(C)C(CC(O)C4C(C(=CCC=C(C)C)C)CCC43C)C5(C)CCC(O)C(C)(C)C25)C(O)C(O)C1O",
        "Molecular Formula": "C<sub>36</sub>H<sub>60</sub>O<sub>8</sub>",
        "Molecular Mass": "620.86",
        "Melting Point": "239-240 °C"
    }
}