{
    "cas_no": "645-69-2",
    "key_name": "Dipentyl succinate",
    "cn_name": "丁二酸二戊酯;",
    "alternate_name": "Butanedioic acid, 1,4-dipentyl ester;Succinic acid, dipentyl ester;Butanedioic acid, dipentyl ester;Diamyl succinate;Dipentyl succinate;NSC 1501;Di(<em>n</em>-pentyl) succinate",
    "duplicated_cas_no": "",
    "SMILES": "C(CCC(OCCCCC)=O)(OCCCCC)=O",
    "meta_data": {
        "InChI": "InChI=1S/C14H26O4/c1-3-5-7-11-17-13(15)9-10-14(16)18-12-8-6-4-2/h3-12H2,1-2H3",
        "InChIKey": null,
        "Canonical SMILES": "O=C(OCCCCC)CCC(=O)OCCCCC",
        "Molecular Formula": "C<sub>14</sub>H<sub>26</sub>O<sub>4</sub>",
        "Molecular Mass": "258.35",
        "Boiling Point": "171.5 °C @ Press: 16 Torr",
        "Melting Point": "-10.8 °C"
    }
}