{
    "cas_no": "14035-96-2",
    "key_name": "1,3-Dimethyl 2-propylpropanedioate",
    "cn_name": "丙基丙二酸二甲酯;",
    "alternate_name": "Propanedioic acid, 2-propyl-, 1,3-dimethyl ester;Malonic acid, propyl-, dimethyl ester;Propanedioic acid, propyl-, dimethyl ester;1,3-Dimethyl 2-propylpropanedioate;Dimethyl propylmalonate;Methyl propylmalonate;Dimethyl 2-propylmalonate;2-Propylmalonic acid dimethyl ester",
    "duplicated_cas_no": "67907-88-4",
    "SMILES": "C(C(OC)=O)(C(OC)=O)CCC",
    "meta_data": {
        "InChI": "InChI=1S/C8H14O4/c1-4-5-6(7(9)11-2)8(10)12-3/h6H,4-5H2,1-3H3",
        "InChIKey": null,
        "Canonical SMILES": "O=C(OC)C(C(=O)OC)CCC",
        "Molecular Formula": "C<sub>8</sub>H<sub>14</sub>O<sub>4</sub>",
        "Molecular Mass": "174.19",
        "Boiling Point": "203 °C @ Press: 756 Torr",
        "Density": "1.0398 g/cm³ @ Temp: 20 °C"
    }
}