{
    "cas_no": "555-96-4",
    "key_name": "(Phenylmethyl)hydrazine",
    "cn_name": "苄基肼;",
    "alternate_name": "Hydrazine, (phenylmethyl)-;Hydrazine, benzyl-;(Phenylmethyl)hydrazine;Benzylhydrazine;Benzyl hydrazide;<em>N</em>-Benzylhydrazine;1-Benzylhydrazine",
    "duplicated_cas_no": "",
    "SMILES": "C(NN)C1=CC=CC=C1",
    "meta_data": {
        "InChI": "InChI=1S/C7H10N2/c8-9-6-7-4-2-1-3-5-7/h1-5,9H,6,8H2",
        "InChIKey": null,
        "Canonical SMILES": "NNCC=1C=CC=CC1",
        "Molecular Formula": "C<sub>7</sub>H<sub>10</sub>N<sub>2</sub>",
        "Molecular Mass": "122.17",
        "Boiling Point": "110-115 °C @ Press: 0.3 Torr",
        "Melting Point": "112 °C"
    }
}