{
    "cas_no": "6296-54-4",
    "key_name": "Ethyl α,γ-dioxobenzenebutanoate",
    "cn_name": null,
    "alternate_name": "Benzenebutanoic acid, α,γ-dioxo-, ethyl ester;Pyruvic acid, benzoyl-, ethyl ester;Ethyl α,γ-dioxobenzenebutanoate;Ethyl benzoylpyruvate;Ethyl β-benzoylpyruvate;Ethyl 4-phenyl-2,4-dioxobutanoate;NSC 17049;Ethyl 2,4-dioxo-4-phenylbutanoate;4-Phenyl-2,4-dioxobutanoic acid ethyl ester;2,4-Dioxo-4-phenylbutanoic acid ethyl ester;2,4-Dioxo-4-phenyl-butyric acid ethyl ester",
    "duplicated_cas_no": "",
    "SMILES": "C(CC(C(OCC)=O)=O)(=O)C1=CC=CC=C1",
    "meta_data": {
        "InChI": "InChI=1S/C12H12O4/c1-2-16-12(15)11(14)8-10(13)9-6-4-3-5-7-9/h3-7H,2,8H2,1H3",
        "InChIKey": null,
        "Canonical SMILES": "O=C(OCC)C(=O)CC(=O)C=1C=CC=CC1",
        "Molecular Formula": "C<sub>12</sub>H<sub>12</sub>O<sub>4</sub>",
        "Molecular Mass": "220.22",
        "Boiling Point": "167 °C @ Press: 5 Torr",
        "Melting Point": "46 °C"
    }
}