{
    "cas_no": "1115-20-4",
    "key_name": "Hydroxypivalyl hydroxypivalate",
    "cn_name": "2,2-二甲基-3-羟基丙酸新戊二醇酯;3-羟基-2,2-二甲基-3-羟基-2,2-二甲基丙基丙酸酯;",
    "alternate_name": "Propanoic acid, 3-hydroxy-2,2-dimethyl-, 3-hydroxy-2,2-dimethylpropyl ester;Hydracrylic acid, 2,2-dimethyl-, 3-hydroxy-2,2-dimethylpropyl ester;1,3-Propanediol, 2,2-dimethyl-, mono(2,2-dimethylhydracrylate);2,2-Dimethyl-3-hydroxypropyl α,α-dimethyl-β-hydroxypropionate;Hydroxyneopentyl hydroxypivalate;Hydroxypivalyl hydroxypivalate;Neopentyl glycol monohydroxypivalate;3-(Hydroxypivaloyloxy)-2,2-dimethylpropanol;3-Hydroxy-2,2-dimethylpropyl 2,2-dimethylhydracrylate;3-Hydroxy-2,2-dimethylpropyl 3-hydroxy-2,2-dimethylpropionate;2,2-Dimethyl-3-hydroxypropyl 2,2-dimethyl-3-hydroxypropionate;Hydroxypivalic acid neopentyl glycol ester;3-Hydroxy-2,2-dimethylpropyl hydroxypivalate;Ester Diol 204;2,2-Dimethyl-1,3-propanediol mono(hydroxypivalate);Neopentyl glycol hydroxypivalate monoester;(3-Hydroxy-2,2-dimethylpropyl) 3-hydroxy-2,2-dimethylpropanoate;3-Hydroxy-2,2-dimethylpropyl 3-hydroxy-2,2-dimethylpropanoate",
    "duplicated_cas_no": "",
    "SMILES": "C(OCC(CO)(C)C)(C(CO)(C)C)=O",
    "meta_data": {
        "InChI": "InChI=1S/C10H20O4/c1-9(2,5-11)7-14-8(13)10(3,4)6-12/h11-12H,5-7H2,1-4H3",
        "InChIKey": null,
        "Canonical SMILES": "O=C(OCC(C)(C)CO)C(C)(C)CO",
        "Molecular Formula": "C<sub>10</sub>H<sub>20</sub>O<sub>4</sub>",
        "Molecular Mass": "204.26",
        "Boiling Point": "130-135 °C @ Press: 1 Torr",
        "Melting Point": "124-128 °C (decomp)"
    }
}