{
    "cas_no": "2050-94-4",
    "key_name": "Dipentyl carbonate",
    "cn_name": null,
    "alternate_name": "Carbonic acid, dipentyl ester;Dipentyl carbonate;Diamyl carbonate;NSC 7948",
    "duplicated_cas_no": "",
    "SMILES": "O(C(OCCCCC)=O)CCCCC",
    "meta_data": {
        "InChI": "InChI=1S/C11H22O3/c1-3-5-7-9-13-11(12)14-10-8-6-4-2/h3-10H2,1-2H3",
        "InChIKey": null,
        "Canonical SMILES": "O=C(OCCCCC)OCCCCC",
        "Molecular Formula": "C<sub>11</sub>H<sub>22</sub>O<sub>3</sub>",
        "Molecular Mass": "202.29",
        "Boiling Point": "238-240 °C"
    }
}