{
    "cas_no": "2973-59-3",
    "key_name": "2-Bromo-5-hydroxy-4-methoxybenzaldehyde",
    "cn_name": "6-溴异香草醛;2-溴-5-羟基-4-甲氧基苯甲醛;",
    "alternate_name": "Benzaldehyde, 2-bromo-5-hydroxy-4-methoxy-;<em>p</em>-Anisaldehyde, 2-bromo-5-hydroxy-;Isovanillin, 6-bromo-;2-Bromo-5-hydroxy-4-methoxybenzaldehyde;6-Bromoisovanillin;2-Bromo-5-hydroxy-<em>p</em>-anisaldehyde;2-Bromo-4-methoxy-5-hydroxybenzaldehyde",
    "duplicated_cas_no": "",
    "SMILES": "C(=O)C1=C(Br)C=C(OC)C(O)=C1",
    "meta_data": {
        "InChI": "InChI=1S/C8H7BrO3/c1-12-8-3-6(9)5(4-10)2-7(8)11/h2-4,11H,1H3",
        "InChIKey": null,
        "Canonical SMILES": "O=CC=1C=C(O)C(OC)=CC1Br",
        "Molecular Formula": "C<sub>8</sub>H<sub>7</sub>BrO<sub>3</sub>",
        "Molecular Mass": "231.04",
        "Melting Point": "115 °C"
    }
}