{
    "cas_no": "4171-13-5",
    "key_name": "Valnoctamide",
    "cn_name": "戊诺酰胺; 2-乙基-3-甲基戊酰胺;",
    "alternate_name": "Pentanamide, 2-ethyl-3-methyl-;Valeramide, 2-ethyl-3-methyl-;2-Ethyl-3-methylpentanamide;McN X 181;Axiquel;2-Ethyl-3-methylvaleramide;Nirvanil;Valmethamide;Valnoctamide;NSC 32363;NSC 34092",
    "duplicated_cas_no": "",
    "SMILES": "C(C(CC)C)(C(N)=O)CC",
    "meta_data": {
        "InChI": "InChI=1S/C8H17NO/c1-4-6(3)7(5-2)8(9)10/h6-7H,4-5H2,1-3H3,(H2,9,10)",
        "InChIKey": null,
        "Canonical SMILES": "O=C(N)C(CC)C(C)CC",
        "Molecular Formula": "C<sub>8</sub>H<sub>17</sub>NO",
        "Molecular Mass": "143.23",
        "Melting Point": "113.75 °C"
    }
}