{
    "cas_no": "1572-98-1",
    "key_name": "Propanoic acid, 2-cyano-2-methyl-, ethyl ester",
    "cn_name": "2-氰基-2-甲基丙酸乙酯;",
    "alternate_name": "Propanoic acid, 2-cyano-2-methyl-, ethyl ester;Propionic acid, 2-cyano-2-methyl-, ethyl ester;Ethyl 2-cyano-2-methylpropionate;2-Cyano-2-(ethoxycarbonyl)propane;Ethyl 2-cyano-2-methylpropanoate;Ethyl 2-cyanoisobutyrate;2,2-Dimethyl-2-cyanoacetic acid ethyl ester;NSC 402029;Cyanodimethylacetic acid ethyl ester;Ethyl 2-cyano-2,2-dimethylacetate;2-Cyano-2-methylpropionic acid ethyl ester",
    "duplicated_cas_no": "",
    "SMILES": "C(C(OCC)=O)(C#N)(C)C",
    "meta_data": {
        "InChI": "InChI=1S/C7H11NO2/c1-4-10-6(9)7(2,3)5-8/h4H2,1-3H3",
        "InChIKey": null,
        "Canonical SMILES": "N#CC(C(=O)OCC)(C)C",
        "Molecular Formula": "C<sub>7</sub>H<sub>11</sub>NO<sub>2</sub>",
        "Molecular Mass": "141.17",
        "Boiling Point": "185 °C",
        "Density": "0.971 g/cm³ @ Temp: 26 °C"
    }
}