{
    "cas_no": "2244-07-7",
    "key_name": "Undecanenitrile",
    "cn_name": "十一烷腈;",
    "alternate_name": "Undecanenitrile;Hendecanenitrile;Undecanonitrile;1-Decyl cyanide;<em>n</em>-Undecanonitrile;1-Cyanodecane;NSC 4026;Decyl cyanide",
    "duplicated_cas_no": "",
    "SMILES": "C(CCCCC#N)CCCCC",
    "meta_data": {
        "InChI": "InChI=1S/C11H21N/c1-2-3-4-5-6-7-8-9-10-11-12/h2-10H2,1H3",
        "InChIKey": null,
        "Canonical SMILES": "N#CCCCCCCCCCC",
        "Molecular Formula": "C<sub>11</sub>H<sub>21</sub>N",
        "Molecular Mass": "167.29",
        "Boiling Point": "253 °C"
    }
}