{
    "cas_no": "601-75-2",
    "key_name": "Ethylmalonic acid",
    "cn_name": "乙基丙二酸;",
    "alternate_name": "Propanedioic acid, 2-ethyl-;Malonic acid, ethyl-;Propanedioic acid, ethyl-;2-Ethylpropanedioic acid;1,1-Propanedicarboxylic acid;Ethylmalonic acid;α-Carboxybutyric acid;NSC 96615;2-Ethylmalonic acid",
    "duplicated_cas_no": "",
    "SMILES": "C(C(O)=O)(C(O)=O)CC",
    "meta_data": {
        "InChI": "InChI=1S/C5H8O4/c1-2-3(4(6)7)5(8)9/h3H,2H2,1H3,(H,6,7)(H,8,9)",
        "InChIKey": null,
        "Canonical SMILES": "O=C(O)C(C(=O)O)CC",
        "Molecular Formula": "C<sub>5</sub>H<sub>8</sub>O<sub>4</sub>",
        "Molecular Mass": "132.11",
        "Boiling Point": "180 °C",
        "Melting Point": "114 °C"
    }
}