{
    "cas_no": "808-48-0",
    "key_name": "Desoxycorticosterone pivalate",
    "cn_name": "去氧皮质酮新戊酸酯;",
    "alternate_name": "Pregn-4-ene-3,20-dione, 21-(2,2-dimethyl-1-oxopropoxy)-;11-Deoxycorticosterone, pivalate;Corticosterone, deoxy-, pivalate;Pivalic acid, ester with 11-deoxycorticosterone;21-(2,2-Dimethyl-1-oxopropoxy)pregn-4-ene-3,20-dione;Deoxycorticosterone trimethylacetate;Deoxycortone trimethylacetate;Desoxycorticosterone pivalate;DTMA;21-Hydroxypregn-4-ene-3,20-dione pivalate;Cortexone M;Deoxycorticosterone pivalate;Neodin-Depositum;Percorten M;Deoxycortone pivalate;DOCP;Percorten Pivalate;Desoxycorticosterone trimethylacetate;Desoxycortone pivalate;NSC 95278;Desoxycortisone pivalate;Zycortal",
    "duplicated_cas_no": "",
    "SMILES": "C[C@@]12[C@]([C@]3([C@@]([C@]4(C)C(CC3)=CC(=O)CC4)(CC1)[H])[H])(CC[C@@H]2C(COC(C(C)(C)C)=O)=O)[H]",
    "meta_data": {
        "InChI": "InChI=1S/C26H38O4/c1-24(2,3)23(29)30-15-22(28)21-9-8-19-18-7-6-16-14-17(27)10-12-25(16,4)20(18)11-13-26(19,21)5/h14,18-21H,6-13,15H2,1-5H3/t18-,19-,20-,21+,25-,26-/m0/s1",
        "InChIKey": null,
        "Canonical SMILES": "O=C1C=C2CCC3C(CCC4(C)C(C(=O)COC(=O)C(C)(C)C)CCC34)C2(C)CC1",
        "Molecular Formula": "C<sub>26</sub>H<sub>38</sub>O<sub>4</sub>",
        "Molecular Mass": "414.58",
        "Melting Point": "200-202.5 °C"
    }
}