{
    "cas_no": "4354-49-8",
    "key_name": "α-Oxocyclohexaneacetic acid",
    "cn_name": null,
    "alternate_name": "Cyclohexaneacetic acid, α-oxo-;Cyclohexaneglyoxylic acid;α-Oxocyclohexaneacetic acid;Cyclohexylglyoxylic acid;2-Cyclohexyl-2-oxoacetic acid",
    "duplicated_cas_no": "",
    "SMILES": "C(C(O)=O)(=O)C1CCCCC1",
    "meta_data": {
        "InChI": "InChI=1S/C8H12O3/c9-7(8(10)11)6-4-2-1-3-5-6/h6H,1-5H2,(H,10,11)",
        "InChIKey": null,
        "Canonical SMILES": "O=C(O)C(=O)C1CCCCC1",
        "Molecular Formula": "C<sub>8</sub>H<sub>12</sub>O<sub>3</sub>",
        "Molecular Mass": "156.18",
        "Boiling Point": "90-100 °C @ Press: 0.5 Torr",
        "Melting Point": "45-49 °C"
    }
}