{
    "cas_no": "375-34-8",
    "key_name": "2,2,3,3-Tetrachloro-1,1,1,4,4,4-hexafluorobutane",
    "cn_name": "六氟-2,2,3,3-四氯丁烷;",
    "alternate_name": "Butane, 2,2,3,3-tetrachloro-1,1,1,4,4,4-hexafluoro-;Butane, 2,2,3,3-tetrachlorohexafluoro-;2,2,3,3-Tetrachloro-1,1,1,4,4,4-hexafluorobutane;FC 316maa;CFC 316;1,1,1,4,4,4-Hexafluoro-2,2,3,3-tetrachlorobutane;NSC 60525;2,2,3,3-Tetrachlorohexafluorobutane",
    "duplicated_cas_no": "",
    "SMILES": "C(C(C(F)(F)F)(Cl)Cl)(C(F)(F)F)(Cl)Cl",
    "meta_data": {
        "InChI": "InChI=1S/C4Cl4F6/c5-1(6,3(9,10)11)2(7,8)4(12,13)14",
        "InChIKey": null,
        "Canonical SMILES": "FC(F)(F)C(Cl)(Cl)C(Cl)(Cl)C(F)(F)F",
        "Molecular Formula": "C<sub>4</sub>Cl<sub>4</sub>F<sub>6</sub>",
        "Molecular Mass": "303.85",
        "Boiling Point": "131 °C",
        "Melting Point": "83-84 °C"
    }
}