{
    "cas_no": "865363-93-5",
    "key_name": "2′-Deoxy-4′-<em>C</em>-ethynyl-2-fluoroadenosine",
    "cn_name": null,
    "alternate_name": "Adenosine, 2′-deoxy-4′-<em>C</em>-ethynyl-2-fluoro-;2′-Deoxy-4′-<em>C</em>-ethynyl-2-fluoroadenosine;4′-Ethynyl-2-fluoro-2′-deoxyadenosine;MK 8591;Islatravir",
    "duplicated_cas_no": "1189790-66-6",
    "SMILES": "NC1=C2C(N(C=N2)[C@@H]3O[C@](C#C)(CO)[C@@H](O)C3)=NC(F)=N1",
    "meta_data": {
        "InChI": "InChI=1S/C12H12FN5O3/c1-2-12(4-19)6(20)3-7(21-12)18-5-15-8-9(14)16-11(13)17-10(8)18/h1,5-7,19-20H,3-4H2,(H2,14,16,17)/t6-,7+,12+/m0/s1",
        "InChIKey": null,
        "Canonical SMILES": "FC=1N=C(N)C=2N=CN(C2N1)C3OC(C#C)(CO)C(O)C3",
        "Molecular Formula": "C<sub>12</sub>H<sub>12</sub>FN<sub>5</sub>O<sub>3</sub>",
        "Molecular Mass": "293.25",
        "Melting Point": "220.0-221.4 °C (decomp)"
    }
}