{
    "cas_no": "3237-62-5",
    "key_name": "5,6-Dichloro-1-ethyl-2-methyl-1<em>H</em>-benzimidazole",
    "cn_name": "1-乙基-2-甲基-5,6-二氯苯并咪唑;",
    "alternate_name": "1<em>H</em>-Benzimidazole, 5,6-dichloro-1-ethyl-2-methyl-;Benzimidazole, 5,6-dichloro-1-ethyl-2-methyl-;5,6-Dichloro-1-ethyl-2-methyl-1<em>H</em>-benzimidazole;5,6-Dichloro-1-ethyl-2-methylbenzimidazole;1-Ethyl-2-methyl-5,6-dichlorobenzimidazole",
    "duplicated_cas_no": "",
    "SMILES": "C(C)N1C=2C(N=C1C)=CC(Cl)=C(Cl)C2",
    "meta_data": {
        "InChI": "InChI=1S/C10H10Cl2N2/c1-3-14-6(2)13-9-4-7(11)8(12)5-10(9)14/h4-5H,3H2,1-2H3",
        "InChIKey": null,
        "Canonical SMILES": "ClC1=CC=2N=C(N(C2C=C1Cl)CC)C",
        "Molecular Formula": "C<sub>10</sub>H<sub>10</sub>Cl<sub>2</sub>N<sub>2</sub>",
        "Molecular Mass": "229.11",
        "Boiling Point": "185-195 °C @ Press: 4 Torr",
        "Melting Point": "80-85 °C"
    }
}