{
    "cas_no": "3919-76-4",
    "key_name": "3-(2,6-Dichlorophenyl)-5-methylisoxazole-4-carboxylic acid",
    "cn_name": "3-(2,6-二氯苯基)-5-甲基异恶唑-4-羧酸;",
    "alternate_name": "4-Isoxazolecarboxylic acid, 3-(2,6-dichlorophenyl)-5-methyl-;3-(2,6-Dichlorophenyl)-5-methyl-4-isoxazolecarboxylic acid;3-(2,6-Dichlorophenyl)-5-methyl-4-isoxazolylcarboxylic acid;5-Methyl-3-(2,6-dichlorophenyl)isoxazole-4-carboxylic acid;3-(2,6-Dichlorophenyl)-5-methylisoxazole-4-carboxylic acid",
    "duplicated_cas_no": "",
    "SMILES": "ClC1=C(C(Cl)=CC=C1)C=2C(C(O)=O)=C(C)ON2",
    "meta_data": {
        "InChI": "InChI=1S/C11H7Cl2NO3/c1-5-8(11(15)16)10(14-17-5)9-6(12)3-2-4-7(9)13/h2-4H,1H3,(H,15,16)",
        "InChIKey": null,
        "Canonical SMILES": "O=C(O)C=1C(=NOC1C)C=2C(Cl)=CC=CC2Cl",
        "Molecular Formula": "C<sub>11</sub>H<sub>7</sub>Cl<sub>2</sub>NO<sub>3</sub>",
        "Molecular Mass": "272.08",
        "Melting Point": "220-221 °C"
    }
}