{
    "cas_no": "6629-29-4",
    "key_name": "2,4-Diamino-6-nitrotoluene",
    "cn_name": null,
    "alternate_name": "1,3-Benzenediamine, 4-methyl-5-nitro-;4-Methyl-5-nitro-1,3-benzenediamine;2-Nitro-4,6-diaminotoluene;2,4-Diamino-6-nitrotoluene;NSC 58082;NSC 58161",
    "duplicated_cas_no": "",
    "SMILES": "N(=O)(=O)C1=C(C)C(N)=CC(N)=C1",
    "meta_data": {
        "InChI": "InChI=1S/C7H9N3O2/c1-4-6(9)2-5(8)3-7(4)10(11)12/h2-3H,8-9H2,1H3",
        "InChIKey": null,
        "Canonical SMILES": "O=N(=O)C=1C=C(N)C=C(N)C1C",
        "Molecular Formula": "C<sub>7</sub>H<sub>9</sub>N<sub>3</sub>O<sub>2</sub>",
        "Molecular Mass": "167.17",
        "Melting Point": "135 °C"
    }
}