{
    "cas_no": "80681-42-1",
    "key_name": "5-<em>O</em>-Methylvisamminol",
    "cn_name": null,
    "alternate_name": "5<em>H</em>-Furo[3,2-<em>g</em>][1]benzopyran-5-one, 2,3-dihydro-2-(1-hydroxy-1-methylethyl)-4-methoxy-7-methyl-, (2<em>S</em>)-;5<em>H</em>-Furo[3,2-<em>g</em>][1]benzopyran-5-one, 2,3-dihydro-2-(1-hydroxy-1-methylethyl)-4-methoxy-7-methyl-, (<em>S</em>)-;(2<em>S</em>)-2,3-Dihydro-2-(1-hydroxy-1-methylethyl)-4-methoxy-7-methyl-5<em>H</em>-furo[3,2-<em>g</em>][1]benzopyran-5-one;5-<em>O</em>-Methylvisamminol",
    "duplicated_cas_no": "",
    "SMILES": "O(C)C=1C2=C(C=C3C1C[C@@H]([C@](C)(C)O)O3)OC(C)=CC2=O",
    "meta_data": {
        "InChI": "InChI=1S/C16H18O5/c1-8-5-10(17)14-12(20-8)7-11-9(15(14)19-4)6-13(21-11)16(2,3)18/h5,7,13,18H,6H2,1-4H3/t13-/m0/s1",
        "InChIKey": null,
        "Canonical SMILES": "O=C1C=C(OC=2C=C3OC(CC3=C(OC)C12)C(O)(C)C)C",
        "Molecular Formula": "C<sub>16</sub>H<sub>18</sub>O<sub>5</sub>",
        "Molecular Mass": "290.31",
        "Melting Point": "133-135 °C"
    }
}