{
    "cas_no": "645-08-9",
    "key_name": "Isovanillic acid",
    "cn_name": "3-羟基-4-甲氧基苯甲酸;异香兰酸;",
    "alternate_name": "Benzoic acid, 3-hydroxy-4-methoxy-;Isovanillic acid;<em>p</em>-Anisic acid, 3-hydroxy-;3-Hydroxy-4-methoxybenzoic acid;3-Hydroxy-<em>p</em>-anisic acid;5-Carboxy-2-methoxyphenol;4-Methoxy-3-hydroxybenzoic acid",
    "duplicated_cas_no": "",
    "SMILES": "C(O)(=O)C1=CC(O)=C(OC)C=C1",
    "meta_data": {
        "InChI": "InChI=1S/C8H8O4/c1-12-7-3-2-5(8(10)11)4-6(7)9/h2-4,9H,1H3,(H,10,11)",
        "InChIKey": null,
        "Canonical SMILES": "O=C(O)C1=CC=C(OC)C(O)=C1",
        "Molecular Formula": "C<sub>8</sub>H<sub>8</sub>O<sub>4</sub>",
        "Molecular Mass": "168.15",
        "Melting Point": "251 °C"
    }
}