{
    "cas_no": "18794-77-9",
    "key_name": "2-Hexylthiophene",
    "cn_name": "2-正己基噻吩;2-己基噻吩;乙琉苯;",
    "alternate_name": "Thiophene, 2-hexyl-;2-Hexylthiophene;α-Hexylthiophene;2-<em>n</em>-Hexylthiophene",
    "duplicated_cas_no": "",
    "SMILES": "C(CCCCC)C1=CC=CS1",
    "meta_data": {
        "InChI": "InChI=1S/C10H16S/c1-2-3-4-5-7-10-8-6-9-11-10/h6,8-9H,2-5,7H2,1H3",
        "InChIKey": null,
        "Canonical SMILES": "S1C=CC=C1CCCCCC",
        "Molecular Formula": "C<sub>10</sub>H<sub>16</sub>S",
        "Molecular Mass": "168.30",
        "Boiling Point": "79-82 °C @ Press: 1 Torr",
        "Density": "0.946 g/cm³ @ Temp: 20 °C"
    }
}