{
    "cas_no": "4880-92-6",
    "key_name": "Apovincamine",
    "cn_name": "阿扑长春胺;阿扑长春胺;",
    "alternate_name": "Eburnamenine-14-carboxylic acid, methyl ester, (3α,16α)-;Apovincamine;1<em>H</em>-Indolo[3,2,1-<em>de</em>]pyrido[3,2,1-<em>ij</em>][1,5]naphthyridine, eburnamenine-14-carboxylic acid deriv.;(+)-<em>cis</em>-Apovincamine;<em>cis</em>-Apovincamine;(+)-Apovincamine;Methyl (3α,16α)-eburnamenine-14-carboxylate;Apovincanmine",
    "duplicated_cas_no": "26532-96-7",
    "SMILES": "C(C)[C@]12[C@]3(C=4N(C=5C(C4CCN3CCC1)=CC=CC5)C(C(OC)=O)=C2)[H]",
    "meta_data": {
        "InChI": "InChI=1S/C21H24N2O2/c1-3-21-10-6-11-22-12-9-15-14-7-4-5-8-16(14)23(18(15)19(21)22)17(13-21)20(24)25-2/h4-5,7-8,13,19H,3,6,9-12H2,1-2H3/t19-,21+/m1/s1",
        "InChIKey": null,
        "Canonical SMILES": "O=C(OC)C1=CC2(CC)CCCN3CCC=4C=5C=CC=CC5N1C4C32",
        "Molecular Formula": "C<sub>21</sub>H<sub>24</sub>N<sub>2</sub>O<sub>2</sub>",
        "Molecular Mass": "336.43",
        "Melting Point": "159-161 °C"
    }
}