{
    "cas_no": "14123-48-9",
    "key_name": "1-(Dimethylamino)-2-methyl-2-propanol",
    "cn_name": null,
    "alternate_name": "2-Propanol, 1-(dimethylamino)-2-methyl-;1-(Dimethylamino)-2-methyl-2-propanol;1-Dimethylamino-2-methyl-2-propanol;<em>N</em>,<em>N</em>-Dimethyl-3-amino-2-methyl-2-propanol;2-Methyl-1-dimethylamino-2-propanol;<em>N</em>,<em>N</em>-Dimethyl-1-amino-2-methyl-2-propanol",
    "duplicated_cas_no": "",
    "SMILES": "C(C(C)(C)O)N(C)C",
    "meta_data": {
        "InChI": "InChI=1S/C6H15NO/c1-6(2,8)5-7(3)4/h8H,5H2,1-4H3",
        "InChIKey": null,
        "Canonical SMILES": "OC(C)(C)CN(C)C",
        "Molecular Formula": "C<sub>6</sub>H<sub>15</sub>NO",
        "Molecular Mass": "117.19",
        "Boiling Point": "130 °C @ Press: 758 Torr",
        "Density": "0.85881 g/cm³ @ Temp: 20 °C"
    }
}