{
    "cas_no": "342652-67-9",
    "key_name": "3-(1,1-Dimethylethyl)-7-(5-methyl-3-isoxazolyl)-2-[(1-methyl-1<em>H</em>-1,2,4-triazol-5-yl)methoxy]pyrazolo[1,5-<em>d</em>][1,2,4]triazine",
    "cn_name": null,
    "alternate_name": "Pyrazolo[1,5-<em>d</em>][1,2,4]triazine, 3-(1,1-dimethylethyl)-7-(5-methyl-3-isoxazolyl)-2-[(1-methyl-1<em>H</em>-1,2,4-triazol-5-yl)methoxy]-;3-(1,1-Dimethylethyl)-7-(5-methyl-3-isoxazolyl)-2-[(1-methyl-1<em>H</em>-1,2,4-triazol-5-yl)methoxy]pyrazolo[1,5-<em>d</em>][1,2,4]triazine;MRK 016",
    "duplicated_cas_no": "783331-24-8",
    "SMILES": "C(C)(C)(C)C1=C2N(C(=NN=C2)C3=NOC(C)=C3)N=C1OCC=4N(C)N=CN4",
    "meta_data": {
        "InChI": "InChI=1S/C17H20N8O2/c1-10-6-11(23-27-10)15-21-19-7-12-14(17(2,3)4)16(22-25(12)15)26-8-13-18-9-20-24(13)5/h6-7,9H,8H2,1-5H3",
        "InChIKey": null,
        "Canonical SMILES": "N=1N=C(C2=NOC(=C2)C)N3N=C(OCC4=NC=NN4C)C(=C3C1)C(C)(C)C",
        "Molecular Formula": "C<sub>17</sub>H<sub>20</sub>N<sub>8</sub>O<sub>2</sub>",
        "Molecular Mass": "368.39",
        "Melting Point": "175-176 °C"
    }
}