{
    "cas_no": "185-72-8",
    "key_name": "1,6-Dioxaspiro[2.5]octane",
    "cn_name": null,
    "alternate_name": "1,6-Dioxaspiro[2.5]octane;Tetrahydrospiro[oxirane-2,4′-[4<em>H</em>]pyran]",
    "duplicated_cas_no": "",
    "SMILES": "C12(CO1)CCOCC2",
    "meta_data": {
        "InChI": "InChI=1S/C6H10O2/c1-3-7-4-2-6(1)5-8-6/h1-5H2",
        "InChIKey": null,
        "Canonical SMILES": "O1CCC2(OC2)CC1",
        "Molecular Formula": "C<sub>6</sub>H<sub>10</sub>O<sub>2</sub>",
        "Molecular Mass": "114.14",
        "Boiling Point": "60 °C @ Press: 145 Torr",
        "Density": "1.044 g/cm³ @ Temp: 20 °C"
    }
}