{
    "cas_no": "56293-29-9",
    "key_name": "Aloperine",
    "cn_name": null,
    "alternate_name": "6,13-Methano-2<em>H</em>-dipyrido[1,2-<em>a</em>:3′,2′-<em>e</em>]azocine, 1,3,4,6,6a,7,8,9,10,12,13,13a-dodecahydro-, (6<em>R</em>,6a<em>R</em>,13<em>R</em>,13a<em>S</em>)-;Aloperine;Ormosanine, 16,17-didehydro-9-de-2-piperidinyl-, (7α,9α)-;6,13-Methano-2<em>H</em>-dipyrido[1,2-<em>a</em>:3′,2′-<em>e</em>]azocine, ormosanine deriv.;(6<em>R</em>,6a<em>R</em>,13<em>R</em>,13a<em>S</em>)-1,3,4,6,6a,7,8,9,10,12,13,13a-Dodecahydro-6,13-methano-2<em>H</em>-dipyrido[1,2-<em>a</em>:3′,2′-<em>e</em>]azocine;6,13-Methano-2<em>H</em>-dipyrido[1,2-<em>a</em>:3′,2′-<em>e</em>]azocine, 1,3,4,6,6a,7,8,9,10,12,13,13a-dodecahydro-, [6<em>R</em>-(6α,6aβ,13α,13aα)]-",
    "duplicated_cas_no": "1354-23-0",
    "SMILES": "[C@]12([C@]3(C(=C[C@@](C1)([C@@]4(N(C2)CCCC4)[H])[H])CCCN3)[H])[H]",
    "meta_data": {
        "InChI": "InChI=1S/C15H24N2/c1-2-7-17-10-13-9-12(14(17)5-1)8-11-4-3-6-16-15(11)13/h8,12-16H,1-7,9-10H2/t12-,13+,14+,15+/m0/s1",
        "InChIKey": null,
        "Canonical SMILES": "C1=C2CCCNC2C3CN4CCCCC4C1C3",
        "Molecular Formula": "C<sub>15</sub>H<sub>24</sub>N<sub>2</sub>",
        "Molecular Mass": "232.36",
        "Melting Point": "73-75 °C"
    }
}