{
    "cas_no": "2629-68-7",
    "key_name": "1,4-Bis(chlorodifluoromethyl)benzene",
    "cn_name": null,
    "alternate_name": "Benzene, 1,4-bis(chlorodifluoromethyl)-;<em>p</em>-Xylene, α,α′-dichloro-α,α,α′,α′-tetrafluoro-;1,4-Bis(chlorodifluoromethyl)benzene;α,α′-Dichloro-α,α,α′,α′-tetrafluoro-<em>p</em>-xylene;<em>p</em>-Bis(chlorodifluoromethyl)benzene;1,4-Bis-(difluorochloromethyl)-benzene",
    "duplicated_cas_no": "",
    "SMILES": "C(Cl)(F)(F)C1=CC=C(C(Cl)(F)F)C=C1",
    "meta_data": {
        "InChI": "InChI=1S/C8H4Cl2F4/c9-7(11,12)5-1-2-6(4-3-5)8(10,13)14/h1-4H",
        "InChIKey": null,
        "Canonical SMILES": "FC(F)(Cl)C1=CC=C(C=C1)C(F)(F)Cl",
        "Molecular Formula": "C<sub>8</sub>H<sub>4</sub>Cl<sub>2</sub>F<sub>4</sub>",
        "Molecular Mass": "247.02",
        "Boiling Point": "86-90 °C @ Press: 34 Torr"
    }
}