{
    "cas_no": "70415-86-0",
    "key_name": "1-[(1-Methylethyl)sulfonyl]-2-nitrobenzene",
    "cn_name": null,
    "alternate_name": "Benzene, 1-[(1-methylethyl)sulfonyl]-2-nitro-;1-[(1-Methylethyl)sulfonyl]-2-nitrobenzene;Isopropyl 2-nitrophenyl sulfone;1-(Isopropylsulfonyl)-2-nitrobenzene",
    "duplicated_cas_no": "",
    "SMILES": "S(C(C)C)(=O)(=O)C1=C(N(=O)=O)C=CC=C1",
    "meta_data": {
        "InChI": "InChI=1S/C9H11NO4S/c1-7(2)15(13,14)9-6-4-3-5-8(9)10(11)12/h3-7H,1-2H3",
        "InChIKey": null,
        "Canonical SMILES": "O=N(=O)C=1C=CC=CC1S(=O)(=O)C(C)C",
        "Molecular Formula": "C<sub>9</sub>H<sub>11</sub>NO<sub>4</sub>S",
        "Molecular Mass": "229.25",
        "Melting Point": "59.5 °C"
    }
}