{
    "cas_no": "23505-41-1",
    "key_name": "Pirimiphos ethyl",
    "cn_name": "嘧啶磷;O-2-二乙胺基-6-甲基嘧啶-4-基-O,O-二乙基硫代磷酸酯;",
    "alternate_name": "Phosphorothioic acid, <em>O</em>-[2-(diethylamino)-6-methyl-4-pyrimidinyl] <em>O</em>,<em>O</em>-diethyl ester;R 42211;PP 211;<em>O</em>-(2-Diethylamino-4-methyl-6-pyrimidyl) <em>O</em>,<em>O</em>-diethyl phosphorothioate;<em>O</em>,<em>O</em>-Diethyl <em>O</em>-(2-diethylamino-6-methyl-4-pyrimidinyl)phosphorothioate;<em>O</em>-[2-(Diethylamino)-6-methyl-4-pyrimidinyl] <em>O</em>,<em>O</em>-diethyl phosphorothioate;Primicid;Pirimiphos ethyl;2-Diethylamino-6-methyl-pyrimidin-4-yl-diethylphosphorothionate;Fernex;SolGard;Ethyl pirimiphos;Pirimiphos A",
    "duplicated_cas_no": "12648-52-1",
    "SMILES": "O(P(OCC)(OCC)=S)C1=NC(N(CC)CC)=NC(C)=C1",
    "meta_data": {
        "InChI": "InChI=1S/C13H24N3O3PS/c1-6-16(7-2)13-14-11(5)10-12(15-13)19-20(21,17-8-3)18-9-4/h10H,6-9H2,1-5H3",
        "InChIKey": null,
        "Canonical SMILES": "S=P(OC1=NC(=NC(=C1)C)N(CC)CC)(OCC)OCC",
        "Molecular Formula": "C<sub>13</sub>H<sub>24</sub>N<sub>3</sub>O<sub>3</sub>PS",
        "Molecular Mass": "333.39",
        "Melting Point": "15-18 °C",
        "Density": "1.14 g/cm³ @ Temp: 20 °C"
    }
}