{
    "cas_no": "161513-47-9",
    "key_name": "1,1-Dimethylethyl <em>N</em>-[(2<em>S</em>)-2-oxiranylmethyl]carbamate",
    "cn_name": null,
    "alternate_name": "Carbamic acid, <em>N</em>-[(2<em>S</em>)-2-oxiranylmethyl]-, 1,1-dimethylethyl ester;Carbamic acid, (oxiranylmethyl)-, 1,1-dimethylethyl ester, (<em>S</em>)-;Carbamic acid, [(2<em>S</em>)-oxiranylmethyl]-, 1,1-dimethylethyl ester;1,1-Dimethylethyl <em>N</em>-[(2<em>S</em>)-2-oxiranylmethyl]carbamate;<em>tert</em>-Butyl (2<em>S</em>)-oxiranylmethylcarbamate;((2<em>S</em>)-Oxiranylmethyl)carbamic acid 1,1-dimethylethyl Ester;(<em>S</em>)-<em>N</em>-((Oxiran-2-yl)methyl)carbamate tert-butyl ester;(<em>S</em>)-<em>tert</em>-Butyl (oxiran-2-ylmethyl)carbamate",
    "duplicated_cas_no": "",
    "SMILES": "C(NC(OC(C)(C)C)=O)[C@H]1CO1",
    "meta_data": {
        "InChI": "InChI=1S/C8H15NO3/c1-8(2,3)12-7(10)9-4-6-5-11-6/h6H,4-5H2,1-3H3,(H,9,10)/t6-/m0/s1",
        "InChIKey": null,
        "Canonical SMILES": "O=C(OC(C)(C)C)NCC1OC1",
        "Molecular Formula": "C<sub>8</sub>H<sub>15</sub>NO<sub>3</sub>",
        "Molecular Mass": "173.21",
        "Melting Point": "45-49 °C"
    }
}