{
    "cas_no": "613-54-7",
    "key_name": "2-(Bromoacetyl)naphthalene",
    "cn_name": "2-(溴乙酰基)萘;2-溴代-2-乙酰基萘;2-萘基溴甲基酮;溴甲基-2-萘酮;2-(溴乙酰基)萘;",
    "alternate_name": "Ethanone, 2-bromo-1-(2-naphthalenyl)-;2′-Acetonaphthone, 2-bromo-;2-Bromo-1-(2-naphthalenyl)ethanone;α-Bromo-2′-acetonaphthone;α-Bromo-2-acetonaphthone;2-Naphthacyl bromide;Bromomethyl 2-naphthyl ketone;2-Naphthoylmethyl bromide;2-(Bromoacetyl)naphthalene;2-Bromo-2′-acetonaphthone;β-Naphthacyl bromide;ω-Bromo-2-acetonaphthalene;2-(2-Bromoacetyl)naphthalene;2-Bromo-1-(2-naphthyl)-1-ethanone;ω-Bromo-2-acetonaphthone;2-Bromo-1-(2-naphthyl)ethanone;NSC 36849;2-(α-Bromoacetyl)naphthalene;2-Bromo-1-(naphthalen-2-yl)ethan-1-one",
    "duplicated_cas_no": "",
    "SMILES": "C(CBr)(=O)C1=CC2=C(C=C1)C=CC=C2",
    "meta_data": {
        "InChI": "InChI=1S/C12H9BrO/c13-8-12(14)11-6-5-9-3-1-2-4-10(9)7-11/h1-7H,8H2",
        "InChIKey": null,
        "Canonical SMILES": "O=C(C=1C=CC=2C=CC=CC2C1)CBr",
        "Molecular Formula": "C<sub>12</sub>H<sub>9</sub>BrO",
        "Molecular Mass": "249.10",
        "Melting Point": "82.5-83.5 °C"
    }
}