{
    "cas_no": "432-60-0",
    "key_name": "Allylestrenol",
    "cn_name": "烯丙雌醇;",
    "alternate_name": "Estr-4-en-17-ol, 17-(2-propen-1-yl)-, (17β)-;Estr-4-en-17β-ol, 17-allyl-;Estr-4-en-17-ol, 17-(2-propenyl)-, (17β)-;(17β)-17-(2-Propen-1-yl)estr-4-en-17-ol;Allylestrenol;17α-Allylestr-4-en-17β-ol;17α-Allyl-17β-hydroxy-Δ<sup>4</sup>-estren;Gestanin;Gestanon;17α-Allylestrenol;Gestanol;Orageston;Turinal;17α-Allyl-4-oestren-17β-ol;NSC 37723;MeSH ID: D000500",
    "duplicated_cas_no": "26624-23-7",
    "SMILES": "C[C@@]12[C@]([C@]3([C@](CC1)([C@@]4(C(CC3)=CCCC4)[H])[H])[H])(CC[C@]2(CC=C)O)[H]",
    "meta_data": {
        "InChI": "InChI=1S/C21H32O/c1-3-12-21(22)14-11-19-18-9-8-15-6-4-5-7-16(15)17(18)10-13-20(19,21)2/h3,6,16-19,22H,1,4-5,7-14H2,2H3/t16-,17+,18+,19-,20-,21-/m0/s1",
        "InChIKey": null,
        "Canonical SMILES": "OC1(CC=C)CCC2C3CCC4=CCCCC4C3CCC21C",
        "Molecular Formula": "C<sub>21</sub>H<sub>32</sub>O",
        "Molecular Mass": "300.48",
        "Melting Point": "80 °C"
    }
}