{
    "cas_no": "1115-69-1",
    "key_name": "<em>N</em>-Acetylalanine",
    "cn_name": "N-乙酰-DL-丙氨酸;",
    "alternate_name": "Alanine, <em>N</em>-acetyl-;Alanine, <em>N</em>-acetyl-, <span class=\"text-smallcaps\">DL</span>-;<em>N</em>-Acetylalanine;<em>N</em>-Acetyl-<span class=\"text-smallcaps\">DL</span>-alanine;Acetyl-<span class=\"text-smallcaps\">DL</span>-alanine;2-Acetamidopropionic acid;2-(Acetylamino)propanoic acid;NSC 43118;2-Acetamidopropanoic acid",
    "duplicated_cas_no": "",
    "SMILES": "C(NC(C)=O)(C(O)=O)C",
    "meta_data": {
        "InChI": "InChI=1S/C5H9NO3/c1-3(5(8)9)6-4(2)7/h3H,1-2H3,(H,6,7)(H,8,9)",
        "InChIKey": null,
        "Canonical SMILES": "O=C(O)C(NC(=O)C)C",
        "Molecular Formula": "C<sub>5</sub>H<sub>9</sub>NO<sub>3</sub>",
        "Molecular Mass": "131.13",
        "Melting Point": "136-137 °C"
    }
}