{
    "cas_no": "12017-12-8",
    "key_name": "Cobalt silicide (CoSi<sub>2</sub>)",
    "cn_name": null,
    "alternate_name": "Cobalt silicide (CoSi<sub>2</sub>);Cobalt disilicide",
    "duplicated_cas_no": "264125-06-6;803745-60-0;852177-80-1;869698-88-4;1314941-74-6",
    "SMILES": "",
    "meta_data": {
        "InChI": "",
        "InChIKey": null,
        "Canonical SMILES": "",
        "Molecular Formula": "CoSi<sub>2</sub>",
        "Molecular Mass": "",
        "Melting Point": "1327 °C"
    }
}