{
    "cas_no": "5466-84-2",
    "key_name": "4-Nitrophthalic anhydride",
    "cn_name": "4-硝基苯酐;4-硝基邻苯二甲酸酐;",
    "alternate_name": "1,3-Isobenzofurandione, 5-nitro-;Phthalic anhydride, 4-nitro-;5-Nitro-1,3-isobenzofurandione;4-Nitrophthalic anhydride;4-Nitrophthalic acid anhydride;5-Nitrophthalic anhydride;5-Nitroisobenzofuran-1,3-dione;NSC 26424",
    "duplicated_cas_no": "",
    "SMILES": "O=C1C=2C(C(=O)O1)=CC=C(N(=O)=O)C2",
    "meta_data": {
        "InChI": "InChI=1S/C8H3NO5/c10-7-5-2-1-4(9(12)13)3-6(5)8(11)14-7/h1-3H",
        "InChIKey": null,
        "Canonical SMILES": "O=C1OC(=O)C2=CC(=CC=C12)N(=O)=O",
        "Molecular Formula": "C<sub>8</sub>H<sub>3</sub>NO<sub>5</sub>",
        "Molecular Mass": "193.11",
        "Melting Point": "114 °C",
        "Density": "1.441 g/cm³ @ Temp: 25.00 °C"
    }
}