{
    "cas_no": "38559-92-1",
    "key_name": "2-[4-(Phenylmethoxy)phenoxy]acetic acid",
    "cn_name": "(4-苯甲氧基)苯氧基乙酸;",
    "alternate_name": "Acetic acid, 2-[4-(phenylmethoxy)phenoxy]-;Acetic acid, [4-(phenylmethoxy)phenoxy]-;Acetic acid, [<em>p</em>-(benzyloxy)phenoxy]-;2-[4-(Phenylmethoxy)phenoxy]acetic acid;4-(Benzyloxy)phenoxyacetic acid;2-[4-(Benzyloxy)phenoxy]acetic acid",
    "duplicated_cas_no": "",
    "SMILES": "O(CC1=CC=CC=C1)C2=CC=C(OCC(O)=O)C=C2",
    "meta_data": {
        "InChI": "InChI=1S/C15H14O4/c16-15(17)11-19-14-8-6-13(7-9-14)18-10-12-4-2-1-3-5-12/h1-9H,10-11H2,(H,16,17)",
        "InChIKey": null,
        "Canonical SMILES": "O=C(O)COC1=CC=C(OCC=2C=CC=CC2)C=C1",
        "Molecular Formula": "C<sub>15</sub>H<sub>14</sub>O<sub>4</sub>",
        "Molecular Mass": "258.27",
        "Melting Point": "140 °C"
    }
}