{
    "cas_no": "1117-77-7",
    "key_name": "<em>N</em>-Acetylglycine methyl ester",
    "cn_name": "(乙酰氨基)乙酸甲酯;",
    "alternate_name": "Glycine, <em>N</em>-acetyl-, methyl ester;Aceturic acid, methyl ester;<em>N</em>-Acetylglycine methyl ester;Methyl acetylglycinate;Methyl <em>N</em>-acetylglycinate;Methyl <em>N</em>-acetylglycine;Methyl 2-acetamidoacetate",
    "duplicated_cas_no": "",
    "SMILES": "C(CNC(C)=O)(OC)=O",
    "meta_data": {
        "InChI": "InChI=1S/C5H9NO3/c1-4(7)6-3-5(8)9-2/h3H2,1-2H3,(H,6,7)",
        "InChIKey": null,
        "Canonical SMILES": "O=C(OC)CNC(=O)C",
        "Molecular Formula": "C<sub>5</sub>H<sub>9</sub>NO<sub>3</sub>",
        "Molecular Mass": "131.13",
        "Melting Point": "58 °C"
    }
}