{
    "cas_no": "17216-08-9",
    "key_name": "2-Acetyl-1-tetralone",
    "cn_name": "2-乙酰基-1-四氢萘酮;2-乙酰-1-四酮;",
    "alternate_name": "1(2<em>H</em>)-Naphthalenone, 2-acetyl-3,4-dihydro-;2′-Acetonaphthone, 1′,2′,3′,4′-tetrahydro-1′-oxo-;2-Acetyl-3,4-dihydro-1(2<em>H</em>)-naphthalenone;2-Acetyl-1-tetralone;2-Acetyltetralone;2-Acetyl-1,2,3,4-tetrahydronaphthalen-1-one;2-Acetyl-3,4-dihydro-2<em>H</em>-naphthalen-1-one",
    "duplicated_cas_no": "",
    "SMILES": "O=C1C=2C(CCC1C(C)=O)=CC=CC2",
    "meta_data": {
        "InChI": "InChI=1S/C12H12O2/c1-8(13)10-7-6-9-4-2-3-5-11(9)12(10)14/h2-5,10H,6-7H2,1H3",
        "InChIKey": null,
        "Canonical SMILES": "O=C1C=2C=CC=CC2CCC1C(=O)C",
        "Molecular Formula": "C<sub>12</sub>H<sub>12</sub>O<sub>2</sub>",
        "Molecular Mass": "188.22",
        "Melting Point": "56 °C"
    }
}