{
    "cas_no": "26830-96-6",
    "key_name": "2-Amino-4-methylbenzonitrile",
    "cn_name": "2-氨基-4-甲基苯甲腈;",
    "alternate_name": "Benzonitrile, 2-amino-4-methyl-;<em>p</em>-Tolunitrile, 2-amino-;2-Amino-4-methylbenzonitrile;2-Amino-<em>p</em>-toluonitrile;4-Methylanthranilonitrile;2-Cyano-5-methylaniline;4-Methyl-2-aminobenzonitrile",
    "duplicated_cas_no": "",
    "SMILES": "C(#N)C1=C(N)C=C(C)C=C1",
    "meta_data": {
        "InChI": "InChI=1S/C8H8N2/c1-6-2-3-7(5-9)8(10)4-6/h2-4H,10H2,1H3",
        "InChIKey": null,
        "Canonical SMILES": "N#CC1=CC=C(C=C1N)C",
        "Molecular Formula": "C<sub>8</sub>H<sub>8</sub>N<sub>2</sub>",
        "Molecular Mass": "132.16",
        "Boiling Point": "150-152 °C @ Press: 15 Torr",
        "Melting Point": "59-60 °C"
    }
}