{
    "cas_no": "35065-27-1",
    "key_name": "PCB 153",
    "cn_name": "2,2,4,4,5,5-六氯联苯;2,2,4,4,5,5-六氯联苯PCBNo153solution;",
    "alternate_name": "1,1′-Biphenyl, 2,2′,4,4′,5,5′-hexachloro-;Biphenyl, 2,2′,4,4′,5,5′-hexachloro-;2,2′,4,4′,5,5′-Hexachloro-1,1′-biphenyl;2,2′,4,4′,5,5′-Hexachlorobiphenyl;2,4,5,2′,4′,5′-Hexachlorobiphenyl;PCB 153;K 153;CB 153",
    "duplicated_cas_no": "",
    "SMILES": "ClC1=C(C=C(Cl)C(Cl)=C1)C2=C(Cl)C=C(Cl)C(Cl)=C2",
    "meta_data": {
        "InChI": "InChI=1S/C12H4Cl6/c13-7-3-11(17)9(15)1-5(7)6-2-10(16)12(18)4-8(6)14/h1-4H",
        "InChIKey": null,
        "Canonical SMILES": "ClC=1C=C(Cl)C(=CC1Cl)C=2C=C(Cl)C(Cl)=CC2Cl",
        "Molecular Formula": "C<sub>12</sub>H<sub>4</sub>Cl<sub>6</sub>",
        "Molecular Mass": "360.88",
        "Melting Point": "137-138 °C"
    }
}