{
    "cas_no": "51-03-6",
    "key_name": "Piperonyl butoxide",
    "cn_name": "增效醚;胡椒基丁醚;3,4-亚甲二氧基-6-正丙基苄基正丁基二缩乙二醇醚;",
    "alternate_name": "1,3-Benzodioxole, 5-[[2-(2-butoxyethoxy)ethoxy]methyl]-6-propyl-;Toluene, α-[2-(2-butoxyethoxy)ethoxy]-4,5-(methylenedioxy)-2-propyl-;5-[[2-(2-Butoxyethoxy)ethoxy]methyl]-6-propyl-1,3-benzodioxole;ENT 14,250;Butocide;α-[2-(2-Butoxyethoxy)ethoxy]-4,5-methylenedioxy-2-propyltoluene;α-[2-(2-<em>n</em>-Butoxyethoxy)-ethoxy]-4,5-methylenedioxy-2-propyltoluene;Butyl carbitol 6-propylpiperonyl ether;6-Propylpiperonyl butyl diethylene glycol ether;Piperonyl butoxide;Butacide;Butoxide;Butoxide (synergist);Incite;PBO;NSC 8401;Buticide;Piperonyl;Zengxiaomi;MeSH ID: D010882",
    "duplicated_cas_no": "12750-92-4",
    "SMILES": "C(OCCOCCOCCCC)C=1C=C2C(=CC1CCC)OCO2",
    "meta_data": {
        "InChI": "InChI=1S/C19H30O5/c1-3-5-7-20-8-9-21-10-11-22-14-17-13-19-18(23-15-24-19)12-16(17)6-4-2/h12-13H,3-11,14-15H2,1-2H3",
        "InChIKey": null,
        "Canonical SMILES": "O1C=2C=C(C(=CC2OC1)CCC)COCCOCCOCCCC",
        "Molecular Formula": "C<sub>19</sub>H<sub>30</sub>O<sub>5</sub>",
        "Molecular Mass": "338.44",
        "Boiling Point": "180 °C @ Press: 1 Torr",
        "Melting Point": "&lt;25 °C",
        "Density": "1.06 g/cm³ @ Temp: 20 °C"
    }
}