{
    "cas_no": "40649-36-3",
    "key_name": "4-Propylcyclohexanone",
    "cn_name": "4-丙基环己基酮;对丙基环己基酮;",
    "alternate_name": "Cyclohexanone, 4-propyl-;4-Propylcyclohexanone;4-<em>n</em>-Propylcyclohexanone;4-Propyl-1-cyclohexanone",
    "duplicated_cas_no": "",
    "SMILES": "C(CC)C1CCC(=O)CC1",
    "meta_data": {
        "InChI": "InChI=1S/C9H16O/c1-2-3-8-4-6-9(10)7-5-8/h8H,2-7H2,1H3",
        "InChIKey": null,
        "Canonical SMILES": "O=C1CCC(CC1)CCC",
        "Molecular Formula": "C<sub>9</sub>H<sub>16</sub>O",
        "Molecular Mass": "140.22",
        "Boiling Point": "212 °C @ Press: 740 Torr",
        "Density": "0.9049 g/cm³ @ Temp: 25 °C"
    }
}