{
    "cas_no": "930-55-2",
    "key_name": "<em>N</em>-Nitrosopyrrolidine",
    "cn_name": "1-亚硝基吡咯烷;N-亚硝基吡咯烷1-Nitrosopyrrolidine;",
    "alternate_name": "Pyrrolidine, 1-nitroso-;1-Nitrosopyrrolidine;<em>N</em>-Nitrosopyrrolidine;NSC 18797;NPYR",
    "duplicated_cas_no": "68374-63-0",
    "SMILES": "N(=O)N1CCCC1",
    "meta_data": {
        "InChI": "InChI=1S/C4H8N2O/c7-5-6-3-1-2-4-6/h1-4H2",
        "InChIKey": null,
        "Canonical SMILES": "O=NN1CCCC1",
        "Molecular Formula": "C<sub>4</sub>H<sub>8</sub>N<sub>2</sub>O",
        "Molecular Mass": "100.12",
        "Boiling Point": "214 °C @ Press: 760 Torr",
        "Density": "1.10 g/cm³"
    }
}