{
    "cas_no": "22128-62-7",
    "key_name": "Chloromethyl chloroformate",
    "cn_name": "氯甲酸氯甲酯;",
    "alternate_name": "Carbonochloridic acid, chloromethyl ester;Formic acid, chloro-, chloromethyl ester;Chloromethyl chloroformate;Chloromethoxycarbonyl chloride;Chloromethyl carbonochloridate;Chloroformic acid chloromethyl ester;Chloromethyl chlorocarbonate;1-Chloromethyl chloroformate",
    "duplicated_cas_no": "",
    "SMILES": "O(C(Cl)=O)CCl",
    "meta_data": {
        "InChI": "InChI=1S/C2H2Cl2O2/c3-1-6-2(4)5/h1H2",
        "InChIKey": null,
        "Canonical SMILES": "O=C(Cl)OCCl",
        "Molecular Formula": "C<sub>2</sub>H<sub>2</sub>Cl<sub>2</sub>O<sub>2</sub>",
        "Molecular Mass": "128.94",
        "Boiling Point": "107 °C",
        "Density": "1.456 g/cm³ @ Temp: 15 °C"
    }
}