{
    "cas_no": "75-24-1",
    "key_name": "Trimethylaluminum",
    "cn_name": null,
    "alternate_name": "Aluminum, trimethyl-;Trimethylaluminum;Alane, trimethyl-;Trimethylaluminium;Trimethylalane;Trimethylaluminum (Al(CH<sub>3</sub>)<sub>3</sub>)",
    "duplicated_cas_no": "26628-81-9",
    "SMILES": "[Al](C)(C)C",
    "meta_data": {
        "InChI": "InChI=1S/3CH3.Al/h3*1H3;",
        "InChIKey": null,
        "Canonical SMILES": "[Al](C)(C)C",
        "Molecular Formula": "C<sub>3</sub>H<sub>9</sub>Al",
        "Molecular Mass": "",
        "Boiling Point": "130 °C",
        "Melting Point": "15.4 °C",
        "Density": "0.752 g/cm³ @ Temp: 20 °C"
    }
}