{
    "cas_no": "1314-34-7",
    "key_name": "Vanadium oxide (V<sub>2</sub>O<sub>3</sub>)",
    "cn_name": null,
    "alternate_name": "Vanadium oxide (V<sub>2</sub>O<sub>3</sub>);Vanadic oxide;Vanadium sesquioxide;Vanadium trioxide;Divanadium trioxide;Vanadium(3+) oxide",
    "duplicated_cas_no": "1073145-50-2;2222873-30-3",
    "SMILES": "",
    "meta_data": {
        "InChI": "",
        "InChIKey": null,
        "Canonical SMILES": "",
        "Molecular Formula": "O<sub>3</sub>V<sub>2</sub>",
        "Molecular Mass": "",
        "Melting Point": "1940 °C",
        "Density": "4.87 g/cm³"
    }
}