{
    "uri": "substance/pt/1314347",
    "rn": "1314-34-7",
    "name": "Vanadium oxide (V<sub>2</sub>O<sub>3</sub>)",
    "images": [],
    "inchi": "",
    "inchiKey": "",
    "smile": "",
    "canonicalSmile": "",
    "molecularFormula": "O<sub>3</sub>V<sub>2</sub>",
    "molecularMass": "",
    "experimentalProperties": [
        {
            "name": "Melting Point",
            "property": "1940 °C",
            "sourceNumber": 1
        },
        {
            "name": "Density",
            "property": "4.87 g/cm³",
            "sourceNumber": 1
        }
    ],
    "propertyCitations": [
        {
            "docUri": "",
            "sourceNumber": 1,
            "source": "Hazardous Substances Data Bank data were obtained from the National Library of Medicine (US)"
        }
    ],
    "synonyms": [
        "Vanadium oxide (V<sub>2</sub>O<sub>3</sub>)",
        "Vanadic oxide",
        "Vanadium sesquioxide",
        "Vanadium trioxide",
        "Divanadium trioxide",
        "Vanadium(3+) oxide"
    ],
    "replacedRns": [
        "1073145-50-2",
        "2222873-30-3"
    ],
    "hasMolfile": false,
    "source": "https://commonchemistry.cas.org/detail?cas_rn=1314-34-7"
}