{
    "cas_no": "932-49-0",
    "key_name": "1-(2-Hydroxyethyl)-2-imidazolidinethione",
    "cn_name": "1-(2-羟乙基)-2-硫代咪唑烷酮;",
    "alternate_name": "2-Imidazolidinethione, 1-(2-hydroxyethyl)-;1-(2-Hydroxyethyl)-2-imidazolidinethione;<em>N</em>-(2-Hydroxyethyl)ethylenethiourea;1-(2-Hydroxyethyl)ethylenethiourea;NSC 36624;NSC 64314;2-(2-Sulfanyl-4,5-dihydro-1<em>H</em>-imidazol-1-yl)ethan-1-ol",
    "duplicated_cas_no": "50354-65-9",
    "SMILES": "C(CO)N1C(=S)NCC1",
    "meta_data": {
        "InChI": "InChI=1S/C5H10N2OS/c8-4-3-7-2-1-6-5(7)9/h8H,1-4H2,(H,6,9)",
        "InChIKey": null,
        "Canonical SMILES": "S=C1NCCN1CCO",
        "Molecular Formula": "C<sub>5</sub>H<sub>10</sub>N<sub>2</sub>OS",
        "Molecular Mass": "146.21",
        "Melting Point": "136.5-137.5 °C"
    }
}