{
    "cas_no": "40530-18-5",
    "key_name": "5-Bromo-2-hydroxybenzonitrile",
    "cn_name": "5-溴-2-羟基苯甲腈;",
    "alternate_name": "Benzonitrile, 5-bromo-2-hydroxy-;5-Bromo-2-hydroxybenzonitrile;5-Bromosalicylonitrile;2-Hydroxy-5-bromobenzonitrile;4-Bromo-2-cyanophenol",
    "duplicated_cas_no": "",
    "SMILES": "C(#N)C1=C(O)C=CC(Br)=C1",
    "meta_data": {
        "InChI": "InChI=1S/C7H4BrNO/c8-6-1-2-7(10)5(3-6)4-9/h1-3,10H",
        "InChIKey": null,
        "Canonical SMILES": "N#CC1=CC(Br)=CC=C1O",
        "Molecular Formula": "C<sub>7</sub>H<sub>4</sub>BrNO",
        "Molecular Mass": "198.02",
        "Melting Point": "155-156 °C"
    }
}