{
    "cas_no": "66616-72-6",
    "key_name": "5-Phenyl-1<em>H</em>-indole",
    "cn_name": null,
    "alternate_name": "1<em>H</em>-Indole, 5-phenyl-;5-Phenyl-1<em>H</em>-indole;5-Phenylindole",
    "duplicated_cas_no": "",
    "SMILES": "C=1(C=C2C(=CC1)NC=C2)C3=CC=CC=C3",
    "meta_data": {
        "InChI": "InChI=1S/C14H11N/c1-2-4-11(5-3-1)12-6-7-14-13(10-12)8-9-15-14/h1-10,15H",
        "InChIKey": null,
        "Canonical SMILES": "C=1C=CC(=CC1)C2=CC=C3NC=CC3=C2",
        "Molecular Formula": "C<sub>14</sub>H<sub>11</sub>N",
        "Molecular Mass": "193.24",
        "Melting Point": "69.4-70.4 °C"
    }
}