{
    "cas_no": "355-42-0",
    "key_name": "Perfluorohexane",
    "cn_name": "十四氟己烷;全氟己烷;全氟正己烷;",
    "alternate_name": "Hexane, 1,1,1,2,2,3,3,4,4,5,5,6,6,6-tetradecafluoro-;Hexane, tetradecafluoro-;1,1,1,2,2,3,3,4,4,5,5,6,6,6-Tetradecafluorohexane;Perfluorohexane;Perfluoro-<em>n</em>-hexane;Tetradecafluorohexane;Flutec PP 1;<em>n</em>-Tetradecafluorohexane;PP 1;Fluorinert FC 72;FC 72;Fluorinert PF 5060;PF 5060;Perflexane;AF 0150;Fluorinert FX 3250D;PFC 51-14",
    "duplicated_cas_no": "82785-18-0;154452-93-4",
    "SMILES": "C(C(C(C(F)(F)F)(F)F)(F)F)(C(C(F)(F)F)(F)F)(F)F",
    "meta_data": {
        "InChI": "InChI=1S/C6F14/c7-1(8,3(11,12)5(15,16)17)2(9,10)4(13,14)6(18,19)20",
        "InChIKey": null,
        "Canonical SMILES": "FC(F)(F)C(F)(F)C(F)(F)C(F)(F)C(F)(F)C(F)(F)F",
        "Molecular Formula": "C<sub>6</sub>F<sub>14</sub>",
        "Molecular Mass": "338.04",
        "Boiling Point": "56.6 °C",
        "Melting Point": "-87.1 °C",
        "Density": "1.68 g/cm³ @ Temp: 25 °C"
    }
}