{
    "cas_no": "7783-07-5",
    "key_name": "Hydrogen selenide",
    "cn_name": null,
    "alternate_name": "Hydrogen selenide (H<sub>2</sub>Se);Selenium hydride;Selane;Dihydrogen selenide;Selenium dihydride;Dihydrogen monoselenide;Hydrogen selenide;NSC 605850;NSC 605851;NSC 605852;Selenium hydride (SeH<sub>2</sub>)",
    "duplicated_cas_no": "",
    "SMILES": "[SeH2]",
    "meta_data": {
        "InChI": "InChI=1S/H2Se/h1H2",
        "InChIKey": null,
        "Canonical SMILES": "[SeH2]",
        "Molecular Formula": "H<sub>2</sub>Se",
        "Molecular Mass": "",
        "Boiling Point": "-41.3 °C",
        "Melting Point": "-65.73 °C",
        "Density": "2.12 g/cm³ @ Temp: -42 °C"
    }
}