{
    "cas_no": "12125-02-9",
    "key_name": "Ammonium chloride",
    "cn_name": "氯化铵;硇砂;电气药粉;",
    "alternate_name": "Ammonium chloride ((NH<sub>4</sub>)Cl);Ammonium chloride;Ammoneric;Darammon;Sal ammoniac;Salmiac;Amchlor;Darvan 20;Catalyst RD;Salmiacum;Salammoniacus;Amoklor;A649-3;Fenidin;MeSH ID: D000643",
    "duplicated_cas_no": "15630-61-2;20548-08-7;50295-88-0;55871-05-1;75944-36-4;89485-84-7;89485-85-8;127634-24-6;128532-42-3;154383-48-9;867060-75-1;1260366-18-4",
    "SMILES": "Cl[NH4]",
    "meta_data": {
        "InChI": "InChI=1S/ClH.H3N/h1H;1H3",
        "InChIKey": null,
        "Canonical SMILES": "Cl[NH4]",
        "Molecular Formula": "ClH<sub>4</sub>N",
        "Molecular Mass": "53.49",
        "Boiling Point": "520 °C",
        "Melting Point": "338 °C (decomp)",
        "Density": "1.5274 g/cm³ @ Temp: 25 °C"
    }
}