{
    "cas_no": "518-94-5",
    "key_name": "(12a<em>R</em>,24a<em>R</em>)-2,3,12a,13,14,15,24,24a-Octahydro-5,6,17,18-tetramethoxy-1,13-dimethyl-8,11:20,23-dietheno-1<em>H</em>,12<em>H</em>-[1,10]dioxacyclooctadecino[2,3,4-<em>ij</em>:11,12,13-<em>i</em>'<em>j</em>′]diisoquinoline",
    "cn_name": null,
    "alternate_name": "8,11:20,23-Dietheno-1<em>H</em>,12<em>H</em>-[1,10]dioxacyclooctadecino[2,3,4-<em>ij</em>:11,12,13-<em>i</em>'<em>j</em>′]diisoquinoline, 2,3,12a,13,14,15,24,24a-octahydro-5,6,17,18-tetramethoxy-1,13-dimethyl-, (12a<em>R</em>,24a<em>R</em>)-;Cycleanine;(12a<em>R</em>,24a<em>R</em>)-2,3,12a,13,14,15,24,24a-Octahydro-5,6,17,18-tetramethoxy-1,13-dimethyl-8,11:20,23-dietheno-1<em>H</em>,12<em>H</em>-[1,10]dioxacyclooctadecino[2,3,4-<em>ij</em>:11,12,13-<em>i</em>'<em>j</em>′]diisoquinoline;8,11:20,23-Dietheno-1<em>H</em>,12<em>H</em>-[1,10]dioxacyclooctadecino[2,3,4-<em>ij</em>:11,12,13-<em>i</em>'<em>j</em>′]diisoquinoline, 2,3,12a,13,14,15,24,24a-octahydro-5,6,17,18-tetramethoxy-1,13-dimethyl-, [12a<em>R</em>-(12a<em>R</em>*,24a<em>R</em>*)]-;Dimethylisochondodendrine;<em>O</em>,<em>O</em>-Dimethylisochondodendrin;<em>O</em>,<em>O</em>-Dimethylisochondrodendrine;[12a<em>R</em>-(12a<em>R</em>*,24a<em>R</em>*)]-2,3,12a,13,14,15,24,24a-Octahydro-5,6,17,18-tetramethoxy-1,13-dimethyl-8,11:20,23-dietheno-1<em>H</em>,12<em>H</em>-[1,10]dioxacyclooctadecino[2,3,4-<em>ij</em>:11,12,13-<em>i</em>'<em>j</em>′]diisoquinoline;<em>O</em>,<em>O</em>′-Dimethylisochondrodendrine;Alkaloid B, from <em>Cissampelos</em><em>pareira</em>;<em>O</em>-Methylnorcycleanine;(-)-Cycleanine",
    "duplicated_cas_no": "16846-79-0",
    "SMILES": "O(C)C1=C2C=3[C@@](CC=4C=CC(=CC4)OC=5C=6[C@@](CC=7C=CC(O2)=CC7)(N(C)CCC6C=C(OC)C5OC)[H])(N(C)CCC3C=C1OC)[H]",
    "meta_data": {
        "InChI": "InChI=1S/C38H42N2O6/c1-39-17-15-25-21-31(41-3)35(43-5)37-33(25)29(39)19-23-7-11-28(12-8-23)46-38-34-26(22-32(42-4)36(38)44-6)16-18-40(2)30(34)20-24-9-13-27(45-37)14-10-24/h7-14,21-22,29-30H,15-20H2,1-6H3/t29-,30-/m1/s1",
        "InChIKey": null,
        "Canonical SMILES": "O1C2=CC=C(C=C2)CC3C4=C(OC5=CC=C(C=C5)CC6C7=C1C(OC)=C(OC)C=C7CCN6C)C(OC)=C(OC)C=C4CCN3C",
        "Molecular Formula": "C<sub>38</sub>H<sub>42</sub>N<sub>2</sub>O<sub>6</sub>",
        "Molecular Mass": "622.75",
        "Melting Point": "272-273 °C"
    }
}