{
    "cas_no": "1825-00-9",
    "key_name": "Methyl β-<span class=\"text-smallcaps\">L</span>-arabinopyranoside",
    "cn_name": "甲基-L-吡喃阿拉伯糖苷;",
    "alternate_name": "β-<span class=\"text-smallcaps\">L</span>-Arabinopyranoside, methyl;Arabinopyranoside, methyl, β-<span class=\"text-smallcaps\">L</span>-;Methyl β-<span class=\"text-smallcaps\">L</span>-arabinopyranoside;NSC 25272",
    "duplicated_cas_no": "",
    "SMILES": "O(C)[C@@H]1[C@H](O)[C@@H](O)[C@@H](O)CO1",
    "meta_data": {
        "InChI": "InChI=1S/C6H12O5/c1-10-6-5(9)4(8)3(7)2-11-6/h3-9H,2H2,1H3/t3-,4-,5+,6-/m0/s1",
        "InChIKey": null,
        "Canonical SMILES": "OC1COC(OC)C(O)C1O",
        "Molecular Formula": "C<sub>6</sub>H<sub>12</sub>O<sub>5</sub>",
        "Molecular Mass": "164.16",
        "Melting Point": "169-170 °C",
        "Density": "1.44 g/cm³"
    }
}