{
    "cas_no": "62595-74-8",
    "key_name": "3-Bromo-2,6-piperidinedione",
    "cn_name": null,
    "alternate_name": "2,6-Piperidinedione, 3-bromo-;Glutarimide, 2-bromo-;3-Bromo-2,6-piperidinedione;3-Bromopiperidin-2,6-dione",
    "duplicated_cas_no": "",
    "SMILES": "O=C1C(Br)CCC(=O)N1",
    "meta_data": {
        "InChI": "InChI=1S/C5H6BrNO2/c6-3-1-2-4(8)7-5(3)9/h3H,1-2H2,(H,7,8,9)",
        "InChIKey": null,
        "Canonical SMILES": "O=C1NC(=O)C(Br)CC1",
        "Molecular Formula": "C<sub>5</sub>H<sub>6</sub>BrNO<sub>2</sub>",
        "Molecular Mass": "192.01",
        "Melting Point": "107 °C"
    }
}