{
    "cas_no": "431-52-7",
    "key_name": "1,1,2-Trichloro-3,3,3-trifluoro-1-propene",
    "cn_name": "1,1,2-三氯-3,3,3-三氟-1-丙烯;1,1,2-三氯-3,3,3-三氟丙稀;1,1,2-三氯-3,3,3-三氟-1-丙烯;",
    "alternate_name": "1-Propene, 1,1,2-trichloro-3,3,3-trifluoro-;Propene, 1,1,2-trichloro-3,3,3-trifluoro-;1,1,2-Trichloro-3,3,3-trifluoro-1-propene;1,1,2-Trichlorotrifluoro-1-propene;3,3,3-Trifluoro-1,1,2-trichloropropene;3,3,3-Trifluoro-1,1,2-trichloropropylene;1,1,1-Trifluoro-2,3,3-trichloropropene;1,1,2-Trichloro-3,3,3-fluoropropene;NSC 6824;CFC 1213xa",
    "duplicated_cas_no": "",
    "SMILES": "C(C(F)(F)F)(=C(Cl)Cl)Cl",
    "meta_data": {
        "InChI": "InChI=1S/C3Cl3F3/c4-1(2(5)6)3(7,8)9",
        "InChIKey": null,
        "Canonical SMILES": "FC(F)(F)C(Cl)=C(Cl)Cl",
        "Molecular Formula": "C<sub>3</sub>Cl<sub>3</sub>F<sub>3</sub>",
        "Molecular Mass": "199.39",
        "Boiling Point": "88.3 °C",
        "Melting Point": "-114.7 °C",
        "Density": "1.6188 g/cm³ @ Temp: 20 °C"
    }
}