{
    "cas_no": "2901-66-8",
    "key_name": "Methyl (3β,16β,17α,18β,20α)-18-hydroxy-11,17-dimethoxyyohimban-16-carboxylate",
    "cn_name": null,
    "alternate_name": "Yohimban-16-carboxylic acid, 18-hydroxy-11,17-dimethoxy-, methyl ester, (3β,16β,17α,18β,20α)-;3β,20α-Yohimban-16β-carboxylic acid, 18β-hydroxy-11,17α-dimethoxy-, methyl ester;Reserpic acid, methyl ester;Methyl (3β,16β,17α,18β,20α)-18-hydroxy-11,17-dimethoxyyohimban-16-carboxylate;Methyl reserpate;Methyl reserpinolate;NSC 81464;Methyl (1S,2R,3R,4aS,13bR,14aS)-3-hydroxy-2,11-dimethoxy-1,2,3,4,4a,5,7,8,13,13b,14,14a-dodecahydroindolo[2′,3′:3,4]pyrido[1,2-<em>b</em>]isoquinoline-1-carboxylate",
    "duplicated_cas_no": "",
    "SMILES": "C(OC)(=O)[C@H]1[C@@]2([C@@](CN3[C@](C2)(C4=C(CC3)C=5C(N4)=CC(OC)=CC5)[H])(C[C@@H](O)[C@@H]1OC)[H])[H]",
    "meta_data": {
        "InChI": "InChI=1S/C23H30N2O5/c1-28-13-4-5-14-15-6-7-25-11-12-8-19(26)22(29-2)20(23(27)30-3)16(12)10-18(25)21(15)24-17(14)9-13/h4-5,9,12,16,18-20,22,24,26H,6-8,10-11H2,1-3H3/t12-,16+,18-,19-,20+,22+/m1/s1",
        "InChIKey": null,
        "Canonical SMILES": "O=C(OC)C1C(OC)C(O)CC2CN3CCC=4C=5C=CC(OC)=CC5NC4C3CC12",
        "Molecular Formula": "C<sub>23</sub>H<sub>30</sub>N<sub>2</sub>O<sub>5</sub>",
        "Molecular Mass": "414.49",
        "Melting Point": "235-240 °C"
    }
}