{
    "cas_no": "51-68-3",
    "key_name": "Meclofenoxate",
    "cn_name": "氯酯醒;对氯苯氧乙酸二甲胺基乙酯;",
    "alternate_name": "Acetic acid, 2-(4-chlorophenoxy)-, 2-(dimethylamino)ethyl ester;Acetic acid, (<em>p</em>-chlorophenoxy)-, 2-(dimethylamino)ethyl ester;Acetic acid, (4-chlorophenoxy)-, 2-(dimethylamino)ethyl ester;EN 1627;(<em>p</em>-Chlorophenoxy)acetic acid β-(dimethylamino)ethyl ester;Dimethylaminoethyl <em>p</em>-chlorophenoxyacetate;Meclofenoxate;ANP 235;Meclophenoxate;2-(Dimethylamino)ethyl (<em>p</em>-chlorophenoxy)acetate;(<em>p</em>-Chlorophenoxy)acetic acid 2-(dimethylamino)ethyl ester;Meclofenoxane;Proseryl;Cerebon;Analux;Licidril;Cetrexin;Clocete;CPH;NSC 169411;(2-Dimethylamino)ethyl(4-chlorophenoxy)acetate;(4-Chloro-phenoxy)-acetic acid 2-dimethylamino-ethyl ester;MeSH ID: D002504;2-(Dimethylamino)ethyl 2-(4-chlorophenoxy)acetate",
    "duplicated_cas_no": "",
    "SMILES": "O(CC(OCCN(C)C)=O)C1=CC=C(Cl)C=C1",
    "meta_data": {
        "InChI": "InChI=1S/C12H16ClNO3/c1-14(2)7-8-16-12(15)9-17-11-5-3-10(13)4-6-11/h3-6H,7-9H2,1-2H3",
        "InChIKey": null,
        "Canonical SMILES": "O=C(OCCN(C)C)COC1=CC=C(Cl)C=C1",
        "Molecular Formula": "C<sub>12</sub>H<sub>16</sub>ClNO<sub>3</sub>",
        "Molecular Mass": "257.71",
        "Boiling Point": "180 °C @ Press: 9-10 Torr",
        "Melting Point": "138-140 °C"
    }
}