{
    "cas_no": "931-03-3",
    "key_name": "Pyrrole-3-carboxylic acid",
    "cn_name": null,
    "alternate_name": "1<em>H</em>-Pyrrole-3-carboxylic acid;Pyrrole-3-carboxylic acid;3-Carboxypyrrole",
    "duplicated_cas_no": "",
    "SMILES": "C(O)(=O)C=1C=CNC1",
    "meta_data": {
        "InChI": "InChI=1S/C5H5NO2/c7-5(8)4-1-2-6-3-4/h1-3,6H,(H,7,8)",
        "InChIKey": null,
        "Canonical SMILES": "O=C(O)C=1C=CNC1",
        "Molecular Formula": "C<sub>5</sub>H<sub>5</sub>NO<sub>2</sub>",
        "Molecular Mass": "111.10",
        "Melting Point": "161 °C"
    }
}