{
    "cas_no": "76-80-2",
    "key_name": "Tephrosin",
    "cn_name": null,
    "alternate_name": "3<em>H</em>-Bis[1]benzopyrano[3,4-<em>b</em>:6′,5′-<em>e</em>]pyran-7(7a<em>H</em>)-one, 13,13a-dihydro-7a-hydroxy-9,10-dimethoxy-3,3-dimethyl-, (7a<em>R</em>,13a<em>R</em>)-;Tephrosin;3<em>H</em>-Bis[1]benzopyrano[3,4-<em>b</em>:6′,5′-<em>e</em>]pyran-7(7a<em>H</em>)-one, 13,13a-dihydro-7a-hydroxy-9,10-dimethoxy-3,3-dimethyl-, (7a<em>R</em>-<em>cis</em>)-;(7a<em>R</em>,13a<em>R</em>)-13,13a-Dihydro-7a-hydroxy-9,10-dimethoxy-3,3-dimethyl-3<em>H</em>-bis[1]benzopyrano[3,4-<em>b</em>:6′,5′-<em>e</em>]pyran-7(7a<em>H</em>)-one;Deguelinol I;Hydroxydeguelin;(-)-Tephrosin",
    "duplicated_cas_no": "16277-83-1",
    "SMILES": "O[C@]12C=3C(=CC(OC)=C(OC)C3)OC[C@]1(OC=4C(C2=O)=CC=C5C4C=CC(C)(C)O5)[H]",
    "meta_data": {
        "InChI": "InChI=1S/C23H22O7/c1-22(2)8-7-12-15(30-22)6-5-13-20(12)29-19-11-28-16-10-18(27-4)17(26-3)9-14(16)23(19,25)21(13)24/h5-10,19,25H,11H2,1-4H3/t19-,23-/m1/s1",
        "InChIKey": null,
        "Canonical SMILES": "O=C1C2=CC=C3OC(C=CC3=C2OC4COC5=CC(OC)=C(OC)C=C5C14O)(C)C",
        "Molecular Formula": "C<sub>23</sub>H<sub>22</sub>O<sub>7</sub>",
        "Molecular Mass": "410.42",
        "Melting Point": "198 °C"
    }
}