{
    "cas_no": "15804-19-0",
    "key_name": "2,3-Dihydroxyquinoxaline",
    "cn_name": "2,3-二羟基喹啉;2,3-二羟基喹喔啉;2,3-二羟基喹啉;2,3-二羟喹喔啉;喹喔啉-2,3-二羟基;2,3(1H,4H)-喹喔啉二;",
    "alternate_name": "2,3-Quinoxalinedione, 1,4-dihydro-;1,4-Dihydro-2,3-quinoxalinedione;2,3-Quinoxalinediol;2,3-Dihydroxyquinoxaline;2,3(1<em>H</em>,4<em>H</em>)-Quinoxalinedione;1,2,3,4-Tetrahydro-2,3-dioxoquinoxaline;NSC 8698;NSC 9431;3-Hydroxy-1,2-dihydroquinoxalin-2-one",
    "duplicated_cas_no": "6287-20-3",
    "SMILES": "O=C1NC=2C(NC1=O)=CC=CC2",
    "meta_data": {
        "InChI": "InChI=1S/C8H6N2O2/c11-7-8(12)10-6-4-2-1-3-5(6)9-7/h1-4H,(H,9,11)(H,10,12)",
        "InChIKey": null,
        "Canonical SMILES": "O=C1NC=2C=CC=CC2NC1=O",
        "Molecular Formula": "C<sub>8</sub>H<sub>6</sub>N<sub>2</sub>O<sub>2</sub>",
        "Molecular Mass": "162.15",
        "Melting Point": "&gt;300 °C"
    }
}