{
    "cas_no": "583-55-1",
    "key_name": "1-Bromo-2-iodobenzene",
    "cn_name": "邻碘溴苯;2-溴碘苯;1-溴-2-碘苯;",
    "alternate_name": "Benzene, 1-bromo-2-iodo-;1-Bromo-2-iodobenzene;<em>o</em>-Bromoiodobenzene;2-Bromoiodobenzene;<em>o</em>-Iodobromobenzene;<em>o</em>-Bromophenyl iodide;2-Bromo-1-iodobenzene;1-Iodo-2-bromobenzene;2-Bromophenyl iodide;2-Iodobromobenzene;2-Iodo-1-bromobenzene",
    "duplicated_cas_no": "",
    "SMILES": "BrC1=C(I)C=CC=C1",
    "meta_data": {
        "InChI": "InChI=1S/C6H4BrI/c7-5-3-1-2-4-6(5)8/h1-4H",
        "InChIKey": null,
        "Canonical SMILES": "BrC=1C=CC=CC1I",
        "Molecular Formula": "C<sub>6</sub>H<sub>4</sub>BrI",
        "Molecular Mass": "282.90",
        "Boiling Point": "257 °C",
        "Melting Point": "9.5 °C"
    }
}