{
    "cas_no": "92-70-6",
    "key_name": "3-Hydroxy-2-naphthoic acid",
    "cn_name": "2-羟基-3-萘甲酸;3-羟基-2-萘甲酸;2-萘酚-3-甲酸;",
    "alternate_name": "2-Naphthalenecarboxylic acid, 3-hydroxy-;2-Naphthoic acid, 3-hydroxy-;3-Hydroxy-2-naphthalenecarboxylic acid;BON;BONA;Developer BON;2-Hydroxy-3-naphthoic acid;3-Hydroxy-2-naphthoic acid;Naphthol B.O.N.;3-Naphthol-2-carboxylic acid;BON acid;2-Hydroxy-3-naphthalenecarboxylic acid;C.I. Developer 20;Miketazol Developer ONS;3-Hydroxy-β-naphthoic acid;2-Naphthol-3-carboxylic acid;2-Hydroxy-3-carboxynaphthalene;β-Hydroxy-3-naphthoic acid;3-Carboxy-2-naphthol;β-Hydroxynaphthoic acid;β-Oxynaphthoic acid;2-Hydroxyl-3-naphthoic acid;NSC 3719;TCI-B 3229;H 0281",
    "duplicated_cas_no": "12235-61-9;12235-60-8",
    "SMILES": "C(O)(=O)C1=CC2=C(C=C1O)C=CC=C2",
    "meta_data": {
        "InChI": "InChI=1S/C11H8O3/c12-10-6-8-4-2-1-3-7(8)5-9(10)11(13)14/h1-6,12H,(H,13,14)",
        "InChIKey": null,
        "Canonical SMILES": "O=C(O)C1=CC=2C=CC=CC2C=C1O",
        "Molecular Formula": "C<sub>11</sub>H<sub>8</sub>O<sub>3</sub>",
        "Molecular Mass": "188.18",
        "Melting Point": "222-223 °C"
    }
}