{
    "cas_no": "2690-08-6",
    "key_name": "Dioctyl sulfide",
    "cn_name": "二正辛基硫醚;1,1\"-硫代二辛烷;二辛基硫醚;",
    "alternate_name": "Octane, 1,1′-thiobis-;Octyl sulfide;1,1′-Thiobis[octane];Dioctyl sulfide;Dioctyl thioether;Di-<em>n</em>-octyl sulfide;Bis(1-octyl) sulfide;Di-<em>n</em>-octyl thioether;1-(1-Octylthio)octane;NSC 65459;1-Octylsulfanyloctane",
    "duplicated_cas_no": "",
    "SMILES": "S(CCCCCCCC)CCCCCCCC",
    "meta_data": {
        "InChI": "InChI=1S/C16H34S/c1-3-5-7-9-11-13-15-17-16-14-12-10-8-6-4-2/h3-16H2,1-2H3",
        "InChIKey": null,
        "Canonical SMILES": "S(CCCCCCCC)CCCCCCCC",
        "Molecular Formula": "C<sub>16</sub>H<sub>34</sub>S",
        "Molecular Mass": "258.51",
        "Boiling Point": "180 °C @ Press: 10 Torr",
        "Density": "0.8442 g/cm³ @ Temp: 20 °C"
    }
}