{
    "cas_no": "13431-39-5",
    "key_name": "<em>N</em>-(1,1-Dimethylethyl)hydrazinecarbothioamide",
    "cn_name": "4-叔丁基-2,6-胺基硫脲;4-叔丁基-3-硫代氨基脲;",
    "alternate_name": "Hydrazinecarbothioamide, <em>N</em>-(1,1-dimethylethyl)-;Semicarbazide, 4-<em>tert</em>-butyl-3-thio-;<em>N</em>-(1,1-Dimethylethyl)hydrazinecarbothioamide;B 1179;4-<em>tert</em>-Butyl-3-thiosemicarbazide;4-<em>tert</em>-Butylthiosemicarbazide;1-Amino-3-<em>tert</em>-butylthiourea;3-Amino-1-<em>tert</em>-butylthiourea",
    "duplicated_cas_no": "",
    "SMILES": "N(C(C)(C)C)C(NN)=S",
    "meta_data": {
        "InChI": "InChI=1S/C5H13N3S/c1-5(2,3)7-4(9)8-6/h6H2,1-3H3,(H2,7,8,9)",
        "InChIKey": null,
        "Canonical SMILES": "S=C(NN)NC(C)(C)C",
        "Molecular Formula": "C<sub>5</sub>H<sub>13</sub>N<sub>3</sub>S",
        "Molecular Mass": "147.24",
        "Melting Point": "142-143 °C"
    }
}