{
    "cas_no": "5273-85-8",
    "key_name": "Isoelemicin",
    "cn_name": null,
    "alternate_name": "Benzene, 1,2,3-trimethoxy-5-(1<em>E</em>)-1-propen-1-yl-;Benzene, 1,2,3-trimethoxy-5-propenyl-, (<em>E</em>)-;Isoelemicin;Benzene, 1,2,3-trimethoxy-5-(1-propenyl)-, (<em>E</em>)-;Benzene, 1,2,3-trimethoxy-5-(1<em>E</em>)-1-propenyl-;1,2,3-Trimethoxy-5-(1<em>E</em>)-1-propen-1-ylbenzene;(<em>E</em>)-Isoelemicin;1,2,3-Trimethoxy-5-[(1<em>E</em>)-1-propenyl]benzene;1,2,3-Trimethoxy-5-((<em>E</em>)-prop-1-enyl)benzene",
    "duplicated_cas_no": "",
    "SMILES": "O(C)C1=C(OC)C=C(/C=C/C)C=C1OC",
    "meta_data": {
        "InChI": "InChI=1S/C12H16O3/c1-5-6-9-7-10(13-2)12(15-4)11(8-9)14-3/h5-8H,1-4H3/b6-5+",
        "InChIKey": null,
        "Canonical SMILES": "O(C=1C=C(C=CC)C=C(OC)C1OC)C",
        "Molecular Formula": "C<sub>12</sub>H<sub>16</sub>O<sub>3</sub>",
        "Molecular Mass": "208.25",
        "Boiling Point": "153-156 °C @ Press: 20 Torr",
        "Density": "1.073 g/cm³ @ Temp: 20 °C"
    }
}