{
    "cas_no": "830-96-6",
    "key_name": "1<em>H</em>-Indole-3-propanoic acid",
    "cn_name": "吲哚-3-丙酸;",
    "alternate_name": "1<em>H</em>-Indole-3-propanoic acid;Indole-3-propionic acid;3-(3-Indolyl)propionic acid;β-(3-Indolyl)propionic acid;β-Indole-3-propionic acid;β-Indolepropionic acid;1<em>H</em>-Indole-3-propionic acid;3-(3-Indolyl)propanoic acid;3-(2-Carboxyethyl)-1<em>H</em>-indole;IPA;IPA (auxin);3-(1<em>H</em>-Indol-3-yl)propanoic acid;3-(1<em>H</em>-Indol-3-yl)propionic acid;NSC 3252;NSC 47831;3-(Indole-3-yl)propanoic acid",
    "duplicated_cas_no": "",
    "SMILES": "C(CC(O)=O)C=1C=2C(NC1)=CC=CC2",
    "meta_data": {
        "InChI": "InChI=1S/C11H11NO2/c13-11(14)6-5-8-7-12-10-4-2-1-3-9(8)10/h1-4,7,12H,5-6H2,(H,13,14)",
        "InChIKey": null,
        "Canonical SMILES": "O=C(O)CCC1=CNC=2C=CC=CC21",
        "Molecular Formula": "C<sub>11</sub>H<sub>11</sub>NO<sub>2</sub>",
        "Molecular Mass": "189.21",
        "Melting Point": "134-135 °C"
    }
}