{
    "cas_no": "1878-84-8",
    "key_name": "(4-Hydroxyphenoxy)acetic acid",
    "cn_name": "4-羟基苯氧基乙酸;",
    "alternate_name": "Acetic acid, 2-(4-hydroxyphenoxy)-;Acetic acid, (<em>p</em>-hydroxyphenoxy)-;Acetic acid, (4-hydroxyphenoxy)-;2-(4-Hydroxyphenoxy)acetic acid;<em>p</em>-Hydroxyphenoxyacetic acid;(4-Hydroxyphenoxy)acetic acid;<em>O</em>-(4-Hydroxyphenyl)glycolic acid",
    "duplicated_cas_no": "",
    "SMILES": "O(CC(O)=O)C1=CC=C(O)C=C1",
    "meta_data": {
        "InChI": "InChI=1S/C8H8O4/c9-6-1-3-7(4-2-6)12-5-8(10)11/h1-4,9H,5H2,(H,10,11)",
        "InChIKey": null,
        "Canonical SMILES": "O=C(O)COC1=CC=C(O)C=C1",
        "Molecular Formula": "C<sub>8</sub>H<sub>8</sub>O<sub>4</sub>",
        "Molecular Mass": "168.15",
        "Melting Point": "155-156 °C"
    }
}