{
    "cas_no": "303-42-4",
    "key_name": "Methenolone enanthate",
    "cn_name": "美替诺龙庚酸酯;",
    "alternate_name": "Androst-1-en-3-one, 1-methyl-17-[(1-oxoheptyl)oxy]-, (5α,17β)-;5α-Androst-1-en-3-one, 17β-hydroxy-1-methyl-, heptanoate;(5α,17β)-1-Methyl-17-[(1-oxoheptyl)oxy]androst-1-en-3-one;SH 601;SQ 16374;17β-Hydroxy-1-methyl-5α-androst-1-en-3-one 17β-enanthate;17β-Hydroxy-1-methyl-5α-androst-1-en-3-one heptanoate;Methenolone enanthate;Primobolan Depot;1-Methyl-Δ<sup>1</sup>-androsten-17β-ol-3-one enanthate;1-Methyl-17β-hydroxy-5α-androst-1-en-3-one enanthate;Metenolone enanthate;NSC 64967;Primonabol Depot;Methenolone 17-enanthate",
    "duplicated_cas_no": "",
    "SMILES": "C[C@@]12[C@@]3([C@]([C@]4([C@](C)(CC3)[C@@H](OC(CCCCCC)=O)CC4)[H])(CC[C@]1(CC(=O)C=C2C)[H])[H])[H]",
    "meta_data": {
        "InChI": "InChI=1S/C27H42O3/c1-5-6-7-8-9-25(29)30-24-13-12-22-21-11-10-19-17-20(28)16-18(2)27(19,4)23(21)14-15-26(22,24)3/h16,19,21-24H,5-15,17H2,1-4H3/t19-,21-,22-,23-,24-,26-,27-/m0/s1",
        "InChIKey": null,
        "Canonical SMILES": "O=C(OC1CCC2C3CCC4CC(=O)C=C(C)C4(C)C3CCC12C)CCCCCC",
        "Molecular Formula": "C<sub>27</sub>H<sub>42</sub>O<sub>3</sub>",
        "Molecular Mass": "414.62",
        "Melting Point": "70-70.5 °C"
    }
}