{
    "cas_no": "13580-38-6",
    "key_name": "3-(2-Propyn-1-yloxy)-1,2-propanediol",
    "cn_name": "1-丙炔基甘油醚;POPDH;",
    "alternate_name": "1,2-Propanediol, 3-(2-propyn-1-yloxy)-;1,2-Propanediol, 3-(2-propynyloxy)-;3-(2-Propyn-1-yloxy)-1,2-propanediol;Monopropargylylglycerol ether;3-(2-Propynyloxy)-1,2-propanediol;NSC 215123;3-Propargyloxy-1,2-propanediol;3-Prop-2-ynoxypropane-1,2-diol",
    "duplicated_cas_no": "",
    "SMILES": "C(COCC#C)(CO)O",
    "meta_data": {
        "InChI": "InChI=1S/C6H10O3/c1-2-3-9-5-6(8)4-7/h1,6-8H,3-5H2",
        "InChIKey": null,
        "Canonical SMILES": "C#CCOCC(O)CO",
        "Molecular Formula": "C<sub>6</sub>H<sub>10</sub>O<sub>3</sub>",
        "Molecular Mass": "130.14",
        "Boiling Point": "30 °C @ Press: 1 Torr",
        "Density": "1.1341 g/cm³ @ Temp: 20 °C"
    }
}