{
    "cas_no": "493-50-5",
    "key_name": "1-Methyl-1,2,3,4-tetrahydroquinoline-6-carboxaldehyde",
    "cn_name": null,
    "alternate_name": "6-Quinolinecarboxaldehyde, 1,2,3,4-tetrahydro-1-methyl-;1,2,3,4-Tetrahydro-1-methyl-6-quinolinecarboxaldehyde;6-Formyl-1-methyl-1,2,3,4-tetrahydroquinoline;1-Methyl-1,2,3,4-tetrahydroquinoline-6-carboxaldehyde;1-Methyl-3,4-dihydro-2<em>H</em>-quinoline-6-carbaldehyde",
    "duplicated_cas_no": "",
    "SMILES": "CN1C=2C(=CC(C=O)=CC2)CCC1",
    "meta_data": {
        "InChI": "InChI=1S/C11H13NO/c1-12-6-2-3-10-7-9(8-13)4-5-11(10)12/h4-5,7-8H,2-3,6H2,1H3",
        "InChIKey": null,
        "Canonical SMILES": "O=CC1=CC=C2C(=C1)CCCN2C",
        "Molecular Formula": "C<sub>11</sub>H<sub>13</sub>NO",
        "Molecular Mass": "175.23",
        "Boiling Point": "219-221 °C @ Press: 15 Torr",
        "Melting Point": "28-29 °C"
    }
}