{
    "cas_no": "81569-46-2",
    "key_name": "4-Thiazolecarboxylic acid, 2-bromo-5-ethyl-, methyl ester",
    "cn_name": null,
    "alternate_name": "4-Thiazolecarboxylic acid, 2-bromo-5-ethyl-, methyl ester;Methyl 2-bromo-5-ethylthiazole-4-carboxylate",
    "duplicated_cas_no": "",
    "SMILES": "C(OC)(=O)C1=C(CC)SC(Br)=N1",
    "meta_data": {
        "InChI": "InChI=1S/C7H8BrNO2S/c1-3-4-5(6(10)11-2)9-7(8)12-4/h3H2,1-2H3",
        "InChIKey": null,
        "Canonical SMILES": "O=C(OC)C=1N=C(Br)SC1CC",
        "Molecular Formula": "C<sub>7</sub>H<sub>8</sub>BrNO<sub>2</sub>S",
        "Molecular Mass": "250.11",
        "Boiling Point": "98-100 °C @ Press: 0.25 Torr"
    }
}