{
    "cas_no": "1462-03-9",
    "key_name": "1-Methylcyclopentanol",
    "cn_name": "1-甲基环戊醇;",
    "alternate_name": "Cyclopentanol, 1-methyl-;1-Methylcyclopentanol;1-Methyl-1-cyclopentanol;1-Hydroxy-1-methylcyclopentane;NSC 23230;1-Methylcyclopentan-1-ol;1-Methyl-1-hydroxycyclopentane;1-Methylcyclopentyl alcohol",
    "duplicated_cas_no": "",
    "SMILES": "CC1(O)CCCC1",
    "meta_data": {
        "InChI": "InChI=1S/C6H12O/c1-6(7)4-2-3-5-6/h7H,2-5H2,1H3",
        "InChIKey": null,
        "Canonical SMILES": "OC1(C)CCCC1",
        "Molecular Formula": "C<sub>6</sub>H<sub>12</sub>O",
        "Molecular Mass": "100.16",
        "Boiling Point": "136 °C",
        "Melting Point": "36 °C",
        "Density": "0.9238 g/cm³ @ Temp: 16 °C"
    }
}