{
    "cas_no": "14305-08-9",
    "key_name": "4,5-Dibromo-2-phenyl-3(2<em>H</em>)-pyridazinone",
    "cn_name": "4,5-二溴-2-苯基-2,3-二氢哒嗪-3-酮;",
    "alternate_name": "3(2<em>H</em>)-Pyridazinone, 4,5-dibromo-2-phenyl-;4,5-Dibromo-2-phenyl-3(2<em>H</em>)-pyridazinone;2-Phenyl-4,5-dibromo-3(2<em>H</em>)-pyridazinone",
    "duplicated_cas_no": "",
    "SMILES": "O=C1N(N=CC(Br)=C1Br)C2=CC=CC=C2",
    "meta_data": {
        "InChI": "InChI=1S/C10H6Br2N2O/c11-8-6-13-14(10(15)9(8)12)7-4-2-1-3-5-7/h1-6H",
        "InChIKey": null,
        "Canonical SMILES": "O=C1C(Br)=C(Br)C=NN1C=2C=CC=CC2",
        "Molecular Formula": "C<sub>10</sub>H<sub>6</sub>Br<sub>2</sub>N<sub>2</sub>O",
        "Molecular Mass": "329.98",
        "Melting Point": "142-143 °C"
    }
}