{
    "cas_no": "3125-64-2",
    "key_name": "1-Isothiocyanato-3-methoxybenzene",
    "cn_name": "3-甲氧基异硫氰酸苯酯;",
    "alternate_name": "Benzene, 1-isothiocyanato-3-methoxy-;Isothiocyanic acid, <em>m</em>-methoxyphenyl ester;1-Isothiocyanato-3-methoxybenzene;<em>m</em>-Methoxyphenyl isothiocyanate;3-Methoxyphenyl isothiocyanate;<em>m</em>-Anisyl isothiocyanate;3-Anisyl isothiocyanate",
    "duplicated_cas_no": "2124236-51-5",
    "SMILES": "N(=C=S)C1=CC(OC)=CC=C1",
    "meta_data": {
        "InChI": "InChI=1S/C8H7NOS/c1-10-8-4-2-3-7(5-8)9-6-11/h2-5H,1H3",
        "InChIKey": null,
        "Canonical SMILES": "S=C=NC1=CC=CC(OC)=C1",
        "Molecular Formula": "C<sub>8</sub>H<sub>7</sub>NOS",
        "Molecular Mass": "165.21",
        "Boiling Point": "105-106 °C @ Press: 0.45 Torr",
        "Density": "1.145 g/cm³ @ Temp: 30 °C"
    }
}