{
    "cas_no": "6342-70-7",
    "key_name": "Methyl 2-hydroxy-3-methoxybenzoate",
    "cn_name": "3-甲氧基水杨酸甲酯;",
    "alternate_name": "Benzoic acid, 2-hydroxy-3-methoxy-, methyl ester;<em>m</em>-Anisic acid, 2-hydroxy-, methyl ester;Methyl 2-hydroxy-3-methoxybenzoate;Methyl 3-methoxysalicylate;2-Hydroxy-3-methoxybenzoic acid methyl ester;NSC 46637",
    "duplicated_cas_no": "",
    "SMILES": "C(OC)(=O)C1=C(O)C(OC)=CC=C1",
    "meta_data": {
        "InChI": "InChI=1S/C9H10O4/c1-12-7-5-3-4-6(8(7)10)9(11)13-2/h3-5,10H,1-2H3",
        "InChIKey": null,
        "Canonical SMILES": "O=C(OC)C=1C=CC=C(OC)C1O",
        "Molecular Formula": "C<sub>9</sub>H<sub>10</sub>O<sub>4</sub>",
        "Molecular Mass": "182.17",
        "Boiling Point": "105 °C @ Press: 2 Torr",
        "Melting Point": "64 °C"
    }
}