{
    "cas_no": "21908-53-2",
    "key_name": "Mercuric oxide",
    "cn_name": "氧化汞;氧化汞,红色;一氧化汞,红色;氧化汞,黄色;一氧化汞,黄色;一氧化汞;黄降汞;红降汞;",
    "alternate_name": "Mercury oxide (HgO);Mercuric oxide;Mercury monoxide;Mercuric oxide (HgO);C.I. 77760;Yellow Mercuric Oxide;Mercury(2+) oxide;Santar M;Santar;Mercury(II) oxide;Red mercuric oxide;Mercury oxide;Yellow precipitate;Red mercury oxide",
    "duplicated_cas_no": "1344-45-2;8028-34-0",
    "SMILES": "[Hg]=O",
    "meta_data": {
        "InChI": "InChI=1S/Hg.O",
        "InChIKey": null,
        "Canonical SMILES": "O=[Hg]",
        "Molecular Formula": "HgO",
        "Molecular Mass": "",
        "Melting Point": "500 °C (decomp)",
        "Density": "11.1 g/cm³"
    }
}