{
    "cas_no": "103-29-7",
    "key_name": "Dibenzyl",
    "cn_name": "1,2-二苯乙烷;",
    "alternate_name": "Benzene, 1,1′-(1,2-ethanediyl)bis-;Bibenzyl;1,1′-(1,2-Ethanediyl)bis[benzene];Dibenzyl;Ethane, 1,2-diphenyl-;Dibenzil;1,2-Diphenylethane;<em>sym</em>-Diphenylethane;Dihydrostilbene;NSC 30686;NSC 8789;Ethylenebis[benzene];1,2-Dihydrostilbene;(2-Phenylethyl)benzene;2-Phenylethylbenzene",
    "duplicated_cas_no": "39660-70-3",
    "SMILES": "C(CC1=CC=CC=C1)C2=CC=CC=C2",
    "meta_data": {
        "InChI": "InChI=1S/C14H14/c1-3-7-13(8-4-1)11-12-14-9-5-2-6-10-14/h1-10H,11-12H2",
        "InChIKey": null,
        "Canonical SMILES": "C=1C=CC(=CC1)CCC=2C=CC=CC2",
        "Molecular Formula": "C<sub>14</sub>H<sub>14</sub>",
        "Molecular Mass": "182.26",
        "Boiling Point": "284 °C",
        "Melting Point": "52.5 °C",
        "Density": "1.1011 g/cm³ @ Temp: 46 °C"
    }
}