{
    "cas_no": "53472-18-7",
    "key_name": "5-Bromo-8-quinolinamine",
    "cn_name": null,
    "alternate_name": "8-Quinolinamine, 5-bromo-;5-Bromo-8-quinolinamine;8-Amino-5-bromoquinoline",
    "duplicated_cas_no": "",
    "SMILES": "BrC=1C2=C(C(N)=CC1)N=CC=C2",
    "meta_data": {
        "InChI": "InChI=1S/C9H7BrN2/c10-7-3-4-8(11)9-6(7)2-1-5-12-9/h1-5H,11H2",
        "InChIKey": null,
        "Canonical SMILES": "BrC=1C=CC(N)=C2N=CC=CC12",
        "Molecular Formula": "C<sub>9</sub>H<sub>7</sub>BrN<sub>2</sub>",
        "Molecular Mass": "223.07",
        "Melting Point": "109-110 °C"
    }
}