{
    "cas_no": "79902-63-9",
    "key_name": "Simvastatin",
    "cn_name": "辛伐他汀;(1S,2S,6S,8S,8aR)-1,2,6,7,8,8a-六氢-3,7-二甲基-8-[2-[(2R,4R)-四氢-4-羟基-6-氧代-2H-吡喃-2-;",
    "alternate_name": "Butanoic acid, 2,2-dimethyl-, (1<em>S</em>,3<em>R</em>,7<em>S</em>,8<em>S</em>,8a<em>R</em>)-1,2,3,7,8,8a-hexahydro-3,7-dimethyl-8-[2-[(2<em>R</em>,4<em>R</em>)-tetrahydro-4-hydroxy-6-oxo-2<em>H</em>-pyran-2-yl]ethyl]-1-naphthalenyl ester;Butanoic acid, 2,2-dimethyl-, 1,2,3,7,8,8a-hexahydro-3,7-dimethyl-8-[2-(tetrahydro-4-hydroxy-6-oxo-2<em>H</em>-pyran-2-yl)ethyl]-1-naphthalenyl ester, [1<em>S</em>-[1α,3α,7β,8β(2<em>S</em>*,4<em>S</em>*),8aβ]]-;Simvastatin;MK 733;L 644128-000U;Zocor;Synvinolin;Velostatin;(+)-Simvastatin;Cholestat;Lipex;Denan;Kolestevan;Lipovas;Lodales;Modutrol;Nor-Vastina;Rechol;Simovil;Simvotin;Sinvacor;Sivastin;Valemia;Zocord;Lipinorm;Liponorm;Eucor;Sinvascor;Simvastatin lactone;Apo-Simvastatin;Co-Simvastatin;Novo-Simvastatin;Pms-simvastatin;Simlo 20;Simlip 20;Starstat 20;Simi 20;Zorced;Simastin 20;Bestatin 20;Simlup 20;Zosta;Simvofix;Zocor Forte;Simvastol;Simvas;Simlip;Simvasterol;Vazilip;Simvachol;Lycostatin;Vasilip;Apo-Simva;Egilipid;Simcovas;Simgal;Simratio;Simvacard;Simvacor;Simvahexal;Vastan;Ximve;MeSH ID: D019821",
    "duplicated_cas_no": "98609-43-9;118607-03-7",
    "SMILES": "O(C(C(CC)(C)C)=O)[C@@H]1[C@]2(C(C=C[C@H](C)[C@@H]2CC[C@@H]3C[C@@H](O)CC(=O)O3)=C[C@H](C)C1)[H]",
    "meta_data": {
        "InChI": "InChI=1S/C25H38O5/c1-6-25(4,5)24(28)30-21-12-15(2)11-17-8-7-16(3)20(23(17)21)10-9-19-13-18(26)14-22(27)29-19/h7-8,11,15-16,18-21,23,26H,6,9-10,12-14H2,1-5H3/t15-,16-,18+,19+,20-,21-,23-/m0/s1",
        "InChIKey": null,
        "Canonical SMILES": "O=C1OC(CCC2C(C=CC3=CC(C)CC(OC(=O)C(C)(C)CC)C32)C)CC(O)C1",
        "Molecular Formula": "C<sub>25</sub>H<sub>38</sub>O<sub>5</sub>",
        "Molecular Mass": "418.57",
        "Melting Point": "135-138 °C"
    }
}