{
    "cas_no": "3988-03-2",
    "key_name": "4,4′-Dibromobenzophenone",
    "cn_name": "4,4\"-二溴二苯甲酮;",
    "alternate_name": "Methanone, bis(4-bromophenyl)-;Benzophenone, 4,4′-dibromo-;Bis(4-bromophenyl)methanone;<em>p</em>,<em>p</em>′-Dibromobenzophenone;Bis(<em>p</em>-bromophenyl) ketone;4,4′-Dibromobenzophenone;Bis(4-bromophenyl) ketone;NSC 86518",
    "duplicated_cas_no": "",
    "SMILES": "C(=O)(C1=CC=C(Br)C=C1)C2=CC=C(Br)C=C2",
    "meta_data": {
        "InChI": "InChI=1S/C13H8Br2O/c14-11-5-1-9(2-6-11)13(16)10-3-7-12(15)8-4-10/h1-8H",
        "InChIKey": null,
        "Canonical SMILES": "O=C(C1=CC=C(Br)C=C1)C2=CC=C(Br)C=C2",
        "Molecular Formula": "C<sub>13</sub>H<sub>8</sub>Br<sub>2</sub>O",
        "Molecular Mass": "340.01",
        "Boiling Point": "395 °C",
        "Melting Point": "177 °C"
    }
}