{
    "cas_no": "64900-65-8",
    "key_name": "2-Chlorobenzenesulfonyl isocyanate",
    "cn_name": "邻氯苯磺酰基异氰酸酯;",
    "alternate_name": "Benzenesulfonyl isocyanate, 2-chloro-;2-Chlorobenzenesulfonyl isocyanate;<em>o</em>-Chlorobenzenesulfonyl isocyanate;(<em>o</em>-Chlorophenyl)sulfonyl isocyanate;(2-Chlorophenyl)sulfonyl isocyanate;1-Chloro-2-(isocyanatosulfonyl)benzene;2-Chlorobenzene-1-sulfonyl isocyanate",
    "duplicated_cas_no": "",
    "SMILES": "S(N=C=O)(=O)(=O)C1=C(Cl)C=CC=C1",
    "meta_data": {
        "InChI": "InChI=1S/C7H4ClNO3S/c8-6-3-1-2-4-7(6)13(11,12)9-5-10/h1-4H",
        "InChIKey": null,
        "Canonical SMILES": "O=C=NS(=O)(=O)C=1C=CC=CC1Cl",
        "Molecular Formula": "C<sub>7</sub>H<sub>4</sub>ClNO<sub>3</sub>S",
        "Molecular Mass": "217.63",
        "Boiling Point": "160-164 °C @ Press: 14 Torr"
    }
}