{
    "cas_no": "52328-98-0",
    "key_name": "Dimethylcurcumin",
    "cn_name": null,
    "alternate_name": "1,4,6-Heptatrien-3-one, 1,7-bis(3,4-dimethoxyphenyl)-5-hydroxy-, (1<em>E</em>,4<em>Z</em>,6<em>E</em>)-;1,4,6-Heptatrien-3-one, 1,7-bis(3,4-dimethoxyphenyl)-5-hydroxy-, (<em>Z</em>,<em>E</em>,<em>E</em>)-;(1<em>E</em>,4<em>Z</em>,6<em>E</em>)-1,7-Bis(3,4-dimethoxyphenyl)-5-hydroxy-1,4,6-heptatrien-3-one;Dimethylcurcumin;ASCJ 9;GO-Y 025;ASC-J 9",
    "duplicated_cas_no": "",
    "SMILES": "O(C)C1=C(OC)C=CC(/C=C/C(/C=C(/C=C/C2=CC(OC)=C(OC)C=C2)\\O)=O)=C1",
    "meta_data": {
        "InChI": "InChI=1S/C23H24O6/c1-26-20-11-7-16(13-22(20)28-3)5-9-18(24)15-19(25)10-6-17-8-12-21(27-2)23(14-17)29-4/h5-15,24H,1-4H3/b9-5+,10-6+,18-15-",
        "InChIKey": null,
        "Canonical SMILES": "O=C(C=CC1=CC=C(OC)C(OC)=C1)C=C(O)C=CC2=CC=C(OC)C(OC)=C2",
        "Molecular Formula": "C<sub>23</sub>H<sub>24</sub>O<sub>6</sub>",
        "Molecular Mass": "396.43",
        "Melting Point": "129-130 °C"
    }
}