{
    "cas_no": "583-68-6",
    "key_name": "2-Bromo-4-methylaniline",
    "cn_name": "2-溴-4-甲基苯胺;",
    "alternate_name": "Benzenamine, 2-bromo-4-methyl-;<em>p</em>-Toluidine, 2-bromo-;2-Bromo-4-methylbenzenamine;2-Bromo-4-methylaniline;2-Bromo-<em>p</em>-toluidine;2-Bromo-4-toluidine;<em>o</em>-Bromo-<em>p</em>-toluidine;4-Amino-3-bromotoluene;4-Methyl-2-bromoaniline;2-Bromo-4-methylphenylamine;3-Bromo-4-aminotoluene;NSC 7092",
    "duplicated_cas_no": "",
    "SMILES": "BrC1=C(N)C=CC(C)=C1",
    "meta_data": {
        "InChI": "InChI=1S/C7H8BrN/c1-5-2-3-7(9)6(8)4-5/h2-4H,9H2,1H3",
        "InChIKey": null,
        "Canonical SMILES": "BrC1=CC(=CC=C1N)C",
        "Molecular Formula": "C<sub>7</sub>H<sub>8</sub>BrN",
        "Molecular Mass": "186.05",
        "Boiling Point": "240 °C",
        "Melting Point": "26 °C"
    }
}