{
    "cas_no": "119-52-8",
    "key_name": "4,4′-Dimethoxybenzoin",
    "cn_name": "烷异英;P,P\"-二甲氧安息香;大茴香偶姻;對二甲氧苯偶姻;",
    "alternate_name": "Ethanone, 2-hydroxy-1,2-bis(4-methoxyphenyl)-;<em>p</em>-Anisoin;2-Hydroxy-1,2-bis(4-methoxyphenyl)ethanone;4,4′-Dimethoxybenzoin;1-Oxo-1,2-bis(<em>p</em>-methoxyphenyl)-2-hydroxyethane;<em>p</em>,<em>p</em>′-Dimethoxybenzoin;NSC 7960;NSC 8504;(±)-<em>p</em>-Anisoin;1,2-Bis(4-methoxyphenyl)-2-hydroxyethanone;2-Hydroxy-4′-methoxy-2-(4-methoxyphenyl)-acetophenone;2-Hydroxy-1,2-di(4-methoxyphenyl)ethanone;2-Hydroxy-1,2-bis(4-methoxyphenyl)ethan-1-one",
    "duplicated_cas_no": "",
    "SMILES": "C(C(=O)C1=CC=C(OC)C=C1)(O)C2=CC=C(OC)C=C2",
    "meta_data": {
        "InChI": "InChI=1S/C16H16O4/c1-19-13-7-3-11(4-8-13)15(17)16(18)12-5-9-14(20-2)10-6-12/h3-10,15,17H,1-2H3",
        "InChIKey": null,
        "Canonical SMILES": "O=C(C1=CC=C(OC)C=C1)C(O)C2=CC=C(OC)C=C2",
        "Molecular Formula": "C<sub>16</sub>H<sub>16</sub>O<sub>4</sub>",
        "Molecular Mass": "272.30",
        "Melting Point": "111-113 °C"
    }
}