{
    "cas_no": "50-82-8",
    "key_name": "2,4,5-Trichlorobenzoic acid",
    "cn_name": "2,4,5-三氯苯甲酸;",
    "alternate_name": "Benzoic acid, 2,4,5-trichloro-;2,4,5-Trichlorobenzoic acid",
    "duplicated_cas_no": "",
    "SMILES": "C(O)(=O)C1=C(Cl)C=C(Cl)C(Cl)=C1",
    "meta_data": {
        "InChI": "InChI=1S/C7H3Cl3O2/c8-4-2-6(10)5(9)1-3(4)7(11)12/h1-2H,(H,11,12)",
        "InChIKey": null,
        "Canonical SMILES": "O=C(O)C1=CC(Cl)=C(Cl)C=C1Cl",
        "Molecular Formula": "C<sub>7</sub>H<sub>3</sub>Cl<sub>3</sub>O<sub>2</sub>",
        "Molecular Mass": "225.46",
        "Melting Point": "166.5 °C"
    }
}