{
    "cas_no": "262-12-4",
    "key_name": "Dibenzo[<em>b</em>,<em>e</em>][1,4]dioxin",
    "cn_name": "二苯并对二噁英;二苯并-对-二恶英;",
    "alternate_name": "Dibenzo[<em>b</em>,<em>e</em>][1,4]dioxin;Dibenzo-<em>p</em>-dioxin;Diphenylene dioxide;Oxanthrene;Dibenzo[1,4]dioxin;Phenodioxin",
    "duplicated_cas_no": "343946-29-2",
    "SMILES": "C1=2C(OC=3C(O1)=CC=CC3)=CC=CC2",
    "meta_data": {
        "InChI": "InChI=1S/C12H8O2/c1-2-6-10-9(5-1)13-11-7-3-4-8-12(11)14-10/h1-8H",
        "InChIKey": null,
        "Canonical SMILES": "O1C=2C=CC=CC2OC=3C=CC=CC13",
        "Molecular Formula": "C<sub>12</sub>H<sub>8</sub>O<sub>2</sub>",
        "Molecular Mass": "184.19",
        "Melting Point": "119 °C",
        "Density": "1.36 g/cm³"
    }
}