{
    "cas_no": "20388-87-8",
    "key_name": "Benzeneethanamine, β-methyl-, hydrochloride (1:1)",
    "cn_name": null,
    "alternate_name": "Benzeneethanamine, β-methyl-, hydrochloride (1:1);Phenethylamine, β-methyl-, hydrochloride;Benzeneethanamine, β-methyl-, hydrochloride;2-Phenyl-1-propanamine hydrochloride;2-Phenylpropylamine hydrochloride;β-Methylbenzeneethanamine hydrochloride;2-Phenyl-1-propanamine monohydrochloride",
    "duplicated_cas_no": "52991-03-4",
    "SMILES": "C(CN)(C)C1=CC=CC=C1.Cl",
    "meta_data": {
        "InChI": "InChI=1S/C9H13N.ClH/c1-8(7-10)9-5-3-2-4-6-9;/h2-6,8H,7,10H2,1H3;1H",
        "InChIKey": null,
        "Canonical SMILES": "Cl.NCC(C=1C=CC=CC1)C",
        "Molecular Formula": "C<sub>9</sub>H<sub>13</sub>N.ClH",
        "Molecular Mass": "",
        "Melting Point": "194 °C"
    }
}