{
    "cas_no": "589-75-3",
    "key_name": "Butyl octanoate",
    "cn_name": "辛酸正丁酯;",
    "alternate_name": "Octanoic acid, butyl ester;Butyl caprylate;Butyl octanoate;<em>n</em>-Butyl octanoate;NSC 23740",
    "duplicated_cas_no": "",
    "SMILES": "C(CCCCCCC)(OCCCC)=O",
    "meta_data": {
        "InChI": "InChI=1S/C12H24O2/c1-3-5-7-8-9-10-12(13)14-11-6-4-2/h3-11H2,1-2H3",
        "InChIKey": null,
        "Canonical SMILES": "O=C(OCCCC)CCCCCCC",
        "Molecular Formula": "C<sub>12</sub>H<sub>24</sub>O<sub>2</sub>",
        "Molecular Mass": "200.32",
        "Boiling Point": "240.5 °C",
        "Melting Point": "-42.9 °C",
        "Density": "0.8786 g/cm³ @ Temp: 0 °C"
    }
}