{
    "cas_no": "886-06-6",
    "key_name": "3-Piperidinopropiophenone hydrochloride",
    "cn_name": null,
    "alternate_name": "1-Propanone, 1-phenyl-3-(1-piperidinyl)-, hydrochloride (1:1);Propiophenone, 3-piperidino-, hydrochloride;1-Propanone, 1-phenyl-3-(1-piperidinyl)-, hydrochloride;S 220;<em>N</em>-(2-Benzoylethyl)piperidine hydrochloride;3-Piperidinopropiophenone hydrochloride;β-Piperidinopropiophenone hydrochloride;3-(1-Piperidinyl)propiophenone hydrochloride;1-(3-Oxo-3-phenylpropyl)piperidinium chloride;1-(3-Oxo-3-phenylpropyl)piperidin-1-ium chloride;1-(2-Benzoylethyl)piperidinium chloride;1-Phenyl-3-(piperidin-1-yl)propan-1-one hydrochloride",
    "duplicated_cas_no": "",
    "SMILES": "C(CCN1CCCCC1)(=O)C2=CC=CC=C2.Cl",
    "meta_data": {
        "InChI": "InChI=1S/C14H19NO.ClH/c16-14(13-7-3-1-4-8-13)9-12-15-10-5-2-6-11-15;/h1,3-4,7-8H,2,5-6,9-12H2;1H",
        "InChIKey": null,
        "Canonical SMILES": "Cl.O=C(C=1C=CC=CC1)CCN2CCCCC2",
        "Molecular Formula": "C<sub>14</sub>H<sub>19</sub>NO.ClH",
        "Molecular Mass": "",
        "Melting Point": "192-193 °C"
    }
}