{
    "cas_no": "40420-22-2",
    "key_name": "Heptanedioic acid, 3-oxo-, 1,7-diethyl ester",
    "cn_name": "3-氧庚二酸二乙酯;",
    "alternate_name": "Heptanedioic acid, 3-oxo-, 1,7-diethyl ester;Heptanedioic acid, 3-oxo-, diethyl ester;Diethyl 3-oxoheptanedioate;Diethyl 3-oxopimelate;3-Oxoheptanedioic acid diethyl ester;1,7-Diethyl 3-oxoheptanedioate",
    "duplicated_cas_no": "",
    "SMILES": "C(CCCC(OCC)=O)(CC(OCC)=O)=O",
    "meta_data": {
        "InChI": "InChI=1S/C11H18O5/c1-3-15-10(13)7-5-6-9(12)8-11(14)16-4-2/h3-8H2,1-2H3",
        "InChIKey": null,
        "Canonical SMILES": "O=C(OCC)CC(=O)CCCC(=O)OCC",
        "Molecular Formula": "C<sub>11</sub>H<sub>18</sub>O<sub>5</sub>",
        "Molecular Mass": "230.26",
        "Boiling Point": "120-121 °C @ Press: 0.15 Torr"
    }
}