{
    "cas_no": "7664-41-7",
    "key_name": "Ammonia",
    "cn_name": "氨;液氨;氨气;",
    "alternate_name": "Ammonia;Ammonia gas;Spirit of Hartshorn;Nitro-Sil;R 717 (ammonia);Refrigerent R717;Ammonia-<sup>14</sup><em>N</em>;R 717;Busan 1474;Spirits of hartshorn;MeSH ID: D000641",
    "duplicated_cas_no": "8007-57-6;208990-07-2;214478-05-4;558443-52-0;1026405-88-8",
    "SMILES": "N",
    "meta_data": {
        "InChI": "InChI=1S/H3N/h1H3",
        "InChIKey": null,
        "Canonical SMILES": "N",
        "Molecular Formula": "H<sub>3</sub>N",
        "Molecular Mass": "",
        "Boiling Point": "-33.35 °C",
        "Melting Point": "-77.7 °C",
        "Density": "0.7 g/cm³ @ Temp: -33 °C"
    }
}