{
    "cas_no": "95-74-9",
    "key_name": "3-Chloro-4-methylaniline",
    "cn_name": "3-氯对甲苯胺;",
    "alternate_name": "Benzenamine, 3-chloro-4-methyl-;<em>p</em>-Toluidine, 3-chloro-;3-Chloro-4-methylbenzenamine;3-Chloro-<em>p</em>-toluidine;3-Chloro-4-methylaniline;4-Methyl-3-chloroaniline;1-Amino-3-chloro-4-methylbenzene;2-Chloro-4-aminotoluene;DRC 1347;3-Chloro-4-methylphenylamine;NSC 96620;4-Amino-2-chlorotoluene",
    "duplicated_cas_no": "",
    "SMILES": "ClC1=C(C)C=CC(N)=C1",
    "meta_data": {
        "InChI": "InChI=1S/C7H8ClN/c1-5-2-3-6(9)4-7(5)8/h2-4H,9H2,1H3",
        "InChIKey": null,
        "Canonical SMILES": "ClC1=CC(N)=CC=C1C",
        "Molecular Formula": "C<sub>7</sub>H<sub>8</sub>ClN",
        "Molecular Mass": "141.60",
        "Boiling Point": "242-244 °C @ Press: 760 Torr",
        "Melting Point": "26 °C"
    }
}