{
    "cas_no": "2832-49-7",
    "key_name": "<em>N</em>,<em>N</em>,<em>N</em>′,<em>N</em>′-Tetraethylsulfamide",
    "cn_name": "N,N,N,N-四乙基硫酰胺;N-三羟甲基甲基-2-氨基乙磺酸;",
    "alternate_name": "Sulfamide, <em>N</em>,<em>N</em>,<em>N</em>′,<em>N</em>′-tetraethyl-;Sulfamide, tetraethyl-;<em>N</em>,<em>N</em>,<em>N</em>′,<em>N</em>′-Tetraethylsulfamide;Ethanamine, <em>N</em>,<em>N</em>′-sulfonylbis[<em>N</em>-ethyl-;Tetraethylsulfamide;(Diethylsulfamoyl)diethylamine",
    "duplicated_cas_no": "",
    "SMILES": "S(N(CC)CC)(N(CC)CC)(=O)=O",
    "meta_data": {
        "InChI": "InChI=1S/C8H20N2O2S/c1-5-9(6-2)13(11,12)10(7-3)8-4/h5-8H2,1-4H3",
        "InChIKey": null,
        "Canonical SMILES": "O=S(=O)(N(CC)CC)N(CC)CC",
        "Molecular Formula": "C<sub>8</sub>H<sub>20</sub>N<sub>2</sub>O<sub>2</sub>S",
        "Molecular Mass": "208.32",
        "Boiling Point": "92 °C @ Press: 1 Torr",
        "Density": "1.037 g/cm³ @ Temp: 25 °C"
    }
}