{
    "cas_no": "27025-41-8",
    "key_name": "Oxidized glutathione",
    "cn_name": "L-谷胱甘肽(氧化型);",
    "alternate_name": "Glycine, <span class=\"text-smallcaps\">L</smallcap>-γ-glutamyl-<smallcap>L</span>-cysteinyl-, bimol. (2→2′)-disulfide;Glutamine, <em>N</em>,<em>N</em>′-[dithiobis[1-[(carboxymethyl)carbamoyl]ethylene]]di-, <span class=\"text-smallcaps\">L</span>-;Glutamine, <em>N</em>,<em>N</em>′-[dithiobis[1-[(carboxymethyl)carbamoyl]ethylene]]di-;Glutathione-SSG;GSSG;Oxidized glutathione;Glutathione, disulfide;Glutathione, oxidized;Glutathione-<em>S</em>-<em>S</em>-glutathione;Oxidized <span class=\"text-smallcaps\">L</span>-glutathione;Glutathione disulphide;Sleep-promoting factor B;Oxiglutatione;Selenoglutathione;MeSH ID: D019803",
    "duplicated_cas_no": "121-24-4;10421-65-5;87140-29-2;97908-42-4;371915-35-4;475558-84-0;1254121-37-3;1260488-58-1;2394733-76-5",
    "SMILES": "[C@@H](NC(CC[C@@H](C(O)=O)N)=O)(C(NCC(O)=O)=O)CSSC[C@H](NC(CC[C@@H](C(O)=O)N)=O)C(NCC(O)=O)=O",
    "meta_data": {
        "InChI": "InChI=1S/C20H32N6O12S2/c21-9(19(35)36)1-3-13(27)25-11(17(33)23-5-15(29)30)7-39-40-8-12(18(34)24-6-16(31)32)26-14(28)4-2-10(22)20(37)38/h9-12H,1-8,21-22H2,(H,23,33)(H,24,34)(H,25,27)(H,26,28)(H,29,30)(H,31,32)(H,35,36)(H,37,38)/t9-,10-,11-,12-/m0/s1",
        "InChIKey": null,
        "Canonical SMILES": "O=C(O)CNC(=O)C(NC(=O)CCC(N)C(=O)O)CSSCC(NC(=O)CCC(N)C(=O)O)C(=O)NCC(=O)O",
        "Molecular Formula": "C<sub>20</sub>H<sub>32</sub>N<sub>6</sub>O<sub>12</sub>S<sub>2</sub>",
        "Molecular Mass": "",
        "Melting Point": "170-172 °C"
    }
}