{
    "cas_no": "2040-90-6",
    "key_name": "2-Chloro-6-fluorophenol",
    "cn_name": "2-氯-6-氟苯酚;",
    "alternate_name": "Phenol, 2-chloro-6-fluoro-;2-Chloro-6-fluorophenol;2-Fluoro-6-chlorophenol",
    "duplicated_cas_no": "",
    "SMILES": "OC1=C(Cl)C=CC=C1F",
    "meta_data": {
        "InChI": "InChI=1S/C6H4ClFO/c7-4-2-1-3-5(8)6(4)9/h1-3,9H",
        "InChIKey": null,
        "Canonical SMILES": "FC1=CC=CC(Cl)=C1O",
        "Molecular Formula": "C<sub>6</sub>H<sub>4</sub>ClFO",
        "Molecular Mass": "146.55",
        "Melting Point": "65 °C"
    }
}