{
    "cas_no": "379-52-2",
    "key_name": "Triphenyltin fluoride",
    "cn_name": null,
    "alternate_name": "Stannane, fluorotriphenyl-;Triphenyltin fluoride;Tin, fluorotriphenyl-;Fluorotriphenylstannane;BioMeT 204;Tin triphenylfluoride",
    "duplicated_cas_no": "68785-38-6",
    "SMILES": "[Sn](F)(C1=CC=CC=C1)(C2=CC=CC=C2)C3=CC=CC=C3",
    "meta_data": {
        "InChI": "InChI=1S/3C6H5.FH.Sn/c3*1-2-4-6-5-3-1;;/h3*1-5H;1H;/q;;;;+1/p-1",
        "InChIKey": null,
        "Canonical SMILES": "F[Sn](C=1C=CC=CC1)(C=2C=CC=CC2)C=3C=CC=CC3",
        "Molecular Formula": "C<sub>18</sub>H<sub>15</sub>FSn",
        "Molecular Mass": "369.02",
        "Melting Point": "357 °C (decomp)"
    }
}