{
    "cas_no": "19786-36-8",
    "key_name": "<span class=\"text-smallcaps\">L</smallcap>-Prolyl-<smallcap>L</span>-tyrosine",
    "cn_name": null,
    "alternate_name": "<span class=\"text-smallcaps\">L</smallcap>-Tyrosine, <smallcap>L</span>-prolyl-;Tyrosine, <em>N</em>-<span class=\"text-smallcaps\">L</smallcap>-prolyl-, <smallcap>L</span>-;<span class=\"text-smallcaps\">L</smallcap>-Tyrosine, <em>N</em>-<smallcap>L</span>-prolyl-;<span class=\"text-smallcaps\">L</smallcap>-Prolyl-<smallcap>L</span>-tyrosine;48: PN: WO2005081628 SEQID: 1048 claimed protein;37: PN: EP2161028 PAGE: 10 claimed protein;14: PN: WO2014063098 TABLE: 5 claimed sequence;134: PN: US20130123467 SEQID: 160 claimed protein;785: PN: WO2022215055 SEQID: 785 claimed protein",
    "duplicated_cas_no": "",
    "SMILES": "C(N[C@@H](CC1=CC=C(O)C=C1)C(O)=O)(=O)[C@@H]2CCCN2",
    "meta_data": {
        "InChI": "InChI=1S/C14H18N2O4/c17-10-5-3-9(4-6-10)8-12(14(19)20)16-13(18)11-2-1-7-15-11/h3-6,11-12,15,17H,1-2,7-8H2,(H,16,18)(H,19,20)/t11-,12-/m0/s1",
        "InChIKey": null,
        "Canonical SMILES": "O=C(O)C(NC(=O)C1NCCC1)CC2=CC=C(O)C=C2",
        "Molecular Formula": "C<sub>14</sub>H<sub>18</sub>N<sub>2</sub>O<sub>4</sub>",
        "Molecular Mass": "278.30",
        "Melting Point": "217 °C"
    }
}