{
    "cas_no": "81-64-1",
    "key_name": "Quinizarin",
    "cn_name": "1,4-二羟基蒽醌;透明橙G;溶剂橙86;",
    "alternate_name": "9,10-Anthracenedione, 1,4-dihydroxy-;Anthraquinone, 1,4-dihydroxy-;1,4-Dihydroxy-9,10-anthracenedione;C.I. 58050;Chinizarin;Quinizarin;Quinizarine;Smoke Orange R;1,4-Dihydroxyanthraquinone;1,4-Dihydroxy-9,10-anthraquinone;NSC 15367;DAQ;Solvent Orange 86;C.I. Solvent Orange 86;Macrolex Orange GG;C.I. Solvent Orange 100;Solvent Orange 100;Smoke Orange 18;NSC 229036;NSC 40899;NSC 646569",
    "duplicated_cas_no": "103220-12-8",
    "SMILES": "O=C1C=2C(C(=O)C=3C1=CC=CC3)=C(O)C=CC2O",
    "meta_data": {
        "InChI": "InChI=1S/C14H8O4/c15-9-5-6-10(16)12-11(9)13(17)7-3-1-2-4-8(7)14(12)18/h1-6,15-16H",
        "InChIKey": null,
        "Canonical SMILES": "O=C1C=2C=CC=CC2C(=O)C=3C(O)=CC=C(O)C13",
        "Molecular Formula": "C<sub>14</sub>H<sub>8</sub>O<sub>4</sub>",
        "Molecular Mass": "240.21",
        "Melting Point": "196 °C",
        "Density": "1.52 g/cm³"
    }
}