{
    "cas_no": "541-59-3",
    "key_name": "Maleimide",
    "cn_name": "马来酰亚胺;顺丁烯二酰亚胺;",
    "alternate_name": "1<em>H</em>-Pyrrole-2,5-dione;Maleimide;Pyrrole-2,5-dione;3-Pyrroline-2,5-dione;Maleic imide;NSC 13684;2,5-Dioxo-2,5-dihydropyrrole;2,5-Dihydro-1<em>H</em>-pyrrole-2,5-dione",
    "duplicated_cas_no": "",
    "SMILES": "O=C1NC(=O)C=C1",
    "meta_data": {
        "InChI": "InChI=1S/C4H3NO2/c6-3-1-2-4(7)5-3/h1-2H,(H,5,6,7)",
        "InChIKey": null,
        "Canonical SMILES": "O=C1C=CC(=O)N1",
        "Molecular Formula": "C<sub>4</sub>H<sub>3</sub>NO<sub>2</sub>",
        "Molecular Mass": "97.07",
        "Boiling Point": "120-125 °C @ Press: 10 Torr",
        "Melting Point": "94 °C"
    }
}