{
    "cas_no": "506-46-7",
    "key_name": "Hexacosanoic acid",
    "cn_name": "蜡酸;",
    "alternate_name": "Hexacosanoic acid;Cerotic acid;Cerinic acid;Ceratinic acid;Ceric acid;<em>n</em>-Hexacosanoic acid;Cerylic acid;NSC 4205",
    "duplicated_cas_no": "",
    "SMILES": "C(CCCCCCCCCCCCCCCCC)CCCCCCCC(O)=O",
    "meta_data": {
        "InChI": "InChI=1S/C26H52O2/c1-2-3-4-5-6-7-8-9-10-11-12-13-14-15-16-17-18-19-20-21-22-23-24-25-26(27)28/h2-25H2,1H3,(H,27,28)",
        "InChIKey": null,
        "Canonical SMILES": "O=C(O)CCCCCCCCCCCCCCCCCCCCCCCCC",
        "Molecular Formula": "C<sub>26</sub>H<sub>52</sub>O<sub>2</sub>",
        "Molecular Mass": "396.69",
        "Melting Point": "88.5 °C"
    }
}