{
    "cas_no": "5346-90-7",
    "key_name": "α-<span class=\"text-smallcaps\">D</span>-Cellobiose octaacetate",
    "cn_name": "D-(+)-纤维二糖八乙酸酯;八醋酸纤维素;",
    "alternate_name": "α-<span class=\"text-smallcaps\">D</smallcap>-Glucopyranose, 4-<em>O</em>-(2,3,4,6-tetra-<em>O</em>-acetyl-β-<smallcap>D</span>-glucopyranosyl)-, 1,2,3,6-tetraacetate;Cellobiose, octaacetate, α-<span class=\"text-smallcaps\">D</span>-;α-<span class=\"text-smallcaps\">D</smallcap>-Glucopyranose, 4-<em>O</em>-(2,3,4,6-tetra-<em>O</em>-acetyl-β-<smallcap>D</span>-glucopyranosyl)-, tetraacetate;Octaacetyl-α-cellobiose;Octa-<em>O</em>-acetyl-α-<span class=\"text-smallcaps\">D</span>-cellobiose;α-Cellobiose octaacetate;α-Cellobiopyranose octaacetate;α-<span class=\"text-smallcaps\">D</span>-Cellobiose octaacetate;NSC 1221;NSC 1696",
    "duplicated_cas_no": "69947-99-5;886202-76-2",
    "SMILES": "O([C@H]1[C@H](OC(C)=O)[C@@H](OC(C)=O)[C@@H](OC(C)=O)O[C@@H]1COC(C)=O)[C@H]2[C@H](OC(C)=O)[C@@H](OC(C)=O)[C@H](OC(C)=O)[C@@H](COC(C)=O)O2",
    "meta_data": {
        "InChI": "InChI=1S/C28H38O19/c1-11(29)37-9-19-21(39-13(3)31)23(40-14(4)32)26(43-17(7)35)28(46-19)47-22-20(10-38-12(2)30)45-27(44-18(8)36)25(42-16(6)34)24(22)41-15(5)33/h19-28H,9-10H2,1-8H3/t19-,20-,21-,22-,23+,24+,25-,26-,27+,28+/m1/s1",
        "InChIKey": null,
        "Canonical SMILES": "O=C(OCC1OC(OC2C(OC(OC(=O)C)C(OC(=O)C)C2OC(=O)C)COC(=O)C)C(OC(=O)C)C(OC(=O)C)C1OC(=O)C)C",
        "Molecular Formula": "C<sub>28</sub>H<sub>38</sub>O<sub>19</sub>",
        "Molecular Mass": "678.59",
        "Melting Point": "226 °C"
    }
}