{
    "cas_no": "343-94-2",
    "key_name": "Tryptamine hydrochloride",
    "cn_name": "色胺盐酸盐;2-(3-吲哚)乙胺盐酸盐;3-(2-氨乙基)吲哚盐酸盐;",
    "alternate_name": "1<em>H</em>-Indole-3-ethanamine, hydrochloride (1:1);Indole, 3-(2-aminoethyl)-, monohydrochloride;1<em>H</em>-Indole-3-ethanamine, monohydrochloride;Tryptamine hydrochloride;Tryptamine monohydrochloride;3-(2-Aminoethyl)-1<em>H</em>-indole monohydrochloride;3-(2-Aminoethyl)indole hydrochloride;2-(3-Indolyl)ethylamine hydrochloride;2-(1<em>H</em>-Indol-3-yl)ethan-1-amine hydrochloride",
    "duplicated_cas_no": "",
    "SMILES": "C(CN)C=1C=2C(NC1)=CC=CC2.Cl",
    "meta_data": {
        "InChI": "InChI=1S/C10H12N2.ClH/c11-6-5-8-7-12-10-4-2-1-3-9(8)10;/h1-4,7,12H,5-6,11H2;1H",
        "InChIKey": null,
        "Canonical SMILES": "Cl.NCCC1=CNC=2C=CC=CC21",
        "Molecular Formula": "C<sub>10</sub>H<sub>12</sub>N<sub>2</sub>.ClH",
        "Molecular Mass": "",
        "Melting Point": "246 °C"
    }
}