{
    "cas_no": "1672-48-6",
    "key_name": "6-Amino-5-nitroso-2-thiouracil",
    "cn_name": null,
    "alternate_name": "4(1<em>H</em>)-Pyrimidinone, 6-amino-2,3-dihydro-5-nitroso-2-thioxo-;Uracil, 6-amino-5-nitroso-2-thio-;6-Amino-2,3-dihydro-5-nitroso-2-thioxo-4(1<em>H</em>)-pyrimidinone;4-Amino-6-hydroxy-2-mercapto-5-nitrosopyrimidine;6-Amino-5-nitroso-2-thiouracil;NSC 229540",
    "duplicated_cas_no": "",
    "SMILES": "N(=O)C1=C(N)NC(=S)NC1=O",
    "meta_data": {
        "InChI": "InChI=1S/C4H4N4O2S/c5-2-1(8-10)3(9)7-4(11)6-2/h(H4,5,6,7,9,11)",
        "InChIKey": null,
        "Canonical SMILES": "O=NC=1C(=O)NC(=S)NC1N",
        "Molecular Formula": "C<sub>4</sub>H<sub>4</sub>N<sub>4</sub>O<sub>2</sub>S",
        "Molecular Mass": "172.17",
        "Melting Point": "&gt;240 °C"
    }
}