{
    "cas_no": "1066-45-1",
    "key_name": "Trimethyltin chloride",
    "cn_name": "三甲基氯化锡;",
    "alternate_name": "Stannane, chlorotrimethyl-;Trimethyltin chloride;Chlorotrimethylstannane;M&amp;T Chemicals 1222-45;Chlorotrimethyltin;Trimethylstannyl chloride;Trimethylchlorostannane;Trimethylchlorotin;Trimethyltin monochloride;NSC 12088;NSC 92613;Trimethylstannanyl chloride",
    "duplicated_cas_no": "6288-34-2;2313620-49-2",
    "SMILES": "[Sn](C)(C)(C)Cl",
    "meta_data": {
        "InChI": "InChI=1S/3CH3.ClH.Sn/h3*1H3;1H;/q;;;;+1/p-1",
        "InChIKey": null,
        "Canonical SMILES": "Cl[Sn](C)(C)C",
        "Molecular Formula": "C<sub>3</sub>H<sub>9</sub>ClSn",
        "Molecular Mass": "199.27",
        "Boiling Point": "154-156 °C",
        "Melting Point": "37.5 °C",
        "Density": "1.645 g/cm³ @ Temp: 40 °C"
    }
}