{
    "cas_no": "1445-45-0",
    "key_name": "Trimethyl orthoacetate",
    "cn_name": "原乙酸三甲酯;",
    "alternate_name": "Ethane, 1,1,1-trimethoxy-;Orthoacetic acid, trimethyl ester;1,1,1-Trimethoxyethane;Trimethyl orthoacetate;Methyl orthoacetate",
    "duplicated_cas_no": "",
    "SMILES": "C(OC)(OC)(OC)C",
    "meta_data": {
        "InChI": "InChI=1S/C5H12O3/c1-5(6-2,7-3)8-4/h1-4H3",
        "InChIKey": null,
        "Canonical SMILES": "O(C)C(OC)(OC)C",
        "Molecular Formula": "C<sub>5</sub>H<sub>12</sub>O<sub>3</sub>",
        "Molecular Mass": "120.15",
        "Boiling Point": "108 °C"
    }
}