{
    "cas_no": "24157-81-1",
    "key_name": "2,6-Diisopropylnaphthalene",
    "cn_name": "2,6-二异丙基萘;",
    "alternate_name": "Naphthalene, 2,6-bis(1-methylethyl)-;Naphthalene, 2,6-diisopropyl-;2,6-Bis(1-methylethyl)naphthalene;2,6-Diisopropylnaphthalene;NSC 166467;2,6-Di(propan-2-yl)naphthalene",
    "duplicated_cas_no": "",
    "SMILES": "C(C)(C)C1=CC2=C(C=C(C(C)C)C=C2)C=C1",
    "meta_data": {
        "InChI": "InChI=1S/C16H20/c1-11(2)13-5-7-16-10-14(12(3)4)6-8-15(16)9-13/h5-12H,1-4H3",
        "InChIKey": null,
        "Canonical SMILES": "C=1C=C(C=C2C=CC(=CC12)C(C)C)C(C)C",
        "Molecular Formula": "C<sub>16</sub>H<sub>20</sub>",
        "Molecular Mass": "212.33",
        "Melting Point": "66.8 °C"
    }
}