{
    "cas_no": "2174-59-6",
    "key_name": "5-Demethylnobiletin",
    "cn_name": null,
    "alternate_name": "4<em>H</em>-1-Benzopyran-4-one, 2-(3,4-dimethoxyphenyl)-5-hydroxy-6,7,8-trimethoxy-;Flavone, 5-hydroxy-3′,4′,6,7,8-pentamethoxy-;2-(3,4-Dimethoxyphenyl)-5-hydroxy-6,7,8-trimethoxy-4<em>H</em>-1-benzopyran-4-one;5-<em>O</em>-Demethylnobiletin;5-Hydroxy-6,7,8,3′,4′-pentamethoxyflavone;5-Hydroxy-3′,4′,6,7,8-pentamethoxyflavone;5-<em>O</em>-Desmethylnobiletin;5-Desmethylnobiletin;5-Demethylnobiletin;NSC 618927;2-(3,4-Dimethoxyphenyl)-5-hydroxy-6,7,8-trimethoxychromen-4-one",
    "duplicated_cas_no": "",
    "SMILES": "O(C)C1=C2C(=C(O)C(OC)=C1OC)C(=O)C=C(O2)C3=CC(OC)=C(OC)C=C3",
    "meta_data": {
        "InChI": "InChI=1S/C20H20O8/c1-23-12-7-6-10(8-14(12)24-2)13-9-11(21)15-16(22)18(25-3)20(27-5)19(26-4)17(15)28-13/h6-9,22H,1-5H3",
        "InChIKey": null,
        "Canonical SMILES": "O=C1C=C(OC2=C(OC)C(OC)=C(OC)C(O)=C12)C=3C=CC(OC)=C(OC)C3",
        "Molecular Formula": "C<sub>20</sub>H<sub>20</sub>O<sub>8</sub>",
        "Molecular Mass": "388.37",
        "Melting Point": "145 °C"
    }
}