{
    "cas_no": "126-27-2",
    "key_name": "Oxethazaine",
    "cn_name": "奥昔卡因;2-双(N-甲基-N-苯基叔丁基-氨基甲酰甲基)氨基乙醇;",
    "alternate_name": "Acetamide, 2,2′-[(2-hydroxyethyl)imino]bis[<em>N</em>-(1,1-dimethyl-2-phenylethyl)-<em>N</em>-methyl-;Acetamide, 2,2′-[(2-hydroxyethyl)imino]bis[<em>N</em>-(α,α-dimethylphenethyl)-<em>N</em>-methyl-;2,2′-[(2-Hydroxyethyl)imino]bis[<em>N</em>-(1,1-dimethyl-2-phenylethyl)-<em>N</em>-methylacetamide];FH 099;Wy 806;Betalgil;2-Di(<em>N</em>-methyl-<em>N</em>-phenyl-<em>tert</em>-butyl-carbamoylmethyl)aminoethanol;2,2′-[(2-Hydroxyethyl)imino]bis[<em>N</em>-(α,α-dimethylphenethyl)-<em>N</em>-methylacetamide];Oxaine;Oxethazaine;Mucoxin;Oxetacaine;Storocain;Storocaine;Topicain;2-[2-Hydroxyethyl-[2-[methyl-(2-methyl-1-phenylpropan-2-yl)amino]-2-oxoethyl]amino]-<em>N</em>-methyl-<em>N</em>-(2-methyl-1-phenylpropan-2-yl)acetamide",
    "duplicated_cas_no": "1086263-55-9",
    "SMILES": "C(N(C(CN(CC(N(C(CC1=CC=CC=C1)(C)C)C)=O)CCO)=O)C)(CC2=CC=CC=C2)(C)C",
    "meta_data": {
        "InChI": "InChI=1S/C28H41N3O3/c1-27(2,19-23-13-9-7-10-14-23)29(5)25(33)21-31(17-18-32)22-26(34)30(6)28(3,4)20-24-15-11-8-12-16-24/h7-16,32H,17-22H2,1-6H3",
        "InChIKey": null,
        "Canonical SMILES": "O=C(N(C)C(C)(C)CC=1C=CC=CC1)CN(CC(=O)N(C)C(C)(C)CC=2C=CC=CC2)CCO",
        "Molecular Formula": "C<sub>28</sub>H<sub>41</sub>N<sub>3</sub>O<sub>3</sub>",
        "Molecular Mass": "467.64",
        "Melting Point": "104 °C"
    }
}