{
    "cas_no": "2767-80-8",
    "key_name": "Tris(hydroxymethyl)phosphine",
    "cn_name": "Tris(hydroxymethyl)phosphine;",
    "alternate_name": "Methanol, 1,1′,1′′-phosphinidynetris-;Methanol, phosphinidynetri-;Methanol, phosphinidynetris-;1,1′,1′′-Phosphinidynetris[methanol];Phosphine, tris(hydroxymethyl)-;Tris(hydroxymethyl)phosphine;Trimethylolphosphine;Tris(methanol)phosphine;[Bis(hydroxymethyl)phosphanyl]methanol",
    "duplicated_cas_no": "4568-60-9;15764-49-5",
    "SMILES": "P(CO)(CO)CO",
    "meta_data": {
        "InChI": "InChI=1S/C3H9O3P/c4-1-7(2-5)3-6/h4-6H,1-3H2",
        "InChIKey": null,
        "Canonical SMILES": "OCP(CO)CO",
        "Molecular Formula": "C<sub>3</sub>H<sub>9</sub>O<sub>3</sub>P",
        "Molecular Mass": "124.08",
        "Boiling Point": "110-114 °C @ Press: 2.5 Torr",
        "Melting Point": "51-53 °C",
        "Density": "1.161 g/cm³ @ Temp: 20 °C"
    }
}