{
    "cas_no": "20547-45-9",
    "key_name": "Paederoside",
    "cn_name": null,
    "alternate_name": "Carbonothioic acid, <em>O</em>-[[(2a<em>S</em>,4a<em>S</em>,5<em>S</em>,7b<em>S</em>)-5-(β-<span class=\"text-smallcaps\">D</span>-glucopyranosyloxy)-2a,4a,5,7b-tetrahydro-1-oxo-1<em>H</em>-2,6-dioxacyclopent[<em>cd</em>]inden-4-yl]methyl] <em>S</em>-methyl ester;Pederoside;Carbonothioic acid, <em>O</em>-[[5-(β-<span class=\"text-smallcaps\">D</span>-glucopyranosyloxy)-2a,4a,5,7b-tetrahydro-1-oxo-1<em>H</em>-2,6-dioxacyclopent[<em>cd</em>]inden-4-yl]methyl] <em>S</em>-methyl ester, [2a<em>S</em>-(2aα,4aα,5α,7bα)]-;1<em>H</em>-2,6-Dioxacyclopent[<em>cd</em>]indene, carbonothioic acid deriv.;Paederoside;NSC 305984",
    "duplicated_cas_no": "27745-19-3",
    "SMILES": "O([C@H]1[C@]2([C@@]3([C@](C=C2COC(SC)=O)(OC(=O)C3=CO1)[H])[H])[H])[C@@H]4O[C@H](CO)[C@@H](O)[C@H](O)[C@H]4O",
    "meta_data": {
        "InChI": "InChI=1S/C18H22O11S/c1-30-18(24)26-4-6-2-8-11-7(15(23)27-8)5-25-16(10(6)11)29-17-14(22)13(21)12(20)9(3-19)28-17/h2,5,8-14,16-17,19-22H,3-4H2,1H3/t8-,9+,10+,11-,12+,13-,14+,16-,17-/m0/s1",
        "InChIKey": null,
        "Canonical SMILES": "O=C(OCC1=CC2OC(=O)C3=COC(OC4OC(CO)C(O)C(O)C4O)C1C32)SC",
        "Molecular Formula": "C<sub>18</sub>H<sub>22</sub>O<sub>11</sub>S",
        "Molecular Mass": "446.43",
        "Melting Point": "122-123 °C"
    }
}