{
    "cas_no": "104641-60-3",
    "key_name": "(3<em>R</em>)-1-Methyl-3-pyrrolidinol",
    "cn_name": "(R)-(-)-1-甲基-3-羟基吡咯烷;(R)-(-)-1-甲基-3-吡咯烷醇;",
    "alternate_name": "3-Pyrrolidinol, 1-methyl-, (3<em>R</em>)-;3-Pyrrolidinol, 1-methyl-, (<em>R</em>)-;(3<em>R</em>)-1-Methyl-3-pyrrolidinol;(<em>R</em>)-1-Methyl-3-pyrrolidinol;(3<em>R</em>)-1-Methylpyrrolidin-3-ol;(<em>R</em>)-<em>N</em>-Methyl-3-pyrrolidinol;(<em>R</em>)-(-)-1-Methyl-3-hydroxypyrrolidine;(R)-(-)-1-Methyl-3-pyrrolidinol;3-Pyrrolidinol 1-methyl-, (3R)-",
    "duplicated_cas_no": "",
    "SMILES": "O[C@H]1CN(C)CC1",
    "meta_data": {
        "InChI": "InChI=1S/C5H11NO/c1-6-3-2-5(7)4-6/h5,7H,2-4H2,1H3/t5-/m1/s1",
        "InChIKey": null,
        "Canonical SMILES": "OC1CN(C)CC1",
        "Molecular Formula": "C<sub>5</sub>H<sub>11</sub>NO",
        "Molecular Mass": "101.15",
        "Boiling Point": "103-106 °C @ Press: 35 Torr"
    }
}