{
    "cas_no": "25134-01-4",
    "key_name": "2,6-Xylenol homopolymer",
    "cn_name": null,
    "alternate_name": "Phenol, 2,6-dimethyl-, homopolymer;2,6-Xylenol, polymers;Poly(2,6-xylenol);2,6-Dimethylphenol polymer;2,6-Xylenol polymer;2,6-Dimethylphenylene oxide polymer;Poly(2,6-dimethyl-1,4-phenylene oxide);2,6-Dimethylphenol homopolymer;Sorfix;Poly(2,6-dimethylphenol);2,6-Xylenol homopolymer;2,6-Dimethyl-1,4-phenylene oxide homopolymer;2,6-Dimethyl-1,4-phenylene ether homopolymer;P 101M;Poly(2,6-dimethylphenylene oxide);Polymer 20 mb",
    "duplicated_cas_no": "1363408-63-2;2703772-75-0",
    "SMILES": "OC1=C(C)C=CC=C1C",
    "meta_data": {
        "InChI": "InChI=1S/C8H10O/c1-6-4-3-5-7(2)8(6)9/h3-5,9H,1-2H3",
        "InChIKey": null,
        "Canonical SMILES": "OC=1C(=CC=CC1C)C",
        "Molecular Formula": "(C<sub>8</sub>H<sub>10</sub>O)<sub>x</sub>",
        "Molecular Mass": "",
        "Melting Point": "258-261 °C",
        "Density": "1.069 g/cm³"
    }
}