{
    "cas_no": "1121-31-9",
    "key_name": "2-Mercaptopyridine <em>N</em>-oxide",
    "cn_name": "2-巯基吡啶-N-氧化物;",
    "alternate_name": "2-Pyridinethiol, 1-oxide;2-Mercaptopyridine 1-oxide;2-Mercaptopyridine <em>N</em>-oxide;2-Mercaptopyridine monoxide;2-Pyridinethiol <em>N</em>-oxide;Omadine;2-Mercaptopyridine oxide;2-Sulfanylpyridin-1-ium-1-olate",
    "duplicated_cas_no": "",
    "SMILES": "SC=1N(=O)=CC=CC1",
    "meta_data": {
        "InChI": "InChI=1S/C5H5NOS/c7-6-4-2-1-3-5(6)8/h1-4,8H",
        "InChIKey": null,
        "Canonical SMILES": "O=N=1C=CC=CC1S",
        "Molecular Formula": "C<sub>5</sub>H<sub>5</sub>NOS",
        "Molecular Mass": "127.16",
        "Melting Point": "70-73 °C"
    }
}