{
    "cas_no": "54350-48-0",
    "key_name": "Etretinate",
    "cn_name": "依曲替酯;全反式-9-(4-甲氧基-2,3,6-三甲基苯基)-3,7-二甲基-2,4,6,8-壬四烯酸乙酯;",
    "alternate_name": "2,4,6,8-Nonatetraenoic acid, 9-(4-methoxy-2,3,6-trimethylphenyl)-3,7-dimethyl-, ethyl ester, (2<em>E</em>,4<em>E</em>,6<em>E</em>,8<em>E</em>)-;2,4,6,8-Nonatetraenoic acid, 9-(4-methoxy-2,3,6-trimethylphenyl)-3,7-dimethyl-, ethyl ester, (<em>all</em>-<em>E</em>)-;Ethyl all-<em>trans</em>-9-(4-methoxy-2,3,6-trimethylphenyl)-3,7-dimethyl-2,4,6,8-nonatetraenoate;Ro 10-9359;Etretinate;Tigason;Ethyl etrinoate;Tigasone;Tegison;MeSH ID: D005050",
    "duplicated_cas_no": "71833-61-9",
    "SMILES": "C(=C/C(=C/C=C/C(=C/C(OCC)=O)/C)/C)\\C1=C(C)C(C)=C(OC)C=C1C",
    "meta_data": {
        "InChI": "InChI=1S/C23H30O3/c1-8-26-23(24)14-17(3)11-9-10-16(2)12-13-21-18(4)15-22(25-7)20(6)19(21)5/h9-15H,8H2,1-7H3/b11-9+,13-12+,16-10+,17-14+",
        "InChIKey": null,
        "Canonical SMILES": "O=C(OCC)C=C(C=CC=C(C=CC=1C(=CC(OC)=C(C1C)C)C)C)C",
        "Molecular Formula": "C<sub>23</sub>H<sub>30</sub>O<sub>3</sub>",
        "Molecular Mass": "354.48",
        "Melting Point": "104-105 °C"
    }
}