{
    "cas_no": "120-58-1",
    "key_name": "Isosafrole",
    "cn_name": "异黄樟脑;",
    "alternate_name": "1,3-Benzodioxole, 5-(1-propen-1-yl)-;Isosafrole;Benzene, 1,2-(methylenedioxy)-4-propenyl-;1,3-Benzodioxole, 5-(1-propenyl)-;5-(1-Propen-1-yl)-1,3-benzodioxole;1,2-(Methylenedioxy)-4-propenylbenzene;5-(Propen-1-yl)-1,3-benzodioxole;3,4-(Methylenedioxy)-1-propenylbenzene;6-(1-Propenyl)-1,3-benzodioxole;NSC 4884;NSC 59192;NSC 92436",
    "duplicated_cas_no": "191281-03-5",
    "SMILES": "C(=CC)C=1C=C2C(=CC1)OCO2",
    "meta_data": {
        "InChI": "InChI=1S/C10H10O2/c1-2-3-8-4-5-9-10(6-8)12-7-11-9/h2-6H,7H2,1H3",
        "InChIKey": null,
        "Canonical SMILES": "O1C2=CC=C(C=CC)C=C2OC1",
        "Molecular Formula": "C<sub>10</sub>H<sub>10</sub>O<sub>2</sub>",
        "Molecular Mass": "162.19",
        "Boiling Point": "252 °C",
        "Melting Point": "6.7-6.8 °C",
        "Density": "1.122 g/cm³ @ Temp: 20 °C"
    }
}