{
    "cas_no": "1077-93-6",
    "key_name": "Ternidazole",
    "cn_name": "特硝唑;托尼达唑;2-甲基-5-硝基咪唑-1-丙醇;",
    "alternate_name": "1<em>H</em>-Imidazole-1-propanol, 2-methyl-5-nitro-;Imidazole-1-propanol, 2-methyl-5-nitro-;2-Methyl-5-nitro-1<em>H</em>-imidazole-1-propanol;1-(3-Hydroxypropyl)-2-methyl-5-nitroimidazole;Ternidazole;2-Methyl-5-nitroimidazole-1-propanol;1-(3-Hydroxypropyl)-2-methyl-5-nitro-1<em>H</em>-imidazole",
    "duplicated_cas_no": "",
    "SMILES": "C(CCO)N1C(N(=O)=O)=CN=C1C",
    "meta_data": {
        "InChI": "InChI=1S/C7H11N3O3/c1-6-8-5-7(10(12)13)9(6)3-2-4-11/h5,11H,2-4H2,1H3",
        "InChIKey": null,
        "Canonical SMILES": "O=N(=O)C1=CN=C(N1CCCO)C",
        "Molecular Formula": "C<sub>7</sub>H<sub>11</sub>N<sub>3</sub>O<sub>3</sub>",
        "Molecular Mass": "185.18",
        "Melting Point": "130 °C"
    }
}