{
    "cas_no": "81329-90-0",
    "key_name": "5-[(2-Hydroxyethyl)amino]-1,3-benzodioxol",
    "cn_name": "N-羟乙基-3,4-亚甲二氧基苯胺盐酸盐;",
    "alternate_name": "Ethanol, 2-(1,3-benzodioxol-5-ylamino)-;2-(1,3-Benzodioxol-5-ylamino)ethanol;4-(2-Hydroxyethylamino)-1,2-methylenedioxybenzene;4-(2′-Hydroxyethyl)amino-1,2-methylenedioxybenzene;5-[(2-Hydroxyethyl)amino]-1,3-benzodioxol;1-(2-Hydroxyethylamino)-3,4-methylenedioxybenzene;2-[(2<em>H</em>-1,3-Benzodioxol-5-yl)amino]ethan-1-ol",
    "duplicated_cas_no": "101562-87-2",
    "SMILES": "N(CCO)C=1C=C2C(=CC1)OCO2",
    "meta_data": {
        "InChI": "InChI=1S/C9H11NO3/c11-4-3-10-7-1-2-8-9(5-7)13-6-12-8/h1-2,5,10-11H,3-4,6H2",
        "InChIKey": null,
        "Canonical SMILES": "OCCNC1=CC=C2OCOC2=C1",
        "Molecular Formula": "C<sub>9</sub>H<sub>11</sub>NO<sub>3</sub>",
        "Molecular Mass": "181.19",
        "Melting Point": "53-54 °C"
    }
}