{
    "cas_no": "147208-69-3",
    "key_name": "Pyrrolidine, 2-[(3a<em>S</em>,4<em>S</em>,6<em>S</em>,7a<em>R</em>)-hexahydro-3a,5,5-trimethyl-4,6-methano-1,3,2-benzodioxaborol-2-yl]-, hydrochloride (1:1), (2<em>R</em>)-",
    "cn_name": null,
    "alternate_name": "Pyrrolidine, 2-[(3a<em>S</em>,4<em>S</em>,6<em>S</em>,7a<em>R</em>)-hexahydro-3a,5,5-trimethyl-4,6-methano-1,3,2-benzodioxaborol-2-yl]-, hydrochloride (1:1), (2<em>R</em>)-;Pyrrolidine, 2-(hexahydro-3a,5,5-trimethyl-4,6-methano-1,3,2-benzodioxaborol-2-yl)-, hydrochloride, [3a<em>S</em>-[2(<em>S</em>*),3aα,4β,6β,7aα]]-;Pyrrolidine, 2-[(3a<em>S</em>,4<em>S</em>,6<em>S</em>,7a<em>R</em>)-hexahydro-3a,5,5-trimethyl-4,6-methano-1,3,2-benzodioxaborol-2-yl]-, hydrochloride, (2<em>R</em>)-;4,6-Methano-1,3,2-benzodioxaborole, pyrrolidine deriv.",
    "duplicated_cas_no": "866554-80-5;2102211-85-6",
    "SMILES": "C[C@]12[C@@]3(C(C)(C)[C@@](C3)(C[C@]1(OB(O2)[C@@H]4CCCN4)[H])[H])[H].Cl",
    "meta_data": {
        "InChI": "InChI=1S/C14H24BNO2.ClH/c1-13(2)9-7-10(13)14(3)11(8-9)17-15(18-14)12-5-4-6-16-12;/h9-12,16H,4-8H2,1-3H3;1H/t9-,10-,11+,12-,14-;/m0./s1",
        "InChIKey": null,
        "Canonical SMILES": "Cl.O1B(OC2(C)C1CC3CC2C3(C)C)C4NCCC4",
        "Molecular Formula": "C<sub>14</sub>H<sub>24</sub>BNO<sub>2</sub>.ClH",
        "Molecular Mass": "",
        "Melting Point": "143-147 °C"
    }
}