{
    "cas_no": "7428-99-1",
    "key_name": "4-Methoxy-α,α-dimethylbenzenemethanol",
    "cn_name": "2-(4-甲氧基苯基)丙-2-醇;",
    "alternate_name": "Benzenemethanol, 4-methoxy-α,α-dimethyl-;Benzyl alcohol, <em>p</em>-methoxy-α,α-dimethyl-;<em>p</em>-Anisyl alcohol, α,α-dimethyl-;4-Methoxy-α,α-dimethylbenzenemethanol;Dimethyl(<em>p</em>-methoxyphenyl)carbinol;(<em>p</em>-Methoxyphenyl)dimethylcarbinol;2-(4-Methoxyphenyl)propan-2-ol;2-<em>p</em>-Anisyl-2-propanol;4-Methoxycumyl alcohol",
    "duplicated_cas_no": "",
    "SMILES": "C(C)(C)(O)C1=CC=C(OC)C=C1",
    "meta_data": {
        "InChI": "InChI=1S/C10H14O2/c1-10(2,11)8-4-6-9(12-3)7-5-8/h4-7,11H,1-3H3",
        "InChIKey": null,
        "Canonical SMILES": "OC(C1=CC=C(OC)C=C1)(C)C",
        "Molecular Formula": "C<sub>10</sub>H<sub>14</sub>O<sub>2</sub>",
        "Molecular Mass": "166.22",
        "Boiling Point": "130 °C @ Press: 14 Torr"
    }
}