{
    "cas_no": "5317-33-9",
    "key_name": "1-(3-Hydroxypropyl)-4-methylpiperazine",
    "cn_name": "1-(3羟丙基)-4-甲基哌嗪;",
    "alternate_name": "1-Piperazinepropanol, 4-methyl-;4-Methyl-1-piperazinepropanol;3-(4-Methyl-1-piperazinyl)propanol;1-Methyl-4-(3-hydroxypropyl)piperazine;1-(3-Hydroxypropyl)-4-methylpiperazine;3-(4-Methyl-1-piperazinyl)-1-propanol;NSC 351986;NSC 79874",
    "duplicated_cas_no": "",
    "SMILES": "C(CCO)N1CCN(C)CC1",
    "meta_data": {
        "InChI": "InChI=1S/C8H18N2O/c1-9-4-6-10(7-5-9)3-2-8-11/h11H,2-8H2,1H3",
        "InChIKey": null,
        "Canonical SMILES": "OCCCN1CCN(C)CC1",
        "Molecular Formula": "C<sub>8</sub>H<sub>18</sub>N<sub>2</sub>O",
        "Molecular Mass": "158.24",
        "Boiling Point": "108-110 °C @ Press: 3 Torr",
        "Melting Point": "30 °C"
    }
}