{
    "cas_no": "39511-08-5",
    "key_name": "(2<em>E</em>)-3-(2-Furanyl)-2-propenal",
    "cn_name": null,
    "alternate_name": "2-Propenal, 3-(2-furanyl)-, (2<em>E</em>)-;2-Propenal, 3-(2-furanyl)-, (<em>E</em>)-;(2<em>E</em>)-3-(2-Furanyl)-2-propenal;<em>trans</em>-β-2-Furylacrolein;(<em>E</em>)-3-(2-Furyl)acrolein;(<em>E</em>)-3-(2-Furyl)-2-propenal;<em>trans</em>-3-(2-Furyl)acrolein;<em>trans</em>-3-(2-Furanyl)propenal;(2<em>E</em>)-3-(2-Furyl)acrolein;(<em>E</em>)-3-(Furan-2-yl)-2-propenal;(2E)-3-(2-Furyl)prop-2-enal;<em>trans</em>-3-(2-Furyl)-2-propenal;(E)-3-(Furan-2-yl)propenal;(E)-3-(Furan-2-yl)acrylaldehyde;(E)-3-(2-Furanyl)acrolein;<em>trans</em>-3-(2-Furanyl)-2-propenal;(E)-3-(Furan-2-yl)-2-propenal;(<em>E</em>)-3-(Furan-2-yl)acrolein;(E)-3-(2-Furanyl)-2-propenal",
    "duplicated_cas_no": "",
    "SMILES": "C(=C/C=O)\\C1=CC=CO1",
    "meta_data": {
        "InChI": "InChI=1S/C7H6O2/c8-5-1-3-7-4-2-6-9-7/h1-6H/b3-1+",
        "InChIKey": null,
        "Canonical SMILES": "O=CC=CC=1OC=CC1",
        "Molecular Formula": "C<sub>7</sub>H<sub>6</sub>O<sub>2</sub>",
        "Molecular Mass": "122.12",
        "Melting Point": "49 °C"
    }
}