{
    "cas_no": "10546-67-5",
    "key_name": "2,6-Dibromo-4-(1,1-dimethylethyl)benzenamine",
    "cn_name": null,
    "alternate_name": "Benzenamine, 2,6-dibromo-4-(1,1-dimethylethyl)-;Aniline, 2,6-dibromo-4-<em>tert</em>-butyl-;2,6-Dibromo-4-(1,1-dimethylethyl)benzenamine;2,6-Dibromo-4-<em>tert</em>-butylaniline;2,6-Dibromo-<em>4</em>-<em>t</em>-butylaniline",
    "duplicated_cas_no": "",
    "SMILES": "C(C)(C)(C)C1=CC(Br)=C(N)C(Br)=C1",
    "meta_data": {
        "InChI": "InChI=1S/C10H13Br2N/c1-10(2,3)6-4-7(11)9(13)8(12)5-6/h4-5H,13H2,1-3H3",
        "InChIKey": null,
        "Canonical SMILES": "BrC=1C=C(C=C(Br)C1N)C(C)(C)C",
        "Molecular Formula": "C<sub>10</sub>H<sub>13</sub>Br<sub>2</sub>N",
        "Molecular Mass": "307.02",
        "Boiling Point": "136-140 °C @ Press: 2 Torr"
    }
}