{
    "cas_no": "25155-23-1",
    "key_name": "Trixylenyl phosphate",
    "cn_name": null,
    "alternate_name": "Phenol, dimethyl-, 1,1′,1′′-phosphate;Xylenol, phosphate (3:1);Phenol, dimethyl-, phosphate (3:1);Xylyl phosphate;Xylyl phosphate ((C<sub>8</sub>H<sub>9</sub>O)<sub>3</sub>PO);Trixylenyl phosphate;Trixylyl phosphate;Coalite NTP;Phosphoric acid trixylyl ester;Phosflex 179;TXP;Durad 220X;Antiblaze 524;Antiblaze TXP;Durad TXP;Fyrquel L;WSFR-TXP",
    "duplicated_cas_no": "95660-61-0;174956-83-3",
    "SMILES": "",
    "meta_data": {
        "InChI": "",
        "InChIKey": null,
        "Canonical SMILES": "",
        "Molecular Formula": "C<sub>24</sub>H<sub>27</sub>O<sub>4</sub>P",
        "Molecular Mass": "",
        "Boiling Point": "243-265 °C @ Press: 10 Torr",
        "Density": "1.155 g/cm³"
    }
}