{
    "cas_no": "2973-09-3",
    "key_name": "<em>N</em>-Butylmaleimide",
    "cn_name": null,
    "alternate_name": "1<em>H</em>-Pyrrole-2,5-dione, 1-butyl-;Maleimide, <em>N</em>-butyl-;1-Butyl-1<em>H</em>-pyrrole-2,5-dione;<em>N</em>-Butylmaleimide;Maleic acid butylimide;<em>N</em>-<em>n</em>-Butylmaleimide;NSC 45298;1-Butyl-2,5-dihydro-1<em>H</em>-pyrrole-2,5-dione;1-Butyl-pyrrole-2,5-dione",
    "duplicated_cas_no": "",
    "SMILES": "C(CCC)N1C(=O)C=CC1=O",
    "meta_data": {
        "InChI": "InChI=1S/C8H11NO2/c1-2-3-6-9-7(10)4-5-8(9)11/h4-5H,2-3,6H2,1H3",
        "InChIKey": null,
        "Canonical SMILES": "O=C1C=CC(=O)N1CCCC",
        "Molecular Formula": "C<sub>8</sub>H<sub>11</sub>NO<sub>2</sub>",
        "Molecular Mass": "153.18",
        "Boiling Point": "81-84 °C @ Press: 3 Torr",
        "Melting Point": "83-85 °C"
    }
}