{
    "cas_no": "552-66-9",
    "key_name": "Daidzin",
    "cn_name": "豆苷;大豆甙;7-羟基-3-(4\"-羟苯基)-异黄酮-7-糖苷;",
    "alternate_name": "4<em>H</em>-1-Benzopyran-4-one, 7-(β-<span class=\"text-smallcaps\">D</span>-glucopyranosyloxy)-3-(4-hydroxyphenyl)-;Daidzin;7-(β-<span class=\"text-smallcaps\">D</span>-Glucopyranosyloxy)-3-(4-hydroxyphenyl)-4<em>H</em>-1-benzopyran-4-one;Daidzein 7-glucoside;7,4′-Dihydroxyisoflavone 7-glucoside;Daidzoside;Daidzein 7-<em>O</em>-glucoside;NPI 031D;Daidzine",
    "duplicated_cas_no": "1329-08-4;28572-56-7",
    "SMILES": "O=C1C=2C(=CC(O[C@@H]3O[C@H](CO)[C@@H](O)[C@H](O)[C@H]3O)=CC2)OC=C1C4=CC=C(O)C=C4",
    "meta_data": {
        "InChI": "InChI=1S/C21H20O9/c22-8-16-18(25)19(26)20(27)21(30-16)29-12-5-6-13-15(7-12)28-9-14(17(13)24)10-1-3-11(23)4-2-10/h1-7,9,16,18-23,25-27H,8H2/t16-,18-,19+,20-,21-/m1/s1",
        "InChIKey": null,
        "Canonical SMILES": "O=C1C(=COC2=CC(OC3OC(CO)C(O)C(O)C3O)=CC=C12)C=4C=CC(O)=CC4",
        "Molecular Formula": "C<sub>21</sub>H<sub>20</sub>O<sub>9</sub>",
        "Molecular Mass": "416.38",
        "Melting Point": "215-217 °C (decomp)"
    }
}