{
    "cas_no": "54151-74-5",
    "key_name": "2-Bromo-4-phenylpyridine",
    "cn_name": null,
    "alternate_name": "Pyridine, 2-bromo-4-phenyl-;2-Bromo-4-phenylpyridine;4-Phenyl-2-bromopyridine",
    "duplicated_cas_no": "",
    "SMILES": "BrC1=CC(=CC=N1)C2=CC=CC=C2",
    "meta_data": {
        "InChI": "InChI=1S/C11H8BrN/c12-11-8-10(6-7-13-11)9-4-2-1-3-5-9/h1-8H",
        "InChIKey": null,
        "Canonical SMILES": "BrC1=NC=CC(=C1)C=2C=CC=CC2",
        "Molecular Formula": "C<sub>11</sub>H<sub>8</sub>BrN",
        "Molecular Mass": "234.09",
        "Melting Point": "65-66 °C"
    }
}