{
    "cas_no": "815-17-8",
    "key_name": "3,3-Dimethyl-2-oxobutanoic acid",
    "cn_name": "三甲基丙酮酸;",
    "alternate_name": "Butanoic acid, 3,3-dimethyl-2-oxo-;Butyric acid, 3,3-dimethyl-2-oxo-;Butyric acid, β,β-dimethyl-α-oxo-;3,3-Dimethyl-2-oxobutanoic acid;<em>tert</em>-Butylglyoxylic acid;Trimethylpyruvic acid;3,3-Dimethyl-2-oxobutyric acid;2-Oxo-3,3-dimethylbutanoic acid;Trimethylpyroracemic acid;NSC 16648",
    "duplicated_cas_no": "",
    "SMILES": "C(C(C)(C)C)(C(O)=O)=O",
    "meta_data": {
        "InChI": "InChI=1S/C6H10O3/c1-6(2,3)4(7)5(8)9/h1-3H3,(H,8,9)",
        "InChIKey": null,
        "Canonical SMILES": "O=C(O)C(=O)C(C)(C)C",
        "Molecular Formula": "C<sub>6</sub>H<sub>10</sub>O<sub>3</sub>",
        "Molecular Mass": "130.14",
        "Boiling Point": "189 °C",
        "Melting Point": "90.5 °C"
    }
}