{
    "cas_no": "105-45-3",
    "key_name": "Methyl acetoacetate",
    "cn_name": "乙酰乙酸甲酯;",
    "alternate_name": "Butanoic acid, 3-oxo-, methyl ester;Acetoacetic acid, methyl ester;Methyl acetoacetate;Methyl acetylacetate;Methyl 3-oxobutyrate;Methyl 3-oxobutanoate;3-Oxobutanoic acid methyl ester;3-Oxobutyric acid methyl ester;Acetoacetate methyl ester;Methyl 2-acetoacetate",
    "duplicated_cas_no": "",
    "SMILES": "C(CC(C)=O)(OC)=O",
    "meta_data": {
        "InChI": "InChI=1S/C5H8O3/c1-4(6)3-5(7)8-2/h3H2,1-2H3",
        "InChIKey": null,
        "Canonical SMILES": "O=C(OC)CC(=O)C",
        "Molecular Formula": "C<sub>5</sub>H<sub>8</sub>O<sub>3</sub>",
        "Molecular Mass": "116.12",
        "Boiling Point": "171.7 °C",
        "Melting Point": "-27 °C",
        "Density": "1.0762 g/cm³ @ Temp: 20 °C"
    }
}