{
    "cas_no": "482-35-9",
    "key_name": "Quercetin 3-glucoside",
    "cn_name": "异懈皮苷;异懈皮苷;",
    "alternate_name": "4<em>H</em>-1-Benzopyran-4-one, 2-(3,4-dihydroxyphenyl)-3-(β-<span class=\"text-smallcaps\">D</span>-glucopyranosyloxy)-5,7-dihydroxy-;Hirsutrin;2-(3,4-Dihydroxyphenyl)-3-(β-<span class=\"text-smallcaps\">D</span>-glucopyranosyloxy)-5,7-dihydroxy-4<em>H</em>-1-benzopyran-4-one;Quercetin 3-monoglucoside;Quercetin 3-mono-<span class=\"text-smallcaps\">D</span>-glucoside;Quercetin 3-β-<span class=\"text-smallcaps\">D</span>-glucoside;Glucosyl-3-quercetin;Quercetin 3-<span class=\"text-smallcaps\">D</span>-glucoside;Quercetin 3-<em>O</em>-β-<span class=\"text-smallcaps\">D</span>-glucopyranoside;Quercetin 3-β-<span class=\"text-smallcaps\">D</span>-glucopyranoside;3′,4′,5,7-Tetrahydroxyflavone-3-β-<span class=\"text-smallcaps\">D</span>-glucopyranoside;3-Glucosylquercetin;Quercetin 3β-glucoside;Quercetin 3β-<em>O</em>-glucoside;Quercetol 3-monoglucoside;Quercetol 3-glucoside;Q 5;Quercetin 3-<em>O</em>-β-<span class=\"text-smallcaps\">D</span>-glucoside;Quercetin 3-glucoside;Isoquercetin;Quercetin 3-<em>O</em>-glucopyranoside;Quercetin 3-<em>O</em>-β-glucoside;3-<em>O</em>-β-<span class=\"text-smallcaps\">D</span>-Glucopyranosylquercetin;Contigoside B;Quercetin glucoside;NSC 115918;Quercetin-3-β-glucopyranoside;Isoquercetrin;Quercetin-3-glucose;Isoquercitrin;Isoquercitroside;Sanmelin Powder C 10;Quercetin 3-<em>O</em>-glucoside;3-β-<span class=\"text-smallcaps\">D</span>-Glucosylquercetin;Sanmelin C 10",
    "duplicated_cas_no": "27215-07-2;28454-82-2;61277-38-1;107438-55-1;133946-90-4;355806-24-5;478367-76-9;888937-01-7;959332-67-3;1012316-11-8;1246962-26-4",
    "SMILES": "O(C1=C(OC=2C(C1=O)=C(O)C=C(O)C2)C3=CC(O)=C(O)C=C3)[C@@H]4O[C@H](CO)[C@@H](O)[C@H](O)[C@H]4O",
    "meta_data": {
        "InChI": "InChI=1S/C21H20O12/c22-6-13-15(27)17(29)18(30)21(32-13)33-20-16(28)14-11(26)4-8(23)5-12(14)31-19(20)7-1-2-9(24)10(25)3-7/h1-5,13,15,17-18,21-27,29-30H,6H2/t13-,15-,17+,18-,21+/m1/s1",
        "InChIKey": null,
        "Canonical SMILES": "O=C1C(OC2OC(CO)C(O)C(O)C2O)=C(OC=3C=C(O)C=C(O)C13)C=4C=CC(O)=C(O)C4",
        "Molecular Formula": "C<sub>21</sub>H<sub>20</sub>O<sub>12</sub>",
        "Molecular Mass": "464.38",
        "Melting Point": "230 °C"
    }
}