{
    "cas_no": "56962-04-0",
    "key_name": "3-Bromo-5-chlorophenol",
    "cn_name": "3-溴-5-氯苯酚;3-溴-5-氯苯酚;",
    "alternate_name": "Phenol, 3-bromo-5-chloro-;3-Bromo-5-chlorophenol",
    "duplicated_cas_no": "",
    "SMILES": "BrC1=CC(Cl)=CC(O)=C1",
    "meta_data": {
        "InChI": "InChI=1S/C6H4BrClO/c7-4-1-5(8)3-6(9)2-4/h1-3,9H",
        "InChIKey": null,
        "Canonical SMILES": "ClC=1C=C(Br)C=C(O)C1",
        "Molecular Formula": "C<sub>6</sub>H<sub>4</sub>BrClO",
        "Molecular Mass": "207.45",
        "Boiling Point": "256 °C",
        "Melting Point": "70 °C"
    }
}