{
    "cas_no": "4086-73-1",
    "key_name": "Octylpyridinium chloride",
    "cn_name": null,
    "alternate_name": "Pyridinium, 1-octyl-, chloride (1:1);Pyridinium, 1-octyl-, chloride;1-Octylpyridinium chloride;Octylpyridinium chloride;<em>N</em>-Octylpyridinium chloride",
    "duplicated_cas_no": "",
    "SMILES": "C(CCCCCCC)[N+]=1C=CC=CC1.[Cl-]",
    "meta_data": {
        "InChI": "InChI=1S/C13H22N.ClH/c1-2-3-4-5-6-8-11-14-12-9-7-10-13-14;/h7,9-10,12-13H,2-6,8,11H2,1H3;1H/q+1;/p-1",
        "InChIKey": null,
        "Canonical SMILES": "[Cl-].C=1C=C[N+](=CC1)CCCCCCCC",
        "Molecular Formula": "C<sub>13</sub>H<sub>22</sub>N.Cl",
        "Molecular Mass": "",
        "Melting Point": "118-121 °C",
        "Density": "1.123059 g/cm³ @ Temp: 45.000 °C"
    }
}