{
    "cas_no": "2008-41-5",
    "key_name": "Butylate",
    "cn_name": "丁草特;S-乙基-N,N-二异丁基硫代氨基甲酸酯;",
    "alternate_name": "Carbamothioic acid, <em>N</em>,<em>N</em>-bis(2-methylpropyl)-, <em>S</em>-ethyl ester;Carbamic acid, diisobutylthio-, <em>S</em>-ethyl ester;Carbamothioic acid, bis(2-methylpropyl)-, <em>S</em>-ethyl ester;Ethyl <em>N</em>,<em>N</em>-diisobutylthiocarbamate;Ethyl-<em>N</em>,<em>N</em>-diisobutyl thiolcarbamate;Stauffer R 1910;R 1910;Butylate;Sutan;<em>S</em>-Ethyl diisobutylthiocarbamate;<em>S</em>-Ethyl <em>N</em>,<em>N</em>-diisobutylthiolcarbamate;<em>S</em>-Ethyl <em>N</em>,<em>N</em>-diisobutylthiocarbamate;Butilate;Diisocarb;Anelda",
    "duplicated_cas_no": "",
    "SMILES": "N(C(SCC)=O)(CC(C)C)CC(C)C",
    "meta_data": {
        "InChI": "InChI=1S/C11H23NOS/c1-6-14-11(13)12(7-9(2)3)8-10(4)5/h9-10H,6-8H2,1-5H3",
        "InChIKey": null,
        "Canonical SMILES": "O=C(SCC)N(CC(C)C)CC(C)C",
        "Molecular Formula": "C<sub>11</sub>H<sub>23</sub>NOS",
        "Molecular Mass": "217.37",
        "Boiling Point": "137.5-138 °C @ Press: 21 Torr",
        "Melting Point": "&lt;25 °C",
        "Density": "0.9402 g/cm³ @ Temp: 25 °C"
    }
}