{
    "cas_no": "3387-41-5",
    "key_name": "Sabinene",
    "cn_name": null,
    "alternate_name": "Bicyclo[3.1.0]hexane, 4-methylene-1-(1-methylethyl)-;4(10)-Thujene;4-Methylene-1-(1-methylethyl)bicyclo[3.1.0]hexane;Sabinene;Sabinen;1-Isopropyl-4-methylenebicyclo[3.1.0]hexane;Sabenene;NSC 407278",
    "duplicated_cas_no": "513-19-9;4820-95-5;15826-80-9",
    "SMILES": "C(C)(C)C12C(C1)C(=C)CC2",
    "meta_data": {
        "InChI": "InChI=1S/C10H16/c1-7(2)10-5-4-8(3)9(10)6-10/h7,9H,3-6H2,1-2H3",
        "InChIKey": null,
        "Canonical SMILES": "C=C1CCC2(CC12)C(C)C",
        "Molecular Formula": "C<sub>10</sub>H<sub>16</sub>",
        "Molecular Mass": "136.23",
        "Boiling Point": "163-165 °C @ Press: 757.600625 Torr",
        "Density": "0.8422 g/cm³ @ Temp: 17 °C"
    }
}