{
    "cas_no": "4981-64-0",
    "key_name": "1-(4-Bromophenyl)-1-butanone",
    "cn_name": "4\"-溴苯丁酮;",
    "alternate_name": "1-Butanone, 1-(4-bromophenyl)-;Butyrophenone, 4′-bromo-;1-(4-Bromophenyl)-1-butanone;4′-Bromobutyrophenone;<em>p</em>-Bromobutyrophenone;NSC 76558",
    "duplicated_cas_no": "",
    "SMILES": "C(CCC)(=O)C1=CC=C(Br)C=C1",
    "meta_data": {
        "InChI": "InChI=1S/C10H11BrO/c1-2-3-10(12)8-4-6-9(11)7-5-8/h4-7H,2-3H2,1H3",
        "InChIKey": null,
        "Canonical SMILES": "O=C(C1=CC=C(Br)C=C1)CCC",
        "Molecular Formula": "C<sub>10</sub>H<sub>11</sub>BrO",
        "Molecular Mass": "227.10",
        "Boiling Point": "149-151 °C @ Press: 13 Torr",
        "Melting Point": "38-39 °C"
    }
}