{
    "cas_no": "14359-97-8",
    "key_name": "1-Hydrazinyl-3-(methylthio)-2-propanol",
    "cn_name": "1-肼基-3-甲硫基-2-丙醇;",
    "alternate_name": "2-Propanol, 1-hydrazinyl-3-(methylthio)-;2-Propanol, 1-hydrazino-3-(methylthio)-;1-Hydrazinyl-3-(methylthio)-2-propanol;[2-Hydroxy-3-(methylsulfanyl)propyl]hydrazine;1-Hydrazino-3-(methylthio)propan-2-ol",
    "duplicated_cas_no": "",
    "SMILES": "C(CNN)(CSC)O",
    "meta_data": {
        "InChI": "InChI=1S/C4H12N2OS/c1-8-3-4(7)2-6-5/h4,6-7H,2-3,5H2,1H3",
        "InChIKey": null,
        "Canonical SMILES": "OC(CSC)CNN",
        "Molecular Formula": "C<sub>4</sub>H<sub>12</sub>N<sub>2</sub>OS",
        "Molecular Mass": "136.22",
        "Boiling Point": "128-130 °C @ Press: 1 Torr"
    }
}