{
    "cas_no": "923-26-2",
    "key_name": "2-Hydroxypropyl methacrylate",
    "cn_name": null,
    "alternate_name": "2-Propenoic acid, 2-methyl-, 2-hydroxypropyl ester;Methacrylic acid, 2-hydroxypropyl ester;1,2-Propanediol, 1-methacrylate;2-Hydroxypropyl methacrylate;β-Hydroxypropyl methacrylate;Acryester HP;Light Ester HOP;Blemmer P;Light ester HOP-N;2-Hydroxypropyl 2-methylprop-2-enoate",
    "duplicated_cas_no": "1262536-22-0",
    "SMILES": "C(OCC(C)O)(C(C)=C)=O",
    "meta_data": {
        "InChI": "InChI=1S/C7H12O3/c1-5(2)7(9)10-4-6(3)8/h6,8H,1,4H2,2-3H3",
        "InChIKey": null,
        "Canonical SMILES": "O=C(OCC(O)C)C(=C)C",
        "Molecular Formula": "C<sub>7</sub>H<sub>12</sub>O<sub>3</sub>",
        "Molecular Mass": "144.17",
        "Boiling Point": "90 °C",
        "Melting Point": "82-84 °C"
    }
}