{
    "cas_no": "1688-71-7",
    "key_name": "1-(4-Aminophenyl)-1-butanone",
    "cn_name": "4-氨基丙基苯甲酮;",
    "alternate_name": "1-Butanone, 1-(4-aminophenyl)-;Butyrophenone, 4′-amino-;1-(4-Aminophenyl)-1-butanone;<em>p</em>-Aminobutyrophenone;4′-Aminobutyrophenone;1-(4-Aminophenyl)butan-1-one;4-Aminophenylbutanone",
    "duplicated_cas_no": "",
    "SMILES": "C(CCC)(=O)C1=CC=C(N)C=C1",
    "meta_data": {
        "InChI": "InChI=1S/C10H13NO/c1-2-3-10(12)8-4-6-9(11)7-5-8/h4-7H,2-3,11H2,1H3",
        "InChIKey": null,
        "Canonical SMILES": "O=C(C1=CC=C(N)C=C1)CCC",
        "Molecular Formula": "C<sub>10</sub>H<sub>13</sub>NO",
        "Molecular Mass": "163.22",
        "Melting Point": "84 °C"
    }
}