{
    "cas_no": "5427-96-3",
    "key_name": "3-Aminohexanedioic acid",
    "cn_name": "DL-beta-Aminoadipicacid;",
    "alternate_name": "Hexanedioic acid, 3-amino-;3-Aminohexanedioic acid;β-Aminoadipic acid;<span class=\"text-smallcaps\">DL</span>-3-Aminoadipic acid;(±)-3-Aminoadipic acid;NSC 12783;3-Aminoadipic acid",
    "duplicated_cas_no": "40967-78-0",
    "SMILES": "C(CCC(O)=O)(CC(O)=O)N",
    "meta_data": {
        "InChI": "InChI=1S/C6H11NO4/c7-4(3-6(10)11)1-2-5(8)9/h4H,1-3,7H2,(H,8,9)(H,10,11)",
        "InChIKey": null,
        "Canonical SMILES": "O=C(O)CCC(N)CC(=O)O",
        "Molecular Formula": "C<sub>6</sub>H<sub>11</sub>NO<sub>4</sub>",
        "Molecular Mass": "161.16",
        "Melting Point": "189-190.5 °C"
    }
}