{
    "cas_no": "141-66-2",
    "key_name": "Dicrotophos",
    "cn_name": null,
    "alternate_name": "Phosphoric acid, (1<em>E</em>)-3-(dimethylamino)-1-methyl-3-oxo-1-propen-1-yl dimethyl ester;Phosphoric acid, dimethyl ester, ester with 3-hydroxy-<em>N</em>,<em>N</em>-dimethylcrotonamide, (<em>E</em>)-;Phosphoric acid, 3-(dimethylamino)-1-methyl-3-oxo-1-propenyl dimethyl ester, (<em>E</em>)-;Phosphoric acid, (1<em>E</em>)-3-(dimethylamino)-1-methyl-3-oxo-1-propenyl dimethyl ester;SD 3562;ENT 24,482;Bidrin;3-(Dimethoxyphosphinyloxy)-<em>N</em>,<em>N</em>-dimethyl-<em>cis</em>-crotonamide;3-Hydroxy-<em>N</em>,<em>N</em>-dimethyl-<em>cis</em>-crotonamide dimethyl phosphate;Dicrotophos;Karbicron;Carbicron;Carbomicron;<em>trans</em>-Bidrin;Dimethyl 2-dimethylcarbamoyl-1-methylvinyl phosphate;Dimethyl 1-dimethylcarbamoyl-1-propen-2-yl phosphate;C 709;Ektafos;Oleobidrin;Bidrin 8",
    "duplicated_cas_no": "",
    "SMILES": "O(P(OC)(OC)=O)/C(=C/C(N(C)C)=O)/C",
    "meta_data": {
        "InChI": "InChI=1S/C8H16NO5P/c1-7(6-8(10)9(2)3)14-15(11,12-4)13-5/h6H,1-5H3/b7-6+",
        "InChIKey": null,
        "Canonical SMILES": "O=C(C=C(OP(=O)(OC)OC)C)N(C)C",
        "Molecular Formula": "C<sub>8</sub>H<sub>16</sub>NO<sub>5</sub>P",
        "Molecular Mass": "237.19",
        "Boiling Point": "130 °C @ Press: 0.1 Torr",
        "Melting Point": "&lt;25 °C",
        "Density": "1.216 g/cm³ @ Temp: 15 °C"
    }
}