{
    "cas_no": "121-71-1",
    "key_name": "3-Hydroxyacetophenone",
    "cn_name": "3-羟基苯乙酮;",
    "alternate_name": "Ethanone, 1-(3-hydroxyphenyl)-;Acetophenone, 3′-hydroxy-;1-(3-Hydroxyphenyl)ethanone;<em>m</em>-Hydroxyacetophenone;<em>m</em>-Acetylphenol;3-Hydroxyacetophenone;3-Acetylphenol;3′-Hydroxyacetophenone;3-Hydroxyphenylethanone;NSC 2440;A 0104",
    "duplicated_cas_no": "",
    "SMILES": "C(C)(=O)C1=CC(O)=CC=C1",
    "meta_data": {
        "InChI": "InChI=1S/C8H8O2/c1-6(9)7-3-2-4-8(10)5-7/h2-5,10H,1H3",
        "InChIKey": null,
        "Canonical SMILES": "O=C(C=1C=CC=C(O)C1)C",
        "Molecular Formula": "C<sub>8</sub>H<sub>8</sub>O<sub>2</sub>",
        "Molecular Mass": "136.15",
        "Boiling Point": "296 °C",
        "Melting Point": "96 °C"
    }
}