{
    "cas_no": "613-13-8",
    "key_name": "2-Aminoanthracene",
    "cn_name": null,
    "alternate_name": "2-Anthracenamine;2-Anthramine;2-Aminoanthracene;2-Anthracylamine;2-Anthrylamine;β-Aminoanthracene;NSC 400535;(Anthracen-2-yl)amine",
    "duplicated_cas_no": "",
    "SMILES": "NC1=CC2=C(C=C3C(=C2)C=CC=C3)C=C1",
    "meta_data": {
        "InChI": "InChI=1S/C14H11N/c15-14-6-5-12-7-10-3-1-2-4-11(10)8-13(12)9-14/h1-9H,15H2",
        "InChIKey": null,
        "Canonical SMILES": "NC=1C=CC2=CC=3C=CC=CC3C=C2C1",
        "Molecular Formula": "C<sub>14</sub>H<sub>11</sub>N",
        "Molecular Mass": "193.24",
        "Melting Point": "238-241 °C"
    }
}