{
    "cas_no": "6140-65-4",
    "key_name": "1-Cyclopentene-1-carboxaldehyde",
    "cn_name": null,
    "alternate_name": "1-Cyclopentene-1-carboxaldehyde;2-Cyclopentenecarboxaldehyde;1-Cyclopentenecarboxaldehyde;1-Formylcyclopentene;1-Formyl-1-cyclopentene;1-Cyclopentenyl aldehyde",
    "duplicated_cas_no": "",
    "SMILES": "C(=O)C=1CCCC1",
    "meta_data": {
        "InChI": "InChI=1S/C6H8O/c7-5-6-3-1-2-4-6/h3,5H,1-2,4H2",
        "InChIKey": null,
        "Canonical SMILES": "O=CC1=CCCC1",
        "Molecular Formula": "C<sub>6</sub>H<sub>8</sub>O",
        "Molecular Mass": "96.13",
        "Boiling Point": "48 °C @ Press: 11 Torr",
        "Melting Point": "-32 °C",
        "Density": "0.970 g/cm³ @ Temp: 21 °C"
    }
}