{
    "cas_no": "4114-28-7",
    "key_name": "1,2-Diethyl 1,2-hydrazinedicarboxylate",
    "cn_name": "1,2-二(乙氧羰基)肼;",
    "alternate_name": "1,2-Hydrazinedicarboxylic acid, 1,2-diethyl ester;Bicarbamic acid, diethyl ester;1,2-Hydrazinedicarboxylic acid, diethyl ester;1,2-Diethyl 1,2-hydrazinedicarboxylate;<em>s</em>-Dicarbethoxyhydrazine;Diethyl bicarbamate;Diethyl hydrazodicarboxylate;Diethyl 1,2-hydrazinedicarboxylate;1,2-Bis(ethoxycarbonyl)hydrazine;<em>sym</em>-Dicarbethoxyhydrazine;1,2-Dicarbethoxyhydrazine;Ethyl hydrazoformate;<em>N</em>,<em>N</em>′-Diethoxycarbonylhydrazine;<em>N</em>,<em>N</em>′-Bis(ethoxycarbonyl)hydrazine;NSC 122715;NSC 17295;NSC 227421;NSC 3002;Hydrazodicarboxylic acid diethyl ester",
    "duplicated_cas_no": "",
    "SMILES": "C(NNC(OCC)=O)(OCC)=O",
    "meta_data": {
        "InChI": "InChI=1S/C6H12N2O4/c1-3-11-5(9)7-8-6(10)12-4-2/h3-4H2,1-2H3,(H,7,9)(H,8,10)",
        "InChIKey": null,
        "Canonical SMILES": "O=C(OCC)NNC(=O)OCC",
        "Molecular Formula": "C<sub>6</sub>H<sub>12</sub>N<sub>2</sub>O<sub>4</sub>",
        "Molecular Mass": "176.17",
        "Boiling Point": "180 °C @ Press: 1 Torr",
        "Melting Point": "135 °C",
        "Density": "1.324 g/cm³ @ Temp: -5 °C"
    }
}