{
    "cas_no": "62538-21-0",
    "key_name": "4-Chloro-α-formylbenzeneacetonitrile",
    "cn_name": "2-(4-氯苯基)-2-氰基乙醛;2-(4-氯苯基)-3-氧代丙腈;",
    "alternate_name": "Benzeneacetonitrile, 4-chloro-α-formyl-;Acetaldehyde, (<em>p</em>-chlorophenyl)cyano-;4-Chloro-α-formylbenzeneacetonitrile;2-(4-Chlorophenyl)-2-formylacetonitrile;2-(4-Chlorophenyl)-3-oxopropanenitrile;2-(4-Chloro-phenyl)-3-oxo-propionitrile;2-(4-Chlorophenyl)-2-cyanoacetaldehyde",
    "duplicated_cas_no": "",
    "SMILES": "C(C#N)(C=O)C1=CC=C(Cl)C=C1",
    "meta_data": {
        "InChI": "InChI=1S/C9H6ClNO/c10-9-3-1-7(2-4-9)8(5-11)6-12/h1-4,6,8H",
        "InChIKey": null,
        "Canonical SMILES": "N#CC(C=O)C1=CC=C(Cl)C=C1",
        "Molecular Formula": "C<sub>9</sub>H<sub>6</sub>ClNO",
        "Molecular Mass": "179.60",
        "Melting Point": "164-165 °C"
    }
}