{
    "cas_no": "2591-98-2",
    "key_name": "Indole-3-acetaldehyde",
    "cn_name": null,
    "alternate_name": "1<em>H</em>-Indole-3-acetaldehyde;Indole-3-acetaldehyde;Tryptaldehyde;Indol-3-ylacetaldehyde;2-(3-Indolyl)acetaldehyde;2-(1<em>H</em>-Indol-3-yl)acetaldehyde",
    "duplicated_cas_no": "",
    "SMILES": "C(C=O)C=1C=2C(NC1)=CC=CC2",
    "meta_data": {
        "InChI": "InChI=1S/C10H9NO/c12-6-5-8-7-11-10-4-2-1-3-9(8)10/h1-4,6-7,11H,5H2",
        "InChIKey": null,
        "Canonical SMILES": "O=CCC1=CNC=2C=CC=CC21",
        "Molecular Formula": "C<sub>10</sub>H<sub>9</sub>NO",
        "Molecular Mass": "159.18",
        "Boiling Point": "120 °C @ Press: 10-15 Torr"
    }
}