{
    "cas_no": "510-15-6",
    "key_name": "Chlorobenzilate",
    "cn_name": "氯二苯乙醇酸盐;乙酯杀螨醇;4,4\"-二氯二苯乙醇酸乙酯;",
    "alternate_name": "Benzeneacetic acid, 4-chloro-α-(4-chlorophenyl)-α-hydroxy-, ethyl ester;Benzilic acid, 4,4′-dichloro-, ethyl ester;Akar 338;G 338;Geigy 338;G 23992;Chlorbenzilat;Chlorobenzilate;4,4′-Dichlorobenzilic acid ethyl ester;Ethyl 4,4′-dichlorobenzilate;Ethyl-2-hydroxy-2,2-bis(4-chlorophenyl)acetate;Akar;Acaraben;Benzilan;Chlorbenzylate;Folbex;Acar;ECB;NSC 404460",
    "duplicated_cas_no": "",
    "SMILES": "C(C(OCC)=O)(O)(C1=CC=C(Cl)C=C1)C2=CC=C(Cl)C=C2",
    "meta_data": {
        "InChI": "InChI=1S/C16H14Cl2O3/c1-2-21-15(19)16(20,11-3-7-13(17)8-4-11)12-5-9-14(18)10-6-12/h3-10,20H,2H2,1H3",
        "InChIKey": null,
        "Canonical SMILES": "O=C(OCC)C(O)(C1=CC=C(Cl)C=C1)C2=CC=C(Cl)C=C2",
        "Molecular Formula": "C<sub>16</sub>H<sub>14</sub>Cl<sub>2</sub>O<sub>3</sub>",
        "Molecular Mass": "325.19",
        "Boiling Point": "146-148 °C @ Press: 0.04 Torr",
        "Melting Point": "36-37.5 °C",
        "Density": "1.28 g/cm³"
    }
}