{
    "cas_no": "6469-93-8",
    "key_name": "Chlorprothixene hydrochloride",
    "cn_name": "盐酸氯普噻吨;反式-2-氯-9-(3-二甲胺基亚丙基)硫杂蒽盐酸盐;(Z)-N,N-二甲基-3-(2-氯-9H-亚噻吨基)-1-丙胺盐;",
    "alternate_name": "1-Propanamine, 3-(2-chloro-9<em>H</em>-thioxanthen-9-ylidene)-<em>N</em>,<em>N</em>-dimethyl-, hydrochloride (1:1), (3<em>Z</em>)-;Thioxanthene-Δ<sup>9,γ</sup>-propylamine, 2-chloro-<em>N</em>,<em>N</em>-dimethyl-, hydrochloride, (<em>Z</em>)-;1-Propanamine, 3-(2-chloro-9<em>H</em>-thioxanthen-9-ylidene)-<em>N</em>,<em>N</em>-dimethyl-, hydrochloride, (<em>Z</em>)-;1-Propanamine, 3-(2-chloro-9<em>H</em>-thioxanthen-9-ylidene)-<em>N</em>,<em>N</em>-dimethyl-, hydrochloride, (3<em>Z</em>)-;9<em>H</em>-Thioxanthene, 1-propanamine deriv.;Truxal hydrochloride;<em>cis</em>-Chlorprothixene hydrochloride;Chlorprothixene hydrochloride;NSC 169899",
    "duplicated_cas_no": "",
    "SMILES": "C(\\CCN(C)C)=C/1\\C=2C(SC=3C1=CC=CC3)=CC=C(Cl)C2.Cl",
    "meta_data": {
        "InChI": "InChI=1S/C18H18ClNS.ClH/c1-20(2)11-5-7-14-15-6-3-4-8-17(15)21-18-10-9-13(19)12-16(14)18;/h3-4,6-10,12H,5,11H2,1-2H3;1H/b14-7-;",
        "InChIKey": null,
        "Canonical SMILES": "Cl.ClC1=CC=C2SC=3C=CC=CC3C(=CCCN(C)C)C2=C1",
        "Molecular Formula": "C<sub>18</sub>H<sub>18</sub>ClNS.ClH",
        "Molecular Mass": "",
        "Melting Point": "207.5-208 °C"
    }
}