{
    "cas_no": "111-88-6",
    "key_name": "1-Octanethiol",
    "cn_name": "1-辛硫醇;正辛硫醇;",
    "alternate_name": "1-Octanethiol;Octyl mercaptan;<em>n</em>-Octyl mercaptan;1-Mercaptooctane;<em>n</em>-Octanethiol;Octylthiol;1-Octylthiol;<em>n</em>-Octylthiol;1-Octyl mercaptan;NSC 151955;NSC 41903;Thiokalcol 08;O 0025",
    "duplicated_cas_no": "",
    "SMILES": "C(CCCC)CCCS",
    "meta_data": {
        "InChI": "InChI=1S/C8H18S/c1-2-3-4-5-6-7-8-9/h9H,2-8H2,1H3",
        "InChIKey": null,
        "Canonical SMILES": "SCCCCCCCC",
        "Molecular Formula": "C<sub>8</sub>H<sub>18</sub>S",
        "Molecular Mass": "146.29",
        "Boiling Point": "86 °C @ Press: 15 Torr",
        "Melting Point": "-49.2 °C",
        "Density": "0.8433 g/cm³ @ Temp: 20 °C"
    }
}