{
    "cas_no": "118-55-8",
    "key_name": "Phenyl salicylate",
    "cn_name": "水杨酸苯酯;",
    "alternate_name": "Benzoic acid, 2-hydroxy-, phenyl ester;Salicylic acid, phenyl ester;Phenol salicylate;Phenyl salicylate;Salol;Phenyl 2-hydroxybenzoate;Salphenyl;2-Phenoxycarbonylphenol;Seesorb 201;Seesorb K 201;NSC 33406;Phenyl <em>o</em>-hydroxybenzoate;YC 136;2-Hydroxy-benzoic acid phenyl ester",
    "duplicated_cas_no": "",
    "SMILES": "C(OC1=CC=CC=C1)(=O)C2=C(O)C=CC=C2",
    "meta_data": {
        "InChI": "InChI=1S/C13H10O3/c14-12-9-5-4-8-11(12)13(15)16-10-6-2-1-3-7-10/h1-9,14H",
        "InChIKey": null,
        "Canonical SMILES": "O=C(OC=1C=CC=CC1)C=2C=CC=CC2O",
        "Molecular Formula": "C<sub>13</sub>H<sub>10</sub>O<sub>3</sub>",
        "Molecular Mass": "214.22",
        "Boiling Point": "173 °C",
        "Melting Point": "41-43 °C",
        "Density": "1.25 g/cm³"
    }
}