{
    "cas_no": "2929-52-4",
    "key_name": "Trihexylsilane",
    "cn_name": null,
    "alternate_name": "Silane, trihexyl-;Trihexylsilane;Tri-<em>n</em>-hexylsilane;NSC 139856",
    "duplicated_cas_no": "",
    "SMILES": "[SiH](CCCCCC)(CCCCCC)CCCCCC",
    "meta_data": {
        "InChI": "InChI=1S/C18H40Si/c1-4-7-10-13-16-19(17-14-11-8-5-2)18-15-12-9-6-3/h19H,4-18H2,1-3H3",
        "InChIKey": null,
        "Canonical SMILES": "CCCCCC[SiH](CCCCCC)CCCCCC",
        "Molecular Formula": "C<sub>18</sub>H<sub>40</sub>Si",
        "Molecular Mass": "284.60",
        "Boiling Point": "160-161 °C @ Press: 5 Torr",
        "Density": "0.799 g/cm³"
    }
}