{
    "cas_no": "1833-53-0",
    "key_name": "Trimethyl[(1-methylethenyl)oxy]silane",
    "cn_name": "三甲基(1-甲基乙烯氧基)硅烷;2-(三甲基硅氧基)丙烯;",
    "alternate_name": "Silane, trimethyl[(1-methylethenyl)oxy]-;Silane, (isopropenyloxy)trimethyl-;Trimethyl[(1-methylethenyl)oxy]silane;Trimethyl[(1-methylvinyl)oxy]silane;(Isopropenyloxy)trimethylsilane;Isopropenyl trimethylsilyl ether;2-(Trimethylsiloxy)propene;2-(Trimethylsilyloxy)-1-propene;2-Trimethylsiloxy-1-propene;2-(Trimethylsilyloxy)propene;Acetone trimethylsilyl enol ether;Trimethyl(prop-1-en-2-yloxy)silane",
    "duplicated_cas_no": "",
    "SMILES": "O([Si](C)(C)C)C(C)=C",
    "meta_data": {
        "InChI": "InChI=1S/C6H14OSi/c1-6(2)7-8(3,4)5/h1H2,2-5H3",
        "InChIKey": null,
        "Canonical SMILES": "O(C(=C)C)[Si](C)(C)C",
        "Molecular Formula": "C<sub>6</sub>H<sub>14</sub>OSi",
        "Molecular Mass": "130.26",
        "Boiling Point": "94-95 °C",
        "Melting Point": "40-45 °C",
        "Density": "0.786 g/cm³"
    }
}