{
    "cas_no": "2345-32-6",
    "key_name": "4,4,4-Trichlorobutanoic acid",
    "cn_name": "4,4,4-三氯丁酸;",
    "alternate_name": "Butanoic acid, 4,4,4-trichloro-;Butyric acid, 4,4,4-trichloro-;4,4,4-Trichlorobutanoic acid",
    "duplicated_cas_no": "",
    "SMILES": "C(C(Cl)(Cl)Cl)CC(O)=O",
    "meta_data": {
        "InChI": "InChI=1S/C4H5Cl3O2/c5-4(6,7)2-1-3(8)9/h1-2H2,(H,8,9)",
        "InChIKey": null,
        "Canonical SMILES": "O=C(O)CCC(Cl)(Cl)Cl",
        "Molecular Formula": "C<sub>4</sub>H<sub>5</sub>Cl<sub>3</sub>O<sub>2</sub>",
        "Molecular Mass": "191.44",
        "Melting Point": "51-52 °C"
    }
}