{
    "cas_no": "4192-77-2",
    "key_name": "Ethyl (<em>E</em>)-cinnamate",
    "cn_name": null,
    "alternate_name": "2-Propenoic acid, 3-phenyl-, ethyl ester, (2<em>E</em>)-;Cinnamic acid, ethyl ester, (<em>E</em>)-;2-Propenoic acid, 3-phenyl-, ethyl ester, (<em>E</em>)-;Ethyl <em>trans</em>-cinnamate;Ethyl (<em>E</em>)-cinnamate;<em>trans</em>-Cinnamic acid ethyl ester;(2<em>E</em>)-3-Phenyl-2-propenoic acid ethyl ester;Ethyl (<em>E</em>)-3-phenyl-2-propenoate;<em>trans</em>-3-Phenyl-2-propenoic acid ethyl ester;Ethyl (2E)-3-phenylprop-2-enoate;Ethyl (<em>E</em>)-3-phenylacrylate;Ethyl (E)-3-phenylacrylate;(E)-Ethyl 3-phenyl-2-propenoate",
    "duplicated_cas_no": "",
    "SMILES": "C(=C/C(OCC)=O)\\C1=CC=CC=C1",
    "meta_data": {
        "InChI": "InChI=1S/C11H12O2/c1-2-13-11(12)9-8-10-6-4-3-5-7-10/h3-9H,2H2,1H3/b9-8+",
        "InChIKey": null,
        "Canonical SMILES": "O=C(OCC)C=CC=1C=CC=CC1",
        "Molecular Formula": "C<sub>11</sub>H<sub>12</sub>O<sub>2</sub>",
        "Molecular Mass": "176.21",
        "Boiling Point": "98-99 °C @ Press: 0.5 Torr",
        "Melting Point": "125 °C"
    }
}