{
    "cas_no": "81655-41-6",
    "key_name": "α-Methoxy-α-trifluoromethylphenylacetic acid",
    "cn_name": null,
    "alternate_name": "Benzeneacetic acid, α-methoxy-α-(trifluoromethyl)-;Benzeneacetic acid, α-methoxy-α-(trifluoromethyl)-, (±)-;α-Methoxy-α-(trifluoromethyl)benzeneacetic acid;Mosher's acid;(±)-α-Methoxy-α-(trifluoromethyl)benzeneacetic acid;<span class=\"text-smallcaps\">DL</span>-α-Methoxy-α-(trifluoromethyl)phenylacetic acid;(±)-α-Methoxy-α-(trifluoromethyl)phenylacetic acid;2-Methoxy-2-(trifluoromethyl)phenylacetic acid;α-Methoxy-α-trifluoromethylphenylacetic acid;(±)-Mosher's acid;MTPA;3,3,3-Trifluoro-2-methoxy-2-phenylpropanoic acid;(<em>RS</em>)-2-Methoxy-2-phenyl-3,3,3,-trifluoropropanoic acid",
    "duplicated_cas_no": "56135-03-6;198905-94-1;200947-49-5",
    "SMILES": "C(C(F)(F)F)(C(O)=O)(OC)C1=CC=CC=C1",
    "meta_data": {
        "InChI": "InChI=1S/C10H9F3O3/c1-16-9(8(14)15,10(11,12)13)7-5-3-2-4-6-7/h2-6H,1H3,(H,14,15)",
        "InChIKey": null,
        "Canonical SMILES": "O=C(O)C(OC)(C=1C=CC=CC1)C(F)(F)F",
        "Molecular Formula": "C<sub>10</sub>H<sub>9</sub>F<sub>3</sub>O<sub>3</sub>",
        "Molecular Mass": "234.17",
        "Melting Point": "44-45 °C"
    }
}