{
    "cas_no": "29490-19-5",
    "key_name": "2-Mercapto-5-methyl-1,3,4-thiadiazole",
    "cn_name": "2-巯基-5-甲基-1,3,4-噻二唑;",
    "alternate_name": "1,3,4-Thiadiazole-2(3<em>H</em>)-thione, 5-methyl-;Δ<sup>2</sup>-1,3,4-Thiadiazoline-5-thione, 2-methyl-;5-Methyl-1,3,4-thiadiazole-2(3<em>H</em>)-thione;5-Methyl-1,3,4-thiadiazole-2-thiol;2-Mercapto-5-methyl-1,3,4-thiadiazole;5-Mercapto-2-methyl-1,3,4-thiadiazole;5-Methyl-1,3,4-thiadiazolyl-2-thiol;2-Methyl-1,3,4-thiadiazole-5-thiol;5-Methyl-1,3,4-thiadiazol-2-thiol;5-Methyl-2-mercapto-1,3,4-thiadiazole;2-Methyl-5-mercapto-1,3,4-thiadiazole;2-Methyl-1,3,4-thiadiazol-5-thiol;2-Methyl-1,3,4-thiadiazoline-5-thione;5-Methyl-1,3,4-thiazole-2-thione;5-Methyl-2-sulfanyl-1,3,4-thiadiazole;5-Methyl-1,3,4-thiadiazole-2-thione;5-Methyl-3<em>H</em>-1,3,4-thiadiazole-2-thione;5-Methyl-1,3,4-thiadiazole-5-thiol;2-Methyl-5-mercaptothiadiazole",
    "duplicated_cas_no": "1711-82-6;50918-24-6;1630090-70-8",
    "SMILES": "CC=1SC(=S)NN1",
    "meta_data": {
        "InChI": "InChI=1S/C3H4N2S2/c1-2-4-5-3(6)7-2/h1H3,(H,5,6)",
        "InChIKey": null,
        "Canonical SMILES": "S=C1SC(=NN1)C",
        "Molecular Formula": "C<sub>3</sub>H<sub>4</sub>N<sub>2</sub>S<sub>2</sub>",
        "Molecular Mass": "132.21",
        "Melting Point": "173-176 °C (decomp)"
    }
}