{
    "cas_no": "106261-49-8",
    "key_name": "4-[(4-Methyl-1-piperazinyl)methyl]benzoic acid dihydrochloride",
    "cn_name": "4-[(4-甲基哌嗪-1-基)甲基]苯甲酸二盐酸盐;",
    "alternate_name": "Benzoic acid, 4-[(4-methyl-1-piperazinyl)methyl]-, hydrochloride (1:2);Benzoic acid, 4-[(4-methyl-1-piperazinyl)methyl]-, dihydrochloride;4-[(4-Methyl-1-piperazinyl)methyl]benzoic acid dihydrochloride;4-(4-Methylpiperazinomethyl)benzoic acid dihydrochloride;4-[(4-Methylpiperazinyl)methyl]benzoic acid dihydrochloride",
    "duplicated_cas_no": "",
    "SMILES": "C(C1=CC=C(C(O)=O)C=C1)N2CCN(C)CC2.Cl",
    "meta_data": {
        "InChI": "InChI=1S/C13H18N2O2.2ClH/c1-14-6-8-15(9-7-14)10-11-2-4-12(5-3-11)13(16)17;;/h2-5H,6-10H2,1H3,(H,16,17);2*1H",
        "InChIKey": null,
        "Canonical SMILES": "Cl.O=C(O)C1=CC=C(C=C1)CN2CCN(C)CC2",
        "Molecular Formula": "C<sub>13</sub>H<sub>18</sub>N<sub>2</sub>O<sub>2</sub>.2ClH",
        "Molecular Mass": "",
        "Melting Point": "309-311 °C"
    }
}