{
    "cas_no": "99-98-9",
    "key_name": "<em>N</em>,<em>N</em>-Dimethyl-<em>p</em>-phenylenediamine",
    "cn_name": "对氨基二甲基苯胺;对二甲氨基苯胺;N,N-甲基对苯二胺;N,N-二甲基-1,4-苯二胺;4-氨基-N,N-二甲基苯胺;N,N-二;",
    "alternate_name": "1,4-Benzenediamine, <em>N</em><sup>1</sup>,<em>N</em><sup>1</sup>-dimethyl-;<em>p</em>-Phenylenediamine, <em>N</em>,<em>N</em>-dimethyl-;1,4-Benzenediamine, <em>N</em>,<em>N</em>-dimethyl-;<em>N</em><sup>1</sup>,<em>N</em><sup>1</sup>-Dimethyl-1,4-benzenediamine;C.I. 76075;<em>p</em>-Aminodimethylaniline;<em>N</em>,<em>N</em>-Dimethyl-<em>p</em>-phenylenediamine;Dimethyl-<em>p</em>-phenylenediamine;<em>p</em>-Amino-<em>N</em>,<em>N</em>-dimethylaniline;4-(Dimethylamino)aniline;<em>p</em>-(Dimethylamino)aniline;<em>N</em>,<em>N</em>-Dimethyl-1,4-benzenediamine;<em>p</em>-(Dimethylamino)phenylamine;4-Amino-<em>N</em>,<em>N</em>-dimethylaniline;DMPD;<em>N</em>,<em>N</em>-Dimethyl-1,4-phenylenediamine;<em>N</em>,<em>N</em>-Dimethyl-<em>p</em>-benzenediamine;<em>N</em>,<em>N</em>-Dimethyl-1,4-diaminobenzene;1-Amino-4-(dimethylamino)benzene;4-(Dimethylamino)benzenamine;4-(<em>N</em>,<em>N</em>-Dimethylamino)aniline;[4-(Dimethylamino)phenyl]amine;4-(<em>N</em>,<em>N</em>-Dimethylamino)phenylamine;NSC 1493;<em>N</em>-(4-Aminophenyl)-<em>N</em>,<em>N</em>-dimethylamine;(4-Aminophenyl)dimethylamine;1-<em>N</em>,1-<em>N</em>-Dimethylbenzene-1,4-diamine;4-Amino-1-(dimethylamino)benzene",
    "duplicated_cas_no": "",
    "SMILES": "N(C)(C)C1=CC=C(N)C=C1",
    "meta_data": {
        "InChI": "InChI=1S/C8H12N2/c1-10(2)8-5-3-7(9)4-6-8/h3-6H,9H2,1-2H3",
        "InChIKey": null,
        "Canonical SMILES": "NC1=CC=C(C=C1)N(C)C",
        "Molecular Formula": "C<sub>8</sub>H<sub>12</sub>N<sub>2</sub>",
        "Molecular Mass": "136.19",
        "Boiling Point": "262 °C",
        "Melting Point": "53 °C",
        "Density": "1.036 g/cm³ @ Temp: 20 °C"
    }
}