{
    "cas_no": "575-43-9",
    "key_name": "1,6-Dimethylnaphthalene",
    "cn_name": null,
    "alternate_name": "Naphthalene, 1,6-dimethyl-;1,6-Dimethylnaphthalene;NSC 52966",
    "duplicated_cas_no": "",
    "SMILES": "CC=1C2=C(C=C(C)C=C2)C=CC1",
    "meta_data": {
        "InChI": "InChI=1S/C12H12/c1-9-6-7-12-10(2)4-3-5-11(12)8-9/h3-8H,1-2H3",
        "InChIKey": null,
        "Canonical SMILES": "C1=CC2=CC(=CC=C2C(=C1)C)C",
        "Molecular Formula": "C<sub>12</sub>H<sub>12</sub>",
        "Molecular Mass": "156.22",
        "Boiling Point": "264 °C",
        "Melting Point": "-16.9 °C",
        "Density": "1.003 g/cm³ @ Temp: 20 °C"
    }
}