{
    "cas_no": "19044-88-3",
    "key_name": "Oryzalin",
    "cn_name": "氨磺乐灵;氨磺灵;3,5-二硝基-N\",N\"-二丙基磺胺;N,N-二丙基-4-氨基磺酰基-2,6-硝基苯胺;",
    "alternate_name": "Benzenesulfonamide, 4-(dipropylamino)-3,5-dinitro-;Sulfanilamide, 3,5-dinitro-<em>N</em><sup>4</sup>,<em>N</em><sup>4</sup>-dipropyl-;4-(Dipropylamino)-3,5-dinitrobenzenesulfonamide;Oryzalin;Surflan;EL 119;Ryzelan;3,5-Dinitro-<em>N</em><sup>4</sup>,<em>N</em><sup>4</sup>-dipropylsulfanilamide;<em>N</em><sup>4</sup>,<em>N</em><sup>4</sup>-Dipropyl-3,5-dinitrosulfanilamide;Rizelan;Dirimal;NSC 648479;Oryzalin 4 Pro",
    "duplicated_cas_no": "",
    "SMILES": "N(CCC)(CCC)C1=C(N(=O)=O)C=C(S(N)(=O)=O)C=C1N(=O)=O",
    "meta_data": {
        "InChI": "InChI=1S/C12H18N4O6S/c1-3-5-14(6-4-2)12-10(15(17)18)7-9(23(13,21)22)8-11(12)16(19)20/h7-8H,3-6H2,1-2H3,(H2,13,21,22)",
        "InChIKey": null,
        "Canonical SMILES": "O=N(=O)C=1C=C(C=C(C1N(CCC)CCC)N(=O)=O)S(=O)(=O)N",
        "Molecular Formula": "C<sub>12</sub>H<sub>18</sub>N<sub>4</sub>O<sub>6</sub>S",
        "Molecular Mass": "346.36",
        "Melting Point": "137-138 °C"
    }
}