{
    "cas_no": "70051-38-6",
    "key_name": "(1a<em>R</em>,4<em>R</em>,4a<em>R</em>,7<em>S</em>,7a<em>S</em>,7b<em>R</em>)-Decahydro-1,1,4,7-tetramethyl-1<em>H</em>-cycloprop[<em>e</em>]azulene-4,7-diol",
    "cn_name": null,
    "alternate_name": "1<em>H</em>-Cycloprop[<em>e</em>]azulene-4,7-diol, decahydro-1,1,4,7-tetramethyl-, (1a<em>R</em>,4<em>R</em>,4a<em>R</em>,7<em>S</em>,7a<em>S</em>,7b<em>R</em>)-;1<em>H</em>-Cycloprop[<em>e</em>]azulene-4,7-diol, decahydro-1,1,4,7-tetramethyl-, [1a<em>R</em>-(1aα,4α,4aα,7β,7aβ,7bα)]-;(1a<em>R</em>,4<em>R</em>,4a<em>R</em>,7<em>S</em>,7a<em>S</em>,7b<em>R</em>)-Decahydro-1,1,4,7-tetramethyl-1<em>H</em>-cycloprop[<em>e</em>]azulene-4,7-diol;<span class=\"text-smallcaps\">D</span>-Aromadendrane-4β,10α-diol;4β,10α-Dihydroxyaromadendrane;(-)-4β,10α-Aromadendranediol;Aromadendrane-4β,10α-diol;(-)-4α,10β-Aromadendranediol;4α,10β-Dihydroxyaromadendrane",
    "duplicated_cas_no": "",
    "SMILES": "CC1(C)[C@]2([C@]3([C@]([C@](C)(O)CC[C@]21[H])(CC[C@]3(C)O)[H])[H])[H]",
    "meta_data": {
        "InChI": "InChI=1S/C15H26O2/c1-13(2)9-5-7-14(3,16)10-6-8-15(4,17)12(10)11(9)13/h9-12,16-17H,5-8H2,1-4H3/t9-,10-,11-,12-,14-,15+/m1/s1",
        "InChIKey": null,
        "Canonical SMILES": "OC1(C)CCC2C(C3C1CCC3(O)C)C2(C)C",
        "Molecular Formula": "C<sub>15</sub>H<sub>26</sub>O<sub>2</sub>",
        "Molecular Mass": "238.37",
        "Melting Point": "133-134 °C"
    }
}