{
    "cas_no": "3486-08-6",
    "key_name": "1,1,1,2,3,3,4,4,5,5,6,6-Dodecafluoro-6-iodo-2-(trifluoromethyl)hexane",
    "cn_name": null,
    "alternate_name": "Hexane, 1,1,1,2,3,3,4,4,5,5,6,6-dodecafluoro-6-iodo-2-(trifluoromethyl)-;Hexane, dodecafluoro-1-iodo-5-(trifluoromethyl)-;1,1,1,2,3,3,4,4,5,5,6,6-Dodecafluoro-6-iodo-2-(trifluoromethyl)hexane;Pentadecafluoro-1-iodo-5-methylhexane;1-Iodo-5-(trifluoromethyl)perfluorohexane;1-Iodo-perfluoro-5-methylhexane",
    "duplicated_cas_no": "",
    "SMILES": "C(C(C(C(C(F)(F)I)(F)F)(F)F)(F)F)(C(F)(F)F)(C(F)(F)F)F",
    "meta_data": {
        "InChI": "InChI=1S/C7F15I/c8-1(5(15,16)17,6(18,19)20)2(9,10)3(11,12)4(13,14)7(21,22)23",
        "InChIKey": null,
        "Canonical SMILES": "FC(F)(F)C(F)(C(F)(F)F)C(F)(F)C(F)(F)C(F)(F)C(F)(F)I",
        "Molecular Formula": "C<sub>7</sub>F<sub>15</sub>I",
        "Molecular Mass": "495.96",
        "Boiling Point": "139 °C"
    }
}