{
    "cas_no": "6116-76-3",
    "key_name": "3-Ethyl-1,5,6,7-tetrahydro-2-methyl-4<em>H</em>-indol-4-one",
    "cn_name": null,
    "alternate_name": "4<em>H</em>-Indol-4-one, 3-ethyl-1,5,6,7-tetrahydro-2-methyl-;Indol-4(5<em>H</em>)-one, 3-ethyl-6,7-dihydro-2-methyl-;3-Ethyl-1,5,6,7-tetrahydro-2-methyl-4<em>H</em>-indol-4-one;2-Methyl-3-ethyl-4-oxo-4,5,6,7-tetrahydroindole;NSC 136938;3-Ethyl-2-methyl-4,5,6,7-tetrahydro-1<em>H</em>-indol-4-one;3-Ethyl-2-methyl-1,5,6,7-tetrahydroindol-4-one",
    "duplicated_cas_no": "",
    "SMILES": "C(C)C=1C2=C(NC1C)CCCC2=O",
    "meta_data": {
        "InChI": "InChI=1S/C11H15NO/c1-3-8-7(2)12-9-5-4-6-10(13)11(8)9/h12H,3-6H2,1-2H3",
        "InChIKey": null,
        "Canonical SMILES": "O=C1C2=C(NC(=C2CC)C)CCC1",
        "Molecular Formula": "C<sub>11</sub>H<sub>15</sub>NO",
        "Molecular Mass": "177.24",
        "Melting Point": "183 °C"
    }
}