{
    "cas_no": "15457-05-3",
    "key_name": "Fluorodifen",
    "cn_name": "三氟硝草醚;",
    "alternate_name": "Benzene, 2-nitro-1-(4-nitrophenoxy)-4-(trifluoromethyl)-;Ether, <em>p</em>-nitrophenyl α,α,α-trifluoro-2-nitro-<em>p</em>-tolyl;2-Nitro-1-(4-nitrophenoxy)-4-(trifluoromethyl)benzene;C 6989;Preforan;<em>p</em>-Nitrophenyl α,α,α-trifluoro-<em>o</em>-nitro-<em>p</em>-tolyl ether;4-Nitrophenyl 4-(trifluoromethyl)-2-nitrophenyl ether;Fluorodifen;<em>p</em>-Nitrophenyl α,α,α-trifluoro-2-nitro-<em>p</em>-tolyl ether;2,4′-Dinitro-4-(trifluoromethyl) diphenyl ether;<em>p</em>-Nitrophenyl 2-nitro-4-(trifluoromethyl)phenyl ether;3-Nitro-4-(<em>p</em>-nitrophenoxy)-α,α,α-trifluorotoluene;Fluorodiphen;4′-Trifluoromethyl-2′,4-dinitrodiphenyl ether;NSC 58415",
    "duplicated_cas_no": "",
    "SMILES": "O(C1=C(N(=O)=O)C=C(C(F)(F)F)C=C1)C2=CC=C(N(=O)=O)C=C2",
    "meta_data": {
        "InChI": "InChI=1S/C13H7F3N2O5/c14-13(15,16)8-1-6-12(11(7-8)18(21)22)23-10-4-2-9(3-5-10)17(19)20/h1-7H",
        "InChIKey": null,
        "Canonical SMILES": "O=N(=O)C1=CC=C(OC2=CC=C(C=C2N(=O)=O)C(F)(F)F)C=C1",
        "Molecular Formula": "C<sub>13</sub>H<sub>7</sub>F<sub>3</sub>N<sub>2</sub>O<sub>5</sub>",
        "Molecular Mass": "328.20",
        "Melting Point": "94 °C"
    }
}