{
    "cas_no": "31250-08-5",
    "key_name": "2-(2-Chloroethoxy)acetonitrile",
    "cn_name": null,
    "alternate_name": "Acetonitrile, 2-(2-chloroethoxy)-;Acetonitrile, (2-chloroethoxy)-;2-(2-Chloroethoxy)acetonitrile;1-Chloro-2-(cyanomethoxy)ethane;2-Chloroethoxyacetonitrile",
    "duplicated_cas_no": "",
    "SMILES": "O(CCCl)CC#N",
    "meta_data": {
        "InChI": "InChI=1S/C4H6ClNO/c5-1-3-7-4-2-6/h1,3-4H2",
        "InChIKey": null,
        "Canonical SMILES": "N#CCOCCCl",
        "Molecular Formula": "C<sub>4</sub>H<sub>6</sub>ClNO",
        "Molecular Mass": "119.55",
        "Boiling Point": "109-110 °C @ Press: 27.5 Torr",
        "Density": "1.1846 g/cm³ @ Temp: 20 °C"
    }
}