{
    "cas_no": "1133-96-6",
    "key_name": "5-Formyl-2,4-dimethyl-1<em>H</em>-pyrrole-3-propanoic acid",
    "cn_name": null,
    "alternate_name": "1<em>H</em>-Pyrrole-3-propanoic acid, 5-formyl-2,4-dimethyl-;Pyrrole-3-propionic acid, 5-formyl-2,4-dimethyl-;5-Formyl-2,4-dimethyl-1<em>H</em>-pyrrole-3-propanoic acid;3-(5-Formyl-2,4-dimethyl-1<em>H</em>-pyrrol-3-yl)propionic acid;3-(5-Formyl-2,4-dimethyl-1<em>H</em>-pyrrol-3-yl)propanoic acid",
    "duplicated_cas_no": "",
    "SMILES": "C(CC(O)=O)C=1C(C)=C(C=O)NC1C",
    "meta_data": {
        "InChI": "InChI=1S/C10H13NO3/c1-6-8(3-4-10(13)14)7(2)11-9(6)5-12/h5,11H,3-4H2,1-2H3,(H,13,14)",
        "InChIKey": null,
        "Canonical SMILES": "O=CC=1NC(=C(C1C)CCC(=O)O)C",
        "Molecular Formula": "C<sub>10</sub>H<sub>13</sub>NO<sub>3</sub>",
        "Molecular Mass": "195.22",
        "Melting Point": "150-151 °C"
    }
}