{
    "cas_no": "702-98-7",
    "key_name": "2-Methyl-2-adamantanol",
    "cn_name": "2-甲基-2-金刚烷醇;",
    "alternate_name": "Tricyclo[3.3.1.1<sup>3,7</sup>]decan-2-ol, 2-methyl-;2-Adamantanol, 2-methyl-;2-Methyltricyclo[3.3.1.1<sup>3,7</sup>]decan-2-ol;2-Methyl-2-adamantanol;2-Hydroxy-2-methyladamantane;NSC 193482",
    "duplicated_cas_no": "",
    "SMILES": "CC1(O)C2CC3CC1CC(C2)C3",
    "meta_data": {
        "InChI": "InChI=1S/C11H18O/c1-11(12)9-3-7-2-8(5-9)6-10(11)4-7/h7-10,12H,2-6H2,1H3",
        "InChIKey": null,
        "Canonical SMILES": "OC1(C)C2CC3CC(C2)CC1C3",
        "Molecular Formula": "C<sub>11</sub>H<sub>18</sub>O",
        "Molecular Mass": "166.26",
        "Melting Point": "214.7-216.5 °C"
    }
}