{
    "cas_no": "110-51-0",
    "key_name": "Pyridine-borane",
    "cn_name": "吡啶硼烷;硼烷-吡啶络合物;",
    "alternate_name": "Boron, trihydro(pyridine)-, (<em>T</em>-4)-;Pyridine, compd. with borane (1:1);Pyridine, compd. with BH<sub>3</sub> (1:1);Pyridine, compd. with BH<sub>3</sub>;Borane, compd. with pyridine (1:1);(<em>T</em>-4)-Trihydro(pyridine)boron;Pyridine-borane;Trihydro(pyridine)boron;Borane-pyridine (1:1);NSC 10219;NSC 53324;Borane pyridine complex",
    "duplicated_cas_no": "109001-02-7;67571-42-0;878775-62-3",
    "SMILES": "[B+3]([H-])([H-])([H-])[N]=1C=CC=CC1",
    "meta_data": {
        "InChI": "InChI=1S/C5H8BN/c6-7-4-2-1-3-5-7/h1-5H,6H3",
        "InChIKey": null,
        "Canonical SMILES": "[H-][B+3]([H-])([H-])[N]=1C=CC=CC1",
        "Molecular Formula": "C<sub>5</sub>H<sub>8</sub>BN",
        "Molecular Mass": "",
        "Melting Point": "46-47 °C"
    }
}