{
    "cas_no": "876-02-8",
    "key_name": "4′-Hydroxy-3′-methylacetophenone",
    "cn_name": "4-羟基-3-甲基苯乙酮;3-甲基-4-羟基苯乙酮;",
    "alternate_name": "Ethanone, 1-(4-hydroxy-3-methylphenyl)-;Acetophenone, 4′-hydroxy-3′-methyl-;1-(4-Hydroxy-3-methylphenyl)ethanone;4′-Hydroxy-3′-methylacetophenone;3′-Methyl-4′-hydroxyacetophenone;4-Acetyl-2-methylphenol;2-Methyl-4-acetylphenol;1-(3-Methyl-4-hydroxyphenyl)ethanone;NSC 63365;4-Hydroxyl-3-methyl acetophenone",
    "duplicated_cas_no": "",
    "SMILES": "C(C)(=O)C1=CC(C)=C(O)C=C1",
    "meta_data": {
        "InChI": "InChI=1S/C9H10O2/c1-6-5-8(7(2)10)3-4-9(6)11/h3-5,11H,1-2H3",
        "InChIKey": null,
        "Canonical SMILES": "O=C(C1=CC=C(O)C(=C1)C)C",
        "Molecular Formula": "C<sub>9</sub>H<sub>10</sub>O<sub>2</sub>",
        "Molecular Mass": "150.17",
        "Melting Point": "103 °C"
    }
}