{
    "cas_no": "1679-18-1",
    "key_name": "(4-Chlorophenyl)boronic acid",
    "cn_name": "4-氯苯硼酸;对氯苯硼酸;",
    "alternate_name": "Boronic acid, <em>B</em>-(4-chlorophenyl)-;Benzeneboronic acid, <em>p</em>-chloro-;Boronic acid, (4-chlorophenyl)-;<em>B</em>-(4-Chlorophenyl)boronic acid;(<em>p</em>-Chlorophenyl)boronic acid;<em>p</em>-Chlorobenzeneboronic acid;4-Chlorobenzeneboronic acid;(4-Chlorophenyl)boronic acid;NSC 25408;4-Chlorophenylboronic acid",
    "duplicated_cas_no": "",
    "SMILES": "B(O)(O)C1=CC=C(Cl)C=C1",
    "meta_data": {
        "InChI": "InChI=1S/C6H6BClO2/c8-6-3-1-5(2-4-6)7(9)10/h1-4,9-10H",
        "InChIKey": null,
        "Canonical SMILES": "ClC1=CC=C(C=C1)B(O)O",
        "Molecular Formula": "C<sub>6</sub>H<sub>6</sub>BClO<sub>2</sub>",
        "Molecular Mass": "156.37",
        "Melting Point": "260 °C"
    }
}