{
    "cas_no": "66-76-2",
    "key_name": "Dicoumarol",
    "cn_name": "敌害鼠;双杀鼠灵；敌害鼠；双华法令;",
    "alternate_name": "2<em>H</em>-1-Benzopyran-2-one, 3,3′-methylenebis[4-hydroxy-;Coumarin, 3,3′-methylenebis[4-hydroxy-;3,3′-Methylenebis[4-hydroxy-2<em>H</em>-1-benzopyran-2-one];Acadyl;Bishydroxycoumarin;Bis(4-hydroxycoumarin-3-yl)methane;Dicoumarin;Dicoumarol;Dicumarine;Di-4-hydroxy-3,3′-methylenedicoumarin;3,3′-Methylenebis[4-hydroxy-1,2-benzopyrone];3,3′-Methylenebis[4-hydroxycoumarin];Dicumarol;Bis-3,3′-(4-hydroxycoumarinyl)methane;Cumid;Dicuman;Dicumol;Melitoxin;Acavyl;Antitrombosin;Kumoran;Baracoumin;Cuma;Temparin;Trombosan;Dicoumal;NC 034;NSC 41834;Dufalone;NSC 17860;NSC 221570;3,3′-Methylenebis(4-hydroxy-2H-chromen-2-one);PB 2-9;3,3′-Methylene-bis-(4-hydroxy-2<em>H</em>-benzopyran-2-one)",
    "duplicated_cas_no": "",
    "SMILES": "OC=1C=2C(OC(=O)C1CC3=C(O)C=4C(OC3=O)=CC=CC4)=CC=CC2",
    "meta_data": {
        "InChI": "InChI=1S/C19H12O6/c20-16-10-5-1-3-7-14(10)24-18(22)12(16)9-13-17(21)11-6-2-4-8-15(11)25-19(13)23/h1-8,20-21H,9H2",
        "InChIKey": null,
        "Canonical SMILES": "O=C1OC=2C=CC=CC2C(O)=C1CC=3C(=O)OC=4C=CC=CC4C3O",
        "Molecular Formula": "C<sub>19</sub>H<sub>12</sub>O<sub>6</sub>",
        "Molecular Mass": "336.30",
        "Melting Point": "287-293 °C"
    }
}