{
    "cas_no": "142-08-5",
    "key_name": "2-Pyridone",
    "cn_name": "2-羟基吡啶;2-吡啶酚;",
    "alternate_name": "2(1<em>H</em>)-Pyridinone;2(1<em>H</em>)-Pyridone;2-Pyridol;2-Pyridone;α-Pyridone;2-Oxopyridine;2-Hydroxypyridine;2-Pyridinol;2-Pyridinone;1,2-Dihydro-2-oxopyridine;1<em>H</em>-2-Pyridone;α-Hydroxypyridine;1<em>H</em>-Pyridin-2-one;NSC 172522;Pyridin-2-one;1,2-Dihydropyridin-2-one",
    "duplicated_cas_no": "109-10-4;77846-86-7;168275-26-1",
    "SMILES": "O=C1C=CC=CN1",
    "meta_data": {
        "InChI": "InChI=1S/C5H5NO/c7-5-3-1-2-4-6-5/h1-4H,(H,6,7)",
        "InChIKey": null,
        "Canonical SMILES": "O=C1C=CC=CN1",
        "Molecular Formula": "C<sub>5</sub>H<sub>5</sub>NO",
        "Molecular Mass": "95.10",
        "Boiling Point": "280 °C",
        "Melting Point": "107.8 °C"
    }
}