{
    "cas_no": "273-09-6",
    "key_name": "2,1,3-Benzoxadiazole",
    "cn_name": "依托唑灵;依托唑林;苯并呋咱;",
    "alternate_name": "2,1,3-Benzoxadiazole;Benzofurazan;2-Oxa-1,3-diaza-2<em>H</em>-isoindene;Benzo-2,1,3-oxadiazole;Benzo[<em>c</em>][1,2,5]oxadiazole",
    "duplicated_cas_no": "",
    "SMILES": "C=12C(=NON1)C=CC=C2",
    "meta_data": {
        "InChI": "InChI=1S/C6H4N2O/c1-2-4-6-5(3-1)7-9-8-6/h1-4H",
        "InChIKey": null,
        "Canonical SMILES": "N=1ON=C2C=CC=CC12",
        "Molecular Formula": "C<sub>6</sub>H<sub>4</sub>N<sub>2</sub>O",
        "Molecular Mass": "120.11",
        "Melting Point": "53 °C",
        "Density": "1.1550 g/cm³ @ Temp: 65 °C"
    }
}