{
    "cas_no": "2227-64-7",
    "key_name": "3-Nitrophenacyl bromide",
    "cn_name": "2-溴-3\"-硝基苯乙酮;",
    "alternate_name": "Ethanone, 2-bromo-1-(3-nitrophenyl)-;Acetophenone, 2-bromo-3′-nitro-;2-Bromo-1-(3-nitrophenyl)ethanone;α-Bromo-3′-nitroacetophenone;α-Bromo-<em>m</em>-nitroacetophenone;ω-Bromo-<em>m</em>-nitroacetophenone;3-Nitrophenacyl bromide;<em>m</em>-Nitrophenacyl bromide;2-Bromo-<em>m</em>-nitroacetophenone;Bromomethyl <em>m</em>-nitrophenyl ketone;2-Bromo-3′-nitroacetophenone;α-Bromo-3-nitroacetophenone;NSC 69855;1-(3-Nitrophenyl)-2-bromoethanone;Bromomethyl 3-nitrophenyl ketone;1-Nitro-3-(bromoacetyl)benzene;2-Bromo-1-(3-nitrophenyl)ethan-1-one",
    "duplicated_cas_no": "",
    "SMILES": "C(CBr)(=O)C1=CC(N(=O)=O)=CC=C1",
    "meta_data": {
        "InChI": "InChI=1S/C8H6BrNO3/c9-5-8(11)6-2-1-3-7(4-6)10(12)13/h1-4H,5H2",
        "InChIKey": null,
        "Canonical SMILES": "O=C(C1=CC=CC(=C1)N(=O)=O)CBr",
        "Molecular Formula": "C<sub>8</sub>H<sub>6</sub>BrNO<sub>3</sub>",
        "Molecular Mass": "244.04",
        "Melting Point": "96 °C"
    }
}