{
    "cas_no": "20290-75-9",
    "key_name": "Stearidonic acid",
    "cn_name": null,
    "alternate_name": "6,9,12,15-Octadecatetraenoic acid, (6<em>Z</em>,9<em>Z</em>,12<em>Z</em>,15<em>Z</em>)-;6,9,12,15-Octadecatetraenoic acid, (<em>all</em>-<em>Z</em>)-;(6<em>Z</em>,9<em>Z</em>,12<em>Z</em>,15<em>Z</em>)-6,9,12,15-Octadecatetraenoic acid;6,9,12,15-<em>cis</em>-Octadecatetraenoic acid;(<em>all</em>-<em>Z</em>)-6,9,12,15-Octadecatetraenoic acid;(6<em>Z</em>,9<em>Z</em>,12<em>Z</em>,15<em>Z</em>)-Octadecatetraenoic acid;Δ<sup>6,9,12,15</sup>-Octadecatetraenoic acid;<em>all</em>-<em>cis</em>-6,9,12,15-Octadecatetraenoic acid;Moroctic acid;Stearidonic acid;(<em>Z</em>,<em>Z</em>,<em>Z</em>,<em>Z</em>)-6,9,12,15-Octadecatetraenoic acid;18:4(<em>n</em>-3);6Z,9Z,12Z,15Z-Octadecatetraenoic acid",
    "duplicated_cas_no": "111174-40-4",
    "SMILES": "C(\\C/C=C\\C/C=C\\C/C=C\\CC)=C\\CCCCC(O)=O",
    "meta_data": {
        "InChI": "InChI=1S/C18H28O2/c1-2-3-4-5-6-7-8-9-10-11-12-13-14-15-16-17-18(19)20/h3-4,6-7,9-10,12-13H,2,5,8,11,14-17H2,1H3,(H,19,20)/b4-3-,7-6-,10-9-,13-12-",
        "InChIKey": null,
        "Canonical SMILES": "O=C(O)CCCCC=CCC=CCC=CCC=CCC",
        "Molecular Formula": "C<sub>18</sub>H<sub>28</sub>O<sub>2</sub>",
        "Molecular Mass": "276.41",
        "Melting Point": "200 °C (decomp)",
        "Density": "0.9334 g/cm³ @ Temp: 15 °C"
    }
}