{
    "cas_no": "3230-69-1",
    "key_name": "3-Methyl-1-penten-4-yn-3-ol",
    "cn_name": "3-甲基-1-戊烯-4-炔-3-醇;",
    "alternate_name": "1-Penten-4-yn-3-ol, 3-methyl-;3-Methyl-1-penten-4-yn-3-ol;Ethynylmethylvinylcarbinol;3-Methyl-4-penten-1-yn-3-ol;2-Vinyl-3-butyn-2-ol;NSC 44005",
    "duplicated_cas_no": "",
    "SMILES": "C(C=C)(C#C)(C)O",
    "meta_data": {
        "InChI": "InChI=1S/C6H8O/c1-4-6(3,7)5-2/h1,5,7H,2H2,3H3",
        "InChIKey": null,
        "Canonical SMILES": "C#CC(O)(C=C)C",
        "Molecular Formula": "C<sub>6</sub>H<sub>8</sub>O",
        "Molecular Mass": "96.13",
        "Boiling Point": "65 °C @ Press: 22 Torr",
        "Density": "0.9112 g/cm³ @ Temp: 20 °C"
    }
}