{
    "cas_no": "32687-78-8",
    "key_name": "<em>N</em>,<em>N</em>′-Bis[3-(3′,5′-di-<em>tert</em>-butyl-4′-hydroxyphenyl)propionyl]hydrazine",
    "cn_name": "N,N\"-双[3-(3,5-二叔丁基-4-羟基苯基)丙酰]肼;抗氧剂1024;",
    "alternate_name": "Benzenepropanoic acid, 3,5-bis(1,1-dimethylethyl)-4-hydroxy-, 2-[3-[3,5-bis(1,1-dimethylethyl)-4-hydroxyphenyl]-1-oxopropyl]hydrazide;Hydrazine, 1,2-bis(3,5-di-<em>tert</em>-butyl-4-hydroxyhydrocinnamoyl)-;<em>N</em>,<em>N</em>′-Bis[3-(3,5-di-<em>tert</em>-butyl-4-hydroxyphenyl)propionyl]hydrazine;<em>N</em>,<em>N</em>′-Bis[3-(3′,5′-di-<em>tert</em>-butyl-4′-hydroxyphenyl)propionyl]hydrazine;Irganox MD 1024;Irganox 1024;1,2-Bis(3,5-di-<em>tert</em>-butyl-4-hydroxyhydrocinnamoyl)hydrazide;MD 1024;<em>N</em>,<em>N</em>′-Bis[β-(3,5-di-<em>tert</em>-butyl-4-hydroxyphenyl)propionyl]hydrazine;3,5-Bis(1,1-dimethylethyl)-4-hydroxybenzenepropionic acid 2-[3-[3,5-bis(1,1-dimethylethyl)-4-hydroxyphenyl]-1-oxopropyl]hydrazide;1,2-Bis(3,5-di-<em>tert</em>-butyl-4-hydroxyhydrocinnamoyl)hydrazine;Lowinox MD 24;MD 24;ADK Stab CDA 10;Antioxidant 1024;Irganox MD 2014;CDA 10;<em>N</em>,<em>N</em>′-Bis[β-(3,5-di-<em>tert</em>-butyl-4-hydroxyphenyl)propionic acid] hydrazide;1,2-Bis(3,5-<em>tert</em>-butyl-4-hydroxyhydrocinnamoyl)hydrazine;Songnox 1024;Antioxidant BPP;Songnox 1024FG;IR 1024;Irganox GX MD 1024;Rianox 1024;1,2-Bis(3,5-di-<em>t</em>ert-butyl-4hydroxyhydrocinnamoyl)hydrazine;Evernox MD 1024;Chinox 1024;AO 1024;B 102 (Antioxidant);B 102;A 01024",
    "duplicated_cas_no": "77137-59-8;393567-12-9;2197022-96-9;2241586-69-4;2812483-39-7",
    "SMILES": "C(CC(NNC(CCC1=CC(C(C)(C)C)=C(O)C(C(C)(C)C)=C1)=O)=O)C2=CC(C(C)(C)C)=C(O)C(C(C)(C)C)=C2",
    "meta_data": {
        "InChI": "InChI=1S/C34H52N2O4/c1-31(2,3)23-17-21(18-24(29(23)39)32(4,5)6)13-15-27(37)35-36-28(38)16-14-22-19-25(33(7,8)9)30(40)26(20-22)34(10,11)12/h17-20,39-40H,13-16H2,1-12H3,(H,35,37)(H,36,38)",
        "InChIKey": null,
        "Canonical SMILES": "O=C(NNC(=O)CCC=1C=C(C(O)=C(C1)C(C)(C)C)C(C)(C)C)CCC=2C=C(C(O)=C(C2)C(C)(C)C)C(C)(C)C",
        "Molecular Formula": "C<sub>34</sub>H<sub>52</sub>N<sub>2</sub>O<sub>4</sub>",
        "Molecular Mass": "552.79",
        "Melting Point": "221-232 °C"
    }
}