{
    "cas_no": "628-97-7",
    "key_name": "Ethyl palmitate",
    "cn_name": "棕榈酸乙酯;十六酸乙酯;十六烷酸乙酯;",
    "alternate_name": "Hexadecanoic acid, ethyl ester;Palmitic acid, ethyl ester;Ethyl palmitate;Ethyl hexadecanoate;NSC 8918",
    "duplicated_cas_no": "",
    "SMILES": "C(CCCCCCCCCCCCC)CC(OCC)=O",
    "meta_data": {
        "InChI": "InChI=1S/C18H36O2/c1-3-5-6-7-8-9-10-11-12-13-14-15-16-17-18(19)20-4-2/h3-17H2,1-2H3",
        "InChIKey": null,
        "Canonical SMILES": "O=C(OCC)CCCCCCCCCCCCCCC",
        "Molecular Formula": "C<sub>18</sub>H<sub>36</sub>O<sub>2</sub>",
        "Molecular Mass": "284.48",
        "Boiling Point": "163 °C @ Press: 4 Torr",
        "Melting Point": "24 °C"
    }
}