{
    "cas_no": "13389-03-2",
    "key_name": "8-Bromo-2′-deoxyguanosine",
    "cn_name": null,
    "alternate_name": "Guanosine, 8-bromo-2′-deoxy-;8-Bromo-2′-deoxyguanosine;NSC 105830",
    "duplicated_cas_no": "2129983-93-1",
    "SMILES": "BrC=1N(C2=C(N1)C(=O)N=C(N)N2)[C@@H]3O[C@H](CO)[C@@H](O)C3",
    "meta_data": {
        "InChI": "InChI=1S/C10H12BrN5O4/c11-9-13-6-7(14-10(12)15-8(6)19)16(9)5-1-3(18)4(2-17)20-5/h3-5,17-18H,1-2H2,(H3,12,14,15,19)/t3-,4+,5+/m0/s1",
        "InChIKey": null,
        "Canonical SMILES": "O=C1N=C(N)NC2=C1N=C(Br)N2C3OC(CO)C(O)C3",
        "Molecular Formula": "C<sub>10</sub>H<sub>12</sub>BrN<sub>5</sub>O<sub>4</sub>",
        "Molecular Mass": "346.14",
        "Melting Point": "209-213 °C"
    }
}