{
    "cas_no": "7632-51-1",
    "key_name": "Vanadium tetrachloride",
    "cn_name": "四氯化钒;氯化钒(IV);",
    "alternate_name": "Vanadium chloride (VCl<sub>4</sub>), (<em>T</em>-4)-;Vanadium chloride (VCl<sub>4</sub>);Vanadium tetrachloride;Vanadium(IV) chloride;Tetrachlorovanadium",
    "duplicated_cas_no": "53185-66-3;53744-25-5",
    "SMILES": "[V](Cl)(Cl)(Cl)Cl",
    "meta_data": {
        "InChI": "InChI=1S/4ClH.V/h4*1H;/q;;;;+4/p-4",
        "InChIKey": null,
        "Canonical SMILES": "Cl[V](Cl)(Cl)Cl",
        "Molecular Formula": "Cl<sub>4</sub>V",
        "Molecular Mass": "",
        "Boiling Point": "148 °C",
        "Melting Point": "-25.7 °C",
        "Density": "1.816 g/cm³ @ Temp: 20 °C"
    }
}