{
    "cas_no": "1707-77-3",
    "key_name": "1,2:5,6-Di-<em>O</em>-isopropylidene-<span class=\"text-smallcaps\">D</span>-mannitol",
    "cn_name": "双丙酮-D-甘露糖醇;1,2:5,6-二异亚丙基-D-甘露糖醇;",
    "alternate_name": "<span class=\"text-smallcaps\">D</span>-Mannitol, 1,2:5,6-bis-<em>O</em>-(1-methylethylidene)-;Mannitol, 1,2:5,6-di-<em>O</em>-isopropylidene-, <span class=\"text-smallcaps\">D</span>-;1,2:5,6-Bis-<em>O</em>-(1-methylethylidene)-<span class=\"text-smallcaps\">D</span>-mannitol;1,2:5,6-Di-<em>O</em>-isopropylidene-<span class=\"text-smallcaps\">D</span>-mannitol;<span class=\"text-smallcaps\">D</span>-(+)-1,2:5,6-Di-<em>O</em>-isopropylidenemannitol;Diisopropylidene mannitol;Mannitol diacetonide;<span class=\"text-smallcaps\">D</span>-Mannitol 1,2:5,6-bis-acetonide;1,2:5,6-Diisopropylidene-<span class=\"text-smallcaps\">D</span>-mannitol;NSC 47987;NSC 67545;NSC 89874",
    "duplicated_cas_no": "131904-05-7",
    "SMILES": "[C@@H]([C@H](O)[C@@]1(OC(C)(C)OC1)[H])(O)[C@@]2(OC(C)(C)OC2)[H]",
    "meta_data": {
        "InChI": "InChI=1S/C12H22O6/c1-11(2)15-5-7(17-11)9(13)10(14)8-6-16-12(3,4)18-8/h7-10,13-14H,5-6H2,1-4H3/t7-,8-,9-,10-/m1/s1",
        "InChIKey": null,
        "Canonical SMILES": "OC(C(O)C1OC(OC1)(C)C)C2OC(OC2)(C)C",
        "Molecular Formula": "C<sub>12</sub>H<sub>22</sub>O<sub>6</sub>",
        "Molecular Mass": "262.30",
        "Melting Point": "122 °C"
    }
}