{
    "cas_no": "6842-15-5",
    "key_name": "1-Propene, tetramer",
    "cn_name": "四聚丙烯;1-十二烯;",
    "alternate_name": "1-Propene, tetramer;Propene, tetramer;Tetrapropylene;Propylene tetramer;Light Tetramer",
    "duplicated_cas_no": "",
    "SMILES": "C(C)=C",
    "meta_data": {
        "InChI": "InChI=1S/C3H6/c1-3-2/h3H,1H2,2H3",
        "InChIKey": null,
        "Canonical SMILES": "C=CC",
        "Molecular Formula": "(C<sub>3</sub>H<sub>6</sub>)<sub>4</sub>",
        "Molecular Mass": "",
        "Boiling Point": "190-210 °C",
        "Density": "0.7678 g/cm³"
    }
}