{
    "cas_no": "6610-31-7",
    "key_name": "<em>N</em>-Butylhydrazinecarbothioamide",
    "cn_name": null,
    "alternate_name": "Hydrazinecarbothioamide, <em>N</em>-butyl-;Semicarbazide, 4-butyl-3-thio-;<em>N</em>-Butylhydrazinecarbothioamide;B 1133;4-Butyl-3-thiosemicarbazide;4-Butylthiosemicarbazide;<em>N</em><sup>4</sup>-Butylthiosemicarbazide;1-Amino-3-butylthiourea;3-Amino-1-butylthiourea",
    "duplicated_cas_no": "",
    "SMILES": "C(NCCCC)(NN)=S",
    "meta_data": {
        "InChI": "InChI=1S/C5H13N3S/c1-2-3-4-7-5(9)8-6/h2-4,6H2,1H3,(H2,7,8,9)",
        "InChIKey": null,
        "Canonical SMILES": "S=C(NN)NCCCC",
        "Molecular Formula": "C<sub>5</sub>H<sub>13</sub>N<sub>3</sub>S",
        "Molecular Mass": "147.24",
        "Melting Point": "74-74.5 °C"
    }
}