{
    "cas_no": "123-33-1",
    "key_name": "Maleic hydrazide",
    "cn_name": "顺丁烯二酰肼;马来酰肼;1,2-二氢-3,6-哒嗪二酮;青鲜素;",
    "alternate_name": "3,6-Pyridazinedione, 1,2-dihydro-;3(2<em>H</em>)-Pyridazinone, 6-hydroxy-;1,2-Dihydro-3,6-pyridazinedione;MAH;Maleic hydrazide;MH;Malzid;3,6-Pyridazinediol;6-Hydroxy-3(2<em>H</em>)-pyridazinone;3,6-Dihydroxypyridazine;3,6-Dioxopyridazine;Maleic acid cyclic hydrazide;Regulox 36;Antyrost;Antergon;Malepin;Mazide;Super De-Sprout;Maleic cyclic hydrazide;Sorbatran;MH (hydrazide);Royal Slo-Gro;Yadi;Yake;NSC 13892;NSC 234167;NSC 48832;NSC 8823;1,2,3,6-Tetrahydropyridazine-3,6-dione;MeSH ID: D008300",
    "duplicated_cas_no": "5425-79-6;10071-13-3;48100-18-1;66988-32-7;92335-53-0;220787-04-2",
    "SMILES": "O=C1C=CC(=O)NN1",
    "meta_data": {
        "InChI": "InChI=1S/C4H4N2O2/c7-3-1-2-4(8)6-5-3/h1-2H,(H,5,7)(H,6,8)",
        "InChIKey": null,
        "Canonical SMILES": "O=C1C=CC(=O)NN1",
        "Molecular Formula": "C<sub>4</sub>H<sub>4</sub>N<sub>2</sub>O<sub>2</sub>",
        "Molecular Mass": "112.09",
        "Melting Point": "298-300 °C",
        "Density": "1.60 g/cm³ @ Temp: 25 °C"
    }
}