{
    "cas_no": "1530-39-8",
    "key_name": "Phosphonium, [(4-chlorophenyl)methyl]triphenyl-, chloride (1:1)",
    "cn_name": null,
    "alternate_name": "Phosphonium, [(4-chlorophenyl)methyl]triphenyl-, chloride (1:1);Phosphonium, (<em>p</em>-chlorobenzyl)triphenyl-, chloride;Phosphonium, [(4-chlorophenyl)methyl]triphenyl-, chloride;(<em>p</em>-Chlorobenzyl)triphenylphosphonium chloride;(4-Chlorobenzyl)triphenylphosphonium chloride",
    "duplicated_cas_no": "22192-21-8",
    "SMILES": "[P+](CC1=CC=C(Cl)C=C1)(C2=CC=CC=C2)(C3=CC=CC=C3)C4=CC=CC=C4.[Cl-]",
    "meta_data": {
        "InChI": "InChI=1S/C25H21ClP.ClH/c26-22-18-16-21(17-19-22)20-27(23-10-4-1-5-11-23,24-12-6-2-7-13-24)25-14-8-3-9-15-25;/h1-19H,20H2;1H/q+1;/p-1",
        "InChIKey": null,
        "Canonical SMILES": "[Cl-].ClC1=CC=C(C=C1)C[P+](C=2C=CC=CC2)(C=3C=CC=CC3)C=4C=CC=CC4",
        "Molecular Formula": "C<sub>25</sub>H<sub>21</sub>ClP.Cl",
        "Molecular Mass": "",
        "Melting Point": "279-281 °C"
    }
}