{
    "cas_no": "55-38-9",
    "key_name": "Fenthion",
    "cn_name": "倍硫磷;O,O-二甲基-O-(3-甲基-4-甲硫基苯基)硫代磷酸酯;",
    "alternate_name": "Phosphorothioic acid, <em>O</em>,<em>O</em>-dimethyl <em>O</em>-[3-methyl-4-(methylthio)phenyl] ester;Phosphorothioic acid, <em>O</em>,<em>O</em>-dimethyl <em>O</em>-[4-(methylthio)-<em>m</em>-tolyl] ester;Phosphorothioic acid, dimethyl [4-(methylthio)-<em>m</em>-tolyl] ester;Phosphorothioic acid (H<sub>3</sub>PO<sub>3</sub>S), <em>O</em>,<em>O</em>-dimethyl <em>O</em>-4-(methylthio)-<em>m</em>-tolyl ester;<em>m</em>-Cresol, 4-(methylthio)-, <em>O</em>-ester with <em>O</em>,<em>O</em>-di-Me phosphorothioate;OMS 2;S 1752;Bayer 9007;B 29493;Baytex;<em>O</em>,<em>O</em>-Dimethyl <em>O</em>-4-(methylmercapto)-3-methylphenyl phosphorothioate;<em>O</em>,<em>O</em>-Dimethyl <em>O</em>-4-(methylmercapto)-3-methylphenyl thiophosphate;<em>O</em>,<em>O</em>-Dimethyl <em>O</em>-(3-methyl-4-methylmercaptophenyl) phosphorothioate;<em>O</em>,<em>O</em>-Dimethyl <em>O</em>-(4-methylthio-3-methylphenyl) phosphorothioate;Entex;Fenthion;Mercaptophos;Queletox;BAY 29493;<em>O</em>,<em>O</em>-Dimethyl <em>O</em>-(3-methyl-4-methylthiophenyl) thiophosphate;Tiguvon;Lebaycid;<em>O</em>,<em>O</em>-Dimethyl <em>O</em>-[4-(methylthio)-<em>m</em>-tolyl] phosphorothioate;Phenthion;<em>O</em>,<em>O</em>-Dimethyl <em>O</em>-[4-(methylthio)-<em>m</em>-tolyl] thiophosphate;ENT 25540;MPP;Talodex;Baycid;MPP (pesticide);Sulfidophos;Dimethyl 4-methylthio-<em>m</em>-tolyl phosphorothioate;Mercaptofos;Spotton;Fenthion-methyl;<em>O</em>,<em>O</em>-Dimethyl <em>O</em>-[3-methyl-4-(methylthio)phenyl] phosphorothioate;MeSH ID: D005284",
    "duplicated_cas_no": "",
    "SMILES": "O(P(OC)(OC)=S)C1=CC(C)=C(SC)C=C1",
    "meta_data": {
        "InChI": "InChI=1S/C10H15O3PS2/c1-8-7-9(5-6-10(8)16-4)13-14(15,11-2)12-3/h5-7H,1-4H3",
        "InChIKey": null,
        "Canonical SMILES": "S=P(OC1=CC=C(SC)C(=C1)C)(OC)OC",
        "Molecular Formula": "C<sub>10</sub>H<sub>15</sub>O<sub>3</sub>PS<sub>2</sub>",
        "Molecular Mass": "278.33",
        "Boiling Point": "87 °C @ Press: 0.01 Torr",
        "Melting Point": "7 °C",
        "Density": "1.250 g/cm³ @ Temp: 20 °C"
    }
}