{
    "cas_no": "31005-02-4",
    "key_name": "7-Ethoxycoumarin",
    "cn_name": "7-乙氧基香豆素;7-乙氧基香豆素;7-乙氧基苯并吡喃-2-酮;",
    "alternate_name": "2<em>H</em>-1-Benzopyran-2-one, 7-ethoxy-;Coumarin, 7-ethoxy-;7-Ethoxy-2<em>H</em>-1-benzopyran-2-one;7-Ethoxycoumarin;Ethylumbelliferone",
    "duplicated_cas_no": "",
    "SMILES": "O(CC)C=1C=C2C(=CC1)C=CC(=O)O2",
    "meta_data": {
        "InChI": "InChI=1S/C11H10O3/c1-2-13-9-5-3-8-4-6-11(12)14-10(8)7-9/h3-7H,2H2,1H3",
        "InChIKey": null,
        "Canonical SMILES": "O=C1OC=2C=C(OCC)C=CC2C=C1",
        "Molecular Formula": "C<sub>11</sub>H<sub>10</sub>O<sub>3</sub>",
        "Molecular Mass": "190.20",
        "Melting Point": "89 °C"
    }
}