{
    "cas_no": "19427-36-2",
    "key_name": "(11α,16α)-16,17-Epoxy-11-hydroxypregn-4-ene-3,20-dione",
    "cn_name": "11a-羟基-16,17a-环氧孕酮;霉菌氧化物;",
    "alternate_name": "Pregn-4-ene-3,20-dione, 16,17-epoxy-11-hydroxy-, (11α,16α)-;Pregn-4-ene-3,20-dione, 16α,17-epoxy-11α-hydroxy-;Progesterone, 16α,17-epoxy-11α-hydroxy-;(11α,16α)-16,17-Epoxy-11-hydroxypregn-4-ene-3,20-dione;11α-Hydroxy-16α,17α-epoxypregn-4-ene-3,20-dione;11α-Hydroxy-16α,17α-oxidoprogesterone;16α,17-Epoxy-11α-hydroxypregn-4-ene-3,20-dione;11α-Hydroxy-16α,17-epoxyprogesterone",
    "duplicated_cas_no": "",
    "SMILES": "C(C)(=O)[C@]12[C@]3(C)[C@@](C[C@]1(O2)[H])([C@]4([C@]([C@H](O)C3)([C@]5(C)C(CC4)=CC(=O)CC5)[H])[H])[H]",
    "meta_data": {
        "InChI": "InChI=1S/C21H28O4/c1-11(22)21-17(25-21)9-15-14-5-4-12-8-13(23)6-7-19(12,2)18(14)16(24)10-20(15,21)3/h8,14-18,24H,4-7,9-10H2,1-3H3/t14-,15-,16+,17+,18+,19-,20-,21+/m0/s1",
        "InChIKey": null,
        "Canonical SMILES": "O=C1C=C2CCC3C4CC5OC5(C(=O)C)C4(C)CC(O)C3C2(C)CC1",
        "Molecular Formula": "C<sub>21</sub>H<sub>28</sub>O<sub>4</sub>",
        "Molecular Mass": "344.44",
        "Melting Point": "238.0-238.5 °C"
    }
}