{
    "cas_no": "920-37-6",
    "key_name": "2-Chloroacrylonitrile",
    "cn_name": "2-氯丙烯腈;",
    "alternate_name": "2-Propenenitrile, 2-chloro-;Acrylonitrile, 2-chloro-;2-Chloro-2-propenenitrile;α-Chloroacrylonitrile;1-Chloro-1-cyanoethene;1-Chloro-1-cyanoethylene;2-Chloroacrylonitrile;1-Cyano-1-chloroethene;1-Cyanovinyl chloride;2-Chloropropenenitrile;NSC 511714",
    "duplicated_cas_no": "",
    "SMILES": "C(C#N)(=C)Cl",
    "meta_data": {
        "InChI": "InChI=1S/C3H2ClN/c1-3(4)2-5/h1H2",
        "InChIKey": null,
        "Canonical SMILES": "N#CC(Cl)=C",
        "Molecular Formula": "C<sub>3</sub>H<sub>2</sub>ClN",
        "Molecular Mass": "87.51",
        "Boiling Point": "88.5 °C",
        "Melting Point": "-65 °C",
        "Density": "1.08 g/cm³ @ Temp: 20 °C"
    }
}