{
    "cas_no": "90101-20-5",
    "key_name": "1,1-Dimethylethyl <em>N</em>-(4-methyl-2-pyridinyl)carbamate",
    "cn_name": null,
    "alternate_name": "Carbamic acid, <em>N</em>-(4-methyl-2-pyridinyl)-, 1,1-dimethylethyl ester;Carbamic acid, (4-methyl-2-pyridinyl)-, 1,1-dimethylethyl ester;1,1-Dimethylethyl <em>N</em>-(4-methyl-2-pyridinyl)carbamate;2-(<em>tert</em>-Butoxycarbonylamino)-4-methylpyridine;<em>tert</em>-Butyl [4-methyl-2-pyridinyl]carbamate;(4-Methylpyridin-2-yl)carbamic acid tert-butyl ester;<em>tert</em>-Butyl <em>N</em>-(4-methylpyridin-2-yl)carbamate",
    "duplicated_cas_no": "",
    "SMILES": "N(C(OC(C)(C)C)=O)C1=CC(C)=CC=N1",
    "meta_data": {
        "InChI": "InChI=1S/C11H16N2O2/c1-8-5-6-12-9(7-8)13-10(14)15-11(2,3)4/h5-7H,1-4H3,(H,12,13,14)",
        "InChIKey": null,
        "Canonical SMILES": "O=C(OC(C)(C)C)NC1=NC=CC(=C1)C",
        "Molecular Formula": "C<sub>11</sub>H<sub>16</sub>N<sub>2</sub>O<sub>2</sub>",
        "Molecular Mass": "208.26",
        "Melting Point": "103.1-105.1 °C"
    }
}