{
    "cas_no": "848133-76-6",
    "key_name": "<em>N</em>-(4-Chloro-3-cyano-7-ethoxy-6-quinolinyl)acetamide",
    "cn_name": "N-(4-氯-3-氰基-7-乙氧基喹啉-6-基)乙酰胺;",
    "alternate_name": "Acetamide, <em>N</em>-(4-chloro-3-cyano-7-ethoxy-6-quinolinyl)-;<em>N</em>-(4-Chloro-3-cyano-7-ethoxy-6-quinolinyl)acetamide;4-Chloro-3-cyano-7-ethoxy-6-(<em>N</em>-acetylamino)quinoline;4-Chloro-3-cyano-7-ethoxy-6-(acetylamino)quinoline;<em>N</em>-(4-Chloro-3-cyano-7-ethoxyquinolin-6-yl)acetamide;<em>N</em>-(4-Chloro-3-cyano-7-ethoxyquinoline-6-yl)acetamide",
    "duplicated_cas_no": "",
    "SMILES": "ClC=1C2=C(C=C(OCC)C(NC(C)=O)=C2)N=CC1C#N",
    "meta_data": {
        "InChI": "InChI=1S/C14H12ClN3O2/c1-3-20-13-5-11-10(4-12(13)18-8(2)19)14(15)9(6-16)7-17-11/h4-5,7H,3H2,1-2H3,(H,18,19)",
        "InChIKey": null,
        "Canonical SMILES": "N#CC1=CN=C2C=C(OCC)C(=CC2=C1Cl)NC(=O)C",
        "Molecular Formula": "C<sub>14</sub>H<sub>12</sub>ClN<sub>3</sub>O<sub>2</sub>",
        "Molecular Mass": "289.72",
        "Melting Point": "250 °C"
    }
}