{
    "cas_no": "4346-94-5",
    "key_name": "Thiosemicarbazide hydrochloride",
    "cn_name": "氨基硫脲单盐酸盐;氨基硫脲单盐酸盐;",
    "alternate_name": "Hydrazinecarbothioamide, monohydrochloride;Semicarbazide, thio-, monohydrochloride;Thiosemicarbazide hydrochloride;Thiosemicarbazide monohydrochloride",
    "duplicated_cas_no": "",
    "SMILES": "C(NN)(N)=S.Cl",
    "meta_data": {
        "InChI": "InChI=1S/CH5N3S.ClH/c2-1(5)4-3;/h3H2,(H3,2,4,5);1H",
        "InChIKey": null,
        "Canonical SMILES": "Cl.S=C(N)NN",
        "Molecular Formula": "CH<sub>5</sub>N<sub>3</sub>S.ClH",
        "Molecular Mass": "",
        "Melting Point": "190-191 °C (decomp)"
    }
}