{
    "cas_no": "134-62-3",
    "key_name": "<em>N</em>,<em>N</em>-Diethyl-<em>m</em>-toluamide",
    "cn_name": "避蚊胺;N,N-二乙基-3-甲基苯甲酰胺;",
    "alternate_name": "Benzamide, <em>N</em>,<em>N</em>-diethyl-3-methyl-;<em>m</em>-Toluamide, <em>N</em>,<em>N</em>-diethyl-;<em>N</em>,<em>N</em>-Diethyl-3-methylbenzamide;ENT 20218;Delphene;DET;DETA;Detamide;<em>m</em>-Delphene;Metadelphene;3-Methyl-<em>N</em>,<em>N</em>-diethylbenzamide;Naugatuck DET;DEET;Diethyl-<em>m</em>-toluamide;<em>m</em>-Toluic acid diethylamide;ENT 22542;Diethyltoluamide;<em>m</em>-DETA;Autan;Dieltamid;Flypel;Off;AI 3-22542;Repper DET;Repudin-Special;M-Det;DET (insect repellent);Amincene C-EM;Amincene C 140;Bepper DET;<em>N</em>,<em>N</em>-Diethyl-<em>m</em>-methylbenzamide;<em>N</em>,<em>N</em>-Diethyl-<em>m</em>-tolylamide;<em>N</em>,<em>N</em>-Diethyl-<em>m</em>-toluamide;<em>N</em>,<em>N</em>-Diethyl-m-toluamide;NSC 33840;Finish MIT;Ultrathon;Sawyer Control Release Formula;Metadelfene;Amway Hour Guard;Off! Skintastic;Cutter Unscented;Sawyer Controlled-Release;Vaseline Mosquito Repellent;<em>N</em>,<em>N</em>-Diethyl-meta-toluamide;<em>N</em>,<em>N</em>-Diethyl-3-methylbenzoylamide;Ultra 30;<em>N</em>,<em>N</em>′-Diethyl-3-methylbenzamide;Off! Active;Off! FamilyCare",
    "duplicated_cas_no": "94271-03-1",
    "SMILES": "C(N(CC)CC)(=O)C1=CC(C)=CC=C1",
    "meta_data": {
        "InChI": "InChI=1S/C12H17NO/c1-4-13(5-2)12(14)11-8-6-7-10(3)9-11/h6-9H,4-5H2,1-3H3",
        "InChIKey": null,
        "Canonical SMILES": "O=C(C1=CC=CC(=C1)C)N(CC)CC",
        "Molecular Formula": "C<sub>12</sub>H<sub>17</sub>NO",
        "Molecular Mass": "191.27",
        "Boiling Point": "160 °C @ Press: 19 Torr",
        "Melting Point": "-45 °C",
        "Density": "0.996 g/cm³ @ Temp: 20 °C"
    }
}