{
    "cas_no": "601-77-4",
    "key_name": "Nitrosodiisopropylamine",
    "cn_name": "N-亚硝基二异丙胺;N-亚硝基二异丙胺N-Nitroso-di-iso-propylamine;",
    "alternate_name": "2-Propanamine, <em>N</em>-(1-methylethyl)-<em>N</em>-nitroso-;Diethylamine, 1,1′-dimethyl-<em>N</em>-nitroso-;<em>N</em>-(1-Methylethyl)-<em>N</em>-nitroso-2-propanamine;<em>N</em>-Nitrosodiisopropylamine;Diisopropylnitrosamine;Diisopropyl-<em>N</em>-nitrosamine;Nitrosodiisopropylamine;NSC 336;<em>N</em>-Nitrodiisopropylamine;DIPNA",
    "duplicated_cas_no": "",
    "SMILES": "N(C(C)C)(C(C)C)N=O",
    "meta_data": {
        "InChI": "InChI=1S/C6H14N2O/c1-5(2)8(7-9)6(3)4/h5-6H,1-4H3",
        "InChIKey": null,
        "Canonical SMILES": "O=NN(C(C)C)C(C)C",
        "Molecular Formula": "C<sub>6</sub>H<sub>14</sub>N<sub>2</sub>O",
        "Molecular Mass": "130.19",
        "Boiling Point": "194.5 °C",
        "Melting Point": "48 °C"
    }
}