{
    "cas_no": "39903-21-4",
    "key_name": "3-Oxo-29-hydroxyfriedelane",
    "cn_name": null,
    "alternate_name": "24,25,26-Trinoroleanan-3-one, 29-hydroxy-5,9,13-trimethyl-, (4β,5β,8α,9β,10α,13α,14β,20α)-;<em>D</em>:<em>A</em>-Friedooleanan-3-one, 29-hydroxy-, (20α)-;(4β,5β,8α,9β,10α,13α,14β,20α)-29-Hydroxy-5,9,13-trimethyl-24,25,26-trinoroleanan-3-one;(20α)-29-Hydroxy-<em>D</em>:<em>A</em>-friedooleanan-3-one;3-Oxo-29-hydroxyfriedelane;3(2<em>H</em>)-Picenone, eicosahydro-11-(hydroxymethyl)-4,4a,6b,8a,11,12b,14a-heptamethyl-, (4<em>R</em>,4a<em>S</em>,6a<em>S</em>,6b<em>R</em>,8a<em>S</em>,11<em>R</em>,12a<em>R</em>,12b<em>S</em>,14a<em>S</em>,14b<em>S</em>)-;29-Hydroxyfriedelan-3-one;Friedelane-3-one-29-ol;29-Hydroxyfriedelin",
    "duplicated_cas_no": "216694-51-8",
    "SMILES": "C[C@@]12[C@](C)([C@]3([C@@](C)(CC1)CC[C@](CO)(C)C3)[H])CC[C@]4(C)[C@@]2(CC[C@@]5(C)[C@]4(CCC(=O)[C@@H]5C)[H])[H]",
    "meta_data": {
        "InChI": "InChI=1S/C30H50O2/c1-20-21(32)8-9-22-27(20,4)11-10-23-28(22,5)15-17-30(7)24-18-25(2,19-31)12-13-26(24,3)14-16-29(23,30)6/h20,22-24,31H,8-19H2,1-7H3/t20-,22+,23-,24+,25+,26+,27+,28-,29+,30-/m0/s1",
        "InChIKey": null,
        "Canonical SMILES": "O=C1CCC2C(C)(CCC3C2(C)CCC4(C)C5CC(C)(CO)CCC5(C)CCC34C)C1C",
        "Molecular Formula": "C<sub>30</sub>H<sub>50</sub>O<sub>2</sub>",
        "Molecular Mass": "442.72",
        "Melting Point": "262-265 °C"
    }
}