{
    "cas_no": "32981-85-4",
    "key_name": "(2<em>R</em>,3<em>S</em>)-<em>N</em>-Benzoyl-3-phenylisoserine methyl ester",
    "cn_name": "(2R,3S)-3-苯甲酰氨基-2-羟基-3-苯基丙酸甲酯;",
    "alternate_name": "Benzenepropanoic acid, β-(benzoylamino)-α-hydroxy-, methyl ester, (α<em>R</em>,β<em>S</em>)-;Isoserine, <em>N</em>-benzoyl-3-phenyl-, methyl ester, (2<em>R</em>,3<em>S</em>)-;Benzenepropanoic acid, β-(benzoylamino)-α-hydroxy-, methyl ester, [<em>R</em>-(<em>R</em>*,<em>S</em>*)]-;(2<em>R</em>,3<em>S</em>)-<em>N</em>-Benzoyl-3-phenylisoserine methyl ester;Methyl (2<em>R</em>,3<em>S</em>)-<em>N</em>-benzoylphenylisoserinate;Methyl (-)-(2<em>R</em>,3<em>S</em>)-3-benzoylamino-2-hydroxy-3-phenylpropionate;(2<em>R</em>,3<em>S</em>)-Methyl 3-benzoylamino-2-hydroxy-3-phenylpropanoate;LKT-T 0104",
    "duplicated_cas_no": "",
    "SMILES": "[C@@H](NC(=O)C1=CC=CC=C1)([C@H](C(OC)=O)O)C2=CC=CC=C2",
    "meta_data": {
        "InChI": "InChI=1S/C17H17NO4/c1-22-17(21)15(19)14(12-8-4-2-5-9-12)18-16(20)13-10-6-3-7-11-13/h2-11,14-15,19H,1H3,(H,18,20)/t14-,15+/m0/s1",
        "InChIKey": null,
        "Canonical SMILES": "O=C(OC)C(O)C(NC(=O)C=1C=CC=CC1)C=2C=CC=CC2",
        "Molecular Formula": "C<sub>17</sub>H<sub>17</sub>NO<sub>4</sub>",
        "Molecular Mass": "299.32",
        "Melting Point": "183-185 °C"
    }
}