{
    "cas_no": "4200-92-4",
    "key_name": "Dihydro-3-octyl-2,5-furandione",
    "cn_name": "正辛基琥珀酸酐;",
    "alternate_name": "2,5-Furandione, dihydro-3-octyl-;Succinic anhydride, octyl-;Dihydro-3-octyl-2,5-furandione;<em>n</em>-Octylsuccinic anhydride;Octylsuccinic anhydride;2-Octylsuccinic anhydride;α-Octylsuccinic anhydride;3-Octyldihydro-2,5-furandione;NSC 77114;3-Octyloxolane-2,5-dione",
    "duplicated_cas_no": "",
    "SMILES": "C(CCCCCCC)C1CC(=O)OC1=O",
    "meta_data": {
        "InChI": "InChI=1S/C12H20O3/c1-2-3-4-5-6-7-8-10-9-11(13)15-12(10)14/h10H,2-9H2,1H3",
        "InChIKey": null,
        "Canonical SMILES": "O=C1OC(=O)C(C1)CCCCCCCC",
        "Molecular Formula": "C<sub>12</sub>H<sub>20</sub>O<sub>3</sub>",
        "Molecular Mass": "212.29",
        "Melting Point": "62-64.5 °C"
    }
}