{
    "cas_no": "6280-96-2",
    "key_name": "2-Propoxyphenol",
    "cn_name": "2-丙氧基苯酚;邻丙氧基苯酚;邻羟基苯丙醚;2-羟基苯丙醚;邻苯二酚单丙基醚;",
    "alternate_name": "Phenol, 2-propoxy-;Phenol, <em>o</em>-propoxy-;2-Propoxyphenol;<em>o</em>-Propoxyphenol;Catechol monopropyl ether;<em>o</em>-(<em>n</em>-Propyloxy)phenol;NSC 6186;1-Hydroxy-2-propoxybenzene",
    "duplicated_cas_no": "",
    "SMILES": "O(CCC)C1=C(O)C=CC=C1",
    "meta_data": {
        "InChI": "InChI=1S/C9H12O2/c1-2-7-11-9-6-4-3-5-8(9)10/h3-6,10H,2,7H2,1H3",
        "InChIKey": null,
        "Canonical SMILES": "OC=1C=CC=CC1OCCC",
        "Molecular Formula": "C<sub>9</sub>H<sub>12</sub>O<sub>2</sub>",
        "Molecular Mass": "152.19",
        "Boiling Point": "227 °C",
        "Density": "1.0523 g/cm³ @ Temp: 25 °C"
    }
}