{
    "cas_no": "23851-84-5",
    "key_name": "3-Quinolinecarboxylic acid, 4-hydroxy-8-(trifluoromethyl)-, ethyl ester",
    "cn_name": null,
    "alternate_name": "3-Quinolinecarboxylic acid, 4-hydroxy-8-(trifluoromethyl)-, ethyl ester;Ethyl 4-hydroxy-8-(trifluoromethyl)-3-quinolinecarboxylate;NSC 103777;4-Hydroxy-8-(trifluoromethyl)-3-quinolinecarboxylic Acid Ethyl Ester",
    "duplicated_cas_no": "",
    "SMILES": "C(F)(F)(F)C=1C2=C(C(O)=C(C(OCC)=O)C=N2)C=CC1",
    "meta_data": {
        "InChI": "InChI=1S/C13H10F3NO3/c1-2-20-12(19)8-6-17-10-7(11(8)18)4-3-5-9(10)13(14,15)16/h3-6H,2H2,1H3,(H,17,18)",
        "InChIKey": null,
        "Canonical SMILES": "O=C(OCC)C1=CN=C2C(C=CC=C2C(F)(F)F)=C1O",
        "Molecular Formula": "C<sub>13</sub>H<sub>10</sub>F<sub>3</sub>NO<sub>3</sub>",
        "Molecular Mass": "285.22",
        "Melting Point": "216 °C"
    }
}