{
    "cas_no": "1480-19-9",
    "key_name": "Fluanisone",
    "cn_name": "氟苯丙酮哌嗪;氟苯丙酮哌嗪;",
    "alternate_name": "1-Butanone, 1-(4-fluorophenyl)-4-[4-(2-methoxyphenyl)-1-piperazinyl]-;Butyrophenone, 4′-fluoro-4-[4-(<em>o</em>-methoxyphenyl)-1-piperazinyl]-;1-(4-Fluorophenyl)-4-[4-(2-methoxyphenyl)-1-piperazinyl]-1-butanone;R 2028;R 2167;Fluanisone;4′-Fluoro-4-[4-(<em>o</em>-methoxyphenyl)-1-piperazinyl]butyrophenone;Haloanisone;4-[4-(<em>o</em>-Methoxyphenyl)-1-piperazinyl]-<em>p</em>-fluorobutyrophenone;Sedalande;Fluanison;<em>p</em>-Fluoro-γ-[4-(<em>o</em>-methoxyphenyl)-1-piperazinyl]butyrophenone;γ-(4-<em>o</em>-Methoxyphenylpiperazino)-4-fluorobutyrophenone;Anti-Pica;Haloanison;2028 MD;MD 2028;NSC 170977",
    "duplicated_cas_no": "",
    "SMILES": "O(C)C1=C(C=CC=C1)N2CCN(CCCC(=O)C3=CC=C(F)C=C3)CC2",
    "meta_data": {
        "InChI": "InChI=1S/C21H25FN2O2/c1-26-21-7-3-2-5-19(21)24-15-13-23(14-16-24)12-4-6-20(25)17-8-10-18(22)11-9-17/h2-3,5,7-11H,4,6,12-16H2,1H3",
        "InChIKey": null,
        "Canonical SMILES": "O=C(C1=CC=C(F)C=C1)CCCN2CCN(C=3C=CC=CC3OC)CC2",
        "Molecular Formula": "C<sub>21</sub>H<sub>25</sub>FN<sub>2</sub>O<sub>2</sub>",
        "Molecular Mass": "356.43",
        "Melting Point": "68 °C"
    }
}