{
    "cas_no": "98-73-7",
    "key_name": "4-<em>tert</em>-Butylbenzoic acid",
    "cn_name": "对叔丁基苯甲酸;",
    "alternate_name": "Benzoic acid, 4-(1,1-dimethylethyl)-;Benzoic acid, <em>p</em>-<em>tert</em>-butyl-;4-(1,1-Dimethylethyl)benzoic acid;4-<em>tert</em>-Butylbenzoic acid;<em>p</em>-<em>tert</em>-Butylbenzoic acid;<em>p</em>-<em>t</em>-Butylbenzoic acid;<em>p</em>-<em>tert</em>-Butylphenylcarboxylic acid;NSC 4802;4-<em>t</em>-Butylbenzoic acid;4-Tertiary-butylbenzoic acid",
    "duplicated_cas_no": "2764684-55-9",
    "SMILES": "C(C)(C)(C)C1=CC=C(C(O)=O)C=C1",
    "meta_data": {
        "InChI": "InChI=1S/C11H14O2/c1-11(2,3)9-6-4-8(5-7-9)10(12)13/h4-7H,1-3H3,(H,12,13)",
        "InChIKey": null,
        "Canonical SMILES": "O=C(O)C1=CC=C(C=C1)C(C)(C)C",
        "Molecular Formula": "C<sub>11</sub>H<sub>14</sub>O<sub>2</sub>",
        "Molecular Mass": "178.23",
        "Melting Point": "164.5-165.5 °C"
    }
}