{
    "cas_no": "524-96-9",
    "key_name": "<em>N</em>-[Bis(4-methoxyphenyl)methylene]benzenemethanamine",
    "cn_name": "苄基亚氨基二(4-甲氧基苯基)甲烷;",
    "alternate_name": "Benzenemethanamine, <em>N</em>-[bis(4-methoxyphenyl)methylene]-;Benzylamine, <em>N</em>-[bis(<em>p</em>-methoxyphenyl)methylene]-;<em>N</em>-[Bis(4-methoxyphenyl)methylene]benzenemethanamine;Benzylimidobis(<em>p</em>-methoxyphenyl)methane;Benzylimidodi(4-methoxyphenyl)methane;Schoenberg's reagent;Schonberg's reagent;NSC 32182",
    "duplicated_cas_no": "84731-59-9",
    "SMILES": "C(=NCC1=CC=CC=C1)(C2=CC=C(OC)C=C2)C3=CC=C(OC)C=C3",
    "meta_data": {
        "InChI": "InChI=1S/C22H21NO2/c1-24-20-12-8-18(9-13-20)22(19-10-14-21(25-2)15-11-19)23-16-17-6-4-3-5-7-17/h3-15H,16H2,1-2H3",
        "InChIKey": null,
        "Canonical SMILES": "N(=C(C1=CC=C(OC)C=C1)C2=CC=C(OC)C=C2)CC=3C=CC=CC3",
        "Molecular Formula": "C<sub>22</sub>H<sub>21</sub>NO<sub>2</sub>",
        "Molecular Mass": "331.41",
        "Melting Point": "90 °C"
    }
}