{
    "cas_no": "811-98-3",
    "key_name": "Methanol-<em>d</em><sub>4</sub>",
    "cn_name": "甲醇-d4;氘代甲醇;",
    "alternate_name": "Methan-<em>d</em><sub>3</sub>-ol-<em>d</em>;Methanol-<em>d</em><sub>4</sub>;Perdeuteriomethanol;Tetradeuteromethanol;Perdeuterated methanol;Perdeuteromethanol;Methyl-<em>d</em><sub>3</sub> alcohol-<em>d</em>;Tetradeuteriomethanol;Perdeuterated methyl alcohol;Methyl hydroxide (CD<sub>3</sub>OD)",
    "duplicated_cas_no": "",
    "SMILES": "C(O[2H])([2H])([2H])[2H]",
    "meta_data": {
        "InChI": "InChI=1S/CH4O/c1-2/h2H,1H3/i1D3,2D",
        "InChIKey": null,
        "Canonical SMILES": "OC",
        "Molecular Formula": "CD<sub>4</sub>O",
        "Molecular Mass": "",
        "Boiling Point": "65.3-65.6 °C"
    }
}