{
    "cas_no": "18717-73-2",
    "key_name": "<em>N</em>-Benzylnortropine",
    "cn_name": null,
    "alternate_name": "8-Azabicyclo[3.2.1]octan-3-ol, 8-(phenylmethyl)-, (3-<em>endo</em>)-;1α<span class=\"text-smallcaps\">H</smallcap>,5α<smallcap>H</span>-Nortropan-3α-ol, 8-benzyl-;8-Azabicyclo[3.2.1]octan-3-ol, 8-(phenylmethyl)-, <em>endo</em>-;Nortropine, 8-benzyl-;(3-<em>endo</em>)-8-(Phenylmethyl)-8-azabicyclo[3.2.1]octan-3-ol;8-Benzyl-8-azabicyclo[3.2.1]octan-3α-ol;<em>N</em>-Benzylnortropine;<em>endo</em>-8-Benzyl-8-azabicyclo[3.2.1]octan-3-ol",
    "duplicated_cas_no": "2489230-83-1",
    "SMILES": "C(N1[C@]2(C[C@H](O)C[C@@]1(CC2)[H])[H])C3=CC=CC=C3",
    "meta_data": {
        "InChI": "InChI=1/C14H19NO/c16-14-8-12-6-7-13(9-14)15(12)10-11-4-2-1-3-5-11/h1-5,12-14,16H,6-10H2/t12-,13+,14+",
        "InChIKey": null,
        "Canonical SMILES": "OC1CC2N(CC=3C=CC=CC3)C(CC2)C1",
        "Molecular Formula": "C<sub>14</sub>H<sub>19</sub>NO",
        "Molecular Mass": "217.31",
        "Melting Point": "90 °C"
    }
}