{
    "cas_no": "6139-83-9",
    "key_name": "4-Chlorobutyraldehyde diethyl acetal",
    "cn_name": "4-氯丁醛缩二乙醇;",
    "alternate_name": "Butane, 4-chloro-1,1-diethoxy-;Butyraldehyde, 4-chloro-, diethyl acetal;4-Chloro-1,1-diethoxybutane;4-Chlorobutyraldehyde diethyl acetal;γ-Chlorobutyraldehyde diethyl acetal;4-Chlorobutanal diethyl acetal;NSC 96467",
    "duplicated_cas_no": "",
    "SMILES": "C(CCCCl)(OCC)OCC",
    "meta_data": {
        "InChI": "InChI=1S/C8H17ClO2/c1-3-10-8(11-4-2)6-5-7-9/h8H,3-7H2,1-2H3",
        "InChIKey": null,
        "Canonical SMILES": "ClCCCC(OCC)OCC",
        "Molecular Formula": "C<sub>8</sub>H<sub>17</sub>ClO<sub>2</sub>",
        "Molecular Mass": "180.67",
        "Boiling Point": "89-92 °C @ Press: 14 Torr"
    }
}