{
    "cas_no": "11024-24-1",
    "key_name": "Digitonin",
    "cn_name": "毛地黄皂苷;",
    "alternate_name": "β-<span class=\"text-smallcaps\">D</smallcap>-Galactopyranoside, (2α,3β,5α,15β,25<em>R</em>)-2,15-dihydroxyspirostan-3-yl <em>O</em>-β-<smallcap>D</smallcap>-glucopyranosyl-(1→3)-<em>O</em>-β-<smallcap>D</smallcap>-galactopyranosyl-(1→2)-<em>O</em>-[β-<smallcap>D</smallcap>-xylopyranosyl-(1→3)]-<em>O</em>-β-<smallcap>D</span>-glucopyranosyl-(1→4)-;Digitonin;Digitogenin, 3-[<em>O</em>-β-<span class=\"text-smallcaps\">D</smallcap>-glucopyranosyl-(1→3)-<em>O</em>-β-<smallcap>D</smallcap>-galactopyranosyl-(1→2)-<em>O</em>-[β-<smallcap>D</smallcap>-xylopyranosyl-(1→3)]-<em>O</em>-β-<smallcap>D</smallcap>-glucopyranosyl-(1→4)-β-<smallcap>D</span>-galactopyranoside];Spirostan, β-<span class=\"text-smallcaps\">D</span>-galactopyranoside deriv.;Spiro[8<em>H</em>-naphth[2′,1′:4,5]indeno[2,1-<em>b</em>]furan-8,2′-[2<em>H</em>]pyran], β-<span class=\"text-smallcaps\">D</span>-galactopyranoside deriv.;(2α,3β,5α,15β,25<em>R</em>)-2,15-Dihydroxyspirostan-3-yl <em>O</em>-β-<span class=\"text-smallcaps\">D</smallcap>-glucopyranosyl-(1→3)-<em>O</em>-β-<smallcap>D</smallcap>-galactopyranosyl-(1→2)-<em>O</em>-[β-<smallcap>D</smallcap>-xylopyranosyl-(1→3)]-<em>O</em>-β-<smallcap>D</smallcap>-glucopyranosyl-(1→4)-β-<smallcap>D</span>-galactopyranoside;Digitin;NSC 23471;NSC 237417;MeSH ID: D004072",
    "duplicated_cas_no": "35-62-1;52781-76-7",
    "SMILES": "C[C@@]12[C@@]3([C@]([C@@H](O)[C@]1([C@]4([C@](CC2)([C@]5(C)[C@@](CC4)(C[C@@H](O[C@@H]6O[C@H](CO)[C@H](O[C@H]7[C@H](O[C@H]8[C@H](O)[C@@H](O[C@@H]9O[C@H](CO)[C@@H](O)[C@H](O)[C@H]9O)[C@@H](O)[C@@H](CO)O8)[C@@H](O[C@H]%10[C@H](O)[C@@H](O)[C@H](O)CO%10)[C@H](O)[C@@H](CO)O7)[C@H](O)[C@H]6O)[C@H](O)C5)[H])[H])[H])[H])(O[C@@]%11([C@H]3C)CC[C@@H](C)CO%11)[H])[H]",
    "meta_data": {
        "InChI": "InChI=1S/C56H92O29/c1-19-7-10-56(75-17-19)20(2)31-45(85-56)37(67)32-22-6-5-21-11-26(24(61)12-55(21,4)23(22)8-9-54(31,32)3)76-50-42(72)39(69)44(30(16-60)80-50)81-53-48(47(36(66)29(15-59)79-53)83-49-40(70)33(63)25(62)18-74-49)84-52-43(73)46(35(65)28(14-58)78-52)82-51-41(71)38(68)34(64)27(13-57)77-51/h19-53,57-73H,5-18H2,1-4H3/t19-,20+,21+,22-,23+,24-,25-,26-,27-,28-,29-,30-,31+,32-,33+,34-,35+,36-,37+,38+,39-,40-,41-,42-,43-,44+,45-,46+,47+,48-,49+,50-,51+,52+,53+,54-,55+,56-/m1/s1",
        "InChIKey": null,
        "Canonical SMILES": "OCC1OC(OC2C(O)C(OC(CO)C2O)OC3C(OC(CO)C(O)C3OC4OCC(O)C(O)C4O)OC5C(O)C(O)C(OC6CC7CCC8C(CCC9(C)C8C(O)C%10OC%11(OCC(C)CC%11)C(C)C%109)C7(C)CC6O)OC5CO)C(O)C(O)C1O",
        "Molecular Formula": "C<sub>56</sub>H<sub>92</sub>O<sub>29</sub>",
        "Molecular Mass": "1229.31",
        "Melting Point": "215 °C"
    }
}