{
    "cas_no": "40473-07-2",
    "key_name": "2-Bromo-6-methoxypyridine",
    "cn_name": "2-溴-6-甲氧基吡啶;",
    "alternate_name": "Pyridine, 2-bromo-6-methoxy-;2-Bromo-6-methoxypyridine;2-Methoxy-6-bromopyridine;6-Bromo-2-methoxypyridine;NSC 84173;2-Bromo-6-(methyloxy)pyridine",
    "duplicated_cas_no": "",
    "SMILES": "O(C)C=1N=C(Br)C=CC1",
    "meta_data": {
        "InChI": "InChI=1S/C6H6BrNO/c1-9-6-4-2-3-5(7)8-6/h2-4H,1H3",
        "InChIKey": null,
        "Canonical SMILES": "BrC=1N=C(OC)C=CC1",
        "Molecular Formula": "C<sub>6</sub>H<sub>6</sub>BrNO",
        "Molecular Mass": "188.02",
        "Boiling Point": "87-91 °C @ Press: 15 Torr"
    }
}