{
    "cas_no": "332-48-9",
    "key_name": "1-(2-Bromoethoxy)-4-fluorobenzene",
    "cn_name": null,
    "alternate_name": "Benzene, 1-(2-bromoethoxy)-4-fluoro-;Phenetole, β-bromo-<em>p</em>-fluoro-;1-(2-Bromoethoxy)-4-fluorobenzene;β-Bromo-<em>p</em>-fluorophenetole;2-(4-Fluorophenoxy)ethyl bromide;1-Bromo-2-(4-fluorophenoxy)ethane",
    "duplicated_cas_no": "",
    "SMILES": "O(CCBr)C1=CC=C(F)C=C1",
    "meta_data": {
        "InChI": "InChI=1S/C8H8BrFO/c9-5-6-11-8-3-1-7(10)2-4-8/h1-4H,5-6H2",
        "InChIKey": null,
        "Canonical SMILES": "FC1=CC=C(OCCBr)C=C1",
        "Molecular Formula": "C<sub>8</sub>H<sub>8</sub>BrFO",
        "Molecular Mass": "219.05",
        "Boiling Point": "123 °C @ Press: 16 Torr",
        "Melting Point": "58-60 °C"
    }
}