{
    "cas_no": "6683-19-8",
    "key_name": "Antioxidant 1010",
    "cn_name": "四(3,5-二叔丁基-4-羟基)苯丙酸季戊四醇酯;抗氧剂1010;",
    "alternate_name": "Benzenepropanoic acid, 3,5-bis(1,1-dimethylethyl)-4-hydroxy-, 1,1′-[2,2-bis[[3-[3,5-bis(1,1-dimethylethyl)-4-hydroxyphenyl]-1-oxopropoxy]methyl]-1,3-propanediyl] ester;Hydrocinnamic acid, 3,5-di-<em>tert</em>-butyl-4-hydroxy-, neopentanetetrayl ester;Benzenepropanoic acid, 3,5-bis(1,1-dimethylethyl)-4-hydroxy-, 2,2-bis[[3-[3,5-bis(1,1-dimethylethyl)-4-hydroxyphenyl]-1-oxopropoxy]methyl]-1,3-propanediyl ester;Hydrocinnamic acid, 3,5-di-<em>tert</em>-butyl-4-hydroxy-, tetraester with pentaerythritol;Pentaerythritol, tetrakis(3,5-di-<em>tert</em>-butyl-4-hydroxyhydrocinnamate);Tetrakis[methylene(3,5-di-<em>tert</em>-butyl-4-hydroxyhydrocinnamate)]methane;Pentaerythritol tetrakis[3-(3,5-di-<em>tert</em>-butyl-4-hydroxyphenyl)propionate];Pentaerythrityl tetrakis[β-(4-hydroxy-3,5-di-<em>tert</em>-butylphenyl)propionate];Pentaerythritol 4-hydroxy-3,5-di-<em>tert</em>-butylphenylpropionate;Pentaerythritol tetrakis[β-(4-hydroxy-3,5-di-<em>tert</em>-butylphenyl)propionate];Pentaerythritol tetrakis[(3,5-di-<em>tert</em>-butyl-4-hydroxyphenyl)propionate];Tetrakis[3-(3,5-di-<em>tert</em>-butyl-4-hydroxyphenyl)propionyloxymethyl]methane;Pentaerythritol tetrakis[3-(4-hydroxy-3,5-di-<em>tert</em>-butylphenyl)propionate];Pentaerythritol 3-(4-hydroxy-3,5-di-<em>tert</em>-butylphenyl)propionate (1:4);Tetrakis(3,5-di-<em>tert</em>-butyl-4-hydroxyhydrocinnamoyloxymethyl)methane;Tetrakis[3-(4-hydroxy-3,5-di-<em>tert</em>-butylphenyl)propionyloxymethyl]methane;Pentaerythritol tetrakis(4-hydroxy-3,5-di-<em>tert</em>-butyl)hydrocinnamate;Pentaerythrityl tetra-β-(3,5-di-<em>tert</em>-butyl-4-hydroxyphenyl) propionate;Pentaerythritol tetrakis[β-(3,5-di-<em>tert</em>-butyl-4-hydroxyphenyl)propionate];Pentaerythrityl β-(3,5-di-<em>tert</em>-butyl-4-hydroxyphenyl)propionate;Carbyltetramethylene tetrakis(3,5-di-<em>tert</em>-butyl-4-hydroxyhydrocinnamate);IRG 1010;Neopentanetetrayl 3,5-di-<em>tert</em>-butyl-4-hydroxyhydrocinnamate;Tetrakis[methylene-3-(3′,5′-di-<em>tert</em>-butyl-4′-hydroxyphenyl)propionato]methane;Tetraalkofen BPE;Tetrakis[[[β-(3,5-di-<em>tert</em>-butyl-4-hydroxyphenyl)propionyl]oxy]methyl]methane;Fenozan 22;Pentaerythritol tetrakis ester with 3-(3,5-di-<em>tert</em>-butyl-4-hydroxyphenyl)propionic acid;Irganox 1040;Fenozan 23;Phenosane 23;RA 1010;Pentaerythrityl tetrakis(4-hydroxy-3,5-di-<em>tert</em>-butylphenylpropionate);Pentaerythritol tetrakis[3-(3,5-di-<em>tert</em>-butyl-4-hydroxyphenyl)propanoate];Mark AO 60;Anox 20;Naugard 10;Pentaerythrityl tetrakis[3-(3,5-di-<em>tert</em>-butyl-4-hydroxyphenyl)propionate];Pentaerythrityl tetrakis[3-(3′,5′-di-<em>tert</em>-butyl-4′-hydroxyphenyl)propionate];Irganox 1010FF;Irganox 1010FP;BP 101;Sumilizer BP 101;Pentaerythrityl tetrakis(3,5-di-<em>tert</em>-butyl-4-hydroxy-phenyl)propionate;Ralox 630;Anox 20AM;AO 1;ADK Stab AO 60;AO 60;Pentaerytrityl tetrakis(3,5-di-<em>tert</em>-butyl-4-hydroxyphenyl)propionate;Tetrakis[methylene-3-(3,5-di-<em>tert</em>-butyl-4-hydroxyphenyl)propionato]methane;Tetrakis[methylene-3-(3′,5′-di-<em>tert</em>-butyl-4′-hydroxyphenyl)propionate]methane;Dovernox 10;IR 1010;Tetrakis[methylene-3-(3,5-di-<em>tert</em>-butyl-4-hydroxyphenyl)propionate]methane;Hostanox O 10;Antioxidant 1010;KY 7910;Tominox TT;Pentaerythritol tetra[3-(3′,5′-di-<em>tert</em>-butyl-4′-hydroxyphenyl)propanoate];Tominox TT 50;AO 1010;Ultranox 210;Irganox RA 1010;Tetrakis(hydroxymethyl)methane tetrakis[β-{3,5-di(<em>tert</em>-butyl)-4-hydroxyphenyl}propionate];Cyanox 2110;Arenox A 10;IX 1010;Chinox 1010;A 1010;A 1010 (antioxidant);Iruga 1010;Stabiace PH 1010;PH 1010;Irganox 1010;Irganox 101;Pentaerythritol tetrakis[β-(3,5-di-tert-butyl-4-hydroxyphenyl)propanoate];Songnox 1010;AT 10;AT 10 (antioxidant);Evernox 10;Tetrakis[methylene-3-(3′,5′-di-<em>tert</em>-butyl-4-hydroxyphenyl)propionate]methane;Irganox 1066;BC 1010;Quantox 1010;Longnox 10;Pentaerythritol tetrakis(3,5-<em>tert</em>-butyl-4-hydroxyhydrocinnamate);Tinogard TT;Pentaerythritol tetra[β-(3′,5′-di-<em>tert</em>-butyl-4′-hydroxyphenyl)propionate];TTHP;Irganox L 101;Antiox 10;Fero NF 130;NF 130;Ethanox 310;JY 1010;Richnox 1010;Sonox 1010;Chemnox 1010;S 1010;KY 1010;Antioxidant 7910;Evernox 1010;X 001;A 60;Pentaerythritol tetra [β-(3,5-di-<em>tert</em>-butyl-4-hydroxyphenyl)propionate];I 1010;Thanox 1010;TEX 44;SK 1010;ADK-AO 60;L 101;Heat Stabilizer 1010;Tetrakis[methylene(3,5-di-<em>tert</em>-butyl-4-hydroxyhydrocinnamoyloxy)methane;Pentaerythritol tetrakis[3-[3,5-bis(1,1-dimethylethyl)-4-hydroxyphenyl]]propionate;Tetra[β-(3,5-di-<em>tert</em>-butyl-4-hydroxyphenyl)propionate]pentaerythritol;AT 1010;Tetrakis[β-(3,5-di-<em>tert</em>-butyl-4-hydroxyphenyl)propionic acid]pentaerythritol ester;Pentaerythritol tetrakis (3-(3′,5′-di-<em>t</em>ert-butyl-4-hydroxyphenyl)propionate);Pentaerythritol tetrakis(3,5-di-tert-butyl-4-hydroxyhydrocinnamate);Jyanox 1010;Pentaerythritol tetrakis[β-(3,5-di-<em>tert</em>-butyl-4-hydroxyphenyl)propanoate;ADK Stab AO 60P;BASF 1010;Tetrakis(β-(3,5-<em>tert</em>-butyl-4-hydroxyphenyl)propionic acid)pentaerythritol ester;2,2-Bis(((3-(3,5-di-tert-butyl-4-hydroxyphenyl)propanoyl)oxy)methyl)propane-1,3-diyl bis(3-(3,5-di-tert-butyl-4-hydroxyphenyl)propanoate);[3-[3-(3,5-Ditert-butyl-4-hydroxyphenyl)propanoyloxy]-2,2-bis[3-(3,5-ditert-butyl-4-hydroxyphenyl)propanoyloxymethyl]propyl] 3-(3,5-ditert-butyl-4-hydroxyphenyl)propanoate;AO 18;AO 60P;Antioxidant B 1010;S 67391;Sonox 1010T;Irgafos 1010;Brad-Chem 391;Kinox 10;A 01010;Cyanox 1010;Lenox 1010;K 1010;Ionol 630;Adeka Stab AO 60P;Rianox 1010FF;BX 1010;Star B 1010;ADK Stab A 60;Rianox 1010;Pentaerythrityl tetra-di-<em>tert</em>-butyl hydroxyhydrocinnamate;KB 6 (ester);KB 6;Kinox 10G;Songanox 1010",
    "duplicated_cas_no": "5106-16-1;12634-41-2;60005-82-5;67894-72-8;68882-58-6;70695-00-0;98584-37-3;103843-13-6;127337-64-8;131611-06-8;132503-83-4;137500-49-3;145526-73-4;154508-64-2;156511-60-3;245440-68-0;502635-12-3;678997-54-1;702667-02-5;869093-09-4;913283-07-5;937248-86-7;1109089-59-9;1209496-25-2;1234384-04-3;1427306-01-1;1801141-34-3;2042682-13-1;2091249-41-9;2135747-59-8;2169243-97-2;2179083-74-8;2231695-62-6",
    "SMILES": "C(COC(CCC1=CC(C(C)(C)C)=C(O)C(C(C)(C)C)=C1)=O)(COC(CCC2=CC(C(C)(C)C)=C(O)C(C(C)(C)C)=C2)=O)(COC(CCC3=CC(C(C)(C)C)=C(O)C(C(C)(C)C)=C3)=O)COC(CCC4=CC(C(C)(C)C)=C(O)C(C(C)(C)C)=C4)=O",
    "meta_data": {
        "InChI": "InChI=1S/C73H108O12/c1-65(2,3)49-33-45(34-50(61(49)78)66(4,5)6)25-29-57(74)82-41-73(42-83-58(75)30-26-46-35-51(67(7,8)9)62(79)52(36-46)68(10,11)12,43-84-59(76)31-27-47-37-53(69(13,14)15)63(80)54(38-47)70(16,17)18)44-85-60(77)32-28-48-39-55(71(19,20)21)64(81)56(40-48)72(22,23)24/h33-40,78-81H,25-32,41-44H2,1-24H3",
        "InChIKey": null,
        "Canonical SMILES": "O=C(OCC(COC(=O)CCC=1C=C(C(O)=C(C1)C(C)(C)C)C(C)(C)C)(COC(=O)CCC=2C=C(C(O)=C(C2)C(C)(C)C)C(C)(C)C)COC(=O)CCC=3C=C(C(O)=C(C3)C(C)(C)C)C(C)(C)C)CCC=4C=C(C(O)=C(C4)C(C)(C)C)C(C)(C)C",
        "Molecular Formula": "C<sub>73</sub>H<sub>108</sub>O<sub>12</sub>",
        "Molecular Mass": "1177.63",
        "Melting Point": "119-122 °C",
        "Density": "0.57 g/cm³"
    }
}