{
    "cas_no": "120210-48-2",
    "key_name": "Tenidap",
    "cn_name": "替尼达普;5-氯-2,3-二氢-2-氧代-3-(2-噻吩羰基)-1H-吲哚-1-甲酰胺;",
    "alternate_name": "1<em>H</em>-Indole-1-carboxamide, 5-chloro-2,3-dihydro-3-(hydroxy-2-thienylmethylene)-2-oxo-, (3<em>Z</em>)-;1<em>H</em>-Indole-1-carboxamide, 5-chloro-2,3-dihydro-3-(hydroxy-2-thienylmethylene)-2-oxo-, (<em>Z</em>)-;(3<em>Z</em>)-5-Chloro-2,3-dihydro-3-(hydroxy-2-thienylmethylene)-2-oxo-1<em>H</em>-indole-1-carboxamide;CP 66248;Tenidap",
    "duplicated_cas_no": "",
    "SMILES": "C(\\O)(=C\\1/C=2C(N(C(N)=O)C1=O)=CC=C(Cl)C2)/C3=CC=CS3",
    "meta_data": {
        "InChI": "InChI=1S/C14H9ClN2O3S/c15-7-3-4-9-8(6-7)11(13(19)17(9)14(16)20)12(18)10-2-1-5-21-10/h1-6,18H,(H2,16,20)/b12-11-",
        "InChIKey": null,
        "Canonical SMILES": "O=C(N)N1C(=O)C(=C(O)C=2SC=CC2)C3=CC(Cl)=CC=C31",
        "Molecular Formula": "C<sub>14</sub>H<sub>9</sub>ClN<sub>2</sub>O<sub>3</sub>S",
        "Molecular Mass": "320.75",
        "Melting Point": "230 °C (decomp)"
    }
}