{
    "cas_no": "527-09-3",
    "key_name": "Bis(<span class=\"text-smallcaps\">D</span>-gluconato-κ<em>O</em><sup>1</sup>,κ<em>O</em><sup>2</sup>)copper",
    "cn_name": "葡萄糖酸铜;",
    "alternate_name": "Copper, bis(<span class=\"text-smallcaps\">D</span>-gluconato-κ<em>O</em><sup>1</sup>,κ<em>O</em><sup>2</sup>)-;Gluconic acid, copper(2+) salt (2:1), <span class=\"text-smallcaps\">D</span>-;Copper, bis(<span class=\"text-smallcaps\">D</span>-gluconato-<em>O</em><sup>1</sup>,<em>O</em><sup>2</sup>)-;<span class=\"text-smallcaps\">D</span>-Gluconic acid, copper complex;Bis(<span class=\"text-smallcaps\">D</span>-gluconato-κ<em>O</em><sup>1</sup>,κ<em>O</em><sup>2</sup>)copper;Cupric gluconate;Gluconic acid, copper(2+) salt;<span class=\"text-smallcaps\">D</span>-Gluconic acid, copper(2+) salt;Copper(II) gluconate;Helshas Cu;Labicuper",
    "duplicated_cas_no": "115841-02-6;6020-31-1;79366-36-2;92266-74-5",
    "SMILES": "[C@@H]([C@@H]([C@@H](CO)O)O)(O)[C@]1([OH][Cu+2]2([OH][C@]([C@H]([C@@H]([C@@H](CO)O)O)O)(C(=O)[O-]2)[H])[O-]C1=O)[H]",
    "meta_data": {
        "InChI": "InChI=1S/2C6H12O7.Cu/c2*7-1-2(8)3(9)4(10)5(11)6(12)13;/h2*2-5,7-11H,1H2,(H,12,13);/q;;+2/p-2/t2*2-,3-,4+,5-;/m11./s1",
        "InChIKey": null,
        "Canonical SMILES": "O=C1[O-][Cu+2]2([O-]C(=O)C([OH]2)C(O)C(O)C(O)CO)[OH]C1C(O)C(O)C(O)CO",
        "Molecular Formula": "C<sub>12</sub>H<sub>22</sub>CuO<sub>14</sub>",
        "Molecular Mass": "",
        "Melting Point": "155-157 °C"
    }
}