{
    "cas_no": "841-32-7",
    "key_name": "α-Phenyl-α-propylbenzeneacetic acid",
    "cn_name": null,
    "alternate_name": "Benzeneacetic acid, α-phenyl-α-propyl-;Valeric acid, 2,2-diphenyl-;α-Phenyl-α-propylbenzeneacetic acid;SKF 2314;Diphenylpropylacetic acid;2,2-Diphenylpentanoic acid;2,2-Diphenylvaleric acid;NSC 88046",
    "duplicated_cas_no": "",
    "SMILES": "C(CCC)(C(O)=O)(C1=CC=CC=C1)C2=CC=CC=C2",
    "meta_data": {
        "InChI": "InChI=1S/C17H18O2/c1-2-13-17(16(18)19,14-9-5-3-6-10-14)15-11-7-4-8-12-15/h3-12H,2,13H2,1H3,(H,18,19)",
        "InChIKey": null,
        "Canonical SMILES": "O=C(O)C(C=1C=CC=CC1)(C=2C=CC=CC2)CCC",
        "Molecular Formula": "C<sub>17</sub>H<sub>18</sub>O<sub>2</sub>",
        "Molecular Mass": "254.32",
        "Melting Point": "155.5 °C"
    }
}