{
    "cas_no": "25194-52-9",
    "key_name": "6-Bromo-2-pyridinecarboxamide",
    "cn_name": null,
    "alternate_name": "2-Pyridinecarboxamide, 6-bromo-;Picolinamide, 6-bromo-;6-Bromo-2-pyridinecarboxamide;6-Bromopicolinamide",
    "duplicated_cas_no": "",
    "SMILES": "C(N)(=O)C=1N=C(Br)C=CC1",
    "meta_data": {
        "InChI": "InChI=1S/C6H5BrN2O/c7-5-3-1-2-4(9-5)6(8)10/h1-3H,(H2,8,10)",
        "InChIKey": null,
        "Canonical SMILES": "O=C(N)C1=NC(Br)=CC=C1",
        "Molecular Formula": "C<sub>6</sub>H<sub>5</sub>BrN<sub>2</sub>O",
        "Molecular Mass": "201.02",
        "Melting Point": "122-124 °C"
    }
}