{
    "cas_no": "133481-09-1",
    "key_name": "1-Cyanocyclohexaneacetic acid",
    "cn_name": "1-氰基环己烷乙酸;",
    "alternate_name": "Cyclohexaneacetic acid, 1-cyano-;1-Cyanocyclohexaneacetic acid;(1-Cyanocyclohexyl)acetic acid;2-(1-Cyanocyclohexyl)acetic acid",
    "duplicated_cas_no": "",
    "SMILES": "C(C(O)=O)C1(C#N)CCCCC1",
    "meta_data": {
        "InChI": "InChI=1S/C9H13NO2/c10-7-9(6-8(11)12)4-2-1-3-5-9/h1-6H2,(H,11,12)",
        "InChIKey": null,
        "Canonical SMILES": "N#CC1(CC(=O)O)CCCCC1",
        "Molecular Formula": "C<sub>9</sub>H<sub>13</sub>NO<sub>2</sub>",
        "Molecular Mass": "167.21",
        "Melting Point": "103-105 °C"
    }
}