{
    "cas_no": "1121-24-0",
    "key_name": "2-Mercaptophenol",
    "cn_name": "2-羟基苯硫酚;2-羟基硫代苯酚;",
    "alternate_name": "Phenol, 2-mercapto-;Phenol, <em>o</em>-mercapto-;2-Mercaptophenol;<em>o</em>-Mercaptophenol;2-Hydroxythiophenol;2-Hydroxybenzenethiol;<em>o</em>-Hydroxybenzenethiol;<em>o</em>-Hydroxythiophenol;2-Sulfanylphenol",
    "duplicated_cas_no": "",
    "SMILES": "OC1=C(S)C=CC=C1",
    "meta_data": {
        "InChI": "InChI=1S/C6H6OS/c7-5-3-1-2-4-6(5)8/h1-4,7-8H",
        "InChIKey": null,
        "Canonical SMILES": "OC=1C=CC=CC1S",
        "Molecular Formula": "C<sub>6</sub>H<sub>6</sub>OS",
        "Molecular Mass": "126.18",
        "Boiling Point": "217 °C",
        "Melting Point": "5.5 °C"
    }
}