{
    "cas_no": "1314-85-8",
    "key_name": "3,5,7-Trithia-1,2,4,6-tetraphosphatricyclo[2.2.1.0<sup>2,6</sup>]heptane",
    "cn_name": null,
    "alternate_name": "3,5,7-Trithia-1,2,4,6-tetraphosphatricyclo[2.2.1.0<sup>2,6</sup>]heptane;Phosphorus sulfide (P<sub>4</sub>S<sub>3</sub>);Phosphorus sesquisulfide;Tetraphosphorus trisulfide;Trisulfurated phosphorus",
    "duplicated_cas_no": "15578-15-1",
    "SMILES": "P12P3P1SP(S2)S3",
    "meta_data": {
        "InChI": "InChI=1S/P4S3/c5-1-2-3(1)7-4(5)6-2",
        "InChIKey": null,
        "Canonical SMILES": "S1P2SP3P1P3S2",
        "Molecular Formula": "P<sub>4</sub>S<sub>3</sub>",
        "Molecular Mass": "220.09",
        "Boiling Point": "407.5 °C",
        "Melting Point": "172.5 °C",
        "Density": "2.03 g/cm³ @ Temp: 20 °C"
    }
}