{
    "cas_no": "447-53-0",
    "key_name": "1,2-Dihydronaphthalene",
    "cn_name": "1,2-二氢萘;",
    "alternate_name": "Naphthalene, 1,2-dihydro-;1,2-Dihydronaphthalene;1,2-Dialin;Dialin;Δ<sup>1</sup>-Dialin;NSC 28463;3,4-Dihydronaphthalene",
    "duplicated_cas_no": "",
    "SMILES": "C=12C(=CC=CC1)C=CCC2",
    "meta_data": {
        "InChI": "InChI=1S/C10H10/c1-2-6-10-8-4-3-7-9(10)5-1/h1-3,5-7H,4,8H2",
        "InChIKey": null,
        "Canonical SMILES": "C=1C=CC2=C(C1)C=CCC2",
        "Molecular Formula": "C<sub>10</sub>H<sub>10</sub>",
        "Molecular Mass": "130.19",
        "Boiling Point": "206.5 °C",
        "Melting Point": "-8 °C",
        "Density": "1.002 g/cm³ @ Temp: 25 °C"
    }
}