{
    "cas_no": "89088-56-2",
    "key_name": "5-Amino-2-methyl-2<em>H</em>-pyrazole-3-carboxylic acid methyl ester",
    "cn_name": null,
    "alternate_name": "1<em>H</em>-Pyrazole-5-carboxylic acid, 3-amino-1-methyl-, methyl ester;5-Amino-2-methyl-2<em>H</em>-pyrazole-3-carboxylic acid methyl ester;3-Amino-1-methyl-1<em>H</em>-pyrazole-5-carboxylic acid methyl ester;Methyl 3-amino-1-methyl-1<em>H</em>-pyrazole-5-carboxylate",
    "duplicated_cas_no": "",
    "SMILES": "C(OC)(=O)C1=CC(N)=NN1C",
    "meta_data": {
        "InChI": "InChI=1S/C6H9N3O2/c1-9-4(6(10)11-2)3-5(7)8-9/h3H,1-2H3,(H2,7,8)",
        "InChIKey": null,
        "Canonical SMILES": "O=C(OC)C1=CC(=NN1C)N",
        "Molecular Formula": "C<sub>6</sub>H<sub>9</sub>N<sub>3</sub>O<sub>2</sub>",
        "Molecular Mass": "155.15",
        "Melting Point": "112-113 °C"
    }
}