{
    "cas_no": "10311-84-9",
    "key_name": "Dialifos",
    "cn_name": "氯甲亚胺硫磷;氯亚磷;氯亚胺硫磷;",
    "alternate_name": "Phosphorodithioic acid, <em>S</em>-[2-chloro-1-(1,3-dihydro-1,3-dioxo-2<em>H</em>-isoindol-2-yl)ethyl] <em>O</em>,<em>O</em>-diethyl ester;Phosphorodithioic acid, <em>O</em>,<em>O</em>-diethyl ester, <em>S</em>-ester with <em>N</em>-(2-chloro-1-mercaptoethyl)phthalimide;Phthalimide, <em>N</em>-(2-chloro-1-mercaptoethyl)-, <em>S</em>-ester with <em>O</em>,<em>O</em>-diethyl phosphorodithioate;Hercules 14503;<em>S</em>-(2-Chloro-1-phthalimidoethyl) <em>O</em>,<em>O</em>-diethyl phosphorodithioate;<em>O</em>,<em>O</em>-Diethyl <em>S</em>-(2-chloro-1-phthalimidoethyl) phosphorodithioate;Torak;Dialifor;Dialiphor;Dialifos;Dialiphos",
    "duplicated_cas_no": "",
    "SMILES": "C(SP(OCC)(OCC)=S)(CCl)N1C(=O)C=2C(C1=O)=CC=CC2",
    "meta_data": {
        "InChI": "InChI=1S/C14H17ClNO4PS2/c1-3-19-21(22,20-4-2)23-12(9-15)16-13(17)10-7-5-6-8-11(10)14(16)18/h5-8,12H,3-4,9H2,1-2H3",
        "InChIKey": null,
        "Canonical SMILES": "O=C1C=2C=CC=CC2C(=O)N1C(SP(=S)(OCC)OCC)CCl",
        "Molecular Formula": "C<sub>14</sub>H<sub>17</sub>ClNO<sub>4</sub>PS<sub>2</sub>",
        "Molecular Mass": "393.85",
        "Melting Point": "68 °C"
    }
}