{
    "cas_no": "6850-22-2",
    "key_name": "2-Methyl-6-nitro-2<em>H</em>-indazole",
    "cn_name": null,
    "alternate_name": "2<em>H</em>-Indazole, 2-methyl-6-nitro-;2-Methyl-6-nitro-2<em>H</em>-indazole;2-Methyl-6-nitroindazole;NSC 131653",
    "duplicated_cas_no": "",
    "SMILES": "N(=O)(=O)C1=CC=2C(C=C1)=CN(C)N2",
    "meta_data": {
        "InChI": "InChI=1S/C8H7N3O2/c1-10-5-6-2-3-7(11(12)13)4-8(6)9-10/h2-5H,1H3",
        "InChIKey": null,
        "Canonical SMILES": "O=N(=O)C=1C=CC2=CN(N=C2C1)C",
        "Molecular Formula": "C<sub>8</sub>H<sub>7</sub>N<sub>3</sub>O<sub>2</sub>",
        "Molecular Mass": "177.16",
        "Melting Point": "158 °C"
    }
}