{
    "cas_no": "4875-10-9",
    "key_name": "2-Nitrobenzenethiol",
    "cn_name": null,
    "alternate_name": "Benzenethiol, 2-nitro-;Benzenethiol, <em>o</em>-nitro-;2-Nitrobenzenethiol;<em>o</em>-Nitrobenzenethiol;2-Nitrothiophenol;<em>o</em>-Nitrothiophenol;<em>o</em>-Mercaptonitrobenzene;2-Nitrobenzene-1-thiol",
    "duplicated_cas_no": "",
    "SMILES": "N(=O)(=O)C1=C(S)C=CC=C1",
    "meta_data": {
        "InChI": "InChI=1S/C6H5NO2S/c8-7(9)5-3-1-2-4-6(5)10/h1-4,10H",
        "InChIKey": null,
        "Canonical SMILES": "O=N(=O)C=1C=CC=CC1S",
        "Molecular Formula": "C<sub>6</sub>H<sub>5</sub>NO<sub>2</sub>S",
        "Molecular Mass": "155.17",
        "Melting Point": "56 °C"
    }
}