{
    "cas_no": "70-55-3",
    "key_name": "<em>p</em>-Toluenesulfonamide",
    "cn_name": "对甲苯磺酰胺;PTSA;",
    "alternate_name": "Benzenesulfonamide, 4-methyl-;<em>p</em>-Toluenesulfonamide;4-Methylbenzenesulfonamide;<em>p</em>-Tosylamide;<em>p</em>-Methylbenzenesulfonamide;Toluene-4-sulfonamide;<em>p</em>-Tolylsulfonamide;Tolylsulfonamide;Tosylamide;Plasticizer 15;4-Tolylsulfonamide;Uniplex 173;4-Methylphenylsulfonamide;NSC 9908;Topcizer 1S;4-Methylbenzene-1-sulfonamide;4-Methylbenzensulfonamide;GWA 101",
    "duplicated_cas_no": "",
    "SMILES": "S(N)(=O)(=O)C1=CC=C(C)C=C1",
    "meta_data": {
        "InChI": "InChI=1S/C7H9NO2S/c1-6-2-4-7(5-3-6)11(8,9)10/h2-5H,1H3,(H2,8,9,10)",
        "InChIKey": null,
        "Canonical SMILES": "O=S(=O)(N)C1=CC=C(C=C1)C",
        "Molecular Formula": "C<sub>7</sub>H<sub>9</sub>NO<sub>2</sub>S",
        "Molecular Mass": "171.22",
        "Boiling Point": "214 °C @ Press: 9.98 Torr",
        "Melting Point": "138.5 °C"
    }
}