{
    "cas_no": "21626-70-0",
    "key_name": "4-(Morpholinosulfonyl)aniline",
    "cn_name": null,
    "alternate_name": "Benzenamine, 4-(4-morpholinylsulfonyl)-;Morpholine, 4-sulfanilyl-;Morpholine, 4-[(4-aminophenyl)sulfonyl]-;4-(4-Morpholinylsulfonyl)benzenamine;Compound 82/208;4-(Morpholinosulfonyl)aniline;4-Aminophenyl morpholino sulfone;4-(4-Morpholinylsulfonyl)aniline;3-(Morpholine-4-sulfonyl)phenylamine;4-((4-Morpholine)sulfonyl)phenylamine;4-(Morpholin-4-ylsulfonyl)phenylamine;4-(4-Morpholinesulfonyl)aniline",
    "duplicated_cas_no": "",
    "SMILES": "S(=O)(=O)(C1=CC=C(N)C=C1)N2CCOCC2",
    "meta_data": {
        "InChI": "InChI=1S/C10H14N2O3S/c11-9-1-3-10(4-2-9)16(13,14)12-5-7-15-8-6-12/h1-4H,5-8,11H2",
        "InChIKey": null,
        "Canonical SMILES": "O=S(=O)(C1=CC=C(N)C=C1)N2CCOCC2",
        "Molecular Formula": "C<sub>10</sub>H<sub>14</sub>N<sub>2</sub>O<sub>3</sub>S",
        "Molecular Mass": "242.29",
        "Melting Point": "217 °C"
    }
}