{
    "cas_no": "14188-94-4",
    "key_name": "1-(1-Oxido-3-pyridinyl)ethanone",
    "cn_name": null,
    "alternate_name": "Ethanone, 1-(1-oxido-3-pyridinyl)-;Ketone, methyl 3-pyridyl, <em>N</em>-oxide;Ethanone, 1-(3-pyridinyl)-, <em>N</em>-oxide;Ketone, methyl 3-pyridyl, 1-oxide;1-(1-Oxido-3-pyridinyl)ethanone;3-Acetylpyridine 1-oxide;3-Acetylpyridine <em>N</em>-oxide;1-(1-Oxopyridin-3-yl)ethanone;1-(1-Oxidopyridin-1-ium-3-yl)ethanone;3-Acetylpyridin-1-ium-1-olate",
    "duplicated_cas_no": "",
    "SMILES": "C(C)(=O)C1=CN(=O)=CC=C1",
    "meta_data": {
        "InChI": "InChI=1S/C7H7NO2/c1-6(9)7-3-2-4-8(10)5-7/h2-5H,1H3",
        "InChIKey": null,
        "Canonical SMILES": "O=C(C1=CC=CN(=O)=C1)C",
        "Molecular Formula": "C<sub>7</sub>H<sub>7</sub>NO<sub>2</sub>",
        "Molecular Mass": "137.14",
        "Melting Point": "142 °C"
    }
}