{
    "cas_no": "351-36-0",
    "key_name": "<em>N</em>-[3-(Trifluoromethyl)phenyl]acetamide",
    "cn_name": "3-乙酰氨基三氟甲苯;",
    "alternate_name": "Acetamide, <em>N</em>-[3-(trifluoromethyl)phenyl]-;<em>m</em>-Acetotoluidide, α,α,α-trifluoro-;<em>N</em>-[3-(Trifluoromethyl)phenyl]acetamide;<em>m</em>-(Trifluoromethyl)acetanilide;3-(Trifluoromethyl)acetanilide;<em>N</em>-(α,α,α-Trifluoro-<em>m</em>-tolyl)acetamide;α,α,α-Trifluoro-<em>m</em>-acetotoluidide;<em>N</em>-Acetyl-α,α,α-trifluoro-<em>m</em>-toluidine;NSC 30581;NSC 60257;<em>N</em>-(3-Trifluoromethylphenyl)acetamide",
    "duplicated_cas_no": "",
    "SMILES": "N(C(C)=O)C1=CC(C(F)(F)F)=CC=C1",
    "meta_data": {
        "InChI": "InChI=1S/C9H8F3NO/c1-6(14)13-8-4-2-3-7(5-8)9(10,11)12/h2-5H,1H3,(H,13,14)",
        "InChIKey": null,
        "Canonical SMILES": "O=C(NC1=CC=CC(=C1)C(F)(F)F)C",
        "Molecular Formula": "C<sub>9</sub>H<sub>8</sub>F<sub>3</sub>NO",
        "Molecular Mass": "203.16",
        "Boiling Point": "185-187.5 °C",
        "Melting Point": "104.5 °C"
    }
}