{
    "cas_no": "7525-64-6",
    "key_name": "Tetrahydro-4-methyl-2<em>H</em>-pyran-4-ol",
    "cn_name": null,
    "alternate_name": "2<em>H</em>-Pyran-4-ol, tetrahydro-4-methyl-;Pyran-4-ol, tetrahydro-4-methyl-;Tetrahydro-4-methyl-2<em>H</em>-pyran-4-ol;Tetrahydro-4-hydroxy-4-methyl-2<em>H</em>-pyran;4-Methyl-4-hydroxytetrahydropyran;Tetrahydro-4-methyl-4-pyranol;4-Hydroxy-4-methyltetrahydropyran;4-Methyltetrahydropyran-4-ol;4-Methyltetrahydro-4<em>H</em>-pyran-4-ol;4-Methyltetrahydro-2<em>H</em>-pyran-4-ol",
    "duplicated_cas_no": "",
    "SMILES": "CC1(O)CCOCC1",
    "meta_data": {
        "InChI": "InChI=1S/C6H12O2/c1-6(7)2-4-8-5-3-6/h7H,2-5H2,1H3",
        "InChIKey": null,
        "Canonical SMILES": "OC1(C)CCOCC1",
        "Molecular Formula": "C<sub>6</sub>H<sub>12</sub>O<sub>2</sub>",
        "Molecular Mass": "116.16",
        "Boiling Point": "66-70 °C @ Press: 1.5 Torr",
        "Density": "1.0215 g/cm³ @ Temp: 20 °C"
    }
}