{
    "cas_no": "622-26-4",
    "key_name": "4-Piperidineethanol",
    "cn_name": "4-哌啶乙醇;",
    "alternate_name": "4-Piperidineethanol;4-(2-Hydroxyethyl)piperidine;2-(Piperidin-4-yl)-1-ethanol;NSC 93818;2-(Piperidin-4-yl)ethanol;2-(4-Piperidyl)ethanol",
    "duplicated_cas_no": "",
    "SMILES": "C(CO)C1CCNCC1",
    "meta_data": {
        "InChI": "InChI=1S/C7H15NO/c9-6-3-7-1-4-8-5-2-7/h7-9H,1-6H2",
        "InChIKey": null,
        "Canonical SMILES": "OCCC1CCNCC1",
        "Molecular Formula": "C<sub>7</sub>H<sub>15</sub>NO",
        "Molecular Mass": "129.20",
        "Boiling Point": "227.5 °C",
        "Melting Point": "132.5 °C"
    }
}