{
    "cas_no": "24964-64-5",
    "key_name": "3-Cyanobenzaldehyde",
    "cn_name": "3-氰基苯甲醛;间氰基苯甲醛;",
    "alternate_name": "Benzonitrile, 3-formyl-;Isophthalaldehydonitrile;Benzaldehyde, <em>m</em>-cyano-;3-Formylbenzonitrile;3-Cyanobenzaldehyde;<em>m</em>-Cyanobenzaldehyde",
    "duplicated_cas_no": "",
    "SMILES": "C(#N)C1=CC(C=O)=CC=C1",
    "meta_data": {
        "InChI": "InChI=1S/C8H5NO/c9-5-7-2-1-3-8(4-7)6-10/h1-4,6H",
        "InChIKey": null,
        "Canonical SMILES": "N#CC1=CC=CC(C=O)=C1",
        "Molecular Formula": "C<sub>8</sub>H<sub>5</sub>NO",
        "Molecular Mass": "131.13",
        "Boiling Point": "210 °C",
        "Melting Point": "76.5 °C"
    }
}