{
    "cas_no": "1892-22-4",
    "key_name": "3-Amino-2-piperidinone",
    "cn_name": "3-氨基-2-哌啶酮;",
    "alternate_name": "2-Piperidinone, 3-amino-;2-Piperidone, 3-amino-;3-Amino-2-piperidinone;Ornithine, <em>N</em><sup>5</sup>-lactam;3-Amino-2-piperidone",
    "duplicated_cas_no": "4077-38-7",
    "SMILES": "NC1C(=O)NCCC1",
    "meta_data": {
        "InChI": "InChI=1S/C5H10N2O/c6-4-2-1-3-7-5(4)8/h4H,1-3,6H2,(H,7,8)",
        "InChIKey": null,
        "Canonical SMILES": "O=C1NCCCC1N",
        "Molecular Formula": "C<sub>5</sub>H<sub>10</sub>N<sub>2</sub>O",
        "Molecular Mass": "114.15",
        "Boiling Point": "125-135 °C @ Press: 2-3 Torr"
    }
}