{
    "cas_no": "5932-20-7",
    "key_name": "3-Bromo-4-methyl-1<em>H</em>-pyrazole",
    "cn_name": null,
    "alternate_name": "1<em>H</em>-Pyrazole, 3-bromo-4-methyl-;Pyrazole, 3-bromo-4-methyl-;3-Bromo-4-methyl-1<em>H</em>-pyrazole",
    "duplicated_cas_no": "",
    "SMILES": "CC=1C(Br)=NNC1",
    "meta_data": {
        "InChI": "InChI=1S/C4H5BrN2/c1-3-2-6-7-4(3)5/h2H,1H3,(H,6,7)",
        "InChIKey": null,
        "Canonical SMILES": "BrC1=NNC=C1C",
        "Molecular Formula": "C<sub>4</sub>H<sub>5</sub>BrN<sub>2</sub>",
        "Molecular Mass": "161.00",
        "Melting Point": "127-128 °C"
    }
}