{
    "cas_no": "1481-41-0",
    "key_name": "3,3,3-Trifluoropropyldimethylchlorosilane",
    "cn_name": "氯二甲基-3,3,3-三氟丙基硅烷;氯二甲基-3,3,3-氟丙基硅烷;氯二甲基-3,3,3-三氟丙基硅烷;氯二甲基-3,3,3-三;",
    "alternate_name": "Silane, chlorodimethyl(3,3,3-trifluoropropyl)-;Chlorodimethyl(3,3,3-trifluoropropyl)silane;3,3,3-Trifluoropropyldimethylchlorosilane;(3,3,3-Trifluoropropyl)dimethylsilyl chloride",
    "duplicated_cas_no": "",
    "SMILES": "C(C[Si](C)(C)Cl)C(F)(F)F",
    "meta_data": {
        "InChI": "InChI=1S/C5H10ClF3Si/c1-10(2,6)4-3-5(7,8)9/h3-4H2,1-2H3",
        "InChIKey": null,
        "Canonical SMILES": "FC(F)(F)CC[Si](Cl)(C)C",
        "Molecular Formula": "C<sub>5</sub>H<sub>10</sub>ClF<sub>3</sub>Si",
        "Molecular Mass": "190.67",
        "Boiling Point": "118 °C",
        "Density": "1.113 g/cm³"
    }
}