{
    "cas_no": "2649-64-1",
    "key_name": "Clovanediol",
    "cn_name": null,
    "alternate_name": "3a,7-Methano-3a<em>H</em>-cyclopentacyclooctene-3,6-diol, decahydro-1,1,7-trimethyl-, (3<em>S</em>,3a<em>S</em>,6<em>R</em>,7<em>R</em>,9a<em>S</em>)-;Clovanediol;3a,7-Methano-3a<em>H</em>-cyclopentacyclooctene-3,6-diol, 1,2,3α,4,5,6β,7,8,9,9a-decahydro-1,1,7β-trimethyl-;3a,7-Methano-3a<em>H</em>-cyclopentacyclooctene-3,6-diol, decahydro-1,1,7-trimethyl-, [3<em>S</em>-(3α,3aβ,6β,7β,9aα)]-;(3<em>S</em>,3a<em>S</em>,6<em>R</em>,7<em>R</em>,9a<em>S</em>)-Decahydro-1,1,7-trimethyl-3a,7-methano-3a<em>H</em>-cyclopentacyclooctene-3,6-diol;2β,9α-Dihydroxyclovane;Clovane-2β,9α-diol;2β,9α-Clovanediol;(1<em>S</em>,2<em>S</em>,5<em>S</em>,8<em>R</em>,9<em>R</em>)-Clovane-2,9-diol",
    "duplicated_cas_no": "23737-02-2;907576-57-2",
    "SMILES": "O[C@@H]1[C@]23[C@](C(C)(C)C1)(CC[C@](C)(C2)[C@H](O)CC3)[H]",
    "meta_data": {
        "InChI": "InChI=1S/C15H26O2/c1-13(2)8-12(17)15-7-5-11(16)14(3,9-15)6-4-10(13)15/h10-12,16-17H,4-9H2,1-3H3/t10-,11+,12-,14+,15-/m0/s1",
        "InChIKey": null,
        "Canonical SMILES": "OC1CCC23CC1(C)CCC3C(C)(C)CC2O",
        "Molecular Formula": "C<sub>15</sub>H<sub>26</sub>O<sub>2</sub>",
        "Molecular Mass": "238.37",
        "Melting Point": "159 °C"
    }
}