{
    "cas_no": "505-52-2",
    "key_name": "Tridecanedioic acid",
    "cn_name": "十三烷二酸;巴西基酸;",
    "alternate_name": "Tridecanedioic acid;Brassylic acid;1,13-Tridecanedioic acid;1,11-Undecanedicarboxylic acid;α,ω-Tridecanedioic acid;NSC 9498;ω-Carboxylauric acid",
    "duplicated_cas_no": "1386948-32-8",
    "SMILES": "C(CC(O)=O)CCCCCCCCCC(O)=O",
    "meta_data": {
        "InChI": "InChI=1S/C13H24O4/c14-12(15)10-8-6-4-2-1-3-5-7-9-11-13(16)17/h1-11H2,(H,14,15)(H,16,17)",
        "InChIKey": null,
        "Canonical SMILES": "O=C(O)CCCCCCCCCCCC(=O)O",
        "Molecular Formula": "C<sub>13</sub>H<sub>24</sub>O<sub>4</sub>",
        "Molecular Mass": "244.33",
        "Boiling Point": "215-217 °C @ Press: 2 Torr",
        "Melting Point": "111 °C"
    }
}