{
    "cas_no": "117-10-2",
    "key_name": "1,8-Dihydroxyanthraquinone",
    "cn_name": "1,8-二羟基蒽醌;",
    "alternate_name": "9,10-Anthracenedione, 1,8-dihydroxy-;Anthraquinone, 1,8-dihydroxy-;1,8-Dihydroxy-9,10-anthracenedione;Altan;Antrapurol;Chrysazin;Danthron;Dantron;Diaquone;1,8-Dihydroxyanthraquinone;Dionone;Istin;Istizin;Dorbane;Laxipurin;Zwitsalax;Laxanorm;Laxanthreen;Laxipur;1,8-Dihydroxy-9,10-anthraquinone;1,8-Dioxyanthraquinone;Danthrone;Modane;NSC 38626;NSC 646568;NSC 7210;1,8-Dihydroxy-9,10-dihydroanthracene-9,10-dione",
    "duplicated_cas_no": "32073-07-7;343235-40-5",
    "SMILES": "O=C1C=2C(C(=O)C=3C1=C(O)C=CC3)=CC=CC2O",
    "meta_data": {
        "InChI": "InChI=1S/C14H8O4/c15-9-5-1-3-7-11(9)14(18)12-8(13(7)17)4-2-6-10(12)16/h1-6,15-16H",
        "InChIKey": null,
        "Canonical SMILES": "O=C1C=2C=CC=C(O)C2C(=O)C=3C(O)=CC=CC13",
        "Molecular Formula": "C<sub>14</sub>H<sub>8</sub>O<sub>4</sub>",
        "Molecular Mass": "240.21",
        "Melting Point": "193 °C"
    }
}