{
    "cas_no": "146256-98-6",
    "key_name": "1-(1,1-Dimethylethyl) 3-ethyl 4-oxo-1,3-pyrrolidinedicarboxylate",
    "cn_name": "N-叔丁氧羰基-4-氧代-3-吡咯烷甲酸乙酯;",
    "alternate_name": "1,3-Pyrrolidinedicarboxylic acid, 4-oxo-, 1-(1,1-dimethylethyl) 3-ethyl ester;1-(1,1-Dimethylethyl) 3-ethyl 4-oxo-1,3-pyrrolidinedicarboxylate;1-<em>tert</em>-Butyl 3-ethyl 4-oxopyrrolidine-1,3-dicarboxylate",
    "duplicated_cas_no": "",
    "SMILES": "C(OCC)(=O)C1CN(C(OC(C)(C)C)=O)CC1=O",
    "meta_data": {
        "InChI": "InChI=1S/C12H19NO5/c1-5-17-10(15)8-6-13(7-9(8)14)11(16)18-12(2,3)4/h8H,5-7H2,1-4H3",
        "InChIKey": null,
        "Canonical SMILES": "O=C(OC(C)(C)C)N1CC(=O)C(C(=O)OCC)C1",
        "Molecular Formula": "C<sub>12</sub>H<sub>19</sub>NO<sub>5</sub>",
        "Molecular Mass": "257.28",
        "Melting Point": "54 °C"
    }
}