{
    "cas_no": "550-33-4",
    "key_name": "Nebularine",
    "cn_name": null,
    "alternate_name": "9<em>H</em>-Purine, 9-β-<span class=\"text-smallcaps\">D</span>-ribofuranosyl-;Purine riboside;9-β-<span class=\"text-smallcaps\">D</span>-Ribofuranosyl-9<em>H</em>-purine;Nebularine;Ribosylpurine;9-β-<span class=\"text-smallcaps\">D</span>-Ribofuranosylpurine;NSC 65423;Isopurine, ribosyl-;Purinosine;Purine-9-β-<span class=\"text-smallcaps\">D</span>-ribofuranoside;9-β-<span class=\"text-smallcaps\">D</span>-Ribosyl-9<em>H</em>-purine;Desaminoadenosine",
    "duplicated_cas_no": "94919-86-5",
    "SMILES": "O[C@H]1[C@H](N2C=3C(N=C2)=CN=CN3)O[C@H](CO)[C@H]1O",
    "meta_data": {
        "InChI": "InChI=1S/C10H12N4O4/c15-2-6-7(16)8(17)10(18-6)14-4-13-5-1-11-3-12-9(5)14/h1,3-4,6-8,10,15-17H,2H2/t6-,7-,8-,10-/m1/s1",
        "InChIKey": null,
        "Canonical SMILES": "OCC1OC(N2C=NC=3C=NC=NC32)C(O)C1O",
        "Molecular Formula": "C<sub>10</sub>H<sub>12</sub>N<sub>4</sub>O<sub>4</sub>",
        "Molecular Mass": "252.23",
        "Melting Point": "181 °C"
    }
}