{
    "cas_no": "73987-38-9",
    "key_name": "6-Quinolinecarboxylic acid, ethyl ester",
    "cn_name": null,
    "alternate_name": "6-Quinolinecarboxylic acid, ethyl ester;NSC 138319;NSC 85328;Ethyl 6-quinolinecarboxylate",
    "duplicated_cas_no": "",
    "SMILES": "C(OCC)(=O)C1=CC2=C(C=C1)N=CC=C2",
    "meta_data": {
        "InChI": "InChI=1S/C12H11NO2/c1-2-15-12(14)10-5-6-11-9(8-10)4-3-7-13-11/h3-8H,2H2,1H3",
        "InChIKey": null,
        "Canonical SMILES": "O=C(OCC)C1=CC=C2N=CC=CC2=C1",
        "Molecular Formula": "C<sub>12</sub>H<sub>11</sub>NO<sub>2</sub>",
        "Molecular Mass": "201.22",
        "Melting Point": "59-60 °C"
    }
}