{
    "cas_no": "888711-54-4",
    "key_name": "Borate(1-), trifluoro(1-piperidinylmethyl)-, potassium (1:1), (<em>T</em>-4)-",
    "cn_name": null,
    "alternate_name": "Borate(1-), trifluoro(1-piperidinylmethyl)-, potassium (1:1), (<em>T</em>-4)-;Borate(1-), trifluoro(1-piperidinylmethyl)-, potassium, (<em>T</em>-4)-;Potassium trifluoro[(piperidin-1-yl)methyl]borate;Potassium (piperidin-1-yl)methyltrifluoroborate",
    "duplicated_cas_no": "",
    "SMILES": "[CH2-]([B+3]([F-])([F-])[F-])N1CCCCC1.[K+]",
    "meta_data": {
        "InChI": "InChI=1S/C6H12BF3N.K/c8-7(9,10)6-11-4-2-1-3-5-11;/h1-6H2;/q-1;+1",
        "InChIKey": null,
        "Canonical SMILES": "[K+].[F-][B+3]([F-])([F-])[CH2-]N1CCCCC1",
        "Molecular Formula": "C<sub>6</sub>H<sub>12</sub>BF<sub>3</sub>N.K",
        "Molecular Mass": "",
        "Melting Point": "146-148 °C"
    }
}