{
    "cas_no": "95266-40-3",
    "key_name": "Trinexapac-ethyl",
    "cn_name": "抗倒酯;4-环丙基(羟基)亚甲基-3,5-二酮环己烷羧酸乙酯;",
    "alternate_name": "Cyclohexanecarboxylic acid, 4-(cyclopropylhydroxymethylene)-3,5-dioxo-, ethyl ester;CGA 163935;Cimectacarb;Trinexapac-ethyl;Moddus;Primo;Primo Maxx",
    "duplicated_cas_no": "",
    "SMILES": "C(O)(=C1C(=O)CC(C(OCC)=O)CC1=O)C2CC2",
    "meta_data": {
        "InChI": "InChI=1S/C13H16O5/c1-2-18-13(17)8-5-9(14)11(10(15)6-8)12(16)7-3-4-7/h7-8,16H,2-6H2,1H3",
        "InChIKey": null,
        "Canonical SMILES": "O=C1C(C(=O)CC(C(=O)OCC)C1)=C(O)C2CC2",
        "Molecular Formula": "C<sub>13</sub>H<sub>16</sub>O<sub>5</sub>",
        "Molecular Mass": "252.26",
        "Boiling Point": "&gt;270 °C",
        "Melting Point": "36 °C",
        "Density": "1.3 g/cm³"
    }
}