{
    "cas_no": "2555-49-9",
    "key_name": "Ethyl 2-phenoxyacetate",
    "cn_name": "苯氧乙酸乙酯;",
    "alternate_name": "Acetic acid, 2-phenoxy-, ethyl ester;Acetic acid, phenoxy-, ethyl ester;Ethyl 2-phenoxyacetate;Ethyl phenoxyacetate;Phenoxyacetic acid ethyl ester",
    "duplicated_cas_no": "",
    "SMILES": "O(CC(OCC)=O)C1=CC=CC=C1",
    "meta_data": {
        "InChI": "InChI=1S/C10H12O3/c1-2-12-10(11)8-13-9-6-4-3-5-7-9/h3-7H,2,8H2,1H3",
        "InChIKey": null,
        "Canonical SMILES": "O=C(OCC)COC=1C=CC=CC1",
        "Molecular Formula": "C<sub>10</sub>H<sub>12</sub>O<sub>3</sub>",
        "Molecular Mass": "180.20",
        "Boiling Point": "99-100 °C @ Press: 1.5 Torr",
        "Melting Point": "80-82 °C",
        "Density": "1.1029 g/cm³ @ Temp: 20 °C"
    }
}