{
    "cas_no": "7053-88-5",
    "key_name": "2-Hydroxy-3-isopropylbenzoic acid",
    "cn_name": null,
    "alternate_name": "Benzoic acid, 2-hydroxy-3-(1-methylethyl)-;Salicylic acid, 3-isopropyl-;2-Hydroxy-3-(1-methylethyl)benzoic acid;3-Isopropylsalicylic acid;2-Hydroxy-3-isopropylbenzoic acid;3-Isopropyl-2-hydroxybenzoic acid;2-Hydroxy-3-propan-2-ylbenzoic acid;2-Hydroxy-3-(propan-2-yl)benzoic acid",
    "duplicated_cas_no": "",
    "SMILES": "C(C)(C)C1=C(O)C(C(O)=O)=CC=C1",
    "meta_data": {
        "InChI": "InChI=1S/C10H12O3/c1-6(2)7-4-3-5-8(9(7)11)10(12)13/h3-6,11H,1-2H3,(H,12,13)",
        "InChIKey": null,
        "Canonical SMILES": "O=C(O)C1=CC=CC(=C1O)C(C)C",
        "Molecular Formula": "C<sub>10</sub>H<sub>12</sub>O<sub>3</sub>",
        "Molecular Mass": "180.20",
        "Melting Point": "71-72 °C"
    }
}