{
    "cas_no": "1333-41-1",
    "key_name": "Methylpyridine",
    "cn_name": null,
    "alternate_name": "Pyridine, methyl-;Picoline;Methylpyridine",
    "duplicated_cas_no": "",
    "SMILES": "",
    "meta_data": {
        "InChI": "",
        "InChIKey": null,
        "Canonical SMILES": "",
        "Molecular Formula": "C<sub>6</sub>H<sub>7</sub>N",
        "Molecular Mass": "",
        "Boiling Point": "196 °C @ Press: 2 Torr"
    }
}