{
    "cas_no": "616-43-3",
    "key_name": "3-Methylpyrrole",
    "cn_name": "3-甲基吡咯;",
    "alternate_name": "1<em>H</em>-Pyrrole, 3-methyl-;Pyrrole, 3-methyl-;3-Methyl-1<em>H</em>-pyrrole;3-Methylpyrrole",
    "duplicated_cas_no": "",
    "SMILES": "CC=1C=CNC1",
    "meta_data": {
        "InChI": "InChI=1S/C5H7N/c1-5-2-3-6-4-5/h2-4,6H,1H3",
        "InChIKey": null,
        "Canonical SMILES": "C1=CC(=CN1)C",
        "Molecular Formula": "C<sub>5</sub>H<sub>7</sub>N",
        "Molecular Mass": "81.12",
        "Boiling Point": "143 °C",
        "Melting Point": "-48.4 °C"
    }
}