{
    "cas_no": "867-36-7",
    "key_name": "Dipropyltin dichloride",
    "cn_name": null,
    "alternate_name": "Stannane, dichlorodipropyl-;Dipropyltin dichloride;Tin, dichlorodipropyl-;Dichlorodipropylstannane;Dipropyltin chloride;Dichlorodipropyltin;Di-<em>n</em>-propyltin dichloride;Dipropyldichlorotin;NSC 92618",
    "duplicated_cas_no": "",
    "SMILES": "[Sn](CCC)(CCC)(Cl)Cl",
    "meta_data": {
        "InChI": "InChI=1S/2C3H7.2ClH.Sn/c2*1-3-2;;;/h2*1,3H2,2H3;2*1H;/q;;;;+2/p-2",
        "InChIKey": null,
        "Canonical SMILES": "Cl[Sn](Cl)(CCC)CCC",
        "Molecular Formula": "C<sub>6</sub>H<sub>14</sub>Cl<sub>2</sub>Sn",
        "Molecular Mass": "275.79",
        "Boiling Point": "161 °C @ Press: 25 Torr",
        "Melting Point": "80-81 °C"
    }
}