{
    "cas_no": "104-18-7",
    "key_name": "2-[(4-Aminophenyl)thio]acetic acid",
    "cn_name": "(4-氨基苯基硫)乙酸;",
    "alternate_name": "Acetic acid, 2-[(4-aminophenyl)thio]-;Acetic acid, [(<em>p</em>-aminophenyl)thio]-;Acetic acid, [(4-aminophenyl)thio]-;2-[(4-Aminophenyl)thio]acetic acid;[(<em>p</em>-Aminophenyl)thio]acetic acid;4-Aminophenylthioacetic acid;<em>p</em>-Aminophenylmercaptoacetic acid;4-Aminophenylmercaptoacetic acid;NSC 125376;NSC 43555;(4-Aminophenylsulfanyl)ethanoic acid;2-(4-Aminophenylthio)acetic acid;2-[(4-Aminophenyl)sulfanyl]acetic acid",
    "duplicated_cas_no": "",
    "SMILES": "S(CC(O)=O)C1=CC=C(N)C=C1",
    "meta_data": {
        "InChI": "InChI=1S/C8H9NO2S/c9-6-1-3-7(4-2-6)12-5-8(10)11/h1-4H,5,9H2,(H,10,11)",
        "InChIKey": null,
        "Canonical SMILES": "O=C(O)CSC1=CC=C(N)C=C1",
        "Molecular Formula": "C<sub>8</sub>H<sub>9</sub>NO<sub>2</sub>S",
        "Molecular Mass": "183.23",
        "Melting Point": "196-197 °C"
    }
}