{
    "cas_no": "1123-85-9",
    "key_name": "2-Phenyl-1-propanol",
    "cn_name": "2-苯基-1-丙醇;",
    "alternate_name": "Benzeneethanol, β-methyl-;Phenethyl alcohol, β-methyl-;β-Methylbenzeneethanol;Hydratropic alcohol;Hydratropyl alcohol;β-Phenylpropyl alcohol;2-Phenyl-1-propanol;β-Methylphenethyl alcohol;2-Phenylpropyl alcohol;1-Hydroxy-2-phenylpropane;1-Propanol, 2-phenyl-;2-Phenylpropanol;(±)-2-Phenyl-1-propanol;(±)-β-Methylbenzeneethanol;NSC 5232;(±)-2-Phenylpropanol;(<em>RS</em>)-2-Phenyl-1-propanol",
    "duplicated_cas_no": "98103-87-8",
    "SMILES": "C(CO)(C)C1=CC=CC=C1",
    "meta_data": {
        "InChI": "InChI=1S/C9H12O/c1-8(7-10)9-5-3-2-4-6-9/h2-6,8,10H,7H2,1H3",
        "InChIKey": null,
        "Canonical SMILES": "OCC(C=1C=CC=CC1)C",
        "Molecular Formula": "C<sub>9</sub>H<sub>12</sub>O",
        "Molecular Mass": "136.19",
        "Boiling Point": "112-114 °C @ Press: 12 Torr",
        "Melting Point": "125-127 °C",
        "Density": "1.0070 g/cm³ @ Temp: 16 °C"
    }
}