{
    "cas_no": "16728-01-1",
    "key_name": "1-(4-Methoxyphenyl)cyclopropanecarboxylic acid",
    "cn_name": "1-(4-甲氧基苯)-1-环丙羧酸;",
    "alternate_name": "Cyclopropanecarboxylic acid, 1-(4-methoxyphenyl)-;Cyclopropanecarboxylic acid, 1-(<em>p</em>-methoxyphenyl)-;1-(4-Methoxyphenyl)cyclopropanecarboxylic acid;1-(4-Methoxyphenyl)-1-cyclopropanecarboxylic acid;NSC 158249",
    "duplicated_cas_no": "",
    "SMILES": "C(O)(=O)C1(CC1)C2=CC=C(OC)C=C2",
    "meta_data": {
        "InChI": "InChI=1S/C11H12O3/c1-14-9-4-2-8(3-5-9)11(6-7-11)10(12)13/h2-5H,6-7H2,1H3,(H,12,13)",
        "InChIKey": null,
        "Canonical SMILES": "O=C(O)C1(C2=CC=C(OC)C=C2)CC1",
        "Molecular Formula": "C<sub>11</sub>H<sub>12</sub>O<sub>3</sub>",
        "Molecular Mass": "192.21",
        "Melting Point": "122-123 °C"
    }
}