{
    "cas_no": "1193-81-3",
    "key_name": "1-Cyclohexylethanol",
    "cn_name": "1-环己基乙醇;alpha-甲基环己基甲醇;",
    "alternate_name": "Cyclohexanemethanol, α-methyl-;α-Methylcyclohexanemethanol;Ethanol, 1-cyclohexyl-;Methanol, cyclohexylmethyl-;Cyclohexylmethylcarbinol;1-Cyclohexylethanol;1-Cyclohexyl-1-ethanol;Methylcyclohexylcarbinol;Methylcyclohexylmethanol;1-Cyclohexane-1-ethanol;(±)-1-Cyclohexylethanol;(1-Hydroxyethyl)cyclohexane;NSC 44898;NSC 9476;Surflot 944;1-Cyclohexylethane-1-ol",
    "duplicated_cas_no": "104713-60-2",
    "SMILES": "C(C)(O)C1CCCCC1",
    "meta_data": {
        "InChI": "InChI=1S/C8H16O/c1-7(9)8-5-3-2-4-6-8/h7-9H,2-6H2,1H3",
        "InChIKey": null,
        "Canonical SMILES": "OC(C)C1CCCCC1",
        "Molecular Formula": "C<sub>8</sub>H<sub>16</sub>O",
        "Molecular Mass": "128.21",
        "Boiling Point": "189 °C",
        "Melting Point": "140 °C",
        "Density": "0.893 g/cm³ @ Temp: 22 °C"
    }
}