{
    "cas_no": "10443-65-9",
    "key_name": "2-Bromoacrylic acid",
    "cn_name": null,
    "alternate_name": "2-Propenoic acid, 2-bromo-;Acrylic acid, 2-bromo-;2-Bromo-2-propenoic acid;2-Bromoacrylic acid;α-Bromoacrylic acid;NSC 227848",
    "duplicated_cas_no": "",
    "SMILES": "C(C(O)=O)(Br)=C",
    "meta_data": {
        "InChI": "InChI=1S/C3H3BrO2/c1-2(4)3(5)6/h1H2,(H,5,6)",
        "InChIKey": null,
        "Canonical SMILES": "O=C(O)C(Br)=C",
        "Molecular Formula": "C<sub>3</sub>H<sub>3</sub>BrO<sub>2</sub>",
        "Molecular Mass": "150.96",
        "Melting Point": "72 °C"
    }
}