{
    "cas_no": "920-68-3",
    "key_name": "<em>N</em>,1,1,1-Tetramethyl-<em>N</em>-(trimethylsilyl)silanamine",
    "cn_name": "七甲基二硅氮烷;七甲基二硅胺;N,N-二(三甲硅基)甲胺;",
    "alternate_name": "Silanamine, <em>N</em>,1,1,1-tetramethyl-<em>N</em>-(trimethylsilyl)-;Disilazane, heptamethyl-;<em>N</em>,1,1,1-Tetramethyl-<em>N</em>-(trimethylsilyl)silanamine;Heptamethyldisilazane;Methylbis(trimethylsilyl)amine;<em>N</em>,<em>N</em>-Bis(trimethylsilyl)methylamine;Di(trimethylsilyl)methylamine",
    "duplicated_cas_no": "",
    "SMILES": "N([Si](C)(C)C)([Si](C)(C)C)C",
    "meta_data": {
        "InChI": "InChI=1S/C7H21NSi2/c1-8(9(2,3)4)10(5,6)7/h1-7H3",
        "InChIKey": null,
        "Canonical SMILES": "N(C)([Si](C)(C)C)[Si](C)(C)C",
        "Molecular Formula": "C<sub>7</sub>H<sub>21</sub>NSi<sub>2</sub>",
        "Molecular Mass": "175.42",
        "Boiling Point": "143-147 °C",
        "Density": "0.7864 g/cm³"
    }
}