{
    "cas_no": "118-31-0",
    "key_name": "1-Naphthalenemethanamine",
    "cn_name": null,
    "alternate_name": "1-Naphthalenemethanamine;1-Naphthalenemethylamine;α-Naphthylmethylamine;1-Naphthylmethylamine;1-(Aminomethyl)naphthalene;1-(1-Naphthyl)methylamine;(Naphthalen-1-ylmethyl)amine;NSC 210425;Naphthalen-1-ylmethanamine;1-(1-Naphthyl)methanamine;1-(Naphthalen-1-yl)methanamine;C-(Naphthalen-1-yl)-methylamine;1-Naphthylmethaneamine;1-Naphthylmethanamine",
    "duplicated_cas_no": "",
    "SMILES": "C(N)C=1C2=C(C=CC1)C=CC=C2",
    "meta_data": {
        "InChI": "InChI=1S/C11H11N/c12-8-10-6-3-5-9-4-1-2-7-11(9)10/h1-7H,8,12H2",
        "InChIKey": null,
        "Canonical SMILES": "NCC1=CC=CC=2C=CC=CC21",
        "Molecular Formula": "C<sub>11</sub>H<sub>11</sub>N",
        "Molecular Mass": "157.21",
        "Boiling Point": "155 °C @ Press: 12 Torr",
        "Melting Point": "62 °C",
        "Density": "1.0958 g/cm³ @ Temp: 20 °C"
    }
}