{
    "cas_no": "1576-35-8",
    "key_name": "Tosylhydrazine",
    "cn_name": "对甲苯磺酰肼;",
    "alternate_name": "Benzenesulfonic acid, 4-methyl-, hydrazide;<em>p</em>-Toluenesulfonic acid, hydrazide;<em>p</em>-Toluenesulfonhydrazide;Toluene-4-sulfonyl hydrazide;4-Toluenesulfonic acid hydrazide;Tosylhydrazine;(<em>p</em>-Tolylsulfonyl)hydrazine;<em>p</em>-Toluenesulfonic hydrazide;<em>p</em>-Toluenesulfonylhydrazine;<em>p</em>-Tolylsulfonyl hydrazide;<em>p</em>-Tosylhydrazine;(4-Tolylsulfonyl)hydrazide;<em>p</em>-Methylbenzenesulfonic acid hydrazide;Tosylhydrazide;Celogen TSH;4-Methylbenzenesulfonic acid hydrazide;<em>p</em>-Methylbenzenesulfonylhydrazine;<em>p</em>-Methylphenylsulfonylhydrazine;4-Methylbenzenesulfonyl hydrazide;<em>p</em>-Tosyl hydrazide;<em>p</em>-Toluenesulfonyl hydrazide;Unifor H;4-Toluenesulfonohydrazine;Cellmic H;<em>p</em>-Toluenesulfonohydrazide;(4-Methylphenylsulfonyl)hydrazine;Genitron PTS;Unifor NH 500;Cellmic AH;4-Methylphenylsulfonyl hydrazide;Porofor TSH 75;NSC 18715;4-Methylbenzenesulfonohydrazide;Toluene-4-sulfonohydrazide;Porofor TSH;<em>N</em>-Tosylhydrazine;TSH;4-Methylbenzene-1-sulfonohydrazide;4-Methylbenzenesulfonhydrazide",
    "duplicated_cas_no": "344295-58-5",
    "SMILES": "S(NN)(=O)(=O)C1=CC=C(C)C=C1",
    "meta_data": {
        "InChI": "InChI=1S/C7H10N2O2S/c1-6-2-4-7(5-3-6)12(10,11)9-8/h2-5,9H,8H2,1H3",
        "InChIKey": null,
        "Canonical SMILES": "O=S(=O)(NN)C1=CC=C(C=C1)C",
        "Molecular Formula": "C<sub>7</sub>H<sub>10</sub>N<sub>2</sub>O<sub>2</sub>S",
        "Molecular Mass": "186.23",
        "Melting Point": "112 °C"
    }
}