{
    "cas_no": "33228-45-4",
    "key_name": "4-Hexylaniline",
    "cn_name": "4-己基苯胺;",
    "alternate_name": "Benzenamine, 4-hexyl-;Aniline, <em>p</em>-hexyl-;4-Hexylbenzenamine;<em>p</em>-<em>n</em>-Hexylaniline;<em>p</em>-Hexylaniline;4-<em>n</em>-Hexylaniline;4-Hexylaniline;4-Hexylphenylamine",
    "duplicated_cas_no": "",
    "SMILES": "C(CCCCC)C1=CC=C(N)C=C1",
    "meta_data": {
        "InChI": "InChI=1S/C12H19N/c1-2-3-4-5-6-11-7-9-12(13)10-8-11/h7-10H,2-6,13H2,1H3",
        "InChIKey": null,
        "Canonical SMILES": "NC1=CC=C(C=C1)CCCCCC",
        "Molecular Formula": "C<sub>12</sub>H<sub>19</sub>N",
        "Molecular Mass": "177.29",
        "Boiling Point": "146-148 °C @ Press: 17 Torr",
        "Melting Point": "76.0-76.5 °C"
    }
}