{
    "cas_no": "4045-24-3",
    "key_name": "4-Methoxypiperidine",
    "cn_name": "4-甲氧基哌啶;",
    "alternate_name": "Piperidine, 4-methoxy-;4-Methoxypiperidine",
    "duplicated_cas_no": "",
    "SMILES": "O(C)C1CCNCC1",
    "meta_data": {
        "InChI": "InChI=1S/C6H13NO/c1-8-6-2-4-7-5-3-6/h6-7H,2-5H2,1H3",
        "InChIKey": null,
        "Canonical SMILES": "O(C)C1CCNCC1",
        "Molecular Formula": "C<sub>6</sub>H<sub>13</sub>NO",
        "Molecular Mass": "115.17",
        "Boiling Point": "61-65 °C @ Press: 11 Torr"
    }
}