{
    "cas_no": "75-35-4",
    "key_name": "Vinylidene chloride",
    "cn_name": null,
    "alternate_name": "Ethene, 1,1-dichloro-;Ethylene, 1,1-dichloro-;1,1-Dichloroethene;Vinylidene chloride;1,1-Dichloroethylene;HCC 1130a;F 1130a;R 1130a;Iso-dichloroethylene;Diofan A 565S;XAN 10;HCO 1130a",
    "duplicated_cas_no": "",
    "SMILES": "C(=C)(Cl)Cl",
    "meta_data": {
        "InChI": "InChI=1S/C2H2Cl2/c1-2(3)4/h1H2",
        "InChIKey": null,
        "Canonical SMILES": "ClC(Cl)=C",
        "Molecular Formula": "C<sub>2</sub>H<sub>2</sub>Cl<sub>2</sub>",
        "Molecular Mass": "96.94",
        "Boiling Point": "31.7 °C @ Press: 760 Torr",
        "Melting Point": "-122.5 °C",
        "Density": "1.2129 g/cm³ @ Temp: 20 °C"
    }
}