{
    "cas_no": "110-53-2",
    "key_name": "1-Bromopentane",
    "cn_name": "溴戊烷;溴代正戊烷;",
    "alternate_name": "Pentane, 1-bromo-;1-Bromopentane;<em>n</em>-Amyl bromide;<em>n</em>-Pentyl bromide;Amyl bromide;Pentyl bromide;1-Pentyl bromide;NSC 7895",
    "duplicated_cas_no": "",
    "SMILES": "C(CCC)CBr",
    "meta_data": {
        "InChI": "InChI=1S/C5H11Br/c1-2-3-4-5-6/h2-5H2,1H3",
        "InChIKey": null,
        "Canonical SMILES": "BrCCCCC",
        "Molecular Formula": "C<sub>5</sub>H<sub>11</sub>Br",
        "Molecular Mass": "151.04",
        "Boiling Point": "129.8 °C",
        "Melting Point": "-95 °C",
        "Density": "1.24264 g/cm³ @ Temp: 0 °C"
    }
}