{
    "cas_no": "6272-38-4",
    "key_name": "2-(Phenylmethoxy)phenol",
    "cn_name": "2-苄氧基苯酚;邻苄氧基苯酚;邻羟基苯基苄基醚;",
    "alternate_name": "Phenol, 2-(phenylmethoxy)-;Phenol, <em>o</em>-(benzyloxy)-;2-(Phenylmethoxy)phenol;Benzyl <em>o</em>-hydroxyphenyl ether;<em>o</em>-(Benzyloxy)phenol;2-(Benzyloxy)phenol;NSC 37426;NSC 72669",
    "duplicated_cas_no": "",
    "SMILES": "O(CC1=CC=CC=C1)C2=C(O)C=CC=C2",
    "meta_data": {
        "InChI": "InChI=1S/C13H12O2/c14-12-8-4-5-9-13(12)15-10-11-6-2-1-3-7-11/h1-9,14H,10H2",
        "InChIKey": null,
        "Canonical SMILES": "OC=1C=CC=CC1OCC=2C=CC=CC2",
        "Molecular Formula": "C<sub>13</sub>H<sub>12</sub>O<sub>2</sub>",
        "Molecular Mass": "200.23",
        "Boiling Point": "173-174 °C @ Press: 13 Torr",
        "Melting Point": "38 °C",
        "Density": "1.154 g/cm³ @ Temp: 22 °C"
    }
}