{
    "cas_no": "17526-15-7",
    "key_name": "1,4,5-Trihydroxy-2-methoxy-7-methyl-9,10-anthracenedione",
    "cn_name": null,
    "alternate_name": "9,10-Anthracenedione, 1,4,5-trihydroxy-2-methoxy-7-methyl-;Anthraquinone, 1,4,5-trihydroxy-2-methoxy-7-methyl-;1,4,5-Trihydroxy-2-methoxy-7-methyl-9,10-anthracenedione;Xanthorin;1,4,8-Trihydroxy-6-methyl-3-methoxy-9,10-anthraquinone",
    "duplicated_cas_no": "",
    "SMILES": "O=C1C=2C(C(=O)C=3C1=C(O)C=C(C)C3)=C(O)C(OC)=CC2O",
    "meta_data": {
        "InChI": "InChI=1S/C16H12O6/c1-6-3-7-11(8(17)4-6)16(21)12-9(18)5-10(22-2)15(20)13(12)14(7)19/h3-5,17-18,20H,1-2H3",
        "InChIKey": null,
        "Canonical SMILES": "O=C1C2=CC(=CC(O)=C2C(=O)C3=C(O)C=C(OC)C(O)=C13)C",
        "Molecular Formula": "C<sub>16</sub>H<sub>12</sub>O<sub>6</sub>",
        "Molecular Mass": "300.26",
        "Melting Point": "244-246 °C"
    }
}