{
    "cas_no": "89-99-6",
    "key_name": "2-Fluorobenzylamine",
    "cn_name": "2-氟苄胺;邻氟苄胺;",
    "alternate_name": "Benzenemethanamine, 2-fluoro-;Benzylamine, <em>o</em>-fluoro-;2-Fluorobenzenemethanamine;<em>o</em>-Fluorobenzylamine;2-Fluorobenzylamine;((2-Fluorophenyl)methyl)amine;NSC 158270;(2-Fluorophenyl)methanamine;1-(2-Fluorophenyl)methanamine",
    "duplicated_cas_no": "",
    "SMILES": "C(N)C1=C(F)C=CC=C1",
    "meta_data": {
        "InChI": "InChI=1S/C7H8FN/c8-7-4-2-1-3-6(7)5-9/h1-4H,5,9H2",
        "InChIKey": null,
        "Canonical SMILES": "FC=1C=CC=CC1CN",
        "Molecular Formula": "C<sub>7</sub>H<sub>8</sub>FN",
        "Molecular Mass": "125.14",
        "Boiling Point": "73-75 °C @ Press: 13 Torr",
        "Melting Point": "245-246 °C"
    }
}