{
    "cas_no": "2304-30-5",
    "key_name": "Tetrabutylphosphonium chloride",
    "cn_name": "四丁基氯化膦;",
    "alternate_name": "Phosphonium, tetrabutyl-, chloride (1:1);Phosphonium, tetrabutyl-, chloride;Tetrabutylphosphonium chloride;Tetra-<em>n</em>-butylphosphonium chloride;Hishicolin PX 4C;Cyphos 443P;Cyphos 443T;Cyphos IL 164",
    "duplicated_cas_no": "",
    "SMILES": "[P+](CCCC)(CCCC)(CCCC)CCCC.[Cl-]",
    "meta_data": {
        "InChI": "InChI=1S/C16H36P.ClH/c1-5-9-13-17(14-10-6-2,15-11-7-3)16-12-8-4;/h5-16H2,1-4H3;1H/q+1;/p-1",
        "InChIKey": null,
        "Canonical SMILES": "[Cl-].CCCC[P+](CCCC)(CCCC)CCCC",
        "Molecular Formula": "C<sub>16</sub>H<sub>36</sub>P.Cl",
        "Molecular Mass": "",
        "Melting Point": "80-83 °C"
    }
}