{
    "cas_no": "62462-05-9",
    "key_name": "Methyl 5-methoxy-3-oxopentanoate",
    "cn_name": "5-甲氧基-3-氧代戊酸甲酯;",
    "alternate_name": "Pentanoic acid, 5-methoxy-3-oxo-, methyl ester;Methyl 5-methoxy-3-oxopentanoate;5-Methoxy-3-oxopentanoic acid methyl ester;5-Methoxy-3-oxovaleric acid methyl ester;Methyl 5-methoxy-3-oxovalerate",
    "duplicated_cas_no": "",
    "SMILES": "C(CC(OC)=O)(CCOC)=O",
    "meta_data": {
        "InChI": "InChI=1S/C7H12O4/c1-10-4-3-6(8)5-7(9)11-2/h3-5H2,1-2H3",
        "InChIKey": null,
        "Canonical SMILES": "O=C(OC)CC(=O)CCOC",
        "Molecular Formula": "C<sub>7</sub>H<sub>12</sub>O<sub>4</sub>",
        "Molecular Mass": "160.17",
        "Boiling Point": "75-76 °C @ Press: 0.5 Torr"
    }
}