{
    "cas_no": "1124-39-6",
    "key_name": "4-Ethyl-1,2-benzenediol",
    "cn_name": "4-乙基苯磷二酚;",
    "alternate_name": "1,2-Benzenediol, 4-ethyl-;Pyrocatechol, 4-ethyl-;4-Ethyl-1,2-benzenediol;4-Ethylcatechol;4-Ethylpyrocatechol;1-Ethyl-3,4-dihydroxybenzene;Ethylcatechol;Ethylpyrocatechol;1-Ethyl-3,4-benzenediol;4-Ethyl-1,2-dihydroxybenzene;4-Ethyl-2-hydroxyphenol",
    "duplicated_cas_no": "",
    "SMILES": "C(C)C1=CC(O)=C(O)C=C1",
    "meta_data": {
        "InChI": "InChI=1S/C8H10O2/c1-2-6-3-4-7(9)8(10)5-6/h3-5,9-10H,2H2,1H3",
        "InChIKey": null,
        "Canonical SMILES": "OC1=CC=C(C=C1O)CC",
        "Molecular Formula": "C<sub>8</sub>H<sub>10</sub>O<sub>2</sub>",
        "Molecular Mass": "138.16",
        "Boiling Point": "130-132 °C @ Press: 9 Torr",
        "Melting Point": "41-42 °C"
    }
}