{
    "cas_no": "70630-17-0",
    "key_name": "(<em>R</em>)-Metalaxyl",
    "cn_name": "精甲霜灵;N-(2-甲氧基乙酰基)-N-(2,6-二甲苯基)-D-丙氨酸甲酯;",
    "alternate_name": "<span class=\"text-smallcaps\">D</span>-Alanine, <em>N</em>-(2,6-dimethylphenyl)-<em>N</em>-(2-methoxyacetyl)-, methyl ester;<span class=\"text-smallcaps\">D</span>-Alanine, <em>N</em>-(2,6-dimethylphenyl)-<em>N</em>-(methoxyacetyl)-, methyl ester;<span class=\"text-smallcaps\">D</span>-(-)-Metalaxyl;(<em>R</em>)-Metalaxyl;CGA 329351;Metalaxyl-M;Mefenoxam;Tega Bion;(-)-Metalaxyl;Ridomil Gold;Apron XL;<em>R</em>-(-)-Metalaxyl;Ridomil Gold Bravo;Subdue Maxx;(-)-(<em>R</em>)-Metalaxyl;Fonganil Gold;Santhal TC",
    "duplicated_cas_no": "1135441-63-2",
    "SMILES": "N([C@@H](C(OC)=O)C)(C(COC)=O)C1=C(C)C=CC=C1C",
    "meta_data": {
        "InChI": "InChI=1S/C15H21NO4/c1-10-7-6-8-11(2)14(10)16(13(17)9-19-4)12(3)15(18)20-5/h6-8,12H,9H2,1-5H3/t12-/m1/s1",
        "InChIKey": null,
        "Canonical SMILES": "O=C(OC)C(N(C(=O)COC)C=1C(=CC=CC1C)C)C",
        "Molecular Formula": "C<sub>15</sub>H<sub>21</sub>NO<sub>4</sub>",
        "Molecular Mass": "279.33",
        "Melting Point": "-38.7 °C"
    }
}