{
    "cas_no": "14814-09-6",
    "key_name": "(3-Mercaptopropyl)triethoxysilane",
    "cn_name": "3-巯丙基三乙氧基硅烷;",
    "alternate_name": "1-Propanethiol, 3-(triethoxysilyl)-;3-(Triethoxysilyl)-1-propanethiol;(γ-Mercaptopropyl)triethoxysilane;3-(Triethoxysilyl)propyl mercaptan;(3-Mercaptopropyl)triethoxysilane;Triethoxy(3-mercaptopropyl)silane;Dynasylan 3201;Silquest A 1891;A 1891;VP-Si 263;HD 113;KH 580;Si 263;DB 580;MPTES;(3-Thiopropyl)triethoxysilane;LMD 81;JH-S 1891;Z 6910;M 1505;SiSiB PC 2310;CG-S 323",
    "duplicated_cas_no": "133404-71-4;145992-60-5",
    "SMILES": "[Si](CCCS)(OCC)(OCC)OCC",
    "meta_data": {
        "InChI": "InChI=1S/C9H22O3SSi/c1-4-10-14(11-5-2,12-6-3)9-7-8-13/h13H,4-9H2,1-3H3",
        "InChIKey": null,
        "Canonical SMILES": "SCCC[Si](OCC)(OCC)OCC",
        "Molecular Formula": "C<sub>9</sub>H<sub>22</sub>O<sub>3</sub>SSi",
        "Molecular Mass": "238.42",
        "Boiling Point": "210 °C",
        "Density": "0.932 g/cm³"
    }
}