{
    "cas_no": "762-21-0",
    "key_name": "Diethyl acetylenedicarboxylate",
    "cn_name": "丁炔二酸二乙酯;",
    "alternate_name": "2-Butynedioic acid, 1,4-diethyl ester;Acetylenedicarboxylic acid, diethyl ester;2-Butynedioic acid, diethyl ester;Diethyl acetylenedicarboxylate;Bis(ethoxycarbonyl)acetylene;Diethyl 2-butynedioate;Bis(carboethoxy)acetylene;Diethyl acetylenedicarboxylic acid;NSC 674446;NSC 67975;Diethyl 1,2-acetylenedicarboxylate;Diethyl butynedioate;1,4-Diethyl but-2-ynedioate",
    "duplicated_cas_no": "59338-98-6;2387559-41-1",
    "SMILES": "C(C#CC(OCC)=O)(OCC)=O",
    "meta_data": {
        "InChI": "InChI=1S/C8H10O4/c1-3-11-7(9)5-6-8(10)12-4-2/h3-4H2,1-2H3",
        "InChIKey": null,
        "Canonical SMILES": "O=C(C#CC(=O)OCC)OCC",
        "Molecular Formula": "C<sub>8</sub>H<sub>10</sub>O<sub>4</sub>",
        "Molecular Mass": "170.16",
        "Boiling Point": "108-118 °C @ Press: 10 Torr",
        "Melting Point": "1.5 °C"
    }
}