{
    "cas_no": "18908-66-2",
    "key_name": "2-Ethylhexyl bromide",
    "cn_name": "溴代异辛烷;1-溴-2-乙基己烷;2-乙基己基溴;",
    "alternate_name": "Heptane, 3-(bromomethyl)-;3-(Bromomethyl)heptane;2-Ethylhexyl bromide;1-Bromo-2-ethylhexane;2-Ethyl-1-hexyl bromide;1-Bromoiso-octane;2-Ethyl-1-bromohexane",
    "duplicated_cas_no": "",
    "SMILES": "C(CCCC)(CBr)CC",
    "meta_data": {
        "InChI": "InChI=1S/C8H17Br/c1-3-5-6-8(4-2)7-9/h8H,3-7H2,1-2H3",
        "InChIKey": null,
        "Canonical SMILES": "BrCC(CC)CCCC",
        "Molecular Formula": "C<sub>8</sub>H<sub>17</sub>Br",
        "Molecular Mass": "193.12",
        "Boiling Point": "93-98 °C",
        "Density": "1.1197 g/cm³ @ Temp: 25 °C"
    }
}