{
    "cas_no": "1630-79-1",
    "key_name": "1,1,2,2-Diborane(4)tetramine, <em>N</em><sup>1</sup>,<em>N</em><sup>1</sup>,<em>N</em><sup>1′</sup>,<em>N</em><sup>1′</sup>,<em>N</em><sup>2</sup>,<em>N</em><sup>2</sup>,<em>N</em><sup>2′</sup>,<em>N</em><sup>2′</sup>-octamethyl-",
    "cn_name": null,
    "alternate_name": "1,1,2,2-Diborane(4)tetramine, <em>N</em><sup>1</sup>,<em>N</em><sup>1</sup>,<em>N</em><sup>1′</sup>,<em>N</em><sup>1′</sup>,<em>N</em><sup>2</sup>,<em>N</em><sup>2</sup>,<em>N</em><sup>2′</sup>,<em>N</em><sup>2′</sup>-octamethyl-;Diborane(4), tetrakis(dimethylamino)-;Diborane(4)tetramine, octamethyl-;Tetrakis(dimethylamino)diborane(4);1,1,2,2-Tetrakis(dimethylamino)diborane(4);Tetrakis(dimethylamino)diborane;Tetrakis(dimethylamino)diboron;NSC 220326;NSC 665722",
    "duplicated_cas_no": "",
    "SMILES": "B(B(N(C)C)N(C)C)(N(C)C)N(C)C",
    "meta_data": {
        "InChI": "InChI=1S/C8H24B2N4/c1-11(2)9(12(3)4)10(13(5)6)14(7)8/h1-8H3",
        "InChIKey": null,
        "Canonical SMILES": "B(B(N(C)C)N(C)C)(N(C)C)N(C)C",
        "Molecular Formula": "C<sub>8</sub>H<sub>24</sub>B<sub>2</sub>N<sub>4</sub>",
        "Molecular Mass": "197.93",
        "Boiling Point": "56-57 °C @ Press: 2 Torr"
    }
}