{
    "cas_no": "2949-22-6",
    "key_name": "Ethyl isocyanatoacetate",
    "cn_name": null,
    "alternate_name": "Acetic acid, 2-isocyanato-, ethyl ester;Acetic acid, isocyanato-, ethyl ester;Ethyl isocyanatoacetate;Isocyanatoacetic acid ethyl ester;Ethoxycarbonylmethyl isocyanate;Carbethoxymethyl isocyanate;NSC 56429;NSC 6276;Glycine ethyl ester isocyanate",
    "duplicated_cas_no": "1025436-14-9",
    "SMILES": "C(CN=C=O)(OCC)=O",
    "meta_data": {
        "InChI": "InChI=1S/C5H7NO3/c1-2-9-5(8)3-6-4-7/h2-3H2,1H3",
        "InChIKey": null,
        "Canonical SMILES": "O=C=NCC(=O)OCC",
        "Molecular Formula": "C<sub>5</sub>H<sub>7</sub>NO<sub>3</sub>",
        "Molecular Mass": "129.11",
        "Boiling Point": "66-67 °C"
    }
}