{
    "cas_no": "306-23-0",
    "key_name": "(±)-3-(4-Hydroxyphenyl)lactic acid",
    "cn_name": "3-(4-羟基苯基)乳酸;3-(4-羟基苯基)-2-羟基丙酸;",
    "alternate_name": "Benzenepropanoic acid, α,4-dihydroxy-;Lactic acid, 3-(<em>p</em>-hydroxyphenyl)-;α,4-Dihydroxybenzenepropanoic acid;β-(<em>p</em>-Hydroxyphenyl)lactic acid;3-(4-Hydroxyphenyl)lactic acid;2-Hydroxy-3-(<em>p</em>-hydroxyphenyl)propionic acid;β-(4-Hydroxyphenyl)lactic acid;HPLA;2-Hydroxy-3-(4-hydroxyphenyl)propanoic acid;β-(<em>p</em>-Hydroxyphenyl)-<span class=\"text-smallcaps\">D</smallcap><smallcap>L</span>-lactic acid;<span class=\"text-smallcaps\">D</smallcap><smallcap>L</span>-<em>p</em>-Hydroxyphenyllactic acid;<span class=\"text-smallcaps\">D</smallcap><smallcap>L</span>-3-(4-Hydroxyphenyl)lactic acid;3-(4-Hydroxyphenyl)-<span class=\"text-smallcaps\">D</smallcap><smallcap>L</span>-lactic acid;(±)-3-(4-Hydroxyphenyl)lactic acid;(<em>RS</em>)-3-(4-Hydroxyphenyl)lactic acid;NSC 111175;<em>p</em>-Hydroxy-<em>dl</em>-phenyllactic acid",
    "duplicated_cas_no": "6482-98-0;214967-87-0",
    "SMILES": "C(C(C(O)=O)O)C1=CC=C(O)C=C1",
    "meta_data": {
        "InChI": "InChI=1S/C9H10O4/c10-7-3-1-6(2-4-7)5-8(11)9(12)13/h1-4,8,10-11H,5H2,(H,12,13)",
        "InChIKey": null,
        "Canonical SMILES": "O=C(O)C(O)CC1=CC=C(O)C=C1",
        "Molecular Formula": "C<sub>9</sub>H<sub>10</sub>O<sub>4</sub>",
        "Molecular Mass": "182.17",
        "Melting Point": "140 °C"
    }
}