{
    "cas_no": "2403-88-5",
    "key_name": "4-Hydroxy-2,2,6,6-tetramethylpiperidine",
    "cn_name": "四甲基哌啶醇;2,2,6,6-四甲基哌啶醇;",
    "alternate_name": "4-Piperidinol, 2,2,6,6-tetramethyl-;2,2,6,6-Tetramethyl-4-piperidinol;4-Hydroxy-2,2,6,6-tetramethylpiperidine;2,2,6,6-Tetramethyl-4-hydroxypiperidine;Lastar A;DN 10;HOTEMP;NSC 16575;DN 10 (UV absorber);HTMP;AHA 7002",
    "duplicated_cas_no": "95368-80-2;119030-52-3",
    "SMILES": "CC1(C)NC(C)(C)CC(O)C1",
    "meta_data": {
        "InChI": "InChI=1S/C9H19NO/c1-8(2)5-7(11)6-9(3,4)10-8/h7,10-11H,5-6H2,1-4H3",
        "InChIKey": null,
        "Canonical SMILES": "OC1CC(NC(C)(C)C1)(C)C",
        "Molecular Formula": "C<sub>9</sub>H<sub>19</sub>NO",
        "Molecular Mass": "157.25",
        "Melting Point": "128-129 °C"
    }
}