{
    "cas_no": "126-17-0",
    "key_name": "Solasodine",
    "cn_name": null,
    "alternate_name": "Spirosol-5-en-3-ol, (3β,22α,25<em>R</em>)-;Solasod-5-en-3β-ol;Spiro[8<em>H</em>-naphth[2′,1′:4,5]indeno[2,1-<em>b</em>]furan-8,2′-piperidine], spirosol-5-en-3-ol deriv.;(3β,22α,25<em>R</em>)-Spirosol-5-en-3-ol;Purapuridine;Solancarpidine;Solasodin;Solasodine;NSC 178260;NSC 179187;(-)-Solasodine",
    "duplicated_cas_no": "",
    "SMILES": "C[C@@H]1[C@]2(O[C@@]3([C@]1([C@]4(C)[C@@](C3)([C@]5([C@](CC4)([C@]6(C)C(=CC5)C[C@@H](O)CC6)[H])[H])[H])[H])[H])CC[C@@H](C)CN2",
    "meta_data": {
        "InChI": "InChI=1S/C27H43NO2/c1-16-7-12-27(28-15-16)17(2)24-23(30-27)14-22-20-6-5-18-13-19(29)8-10-25(18,3)21(20)9-11-26(22,24)4/h5,16-17,19-24,28-29H,6-15H2,1-4H3/t16-,17+,19+,20-,21+,22+,23+,24+,25+,26+,27-/m1/s1",
        "InChIKey": null,
        "Canonical SMILES": "OC1CC2=CCC3C(CCC4(C)C3CC5OC6(NCC(C)CC6)C(C)C54)C2(C)CC1",
        "Molecular Formula": "C<sub>27</sub>H<sub>43</sub>NO<sub>2</sub>",
        "Molecular Mass": "413.64",
        "Melting Point": "200-202 °C"
    }
}