{
    "cas_no": "29588-88-3",
    "key_name": "(α<em>S</em>)-1,3-Dihydro-α-[(1<em>S</em>)-1-methylpropyl]-1,3-dioxo-2<em>H</em>-isoindole-2-acetic acid",
    "cn_name": null,
    "alternate_name": "2<em>H</em>-Isoindole-2-acetic acid, 1,3-dihydro-α-[(1<em>S</em>)-1-methylpropyl]-1,3-dioxo-, (α<em>S</em>)-;2-Isoindolineacetic acid, α-<em>sec</em>-butyl-1,3-dioxo-, <span class=\"text-smallcaps\">L</span>-<em>erythro</em>-;2<em>H</em>-Isoindole-2-acetic acid, 1,3-dihydro-α-(1-methylpropyl)-1,3-dioxo-, [<em>S</em>-(<em>R</em>*,<em>R</em>*)]-;(α<em>S</em>)-1,3-Dihydro-α-[(1<em>S</em>)-1-methylpropyl]-1,3-dioxo-2<em>H</em>-isoindole-2-acetic acid;<em>N</em>-Phthaloyl-<span class=\"text-smallcaps\">L</span>-isoleucine;<span class=\"text-smallcaps\">L</span>-<em>N</em>-Phthaloyl-Isoleucine",
    "duplicated_cas_no": "",
    "SMILES": "[C@H]([C@H](CC)C)(C(O)=O)N1C(=O)C=2C(C1=O)=CC=CC2",
    "meta_data": {
        "InChI": "InChI=1S/C14H15NO4/c1-3-8(2)11(14(18)19)15-12(16)9-6-4-5-7-10(9)13(15)17/h4-8,11H,3H2,1-2H3,(H,18,19)/t8-,11-/m0/s1",
        "InChIKey": null,
        "Canonical SMILES": "O=C(O)C(N1C(=O)C=2C=CC=CC2C1=O)C(C)CC",
        "Molecular Formula": "C<sub>14</sub>H<sub>15</sub>NO<sub>4</sub>",
        "Molecular Mass": "261.27",
        "Melting Point": "123-125 °C"
    }
}