{
    "cas_no": "34981-12-9",
    "key_name": "1-[4-(1<em>H</em>-Indol-3-yl)-1(4<em>H</em>)-pyridinyl]ethanone",
    "cn_name": null,
    "alternate_name": "Ethanone, 1-[4-(1<em>H</em>-indol-3-yl)-1(4<em>H</em>)-pyridinyl]-;Pyridine, 1-acetyl-1,4-dihydro-4-(1<em>H</em>-indol-3-yl)-;Pyridine, 1-acetyl-1,4-dihydro-4-indol-3-yl-;1-[4-(1<em>H</em>-Indol-3-yl)-1(4<em>H</em>)-pyridinyl]ethanone;1-[4-(1<em>H</em>-Indol-3-yl)-4<em>H</em>-pyridin-1-yl]ethanone;1-[4-(1<em>H</em>-Indol-3-yl)pyridin-1(4<em>H</em>)-yl]ethan-1-one;1-[4-(1<em>H</em>-Indol-3-yl)-1,4-dihydropyridin-1-yl]ethan-1-one",
    "duplicated_cas_no": "",
    "SMILES": "C(C)(=O)N1C=CC(C=2C=3C(NC2)=CC=CC3)C=C1",
    "meta_data": {
        "InChI": "InChI=1S/C15H14N2O/c1-11(18)17-8-6-12(7-9-17)14-10-16-15-5-3-2-4-13(14)15/h2-10,12,16H,1H3",
        "InChIKey": null,
        "Canonical SMILES": "O=C(N1C=CC(C=C1)C2=CNC=3C=CC=CC32)C",
        "Molecular Formula": "C<sub>15</sub>H<sub>14</sub>N<sub>2</sub>O",
        "Molecular Mass": "238.28",
        "Melting Point": "155 °C"
    }
}