{
    "cas_no": "459-32-5",
    "key_name": "3-(4-Fluorophenyl)-2-propenoic acid",
    "cn_name": "对氟肉桂酸;4-氟肉桂酸;",
    "alternate_name": "2-Propenoic acid, 3-(4-fluorophenyl)-;Cinnamic acid, <em>p</em>-fluoro-;3-(4-Fluorophenyl)-2-propenoic acid;<em>p</em>-Fluorocinnamic acid;4-Fluorocinnamic acid;NSC 74070;3-(4-Fluorophenyl)acrylic acid",
    "duplicated_cas_no": "",
    "SMILES": "C(=CC(O)=O)C1=CC=C(F)C=C1",
    "meta_data": {
        "InChI": "InChI=1S/C9H7FO2/c10-8-4-1-7(2-5-8)3-6-9(11)12/h1-6H,(H,11,12)",
        "InChIKey": null,
        "Canonical SMILES": "O=C(O)C=CC1=CC=C(F)C=C1",
        "Molecular Formula": "C<sub>9</sub>H<sub>7</sub>FO<sub>2</sub>",
        "Molecular Mass": "166.15",
        "Melting Point": "209-210 °C (decomp)"
    }
}