{
    "cas_no": "81-58-3",
    "key_name": "1,4,5,8-Tetrachloro-9,10-anthracenedione",
    "cn_name": "1,4,5,8-四氯蒽醌;",
    "alternate_name": "9,10-Anthracenedione, 1,4,5,8-tetrachloro-;Anthraquinone, 1,4,5,8-tetrachloro-;1,4,5,8-Tetrachloro-9,10-anthracenedione;1,4,5,8-Tetrachloroanthraquinone;1,4,5,8-Tetrachloro-9,10-anthraquinone;NSC 513487",
    "duplicated_cas_no": "",
    "SMILES": "O=C1C=2C(C(=O)C=3C1=C(Cl)C=CC3Cl)=C(Cl)C=CC2Cl",
    "meta_data": {
        "InChI": "InChI=1S/C14H4Cl4O2/c15-5-1-2-6(16)10-9(5)13(19)11-7(17)3-4-8(18)12(11)14(10)20/h1-4H",
        "InChIKey": null,
        "Canonical SMILES": "O=C1C=2C(Cl)=CC=C(Cl)C2C(=O)C=3C(Cl)=CC=C(Cl)C13",
        "Molecular Formula": "C<sub>14</sub>H<sub>4</sub>Cl<sub>4</sub>O<sub>2</sub>",
        "Molecular Mass": "345.99",
        "Melting Point": "341-342 °C"
    }
}