{
    "cas_no": "7529-16-0",
    "key_name": "5-Ethenyl-2-pyrrolidinone",
    "cn_name": "5-乙烯基-2-吡咯烷酮;",
    "alternate_name": "2-Pyrrolidinone, 5-ethenyl-;2-Pyrrolidinone, 5-vinyl-;5-Ethenyl-2-pyrrolidinone;5-Vinyl-2-pyrrolidinone;MDL 17637-03;(±)-5-Vinylpyrrolidin-2-one",
    "duplicated_cas_no": "160168-20-7",
    "SMILES": "C(=C)C1NC(=O)CC1",
    "meta_data": {
        "InChI": "InChI=1S/C6H9NO/c1-2-5-3-4-6(8)7-5/h2,5H,1,3-4H2,(H,7,8)",
        "InChIKey": null,
        "Canonical SMILES": "O=C1NC(C=C)CC1",
        "Molecular Formula": "C<sub>6</sub>H<sub>9</sub>NO",
        "Molecular Mass": "111.14",
        "Boiling Point": "85-90 °C @ Press: 0.1 Torr"
    }
}