{
    "cas_no": "3430-21-5",
    "key_name": "2-Amino-5-bromo-3-methylpyridine",
    "cn_name": "2-氨基-3-甲基-5-溴吡啶;",
    "alternate_name": "2-Pyridinamine, 5-bromo-3-methyl-;3-Picoline, 2-amino-5-bromo-;5-Bromo-3-methyl-2-pyridinamine;2-Amino-5-bromo-3-methylpyridine;2-Amino-3-methyl-5-bromopyridine;5-Bromo-3-methylpyridin-2-ylamine;5-Bromo-3-methyl-2-aminopyridine;2-Amino-5-bromo-3-picoline;5-Bromo-3-methylpyridin-2-amine",
    "duplicated_cas_no": "",
    "SMILES": "CC1=C(N)N=CC(Br)=C1",
    "meta_data": {
        "InChI": "InChI=1S/C6H7BrN2/c1-4-2-5(7)3-9-6(4)8/h2-3H,1H3,(H2,8,9)",
        "InChIKey": null,
        "Canonical SMILES": "BrC1=CN=C(N)C(=C1)C",
        "Molecular Formula": "C<sub>6</sub>H<sub>7</sub>BrN<sub>2</sub>",
        "Molecular Mass": "187.04",
        "Melting Point": "90-92 °C"
    }
}