{
    "cas_no": "623-11-0",
    "key_name": "1-Methyl-4-nitrosobenzene",
    "cn_name": "对硝基甲苯;",
    "alternate_name": "Benzene, 1-methyl-4-nitroso-;Toluene, <em>p</em>-nitroso-;1-Methyl-4-nitrosobenzene;<em>p</em>-Nitrosotoluene;<em>p</em>-Methylnitrosobenzene;4-Nitrosotoluene;4-Methylnitrosobenzene;4-Methyl-1-nitrosobenzene",
    "duplicated_cas_no": "",
    "SMILES": "N(=O)C1=CC=C(C)C=C1",
    "meta_data": {
        "InChI": "InChI=1S/C7H7NO/c1-6-2-4-7(8-9)5-3-6/h2-5H,1H3",
        "InChIKey": null,
        "Canonical SMILES": "O=NC1=CC=C(C=C1)C",
        "Molecular Formula": "C<sub>7</sub>H<sub>7</sub>NO",
        "Molecular Mass": "121.14",
        "Melting Point": "48 °C"
    }
}