{
    "cas_no": "6264-98-8",
    "key_name": "3-[(2-Methylphenyl)amino]phenol",
    "cn_name": "邻甲基间羟基二苯胺;",
    "alternate_name": "Phenol, 3-[(2-methylphenyl)amino]-;Phenol, <em>m</em>-(<em>o</em>-toluidino)-;3-[(2-Methylphenyl)amino]phenol;<em>m</em>-(<em>o</em>-Toluidino)phenol;3-Hydroxy-2′-methyldiphenylamine;3-(2-Methylanilino)phenol;2-Methyl-3′-hydroxydiphenylamine;3-<em>o</em>-Tolylamino-phenol",
    "duplicated_cas_no": "",
    "SMILES": "N(C1=CC(O)=CC=C1)C2=C(C)C=CC=C2",
    "meta_data": {
        "InChI": "InChI=1S/C13H13NO/c1-10-5-2-3-8-13(10)14-11-6-4-7-12(15)9-11/h2-9,14-15H,1H3",
        "InChIKey": null,
        "Canonical SMILES": "OC1=CC=CC(=C1)NC=2C=CC=CC2C",
        "Molecular Formula": "C<sub>13</sub>H<sub>13</sub>NO",
        "Molecular Mass": "199.25",
        "Boiling Point": "187 °C @ Press: 2 Torr"
    }
}