{
    "cas_no": "1622-55-5",
    "key_name": "9,10-Dihydro-4<em>H</em>-benzo[4,5]cyclohepta[1,2-<em>b</em>]thiophen-4-one",
    "cn_name": "9,10-二氢-4H-苯并[4,5]环庚三烯并[1,2-B]噻吩-4-酮;",
    "alternate_name": "4<em>H</em>-Benzo[4,5]cyclohepta[1,2-<em>b</em>]thiophen-4-one, 9,10-dihydro-;9,10-Dihydro-4<em>H</em>-benzo[4,5]cyclohepta[1,2-<em>b</em>]thiophen-4-one",
    "duplicated_cas_no": "",
    "SMILES": "O=C1C2=C(CCC=3C1=CC=CC3)SC=C2",
    "meta_data": {
        "InChI": "InChI=1S/C13H10OS/c14-13-10-4-2-1-3-9(10)5-6-12-11(13)7-8-15-12/h1-4,7-8H,5-6H2",
        "InChIKey": null,
        "Canonical SMILES": "O=C1C=2C=CSC2CCC=3C=CC=CC13",
        "Molecular Formula": "C<sub>13</sub>H<sub>10</sub>OS",
        "Molecular Mass": "214.28",
        "Boiling Point": "125-140 °C @ Press: 0.05 Torr"
    }
}