{
    "cas_no": "1055-23-8",
    "key_name": "9,9′-Bianthryl",
    "cn_name": "9,9\"-联蒽;",
    "alternate_name": "9,9′-Bianthracene;9,9′-Bianthryl;9,9′-Dianthracene;9-(9-Anthryl)anthracene;9,9′-Bianthracenyl;9,9′-Bisanthryl;9,9′-Dianthryl;NSC 179353",
    "duplicated_cas_no": "",
    "SMILES": "C=1(C2=C(C=C3C1C=CC=C3)C=CC=C2)C=4C5=C(C=C6C4C=CC=C6)C=CC=C5",
    "meta_data": {
        "InChI": "InChI=1S/C28H18/c1-5-13-23-19(9-1)17-20-10-2-6-14-24(20)27(23)28-25-15-7-3-11-21(25)18-22-12-4-8-16-26(22)28/h1-18H",
        "InChIKey": null,
        "Canonical SMILES": "C=1C=CC=2C(C1)=CC=3C=CC=CC3C2C=4C=5C=CC=CC5C=C6C=CC=CC64",
        "Molecular Formula": "C<sub>28</sub>H<sub>18</sub>",
        "Molecular Mass": "354.44",
        "Melting Point": "&gt;360 °C"
    }
}