{
    "cas_no": "926-65-8",
    "key_name": "Isopropyl vinyl ether",
    "cn_name": "异丙基乙烯基醚;乙烯基异丙基醚;",
    "alternate_name": "Propane, 2-(ethenyloxy)-;Ether, isopropyl vinyl;2-(Ethenyloxy)propane;Isopropyl vinyl ether;Vinyl isopropyl ether;Isopropoxyethylene;Isopropoxyethene;2-Ethenoxypropane",
    "duplicated_cas_no": "",
    "SMILES": "O(C(C)C)C=C",
    "meta_data": {
        "InChI": "InChI=1S/C5H10O/c1-4-6-5(2)3/h4-5H,1H2,2-3H3",
        "InChIKey": null,
        "Canonical SMILES": "O(C=C)C(C)C",
        "Molecular Formula": "C<sub>5</sub>H<sub>10</sub>O",
        "Molecular Mass": "86.13",
        "Boiling Point": "55.5 °C",
        "Melting Point": "-140 °C",
        "Density": "0.7560 g/cm³ @ Temp: 20 °C"
    }
}