{
    "cas_no": "113558-15-9",
    "key_name": "Icariside II",
    "cn_name": "宝藿苷I;",
    "alternate_name": "4<em>H</em>-1-Benzopyran-4-one, 3-[(6-deoxy-α-<span class=\"text-smallcaps\">L</span>-mannopyranosyl)oxy]-5,7-dihydroxy-2-(4-methoxyphenyl)-8-(3-methyl-2-buten-1-yl)-;4<em>H</em>-1-Benzopyran-4-one, 3-[(6-deoxy-α-<span class=\"text-smallcaps\">L</span>-mannopyranosyl)oxy]-5,7-dihydroxy-2-(4-methoxyphenyl)-8-(3-methyl-2-butenyl)-;3-[(6-Deoxy-α-<span class=\"text-smallcaps\">L</span>-mannopyranosyl)oxy]-5,7-dihydroxy-2-(4-methoxyphenyl)-8-(3-methyl-2-buten-1-yl)-4<em>H</em>-1-benzopyran-4-one;Icariside II;Baohuoside I;Baohuoside 1;Icariin II;Baohuside I",
    "duplicated_cas_no": "",
    "SMILES": "C(C=C(C)C)C1=C2C(C(=O)C(O[C@H]3[C@H](O)[C@H](O)[C@@H](O)[C@H](C)O3)=C(O2)C4=CC=C(OC)C=C4)=C(O)C=C1O",
    "meta_data": {
        "InChI": "InChI=1S/C27H30O10/c1-12(2)5-10-16-17(28)11-18(29)19-21(31)26(37-27-23(33)22(32)20(30)13(3)35-27)24(36-25(16)19)14-6-8-15(34-4)9-7-14/h5-9,11,13,20,22-23,27-30,32-33H,10H2,1-4H3/t13-,20-,22+,23+,27-/m0/s1",
        "InChIKey": null,
        "Canonical SMILES": "O=C1C(OC2OC(C)C(O)C(O)C2O)=C(OC=3C1=C(O)C=C(O)C3CC=C(C)C)C=4C=CC(OC)=CC4",
        "Molecular Formula": "C<sub>27</sub>H<sub>30</sub>O<sub>10</sub>",
        "Molecular Mass": "514.52",
        "Melting Point": "202-203 °C"
    }
}