{
    "cas_no": "14572-89-5",
    "key_name": "4-Amino-α-methylbenzenemethanol",
    "cn_name": null,
    "alternate_name": "Benzenemethanol, 4-amino-α-methyl-;Benzyl alcohol, <em>p</em>-amino-α-methyl-;4-Amino-α-methylbenzenemethanol;4-Amino-α-methylbenzyl alcohol;1-(4-Aminophenyl)ethanol;1-(<em>p</em>-Aminophenyl)ethanol;[4-(1-Hydroxyethyl)phenyl]amine;4-(1-Hydroxyethyl)aniline;(<em>RS</em>)-1-(4-Aminophenyl)ethanol;<em>p</em>-Amino-α-methylbenzyl alcohol;1-(4-Aminophenyl)ethan-1-ol",
    "duplicated_cas_no": "93453-80-6",
    "SMILES": "C(C)(O)C1=CC=C(N)C=C1",
    "meta_data": {
        "InChI": "InChI=1S/C8H11NO/c1-6(10)7-2-4-8(9)5-3-7/h2-6,10H,9H2,1H3",
        "InChIKey": null,
        "Canonical SMILES": "OC(C1=CC=C(N)C=C1)C",
        "Molecular Formula": "C<sub>8</sub>H<sub>11</sub>NO",
        "Molecular Mass": "137.18",
        "Melting Point": "60-61 °C"
    }
}