{
    "cas_no": "658-79-7",
    "key_name": "Glycyl-<span class=\"text-smallcaps\">L</span>-tyrosine",
    "cn_name": "甘氨酰-L-酪氨酸;",
    "alternate_name": "<span class=\"text-smallcaps\">L</span>-Tyrosine, glycyl-;Tyrosine, <em>N</em>-glycyl-, <span class=\"text-smallcaps\">L</span>-;<span class=\"text-smallcaps\">L</span>-Tyrosine, <em>N</em>-glycyl-;Glycyl-<span class=\"text-smallcaps\">L</span>-tyrosine;Glycyltyrosine;<em>N</em>-Glycyltyrosine;Glycine-tyrosine;NSC 83260;5: PN: WO2008106043 TABLE: 6 claimed protein;2: PN: WO2014063098 TABLE: 5 claimed protein;39: PN: US20130123467 SEQID: 43 claimed protein;Gly-<span class=\"text-smallcaps\">L</span>-Try;5: PN: WO2008106043 TABLE: 6 claimed sequence;1: PN: JP2018014956 PAGE: 2 claimed sequence;(2S)-2-[(2-Azaniumylacetyl)amino]-3-(4-hydroxyphenyl)propanoate;(<em>S</em>)-2-(2-Aminoacetamido)-3-(4-hydroxyphenyl)propanoic acid;(2S)-2-(2-Aminoacetamido)-3-(4-hydroxyphenyl)propanoic acid;34: PN: WO2022012559 SEQID: 36 claimed protein;72: PN: WO2022117050 SEQID: 81 claimed protein;468: PN: WO2022125673 SEQID: 468 claimed protein;167: PN: WO2023161197 SEQID: 169 claimed sequence",
    "duplicated_cas_no": "6491-57-2",
    "SMILES": "C([C@H](NC(CN)=O)C(O)=O)C1=CC=C(O)C=C1",
    "meta_data": {
        "InChI": "InChI=1S/C11H14N2O4/c12-6-10(15)13-9(11(16)17)5-7-1-3-8(14)4-2-7/h1-4,9,14H,5-6,12H2,(H,13,15)(H,16,17)/t9-/m0/s1",
        "InChIKey": null,
        "Canonical SMILES": "O=C(O)C(NC(=O)CN)CC1=CC=C(O)C=C1",
        "Molecular Formula": "C<sub>11</sub>H<sub>14</sub>N<sub>2</sub>O<sub>4</sub>",
        "Molecular Mass": "238.24",
        "Melting Point": "130 °C (decomp)"
    }
}