{
    "cas_no": "13450-90-3",
    "key_name": "Gallium chloride",
    "cn_name": "氯化镓;三氯化镓;",
    "alternate_name": "Gallium chloride (GaCl<sub>3</sub>);Gallium trichloride;Trichlorogallium;Gallium chloride;Gallium (III) chloride;NSC 94002",
    "duplicated_cas_no": "",
    "SMILES": "[Ga](Cl)(Cl)Cl",
    "meta_data": {
        "InChI": "InChI=1S/3ClH.Ga/h3*1H;/q;;;+3/p-3",
        "InChIKey": null,
        "Canonical SMILES": "Cl[Ga](Cl)Cl",
        "Molecular Formula": "Cl<sub>3</sub>Ga",
        "Molecular Mass": "",
        "Boiling Point": "201 °C",
        "Melting Point": "77.9 °C",
        "Density": "2.47 g/cm³"
    }
}