{
    "cas_no": "3378-71-0",
    "key_name": "2,5-Dimethylpyrrolidine",
    "cn_name": "2,5-二甲基吡咯烷;",
    "alternate_name": "Pyrrolidine, 2,5-dimethyl-;2,5-Dimethylpyrrolidine;NSC 49109;2,5-Dimethyl-1<em>H</em>-pyrrolidine",
    "duplicated_cas_no": "",
    "SMILES": "CC1NC(C)CC1",
    "meta_data": {
        "InChI": "InChI=1S/C6H13N/c1-5-3-4-6(2)7-5/h5-7H,3-4H2,1-2H3",
        "InChIKey": null,
        "Canonical SMILES": "N1C(C)CCC1C",
        "Molecular Formula": "C<sub>6</sub>H<sub>13</sub>N",
        "Molecular Mass": "99.17",
        "Boiling Point": "106.5 °C",
        "Density": "0.7868 g/cm³ @ Temp: 20 °C"
    }
}