{
    "cas_no": "6118-51-0",
    "key_name": "<em>exo</em>-5,6-Dehydronorcantharidin",
    "cn_name": null,
    "alternate_name": "4,7-Epoxyisobenzofuran-1,3-dione, 3a,4,7,7a-tetrahydro-, (3a<em>R</em>,4<em>S</em>,7<em>R</em>,7a<em>S</em>)-<em>rel</em>-;7-Oxabicyclo[2.2.1]hept-5-ene-2,3-dicarboxylic anhydride, <em>exo</em>-;4,7-Epoxyisobenzofuran-1,3-dione, 3a,4,7,7a-tetrahydro-, (3aα,4β,7β,7aα)-;<em>rel</em>-(3a<em>R</em>,4<em>S</em>,7<em>R</em>,7a<em>S</em>)-3a,4,7,7a-Tetrahydro-4,7-epoxyisobenzofuran-1,3-dione;<em>exo</em>-<em>cis</em>-3,6-Endoxo-Δ<sup>4</sup>-tetrahydrophthalic anhydride;7-Oxabicyclo[2.2.1]hept-5-ene-2,3-<em>exo</em>-dicarboxylic anhydride;<em>exo</em>-3,6-Epoxy-1,2,3,6-tetrahydrophthalic anhydride;<em>exo</em>-7-Oxabicyclo[2.2.1]hept-5-ene-2,3-dicarboxylic anhydride;(<em>exo</em>,<em>exo</em>)-7-Oxabicyclo[2.2.1]hept-5-ene-2,3-dicarboxylic anhydride;5,6-Dehydronorcantharidin;NSC 144085;<em>exo</em>-3,6-Epoxy-1,2,3,6-tetrahydrophthalic acid anhydride;<em>exo</em>-7-Oxabicyclo[2.2.1]hept-5-ene-2,3-dicarboxylic acid anhydride;<em>exo</em>-5,6-Dehydronorcantharidin;<em>exo</em>-7-Oxanorbornene-5,6-dicarboxylic anhydride;<em>exo</em>-7-Oxanorbornene-2,3-dicarboxylic anhydride",
    "duplicated_cas_no": "82337-02-8;201815-14-7;261164-65-2;817201-05-1;1065204-83-2;1266134-13-7;1393821-39-0;1446101-66-1;1498298-09-1;2375099-59-3;2903470-99-3",
    "SMILES": "O=C1[C@]2([C@]([C@]3(O[C@@]2(C=C3)[H])[H])(C(=O)O1)[H])[H]",
    "meta_data": {
        "InChI": "InChI=1/C8H6O4/c9-7-5-3-1-2-4(11-3)6(5)8(10)12-7/h1-6H/t3-,4+,5-,6+",
        "InChIKey": null,
        "Canonical SMILES": "O=C1OC(=O)C2C3OC(C=C3)C12",
        "Molecular Formula": "C<sub>8</sub>H<sub>6</sub>O<sub>4</sub>",
        "Molecular Mass": "166.13",
        "Melting Point": "123-124 °C"
    }
}