{
    "cas_no": "110877-64-0",
    "key_name": "2-Chloro-4,5-difluorobenzoic acid",
    "cn_name": "2-氯-4,5-二氟苯甲酸;",
    "alternate_name": "Benzoic acid, 2-chloro-4,5-difluoro-;2-Chloro-4,5-difluorobenzoic acid",
    "duplicated_cas_no": "",
    "SMILES": "C(O)(=O)C1=C(Cl)C=C(F)C(F)=C1",
    "meta_data": {
        "InChI": "InChI=1S/C7H3ClF2O2/c8-4-2-6(10)5(9)1-3(4)7(11)12/h1-2H,(H,11,12)",
        "InChIKey": null,
        "Canonical SMILES": "O=C(O)C1=CC(F)=C(F)C=C1Cl",
        "Molecular Formula": "C<sub>7</sub>H<sub>3</sub>ClF<sub>2</sub>O<sub>2</sub>",
        "Molecular Mass": "192.55",
        "Melting Point": "86-88 °C"
    }
}