{
    "cas_no": "1331-83-5",
    "key_name": "Anisyl acetate",
    "cn_name": null,
    "alternate_name": "Benzenemethanol, <em>ar</em>-methoxy-, 1-acetate;Benzyl alcohol, <em>ar</em>-methoxy-, acetate;Benzenemethanol, <em>ar</em>-methoxy-, acetate;Anisyl acetate",
    "duplicated_cas_no": "",
    "SMILES": "",
    "meta_data": {
        "InChI": "",
        "InChIKey": null,
        "Canonical SMILES": "",
        "Molecular Formula": "C<sub>10</sub>H<sub>12</sub>O<sub>3</sub>",
        "Molecular Mass": "",
        "Boiling Point": "115-130 °C @ Press: 6 Torr"
    }
}