{
    "cas_no": "6609-57-0",
    "key_name": "2-Ethoxybenzonitrile",
    "cn_name": "2-乙氧基苯腈;邻乙氧基苯腈;",
    "alternate_name": "Benzonitrile, 2-ethoxy-;Benzonitrile, <em>o</em>-ethoxy-;2-Ethoxybenzonitrile;<em>o</em>-Ethoxybenzonitrile",
    "duplicated_cas_no": "",
    "SMILES": "O(CC)C1=C(C#N)C=CC=C1",
    "meta_data": {
        "InChI": "InChI=1S/C9H9NO/c1-2-11-9-6-4-3-5-8(9)7-10/h3-6H,2H2,1H3",
        "InChIKey": null,
        "Canonical SMILES": "N#CC=1C=CC=CC1OCC",
        "Molecular Formula": "C<sub>9</sub>H<sub>9</sub>NO",
        "Molecular Mass": "147.17",
        "Melting Point": "120 °C"
    }
}