{
    "cas_no": "7541-49-3",
    "key_name": "3,7,11,15-Tetramethyl-2-hexadecen-1-ol",
    "cn_name": "植醇;",
    "alternate_name": "2-Hexadecen-1-ol, 3,7,11,15-tetramethyl-;3,7,11,15-Tetramethyl-2-hexadecen-1-ol;3,7,11,15-Tetramethyl-2-hexadecene-1-ol",
    "duplicated_cas_no": "844467-91-0",
    "SMILES": "C(CCCC(CCCC(C)C)C)(CCCC(=CCO)C)C",
    "meta_data": {
        "InChI": "InChI=1S/C20H40O/c1-17(2)9-6-10-18(3)11-7-12-19(4)13-8-14-20(5)15-16-21/h15,17-19,21H,6-14,16H2,1-5H3",
        "InChIKey": null,
        "Canonical SMILES": "OCC=C(C)CCCC(C)CCCC(C)CCCC(C)C",
        "Molecular Formula": "C<sub>20</sub>H<sub>40</sub>O",
        "Molecular Mass": "296.53",
        "Boiling Point": "202-204 °C @ Press: 10 Torr",
        "Density": "0.856 g/cm³ @ Temp: 20 °C"
    }
}