{
    "cas_no": "91-73-6",
    "key_name": "Dibenzylaniline",
    "cn_name": "N,N-二苄基苯胺;",
    "alternate_name": "Benzenemethanamine, <em>N</em>-phenyl-<em>N</em>-(phenylmethyl)-;Dibenzylamine, <em>N</em>-phenyl-;<em>N</em>-Phenyl-<em>N</em>-(phenylmethyl)benzenemethanamine;<em>N</em>,<em>N</em>-Dibenzylaniline;Benzenamine, <em>N</em>,<em>N</em>-bis(phenylmethyl)-;Dibenzylaniline;<em>N</em>-Phenyldibenzylamine;NSC 6243",
    "duplicated_cas_no": "",
    "SMILES": "N(CC1=CC=CC=C1)(CC2=CC=CC=C2)C3=CC=CC=C3",
    "meta_data": {
        "InChI": "InChI=1S/C20H19N/c1-4-10-18(11-5-1)16-21(20-14-8-3-9-15-20)17-19-12-6-2-7-13-19/h1-15H,16-17H2",
        "InChIKey": null,
        "Canonical SMILES": "C=1C=CC(=CC1)N(CC=2C=CC=CC2)CC=3C=CC=CC3",
        "Molecular Formula": "C<sub>20</sub>H<sub>19</sub>N",
        "Molecular Mass": "273.37",
        "Boiling Point": "226 °C @ Press: 10 Torr",
        "Melting Point": "69 °C",
        "Density": "1.04436 g/cm³ @ Temp: 80 °C"
    }
}