{
    "cas_no": "2051-31-2",
    "key_name": "4-Decanol",
    "cn_name": "4-正癸醇;4-正癸醇;",
    "alternate_name": "4-Decanol;1-Propylheptyl alcohol;<em>dl</em>-Decan-4-ol;(±)-4-Decanol;NSC 2637",
    "duplicated_cas_no": "74683-68-4",
    "SMILES": "C(CCCCCC)(CCC)O",
    "meta_data": {
        "InChI": "InChI=1S/C10H22O/c1-3-5-6-7-9-10(11)8-4-2/h10-11H,3-9H2,1-2H3",
        "InChIKey": null,
        "Canonical SMILES": "OC(CCC)CCCCCC",
        "Molecular Formula": "C<sub>10</sub>H<sub>22</sub>O",
        "Molecular Mass": "158.28",
        "Boiling Point": "210.5 °C",
        "Melting Point": "-11 °C",
        "Density": "0.8244 g/cm³ @ Temp: 21 °C"
    }
}