{
    "cas_no": "888504-28-7",
    "key_name": "1,3,4-Oxadiazole-2-carboxylic acid, 5-methyl-, potassium salt (1:1)",
    "cn_name": "5-甲基-1,3,4-恶二唑-2-羧酸钾;",
    "alternate_name": "1,3,4-Oxadiazole-2-carboxylic acid, 5-methyl-, potassium salt (1:1);1,3,4-Oxadiazole-2-carboxylic acid, 5-methyl-, potassium salt;5-methyl-1,3,4-oxadiazole-2-carboxylic acid potassium salt;Potassium 5-methyl-1,3,4-oxadiazole-2-carboxylate;5-Methyl-1,3,4-oxadiazole-2-carboxylic acid potassium",
    "duplicated_cas_no": "",
    "SMILES": "C(O)(=O)C=1OC(C)=NN1.[K]",
    "meta_data": {
        "InChI": "InChI=1S/C4H4N2O3.K/c1-2-5-6-3(9-2)4(7)8;/h1H3,(H,7,8);",
        "InChIKey": null,
        "Canonical SMILES": "[K].O=C(O)C1=NN=C(O1)C",
        "Molecular Formula": "C<sub>4</sub>H<sub>4</sub>N<sub>2</sub>O<sub>3</sub>.K",
        "Molecular Mass": "",
        "Melting Point": "258.3 °C (decomp)"
    }
}