{
    "cas_no": "645-05-6",
    "key_name": "Altretamine",
    "cn_name": "六甲蜜胺;2,4,6-三(二甲氨基)均三嗪;",
    "alternate_name": "1,3,5-Triazine-2,4,6-triamine, <em>N</em><sup>2</sup>,<em>N</em><sup>2</sup>,<em>N</em><sup>4</sup>,<em>N</em><sup>4</sup>,<em>N</em><sup>6</sup>,<em>N</em><sup>6</sup>-hexamethyl-;Melamine, hexamethyl-;1,3,5-Triazine-2,4,6-triamine, <em>N</em>,<em>N</em>,<em>N</em>′,<em>N</em>′,<em>N</em>′′,<em>N</em>′′-hexamethyl-;<em>N</em><sup>2</sup>,<em>N</em><sup>2</sup>,<em>N</em><sup>4</sup>,<em>N</em><sup>4</sup>,<em>N</em><sup>6</sup>,<em>N</em><sup>6</sup>-Hexamethyl-1,3,5-triazine-2,4,6-triamine;NSC 13875;ENT 50852;Hemel;Hexamethylmelamine;HMM;2,4,6-Tris(dimethylamino)-<em>s</em>-triazine;2,4,6-Tris(dimethylamino)-1,3,5-triazine;Altretamine;1,3,5-Tris(dimethylamino)-<em>s</em>-triazine;Hexalen;Hexylen;2-<em>N</em>,2-<em>N</em>,4-<em>N</em>,4-<em>N</em>,6-<em>N</em>,6-<em>N</em>-Hexamethyl-1,3,5-triazine-2,4,6-triamine",
    "duplicated_cas_no": "",
    "SMILES": "N(C)(C)C=1N=C(N(C)C)N=C(N(C)C)N1",
    "meta_data": {
        "InChI": "InChI=1S/C9H18N6/c1-13(2)7-10-8(14(3)4)12-9(11-7)15(5)6/h1-6H3",
        "InChIKey": null,
        "Canonical SMILES": "N=1C(=NC(=NC1N(C)C)N(C)C)N(C)C",
        "Molecular Formula": "C<sub>9</sub>H<sub>18</sub>N<sub>6</sub>",
        "Molecular Mass": "210.28",
        "Melting Point": "172-174 °C"
    }
}