{
    "cas_no": "88-15-3",
    "key_name": "2-Acetylthiophene",
    "cn_name": "2-乙酰基噻吩;",
    "alternate_name": "Ethanone, 1-(2-thienyl)-;Ketone, methyl 2-thienyl;1-(2-Thienyl)ethanone;2-Acetylthiophene;Methyl 2-thienyl ketone;2-Thienyl methyl ketone;2-Acetothienone;α-Acetylthiophene;2-Acetothiophene;1-(2-Thienyl)-1-ethanone;NSC 2345;1-(Thiophen-2-yl)ethanone;Thiophen-2-yl methyl ketone;2-(Acetyl)thiofuran;1-(Thiophene-2-yl)ethanone;1-(Thiophen-2-yl)ethan-1-one;2-Acetaldehyde thiophene",
    "duplicated_cas_no": "",
    "SMILES": "C(C)(=O)C1=CC=CS1",
    "meta_data": {
        "InChI": "InChI=1S/C6H6OS/c1-5(7)6-3-2-4-8-6/h2-4H,1H3",
        "InChIKey": null,
        "Canonical SMILES": "O=C(C=1SC=CC1)C",
        "Molecular Formula": "C<sub>6</sub>H<sub>6</sub>OS",
        "Molecular Mass": "126.18",
        "Boiling Point": "213.5 °C",
        "Melting Point": "10.5 °C",
        "Density": "1.1709 g/cm³ @ Temp: 20 °C"
    }
}