{
    "cas_no": "24691-80-3",
    "key_name": "Fenfuram",
    "cn_name": "呋菌胺;担菌胺；三甲呋酰胺；2,4,5-三甲基-3-呋喃基酰苯胺;",
    "alternate_name": "3-Furancarboxamide, 2-methyl-<em>N</em>-phenyl-;3-Furanilide, 2-methyl-;2-Methyl-<em>N</em>-phenyl-3-furancarboxamide;Pano-ram;Fenfuram;Fenuram;2-Methyl-furan-3-carboxanilide;2-Methyl-furan-3-carboxylic acid phenylamide",
    "duplicated_cas_no": "68445-15-8",
    "SMILES": "C(NC1=CC=CC=C1)(=O)C2=C(C)OC=C2",
    "meta_data": {
        "InChI": "InChI=1S/C12H11NO2/c1-9-11(7-8-15-9)12(14)13-10-5-3-2-4-6-10/h2-8H,1H3,(H,13,14)",
        "InChIKey": null,
        "Canonical SMILES": "O=C(NC=1C=CC=CC1)C=2C=COC2C",
        "Molecular Formula": "C<sub>12</sub>H<sub>11</sub>NO<sub>2</sub>",
        "Molecular Mass": "201.22",
        "Melting Point": "109.5 °C"
    }
}