{
    "cas_no": "84-86-6",
    "key_name": "4-Amino-1-naphthalenesulfonic acid",
    "cn_name": "对氨基萘磺酸;4-氨基-1-萘磺酸;",
    "alternate_name": "1-Naphthalenesulfonic acid, 4-amino-;4-Amino-1-naphthalenesulfonic acid;Piria's acid;1,4-Naphthionic acid;α-Naphthylamine-4-sulfonic acid;1-Naphthylamine-4-sulfonic acid;Naphthionic acid;1-Amino-4-naphthalenesulfonic acid;1-Amino-4-sulfonaphthalene;NSC 4155;4-Aminonaphthalenesulfonic acid",
    "duplicated_cas_no": "",
    "SMILES": "S(=O)(=O)(O)C=1C2=C(C(N)=CC1)C=CC=C2",
    "meta_data": {
        "InChI": "InChI=1S/C10H9NO3S/c11-9-5-6-10(15(12,13)14)8-4-2-1-3-7(8)9/h1-6H,11H2,(H,12,13,14)",
        "InChIKey": null,
        "Canonical SMILES": "O=S(=O)(O)C1=CC=C(N)C=2C=CC=CC21",
        "Molecular Formula": "C<sub>10</sub>H<sub>9</sub>NO<sub>3</sub>S",
        "Molecular Mass": "223.25",
        "Melting Point": "240-241 °C"
    }
}