{
    "cas_no": "63659-19-8",
    "key_name": "Betaxolol hydrochloride",
    "cn_name": "盐酸倍他洛尔;1-[4-[2-(环丙基甲氧基)乙基]苯氧基]-3-[(1-甲基乙基)氨基]-2-丙醇盐酸盐;",
    "alternate_name": "2-Propanol, 1-[4-[2-(cyclopropylmethoxy)ethyl]phenoxy]-3-[(1-methylethyl)amino]-, hydrochloride (1:1);2-Propanol, 1-[4-[2-(cyclopropylmethoxy)ethyl]phenoxy]-3-[(1-methylethyl)amino]-, hydrochloride;Betaxolol hydrochloride;Betoptic;SL 75212;Kerlone;SLD 212;Betoptima;Betapress;Optipress;Lusopress",
    "duplicated_cas_no": "72424-72-7",
    "SMILES": "O(CC(CNC(C)C)O)C1=CC=C(CCOCC2CC2)C=C1.Cl",
    "meta_data": {
        "InChI": "InChI=1S/C18H29NO3.ClH/c1-14(2)19-11-17(20)13-22-18-7-5-15(6-8-18)9-10-21-12-16-3-4-16;/h5-8,14,16-17,19-20H,3-4,9-13H2,1-2H3;1H",
        "InChIKey": null,
        "Canonical SMILES": "Cl.OC(COC1=CC=C(C=C1)CCOCC2CC2)CNC(C)C",
        "Molecular Formula": "C<sub>18</sub>H<sub>29</sub>NO<sub>3</sub>.ClH",
        "Molecular Mass": "",
        "Melting Point": "116 °C"
    }
}