{
    "cas_no": "63-75-2",
    "key_name": "Arecoline",
    "cn_name": null,
    "alternate_name": "3-Pyridinecarboxylic acid, 1,2,5,6-tetrahydro-1-methyl-, methyl ester;Nicotinic acid, 1,2,5,6-tetrahydro-1-methyl-, methyl ester;Arecoline;Arecaidine methyl ester;Arecoline base;Methyl 1,2,5,6-tetrahydro-1-methylnicotinate;3-Methoxycarbonyl-1-methyl-1,2,5,6-tetrahydropyridine;Methyl <em>N</em>-methyl-1,2,5,6-tetrahydronicotinate;Arecolin;Methyl arecaidin;NSC 56321;Methylarecaidine;1-Methyl-1,2,5,6-tetrahydro-pyridine-3-carboxylic acid methyl ester;MeSH ID: D001115",
    "duplicated_cas_no": "1398-01-2",
    "SMILES": "C(OC)(=O)C=1CN(C)CCC1",
    "meta_data": {
        "InChI": "InChI=1S/C8H13NO2/c1-9-5-3-4-7(6-9)8(10)11-2/h4H,3,5-6H2,1-2H3",
        "InChIKey": null,
        "Canonical SMILES": "O=C(OC)C1=CCCN(C)C1",
        "Molecular Formula": "C<sub>8</sub>H<sub>13</sub>NO<sub>2</sub>",
        "Molecular Mass": "155.19",
        "Boiling Point": "209 °C",
        "Melting Point": "&lt;25 °C",
        "Density": "1.0495 g/cm³ @ Temp: 20 °C"
    }
}