{
    "cas_no": "89396-94-1",
    "key_name": "Imidapril hydrochloride",
    "cn_name": "盐酸咪达普利;",
    "alternate_name": "4-Imidazolidinecarboxylic acid, 3-[(2<em>S</em>)-2-[[(1<em>S</em>)-1-(ethoxycarbonyl)-3-phenylpropyl]amino]-1-oxopropyl]-1-methyl-2-oxo-, hydrochloride (1:1), (4<em>S</em>)-;4-Imidazolidinecarboxylic acid, 3-[2-[[1-(ethoxycarbonyl)-3-phenylpropyl]amino]-1-oxopropyl]-1-methyl-2-oxo-, monohydrochloride, [4<em>S</em>-[3[<em>R</em>*(<em>R</em>*)],4<em>R</em>*]]-;4-Imidazolidinecarboxylic acid, 3-[(2<em>S</em>)-2-[[(1<em>S</em>)-1-(ethoxycarbonyl)-3-phenylpropyl]amino]-1-oxopropyl]-1-methyl-2-oxo-, monohydrochloride, (4<em>S</em>)-;Imidapril hydrochloride;TA 6366;Tanapril;Novaloc;Tanatril",
    "duplicated_cas_no": "",
    "SMILES": "C([C@@H](N[C@@H](CCC1=CC=CC=C1)C(OCC)=O)C)(=O)N2[C@H](C(O)=O)CN(C)C2=O.Cl",
    "meta_data": {
        "InChI": "InChI=1S/C20H27N3O6.ClH/c1-4-29-19(27)15(11-10-14-8-6-5-7-9-14)21-13(2)17(24)23-16(18(25)26)12-22(3)20(23)28;/h5-9,13,15-16,21H,4,10-12H2,1-3H3,(H,25,26);1H/t13-,15-,16-;/m0./s1",
        "InChIKey": null,
        "Canonical SMILES": "Cl.O=C(O)C1N(C(=O)N(C)C1)C(=O)C(NC(C(=O)OCC)CCC=2C=CC=CC2)C",
        "Molecular Formula": "C<sub>20</sub>H<sub>27</sub>N<sub>3</sub>O<sub>6</sub>.ClH",
        "Molecular Mass": "",
        "Melting Point": "214-216 °C (decomp)"
    }
}