{
    "cas_no": "86-73-7",
    "key_name": "Fluorene",
    "cn_name": "芴;次联苯甲酮;9H-芴;二苯并五环;二亚苯基甲烷;2,2ˊ-亚甲基联苯;邻亚联苯基甲烷;茀(二次苯基甲烷);茀;",
    "alternate_name": "9<em>H</em>-Fluorene;Fluorene;<em>o</em>-Biphenylenemethane;Diphenylenemethane;2,2′-Methylenebiphenyl;Methane, diphenylene-;NSC 6787",
    "duplicated_cas_no": "84987-80-4",
    "SMILES": "C1=2C=3C(CC1=CC=CC2)=CC=CC3",
    "meta_data": {
        "InChI": "InChI=1S/C13H10/c1-3-7-12-10(5-1)9-11-6-2-4-8-13(11)12/h1-8H,9H2",
        "InChIKey": null,
        "Canonical SMILES": "C=1C=CC2=C(C1)C=3C=CC=CC3C2",
        "Molecular Formula": "C<sub>13</sub>H<sub>10</sub>",
        "Molecular Mass": "166.22",
        "Boiling Point": "295 °C",
        "Melting Point": "116-117 °C",
        "Density": "1.203 g/cm³ @ Temp: 0 °C"
    }
}