{
    "cas_no": "1559-34-8",
    "key_name": "Tetraethylene glycol monobutyl ether",
    "cn_name": "3,6,9,12-四氧杂十六烷-1-醇;3,6,9,12-四氧杂十六烷-1-醇;四甘醇单丁醚;聚四乙二醇单丁醚;",
    "alternate_name": "3,6,9,12-Tetraoxahexadecan-1-ol;Ethanol, 2-[2-[2-(2-butoxyethoxy)ethoxy]ethoxy]-;Tetraethylene glycol monobutyl ether;Tetraethylene glycol butyl ether;Tetraoxyethylene monobutyl ether;2-(2-(2-(2-Butoxyethoxy)ethoxy)ethoxy)ethanol;Butysenol 40;Butycenol 40",
    "duplicated_cas_no": "",
    "SMILES": "C(COCCOCCO)OCCOCCCC",
    "meta_data": {
        "InChI": "InChI=1S/C12H26O5/c1-2-3-5-14-7-9-16-11-12-17-10-8-15-6-4-13/h13H,2-12H2,1H3",
        "InChIKey": null,
        "Canonical SMILES": "OCCOCCOCCOCCOCCCC",
        "Molecular Formula": "C<sub>12</sub>H<sub>26</sub>O<sub>5</sub>",
        "Molecular Mass": "250.33",
        "Boiling Point": "189-194 °C @ Press: 0.17 Torr",
        "Density": "1.0104 g/cm³ @ Temp: 20 °C"
    }
}