{
    "cas_no": "142-58-5",
    "key_name": "<em>N</em>-Myristoylethanolamine",
    "cn_name": "肉豆蔻酰胺MEA;肉豆蔻酰胺MEA;",
    "alternate_name": "Tetradecanamide, <em>N</em>-(2-hydroxyethyl)-;<em>N</em>-(2-Hydroxyethyl)tetradecanamide;Myristic acid monoethanolamide;Myristic monoethanolamide;Loramine MY 228;Myristamide MEA;Comperlan MM;Schercomid MME;Myristyl monoethanolamide;<em>N</em>-Tetradecanoylethanolamine;<em>N</em>-Myristoylethanolamine;<em>N</em>-(2-Hydroxyethyl)myristamide;AM 3165;Tetradecanoic acid monoethanolamide",
    "duplicated_cas_no": "",
    "SMILES": "C(CCCCCCCCCCCC)C(NCCO)=O",
    "meta_data": {
        "InChI": "InChI=1S/C16H33NO2/c1-2-3-4-5-6-7-8-9-10-11-12-13-16(19)17-14-15-18/h18H,2-15H2,1H3,(H,17,19)",
        "InChIKey": null,
        "Canonical SMILES": "O=C(NCCO)CCCCCCCCCCCCC",
        "Molecular Formula": "C<sub>16</sub>H<sub>33</sub>NO<sub>2</sub>",
        "Molecular Mass": "271.44",
        "Melting Point": "93-94 °C"
    }
}