{
    "cas_no": "39627-84-4",
    "key_name": "2-Naphthoic acid hydrazide",
    "cn_name": "2-萘甲肼;",
    "alternate_name": "2-Naphthalenecarboxylic acid, hydrazide;2-Naphthoic acid hydrazide;β-Naphthoylhydrazine;β-Naphthoic acid hydrazide;2-Naphthoylhydrazine;2-Naphthoylhydrazide",
    "duplicated_cas_no": "",
    "SMILES": "C(NN)(=O)C1=CC2=C(C=C1)C=CC=C2",
    "meta_data": {
        "InChI": "InChI=1S/C11H10N2O/c12-13-11(14)10-6-5-8-3-1-2-4-9(8)7-10/h1-7H,12H2,(H,13,14)",
        "InChIKey": null,
        "Canonical SMILES": "O=C(NN)C=1C=CC=2C=CC=CC2C1",
        "Molecular Formula": "C<sub>11</sub>H<sub>10</sub>N<sub>2</sub>O",
        "Molecular Mass": "186.21",
        "Melting Point": "147.5 °C"
    }
}