{
    "cas_no": "363-72-4",
    "key_name": "Pentafluorobenzene",
    "cn_name": "五氟苯;1,2,3,4,5-五氟苯;",
    "alternate_name": "Benzene, 1,2,3,4,5-pentafluoro-;Benzene, pentafluoro-;1,2,3,4,5-Pentafluorobenzene;Pentafluorobenzene;NSC 88293",
    "duplicated_cas_no": "",
    "SMILES": "FC1=C(F)C(F)=C(F)C=C1F",
    "meta_data": {
        "InChI": "InChI=1S/C6HF5/c7-2-1-3(8)5(10)6(11)4(2)9/h1H",
        "InChIKey": null,
        "Canonical SMILES": "FC=1C=C(F)C(F)=C(F)C1F",
        "Molecular Formula": "C<sub>6</sub>HF<sub>5</sub>",
        "Molecular Mass": "168.06",
        "Boiling Point": "85.7 °C",
        "Melting Point": "-47.3 °C",
        "Density": "1.511 g/cm³ @ Temp: 23.8 °C"
    }
}