{
    "cas_no": "943-88-4",
    "key_name": "4-(4-Methoxyphenyl)-3-buten-2-one",
    "cn_name": "4-(4-甲氧苯基)-3-丁烯-2-酮;(甲氧亚苄基)丙酮;亚茴香基丙酮;对甲氧苯乙烯基甲基酮;",
    "alternate_name": "3-Buten-2-one, 4-(4-methoxyphenyl)-;3-Buten-2-one, 4-(<em>p</em>-methoxyphenyl)-;4-(4-Methoxyphenyl)-3-buten-2-one;<em>p</em>-Methoxybenzylideneacetone;<em>p</em>-Methoxybenzalacetone;4-Methoxybenzylideneacetone;4-(<em>p</em>-Methoxyphenyl)-3-buten-2-one;Methyl <em>p</em>-methoxystyryl ketone;1-(<em>p</em>-Methoxyphenyl)-1-buten-3-one;<em>p</em>-Methoxystyryl methyl ketone;4-Methoxybenzalacetone;Anisalacetone;<em>p</em>-Anisalacetone;4′-Methoxybenzylideneacetone;4-Methoxystyryl methyl ketone;NSC 31752;NSC 7946;4-(<em>p</em>-Methoxyphenyl)-3-butene-2-one",
    "duplicated_cas_no": "",
    "SMILES": "C(=CC(C)=O)C1=CC=C(OC)C=C1",
    "meta_data": {
        "InChI": "InChI=1S/C11H12O2/c1-9(12)3-4-10-5-7-11(13-2)8-6-10/h3-8H,1-2H3",
        "InChIKey": null,
        "Canonical SMILES": "O=C(C=CC1=CC=C(OC)C=C1)C",
        "Molecular Formula": "C<sub>11</sub>H<sub>12</sub>O<sub>2</sub>",
        "Molecular Mass": "176.21",
        "Melting Point": "72.6-73.5 °C"
    }
}