{
    "cas_no": "5779-72-6",
    "key_name": "2,4,5-Trimethylbenzaldehyde",
    "cn_name": "2,4,5-三甲基苯甲醛;",
    "alternate_name": "Benzaldehyde, 2,4,5-trimethyl-;2,4,5-Trimethylbenzaldehyde;Durylaldehyde;Duraldehyde",
    "duplicated_cas_no": "",
    "SMILES": "C(=O)C1=C(C)C=C(C)C(C)=C1",
    "meta_data": {
        "InChI": "InChI=1S/C10H12O/c1-7-4-9(3)10(6-11)5-8(7)2/h4-6H,1-3H3",
        "InChIKey": null,
        "Canonical SMILES": "O=CC=1C=C(C(=CC1C)C)C",
        "Molecular Formula": "C<sub>10</sub>H<sub>12</sub>O",
        "Molecular Mass": "148.20",
        "Melting Point": "42.5-43.5 °C"
    }
}