{
    "cas_no": "136-23-2",
    "key_name": "Zinc dibutyldithiocarbamate",
    "cn_name": "二丁基二硫代氨基甲酸锌;橡胶促进剂ZDBC;橡胶促进剂BZ;",
    "alternate_name": "Zinc, bis(dibutylcarbamodithioato-κ<em>S</em>,κ<em>S</em>′)-, (<em>T</em>-4)-;Zinc, bis(dibutyldithiocarbamato)-;Zinc, bis(dibutylcarbamodithioato-<em>S</em>,<em>S</em>′)-, (<em>T</em>-4)-;Carbamodithioic acid, dibutyl-, zinc complex;(<em>T</em>-4)-Bis(dibutylcarbamodithioato-κ<em>S</em>,κ<em>S</em>′)zinc;Aceto ZDBD;Butazate;Butazate 50D;Butyl zimate;Dibutyldithiocarbamic acid zinc salt;Vulcacure ZB;Zinc dibutyldithiocarbamate;Zinc <em>N</em>,<em>N</em>-dibutyldithiocarbamate;Soxinol BZ;(Dibutyldithiocarbamato)zinc(II);Bis(dibutyldithiocarbamato)zinc;Zinc bis(dibutyldithiocarbamate);Carbamodithioic acid, dibutyl-, zinc salt;Bis(<em>N</em>,<em>N</em>-dibutyldithiocarbamato)zinc;Butyl ziram;Vulkacit LDB;Zinc bis(<em>N</em>,<em>N</em>-dibutyldithiocarbamate);Accel BZ;Nocceler BZ;ZnBDC;Vulkacit LDS;Sanceler BZ;Perkacit ZDBC;Nocceler BZ-P;Nocceler BZ-G;Zinc di-<em>n</em>-butylthiocarbamate;NSC 36548;NSC 3880;Vulcafor ZDBC;Rhenogran ZBDC 80;Rhenogran ZDBC 75;Accelerator BZ;Antioxidant BZ;Rhenogran ZDBC 80;ZDBC;BZ;T 202;T 202 (antioxidant);ZDBC 80;BZ-P;ZDBC 50;Rhexon ZDBC 75;T 353;BZ 75;ZDBC 75;Nocceler BZ-S;Rhenocure LDB/C;Carbamodithioic acid, <em>N</em>,<em>N</em>-dibutyl-, zinc salt (2:1);Transcure ZDB 50;Bostex 497B",
    "duplicated_cas_no": "13497-84-2;20609-60-3;942266-56-0;1192843-75-6;1260237-19-1;1883563-94-7",
    "SMILES": "N(CCCC)(CCCC)C=1[S-][Zn+2]2([S-]C(N(CCCC)CCCC)=[S]2)[S]1",
    "meta_data": {
        "InChI": "InChI=1S/2C9H19NS2.Zn/c2*1-3-5-7-10(9(11)12)8-6-4-2;/h2*3-8H2,1-2H3,(H,11,12);/q;;+2/p-2",
        "InChIKey": null,
        "Canonical SMILES": "[S]1=C([S-][Zn+2]12[S]=C([S-]2)N(CCCC)CCCC)N(CCCC)CCCC",
        "Molecular Formula": "C<sub>18</sub>H<sub>36</sub>N<sub>2</sub>S<sub>4</sub>Zn",
        "Molecular Mass": "",
        "Melting Point": "104-108 °C",
        "Density": "1.24 g/cm³ @ Temp: 20 °C"
    }
}