{
    "cas_no": "39931-77-6",
    "key_name": "3-Pyridineacetic acid, ethyl ester",
    "cn_name": "3-吡啶乙酸乙酯;3-吡啶基乙酸乙酯 ;3-吡啶乙酸乙酯,99% ;吡啶-3-醋酸乙酯;",
    "alternate_name": "3-Pyridineacetic acid, ethyl ester;Ethyl 3-pyridineacetate;Ethyl 3-pyridylacetate;Ethyl 3-pyridinylacetate;NSC 76091;2-(Pyridin-3-yl)acetic acid ethyl ester;Pyridin-3-ylacetic acid ethyl ester;Ethyl 2-(pyridin-3-yl)acetate;(3-Pyridyl)acetic acid ethyl ester",
    "duplicated_cas_no": "",
    "SMILES": "C(C(OCC)=O)C=1C=CC=NC1",
    "meta_data": {
        "InChI": "InChI=1S/C9H11NO2/c1-2-12-9(11)6-8-4-3-5-10-7-8/h3-5,7H,2,6H2,1H3",
        "InChIKey": null,
        "Canonical SMILES": "O=C(OCC)CC=1C=NC=CC1",
        "Molecular Formula": "C<sub>9</sub>H<sub>11</sub>NO<sub>2</sub>",
        "Molecular Mass": "165.19",
        "Boiling Point": "124 °C @ Press: 12 Torr"
    }
}