{
    "cas_no": "54857-86-2",
    "key_name": "5-(Tetradecyloxy)-2-furoic acid",
    "cn_name": "5-(十四烷基氧)-2-糠酸;",
    "alternate_name": "2-Furancarboxylic acid, 5-(tetradecyloxy)-;5-(Tetradecyloxy)-2-furancarboxylic acid;RMI 14514;5-(Tetradecyloxy)-2-furoic acid;RMI 14,514;MDL 14514",
    "duplicated_cas_no": "",
    "SMILES": "O(CCCCCCCCCCCCCC)C=1OC(C(O)=O)=CC1",
    "meta_data": {
        "InChI": "InChI=1S/C19H32O4/c1-2-3-4-5-6-7-8-9-10-11-12-13-16-22-18-15-14-17(23-18)19(20)21/h14-15H,2-13,16H2,1H3,(H,20,21)",
        "InChIKey": null,
        "Canonical SMILES": "O=C(O)C=1OC(OCCCCCCCCCCCCCC)=CC1",
        "Molecular Formula": "C<sub>19</sub>H<sub>32</sub>O<sub>4</sub>",
        "Molecular Mass": "324.45",
        "Melting Point": "117-120 °C (decomp)"
    }
}