{
    "cas_no": "2420-87-3",
    "key_name": "3,3′,4,4′-Biphenyltetracarboxylic dianhydride",
    "cn_name": "3,3\",4,4\"-联苯四羧酸二酐;3,3\",4,4\"-联苯四甲酸二酐;",
    "alternate_name": "[5,5′-Biisobenzofuran]-1,1′,3,3′-tetrone;3,3′,4,4′-Biphenyltetracarboxylic 3,4:3′,4′-dianhydride;[1,1′-Biphenyl]-3,3′,4,4′-tetracarboxylic 3,4:3′,4′-dianhydride;4,4′-Biphthalic anhydride;3,3′,4,4′-Biphenyltetracarboxylic dianhydride;3,3′,4,4′-Biphenyltetracarboxylic acid anhydride;3,3′,4,4′-Biphenyltetracarboxylic acid dianhydride;3,3′,4,4′-Biphenyltetracarboxylic anhydride;3,4,3′,4′-Biphenyltetracarboxylic dianhydride;3,4,3′,4′-Biphenyltetracarboxylic acid dianhydride;BPDA;4,4′-Biphthalic dianhydride;B 1326;1,1′-Biphenyl-3,3′,4,4′-tetracarboxylic acid dianhydride;s-BPDA;1,1′-Biphenyl-3,3′,4,4′-tetracarboxylic dianhydride;3,3′,4,4′-Diphenyltetracarboxylic dianhydride;3,3′,4,4′-Biphenyltetracarbocylic dianhydride;[5,5′]Biisobenzofuranyl-1,3,1′,3′-tetraone;4,4′-Biphenyltetracarboxylic dianhydride",
    "duplicated_cas_no": "7623-28-1;107015-16-7;118663-85-7;163915-26-2;786717-06-4;2095480-59-2",
    "SMILES": "O=C1C=2C(C(=O)O1)=CC=C(C2)C=3C=C4C(=CC3)C(=O)OC4=O",
    "meta_data": {
        "InChI": "InChI=1S/C16H6O6/c17-13-9-3-1-7(5-11(9)15(19)21-13)8-2-4-10-12(6-8)16(20)22-14(10)18/h1-6H",
        "InChIKey": null,
        "Canonical SMILES": "O=C1OC(=O)C2=CC(=CC=C12)C=3C=CC=4C(=O)OC(=O)C4C3",
        "Molecular Formula": "C<sub>16</sub>H<sub>6</sub>O<sub>6</sub>",
        "Molecular Mass": "294.22",
        "Melting Point": "299-301 °C"
    }
}