{
    "cas_no": "500-66-3",
    "key_name": "Olivetol",
    "cn_name": "3,5-二羟基戊苯;5-戊基间苯二酚;1,3-二羟基-5-戊基苯;",
    "alternate_name": "1,3-Benzenediol, 5-pentyl-;Olivetol;Resorcinol, 5-pentyl-;5-Pentyl-1,3-benzenediol;3,5-Dihydroxyamylbenzene;5-Pentylresorcinol;5-<em>n</em>-Amylresorcinol;5-<em>n</em>-Pentylresorcinol;1,3-Dihydroxy-5-pentylbenzene;5-Pentylbenzene-1,3-diol;3,5-Dihydroxy-1-pentylbenzene",
    "duplicated_cas_no": "",
    "SMILES": "C(CCCC)C1=CC(O)=CC(O)=C1",
    "meta_data": {
        "InChI": "InChI=1S/C11H16O2/c1-2-3-4-5-9-6-10(12)8-11(13)7-9/h6-8,12-13H,2-5H2,1H3",
        "InChIKey": null,
        "Canonical SMILES": "OC=1C=C(O)C=C(C1)CCCCC",
        "Molecular Formula": "C<sub>11</sub>H<sub>16</sub>O<sub>2</sub>",
        "Molecular Mass": "180.24",
        "Boiling Point": "164 °C",
        "Melting Point": "41 °C"
    }
}