{
    "cas_no": "3393-64-4",
    "key_name": "4-Hydroxy-3-methyl-2-butanone",
    "cn_name": null,
    "alternate_name": "2-Butanone, 4-hydroxy-3-methyl-;4-Hydroxy-3-methyl-2-butanone;3-(Hydroxymethyl)-2-butanone;1-Hydroxy-2-methyl-3-butanone;3-Methyl-4-hydroxy-2-butanone;2-Methyl-3-oxo-1-butanol;NSC 62078",
    "duplicated_cas_no": "108061-05-8",
    "SMILES": "C(C(C)=O)(CO)C",
    "meta_data": {
        "InChI": "InChI=1S/C5H10O2/c1-4(3-6)5(2)7/h4,6H,3H2,1-2H3",
        "InChIKey": null,
        "Canonical SMILES": "O=C(C)C(C)CO",
        "Molecular Formula": "C<sub>5</sub>H<sub>10</sub>O<sub>2</sub>",
        "Molecular Mass": "102.13",
        "Boiling Point": "89-90 °C @ Press: 11 Torr",
        "Density": "0.99 g/cm³"
    }
}