{
    "cas_no": "611-05-2",
    "key_name": "3-Methyl-4-nitroaniline",
    "cn_name": "3-甲基-4-硝基苯胺;",
    "alternate_name": "Benzenamine, 3-methyl-4-nitro-;<em>m</em>-Toluidine, 4-nitro-;3-Methyl-4-nitrobenzenamine;1-Amino-3-methyl-4-nitrobenzene;3-Methyl-4-nitroaniline;4-Nitro-<em>m</em>-toluidine;6-Nitro-3-aminotoluene;5-Amino-2-nitrotoluene;4-Nitro-3-methylaniline;NSC 17041;3-Methyl-4-nitrophenylamine;2-Methyl-4-aminonitrobenzene",
    "duplicated_cas_no": "",
    "SMILES": "N(=O)(=O)C1=C(C)C=C(N)C=C1",
    "meta_data": {
        "InChI": "InChI=1S/C7H8N2O2/c1-5-4-6(8)2-3-7(5)9(10)11/h2-4H,8H2,1H3",
        "InChIKey": null,
        "Canonical SMILES": "O=N(=O)C1=CC=C(N)C=C1C",
        "Molecular Formula": "C<sub>7</sub>H<sub>8</sub>N<sub>2</sub>O<sub>2</sub>",
        "Molecular Mass": "152.15",
        "Melting Point": "135 °C"
    }
}