{
    "cas_no": "1022-13-5",
    "key_name": "2-(Methylamino)-5-chlorobenzophenone",
    "cn_name": "2-甲氨基-5-氯二苯甲酮;",
    "alternate_name": "Methanone, [5-chloro-2-(methylamino)phenyl]phenyl-;Benzophenone, 5-chloro-2-(methylamino)-;[5-Chloro-2-(methylamino)phenyl]phenylmethanone;2-(Methylamino)-5-chlorobenzophenone;5-Chloro-2-(methylamino)benzophenone;Ro 5-4365;2-Benzoyl-4-chloro-<em>N</em>-methylaniline",
    "duplicated_cas_no": "",
    "SMILES": "C(=O)(C1=C(NC)C=CC(Cl)=C1)C2=CC=CC=C2",
    "meta_data": {
        "InChI": "InChI=1S/C14H12ClNO/c1-16-13-8-7-11(15)9-12(13)14(17)10-5-3-2-4-6-10/h2-9,16H,1H3",
        "InChIKey": null,
        "Canonical SMILES": "O=C(C=1C=CC=CC1)C2=CC(Cl)=CC=C2NC",
        "Molecular Formula": "C<sub>14</sub>H<sub>12</sub>ClNO",
        "Molecular Mass": "245.70",
        "Melting Point": "94-96 °C"
    }
}