{
    "cas_no": "1121-37-5",
    "key_name": "Dicyclopropyl ketone",
    "cn_name": "双环丙基酮;",
    "alternate_name": "Methanone, dicyclopropyl-;Cyclopropyl ketone;Dicyclopropylmethanone;Dicyclopropyl ketone;NSC 49148",
    "duplicated_cas_no": "",
    "SMILES": "C(=O)(C1CC1)C2CC2",
    "meta_data": {
        "InChI": "InChI=1S/C7H10O/c8-7(5-1-2-5)6-3-4-6/h5-6H,1-4H2",
        "InChIKey": null,
        "Canonical SMILES": "O=C(C1CC1)C2CC2",
        "Molecular Formula": "C<sub>7</sub>H<sub>10</sub>O",
        "Molecular Mass": "110.15",
        "Boiling Point": "161 °C",
        "Melting Point": "44.0-44.5 °C"
    }
}