{
    "cas_no": "7657-09-2",
    "key_name": "1,4-Dibromo-2-(trifluoromethyl)benzene",
    "cn_name": "2,5-二溴三氟化苯;",
    "alternate_name": "Benzene, 1,4-dibromo-2-(trifluoromethyl)-;Toluene, 2,5-dibromo-α,α,α-trifluoro-;1,4-Dibromo-2-(trifluoromethyl)benzene;2,5-Dibromobenzotrifluoride;2,5-Dibromo-α,α,α-trifluorotoluene;2,5-Dibromo-1-(trifluoromethyl)benzene;2,5-Dibromo(trifluoromethyl)benzene;NSC 88275",
    "duplicated_cas_no": "",
    "SMILES": "C(F)(F)(F)C1=C(Br)C=CC(Br)=C1",
    "meta_data": {
        "InChI": "InChI=1S/C7H3Br2F3/c8-4-1-2-6(9)5(3-4)7(10,11)12/h1-3H",
        "InChIKey": null,
        "Canonical SMILES": "FC(F)(F)C1=CC(Br)=CC=C1Br",
        "Molecular Formula": "C<sub>7</sub>H<sub>3</sub>Br<sub>2</sub>F<sub>3</sub>",
        "Molecular Mass": "303.90",
        "Boiling Point": "206-207 °C @ Press: 760 Torr",
        "Melting Point": "49-50 °C"
    }
}