{
    "cas_no": "638-39-1",
    "key_name": "Tin acetate",
    "cn_name": "乙酸锡(II);",
    "alternate_name": "Acetic acid, tin(2+) salt (2:1);Acetic acid, tin(2+) salt;Tin acetate (Sn(OAc)<sub>2</sub>);Stannous acetate;Tin(II) acetate;Tin diacetate;Tin acetate (Sn(O<sub>2</sub>C<sub>2</sub>H<sub>3</sub>)<sub>2</sub>);Tin acetate (Sn(MeCO2)2);Tin acetate",
    "duplicated_cas_no": "44845-48-9",
    "SMILES": "C(C)(O)=O.[Sn]",
    "meta_data": {
        "InChI": "InChI=1S/C2H4O2.Sn/c1-2(3)4;/h1H3,(H,3,4);",
        "InChIKey": null,
        "Canonical SMILES": "[Sn].O=C(O)C",
        "Molecular Formula": "C<sub>2</sub>H<sub>4</sub>O<sub>2</sub>.<sup>1</sup>/<sub>2</sub>Sn",
        "Molecular Mass": "",
        "Melting Point": "182.75 °C",
        "Density": "2.310 g/cm³"
    }
}