{
    "cas_no": "100-44-7",
    "key_name": "Benzyl chloride",
    "cn_name": "苄基氯;氯化苄;",
    "alternate_name": "Benzene, (chloromethyl)-;Toluene, α-chloro-;(Chloromethyl)benzene;Benzyl chloride;ω-Chlorotoluene;Chlorophenylmethane;Tolyl chloride;α-Chlorotoluene;Phenylmethyl chloride;NSC 8043;1-Chloromethylbenzene;Bnol",
    "duplicated_cas_no": "",
    "SMILES": "C(Cl)C1=CC=CC=C1",
    "meta_data": {
        "InChI": "InChI=1S/C7H7Cl/c8-6-7-4-2-1-3-5-7/h1-5H,6H2",
        "InChIKey": null,
        "Canonical SMILES": "ClCC=1C=CC=CC1",
        "Molecular Formula": "C<sub>7</sub>H<sub>7</sub>Cl",
        "Molecular Mass": "126.58",
        "Boiling Point": "179 °C",
        "Melting Point": "-45 °C",
        "Density": "1.100 g/cm³ @ Temp: 20 °C"
    }
}