{
    "cas_no": "1746-03-8",
    "key_name": "Vinylphosphonic acid",
    "cn_name": "乙烯基膦酸;",
    "alternate_name": "Phosphonic acid, <em>P</em>-ethenyl-;Phosphonic acid, vinyl-;Phosphonic acid, ethenyl-;<em>P</em>-Ethenylphosphonic acid;Ethenephosphonic acid;Ethylenephosphonic acid;Vinylphosphonic acid;ITC 467;PVA 90",
    "duplicated_cas_no": "2023788-70-5",
    "SMILES": "P(C=C)(=O)(O)O",
    "meta_data": {
        "InChI": "InChI=1S/C2H5O3P/c1-2-6(3,4)5/h2H,1H2,(H2,3,4,5)",
        "InChIKey": null,
        "Canonical SMILES": "O=P(O)(O)C=C",
        "Molecular Formula": "C<sub>2</sub>H<sub>5</sub>O<sub>3</sub>P",
        "Molecular Mass": "108.03",
        "Boiling Point": "97-98 °C @ Press: 2 Torr",
        "Density": "1.398 g/cm³ @ Temp: 20 °C"
    }
}