{
    "cas_no": "14452-34-7",
    "key_name": "2,4-Dimethyl-6-nitrophenol",
    "cn_name": "2,4-二甲基-6-硝基苯酚;",
    "alternate_name": "Phenol, 2,4-dimethyl-6-nitro-;2,4-Xylenol, 6-nitro-;2,4-Dimethyl-6-nitrophenol;2-Nitro-4,6-dimethylphenol;4,6-Dimethyl-2-nitrophenol",
    "duplicated_cas_no": "",
    "SMILES": "N(=O)(=O)C1=C(O)C(C)=CC(C)=C1",
    "meta_data": {
        "InChI": "InChI=1S/C8H9NO3/c1-5-3-6(2)8(10)7(4-5)9(11)12/h3-4,10H,1-2H3",
        "InChIKey": null,
        "Canonical SMILES": "O=N(=O)C1=CC(=CC(=C1O)C)C",
        "Molecular Formula": "C<sub>8</sub>H<sub>9</sub>NO<sub>3</sub>",
        "Molecular Mass": "167.16",
        "Melting Point": "72 °C"
    }
}