{
    "cas_no": "5534-18-9",
    "key_name": "Beclomethasone 17-monopropionate",
    "cn_name": "9&alpha;-氯-11&beta;,17&alpha;,21-三羟基-16&beta;-甲基孕甾-1,4-二烯-3,20-二酮-17-丙酸酯;9&alpha;-氯-;",
    "alternate_name": "Pregna-1,4-diene-3,20-dione, 9-chloro-11,21-dihydroxy-16-methyl-17-(1-oxopropoxy)-, (11β,16β)-;Pregna-1,4-diene-3,20-dione, 9-chloro-11β,17,21-trihydroxy-16β-methyl-, 17-propionate;Pregna-1,4-diene-3,2O-dione, 9-chloro-11β,17,21-trihydroxy-16β-methyl-, 17-propionate;(11β,16β)-9-Chloro-11,21-dihydroxy-16-methyl-17-(1-oxopropoxy)pregna-1,4-diene-3,20-dione;Beclomethasone 17-propionate;Beclomethasone 17-monopropionate",
    "duplicated_cas_no": "",
    "SMILES": "O(C(CC)=O)[C@@]1(C(CO)=O)[C@]2(C)[C@@](C[C@@H]1C)([C@]3([C@](Cl)([C@@H](O)C2)[C@]4(C)C(CC3)=CC(=O)C=C4)[H])[H]",
    "meta_data": {
        "InChI": "InChI=1S/C25H33ClO6/c1-5-21(31)32-25(20(30)13-27)14(2)10-18-17-7-6-15-11-16(28)8-9-22(15,3)24(17,26)19(29)12-23(18,25)4/h8-9,11,14,17-19,27,29H,5-7,10,12-13H2,1-4H3/t14-,17-,18-,19-,22-,23-,24-,25-/m0/s1",
        "InChIKey": null,
        "Canonical SMILES": "O=C1C=CC2(C(=C1)CCC3C4CC(C)C(OC(=O)CC)(C(=O)CO)C4(C)CC(O)C32Cl)C",
        "Molecular Formula": "C<sub>25</sub>H<sub>33</sub>ClO<sub>6</sub>",
        "Molecular Mass": "464.98",
        "Melting Point": "100-102 °C"
    }
}