{
    "cas_no": "1683-49-4",
    "key_name": "4-Piperidinol, 4-[3-(trifluoromethyl)phenyl]-, hydrochloride (1:1)",
    "cn_name": "4-[3-(三氟甲基)苯基]-4-哌啶醇盐酸盐;",
    "alternate_name": "4-Piperidinol, 4-[3-(trifluoromethyl)phenyl]-, hydrochloride (1:1);4-Piperidinol, 4-(α,α,α-trifluoro-<em>m</em>-tolyl)-, hydrochloride;4-Piperidinol, 4-[3-(trifluoromethyl)phenyl]-, hydrochloride;4-(3-Trifluoromethylphenyl)-4-piperidinol hydrochloride",
    "duplicated_cas_no": "",
    "SMILES": "OC1(CCNCC1)C2=CC(C(F)(F)F)=CC=C2.Cl",
    "meta_data": {
        "InChI": "InChI=1S/C12H14F3NO.ClH/c13-12(14,15)10-3-1-2-9(8-10)11(17)4-6-16-7-5-11;/h1-3,8,16-17H,4-7H2;1H",
        "InChIKey": null,
        "Canonical SMILES": "Cl.FC(F)(F)C1=CC=CC(=C1)C2(O)CCNCC2",
        "Molecular Formula": "C<sub>12</sub>H<sub>14</sub>F<sub>3</sub>NO.ClH",
        "Molecular Mass": "",
        "Melting Point": "168.5-169.5 °C"
    }
}