{
    "cas_no": "2032-35-1",
    "key_name": "Bromoacetaldehyde diethyl acetal",
    "cn_name": "2-溴-1,1-二乙氧基乙烷;溴代乙醛缩二乙醇;",
    "alternate_name": "Ethane, 2-bromo-1,1-diethoxy-;Acetaldehyde, bromo-, diethyl acetal;2-Bromo-1,1-diethoxyethane;Bromacetal;1,1-Diethoxy-2-bromoethane;Bromoacetaldehyde diethyl acetal;Diethyl bromoacetaldehyde acetal;2-Bromoacetaldehyde diethyl acetal;1-Bromo-2,2-diethoxyethane;2,2-Diethoxyethyl bromide;α-Bromoacetaldehyde diethyl acetal;Bromacetaldehyde diethyl acetal;Bromoacetal;NSC 8036",
    "duplicated_cas_no": "72516-42-8;2250082-48-3",
    "SMILES": "C(OCC)(OCC)CBr",
    "meta_data": {
        "InChI": "InChI=1S/C6H13BrO2/c1-3-8-6(5-7)9-4-2/h6H,3-5H2,1-2H3",
        "InChIKey": null,
        "Canonical SMILES": "BrCC(OCC)OCC",
        "Molecular Formula": "C<sub>6</sub>H<sub>13</sub>BrO<sub>2</sub>",
        "Molecular Mass": "197.07",
        "Boiling Point": "57-58 °C @ Press: 9 Torr",
        "Density": "1.2960 g/cm³ @ Temp: 19 °C"
    }
}