{
    "cas_no": "2491-32-9",
    "key_name": "1-(4-Hydroxyphenyl)-2-phenylethanone",
    "cn_name": "苯甲基对羟基苯基酮;",
    "alternate_name": "Ethanone, 1-(4-hydroxyphenyl)-2-phenyl-;Acetophenone, 4′-hydroxy-2-phenyl-;1-(4-Hydroxyphenyl)-2-phenylethanone;4-Hydroxydeoxybenzoin;<em>p</em>-(Phenylacetyl)phenol;Benzyl <em>p</em>-hydroxyphenyl ketone;4′-Hydroxy-2-phenylacetophenone;Benzyl 4-hydroxyphenyl ketone;4-Hydroxyphenyl benzyl ketone;4-(Benzylcarbonyl)phenol;NSC 60474;1-(4-Hydroxyphenyl)-2-phenylethan-1-one;BTB 12517",
    "duplicated_cas_no": "",
    "SMILES": "C(CC1=CC=CC=C1)(=O)C2=CC=C(O)C=C2",
    "meta_data": {
        "InChI": "InChI=1S/C14H12O2/c15-13-8-6-12(7-9-13)14(16)10-11-4-2-1-3-5-11/h1-9,15H,10H2",
        "InChIKey": null,
        "Canonical SMILES": "O=C(C1=CC=C(O)C=C1)CC=2C=CC=CC2",
        "Molecular Formula": "C<sub>14</sub>H<sub>12</sub>O<sub>2</sub>",
        "Molecular Mass": "212.24",
        "Melting Point": "151 °C"
    }
}