{
    "cas_no": "55096-26-9",
    "key_name": "Nalmefene",
    "cn_name": "纳美芬;",
    "alternate_name": "Morphinan-3,14-diol, 17-(cyclopropylmethyl)-4,5-epoxy-6-methylene-, (5α)-;(5α)-17-(Cyclopropylmethyl)-4,5-epoxy-6-methylenemorphinan-3,14-diol;6-Desoxy-6-methylenenaltrexone;ORF 11676;Nalmetrene;Nalmefene;6-Deoxo-6-methylenenaltrexone;(-)-Nalmefene;JF 1;SRD 174;Incystene;Cervene;Arthene;Fenarc;Alcofene;Soberal;Cessal;Nocarex;JKB 121",
    "duplicated_cas_no": "",
    "SMILES": "O[C@]12[C@@]34C=5C(O[C@]3(C(=C)CC1)[H])=C(O)C=CC5C[C@]2(N(CC6CC6)CC4)[H]",
    "meta_data": {
        "InChI": "InChI=1S/C21H25NO3/c1-12-6-7-21(24)16-10-14-4-5-15(23)18-17(14)20(21,19(12)25-18)8-9-22(16)11-13-2-3-13/h4-5,13,16,19,23-24H,1-3,6-11H2/t16-,19+,20+,21-/m1/s1",
        "InChIKey": null,
        "Canonical SMILES": "OC1=CC=C2C3=C1OC4C(=C)CCC5(O)C(N(CCC345)CC6CC6)C2",
        "Molecular Formula": "C<sub>21</sub>H<sub>25</sub>NO<sub>3</sub>",
        "Molecular Mass": "339.43",
        "Melting Point": "188-190 °C"
    }
}