{
    "cas_no": "122-80-5",
    "key_name": "<em>N</em>-(4-Aminophenyl)acetamide",
    "cn_name": "4-氨基乙酰苯胺;对氨基乙酰苯胺;N-乙酰基对苯二胺;",
    "alternate_name": "Acetamide, <em>N</em>-(4-aminophenyl)-;Acetanilide, 4′-amino-;Acetanilide, <em>p</em>-amino-;<em>N</em>-(4-Aminophenyl)acetamide;C.I. 76005;<em>p</em>-Acetamidoaniline;Acetyl-<em>p</em>-phenylenediamine;C.I. Oxidation Base 19;Fourrine A;4′-Aminoacetanilide;Fourrine 88;<em>p</em>-Aminoacetanilide;<em>N</em>-Acetyl-<em>p</em>-phenylenediamine;4-(Acetylamino)aniline;4-Acetamidoaniline;<em>N</em>-(<em>p</em>-Aminophenyl)acetamide;1-Amino-4-(acetylamino)benzene;<em>p</em>-(Acetylamino)aniline;Acetparamin;<em>p</em>-Acetoaminoaniline;4-Acetoamidoaniline;<em>N</em>-Acetyl-1,4-benzenediamine;Paracetamin;<em>N</em>-Acetyl-1,4-phenylenediamine;(4-(Acetylamino)phenyl)amine;NSC 2135;4-Acetylaminobenzeneamine;4-Amino-<em>N</em>-acetylaniline;4-Amino-acetaniline",
    "duplicated_cas_no": "",
    "SMILES": "N(C(C)=O)C1=CC=C(N)C=C1",
    "meta_data": {
        "InChI": "InChI=1S/C8H10N2O/c1-6(11)10-8-4-2-7(9)3-5-8/h2-5H,9H2,1H3,(H,10,11)",
        "InChIKey": null,
        "Canonical SMILES": "O=C(NC1=CC=C(N)C=C1)C",
        "Molecular Formula": "C<sub>8</sub>H<sub>10</sub>N<sub>2</sub>O",
        "Molecular Mass": "150.18",
        "Boiling Point": "267 °C",
        "Melting Point": "166.5 °C",
        "Density": "1.19 g/cm³"
    }
}