{
    "cas_no": "23012-14-8",
    "key_name": "Ethyl oxazole-4-carboxylate",
    "cn_name": "4-恶唑甲酸乙酯;1,3-恶唑-4-甲酸乙酯;",
    "alternate_name": "4-Oxazolecarboxylic acid, ethyl ester;Ethyl 1,3-oxazole-4-carboxylate;Ethyl oxazole-4-carboxylate;4-(Ethoxycarbonyl)oxazole",
    "duplicated_cas_no": "",
    "SMILES": "C(OCC)(=O)C1=COC=N1",
    "meta_data": {
        "InChI": "InChI=1S/C6H7NO3/c1-2-10-6(8)5-3-9-4-7-5/h3-4H,2H2,1H3",
        "InChIKey": null,
        "Canonical SMILES": "O=C(OCC)C=1N=COC1",
        "Molecular Formula": "C<sub>6</sub>H<sub>7</sub>NO<sub>3</sub>",
        "Molecular Mass": "141.12",
        "Boiling Point": "101-102 °C @ Press: 14 Torr",
        "Melting Point": "47-49 °C"
    }
}