{
    "cas_no": "95-88-5",
    "key_name": "4-Chlororesorcinol",
    "cn_name": "4-氯间苯二酚;4-氯-1,3-苯二酚;",
    "alternate_name": "1,3-Benzenediol, 4-chloro-;Resorcinol, 4-chloro-;4-Chloro-1,3-benzenediol;C.I. 76510;4-Chlororesorcinol;4-Chloro-1,3-dihydroxybenzene;4-Chlororesorcin;<em>p</em>-Chlororesorcinol;6-Chlororesorcinol;2,4-Dihydroxychlorobenzene;1-Chloro-2,4-dihydroxybenzene;NSC 1569;NSC 6298",
    "duplicated_cas_no": "",
    "SMILES": "OC1=C(Cl)C=CC(O)=C1",
    "meta_data": {
        "InChI": "InChI=1S/C6H5ClO2/c7-5-2-1-4(8)3-6(5)9/h1-3,8-9H",
        "InChIKey": null,
        "Canonical SMILES": "ClC1=CC=C(O)C=C1O",
        "Molecular Formula": "C<sub>6</sub>H<sub>5</sub>ClO<sub>2</sub>",
        "Molecular Mass": "144.56",
        "Boiling Point": "259.5 °C",
        "Melting Point": "107 °C"
    }
}