{
    "cas_no": "1572-99-2",
    "key_name": "Ethyl 2-cyanopropanoate",
    "cn_name": "2-氰基丙酸乙酯;",
    "alternate_name": "Propanoic acid, 2-cyano-, ethyl ester;Propionic acid, 2-cyano-, ethyl ester;Ethyl 2-cyanopropanoate;Ethyl 2-cyanopropionate;Ethyl α-cyanopropionate;2-Cyanopropanoic acid ethyl ester;NSC 68508;2-Cyanopropionic acid ethyl ester",
    "duplicated_cas_no": "59440-52-7",
    "SMILES": "C(C(C#N)C)(OCC)=O",
    "meta_data": {
        "InChI": "InChI=1S/C6H9NO2/c1-3-9-6(8)5(2)4-7/h5H,3H2,1-2H3",
        "InChIKey": null,
        "Canonical SMILES": "N#CC(C(=O)OCC)C",
        "Molecular Formula": "C<sub>6</sub>H<sub>9</sub>NO<sub>2</sub>",
        "Molecular Mass": "127.14",
        "Boiling Point": "89-90 °C @ Press: 20 Torr",
        "Density": "0.998 g/cm³ @ Temp: 22 °C"
    }
}