{
    "cas_no": "122955-42-4",
    "key_name": "10,10-Bis(4-pyridinylmethyl)-9(10<em>H</em>)-anthracenone",
    "cn_name": "XE991二盐酸盐;10,10二(4-吡啶甲基)-9(10H)-蒽酮;",
    "alternate_name": "9(10<em>H</em>)-Anthracenone, 10,10-bis(4-pyridinylmethyl)-;10,10-Bis(4-pyridinylmethyl)-9(10<em>H</em>)-anthracenone;XE 991;DR 960418",
    "duplicated_cas_no": "",
    "SMILES": "C(C1(CC=2C=CN=CC2)C=3C(C(=O)C=4C1=CC=CC4)=CC=CC3)C=5C=CN=CC5",
    "meta_data": {
        "InChI": "InChI=1S/C26H20N2O/c29-25-21-5-1-3-7-23(21)26(17-19-9-13-27-14-10-19,18-20-11-15-28-16-12-20)24-8-4-2-6-22(24)25/h1-16H,17-18H2",
        "InChIKey": null,
        "Canonical SMILES": "O=C1C=2C=CC=CC2C(C=3C=CC=CC13)(CC=4C=CN=CC4)CC=5C=CN=CC5",
        "Molecular Formula": "C<sub>26</sub>H<sub>20</sub>N<sub>2</sub>O",
        "Molecular Mass": "376.45",
        "Melting Point": "231-232 °C"
    }
}