{
    "cas_no": "5000-65-7",
    "key_name": "2-Bromo-3′-methoxyacetophenone",
    "cn_name": null,
    "alternate_name": "Ethanone, 2-bromo-1-(3-methoxyphenyl)-;Acetophenone, 2-bromo-3′-methoxy-;2-Bromo-1-(3-methoxyphenyl)ethanone;α-Bromo-3′-methoxyacetophenone;<em>m</em>-Methoxyphenacyl bromide;2-Bromo-3′-methoxyacetophenone;3-Methoxyphenacyl bromide;α-Bromo-<em>m</em>-methoxyacetophenone;2-Bromo-<em>m</em>-methoxyacetophenone;<em>m</em>-(Bromoacetyl)anisole;ω-Bromo-3-methoxyacetophenone;NSC 405833;2-Bromo-1-[3-(methyloxy)phenyl]ethanone;2-Bromo-1-(3-methoxyphenyl-1-yl)ethanone;2-Bromo-1-(3-methoxyphenyl)ethan-1-one",
    "duplicated_cas_no": "",
    "SMILES": "C(CBr)(=O)C1=CC(OC)=CC=C1",
    "meta_data": {
        "InChI": "InChI=1S/C9H9BrO2/c1-12-8-4-2-3-7(5-8)9(11)6-10/h2-5H,6H2,1H3",
        "InChIKey": null,
        "Canonical SMILES": "O=C(C=1C=CC=C(OC)C1)CBr",
        "Molecular Formula": "C<sub>9</sub>H<sub>9</sub>BrO<sub>2</sub>",
        "Molecular Mass": "229.07",
        "Melting Point": "63.0-64.3 °C"
    }
}