{
    "cas_no": "915-05-9",
    "key_name": "β-Sitosterol acetate",
    "cn_name": "乙酸β-谷甾烷;β-谷甾醇乙酸酯;",
    "alternate_name": "Stigmast-5-en-3-ol, 3-acetate, (3β)-;Stigmast-5-en-3β-ol, acetate;β-Sitosterol acetate;Stigmast-5-en-3-ol, acetate, (3β)-;3β-Acetoxystigmast-5-ene;β-Sitosteryl acetate;β-Sitosterol 3-acetate;Sitosteryl acetate;Stigmast-5-en-3β-yl acetate;Acetyl-β-sitosterol;<em>O</em>-Acetyl-β-sitosterol;Sitosterol acetate;Stigmast-5-ene-3β-ol acetate;NSC 11922",
    "duplicated_cas_no": "1413-82-7;5808-28-6;1258782-60-3",
    "SMILES": "C[C@@]12[C@@]3([C@]([C@]4([C@](C)(CC3)[C@@]([C@@H](CC[C@H](C(C)C)CC)C)(CC4)[H])[H])(CC=C1C[C@@H](OC(C)=O)CC2)[H])[H]",
    "meta_data": {
        "InChI": "InChI=1S/C31H52O2/c1-8-23(20(2)3)10-9-21(4)27-13-14-28-26-12-11-24-19-25(33-22(5)32)15-17-30(24,6)29(26)16-18-31(27,28)7/h11,20-21,23,25-29H,8-10,12-19H2,1-7H3/t21-,23-,25+,26+,27-,28+,29+,30+,31-/m1/s1",
        "InChIKey": null,
        "Canonical SMILES": "O=C(OC1CC2=CCC3C(CCC4(C)C(CCC34)C(C)CCC(CC)C(C)C)C2(C)CC1)C",
        "Molecular Formula": "C<sub>31</sub>H<sub>52</sub>O<sub>2</sub>",
        "Molecular Mass": "456.74",
        "Melting Point": "125.6-137 °C"
    }
}