{
    "cas_no": "13325-10-5",
    "key_name": "4-Amino-1-butanol",
    "cn_name": "4-氨基-1-丁醇;",
    "alternate_name": "1-Butanol, 4-amino-;4-Amino-1-butanol;4-Aminobutanol;4-Hydroxybutylamine;4-Hydroxy-1-butanamine;Butanolamine;1-Amino-4-butanol",
    "duplicated_cas_no": "",
    "SMILES": "C(CCO)CN",
    "meta_data": {
        "InChI": "InChI=1S/C4H11NO/c5-3-1-2-4-6/h6H,1-5H2",
        "InChIKey": null,
        "Canonical SMILES": "OCCCCN",
        "Molecular Formula": "C<sub>4</sub>H<sub>11</sub>NO",
        "Molecular Mass": "89.14",
        "Boiling Point": "202 °C",
        "Density": "0.9688 g/cm³ @ Temp: 20 °C"
    }
}