{
    "cas_no": "34570-16-6",
    "key_name": "2-Propenoic acid, 3-amino-3-ethoxy-, ethyl ester, hydrochloride (1:1)",
    "cn_name": null,
    "alternate_name": "2-Propenoic acid, 3-amino-3-ethoxy-, ethyl ester, hydrochloride (1:1);Acrylic acid, 3-amino-3-ethoxy-, ethyl ester, hydrochloride;2-Propenoic acid, 3-amino-3-ethoxy-, ethyl ester, hydrochloride;Ethyl β-amino-β-ethoxyacrylate hydrochloride;β-Amino-β-ethoxyacrylic acid ethyl ester hydrochloride;Ethyl 3-amino-3-ethoxyacrylate hydrochloride;Ethyl 3-amino-3-ethoxypropenoate hydrochloride;β-Ethoxy-β-aminoacrylic acid ethyl ester hydrochloride;[1-Ethoxy-2-(ethoxycarbonyl)vinyl]ammonium chloride",
    "duplicated_cas_no": "",
    "SMILES": "C(=CC(OCC)=O)(OCC)N.Cl",
    "meta_data": {
        "InChI": "InChI=1S/C7H13NO3.ClH/c1-3-10-6(8)5-7(9)11-4-2;/h5H,3-4,8H2,1-2H3;1H",
        "InChIKey": null,
        "Canonical SMILES": "Cl.O=C(OCC)C=C(OCC)N",
        "Molecular Formula": "C<sub>7</sub>H<sub>13</sub>NO<sub>3</sub>.ClH",
        "Molecular Mass": "",
        "Melting Point": "103-104 °C"
    }
}