{
    "cas_no": "4385-05-1",
    "key_name": "<em>N</em>-(2-Dimethylaminoethyl)morpholine",
    "cn_name": "4-[2-(二甲基氨基)乙基]吗啉;",
    "alternate_name": "4-Morpholineethanamine, <em>N</em>,<em>N</em>-dimethyl-;Morpholine, 4-[2-(dimethylamino)ethyl]-;<em>N</em>,<em>N</em>-Dimethyl-4-morpholineethanamine;4-[2-(Dimethylamino)ethyl]morpholine;Kalpur PM;<em>N</em>-(2-Dimethylaminoethyl)morpholine;Dabco XDM;XDM;Toyocat DAEM",
    "duplicated_cas_no": "",
    "SMILES": "C(CN(C)C)N1CCOCC1",
    "meta_data": {
        "InChI": "InChI=1S/C8H18N2O/c1-9(2)3-4-10-5-7-11-8-6-10/h3-8H2,1-2H3",
        "InChIKey": null,
        "Canonical SMILES": "O1CCN(CC1)CCN(C)C",
        "Molecular Formula": "C<sub>8</sub>H<sub>18</sub>N<sub>2</sub>O",
        "Molecular Mass": "158.24",
        "Boiling Point": "93-94 °C @ Press: 20 Torr"
    }
}