{
    "cas_no": "285986-31-4",
    "key_name": "3-Pyridinecarboxylic acid 2-[(4-oxo-4<em>H</em>-1-benzopyran-3-yl)methylene]hydrazide",
    "cn_name": null,
    "alternate_name": "3-Pyridinecarboxylic acid, 2-[(4-oxo-4<em>H</em>-1-benzopyran-3-yl)methylene]hydrazide;3-Pyridinecarboxylic acid, [(4-oxo-4<em>H</em>-1-benzopyran-3-yl)methylene]hydrazide;3-Pyridinecarboxylic acid 2-[(4-oxo-4<em>H</em>-1-benzopyran-3-yl)methylene]hydrazide;SC 355979;STAT 5-IN-1",
    "duplicated_cas_no": "",
    "SMILES": "O=C1C=2C(OC=C1C=NNC(=O)C=3C=CC=NC3)=CC=CC2",
    "meta_data": {
        "InChI": "InChI=1S/C16H11N3O3/c20-15-12(10-22-14-6-2-1-5-13(14)15)9-18-19-16(21)11-4-3-7-17-8-11/h1-10H,(H,19,21)",
        "InChIKey": null,
        "Canonical SMILES": "O=C(NN=CC1=COC=2C=CC=CC2C1=O)C=3C=NC=CC3",
        "Molecular Formula": "C<sub>16</sub>H<sub>11</sub>N<sub>3</sub>O<sub>3</sub>",
        "Molecular Mass": "293.28",
        "Melting Point": "214-216 °C"
    }
}