{
    "cas_no": "637-96-7",
    "key_name": "Glycine, <em>N</em>-methyl-, hydrochloride (1:1)",
    "cn_name": "肌氨酸盐酸盐;盐酸肌氨酸;N-甲基氨基乙酸盐酸盐;N-甲基甘氨酸盐酸盐;",
    "alternate_name": "Glycine, <em>N</em>-methyl-, hydrochloride (1:1);Sarcosine, hydrochloride;Glycine, <em>N</em>-methyl-, hydrochloride;<em>N</em>-Methylglycine hydrochloride;2-(Methylamino)acetic acid hydrochloride",
    "duplicated_cas_no": "",
    "SMILES": "C(C(O)=O)NC.Cl",
    "meta_data": {
        "InChI": "InChI=1S/C3H7NO2.ClH/c1-4-2-3(5)6;/h4H,2H2,1H3,(H,5,6);1H",
        "InChIKey": null,
        "Canonical SMILES": "Cl.O=C(O)CNC",
        "Molecular Formula": "C<sub>3</sub>H<sub>7</sub>NO<sub>2</sub>.ClH",
        "Molecular Mass": "",
        "Melting Point": "168-169 °C",
        "Density": "1.48 g/cm³"
    }
}