{
    "cas_no": "856866-72-3",
    "key_name": "Tedizolid",
    "cn_name": null,
    "alternate_name": "2-Oxazolidinone, 3-[3-fluoro-4-[6-(2-methyl-2<em>H</em>-tetrazol-5-yl)-3-pyridinyl]phenyl]-5-(hydroxymethyl)-, (5<em>R</em>)-;(5<em>R</em>)-3-[3-Fluoro-4-[6-(2-methyl-2<em>H</em>-tetrazol-5-yl)-3-pyridinyl]phenyl]-5-(hydroxymethyl)-2-oxazolidinone;DA 7157;TR 700;Tedizolid;Sivextro;(5R)-3-[3-Fluoro-4-[6-(2-methyltetrazol-5-yl)pyridin-3-yl]phenyl]-5-(hydroxymethyl)-1,3-oxazolidin-2-one",
    "duplicated_cas_no": "",
    "SMILES": "O=C1N(C[C@H](CO)O1)C2=CC(F)=C(C=C2)C=3C=CC(=NC3)C4=NN(C)N=N4",
    "meta_data": {
        "InChI": "InChI=1S/C17H15FN6O3/c1-23-21-16(20-22-23)15-5-2-10(7-19-15)13-4-3-11(6-14(13)18)24-8-12(9-25)27-17(24)26/h2-7,12,25H,8-9H2,1H3/t12-/m1/s1",
        "InChIKey": null,
        "Canonical SMILES": "O=C1OC(CO)CN1C2=CC=C(C(F)=C2)C3=CN=C(C=C3)C=4N=NN(N4)C",
        "Molecular Formula": "C<sub>17</sub>H<sub>15</sub>FN<sub>6</sub>O<sub>3</sub>",
        "Molecular Mass": "370.34",
        "Melting Point": "201 °C"
    }
}