{
    "cas_no": "3836-23-5",
    "key_name": "Norethisterone enanthate",
    "cn_name": "炔诺酮庚酸酯;庚酸炔诺酮;",
    "alternate_name": "19-Norpregn-4-en-20-yn-3-one, 17-[(1-oxoheptyl)oxy]-, (17α)-;19-Nor-17α-pregn-4-en-20-yn-3-one, 17-hydroxy-, heptanoate;Heptanoic acid, ester with 17-hydroxy-19-nor-17α-pregn-4-en-20-yn-3-one;(17α)-17-[(1-Oxoheptyl)oxy]-19-norpregn-4-en-20-yn-3-one;Norethindrone enanthate;Norethisterone enanthate;17α-Ethynyl-19-nortestosterone enanthate;17α-Ethynyl-19-nortestosterone 17-heptanoate;Noristerat;SH 8.0393;Norigest;ZK 5410;Norethisterone heptanoate;NSC 22846",
    "duplicated_cas_no": "86733-68-8",
    "SMILES": "O(C(CCCCCC)=O)[C@]1(C#C)[C@]2(C)[C@@](CC1)([C@]3([C@](CC2)([C@@]4(C(CC3)=CC(=O)CC4)[H])[H])[H])[H]",
    "meta_data": {
        "InChI": "InChI=1S/C27H38O3/c1-4-6-7-8-9-25(29)30-27(5-2)17-15-24-23-12-10-19-18-20(28)11-13-21(19)22(23)14-16-26(24,27)3/h2,18,21-24H,4,6-17H2,1,3H3/t21-,22+,23+,24-,26-,27-/m0/s1",
        "InChIKey": null,
        "Canonical SMILES": "O=C(OC1(C#C)CCC2C3CCC4=CC(=O)CCC4C3CCC21C)CCCCCC",
        "Molecular Formula": "C<sub>27</sub>H<sub>38</sub>O<sub>3</sub>",
        "Molecular Mass": "410.59",
        "Melting Point": "68-71 °C"
    }
}