{
    "cas_no": "3946-29-0",
    "key_name": "3-Chloro-1-(4-chlorophenyl)-1-propanone",
    "cn_name": "3,4\"-二氯苯丙酮;对氯-3\"-氯苯丙酮;",
    "alternate_name": "1-Propanone, 3-chloro-1-(4-chlorophenyl)-;Propiophenone, 3,4′-dichloro-;3-Chloro-1-(4-chlorophenyl)-1-propanone;2-Chloroethyl <em>p</em>-chlorophenyl ketone;<em>p</em>,β-Dichloropropiophenone;3,4′-Dichloropropiophenone;<em>p</em>-Chloro-β-chloropropiophenone;β,<em>p</em>-Dichloropropiophenone;2-Chloroethyl 4-chlorophenyl ketone;2-(4-Chlorobenzoyl)ethyl chloride;β-Chloro-<em>p</em>-chloropropiophenone;NSC 36074;3-Chloro-4′-chloropropiophenone",
    "duplicated_cas_no": "",
    "SMILES": "C(CCCl)(=O)C1=CC=C(Cl)C=C1",
    "meta_data": {
        "InChI": "InChI=1S/C9H8Cl2O/c10-6-5-9(12)7-1-3-8(11)4-2-7/h1-4H,5-6H2",
        "InChIKey": null,
        "Canonical SMILES": "O=C(C1=CC=C(Cl)C=C1)CCCl",
        "Molecular Formula": "C<sub>9</sub>H<sub>8</sub>Cl<sub>2</sub>O",
        "Molecular Mass": "203.07",
        "Melting Point": "49-50 °C"
    }
}