{
    "cas_no": "98548-81-3",
    "key_name": "2-Butenoic acid, 4-(dimethylamino)-, hydrochloride (1:1)",
    "cn_name": null,
    "alternate_name": "2-Butenoic acid, 4-(dimethylamino)-, hydrochloride (1:1);Crotonic acid, 4-dimethylamino-, hydrochloride;2-Butenoic acid, 4-(dimethylamino)-, hydrochloride;4-Dimethylaminobut-2-enoic acid hydrochloride",
    "duplicated_cas_no": "",
    "SMILES": "C(=CC(O)=O)CN(C)C.Cl",
    "meta_data": {
        "InChI": "InChI=1S/C6H11NO2.ClH/c1-7(2)5-3-4-6(8)9;/h3-4H,5H2,1-2H3,(H,8,9);1H",
        "InChIKey": null,
        "Canonical SMILES": "Cl.O=C(O)C=CCN(C)C",
        "Molecular Formula": "C<sub>6</sub>H<sub>11</sub>NO<sub>2</sub>.ClH",
        "Molecular Mass": "",
        "Melting Point": "123 °C"
    }
}