{
    "cas_no": "78-88-6",
    "key_name": "2,3-Dichloropropene",
    "cn_name": "2,3-二氯丙烯;",
    "alternate_name": "1-Propene, 2,3-dichloro-;Propene, 2,3-dichloro-;2,3-Dichloro-1-propene;2,3-Dichloropropene;2-Chloroallyl chloride;2,3-Dichloropropylene;NSC 60520;HCO 125OXF",
    "duplicated_cas_no": "",
    "SMILES": "C(CCl)(=C)Cl",
    "meta_data": {
        "InChI": "InChI=1S/C3H4Cl2/c1-3(5)2-4/h1-2H2",
        "InChIKey": null,
        "Canonical SMILES": "ClC(=C)CCl",
        "Molecular Formula": "C<sub>3</sub>H<sub>4</sub>Cl<sub>2</sub>",
        "Molecular Mass": "110.97",
        "Boiling Point": "94 °C @ Press: 760 Torr",
        "Melting Point": "10 °C",
        "Density": "1.211 g/cm³ @ Temp: 20 °C"
    }
}