{
    "cas_no": "4630-80-2",
    "key_name": "Methyl cyclopentanecarboxylate",
    "cn_name": "环戊烷甲酸甲酯;",
    "alternate_name": "Cyclopentanecarboxylic acid, methyl ester;Methyl cyclopentanecarboxylate;1-(Methoxycarbonyl)cyclopentane;NSC 87553;Cyclopentanoic acid methyl ester",
    "duplicated_cas_no": "",
    "SMILES": "C(OC)(=O)C1CCCC1",
    "meta_data": {
        "InChI": "InChI=1S/C7H12O2/c1-9-7(8)6-4-2-3-5-6/h6H,2-5H2,1H3",
        "InChIKey": null,
        "Canonical SMILES": "O=C(OC)C1CCCC1",
        "Molecular Formula": "C<sub>7</sub>H<sub>12</sub>O<sub>2</sub>",
        "Molecular Mass": "128.17",
        "Boiling Point": "154.0-154.5 °C @ Press: 740 Torr",
        "Melting Point": "77-78 °C",
        "Density": "0.9859 g/cm³ @ Temp: 20 °C"
    }
}