{
    "cas_no": "2440-22-4",
    "key_name": "Drometrizole",
    "cn_name": "2-(2H-苯并三氮唑-2-基)对甲苯酚;2-(2\"-羟基-5\"-甲基苯基)苯并三唑;紫外线吸收剂UV-P;紫外线吸收剂UV-71;",
    "alternate_name": "Phenol, 2-(2<em>H</em>-benzotriazol-2-yl)-4-methyl-;<em>p</em>-Cresol, 2-(2<em>H</em>-benzotriazol-2-yl)-;2-(2<em>H</em>-Benzotriazol-2-yl)-4-methylphenol;2-(2-Hydroxy-5-methylphenyl)benzotriazole;Tinuvin P;2-(2′-Hydroxy-5′-methylphenyl)benzotriazole;Benazol P;2-(2-Hydroxy-5-methylphenyl)-2<em>H</em>-benzotriazole;UV Absorber 1;2-(2<em>H</em>-Benzotriazol-2-yl)-<em>p</em>-cresol;Drometrizole;Seikalizer AZ;Benazol II;Sumisorb 200;Mark LA 32;2-Benzotriazol-2-yl-4-methylphenol;2-(5-Methyl-2-hydroxyphenyl)benzotriazole;Viosorb 520;UVA-P;ADK Stab LA 32;LA 32;Seesorb 701;JF 77;ADK-ARKLS DN 13;2-(5′-Methyl-2′-hydroxyphenyl)benzotriazole;NSC 91885;Uvasorb SV;Lowilite 55;Eversorb 71;JF 77P;BT 1 (light stabilizer);BT 1;Uvinul 3033P;UV-P;Kemisorb 71;UV-P (UV stabilizer);Dainsorb T 1;JF 77T;2-(2-Hydroxy-5-methyl)benzotriazole;JCK-W-UA;4-Methyl-2-(2<em>H</em>-benzotriazol-2-yl)phenol;Tinuvin UV-P;Solartex UVP;Chisorb P;Tinuvin PED;UV 71;Songsorb 1000;2-(2<em>H</em>-Benzo[<em>d</em>][1,2,3]triazol-2-yl)-4-methylphenol;2-(2′-Hydroxy-5′-methylphenyl)-2<em>H</em>-benzotriazole;Seesorb 701B;3033P;Adeka Stab LA 32",
    "duplicated_cas_no": "50815-99-1;106085-67-0;114921-82-3;134018-55-6;136567-91-4;141602-58-6;159520-35-1;169340-52-7;183681-64-3;189377-86-4;195740-58-0;796971-93-2;908100-86-7;909728-28-5;1244977-92-1;2353514-71-1;2574354-74-6;3033530-45-6",
    "SMILES": "OC1=C(N2N=C3C(=N2)C=CC=C3)C=C(C)C=C1",
    "meta_data": {
        "InChI": "InChI=1S/C13H11N3O/c1-9-6-7-13(17)12(8-9)16-14-10-4-2-3-5-11(10)15-16/h2-8,17H,1H3",
        "InChIKey": null,
        "Canonical SMILES": "OC1=CC=C(C=C1N2N=C3C=CC=CC3=N2)C",
        "Molecular Formula": "C<sub>13</sub>H<sub>11</sub>N<sub>3</sub>O",
        "Molecular Mass": "225.25",
        "Boiling Point": "225 °C @ Press: 10 Torr",
        "Melting Point": "131-133 °C"
    }
}