{
    "cas_no": "540-38-5",
    "key_name": "4-Iodophenol",
    "cn_name": "4-碘苯酚;对碘苯酚;",
    "alternate_name": "Phenol, 4-iodo-;Phenol, <em>p</em>-iodo-;4-Iodophenol;<em>p</em>-Iodophenol;4-Hydroxyiodobenzene;4-Hydroxyphenyl iodide;<em>p</em>-Hydroxyiodobenzene;NSC 91464;1-Iodo-4-hydroxybenzene",
    "duplicated_cas_no": "1779540-31-6",
    "SMILES": "IC1=CC=C(O)C=C1",
    "meta_data": {
        "InChI": "InChI=1S/C6H5IO/c7-5-1-3-6(8)4-2-5/h1-4,8H",
        "InChIKey": null,
        "Canonical SMILES": "IC1=CC=C(O)C=C1",
        "Molecular Formula": "C<sub>6</sub>H<sub>5</sub>IO",
        "Molecular Mass": "220.01",
        "Melting Point": "93.5 °C"
    }
}