{
    "cas_no": "76-83-5",
    "key_name": "Trityl chloride",
    "cn_name": "三苯基氯甲烷;",
    "alternate_name": "Benzene, 1,1′,1′′-(chloromethylidyne)tris-;Methane, chlorotriphenyl-;1,1′,1′′-(Chloromethylidyne)tris[benzene];Chlorotriphenylmethane;Triphenylchloromethane;Triphenylmethyl chloride;Trityl chloride;NSC 435;(Chlorodiphenylmethyl)benzene;(Chloromethanetriyl)tribenzene",
    "duplicated_cas_no": "",
    "SMILES": "C(Cl)(C1=CC=CC=C1)(C2=CC=CC=C2)C3=CC=CC=C3",
    "meta_data": {
        "InChI": "InChI=1S/C19H15Cl/c20-19(16-10-4-1-5-11-16,17-12-6-2-7-13-17)18-14-8-3-9-15-18/h1-15H",
        "InChIKey": null,
        "Canonical SMILES": "ClC(C=1C=CC=CC1)(C=2C=CC=CC2)C=3C=CC=CC3",
        "Molecular Formula": "C<sub>19</sub>H<sub>15</sub>Cl",
        "Molecular Mass": "278.78",
        "Boiling Point": "310 °C @ Press: 760 Torr",
        "Melting Point": "113-114 °C"
    }
}