{
    "cas_no": "92-43-3",
    "key_name": "Phenidone",
    "cn_name": "菲尼酮;菲尼酮A;1-苯基-3-吡唑烷酮;",
    "alternate_name": "3-Pyrazolidinone, 1-phenyl-;2-Pyrazolin-3-ol, 1-phenyl-;1-Phenyl-3-pyrazolidinone;Phenidone;1-Phenyl-3-oxopyrazolidine;1-Phenyl-3-pyrazolidone;Fenidon;1-Phenylpyrazolidine-3-one;1-Phenyl-4,5-dihydro-1<em>H</em>-pyrazol-3-ol",
    "duplicated_cas_no": "4072-30-4",
    "SMILES": "O=C1NN(CC1)C2=CC=CC=C2",
    "meta_data": {
        "InChI": "InChI=1S/C9H10N2O/c12-9-6-7-11(10-9)8-4-2-1-3-5-8/h1-5H,6-7H2,(H,10,12)",
        "InChIKey": null,
        "Canonical SMILES": "O=C1NN(C=2C=CC=CC2)CC1",
        "Molecular Formula": "C<sub>9</sub>H<sub>10</sub>N<sub>2</sub>O",
        "Molecular Mass": "162.19",
        "Melting Point": "126 °C"
    }
}