{
    "cas_no": "5435-54-1",
    "key_name": "3-Nitro-4-pyridinol",
    "cn_name": null,
    "alternate_name": "4-Pyridinol, 3-nitro-;3-Nitro-4-pyridinol;4-Hydroxy-3-nitropyridine;3-Nitro-4-hydroxypyridine;NSC 21465;3-Nitro-1<em>H</em>-pyridin-4-one",
    "duplicated_cas_no": "",
    "SMILES": "N(=O)(=O)C=1C(O)=CC=NC1",
    "meta_data": {
        "InChI": "InChI=1S/C5H4N2O3/c8-5-1-2-6-3-4(5)7(9)10/h1-3H,(H,6,8)",
        "InChIKey": null,
        "Canonical SMILES": "O=N(=O)C=1C=NC=CC1O",
        "Molecular Formula": "C<sub>5</sub>H<sub>4</sub>N<sub>2</sub>O<sub>3</sub>",
        "Molecular Mass": "140.10",
        "Melting Point": "284 °C (decomp)"
    }
}