{
    "cas_no": "17228-69-2",
    "key_name": "2-Chloro-4-methoxypyridine",
    "cn_name": "2-氯-4-甲氧基吡啶;",
    "alternate_name": "Pyridine, 2-chloro-4-methoxy-;2-Chloro-4-methoxypyridine",
    "duplicated_cas_no": "",
    "SMILES": "O(C)C=1C=C(Cl)N=CC1",
    "meta_data": {
        "InChI": "InChI=1S/C6H6ClNO/c1-9-5-2-3-8-6(7)4-5/h2-4H,1H3",
        "InChIKey": null,
        "Canonical SMILES": "ClC1=NC=CC(OC)=C1",
        "Molecular Formula": "C<sub>6</sub>H<sub>6</sub>ClNO",
        "Molecular Mass": "143.57",
        "Boiling Point": "229-230 °C"
    }
}