{
    "cas_no": "41014-93-1",
    "key_name": "(2<em>S</em>)-2-Hydroxypentanoic acid",
    "cn_name": null,
    "alternate_name": "Pentanoic acid, 2-hydroxy-, (2<em>S</em>)-;Pentanoic acid, 2-hydroxy-, (<em>S</em>)-;(2<em>S</em>)-2-Hydroxypentanoic acid;<span class=\"text-smallcaps\">L</span>-2-Hydroxyvaleric acid;<span class=\"text-smallcaps\">L</span>-2-Hydroxypentanoic acid;(<em>S</em>)-α-Hydroxyvaleric acid;<em>S</em>-2-Hydroxypentanoic acid;(<em>S</em>)-2-Hydroxyvaleric acid",
    "duplicated_cas_no": "",
    "SMILES": "[C@H](CCC)(C(O)=O)O",
    "meta_data": {
        "InChI": "InChI=1S/C5H10O3/c1-2-3-4(6)5(7)8/h4,6H,2-3H2,1H3,(H,7,8)/t4-/m0/s1",
        "InChIKey": null,
        "Canonical SMILES": "O=C(O)C(O)CCC",
        "Molecular Formula": "C<sub>5</sub>H<sub>10</sub>O<sub>3</sub>",
        "Molecular Mass": "118.13",
        "Melting Point": "52-55 °C"
    }
}