{
    "cas_no": "3249-68-1",
    "key_name": "Ethyl 3-oxohexanoate",
    "cn_name": "丁酰乙酸乙酯;",
    "alternate_name": "Hexanoic acid, 3-oxo-, ethyl ester;Caproic acid, β-oxo-, ethyl ester;Ethyl 3-oxohexanoate;Ethyl α-butyrylacetate;Ethyl butyrylacetate;Ethyl butyroacetate;3-Oxohexanoic acid ethyl ester;Ethyl butyroylacetate;Ethyl 3-ketohexanoate;NSC 42868;Ethyl 3-propyl-3-oxopropanoate;Butyrylacetic acid ethyl ester",
    "duplicated_cas_no": "",
    "SMILES": "C(CC(OCC)=O)(CCC)=O",
    "meta_data": {
        "InChI": "InChI=1S/C8H14O3/c1-3-5-7(9)6-8(10)11-4-2/h3-6H2,1-2H3",
        "InChIKey": null,
        "Canonical SMILES": "O=C(OCC)CC(=O)CCC",
        "Molecular Formula": "C<sub>8</sub>H<sub>14</sub>O<sub>3</sub>",
        "Molecular Mass": "158.20",
        "Boiling Point": "139-140 °C @ Press: 24 Torr",
        "Density": "1.0168 g/cm³ @ Temp: 20 °C"
    }
}