{
    "cas_no": "1074-59-5",
    "key_name": "1<em>H</em>-Imidazole-5-propanoic acid",
    "cn_name": null,
    "alternate_name": "1<em>H</em>-Imidazole-5-propanoic acid;Imidazole-4-propionic acid;1<em>H</em>-Imidazole-4-propanoic acid;Imidazole-4(<em>or</em> 5)-propionic acid;3-(4-Imidazolyl)propionic acid;β-Imidazolyl-4(5)-propionic acid;Dihydrourocanic acid;β-(5-Imidazolyl)propionic acid;Imidazolylpropionic acid;3-(Imidazol-4(5)-yl)propionic acid;Dihydrourocanoic acid;1<em>H</em>-Imidazole-4-propionic acid;3-(1<em>H</em>-4-Imidazolyl)propanoic acid;NSC 66737;3-(1<em>H</em>-Imidazol-4-yl)propionic acid;5-(2-Carboxyethyl) imidazole",
    "duplicated_cas_no": "3724-24-1",
    "SMILES": "C(CC(O)=O)C1=CN=CN1",
    "meta_data": {
        "InChI": "InChI=1S/C6H8N2O2/c9-6(10)2-1-5-3-7-4-8-5/h3-4H,1-2H2,(H,7,8)(H,9,10)",
        "InChIKey": null,
        "Canonical SMILES": "O=C(O)CCC1=CN=CN1",
        "Molecular Formula": "C<sub>6</sub>H<sub>8</sub>N<sub>2</sub>O<sub>2</sub>",
        "Molecular Mass": "140.14",
        "Melting Point": "206-208 °C"
    }
}