{
    "cas_no": "7681-52-9",
    "key_name": "Sodium hypochlorite",
    "cn_name": "次氯酸钠;",
    "alternate_name": "Hypochlorous acid, sodium salt (1:1);Hypochlorous acid, sodium salt;Hyclorite;B-K Liquid;Sodium hypochlorite;Clorox;Antiformin;Sodium hypochlorite (NaOCl);Carrel-Dakin solution;Modified Dakin's solution;Milton;Chloros;Javex;Deosan;Neo-cleaner;Purin B;Klorocin;Dakin's solution;Sodium hypochloride;Parozone;Sodium hypochlorite (NaClO);Neoseptal CL;XY 12;Sunnysol 150;Javel water;Javelle water;Solutions, Dakin's;Hypure;Hypure N;Dispatch;Sodium chloride oxide (NaClO);Youxiaolin;AD Gel;Cloralex;Super White L;Dispatch (salt);AgClor 310;ActiPlus N 2818;Sodium oxychloride;Linely;Hishikurin S;Fox-Chlor;Purelox;Aron Clean;Parazone;Belizna;Comfor;Belkina;Tsurukuron;Sanrack P;Jomax Mold &amp; Mildew Stain Remover;Baso agri+;Milton Sterilising Fluid;Javex 5;Nades;Aron Clean LB 10;Raverrack D;Purelex;Hypex;Histolith;DanKlorix;Tsurukuron N 40;Tsurukuron TW;Cloralex NL;Purelox S;Sodium chloride oxide;Deccoklor;Neolux Super;Sodium hypochlorite (Na(ClO));Lavanox;Kerrasol;ActiMaris Forte;Avol ACT;B 14993;MeSH ID: D012973;Purebright",
    "duplicated_cas_no": "8007-59-8;56172-57-7;102324-78-7;227453-69-2;2243270-16-6",
    "SMILES": "ClO.[Na]",
    "meta_data": {
        "InChI": "InChI=1S/ClHO.Na/c1-2;/h2H;",
        "InChIKey": null,
        "Canonical SMILES": "[Na].ClO",
        "Molecular Formula": "ClHO.Na",
        "Molecular Mass": "",
        "Melting Point": "18 °C"
    }
}