{
    "cas_no": "71989-16-7",
    "key_name": "FMOC-<span class=\"text-smallcaps\">L</span>-asparagine",
    "cn_name": "Fmoc-L-天冬酰胺;芴甲氧羰基-L-天冬酰胺;",
    "alternate_name": "<span class=\"text-smallcaps\">L</span>-Asparagine, <em>N</em><sup>2</sup>-[(9<em>H</em>-fluoren-9-ylmethoxy)carbonyl]-;<em>N</em><sup>2</sup>-[(9<em>H</em>-Fluoren-9-ylmethoxy)carbonyl]-<span class=\"text-smallcaps\">L</span>-asparagine;<em>N</em><sup>2</sup>-(9-Fluorenylmethoxycarbonyl)asparagine;<em>N</em>-(9-Fluorenylmethoxycarbonyl)asparagine;FMOC-<span class=\"text-smallcaps\">L</span>-asparagine;<em>N</em>-FMOC-<span class=\"text-smallcaps\">L</span>-asparagine;NSC 334297;(2S)-3-Carbamoyl-2-([[(9<em>H</em>-fluoren-9-yl)methoxy]carbonyl]amino)propanoic acid;(2S)-4-Amino-2-(9<em>H</em>-fluoren-9-ylmethoxycarbonylamino)-4-oxobutanoic acid",
    "duplicated_cas_no": "127273-05-6",
    "SMILES": "C(OC(N[C@@H](CC(N)=O)C(O)=O)=O)C1C=2C(C=3C1=CC=CC3)=CC=CC2",
    "meta_data": {
        "InChI": "InChI=1S/C19H18N2O5/c20-17(22)9-16(18(23)24)21-19(25)26-10-15-13-7-3-1-5-11(13)12-6-2-4-8-14(12)15/h1-8,15-16H,9-10H2,(H2,20,22)(H,21,25)(H,23,24)/t16-/m0/s1",
        "InChIKey": null,
        "Canonical SMILES": "O=C(OCC1C=2C=CC=CC2C=3C=CC=CC31)NC(C(=O)O)CC(=O)N",
        "Molecular Formula": "C<sub>19</sub>H<sub>18</sub>N<sub>2</sub>O<sub>5</sub>",
        "Molecular Mass": "354.36",
        "Melting Point": "187-188 °C"
    }
}