{
    "cas_no": "15862-31-4",
    "key_name": "3-Bromo-5-nitro-2-pyridinamine",
    "cn_name": "2-氨基-3-溴-5-硝基吡啶;",
    "alternate_name": "2-Pyridinamine, 3-bromo-5-nitro-;Pyridine, 2-amino-3-bromo-5-nitro-;3-Bromo-5-nitro-2-pyridinamine;2-Amino-3-bromo-5-nitropyridine;3-Bromo-5-nitropyridin-2-amine;3-Bromo-5-nitro-pyridin-2-ylamine",
    "duplicated_cas_no": "",
    "SMILES": "N(=O)(=O)C=1C=C(Br)C(N)=NC1",
    "meta_data": {
        "InChI": "InChI=1S/C5H4BrN3O2/c6-4-1-3(9(10)11)2-8-5(4)7/h1-2H,(H2,7,8)",
        "InChIKey": null,
        "Canonical SMILES": "O=N(=O)C1=CN=C(N)C(Br)=C1",
        "Molecular Formula": "C<sub>5</sub>H<sub>4</sub>BrN<sub>3</sub>O<sub>2</sub>",
        "Molecular Mass": "218.01",
        "Melting Point": "215 °C (decomp)"
    }
}