{
    "cas_no": "13718-26-8",
    "key_name": "Sodium metavanadate",
    "cn_name": "偏钒酸钠;钒酸钠;",
    "alternate_name": "Vanadate (VO<sub>3</sub><sup>1-</sup>), sodium (1:1);Vanadic acid (HVO<sub>3</sub>), sodium salt;Sodium vanadate(V) (NaVO<sub>3</sub>);Vanadate (VO<sub>3</sub><sup>1-</sup>), sodium;Sodium metavanadate;Sodium vanadium oxide (NaVO<sub>3</sub>);Sodium vanadate;Sodium metavanadate (NaVO<sub>3</sub>);Sodium vanadate (NaVO<sub>3</sub>);Sodium vanadium trioxide;Monosodium trioxovanadate(1-);Sodium trioxovanadate(1-)",
    "duplicated_cas_no": "12436-25-8;188478-12-8",
    "SMILES": "[V-](=O)(=O)=O.[Na+]",
    "meta_data": {
        "InChI": "InChI=1S/Na.3O.V/q+1;;;;-1",
        "InChIKey": null,
        "Canonical SMILES": "[Na+].O=[V-](=O)=O",
        "Molecular Formula": "Na.O<sub>3</sub>V",
        "Molecular Mass": "",
        "Melting Point": "630 °C",
        "Density": "3.241 g/cm³ @ Temp: 20 °C"
    }
}