{
    "cas_no": "3328-60-7",
    "key_name": "5,6-Dihydroyangonin",
    "cn_name": null,
    "alternate_name": "2<em>H</em>-Pyran-2-one, 5,6-dihydro-4-methoxy-6-[(1<em>E</em>)-2-(4-methoxyphenyl)ethenyl]-;2<em>H</em>-Pyran-2-one, 5,6-dihydro-4-methoxy-6-(<em>p</em>-methoxystyryl)-;2,6-Heptadienoic acid, 5-hydroxy-3-methoxy-7-(<em>p</em>-methoxyphenyl)-, δ-lactone;5,6-Dihydro-4-methoxy-6-[(1<em>E</em>)-2-(4-methoxyphenyl)ethenyl]-2<em>H</em>-pyran-2-one;5,6-Dihydroyangonin",
    "duplicated_cas_no": "130464-78-7;3155-49-5;62445-12-9",
    "SMILES": "C(=C/C1=CC=C(OC)C=C1)\\C2CC(OC)=CC(=O)O2",
    "meta_data": {
        "InChI": "InChI=1/C15H16O4/c1-17-12-6-3-11(4-7-12)5-8-13-9-14(18-2)10-15(16)19-13/h3-8,10,13H,9H2,1-2H3/b8-5+",
        "InChIKey": null,
        "Canonical SMILES": "O=C1OC(C=CC2=CC=C(OC)C=C2)CC(OC)=C1",
        "Molecular Formula": "C<sub>15</sub>H<sub>16</sub>O<sub>4</sub>",
        "Molecular Mass": "260.29",
        "Melting Point": "120-123 °C"
    }
}