{
    "cas_no": "67-16-3",
    "key_name": "Thiamine disulfide",
    "cn_name": "二硫化硫胺;硫胺素二硫化物;二硫化双[2-(2-羟乙基)-1-甲基-2,1-乙烯)]双[N-[(4-氨基-2-甲基-5-嘧啶基]甲基];",
    "alternate_name": "Formamide, <em>N</em>,<em>N</em>′-[dithiobis[2-(2-hydroxyethyl)-1-methyl-2,1-ethenediyl]]bis[<em>N</em>-[(4-amino-2-methyl-5-pyrimidinyl)methyl]-;Formamide, <em>N</em>,<em>N</em>′-[dithiobis[2-(2-hydroxyethyl)-1-methylvinylene]]bis[<em>N</em>-[(4-amino-2-methyl-5-pyrimidinyl)methyl]-;<em>N</em>,<em>N</em>′-[Dithiobis[2-(2-hydroxyethyl)-1-methyl-2,1-ethenediyl]]bis[<em>N</em>-[(4-amino-2-methyl-5-pyrimidinyl)methyl]formamide];Aneurine disulfide;<em>N</em>,<em>N</em>′-[Dithiobis[2-(2-hydroxyethyl)-1-methylvinylene]]bis[<em>N</em>-[(4-amino-2-methyl-5-pyrimidinyl)methyl]formamide;SSB<sub>1</sub>;TDS;Thiamine disulfide;Vitamin B<sub>1</sub> disulfide;Algoneurina;Feidmin 5;Alitia S;Neolamin;Apren S;Thiamidin F;Daiomin;Daisazin;Thiamin disulfide;TDS (neurotrope);Aneurin disulfide;Aktivin;Lowei",
    "duplicated_cas_no": "1089761-47-6;1089761-51-2",
    "SMILES": "C(N(C(=C(SSC(=C(N(CC=1C(N)=NC(C)=NC1)C=O)C)CCO)CCO)C)C=O)C=2C(N)=NC(C)=NC2",
    "meta_data": {
        "InChI": "InChI=1S/C24H34N8O4S2/c1-15(31(13-35)11-19-9-27-17(3)29-23(19)25)21(5-7-33)37-38-22(6-8-34)16(2)32(14-36)12-20-10-28-18(4)30-24(20)26/h9-10,13-14,33-34H,5-8,11-12H2,1-4H3,(H2,25,27,29)(H2,26,28,30)",
        "InChIKey": null,
        "Canonical SMILES": "O=CN(C(=C(SSC(=C(N(C=O)CC1=CN=C(N=C1N)C)C)CCO)CCO)C)CC2=CN=C(N=C2N)C",
        "Molecular Formula": "C<sub>24</sub>H<sub>34</sub>N<sub>8</sub>O<sub>4</sub>S<sub>2</sub>",
        "Molecular Mass": "562.71",
        "Melting Point": "177 °C"
    }
}