{
    "cas_no": "2689-63-6",
    "key_name": "Phosphonium, (1-methyl-2-oxo-2-phenylethyl)triphenyl-, bromide (1:1)",
    "cn_name": null,
    "alternate_name": "Phosphonium, (1-methyl-2-oxo-2-phenylethyl)triphenyl-, bromide (1:1);Phosphonium, (α-methylphenacyl)triphenyl-, bromide;Phosphonium, (1-methyl-2-oxo-2-phenylethyl)triphenyl-, bromide;(α-Methylphenacyl)triphenylphosphonium bromide",
    "duplicated_cas_no": "",
    "SMILES": "[P+](C(C(=O)C1=CC=CC=C1)C)(C2=CC=CC=C2)(C3=CC=CC=C3)C4=CC=CC=C4.[Br-]",
    "meta_data": {
        "InChI": "InChI=1S/C27H24OP.BrH/c1-22(27(28)23-14-6-2-7-15-23)29(24-16-8-3-9-17-24,25-18-10-4-11-19-25)26-20-12-5-13-21-26;/h2-22H,1H3;1H/q+1;/p-1",
        "InChIKey": null,
        "Canonical SMILES": "[Br-].O=C(C=1C=CC=CC1)C(C)[P+](C=2C=CC=CC2)(C=3C=CC=CC3)C=4C=CC=CC4",
        "Molecular Formula": "C<sub>27</sub>H<sub>24</sub>OP.Br",
        "Molecular Mass": "",
        "Melting Point": "245-245.5 °C"
    }
}