{
    "cas_no": "619-12-5",
    "key_name": "4-Formyl-3-hydroxybenzoic acid",
    "cn_name": "4-甲酰基-3-羟基苯甲酸;",
    "alternate_name": "Benzoic acid, 4-formyl-3-hydroxy-;Terephthalaldehydic acid, 3-hydroxy-;4-Formyl-3-hydroxybenzoic acid;NSC 249767",
    "duplicated_cas_no": "",
    "SMILES": "C(O)(=O)C1=CC(O)=C(C=O)C=C1",
    "meta_data": {
        "InChI": "InChI=1S/C8H6O4/c9-4-6-2-1-5(8(11)12)3-7(6)10/h1-4,10H,(H,11,12)",
        "InChIKey": null,
        "Canonical SMILES": "O=CC1=CC=C(C=C1O)C(=O)O",
        "Molecular Formula": "C<sub>8</sub>H<sub>6</sub>O<sub>4</sub>",
        "Molecular Mass": "166.13",
        "Melting Point": "233-234 °C"
    }
}