{
    "cas_no": "37895-73-1",
    "key_name": "1,2-Dibromo-4,5-dimethoxybenzene",
    "cn_name": "4,5-二溴-1,2-二甲氧基苯;",
    "alternate_name": "Benzene, 1,2-dibromo-4,5-dimethoxy-;1,2-Dibromo-4,5-dimethoxybenzene;4,5-Dibromoveratrole;4,5-Dibromo-1,2-dimethoxybenzene;4,5-Dimethoxy-1,2-dibromobenzene",
    "duplicated_cas_no": "",
    "SMILES": "O(C)C1=C(OC)C=C(Br)C(Br)=C1",
    "meta_data": {
        "InChI": "InChI=1S/C8H8Br2O2/c1-11-7-3-5(9)6(10)4-8(7)12-2/h3-4H,1-2H3",
        "InChIKey": null,
        "Canonical SMILES": "BrC=1C=C(OC)C(OC)=CC1Br",
        "Molecular Formula": "C<sub>8</sub>H<sub>8</sub>Br<sub>2</sub>O<sub>2</sub>",
        "Molecular Mass": "295.96",
        "Melting Point": "92 °C"
    }
}