{
    "cas_no": "67129-08-2",
    "key_name": "Metazachlor",
    "cn_name": "吡草胺;吡唑草胺;2-氯-N-(2,6-二甲基苯基)-N-(1H-吡唑-1-基甲基)乙酰胺;",
    "alternate_name": "Acetamide, 2-chloro-<em>N</em>-(2,6-dimethylphenyl)-<em>N</em>-(1<em>H</em>-pyrazol-1-ylmethyl)-;2-Chloro-<em>N</em>-(2,6-dimethylphenyl)-<em>N</em>-(1<em>H</em>-pyrazol-1-ylmethyl)acetamide;BAS 479H;BAS 47902H;Metazachlor;Butisan S;Methazachlor;Pree;Butisan;BAS 479;Butisan 400SC;Sultan",
    "duplicated_cas_no": "74433-79-7;77847-86-0",
    "SMILES": "N(CN1C=CC=N1)(C(CCl)=O)C2=C(C)C=CC=C2C",
    "meta_data": {
        "InChI": "InChI=1S/C14H16ClN3O/c1-11-5-3-6-12(2)14(11)18(13(19)9-15)10-17-8-4-7-16-17/h3-8H,9-10H2,1-2H3",
        "InChIKey": null,
        "Canonical SMILES": "O=C(N(C=1C(=CC=CC1C)C)CN2N=CC=C2)CCl",
        "Molecular Formula": "C<sub>14</sub>H<sub>16</sub>ClN<sub>3</sub>O",
        "Molecular Mass": "277.75",
        "Melting Point": "85 °C",
        "Density": "1.237-1.323 g/cm³ @ Temp: 25 °C"
    }
}