{
    "cas_no": "29334-16-5",
    "key_name": "4-Bromo-α-phenylbenzenemethanol",
    "cn_name": null,
    "alternate_name": "Benzenemethanol, 4-bromo-α-phenyl-;Benzhydrol, 4-bromo-;Benzohydrol, 4-bromo-;4-Bromo-α-phenylbenzenemethanol;4-Bromobenzhydrol;<em>p</em>-Bromobenzhydrol;α-(4-Bromophenyl)benzenemethanol;(4-Bromophenyl)phenylmethanol;4-(1-Hydroxybenzyl)bromobenzene;NSC 89817;(±)-(4-Bromophenyl)phenylmethanol;α-Phenyl-<em>p</em>-bromobenzyl alcohol;(<em>p</em>-Bromophenyl)-α-phenylmethanol",
    "duplicated_cas_no": "137567-00-1",
    "SMILES": "C(O)(C1=CC=C(Br)C=C1)C2=CC=CC=C2",
    "meta_data": {
        "InChI": "InChI=1S/C13H11BrO/c14-12-8-6-11(7-9-12)13(15)10-4-2-1-3-5-10/h1-9,13,15H",
        "InChIKey": null,
        "Canonical SMILES": "BrC1=CC=C(C=C1)C(O)C=2C=CC=CC2",
        "Molecular Formula": "C<sub>13</sub>H<sub>11</sub>BrO",
        "Molecular Mass": "263.13",
        "Melting Point": "65 °C"
    }
}