{
    "cas_no": "1628-89-3",
    "key_name": "2-Methoxypyridine",
    "cn_name": "2-甲氧基吡啶;",
    "alternate_name": "Pyridine, 2-methoxy-;2-Methoxypyridine",
    "duplicated_cas_no": "",
    "SMILES": "O(C)C1=CC=CC=N1",
    "meta_data": {
        "InChI": "InChI=1S/C6H7NO/c1-8-6-4-2-3-5-7-6/h2-5H,1H3",
        "InChIKey": null,
        "Canonical SMILES": "N=1C=CC=CC1OC",
        "Molecular Formula": "C<sub>6</sub>H<sub>7</sub>NO",
        "Molecular Mass": "109.13",
        "Boiling Point": "142 °C",
        "Density": "1.041 g/cm³ @ Temp: 25 °C"
    }
}