{
    "cas_no": "17833-53-3",
    "key_name": "<em>N</em>-Methylaspartic acid",
    "cn_name": "N-甲基-DL-天冬酸(一水);",
    "alternate_name": "Aspartic acid, <em>N</em>-methyl-;Aspartic acid, <em>N</em>-methyl-, <span class=\"text-smallcaps\">DL</span>-;<span class=\"text-smallcaps\">DL</span>-Aspartic acid, <em>N</em>-methyl-;<em>N</em>-Methylaspartic acid;<span class=\"text-smallcaps\">DL</span>-<em>N</em>-Methylaspartic acid;<em>N</em>-Methyl-<span class=\"text-smallcaps\">DL</span>-aspartic acid;<em>N</em>-Methyl-<span class=\"text-smallcaps\">DL</span>-aspartate;(RS)-<em>N</em>-methyL-aspartic acid;2-(Methylamino)succinic acid;2-(Methylamino)butanedioic acid",
    "duplicated_cas_no": "107147-57-9;89417-49-2",
    "SMILES": "C(CC(O)=O)(C(O)=O)NC",
    "meta_data": {
        "InChI": "InChI=1S/C5H9NO4/c1-6-3(5(9)10)2-4(7)8/h3,6H,2H2,1H3,(H,7,8)(H,9,10)",
        "InChIKey": null,
        "Canonical SMILES": "O=C(O)CC(NC)C(=O)O",
        "Molecular Formula": "C<sub>5</sub>H<sub>9</sub>NO<sub>4</sub>",
        "Molecular Mass": "147.13",
        "Melting Point": "183-184 °C"
    }
}