{
    "cas_no": "4743-17-3",
    "key_name": "5-Chloroisatoic anhydride",
    "cn_name": "5-氯靛红酸酐;6-氯-4H-3,1-苯并恶嗪-2,4(1H)-二酮;",
    "alternate_name": "2<em>H</em>-3,1-Benzoxazine-2,4(1<em>H</em>)-dione, 6-chloro-;Isatoic anhydride, 5-chloro-;6-Chloro-2<em>H</em>-3,1-benzoxazine-2,4(1<em>H</em>)-dione;5-Chloroisatoic anhydride;6-Chloro-1,2-dihydro-4<em>H</em>-3,1-benzoxazine-2,4-dione;6-Chloro-1<em>H</em>-benzo[<em>d</em>][1,3]oxazine-2,4-dione;NSC 139890;NSC 75847;6-Chloro-2<em>H</em>-3,1-dihydrobenzoxazine-2,4-dione",
    "duplicated_cas_no": "",
    "SMILES": "O=C1C=2C(NC(=O)O1)=CC=C(Cl)C2",
    "meta_data": {
        "InChI": "InChI=1S/C8H4ClNO3/c9-4-1-2-6-5(3-4)7(11)13-8(12)10-6/h1-3H,(H,10,12)",
        "InChIKey": null,
        "Canonical SMILES": "O=C1OC(=O)C2=CC(Cl)=CC=C2N1",
        "Molecular Formula": "C<sub>8</sub>H<sub>4</sub>ClNO<sub>3</sub>",
        "Molecular Mass": "197.58",
        "Melting Point": "278-281 °C"
    }
}