{
    "cas_no": "6064-83-1",
    "key_name": "Fosfosal",
    "cn_name": "福司福沙;",
    "alternate_name": "Benzoic acid, 2-(phosphonooxy)-;Salicylic acid, dihydrogen phosphate;Salicylic acid, phosphate;2-(Phosphonooxy)benzoic acid;<em>o</em>-Carboxyphenyl phosphate;Salicyl phosphate;2-Carboxyphenyl dihydrogen phosphate;Phosphoric acid <em>o</em>-carboxyphenyl ester;UR 1522;Fosfosal;UR 1521;Disdolen;2-Phosphonoxybenzoic acid;NSC 46475",
    "duplicated_cas_no": "",
    "SMILES": "C(O)(=O)C1=C(OP(=O)(O)O)C=CC=C1",
    "meta_data": {
        "InChI": "InChI=1S/C7H7O6P/c8-7(9)5-3-1-2-4-6(5)13-14(10,11)12/h1-4H,(H,8,9)(H2,10,11,12)",
        "InChIKey": null,
        "Canonical SMILES": "O=C(O)C=1C=CC=CC1OP(=O)(O)O",
        "Molecular Formula": "C<sub>7</sub>H<sub>7</sub>O<sub>6</sub>P",
        "Molecular Mass": "218.10",
        "Melting Point": "169 °C"
    }
}