{
    "cas_no": "220801-66-1",
    "key_name": "Methyl 5-bromo-2-hydroxybenzeneacetate",
    "cn_name": null,
    "alternate_name": "Benzeneacetic acid, 5-bromo-2-hydroxy-, methyl ester;Methyl 5-bromo-2-hydroxybenzeneacetate;2-(5-Bromo-2-hydroxyphenyl)acetic acid methyl ester;Methyl 2-(5-bromo-2-hydroxyphenyl)acetate",
    "duplicated_cas_no": "",
    "SMILES": "C(C(OC)=O)C1=C(O)C=CC(Br)=C1",
    "meta_data": {
        "InChI": "InChI=1S/C9H9BrO3/c1-13-9(12)5-6-4-7(10)2-3-8(6)11/h2-4,11H,5H2,1H3",
        "InChIKey": null,
        "Canonical SMILES": "O=C(OC)CC1=CC(Br)=CC=C1O",
        "Molecular Formula": "C<sub>9</sub>H<sub>9</sub>BrO<sub>3</sub>",
        "Molecular Mass": "245.07",
        "Melting Point": "81.1 °C"
    }
}