{
    "cas_no": "2315-97-1",
    "key_name": "Lucigenin",
    "cn_name": null,
    "alternate_name": "9,9′-Biacridinium, 10,10′-dimethyl-, nitrate (1:2);9,9′-Biacridinium, 10,10′-dimethyl-, dinitrate;10,10′-Dimethyl-9,9′-biacridinium dinitrate;Lucigenin;Lucigenin nitrate;Lucigenine;<em>N</em>,<em>N</em>′-Dimethyl-9,9′-biacridinium dinitrate;NSC 151912;L 6868",
    "duplicated_cas_no": "151237-32-0",
    "SMILES": "C[N+]=1C2=C(C(=C3C1C=CC=C3)C=4C5=C([N+](C)=C6C4C=CC=C6)C=CC=C5)C=CC=C2.N(=O)(=O)[O-]",
    "meta_data": {
        "InChI": "InChI=1S/C28H22N2.NO3/c1-29-23-15-7-3-11-19(23)27(20-12-4-8-16-24(20)29)28-21-13-5-9-17-25(21)30(2)26-18-10-6-14-22(26)28;2-1(3)4/h3-18H,1-2H3;/q+2;-1",
        "InChIKey": null,
        "Canonical SMILES": "O=N(=O)[O-].C=1C=CC=2C(C1)=C(C=3C=CC=CC3[N+]2C)C=4C=5C=CC=CC5[N+](=C6C=CC=CC64)C",
        "Molecular Formula": "C<sub>28</sub>H<sub>22</sub>N<sub>2</sub>.2NO<sub>3</sub>",
        "Molecular Mass": "",
        "Melting Point": "&gt;330 °C"
    }
}