{
    "cas_no": "41421-28-7",
    "key_name": "5-(3-Chlorophenyl)-2<em>H</em>-tetrazole",
    "cn_name": null,
    "alternate_name": "2<em>H</em>-Tetrazole, 5-(3-chlorophenyl)-;1<em>H</em>-Tetrazole, 5-(3-chlorophenyl)-;Tetrazole, 5-(<em>m</em>-chlorophenyl)-;5-(3-Chlorophenyl)-2<em>H</em>-tetrazole;5-(3-Chlorophenyl)tetrazole;5-(<em>m</em>-Chlorophenyl)tetrazole;5-(3-Chlorophenyl)-1<em>H</em>-tetrazole;5-(3-Chlorophenyl)-1<em>H</em>-1,2,3,4-tetrazole",
    "duplicated_cas_no": "",
    "SMILES": "ClC=1C=C(C=CC1)C=2NN=NN2",
    "meta_data": {
        "InChI": "InChI=1S/C7H5ClN4/c8-6-3-1-2-5(4-6)7-9-11-12-10-7/h1-4H,(H,9,10,11,12)",
        "InChIKey": null,
        "Canonical SMILES": "ClC1=CC=CC(=C1)C2=NN=NN2",
        "Molecular Formula": "C<sub>7</sub>H<sub>5</sub>ClN<sub>4</sub>",
        "Molecular Mass": "180.59",
        "Melting Point": "134.5 °C"
    }
}