{
    "cas_no": "1317-39-1",
    "key_name": "Copper oxide (Cu<sub>2</sub>O)",
    "cn_name": "氧化亚铜;",
    "alternate_name": "Copper oxide (Cu<sub>2</sub>O);C.I. 77402;Cuprous oxide;Perenox;Red copper oxide;Copper Sandoz;Cupramar;Yellow cuprocide;Fungimar;Copper(I) oxide;Nordox;Dicopper monoxide;Dicopper oxide;Copper suboxide;Copper(1+) oxide;Copper protoxide;Copper(I) oxide (Cu<sub>2</sub>O);Copper oxide;Dicopper monooxide;Copperoxy;Cobre Sandoz;R 30 (oxide);R 30;NX 3;Chem Copp 50;Lolo Tint 97;Purple Copp;Red Copp 97N Premium;GG;GG (pigment);NC 303;NC 102;NSC 83538;Ag Copp 75;NC 803;NC 301;NC 301 (oxide);LoLo Tint LM;Caocobre Sandoz;Copper red Cu<sub>2</sub>O;FCO-M 6;Cupron A;FRC 05B;Copper oxide (Cu<sub>2</sub>O);FRC-AF;FRC-N 10;Kymera 421001-099",
    "duplicated_cas_no": "633343-78-9",
    "SMILES": "O([Cu])[Cu]",
    "meta_data": {
        "InChI": "InChI=1S/2Cu.O",
        "InChIKey": null,
        "Canonical SMILES": "[Cu]O[Cu]",
        "Molecular Formula": "Cu<sub>2</sub>O",
        "Molecular Mass": "",
        "Melting Point": "1235 °C",
        "Density": "6.0 g/cm³"
    }
}