{
    "cas_no": "103112-35-2",
    "key_name": "Fenchlorazole-ethyl",
    "cn_name": "解草唑;1-(2,4-二氯苯基)-5-三氯甲基-1,2,4-三唑-3-羧酸;",
    "alternate_name": "1<em>H</em>-1,2,4-Triazole-3-carboxylic acid, 1-(2,4-dichlorophenyl)-5-(trichloromethyl)-, ethyl ester;HOE 070542;Fenchlorazole-ethyl;Fenchlorazole-Et;HOE 70542",
    "duplicated_cas_no": "",
    "SMILES": "C(Cl)(Cl)(Cl)C=1N(N=C(C(OCC)=O)N1)C2=C(Cl)C=C(Cl)C=C2",
    "meta_data": {
        "InChI": "InChI=1S/C12H8Cl5N3O2/c1-2-22-10(21)9-18-11(12(15,16)17)20(19-9)8-4-3-6(13)5-7(8)14/h3-5H,2H2,1H3",
        "InChIKey": null,
        "Canonical SMILES": "O=C(OCC)C=1N=C(N(N1)C2=CC=C(Cl)C=C2Cl)C(Cl)(Cl)Cl",
        "Molecular Formula": "C<sub>12</sub>H<sub>8</sub>Cl<sub>5</sub>N<sub>3</sub>O<sub>2</sub>",
        "Molecular Mass": "403.48",
        "Melting Point": "110 °C"
    }
}