{
    "cas_no": "6482-24-2",
    "key_name": "Bromoethyl methyl ether",
    "cn_name": "2-溴乙基甲基醚;",
    "alternate_name": "Ethane, 1-bromo-2-methoxy-;Ether, 2-bromoethyl methyl;1-Bromo-2-methoxyethane;2-Methoxyethyl bromide;2-Bromoethyl methyl ether;Methoxyethyl bromide;β-Methoxyethyl bromide;2-Bromo-1-methoxyethane;NSC 81806;(2-Methoxy)bromoethane;2-Methoxy-1-bromoethane;Bromoethyl methyl ether",
    "duplicated_cas_no": "",
    "SMILES": "C(CBr)OC",
    "meta_data": {
        "InChI": "InChI=1S/C3H7BrO/c1-5-3-2-4/h2-3H2,1H3",
        "InChIKey": null,
        "Canonical SMILES": "BrCCOC",
        "Molecular Formula": "C<sub>3</sub>H<sub>7</sub>BrO",
        "Molecular Mass": "138.99",
        "Boiling Point": "54-55 °C @ Press: 30 Torr",
        "Density": "1.4369 g/cm³ @ Temp: 25 °C"
    }
}