{
    "cas_no": "43036-06-2",
    "key_name": "1<em>H</em>-Pyrrole-1-propanenitrile",
    "cn_name": "N-(2-氰基乙基)吡咯;N-2-氰乙基吡咯; 1-吡咯丙腈;",
    "alternate_name": "1<em>H</em>-Pyrrole-1-propanenitrile;Pyrrole-1-propionitrile;1-(2-Cyanoethyl)pyrrole;<em>N</em>-(2-Cyanoethyl)pyrrole;3-(1-Pyrrolyl)propionitrile;NSC 78437;3-(1<em>H</em>-Pyrrol-1-yl)propanenitrile;3-Pyrrol-1-ylpropanenitrile",
    "duplicated_cas_no": "115112-00-0",
    "SMILES": "C(CC#N)N1C=CC=C1",
    "meta_data": {
        "InChI": "InChI=1S/C7H8N2/c8-4-3-7-9-5-1-2-6-9/h1-2,5-6H,3,7H2",
        "InChIKey": null,
        "Canonical SMILES": "N#CCCN1C=CC=C1",
        "Molecular Formula": "C<sub>7</sub>H<sub>8</sub>N<sub>2</sub>",
        "Molecular Mass": "120.15",
        "Boiling Point": "150-155 °C @ Press: 18 Torr"
    }
}