{
    "cas_no": "94-37-1",
    "key_name": "Dipentamethylenethiuram disulfide",
    "cn_name": null,
    "alternate_name": "Piperidine, 1,1′-(dithiodicarbonothioyl)bis-;Disulfide, bis(piperidinothiocarbonyl);1,1′-(Dithiodicarbonothioyl)bis[piperidine];Bis(pentamethylene)thiuram disulfide;Bis(piperidinothiocarbonyl) disulfide;1-Piperidinethiocarbonyl disulfide;Bis(1-piperidylthiocarbonyl) disulfide;Dipentamethylenethiuram disulfide;Disulfide, bis(1-piperidinylthioxomethyl);Dicyclopentamethylenethiuram disulfide;NSC 527035;Robac PTD;<em>N</em>,<em>N</em>′-Pentamethylenethiuram disulfide;NSC 527055;Bis(piperidinylthiocarbonyl) disulfide;ANFD 24",
    "duplicated_cas_no": "",
    "SMILES": "C(SSC(=S)N1CCCCC1)(=S)N2CCCCC2",
    "meta_data": {
        "InChI": "InChI=1S/C12H20N2S4/c15-11(13-7-3-1-4-8-13)17-18-12(16)14-9-5-2-6-10-14/h1-10H2",
        "InChIKey": null,
        "Canonical SMILES": "S=C(SSC(=S)N1CCCCC1)N2CCCCC2",
        "Molecular Formula": "C<sub>12</sub>H<sub>20</sub>N<sub>2</sub>S<sub>4</sub>",
        "Molecular Mass": "320.56",
        "Melting Point": "120 °C",
        "Density": "1.35 g/cm³"
    }
}