{
    "cas_no": "36881-42-2",
    "key_name": "1-(Bromomethyl)-4-phenoxybenzene",
    "cn_name": null,
    "alternate_name": "Benzene, 1-(bromomethyl)-4-phenoxy-;Ether, α-bromo-<em>p</em>-tolyl phenyl;1-(Bromomethyl)-4-phenoxybenzene;<em>p</em>-Phenoxybenzyl bromide;4-(Bromomethyl)diphenyl ether;1-Bromomethyl-4-phenoxybenzene;4-Phenoxybenzyl bromide",
    "duplicated_cas_no": "",
    "SMILES": "O(C1=CC=C(CBr)C=C1)C2=CC=CC=C2",
    "meta_data": {
        "InChI": "InChI=1S/C13H11BrO/c14-10-11-6-8-13(9-7-11)15-12-4-2-1-3-5-12/h1-9H,10H2",
        "InChIKey": null,
        "Canonical SMILES": "BrCC1=CC=C(OC=2C=CC=CC2)C=C1",
        "Molecular Formula": "C<sub>13</sub>H<sub>11</sub>BrO",
        "Molecular Mass": "263.13",
        "Boiling Point": "157-160 °C @ Press: 6 Torr"
    }
}