{
    "cas_no": "82-82-6",
    "key_name": "4-Pyridoxic acid",
    "cn_name": "4-吡哆酸;2-甲基-3-羟基-4-羧基-3-羟甲基吡啶;3-羟基-5-(羟甲基)-2-甲基-4-吡啶羧酸;",
    "alternate_name": "4-Pyridinecarboxylic acid, 3-hydroxy-5-(hydroxymethyl)-2-methyl-;Isonicotinic acid, 3-hydroxy-5-(hydroxymethyl)-2-methyl-;3-Hydroxy-5-(hydroxymethyl)-2-methyl-4-pyridinecarboxylic acid;3-Hydroxy-5-(hydroxymethyl)-2-methylisonicotinic acid;2-Methyl-3-hydroxy-4-carboxy-5-hydroxymethylpyridine;4-Pyridoxic acid;4-Pyridoxinecarboxylic acid;4-Pyridoxylic acid;4-Pyridoxinic acid;Pyridoxic acid;NSC 41814;MeSH ID: D011735",
    "duplicated_cas_no": "",
    "SMILES": "C(O)(=O)C=1C(CO)=CN=C(C)C1O",
    "meta_data": {
        "InChI": "InChI=1S/C8H9NO4/c1-4-7(11)6(8(12)13)5(3-10)2-9-4/h2,10-11H,3H2,1H3,(H,12,13)",
        "InChIKey": null,
        "Canonical SMILES": "O=C(O)C1=C(O)C(=NC=C1CO)C",
        "Molecular Formula": "C<sub>8</sub>H<sub>9</sub>NO<sub>4</sub>",
        "Molecular Mass": "183.16",
        "Melting Point": "247.5 °C"
    }
}