{
    "cas_no": "71561-11-0",
    "key_name": "Pyrazoxyfen",
    "cn_name": "苄草唑;苄草唑;2-(4-(2,4-二氯苯甲酰基)-1,3-二甲基吡唑-5-基氧)乙酰苯;匹唑芬;",
    "alternate_name": "Ethanone, 2-[[4-(2,4-dichlorobenzoyl)-1,3-dimethyl-1<em>H</em>-pyrazol-5-yl]oxy]-1-phenyl-;2-[[4-(2,4-Dichlorobenzoyl)-1,3-dimethyl-1<em>H</em>-pyrazol-5-yl]oxy]-1-phenylethanone;1,3-Dimethyl-4-(2,4-dichlorobenzoyl)-5-phenacyloxypyrazole;Pyrazoxyfen;SL 49;Paicer;SL 49 (herbicide)",
    "duplicated_cas_no": "118258-43-8",
    "SMILES": "C(=O)(C1=C(OCC(=O)C2=CC=CC=C2)N(C)N=C1C)C3=C(Cl)C=C(Cl)C=C3",
    "meta_data": {
        "InChI": "InChI=1S/C20H16Cl2N2O3/c1-12-18(19(26)15-9-8-14(21)10-16(15)22)20(24(2)23-12)27-11-17(25)13-6-4-3-5-7-13/h3-10H,11H2,1-2H3",
        "InChIKey": null,
        "Canonical SMILES": "O=C(C1=CC=C(Cl)C=C1Cl)C=2C(=NN(C2OCC(=O)C=3C=CC=CC3)C)C",
        "Molecular Formula": "C<sub>20</sub>H<sub>16</sub>Cl<sub>2</sub>N<sub>2</sub>O<sub>3</sub>",
        "Molecular Mass": "403.26",
        "Melting Point": "111.5 °C"
    }
}