{
    "cas_no": "34743-88-9",
    "key_name": "2-(4-Bromophenoxy)ethanol",
    "cn_name": "2-(4-溴苯氧基)乙醇;",
    "alternate_name": "Ethanol, 2-(4-bromophenoxy)-;Ethanol, 2-(<em>p</em>-bromophenoxy)-;2-(4-Bromophenoxy)ethanol;2-(<em>p</em>-Bromophenoxy)ethanol;β-(<em>p</em>-Bromophenoxy)ethanol;NSC 190715;1-Bromo-4-(2-hydroxyethoxy)benzene;2-(4-Bromophenoxy)ethan-1-ol",
    "duplicated_cas_no": "",
    "SMILES": "O(CCO)C1=CC=C(Br)C=C1",
    "meta_data": {
        "InChI": "InChI=1S/C8H9BrO2/c9-7-1-3-8(4-2-7)11-6-5-10/h1-4,10H,5-6H2",
        "InChIKey": null,
        "Canonical SMILES": "BrC1=CC=C(OCCO)C=C1",
        "Molecular Formula": "C<sub>8</sub>H<sub>9</sub>BrO<sub>2</sub>",
        "Molecular Mass": "217.06",
        "Boiling Point": "132-134 °C @ Press: 4.6 Torr",
        "Melting Point": "55 °C"
    }
}