{
    "cas_no": "3544-24-9",
    "key_name": "3-Aminobenzamide",
    "cn_name": "3-氨基苯甲酰胺;间氨基苯甲酰胺;",
    "alternate_name": "Benzamide, 3-amino-;Benzamide, <em>m</em>-amino-;3-Aminobenzamide;<em>m</em>-Aminobenzamide;SR 4294;[3-(Aminocarbonyl)phenyl]amine;NSC 36962;3-Carboxamidoaniline;WD 97-000835;3-(Aminocarbonyl)aniline;3-Carbamoylaniline;INO 1001",
    "duplicated_cas_no": "624747-02-0",
    "SMILES": "C(N)(=O)C1=CC(N)=CC=C1",
    "meta_data": {
        "InChI": "InChI=1S/C7H8N2O/c8-6-3-1-2-5(4-6)7(9)10/h1-4H,8H2,(H2,9,10)",
        "InChIKey": null,
        "Canonical SMILES": "O=C(N)C=1C=CC=C(N)C1",
        "Molecular Formula": "C<sub>7</sub>H<sub>8</sub>N<sub>2</sub>O",
        "Molecular Mass": "136.15",
        "Melting Point": "115-116 °C"
    }
}