{
    "cas_no": "52927-23-8",
    "key_name": "5-Bromo-1-naphthalenol",
    "cn_name": null,
    "alternate_name": "1-Naphthalenol, 5-bromo-;5-Bromo-1-naphthalenol;5-Bromo-1-naphthol;1-Bromo-5-hydroxynaphthalene",
    "duplicated_cas_no": "",
    "SMILES": "BrC=1C2=C(C(O)=CC=C2)C=CC1",
    "meta_data": {
        "InChI": "InChI=1S/C10H7BrO/c11-9-5-1-4-8-7(9)3-2-6-10(8)12/h1-6,12H",
        "InChIKey": null,
        "Canonical SMILES": "BrC1=CC=CC=2C(O)=CC=CC12",
        "Molecular Formula": "C<sub>10</sub>H<sub>7</sub>BrO",
        "Molecular Mass": "223.07",
        "Melting Point": "137 °C"
    }
}