{
    "cas_no": "76784-40-2",
    "key_name": "1-[2,5-Bis(2,2,2-trifluoroethoxy)phenyl]ethanone",
    "cn_name": null,
    "alternate_name": "Ethanone, 1-[2,5-bis(2,2,2-trifluoroethoxy)phenyl]-;1-[2,5-Bis(2,2,2-trifluoroethoxy)phenyl]ethanone;1-[2,5-Bis(2,2,2-trifluoroethoxy)phenyl]ethan-1-one",
    "duplicated_cas_no": "",
    "SMILES": "O(CC(F)(F)F)C1=C(C(C)=O)C=C(OCC(F)(F)F)C=C1",
    "meta_data": {
        "InChI": "InChI=1S/C12H10F6O3/c1-7(19)9-4-8(20-5-11(13,14)15)2-3-10(9)21-6-12(16,17)18/h2-4H,5-6H2,1H3",
        "InChIKey": null,
        "Canonical SMILES": "O=C(C1=CC(OCC(F)(F)F)=CC=C1OCC(F)(F)F)C",
        "Molecular Formula": "C<sub>12</sub>H<sub>10</sub>F<sub>6</sub>O<sub>3</sub>",
        "Molecular Mass": "316.20",
        "Melting Point": "84-86 °C"
    }
}