{
    "cas_no": "131-16-8",
    "key_name": "Dipropyl phthalate",
    "cn_name": "邻苯二甲酸二丙酯;1,2-苯二甲酸二丙酯;邻酞酸二丙酯;",
    "alternate_name": "1,2-Benzenedicarboxylic acid, 1,2-dipropyl ester;Phthalic acid, dipropyl ester;1,2-Benzenedicarboxylic acid, dipropyl ester;Dipropyl phthalate;Di-<em>n</em>-Propyl phthalate;Dipropyl benzene-1,2-dicarboxylate;NSC 15314",
    "duplicated_cas_no": "",
    "SMILES": "C(OCCC)(=O)C1=C(C(OCCC)=O)C=CC=C1",
    "meta_data": {
        "InChI": "InChI=1S/C14H18O4/c1-3-9-17-13(15)11-7-5-6-8-12(11)14(16)18-10-4-2/h5-8H,3-4,9-10H2,1-2H3",
        "InChIKey": null,
        "Canonical SMILES": "O=C(OCCC)C=1C=CC=CC1C(=O)OCCC",
        "Molecular Formula": "C<sub>14</sub>H<sub>18</sub>O<sub>4</sub>",
        "Molecular Mass": "250.29",
        "Boiling Point": "317.5 °C",
        "Density": "1.0820 g/cm³ @ Temp: 20 °C"
    }
}