{
    "cas_no": "613-31-0",
    "key_name": "9,10-Dihydroanthracene",
    "cn_name": "9,10-二羟基蒽;",
    "alternate_name": "Anthracene, 9,10-dihydro-;9,10-Dihydroanthracene;Dihydroanthracene;NSC 30805",
    "duplicated_cas_no": "26856-34-8",
    "SMILES": "C1=2C(CC=3C(C1)=CC=CC3)=CC=CC2",
    "meta_data": {
        "InChI": "InChI=1S/C14H12/c1-2-6-12-10-14-8-4-3-7-13(14)9-11(12)5-1/h1-8H,9-10H2",
        "InChIKey": null,
        "Canonical SMILES": "C=1C=CC2=C(C1)CC=3C=CC=CC3C2",
        "Molecular Formula": "C<sub>14</sub>H<sub>12</sub>",
        "Molecular Mass": "180.25",
        "Boiling Point": "305 °C",
        "Melting Point": "111 °C",
        "Density": "1.212 g/cm³"
    }
}