{
    "cas_no": "1690-72-8",
    "key_name": "1-Methylnipecotinic acid methyl ester",
    "cn_name": null,
    "alternate_name": "3-Piperidinecarboxylic acid, 1-methyl-, methyl ester;Nipecotic acid, 1-methyl-, methyl ester;Dihydroarecaidine, methyl ester;Dihydroarecoline;1-Methylnipecotinic acid methyl ester;Methyl <em>N</em>-methylnipecotate;Methyl 1-methylpiperidine-3-carboxylate",
    "duplicated_cas_no": "122629-25-8",
    "SMILES": "C(OC)(=O)C1CN(C)CCC1",
    "meta_data": {
        "InChI": "InChI=1S/C8H15NO2/c1-9-5-3-4-7(6-9)8(10)11-2/h7H,3-6H2,1-2H3",
        "InChIKey": null,
        "Canonical SMILES": "O=C(OC)C1CN(C)CCC1",
        "Molecular Formula": "C<sub>8</sub>H<sub>15</sub>NO<sub>2</sub>",
        "Molecular Mass": "157.21",
        "Boiling Point": "93-94 °C @ Press: 16 Torr"
    }
}