{
    "cas_no": "495-85-2",
    "key_name": "(+)-Methysticin",
    "cn_name": "麻醉椒苦素;麻醉椒苦素;",
    "alternate_name": "2<em>H</em>-Pyran-2-one, 6-[(1<em>E</em>)-2-(1,3-benzodioxol-5-yl)ethenyl]-5,6-dihydro-4-methoxy-, (6<em>R</em>)-;2<em>H</em>-Pyran-2-one, 5,6-dihydro-4-methoxy-6-[3,4-(methylenedioxy)styryl]-, (<em>R</em>)-;2<em>H</em>-Pyran-2-one, 6-[2-(1,3-benzodioxol-5-yl)ethenyl]-5,6-dihydro-4-methoxy-, [<em>R</em>-(<em>E</em>)]-;(6<em>R</em>)-6-[(1<em>E</em>)-2-(1,3-Benzodioxol-5-yl)ethenyl]-5,6-dihydro-4-methoxy-2<em>H</em>-pyran-2-one;Kavahin;Kavatin;Methysticin;(+)-Methysticin;<em>d</em>-Methysticin;NSC 112158;Methylsticin",
    "duplicated_cas_no": "24576-88-3",
    "SMILES": "C(=C/[C@H]1CC(OC)=CC(=O)O1)\\C=2C=C3C(=CC2)OCO3",
    "meta_data": {
        "InChI": "InChI=1S/C15H14O5/c1-17-12-7-11(20-15(16)8-12)4-2-10-3-5-13-14(6-10)19-9-18-13/h2-6,8,11H,7,9H2,1H3/b4-2+/t11-/m0/s1",
        "InChIKey": null,
        "Canonical SMILES": "O=C1OC(C=CC2=CC=C3OCOC3=C2)CC(OC)=C1",
        "Molecular Formula": "C<sub>15</sub>H<sub>14</sub>O<sub>5</sub>",
        "Molecular Mass": "274.27",
        "Melting Point": "137 °C"
    }
}