{
    "cas_no": "3697-24-3",
    "key_name": "5-Methylchrysene",
    "cn_name": null,
    "alternate_name": "Chrysene, 5-methyl-;5-Methylchrysene;NSC 407620",
    "duplicated_cas_no": "",
    "SMILES": "CC=1C2=C(C=3C(C1)=CC=CC3)C=CC=4C2=CC=CC4",
    "meta_data": {
        "InChI": "InChI=1S/C19H14/c1-13-12-15-7-3-4-8-16(15)18-11-10-14-6-2-5-9-17(14)19(13)18/h2-12H,1H3",
        "InChIKey": null,
        "Canonical SMILES": "C=1C=CC2=C(C1)C=CC3=C4C=CC=CC4=CC(=C23)C",
        "Molecular Formula": "C<sub>19</sub>H<sub>14</sub>",
        "Molecular Mass": "242.31",
        "Melting Point": "117.5 °C"
    }
}