{
    "cas_no": "1438-82-0",
    "key_name": "Pentamethyldisiloxane",
    "cn_name": "五甲基二硅醚;五甲基二硅氧烷;",
    "alternate_name": "Disiloxane, 1,1,1,3,3-pentamethyl-;Disiloxane, pentamethyl-;1,1,1,3,3-Pentamethyldisiloxane;Pentamethyldisiloxane;Trimethylsiloxydimethylsilane;1,1,3,3,3-Pentamethyldisiloxane;Dimethyl(trimethylsilyloxy)silane;Dimethyl(trimethylsiloxy)silane;[(Dimethylsilyl)oxy]trimethylsilane",
    "duplicated_cas_no": "",
    "SMILES": "O([Si](C)(C)C)[SiH](C)C",
    "meta_data": {
        "InChI": "InChI=1S/C5H16OSi2/c1-7(2)6-8(3,4)5/h7H,1-5H3",
        "InChIKey": null,
        "Canonical SMILES": "O([SiH](C)C)[Si](C)(C)C",
        "Molecular Formula": "C<sub>5</sub>H<sub>16</sub>OSi<sub>2</sub>",
        "Molecular Mass": "148.35",
        "Boiling Point": "86-87 °C",
        "Density": "0.758 g/cm³"
    }
}