{
    "cas_no": "824-69-1",
    "key_name": "2,5-Dichlorohydroquinone",
    "cn_name": "2,5-二氯对苯二酚;2,5-二氯对苯二酚;",
    "alternate_name": "1,4-Benzenediol, 2,5-dichloro-;Hydroquinone, 2,5-dichloro-;2,5-Dichloro-1,4-benzenediol;2,5-Dichlorohydroquinone;2,5-Dichloro-<em>p</em>-hydroquinone;2,5-Dichloro-<em>p</em>-benzohydroquinone;2,5-Dichloro-1,4-hydroquinone;2,5-Dichloro-1,4-dihydroxybenzene;2,5-Dichloro-4-hydroxyphenol;NSC 48667",
    "duplicated_cas_no": "",
    "SMILES": "ClC1=C(O)C=C(Cl)C(O)=C1",
    "meta_data": {
        "InChI": "InChI=1S/C6H4Cl2O2/c7-3-1-5(9)4(8)2-6(3)10/h1-2,9-10H",
        "InChIKey": null,
        "Canonical SMILES": "ClC=1C=C(O)C(Cl)=CC1O",
        "Molecular Formula": "C<sub>6</sub>H<sub>4</sub>Cl<sub>2</sub>O<sub>2</sub>",
        "Molecular Mass": "179.00",
        "Melting Point": "166-167 °C"
    }
}