{
    "cas_no": "607-35-2",
    "key_name": "8-Nitroquinoline",
    "cn_name": "8-硝基喹啉;",
    "alternate_name": "Quinoline, 8-nitro-;8-Nitroquinoline;NSC 346",
    "duplicated_cas_no": "",
    "SMILES": "N(=O)(=O)C=1C2=C(C=CC1)C=CC=N2",
    "meta_data": {
        "InChI": "InChI=1S/C9H6N2O2/c12-11(13)8-5-1-3-7-4-2-6-10-9(7)8/h1-6H",
        "InChIKey": null,
        "Canonical SMILES": "O=N(=O)C1=CC=CC2=CC=CN=C21",
        "Molecular Formula": "C<sub>9</sub>H<sub>6</sub>N<sub>2</sub>O<sub>2</sub>",
        "Molecular Mass": "174.16",
        "Melting Point": "91.5 °C"
    }
}