{
    "cas_no": "493-09-4",
    "key_name": "1,4-Benzodioxan",
    "cn_name": "1,4-苯并二恶烷;1,4-苯并二噁烷;",
    "alternate_name": "1,4-Benzodioxin, 2,3-dihydro-;1,4-Benzodioxan;2,3-Dihydro-1,4-benzodioxin;1,2-(Ethylenedioxy)benzene;Ethylene <em>o</em>-phenylene dioxide;Pyrocatechol ethylene ether;Benzene, 1,2-[1,2-ethanediylbis(oxy)]-;NSC 406705;2,3-Dihydrobenzo[<em>b</em>][1,4]dioxin",
    "duplicated_cas_no": "",
    "SMILES": "C1=2C(OCCO1)=CC=CC2",
    "meta_data": {
        "InChI": "InChI=1S/C8H8O2/c1-2-4-8-7(3-1)9-5-6-10-8/h1-4H,5-6H2",
        "InChIKey": null,
        "Canonical SMILES": "O1C=2C=CC=CC2OCC1",
        "Molecular Formula": "C<sub>8</sub>H<sub>8</sub>O<sub>2</sub>",
        "Molecular Mass": "136.15",
        "Boiling Point": "214 °C",
        "Density": "1.180 g/cm³ @ Temp: 20 °C"
    }
}