{
    "cas_no": "42540-40-9",
    "key_name": "Cefamandole nafate",
    "cn_name": null,
    "alternate_name": "5-Thia-1-azabicyclo[4.2.0]oct-2-ene-2-carboxylic acid, 7-[[(2<em>R</em>)-2-(formyloxy)-2-phenylacetyl]amino]-3-[[(1-methyl-1<em>H</em>-tetrazol-5-yl)thio]methyl]-8-oxo-, sodium salt (1:1), (6<em>R</em>,7<em>R</em>)-;5-Thia-1-azabicyclo[4.2.0]oct-2-ene-2-carboxylic acid, 7-[[(formyloxy)phenylacetyl]amino]-3-[[(1-methyl-1<em>H</em>-tetrazol-5-yl)thio]methyl]-8-oxo-, monosodium salt, [6<em>R</em>-[6α,7β(<em>R</em>*)]]-;5-Thia-1-azabicyclo[4.2.0]oct-2-ene-2-carboxylic acid, 7-[[(2<em>R</em>)-(formyloxy)phenylacetyl]amino]-3-[[(1-methyl-1<em>H</em>-tetrazol-5-yl)thio]methyl]-8-oxo-, monosodium salt, (6<em>R</em>,7<em>R</em>)-;Cefamandole nafate;Sodium 7-(<span class=\"text-smallcaps\">D</span>-2-formyloxy-2-phenylacetamido)-3-(1-methyl-1<em>H</em>-tetrazol-5-ylthiomethyl)-3-cephem-4-carboxylate;<em>O</em>-Formylcefamandole sodium;Cefamandole formate sodium;Cephamandole nafate;Mandol;Kefadol;Sodium <em>O</em>-formylcefamandole;Neocefal;Mandokef;Mandolsan;Cemandil;Pavecef;Kefandol;Bergacef;Cefiran;Cefam;Fado;Lampomandol;Cedol;Cemado;NSC 299588",
    "duplicated_cas_no": "",
    "SMILES": "C(O)(=O)C=1N2[C@@]([C@H](NC([C@H](OC=O)C3=CC=CC=C3)=O)C2=O)(SCC1CSC=4N(C)N=NN4)[H].[Na]",
    "meta_data": {
        "InChI": "InChI=1S/C19H18N6O6S2.Na/c1-24-19(21-22-23-24)33-8-11-7-32-17-12(16(28)25(17)13(11)18(29)30)20-15(27)14(31-9-26)10-5-3-2-4-6-10;/h2-6,9,12,14,17H,7-8H2,1H3,(H,20,27)(H,29,30);/t12-,14-,17-;/m1./s1",
        "InChIKey": null,
        "Canonical SMILES": "[Na].O=COC(C(=O)NC1C(=O)N2C(C(=O)O)=C(CSC3=NN=NN3C)CSC21)C=4C=CC=CC4",
        "Molecular Formula": "C<sub>19</sub>H<sub>18</sub>N<sub>6</sub>O<sub>6</sub>S<sub>2</sub>.Na",
        "Molecular Mass": "",
        "Melting Point": "190 °C (decomp)"
    }
}