{
    "cas_no": "1596-67-4",
    "key_name": "<span class=\"text-smallcaps\">L</span>-Thyronine",
    "cn_name": "L-甲状腺氨酸;L-甲状腺氨酸;L-无碘甲状腺素;邻(4-羟基苯基)-4-L-氨酸;L-原氨酸;",
    "alternate_name": "<span class=\"text-smallcaps\">L</span>-Tyrosine, <em>O</em>-(4-hydroxyphenyl)-;Thyronine, <span class=\"text-smallcaps\">L</span>-;<em>O</em>-(4-Hydroxyphenyl)-<span class=\"text-smallcaps\">L</span>-tyrosine;<span class=\"text-smallcaps\">L</span>-Thyronine;Thyronine;Desiodothyroxine;β-(<em>p</em>-Hydroxyphenoxy)phenylalanine;<em>O</em>-(4-Hydroxyphenyl)tyrosine",
    "duplicated_cas_no": "101-66-6",
    "SMILES": "O(C1=CC=C(C[C@@H](C(O)=O)N)C=C1)C2=CC=C(O)C=C2",
    "meta_data": {
        "InChI": "InChI=1S/C15H15NO4/c16-14(15(18)19)9-10-1-5-12(6-2-10)20-13-7-3-11(17)4-8-13/h1-8,14,17H,9,16H2,(H,18,19)/t14-/m0/s1",
        "InChIKey": null,
        "Canonical SMILES": "O=C(O)C(N)CC1=CC=C(OC2=CC=C(O)C=C2)C=C1",
        "Molecular Formula": "C<sub>15</sub>H<sub>15</sub>NO<sub>4</sub>",
        "Molecular Mass": "273.28",
        "Melting Point": "255 °C (decomp)"
    }
}