{
    "cas_no": "60965-26-6",
    "key_name": "2-Bromo-1-(2,4-dimethoxyphenyl)ethanone",
    "cn_name": "2-溴-2\",4\"-二甲氧基苯乙酮;2-溴-2,4-二甲氧基苯乙酮;",
    "alternate_name": "Ethanone, 2-bromo-1-(2,4-dimethoxyphenyl)-;2-Bromo-1-(2,4-dimethoxyphenyl)ethanone;2-Bromo-2′,4′-dimethoxyacetophenone;2,4-Dimethoxyphenacyl bromide;NSC 158566;2-Bromo-1-(2,4-dimethoxyphenyl)ethan-1-one",
    "duplicated_cas_no": "",
    "SMILES": "C(CBr)(=O)C1=C(OC)C=C(OC)C=C1",
    "meta_data": {
        "InChI": "InChI=1S/C10H11BrO3/c1-13-7-3-4-8(9(12)6-11)10(5-7)14-2/h3-5H,6H2,1-2H3",
        "InChIKey": null,
        "Canonical SMILES": "O=C(C1=CC=C(OC)C=C1OC)CBr",
        "Molecular Formula": "C<sub>10</sub>H<sub>11</sub>BrO<sub>3</sub>",
        "Molecular Mass": "259.10",
        "Melting Point": "101-102 °C"
    }
}