{
    "cas_no": "29884-49-9",
    "key_name": "Astringin",
    "cn_name": null,
    "alternate_name": "β-<span class=\"text-smallcaps\">D</span>-Glucopyranoside, 3-[(1<em>E</em>)-2-(3,4-dihydroxyphenyl)ethenyl]-5-hydroxyphenyl;Astringin;β-<span class=\"text-smallcaps\">D</span>-Glucopyranoside, 3-[2-(3,4-dihydroxyphenyl)ethenyl]-5-hydroxyphenyl, (<em>E</em>)-;3-[(1<em>E</em>)-2-(3,4-Dihydroxyphenyl)ethenyl]-5-hydroxyphenyl β-<span class=\"text-smallcaps\">D</span>-glucopyranoside;3,4,3′,5′-Tetrahydroxystilbene 3′-glucoside;(<em>E</em>)-Astringin;<em>trans</em>-Astringin",
    "duplicated_cas_no": "28759-34-4;29317-46-2;32568-56-2;33579-64-5;2003209-24-1",
    "SMILES": "O([C@@H]1O[C@H](CO)[C@@H](O)[C@H](O)[C@H]1O)C2=CC(/C=C/C3=CC(O)=C(O)C=C3)=CC(O)=C2",
    "meta_data": {
        "InChI": "InChI=1S/C20H22O9/c21-9-16-17(25)18(26)19(27)20(29-16)28-13-6-11(5-12(22)8-13)2-1-10-3-4-14(23)15(24)7-10/h1-8,16-27H,9H2/b2-1+/t16-,17-,18+,19-,20-/m1/s1",
        "InChIKey": null,
        "Canonical SMILES": "OC=1C=C(OC2OC(CO)C(O)C(O)C2O)C=C(C=CC3=CC=C(O)C(O)=C3)C1",
        "Molecular Formula": "C<sub>20</sub>H<sub>22</sub>O<sub>9</sub>",
        "Molecular Mass": "406.38",
        "Melting Point": "218-220 °C"
    }
}