{
    "cas_no": "16555-77-4",
    "key_name": "2-Hydroxyhippuric acid",
    "cn_name": "α-羟基马尿酸;",
    "alternate_name": "Acetic acid, 2-(benzoylamino)-2-hydroxy-;Hippuric acid, α-hydroxy-;Acetic acid, (benzoylamino)hydroxy-;2-(Benzoylamino)-2-hydroxyacetic acid;Benzamidohydroxyacetic acid;α-Hydroxyhippuric acid;2-Hydroxyhippuric acid;2-Benzamido-2-hydroxyaceticacid;2-Hydroxy-2-(phenylformamido)acetic acid;2-Benzamido-2-hydroxyacetic acid",
    "duplicated_cas_no": "109125-34-0",
    "SMILES": "C(NC(C(O)=O)O)(=O)C1=CC=CC=C1",
    "meta_data": {
        "InChI": "InChI=1S/C9H9NO4/c11-7(10-8(12)9(13)14)6-4-2-1-3-5-6/h1-5,8,12H,(H,10,11)(H,13,14)",
        "InChIKey": null,
        "Canonical SMILES": "O=C(O)C(O)NC(=O)C=1C=CC=CC1",
        "Molecular Formula": "C<sub>9</sub>H<sub>9</sub>NO<sub>4</sub>",
        "Molecular Mass": "195.17",
        "Melting Point": "208-213 °C"
    }
}