{
    "cas_no": "23410-40-4",
    "key_name": "<em>N</em><sup>1</sup>-[3-(Dimethoxymethylsilyl)-2-methylpropyl]-1,2-ethanediamine",
    "cn_name": null,
    "alternate_name": "1,2-Ethanediamine, <em>N</em><sup>1</sup>-[3-(dimethoxymethylsilyl)-2-methylpropyl]-;Ethylenediamine, <em>N</em>-[3-(dimethoxymethylsilyl)-2-methylpropyl]-;1,2-Ethanediamine, <em>N</em>-[3-(dimethoxymethylsilyl)-2-methylpropyl]-;<em>N</em><sup>1</sup>-[3-(Dimethoxymethylsilyl)-2-methylpropyl]-1,2-ethanediamine;<em>N</em>-[3-(Dimethoxymethylsilyl)-2-methylpropyl]ethylenediamine;<em>N</em><sup>1</sup>-[3-[Dimethoxy(methyl)silyl]-2-methylpropyl]ethane-1,2-diamine;DB 604;[3-(2-Aminoethyl)aminoisobutyl]dimethoxysilane",
    "duplicated_cas_no": "",
    "SMILES": "[Si](CC(CNCCN)C)(OC)(OC)C",
    "meta_data": {
        "InChI": "InChI=1S/C9H24N2O2Si/c1-9(7-11-6-5-10)8-14(4,12-2)13-3/h9,11H,5-8,10H2,1-4H3",
        "InChIKey": null,
        "Canonical SMILES": "O(C)[Si](OC)(C)CC(C)CNCCN",
        "Molecular Formula": "C<sub>9</sub>H<sub>24</sub>N<sub>2</sub>O<sub>2</sub>Si",
        "Molecular Mass": "220.38",
        "Boiling Point": "131 °C @ Press: 15 Torr",
        "Density": "0.960 g/cm³"
    }
}