{
    "cas_no": "80-92-2",
    "key_name": "Pregnanediol",
    "cn_name": null,
    "alternate_name": "Pregnane-3,20-diol, (3α,5β,20<em>S</em>)-;5β-Pregnane-3α,20α-diol;Diol;(3α,5β,20<em>S</em>)-Pregnane-3,20-diol;3α,20α-Dihydroxy-5β-pregnane;Pregnanediol;NSC 1612;NSC 47462;MeSH ID: D011276",
    "duplicated_cas_no": "",
    "SMILES": "C[C@@]12[C@@]3([C@]([C@]4([C@](C)(CC3)[C@@]([C@H](C)O)(CC4)[H])[H])(CC[C@@]1(C[C@H](O)CC2)[H])[H])[H]",
    "meta_data": {
        "InChI": "InChI=1S/C21H36O2/c1-13(22)17-6-7-18-16-5-4-14-12-15(23)8-10-20(14,2)19(16)9-11-21(17,18)3/h13-19,22-23H,4-12H2,1-3H3/t13-,14+,15+,16-,17+,18-,19-,20-,21+/m0/s1",
        "InChIKey": null,
        "Canonical SMILES": "OC1CCC2(C)C(CCC3C4CCC(C(O)C)C4(C)CCC32)C1",
        "Molecular Formula": "C<sub>21</sub>H<sub>36</sub>O<sub>2</sub>",
        "Molecular Mass": "320.51",
        "Melting Point": "243.5 °C",
        "Density": "1.067 g/cm³"
    }
}