{
    "cas_no": "7496-02-8",
    "key_name": "6-Nitrochrysene",
    "cn_name": "6-硝基屈;",
    "alternate_name": "Chrysene, 6-nitro-;6-Nitrochrysene;NSC 407609",
    "duplicated_cas_no": "",
    "SMILES": "N(=O)(=O)C1=CC2=C(C=3C1=CC=CC3)C=CC=4C2=CC=CC4",
    "meta_data": {
        "InChI": "InChI=1S/C18H11NO2/c20-19(21)18-11-17-13-6-2-1-5-12(13)9-10-15(17)14-7-3-4-8-16(14)18/h1-11H",
        "InChIKey": null,
        "Canonical SMILES": "O=N(=O)C1=CC=2C=3C=CC=CC3C=CC2C=4C=CC=CC41",
        "Molecular Formula": "C<sub>18</sub>H<sub>11</sub>NO<sub>2</sub>",
        "Molecular Mass": "273.29",
        "Melting Point": "214-214.6 °C"
    }
}