{
    "cas_no": "7783-66-6",
    "key_name": "Iodine pentafluoride",
    "cn_name": "五氟化碘;",
    "alternate_name": "Iodine fluoride (IF<sub>5</sub>);Iodine pentafluoride;Pentafluoroiodine",
    "duplicated_cas_no": "",
    "SMILES": "I(F)(F)(F)(F)F",
    "meta_data": {
        "InChI": "InChI=1S/F5I/c1-6(2,3,4)5",
        "InChIKey": null,
        "Canonical SMILES": "FI(F)(F)(F)F",
        "Molecular Formula": "F<sub>5</sub>I",
        "Molecular Mass": "221.90",
        "Boiling Point": "100.5 °C"
    }
}