{
    "cas_no": "28286-86-4",
    "key_name": "2,4-Dichloro-5-methylbenzenesulfonyl chloride",
    "cn_name": "2,4-二氯-5-甲基苯磺酰氯;2，4-二氯-5-甲基氟苯磺酰氯;2,4-二氯-5-甲基苯磺酰氯,97%;",
    "alternate_name": "Benzenesulfonyl chloride, 2,4-dichloro-5-methyl-;<em>m</em>-Toluenesulfonyl chloride, 4,6-dichloro-;2,4-Dichloro-5-methylbenzenesulfonyl chloride;2,4-Dichlorotoluene-5-sulfochloride;2,4-Dichloro-5-methylbenzene-1-sulfonyl chloride",
    "duplicated_cas_no": "",
    "SMILES": "S(Cl)(=O)(=O)C1=C(Cl)C=C(Cl)C(C)=C1",
    "meta_data": {
        "InChI": "InChI=1S/C7H5Cl3O2S/c1-4-2-7(13(10,11)12)6(9)3-5(4)8/h2-3H,1H3",
        "InChIKey": null,
        "Canonical SMILES": "O=S(=O)(Cl)C1=CC(=C(Cl)C=C1Cl)C",
        "Molecular Formula": "C<sub>7</sub>H<sub>5</sub>Cl<sub>3</sub>O<sub>2</sub>S",
        "Molecular Mass": "259.54",
        "Melting Point": "71 °C"
    }
}