{
    "cas_no": "54135-80-7",
    "key_name": "2,3,4-Trichloroanisole",
    "cn_name": null,
    "alternate_name": "Benzene, 1,2,3-trichloro-4-methoxy-;1,2,3-Trichloro-4-methoxybenzene;2,3,4-Trichloroanisole;1-Methoxy-2,3,4-trichlorobenzene;2,3,4-Trichloroanisol",
    "duplicated_cas_no": "",
    "SMILES": "O(C)C1=C(Cl)C(Cl)=C(Cl)C=C1",
    "meta_data": {
        "InChI": "InChI=1S/C7H5Cl3O/c1-11-5-3-2-4(8)6(9)7(5)10/h2-3H,1H3",
        "InChIKey": null,
        "Canonical SMILES": "ClC1=CC=C(OC)C(Cl)=C1Cl",
        "Molecular Formula": "C<sub>7</sub>H<sub>5</sub>Cl<sub>3</sub>O",
        "Molecular Mass": "211.47",
        "Melting Point": "69-70 °C"
    }
}