{
    "cas_no": "2597-03-7",
    "key_name": "Phenthoate",
    "cn_name": "稻丰散;2-[(二甲氧基硫代膦酰)硫基]苯乙酸乙酯;",
    "alternate_name": "Benzeneacetic acid, α-[(dimethoxyphosphinothioyl)thio]-, ethyl ester;Acetic acid, mercaptophenyl-, ethyl ester, <em>S</em>-ester with <em>O</em>,<em>O</em>-dimethyl phosphorodithioate;Acetic acid, mercaptophenyl-, ethyl ester, <em>S</em>-ester with O,O-dimethyl phosphorodithioate;Acetic acid, mercaptophenyl-, ethyl ester <em>O</em>,<em>O</em>-dimethyl phosphorodithioate;Phosphorodithioic acid, <em>O</em>,<em>O</em>-dimethyl ester, <em>S</em>-ester with ethyl mercaptophenylacetate;Bayer 18,510;ENT 23438;Cidial;Dimephenthoate;<em>O</em>,<em>O</em>-Dimethyl S-α-ethoxycarbonylbenzyl phosphorodithioate;Elsan;<em>S</em>-α-Ethoxycarbonylbenzyl dimethyl phosphorothiolothionate;Papthion;Phenthoate;Tsidial;L 561;BAY 33051;<em>S</em>-[α-(ethoxycarbonyl)benzyl] <em>O</em>,<em>O</em>-dimethyl phosphorodithioate;Montecatini L 561;Fenthoate;Pap;ENT 27386GC;Phendal;Cidemul;Bayer 18510;Tagson;Dhanusan 50;Shaluosong",
    "duplicated_cas_no": "61361-99-7;75513-84-7",
    "SMILES": "C(SP(OC)(OC)=S)(C(OCC)=O)C1=CC=CC=C1",
    "meta_data": {
        "InChI": "InChI=1S/C12H17O4PS2/c1-4-16-12(13)11(10-8-6-5-7-9-10)19-17(18,14-2)15-3/h5-9,11H,4H2,1-3H3",
        "InChIKey": null,
        "Canonical SMILES": "O=C(OCC)C(SP(=S)(OC)OC)C=1C=CC=CC1",
        "Molecular Formula": "C<sub>12</sub>H<sub>17</sub>O<sub>4</sub>PS<sub>2</sub>",
        "Molecular Mass": "320.36",
        "Boiling Point": "70-80 °C @ Press: 5 x 10<sup>-5</sup>-2 Torr",
        "Melting Point": "17-18 °C",
        "Density": "1.226 g/cm³ @ Temp: 20 °C"
    }
}