{
    "cas_no": "75-03-6",
    "key_name": "Iodoethane",
    "cn_name": "碘乙烷;乙基碘;",
    "alternate_name": "Ethane, iodo-;Iodoethane;Ethyl iodide;Hydriodic ether;1-Iodoethane;Monoiodoethane;NSC 8825",
    "duplicated_cas_no": "",
    "SMILES": "C(C)I",
    "meta_data": {
        "InChI": "InChI=1S/C2H5I/c1-2-3/h2H2,1H3",
        "InChIKey": null,
        "Canonical SMILES": "ICC",
        "Molecular Formula": "C<sub>2</sub>H<sub>5</sub>I",
        "Molecular Mass": "155.97",
        "Boiling Point": "72 °C",
        "Melting Point": "-108 °C",
        "Density": "1.9358 g/cm³"
    }
}