{
    "cas_no": "5321-48-2",
    "key_name": "1-(3-Methylbenzyl)piperazine",
    "cn_name": "1-(3-甲基苯甲基)哌嗪;",
    "alternate_name": "Piperazine, 1-[(3-methylphenyl)methyl]-;Piperazine, 1-(<em>m</em>-methylbenzyl)-;1-[(3-Methylphenyl)methyl]piperazine;1-(3-Methylbenzyl)piperazine;<em>N</em>-(<em>m</em>-Methylbenzyl)piperazine;1-(<em>m</em>-Methylbenzyl)piperazine;NSC 30681",
    "duplicated_cas_no": "",
    "SMILES": "C(C1=CC(C)=CC=C1)N2CCNCC2",
    "meta_data": {
        "InChI": "InChI=1S/C12H18N2/c1-11-3-2-4-12(9-11)10-14-7-5-13-6-8-14/h2-4,9,13H,5-8,10H2,1H3",
        "InChIKey": null,
        "Canonical SMILES": "C=1C=C(C=C(C1)CN2CCNCC2)C",
        "Molecular Formula": "C<sub>12</sub>H<sub>18</sub>N<sub>2</sub>",
        "Molecular Mass": "190.28",
        "Boiling Point": "120-121 °C @ Press: 2 Torr",
        "Melting Point": "110 °C"
    }
}