{
    "cas_no": "2167-23-9",
    "key_name": "2,2-Bis(<em>tert</em>-butylperoxy)butane",
    "cn_name": "2,2-双(过氧化叔丁基)丁烷;",
    "alternate_name": "Peroxide, 1,1′-(1-methylpropylidene)bis[2-(1,1-dimethylethyl);Peroxide, <em>sec</em>-butylidenebis[<em>tert</em>-butyl;Peroxide, (1-methylpropylidene)bis[(1,1-dimethylethyl);1,1′-(1-Methylpropylidene)bis[2-(1,1-dimethylethyl) peroxide];3,4,6,7-Tetraoxanonane, 5-ethyl-2,2,5,8,8-pentamethyl-;2,2-Bis(<em>tert</em>-butylperoxy)butane;VP 1200;2,2-Di(<em>tert</em>-butylperoxy)butane;Chaloxyd P 1293AL;Chaloxyd P 1200AL;Lupersol 220;Trigonox DB 50;2,2-Bis(<em>tert</em>-butyldioxy)butane;Trigonox DM 50;<em>sec</em>-Butylidenebis[<em>tert</em>-butyl peroxide];Perhexa 22;Trigonox D;Trigonox D-E 50;Perhexa 22-50S;NSC 5626;DB 50;Trigonox D-C 50;2,2-Bis(tert-butylperoxybutane);Luperox 220M50;2,2-Di-tert-butylperoxybutane",
    "duplicated_cas_no": "",
    "SMILES": "C(OOC(C)(C)C)(OOC(C)(C)C)(CC)C",
    "meta_data": {
        "InChI": "InChI=1S/C12H26O4/c1-9-12(8,15-13-10(2,3)4)16-14-11(5,6)7/h9H2,1-8H3",
        "InChIKey": null,
        "Canonical SMILES": "O(OC(C)(C)C)C(OOC(C)(C)C)(C)CC",
        "Molecular Formula": "C<sub>12</sub>H<sub>26</sub>O<sub>4</sub>",
        "Molecular Mass": "234.33",
        "Boiling Point": "41 °C @ Press: 1 Torr"
    }
}