{
    "cas_no": "19916-73-5",
    "key_name": "6-(Phenylmethoxy)-9<em>H</em>-purin-2-amine",
    "cn_name": "O-6-苄基鸟嘌呤;2-氨基-6-(苄氧基)嘌呤;",
    "alternate_name": "9<em>H</em>-Purin-2-amine, 6-(phenylmethoxy)-;Purine, 2-amino-6-(benzyloxy)-;1<em>H</em>-Purin-2-amine, 6-(phenylmethoxy)-;6-(Phenylmethoxy)-9<em>H</em>-purin-2-amine;2-Amino-6-(benzyloxy)purine;6-(Benzyloxy)guanine;2-Amino-6-(phenylmethoxy)-9<em>H</em>-purine;6-<em>O</em>-Benzylguanine;NSC 637037;<em>O</em><sup>6</sup>-Benzylguanine;O<sup>6</sup>-Benzylguanine;Benzylguanine;6-(Benzyloxy)-7<em>H</em>-purin-2-amine",
    "duplicated_cas_no": "927912-27-4",
    "SMILES": "O(CC1=CC=CC=C1)C2=C3C(=NC(N)=N2)N=CN3",
    "meta_data": {
        "InChI": "InChI=1S/C12H11N5O/c13-12-16-10-9(14-7-15-10)11(17-12)18-6-8-4-2-1-3-5-8/h1-5,7H,6H2,(H3,13,14,15,16,17)",
        "InChIKey": null,
        "Canonical SMILES": "N1=CNC2=C1N=C(N=C2OCC=3C=CC=CC3)N",
        "Molecular Formula": "C<sub>12</sub>H<sub>11</sub>N<sub>5</sub>O",
        "Molecular Mass": "241.25",
        "Melting Point": "202-205 °C"
    }
}