{
    "uri": "substance/pt/8006540",
    "rn": "8006-54-0",
    "name": "Lanolin",
    "images": [],
    "inchi": "",
    "inchiKey": "",
    "smile": "",
    "canonicalSmile": "",
    "molecularFormula": "Unspecified",
    "molecularMass": "",
    "experimentalProperties": [
        {
            "name": "Melting Point",
            "property": "38-42 °C",
            "sourceNumber": 1
        },
        {
            "name": "Density",
            "property": "0.932-0.945 g/cm³ @ Temp: 15 °C",
            "sourceNumber": 1
        }
    ],
    "propertyCitations": [
        {
            "docUri": "",
            "sourceNumber": 1,
            "source": "Hazardous Substances Data Bank data were obtained from the National Library of Medicine (US)"
        }
    ],
    "synonyms": [
        "Lanolin",
        "Agnolin No. 1",
        "Alapurin",
        "Anhydrous lanolin",
        "Anhydrous Lanum",
        "Lanain",
        "Lanalin",
        "Lanesin",
        "Lanichol",
        "Laniol",
        "Oesipos",
        "Agnolin",
        "Adeps lane",
        "Amber lanolin",
        "Lanum",
        "Processed lanolin",
        "Cosmelan",
        "Lantrol",
        "Fats, lanolin",
        "Fats, wool",
        "Lanoprodine",
        "Crodapur",
        "Argowax",
        "Clearlan 1650",
        "Clearlan",
        "HHC 82",
        "FPG 1",
        "Lanox HHC 82",
        "Lanox HH 73",
        "Lanox FPG 103",
        "Lanox FPG 105",
        "Lanox CNB 500",
        "Lanox FP 1410N",
        "Fats and Glyceridic oils, wool",
        "Fats and Glyceridic oils, lanolin",
        "Emery HP 2050",
        "Lanox FP 85N",
        "Lanox FP 8",
        "Lanox FPK 108",
        "Lanox CNB 50",
        "Wool wax, lanolin",
        "Coronet",
        "Lanox CNB 80",
        "Medilan",
        "Super Lanolin",
        "Natralube 210",
        "Furuiran SP",
        "Furuiran T",
        "Fluilan T",
        "E 913",
        "Rikaranoru",
        "Rikalanol",
        "Medilan Ultra",
        "Crodamol ODL",
        "Lanolin TR",
        "Corilene UL",
        "TJ-F 402",
        "YOFCO",
        "Lanolins",
        "Super Lanolin SO",
        "Corona 8",
        "Adeps Lanae",
        "Y 15355",
        "LA 1678",
        "MeSH ID: D007809",
        "Ultra USP 23"
    ],
    "replacedRns": [
        "114471-15-7",
        "8036-05-3",
        "8038-41-3",
        "8038-43-5",
        "8040-96-8"
    ],
    "hasMolfile": false,
    "source": "https://commonchemistry.cas.org/detail?cas_rn=8006-54-0"
}