{
    "cas_no": "6361-22-4",
    "key_name": "2-Chloro-6-nitrobenzaldehyde",
    "cn_name": "2-氯-6-硝基苯甲醛;",
    "alternate_name": "Benzaldehyde, 2-chloro-6-nitro-;2-Chloro-6-nitrobenzaldehyde;6-Chloro-2-nitrobenzaldehyde;1-Chloro-2-formyl-3-nitrobenzene",
    "duplicated_cas_no": "",
    "SMILES": "C(=O)C1=C(N(=O)=O)C=CC=C1Cl",
    "meta_data": {
        "InChI": "InChI=1S/C7H4ClNO3/c8-6-2-1-3-7(9(11)12)5(6)4-10/h1-4H",
        "InChIKey": null,
        "Canonical SMILES": "O=CC=1C(Cl)=CC=CC1N(=O)=O",
        "Molecular Formula": "C<sub>7</sub>H<sub>4</sub>ClNO<sub>3</sub>",
        "Molecular Mass": "185.56",
        "Melting Point": "71.5-72.5 °C"
    }
}