{
    "cas_no": "5792-36-9",
    "key_name": "2′,4′-Dihydroxypropiophenone",
    "cn_name": "2,4-二羟基苯丙酮;",
    "alternate_name": "1-Propanone, 1-(2,4-dihydroxyphenyl)-;Propiophenone, 2′,4′-dihydroxy-;1-(2,4-Dihydroxyphenyl)-1-propanone;Resopropiophenone;4-Propionylresorcinol;Respropiophenone;2′,4′-Dihydroxypropiophenone;NSC 34096",
    "duplicated_cas_no": "",
    "SMILES": "C(CC)(=O)C1=C(O)C=C(O)C=C1",
    "meta_data": {
        "InChI": "InChI=1S/C9H10O3/c1-2-8(11)7-4-3-6(10)5-9(7)12/h3-5,10,12H,2H2,1H3",
        "InChIKey": null,
        "Canonical SMILES": "O=C(C1=CC=C(O)C=C1O)CC",
        "Molecular Formula": "C<sub>9</sub>H<sub>10</sub>O<sub>3</sub>",
        "Molecular Mass": "166.17",
        "Boiling Point": "152-154 °C @ Press: 0.8 Torr",
        "Melting Point": "99 °C"
    }
}