{
    "cas_no": "375-50-8",
    "key_name": "1,4-Diiodoperfluorobutane",
    "cn_name": "1,4-二碘八氟丁烷;",
    "alternate_name": "Butane, 1,1,2,2,3,3,4,4-octafluoro-1,4-diiodo-;Butane, octafluoro-1,4-diiodo-;1,1,2,2,3,3,4,4-Octafluoro-1,4-diiodobutane;Octafluoro-1,4-diiodobutane;1,4-Diiodoperfluorobutane;1,4-Diiodooctafluorobutane;1,4-Diiodo-1,1,2,2,3,3,4,4-octafluorobutane;α,ω-Diiodoperfluorobutane",
    "duplicated_cas_no": "",
    "SMILES": "C(C(C(F)(F)I)(F)F)(C(F)(F)I)(F)F",
    "meta_data": {
        "InChI": "InChI=1S/C4F8I2/c5-1(6,3(9,10)13)2(7,8)4(11,12)14",
        "InChIKey": null,
        "Canonical SMILES": "FC(F)(I)C(F)(F)C(F)(F)C(F)(F)I",
        "Molecular Formula": "C<sub>4</sub>F<sub>8</sub>I<sub>2</sub>",
        "Molecular Mass": "453.84",
        "Boiling Point": "150 °C",
        "Melting Point": "-9 °C",
        "Density": "2.4739 g/cm³ @ Temp: 27 °C"
    }
}