{
    "cas_no": "2217-35-8",
    "key_name": "(Tetrahydro-2-furanyl)methyl 2-hydroxybenzoate",
    "cn_name": "水杨酸四氢糠酯;",
    "alternate_name": "Benzoic acid, 2-hydroxy-, (tetrahydro-2-furanyl)methyl ester;Salicylic acid, tetrahydrofurfuryl ester;(Tetrahydro-2-furanyl)methyl 2-hydroxybenzoate;Tetrahydrofurfuryl salicylate;NSC 68484;(Tetrahydrofuran-2-yl)methyl 2-hydroxybenzoate;(Oxolan-2-yl)methyl 2-hydroxybenzoate;2-Hydroxy-benzoic acid tetrahydro-furan-2-ylmethyl ester",
    "duplicated_cas_no": "",
    "SMILES": "C(OCC1CCCO1)(=O)C2=C(O)C=CC=C2",
    "meta_data": {
        "InChI": "InChI=1S/C12H14O4/c13-11-6-2-1-5-10(11)12(14)16-8-9-4-3-7-15-9/h1-2,5-6,9,13H,3-4,7-8H2",
        "InChIKey": null,
        "Canonical SMILES": "O=C(OCC1OCCC1)C=2C=CC=CC2O",
        "Molecular Formula": "C<sub>12</sub>H<sub>14</sub>O<sub>4</sub>",
        "Molecular Mass": "222.24",
        "Boiling Point": "166 °C @ Press: 5 Torr",
        "Density": "1.1831 g/cm³ @ Temp: 34 °C"
    }
}