{
    "cas_no": "5984-56-5",
    "key_name": "4-Piperidinecarboxylic acid, hydrochloride (1:1)",
    "cn_name": "4-哌啶甲酸盐酸盐;",
    "alternate_name": "4-Piperidinecarboxylic acid, hydrochloride (1:1);Isonipecotic acid, hydrochloride;4-Piperidinecarboxylic acid, hydrochloride",
    "duplicated_cas_no": "",
    "SMILES": "C(O)(=O)C1CCNCC1.Cl",
    "meta_data": {
        "InChI": "InChI=1S/C6H11NO2.ClH/c8-6(9)5-1-3-7-4-2-5;/h5,7H,1-4H2,(H,8,9);1H",
        "InChIKey": null,
        "Canonical SMILES": "Cl.O=C(O)C1CCNCC1",
        "Molecular Formula": "C<sub>6</sub>H<sub>11</sub>NO<sub>2</sub>.ClH",
        "Molecular Mass": "",
        "Melting Point": "293 °C (decomp)"
    }
}