{
    "cas_no": "2076-36-0",
    "key_name": "Methyl 3-methyl-2-benzofurancarboxylate",
    "cn_name": "3-甲基苯并呋喃-2-甲酸甲酯;",
    "alternate_name": "2-Benzofurancarboxylic acid, 3-methyl-, methyl ester;Methyl 3-methyl-2-benzofurancarboxylate;3-Methylbenzofuran-2-carboxylic acid methyl ester",
    "duplicated_cas_no": "",
    "SMILES": "CC=1C=2C(OC1C(OC)=O)=CC=CC2",
    "meta_data": {
        "InChI": "InChI=1S/C11H10O3/c1-7-8-5-3-4-6-9(8)14-10(7)11(12)13-2/h3-6H,1-2H3",
        "InChIKey": null,
        "Canonical SMILES": "O=C(OC)C=1OC=2C=CC=CC2C1C",
        "Molecular Formula": "C<sub>11</sub>H<sub>10</sub>O<sub>3</sub>",
        "Molecular Mass": "190.20",
        "Boiling Point": "130-135 °C @ Press: 1 Torr",
        "Melting Point": "69-70 °C"
    }
}