{
    "cas_no": "32122-23-9",
    "key_name": "1-Bromocyclobutanecarboxylic acid",
    "cn_name": null,
    "alternate_name": "Cyclobutanecarboxylic acid, 1-bromo-;1-Bromocyclobutanecarboxylic acid;1-Bromocyclobutane-1-carboxylic acid;NSC 179441",
    "duplicated_cas_no": "",
    "SMILES": "C(O)(=O)C1(Br)CCC1",
    "meta_data": {
        "InChI": "InChI=1S/C5H7BrO2/c6-5(4(7)8)2-1-3-5/h1-3H2,(H,7,8)",
        "InChIKey": null,
        "Canonical SMILES": "O=C(O)C1(Br)CCC1",
        "Molecular Formula": "C<sub>5</sub>H<sub>7</sub>BrO<sub>2</sub>",
        "Molecular Mass": "179.01",
        "Boiling Point": "145-155 °C @ Press: 40-50 Torr",
        "Melting Point": "48 °C"
    }
}