{
    "cas_no": "71294-03-6",
    "key_name": "7-Fluoro-1,3-dihydro-2<em>H</em>-indol-2-one",
    "cn_name": "7-氟-2-吲哚酮;7-氟吲哚酮;",
    "alternate_name": "2<em>H</em>-Indol-2-one, 7-fluoro-1,3-dihydro-;7-Fluoro-1,3-dihydro-2<em>H</em>-indol-2-one;7-Fluorooxindole;7-Fluoro-2-oxindole;7-Fluoro-1,3-dihydroindol-2-one;7-Fluoroindolin-2-one",
    "duplicated_cas_no": "",
    "SMILES": "FC1=C2C(CC(=O)N2)=CC=C1",
    "meta_data": {
        "InChI": "InChI=1S/C8H6FNO/c9-6-3-1-2-5-4-7(11)10-8(5)6/h1-3H,4H2,(H,10,11)",
        "InChIKey": null,
        "Canonical SMILES": "O=C1NC=2C(F)=CC=CC2C1",
        "Molecular Formula": "C<sub>8</sub>H<sub>6</sub>FNO",
        "Molecular Mass": "151.14",
        "Melting Point": "192-196 °C"
    }
}