{
    "cas_no": "7536-55-2",
    "key_name": "<em>tert</em>-Butoxycarbonyl-<span class=\"text-smallcaps\">L</span>-asparagine",
    "cn_name": "BOC-L-天冬酰胺;N-叔丁氧羰基-L-天冬酰胺;",
    "alternate_name": "<span class=\"text-smallcaps\">L</span>-Asparagine, <em>N</em><sup>2</sup>-[(1,1-dimethylethoxy)carbonyl]-;Asparagine, <em>N</em><sup>2</sup>-carboxy-, <em>N</em><sup>2</sup>-<em>tert</em>-butyl ester, <span class=\"text-smallcaps\">L</span>-;<em>N</em><sup>2</sup>-[(1,1-Dimethylethoxy)carbonyl]-<span class=\"text-smallcaps\">L</span>-asparagine;<em>tert</em>-Butoxycarbonyl-<span class=\"text-smallcaps\">L</span>-asparagine;<em>tert</em>-Butyloxycarbonyl-<span class=\"text-smallcaps\">L</span>-asparagine;<em>N</em><sup>α</sup>-<em>tert</em>-Butoxycarbonyl-<span class=\"text-smallcaps\">L</span>-asparagine;<em>N</em><sup>2</sup>-<em>tert</em>-Butoxycarbonyl-<span class=\"text-smallcaps\">L</span>-asparagine;<em>N</em>-(<em>tert</em>-Butoxycarbonyl)-<span class=\"text-smallcaps\">L</span>-asparagine;BOC-Asparagine;BOC-<span class=\"text-smallcaps\">L</span>-asparagine;<em>N</em><sup>α</sup>-(<em>tert</em>-Butoxycarbonyl)asparagine;(2<em>S</em>)-2-((<em>tert</em>-Butoxycarbonyl)amino)-3-carbamoylpropanoic acid;<em>N</em>-Boc-<span class=\"text-smallcaps\">L</span>-asparagine;NSC 154980;(<em>S</em>)-4-Amino-2-[(<em>tert</em>-butoxycarbonyl)amino]-4-oxobutanoic acid;Boc-<span class=\"text-smallcaps\">L</span>-Asn-OH;(2S)-2-[[(<em>tert</em>-Butoxy)carbonyl]amino]-3-carbamoylpropanoic acid;(2S)-4-Amino-2-[(2-methylpropan-2-yl)oxycarbonylamino]-4-oxobutanoic acid",
    "duplicated_cas_no": "",
    "SMILES": "[C@H](NC(OC(C)(C)C)=O)(CC(N)=O)C(O)=O",
    "meta_data": {
        "InChI": "InChI=1S/C9H16N2O5/c1-9(2,3)16-8(15)11-5(7(13)14)4-6(10)12/h5H,4H2,1-3H3,(H2,10,12)(H,11,15)(H,13,14)/t5-/m0/s1",
        "InChIKey": null,
        "Canonical SMILES": "O=C(OC(C)(C)C)NC(C(=O)O)CC(=O)N",
        "Molecular Formula": "C<sub>9</sub>H<sub>16</sub>N<sub>2</sub>O<sub>5</sub>",
        "Molecular Mass": "232.23",
        "Melting Point": "182 °C"
    }
}