{
    "cas_no": "873-55-2",
    "key_name": "Sodium benzenesulfinate",
    "cn_name": "苯亚磺酸钠;",
    "alternate_name": "Benzenesulfinic acid, sodium salt (1:1);Benzenesulfinic acid, sodium salt;Sodium benzenesulfinate;Sodium phenylsulfinate;NSC 135147;NSC 30629;Benzenesulfinic acid sodium salt",
    "duplicated_cas_no": "53271-64-0;134347-25-4;167163-40-8;709654-40-0;1220350-10-6;1646600-23-8;2628649-08-9",
    "SMILES": "S(=O)(O)C1=CC=CC=C1.[Na]",
    "meta_data": {
        "InChI": "InChI=1S/C6H6O2S.Na/c7-9(8)6-4-2-1-3-5-6;/h1-5H,(H,7,8);",
        "InChIKey": null,
        "Canonical SMILES": "[Na].O=S(O)C=1C=CC=CC1",
        "Molecular Formula": "C<sub>6</sub>H<sub>6</sub>O<sub>2</sub>S.Na",
        "Molecular Mass": "",
        "Melting Point": "&gt;300 °C"
    }
}