{
    "cas_no": "2700-16-5",
    "key_name": "Ethanaminium, <em>N</em>,<em>N</em>-diethyl-<em>N</em>-methyl-, bromide (1:1)",
    "cn_name": "甲基三乙基溴化铵;",
    "alternate_name": "Ethanaminium, <em>N</em>,<em>N</em>-diethyl-<em>N</em>-methyl-, bromide (1:1);Ammonium, triethylmethyl-, bromide;Ethanaminium, <em>N</em>,<em>N</em>-diethyl-<em>N</em>-methyl-, bromide;Triethylmethylammonium bromide;Methyltriethylammonium bromide",
    "duplicated_cas_no": "",
    "SMILES": "[N+](CC)(CC)(CC)C.[Br-]",
    "meta_data": {
        "InChI": "InChI=1S/C7H18N.BrH/c1-5-8(4,6-2)7-3;/h5-7H2,1-4H3;1H/q+1;/p-1",
        "InChIKey": null,
        "Canonical SMILES": "[Br-].CC[N+](C)(CC)CC",
        "Molecular Formula": "C<sub>7</sub>H<sub>18</sub>N.Br",
        "Molecular Mass": "",
        "Melting Point": "295-296 °C"
    }
}