{
    "cas_no": "108-24-7",
    "key_name": "Acetic anhydride",
    "cn_name": "乙酐;醋酐;醋酸酐;乙酸酐;",
    "alternate_name": "Acetic acid, 1,1′-anhydride;Acetic anhydride;Acetic acid, anhydride;Acetic oxide;Acetyl oxide;Ethanoic anhydride;Acetyl anhydride;Acetyl ether;Acetyl acetate",
    "duplicated_cas_no": "",
    "SMILES": "O(C(C)=O)C(C)=O",
    "meta_data": {
        "InChI": "InChI=1S/C4H6O3/c1-3(5)7-4(2)6/h1-2H3",
        "InChIKey": null,
        "Canonical SMILES": "O=C(OC(=O)C)C",
        "Molecular Formula": "C<sub>4</sub>H<sub>6</sub>O<sub>3</sub>",
        "Molecular Mass": "102.09",
        "Boiling Point": "139.5 °C",
        "Melting Point": "-73 °C",
        "Density": "1.082 g/cm³ @ Temp: 20 °C"
    }
}