{
    "cas_no": "7782-26-5",
    "key_name": "(-)-2-Phenylpropionic acid",
    "cn_name": "R-2-苯基丙酸;",
    "alternate_name": "Benzeneacetic acid, α-methyl-, (α<em>R</em>)-;Hydratropic acid, (<em>R</em>)-(-)-;Benzeneacetic acid, α-methyl-, (<em>R</em>)-;(α<em>R</em>)-α-Methylbenzeneacetic acid;(-)-Hydratropic acid;(-)-2-Phenylpropanoic acid;(<em>R</em>)-Hydratropic acid;(<em>R</em>)-2-Phenylpropionic acid;(-)-2-Phenylpropionic acid;(-)-α-Phenylpropionic acid;(<em>R</em>)-(-)-Hydratropic acid;(<em>R</em>)-(-)-2-Phenylpropionic acid;(<em>R</em>)-α-Methylbenzeneacetic acid;(<em>R</em>)-α-Phenylpropionic acid;(<em>R</em>)-2-Phenylpropanoic acid;(-)-(<em>R</em>)-2-Phenylpropionic acid;<em>l</em>-PPA;(<em>R</em>)-α-Methylphenylacetic acid;(2<em>R</em>)-2-Phenylpropanoic acid;NSC 245032;(R)-2-Phenylpropanoic acid",
    "duplicated_cas_no": "",
    "SMILES": "[C@@H](C(O)=O)(C)C1=CC=CC=C1",
    "meta_data": {
        "InChI": "InChI=1S/C9H10O2/c1-7(9(10)11)8-5-3-2-4-6-8/h2-7H,1H3,(H,10,11)/t7-/m1/s1",
        "InChIKey": null,
        "Canonical SMILES": "O=C(O)C(C=1C=CC=CC1)C",
        "Molecular Formula": "C<sub>9</sub>H<sub>10</sub>O<sub>2</sub>",
        "Molecular Mass": "150.17",
        "Boiling Point": "115 °C @ Press: 1.5 Torr",
        "Melting Point": "30.0-30.6 °C"
    }
}