{
    "cas_no": "131-57-7",
    "key_name": "2-Hydroxy-4-methoxybenzophenone",
    "cn_name": "紫外线吸收剂UV-9;2-羟基-4-甲氧基二苯甲酮;",
    "alternate_name": "Methanone, (2-hydroxy-4-methoxyphenyl)phenyl-;Benzophenone, 2-hydroxy-4-methoxy-;(2-Hydroxy-4-methoxyphenyl)phenylmethanone;Cyasorb UV 9;Cyasorb UV 9 Light Absorber;Spectra-Sorb UV 9;Uvinul M 40;UF 3;4-Methoxy-2-hydroxybenzophenone;Oxybenzone;MOB;UV 9;Advastab 45;Benzophenone 3;Sunscreen UV 15;Chimassorb 90;Oxybenzon;Anuvex;Uvistat 24;Uvinul 9;Syntase 62;Ongrostab HMB;2-Benzoyl-5-methoxyphenol;Sumisorb 110;Aduvex 24;ASL 24;Escalol 567;Seesorb 101;2-Hydroxy-4-methoxybenzophenone;Viosorb 110;Uvinul 3040;Neo Heliopan BB;Onzone;Uvasorb MET/C;NSC 7778;Tinosorb B 3;Jeescreen Benzophenone 3;Eusolex 4360;Kemisorb 11;Uvinul MC 40;Sunscreen 567;BP 3;Speedblock UV 9;CFN 98729;Light Stabilizer 3040;Chemsorb BP 3;Eversorb 11",
    "duplicated_cas_no": "14375-37-2;58392-15-7;58392-22-6;138464-23-0;153859-73-5;897050-18-9;2216794-47-5;2412123-04-5;2761040-67-7",
    "SMILES": "C(=O)(C1=C(O)C=C(OC)C=C1)C2=CC=CC=C2",
    "meta_data": {
        "InChI": "InChI=1S/C14H12O3/c1-17-11-7-8-12(13(15)9-11)14(16)10-5-3-2-4-6-10/h2-9,15H,1H3",
        "InChIKey": null,
        "Canonical SMILES": "O=C(C=1C=CC=CC1)C2=CC=C(OC)C=C2O",
        "Molecular Formula": "C<sub>14</sub>H<sub>12</sub>O<sub>3</sub>",
        "Molecular Mass": "228.24",
        "Boiling Point": "155 °C",
        "Melting Point": "66 °C"
    }
}