{
    "cas_no": "6853-57-2",
    "key_name": "4-Pentylbenzaldehyde",
    "cn_name": null,
    "alternate_name": "Benzaldehyde, 4-pentyl-;Benzaldehyde, <em>p</em>-pentyl-;4-Pentylbenzaldehyde;<em>p</em>-Pentylbenzaldehyde;<em>p</em>-Amylbenzaldehyde",
    "duplicated_cas_no": "",
    "SMILES": "C(CCCC)C1=CC=C(C=O)C=C1",
    "meta_data": {
        "InChI": "InChI=1S/C12H16O/c1-2-3-4-5-11-6-8-12(10-13)9-7-11/h6-10H,2-5H2,1H3",
        "InChIKey": null,
        "Canonical SMILES": "O=CC1=CC=C(C=C1)CCCCC",
        "Molecular Formula": "C<sub>12</sub>H<sub>16</sub>O",
        "Molecular Mass": "176.25",
        "Boiling Point": "215 °C @ Press: 6 Torr",
        "Melting Point": "-33 °C"
    }
}