{
    "cas_no": "13154-25-1",
    "key_name": "Chlorotris(2-methylpropyl)silane",
    "cn_name": "三异丁基氯硅烷;氯化三异丁基甲硅烷基;",
    "alternate_name": "Silane, chlorotris(2-methylpropyl)-;Silane, chlorotriisobutyl-;Chlorotris(2-methylpropyl)silane;NSC 516680;Triisobutylsilyl chloride;Chlorotris(isobutyl)silane;Chloro(tri-isobutyl)silane",
    "duplicated_cas_no": "",
    "SMILES": "[Si](CC(C)C)(CC(C)C)(CC(C)C)Cl",
    "meta_data": {
        "InChI": "InChI=1S/C12H27ClSi/c1-10(2)7-14(13,8-11(3)4)9-12(5)6/h10-12H,7-9H2,1-6H3",
        "InChIKey": null,
        "Canonical SMILES": "Cl[Si](CC(C)C)(CC(C)C)CC(C)C",
        "Molecular Formula": "C<sub>12</sub>H<sub>27</sub>ClSi",
        "Molecular Mass": "234.88",
        "Boiling Point": "225-228 °C",
        "Density": "0.877 g/cm³"
    }
}