{
    "cas_no": "68-90-6",
    "key_name": "Benziodarone",
    "cn_name": null,
    "alternate_name": "Methanone, (2-ethyl-3-benzofuranyl)(4-hydroxy-3,5-diiodophenyl)-;Ketone, 2-ethyl-3-benzofuranyl 4-hydroxy-3,5-diiodophenyl;(2-Ethyl-3-benzofuranyl)(4-hydroxy-3,5-diiodophenyl)methanone;L 2329;Amplivix;Benziodarone;Cardivix;2-Ethyl-3-(3,5-diiodo-4-hydroxybenzoyl)benzofuran;2-Ethyl-3-(3,5-diiodo-4-hydroxybenzoyl)-3-coumarone;2-Ethyl-3-(4-hydroxy-3,5-diiodobenzoyl)benzofuran;2-Ethyl-3-(4-hydroxy-3,5-diiodobenzoyl)coumarone;Dilafurane;Dila-Vasal;Algocor;2329 Labaz;Retrangor;Corofam;Coronal-Crinos;NSC 82133;(2-Ethyl-1-benzofuran-3-yl)-(4-hydroxy-3,5-diiodophenyl)methanone",
    "duplicated_cas_no": "",
    "SMILES": "C(=O)(C=1C=2C(OC1CC)=CC=CC2)C3=CC(I)=C(O)C(I)=C3",
    "meta_data": {
        "InChI": "InChI=1S/C17H12I2O3/c1-2-13-15(10-5-3-4-6-14(10)22-13)16(20)9-7-11(18)17(21)12(19)8-9/h3-8,21H,2H2,1H3",
        "InChIKey": null,
        "Canonical SMILES": "O=C(C1=CC(I)=C(O)C(I)=C1)C=2C=3C=CC=CC3OC2CC",
        "Molecular Formula": "C<sub>17</sub>H<sub>12</sub>I<sub>2</sub>O<sub>3</sub>",
        "Molecular Mass": "518.08",
        "Melting Point": "167 °C"
    }
}