{
    "cas_no": "70563-58-5",
    "key_name": "Herbimycin A",
    "cn_name": "除莠霉素A;",
    "alternate_name": "Geldanamycin, 17-demethoxy-15-methoxy-11-<em>O</em>-methyl-, (15<em>R</em>)-;2-Azabicyclo[16.3.1]docosane, geldanamycin deriv.;(15<em>R</em>)-17-Demethoxy-15-methoxy-11-<em>O</em>-methylgeldanamycin;Herbimycin A;Antibiotic TAN 420F;NSC 305978",
    "duplicated_cas_no": "1258005-88-7",
    "SMILES": "",
    "meta_data": {
        "InChI": "",
        "InChIKey": null,
        "Canonical SMILES": "",
        "Molecular Formula": "C<sub>30</sub>H<sub>42</sub>N<sub>2</sub>O<sub>9</sub>",
        "Molecular Mass": "574.66",
        "Melting Point": "229-231 °C"
    }
}