{
    "cas_no": "598-88-9",
    "key_name": "1,2-Dichloro-1,2-difluoroethene",
    "cn_name": "1,2-二氯-1,2-二氟乙烯;1,2-二氯-1,2-二氟乙烯;",
    "alternate_name": "Ethene, 1,2-dichloro-1,2-difluoro-;Ethylene, 1,2-dichloro-1,2-difluoro-;1,2-Dichloro-1,2-difluoroethene;1,2-Dichloro-1,2-difluoroethylene;1,2-Dichlorodifluoroethylene;1,2-Dichlorodifluoroethene;1,2-Difluoro-1,2-dichloroethene;1,2-Difluoro-1,2-dichloroethylene;1,2-Difluorodichloroethylene;CFC 1112;CFO 1112",
    "duplicated_cas_no": "",
    "SMILES": "C(=C(Cl)F)(Cl)F",
    "meta_data": {
        "InChI": "InChI=1S/C2Cl2F2/c3-1(5)2(4)6",
        "InChIKey": null,
        "Canonical SMILES": "FC(Cl)=C(F)Cl",
        "Molecular Formula": "C<sub>2</sub>Cl<sub>2</sub>F<sub>2</sub>",
        "Molecular Mass": "132.92",
        "Boiling Point": "21.1 °C",
        "Melting Point": "-130.5 °C"
    }
}