{
    "cas_no": "754-34-7",
    "key_name": "Perfluoropropyl iodide",
    "cn_name": "全氟碘代丙烷;七氟-1-碘丙烷;",
    "alternate_name": "Propane, 1,1,1,2,2,3,3-heptafluoro-3-iodo-;Propane, heptafluoro-1-iodo-;1,1,1,2,2,3,3-Heptafluoro-3-iodopropane;Heptafluoro-1-iodopropane;1-Iodoperfluoropropane;Perfluoropropyl iodide;1-Iodoheptafluoropropane;Heptafluoropropyl iodide;<em>n</em>-Heptafluoropropyl iodide;R 217I1;1,1,2,2,3,3,3-Heptafluoro-1-iodopropane;NSC 66409;1,1,2,2,3,3,3-Heptafluoropropyl iodide",
    "duplicated_cas_no": "",
    "SMILES": "C(C(F)(F)F)(C(F)(F)I)(F)F",
    "meta_data": {
        "InChI": "InChI=1S/C3F7I/c4-1(5,2(6,7)8)3(9,10)11",
        "InChIKey": null,
        "Canonical SMILES": "FC(F)(F)C(F)(F)C(F)(F)I",
        "Molecular Formula": "C<sub>3</sub>F<sub>7</sub>I",
        "Molecular Mass": "295.93",
        "Boiling Point": "41.2 °C",
        "Melting Point": "-95 °C",
        "Density": "2.0626 g/cm³ @ Temp: 20 °C"
    }
}