{
    "cas_no": "32598-11-1",
    "key_name": "PCB 70",
    "cn_name": "2,3,4,5-四氯联苯醚;2,3,4,5-四氯联苯醚PCBNo70;",
    "alternate_name": "1,1′-Biphenyl, 2,3′,4′,5-tetrachloro-;Biphenyl, 2,3′,4′,5-tetrachloro-;2,3′,4′,5-Tetrachloro-1,1′-biphenyl;2,3′,4′,5-Tetrachlorobiphenyl;3,4,2′,5′-Tetrachlorobiphenyl;2,5,3′,4′-Tetrachlorobiphenyl;2′,3,4,5′-Tetrachlorobiphenyl;PCB 70;1,2-Dichloro-4-(2,5-dichlorophenyl)benzene",
    "duplicated_cas_no": "110866-21-2",
    "SMILES": "ClC1=C(C2=CC(Cl)=C(Cl)C=C2)C=C(Cl)C=C1",
    "meta_data": {
        "InChI": "InChI=1S/C12H6Cl4/c13-8-2-4-10(14)9(6-8)7-1-3-11(15)12(16)5-7/h1-6H",
        "InChIKey": null,
        "Canonical SMILES": "ClC1=CC=C(Cl)C(=C1)C=2C=CC(Cl)=C(Cl)C2",
        "Molecular Formula": "C<sub>12</sub>H<sub>6</sub>Cl<sub>4</sub>",
        "Molecular Mass": "291.99",
        "Boiling Point": "160-165 °C @ Press: 0.4 Torr",
        "Melting Point": "103 °C"
    }
}