{
    "cas_no": "59907-12-9",
    "key_name": "1-Bromo-2-fluoro-3-methylbenzene",
    "cn_name": "3-溴-2-氟甲苯;",
    "alternate_name": "Benzene, 1-bromo-2-fluoro-3-methyl-;1-Bromo-2-fluoro-3-methylbenzene;3-Bromo-2-fluorotoluene",
    "duplicated_cas_no": "",
    "SMILES": "FC1=C(Br)C=CC=C1C",
    "meta_data": {
        "InChI": "InChI=1S/C7H6BrF/c1-5-3-2-4-6(8)7(5)9/h2-4H,1H3",
        "InChIKey": null,
        "Canonical SMILES": "FC=1C(Br)=CC=CC1C",
        "Molecular Formula": "C<sub>7</sub>H<sub>6</sub>BrF",
        "Molecular Mass": "189.02",
        "Boiling Point": "185-186 °C @ Press: 760 Torr"
    }
}