{
    "cas_no": "22115-41-9",
    "key_name": "2-Cyanobenzyl bromide",
    "cn_name": "2-氰基溴苄;",
    "alternate_name": "Benzonitrile, 2-(bromomethyl)-;<em>o</em>-Tolunitrile, α-bromo-;2-(Bromomethyl)benzonitrile;<em>o</em>-Cyanobenzyl bromide;2-Cyanobenzyl bromide;α-Bromo-<em>o</em>-toluonitrile;<em>o</em>-(Bromomethyl)benzonitrile;α-Bromo-<em>o</em>-tolunitrile;α-Bromo-2-cyanotoluene;1-(Bromomethyl)-2-cyanobenzene;2-Cyano-α-bromotoluene;(2-Cyanophenyl)methyl bromide;2-Nitrilebenzyl bromide",
    "duplicated_cas_no": "",
    "SMILES": "C(Br)C1=C(C#N)C=CC=C1",
    "meta_data": {
        "InChI": "InChI=1S/C8H6BrN/c9-5-7-3-1-2-4-8(7)6-10/h1-4H,5H2",
        "InChIKey": null,
        "Canonical SMILES": "N#CC=1C=CC=CC1CBr",
        "Molecular Formula": "C<sub>8</sub>H<sub>6</sub>BrN",
        "Molecular Mass": "196.04",
        "Boiling Point": "140-150 °C @ Press: 5 Torr",
        "Melting Point": "70-71 °C",
        "Density": "1.708 g/cm³"
    }
}