{
    "cas_no": "538-51-2",
    "key_name": "<em>N</em>-Benzylideneaniline",
    "cn_name": "N-苄叉苯胺;N-亚苄基苯胺;N-苯亚甲基苯胺;",
    "alternate_name": "Benzenamine, <em>N</em>-(phenylmethylene)-;Aniline, <em>N</em>-benzylidene-;<em>N</em>-(Phenylmethylene)benzenamine;Benzaldehyde anil;<em>N</em>-Benzylideneaniline;<em>N</em>-Benzalaniline;M<sub>4</sub> (amine);<em>N</em>-Phenylbenzenemethanimine;<em>N</em>-Phenylbenzylideneimine;M<sub>4</sub>;Benzaldehyde <em>N</em>-phenylimine;<em>N</em>-Phenylbenzaldimine;Phenyl(benzylidene)amine;Benzylideneaniline;(Benzylidene)phenylamine;<em>N</em>-(Phenylmethylidene)benzenamine;NSC 736;Diphenylimine;<em>N</em>-Benzylidenebenzenamine;<em>N</em>-Phenylbenzylimine;<em>N</em>-Benzylidenenaniline",
    "duplicated_cas_no": "",
    "SMILES": "C(=NC1=CC=CC=C1)C2=CC=CC=C2",
    "meta_data": {
        "InChI": "InChI=1S/C13H11N/c1-3-7-12(8-4-1)11-14-13-9-5-2-6-10-13/h1-11H",
        "InChIKey": null,
        "Canonical SMILES": "N(=CC=1C=CC=CC1)C=2C=CC=CC2",
        "Molecular Formula": "C<sub>13</sub>H<sub>11</sub>N",
        "Molecular Mass": "181.23",
        "Boiling Point": "310 °C",
        "Melting Point": "54 °C"
    }
}