{
    "cas_no": "16414-34-9",
    "key_name": "5-Bromo-3,4-dihydroxybenzaldehyde",
    "cn_name": null,
    "alternate_name": "Benzaldehyde, 3-bromo-4,5-dihydroxy-;Protocatechualdehyde, 5-bromo-;3-Bromo-4,5-dihydroxybenzaldehyde;5-Bromoprotocatechualdehyde;Bromoprotocatechualdehyde;5-Bromo-3,4-dihydroxybenzaldehyde;3,4-Dihydroxy-5-bromobenzaldehyde;NSC 139675",
    "duplicated_cas_no": "",
    "SMILES": "C(=O)C1=CC(Br)=C(O)C(O)=C1",
    "meta_data": {
        "InChI": "InChI=1S/C7H5BrO3/c8-5-1-4(3-9)2-6(10)7(5)11/h1-3,10-11H",
        "InChIKey": null,
        "Canonical SMILES": "O=CC1=CC(Br)=C(O)C(O)=C1",
        "Molecular Formula": "C<sub>7</sub>H<sub>5</sub>BrO<sub>3</sub>",
        "Molecular Mass": "217.02",
        "Melting Point": "230 °C"
    }
}