{
    "cas_no": "131983-72-7",
    "key_name": "Triticonazole",
    "cn_name": "灭菌唑; (E)-5-(4-氯亚苄基)-2,2-二甲基-1-(1H-1,2,4-三唑-1-基甲基)环戊醇;",
    "alternate_name": "Cyclopentanol, 5-[(4-chlorophenyl)methylene]-2,2-dimethyl-1-(1<em>H</em>-1,2,4-triazol-1-ylmethyl)-;5-[(4-Chlorophenyl)methylene]-2,2-dimethyl-1-(1<em>H</em>-1,2,4-triazol-1-ylmethyl)cyclopentanol;Triticonazole;Alios;Premis T;Charter;Premis;Premise (fungicide);Premise;Premis 25 FS;5-(4-Chlorobenzylidene)-2,2-dimethyl-1-[1,2,4]triazol-1-ylmethyl-cyclopentanol;Trinity",
    "duplicated_cas_no": "",
    "SMILES": "C(C1(O)C(=CC2=CC=C(Cl)C=C2)CCC1(C)C)N3C=NC=N3",
    "meta_data": {
        "InChI": "InChI=1S/C17H20ClN3O/c1-16(2)8-7-14(9-13-3-5-15(18)6-4-13)17(16,22)10-21-12-19-11-20-21/h3-6,9,11-12,22H,7-8,10H2,1-2H3",
        "InChIKey": null,
        "Canonical SMILES": "ClC1=CC=C(C=C1)C=C2CCC(C)(C)C2(O)CN3N=CN=C3",
        "Molecular Formula": "C<sub>17</sub>H<sub>20</sub>ClN<sub>3</sub>O",
        "Molecular Mass": "317.81",
        "Melting Point": "140 °C"
    }
}