{
    "cas_no": "68015-60-1",
    "key_name": "1,1′-[(1-Methylethylidene)di-4,1-phenylene] bis(2-aminobenzenesulfonate)",
    "cn_name": "4,4\"-二(2-氨基-苯磺酸)双酚A酯;",
    "alternate_name": "Benzenesulfonic acid, 2-amino-, 1,1′-[(1-methylethylidene)di-4,1-phenylene] ester;Benzenesulfonic acid, 2-amino-, (1-methylethylidene)di-4,1-phenylene ester;1,1′-[(1-Methylethylidene)di-4,1-phenylene] bis(2-aminobenzenesulfonate)",
    "duplicated_cas_no": "",
    "SMILES": "S(OC1=CC=C(C(C)(C)C2=CC=C(OS(=O)(=O)C3=C(N)C=CC=C3)C=C2)C=C1)(=O)(=O)C4=C(N)C=CC=C4",
    "meta_data": {
        "InChI": "InChI=1S/C27H26N2O6S2/c1-27(2,19-11-15-21(16-12-19)34-36(30,31)25-9-5-3-7-23(25)28)20-13-17-22(18-14-20)35-37(32,33)26-10-6-4-8-24(26)29/h3-18H,28-29H2,1-2H3",
        "InChIKey": null,
        "Canonical SMILES": "O=S(=O)(OC1=CC=C(C=C1)C(C2=CC=C(OS(=O)(=O)C=3C=CC=CC3N)C=C2)(C)C)C=4C=CC=CC4N",
        "Molecular Formula": "C<sub>27</sub>H<sub>26</sub>N<sub>2</sub>O<sub>6</sub>S<sub>2</sub>",
        "Molecular Mass": "538.64",
        "Melting Point": "158-159 °C"
    }
}