{
    "cas_no": "628-87-5",
    "key_name": "Iminodiacetonitrile",
    "cn_name": "亚氨基二乙腈;",
    "alternate_name": "Acetonitrile, 2,2′-iminobis-;Acetonitrile, iminodi-;2,2′-Iminobis[acetonitrile];Iminodiacetonitrile;1,1′-Imidodiacetonitrile;Imidodiacetonitrile;NSC 263496;2,2′-Azanediyldiacetonitrile;(Cyanomethyl-amino)-acetonitrile;2-(Cyanomethylamino)acetonitrile;2-[(Cyanomethyl)amino]acetonitrile",
    "duplicated_cas_no": "",
    "SMILES": "N(CC#N)CC#N",
    "meta_data": {
        "InChI": "InChI=1S/C4H5N3/c5-1-3-7-4-2-6/h7H,3-4H2",
        "InChIKey": null,
        "Canonical SMILES": "N#CCNCC#N",
        "Molecular Formula": "C<sub>4</sub>H<sub>5</sub>N<sub>3</sub>",
        "Molecular Mass": "95.10",
        "Melting Point": "77 °C"
    }
}