{
    "cas_no": "5469-45-4",
    "key_name": "2-(Acetylamino)-3-phenyl-2-propenoic acid",
    "cn_name": "DL-N-乙酰氨基肉桂酸;alpha-乙酰氨基肉桂酸;",
    "alternate_name": "2-Propenoic acid, 2-(acetylamino)-3-phenyl-;Cinnamic acid, α-acetamido-;2-(Acetylamino)-3-phenyl-2-propenoic acid;2-Acetamidocinnamic acid;α-Acetylaminocinnamic acid;α-Acetamidocinnamic acid;<em>N</em>-Acetyldehydrophenylalanine;2-Acetylamino-3-phenylacrylic acid;NSC 25333;2-Acetylamino-3-phenylprop-2-enoic acid;2-Acetamido-3-phenylprop-2-enoic acid",
    "duplicated_cas_no": "",
    "SMILES": "C(=CC1=CC=CC=C1)(NC(C)=O)C(O)=O",
    "meta_data": {
        "InChI": "InChI=1S/C11H11NO3/c1-8(13)12-10(11(14)15)7-9-5-3-2-4-6-9/h2-7H,1H3,(H,12,13)(H,14,15)",
        "InChIKey": null,
        "Canonical SMILES": "O=C(O)C(=CC=1C=CC=CC1)NC(=O)C",
        "Molecular Formula": "C<sub>11</sub>H<sub>11</sub>NO<sub>3</sub>",
        "Molecular Mass": "205.21",
        "Melting Point": "193-194 °C",
        "Density": "1.32 g/cm³"
    }
}