{
    "cas_no": "2721-22-4",
    "key_name": "δ-Tetradecalactone",
    "cn_name": "丁位十四内酯;delta-十四内酯;四氢-6-壬基-2H-吡喃-2-酮;",
    "alternate_name": "2<em>H</em>-Pyran-2-one, tetrahydro-6-nonyl-;Tetradecanoic acid, 5-hydroxy-, δ-lactone;Tetrahydro-6-nonyl-2<em>H</em>-pyran-2-one;5-Hydroxytetradecanoic acid δ-lactone;δ-Tetradecalactone;Tetradecanoic acid δ-lactone;δ-Nonyl-δ-valerolactone;δ-Tetradecane lactone;5-Tetradecanolide;δ-Tetradecanolactone;6-Nonyltetrahydro-2<em>H</em>-pyran-2-one",
    "duplicated_cas_no": "92446-06-5",
    "SMILES": "C(CCCCCCCC)C1OC(=O)CCC1",
    "meta_data": {
        "InChI": "InChI=1S/C14H26O2/c1-2-3-4-5-6-7-8-10-13-11-9-12-14(15)16-13/h13H,2-12H2,1H3",
        "InChIKey": null,
        "Canonical SMILES": "O=C1OC(CCC1)CCCCCCCCC",
        "Molecular Formula": "C<sub>14</sub>H<sub>26</sub>O<sub>2</sub>",
        "Molecular Mass": "226.35",
        "Boiling Point": "290 °C"
    }
}