{
    "cas_no": "101007-06-1",
    "key_name": "Acrinathrin",
    "cn_name": null,
    "alternate_name": "Cyclopropanecarboxylic acid, 2,2-dimethyl-3-[(1<em>Z</em>)-3-oxo-3-[2,2,2-trifluoro-1-(trifluoromethyl)ethoxy]-1-propen-1-yl]-, (<em>S</em>)-cyano(3-phenoxyphenyl)methyl ester, (1<em>R</em>,3<em>S</em>)-;Cyclopropanecarboxylic acid, 2,2-dimethyl-3-[3-oxo-3-[2,2,2-trifluoro-1-(trifluoromethyl)ethoxy]-1-propenyl]-, cyano(3-phenoxyphenyl)methyl ester, [1<em>R</em>-[1α(<em>S</em>*),3α(<em>Z</em>)]]-;Cyclopropanecarboxylic acid, 2,2-dimethyl-3-[(1<em>Z</em>)-3-oxo-3-[2,2,2-trifluoro-1-(trifluoromethyl)ethoxy]-1-propenyl]-, (<em>S</em>)-cyano(3-phenoxyphenyl)methyl ester, (1<em>R</em>,3<em>S</em>)-;Rufast;RU 38702;Acrinathrin;HOE 076003;NU 702;Ardent;Orytis;ACR 50;ACR 50 (pesticide)",
    "duplicated_cas_no": "",
    "SMILES": "C(O[C@H](C#N)C1=CC(OC2=CC=CC=C2)=CC=C1)(=O)[C@@H]3[C@H](/C=C\\C(OC(C(F)(F)F)C(F)(F)F)=O)C3(C)C",
    "meta_data": {
        "InChI": "InChI=1S/C26H21F6NO5/c1-24(2)18(11-12-20(34)38-23(25(27,28)29)26(30,31)32)21(24)22(35)37-19(14-33)15-7-6-10-17(13-15)36-16-8-4-3-5-9-16/h3-13,18-19,21,23H,1-2H3/b12-11-/t18-,19+,21-/m0/s1",
        "InChIKey": null,
        "Canonical SMILES": "N#CC(OC(=O)C1C(C=CC(=O)OC(C(F)(F)F)C(F)(F)F)C1(C)C)C=2C=CC=C(OC=3C=CC=CC3)C2",
        "Molecular Formula": "C<sub>26</sub>H<sub>21</sub>F<sub>6</sub>NO<sub>5</sub>",
        "Molecular Mass": "541.44",
        "Melting Point": "81.5 °C"
    }
}