{
    "cas_no": "372-38-3",
    "key_name": "1,3,5-Trifluorobenzene",
    "cn_name": "1,3,5-三氟苯;",
    "alternate_name": "Benzene, 1,3,5-trifluoro-;1,3,5-Trifluorobenzene;<em>sym</em>-Trifluorobenzene;NSC 10264",
    "duplicated_cas_no": "",
    "SMILES": "FC1=CC(F)=CC(F)=C1",
    "meta_data": {
        "InChI": "InChI=1S/C6H3F3/c7-4-1-5(8)3-6(9)2-4/h1-3H",
        "InChIKey": null,
        "Canonical SMILES": "FC=1C=C(F)C=C(F)C1",
        "Molecular Formula": "C<sub>6</sub>H<sub>3</sub>F<sub>3</sub>",
        "Molecular Mass": "132.08",
        "Boiling Point": "75.5 °C",
        "Melting Point": "-5.5 °C",
        "Density": "1.277 g/cm³ @ Temp: 20 °C"
    }
}