{
    "cas_no": "2140-61-6",
    "key_name": "5-Methylcytidine",
    "cn_name": "5-甲基胞苷;5-甲基胞苷;",
    "alternate_name": "Cytidine, 5-methyl-;5-Methylcytidine;NSC 363933;3: PN: US20060035254 PAGE: 63 claimed sequence",
    "duplicated_cas_no": "",
    "SMILES": "O[C@H]1[C@@H](O[C@H](CO)[C@H]1O)N2C(=O)N=C(N)C(C)=C2",
    "meta_data": {
        "InChI": "InChI=1S/C10H15N3O5/c1-4-2-13(10(17)12-8(4)11)9-7(16)6(15)5(3-14)18-9/h2,5-7,9,14-16H,3H2,1H3,(H2,11,12,17)/t5-,6-,7-,9-/m1/s1",
        "InChIKey": null,
        "Canonical SMILES": "O=C1N=C(N)C(=CN1C2OC(CO)C(O)C2O)C",
        "Molecular Formula": "C<sub>10</sub>H<sub>15</sub>N<sub>3</sub>O<sub>5</sub>",
        "Molecular Mass": "257.24",
        "Melting Point": "213 °C (decomp)"
    }
}