{
    "cas_no": "614-99-3",
    "key_name": "Ethyl 2-furoate",
    "cn_name": "2-糠酸乙酯;",
    "alternate_name": "2-Furancarboxylic acid, ethyl ester;2-Furoic acid, ethyl ester;2-Carboethoxyfuran;Ethyl pyromucate;Ethyl 2-furancarboxylate;Ethyl 2-furoate;Ethyl 2-furylcarboxylate;2-(Ethoxycarbonyl)furan;Ethyl α-furoate;NSC 2304",
    "duplicated_cas_no": "",
    "SMILES": "C(OCC)(=O)C1=CC=CO1",
    "meta_data": {
        "InChI": "InChI=1S/C7H8O3/c1-2-9-7(8)6-4-3-5-10-6/h3-5H,2H2,1H3",
        "InChIKey": null,
        "Canonical SMILES": "O=C(OCC)C=1OC=CC1",
        "Molecular Formula": "C<sub>7</sub>H<sub>8</sub>O<sub>3</sub>",
        "Molecular Mass": "140.14",
        "Boiling Point": "196.8 °C",
        "Melting Point": "34.5 °C"
    }
}