{
    "cas_no": "20389-05-3",
    "key_name": "2-(4-Methylphenyl)-4-quinolinecarboxylic acid",
    "cn_name": null,
    "alternate_name": "4-Quinolinecarboxylic acid, 2-(4-methylphenyl)-;Cinchoninic acid, 2-<em>p</em>-tolyl-;Cinchophen, 4′-methyl-;2-(4-Methylphenyl)-4-quinolinecarboxylic acid;2-(4-Methylphenyl)quinoline-4-carboxylic acid;2-(4′-Methylphenyl)quinoline-4-carboxylic acid",
    "duplicated_cas_no": "",
    "SMILES": "C(O)(=O)C=1C2=C(N=C(C1)C3=CC=C(C)C=C3)C=CC=C2",
    "meta_data": {
        "InChI": "InChI=1S/C17H13NO2/c1-11-6-8-12(9-7-11)16-10-14(17(19)20)13-4-2-3-5-15(13)18-16/h2-10H,1H3,(H,19,20)",
        "InChIKey": null,
        "Canonical SMILES": "O=C(O)C1=CC(=NC=2C=CC=CC21)C=3C=CC(=CC3)C",
        "Molecular Formula": "C<sub>17</sub>H<sub>13</sub>NO<sub>2</sub>",
        "Molecular Mass": "263.29",
        "Melting Point": "211 °C"
    }
}