{
    "cas_no": "79-52-7",
    "key_name": "1,1,3-Trichlorotrifluoroacetone",
    "cn_name": "1,1,3-三氯三氟丙酮;1,1,3-三氯-1,3,3-三氟丙酮;",
    "alternate_name": "2-Propanone, 1,1,3-trichloro-1,3,3-trifluoro-;1,1,3-Trichloro-1,3,3-trifluoro-2-propanone;1,1,3-Trichlorotrifluoroacetone;1,1,3-Trifluoro-1,3,3-trichloroacetone;1,3,3-Trichloro-1,1,3-trifluoroacetone;1,1,3-Trichloro-1,3,3-trifluoroacetone;1,1,3-Trichlorotrifluoropropan-2-one;NSC 73469",
    "duplicated_cas_no": "",
    "SMILES": "C(C(Cl)(Cl)F)(C(Cl)(F)F)=O",
    "meta_data": {
        "InChI": "InChI=1S/C3Cl3F3O/c4-2(5,7)1(10)3(6,8)9",
        "InChIKey": null,
        "Canonical SMILES": "O=C(C(F)(F)Cl)C(F)(Cl)Cl",
        "Molecular Formula": "C<sub>3</sub>Cl<sub>3</sub>F<sub>3</sub>O",
        "Molecular Mass": "215.39",
        "Boiling Point": "84.2 °C"
    }
}