{
    "cas_no": "363-47-3",
    "key_name": "3,5-Difluoro-4-methoxyaniline",
    "cn_name": "3,5-二氟-4-甲氧基苯胺;",
    "alternate_name": "Benzenamine, 3,5-difluoro-4-methoxy-;<em>p</em>-Anisidine, 3,5-difluoro-;3,5-Difluoro-4-methoxybenzenamine;3,5-Difluoro-4-methoxyaniline",
    "duplicated_cas_no": "",
    "SMILES": "O(C)C1=C(F)C=C(N)C=C1F",
    "meta_data": {
        "InChI": "InChI=1S/C7H7F2NO/c1-11-7-5(8)2-4(10)3-6(7)9/h2-3H,10H2,1H3",
        "InChIKey": null,
        "Canonical SMILES": "FC=1C=C(N)C=C(F)C1OC",
        "Molecular Formula": "C<sub>7</sub>H<sub>7</sub>F<sub>2</sub>NO",
        "Molecular Mass": "159.13",
        "Boiling Point": "80 °C @ Press: 0.1 Torr",
        "Melting Point": "78.5-79 °C"
    }
}