{
    "cas_no": "61036-62-2",
    "key_name": "Teicoplanin",
    "cn_name": "替考拉宁;",
    "alternate_name": "Teicoplanin;Teichomycin;Antibiotic 8327A;MDL 507;Antibiotic MDL 507;Targocid;Targosid;MeSH ID: D017334",
    "duplicated_cas_no": "95508-19-3",
    "SMILES": "",
    "meta_data": {
        "InChI": "",
        "InChIKey": null,
        "Canonical SMILES": "",
        "Molecular Formula": "Unspecified",
        "Molecular Mass": "",
        "Melting Point": "310 °C (decomp)"
    }
}