{
    "uri": "substance/pt/61036622",
    "rn": "61036-62-2",
    "name": "Teicoplanin",
    "images": [],
    "inchi": "",
    "inchiKey": "",
    "smile": "",
    "canonicalSmile": "",
    "molecularFormula": "Unspecified",
    "molecularMass": "",
    "experimentalProperties": [
        {
            "name": "Melting Point",
            "property": "310 °C (decomp)",
            "sourceNumber": 1
        }
    ],
    "propertyCitations": [
        {
            "docUri": "document/pt/document/6024675",
            "sourceNumber": 1,
            "source": "Matsuo, Toshiyasu; Kagaku Ryoho no Ryoiki, (1998), 14(12), 2180-2182, CAplus"
        }
    ],
    "synonyms": [
        "Teicoplanin",
        "Teichomycin",
        "Antibiotic 8327A",
        "MDL 507",
        "Antibiotic MDL 507",
        "Targocid",
        "Targosid",
        "MeSH ID: D017334"
    ],
    "replacedRns": [
        "95508-19-3"
    ],
    "hasMolfile": false,
    "source": "https://commonchemistry.cas.org/detail?cas_rn=61036-62-2"
}