{
    "cas_no": "1314-41-6",
    "key_name": "Lead oxide (Pb<sub>3</sub>O<sub>4</sub>)",
    "cn_name": "四氧化三铅;红丹;",
    "alternate_name": "Lead oxide (Pb<sub>3</sub>O<sub>4</sub>);C.I. 77578;C.I. Pigment Red 105;Gold Satinobre;Lead orthoplumbate;Lead oxide red;Lead tetroxide;Mineral Orange;Mineral red;Minium;Minium Non-Setting RL 95;Orange Lead;Paris Red;Sandix;Saturn Red;Red lead;Minium red;Trilead tetroxide;Red lead oxide (Pb<sub>3</sub>O<sub>4</sub>);Trilead tetraoxide;Lead tetraoxide;Lead oxide;Mennige;Red lead oxide;Lead oxide (3:4);Pigment Red 105;Heuconin 5;Minium (Pb<sub>3</sub>O<sub>4</sub>);Red lead (pigment);Azarcon;Entan;Flowsperse R 12;Kremer 42500;Lead minium;PAB 1631;Hongdon;Zuoshi T 97;T 97",
    "duplicated_cas_no": "12684-34-3;940949-96-2",
    "SMILES": "",
    "meta_data": {
        "InChI": "",
        "InChIKey": null,
        "Canonical SMILES": "",
        "Molecular Formula": "O<sub>4</sub>Pb<sub>3</sub>",
        "Molecular Mass": "",
        "Melting Point": "500 °C (decomp)",
        "Density": "9.1 g/cm³"
    }
}