{
    "uri": "substance/pt/1314416",
    "rn": "1314-41-6",
    "name": "Lead oxide (Pb<sub>3</sub>O<sub>4</sub>)",
    "images": [],
    "inchi": "",
    "inchiKey": "",
    "smile": "",
    "canonicalSmile": "",
    "molecularFormula": "O<sub>4</sub>Pb<sub>3</sub>",
    "molecularMass": "",
    "experimentalProperties": [
        {
            "name": "Melting Point",
            "property": "500 °C (decomp)",
            "sourceNumber": 1
        },
        {
            "name": "Density",
            "property": "9.1 g/cm³",
            "sourceNumber": 2
        }
    ],
    "propertyCitations": [
        {
            "docUri": "",
            "sourceNumber": 1,
            "source": "International Chemical Safety Cards data were obtained from the National Institute for Occupational Safety and Health (US)"
        },
        {
            "docUri": "",
            "sourceNumber": 2,
            "source": "Hazardous Substances Data Bank data were obtained from the National Library of Medicine (US)"
        }
    ],
    "synonyms": [
        "Lead oxide (Pb<sub>3</sub>O<sub>4</sub>)",
        "C.I. 77578",
        "C.I. Pigment Red 105",
        "Gold Satinobre",
        "Lead orthoplumbate",
        "Lead oxide red",
        "Lead tetroxide",
        "Mineral Orange",
        "Mineral red",
        "Minium",
        "Minium Non-Setting RL 95",
        "Orange Lead",
        "Paris Red",
        "Sandix",
        "Saturn Red",
        "Red lead",
        "Minium red",
        "Trilead tetroxide",
        "Red lead oxide (Pb<sub>3</sub>O<sub>4</sub>)",
        "Trilead tetraoxide",
        "Lead tetraoxide",
        "Lead oxide",
        "Mennige",
        "Red lead oxide",
        "Lead oxide (3:4)",
        "Pigment Red 105",
        "Heuconin 5",
        "Minium (Pb<sub>3</sub>O<sub>4</sub>)",
        "Red lead (pigment)",
        "Azarcon",
        "Entan",
        "Flowsperse R 12",
        "Kremer 42500",
        "Lead minium",
        "PAB 1631",
        "Hongdon",
        "Zuoshi T 97",
        "T 97"
    ],
    "replacedRns": [
        "12684-34-3",
        "940949-96-2"
    ],
    "hasMolfile": false,
    "source": "https://commonchemistry.cas.org/detail?cas_rn=1314-41-6"
}