{
    "cas_no": "13434-12-3",
    "key_name": "<em>N</em>-(3-Methylbutyl)acetamide",
    "cn_name": null,
    "alternate_name": "Acetamide, <em>N</em>-(3-methylbutyl)-;Acetamide, <em>N</em>-isopentyl-;<em>N</em>-(3-Methylbutyl)acetamide;<em>N</em>-Isoamylacetamide;NSC 156656;<em>N</em>-Isopentylacetamide",
    "duplicated_cas_no": "",
    "SMILES": "C(CC(C)C)NC(C)=O",
    "meta_data": {
        "InChI": "InChI=1S/C7H15NO/c1-6(2)4-5-8-7(3)9/h6H,4-5H2,1-3H3,(H,8,9)",
        "InChIKey": null,
        "Canonical SMILES": "O=C(NCCC(C)C)C",
        "Molecular Formula": "C<sub>7</sub>H<sub>15</sub>NO",
        "Molecular Mass": "129.20",
        "Boiling Point": "220-224 °C"
    }
}