{
    "cas_no": "70591-20-7",
    "key_name": "[(Diphenylmethylene)amino]acetonitrile",
    "cn_name": "二苯亚甲基氨基乙腈;",
    "alternate_name": "Acetonitrile, 2-[(diphenylmethylene)amino]-;Acetonitrile, [(diphenylmethylene)amino]-;2-[(Diphenylmethylene)amino]acetonitrile;[(Diphenylmethylene)amino]acetonitrile;Diphenylmethyleniminoacetonitrile;[(Diphenylmethylene)amino]methyl cyanide;(Benzhydrylideneamino)acetonitrile;2-(Benzhydrylideneamino)acetonitrile;2-[(Diphenylmethylidene)amino]acetonitrile",
    "duplicated_cas_no": "",
    "SMILES": "C(=NCC#N)(C1=CC=CC=C1)C2=CC=CC=C2",
    "meta_data": {
        "InChI": "InChI=1S/C15H12N2/c16-11-12-17-15(13-7-3-1-4-8-13)14-9-5-2-6-10-14/h1-10H,12H2",
        "InChIKey": null,
        "Canonical SMILES": "N#CCN=C(C=1C=CC=CC1)C=2C=CC=CC2",
        "Molecular Formula": "C<sub>15</sub>H<sub>12</sub>N<sub>2</sub>",
        "Molecular Mass": "220.27",
        "Melting Point": "83-84 °C"
    }
}