{
    "cas_no": "2210-25-5",
    "key_name": "<em>N</em>-Isopropylacrylamide",
    "cn_name": "N-异丙基丙烯酰胺;",
    "alternate_name": "2-Propenamide, <em>N</em>-(1-methylethyl)-;Acrylamide, <em>N</em>-isopropyl-;<em>N</em>-(1-Methylethyl)-2-propenamide;<em>N</em>-Isopropylacrylamide;NIPAM;Isopropylacrylamide;<em>N</em>-Isopropylpropenamide;NSC 11448;NIPAAm;2-Propenoic acid, (1-methylethyl)azanyl ester;Kohshylmer NIPAM",
    "duplicated_cas_no": "1254182-74-5;1622299-95-9;2083612-24-0",
    "SMILES": "C(NC(C)C)(C=C)=O",
    "meta_data": {
        "InChI": "InChI=1S/C6H11NO/c1-4-6(8)7-5(2)3/h4-5H,1H2,2-3H3,(H,7,8)",
        "InChIKey": null,
        "Canonical SMILES": "O=C(C=C)NC(C)C",
        "Molecular Formula": "C<sub>6</sub>H<sub>11</sub>NO",
        "Molecular Mass": "113.16",
        "Boiling Point": "85-88 °C @ Press: 1 Torr",
        "Melting Point": "60 °C"
    }
}