{
    "cas_no": "575-37-1",
    "key_name": "1,7-Dimethylnaphthalene",
    "cn_name": null,
    "alternate_name": "Naphthalene, 1,7-dimethyl-;1,7-Dimethylnaphthalene;NSC 60773",
    "duplicated_cas_no": "",
    "SMILES": "CC=1C2=C(C=CC(C)=C2)C=CC1",
    "meta_data": {
        "InChI": "InChI=1S/C12H12/c1-9-6-7-11-5-3-4-10(2)12(11)8-9/h3-8H,1-2H3",
        "InChIKey": null,
        "Canonical SMILES": "C1=CC2=CC=C(C=C2C(=C1)C)C",
        "Molecular Formula": "C<sub>12</sub>H<sub>12</sub>",
        "Molecular Mass": "156.22",
        "Boiling Point": "263 °C",
        "Melting Point": "-13.9 °C",
        "Density": "1.0115 g/cm³ @ Temp: 20 °C"
    }
}