{
    "cas_no": "17201-87-5",
    "key_name": "3-(Chloromethyl)-1,1,1,3,5,5,5-heptamethyltrisiloxane",
    "cn_name": null,
    "alternate_name": "Trisiloxane, 3-(chloromethyl)-1,1,1,3,5,5,5-heptamethyl-;3-(Chloromethyl)-1,1,1,3,5,5,5-heptamethyltrisiloxane;3-(Chloromethyl)-1,1,1,3,5,5-heptamethyltrisiloxane",
    "duplicated_cas_no": "",
    "SMILES": "[Si](O[Si](C)(C)C)(O[Si](C)(C)C)(CCl)C",
    "meta_data": {
        "InChI": "InChI=1S/C8H23ClO2Si3/c1-12(2,3)10-14(7,8-9)11-13(4,5)6/h8H2,1-7H3",
        "InChIKey": null,
        "Canonical SMILES": "ClC[Si](O[Si](C)(C)C)(O[Si](C)(C)C)C",
        "Molecular Formula": "C<sub>8</sub>H<sub>23</sub>ClO<sub>2</sub>Si<sub>3</sub>",
        "Molecular Mass": "270.98",
        "Boiling Point": "185-186 °C",
        "Melting Point": "-85 °C",
        "Density": "0.918 g/cm³"
    }
}