{
    "cas_no": "6334-96-9",
    "key_name": "1,1′-Oxybis[4-chlorobutane]",
    "cn_name": "双(4-氯丁基)醚;",
    "alternate_name": "Butane, 1,1′-oxybis[4-chloro-;Ether, bis(4-chlorobutyl);1,1′-Oxybis[4-chlorobutane];Bis(4-chlorobutyl) ether;4,4′-Dichlorodibutyl ether;1,9-Dichloro-5-oxanonane;NSC 26978;4,4′-Dichlorobutyl ether;1-Chloro-4-(4-chlorobutoxy)butane",
    "duplicated_cas_no": "",
    "SMILES": "O(CCCCCl)CCCCCl",
    "meta_data": {
        "InChI": "InChI=1S/C8H16Cl2O/c9-5-1-3-7-11-8-4-2-6-10/h1-8H2",
        "InChIKey": null,
        "Canonical SMILES": "ClCCCCOCCCCCl",
        "Molecular Formula": "C<sub>8</sub>H<sub>16</sub>Cl<sub>2</sub>O",
        "Molecular Mass": "199.12",
        "Boiling Point": "125-128 °C @ Press: 12 Torr",
        "Density": "1.0747 g/cm³ @ Temp: 20 °C"
    }
}