{
    "cas_no": "979-02-2",
    "key_name": "Dehydropregnenolone acetate",
    "cn_name": "醋酸妊娠双烯醇酮酯;",
    "alternate_name": "Pregna-5,16-dien-20-one, 3-(acetyloxy)-, (3β)-;Pregna-5,16-dien-20-one, 3β-hydroxy-, acetate;(3β)-3-(Acetyloxy)pregna-5,16-dien-20-one;3β-Acetoxypregna-5,16-dien-20-one;16-Dehydropregnenolone acetate;3β-Acetoxypregna-5,16-diene-20-one;Dehydropregnenolone acetate;16,17-Didehydropregnenolone acetate;20-Oxopregna-5,16-dien-3β-yl acetate;Pregnadienolone acetate;(-)-16-Dehydropregnenolone acetate;16-DPA;NSC 37741;3β-Acetyloxy-pregna-5,16-dien-20-one;16-Dehydropregnenolone-3β-acetate",
    "duplicated_cas_no": "94042-43-0",
    "SMILES": "C[C@@]12[C@]([C@]3([C@](CC1)([C@]4(C)C(=CC3)C[C@@H](OC(C)=O)CC4)[H])[H])(CC=C2C(C)=O)[H]",
    "meta_data": {
        "InChI": "InChI=1S/C23H32O3/c1-14(24)19-7-8-20-18-6-5-16-13-17(26-15(2)25)9-11-22(16,3)21(18)10-12-23(19,20)4/h5,7,17-18,20-21H,6,8-13H2,1-4H3/t17-,18-,20-,21-,22-,23+/m0/s1",
        "InChIKey": null,
        "Canonical SMILES": "O=C(OC1CC2=CCC3C4CC=C(C(=O)C)C4(C)CCC3C2(C)CC1)C",
        "Molecular Formula": "C<sub>23</sub>H<sub>32</sub>O<sub>3</sub>",
        "Molecular Mass": "356.50",
        "Melting Point": "174 °C"
    }
}