{
    "cas_no": "20561-09-5",
    "key_name": "1,2-Diethyl 1,2-cyclopropanedicarboxylate",
    "cn_name": null,
    "alternate_name": "1,2-Cyclopropanedicarboxylic acid, 1,2-diethyl ester;1,2-Cyclopropanedicarboxylic acid, diethyl ester;1,2-Diethyl 1,2-cyclopropanedicarboxylate;Diethyl 1,2-cyclopropanedicarboxylate;NSC 122105",
    "duplicated_cas_no": "",
    "SMILES": "C(OCC)(=O)C1C(C(OCC)=O)C1",
    "meta_data": {
        "InChI": "InChI=1S/C9H14O4/c1-3-12-8(10)6-5-7(6)9(11)13-4-2/h6-7H,3-5H2,1-2H3",
        "InChIKey": null,
        "Canonical SMILES": "O=C(OCC)C1CC1C(=O)OCC",
        "Molecular Formula": "C<sub>9</sub>H<sub>14</sub>O<sub>4</sub>",
        "Molecular Mass": "186.21",
        "Boiling Point": "120-123 °C @ Press: 15 Torr",
        "Density": "1.057 g/cm³ @ Temp: 20 °C"
    }
}