{
    "cas_no": "53733-94-1",
    "key_name": "<em>N</em>-(3-Methoxy-3-oxopropyl)-<em>N</em>-phenyl-β-alanine methyl ester",
    "cn_name": "N,N-二甲氧基羰基乙基苯胺;N-(3-甲氧基-3-氧代丙基)-N-苯基-bata-丙氨酸甲酯;",
    "alternate_name": "β-Alanine, <em>N</em>-(3-methoxy-3-oxopropyl)-<em>N</em>-phenyl-, methyl ester;Propionic acid, 3,3′-(phenylimino)di-, dimethyl ester;<em>N</em>-(3-Methoxy-3-oxopropyl)-<em>N</em>-phenyl-β-alanine methyl ester;<em>N</em>,<em>N</em>-Bis[2-(methoxycarbonyl)ethyl]aniline;<em>N</em>,<em>N</em>-Di(β-methoxycarbonylethyl)aniline;<em>N</em>,<em>N</em>-Bis(2-methoxycarboxyethyl)aniline",
    "duplicated_cas_no": "1394301-00-8",
    "SMILES": "N(CCC(OC)=O)(CCC(OC)=O)C1=CC=CC=C1",
    "meta_data": {
        "InChI": "InChI=1S/C14H19NO4/c1-18-13(16)8-10-15(11-9-14(17)19-2)12-6-4-3-5-7-12/h3-7H,8-11H2,1-2H3",
        "InChIKey": null,
        "Canonical SMILES": "O=C(OC)CCN(C=1C=CC=CC1)CCC(=O)OC",
        "Molecular Formula": "C<sub>14</sub>H<sub>19</sub>NO<sub>4</sub>",
        "Molecular Mass": "265.30",
        "Melting Point": "52-54 °C"
    }
}