{
    "cas_no": "4206-67-1",
    "key_name": "(Iodomethyl)trimethylsilane",
    "cn_name": "碘甲基三甲基硅烷;(三甲基硅)甲基碘;",
    "alternate_name": "Silane, (iodomethyl)trimethyl-;(Iodomethyl)trimethylsilane;Trimethyl(iodomethyl)silane;Trimethylsilylmethyl iodide;Iodo(trimethylsilyl)methane;(Trimethylsilyl)iodomethane",
    "duplicated_cas_no": "",
    "SMILES": "[Si](CI)(C)(C)C",
    "meta_data": {
        "InChI": "InChI=1S/C4H11ISi/c1-6(2,3)4-5/h4H2,1-3H3",
        "InChIKey": null,
        "Canonical SMILES": "IC[Si](C)(C)C",
        "Molecular Formula": "C<sub>4</sub>H<sub>11</sub>ISi",
        "Molecular Mass": "214.12",
        "Boiling Point": "140-142 °C",
        "Melting Point": "137-141 °C",
        "Density": "1.441 g/cm³"
    }
}