{
    "cas_no": "85-39-2",
    "key_name": "5-Norbornene-2,3-dimethanol",
    "cn_name": "5-降冰片烯-2,3-二甲醇;",
    "alternate_name": "Bicyclo[2.2.1]hept-5-ene-2,3-dimethanol;5-Norbornene-2,3-dimethanol;2,3-Bis(hydroxymethyl)-5-norbornene;5,6-Bis(hydroxymethyl)bicyclo[2.2.1]hept-2-ene;NSC 31985;5,6-Di(hydroxymethyl)bicyclo[2.2.1]hept-2-ene;Bicyclo[2.2.1]hept-5-ene-2,3-dimethylol;[3-(Hydroxymethyl)bicyclo[2.2.1]hept-5-en-2-yl]methanol;[3-(Hydroxymethyl)-2-bicyclo[2.2.1]hept-5-enyl]methanol",
    "duplicated_cas_no": "",
    "SMILES": "C(O)C1C(CO)C2CC1C=C2",
    "meta_data": {
        "InChI": "InChI=1S/C9H14O2/c10-4-8-6-1-2-7(3-6)9(8)5-11/h1-2,6-11H,3-5H2",
        "InChIKey": null,
        "Canonical SMILES": "OCC1C2C=CC(C2)C1CO",
        "Molecular Formula": "C<sub>9</sub>H<sub>14</sub>O<sub>2</sub>",
        "Molecular Mass": "154.21",
        "Boiling Point": "144-162 °C @ Press: 6.5 Torr",
        "Melting Point": "82.8-83.4 °C"
    }
}