{
    "cas_no": "5728-20-1",
    "key_name": "3,4-Dichloro-1,2,5-thiadiazole",
    "cn_name": "3,4-二氯-1,2,5-噻二唑;",
    "alternate_name": "1,2,5-Thiadiazole, 3,4-dichloro-;3,4-Dichloro-1,2,5-thiadiazole;4,5-Dichloro-2,1,3-thiadiazole",
    "duplicated_cas_no": "",
    "SMILES": "ClC=1C(Cl)=NSN1",
    "meta_data": {
        "InChI": "InChI=1S/C2Cl2N2S/c3-1-2(4)6-7-5-1",
        "InChIKey": null,
        "Canonical SMILES": "ClC1=NSN=C1Cl",
        "Molecular Formula": "C<sub>2</sub>Cl<sub>2</sub>N<sub>2</sub>S",
        "Molecular Mass": "155.01",
        "Boiling Point": "85 °C @ Press: 82-85 Torr",
        "Density": "1.642 g/cm³ @ Temp: 25 °C"
    }
}