{
    "cas_no": "5284-66-2",
    "key_name": "1-Propanesulfonic acid",
    "cn_name": "1-丙磺酸;丙基磺酸;",
    "alternate_name": "1-Propanesulfonic acid;NSC 87882",
    "duplicated_cas_no": "",
    "SMILES": "C(S(=O)(=O)O)CC",
    "meta_data": {
        "InChI": "InChI=1S/C3H8O3S/c1-2-3-7(4,5)6/h2-3H2,1H3,(H,4,5,6)",
        "InChIKey": null,
        "Canonical SMILES": "O=S(=O)(O)CCC",
        "Molecular Formula": "C<sub>3</sub>H<sub>8</sub>O<sub>3</sub>S",
        "Molecular Mass": "124.16",
        "Boiling Point": "136 °C",
        "Melting Point": "7.5 °C",
        "Density": "1.2516 g/cm³ @ Temp: 25 °C"
    }
}