{
    "cas_no": "87-82-1",
    "key_name": "Hexabromobenzene",
    "cn_name": "六溴苯;",
    "alternate_name": "Benzene, 1,2,3,4,5,6-hexabromo-;Benzene, hexabromo-;1,2,3,4,5,6-Hexabromobenzene;Hexabromobenzene;Perbromobenzene;HBB;AFR 1001;FR-B;Plasafety HBB;HBB-S;NSC 113975;HBB (flame retardant);HBB-b",
    "duplicated_cas_no": "",
    "SMILES": "BrC1=C(Br)C(Br)=C(Br)C(Br)=C1Br",
    "meta_data": {
        "InChI": "InChI=1S/C6Br6/c7-1-2(8)4(10)6(12)5(11)3(1)9",
        "InChIKey": null,
        "Canonical SMILES": "BrC=1C(Br)=C(Br)C(Br)=C(Br)C1Br",
        "Molecular Formula": "C<sub>6</sub>Br<sub>6</sub>",
        "Molecular Mass": "551.49",
        "Melting Point": "327 °C"
    }
}