{
    "cas_no": "37687-24-4",
    "key_name": "1<em>H</em>-Pyrazole-3,5-dicarboxylic acid, 3,5-diethyl ester",
    "cn_name": "3,5-吡唑羧酸二乙酯;",
    "alternate_name": "1<em>H</em>-Pyrazole-3,5-dicarboxylic acid, 3,5-diethyl ester;1<em>H</em>-Pyrazole-3,5-dicarboxylic acid, diethyl ester;3,5-(Diethoxycarbonyl)-1<em>H</em>-pyrazole;Diethyl pyrazole-3,5-dicarboxylate;3,5-Pyrazoledicarboxylic acid diethyl ester;NSC 97126;Diethyl 1<em>H</em>-pyrazole-3,5-dicarboxylate;3,5-Diethyl 1<em>H</em>-pyrazole-3,5-dicarboxylate",
    "duplicated_cas_no": "",
    "SMILES": "C(OCC)(=O)C=1C=C(C(OCC)=O)NN1",
    "meta_data": {
        "InChI": "InChI=1S/C9H12N2O4/c1-3-14-8(12)6-5-7(11-10-6)9(13)15-4-2/h5H,3-4H2,1-2H3,(H,10,11)",
        "InChIKey": null,
        "Canonical SMILES": "O=C(OCC)C1=NNC(=C1)C(=O)OCC",
        "Molecular Formula": "C<sub>9</sub>H<sub>12</sub>N<sub>2</sub>O<sub>4</sub>",
        "Molecular Mass": "212.20",
        "Melting Point": "54-55 °C"
    }
}