{
    "cas_no": "376-84-1",
    "key_name": "1<em>H</em>,1<em>H</em>,5<em>H</em>-Octafluoropentyl acrylate",
    "cn_name": "丙烯酸八氟戊酯;2,2,3,3,4,4,5,5-八氟戊基丙烯酸酯;",
    "alternate_name": "2-Propenoic acid, 2,2,3,3,4,4,5,5-octafluoropentyl ester;Acrylic acid, 2,2,3,3,4,4,5,5-octafluoropentyl ester;1-Pentanol, 2,2,3,3,4,4,5,5-octafluoro-, acrylate;1<em>H</em>,1<em>H</em>,5<em>H</em>-Octafluoropentyl acrylate;1,1,5-Trihydroperfluoroamyl acrylate;2,2,3,3,4,4,5,5-Octafluoropentyl acrylate;1,1,5-Trihydrooctafluoropentyl acrylate;Viscoat 8F;FA 3;R 5410;FA 3 (ester);V 8F;1<em>H</em>,1<em>H</em>,5<em>H</em>-Perfluoropentyl acrylate;2,2,3,3,4,4,5,5-Octafluoropentyl prop-2-enoate;O 0318",
    "duplicated_cas_no": "88007-50-5;136990-26-6;2093331-50-9",
    "SMILES": "C(C(C(F)F)(F)F)(C(COC(C=C)=O)(F)F)(F)F",
    "meta_data": {
        "InChI": "InChI=1S/C8H6F8O2/c1-2-4(17)18-3-6(11,12)8(15,16)7(13,14)5(9)10/h2,5H,1,3H2",
        "InChIKey": null,
        "Canonical SMILES": "O=C(OCC(F)(F)C(F)(F)C(F)(F)C(F)F)C=C",
        "Molecular Formula": "C<sub>8</sub>H<sub>6</sub>F<sub>8</sub>O<sub>2</sub>",
        "Molecular Mass": "286.12",
        "Boiling Point": "69-70 °C @ Press: 21 Torr",
        "Density": "1.432 g/cm³ @ Temp: 20 °C"
    }
}