{
    "cas_no": "157-03-9",
    "key_name": "6-Diazo-5-oxo-<span class=\"text-smallcaps\">L</span>-norleucine",
    "cn_name": "6-重氮-5-氧代-L-正亮氨酸;6-重氮-5-氧代-L-正亮氨酸;",
    "alternate_name": "<span class=\"text-smallcaps\">L</span>-Norleucine, 6-diazo-5-oxo-;Norleucine, 6-diazo-5-oxo-, <span class=\"text-smallcaps\">L</span>-;6-Diazo-5-oxo-<span class=\"text-smallcaps\">L</span>-norleucine;DON;NSC 7365;DON (pharmaceutical);<span class=\"text-smallcaps\">L</span>-DON;<span class=\"text-smallcaps\">L</span>-6-Diazo-5-oxonorleucine;(2S)-2-Amino-6-diazo-5-oxohexanoic acid",
    "duplicated_cas_no": "543-31-7;15440-70-7;945678-45-5;2180165-45-9",
    "SMILES": "C(C[C@@H](C(O)=O)N)C(C=[N+]=[N-])=O",
    "meta_data": {
        "InChI": "InChI=1S/C6H9N3O3/c7-5(6(11)12)2-1-4(10)3-9-8/h3,5H,1-2,7H2,(H,11,12)/t5-/m0/s1",
        "InChIKey": null,
        "Canonical SMILES": "[N-]=[N+]=CC(=O)CCC(N)C(=O)O",
        "Molecular Formula": "C<sub>6</sub>H<sub>9</sub>N<sub>3</sub>O<sub>3</sub>",
        "Molecular Mass": "",
        "Melting Point": "145-155 °C (decomp)"
    }
}