{
    "cas_no": "2071-20-7",
    "key_name": "Bis(diphenylphosphino)methane",
    "cn_name": "双二苯基膦甲烷;",
    "alternate_name": "Phosphine, 1,1′-methylenebis[1,1-diphenyl-;Phosphine, methylenebis[diphenyl-;1,1′-Methylenebis[1,1-diphenylphosphine];Methanediylbis[diphenylphosphine];Bis(diphenylphosphino)methane;Methylenebis[diphenylphosphine];Tetraphenylmethylenediphosphine;DPPM;DPPM (phosphine derivative);NSC 147767;1,1-Bis(diphenylphosphino)methane;[(Diphenylphosphanyl)methyl]diphenylphosphane",
    "duplicated_cas_no": "47543-40-8;1289556-79-1",
    "SMILES": "P(CP(C1=CC=CC=C1)C2=CC=CC=C2)(C3=CC=CC=C3)C4=CC=CC=C4",
    "meta_data": {
        "InChI": "InChI=1S/C25H22P2/c1-5-13-22(14-6-1)26(23-15-7-2-8-16-23)21-27(24-17-9-3-10-18-24)25-19-11-4-12-20-25/h1-20H,21H2",
        "InChIKey": null,
        "Canonical SMILES": "C=1C=CC(=CC1)P(C=2C=CC=CC2)CP(C=3C=CC=CC3)C=4C=CC=CC4",
        "Molecular Formula": "C<sub>25</sub>H<sub>22</sub>P<sub>2</sub>",
        "Molecular Mass": "384.39",
        "Melting Point": "159-161 °C"
    }
}