{
    "cas_no": "6294-52-6",
    "key_name": "5,6-Dimethoxy-2-benzothiazolamine",
    "cn_name": null,
    "alternate_name": "2-Benzothiazolamine, 5,6-dimethoxy-;Benzothiazole, 2-amino-5,6-dimethoxy-;5,6-Dimethoxy-2-benzothiazolamine;NSC 9444;SKA 17;5,6-Dimethoxybenzo[<em>d</em>]thiazol-2-amine",
    "duplicated_cas_no": "",
    "SMILES": "O(C)C=1C=C2C(=CC1OC)SC(N)=N2",
    "meta_data": {
        "InChI": "InChI=1S/C9H10N2O2S/c1-12-6-3-5-8(4-7(6)13-2)14-9(10)11-5/h3-4H,1-2H3,(H2,10,11)",
        "InChIKey": null,
        "Canonical SMILES": "N1=C(SC=2C=C(OC)C(OC)=CC12)N",
        "Molecular Formula": "C<sub>9</sub>H<sub>10</sub>N<sub>2</sub>O<sub>2</sub>S",
        "Molecular Mass": "210.25",
        "Melting Point": "138.9 °C"
    }
}