{
    "cas_no": "1132935-63-7",
    "key_name": "Dasabuvir",
    "cn_name": null,
    "alternate_name": "Methanesulfonamide, <em>N</em>-[6-[5-(3,4-dihydro-2,4-dioxo-1(2<em>H</em>)-pyrimidinyl)-3-(1,1-dimethylethyl)-2-methoxyphenyl]-2-naphthalenyl]-;<em>N</em>-[6-[5-(3,4-Dihydro-2,4-dioxo-1(2<em>H</em>)-pyrimidinyl)-3-(1,1-dimethylethyl)-2-methoxyphenyl]-2-naphthalenyl]methanesulfonamide;<em>N</em>-[6-[3-<em>tert</em>-Butyl-5-(2,4-dioxo-3,4-dihydropyrimidin-1(2<em>H</em>)-yl)-2-methoxyphenyl]naphthalen-2-yl]methanesulfonamide;Dasabuvir;ABT 333",
    "duplicated_cas_no": "1221573-79-0",
    "SMILES": "O(C)C1=C(C=C(C=C1C(C)(C)C)N2C(=O)NC(=O)C=C2)C3=CC4=C(C=C3)C=C(NS(C)(=O)=O)C=C4",
    "meta_data": {
        "InChI": "InChI=1S/C26H27N3O5S/c1-26(2,3)22-15-20(29-11-10-23(30)27-25(29)31)14-21(24(22)34-4)18-7-6-17-13-19(28-35(5,32)33)9-8-16(17)12-18/h6-15,28H,1-5H3,(H,27,30,31)",
        "InChIKey": null,
        "Canonical SMILES": "O=C1C=CN(C(=O)N1)C=2C=C(C3=CC=C4C=C(C=CC4=C3)NS(=O)(=O)C)C(OC)=C(C2)C(C)(C)C",
        "Molecular Formula": "C<sub>26</sub>H<sub>27</sub>N<sub>3</sub>O<sub>5</sub>S",
        "Molecular Mass": "493.57",
        "Melting Point": "219-223 °C"
    }
}