{
    "cas_no": "42487-09-2",
    "key_name": "<em>N</em>,<em>N</em>′-(2,5-Dichloro-1,4-phenylene)bis[3-oxobutanamide]",
    "cn_name": "双乙酰乙酰-2,5-二氯对苯二胺;",
    "alternate_name": "Butanamide, <em>N</em>,<em>N</em>′-(2,5-dichloro-1,4-phenylene)bis[3-oxo-;Acetoacetamide, <em>N</em>,<em>N</em>′-(2,5-dichloro-<em>p</em>-phenylene)bis-;<em>N</em>,<em>N</em>′-(2,5-Dichloro-1,4-phenylene)bis[3-oxobutanamide];2,5-Bis(acetoacetamido)-1,4-dichlorobenzene;2,5-Dichloro-1,4-bis(acetylacetamido)benzene;1,4-Bis(Acetoacetamido)-2,5-dichlorobenzene;NSC 166276",
    "duplicated_cas_no": "",
    "SMILES": "N(C(CC(C)=O)=O)C1=C(Cl)C=C(NC(CC(C)=O)=O)C(Cl)=C1",
    "meta_data": {
        "InChI": "InChI=1S/C14H14Cl2N2O4/c1-7(19)3-13(21)17-11-5-10(16)12(6-9(11)15)18-14(22)4-8(2)20/h5-6H,3-4H2,1-2H3,(H,17,21)(H,18,22)",
        "InChIKey": null,
        "Canonical SMILES": "O=C(NC1=CC(Cl)=C(C=C1Cl)NC(=O)CC(=O)C)CC(=O)C",
        "Molecular Formula": "C<sub>14</sub>H<sub>14</sub>Cl<sub>2</sub>N<sub>2</sub>O<sub>4</sub>",
        "Molecular Mass": "345.18",
        "Melting Point": "205-206 °C"
    }
}