{
    "cas_no": "306-83-2",
    "key_name": "2,2-Dichloro-1,1,1-trifluoroethane",
    "cn_name": "2,2-二氯-1,1,1-三氟乙烷;三氟二氯乙烷;",
    "alternate_name": "Ethane, 2,2-dichloro-1,1,1-trifluoro-;2,2-Dichloro-1,1,1-trifluoroethane;1,1-Dichloro-2,2,2-trifluoroethane;1,1,1-Trifluoro-2,2-dichloroethane;Dichloro(trifluoromethyl)methane;R 123;Freon 123;1,1,1-Trifluorodichloroethane;FC 123;CFC 123;Fron 123;HCFC 123;F 123;HFA 123;Solkane 123;F 123 (halocarbon);Khladon 123",
    "duplicated_cas_no": "",
    "SMILES": "C(C(Cl)Cl)(F)(F)F",
    "meta_data": {
        "InChI": "InChI=1S/C2HCl2F3/c3-1(4)2(5,6)7/h1H",
        "InChIKey": null,
        "Canonical SMILES": "FC(F)(F)C(Cl)Cl",
        "Molecular Formula": "C<sub>2</sub>HCl<sub>2</sub>F<sub>3</sub>",
        "Molecular Mass": "152.93",
        "Boiling Point": "27.82 °C",
        "Melting Point": "-107 °C",
        "Density": "1.4638 g/cm³ @ Temp: 25 °C"
    }
}