{
    "cas_no": "19060-15-2",
    "key_name": "4,4-Dimethoxy-1-butanamine",
    "cn_name": "4-氨基丁醛二甲基缩醛;4-氨基丁醛二甲缩醛;",
    "alternate_name": "1-Butanamine, 4,4-dimethoxy-;Butyraldehyde, 4-amino-, dimethyl acetal;Butylamine, 4,4-dimethoxy-;4,4-Dimethoxy-1-butanamine;4-Aminobutanal dimethyl acetal;4-Aminobutyraldehyde dimethyl acetal;4,4-Dimethoxybutylamine;4,4-Bis(methyloxy)butylamine;γ-Aminobutyraldehyde dimethyl acetal;4,4-Dimethoxybutanamine",
    "duplicated_cas_no": "",
    "SMILES": "C(CCCN)(OC)OC",
    "meta_data": {
        "InChI": "InChI=1S/C6H15NO2/c1-8-6(9-2)4-3-5-7/h6H,3-5,7H2,1-2H3",
        "InChIKey": null,
        "Canonical SMILES": "O(C)C(OC)CCCN",
        "Molecular Formula": "C<sub>6</sub>H<sub>15</sub>NO<sub>2</sub>",
        "Molecular Mass": "133.19",
        "Boiling Point": "76-77 °C @ Press: 18 Torr"
    }
}