{
    "cas_no": "80-38-6",
    "key_name": "4-Chlorophenyl benzenesulfonate",
    "cn_name": "1-丙炔基甘油醚;",
    "alternate_name": "Benzenesulfonic acid, 4-chlorophenyl ester;Benzenesulfonic acid, <em>p</em>-chlorophenyl ester;928;<em>p</em>-Chlorophenyl benzenesulfonate;CPBS;Fensone;Murvesco;PCBS;PCPBS;PCI;Fenson;4-Chlorophenyl benzenesulfonate;Aracid;Phenizon;Ovicide Seppic;NSC 406662;Fenizon",
    "duplicated_cas_no": "",
    "SMILES": "S(OC1=CC=C(Cl)C=C1)(=O)(=O)C2=CC=CC=C2",
    "meta_data": {
        "InChI": "InChI=1S/C12H9ClO3S/c13-10-6-8-11(9-7-10)16-17(14,15)12-4-2-1-3-5-12/h1-9H",
        "InChIKey": null,
        "Canonical SMILES": "O=S(=O)(OC1=CC=C(Cl)C=C1)C=2C=CC=CC2",
        "Molecular Formula": "C<sub>12</sub>H<sub>9</sub>ClO<sub>3</sub>S",
        "Molecular Mass": "268.72",
        "Melting Point": "62 °C",
        "Density": "1.33 g/cm³"
    }
}