{
    "cas_no": "78587-05-0",
    "key_name": "Hexythiazox",
    "cn_name": null,
    "alternate_name": "3-Thiazolidinecarboxamide, 5-(4-chlorophenyl)-<em>N</em>-cyclohexyl-4-methyl-2-oxo-, (4<em>R</em>,5<em>R</em>)-<em>rel</em>-;3-Thiazolidinecarboxamide, 5-(4-chlorophenyl)-<em>N</em>-cyclohexyl-4-methyl-2-oxo-, <em>trans</em>-;<em>rel</em>-(4<em>R</em>,5<em>R</em>)-5-(4-Chlorophenyl)-<em>N</em>-cyclohexyl-4-methyl-2-oxo-3-thiazolidinecarboxamide;Hexythiazox;Nissorun;NA 73;Trevi;Matacar;Calibre;Cesar;Ordoval;Savey;Savey PM;Hexygon;Zeldox;Onager;GWN 2106;Maiden;Maccomite",
    "duplicated_cas_no": "127758-03-6",
    "SMILES": "C[C@H]1[C@@H](SC(=O)N1C(NC2CCCCC2)=O)C3=CC=C(Cl)C=C3",
    "meta_data": {
        "InChI": "InChI=1/C17H21ClN2O2S/c1-11-15(12-7-9-13(18)10-8-12)23-17(22)20(11)16(21)19-14-5-3-2-4-6-14/h7-11,14-15H,2-6H2,1H3,(H,19,21)/t11-,15+/s2",
        "InChIKey": null,
        "Canonical SMILES": "O=C1SC(C2=CC=C(Cl)C=C2)C(N1C(=O)NC3CCCCC3)C",
        "Molecular Formula": "C<sub>17</sub>H<sub>21</sub>ClN<sub>2</sub>O<sub>2</sub>S",
        "Molecular Mass": "352.88",
        "Melting Point": "108 °C"
    }
}