{
    "cas_no": "604-33-1",
    "key_name": "Cholesteryl linoleate",
    "cn_name": "胆甾烯基亚油酸酯;胆甾醇亚油酸酯;",
    "alternate_name": "Cholest-5-en-3-ol (3β)-, 3-[(9<em>Z</em>,12<em>Z</em>)-9,12-octadecadienoate];Cholesterol, linoleate;Linoleic acid, cholesteryl ester;Cholest-5-en-3-ol (3β)-, 9,12-octadecadienoate, (<em>Z</em>,<em>Z</em>)-;Cholest-5-en-3-ol (3β)-, (9<em>Z</em>,12<em>Z</em>)-9,12-octadecadienoate;Cholesteryl linoleate;NSC 18183;Cholesterol ester 18:2;CE(18:2)",
    "duplicated_cas_no": "100339-48-8;126346-09-6;55102-87-9",
    "SMILES": "C[C@@]12[C@@]3([C@]([C@]4([C@](C)(CC3)[C@@]([C@@H](CCCC(C)C)C)(CC4)[H])[H])(CC=C1C[C@@H](OC(CCCCCCC/C=C\\C/C=C\\CCCCC)=O)CC2)[H])[H]",
    "meta_data": {
        "InChI": "InChI=1S/C45H76O2/c1-7-8-9-10-11-12-13-14-15-16-17-18-19-20-21-25-43(46)47-38-30-32-44(5)37(34-38)26-27-39-41-29-28-40(36(4)24-22-23-35(2)3)45(41,6)33-31-42(39)44/h11-12,14-15,26,35-36,38-42H,7-10,13,16-25,27-34H2,1-6H3/b12-11-,15-14-/t36-,38+,39+,40-,41+,42+,44+,45-/m1/s1",
        "InChIKey": null,
        "Canonical SMILES": "O=C(OC1CC2=CCC3C(CCC4(C)C(CCC34)C(C)CCCC(C)C)C2(C)CC1)CCCCCCCC=CCC=CCCCCC",
        "Molecular Formula": "C<sub>45</sub>H<sub>76</sub>O<sub>2</sub>",
        "Molecular Mass": "649.08",
        "Melting Point": "41-42.5 °C"
    }
}