{
    "cas_no": "109-02-4",
    "key_name": "4-Methylmorpholine",
    "cn_name": "N-甲基吗啡啉;N-甲基吗啉;",
    "alternate_name": "Morpholine, 4-methyl-;4-Methylmorpholine;<em>N</em>-Methylmorpholine;1-Methylmorpholine;NMM;NSC 9382;KL 21;Jeffcat NMM",
    "duplicated_cas_no": "205657-43-8",
    "SMILES": "CN1CCOCC1",
    "meta_data": {
        "InChI": "InChI=1S/C5H11NO/c1-6-2-4-7-5-3-6/h2-5H2,1H3",
        "InChIKey": null,
        "Canonical SMILES": "O1CCN(C)CC1",
        "Molecular Formula": "C<sub>5</sub>H<sub>11</sub>NO",
        "Molecular Mass": "101.15",
        "Boiling Point": "116 °C",
        "Density": "0.91406 g/cm³ @ Temp: 25.00 °C"
    }
}