{
    "cas_no": "552-57-8",
    "key_name": "Apigenin 7-<em>O</em>-rutinoside",
    "cn_name": null,
    "alternate_name": "4<em>H</em>-1-Benzopyran-4-one, 7-[[6-<em>O</em>-(6-deoxy-α-<span class=\"text-smallcaps\">L</smallcap>-mannopyranosyl)-β-<smallcap>D</span>-glucopyranosyl]oxy]-5-hydroxy-2-(4-hydroxyphenyl)-;Isorhoifolin;Flavone, 4′,5,7-trihydroxy-, 7-β-rutinoside;7-[[6-<em>O</em>-(6-Deoxy-α-<span class=\"text-smallcaps\">L</smallcap>-mannopyranosyl)-β-<smallcap>D</span>-glucopyranosyl]oxy]-5-hydroxy-2-(4-hydroxyphenyl)-4<em>H</em>-1-benzopyran-4-one;Apigenin 7-rutinoside;Apigenin 7-β-rutinoside;Apigenin 7-<em>O</em>-β-<span class=\"text-smallcaps\">D</smallcap>-glucopyranosyl-(6→1)-α-<smallcap>L</span>-rhamnopyranoside;5,7,4′-Trihydroxyflavone 7-<em>O</em>-rutinoside;Apigenin 7-<em>O</em>-rutinoside;Apigenin 7-<em>O</em>-α-<span class=\"text-smallcaps\">L</smallcap>-rhamnosyl-(1→6)-β-<smallcap>D</span>-glucopyranoside;Apigenin-7-<em>O</em>-β-<span class=\"text-smallcaps\">D</span>-rutinoside;Apigenin-7-O-gluco(6′-1′′′) rhamnoside;Apigenin 7-<em>O</em>-α-<span class=\"text-smallcaps\">L</smallcap>-rhamnopyranosyl-(1→6)-β-<smallcap>D</span>-glucopyranoside",
    "duplicated_cas_no": "",
    "SMILES": "O=C1C=2C(OC(=C1)C3=CC=C(O)C=C3)=CC(O[C@@H]4O[C@H](CO[C@H]5[C@H](O)[C@H](O)[C@@H](O)[C@H](C)O5)[C@@H](O)[C@H](O)[C@H]4O)=CC2O",
    "meta_data": {
        "InChI": "InChI=1S/C27H30O14/c1-10-20(31)22(33)24(35)26(38-10)37-9-18-21(32)23(34)25(36)27(41-18)39-13-6-14(29)19-15(30)8-16(40-17(19)7-13)11-2-4-12(28)5-3-11/h2-8,10,18,20-29,31-36H,9H2,1H3/t10-,18+,20-,21+,22+,23-,24+,25+,26+,27+/m0/s1",
        "InChIKey": null,
        "Canonical SMILES": "O=C1C=C(OC2=CC(OC3OC(COC4OC(C)C(O)C(O)C4O)C(O)C(O)C3O)=CC(O)=C12)C=5C=CC(O)=CC5",
        "Molecular Formula": "C<sub>27</sub>H<sub>30</sub>O<sub>14</sub>",
        "Molecular Mass": "578.52",
        "Melting Point": "262-264 °C"
    }
}