{
    "cas_no": "2199-59-9",
    "key_name": "1<em>H</em>-Pyrrole-3-carboxylic acid, 5-formyl-2,4-dimethyl-, ethyl ester",
    "cn_name": "2,4-二甲基-5-醛基-1H-吡咯-3-甲酸乙酯;",
    "alternate_name": "1<em>H</em>-Pyrrole-3-carboxylic acid, 5-formyl-2,4-dimethyl-, ethyl ester;Pyrrole-3-carboxylic acid, 5-formyl-2,4-dimethyl-, ethyl ester;Ethyl 2-formyl-3,5-dimethylpyrrole-4-carboxylate;Ethyl 5-formyl-2,4-dimethylpyrrole-3-carboxylate;Ethyl 2,4-dimethyl-5-formylpyrrole-3-carboxylate;2,4-Dimethyl-3-ethoxycarbonyl-5-formylpyrrole;5-Formyl-2,4-dimethyl-1<em>H</em>-pyrrole-3-carboxylic acid ethyl ester;NSC 13426;4-Ethoxycarbonyl-3,5-dimethylpyrrole-2-carboxaldehyde;Ethyl 5-formyl-2,4-dimethyl-1<em>H</em>-pyrrole-3-carboxylate",
    "duplicated_cas_no": "",
    "SMILES": "C(OCC)(=O)C=1C(C)=C(C=O)NC1C",
    "meta_data": {
        "InChI": "InChI=1S/C10H13NO3/c1-4-14-10(13)9-6(2)8(5-12)11-7(9)3/h5,11H,4H2,1-3H3",
        "InChIKey": null,
        "Canonical SMILES": "O=CC=1NC(=C(C(=O)OCC)C1C)C",
        "Molecular Formula": "C<sub>10</sub>H<sub>13</sub>NO<sub>3</sub>",
        "Molecular Mass": "195.22",
        "Melting Point": "165 °C"
    }
}