{
    "cas_no": "3435-27-6",
    "key_name": "6-(1,1-Dimethylethyl)-4-pyrimidinamine",
    "cn_name": null,
    "alternate_name": "4-Pyrimidinamine, 6-(1,1-dimethylethyl)-;Pyrimidine, 4-amino-6-<em>tert</em>-butyl-;6-(1,1-Dimethylethyl)-4-pyrimidinamine",
    "duplicated_cas_no": "",
    "SMILES": "C(C)(C)(C)C=1C=C(N)N=CN1",
    "meta_data": {
        "InChI": "InChI=1S/C8H13N3/c1-8(2,3)6-4-7(9)11-5-10-6/h4-5H,1-3H3,(H2,9,10,11)",
        "InChIKey": null,
        "Canonical SMILES": "N=1C=NC(=CC1N)C(C)(C)C",
        "Molecular Formula": "C<sub>8</sub>H<sub>13</sub>N<sub>3</sub>",
        "Molecular Mass": "151.21",
        "Melting Point": "170-171 °C"
    }
}