{
    "cas_no": "50548-45-3",
    "key_name": "1-Bromodibenzofuran",
    "cn_name": null,
    "alternate_name": "Dibenzofuran, 1-bromo-;1-Bromodibenzofuran;1-Bromodibenzo[<em>b</em>,<em>d</em>]furan;1-Bromodibenzo[b,d]furan",
    "duplicated_cas_no": "",
    "SMILES": "BrC1=C2C=3C(OC2=CC=C1)=CC=CC3",
    "meta_data": {
        "InChI": "InChI=1S/C12H7BrO/c13-9-5-3-7-11-12(9)8-4-1-2-6-10(8)14-11/h1-7H",
        "InChIKey": null,
        "Canonical SMILES": "BrC1=CC=CC=2OC=3C=CC=CC3C12",
        "Molecular Formula": "C<sub>12</sub>H<sub>7</sub>BrO",
        "Molecular Mass": "247.09",
        "Melting Point": "67 °C"
    }
}