{
    "cas_no": "16429-21-3",
    "key_name": "ε-Dodecalactone",
    "cn_name": null,
    "alternate_name": "2-Oxepanone, 7-hexyl-;Dodecanoic acid, 6-hydroxy-, ε-lactone;7-Hexyl-2-oxepanone;ε-Hydroxydodecanoic acid lactone;ε-Dodecalactone;ε-Hexyl-ε-caprolactone;6-Dodecanolide",
    "duplicated_cas_no": "142285-19-6",
    "SMILES": "C(CCCCC)C1OC(=O)CCCC1",
    "meta_data": {
        "InChI": "InChI=1S/C12H22O2/c1-2-3-4-5-8-11-9-6-7-10-12(13)14-11/h11H,2-10H2,1H3",
        "InChIKey": null,
        "Canonical SMILES": "O=C1OC(CCCC1)CCCCCC",
        "Molecular Formula": "C<sub>12</sub>H<sub>22</sub>O<sub>2</sub>",
        "Molecular Mass": "198.30",
        "Boiling Point": "130 °C @ Press: 1.6 Torr"
    }
}