{
    "cas_no": "471-34-1",
    "key_name": "Calcium carbonate",
    "cn_name": "碳酸钙;",
    "alternate_name": "Carbonic acid calcium salt (1:1);Calcium carbonate (CaCO<sub>3</sub>);Calcium carbonate (1:1);Allied Whiting;Calcene CO;Calcene NC;Calcene TM;Calofil B 1;Calofil E 2;Calofort T;Calopake F;Calopake H;Calopake FS;Calopake High Opacity;Calofort U;Caltec;Camel-TEX;CCC No. AA Oolitic;CCC G-White;Crystic Prefil S;DOMAR;Filtex White Base;Gilder's Whiting;Levigated Chalk;Marfil;Microcarb;Micromic CR 16;Non-Fer-Al;Prepared Chalk;Purecal;Purecal O;Purecal T;Purecal U;Purecal SC;Queensgate Whiting;Royal White Light;Smithko Kalkarb Whiting;Snow top;Sturcal D;Sturcal F;Sturcal H;Sturcal L;Sturcal M;Sturcal X;Sturcal LS;Super Multifex;Surfex MM;Surfil S;Suspenso;Velvetone;Vienna White;Whitcarb W;Witcarb;Witcarb P;Witcarb R;Witcarb RC;Witcarb Regular;York White;Winnofil S;Carbonic acid calcium salt;Chemcarb;Monocalcium carbonate;Vicron 25-11;Socal D;Calcium monocarbonate;Calofort U 50;Socal U 1;Socal P 2;Calopake PC;Socal U 1S2;Atomite;Aeromatt;NZ;NS (carbonate);Calcicoll;NS;Hakuenka CCR;Polcarb;CCR (carbonic acid);Akadama;Camel-Wite;Vicron 15-15;Vicron 41-8;Vicron 31-6;AX 363;RX 2557;RX 2558;RX 2559;MSK-G;Carbium;Carbium MM;Marblewhite 325;Socal E 2;Socal N 2;Socal N 2S1;Homocal D;Whica BA;Multiflex MM;Socal;Albacar 5970;Vicron;Kotamite;Supermite;Supercoat;Super-Pflex;Super SSS;Clefnon;Super 5S;Sylacauga 88B;Albaglos;NS 400;Tonaso;Duramite;Snowflake;Microwhite 25;MC-T;NCC 45;Silver W;SS 30 (carbonate);Brilliant 15;TP 222;NCC-P;Hakuenka O;Snowflake White;Carbital 90;Softon 1800;NS 200 (filler);NS 200;Stanwhite 500;C.I. Pigment White 18;Super 3S;Camel-Carb;N 43;N 34 (carbonate);P-Lite 700;PS 100 (carbonate);TP 121H;Tancal PC;KS 1500;Softon 1200;Softon 1500;KS 500;PS 100;MSK-V;ZG 301;Calmos;KS 2100;KS 1300;Albaglos SF;Vigot 15;Brilliant 1500;MSK-PO;MSK-K;NS 100 (carbonate);NS 100;Hakuenka DD;Toyofine TF-X;Super 1700;Red Ball;Hakuenka PZ;Super 1500;Tama Pearl TP 262;PZ (carbonate);PZ;Shipron A;Albacar;Pigment White 18;SS 30;Softon 2200;BF 200;Hakuenka R 06;Multiflex SC;Unibur 70;Calofil A 4;Dacote;Calofort S;Tancal 200;Tancal 100;Tama Pearl TP 121;Whiton B;Whiton SB;Whiton SSB;Whiton 1500;Whiton H;Whiton P 30;Whiton P 50;Whiton SO;Whiton S;Sunlight 800;NS 2500;P-Lite 500;T 130-2500;SS 50 (carbonate);SS 50;MSK-P;Whiton SS;Whiton 450;Hakuenka PX;SSB 100;Cal-light SA;MSK-C;Newlight F;Carusis P;Whiton P 10;Softon 1000;Calcium carbonate;Socal U 3;Kredafil RM 5;Kredafil 150 Extra;OA-A 1102;Super 2000;KS 1800;Os-Cal;R Jutan;Calseeds;TM 1 (filler);TM 1;Egri M 5;Neoanticid;Softon H;Sunlight 700;CCW;Albafil;K 250;Sunlight SL 700;TP 222HS;Cal-light A 7;BFK 200;GS 3;Calcium(2+) carbonate;C.I. 77220;Vigot 10;Tunex E;Cal-light KT;NN 500;KK 12;Kalfain 200;NS 1000;NS 2300;Kreta VH-II;Super SS;G 50 (carbonate);G 50;Gama-Sperse 80;Whiton;Whiton 310;Tama Pearl 222H;Tama Pearl TPK;Tama Pearl TP-CNC;Tama Pearl FCC;Caltrate;Posicarb CP 5P;BF 300;TP 121S;Super 4S;Opacimite;KC 30A;NA 600;NN 200;N 43 (carbonate);Calpin Y;LW 600;TNC-C 60;TNC-C 30;TNC-C 120;BF 2000;Novelight PP;NCC 410;Corocalso WS;Pficarbo H;BF 100 (carbonate);BF 100;Opacarb S;BSK 5;Tama Pearl TP 123CS;Enifant 15;Pficarbo S;Kalfain 200M;Hakuenka A;Whiton A 4;Stavigot 15A;N 34;Snowlite SS;M 300 (antiaggregant);M 300;Calseeds PL;Softon 3200;KK 13;LW 3000;Hakuenka AA;Softon 2600;Super S;Sunlight SL 1500;Clarcal 9125;NS 800;SS 80;Precipitated calcium carbonate;SST 40;HHQB 0401;KD 80;KD 1200;Kredafil RM 55;Tama Pearl HGA;TP-CPC;Viscolite U;TP 121;Nanox 30;SL 700;TP 121 (filler);Inteq B 641;Inteq B 647;TR 325;Nitorex 80;Calcitex 902;Whiscal;Hydrocurve K 9;Winnofil SPT Premium;Winnofil SPT;Winnofil SPM;FMT 90;ACE 25;Winnofil SP;Winnofil SPTB;MC Coat S 1;P 30;Escalon 2000;TP 121SDP;SM 14B;Pulpro 3;Milcarb;WO 30F;MC 5;Neolight SP;Tama Pearl TP 222HS;MC 5 (filler);Tama Pearl TP 222H;RS 400;Sealets 200;NSK 1;NCC 2310;Albaglos S;Lighton 22S;Lighton 200B10;Brilliant S 15;MC 1 (carbonate);PCX 850;Microna S 80B;Microna S 90HB;Microna S 93;Microna 3;Microna 7;SX 1000;NS 3000;SL 1000;Synthetic chalk;BF 200S;SL 1000 (carbonate);WS 1010;Whiton P 40;P 10;P 50;FQH 112;Nanox 20;Microrn 200;FMT 70;Lighton 100B10;Girulite 40;PV 3;PV 4;RO 40;PV 3 (carbonate);PV 4 (carbonate);Nitorex 23P;TP 221GS;TP 123CS;Whiscal AS 3;Inducarb 500;Inducarb 0000;NCC 1010;High Purity Calcium Carbonate CS;Sila Flex 3GC;GPR 325;Docal U 1S2-526;Kemipuron A;BKS 5;Socal 312N;Whiscal A;Carbital 50;Carbital 75;Marblend;MC-S 5;MC 1;Whiton 305;Cal-light AS;Cube 70AS;Cube 30AS;Durcal 5;NS 1000 (carbonate);CS 3N-D;D 002;D 002 (carbonate);Socal 90A;S-SSS;Snowcal 20;Snowcal 30;ED-III;B 1002;PP 2;PP 2 (carbonate);Viscolite R;EDS-D 10A;Kalfain 500;Iikaru 100;Calcie F 6401;Albacar LO;NA 1000;RL 06083;Socal N 4;Socal N 6;Omya 90;150B;Saxolith 2HE;WF 75;SL 300;Tums;Tums E-X;Newlight LL;Atomite SSA 2114;HC 90;Nitorex 90;Juraweiss Gelpsiegel;Lumi-Pearl DSN 30;ACE 35;Super S (carbonate);MD 2;NX 23PS;CPL 404;CPL 4106;Filmlink 2029;Ultrapaque;NS 80;NS 80 (carbonate);3N-A;Whiton SB Red;Mikhart 2;SL 2200;G 100;PO 320B10;Calcium Factor;G 100 (carbonate);TU 164;Microcal spa C 100;CS-D;N 2;Calseeds P;FMT 75;BS 32;Kotcal H;Calfort 3;BL 50;C 50;YS 34;Setacarb HG;MD 2 (carbonate);BL 50 (antacid);R 06;C 50 (carbonate);Kansui 50;RLO 6078;FilmLink 400;FilmLink 600;FL 2029;Whiton BF 300;Super 2300;N 35;N 35 (filler);Sunlight SL 2000;ED-V;PO 150B;PO Filler 150B;Albacar HO;Kansui 1224;PIO 1;Homocal DM;Kalfain 100;MP 555;Cube 30A;Iokal 5C;Iokal 10;Brilliant BR 15;Tama Pearl 121MC;Os-Cal (carbonate);Ultraflex H;S-Light 1200;SL 1500;SL 800;KCN 100;Tama Pearl 121;Omya UF;TP 123;Vigor-Cal;Carbital 95;GSP 40;Hakuenka U;CSK 5;ASK 5;PC;Marblemite;Oyster shell white;Gofun;Cube 70A;Hubercarb Q 6;Hydrocarb HG;M White;Hydrocarb CC;IF-H 80;IF 2T;Rectapur;Nanocoat S 23;Vicron 45-3;Hydrocarb 90ME;Nanocoat S 25;MAX 1180;KS 1800 (carbonate);Porecal;PGW;Whiton P 109;Multiflex MM 5961;Multifex MM;Jetcoat 30;Calcitec PGW-ED;PCC 1;Kalfain KS 1000;TP 100 (carbonate);Cube 18BHS;Cube 25BHS;NS 500;SP 150;Sunlight SL 2500;TP 100;Cube 13;NS 500 (carbonate);Carbilux;KR 6;Calcicoll W 7;KR 6 (filler);Specialize S;BSK 5D;CSK 5T;Novelight A;Hydrocarb 90M;Carbital 110;Socal 31;Filmlink 520;Nordkalk FC;Opacarb A 40;Calcicoll W 12;Cube 08;CS-C 3N;Lighton U 26;Porecal N;Whiton P 70;CHBE 13;Cube 70S;Cal-light 3A;ASK 5 (carbonate);Socal P 3;DP 80OG;KSS 1000;Omyacoat 80;PGW (carbonate);Omyacarb 40;Kurisuton SS;KFMT 95;Chem Q 325;NCC 110;PE 2155-56;PE 1947TCP;PE 1948TCP;PE 1949TC;PE 1950TC;Unica;MAX 2080;μ-Powder 3N;W-SBO;YM 80;Lighton 2600;Star Brand EC;MT 100;G 325;BR 15;NS 400N;Q 200 (carbonate);MT 100 (carbonate);CCR-B (carbonic acid);BRT 1500;Escalon 1500;Hakuenka CCR-B;Q 200;Sertuerner;Synko;TKF 65;E 45;E 80;Nanox 25A;Chooz;Calcichew;Mylanta Soothing Lozenges;Calcidia;Calcit;Cal-Sup;Children's Mylanta Upset Stomach Relief;E 45 (salt);E 80 (salt);MSK-A;Caltex 5;Caltex 7;NSK 100 (salt);Albafil DP 6095;μ-Powder 90;mu-Powder 90;M 90T;Calcimore;NSK 100;Snowcal 60;Tama Pearl 123CS;Gran Calcarb LL USP;Omyacarb 2BE;Supercoat 95;WF 70;Opacarb A 50;SCPE 200M;CS 3N-A;K 1;1A;1A (carbonate);Micro White 10;Hydrocarb 75F;Optifil 100T;Optifil JS;TP 121MS;Hubercarb Q;Hubercarb 325;Whiscal AS 4;Cube 03BHS;BRT 30;Albafil M;Albafil S;Vicality Albaglos;Calessence 300;FMT 95;Snowhite 3;KK 13 (carbonate);Omyacarb 3FL;Snowhite 12PT;Omyacarb UF-FL;FMT 65;Omyacarb 3;SCP 110;H 50ME;Snowlite 3S;Geotex TXS;Calshitec Brilliant 15;TR 352;Omyacarb 1AV;Omyacarb 3SA;Escalon 100;Escalon 1000;Escalon 1700;Escalon 200;Escalon 2200;Escalon 400;Escalon 600;Escalon 800;Escalon A;Escalon G 100;Escalon 100M;PC 700;CoverCarb 75;Hydrocarb HC 75;Albaglos XL;TNC-C 10;Georgia Marble 9;LAC 2000;PC 700 (filler);Omyacarb 6;Calofil 400;Calofil 100;Calofil 50;Precarb 800;Precarb 720;Arbitol 90;Hydrocarb C 60;Albafil L;Shipron B;Micro white 450;Kalcimat KO-M 1;Omyafilm 2SST-FL;PO 150B10;Kansui 70;Whiton S 3;Sunlight 300;Escalon 2300;Tama Pearl TP 22H;E 170;K 1 (carbonate);MKS-C;Omyacarb 2T-SA;PC 35;Socal 312;Sunlight SL 800;Optical HP;CoverCarb 60LV;CoverCarb 85;Omyacarb 1T;FMTOP 2A;FMTOP 5A;Sealets 700;Tama Pearl 123;Hydrocarb 50GU;PD 40;NW 200;MM 100D;Coral Brite FD;RO 40 (salt);Hydrocurve K 6;Hubercarb CS 40;Hubercarb CS 80;CS 40;CS 80;Carbital 60;CA 119;FMT 97;TPX 121;CoverCarb 60;LAC 1800;HC 60 (carbonate);Tama Pearl T 123;HC 60;Albacar PO;Vicality Light;Mallinckrodt 4052;Omyacal FG 6AZ;LL 15;Cal Carb OC PDR;Omyacal 4AZ;OC 10;WS 100 (carbonate);WS 100;Omyapure 35;MLT 2500C;MD 1074;Whiton CCR;NPCC 111;Omyacarb BP;Hydrocarb 70;Sunlight SL 100;Micro-White 100;Omyacarb 10ML;R Heavy Calcium Carbonate;LT 2500;Collocalso EX;SP 200;TPX 301;TP 221;B 1500;DSN 30;Calshitec Brilliant 1500;SP 200 (carbonate);Omya 5;P 39;Tama Pearl 221GS;P 39 (carbonate);P 5;Actiford 700;Camel-Cal;Camel-Cal ST;Turboplex;LS 5010;Nitorex 30P;SB Blue;TP 121-6S;Precarb 400;MC 35;BF 400;Safecarb;Calibrite OG;Vigot HT;SpheriCarb;Whiting KO;Socal U 1S1;Calcicell 30;Omyafilm 707;PS 35A;NC 2310;Scoralite 1B;Merck 2064;HC 60GG;Tama Pearl TP 121-7C;Kreda technical;CE(CL);Calcigloss GU;SPT;Collocalso MG;Covercarb HP;OP 2A;NA 1 (carbonate);K-CN;NA 1;KS 1300R;Baracarb;Super-Pflex MS;ED-X;ED-XX;Colloid 3000;Colloid 5000;ES;Omyacarb 5ML;Sankaru NA 150;Precarb 160G;Precarb 122VP;TNC 7BY;Carbital 115S;Carbital SV;Hydrocarb 2GU;Hydrocarb HO-LV;NPCCB 800;CA 1250;SP 100;Hydrocarb 50;A 30;TB 119;A 30 (carbonate);Hubercarb G 2GCC;PX;WH 90;FMT 100;Alcal UF 5;Hubercarb G 3T;T 200 (carbonate);NT 100;Pulpro 10;T 200;NT 100 (salt);WH 70;Microcarb LB 10T;Omyacarb 2VA;S 1500;EVA 315;EC 1;Shell Lime HPC;S 1500 (filler);Cube 50KAS;Cube 80KAS;Calofil 1000;Omyacarb 10AV;Omyacarb 400;NPCC 200SH;Calcicoll W 15;Ulmerweiss WL;Omyacarb 95T;LDR 2500;Cube 18BH;Omyacarb HO;NP 112;BL 910;HuberCal 250;Carbonic acid, calcium salt (1:1);Tama Pearl P 121;ViCALity Extra Light PCC;Omyacoat 400X-OM;Mamakaruso;Escalon E 11;PO 220B10;Omyacarb 3T;Omyacarb 4T;Adcal;Calcium 500;Socal P 2E;TP-S 010;Karumin ML;ED-SX;HuberCAL OSP 1000FG;PP 4;BT 3;SPXJ 2;PP 4 (filler);PCX;BT 3 (carbonate);Nitorex 23PS;Destab 95 AHD Ultra 250;Hydrocarb 120T;TNC-S 380;FMT 900;Socal 312S;Jetcoat MD 1093;Hakuenka CCR-S;GCC 90;Calcitec V 40;Carbital 97;Success 200S;Opacarb 40;WO 12;Brilliant 30;NS 2000 (carbonate);Calshitec Vigot 15;PO 180B10;Socal PCC 100;CC-A;Calessen A;NS 2000;CC-A (carbonate);ED-SIII;AS 3;NPCC 200;Socal 332V;MCC;BLR 2;Amazon Premium;Hydrocarb 95ME;CoverCarb 85ME;Microncal MC 120;Carbital 35;Hydrocarb 60ME;TP 221BM;Tama Pearl TP 121M7;LW 4000;Setacarb HG-ME;Covercarb 60ME;Omyasorb 7500;Starcarb;Lighton 4;Omyalite 90T;Omyalene 102M-OG;Optical HF;Avgil 128;Avgil 510;HIT 1000;Carcigross GU;SL 100;NPCC 112;Omyalite 60;Hydrocarb 75;Neolight SP-B;Neolight SP 150;Neolight ST-P;Neolight TPS;Neolight SA 100;Neolight SS;Shell Lime HT;Mikhart MU 12T;Yakusen White 7;ED 111;Sunlight SL 300;ED 1;Gerton 50;Opti-print 600;Vicron 45-3FG;Softon 1100;TP-SO 9;Carbocia 80;IIPC;Tama Pearl 111;Syncarb F 0474GO;Miconapaque HB;Setacarb K;K 250 (carbonate);Oji Ace B 21;Hydrocarb HO-ME;CS 3N-A30;FP 300;WS-K;Calseeds PL 10;Hubercarb Q 3;Omyacarb 1;Omya F 14960;YH 303;NPCCA 602;Opti-Cal Print 400;Carbopaque 90;TP 121BM;Albcar HO;Softon 2000;Omyabrite 1100OM;Velacarb;N 601;CCR-S (carbonic acid);N 601 (carbonate);TP 121-6C;Escalon 90;PolyMax HD;ES Powder;KFMT 90U;KFMT 95HS;Seta-K;Calpin F;Calcie F 2000;Calcie F 6402;Calcie F 9850;Calcigloss TN;EMforce;Opacarb A 60;Hubercarb G 3;Imerseal 50;Socal U 132;Hubercarb FG 1;Omyajet C 4440;Syncarb F 0474ON17;ImerCarb 2L;KFMT 95H;Toyo-White;Socal 312V;SL 220;Calmot UF;Calmote UF;DS-CFPCC;P 400;Hydrocarb 90GU;Setacarb HG-GU;HC 90GU;Hydrocarb V 70R240;HC 95ME;P 400 (carbonate);ViCALity Heavy PCC;Omyacarb 4;CC 5;J 13233;SR 450;Hydrocarb 60K;OM 5;Setacarb 60K;TW 300A;Setacarb ME;OM 5 (filler);H 90ME;Hydrocarb 90K;EMforce Bio;Superfil;Dreisacarb;Omya B 5260;Setacarb 80;GS 0;Magnum Fill SDL;Magnum Fill SD;Magnum Fill M;Magnum Gloss M;Thixo Carb 500;Thixo Carb 700;Thixo Carb 525;AFF 52C;Baiyanhua CC;Carbital 120;VPR 350ME;HD 2500;Granicalcium;Beatite;Hydrocarb 95GU;Hydrocarb HC 95GU;Hydrocarb HC 90GU;Omya 302;Tama Pearl 121-6S;Syncarb S-NY;Hydrocarb HO-G-NE;Omyafil 90;Inacarb 700;CC 2000;Tancal A;Micropowder 3N;CCR 603;Tancal B;Omyapure 35 LM-OG;Omyafilm 704;Micral 10;JF 107;YM 15;Hydrocarb 99AV;Camel Fine ST;BF 600;NZ (carbonate);Ultrabulk II;HTC (carbonate);HTC 20 (carbonate);Tama Pearl TP 121-6S;Micropowder 2R;MCA 3000;PS 15 (carbonate);HTC;HTC 20;Karufin 600;Triton 20T;ML 7;Nitorex 30PS;Calnex PN;Megafil 2000;YCC-FD;Tama Pearl TP 221GS;2HB;HT 1500;Kalfain YM 30;CC 1500;Whiton F;NA 1300;Omyacarb UF-SY;Omyacarb 2SV;Omyacarb 5SV;Sealets 500;K 2 (carbonate);K 2;Omyajet B 5260;Calessen P 2;Precarb 100;Hydrocarb HO-ME 65;SW 100;SW 150;ImerCarb 2XG;LW 350;MY 3667;Raiton A;SFT 2000;K 40;Nano-Cal NV-K 0117;T 2221BM;Carbital 60HS;Optical HB;K 40 (filler);Calcie F 9860;NPCCA 201;Calmaru SCS-M5;Carbital C 110;KSR 3500;Kansuisya A;Nanox 25;LDR-CA;HG 01;HG 01 (carbonate);NS 1000M;Fincarb 6002;Intracarb 60;RLO 7428;CoverCarb 35;Microcal 250;Escalon 100S;CA 109;Syncarb F 0474;Cube B;M 300J;Omyajet 5010;Omyacarb C 4440;Omya H-HO-MEA;Socal P 2V;Calcipur 2;Calcipur 5;VP-DA;Opacarb 3000;Microcarb 95;Syncarb F 3974GO;Covercarb 75ME;TP-NPF;Kalfain YM 15;CCR 2 (carbonic acid);G-Cal 200;Calcilit 4M;Omyacarb 1T-NJ;WX 6000E;Hydrocarb 90HS;Omyacarb BG 10;Kalfain N 2;Omyacoat 855KU;Lighton S 4;PW 18;QS 4;XP 01-8100;Hydrocarb 80;CC 700;Zhiyuan L 300;SCP 110 (carbonate);Stetacarb HG;GFP 101;Hydrocarb 60AV;Hydrocarb 95;QX 05;Pietra gentile;White IGV-IV;Kreda Ekstra 1;Neolight SP 300;K 7H3E4;Camel White;MC 120;BF 168A;Huber G 325;Hubercarb G 6;FMT 60;Caltex R;NPCCA 203;Carolith 0.2-0.5NP;Carolith 0.5-1.0NP;TP 121-7C;GX-GCC D 55;Beatite 12;Bealite 30;Carbilux 100;E 170i;Calcilit 8G;Polcarb 60;Calcilit 6G;CDP 70;Hubercarb Q 40-200;Hubercarb M 4;Syncarb S-PCC-IM;Nano-Cal NC-K 0117;Caltex RR;C 10;NA 300;Esen Calcite A 3;Carbital N 500;Carbital N 770;XWH-CCB;CCR 605;Hubercarb M 200;TP 121M7;SM 90;Hydrocarb OG;Hydrocarb HO-G-ME;NCC-V 2300;Uniflex SS;Snow White 6000;AC-MLT 03;L 250;TP 221-70GS;Excal 3;Nigtash 5;KKS 2500;CC 800;Tama Pearl TP 221-70GS;Omyacarb 5FL;Kansui 100;AC 325;AC 325 (carbonate);CoralBio PW;CC 1205;NPCC 103;CC 1000;S 3000;Polcarb 90;OCP 400;Tunex FF;Syncarb F 474;CC 75;200X;SX 60;CC 75 (pigment);GF 117;JF 117;Hydrocarb 60GU;CAN 602;TY 1030;HD 250;Maruo MC-K;Duramite 9578;Omyacarb 4LU;NCC-P 1000;CMS 6000;Setacarb ED;V-JAD 300;XF 6028;Toyolight TNC-S 360;Brilliant 115;Neolight SA 100G;FAXE 82;NS 600;Socal S 2E;Microcarb ST 10H;W 600;Kalfain KS 1000RS;OKYUMHWA-TSP;SCP 2010;Mikhart MU 17T;Somelite;Calcita M 325;KK 3000;Novelight 3T;QS 2 (carbonate);QS 2;TSS 100;Omyacarb N 50;Cube 20KA;Omyacarb 4HD;Omyaprime H 040GO;Omyajet C 4440GO;Omyajet B 5260GO;Omyajet 5020;FG-F 20;Microcarb 95T;Omyacarb F-FL;Hubercarb Q 1;Hicoat 810;GLC 1012C;Omyabond 520OM;Calcilit Extra;Picqua P 100;Filmlink 500;Barcroft CS 90;Omyacarb 12;CWS 20;G 60;Intracarb 60T;G 101;G 60 (carbonate);μ-Powder 2F;Ultra Carb 12;Ultra Carb 20;D 200 Whiting;CoverCarb 75GU;Omyajet 6000G;Pulprowhite 3;Pulprowhite 8;Sturcal FA 4046;Merk 2066;White Seal WS-K;Neolight SP 100;GT 610;SN 5300;SN 1225H;C 70;Omyafilm 764OM;C 70 (carbonate);UMS 100;Magnum Fill H 097;FMT-OP;VS 35;Hubercarb G 2T;Omyafilm 707OG;LD 400;LD 800;HTO 12;SN 7000;YK 1C;Socal E 2PH-EUR;Marble White 200;ZY 29;Calessence 1500;Tankaru;FSK 5;GSP 30;Kriston SS;NLY 201;HTO 8;PD 60;Profine 2;Hydrocarb 90AV;Neolight R 610;RM 1T;Omyacarb UFT-FL;Omyacarb BE;Calcene CC;Calcene CCR;Mikhart 40;Mikhart 65;Calatem C 16T;Tama Pearl TP 123HG;Tama Pearl TP-SO 10;Silver B;CC 1250;GR 300;DSN 5;XWH-P;TL-P 400;W 704;Filmtec 90HS;FMT 90HS;Whiton SB Blue;Calcene AA;Calcarb 3.5NT;700CC;Tama Pearl TP 221BM;Micral 1;Micral Opac Extra;Tama Pearl 221F;Tama Pearl TP 221F;F-FL;D 90;JF 1250;KSDM;Tama Pearl TP 111;C-L 501;XF 2600;NCC-A;TP 121MC;Omyalite 90OM;Omyalite 95T-OM;Kristone SS;Mikhart 10;Medusa Carb 18;NPCC-SL;Hubercarb Q 200;Dolocron 45-12A;2T-SA;NCC 201;Super-Pflex 100;XF 6018;TOR 2018;GCC 65;GCC 95;ST 2500;KJ 106;CL 8030;GCC 60;Calcilit 1G;Lighton 2200;Fluorocarb ST;LM 2200;C 2000;TS 7030;JF 800;GLC 1012;NCC 610;Wuquan 625C;625C;Omyacarb IT-AV;Omyacarb 60;LD 1000C;Omyalene 102M;KS 800;SN 1024;SN 1083;GF 110;GR 101;ML 5000;Omyacare S60;Granic 421;Mocalcium C 325;Omyacarb 3GZ;SPTL 1;NAC 270;Heavy calcium carbonate;TSS 30C;Opercab A 40;Calcit FN 20;Saxolith 40HE;ZG 203;Softon N 600;GCC 99;Socal NR 2;KLNM-S;XL 2511;OM 1T;KK 21;GPS 55;TA 1250;GF 168;DL 550;BF 408;BF 108;KKS101;Hydrocurve 60;BF 108 (carbonate);KKS 101;TA 1250 (carbonate);Reasorb 90;O 270;Precarb 724;D 95;CAH 6150;PL 10;CSI-M 250;CSI-M 1000;D 95 (pigment);Omyafilm 753OM;ImerCarb L;Nano-Cal P 1014;T 994L3;ML 1003;Hydrocarb H 95;LD 600;LD 200;NP-CW 1;LD 600 (carbonate);LD 200 (carbonate);RTT 21;Omyacarb 15VA;Setacarb 77K;Foamcarb 505W;ImerCarb 10;Microncal MC 35W;CC 500;Special Rise Super SS;Lithocarb GR 60;Imerys 10 White;No. 10 White;KKS 1250;Corocalusso EX;CACO-N 50;Durcal 51;SPSL 1;Nofacal 0/50;U 1S2;NC 60;PO 120B10;Kansui 1630;Omyacarb 2T-JI;2200LM;SCS-M 5;Omya 1HB;Omya 5HB;Omya 1T;ZY 725;NP-CW 2;ML 2800;CAN 6608;FL 520;Kalfain YM 23;YM 30;CCR 601;BZ 2600;VK-CaC 112-1;MJHF 1250;MJ-HXQG;MJ-NM 60;S-CCR 100;Carb 1T-OH;Synthetic calcite;Hubercarb G 35;FC 2;Hubercarb W 3N;MYJ 98;Silton 3200;FC 2 (carbonate);CAN 6606;Tama Pearl TP 121M;Tama Pearl TP 221B;Tama Pearl TP 121S;HY 8617;Socal 302;Omya 5T;Omyacarb 2T-UM;Calmaru;KS 8000;Omyacarb 5T;P 40;Imerys XCS CARB 120;HX 1500;XCS Carb 120;SMP 1510T;AC-MILT 04;HTO 10;GCC 70;CC 103;FP 1300;CC 325;Special Rice SSS;FMBA Plus 30632;HuberCal 150FG;GW 0401T;Capim RO;TH 2500;Omya Calcimatt AV;Softon BF 200S;Mikhart 1T;Micronic P;Brilliant 1500F;FMT 100YF;MM 100;Carbital NP;Carbilux FMT 100;PO 100B10;MJ-NM 90;UF 315;Xinxin UF 315;B 200;Socal N 2R;Carbocia 1300;Carbocia 310;Calcigloss IP;B 200 (carbonate);GS-TC 80;NPCC 501;TD 230;EV-E 006;Huber Q 1;ML 838;Omyacarb 10SJ;JH 807;HM 10LC;KC 3;KW 325;KC 325;ES 500;SPO 100;CaCO<sub>3</sub> (calcium carbonate);HX 2000;DL 500;LD 100;NAT-EDK 400;OM 10;B 202;LD 100 (carbonate);Naao 1048;HK 313;CCR 701;Omyacarb HC 65KA;Hubercarb G 325;Kalfain 200A;Kalfain 200S;Mikhart 5;Myanit 0-30;Myanit 0-200;Syncarb FS 240;Haize HF 501;DZ 1250;DZ 1290;K 200A;Microcarb 2T;CCS 18;Socal 92G;ImerCarb 3L;ImerCarb 5L;GCC 97;SP 3;Jinshan SP 3;KLNM-S 020;NCCP-1000;GR 608A;CS 4NA;LH 2200;ML 828;2T-JI;A 06;LM 2300;K 130;Zengsheng ZS 1;ZS 1;Omyacarb 5HB;GS 020;ACE 30;DH-TC 206;LC 1500;NC 60A;NAK 2108;K 130 (carbonate);SW 01;GF 2741;NL-QC 10;P 70;Calcit MX 30;SPM;CCR 4 (carbonic acid);Omya VS 35;CAN 6603;Shellstone MB 80;MC 35W;TP 121-5S;Snowwhite 12;Ampacet Pearl 2A;PCC-P;Calcium carbonate (Ca<sub>2</sub>(CO<sub>3</sub>));Mikhart MU 12;Mikhart 15;Carolith 0.1-0.5;Carolith 1.5-2.0;GS 6;GF 2000;GCC 98;Omyacarb 5JI;ZG 1250;G 1250;YF-E;NM 100 (carbonate);Omya Smartfill;Omya Smartfill 55-OM;Polycarb SB;Polycarb S;Polycarb 60S;Turkcarb 75X;Esen Kalsit A 3;NM 100;Softon 100;DF 200;SCP-E 110;DF 200 (carbonate);CC 801;CC 601;EG 806;YX 503;JD 4;Omyacarb CL;T 150;TC 806;MF 6103;FP 460;T 150 (carbonate);Omyalene SJ;5008A;A 1500;A 1500 (carbonate);WN 502;WN 503;VK-CaC 501;JD 6000Q;TH 703;G 3T;GR 102066;Albafil PCC;WN 101;Yinggeci M 400;FCC 302;QT 8812;M 400;Ulmer White XMF;NLY 101;WN 100;BR 56;BR 8;BR 29;BR 2;AC-MLT 04;BPL 2;Millicarb CL;Hydrocarb 60FL;Hydrocarb PG 3FL;LD 2500;GF 250;SPTL 2;KKS 161;adaCAL-N1-C;adaCAL-B1;R 50A;JX 1250;GF 1250;CAZ 2060;Calcium Meal 30;GAMACO;TC 1013;LM 2500;Jaifil PP 165SPL;CAC 03;Remind 15;S 1000;Mikhart C;LH 2300;SHC 300;1180TL;10CN;MLT 02;CCS 25;Hubercarb G 8;LD 1500;P-Lite 100;KS 80 (carbonate);Socal 2G13UF;LH 2800;Socal 2G31UF;NA 300T;TFGAX;Omyacarb 1T-CU;CC 1;CC 1 (carbonate);PT 4000;Calplex Extra T;PT 4000 (carbonate);D 1500A;CX 6;5CN;YR 1323;Barralev C;P 3 (calcium carbonate);NPCC 101;G 1750C;HX 1250;TY 2136;OM 1;ZG 800;MYF 538;SC 10000;MLT 1003;IADCCR;TG 0215;CMS 800;JS-M 4;CMS 8000;SD 90;Tancal TA 044;XFI 11-1;NPCC 602-2;C 1128;CM 6000;Omyacal 12AZ;BioGranic 3112;CM 6000 (carbonate);QT 8823;Hubercarb W 4;Calmast CM 360;T 201;Longtai T 201;FCC 300;YF 3125;Capret S;ZRJ 5;C 886288;Colloid 600TNA;JF 600;Atomfor S;CC 903;SL 002;CC 60;LE 8120;MLT 818;SX 306B;MLT 818C;XTCC 201;203A (carbonate);203A;ReagentPlus;CCS 23;Greenafiller 0-100;Guanghui TS 01;TS 01;KL 101;TC 1016;KL 5;N 79;A-Len V1PE-280;Turcarb TC 2;GY 216;NCC 602;SP 1250;SN 2200;SW 625B;Omya EXH 1SP;EL 20;Omya 2T;CCS-H;HXH 800;SPY 100;Hubercarb Q 2;CC 968;CC 988;Tancal NS 100;PMB-PF 701;Carb 5;ImerCarb 200;TN 3;TN 10 (carbonate);TN 10;AC 05N (carbonate);AC 05N;MAX 6080K;Caluceo P 015S0;A 22;Vatpol 210;KPG 012;KPR-THX;Imerseal 36S;Turboplex 7227;Omyacarb 40UL;Omyacarb 21;CD 108;Filmlink 525;CC 900;CCR 5 (carbonic acid);Neolight R 700;808A (carbonate);808A;Calplex 15;KS 1000;Tama Pearl TP-NPF;TN-M 2;BR 1;BR 27;ST 1250 (carbonate);ST 1250;CC 900350-450;Albafil T 10;CAZ 8099;Micromya OM;Microcalcite KM 2;Escalon 3;Q 1250;CC 600;GY 616;Hydrocarb 75T;Hydrocarb 95T-KU;1T-CU;ACC 812;CCR 800;XFI 11-2;BPR-F 13;TC 8 (carbonate);JS 960;TC 8;JD 3000Q;GCC 75F;Softon 1200 White;L 300;Carbital S;MK 60T;TA 17;CC 902;Calessen P;BZ 5000;Minacoat E 3;HiCal LM;CS 1600 (carbonate);CS 1600;TA 044;Omya 753;Softon KS 1200;Viscoexel 30;051A;GH 2500;101A (carbonate);CC 80 (carbonate);101A;CC 80;LLD 30;Omyacarb 2HB;Extra 1;Omyacarb 30CN;ST 6180;CC 2500;KPR 660V;KKS 081;Baiyanhua CCR;Baiyanhua HCC;Omyacarb 2IP;Omyacarb 5IP;ST 6021;Omyacare S 80-QY;YL 6025;XF 10;YL 6008;Z 630;Omyafilm 753;Omyafilm 757;ACMLT 02;Omyacarb 1VO;GY 316;Omyacarb 20CN;Whiton 306;RUC 300;P 200 (carbonate);P 200;MG 10 (carbonate);MG 10;Hydrocarb HC 60GU;Z 2000 (carbonate);Z 3000 (carbonate);Z 2000;Z 3000;Omyacarb 130;Omyaperl 0.5-1.0;Omyaperl 1.0-1.5;SY 5008;Calcilit 10KA;Omya H 90Me;OB 1000;ST 5000;HM 001;Calplex 5;Omyafilm 792FL;White Seal WS 3K;CS 2200 (carbonate);CS 2200;YF 225;ST 5000 (carbonate);TD-A 23;75T;TD 2500;1T-JU;5T-JI;Omyafiber 800;Omya 3;S 10QY;ACC 826;ACC 818;Microcalcite KM 40;Omyacarb 15UR;GY 116;KL 10 (carbonate);KL 10;Heliacal 3000;Smartfill 50L;D 35 (carbonate);D 35;Omyacoat 420;YF 2350;Calceeds P;GF 100 (salt);GF 100;MeSH ID: D002119;ZT 501;S 24297;XF 6001;NC 40 (carbonate);NC 40;SA 200 (carbonate);SA 200;MS 900;Calofort SV 14;Lhoist 325;KLMN 034;P 150 (carbonate);P 150;CCS 25I;XL 3011N;Omyacarb 5QY;SP 60 (carbonate);SP 60;JZ 38;Changsen 042;SCC 6000-A;KJ 3 (carbonate);KJ 3;Shengke 207;XF 15;XM 302;OceanCal 3S;Omyacarb 2JI;Calcium carbonate (Ca(CO<sub>3</sub>));Softon 1200BM;TY 800;Neolite SA 300;Snowhite 12;Durcal 2AV;CCR-B;Shengke 532;ExCal 325;TA 074B;ACC 815;TSP 80;UFPCC 303;Imasco 5H;LS 625;JR-Q 1250;XL 6000;XL 2800;XL 2500;MK-WD 42515;Micropowder S;Omyafiber 800CU;Omyacarb 10CN;Calplex 2;OM 15AL;Omyadol 15JA;Omyacarb 1TJI;Omyacarb 1T-JI;CAF 9200;D 009 (carbonate);D 009;CCS 30 (carbonate);CCS 30;Omyacarb 2QY;PEX 10560AL;CCS 27i;TC 5000;KS 300 (carbonate);KS 300;Viscoexcel 30HV;GB 36;XST 1150TL;Omyabond 120;WS 2200;M 3001 (carbonate);M 3001;Reverte 95T;Omnicarb Extra;Setacarb 97;VS 625C;GX 2500M;GX 2000;CMS 5000;YX 600 (carbonate);YX 600;NS 100M;Sealets 20TH;Omyacarb 520;Neolight EG 290;R 70H;KRS 1 (carbonate);Cube 50KA;Cube 80KA;KRS 1",
    "duplicated_cas_no": "39454-55-2;60083-79-6;63660-97-9;71060-88-3;72608-12-9;114453-69-9;137803-94-2;146358-95-4;148092-93-7;166516-01-4;172307-27-6;180616-31-3;197809-38-4;198352-33-9;251358-28-8;459411-10-0;878759-26-3;1118543-25-1;1312764-88-7;1352815-51-0;1437084-75-7;1641572-50-0;1883798-64-8;1994316-62-9;2222732-78-5;2242787-54-6;2390374-02-2;2470702-35-1;2947528-29-0;2962051-70-1;3018125-28-2;3035837-63-6",
    "SMILES": "C(=O)(O)O.[Ca]",
    "meta_data": {
        "InChI": "InChI=1S/CH2O3.Ca/c2-1(3)4;/h(H2,2,3,4);",
        "InChIKey": null,
        "Canonical SMILES": "[Ca].O=C(O)O",
        "Molecular Formula": "CH<sub>2</sub>O<sub>3</sub>.Ca",
        "Molecular Mass": "",
        "Melting Point": "825 °C (decomp)",
        "Density": "2.8 g/cm³"
    }
}