{
    "cas_no": "533-15-3",
    "key_name": "1-Methyl-2-piperidineethanol",
    "cn_name": null,
    "alternate_name": "2-Piperidineethanol, 1-methyl-;1-Methyl-2-piperidineethanol;2-(2-Hydroxyethyl)-1-methylpiperidine;NSC 75616;2-(1-Methylpiperidin-2-yl)ethanol;2-(1-Methyl-2-piperidyl)ethanol;2-(1-Methylpiperidin-2-yl)ethan-1-ol",
    "duplicated_cas_no": "107388-78-3",
    "SMILES": "C(CO)C1N(C)CCCC1",
    "meta_data": {
        "InChI": "InChI=1S/C8H17NO/c1-9-6-3-2-4-8(9)5-7-10/h8,10H,2-7H2,1H3",
        "InChIKey": null,
        "Canonical SMILES": "OCCC1N(C)CCCC1",
        "Molecular Formula": "C<sub>8</sub>H<sub>17</sub>NO",
        "Molecular Mass": "143.23",
        "Boiling Point": "82-84 °C @ Press: 19 Torr",
        "Density": "0.9922 g/cm³"
    }
}