{
    "cas_no": "66-97-7",
    "key_name": "Psoralen",
    "cn_name": "补骨脂素;制斑素;补骨脂内酯;",
    "alternate_name": "7<em>H</em>-Furo[3,2-<em>g</em>][1]benzopyran-7-one;Furocoumarin;Ficusin;Furo[4′,5′:6,7]coumarin;Psoralen;Psoralene;2-Propenoic acid, 3-(6-hydroxy-5-benzofuranyl)-, δ-lactone;Furo[2′,3′:7,6]coumarin;6,7-Furanocoumarin;NSC 404562;Prosuler",
    "duplicated_cas_no": "",
    "SMILES": "O=C1OC2=C(C=C3C(=C2)OC=C3)C=C1",
    "meta_data": {
        "InChI": "InChI=1S/C11H6O3/c12-11-2-1-7-5-8-3-4-13-9(8)6-10(7)14-11/h1-6H",
        "InChIKey": null,
        "Canonical SMILES": "O=C1OC2=CC=3OC=CC3C=C2C=C1",
        "Molecular Formula": "C<sub>11</sub>H<sub>6</sub>O<sub>3</sub>",
        "Molecular Mass": "186.16",
        "Boiling Point": "130-140 °C",
        "Melting Point": "163-164 °C"
    }
}