{
    "cas_no": "92-55-7",
    "key_name": "5-Nitrofurfural diacetate",
    "cn_name": "5-硝基糠醛二乙酸酯;5-硝基-2-糠醛二乙酸酯;",
    "alternate_name": "Methanediol, 1-(5-nitro-2-furanyl)-, 1,1-diacetate;Methanediol, (5-nitro-2-furanyl)-, diacetate (ester);2-Furanmethanediol, 5-nitro-, diacetate;2-(Diacetoxymethyl)-5-nitrofuran;5-Nitrofurfurylidene diacetate;5-Nitro-2-furanmethanediol diacetate;5-Nitrofurfural diacetate;5-Nitrofuraldehyde diacetate;5-Nitro-2-furfurylidene diacetate;NSC 5411;(Acetyloxy)(5-nitrofuran-2-yl)methyl acetate;(Acetyloxy)(5-nitro-2-furyl)methyl acetate",
    "duplicated_cas_no": "58928-41-9",
    "SMILES": "C(OC(C)=O)(OC(C)=O)C=1OC(N(=O)=O)=CC1",
    "meta_data": {
        "InChI": "InChI=1S/C9H9NO7/c1-5(11)15-9(16-6(2)12)7-3-4-8(17-7)10(13)14/h3-4,9H,1-2H3",
        "InChIKey": null,
        "Canonical SMILES": "O=C(OC(OC(=O)C)C=1OC(=CC1)N(=O)=O)C",
        "Molecular Formula": "C<sub>9</sub>H<sub>9</sub>NO<sub>7</sub>",
        "Molecular Mass": "243.17",
        "Melting Point": "91 °C"
    }
}