{
    "cas_no": "2530-10-1",
    "key_name": "3-Acetyl-2,5-dimethylthiophene",
    "cn_name": "2,5-二甲基-3-乙酰基噻吩;",
    "alternate_name": "Ethanone, 1-(2,5-dimethyl-3-thienyl)-;Ketone, 2,5-dimethyl-3-thienyl methyl;1-(2,5-Dimethyl-3-thienyl)ethanone;3-Acetyl-2,5-dimethylthiophene;2,5-Dimethyl-3-acetylthiophene;1-(2,5-Dimethylthiophen-3-yl)ethanone;1-(2,5-Dimethylthiophen-3-yl)ethan-1-one",
    "duplicated_cas_no": "",
    "SMILES": "C(C)(=O)C=1C=C(C)SC1C",
    "meta_data": {
        "InChI": "InChI=1S/C8H10OS/c1-5-4-8(6(2)9)7(3)10-5/h4H,1-3H3",
        "InChIKey": null,
        "Canonical SMILES": "O=C(C=1C=C(SC1C)C)C",
        "Molecular Formula": "C<sub>8</sub>H<sub>10</sub>OS",
        "Molecular Mass": "154.23",
        "Boiling Point": "126 °C @ Press: 28 Torr"
    }
}