{
    "cas_no": "1622-61-3",
    "key_name": "Clonazepam",
    "cn_name": "氯安定;氯硝安定;氯硝西泮;5-(2-氯苯基)-1,3-二氢-7-硝基-2H-1,4-苯并二氮杂卓-2-酮;",
    "alternate_name": "2<em>H</em>-1,4-Benzodiazepin-2-one, 5-(2-chlorophenyl)-1,3-dihydro-7-nitro-;2<em>H</em>-1,4-Benzodiazepin-2-one, 5-(<em>o</em>-chlorophenyl)-1,3-dihydro-7-nitro-;5-(2-Chlorophenyl)-1,3-dihydro-7-nitro-2<em>H</em>-1,4-benzodiazepin-2-one;Clonazepam;Ro 5-4023;5-(<em>o</em>-Chlorophenyl)-1,3-dihydro-7-nitro-2<em>H</em>-1,4-benzodiazepin-2-one;1,3-Dihydro-7-nitro-5-(<em>o</em>-chlorophenyl)-2<em>H</em>-1,4-benzodiazepin-2-one;7-Nitro-5-(2-chlorophenyl)-3<em>H</em>-1,4-benzodiazepin-2(1<em>H</em>)-one;Rivotril;5-(6-Chlorophenyl)-1,3-dihydro-7-nitro-2<em>H</em>-1,4-benzodiazepin-2-one;Clonopin;Antilepsin;Antelepsin;Klonopin;Landsen;Kenoket;Clonex;Paxam;Iktorivil;Lonazep;NSC 179913;Apetryl;5-(2-Chlorophenyl)-7-nitro-2,3-dihydro-1,4-benzodiazepin-2-one;5-(2-Chlorophenyl)-7-nitro-1<em>H</em>-1,4-benzodiazepin-2(3<em>H</em>)-one;MeSH ID: D002998",
    "duplicated_cas_no": "106955-87-7",
    "SMILES": "N(=O)(=O)C=1C=C2C(=NCC(=O)NC2=CC1)C3=C(Cl)C=CC=C3",
    "meta_data": {
        "InChI": "InChI=1S/C15H10ClN3O3/c16-12-4-2-1-3-10(12)15-11-7-9(19(21)22)5-6-13(11)18-14(20)8-17-15/h1-7H,8H2,(H,18,20)",
        "InChIKey": null,
        "Canonical SMILES": "O=C1NC=2C=CC(=CC2C(=NC1)C=3C=CC=CC3Cl)N(=O)=O",
        "Molecular Formula": "C<sub>15</sub>H<sub>10</sub>ClN<sub>3</sub>O<sub>3</sub>",
        "Molecular Mass": "315.71",
        "Melting Point": "236.5-238.5 °C"
    }
}