{
    "cas_no": "536-38-9",
    "key_name": "2′-Bromo-4-chloroacetophenone",
    "cn_name": "alpha-溴代-4-氯苯乙酮;",
    "alternate_name": "Ethanone, 2-bromo-1-(4-chlorophenyl)-;Acetophenone, 2-bromo-4′-chloro-;2-Bromo-1-(4-chlorophenyl)ethanone;α-Bromo-<em>p</em>-chloroacetophenone;2-Bromo-4′-chloroacetophenone;4-Chloro-ω-bromoacetophenone;<em>p</em>-Chlorophenacyl bromide;ω-Bromo-<em>p</em>-chloroacetophenone;4-Chlorophenacyl bromide;2-Bromo-<em>p</em>-chloroacetophenone;1-(4-Chlorophenyl)-2-bromo-1-ethanone;<em>p</em>-Chloro-ω-bromoacetophenone;4′-Chlorophenacyl bromide;α-Bromo-4′-chloroacetophenone;Bromomethyl <em>p</em>-chlorophenyl ketone;4-Chloro-α-bromoacetophenone;4′-Chloro-2-bromoacetophenone;<em>p</em>-(Bromoacetyl)chlorobenzene;Bromomethyl 4-chlorophenyl ketone;2-Bromo-1-(4′-chlorophenyl)ethanone;α-Bromo-4-chloroacetophenone;2-Bromo-1-(4-chlorophenyl)-1-ethanone;NSC 8452;2′-Bromo-4-chloroacetophenone;1-(Bromoacetyl)-4-chlorobenzene",
    "duplicated_cas_no": "",
    "SMILES": "C(CBr)(=O)C1=CC=C(Cl)C=C1",
    "meta_data": {
        "InChI": "InChI=1S/C8H6BrClO/c9-5-8(11)6-1-3-7(10)4-2-6/h1-4H,5H2",
        "InChIKey": null,
        "Canonical SMILES": "O=C(C1=CC=C(Cl)C=C1)CBr",
        "Molecular Formula": "C<sub>8</sub>H<sub>6</sub>BrClO",
        "Molecular Mass": "233.49",
        "Melting Point": "96.5 °C"
    }
}