{
    "cas_no": "34346-01-5",
    "key_name": "Poly(lactic-co-glycolic acid)",
    "cn_name": null,
    "alternate_name": "Propanoic acid, 2-hydroxy-, polymer with 2-hydroxyacetic acid;Propanoic acid, 2-hydroxy-, polymer with hydroxyacetic acid;Acetic acid, hydroxy-, polymer with 2-hydroxypropanoic acid;Glycolic acid-lactic acid polymer;Glycolic acid-lactic acid copolymer;Lactic acid-glycolic acid copolymer;Lactic acid-glycolic acid polymer;Poly(glycolic acid-lactic acid);Hydroxyacetic acid-lactic acid copolymer;Poly(lactic acid-glycolic acid);Resomer RG 858;Resolut LT;Resolut ST;Hydroxyacetic acid-(±)-2-hydroxypropanoic acid copolymer;(±)-2-Hydroxypropanoic acid-hydroxyacetic acid copolymer;<em>dl</em>-Lactic acid-glycolic acid polymer;<span class=\"text-smallcaps\">D</smallcap><smallcap>L</span>-Lactic acid-glycolic acid copolymer;Glycolic acid-<span class=\"text-smallcaps\">D</smallcap><smallcap>L</span>-lactic acid copolymer;Poly(glycolic acid-co-<span class=\"text-smallcaps\">D</smallcap><smallcap>L</span>-lactic acid);Poly(<span class=\"text-smallcaps\">D</smallcap><smallcap>L</span>-lactic acid-glycolic acid);Hydroxyacetic acid-2-hydroxypropionic acid copolymer;PLGA 5010;Resolut;PLGA 5020;Alzamer Depot;GC-Membrane;PLGA 75-65;PLGA 7520;PLGA 7510;Lactel BP 400;PLGA 5-1;Lactic acid-hydroxyacetic acid copolymer;LG 80;85DG065;B 6006-1P;Poly(lactic-co-glycolic acid);PLGA 5005;PLGA 5015;Resomer RG 756S;PLGA;Purasorb PLG 8531;Polylactoglycolidic acid;Purasorb PDLG 5002A;Poly(<span class=\"text-smallcaps\">D</smallcap><smallcap>L</span>-lactic-co-glycolic acid);Resomer LG 824S;Medisorb 5050DL1A;Poly(<span class=\"text-smallcaps\">D</smallcap><smallcap>L</span>-lactic acid-co-glycolic acid);Poly(lactic acid-co-glycolic acid);PLGA 5-50;2-Hydroxyacetic acid-lactic acid copolymer;Resomer 753S;Purasorb PDLG 5002;Poly(d,l-lactic-co-glycolic acid);PLGA 7525;Resomer LG 855S;P 134386-1G;Poly(lactic acid-hydroxyacetic acid) copolymer;Polylactic acid-glycolic acid copolymer;Glycolic acid-lactid acid copolymer;M 700 (polyester);PLGA 7525-5A;PLGA 7525-4A;LG 855S;Expansorb DLG 50-2A;PLGA 7505;PLGA 7515;DLG 50",
    "duplicated_cas_no": "59199-59-6;66327-52-4;153439-97-5;265647-91-4;1073337-78-6;1345629-43-7;1638293-16-9;1820907-33-2;2306056-03-9",
    "SMILES": "C(CO)(O)=O.C(C(O)=O)(C)O",
    "meta_data": {
        "InChI": "InChI=1S/C3H6O3.C2H4O3/c1-2(4)3(5)6;3-1-2(4)5/h2,4H,1H3,(H,5,6);3H,1H2,(H,4,5)",
        "InChIKey": null,
        "Canonical SMILES": "O=C(O)CO.O=C(O)C(O)C",
        "Molecular Formula": "(C<sub>3</sub>H<sub>6</sub>O<sub>3</sub>.C<sub>2</sub>H<sub>4</sub>O<sub>3</sub>)<sub>x</sub>",
        "Molecular Mass": "",
        "Melting Point": "&gt;100 °C",
        "Density": "0.93671 g/cm³"
    }
}