{
    "cas_no": "7803-58-9",
    "key_name": "Sulfamide",
    "cn_name": "磺酰胺;",
    "alternate_name": "Sulfamide;Sulfamamide;Sulfuryl amide;Sulfuric diamide;Sulfuryl diamide;Imidosulfamic acid;Sulfonyl diamide;Sulphamide;NSC 252;Sulfamoylamine",
    "duplicated_cas_no": "",
    "SMILES": "S(N)(N)(=O)=O",
    "meta_data": {
        "InChI": "InChI=1S/H4N2O2S/c1-5(2,3)4/h(H4,1,2,3,4)",
        "InChIKey": null,
        "Canonical SMILES": "O=S(=O)(N)N",
        "Molecular Formula": "H<sub>4</sub>N<sub>2</sub>O<sub>2</sub>S",
        "Molecular Mass": "96.11",
        "Melting Point": "92 °C"
    }
}