{
    "cas_no": "5650-52-2",
    "key_name": "4,5-Dihydro-6<em>H</em>-cyclopenta[<em>b</em>]thiophen-6-one",
    "cn_name": null,
    "alternate_name": "6<em>H</em>-Cyclopenta[<em>b</em>]thiophen-6-one, 4,5-dihydro-;4,5-Dihydro-6<em>H</em>-cyclopenta[<em>b</em>]thiophen-6-one;NSC 241111;4,5-Dihydrocyclopenta[<em>b</em>]thiophen-6-one",
    "duplicated_cas_no": "",
    "SMILES": "O=C1C2=C(C=CS2)CC1",
    "meta_data": {
        "InChI": "InChI=1S/C7H6OS/c8-6-2-1-5-3-4-9-7(5)6/h3-4H,1-2H2",
        "InChIKey": null,
        "Canonical SMILES": "O=C1C=2SC=CC2CC1",
        "Molecular Formula": "C<sub>7</sub>H<sub>6</sub>OS",
        "Molecular Mass": "138.19",
        "Melting Point": "90-91 °C"
    }
}