{
    "cas_no": "43193-60-8",
    "key_name": "2,3,5,6-Pyrazinetetracarboxylic acid",
    "cn_name": null,
    "alternate_name": "2,3,5,6-Pyrazinetetracarboxylic acid;Pyrazinetetracarboxylic acid",
    "duplicated_cas_no": "",
    "SMILES": "C(O)(=O)C=1C(C(O)=O)=NC(C(O)=O)=C(C(O)=O)N1",
    "meta_data": {
        "InChI": "InChI=1S/C8H4N2O8/c11-5(12)1-2(6(13)14)10-4(8(17)18)3(9-1)7(15)16/h(H,11,12)(H,13,14)(H,15,16)(H,17,18)",
        "InChIKey": null,
        "Canonical SMILES": "O=C(O)C=1N=C(C(=O)O)C(=NC1C(=O)O)C(=O)O",
        "Molecular Formula": "C<sub>8</sub>H<sub>4</sub>N<sub>2</sub>O<sub>8</sub>",
        "Molecular Mass": "256.13",
        "Melting Point": "205 °C (decomp)"
    }
}