{
    "cas_no": "7789-06-2",
    "key_name": "Strontium chromate",
    "cn_name": "铬酸锶;锶铬黄;801柠檬锶铬黄;",
    "alternate_name": "Chromic acid (H<sub>2</sub>CrO<sub>4</sub>), strontium salt (1:1);Strontium chromate(VI);C.I. Pigment Yellow 32;Deep Lemon Yellow;X 2396;Strontium chromate 12170;Strontium yellow;Strontium chromate;Strontium chromate (1:1);Strontium chromate (SrCrO<sub>4</sub>);Sutokuro T;Pigment Yellow 32;C.I. 77839;Chromium strontium oxide (CrSrO<sub>4</sub>);Strontium Chrome Yellow;L 203E;Add 398",
    "duplicated_cas_no": "54322-60-0;166269-55-2",
    "SMILES": "[Cr](O)(O)(=O)=O.[Sr]",
    "meta_data": {
        "InChI": "InChI=1S/Cr.2H2O.2O.Sr/h;2*1H2;;;/q+2;;;;;/p-2",
        "InChIKey": null,
        "Canonical SMILES": "[Sr].O=[Cr](=O)(O)O",
        "Molecular Formula": "CrH<sub>2</sub>O<sub>4</sub>.Sr",
        "Molecular Mass": "",
        "Melting Point": "1200 °C",
        "Density": "3.9 g/cm³"
    }
}