{
    "cas_no": "51867-83-5",
    "key_name": "<em>N</em>-(3-Amino-4-chlorophenyl)acetamide",
    "cn_name": "3-氨基-4-氯乙酰苯胺;",
    "alternate_name": "Acetamide, <em>N</em>-(3-amino-4-chlorophenyl)-;<em>N</em>-(3-Amino-4-chlorophenyl)acetamide;5-Acetamido-2-chloroaniline;1-Amino-3-acetylamino-6-chloro-benzene",
    "duplicated_cas_no": "",
    "SMILES": "N(C(C)=O)C1=CC(N)=C(Cl)C=C1",
    "meta_data": {
        "InChI": "InChI=1S/C8H9ClN2O/c1-5(12)11-6-2-3-7(9)8(10)4-6/h2-4H,10H2,1H3,(H,11,12)",
        "InChIKey": null,
        "Canonical SMILES": "O=C(NC1=CC=C(Cl)C(N)=C1)C",
        "Molecular Formula": "C<sub>8</sub>H<sub>9</sub>ClN<sub>2</sub>O",
        "Molecular Mass": "184.62",
        "Melting Point": "170 °C"
    }
}