{
    "cas_no": "13669-42-6",
    "key_name": "3-Quinolinecarboxaldehyde",
    "cn_name": "喹啉-3-甲醛;3-喹啉甲醛;",
    "alternate_name": "3-Quinolinecarboxaldehyde;3-Formylquinoline;Quinoline-3-carbaldehyde",
    "duplicated_cas_no": "",
    "SMILES": "C(=O)C1=CC2=C(N=C1)C=CC=C2",
    "meta_data": {
        "InChI": "InChI=1S/C10H7NO/c12-7-8-5-9-3-1-2-4-10(9)11-6-8/h1-7H",
        "InChIKey": null,
        "Canonical SMILES": "O=CC1=CN=C2C=CC=CC2=C1",
        "Molecular Formula": "C<sub>10</sub>H<sub>7</sub>NO",
        "Molecular Mass": "157.17",
        "Melting Point": "120 °C"
    }
}