{
    "cas_no": "1006-33-3",
    "key_name": "1-(2-Bromo-5-fluorophenyl)ethanone",
    "cn_name": "2\"-溴-5\"-氟苯乙酮;",
    "alternate_name": "Ethanone, 1-(2-bromo-5-fluorophenyl)-;Acetophenone, 2′-bromo-5′-fluoro-;1-(2-Bromo-5-fluorophenyl)ethanone;2′-Bromo-5′-fluoroacetophenone;1-(2-Bromo-5-fluorophenyl)ethan-1-one",
    "duplicated_cas_no": "",
    "SMILES": "C(C)(=O)C1=C(Br)C=CC(F)=C1",
    "meta_data": {
        "InChI": "InChI=1S/C8H6BrFO/c1-5(11)7-4-6(10)2-3-8(7)9/h2-4H,1H3",
        "InChIKey": null,
        "Canonical SMILES": "O=C(C1=CC(F)=CC=C1Br)C",
        "Molecular Formula": "C<sub>8</sub>H<sub>6</sub>BrFO",
        "Molecular Mass": "217.04",
        "Boiling Point": "144 °C @ Press: 18 Torr"
    }
}