{
    "cas_no": "3725-39-1",
    "key_name": "1-Morpholino-1-cyclododecene",
    "cn_name": "1-吗啉-1-环十二烷烯;",
    "alternate_name": "Morpholine, 4-(1-cyclododecen-1-yl)-;Cyclododecane, morpholine deriv.;4-(1-Cyclododecen-1-yl)morpholine;1-Morpholinocyclododecene;1-Morpholino-1-cyclododecene",
    "duplicated_cas_no": "",
    "SMILES": "N1(CCOCC1)C=2CCCCCCCCCCC2",
    "meta_data": {
        "InChI": "InChI=1S/C16H29NO/c1-2-4-6-8-10-16(11-9-7-5-3-1)17-12-14-18-15-13-17/h10H,1-9,11-15H2",
        "InChIKey": null,
        "Canonical SMILES": "O1CCN(C2=CCCCCCCCCCC2)CC1",
        "Molecular Formula": "C<sub>16</sub>H<sub>29</sub>NO",
        "Molecular Mass": "251.41",
        "Boiling Point": "128-130 °C @ Press: 0.05 Torr"
    }
}