{
    "cas_no": "496-74-2",
    "key_name": "Toluene-3,4-dithiol",
    "cn_name": "3,4-甲苯二硫醇;",
    "alternate_name": "1,2-Benzenedithiol, 4-methyl-;Toluene-3,4-dithiol;4-Methyl-1,2-benzenedithiol;1,2-Dimercapto-4-methylbenzene;Dithiol;4-Methyl-1,2-dimercaptobenzene;3,4-Dimercaptotoluol;3,4-Dimercaptotoluene;3,4-Toluenedithiol;1-Toluene-3,4-dithiol;3,4-Dithiotoluene;NSC 5391;Dithiol (chelating agent)",
    "duplicated_cas_no": "",
    "SMILES": "SC1=C(S)C=CC(C)=C1",
    "meta_data": {
        "InChI": "InChI=1S/C7H8S2/c1-5-2-3-6(8)7(9)4-5/h2-4,8-9H,1H3",
        "InChIKey": null,
        "Canonical SMILES": "SC1=CC=C(C=C1S)C",
        "Molecular Formula": "C<sub>7</sub>H<sub>8</sub>S<sub>2</sub>",
        "Molecular Mass": "156.27",
        "Boiling Point": "185-187 °C @ Press: 84 Torr",
        "Melting Point": "29 °C"
    }
}