{
    "cas_no": "10025-67-9",
    "key_name": "Sulfur monochloride",
    "cn_name": "二氯化二硫;一氯化硫;",
    "alternate_name": "Sulfur chloride (S<sub>2</sub>Cl<sub>2</sub>);Disulfur dichloride;Sulfur subchloride;Thiosulfurous dichloride;Chlorosulfane;Sulfur chloride;Sulphur chloride (S<sub>2</sub>Cl<sub>2</sub>);Sulfur monochloride;Dichlorodisulfane;Sulfur monochloride (S<sub>2</sub>Cl<sub>2</sub>)",
    "duplicated_cas_no": "",
    "SMILES": "S(SCl)Cl",
    "meta_data": {
        "InChI": "InChI=1S/Cl2S2/c1-3-4-2",
        "InChIKey": null,
        "Canonical SMILES": "ClSSCl",
        "Molecular Formula": "Cl<sub>2</sub>S<sub>2</sub>",
        "Molecular Mass": "135.04",
        "Boiling Point": "135.6 °C",
        "Melting Point": "-77 °C",
        "Density": "1.6885 g/cm³ @ Temp: 15.5 °C"
    }
}