{
    "cas_no": "3304-51-6",
    "key_name": "<em>N</em><sup>5</sup>-[(Phenylmethoxy)carbonyl]-<span class=\"text-smallcaps\">L</span>-ornithine",
    "cn_name": "N\"-Cbz-L-鸟氨酸;N\"-苄氧羰基-L-鸟氨酸;",
    "alternate_name": "<span class=\"text-smallcaps\">L</span>-Ornithine, <em>N</em><sup>5</sup>-[(phenylmethoxy)carbonyl]-;Ornithine, <em>N</em><sup>5</sup>-carboxy-, <em>N</em><sup>5</sup>-benzyl ester, <span class=\"text-smallcaps\">L</span>-;Ornithine, <em>N</em><sup>5</sup>-carboxy-, <em>N</em>-benzyl ester;<span class=\"text-smallcaps\">L</span>-Ornithine, <em>N</em><sup>5</sup>-carboxy-, <em>N</em>-benzyl ester;<em>N</em><sup>5</sup>-[(Phenylmethoxy)carbonyl]-<span class=\"text-smallcaps\">L</span>-ornithine;δ-<em>N</em>-Benzyloxycarbonyl-<span class=\"text-smallcaps\">L</span>-ornithine;<em>N</em><sup>5</sup>-Carboxyornithine <em>N</em><sup>5</sup>-benzyl ester;<em>N</em><sup>δ</sup>-Benzyloxycarbonyl-<span class=\"text-smallcaps\">L</span>-ornithine;<em>N</em><sup>5</sup>-(Benzyloxycarbonyl)ornithine;(<em>S</em>)-2-Amino-5-(phenylmethoxycarbonylamino)pentanoic acid;<em>N</em>-δ-Cbz-<span class=\"text-smallcaps\">L</span>-ornithine;(2S)-2-Amino-5-[[(benzyloxy)carbonyl]amino]pentanoic acid",
    "duplicated_cas_no": "",
    "SMILES": "C(OC(NCCC[C@@H](C(O)=O)N)=O)C1=CC=CC=C1",
    "meta_data": {
        "InChI": "InChI=1S/C13H18N2O4/c14-11(12(16)17)7-4-8-15-13(18)19-9-10-5-2-1-3-6-10/h1-3,5-6,11H,4,7-9,14H2,(H,15,18)(H,16,17)/t11-/m0/s1",
        "InChIKey": null,
        "Canonical SMILES": "O=C(OCC=1C=CC=CC1)NCCCC(N)C(=O)O",
        "Molecular Formula": "C<sub>13</sub>H<sub>18</sub>N<sub>2</sub>O<sub>4</sub>",
        "Molecular Mass": "266.29",
        "Melting Point": "254 °C"
    }
}