{
    "cas_no": "75736-33-3",
    "key_name": "Diclobutrazol",
    "cn_name": "苄氯三唑醇;(R*,R*)-(+-)-beta-[(2,4-二氯苯基)甲基]-alpha-(1,1-二甲基乙基)-1H-1,2,4-三唑-1-乙醇;(2RS,3;",
    "alternate_name": "1<em>H</em>-1,2,4-Triazole-1-ethanol, β-[(2,4-dichlorophenyl)methyl]-α-(1,1-dimethylethyl)-, (α<em>R</em>,β<em>R</em>)-<em>rel</em>-;1<em>H</em>-1,2,4-Triazole-1-ethanol, β-[(2,4-dichlorophenyl)methyl]-α-(1,1-dimethylethyl)-, (<em>R</em>*,<em>R</em>*)-(±)-;<em>rel</em>-(α<em>R</em>,β<em>R</em>)-β-[(2,4-Dichlorophenyl)methyl]-α-(1,1-dimethylethyl)-1<em>H</em>-1,2,4-triazole-1-ethanol;Diclobutrazol;Vigil;PP 296;Vigilex;Dicyclobutrazole",
    "duplicated_cas_no": "75432-64-3;83940-00-5",
    "SMILES": "[C@H](CC1=C(Cl)C=C(Cl)C=C1)([C@H](C(C)(C)C)O)N2C=NC=N2",
    "meta_data": {
        "InChI": "InChI=1/C15H19Cl2N3O/c1-15(2,3)14(21)13(20-9-18-8-19-20)6-10-4-5-11(16)7-12(10)17/h4-5,7-9,13-14,21H,6H2,1-3H3/t13-,14+/s2",
        "InChIKey": null,
        "Canonical SMILES": "ClC1=CC=C(C(Cl)=C1)CC(N2N=CN=C2)C(O)C(C)(C)C",
        "Molecular Formula": "C<sub>15</sub>H<sub>19</sub>Cl<sub>2</sub>N<sub>3</sub>O",
        "Molecular Mass": "328.24",
        "Melting Point": "147-149 °C"
    }
}