{
    "cas_no": "1155-00-6",
    "key_name": "Bis(2-nitrophenyl) disulfide",
    "cn_name": "双(2-硝基苯基)二硫化物;2,2\"-二硝基二苯二硫醚;",
    "alternate_name": "Disulfide, bis(2-nitrophenyl);Disulfide, bis(<em>o</em>-nitrophenyl);Bis(2-nitrophenyl) disulfide;Bis(<em>o</em>-nitrophenyl) disulfide;2,2′-Dinitrodiphenyl disulfide;<em>o</em>,<em>o</em>′-Dinitrodiphenyl disulfide;<em>o</em>-Nitrophenyl disulfide;NSC 203;NSC 646126;1-Nitro-2-[(2-nitrophenyl)disulfanyl]benzene;1,2-Bis(2-nitrophenyl)disulfane",
    "duplicated_cas_no": "",
    "SMILES": "S(SC1=C(N(=O)=O)C=CC=C1)C2=C(N(=O)=O)C=CC=C2",
    "meta_data": {
        "InChI": "InChI=1S/C12H8N2O4S2/c15-13(16)9-5-1-3-7-11(9)19-20-12-8-4-2-6-10(12)14(17)18/h1-8H",
        "InChIKey": null,
        "Canonical SMILES": "O=N(=O)C=1C=CC=CC1SSC=2C=CC=CC2N(=O)=O",
        "Molecular Formula": "C<sub>12</sub>H<sub>8</sub>N<sub>2</sub>O<sub>4</sub>S<sub>2</sub>",
        "Molecular Mass": "308.33",
        "Melting Point": "196-197 °C"
    }
}