{
    "cas_no": "7803-51-2",
    "key_name": "Phosphine (PH<sub>3</sub>)",
    "cn_name": null,
    "alternate_name": "Phosphine;Phosphorus hydride (PH<sub>3</sub>);Hydrogen phosphide;Phosphorus trihydride;Phosphine (PH<sub>3</sub>);Phosphorus hydride;TK-Gas;Vaporphos",
    "duplicated_cas_no": "167076-44-0",
    "SMILES": "P",
    "meta_data": {
        "InChI": "InChI=1S/H3P/h1H3",
        "InChIKey": null,
        "Canonical SMILES": "P",
        "Molecular Formula": "H<sub>3</sub>P",
        "Molecular Mass": "",
        "Boiling Point": "-87.7 °C",
        "Melting Point": "-133 °C",
        "Density": "0.8 g/cm³"
    }
}