{
    "cas_no": "19282-45-2",
    "key_name": "Ethyl 4,5,6,7-tetrahydrobenzo[<em>b</em>]thiophene-2-carboxylate",
    "cn_name": null,
    "alternate_name": "Benzo[<em>b</em>]thiophene-2-carboxylic acid, 4,5,6,7-tetrahydro-, ethyl ester;Ethyl 4,5,6,7-tetrahydrobenzo[<em>b</em>]thiophene-2-carboxylate",
    "duplicated_cas_no": "",
    "SMILES": "C(OCC)(=O)C1=CC2=C(S1)CCCC2",
    "meta_data": {
        "InChI": "InChI=1S/C11H14O2S/c1-2-13-11(12)10-7-8-5-3-4-6-9(8)14-10/h7H,2-6H2,1H3",
        "InChIKey": null,
        "Canonical SMILES": "O=C(OCC)C=1SC2=C(C1)CCCC2",
        "Molecular Formula": "C<sub>11</sub>H<sub>14</sub>O<sub>2</sub>S",
        "Molecular Mass": "210.29",
        "Boiling Point": "193 °C @ Press: 16 Torr",
        "Melting Point": "30 °C"
    }
}