{
    "cas_no": "38663-85-3",
    "key_name": "1-Isothiocyanato-2-methoxyethane",
    "cn_name": "2-甲烷氧基乙基硫代异氰酸酯;异硫氰酸2-甲氧基乙酯;",
    "alternate_name": "Ethane, 1-isothiocyanato-2-methoxy-;Isothiocyanic acid, 2-methoxyethyl ester;1-Isothiocyanato-2-methoxyethane;2-Methoxyethyl isothiocyanate;1-Isothiocyanato-2-(methyloxy)ethane;2-Isothiocyanatoethyl methyl ether",
    "duplicated_cas_no": "",
    "SMILES": "C(COC)N=C=S",
    "meta_data": {
        "InChI": "InChI=1S/C4H7NOS/c1-6-3-2-5-4-7/h2-3H2,1H3",
        "InChIKey": null,
        "Canonical SMILES": "S=C=NCCOC",
        "Molecular Formula": "C<sub>4</sub>H<sub>7</sub>NOS",
        "Molecular Mass": "117.17",
        "Boiling Point": "88.5-92 °C @ Press: 23.5 Torr"
    }
}