{
    "cas_no": "14733-73-4",
    "key_name": "5-Bromo-2-benzoxazolinone",
    "cn_name": null,
    "alternate_name": "2(3<em>H</em>)-Benzoxazolone, 5-bromo-;2-Benzoxazolinone, 5-bromo-;2-Benzoxazolol, 5-bromo-;5-Bromo-2(3<em>H</em>)-benzoxazolone;5-Bromo-2-benzoxazolone;5-Bromo-2-benzoxazolinone;5-Bromo-3<em>H</em>-benzoxazol-2-one;5-Bromobenzo[<em>d</em>]oxazol-2(3<em>H</em>)-one",
    "duplicated_cas_no": "",
    "SMILES": "O=C1OC=2C(N1)=CC(Br)=CC2",
    "meta_data": {
        "InChI": "InChI=1S/C7H4BrNO2/c8-4-1-2-6-5(3-4)9-7(10)11-6/h1-3H,(H,9,10)",
        "InChIKey": null,
        "Canonical SMILES": "O=C1OC2=CC=C(Br)C=C2N1",
        "Molecular Formula": "C<sub>7</sub>H<sub>4</sub>BrNO<sub>2</sub>",
        "Molecular Mass": "214.02",
        "Melting Point": "214-216 °C"
    }
}