{
    "cas_no": "13929-35-6",
    "key_name": "Rifamycin B",
    "cn_name": "利福霉素B;",
    "alternate_name": "Rifamycin, 4-<em>O</em>-(carboxymethyl)-;Acetic acid, [(1,2-dihydro-5,6,17,19,21-pentahydroxy-23-methoxy-2,4,12,16,18,20,22-heptamethyl-1,11-dioxo-2,7-(epoxypentadeca[1,11,13]trienimino)naphtho[2,1-<em>b</em>]furan-9-yl)oxy]-, 21-acetate;Rifomycin B;2,7-(Epoxypentadeca[1,11,13]trienimino)naphtho[2,1-<em>b</em>]furan, rifamycin deriv.;4-<em>O</em>-(Carboxymethyl)rifamycin;Rifamycin B;Nancimycin;NSC 145604",
    "duplicated_cas_no": "11006-52-3;15718-44-2",
    "SMILES": "",
    "meta_data": {
        "InChI": "",
        "InChIKey": null,
        "Canonical SMILES": "",
        "Molecular Formula": "C<sub>39</sub>H<sub>49</sub>NO<sub>14</sub>",
        "Molecular Mass": "755.80",
        "Melting Point": "170-173 °C"
    }
}