{
    "cas_no": "6552-12-1",
    "key_name": "Fenoxon",
    "cn_name": "倍硫磷-氧;倍硫磷-氧;",
    "alternate_name": "Phosphoric acid, dimethyl 3-methyl-4-(methylthio)phenyl ester;Phosphoric acid, dimethyl 4-(methylthio)-<em>m</em>-tolyl ester;Bayoxon;Fenthion oxon;Fenoxon;Fenthoxon",
    "duplicated_cas_no": "",
    "SMILES": "O(P(OC)(OC)=O)C1=CC(C)=C(SC)C=C1",
    "meta_data": {
        "InChI": "InChI=1S/C10H15O4PS/c1-8-7-9(5-6-10(8)16-4)14-15(11,12-2)13-3/h5-7H,1-4H3",
        "InChIKey": null,
        "Canonical SMILES": "O=P(OC1=CC=C(SC)C(=C1)C)(OC)OC",
        "Molecular Formula": "C<sub>10</sub>H<sub>15</sub>O<sub>4</sub>PS",
        "Molecular Mass": "262.26",
        "Boiling Point": "108 °C @ Press: 0.01 Torr"
    }
}