{
    "cas_no": "1700-10-3",
    "key_name": "1,3-Cyclooctadiene",
    "cn_name": "环辛二烯;环辛二烯;",
    "alternate_name": "1,3-Cyclooctadiene;NSC 105773;NSC 72422;<em>cis</em>,<em>cis</em>-1,3-Cyclooctadiene;(<em>Z</em>,<em>Z</em>)-Cycloocta-1,3-diene",
    "duplicated_cas_no": "3806-59-5",
    "SMILES": "C1CCC=CC=CC1",
    "meta_data": {
        "InChI": "InChI=1S/C8H12/c1-2-4-6-8-7-5-3-1/h1-4H,5-8H2",
        "InChIKey": null,
        "Canonical SMILES": "C=1C=CCCCCC1",
        "Molecular Formula": "C<sub>8</sub>H<sub>12</sub>",
        "Molecular Mass": "108.18",
        "Boiling Point": "48 °C @ Press: 25 Torr",
        "Melting Point": "-57.5-55 °C",
        "Density": "0.8699 g/cm³ @ Temp: 25 °C"
    }
}