{
    "cas_no": "56962-01-7",
    "key_name": "3-Amino-2-chlorophenol",
    "cn_name": "3-氨基-2-氯苯酚;",
    "alternate_name": "Phenol, 3-amino-2-chloro-;3-Amino-2-chlorophenol;2-Chloro-3-aminophenol",
    "duplicated_cas_no": "",
    "SMILES": "ClC1=C(N)C=CC=C1O",
    "meta_data": {
        "InChI": "InChI=1S/C6H6ClNO/c7-6-4(8)2-1-3-5(6)9/h1-3,9H,8H2",
        "InChIKey": null,
        "Canonical SMILES": "ClC=1C(O)=CC=CC1N",
        "Molecular Formula": "C<sub>6</sub>H<sub>6</sub>ClNO",
        "Molecular Mass": "143.57",
        "Melting Point": "108-110 °C"
    }
}