{
    "cas_no": "29110-48-3",
    "key_name": "Guanfacine hydrochloride",
    "cn_name": "盐酸胍法辛;",
    "alternate_name": "Benzeneacetamide, <em>N</em>-(aminoiminomethyl)-2,6-dichloro-, hydrochloride (1:1);Benzeneacetamide, <em>N</em>-(aminoiminomethyl)-2,6-dichloro-, monohydrochloride;[(2,6-Dichlorophenyl)acetyl]guanidine monohydrochloride;2,6-Dichlorophenylacetylguanidine hydrochloride;BS 100-141;LON 798;<em>N</em>-Amidino-2-(2,6-dichlorophenyl)acetamide hydrochloride;Guanfacine hydrochloride;Estulic;Tenex;Tenex (pharmaceutical);SPD 503;INTUNIV",
    "duplicated_cas_no": "29520-14-7",
    "SMILES": "C(C(NC(=N)N)=O)C1=C(Cl)C=CC=C1Cl.Cl",
    "meta_data": {
        "InChI": "InChI=1S/C9H9Cl2N3O.ClH/c10-6-2-1-3-7(11)5(6)4-8(15)14-9(12)13;/h1-3H,4H2,(H4,12,13,14,15);1H",
        "InChIKey": null,
        "Canonical SMILES": "Cl.O=C(NC(=N)N)CC=1C(Cl)=CC=CC1Cl",
        "Molecular Formula": "C<sub>9</sub>H<sub>9</sub>Cl<sub>2</sub>N<sub>3</sub>O.ClH",
        "Molecular Mass": "",
        "Melting Point": "213-216 °C"
    }
}