{
    "cas_no": "542-92-7",
    "key_name": "Cyclopentadiene",
    "cn_name": "环戊二烯;1,3-环戊二烯；茂;",
    "alternate_name": "1,3-Cyclopentadiene;<em>R</em>-Pentine;Pentole;Pyropentylene;Cyclopentadiene",
    "duplicated_cas_no": "26912-33-4;2351150-22-4",
    "SMILES": "C1C=CC=C1",
    "meta_data": {
        "InChI": "InChI=1S/C5H6/c1-2-4-5-3-1/h1-4H,5H2",
        "InChIKey": null,
        "Canonical SMILES": "C=1C=CCC1",
        "Molecular Formula": "C<sub>5</sub>H<sub>6</sub>",
        "Molecular Mass": "66.10",
        "Boiling Point": "41.5-42.1 °C @ Press: 760 Torr",
        "Melting Point": "-85 °C",
        "Density": "0.8021 g/cm³ @ Temp: 20 °C"
    }
}