{
    "cas_no": "2140-29-6",
    "key_name": "Kojibiose",
    "cn_name": null,
    "alternate_name": "<span class=\"text-smallcaps\">D</smallcap>-Glucose, 2-<em>O</em>-α-<smallcap>D</span>-glucopyranosyl-;Kojibiose;2-<em>O</em>-α-<span class=\"text-smallcaps\">D</smallcap>-Glucopyranosyl-<smallcap>D</span>-glucose",
    "duplicated_cas_no": "67253-03-6",
    "SMILES": "O([C@H]([C@H]([C@@H]([C@@H](CO)O)O)O)C=O)[C@H]1O[C@H](CO)[C@@H](O)[C@H](O)[C@H]1O",
    "meta_data": {
        "InChI": "InChI=1S/C12H22O11/c13-1-4(16)7(17)8(18)5(2-14)22-12-11(21)10(20)9(19)6(3-15)23-12/h2,4-13,15-21H,1,3H2/t4-,5+,6-,7-,8-,9-,10+,11-,12+/m1/s1",
        "InChIKey": null,
        "Canonical SMILES": "O=CC(OC1OC(CO)C(O)C(O)C1O)C(O)C(O)C(O)CO",
        "Molecular Formula": "C<sub>12</sub>H<sub>22</sub>O<sub>11</sub>",
        "Molecular Mass": "342.30",
        "Melting Point": "174.5 °C",
        "Density": "1.34 g/cm³"
    }
}