{
    "cas_no": "103-23-1",
    "key_name": "Bis(2-ethylhexyl) adipate",
    "cn_name": "己二酸二(2-乙基己)酯;己二酸二乙基己基酯;己二酸二辛酯;己二酸二异辛酯;DEHA;",
    "alternate_name": "Hexanedioic acid, 1,6-bis(2-ethylhexyl) ester;Adipic acid, bis(2-ethylhexyl) ester;Hexanedioic acid, bis(2-ethylhexyl) ester;Adipol 2EH;Bis(2-ethylhexyl) adipate;Bisoflex DOA;DOA;Monoplex DOA;Truflex DOA;Plastomoll DOA;Dioctyl adipate;Octyl adipate;Sicol 250;Di(2-ethylhexyl) adipate;Flexol A 26;Witamol 320;Effomoll DOA;Vestinol OA;Kodaflex DOA;Wickenol 158;Ergoplast AdDO;Diethylhexyl adipate;Lankroflex DOA;Effomoll DA;Sansocizer DOA;Reomol DOA;Jayflex DOA 2;Hatcol 2908;ADO;ADO (lubricating oil);Crodamol DOA;Plasthall DOA;Diacizer DOA;Adimoll DO;Arlamol DOA;USS 700;K 3220;Dermol DOA;Vistone A 10;SP 100;SP 100 (solvent);NSC 56775;Adipic acid diester with 2-ethylhexanol;Plastimoll DOA;Dub Doa;Oxsoft DOA;Monocizer DOA;Cereplast DOA;Tubisoft VST;Fineneo-EHA;DOA-S",
    "duplicated_cas_no": "39393-67-4;63637-48-9;70147-21-6;2093095-12-4",
    "SMILES": "C(COC(CCCCC(OCC(CCCC)CC)=O)=O)(CCCC)CC",
    "meta_data": {
        "InChI": "InChI=1S/C22H42O4/c1-5-9-13-19(7-3)17-25-21(23)15-11-12-16-22(24)26-18-20(8-4)14-10-6-2/h19-20H,5-18H2,1-4H3",
        "InChIKey": null,
        "Canonical SMILES": "O=C(OCC(CC)CCCC)CCCCC(=O)OCC(CC)CCCC",
        "Molecular Formula": "C<sub>22</sub>H<sub>42</sub>O<sub>4</sub>",
        "Molecular Mass": "370.57",
        "Boiling Point": "214 °C @ Press: 5 Torr",
        "Melting Point": "-67.8 °C",
        "Density": "0.922 g/cm³ @ Temp: 25 °C"
    }
}