{
    "cas_no": "86-50-0",
    "key_name": "Azinphos-methyl",
    "cn_name": "保棉磷;甲基谷硫磷Azinphos-methyl;",
    "alternate_name": "Phosphorodithioic acid, <em>O</em>,<em>O</em>-dimethyl <em>S</em>-[(4-oxo-1,2,3-benzotriazin-3(4<em>H</em>)-yl)methyl] ester;Phosphorodithioic acid, <em>O</em>,<em>O</em>-dimethyl ester, <em>S</em>-ester with 3-(mercaptomethyl)-1,2,3-benzotriazin-4(3<em>H</em>)-one;1,2,3-Benzotriazine, phosphorodithioic acid deriv.;Bayer 17147;ENT 23,233;<em>S</em>-(3,4-Dihydro-4-oxo-benzo[<em>d</em>][1,2,3]triazin-3-ylmethyl) <em>O</em>,<em>O</em>-dimethyl phosphorodithioate;<em>S</em>-(3,4-Dihydro-4-oxo-1,2,3-benzotriazin-3-ylmethyl) O,<em>O</em>-dimethyl phosphorodithioate;<em>O</em>,<em>O</em>-Dimethyl S-(4-oxo-3<em>H</em>-1,2,3-benzotriazine-3-methyl)phosphorodithioate;<em>O</em>,<em>O</em>-Dimethyl <em>S</em>-(4-oxobenzotriazino-3-methyl)phosphorodithioate;<em>O</em>,<em>O</em>-Dimethyl <em>S</em>-4-oxo-1,2,3-benzotriazin-3(4<em>H</em>)-ylmethyl phosphorodithioate;<em>O</em>,<em>O</em>-Dimethylphosphorodithioate S-ester with 3-(mercaptomethyl)-1,2,3-benzotriazin-4-(3<em>H</em>)-one;Guthion;3-(Mercaptomethyl)-1,2,3-benzotriazin-4(3<em>H</em>)-one <em>O</em>,<em>O</em>-dimethyl phosphorodithioate <em>S</em>-ester;Azinphos-methyl;Methyl guthion;Cotneon;Azinfos-methyl;Gusathion M;Gusathion 20;Cotnion;Azinphos;Gusathion;Gusathion 25;Methylgusathion;<em>O</em>,<em>O</em>-Dimethyl <em>S</em>-(3,4-dihydro-4-oxo-1,2,3-benzotriazin-3-yl-methyl) dithiophosphate;<em>S</em>-(3,4-Dihydro-4-oxobenzo[<em>d</em>]-1,2,3-triazin-3-ylmethyl) dimethyl phosphorothiolothionate;<em>O</em>,<em>O</em>-Dimethyl <em>S</em>-[4-oxo-1,2,3-benzotriazine-3(4<em>H</em>)-ylmethyl] phosphorodithioate;Gusathion-methyl;Methyl-azinphos;Azinphos M;Carfene;Pancide;Toxation;Azinugec;Cotnion-methyl;Sepizin M;Metazintox;BAY 17147;Azimil;Methyltriazothion;MeSH ID: D001387",
    "duplicated_cas_no": "54182-73-9",
    "SMILES": "O=C1C=2C(N=NN1CSP(OC)(OC)=S)=CC=CC2",
    "meta_data": {
        "InChI": "InChI=1S/C10H12N3O3PS2/c1-15-17(18,16-2)19-7-13-10(14)8-5-3-4-6-9(8)11-12-13/h3-6H,7H2,1-2H3",
        "InChIKey": null,
        "Canonical SMILES": "O=C1C=2C=CC=CC2N=NN1CSP(=S)(OC)OC",
        "Molecular Formula": "C<sub>10</sub>H<sub>12</sub>N<sub>3</sub>O<sub>3</sub>PS<sub>2</sub>",
        "Molecular Mass": "317.32",
        "Melting Point": "72-74 °C",
        "Density": "1.44 g/cm³ @ Temp: 20 °C"
    }
}