{
    "cas_no": "24248-69-9",
    "key_name": "2-Amino-4,5,6,7-tetrahydro-6-methylthieno[2,3-<em>c</em>]pyridine-3-carboxamide",
    "cn_name": null,
    "alternate_name": "Thieno[2,3-<em>c</em>]pyridine-3-carboxamide, 2-amino-4,5,6,7-tetrahydro-6-methyl-;2-Amino-4,5,6,7-tetrahydro-6-methylthieno[2,3-<em>c</em>]pyridine-3-carboxamide;2-Amino-6-methyl-4<em>H</em>,5<em>H</em>,6<em>H</em>,7<em>H</em>-thieno[2,3-<em>c</em>]pyridine-3-carboxamide;2-Amino-6-methyl-5,7-dihydro-4<em>H</em>-thieno[2,3-<em>c</em>]pyridine-3-carboxamide;2-Amino-6-methyl-4,5,6,7-tetrahydro-thieno[2,3-<em>c</em>]-pyridine-3-carboxylic acid amide;2-Amino-6-methyl-4,5,6,7-tetrahydrothieno[2,3-<em>c</em>]pyridine-3-carboxamide",
    "duplicated_cas_no": "",
    "SMILES": "C(N)(=O)C=1C2=C(SC1N)CN(C)CC2",
    "meta_data": {
        "InChI": "InChI=1S/C9H13N3OS/c1-12-3-2-5-6(4-12)14-9(11)7(5)8(10)13/h2-4,11H2,1H3,(H2,10,13)",
        "InChIKey": null,
        "Canonical SMILES": "O=C(N)C1=C(SC2=C1CCN(C)C2)N",
        "Molecular Formula": "C<sub>9</sub>H<sub>13</sub>N<sub>3</sub>OS",
        "Molecular Mass": "211.28",
        "Melting Point": "180 °C"
    }
}