{
    "cas_no": "549-23-5",
    "key_name": "Sclerotiorin",
    "cn_name": null,
    "alternate_name": "6<em>H</em>-2-Benzopyran-6,8(7<em>H</em>)-dione, 7-(acetyloxy)-5-chloro-3-[(1<em>E</em>,3<em>E</em>,5<em>S</em>)-3,5-dimethyl-1,3-heptadien-1-yl]-7-methyl-, (7<em>R</em>)-;6<em>H</em>-2-Benzopyran-6,8(7<em>H</em>)-dione, 5-chloro-3-(3,5-dimethyl-1,3-heptadienyl)-7-hydroxy-7-methyl-, acetate;Sclerotiorin;6<em>H</em>-2-Benzopyran-6,8(7<em>H</em>)-dione, 7-(acetyloxy)-5-chloro-3-(3,5-dimethyl-1,3-heptadienyl)-7-methyl-, [<em>R</em>-[<em>R</em>*,<em>S</em>*-(<em>E</em>,<em>E</em>)]]-;6<em>H</em>-2-Benzopyran-6,8(7<em>H</em>)-dione, 7-(acetyloxy)-5-chloro-3-[(1<em>E</em>,3<em>E</em>,5<em>S</em>)-3,5-dimethyl-1,3-heptadienyl]-7-methyl-, (7<em>R</em>)-;(7<em>R</em>)-7-(Acetyloxy)-5-chloro-3-[(1<em>E</em>,3<em>E</em>,5<em>S</em>)-3,5-dimethyl-1,3-heptadien-1-yl]-7-methyl-6<em>H</em>-2-benzopyran-6,8(7<em>H</em>)-dione;(+)-Sclerotiorin",
    "duplicated_cas_no": "4701-87-5;25926-48-1;34725-97-8",
    "SMILES": "O=C1C=2C(=C(Cl)C(=O)[C@@]1(OC(C)=O)C)C=C(/C=C/C(=C/[C@H](CC)C)/C)OC2",
    "meta_data": {
        "InChI": "InChI=1S/C21H23ClO5/c1-6-12(2)9-13(3)7-8-15-10-16-17(11-26-15)19(24)21(5,27-14(4)23)20(25)18(16)22/h7-12H,6H2,1-5H3/b8-7+,13-9+/t12-,21+/m0/s1",
        "InChIKey": null,
        "Canonical SMILES": "O=C(OC1(C(=O)C(Cl)=C2C=C(OC=C2C1=O)C=CC(=CC(C)CC)C)C)C",
        "Molecular Formula": "C<sub>21</sub>H<sub>23</sub>ClO<sub>5</sub>",
        "Molecular Mass": "390.86",
        "Melting Point": "206-207 °C"
    }
}