{
    "cas_no": "5445-19-2",
    "key_name": "Hexanoic acid, 2-bromo-, methyl ester",
    "cn_name": "2-溴己酸甲酯;",
    "alternate_name": "Hexanoic acid, 2-bromo-, methyl ester;Methyl 2-bromohexanoate;Methyl 2-bromocaproate;Methyl (±)-2-bromocaproate;(±)-Methyl 2-bromohexanoate;Methyl α-bromocaproate;NSC 21976;2-Bromohexanoic acid methyl ester",
    "duplicated_cas_no": "70288-61-8",
    "SMILES": "C(C(OC)=O)(CCCC)Br",
    "meta_data": {
        "InChI": "InChI=1S/C7H13BrO2/c1-3-4-5-6(8)7(9)10-2/h6H,3-5H2,1-2H3",
        "InChIKey": null,
        "Canonical SMILES": "O=C(OC)C(Br)CCCC",
        "Molecular Formula": "C<sub>7</sub>H<sub>13</sub>BrO<sub>2</sub>",
        "Molecular Mass": "209.08",
        "Boiling Point": "86 °C @ Press: 12 Torr",
        "Density": "1.2734 g/cm³ @ Temp: 25 °C"
    }
}