{
    "cas_no": "5593-20-4",
    "key_name": "Betamethasone dipropionate",
    "cn_name": "倍他米松二丙酸酯;",
    "alternate_name": "Pregna-1,4-diene-3,20-dione, 9-fluoro-11-hydroxy-16-methyl-17,21-bis(1-oxopropoxy)-, (11β,16β)-;Pregna-1,4-diene-3,20-dione, 9-fluoro-11β,17,21-trihydroxy-16β-methyl-, 17,21-dipropionate;(11β,16β)-9-Fluoro-11-hydroxy-16-methyl-17,21-bis(1-oxopropoxy)pregna-1,4-diene-3,20-dione;β-Methasone 17,21-dipropionate;Betamethasone dipropionate;Diprosone;S 3440;Diproderm;Betamethasone 17,21-dipropionate;Diprolene;Diprosis;Psorion;Maxivate;Rinderon DP;Diprophos;Sch 11460;Diprospan;Diprosen",
    "duplicated_cas_no": "",
    "SMILES": "C(COC(CC)=O)(=O)[C@]1(OC(CC)=O)[C@]2(C)[C@@](C[C@@H]1C)([C@]3([C@](F)([C@@H](O)C2)[C@]4(C)C(CC3)=CC(=O)C=C4)[H])[H]",
    "meta_data": {
        "InChI": "InChI=1S/C28H37FO7/c1-6-23(33)35-15-22(32)28(36-24(34)7-2)16(3)12-20-19-9-8-17-13-18(30)10-11-25(17,4)27(19,29)21(31)14-26(20,28)5/h10-11,13,16,19-21,31H,6-9,12,14-15H2,1-5H3/t16-,19-,20-,21-,25-,26-,27-,28-/m0/s1",
        "InChIKey": null,
        "Canonical SMILES": "O=C1C=CC2(C(=C1)CCC3C4CC(C)C(OC(=O)CC)(C(=O)COC(=O)CC)C4(C)CC(O)C32F)C",
        "Molecular Formula": "C<sub>28</sub>H<sub>37</sub>FO<sub>7</sub>",
        "Molecular Mass": "504.59",
        "Melting Point": "232 °C (decomp)"
    }
}