{
    "cas_no": "10241-05-1",
    "key_name": "Molybdenum pentachloride",
    "cn_name": "五氯化钼;钼MO;",
    "alternate_name": "Molybdenum chloride (MoCl<sub>5</sub>);Molybdenum pentachloride;Pentachloromolybdenum;Molybdenum(V) chloride;Molybdenum carbide (MoC<sub>15</sub>)",
    "duplicated_cas_no": "3017159-10-0",
    "SMILES": "[Mo](Cl)(Cl)(Cl)(Cl)Cl",
    "meta_data": {
        "InChI": "InChI=1S/5ClH.Mo/h5*1H;/q;;;;;+5/p-5",
        "InChIKey": null,
        "Canonical SMILES": "Cl[Mo](Cl)(Cl)(Cl)Cl",
        "Molecular Formula": "Cl<sub>5</sub>Mo",
        "Molecular Mass": "",
        "Boiling Point": "268 °C",
        "Melting Point": "194 °C"
    }
}