{
    "cas_no": "2937-50-0",
    "key_name": "Allyl chloroformate",
    "cn_name": "氯甲酸烯丙酯;",
    "alternate_name": "Carbonochloridic acid, 2-propen-1-yl ester;Formic acid, chloro-, allyl ester;Carbonochloridic acid, 2-propenyl ester;Allyl chloroformate;Allyl chlorocarbonate;Allyloxycarbonyl chloride;Chloroformic acid allyl ester;Allyl chloridocarbonate;2-Propenyl chloroformate;Allyl carbonochloridate;2-Propen-1-yl chloroformate",
    "duplicated_cas_no": "560088-71-3",
    "SMILES": "O(C(Cl)=O)CC=C",
    "meta_data": {
        "InChI": "InChI=1S/C4H5ClO2/c1-2-3-7-4(5)6/h2H,1,3H2",
        "InChIKey": null,
        "Canonical SMILES": "O=C(Cl)OCC=C",
        "Molecular Formula": "C<sub>4</sub>H<sub>5</sub>ClO<sub>2</sub>",
        "Molecular Mass": "120.53",
        "Boiling Point": "110 °C @ Press: 760 Torr",
        "Density": "1.1394 g/cm³ @ Temp: 20 °C"
    }
}