{
    "cas_no": "2448-45-5",
    "key_name": "<em>N</em>-(Benzyloxycarbonyl)-<span class=\"text-smallcaps\">D</span>-phenylalanine",
    "cn_name": "N-苄氧羰基-D-苯丙氨酸;",
    "alternate_name": "<span class=\"text-smallcaps\">D</span>-Phenylalanine, <em>N</em>-[(phenylmethoxy)carbonyl]-;Alanine, <em>N</em>-carboxy-3-phenyl-, <em>N</em>-benzyl ester, <span class=\"text-smallcaps\">D</span>-;<em>N</em>-[(Phenylmethoxy)carbonyl]-<span class=\"text-smallcaps\">D</span>-phenylalanine;<em>N</em>-Carbobenzoxy-<span class=\"text-smallcaps\">D</span>-phenylalanine;<em>N</em>-(Benzyloxycarbonyl)-<span class=\"text-smallcaps\">D</span>-phenylalanine;Carbobenzoxy-<span class=\"text-smallcaps\">D</span>-phenylalanine;<em>N</em>-Benzyloxycarbonyl-(<em>R</em>)-phenylalanine;<span class=\"text-smallcaps\">D</span>-(Carbobenzoxy)phenylalanine;Benzyloxycarbonyl-<span class=\"text-smallcaps\">D</span>-phenylalanine;Carbobenzyloxy-<span class=\"text-smallcaps\">D</span>-phenylalanine;(<em>R</em>)-<em>N</em>-(Benzyloxycarbonyl)phenylalanine;<span class=\"text-smallcaps\">D</span>-(Carbobenzyloxy)phenylalanine;<em>N</em>-Carbobenzyloxy-<span class=\"text-smallcaps\">D</span>-phenylalanine;CBZ-<span class=\"text-smallcaps\">D</span>-Phenylalanine;NSC 522449;N-CBZ-<span class=\"text-smallcaps\">D</span>-phenylalanine;(R)-2-(Benzyloxycarbonylamino)-3-phenylpropanoic acid;<em>N</em>-Cbz-<span class=\"text-smallcaps\">D</span>-Phenylalanine;(2R)-3-Phenyl-2-(phenylmethoxycarbonylamino)propanoic acid",
    "duplicated_cas_no": "",
    "SMILES": "[C@H](CC1=CC=CC=C1)(NC(OCC2=CC=CC=C2)=O)C(O)=O",
    "meta_data": {
        "InChI": "InChI=1S/C17H17NO4/c19-16(20)15(11-13-7-3-1-4-8-13)18-17(21)22-12-14-9-5-2-6-10-14/h1-10,15H,11-12H2,(H,18,21)(H,19,20)/t15-/m1/s1",
        "InChIKey": null,
        "Canonical SMILES": "O=C(O)C(NC(=O)OCC=1C=CC=CC1)CC=2C=CC=CC2",
        "Molecular Formula": "C<sub>17</sub>H<sub>17</sub>NO<sub>4</sub>",
        "Molecular Mass": "299.32",
        "Melting Point": "85-88 °C"
    }
}