{
    "cas_no": "13292-22-3",
    "key_name": "3-Formylrifamycin",
    "cn_name": null,
    "alternate_name": "Rifamycin, 3-formyl-;2,7-(Epoxypentadeca[1,11,13]trienimino)naphtho[2,1-<em>b</em>]furan-8-carboxaldehyde, 1,2-dihydro-5,6,9,17,19,21-hexahydroxy-23-methoxy-2,4,12,16,18,20,22-heptamethyl-1,11-dioxo-, 21-acetate;2,7-(Epoxypentadeca[1,11,13]trienimino)naphtho[2,1-<em>b</em>]furan, rifamycin deriv.;3-Formylrifamycin;3-Formylrifamycin SV;3-Formylrifampicin SV;Rifaldehyde;NCI 145-635;Rifamycin AF",
    "duplicated_cas_no": "30627-90-8;71795-12-5;1195640-82-4",
    "SMILES": "",
    "meta_data": {
        "InChI": "",
        "InChIKey": null,
        "Canonical SMILES": "",
        "Molecular Formula": "C<sub>38</sub>H<sub>47</sub>NO<sub>13</sub>",
        "Molecular Mass": "725.78",
        "Melting Point": "180-185 °C (decomp)"
    }
}