{
    "cas_no": "566-48-3",
    "key_name": "Formestane",
    "cn_name": "福美司坦;4-羟基雄甾烷-4-烯-3,17-二酮;",
    "alternate_name": "Androst-4-ene-3,17-dione, 4-hydroxy-;4-Hydroxyandrost-4-ene-3,17-dione;CGP 32349;4-Hydroxyandrostenedione;4-Hydroxyandrostene-3,17-dione;Formestane;Lentaron;4-OHA;CRC 82/01;4-HAD;NSC 282175",
    "duplicated_cas_no": "127128-20-5",
    "SMILES": "C[C@@]12[C@@]3([C@]([C@]4([C@](C)(CC3)C(=O)CC4)[H])(CCC1=C(O)C(=O)CC2)[H])[H]",
    "meta_data": {
        "InChI": "InChI=1S/C19H26O3/c1-18-10-8-15(20)17(22)14(18)4-3-11-12-5-6-16(21)19(12,2)9-7-13(11)18/h11-13,22H,3-10H2,1-2H3/t11-,12-,13-,18+,19-/m0/s1",
        "InChIKey": null,
        "Canonical SMILES": "O=C1C(O)=C2CCC3C4CCC(=O)C4(C)CCC3C2(C)CC1",
        "Molecular Formula": "C<sub>19</sub>H<sub>26</sub>O<sub>3</sub>",
        "Molecular Mass": "302.41",
        "Melting Point": "199-202 °C"
    }
}