{
    "cas_no": "55627-73-1",
    "key_name": "8-Bromoinosine",
    "cn_name": "8-溴肌苷;",
    "alternate_name": "Inosine, 8-bromo-;8-Bromoinosine;SQ 22056;NSC 237840;Chembridge 5482485;8-Bromo-9-[3,4-dihydroxy-5-(hydroxymethyl)oxolan-2-yl]-1<em>H</em>-purin-6-one;8-Bromo-9-[3,4-dihydroxy-5-(hydroxymethyl)oxolan-2-yl]-3<em>H</em>-purin-6-one;8-Bromo-9-[3,4-dihydroxy-5-(hydroxymethyl)tetrahydro-2-furanyl]-1,9-dihydro-6<em>H</em>-purin-6-one",
    "duplicated_cas_no": "59168-43-3;1093852-16-4",
    "SMILES": "BrC=1N(C2=C(N1)C(=O)N=CN2)[C@@H]3O[C@H](CO)[C@@H](O)[C@H]3O",
    "meta_data": {
        "InChI": "InChI=1S/C10H11BrN4O5/c11-10-14-4-7(12-2-13-8(4)19)15(10)9-6(18)5(17)3(1-16)20-9/h2-3,5-6,9,16-18H,1H2,(H,12,13,19)/t3-,5-,6-,9-/m1/s1",
        "InChIKey": null,
        "Canonical SMILES": "O=C1N=CNC2=C1N=C(Br)N2C3OC(CO)C(O)C3O",
        "Molecular Formula": "C<sub>10</sub>H<sub>11</sub>BrN<sub>4</sub>O<sub>5</sub>",
        "Molecular Mass": "347.12",
        "Melting Point": "196-198 °C"
    }
}