{
    "cas_no": "633-35-2",
    "key_name": "Androsta-1,4,6-triene-3,17-dione",
    "cn_name": null,
    "alternate_name": "Androsta-1,4,6-triene-3,17-dione;Δ<sup>1,4,6</sup>-Androstriene-3,17-dione;1,4,6-Androstatrien-3,17-dione;Androstatrienedione",
    "duplicated_cas_no": "",
    "SMILES": "C[C@@]12[C@@]3([C@]([C@]4([C@](C)(CC3)C(=O)CC4)[H])(C=CC1=CC(=O)C=C2)[H])[H]",
    "meta_data": {
        "InChI": "InChI=1S/C19H22O2/c1-18-9-7-13(20)11-12(18)3-4-14-15-5-6-17(21)19(15,2)10-8-16(14)18/h3-4,7,9,11,14-16H,5-6,8,10H2,1-2H3/t14-,15-,16-,18-,19-/m0/s1",
        "InChIKey": null,
        "Canonical SMILES": "O=C1C=CC2(C(C=CC3C2CCC4(C(=O)CCC34)C)=C1)C",
        "Molecular Formula": "C<sub>19</sub>H<sub>22</sub>O<sub>2</sub>",
        "Molecular Mass": "282.38",
        "Melting Point": "165-166 °C"
    }
}