{
    "cas_no": "6434-78-2",
    "key_name": "(2<em>E</em>)-2-Nonene",
    "cn_name": null,
    "alternate_name": "2-Nonene, (2<em>E</em>)-;2-Nonene, (<em>E</em>)-;(2<em>E</em>)-2-Nonene;<em>trans</em>-2-Nonene;(<em>E</em>)-2-Nonene;β-<em>trans</em>-Nonene;(E)-2-Nonene",
    "duplicated_cas_no": "",
    "SMILES": "C(CCCC)C/C=C/C",
    "meta_data": {
        "InChI": "InChI=1S/C9H18/c1-3-5-7-9-8-6-4-2/h3,5H,4,6-9H2,1-2H3/b5-3+",
        "InChIKey": null,
        "Canonical SMILES": "C(=CCCCCCC)C",
        "Molecular Formula": "C<sub>9</sub>H<sub>18</sub>",
        "Molecular Mass": "126.24",
        "Boiling Point": "146-148 °C @ Press: 760 Torr"
    }
}