{
    "cas_no": "942-01-8",
    "key_name": "1,2,3,4-Tetrahydrocarbazole",
    "cn_name": "1,2,3,4-四氢咔唑;",
    "alternate_name": "1<em>H</em>-Carbazole, 2,3,4,9-tetrahydro-;Carbazole, 1,2,3,4-tetrahydro-;2,3,4,9-Tetrahydro-1<em>H</em>-carbazole;1,2,3,4-Tetrahydrocarbazole;2,3-Tetramethyleneindole;2,3-Tetramethylene-1<em>H</em>-indole;1<em>H</em>-Indole, 2,3-(1,4-butanediyl)-;1,2,3,4-Tetrahydro-9<em>H</em>-carbazole;2,3,4,9-Tetrahydro-1H-carbazole;NSC 17329;5,6,7,8-Tetrahydro-9<em>H</em>-carbazole",
    "duplicated_cas_no": "1231158-33-0",
    "SMILES": "C=12C=3C(NC1CCCC2)=CC=CC3",
    "meta_data": {
        "InChI": "InChI=1S/C12H13N/c1-3-7-11-9(5-1)10-6-2-4-8-12(10)13-11/h1,3,5,7,13H,2,4,6,8H2",
        "InChIKey": null,
        "Canonical SMILES": "C=1C=CC2=C(C1)NC3=C2CCCC3",
        "Molecular Formula": "C<sub>12</sub>H<sub>13</sub>N",
        "Molecular Mass": "171.24",
        "Boiling Point": "327.5 °C",
        "Melting Point": "120 °C"
    }
}