{
    "cas_no": "485-31-4",
    "key_name": "Binapacryl",
    "cn_name": "乐杀螨;乐杀螨;2-仲丁基-4,6-二硝基苯基-3,3-二甲基丙烯酸酯;",
    "alternate_name": "2-Butenoic acid, 3-methyl-, 2-(1-methylpropyl)-4,6-dinitrophenyl ester;Crotonic acid, 3-methyl-, 2-<em>sec</em>-butyl-4,6-dinitrophenyl ester;HOE 2784;NIA 9044;Acricid;Binapacryl;2-<em>sec</em>-Butyl-4,6-dinitrophenyl 3-methyl-2-butenoate;2-(1-Methylpropyl)-4,6-dinitrophenyl β,β-dimethacrylate;Morocide;Niagara 9044;2-<em>sec</em>-Butyl-4,6-dinitrophenyl 3-methylcrotonate;Endosan;Dinapacryl",
    "duplicated_cas_no": "1135443-30-9",
    "SMILES": "O(C(C=C(C)C)=O)C1=C(C(CC)C)C=C(N(=O)=O)C=C1N(=O)=O",
    "meta_data": {
        "InChI": "InChI=1S/C15H18N2O6/c1-5-10(4)12-7-11(16(19)20)8-13(17(21)22)15(12)23-14(18)6-9(2)3/h6-8,10H,5H2,1-4H3",
        "InChIKey": null,
        "Canonical SMILES": "O=C(OC=1C(=CC(=CC1C(C)CC)N(=O)=O)N(=O)=O)C=C(C)C",
        "Molecular Formula": "C<sub>15</sub>H<sub>18</sub>N<sub>2</sub>O<sub>6</sub>",
        "Molecular Mass": "322.31",
        "Melting Point": "66-67 °C",
        "Density": "1.2307 g/cm³ @ Temp: 20 °C"
    }
}