{
    "cas_no": "94-45-1",
    "key_name": "2-Amino-6-ethoxybenzothiazole",
    "cn_name": "2-氨基-6-乙氧基苯并噻唑;",
    "alternate_name": "2-Benzothiazolamine, 6-ethoxy-;Benzothiazole, 2-amino-6-ethoxy-;Benzothiazole, 1-amino-5-ethoxy-;6-Ethoxy-2-benzothiazolamine;2-Amino-6-ethoxybenzothiazole;6-Ethoxy-2-aminobenzothiazole;6-Ethoxy-1,3-benzothiazol-2-ylamine;NSC 28731;(6-Ethoxybenzothiazol-2-yl)amine;6-Ethoxybenzo[<em>d</em>]thiazol-2-amine;6-Ethoxy-1,3-benzothiazol-2-amine",
    "duplicated_cas_no": "",
    "SMILES": "NC1=NC=2C(=CC(OCC)=CC2)S1",
    "meta_data": {
        "InChI": "InChI=1S/C9H10N2OS/c1-2-12-6-3-4-7-8(5-6)13-9(10)11-7/h3-5H,2H2,1H3,(H2,10,11)",
        "InChIKey": null,
        "Canonical SMILES": "N1=C(SC=2C=C(OCC)C=CC12)N",
        "Molecular Formula": "C<sub>9</sub>H<sub>10</sub>N<sub>2</sub>OS",
        "Molecular Mass": "194.25",
        "Melting Point": "161-162 °C"
    }
}