{
    "cas_no": "60966-26-9",
    "key_name": "2′-Amino-2′-deoxyguanosine",
    "cn_name": "2\"-氨基-2\"-脱氧鸟苷;",
    "alternate_name": "Guanosine, 2′-amino-2′-deoxy-;2′-Amino-2′-deoxyguanosine;(2′-Amino-2′-deoxypentofuranosyl)guanine;2′-Deoxy-2′-aminoguanosine;NSC 241514;2′-amino-guanosine",
    "duplicated_cas_no": "",
    "SMILES": "O=C1C2=C(N(C=N2)[C@@H]3O[C@H](CO)[C@@H](O)[C@H]3N)NC(N)=N1",
    "meta_data": {
        "InChI": "InChI=1S/C10H14N6O4/c11-4-6(18)3(1-17)20-9(4)16-2-13-5-7(16)14-10(12)15-8(5)19/h2-4,6,9,17-18H,1,11H2,(H3,12,14,15,19)/t3-,4-,6-,9-/m1/s1",
        "InChIKey": null,
        "Canonical SMILES": "O=C1N=C(N)NC2=C1N=CN2C3OC(CO)C(O)C3N",
        "Molecular Formula": "C<sub>10</sub>H<sub>14</sub>N<sub>6</sub>O<sub>4</sub>",
        "Molecular Mass": "282.26",
        "Melting Point": "252-254 °C"
    }
}