{
    "cas_no": "13331-27-6",
    "key_name": "3-Nitrophenylboronic acid",
    "cn_name": "3-硝基苯硼酸;3-硝基苯基硼酸;",
    "alternate_name": "Boronic acid, <em>B</em>-(3-nitrophenyl)-;Benzeneboronic acid, <em>m</em>-nitro-;Boronic acid, (3-nitrophenyl)-;<em>B</em>-(3-Nitrophenyl)boronic acid;<em>m</em>-Nitrobenzeneboronic acid;3-Nitrobenzeneboronic acid;<em>m</em>-Nitrophenylboronic acid;3-Nitrophenylboronic acid;NSC 401539;NSC 59739;Boronic acid, <em>B</em>-[3-(dihydroxyamino)phenyl]-;<em>B</em>-[3-(Dihydroxyamino)phenyl]boronic acid",
    "duplicated_cas_no": "1024020-75-4",
    "SMILES": "B(O)(O)C1=CC(N(=O)=O)=CC=C1",
    "meta_data": {
        "InChI": "InChI=1S/C6H6BNO4/c9-7(10)5-2-1-3-6(4-5)8(11)12/h1-4,9-10H",
        "InChIKey": null,
        "Canonical SMILES": "O=N(=O)C=1C=CC=C(C1)B(O)O",
        "Molecular Formula": "C<sub>6</sub>H<sub>6</sub>BNO<sub>4</sub>",
        "Molecular Mass": "166.93",
        "Melting Point": "282-286 °C"
    }
}