{
    "cas_no": "140-77-2",
    "key_name": "Cyclopentanepropanoic acid",
    "cn_name": "3-环戊基丙酸;",
    "alternate_name": "Cyclopentanepropanoic acid;Cyclopentanepropionic acid;3-Cyclopentylpropionic acid;Cyclopentylpropionic acid;3-Cyclopentylpropanoic acid;NSC 8771;Cypionic acid",
    "duplicated_cas_no": "",
    "SMILES": "C(CC(O)=O)C1CCCC1",
    "meta_data": {
        "InChI": "InChI=1S/C8H14O2/c9-8(10)6-5-7-3-1-2-4-7/h7H,1-6H2,(H,9,10)",
        "InChIKey": null,
        "Canonical SMILES": "O=C(O)CCC1CCCC1",
        "Molecular Formula": "C<sub>8</sub>H<sub>14</sub>O<sub>2</sub>",
        "Molecular Mass": "142.20",
        "Boiling Point": "130-132 °C",
        "Melting Point": "131 °C",
        "Density": "1.01 g/cm³ @ Temp: 17.4 °C"
    }
}