{
    "cas_no": "76-67-5",
    "key_name": "1,3-Diethyl 2-ethyl-2-phenylpropanedioate",
    "cn_name": "苯基乙基丙二酸二乙酯;",
    "alternate_name": "Propanedioic acid, 2-ethyl-2-phenyl-, 1,3-diethyl ester;Malonic acid, ethylphenyl-, diethyl ester;Propanedioic acid, ethylphenyl-, diethyl ester;1,3-Diethyl 2-ethyl-2-phenylpropanedioate;Diethyl ethylphenylmalonate;Diethyl 2-ethyl-2-phenylmalonate;NSC 5631",
    "duplicated_cas_no": "",
    "SMILES": "C(C(OCC)=O)(C(OCC)=O)(CC)C1=CC=CC=C1",
    "meta_data": {
        "InChI": "InChI=1S/C15H20O4/c1-4-15(13(16)18-5-2,14(17)19-6-3)12-10-8-7-9-11-12/h7-11H,4-6H2,1-3H3",
        "InChIKey": null,
        "Canonical SMILES": "O=C(OCC)C(C(=O)OCC)(C=1C=CC=CC1)CC",
        "Molecular Formula": "C<sub>15</sub>H<sub>20</sub>O<sub>4</sub>",
        "Molecular Mass": "264.32",
        "Boiling Point": "146-150 °C @ Press: 5-6 Torr",
        "Melting Point": "-9--7 °C",
        "Density": "1.068 g/cm³ @ Temp: 20 °C"
    }
}