{
    "cas_no": "394-27-4",
    "key_name": "2-(Acetylamino)-4-fluorobenzoic acid",
    "cn_name": "4-乙酰胺基-4-氟苯甲酸;",
    "alternate_name": "Benzoic acid, 2-(acetylamino)-4-fluoro-;Anthranilic acid, <em>N</em>-acetyl-4-fluoro-;2-(Acetylamino)-4-fluorobenzoic acid;<em>N</em>-Acetyl-4-fluoroanthranilic acid;2-Acetamido-4-fluorobenzoic acid",
    "duplicated_cas_no": "",
    "SMILES": "C(O)(=O)C1=C(NC(C)=O)C=C(F)C=C1",
    "meta_data": {
        "InChI": "InChI=1S/C9H8FNO3/c1-5(12)11-8-4-6(10)2-3-7(8)9(13)14/h2-4H,1H3,(H,11,12)(H,13,14)",
        "InChIKey": null,
        "Canonical SMILES": "O=C(O)C1=CC=C(F)C=C1NC(=O)C",
        "Molecular Formula": "C<sub>9</sub>H<sub>8</sub>FNO<sub>3</sub>",
        "Molecular Mass": "197.16",
        "Melting Point": "212.5-214.5 °C"
    }
}