{
    "cas_no": "6237-96-3",
    "key_name": "4,6-Dichloro-2-ethyl-5-pyrimidinamine",
    "cn_name": null,
    "alternate_name": "5-Pyrimidinamine, 4,6-dichloro-2-ethyl-;Pyrimidine, 5-amino-4,6-dichloro-2-ethyl-;4,6-Dichloro-2-ethyl-5-pyrimidinamine;4,6-Dichloro-2-ethylpyrimidin-5-amine",
    "duplicated_cas_no": "",
    "SMILES": "C(C)C=1N=C(Cl)C(N)=C(Cl)N1",
    "meta_data": {
        "InChI": "InChI=1S/C6H7Cl2N3/c1-2-3-10-5(7)4(9)6(8)11-3/h2,9H2,1H3",
        "InChIKey": null,
        "Canonical SMILES": "ClC=1N=C(N=C(Cl)C1N)CC",
        "Molecular Formula": "C<sub>6</sub>H<sub>7</sub>Cl<sub>2</sub>N<sub>3</sub>",
        "Molecular Mass": "192.05",
        "Boiling Point": "86 °C @ Press: 0.3 Torr"
    }
}