{
    "cas_no": "17928-28-8",
    "key_name": "Methyltris(trimethylsiloxy)silane",
    "cn_name": "甲基三(三甲基硅氧烷基)硅烷;",
    "alternate_name": "Trisiloxane, 1,1,1,3,5,5,5-heptamethyl-3-[(trimethylsilyl)oxy]-;Trisiloxane, 1,1,1,3,5,5,5-heptamethyl-3-(trimethylsiloxy)-;1,1,1,3,5,5,5-Heptamethyl-3-[(trimethylsilyl)oxy]trisiloxane;Methyltris(trimethylsiloxy)silane;1,1,1,3,5,5,5-Heptamethyl-3-(trimethylsiloxy)trisiloxane;Tris(trimethylsiloxy)methylsilane;TMF 1.5",
    "duplicated_cas_no": "500992-37-0",
    "SMILES": "O([Si](O[Si](C)(C)C)(O[Si](C)(C)C)C)[Si](C)(C)C",
    "meta_data": {
        "InChI": "InChI=1S/C10H30O3Si4/c1-14(2,3)11-17(10,12-15(4,5)6)13-16(7,8)9/h1-10H3",
        "InChIKey": null,
        "Canonical SMILES": "O([Si](O[Si](C)(C)C)(O[Si](C)(C)C)C)[Si](C)(C)C",
        "Molecular Formula": "C<sub>10</sub>H<sub>30</sub>O<sub>3</sub>Si<sub>4</sub>",
        "Molecular Mass": "310.69",
        "Boiling Point": "60 °C @ Press: 6 Torr",
        "Melting Point": "-74 °C",
        "Density": "0.849 g/cm³"
    }
}