{
    "cas_no": "6871-21-2",
    "key_name": "Asimilobine",
    "cn_name": null,
    "alternate_name": "4<em>H</em>-Dibenzo[<em>de</em>,<em>g</em>]quinolin-2-ol, 5,6,6a,7-tetrahydro-1-methoxy-, (6a<em>R</em>)-;Asimilobine;6aβ-Noraporphin-2-ol, 1-methoxy-;4<em>H</em>-Dibenzo[<em>de</em>,<em>g</em>]quinolin-2-ol, 5,6,6a,7-tetrahydro-1-methoxy-, (<em>R</em>)-;(6a<em>R</em>)-5,6,6a,7-Tetrahydro-1-methoxy-4<em>H</em>-dibenzo[<em>de</em>,<em>g</em>]quinolin-2-ol;(-)-Asimilobine",
    "duplicated_cas_no": "",
    "SMILES": "O(C)C1=C2C=3[C@@](CC=4C2=CC=CC4)(NCCC3C=C1O)[H]",
    "meta_data": {
        "InChI": "InChI=1S/C17H17NO2/c1-20-17-14(19)9-11-6-7-18-13-8-10-4-2-3-5-12(10)16(17)15(11)13/h2-5,9,13,18-19H,6-8H2,1H3/t13-/m1/s1",
        "InChIKey": null,
        "Canonical SMILES": "OC=1C=C2C3=C(C1OC)C4=CC=CC=C4CC3NCC2",
        "Molecular Formula": "C<sub>17</sub>H<sub>17</sub>NO<sub>2</sub>",
        "Molecular Mass": "267.32",
        "Melting Point": "177-179 °C"
    }
}