{
    "cas_no": "7440-58-6",
    "key_name": "Hafnium",
    "cn_name": "铪;铪箔;",
    "alternate_name": "Hafnium;Celtium;Hafnium element;GFE 1;MeSH ID: D006195",
    "duplicated_cas_no": "412316-00-8",
    "SMILES": "[Hf]",
    "meta_data": {
        "InChI": "InChI=1S/Hf",
        "InChIKey": null,
        "Canonical SMILES": "[Hf]",
        "Molecular Formula": "Hf",
        "Molecular Mass": "",
        "Boiling Point": "4602 °C",
        "Melting Point": "2227 °C",
        "Density": "13.31 g/cm³ @ Temp: 20 °C"
    }
}