{
    "cas_no": "766-80-3",
    "key_name": "3-Chlorobenzyl bromide",
    "cn_name": "3-氯苄溴;",
    "alternate_name": "Benzene, 1-(bromomethyl)-3-chloro-;Toluene, α-bromo-<em>m</em>-chloro-;1-(Bromomethyl)-3-chlorobenzene;<em>m</em>-Chlorobenzyl bromide;3-Chlorobenzyl bromide;α-Bromo-<em>m</em>-chlorotoluene;α-Bromo-3-chlorotoluene;NSC 60110;2-(Bromomethyl)-4-chlorobenzene;1-Chloro-3-bromomethylbenzene",
    "duplicated_cas_no": "",
    "SMILES": "C(Br)C1=CC(Cl)=CC=C1",
    "meta_data": {
        "InChI": "InChI=1S/C7H6BrCl/c8-5-6-2-1-3-7(9)4-6/h1-4H,5H2",
        "InChIKey": null,
        "Canonical SMILES": "ClC1=CC=CC(=C1)CBr",
        "Molecular Formula": "C<sub>7</sub>H<sub>6</sub>BrCl",
        "Molecular Mass": "205.48",
        "Boiling Point": "109 °C @ Press: 10 Torr",
        "Melting Point": "15 °C"
    }
}