{
    "cas_no": "3832-48-2",
    "key_name": "2-Bromo-2,2-difluoroacetyl chloride",
    "cn_name": null,
    "alternate_name": "Acetyl chloride, 2-bromo-2,2-difluoro-;Acetyl chloride, bromodifluoro-;2-Bromo-2,2-difluoroacetyl chloride;Bromodifluoroacetyl chloride",
    "duplicated_cas_no": "",
    "SMILES": "C(C(Cl)=O)(Br)(F)F",
    "meta_data": {
        "InChI": "InChI=1S/C2BrClF2O/c3-2(5,6)1(4)7",
        "InChIKey": null,
        "Canonical SMILES": "O=C(Cl)C(F)(F)Br",
        "Molecular Formula": "C<sub>2</sub>BrClF<sub>2</sub>O",
        "Molecular Mass": "193.37",
        "Boiling Point": "50 °C"
    }
}