{
    "cas_no": "77168-83-3",
    "key_name": "4,5-Dihydro-6-methyl-5-oxo-2-pyrazinecarboxylic acid",
    "cn_name": null,
    "alternate_name": "2-Pyrazinecarboxylic acid, 4,5-dihydro-6-methyl-5-oxo-;Pyrazinecarboxylic acid, 4,5-dihydro-6-methyl-5-oxo-;4,5-Dihydro-6-methyl-5-oxo-2-pyrazinecarboxylic acid;6-Methyl-5-hydroxypyrazine-2-carboxylic acid",
    "duplicated_cas_no": "",
    "SMILES": "C(O)(=O)C=1N=C(C)C(=O)NC1",
    "meta_data": {
        "InChI": "InChI=1S/C6H6N2O3/c1-3-5(9)7-2-4(8-3)6(10)11/h2H,1H3,(H,7,9)(H,10,11)",
        "InChIKey": null,
        "Canonical SMILES": "O=C(O)C=1N=C(C(=O)NC1)C",
        "Molecular Formula": "C<sub>6</sub>H<sub>6</sub>N<sub>2</sub>O<sub>3</sub>",
        "Molecular Mass": "154.12",
        "Melting Point": "&gt;300 °C"
    }
}