{
    "cas_no": "15481-39-7",
    "key_name": "1,4-Dioxane, compd. with bromine (1:1)",
    "cn_name": "溴-1,4-二氧六环复合物;",
    "alternate_name": "1,4-Dioxane, compd. with bromine (1:1);<em>p</em>-Dioxane, compd. with bromine (1:1);<em>p</em>-Dioxane, dibromide;Bromine, compd. with <em>p</em>-dioxane (1:1);Bromine, compd. with 1,4-dioxane (1:1);Dioxane bromonium bromide;Dioxane dibromide;Bromine-dioxane complex (1:1);Bromine-dioxane (1:1);NSC 80646",
    "duplicated_cas_no": "21992-70-1",
    "SMILES": "BrBr.C1COCCO1",
    "meta_data": {
        "InChI": "InChI=1S/C4H8O2.Br2/c1-2-6-4-3-5-1;1-2/h1-4H2;",
        "InChIKey": null,
        "Canonical SMILES": "BrBr.O1CCOCC1",
        "Molecular Formula": "C<sub>4</sub>H<sub>8</sub>O<sub>2</sub>.Br<sub>2</sub>",
        "Molecular Mass": "",
        "Melting Point": "60-61 °C"
    }
}