{
    "cas_no": "928-55-2",
    "key_name": "Ethyl 1-propenyl ether",
    "cn_name": "乙基丙烯醚;乙基丙烯基醚;",
    "alternate_name": "1-Propene, 1-ethoxy-;Ether, ethyl propenyl;1-Ethoxy-1-propene;Ethyl 1-propenyl ether;Ethyl propenyl ether;1-Ethoxypropene;NSC 6107;(1-Propen-1-yloxy)ethane;Ethyl 1-propen-1-yl ether",
    "duplicated_cas_no": "",
    "SMILES": "C(OCC)=CC",
    "meta_data": {
        "InChI": "InChI=1S/C5H10O/c1-3-5-6-4-2/h3,5H,4H2,1-2H3",
        "InChIKey": null,
        "Canonical SMILES": "O(C=CC)CC",
        "Molecular Formula": "C<sub>5</sub>H<sub>10</sub>O",
        "Molecular Mass": "86.13",
        "Boiling Point": "69 °C",
        "Density": "0.7754 g/cm³ @ Temp: 0 °C"
    }
}