{
    "cas_no": "570-05-8",
    "key_name": "2,5-Dimethyl-1-[4-(trifluoromethyl)phenyl]-1<em>H</em>-pyrrole",
    "cn_name": null,
    "alternate_name": "1<em>H</em>-Pyrrole, 2,5-dimethyl-1-[4-(trifluoromethyl)phenyl]-;Pyrrole, 2,5-dimethyl-1-(α,α,α-trifluoro-<em>p</em>-tolyl)-;2,5-Dimethyl-1-[4-(trifluoromethyl)phenyl]-1<em>H</em>-pyrrole",
    "duplicated_cas_no": "",
    "SMILES": "CC=1N(C(C)=CC1)C2=CC=C(C(F)(F)F)C=C2",
    "meta_data": {
        "InChI": "InChI=1S/C13H12F3N/c1-9-3-4-10(2)17(9)12-7-5-11(6-8-12)13(14,15)16/h3-8H,1-2H3",
        "InChIKey": null,
        "Canonical SMILES": "FC(F)(F)C1=CC=C(C=C1)N2C(=CC=C2C)C",
        "Molecular Formula": "C<sub>13</sub>H<sub>12</sub>F<sub>3</sub>N",
        "Molecular Mass": "239.24",
        "Melting Point": "52 °C"
    }
}