{
    "cas_no": "149-44-0",
    "key_name": "Rongalite",
    "cn_name": "吊白块;羟基甲亚磺酸单钠盐;甲醛次硫酸氢钠;雕白块;",
    "alternate_name": "Methanesulfinic acid, 1-hydroxy-, sodium salt (1:1);Sodium formaldehydesulfoxylate;Methanesulfinic acid, hydroxy-, monosodium salt;Formaldehyde sodium sulfoxylate;Formopan;Hydrolit;Hydroxymethanesulfinic acid sodium salt;Rongalit;Rongalit C;Rongalite;Rongalite C;Sodium hydroxymethanesulfinate;Sodium sulfoxylate formaldehyde;Sodium (hydroxymethyl)sulfinate;Formaldehydesulfoxylic acid sodium salt;Sodium methanalsulfoxylate;Aldanil;Formapon;Leptacid;C.I. Reducing Agent 2;Redol C;Rodite;Leptacit;Bleachit D;Superlite C;NSC 4847;NSC 78331;Cosmolit;Formaldehyde-sodium hydrogen sulfite;Langqielie C;Bruggolite E 01;Bruggolit E 01;Bruggolite SFS;Bruggolite C;Rongolite C;ST;ST (Rongalite);SFS;Rongalite SFS",
    "duplicated_cas_no": "15193-20-1;15678-57-6;38563-80-3;59348-48-0;69346-14-1;134036-48-9;1085937-62-7;1129303-06-5",
    "SMILES": "S(CO)(=O)O.[Na]",
    "meta_data": {
        "InChI": "InChI=1S/CH4O3S.Na/c2-1-5(3)4;/h2H,1H2,(H,3,4);",
        "InChIKey": null,
        "Canonical SMILES": "[Na].O=S(O)CO",
        "Molecular Formula": "CH<sub>4</sub>O<sub>3</sub>S.Na",
        "Molecular Mass": "",
        "Melting Point": "63-64 °C"
    }
}