{
    "cas_no": "13504-85-3",
    "key_name": "1-(Phenylmethyl) (2<em>S</em>,4<em>R</em>)-4-hydroxy-1,2-pyrrolidinedicarboxylate",
    "cn_name": "Cbz-L-羟脯氨酸;N-苄氧羰基-L-羟脯氨酸;",
    "alternate_name": "1,2-Pyrrolidinedicarboxylic acid, 4-hydroxy-, 1-(phenylmethyl) ester, (2<em>S</em>,4<em>R</em>)-;1,2-Pyrrolidinedicarboxylic acid, 4-hydroxy-, 1-benzyl ester, <span class=\"text-smallcaps\">L</span>-<em>trans</em>-;1,2-Pyrrolidinedicarboxylic acid, 4-hydroxy-, 1-(phenylmethyl) ester, (2<em>S</em>-<em>trans</em>)-;1-(Phenylmethyl) (2<em>S</em>,4<em>R</em>)-4-hydroxy-1,2-pyrrolidinedicarboxylate;1-(Benzyloxycarbonyl)-4-hydroxy-<span class=\"text-smallcaps\">L</span>-proline;<em>N</em>-Carbobenzoxy-4-hydroxy-<span class=\"text-smallcaps\">L</span>-proline;<em>N</em>-(Benzyloxycarbonyl)-<em>trans</em>-4-hydroxy-<span class=\"text-smallcaps\">L</span>-proline;1-(Benzyloxycarbonyl)-<em>trans</em>-4-hydroxy-(<em>S</em>)-proline;<em>trans</em>-<em>N</em>-(Benzyloxycarbonyl)-4-hydroxy-<span class=\"text-smallcaps\">L</span>-proline;4-(<em>R</em>)-Hydroxy-1-(phenylmethoxycarbonyl)-<span class=\"text-smallcaps\">L</span>-proline;(2<em>S</em>,4<em>R</em>)-4-Hydroxypyrrolidine-1,2-dicarboxylic acid 1-benzyl ester;(2<em>S</em>,4<em>R</em>)-1-[(Benzyloxy)carbonyl]-4-hydroxy-2-pyrrolidinecarboxylic acid;(2<em>S</em>,4<em>R</em>)-1-(Benzyloxycarbonyl)-4-hydroxyproline;(2S,4R)-1-((Benzyloxy)carbonyl)-4-hydroxypyrrolidine-2-carboxylic Acid",
    "duplicated_cas_no": "",
    "SMILES": "C(OCC1=CC=CC=C1)(=O)N2[C@H](C(O)=O)C[C@@H](O)C2",
    "meta_data": {
        "InChI": "InChI=1S/C13H15NO5/c15-10-6-11(12(16)17)14(7-10)13(18)19-8-9-4-2-1-3-5-9/h1-5,10-11,15H,6-8H2,(H,16,17)/t10-,11+/m1/s1",
        "InChIKey": null,
        "Canonical SMILES": "O=C(O)C1N(C(=O)OCC=2C=CC=CC2)CC(O)C1",
        "Molecular Formula": "C<sub>13</sub>H<sub>15</sub>NO<sub>5</sub>",
        "Molecular Mass": "265.26",
        "Melting Point": "102.2-102.9 °C"
    }
}