{
    "cas_no": "23616-32-2",
    "key_name": "5-Chloro-1,6-naphthyridine",
    "cn_name": null,
    "alternate_name": "1,6-Naphthyridine, 5-chloro-;5-Chloro-1,6-naphthyridine",
    "duplicated_cas_no": "",
    "SMILES": "ClC=1C2=C(C=CN1)N=CC=C2",
    "meta_data": {
        "InChI": "InChI=1S/C8H5ClN2/c9-8-6-2-1-4-10-7(6)3-5-11-8/h1-5H",
        "InChIKey": null,
        "Canonical SMILES": "ClC1=NC=CC=2N=CC=CC12",
        "Molecular Formula": "C<sub>8</sub>H<sub>5</sub>ClN<sub>2</sub>",
        "Molecular Mass": "164.59",
        "Melting Point": "104-105 °C"
    }
}