{
    "cas_no": "28224-73-9",
    "key_name": "1,3:4,6-Di-<em>O</em>-benzylidene-<span class=\"text-smallcaps\">D</span>-mannitol",
    "cn_name": null,
    "alternate_name": "<span class=\"text-smallcaps\">D</span>-Mannitol, 1,3:4,6-bis-<em>O</em>-(phenylmethylene)-;Mannitol, 1,3:4,6-di-<em>O</em>-benzylidene-, <span class=\"text-smallcaps\">D</span>-;1,3:4,6-Bis-<em>O</em>-(phenylmethylene)-<span class=\"text-smallcaps\">D</span>-mannitol;1,3:4,6-Di-<em>O</em>-benzylidene-<span class=\"text-smallcaps\">D</span>-mannitol",
    "duplicated_cas_no": "",
    "SMILES": "O[C@H]1[C@@](OC(OC1)C2=CC=CC=C2)([C@@]3(OC(OC[C@H]3O)C4=CC=CC=C4)[H])[H]",
    "meta_data": {
        "InChI": "InChI=1S/C20H22O6/c21-15-11-23-19(13-7-3-1-4-8-13)25-17(15)18-16(22)12-24-20(26-18)14-9-5-2-6-10-14/h1-10,15-22H,11-12H2/t15-,16-,17-,18-,19?,20?/m1/s1",
        "InChIKey": null,
        "Canonical SMILES": "OC1COC(OC1C2OC(OCC2O)C=3C=CC=CC3)C=4C=CC=CC4",
        "Molecular Formula": "C<sub>20</sub>H<sub>22</sub>O<sub>6</sub>",
        "Molecular Mass": "358.39",
        "Melting Point": "146-149 °C"
    }
}