{
    "cas_no": "16909-11-8",
    "key_name": "3-(3,5-Dimethoxyphenyl)-2-propenoic acid",
    "cn_name": null,
    "alternate_name": "2-Propenoic acid, 3-(3,5-dimethoxyphenyl)-;Cinnamic acid, 3,5-dimethoxy-;3-(3,5-Dimethoxyphenyl)-2-propenoic acid;3,5-Dimethoxycinnamic acid;3-(3,5-Dimethoxyphenyl)acrylic acid",
    "duplicated_cas_no": "",
    "SMILES": "C(=CC(O)=O)C1=CC(OC)=CC(OC)=C1",
    "meta_data": {
        "InChI": "InChI=1S/C11H12O4/c1-14-9-5-8(3-4-11(12)13)6-10(7-9)15-2/h3-7H,1-2H3,(H,12,13)",
        "InChIKey": null,
        "Canonical SMILES": "O=C(O)C=CC=1C=C(OC)C=C(OC)C1",
        "Molecular Formula": "C<sub>11</sub>H<sub>12</sub>O<sub>4</sub>",
        "Molecular Mass": "208.21",
        "Melting Point": "174 °C"
    }
}