{
    "cas_no": "18999-28-5",
    "key_name": "2-Heptenoic acid",
    "cn_name": null,
    "alternate_name": "2-Heptenoic acid;3-Butylacrylic acid",
    "duplicated_cas_no": "",
    "SMILES": "C(=CC(O)=O)CCCC",
    "meta_data": {
        "InChI": "InChI=1S/C7H12O2/c1-2-3-4-5-6-7(8)9/h5-6H,2-4H2,1H3,(H,8,9)",
        "InChIKey": null,
        "Canonical SMILES": "O=C(O)C=CCCCC",
        "Molecular Formula": "C<sub>7</sub>H<sub>12</sub>O<sub>2</sub>",
        "Molecular Mass": "128.17",
        "Boiling Point": "226.5 °C",
        "Melting Point": "-19 °C",
        "Density": "0.9557 g/cm³ @ Temp: 20 °C"
    }
}