{
    "cas_no": "5397-34-2",
    "key_name": "2-[(4-Hydroxyphenyl)sulfonyl]phenol",
    "cn_name": "2,4\"-二羟基二苯砜;",
    "alternate_name": "Phenol, 2-[(4-hydroxyphenyl)sulfonyl]-;Phenol, 2,4′-sulfonyldi-;2-[(4-Hydroxyphenyl)sulfonyl]phenol;4,2′-Dihydroxydiphenyl sulfone;2,4′-Sulfonyldiphenol;2,4′-Dihydroxydiphenyl sulfone;NSC 2432;24BS;2,4′-Bisphenol sulfone;BPS 24;BPS 24C;24 Bisphenol S;2-(4-Hydroxyphenylsulfonyl)phenol;2-(4-Hydroxybenzenesulfonyl)phenol",
    "duplicated_cas_no": "",
    "SMILES": "S(=O)(=O)(C1=C(O)C=CC=C1)C2=CC=C(O)C=C2",
    "meta_data": {
        "InChI": "InChI=1S/C12H10O4S/c13-9-5-7-10(8-6-9)17(15,16)12-4-2-1-3-11(12)14/h1-8,13-14H",
        "InChIKey": null,
        "Canonical SMILES": "O=S(=O)(C1=CC=C(O)C=C1)C=2C=CC=CC2O",
        "Molecular Formula": "C<sub>12</sub>H<sub>10</sub>O<sub>4</sub>S",
        "Molecular Mass": "250.27",
        "Melting Point": "184-185 °C"
    }
}