{
    "cas_no": "96-32-2",
    "key_name": "Bromoacetic acid methyl ester",
    "cn_name": "溴乙酸甲酯;",
    "alternate_name": "Acetic acid, 2-bromo-, methyl ester;Acetic acid, bromo-, methyl ester;Methyl bromoacetate;Bromoacetic acid methyl ester;Methyl α-bromoacetate;Methyl monobromoacetate;Methyl 2-bromoacetate;Carbomethoxymethyl bromide;2-Bromoacetic acid methyl ester;NSC 2642;Methyl 2-bromoethanoate",
    "duplicated_cas_no": "",
    "SMILES": "C(CBr)(OC)=O",
    "meta_data": {
        "InChI": "InChI=1S/C3H5BrO2/c1-6-3(5)2-4/h2H2,1H3",
        "InChIKey": null,
        "Canonical SMILES": "O=C(OC)CBr",
        "Molecular Formula": "C<sub>3</sub>H<sub>5</sub>BrO<sub>2</sub>",
        "Molecular Mass": "152.97",
        "Boiling Point": "132 °C"
    }
}