{
    "cas_no": "5950-12-9",
    "key_name": "Piperlonguminine",
    "cn_name": null,
    "alternate_name": "2,4-Pentadienamide, 5-(1,3-benzodioxol-5-yl)-<em>N</em>-(2-methylpropyl)-, (2<em>E</em>,4<em>E</em>)-;Piperamide, <em>N</em>-isobutyl-;Piperlonguminine;2,4-Pentadienamide, 5-(1,3-benzodioxol-5-yl)-<em>N</em>-(2-methylpropyl)-, (<em>E</em>,<em>E</em>)-;(2<em>E</em>,4<em>E</em>)-5-(1,3-Benzodioxol-5-yl)-<em>N</em>-(2-methylpropyl)-2,4-pentadienamide;Piperlonguminin;<em>N</em>-Isobutylpiperamide;NSC 125178",
    "duplicated_cas_no": "",
    "SMILES": "C(=C/C=C/C(NCC(C)C)=O)\\C=1C=C2C(=CC1)OCO2",
    "meta_data": {
        "InChI": "InChI=1S/C16H19NO3/c1-12(2)10-17-16(18)6-4-3-5-13-7-8-14-15(9-13)20-11-19-14/h3-9,12H,10-11H2,1-2H3,(H,17,18)/b5-3+,6-4+",
        "InChIKey": null,
        "Canonical SMILES": "O=C(C=CC=CC1=CC=C2OCOC2=C1)NCC(C)C",
        "Molecular Formula": "C<sub>16</sub>H<sub>19</sub>NO<sub>3</sub>",
        "Molecular Mass": "273.33",
        "Melting Point": "165-166 °C"
    }
}