{
    "cas_no": "1162-54-5",
    "key_name": "1-Dehydroprogesterone",
    "cn_name": null,
    "alternate_name": "Pregna-1,4-diene-3,20-dione;Δ<sup>1</sup>-Progesterone;1,2-Dehydroprogesterone;1-Dehydroprogesterone;NSC 63538;1,4-Pregnadien-3,20-dione",
    "duplicated_cas_no": "26097-87-0;2602564-78-1",
    "SMILES": "C[C@@]12[C@@]3([C@]([C@]4([C@](C)(CC3)[C@@H](C(C)=O)CC4)[H])(CCC1=CC(=O)C=C2)[H])[H]",
    "meta_data": {
        "InChI": "InChI=1S/C21H28O2/c1-13(22)17-6-7-18-16-5-4-14-12-15(23)8-10-20(14,2)19(16)9-11-21(17,18)3/h8,10,12,16-19H,4-7,9,11H2,1-3H3/t16-,17+,18-,19-,20-,21+/m0/s1",
        "InChIKey": null,
        "Canonical SMILES": "O=C1C=CC2(C(=C1)CCC3C2CCC4(C)C(C(=O)C)CCC34)C",
        "Molecular Formula": "C<sub>21</sub>H<sub>28</sub>O<sub>2</sub>",
        "Molecular Mass": "312.45",
        "Melting Point": "151-152 °C"
    }
}