{
    "cas_no": "20318-30-3",
    "key_name": "(3β,22β,25<em>S</em>)-Spirosol-5-en-3-yl <em>O</em>-6-deoxy-α-<span class=\"text-smallcaps\">L</smallcap>-mannopyranosyl-(1→2)-<em>O</em>-[β-<smallcap>D</smallcap>-glucopyranosyl-(1→3)]-β-<smallcap>D</span>-galactopyranoside",
    "cn_name": null,
    "alternate_name": "β-<span class=\"text-smallcaps\">D</smallcap>-Galactopyranoside, (3β,22β,25<em>S</em>)-spirosol-5-en-3-yl <em>O</em>-6-deoxy-α-<smallcap>L</smallcap>-mannopyranosyl-(1→2)-<em>O</em>-[β-<smallcap>D</span>-glucopyranosyl-(1→3)]-;α-Solamarine;(3β,22β,25<em>S</em>)-Spirosol-5-en-3-yl <em>O</em>-6-deoxy-α-<span class=\"text-smallcaps\">L</smallcap>-mannopyranosyl-(1→2)-<em>O</em>-[β-<smallcap>D</smallcap>-glucopyranosyl-(1→3)]-β-<smallcap>D</span>-galactopyranoside;α-Solamarin",
    "duplicated_cas_no": "107797-54-6;27585-04-2",
    "SMILES": "C[C@@]12[C@@]3([C@](C[C@]1([C@]4([C@](CC2)([C@]5(C)C(=CC4)C[C@@H](O[C@H]6[C@H](O[C@H]7[C@H](O)[C@H](O)[C@@H](O)[C@H](C)O7)[C@@H](O[C@@H]8O[C@H](CO)[C@@H](O)[C@H](O)[C@H]8O)[C@@H](O)[C@@H](CO)O6)CC5)[H])[H])[H])(O[C@]9([C@H]3C)CC[C@H](C)CN9)[H])[H]",
    "meta_data": {
        "InChI": "InChI=1S/C45H73NO16/c1-19-8-13-45(46-16-19)20(2)30-27(62-45)15-26-24-7-6-22-14-23(9-11-43(22,4)25(24)10-12-44(26,30)5)57-42-39(61-40-36(54)34(52)31(49)21(3)56-40)38(33(51)29(18-48)59-42)60-41-37(55)35(53)32(50)28(17-47)58-41/h6,19-21,23-42,46-55H,7-18H2,1-5H3/t19-,20-,21-,23-,24+,25-,26-,27-,28+,29+,30-,31-,32+,33-,34+,35-,36+,37+,38-,39+,40-,41-,42+,43-,44-,45-/m0/s1",
        "InChIKey": null,
        "Canonical SMILES": "OCC1OC(OC2C(O)C(OC(OC3CC4=CCC5C(CCC6(C)C5CC7OC8(NCC(C)CC8)C(C)C76)C4(C)CC3)C2OC9OC(C)C(O)C(O)C9O)CO)C(O)C(O)C1O",
        "Molecular Formula": "C<sub>45</sub>H<sub>73</sub>NO<sub>16</sub>",
        "Molecular Mass": "884.06",
        "Melting Point": "278-281 °C (decomp)"
    }
}