{
    "cas_no": "499-04-7",
    "key_name": "Arecaidine",
    "cn_name": null,
    "alternate_name": "3-Pyridinecarboxylic acid, 1,2,5,6-tetrahydro-1-methyl-;Nicotinic acid, 1,2,5,6-tetrahydro-1-methyl-;Arecaidine;1,2,5,6-Tetrahydro-1-methyl-3-pyridinecarboxylic acid;<em>N</em>-Methylguvacine;NSC 76017;Arecaine;1-Methyl-1,2,5,6-tetrahydropyridine-3-carboxylic acid;1-Methyl-1,2,5,6-tetrahydropyridine-3-carboxylicacid;1-Methyl-1,2,5,6-tetrahydro-pyridine-3-carboxylic acid",
    "duplicated_cas_no": "856052-56-7",
    "SMILES": "C(O)(=O)C=1CN(C)CCC1",
    "meta_data": {
        "InChI": "InChI=1S/C7H11NO2/c1-8-4-2-3-6(5-8)7(9)10/h3H,2,4-5H2,1H3,(H,9,10)",
        "InChIKey": null,
        "Canonical SMILES": "O=C(O)C1=CCCN(C)C1",
        "Molecular Formula": "C<sub>7</sub>H<sub>11</sub>NO<sub>2</sub>",
        "Molecular Mass": "141.17",
        "Boiling Point": "104-112 °C @ Press: 14-16 Torr",
        "Melting Point": "232 °C (decomp)"
    }
}