{
    "cas_no": "2369-18-8",
    "key_name": "2-Fluoro-3-methylpyridine",
    "cn_name": "2-氟-3-甲基吡啶;",
    "alternate_name": "Pyridine, 2-fluoro-3-methyl-;3-Picoline, 2-fluoro-;2-Fluoro-3-methylpyridine;NSC 51591;2-Fluoro-3-picoline",
    "duplicated_cas_no": "",
    "SMILES": "CC1=C(F)N=CC=C1",
    "meta_data": {
        "InChI": "InChI=1S/C6H6FN/c1-5-3-2-4-8-6(5)7/h2-4H,1H3",
        "InChIKey": null,
        "Canonical SMILES": "FC1=NC=CC=C1C",
        "Molecular Formula": "C<sub>6</sub>H<sub>6</sub>FN",
        "Molecular Mass": "111.12",
        "Boiling Point": "150.5-151 °C @ Press: 757 Torr"
    }
}