{
    "cas_no": "1886-57-3",
    "key_name": "1-(1,1-Dimethylethyl)-2-nitrobenzene",
    "cn_name": null,
    "alternate_name": "Benzene, 1-(1,1-dimethylethyl)-2-nitro-;Benzene, 1-<em>tert</em>-butyl-2-nitro-;1-(1,1-Dimethylethyl)-2-nitrobenzene;<em>o</em>-Nitro-<em>tert</em>-butylbenzene;<em>o</em>-<em>tert</em>-Butylnitrobenzene;1-<em>tert</em>-Butyl-2-nitrobenzene;2-<em>tert</em>-Butylnitrobenzene;NSC 43039",
    "duplicated_cas_no": "",
    "SMILES": "C(C)(C)(C)C1=C(N(=O)=O)C=CC=C1",
    "meta_data": {
        "InChI": "InChI=1S/C10H13NO2/c1-10(2,3)8-6-4-5-7-9(8)11(12)13/h4-7H,1-3H3",
        "InChIKey": null,
        "Canonical SMILES": "O=N(=O)C=1C=CC=CC1C(C)(C)C",
        "Molecular Formula": "C<sub>10</sub>H<sub>13</sub>NO<sub>2</sub>",
        "Molecular Mass": "179.22",
        "Boiling Point": "114-115 °C @ Press: 10 Torr",
        "Melting Point": "-2.56 °C"
    }
}