{
    "cas_no": "79-34-5",
    "key_name": "1,1,2,2-Tetrachloroethane",
    "cn_name": "1,1,2,2-四氯乙烷;",
    "alternate_name": "Ethane, 1,1,2,2-tetrachloro-;1,1,2,2-Tetrachloroethane;Acetylene tetrachloride;Bonoform;Cellon;<em>sym</em>-Tetrachloroethane;Tetrachloroethane;<em>s</em>-Tetrachloroethane;1,1,2,2-Tetrachlorethane;1,1,2,2-TCE;TCA;F 130 (halocarbon);F 130;NSC 60912;R 130 (refrigerant);HCC 130",
    "duplicated_cas_no": "",
    "SMILES": "C(C(Cl)Cl)(Cl)Cl",
    "meta_data": {
        "InChI": "InChI=1S/C2H2Cl4/c3-1(4)2(5)6/h1-2H",
        "InChIKey": null,
        "Canonical SMILES": "ClC(Cl)C(Cl)Cl",
        "Molecular Formula": "C<sub>2</sub>H<sub>2</sub>Cl<sub>4</sub>",
        "Molecular Mass": "167.85",
        "Boiling Point": "146 °C",
        "Melting Point": "-43.8 °C",
        "Density": "1.5953 g/cm³ @ Temp: 20 °C"
    }
}