{
    "cas_no": "52980-20-8",
    "key_name": "1,3-Bis(4-aminophenoxy)propane",
    "cn_name": null,
    "alternate_name": "Benzenamine, 4,4′-[1,3-propanediylbis(oxy)]bis-;Aniline, 4,4′-(trimethylenedioxy)di-;4,4′-[1,3-Propanediylbis(oxy)]bis[benzenamine];1,3-Bis(4-aminophenoxy)propane;4-[3-(4-Aminophenoxy)propoxy]aniline",
    "duplicated_cas_no": "",
    "SMILES": "O(CCCOC1=CC=C(N)C=C1)C2=CC=C(N)C=C2",
    "meta_data": {
        "InChI": "InChI=1S/C15H18N2O2/c16-12-2-6-14(7-3-12)18-10-1-11-19-15-8-4-13(17)5-9-15/h2-9H,1,10-11,16-17H2",
        "InChIKey": null,
        "Canonical SMILES": "O(C1=CC=C(N)C=C1)CCCOC2=CC=C(N)C=C2",
        "Molecular Formula": "C<sub>15</sub>H<sub>18</sub>N<sub>2</sub>O<sub>2</sub>",
        "Molecular Mass": "258.32",
        "Melting Point": "108-109 °C"
    }
}