{
    "cas_no": "590-50-1",
    "key_name": "4,4-Dimethyl-2-pentanone",
    "cn_name": "4,4-二甲基-2-戊酮;甲基新戊酮;",
    "alternate_name": "2-Pentanone, 4,4-dimethyl-;4,4-Dimethyl-2-pentanone;Methyl neopentyl ketone;Methyl neoamyl ketone;Neopentyl methyl ketone;NSC 944",
    "duplicated_cas_no": "",
    "SMILES": "C(C(C)(C)C)C(C)=O",
    "meta_data": {
        "InChI": "InChI=1S/C7H14O/c1-6(8)5-7(2,3)4/h5H2,1-4H3",
        "InChIKey": null,
        "Canonical SMILES": "O=C(C)CC(C)(C)C",
        "Molecular Formula": "C<sub>7</sub>H<sub>14</sub>O",
        "Molecular Mass": "114.19",
        "Boiling Point": "126 °C",
        "Melting Point": "-64 °C",
        "Density": "0.8080 g/cm³ @ Temp: 20 °C"
    }
}