{
    "cas_no": "5343-92-0",
    "key_name": "1,2-Pentanediol",
    "cn_name": "1,2-戊二醇;",
    "alternate_name": "1,2-Pentanediol;1,2-Dihydroxypentane;(±)-Pentane-1,2-diol;NSC 513;1,2-Pentylene glycol;Hydrolite 5;Diol PD;4-Methyl-1,2-butanediol;A-Leen 5;Pentiol Green+;Microcare Emollient PTGJ",
    "duplicated_cas_no": "91049-43-3",
    "SMILES": "C(CCC)(CO)O",
    "meta_data": {
        "InChI": "InChI=1S/C5H12O2/c1-2-3-5(7)4-6/h5-7H,2-4H2,1H3",
        "InChIKey": null,
        "Canonical SMILES": "OCC(O)CCC",
        "Molecular Formula": "C<sub>5</sub>H<sub>12</sub>O<sub>2</sub>",
        "Molecular Mass": "104.15",
        "Boiling Point": "210-211 °C",
        "Density": "0.9691 g/cm³ @ Temp: 24 °C"
    }
}