{
    "cas_no": "56578-37-1",
    "key_name": "(2<em>E</em>)-3-(3-Chlorophenyl)-2-propenal",
    "cn_name": null,
    "alternate_name": "2-Propenal, 3-(3-chlorophenyl)-, (2<em>E</em>)-;2-Propenal, 3-(3-chlorophenyl)-, (<em>E</em>)-;(2<em>E</em>)-3-(3-Chlorophenyl)-2-propenal;(<em>E</em>)-<em>m</em>-Chlorocinnamaldehyde;<em>E</em>-3-Chlorocinnamaldehyde;<em>trans</em>-<em>m</em>-Chlorocinnamaldehyde;<em>trans</em>-3-Chlorocinnamaldehyde;(<em>E</em>)-3-(3-Chlorophenyl)acrylaldehyde;(E)-3-(3-Chlorophenyl)acrolein;(E)-3-Chlorocinnamaldehyde",
    "duplicated_cas_no": "",
    "SMILES": "C(=C/C=O)\\C1=CC(Cl)=CC=C1",
    "meta_data": {
        "InChI": "InChI=1S/C9H7ClO/c10-9-5-1-3-8(7-9)4-2-6-11/h1-7H/b4-2+",
        "InChIKey": null,
        "Canonical SMILES": "O=CC=CC=1C=CC=C(Cl)C1",
        "Molecular Formula": "C<sub>9</sub>H<sub>7</sub>ClO",
        "Molecular Mass": "166.60",
        "Boiling Point": "106-120 °C @ Press: 0.5 Torr",
        "Melting Point": "39 °C"
    }
}