{
    "cas_no": "69045-84-7",
    "key_name": "2,3-Dichloro-5-(trifluoromethyl)pyridine",
    "cn_name": "2,3-二氯-5-三氟甲基吡啶;",
    "alternate_name": "Pyridine, 2,3-dichloro-5-(trifluoromethyl)-;2,3-Dichloro-5-(trifluoromethyl)pyridine;5,6-Dichloro-3-(trifluoromethyl)pyridine",
    "duplicated_cas_no": "",
    "SMILES": "C(F)(F)(F)C=1C=C(Cl)C(Cl)=NC1",
    "meta_data": {
        "InChI": "InChI=1S/C6H2Cl2F3N/c7-4-1-3(6(9,10)11)2-12-5(4)8/h1-2H",
        "InChIKey": null,
        "Canonical SMILES": "FC(F)(F)C1=CN=C(Cl)C(Cl)=C1",
        "Molecular Formula": "C<sub>6</sub>H<sub>2</sub>Cl<sub>2</sub>F<sub>3</sub>N",
        "Molecular Mass": "215.99",
        "Boiling Point": "50-51 °C @ Press: 21 Torr"
    }
}