{
    "cas_no": "10543-60-9",
    "key_name": "Tetraacetylglycoluril",
    "cn_name": "四乙酰甘脲;N,N\",N\"\",N\"\"\"-四乙酰甘脲;",
    "alternate_name": "Imidazo[4,5-<em>d</em>]imidazole-2,5(1<em>H</em>,3<em>H</em>)-dione, 1,3,4,6-tetraacetyltetrahydro-;Glycoluril, 1,3,4,6-tetraacetyl-;1,3,4,6-Tetraacetyltetrahydroimidazo[4,5-<em>d</em>]imidazole-2,5(1<em>H</em>,3<em>H</em>)-dione;1,3,4,6-Tetraacetylglycoluril;Tetraacetylglycoluril;Tetraacetylglyclouril;<em>N</em>,<em>N</em>′,<em>N</em>′′,<em>N</em>′′′Tetraacetylglycoluril;1,3,4,6-Tetraacetyl-tetrahydro-imidazo[4,5-<em>d</em>]imidazole-2,5-dione;1,3,4,6-Tetraacetyl-3a,6a-dihydroimidazo[4,5-<em>d</em>]imidazole-2,5-dione",
    "duplicated_cas_no": "",
    "SMILES": "C(C)(=O)N1C2C(N(C(C)=O)C(=O)N2C(C)=O)N(C(C)=O)C1=O",
    "meta_data": {
        "InChI": "InChI=1S/C12H14N4O6/c1-5(17)13-9-10(15(7(3)19)11(13)21)16(8(4)20)12(22)14(9)6(2)18/h9-10H,1-4H3",
        "InChIKey": null,
        "Canonical SMILES": "O=C1N(C(=O)C)C2N(C(=O)N(C(=O)C)C2N1C(=O)C)C(=O)C",
        "Molecular Formula": "C<sub>12</sub>H<sub>14</sub>N<sub>4</sub>O<sub>6</sub>",
        "Molecular Mass": "310.26",
        "Melting Point": "234-238 °C (decomp)"
    }
}