{
    "cas_no": "15969-09-2",
    "key_name": "2,4-Dibromo-6-nitrophenol",
    "cn_name": null,
    "alternate_name": "Phenol, 2,4-dibromo-6-nitro-;2,4-Dibromo-6-nitrophenol;2-Nitro-4,6-dibromophenol;4,6-Dibromo-2-nitrophenol;NSC 523891",
    "duplicated_cas_no": "",
    "SMILES": "N(=O)(=O)C1=C(O)C(Br)=CC(Br)=C1",
    "meta_data": {
        "InChI": "InChI=1S/C6H3Br2NO3/c7-3-1-4(8)6(10)5(2-3)9(11)12/h1-2,10H",
        "InChIKey": null,
        "Canonical SMILES": "O=N(=O)C=1C=C(Br)C=C(Br)C1O",
        "Molecular Formula": "C<sub>6</sub>H<sub>3</sub>Br<sub>2</sub>NO<sub>3</sub>",
        "Molecular Mass": "296.90",
        "Melting Point": "117 °C"
    }
}