{
    "cas_no": "19393-92-1",
    "key_name": "2-Bromo-1,3-dichlorobenzene",
    "cn_name": "1-溴-2,6-二氯苯;",
    "alternate_name": "Benzene, 2-bromo-1,3-dichloro-;2-Bromo-1,3-dichlorobenzene;1,3-Dichloro-2-bromobenzene;2,6-Dichlorobromobenzene;1-Bromo-2,6-dichlorobenzene;NSC 155332",
    "duplicated_cas_no": "",
    "SMILES": "BrC1=C(Cl)C=CC=C1Cl",
    "meta_data": {
        "InChI": "InChI=1S/C6H3BrCl2/c7-6-4(8)2-1-3-5(6)9/h1-3H",
        "InChIKey": null,
        "Canonical SMILES": "ClC1=CC=CC(Cl)=C1Br",
        "Molecular Formula": "C<sub>6</sub>H<sub>3</sub>BrCl<sub>2</sub>",
        "Molecular Mass": "225.90",
        "Boiling Point": "242 °C",
        "Melting Point": "65 °C"
    }
}