{
    "cas_no": "2474-02-4",
    "key_name": "1,7-Dichlorooctamethyltetrasiloxane",
    "cn_name": "1,7-二氯-辛甲基四硅氧烷;1,7-二氯八甲基四硅氧烷;",
    "alternate_name": "Tetrasiloxane, 1,7-dichloro-1,1,3,3,5,5,7,7-octamethyl-;1,7-Dichloro-1,1,3,3,5,5,7,7-octamethyltetrasiloxane;α,ω-Dichlorooctamethyltetrasiloxane;DRI-film SC 87;SC 87;1,7-Dichlorooctamethyltetrasiloxane;Surfrasil;1,1,3,3,5,5,7,7-Octamethyl-1,7-dichlorotetrasiloxane;1,7-Dichloroctamethyltetrasiloxane;1,3-Bis(chlorodimethylsiloxy)-1,1,3,3-tetramethyldisiloxane",
    "duplicated_cas_no": "104042-85-5;37281-05-3",
    "SMILES": "O([Si](O[Si](C)(C)Cl)(C)C)[Si](O[Si](C)(C)Cl)(C)C",
    "meta_data": {
        "InChI": "InChI=1S/C8H24Cl2O3Si4/c1-14(2,9)11-16(5,6)13-17(7,8)12-15(3,4)10/h1-8H3",
        "InChIKey": null,
        "Canonical SMILES": "Cl[Si](O[Si](O[Si](O[Si](Cl)(C)C)(C)C)(C)C)(C)C",
        "Molecular Formula": "C<sub>8</sub>H<sub>24</sub>Cl<sub>2</sub>O<sub>3</sub>Si<sub>4</sub>",
        "Molecular Mass": "351.52",
        "Boiling Point": "222 °C",
        "Melting Point": "-62 °C",
        "Density": "1.011 g/cm³"
    }
}