{
    "cas_no": "2568-30-1",
    "key_name": "2-(Chloromethyl)-1,3-dioxolane",
    "cn_name": "氯乙醛缩乙二醇;氯代乙醛缩乙二醇;2-氯甲基-1,3-二氧戊环;",
    "alternate_name": "1,3-Dioxolane, 2-(chloromethyl)-;2-(Chloromethyl)-1,3-dioxolane;2-Chloromethyldioxolane;Chloroacetaldehyde ethylene glycol;NSC 319115",
    "duplicated_cas_no": "",
    "SMILES": "C(Cl)C1OCCO1",
    "meta_data": {
        "InChI": "InChI=1S/C4H7ClO2/c5-3-4-6-1-2-7-4/h4H,1-3H2",
        "InChIKey": null,
        "Canonical SMILES": "ClCC1OCCO1",
        "Molecular Formula": "C<sub>4</sub>H<sub>7</sub>ClO<sub>2</sub>",
        "Molecular Mass": "122.55",
        "Boiling Point": "158 °C"
    }
}