{
    "cas_no": "1182-87-2",
    "key_name": "Peruvoside",
    "cn_name": "黄夹次苷;黄夹次苷;",
    "alternate_name": "Card-20(22)-enolide, 3-[(6-deoxy-3-<em>O</em>-methyl-α-<span class=\"text-smallcaps\">L</span>-glucopyranosyl)oxy]-14-hydroxy-19-oxo-, (3β,5β)-;Peruvoside;(3β,5β)-3-[(6-Deoxy-3-<em>O</em>-methyl-α-<span class=\"text-smallcaps\">L</span>-glucopyranosyl)oxy]-14-hydroxy-19-oxocard-20(22)-enolide;Peruvosid;Cannogenin α-<span class=\"text-smallcaps\">L</span>-thevetoside;Encordin",
    "duplicated_cas_no": "52443-20-6",
    "SMILES": "C(=O)[C@@]12[C@@]3([C@]([C@]4(O)[C@](C)(CC3)[C@H](CC4)C=5COC(=O)C5)(CC[C@@]1(C[C@@H](O[C@H]6[C@@H](O)[C@H](OC)[C@@H](O)[C@H](C)O6)CC2)[H])[H])[H]",
    "meta_data": {
        "InChI": "InChI=1S/C30H44O9/c1-16-24(33)26(36-3)25(34)27(38-16)39-19-6-10-29(15-31)18(13-19)4-5-22-21(29)7-9-28(2)20(8-11-30(22,28)35)17-12-23(32)37-14-17/h12,15-16,18-22,24-27,33-35H,4-11,13-14H2,1-3H3/t16-,18+,19-,20+,21-,22+,24-,25-,26+,27-,28+,29+,30-/m0/s1",
        "InChIKey": null,
        "Canonical SMILES": "O=CC12CCC(OC3OC(C)C(O)C(OC)C3O)CC2CCC4C1CCC5(C)C(C6=CC(=O)OC6)CCC45O",
        "Molecular Formula": "C<sub>30</sub>H<sub>44</sub>O<sub>9</sub>",
        "Molecular Mass": "548.66",
        "Melting Point": "162.5 °C"
    }
}