{
    "cas_no": "80214-83-1",
    "key_name": "Roxithromycin",
    "cn_name": null,
    "alternate_name": "Erythromycin, 9-[<em>O</em>-[(2-methoxyethoxy)methyl]oxime], (9<em>E</em>)-;Oxacyclotetradecane, erythromycin deriv.;RU 28965;Roxithromycin;Rulid;Roxithromycin A;Surlid;Rotramin;Assoral;Claramid;Overal;Forilin;Rossitrol;RU 965;Brilid;Roxeptin;Roxid;Roxxibid;Roxibest-A;Roxid-M;Roxacin;Xthrocin;Roxl 150;Roxo;Rulide;Biaxsig;Roxar;Roximycin;MeSH ID: D015575",
    "duplicated_cas_no": "102483-87-4;1460313-72-7",
    "SMILES": "O([C@H]1[C@H](C)[C@@H](O[C@H]2[C@H](O)[C@@H](N(C)C)C[C@@H](C)O2)[C@](C)(O)C[C@@H](C)/C(=N\\OCOCCOC)/[C@H](C)[C@@H](O)[C@](C)(O)[C@@H](CC)OC(=O)[C@@H]1C)[C@H]3C[C@](OC)(C)[C@@H](O)[C@H](C)O3",
    "meta_data": {
        "InChI": "InChI=1S/C41H76N2O15/c1-15-29-41(10,49)34(45)24(4)31(42-53-21-52-17-16-50-13)22(2)19-39(8,48)36(58-38-32(44)28(43(11)12)18-23(3)54-38)25(5)33(26(6)37(47)56-29)57-30-20-40(9,51-14)35(46)27(7)55-30/h22-30,32-36,38,44-46,48-49H,15-21H2,1-14H3/b42-31+/t22-,23-,24+,25+,26-,27+,28+,29-,30+,32-,33+,34-,35+,36-,38+,39-,40-,41-/m1/s1",
        "InChIKey": null,
        "Canonical SMILES": "O=C1OC(CC)C(O)(C)C(O)C(C(=NOCOCCOC)C(C)CC(O)(C)C(OC2OC(C)CC(N(C)C)C2O)C(C)C(OC3OC(C)C(O)C(OC)(C)C3)C1C)C",
        "Molecular Formula": "C<sub>41</sub>H<sub>76</sub>N<sub>2</sub>O<sub>15</sub>",
        "Molecular Mass": "837.05",
        "Melting Point": "122-126 °C"
    }
}