{
    "cas_no": "115-80-0",
    "key_name": "Triethyl orthopropionate",
    "cn_name": "原丙酸三乙酯;1,1,1-三乙氧基丙烷;",
    "alternate_name": "Propane, 1,1,1-triethoxy-;Orthopropionic acid, triethyl ester;1,1,1-Triethoxypropane;Triethyl orthopropionate;Ethyl orthopropionate;Triethyl orthopropanoate;NSC 5604",
    "duplicated_cas_no": "",
    "SMILES": "C(OCC)(OCC)(OCC)CC",
    "meta_data": {
        "InChI": "InChI=1S/C9H20O3/c1-5-9(10-6-2,11-7-3)12-8-4/h5-8H2,1-4H3",
        "InChIKey": null,
        "Canonical SMILES": "O(CC)C(OCC)(OCC)CC",
        "Molecular Formula": "C<sub>9</sub>H<sub>20</sub>O<sub>3</sub>",
        "Molecular Mass": "176.25",
        "Boiling Point": "171 °C",
        "Density": "0.8826 g/cm³ @ Temp: 25 °C"
    }
}