{
    "cas_no": "486-64-6",
    "key_name": "(-)-Vasicinone",
    "cn_name": null,
    "alternate_name": "Pyrrolo[2,1-<em>b</em>]quinazolin-9(1<em>H</em>)-one, 2,3-dihydro-3-hydroxy-, (3<em>S</em>)-;Pyrrolo[2,1-<em>b</em>]quinazolin-9(1<em>H</em>)-one, 2,3-dihydro-3-hydroxy-, (<em>S</em>)-;Vasicinone;(3<em>S</em>)-2,3-Dihydro-3-hydroxypyrrolo[2,1-<em>b</em>]quinazolin-9(1<em>H</em>)-one;(-)-Vasicinone;<em>l</em>-Vasicinone;(<em>S</em>)-Vasicinone;(3S)-3-Hydroxy-2,3-dihydro-1<em>H</em>-pyrrolo[2,1-<em>b</em>]quinazolin-9-one;(3S)-3-Hydroxy-1<em>H</em>,2<em>H</em>,3<em>H</em>,9<em>H</em>-pyrrolo[2,1-<em>b</em>]quinazolin-9-one;2,3-Dihydro-3(<em>S</em>)-hydroxypyrrolo[2,1-<em>b</em>]quinazolin-9(1<em>H</em>)-one",
    "duplicated_cas_no": "",
    "SMILES": "O=C1N2C(=NC=3C1=CC=CC3)[C@@H](O)CC2",
    "meta_data": {
        "InChI": "InChI=1S/C11H10N2O2/c14-9-5-6-13-10(9)12-8-4-2-1-3-7(8)11(13)15/h1-4,9,14H,5-6H2/t9-/m0/s1",
        "InChIKey": null,
        "Canonical SMILES": "O=C1C=2C=CC=CC2N=C3N1CCC3O",
        "Molecular Formula": "C<sub>11</sub>H<sub>10</sub>N<sub>2</sub>O<sub>2</sub>",
        "Molecular Mass": "202.21",
        "Melting Point": "200-201 °C"
    }
}