{
    "cas_no": "32647-67-9",
    "key_name": "Dibenzylidenesorbitol",
    "cn_name": "1,3:2,4-二苄叉山梨醇;二亚苄基山梨醇;",
    "alternate_name": "<span class=\"text-smallcaps\">D</span>-Glucitol, bis-<em>O</em>-(phenylmethylene)-;Glucitol, di-<em>O</em>-benzylidene-, <span class=\"text-smallcaps\">D</span>-;<span class=\"text-smallcaps\">D</span>-Sorbitol, di-<em>O</em>-benzylidene-;Bis-<em>O</em>-(phenylmethylene)-<span class=\"text-smallcaps\">D</span>-glucitol;Dibenzalsorbitol;Sorbitol dibenzal;Dibenzylidenesorbitol;Bis-<em>O</em>-(phenylmethylene)glucitol;Dibenzylidene-<span class=\"text-smallcaps\">D</span>-sorbitol;EC Gel-D;EC-I-ME;Millithix 925;Denon YK 2;Dibenzylidene sorbitol acetal;Dibenzylidene monosorbitol acetal;Geol D;Disorbene;Disorbene LC;NSC 226861;DBS 1;Millithix 925S;DBS;Rikemaster SN 003P;CAM 603",
    "duplicated_cas_no": "131840-31-8;31156-81-7;37475-90-4;39287-77-9",
    "SMILES": "",
    "meta_data": {
        "InChI": "",
        "InChIKey": null,
        "Canonical SMILES": "",
        "Molecular Formula": "C<sub>20</sub>H<sub>22</sub>O<sub>6</sub>",
        "Molecular Mass": "",
        "Melting Point": "185-195 °C"
    }
}