{
    "cas_no": "2902-96-7",
    "key_name": "2-Nitro-1-propanol",
    "cn_name": "2-硝基-1-丙醇;2-硝基-1-丙醇,98%;",
    "alternate_name": "1-Propanol, 2-nitro-;2-Nitro-1-propanol;2-Nitropropanol;Ba 51-084789;1-Hydroxy-2-nitropropane;(±)-2-Nitro-1-propanol;NSC 16159",
    "duplicated_cas_no": "62742-29-4",
    "SMILES": "C(N(=O)=O)(CO)C",
    "meta_data": {
        "InChI": "InChI=1S/C3H7NO3/c1-3(2-5)4(6)7/h3,5H,2H2,1H3",
        "InChIKey": null,
        "Canonical SMILES": "O=N(=O)C(C)CO",
        "Molecular Formula": "C<sub>3</sub>H<sub>7</sub>NO<sub>3</sub>",
        "Molecular Mass": "105.09",
        "Boiling Point": "99 °C",
        "Density": "1.1841 g/cm³ @ Temp: 25 °C"
    }
}