{
    "cas_no": "644-76-8",
    "key_name": "<span class=\"text-smallcaps\">D</span>-Galactosan",
    "cn_name": null,
    "alternate_name": "β-<span class=\"text-smallcaps\">D</span>-Galactopyranose, 1,6-anhydro-;Galactopyranose, 1,6-anhydro-, β-<span class=\"text-smallcaps\">D</span>-;1,6-Anhydro-β-<span class=\"text-smallcaps\">D</span>-galactopyranose;6,8-Dioxabicyclo[3.2.1]octane, β-<span class=\"text-smallcaps\">D</span>-galactopyranose deriv.;<span class=\"text-smallcaps\">D</span>-Galactosan;Levogalactosan;NSC 1376;Galactosan",
    "duplicated_cas_no": "",
    "SMILES": "O[C@H]1[C@@]2(O[C@@](OC2)([C@H](O)[C@H]1O)[H])[H]",
    "meta_data": {
        "InChI": "InChI=1S/C6H10O5/c7-3-2-1-10-6(11-2)5(9)4(3)8/h2-9H,1H2/t2-,3+,4+,5-,6-/m1/s1",
        "InChIKey": null,
        "Canonical SMILES": "OC1C(O)C2OCC(O2)C1O",
        "Molecular Formula": "C<sub>6</sub>H<sub>10</sub>O<sub>5</sub>",
        "Molecular Mass": "162.14",
        "Melting Point": "220-221 °C"
    }
}