{
    "cas_no": "33146-45-1",
    "key_name": "PCB 10",
    "cn_name": "2,6-二氯联苯;2,6-二氯联苯;",
    "alternate_name": "1,1′-Biphenyl, 2,6-dichloro-;Biphenyl, 2,6-dichloro-;2,6-Dichloro-1,1′-biphenyl;2,6-Dichlorobiphenyl;PCB 10",
    "duplicated_cas_no": "",
    "SMILES": "ClC1=C(C(Cl)=CC=C1)C2=CC=CC=C2",
    "meta_data": {
        "InChI": "InChI=1S/C12H8Cl2/c13-10-7-4-8-11(14)12(10)9-5-2-1-3-6-9/h1-8H",
        "InChIKey": null,
        "Canonical SMILES": "ClC1=CC=CC(Cl)=C1C=2C=CC=CC2",
        "Molecular Formula": "C<sub>12</sub>H<sub>8</sub>Cl<sub>2</sub>",
        "Molecular Mass": "223.10",
        "Melting Point": "36 °C"
    }
}