{
    "cas_no": "613-33-2",
    "key_name": "Di-<em>p</em>-tolyl",
    "cn_name": "4,4\"-二甲基联苯;",
    "alternate_name": "1,1′-Biphenyl, 4,4′-dimethyl-;<em>p</em>,<em>p</em>′-Bitolyl;4,4′-Dimethyl-1,1′-biphenyl;4,4′-Dimethylbiphenyl;Di-<em>p</em>-tolyl;4,4′-Ditolyl;4,4′-Bitolyl;4,4′-Dimethyldiphenyl;Bi-<em>p</em>-tolyl;<em>p</em>,<em>p</em>′-Bitoluene;<em>p</em>,<em>p</em>′-Ditolyl;<em>p</em>,<em>p</em>′-Dimethylbiphenyl;4,4′-Bitoluene;NSC 90464;1-Bb-1;1-Methyl-4-(4-methylphenyl)benzene",
    "duplicated_cas_no": "",
    "SMILES": "CC1=CC=C(C=C1)C2=CC=C(C)C=C2",
    "meta_data": {
        "InChI": "InChI=1S/C14H14/c1-11-3-7-13(8-4-11)14-9-5-12(2)6-10-14/h3-10H,1-2H3",
        "InChIKey": null,
        "Canonical SMILES": "C=1C=C(C=CC1C=2C=CC(=CC2)C)C",
        "Molecular Formula": "C<sub>14</sub>H<sub>14</sub>",
        "Molecular Mass": "182.26",
        "Boiling Point": "295 °C",
        "Melting Point": "125 °C"
    }
}