{
    "cas_no": "463-82-1",
    "key_name": "Neopentane",
    "cn_name": "新戊烷;新戊烷；2,2-二甲基丙烷;",
    "alternate_name": "Propane, 2,2-dimethyl-;2,2-Dimethylpropane;Neopentane;<em>tert</em>-Pentane;Tetramethylmethane;1,1,1-Trimethylethane",
    "duplicated_cas_no": "",
    "SMILES": "C(C)(C)(C)C",
    "meta_data": {
        "InChI": "InChI=1S/C5H12/c1-5(2,3)4/h1-4H3",
        "InChIKey": null,
        "Canonical SMILES": "CC(C)(C)C",
        "Molecular Formula": "C<sub>5</sub>H<sub>12</sub>",
        "Molecular Mass": "72.15",
        "Boiling Point": "9.5 °C",
        "Melting Point": "-16.6 °C",
        "Density": "0.613 g/cm³ @ Temp: 0 °C"
    }
}