{
    "cas_no": "870-23-5",
    "key_name": "Allyl mercaptan",
    "cn_name": "烯丙硫醇;",
    "alternate_name": "2-Propene-1-thiol;Allyl mercaptan;Allylthiol;1-Propene-3-thiol;NSC 6744;2-Propen-1-thiol",
    "duplicated_cas_no": "",
    "SMILES": "C(CS)=C",
    "meta_data": {
        "InChI": "InChI=1S/C3H6S/c1-2-3-4/h2,4H,1,3H2",
        "InChIKey": null,
        "Canonical SMILES": "SCC=C",
        "Molecular Formula": "C<sub>3</sub>H<sub>6</sub>S",
        "Molecular Mass": "74.14",
        "Boiling Point": "65 °C",
        "Density": "0.9250 g/cm³ @ Temp: 23 °C"
    }
}