{
    "cas_no": "55837-20-2",
    "key_name": "Halofuginone",
    "cn_name": "常山酮;卤夫酮;溴氯哌喹酮;7-溴-6-氯-3-[3-[(2R,3S)-3-羟基-2-哌啶基]-2-氧代丙基]-4(3H)-喹唑啉酮;",
    "alternate_name": "4(3<em>H</em>)-Quinazolinone, 7-bromo-6-chloro-3-[3-[(2<em>R</em>,3<em>S</em>)-3-hydroxy-2-piperidinyl]-2-oxopropyl]-, <em>rel</em>-;4(3<em>H</em>)-Quinazolinone, 7-bromo-6-chloro-3-[3-(3-hydroxy-2-piperidinyl)-2-oxopropyl]-, <em>trans</em>-(±)-;<em>rel</em>-7-Bromo-6-chloro-3-[3-[(2<em>R</em>,3<em>S</em>)-3-hydroxy-2-piperidinyl]-2-oxopropyl]-4(3<em>H</em>)-quinazolinone;Halofuginone;4(3<em>H</em>)-Quinazolinone, 7-bromo-6-chloro-3-[3-(3-hydroxy-2-piperidinyl)-2-oxopropyl]-, <em>trans</em>-;Tempostatin;Kriptazen",
    "duplicated_cas_no": "",
    "SMILES": "O=C1C=2C(N=CN1CC(C[C@H]3[C@H](O)CCCN3)=O)=CC(Br)=C(Cl)C2",
    "meta_data": {
        "InChI": "InChI=1/C16H17BrClN3O3/c17-11-6-13-10(5-12(11)18)16(24)21(8-20-13)7-9(22)4-14-15(23)2-1-3-19-14/h5-6,8,14-15,19,23H,1-4,7H2/t14-,15+/s2",
        "InChIKey": null,
        "Canonical SMILES": "O=C1C=2C=C(Cl)C(Br)=CC2N=CN1CC(=O)CC3NCCCC3O",
        "Molecular Formula": "C<sub>16</sub>H<sub>17</sub>BrClN<sub>3</sub>O<sub>3</sub>",
        "Molecular Mass": "414.68",
        "Melting Point": "192-195 °C"
    }
}