{
    "cas_no": "564-36-3",
    "key_name": "Ergocornine",
    "cn_name": "麦角考宁;麦角考宁;",
    "alternate_name": "Ergotaman-3′,6′,18-trione, 12′-hydroxy-2′,5′-bis(1-methylethyl)-, (5′α)-;Ergocornine;Indolo[4,3-<em>fg</em>]quinoline, ergotaman-3′,6′,18-trione deriv.;8<em>H</em>-Oxazolo[3,2-<em>a</em>]pyrrolo[2,1-<em>c</em>]pyrazine, ergotaman-3′,6′,18-trione deriv.;(5′α)-12′-Hydroxy-2′,5′-bis(1-methylethyl)ergotaman-3′,6′,18-trione;Ergocornin;NSC 407316",
    "duplicated_cas_no": "10023-57-1;47825-65-0;47824-76-0;1080513-71-8",
    "SMILES": "O[C@]12N(C(=O)[C@@](NC(=O)[C@@H]3C=C4C=5C=6C(C[C@]4(N(C)C3)[H])=CNC6C=CC5)(C(C)C)O1)[C@@H]([C@@H](C)C)C(=O)N7[C@]2(CCC7)[H]",
    "meta_data": {
        "InChI": "InChI=1S/C31H39N5O5/c1-16(2)26-28(38)35-11-7-10-24(35)31(40)36(26)29(39)30(41-31,17(3)4)33-27(37)19-12-21-20-8-6-9-22-25(20)18(14-32-22)13-23(21)34(5)15-19/h6,8-9,12,14,16-17,19,23-24,26,32,40H,7,10-11,13,15H2,1-5H3,(H,33,37)/t19-,23-,24+,26+,30-,31+/m1/s1",
        "InChIKey": null,
        "Canonical SMILES": "O=C(NC1(OC2(O)N(C1=O)C(C(=O)N3CCCC32)C(C)C)C(C)C)C4C=C5C=6C=CC=C7NC=C(C76)CC5N(C)C4",
        "Molecular Formula": "C<sub>31</sub>H<sub>39</sub>N<sub>5</sub>O<sub>5</sub>",
        "Molecular Mass": "561.67",
        "Melting Point": "182-184 °C (decomp)"
    }
}