{
    "cas_no": "111-50-2",
    "key_name": "Adipoyl chloride",
    "cn_name": "己二酰氯;",
    "alternate_name": "Hexanedioyl dichloride;Adipoyl chloride;Adipic acid dichloride;Adipyl chloride;Adipoyl dichloride;1,4-Bis(chlorocarbonyl)butane;Hexanedioic acid dichloride;Hexanedioic dichloride;Adipyl dichloride;Adipoyl dichloride-<em>N</em>,<em>N</em>′-Bis-(2-hydroxyethyl)-1,4,5,8-naphthalenetetracarboxylic diimide copolymer",
    "duplicated_cas_no": "",
    "SMILES": "C(CCC(Cl)=O)CC(Cl)=O",
    "meta_data": {
        "InChI": "InChI=1S/C6H8Cl2O2/c7-5(9)3-1-2-4-6(8)10/h1-4H2",
        "InChIKey": null,
        "Canonical SMILES": "O=C(Cl)CCCCC(=O)Cl",
        "Molecular Formula": "C<sub>6</sub>H<sub>8</sub>Cl<sub>2</sub>O<sub>2</sub>",
        "Molecular Mass": "183.03",
        "Boiling Point": "126 °C",
        "Melting Point": "262-264 °C"
    }
}