{
    "cas_no": "863329-66-2",
    "key_name": "(2′<em>R</em>)-2′-Deoxy-2′-fluoro-2′-methyluridine",
    "cn_name": null,
    "alternate_name": "Uridine, 2′-deoxy-2′-fluoro-2′-methyl-, (2′<em>R</em>)-;(2′<em>R</em>)-2′-Deoxy-2′-fluoro-2′-methyluridine;RO 2433;PSI-6206;GS 331007;1-((2<em>R</em>,3<em>R</em>,4<em>R</em>,5<em>R</em>)-3-Fluoro-4-hydroxy-5-(hydroxymethyl)-3-methyltetrahydrofuran-2-yl)pyrimidine-2,4(1<em>H</em>,3<em>H</em>)-dione;(2′R)-2′-Deoxy-2′-fluoro-2′-methyluridine;ZL-01 metabolite M9",
    "duplicated_cas_no": "",
    "SMILES": "C[C@]1(F)[C@@H](O[C@H](CO)[C@H]1O)N2C(=O)NC(=O)C=C2",
    "meta_data": {
        "InChI": "InChI=1S/C10H13FN2O5/c1-10(11)7(16)5(4-14)18-8(10)13-3-2-6(15)12-9(13)17/h2-3,5,7-8,14,16H,4H2,1H3,(H,12,15,17)/t5-,7-,8-,10-/m1/s1",
        "InChIKey": null,
        "Canonical SMILES": "O=C1C=CN(C(=O)N1)C2OC(CO)C(O)C2(F)C",
        "Molecular Formula": "C<sub>10</sub>H<sub>13</sub>FN<sub>2</sub>O<sub>5</sub>",
        "Molecular Mass": "260.22",
        "Melting Point": "237.3-238.0 °C"
    }
}