{
    "cas_no": "422-85-5",
    "key_name": "1-Bromo-1,1,2,2,3,3,3-heptafluoropropane",
    "cn_name": "1-溴七氟丙烷;1-溴七氟丙烷;",
    "alternate_name": "Propane, 1-bromo-1,1,2,2,3,3,3-heptafluoro-;Propane, 1-bromoheptafluoro-;1-Bromo-1,1,2,2,3,3,3-heptafluoropropane;1-Bromoperfluoropropane;Heptafluoropropyl bromide;1-Bromoheptafluoropropane;Perfluoropropyl bromide;R 217caB1",
    "duplicated_cas_no": "",
    "SMILES": "C(C(Br)(F)F)(C(F)(F)F)(F)F",
    "meta_data": {
        "InChI": "InChI=1S/C3BrF7/c4-2(7,8)1(5,6)3(9,10)11",
        "InChIKey": null,
        "Canonical SMILES": "FC(F)(F)C(F)(F)C(F)(F)Br",
        "Molecular Formula": "C<sub>3</sub>BrF<sub>7</sub>",
        "Molecular Mass": "248.92",
        "Boiling Point": "11-12 °C"
    }
}