{
    "cas_no": "3972-65-4",
    "key_name": "1-Bromo-4-<em>tert</em>-butylbenzene",
    "cn_name": "4-叔丁基溴苯;对叔丁基溴苯;1-溴-4-叔丁基苯;",
    "alternate_name": "Benzene, 1-bromo-4-(1,1-dimethylethyl)-;Benzene, 1-bromo-4-<em>tert</em>-butyl-;1-Bromo-4-(1,1-dimethylethyl)benzene;<em>p</em>-<em>tert</em>-Butylbromobenzene;1-Bromo-4-<em>tert</em>-butylbenzene;<em>p</em>-Bromo-<em>tert</em>-butylbenzene;4-<em>tert</em>-Butyl-1-bromobenzene;1-Bromo-4-<em>t</em>-butylbenzene;4-<em>tert</em>-Butylbromobenzene;1-<em>tert</em>-Butyl-4-bromobenzene;4-<em>tert</em>-Butylphenyl bromide;4-Bromo-<em>tert</em>-butylbenzene;<em>p</em>-<em>tert</em>-Butylphenyl bromide;NSC 43038;B 1727;4-<em>t</em>-Butylbromobenzene;4-Bromo-1-<em>tert</em>-butylbenzene",
    "duplicated_cas_no": "",
    "SMILES": "C(C)(C)(C)C1=CC=C(Br)C=C1",
    "meta_data": {
        "InChI": "InChI=1S/C10H13Br/c1-10(2,3)8-4-6-9(11)7-5-8/h4-7H,1-3H3",
        "InChIKey": null,
        "Canonical SMILES": "BrC1=CC=C(C=C1)C(C)(C)C",
        "Molecular Formula": "C<sub>10</sub>H<sub>13</sub>Br",
        "Molecular Mass": "213.11",
        "Boiling Point": "231.5 °C",
        "Melting Point": "19 °C",
        "Density": "1.2028 g/cm³ @ Temp: 30 °C"
    }
}