{
    "cas_no": "19614-12-1",
    "key_name": "2-Bromo-5-methoxybenzyl bromide",
    "cn_name": null,
    "alternate_name": "Benzene, 1-bromo-2-(bromomethyl)-4-methoxy-;Anisole, 4-bromo-3-(bromomethyl)-;1-Bromo-2-(bromomethyl)-4-methoxybenzene;2-Bromo-5-methoxybenzyl bromide;4-Bromo-3-(bromomethyl)-1-methoxybenzene;5-Methoxy-2-bromobenzyl bromide;3-Methoxy-6-bromobenzyl bromide",
    "duplicated_cas_no": "",
    "SMILES": "C(Br)C1=CC(OC)=CC=C1Br",
    "meta_data": {
        "InChI": "InChI=1S/C8H8Br2O/c1-11-7-2-3-8(10)6(4-7)5-9/h2-4H,5H2,1H3",
        "InChIKey": null,
        "Canonical SMILES": "BrC1=CC=C(OC)C=C1CBr",
        "Molecular Formula": "C<sub>8</sub>H<sub>8</sub>Br<sub>2</sub>O",
        "Molecular Mass": "279.96",
        "Melting Point": "85-87 °C"
    }
}