{
    "cas_no": "29582-39-6",
    "key_name": "(2<em>E</em>)-4-(4-Chlorophenyl)-4-oxo-2-butenoic acid",
    "cn_name": "反-3-(4-氯苯甲酰)败脂酸;",
    "alternate_name": "2-Butenoic acid, 4-(4-chlorophenyl)-4-oxo-, (2<em>E</em>)-;Acrylic acid, 3-(<em>p</em>-chlorobenzoyl)-, (<em>E</em>)-;2-Butenoic acid, 4-(4-chlorophenyl)-4-oxo-, (<em>E</em>)-;(2<em>E</em>)-4-(4-Chlorophenyl)-4-oxo-2-butenoic acid;<em>trans</em>-3-(<em>p</em>-Chlorobenzoyl)acrylic acid;4-(4-Chlorophenyl)-4-oxo-2(<em>E</em>)-butenoic acid;<em>trans</em>-β-(<em>p</em>-Chlorobenzoyl)acrylic acid;<em>trans</em>-3-(4-Chlorobenzoyl)acrylic acid",
    "duplicated_cas_no": "",
    "SMILES": "C(/C=C/C(O)=O)(=O)C1=CC=C(Cl)C=C1",
    "meta_data": {
        "InChI": "InChI=1S/C10H7ClO3/c11-8-3-1-7(2-4-8)9(12)5-6-10(13)14/h1-6H,(H,13,14)/b6-5+",
        "InChIKey": null,
        "Canonical SMILES": "O=C(O)C=CC(=O)C1=CC=C(Cl)C=C1",
        "Molecular Formula": "C<sub>10</sub>H<sub>7</sub>ClO<sub>3</sub>",
        "Molecular Mass": "210.61",
        "Melting Point": "153.7-154.7 °C"
    }
}