{
    "cas_no": "1305-78-8",
    "key_name": "Calcium oxide",
    "cn_name": "氧化钙;生石灰;",
    "alternate_name": "Calcium oxide (CaO);Calcium oxide;Calx;Calcium monoxide;Caloxol W 3;Calcia;Calxyl;Rhenosorb C;Rhenosorb F;Desical P;Caloxol CP 2;Burnt lime;Calcia (CaO);Airlock;Quicklime (CaO);CML 31;Bell CML(E);CML 21;CML 35;Vesta PP;QC-X;Bell CML(P);Caloxal CPA;CSQ;CML 35S;E 529;FCA 8A;F Raimu 1300D;F Raimu 900K;Nanotek CaO;Mikuronraimu;NanoActive CaO;NanoActive CaO Plus;Calciogreen;Caltrac;KSX;Rhenogran CaO 80;Bell CML 41;Chelan;Power-Ca;Moisutoppu 10;Borumikku;Vesta 20;NanoActive Calcium Oxide;Shell Lime HTO;Fishcal;CAC 20209A;Rhenofit F;Moisutoppu 20;Rhenofit C;Stomilex;Vesta QCX;CA 602;OM 1;OM 1 (pigment);Polycal OFT 15;DryPaste S 1;Hyper Expan M;Nekafin 2;Polycal O 5325;Polycal OS 325;Caloxol CP 2HU;CaO;CL 90Q90;CaO WFK Super 40;CaO 80;UPC-B 01;JYQ-S 02;F Raimu 1300K;Calcium oxide (CaO);TK 107;Rapidquell Quicklime CL 90Q;Vesta 18;WKF 40;HAL-G;Seisekkai J 1P;Kezadol PCI;HAL-J;Kezadol DAB;Calcium oxide (Ca<sub>0.49</sub>O<sub>0.51</sub>);F 1300K;Nekafin 0;CMB-EE 0B688;Inovox SG;UNI-OX;Kezadol GR 80;BYK 2616;Byk 2616;CLM 35",
    "duplicated_cas_no": "12610-14-9;60873-85-0;104624-96-6;245321-52-2;2529596-16-3;2641773-61-5;2721380-79-4;2982928-23-2",
    "SMILES": "[Ca]=O",
    "meta_data": {
        "InChI": "InChI=1S/Ca.O",
        "InChIKey": null,
        "Canonical SMILES": "O=[Ca]",
        "Molecular Formula": "CaO",
        "Molecular Mass": "",
        "Boiling Point": "2850 °C",
        "Melting Point": "2572 °C",
        "Density": "3.3-3.4 g/cm³"
    }
}