{
    "cas_no": "1128-53-6",
    "key_name": "1-Phenyl-1<em>H</em>-pyrazol-4-amine",
    "cn_name": null,
    "alternate_name": "1<em>H</em>-Pyrazol-4-amine, 1-phenyl-;Pyrazole, 4-amino-1-phenyl-;1-Phenyl-1<em>H</em>-pyrazol-4-amine;4-Amino-1-phenylpyrazole;1-Phenyl-4-pyrazoleamine;1-Phenylpyrazol-4-amine",
    "duplicated_cas_no": "",
    "SMILES": "NC1=CN(N=C1)C2=CC=CC=C2",
    "meta_data": {
        "InChI": "InChI=1S/C9H9N3/c10-8-6-11-12(7-8)9-4-2-1-3-5-9/h1-7H,10H2",
        "InChIKey": null,
        "Canonical SMILES": "N1=CC(N)=CN1C=2C=CC=CC2",
        "Molecular Formula": "C<sub>9</sub>H<sub>9</sub>N<sub>3</sub>",
        "Molecular Mass": "159.19",
        "Melting Point": "104-105 °C"
    }
}