{
    "cas_no": "330-94-9",
    "key_name": "4-(4-Fluorophenyl)thiosemicarbazide",
    "cn_name": "4-(4-氟苯)-3-氨基硫脲;",
    "alternate_name": "Hydrazinecarbothioamide, <em>N</em>-(4-fluorophenyl)-;Semicarbazide, 4-(<em>p</em>-fluorophenyl)-3-thio-;<em>N</em>-(4-Fluorophenyl)hydrazinecarbothioamide;4-(<em>p</em>-Fluorophenyl)-3-thiosemicarbazide;4-(<em>p</em>-Fluorophenyl)thiosemicarbazide;Flusone;4-(4-Fluorophenyl)thiosemicarbazide;4-(4-Fluorophenyl)-3-thiosemicarbazide;<em>N</em>-(4-Fluorophenyl)thiosemicarbazide;3-Amino-1-(4-fluorophenyl)thiourea",
    "duplicated_cas_no": "",
    "SMILES": "N(C(NN)=S)C1=CC=C(F)C=C1",
    "meta_data": {
        "InChI": "InChI=1S/C7H8FN3S/c8-5-1-3-6(4-2-5)10-7(12)11-9/h1-4H,9H2,(H2,10,11,12)",
        "InChIKey": null,
        "Canonical SMILES": "FC1=CC=C(C=C1)NC(=S)NN",
        "Molecular Formula": "C<sub>7</sub>H<sub>8</sub>FN<sub>3</sub>S",
        "Molecular Mass": "185.22",
        "Melting Point": "177-178 °C"
    }
}