{
    "cas_no": "446-09-3",
    "key_name": "1-Bromo-4-fluoro-2-nitrobenzene",
    "cn_name": "2-溴-5-氟硝基苯;",
    "alternate_name": "Benzene, 1-bromo-4-fluoro-2-nitro-;1-Bromo-4-fluoro-2-nitrobenzene;2-Bromo-5-fluoronitrobenzene;1-Bromo-2-nitro-4-fluorobenzene",
    "duplicated_cas_no": "919522-56-8",
    "SMILES": "N(=O)(=O)C1=C(Br)C=CC(F)=C1",
    "meta_data": {
        "InChI": "InChI=1S/C6H3BrFNO2/c7-5-2-1-4(8)3-6(5)9(10)11/h1-3H",
        "InChIKey": null,
        "Canonical SMILES": "O=N(=O)C1=CC(F)=CC=C1Br",
        "Molecular Formula": "C<sub>6</sub>H<sub>3</sub>BrFNO<sub>2</sub>",
        "Molecular Mass": "220.00",
        "Melting Point": "39.5-40.0 °C"
    }
}