{
    "cas_no": "22246-18-0",
    "key_name": "7-Hydroxy-3,4-dihydro-2(1<em>H</em>)-quinolinone",
    "cn_name": "3,4-二氢-7-羟基-2(1H)-喹啉酮;",
    "alternate_name": "2(1<em>H</em>)-Quinolinone, 3,4-dihydro-7-hydroxy-;Carbostyril, 3,4-dihydro-7-hydroxy-;Hydrocarbostyril, 7-hydroxy-;3,4-Dihydro-7-hydroxy-2(1<em>H</em>)-quinolinone;7-Hydroxy-1,2,3,4-tetrahydro-2-quinolinone;7-Hydroxy-3,4-dihydrocarbostyril;7-Hydroxy-3,4-dihydro-2(1<em>H</em>)-quinolinone;7-Hydroxy-3,4-dihydro-1<em>H</em>-quinolin-2-one;3,4-Dihydro-7-hydroxy-2(1 H)-quinoline;3,4-Dihydro-quinoline-2,7-diol;3,4-Dihydroquinoline-2,7-diol",
    "duplicated_cas_no": "",
    "SMILES": "OC=1C=C2C(CCC(=O)N2)=CC1",
    "meta_data": {
        "InChI": "InChI=1S/C9H9NO2/c11-7-3-1-6-2-4-9(12)10-8(6)5-7/h1,3,5,11H,2,4H2,(H,10,12)",
        "InChIKey": null,
        "Canonical SMILES": "O=C1NC2=CC(O)=CC=C2CC1",
        "Molecular Formula": "C<sub>9</sub>H<sub>9</sub>NO<sub>2</sub>",
        "Molecular Mass": "163.17",
        "Melting Point": "230 °C"
    }
}