{
    "cas_no": "102-96-5",
    "key_name": "β-Nitrostyrene",
    "cn_name": "β-硝基苯乙烯;",
    "alternate_name": "Benzene, (2-nitroethenyl)-;Styrene, β-nitro-;(2-Nitroethenyl)benzene;ω-Nitrostyrene;β-Nitrostyrene;1-Phenyl-2-nitroethene;1-Nitro-2-phenylethylene;(2-Nitrovinyl)benzene;2-Nitro-1-phenylethylene;1-Nitro-2-phenylethene;2-Phenyl-1-nitroethene;NSC 9809",
    "duplicated_cas_no": "",
    "SMILES": "C(=CN(=O)=O)C1=CC=CC=C1",
    "meta_data": {
        "InChI": "InChI=1S/C8H7NO2/c10-9(11)7-6-8-4-2-1-3-5-8/h1-7H",
        "InChIKey": null,
        "Canonical SMILES": "O=N(=O)C=CC=1C=CC=CC1",
        "Molecular Formula": "C<sub>8</sub>H<sub>7</sub>NO<sub>2</sub>",
        "Molecular Mass": "149.15",
        "Boiling Point": "120 °C @ Press: 1 Torr",
        "Melting Point": "57 °C"
    }
}