{
    "cas_no": "1204-21-3",
    "key_name": "2-Bromo-2′,5′-dimethoxyacetophenone",
    "cn_name": "2-溴-2,5-二甲氧基苯乙酮;",
    "alternate_name": "Ethanone, 2-bromo-1-(2,5-dimethoxyphenyl)-;Acetophenone, 2-bromo-2′,5′-dimethoxy-;2-Bromo-1-(2,5-dimethoxyphenyl)ethanone;2-Bromo-2′,5′-dimethoxyacetophenone;α-Bromo-2,5-dimethoxyacetophenone;2,5-Dimethoxyphenacyl bromide;ω-Bromo-2,5-dimethoxyacetophenone;2-Bromo-1-(2,5-dimethoxyphenyl)ethan-1-one",
    "duplicated_cas_no": "",
    "SMILES": "C(CBr)(=O)C1=C(OC)C=CC(OC)=C1",
    "meta_data": {
        "InChI": "InChI=1S/C10H11BrO3/c1-13-7-3-4-10(14-2)8(5-7)9(12)6-11/h3-5H,6H2,1-2H3",
        "InChIKey": null,
        "Canonical SMILES": "O=C(C1=CC(OC)=CC=C1OC)CBr",
        "Molecular Formula": "C<sub>10</sub>H<sub>11</sub>BrO<sub>3</sub>",
        "Molecular Mass": "259.10",
        "Melting Point": "84-85 °C"
    }
}