{
    "cas_no": "548-73-2",
    "key_name": "Droperidol",
    "cn_name": "氟哌利多;氟哌啶;",
    "alternate_name": "2<em>H</em>-Benzimidazol-2-one, 1-[1-[4-(4-fluorophenyl)-4-oxobutyl]-1,2,3,6-tetrahydro-4-pyridinyl]-1,3-dihydro-;2-Benzimidazolinone, 1-[1-[3-(<em>p</em>-fluorobenzoyl)propyl]-1,2,3,6-tetrahydro-4-pyridyl]-;1-[1-[4-(4-Fluorophenyl)-4-oxobutyl]-1,2,3,6-tetrahydro-4-pyridinyl]-1,3-dihydro-2<em>H</em>-benzimidazol-2-one;McN-JR 4749;R 4749;Dehydrobenzperidol;Droperidol;1-[1-[3-(<em>p</em>-Fluorobenzoyl)propyl]-1,2,3,6-tetrahydro-4-pyridyl]-2-benzimidazolinone;1-(1-[4-(<em>p</em>-Fluorophenyl)-4-oxobutyl]-1,2,3,6-tetrahydro-4-pyridyl)-2-benzimidazolinone;Inapsine;Droleptan;Inapsin;Dridol;Inopsin;Sintodril;Neurolidol;NSC 169874;1-[1-[4-(4-Fluorophenyl)-4-oxobutyl]-1,2,3,6-tetrahydropyridin-4-yl]-2,3-dihydro-1<em>H</em>-1,3-benzodiazol-2-one;MeSH ID: D004329",
    "duplicated_cas_no": "",
    "SMILES": "O=C1N(C=2C(N1)=CC=CC2)C=3CCN(CCCC(=O)C4=CC=C(F)C=C4)CC3",
    "meta_data": {
        "InChI": "InChI=1S/C22H22FN3O2/c23-17-9-7-16(8-10-17)21(27)6-3-13-25-14-11-18(12-15-25)26-20-5-2-1-4-19(20)24-22(26)28/h1-2,4-5,7-11H,3,6,12-15H2,(H,24,28)",
        "InChIKey": null,
        "Canonical SMILES": "O=C1NC=2C=CC=CC2N1C3=CCN(CC3)CCCC(=O)C4=CC=C(F)C=C4",
        "Molecular Formula": "C<sub>22</sub>H<sub>22</sub>FN<sub>3</sub>O<sub>2</sub>",
        "Molecular Mass": "379.43",
        "Melting Point": "145-146 °C"
    }
}