{
    "cas_no": "320-65-0",
    "key_name": "1-(Dichloromethyl)-2-fluorobenzene",
    "cn_name": "2-氟苯亚甲基氯;",
    "alternate_name": "Benzene, 1-(dichloromethyl)-2-fluoro-;Toluene, α,α-dichloro-<em>o</em>-fluoro-;1-(Dichloromethyl)-2-fluorobenzene;<em>o</em>-Fluorobenzal chloride;NSC 60714;1-Dichloromethyl-2-fluorobenzene;2-Fluoro(dichloromethyl)benzene",
    "duplicated_cas_no": "",
    "SMILES": "C(Cl)(Cl)C1=C(F)C=CC=C1",
    "meta_data": {
        "InChI": "InChI=1S/C7H5Cl2F/c8-7(9)5-3-1-2-4-6(5)10/h1-4,7H",
        "InChIKey": null,
        "Canonical SMILES": "FC=1C=CC=CC1C(Cl)Cl",
        "Molecular Formula": "C<sub>7</sub>H<sub>5</sub>Cl<sub>2</sub>F",
        "Molecular Mass": "179.02",
        "Boiling Point": "71.6 °C @ Press: 13 Torr",
        "Density": "1.3094 g/cm³ @ Temp: 18.7 °C"
    }
}