{
    "cas_no": "394-69-4",
    "key_name": "5-Fluoroquinoline",
    "cn_name": null,
    "alternate_name": "Quinoline, 5-fluoro-;5-Fluoroquinoline",
    "duplicated_cas_no": "",
    "SMILES": "FC=1C2=C(C=CC1)N=CC=C2",
    "meta_data": {
        "InChI": "InChI=1S/C9H6FN/c10-8-4-1-5-9-7(8)3-2-6-11-9/h1-6H",
        "InChIKey": null,
        "Canonical SMILES": "FC1=CC=CC2=NC=CC=C12",
        "Molecular Formula": "C<sub>9</sub>H<sub>6</sub>FN",
        "Molecular Mass": "147.15",
        "Boiling Point": "123 °C @ Press: 30 Torr",
        "Melting Point": "147 °C",
        "Density": "1.197 g/cm³ @ Temp: 25 °C"
    }
}