{
    "cas_no": "24634-61-5",
    "key_name": "Potassium sorbate",
    "cn_name": "山梨酸钾;",
    "alternate_name": "2,4-Hexadienoic acid, potassium salt (1:1), (2<em>E</em>,4<em>E</em>)-;Sorbic acid, potassium salt;2,4-Hexadienoic acid, potassium salt, (<em>E</em>,<em>E</em>)-;2,4-Hexadienoic acid, potassium salt, (2<em>E</em>,4<em>E</em>)-;Potassium sorbate;E 202;Potassium (<em>E</em>,<em>E</em>)-hexa-2,4-dienoate;E 202 (preservative);K 60/95;PO 300",
    "duplicated_cas_no": "16577-94-9",
    "SMILES": "C(=C/C=C/C)\\C(O)=O.[K]",
    "meta_data": {
        "InChI": "InChI=1S/C6H8O2.K/c1-2-3-4-5-6(7)8;/h2-5H,1H3,(H,7,8);/b3-2+,5-4+;",
        "InChIKey": null,
        "Canonical SMILES": "[K].O=C(O)C=CC=CC",
        "Molecular Formula": "C<sub>6</sub>H<sub>8</sub>O<sub>2</sub>.K",
        "Molecular Mass": "",
        "Melting Point": "&gt;270 °C (decomp)"
    }
}