{
    "cas_no": "376-53-4",
    "key_name": "2,2,3,3,4,4,5,5-Octafluorohexanedinitrile",
    "cn_name": null,
    "alternate_name": "Hexanedinitrile, 2,2,3,3,4,4,5,5-octafluoro-;Hexanedinitrile, octafluoro-;2,2,3,3,4,4,5,5-Octafluorohexanedinitrile;Perfluoroadiponitrile;Perfluoroadipic acid dinitrile;Octafluoroadiponitrile",
    "duplicated_cas_no": "",
    "SMILES": "C(C(C(C#N)(F)F)(F)F)(C(C#N)(F)F)(F)F",
    "meta_data": {
        "InChI": "InChI=1S/C6F8N2/c7-3(8,1-15)5(11,12)6(13,14)4(9,10)2-16",
        "InChIKey": null,
        "Canonical SMILES": "N#CC(F)(F)C(F)(F)C(F)(F)C(F)(F)C#N",
        "Molecular Formula": "C<sub>6</sub>F<sub>8</sub>N<sub>2</sub>",
        "Molecular Mass": "252.06",
        "Boiling Point": "63 °C"
    }
}