{
    "cas_no": "689-97-4",
    "key_name": "1-Buten-3-yne",
    "cn_name": "乙烯基乙炔;",
    "alternate_name": "1-Buten-3-yne;Vinylacetylene;Ethene, ethynyl-;Monovinylacetylene;1-Butyn-3-ene;3-Buten-1-yne;Butenyne;1-Butenyne;3-Butyn-1-ene;Vinylethyne",
    "duplicated_cas_no": "",
    "SMILES": "C(C#C)=C",
    "meta_data": {
        "InChI": "InChI=1S/C4H4/c1-3-4-2/h1,4H,2H2",
        "InChIKey": null,
        "Canonical SMILES": "C#CC=C",
        "Molecular Formula": "C<sub>4</sub>H<sub>4</sub>",
        "Molecular Mass": "52.07",
        "Boiling Point": "5.1 °C @ Press: 760 Torr",
        "Density": "0.7095 g/cm³ @ Temp: 0 °C"
    }
}