{
    "cas_no": "12093-05-9",
    "key_name": "Tricarbonyl[(1,2,3,4-η)-1,3,5,7-cyclooctatetraene]iron",
    "cn_name": null,
    "alternate_name": "Iron, tricarbonyl[(1,2,3,4-η)-1,3,5,7-cyclooctatetraene]-;Iron, tricarbonyl(1,3,5,7-cyclooctatetraene)-;Cyclooctatetraeneiron tricarbonyl;1,3,5,7-Cyclooctatetraene, iron complex;Tricarbonyl[(1,2,3,4-η)-1,3,5,7-cyclooctatetraene]iron;Cyclooctatetraenetricarbonyliron;Tricarbonyl(cyclooctatetraene)iron;Tricarbonyl(η<sup>4</sup>-cyclooctatetraene)iron;1,3,5,7-Cyclooctatetraeneiron tricarbonyl;NSC 167370;NSC 168049",
    "duplicated_cas_no": "",
    "SMILES": "C(#O)[Fe]123(C#O)(C#O)[CH]=4[CH]1=[CH]2C=CC=C[CH]34",
    "meta_data": {
        "InChI": "InChI=1S/C8H8.3CO.Fe/c1-2-4-6-8-7-5-3-1;3*1-2;/h1-8H;;;;/b2-1-,3-1?,4-2?,5-3-,6-4-,7-5?,8-6?,8-7-;;;;",
        "InChIKey": null,
        "Canonical SMILES": "O#C[Fe]123(C#O)(C#O)[CH]=4C=CC=C[CH]3=[CH]2[CH]41",
        "Molecular Formula": "C<sub>11</sub>H<sub>8</sub>FeO<sub>3</sub>",
        "Molecular Mass": "",
        "Melting Point": "94 °C"
    }
}