{
    "cas_no": "3646-68-2",
    "key_name": "<span class=\"text-smallcaps\">D</span>-Glucosaminic acid",
    "cn_name": "D-氨基葡萄糖酸;",
    "alternate_name": "<span class=\"text-smallcaps\">D</span>-Gluconic acid, 2-amino-2-deoxy-;Gluconic acid, 2-amino-2-deoxy-, <span class=\"text-smallcaps\">D</span>-;2-Amino-2-deoxy-<span class=\"text-smallcaps\">D</span>-gluconic acid;Glucosaminic acid;<span class=\"text-smallcaps\">D</span>-Glucosaminic acid;<span class=\"text-smallcaps\">D</span>-Glucosamic acid;NSC 37779;NSC 404265",
    "duplicated_cas_no": "",
    "SMILES": "[C@H]([C@@H]([C@@H](CO)O)O)([C@H](C(O)=O)N)O",
    "meta_data": {
        "InChI": "InChI=1S/C6H13NO6/c7-3(6(12)13)5(11)4(10)2(9)1-8/h2-5,8-11H,1,7H2,(H,12,13)/t2-,3-,4-,5-/m1/s1",
        "InChIKey": null,
        "Canonical SMILES": "O=C(O)C(N)C(O)C(O)C(O)CO",
        "Molecular Formula": "C<sub>6</sub>H<sub>13</sub>NO<sub>6</sub>",
        "Molecular Mass": "195.17",
        "Melting Point": "210-240 °C (decomp)",
        "Density": "1.618 g/cm³ @ Temp: -5 °C"
    }
}