{
    "cas_no": "1559-88-2",
    "key_name": "3-Bromo-1,2,4,5-tetrafluorobenzene",
    "cn_name": "1-溴-2,3,5,6-四氟苯;",
    "alternate_name": "Benzene, 3-bromo-1,2,4,5-tetrafluoro-;3-Bromo-1,2,4,5-tetrafluorobenzene;2,3,5,6-Tetrafluorobromobenzene;1-Bromo-2,3,5,6-tetrafluorobenzene;1,2,4,5-Tetrafluoro-3-bromobenzene",
    "duplicated_cas_no": "",
    "SMILES": "FC1=C(Br)C(F)=C(F)C=C1F",
    "meta_data": {
        "InChI": "InChI=1S/C6HBrF4/c7-4-5(10)2(8)1-3(9)6(4)11/h1H",
        "InChIKey": null,
        "Canonical SMILES": "FC=1C=C(F)C(F)=C(Br)C1F",
        "Molecular Formula": "C<sub>6</sub>HBrF<sub>4</sub>",
        "Molecular Mass": "228.97",
        "Boiling Point": "145-147 °C"
    }
}