{
    "cas_no": "38078-09-0",
    "key_name": "(Diethylamino)sulfur trifluoride",
    "cn_name": "二乙胺基三氟化硫;三氟化二乙氨基硫;",
    "alternate_name": "Sulfur, (<em>N</em>-ethylethanaminato)trifluoro-, (<em>T</em>-4)-;Ethanamine, <em>N</em>-ethyl-, sulfur complex;(<em>T</em>-4)-(<em>N</em>-Ethylethanaminato)trifluorosulfur;Trifluoro(diethylamino)sulfur;(Diethylamino)sulfur trifluoride;DAST;(Diethylamino)trifluorosulfur;(Diethylamino)sulphur trifluoride;(<em>N</em>,<em>N</em>-Diethylamino)sulfur trifluoride;DAST (fluorinating agent);Diethylaminosulfate trifluoride",
    "duplicated_cas_no": "",
    "SMILES": "N(S(F)(F)F)(CC)CC",
    "meta_data": {
        "InChI": "InChI=1S/C4H10F3NS/c1-3-8(4-2)9(5,6)7/h3-4H2,1-2H3",
        "InChIKey": null,
        "Canonical SMILES": "FS(F)(F)N(CC)CC",
        "Molecular Formula": "C<sub>4</sub>H<sub>10</sub>F<sub>3</sub>NS",
        "Molecular Mass": "161.19",
        "Boiling Point": "46-47 °C @ Press: 9.8 Torr"
    }
}