{
    "cas_no": "125-33-7",
    "key_name": "Primidone",
    "cn_name": "扑米酮;5-乙基-5-苯基-二氢-4,6(1H,5H)-嘧啶二酮;",
    "alternate_name": "4,6(1<em>H</em>,5<em>H</em>)-Pyrimidinedione, 5-ethyldihydro-5-phenyl-;5-Ethyldihydro-5-phenyl-4,6(1<em>H</em>,5<em>H</em>)-pyrimidinedione;Roe 101;2-Desoxyphenobarbital;5-Ethylhexahydro-5-phenylpyrimidine-4,6-dione;5-Ethyl-5-phenylhexahydropyrimidine-4,6-dione;Misodine;Mizodin;Mylepsin;Mysoline;5-Phenyl-5-ethyl-hexahydropyrimidine-4,6-dione;Primaclone;Primidone;Hexamidine;Sertan;2-Deoxyphenobarbital;Pyrimidone Medi-pets;Lepimidin;Mizolin;Milepsin;Primakton;Primidon;Primacone;Misolyne;Mysedon;Hexamidine (antiepileptic);Hexamydin;Liskantin;Neurosyn;Resimatil;NSC 41701;5-Ethyl-5-phenyl-1,3-diazinane-4,6-dione;Desoxyphenobarbital;MeSH ID: D011324",
    "duplicated_cas_no": "1340-05-2;8023-71-0",
    "SMILES": "C(C)C1(C(=O)NCNC1=O)C2=CC=CC=C2",
    "meta_data": {
        "InChI": "InChI=1S/C12H14N2O2/c1-2-12(9-6-4-3-5-7-9)10(15)13-8-14-11(12)16/h3-7H,2,8H2,1H3,(H,13,15)(H,14,16)",
        "InChIKey": null,
        "Canonical SMILES": "O=C1NCNC(=O)C1(C=2C=CC=CC2)CC",
        "Molecular Formula": "C<sub>12</sub>H<sub>14</sub>N<sub>2</sub>O<sub>2</sub>",
        "Molecular Mass": "218.25",
        "Melting Point": "281-282 °C"
    }
}