{
    "cas_no": "24034-73-9",
    "key_name": "Geranylgeraniol",
    "cn_name": null,
    "alternate_name": "2,6,10,14-Hexadecatetraen-1-ol, 3,7,11,15-tetramethyl-, (2<em>E</em>,6<em>E</em>,10<em>E</em>)-;2,6,10,14-Hexadecatetraen-1-ol, 3,7,11,15-tetramethyl-, (<em>E</em>,<em>E</em>,<em>E</em>)-;(2<em>E</em>,6<em>E</em>,10<em>E</em>)-3,7,11,15-Tetramethyl-2,6,10,14-hexadecatetraen-1-ol;Geranylgeraniol;<em>trans</em>-Geranylgeraniol;<em>All</em>-<em>trans</em>-Geranylgeraniol;<em>trans</em>,<em>trans</em>,<em>trans</em>-Geranylgeraniol;(<em>E</em>,<em>E</em>,<em>E</em>)-Geranylgeraniol;Geranylgeranyl alcohol;(<em>E</em>,<em>E</em>,<em>E</em>)-Geranylgeranyl alcohol",
    "duplicated_cas_no": "",
    "SMILES": "C(\\CC/C=C(/CCC=C(C)C)\\C)(=C/CC/C(=C/CO)/C)/C",
    "meta_data": {
        "InChI": "InChI=1S/C20H34O/c1-17(2)9-6-10-18(3)11-7-12-19(4)13-8-14-20(5)15-16-21/h9,11,13,15,21H,6-8,10,12,14,16H2,1-5H3/b18-11+,19-13+,20-15+",
        "InChIKey": null,
        "Canonical SMILES": "OCC=C(C)CCC=C(C)CCC=C(C)CCC=C(C)C",
        "Molecular Formula": "C<sub>20</sub>H<sub>34</sub>O",
        "Molecular Mass": "290.48",
        "Boiling Point": "152-153 °C @ Press: 0.07 Torr",
        "Density": "0.8930 g/cm³ @ Temp: 18 °C"
    }
}