{
    "cas_no": "616-44-4",
    "key_name": "3-Methylthiophene",
    "cn_name": "3-甲基噻吩;",
    "alternate_name": "Thiophene, 3-methyl-;3-Methylthiophene;3-Thiotolene;β-Methylthiophene;NSC 65439;3-Thienylmethane",
    "duplicated_cas_no": "",
    "SMILES": "CC=1C=CSC1",
    "meta_data": {
        "InChI": "InChI=1S/C5H6S/c1-5-2-3-6-4-5/h2-4H,1H3",
        "InChIKey": null,
        "Canonical SMILES": "S1C=CC(=C1)C",
        "Molecular Formula": "C<sub>5</sub>H<sub>6</sub>S",
        "Molecular Mass": "98.17",
        "Boiling Point": "115.5 °C",
        "Melting Point": "-69 °C",
        "Density": "1.0220 g/cm³ @ Temp: 20 °C"
    }
}