{
    "cas_no": "571-55-1",
    "key_name": "Ethyl 2-(ethoxymethylene)-4,4,4-trifluoro-3-oxobutanoate",
    "cn_name": "乙氧基-2-亚甲基三氟乙酰乙酸乙酯;2-(乙氧基亚甲基)-4,4,4-三氟-3-氧代丁酸乙酯;3-乙氧基-2-(2,2,2-三氟乙;",
    "alternate_name": "Butanoic acid, 2-(ethoxymethylene)-4,4,4-trifluoro-3-oxo-, ethyl ester;Acetoacetic acid, 2-(ethoxymethylene)-4,4,4-trifluoro-, ethyl ester;Ethyl 2-(ethoxymethylene)-4,4,4-trifluoro-3-oxobutanoate;2-Ethoxymethylene-3-oxo-4,4,4-trifluorobutyric acid ethyl ester;Ethyl 2-ethoxymethylene-4,4,4-trifluoroacetoacetate;Ethyl 2-(ethoxymethylene)-4,4,4-trifluoro-3-oxobutyrate;2-Ethoxymethylene-4,4,4-trifluoroacetoacetic acid ethyl ester;Ethyl 3-(ethyloxy)-2-(trifluoroacetyl)-2-propenoate;Ethyl 2-(Ethoxymethylidene)-4,4,4-trifluoro-3-oxobutanoate;Ethyl 3-ethoxy-2-(trifluoroacetyl)acrylate;Ethyl 4,4,4-trifluoro-2-(ethoxymethylene)-3-oxobutanoate",
    "duplicated_cas_no": "",
    "SMILES": "C(C(C(F)(F)F)=O)(C(OCC)=O)=COCC",
    "meta_data": {
        "InChI": "InChI=1S/C9H11F3O4/c1-3-15-5-6(8(14)16-4-2)7(13)9(10,11)12/h5H,3-4H2,1-2H3",
        "InChIKey": null,
        "Canonical SMILES": "O=C(OCC)C(=COCC)C(=O)C(F)(F)F",
        "Molecular Formula": "C<sub>9</sub>H<sub>11</sub>F<sub>3</sub>O<sub>4</sub>",
        "Molecular Mass": "240.18",
        "Boiling Point": "115-120 °C @ Press: 10 Torr",
        "Density": "1.239 g/cm³ @ Temp: 25 °C"
    }
}