{
    "cas_no": "626-04-0",
    "key_name": "1,3-Benzenedithiol",
    "cn_name": "1,3-苯二硫酚;苯硫醇;",
    "alternate_name": "1,3-Benzenedithiol;<em>m</em>-Benzenedithiol;1,3-Dimercaptobenzene;Dithioresorcinol;Thioresorcinol",
    "duplicated_cas_no": "",
    "SMILES": "SC1=CC(S)=CC=C1",
    "meta_data": {
        "InChI": "InChI=1S/C6H6S2/c7-5-2-1-3-6(8)4-5/h1-4,7-8H",
        "InChIKey": null,
        "Canonical SMILES": "SC1=CC=CC(S)=C1",
        "Molecular Formula": "C<sub>6</sub>H<sub>6</sub>S<sub>2</sub>",
        "Molecular Mass": "142.24",
        "Boiling Point": "245 °C",
        "Melting Point": "27 °C"
    }
}