{
    "cas_no": "1195-32-0",
    "key_name": "<em>p</em>-Cymenene",
    "cn_name": "2,4-二甲基苯乙烯;1-甲基-4-(1-甲基乙烯基)苯;4-乙烯基间二甲苯;",
    "alternate_name": "Benzene, 1-methyl-4-(1-methylethenyl)-;Styrene, <em>p</em>,α-dimethyl-;1-Methyl-4-(1-methylethenyl)benzene;1-Methyl-4-isopropenylbenzene;<em>p</em>-Methyl-α-methylstyrene;<em>p</em>,α-Dimethylstyrene;<em>p</em>-Isopropenyltoluene;α,<em>p</em>-Dimethylstyrene;4-Methyl-α-methylstyrene;α,4-Dimethylstyrene;2-(<em>p</em>-Methylphenyl)propene;2-<em>p</em>-Tolylpropene;4-Isopropenyltoluene;Dehydro-<em>p</em>-cymene;1-Isopropenyl-4-methylbenzene;<em>p</em>-Cymenene;4-Methylisopropenylbenzene;<em>p</em>-Methylisopropenylbenzene;1-<em>p</em>-Tolyl-1-methylethylene;2-<em>p</em>-Tolyl-1-propene;4-Isopropenyl-1-methylbenzene;4,α-Dimethylstyrene;NSC 361058;α-Methyl-<em>p</em>-methylstyrene;1-Methyl-4-(1-methylvinyl)benzene;1-Methyl-4-(prop-1-en-2-yl)benzene;2-(4-Methylphenyl)-1-propene",
    "duplicated_cas_no": "",
    "SMILES": "C(C)(=C)C1=CC=C(C)C=C1",
    "meta_data": {
        "InChI": "InChI=1S/C10H12/c1-8(2)10-6-4-9(3)5-7-10/h4-7H,1H2,2-3H3",
        "InChIKey": null,
        "Canonical SMILES": "C=C(C1=CC=C(C=C1)C)C",
        "Molecular Formula": "C<sub>10</sub>H<sub>12</sub>",
        "Molecular Mass": "132.20",
        "Boiling Point": "185.3 °C",
        "Melting Point": "-20 °C",
        "Density": "0.9065 g/cm³ @ Temp: 20 °C"
    }
}