{
    "cas_no": "7331-52-4",
    "key_name": "(<em>S</em>)-3-Hydroxy-γ-butyrolactone",
    "cn_name": "(S)-3-羟基-gamma-丁内酯;",
    "alternate_name": "2(3<em>H</em>)-Furanone, dihydro-4-hydroxy-, (4<em>S</em>)-;Butyric acid, 3,4-dihydroxy-, γ-lactone, <span class=\"text-smallcaps\">D</span>-<em>glycero</em>-;2(3<em>H</em>)-Furanone, dihydro-4-hydroxy-, (<em>S</em>)-;(4<em>S</em>)-Dihydro-4-hydroxy-2(3<em>H</em>)-furanone;(<em>S</em>)-3-Hydroxybutyrolactone;(3<em>S</em>)-Hydroxy-γ-butyrolactone;(<em>S</em>)-3-Hydroxy-γ-butyrolactone;(<em>S</em>)-β-Hydroxy-γ-butyrolactone;(<em>S</em>)-(-)-β-Hydroxy-γ-butyrolactone;3S-Hydroxy butyrolactone;(4S)-4-Hydroxyoxolan-2-one;3-(<em>S</em>)-Hydroxy-4-butanolide",
    "duplicated_cas_no": "",
    "SMILES": "O[C@H]1CC(=O)OC1",
    "meta_data": {
        "InChI": "InChI=1S/C4H6O3/c5-3-1-4(6)7-2-3/h3,5H,1-2H2/t3-/m0/s1",
        "InChIKey": null,
        "Canonical SMILES": "O=C1OCC(O)C1",
        "Molecular Formula": "C<sub>4</sub>H<sub>6</sub>O<sub>3</sub>",
        "Molecular Mass": "102.09",
        "Boiling Point": "140 °C @ Press: 1 Torr"
    }
}