{
    "cas_no": "938-85-2",
    "key_name": "1-Methylguanine",
    "cn_name": null,
    "alternate_name": "6<em>H</em>-Purin-6-one, 2-amino-1,9-dihydro-1-methyl-;Guanine, 1-methyl-;6<em>H</em>-Purin-6-one, 2-amino-1,7-dihydro-1-methyl-;2-Amino-1,9-dihydro-1-methyl-6<em>H</em>-purin-6-one;1-Methylguanine;<em>N</em><sup>1</sup>-Methylguanine;NSC 50718;2-Imino-1-methyl-2,3,6,9-tetrahydro-1<em>H</em>-purin-6-one;2-Amino-1-methyl-1<em>H</em>-purin-6(7<em>H</em>)-one;2-Amino-1-methyl-6,7-dihydro-1<em>H</em>-purin-6-one",
    "duplicated_cas_no": "",
    "SMILES": "O=C1C2=C(N=C(N)N1C)N=CN2",
    "meta_data": {
        "InChI": "InChI=1S/C6H7N5O/c1-11-5(12)3-4(9-2-8-3)10-6(11)7/h2H,1H3,(H2,7,10)(H,8,9)",
        "InChIKey": null,
        "Canonical SMILES": "O=C1C=2NC=NC2N=C(N)N1C",
        "Molecular Formula": "C<sub>6</sub>H<sub>7</sub>N<sub>5</sub>O",
        "Molecular Mass": "165.15",
        "Melting Point": "&gt;350 °C"
    }
}