{
    "cas_no": "1008-89-5",
    "key_name": "2-Phenylpyridine",
    "cn_name": "2-苯基吡啶;",
    "alternate_name": "Pyridine, 2-phenyl-;2-Phenylpyridine;<em>o</em>-Phenylpyridine;α-Phenylpyridine;NSC 89291",
    "duplicated_cas_no": "",
    "SMILES": "C1(=CC=CC=C1)C2=CC=CC=N2",
    "meta_data": {
        "InChI": "InChI=1S/C11H9N/c1-2-6-10(7-3-1)11-8-4-5-9-12-11/h1-9H",
        "InChIKey": null,
        "Canonical SMILES": "N=1C=CC=CC1C=2C=CC=CC2",
        "Molecular Formula": "C<sub>11</sub>H<sub>9</sub>N",
        "Molecular Mass": "155.20",
        "Boiling Point": "271 °C",
        "Melting Point": "148-149 °C",
        "Density": "1.0833 g/cm³ @ Temp: 20 °C"
    }
}