{
    "cas_no": "59776-88-4",
    "key_name": "Methyl 2-oxo-1-pyrrolidineacetate",
    "cn_name": null,
    "alternate_name": "1-Pyrrolidineacetic acid, 2-oxo-, methyl ester;Methyl 2-oxo-1-pyrrolidineacetate;Methyl 2-pyrrolidone-1-acetate;2-Ketopyrrolidine-1-acetic acid methyl ester;1-(Methoxycarbonylmethyl)-2-pyrrolidone;Methyl 2-pyrrolidinon-1-ylacetate;Methyl 2-(2-oxo-1-pyrrolidinyl)acetate;(2-Oxopyrrolidin-1-yl)acetic acid methyl ester",
    "duplicated_cas_no": "",
    "SMILES": "C(C(OC)=O)N1C(=O)CCC1",
    "meta_data": {
        "InChI": "InChI=1S/C7H11NO3/c1-11-7(10)5-8-4-2-3-6(8)9/h2-5H2,1H3",
        "InChIKey": null,
        "Canonical SMILES": "O=C(OC)CN1C(=O)CCC1",
        "Molecular Formula": "C<sub>7</sub>H<sub>11</sub>NO<sub>3</sub>",
        "Molecular Mass": "157.17",
        "Boiling Point": "144-148 °C @ Press: 16 Torr"
    }
}