{
    "cas_no": "26146-27-0",
    "key_name": "Lindenenol",
    "cn_name": null,
    "alternate_name": "Cycloprop[2,3]indeno[5,6-<em>b</em>]furan-4-ol, 4,4a,5,5a,6,6a,6b,7-octahydro-3,6b-dimethyl-5-methylene-, (4<em>R</em>,4a<em>S</em>,5a<em>S</em>,6a<em>R</em>,6b<em>S</em>)-;Cycloprop[2,3]indeno[5,6-<em>b</em>]furan-4-ol, 4β,4aα,5,5aα,6,6aα,6b,7-octahydro-3,6bβ-dimethyl-5-methylene-;Cycloprop[2,3]indeno[5,6-<em>b</em>]furan-4-ol, 4,4a,5,5a,6,6a,6b,7-octahydro-3,6b-dimethyl-5-methylene-, [4<em>R</em>-(4α,4aα,5aα,6aα,6bβ)]-;(4<em>R</em>,4a<em>S</em>,5a<em>S</em>,6a<em>R</em>,6b<em>S</em>)-4,4a,5,5a,6,6a,6b,7-Octahydro-3,6b-dimethyl-5-methylenecycloprop[2,3]indeno[5,6-<em>b</em>]furan-4-ol;Lindenenol;Linderene",
    "duplicated_cas_no": "59219-60-2;467-89-0",
    "SMILES": "C[C@]12[C@@]([C@@H](O)C3=C(C1)OC=C3C)(C(=C)[C@@]4([C@]2(C4)[H])[H])[H]",
    "meta_data": {
        "InChI": "InChI=1S/C15H18O2/c1-7-6-17-11-5-15(3)10-4-9(10)8(2)13(15)14(16)12(7)11/h6,9-10,13-14,16H,2,4-5H2,1,3H3/t9-,10-,13-,14+,15+/m1/s1",
        "InChIKey": null,
        "Canonical SMILES": "OC1C2=C(OC=C2C)CC3(C)C1C(=C)C4CC43",
        "Molecular Formula": "C<sub>15</sub>H<sub>18</sub>O<sub>2</sub>",
        "Molecular Mass": "230.30",
        "Melting Point": "145 °C"
    }
}