{
    "cas_no": "57382-97-5",
    "key_name": "2-Thiopheneacetic acid, ethyl ester",
    "cn_name": "2-噻吩乙酸乙酯;噻吩-2-醋酸乙酯;",
    "alternate_name": "2-Thiopheneacetic acid, ethyl ester;Ethyl 2-thienylacetate;Ethyl 2-thiopheneacetate;2-Thienylacetic acid ethyl ester;Ethyl 2-(2-thienyl)acetate;Ethyl 2-(thiophen-2-yl)acetate",
    "duplicated_cas_no": "",
    "SMILES": "C(C(OCC)=O)C1=CC=CS1",
    "meta_data": {
        "InChI": "InChI=1S/C8H10O2S/c1-2-10-8(9)6-7-4-3-5-11-7/h3-5H,2,6H2,1H3",
        "InChIKey": null,
        "Canonical SMILES": "O=C(OCC)CC=1SC=CC1",
        "Molecular Formula": "C<sub>8</sub>H<sub>10</sub>O<sub>2</sub>S",
        "Molecular Mass": "170.23",
        "Boiling Point": "124-129 °C @ Press: 26 Torr",
        "Melting Point": "~0.7 °C (approx)",
        "Density": "1.134 g/cm³"
    }
}