{
    "cas_no": "25086-18-4",
    "key_name": "Isotactic polystyrene",
    "cn_name": null,
    "alternate_name": "Benzene, ethenyl-, homopolymer, isotactic;Styrene, polymers, isotactic;Isotactic polystyrene;EP 1340-128;Isotactic styrene polymer",
    "duplicated_cas_no": "",
    "SMILES": "C(=C)C1=CC=CC=C1",
    "meta_data": {
        "InChI": "InChI=1S/C8H8/c1-2-8-6-4-3-5-7-8/h2-7H,1H2",
        "InChIKey": null,
        "Canonical SMILES": "C=CC=1C=CC=CC1",
        "Molecular Formula": "(C<sub>8</sub>H<sub>8</sub>)<sub>x</sub>",
        "Molecular Mass": "",
        "Melting Point": "222.9 °C",
        "Density": "1.058 g/cm³"
    }
}