{
    "cas_no": "2568-33-4",
    "key_name": "3-Methyl-1,3-butanediol",
    "cn_name": "3-甲基-1,3-丁二醇;异戊二醇;",
    "alternate_name": "1,3-Butanediol, 3-methyl-;3-Methyl-1,3-butanediol;2-Methyl-2,4-butanediol;1,1-Dimethyl-1,3-propanediol;3-Methyl-1,3-butylene glycol;3,3-Dimethyl-1,3-propanediol;Isoprene glycol;3-Hydroxy-3-methylbutanol;1,3-Dihydroxy-3-methylbutane;NSC 62084;3-Hydroxy-3-methylbutan-1-ol;Isopentyl diol;3-Methyl-3-hydroxy-1-butyl alcohol",
    "duplicated_cas_no": "",
    "SMILES": "C(C(C)(C)O)CO",
    "meta_data": {
        "InChI": "InChI=1S/C5H12O2/c1-5(2,7)3-4-6/h6-7H,3-4H2,1-2H3",
        "InChIKey": null,
        "Canonical SMILES": "OCCC(O)(C)C",
        "Molecular Formula": "C<sub>5</sub>H<sub>12</sub>O<sub>2</sub>",
        "Molecular Mass": "104.15",
        "Boiling Point": "202.5 °C",
        "Density": "0.9867 g/cm³ @ Temp: 20 °C"
    }
}