{
    "cas_no": "312-68-5",
    "key_name": "1-Propanol, 3-fluoro-, 1-(4-methylbenzenesulfonate)",
    "cn_name": null,
    "alternate_name": "1-Propanol, 3-fluoro-, 1-(4-methylbenzenesulfonate);1-Propanol, 3-fluoro-, <em>p</em>-toluenesulfonate;1-Propanol, 3-fluoro-, 4-methylbenzenesulfonate;Toluene-4-sulfonic acid 3-fluoropropyl ester;1-Fluoro-3-tosyloxypropane;3-Fluoropropyl 4-toluenesulfonate;4-Methylbenzenesulfonic acid 3-fluoropropyl ester;3-Fluoropropyl 4-methylbenzenesulfonate;3-Fluoropropyl tosylate;3-Fluoropropyl <em>p</em>-toluenesulfonate;3-Fluoropropyl 4-methylbenzene-1-sulfonate",
    "duplicated_cas_no": "",
    "SMILES": "S(OCCCF)(=O)(=O)C1=CC=C(C)C=C1",
    "meta_data": {
        "InChI": "InChI=1S/C10H13FO3S/c1-9-3-5-10(6-4-9)15(12,13)14-8-2-7-11/h3-6H,2,7-8H2,1H3",
        "InChIKey": null,
        "Canonical SMILES": "O=S(=O)(OCCCF)C1=CC=C(C=C1)C",
        "Molecular Formula": "C<sub>10</sub>H<sub>13</sub>FO<sub>3</sub>S",
        "Molecular Mass": "232.27",
        "Boiling Point": "160 °C @ Press: 2 Torr"
    }
}