{
    "cas_no": "91-95-2",
    "key_name": "3,3′-Diaminobenzidine",
    "cn_name": "3,3\"-二氨基联苯胺;3,3\",4,4\"-联苯四胺;",
    "alternate_name": "[1,1′-Biphenyl]-3,3′,4,4′-tetramine;3,3′,4,4′-Biphenyltetramine;3,3′-Diaminobenzidine;3,3′,4,4′-Tetraaminodiphenyl;3,3′,4,4′-Tetraaminobiphenyl;DAB;NSC 76152;Biphenyl-3,3′,4,4′-tetraamine;Betazoid DAB;3,4,3′,4′-Tetraaminobiphenyl;4-(3,4-Diaminophenyl) benzene-1,2-diamine;MeSH ID: D015100",
    "duplicated_cas_no": "1458011-73-8",
    "SMILES": "NC=1C=C(C=CC1N)C2=CC(N)=C(N)C=C2",
    "meta_data": {
        "InChI": "InChI=1S/C12H14N4/c13-9-3-1-7(5-11(9)15)8-2-4-10(14)12(16)6-8/h1-6H,13-16H2",
        "InChIKey": null,
        "Canonical SMILES": "NC=1C=CC(=CC1N)C2=CC=C(N)C(N)=C2",
        "Molecular Formula": "C<sub>12</sub>H<sub>14</sub>N<sub>4</sub>",
        "Molecular Mass": "214.27",
        "Melting Point": "178 °C"
    }
}