{
    "cas_no": "54078-29-4",
    "key_name": "9<em>H</em>-Cyclopenta[1,2-<em>b</em>:4,3-<em>b</em>′]dipyridin-9-one",
    "cn_name": "1,8-二氮杂-9-芴酮;",
    "alternate_name": "9<em>H</em>-Cyclopenta[1,2-<em>b</em>:4,3-<em>b</em>′]dipyridin-9-one;1,8-Diaza-9-fluorenone;1,8-Diazafluorenone;9<em>H</em>-1,8-Diazafluoren-9-one;DFO",
    "duplicated_cas_no": "",
    "SMILES": "O=C1C=2C(C=3C1=NC=CC3)=CC=CN2",
    "meta_data": {
        "InChI": "InChI=1S/C11H6N2O/c14-11-9-7(3-1-5-12-9)8-4-2-6-13-10(8)11/h1-6H",
        "InChIKey": null,
        "Canonical SMILES": "O=C1C=2N=CC=CC2C3=CC=CN=C13",
        "Molecular Formula": "C<sub>11</sub>H<sub>6</sub>N<sub>2</sub>O",
        "Molecular Mass": "182.18",
        "Melting Point": "205 °C"
    }
}