{
    "cas_no": "2406-33-9",
    "key_name": "1,1-Dichlorosilacyclopentane",
    "cn_name": null,
    "alternate_name": "Silacyclopentane, 1,1-dichloro-;1,1-Dichlorosilacyclopentane;1,1-Dichloro-1-silacyclopentane;NSC 252157;Cyclotetramethylenedichlorosilane;1,1-Dichlorosilolane",
    "duplicated_cas_no": "",
    "SMILES": "Cl[Si]1(Cl)CCCC1",
    "meta_data": {
        "InChI": "InChI=1S/C4H8Cl2Si/c5-7(6)3-1-2-4-7/h1-4H2",
        "InChIKey": null,
        "Canonical SMILES": "Cl[Si]1(Cl)CCCC1",
        "Molecular Formula": "C<sub>4</sub>H<sub>8</sub>Cl<sub>2</sub>Si",
        "Molecular Mass": "155.10",
        "Boiling Point": "142-143 °C",
        "Melting Point": "139-141 °C",
        "Density": "1.185 g/cm³"
    }
}