{
    "cas_no": "38647-11-9",
    "key_name": "(-)-Triptonide",
    "cn_name": "雷公藤内酯酮;雷藤酮;",
    "alternate_name": "Trisoxireno[4b,5:6,7:8a,9]phenanthro[1,2-<em>c</em>]furan-1,6(3<em>H</em>,6a<em>H</em>)-dione, 3b,4,4a,7a,7b,8b,9,10-octahydro-8b-methyl-6a-(1-methylethyl)-, (3b<em>S</em>,4a<em>S</em>,5a<em>S</em>,6a<em>S</em>,7a<em>S</em>,7b<em>S</em>,8a<em>S</em>,8b<em>S</em>)-;Triptolide, 14-deoxy-14-oxo-;Trisoxireno[4b,5:6,7:8a,9]phenanthro[1,2-<em>c</em>]furan, triptolide deriv.;(3b<em>S</em>,4a<em>S</em>,5a<em>S</em>,6a<em>S</em>,7a<em>S</em>,7b<em>S</em>,8a<em>S</em>,8b<em>S</em>)-3b,4,4a,7a,7b,8b,9,10-Octahydro-8b-methyl-6a-(1-methylethyl)trisoxireno[4b,5:6,7:8a,9]phenanthro[1,2-<em>c</em>]furan-1,6(3<em>H</em>,6a<em>H</em>)-dione;Triptonide;Triptonid;(-)-Triptonide;Trisoxireno[4b,5:6,7:8a,9]phenanthro[1,2-<em>c</em>]furan-1,6(3<em>H</em>,6a<em>H</em>)-dione, 3b,4,4a,7a,7b,8b,9,10-octahydro-8b-methyl-6a-(1-methylethyl)-, [3b<em>S</em>-(3bα,4aα,5a<em>R</em>*,6aβ,7aβ,7bα,8a<em>R</em>*,8bβ)]-;NSC 165677;PG 492",
    "duplicated_cas_no": "",
    "SMILES": "C[C@@]12[C@@]34[C@@]5([C@@](O5)(C[C@]1(C6=C(CC2)C(=O)OC6)[H])[H])C(=O)[C@]7([C@H](C)C)[C@]([C@@]3(O4)[H])(O7)[H]",
    "meta_data": {
        "InChI": "InChI=1S/C20H22O6/c1-8(2)18-13(25-18)14-20(26-14)17(3)5-4-9-10(7-23-15(9)21)11(17)6-12-19(20,24-12)16(18)22/h8,11-14H,4-7H2,1-3H3/t11-,12-,13-,14-,17-,18-,19+,20+/m0/s1",
        "InChIKey": null,
        "Canonical SMILES": "O=C1OCC2=C1CCC3(C)C2CC4OC54C(=O)C6(OC6C7OC753)C(C)C",
        "Molecular Formula": "C<sub>20</sub>H<sub>22</sub>O<sub>6</sub>",
        "Molecular Mass": "358.39",
        "Melting Point": "224-225 °C"
    }
}