{
    "cas_no": "1529-47-1",
    "key_name": "Germane, chlorotrimethyl-",
    "cn_name": "三甲基氯化锗;",
    "alternate_name": "Germane, chlorotrimethyl-;Trimethylgermanium chloride;Trimethylchlorogermane;Chlorotrimethylgermane;Trimethylgermyl chloride;Trimethylgermanyl chloride;Chlorotrimethylgermanium;Trimethylchlorogermanium",
    "duplicated_cas_no": "",
    "SMILES": "[Ge](C)(C)(C)Cl",
    "meta_data": {
        "InChI": "InChI=1S/C3H9ClGe/c1-5(2,3)4/h1-3H3",
        "InChIKey": null,
        "Canonical SMILES": "Cl[Ge](C)(C)C",
        "Molecular Formula": "C<sub>3</sub>H<sub>9</sub>ClGe",
        "Molecular Mass": "153.20",
        "Boiling Point": "102 °C",
        "Melting Point": "-14 °C",
        "Density": "1.249 g/cm³"
    }
}