{
    "cas_no": "42981-08-8",
    "key_name": "2-Chloro-1-(3,4-dichlorophenyl)ethanone",
    "cn_name": "2,3\",4\"-三氯苯乙酮;2-氯-3-4-二氯苯乙酮;",
    "alternate_name": "Ethanone, 2-chloro-1-(3,4-dichlorophenyl)-;Acetophenone, 2,3′,4′-trichloro-;2-Chloro-1-(3,4-dichlorophenyl)ethanone;2,3′,4′-Trichloroacetophenone;NSC 243689;2-Chloro-3′,4′-dichloroacetophenone;3,4-Dichlorophenacyl chloride;2-Chloro-1-(3,4-dichlorophenyl)ethan-1-one",
    "duplicated_cas_no": "",
    "SMILES": "C(CCl)(=O)C1=CC(Cl)=C(Cl)C=C1",
    "meta_data": {
        "InChI": "InChI=1S/C8H5Cl3O/c9-4-8(12)5-1-2-6(10)7(11)3-5/h1-3H,4H2",
        "InChIKey": null,
        "Canonical SMILES": "O=C(C1=CC=C(Cl)C(Cl)=C1)CCl",
        "Molecular Formula": "C<sub>8</sub>H<sub>5</sub>Cl<sub>3</sub>O",
        "Molecular Mass": "223.48",
        "Boiling Point": "171-173 °C @ Press: 15 Torr",
        "Melting Point": "44 °C"
    }
}