{
    "cas_no": "14936-66-4",
    "key_name": "2-Nonyl acetate",
    "cn_name": "壬基醋酸酯;",
    "alternate_name": "2-Nonanol, 2-acetate;2-Nonanol, acetate;2-Nonyl acetate;(±)-2-Nonanol acetate;(±)-2-Nonyl acetate;2-Nonanyl acetate",
    "duplicated_cas_no": "149403-19-0",
    "SMILES": "C(C(OC(C)=O)C)CCCCCC",
    "meta_data": {
        "InChI": "InChI=1S/C11H22O2/c1-4-5-6-7-8-9-10(2)13-11(3)12/h10H,4-9H2,1-3H3",
        "InChIKey": null,
        "Canonical SMILES": "O=C(OC(C)CCCCCCC)C",
        "Molecular Formula": "C<sub>11</sub>H<sub>22</sub>O<sub>2</sub>",
        "Molecular Mass": "186.29",
        "Boiling Point": "116 °C @ Press: 35 Torr"
    }
}