{
    "cas_no": "588-30-7",
    "key_name": "<em>m</em>-Coumaric acid",
    "cn_name": "3-羟基苯丙烯酸;3-香豆酸;间-香豆酸;",
    "alternate_name": "2-Propenoic acid, 3-(3-hydroxyphenyl)-;Cinnamic acid, <em>m</em>-hydroxy-;3-(3-Hydroxyphenyl)-2-propenoic acid;3-Hydroxycinnamic acid;<em>m</em>-Hydroxycinnamic acid;3-Coumaric acid;<em>m</em>-Coumaric acid;m-Hydroxycinnamic acid;3′-Hydroxycinnamic acid;NSC 28956;NSC 50308;3-(3-Hydroxyphenyl)acrylic acid",
    "duplicated_cas_no": "",
    "SMILES": "C(=CC(O)=O)C1=CC(O)=CC=C1",
    "meta_data": {
        "InChI": "InChI=1S/C9H8O3/c10-8-3-1-2-7(6-8)4-5-9(11)12/h1-6,10H,(H,11,12)",
        "InChIKey": null,
        "Canonical SMILES": "O=C(O)C=CC=1C=CC=C(O)C1",
        "Molecular Formula": "C<sub>9</sub>H<sub>8</sub>O<sub>3</sub>",
        "Molecular Mass": "164.16",
        "Melting Point": "191 °C"
    }
}