{
    "cas_no": "64-85-7",
    "key_name": "Deoxycorticosterone",
    "cn_name": null,
    "alternate_name": "Pregn-4-ene-3,20-dione, 21-hydroxy-;11-Deoxycorticosterone;21-Hydroxypregn-4-ene-3,20-dione;Cortexone;11-Dehydroxycorticosterone;Deoxycortone;Desoxycorticosterone;11-Desoxycorticosterone;Desoxycortone;DOC;21-Hydroxy-Δ<sup>4</sup>-pregnene-3,20-dione;21-Hydroxyprogesterone;Kendall's desoxy compound B;4-Pregnen-21-ol-3,20-dione;Reichstein's substance Q;Corticosterone, 11-deoxy-;Deoxycorticosterone;Δ<sup>4</sup>-Pregnene-21-ol-3,20-dione;21-Hydroxy-3,20-dioxopregn-4-ene;21-Hydroxy-Δ<sup>4</sup>-pregnane-3,20-dione;DOC (steroid);NSC 11319;MeSH ID: D003900",
    "duplicated_cas_no": "30598-81-3",
    "SMILES": "C[C@@]12[C@]([C@]3([C@@]([C@]4(C)C(CC3)=CC(=O)CC4)(CC1)[H])[H])(CC[C@@H]2C(CO)=O)[H]",
    "meta_data": {
        "InChI": "InChI=1S/C21H30O3/c1-20-9-7-14(23)11-13(20)3-4-15-16-5-6-18(19(24)12-22)21(16,2)10-8-17(15)20/h11,15-18,22H,3-10,12H2,1-2H3/t15-,16-,17-,18+,20-,21-/m0/s1",
        "InChIKey": null,
        "Canonical SMILES": "O=C1C=C2CCC3C(CCC4(C)C(C(=O)CO)CCC34)C2(C)CC1",
        "Molecular Formula": "C<sub>21</sub>H<sub>30</sub>O<sub>3</sub>",
        "Molecular Mass": "330.46",
        "Melting Point": "141.5 °C",
        "Density": "1.22 g/cm³"
    }
}