{
    "cas_no": "21742-00-7",
    "key_name": "2-Trifluoromethylbenzyl chloride",
    "cn_name": "2-三氟甲基苄基氯;邻三氟甲基氯苄;",
    "alternate_name": "Benzene, 1-(chloromethyl)-2-(trifluoromethyl)-;<em>o</em>-Xylene, α′-chloro-α,α,α-trifluoro-;1-(Chloromethyl)-2-(trifluoromethyl)benzene;2-Trifluoromethylbenzyl chloride",
    "duplicated_cas_no": "",
    "SMILES": "C(Cl)C1=C(C(F)(F)F)C=CC=C1",
    "meta_data": {
        "InChI": "InChI=1S/C8H6ClF3/c9-5-6-3-1-2-4-7(6)8(10,11)12/h1-4H,5H2",
        "InChIKey": null,
        "Canonical SMILES": "FC(F)(F)C=1C=CC=CC1CCl",
        "Molecular Formula": "C<sub>8</sub>H<sub>6</sub>ClF<sub>3</sub>",
        "Molecular Mass": "194.58",
        "Boiling Point": "72-73 °C @ Press: 15 Torr"
    }
}