{
    "cas_no": "3058-01-3",
    "key_name": "(±)-3-Methyladipic acid",
    "cn_name": null,
    "alternate_name": "Hexanedioic acid, 3-methyl-;Adipic acid, β-methyl-;3-Methylhexanedioic acid;β-Methyladipic acid;3-Methyladipic acid;(±)-3-Methyladipic acid;NSC 22069;3-Methyl-1,6-Hexanedioic acid",
    "duplicated_cas_no": "81177-02-8",
    "SMILES": "C(CCC(O)=O)(CC(O)=O)C",
    "meta_data": {
        "InChI": "InChI=1S/C7H12O4/c1-5(4-7(10)11)2-3-6(8)9/h5H,2-4H2,1H3,(H,8,9)(H,10,11)",
        "InChIKey": null,
        "Canonical SMILES": "O=C(O)CCC(C)CC(=O)O",
        "Molecular Formula": "C<sub>7</sub>H<sub>12</sub>O<sub>4</sub>",
        "Molecular Mass": "160.17",
        "Boiling Point": "220-222 °C @ Press: 18 Torr",
        "Melting Point": "101 °C"
    }
}