{
    "cas_no": "16365-27-8",
    "key_name": "2-(4-Nitrophenoxy)ethanol",
    "cn_name": null,
    "alternate_name": "Ethanol, 2-(4-nitrophenoxy)-;Ethanol, 2-(<em>p</em>-nitrophenoxy)-;2-(4-Nitrophenoxy)ethanol;β-Hydroxyethyl <em>p</em>-nitrophenyl ether;2-(<em>p</em>-Nitrophenoxy)ethanol;4-Nitro-(2-hydroxyethoxy)benzene;NSC 30512;NSC 47172;2-((4-Nitrophenyl)oxy)ethanol;2-(4-Nitrophenoxy)ethan-1-ol",
    "duplicated_cas_no": "",
    "SMILES": "N(=O)(=O)C1=CC=C(OCCO)C=C1",
    "meta_data": {
        "InChI": "InChI=1S/C8H9NO4/c10-5-6-13-8-3-1-7(2-4-8)9(11)12/h1-4,10H,5-6H2",
        "InChIKey": null,
        "Canonical SMILES": "O=N(=O)C1=CC=C(OCCO)C=C1",
        "Molecular Formula": "C<sub>8</sub>H<sub>9</sub>NO<sub>4</sub>",
        "Molecular Mass": "183.16",
        "Boiling Point": "182-183 °C @ Press: 1 Torr",
        "Melting Point": "89-92 °C"
    }
}