{
    "cas_no": "585-32-0",
    "key_name": "Cumylamine",
    "cn_name": "α,α-二甲基苄胺;",
    "alternate_name": "Benzenemethanamine, α,α-dimethyl-;Benzylamine, α,α-dimethyl-;α,α-Dimethylbenzenemethanamine;α,α-Dimethylbenzylamine;(2-Phenyl-2-propyl)amine;2-Amino-2-phenylpropane;1-Phenylisopropylamine;Cumylamine;1-Methyl-1-phenylethylamine;NSC 66156;2-Phenyl-2-propanamine",
    "duplicated_cas_no": "",
    "SMILES": "C(C)(C)(N)C1=CC=CC=C1",
    "meta_data": {
        "InChI": "InChI=1S/C9H13N/c1-9(2,10)8-6-4-3-5-7-8/h3-7H,10H2,1-2H3",
        "InChIKey": null,
        "Canonical SMILES": "NC(C=1C=CC=CC1)(C)C",
        "Molecular Formula": "C<sub>9</sub>H<sub>13</sub>N",
        "Molecular Mass": "135.21",
        "Boiling Point": "196.5 °C",
        "Melting Point": "129-131 °C"
    }
}