{
    "cas_no": "1070-65-1",
    "key_name": "Octanoic acid, 8-chloro-6-hydroxy-, ethyl ester",
    "cn_name": null,
    "alternate_name": "Octanoic acid, 8-chloro-6-hydroxy-, ethyl ester;Ethyl 8-chloro-6-hydroxyoctanoate;6-Hydroxy-8-chlorooctanoic acid ethyl ester;6-Hydroxy-8-chlorocaprylate",
    "duplicated_cas_no": "",
    "SMILES": "C(CCCCC(OCC)=O)(CCCl)O",
    "meta_data": {
        "InChI": "InChI=1S/C10H19ClO3/c1-2-14-10(13)6-4-3-5-9(12)7-8-11/h9,12H,2-8H2,1H3",
        "InChIKey": null,
        "Canonical SMILES": "O=C(OCC)CCCCC(O)CCCl",
        "Molecular Formula": "C<sub>10</sub>H<sub>19</sub>ClO<sub>3</sub>",
        "Molecular Mass": "222.71",
        "Boiling Point": "121 °C @ Press: 0.5 Torr",
        "Density": "1.0826 g/cm³ @ Temp: 20 °C"
    }
}