{
    "cas_no": "92643-17-9",
    "key_name": "6-Bromo-2-methoxy-1-naphthaleneacetonitrile",
    "cn_name": "(6-溴-2-甲氧基-1-萘基)乙腈;",
    "alternate_name": "1-Naphthaleneacetonitrile, 6-bromo-2-methoxy-;6-Bromo-2-methoxy-1-naphthaleneacetonitrile;(6-Bromo-2-methoxy-naphthalen-1-yl)-acetonitrile;2-(6-Bromo-2-methoxynaphthalen-1-yl)acetonitrile;2-(6-Bromo-2-methoxy-1-naphthyl)acetonitrile",
    "duplicated_cas_no": "",
    "SMILES": "C(C#N)C=1C2=C(C=CC1OC)C=C(Br)C=C2",
    "meta_data": {
        "InChI": "InChI=1S/C13H10BrNO/c1-16-13-5-2-9-8-10(14)3-4-11(9)12(13)6-7-15/h2-5,8H,6H2,1H3",
        "InChIKey": null,
        "Canonical SMILES": "N#CCC1=C(OC)C=CC2=CC(Br)=CC=C21",
        "Molecular Formula": "C<sub>13</sub>H<sub>10</sub>BrNO",
        "Molecular Mass": "276.13",
        "Melting Point": "140-143 °C"
    }
}