{
    "cas_no": "13099-35-9",
    "key_name": "17-Bromoheptadecanoic acid",
    "cn_name": null,
    "alternate_name": "Heptadecanoic acid, 17-bromo-;17-Bromoheptadecanoic acid;ω-Bromoheptadecanoic acid",
    "duplicated_cas_no": "",
    "SMILES": "C(CCCCCCCCCCBr)CCCCCC(O)=O",
    "meta_data": {
        "InChI": "InChI=1S/C17H33BrO2/c18-16-14-12-10-8-6-4-2-1-3-5-7-9-11-13-15-17(19)20/h1-16H2,(H,19,20)",
        "InChIKey": null,
        "Canonical SMILES": "O=C(O)CCCCCCCCCCCCCCCCBr",
        "Molecular Formula": "C<sub>17</sub>H<sub>33</sub>BrO<sub>2</sub>",
        "Molecular Mass": "349.35",
        "Melting Point": "74 °C"
    }
}