{
    "cas_no": "114-07-8",
    "key_name": "Erythromycin",
    "cn_name": null,
    "alternate_name": "Erythromycin;Erythromycin A;Oxacyclotetradecane, erythromycin deriv.;Dotycin;Erycin;Erythrocin;Erythrogran;Pantomicina;Oxacyclotetradecane-2,10-dione, 4-[(2,6-dideoxy-3-<em>C</em>-methyl-3-<em>O</em>-methyl-α-<span class=\"text-smallcaps\">L</smallcap>-<em>ribo</em>-hexopyranosyl)oxy]-14-ethyl-7,12,13-trihydroxy-3,5,7,9,11,13-hexamethyl-6-[[3,4,6-trideoxy-3-(dimethylamino)-β-<smallcap>D</span>-<em>xylo</em>-hexopyranosyl]oxy]-, [3<em>R</em>-(3<em>R</em>*,4<em>S</em>*,5<em>S</em>*,6<em>R</em>*,7<em>R</em>*,9<em>R</em>*,11<em>R</em>*,12<em>R</em>*,13<em>S</em>*,14<em>R</em>*)]-;Erycinum;Abboticin;Ilotycin;[3<em>R</em>-(3<em>R</em>*,4<em>S</em>*,5<em>S</em>*,6<em>R</em>*,7<em>R</em>*,9<em>R</em>*,11<em>R</em>*,12<em>R</em>*,13<em>S</em>*,14<em>R</em>*)]-4-[(2,6-Dideoxy-3-<em>C</em>-methyl-3-<em>O</em>-methyl-α-<span class=\"text-smallcaps\">L</smallcap>-<em>ribo</em>-hexopyranosyl)oxy]-14-ethyl-7,12,13-trihydroxy-3,5,7,9,11,13-hexamethyl-6-[[3,4,6-trideoxy-3-(dimethylamino)-β-<smallcap>D</span>-<em>xylo</em>-hexopyranosyl]oxy]oxacyclotetradecane-2,10-dione;E-Mycin;Erytab;Erycette;Theramycin Z;T-Stat;Emgel;Erythromast 36;Erythromid;Erymax;Abomacetin;Erycen;ERYC;Retcin;Staticin;PCE;Aknin;Inderm;Ak-Mycin;Ermycin;Erygel;EMU;Torlamicina;E-Base;Erythro;Stiemycin;EryDerm;NSC 55929;Vetwic;Eritrex;Eritromed;MeSH ID: D004917",
    "duplicated_cas_no": "7540-22-9;47879-92-5;47879-97-0;47880-49-9;50976-86-8;374700-25-1;775573-41-6;797051-71-9;856313-44-5;1348698-84-9;1349104-86-4;1349604-76-7",
    "SMILES": "O([C@@H]1[C@@H](C)[C@H](O[C@H]2C[C@](OC)(C)[C@@H](O)[C@H](C)O2)[C@@H](C)C(=O)O[C@H](CC)[C@@](C)(O)[C@H](O)[C@@H](C)C(=O)[C@H](C)C[C@@]1(C)O)[C@H]3[C@H](O)[C@@H](N(C)C)C[C@@H](C)O3",
    "meta_data": {
        "InChI": "InChI=1S/C37H67NO13/c1-14-25-37(10,45)30(41)20(4)27(39)18(2)16-35(8,44)32(51-34-28(40)24(38(11)12)15-19(3)47-34)21(5)29(22(6)33(43)49-25)50-26-17-36(9,46-13)31(42)23(7)48-26/h18-26,28-32,34,40-42,44-45H,14-17H2,1-13H3/t18-,19-,20+,21+,22-,23+,24+,25-,26+,28-,29+,30-,31+,32-,34+,35-,36-,37-/m1/s1",
        "InChIKey": null,
        "Canonical SMILES": "O=C1OC(CC)C(O)(C)C(O)C(C(=O)C(C)CC(O)(C)C(OC2OC(C)CC(N(C)C)C2O)C(C)C(OC3OC(C)C(O)C(OC)(C)C3)C1C)C",
        "Molecular Formula": "C<sub>37</sub>H<sub>67</sub>NO<sub>13</sub>",
        "Molecular Mass": "733.93",
        "Melting Point": "40-135 °C"
    }
}