{
    "cas_no": "16200-53-6",
    "key_name": "Hexahydro-2,5-methanopentalene-3a(1<em>H</em>)-carboxylic acid",
    "cn_name": null,
    "alternate_name": "2,5-Methanopentalene-3a(1<em>H</em>)-carboxylic acid, hexahydro-;Hexahydro-2,5-methanopentalene-3a(1<em>H</em>)-carboxylic acid;3-Noradamantanecarboxylic acid;Tricyclo[3.3.1.0<sup>3,7</sup>]nonane-3-carboxylic acid",
    "duplicated_cas_no": "",
    "SMILES": "C(O)(=O)C12C3CC(C1)CC(C2)C3",
    "meta_data": {
        "InChI": "InChI=1S/C10H14O2/c11-9(12)10-4-6-1-7(5-10)3-8(10)2-6/h6-8H,1-5H2,(H,11,12)",
        "InChIKey": null,
        "Canonical SMILES": "O=C(O)C12CC3CC(CC1C3)C2",
        "Molecular Formula": "C<sub>10</sub>H<sub>14</sub>O<sub>2</sub>",
        "Molecular Mass": "166.22",
        "Melting Point": "103-105 °C"
    }
}