{
    "cas_no": "90098-04-7",
    "key_name": "Rebamipide",
    "cn_name": null,
    "alternate_name": "4-Quinolinepropanoic acid, α-[(4-chlorobenzoyl)amino]-1,2-dihydro-2-oxo-;α-[(4-Chlorobenzoyl)amino]-1,2-dihydro-2-oxo-4-quinolinepropanoic acid;OPC 12759;Proamipide;Rebamipide;Mucosta;Rebator;2-(4-Chloro-benzoylamino)-3-(2-hydroxy-quinolin-4-yl)-propionic acid;2-(4-Chloro-benzoylamino)-3-(2-oxo-1,2-dihydro-quinolin-4-yl)-propionic acid;2-[(4-Chlorobenzoyl)amino]-3-(2-oxo-1<em>H</em>-quinolin-4-yl)propanoic acid",
    "duplicated_cas_no": "111911-87-6;139344-42-6",
    "SMILES": "C(C(NC(=O)C1=CC=C(Cl)C=C1)C(O)=O)C=2C=3C(NC(=O)C2)=CC=CC3",
    "meta_data": {
        "InChI": "InChI=1S/C19H15ClN2O4/c20-13-7-5-11(6-8-13)18(24)22-16(19(25)26)9-12-10-17(23)21-15-4-2-1-3-14(12)15/h1-8,10,16H,9H2,(H,21,23)(H,22,24)(H,25,26)",
        "InChIKey": null,
        "Canonical SMILES": "O=C1C=C(C=2C=CC=CC2N1)CC(NC(=O)C3=CC=C(Cl)C=C3)C(=O)O",
        "Molecular Formula": "C<sub>19</sub>H<sub>15</sub>ClN<sub>2</sub>O<sub>4</sub>",
        "Molecular Mass": "370.79",
        "Melting Point": "248-257 °C (decomp)"
    }
}