{
    "cas_no": "1129-41-5",
    "key_name": "Metolcarb",
    "cn_name": "3-甲基苯基甲基氨基甲酸酯;速灭威;3-甲苯基-N-甲基氨基甲酸酯;N-甲基-3-甲苯基氨基甲酸酯;",
    "alternate_name": "Carbamic acid, <em>N</em>-methyl-, 3-methylphenyl ester;Carbamic acid, methyl-, <em>m</em>-tolyl ester;Carbamic acid, methyl-, 3-methylphenyl ester;<em>m</em>-Cresyl methylcarbamate;<em>m</em>-Tolyl methylcarbamate;DRC 3341;Tsumacide;MTMC;3-Methylphenyl methylcarbamate;3-Tolyl methylcarbamate;<em>m</em>-Cresyl <em>N</em>-methylcarbamate;<em>m</em>-Methylphenyl methylcarbamate;Metacrate;S 1065;Tsumaunka;<em>m</em>-Methylphenyl <em>N</em>-methylcarbamate;Metolcarb;NSC 91193",
    "duplicated_cas_no": "",
    "SMILES": "O(C(NC)=O)C1=CC(C)=CC=C1",
    "meta_data": {
        "InChI": "InChI=1S/C9H11NO2/c1-7-4-3-5-8(6-7)12-9(11)10-2/h3-6H,1-2H3,(H,10,11)",
        "InChIKey": null,
        "Canonical SMILES": "O=C(OC1=CC=CC(=C1)C)NC",
        "Molecular Formula": "C<sub>9</sub>H<sub>11</sub>NO<sub>2</sub>",
        "Molecular Mass": "165.19",
        "Melting Point": "76-77 °C"
    }
}