{
    "cas_no": "51498-38-5",
    "key_name": "4-Chloro-3-pyridinesulfonic acid",
    "cn_name": null,
    "alternate_name": "3-Pyridinesulfonic acid, 4-chloro-;4-Chloro-3-pyridinesulfonic acid",
    "duplicated_cas_no": "",
    "SMILES": "S(=O)(=O)(O)C=1C(Cl)=CC=NC1",
    "meta_data": {
        "InChI": "InChI=1S/C5H4ClNO3S/c6-4-1-2-7-3-5(4)11(8,9)10/h1-3H,(H,8,9,10)",
        "InChIKey": null,
        "Canonical SMILES": "O=S(=O)(O)C=1C=NC=CC1Cl",
        "Molecular Formula": "C<sub>5</sub>H<sub>4</sub>ClNO<sub>3</sub>S",
        "Molecular Mass": "193.61",
        "Melting Point": "318-321 °C"
    }
}