{
    "cas_no": "707-72-2",
    "key_name": "1-(Dichloromethyl)-2-(trifluoromethyl)benzene",
    "cn_name": "2-(三氟甲氧基)亚苄基氯;",
    "alternate_name": "Benzene, 1-(dichloromethyl)-2-(trifluoromethyl)-;<em>o</em>-Xylene, α′,α′-dichloro-α,α,α-trifluoro-;1-(Dichloromethyl)-2-(trifluoromethyl)benzene;<em>o</em>-Trifluoromethylbenzal chloride;2-Trifluoromethylbenzal chloride",
    "duplicated_cas_no": "",
    "SMILES": "C(F)(F)(F)C1=C(C(Cl)Cl)C=CC=C1",
    "meta_data": {
        "InChI": "InChI=1S/C8H5Cl2F3/c9-7(10)5-3-1-2-4-6(5)8(11,12)13/h1-4,7H",
        "InChIKey": null,
        "Canonical SMILES": "FC(F)(F)C=1C=CC=CC1C(Cl)Cl",
        "Molecular Formula": "C<sub>8</sub>H<sub>5</sub>Cl<sub>2</sub>F<sub>3</sub>",
        "Molecular Mass": "229.03",
        "Boiling Point": "188-190 °C"
    }
}