{
    "cas_no": "439239-90-4",
    "key_name": "Lasmiditan",
    "cn_name": null,
    "alternate_name": "Benzamide, 2,4,6-trifluoro-<em>N</em>-[6-[(1-methyl-4-piperidinyl)carbonyl]-2-pyridinyl]-;2,4,6-Trifluoro-<em>N</em>-[6-[(1-methyl-4-piperidinyl)carbonyl]-2-pyridinyl]benzamide;Lasmiditan;COL 144;LY 573144;2,4,6-Trifluoro-<em>N</em>-[6-(1-methylpiperidine-4-carbonyl)pyridin-2-yl]benzamide",
    "duplicated_cas_no": "1246846-27-4",
    "SMILES": "C(=O)(C=1N=C(NC(=O)C2=C(F)C=C(F)C=C2F)C=CC1)C3CCN(C)CC3",
    "meta_data": {
        "InChI": "InChI=1S/C19H18F3N3O2/c1-25-7-5-11(6-8-25)18(26)15-3-2-4-16(23-15)24-19(27)17-13(21)9-12(20)10-14(17)22/h2-4,9-11H,5-8H2,1H3,(H,23,24,27)",
        "InChIKey": null,
        "Canonical SMILES": "O=C(NC=1N=C(C=CC1)C(=O)C2CCN(C)CC2)C=3C(F)=CC(F)=CC3F",
        "Molecular Formula": "C<sub>19</sub>H<sub>18</sub>F<sub>3</sub>N<sub>3</sub>O<sub>2</sub>",
        "Molecular Mass": "377.36",
        "Melting Point": "255 °C"
    }
}