{
    "cas_no": "13031-39-5",
    "key_name": "Acetic acid, 3-chlorophenyl ester",
    "cn_name": null,
    "alternate_name": "Acetic acid, 3-chlorophenyl ester;Acetic acid, <em>m</em>-chlorophenyl ester;Phenol, <em>m</em>-chloro-, acetate;<em>m</em>-Chlorophenyl acetate;<em>m</em>-Acetoxychlorobenzene;3-Chlorophenol acetate;3-Chlorophenyl acetate",
    "duplicated_cas_no": "",
    "SMILES": "O(C(C)=O)C1=CC(Cl)=CC=C1",
    "meta_data": {
        "InChI": "InChI=1S/C8H7ClO2/c1-6(10)11-8-4-2-3-7(9)5-8/h2-5H,1H3",
        "InChIKey": null,
        "Canonical SMILES": "O=C(OC=1C=CC=C(Cl)C1)C",
        "Molecular Formula": "C<sub>8</sub>H<sub>7</sub>ClO<sub>2</sub>",
        "Molecular Mass": "170.59",
        "Boiling Point": "108 °C"
    }
}