{
    "cas_no": "913836-26-7",
    "key_name": "2-(4-Chloro-3-nitrophenyl)-4,4,5,5-tetramethyl-1,3,2-dioxaborolane",
    "cn_name": "4-氯-3-硝基苯基硼酸频哪醇酯;",
    "alternate_name": "1,3,2-Dioxaborolane, 2-(4-chloro-3-nitrophenyl)-4,4,5,5-tetramethyl-;2-(4-Chloro-3-nitrophenyl)-4,4,5,5-tetramethyl-1,3,2-dioxaborolane",
    "duplicated_cas_no": "",
    "SMILES": "CC1(C)OB(OC1(C)C)C2=CC(N(=O)=O)=C(Cl)C=C2",
    "meta_data": {
        "InChI": "InChI=1S/C12H15BClNO4/c1-11(2)12(3,4)19-13(18-11)8-5-6-9(14)10(7-8)15(16)17/h5-7H,1-4H3",
        "InChIKey": null,
        "Canonical SMILES": "O=N(=O)C1=CC(=CC=C1Cl)B2OC(C)(C)C(O2)(C)C",
        "Molecular Formula": "C<sub>12</sub>H<sub>15</sub>BClNO<sub>4</sub>",
        "Molecular Mass": "283.52",
        "Melting Point": "39-41 °C"
    }
}