{
    "cas_no": "1758-88-9",
    "key_name": "1,4-Dimethyl-2-ethylbenzene",
    "cn_name": "2-乙基对二甲苯;",
    "alternate_name": "Benzene, 2-ethyl-1,4-dimethyl-;<em>p</em>-Xylene, 2-ethyl-;2-Ethyl-1,4-dimethylbenzene;1,4-Dimethyl-2-ethylbenzene;2-Ethyl-<em>p</em>-xylene;2,5-Dimethylethylbenzene;1-Ethyl-2,5-dimethylbenzene;NSC 74186;1-Ethyl-3,6-dimethylbenzene",
    "duplicated_cas_no": "",
    "SMILES": "C(C)C1=C(C)C=CC(C)=C1",
    "meta_data": {
        "InChI": "InChI=1S/C10H14/c1-4-10-7-8(2)5-6-9(10)3/h5-7H,4H2,1-3H3",
        "InChIKey": null,
        "Canonical SMILES": "C=1C=C(C(=CC1C)CC)C",
        "Molecular Formula": "C<sub>10</sub>H<sub>14</sub>",
        "Molecular Mass": "134.22",
        "Boiling Point": "186.9 °C",
        "Melting Point": "-53.7 °C",
        "Density": "0.8750 g/cm³ @ Temp: 22 °C"
    }
}