{
    "cas_no": "116-25-6",
    "key_name": "1-(Hydroxymethyl)-5,5-dimethylhydantoin",
    "cn_name": "1-羟甲基-5,5-二甲基海因;",
    "alternate_name": "2,4-Imidazolidinedione, 1-(hydroxymethyl)-5,5-dimethyl-;Hydantoin, 1-(hydroxymethyl)-5,5-dimethyl-;1-(Hydroxymethyl)-5,5-dimethyl-2,4-imidazolidinedione;1-(Hydroxymethyl)-5,5-dimethylhydantoin;MDM Hydantoin;Dantoin MDMH;1-Methylol-5,5-dimethylhydantoin;NSC 9185;<em>N</em>-Methylol 5,5-dimethyl hydantoin",
    "duplicated_cas_no": "",
    "SMILES": "C(O)N1C(C)(C)C(=O)NC1=O",
    "meta_data": {
        "InChI": "InChI=1S/C6H10N2O3/c1-6(2)4(10)7-5(11)8(6)3-9/h9H,3H2,1-2H3,(H,7,10,11)",
        "InChIKey": null,
        "Canonical SMILES": "O=C1NC(=O)C(N1CO)(C)C",
        "Molecular Formula": "C<sub>6</sub>H<sub>10</sub>N<sub>2</sub>O<sub>3</sub>",
        "Molecular Mass": "158.16",
        "Melting Point": "100 °C"
    }
}