{
    "cas_no": "2998-56-3",
    "key_name": "<em>N</em>,<em>N</em>-Bis(2-chloroethyl)carbamic chloride",
    "cn_name": null,
    "alternate_name": "Carbamic chloride, <em>N</em>,<em>N</em>-bis(2-chloroethyl)-;Carbamoyl chloride, bis(2-chloroethyl)-;Carbamic chloride, bis(2-chloroethyl)-;<em>N</em>,<em>N</em>-Bis(2-chloroethyl)carbamic chloride;Bis(2-chloroethyl)carbamoyl chloride;<em>N</em>,<em>N</em>-Bis(2-chloroethyl)carbamoyl chloride;<em>N</em>,<em>N</em>-Bis(β-chloroethyl)carbamoyl chloride;NSC 73023",
    "duplicated_cas_no": "",
    "SMILES": "N(CCCl)(CCCl)C(Cl)=O",
    "meta_data": {
        "InChI": "InChI=1S/C5H8Cl3NO/c6-1-3-9(4-2-7)5(8)10/h1-4H2",
        "InChIKey": null,
        "Canonical SMILES": "O=C(Cl)N(CCCl)CCCl",
        "Molecular Formula": "C<sub>5</sub>H<sub>8</sub>Cl<sub>3</sub>NO",
        "Molecular Mass": "204.48",
        "Boiling Point": "92-96 °C @ Press: 0.1 Torr",
        "Melting Point": "101-103 °C",
        "Density": "1.317 g/cm³ @ Temp: 20 °C"
    }
}