{
    "cas_no": "5780-07-4",
    "key_name": "Myristicinaldehyde",
    "cn_name": "5-甲氧基3,4-亚甲二氧基苯甲醛;肉豆蔻醛;",
    "alternate_name": "1,3-Benzodioxole-5-carboxaldehyde, 7-methoxy-;Benzaldehyde, 3-methoxy-4,5-(methylenedioxy)-;7-Methoxy-1,3-benzodioxole-5-carboxaldehyde;Myristicinaldehyde;Myristicaldehyde;3-Methoxy-4,5-(methylenedioxy)benzaldehyde;3,4-(Methylenedioxy)-5-methoxybenzaldehyde;5-Methoxy-3,4-(methylenedioxy)benzaldehyde;5-Methoxypiperonal;5-Formyl-7-methoxy-1,3-benzodioxole;7-Methoxybenzo[<em>d</em>][1,3]dioxole-5-carboxaldehyde",
    "duplicated_cas_no": "",
    "SMILES": "O(C)C1=C2C(=CC(C=O)=C1)OCO2",
    "meta_data": {
        "InChI": "InChI=1S/C9H8O4/c1-11-7-2-6(4-10)3-8-9(7)13-5-12-8/h2-4H,5H2,1H3",
        "InChIKey": null,
        "Canonical SMILES": "O=CC1=CC(OC)=C2OCOC2=C1",
        "Molecular Formula": "C<sub>9</sub>H<sub>8</sub>O<sub>4</sub>",
        "Molecular Mass": "180.16",
        "Boiling Point": "110-115 °C @ Press: 0.5 Torr",
        "Melting Point": "131 °C"
    }
}