{
    "cas_no": "629-33-4",
    "key_name": "Hexyl formate",
    "cn_name": "甲酸己酯;蚁酸己酯;甲酸正己酯;",
    "alternate_name": "Formic acid, hexyl ester;Hexyl alcohol, formate;Hexyl formate;<em>n</em>-Hexyl formate;NSC 4780",
    "duplicated_cas_no": "",
    "SMILES": "C(CCCC)COC=O",
    "meta_data": {
        "InChI": "InChI=1S/C7H14O2/c1-2-3-4-5-6-9-7-8/h7H,2-6H2,1H3",
        "InChIKey": null,
        "Canonical SMILES": "O=COCCCCCC",
        "Molecular Formula": "C<sub>7</sub>H<sub>14</sub>O<sub>2</sub>",
        "Molecular Mass": "130.18",
        "Boiling Point": "155.5 °C",
        "Melting Point": "-62.6 °C",
        "Density": "0.990 g/cm³ @ Temp: 20 °C"
    }
}