{
    "cas_no": "61926-22-5",
    "key_name": "Ethidium homodimer",
    "cn_name": null,
    "alternate_name": "Phenanthridinium, 5,5′-[1,2-ethanediylbis(imino-3,1-propanediyl)]bis[3,8-diamino-6-phenyl-, chloride, hydrochloride (1:2:2);Phenanthridinium, 5,5′-[1,2-ethanediylbis(imino-3,1-propanediyl)]bis[3,8-diamino-6-phenyl-, dichloride, dihydrochloride;5,5′-(4,7-Diazadecamethylene)bis(3,8-diamino-6-phenylphenanthridinium) dichloride dihydrochloride;Ethidium homodimer;Ethidium homodimer 1;EthD 1;EH 1",
    "duplicated_cas_no": "",
    "SMILES": "C(CCNCCNCCC[N+]=1C(=C2C(=C3C1C=C(N)C=C3)C=CC(N)=C2)C4=CC=CC=C4)[N+]=5C(=C6C(=C7C5C=C(N)C=C7)C=CC(N)=C6)C8=CC=CC=C8.[Cl-].Cl",
    "meta_data": {
        "InChI": "InChI=1S/C46H46N8.4ClH/c47-33-13-17-37-39-19-15-35(49)29-43(39)53(45(41(37)27-33)31-9-3-1-4-10-31)25-7-21-51-23-24-52-22-8-26-54-44-30-36(50)16-20-40(44)38-18-14-34(48)28-42(38)46(54)32-11-5-2-6-12-32;;;;/h1-6,9-20,27-30,49-52H,7-8,21-26,47-48H2;4*1H",
        "InChIKey": null,
        "Canonical SMILES": "[Cl-].Cl.NC=1C=CC=2C=3C=CC(N)=CC3[N+](=C(C=4C=CC=CC4)C2C1)CCCNCCNCCC[N+]=5C=6C=C(N)C=CC6C=7C=CC(N)=CC7C5C=8C=CC=CC8",
        "Molecular Formula": "C<sub>46</sub>H<sub>48</sub>N<sub>8</sub>.2ClH.2Cl",
        "Molecular Mass": "",
        "Melting Point": "275 °C"
    }
}