{
    "cas_no": "2364-75-2",
    "key_name": "Emoxipin",
    "cn_name": "2-乙基-6-甲基-3-羟基吡啶;",
    "alternate_name": "3-Pyridinol, 2-ethyl-6-methyl-;2-Ethyl-6-methyl-3-pyridinol;6-Methyl-2-ethyl-3-hydroxypyridine;2-Ethyl-6-methyl-3-hydroxypyridine;2-Ethyl-3-hydroxy-6-methylpyridine;Epygid;Epigid;Emoxypine;Emoxipine;Emoxipin;Emoxypin;Emoxibel",
    "duplicated_cas_no": "123939-43-5",
    "SMILES": "C(C)C1=C(O)C=CC(C)=N1",
    "meta_data": {
        "InChI": "InChI=1S/C8H11NO/c1-3-7-8(10)5-4-6(2)9-7/h4-5,10H,3H2,1-2H3",
        "InChIKey": null,
        "Canonical SMILES": "OC1=CC=C(N=C1CC)C",
        "Molecular Formula": "C<sub>8</sub>H<sub>11</sub>NO",
        "Molecular Mass": "137.18",
        "Melting Point": "169-170 °C"
    }
}