{
    "cas_no": "70528-90-4",
    "key_name": "Disperse Yellow 211",
    "cn_name": null,
    "alternate_name": "3-Pyridinecarbonitrile, 5-[2-(4-chloro-2-nitrophenyl)diazenyl]-1-ethyl-1,2-dihydro-6-hydroxy-4-methyl-2-oxo-;3-Pyridinecarbonitrile, 5-[(4-chloro-2-nitrophenyl)azo]-1-ethyl-1,2-dihydro-6-hydroxy-4-methyl-2-oxo-;5-[2-(4-Chloro-2-nitrophenyl)diazenyl]-1-ethyl-1,2-dihydro-6-hydroxy-4-methyl-2-oxo-3-pyridinecarbonitrile;C.I. 12755;C.I. Disperse Yellow 211;Terasil Yellow 4G;Disperse Yellow 211;Terasil Yellow W 4G;Cbene Yellow GNL;Disperse Yellow M 4GL;Disperse Yellow SE 4G",
    "duplicated_cas_no": "86836-02-4",
    "SMILES": "N(=NC1=C(N(=O)=O)C=C(Cl)C=C1)C=2C(C)=C(C#N)C(=O)N(CC)C2O",
    "meta_data": {
        "InChI": "InChI=1S/C15H12ClN5O4/c1-3-20-14(22)10(7-17)8(2)13(15(20)23)19-18-11-5-4-9(16)6-12(11)21(24)25/h4-6,23H,3H2,1-2H3",
        "InChIKey": null,
        "Canonical SMILES": "N#CC=1C(=O)N(C(O)=C(N=NC2=CC=C(Cl)C=C2N(=O)=O)C1C)CC",
        "Molecular Formula": "C<sub>15</sub>H<sub>12</sub>ClN<sub>5</sub>O<sub>4</sub>",
        "Molecular Mass": "361.74",
        "Melting Point": "227-229 °C"
    }
}