{
    "cas_no": "25016-01-7",
    "key_name": "5-Bromo-2-methoxybenzaldehyde",
    "cn_name": "5-溴-2-甲氧基苯甲醛;",
    "alternate_name": "Benzaldehyde, 5-bromo-2-methoxy-;<em>o</em>-Anisaldehyde, 5-bromo-;5-Bromo-2-methoxybenzaldehyde;2-Methoxy-5-bromobenzaldehyde;5-Bromo-<em>o</em>-anisaldehyde;5-Bromo-2-anisaldehyde;3-Bromo-6-methoxybenzaldehyde;NSC 41186",
    "duplicated_cas_no": "",
    "SMILES": "O(C)C1=C(C=O)C=C(Br)C=C1",
    "meta_data": {
        "InChI": "InChI=1S/C8H7BrO2/c1-11-8-3-2-7(9)4-6(8)5-10/h2-5H,1H3",
        "InChIKey": null,
        "Canonical SMILES": "O=CC1=CC(Br)=CC=C1OC",
        "Molecular Formula": "C<sub>8</sub>H<sub>7</sub>BrO<sub>2</sub>",
        "Molecular Mass": "215.04",
        "Melting Point": "114.5 °C"
    }
}