{
    "cas_no": "421-20-5",
    "key_name": "Fluorosulfuric acid, methyl ester",
    "cn_name": "氟化磺酸甲酯;氟磺酸甲酯;氟化磺酸甲酯;",
    "alternate_name": "Fluorosulfuric acid, methyl ester;Methyl fluorosulfate;Methyl fluosulfonate;Methyl fluorosulfonate;Magic Methyl;[(Fluorosulfonyl)oxy]methane",
    "duplicated_cas_no": "",
    "SMILES": "S(OC)(F)(=O)=O",
    "meta_data": {
        "InChI": "InChI=1S/CH3FO3S/c1-5-6(2,3)4/h1H3",
        "InChIKey": null,
        "Canonical SMILES": "O=S(=O)(F)OC",
        "Molecular Formula": "CH<sub>3</sub>FO<sub>3</sub>S",
        "Molecular Mass": "114.10",
        "Boiling Point": "93 °C",
        "Melting Point": "-95 °C",
        "Density": "1.427 g/cm³ @ Temp: 16 °C"
    }
}