{
    "cas_no": "1705-85-7",
    "key_name": "6-Methylchrysene",
    "cn_name": null,
    "alternate_name": "Chrysene, 6-methyl-;6-Methylchrysene",
    "duplicated_cas_no": "",
    "SMILES": "CC1=CC2=C(C=3C1=CC=CC3)C=CC=4C2=CC=CC4",
    "meta_data": {
        "InChI": "InChI=1S/C19H14/c1-13-12-19-16-8-3-2-6-14(16)10-11-18(19)17-9-5-4-7-15(13)17/h2-12H,1H3",
        "InChIKey": null,
        "Canonical SMILES": "C=1C=CC2=C(C1)C=CC=3C=4C=CC=CC4C(=CC23)C",
        "Molecular Formula": "C<sub>19</sub>H<sub>14</sub>",
        "Molecular Mass": "242.31",
        "Melting Point": "161-161.4 °C"
    }
}