{
    "cas_no": "22717-57-3",
    "key_name": "Methyl 5-methylsalicylate",
    "cn_name": "5-甲基水杨酸甲酯;5-甲基-2-羟基苯甲酸甲酯;",
    "alternate_name": "Benzoic acid, 2-hydroxy-5-methyl-, methyl ester;2,5-Cresotic acid, methyl ester;Methyl 5-methylsalicylate;2-Hydroxy-5-methylbenzoic acid methyl ester;Methyl 2-hydroxy-5-methylbenzoate;NSC 165635;2-(Methoxycarbonyl)-4-methylphenol",
    "duplicated_cas_no": "",
    "SMILES": "C(OC)(=O)C1=C(O)C=CC(C)=C1",
    "meta_data": {
        "InChI": "InChI=1S/C9H10O3/c1-6-3-4-8(10)7(5-6)9(11)12-2/h3-5,10H,1-2H3",
        "InChIKey": null,
        "Canonical SMILES": "O=C(OC)C1=CC(=CC=C1O)C",
        "Molecular Formula": "C<sub>9</sub>H<sub>10</sub>O<sub>3</sub>",
        "Molecular Mass": "166.17",
        "Boiling Point": "244.5 °C",
        "Melting Point": "-1 °C",
        "Density": "1.1673 g/cm³ @ Temp: 0 °C"
    }
}