{
    "cas_no": "3172-52-9",
    "key_name": "2,5-Dichlorothiophene",
    "cn_name": "2,5-二氯噻吩;",
    "alternate_name": "Thiophene, 2,5-dichloro-;2,5-Dichlorothiophene;5-Chloro-2-thienyl chloride;NSC 60527",
    "duplicated_cas_no": "",
    "SMILES": "ClC=1SC(Cl)=CC1",
    "meta_data": {
        "InChI": "InChI=1S/C4H2Cl2S/c5-3-1-2-4(6)7-3/h1-2H",
        "InChIKey": null,
        "Canonical SMILES": "ClC=1SC(Cl)=CC1",
        "Molecular Formula": "C<sub>4</sub>H<sub>2</sub>Cl<sub>2</sub>S",
        "Molecular Mass": "153.03",
        "Boiling Point": "162 °C",
        "Melting Point": "-40.5 °C",
        "Density": "1.4473 g/cm³ @ Temp: 20 °C"
    }
}