{
    "cas_no": "31301-28-7",
    "key_name": "4-Methyl-1,10-phenanthroline",
    "cn_name": "4-甲基-1,10-邻二氮杂菲;",
    "alternate_name": "1,10-Phenanthroline, 4-methyl-;4-Methyl-1,10-phenanthroline",
    "duplicated_cas_no": "",
    "SMILES": "CC=1C=2C(=C3C(=CC2)C=CC=N3)N=CC1",
    "meta_data": {
        "InChI": "InChI=1S/C13H10N2/c1-9-6-8-15-13-11(9)5-4-10-3-2-7-14-12(10)13/h2-8H,1H3",
        "InChIKey": null,
        "Canonical SMILES": "N=1C=CC=C2C=CC3=C(N=CC=C3C)C12",
        "Molecular Formula": "C<sub>13</sub>H<sub>10</sub>N<sub>2</sub>",
        "Molecular Mass": "194.23",
        "Melting Point": "144-145 °C"
    }
}