{
    "cas_no": "2008-39-1",
    "key_name": "Aminol",
    "cn_name": "2,4-二氯苯氧乙酸二甲胺盐;2,4-滴二甲胺盐;",
    "alternate_name": "Acetic acid, 2-(2,4-dichlorophenoxy)-, compd. with <em>N</em>-methylmethanamine (1:1);Acetic acid, (2,4-dichlorophenoxy)-, compd. with dimethylamine (1:1);Acetic acid, (2,4-dichlorophenoxy)-, compd. with <em>N</em>-methylmethanamine (1:1);Acetic acid, (2,4-dichlorophenoxy)-, compd. with Me<sub>2</sub>NH;Acetic acid, (2,4-dichlorophenoxy)-, salt with Me<sub>2</sub>NH;Dimethylamine, (2,4-dichlorophenoxy)acetate;Methanamine, <em>N</em>-methyl-, (2,4-dichlorophenoxy)acetate;(2,4-Dichlorophenoxy)acetic acid dimethylamine;2,4-D dimethylamine salt;2,4-D dimethylamine;Dimethylammonium (2,4-dichlorophenoxy)acetate;(2,4-Dichlorophenoxy)acetic acid dimethylamine salt;Hormin;2,4-D Amine salt;Bladex G;2,4-D amine;Phordene;Formula 40;2,4-D DMA;Monosan;DMA 4;DMA 4 (pesticide);Aminol;Aminol (herbicide);Weedar 96;Farmco D 50;D 50 (pesticide);D 50;Aminopielik 39;Brabant 2,4-D amine;Dikamin D;Spraygraze;U 46D Fluid;Shirweed 500;Spritz-Hormin;Amisol;Weedar 64;Clean Crop 2,4-D Amine 500;Wilbur-Ellis 2,4-D Amine 500;Aminopielik 600SL;DMA 6;Aminopielek 720;Amicide;Amin'a;Aminopielik Standard 4600SL;Aminopielik Standard 600SL;Aminopielik Standard;Luvaram;Agro D amine;Cornox amine;DMA 806BR;Savage;Depitox;Agrisolution;Herboxon;2,4-D dimethylammonium salt;Weedar;WAM 40;Base Camp Amine 4;WEEDestroy AM-40;DMA 4 IVM;2,4-Dichlorophenoxyacetic acid dimethylamine salt;Sculpin G;2-(2,4-Dichlorophenoxy)acetic acid dimethylamine salt",
    "duplicated_cas_no": "123950-90-3;59644-62-1;64296-19-1",
    "SMILES": "N(C)C.O(CC(O)=O)C1=C(Cl)C=C(Cl)C=C1",
    "meta_data": {
        "InChI": "InChI=1S/C8H6Cl2O3.C2H7N/c9-5-1-2-7(6(10)3-5)13-4-8(11)12;1-3-2/h1-3H,4H2,(H,11,12);3H,1-2H3",
        "InChIKey": null,
        "Canonical SMILES": "O=C(O)COC1=CC=C(Cl)C=C1Cl.N(C)C",
        "Molecular Formula": "C<sub>8</sub>H<sub>6</sub>Cl<sub>2</sub>O<sub>3</sub>.C<sub>2</sub>H<sub>7</sub>N",
        "Molecular Mass": "",
        "Melting Point": "85-87 °C"
    }
}