{
    "cas_no": "68751-90-6",
    "key_name": "(5-Chloro-2-hydroxy-4-methylphenyl)phenylmethanone",
    "cn_name": "5-氯-2-羟基-4-甲基苄苯酮;",
    "alternate_name": "Methanone, (5-chloro-2-hydroxy-4-methylphenyl)phenyl-;(5-Chloro-2-hydroxy-4-methylphenyl)phenylmethanone;4-Methyl-5-chloro-2-hydroxybenzophenone;5-Chloro-2-hydroxy-4-methylbenzophenone;5-Chloro-4-methyl-2-hydroxybenzophenone;2-Benzoyl-4-chloro-5-methylphenol",
    "duplicated_cas_no": "",
    "SMILES": "C(=O)(C1=C(O)C=C(C)C(Cl)=C1)C2=CC=CC=C2",
    "meta_data": {
        "InChI": "InChI=1S/C14H11ClO2/c1-9-7-13(16)11(8-12(9)15)14(17)10-5-3-2-4-6-10/h2-8,16H,1H3",
        "InChIKey": null,
        "Canonical SMILES": "O=C(C=1C=CC=CC1)C2=CC(Cl)=C(C=C2O)C",
        "Molecular Formula": "C<sub>14</sub>H<sub>11</sub>ClO<sub>2</sub>",
        "Molecular Mass": "246.69",
        "Melting Point": "142 °C"
    }
}