{
    "cas_no": "98-80-6",
    "key_name": "Phenylboronic acid",
    "cn_name": "苯硼酸;",
    "alternate_name": "Boronic acid, <em>B</em>-phenyl-;Benzeneboronic acid;Boronic acid, phenyl-;Boric acid, phenyl-;<em>B</em>-Phenylboronic acid;Phenylboronic acid;Dihydroxyphenylborane;Phenyldihydroxyborane;NSC 66487",
    "duplicated_cas_no": "2055000-33-2",
    "SMILES": "B(O)(O)C1=CC=CC=C1",
    "meta_data": {
        "InChI": "InChI=1S/C6H7BO2/c8-7(9)6-4-2-1-3-5-6/h1-5,8-9H",
        "InChIKey": null,
        "Canonical SMILES": "OB(O)C=1C=CC=CC1",
        "Molecular Formula": "C<sub>6</sub>H<sub>7</sub>BO<sub>2</sub>",
        "Molecular Mass": "121.93",
        "Melting Point": "219 °C"
    }
}