{
    "cas_no": "42292-18-2",
    "key_name": "3-[1,3,3,3-Tetramethyl-1-[(trimethylsilyl)oxy]-1-disiloxanyl]-1-propanamine",
    "cn_name": null,
    "alternate_name": "1-Propanamine, 3-[1,3,3,3-tetramethyl-1-[(trimethylsilyl)oxy]-1-disiloxanyl]-;1-Propanamine, 3-[1,3,3,3-tetramethyl-1-[(trimethylsilyl)oxy]disiloxanyl]-;3-[1,3,3,3-Tetramethyl-1-[(trimethylsilyl)oxy]-1-disiloxanyl]-1-propanamine;3-(3-Aminopropyl)heptamethyltrisiloxane;3-Aminopropylbis(trimethylsiloxy)methylsilane;3-[1,3,3,3-Tetramethyl-1-[(trimethylsilyloxy)disiloxanyl]propylamine;3-Aminopropylmethylbis(trimethylsiloxy)silane;3-(3-Aminopropyl)methylbis(trimethylsiloxy)silane;SIA 0604.5;3-[Bis(trimethylsilyloxy)(methyl)silyl]propan-1-amine",
    "duplicated_cas_no": "",
    "SMILES": "O([Si](O[Si](C)(C)C)(CCCN)C)[Si](C)(C)C",
    "meta_data": {
        "InChI": "InChI=1S/C10H29NO2Si3/c1-14(2,3)12-16(7,10-8-9-11)13-15(4,5)6/h8-11H2,1-7H3",
        "InChIKey": null,
        "Canonical SMILES": "O([Si](O[Si](C)(C)C)(C)CCCN)[Si](C)(C)C",
        "Molecular Formula": "C<sub>10</sub>H<sub>29</sub>NO<sub>2</sub>Si<sub>3</sub>",
        "Molecular Mass": "279.60",
        "Boiling Point": "75-78 °C @ Press: 0.75 Torr",
        "Density": "0.856 g/cm³"
    }
}