{
    "cas_no": "2739-97-1",
    "key_name": "2-Pyridineacetonitrile",
    "cn_name": "2-吡啶乙腈;吡啶-2-乙腈;",
    "alternate_name": "2-Pyridineacetonitrile;2-Pyridylacetonitrile;2-(2-Pyridyl)acetonitrile;2-(Cyanomethyl)pyridine;(2-Pyridinyl)acetonitrile;(Pyridyl-2-yl)acetonitrile;2-(Pyridin-2-yl)acetonitrile",
    "duplicated_cas_no": "",
    "SMILES": "C(C#N)C1=CC=CC=N1",
    "meta_data": {
        "InChI": "InChI=1S/C7H6N2/c8-5-4-7-3-1-2-6-9-7/h1-3,6H,4H2",
        "InChIKey": null,
        "Canonical SMILES": "N#CCC1=NC=CC=C1",
        "Molecular Formula": "C<sub>7</sub>H<sub>6</sub>N<sub>2</sub>",
        "Molecular Mass": "118.14",
        "Boiling Point": "80-85 °C @ Press: 0.5 Torr",
        "Melting Point": "23.0-25.5 °C"
    }
}