{
    "cas_no": "4730-54-5",
    "key_name": "1,4,7-Triazacyclononane",
    "cn_name": "1,4,7-三氮杂环壬烷;",
    "alternate_name": "1<em>H</em>-1,4,7-Triazonine, octahydro-;Octahydro-1<em>H</em>-1,4,7-triazonine;1,4,7-Triazacyclononane;NSC 681101;1,4,7-Triazonane;TACN",
    "duplicated_cas_no": "2323114-17-4",
    "SMILES": "C1CNCCNCCN1",
    "meta_data": {
        "InChI": "InChI=1S/C6H15N3/c1-2-8-5-6-9-4-3-7-1/h7-9H,1-6H2",
        "InChIKey": null,
        "Canonical SMILES": "N1CCNCCNCC1",
        "Molecular Formula": "C<sub>6</sub>H<sub>15</sub>N<sub>3</sub>",
        "Molecular Mass": "129.20",
        "Melting Point": "62 °C"
    }
}