{
    "cas_no": "120-74-1",
    "key_name": "5-Norbornene-2-carboxylic acid",
    "cn_name": "5-降冰片烯-2-羧酸;双环[2.2.1]庚-5-烯-2-羧酸;",
    "alternate_name": "Bicyclo[2.2.1]hept-5-ene-2-carboxylic acid;5-Norbornene-2-carboxylic acid;Norbornenecarboxylic acid;Bicyclo[2.2.1]hept-2-ene-5-carboxylic acid;2-Norbornene-5-carboxylic acid;NSC 152348",
    "duplicated_cas_no": "193277-13-3;1404083-86-8",
    "SMILES": "C(O)(=O)C1C2CC(C1)C=C2",
    "meta_data": {
        "InChI": "InChI=1S/C8H10O2/c9-8(10)7-4-5-1-2-6(7)3-5/h1-2,5-7H,3-4H2,(H,9,10)",
        "InChIKey": null,
        "Canonical SMILES": "O=C(O)C1CC2C=CC1C2",
        "Molecular Formula": "C<sub>8</sub>H<sub>10</sub>O<sub>2</sub>",
        "Molecular Mass": "138.16",
        "Boiling Point": "132-134 °C @ Press: 22 Torr",
        "Melting Point": "32.5-35 °C",
        "Density": "1.12 g/cm³ @ Temp: 42 °C"
    }
}