{
    "cas_no": "505-56-6",
    "key_name": "Docosanedioic acid",
    "cn_name": "二十二碳烷酸;山嵛酸/二十二碳烷酸;蕍樹酸;二十二烷二酸;二十烷二甲酸;",
    "alternate_name": "Docosanedioic acid;1,20-Eicosanedicarboxylic acid;Phellogenic acid;Felogenic acid;1,22-Docosanedioic acid;NSC 56159;Docosan-1,22-dioic acid",
    "duplicated_cas_no": "",
    "SMILES": "C(CC(O)=O)CCCCCCCCCCCCCCCCCCC(O)=O",
    "meta_data": {
        "InChI": "InChI=1S/C22H42O4/c23-21(24)19-17-15-13-11-9-7-5-3-1-2-4-6-8-10-12-14-16-18-20-22(25)26/h1-20H2,(H,23,24)(H,25,26)",
        "InChIKey": null,
        "Canonical SMILES": "O=C(O)CCCCCCCCCCCCCCCCCCCCC(=O)O",
        "Molecular Formula": "C<sub>22</sub>H<sub>42</sub>O<sub>4</sub>",
        "Molecular Mass": "370.57",
        "Boiling Point": "176-177 °C @ Press: 3 Torr",
        "Melting Point": "120-122 °C"
    }
}