{
    "cas_no": "15307-77-4",
    "key_name": "Diclofenac ethyl ester",
    "cn_name": null,
    "alternate_name": "Benzeneacetic acid, 2-[(2,6-dichlorophenyl)amino]-, ethyl ester;Acetic acid, [<em>o</em>-(2,6-dichloroanilino)phenyl]-, ethyl ester;Ethyl 2-(2,6-dichloroanilino)phenylacetate;Diclofenac ethyl ester",
    "duplicated_cas_no": "",
    "SMILES": "N(C1=C(CC(OCC)=O)C=CC=C1)C2=C(Cl)C=CC=C2Cl",
    "meta_data": {
        "InChI": "InChI=1S/C16H15Cl2NO2/c1-2-21-15(20)10-11-6-3-4-9-14(11)19-16-12(17)7-5-8-13(16)18/h3-9,19H,2,10H2,1H3",
        "InChIKey": null,
        "Canonical SMILES": "O=C(OCC)CC=1C=CC=CC1NC=2C(Cl)=CC=CC2Cl",
        "Molecular Formula": "C<sub>16</sub>H<sub>15</sub>Cl<sub>2</sub>NO<sub>2</sub>",
        "Molecular Mass": "324.20",
        "Melting Point": "122-124 °C"
    }
}