{
    "cas_no": "7355-22-8",
    "key_name": "5-Bromo-2,4-dihydroxybenzoic acid",
    "cn_name": "5-溴-2,4-二羟基苯酸;",
    "alternate_name": "Benzoic acid, 5-bromo-2,4-dihydroxy-;β-Resorcylic acid, 5-bromo-;5-Bromo-2,4-dihydroxybenzoic acid;2,4-Dihydroxy-5-bromobenzoic acid;NSC 60106;5-Bromo-4-hydroxysalicylic acid",
    "duplicated_cas_no": "",
    "SMILES": "C(O)(=O)C1=C(O)C=C(O)C(Br)=C1",
    "meta_data": {
        "InChI": "InChI=1S/C7H5BrO4/c8-4-1-3(7(11)12)5(9)2-6(4)10/h1-2,9-10H,(H,11,12)",
        "InChIKey": null,
        "Canonical SMILES": "O=C(O)C1=CC(Br)=C(O)C=C1O",
        "Molecular Formula": "C<sub>7</sub>H<sub>5</sub>BrO<sub>4</sub>",
        "Molecular Mass": "233.02",
        "Melting Point": "204 °C"
    }
}