{
    "cas_no": "123367-27-1",
    "key_name": "(2<em>E</em>)-3-(Dimethylamino)-1-(4-pyridinyl)-2-propen-1-one",
    "cn_name": null,
    "alternate_name": "2-Propen-1-one, 3-(dimethylamino)-1-(4-pyridinyl)-, (2<em>E</em>)-;2-Propen-1-one, 3-(dimethylamino)-1-(4-pyridinyl)-, (<em>E</em>)-;(2<em>E</em>)-3-(Dimethylamino)-1-(4-pyridinyl)-2-propen-1-one;(<em>E</em>)-3-(Dimethylamino)-1-(pyridin-4-yl)prop-2-en-1-one;(2<em>E</em>)-3-(Dimethylamino)-1-(4-pyridyl)prop-2-en-1-one;(E)-3-(Dimethylamino)-1-(pyridin-4-yl)prop-2-en-1-one",
    "duplicated_cas_no": "",
    "SMILES": "C(/C=C/N(C)C)(=O)C=1C=CN=CC1",
    "meta_data": {
        "InChI": "InChI=1S/C10H12N2O/c1-12(2)8-5-10(13)9-3-6-11-7-4-9/h3-8H,1-2H3/b8-5+",
        "InChIKey": null,
        "Canonical SMILES": "O=C(C=CN(C)C)C=1C=CN=CC1",
        "Molecular Formula": "C<sub>10</sub>H<sub>12</sub>N<sub>2</sub>O",
        "Molecular Mass": "176.22",
        "Melting Point": "114 °C"
    }
}