{
    "cas_no": "544-13-8",
    "key_name": "Glutaronitrile",
    "cn_name": "戊二腈;1,3-二氰基丙烷;",
    "alternate_name": "Pentanedinitrile;Glutaronitrile;Glutaric acid dinitrile;1,3-Dicyanopropane;Glutarodinitrile;Glutaric dinitrile;1,5-Pentanedinitrile;NSC 3807",
    "duplicated_cas_no": "",
    "SMILES": "C(CC#N)CC#N",
    "meta_data": {
        "InChI": "InChI=1S/C5H6N2/c6-4-2-1-3-5-7/h1-3H2",
        "InChIKey": null,
        "Canonical SMILES": "N#CCCCC#N",
        "Molecular Formula": "C<sub>5</sub>H<sub>6</sub>N<sub>2</sub>",
        "Molecular Mass": "94.11",
        "Boiling Point": "286 °C",
        "Melting Point": "-29 °C",
        "Density": "0.97930 g/cm³ @ Temp: 30 °C"
    }
}