{
    "cas_no": "822-39-9",
    "key_name": "2-Chloro-1,3,2-dioxaphospholane",
    "cn_name": "2-氯-1,3,2-二氧磷杂环戊烷;氯亚磷酸乙烯酯;",
    "alternate_name": "1,3,2-Dioxaphospholane, 2-chloro-;Phosphorochloridous acid, cyclic ethylene ester;Ethylene phosphorochloridite;Ethylene glycol, cyclic phosphorochloridite;2-Chloro-1,3,2-dioxaphospholane;Ethylene chlorophosphite;Cyclic ethylene chlorophosphite;Cyclic ethylene phosphorochloridite;Cyclic <em>O</em>,<em>O</em>-ethylene phosphorochloridite;Ethylene glycol chlorophosphite;2-Chloro-2-oxa-1,3,2-dioxaphospholane;2-Chloro-1,3,2-dioxaphospholidine",
    "duplicated_cas_no": "103613-07-6",
    "SMILES": "ClP1OCCO1",
    "meta_data": {
        "InChI": "InChI=1S/C2H4ClO2P/c3-6-4-1-2-5-6/h1-2H2",
        "InChIKey": null,
        "Canonical SMILES": "ClP1OCCO1",
        "Molecular Formula": "C<sub>2</sub>H<sub>4</sub>ClO<sub>2</sub>P",
        "Molecular Mass": "126.48",
        "Boiling Point": "66-68 °C @ Press: 47 Torr",
        "Density": "1.4199 g/cm³ @ Temp: 20 °C"
    }
}