{
    "cas_no": "815-57-6",
    "key_name": "3-Methyl-2,4-pentanedione",
    "cn_name": "3-甲基-2,4-戊烷二酮;3-甲基-2,4-戊烷二酮;",
    "alternate_name": "2,4-Pentanedione, 3-methyl-;3-Methyl-2,4-pentanedione;3-Methylacetylacetone;3-Methylacetoacetone;NSC 100644;NSC 100645;NSC 15756;3-Methylpentan-2,4-dione",
    "duplicated_cas_no": "",
    "SMILES": "C(C(C)=O)(C(C)=O)C",
    "meta_data": {
        "InChI": "InChI=1S/C6H10O2/c1-4(5(2)7)6(3)8/h4H,1-3H3",
        "InChIKey": null,
        "Canonical SMILES": "O=C(C)C(C(=O)C)C",
        "Molecular Formula": "C<sub>6</sub>H<sub>10</sub>O<sub>2</sub>",
        "Molecular Mass": "114.14",
        "Boiling Point": "60-65 °C @ Press: 13 Torr",
        "Density": "0.9769 g/cm³ @ Temp: 19.4 °C"
    }
}