{
    "cas_no": "42588-57-8",
    "key_name": "3-Ethoxy-2-methyl-2-propenal",
    "cn_name": null,
    "alternate_name": "2-Propenal, 3-ethoxy-2-methyl-;Acrolein, 3-ethoxy-2-methyl-;3-Ethoxy-2-methyl-2-propenal;3-Ethoxy-2-methylacrolein;α-Methyl-β-ethoxyacrolein;2-Methyl-3-ethoxyacrolein;3-Ethoxymethacrolein",
    "duplicated_cas_no": "",
    "SMILES": "C(=COCC)(C=O)C",
    "meta_data": {
        "InChI": "InChI=1S/C6H10O2/c1-3-8-5-6(2)4-7/h4-5H,3H2,1-2H3",
        "InChIKey": null,
        "Canonical SMILES": "O=CC(=COCC)C",
        "Molecular Formula": "C<sub>6</sub>H<sub>10</sub>O<sub>2</sub>",
        "Molecular Mass": "114.14",
        "Boiling Point": "78-81 °C @ Press: 14 Torr"
    }
}