{
    "cas_no": "625-28-5",
    "key_name": "Isovaleronitrile",
    "cn_name": "异戊腈;异丁基氰;",
    "alternate_name": "Butanenitrile, 3-methyl-;Isovaleronitrile;3-Methylbutanenitrile;3-Methylbutyronitrile;Isopentane nitrile;1-Cyano-2-methylpropane;Isobutyl cyanide;NSC 148363;Isobutylnitrile",
    "duplicated_cas_no": "",
    "SMILES": "C(C(C)C)C#N",
    "meta_data": {
        "InChI": "InChI=1S/C5H9N/c1-5(2)3-4-6/h5H,3H2,1-2H3",
        "InChIKey": null,
        "Canonical SMILES": "N#CCC(C)C",
        "Molecular Formula": "C<sub>5</sub>H<sub>9</sub>N",
        "Molecular Mass": "83.13",
        "Boiling Point": "127.5 °C",
        "Melting Point": "-101 °C",
        "Density": "0.8054 g/cm³ @ Temp: 0 °C"
    }
}