{
    "cas_no": "13451-11-1",
    "key_name": "Tantalum bromide (TaBr<sub>5</sub>)",
    "cn_name": "五溴化钽;五溴化钽(V);",
    "alternate_name": "Tantalum bromide (TaBr<sub>5</sub>);Tantalum pentabromide;Tantalum pentabromide (TaBr<sub>5</sub>)",
    "duplicated_cas_no": "",
    "SMILES": "[Ta](Br)(Br)(Br)(Br)Br",
    "meta_data": {
        "InChI": "InChI=1S/5BrH.Ta/h5*1H;/q;;;;;+5/p-5",
        "InChIKey": null,
        "Canonical SMILES": "Br[Ta](Br)(Br)(Br)Br",
        "Molecular Formula": "Br<sub>5</sub>Ta",
        "Molecular Mass": "",
        "Boiling Point": "348-349 °C",
        "Melting Point": "265 °C",
        "Density": "4.67 g/cm³"
    }
}