{
    "cas_no": "807-28-3",
    "key_name": "1,3-Dimethyl-1,1,3,3-tetraphenyldisiloxane",
    "cn_name": "1,3-二甲基-1,1,3,3-四苯基二硅氧烷;1,3-二甲基-1,1,3,3-四苯基二硅氧烷;",
    "alternate_name": "Disiloxane, 1,3-dimethyl-1,1,3,3-tetraphenyl-;1,3-Dimethyl-1,1,3,3-tetraphenyldisiloxane;T 2078;1,1,3,3-Tetraphenyldimethyldisiloxane;1,1,3,3-Tetraphenyl-1,3-dimethyldisiloxane;Bis(diphenylmethylsilyl) ether",
    "duplicated_cas_no": "",
    "SMILES": "[Si](O[Si](C)(C1=CC=CC=C1)C2=CC=CC=C2)(C)(C3=CC=CC=C3)C4=CC=CC=C4",
    "meta_data": {
        "InChI": "InChI=1S/C26H26OSi2/c1-28(23-15-7-3-8-16-23,24-17-9-4-10-18-24)27-29(2,25-19-11-5-12-20-25)26-21-13-6-14-22-26/h3-22H,1-2H3",
        "InChIKey": null,
        "Canonical SMILES": "O([Si](C=1C=CC=CC1)(C=2C=CC=CC2)C)[Si](C=3C=CC=CC3)(C=4C=CC=CC4)C",
        "Molecular Formula": "C<sub>26</sub>H<sub>26</sub>OSi<sub>2</sub>",
        "Molecular Mass": "410.65",
        "Boiling Point": "215 °C @ Press: 0.5 Torr",
        "Melting Point": "48-50 °C",
        "Density": "1.076 g/cm³ @ Temp: 25 °C"
    }
}