{
    "cas_no": "207557-35-5",
    "key_name": "(<em>S</em>)-1-(2-Chloroacetyl)pyrrolidine-2-carbonitrile",
    "cn_name": "(2S)-N-氯乙酰基-2-氰基四氢吡咯;",
    "alternate_name": "2-Pyrrolidinecarbonitrile, 1-(2-chloroacetyl)-, (2<em>S</em>)-;2-Pyrrolidinecarbonitrile, 1-(chloroacetyl)-, (2<em>S</em>)-;(2<em>S</em>)-1-(2-Chloroacetyl)-2-pyrrolidinecarbonitrile;1-Chloroacetyl-2-(<em>S</em>)-cyanopyrrolidine;(<em>S</em>)-1-(2-Chloroacetyl)pyrrolidine-2-carbonitrile;(2S)-1-chloroacetylpyrrolidine-2-carbonitrile;(2<em>S</em>)-1-(Chloroacetyl)-2-pyrrolidinecarbonitrile;(2<em>S</em>)-<em>N</em>-Chloroacetyl-2-cyanopyrrolidine;1-(2-Chloroacetyl)-(2S)-pyrrolidine carbonitrile;(<em>S</em>)-1-(Chloroacetyl)pyrrolidine-2-carbonitrile;2-Pyrrolidinecarbonitrile 1-(2-chloroacetyl)-, (2S)-",
    "duplicated_cas_no": "2803098-43-1",
    "SMILES": "C(CCl)(=O)N1[C@H](C#N)CCC1",
    "meta_data": {
        "InChI": "InChI=1S/C7H9ClN2O/c8-4-7(11)10-3-1-2-6(10)5-9/h6H,1-4H2/t6-/m0/s1",
        "InChIKey": null,
        "Canonical SMILES": "N#CC1N(C(=O)CCl)CCC1",
        "Molecular Formula": "C<sub>7</sub>H<sub>9</sub>ClN<sub>2</sub>O",
        "Molecular Mass": "172.61",
        "Melting Point": "52-53 °C"
    }
}