{
    "cas_no": "56-04-2",
    "key_name": "Methylthiouracil",
    "cn_name": "甲基硫脲嘧啶;甲基硫氧嘧啶;4-羟基-2-巯基-6-甲基嘧啶;",
    "alternate_name": "4(1<em>H</em>)-Pyrimidinone, 2,3-dihydro-6-methyl-2-thioxo-;Uracil, 6-methyl-2-thio-;2,3-Dihydro-6-methyl-2-thioxo-4(1<em>H</em>)-pyrimidinone;Alkiron;Antibason;Basecil;2-Mercapto-6-methylpyrimidin-4-one;Metacil;Methiacil;Methicil;Methiocil;6-Methyl-2-thio-2,4-(1<em>H</em>,3<em>H</em>)-pyrimidinedione;6-Methyl-2-thiouracil;Methylthiouracil;MTU;Muracil;Prostrumyl;Strumacil;Thimecil;6-Thio-4-methyluracil;Methacil;2-Mercapto-4-methyl-6-hydroxypyrimidine;6-Methyl-2-mercaptouracil;2-Mercapto-6-methylpyrimidyl-4-one;6-Methyl-4-oxo-2-thioxo-1,2,3,4-tetrahydropyrimidine;4-Methyl-2-thiouracil;2-Thio-6-methyluracil;Thyreonorm;4-Hydroxy-2-mercapto-6-methylpyrimidine;Tiorale M;Thiothymin;Orcanon;Tiomeracil;2-Mercapto-6-methyl-4-pyrimidinol;4-Hydroxy-6-methyl-2-mercaptopyrimidine;Metiur;Tiotiron;Muracin;Thiothyron;Thiomecil;NSC 193526;Basethyrin;Thiuryl;USAF-EK 6454;Thiomidil;NSC 9378;Thioryl;Thyril;NSC 314271;4-Hydroxy-6-methylpyrimidine-2(1<em>H</em>)-thione;6-Methyl-2-thioxopyrimidin-4-one;2-Mercapto-6-methylpyrimidin-4(3<em>H</em>)-one;MeSH ID: D008779",
    "duplicated_cas_no": "1123-10-0;31909-18-9;91795-77-6",
    "SMILES": "CC1=CC(=O)NC(=S)N1",
    "meta_data": {
        "InChI": "InChI=1S/C5H6N2OS/c1-3-2-4(8)7-5(9)6-3/h2H,1H3,(H2,6,7,8,9)",
        "InChIKey": null,
        "Canonical SMILES": "O=C1C=C(NC(=S)N1)C",
        "Molecular Formula": "C<sub>5</sub>H<sub>6</sub>N<sub>2</sub>OS",
        "Molecular Mass": "142.18",
        "Melting Point": "330 °C (decomp)",
        "Density": "1.498 g/cm³"
    }
}