{
    "cas_no": "152-95-4",
    "key_name": "Sophoricoside",
    "cn_name": "槐角苷;",
    "alternate_name": "4<em>H</em>-1-Benzopyran-4-one, 3-[4-(β-<span class=\"text-smallcaps\">D</span>-glucopyranosyloxy)phenyl]-5,7-dihydroxy-;Sophoricoside;3-[4-(β-<span class=\"text-smallcaps\">D</span>-Glucopyranosyloxy)phenyl]-5,7-dihydroxy-4<em>H</em>-1-benzopyran-4-one;5′,7′-Dihydroxy-4′-glucosyloxyisoflavone;Genistein, 4′-β-<span class=\"text-smallcaps\">D</span>-glucopyranoside;4′,5,7-Trihydroxyisoflavone 4′-β-<span class=\"text-smallcaps\">D</span>-glucopyranoside;Genistein 4′-<em>O</em>-glucoside",
    "duplicated_cas_no": "100455-45-6",
    "SMILES": "O=C1C=2C(OC=C1C3=CC=C(O[C@@H]4O[C@H](CO)[C@@H](O)[C@H](O)[C@H]4O)C=C3)=CC(O)=CC2O",
    "meta_data": {
        "InChI": "InChI=1S/C21H20O10/c22-7-15-18(26)19(27)20(28)21(31-15)30-11-3-1-9(2-4-11)12-8-29-14-6-10(23)5-13(24)16(14)17(12)25/h1-6,8,15,18-24,26-28H,7H2/t15-,18-,19+,20-,21-/m1/s1",
        "InChIKey": null,
        "Canonical SMILES": "O=C1C(=COC=2C=C(O)C=C(O)C12)C=3C=CC(OC4OC(CO)C(O)C(O)C4O)=CC3",
        "Molecular Formula": "C<sub>21</sub>H<sub>20</sub>O<sub>10</sub>",
        "Molecular Mass": "432.38",
        "Melting Point": "295-297 °C"
    }
}