{
    "cas_no": "6160-78-7",
    "key_name": "4-Methylumbelliferyl β-<span class=\"text-smallcaps\">D</span>-galactopyranoside",
    "cn_name": "4-甲基伞形酮酰-beta-D-吡喃糖苷;7-(beta-D-吡喃半乳糖氧基)-4-甲基-2H-1-苯并吡喃-2-酮;",
    "alternate_name": "2<em>H</em>-1-Benzopyran-2-one, 7-(β-<span class=\"text-smallcaps\">D</span>-galactopyranosyloxy)-4-methyl-;Coumarin, 7-(β-<span class=\"text-smallcaps\">D</span>-galactopyranosyloxy)-4-methyl-;7-(β-<span class=\"text-smallcaps\">D</span>-Galactopyranosyloxy)-4-methyl-2<em>H</em>-1-benzopyran-2-one;4-Methylumbelliferyl β-<span class=\"text-smallcaps\">D</span>-galactopyranoside;4-Methylumbelliferone β-<span class=\"text-smallcaps\">D</span>-galactopyranoside;4-Methylumbelliferyl β-<span class=\"text-smallcaps\">D</span>-galactoside;4-Methylumbelliferone β-<span class=\"text-smallcaps\">D</span>-galactoside;MUGal;β-Methylumbelliferyl-β-<span class=\"text-smallcaps\">D</span>-galactopyranoside",
    "duplicated_cas_no": "39940-54-0",
    "SMILES": "CC=1C=2C(=CC(O[C@@H]3O[C@H](CO)[C@H](O)[C@H](O)[C@H]3O)=CC2)OC(=O)C1",
    "meta_data": {
        "InChI": "InChI=1S/C16H18O8/c1-7-4-12(18)23-10-5-8(2-3-9(7)10)22-16-15(21)14(20)13(19)11(6-17)24-16/h2-5,11,13-17,19-21H,6H2,1H3/t11-,13+,14+,15-,16-/m1/s1",
        "InChIKey": null,
        "Canonical SMILES": "O=C1OC=2C=C(OC3OC(CO)C(O)C(O)C3O)C=CC2C(=C1)C",
        "Molecular Formula": "C<sub>16</sub>H<sub>18</sub>O<sub>8</sub>",
        "Molecular Mass": "338.31",
        "Melting Point": "234 °C"
    }
}