{
    "cas_no": "19141-40-3",
    "key_name": "(+)-2-Phenyl-1-propanol",
    "cn_name": null,
    "alternate_name": "Benzeneethanol, β-methyl-, (β<em>R</em>)-;Phenethyl alcohol, β-methyl-, (<em>R</em>)-(+)-;Benzeneethanol, β-methyl-, (<em>R</em>)-;Phenethyl alcohol, β-methyl-, (+)-;(β<em>R</em>)-β-Methylbenzeneethanol;(2<em>R</em>)-2-Phenyl-1-propanol;(<em>R</em>)-(+)-β-Methylphenethyl alcohol;(+)-2-Phenyl-1-propanol;(<em>R</em>)-(+)-2-Phenyl-1-propanol;(+)-β-Methylbenzeneethanol;(<em>R</em>)-2-Phenylpropanol;(<em>R</em>)-2-Phenyl-1-propanol;(+)-2-Phenylpropanol;(2R)-2-Phenylpropan-1-ol;(R)-(+)-2-Phenyl-1-propanol",
    "duplicated_cas_no": "",
    "SMILES": "[C@@H](CO)(C)C1=CC=CC=C1",
    "meta_data": {
        "InChI": "InChI=1S/C9H12O/c1-8(7-10)9-5-3-2-4-6-9/h2-6,8,10H,7H2,1H3/t8-/m0/s1",
        "InChIKey": null,
        "Canonical SMILES": "OCC(C=1C=CC=CC1)C",
        "Molecular Formula": "C<sub>9</sub>H<sub>12</sub>O",
        "Molecular Mass": "136.19",
        "Boiling Point": "115 °C @ Press: 17 Torr"
    }
}