{
    "cas_no": "2497-02-1",
    "key_name": "<em>N</em>-Acetyl-<span class=\"text-smallcaps\">L</span>-histidine",
    "cn_name": "N-乙酰-L-组氨酸;",
    "alternate_name": "<span class=\"text-smallcaps\">L</span>-Histidine, <em>N</em>-acetyl-;Histidine, <em>N</em>-acetyl-, <span class=\"text-smallcaps\">L</span>-;Histidine, <em>N</em>-acetyl-;<em>N</em>-Acetyl-<span class=\"text-smallcaps\">L</span>-histidine;<em>N</em>-Acetylhistidine;α-<em>N</em>-Acetyl-<span class=\"text-smallcaps\">L</span>-histidine;<em>N</em><sup>2</sup>-Acetylhistidine;WR 177589A;<em>N</em><sup>α</sup>-Acetyl-<span class=\"text-smallcaps\">L</span>-histidine;<em>N</em>-α-Acetyl-<span class=\"text-smallcaps\">L</span>-histidine;<em>N</em><sup>α</sup>-Acetylhistidine;N<sub>α</sub>-Acetyl-<span class=\"text-smallcaps\">L</span>-histidine;(2S)-2-Acetamido-3-(1<em>H</em>-imidazol-5-yl)propanoic acid;(<em>S</em>)-2-Acetamido-3-(1<em>H</em>-imidazol-4-yl)propanoicacid",
    "duplicated_cas_no": "5959-78-4;634922-82-0",
    "SMILES": "[C@@H](CC1=CN=CN1)(NC(C)=O)C(O)=O",
    "meta_data": {
        "InChI": "InChI=1S/C8H11N3O3/c1-5(12)11-7(8(13)14)2-6-3-9-4-10-6/h3-4,7H,2H2,1H3,(H,9,10)(H,11,12)(H,13,14)/t7-/m0/s1",
        "InChIKey": null,
        "Canonical SMILES": "O=C(O)C(NC(=O)C)CC1=CN=CN1",
        "Molecular Formula": "C<sub>8</sub>H<sub>11</sub>N<sub>3</sub>O<sub>3</sub>",
        "Molecular Mass": "197.19",
        "Melting Point": "164-165 °C (decomp)"
    }
}