{
    "cas_no": "589-41-3",
    "key_name": "Hydroxyurethane",
    "cn_name": "N-羟基氨基甲酸乙酯;",
    "alternate_name": "Carbamic acid, <em>N</em>-hydroxy-, ethyl ester;Carbamic acid, hydroxy-, ethyl ester;NSC-71045;NSC-83629;Hydroxycarbamic acid ethyl ester;Hydroxyurethane;<em>N</em>-Hydroxyurethane;SQ 16819;Ethyl <em>N</em>-hydroxycarbamate;<em>N</em>-Carbethoxyhydroxylamine",
    "duplicated_cas_no": "",
    "SMILES": "C(OCC)(NO)=O",
    "meta_data": {
        "InChI": "InChI=1S/C3H7NO3/c1-2-7-3(5)4-6/h6H,2H2,1H3,(H,4,5)",
        "InChIKey": null,
        "Canonical SMILES": "O=C(OCC)NO",
        "Molecular Formula": "C<sub>3</sub>H<sub>7</sub>NO<sub>3</sub>",
        "Molecular Mass": "105.09",
        "Boiling Point": "113-116 °C @ Press: 3 Torr"
    }
}