{
    "cas_no": "2243-27-8",
    "key_name": "Nonanenitrile",
    "cn_name": "正壬腈;壬腈;",
    "alternate_name": "Nonanenitrile;Pelargonitrile;<em>n</em>-Nonanonitrile;1-Cyanooctane;Nonanonitrile;<em>n</em>-Nonanenitrile;<em>n</em>-Octyl cyanide;Octyl cyanide;1-Octyl cyanide;Pelargononitrile;Nonanitrile;NSC 5560",
    "duplicated_cas_no": "",
    "SMILES": "C(CCCC#N)CCCC",
    "meta_data": {
        "InChI": "InChI=1S/C9H17N/c1-2-3-4-5-6-7-8-9-10/h2-8H2,1H3",
        "InChIKey": null,
        "Canonical SMILES": "N#CCCCCCCCC",
        "Molecular Formula": "C<sub>9</sub>H<sub>17</sub>N",
        "Molecular Mass": "139.24",
        "Boiling Point": "224.4 °C",
        "Melting Point": "-34.2 °C",
        "Density": "0.9375 g/cm³ @ Temp: 8 °C"
    }
}