{
    "cas_no": "22929-52-8",
    "key_name": "3-Oxotetrahydrofuran",
    "cn_name": "二氢-3(2H)-呋喃酮;3-酮基四氢呋喃;",
    "alternate_name": "3(2<em>H</em>)-Furanone, dihydro-;Dihydro-3(2<em>H</em>)-furanone;3-Oxotetrahydrofuran;Oxolan-3-one;Dihydrofuran-3-one;4,5-Dihydro-3(2<em>H</em>)-furanone;Dihydrofuran-3(2<em>H</em>)-one",
    "duplicated_cas_no": "",
    "SMILES": "O=C1CCOC1",
    "meta_data": {
        "InChI": "InChI=1S/C4H6O2/c5-4-1-2-6-3-4/h1-3H2",
        "InChIKey": null,
        "Canonical SMILES": "O=C1COCC1",
        "Molecular Formula": "C<sub>4</sub>H<sub>6</sub>O<sub>2</sub>",
        "Molecular Mass": "86.09",
        "Boiling Point": "92-94 °C @ Press: 15 Torr",
        "Density": "1.1124 g/cm³ @ Temp: 420 °C"
    }
}