{
    "cas_no": "508-01-0",
    "key_name": "Soyasapogenol A",
    "cn_name": "大豆甾醇 A;",
    "alternate_name": "Olean-12-ene-3,21,22,23-tetrol, (3β,4β,21β,22β)-;Olean-12-ene-3β,21β,22β,24-tetrol;Soyasapogenol A;(3β,4β,21β,22β)-Olean-12-ene-3,21,22,23-tetrol",
    "duplicated_cas_no": "",
    "SMILES": "C[C@]12[C@@]3(C)C([C@]4([C@@](C)(CC3)[C@H](O)[C@H](O)C(C)(C)C4)[H])=CC[C@@]1([C@]5(C)[C@@](CC2)([C@](CO)(C)[C@@H](O)CC5)[H])[H]",
    "meta_data": {
        "InChI": "InChI=1S/C30H50O4/c1-25(2)16-19-18-8-9-21-27(4)12-11-22(32)28(5,17-31)20(27)10-13-30(21,7)29(18,6)15-14-26(19,3)24(34)23(25)33/h8,19-24,31-34H,9-17H2,1-7H3/t19-,20+,21+,22-,23-,24+,26+,27-,28+,29+,30+/m0/s1",
        "InChIKey": null,
        "Canonical SMILES": "OCC1(C)C(O)CCC2(C)C1CCC3(C)C2CC=C4C5CC(C)(C)C(O)C(O)C5(C)CCC43C",
        "Molecular Formula": "C<sub>30</sub>H<sub>50</sub>O<sub>4</sub>",
        "Molecular Mass": "474.72",
        "Melting Point": "307-310 °C"
    }
}