{
    "cas_no": "1603-79-8",
    "key_name": "Ethyl benzoylformate",
    "cn_name": "苯甲酰甲酸乙酯;",
    "alternate_name": "Benzeneacetic acid, α-oxo-, ethyl ester;Glyoxylic acid, phenyl-, ethyl ester;Ethyl phenylglyoxylate;Ethyl benzoylformate;Ethyl oxophenylacetate;Ethyl 2-oxo-2-phenylacetate;Ethyl α-oxobenzeneacetate;Phenylglyoxylic acid ethyl ester;α-Oxobenzeneacetic acid ethyl ester;NSC 6766;2-Oxo-2-phenylacetic acid ethyl ester;Ethyl 2-phenyl-2-oxoacetate;2-Phenyl-2-oxoacetic acid ethyl ester",
    "duplicated_cas_no": "",
    "SMILES": "C(C(OCC)=O)(=O)C1=CC=CC=C1",
    "meta_data": {
        "InChI": "InChI=1S/C10H10O3/c1-2-13-10(12)9(11)8-6-4-3-5-7-8/h3-7H,2H2,1H3",
        "InChIKey": null,
        "Canonical SMILES": "O=C(OCC)C(=O)C=1C=CC=CC1",
        "Molecular Formula": "C<sub>10</sub>H<sub>10</sub>O<sub>3</sub>",
        "Molecular Mass": "178.18",
        "Boiling Point": "256.5 °C",
        "Melting Point": "158 °C",
        "Density": "1.1255 g/cm³ @ Temp: 13.35 °C"
    }
}