{
    "cas_no": "5461-32-5",
    "key_name": "3-(2-Nitrophenyl)-2-oxopropanoic acid",
    "cn_name": "2-硝基苯基丙酮酸;邻硝基苯基丙酮酸;",
    "alternate_name": "Benzenepropanoic acid, 2-nitro-α-oxo-;Pyruvic acid, (<em>o</em>-nitrophenyl)-;2-Nitro-α-oxobenzenepropanoic acid;(<em>o</em>-Nitrophenyl)pyruvic acid;(2-Nitrophenyl)pyruvic acid;3-(2-Nitrophenyl)-2-oxopropanoic acid;NSC 5598",
    "duplicated_cas_no": "182366-96-7",
    "SMILES": "N(=O)(=O)C1=C(CC(C(O)=O)=O)C=CC=C1",
    "meta_data": {
        "InChI": "InChI=1S/C9H7NO5/c11-8(9(12)13)5-6-3-1-2-4-7(6)10(14)15/h1-4H,5H2,(H,12,13)",
        "InChIKey": null,
        "Canonical SMILES": "O=C(O)C(=O)CC=1C=CC=CC1N(=O)=O",
        "Molecular Formula": "C<sub>9</sub>H<sub>7</sub>NO<sub>5</sub>",
        "Molecular Mass": "209.16",
        "Melting Point": "119-120 °C"
    }
}