{
    "cas_no": "123-25-1",
    "key_name": "Diethyl succinate",
    "cn_name": "丁二酸二乙酯;琥珀酸二乙酯;",
    "alternate_name": "Butanedioic acid, 1,4-diethyl ester;Succinic acid, diethyl ester;Butanedioic acid, diethyl ester;Diethyl succinate;Ethyl succinate;Clorius;Diethyl butanedioate;NSC 8875;Butandioic acid diethyl ester;DESU;1,4-Diethyl butanedioate;Diethyl 1,2-ethanedicarboxylate",
    "duplicated_cas_no": "1253690-20-8;2808398-24-3",
    "SMILES": "C(CCC(OCC)=O)(OCC)=O",
    "meta_data": {
        "InChI": "InChI=1S/C8H14O4/c1-3-11-7(9)5-6-8(10)12-4-2/h3-6H2,1-2H3",
        "InChIKey": null,
        "Canonical SMILES": "O=C(OCC)CCC(=O)OCC",
        "Molecular Formula": "C<sub>8</sub>H<sub>14</sub>O<sub>4</sub>",
        "Molecular Mass": "174.19",
        "Boiling Point": "217.7 °C",
        "Melting Point": "-21 °C",
        "Density": "1.041 g/cm³ @ Temp: 20 °C"
    }
}