{
    "cas_no": "109-64-8",
    "key_name": "1,3-Dibromopropane",
    "cn_name": "1,3-二溴丙烷;",
    "alternate_name": "Propane, 1,3-dibromo-;1,3-Dibromopropane;α,γ-Dibromopropane;ω,ω′-Dibromopropane;Trimethylene bromide;Trimethylene dibromide;NSC 62663;1,3-Bis(bromo)propane",
    "duplicated_cas_no": "625084-38-0",
    "SMILES": "C(CBr)CBr",
    "meta_data": {
        "InChI": "InChI=1S/C3H6Br2/c4-2-1-3-5/h1-3H2",
        "InChIKey": null,
        "Canonical SMILES": "BrCCCBr",
        "Molecular Formula": "C<sub>3</sub>H<sub>6</sub>Br<sub>2</sub>",
        "Molecular Mass": "201.89",
        "Boiling Point": "167.3 °C",
        "Melting Point": "-34.2 °C",
        "Density": "1.98927 g/cm³ @ Temp: 15 °C"
    }
}