{
    "cas_no": "1953-54-4",
    "key_name": "5-Hydroxyindole",
    "cn_name": null,
    "alternate_name": "1<em>H</em>-Indol-5-ol;Indol-5-ol;5-Hydroxyindole;5-Hydroxy-1<em>H</em>-indole;NSC 87503",
    "duplicated_cas_no": "",
    "SMILES": "OC=1C=C2C(=CC1)NC=C2",
    "meta_data": {
        "InChI": "InChI=1S/C8H7NO/c10-7-1-2-8-6(5-7)3-4-9-8/h1-5,9-10H",
        "InChIKey": null,
        "Canonical SMILES": "OC=1C=CC=2NC=CC2C1",
        "Molecular Formula": "C<sub>8</sub>H<sub>7</sub>NO",
        "Molecular Mass": "133.15",
        "Melting Point": "107-108 °C"
    }
}