{
    "cas_no": "3235-69-6",
    "key_name": "4-Morpholineacetic acid",
    "cn_name": "吗啉-4-基乙酸;吗啉-4-基乙酸;",
    "alternate_name": "4-Morpholineacetic acid;Morpholinoacetic acid;2-(4-Morpholinyl)acetic acid;4-Morpholinoacetic acid;Morpholin-4-ylacetic acid;<em>N</em>-(Carboxymethyl)morpholine;2-(Morpholino)acetic acid;2-Morpholin-4-ium-4-ylacetate",
    "duplicated_cas_no": "",
    "SMILES": "C(C(O)=O)N1CCOCC1",
    "meta_data": {
        "InChI": "InChI=1S/C6H11NO3/c8-6(9)5-7-1-3-10-4-2-7/h1-5H2,(H,8,9)",
        "InChIKey": null,
        "Canonical SMILES": "O=C(O)CN1CCOCC1",
        "Molecular Formula": "C<sub>6</sub>H<sub>11</sub>NO<sub>3</sub>",
        "Molecular Mass": "145.16",
        "Melting Point": "162-163.5 °C"
    }
}