{
    "cas_no": "19353-92-5",
    "key_name": "4-(Dimethylamino)benzohydrazide",
    "cn_name": "对二甲氨基苯甲酰肼;",
    "alternate_name": "Benzoic acid, 4-(dimethylamino)-, hydrazide;Benzoic acid, <em>p</em>-(dimethylamino)-, hydrazide;<em>p</em>-(Dimethylamino)benzoic acid hydrazide;4-(Dimethylamino)benzoylhydrazine;4-Dimethylaminobenzoic acid hydrazide;4-(Dimethylamino)benzenecarbohydrazide;4-(Dimethylamino)benzohydrazide;NSC 219987;4-Dimethylaminobenzhydrazide;4-(Dimethylamino)benzoylhydrazide;4-(Dimethylamino)benzocarbohydrazide;<em>p</em>-(Dimethylamino)benzoyl hydrazide",
    "duplicated_cas_no": "",
    "SMILES": "C(NN)(=O)C1=CC=C(N(C)C)C=C1",
    "meta_data": {
        "InChI": "InChI=1S/C9H13N3O/c1-12(2)8-5-3-7(4-6-8)9(13)11-10/h3-6H,10H2,1-2H3,(H,11,13)",
        "InChIKey": null,
        "Canonical SMILES": "O=C(NN)C1=CC=C(C=C1)N(C)C",
        "Molecular Formula": "C<sub>9</sub>H<sub>13</sub>N<sub>3</sub>O",
        "Molecular Mass": "179.22",
        "Melting Point": "170-171 °C"
    }
}