{
    "cas_no": "59122-55-3",
    "key_name": "Dodecyl β-<span class=\"text-smallcaps\">D</span>-glucopyranoside",
    "cn_name": "十二烷基吡喃葡萄糖苷; 十二烷基-beta-D-吡喃葡萄糖苷;",
    "alternate_name": "β-<span class=\"text-smallcaps\">D</span>-Glucopyranoside, dodecyl;Glucoside, dodecyl;Dodecyl β-<span class=\"text-smallcaps\">D</span>-glucopyranoside;Dodecyl β-<span class=\"text-smallcaps\">D</span>-glucoside;<em>n</em>-Dodecyl β-<span class=\"text-smallcaps\">D</span>-glucopyranoside;AG 12 (carbohydrate);AG 12;BDDG",
    "duplicated_cas_no": "149654-50-2",
    "SMILES": "O(CCCCCCCCCCCC)[C@@H]1O[C@H](CO)[C@@H](O)[C@H](O)[C@H]1O",
    "meta_data": {
        "InChI": "InChI=1S/C18H36O6/c1-2-3-4-5-6-7-8-9-10-11-12-23-18-17(22)16(21)15(20)14(13-19)24-18/h14-22H,2-13H2,1H3/t14-,15-,16+,17-,18-/m1/s1",
        "InChIKey": null,
        "Canonical SMILES": "OCC1OC(OCCCCCCCCCCCC)C(O)C(O)C1O",
        "Molecular Formula": "C<sub>18</sub>H<sub>36</sub>O<sub>6</sub>",
        "Molecular Mass": "348.47",
        "Melting Point": "77-137 °C"
    }
}