{
    "cas_no": "102-53-4",
    "key_name": "<em>N</em>,<em>N</em>,<em>N</em>′,<em>N</em>′-Tetraethylmethanediamine",
    "cn_name": "N,N,N\",N\"-四乙基甲二胺;",
    "alternate_name": "Methanediamine, <em>N</em>,<em>N</em>,<em>N</em>′,<em>N</em>′-tetraethyl-;<em>N</em>,<em>N</em>,<em>N</em>′,<em>N</em>′-Tetraethylmethanediamine;Bis(diethylamino)methane;<em>N</em>,<em>N</em>′-Methylenebisdiethylamine;<em>N</em>,<em>N</em>,<em>N</em>′,<em>N</em>′-Tetraethylmethylenediamine;<em>N</em>,<em>N</em>,<em>N</em>′,<em>N</em>′-Tetraethyldiaminomethane;Tetraethylmethylenediamine;<em>N</em>,<em>N</em>-Methylenebisdiethylamine;NSC 27525;TEDAM;[(Diethylamino)methyl]diethylamine",
    "duplicated_cas_no": "",
    "SMILES": "N(CN(CC)CC)(CC)CC",
    "meta_data": {
        "InChI": "InChI=1S/C9H22N2/c1-5-10(6-2)9-11(7-3)8-4/h5-9H2,1-4H3",
        "InChIKey": null,
        "Canonical SMILES": "N(CN(CC)CC)(CC)CC",
        "Molecular Formula": "C<sub>9</sub>H<sub>22</sub>N<sub>2</sub>",
        "Molecular Mass": "158.28",
        "Boiling Point": "165.8 °C",
        "Density": "0.7993 g/cm³ @ Temp: 20 °C"
    }
}