{
    "cas_no": "41862-14-0",
    "key_name": "6-Amino-1,3-dipropyl-2,4(1<em>H</em>,3<em>H</em>)-pyrimidinedione",
    "cn_name": "1,3-二丙基-6-氨基脲嘧啶; 6-氨基-1,3-二丙基-1H-嘧啶-2,4-二酮;",
    "alternate_name": "2,4(1<em>H</em>,3<em>H</em>)-Pyrimidinedione, 6-amino-1,3-dipropyl-;6-Amino-1,3-dipropyl-2,4(1<em>H</em>,3<em>H</em>)-pyrimidinedione;6-Amino-1,3-dipropyluracil",
    "duplicated_cas_no": "1228356-67-9",
    "SMILES": "C(CC)N1C(=O)N(CCC)C(=O)C=C1N",
    "meta_data": {
        "InChI": "InChI=1S/C10H17N3O2/c1-3-5-12-8(11)7-9(14)13(6-4-2)10(12)15/h7H,3-6,11H2,1-2H3",
        "InChIKey": null,
        "Canonical SMILES": "O=C1C=C(N)N(C(=O)N1CCC)CCC",
        "Molecular Formula": "C<sub>10</sub>H<sub>17</sub>N<sub>3</sub>O<sub>2</sub>",
        "Molecular Mass": "211.26",
        "Melting Point": "136-138 °C"
    }
}