{
    "cas_no": "18204-80-3",
    "key_name": "Ethanol, 2-(trichlorosilyl)-, 1-acetate",
    "cn_name": null,
    "alternate_name": "Ethanol, 2-(trichlorosilyl)-, 1-acetate;Ethanol, 2-(trichlorosilyl)-, acetate;(2-Acetoxyethyl)trichlorosilane;2-(Trichlorosilyl)ethyl acetate",
    "duplicated_cas_no": "",
    "SMILES": "C(COC(C)=O)[Si](Cl)(Cl)Cl",
    "meta_data": {
        "InChI": "InChI=1S/C4H7Cl3O2Si/c1-4(8)9-2-3-10(5,6)7/h2-3H2,1H3",
        "InChIKey": null,
        "Canonical SMILES": "O=C(OCC[Si](Cl)(Cl)Cl)C",
        "Molecular Formula": "C<sub>4</sub>H<sub>7</sub>Cl<sub>3</sub>O<sub>2</sub>Si",
        "Molecular Mass": "221.54",
        "Boiling Point": "143 °C @ Press: 70 Torr",
        "Density": "1.272 g/cm³ @ Temp: 25 °C"
    }
}