{
    "cas_no": "7242-92-4",
    "key_name": "<em>exo</em>-2-Aminonorbornane",
    "cn_name": "外-2-氨基降冰片烷;",
    "alternate_name": "Bicyclo[2.2.1]heptan-2-amine, (1<em>R</em>,2<em>R</em>,4<em>S</em>)-<em>rel</em>-;2-Norbornanamine, <em>exo</em>-;Bicyclo[2.2.1]heptan-2-amine, <em>exo</em>-;<em>rel</em>-(1<em>R</em>,2<em>R</em>,4<em>S</em>)-Bicyclo[2.2.1]heptan-2-amine;<em>exo</em>-2-Norbornylamine;<em>exo</em>-2-Aminonorbornane;<em>exo</em>-2-Norbornanamine;(±)-<em>exo</em>-2-Aminonorbornane;<em>exo</em>-2-Aminobicyclo[2.2.1]heptane;<em>exo</em>-Norbornylamine",
    "duplicated_cas_no": "111137-34-9",
    "SMILES": "N[C@@H]1[C@@]2(C[C@](C1)(CC2)[H])[H]",
    "meta_data": {
        "InChI": "InChI=1/C7H13N/c8-7-4-5-1-2-6(7)3-5/h5-7H,1-4,8H2/t5-,6+,7+/s2",
        "InChIKey": null,
        "Canonical SMILES": "NC1CC2CCC1C2",
        "Molecular Formula": "C<sub>7</sub>H<sub>13</sub>N",
        "Molecular Mass": "111.18",
        "Melting Point": "&gt;345 °C"
    }
}