{
    "cas_no": "2141-62-0",
    "key_name": "3-Ethoxypropanenitrile",
    "cn_name": "3-乙氧基丙腈;",
    "alternate_name": "Propanenitrile, 3-ethoxy-;Propionitrile, 3-ethoxy-;Propionitrile, β-ethoxy-;3-Ethoxypropanenitrile;β-Ethoxypropionitrile;3-Ethoxypropionitrile;Ethyl β-cyanoethyl ether;NSC 7767",
    "duplicated_cas_no": "",
    "SMILES": "C(CC#N)OCC",
    "meta_data": {
        "InChI": "InChI=1S/C5H9NO/c1-2-7-5-3-4-6/h2-3,5H2,1H3",
        "InChIKey": null,
        "Canonical SMILES": "N#CCCOCC",
        "Molecular Formula": "C<sub>5</sub>H<sub>9</sub>NO",
        "Molecular Mass": "99.13",
        "Boiling Point": "171 °C",
        "Melting Point": "48.9 °C",
        "Density": "0.8904 g/cm³ @ Temp: 20 °C"
    }
}