{
    "cas_no": "4870-65-9",
    "key_name": "Bromophenylacetic acid",
    "cn_name": "alpha-溴苯乙酸;",
    "alternate_name": "Benzeneacetic acid, α-bromo-;Acetic acid, bromophenyl-;α-Bromobenzeneacetic acid;Bromophenylacetic acid;α-Bromophenylacetic acid;2-Bromo-2-phenylacetic acid;α-Bromo-α-phenylacetic acid;(±)-α-Bromobenzeneacetic acid;<span class=\"text-smallcaps\">DL</span>-α-Bromophenylacetic acid;(±)-α-Bromophenylacetic acid;NSC 59241;(<em>RS</em>)-2-Bromo-2-phenylacetic acid",
    "duplicated_cas_no": "31302-84-8;861203-01-2",
    "SMILES": "C(C(O)=O)(Br)C1=CC=CC=C1",
    "meta_data": {
        "InChI": "InChI=1S/C8H7BrO2/c9-7(8(10)11)6-4-2-1-3-5-6/h1-5,7H,(H,10,11)",
        "InChIKey": null,
        "Canonical SMILES": "O=C(O)C(Br)C=1C=CC=CC1",
        "Molecular Formula": "C<sub>8</sub>H<sub>7</sub>BrO<sub>2</sub>",
        "Molecular Mass": "215.04",
        "Boiling Point": "120-121 °C @ Press: 0.02 Torr",
        "Melting Point": "87 °C"
    }
}