{
    "cas_no": "1458-18-0",
    "key_name": "2-Pyrazinecarboxylic acid, 3-amino-5,6-dichloro-, methyl ester",
    "cn_name": "3-氨基-5,6-二氯-2-吡嗪羧酸甲脂;3-氨基-5,6-二氯-2-吡嗪二羧酸;",
    "alternate_name": "2-Pyrazinecarboxylic acid, 3-amino-5,6-dichloro-, methyl ester;Pyrazinecarboxylic acid, 3-amino-5,6-dichloro-, methyl ester;Methyl 3-amino-5,6-dichloropyrazine-2-carboxylate;3-Amino-5,6-dichloropyrazine-2-carboxylic acid methyl ester",
    "duplicated_cas_no": "1932615-13-8",
    "SMILES": "C(OC)(=O)C=1C(N)=NC(Cl)=C(Cl)N1",
    "meta_data": {
        "InChI": "InChI=1S/C6H5Cl2N3O2/c1-13-6(12)2-5(9)11-4(8)3(7)10-2/h1H3,(H2,9,11)",
        "InChIKey": null,
        "Canonical SMILES": "O=C(OC)C1=NC(Cl)=C(Cl)N=C1N",
        "Molecular Formula": "C<sub>6</sub>H<sub>5</sub>Cl<sub>2</sub>N<sub>3</sub>O<sub>2</sub>",
        "Molecular Mass": "222.03",
        "Melting Point": "233-234 °C"
    }
}