{
    "cas_no": "2627-95-4",
    "key_name": "1,3-Divinyltetramethyldisiloxane",
    "cn_name": "四甲基二乙烯基二硅氧烷;",
    "alternate_name": "Disiloxane, 1,3-diethenyl-1,1,3,3-tetramethyl-;Disiloxane, 1,1,3,3-tetramethyl-1,3-divinyl-;1,3-Diethenyl-1,1,3,3-tetramethyldisiloxane;1,3-Divinyltetramethyldisiloxane;1,3-Divinyl-1,1,3,3-tetramethyldisiloxane;1,1,3,3-Tetramethyl-1,3-divinyldisiloxane;1,1′-Divinyltetramethyldisiloxane;<em>sym</em>-Tetramethyldivinyldisiloxane;Tetramethyl-1,3-divinyldisiloxane;<em>sym</em>-Divinyltetramethyldisiloxane;Bis(ethenyldimethylsilyl) ether;LS 7250;Vinyldimethylsilyl ether;DP 162;SID 4613.0;PLY 70;Andisil 2827-186L;Lullaby DJ 030;IOTA 1002;Dowsil 4-2776",
    "duplicated_cas_no": "846574-60-5;1588777-22-3",
    "SMILES": "O([Si](C=C)(C)C)[Si](C=C)(C)C",
    "meta_data": {
        "InChI": "InChI=1S/C8H18OSi2/c1-7-10(3,4)9-11(5,6)8-2/h7-8H,1-2H2,3-6H3",
        "InChIKey": null,
        "Canonical SMILES": "O([Si](C=C)(C)C)[Si](C=C)(C)C",
        "Molecular Formula": "C<sub>8</sub>H<sub>18</sub>OSi<sub>2</sub>",
        "Molecular Mass": "186.40",
        "Boiling Point": "139 °C",
        "Melting Point": "-99.7 °C",
        "Density": "0.811 g/cm³"
    }
}