{
    "cas_no": "7737-16-8",
    "key_name": "<em>N</em>-(2-Oxopropyl)acetamide",
    "cn_name": null,
    "alternate_name": "Acetamide, <em>N</em>-(2-oxopropyl)-;Acetamide, <em>N</em>-acetonyl-;<em>N</em>-(2-Oxopropyl)acetamide;Acetamidoacetone;<em>N</em>-Acetonylacetamide;1-(Acetylamino)-2-propanone;(Acetylamino)acetone",
    "duplicated_cas_no": "",
    "SMILES": "C(NC(C)=O)C(C)=O",
    "meta_data": {
        "InChI": "InChI=1S/C5H9NO2/c1-4(7)3-6-5(2)8/h3H2,1-2H3,(H,6,8)",
        "InChIKey": null,
        "Canonical SMILES": "O=C(NCC(=O)C)C",
        "Molecular Formula": "C<sub>5</sub>H<sub>9</sub>NO<sub>2</sub>",
        "Molecular Mass": "115.13",
        "Boiling Point": "104-109 °C @ Press: 1-2 Torr",
        "Melting Point": "39-41 °C"
    }
}