{
    "cas_no": "103478-63-3",
    "key_name": "<em>N</em>-[(9<em>H</em>-Fluoren-9-ylmethoxy)carbonyl]-<em>N</em>-methyl-<span class=\"text-smallcaps\">D</span>-leucine",
    "cn_name": "Fmoc-N-甲基-D-亮氨酸;N-芴甲氧羰基-N-甲基-D-亮氨酸;",
    "alternate_name": "<span class=\"text-smallcaps\">D</span>-Leucine, <em>N</em>-[(9<em>H</em>-fluoren-9-ylmethoxy)carbonyl]-<em>N</em>-methyl-;<em>N</em>-[(9<em>H</em>-Fluoren-9-ylmethoxy)carbonyl]-<em>N</em>-methyl-<span class=\"text-smallcaps\">D</span>-leucine;<em>N</em>-(9-Fluorenylmethoxycarbonyl)-<em>N</em>-methyl-<span class=\"text-smallcaps\">D</span>-leucine;(<em>R</em>)-2-[[[(9<em>H</em>-Fluoren-9-yl)methoxy]carbonyl](methyl)amino]-4-methylpentanoic acid;(2R)-2-[9<em>H</em>-Fluoren-9-ylmethoxycarbonyl(methyl)amino]-4-methylpentanoic acid",
    "duplicated_cas_no": "",
    "SMILES": "C(OC(N([C@H](CC(C)C)C(O)=O)C)=O)C1C=2C(C=3C1=CC=CC3)=CC=CC2",
    "meta_data": {
        "InChI": "InChI=1S/C22H25NO4/c1-14(2)12-20(21(24)25)23(3)22(26)27-13-19-17-10-6-4-8-15(17)16-9-5-7-11-18(16)19/h4-11,14,19-20H,12-13H2,1-3H3,(H,24,25)/t20-/m1/s1",
        "InChIKey": null,
        "Canonical SMILES": "O=C(O)C(N(C(=O)OCC1C=2C=CC=CC2C=3C=CC=CC31)C)CC(C)C",
        "Molecular Formula": "C<sub>22</sub>H<sub>25</sub>NO<sub>4</sub>",
        "Molecular Mass": "367.44",
        "Melting Point": "112-114 °C"
    }
}