{
    "cas_no": "1125-60-6",
    "key_name": "5-Aminoisoquinoline",
    "cn_name": "5-氨基异喹啉;",
    "alternate_name": "5-Isoquinolinamine;Isoquinoline, 5-amino-;5-Aminoisoquinoline;(Isoquinolin-5-yl)amine;NSC 46880;SID 4248661;Isoquinolin-5-amine",
    "duplicated_cas_no": "",
    "SMILES": "NC=1C2=C(C=CC1)C=NC=C2",
    "meta_data": {
        "InChI": "InChI=1S/C9H8N2/c10-9-3-1-2-7-6-11-5-4-8(7)9/h1-6H,10H2",
        "InChIKey": null,
        "Canonical SMILES": "N=1C=CC=2C(N)=CC=CC2C1",
        "Molecular Formula": "C<sub>9</sub>H<sub>8</sub>N<sub>2</sub>",
        "Molecular Mass": "144.17",
        "Melting Point": "128 °C"
    }
}