{
    "cas_no": "163702-05-4",
    "key_name": "Ethyl perfluorobutyl ether",
    "cn_name": "乙基九氟代丁基醚;",
    "alternate_name": "Butane, 1-ethoxy-1,1,2,2,3,3,4,4,4-nonafluoro-;1-Ethoxy-1,1,2,2,3,3,4,4,4-nonafluorobutane;HFE 7200;Ethyl perfluorobutyl ether;Ethyl nonafluorobutyl ether;HFE 569mccc;Nonafluorobutyl ethyl ether;CF 76;Cosmetic Fluid CF 76;1-Ethoxynonafluorobutane;(Perfluorobutoxy)ethane;HFE 569sf2",
    "duplicated_cas_no": "1337538-18-7;2742640-19-1",
    "SMILES": "C(C(C(F)(F)F)(F)F)(C(OCC)(F)F)(F)F",
    "meta_data": {
        "InChI": "InChI=1S/C6H5F9O/c1-2-16-6(14,15)4(9,10)3(7,8)5(11,12)13/h2H2,1H3",
        "InChIKey": null,
        "Canonical SMILES": "FC(F)(F)C(F)(F)C(F)(F)C(F)(F)OCC",
        "Molecular Formula": "C<sub>6</sub>H<sub>5</sub>F<sub>9</sub>O",
        "Molecular Mass": "264.09",
        "Boiling Point": "76 °C",
        "Density": "1.43 g/cm³ @ Temp: 25 °C"
    }
}