{
    "cas_no": "438-22-2",
    "key_name": "Androstane",
    "cn_name": "5α-雄烷;",
    "alternate_name": "Androstane, (5α)-;5α-Androstane;(5α)-Androstane;Etioallocholane;5α,14α-Androstane;Androstane;Aetioallocholane;5α-Androstan;NSC 49000",
    "duplicated_cas_no": "",
    "SMILES": "C[C@@]12[C@@]3([C@]([C@]4([C@](C)(CC3)CCC4)[H])(CC[C@]1(CCCC2)[H])[H])[H]",
    "meta_data": {
        "InChI": "InChI=1S/C19H32/c1-18-11-5-7-16(18)15-9-8-14-6-3-4-12-19(14,2)17(15)10-13-18/h14-17H,3-13H2,1-2H3/t14-,15+,16+,17+,18+,19+/m1/s1",
        "InChIKey": null,
        "Canonical SMILES": "CC12CCCC2C3CCC4CCCCC4(C)C3CC1",
        "Molecular Formula": "C<sub>19</sub>H<sub>32</sub>",
        "Molecular Mass": "260.46",
        "Melting Point": "50.25 °C"
    }
}