{
    "cas_no": "53087-13-1",
    "key_name": "1-Benzyloxy-3-bromobenzene",
    "cn_name": "3-苄氧基溴苯;",
    "alternate_name": "Benzene, 1-bromo-3-(phenylmethoxy)-;Ether, benzyl <em>m</em>-bromophenyl;1-Bromo-3-(phenylmethoxy)benzene;3-Benzyloxybromobenzene;3-Bromophenyl benzyl ether;1-Benzyloxy-3-bromobenzene;Benzyl 3-bromophenyl ether;3-(Benzyloxy)-1-bromobenzene;1-Bromo-3-benzyloxybenzene;1-Bromo-3-[(phenylmethyl)oxy]benzene;3-Bromophenyl phenylmethyl ether;<em>m</em>-Bromophenyl benzyl ether",
    "duplicated_cas_no": "",
    "SMILES": "O(CC1=CC=CC=C1)C2=CC(Br)=CC=C2",
    "meta_data": {
        "InChI": "InChI=1S/C13H11BrO/c14-12-7-4-8-13(9-12)15-10-11-5-2-1-3-6-11/h1-9H,10H2",
        "InChIKey": null,
        "Canonical SMILES": "BrC1=CC=CC(OCC=2C=CC=CC2)=C1",
        "Molecular Formula": "C<sub>13</sub>H<sub>11</sub>BrO",
        "Molecular Mass": "263.13",
        "Melting Point": "59-63 °C"
    }
}