{
    "cas_no": "2528-38-3",
    "key_name": "Tripentyl phosphate",
    "cn_name": "三正戊基磷酸;",
    "alternate_name": "Phosphoric acid, tripentyl ester;Pentyl phosphate ((C<sub>5</sub>H<sub>11</sub>O)<sub>3</sub>PO);Tripentyl phosphate;Tri-<em>n</em>-amyl phosphate;Triamyl phosphate;Tri-<em>n</em>-pentyl phosphate;1-Pentanol, phosphate (3:1);NSC 202805",
    "duplicated_cas_no": "14019-79-5",
    "SMILES": "P(OCCCCC)(OCCCCC)(OCCCCC)=O",
    "meta_data": {
        "InChI": "InChI=1S/C15H33O4P/c1-4-7-10-13-17-20(16,18-14-11-8-5-2)19-15-12-9-6-3/h4-15H2,1-3H3",
        "InChIKey": null,
        "Canonical SMILES": "O=P(OCCCCC)(OCCCCC)OCCCCC",
        "Molecular Formula": "C<sub>15</sub>H<sub>33</sub>O<sub>4</sub>P",
        "Molecular Mass": "308.39",
        "Boiling Point": "143.5 °C @ Press: 2.5 Torr",
        "Density": "0.9373 g/cm³ @ Temp: 40 °C"
    }
}