{
    "cas_no": "7154-73-6",
    "key_name": "1-Pyrrolidineethanamine",
    "cn_name": "N-(2-氨基乙基)吡咯烷;N-(2-氨乙基)吡咯烷;",
    "alternate_name": "1-Pyrrolidineethanamine;Pyrrolidine, 1-(2-aminoethyl)-;2-(1-Pyrrolidinyl)ethylamine;1-(2-Aminoethyl)pyrrolidine;2-Pyrrolidinoethyl amine;<em>N</em>-(2-Aminoethyl)pyrrolidine;Pyrrolidinoethanamine;Pyrrolidinoethylamine;<em>N</em>-(2′-Aminoethyl)pyrrolidine;<em>N</em>-Aminoethylpyrrolidine;2-(1-Pyrrolidinyl)ethanamine;NSC 73740;2-(Pyrrolidino)ethanamine;<em>N</em>-[2-(Pyrrolidin-1-yl)ethyl]amine;2-(Pyrrolidin-1-yl)ethan-1-amine",
    "duplicated_cas_no": "",
    "SMILES": "C(CN)N1CCCC1",
    "meta_data": {
        "InChI": "InChI=1S/C6H14N2/c7-3-6-8-4-1-2-5-8/h1-7H2",
        "InChIKey": null,
        "Canonical SMILES": "NCCN1CCCC1",
        "Molecular Formula": "C<sub>6</sub>H<sub>14</sub>N<sub>2</sub>",
        "Molecular Mass": "114.19",
        "Boiling Point": "166-167 °C",
        "Melting Point": "213-214 °C"
    }
}