{
    "cas_no": "4065-45-6",
    "key_name": "Benzophenone 4",
    "cn_name": "2-羟基-4-甲氧基-5-磺酸二苯甲酮;紫外线吸收剂UVBP-4;紫外线吸收剂UV284;",
    "alternate_name": "Benzenesulfonic acid, 5-benzoyl-4-hydroxy-2-methoxy-;1-Phenol-4-sulfonic acid, 2-benzoyl-5-methoxy-;5-Benzoyl-4-hydroxy-2-methoxybenzenesulfonic acid;MS 40;3-Benzoyl-4-hydroxy-6-methoxybenzenesulfonic acid;2-Hydroxy-4-methoxybenzophenone-5-sulfonic acid;Spectra-Sorb UV 284;Sulisobenzone;Uval;Uvinul MS 40;2-Hydroxy-4-methoxy-5-sulfobenzophenone;2-Methoxy-4-hydroxy-5-benzoylbenzenesulfonic acid;Syntase 230;Benzophenone 4;Seesorb 101S;Uvasorb S 5;Sungard;NSC 60584;Uvinul D 5030;Viosorb 111;Escalol 577;UV 284;BP 4;Kemisorb 11S",
    "duplicated_cas_no": "62121-63-5;197923-35-6",
    "SMILES": "C(=O)(C1=CC(S(=O)(=O)O)=C(OC)C=C1O)C2=CC=CC=C2",
    "meta_data": {
        "InChI": "InChI=1S/C14H12O6S/c1-20-12-8-11(15)10(7-13(12)21(17,18)19)14(16)9-5-3-2-4-6-9/h2-8,15H,1H3,(H,17,18,19)",
        "InChIKey": null,
        "Canonical SMILES": "O=C(C=1C=CC=CC1)C=2C=C(C(OC)=CC2O)S(=O)(=O)O",
        "Molecular Formula": "C<sub>14</sub>H<sub>12</sub>O<sub>6</sub>S",
        "Molecular Mass": "308.31",
        "Boiling Point": "491 °C",
        "Melting Point": "145 °C"
    }
}