{
    "cas_no": "779-02-2",
    "key_name": "9-Methylanthracene",
    "cn_name": "9-甲基蒽;",
    "alternate_name": "Anthracene, 9-methyl-;9-Methylanthracene;NSC 400540",
    "duplicated_cas_no": "",
    "SMILES": "CC=1C2=C(C=C3C1C=CC=C3)C=CC=C2",
    "meta_data": {
        "InChI": "InChI=1S/C15H12/c1-11-14-8-4-2-6-12(14)10-13-7-3-5-9-15(11)13/h2-10H,1H3",
        "InChIKey": null,
        "Canonical SMILES": "C=1C=CC2=C(C1)C=C3C=CC=CC3=C2C",
        "Molecular Formula": "C<sub>15</sub>H<sub>12</sub>",
        "Molecular Mass": "192.26",
        "Boiling Point": "196-197 °C",
        "Melting Point": "81.5 °C"
    }
}