{
    "cas_no": "27017-66-9",
    "key_name": "2,6-Dichloro-1,5-naphthyridine",
    "cn_name": null,
    "alternate_name": "1,5-Naphthyridine, 2,6-dichloro-;2,6-Dichloro-1,5-naphthyridine",
    "duplicated_cas_no": "",
    "SMILES": "ClC1=NC2=C(N=C(Cl)C=C2)C=C1",
    "meta_data": {
        "InChI": "InChI=1S/C8H4Cl2N2/c9-7-3-1-5-6(12-7)2-4-8(10)11-5/h1-4H",
        "InChIKey": null,
        "Canonical SMILES": "ClC=1N=C2C=CC(Cl)=NC2=CC1",
        "Molecular Formula": "C<sub>8</sub>H<sub>4</sub>Cl<sub>2</sub>N<sub>2</sub>",
        "Molecular Mass": "199.04",
        "Melting Point": "236-238 °C"
    }
}