{
    "cas_no": "90657-55-9",
    "key_name": "<span class=\"text-smallcaps\">L</span>-Proline, 4-cyclohexyl-, hydrochloride (1:1), (4<em>S</em>)-",
    "cn_name": "反式-4-环己基-L-脯氨酸盐酸盐;",
    "alternate_name": "<span class=\"text-smallcaps\">L</span>-Proline, 4-cyclohexyl-, hydrochloride (1:1), (4<em>S</em>)-;<span class=\"text-smallcaps\">L</span>-Proline, 4-cyclohexyl-, hydrochloride, <em>trans</em>-;<span class=\"text-smallcaps\">L</span>-Proline, 4-cyclohexyl-, hydrochloride, (4<em>S</em>)-;<em>trans</em>-4-Cyclohexyl-<span class=\"text-smallcaps\">L</span>-proline hydrochloride",
    "duplicated_cas_no": "",
    "SMILES": "C(O)(=O)[C@@H]1C[C@H](CN1)[C@@H]2CCCCC2.Cl",
    "meta_data": {
        "InChI": "InChI=1S/C11H19NO2.ClH/c13-11(14)10-6-9(7-12-10)8-4-2-1-3-5-8;/h8-10,12H,1-7H2,(H,13,14);1H/t9-,10+;/m1./s1",
        "InChIKey": null,
        "Canonical SMILES": "Cl.O=C(O)C1NCC(C1)C2CCCCC2",
        "Molecular Formula": "C<sub>11</sub>H<sub>19</sub>NO<sub>2</sub>.ClH",
        "Molecular Mass": "",
        "Melting Point": "172-174 °C"
    }
}