{
    "cas_no": "15894-70-9",
    "key_name": "1,6-Bis(cyanoguanidino)hexane",
    "cn_name": "1,6-双氰基胍基己烷;",
    "alternate_name": "Guanidine, <em>N</em>,<em>N</em>′′′-1,6-hexanediylbis[<em>N</em>′-cyano-;Guanidine, 1,1′-hexamethylenebis[3-cyano-;<em>N</em>,<em>N</em>′′′-1,6-Hexanediylbis[<em>N</em>′-cyanoguanidine];1,6-Bis(<em>N</em><sup>3</sup>-cyano-<em>N</em><sup>1</sup>-guanidino)hexane;Hexamethylenebis(dicyanodiamide);1,6-Bis(cyanoguanidino)hexane;1,6-Di(cyanoguanidino)hexane;<em>N</em>,<em>N</em>′-Bis(cyanoguanidine)-1,6-hexanediamine;2-[6-[[Amino-(cyanoamino)methylidene]amino]hexyl]-1-cyanoguanidine",
    "duplicated_cas_no": "2089031-86-5",
    "SMILES": "N(CCCCCCNC(NC#N)=N)C(NC#N)=N",
    "meta_data": {
        "InChI": "InChI=1S/C10H18N8/c11-7-17-9(13)15-5-3-1-2-4-6-16-10(14)18-8-12/h1-6H2,(H3,13,15,17)(H3,14,16,18)",
        "InChIKey": null,
        "Canonical SMILES": "N#CNC(=N)NCCCCCCNC(=N)NC#N",
        "Molecular Formula": "C<sub>10</sub>H<sub>18</sub>N<sub>8</sub>",
        "Molecular Mass": "250.30",
        "Melting Point": "202-203 °C"
    }
}