{
    "cas_no": "61397-56-6",
    "key_name": "1,3-Dioxolane-4-methanol, 2-(bromomethyl)-2-(2,4-dichlorophenyl)-, 4-benzoate, (2<em>R</em>,4<em>R</em>)-<em>rel</em>-",
    "cn_name": "cis-苯甲酸-[2-溴甲基-2-(2,4-二氯苯基)-1,3-二氧戊环-4-基]甲酯;",
    "alternate_name": "1,3-Dioxolane-4-methanol, 2-(bromomethyl)-2-(2,4-dichlorophenyl)-, 4-benzoate, (2<em>R</em>,4<em>R</em>)-<em>rel</em>-;1,3-Dioxolane-4-methanol, 2-(bromomethyl)-2-(2,4-dichlorophenyl)-, benzoate, <em>cis</em>-;1,3-Dioxolane-4-methanol, 2-(bromomethyl)-2-(2,4-dichlorophenyl)-, benzoate, (2<em>R</em>,4<em>R</em>)-<em>rel</em>-;<em>cis</em>-[2-Bromomethyl-2-(2,4-dichlorophenyl)-1,3-dioxolan-4-yl]methyl benzoate;(2<em>R</em>,4<em>R</em>)-<em>rel</em>-2-(Bromomethyl)-2-(2,4-dichlorophenyl)-1,3-dioxolane-4-methanol benzoate",
    "duplicated_cas_no": "68751-58-6",
    "SMILES": "C(Br)[C@]1(O[C@@H](COC(=O)C2=CC=CC=C2)CO1)C3=C(Cl)C=C(Cl)C=C3",
    "meta_data": {
        "InChI": "InChI=1/C18H15BrCl2O4/c19-11-18(15-7-6-13(20)8-16(15)21)24-10-14(25-18)9-23-17(22)12-4-2-1-3-5-12/h1-8,14H,9-11H2/t14-,18-/s2",
        "InChIKey": null,
        "Canonical SMILES": "O=C(OCC1OC(OC1)(C2=CC=C(Cl)C=C2Cl)CBr)C=3C=CC=CC3",
        "Molecular Formula": "C<sub>18</sub>H<sub>15</sub>BrCl<sub>2</sub>O<sub>4</sub>",
        "Molecular Mass": "446.12",
        "Melting Point": "116-117 °C"
    }
}