{
    "cas_no": "15448-77-8",
    "key_name": "1-Methyl bicyclo[2.2.1]heptane-1,4-dicarboxylate",
    "cn_name": null,
    "alternate_name": "Bicyclo[2.2.1]heptane-1,4-dicarboxylic acid, 1-methyl ester;1,4-Norbornanedicarboxylic acid, monomethyl ester;Bicyclo[2.2.1]heptane-1,4-dicarboxylic acid, monomethyl ester;1-Methyl bicyclo[2.2.1]heptane-1,4-dicarboxylate;4-(Methoxycarbonyl)bicyclo[2.2.1]heptane-1-carboxylic acid",
    "duplicated_cas_no": "",
    "SMILES": "C(OC)(=O)C12CC(C(O)=O)(CC1)CC2",
    "meta_data": {
        "InChI": "InChI=1S/C10H14O4/c1-14-8(13)10-4-2-9(6-10,3-5-10)7(11)12/h2-6H2,1H3,(H,11,12)",
        "InChIKey": null,
        "Canonical SMILES": "O=C(O)C12CCC(C(=O)OC)(CC1)C2",
        "Molecular Formula": "C<sub>10</sub>H<sub>14</sub>O<sub>4</sub>",
        "Molecular Mass": "198.22",
        "Melting Point": "105-107 °C"
    }
}