{
    "cas_no": "5781-53-3",
    "key_name": "Methyl oxalyl chloride",
    "cn_name": "甲基戊酰氯;",
    "alternate_name": "Acetic acid, 2-chloro-2-oxo-, methyl ester;Glyoxylic acid, chloro-, methyl ester;Acetic acid, chlorooxo-, methyl ester;Methyl chloroglyoxylate;Methyl oxalyl chloride;Methoxalyl chloride;Methyl chlorooxoacetate;Monomethyl oxalate monochloride;Methyl chlorooxalate;Methyl (chloroformyl)formate;Monomethyl oxalate chloride;Methyl (chlorocarbonyl)formate;Oxalic acid methyl ester chloride;Oxalic acid monomethyl ester chloride;Methyl 2-chloro-2-oxoacetate;(Chloro)(oxo)acetic acid methyl ester;Chloroglyoxylic acid methyl ester;Methoxyoxalyl chloride;Methyl oxalochloridate",
    "duplicated_cas_no": "",
    "SMILES": "C(C(Cl)=O)(OC)=O",
    "meta_data": {
        "InChI": "InChI=1S/C3H3ClO3/c1-7-3(6)2(4)5/h1H3",
        "InChIKey": null,
        "Canonical SMILES": "O=C(Cl)C(=O)OC",
        "Molecular Formula": "C<sub>3</sub>H<sub>3</sub>ClO<sub>3</sub>",
        "Molecular Mass": "122.51",
        "Boiling Point": "119 °C"
    }
}