{
    "cas_no": "3344-77-2",
    "key_name": "12-Bromo-1-dodecanol",
    "cn_name": "12-溴-1-十二烷醇;",
    "alternate_name": "1-Dodecanol, 12-bromo-;12-Bromo-1-dodecanol;1-Bromo-12-dodecanol",
    "duplicated_cas_no": "",
    "SMILES": "C(CCCCCCO)CCCCCBr",
    "meta_data": {
        "InChI": "InChI=1S/C12H25BrO/c13-11-9-7-5-3-1-2-4-6-8-10-12-14/h14H,1-12H2",
        "InChIKey": null,
        "Canonical SMILES": "BrCCCCCCCCCCCCO",
        "Molecular Formula": "C<sub>12</sub>H<sub>25</sub>BrO",
        "Molecular Mass": "265.23",
        "Boiling Point": "155-156 °C @ Press: 4 Torr",
        "Melting Point": "29 °C"
    }
}