{
    "cas_no": "6306-52-1",
    "key_name": "<span class=\"text-smallcaps\">L</span>-Valine, methyl ester, hydrochloride (1:1)",
    "cn_name": "L-缬氨酸甲酯盐酸盐;",
    "alternate_name": "<span class=\"text-smallcaps\">L</span>-Valine, methyl ester, hydrochloride (1:1);<span class=\"text-smallcaps\">L</span>-Valine, methyl ester, hydrochloride;Valine, methyl ester, hydrochloride, <span class=\"text-smallcaps\">L</span>-;Methyl <span class=\"text-smallcaps\">L</span>-valinate hydrochloride;Valine methyl ester hydrochloride;NSC 197198;NSC 22920;Methyl (<em>S</em>)-2-amino-3-methylbutanoate hydrochloride;Methyl (<em>S</em>)-valinate hydrochloride;Methyl valinate hydrochloride;(<em>S</em>)-Valine methyl ester hydrochloride;Methyl <span class=\"text-smallcaps\">L</span>-valine hydrochloride;Methyl (2<em>S</em>)-2-amino-3-methylbutanoate hydrochloride",
    "duplicated_cas_no": "189231-40-1",
    "SMILES": "[C@@H](C(OC)=O)(C(C)C)N.Cl",
    "meta_data": {
        "InChI": "InChI=1S/C6H13NO2.ClH/c1-4(2)5(7)6(8)9-3;/h4-5H,7H2,1-3H3;1H/t5-;/m0./s1",
        "InChIKey": null,
        "Canonical SMILES": "Cl.O=C(OC)C(N)C(C)C",
        "Molecular Formula": "C<sub>6</sub>H<sub>13</sub>NO<sub>2</sub>.ClH",
        "Molecular Mass": "",
        "Melting Point": "146-149 °C"
    }
}