{
    "cas_no": "107264-09-5",
    "key_name": "Pyridinium, 1-fluoro-, tetrafluoroborate(1-) (1:1)",
    "cn_name": null,
    "alternate_name": "Pyridinium, 1-fluoro-, tetrafluoroborate(1-) (1:1);Pyridinium, 1-fluoro-, tetrafluoroborate(1-);<em>N</em>-Fluoropyridinium tetrafluoroborate;FP-B 500;Florinate FP-B 500;1-Fluoropyridinium tetrafluoroborate(1-);1-Fluoropyridinium tetrafluoroborate;1-Fluoropyridin-1-ium; tetrafluoroboranuide",
    "duplicated_cas_no": "",
    "SMILES": "F[N+]=1C=CC=CC1.[B+3]([F-])([F-])([F-])[F-]",
    "meta_data": {
        "InChI": "InChI=1S/C5H5FN.BF4/c6-7-4-2-1-3-5-7;2-1(3,4)5/h1-5H;/q+1;-1",
        "InChIKey": null,
        "Canonical SMILES": "F[N+]=1C=CC=CC1.[F-][B+3]([F-])([F-])[F-]",
        "Molecular Formula": "C<sub>5</sub>H<sub>5</sub>FN.BF<sub>4</sub>",
        "Molecular Mass": "",
        "Melting Point": "90-91 °C"
    }
}