{
    "cas_no": "531-52-2",
    "key_name": "1,3,5-Triphenylformazan",
    "cn_name": "1,3,5-三苯甲臢;",
    "alternate_name": "Methanone, phenyl(2-phenyldiazenyl)-, 2-phenylhydrazone;Formazan, 1,3,5-triphenyl-;Toluene, α-(phenylazo)-α-(phenylhydrazono)-;Diazene, phenyl[phenyl(phenylhydrazono)methyl]-;1,3,5-Triphenylformazan;NSC 2931;NSC 56467;TTC Formazan",
    "duplicated_cas_no": "",
    "SMILES": "C(N=NC1=CC=CC=C1)(=NNC2=CC=CC=C2)C3=CC=CC=C3",
    "meta_data": {
        "InChI": "InChI=1S/C19H16N4/c1-4-10-16(11-5-1)19(22-20-17-12-6-2-7-13-17)23-21-18-14-8-3-9-15-18/h1-15,20H",
        "InChIKey": null,
        "Canonical SMILES": "N(=NC(=NNC=1C=CC=CC1)C=2C=CC=CC2)C=3C=CC=CC3",
        "Molecular Formula": "C<sub>19</sub>H<sub>16</sub>N<sub>4</sub>",
        "Molecular Mass": "300.36",
        "Melting Point": "169-170 °C"
    }
}