{
    "cas_no": "3189-13-7",
    "key_name": "6-Methoxyindole",
    "cn_name": "6-甲氧基吲哚;",
    "alternate_name": "1<em>H</em>-Indole, 6-methoxy-;Indole, 6-methoxy-;6-Methoxy-1<em>H</em>-indole;6-Methoxyindole;NSC 92517;6-(Methyloxy)-1<em>H</em>-indole",
    "duplicated_cas_no": "2738884-90-5",
    "SMILES": "O(C)C=1C=C2C(=CC1)C=CN2",
    "meta_data": {
        "InChI": "InChI=1S/C9H9NO/c1-11-8-3-2-7-4-5-10-9(7)6-8/h2-6,10H,1H3",
        "InChIKey": null,
        "Canonical SMILES": "O(C=1C=CC=2C=CNC2C1)C",
        "Molecular Formula": "C<sub>9</sub>H<sub>9</sub>NO",
        "Molecular Mass": "147.17",
        "Melting Point": "91-92 °C"
    }
}