{
    "cas_no": "133-74-4",
    "key_name": "2-Amino-5-chlorobenzenesulfonic acid",
    "cn_name": "4-氯苯胺-2-磺酸;2-氨基-5-氯苯磺酸;",
    "alternate_name": "Benzenesulfonic acid, 2-amino-5-chloro-;2-Amino-5-chlorobenzenesulfonic acid;<em>p</em>-Chloroaniline-<em>o</em>-sulfonic acid;4-Chloroaniline-2-sulfonic acid;1-Amino-4-chloro-2-benzenesulfonic acid;2-Amino-5-chlorobenzene-1-sulfonic acid",
    "duplicated_cas_no": "",
    "SMILES": "S(=O)(=O)(O)C1=C(N)C=CC(Cl)=C1",
    "meta_data": {
        "InChI": "InChI=1S/C6H6ClNO3S/c7-4-1-2-5(8)6(3-4)12(9,10)11/h1-3H,8H2,(H,9,10,11)",
        "InChIKey": null,
        "Canonical SMILES": "O=S(=O)(O)C1=CC(Cl)=CC=C1N",
        "Molecular Formula": "C<sub>6</sub>H<sub>6</sub>ClNO<sub>3</sub>S",
        "Molecular Mass": "207.63",
        "Melting Point": "&gt;325 °C (decomp)"
    }
}