{
    "cas_no": "72-19-5",
    "key_name": "<span class=\"text-smallcaps\">L</span>-Threonine",
    "cn_name": "L-苏氨酸;(2S,3R)-2-氨基-3-羟基丁酸;",
    "alternate_name": "<span class=\"text-smallcaps\">L</span>-Threonine;Threonine, <span class=\"text-smallcaps\">L</span>-;Butanoic acid, 2-amino-3-hydroxy-, [<em>R</em>-(<em>R</em>*,<em>S</em>*)]-;Threonine;Threonin;[<em>R</em>-(<em>R</em>*,<em>S</em>*)]-2-Amino-3-hydroxybutanoic acid;(<em>S</em>)-Threonine;<span class=\"text-smallcaps\">L</span>-(-)-Threonine;2-Amino-3-hydroxybutyric acid;NSC 16589;NSC 46701;48: PN: WO2004076659 FIGURE: 7 claimed protein;46: PN: WO2005016244 PAGE: 70 claimed protein;49: PN: WO2005016244 PAGE: 70 claimed protein;3046: PN: WO2004111636 SEQID: 516 unclaimed protein;2: PN: US20090069547 PAGE: 10 claimed protein;17: PN: WO2011044089 SEQID: 18 claimed protein;4: PN: WO2012076822 PAGE: 51 claimed sequence;(2S,3R)-2-Amino-3-hydroxybutanoic acid;515: PN: WO2022056313 SEQID: 531 claimed protein;361: PN: US20220128567 SEQID: 531 claimed protein;361: PN: US20220178935 SEQID: 531 claimed protein;MeSH ID: D013912;529: PN: WO2023172654 SEQID: 531 claimed sequence",
    "duplicated_cas_no": "13095-55-1;25275-17-6;36676-50-3;154605-64-8;154605-68-2;1043597-96-1;1370710-06-7;1644578-86-8",
    "SMILES": "[C@H]([C@@H](C)O)(C(O)=O)N",
    "meta_data": {
        "InChI": "InChI=1S/C4H9NO3/c1-2(6)3(5)4(7)8/h2-3,6H,5H2,1H3,(H,7,8)/t2-,3+/m1/s1",
        "InChIKey": null,
        "Canonical SMILES": "O=C(O)C(N)C(O)C",
        "Molecular Formula": "C<sub>4</sub>H<sub>9</sub>NO<sub>3</sub>",
        "Molecular Mass": "119.12",
        "Melting Point": "256 °C (decomp)",
        "Density": "1.499 g/cm³ (solid)"
    }
}