{
    "cas_no": "169447-70-5",
    "key_name": "1,1-Dimethylethyl (2<em>S</em>)-2-methyl-1-piperazinecarboxylate",
    "cn_name": "(S)-1-N-Boc-2-甲基哌嗪;(S)-2-甲基哌嗪-1-甲酸叔丁酯;",
    "alternate_name": "1-Piperazinecarboxylic acid, 2-methyl-, 1,1-dimethylethyl ester, (2<em>S</em>)-;1-Piperazinecarboxylic acid, 2-methyl-, 1,1-dimethylethyl ester, (<em>S</em>)-;1,1-Dimethylethyl (2<em>S</em>)-2-methyl-1-piperazinecarboxylate;(2<em>S</em>)-2-Methyl-1-piperazinecarboxylic acid 1,1-dimethylethyl ester;(<em>S</em>)-1-Boc-2-methylpiperazine;<em>tert</em>-Butyl (2<em>S</em>)-2-methylpiperazine-1-carboxylate;2-Methylpiperazine-1-carboxylic acid (<em>S</em>)-<em>tert</em>-butyl ester;(<em>S</em>)-2-Methylpiperazine-1-carboxylic acid tert-butyl ester;<em>tert</em>-Butyl (<em>S</em>)-2-methylpiperazine-1-carboxylate;(<em>S</em>)-<em>tert</em>-Butyl 2-methylpiperazine-1-carboxylate;(<em>S</em>)-1-<em>N</em>-<em>tert</em>-Butoxycarbonyl-2-methylpiperazine;<em>tert</em>-Butyl (2S)-2-methylpiperazine-1-carboxylate;(<em>S</em>)-4-<em>N</em>-<em>tert</em>-Butoxycarbonyl-2-methylpiperazine;<em>tert</em>-Butyl (2<em>S</em>)-2-methylpiperazin-1-ylformate",
    "duplicated_cas_no": "2761287-57-2",
    "SMILES": "C(OC(C)(C)C)(=O)N1[C@@H](C)CNCC1",
    "meta_data": {
        "InChI": "InChI=1S/C10H20N2O2/c1-8-7-11-5-6-12(8)9(13)14-10(2,3)4/h8,11H,5-7H2,1-4H3/t8-/m0/s1",
        "InChIKey": null,
        "Canonical SMILES": "O=C(OC(C)(C)C)N1CCNCC1C",
        "Molecular Formula": "C<sub>10</sub>H<sub>20</sub>N<sub>2</sub>O<sub>2</sub>",
        "Molecular Mass": "200.28",
        "Melting Point": "34-36 °C"
    }
}