{
    "cas_no": "625-55-8",
    "key_name": "Isopropyl formate",
    "cn_name": "甲酸异丙酯;",
    "alternate_name": "Formic acid, 1-methylethyl ester;Formic acid, isopropyl ester;Isopropyl formate;Iso-propyl methanoate",
    "duplicated_cas_no": "",
    "SMILES": "O(C(C)C)C=O",
    "meta_data": {
        "InChI": "InChI=1S/C4H8O2/c1-4(2)6-3-5/h3-4H,1-2H3",
        "InChIKey": null,
        "Canonical SMILES": "O=COC(C)C",
        "Molecular Formula": "C<sub>4</sub>H<sub>8</sub>O<sub>2</sub>",
        "Molecular Mass": "88.11",
        "Boiling Point": "68.2 °C @ Press: 760 Torr",
        "Melting Point": "-80 °C",
        "Density": "0.8728 g/cm³ @ Temp: 20 °C"
    }
}