{
    "cas_no": "52938-99-5",
    "key_name": "5-(4-Methoxyphenyl)-2-furancarboxylic acid",
    "cn_name": "5-(4-甲氧苯基)-2-糠酸;",
    "alternate_name": "2-Furancarboxylic acid, 5-(4-methoxyphenyl)-;5-(4-Methoxyphenyl)-2-furancarboxylic acid;5-(<em>p</em>-Methoxyphenyl)-2-furancarboxylic acid;5-(4-Methoxyphenyl)furan-2-carboxylic acid",
    "duplicated_cas_no": "",
    "SMILES": "C(O)(=O)C=1OC(=CC1)C2=CC=C(OC)C=C2",
    "meta_data": {
        "InChI": "InChI=1S/C12H10O4/c1-15-9-4-2-8(3-5-9)10-6-7-11(16-10)12(13)14/h2-7H,1H3,(H,13,14)",
        "InChIKey": null,
        "Canonical SMILES": "O=C(O)C=1OC(=CC1)C=2C=CC(OC)=CC2",
        "Molecular Formula": "C<sub>12</sub>H<sub>10</sub>O<sub>4</sub>",
        "Molecular Mass": "218.21",
        "Melting Point": "187-188 °C"
    }
}