{
    "cas_no": "62965-35-9",
    "key_name": "<em>N</em>-<em>tert</em>-Butoxycarbonyl-<span class=\"text-smallcaps\">L</span>-<em>tert</em>-leucine",
    "cn_name": "N-Boc-L-叔亮氨酸;N-叔丁氧羰基-L-叔亮氨酸;",
    "alternate_name": "<span class=\"text-smallcaps\">L</span>-Valine, <em>N</em>-[(1,1-dimethylethoxy)carbonyl]-3-methyl-;<em>N</em>-[(1,1-Dimethylethoxy)carbonyl]-3-methyl-<span class=\"text-smallcaps\">L</span>-valine;<em>N</em>-<em>tert</em>-Butoxycarbonyl-<span class=\"text-smallcaps\">L</span>-<em>tert</em>-leucine;(<em>S</em>)-2-<em>tert</em>-Butoxycarbonylamino-3,3-dimethylbutyric acid;(2<em>S</em>)-2-(<em>tert</em>-Butoxycarbonylamino)-3,3-dimethylbutanoic acid;<em>N</em>-<em>tert</em>-Butoxycarbonyl-<span class=\"text-smallcaps\">L</span>-<em>tert</em>-butylglycine;<em>N</em>-Boc-<span class=\"text-smallcaps\">L</span>-<em>tert</em>-leucine;(<em>S</em>)-2-(((<em>tert</em>-Butoxy)carbonyl)amino)-3,3-dimethylbutanoic acid;<span class=\"text-smallcaps\">L</span>-Boc-<em>tert</em>-leucine;<em>N</em>-(<em>tert</em>-Butoxycarbonyl)-3-methyl-<span class=\"text-smallcaps\">L</span>-valine;(2S)-2-(<em>tert</em>-Butoxycarbonylamino)-3,3-dimethyl-butanoic acid",
    "duplicated_cas_no": "2226303-64-4;2697188-22-8",
    "SMILES": "[C@H](NC(OC(C)(C)C)=O)(C(C)(C)C)C(O)=O",
    "meta_data": {
        "InChI": "InChI=1S/C11H21NO4/c1-10(2,3)7(8(13)14)12-9(15)16-11(4,5)6/h7H,1-6H3,(H,12,15)(H,13,14)/t7-/m1/s1",
        "InChIKey": null,
        "Canonical SMILES": "O=C(OC(C)(C)C)NC(C(=O)O)C(C)(C)C",
        "Molecular Formula": "C<sub>11</sub>H<sub>21</sub>NO<sub>4</sub>",
        "Molecular Mass": "",
        "Melting Point": "122 °C"
    }
}