{
    "cas_no": "7790-44-5",
    "key_name": "Triiodostibine",
    "cn_name": "三碘化锑;碘化锑;",
    "alternate_name": "Stibine, triiodo-;Antimony iodide (SbI<sub>3</sub>);Triiodostibine;Antimony triiodide",
    "duplicated_cas_no": "",
    "SMILES": "[Sb](I)(I)I",
    "meta_data": {
        "InChI": "InChI=1S/3HI.Sb/h3*1H;/q;;;+3/p-3",
        "InChIKey": null,
        "Canonical SMILES": "I[Sb](I)I",
        "Molecular Formula": "I<sub>3</sub>Sb",
        "Molecular Mass": "",
        "Boiling Point": "420 °C",
        "Melting Point": "168 °C",
        "Density": "4.921 g/cm³ @ Temp: 17 °C"
    }
}