{
    "cas_no": "21593-77-1",
    "key_name": "(+)-<em>S</em>-Allylcysteine",
    "cn_name": "L-脱氧蒜氨酸;S- 烯丙基别半胱氨酸;S-Allyl-L-cysteine;(R)-Allylthio-2-aminopropionic acid;Allylcystein;",
    "alternate_name": "<span class=\"text-smallcaps\">L</span>-Cysteine, <em>S</em>-2-propen-1-yl-;Alanine, 3-(allylthio)-, <span class=\"text-smallcaps\">L</span>-;<span class=\"text-smallcaps\">L</span>-Cysteine, <em>S</em>-2-propenyl-;Alanine, 3-(allylthio)-;<em>S</em>-2-Propen-1-yl-<span class=\"text-smallcaps\">L</span>-cysteine;<em>S</em>-Allyl-<span class=\"text-smallcaps\">L</span>-cysteine;3-(Allylthio)-<span class=\"text-smallcaps\">L</span>-alanine;<em>S</em>-Allylcysteine;<em>S</em>-2-Propenylcysteine;<em>S</em>-(2-Propenyl)-<span class=\"text-smallcaps\">L</span>-cysteine;Deoxyalliin;(+)-<em>S</em>-Allylcysteine;NSC 96449;PMK-S 005;(2R)-2-Amino-3-(prop-2-en-1-ylsulfanyl)propanoic acid;(2R)-2-Azaniumyl-3-prop-2-enylsulfanylpropanoate;<em>S</em>-1-Propenylmercaptocysteine",
    "duplicated_cas_no": "20820-68-2",
    "SMILES": "[C@H](CSCC=C)(C(O)=O)N",
    "meta_data": {
        "InChI": "InChI=1S/C6H11NO2S/c1-2-3-10-4-5(7)6(8)9/h2,5H,1,3-4,7H2,(H,8,9)/t5-/m0/s1",
        "InChIKey": null,
        "Canonical SMILES": "O=C(O)C(N)CSCC=C",
        "Molecular Formula": "C<sub>6</sub>H<sub>11</sub>NO<sub>2</sub>S",
        "Molecular Mass": "161.22",
        "Melting Point": "218-219 °C"
    }
}