{
    "cas_no": "7787-64-6",
    "key_name": "Bismuth triiodide",
    "cn_name": "碘化铋;",
    "alternate_name": "Bismuthine, triiodo-;Bismuth iodide (BiI<sub>3</sub>);Triiodobismuthine;Bismuth triiodide;Bismuth iodide;Triiodobismuth;NSC 103681;Bismuth(III) iodide",
    "duplicated_cas_no": "",
    "SMILES": "[Bi](I)(I)I",
    "meta_data": {
        "InChI": "InChI=1S/Bi.3HI/h;3*1H/q+3;;;/p-3",
        "InChIKey": null,
        "Canonical SMILES": "I[Bi](I)I",
        "Molecular Formula": "BiI<sub>3</sub>",
        "Molecular Mass": "",
        "Boiling Point": "500 °C",
        "Melting Point": "408 °C",
        "Density": "5.78 g/cm³"
    }
}