{
    "cas_no": "21640-48-2",
    "key_name": "3-(3-Chlorophenyl)propanoic acid",
    "cn_name": null,
    "alternate_name": "Benzenepropanoic acid, 3-chloro-;Hydrocinnamic acid, <em>m</em>-chloro-;3-Chlorobenzenepropanoic acid;3-Chloro-β-phenylpropionic acid;<em>m</em>-Chlorohydrocinnamic acid;3-Chlorohydrocinnamic acid;3-[3-Chlorophenyl]propionic acid;3-(3-Chlorophenyl)propanoic acid",
    "duplicated_cas_no": "",
    "SMILES": "C(CC(O)=O)C1=CC(Cl)=CC=C1",
    "meta_data": {
        "InChI": "InChI=1S/C9H9ClO2/c10-8-3-1-2-7(6-8)4-5-9(11)12/h1-3,6H,4-5H2,(H,11,12)",
        "InChIKey": null,
        "Canonical SMILES": "O=C(O)CCC=1C=CC=C(Cl)C1",
        "Molecular Formula": "C<sub>9</sub>H<sub>9</sub>ClO<sub>2</sub>",
        "Molecular Mass": "184.62",
        "Melting Point": "73-74 °C"
    }
}