{
    "cas_no": "23602-64-4",
    "key_name": "2-Hydroxy-3-iodobenzaldehyde",
    "cn_name": "3-碘水杨醛;",
    "alternate_name": "Benzaldehyde, 2-hydroxy-3-iodo-;Salicylaldehyde, 3-iodo-;2-Hydroxy-3-iodobenzaldehyde;3-Iodosalicylaldehyde;3-Iodo-2-hydroxybenzaldehyde",
    "duplicated_cas_no": "",
    "SMILES": "C(=O)C1=C(O)C(I)=CC=C1",
    "meta_data": {
        "InChI": "InChI=1S/C7H5IO2/c8-6-3-1-2-5(4-9)7(6)10/h1-4,10H",
        "InChIKey": null,
        "Canonical SMILES": "O=CC=1C=CC=C(I)C1O",
        "Molecular Formula": "C<sub>7</sub>H<sub>5</sub>IO<sub>2</sub>",
        "Molecular Mass": "248.02",
        "Melting Point": "69-71 °C"
    }
}