{
    "cas_no": "5817-08-3",
    "key_name": "<em>N</em>-Acetyl-<span class=\"text-smallcaps\">DL</span>-glutamic acid",
    "cn_name": "N-乙酰-DL-谷氨酸;",
    "alternate_name": "Glutamic acid, <em>N</em>-acetyl-;Glutamic acid, <em>N</em>-acetyl-, <span class=\"text-smallcaps\">DL</span>-;<em>N</em>-Acetylglutamic acid;<span class=\"text-smallcaps\">DL</span>-Acetylglutamic acid;<em>N</em>-Acetyl-<span class=\"text-smallcaps\">DL</span>-glutamic acid;NSC 10854;2-Acetylamino-pentanedioic acid;2-Acetamidopentanedioic acid;Glutamic acid, <em>N</em>-(1-methylethenyl)-",
    "duplicated_cas_no": "2618834-79-8",
    "SMILES": "C(CCC(O)=O)(NC(C)=O)C(O)=O",
    "meta_data": {
        "InChI": "InChI=1S/C7H11NO5/c1-4(9)8-5(7(12)13)2-3-6(10)11/h5H,2-3H2,1H3,(H,8,9)(H,10,11)(H,12,13)",
        "InChIKey": null,
        "Canonical SMILES": "O=C(O)CCC(NC(=O)C)C(=O)O",
        "Molecular Formula": "C<sub>7</sub>H<sub>11</sub>NO<sub>5</sub>",
        "Molecular Mass": "189.17",
        "Melting Point": "176-180 °C"
    }
}