{
    "cas_no": "54533-85-6",
    "key_name": "Nizofenone",
    "cn_name": "硝唑芬酮;(2-氯苯基)[2-[2-[(二乙基氨基)甲基]-1H-咪唑-1-基]-5-硝基苯基]甲酮;",
    "alternate_name": "Methanone, (2-chlorophenyl)[2-[2-[(diethylamino)methyl]-1<em>H</em>-imidazol-1-yl]-5-nitrophenyl]-;(2-Chlorophenyl)[2-[2-[(diethylamino)methyl]-1<em>H</em>-imidazol-1-yl]-5-nitrophenyl]methanone;1-[2-(2-Chlorobenzoyl)-4-nitrophenyl]-2-[(diethylamino)methyl]imidazole;Nizofenone",
    "duplicated_cas_no": "",
    "SMILES": "C(=O)(C1=C(C=CC(N(=O)=O)=C1)N2C(CN(CC)CC)=NC=C2)C3=C(Cl)C=CC=C3",
    "meta_data": {
        "InChI": "InChI=1S/C21H21ClN4O3/c1-3-24(4-2)14-20-23-11-12-25(20)19-10-9-15(26(28)29)13-17(19)21(27)16-7-5-6-8-18(16)22/h5-13H,3-4,14H2,1-2H3",
        "InChIKey": null,
        "Canonical SMILES": "O=C(C=1C=CC=CC1Cl)C2=CC(=CC=C2N3C=CN=C3CN(CC)CC)N(=O)=O",
        "Molecular Formula": "C<sub>21</sub>H<sub>21</sub>ClN<sub>4</sub>O<sub>3</sub>",
        "Molecular Mass": "412.87",
        "Melting Point": "75-76 °C"
    }
}