{
    "cas_no": "6846-50-0",
    "key_name": "2,2,4-Trimethyl-1,3-pentanediol diisobutyrate",
    "cn_name": null,
    "alternate_name": "Propanoic acid, 2-methyl-, 1,1′-[2,2-dimethyl-1-(1-methylethyl)-1,3-propanediyl] ester;Isobutyric acid, 1-isopropyl-2,2-dimethyltrimethylene ester;Propanoic acid, 2-methyl-, 2,2-dimethyl-1-(1-methylethyl)-1,3-propanediyl ester;1,3-Pentanediol, 2,2,4-trimethyl-, diisobutyrate;Kodaflex TXIB;2,2,4-Trimethyl-1,3-pentanediyl diisobutyrate;Texanol isobutyrate;CS 16;2,2,4-Trimethyl-1,3-pentanediol diisobutyrate;Kyowanol M;Kyowanol D;Eastman TXIB;2,2,4-Trimethyl-1,3-pentanediol di(isopropylformate);TXIB;Optifilm Enhancer 300;2,2-Dimethyl-1-(1-methylethyl)-1,3-propanediyl bis(2-methylpropanoate);2,2,4-Trimethyl-1,3-pentanediol bis(isobutyrate);2,2,4-Trimethylpentane 1,3-diisobutanoate;Texanol OE 300;OE 300;[2,2,4-Trimethyl-3-(2-methylpropanoyloxy)pentyl] 2-methylpropanoate;RTC 16;C 16;NX 800;1-Isopropyl-2,2-dimethyltrimethylene diisobutyrate;2,2,4-Trimethyl-1,3-pentanediol 2-methylpropanoic acid diester",
    "duplicated_cas_no": "53490-81-6;939776-40-6;1206955-85-2",
    "SMILES": "C(C(COC(C(C)C)=O)(C)C)(OC(C(C)C)=O)C(C)C",
    "meta_data": {
        "InChI": "InChI=1S/C16H30O4/c1-10(2)13(20-15(18)12(5)6)16(7,8)9-19-14(17)11(3)4/h10-13H,9H2,1-8H3",
        "InChIKey": null,
        "Canonical SMILES": "O=C(OCC(C)(C)C(OC(=O)C(C)C)C(C)C)C(C)C",
        "Molecular Formula": "C<sub>16</sub>H<sub>30</sub>O<sub>4</sub>",
        "Molecular Mass": "286.41",
        "Boiling Point": "280 °C",
        "Density": "0.941 g/cm³"
    }
}