{
    "cas_no": "72-80-0",
    "key_name": "Chlorquinaldol",
    "cn_name": "5,7-二氯-8-羟基喹哪啶;",
    "alternate_name": "8-Quinolinol, 5,7-dichloro-2-methyl-;5,7-Dichloro-2-methyl-8-quinolinol;Chlorquinaldol;5,7-Dichloro-8-hydroxyquinaldine;5,7-Dichloro-2-methyl-8-hydroxyquinoline;5,7-Dichloro-8-quinaldinol;Gyno-Sterosan;Siogene;Siosteran;Sterosan;Steroxin;Saprosan;Siogen;Siogeno;Siogenon;Chlorchinaldol;Afungil;Siogenal;Sterozan;Vagisteran;Chloquinan;Siosept;Florabina;Chlorguinaldon;Chlorchinaldin;Acnosan;5,7-Dichloro-8-hydroxy-2-methylquinoline;Hydroxydichloroquinaldinol;Gynotherax;Quesil;5,7-Dichloro-2-styrylquinoline;MeSH ID: D002750",
    "duplicated_cas_no": "37264-93-0",
    "SMILES": "OC=1C2=C(C(Cl)=CC1Cl)C=CC(C)=N2",
    "meta_data": {
        "InChI": "InChI=1S/C10H7Cl2NO/c1-5-2-3-6-7(11)4-8(12)10(14)9(6)13-5/h2-4,14H,1H3",
        "InChIKey": null,
        "Canonical SMILES": "ClC=1C=C(Cl)C=2C=CC(=NC2C1O)C",
        "Molecular Formula": "C<sub>10</sub>H<sub>7</sub>Cl<sub>2</sub>NO",
        "Molecular Mass": "228.07",
        "Melting Point": "114.5 °C"
    }
}