{
    "cas_no": "617-92-5",
    "key_name": "1-Ethyl-1<em>H</em>-pyrrole",
    "cn_name": "N-乙基吡咯;",
    "alternate_name": "1<em>H</em>-Pyrrole, 1-ethyl-;Pyrrole, 1-ethyl-;1-Ethyl-1<em>H</em>-pyrrole;<em>N</em>-Ethylpyrrole;1-Ethylpyrrole;NSC 6756",
    "duplicated_cas_no": "",
    "SMILES": "C(C)N1C=CC=C1",
    "meta_data": {
        "InChI": "InChI=1S/C6H9N/c1-2-7-5-3-4-6-7/h3-6H,2H2,1H3",
        "InChIKey": null,
        "Canonical SMILES": "C=1C=CN(C1)CC",
        "Molecular Formula": "C<sub>6</sub>H<sub>9</sub>N",
        "Molecular Mass": "95.14",
        "Boiling Point": "129.5 °C",
        "Density": "0.9005 g/cm³ @ Temp: 20 °C"
    }
}