{
    "cas_no": "2058-72-2",
    "key_name": "5-Bromo-1-methylisatin",
    "cn_name": null,
    "alternate_name": "1<em>H</em>-Indole-2,3-dione, 5-bromo-1-methyl-;Indole-2,3-dione, 5-bromo-1-methyl-;Isatin, 5-bromo-1-methyl-;5-Bromo-1-methyl-1<em>H</em>-indole-2,3-dione;5-Bromo-<em>N</em>-methylisatin;5-Bromo-1-methylisatin;1-Methyl-5-bromoisatin;5-Bromo-1-methylindole-2,3-dione;5-Bromo-1-methylindoline-2,3-dione",
    "duplicated_cas_no": "",
    "SMILES": "O=C1C=2C(N(C)C1=O)=CC=C(Br)C2",
    "meta_data": {
        "InChI": "InChI=1S/C9H6BrNO2/c1-11-7-3-2-5(10)4-6(7)8(12)9(11)13/h2-4H,1H3",
        "InChIKey": null,
        "Canonical SMILES": "O=C1C(=O)N(C2=CC=C(Br)C=C12)C",
        "Molecular Formula": "C<sub>9</sub>H<sub>6</sub>BrNO<sub>2</sub>",
        "Molecular Mass": "240.05",
        "Melting Point": "164 °C"
    }
}