{
    "cas_no": "430-51-3",
    "key_name": "Fluoroacetone",
    "cn_name": "氟代丙酮;氟丙酮;氟代丙酮;",
    "alternate_name": "2-Propanone, 1-fluoro-;2-Propanone, fluoro-;Fluoroacetone;Monofluoroacetone;1-Fluoro-2-propanone;Fluoromethyl methyl ketone;α-Fluoroacetone;NSC 21302",
    "duplicated_cas_no": "",
    "SMILES": "C(CF)(C)=O",
    "meta_data": {
        "InChI": "InChI=1S/C3H5FO/c1-3(5)2-4/h2H2,1H3",
        "InChIKey": null,
        "Canonical SMILES": "O=C(C)CF",
        "Molecular Formula": "C<sub>3</sub>H<sub>5</sub>FO",
        "Molecular Mass": "76.07",
        "Boiling Point": "77 °C",
        "Density": "1.0288 g/cm³ @ Temp: 20 °C"
    }
}