{
    "cas_no": "288-32-4",
    "key_name": "Imidazole",
    "cn_name": "咪唑;",
    "alternate_name": "1<em>H</em>-Imidazole;Imidazole;1,3-Diaza-2,4-cyclopentadiene;1,3-Diazole;Glyoxalin;Glyoxaline;Imidazol;Imutex;Miazole;Methanimidamide, <em>N</em>,<em>N</em>′-1,2-ethenediyl-;NSC 60522;3-Azapyrrole;Curezol SIZ",
    "duplicated_cas_no": "116421-26-2;146117-15-9",
    "SMILES": "C1=CN=CN1",
    "meta_data": {
        "InChI": "InChI=1S/C3H4N2/c1-2-5-3-4-1/h1-3H,(H,4,5)",
        "InChIKey": null,
        "Canonical SMILES": "N=1C=CNC1",
        "Molecular Formula": "C<sub>3</sub>H<sub>4</sub>N<sub>2</sub>",
        "Molecular Mass": "68.08",
        "Boiling Point": "257 °C",
        "Melting Point": "90.5 °C",
        "Density": "1.036 g/cm³ @ Temp: 95.0 °C"
    }
}