{
    "cas_no": "55687-34-8",
    "key_name": "6-Bromo-2(1<em>H</em>)-quinoxalinone",
    "cn_name": null,
    "alternate_name": "2(1<em>H</em>)-Quinoxalinone, 6-bromo-;6-Bromo-2(1<em>H</em>)-quinoxalinone;6-Bromo-2-quinoxalinol;6-Bromoquinoxalin-2(1<em>H</em>)-one;6-Bromo-2-hydroxyquinoxaline;6-Bromo-1<em>H</em>-quinoxalin-2-one",
    "duplicated_cas_no": "",
    "SMILES": "BrC=1C=C2C(NC(=O)C=N2)=CC1",
    "meta_data": {
        "InChI": "InChI=1S/C8H5BrN2O/c9-5-1-2-6-7(3-5)10-4-8(12)11-6/h1-4H,(H,11,12)",
        "InChIKey": null,
        "Canonical SMILES": "O=C1C=NC=2C=C(Br)C=CC2N1",
        "Molecular Formula": "C<sub>8</sub>H<sub>5</sub>BrN<sub>2</sub>O",
        "Molecular Mass": "225.04",
        "Melting Point": "298-300 °C"
    }
}