{
    "cas_no": "120-50-3",
    "key_name": "Isobutyl benzoate",
    "cn_name": "苯甲酸-2-甲基丙酯;苯甲酸异丁酯;",
    "alternate_name": "Benzoic acid, 2-methylpropyl ester;Benzoic acid, isobutyl ester;Isobutyl benzoate;2-Methylpropyl benzoate;Benzoic acid <em>iso</em>-butyl ester;NSC 6580",
    "duplicated_cas_no": "",
    "SMILES": "C(OCC(C)C)(=O)C1=CC=CC=C1",
    "meta_data": {
        "InChI": "InChI=1S/C11H14O2/c1-9(2)8-13-11(12)10-6-4-3-5-7-10/h3-7,9H,8H2,1-2H3",
        "InChIKey": null,
        "Canonical SMILES": "O=C(OCC(C)C)C=1C=CC=CC1",
        "Molecular Formula": "C<sub>11</sub>H<sub>14</sub>O<sub>2</sub>",
        "Molecular Mass": "178.23",
        "Boiling Point": "242 °C",
        "Density": "1.023 g/cm³ @ Temp: 23 °C"
    }
}