{
    "cas_no": "1877-72-1",
    "key_name": "3-Cyanobenzoic acid",
    "cn_name": "3-氰基苯甲酸;",
    "alternate_name": "Benzoic acid, 3-cyano-;Benzoic acid, <em>m</em>-cyano-;3-Cyanobenzoic acid;<em>m</em>-Cyanobenzoic acid;<em>m</em>-Carboxybenzonitrile;3-Carboxybenzonitrile",
    "duplicated_cas_no": "",
    "SMILES": "C(O)(=O)C1=CC(C#N)=CC=C1",
    "meta_data": {
        "InChI": "InChI=1S/C8H5NO2/c9-5-6-2-1-3-7(4-6)8(10)11/h1-4H,(H,10,11)",
        "InChIKey": null,
        "Canonical SMILES": "N#CC1=CC=CC(=C1)C(=O)O",
        "Molecular Formula": "C<sub>8</sub>H<sub>5</sub>NO<sub>2</sub>",
        "Molecular Mass": "147.13",
        "Melting Point": "219 °C"
    }
}