{
    "cas_no": "524-40-3",
    "key_name": "Ricinine",
    "cn_name": "蓖麻?;蓖麻?;",
    "alternate_name": "3-Pyridinecarbonitrile, 1,2-dihydro-4-methoxy-1-methyl-2-oxo-;Ricinine;Nicotinonitrile, 1,2-dihydro-4-methoxy-1-methyl-2-oxo-;1,2-Dihydro-4-methoxy-1-methyl-2-oxo-3-pyridinecarbonitrile;1,2-Dihydro-4-methoxy-1-methyl-2-oxonicotinonitrile;Recinine;Ricinin;NSC 409913;NSC 642604;4-Methoxy-1-methyl-2-oxo-1,2-dihydropyridine-3-carbonitrile",
    "duplicated_cas_no": "",
    "SMILES": "C(#N)C1=C(OC)C=CN(C)C1=O",
    "meta_data": {
        "InChI": "InChI=1S/C8H8N2O2/c1-10-4-3-7(12-2)6(5-9)8(10)11/h3-4H,1-2H3",
        "InChIKey": null,
        "Canonical SMILES": "N#CC1=C(OC)C=CN(C1=O)C",
        "Molecular Formula": "C<sub>8</sub>H<sub>8</sub>N<sub>2</sub>O<sub>2</sub>",
        "Molecular Mass": "164.16",
        "Melting Point": "201.5 °C"
    }
}