{
    "cas_no": "2544-13-0",
    "key_name": "Benzenepropanenitrile, α-amino-3,4-dimethoxy-α-methyl-, hydrochloride (1:1), (α<em>S</em>)-",
    "cn_name": "L-3-(3,4-二甲氧基苯基)-2-氨基-2-甲基丙腈盐酸盐;",
    "alternate_name": "Benzenepropanenitrile, α-amino-3,4-dimethoxy-α-methyl-, hydrochloride (1:1), (α<em>S</em>)-;Hydrocinnamonitrile, α-amino-3,4-dimethoxy-α-methyl-hydrochloride, <span class=\"text-smallcaps\">L</span>-(+)-;Benzenepropanenitrile, α-amino-3,4-dimethoxy-α-methyl-, monohydrochloride, (<em>S</em>)-",
    "duplicated_cas_no": "",
    "SMILES": "O(C)C1=C(OC)C=CC(C[C@](C#N)(C)N)=C1.Cl",
    "meta_data": {
        "InChI": "InChI=1S/C12H16N2O2.ClH/c1-12(14,8-13)7-9-4-5-10(15-2)11(6-9)16-3;/h4-6H,7,14H2,1-3H3;1H/t12-;/m0./s1",
        "InChIKey": null,
        "Canonical SMILES": "Cl.N#CC(N)(C)CC1=CC=C(OC)C(OC)=C1",
        "Molecular Formula": "C<sub>12</sub>H<sub>16</sub>N<sub>2</sub>O<sub>2</sub>.ClH",
        "Molecular Mass": "",
        "Melting Point": "153-155 °C"
    }
}