{
    "cas_no": "154229-19-3",
    "key_name": "Abiraterone",
    "cn_name": "阿比特龙; 17-(3-吡啶基)雄甾-5,16-二烯-3beta-醇;",
    "alternate_name": "Androsta-5,16-dien-3-ol, 17-(3-pyridinyl)-, (3β)-;(3β)-17-(3-Pyridinyl)androsta-5,16-dien-3-ol;CB 7598;Abiraterone;17-(3-Pyridinyl)-androsta-5,16-dien-3β-ol",
    "duplicated_cas_no": "2841402-16-0",
    "SMILES": "C[C@@]12[C@]([C@]3([C@@]([C@]4(C)C(=CC3)C[C@@H](O)CC4)(CC1)[H])[H])(CC=C2C=5C=CC=NC5)[H]",
    "meta_data": {
        "InChI": "InChI=1S/C24H31NO/c1-23-11-9-18(26)14-17(23)5-6-19-21-8-7-20(16-4-3-13-25-15-16)24(21,2)12-10-22(19)23/h3-5,7,13,15,18-19,21-22,26H,6,8-12,14H2,1-2H3/t18-,19-,21-,22-,23-,24+/m0/s1",
        "InChIKey": null,
        "Canonical SMILES": "OC1CC2=CCC3C4CC=C(C=5C=NC=CC5)C4(C)CCC3C2(C)CC1",
        "Molecular Formula": "C<sub>24</sub>H<sub>31</sub>NO",
        "Molecular Mass": "349.51",
        "Melting Point": "227-228 °C"
    }
}