{
    "cas_no": "29976-53-2",
    "key_name": "1-(Ethoxycarbonyl)-4-piperidone",
    "cn_name": "N-乙氧羰基-4-哌啶酮;1-乙氧羰基-4-哌啶酮;",
    "alternate_name": "1-Piperidinecarboxylic acid, 4-oxo-, ethyl ester;Ethyl 4-oxo-1-piperidinecarboxylate;1-Carbethoxy-4-piperidone;1-Ethoxycarbonyl-4-oxopiperidine;1-(Ethoxycarbonyl)-4-piperidone;4-Oxo-1-piperidinecarboxylic acid ethyl ester;1-Ethoxycarbonyl-4-piperidinone;<em>N</em>-Ethoxycarbonyl-4-piperidinone;<em>N</em>-(Ethoxycarbonyl)-4-piperidone;1-(Carboethoxy)-4-piperidone;NSC 139022;<em>N</em>-Carboethoxy-4-piperidone;1-(Carboethoxy)-4-piperidinone;<em>N</em>-Carbethoxy-4-piperidone;<em>N</em>-Carbethoxy-4-piperidinone;1-Carbethoxypiperidin-4-one",
    "duplicated_cas_no": "",
    "SMILES": "C(OCC)(=O)N1CCC(=O)CC1",
    "meta_data": {
        "InChI": "InChI=1S/C8H13NO3/c1-2-12-8(11)9-5-3-7(10)4-6-9/h2-6H2,1H3",
        "InChIKey": null,
        "Canonical SMILES": "O=C(OCC)N1CCC(=O)CC1",
        "Molecular Formula": "C<sub>8</sub>H<sub>13</sub>NO<sub>3</sub>",
        "Molecular Mass": "171.19",
        "Boiling Point": "93-94 °C @ Press: 1 Torr"
    }
}