{
    "cas_no": "22009-38-7",
    "key_name": "3,4-Dihydro-7-hydroxy-1(2<em>H</em>)-naphthalenone",
    "cn_name": "7-羟基-3,4-二氢-2H-1-萘酮;7-羟基-1-四氢萘酮;",
    "alternate_name": "1(2<em>H</em>)-Naphthalenone, 3,4-dihydro-7-hydroxy-;3,4-Dihydro-7-hydroxy-1(2<em>H</em>)-naphthalenone;5,6,7,8-Tetrahydro-8-oxo-2-naphthol;7-Hydroxy-1-tetralone;7-Hydroxy-α-tetralone;3,4-Dihydro-7-hydroxy-1(2<em>H</em>)naphthalenone;7-Hydroxy-3,4-dihydro-1(2<em>H</em>)-naphthalenone;7-Hydroxy-3,4-dihydro-2<em>H</em>-naphthalen-1-one;8-Oxo-5,6,7,8-tetrahydronaphthalen-2-ol;1,2,3,4-Tetrahydro-7-hydroxynaphthyl-1-one;7-Hydroxy-1,2,3,4-tetrahydro-1-naphthalenone;7-Hydrox-3,4-dihydronaphthalen-1(2<em>H</em>)-one",
    "duplicated_cas_no": "",
    "SMILES": "O=C1C=2C(=CC=C(O)C2)CCC1",
    "meta_data": {
        "InChI": "InChI=1S/C10H10O2/c11-8-5-4-7-2-1-3-10(12)9(7)6-8/h4-6,11H,1-3H2",
        "InChIKey": null,
        "Canonical SMILES": "O=C1C2=CC(O)=CC=C2CCC1",
        "Molecular Formula": "C<sub>10</sub>H<sub>10</sub>O<sub>2</sub>",
        "Molecular Mass": "162.19",
        "Boiling Point": "213-215 °C",
        "Melting Point": "166 °C"
    }
}