{
    "cas_no": "14320-38-8",
    "key_name": "3-Cyclopenten-1-ol",
    "cn_name": "3-环戊烯-1-醇;",
    "alternate_name": "3-Cyclopenten-1-ol;1-Cyclopenten-4-ol;4-Cyclopentenol;Cyclopent-3-enyl alcohol;4-Hydroxycyclopentene;NSC 134283",
    "duplicated_cas_no": "",
    "SMILES": "OC1CC=CC1",
    "meta_data": {
        "InChI": "InChI=1S/C5H8O/c6-5-3-1-2-4-5/h1-2,5-6H,3-4H2",
        "InChIKey": null,
        "Canonical SMILES": "OC1CC=CC1",
        "Molecular Formula": "C<sub>5</sub>H<sub>8</sub>O",
        "Molecular Mass": "84.12",
        "Boiling Point": "67-68 °C @ Press: 36 Torr"
    }
}