{
    "cas_no": "152460-09-8",
    "key_name": "<em>N</em>-(2-Methyl-5-nitrophenyl)-4-(3-pyridinyl)-2-pyrimidinamine",
    "cn_name": "N-(2-甲基-5-硝基苯基)-4-(3-吡啶基)-2-嘧啶胺;",
    "alternate_name": "2-Pyrimidinamine, <em>N</em>-(2-methyl-5-nitrophenyl)-4-(3-pyridinyl)-;<em>N</em>-(2-Methyl-5-nitrophenyl)-4-(3-pyridinyl)-2-pyrimidinamine;<em>N</em>-(2-Methyl-5-nitrophenyl)-4-(3-pyridyl)-2-pyrimidineamine;(2-Methyl-5-nitrophenyl)[4-(pyridin-3-yl)pyrimidin-2-yl]amine;<em>N</em>-(2-Methyl-5-nitrophenyl)-4-(pyridin-3-yl)pyrimidin-2-amine;2-methyl-5-nitro-N-[4-(pyridin-3-yl)pyrimidin-2-yl]benzenamine;<em>N</em>-(5-Nitro-2-methylphenyl)-<em>N</em>-[4-(3-pyridyl)pyrimidin-2-yl]amine;<em>N</em>-(5-Nitro-2-methylphenyl)[4-(3-pyridyl)-2-pyrimidinyl]amine",
    "duplicated_cas_no": "",
    "SMILES": "N(C=1N=C(C=CN1)C=2C=CC=NC2)C3=CC(N(=O)=O)=CC=C3C",
    "meta_data": {
        "InChI": "InChI=1S/C16H13N5O2/c1-11-4-5-13(21(22)23)9-15(11)20-16-18-8-6-14(19-16)12-3-2-7-17-10-12/h2-10H,1H3,(H,18,19,20)",
        "InChIKey": null,
        "Canonical SMILES": "O=N(=O)C1=CC=C(C(=C1)NC=2N=CC=C(N2)C3=CN=CC=C3)C",
        "Molecular Formula": "C<sub>16</sub>H<sub>13</sub>N<sub>5</sub>O<sub>2</sub>",
        "Molecular Mass": "307.31",
        "Melting Point": "194-195 °C"
    }
}