{
    "cas_no": "499-61-6",
    "key_name": "2-Amino-1-(3,4-dihydroxyphenyl)ethanone",
    "cn_name": null,
    "alternate_name": "Ethanone, 2-amino-1-(3,4-dihydroxyphenyl)-;Acetophenone, 2-amino-3′,4′-dihydroxy-;2-Amino-1-(3,4-dihydroxyphenyl)ethanone;Arterenone;Noradrenalone;U 0603;Arterenon;2-Amino-3′,4′-dihydroxyacetophenone;2-Amino-1-(3,4-dihydroxyphenyl)ethan-1-one",
    "duplicated_cas_no": "",
    "SMILES": "C(CN)(=O)C1=CC(O)=C(O)C=C1",
    "meta_data": {
        "InChI": "InChI=1S/C8H9NO3/c9-4-8(12)5-1-2-6(10)7(11)3-5/h1-3,10-11H,4,9H2",
        "InChIKey": null,
        "Canonical SMILES": "O=C(C1=CC=C(O)C(O)=C1)CN",
        "Molecular Formula": "C<sub>8</sub>H<sub>9</sub>NO<sub>3</sub>",
        "Molecular Mass": "167.16",
        "Melting Point": "235 °C (decomp)"
    }
}