{
    "cas_no": "102089-74-7",
    "key_name": "1,1-Dimethylethyl <em>N</em>-[(1<em>R</em>)-2-hydroxy-1-phenylethyl]carbamate",
    "cn_name": "Boc-D-苯甘氨醇;(R)-N-叔丁氧羰基-2-苯甘氨醇;",
    "alternate_name": "Carbamic acid, <em>N</em>-[(1<em>R</em>)-2-hydroxy-1-phenylethyl]-, 1,1-dimethylethyl ester;Carbamic acid, (2-hydroxy-1-phenylethyl)-, 1,1-dimethylethyl ester, (<em>R</em>)-;Carbamic acid, [(1<em>R</em>)-2-hydroxy-1-phenylethyl]-, 1,1-dimethylethyl ester;1,1-Dimethylethyl <em>N</em>-[(1<em>R</em>)-2-hydroxy-1-phenylethyl]carbamate;(<em>R</em>)-2-[(<em>N</em>-<em>tert</em>-Butoxycarbonyl)amino]-2-phenylethanol;<em>N</em>-BOC-(<em>R</em>)-phenylglycinol;(<em>R</em>)-1,1-Dimethylethyl (2-hydroxy-1-phenylethyl)carbamate;<em>N</em>-Boc-<span class=\"text-smallcaps\">D</span>-phenylglycinol;(<em>R</em>)-<em>N</em>-(<em>tert</em>-Butoxycarbonyl)-2-phenylglycinol;<em>tert</em>-Butyl ((1<em>R</em>)-2-hydroxy-1-phenylethyl)carbamate;<em>tert</em>-Butyl [(1R)-2-hydroxy-1-phenylethyl]carbamate;(R)-<em>tert</em>-Butyl (2-hydroxy-1-phenylethyl)carbamate;<em>tert</em>-Butyl (<em>R</em>)-(2-hydroxy-1-phenylethyl)carbamate",
    "duplicated_cas_no": "",
    "SMILES": "[C@H](NC(OC(C)(C)C)=O)(CO)C1=CC=CC=C1",
    "meta_data": {
        "InChI": "InChI=1S/C13H19NO3/c1-13(2,3)17-12(16)14-11(9-15)10-7-5-4-6-8-10/h4-8,11,15H,9H2,1-3H3,(H,14,16)/t11-/m0/s1",
        "InChIKey": null,
        "Canonical SMILES": "O=C(OC(C)(C)C)NC(C=1C=CC=CC1)CO",
        "Molecular Formula": "C<sub>13</sub>H<sub>19</sub>NO<sub>3</sub>",
        "Molecular Mass": "237.29",
        "Melting Point": "137-138.5 °C"
    }
}