{
    "cas_no": "540-84-1",
    "key_name": "2,2,4-Trimethylpentane",
    "cn_name": "2,2,4-三甲基戊烷;异辛烷;",
    "alternate_name": "Pentane, 2,2,4-trimethyl-;2,2,4-Trimethylpentane;Isobutyltrimethylmethane;Isooctane;<em>iso</em>-Octane;2,4,4-Trimethylpentane;NSC 39117;Kyowasol C 800",
    "duplicated_cas_no": "31921-36-5",
    "SMILES": "C(C(C)(C)C)C(C)C",
    "meta_data": {
        "InChI": "InChI=1S/C8H18/c1-7(2)6-8(3,4)5/h7H,6H2,1-5H3",
        "InChIKey": null,
        "Canonical SMILES": "CC(C)CC(C)(C)C",
        "Molecular Formula": "C<sub>8</sub>H<sub>18</sub>",
        "Molecular Mass": "114.23",
        "Boiling Point": "99.238 °C",
        "Melting Point": "-107.45 °C",
        "Density": "0.69194 g/cm³ @ Temp: 20 °C"
    }
}