{
    "cas_no": "629-05-0",
    "key_name": "1-Octyne",
    "cn_name": "1-辛炔;",
    "alternate_name": "1-Octyne;1-Octine;Hexylacetylene;<em>n</em>-Hexylacetylene;1-Ethynylhexane",
    "duplicated_cas_no": "",
    "SMILES": "C(CCC#C)CCC",
    "meta_data": {
        "InChI": "InChI=1S/C8H14/c1-3-5-7-8-6-4-2/h1H,4-8H2,2H3",
        "InChIKey": null,
        "Canonical SMILES": "C#CCCCCCC",
        "Molecular Formula": "C<sub>8</sub>H<sub>14</sub>",
        "Molecular Mass": "110.20",
        "Boiling Point": "126.3 °C",
        "Melting Point": "-79.3 °C",
        "Density": "0.7680 g/cm³ @ Temp: 13 °C"
    }
}