{
    "cas_no": "2403-22-7",
    "key_name": "<em>N</em>-Butylbenzylamine",
    "cn_name": "N-丁基苄胺;",
    "alternate_name": "Benzenemethanamine, <em>N</em>-butyl-;Benzylamine, <em>N</em>-butyl-;<em>N</em>-Butylbenzenemethanamine;<em>N</em>-Benzylbutylamine;<em>N</em>-Butylbenzylamine;Benzylbutylamine;Butylbenzylamine;<em>N</em>-Benzyl-1-butanamine;<em>N</em>-Benzyl-<em>N</em>-butylamine;<em>N</em>-Benzyl-1-butylamine;NSC 15681;NSC 32386",
    "duplicated_cas_no": "",
    "SMILES": "C(NCCCC)C1=CC=CC=C1",
    "meta_data": {
        "InChI": "InChI=1S/C11H17N/c1-2-3-9-12-10-11-7-5-4-6-8-11/h4-8,12H,2-3,9-10H2,1H3",
        "InChIKey": null,
        "Canonical SMILES": "C=1C=CC(=CC1)CNCCCC",
        "Molecular Formula": "C<sub>11</sub>H<sub>17</sub>N",
        "Molecular Mass": "163.26",
        "Boiling Point": "87-89 °C",
        "Melting Point": "54-56 °C"
    }
}