{
    "cas_no": "816-79-5",
    "key_name": "3-Ethyl-2-pentene",
    "cn_name": "3-乙基-2-戊烯;2,2-二乙基-1-甲基乙烯;3-亚乙基戊烷;3-乙基-2-戊烯;1,1-二乙-2-甲基乙烯;3-乙-2-戊烯;",
    "alternate_name": "2-Pentene, 3-ethyl-;3-Ethyl-2-pentene;NSC 74144",
    "duplicated_cas_no": "",
    "SMILES": "C(CC)(CC)=CC",
    "meta_data": {
        "InChI": "InChI=1S/C7H14/c1-4-7(5-2)6-3/h4H,5-6H2,1-3H3",
        "InChIKey": null,
        "Canonical SMILES": "C(=C(CC)CC)C",
        "Molecular Formula": "C<sub>7</sub>H<sub>14</sub>",
        "Molecular Mass": "98.19",
        "Boiling Point": "96 °C",
        "Density": "0.7191 g/cm³ @ Temp: 24.45 °C"
    }
}