{
    "cas_no": "32738-09-3",
    "key_name": "5-Methyl-2-thiouridine",
    "cn_name": null,
    "alternate_name": "Uridine, 5-methyl-2-thio-;5-Methyl-2-thiouridine;1-β-<span class=\"text-smallcaps\">D</span>-Ribofuranosyl-2-thiothymine;2-Thioribothymine;2-Thio-5-methyluridine;2-Thioribosylthymine;2-Thioribothymidine",
    "duplicated_cas_no": "",
    "SMILES": "O[C@H]1[C@@H](O[C@H](CO)[C@H]1O)N2C(=S)NC(=O)C(C)=C2",
    "meta_data": {
        "InChI": "InChI=1S/C10H14N2O5S/c1-4-2-12(10(18)11-8(4)16)9-7(15)6(14)5(3-13)17-9/h2,5-7,9,13-15H,3H2,1H3,(H,11,16,18)/t5-,6-,7-,9-/m1/s1",
        "InChIKey": null,
        "Canonical SMILES": "O=C1NC(=S)N(C=C1C)C2OC(CO)C(O)C2O",
        "Molecular Formula": "C<sub>10</sub>H<sub>14</sub>N<sub>2</sub>O<sub>5</sub>S",
        "Molecular Mass": "274.29",
        "Melting Point": "217 °C"
    }
}