{
    "cas_no": "37589-57-4",
    "key_name": "1,1,1,2,2,3,3,4,4,5,5,6,6,7,7,8,8,9,9,10,10,11,11,12,12,13,13,14,14,15,15,16,16,17,17,18,18,19,19,20,20,20-Dotetracontafluoroeicosane",
    "cn_name": null,
    "alternate_name": "Eicosane, 1,1,1,2,2,3,3,4,4,5,5,6,6,7,7,8,8,9,9,10,10,11,11,12,12,13,13,14,14,15,15,16,16,17,17,18,18,19,19,20,20,20-dotetracontafluoro-;Eicosane, dotetracontafluoro-;1,1,1,2,2,3,3,4,4,5,5,6,6,7,7,8,8,9,9,10,10,11,11,12,12,13,13,14,14,15,15,16,16,17,17,18,18,19,19,20,20,20-Dotetracontafluoroeicosane;Perfluoroeicosane",
    "duplicated_cas_no": "",
    "SMILES": "C(C(C(C(C(C(C(C(C(C(C(F)(F)F)(F)F)(F)F)(F)F)(F)F)(F)F)(F)F)(F)F)(F)F)(F)F)(C(C(C(C(C(C(C(C(C(F)(F)F)(F)F)(F)F)(F)F)(F)F)(F)F)(F)F)(F)F)(F)F)(F)F",
    "meta_data": {
        "InChI": "InChI=1S/C20F42/c21-1(22,3(25,26)5(29,30)7(33,34)9(37,38)11(41,42)13(45,46)15(49,50)17(53,54)19(57,58)59)2(23,24)4(27,28)6(31,32)8(35,36)10(39,40)12(43,44)14(47,48)16(51,52)18(55,56)20(60,61)62",
        "InChIKey": null,
        "Canonical SMILES": "FC(F)(F)C(F)(F)C(F)(F)C(F)(F)C(F)(F)C(F)(F)C(F)(F)C(F)(F)C(F)(F)C(F)(F)C(F)(F)C(F)(F)C(F)(F)C(F)(F)C(F)(F)C(F)(F)C(F)(F)C(F)(F)C(F)(F)C(F)(F)F",
        "Molecular Formula": "C<sub>20</sub>F<sub>42</sub>",
        "Molecular Mass": "1038.15",
        "Melting Point": "120 °C"
    }
}