{
    "cas_no": "320-67-2",
    "key_name": "Azacytidine",
    "cn_name": "5-氮杂胞嘧啶核苷;5-氮胞苷;",
    "alternate_name": "1,3,5-Triazin-2(1<em>H</em>)-one, 4-amino-1-β-<span class=\"text-smallcaps\">D</span>-ribofuranosyl-;<em>s</em>-Triazin-2(1<em>H</em>)-one, 4-amino-1-β-<span class=\"text-smallcaps\">D</span>-ribofuranosyl-;4-Amino-1-β-<span class=\"text-smallcaps\">D</span>-ribofuranosyl-1,3,5-triazin-2(1<em>H</em>)-one;Antibiotic U 18496;5-Azacytidine;U 18496;NSC 102816;Azacitidine;Azacytidine;NSC 103-627;5-AZCR;Mylosar;5-AC;WR 183027;5-AzaC;5-AZC;Ladakamycin;Ledakamycin;Vidaza;CC 486;5-Azacitidine;AZA;AZA (azacitidine);Azacitidine (AZA);MeSH ID: D001374",
    "duplicated_cas_no": "52934-49-3;292869-98-8",
    "SMILES": "O[C@H]1[C@@H](O[C@H](CO)[C@H]1O)N2C(=O)N=C(N)N=C2",
    "meta_data": {
        "InChI": "InChI=1S/C8H12N4O5/c9-7-10-2-12(8(16)11-7)6-5(15)4(14)3(1-13)17-6/h2-6,13-15H,1H2,(H2,9,11,16)/t3-,4-,5-,6-/m1/s1",
        "InChIKey": null,
        "Canonical SMILES": "O=C1N=C(N=CN1C2OC(CO)C(O)C2O)N",
        "Molecular Formula": "C<sub>8</sub>H<sub>12</sub>N<sub>4</sub>O<sub>5</sub>",
        "Molecular Mass": "244.20",
        "Melting Point": "228-230 °C (decomp)"
    }
}