{
    "cas_no": "931-17-9",
    "key_name": "1,2-Cyclohexanediol",
    "cn_name": "1,2-环己二醇;",
    "alternate_name": "1,2-Cyclohexanediol;Pyrocatechitol;1,2-Benzenediol, hexahydro-;2-Hydroxycyclohexanol;1,2-Dihydroxycyclohexane;NSC 10110",
    "duplicated_cas_no": "",
    "SMILES": "OC1C(O)CCCC1",
    "meta_data": {
        "InChI": "InChI=1S/C6H12O2/c7-5-3-1-2-4-6(5)8/h5-8H,1-4H2",
        "InChIKey": null,
        "Canonical SMILES": "OC1CCCCC1O",
        "Molecular Formula": "C<sub>6</sub>H<sub>12</sub>O<sub>2</sub>",
        "Molecular Mass": "116.16",
        "Boiling Point": "225 °C",
        "Melting Point": "75-76 °C",
        "Density": "0.9482 g/cm³ @ Temp: 20 °C"
    }
}