{
    "cas_no": "24307-26-4",
    "key_name": "Mepiquat chloride",
    "cn_name": "缩节胺;甲哌鎓;甲哌啶;1,1-二甲基哌啶鎓氯化物;",
    "alternate_name": "Piperidinium, 1,1-dimethyl-, chloride (1:1);Piperidinium, 1,1-dimethyl-, chloride;1,1-Dimethylpiperidinium chloride;<em>N</em>,<em>N</em>-Dimethylpiperidinium chloride;BAS 85559X;BAS 083;Pix;Mepiquat chloride;BAS 08301W;CDP;Dimethylpiperidinium chloride;Pix Ultra;Megahix;Mepichlor;Mepex",
    "duplicated_cas_no": "",
    "SMILES": "C[N+]1(C)CCCCC1.[Cl-]",
    "meta_data": {
        "InChI": "InChI=1S/C7H16N.ClH/c1-8(2)6-4-3-5-7-8;/h3-7H2,1-2H3;1H/q+1;/p-1",
        "InChIKey": null,
        "Canonical SMILES": "[Cl-].C[N+]1(C)CCCCC1",
        "Molecular Formula": "C<sub>7</sub>H<sub>16</sub>N.Cl",
        "Molecular Mass": "",
        "Boiling Point": "106 °C",
        "Melting Point": "223 °C"
    }
}