{
    "cas_no": "353-50-4",
    "key_name": "Carbonyl fluoride",
    "cn_name": "氟光气;氟光气;羰基氟;碳酰氟;氟氧化碳;氟化羰基;氧氟化碳;",
    "alternate_name": "Carbonic difluoride;Carbonyl fluoride;Carbon oxyfluoride;Carbonyl difluoride;Fluorophosgene;Carbonyl fluoride (COF<sub>2</sub>);Difluoroformaldehyde;Fluoroformyl fluoride;Carbon fluoride oxide (COF<sub>2</sub>);Carbon oxyfluoride (COF<sub>2</sub>);Carbon difluoride oxide;Carbonyl difluoride (COF<sub>2</sub>);Difluorooxomethane;Difluorophosgene",
    "duplicated_cas_no": "",
    "SMILES": "C(F)(F)=O",
    "meta_data": {
        "InChI": "InChI=1S/CF2O/c2-1(3)4",
        "InChIKey": null,
        "Canonical SMILES": "O=C(F)F",
        "Molecular Formula": "CF<sub>2</sub>O",
        "Molecular Mass": "66.01",
        "Boiling Point": "-84.57 °C",
        "Melting Point": "-111.26 °C",
        "Density": "2.8959999999999997 x 10<sup>-3</sup> g/cm³"
    }
}