{
    "cas_no": "63492-69-3",
    "key_name": "Lithospermoside",
    "cn_name": null,
    "alternate_name": "Acetonitrile, 2-[(4<em>R</em>,5<em>S</em>,6<em>S</em>)-6-(β-<span class=\"text-smallcaps\">D</span>-glucopyranosyloxy)-4,5-dihydroxy-2-cyclohexen-1-ylidene]-, (2<em>Z</em>)-;Acetonitrile, [6-(β-<span class=\"text-smallcaps\">D</span>-glucopyranosyloxy)-4,5-dihydroxy-2-cyclohexen-1-ylidene]-, [4<em>R</em>-(1<em>Z</em>,4α,5β,6α)]-;Acetonitrile, [(4<em>R</em>,5<em>S</em>,6<em>S</em>)-6-(β-<span class=\"text-smallcaps\">D</span>-glucopyranosyloxy)-4,5-dihydroxy-2-cyclohexen-1-ylidene]-, (2<em>Z</em>)-;(2<em>Z</em>)-2-[(4<em>R</em>,5<em>S</em>,6<em>S</em>)-6-(β-<span class=\"text-smallcaps\">D</span>-Glucopyranosyloxy)-4,5-dihydroxy-2-cyclohexen-1-ylidene]acetonitrile;Lithospermoside;Griffonin;NSC 290807",
    "duplicated_cas_no": "62896-23-5",
    "SMILES": "O([C@H]1/C(=C\\C#N)/C=C[C@@H](O)[C@@H]1O)[C@@H]2O[C@H](CO)[C@@H](O)[C@H](O)[C@H]2O",
    "meta_data": {
        "InChI": "InChI=1S/C14H19NO8/c15-4-3-6-1-2-7(17)9(18)13(6)23-14-12(21)11(20)10(19)8(5-16)22-14/h1-3,7-14,16-21H,5H2/b6-3-/t7-,8-,9+,10-,11+,12-,13+,14+/m1/s1",
        "InChIKey": null,
        "Canonical SMILES": "N#CC=C1C=CC(O)C(O)C1OC2OC(CO)C(O)C(O)C2O",
        "Molecular Formula": "C<sub>14</sub>H<sub>19</sub>NO<sub>8</sub>",
        "Molecular Mass": "329.30",
        "Melting Point": "271 °C (decomp)"
    }
}