{
    "cas_no": "1314-98-3",
    "key_name": "Zinc sulfide",
    "cn_name": null,
    "alternate_name": "Zinc sulfide (ZnS);Zinc sulfide;Albalith;Zinc monosulfide;Irtran 2;Sachtolith HD-S;Sachtolith;C.I. Pigment White 7;Cleartran;Pigment White 7;KV 1;KV 2;HD-S;Sachtolith L;FV 40-1;Zinc(II) sulfide;FV 40-1 (sulfide);Sachtolith HD;C.I. Pigment Black 17;Pigment Black 17;C.I. 77975;Litopone L;RAK-LC;RAK-S;ZNI 08PB;RAK-N;Sachtolith HD-L;Sachtotec MD 300;UPL 10478;AM-ZnS 001-1;GWZ 300;Shepherd Black 10P922;XH-ZnS 500;XH-ZnS 001;XH-ZnS 003",
    "duplicated_cas_no": "37187-67-0;64334-34-5;209065-88-3;714217-01-3;2247447-30-7;2488818-01-3;2749963-11-7",
    "SMILES": "S=[Zn]",
    "meta_data": {
        "InChI": "InChI=1S/S.Zn",
        "InChIKey": null,
        "Canonical SMILES": "S=[Zn]",
        "Molecular Formula": "SZn",
        "Molecular Mass": "",
        "Melting Point": "1700 °C",
        "Density": "4.32 g/cm³"
    }
}