{
    "cas_no": "22041-19-6",
    "key_name": "1-Pyrrolidineacetic acid, ethyl ester",
    "cn_name": "吡咯烷乙酸乙酯;",
    "alternate_name": "1-Pyrrolidineacetic acid, ethyl ester;Ethyl <em>N</em>-pyrrolidinylacetate;Ethyl 1-pyrrolidineacetate;Ethyl 2-(pyrrolidin-1-yl)acetate",
    "duplicated_cas_no": "",
    "SMILES": "C(C(OCC)=O)N1CCCC1",
    "meta_data": {
        "InChI": "InChI=1S/C8H15NO2/c1-2-11-8(10)7-9-5-3-4-6-9/h2-7H2,1H3",
        "InChIKey": null,
        "Canonical SMILES": "O=C(OCC)CN1CCCC1",
        "Molecular Formula": "C<sub>8</sub>H<sub>15</sub>NO<sub>2</sub>",
        "Molecular Mass": "157.21",
        "Boiling Point": "59-59.5 °C"
    }
}