{
    "cas_no": "1940-42-7",
    "key_name": "4-Bromo-2,5-dichlorophenol",
    "cn_name": "4-溴-2,5-二氯苯酚;",
    "alternate_name": "Phenol, 4-bromo-2,5-dichloro-;4-Bromo-2,5-dichlorophenol;2,5-Dichloro-4-bromophenol;Phosvel phenol;Leptophos phenol",
    "duplicated_cas_no": "",
    "SMILES": "BrC1=C(Cl)C=C(O)C(Cl)=C1",
    "meta_data": {
        "InChI": "InChI=1S/C6H3BrCl2O/c7-3-1-5(9)6(10)2-4(3)8/h1-2,10H",
        "InChIKey": null,
        "Canonical SMILES": "ClC1=CC(O)=C(Cl)C=C1Br",
        "Molecular Formula": "C<sub>6</sub>H<sub>3</sub>BrCl<sub>2</sub>O",
        "Molecular Mass": "241.90",
        "Melting Point": "71-72 °C"
    }
}