{
    "cas_no": "6642-30-4",
    "key_name": "Carbamic acid, <em>N</em>-methyl-, methyl ester",
    "cn_name": null,
    "alternate_name": "Carbamic acid, <em>N</em>-methyl-, methyl ester;Carbamic acid, methyl-, methyl ester;Methyl <em>N</em>-methylcarbamate;Methyl methylcarbamate;NSC 15396",
    "duplicated_cas_no": "12707-37-8",
    "SMILES": "C(NC)(OC)=O",
    "meta_data": {
        "InChI": "InChI=1S/C3H7NO2/c1-4-3(5)6-2/h1-2H3,(H,4,5)",
        "InChIKey": null,
        "Canonical SMILES": "O=C(OC)NC",
        "Molecular Formula": "C<sub>3</sub>H<sub>7</sub>NO<sub>2</sub>",
        "Molecular Mass": "89.09",
        "Boiling Point": "68 °C @ Press: 17 Torr",
        "Melting Point": "173-176 °C",
        "Density": "1.05 g/cm³ @ Temp: 21.9 °C"
    }
}