{
    "cas_no": "31770-95-3",
    "key_name": "5-(Methylsulfonyl)-6-nitro-2(3<em>H</em>)-benzoxazolone",
    "cn_name": "5-甲砜基-6-硝基-2(3H)-苯并恶唑酮;",
    "alternate_name": "2(3<em>H</em>)-Benzoxazolone, 5-(methylsulfonyl)-6-nitro-;2-Benzoxazolinone, 5-(methylsulfonyl)-6-nitro-;5-(Methylsulfonyl)-6-nitro-2(3<em>H</em>)-benzoxazolone",
    "duplicated_cas_no": "",
    "SMILES": "N(=O)(=O)C=1C=C2C(=CC1S(C)(=O)=O)NC(=O)O2",
    "meta_data": {
        "InChI": "InChI=1S/C8H6N2O6S/c1-17(14,15)7-2-4-6(16-8(11)9-4)3-5(7)10(12)13/h2-3H,1H3,(H,9,11)",
        "InChIKey": null,
        "Canonical SMILES": "O=C1OC=2C=C(C(=CC2N1)S(=O)(=O)C)N(=O)=O",
        "Molecular Formula": "C<sub>8</sub>H<sub>6</sub>N<sub>2</sub>O<sub>6</sub>S",
        "Molecular Mass": "258.21",
        "Melting Point": "264 °C (decomp)"
    }
}