{
    "cas_no": "1847-63-8",
    "key_name": "Nafoxidine hydrochloride",
    "cn_name": null,
    "alternate_name": "Pyrrolidine, 1-[2-[4-(3,4-dihydro-6-methoxy-2-phenyl-1-naphthalenyl)phenoxy]ethyl]-, hydrochloride (1:1);Pyrrolidine, 1-[2-[<em>p</em>-(3,4-dihydro-6-methoxy-2-phenyl-1-naphthyl)phenoxy]ethyl]-, hydrochloride;Pyrrolidine, 1-[2-[4-(3,4-dihydro-6-methoxy-2-phenyl-1-naphthalenyl)phenoxy]ethyl]-, hydrochloride;U 11100A;1-[2-[<em>p</em>-(3,4-Dihydro-6-methoxy-2-phenyl-1-naphthyl)phenoxy]ethyl]pyrrolidine hydrochloride;Nafoxidine hydrochloride;U 11100;11100A;NSC 70735",
    "duplicated_cas_no": "",
    "SMILES": "O(C)C=1C=C2C(C(=C(CC2)C3=CC=CC=C3)C4=CC=C(OCCN5CCCC5)C=C4)=CC1.Cl",
    "meta_data": {
        "InChI": "InChI=1S/C29H31NO2.ClH/c1-31-26-14-16-28-24(21-26)11-15-27(22-7-3-2-4-8-22)29(28)23-9-12-25(13-10-23)32-20-19-30-17-5-6-18-30;/h2-4,7-10,12-14,16,21H,5-6,11,15,17-20H2,1H3;1H",
        "InChIKey": null,
        "Canonical SMILES": "Cl.O(C=1C=CC2=C(C1)CCC(C=3C=CC=CC3)=C2C=4C=CC(OCCN5CCCC5)=CC4)C",
        "Molecular Formula": "C<sub>29</sub>H<sub>31</sub>NO<sub>2</sub>.ClH",
        "Molecular Mass": "",
        "Melting Point": "165-168 °C"
    }
}