{
    "cas_no": "18035-74-0",
    "key_name": "1,1′-(Dichlorosilylene)bis[cyclohexane]",
    "cn_name": null,
    "alternate_name": "Cyclohexane, 1,1′-(dichlorosilylene)bis-;Silane, dichlorodicyclohexyl-;1,1′-(Dichlorosilylene)bis[cyclohexane];Dicyclohexyldichlorosilane",
    "duplicated_cas_no": "",
    "SMILES": "[Si](Cl)(Cl)(C1CCCCC1)C2CCCCC2",
    "meta_data": {
        "InChI": "InChI=1S/C12H22Cl2Si/c13-15(14,11-7-3-1-4-8-11)12-9-5-2-6-10-12/h11-12H,1-10H2",
        "InChIKey": null,
        "Canonical SMILES": "Cl[Si](Cl)(C1CCCCC1)C2CCCCC2",
        "Molecular Formula": "C<sub>12</sub>H<sub>22</sub>Cl<sub>2</sub>Si",
        "Molecular Mass": "265.29",
        "Boiling Point": "123 °C @ Press: 0.4 Torr",
        "Density": "1.103 g/cm³"
    }
}