{
    "cas_no": "477-85-0",
    "key_name": "Obtusifolin",
    "cn_name": "决明蒽醌;决明蒽醌;",
    "alternate_name": "9,10-Anthracenedione, 2,8-dihydroxy-1-methoxy-3-methyl-;Anthraquinone, 2,8-dihydroxy-1-methoxy-3-methyl-;2,8-Dihydroxy-1-methoxy-3-methyl-9,10-anthracenedione;Obtusifolin (anthraquinone);Obtusifolin;Obtusifoline",
    "duplicated_cas_no": "",
    "SMILES": "O(C)C1=C2C(C(=O)C=3C(C2=O)=C(O)C=CC3)=CC(C)=C1O",
    "meta_data": {
        "InChI": "InChI=1S/C16H12O5/c1-7-6-9-12(16(21-2)13(7)18)15(20)11-8(14(9)19)4-3-5-10(11)17/h3-6,17-18H,1-2H3",
        "InChIKey": null,
        "Canonical SMILES": "O=C1C=2C=CC=C(O)C2C(=O)C=3C(OC)=C(O)C(=CC13)C",
        "Molecular Formula": "C<sub>16</sub>H<sub>12</sub>O<sub>5</sub>",
        "Molecular Mass": "284.26",
        "Melting Point": "242-243 °C"
    }
}