{
    "cas_no": "87-39-8",
    "key_name": "Violuric acid",
    "cn_name": null,
    "alternate_name": "2,4,5,6(1<em>H</em>,3<em>H</em>)-Pyrimidinetetrone, 5-oxime;Violuric acid;Alloxan, 5-oxime;5-Isonitrosobarbituric acid;5-(Hydroxyimino)barbituric acid;NSC 56338;VLA",
    "duplicated_cas_no": "859069-54-8;952005-34-4",
    "SMILES": "N(O)=C1C(=O)NC(=O)NC1=O",
    "meta_data": {
        "InChI": "InChI=1S/C4H3N3O4/c8-2-1(7-11)3(9)6-4(10)5-2/h11H,(H2,5,6,8,9,10)",
        "InChIKey": null,
        "Canonical SMILES": "O=C1NC(=O)C(=NO)C(=O)N1",
        "Molecular Formula": "C<sub>4</sub>H<sub>3</sub>N<sub>3</sub>O<sub>4</sub>",
        "Molecular Mass": "157.08",
        "Melting Point": "203.5 °C (decomp)"
    }
}