{
    "cas_no": "14315-14-1",
    "key_name": "5-Methylbenzo[<em>b</em>]thiophene",
    "cn_name": "5-甲基苯并噻吩;",
    "alternate_name": "Benzo[<em>b</em>]thiophene, 5-methyl-;5-Methylbenzo[<em>b</em>]thiophene;5-Methylbenzothiophene;5-Methyl-1-benzothiophene",
    "duplicated_cas_no": "",
    "SMILES": "CC=1C=C2C(=CC1)SC=C2",
    "meta_data": {
        "InChI": "InChI=1S/C9H8S/c1-7-2-3-9-8(6-7)4-5-10-9/h2-6H,1H3",
        "InChIKey": null,
        "Canonical SMILES": "S1C=CC=2C=C(C=CC12)C",
        "Molecular Formula": "C<sub>9</sub>H<sub>8</sub>S",
        "Molecular Mass": "148.22",
        "Boiling Point": "105-110 °C @ Press: 3 Torr",
        "Melting Point": "20.5 °C"
    }
}