{
    "cas_no": "10294-70-9",
    "key_name": "Tin iodide (SnI<sub>2</sub>)",
    "cn_name": "碘化亚锡;二碘化锡;无水碘化锡(II);",
    "alternate_name": "Tin iodide (SnI<sub>2</sub>);Stannous iodide;Tin diiodide;Stannous diiodide;Diiodotin;Tin(II) iodide",
    "duplicated_cas_no": "12358-89-3;19496-16-3",
    "SMILES": "[Sn](I)I",
    "meta_data": {
        "InChI": "InChI=1S/2HI.Sn/h2*1H;/q;;+2/p-2",
        "InChIKey": null,
        "Canonical SMILES": "I[Sn]I",
        "Molecular Formula": "I<sub>2</sub>Sn",
        "Molecular Mass": "",
        "Boiling Point": "717 °C",
        "Melting Point": "320 °C",
        "Density": "5.285 g/cm³"
    }
}