{
    "cas_no": "28279-49-4",
    "key_name": "6-Bromo-3<em>H</em>-imidazo[4,5-<em>b</em>]pyridine",
    "cn_name": "6-溴-4氢-咪唑并[4,5-B]吡啶;",
    "alternate_name": "3<em>H</em>-Imidazo[4,5-<em>b</em>]pyridine, 6-bromo-;1<em>H</em>-Imidazo[4,5-<em>b</em>]pyridine, 6-bromo-;Imidazo[4,5-<em>b</em>]pyridine, 6-bromo-;6-Bromo-3<em>H</em>-imidazo[4,5-<em>b</em>]pyridine;6-Bromo-4-azabenzimidazole;6-Bromo-1<em>H</em>-imidazo[4,5-<em>b</em>]pyridine",
    "duplicated_cas_no": "",
    "SMILES": "BrC=1C=C2C(=NC1)N=CN2",
    "meta_data": {
        "InChI": "InChI=1S/C6H4BrN3/c7-4-1-5-6(8-2-4)10-3-9-5/h1-3H,(H,8,9,10)",
        "InChIKey": null,
        "Canonical SMILES": "BrC=1C=NC=2N=CNC2C1",
        "Molecular Formula": "C<sub>6</sub>H<sub>4</sub>BrN<sub>3</sub>",
        "Molecular Mass": "198.02",
        "Melting Point": "227-228 °C"
    }
}