{
    "cas_no": "78-53-5",
    "key_name": "Amiton",
    "cn_name": "胺吸磷;胺吸磷;S-[2-(二乙氨基)乙基]O，O-二乙基硫赶磷酸酯;",
    "alternate_name": "Phosphorothioic acid, <em>S</em>-[2-(diethylamino)ethyl] <em>O</em>,<em>O</em>-diethyl ester;R 5158;Amiton;<em>O</em>,<em>O</em>-Diethyl S-2-diethylaminoethyl phosphorothioate;DSDP;Inferno;Metramac;<em>O</em>,<em>O</em>-Diethyl <em>S</em>-2-diethylaminoethyl phosphorothiolate;<em>S</em>-(Diethylaminoethyl) <em>O</em>,<em>O</em>-diethyl phosphorothioate;VG;VG (chemical warfare agent);VG nerve agent",
    "duplicated_cas_no": "102388-58-9",
    "SMILES": "P(SCCN(CC)CC)(OCC)(OCC)=O",
    "meta_data": {
        "InChI": "InChI=1S/C10H24NO3PS/c1-5-11(6-2)9-10-16-15(12,13-7-3)14-8-4/h5-10H2,1-4H3",
        "InChIKey": null,
        "Canonical SMILES": "O=P(OCC)(OCC)SCCN(CC)CC",
        "Molecular Formula": "C<sub>10</sub>H<sub>24</sub>NO<sub>3</sub>PS",
        "Molecular Mass": "269.34",
        "Boiling Point": "110 °C @ Press: 0.2 Torr",
        "Melting Point": "&lt;25 °C",
        "Density": "1.044 g/cm³ (liquid) @ Temp: 20.000 °C"
    }
}