{
    "cas_no": "7677-24-9",
    "key_name": "Trimethylsilyl cyanide",
    "cn_name": "三甲基氰硅烷;三甲基硅烷基氰;三甲基硅化腈;",
    "alternate_name": "Silanecarbonitrile, trimethyl-;Silane, cyanotrimethyl-;Trimethylsilanecarbonitrile;Trimethylsilyl cyanide;Cyanotrimethylsilane;Trimethylcyanosilane;Trimethylsilylcarbonitrile;Trimethylsilyl nitrile;Trimethylsilylformonitrile",
    "duplicated_cas_no": "",
    "SMILES": "[Si](C#N)(C)(C)C",
    "meta_data": {
        "InChI": "InChI=1S/C4H9NSi/c1-6(2,3)4-5/h1-3H3",
        "InChIKey": null,
        "Canonical SMILES": "N#C[Si](C)(C)C",
        "Molecular Formula": "C<sub>4</sub>H<sub>9</sub>NSi",
        "Molecular Mass": "99.21",
        "Boiling Point": "118-119 °C",
        "Melting Point": "11-12 °C",
        "Density": "0.744 g/cm³"
    }
}