{
    "cas_no": "10045-45-1",
    "key_name": "1-EBIO",
    "cn_name": "1-EBIO;",
    "alternate_name": "2<em>H</em>-Benzimidazol-2-one, 1-ethyl-1,3-dihydro-;2-Benzimidazolinone, 1-ethyl-;1-Ethyl-1,3-dihydro-2<em>H</em>-benzimidazol-2-one;1-Ethylbenzimidazolinone;3-Ethyl-2-benzimidazolinone;1-Ethyl-1,3-dihydrobenzimidazol-2-one;1-Ethyl-2-oxo-2,3-dihydrobenzimidazole;1-Ethylbenzimidazolin-2-one;1-EBIO;1-Ethyl-2,3-dihydro-1<em>H</em>-1,3-benzodiazol-2-one;3-Ethyl-1<em>H</em>-benzimidazol-2-one",
    "duplicated_cas_no": "",
    "SMILES": "C(C)N1C=2C(NC1=O)=CC=CC2",
    "meta_data": {
        "InChI": "InChI=1S/C9H10N2O/c1-2-11-8-6-4-3-5-7(8)10-9(11)12/h3-6H,2H2,1H3,(H,10,12)",
        "InChIKey": null,
        "Canonical SMILES": "O=C1NC=2C=CC=CC2N1CC",
        "Molecular Formula": "C<sub>9</sub>H<sub>10</sub>N<sub>2</sub>O",
        "Molecular Mass": "162.19",
        "Melting Point": "118-120 °C"
    }
}