{
    "cas_no": "51415-02-2",
    "key_name": "Chikusetsusaponin IV<sub>a</sub>",
    "cn_name": null,
    "alternate_name": "β-<span class=\"text-smallcaps\">D</smallcap>-Glucopyranosiduronic acid, (3β)-28-(β-<smallcap>D</span>-glucopyranosyloxy)-28-oxoolean-12-en-3-yl;Oleanane, β-<span class=\"text-smallcaps\">D</span>-glucopyranosiduronic acid deriv.;(3β)-28-(β-<span class=\"text-smallcaps\">D</smallcap>-Glucopyranosyloxy)-28-oxoolean-12-en-3-yl β-<smallcap>D</span>-glucopyranosiduronic acid;Calenduloside F;Chikusetsusaponin IV<sub>a</sub>;Silphioside G;Momordin IIb;Oleanolic acid 3-<em>O</em>-[β-<span class=\"text-smallcaps\">D</smallcap>-glucuronopyranosyl]-28-<em>O</em>-β-<smallcap>D</span>-glucopyranoside;3-<em>O</em>-β-<span class=\"text-smallcaps\">D</smallcap>-Glucuronopyranosyl)oleanolic acid 28-<em>O</em>-β-<smallcap>D</span>-glucopyranoside;Chikusetsusaponin;3-<em>O</em>-β-<span class=\"text-smallcaps\">D</smallcap>-Glucuronopyranosyloleanolic acid 28-<em>O</em>-β-<smallcap>D</span>-glucopyranoside",
    "duplicated_cas_no": "90452-95-2;131119-00-1;1859121-73-5;2087499-23-6;2160572-96-1",
    "SMILES": "C(O[C@@H]1O[C@H](CO)[C@@H](O)[C@H](O)[C@H]1O)(=O)[C@]23[C@](C=4[C@@](C)(CC2)[C@@]5(C)[C@](CC4)([C@]6(C)[C@@](CC5)(C(C)(C)[C@@H](O[C@@H]7O[C@H](C(O)=O)[C@@H](O)[C@H](O)[C@H]7O)CC6)[H])[H])(CC(C)(C)CC3)[H]",
    "meta_data": {
        "InChI": "InChI=1S/C42H66O14/c1-37(2)14-16-42(36(52)56-34-30(48)27(45)26(44)22(19-43)53-34)17-15-40(6)20(21(42)18-37)8-9-24-39(5)12-11-25(38(3,4)23(39)10-13-41(24,40)7)54-35-31(49)28(46)29(47)32(55-35)33(50)51/h8,21-32,34-35,43-49H,9-19H2,1-7H3,(H,50,51)/t21-,22+,23-,24+,25-,26+,27-,28-,29-,30+,31+,32-,34-,35+,39-,40+,41+,42-/m0/s1",
        "InChIKey": null,
        "Canonical SMILES": "O=C(O)C1OC(OC2CCC3(C)C(CCC4(C)C3CC=C5C6CC(C)(C)CCC6(C(=O)OC7OC(CO)C(O)C(O)C7O)CCC54C)C2(C)C)C(O)C(O)C1O",
        "Molecular Formula": "C<sub>42</sub>H<sub>66</sub>O<sub>14</sub>",
        "Molecular Mass": "794.97",
        "Melting Point": "197-199 °C (decomp)"
    }
}