{
    "cas_no": "22607-75-6",
    "key_name": "4-Azatricyclo[4.3.1.1<sup>3,8</sup>]undecan-5-one",
    "cn_name": "4-杂氮三环[4.3.1.13,8]十一烷-5-酮;",
    "alternate_name": "4-Azatricyclo[4.3.1.1<sup>3,8</sup>]undecan-5-one;4-Azahomoadamantan-5-one;NSC 145164",
    "duplicated_cas_no": "",
    "SMILES": "O=C1C2CC3CC(C2)CC(N1)C3",
    "meta_data": {
        "InChI": "InChI=1S/C10H15NO/c12-10-8-2-6-1-7(3-8)5-9(4-6)11-10/h6-9H,1-5H2,(H,11,12)",
        "InChIKey": null,
        "Canonical SMILES": "O=C1NC2CC3CC1CC(C2)C3",
        "Molecular Formula": "C<sub>10</sub>H<sub>15</sub>NO",
        "Molecular Mass": "165.23",
        "Melting Point": "309-310 °C"
    }
}