{
    "cas_no": "108-53-2",
    "key_name": "Isocytosine",
    "cn_name": "异胞嘧啶;2-氨基-4-羟基嘧啶;",
    "alternate_name": "4(1<em>H</em>)-Pyrimidinone, 2-amino-;Isocytosine;2-Amino-4(1<em>H</em>)-pyrimidinone;2-Amino-4-pyrimidone;2-Amino-4-pyrimidinol;2-Amino-4-hydroxypyrimidine;2-Aminouracil;NSC 49118;2-Aminopyrimidin-4(3<em>H</em>)-one;2-Amino-3,4-dihydropyrimidin-4-one;2-Amino-6-hydroxypyrimidine;2-Amino-1<em>H</em>-pyrimidin-4-one;2-Amino-1,4-dihydropyrimidin-4-one;2-Amino-1<em>H</em>-pyrimidin-6-one",
    "duplicated_cas_no": "100643-26-3;107646-86-6;131285-40-0;674-97-5;823-21-2;176772-97-7",
    "SMILES": "O=C1NC(N)=NC=C1",
    "meta_data": {
        "InChI": "InChI=1S/C4H5N3O/c5-4-6-2-1-3(8)7-4/h1-2H,(H3,5,6,7,8)",
        "InChIKey": null,
        "Canonical SMILES": "O=C1C=CN=C(N)N1",
        "Molecular Formula": "C<sub>4</sub>H<sub>5</sub>N<sub>3</sub>O",
        "Molecular Mass": "111.10",
        "Melting Point": "264 °C"
    }
}