{
    "cas_no": "18480-07-4",
    "key_name": "Strontium hydroxide",
    "cn_name": "氢氧化锶;",
    "alternate_name": "Strontium hydroxide (Sr(OH)<sub>2</sub>);Strontium hydroxide;Strontium dihydroxide;Strontium(II) hydroxide",
    "duplicated_cas_no": "12026-25-4",
    "SMILES": "[Sr](O)O",
    "meta_data": {
        "InChI": "InChI=1S/2H2O.Sr/h2*1H2;/q;;+2/p-2",
        "InChIKey": null,
        "Canonical SMILES": "O[Sr]O",
        "Molecular Formula": "H<sub>2</sub>O<sub>2</sub>Sr",
        "Molecular Mass": "",
        "Melting Point": "535 °C"
    }
}