{
    "cas_no": "3338-34-9",
    "key_name": "<span class=\"text-smallcaps\">L</span>-Lysine, <em>N</em><sup>6</sup>-[(1,1-dimethylethoxy)carbonyl]-<em>N</em><sup>2</sup>-[(phenylmethoxy)carbonyl]-, 2,5-dioxo-1-pyrrolidinyl ester",
    "cn_name": null,
    "alternate_name": "<span class=\"text-smallcaps\">L</span>-Lysine, <em>N</em><sup>6</sup>-[(1,1-dimethylethoxy)carbonyl]-<em>N</em><sup>2</sup>-[(phenylmethoxy)carbonyl]-, 2,5-dioxo-1-pyrrolidinyl ester;Succinimide, <em>N</em>-[(<em>N</em><sup>2</sup>,<em>N</em><sup>6</sup>-dicarboxy-<span class=\"text-smallcaps\">L</span>-lysyl)oxy]-, <em>N</em><sup>2</sup>-benzyl <em>tert</em>-butyl ester;Carbamic acid, [5-[[(1,1-dimethylethoxy)carbonyl]amino]-1-[[(2,5-dioxo-1-pyrrolidinyl)oxy]carbonyl]pentyl]-, phenylmethyl ester, (<em>S</em>)-;Succinimide, <em>N</em>-[(<em>N</em><sup>2</sup>,<em>N</em><sup>6</sup>-dicarboxy-<span class=\"text-smallcaps\">L</span>-lysyl)oxy]-, <em>N</em><sup>2</sup>-benzyl <em>N</em><sup>6</sup>-<em>tert</em>-butyl ester;Carbamic acid, [(1<em>S</em>)-5-[[(1,1-dimethylethoxy)carbonyl]amino]-1-[[(2,5-dioxo-1-pyrrolidinyl)oxy]carbonyl]pentyl]-, phenylmethyl ester;Lysine, <em>N</em><sup>2</sup>,<em>N</em><sup>6</sup>-dicarboxy-, <em>N</em><sup>2</sup>-benzyl <em>N</em><sup>6</sup>-<em>tert</em>-butyl ester, succinimido deriv., <span class=\"text-smallcaps\">L</span>-;<em>N</em>-(α)-Benzyloxycarbonyl-<em>N</em>-(ε)-<em>tert</em>-butoxycarbonyl-<span class=\"text-smallcaps\">L</span>-lysine succinimido ester;NSC 334373;(2,5-Dioxopyrrolidin-1-yl) (2S)-6-[(2-methylpropan-2-yl)oxycarbonylamino]-2-(phenylmethoxycarbonylamino)hexanoate",
    "duplicated_cas_no": "",
    "SMILES": "O(C([C@@H](NC(OCC1=CC=CC=C1)=O)CCCCNC(OC(C)(C)C)=O)=O)N2C(=O)CCC2=O",
    "meta_data": {
        "InChI": "InChI=1S/C23H31N3O8/c1-23(2,3)33-21(30)24-14-8-7-11-17(20(29)34-26-18(27)12-13-19(26)28)25-22(31)32-15-16-9-5-4-6-10-16/h4-6,9-10,17H,7-8,11-15H2,1-3H3,(H,24,30)(H,25,31)/t17-/m0/s1",
        "InChIKey": null,
        "Canonical SMILES": "O=C(OCC=1C=CC=CC1)NC(C(=O)ON2C(=O)CCC2=O)CCCCNC(=O)OC(C)(C)C",
        "Molecular Formula": "C<sub>23</sub>H<sub>31</sub>N<sub>3</sub>O<sub>8</sub>",
        "Molecular Mass": "477.51",
        "Melting Point": "98-101 °C"
    }
}