{
    "cas_no": "2032-75-9",
    "key_name": "2,2-Dichloro-1,3-benzodioxole",
    "cn_name": null,
    "alternate_name": "1,3-Benzodioxole, 2,2-dichloro-;Benzene, 1,2-[(dichloromethylene)dioxy]-;2,2-Dichloro-1,3-benzodioxole;Pyrocatechol dichloromethylene acetal;2,2-Dichlorobenzodioxole;2,2-Dichlorobenzodioxolane;2,2-Dichlorobenzo[1,3]dioxol;2,2-Dichloro-2<em>H</em>-1,3-benzodioxole",
    "duplicated_cas_no": "",
    "SMILES": "ClC1(Cl)OC=2C(O1)=CC=CC2",
    "meta_data": {
        "InChI": "InChI=1S/C7H4Cl2O2/c8-7(9)10-5-3-1-2-4-6(5)11-7/h1-4H",
        "InChIKey": null,
        "Canonical SMILES": "ClC1(Cl)OC=2C=CC=CC2O1",
        "Molecular Formula": "C<sub>7</sub>H<sub>4</sub>Cl<sub>2</sub>O<sub>2</sub>",
        "Molecular Mass": "191.01",
        "Boiling Point": "85-85.5 °C @ Press: 12 Torr"
    }
}