{
    "cas_no": "5810-42-4",
    "key_name": "Tetrapropylammonium chloride",
    "cn_name": "四丙基氯化铵;",
    "alternate_name": "1-Propanaminium, <em>N</em>,<em>N</em>,<em>N</em>-tripropyl-, chloride (1:1);Ammonium, tetrapropyl-, chloride;Tetrapropylammonium chloride;1-Propanaminium, <em>N</em>,<em>N</em>,<em>N</em>-tripropyl-, chloride;Tetra-<em>n</em>-propylammonium chloride;<em>N</em>,<em>N</em>,<em>N</em>-Tripropyl-1-propanaminium chloride",
    "duplicated_cas_no": "",
    "SMILES": "[N+](CCC)(CCC)(CCC)CCC.[Cl-]",
    "meta_data": {
        "InChI": "InChI=1S/C12H28N.ClH/c1-5-9-13(10-6-2,11-7-3)12-8-4;/h5-12H2,1-4H3;1H/q+1;/p-1",
        "InChIKey": null,
        "Canonical SMILES": "[Cl-].CCC[N+](CCC)(CCC)CCC",
        "Molecular Formula": "C<sub>12</sub>H<sub>28</sub>N.Cl",
        "Molecular Mass": "",
        "Melting Point": "175-194 °C"
    }
}