{
    "cas_no": "24683-26-9",
    "key_name": "4-Hydroxy-2-methyl-2<em>H</em>-1,2-benzothiazine-3-carboxylic acid ethyl ester 1,1-dioxide",
    "cn_name": "4-羟基-2-甲基-2H-1,2-苯并噻嗪-3-甲酸乙酯1,1-二氧化物;",
    "alternate_name": "2<em>H</em>-1,2-Benzothiazine-3-carboxylic acid, 4-hydroxy-2-methyl-, ethyl ester, 1,1-dioxide;4-Hydroxy-2-methyl-2<em>H</em>-1,2-benzothiazine-3-carboxylic acid ethyl ester 1,1-dioxide;Ethyl 4-hydroxy-2-methyl-2<em>H</em>-1,2-benzothiazine-3-carboxylate 1,1-dioxide",
    "duplicated_cas_no": "",
    "SMILES": "OC=1C=2C(S(=O)(=O)N(C)C1C(OCC)=O)=CC=CC2",
    "meta_data": {
        "InChI": "InChI=1S/C12H13NO5S/c1-3-18-12(15)10-11(14)8-6-4-5-7-9(8)19(16,17)13(10)2/h4-7,14H,3H2,1-2H3",
        "InChIKey": null,
        "Canonical SMILES": "O=C(OCC)C1=C(O)C=2C=CC=CC2S(=O)(=O)N1C",
        "Molecular Formula": "C<sub>12</sub>H<sub>13</sub>NO<sub>5</sub>S",
        "Molecular Mass": "283.30",
        "Melting Point": "138-139 °C"
    }
}