{
    "cas_no": "194924-96-4",
    "key_name": "1-(1,1-Dimethylethyl) 2-methyl 3-oxo-1,2-pyrrolidinedicarboxylate",
    "cn_name": null,
    "alternate_name": "1,2-Pyrrolidinedicarboxylic acid, 3-oxo-, 1-(1,1-dimethylethyl) 2-methyl ester;1-(1,1-Dimethylethyl) 2-methyl 3-oxo-1,2-pyrrolidinedicarboxylate;1-<em>tert</em>-Butyl 2-methyl 3-oxopyrrolidine-1,2-dicarboxylate",
    "duplicated_cas_no": "130948-04-8",
    "SMILES": "C(OC)(=O)C1N(C(OC(C)(C)C)=O)CCC1=O",
    "meta_data": {
        "InChI": "InChI=1S/C11H17NO5/c1-11(2,3)17-10(15)12-6-5-7(13)8(12)9(14)16-4/h8H,5-6H2,1-4H3",
        "InChIKey": null,
        "Canonical SMILES": "O=C(OC(C)(C)C)N1CCC(=O)C1C(=O)OC",
        "Molecular Formula": "C<sub>11</sub>H<sub>17</sub>NO<sub>5</sub>",
        "Molecular Mass": "243.26",
        "Melting Point": "55-56 °C"
    }
}