{
    "cas_no": "27138-31-4",
    "key_name": "Benzoflex 9-88",
    "cn_name": "二苯甲酸二聚丙二醇酯;二丙二醇二苯甲酸酯;DPGDB;",
    "alternate_name": "Propanol, oxybis-, dibenzoate;Dipropylene glycol, dibenzoate;Benzoflex 9-88;PPG 2 dibenzoate;Oxybispropanol dibenzoate;Finsolv PG 22;K-Flex DP;PN 6120;Benzoflex 9-88SG;Benzoflex 9-98;Benzoflex 9088;ADK Cizer PN 6120;Santicizer ER 9100;LS-E 97;Benzoflex 988SG;Synegis 9100;988SG;BF 9-88",
    "duplicated_cas_no": "31213-49-7;574011-46-4",
    "SMILES": "",
    "meta_data": {
        "InChI": "",
        "InChIKey": null,
        "Canonical SMILES": "",
        "Molecular Formula": "C<sub>20</sub>H<sub>22</sub>O<sub>5</sub>",
        "Molecular Mass": "",
        "Boiling Point": "235 °C @ Press: 5 Torr",
        "Density": "1.1245 g/cm³ @ Temp: 20 °C"
    }
}