{
    "cas_no": "2629-55-2",
    "key_name": "<span class=\"text-smallcaps\">DL</span>-2-Fluorophenylalanine",
    "cn_name": null,
    "alternate_name": "Phenylalanine, 2-fluoro-;Alanine, 3-(<em>o</em>-fluorophenyl)-, <span class=\"text-smallcaps\">DL</span>-;<span class=\"text-smallcaps\">DL</span>-Phenylalanine, 2-fluoro-;2-Fluorophenylalanine;<span class=\"text-smallcaps\">DL</span>-<em>o</em>-Fluorophenylalanine;<span class=\"text-smallcaps\">DL</span>-2-Fluorophenylalanine;(±)-2-Fluorophenylalanine;2-Fluoro-<span class=\"text-smallcaps\">DL</span>-phenylalanine;3-(2-Fluorophenyl)-<span class=\"text-smallcaps\">DL</span>-alanine;3-(<em>o</em>-Fluorophenyl)alanine;<em>o</em>-Fluoro-<span class=\"text-smallcaps\">DL</span>-phenylalanine;<em>o</em>-Fluorophenylalanine;2-Amino-3-(2-fluorophenyl)propanoic acid",
    "duplicated_cas_no": "325-69-9",
    "SMILES": "C(C(C(O)=O)N)C1=C(F)C=CC=C1",
    "meta_data": {
        "InChI": "InChI=1S/C9H10FNO2/c10-7-4-2-1-3-6(7)5-8(11)9(12)13/h1-4,8H,5,11H2,(H,12,13)",
        "InChIKey": null,
        "Canonical SMILES": "O=C(O)C(N)CC=1C=CC=CC1F",
        "Molecular Formula": "C<sub>9</sub>H<sub>10</sub>FNO<sub>2</sub>",
        "Molecular Mass": "183.18",
        "Melting Point": "258.5-259 °C"
    }
}