{
    "cas_no": "3529-82-6",
    "key_name": "3-Nitrophenyl isothiocyanate",
    "cn_name": "3-硝基异硫氰酸苯酯;",
    "alternate_name": "Benzene, 1-isothiocyanato-3-nitro-;Isothiocyanic acid, <em>m</em>-nitrophenyl ester;1-Isothiocyanato-3-nitrobenzene;<em>m</em>-Nitrophenyl isothiocyanate;3-Nitrophenyl isothiocyanate",
    "duplicated_cas_no": "",
    "SMILES": "N(=C=S)C1=CC(N(=O)=O)=CC=C1",
    "meta_data": {
        "InChI": "InChI=1S/C7H4N2O2S/c10-9(11)7-3-1-2-6(4-7)8-5-12/h1-4H",
        "InChIKey": null,
        "Canonical SMILES": "O=N(=O)C=1C=CC=C(N=C=S)C1",
        "Molecular Formula": "C<sub>7</sub>H<sub>4</sub>N<sub>2</sub>O<sub>2</sub>S",
        "Molecular Mass": "180.18",
        "Boiling Point": "180 °C @ Press: 15 Torr",
        "Melting Point": "56 °C"
    }
}