{
    "cas_no": "26301-79-1",
    "key_name": "<span class=\"text-smallcaps\">D</span>-Mannono-1,4-lactone",
    "cn_name": null,
    "alternate_name": "<span class=\"text-smallcaps\">D</span>-Mannonic acid, γ-lactone;Mannonic acid, γ-lactone, <span class=\"text-smallcaps\">D</span>-;<span class=\"text-smallcaps\">D</span>-Mannono-γ-lactone;Mannonic acid 1,4-lactone;<span class=\"text-smallcaps\">D</span>-Mannono-1,4-lactone;NSC 1971",
    "duplicated_cas_no": "2782-08-3;56570-92-4",
    "SMILES": "[C@H](CO)(O)[C@@]1([C@H](O)[C@H](O)C(=O)O1)[H]",
    "meta_data": {
        "InChI": "InChI=1S/C6H10O6/c7-1-2(8)5-3(9)4(10)6(11)12-5/h2-5,7-10H,1H2/t2-,3-,4+,5-/m1/s1",
        "InChIKey": null,
        "Canonical SMILES": "O=C1OC(C(O)CO)C(O)C1O",
        "Molecular Formula": "C<sub>6</sub>H<sub>10</sub>O<sub>6</sub>",
        "Molecular Mass": "178.14",
        "Melting Point": "120 °C"
    }
}