{
    "uri": "substance/pt/9004539",
    "rn": "9004-53-9",
    "name": "Dextrin",
    "images": [],
    "inchi": "",
    "inchiKey": "",
    "smile": "",
    "canonicalSmile": "",
    "molecularFormula": "Unspecified",
    "molecularMass": "",
    "experimentalProperties": [
        {
            "name": "Melting Point",
            "property": "53.75-54 °C",
            "sourceNumber": 1
        },
        {
            "name": "Density",
            "property": "0.8 g/cm³",
            "sourceNumber": 2
        }
    ],
    "propertyCitations": [
        {
            "docUri": "document/pt/document/23456077",
            "sourceNumber": 1,
            "source": "Kunz-Krause, Hermann; Berichte der Deutschen Pharmazeutischen Gesellschaft, (1923), 33, 149-55, CAplus"
        },
        {
            "docUri": "document/pt/document/30951273",
            "sourceNumber": 2,
            "source": "Hede, Peter Dybdahl; Powder Technology, (2007), 176(2-3), 156-167, CAplus"
        }
    ],
    "synonyms": [
        "Dextrin",
        "Dextrins",
        "British gum",
        "Corn dextrin",
        "Fortodex",
        "Gommelin",
        "Hydrolysed dextrin",
        "Leiocom",
        "Starch gum",
        "Starch, dextrinized",
        "Pyrodextrin",
        "Tapioca dextrin",
        "Gumstar B",
        "MW 2280",
        "Stadex 105",
        "Electrocol 70",
        "Starch, thin-boiling",
        "Farinex MJ",
        "Superior 40",
        "Superior S",
        "Fungal amylase starch",
        "Globe 8051",
        "Nadex 320",
        "Canary S 8032",
        "Dextrid",
        "Arabix 7",
        "Printex S",
        "D 3100 (gum)",
        "DF 2600",
        "30AN",
        "W 50 (gum)",
        "W 50",
        "Pinedex 1",
        "D 3100",
        "Pinedex",
        "Amaizo 1706",
        "Stadex 201",
        "C 23",
        "Nadex 442",
        "EDW 90",
        "37LAC19",
        "Pinedex 100",
        "Pinedex 3",
        "Staleydex 95",
        "Stuccodex",
        "Stacodex",
        "SR 25",
        "Stadex 128",
        "Stadex 132",
        "Stadex 82",
        "Kuriimu Dextrin",
        "GOS-sugar",
        "Dextrin 1104",
        "Emdex 30An45",
        "Ligament P 950A",
        "Ligament BAE 4",
        "Cream Dextrin 15",
        "955SR",
        "Noredux 200E",
        "Dextrina Bianca",
        "Tackidex J 55K",
        "Noredux C 558",
        "Noredux C 15",
        "Avedex 58MD14C",
        "Pinedex 6",
        "Aquaflake 31",
        "Arabix 6",
        "Sandec 70",
        "Amycol 1",
        "1752S",
        "Amaizo 1752S",
        "Dextrin 12",
        "M 250",
        "M 365",
        "M 550",
        "M 600",
        "Hi-Set CHG",
        "Farinex CO 2",
        "Lycatab DSH",
        "Dextrin 10",
        "Avedex 58MD14",
        "Tackidex DF 165",
        "Hidex 106",
        "CPC 8071",
        "MF 30",
        "Tackidex JO 60K",
        "Crystal Gum",
        "K 4484",
        "Dextrin 101",
        "MF 30 (dextrin)",
        "Max 1000",
        "Sandec 30",
        "C 23 (polysaccharide)",
        "Fibersol 2",
        "Tackidex G 170",
        "Tackidex G 155",
        "Tackidex 050",
        "Tackidex 035",
        "Tackidex 133",
        "Avedex 35",
        "Dextrin 1719",
        "Pinefibre",
        "Pinefibre C",
        "Pinefibre U",
        "Dextrin 3",
        "Avedex W 15",
        "H-Fibre",
        "Licopol",
        "Crystal Tex 627",
        "Stadex 230",
        "NSD-C",
        "Avedex W 90",
        "C*DrySet",
        "Potato dextrin",
        "Stadex 125",
        "102D",
        "102K",
        "PenCling 720B",
        "S 102",
        "Red Ball Dextrin 102S",
        "SR 25 (polysaccharide)",
        "Dextrin 20",
        "D 400E",
        "BLD",
        "Kuriimu Dextrin 3",
        "SR 7",
        "Amycol 6L",
        "SR 7 (polysaccharide)",
        "Tackidex C 172",
        "Bindex 2",
        "Amycol 10",
        "British gum APA",
        "Stadex 126",
        "Dextrin 102N",
        "Dextrin ND-SN",
        "Dextrin ND-S",
        "Dextrin 102S",
        "Sandec 100",
        "BLD 8",
        "Primogran W",
        "Amicol 7H",
        "Pinflow KH",
        "LSPD",
        "SPD",
        "SPD (polysaccharide)",
        "Swift 37192",
        "C*Plus 07380",
        "Stadex 90",
        "Emdex White",
        "Hidex 50",
        "Hidex 128",
        "Hidex 208",
        "Nutriose",
        "Perfectamyl B 1102",
        "Pineflow KH",
        "Inadpul DE 12",
        "FSD 610",
        "C*Film TCF 07311",
        "Dexy 84",
        "Dexy 86",
        "TCF 07311",
        "Stydex 074303",
        "Nutriose FB",
        "Sandec 150",
        "Dexy 85",
        "Nutriose FB 06",
        "Oji Ace P 400",
        "Staleydex 3370",
        "Kokumigen",
        "Koldex 60",
        "FSD 103",
        "Red Ball Dextrin",
        "ND-S",
        "CZRM X",
        "Avedex 37LAC19",
        "VIS TOP D 260",
        "Pinefibre Bi",
        "Sandec 100T",
        "NSD 100",
        "NSD 300",
        "U 2 (polysaccharide)",
        "Diadex 800",
        "NSD 500",
        "Amycol 7",
        "U 2",
        "PDX 1",
        "Nutriose FM 06",
        "Sandec SD 100",
        "DrySet 08501",
        "Pinedex Y",
        "Dextrin 103",
        "Red Ball Dextrin 102",
        "LYH 3",
        "GLD",
        "NSD-L",
        "Tapioca Dextrin 11",
        "Cleargum TA 90",
        "TA 90",
        "Roclys C 3072S",
        "EX 07325",
        "Sandec 250",
        "M-SPD",
        "Kuriimu Dextrin 5",
        "C*Film 07311",
        "C*Film 07312",
        "C*Film 07325",
        "Red Ball Dextrin 102M",
        "DX 03",
        "PDX 2",
        "Sandec 300",
        "Smarttaste",
        "Red Ball British Gum 69",
        "Red Ball Dextrin 103",
        "Soldex MTW",
        "Emdex B 1102",
        "HBD 20",
        "British Gum 69",
        "Dextrin 4C",
        "Roclys 3072S",
        "Corn Dex F",
        "Promitor 85",
        "Sandec 70FN",
        "C*Film 07333",
        "C*Plus 12015",
        "Stabilys A 022",
        "E-Fiber",
        "Matsutani E-Fiber",
        "Nutriose 06",
        "Stabilys A 025",
        "K-SPD",
        "Standex 230",
        "MR 25-45",
        "Sanmauto S",
        "NDP 4C",
        "NDP 13",
        "MD 200",
        "Avedex 36LAC14",
        "Dextrin 20.921",
        "Stadex 79",
        "Sundec 100",
        "Sundec 30",
        "Sundec 150",
        "Glyster P",
        "Sfkxhj 099GZQ",
        "Pine Fiber C",
        "Cargill Plus 08602",
        "K.D.L-R 70",
        "Sundex 180",
        "Paindex 2",
        "Avedex W 80",
        "Jelcall FZ 100",
        "Sundex 100",
        "Sundec 70",
        "TBD 20",
        "Paindex 100",
        "DryLight 01970",
        "DryMD 01956",
        "DryMD 01958",
        "Stabilys CWS-EXP",
        "Pineflow DE 10",
        "OC 2 (polysaccharide)",
        "OC 2",
        "Amycol 5L",
        "Amycol 6H",
        "Stabilys LAB 4511",
        "MeSH ID: D003912",
        "Capsul 2730",
        "Genedex 18"
    ],
    "replacedRns": [
        "9072-45-1",
        "37265-05-7",
        "37265-06-8",
        "74347-35-6",
        "100041-56-3",
        "129290-56-8",
        "133925-38-9",
        "152232-07-0",
        "185829-47-4",
        "199015-70-8",
        "256933-14-9",
        "650604-25-4",
        "753470-74-5",
        "2186634-06-8",
        "2983451-46-1"
    ],
    "hasMolfile": false,
    "source": "https://commonchemistry.cas.org/detail?cas_rn=9004-53-9"
}