{
    "cas_no": "5436-01-1",
    "key_name": "1,2-Dihydro-1-methyl-3,6-pyridazinedione",
    "cn_name": "1-甲基-3,6-(1H,2H)哌嗪二酮;1-甲基-3,6-吡嗪二酮;1-甲基-3,6-(1H,2H)哌嗪二酮;",
    "alternate_name": "3,6-Pyridazinedione, 1,2-dihydro-1-methyl-;3(2<em>H</em>)-Pyridazinone, 6-hydroxy-2-methyl-;1,2-Dihydro-1-methyl-3,6-pyridazinedione;<em>N</em>-Methylmaleic hydrazide;1-Methyl-3,6-pyridazinedione;<em>N</em>-Methyl-3,6-pyridazinedione;6-Hydroxy-2-methyl-3(2<em>H</em>)-pyridazinone;1-Methyl-1,2-dihydro-3,6-pyridazinedione;NSC 21412;6-Hydroxy-2-methyl-2<em>H</em>-pyridazin-3-one;1,6-Dihydro-3-hydroxy-1-methyl-6-oxo-pyridazine;1-Methyl-1,2,3,6-tetrahydropyridazine-3,6-dione;2-Methyl-1<em>H</em>-pyridazine-3,6-dione",
    "duplicated_cas_no": "10071-37-1",
    "SMILES": "CN1C(=O)C=CC(=O)N1",
    "meta_data": {
        "InChI": "InChI=1S/C5H6N2O2/c1-7-5(9)3-2-4(8)6-7/h2-3H,1H3,(H,6,8)",
        "InChIKey": null,
        "Canonical SMILES": "O=C1C=CC(=O)N(N1)C",
        "Molecular Formula": "C<sub>5</sub>H<sub>6</sub>N<sub>2</sub>O<sub>2</sub>",
        "Molecular Mass": "126.11",
        "Melting Point": "210-211 °C"
    }
}