{
    "cas_no": "10308-82-4",
    "key_name": "Aminoguanidine nitrate",
    "cn_name": "氨基胍硝酸盐;",
    "alternate_name": "Hydrazinecarboximidamide, nitrate (1:1);Guanidine, amino-, mononitrate;Hydrazinecarboximidamide, mononitrate;Aminoguanidine nitrate;Aminoguanidine mononitrate;Aminoguanidinium nitrate;NSC 206198;<em>N</em>-Aminoguanidine nitrate",
    "duplicated_cas_no": "2733705-85-4",
    "SMILES": "N(=O)(=O)O.C(NN)(=N)N",
    "meta_data": {
        "InChI": "InChI=1S/CH6N4.HNO3/c2-1(3)5-4;2-1(3)4/h4H2,(H4,2,3,5);(H,2,3,4)",
        "InChIKey": null,
        "Canonical SMILES": "O=N(=O)O.N=C(N)NN",
        "Molecular Formula": "CH<sub>6</sub>N<sub>4</sub>.HNO<sub>3</sub>",
        "Molecular Mass": "",
        "Melting Point": "141-144 °C"
    }
}