{
    "cas_no": "1116-77-4",
    "key_name": "4,4-Diethoxy-<em>N</em>,<em>N</em>-dimethyl-1-butanamine",
    "cn_name": "4-二甲胺基丁醛缩二乙醇;",
    "alternate_name": "1-Butanamine, 4,4-diethoxy-<em>N</em>,<em>N</em>-dimethyl-;Butyraldehyde, 4-(dimethylamino)-, diethyl acetal;4,4-Diethoxy-<em>N</em>,<em>N</em>-dimethyl-1-butanamine;4,4-Diethoxy-<em>N</em>,<em>N</em>-dimethylbutylamine;4,4-Diethoxy-<em>N</em>,<em>N</em>-dimethylbutanamine;4-(Dimethylamino)butanal diethyl acetal;1-(<em>N</em>,<em>N</em>-Dimethylamino)-4,4-diethoxybutane",
    "duplicated_cas_no": "",
    "SMILES": "C(CCCN(C)C)(OCC)OCC",
    "meta_data": {
        "InChI": "InChI=1S/C10H23NO2/c1-5-12-10(13-6-2)8-7-9-11(3)4/h10H,5-9H2,1-4H3",
        "InChIKey": null,
        "Canonical SMILES": "O(CC)C(OCC)CCCN(C)C",
        "Molecular Formula": "C<sub>10</sub>H<sub>23</sub>NO<sub>2</sub>",
        "Molecular Mass": "189.30",
        "Boiling Point": "92-93 °C"
    }
}