{
    "cas_no": "6851-80-5",
    "key_name": "2-Methoxy-<em>N</em>-methylbenzenemethanamine",
    "cn_name": "N-甲基-2-甲氧基苄胺;",
    "alternate_name": "Benzenemethanamine, 2-methoxy-<em>N</em>-methyl-;Benzylamine, <em>o</em>-methoxy-<em>N</em>-methyl-;2-Methoxy-<em>N</em>-methylbenzenemethanamine;2-Methoxy-<em>N</em>-methylbenzylamine;(2-Methoxybenzyl)methylamine;<em>N</em>-Methyl(2-methoxybenzyl)amine;<em>N</em>-(2-Methoxybenzyl)-<em>N</em>-methylamine;1-(2-Methoxyphenyl)-<em>N</em>-methylmethanamine;[(2-Methoxyphenyl)methyl](methyl)amine",
    "duplicated_cas_no": "",
    "SMILES": "C(NC)C1=C(OC)C=CC=C1",
    "meta_data": {
        "InChI": "InChI=1S/C9H13NO/c1-10-7-8-5-3-4-6-9(8)11-2/h3-6,10H,7H2,1-2H3",
        "InChIKey": null,
        "Canonical SMILES": "O(C=1C=CC=CC1CNC)C",
        "Molecular Formula": "C<sub>9</sub>H<sub>13</sub>NO",
        "Molecular Mass": "151.21",
        "Boiling Point": "226 °C"
    }
}