{
    "cas_no": "211915-06-9",
    "key_name": "Dabigatran etexilate",
    "cn_name": "达比加群酯;",
    "alternate_name": "β-Alanine, <em>N</em>-[[2-[[[4-[[[(hexyloxy)carbonyl]amino]iminomethyl]phenyl]amino]methyl]-1-methyl-1<em>H</em>-benzimidazol-5-yl]carbonyl]-<em>N</em>-2-pyridinyl-, ethyl ester;Dabigatran etexilate;BIBR 1048;Prazaxa",
    "duplicated_cas_no": "1428422-77-8",
    "SMILES": "CN1C=2C(=CC(C(N(CCC(OCC)=O)C3=CC=CC=N3)=O)=CC2)N=C1CNC4=CC=C(C(NC(OCCCCCC)=O)=N)C=C4",
    "meta_data": {
        "InChI": "InChI=1S/C34H41N7O5/c1-4-6-7-10-21-46-34(44)39-32(35)24-12-15-26(16-13-24)37-23-30-38-27-22-25(14-17-28(27)40(30)3)33(43)41(20-18-31(42)45-5-2)29-11-8-9-19-36-29/h8-9,11-17,19,22,37H,4-7,10,18,20-21,23H2,1-3H3,(H2,35,39,44)",
        "InChIKey": null,
        "Canonical SMILES": "O=C(OCCCCCC)NC(=N)C1=CC=C(C=C1)NCC2=NC=3C=C(C=CC3N2C)C(=O)N(C4=NC=CC=C4)CCC(=O)OCC",
        "Molecular Formula": "C<sub>34</sub>H<sub>41</sub>N<sub>7</sub>O<sub>5</sub>",
        "Molecular Mass": "627.73",
        "Melting Point": "128-129 °C"
    }
}