{
    "cas_no": "2082-81-7",
    "key_name": "Butanediol dimethacrylate",
    "cn_name": "1,4-丁二醇二甲基丙烯酸酯;2-甲基-2-丙烯酸-1,4-丁二醇酯;",
    "alternate_name": "2-Propenoic acid, 2-methyl-, 1,1′-(1,4-butanediyl) ester;Methacrylic acid, tetramethylene ester;2-Propenoic acid, 2-methyl-, 1,4-butanediyl ester;1,4-Butanediol, dimethacrylate;1,4-Butylene dimethacrylate;Tetramethylene glycol dimethacrylate;Oligotetramethylene glycol dimethacrylate;Butanediol dimethacrylate;Tetramethylene dimethacrylate;1,4-Butylene glycol dimethacrylate;Tetramethylene methacrylate;DMM 4;1,4-Tetramethylene dimethacrylate;NK Ester BD;BDMA;BDDMA;SR 214B;SR 214E;Light Ester 1.4BG;Sartomer 214;SR 214;Mhoromer MFM 405;<em>n</em>-Butane-1,4-diyl dimethacrylate;Visiomer 1,4-BDDMA;Butane-1,4-diyl bis(2-methylacrylate);Visiomer BDDMA",
    "duplicated_cas_no": "148390-75-4;151896-80-9;1600504-91-3",
    "SMILES": "O(C(C(C)=C)=O)CCCCOC(C(C)=C)=O",
    "meta_data": {
        "InChI": "InChI=1S/C12H18O4/c1-9(2)11(13)15-7-5-6-8-16-12(14)10(3)4/h1,3,5-8H2,2,4H3",
        "InChIKey": null,
        "Canonical SMILES": "O=C(OCCCCOC(=O)C(=C)C)C(=C)C",
        "Molecular Formula": "C<sub>12</sub>H<sub>18</sub>O<sub>4</sub>",
        "Molecular Mass": "226.27",
        "Boiling Point": "110 °C @ Press: 3 Torr",
        "Melting Point": "226.28 °C",
        "Density": "1.011 g/cm³ @ Temp: 25 °C"
    }
}