{
    "cas_no": "97-36-9",
    "key_name": "<em>N</em>-(2,4-Dimethylphenyl)-3-oxobutanamide",
    "cn_name": "2,4-二甲基-N-乙酰乙酰苯胺;2\",4\"-二甲基乙酰乙酰苯胺;乙酰基乙酰-2,4-二甲基苯胺;AAMX;",
    "alternate_name": "Butanamide, <em>N</em>-(2,4-dimethylphenyl)-3-oxo-;2′,4′-Acetoacetoxylidide;<em>N</em>-(2,4-Dimethylphenyl)-3-oxobutanamide;1-Acetoacetylamino-2,4-dimethylbenzene;Acetoacetic acid <em>m</em>-xylidide;Acetoaceto-<em>m</em>-xylidide;Acetoacetyl-<em>m</em>-xylidide;2,4-Acetoacetoxylidide;<em>N</em>-Acetoacetyl-2,4-xylidine;2′,4′-Dimethylacetoacetanilide;<em>o</em>,<em>p</em>-Dimethylacetoacetanilide;NSC 8398;<em>N</em>-(2,4-Dimethylphenyl)acetoacetamide",
    "duplicated_cas_no": "1258964-43-0",
    "SMILES": "N(C(CC(C)=O)=O)C1=C(C)C=C(C)C=C1",
    "meta_data": {
        "InChI": "InChI=1S/C12H15NO2/c1-8-4-5-11(9(2)6-8)13-12(15)7-10(3)14/h4-6H,7H2,1-3H3,(H,13,15)",
        "InChIKey": null,
        "Canonical SMILES": "O=C(NC1=CC=C(C=C1C)C)CC(=O)C",
        "Molecular Formula": "C<sub>12</sub>H<sub>15</sub>NO<sub>2</sub>",
        "Molecular Mass": "205.25",
        "Melting Point": "175-176 °C"
    }
}