{
    "cas_no": "24198-97-8",
    "key_name": "<em>rel</em>-(2<em>R</em>,3<em>R</em>)-2-(3,4-Dihydroxyphenyl)-2,3-dihydro-3,5,7-trihydroxy-4<em>H</em>-1-benzopyran-4-one",
    "cn_name": null,
    "alternate_name": "4<em>H</em>-1-Benzopyran-4-one, 2-(3,4-dihydroxyphenyl)-2,3-dihydro-3,5,7-trihydroxy-, (2<em>R</em>,3<em>R</em>)-<em>rel</em>-;4<em>H</em>-1-Benzopyran-4-one, 2-(3,4-dihydroxyphenyl)-2,3-dihydro-3,5,7-trihydroxy-, <em>trans</em>-(±)-;<em>rel</em>-(2<em>R</em>,3<em>R</em>)-2-(3,4-Dihydroxyphenyl)-2,3-dihydro-3,5,7-trihydroxy-4<em>H</em>-1-benzopyran-4-one;(±)-Taxifolin;(±)-Dihydroquercetin",
    "duplicated_cas_no": "194346-69-5",
    "SMILES": "O=C1C=2C(O[C@@H]([C@H]1O)C3=CC(O)=C(O)C=C3)=CC(O)=CC2O",
    "meta_data": {
        "InChI": "InChI=1/C15H12O7/c16-7-4-10(19)12-11(5-7)22-15(14(21)13(12)20)6-1-2-8(17)9(18)3-6/h1-5,14-19,21H/t14-,15+/s2",
        "InChIKey": null,
        "Canonical SMILES": "O=C1C=2C(O)=CC(O)=CC2OC(C3=CC=C(O)C(O)=C3)C1O",
        "Molecular Formula": "C<sub>15</sub>H<sub>12</sub>O<sub>7</sub>",
        "Molecular Mass": "304.25",
        "Melting Point": "239-240 °C"
    }
}