{
    "cas_no": "121-02-8",
    "key_name": "2-Methyl-5-nitrobenzenesulfonyl chloride",
    "cn_name": "2-甲基-5-硝基苯磺酰氯;",
    "alternate_name": "Benzenesulfonyl chloride, 2-methyl-5-nitro-;<em>o</em>-Toluenesulfonyl chloride, 5-nitro-;2-Methyl-5-nitrobenzenesulfonyl chloride;5-Nitro-<em>o</em>-toluenesulfonyl chloride;2-Methyl-5-nitrophenylsulfonyl chloride;NSC 49752;2-Methyl-5-nitrobenzene-1-sulfonyl chloride",
    "duplicated_cas_no": "",
    "SMILES": "S(Cl)(=O)(=O)C1=CC(N(=O)=O)=CC=C1C",
    "meta_data": {
        "InChI": "InChI=1S/C7H6ClNO4S/c1-5-2-3-6(9(10)11)4-7(5)14(8,12)13/h2-4H,1H3",
        "InChIKey": null,
        "Canonical SMILES": "O=N(=O)C1=CC=C(C(=C1)S(=O)(=O)Cl)C",
        "Molecular Formula": "C<sub>7</sub>H<sub>6</sub>ClNO<sub>4</sub>S",
        "Molecular Mass": "235.64",
        "Boiling Point": "195-198 °C @ Press: 20 Torr",
        "Melting Point": "42.0-44.5 °C"
    }
}