{
    "cas_no": "13574-84-0",
    "key_name": "<span class=\"text-smallcaps\">L</span>-Glutamic acid, <em>N</em>-[(1,1-dimethylethoxy)carbonyl]-, 5-(phenylmethyl) ester, compd. with <em>N</em>-cyclohexylcyclohexanamine (1:1)",
    "cn_name": "2-异丁吲哚丁醇;",
    "alternate_name": "<span class=\"text-smallcaps\">L</span>-Glutamic acid, <em>N</em>-[(1,1-dimethylethoxy)carbonyl]-, 5-(phenylmethyl) ester, compd. with <em>N</em>-cyclohexylcyclohexanamine (1:1);Glutamic acid, <em>N</em>-carboxy-, 5-benzyl <em>N</em>-<em>tert</em>-butyl ester, compd. with dicyclohexylamine (1:1), <span class=\"text-smallcaps\">L</span>-;Glutamic acid, <em>N</em>-carboxy-, 5-benzyl <em>N</em>-<em>tert</em>-butyl ester, compd. with dicyclohexylamine;<em>N</em>-<em>tert</em>-Butoxycarbonyl-γ-benzyl-<span class=\"text-smallcaps\">L</span>-glutamic acid compound with dicyclohexylamine (1:1);<em>tert</em>-Butoxycarbonyl-γ-benzyl-<span class=\"text-smallcaps\">L</span>-glutamic acid-dicyclohexylamine salt",
    "duplicated_cas_no": "1420297-06-8",
    "SMILES": "C(OC(CC[C@H](NC(OC(C)(C)C)=O)C(O)=O)=O)C1=CC=CC=C1.N(C1CCCCC1)C2CCCCC2",
    "meta_data": {
        "InChI": "InChI=1S/C17H23NO6.C12H23N/c1-17(2,3)24-16(22)18-13(15(20)21)9-10-14(19)23-11-12-7-5-4-6-8-12;1-3-7-11(8-4-1)13-12-9-5-2-6-10-12/h4-8,13H,9-11H2,1-3H3,(H,18,22)(H,20,21);11-13H,1-10H2/t13-;/m0./s1",
        "InChIKey": null,
        "Canonical SMILES": "O=C(OC(C)(C)C)NC(C(=O)O)CCC(=O)OCC=1C=CC=CC1.N(C1CCCCC1)C2CCCCC2",
        "Molecular Formula": "C<sub>17</sub>H<sub>23</sub>NO<sub>6</sub>.C<sub>12</sub>H<sub>23</sub>N",
        "Molecular Mass": "",
        "Melting Point": "136-139 °C"
    }
}