{
    "cas_no": "5384-21-4",
    "key_name": "Bis(3,5-dimethyl-4-hydroxyphenyl)methane",
    "cn_name": "4,4-亚甲基双(2,6-二甲基酚);",
    "alternate_name": "Phenol, 4,4′-methylenebis[2,6-dimethyl-;2,6-Xylenol, 4,4′-methylenedi-;4,4′-Methylenebis[2,6-dimethylphenol];3,3′,5,5′-Tetramethyl-4,4′-dihydroxydiphenylmethane;4,4′-Methylenedi-2,6-xylenol;4,4′-Dihydroxy-3,3′,5,5′-tetramethyldiphenylmethane;Bis(4-hydroxy-3,5-dimethylphenyl)methane;4,4′-Methylenebis[2,6-xylenol];Bis(3,5-dimethyl-4-hydroxyphenyl)methane;4,4′-Methylenebis(2,6-dimethylphenol);Desoxon M;TMBPF;NSC 128403;3,3′,5,5′-Tetramethyl-4,4′-bisphenol F;BI 26X-F",
    "duplicated_cas_no": "",
    "SMILES": "C(C1=CC(C)=C(O)C(C)=C1)C2=CC(C)=C(O)C(C)=C2",
    "meta_data": {
        "InChI": "InChI=1S/C17H20O2/c1-10-5-14(6-11(2)16(10)18)9-15-7-12(3)17(19)13(4)8-15/h5-8,18-19H,9H2,1-4H3",
        "InChIKey": null,
        "Canonical SMILES": "OC=1C(=CC(=CC1C)CC=2C=C(C(O)=C(C2)C)C)C",
        "Molecular Formula": "C<sub>17</sub>H<sub>20</sub>O<sub>2</sub>",
        "Molecular Mass": "256.34",
        "Melting Point": "175 °C"
    }
}