{
    "cas_no": "13026-23-8",
    "key_name": "3-[1,1′-Biphenyl]-4-yl-2-propenoic acid",
    "cn_name": "4-苯乙烯酸;联苯-4-丙烯酸;",
    "alternate_name": "2-Propenoic acid, 3-[1,1′-biphenyl]-4-yl-;Cinnamic acid, <em>p</em>-phenyl-;3-[1,1′-Biphenyl]-4-yl-2-propenoic acid;4-Phenylcinnamic acid;[1,1′-Biphenyl]-4-acrylic acid;<em>p</em>-Phenylcinnamic acid;3-Biphenyl-4-ylacrylic acid;3-(1,1′-Biphenyl-4-yl)acrylic acid",
    "duplicated_cas_no": "",
    "SMILES": "C(=CC(O)=O)C1=CC=C(C=C1)C2=CC=CC=C2",
    "meta_data": {
        "InChI": "InChI=1S/C15H12O2/c16-15(17)11-8-12-6-9-14(10-7-12)13-4-2-1-3-5-13/h1-11H,(H,16,17)",
        "InChIKey": null,
        "Canonical SMILES": "O=C(O)C=CC=1C=CC(=CC1)C=2C=CC=CC2",
        "Molecular Formula": "C<sub>15</sub>H<sub>12</sub>O<sub>2</sub>",
        "Molecular Mass": "224.25",
        "Melting Point": "225 °C"
    }
}