{
    "cas_no": "81267-65-4",
    "key_name": "Phenoxodiol",
    "cn_name": "Phenoxodiol;脱氢雌马酚;3-(4-羟基苯基)-2H-1-苯并吡喃-7-醇;",
    "alternate_name": "2<em>H</em>-1-Benzopyran-7-ol, 3-(4-hydroxyphenyl)-;3-(4-Hydroxyphenyl)-2<em>H</em>-1-benzopyran-7-ol;Haginin E;Phenoxodiol;Dehydroequol;NV 06;Idronoxil;3-(4-Hydroxyphenyl)-2<em>H</em>-benzopyran-7-ol;D 7446;Veyonda",
    "duplicated_cas_no": "",
    "SMILES": "OC=1C=C2C(C=C(CO2)C3=CC=C(O)C=C3)=CC1",
    "meta_data": {
        "InChI": "InChI=1S/C15H12O3/c16-13-4-1-10(2-5-13)12-7-11-3-6-14(17)8-15(11)18-9-12/h1-8,16-17H,9H2",
        "InChIKey": null,
        "Canonical SMILES": "OC=1C=CC(=CC1)C2=CC3=CC=C(O)C=C3OC2",
        "Molecular Formula": "C<sub>15</sub>H<sub>12</sub>O<sub>3</sub>",
        "Molecular Mass": "240.25",
        "Melting Point": "165-166 °C"
    }
}