{
    "cas_no": "16495-13-9",
    "key_name": "(+)-Benzyl glycidyl ether",
    "cn_name": "(S)-苄氧甲基环氧乙烷;",
    "alternate_name": "Oxirane, 2-[(phenylmethoxy)methyl]-, (2<em>S</em>)-;Propane, 1-(benzyloxy)-2,3-epoxy-, (<em>S</em>)-;Oxirane, [(phenylmethoxy)methyl]-, (<em>S</em>)-;Oxirane, [(phenylmethoxy)methyl]-, (2<em>S</em>)-;(2<em>S</em>)-2-[(Phenylmethoxy)methyl]oxirane;(+)-Benzyl glycidyl ether;(+)-2-(Benzyloxymethyl)oxirane;(<em>S</em>)-<em>O</em>-Benzylglycidol;(<em>S</em>)-(Benzyloxymethyl)oxirane;(<em>S</em>)-Benzylglycidol;Benzyl (<em>S</em>)-glycidyl ether;(<em>S</em>)-Glycidyl benzyl ether;(<em>S</em>)-2-(Benzyloxymethyl)oxirane;(2<em>S</em>)-2-[(Benzyloxy)methyl]oxirane;(+)-Glycidyl benzyl ether;(<em>S</em>)-(+)-Benzyl glycidyl ether;(2S)-2-[(Benzyloxy)methyl]oxirane;(2S)-2-(Phenylmethoxymethyl)oxirane",
    "duplicated_cas_no": "",
    "SMILES": "C(OCC1=CC=CC=C1)[C@@H]2CO2",
    "meta_data": {
        "InChI": "InChI=1S/C10H12O2/c1-2-4-9(5-3-1)6-11-7-10-8-12-10/h1-5,10H,6-8H2/t10-/m1/s1",
        "InChIKey": null,
        "Canonical SMILES": "O(CC=1C=CC=CC1)CC2OC2",
        "Molecular Formula": "C<sub>10</sub>H<sub>12</sub>O<sub>2</sub>",
        "Molecular Mass": "164.20",
        "Boiling Point": "120 °C @ Press: 0.2 Torr"
    }
}