{
    "cas_no": "81-08-3",
    "key_name": "2-Sulfobenzoic acid cyclic anhydride",
    "cn_name": "2-磺基苯甲酸酐;邻磺基苯甲酸酐;",
    "alternate_name": "3<em>H</em>-2,1-Benzoxathiol-3-one, 1,1-dioxide;Benzoic acid, <em>o</em>-sulfo-, cyclic anhydride;<em>o</em>-Sulfobenzoic acid, cyclic anhydride;Benzoic acid, 2-sulfo-, cyclic anhydride;<em>o</em>-Sulfobenzoic anhydride;<em>o</em>-Sulfobenzoic acid anhydride;2-Sulfobenzoic anhydride;2-Sulfobenzoic acid cyclic anhydride;2-Sulfobenzoic acid cycloanhydride;NSC 11208;NSC 49162;1,3-Dihydro-2,1λ6-benzoxathiole-1,1,3-trione",
    "duplicated_cas_no": "4377-89-3;27396-44-7",
    "SMILES": "O=S1(=O)C=2C(C(=O)O1)=CC=CC2",
    "meta_data": {
        "InChI": "InChI=1S/C7H4O4S/c8-7-5-3-1-2-4-6(5)12(9,10)11-7/h1-4H",
        "InChIKey": null,
        "Canonical SMILES": "O=C1OS(=O)(=O)C=2C=CC=CC12",
        "Molecular Formula": "C<sub>7</sub>H<sub>4</sub>O<sub>4</sub>S",
        "Molecular Mass": "184.17",
        "Melting Point": "129.5 °C"
    }
}