{
    "cas_no": "123-86-4",
    "key_name": "Butyl acetate",
    "cn_name": "乙酸丁酯;乙酸正丁酯;",
    "alternate_name": "Acetic acid, butyl ester;Butyl acetate;<em>n</em>-Butyl acetate;Butyl ethanoate;1-Butyl acetate;Acetic acid <em>n</em>-butyl ester;1-Acetoxybutane;NSC 9298;NBA;H 6D4051",
    "duplicated_cas_no": "",
    "SMILES": "O(CCCC)C(C)=O",
    "meta_data": {
        "InChI": "InChI=1S/C6H12O2/c1-3-4-5-8-6(2)7/h3-5H2,1-2H3",
        "InChIKey": null,
        "Canonical SMILES": "O=C(OCCCC)C",
        "Molecular Formula": "C<sub>6</sub>H<sub>12</sub>O<sub>2</sub>",
        "Molecular Mass": "116.16",
        "Boiling Point": "126.1 °C",
        "Melting Point": "-78 °C",
        "Density": "0.8826 g/cm³ @ Temp: 20 °C"
    }
}