{
    "cas_no": "78208-72-7",
    "key_name": "5-Isopropyl-1<em>H</em>-pyrazole-3-carboxylic acid ethyl ester",
    "cn_name": "5-异丙基吡唑-3-甲酸乙酯;3-异丙基-1-H吡唑-5-甲酸乙酯;5-异丙基吡唑-3-甲酸乙酯;",
    "alternate_name": "1<em>H</em>-Pyrazole-3-carboxylic acid, 5-(1-methylethyl)-, ethyl ester;5-Isopropyl-1<em>H</em>-pyrazole-3-carboxylic acid ethyl ester;Ethyl 5-isopropyl-1<em>H</em>-pyrazole-3-carboxylate;Ethyl 3-isopropyl-1<em>H</em>-pyrazole-5-carboxylate;3-Isopropyl-1<em>H</em>-pyrazole-5-carboxylic acid ethyl ester",
    "duplicated_cas_no": "133261-03-7;888738-91-8",
    "SMILES": "C(OCC)(=O)C=1C=C(C(C)C)NN1",
    "meta_data": {
        "InChI": "InChI=1S/C9H14N2O2/c1-4-13-9(12)8-5-7(6(2)3)10-11-8/h5-6H,4H2,1-3H3,(H,10,11)",
        "InChIKey": null,
        "Canonical SMILES": "O=C(OCC)C1=NNC(=C1)C(C)C",
        "Molecular Formula": "C<sub>9</sub>H<sub>14</sub>N<sub>2</sub>O<sub>2</sub>",
        "Molecular Mass": "182.22",
        "Melting Point": "61-63 °C"
    }
}