{
    "cas_no": "4642-95-9",
    "key_name": "Trendione",
    "cn_name": null,
    "alternate_name": "Estra-4,9,11-triene-3,17-dione;10758-25A;Trendione;RU 2065",
    "duplicated_cas_no": "",
    "SMILES": "C[C@@]12[C@]([C@]3(C(=C4C(CC3)=CC(=O)CC4)C=C1)[H])(CCC2=O)[H]",
    "meta_data": {
        "InChI": "InChI=1S/C18H20O2/c1-18-9-8-14-13-5-3-12(19)10-11(13)2-4-15(14)16(18)6-7-17(18)20/h8-10,15-16H,2-7H2,1H3/t15-,16+,18+/m1/s1",
        "InChIKey": null,
        "Canonical SMILES": "O=C1C=C2C(=C3C=CC4(C(=O)CCC4C3CC2)C)CC1",
        "Molecular Formula": "C<sub>18</sub>H<sub>20</sub>O<sub>2</sub>",
        "Molecular Mass": "268.35",
        "Melting Point": "140 °C"
    }
}