{
    "cas_no": "91-00-9",
    "key_name": "Benzhydrylamine",
    "cn_name": "二苯甲胺;氨基二苯甲烷;",
    "alternate_name": "Benzenemethanamine, α-phenyl-;Methylamine, 1,1-diphenyl-;α-Phenylbenzenemethanamine;α-Aminodiphenylmethane;1,1-Diphenylmethylamine;α-Phenylbenzylamine;Benzhydrylamine;Methanamine, 1,1-diphenyl-;Aminodiphenylmethane;(Diphenylmethyl)amine;1-Amino-1-(phenylmethyl)benzene;NSC 49127;1,1-Diphenylmethanamine;Diphenylmethamine",
    "duplicated_cas_no": "1629339-08-7",
    "SMILES": "C(N)(C1=CC=CC=C1)C2=CC=CC=C2",
    "meta_data": {
        "InChI": "InChI=1S/C13H13N/c14-13(11-7-3-1-4-8-11)12-9-5-2-6-10-12/h1-10,13H,14H2",
        "InChIKey": null,
        "Canonical SMILES": "NC(C=1C=CC=CC1)C=2C=CC=CC2",
        "Molecular Formula": "C<sub>13</sub>H<sub>13</sub>N",
        "Molecular Mass": "183.25",
        "Boiling Point": "304 °C",
        "Melting Point": "34 °C",
        "Density": "1.064 g/cm³"
    }
}