{
    "cas_no": "13414-95-4",
    "key_name": "6,7-Dihydrobenzo[<em>b</em>]thiophen-4(5<em>H</em>)-one",
    "cn_name": "6,7-二氢苯并[b]噻吩-4(5H)-酮;",
    "alternate_name": "Benzo[<em>b</em>]thiophen-4(5<em>H</em>)-one, 6,7-dihydro-;6,7-Dihydrobenzo[<em>b</em>]thiophen-4(5<em>H</em>)-one;4-<em>keto</em>-4,5,6,7-Tetrahydrothianaphthene;4,5,6,7-Tetrahydro-4-benzo[<em>b</em>]thiophenone;4-Oxo-4,5,6,7-tetrahydrothianaphthene;4,5,6,7-Tetrahydrothianaphthen-4-one;4-Oxo-4,5,6,7-tetrahydrobenzo[<em>b</em>]thiophene;6,7-Dihydrobenzothiophen-4(5<em>H</em>)-one;6,7-Dihydro-1-benzo[<em>b</em>]thiophen-4(5<em>H</em>)-one;6,7-Dihydro-1-benzothiophen-4(5<em>H</em>)-one;NSC 99002;4,5,6,7-Tetrahydrobenzothiophen-4-one;6,7-Dihydro-4-benzo[<em>b</em>]thiophenone;6,7-Dihydrobenzo[<em>b</em>]thiophen-4-one;6,7-Dihydro-4(5<em>H</em>)-benzothiophene;6,7-Dihydrobenzo[<em>b</em>]thien-4(5<em>H</em>)-one",
    "duplicated_cas_no": "2768026-92-0",
    "SMILES": "O=C1C2=C(CCC1)SC=C2",
    "meta_data": {
        "InChI": "InChI=1S/C8H8OS/c9-7-2-1-3-8-6(7)4-5-10-8/h4-5H,1-3H2",
        "InChIKey": null,
        "Canonical SMILES": "O=C1C=2C=CSC2CCC1",
        "Molecular Formula": "C<sub>8</sub>H<sub>8</sub>OS",
        "Molecular Mass": "152.21",
        "Boiling Point": "102-110 °C @ Press: 2 Torr",
        "Melting Point": "35.5-37 °C"
    }
}