{
    "cas_no": "75-21-8",
    "key_name": "Ethylene oxide",
    "cn_name": null,
    "alternate_name": "Oxirane;Ethylene oxide;Ethyleneoxy;Dihydrooxirene;Dimethylene oxide;1,2-Epoxyethane;ETO;Oxacyclopropane;Oxane;Oxidoethane;Oxirene, dihydro-;T-Gas;Oxyfume 12;Oxyfume;Epoxyethane;Ethene oxide;Ciba-Geigy 9138;12/88;Mirror Ox;Oxyfume 2002;E 105779;MeSH ID: D005027",
    "duplicated_cas_no": "99932-75-9;142175-32-4;19034-08-3;37341-05-2;436859-78-8;184288-32-2",
    "SMILES": "C1CO1",
    "meta_data": {
        "InChI": "InChI=1S/C2H4O/c1-2-3-1/h1-2H2",
        "InChIKey": null,
        "Canonical SMILES": "O1CC1",
        "Molecular Formula": "C<sub>2</sub>H<sub>4</sub>O",
        "Molecular Mass": "44.05",
        "Boiling Point": "10.7 °C @ Press: 760 Torr",
        "Melting Point": "-111 °C",
        "Density": "0.882 g/cm³ @ Temp: 10 °C"
    }
}