{
    "cas_no": "29122-68-7",
    "key_name": "Atenolol",
    "cn_name": null,
    "alternate_name": "Benzeneacetamide, 4-[2-hydroxy-3-[(1-methylethyl)amino]propoxy]-;Acetamide, 2-[<em>p</em>-[2-hydroxy-3-(isopropylamino)propoxy]phenyl]-;4-[2-Hydroxy-3-[(1-methylethyl)amino]propoxy]benzeneacetamide;Tenormine;ICI 66082;Atenolol;Tenormin;Duraatenolol;(±)-Atenolol;<span class=\"text-smallcaps\">DL</span>-Atenolol;<em>dl</em>-Atenolol;(<em>RS</em>)-Atenolol;Altol;Alinor;Apo-Atenolol;Anselol;Antipressan;AteHexal;Atelol;Atenblock;Atendol;Atenet;Atcardil;Atecard;Atenol;Atereal;Aterol;Atolmin;Betablok;Betacard;Blokium;B-Vasc;Catenol;Coratol;Corotenol;Evitocor;Farnormin;Ateni;Atenil;Hipres;Internolol;Lo-ten;Lotenal;Myocord;Normalol;Normiten;Noten;Oraday;Premorine;Prenolol;Seles;Serten;Stermin;Tenidon;Tenoblock;Tenolin;Tenolol;Tenoprin;Tensig;Tensimin;Tredol;Urosin;Vascoten;Vericordin;Wesipin;Xaten;Felo-Bits;Hypoten;Cuxanorm;Seles Beta;Teno-basan;Prenormine;Selobloc;Ibinolo;Uniloc;Ternomin;Aten;Telol;Tenordin;Ateno;Novaten;Catenolol;Juvental;(<em>R</em>,<em>S</em>)-Atenolol;RS-alprenolol;2-(4-[2-Hydroxy-3-[(propan-2-yl)amino]propoxy]phenyl)acetamide;2-[4-(2-Hydroxy-3-isopropylamino-propoxy)-phenyl]-acetamide;2-(4-(2-Hydroxy-3-(isopropylamino)propoxy)phenyl)acetamide;2-[4-[2-Hydroxy-3-(propan-2-ylamino)propoxy]phenyl]acetamide;Tenormin I.V.;MeSH ID: D001262",
    "duplicated_cas_no": "106020-65-9;60966-51-0",
    "SMILES": "O(CC(CNC(C)C)O)C1=CC=C(CC(N)=O)C=C1",
    "meta_data": {
        "InChI": "InChI=1S/C14H22N2O3/c1-10(2)16-8-12(17)9-19-13-5-3-11(4-6-13)7-14(15)18/h3-6,10,12,16-17H,7-9H2,1-2H3,(H2,15,18)",
        "InChIKey": null,
        "Canonical SMILES": "O=C(N)CC1=CC=C(OCC(O)CNC(C)C)C=C1",
        "Molecular Formula": "C<sub>14</sub>H<sub>22</sub>N<sub>2</sub>O<sub>3</sub>",
        "Molecular Mass": "266.34",
        "Melting Point": "146-148 °C",
        "Density": "1.189 g/cm³ (crystalline)"
    }
}