{
    "cas_no": "13760-80-0",
    "key_name": "Ytterbium fluoride",
    "cn_name": null,
    "alternate_name": "Ytterbium fluoride (YbF<sub>3</sub>);Ytterbium trifluoride;Ytterbium fluoride;SG-YBF 100;SG-YBF 100-702;SG-YBF 20;YbF-20-AV 330",
    "duplicated_cas_no": "",
    "SMILES": "[Yb](F)(F)F",
    "meta_data": {
        "InChI": "InChI=1S/3FH.Yb/h3*1H;/q;;;+3/p-3",
        "InChIKey": null,
        "Canonical SMILES": "F[Yb](F)F",
        "Molecular Formula": "F<sub>3</sub>Yb",
        "Molecular Mass": "",
        "Melting Point": "1207 °C"
    }
}