{
    "cas_no": "5328-37-0",
    "key_name": "<span class=\"text-smallcaps\">L</span>-Arabinose",
    "cn_name": "L-阿戊糖;L-阿拉伯糖;L-树胶醛糖;",
    "alternate_name": "<span class=\"text-smallcaps\">L</span>-Arabinose;Arabinose, <span class=\"text-smallcaps\">L</span>-;<span class=\"text-smallcaps\">L</span>-(+)-Arabinose;(+)-Arabinose;NSC 1941",
    "duplicated_cas_no": "",
    "SMILES": "[C@H]([C@H](CO)O)([C@H](C=O)O)O",
    "meta_data": {
        "InChI": "InChI=1S/C5H10O5/c6-1-3(8)5(10)4(9)2-7/h1,3-5,7-10H,2H2/t3-,4-,5+/m0/s1",
        "InChIKey": null,
        "Canonical SMILES": "O=CC(O)C(O)C(O)CO",
        "Molecular Formula": "C<sub>5</sub>H<sub>10</sub>O<sub>5</sub>",
        "Molecular Mass": "150.13",
        "Melting Point": "166 °C"
    }
}