{
    "cas_no": "622-20-8",
    "key_name": "1,2-Bis(phenylthio)ethane",
    "cn_name": null,
    "alternate_name": "Benzene, 1,1′-[1,2-ethanediylbis(thio)]bis-;Ethane, 1,2-bis(phenylthio)-;1,1′-[1,2-Ethanediylbis(thio)]bis[benzene];1,2-Bis(phenylthio)ethane;1,1′-[1,2-ethanediylbis(thio)]bis[benzene];NSC 21579;1,2-Bis(phenylsulfanyl)ethane;[[2-(Phenylsulfanyl)ethyl]sulfanyl]benzene;2-Phenylsulfanylethylsulfanylbenzene",
    "duplicated_cas_no": "",
    "SMILES": "S(CCSC1=CC=CC=C1)C2=CC=CC=C2",
    "meta_data": {
        "InChI": "InChI=1S/C14H14S2/c1-3-7-13(8-4-1)15-11-12-16-14-9-5-2-6-10-14/h1-10H,11-12H2",
        "InChIKey": null,
        "Canonical SMILES": "S(C=1C=CC=CC1)CCSC=2C=CC=CC2",
        "Molecular Formula": "C<sub>14</sub>H<sub>14</sub>S<sub>2</sub>",
        "Molecular Mass": "246.39",
        "Boiling Point": "155 °C @ Press: 2 Torr",
        "Melting Point": "70 °C"
    }
}