{
    "cas_no": "22179-86-8",
    "key_name": "<em>N</em>-Hydroxy-4-(trifluoromethyl)benzenecarboximidamide",
    "cn_name": null,
    "alternate_name": "Benzenecarboximidamide, <em>N</em>-hydroxy-4-(trifluoromethyl)-;<em>p</em>-Toluamidoxime, α,α,α-trifluoro-;<em>N</em>-Hydroxy-4-(trifluoromethyl)benzenecarboximidamide;4-Trifluoromethylbenzamidoxime;4-(Trifluoromethyl)-<em>N</em>′-hydroxybenzenecarboximidamide;<em>N</em>′-Hydroxy-4-(trifluoromethyl)benzenecarboximidamide;<em>N</em>-Hydroxy-4-(trifluoromethyl)benzamidine;<em>N</em>-Hydroxy-4-trifluoromethylbenzimidamide",
    "duplicated_cas_no": "",
    "SMILES": "C(F)(F)(F)C1=CC=C(C(NO)=N)C=C1",
    "meta_data": {
        "InChI": "InChI=1S/C8H7F3N2O/c9-8(10,11)6-3-1-5(2-4-6)7(12)13-14/h1-4,14H,(H2,12,13)",
        "InChIKey": null,
        "Canonical SMILES": "FC(F)(F)C1=CC=C(C=C1)C(=N)NO",
        "Molecular Formula": "C<sub>8</sub>H<sub>7</sub>F<sub>3</sub>N<sub>2</sub>O",
        "Molecular Mass": "204.15",
        "Melting Point": "127-129 °C"
    }
}