{
    "cas_no": "73387-52-7",
    "key_name": "5-(4-Bromophenyl)-1-methyl-1<em>H</em>-pyrazole",
    "cn_name": null,
    "alternate_name": "1<em>H</em>-Pyrazole, 5-(4-bromophenyl)-1-methyl-;5-(4-Bromophenyl)-1-methyl-1<em>H</em>-pyrazole;5-(4-Bromophenyl)-1-methylpyrazole",
    "duplicated_cas_no": "",
    "SMILES": "CN1C(=CC=N1)C2=CC=C(Br)C=C2",
    "meta_data": {
        "InChI": "InChI=1S/C10H9BrN2/c1-13-10(6-7-12-13)8-2-4-9(11)5-3-8/h2-7H,1H3",
        "InChIKey": null,
        "Canonical SMILES": "BrC=1C=CC(=CC1)C2=CC=NN2C",
        "Molecular Formula": "C<sub>10</sub>H<sub>9</sub>BrN<sub>2</sub>",
        "Molecular Mass": "237.10",
        "Melting Point": "58 °C"
    }
}