{
    "cas_no": "2051-76-5",
    "key_name": "Acrylic anhydride",
    "cn_name": "丙烯酸酐;",
    "alternate_name": "2-Propenoic acid, 1,1′-anhydride;Acrylic anhydride;2-Propenoic acid, anhydride;Acrylic acid anhydride;NSC 32616;Diacrylic acid anhydride;Prop-2-enoyl prop-2-enoate;2-Propenoic anhydride;Acryloyl anhydride",
    "duplicated_cas_no": "2055573-70-9",
    "SMILES": "O(C(C=C)=O)C(C=C)=O",
    "meta_data": {
        "InChI": "InChI=1S/C6H6O3/c1-3-5(7)9-6(8)4-2/h3-4H,1-2H2",
        "InChIKey": null,
        "Canonical SMILES": "O=C(OC(=O)C=C)C=C",
        "Molecular Formula": "C<sub>6</sub>H<sub>6</sub>O<sub>3</sub>",
        "Molecular Mass": "126.11",
        "Boiling Point": "60-66 °C @ Press: 10-12 Torr",
        "Melting Point": "-20 °C"
    }
}