{
    "cas_no": "122-87-2",
    "key_name": "<em>p</em>-Hydroxyphenylglycine",
    "cn_name": "N-(4-羟苯基)甘氨酸;",
    "alternate_name": "Glycine, <em>N</em>-(4-hydroxyphenyl)-;Glycine, <em>N</em>-(<em>p</em>-hydroxyphenyl)-;<em>N</em>-(4-Hydroxyphenyl)glycine;<em>p</em>-Hydroxyanilinoacetic acid;<em>p</em>-Hydroxyphenylaminoacetic acid;<em>N</em>-(<em>p</em>-Hydroxyphenyl)glycine;Iconyl;Monazol;Photoglycine;<em>p</em>-Hydroxyphenylglycine;4-(Carboxymethylamino)phenol;NSC 9267;2-[(4-Hydroxyphenyl)amino]acetic acid;2-(4-Hydroxyanilino)acetic acid",
    "duplicated_cas_no": "",
    "SMILES": "N(CC(O)=O)C1=CC=C(O)C=C1",
    "meta_data": {
        "InChI": "InChI=1S/C8H9NO3/c10-7-3-1-6(2-4-7)9-5-8(11)12/h1-4,9-10H,5H2,(H,11,12)",
        "InChIKey": null,
        "Canonical SMILES": "O=C(O)CNC1=CC=C(O)C=C1",
        "Molecular Formula": "C<sub>8</sub>H<sub>9</sub>NO<sub>3</sub>",
        "Molecular Mass": "167.16",
        "Melting Point": "246 °C (decomp)"
    }
}