{
    "cas_no": "4740-78-7",
    "key_name": "1,3-Dioxan-5-ol",
    "cn_name": "甘油缩甲醛;",
    "alternate_name": "1,3-Dioxan-5-ol;m-Dioxan-5-ol;5-Hydroxy-1,3-dioxane;5-Hydroxy-<em>m</em>-dioxane;1,3-Formalglycerol;5-M-Dioxanol",
    "duplicated_cas_no": "",
    "SMILES": "OC1COCOC1",
    "meta_data": {
        "InChI": "InChI=1S/C4H8O3/c5-4-1-6-3-7-2-4/h4-5H,1-3H2",
        "InChIKey": null,
        "Canonical SMILES": "OC1COCOC1",
        "Molecular Formula": "C<sub>4</sub>H<sub>8</sub>O<sub>3</sub>",
        "Molecular Mass": "104.10",
        "Boiling Point": "193.8 °C @ Press: 760 Torr",
        "Melting Point": "190-195 °C",
        "Density": "1.2200 g/cm³ @ Temp: 25 °C"
    }
}