{
    "cas_no": "592-41-6",
    "key_name": "1-Hexene",
    "cn_name": "1-己烯;正己烯;",
    "alternate_name": "1-Hexene;1-<em>n</em>-Hexene;Hexene;Dialen 6;NSC 74121;Linealene 6;α-Hexene",
    "duplicated_cas_no": "33004-04-5;153522-12-4",
    "SMILES": "C(CC=C)CC",
    "meta_data": {
        "InChI": "InChI=1S/C6H12/c1-3-5-6-4-2/h3H,1,4-6H2,2H3",
        "InChIKey": null,
        "Canonical SMILES": "C=CCCCC",
        "Molecular Formula": "C<sub>6</sub>H<sub>12</sub>",
        "Molecular Mass": "84.16",
        "Boiling Point": "63.4 °C @ Press: 760 Torr",
        "Melting Point": "-139.7 °C",
        "Density": "0.6731 g/cm³ @ Temp: 20 °C"
    }
}