{
    "cas_no": "2268-05-5",
    "key_name": "1,3-Dichloro-2-fluorobenzene",
    "cn_name": "2,6-二氯氟苯;",
    "alternate_name": "Benzene, 1,3-dichloro-2-fluoro-;1,3-Dichloro-2-fluorobenzene;2,6-Dichlorofluorobenzene;1-Fluoro-2,6-dichlorobenzene;2-Fluoro-1,3-dichlorobenzene;2,6-Dichloro-1-fluorobenzene",
    "duplicated_cas_no": "",
    "SMILES": "FC1=C(Cl)C=CC=C1Cl",
    "meta_data": {
        "InChI": "InChI=1S/C6H3Cl2F/c7-4-2-1-3-5(8)6(4)9/h1-3H",
        "InChIKey": null,
        "Canonical SMILES": "FC=1C(Cl)=CC=CC1Cl",
        "Molecular Formula": "C<sub>6</sub>H<sub>3</sub>Cl<sub>2</sub>F",
        "Molecular Mass": "164.99",
        "Boiling Point": "168-169 °C",
        "Melting Point": "35 °C"
    }
}