{
    "cas_no": "41318-75-6",
    "key_name": "BDE 28",
    "cn_name": null,
    "alternate_name": "Benzene, 2,4-dibromo-1-(4-bromophenoxy)-;Ether, <em>p</em>-bromophenyl 2,4-dibromophenyl;2,4-Dibromo-1-(4-bromophenoxy)benzene;2,4,4′-Tribromodiphenyl ether;BDE 28;PBDE 28",
    "duplicated_cas_no": "",
    "SMILES": "O(C1=C(Br)C=C(Br)C=C1)C2=CC=C(Br)C=C2",
    "meta_data": {
        "InChI": "InChI=1S/C12H7Br3O/c13-8-1-4-10(5-2-8)16-12-6-3-9(14)7-11(12)15/h1-7H",
        "InChIKey": null,
        "Canonical SMILES": "BrC1=CC=C(OC2=CC=C(Br)C=C2Br)C=C1",
        "Molecular Formula": "C<sub>12</sub>H<sub>7</sub>Br<sub>3</sub>O",
        "Molecular Mass": "406.90",
        "Boiling Point": "370 °C"
    }
}