{
    "cas_no": "119-51-7",
    "key_name": "1-Phenyl-1,2-propanedione 2-oxime",
    "cn_name": "2-异亚硝基苯丙酮;",
    "alternate_name": "1,2-Propanedione, 1-phenyl-, 2-oxime;1-Phenyl-1,2-propanedione 2-oxime;2-(Hydroxyimino)propiophenone;RA 58;Isonitrosopropiophenone;1-Phenyl-2-(hydroxyimino)propan-1-one;α-(Hydroxyimino)propiophenone;2-Hydroxyimino-1-phenyl-1-propanone;NSC 5410",
    "duplicated_cas_no": "",
    "SMILES": "C(C(=NO)C)(=O)C1=CC=CC=C1",
    "meta_data": {
        "InChI": "InChI=1S/C9H9NO2/c1-7(10-12)9(11)8-5-3-2-4-6-8/h2-6,12H,1H3",
        "InChIKey": null,
        "Canonical SMILES": "O=C(C=1C=CC=CC1)C(=NO)C",
        "Molecular Formula": "C<sub>9</sub>H<sub>9</sub>NO<sub>2</sub>",
        "Molecular Mass": "163.17",
        "Melting Point": "114.5 °C"
    }
}