{
    "cas_no": "660-88-8",
    "key_name": "5-Aminovaleric acid",
    "cn_name": null,
    "alternate_name": "Pentanoic acid, 5-amino-;Valeric acid, 5-amino-;5-Aminopentanoic acid;δ-Aminovaleric acid;5-Aminovaleric acid;δ-Amino-<em>n</em>-valeric acid;ω-Aminopentanoic acid;DAVA;δ-Aminopentanoic acid;5-Amino-<em>n</em>-valeric acid;ω-Aminovaleric acid;NSC 58383;NSC 73123;Aminovaleric acid",
    "duplicated_cas_no": "",
    "SMILES": "C(CCCN)C(O)=O",
    "meta_data": {
        "InChI": "InChI=1S/C5H11NO2/c6-4-2-1-3-5(7)8/h1-4,6H2,(H,7,8)",
        "InChIKey": null,
        "Canonical SMILES": "O=C(O)CCCCN",
        "Molecular Formula": "C<sub>5</sub>H<sub>11</sub>NO<sub>2</sub>",
        "Molecular Mass": "117.15",
        "Melting Point": "157.5 °C (decomp)"
    }
}