{
    "cas_no": "7142-09-8",
    "key_name": "6-Chloro-2-methyl-4(3<em>H</em>)-quinazolinone",
    "cn_name": null,
    "alternate_name": "4(3<em>H</em>)-Quinazolinone, 6-chloro-2-methyl-;4(1<em>H</em>)-Quinazolinone, 6-chloro-2-methyl-;6-Chloro-2-methyl-4(3<em>H</em>)-quinazolinone;6-Chloro-2-methylquinazolin-4(3<em>H</em>)-one;NSC 45786;6-Chloro-4-hydroxy-2-methylquinazoline",
    "duplicated_cas_no": "",
    "SMILES": "O=C1C=2C(NC(C)=N1)=CC=C(Cl)C2",
    "meta_data": {
        "InChI": "InChI=1S/C9H7ClN2O/c1-5-11-8-3-2-6(10)4-7(8)9(13)12-5/h2-4H,1H3,(H,11,12,13)",
        "InChIKey": null,
        "Canonical SMILES": "O=C1N=C(NC2=CC=C(Cl)C=C12)C",
        "Molecular Formula": "C<sub>9</sub>H<sub>7</sub>ClN<sub>2</sub>O",
        "Molecular Mass": "194.62",
        "Melting Point": "287 °C"
    }
}