{
    "cas_no": "225525-50-8",
    "key_name": "2-[[(1,1-Dimethylethoxy)carbonyl]amino]-6-benzothiazolecarboxylic acid",
    "cn_name": "2-N-BOC-氨基苯并噻唑-6-羧基 酸;",
    "alternate_name": "6-Benzothiazolecarboxylic acid, 2-[[(1,1-dimethylethoxy)carbonyl]amino]-;2-[[(1,1-Dimethylethoxy)carbonyl]amino]-6-benzothiazolecarboxylic acid;2-<em>tert</em>-Butoxycarbonylaminobenzothiazole-6-carboxylic acid;2-(<em>N</em>-<em>tert</em>-Butoxycarbonylamino)benzothiazole-6-carboxylic acid;2-(<em>tert</em>-Butoxycarbonylamino)-4-benzothiazole-6-carboxylic acid;2-[[(<em>tert</em>-Butoxy)carbonyl]amino]-1,3-benzothiazole-6-carboxylic acid",
    "duplicated_cas_no": "",
    "SMILES": "N(C(OC(C)(C)C)=O)C=1SC=2C(N1)=CC=C(C(O)=O)C2",
    "meta_data": {
        "InChI": "InChI=1S/C13H14N2O4S/c1-13(2,3)19-12(18)15-11-14-8-5-4-7(10(16)17)6-9(8)20-11/h4-6H,1-3H3,(H,16,17)(H,14,15,18)",
        "InChIKey": null,
        "Canonical SMILES": "O=C(O)C=1C=CC=2N=C(SC2C1)NC(=O)OC(C)(C)C",
        "Molecular Formula": "C<sub>13</sub>H<sub>14</sub>N<sub>2</sub>O<sub>4</sub>S",
        "Molecular Mass": "294.33",
        "Melting Point": "&gt;300 °C"
    }
}