{
    "cas_no": "542-10-9",
    "key_name": "Ethylidene diacetate",
    "cn_name": "乙烯二乙酯;1,1-乙二醇二乙酸酯;",
    "alternate_name": "1,1-Ethanediol, 1,1-diacetate;1,1-Ethanediol, diacetate;1,1-Diacetoxyethane;Ethylidene diacetate;Ethylidene acetate;NSC 8852;1-(Acetyloxy)ethyl acetate;1-Acetyloxyethyl acetate",
    "duplicated_cas_no": "",
    "SMILES": "O(C(OC(C)=O)C)C(C)=O",
    "meta_data": {
        "InChI": "InChI=1S/C6H10O4/c1-4(7)9-6(3)10-5(2)8/h6H,1-3H3",
        "InChIKey": null,
        "Canonical SMILES": "O=C(OC(OC(=O)C)C)C",
        "Molecular Formula": "C<sub>6</sub>H<sub>10</sub>O<sub>4</sub>",
        "Molecular Mass": "146.14",
        "Boiling Point": "169 °C",
        "Melting Point": "18.9 °C"
    }
}