{
    "cas_no": "4171-83-9",
    "key_name": "2-Nitrophenyl phenyl sulfide",
    "cn_name": "2-硝基二苯硫醚;",
    "alternate_name": "Benzene, 1-nitro-2-(phenylthio)-;Sulfide, <em>o</em>-nitrophenyl phenyl;1-Nitro-2-(phenylthio)benzene;2-Nitrodiphenyl sulfide;2-Nitrophenyl phenyl sulfide;<em>o</em>-Nitrophenyl phenyl sulfide;2-Nitrophenyl phenyl thioether;NSC 408025;NSC 633005;1-Nitro-2-phenylsulfanylbenzene;(2-Nitrophenyl)(phenyl)sulfane",
    "duplicated_cas_no": "",
    "SMILES": "S(C1=C(N(=O)=O)C=CC=C1)C2=CC=CC=C2",
    "meta_data": {
        "InChI": "InChI=1S/C12H9NO2S/c14-13(15)11-8-4-5-9-12(11)16-10-6-2-1-3-7-10/h1-9H",
        "InChIKey": null,
        "Canonical SMILES": "O=N(=O)C=1C=CC=CC1SC=2C=CC=CC2",
        "Molecular Formula": "C<sub>12</sub>H<sub>9</sub>NO<sub>2</sub>S",
        "Molecular Mass": "231.27",
        "Melting Point": "82 °C"
    }
}