{
    "cas_no": "7781-98-8",
    "key_name": "Ethyl 3-hydroxybenzoate",
    "cn_name": "3-羟基苯甲酸乙酯;间羟基苯甲酸乙酯;",
    "alternate_name": "Benzoic acid, 3-hydroxy-, ethyl ester;Benzoic acid, <em>m</em>-hydroxy-, ethyl ester;Ethyl <em>m</em>-hydroxybenzoate;<em>m</em>-Ethoxycarbonylphenol;Ethyl 3-hydroxybenzoate;3-Hydroxybenzoic acid ethyl ester;<em>m</em>-Hydroxybenzoic acid ethyl ester;NSC 32427",
    "duplicated_cas_no": "",
    "SMILES": "C(OCC)(=O)C1=CC(O)=CC=C1",
    "meta_data": {
        "InChI": "InChI=1S/C9H10O3/c1-2-12-9(11)7-4-3-5-8(10)6-7/h3-6,10H,2H2,1H3",
        "InChIKey": null,
        "Canonical SMILES": "O=C(OCC)C=1C=CC=C(O)C1",
        "Molecular Formula": "C<sub>9</sub>H<sub>10</sub>O<sub>3</sub>",
        "Molecular Mass": "166.17",
        "Melting Point": "74 °C",
        "Density": "1.168 g/cm³ @ Press: 750 Torr"
    }
}