{
    "cas_no": "1750-45-4",
    "key_name": "6-Hydroxychlorzoxazone",
    "cn_name": "6-羟基氯唑沙宗;5-氯-6-羟基-2(3H)-苯并恶唑酮;",
    "alternate_name": "2(3<em>H</em>)-Benzoxazolone, 5-chloro-6-hydroxy-;2-Benzoxazolinone, 5-chloro-6-hydroxy-;2,6-Benzoxazolediol, 5-chloro-;5-Chloro-6-hydroxy-2(3<em>H</em>)-benzoxazolone;6-Hydroxychlorzoxazone;NSC 24955;6-Hydroxylchlorzoxazone;6-Hydroxychloroxazone",
    "duplicated_cas_no": "",
    "SMILES": "ClC=1C=C2C(=CC1O)OC(=O)N2",
    "meta_data": {
        "InChI": "InChI=1S/C7H4ClNO3/c8-3-1-4-6(2-5(3)10)12-7(11)9-4/h1-2,10H,(H,9,11)",
        "InChIKey": null,
        "Canonical SMILES": "O=C1OC2=CC(O)=C(Cl)C=C2N1",
        "Molecular Formula": "C<sub>7</sub>H<sub>4</sub>ClNO<sub>3</sub>",
        "Molecular Mass": "185.56",
        "Melting Point": "245-247 °C"
    }
}