{
    "cas_no": "14003-34-0",
    "key_name": "3-Methyl-2(1<em>H</em>)-quinoxalinone",
    "cn_name": "3-甲基-3-喹诺醇;3-甲基-2-羟基喹喔啉;",
    "alternate_name": "2(1<em>H</em>)-Quinoxalinone, 3-methyl-;3-Methyl-2(1<em>H</em>)-quinoxalinone;2-Hydroxy-3-methylquinoxaline;3-Methyl-2-quinoxalone;3-Methyl-2-quinoxalinol;3-Methyl-2-quinoxalinone;3-Methyl-2-hydroxyquinoxaline;NSC 149824;NSC 17798;NSC 38589;3-Methyl-1<em>H</em>-quinoxalin-2-one",
    "duplicated_cas_no": "4326-46-9;1226891-44-6",
    "SMILES": "CC1=NC=2C(NC1=O)=CC=CC2",
    "meta_data": {
        "InChI": "InChI=1S/C9H8N2O/c1-6-9(12)11-8-5-3-2-4-7(8)10-6/h2-5H,1H3,(H,11,12)",
        "InChIKey": null,
        "Canonical SMILES": "O=C1NC=2C=CC=CC2N=C1C",
        "Molecular Formula": "C<sub>9</sub>H<sub>8</sub>N<sub>2</sub>O",
        "Molecular Mass": "160.17",
        "Melting Point": "245 °C"
    }
}