{
    "cas_no": "144981-86-2",
    "key_name": "2,7-Diiodo-9,9-dimethyl-9<em>H</em>-fluorene",
    "cn_name": "2,7-二碘-9,9-二甲基芴;9,9-二甲基-2,7-二碘芴;",
    "alternate_name": "9<em>H</em>-Fluorene, 2,7-diiodo-9,9-dimethyl-;2,7-Diiodo-9,9-dimethyl-9<em>H</em>-fluorene;2,7-Diiodo-9,9-dimethylfluorene;9,9-Dimethyl-2,7-diiodofluorene;9,9-Dimethyl-9<em>H</em>-2,7-diiodofluorene",
    "duplicated_cas_no": "",
    "SMILES": "CC1(C)C=2C(C=3C1=CC(I)=CC3)=CC=C(I)C2",
    "meta_data": {
        "InChI": "InChI=1S/C15H12I2/c1-15(2)13-7-9(16)3-5-11(13)12-6-4-10(17)8-14(12)15/h3-8H,1-2H3",
        "InChIKey": null,
        "Canonical SMILES": "IC=1C=CC=2C3=CC=C(I)C=C3C(C2C1)(C)C",
        "Molecular Formula": "C<sub>15</sub>H<sub>12</sub>I<sub>2</sub>",
        "Molecular Mass": "446.06",
        "Melting Point": "195 °C"
    }
}