{
    "cas_no": "2713-34-0",
    "key_name": "3,5-Difluorophenol",
    "cn_name": "3,5-二氟苯酚;",
    "alternate_name": "Phenol, 3,5-difluoro-;3,5-Difluorophenol",
    "duplicated_cas_no": "",
    "SMILES": "FC1=CC(F)=CC(O)=C1",
    "meta_data": {
        "InChI": "InChI=1S/C6H4F2O/c7-4-1-5(8)3-6(9)2-4/h1-3,9H",
        "InChIKey": null,
        "Canonical SMILES": "FC=1C=C(F)C=C(O)C1",
        "Molecular Formula": "C<sub>6</sub>H<sub>4</sub>F<sub>2</sub>O",
        "Molecular Mass": "130.09",
        "Boiling Point": "80 °C @ Press: 15 mmHg",
        "Melting Point": "54.97 °C"
    }
}