{
    "cas_no": "2923-17-3",
    "key_name": "Lithium trifluoroacetate",
    "cn_name": "三氟乙酸锂;",
    "alternate_name": "Acetic acid, 2,2,2-trifluoro-, lithium salt (1:1);Acetic acid, trifluoro-, lithium salt;Lithium trifluoroacetate",
    "duplicated_cas_no": "2020075-17-4;2830558-17-1",
    "SMILES": "C(C(O)=O)(F)(F)F.[Li]",
    "meta_data": {
        "InChI": "InChI=1S/C2HF3O2.Li/c3-2(4,5)1(6)7;/h(H,6,7);",
        "InChIKey": null,
        "Canonical SMILES": "[Li].O=C(O)C(F)(F)F",
        "Molecular Formula": "C<sub>2</sub>HF<sub>3</sub>O<sub>2</sub>.Li",
        "Molecular Mass": "",
        "Melting Point": "250 °C",
        "Density": "1.743 g/cm³"
    }
}