{
    "cas_no": "2679-14-3",
    "key_name": "<em>N</em>-Methyl-β-alanine",
    "cn_name": null,
    "alternate_name": "β-Alanine, <em>N</em>-methyl-;<em>N</em>-Methyl-β-alanine;<em>N</em>-Methyl-β-aminopropionic acid;3-(Methylamino)propionic acid;3-(Methylamino)propanoic acid",
    "duplicated_cas_no": "",
    "SMILES": "C(C(O)=O)CNC",
    "meta_data": {
        "InChI": "InChI=1S/C4H9NO2/c1-5-3-2-4(6)7/h5H,2-3H2,1H3,(H,6,7)",
        "InChIKey": null,
        "Canonical SMILES": "O=C(O)CCNC",
        "Molecular Formula": "C<sub>4</sub>H<sub>9</sub>NO<sub>2</sub>",
        "Molecular Mass": "103.12",
        "Boiling Point": "65 °C @ Press: 15 Torr"
    }
}