{
    "cas_no": "15364-56-4",
    "key_name": "(Dimethylamino)acetone",
    "cn_name": "(二甲氨基)丙酮;",
    "alternate_name": "2-Propanone, 1-(dimethylamino)-;2-Propanone, (dimethylamino)-;1-(Dimethylamino)-2-propanone;<em>N</em>,<em>N</em>-Dimethylaminoacetone;(Dimethylamino)acetone;1-Dimethylaminoacetone;Acetonyldimethylamine;α-(<em>N</em>,<em>N</em>-Dimethylamino)propanone;Diethylaminomethyl methyl ketone;NSC 96617;<em>N</em>,<em>N</em>-Dimethylamino-2-propanone",
    "duplicated_cas_no": "",
    "SMILES": "C(C(C)=O)N(C)C",
    "meta_data": {
        "InChI": "InChI=1S/C5H11NO/c1-5(7)4-6(2)3/h4H2,1-3H3",
        "InChIKey": null,
        "Canonical SMILES": "O=C(C)CN(C)C",
        "Molecular Formula": "C<sub>5</sub>H<sub>11</sub>NO",
        "Molecular Mass": "101.15",
        "Boiling Point": "35-36 °C @ Press: 25 Torr",
        "Density": "0.8688 g/cm³ @ Temp: 20 °C"
    }
}