{
    "cas_no": "726-42-1",
    "key_name": "<em>N</em>,<em>N</em>′-Methanetetraylbis[4-methylbenzenamine]",
    "cn_name": "1,3-二对甲苯基碳二酰亚胺;",
    "alternate_name": "Benzenamine, <em>N</em>,<em>N</em>′-methanetetraylbis[4-methyl-;Carbodiimide, di-<em>p</em>-tolyl-;<em>N</em>,<em>N</em>′-Methanetetraylbis[4-methylbenzenamine];Di-<em>p</em>-tolylcarbodiimide;<em>N</em>,<em>N</em>′-Bis(<em>p</em>-tolyl)carbodiimide;<em>N</em>,<em>N</em>′-Di-<em>p</em>-tolylcarbodiimide;Bis(4-methylphenyl)carbodiimide;4,4′-Bitolylcarbodiimide;4,4′-Ditolylcarbodiimide;1,3-Di-<em>p</em>-tolylcarbodiimide;Bis(4-tolyl)carbodiimide;NSC 20627;1,3-Di-<em>o</em>-tolyl carbodiimide",
    "duplicated_cas_no": "",
    "SMILES": "N(=C=NC1=CC=C(C)C=C1)C2=CC=C(C)C=C2",
    "meta_data": {
        "InChI": "InChI=1S/C15H14N2/c1-12-3-7-14(8-4-12)16-11-17-15-9-5-13(2)6-10-15/h3-10H,1-2H3",
        "InChIKey": null,
        "Canonical SMILES": "C(=NC1=CC=C(C=C1)C)=NC2=CC=C(C=C2)C",
        "Molecular Formula": "C<sub>15</sub>H<sub>14</sub>N<sub>2</sub>",
        "Molecular Mass": "222.29",
        "Boiling Point": "165 °C @ Press: 2.4 Torr",
        "Melting Point": "58.5 °C",
        "Density": "1.15 g/cm³"
    }
}