{
    "cas_no": "20020-02-4",
    "key_name": "1,2,3,4-Tetrachloronaphthalene",
    "cn_name": "1,2,3,4-四氯萘;1,2,3,4-四氯萘;1,2,3,4-四氯代萘;",
    "alternate_name": "Naphthalene, 1,2,3,4-tetrachloro-;1,2,3,4-Tetrachloronaphthalene;TCN;PCN 27;NSC 524443",
    "duplicated_cas_no": "",
    "SMILES": "ClC=1C2=C(C(Cl)=C(Cl)C1Cl)C=CC=C2",
    "meta_data": {
        "InChI": "InChI=1S/C10H4Cl4/c11-7-5-3-1-2-4-6(5)8(12)10(14)9(7)13/h1-4H",
        "InChIKey": null,
        "Canonical SMILES": "ClC=1C(Cl)=C(Cl)C=2C=CC=CC2C1Cl",
        "Molecular Formula": "C<sub>10</sub>H<sub>4</sub>Cl<sub>4</sub>",
        "Molecular Mass": "265.95",
        "Melting Point": "199 °C"
    }
}