{
    "cas_no": "112-36-7",
    "key_name": "Diethylene glycol diethyl ether",
    "cn_name": "二乙二醇二乙醚;",
    "alternate_name": "Ethane, 1,1′-oxybis[2-ethoxy-;Ether, bis(2-ethoxyethyl);1,1′-Oxybis[2-ethoxyethane];3,6,9-Trioxaundecane;Diethyl Carbitol;2-(2-Ethoxyethoxy)-1-ethoxyethane;Diethylene glycol diethyl ether;Bis(2-ethoxyethyl) ether;Ethanol, 2,2′-oxybis-, diethyl ether;Ethyldiglyme;2-Ethoxyethyl ether;DEDG;1-Ethoxy-2-(2-ethoxyethoxy)ethane;Hisolve EDE;B 0767",
    "duplicated_cas_no": "",
    "SMILES": "O(CCOCC)CCOCC",
    "meta_data": {
        "InChI": "InChI=1S/C8H18O3/c1-3-9-5-7-11-8-6-10-4-2/h3-8H2,1-2H3",
        "InChIKey": null,
        "Canonical SMILES": "O(CC)CCOCCOCC",
        "Molecular Formula": "C<sub>8</sub>H<sub>18</sub>O<sub>3</sub>",
        "Molecular Mass": "162.23",
        "Boiling Point": "188 °C @ Press: 760 Torr",
        "Melting Point": "-44 °C",
        "Density": "0.907 g/cm³ @ Temp: 20 °C"
    }
}