{
    "cas_no": "186598-40-3",
    "key_name": "<em>N</em>,<em>N</em>′-Bis(1,1-dimethylethyl)silanediamine",
    "cn_name": null,
    "alternate_name": "Silanediamine, <em>N</em>,<em>N</em>′-bis(1,1-dimethylethyl)-;<em>N</em>,<em>N</em>′-Bis(1,1-dimethylethyl)silanediamine;Bis(<em>tert</em>-butylamino)silane;BTBAS;<em>N</em>,<em>N</em>′-Bis-<em>tert</em>-butylsilanediamine",
    "duplicated_cas_no": "",
    "SMILES": "N(C(C)(C)C)[SiH2]NC(C)(C)C",
    "meta_data": {
        "InChI": "InChI=1S/C8H22N2Si/c1-7(2,3)9-11-10-8(4,5)6/h9-10H,11H2,1-6H3",
        "InChIKey": null,
        "Canonical SMILES": "N([SiH2]NC(C)(C)C)C(C)(C)C",
        "Molecular Formula": "C<sub>8</sub>H<sub>22</sub>N<sub>2</sub>Si",
        "Molecular Mass": "174.36",
        "Boiling Point": "167 °C",
        "Density": "0.816 g/cm³"
    }
}