{
    "cas_no": "7688-21-3",
    "key_name": "<em>cis</em>-2-Hexene",
    "cn_name": null,
    "alternate_name": "2-Hexene, (2<em>Z</em>)-;2-Hexene, (<em>Z</em>)-;2-Hexene, <em>cis</em>-;(2<em>Z</em>)-2-Hexene;<em>cis</em>-2-Hexene;(<em>Z</em>)-2-Hexene",
    "duplicated_cas_no": "",
    "SMILES": "C(/C=C\\C)CC",
    "meta_data": {
        "InChI": "InChI=1S/C6H12/c1-3-5-6-4-2/h3,5H,4,6H2,1-2H3/b5-3-",
        "InChIKey": null,
        "Canonical SMILES": "C(=CCCC)C",
        "Molecular Formula": "C<sub>6</sub>H<sub>12</sub>",
        "Molecular Mass": "84.16",
        "Boiling Point": "68.8 °C",
        "Melting Point": "-141.1 °C",
        "Density": "0.683 g/cm³ @ Temp: 25 °C"
    }
}