{
    "cas_no": "5452-37-9",
    "key_name": "Cyclooctylamine",
    "cn_name": "环辛胺;氨基环辛烷;",
    "alternate_name": "Cyclooctanamine;Cyclooctylamine;Aminocyclooctane;NSC 18965;SKF 23880A",
    "duplicated_cas_no": "",
    "SMILES": "NC1CCCCCCC1",
    "meta_data": {
        "InChI": "InChI=1S/C8H17N/c9-8-6-4-2-1-3-5-7-8/h8H,1-7,9H2",
        "InChIKey": null,
        "Canonical SMILES": "NC1CCCCCCC1",
        "Molecular Formula": "C<sub>8</sub>H<sub>17</sub>N",
        "Molecular Mass": "127.23",
        "Boiling Point": "190 °C",
        "Melting Point": "-48 °C"
    }
}