{
    "cas_no": "131674-40-3",
    "key_name": "1-(2-Methoxy-3-pyridinyl)ethanone",
    "cn_name": null,
    "alternate_name": "Ethanone, 1-(2-methoxy-3-pyridinyl)-;1-(2-Methoxy-3-pyridinyl)ethanone;1-(2-Methoxypyridin-3-yl)ethan-1-one",
    "duplicated_cas_no": "",
    "SMILES": "O(C)C1=C(C(C)=O)C=CC=N1",
    "meta_data": {
        "InChI": "InChI=1S/C8H9NO2/c1-6(10)7-4-3-5-9-8(7)11-2/h3-5H,1-2H3",
        "InChIKey": null,
        "Canonical SMILES": "O=C(C1=CC=CN=C1OC)C",
        "Molecular Formula": "C<sub>8</sub>H<sub>9</sub>NO<sub>2</sub>",
        "Molecular Mass": "151.16",
        "Boiling Point": "62 °C @ Press: 9 Torr"
    }
}