{
    "cas_no": "2150-46-1",
    "key_name": "Methyl 2,5-dihydroxybenzoate",
    "cn_name": null,
    "alternate_name": "Benzoic acid, 2,5-dihydroxy-, methyl ester;Gentisic acid, methyl ester;Methyl 2,5-dihydroxybenzoate;Methyl gentisate;2,5-Dihydroxybenzoic acid methyl ester;Methoxycarbonylhydroquinone;NSC 618316;2-Methoxycarbonyl-1,4-Benzenediol;2-(Methoxycarbonyl)hydroquinone",
    "duplicated_cas_no": "",
    "SMILES": "C(OC)(=O)C1=C(O)C=CC(O)=C1",
    "meta_data": {
        "InChI": "InChI=1S/C8H8O4/c1-12-8(11)6-4-5(9)2-3-7(6)10/h2-4,9-10H,1H3",
        "InChIKey": null,
        "Canonical SMILES": "O=C(OC)C1=CC(O)=CC=C1O",
        "Molecular Formula": "C<sub>8</sub>H<sub>8</sub>O<sub>4</sub>",
        "Molecular Mass": "168.15",
        "Boiling Point": "55 °C @ Press: 0.01 Torr",
        "Melting Point": "86 °C"
    }
}