{
    "cas_no": "1303-28-2",
    "key_name": "Arsenic oxide (As<sub>2</sub>O<sub>5</sub>)",
    "cn_name": "五氧化二砷;",
    "alternate_name": "Arsenic oxide (As<sub>2</sub>O<sub>5</sub>);Arsenic pentoxide;Diarsenic pentoxide;Arsenic anhydride;Arsenic oxide (As<sub>2</sub>O<sub>5</sub>);Arsenic (V) oxide;Diarsonic pentoxide;Arsenic oxide (As<sub>4</sub>O<sub>10</sub>);Arsenic(V) pentoxide",
    "duplicated_cas_no": "12355-85-0;13843-65-7;856565-65-6",
    "SMILES": "[O].[As]",
    "meta_data": {
        "InChI": "InChI=1S/As.O",
        "InChIKey": null,
        "Canonical SMILES": "[O].[As]",
        "Molecular Formula": "As.O",
        "Molecular Mass": "",
        "Melting Point": "~300 °C (decomp) (approx)",
        "Density": "4.32 g/cm³"
    }
}