{
    "uri": "substance/pt/1303282",
    "rn": "1303-28-2",
    "name": "Arsenic oxide (As<sub>2</sub>O<sub>5</sub>)",
    "images": [],
    "inchi": "InChI=1S/As.O",
    "inchiKey": "InChIKey=BFVBQNYINQMZDO-UHFFFAOYSA-N",
    "smile": "[O].[As]",
    "canonicalSmile": "[O].[As]",
    "molecularFormula": "As.O",
    "molecularMass": "",
    "experimentalProperties": [
        {
            "name": "Melting Point",
            "property": "~300 °C (decomp) (approx)",
            "sourceNumber": 1
        },
        {
            "name": "Density",
            "property": "4.32 g/cm³",
            "sourceNumber": 1
        }
    ],
    "propertyCitations": [
        {
            "docUri": "",
            "sourceNumber": 1,
            "source": "Hazardous Substances Data Bank data were obtained from the National Library of Medicine (US)"
        }
    ],
    "synonyms": [
        "Arsenic oxide (As<sub>2</sub>O<sub>5</sub>)",
        "Arsenic pentoxide",
        "Diarsenic pentoxide",
        "Arsenic anhydride",
        "Arsenic oxide (As<sub>2</sub>O<sub>5</sub>)",
        "Arsenic (V) oxide",
        "Diarsonic pentoxide",
        "Arsenic oxide (As<sub>4</sub>O<sub>10</sub>)",
        "Arsenic(V) pentoxide"
    ],
    "replacedRns": [
        "12355-85-0",
        "13843-65-7",
        "856565-65-6"
    ],
    "hasMolfile": true,
    "source": "https://commonchemistry.cas.org/detail?cas_rn=1303-28-2"
}