{
    "cas_no": "2244-16-8",
    "key_name": "(+)-Carvone",
    "cn_name": "右旋香芹酮;",
    "alternate_name": "2-Cyclohexen-1-one, 2-methyl-5-(1-methylethenyl)-, (5<em>S</em>)-;<em>p</em>-Mentha-6,8-dien-2-one, (<em>S</em>)-(+)-;2-Cyclohexen-1-one, 2-methyl-5-(1-methylethenyl)-, (<em>S</em>)-;(5<em>S</em>)-2-Methyl-5-(1-methylethenyl)-2-cyclohexen-1-one;(+)-Carvone;<em>d</em>-Carvone;<em>d</em>-1-Methyl-4-isopropenyl-6-cyclohexen-2-one;Carvone, (+)-;(<em>S</em>)-Carvone;(<em>S</em>)-(+)-Carvone;<span class=\"text-smallcaps\">D</span>-(+)-Carvone;<span class=\"text-smallcaps\">D</span>-Carvone;Talent;(<em>S</em>)-(+)-<em>p</em>-Mentha-6,8-dien-2-one;(<em>S</em>)-2-Methyl-5-(1-methylethenyl)-2-cyclohexen-1-one;(<em>S</em>)-2-Methyl-5-(prop-1-en-2-yl)cyclohex-2-en-1-one;(5S)-2-Methyl-5-(prop-1-en-2-yl)cyclohex-2-en-1-one;(<em>S</em>)-2-Methyl-5-(prop-1-en-2-yl)cyclohex-2-enone",
    "duplicated_cas_no": "53763-73-8",
    "SMILES": "C(C)(=C)[C@@H]1CC(=O)C(C)=CC1",
    "meta_data": {
        "InChI": "InChI=1S/C10H14O/c1-7(2)9-5-4-8(3)10(11)6-9/h4,9H,1,5-6H2,2-3H3/t9-/m0/s1",
        "InChIKey": null,
        "Canonical SMILES": "O=C1C(=CCC(C(=C)C)C1)C",
        "Molecular Formula": "C<sub>10</sub>H<sub>14</sub>O",
        "Molecular Mass": "150.22",
        "Boiling Point": "231 °C",
        "Melting Point": "&lt;15 °C",
        "Density": "0.960 g/cm³ @ Temp: 24 °C"
    }
}