{
    "cas_no": "10242-02-1",
    "key_name": "5-Methyl-1<em>H</em>-indole-3-carboxylic acid",
    "cn_name": null,
    "alternate_name": "1<em>H</em>-Indole-3-carboxylic acid, 5-methyl-;Indole-3-carboxylic acid, 5-methyl-;5-Methyl-1<em>H</em>-indole-3-carboxylic acid;5-Methylindole-3-carboxylic acid",
    "duplicated_cas_no": "",
    "SMILES": "C(O)(=O)C=1C=2C(NC1)=CC=C(C)C2",
    "meta_data": {
        "InChI": "InChI=1S/C10H9NO2/c1-6-2-3-9-7(4-6)8(5-11-9)10(12)13/h2-5,11H,1H3,(H,12,13)",
        "InChIKey": null,
        "Canonical SMILES": "O=C(O)C1=CNC=2C=CC(=CC21)C",
        "Molecular Formula": "C<sub>10</sub>H<sub>9</sub>NO<sub>2</sub>",
        "Molecular Mass": "175.18",
        "Melting Point": "202 °C"
    }
}