{
    "cas_no": "3405-88-7",
    "key_name": "2-[(4-Chlorophenyl)thio]acetic acid",
    "cn_name": "(4-氯苯基硫)乙酸;",
    "alternate_name": "Acetic acid, 2-[(4-chlorophenyl)thio]-;Acetic acid, [(<em>p</em>-chlorophenyl)thio]-;Acetic acid, [(4-chlorophenyl)thio]-;2-[(4-Chlorophenyl)thio]acetic acid;[(<em>p</em>-Chlorophenyl)thio]acetic acid;WR 5994;2-(<em>p</em>-Chlorophenylthio)acetic acid;W 2683;<em>p</em>-Chlorophenylmercaptoacetic acid;[(4-Chlorophenyl)thio]acetic acid;<em>S</em>-(<em>p</em>-Chlorophenyl)mercaptoacetic acid;NSC 33051;2-[(4-Chlorophenyl)sulfanyl]acetic acid;2-(4-Chlorophenyl)sulfanylacetic acid",
    "duplicated_cas_no": "",
    "SMILES": "S(CC(O)=O)C1=CC=C(Cl)C=C1",
    "meta_data": {
        "InChI": "InChI=1S/C8H7ClO2S/c9-6-1-3-7(4-2-6)12-5-8(10)11/h1-4H,5H2,(H,10,11)",
        "InChIKey": null,
        "Canonical SMILES": "O=C(O)CSC1=CC=C(Cl)C=C1",
        "Molecular Formula": "C<sub>8</sub>H<sub>7</sub>ClO<sub>2</sub>S",
        "Molecular Mass": "202.66",
        "Melting Point": "105 °C"
    }
}