{
    "cas_no": "1308-04-9",
    "key_name": "Cobalt oxide (Co<sub>2</sub>O<sub>3</sub>)",
    "cn_name": null,
    "alternate_name": "Cobalt oxide (Co<sub>2</sub>O<sub>3</sub>);C.I. 77323;Cobaltic oxide;Cobalt peroxide;Dicobalt trioxide;Cobalt trioxide;Dicobalt oxide;Cobalt(3+) oxide;Cobalt sesquioxide;Cobalt(III) oxide;Cobalt oxide (CoO<sub>1.5</sub>)",
    "duplicated_cas_no": "12314-25-9;25729-03-7;164057-75-4;496862-98-7;1380168-21-7;2460293-75-6",
    "SMILES": "",
    "meta_data": {
        "InChI": "",
        "InChIKey": null,
        "Canonical SMILES": "",
        "Molecular Formula": "Co<sub>2</sub>O<sub>3</sub>",
        "Molecular Mass": "",
        "Melting Point": "895 °C (decomp)",
        "Density": "5.2 g/cm³"
    }
}