{
    "uri": "substance/pt/1308049",
    "rn": "1308-04-9",
    "name": "Cobalt oxide (Co<sub>2</sub>O<sub>3</sub>)",
    "images": [],
    "inchi": "",
    "inchiKey": "",
    "smile": "",
    "canonicalSmile": "",
    "molecularFormula": "Co<sub>2</sub>O<sub>3</sub>",
    "molecularMass": "",
    "experimentalProperties": [
        {
            "name": "Melting Point",
            "property": "895 °C (decomp)",
            "sourceNumber": 1
        },
        {
            "name": "Density",
            "property": "5.2 g/cm³",
            "sourceNumber": 1
        }
    ],
    "propertyCitations": [
        {
            "docUri": "",
            "sourceNumber": 1,
            "source": "International Chemical Safety Cards data were obtained from the National Institute for Occupational Safety and Health (US)"
        }
    ],
    "synonyms": [
        "Cobalt oxide (Co<sub>2</sub>O<sub>3</sub>)",
        "C.I. 77323",
        "Cobaltic oxide",
        "Cobalt peroxide",
        "Dicobalt trioxide",
        "Cobalt trioxide",
        "Dicobalt oxide",
        "Cobalt(3+) oxide",
        "Cobalt sesquioxide",
        "Cobalt(III) oxide",
        "Cobalt oxide (CoO<sub>1.5</sub>)"
    ],
    "replacedRns": [
        "12314-25-9",
        "25729-03-7",
        "164057-75-4",
        "496862-98-7",
        "1380168-21-7",
        "2460293-75-6"
    ],
    "hasMolfile": false,
    "source": "https://commonchemistry.cas.org/detail?cas_rn=1308-04-9"
}