{
    "cas_no": "2373-80-0",
    "key_name": "3′,4′-Methylenedioxycinnamic acid",
    "cn_name": "3,4-(亚甲二氧)肉桂酸;",
    "alternate_name": "2-Propenoic acid, 3-(1,3-benzodioxol-5-yl)-;Cinnamic acid, 3,4-(methylenedioxy)-;3-(1,3-Benzodioxol-5-yl)-2-propenoic acid;3,4-(Methylenedioxy)benzene-3-acrylic acid;Cinnamic acid, 3,4-[methylenebis(oxy)]-;3,4-(Methylenedioxy)cinnamic acid;3-(3,4-Methylenedioxyphenyl)propenoic acid;Piperonylideneacetic acid;3′,4′-Methylenedioxycinnamic acid;NSC 5953;3-(1,3-Benzodioxol-5-yl)acrylic acid;3-(Benzodioxol-5-yl)acrylic acid",
    "duplicated_cas_no": "",
    "SMILES": "C(=CC(O)=O)C=1C=C2C(=CC1)OCO2",
    "meta_data": {
        "InChI": "InChI=1S/C10H8O4/c11-10(12)4-2-7-1-3-8-9(5-7)14-6-13-8/h1-5H,6H2,(H,11,12)",
        "InChIKey": null,
        "Canonical SMILES": "O=C(O)C=CC1=CC=C2OCOC2=C1",
        "Molecular Formula": "C<sub>10</sub>H<sub>8</sub>O<sub>4</sub>",
        "Molecular Mass": "192.17",
        "Melting Point": "243 °C (decomp)"
    }
}