{
    "cas_no": "7340-22-9",
    "key_name": "3-(2-Pyridinyl)-2-propenoic acid",
    "cn_name": "吡啶-2-丙烯酸;吡啶-2-丙烯酸;",
    "alternate_name": "2-Propenoic acid, 3-(2-pyridinyl)-;2-Pyridineacrylic acid;3-(2-Pyridinyl)-2-propenoic acid;3-(2-Pyridyl)-2-propenoic acid;NSC 63239;3-(2-Pyridyl)acrylic acid;3-(Pyridin-2-yl)acrylic acid",
    "duplicated_cas_no": "",
    "SMILES": "C(=CC(O)=O)C1=CC=CC=N1",
    "meta_data": {
        "InChI": "InChI=1S/C8H7NO2/c10-8(11)5-4-7-3-1-2-6-9-7/h1-6H,(H,10,11)",
        "InChIKey": null,
        "Canonical SMILES": "O=C(O)C=CC1=NC=CC=C1",
        "Molecular Formula": "C<sub>8</sub>H<sub>7</sub>NO<sub>2</sub>",
        "Molecular Mass": "149.15",
        "Melting Point": "194-197 °C (decomp)"
    }
}