{
    "cas_no": "5337-17-7",
    "key_name": "<em>P</em>-(4-Aminophenyl)phosphonic acid",
    "cn_name": null,
    "alternate_name": "Phosphonic acid, <em>P</em>-(4-aminophenyl)-;Phosphonic acid, (<em>p</em>-aminophenyl)-;Phosphonic acid, (4-aminophenyl)-;<em>P</em>-(4-Aminophenyl)phosphonic acid;Phosphanilic acid;(<em>p</em>-Aminophenyl)phosphonic acid;<em>p</em>-Phosphonoaniline;(4-Aminophenyl)phosphonic acid;4-Phosphonoaniline;<em>p</em>-Aminobenzenephosphonic acid;4-Aminobenzenephosphonic acid;NSC 417;NSC 55744",
    "duplicated_cas_no": "61433-37-2",
    "SMILES": "P(=O)(O)(O)C1=CC=C(N)C=C1",
    "meta_data": {
        "InChI": "InChI=1S/C6H8NO3P/c7-5-1-3-6(4-2-5)11(8,9)10/h1-4H,7H2,(H2,8,9,10)",
        "InChIKey": null,
        "Canonical SMILES": "O=P(O)(O)C1=CC=C(N)C=C1",
        "Molecular Formula": "C<sub>6</sub>H<sub>8</sub>NO<sub>3</sub>P",
        "Molecular Mass": "173.11",
        "Boiling Point": "205-208 °C @ Press: 1 Torr",
        "Melting Point": "285 °C"
    }
}