{
    "cas_no": "55814-41-0",
    "key_name": "3′-Isopropoxy-2-methylbenzanilide",
    "cn_name": "灭锈胺;N-(3-异丙氧基苯基)-2-甲基苯甲酰胺;",
    "alternate_name": "Benzamide, 2-methyl-<em>N</em>-[3-(1-methylethoxy)phenyl]-;2-Methyl-<em>N</em>-[3-(1-methylethoxy)phenyl]benzamide;3′-Isopropoxy-2-methylbenzanilide;3′-Isopropoxy-<em>o</em>-toluanilide;2-Methyl-3′-isopropoxybenzanilide;Mepronil;Mepronil (pesticide);Basitac",
    "duplicated_cas_no": "",
    "SMILES": "N(C(=O)C1=C(C)C=CC=C1)C2=CC(OC(C)C)=CC=C2",
    "meta_data": {
        "InChI": "InChI=1S/C17H19NO2/c1-12(2)20-15-9-6-8-14(11-15)18-17(19)16-10-5-4-7-13(16)3/h4-12H,1-3H3,(H,18,19)",
        "InChIKey": null,
        "Canonical SMILES": "O=C(NC=1C=CC=C(OC(C)C)C1)C=2C=CC=CC2C",
        "Molecular Formula": "C<sub>17</sub>H<sub>19</sub>NO<sub>2</sub>",
        "Molecular Mass": "269.34",
        "Melting Point": "92.5 °C"
    }
}