{
    "cas_no": "1046-56-6",
    "key_name": "3-(2-Pyridyl)-5,6-diphenyl-1,2,4-triazine",
    "cn_name": "5,6-联苯基-3-(2-吡啶基)-1,2,4-三吖嗪;3-(2-吡啶基)-5,6-二苯基-1,2,4-三嗪;",
    "alternate_name": "1,2,4-Triazine, 5,6-diphenyl-3-(2-pyridinyl)-;<em>as</em>-Triazine, 5,6-diphenyl-3-(2-pyridyl)-;5,6-Diphenyl-3-(2-pyridinyl)-1,2,4-triazine;3-(2-Pyridyl)-5,6-diphenyl-1,2,4-triazine;5,6-Diphenyl-3-(pyridin-2-yl)-<em>as</em>-triazine;5,6-Diphenyl-3-(2-pyridyl)-1,2,4-triazine;PDT;Ferroprint;Ferrotrace;PDT (ligand);NSC 242686;3-(Pyridin-2-yl)-5,6-diphenyl-1,2,4-triazine",
    "duplicated_cas_no": "",
    "SMILES": "C=1(C(=NN=C(N1)C2=CC=CC=N2)C3=CC=CC=C3)C4=CC=CC=C4",
    "meta_data": {
        "InChI": "InChI=1S/C20H14N4/c1-3-9-15(10-4-1)18-19(16-11-5-2-6-12-16)23-24-20(22-18)17-13-7-8-14-21-17/h1-14H",
        "InChIKey": null,
        "Canonical SMILES": "N1=NC(C2=CC=CC=C2)=C(N=C1C=3N=CC=CC3)C=4C=CC=CC4",
        "Molecular Formula": "C<sub>20</sub>H<sub>14</sub>N<sub>4</sub>",
        "Molecular Mass": "310.35",
        "Melting Point": "189-190 °C"
    }
}