{
    "cas_no": "84-16-2",
    "key_name": "Hexestrol",
    "cn_name": "己烷雌酚;4,4\"-(1,2-二乙基亚乙基)二苯酚;己烷雌酚;",
    "alternate_name": "Phenol, 4,4′-[(1<em>R</em>,2<em>S</em>)-1,2-diethyl-1,2-ethanediyl]bis-, <em>rel</em>-;Phenol, 4,4′-(1,2-diethylethylene)di-, <em>meso</em>-;Phenol, 4,4′-(1,2-diethyl-1,2-ethanediyl)bis-, (<em>R</em>*,<em>S</em>*)-;<em>rel</em>-4,4′-[(1<em>R</em>,2<em>S</em>)-1,2-Diethyl-1,2-ethanediyl]bis[phenol];<em>meso</em>-3,4-Bis(<em>p</em>-hydroxyphenyl)-<em>n</em>-hexane;Cycloestrol;<em>meso</em>-3,4-Di(<em>p</em>-hydroxyphenyl)-<em>n</em>-hexane;Extra-Plex;Hexanoestrol;<em>meso</em>-Hexestrol;Hormoestrol;Synthovo;Syntrogene;Hexestrol;Sinestrol;Estrifar;Estronal;Hexestrofen;Hexoestrol;Synestrol;Synoestrol;Mesohexestrol;Hexron;Erythrohexestrol;NSC 9894;MeSH ID: D006589",
    "duplicated_cas_no": "",
    "SMILES": "[C@H]([C@H](CC)C1=CC=C(O)C=C1)(CC)C2=CC=C(O)C=C2",
    "meta_data": {
        "InChI": "InChI=1/C18H22O2/c1-3-17(13-5-9-15(19)10-6-13)18(4-2)14-7-11-16(20)12-8-14/h5-12,17-20H,3-4H2,1-2H3/t17-,18+",
        "InChIKey": null,
        "Canonical SMILES": "OC1=CC=C(C=C1)C(CC)C(C2=CC=C(O)C=C2)CC",
        "Molecular Formula": "C<sub>18</sub>H<sub>22</sub>O<sub>2</sub>",
        "Molecular Mass": "270.37",
        "Melting Point": "185-188 °C"
    }
}