{
    "cas_no": "5875-06-9",
    "key_name": "Proparacaine hydrochloride",
    "cn_name": "盐酸丙美卡因;丙美卡因盐酸盐;2-二乙基氨基乙基3-氨基-4-丙氧基-苯甲酸酯盐酸盐;",
    "alternate_name": "Benzoic acid, 3-amino-4-propoxy-, 2-(diethylamino)ethyl ester, hydrochloride (1:1);Benzoic acid, 3-amino-4-propoxy-, 2-(diethylamino)ethyl ester, monohydrochloride;2-(Diethylamino)ethyl 3-amino-4-propoxybenzoate hydrochloride;Ophthaine hydrochloride;Proparacaine hydrochloride;2-(Diethylamino)ethyl 3-amino-4-propoxybenzoate monohydrochloride;Ophthain;Alcaine;Chibro-keracaine;Ophthetic;Fluoracaine;Ak-Taine;Paracaine",
    "duplicated_cas_no": "",
    "SMILES": "C(OCCN(CC)CC)(=O)C1=CC(N)=C(OCCC)C=C1.Cl",
    "meta_data": {
        "InChI": "InChI=1S/C16H26N2O3.ClH/c1-4-10-20-15-8-7-13(12-14(15)17)16(19)21-11-9-18(5-2)6-3;/h7-8,12H,4-6,9-11,17H2,1-3H3;1H",
        "InChIKey": null,
        "Canonical SMILES": "Cl.O=C(OCCN(CC)CC)C1=CC=C(OCCC)C(N)=C1",
        "Molecular Formula": "C<sub>16</sub>H<sub>26</sub>N<sub>2</sub>O<sub>3</sub>.ClH",
        "Molecular Mass": "",
        "Melting Point": "182-183.3 °C"
    }
}