{
    "cas_no": "2948-76-7",
    "key_name": "Fisetinidin",
    "cn_name": "氯化非瑟酮定;氯化非瑟酮定;",
    "alternate_name": "1-Benzopyrylium, 2-(3,4-dihydroxyphenyl)-3,7-dihydroxy-, chloride (1:1);Fisetinidin chloride;Flavylium, 3,3′,4′,7-tetrahydroxy-, chloride;1-Benzopyrylium, 2-(3,4-dihydroxyphenyl)-3,7-dihydroxy-, chloride;3,3′,4′,7-Tetrahydroxyflavylium chloride;Fisetinidin;Fizetinidol chloride",
    "duplicated_cas_no": "",
    "SMILES": "OC=1C(=[O+]C2=C(C1)C=CC(O)=C2)C3=CC(O)=C(O)C=C3.[Cl-]",
    "meta_data": {
        "InChI": "InChI=1S/C15H10O5.ClH/c16-10-3-1-8-5-13(19)15(20-14(8)7-10)9-2-4-11(17)12(18)6-9;/h1-7H,(H3-,16,17,18,19);1H",
        "InChIKey": null,
        "Canonical SMILES": "[Cl-].OC=1C=CC=2C=C(O)C(=[O+]C2C1)C=3C=CC(O)=C(O)C3",
        "Molecular Formula": "C<sub>15</sub>H<sub>11</sub>O<sub>5</sub>.Cl",
        "Molecular Mass": "",
        "Melting Point": "270 °C"
    }
}