{
    "cas_no": "70918-00-2",
    "key_name": "1-[(2,3-Dihydro-1,4-benzodioxin-2-yl)carbonyl]piperazine",
    "cn_name": "N-(1,4-苯并二噁烷-2-羰基)哌嗪;N-[(1,4-苯并二恶烷-2-基)羰基]哌嗪;",
    "alternate_name": "Methanone, (2,3-dihydro-1,4-benzodioxin-2-yl)-1-piperazinyl-;Piperazine, 1-[(2,3-dihydro-1,4-benzodioxin-2-yl)carbonyl]-;1,4-Benzodioxin, piperazine deriv.;(2,3-Dihydro-1,4-benzodioxin-2-yl)-1-piperazinylmethanone;1-(1,4-Benzodioxan-2-ylcarbonyl)piperazine;1-[(2,3-Dihydro-1,4-benzodioxin-2-yl)carbonyl]piperazine;(2,3-Dihydrobenzo[<em>b</em>][1,4]dioxin-2-yl)(piperazin-1-yl)methanone;1-(2,3-Dihydro-1,4-benzodioxine-2-carbonyl)piperazine;2,3-Dihydro-1,4-benzodioxin-3-yl(piperazin-1-yl)methanone",
    "duplicated_cas_no": "",
    "SMILES": "C(=O)(C1OC=2C(OC1)=CC=CC2)N3CCNCC3",
    "meta_data": {
        "InChI": "InChI=1S/C13H16N2O3/c16-13(15-7-5-14-6-8-15)12-9-17-10-3-1-2-4-11(10)18-12/h1-4,12,14H,5-9H2",
        "InChIKey": null,
        "Canonical SMILES": "O=C(N1CCNCC1)C2OC=3C=CC=CC3OC2",
        "Molecular Formula": "C<sub>13</sub>H<sub>16</sub>N<sub>2</sub>O<sub>3</sub>",
        "Molecular Mass": "248.28",
        "Melting Point": "85-87 °C"
    }
}