{
    "cas_no": "1009-93-4",
    "key_name": "1,1,3,3,5,5-Hexamethylcyclotrisilazane",
    "cn_name": "六甲基环三硅氮烷;2,2,4,4,6,6-六甲基环三硅氮烷;",
    "alternate_name": "Cyclotrisilazane, 2,2,4,4,6,6-hexamethyl-;2,2,4,4,6,6-Hexamethylcyclotrisilazane;1,1,3,3,5,5-Hexamethylcyclotrisilazane;HMCTS;NSC 139842;2,2,4,4,6,6-Hexamethyl-1,3,5,2,4,6-triazatrisilinane",
    "duplicated_cas_no": "",
    "SMILES": "C[Si]1(C)N[Si](C)(C)N[Si](C)(C)N1",
    "meta_data": {
        "InChI": "InChI=1S/C6H21N3Si3/c1-10(2)7-11(3,4)9-12(5,6)8-10/h7-9H,1-6H3",
        "InChIKey": null,
        "Canonical SMILES": "N1[Si](N[Si](N[Si]1(C)C)(C)C)(C)C",
        "Molecular Formula": "C<sub>6</sub>H<sub>21</sub>N<sub>3</sub>Si<sub>3</sub>",
        "Molecular Mass": "219.51",
        "Boiling Point": "188 °C",
        "Melting Point": "-10 °C",
        "Density": "0.921 g/cm³"
    }
}