{
    "cas_no": "62499-27-8",
    "key_name": "Gastrodin",
    "cn_name": "天麻素;4-羟甲基苯基-beta-D-吡喃葡萄糖甙;",
    "alternate_name": "β-<span class=\"text-smallcaps\">D</span>-Glucopyranoside, 4-(hydroxymethyl)phenyl;4-(Hydroxymethyl)phenyl β-<span class=\"text-smallcaps\">D</span>-glucopyranoside;Gastrodin;4-(β-<span class=\"text-smallcaps\">D</span>-Glucopyranosyloxy)benzyl alcohol;4-Hydroxybenzyl alcohol 4-<em>O</em>-β-<span class=\"text-smallcaps\">D</span>-glucopyranoside;4-(β-<span class=\"text-smallcaps\">D</span>-Glucopyranosyl)-benzylalcohol;Gastrodine",
    "duplicated_cas_no": "",
    "SMILES": "O([C@@H]1O[C@H](CO)[C@@H](O)[C@H](O)[C@H]1O)C2=CC=C(CO)C=C2",
    "meta_data": {
        "InChI": "InChI=1S/C13H18O7/c14-5-7-1-3-8(4-2-7)19-13-12(18)11(17)10(16)9(6-15)20-13/h1-4,9-18H,5-6H2/t9-,10-,11+,12-,13-/m1/s1",
        "InChIKey": null,
        "Canonical SMILES": "OCC1=CC=C(OC2OC(CO)C(O)C(O)C2O)C=C1",
        "Molecular Formula": "C<sub>13</sub>H<sub>18</sub>O<sub>7</sub>",
        "Molecular Mass": "286.28",
        "Melting Point": "114-118 °C"
    }
}