{
    "cas_no": "103286-54-0",
    "key_name": "3-Chloro-1<em>H</em>-pyrazol-4-amine",
    "cn_name": null,
    "alternate_name": "1<em>H</em>-Pyrazol-4-amine, 3-chloro-;3-Chloro-1<em>H</em>-pyrazol-4-amine",
    "duplicated_cas_no": "",
    "SMILES": "NC=1C(Cl)=NNC1",
    "meta_data": {
        "InChI": "InChI=1S/C3H4ClN3/c4-3-2(5)1-6-7-3/h1H,5H2,(H,6,7)",
        "InChIKey": null,
        "Canonical SMILES": "ClC1=NNC=C1N",
        "Molecular Formula": "C<sub>3</sub>H<sub>4</sub>ClN<sub>3</sub>",
        "Molecular Mass": "117.54",
        "Melting Point": "149-150 °C (decomp)"
    }
}