{
    "cas_no": "1633-82-5",
    "key_name": "3-Chloropropanesulfonyl chloride",
    "cn_name": "3-氯丙烷磺酰氯;",
    "alternate_name": "1-Propanesulfonyl chloride, 3-chloro-;3-Chloro-1-propanesulfonyl chloride;γ-Chloropropanesulfonyl chloride;3-Chloropropanesulfonyl chloride;3-Chloropropylsulfonyl chloride;1-Chloro-3-propanesulfonyl chloride;3-Chloropropansulfonyl chloride;NSC 93777;3-Chloropropane-1-sulfonyl chloride;3-Chloro-<em>n</em>-propanesulfonyl chloride",
    "duplicated_cas_no": "",
    "SMILES": "C(S(Cl)(=O)=O)CCCl",
    "meta_data": {
        "InChI": "InChI=1S/C3H6Cl2O2S/c4-2-1-3-8(5,6)7/h1-3H2",
        "InChIKey": null,
        "Canonical SMILES": "O=S(=O)(Cl)CCCCl",
        "Molecular Formula": "C<sub>3</sub>H<sub>6</sub>Cl<sub>2</sub>O<sub>2</sub>S",
        "Molecular Mass": "177.05",
        "Boiling Point": "82-85 °C @ Press: 1 Torr"
    }
}