{
    "cas_no": "38222-83-2",
    "key_name": "2,6-Di-<em>tert</em>-butyl-4-methylpyridine",
    "cn_name": "2,6-二叔丁基-4-甲基吡啶;",
    "alternate_name": "Pyridine, 2,6-bis(1,1-dimethylethyl)-4-methyl-;4-Picoline, 2,6-di-<em>tert</em>-butyl-;2,6-Bis(1,1-dimethylethyl)-4-methylpyridine;2,6-Di-<em>tert</em>-butyl-4-methylpyridine;4-Methyl-2,6-di-<em>tert</em>-butylpyridine;2,6-Bis(<em>tert</em>-butyl)-4-methylpyridine;NSC 175792;DTBMP;2,6-Ditert-butyl-4-methylpyridine",
    "duplicated_cas_no": "168153-23-9",
    "SMILES": "C(C)(C)(C)C=1N=C(C(C)(C)C)C=C(C)C1",
    "meta_data": {
        "InChI": "InChI=1S/C14H23N/c1-10-8-11(13(2,3)4)15-12(9-10)14(5,6)7/h8-9H,1-7H3",
        "InChIKey": null,
        "Canonical SMILES": "N=1C(=CC(=CC1C(C)(C)C)C)C(C)(C)C",
        "Molecular Formula": "C<sub>14</sub>H<sub>23</sub>N",
        "Molecular Mass": "205.34",
        "Boiling Point": "148-153 °C @ Press: 95 Torr",
        "Melting Point": "31-32 °C"
    }
}