{
    "cas_no": "40635-66-3",
    "key_name": "2-(Acetyloxy)-2-methylpropanoyl chloride",
    "cn_name": null,
    "alternate_name": "Propanoyl chloride, 2-(acetyloxy)-2-methyl-;Lactoyl chloride, 2-methyl-, acetate;2-(Acetyloxy)-2-methylpropanoyl chloride;2-Acetoxyisobutyryl chloride;2-Acetoxy-2-methylpropionyl chloride;α-Acetoxyisobutyryl chloride;1-Chlorocarbonyl-1-methylethyl acetate;Acetic acid 1-chlorocarbonyl-1-methylethyl ester;2-Chloro-1,1-dimethyl-2-oxoethyl acetate;2-Acetoxyisobutyroyl chloride;Acetic acid 2-chloro-1,1-dimethyl-2-oxoethyl ester;1-Chloro-2-methyl-1-oxopropan-2-yl acetate;2-Acetoxy-2-methylpropanoyl chloride",
    "duplicated_cas_no": "",
    "SMILES": "C(OC(C)=O)(C(Cl)=O)(C)C",
    "meta_data": {
        "InChI": "InChI=1S/C6H9ClO3/c1-4(8)10-6(2,3)5(7)9/h1-3H3",
        "InChIKey": null,
        "Canonical SMILES": "O=C(OC(C(=O)Cl)(C)C)C",
        "Molecular Formula": "C<sub>6</sub>H<sub>9</sub>ClO<sub>3</sub>",
        "Molecular Mass": "164.59",
        "Boiling Point": "60-65 °C @ Press: 9 Torr",
        "Density": "1.1498 g/cm³ @ Temp: 20 °C"
    }
}