{
    "cas_no": "5315-79-7",
    "key_name": "1-Hydroxypyrene",
    "cn_name": "1-羟基芘;",
    "alternate_name": "1-Pyrenol;1-Hydroxypyrene;3-Hydroxypyrene;3-Pyrenol;NSC 30968",
    "duplicated_cas_no": "",
    "SMILES": "OC1=C2C3=C4C(C=C2)=CC=CC4=CC=C3C=C1",
    "meta_data": {
        "InChI": "InChI=1S/C16H10O/c17-14-9-7-12-5-4-10-2-1-3-11-6-8-13(14)16(12)15(10)11/h1-9,17H",
        "InChIKey": null,
        "Canonical SMILES": "OC1=CC=C2C=CC3=CC=CC=4C=CC1=C2C34",
        "Molecular Formula": "C<sub>16</sub>H<sub>10</sub>O",
        "Molecular Mass": "218.25",
        "Melting Point": "180 °C"
    }
}