{
    "cas_no": "2283-82-1",
    "key_name": "Dehydroandrosterone",
    "cn_name": "脱氢雄甾酮;3-alpha-羟基-5-雄烯-17-酮;",
    "alternate_name": "Androst-5-en-17-one, 3-hydroxy-, (3α)-;Androst-5-en-17-one, 3α-hydroxy-;(3α)-3-Hydroxyandrost-5-en-17-one;Δ5-Androstene-3α-ol-17-one;Dehydroandrosterone;Isoandrostenolone;3α-Hydroxy-5-androsten-17-one;Androst-5-en-3α-ol-17-one",
    "duplicated_cas_no": "",
    "SMILES": "C[C@@]12[C@@]3([C@]([C@]4([C@](C)(CC3)C(=O)CC4)[H])(CC=C1C[C@H](O)CC2)[H])[H]",
    "meta_data": {
        "InChI": "InChI=1S/C19H28O2/c1-18-9-7-13(20)11-12(18)3-4-14-15-5-6-17(21)19(15,2)10-8-16(14)18/h3,13-16,20H,4-11H2,1-2H3/t13-,14+,15+,16+,18+,19+/m1/s1",
        "InChIKey": null,
        "Canonical SMILES": "O=C1CCC2C3CC=C4CC(O)CCC4(C)C3CCC12C",
        "Molecular Formula": "C<sub>19</sub>H<sub>28</sub>O<sub>2</sub>",
        "Molecular Mass": "288.42",
        "Melting Point": "148 °C"
    }
}