{
    "cas_no": "4402-32-8",
    "key_name": "1-(Diethylamino)-2-propanol",
    "cn_name": null,
    "alternate_name": "2-Propanol, 1-(diethylamino)-;1-(Diethylamino)-2-propanol;<em>N</em>,<em>N</em>-Diethylisopropanolamine;NSC 6304;2-(Diethylamino)-1-methylethanol;DEA 2P;<em>N</em>,<em>N</em>-Diethyl-2-hydroxypropylamine;2-(Diethylamino)isopropyl alcohol",
    "duplicated_cas_no": "78738-36-0",
    "SMILES": "N(CC(C)O)(CC)CC",
    "meta_data": {
        "InChI": "InChI=1S/C7H17NO/c1-4-8(5-2)6-7(3)9/h7,9H,4-6H2,1-3H3",
        "InChIKey": null,
        "Canonical SMILES": "OC(C)CN(CC)CC",
        "Molecular Formula": "C<sub>7</sub>H<sub>17</sub>NO",
        "Molecular Mass": "131.22",
        "Boiling Point": "157 °C",
        "Density": "0.8677 g/cm³ @ Temp: 0 °C"
    }
}