{
    "cas_no": "52548-14-8",
    "key_name": "2-Iodo-5-methylbenzoic acid",
    "cn_name": null,
    "alternate_name": "Benzoic acid, 2-iodo-5-methyl-;2-Iodo-5-methylbenzoic acid;5-Methyl-2-iodobenzoic acid",
    "duplicated_cas_no": "",
    "SMILES": "C(O)(=O)C1=C(I)C=CC(C)=C1",
    "meta_data": {
        "InChI": "InChI=1S/C8H7IO2/c1-5-2-3-7(9)6(4-5)8(10)11/h2-4H,1H3,(H,10,11)",
        "InChIKey": null,
        "Canonical SMILES": "O=C(O)C1=CC(=CC=C1I)C",
        "Molecular Formula": "C<sub>8</sub>H<sub>7</sub>IO<sub>2</sub>",
        "Molecular Mass": "262.04",
        "Melting Point": "118 °C"
    }
}