{
    "cas_no": "1689-84-5",
    "key_name": "Bromoxynil",
    "cn_name": null,
    "alternate_name": "Benzonitrile, 3,5-dibromo-4-hydroxy-;3,5-Dibromo-4-hydroxybenzonitrile;Bromoxynil;Broxynil;4-Hydroxy-3,5-dibromobenzonitrile;Brominal;2,6-Dibromo-4-cyanophenol;Labuctril;4-Cyano-2,6-dibromophenol;Labuctril 25;Pardner;Brominil;Toplan;ME 4 Brominal;S 2132;Sabre;1-Cyano-3,5-dibromo-4-hydroxybenzene;Emblem",
    "duplicated_cas_no": "",
    "SMILES": "C(#N)C1=CC(Br)=C(O)C(Br)=C1",
    "meta_data": {
        "InChI": "InChI=1S/C7H3Br2NO/c8-5-1-4(3-10)2-6(9)7(5)11/h1-2,11H",
        "InChIKey": null,
        "Canonical SMILES": "N#CC1=CC(Br)=C(O)C(Br)=C1",
        "Molecular Formula": "C<sub>7</sub>H<sub>3</sub>Br<sub>2</sub>NO",
        "Molecular Mass": "276.91",
        "Melting Point": "194-195 °C"
    }
}