{
    "cas_no": "710-18-9",
    "key_name": "1-Methoxy-4-(trifluoromethoxy)benzene",
    "cn_name": "4-(三氟甲氧基)苯甲醚;",
    "alternate_name": "Benzene, 1-methoxy-4-(trifluoromethoxy)-;1-Methoxy-4-(trifluoromethoxy)benzene;4-(Trifluoromethoxy)anisole",
    "duplicated_cas_no": "",
    "SMILES": "O(C(F)(F)F)C1=CC=C(OC)C=C1",
    "meta_data": {
        "InChI": "InChI=1S/C8H7F3O2/c1-12-6-2-4-7(5-3-6)13-8(9,10)11/h2-5H,1H3",
        "InChIKey": null,
        "Canonical SMILES": "FC(F)(F)OC1=CC=C(OC)C=C1",
        "Molecular Formula": "C<sub>8</sub>H<sub>7</sub>F<sub>3</sub>O<sub>2</sub>",
        "Molecular Mass": "192.14",
        "Boiling Point": "162 °C"
    }
}