{
    "cas_no": "445-01-2",
    "key_name": "5-Bromo-2-chlorobenzotrifluoride",
    "cn_name": "5-溴-2-氯三氟甲苯;",
    "alternate_name": "Benzene, 4-bromo-1-chloro-2-(trifluoromethyl)-;Toluene, 5-bromo-2-chloro-α,α,α-trifluoro-;4-Bromo-1-chloro-2-(trifluoromethyl)benzene;5-Bromo-2-chlorobenzotrifluoride;4-Chloro-3-trifluoromethylphenyl bromide;1-Bromo-4-chloro-3-(trifluoromethyl)benzene;5-Bromo-2-chloro-1-trifluoromethylbenzene;1-Bromo-4-chloro-5-(trifluoromethyl)benzene",
    "duplicated_cas_no": "",
    "SMILES": "C(F)(F)(F)C1=C(Cl)C=CC(Br)=C1",
    "meta_data": {
        "InChI": "InChI=1S/C7H3BrClF3/c8-4-1-2-6(9)5(3-4)7(10,11)12/h1-3H",
        "InChIKey": null,
        "Canonical SMILES": "FC(F)(F)C1=CC(Br)=CC=C1Cl",
        "Molecular Formula": "C<sub>7</sub>H<sub>3</sub>BrClF<sub>3</sub>",
        "Molecular Mass": "259.45",
        "Boiling Point": "197-198 °C @ Press: 740 Torr",
        "Melting Point": "-21.9--20.5 °C"
    }
}