{
    "cas_no": "51618-29-2",
    "key_name": "6-Chloro-2(3<em>H</em>)-benzothiazolethione",
    "cn_name": "6-氯-2-巯基苯并噻唑;",
    "alternate_name": "2(3<em>H</em>)-Benzothiazolethione, 6-chloro-;Benzothiazole, 6-chloro-2-mercapto-;6-Chloro-2(3<em>H</em>)-benzothiazolethione;6-Chloro-2-mercaptobenzothiazole;NSC 503425",
    "duplicated_cas_no": "",
    "SMILES": "S=C1NC=2C(S1)=CC(Cl)=CC2",
    "meta_data": {
        "InChI": "InChI=1S/C7H4ClNS2/c8-4-1-2-5-6(3-4)11-7(10)9-5/h1-3H,(H,9,10)",
        "InChIKey": null,
        "Canonical SMILES": "S=C1SC2=CC(Cl)=CC=C2N1",
        "Molecular Formula": "C<sub>7</sub>H<sub>4</sub>ClNS<sub>2</sub>",
        "Molecular Mass": "201.70",
        "Melting Point": "244-245 °C"
    }
}