{
    "cas_no": "10400-19-8",
    "key_name": "Nicotinoyl chloride",
    "cn_name": "吡啶-3-羧酸酰氯;吡啶-3-羧酸酰氯；烟酰氯;",
    "alternate_name": "3-Pyridinecarbonyl chloride;Nicotinoyl chloride;Nicotinic acid chloride;3-Pyridylcarbonyl chloride;Nicotinyl chloride;3-Pyridoyl chloride;3-Pyridinecarboxylic acid chloride;3-Pyridinylcarbonyl chloride",
    "duplicated_cas_no": "",
    "SMILES": "C(Cl)(=O)C=1C=CC=NC1",
    "meta_data": {
        "InChI": "InChI=1S/C6H4ClNO/c7-6(9)5-2-1-3-8-4-5/h1-4H",
        "InChIKey": null,
        "Canonical SMILES": "O=C(Cl)C=1C=NC=CC1",
        "Molecular Formula": "C<sub>6</sub>H<sub>4</sub>ClNO",
        "Molecular Mass": "141.56",
        "Boiling Point": "110-113 °C @ Press: 25-26 Torr",
        "Melting Point": "15-16 °C"
    }
}