{
    "cas_no": "112448-39-2",
    "key_name": "3′-Hydroxy-4′,5,6,7,8-pentamethoxyflavone",
    "cn_name": null,
    "alternate_name": "4<em>H</em>-1-Benzopyran-4-one, 2-(3-hydroxy-4-methoxyphenyl)-5,6,7,8-tetramethoxy-;2-(3-Hydroxy-4-methoxyphenyl)-5,6,7,8-tetramethoxy-4<em>H</em>-1-benzopyran-4-one;3′-Hydroxy-4′,5,6,7,8-pentamethoxyflavone;3′-Demethylnobiletin;2-(3-Hydroxy-4-methoxyphenyl)-5,6,7,8-tetramethoxychromen-4-one",
    "duplicated_cas_no": "",
    "SMILES": "O(C)C1=C2C(=C(OC)C(OC)=C1OC)OC(=CC2=O)C3=CC(O)=C(OC)C=C3",
    "meta_data": {
        "InChI": "InChI=1S/C20H20O8/c1-23-13-7-6-10(8-11(13)21)14-9-12(22)15-16(24-2)18(25-3)20(27-5)19(26-4)17(15)28-14/h6-9,21H,1-5H3",
        "InChIKey": null,
        "Canonical SMILES": "O=C1C=C(OC=2C(OC)=C(OC)C(OC)=C(OC)C12)C=3C=CC(OC)=C(O)C3",
        "Molecular Formula": "C<sub>20</sub>H<sub>20</sub>O<sub>8</sub>",
        "Molecular Mass": "388.37",
        "Melting Point": "170-171 °C"
    }
}