{
    "cas_no": "10517-21-2",
    "key_name": "5-Chloro-1<em>H</em>-indole-2-carboxylic acid",
    "cn_name": "5-氯吲哚-2-羧酸;",
    "alternate_name": "1<em>H</em>-Indole-2-carboxylic acid, 5-chloro-;Indole-2-carboxylic acid, 5-chloro-;5-Chloro-1<em>H</em>-indole-2-carboxylic acid;5-Chloroindole-2-carboxylic acid;NSC 75651;2-Carboxy-5-chloroindole",
    "duplicated_cas_no": "",
    "SMILES": "C(O)(=O)C=1NC=2C(C1)=CC(Cl)=CC2",
    "meta_data": {
        "InChI": "InChI=1S/C9H6ClNO2/c10-6-1-2-7-5(3-6)4-8(11-7)9(12)13/h1-4,11H,(H,12,13)",
        "InChIKey": null,
        "Canonical SMILES": "O=C(O)C1=CC=2C=C(Cl)C=CC2N1",
        "Molecular Formula": "C<sub>9</sub>H<sub>6</sub>ClNO<sub>2</sub>",
        "Molecular Mass": "195.60",
        "Melting Point": "152 °C"
    }
}