{
    "cas_no": "6386-63-6",
    "key_name": "Cloxyfonac",
    "cn_name": "坐果酸;4-氯-2-羟甲基苯氧乙酸;",
    "alternate_name": "Acetic acid, 2-[4-chloro-2-(hydroxymethyl)phenoxy]-;Acetic acid, [(4-chloro-α-hydroxy-<em>o</em>-tolyl)oxy]-;Acetic acid, [4-chloro-2-(hydroxymethyl)phenoxy]-;2-[4-Chloro-2-(hydroxymethyl)phenoxy]acetic acid;[2-(Hydroxymethyl)-4-chlorophenoxy]acetic acid;[4-Chloro-2-(hydroxymethyl)phenoxy]acetic acid;Trylone;Cloxyfonac;2-Hydroxymethyl-4-chlorophenyloxyacetic acid",
    "duplicated_cas_no": "",
    "SMILES": "O(CC(O)=O)C1=C(CO)C=C(Cl)C=C1",
    "meta_data": {
        "InChI": "InChI=1S/C9H9ClO4/c10-7-1-2-8(6(3-7)4-11)14-5-9(12)13/h1-3,11H,4-5H2,(H,12,13)",
        "InChIKey": null,
        "Canonical SMILES": "O=C(O)COC1=CC=C(Cl)C=C1CO",
        "Molecular Formula": "C<sub>9</sub>H<sub>9</sub>ClO<sub>4</sub>",
        "Molecular Mass": "216.62",
        "Melting Point": "141 °C"
    }
}