{
    "cas_no": "327-19-5",
    "key_name": "6-Nitro-2-(trifluoromethyl)-1<em>H</em>-benzimidazole",
    "cn_name": "5-硝基-2-(三氟甲基)-1H-苯并咪唑;",
    "alternate_name": "1<em>H</em>-Benzimidazole, 6-nitro-2-(trifluoromethyl)-;Benzimidazole, 5-nitro-2-(trifluoromethyl)-;1<em>H</em>-Benzimidazole, 5-nitro-2-(trifluoromethyl)-;Benzimidazole, 5(or 6)-nitro-2-(trifluoromethyl)-;6-Nitro-2-(trifluoromethyl)-1<em>H</em>-benzimidazole;5-Nitro-2-trifluoromethylbenzimidazole;2-(Trifluoromethyl)-5-nitrobenzimidazole;6-Nitro-2-(trifluoromethyl)benzimidazole",
    "duplicated_cas_no": "89843-49-2",
    "SMILES": "C(F)(F)(F)C=1NC=2C(N1)=CC=C(N(=O)=O)C2",
    "meta_data": {
        "InChI": "InChI=1S/C8H4F3N3O2/c9-8(10,11)7-12-5-2-1-4(14(15)16)3-6(5)13-7/h1-3H,(H,12,13)",
        "InChIKey": null,
        "Canonical SMILES": "O=N(=O)C=1C=CC=2N=C(NC2C1)C(F)(F)F",
        "Molecular Formula": "C<sub>8</sub>H<sub>4</sub>F<sub>3</sub>N<sub>3</sub>O<sub>2</sub>",
        "Molecular Mass": "231.13",
        "Melting Point": "152-154 °C"
    }
}