{
    "cas_no": "1121-78-4",
    "key_name": "5-Hydroxy-2-methylpyridine",
    "cn_name": "3-羟基-6-甲基吡啶;6-甲基-3-吡啶醇;",
    "alternate_name": "3-Pyridinol, 6-methyl-;3-Pyridol, 6-methyl-;6-Methyl-3-pyridinol;6-Methyl-3-hydroxypyridine;3-Hydroxy-6-methylpyridine;2-Methyl-5-hydroxypyridine;5-Hydroxy-2-methylpyridine;2-Methyl-5-pyridinol;5-Hydroxy-2-picoline;NSC 27963",
    "duplicated_cas_no": "",
    "SMILES": "OC=1C=CC(C)=NC1",
    "meta_data": {
        "InChI": "InChI=1S/C6H7NO/c1-5-2-3-6(8)4-7-5/h2-4,8H,1H3",
        "InChIKey": null,
        "Canonical SMILES": "OC1=CN=C(C=C1)C",
        "Molecular Formula": "C<sub>6</sub>H<sub>7</sub>NO",
        "Molecular Mass": "109.13",
        "Melting Point": "165-167 °C"
    }
}