{
    "cas_no": "134-71-4",
    "key_name": "<span class=\"text-smallcaps\">DL</span>-Ephedrine hydrochloride",
    "cn_name": null,
    "alternate_name": "Benzenemethanol, α-[(1<em>R</em>)-1-(methylamino)ethyl]-, hydrochloride (1:1), (α<em>S</em>)-<em>rel</em>-;Ephedrine, hydrochloride, (±)-;Benzenemethanol, α-[1-(methylamino)ethyl]-, hydrochloride, (<em>R</em>*,<em>S</em>*)-(±)-;Benzenemethanol, α-[(1<em>R</em>)-1-(methylamino)ethyl]-, hydrochloride, (α<em>S</em>)-<em>rel</em>-;<em>dl</em>-Ephedrine hydrochloride;Ephetonin;Ephetonine;<em>dl</em>-α-[1-(Methylamino)ethyl]benzyl Alcohol Hydrochloride;Racephedrine Hydrochloride;(±)-Ephedrine hydrochloride;<span class=\"text-smallcaps\">DL</span>-<em>erythro</em>-Ephedrine hydrochloride;<span class=\"text-smallcaps\">DL</span>-Ephedrine hydrochloride;Benzenemethanol, α-[1-(methylamino)ethyl]-, hydrochloride, (<em>R</em>*,<em>S</em>*)-;(±)-2-Ephedrinium hydrochloride",
    "duplicated_cas_no": "77274-98-7",
    "SMILES": "[C@H]([C@H](NC)C)(O)C1=CC=CC=C1.Cl",
    "meta_data": {
        "InChI": "InChI=1/C10H15NO.ClH/c1-8(11-2)10(12)9-6-4-3-5-7-9;/h3-8,10-12H,1-2H3;1H/t8-,10-;/s2",
        "InChIKey": null,
        "Canonical SMILES": "Cl.OC(C=1C=CC=CC1)C(NC)C",
        "Molecular Formula": "C<sub>10</sub>H<sub>15</sub>NO.ClH",
        "Molecular Mass": "",
        "Melting Point": "134 °C"
    }
}