{
    "cas_no": "95-87-4",
    "key_name": "2,5-Dimethylphenol",
    "cn_name": "2,5-二甲基苯酚;",
    "alternate_name": "Phenol, 2,5-dimethyl-;2,5-Xylenol;2,5-Dimethylphenol;<em>p</em>-Xylenol;1,2,5-Xylenol;1-Hydroxy-2,5-dimethylbenzene;3,6-Dimethylphenol;NSC 2599;2-Hydroxy-<em>p</em>-xylene",
    "duplicated_cas_no": "50356-12-2;145929-31-3",
    "SMILES": "OC1=C(C)C=CC(C)=C1",
    "meta_data": {
        "InChI": "InChI=1S/C8H10O/c1-6-3-4-7(2)8(9)5-6/h3-5,9H,1-2H3",
        "InChIKey": null,
        "Canonical SMILES": "OC1=CC(=CC=C1C)C",
        "Molecular Formula": "C<sub>8</sub>H<sub>10</sub>O",
        "Molecular Mass": "122.16",
        "Boiling Point": "211.5 °C @ Press: 762 Torr",
        "Melting Point": "74.5 °C",
        "Density": "0.965 g/cm³ @ Temp: 80 °C"
    }
}