{
    "cas_no": "4070-75-1",
    "key_name": "1,4-Diphenyl-2-butene-1,4-dione",
    "cn_name": null,
    "alternate_name": "2-Butene-1,4-dione, 1,4-diphenyl-;1,4-Diphenyl-2-butene-1,4-dione;Dibenzoylethylene;1,2-Dibenzoylethylene;1,2-Dibenzoylethene;NSC 28072",
    "duplicated_cas_no": "1936438-42-4",
    "SMILES": "C(C=CC(=O)C1=CC=CC=C1)(=O)C2=CC=CC=C2",
    "meta_data": {
        "InChI": "InChI=1S/C16H12O2/c17-15(13-7-3-1-4-8-13)11-12-16(18)14-9-5-2-6-10-14/h1-12H",
        "InChIKey": null,
        "Canonical SMILES": "O=C(C=CC(=O)C=1C=CC=CC1)C=2C=CC=CC2",
        "Molecular Formula": "C<sub>16</sub>H<sub>12</sub>O<sub>2</sub>",
        "Molecular Mass": "236.27",
        "Melting Point": "111 °C"
    }
}