{
    "cas_no": "523-87-5",
    "key_name": "Dimenhydrinate",
    "cn_name": "茶苯海明;晕海宁;1,3-二甲基-8-氯-3,7-二氢-1H-嘌呤-2,6-二酮N,N-二甲基-2-(二苯基甲氧基)乙胺;",
    "alternate_name": "1<em>H</em>-Purine-2,6-dione, 8-chloro-3,7-dihydro-1,3-dimethyl-, compd. with 2-(diphenylmethoxy)-<em>N</em>,<em>N</em>-dimethylethanamine (1:1);Dimenhydrinate;Theophylline, 8-chloro-, compd. with 2-(diphenylmethoxy)-<em>N</em>,<em>N</em>-dimethylethylamine (1:1);Ethylamine, 2-(diphenylmethoxy)-<em>N</em>,<em>N</em>-dimethyl-, compd. with 8-chlorotheophylline (1:1);Ethanamine, 2-(diphenylmethoxy)-<em>N</em>,<em>N</em>-dimethyl-, compd. with 8-chloro-3,7-dihydro-1,3-dimethyl-1<em>H</em>-purine-2,6-dione (1:1);Amosyt;Anautine;Andramine;Chloranautine;Diamarin;2-(Diphenylmethoxy)-<em>N</em>,<em>N</em>-dimethylethylamine 8-chlorotheophyllinate;Dramamine;Dramarin;Dramyl;Gravol;Menhydrinate;Novamin;Novamine;Supremal;Travelin;Travelmin;Vomex A;Xamamina;Aviomarin;Diphenhydrinate;Gravinol;Dramamin;Reise-Engletten;Neo-Navigan;Dromyl;Teodramin;Permital;Diphenhydramine 8-chlorotheophyllinate;Gravinol (antiemetic);Emedyl;Dramocen;Removine;Reidamine;Dommanate;Faston;Epha;Emes;Antemin;Dimate;Travel-Gum;NSC 117855;Theohydramine;Dimigal;Dramina;Dramin;MeSH ID: D004111",
    "duplicated_cas_no": "133294-22-1",
    "SMILES": "O=C1C2=C(N(C)C(=O)N1C)N=C(Cl)N2.C(OCCN(C)C)(C1=CC=CC=C1)C2=CC=CC=C2",
    "meta_data": {
        "InChI": "InChI=1S/C17H21NO.C7H7ClN4O2/c1-18(2)13-14-19-17(15-9-5-3-6-10-15)16-11-7-4-8-12-16;1-11-4-3(9-6(8)10-4)5(13)12(2)7(11)14/h3-12,17H,13-14H2,1-2H3;1-2H3,(H,9,10)",
        "InChIKey": null,
        "Canonical SMILES": "O=C1C=2NC(Cl)=NC2N(C(=O)N1C)C.O(CCN(C)C)C(C=1C=CC=CC1)C=2C=CC=CC2",
        "Molecular Formula": "C<sub>17</sub>H<sub>21</sub>NO.C<sub>7</sub>H<sub>7</sub>ClN<sub>4</sub>O<sub>2</sub>",
        "Molecular Mass": "",
        "Melting Point": "102-107 °C"
    }
}