{
    "cas_no": "405-04-9",
    "key_name": "4-Cyano-2-fluorophenol",
    "cn_name": "3-氟-4-羟基苯腈;",
    "alternate_name": "Benzonitrile, 3-fluoro-4-hydroxy-;3-Fluoro-4-hydroxybenzonitrile;4-Hydroxy-3-fluorobenzonitrile;4-Cyano-2-fluorophenol;2-Fluoro-4-cyanophenol",
    "duplicated_cas_no": "",
    "SMILES": "C(#N)C1=CC(F)=C(O)C=C1",
    "meta_data": {
        "InChI": "InChI=1S/C7H4FNO/c8-6-3-5(4-9)1-2-7(6)10/h1-3,10H",
        "InChIKey": null,
        "Canonical SMILES": "N#CC1=CC=C(O)C(F)=C1",
        "Molecular Formula": "C<sub>7</sub>H<sub>4</sub>FNO",
        "Molecular Mass": "137.11",
        "Melting Point": "134 °C"
    }
}