{
    "cas_no": "3694-46-0",
    "key_name": "1-(Isothiocyanatomethyl)-4-methylbenzene",
    "cn_name": "4-甲基异硫氰酸酯;",
    "alternate_name": "Benzene, 1-(isothiocyanatomethyl)-4-methyl-;Isothiocyanic acid, <em>p</em>-methylbenzyl ester;1-(Isothiocyanatomethyl)-4-methylbenzene;<em>p</em>-Methylbenzyl isothiocyanate;4-Methylbenzyl isothiocyanate;1-Isothiocyanatomethyl-4-methylbenzene;NSC 221231",
    "duplicated_cas_no": "",
    "SMILES": "C(N=C=S)C1=CC=C(C)C=C1",
    "meta_data": {
        "InChI": "InChI=1S/C9H9NS/c1-8-2-4-9(5-3-8)6-10-7-11/h2-5H,6H2,1H3",
        "InChIKey": null,
        "Canonical SMILES": "S=C=NCC1=CC=C(C=C1)C",
        "Molecular Formula": "C<sub>9</sub>H<sub>9</sub>NS",
        "Molecular Mass": "163.24",
        "Boiling Point": "155 °C @ Press: 17 Torr"
    }
}