{
    "cas_no": "111969-64-3",
    "key_name": "(1<em>R</em>,2<em>S</em>,5<em>R</em>)-5-Methyl-2-(1-methylethyl)cyclohexyl 2,2-dihydroxyacetate",
    "cn_name": "L-孟基乙醛酸酯;5-甲基-2-异丙基环己醇二羟基乙酸酯;",
    "alternate_name": "Acetic acid, 2,2-dihydroxy-, (1<em>R</em>,2<em>S</em>,5<em>R</em>)-5-methyl-2-(1-methylethyl)cyclohexyl ester;Acetic acid, dihydroxy-, 5-methyl-2-(1-methylethyl)cyclohexyl ester, [1<em>R</em>-(1α,2β,5α)]-;Acetic acid, dihydroxy-, (1<em>R</em>,2<em>S</em>,5<em>R</em>)-5-methyl-2-(1-methylethyl)cyclohexyl ester;(1<em>R</em>,2<em>S</em>,5<em>R</em>)-5-Methyl-2-(1-methylethyl)cyclohexyl 2,2-dihydroxyacetate;2,2-Dihydroxyacetic acid, (-)-menthyl ester",
    "duplicated_cas_no": "",
    "SMILES": "O(C(C(O)O)=O)[C@H]1[C@H](C(C)C)CC[C@@H](C)C1",
    "meta_data": {
        "InChI": "InChI=1S/C12H22O4/c1-7(2)9-5-4-8(3)6-10(9)16-12(15)11(13)14/h7-11,13-14H,4-6H2,1-3H3/t8-,9+,10-/m1/s1",
        "InChIKey": null,
        "Canonical SMILES": "O=C(OC1CC(C)CCC1C(C)C)C(O)O",
        "Molecular Formula": "C<sub>12</sub>H<sub>22</sub>O<sub>4</sub>",
        "Molecular Mass": "230.30",
        "Melting Point": "80-81 °C"
    }
}