{
    "cas_no": "600-36-2",
    "key_name": "2,4-Dimethyl-3-pentanol",
    "cn_name": "2,4-二甲基-3-戊醇;",
    "alternate_name": "3-Pentanol, 2,4-dimethyl-;2,4-Dimethyl-3-pentanol;Diisopropylcarbinol;2,4-Dimethyl-3-hydroxypentane;Diisopropylmethanol;2,4-Dimethyl-3-pentyl alcohol;Diisopropylmethyl alcohol;NSC 8696",
    "duplicated_cas_no": "",
    "SMILES": "C(C(C)C)(C(C)C)O",
    "meta_data": {
        "InChI": "InChI=1S/C7H16O/c1-5(2)7(8)6(3)4/h5-8H,1-4H3",
        "InChIKey": null,
        "Canonical SMILES": "OC(C(C)C)C(C)C",
        "Molecular Formula": "C<sub>7</sub>H<sub>16</sub>O",
        "Molecular Mass": "116.20",
        "Boiling Point": "138.7 °C",
        "Melting Point": "&lt;-70 °C",
        "Density": "0.8294 g/cm³ @ Temp: 20 °C"
    }
}