{
    "cas_no": "5350-93-6",
    "key_name": "5-Amino-2-chloropyridine",
    "cn_name": "2-氯-5-氨基吡啶;5-氨基-2-氯吡啶;",
    "alternate_name": "3-Pyridinamine, 6-chloro-;Pyridine, 5-amino-2-chloro-;6-Chloro-3-pyridinamine;2-Chloro-5-aminopyridine;5-Amino-2-chloropyridine;6-Chloropyridin-3-ylamine;6-Chloro-3-aminopyridine;NSC 81;2-Chloropyridin-5-amine",
    "duplicated_cas_no": "",
    "SMILES": "NC=1C=CC(Cl)=NC1",
    "meta_data": {
        "InChI": "InChI=1S/C5H5ClN2/c6-5-2-1-4(7)3-8-5/h1-3H,7H2",
        "InChIKey": null,
        "Canonical SMILES": "ClC1=NC=C(N)C=C1",
        "Molecular Formula": "C<sub>5</sub>H<sub>5</sub>ClN<sub>2</sub>",
        "Molecular Mass": "128.56",
        "Melting Point": "82-83.5 °C"
    }
}