{
    "cas_no": "31462-59-6",
    "key_name": "4-Pyrimidinecarboxylic acid",
    "cn_name": "4-嘧啶甲酸;",
    "alternate_name": "4-Pyrimidinecarboxylic acid",
    "duplicated_cas_no": "",
    "SMILES": "C(O)(=O)C=1C=CN=CN1",
    "meta_data": {
        "InChI": "InChI=1S/C5H4N2O2/c8-5(9)4-1-2-6-3-7-4/h1-3H,(H,8,9)",
        "InChIKey": null,
        "Canonical SMILES": "O=C(O)C=1N=CN=CC1",
        "Molecular Formula": "C<sub>5</sub>H<sub>4</sub>N<sub>2</sub>O<sub>2</sub>",
        "Molecular Mass": "124.10",
        "Melting Point": "238 °C"
    }
}