{
    "cas_no": "7651-81-2",
    "key_name": "3(2<em>H</em>)-Isoquinolinone",
    "cn_name": null,
    "alternate_name": "3(2<em>H</em>)-Isoquinolinone;3-Isoquinolinol;3(2<em>H</em>)-Isoquinolone;3-Hydroxyisoquinoline;2,3-Dihydroisoquinolin-3-one",
    "duplicated_cas_no": "14476-75-6",
    "SMILES": "O=C1C=C2C(=CN1)C=CC=C2",
    "meta_data": {
        "InChI": "InChI=1S/C9H7NO/c11-9-5-7-3-1-2-4-8(7)6-10-9/h1-6H,(H,10,11)",
        "InChIKey": null,
        "Canonical SMILES": "O=C1C=C2C=CC=CC2=CN1",
        "Molecular Formula": "C<sub>9</sub>H<sub>7</sub>NO",
        "Molecular Mass": "145.16",
        "Melting Point": "195-196 °C"
    }
}