{
    "cas_no": "7189-69-7",
    "key_name": "1,1′-Sulfonyldiimidazole",
    "cn_name": null,
    "alternate_name": "1<em>H</em>-Imidazole, 1,1′-sulfonylbis-;Imidazole, 1,1′-sulfonyldi-;1,1′-Sulfonylbis[1<em>H</em>-imidazole];1,1′-Sulfonyldiimidazole;<em>N</em>,<em>N</em>′-Sulfuryldiimidazole;1-Imidazol-1-ylsulfonylimidazole",
    "duplicated_cas_no": "",
    "SMILES": "S(=O)(=O)(N1C=CN=C1)N2C=CN=C2",
    "meta_data": {
        "InChI": "InChI=1S/C6H6N4O2S/c11-13(12,9-3-1-7-5-9)10-4-2-8-6-10/h1-6H",
        "InChIKey": null,
        "Canonical SMILES": "O=S(=O)(N1C=NC=C1)N2C=NC=C2",
        "Molecular Formula": "C<sub>6</sub>H<sub>6</sub>N<sub>4</sub>O<sub>2</sub>S",
        "Molecular Mass": "198.20",
        "Melting Point": "140.1-140.6 °C"
    }
}