{
    "cas_no": "2050-48-8",
    "key_name": "1,1′-Sulfonylbis[4-bromobenzene]",
    "cn_name": "Bis(4-bromophenyl)sulfone;",
    "alternate_name": "Benzene, 1,1′-sulfonylbis[4-bromo-;Sulfone, bis(<em>p</em>-bromophenyl);1,1′-Sulfonylbis[4-bromobenzene];Bis(<em>p</em>-bromophenyl) sulfone;4,4′-Dibromodiphenyl sulfone;Bis(4-bromophenyl) sulfone;NSC 43047;Di(4-bromophenyl) sulfone;1-Bromo-4-(4-bromophenyl)sulfonylbenzene",
    "duplicated_cas_no": "",
    "SMILES": "S(=O)(=O)(C1=CC=C(Br)C=C1)C2=CC=C(Br)C=C2",
    "meta_data": {
        "InChI": "InChI=1S/C12H8Br2O2S/c13-9-1-5-11(6-2-9)17(15,16)12-7-3-10(14)4-8-12/h1-8H",
        "InChIKey": null,
        "Canonical SMILES": "O=S(=O)(C1=CC=C(Br)C=C1)C2=CC=C(Br)C=C2",
        "Molecular Formula": "C<sub>12</sub>H<sub>8</sub>Br<sub>2</sub>O<sub>2</sub>S",
        "Molecular Mass": "376.06",
        "Melting Point": "171 °C"
    }
}