{
    "cas_no": "206872-01-7",
    "key_name": "2-Amino-6-bromo-4-methoxyphenol",
    "cn_name": "2-氨基-6-溴-4-甲氧基苯酚;",
    "alternate_name": "Phenol, 2-amino-6-bromo-4-methoxy-;2-Amino-6-bromo-4-methoxyphenol",
    "duplicated_cas_no": "",
    "SMILES": "O(C)C1=CC(Br)=C(O)C(N)=C1",
    "meta_data": {
        "InChI": "InChI=1S/C7H8BrNO2/c1-11-4-2-5(8)7(10)6(9)3-4/h2-3,10H,9H2,1H3",
        "InChIKey": null,
        "Canonical SMILES": "BrC=1C=C(OC)C=C(N)C1O",
        "Molecular Formula": "C<sub>7</sub>H<sub>8</sub>BrNO<sub>2</sub>",
        "Molecular Mass": "218.05",
        "Melting Point": "95-97 °C"
    }
}