{
    "cas_no": "2645-07-0",
    "key_name": "4-Nitrohippuric acid",
    "cn_name": "4-硝基马尿酸;",
    "alternate_name": "Glycine, <em>N</em>-(4-nitrobenzoyl)-;Glycine, <em>N</em>-(<em>p</em>-nitrobenzoyl)-;Hippuric acid, <em>p</em>-nitro-;<em>N</em>-(4-Nitrobenzoyl)glycine;<em>p</em>-Nitrohippuric acid;4-Nitrohippuric acid;<em>N</em>-(<em>p</em>-Nitrobenzoyl)glycine;4-Nitrobenzoylglycine;NSC 33334;(4-Nitrobenzoylamino)acetic acid;2-[(4-Nitrobenzoyl)amino]acetic acid;2-(4-Nitrobenzamido)acetic acid;2-[(4-Nitrophenyl)formamido]acetic acid",
    "duplicated_cas_no": "",
    "SMILES": "C(NCC(O)=O)(=O)C1=CC=C(N(=O)=O)C=C1",
    "meta_data": {
        "InChI": "InChI=1S/C9H8N2O5/c12-8(13)5-10-9(14)6-1-3-7(4-2-6)11(15)16/h1-4H,5H2,(H,10,14)(H,12,13)",
        "InChIKey": null,
        "Canonical SMILES": "O=C(O)CNC(=O)C1=CC=C(C=C1)N(=O)=O",
        "Molecular Formula": "C<sub>9</sub>H<sub>8</sub>N<sub>2</sub>O<sub>5</sub>",
        "Molecular Mass": "224.17",
        "Melting Point": "130-132 °C"
    }
}