{
    "cas_no": "96-24-2",
    "key_name": "3-Chloro-1,2-propanediol",
    "cn_name": "3-氯-1,2-丙二醇;3-氯甘油;",
    "alternate_name": "1,2-Propanediol, 3-chloro-;3-Chloro-1,2-propanediol;1-Chloro-2,3-dihydroxypropane;3-Chloro-1,2-dihydroxypropane;3-Chloropropylene glycol;Glycerin α-monochlorhydrin;Glycerol α-chlorohydrin;Glycerol α-monochlorohydrin;α-Chlorohydrin;1-Chloro-2,3-propanediol;Chloropropanediol;Glycerol 3-chlorohydrin;3-Chloropropanediol;Chlorohydrin;Glyceryl α-chlorohydrin;Glyceryl chloride;Glycerin epichlorohydrin;Glycerol monochlorohydrin;1,2-Dihydroxy-3-chloropropane;U 5897;α-Monochlorohydrin;3-Chloro-1,2-propylene glycol;1-Chloro-1-deoxyglycerol;Epibloc;Glycerin monochlorohydrin;<em>dl</em>-α-Chlorohydrin;(±)-2,3-Dihydroxychloropropane;(<em>RS</em>)-α-Chlorohydrin;(±)-3-Chloro-1,2-propanediol;(<em>RS</em>)-3-Chloro-1,2-propanediol;Ekorod A;3-Monochloro-1,2-propanediol",
    "duplicated_cas_no": "52340-46-2;69420-22-0",
    "SMILES": "C(CCl)(CO)O",
    "meta_data": {
        "InChI": "InChI=1S/C3H7ClO2/c4-1-3(6)2-5/h3,5-6H,1-2H2",
        "InChIKey": null,
        "Canonical SMILES": "ClCC(O)CO",
        "Molecular Formula": "C<sub>3</sub>H<sub>7</sub>ClO<sub>2</sub>",
        "Molecular Mass": "110.54",
        "Boiling Point": "142 °C @ Press: 20 Torr",
        "Melting Point": "34.4 °C",
        "Density": "1.3218 g/cm³ @ Temp: 20 °C"
    }
}