{
    "cas_no": "10443-70-6",
    "key_name": "MCPB ethyl",
    "cn_name": null,
    "alternate_name": "Butanoic acid, 4-(4-chloro-2-methylphenoxy)-, ethyl ester;Butyric acid, 4-[(4-chloro-<em>o</em>-tolyl)oxy]-, ethyl ester;MCPB ethyl;Ethyl γ-(2-methyl-4-chlorophenoxy)butyrate;Ethyl 4-[(4-chloro-<em>o</em>-tolyl)oxy]butyrate;MCPB ethyl ester;Ethyl 4-(4-chloro-2-methylphenoxy)butyrate;Ethyl (2-methyl-4-chlorophenoxy)butyrate;MCPBE",
    "duplicated_cas_no": "67772-58-1",
    "SMILES": "O(CCCC(OCC)=O)C1=C(C)C=C(Cl)C=C1",
    "meta_data": {
        "InChI": "InChI=1S/C13H17ClO3/c1-3-16-13(15)5-4-8-17-12-7-6-11(14)9-10(12)2/h6-7,9H,3-5,8H2,1-2H3",
        "InChIKey": null,
        "Canonical SMILES": "O=C(OCC)CCCOC1=CC=C(Cl)C=C1C",
        "Molecular Formula": "C<sub>13</sub>H<sub>17</sub>ClO<sub>3</sub>",
        "Molecular Mass": "256.73",
        "Boiling Point": "166.5 °C",
        "Melting Point": "-1 °C"
    }
}