{
    "cas_no": "37551-43-2",
    "key_name": "5-Chloro-<em>N</em>,2-dihydroxybenzamide",
    "cn_name": "5-氯-N,2-二羟基苯甲酰胺;",
    "alternate_name": "Benzamide, 5-chloro-<em>N</em>,2-dihydroxy-;5-Chloro-<em>N</em>,2-dihydroxybenzamide;5-Chlorosalicylhydroxamic acid;<em>N</em>-(5-Chlorosalicyl)hydroxamic acid",
    "duplicated_cas_no": "",
    "SMILES": "C(NO)(=O)C1=C(O)C=CC(Cl)=C1",
    "meta_data": {
        "InChI": "InChI=1S/C7H6ClNO3/c8-4-1-2-6(10)5(3-4)7(11)9-12/h1-3,10,12H,(H,9,11)",
        "InChIKey": null,
        "Canonical SMILES": "O=C(NO)C1=CC(Cl)=CC=C1O",
        "Molecular Formula": "C<sub>7</sub>H<sub>6</sub>ClNO<sub>3</sub>",
        "Molecular Mass": "187.58",
        "Melting Point": "246 °C"
    }
}