{
    "cas_no": "30652-11-0",
    "key_name": "Deferiprone",
    "cn_name": "1,2-二甲基-3-羟基-4-吡啶酮;去铁酮;",
    "alternate_name": "4(1<em>H</em>)-Pyridinone, 3-hydroxy-1,2-dimethyl-;4(1<em>H</em>)-Pyridone, 3-hydroxy-1,2-dimethyl-;3-Hydroxy-1,2-dimethyl-4(1<em>H</em>)-pyridinone;1,2-Dimethyl-3-hydroxy-4-pyridone;CP 20;CP 20 (chelating agent);3-Hydroxy-1,2-dimethyl-4-pyridone;Deferiprone;L 1;L 1 (chelating agent);3-Hydroxy-1,2-dimethyl-4-pyridinone;CGP 37391;1,2-Dimethyl-3-hydroxy-4(1<em>H</em>)-pyridinone;1,2-Dimethyl-3-hydroxypyridin-4-one;1,2-Dimethyl-3-hydroxypyridine-4-one;Deferione;Ferriprox;3-Hydroxy-1,2-dimethyl-4(1<em>H</em>)-pyridone;PL 1;APO 66;DN 18001AF;Ferinil;3-Hydroxy-1,2-dimethyl-1,4-dihydropyridin-4-one",
    "duplicated_cas_no": "",
    "SMILES": "OC1=C(C)N(C)C=CC1=O",
    "meta_data": {
        "InChI": "InChI=1S/C7H9NO2/c1-5-7(10)6(9)3-4-8(5)2/h3-4,10H,1-2H3",
        "InChIKey": null,
        "Canonical SMILES": "O=C1C=CN(C(=C1O)C)C",
        "Molecular Formula": "C<sub>7</sub>H<sub>9</sub>NO<sub>2</sub>",
        "Molecular Mass": "139.15",
        "Melting Point": "260-265 °C (decomp)"
    }
}