{
    "cas_no": "16533-71-4",
    "key_name": "4-Methyl-3,5-dinitrobenzoic acid",
    "cn_name": "3,5-二硝基-4-甲基苯甲酸;3,5-二硝基对甲基苯甲酸;",
    "alternate_name": "Benzoic acid, 4-methyl-3,5-dinitro-;<em>p</em>-Toluic acid, 3,5-dinitro-;4-Methyl-3,5-dinitrobenzoic acid;3,5-Dinitro-<em>p</em>-toluic acid;3,5-Dinitro-4-toluic acid;NSC 5589;3,5-Dinitro-4-methylbenzoic acid",
    "duplicated_cas_no": "",
    "SMILES": "N(=O)(=O)C1=C(C)C(N(=O)=O)=CC(C(O)=O)=C1",
    "meta_data": {
        "InChI": "InChI=1S/C8H6N2O6/c1-4-6(9(13)14)2-5(8(11)12)3-7(4)10(15)16/h2-3H,1H3,(H,11,12)",
        "InChIKey": null,
        "Canonical SMILES": "O=C(O)C=1C=C(C(=C(C1)N(=O)=O)C)N(=O)=O",
        "Molecular Formula": "C<sub>8</sub>H<sub>6</sub>N<sub>2</sub>O<sub>6</sub>",
        "Molecular Mass": "226.14",
        "Melting Point": "154-155 °C"
    }
}