{
    "cas_no": "289038-14-8",
    "key_name": "Benzenemethanamine, 2-bromo-4-fluoro-, hydrochloride (1:1)",
    "cn_name": null,
    "alternate_name": "Benzenemethanamine, 2-bromo-4-fluoro-, hydrochloride (1:1);Benzenemethanamine, 2-bromo-4-fluoro-, hydrochloride;[(2-Bromo-4-fluorophenyl)methyl]amine hydrochloride;2-Bromo-4-fluorobenzylamine hydrochloride;(2-Bromo-4-fluorophenyl)methanamine hydrochloride",
    "duplicated_cas_no": "",
    "SMILES": "C(N)C1=C(Br)C=C(F)C=C1.Cl",
    "meta_data": {
        "InChI": "InChI=1S/C7H7BrFN.ClH/c8-7-3-6(9)2-1-5(7)4-10;/h1-3H,4,10H2;1H",
        "InChIKey": null,
        "Canonical SMILES": "Cl.FC1=CC=C(C(Br)=C1)CN",
        "Molecular Formula": "C<sub>7</sub>H<sub>7</sub>BrFN.ClH",
        "Molecular Mass": "",
        "Melting Point": "251 °C"
    }
}