{
    "cas_no": "61828-53-3",
    "key_name": "2-(2-Phenylethyl)chromone",
    "cn_name": null,
    "alternate_name": "4<em>H</em>-1-Benzopyran-4-one, 2-(2-phenylethyl)-;2-(2-Phenylethyl)-4<em>H</em>-1-benzopyran-4-one;Flindersiachromone;Flidersiachromone;2-(2-Phenylethyl)chromone",
    "duplicated_cas_no": "",
    "SMILES": "O=C1C=2C(OC(CCC3=CC=CC=C3)=C1)=CC=CC2",
    "meta_data": {
        "InChI": "InChI=1S/C17H14O2/c18-16-12-14(11-10-13-6-2-1-3-7-13)19-17-9-5-4-8-15(16)17/h1-9,12H,10-11H2",
        "InChIKey": null,
        "Canonical SMILES": "O=C1C=C(OC=2C=CC=CC12)CCC=3C=CC=CC3",
        "Molecular Formula": "C<sub>17</sub>H<sub>14</sub>O<sub>2</sub>",
        "Molecular Mass": "250.29",
        "Melting Point": "90-91 °C"
    }
}