{
    "cas_no": "1131-61-9",
    "key_name": "Pyridine, 4-phenyl-, 1-oxide",
    "cn_name": "4-苯基吡啶-N-氧化物;",
    "alternate_name": "Pyridine, 4-phenyl-, 1-oxide;4-Phenylpyridine 1-oxide;4-Phenylpyridine <em>N</em>-oxide;4-Phenylpyridine oxide;<em>p</em>-Phenylpyridine <em>N</em>-oxide;NSC 187559;1-Oxido-4-phenylpyridin-1-ium",
    "duplicated_cas_no": "",
    "SMILES": "O=N=1C=CC(=CC1)C2=CC=CC=C2",
    "meta_data": {
        "InChI": "InChI=1S/C11H9NO/c13-12-8-6-11(7-9-12)10-4-2-1-3-5-10/h1-9H",
        "InChIKey": null,
        "Canonical SMILES": "O=N=1C=CC(=CC1)C=2C=CC=CC2",
        "Molecular Formula": "C<sub>11</sub>H<sub>9</sub>NO",
        "Molecular Mass": "171.20",
        "Melting Point": "151-152 °C"
    }
}