{
    "cas_no": "697-82-5",
    "key_name": "2,3,5-Trimethylphenol",
    "cn_name": null,
    "alternate_name": "Phenol, 2,3,5-trimethyl-;2,3,5-Trimethylphenol;Isopseudocumenol;1-Hydroxy-2,3,5-trimethylbenzene;6-Hydroxypseudocumene;NSC 5296;3,5,6-Trimethylphenol",
    "duplicated_cas_no": "",
    "SMILES": "CC1=C(C)C=C(C)C=C1O",
    "meta_data": {
        "InChI": "InChI=1S/C9H12O/c1-6-4-7(2)8(3)9(10)5-6/h4-5,10H,1-3H3",
        "InChIKey": null,
        "Canonical SMILES": "OC=1C=C(C=C(C1C)C)C",
        "Molecular Formula": "C<sub>9</sub>H<sub>12</sub>O",
        "Molecular Mass": "136.19",
        "Boiling Point": "230.5 °C",
        "Melting Point": "93.5 °C"
    }
}