{
    "cas_no": "2396-84-1",
    "key_name": "Ethyl sorbate",
    "cn_name": "山梨酸乙酯;",
    "alternate_name": "2,4-Hexadienoic acid, ethyl ester, (2<em>E</em>,4<em>E</em>)-;Sorbic acid, ethyl ester;2,4-Hexadienoic acid, ethyl ester, (<em>E</em>,<em>E</em>)-;Ethyl 2,4-hexadienoate;Ethyl sorbate;(<em>E</em>,<em>E</em>)-Ethyl 2,4-hexadienoate;NSC 8874;Ethyl (2<em>E</em>,4<em>E</em>)-hexa-2,4-dienoate",
    "duplicated_cas_no": "5941-48-0;91660-95-6",
    "SMILES": "C(\\C(OCC)=O)=C/C=C/C",
    "meta_data": {
        "InChI": "InChI=1S/C8H12O2/c1-3-5-6-7-8(9)10-4-2/h3,5-7H,4H2,1-2H3/b5-3+,7-6+",
        "InChIKey": null,
        "Canonical SMILES": "O=C(OCC)C=CC=CC",
        "Molecular Formula": "C<sub>8</sub>H<sub>12</sub>O<sub>2</sub>",
        "Molecular Mass": "140.18",
        "Boiling Point": "195.5 °C",
        "Melting Point": "95-98 °C",
        "Density": "0.9405 g/cm³ @ Temp: 15.3 °C"
    }
}