{
    "cas_no": "6307-35-3",
    "key_name": "2-Amino-5-bromo-6-methyl-4-pyrimidinol",
    "cn_name": "2-氨基-5-溴-6-甲基-4-咆嘧啶;",
    "alternate_name": "4(3<em>H</em>)-Pyrimidinone, 2-amino-5-bromo-6-methyl-;4(1<em>H</em>)-Pyrimidinone, 2-amino-5-bromo-6-methyl-;4-Pyrimidinol, 2-amino-5-bromo-6-methyl-;2-Amino-5-bromo-6-methyl-4(3<em>H</em>)-pyrimidinone;2-Amino-5-bromo-6-methyl-4-pyrimidinone;2-Amino-5-bromo-6-methyl-4-pyrimidinol;5-Bromo-6-methylisocytosine;U 25166;NSC 41319;2-Amino-5-bromo-6-methyl-3,4-dihydropyrimidin-4-one;2-Amino-5-bromo-6-methyl-1<em>H</em>-pyrimidin-4-one",
    "duplicated_cas_no": "148794-37-0",
    "SMILES": "BrC1=C(C)NC(N)=NC1=O",
    "meta_data": {
        "InChI": "InChI=1S/C5H6BrN3O/c1-2-3(6)4(10)9-5(7)8-2/h1H3,(H3,7,8,9,10)",
        "InChIKey": null,
        "Canonical SMILES": "O=C1N=C(N)NC(=C1Br)C",
        "Molecular Formula": "C<sub>5</sub>H<sub>6</sub>BrN<sub>3</sub>O",
        "Molecular Mass": "204.02",
        "Melting Point": "249-250 °C"
    }
}