{
    "cas_no": "60563-36-2",
    "key_name": "5,6-Dichloro-1-ethyl-1,3-dihydro-2<em>H</em>-benzimidazol-2-one",
    "cn_name": null,
    "alternate_name": "2<em>H</em>-Benzimidazol-2-one, 5,6-dichloro-1-ethyl-1,3-dihydro-;2-Benzimidazolinone, 5,6-dichloro-1-ethyl-;5,6-Dichloro-1-ethyl-1,3-dihydro-2<em>H</em>-benzimidazol-2-one;DCEBIO",
    "duplicated_cas_no": "",
    "SMILES": "C(C)N1C=2C(NC1=O)=CC(Cl)=C(Cl)C2",
    "meta_data": {
        "InChI": "InChI=1S/C9H8Cl2N2O/c1-2-13-8-4-6(11)5(10)3-7(8)12-9(13)14/h3-4H,2H2,1H3,(H,12,14)",
        "InChIKey": null,
        "Canonical SMILES": "O=C1NC2=CC(Cl)=C(Cl)C=C2N1CC",
        "Molecular Formula": "C<sub>9</sub>H<sub>8</sub>Cl<sub>2</sub>N<sub>2</sub>O",
        "Molecular Mass": "231.08",
        "Melting Point": "205-207 °C"
    }
}