{
    "cas_no": "207-08-9",
    "key_name": "Benzo[<em>k</em>]fluoranthene",
    "cn_name": "苯并(k)荧蒽;",
    "alternate_name": "Benzo[<em>k</em>]fluoranthene;Dibenzo[<em>b</em>,<em>jk</em>]fluorene;11,12-Benzofluoranthene;2,3,1′,8′-Binaphthylene;8,9-Benzofluoranthene;8,9-Benzfluoranthene",
    "duplicated_cas_no": "68756-79-6",
    "SMILES": "C12=C3C=4C(C1=CC=CC2=CC=C3)=CC=5C(C4)=CC=CC5",
    "meta_data": {
        "InChI": "InChI=1S/C20H12/c1-2-6-15-12-19-17-10-4-8-13-7-3-9-16(20(13)17)18(19)11-14(15)5-1/h1-12H",
        "InChIKey": null,
        "Canonical SMILES": "C=1C=CC=2C=C3C4=CC=CC5=CC=CC(C3=CC2C1)=C54",
        "Molecular Formula": "C<sub>20</sub>H<sub>12</sub>",
        "Molecular Mass": "252.31",
        "Boiling Point": "480 °C",
        "Melting Point": "217 °C"
    }
}