{
    "cas_no": "26685-83-6",
    "key_name": "(1<em>R</em>,2<em>R</em>)-2-Aminocyclohexanecarboxylic acid",
    "cn_name": null,
    "alternate_name": "Cyclohexanecarboxylic acid, 2-amino-, (1<em>R</em>,2<em>R</em>)-;Cyclohexanecarboxylic acid, 2-amino-, (1<em>R</em>,2<em>R</em>)-(-)-;Cyclohexanecarboxylic acid, 2-amino-, (1<em>R</em>-<em>trans</em>)-;(1<em>R</em>,2<em>R</em>)-2-Aminocyclohexanecarboxylic acid;<em>trans</em>-(1<em>R</em>,2<em>R</em>)-2-Aminocyclohexane-1-carboxylic acid;<em>trans</em>-(1<em>R</em>,2<em>R</em>)-2-Aminocyclohexanecarboxylic acid;(1R,2R)-2-Aminocyclohexanecarboxylic acid",
    "duplicated_cas_no": "",
    "SMILES": "C(O)(=O)[C@H]1[C@H](N)CCCC1",
    "meta_data": {
        "InChI": "InChI=1S/C7H13NO2/c8-6-4-2-1-3-5(6)7(9)10/h5-6H,1-4,8H2,(H,9,10)/t5-,6-/m1/s1",
        "InChIKey": null,
        "Canonical SMILES": "O=C(O)C1CCCCC1N",
        "Molecular Formula": "C<sub>7</sub>H<sub>13</sub>NO<sub>2</sub>",
        "Molecular Mass": "143.18",
        "Melting Point": "234-235 °C"
    }
}