{
    "cas_no": "7493-74-5",
    "key_name": "Allyl phenoxyacetate",
    "cn_name": "苯氧乙酸烯丙酯;",
    "alternate_name": "Acetic acid, 2-phenoxy-, 2-propen-1-yl ester;Acetic acid, phenoxy-, allyl ester;Acetic acid, phenoxy-, 2-propenyl ester;Allyl phenoxyacetate;NSC 408892;Allyl 2-phenoxyacetate",
    "duplicated_cas_no": "863306-60-9",
    "SMILES": "O(CC(OCC=C)=O)C1=CC=CC=C1",
    "meta_data": {
        "InChI": "InChI=1S/C11H12O3/c1-2-8-13-11(12)9-14-10-6-4-3-5-7-10/h2-7H,1,8-9H2",
        "InChIKey": null,
        "Canonical SMILES": "O=C(OCC=C)COC=1C=CC=CC1",
        "Molecular Formula": "C<sub>11</sub>H<sub>12</sub>O<sub>3</sub>",
        "Molecular Mass": "192.21",
        "Boiling Point": "137 °C @ Press: 1 Torr",
        "Density": "1.0820 g/cm³ @ Temp: 20 °C"
    }
}