{
    "cas_no": "21198-18-5",
    "key_name": "4-Cyclohexylthiosemicarbazide",
    "cn_name": null,
    "alternate_name": "Hydrazinecarbothioamide, <em>N</em>-cyclohexyl-;Semicarbazide, 4-cyclohexyl-3-thio-;<em>N</em>-Cyclohexylhydrazinecarbothioamide;4-Cyclohexylthiosemicarbazide;4-Cyclohexyl-3-thiosemicarbazide;<em>N</em>-Cyclohexylthiosemicarbazide;NSC 82337;1-Amino-3-cyclohexylthiourea;3-Amino-1-cyclohexylthiourea",
    "duplicated_cas_no": "1161792-82-0",
    "SMILES": "N(C(NN)=S)C1CCCCC1",
    "meta_data": {
        "InChI": "InChI=1S/C7H15N3S/c8-10-7(11)9-6-4-2-1-3-5-6/h6H,1-5,8H2,(H2,9,10,11)",
        "InChIKey": null,
        "Canonical SMILES": "S=C(NN)NC1CCCCC1",
        "Molecular Formula": "C<sub>7</sub>H<sub>15</sub>N<sub>3</sub>S",
        "Molecular Mass": "173.28",
        "Melting Point": "141-143 °C"
    }
}