{
    "cas_no": "2869-34-3",
    "key_name": "Tridecanamine",
    "cn_name": "正十三烷胺;1-三癸胺;三癸胺;十三胺;三癸胺;1-胺十三烷;",
    "alternate_name": "1-Tridecanamine;Tridecylamine;<em>n</em>-Tridecylamine;1-Tridecylamine;Tridecanamine;Monotridecylamine;1-Aminotridecane",
    "duplicated_cas_no": "",
    "SMILES": "C(CCCCCCN)CCCCCC",
    "meta_data": {
        "InChI": "InChI=1S/C13H29N/c1-2-3-4-5-6-7-8-9-10-11-12-13-14/h2-14H2,1H3",
        "InChIKey": null,
        "Canonical SMILES": "NCCCCCCCCCCCCC",
        "Molecular Formula": "C<sub>13</sub>H<sub>29</sub>N",
        "Molecular Mass": "199.38",
        "Boiling Point": "275.8 °C",
        "Melting Point": "27.4 °C"
    }
}