{
    "cas_no": "1078-96-2",
    "key_name": "4-(Dichlorophenylsilyl)butanenitrile",
    "cn_name": null,
    "alternate_name": "Butanenitrile, 4-(dichlorophenylsilyl)-;Butyronitrile, 4-(dichlorophenylsilyl)-;4-(Dichlorophenylsilyl)butanenitrile;γ-Cyanopropylphenyldichlorosilane;3-Cyanopropylphenyldichlorosilane",
    "duplicated_cas_no": "",
    "SMILES": "[Si](CCCC#N)(Cl)(Cl)C1=CC=CC=C1",
    "meta_data": {
        "InChI": "InChI=1S/C10H11Cl2NSi/c11-14(12,9-5-4-8-13)10-6-2-1-3-7-10/h1-3,6-7H,4-5,9H2",
        "InChIKey": null,
        "Canonical SMILES": "N#CCCC[Si](Cl)(Cl)C=1C=CC=CC1",
        "Molecular Formula": "C<sub>10</sub>H<sub>11</sub>Cl<sub>2</sub>NSi",
        "Molecular Mass": "244.19",
        "Boiling Point": "145-148 °C @ Press: 2 Torr",
        "Density": "1.190 g/cm³ @ Temp: 25 °C"
    }
}