{
    "cas_no": "14324-82-4",
    "key_name": "Bis(trifluoroacetylacetonato)copper",
    "cn_name": null,
    "alternate_name": "Copper, bis(1,1,1-trifluoro-2,4-pentanedionato-κ<em>O</em><sup>2</sup>,κ<em>O</em><sup>4</sup>)-;Copper, bis(1,1,1-trifluoro-2,4-pentanedionato)-;Copper, bis(1,1,1-trifluoro-2,4-pentanedionato-<em>O</em>,<em>O</em>′)-;2,4-Pentanedione, 1,1,1-trifluoro-, Cu deriv.;Copper, bis(1,1,1-trifluoro-2,4-pentanedionato-κ<em>O</em>,κ<em>O</em>′)-;2,4-Pentanedione, 1,1,1-trifluoro-, copper complex;Bis(1,1,1-trifluoro-2,4-pentanedionato-κ<em>O</em><sup>2</sup>,κ<em>O</em><sup>4</sup>)copper;Copper 1,1,1-trifluoroacetylacetonate;Cupric 1,1,1-trifluoroacetylacetonate;Copper bis(trifluoroacetylacetonate);Copper bis(1,1,1-trifluoro-2,4-pentanedionate);Bis(trifluoroacetylacetonato)copper;Bis(acetyltrifluoroacetonato)copper;Bis(1,1,1-trifluoroacetylacetonato)copper;Bis(trifluoroacetylacetonato)copper(II);Bis(1,1,1-trifluoro-2,4-pentanedionato)copper;NSC 49748",
    "duplicated_cas_no": "",
    "SMILES": "C(F)(F)(F)C1=O[Cu+2]2(O=C(C(F)(F)F)[CH-]C(C)=O2)O=C(C)[CH-]1",
    "meta_data": {
        "InChI": "InChI=1S/2C5H4F3O2.Cu/c2*1-3(9)2-4(10)5(6,7)8;/h2*2H,1H3;/q2*-1;+2",
        "InChIKey": null,
        "Canonical SMILES": "FC(F)(F)C1=O[Cu+2]2(O=C([CH-]1)C)O=C([CH-]C(=O2)C(F)(F)F)C",
        "Molecular Formula": "C<sub>10</sub>H<sub>8</sub>CuF<sub>6</sub>O<sub>4</sub>",
        "Molecular Mass": "",
        "Melting Point": "191 °C",
        "Density": "0.721 g/cm³"
    }
}