{
    "cas_no": "3383-21-9",
    "key_name": "3,5-Di-<em>tert</em>-butyl-1,2-benzoquinone",
    "cn_name": "3,5-二叔丁基邻苯醌;3,5-二-叔丁基-O-邻苯二酚;",
    "alternate_name": "3,5-Cyclohexadiene-1,2-dione, 3,5-bis(1,1-dimethylethyl)-;<em>o</em>-Benzoquinone, 3,5-di-<em>tert</em>-butyl-;3,5-Bis(1,1-dimethylethyl)-3,5-cyclohexadiene-1,2-dione;4,6-Di-<em>tert</em>-butyl-1,2-benzoquinone;3,5-Di-<em>tert</em>-butyl-<em>o</em>-quinone;4,6-Di-<em>tert</em>-butyl-<em>o</em>-benzoquinone;3,5-Di-<em>tert</em>-butyl-1,2-benzoquinone;3,5-Di-<em>tert</em>-butyl-<em>o</em>-benzoquinone;NSC 149061;DTBQ;3,5-Di-<em>t</em>-butyl-<em>o</em>-quinone;3,5-Di-<em>tert</em>-butylcyclohexa-3,5-diene-1,2-dione;3,5-Di-<em>tert</em>-butylquinone;3,5-Ditert-butylcyclohexa-3,5-diene-1,2-dione;KP 5063-1",
    "duplicated_cas_no": "93211-58-6",
    "SMILES": "C(C)(C)(C)C1=CC(C(C)(C)C)=CC(=O)C1=O",
    "meta_data": {
        "InChI": "InChI=1S/C14H20O2/c1-13(2,3)9-7-10(14(4,5)6)12(16)11(15)8-9/h7-8H,1-6H3",
        "InChIKey": null,
        "Canonical SMILES": "O=C1C=C(C=C(C1=O)C(C)(C)C)C(C)(C)C",
        "Molecular Formula": "C<sub>14</sub>H<sub>20</sub>O<sub>2</sub>",
        "Molecular Mass": "220.31",
        "Melting Point": "113-114 °C",
        "Density": "0.87 g/cm³"
    }
}