{
    "cas_no": "98-31-7",
    "key_name": "3,4-Dichlorobenzenesulfonyl chloride",
    "cn_name": "3,4-二氯苯磺酰氯;",
    "alternate_name": "Benzenesulfonyl chloride, 3,4-dichloro-;3,4-Dichlorobenzenesulfonyl chloride;3,4-Dichlorophenylsulfonyl chloride;NSC 2651;3,4-Dichlorobenzene-1-sulfonyl chloride",
    "duplicated_cas_no": "",
    "SMILES": "S(Cl)(=O)(=O)C1=CC(Cl)=C(Cl)C=C1",
    "meta_data": {
        "InChI": "InChI=1S/C6H3Cl3O2S/c7-5-2-1-4(3-6(5)8)12(9,10)11/h1-3H",
        "InChIKey": null,
        "Canonical SMILES": "O=S(=O)(Cl)C1=CC=C(Cl)C(Cl)=C1",
        "Molecular Formula": "C<sub>6</sub>H<sub>3</sub>Cl<sub>3</sub>O<sub>2</sub>S",
        "Molecular Mass": "245.51",
        "Melting Point": "67-69 °C"
    }
}