{
    "cas_no": "52022-77-2",
    "key_name": "2-(3-Nitrophenyl)ethanol",
    "cn_name": "3-硝基苯乙醇;",
    "alternate_name": "Benzeneethanol, 3-nitro-;Phenethyl alcohol, <em>m</em>-nitro-;3-Nitrobenzeneethanol;β-(<em>m</em>-Nitrophenyl)ethanol;2-(3-Nitrophenyl)ethanol;<em>m</em>-Nitrophenethyl alcohol;3-Nitrophenylethyl alcohol;3-Nitrophenethyl alcohol;2-(3-Nitrophenyl)ethan-1-ol",
    "duplicated_cas_no": "",
    "SMILES": "C(CO)C1=CC(N(=O)=O)=CC=C1",
    "meta_data": {
        "InChI": "InChI=1S/C8H9NO3/c10-5-4-7-2-1-3-8(6-7)9(11)12/h1-3,6,10H,4-5H2",
        "InChIKey": null,
        "Canonical SMILES": "O=N(=O)C1=CC=CC(=C1)CCO",
        "Molecular Formula": "C<sub>8</sub>H<sub>9</sub>NO<sub>3</sub>",
        "Molecular Mass": "167.16",
        "Boiling Point": "141-146 °C @ Press: 4 Torr",
        "Melting Point": "50-51 °C"
    }
}