{
    "cas_no": "6975-73-1",
    "key_name": "4-Pyridinecarboxylic acid, hydrazide, 1-oxide",
    "cn_name": null,
    "alternate_name": "4-Pyridinecarboxylic acid, hydrazide, 1-oxide;Isonicotinic acid, hydrazide, 1-oxide;Isoniazid, 1-oxide;Isonicotinic acid 1-oxide hydrazide;Isoniazide-<em>N</em>-oxide;NSC 21650",
    "duplicated_cas_no": "",
    "SMILES": "C(NN)(=O)C=1C=CN(=O)=CC1",
    "meta_data": {
        "InChI": "InChI=1S/C6H7N3O2/c7-8-6(10)5-1-3-9(11)4-2-5/h1-4H,7H2,(H,8,10)",
        "InChIKey": null,
        "Canonical SMILES": "O=C(NN)C1=CC=N(=O)C=C1",
        "Molecular Formula": "C<sub>6</sub>H<sub>7</sub>N<sub>3</sub>O<sub>2</sub>",
        "Molecular Mass": "153.14",
        "Melting Point": "212-213 °C"
    }
}