{
    "cas_no": "592-78-9",
    "key_name": "3-Heptene",
    "cn_name": "3-庚烯;",
    "alternate_name": "3-Heptene",
    "duplicated_cas_no": "",
    "SMILES": "C(CCC)=CCC",
    "meta_data": {
        "InChI": "InChI=1S/C7H14/c1-3-5-7-6-4-2/h5,7H,3-4,6H2,1-2H3",
        "InChIKey": null,
        "Canonical SMILES": "C(=CCCC)CC",
        "Molecular Formula": "C<sub>7</sub>H<sub>14</sub>",
        "Molecular Mass": "98.19",
        "Boiling Point": "95.6 °C @ Press: 746 Torr",
        "Density": "0.7005 g/cm³ @ Temp: 20 °C"
    }
}