{
    "cas_no": "13362-78-2",
    "key_name": "<em>trans</em>-1,2-Bis(4-pyridyl)ethylene",
    "cn_name": null,
    "alternate_name": "Pyridine, 4,4′-(1<em>E</em>)-1,2-ethenediylbis-;Pyridine, 4,4′-vinylenedi-, (<em>E</em>)-;Pyridine, 4,4′-(1,2-ethenediyl)bis-, (<em>E</em>)-;4,4′-(1<em>E</em>)-1,2-Ethenediylbis[pyridine];<em>trans</em>-4,4′-Dipyridylethylene;<em>trans</em>-1,2-Bis(4-pyridyl)ethylene;<em>trans</em>-1,2-Bis(4-pyridyl)ethene;1,2-<em>trans</em>-Bis(4-pyridyl)ethene;1,2-<em>trans</em>-(4-Pyridyl)ethene;(<em>E</em>)-1,2-Bis(4-pyridyl)ethene;<em>trans</em>-1,2-Di(4-pyridyl)ethylene;(<em>E</em>)-4,4′-Vinylenedipyridine;<em>trans</em>-1,2-Bis(4-pyridinyl)ethene;(<em>E</em>)-1,2-Bis(4-pyridyl)ethylene;<em>trans</em>-1,2-Di-4-pyridylethene;<em>trans</em>-Bis(4-pyridyl)ethylene;1,2-<em>trans</em>-Bis(4-pyridyl)ethylene;(<em>E</em>)-1,2-Bis(4-pyridinyl)ethene;SERS 440;(<em>E</em>)-4,4′-Diazastilbene;(<em>E</em>)-1,2-Di-4-pyridylethene;<em>trans</em>-1,2-(4-Pyridyl)ethene;(<em>E</em>)-4-(2-Pyridine-4-ethyl)pyridine;(<em>E</em>)-1,2-Di(pyridin-4-yl)ethene",
    "duplicated_cas_no": "",
    "SMILES": "C(=C/C=1C=CN=CC1)\\C=2C=CN=CC2",
    "meta_data": {
        "InChI": "InChI=1S/C12H10N2/c1(11-3-7-13-8-4-11)2-12-5-9-14-10-6-12/h1-10H/b2-1+",
        "InChIKey": null,
        "Canonical SMILES": "N=1C=CC(=CC1)C=CC=2C=CN=CC2",
        "Molecular Formula": "C<sub>12</sub>H<sub>10</sub>N<sub>2</sub>",
        "Molecular Mass": "182.22",
        "Melting Point": "149-150 °C"
    }
}