{
    "cas_no": "74782-23-3",
    "key_name": "Oxabetrinil",
    "cn_name": "解草腈;",
    "alternate_name": "Benzeneacetonitrile, α-[(1,3-dioxolan-2-ylmethoxy)imino]-;α-[(1,3-Dioxolan-2-ylmethoxy)imino]benzeneacetonitrile;CGA 92194;Concep II;Oxabetrinil",
    "duplicated_cas_no": "94593-79-0",
    "SMILES": "C(=NOCC1OCCO1)(C#N)C2=CC=CC=C2",
    "meta_data": {
        "InChI": "InChI=1S/C12H12N2O3/c13-8-11(10-4-2-1-3-5-10)14-17-9-12-15-6-7-16-12/h1-5,12H,6-7,9H2",
        "InChIKey": null,
        "Canonical SMILES": "N#CC(=NOCC1OCCO1)C=2C=CC=CC2",
        "Molecular Formula": "C<sub>12</sub>H<sub>12</sub>N<sub>2</sub>O<sub>3</sub>",
        "Molecular Mass": "232.24",
        "Melting Point": "77.7 °C"
    }
}