{
    "cas_no": "10147-40-7",
    "key_name": "1-Dodecanesulfonyl chloride",
    "cn_name": "1-十二烷基磺酰氯;碳铵添加剂Y-1型;",
    "alternate_name": "1-Dodecanesulfonyl chloride;Dodecylsulfonyl chloride;NSC 94098;Dodecanesulfonyl chloride",
    "duplicated_cas_no": "",
    "SMILES": "C(CCCCCCCCC)CCS(Cl)(=O)=O",
    "meta_data": {
        "InChI": "InChI=1S/C12H25ClO2S/c1-2-3-4-5-6-7-8-9-10-11-12-16(13,14)15/h2-12H2,1H3",
        "InChIKey": null,
        "Canonical SMILES": "O=S(=O)(Cl)CCCCCCCCCCCC",
        "Molecular Formula": "C<sub>12</sub>H<sub>25</sub>ClO<sub>2</sub>S",
        "Molecular Mass": "268.84",
        "Boiling Point": "60-127 °C @ Press: 6 Torr",
        "Melting Point": "42-43 °C",
        "Density": "1.04 g/cm³ @ Temp: 20 °C"
    }
}