{
    "cas_no": "1171919-00-8",
    "key_name": "2-Chloro-3,5-diiodo-4-pyridinamine",
    "cn_name": null,
    "alternate_name": "4-Pyridinamine, 2-chloro-3,5-diiodo-;2-Chloro-3,5-diiodo-4-pyridinamine",
    "duplicated_cas_no": "",
    "SMILES": "IC=1C(N)=C(I)C=NC1Cl",
    "meta_data": {
        "InChI": "InChI=1S/C5H3ClI2N2/c6-5-3(8)4(9)2(7)1-10-5/h1H,(H2,9,10)",
        "InChIKey": null,
        "Canonical SMILES": "ClC1=NC=C(I)C(N)=C1I",
        "Molecular Formula": "C<sub>5</sub>H<sub>3</sub>ClI<sub>2</sub>N<sub>2</sub>",
        "Molecular Mass": "380.35",
        "Melting Point": "161-162 °C"
    }
}