{
    "cas_no": "865-49-6",
    "key_name": "Chloroform-<em>d</em>",
    "cn_name": "氯仿-d;氚代氯仿-d;",
    "alternate_name": "Methane-<em>d</em>, trichloro-;Chloroform-<em>d</em>;Deuteriochloroform;Deuterochloroform;Trichloromethane-<em>d</em>;Trichlorodeuteromethane;Deuterotrichloromethane;Trichlorodeuteriomethane;Chloroform (CDCl<sub>3</sub>);Deuteriotrichloromethane;Trichloromethane-<em>d</em><sub>1</sub>;Deuterochloroform(CDCl<sub>3</sub>)",
    "duplicated_cas_no": "",
    "SMILES": "C(Cl)(Cl)(Cl)[2H]",
    "meta_data": {
        "InChI": "InChI=1S/CHCl3/c2-1(3)4/h1H/i1D",
        "InChIKey": null,
        "Canonical SMILES": "ClC(Cl)Cl",
        "Molecular Formula": "CCl<sub>3</sub>D",
        "Molecular Mass": "",
        "Boiling Point": "61.5 °C",
        "Melting Point": "-64.69--64.15 °C",
        "Density": "1.5004 g/cm³ @ Temp: 20 °C"
    }
}