{
    "cas_no": "14113-05-4",
    "key_name": "<em>trans</em>-10-Hydroxy-2-decenoic acid",
    "cn_name": "10-羟基-2-癸烯酸;王浆酸;",
    "alternate_name": "2-Decenoic acid, 10-hydroxy-, (2<em>E</em>)-;2-Decenoic acid, 10-hydroxy-, (<em>E</em>)-;Royal jelly acid;2-Decenoic acid, 10-hydroxy-, <em>trans</em>-;(2<em>E</em>)-10-Hydroxy-2-decenoic acid;10-Hydroxy-<em>trans</em>-2-decenoic acid;<em>trans</em>-10-Hydroxy-2-decenoic acid;(<em>E</em>)-10-Hydroxy-2-decenoic acid;10-Hydroxy-2<em>E</em>-decenoic acid;NSC 87516;Biosil",
    "duplicated_cas_no": "",
    "SMILES": "C(CCCCCO)C/C=C/C(O)=O",
    "meta_data": {
        "InChI": "InChI=1S/C10H18O3/c11-9-7-5-3-1-2-4-6-8-10(12)13/h6,8,11H,1-5,7,9H2,(H,12,13)/b8-6+",
        "InChIKey": null,
        "Canonical SMILES": "O=C(O)C=CCCCCCCCO",
        "Molecular Formula": "C<sub>10</sub>H<sub>18</sub>O<sub>3</sub>",
        "Molecular Mass": "186.25",
        "Melting Point": "64-65 °C"
    }
}