{
    "cas_no": "3222-49-9",
    "key_name": "5-Methylnicotinic acid",
    "cn_name": "5-甲基烟酸;",
    "alternate_name": "3-Pyridinecarboxylic acid, 5-methyl-;Nicotinic acid, 5-methyl-;5-Methyl-3-pyridinecarboxylic acid;3-Picoline-5-carboxylic acid;5-Methylnicotinic acid;NSC 82649",
    "duplicated_cas_no": "",
    "SMILES": "C(O)(=O)C=1C=C(C)C=NC1",
    "meta_data": {
        "InChI": "InChI=1S/C7H7NO2/c1-5-2-6(7(9)10)4-8-3-5/h2-4H,1H3,(H,9,10)",
        "InChIKey": null,
        "Canonical SMILES": "O=C(O)C1=CN=CC(=C1)C",
        "Molecular Formula": "C<sub>7</sub>H<sub>7</sub>NO<sub>2</sub>",
        "Molecular Mass": "137.14",
        "Melting Point": "215 °C"
    }
}