{
    "cas_no": "103-37-7",
    "key_name": "Benzyl butyrate",
    "cn_name": "丁酸苯甲酯;丁酸苄酯;",
    "alternate_name": "Butanoic acid, phenylmethyl ester;Butyric acid, benzyl ester;Benzyl butyrate;Benzyl <em>n</em>-butyrate;Benzyl butanoate;Phenylmethyl butanoate;NSC 8073;Phenylmethyl butyrate",
    "duplicated_cas_no": "",
    "SMILES": "C(OC(CCC)=O)C1=CC=CC=C1",
    "meta_data": {
        "InChI": "InChI=1S/C11H14O2/c1-2-6-11(12)13-9-10-7-4-3-5-8-10/h3-5,7-8H,2,6,9H2,1H3",
        "InChIKey": null,
        "Canonical SMILES": "O=C(OCC=1C=CC=CC1)CCC",
        "Molecular Formula": "C<sub>11</sub>H<sub>14</sub>O<sub>2</sub>",
        "Molecular Mass": "178.23",
        "Boiling Point": "239 °C",
        "Density": "1.016 g/cm³ @ Temp: 17.5 °C"
    }
}