{
    "cas_no": "55905-53-8",
    "key_name": "Clebopride",
    "cn_name": "氯波必利;克立波必利;4-氨基-5-氯-2-(甲氧基)-N-[1-苄基哌啶-4-基]苯甲酰胺;",
    "alternate_name": "Benzamide, 4-amino-5-chloro-2-methoxy-<em>N</em>-[1-(phenylmethyl)-4-piperidinyl]-;4-Amino-5-chloro-2-methoxy-<em>N</em>-[1-(phenylmethyl)-4-piperidinyl]benzamide;Clebopride;BRL 20596",
    "duplicated_cas_no": "",
    "SMILES": "C(NC1CCN(CC2=CC=CC=C2)CC1)(=O)C3=C(OC)C=C(N)C(Cl)=C3",
    "meta_data": {
        "InChI": "InChI=1S/C20H24ClN3O2/c1-26-19-12-18(22)17(21)11-16(19)20(25)23-15-7-9-24(10-8-15)13-14-5-3-2-4-6-14/h2-6,11-12,15H,7-10,13,22H2,1H3,(H,23,25)",
        "InChIKey": null,
        "Canonical SMILES": "O=C(NC1CCN(CC=2C=CC=CC2)CC1)C=3C=C(Cl)C(N)=CC3OC",
        "Molecular Formula": "C<sub>20</sub>H<sub>24</sub>ClN<sub>3</sub>O<sub>2</sub>",
        "Molecular Mass": "373.88",
        "Melting Point": "194-195 °C"
    }
}