{
    "cas_no": "10351-19-6",
    "key_name": "2-(4-Pyridinylthio)acetic acid",
    "cn_name": "4-吡啶巯基乙酸;4-吡啶基硫代乙酸;",
    "alternate_name": "Acetic acid, 2-(4-pyridinylthio)-;Acetic acid, (4-pyridylthio)-;Acetic acid, (4-pyridinylthio)-;2-(4-Pyridinylthio)acetic acid;4-[(Carboxymethyl)thio]pyridine;4-Pyridylthioacetic acid;4-Pyridinylthioacetic acid;4-Pyridinylsulfanylacetic acid;4-Pyridylmercaptoacetic acid;2-(Pyridin-4-ylsulfanyl)acetic acid;2-Pyridin-4-ylsulfanylacetic acid",
    "duplicated_cas_no": "933757-14-3",
    "SMILES": "S(CC(O)=O)C=1C=CN=CC1",
    "meta_data": {
        "InChI": "InChI=1S/C7H7NO2S/c9-7(10)5-11-6-1-3-8-4-2-6/h1-4H,5H2,(H,9,10)",
        "InChIKey": null,
        "Canonical SMILES": "O=C(O)CSC=1C=CN=CC1",
        "Molecular Formula": "C<sub>7</sub>H<sub>7</sub>NO<sub>2</sub>S",
        "Molecular Mass": "169.20",
        "Melting Point": "270 °C (decomp)"
    }
}