{
    "cas_no": "1735-17-7",
    "key_name": "Cyclohexane-<em>d</em><sub>12</sub>",
    "cn_name": null,
    "alternate_name": "Cyclohexane-<em>1</em>,<em>1</em>,<em>2</em>,<em>2</em>,<em>3</em>,<em>3</em>,<em>4</em>,<em>4</em>,<em>5</em>,<em>5</em>,<em>6</em>,<em>6</em>-<em>d</em><sub>12</sub>;Cyclohexane-<em>d</em><sub>12</sub>;Perdeuteriocyclohexane;Perdeuterated cyclohexane;Cyclohexane-<sup>2</sup><em>H</em><sub>12</sub>;d<sub>12</sub>-Cyclohexane;Dodecadeuterocyclohexane;1,1,2,2,3,3,4,4,5,5,6,6-Dodecadeuteriocyclohexane",
    "duplicated_cas_no": "",
    "SMILES": "C1(C(C(C(C(C1([2H])[2H])([2H])[2H])([2H])[2H])([2H])[2H])([2H])[2H])([2H])[2H]",
    "meta_data": {
        "InChI": "InChI=1S/C6H12/c1-2-4-6-5-3-1/h1-6H2/i1D2,2D2,3D2,4D2,5D2,6D2",
        "InChIKey": null,
        "Canonical SMILES": "C1CCCCC1",
        "Molecular Formula": "C<sub>6</sub>D<sub>12</sub>",
        "Molecular Mass": "",
        "Boiling Point": "78.43 °C @ Press: 760 Torr",
        "Density": "0.8483 g/cm³ @ Temp: 60 °C"
    }
}