{
    "cas_no": "83857-96-9",
    "key_name": "2-Butyl-4-chloro-5-formylimidazole",
    "cn_name": "2-正丁基-4-氯-5-甲酰基咪唑;2-正丁基-4-氯咪唑-5-甲醛;2-正丁基-5-氯-4-甲酰基咪唑;",
    "alternate_name": "1<em>H</em>-Imidazole-4-carboxaldehyde, 2-butyl-5-chloro-;2-Butyl-5-chloro-1<em>H</em>-imidazole-4-carboxaldehyde;2-Butyl-4-chloro-5-formylimidazole;2-Butyl-5-chloroimidazole-4-carboxaldehyde;2-Butyl-4-chloroimidazole-5-carboxaldehyde;2-Butyl-5-formyl-4-chloroimidazole;2-<em>n</em>-Butyl-4-chloro-5-imidazolecarboxaldehyde;2-Butyl-4-chloroimidazole-5-carbaldehyde;2-<em>n</em>-Butyl-5-chlorimidazole-4-carbaldehyde;2-Butyl-5-chloroimidazole-4-carbaldehyde;2-Butyl-4-chloro-1<em>H</em>-imidazolyl-5-carboxaldehyde;2-Butyl-5-chloro-3<em>H</em>-imidazole-4-carboxaldehyde;2-Butyl-4-chloro-1<em>H</em>-imidazole-5-carboxaldehyde;4-Chloro-2-<em>n</em>-butylimidazole-5-carboxaldehyde;2-Butyl-5-chloro-4-formylimidazole;2-Butyl-4-chloro-1<em>H</em>-imidazole-5-carbaldehyde;2-Butyl-5-chloro-1<em>H</em>-imidazole-4-carbaldehyde;2-n-Butyl-4-chloro-5 formyl imidazole;2-Butyl-5-chloro-1<em>H</em>-imidazole-4-carboaldehyde;2<em>n</em>-Butyl-4-chloro-5-formylimidazole",
    "duplicated_cas_no": "",
    "SMILES": "C(CCC)C=1NC(C=O)=C(Cl)N1",
    "meta_data": {
        "InChI": "InChI=1S/C8H11ClN2O/c1-2-3-4-7-10-6(5-12)8(9)11-7/h5H,2-4H2,1H3,(H,10,11)",
        "InChIKey": null,
        "Canonical SMILES": "O=CC=1NC(=NC1Cl)CCCC",
        "Molecular Formula": "C<sub>8</sub>H<sub>11</sub>ClN<sub>2</sub>O",
        "Molecular Mass": "186.64",
        "Melting Point": "93 °C"
    }
}