{
    "cas_no": "4333-21-5",
    "key_name": "Hexahydro-2-phenyl-3-thioxo-1<em>H</em>-pyrrolo[1,2-<em>c</em>]imidazol-1-one",
    "cn_name": "苯基硫代乙内酰脲-脯氨酸;",
    "alternate_name": "1<em>H</em>-Pyrrolo[1,2-<em>c</em>]imidazol-1-one, hexahydro-2-phenyl-3-thioxo-;1,2-Pyrrolidinedicarboximide, <em>N</em>-phenyl-1-thio-;Hexahydro-2-phenyl-3-thioxo-1<em>H</em>-pyrrolo[1,2-<em>c</em>]imidazol-1-one;Proline phenylthiohydantoin;Phenylthiohydantoin <span class=\"text-smallcaps\">DL</span>-proline;NSC 370871;NSC 96411;2-Phenyl-3-thioxohexahydro-1<em>H</em>-pyrrolo[1,2-<em>c</em>]imidazol-1-one;2-Phenyl-3-sulfanylidene-5,6,7,7a-tetrahydropyrrolo[1,2-<em>c</em>]imidazol-1-one",
    "duplicated_cas_no": "31364-82-6",
    "SMILES": "O=C1N(C(=S)N2C1CCC2)C3=CC=CC=C3",
    "meta_data": {
        "InChI": "InChI=1S/C12H12N2OS/c15-11-10-7-4-8-13(10)12(16)14(11)9-5-2-1-3-6-9/h1-3,5-6,10H,4,7-8H2",
        "InChIKey": null,
        "Canonical SMILES": "O=C1N(C=2C=CC=CC2)C(=S)N3CCCC13",
        "Molecular Formula": "C<sub>12</sub>H<sub>12</sub>N<sub>2</sub>OS",
        "Molecular Mass": "232.30",
        "Melting Point": "179 °C"
    }
}