{
    "cas_no": "5521-60-8",
    "key_name": "5-Methyl-2,3-pyrazinedicarboxylic acid",
    "cn_name": "5-甲基吡嗪-2,3-二羧酸;",
    "alternate_name": "2,3-Pyrazinedicarboxylic acid, 5-methyl-;5-Methyl-2,3-pyrazinedicarboxylic acid;6-Methylpyrazine-2,3-dicarboxylic acid;NSC 89408;5-Methylpyrazine-2,3-dicarboxylic acid",
    "duplicated_cas_no": "",
    "SMILES": "C(O)(=O)C=1C(C(O)=O)=NC(C)=CN1",
    "meta_data": {
        "InChI": "InChI=1S/C7H6N2O4/c1-3-2-8-4(6(10)11)5(9-3)7(12)13/h2H,1H3,(H,10,11)(H,12,13)",
        "InChIKey": null,
        "Canonical SMILES": "O=C(O)C1=NC=C(N=C1C(=O)O)C",
        "Molecular Formula": "C<sub>7</sub>H<sub>6</sub>N<sub>2</sub>O<sub>4</sub>",
        "Molecular Mass": "182.13",
        "Melting Point": "174-175 °C"
    }
}