{
    "cas_no": "3240-34-4",
    "key_name": "Iodobenzene diacetate",
    "cn_name": "二乙酸碘苯;碘苯二乙酸;二乙酰氧基碘苯;二乙酸亚碘酰苯;醋酸碘苯;",
    "alternate_name": "Iodine, bis(acetato-κ<em>O</em>)phenyl-;Benzene, (diacetoxyiodo)-;Iodine, bis(acetato-<em>O</em>)phenyl-;Benzene, (dihydroxyiodo)-, diacetate;Benzene, iodoso-, diacetate;Bis(acetato-κ<em>O</em>)phenyliodine;Phenyliodoso acetate;Iodosobenzene diacetate;(Diacetoxyiodo)benzene;Phenyliodine diacetate;Phenyliodoso diacetate;Phenyliodo diacetate;Bis(acetato)phenyliodine;Phenyliodine(III) diacetate;Phenyliodosyl diacetate;Iodobenzene diacetate;[Bis(acetoxy)iodo]benzene;Phenyliodonium diacetate;Iodophenyl diacetate;Iodosylbenzene diacetate;PIDA;NSC 226375;NSC 23801;BAIB;Diacetoxy(phenyl)iodine;Phenyliodanediyl diacetate",
    "duplicated_cas_no": "76546-99-1;94569-95-6;207518-80-7;359635-52-2;864365-82-2;864365-83-3;1071215-62-7;1257985-44-6;1313808-31-9;1313808-32-0;1330185-09-5",
    "SMILES": "I(OC(C)=O)(OC(C)=O)C1=CC=CC=C1",
    "meta_data": {
        "InChI": "InChI=1S/C10H11IO4/c1-8(12)14-11(15-9(2)13)10-6-4-3-5-7-10/h3-7H,1-2H3",
        "InChIKey": null,
        "Canonical SMILES": "O=C(OI(OC(=O)C)C=1C=CC=CC1)C",
        "Molecular Formula": "C<sub>10</sub>H<sub>11</sub>IO<sub>4</sub>",
        "Molecular Mass": "322.10",
        "Melting Point": "160.5 °C"
    }
}