{
    "cas_no": "4185-69-7",
    "key_name": "(2,4-Dinitrophenyl)pyridinium chloride",
    "cn_name": null,
    "alternate_name": "Pyridinium, 1-(2,4-dinitrophenyl)-, chloride (1:1);Pyridinium, 1-(2,4-dinitrophenyl)-, chloride;1-(2,4-Dinitrophenyl)pyridinium chloride;<em>N</em>-(2,4-Dinitrophenyl)pyridinium chloride;(2,4-Dinitrophenyl)pyridinium chloride;Zincke salt;1-(2,4-Dinitrophenyl)-1λ5-pyridin-1-ylium chloride;1-(2,4-Dinitrophenyl)pyridin-1-ium chloride",
    "duplicated_cas_no": "40808-00-2;1228504-28-6",
    "SMILES": "N(=O)(=O)C1=C(C=CC(N(=O)=O)=C1)[N+]=2C=CC=CC2.[Cl-]",
    "meta_data": {
        "InChI": "InChI=1S/C11H8N3O4.ClH/c15-13(16)9-4-5-10(11(8-9)14(17)18)12-6-2-1-3-7-12;/h1-8H;1H/q+1;/p-1",
        "InChIKey": null,
        "Canonical SMILES": "[Cl-].O=N(=O)C=1C=CC(=C(C1)N(=O)=O)[N+]=2C=CC=CC2",
        "Molecular Formula": "C<sub>11</sub>H<sub>8</sub>N<sub>3</sub>O<sub>4</sub>.Cl",
        "Molecular Mass": "",
        "Melting Point": "170 °C"
    }
}