{
    "cas_no": "18465-71-9",
    "key_name": "(3<em>R</em>,4<em>R</em>)-Dihydro-3,4-dihydroxy-3-methyl-2(3<em>H</em>)-furanone",
    "cn_name": null,
    "alternate_name": "2(3<em>H</em>)-Furanone, dihydro-3,4-dihydroxy-3-methyl-, (3<em>R</em>,4<em>R</em>)-;Erythronic acid, 2-<em>C</em>-methyl-, γ-lactone, <span class=\"text-smallcaps\">D</span>-;2(3<em>H</em>)-Furanone, dihydro-3,4-dihydroxy-3-methyl-, (3<em>R</em>-<em>cis</em>)-;(3<em>R</em>,4<em>R</em>)-Dihydro-3,4-dihydroxy-3-methyl-2(3<em>H</em>)-furanone;2-C-Methyl-<span class=\"text-smallcaps\">D</span>-erythrono-1,4-lactone",
    "duplicated_cas_no": "",
    "SMILES": "C[C@@]1(O)[C@H](O)COC1=O",
    "meta_data": {
        "InChI": "InChI=1S/C5H8O4/c1-5(8)3(6)2-9-4(5)7/h3,6,8H,2H2,1H3/t3-,5-/m1/s1",
        "InChIKey": null,
        "Canonical SMILES": "O=C1OCC(O)C1(O)C",
        "Molecular Formula": "C<sub>5</sub>H<sub>8</sub>O<sub>4</sub>",
        "Molecular Mass": "132.11",
        "Melting Point": "113 °C"
    }
}