{
    "cas_no": "53-70-3",
    "key_name": "Dibenz[<em>a</em>,<em>h</em>]anthracene",
    "cn_name": "二苯并[a,h]蒽;二苯蒽;二苯并三苯;",
    "alternate_name": "Dibenz[<em>a</em>,<em>h</em>]anthracene;DBA;1,2:5,6-Dibenzanthracene;Dibenzo[<em>a</em>,<em>h</em>]anthracene;1,2:5,6-Dibenz[<em>a</em>]anthracene;1,2:5,6-Benzanthracene;1,2:5,6-Dibenzoanthracene;1,2:5,6-Dibenzanthracen;NSC 22433",
    "duplicated_cas_no": "",
    "SMILES": "C12=C3C(=CC=C1C=C4C(=C2)C=CC=5C4=CC=CC5)C=CC=C3",
    "meta_data": {
        "InChI": "InChI=1S/C22H14/c1-3-7-19-15(5-1)9-11-17-14-22-18(13-21(17)19)12-10-16-6-2-4-8-20(16)22/h1-14H",
        "InChIKey": null,
        "Canonical SMILES": "C=1C=CC2=C(C1)C=CC=3C=C4C(C=CC=5C=CC=CC54)=CC32",
        "Molecular Formula": "C<sub>22</sub>H<sub>14</sub>",
        "Molecular Mass": "278.35",
        "Boiling Point": "524 °C",
        "Melting Point": "266 °C",
        "Density": "1.282 g/cm³"
    }
}