{
    "cas_no": "482-05-3",
    "key_name": "Diphenic acid",
    "cn_name": "2,2\"-联苯二甲酸;",
    "alternate_name": "[1,1′-Biphenyl]-2,2′-dicarboxylic acid;Diphenic acid;<em>o</em>,<em>o</em>′-Bibenzoic acid;2,2′-Biphenyldicarboxylic acid;2,2′-Bibenzoic acid;<em>o</em>,<em>o</em>′-Diphenic acid;2,2′-Dicarboxybiphenyl;2,2′-Diphenic acid;Diphenyl-2,2′-dicarboxylic acid;2′-Carboxybiphenyl-2-carboxylic acid;NSC 1966;2-(2-Carboxyphenyl)benzoic acid",
    "duplicated_cas_no": "147801-91-0",
    "SMILES": "C(O)(=O)C1=C(C=CC=C1)C2=C(C(O)=O)C=CC=C2",
    "meta_data": {
        "InChI": "InChI=1S/C14H10O4/c15-13(16)11-7-3-1-5-9(11)10-6-2-4-8-12(10)14(17)18/h1-8H,(H,15,16)(H,17,18)",
        "InChIKey": null,
        "Canonical SMILES": "O=C(O)C=1C=CC=CC1C=2C=CC=CC2C(=O)O",
        "Molecular Formula": "C<sub>14</sub>H<sub>10</sub>O<sub>4</sub>",
        "Molecular Mass": "242.23",
        "Melting Point": "233.5 °C"
    }
}