{
    "cas_no": "555-60-2",
    "key_name": "Carbonyl cyanide (<em>m</em>-chlorophenyl)hydrazone",
    "cn_name": "羰基氰酯-3-氯苯基腙;",
    "alternate_name": "Propanedinitrile, 2-[2-(3-chlorophenyl)hydrazinylidene]-;Propanedinitrile, [(3-chlorophenyl)hydrazono]-;Mesoxalonitrile, (<em>m</em>-chlorophenyl)hydrazone;2-[2-(3-Chlorophenyl)hydrazinylidene]propanedinitrile;Carbonyl cyanide (3-chlorophenyl)hydrazone;CCP;CCCP;Carbonyl cyanide (<em>m</em>-chlorophenyl)hydrazone;[(3-Chlorophenyl)hydrazono]malononitrile;3-Chlorophenylhydrazonopropanedinitrile;NSC 88124;2-[(3-Chlorophenyl)hydrazinylidene]propanedinitrile;2-[(3-Chlorophenyl)-hydrazono]malononitrile",
    "duplicated_cas_no": "81693-28-9;208707-97-5",
    "SMILES": "N(N=C(C#N)C#N)C1=CC(Cl)=CC=C1",
    "meta_data": {
        "InChI": "InChI=1S/C9H5ClN4/c10-7-2-1-3-8(4-7)13-14-9(5-11)6-12/h1-4,13H",
        "InChIKey": null,
        "Canonical SMILES": "N#CC(C#N)=NNC=1C=CC=C(Cl)C1",
        "Molecular Formula": "C<sub>9</sub>H<sub>5</sub>ClN<sub>4</sub>",
        "Molecular Mass": "204.62",
        "Melting Point": "176 °C (decomp)"
    }
}