{
    "cas_no": "518-75-2",
    "key_name": "Citrinin",
    "cn_name": "橘青霉素;",
    "alternate_name": "3<em>H</em>-2-Benzopyran-7-carboxylic acid, 4,6-dihydro-8-hydroxy-3,4,5-trimethyl-6-oxo-, (3<em>R</em>,4<em>S</em>)-;Citrinin;3<em>H</em>-2-Benzopyran-7-carboxylic acid, 4,6-dihydro-8-hydroxy-3,4,5-trimethyl-6-oxo-, (3<em>R</em>-<em>trans</em>)-;(3<em>R</em>,4<em>S</em>)-4,6-Dihydro-8-hydroxy-3,4,5-trimethyl-6-oxo-3<em>H</em>-2-benzopyran-7-carboxylic acid;4,6-Dihydro-8-hydroxy-3,4,5-trimethyl-6-oxo-3<em>H</em>-2-benzopyran-7-carboxylic acid;(-)-Citrinin;NSC 186;MeSH ID: D002953",
    "duplicated_cas_no": "11003-17-1;16051-41-5",
    "SMILES": "CC1=C2C(C(O)=C(C(O)=O)C1=O)=CO[C@H](C)[C@H]2C",
    "meta_data": {
        "InChI": "InChI=1S/C13H14O5/c1-5-7(3)18-4-8-9(5)6(2)11(14)10(12(8)15)13(16)17/h4-5,7,15H,1-3H3,(H,16,17)/t5-,7-/m1/s1",
        "InChIKey": null,
        "Canonical SMILES": "O=C(O)C=1C(=O)C(=C2C(=COC(C)C2C)C1O)C",
        "Molecular Formula": "C<sub>13</sub>H<sub>14</sub>O<sub>5</sub>",
        "Molecular Mass": "250.25",
        "Melting Point": "178.5 °C (decomp)"
    }
}