{
    "cas_no": "4744-50-7",
    "key_name": "Furo[3,4-<em>b</em>]pyrazine-5,7-dione",
    "cn_name": "2,3-吡嗪二酸酐;吡嗪-2,3-二羧酸酐;",
    "alternate_name": "Furo[3,4-<em>b</em>]pyrazine-5,7-dione;2,3-Pyrazinedicarboxylic anhydride;2,3-Pyrazinedicarboxylic acid anhydride",
    "duplicated_cas_no": "1431859-45-8;1522373-11-0",
    "SMILES": "O=C1C=2C(C(=O)O1)=NC=CN2",
    "meta_data": {
        "InChI": "InChI=1S/C6H2N2O3/c9-5-3-4(6(10)11-5)8-2-1-7-3/h1-2H",
        "InChIKey": null,
        "Canonical SMILES": "O=C1OC(=O)C2=NC=CN=C12",
        "Molecular Formula": "C<sub>6</sub>H<sub>2</sub>N<sub>2</sub>O<sub>3</sub>",
        "Molecular Mass": "150.09",
        "Melting Point": "&gt;170 °C (decomp)"
    }
}