{
    "cas_no": "57-83-0",
    "key_name": "Progesterone",
    "cn_name": "孕酮;黄体素;黄体酮;",
    "alternate_name": "Pregn-4-ene-3,20-dione;Progesterone;Corlutin;Corlutina;Corluvite;Corporin;Corpus luteum hormone;Flavolutan;Fologenon;Gestone;Gestormone;Glanducorpin;Hormoflaveine;Hormoluton;Luteal Hormone;Luteinique;Luteodyn;Luteogan;Luteohormone;Luteosan;Luteostab;Luteovis;Lutex;Lutidon;Lutocyclin;Lutocyclin M;Lutocylin;Lutoform;Lutogyl;Lutren;Lutromone;Piaponon;Primolut;Progekan;Progesterol;Progestin;Progestone;Prolidon;Luteol;Syntolutan;Proluton;Agolutin;Lucorteum Sol;Gestron;Percutacrine Luteinique;Lipo-Lutin;Nalutron;Progestron;Luteopur;Bio-luton;Gynlutin;Gynolutone;Gesterol;Luteocrin normale;Syngestrets;Prolets;Lutin;Lutociclina;Protormone;Progestasert;Vitarrine;Δ<sup>4</sup>-Pregnene-3,20-dione;Utrogestan;Luteum;U 3672;Crinone;Progestogel;Lugesteron;Prontogest;Prometrium;Utrogest;Cyclogest;Syngesterone;Progestol;Gestiron;Lutocuclin M;Progeston;NSC 64377;NSC 9704;Progeffik;Progestan;Duraprogen;CIDR;Estima;Prochieve;Endometrin;Minagest;Microgest;Lugesterone;EAZI-BREED CIDR;4-Pregnene-3,20-dione;P4;Luteosterone;Sincrogest;Lutinus;Cue-Mate;Progeffik 200;Sincrogest LA;MeSH ID: D011374;P 4LA300",
    "duplicated_cas_no": "8012-32-6;8023-13-0;257630-50-5;753497-20-0;2051138-40-8",
    "SMILES": "C[C@@]12[C@@]3([C@]([C@]4([C@](C)(CC3)[C@@H](C(C)=O)CC4)[H])(CCC1=CC(=O)CC2)[H])[H]",
    "meta_data": {
        "InChI": "InChI=1S/C21H30O2/c1-13(22)17-6-7-18-16-5-4-14-12-15(23)8-10-20(14,2)19(16)9-11-21(17,18)3/h12,16-19H,4-11H2,1-3H3/t16-,17+,18-,19-,20-,21+/m0/s1",
        "InChIKey": null,
        "Canonical SMILES": "O=C1C=C2CCC3C(CCC4(C)C(C(=O)C)CCC34)C2(C)CC1",
        "Molecular Formula": "C<sub>21</sub>H<sub>30</sub>O<sub>2</sub>",
        "Molecular Mass": "314.46",
        "Melting Point": "127-131 °C",
        "Density": "1.166 g/cm³ @ Temp: 23 °C"
    }
}