{
    "cas_no": "6132-02-1",
    "key_name": "Sodium carbonate decahydrate",
    "cn_name": "碳酸钠(十水);十水碳酸钠;",
    "alternate_name": "Carbonic acid sodium salt (1:2), hydrate (1:10);Carbonic acid disodium salt, decahydrate;Nevite;Disodium carbonate decahydrate;Sodium carbonate decahydrate (Na<sub>2</sub>CO<sub>3</sub>.10H<sub>2</sub>O);Sodium carbonate (Na<sub>2</sub>CO<sub>3</sub>) decahydrate;Sodium carbonate decahydrate",
    "duplicated_cas_no": "",
    "SMILES": "C(=O)(O)O.[Na].O",
    "meta_data": {
        "InChI": "InChI=1S/CH2O3.2Na.10H2O/c2-1(3)4;;;;;;;;;;;;/h(H2,2,3,4);;;10*1H2",
        "InChIKey": null,
        "Canonical SMILES": "[Na].O=C(O)O.O",
        "Molecular Formula": "CH<sub>2</sub>O<sub>3</sub>.10H<sub>2</sub>O.2Na",
        "Molecular Mass": "",
        "Melting Point": "30 °C"
    }
}