{
    "cas_no": "20571-42-0",
    "key_name": "7-Diethylaminocoumarin",
    "cn_name": null,
    "alternate_name": "2<em>H</em>-1-Benzopyran-2-one, 7-(diethylamino)-;Coumarin, 7-(diethylamino)-;7-(Diethylamino)-2<em>H</em>-1-benzopyran-2-one;7-Diethylaminocoumarin;LD 466;C 1H;Coumarin 466;7-Diethylaminochromen-2-one;Coumarin 110;7-Diethylamino-2<em>H</em>-benzopyran-2-one;7-(Diethylamino)-2<em>H</em>-chromen-2-one",
    "duplicated_cas_no": "71123-92-7",
    "SMILES": "N(CC)(CC)C=1C=C2C(=CC1)C=CC(=O)O2",
    "meta_data": {
        "InChI": "InChI=1S/C13H15NO2/c1-3-14(4-2)11-7-5-10-6-8-13(15)16-12(10)9-11/h5-9H,3-4H2,1-2H3",
        "InChIKey": null,
        "Canonical SMILES": "O=C1OC=2C=C(C=CC2C=C1)N(CC)CC",
        "Molecular Formula": "C<sub>13</sub>H<sub>15</sub>NO<sub>2</sub>",
        "Molecular Mass": "217.26",
        "Melting Point": "88-89 °C"
    }
}