{
    "cas_no": "19933-24-5",
    "key_name": "3-(2-Thienyl)-1<em>H</em>-pyrazole",
    "cn_name": "3-(2-噻吩)吡唑;5-(2-噻吩)-1H-吡唑;3-(2-噻吩基)吡唑;",
    "alternate_name": "1<em>H</em>-Pyrazole, 3-(2-thienyl)-;3-(2-Thienyl)-1<em>H</em>-pyrazole;3-(2-Thienyl)pyrazole;3-Thiophen-2-yl-1<em>H</em>-pyrazole",
    "duplicated_cas_no": "59843-86-6;73039-39-1;190579-94-3;219863-71-5;1646633-03-5",
    "SMILES": "C=1(C=CNN1)C2=CC=CS2",
    "meta_data": {
        "InChI": "InChI=1S/C7H6N2S/c1-2-7(10-5-1)6-3-4-8-9-6/h1-5H,(H,8,9)",
        "InChIKey": null,
        "Canonical SMILES": "N=1NC=CC1C=2SC=CC2",
        "Molecular Formula": "C<sub>7</sub>H<sub>6</sub>N<sub>2</sub>S",
        "Molecular Mass": "150.20",
        "Boiling Point": "120-124 °C @ Press: 10 Torr",
        "Melting Point": "98-99 °C"
    }
}