{
    "cas_no": "645411-16-1",
    "key_name": "1-Propanone, 3-(methylamino)-1-(2-thienyl)-, hydrochloride (1:1)",
    "cn_name": null,
    "alternate_name": "1-Propanone, 3-(methylamino)-1-(2-thienyl)-, hydrochloride (1:1);1-Propanone, 3-(methylamino)-1-(2-thienyl)-, hydrochloride;3-(Methylamino)-1-(thiophen-2-yl)propan-1-one hydrochloride;3-(<em>N</em>-Methylamino)-1-(2-thienyl)-1-propanone hydrochloride;3-(Methylamino)-1-(2-thienyl)propan-1-one hydrochloride",
    "duplicated_cas_no": "",
    "SMILES": "C(CCNC)(=O)C1=CC=CS1.Cl",
    "meta_data": {
        "InChI": "InChI=1S/C8H11NOS.ClH/c1-9-5-4-7(10)8-3-2-6-11-8;/h2-3,6,9H,4-5H2,1H3;1H",
        "InChIKey": null,
        "Canonical SMILES": "Cl.O=C(C=1SC=CC1)CCNC",
        "Molecular Formula": "C<sub>8</sub>H<sub>11</sub>NOS.ClH",
        "Molecular Mass": "",
        "Melting Point": "139-141 °C"
    }
}