{
    "cas_no": "7440-37-1",
    "key_name": "Argon",
    "cn_name": "氩;氩气;",
    "alternate_name": "Argon;Argon-40;Argon, isotope of mass 40;R 740;Khladon R 740;<sup>40</sup>Ar;MeSH ID: D001128",
    "duplicated_cas_no": "137736-93-7;13473-05-7;24494-51-7;50938-66-4;75714-55-5;239084-98-1;245503-61-1",
    "SMILES": "[Ar]",
    "meta_data": {
        "InChI": "InChI=1S/Ar",
        "InChIKey": null,
        "Canonical SMILES": "[Ar]",
        "Molecular Formula": "Ar",
        "Molecular Mass": "",
        "Boiling Point": "-185.9 °C",
        "Melting Point": "-189.2 °C",
        "Density": "3.424 g/cm³"
    }
}