{
    "cas_no": "622-44-6",
    "key_name": "<em>N</em>-Phenylcarbonimidic dichloride",
    "cn_name": "二氯代苯胩;二氯苯基异腈;N-二氯亚甲苯胺;",
    "alternate_name": "Carbonimidic dichloride, <em>N</em>-phenyl-;Imidocarbonyl chloride, phenyl-;Carbonimidic dichloride, phenyl-;<em>N</em>-Phenylcarbonimidic dichloride;Phenyl isocyanide, dichloride;Phenyl carbylamine chloride;Carbonic dichloride, (phenylimino)-;Benzenamine, <em>N</em>-(dichloromethylene)-;<em>N</em>-(Dichloromethylene)aniline;<em>N</em>-Phenylimidophosgene;Phenylisonitrile dichloride;(Phenylimino)carbonyl dichloride;Phenylimidocarbonyl chloride;<em>N</em>-Phenyliminocarbonyl dichloride;<em>N</em>-Phenylcarbimide dichloride;1,1-Dichloro-<em>N</em>-phenylmethanimine;Dichloro(phenylimino)methane;<em>N</em>-(Phenylimino)phosgene;<em>N</em>-Phenylimidoyl dichloride;Phenylcarbonimidic dichloride;NSC 2051",
    "duplicated_cas_no": "",
    "SMILES": "N(=C(Cl)Cl)C1=CC=CC=C1",
    "meta_data": {
        "InChI": "InChI=1S/C7H5Cl2N/c8-7(9)10-6-4-2-1-3-5-6/h1-5H",
        "InChIKey": null,
        "Canonical SMILES": "ClC(Cl)=NC=1C=CC=CC1",
        "Molecular Formula": "C<sub>7</sub>H<sub>5</sub>Cl<sub>2</sub>N",
        "Molecular Mass": "174.03",
        "Boiling Point": "210 °C @ Press: 760 Torr",
        "Melting Point": "19.5 °C",
        "Density": "1.285 g/cm³ @ Temp: 15 °C"
    }
}