{
    "cas_no": "626-15-3",
    "key_name": "1,3-Bis(bromomethyl)benzene",
    "cn_name": "1,3-二(溴甲基)苯;邻二溴苄;",
    "alternate_name": "Benzene, 1,3-bis(bromomethyl)-;<em>m</em>-Xylene, α,α′-dibromo-;1,3-Bis(bromomethyl)benzene;<em>m</em>-Xylylene dibromide;α,α′-Dibromo-<em>m</em>-xylene;<em>m</em>-Bis(bromomethyl)benzene;<em>m</em>-(Bromomethyl)benzyl bromide;α,α′-<em>m</em>-Xylene dibromide;NSC 28040;α,α′-Dibromo-1,3-xylene;1,3-Dibromomethyl benzene",
    "duplicated_cas_no": "",
    "SMILES": "C(Br)C1=CC(CBr)=CC=C1",
    "meta_data": {
        "InChI": "InChI=1S/C8H8Br2/c9-5-7-2-1-3-8(4-7)6-10/h1-4H,5-6H2",
        "InChIKey": null,
        "Canonical SMILES": "BrCC1=CC=CC(=C1)CBr",
        "Molecular Formula": "C<sub>8</sub>H<sub>8</sub>Br<sub>2</sub>",
        "Molecular Mass": "263.96",
        "Boiling Point": "158-160 °C @ Press: 12 Torr",
        "Melting Point": "77 °C"
    }
}