{
    "cas_no": "623-05-2",
    "key_name": "4-Hydroxybenzyl alcohol",
    "cn_name": "对羟基苯甲醇;",
    "alternate_name": "Benzenemethanol, 4-hydroxy-;Benzyl alcohol, <em>p</em>-hydroxy-;4-Hydroxybenzenemethanol;<em>p</em>-Hydroxybenzyl alcohol;4-Methylolphenol;4-Hydroxybenzyl alcohol;<em>p</em>-Methylolphenol;4-(Hydroxymethyl)phenol;α-Hydroxy-<em>p</em>-cresol;<em>p</em>-(Hydroxymethyl)phenol;Gastrodigenin;(4-Hydroxyphenyl)methanol;<em>p</em>-Methoxytoluol;NSC 227926;<em>p</em>-Hydroxybenzenemethanol;<em>p</em>-2-Hydroxybenzyl alcohol",
    "duplicated_cas_no": "2923577-39-1",
    "SMILES": "C(O)C1=CC=C(O)C=C1",
    "meta_data": {
        "InChI": "InChI=1S/C7H8O2/c8-5-6-1-3-7(9)4-2-6/h1-4,8-9H,5H2",
        "InChIKey": null,
        "Canonical SMILES": "OC1=CC=C(C=C1)CO",
        "Molecular Formula": "C<sub>7</sub>H<sub>8</sub>O<sub>2</sub>",
        "Molecular Mass": "124.14",
        "Boiling Point": "252 °C",
        "Melting Point": "124.5 °C"
    }
}