{
    "cas_no": "523-39-7",
    "key_name": "Menaquinone 9",
    "cn_name": "维生素K2(45);甲萘醌-9;",
    "alternate_name": "1,4-Naphthalenedione, 2-methyl-3-[(2<em>E</em>,6<em>E</em>,10<em>E</em>,14<em>E</em>,18<em>E</em>,22<em>E</em>,26<em>E</em>,30<em>E</em>)-3,7,11,15,19,23,27,31,35-nonamethyl-2,6,10,14,18,22,26,30,34-hexatriacontanonaen-1-yl]-;1,4-Naphthoquinone, 2-methyl-3-(3,7,11,15,19,23,27,31,35-nonamethyl-2,6,10,14,18,22,26,30,34-hexatriacontanonaenyl)-;Vitamin K<sub>2(45)</sub>;1,4-Naphthalenedione, 2-methyl-3-(3,7,11,15,19,23,27,31,35-nonamethyl-2,6,10,14,18,22,26,30,34-hexatriacontanonaenyl)-, (<em>all</em>-<em>E</em>)-;1,4-Naphthalenedione, 2-methyl-3-[(2<em>E</em>,6<em>E</em>,10<em>E</em>,14<em>E</em>,18<em>E</em>,22<em>E</em>,26<em>E</em>,30<em>E</em>)-3,7,11,15,19,23,27,31,35-nonamethyl-2,6,10,14,18,22,26,30,34-hexatriacontanonaenyl]-;2-Methyl-3-[(2<em>E</em>,6<em>E</em>,10<em>E</em>,14<em>E</em>,18<em>E</em>,22<em>E</em>,26<em>E</em>,30<em>E</em>)-3,7,11,15,19,23,27,31,35-nonamethyl-2,6,10,14,18,22,26,30,34-hexatriacontanonaen-1-yl]-1,4-naphthalenedione;Menaquinone 9;Vitamin MK 9;MK<sub>9</sub>;Menaquinone MK 9;Vitamin K2-9",
    "duplicated_cas_no": "26097-53-0;52645-29-1",
    "SMILES": "O=C1C=2C(C(=O)C(C)=C1C/C=C(/CC/C=C(/CC/C=C(/CC/C=C(/CC/C=C(/CC/C=C(/CC/C=C(/CC/C=C(/CCC=C(C)C)\\C)\\C)\\C)\\C)\\C)\\C)\\C)\\C)=CC=CC2",
    "meta_data": {
        "InChI": "InChI=1S/C56H80O2/c1-42(2)22-14-23-43(3)24-15-25-44(4)26-16-27-45(5)28-17-29-46(6)30-18-31-47(7)32-19-33-48(8)34-20-35-49(9)36-21-37-50(10)40-41-52-51(11)55(57)53-38-12-13-39-54(53)56(52)58/h12-13,22,24,26,28,30,32,34,36,38-40H,14-21,23,25,27,29,31,33,35,37,41H2,1-11H3/b43-24+,44-26+,45-28+,46-30+,47-32+,48-34+,49-36+,50-40+",
        "InChIKey": null,
        "Canonical SMILES": "O=C1C=2C=CC=CC2C(=O)C(=C1C)CC=C(C)CCC=C(C)CCC=C(C)CCC=C(C)CCC=C(C)CCC=C(C)CCC=C(C)CCC=C(C)CCC=C(C)C",
        "Molecular Formula": "C<sub>56</sub>H<sub>80</sub>O<sub>2</sub>",
        "Molecular Mass": "785.23",
        "Melting Point": "60-61 °C"
    }
}