{
    "cas_no": "2664-61-1",
    "key_name": "3,3′,3′′-Nitrilotris[propanamide]",
    "cn_name": null,
    "alternate_name": "Propanamide, 3,3′,3′′-nitrilotris-;Propionamide, 3,3′,3′′-nitrilotris-;3,3′,3′′-Nitrilotris[propanamide];β,β′,β′′-Nitrilotripropionamide;β,β′,β′′-Nitrilotris(propionamide);3,3′,3′′-Nitrilotrispropionamide;Nitrilotripropionamide;Tris(2-carbamoylethyl)amine;3,3′,3′′-Nitrilotripropionamide;NSC 2512;NSC 680473;3,3′,3′′-Nitrilotripropanamide",
    "duplicated_cas_no": "",
    "SMILES": "N(CCC(N)=O)(CCC(N)=O)CCC(N)=O",
    "meta_data": {
        "InChI": "InChI=1S/C9H18N4O3/c10-7(14)1-4-13(5-2-8(11)15)6-3-9(12)16/h1-6H2,(H2,10,14)(H2,11,15)(H2,12,16)",
        "InChIKey": null,
        "Canonical SMILES": "O=C(N)CCN(CCC(=O)N)CCC(=O)N",
        "Molecular Formula": "C<sub>9</sub>H<sub>18</sub>N<sub>4</sub>O<sub>3</sub>",
        "Molecular Mass": "230.26",
        "Melting Point": "176-179 °C",
        "Density": "1.36 g/cm³"
    }
}