{
    "cas_no": "136310-64-0",
    "key_name": "(1α,2β,4β,5α,7β)-9-Methyl-3-oxa-9-azatricyclo[3.3.1.0<sup>2,4</sup>]non-7-yl α-hydroxy-α-2-thienyl-2-thiopheneacetate",
    "cn_name": "二(2-噻吩基)乙醇酸东莨菪酯;",
    "alternate_name": "2-Thiopheneacetic acid, α-hydroxy-α-2-thienyl-, (1α,2β,4β,5α,7β)-9-methyl-3-oxa-9-azatricyclo[3.3.1.0<sup>2,4</sup>]non-7-yl ester;2-Thiopheneacetic acid, α-hydroxy-α-2-thienyl-, 9-methyl-3-oxa-9-azatricyclo[3.3.1.0<sup>2,4</sup>]non-7-yl ester, (1α,2β,4β,5α,7β)-;(1α,2β,4β,5α,7β)-9-Methyl-3-oxa-9-azatricyclo[3.3.1.0<sup>2,4</sup>]non-7-yl α-hydroxy-α-2-thienyl-2-thiopheneacetate;Di(2-thienyl)glycolic acid scopine ester;<em>N</em>-Demethyl tiotropium;Scopine di(2-thienylglycolate);(1α,2β,4β,5α,7β)-7-[(Hydroxydi(2-thienyl)acetyl)oxy]-9-methyl-3-oxa-9-azatricyclo[3.3.1.0]nonane;Scopine hydroxydi(2-thienyl)acetate;Dithienylglycolic acid scopine ester",
    "duplicated_cas_no": "",
    "SMILES": "CN1[C@@]2([C@]3([C@](O3)([C@]1(C[C@@H](OC(C(O)(C4=CC=CS4)C5=CC=CS5)=O)C2)[H])[H])[H])[H]",
    "meta_data": {
        "InChI": "InChI=1/C18H19NO4S2/c1-19-11-8-10(9-12(19)16-15(11)23-16)22-17(20)18(21,13-4-2-6-24-13)14-5-3-7-25-14/h2-7,10-12,15-16,21H,8-9H2,1H3/t10-,11-,12+,15-,16+",
        "InChIKey": null,
        "Canonical SMILES": "O=C(OC1CC2N(C)C(C1)C3OC32)C(O)(C=4SC=CC4)C=5SC=CC5",
        "Molecular Formula": "C<sub>18</sub>H<sub>19</sub>NO<sub>4</sub>S<sub>2</sub>",
        "Molecular Mass": "377.48",
        "Melting Point": "115-117 °C"
    }
}