{
    "cas_no": "95-68-1",
    "key_name": "2,4-Dimethylaniline",
    "cn_name": "2,4-二甲基苯胺;",
    "alternate_name": "Benzenamine, 2,4-dimethyl-;2,4-Xylidine;2,4-Dimethylbenzenamine;2,4-Dimethylaniline;1-Amino-2,4-dimethylbenzene;4-Amino-1,3-dimethylbenzene;4-Amino-1,3-xylene;<em>m</em>-Xylidine;2,4-Dimethylphenylamine;2,4-Xylylamine;NSC 7640",
    "duplicated_cas_no": "",
    "SMILES": "CC1=C(N)C=CC(C)=C1",
    "meta_data": {
        "InChI": "InChI=1S/C8H11N/c1-6-3-4-8(9)7(2)5-6/h3-5H,9H2,1-2H3",
        "InChIKey": null,
        "Canonical SMILES": "NC1=CC=C(C=C1C)C",
        "Molecular Formula": "C<sub>8</sub>H<sub>11</sub>N",
        "Molecular Mass": "121.18",
        "Boiling Point": "214 °C @ Press: 760 Torr",
        "Melting Point": "-14.3 °C",
        "Density": "0.9723 g/cm³ @ Temp: 20 °C"
    }
}