{
    "cas_no": "637-04-7",
    "key_name": "Hydrazine, (3-methylphenyl)-, hydrochloride (1:1)",
    "cn_name": "3-甲基苯肼盐酸盐;间甲苯肼盐酸盐;",
    "alternate_name": "Hydrazine, (3-methylphenyl)-, hydrochloride (1:1);Hydrazine, <em>m</em>-tolyl-, hydrochloride;Hydrazine, (3-methylphenyl)-, monohydrochloride;<em>m</em>-Tolylhydrazine hydrochloride;<em>N</em>-(3-Methylphenyl)hydrazine hydrochloride;<em>m</em>-Methylphenylhydrazine hydrochloride;(3-Methylphenyl)hydrazine monohydrochloride;3-Tolylhydrazine hydrochloride;(3-Methylphenyl)hydrazine hydrochloride;1-(3-Methylphenyl)hydrazine hydrochloride;2-(3-Methylphenyl)hydrazinium chloride",
    "duplicated_cas_no": "",
    "SMILES": "N(N)C1=CC(C)=CC=C1.Cl",
    "meta_data": {
        "InChI": "InChI=1S/C7H10N2.ClH/c1-6-3-2-4-7(5-6)9-8;/h2-5,9H,8H2,1H3;1H",
        "InChIKey": null,
        "Canonical SMILES": "Cl.NNC1=CC=CC(=C1)C",
        "Molecular Formula": "C<sub>7</sub>H<sub>10</sub>N<sub>2</sub>.ClH",
        "Molecular Mass": "",
        "Melting Point": "190-193 °C"
    }
}