{
    "cas_no": "1502-24-5",
    "key_name": "2,3-Dimethylcyclohexanol",
    "cn_name": null,
    "alternate_name": "Cyclohexanol, 2,3-dimethyl-;2,3-Dimethylcyclohexanol;2,3-Dimethylcyclohexan-1-ol",
    "duplicated_cas_no": "",
    "SMILES": "CC1C(C)CCCC1O",
    "meta_data": {
        "InChI": "InChI=1S/C8H16O/c1-6-4-3-5-8(9)7(6)2/h6-9H,3-5H2,1-2H3",
        "InChIKey": null,
        "Canonical SMILES": "OC1CCCC(C)C1C",
        "Molecular Formula": "C<sub>8</sub>H<sub>16</sub>O",
        "Molecular Mass": "128.21",
        "Boiling Point": "77-79 °C @ Press: 12 Torr"
    }
}