{
    "cas_no": "3689-24-5",
    "key_name": "Sulfotep",
    "cn_name": null,
    "alternate_name": "Thiodiphosphoric acid ([(HO)<sub>2</sub>P(S)]<sub>2</sub>O), <em>O</em><sup>P</sup>,<em>O</em><sup>P</sup>,<em>O</em><sup>P′</sup>,<em>O</em><sup>P′</sup>-tetraethyl ester;Thiopyrophosphoric acid ([(HO)<sub>2</sub>PS]<sub>2</sub>O), tetraethyl ester;Thiodiphosphoric acid ([(HO)<sub>2</sub>P(S)]<sub>2</sub>O), tetraethyl ester;ASP 47;E 393;Dithiofos;Dithiophos;Dithiotep;Sulfotep;Sulfotepp;TEDTP;<em>O</em>,<em>O</em>,<em>O</em>,<em>O</em>-Tetraethyl dithiopyrophosphate;Thiotepp;Ethyl thiopyrophosphate ([(EtO)<sub>2</sub>PS]<sub>2</sub>O);Dithione;Bladafum;Dithion;TEDP;Plantfume 103;Fulex;NSC 66403;<em>O</em>,<em>O</em>,<em>O</em>′,<em>O</em>′-Tetraethyl dithiopyrophosphate",
    "duplicated_cas_no": "8054-28-2",
    "SMILES": "O(P(OCC)(OCC)=S)P(OCC)(OCC)=S",
    "meta_data": {
        "InChI": "InChI=1S/C8H20O5P2S2/c1-5-9-14(16,10-6-2)13-15(17,11-7-3)12-8-4/h5-8H2,1-4H3",
        "InChIKey": null,
        "Canonical SMILES": "S=P(OCC)(OCC)OP(=S)(OCC)OCC",
        "Molecular Formula": "C<sub>8</sub>H<sub>20</sub>O<sub>5</sub>P<sub>2</sub>S<sub>2</sub>",
        "Molecular Mass": "322.32",
        "Boiling Point": "136-139 °C @ Press: 2 Torr",
        "Melting Point": "&lt;25 °C",
        "Density": "1.196 g/cm³ @ Temp: 25 °C"
    }
}