{
    "cas_no": "12026-57-2",
    "key_name": "12-Molybdophosphoric acid",
    "cn_name": null,
    "alternate_name": "Molybdate(3-), tetracosa-μ-oxododecaoxo[μ<sub>12</sub>-[phosphato(3-)-κ<em>O</em>:κ<em>O</em>:κ<em>O</em>:κ<em>O</em>′:κ<em>O</em>′:κ<em>O</em>′:κ<em>O</em>′′:κ<em>O</em>′′:κ<em>O</em>′′:κ<em>O</em>′′′:κ<em>O</em>′′′:κ<em>O</em>′′′]]dodeca-, hydrogen (1:3);Molybdophosphoric acid (H<sub>3</sub>PMo<sub>12</sub>O<sub>40</sub>);Molybdate(3-), tetracosa-μ-oxododecaoxo[μ<sub>12</sub>-[phosphato(3-)-<em>O</em>:<em>O</em>:<em>O</em>:<em>O</em>′:<em>O</em>′:<em>O</em>′:<em>O</em>′′:<em>O</em>′′:<em>O</em>′′:<em>O</em>′′′:<em>O</em>′′′:<em>O</em>′′′]]dodeca-, trihydrogen;Phosphomolybdic acid (H<sub>3</sub>PMo<sub>12</sub>O<sub>40</sub>);Molybdate(3-), tetracosa-μ-oxododecaoxo[μ<sub>12</sub>-[phosphato(3-)-κ<em>O</em>:κ<em>O</em>:κ<em>O</em>:κ<em>O</em>′:κ<em>O</em>′:κ<em>O</em>′:κ<em>O</em>′′:κ<em>O</em>′′:κ<em>O</em>′′:κ<em>O</em>′′′:κ<em>O</em>′′′:κ<em>O</em>′′′]]dodeca-, trihydrogen;Phosphoric acid, molybdenum complex;Dodecamolybdophosphoric acid;12-Molybdophosphoric acid;Molybdophosphoric acid (H<sub>3</sub>Mo<sub>12</sub>PO<sub>40</sub>);H<sub>3</sub>PMo<sub>12</sub>O<sub>40</sub>;Phosphomolybdic acid;Molybdenum hydroxide oxide phosphate (Mo<sub>12</sub>(OH)<sub>3</sub>O<sub>33</sub>(PO<sub>4</sub>));12-Phosphomolybdic acid;Molybdophosphoric acid (H<sub>3</sub>Mo<sub>12</sub>O<sub>40</sub>P);Phosphomolybdic acid (H<sub>3</sub>Mo<sub>12</sub>PO<sub>40</sub>);Molybdophosphoric acid;NPM 40;Molymdophosphoric acid (H<sub>3</sub>Mo<sub>12</sub>PO<sub>40</sub>)",
    "duplicated_cas_no": "12351-17-6;12351-29-0;39312-47-5;39312-49-7;57904-54-8;57904-55-9;57904-56-0;57904-57-1;57904-58-2;66304-31-2;170297-97-9;184910-89-2;185752-99-2;191674-99-4;1396125-44-2;1415469-55-4;1644672-12-7;1653290-73-3;2561445-28-9",
    "SMILES": "O=[Mo+4]1234[O-]56P7=8[O-]9%10[Mo+4]%11%12%13(=O)[O-2][Mo+4]5%14(=O)([O-2]1)[O-2][Mo+4]%15%16(=O)([O-]7%17[Mo+4]%18(=O)([O-2]2)([O-2][Mo+4]%19%20(=O)(O8%21[Mo+4]%22%23(=O)([O-2][Mo+4]9(=O)([O-2]%11)([O-2][Mo+4]%10%24(=O)([O-2][Mo+4]6(=O)([O-2]3)([O-2]%14)[O-2][Mo+4]%21(=O)([O-2]%24)([O-2]%19)[O-2]%22)[O-2]%12)[O-2][Mo+4]%17(=O)([O-2]%23)([O-2]%18)[O-2]%15)[O-2]%20)[O-2]4)[O-2]%16)[O-2]%13.[H+]",
    "meta_data": {
        "InChI": "InChI=1S/12Mo.H3O4P.36O/c;;;;;;;;;;;;1-5(2,3)4;;;;;;;;;;;;;;;;;;;;;;;;;;;;;;;;;;;;/h;;;;;;;;;;;;(H3,1,2,3,4);;;;;;;;;;;;;;;;;;;;;;;;;;;;;;;;;;;;/q12*+4;;;;;;;;;;;;;;24*-2",
        "InChIKey": null,
        "Canonical SMILES": "[H+].O=[Mo+4]1234[O-2][Mo+4]567(=O)[O-2][Mo+4]89(=O)([O-2]1)[O-2][Mo+4]%10%11%12(=O)[O-2][Mo+4]%13%14(=O)([O-2]2)[O-2][Mo+4]%15%16(=O)([O-2]3)[O-2][Mo+4]%17%18(=O)([O-2]5)[O-2][Mo+4]%19%20(=O)([O-2]6)[O-2][Mo+4]%21(=O)([O-2]8)([O-2]%10)[O-2][Mo+4]%22%23(=O)([O-2]%19)[O-2][Mo+4]%24(=O)([O-2]%15)([O-2]%17)[O-2][Mo+4](=O)([O-2]%13)([O-2]%11)([O-2]%22)[O-]%14%12P(=O479)([O-]%16%18%24)[O-]%20%21%23",
        "Molecular Formula": "H.<sup>1</sup>/<sub>3</sub>Mo<sub>12</sub>O<sub>40</sub>P",
        "Molecular Mass": "",
        "Melting Point": "172-174 °C",
        "Density": "1.684 g/cm³"
    }
}