{
    "cas_no": "2774-84-7",
    "key_name": "10-Undecyn-1-ol",
    "cn_name": null,
    "alternate_name": "10-Undecyn-1-ol;1-Undecyn-11-ol;11-Hydroxy-1-undecyne",
    "duplicated_cas_no": "",
    "SMILES": "C(CCCCCO)CCCC#C",
    "meta_data": {
        "InChI": "InChI=1S/C11H20O/c1-2-3-4-5-6-7-8-9-10-11-12/h1,12H,3-11H2",
        "InChIKey": null,
        "Canonical SMILES": "C#CCCCCCCCCCO",
        "Molecular Formula": "C<sub>11</sub>H<sub>20</sub>O",
        "Molecular Mass": "168.28",
        "Boiling Point": "124 °C @ Press: 4 Torr",
        "Density": "0.8733 g/cm³ @ Temp: 20 °C"
    }
}