{
    "cas_no": "489-35-0",
    "key_name": "Gossypetin",
    "cn_name": null,
    "alternate_name": "4<em>H</em>-1-Benzopyran-4-one, 2-(3,4-dihydroxyphenyl)-3,5,7,8-tetrahydroxy-;Gossypetin;Flavone, 3,3′,4′,5,7,8-hexahydroxy-;2-(3,4-Dihydroxyphenyl)-3,5,7,8-tetrahydroxy-4<em>H</em>-1-benzopyran-4-one;C.I. 75750;Equisporol;8-Hydroxyquercetin;Articulatidin;2-(3,4-Dihydroxyphenyl)-3,5,7,8-tetrahydroxychromen-4-one;3,5,7,8,3′,4′-Hexahydroxyflavone",
    "duplicated_cas_no": "",
    "SMILES": "OC1=C2C(C(=O)C(O)=C(O2)C3=CC(O)=C(O)C=C3)=C(O)C=C1O",
    "meta_data": {
        "InChI": "InChI=1S/C15H10O8/c16-6-2-1-5(3-7(6)17)14-13(22)12(21)10-8(18)4-9(19)11(20)15(10)23-14/h1-4,16-20,22H",
        "InChIKey": null,
        "Canonical SMILES": "O=C1C(O)=C(OC=2C(O)=C(O)C=C(O)C12)C=3C=CC(O)=C(O)C3",
        "Molecular Formula": "C<sub>15</sub>H<sub>10</sub>O<sub>8</sub>",
        "Molecular Mass": "318.24",
        "Melting Point": "311-330 °C"
    }
}