{
    "cas_no": "1257-08-5",
    "key_name": "Epicatechin gallate",
    "cn_name": "表儿茶素没食子酸酯;ECG;",
    "alternate_name": "Benzoic acid, 3,4,5-trihydroxy-, (2<em>R</em>,3<em>R</em>)-2-(3,4-dihydroxyphenyl)-3,4-dihydro-5,7-dihydroxy-2<em>H</em>-1-benzopyran-3-yl ester;Epicatechol, 3-gallate, (-)-;Benzoic acid, 3,4,5-trihydroxy-, 2-(3,4-dihydroxyphenyl)-3,4-dihydro-5,7-dihydroxy-2<em>H</em>-1-benzopyran-3-yl ester, (2<em>R</em>-<em>cis</em>)-;Epicatechol, gallate;Gallic acid, 3-ester with epicatechol, (-)-;(-)-Epicatechol gallate;(-)-Epicatechin 3-gallate;(-)-Epicatechin gallate;(-)-Epicatechin 3-<em>O</em>-gallate;3-<em>O</em>-Galloyl-(-)-epicatechin;3-Galloyl-(-)-epicatechin;<span class=\"text-smallcaps\">L</span>-Epicatechin gallate;3-<em>O</em>-Galloylepicatechin;<em>epi</em>-Catechin 3-<em>O</em>-gallate;(-)-<em>epi</em>-Catechin 3-<em>O</em>-gallate;Epicatechol 3-gallate;Epicatechin gallate;Epicatechin 3-<em>O</em>-gallate;L-ECG;ECG;3-Galloyl-(2<em>R</em>,3<em>R</em>)-(-)-Epicatechin",
    "duplicated_cas_no": "",
    "SMILES": "O(C(=O)C1=CC(O)=C(O)C(O)=C1)[C@H]2[C@H](OC=3C(C2)=C(O)C=C(O)C3)C4=CC(O)=C(O)C=C4",
    "meta_data": {
        "InChI": "InChI=1S/C22H18O10/c23-11-6-14(25)12-8-19(32-22(30)10-4-16(27)20(29)17(28)5-10)21(31-18(12)7-11)9-1-2-13(24)15(26)3-9/h1-7,19,21,23-29H,8H2/t19-,21-/m1/s1",
        "InChIKey": null,
        "Canonical SMILES": "O=C(OC1CC=2C(O)=CC(O)=CC2OC1C3=CC=C(O)C(O)=C3)C4=CC(O)=C(O)C(O)=C4",
        "Molecular Formula": "C<sub>22</sub>H<sub>18</sub>O<sub>10</sub>",
        "Molecular Mass": "442.37",
        "Melting Point": "231 °C"
    }
}