{
    "cas_no": "581-55-5",
    "key_name": "Methanediol, 1-phenyl-, 1,1-diacetate",
    "cn_name": "苯亚甲基双乙酸盐;",
    "alternate_name": "Methanediol, 1-phenyl-, 1,1-diacetate;Toluene-α,α-diol, diacetate;Methanediol, phenyl-, diacetate;Benzal diacetate;Benzylidene diacetate;Phenylmethanediol diacetate;Benzenemethanediol diacetate;α,α-Diacetoxytoluene;(Diacetoxymethyl)benzene;NSC 7732;Diacetoxyphenylmethane;Benzaldehyde diacetate;1,1-Diacetoxymethylbenzene;Phenacylidene diacetate",
    "duplicated_cas_no": "",
    "SMILES": "C(OC(C)=O)(OC(C)=O)C1=CC=CC=C1",
    "meta_data": {
        "InChI": "InChI=1S/C11H12O4/c1-8(12)14-11(15-9(2)13)10-6-4-3-5-7-10/h3-7,11H,1-2H3",
        "InChIKey": null,
        "Canonical SMILES": "O=C(OC(OC(=O)C)C=1C=CC=CC1)C",
        "Molecular Formula": "C<sub>11</sub>H<sub>12</sub>O<sub>4</sub>",
        "Molecular Mass": "208.21",
        "Boiling Point": "220 °C",
        "Melting Point": "46 °C"
    }
}