{
    "cas_no": "5191-80-0",
    "key_name": "<em>S</em>-(Diphenylmethyl)-<span class=\"text-smallcaps\">L</span>-cysteine",
    "cn_name": null,
    "alternate_name": "<span class=\"text-smallcaps\">L</span>-Cysteine, <em>S</em>-(diphenylmethyl)-;Alanine, 3-[(diphenylmethyl)thio]-, <span class=\"text-smallcaps\">L</span>-;<em>S</em>-(Diphenylmethyl)-<span class=\"text-smallcaps\">L</span>-cysteine;<em>S</em>-Benzhydryl-<span class=\"text-smallcaps\">L</span>-cysteine;NSC 86162;(2R)-2-Azaniumyl-3-benzhydrylsulfanylpropanoate",
    "duplicated_cas_no": "2799-23-7",
    "SMILES": "C(SC[C@@H](C(O)=O)N)(C1=CC=CC=C1)C2=CC=CC=C2",
    "meta_data": {
        "InChI": "InChI=1S/C16H17NO2S/c17-14(16(18)19)11-20-15(12-7-3-1-4-8-12)13-9-5-2-6-10-13/h1-10,14-15H,11,17H2,(H,18,19)/t14-/m0/s1",
        "InChIKey": null,
        "Canonical SMILES": "O=C(O)C(N)CSC(C=1C=CC=CC1)C=2C=CC=CC2",
        "Molecular Formula": "C<sub>16</sub>H<sub>17</sub>NO<sub>2</sub>S",
        "Molecular Mass": "287.38",
        "Melting Point": "202-203 °C"
    }
}