{
    "cas_no": "461-89-2",
    "key_name": "1,2,4-Triazine-3,5(2<em>H</em>,4<em>H</em>)-dione",
    "cn_name": "6-氮杂脲嘧啶;1,2,4-三嗪-3,5-二酮;",
    "alternate_name": "1,2,4-Triazine-3,5(2<em>H</em>,4<em>H</em>)-dione;<em>as</em>-Triazine-3,5(2<em>H</em>,4<em>H</em>)-dione;<em>as</em>-Triazine-3,5-diol;6-Azauracil;NSC 3425;2,3,4,5-Tetrahydro-1,2,4-triazine-3,5-dione;IPO 3834;1,2,4-Triazine-3,5-diol;2<em>H</em>-[1,2,4]Triazine-3,5-dione;3-Hydroxy-4,5-dihydro-1,2,4-triazin-5-one;3-Hydroxy-4<em>H</em>-[1,2,4]triazin-5-one",
    "duplicated_cas_no": "19241-95-3;31952-63-3",
    "SMILES": "O=C1NC(=O)NN=C1",
    "meta_data": {
        "InChI": "InChI=1S/C3H3N3O2/c7-2-1-4-6-3(8)5-2/h1H,(H2,5,6,7,8)",
        "InChIKey": null,
        "Canonical SMILES": "O=C1C=NNC(=O)N1",
        "Molecular Formula": "C<sub>3</sub>H<sub>3</sub>N<sub>3</sub>O<sub>2</sub>",
        "Molecular Mass": "113.07",
        "Melting Point": "274.5 °C"
    }
}