{
    "cas_no": "59278-00-1",
    "key_name": "Ethanol, 2-[(acetyloxy)methoxy]-, 1-acetate",
    "cn_name": "2-((乙酰氧基)甲氧基)乙醇乙酸酯;",
    "alternate_name": "Ethanol, 2-[(acetyloxy)methoxy]-, 1-acetate;Ethanol, 2-[(acetyloxy)methoxy]-, acetate;Ethanol, 2-(hydroxymethoxy)-, diacetate;2-Acetoxyethyl acetoxymethyl ether;1,4-Diacetoxy-2-oxabutane;(2-Acetoxyethoxy)methyl acetate;2-Oxa-1,4-butanediol diacetate;2-Acetoxymethoxyethyl acetate;2-(Acetyloxymethoxy)ethyl acetate",
    "duplicated_cas_no": "",
    "SMILES": "C(OC(C)=O)COCOC(C)=O",
    "meta_data": {
        "InChI": "InChI=1S/C7H12O5/c1-6(8)11-4-3-10-5-12-7(2)9/h3-5H2,1-2H3",
        "InChIKey": null,
        "Canonical SMILES": "O=C(OCOCCOC(=O)C)C",
        "Molecular Formula": "C<sub>7</sub>H<sub>12</sub>O<sub>5</sub>",
        "Molecular Mass": "176.17",
        "Boiling Point": "114-116 °C @ Press: 10 Torr",
        "Density": "1.1382 g/cm³ @ Temp: 20 °C"
    }
}