{
    "cas_no": "25263-97-2",
    "key_name": "Isobutyl myristate",
    "cn_name": "肉豆蔻酸异丁酯;",
    "alternate_name": "Tetradecanoic acid, 2-methylpropyl ester;Myristic acid, isobutyl ester;Isobutyl myristate;NSC 44525;2-Methylpropyl tetradecanoate",
    "duplicated_cas_no": "",
    "SMILES": "C(CCCCCCCCCCCCC)(OCC(C)C)=O",
    "meta_data": {
        "InChI": "InChI=1S/C18H36O2/c1-4-5-6-7-8-9-10-11-12-13-14-15-18(19)20-16-17(2)3/h17H,4-16H2,1-3H3",
        "InChIKey": null,
        "Canonical SMILES": "O=C(OCC(C)C)CCCCCCCCCCCCC",
        "Molecular Formula": "C<sub>18</sub>H<sub>36</sub>O<sub>2</sub>",
        "Molecular Mass": "284.48",
        "Boiling Point": "227-229 °C"
    }
}