{
    "cas_no": "143-16-8",
    "key_name": "Dihexylamine",
    "cn_name": "二己胺;二正己胺;二己胺;",
    "alternate_name": "1-Hexanamine, <em>N</em>-hexyl-;Dihexylamine;<em>N</em>-Hexyl-1-hexanamine;Di-<em>n</em>-hexylamine;<em>N</em>,<em>N</em>-Dihexylamine;<em>N</em>-Hexylhexanamine;Bis(1-hexyl)amine;NSC 7498;1-Hexanamine, <em>N</em>-hexyl-, ion(1-)",
    "duplicated_cas_no": "2655656-47-4",
    "SMILES": "N(CCCCCC)CCCCCC",
    "meta_data": {
        "InChI": "InChI=1S/C12H27N/c1-3-5-7-9-11-13-12-10-8-6-4-2/h13H,3-12H2,1-2H3",
        "InChIKey": null,
        "Canonical SMILES": "N(CCCCCC)CCCCCC",
        "Molecular Formula": "C<sub>12</sub>H<sub>27</sub>N",
        "Molecular Mass": "185.35",
        "Boiling Point": "236 °C",
        "Melting Point": "-13.1 °C",
        "Density": "0.7880 g/cm³ @ Temp: 20 °C"
    }
}