{
    "cas_no": "2065-23-8",
    "key_name": "Methyl 2-phenoxyacetate",
    "cn_name": "苯氧乙酸甲酯;",
    "alternate_name": "Acetic acid, 2-phenoxy-, methyl ester;Acetic acid, phenoxy-, methyl ester;Methyl 2-phenoxyacetate;Phenoxyacetic acid methyl ester;Methyl phenoxyacetate;NSC 32414",
    "duplicated_cas_no": "",
    "SMILES": "O(CC(OC)=O)C1=CC=CC=C1",
    "meta_data": {
        "InChI": "InChI=1S/C9H10O3/c1-11-9(10)7-12-8-5-3-2-4-6-8/h2-6H,7H2,1H3",
        "InChIKey": null,
        "Canonical SMILES": "O=C(OC)COC=1C=CC=CC1",
        "Molecular Formula": "C<sub>9</sub>H<sub>10</sub>O<sub>3</sub>",
        "Molecular Mass": "166.17",
        "Boiling Point": "245 °C",
        "Density": "1.1493 g/cm³ @ Temp: 20 °C"
    }
}