{
    "cas_no": "3529-08-6",
    "key_name": "1-Piperidinepropanamine",
    "cn_name": "1-(3-氨基丙基)哌啶; 3-(1-哌啶基)丙胺;",
    "alternate_name": "1-Piperidinepropanamine;Piperidine, 1-(3-aminopropyl)-;<em>N</em>-(ω-Aminopropyl)piperidine;1-(3-Aminopropyl)piperidine;3-Piperidinopropylamine;3-(<em>N</em>-Piperidino)propylamine;<em>N</em>-(3-Aminopropyl)piperidine;3-(1-Piperidinyl)propylamine;3-Piperidino-1-propylamine;<em>n</em>-(γ-Aminopropyl)piperidine;3-Piperidinopropan-1-amine;3-(Piperidin-1-yl)propan-1-amine;3-(Piperidin-1-yl)propane-1-amine;[3-(Piperidin-1-yl)propyl]amine-3-(piperidin-1-yl)propan-1-amine",
    "duplicated_cas_no": "872091-43-5",
    "SMILES": "C(CCN)N1CCCCC1",
    "meta_data": {
        "InChI": "InChI=1S/C8H18N2/c9-5-4-8-10-6-2-1-3-7-10/h1-9H2",
        "InChIKey": null,
        "Canonical SMILES": "NCCCN1CCCCC1",
        "Molecular Formula": "C<sub>8</sub>H<sub>18</sub>N<sub>2</sub>",
        "Molecular Mass": "142.24",
        "Boiling Point": "81-83 °C @ Press: 9 Torr",
        "Density": "0.9024 g/cm³ @ Temp: 20 °C"
    }
}