{
    "cas_no": "15400-54-1",
    "key_name": "Ethyl 2,4-diamino-5-pyrimidinecarboxylate",
    "cn_name": null,
    "alternate_name": "5-Pyrimidinecarboxylic acid, 2,4-diamino-, ethyl ester;5-Pyrimidinecarboxylic acid, 2-amino-3,4-dihydro-4-imino-, ethyl ester;Ethyl 2,4-diamino-5-pyrimidinecarboxylate;NSC 9314;2,4-Diamino-pyrimidine-5-carboxylic acid ethyl ester",
    "duplicated_cas_no": "",
    "SMILES": "C(OCC)(=O)C=1C(N)=NC(N)=NC1",
    "meta_data": {
        "InChI": "InChI=1S/C7H10N4O2/c1-2-13-6(12)4-3-10-7(9)11-5(4)8/h3H,2H2,1H3,(H4,8,9,10,11)",
        "InChIKey": null,
        "Canonical SMILES": "O=C(OCC)C1=CN=C(N=C1N)N",
        "Molecular Formula": "C<sub>7</sub>H<sub>10</sub>N<sub>4</sub>O<sub>2</sub>",
        "Molecular Mass": "182.18",
        "Melting Point": "204-205 °C"
    }
}