{
    "cas_no": "591-97-9",
    "key_name": "Crotyl chloride",
    "cn_name": "1-氯-2-丁烯;",
    "alternate_name": "2-Butene, 1-chloro-;1-Chloro-2-butene;α-Chloro-β-butylene;Crotyl chloride;γ-Methallyl chloride;γ-Methylallyl chloride;2-Butenyl chloride;2-Buten-1-yl chloride",
    "duplicated_cas_no": "",
    "SMILES": "C(=CC)CCl",
    "meta_data": {
        "InChI": "InChI=1S/C4H7Cl/c1-2-3-4-5/h2-3H,4H2,1H3",
        "InChIKey": null,
        "Canonical SMILES": "ClCC=CC",
        "Molecular Formula": "C<sub>4</sub>H<sub>7</sub>Cl",
        "Molecular Mass": "90.55",
        "Boiling Point": "73 °C",
        "Density": "0.93764 g/cm³ @ Temp: 20 °C"
    }
}