{
    "cas_no": "33901-46-1",
    "key_name": "2-(4-Nitrophenoxy)acetonitrile",
    "cn_name": "4-硝基苯氧基乙腈;",
    "alternate_name": "Acetonitrile, 2-(4-nitrophenoxy)-;Acetonitrile, (<em>p</em>-nitrophenoxy)-;Acetonitrile, (4-nitrophenoxy)-;2-(4-Nitrophenoxy)acetonitrile;(4-Nitrophenoxy)acetonitrile",
    "duplicated_cas_no": "",
    "SMILES": "N(=O)(=O)C1=CC=C(OCC#N)C=C1",
    "meta_data": {
        "InChI": "InChI=1S/C8H6N2O3/c9-5-6-13-8-3-1-7(2-4-8)10(11)12/h1-4H,6H2",
        "InChIKey": null,
        "Canonical SMILES": "N#CCOC1=CC=C(C=C1)N(=O)=O",
        "Molecular Formula": "C<sub>8</sub>H<sub>6</sub>N<sub>2</sub>O<sub>3</sub>",
        "Molecular Mass": "178.14",
        "Melting Point": "68-70 °C"
    }
}