{
    "cas_no": "1435-53-6",
    "key_name": "2,4-Dibromo-1-fluorobenzene",
    "cn_name": "2,4-二溴-1-氟苯;",
    "alternate_name": "Benzene, 2,4-dibromo-1-fluoro-;2,4-Dibromo-1-fluorobenzene;2,4-Dibromofluorobenzene;1,3-Dibromo-4-fluorobenzene;1-Fluoro-2,4-dibromobenzene;NSC 88308",
    "duplicated_cas_no": "",
    "SMILES": "BrC1=C(F)C=CC(Br)=C1",
    "meta_data": {
        "InChI": "InChI=1S/C6H3Br2F/c7-4-1-2-6(9)5(8)3-4/h1-3H",
        "InChIKey": null,
        "Canonical SMILES": "FC1=CC=C(Br)C=C1Br",
        "Molecular Formula": "C<sub>6</sub>H<sub>3</sub>Br<sub>2</sub>F",
        "Molecular Mass": "253.89",
        "Boiling Point": "103-105 °C @ Press: 32 Torr",
        "Melting Point": "69 °C"
    }
}