{
    "cas_no": "143-10-2",
    "key_name": "1-Decanethiol",
    "cn_name": "1-癸硫醇;",
    "alternate_name": "1-Decanethiol;Decanethiol;Decyl mercaptan;1-Mercaptodecane;1-Decylthiol;<em>n</em>-Decanethiol;NSC 850;<em>n</em>-Decylthiol;<em>n</em>-Decyl mercaptan",
    "duplicated_cas_no": "2022216-72-2",
    "SMILES": "C(CCCCC)CCCCS",
    "meta_data": {
        "InChI": "InChI=1S/C10H22S/c1-2-3-4-5-6-7-8-9-10-11/h11H,2-10H2,1H3",
        "InChIKey": null,
        "Canonical SMILES": "SCCCCCCCCCC",
        "Molecular Formula": "C<sub>10</sub>H<sub>22</sub>S",
        "Molecular Mass": "174.35",
        "Boiling Point": "241 °C",
        "Melting Point": "-26 °C",
        "Density": "0.84 g/cm³"
    }
}