{
    "cas_no": "645-83-0",
    "key_name": "3-(Methylsulfonyl)propanoic acid",
    "cn_name": null,
    "alternate_name": "Propanoic acid, 3-(methylsulfonyl)-;Propionic acid, 3-(methylsulfonyl)-;3-(Methylsulfonyl)propanoic acid;3-(Methylsulfonyl)propionic acid;3-Methanesulfonylpropanoic acid",
    "duplicated_cas_no": "",
    "SMILES": "C(S(C)(=O)=O)CC(O)=O",
    "meta_data": {
        "InChI": "InChI=1S/C4H8O4S/c1-9(7,8)3-2-4(5)6/h2-3H2,1H3,(H,5,6)",
        "InChIKey": null,
        "Canonical SMILES": "O=C(O)CCS(=O)(=O)C",
        "Molecular Formula": "C<sub>4</sub>H<sub>8</sub>O<sub>4</sub>S",
        "Molecular Mass": "152.17",
        "Melting Point": "105 °C"
    }
}