{
    "cas_no": "104-61-0",
    "key_name": "(±)-γ-Nonalactone",
    "cn_name": "alphs-戊基-gama-丁内酯;丙位壬内酯;椰子醛;",
    "alternate_name": "2(3<em>H</em>)-Furanone, dihydro-5-pentyl-;Nonanoic acid, 4-hydroxy-, γ-lactone;Dihydro-5-pentyl-2(3<em>H</em>)-furanone;γ-<em>n</em>-Amylbutyrolactone;γ-Amyl-γ-butyrolactone;γ-Nonalactone;Prunolide;γ-Nonanolide;γ-Amylbutyrolactone;4-Nonanolide;4-Hydroxynonanoic acid lactone;γ-Nonanolactone;4-Pentyl-butanolide;Nonan-1,4-olide;γ-Pentyl-γ-butyrolactone;Cocos aldehyde;Apricolin;Aldehyde C<sub>18</sub>;5-Pentyldihydro-2(3<em>H</em>)-furanone;(±)-4-<em>n</em>-Pentylbutyrolactone;(<em>RS</em>)-γ-Nonalactone;(±)-γ-Nonalactone;NSC 24253;NSC 46099;4-Pentylbutan-4-olide;Nonyl lactone;5-Pentyltetrahydrofuran-2-one",
    "duplicated_cas_no": "57084-16-9;82373-92-0",
    "SMILES": "C(CCCC)C1OC(=O)CC1",
    "meta_data": {
        "InChI": "InChI=1S/C9H16O2/c1-2-3-4-5-8-6-7-9(10)11-8/h8H,2-7H2,1H3",
        "InChIKey": null,
        "Canonical SMILES": "O=C1OC(CC1)CCCCC",
        "Molecular Formula": "C<sub>9</sub>H<sub>16</sub>O<sub>2</sub>",
        "Molecular Mass": "156.22",
        "Boiling Point": "243 °C",
        "Density": "0.9513 g/cm³ @ Temp: 22 °C"
    }
}