{
    "cas_no": "6850-65-3",
    "key_name": "4-Aminocyclohexanol",
    "cn_name": "4-氨基环己醇;",
    "alternate_name": "Cyclohexanol, 4-amino-;4-Aminocyclohexanol;4-Hydroxycyclohexylamine;4-Amino-1-cyclohexanol;1-Amino-4-hydroxycyclohexane",
    "duplicated_cas_no": "",
    "SMILES": "NC1CCC(O)CC1",
    "meta_data": {
        "InChI": "InChI=1S/C6H13NO/c7-5-1-3-6(8)4-2-5/h5-6,8H,1-4,7H2",
        "InChIKey": null,
        "Canonical SMILES": "OC1CCC(N)CC1",
        "Molecular Formula": "C<sub>6</sub>H<sub>13</sub>NO",
        "Molecular Mass": "115.17",
        "Boiling Point": "235-245 °C",
        "Melting Point": "64-65 °C"
    }
}