{
    "cas_no": "56-40-6",
    "key_name": "Glycine",
    "cn_name": "甘氨酸;",
    "alternate_name": "Glycine;Acetic acid, amino-;Aminoacetic acid;Aminoethanoic acid;Glycocoll;Glycolixir;Glycosthene;Aciport;Glicoamin;Padil;2-Aminoacetic acid;Gyn-Hydralin;NSC 25936;NSC 2916;NSC 54188;H 1;Aminomethanecarboxylic acid;12: PN: WO2019231175 SEQID: 18 claimed protein;33: PN: WO2020048525 SEQID: 41 claimed protein;1: PN: WO2020113403 TABLE: L1 claimed sequence;1: PN: WO2020135804 PAGE: 42 claimed sequence;1: PN: WO2020191289 PAGE: 118 claimed sequence;AZD 4282;AZD4282;AZD-4282;5: PN: CN112442493 PAGE: 2 claimed sequence;197: PN: WO2022026763 SEQID: 225 claimed protein;141: PN: WO2022032140 SEQID: 143 claimed protein;3: PN: WO2022051536 PAGE: 64 claimed sequence;2: PN: WO2022093718 PAGE: 104 claimed sequence;1: PN: WO2022133347 PAGE: 52 claimed sequence;104: PN: WO2022150790 SEQID: 119 claimed protein;40: PN: WO2022159984 SEQID: 48 claimed protein;47: PN: WO2022171068 SEQID: 49 claimed protein;124: PN: WO2022170619 SEQID: 477 claimed protein;A 3-10;100: PN: WO2022221337 SEQID: 207 claimed protein;1: PN: WO2023044306 PAGE: 118 claimed sequence;1: PN: WO2023064923 SEQID: 500 claimed sequence;MeSH ID: D005998;1: PN: WO2023125974 PAGE: 36 claimed sequence;35: PN: WO2023241653 SEQID: 43 claimed sequence;13: PN: WO2024008177 SEQID: 13 claimed protein;1: PN: WO2024080304 PAGE: 283 claimed sequence",
    "duplicated_cas_no": "52955-63-2;57678-19-0;87867-94-5;848646-45-7;1119449-36-3;1153953-88-8;1173020-11-5;1196157-78-4",
    "SMILES": "C(CN)(O)=O",
    "meta_data": {
        "InChI": "InChI=1S/C2H5NO2/c3-1-2(4)5/h1,3H2,(H,4,5)",
        "InChIKey": null,
        "Canonical SMILES": "O=C(O)CN",
        "Molecular Formula": "C<sub>2</sub>H<sub>5</sub>NO<sub>2</sub>",
        "Molecular Mass": "75.07",
        "Melting Point": "290 °C (decomp)",
        "Density": "1.161 g/cm³ @ Temp: 20 °C"
    }
}