{
    "cas_no": "2979-19-3",
    "key_name": "3,3-Dimethylcyclohexanone",
    "cn_name": "3,3-二甲基环己酮;",
    "alternate_name": "Cyclohexanone, 3,3-dimethyl-;3,3-Dimethylcyclohexanone;3,3-Dimethylcyclohexan-1-one",
    "duplicated_cas_no": "",
    "SMILES": "CC1(C)CC(=O)CCC1",
    "meta_data": {
        "InChI": "InChI=1S/C8H14O/c1-8(2)5-3-4-7(9)6-8/h3-6H2,1-2H3",
        "InChIKey": null,
        "Canonical SMILES": "O=C1CCCC(C)(C)C1",
        "Molecular Formula": "C<sub>8</sub>H<sub>14</sub>O",
        "Molecular Mass": "126.20",
        "Boiling Point": "180 °C",
        "Melting Point": "173 °C",
        "Density": "0.906 g/cm³ @ Temp: 20 °C"
    }
}