{
    "cas_no": "138-24-9",
    "key_name": "Phenyltrimethylammonium chloride",
    "cn_name": "苯基三甲基氯化铵;",
    "alternate_name": "Benzenaminium, <em>N</em>,<em>N</em>,<em>N</em>-trimethyl-, chloride (1:1);Ammonium, trimethylphenyl-, chloride;Trimethylphenylammonium chloride;Benzenaminium, <em>N</em>,<em>N</em>,<em>N</em>-trimethyl-, chloride;Phenyltrimethylammonium chloride;Trimethylanilinium chloride;Ammonyx 200;<em>N</em>,<em>N</em>,<em>N</em>-Trimethylanilinium chloride;<em>N</em>,<em>N</em>,<em>N</em>-Trimethylphenylammonium chloride",
    "duplicated_cas_no": "",
    "SMILES": "[N+](C)(C)(C)C1=CC=CC=C1.[Cl-]",
    "meta_data": {
        "InChI": "InChI=1S/C9H14N.ClH/c1-10(2,3)9-7-5-4-6-8-9;/h4-8H,1-3H3;1H/q+1;/p-1",
        "InChIKey": null,
        "Canonical SMILES": "[Cl-].C=1C=CC(=CC1)[N+](C)(C)C",
        "Molecular Formula": "C<sub>9</sub>H<sub>14</sub>N.Cl",
        "Molecular Mass": "",
        "Melting Point": "220-221 °C"
    }
}