{
    "cas_no": "143-74-8",
    "key_name": "Phenol red",
    "cn_name": null,
    "alternate_name": "Phenol, 4,4′-(1,1-dioxido-3<em>H</em>-2,1-benzoxathiol-3-ylidene)bis-;Phenol, 4,4′-(3<em>H</em>-2,1-benzoxathiol-3-ylidene)di-, <em>S</em>,<em>S</em>-dioxide;Phenol, 4,4′-(3<em>H</em>-2,1-benzoxathiol-3-ylidene)bis-, <em>S</em>,<em>S</em>-dioxide;3<em>H</em>-2,1-Benzoxathiole, phenol deriv.;4,4′-(1,1-Dioxido-3<em>H</em>-2,1-benzoxathiol-3-ylidene)bis[phenol];3,3-Bis(<em>p</em>-hydroxyphenyl)-2,1-3<em>H</em>-benzoxathiole 1,1-dioxide;α-Hydroxy-α,α-bis(<em>p</em>-hydroxyphenyl)-<em>o</em>-toluenesulfonic acid γ-sultone;Phenol red;Phenolsulfonephthalein;Phenolsulfonphthalein;Sulfonphthal;Phenolsulphonphthalein;3<em>H</em>-2,1-Benzoxathiole, 3,3-bis(4-hydroxyphenyl)-, 1,1-dioxide;Fenolipuna;PSP (indicator);Sulphental;Sulphonthal;PSP;TF-R 2;NSC 10459",
    "duplicated_cas_no": "2877-88-5",
    "SMILES": "O=S1(=O)OC(C=2C1=CC=CC2)(C3=CC=C(O)C=C3)C4=CC=C(O)C=C4",
    "meta_data": {
        "InChI": "InChI=1S/C19H14O5S/c20-15-9-5-13(6-10-15)19(14-7-11-16(21)12-8-14)17-3-1-2-4-18(17)25(22,23)24-19/h1-12,20-21H",
        "InChIKey": null,
        "Canonical SMILES": "O=S1(=O)OC(C2=CC=C(O)C=C2)(C3=CC=C(O)C=C3)C=4C=CC=CC41",
        "Molecular Formula": "C<sub>19</sub>H<sub>14</sub>O<sub>5</sub>S",
        "Molecular Mass": "354.38",
        "Melting Point": "&gt;300 °C"
    }
}