{
    "cas_no": "610-92-4",
    "key_name": "2,5-Dihydroxyterephthalic acid",
    "cn_name": "2,5-二羟基对苯二甲酸;",
    "alternate_name": "1,4-Benzenedicarboxylic acid, 2,5-dihydroxy-;Terephthalic acid, 2,5-dihydroxy-;2,5-Dihydroxy-1,4-benzenedicarboxylic acid;2,5-Dihydroxyterephthalic acid;Hydroquinone-2,5-dicarboxylic acid;NSC 407960;DHTA",
    "duplicated_cas_no": "",
    "SMILES": "C(O)(=O)C1=C(O)C=C(C(O)=O)C(O)=C1",
    "meta_data": {
        "InChI": "InChI=1S/C8H6O6/c9-5-1-3(7(11)12)6(10)2-4(5)8(13)14/h1-2,9-10H,(H,11,12)(H,13,14)",
        "InChIKey": null,
        "Canonical SMILES": "O=C(O)C1=CC(O)=C(C=C1O)C(=O)O",
        "Molecular Formula": "C<sub>8</sub>H<sub>6</sub>O<sub>6</sub>",
        "Molecular Mass": "198.13",
        "Melting Point": "312 °C"
    }
}