{
    "cas_no": "4478-93-7",
    "key_name": "Sulforaphane",
    "cn_name": "莱菔硫烷; 萝卜硫素; 1-异硫氰基-4-(甲基亚硫酰基)丁烷;",
    "alternate_name": "Butane, 1-isothiocyanato-4-(methylsulfinyl)-;Isothiocyanic acid, 4-(methylsulfinyl)butyl ester;Sulforaphan;1-Isothiocyanato-4-(methylsulfinyl)butane;Sulforaphane;4-Methylsulfinylbutyl isothiocyanate;Detoxophane;BroccoPhane",
    "duplicated_cas_no": "142925-33-5",
    "SMILES": "C(CCN=C=S)CS(C)=O",
    "meta_data": {
        "InChI": "InChI=1S/C6H11NOS2/c1-10(8)5-3-2-4-7-6-9/h2-5H2,1H3",
        "InChIKey": null,
        "Canonical SMILES": "O=S(C)CCCCN=C=S",
        "Molecular Formula": "C<sub>6</sub>H<sub>11</sub>NOS<sub>2</sub>",
        "Molecular Mass": "177.29",
        "Boiling Point": "125-135 °C @ Press: 0.01 Torr"
    }
}