{
    "cas_no": "4386-39-4",
    "key_name": "2-(Acetyloxy)-3-methylbenzoic acid",
    "cn_name": "2-乙酰基-3-甲基苯甲酸;",
    "alternate_name": "Benzoic acid, 2-(acetyloxy)-3-methyl-;2,3-Cresotic acid, acetate;2-(Acetyloxy)-3-methylbenzoic acid;Acetyl-<em>o</em>-cresotic acid;Cresopirine;AGN 357;2-Acetoxy-3-methylbenzoic acid;NSC 49105;Cresopyrine",
    "duplicated_cas_no": "",
    "SMILES": "O(C(C)=O)C1=C(C(O)=O)C=CC=C1C",
    "meta_data": {
        "InChI": "InChI=1S/C10H10O4/c1-6-4-3-5-8(10(12)13)9(6)14-7(2)11/h3-5H,1-2H3,(H,12,13)",
        "InChIKey": null,
        "Canonical SMILES": "O=C(O)C1=CC=CC(=C1OC(=O)C)C",
        "Molecular Formula": "C<sub>10</sub>H<sub>10</sub>O<sub>4</sub>",
        "Molecular Mass": "194.18",
        "Melting Point": "113 °C"
    }
}