{
    "cas_no": "4775-80-8",
    "key_name": "Phenylmercapturic acid",
    "cn_name": "S-苯汞基酸;",
    "alternate_name": "<span class=\"text-smallcaps\">L</span>-Cysteine, <em>N</em>-acetyl-<em>S</em>-phenyl-;Alanine, <em>N</em>-acetyl-3-(phenylthio)-;<em>N</em>-Acetyl-<em>S</em>-phenyl-<span class=\"text-smallcaps\">L</span>-cysteine;Phenylmercapturic acid;<em>S</em>-Phenylmercapturic acid;NSC 17197;(2R)-2-Acetamido-3-(phenylsulfanyl)propanoic acid;(R)-2-Acetamido-3-(phenylthio)propanoic acid",
    "duplicated_cas_no": "",
    "SMILES": "[C@@H](CSC1=CC=CC=C1)(NC(C)=O)C(O)=O",
    "meta_data": {
        "InChI": "InChI=1S/C11H13NO3S/c1-8(13)12-10(11(14)15)7-16-9-5-3-2-4-6-9/h2-6,10H,7H2,1H3,(H,12,13)(H,14,15)/t10-/m0/s1",
        "InChIKey": null,
        "Canonical SMILES": "O=C(O)C(NC(=O)C)CSC=1C=CC=CC1",
        "Molecular Formula": "C<sub>11</sub>H<sub>13</sub>NO<sub>3</sub>S",
        "Molecular Mass": "239.29",
        "Melting Point": "142 °C"
    }
}