{
    "cas_no": "144-79-6",
    "key_name": "Chloro(methyl)diphenylsilane",
    "cn_name": "甲基二苯基氯硅烷;二苯基甲基氯硅烷;",
    "alternate_name": "Benzene, 1,1′-(chloromethylsilylene)bis-;Silane, chloromethyldiphenyl-;1,1′-(Chloromethylsilylene)bis[benzene];Diphenyl(methyl)chlorosilane;Methyldiphenylchlorosilane;Chloro(methyl)diphenylsilane;Methyldiphenylsilyl chloride;Chlorodiphenylmethylsilane;TSL 8066;Diphenyl(methyl)silyl chloride;NSC 93961",
    "duplicated_cas_no": "155684-40-5",
    "SMILES": "[Si](C)(Cl)(C1=CC=CC=C1)C2=CC=CC=C2",
    "meta_data": {
        "InChI": "InChI=1S/C13H13ClSi/c1-15(14,12-8-4-2-5-9-12)13-10-6-3-7-11-13/h2-11H,1H3",
        "InChIKey": null,
        "Canonical SMILES": "Cl[Si](C=1C=CC=CC1)(C=2C=CC=CC2)C",
        "Molecular Formula": "C<sub>13</sub>H<sub>13</sub>ClSi",
        "Molecular Mass": "232.78",
        "Boiling Point": "295 °C",
        "Melting Point": "-22 °C",
        "Density": "1.128 g/cm³"
    }
}