{
    "cas_no": "5027-76-9",
    "key_name": "Oleuropeic acid",
    "cn_name": null,
    "alternate_name": "1-Cyclohexene-1-carboxylic acid, 4-(1-hydroxy-1-methylethyl)-, (4<em>S</em>)-;1-Cyclohexene-1-carboxylic acid, 4-(1-hydroxy-1-methylethyl)-, (-)-;Oleuropeic acid;1-Cyclohexene-1-carboxylic acid, 4-(1-hydroxy-1-methylethyl)-, (<em>S</em>)-;(4<em>S</em>)-4-(1-Hydroxy-1-methylethyl)-1-cyclohexene-1-carboxylic acid;(-)-Oleuropeic acid;(4S)-4-(2-Hydroxypropan-2-yl)cyclohex-1-ene-1-carboxylic acid",
    "duplicated_cas_no": "1396-15-2;22155-75-5",
    "SMILES": "C(C)(C)(O)[C@H]1CCC(C(O)=O)=CC1",
    "meta_data": {
        "InChI": "InChI=1S/C10H16O3/c1-10(2,13)8-5-3-7(4-6-8)9(11)12/h3,8,13H,4-6H2,1-2H3,(H,11,12)/t8-/m1/s1",
        "InChIKey": null,
        "Canonical SMILES": "O=C(O)C1=CCC(CC1)C(O)(C)C",
        "Molecular Formula": "C<sub>10</sub>H<sub>16</sub>O<sub>3</sub>",
        "Molecular Mass": "184.23",
        "Melting Point": "160 °C"
    }
}