{
    "cas_no": "1988-11-0",
    "key_name": "2,6-Diisopropyl-1,4-benzoquinone",
    "cn_name": null,
    "alternate_name": "2,5-Cyclohexadiene-1,4-dione, 2,6-bis(1-methylethyl)-;<em>p</em>-Benzoquinone, 2,6-diisopropyl-;2,6-Bis(1-methylethyl)-2,5-cyclohexadiene-1,4-dione;2,6-Diisopropyl-<em>p</em>-benzoquinone;2,6-Diisopropyl-1,4-benzoquinone;2,3-Diisopropyl-<em>p</em>-benzoquinone;2,6-Di(propan-2-yl)cyclohexa-2,5-diene-1,4-dione;2,6-Bis(propan-2-yl)cyclohexa-2,5-diene-1,4-dione;2,6-Diisopropylcyclohexa-2,5-diene-1,4-dione",
    "duplicated_cas_no": "",
    "SMILES": "C(C)(C)C=1C(=O)C(C(C)C)=CC(=O)C1",
    "meta_data": {
        "InChI": "InChI=1S/C12H16O2/c1-7(2)10-5-9(13)6-11(8(3)4)12(10)14/h5-8H,1-4H3",
        "InChIKey": null,
        "Canonical SMILES": "O=C1C=C(C(=O)C(=C1)C(C)C)C(C)C",
        "Molecular Formula": "C<sub>12</sub>H<sub>16</sub>O<sub>2</sub>",
        "Molecular Mass": "192.25",
        "Boiling Point": "130-131 °C @ Press: 4-5 Torr"
    }
}