{
    "cas_no": "956-89-8",
    "key_name": "Dihydro-3,3-diphenyl-2(3<em>H</em>)-furanone",
    "cn_name": "&alpha;,&alpha;-二苯基-&gamma;-丁内酯;4-羟基-2,2-二苯基丁酸内酯;",
    "alternate_name": "2(3<em>H</em>)-Furanone, dihydro-3,3-diphenyl-;Butyric acid, 4-hydroxy-2,2-diphenyl-, γ-lactone;Dihydro-3,3-diphenyl-2(3<em>H</em>)-furanone;α,α-Diphenyl-γ-butyrolactone;3,3-Diphenyltetrahydro-2-furanone;3,3-Diphenyldihydrofuran-2(3<em>H</em>)-one;2,2-Diphenylbutyrolactone;3,3-Diphenyloxolan-2-one",
    "duplicated_cas_no": "",
    "SMILES": "O=C1C(CCO1)(C2=CC=CC=C2)C3=CC=CC=C3",
    "meta_data": {
        "InChI": "InChI=1S/C16H14O2/c17-15-16(11-12-18-15,13-7-3-1-4-8-13)14-9-5-2-6-10-14/h1-10H,11-12H2",
        "InChIKey": null,
        "Canonical SMILES": "O=C1OCCC1(C=2C=CC=CC2)C=3C=CC=CC3",
        "Molecular Formula": "C<sub>16</sub>H<sub>14</sub>O<sub>2</sub>",
        "Molecular Mass": "238.28",
        "Melting Point": "80-81 °C"
    }
}