{
    "cas_no": "624-65-7",
    "key_name": "3-Chloro-1-propyne",
    "cn_name": "3-氯丙炔;",
    "alternate_name": "1-Propyne, 3-chloro-;Propyne, 3-chloro-;3-Chloro-1-propyne;Propargyl chloride;3-Chloropropyne;2-Propynyl chloride;1-Chloroprop-2-yne;NSC 66411",
    "duplicated_cas_no": "",
    "SMILES": "C(CCl)#C",
    "meta_data": {
        "InChI": "InChI=1S/C3H3Cl/c1-2-3-4/h1H,3H2",
        "InChIKey": null,
        "Canonical SMILES": "ClCC#C",
        "Molecular Formula": "C<sub>3</sub>H<sub>3</sub>Cl",
        "Molecular Mass": "74.51",
        "Boiling Point": "58 °C",
        "Density": "1.0239 g/cm³ @ Temp: 25 °C"
    }
}