{
    "cas_no": "751-03-1",
    "key_name": "Obacunone",
    "cn_name": "黄柏酮;",
    "alternate_name": "Oxireno[4,4a]-2-benzopyrano[6,5-<em>g</em>][2]benzoxepin-3,5,9(3a<em>H</em>,4b<em>H</em>,6<em>H</em>)-trione, 1-(3-furanyl)-1,6a,7,11a,11b,12,13,13a-octahydro-4b,7,7,11a,13a-pentamethyl-, (1<em>S</em>,3a<em>S</em>,4a<em>R</em>,4b<em>R</em>,6a<em>R</em>,11a<em>R</em>,11b<em>R</em>,13a<em>S</em>)-;Oxireno[4,4a]-2-benzopyrano[6,5-<em>g</em>][2]benzoxepin-3,5,9(3aα<em>H</em>,4b<em>H</em>,6<em>H</em>)-trione, 1α-(3-furyl)-1,6aα,7,11a,11bα,12,13,13a-octahydro-4bβ,7,7,11aβ,13aα-pentamethyl-;Obacunone;Obacunoic acid, ε-lactone;(1<em>S</em>,3a<em>S</em>,4a<em>R</em>,4b<em>R</em>,6a<em>R</em>,11a<em>R</em>,11b<em>R</em>,13a<em>S</em>)-1-(3-Furanyl)-1,6a,7,11a,11b,12,13,13a-octahydro-4b,7,7,11a,13a-pentamethyloxireno[4,4a]-2-benzopyrano[6,5-<em>g</em>][2]benzoxepin-3,5,9(3a<em>H</em>,4b<em>H</em>,6<em>H</em>)-trione;Tricoccin S<sub>3</sub>;Oxireno[4,4a]-2-benzopyrano[6,5-<em>g</em>][2]benzoxepin-3,5,9(3a<em>H</em>,4b<em>H</em>,6<em>H</em>)-trione, 1-(3-furanyl)-1,6a,7,11a,11b,12,13,13a-octahydro-4b,7,7,11a,13a-pentamethyl-, [1<em>S</em>-(1α,3aα,4a<em>S</em>*,4bβ,6aα,11aβ,11bα,13aα)]-;[1<em>S</em>-(1α,3aα,4a<em>S</em>*,4bβ,6aα,11aβ,11bα,13aα)]-1-(3-Furanyl)-1,6a,7,11a,11b,12,13,13a-octahydro-4b,7,7,11a,13a-pentamethyloxireno[4,4a]-2-benzopyrano[6,5-<em>g</em>][2]benzoxepin-3,5,9(3a<em>H</em>,4b<em>H</em>,6<em>H</em>)-trione;Obacunoic acid 3,4-lactone;14,15:21,23-Diepoxy-4,4,8-trimethyl-A,<span class=\"text-smallcaps\">D</span>-dihomo-24-nor-4,17-dioxachola-1,20,22-triene-3,7,16-trione;Obakunone",
    "duplicated_cas_no": "40758-67-6;40758-68-7",
    "SMILES": "C[C@]12[C@]34[C@](O3)(C(=O)O[C@H]([C@]4(C)CC[C@@]1([C@]5(C)[C@@](CC2=O)(C(C)(C)OC(=O)C=C5)[H])[H])C=6C=COC6)[H]",
    "meta_data": {
        "InChI": "InChI=1S/C26H30O7/c1-22(2)16-12-17(27)25(5)15(23(16,3)9-7-18(28)32-22)6-10-24(4)19(14-8-11-30-13-14)31-21(29)20-26(24,25)33-20/h7-9,11,13,15-16,19-20H,6,10,12H2,1-5H3/t15-,16+,19+,20-,23-,24+,25+,26-/m1/s1",
        "InChIKey": null,
        "Canonical SMILES": "O=C1OC(C)(C)C2CC(=O)C3(C)C(CCC4(C)C(OC(=O)C5OC534)C6=COC=C6)C2(C=C1)C",
        "Molecular Formula": "C<sub>26</sub>H<sub>30</sub>O<sub>7</sub>",
        "Molecular Mass": "454.51",
        "Melting Point": "130-229 °C"
    }
}