{
    "cas_no": "403-29-2",
    "key_name": "4-Fluorophenacyl bromide",
    "cn_name": "2-溴-4\"-氟苯乙酮;2-溴-1-(4-氟苯基)乙-1-酮;",
    "alternate_name": "Ethanone, 2-bromo-1-(4-fluorophenyl)-;Acetophenone, 2-bromo-4′-fluoro-;2-Bromo-1-(4-fluorophenyl)ethanone;α-Bromo-4′-fluoroacetophenone;2-Bromo-4′-fluoroacetophenone;4-Fluorophenacyl bromide;<em>p</em>-Fluorophenacyl bromide;2-Bromo-<em>p</em>-fluoroacetophenone;4′-Fluoro-α-bromoacetophenone;α-Bromo-<em>p</em>-fluoroacetophenone;Bromomethyl 4-fluorophenyl ketoxime;α-Bromo-4-fluoroacetophenone;<em>p</em>-Fluoro-α-bromoacetophenone;2-Bromo-1-(4-fluorophenyl)-1-ethanone;1-(4-Fluorophenyl)-2-bromoethanone;NSC 88343;4′-Fluoro-2-bromoacetophenone;2-Bromo-(4-fluorophenyl)ethan-1-one",
    "duplicated_cas_no": "",
    "SMILES": "C(CBr)(=O)C1=CC=C(F)C=C1",
    "meta_data": {
        "InChI": "InChI=1S/C8H6BrFO/c9-5-8(11)6-1-3-7(10)4-2-6/h1-4H,5H2",
        "InChIKey": null,
        "Canonical SMILES": "O=C(C1=CC=C(F)C=C1)CBr",
        "Molecular Formula": "C<sub>8</sub>H<sub>6</sub>BrFO",
        "Molecular Mass": "217.04",
        "Boiling Point": "150-155 °C @ Press: 12 Torr",
        "Melting Point": "48-49 °C"
    }
}