{
    "cas_no": "174899-83-3",
    "key_name": "1-Butyl-3-methylimidazolium bis(trifluoromethylsulfonyl)imide",
    "cn_name": null,
    "alternate_name": "1<em>H</em>-Imidazolium, 3-butyl-1-methyl-, salt with 1,1,1-trifluoro-<em>N</em>-[(trifluoromethyl)sulfonyl]methanesulfonamide (1:1);1<em>H</em>-Imidazolium, 1-butyl-3-methyl-, salt with 1,1,1-trifluoro-<em>N</em>-[(trifluoromethyl)sulfonyl]methanesulfonamide (1:1);Methanesulfonamide, 1,1,1-trifluoro-<em>N</em>-[(trifluoromethyl)sulfonyl]-, ion(1-), 1-butyl-3-methyl-1<em>H</em>-imidazolium;1-Butyl-3-methylimidazolium bis(trifluoromethanesulfonyl)imide;1-Butyl-3-methylimidazolium bis(trifluoromethylsulfonyl)imide;1-<em>n</em>-Butyl-3-methylimidazolium bis(trifluoromethylsulfonyl)imide;1-Butyl-3-methylimidazolium bistriflimide;1-Butyl-3-methyl-1<em>H</em>-imidazolium salt with 1,1,1-trifluoro-<em>N</em>-[(trifluoromethyl)sulfonyl]methanesulfonamide (1:1);1-Butyl-3-methyl-1H-imidazolium salt with 1,1,1-trifluoro-<em>N</em>-[(trifluoromethyl)sulfonyl]methanesulfonamide;1-Butyl-3-methylimidazolium bis(triflyl)imide;1-Butyl-3-methylimidazolium <em>N</em>,<em>N</em>-bis(trifluoromethylsulfonyl)amide;1-Butyl-3-methylimidazolium <em>N</em>,<em>N</em>-bis(trifluoromethanesulfonyl)imide;1-Butyl-3-methylimidazolium bis(trifluoromethanesulfonyl)imide(1-);1-Butyl-3-methyl-1<em>H</em>-imidazolium <em>N</em>,<em>N</em>-bis[(trifluoromethyl)sulfonyl]amide;1-Butyl-3-methylimidazolium bis(trifluoromethane)sulfonimide;1-Butyl-3-methylimidazolium bistriflamide;3-Butyl-1-methylimidazolium bis(trifluoromethanesulfonyl)imide;3-Butyl-1-methylimidazolium bis(trifluoromethylsulfonyl)imide;1-Butyl-3-methylimidazolium bis[(trifluoromethyl)sulfonyl]amide;1-Butyl-3-methylimidiazolium bis(trifluoromethanesulfonyl)imide;1-Butyl-3-methylimidazolium bis(trifluoromethanesulfonyl)amide;1-<em>n</em>-Butyl-3-methylimidazolium bis(trifluoromethanesulfonyl)imide;1-Butyl-3-methylimidazolium triflimide;Bmim bis(trifluoromethanesulfonyl)imide;1-Butyl-3-methylimidazolium bis(trifluoromethanesulfonimide) salt;1-Butyl-3-methylimidazolium bis(trifluoromethanesylfonyl)imide(1-);1-Methyl-3-butylimidazolium bis(trifluoromethylsulfonyl)imide;1-Butyl-3-methyl-1<em>H</em>-imidazolium <em>N</em>,<em>N</em>-bis(trifluoromethanesulfonyl)imide;BMI-TFSI;1-Butyl-3-methylimidazolium bis((trifluoromethy)sulfonyl)imide;1-Butyl-3-methyl-1<em>H</em>-imidazolium 1,1,1-trifluoro-<em>N</em>-[(trifluoromethyl)sulfonyl]methanesulfonamide(1-);1-Butyl-3-methylimidazolium bis(trifluoromethylsulfonyl)imide(1-);[C<sub>4</sub>Mim<sup>+</sup>][Tf<sub>2</sub>N<sup>-</sup>];1-Butyl-3-methylimidazolium bis(trifluoromethanesulfonyl)imidate;1-Butyl-3-methyl-1<em>H</em>-imidazol-3-ium bis((trifluoromethyl)sulfonyl)amide;BMIM-TFSI;Butyl methyl imidazolium bis(trifluoromethyl)sulfonimide;BMI-N 111;1-Butyl-3-methylimidazolium bis(trifluoromethylsufonyl)imide",
    "duplicated_cas_no": "387335-33-3;760196-87-0;860605-67-0;1048670-29-6;1070970-47-6;1122573-45-8;1311389-45-3;1958816-35-7",
    "SMILES": "S([N-]S(C(F)(F)F)(=O)=O)(C(F)(F)F)(=O)=O.C(CCC)[N+]1=CN(C)C=C1",
    "meta_data": {
        "InChI": "InChI=1S/C8H15N2.C2F6NO4S2/c1-3-4-5-10-7-6-9(2)8-10;3-1(4,5)14(10,11)9-15(12,13)2(6,7)8/h6-8H,3-5H2,1-2H3;/q+1;-1",
        "InChIKey": null,
        "Canonical SMILES": "O=S(=O)([N-]S(=O)(=O)C(F)(F)F)C(F)(F)F.C1=C[N+](=CN1C)CCCC",
        "Molecular Formula": "C<sub>8</sub>H<sub>15</sub>N<sub>2</sub>.C<sub>2</sub>F<sub>6</sub>NO<sub>4</sub>S<sub>2</sub>",
        "Molecular Mass": "",
        "Melting Point": "-4.9 °C",
        "Density": "1.4386 g/cm³ @ Temp: 22.9-23.7 °C"
    }
}