{
    "cas_no": "30725-00-9",
    "key_name": "2,3-<em>O</em>-Isopropylidene-<span class=\"text-smallcaps\">D</span>-ribonolactone",
    "cn_name": "2,3-O-异亚丙基-D-核糖酸gamma-内酯;",
    "alternate_name": "<span class=\"text-smallcaps\">D</span>-Ribonic acid, 2,3-<em>O</em>-(1-methylethylidene)-, γ-lactone;Ribonic acid, 2,3-<em>O</em>-isopropylidene-, γ-lactone, <span class=\"text-smallcaps\">D</span>-;Ribonic acid, 2,3-<em>O</em>-isopropylidene-, γ-lactone;Furo[3,4-<em>d</em>]-1,3-dioxole, <span class=\"text-smallcaps\">D</span>-ribonic acid deriv.;2,3-<em>O</em>-Isopropylidene-<span class=\"text-smallcaps\">D</span>-ribonolactone;2,3-<em>O</em>-Isopropylidene-<span class=\"text-smallcaps\">D</span>-ribono-1,4-lactone;2,3-<em>O</em>,<em>O</em>′-Isopropylidene-<span class=\"text-smallcaps\">D</span>-ribono-1,4-lactone;2,3-Isopropylidene(<span class=\"text-smallcaps\">D</span>-ribonolactone)",
    "duplicated_cas_no": "439942-96-8",
    "SMILES": "C(O)[C@@H]1[C@@]2([C@@](OC(C)(C)O2)(C(=O)O1)[H])[H]",
    "meta_data": {
        "InChI": "InChI=1S/C8H12O5/c1-8(2)12-5-4(3-9)11-7(10)6(5)13-8/h4-6,9H,3H2,1-2H3/t4-,5-,6-/m1/s1",
        "InChIKey": null,
        "Canonical SMILES": "O=C1OC(CO)C2OC(OC12)(C)C",
        "Molecular Formula": "C<sub>8</sub>H<sub>12</sub>O<sub>5</sub>",
        "Molecular Mass": "188.18",
        "Melting Point": "138-139 °C"
    }
}