{
    "cas_no": "18437-58-6",
    "key_name": "4-Amino-2-methylpyridine",
    "cn_name": null,
    "alternate_name": "4-Pyridinamine, 2-methyl-;2-Picoline, 4-amino-;2-Methyl-4-pyridinamine;4-Amino-2-picoline;4-Amino-α-picoline;4-Amino-2-methylpyridine;2-Methyl-4-aminopyridine;(2-Methylpyridin-4-yl)amine;2-Methylpyridin-4-amine",
    "duplicated_cas_no": "",
    "SMILES": "NC=1C=C(C)N=CC1",
    "meta_data": {
        "InChI": "InChI=1S/C6H8N2/c1-5-4-6(7)2-3-8-5/h2-4H,1H3,(H2,7,8)",
        "InChIKey": null,
        "Canonical SMILES": "N=1C=CC(N)=CC1C",
        "Molecular Formula": "C<sub>6</sub>H<sub>8</sub>N<sub>2</sub>",
        "Molecular Mass": "108.14",
        "Melting Point": "95.5-96 °C"
    }
}