{
    "cas_no": "5507-44-8",
    "key_name": "Vinylmethyldiethoxysilane",
    "cn_name": "甲基乙烯基二乙氧基硅烷;",
    "alternate_name": "Silane, ethenyldiethoxymethyl-;Silane, diethoxymethylvinyl-;Ethenyldiethoxymethylsilane;Diethoxymethylvinylsilane;Vinyldiethoxymethylsilane;Vinylmethyldiethoxysilane;Methylvinyldiethoxysilane;NSC 83930;Ethenyldiethoxy(methyl)silane;LMD 24;DB 175;Methyldiethoxyvinylsilane;PC 6320",
    "duplicated_cas_no": "",
    "SMILES": "[Si](OCC)(OCC)(C=C)C",
    "meta_data": {
        "InChI": "InChI=1S/C7H16O2Si/c1-5-8-10(4,7-3)9-6-2/h7H,3,5-6H2,1-2,4H3",
        "InChIKey": null,
        "Canonical SMILES": "O(CC)[Si](OCC)(C=C)C",
        "Molecular Formula": "C<sub>7</sub>H<sub>16</sub>O<sub>2</sub>Si",
        "Molecular Mass": "160.29",
        "Boiling Point": "133 °C",
        "Density": "0.858 g/cm³"
    }
}