{
    "cas_no": "57675-44-2",
    "key_name": "Trimethylolpropane trioleate",
    "cn_name": null,
    "alternate_name": "9-Octadecenoic acid (9<em>Z</em>)-, 1,1′-[2-ethyl-2-[[[(9<em>Z</em>)-1-oxo-9-octadecen-1-yl]oxy]methyl]-1,3-propanediyl] ester;9-Octadecenoic acid (<em>Z</em>)-, 2-ethyl-2-[[(1-oxo-9-octadecenyl)oxy]methyl]-1,3-propanediyl ester, (<em>Z</em>)-;9-Octadecenoic acid (9<em>Z</em>)-, 2-ethyl-2-[[[(9<em>Z</em>)-1-oxo-9-octadecenyl]oxy]methyl]-1,3-propanediyl ester;Trimethylolpropane trioleate;Nissan Unister H 381;Hatcol 4323;Priolube 1427;Edenor TMP 05;Unister H 381;Synative TMP 05;HEES 46;ESTMP 05;TMP 05;Synative ES-TMP 05;Radialube 7361;Radialube 7362;Radialube 7364;Radialube 7365;Radialube 7561;RJ 1453K",
    "duplicated_cas_no": "91727-78-5;1234503-83-3;1413395-40-0;1474108-12-7",
    "SMILES": "C(COC(CCCCCCC/C=C\\CCCCCCCC)=O)(COC(CCCCCCC/C=C\\CCCCCCCC)=O)(COC(CCCCCCC/C=C\\CCCCCCCC)=O)CC",
    "meta_data": {
        "InChI": "InChI=1S/C60H110O6/c1-5-9-12-15-18-21-24-27-30-33-36-39-42-45-48-51-57(61)64-54-60(8-4,55-65-58(62)52-49-46-43-40-37-34-31-28-25-22-19-16-13-10-6-2)56-66-59(63)53-50-47-44-41-38-35-32-29-26-23-20-17-14-11-7-3/h27-32H,5-26,33-56H2,1-4H3/b30-27-,31-28-,32-29-",
        "InChIKey": null,
        "Canonical SMILES": "O=C(OCC(COC(=O)CCCCCCCC=CCCCCCCCC)(COC(=O)CCCCCCCC=CCCCCCCCC)CC)CCCCCCCC=CCCCCCCCC",
        "Molecular Formula": "C<sub>60</sub>H<sub>110</sub>O<sub>6</sub>",
        "Molecular Mass": "927.51",
        "Melting Point": "-37 °C",
        "Density": "0.85 g/cm³ (liquid) @ Temp: 125 °C"
    }
}