{
    "cas_no": "100-82-3",
    "key_name": "3-Fluorobenzylamine",
    "cn_name": "3-氟苄胺;3-氟苯甲胺;",
    "alternate_name": "Benzenemethanamine, 3-fluoro-;Benzylamine, <em>m</em>-fluoro-;3-Fluorobenzenemethanamine;<em>m</em>-Fluorobenzylamine;3-Fluorobenzylamine;3-Fluorophenylmethylamine;(3-Fluorophenyl)methanamine;1-(3-Fluorophenyl)methanamine",
    "duplicated_cas_no": "",
    "SMILES": "C(N)C1=CC(F)=CC=C1",
    "meta_data": {
        "InChI": "InChI=1S/C7H8FN/c8-7-3-1-2-6(4-7)5-9/h1-4H,5,9H2",
        "InChIKey": null,
        "Canonical SMILES": "FC1=CC=CC(=C1)CN",
        "Molecular Formula": "C<sub>7</sub>H<sub>8</sub>FN",
        "Molecular Mass": "125.14",
        "Melting Point": "247-248 °C"
    }
}