{
    "cas_no": "156-43-4",
    "key_name": "4-Ethoxyaniline",
    "cn_name": "对乙氧基苯胺;对氨基苯乙醚;",
    "alternate_name": "Benzenamine, 4-ethoxy-;<em>p</em>-Phenetidine;4-Ethoxybenzenamine;4-Aminophenetole;<em>p</em>-Ethoxyaniline;<em>p</em>-Aminophenetole;<em>p</em>-Phenetidin;4-Ethoxyaniline;4-Phenetidine;4-Ethoxyphenylamine;NSC 3116;<em>p</em>-Ethoxyphenylamine;1-Amino-4-ethoxybenzene",
    "duplicated_cas_no": "",
    "SMILES": "O(CC)C1=CC=C(N)C=C1",
    "meta_data": {
        "InChI": "InChI=1S/C8H11NO/c1-2-10-8-5-3-7(9)4-6-8/h3-6H,2,9H2,1H3",
        "InChIKey": null,
        "Canonical SMILES": "O(C1=CC=C(N)C=C1)CC",
        "Molecular Formula": "C<sub>8</sub>H<sub>11</sub>NO",
        "Molecular Mass": "137.18",
        "Boiling Point": "254 °C",
        "Melting Point": "2.4 °C",
        "Density": "1.0652 g/cm³ @ Temp: 15.9 °C"
    }
}