{
    "cas_no": "3279-26-3",
    "key_name": "Phosphorodichloridous acid, methyl ester",
    "cn_name": "甲氧基二氯化膦;二氯亚磷酸甲酯;偶磷二氯甲酯;甲氧基二氯化磷;",
    "alternate_name": "Phosphorodichloridous acid, methyl ester;Methyl phosphorodichloridite;Dichloromethoxyphosphine;Methoxyphosphonous dichloride;Methyl dichlorophosphite;Methoxydichlorophosphine;Dichloro methyl phosphite;Methyl dichlorophosphinite;<em>O</em>-Methyl phosphorodichloridite",
    "duplicated_cas_no": "",
    "SMILES": "P(OC)(Cl)Cl",
    "meta_data": {
        "InChI": "InChI=1S/CH3Cl2OP/c1-4-5(2)3/h1H3",
        "InChIKey": null,
        "Canonical SMILES": "ClP(Cl)OC",
        "Molecular Formula": "CH<sub>3</sub>Cl<sub>2</sub>OP",
        "Molecular Mass": "132.91",
        "Boiling Point": "72-74 °C @ Press: 49 Torr",
        "Density": "1.3995 g/cm³ @ Temp: 20 °C"
    }
}