{
    "cas_no": "17814-85-6",
    "key_name": "(4-Carboxybutyl)triphenylphosphonium bromide",
    "cn_name": "4-羧丁基三苯基溴化膦;",
    "alternate_name": "Phosphonium, (4-carboxybutyl)triphenyl-, bromide (1:1);Phosphonium, (4-carboxybutyl)triphenyl-, bromide;Triphenyl(4-carboxybutyl)phosphonium bromide;4-Carbohydroxybutyltriphenylphosphonium bromide;5-(Triphenylphosphonio)pentanoic acid bromide;(4-Carboxybutyl)triphenylphosphonium bromide;(4-Carboxylbutyl)triphenylphosphonium bromide;Carboxybutyltriphenylphosphonium bromide;NSC 147756",
    "duplicated_cas_no": "85924-54-5;105674-73-5;154678-60-1;2810842-70-5",
    "SMILES": "[P+](CCCCC(O)=O)(C1=CC=CC=C1)(C2=CC=CC=C2)C3=CC=CC=C3.[Br-]",
    "meta_data": {
        "InChI": "InChI=1S/C23H23O2P.BrH/c24-23(25)18-10-11-19-26(20-12-4-1-5-13-20,21-14-6-2-7-15-21)22-16-8-3-9-17-22;/h1-9,12-17H,10-11,18-19H2;1H",
        "InChIKey": null,
        "Canonical SMILES": "[Br-].O=C(O)CCCC[P+](C=1C=CC=CC1)(C=2C=CC=CC2)C=3C=CC=CC3",
        "Molecular Formula": "C<sub>23</sub>H<sub>24</sub>O<sub>2</sub>P.Br",
        "Molecular Mass": "",
        "Melting Point": "198-204 °C"
    }
}