{
    "cas_no": "61276-17-3",
    "key_name": "Verbascoside",
    "cn_name": "毛蕊花糖苷;麦角甾苷;",
    "alternate_name": "β-<span class=\"text-smallcaps\">D</smallcap>-Glucopyranoside, 2-(3,4-dihydroxyphenyl)ethyl 3-<em>O</em>-(6-deoxy-α-<smallcap>L</span>-mannopyranosyl)-, 4-[(2<em>E</em>)-3-(3,4-dihydroxyphenyl)-2-propenoate];β-<span class=\"text-smallcaps\">D</smallcap>-Glucopyranoside, 2-(3,4-dihydroxyphenyl)ethyl 3-<em>O</em>-(6-deoxy-α-<smallcap>L</span>-mannopyranosyl)-, 4-[3-(3,4-dihydroxyphenyl)-2-propenoate], (<em>E</em>)-;Verbascoside;Kusaginin;Acteoside;TJC 160;NSC 603831;Russetinol;Stereospermin;(3,4-Dihydroxyphenyl)ethyl <em>O</em>-α-rhamnopyranosyl(1→3)-4-<em>O</em>-caffeoyl-β-<span class=\"text-smallcaps\">D</span> glucopyranoside;<em>O</em>′′′-Desarabinosyllavandulifolioside A;Distinctive Phytostem Lilac;Distinctive Active Powder SL Special;<em>trans</em>-Verbascoside;<em>trans</em>-Acteoside;Acteroside",
    "duplicated_cas_no": "22323-52-0;27625-92-9",
    "SMILES": "O([C@H]1[C@H](OC(/C=C/C2=CC(O)=C(O)C=C2)=O)[C@@H](CO)O[C@@H](OCCC3=CC(O)=C(O)C=C3)[C@@H]1O)[C@H]4[C@H](O)[C@H](O)[C@@H](O)[C@H](C)O4",
    "meta_data": {
        "InChI": "InChI=1S/C29H36O15/c1-13-22(36)23(37)24(38)29(41-13)44-27-25(39)28(40-9-8-15-3-6-17(32)19(34)11-15)42-20(12-30)26(27)43-21(35)7-4-14-2-5-16(31)18(33)10-14/h2-7,10-11,13,20,22-34,36-39H,8-9,12H2,1H3/b7-4+/t13-,20+,22-,23+,24+,25+,26+,27+,28+,29-/m0/s1",
        "InChIKey": null,
        "Canonical SMILES": "O=C(OC1C(OC(OCCC2=CC=C(O)C(O)=C2)C(O)C1OC3OC(C)C(O)C(O)C3O)CO)C=CC4=CC=C(O)C(O)=C4",
        "Molecular Formula": "C<sub>29</sub>H<sub>36</sub>O<sub>15</sub>",
        "Molecular Mass": "624.59",
        "Melting Point": "142-145 °C"
    }
}