{
    "cas_no": "5894-79-1",
    "key_name": "Benzeneacetic acid, α-formyl-, methyl ester",
    "cn_name": "α-甲酰基苯乙酸甲酯;",
    "alternate_name": "Benzeneacetic acid, α-formyl-, methyl ester;Malonaldehydic acid, phenyl-, methyl ester;Methyl formylphenylacetate;Methyl α-formylbenzeneacetate;Methyl α-formylphenylacetate;2-Formyl-2-phenylacetic acid methyl ester",
    "duplicated_cas_no": "79901-65-8",
    "SMILES": "C(C(OC)=O)(C=O)C1=CC=CC=C1",
    "meta_data": {
        "InChI": "InChI=1S/C10H10O3/c1-13-10(12)9(7-11)8-5-3-2-4-6-8/h2-7,9H,1H3",
        "InChIKey": null,
        "Canonical SMILES": "O=CC(C(=O)OC)C=1C=CC=CC1",
        "Molecular Formula": "C<sub>10</sub>H<sub>10</sub>O<sub>3</sub>",
        "Molecular Mass": "178.18",
        "Boiling Point": "135-136 °C @ Press: 14 Torr",
        "Melting Point": "104 °C"
    }
}