{
    "cas_no": "4050-45-7",
    "key_name": "<em>trans</em>-2-Hexene",
    "cn_name": null,
    "alternate_name": "2-Hexene, (2<em>E</em>)-;2-Hexene, (<em>E</em>)-;2-Hexene, <em>trans</em>-;(2<em>E</em>)-2-Hexene;<em>trans</em>-2-Hexene;(<em>E</em>)-2-Hexene;NSC 74123",
    "duplicated_cas_no": "32968-65-3",
    "SMILES": "C(/C=C/C)CC",
    "meta_data": {
        "InChI": "InChI=1S/C6H12/c1-3-5-6-4-2/h3,5H,4,6H2,1-2H3/b5-3+",
        "InChIKey": null,
        "Canonical SMILES": "C(=CCCC)C",
        "Molecular Formula": "C<sub>6</sub>H<sub>12</sub>",
        "Molecular Mass": "84.16",
        "Boiling Point": "67.9 °C",
        "Melting Point": "-133 °C",
        "Density": "0.67853 g/cm³ @ Temp: 20 °C"
    }
}