{
    "cas_no": "585-74-0",
    "key_name": "3′-Methylacetophenone",
    "cn_name": "3\"-甲基苯乙酮;间甲基苯乙酮;",
    "alternate_name": "Ethanone, 1-(3-methylphenyl)-;Acetophenone, 3′-methyl-;1-(3-Methylphenyl)ethanone;<em>m</em>-Methylacetophenone;3′-Methylacetophenone;1-Acetyl-3-methylbenzene;Methyl <em>m</em>-tolyl ketone;3-Methylphenyl methyl ketone;1-(3-Tolyl)ethanone;3-Acetyltoluene;NSC 46632;Methyl 3-methylphenyl ketone;1-<em>m</em>-Tolylethanone;3-Methyl-1-acetylbenzene;1-(3-Methylphenyl)ethan-1-one;(<em>m</em>-Tolyl)ethan-1-one;1-(<em>m</em>-Tolyl)ethan-1-one",
    "duplicated_cas_no": "",
    "SMILES": "C(C)(=O)C1=CC(C)=CC=C1",
    "meta_data": {
        "InChI": "InChI=1S/C9H10O/c1-7-4-3-5-9(6-7)8(2)10/h3-6H,1-2H3",
        "InChIKey": null,
        "Canonical SMILES": "O=C(C1=CC=CC(=C1)C)C",
        "Molecular Formula": "C<sub>9</sub>H<sub>10</sub>O",
        "Molecular Mass": "134.18",
        "Boiling Point": "220 °C"
    }
}