{
    "cas_no": "609771-63-3",
    "key_name": "[6,6]-Phenyl-C<sub>71</sub>-butyric acid methyl ester",
    "cn_name": null,
    "alternate_name": "3′<em>H</em>-Cyclopropa[8,25][5,6]fullerene-C<sub>70</sub>-<em>D<sub>5h</sub></em><sub>(</sub><em><sub>6</sub></em><sub>)</sub>-3′-butanoic acid, 3′-phenyl-, methyl ester;PC<sub>71</sub>BM;[70]PCBM;ADS 71BFA;PC<sub>70</sub>BM;[6,6]-Phenyl-C<sub>71</sub>-butyric acid methyl ester;C 70PCBM;C 71PCBM;Fullerene C70PCBM;Nanom Spectra E 110;Nanom Spectra E 112;NS-E 112;E 110;E 110H;Methyl [6,6]-phenyl-C<sub>71</sub>-butyrate",
    "duplicated_cas_no": "",
    "SMILES": "C(CCC(OC)=O)C1(C23C14C=5C=6C=7C2=C8C9=C3C=%10C=%11C4=C%12C5C=%13C=%14C6C=%15C7C=%16C8=C%17C%18=C9C=%19C%10C=%20C%11C=%21C%12=C%22C%13C=%23C%14C=%24C%15C=%25C%16C%26=C%17C%27=C%18C=%28C%19C=%29C%20C=%30C%21C%22=C%31C%23C=%32C%24C=%33C%25C%26=C%34C%27=C%35C%28C%29C=%36C%30C%31=C%37C%32C%33C%34=C%35C%36%37)C%38=CC=CC=C%38",
    "meta_data": {
        "InChI": "InChI=1S/C82H14O2/c1-84-11(83)8-5-9-80(10-6-3-2-4-7-10)81-76-68-60-50-40-33-24-18-12-13-15-17-16-14(12)20-27-22(16)31-32-23(17)28-21(15)30-26(19(13)24)35-41(33)51(50)61-55-45(35)37(30)47-39(28)49-43(32)53-52-42(31)48-38(27)46-36-29(20)25(18)34(40)44(36)54(60)64-58(46)66-56(48)62(52)70-71-63(53)57(49)67-59(47)65(55)73(77(81)69(61)68)75(67)79(71)82(80,81)78(70)74(66)72(64)76/h2-4,6-7H,5,8-9H2,1H3",
        "InChIKey": null,
        "Canonical SMILES": "O=C(OC)CCCC1(C=2C=CC=CC2)C34C5=C6C7=C8C9=C%10C=%11C%12=C%13C%14=C%15C%16=C%17C%13=C%18C%19=C%17C=%20C%21=C%16C%22=C%15C%23=C(C%14%11)C%24=C%10C8=C%25C=%26C%24=C%23C%27=C%22C%28=C%21C%29=C%30C%20C%31=C%19C=%32C%33=C%18C%12=C9C%33=C7C=%34C%32C=%35C%31=C%30C=%36C=%37C%29=C%28C%38=C%27C%26C(=C%38C%37C31C%36C%35C%345)C4=C%256",
        "Molecular Formula": "C<sub>82</sub>H<sub>14</sub>O<sub>2</sub>",
        "Molecular Mass": "1030.99",
        "Melting Point": "25 °C",
        "Density": "2.07 g/cm³"
    }
}