{
    "cas_no": "1923-70-2",
    "key_name": "Tetrabutylammonium perchlorate",
    "cn_name": "四丁基高氯酸铵;",
    "alternate_name": "1-Butanaminium, <em>N</em>,<em>N</em>,<em>N</em>-tributyl-, perchlorate (1:1);Ammonium, tetrabutyl-, perchlorate;Tetrabutylammonium perchlorate;1-Butanaminium, <em>N</em>,<em>N</em>,<em>N</em>-tributyl-, perchlorate;Tetra-<em>n</em>-butylammonium perchlorate;TBAP;QAP 01",
    "duplicated_cas_no": "",
    "SMILES": "Cl(=O)(=O)(=O)[O-].[N+](CCCC)(CCCC)(CCCC)CCCC",
    "meta_data": {
        "InChI": "InChI=1S/C16H36N.ClHO4/c1-5-9-13-17(14-10-6-2,15-11-7-3)16-12-8-4;2-1(3,4)5/h5-16H2,1-4H3;(H,2,3,4,5)/q+1;/p-1",
        "InChIKey": null,
        "Canonical SMILES": "O=Cl(=O)(=O)[O-].CCCC[N+](CCCC)(CCCC)CCCC",
        "Molecular Formula": "C<sub>16</sub>H<sub>36</sub>N.ClO<sub>4</sub>",
        "Molecular Mass": "",
        "Melting Point": "205-206 °C"
    }
}