{
    "cas_no": "17313-52-9",
    "key_name": "Centaureidin",
    "cn_name": null,
    "alternate_name": "4<em>H</em>-1-Benzopyran-4-one, 5,7-dihydroxy-2-(3-hydroxy-4-methoxyphenyl)-3,6-dimethoxy-;Flavone, 3′,5,7-trihydroxy-3,4′,6-trimethoxy-;Centaureidin;5,7-Dihydroxy-2-(3-hydroxy-4-methoxyphenyl)-3,6-dimethoxy-4<em>H</em>-1-benzopyran-4-one;Quercetagetin 3,4′,6-trimethyl ether;5,7,3′-Trihydroxy-3,6,4′-trimethoxyflavone;NSC 106969;Desmethoxycentaureidine",
    "duplicated_cas_no": "",
    "SMILES": "O(C)C1=C(OC=2C(C1=O)=C(O)C(OC)=C(O)C2)C3=CC(O)=C(OC)C=C3",
    "meta_data": {
        "InChI": "InChI=1S/C18H16O8/c1-23-11-5-4-8(6-9(11)19)16-18(25-3)15(22)13-12(26-16)7-10(20)17(24-2)14(13)21/h4-7,19-21H,1-3H3",
        "InChIKey": null,
        "Canonical SMILES": "O=C1C(OC)=C(OC2=CC(O)=C(OC)C(O)=C12)C=3C=CC(OC)=C(O)C3",
        "Molecular Formula": "C<sub>18</sub>H<sub>16</sub>O<sub>8</sub>",
        "Molecular Mass": "360.31",
        "Melting Point": "203 °C"
    }
}