{
    "cas_no": "262-20-4",
    "key_name": "Phenoxathiin",
    "cn_name": null,
    "alternate_name": "Phenoxathiin;Dibenzothioxin;Phenothioxin;Phenoxthin;Phenoxathiane;NSC 464;RJC 03297",
    "duplicated_cas_no": "",
    "SMILES": "C1=2C(SC=3C(O1)=CC=CC3)=CC=CC2",
    "meta_data": {
        "InChI": "InChI=1S/C12H8OS/c1-3-7-11-9(5-1)13-10-6-2-4-8-12(10)14-11/h1-8H",
        "InChIKey": null,
        "Canonical SMILES": "O1C=2C=CC=CC2SC=3C=CC=CC13",
        "Molecular Formula": "C<sub>12</sub>H<sub>8</sub>OS",
        "Molecular Mass": "200.26",
        "Boiling Point": "120-121 °C @ Press: 1 Torr",
        "Melting Point": "57.5-58 °C"
    }
}