{
    "cas_no": "28721-07-5",
    "key_name": "Oxcarbazepine",
    "cn_name": "奥卡西平;10,11-二氢-10-氧代-5H-二苯并[b,f]氮杂-5-甲酰胺;",
    "alternate_name": "5<em>H</em>-Dibenz[<em>b</em>,<em>f</em>]azepine-5-carboxamide, 10,11-dihydro-10-oxo-;10,11-Dihydro-10-oxo-5<em>H</em>-dibenz[<em>b</em>,<em>f</em>]azepine-5-carboxamide;GP 47680;Oxcarbazepine;Trileptal;Oxacarbazepine;Oxecarb;Oxetol;Aurene;Tolep;Timox;Oxtellar;10-Oxo-10,11-dihydro-5<em>H</em>-dibenzo[<em>b</em>,<em>f</em>]azepine-5-carboxamide;10-Oxo-10,11-dihydro-dibenzo[<em>b</em>,<em>f</em>]azepine-5-carboxylic acid amide",
    "duplicated_cas_no": "",
    "SMILES": "C(N)(=O)N1C=2C(C(=O)CC=3C1=CC=CC3)=CC=CC2",
    "meta_data": {
        "InChI": "InChI=1S/C15H12N2O2/c16-15(19)17-12-7-3-1-5-10(12)9-14(18)11-6-2-4-8-13(11)17/h1-8H,9H2,(H2,16,19)",
        "InChIKey": null,
        "Canonical SMILES": "O=C(N)N1C=2C=CC=CC2C(=O)CC=3C=CC=CC31",
        "Molecular Formula": "C<sub>15</sub>H<sub>12</sub>N<sub>2</sub>O<sub>2</sub>",
        "Molecular Mass": "252.27",
        "Melting Point": "215.5 °C"
    }
}