{
    "cas_no": "15862-72-3",
    "key_name": "Ethyl 2-piperidinecarboxylate",
    "cn_name": "2-哌啶甲酸乙酯;哌啶-2-甲酸乙酯;",
    "alternate_name": "2-Piperidinecarboxylic acid, ethyl ester;Pipecolic acid, ethyl ester;Ethyl 2-pipecolate;Ethyl pipecolate;Ethyl 2-piperidinecarboxylate;Ethyl pipecolinate;2-(Ethoxycarbonyl)piperidine;(±)-2-Piperidinecarboxylic acid ethyl ester;<span class=\"text-smallcaps\">DL</span>-Pipecolic acid ethyl ester;(±)-Ethyl pipecolinate;NSC 49360;<span class=\"text-smallcaps\">DL</span>-Ethyl pipecolinate;Ethyl piperolinate",
    "duplicated_cas_no": "35677-84-0",
    "SMILES": "C(OCC)(=O)C1CCCCN1",
    "meta_data": {
        "InChI": "InChI=1S/C8H15NO2/c1-2-11-8(10)7-5-3-4-6-9-7/h7,9H,2-6H2,1H3",
        "InChIKey": null,
        "Canonical SMILES": "O=C(OCC)C1NCCCC1",
        "Molecular Formula": "C<sub>8</sub>H<sub>15</sub>NO<sub>2</sub>",
        "Molecular Mass": "157.21",
        "Boiling Point": "93-94 °C @ Press: 11 Torr",
        "Density": "1.0065 g/cm³ @ Temp: 25 °C"
    }
}