{
    "cas_no": "340-90-9",
    "key_name": "<em>N</em>-Phthaloyl-<span class=\"text-smallcaps\">L</span>-glutamic acid",
    "cn_name": "PHT-谷氨酸;N-邻苯二甲酰谷氨酰;",
    "alternate_name": "Pentanedioic acid, 2-(1,3-dihydro-1,3-dioxo-2<em>H</em>-isoindol-2-yl)-, (2<em>S</em>)-;Glutaric acid, 2-phthalimido-, <span class=\"text-smallcaps\">L</span>-;Pentanedioic acid, 2-(1,3-dihydro-1,3-dioxo-2<em>H</em>-isoindol-2-yl)-, (<em>S</em>)-;(2<em>S</em>)-2-(1,3-Dihydro-1,3-dioxo-2<em>H</em>-isoindol-2-yl)pentanedioic acid;<em>N</em>-Phthalyl-<span class=\"text-smallcaps\">L</span>-glutamic acid;<em>N</em>-Phthaloyl-<span class=\"text-smallcaps\">L</span>-glutamic acid;2-Phthalimido-<span class=\"text-smallcaps\">L</span>-glutaric acid;(<em>S</em>)-2-(1,3-Dioxoisoindolin-2-yl)pentanedioic acid",
    "duplicated_cas_no": "",
    "SMILES": "[C@H](CCC(O)=O)(C(O)=O)N1C(=O)C=2C(C1=O)=CC=CC2",
    "meta_data": {
        "InChI": "InChI=1S/C13H11NO6/c15-10(16)6-5-9(13(19)20)14-11(17)7-3-1-2-4-8(7)12(14)18/h1-4,9H,5-6H2,(H,15,16)(H,19,20)/t9-/m0/s1",
        "InChIKey": null,
        "Canonical SMILES": "O=C(O)CCC(C(=O)O)N1C(=O)C=2C=CC=CC2C1=O",
        "Molecular Formula": "C<sub>13</sub>H<sub>11</sub>NO<sub>6</sub>",
        "Molecular Mass": "277.23",
        "Melting Point": "158-159 °C"
    }
}