{
    "cas_no": "1711-10-0",
    "key_name": "3-Iodobenzoyl chloride",
    "cn_name": "3-碘苯甲酰氯;",
    "alternate_name": "Benzoyl chloride, 3-iodo-;Benzoyl chloride, <em>m</em>-iodo-;3-Iodobenzoyl chloride;<em>m</em>-Iodobenzoyl chloride;NSC 93251",
    "duplicated_cas_no": "",
    "SMILES": "C(Cl)(=O)C1=CC(I)=CC=C1",
    "meta_data": {
        "InChI": "InChI=1S/C7H4ClIO/c8-7(10)5-2-1-3-6(9)4-5/h1-4H",
        "InChIKey": null,
        "Canonical SMILES": "O=C(Cl)C=1C=CC=C(I)C1",
        "Molecular Formula": "C<sub>7</sub>H<sub>4</sub>ClIO",
        "Molecular Mass": "266.46",
        "Boiling Point": "159-160 °C @ Press: 23 Torr"
    }
}