{
    "cas_no": "46181-30-0",
    "key_name": "2-Methyl-6-phenylpyridine",
    "cn_name": "2-甲基-6-苯基吡啶;6-苯基-2-甲基吡啶;",
    "alternate_name": "Pyridine, 2-methyl-6-phenyl-;2-Picoline, 6-phenyl-;2-Methyl-6-phenylpyridine;2-Phenyl-6-methylpyridine",
    "duplicated_cas_no": "",
    "SMILES": "CC1=NC(=CC=C1)C2=CC=CC=C2",
    "meta_data": {
        "InChI": "InChI=1S/C12H11N/c1-10-6-5-9-12(13-10)11-7-3-2-4-8-11/h2-9H,1H3",
        "InChIKey": null,
        "Canonical SMILES": "N=1C(=CC=CC1C)C=2C=CC=CC2",
        "Molecular Formula": "C<sub>12</sub>H<sub>11</sub>N",
        "Molecular Mass": "169.22",
        "Boiling Point": "281-282 °C",
        "Density": "1.0731 g/cm³ @ Temp: 0 °C"
    }
}