{
    "cas_no": "1444-94-6",
    "key_name": "Hexahydro-1<em>H</em>-isoindole-1,3(2<em>H</em>)-dione",
    "cn_name": "六氢邻苯二甲酰亚胺;",
    "alternate_name": "1<em>H</em>-Isoindole-1,3(2<em>H</em>)-dione, hexahydro-;1,2-Cyclohexanedicarboximide;Hexahydro-1<em>H</em>-isoindole-1,3(2<em>H</em>)-dione;Hexahydrophthalimide;NSC 18823",
    "duplicated_cas_no": "",
    "SMILES": "O=C1C2C(C(=O)N1)CCCC2",
    "meta_data": {
        "InChI": "InChI=1S/C8H11NO2/c10-7-5-3-1-2-4-6(5)8(11)9-7/h5-6H,1-4H2,(H,9,10,11)",
        "InChIKey": null,
        "Canonical SMILES": "O=C1NC(=O)C2CCCCC12",
        "Molecular Formula": "C<sub>8</sub>H<sub>11</sub>NO<sub>2</sub>",
        "Molecular Mass": "153.18",
        "Boiling Point": "105 °C @ Press: 0.15 Torr",
        "Melting Point": "100 °C"
    }
}