{
    "cas_no": "14799-82-7",
    "key_name": "Phosphonium, (cyclopropylmethyl)triphenyl-, bromide (1:1)",
    "cn_name": "(环丙基甲基)三苯基溴化膦;",
    "alternate_name": "Phosphonium, (cyclopropylmethyl)triphenyl-, bromide (1:1);Phosphonium, (cyclopropylmethyl)triphenyl-, bromide;(Cyclopropylmethyl)triphenylphosphonium bromide",
    "duplicated_cas_no": "1228757-19-4",
    "SMILES": "[P+](CC1CC1)(C2=CC=CC=C2)(C3=CC=CC=C3)C4=CC=CC=C4.[Br-]",
    "meta_data": {
        "InChI": "InChI=1S/C22H22P.BrH/c1-4-10-20(11-5-1)23(18-19-16-17-19,21-12-6-2-7-13-21)22-14-8-3-9-15-22;/h1-15,19H,16-18H2;1H/q+1;/p-1",
        "InChIKey": null,
        "Canonical SMILES": "[Br-].C=1C=CC(=CC1)[P+](C=2C=CC=CC2)(C=3C=CC=CC3)CC4CC4",
        "Molecular Formula": "C<sub>22</sub>H<sub>22</sub>P.Br",
        "Molecular Mass": "",
        "Melting Point": "175-177 °C"
    }
}