{
    "cas_no": "6665-98-1",
    "key_name": "3-Nitrocatechol",
    "cn_name": null,
    "alternate_name": "1,2-Benzenediol, 3-nitro-;Pyrocatechol, 3-nitro-;3-Nitro-1,2-benzenediol;3-Nitrocatechol;3-Nitropyrocatechol;2,3-Dihydroxynitrobenzene;2-Hydroxy-3-nitrophenol;NSC 407241;1,2-Dihydroxy-3-nitrobenzene",
    "duplicated_cas_no": "",
    "SMILES": "N(=O)(=O)C1=C(O)C(O)=CC=C1",
    "meta_data": {
        "InChI": "InChI=1S/C6H5NO4/c8-5-3-1-2-4(6(5)9)7(10)11/h1-3,8-9H",
        "InChIKey": null,
        "Canonical SMILES": "O=N(=O)C=1C=CC=C(O)C1O",
        "Molecular Formula": "C<sub>6</sub>H<sub>5</sub>NO<sub>4</sub>",
        "Molecular Mass": "155.11",
        "Melting Point": "156 °C"
    }
}