{
    "cas_no": "5345-01-7",
    "key_name": "3-Ethyl-3-methylpentanedioic acid",
    "cn_name": "3-乙基-3-甲基戊二酸;3-乙基 -甲基戊烷二酸;",
    "alternate_name": "Pentanedioic acid, 3-ethyl-3-methyl-;Glutaric acid, 3-ethyl-3-methyl-;3-Ethyl-3-methylpentanedioic acid;3-Ethyl-3-methylglutaric acid;NSC 2989",
    "duplicated_cas_no": "",
    "SMILES": "C(CC(O)=O)(CC(O)=O)(CC)C",
    "meta_data": {
        "InChI": "InChI=1S/C8H14O4/c1-3-8(2,4-6(9)10)5-7(11)12/h3-5H2,1-2H3,(H,9,10)(H,11,12)",
        "InChIKey": null,
        "Canonical SMILES": "O=C(O)CC(C)(CC(=O)O)CC",
        "Molecular Formula": "C<sub>8</sub>H<sub>14</sub>O<sub>4</sub>",
        "Molecular Mass": "174.19",
        "Boiling Point": "261 °C",
        "Melting Point": "87 °C"
    }
}