{
    "cas_no": "35944-74-2",
    "key_name": "1<em>H</em>-Imidazole-5-carboxylic acid, 1-(1-phenylethyl)-, methyl ester, hydrochloride (1:1)",
    "cn_name": null,
    "alternate_name": "1<em>H</em>-Imidazole-5-carboxylic acid, 1-(1-phenylethyl)-, methyl ester, hydrochloride (1:1);1<em>H</em>-Imidazole-5-carboxylic acid, 1-(1-phenylethyl)-, methyl ester, monohydrochloride;Imidazole-5-carboxylic acid, 1-(α-methylbenzyl)-, methyl ester, hydrochloride;Metomidate hydrochloride;NSC 168403",
    "duplicated_cas_no": "2852-42-8",
    "SMILES": "C(C)(N1C(C(OC)=O)=CN=C1)C2=CC=CC=C2.Cl",
    "meta_data": {
        "InChI": "InChI=1S/C13H14N2O2.ClH/c1-10(11-6-4-3-5-7-11)15-9-14-8-12(15)13(16)17-2;/h3-10H,1-2H3;1H",
        "InChIKey": null,
        "Canonical SMILES": "Cl.O=C(OC)C1=CN=CN1C(C=2C=CC=CC2)C",
        "Molecular Formula": "C<sub>13</sub>H<sub>14</sub>N<sub>2</sub>O<sub>2</sub>.ClH",
        "Molecular Mass": "",
        "Melting Point": "173-174 °C"
    }
}