{
    "cas_no": "3320-87-4",
    "key_name": "3-Nitrophenyl isocyanate",
    "cn_name": "3-硝基苯异氢酸酯;",
    "alternate_name": "Benzene, 1-isocyanato-3-nitro-;Isocyanic acid, <em>m</em>-nitrophenyl ester;1-Isocyanato-3-nitrobenzene;<em>m</em>-Nitrophenyl isocyanate;3-Nitrophenyl isocyanate;1-Nitro-3-isocyanatobenzene;NSC 5385",
    "duplicated_cas_no": "",
    "SMILES": "N(=C=O)C1=CC(N(=O)=O)=CC=C1",
    "meta_data": {
        "InChI": "InChI=1S/C7H4N2O3/c10-5-8-6-2-1-3-7(4-6)9(11)12/h1-4H",
        "InChIKey": null,
        "Canonical SMILES": "O=C=NC1=CC=CC(=C1)N(=O)=O",
        "Molecular Formula": "C<sub>7</sub>H<sub>4</sub>N<sub>2</sub>O<sub>3</sub>",
        "Molecular Mass": "164.12",
        "Boiling Point": "130-131 °C @ Press: 11 Torr",
        "Melting Point": "51 °C"
    }
}