{
    "cas_no": "21104-28-9",
    "key_name": "Mahanimbine",
    "cn_name": null,
    "alternate_name": "Pyrano[3,2-<em>a</em>]carbazole, 3,11-dihydro-3,5-dimethyl-3-(4-methyl-3-penten-1-yl)-, (3<em>S</em>)-;Mahanimbine;Pyrano[3,2-<em>a</em>]carbazole, 3,11-dihydro-3,5-dimethyl-3-(4-methyl-3-pentenyl)-, (+)-;(3<em>S</em>)-3,11-Dihydro-3,5-dimethyl-3-(4-methyl-3-penten-1-yl)pyrano[3,2-<em>a</em>]carbazole;Mahanimbin;(+)-(<em>S</em>)-Mahanimbine",
    "duplicated_cas_no": "",
    "SMILES": "CC1=C2C(=C3C(C=4C(N3)=CC=CC4)=C1)C=C[C@@](CCC=C(C)C)(C)O2",
    "meta_data": {
        "InChI": "InChI=1S/C23H25NO/c1-15(2)8-7-12-23(4)13-11-18-21-19(14-16(3)22(18)25-23)17-9-5-6-10-20(17)24-21/h5-6,8-11,13-14,24H,7,12H2,1-4H3/t23-/m0/s1",
        "InChIKey": null,
        "Canonical SMILES": "O1C=2C(C=CC1(C)CCC=C(C)C)=C3NC=4C=CC=CC4C3=CC2C",
        "Molecular Formula": "C<sub>23</sub>H<sub>25</sub>NO",
        "Molecular Mass": "331.45",
        "Melting Point": "94-95 °C"
    }
}