{
    "cas_no": "620-93-9",
    "key_name": "Bis(4-methylphenyl)amine",
    "cn_name": "4,4\"-二甲基二苯胺;",
    "alternate_name": "Benzenamine, 4-methyl-<em>N</em>-(4-methylphenyl)-;Di-<em>p</em>-tolylamine;4-Methyl-<em>N</em>-(4-methylphenyl)benzenamine;<em>N</em>-<em>p</em>-Tolyl-<em>p</em>-toluidine;4,4′-Dimethyldiphenylamine;Bis(4-methylphenyl)amine;<em>N</em>,<em>N</em>-Bis(4-methylphenyl)amine;Bis(<em>p</em>-tolyl)amine;<em>N</em>-<em>p</em>-Methylphenyl-4-methylaniline;<em>p</em>,<em>p</em>′-Ditolylamine;Di(<em>p</em>-methylphenyl)amine",
    "duplicated_cas_no": "",
    "SMILES": "N(C1=CC=C(C)C=C1)C2=CC=C(C)C=C2",
    "meta_data": {
        "InChI": "InChI=1S/C14H15N/c1-11-3-7-13(8-4-11)15-14-9-5-12(2)6-10-14/h3-10,15H,1-2H3",
        "InChIKey": null,
        "Canonical SMILES": "C=1C=C(C=CC1NC2=CC=C(C=C2)C)C",
        "Molecular Formula": "C<sub>14</sub>H<sub>15</sub>N",
        "Molecular Mass": "197.28",
        "Boiling Point": "330.5 °C",
        "Melting Point": "79.8 °C"
    }
}