{
    "cas_no": "14435-88-2",
    "key_name": "2,6-Bis(4-methylphenyl)pyridine",
    "cn_name": "2,6-双(对-甲基苯)吡啶;",
    "alternate_name": "Pyridine, 2,6-bis(4-methylphenyl)-;Pyridine, 2,6-di-<em>p</em>-tolyl-;2,6-Bis(4-methylphenyl)pyridine;2,6-Di(4′-methylphenyl)pyridine;2,6-Di-(4-methylphenyl)pyridine",
    "duplicated_cas_no": "",
    "SMILES": "CC1=CC=C(C=2N=C(C=CC2)C3=CC=C(C)C=C3)C=C1",
    "meta_data": {
        "InChI": "InChI=1S/C19H17N/c1-14-6-10-16(11-7-14)18-4-3-5-19(20-18)17-12-8-15(2)9-13-17/h3-13H,1-2H3",
        "InChIKey": null,
        "Canonical SMILES": "N=1C(=CC=CC1C=2C=CC(=CC2)C)C=3C=CC(=CC3)C",
        "Molecular Formula": "C<sub>19</sub>H<sub>17</sub>N",
        "Molecular Mass": "259.35",
        "Melting Point": "163-166 °C"
    }
}