{
    "cas_no": "434-85-5",
    "key_name": "Bianthrone",
    "cn_name": "二蒽酮;",
    "alternate_name": "9(10<em>H</em>)-Anthracenone, 10-(10-oxo-9(10<em>H</em>)-anthracenylidene)-;[Δ<sup>9,9′(10</sup><em><sup>H</sup></em><sup>,10′</sup><em><sup>H</sup></em><sup>)</sup>-Bianthracene]-10,10′-dione;Δ<sup>10,10′</sup>-Bianthrone;10-(10-Oxo-9(10<em>H</em>)-anthracenylidene)-9(10<em>H</em>)-anthracenone;Dehydrodianthrone;Bianthrone;Bisanthrone;BAN;NSC 627656;NSC 89778;Bianthrone A;[9,9′]Bianthracenylidene-10,10′-dione",
    "duplicated_cas_no": "",
    "SMILES": "O=C1C=2C(C(C=3C1=CC=CC3)=C4C=5C(C(=O)C=6C4=CC=CC6)=CC=CC5)=CC=CC2",
    "meta_data": {
        "InChI": "InChI=1S/C28H16O2/c29-27-21-13-5-1-9-17(21)25(18-10-2-6-14-22(18)27)26-19-11-3-7-15-23(19)28(30)24-16-8-4-12-20(24)26/h1-16H",
        "InChIKey": null,
        "Canonical SMILES": "O=C1C=2C=CC=CC2C(C=3C=CC=CC13)=C4C=5C=CC=CC5C(=O)C=6C=CC=CC64",
        "Molecular Formula": "C<sub>28</sub>H<sub>16</sub>O<sub>2</sub>",
        "Molecular Mass": "384.43",
        "Melting Point": "&gt;300 °C"
    }
}