{
    "cas_no": "102146-07-6",
    "key_name": "DPCPX",
    "cn_name": "8-环戊烷基-1,3-二丙基黄嘌呤;1,3-二丙基-8-环戊基黄嘌呤;",
    "alternate_name": "1<em>H</em>-Purine-2,6-dione, 8-cyclopentyl-3,9-dihydro-1,3-dipropyl-;1<em>H</em>-Purine-2,6-dione, 8-cyclopentyl-3,7-dihydro-1,3-dipropyl-;8-Cyclopentyl-3,9-dihydro-1,3-dipropyl-1<em>H</em>-purine-2,6-dione;PD 116948;8-Cyclopentyl-1,3-dipropylxanthine;1,3-Dipropyl-8-cyclopentylxanthine;DPCPX;CPX",
    "duplicated_cas_no": "",
    "SMILES": "C(CC)N1C2=C(NC(=N2)C3CCCC3)C(=O)N(CCC)C1=O",
    "meta_data": {
        "InChI": "InChI=1S/C16H24N4O2/c1-3-9-19-14-12(15(21)20(10-4-2)16(19)22)17-13(18-14)11-7-5-6-8-11/h11H,3-10H2,1-2H3,(H,17,18)",
        "InChIKey": null,
        "Canonical SMILES": "O=C1C=2NC(=NC2N(C(=O)N1CCC)CCC)C3CCCC3",
        "Molecular Formula": "C<sub>16</sub>H<sub>24</sub>N<sub>4</sub>O<sub>2</sub>",
        "Molecular Mass": "304.39",
        "Melting Point": "199-200 °C"
    }
}