{
    "cas_no": "100-39-0",
    "key_name": "Benzyl bromide",
    "cn_name": "溴化苄;苄基溴;alpha-溴甲苯;",
    "alternate_name": "Benzene, (bromomethyl)-;Toluene, α-bromo-;(Bromomethyl)benzene;Benzyl bromide;α-Bromotoluene;ω-Bromotoluene;(Bromophenyl)methane;Phenylmethyl bromide;NSC 8041;1-(Bromomethyl)benzene",
    "duplicated_cas_no": "1401918-81-7",
    "SMILES": "C(Br)C1=CC=CC=C1",
    "meta_data": {
        "InChI": "InChI=1S/C7H7Br/c8-6-7-4-2-1-3-5-7/h1-5H,6H2",
        "InChIKey": null,
        "Canonical SMILES": "BrCC=1C=CC=CC1",
        "Molecular Formula": "C<sub>7</sub>H<sub>7</sub>Br",
        "Molecular Mass": "171.03",
        "Boiling Point": "201 °C",
        "Melting Point": "-3 °C",
        "Density": "1.7380 g/cm³ @ Temp: 25 °C"
    }
}