{
    "cas_no": "59-53-0",
    "key_name": "<em>N</em>-Acetyl-3-mercaptovaline",
    "cn_name": "N-乙酰基-DL-青霉胺;",
    "alternate_name": "Valine, <em>N</em>-acetyl-3-mercapto-;Valine, <em>N</em>-acetyl-3-mercapto-, <span class=\"text-smallcaps\">DL</span>-;<span class=\"text-smallcaps\">DL</span>-Valine, <em>N</em>-acetyl-3-mercapto-;<em>N</em>-Acetyl-3-mercaptovaline;<em>N</em>-Acetyl-<span class=\"text-smallcaps\">DL</span>-penicillamine;<em>N</em>-Acetyl-<em>dl</em>-penicillamine;<em>N</em>-Acetyl-3-mercapto-<span class=\"text-smallcaps\">DL</span>-valine;NSC 28039;NSC 92752;2-Acetamido-3-methyl-3-sulfanylbutanoic acid",
    "duplicated_cas_no": "90580-84-0",
    "SMILES": "C(NC(C)=O)(C(C)(C)S)C(O)=O",
    "meta_data": {
        "InChI": "InChI=1S/C7H13NO3S/c1-4(9)8-5(6(10)11)7(2,3)12/h5,12H,1-3H3,(H,8,9)(H,10,11)",
        "InChIKey": null,
        "Canonical SMILES": "O=C(O)C(NC(=O)C)C(S)(C)C",
        "Molecular Formula": "C<sub>7</sub>H<sub>13</sub>NO<sub>3</sub>S",
        "Molecular Mass": "191.25",
        "Melting Point": "181-182 °C (decomp)"
    }
}