{
    "cas_no": "14309-57-0",
    "key_name": "3-Nonen-2-one",
    "cn_name": "3-壬烯-2-酮;",
    "alternate_name": "3-Nonen-2-one",
    "duplicated_cas_no": "",
    "SMILES": "C(CCCCC)=CC(C)=O",
    "meta_data": {
        "InChI": "InChI=1S/C9H16O/c1-3-4-5-6-7-8-9(2)10/h7-8H,3-6H2,1-2H3",
        "InChIKey": null,
        "Canonical SMILES": "O=C(C=CCCCCC)C",
        "Molecular Formula": "C<sub>9</sub>H<sub>16</sub>O",
        "Molecular Mass": "140.22",
        "Boiling Point": "72 °C @ Press: 6 Torr",
        "Density": "0.8478 g/cm³ @ Temp: 20 °C"
    }
}