{
    "cas_no": "74115-24-5",
    "key_name": "Clofentezine",
    "cn_name": "四螨嗪;3,6-双(2-氯苯基)-1,2,4,5-四嗪;",
    "alternate_name": "1,2,4,5-Tetrazine, 3,6-bis(2-chlorophenyl)-;3,6-Bis(2-chlorophenyl)-1,2,4,5-tetrazine;NC 21314;Apollo;Apollo 50W;Bisclofentezin;Apollo (pesticide);Clofentezine;Bisclofentezine;Acaristop;Apollo SOSC;ManSiJing;3,6-Di-2-chlorophenyl-1,2,4,5-tetrazine",
    "duplicated_cas_no": "88025-82-5",
    "SMILES": "ClC1=C(C=CC=C1)C=2N=NC(=NN2)C3=C(Cl)C=CC=C3",
    "meta_data": {
        "InChI": "InChI=1S/C14H8Cl2N4/c15-11-7-3-1-5-9(11)13-17-19-14(20-18-13)10-6-2-4-8-12(10)16/h1-8H",
        "InChIKey": null,
        "Canonical SMILES": "ClC=1C=CC=CC1C=2N=NC(=NN2)C3=CC=CC=C3Cl",
        "Molecular Formula": "C<sub>14</sub>H<sub>8</sub>Cl<sub>2</sub>N<sub>4</sub>",
        "Molecular Mass": "303.15",
        "Melting Point": "182 °C"
    }
}