{
    "cas_no": "91-15-6",
    "key_name": "Phthalonitrile",
    "cn_name": "1,2-二氰基苯;邻苯二甲腈;邻二氰基苯;",
    "alternate_name": "1,2-Benzenedicarbonitrile;Phthalonitrile;<em>o</em>-Dicyanobenzene;Phthalodinitrile;<em>o</em>-Benzenedinitrile;1,2-Dicyanobenzene;<em>o</em>-Cyanobenzonitrile;<em>o</em>-Benzenedicarbonitrile;1,2-Benzodinitrile;1,2-Bis(cyano)benzene;NSC 17562;<em>o</em>-Benzodinitrile",
    "duplicated_cas_no": "",
    "SMILES": "C(#N)C1=C(C#N)C=CC=C1",
    "meta_data": {
        "InChI": "InChI=1S/C8H4N2/c9-5-7-3-1-2-4-8(7)6-10/h1-4H",
        "InChIKey": null,
        "Canonical SMILES": "N#CC=1C=CC=CC1C#N",
        "Molecular Formula": "C<sub>8</sub>H<sub>4</sub>N<sub>2</sub>",
        "Molecular Mass": "128.13",
        "Boiling Point": "294 °C",
        "Melting Point": "138 °C",
        "Density": "1.238 g/cm³"
    }
}