{
    "cas_no": "28948-61-0",
    "key_name": "2-Bromo-4-chlorothieno[3,2-<em>c</em>]pyridine",
    "cn_name": null,
    "alternate_name": "Thieno[3,2-<em>c</em>]pyridine, 2-bromo-4-chloro-;2-Bromo-4-chlorothieno[3,2-<em>c</em>]pyridine;2-Bromo-4-chloro-5-azabenzothiophene",
    "duplicated_cas_no": "",
    "SMILES": "ClC1=C2C(SC(Br)=C2)=CC=N1",
    "meta_data": {
        "InChI": "InChI=1S/C7H3BrClNS/c8-6-3-4-5(11-6)1-2-10-7(4)9/h1-3H",
        "InChIKey": null,
        "Canonical SMILES": "ClC1=NC=CC=2SC(Br)=CC12",
        "Molecular Formula": "C<sub>7</sub>H<sub>3</sub>BrClNS",
        "Molecular Mass": "248.53",
        "Melting Point": "119 °C"
    }
}