{
    "cas_no": "12024-21-4",
    "key_name": "Gallium sesquioxide",
    "cn_name": null,
    "alternate_name": "Gallium oxide (Ga<sub>2</sub>O<sub>3</sub>);Digallium trioxide;Gallium sesquioxide;Gallium trioxide;Gallium(3+) oxide;Gallia;Gallium oxide (2:3);Gallium oxide;Gallium oxide (GaO<sub>1.5</sub>)",
    "duplicated_cas_no": "861841-19-2;1246736-65-1;2183486-54-4;2425661-31-8",
    "SMILES": "",
    "meta_data": {
        "InChI": "",
        "InChIKey": null,
        "Canonical SMILES": "",
        "Molecular Formula": "Ga<sub>2</sub>O<sub>3</sub>",
        "Molecular Mass": "",
        "Melting Point": "1740 °C",
        "Density": "6 g/cm³ (Liquid)"
    }
}