{
    "uri": "substance/pt/12024214",
    "rn": "12024-21-4",
    "name": "Gallium sesquioxide",
    "images": [],
    "inchi": "",
    "inchiKey": "",
    "smile": "",
    "canonicalSmile": "",
    "molecularFormula": "Ga<sub>2</sub>O<sub>3</sub>",
    "molecularMass": "",
    "experimentalProperties": [
        {
            "name": "Melting Point",
            "property": "1740 °C",
            "sourceNumber": 1
        },
        {
            "name": "Density",
            "property": "6 g/cm³ (Liquid)",
            "sourceNumber": 2
        }
    ],
    "propertyCitations": [
        {
            "docUri": "document/pt/document/22987517",
            "sourceNumber": 1,
            "source": "v. Wartenberg, H.; Zeitschrift fuer Anorganische und Allgemeine Chemie, (1932), 207, 1-20, CAplus"
        },
        {
            "docUri": "document/pt/document/49187655",
            "sourceNumber": 2,
            "source": "Miller, Wolfram; Crystals, (2017), 7(1), 26/1-26/15, CAplus"
        }
    ],
    "synonyms": [
        "Gallium oxide (Ga<sub>2</sub>O<sub>3</sub>)",
        "Digallium trioxide",
        "Gallium sesquioxide",
        "Gallium trioxide",
        "Gallium(3+) oxide",
        "Gallia",
        "Gallium oxide (2:3)",
        "Gallium oxide",
        "Gallium oxide (GaO<sub>1.5</sub>)"
    ],
    "replacedRns": [
        "861841-19-2",
        "1246736-65-1",
        "2183486-54-4",
        "2425661-31-8"
    ],
    "hasMolfile": false,
    "source": "https://commonchemistry.cas.org/detail?cas_rn=12024-21-4"
}