{
    "cas_no": "356-42-3",
    "key_name": "Pentafluoropropionic anhydride",
    "cn_name": "五氟丙酸酐;全氟丙酸酐;",
    "alternate_name": "Propanoic acid, 2,2,3,3,3-pentafluoro-, 1,1′-anhydride;Propionic acid, pentafluoro-, anhydride;Propanoic acid, pentafluoro-, anhydride;Pentafluoropropionic anhydride;Pentafluoropropionic acid anhydride;Perfluoropropionic anhydride;Perfluoropropionic acid anhydride;Pentafluoropropionyl anhydride;2,2,3,3,3-Pentafluoropropionic anhydride;Perfluoropropanoic anhydride;Pentafluoropropanoic anhydride;NSC 174167;2,2,3,3,3-Pentafluoropropanoic anhydride;2,2,3,3,3-Pentafluoropropanoyl 2,2,3,3,3-pentafluoropropanoate",
    "duplicated_cas_no": "",
    "SMILES": "C(C(F)(F)F)(C(OC(C(C(F)(F)F)(F)F)=O)=O)(F)F",
    "meta_data": {
        "InChI": "InChI=1S/C6F10O3/c7-3(8,5(11,12)13)1(17)19-2(18)4(9,10)6(14,15)16",
        "InChIKey": null,
        "Canonical SMILES": "O=C(OC(=O)C(F)(F)C(F)(F)F)C(F)(F)C(F)(F)F",
        "Molecular Formula": "C<sub>6</sub>F<sub>10</sub>O<sub>3</sub>",
        "Molecular Mass": "310.05",
        "Boiling Point": "73 °C",
        "Density": "1.571 g/cm³ @ Temp: 25 °C"
    }
}