{
    "cas_no": "7691-02-3",
    "key_name": "1-Ethenyl-<em>N</em>-(ethenyldimethylsilyl)-1,1-dimethylsilanamine",
    "cn_name": null,
    "alternate_name": "Silanamine, 1-ethenyl-<em>N</em>-(ethenyldimethylsilyl)-1,1-dimethyl-;Disilazane, 1,1,3,3-tetramethyl-1,3-divinyl-;1-Ethenyl-<em>N</em>-(ethenyldimethylsilyl)-1,1-dimethylsilanamine;1,3-Divinyltetramethyldisilazane;Bis(vinyldimethylsilyl)amine;1,1,3,3-Tetramethyl-1,3-divinyldisilazane;1,3-Divinyl-1,1,3,3-tetramethyldisilazane;Bis(dimethyl(vinyl)silyl)amine;ZHMDS 100;SID 4612.0;[[[Ethenyl(dimethyl)silyl]amino]-dimethylsilyl]ethene;Divinyltetramethyldisilazane",
    "duplicated_cas_no": "",
    "SMILES": "N([Si](C=C)(C)C)[Si](C=C)(C)C",
    "meta_data": {
        "InChI": "InChI=1S/C8H19NSi2/c1-7-10(3,4)9-11(5,6)8-2/h7-9H,1-2H2,3-6H3",
        "InChIKey": null,
        "Canonical SMILES": "C=C[Si](N[Si](C=C)(C)C)(C)C",
        "Molecular Formula": "C<sub>8</sub>H<sub>19</sub>NSi<sub>2</sub>",
        "Molecular Mass": "185.41",
        "Boiling Point": "160-161 °C",
        "Density": "0.819 g/cm³"
    }
}