{
    "cas_no": "137-65-5",
    "key_name": "2-Amino-5-(aminosulfonyl)benzoic acid",
    "cn_name": "2-氨基苯甲酸-5-磺酰胺;2-氨基-5-氨磺酰基苯甲酸;",
    "alternate_name": "Benzoic acid, 2-amino-5-(aminosulfonyl)-;Anthranilic acid, 5-sulfamoyl-;2-Amino-5-(aminosulfonyl)benzoic acid;5-Sulfamoylanthranilic acid;2-Amino-5-(aminosulphonyl)benzoic acid;2-Amino-5-sulfamoylbenzoic acid",
    "duplicated_cas_no": "",
    "SMILES": "C(O)(=O)C1=CC(S(N)(=O)=O)=CC=C1N",
    "meta_data": {
        "InChI": "InChI=1S/C7H8N2O4S/c8-6-2-1-4(14(9,12)13)3-5(6)7(10)11/h1-3H,8H2,(H,10,11)(H2,9,12,13)",
        "InChIKey": null,
        "Canonical SMILES": "O=C(O)C1=CC(=CC=C1N)S(=O)(=O)N",
        "Molecular Formula": "C<sub>7</sub>H<sub>8</sub>N<sub>2</sub>O<sub>4</sub>S",
        "Molecular Mass": "216.21",
        "Melting Point": "246 °C (decomp)"
    }
}