{
    "cas_no": "7789-33-5",
    "key_name": "Iodine bromide (IBr)",
    "cn_name": "一溴化碘;溴化碘;单溴化碘;",
    "alternate_name": "Iodine bromide (IBr);Bromine iodide;Iodine monobromide;Bromiodide;Iodobromide;Bromoiodide;Bromine monoiodide;Iodobromine;Iodomonobromide;Bromine iodide (BrI)",
    "duplicated_cas_no": "",
    "SMILES": "BrI",
    "meta_data": {
        "InChI": "InChI=1S/BrI/c1-2",
        "InChIKey": null,
        "Canonical SMILES": "BrI",
        "Molecular Formula": "BrI",
        "Molecular Mass": "206.81",
        "Melting Point": "278-279 °C (decomp)"
    }
}