{
    "cas_no": "6971-44-4",
    "key_name": "<em>N</em>-Methyl-4-pyridinemethanamine",
    "cn_name": null,
    "alternate_name": "4-Pyridinemethanamine, <em>N</em>-methyl-;Pyridine, 4-[(methylamino)methyl]-;<em>N</em>-Methyl-4-pyridinemethanamine;4-(Methylaminomethyl)pyridine;<em>N</em>-Methyl-<em>N</em>-(4-pyridylmethyl)amine;4-(<em>N</em>-Methylaminomethyl)pyridine;<em>N</em>-Methyl-<em>N</em>-(pyridin-4-ylmethyl)amine;NSC 66533;Methyl(pyridin-4-ylmethyl)amine;<em>N</em>-[(Pyridin-4-yl)methyl]methylamine;<em>N</em>-Methyl-1-(pyridin-4-yl)methanamine",
    "duplicated_cas_no": "",
    "SMILES": "C(NC)C=1C=CN=CC1",
    "meta_data": {
        "InChI": "InChI=1S/C7H10N2/c1-8-6-7-2-4-9-5-3-7/h2-5,8H,6H2,1H3",
        "InChIKey": null,
        "Canonical SMILES": "N=1C=CC(=CC1)CNC",
        "Molecular Formula": "C<sub>7</sub>H<sub>10</sub>N<sub>2</sub>",
        "Molecular Mass": "122.17",
        "Boiling Point": "84 °C"
    }
}