{
    "cas_no": "351-83-7",
    "key_name": "<em>N</em>-(4-Fluorophenyl)acetamide",
    "cn_name": "4-氟乙酰苯胺;对氟乙酰苯胺;N-(4-氟苯基)乙酰胺;",
    "alternate_name": "Acetamide, <em>N</em>-(4-fluorophenyl)-;Acetanilide, 4′-fluoro-;<em>N</em>-(4-Fluorophenyl)acetamide;<em>p</em>-Fluoroacetanilide;4-Fluoroacetanilide;4′-Fluoroacetanilide;<em>N</em>-<em>p</em>-Fluorophenylacetamide;NSC 10349;<em>N</em>-Acetyl-4-fluoroaniline;4-Acetylamino-1-fluorobenzene",
    "duplicated_cas_no": "",
    "SMILES": "N(C(C)=O)C1=CC=C(F)C=C1",
    "meta_data": {
        "InChI": "InChI=1S/C8H8FNO/c1-6(11)10-8-4-2-7(9)3-5-8/h2-5H,1H3,(H,10,11)",
        "InChIKey": null,
        "Canonical SMILES": "O=C(NC1=CC=C(F)C=C1)C",
        "Molecular Formula": "C<sub>8</sub>H<sub>8</sub>FNO",
        "Molecular Mass": "153.15",
        "Melting Point": "154 °C"
    }
}