{
    "cas_no": "14166-21-3",
    "key_name": "<em>trans</em>-1,2-Cyclohexanedicarboxylic anhydride",
    "cn_name": null,
    "alternate_name": "1,3-Isobenzofurandione, hexahydro-, (3a<em>R</em>,7a<em>R</em>)-<em>rel</em>-;1,2-Cyclohexanedicarboxylic anhydride, <em>trans</em>-;1,3-Isobenzofurandione, hexahydro-, <em>trans</em>-;<em>rel</em>-(3a<em>R</em>,7a<em>R</em>)-Hexahydro-1,3-isobenzofurandione;<em>trans</em>-1,2-Cyclohexanedicarboxylic anhydride;<em>trans</em>-Hexahydrophthalic anhydride;<em>dl</em>-<em>trans</em>-1,2-Cyclohexanedicarboxylic anhydride;<em>trans</em>-Cyclohexane-1,2-dicarboxylic acid anhydride;<em>rel</em>-(3<em>a</em>S,7<em>a</em>S)-Hexahydroisobenzofuran-1,3-dione",
    "duplicated_cas_no": "97233-90-4;128049-67-2",
    "SMILES": "O=C1[C@@]2([C@@](C(=O)O1)(CCCC2)[H])[H]",
    "meta_data": {
        "InChI": "InChI=1/C8H10O3/c9-7-5-3-1-2-4-6(5)8(10)11-7/h5-6H,1-4H2/t5-,6-/s2",
        "InChIKey": null,
        "Canonical SMILES": "O=C1OC(=O)C2CCCCC12",
        "Molecular Formula": "C<sub>8</sub>H<sub>10</sub>O<sub>3</sub>",
        "Molecular Mass": "154.16",
        "Melting Point": "218-220 °C"
    }
}