{
    "cas_no": "25813-25-6",
    "key_name": "3,5-Dibromo-4-pyridinol",
    "cn_name": null,
    "alternate_name": "4-Pyridinol, 3,5-dibromo-;3,5-Dibromo-4-pyridinol;3,5-Dibromo-4-hydroxypyridine;NSC 203048",
    "duplicated_cas_no": "",
    "SMILES": "OC=1C(Br)=CN=CC1Br",
    "meta_data": {
        "InChI": "InChI=1S/C5H3Br2NO/c6-3-1-8-2-4(7)5(3)9/h1-2H,(H,8,9)",
        "InChIKey": null,
        "Canonical SMILES": "BrC1=CN=CC(Br)=C1O",
        "Molecular Formula": "C<sub>5</sub>H<sub>3</sub>Br<sub>2</sub>NO",
        "Molecular Mass": "252.89",
        "Melting Point": "370 °C (decomp)"
    }
}