{
    "cas_no": "60111-47-9",
    "key_name": "1,5-Diethenyl-3-[(ethenyldimethylsilyl)oxy]-1,1,5,5-tetramethyl-3-phenyltrisiloxane",
    "cn_name": null,
    "alternate_name": "Trisiloxane, 1,5-diethenyl-3-[(ethenyldimethylsilyl)oxy]-1,1,5,5-tetramethyl-3-phenyl-;1,5-Diethenyl-3-[(ethenyldimethylsilyl)oxy]-1,1,5,5-tetramethyl-3-phenyltrisiloxane;SIT-8725;Phenyltris(dimethylvinylsiloxy)silane;Tris(vinyldimethylsiloxy)phenylsilane",
    "duplicated_cas_no": "",
    "SMILES": "[Si](O[Si](C=C)(C)C)(O[Si](C=C)(C)C)(O[Si](C=C)(C)C)C1=CC=CC=C1",
    "meta_data": {
        "InChI": "InChI=1S/C18H32O3Si4/c1-10-22(4,5)19-25(20-23(6,7)11-2,21-24(8,9)12-3)18-16-14-13-15-17-18/h10-17H,1-3H2,4-9H3",
        "InChIKey": null,
        "Canonical SMILES": "O([Si](O[Si](C=C)(C)C)(O[Si](C=C)(C)C)C=1C=CC=CC1)[Si](C=C)(C)C",
        "Molecular Formula": "C<sub>18</sub>H<sub>32</sub>O<sub>3</sub>Si<sub>4</sub>",
        "Molecular Mass": "408.79",
        "Boiling Point": "112-115 °C @ Press: 2 Torr",
        "Density": "0.950 g/cm³"
    }
}