{
    "cas_no": "17920-23-9",
    "key_name": "Propanedioic acid, 2-(2-propyn-1-yl)-, 1,3-diethyl ester",
    "cn_name": null,
    "alternate_name": "Propanedioic acid, 2-(2-propyn-1-yl)-, 1,3-diethyl ester;Malonic acid, (2-propynyl)-, diethyl ester;Propanedioic acid, 2-propynyl-, diethyl ester;Diethyl propargylmalonate;Diethyl 2-propargylmalonate;Diethyl (prop-2-ynyl)malonate;NSC 28575;2-(Propargyl)malonic acid diethyl ester;Diethyl prop-2-yn-1-ylmalonate;1,3-Diethyl 2-(prop-2-yn-1-yl)propanedioate",
    "duplicated_cas_no": "",
    "SMILES": "C(C(OCC)=O)(C(OCC)=O)CC#C",
    "meta_data": {
        "InChI": "InChI=1S/C10H14O4/c1-4-7-8(9(11)13-5-2)10(12)14-6-3/h1,8H,5-7H2,2-3H3",
        "InChIKey": null,
        "Canonical SMILES": "O=C(OCC)C(C(=O)OCC)CC#C",
        "Molecular Formula": "C<sub>10</sub>H<sub>14</sub>O<sub>4</sub>",
        "Molecular Mass": "198.22",
        "Boiling Point": "129 °C @ Press: 22 Torr",
        "Melting Point": "178 °C",
        "Density": "1.046 g/cm³ @ Temp: 20 °C"
    }
}