{
    "cas_no": "26786-32-3",
    "key_name": "Ethanone, 1-(4-chlorophenyl)-2-[[3-(10,11-dihydro-5<em>H</em>-dibenz[<em>b</em>,<em>f</em>]azepin-5-yl)propyl]methylamino]-, hydrochloride (1:1)",
    "cn_name": "盐酸洛非帕明;",
    "alternate_name": "Ethanone, 1-(4-chlorophenyl)-2-[[3-(10,11-dihydro-5<em>H</em>-dibenz[<em>b</em>,<em>f</em>]azepin-5-yl)propyl]methylamino]-, hydrochloride (1:1);Acetophenone, 4′-chloro-2-[[3-(10,11-dihydro-5<em>H</em>-dibenz[<em>b</em>,<em>f</em>]azepin-5-yl)propyl]methylamino]-, monohydrochloride;Ethanone, 1-(4-chlorophenyl)-2-[[3-(10,11-dihydro-5<em>H</em>-dibenz[<em>b</em>,<em>f</em>]azepin-5-yl)propyl]methylamino]-, monohydrochloride;Lopramine hydrochloride;Leo 640 hydrochloride;Lofepramine hydrochloride;Gamonil;Tymelyt;WHR 2908A;Timelit;Gamanil",
    "duplicated_cas_no": "",
    "SMILES": "C(CCN(CC(=O)C1=CC=C(Cl)C=C1)C)N2C=3C(CCC=4C2=CC=CC4)=CC=CC3.Cl",
    "meta_data": {
        "InChI": "InChI=1S/C26H27ClN2O.ClH/c1-28(19-26(30)22-13-15-23(27)16-14-22)17-6-18-29-24-9-4-2-7-20(24)11-12-21-8-3-5-10-25(21)29;/h2-5,7-10,13-16H,6,11-12,17-19H2,1H3;1H",
        "InChIKey": null,
        "Canonical SMILES": "Cl.O=C(C1=CC=C(Cl)C=C1)CN(C)CCCN2C=3C=CC=CC3CCC=4C=CC=CC42",
        "Molecular Formula": "C<sub>26</sub>H<sub>27</sub>ClN<sub>2</sub>O.ClH",
        "Molecular Mass": "",
        "Melting Point": "152-154 °C"
    }
}