{
    "cas_no": "53350-26-8",
    "key_name": "3′,4′,5,5′,7-Pentamethoxyflavone",
    "cn_name": null,
    "alternate_name": "4<em>H</em>-1-Benzopyran-4-one, 5,7-dimethoxy-2-(3,4,5-trimethoxyphenyl)-;Flavone, 3′,4′,5,5′,7-pentamethoxy-;5,7-Dimethoxy-2-(3,4,5-trimethoxyphenyl)-4<em>H</em>-1-benzopyran-4-one;3′,4′,5,5′,7-Pentamethoxyflavone;Tricetin pentamethyl ether;3′,4′,5′,5,7-Pentamethoxyflavone;5,7,3′,4′,5′-Pentamethoxyflavone",
    "duplicated_cas_no": "",
    "SMILES": "O(C)C1=C2C(OC(=CC2=O)C3=CC(OC)=C(OC)C(OC)=C3)=CC(OC)=C1",
    "meta_data": {
        "InChI": "InChI=1S/C20H20O7/c1-22-12-8-15(23-2)19-13(21)10-14(27-16(19)9-12)11-6-17(24-3)20(26-5)18(7-11)25-4/h6-10H,1-5H3",
        "InChIKey": null,
        "Canonical SMILES": "O=C1C=C(OC2=CC(OC)=CC(OC)=C12)C=3C=C(OC)C(OC)=C(OC)C3",
        "Molecular Formula": "C<sub>20</sub>H<sub>20</sub>O<sub>7</sub>",
        "Molecular Mass": "372.37",
        "Melting Point": "192-193 °C"
    }
}