{
    "cas_no": "51594-55-9",
    "key_name": "(-)-Epichlorohydrin",
    "cn_name": "左旋环氧氯丙烷;(R)-环氧氯丙烷;",
    "alternate_name": "Oxirane, 2-(chloromethyl)-, (2<em>R</em>)-;Oxirane, (chloromethyl)-, (<em>R</em>)-;Oxirane, (chloromethyl)-, (2<em>R</em>)-;(2<em>R</em>)-2-(Chloromethyl)oxirane;(-)-Epichlorohydrin;(<em>R</em>)-Epichlorohydrin;(<em>R</em>)-1-Chloro-2,3-epoxypropane;(<em>R</em>)-(Chloromethyl)oxirane;(<em>R</em>)-(-)-Epichlorohydrin;(R)-Epichlorohydrin;(R)-(-)-Epichlorohydrin;(<em>R</em>)-2-(Chloromethyl)oxirane;(-)-2-(Chloromethyl)oxirane;(R)-3-Chloro-1,2-epoxypropane;(<em>R</em>)-(-)-2-(Chloromethyl)oxirane;(2R)-2-(Chloromethyl)oxirane",
    "duplicated_cas_no": "",
    "SMILES": "C(Cl)[C@H]1CO1",
    "meta_data": {
        "InChI": "InChI=1S/C3H5ClO/c4-1-3-2-5-3/h3H,1-2H2/t3-/m0/s1",
        "InChIKey": null,
        "Canonical SMILES": "ClCC1OC1",
        "Molecular Formula": "C<sub>3</sub>H<sub>5</sub>ClO",
        "Molecular Mass": "92.52",
        "Boiling Point": "118 °C @ Press: 760 Torr"
    }
}