{
    "cas_no": "15233-65-5",
    "key_name": "2,6-Dimethoxyhydroquinone",
    "cn_name": "2,6-二甲氧基对苯二酚;",
    "alternate_name": "1,4-Benzenediol, 2,6-dimethoxy-;Hydroquinone, 2,6-dimethoxy-;2,6-Dimethoxy-1,4-benzenediol;2,6-Dimethoxyhydroquinone;2,6-Dimethoxyquinol;3,5-Dimethoxyhydroquinone;2,6-Dimethoxy-1,4-dihydroxybenzene;2,6-Dimethoxy-4-hydroxyphenol;NSC 49356;1,4-Dihydroxy-2,6-dimethoxybenzene",
    "duplicated_cas_no": "",
    "SMILES": "O(C)C1=C(O)C(OC)=CC(O)=C1",
    "meta_data": {
        "InChI": "InChI=1S/C8H10O4/c1-11-6-3-5(9)4-7(12-2)8(6)10/h3-4,9-10H,1-2H3",
        "InChIKey": null,
        "Canonical SMILES": "OC=1C=C(OC)C(O)=C(OC)C1",
        "Molecular Formula": "C<sub>8</sub>H<sub>10</sub>O<sub>4</sub>",
        "Molecular Mass": "170.16",
        "Melting Point": "162 °C"
    }
}