{
    "cas_no": "19090-03-0",
    "key_name": "Tetrahydrothiopyran-3-one",
    "cn_name": null,
    "alternate_name": "2<em>H</em>-Thiopyran-3(4<em>H</em>)-one, dihydro-;Dihydro-2<em>H</em>-thiopyran-3(4<em>H</em>)-one;3-Thiacyclohexanone;1-Thiacyclohexan-3-one;3-Oxotetrahydrothiopyran;Tetrahydrothiopyran-3-one;3-Oxothiacyclohexane",
    "duplicated_cas_no": "",
    "SMILES": "O=C1CCCSC1",
    "meta_data": {
        "InChI": "InChI=1S/C5H8OS/c6-5-2-1-3-7-4-5/h1-4H2",
        "InChIKey": null,
        "Canonical SMILES": "O=C1CSCCC1",
        "Molecular Formula": "C<sub>5</sub>H<sub>8</sub>OS",
        "Molecular Mass": "116.18",
        "Boiling Point": "80 °C @ Press: 4 Torr"
    }
}