{
    "cas_no": "973-67-1",
    "key_name": "5,6,7-Trimethoxy-2-phenyl-4<em>H</em>-1-benzopyran-4-one",
    "cn_name": "5,6,7三甲氧基黄酮;黄岑素-5,6,7-三甲醚;",
    "alternate_name": "4<em>H</em>-1-Benzopyran-4-one, 5,6,7-trimethoxy-2-phenyl-;Flavone, 5,6,7-trimethoxy-;5,6,7-Trimethoxy-2-phenyl-4<em>H</em>-1-benzopyran-4-one;5,6,7-Trimethoxyflavone;Baicalein trimethyl ether;5,6,7-Trimethylbaicalein",
    "duplicated_cas_no": "",
    "SMILES": "O(C)C1=C2C(OC(=CC2=O)C3=CC=CC=C3)=CC(OC)=C1OC",
    "meta_data": {
        "InChI": "InChI=1S/C18H16O5/c1-20-15-10-14-16(18(22-3)17(15)21-2)12(19)9-13(23-14)11-7-5-4-6-8-11/h4-10H,1-3H3",
        "InChIKey": null,
        "Canonical SMILES": "O=C1C=C(OC=2C=C(OC)C(OC)=C(OC)C12)C=3C=CC=CC3",
        "Molecular Formula": "C<sub>18</sub>H<sub>16</sub>O<sub>5</sub>",
        "Molecular Mass": "312.32",
        "Melting Point": "165-166 °C"
    }
}