{
    "cas_no": "1096-84-0",
    "key_name": "1,1′-Methylenebis[2-naphthalenol]",
    "cn_name": "1,1-亚甲基-2-萘酚;",
    "alternate_name": "2-Naphthalenol, 1,1′-methylenebis-;2-Naphthol, 1,1′-methylenedi-;1,1′-Methylenebis[2-naphthalenol];1,1′-Methylenedi-2-naphthol;2,2′-Dihydroxy-1,1′-dinaphthylmethane;Squoxin;Bis(2-hydroxy-1-naphthyl)methane;2,2′-Dihydroxydinaphthylmethane;2,2′-Dihydroxydi-1-naphthylmethane;1,1′-Methylenebis(2-naphthol);NSC 402620;NSC 5992;1,1′-Methylenedinaphthalen-2-ol;ST 1859;2DN;1-(2-Hydroxynaphthalen-1-ylmethyl)naphthalen-2-ol;1,1′-Methylenebis(naphthalen-2-ol)",
    "duplicated_cas_no": "",
    "SMILES": "C(C=1C2=C(C=CC1O)C=CC=C2)C=3C4=C(C=CC3O)C=CC=C4",
    "meta_data": {
        "InChI": "InChI=1S/C21H16O2/c22-20-11-9-14-5-1-3-7-16(14)18(20)13-19-17-8-4-2-6-15(17)10-12-21(19)23/h1-12,22-23H,13H2",
        "InChIKey": null,
        "Canonical SMILES": "OC=1C=CC=2C=CC=CC2C1CC3=C(O)C=CC=4C=CC=CC43",
        "Molecular Formula": "C<sub>21</sub>H<sub>16</sub>O<sub>2</sub>",
        "Molecular Mass": "300.35",
        "Melting Point": "189-192 °C"
    }
}