{
    "cas_no": "919-94-8",
    "key_name": "<em>tert</em>-Amyl ethyl ether",
    "cn_name": "特戊基乙基醚;",
    "alternate_name": "Butane, 2-ethoxy-2-methyl-;Ether, ethyl <em>tert</em>-pentyl;Ether, ethyl tert-pentyl;2-Ethoxy-2-methylbutane;Ethyl <em>tert</em>-amyl ether;<em>tert</em>-Amyl ethyl ether;Ethyl 1,1-dimethylpropyl ether;Ethyl <em>tert</em>-pentyl ether",
    "duplicated_cas_no": "",
    "SMILES": "C(OCC)(CC)(C)C",
    "meta_data": {
        "InChI": "InChI=1S/C7H16O/c1-5-7(3,4)8-6-2/h5-6H2,1-4H3",
        "InChIKey": null,
        "Canonical SMILES": "O(CC)C(C)(C)CC",
        "Molecular Formula": "C<sub>7</sub>H<sub>16</sub>O",
        "Molecular Mass": "116.20",
        "Boiling Point": "102 °C",
        "Density": "0.7657 g/cm³ @ Temp: 20 °C"
    }
}