{
    "cas_no": "87-90-1",
    "key_name": "Trichloroisocyanuric acid",
    "cn_name": "三氯异氰尿酸;",
    "alternate_name": "1,3,5-Triazine-2,4,6(1<em>H</em>,3<em>H</em>,5<em>H</em>)-trione, 1,3,5-trichloro-;<em>s</em>-Triazine-2,4,6(1<em>H</em>,3<em>H</em>,5<em>H</em>)-trione, 1,3,5-trichloro-;<em>s</em>-Triazine-2,4,6(1<em>H</em>,3<em>H</em>,5<em>H</em>)-trione, trichloro-;1,3,5-Trichloro-1,3,5-triazine-2,4,6(1<em>H</em>,3<em>H</em>,5<em>H</em>)-trione;ACL 85;Symclosene;Trichlorocyanuric acid;Trichloroisocyanuric acid;Trichloro-<em>s</em>-triazine-2,4,6(1<em>H</em>,3<em>H</em>,5<em>H</em>)-trione;1,3,5-Trichloro-2,4,6-trioxohexahydro-<em>s</em>-triazine;Fi Clor 91;1,3,5-Trichloroisocyanuric acid;Isocyanuric chloride;1,3,5-Trichloro-1,3,5-triazine-2,4,6-trione;<em>N</em>,<em>N</em>′,<em>N</em>′′-Trichloroisocyanuric acid;Symclosen;Trichloro-<em>s</em>-triazinetrione;CDB 90;Neochlor 90;Chloreal;ACL 90;ACL 90 Plus;Hi-Lite 90;Hi-Lite 90G;Neochlor 90G;Superclean 90TH;Trichloroiminocyanuric acid;NSC 405124;TICA-G;Neochlor 90FG;Doristrip W;TCCA;1,3,5-Trichloro-2,4,6-triazinetrione;1,3,5-Trichlorotriazine-2,4,6-trione;1,3,5-Trichloro-1,3,5-triazinane-2,4,6-trione;Lushaling",
    "duplicated_cas_no": "499583-31-2;1062228-50-5",
    "SMILES": "O=C1N(Cl)C(=O)N(Cl)C(=O)N1Cl",
    "meta_data": {
        "InChI": "InChI=1S/C3Cl3N3O3/c4-7-1(10)8(5)3(12)9(6)2(7)11",
        "InChIKey": null,
        "Canonical SMILES": "O=C1N(Cl)C(=O)N(Cl)C(=O)N1Cl",
        "Molecular Formula": "C<sub>3</sub>Cl<sub>3</sub>N<sub>3</sub>O<sub>3</sub>",
        "Molecular Mass": "232.41",
        "Melting Point": "47-246 °C (decomp)"
    }
}