{
    "cas_no": "156-41-2",
    "key_name": "2-(4-Chlorophenyl)ethylamine",
    "cn_name": "4-氯苯乙胺;对氯苯乙胺;",
    "alternate_name": "Benzeneethanamine, 4-chloro-;Phenethylamine, <em>p</em>-chloro-;4-Chlorobenzeneethanamine;<em>p</em>-Chloro-β-phenylethylamine;4-Chloro-β-phenylethylamine;<em>p</em>-Chlorophenethylamine;2-(<em>p</em>-Chlorophenyl)ethylamine;4-Chlorophenethylamine;4-Chloro-β-phenethylamine;[(4-Chlorophenyl)ethyl]amine;1-Amino-2-(<em>p</em>-chlorophenyl)ethane;2-(<em>p</em>-Chlorophenyl)-1-ethylamine;<em>p</em>-Chlorophenylethylamine;2-(4-Chlorophenyl)ethylamine;2-(4-Chlorophenyl)ethanamine;2-(4-Chlorophenyl)ethan-1-amine",
    "duplicated_cas_no": "",
    "SMILES": "C(CN)C1=CC=C(Cl)C=C1",
    "meta_data": {
        "InChI": "InChI=1S/C8H10ClN/c9-8-3-1-7(2-4-8)5-6-10/h1-4H,5-6,10H2",
        "InChIKey": null,
        "Canonical SMILES": "ClC1=CC=C(C=C1)CCN",
        "Molecular Formula": "C<sub>8</sub>H<sub>10</sub>ClN",
        "Molecular Mass": "155.62",
        "Boiling Point": "129-135 °C @ Press: 24 Torr"
    }
}