{
    "cas_no": "6926-51-8",
    "key_name": "5-(4-Methoxyphenyl)-2<em>H</em>-tetrazole",
    "cn_name": "5-(4-甲氧基苯基)-1H-四唑;5-(4-甲氧基苯基)-1H-四唑;",
    "alternate_name": "2<em>H</em>-Tetrazole, 5-(4-methoxyphenyl)-;1<em>H</em>-Tetrazole, 5-(<em>p</em>-methoxyphenyl)-;1<em>H</em>-Tetrazole, 5-(4-methoxyphenyl)-;5-(4-Methoxyphenyl)-2<em>H</em>-tetrazole;5-(<em>p</em>-Methoxyphenyl)tetrazole;5-(<em>p</em>-Methoxyphenyl)-1<em>H</em>-tetrazole;5-(4-Methoxyphenyl)tetrazole;5-<em>p</em>-Anisyltetrazole;5-(4-Methoxyphenyl)-1<em>H</em>-tetrazole;NSC 206225",
    "duplicated_cas_no": "",
    "SMILES": "O(C)C1=CC=C(C=C1)C=2NN=NN2",
    "meta_data": {
        "InChI": "InChI=1S/C8H8N4O/c1-13-7-4-2-6(3-5-7)8-9-11-12-10-8/h2-5H,1H3,(H,9,10,11,12)",
        "InChIKey": null,
        "Canonical SMILES": "N1=NNC(=N1)C=2C=CC(OC)=CC2",
        "Molecular Formula": "C<sub>8</sub>H<sub>8</sub>N<sub>4</sub>O",
        "Molecular Mass": "176.18",
        "Melting Point": "231-232 °C"
    }
}