{
    "cas_no": "13195-79-4",
    "key_name": "2,2-Dibromo-1-(4-bromophenyl)ethanone",
    "cn_name": null,
    "alternate_name": "Ethanone, 2,2-dibromo-1-(4-bromophenyl)-;Acetophenone, 2,2,4′-tribromo-;2,2-Dibromo-1-(4-bromophenyl)ethanone;4,α,α-Tribromoacetophenone;2,2,4′-Tribromoacetophenone;α,α-Dibromo-4-bromoacetophenone;NSC 78440;2,2-Dibromo-1-(4-bromophenyl)ethan-1-one",
    "duplicated_cas_no": "",
    "SMILES": "C(C(Br)Br)(=O)C1=CC=C(Br)C=C1",
    "meta_data": {
        "InChI": "InChI=1S/C8H5Br3O/c9-6-3-1-5(2-4-6)7(12)8(10)11/h1-4,8H",
        "InChIKey": null,
        "Canonical SMILES": "O=C(C1=CC=C(Br)C=C1)C(Br)Br",
        "Molecular Formula": "C<sub>8</sub>H<sub>5</sub>Br<sub>3</sub>O",
        "Molecular Mass": "356.84",
        "Boiling Point": "160-162 °C @ Press: 3 Torr",
        "Melting Point": "93-94 °C"
    }
}