{
    "cas_no": "17639-64-4",
    "key_name": "1-Tosylpyrrole",
    "cn_name": "N-对甲苯磺酰基吡咯;",
    "alternate_name": "1<em>H</em>-Pyrrole, 1-[(4-methylphenyl)sulfonyl]-;Pyrrole, 1-(<em>p</em>-tolylsulfonyl)-;1-[(4-Methylphenyl)sulfonyl]-1<em>H</em>-pyrrole;1-(<em>p</em>-Tolylsulfonyl)pyrrole;1-(<em>p</em>-Tolylsulfonyl)-1<em>H</em>-pyrrole;<em>N</em>-Tosylpyrrole;1-Tosylpyrrole;1-(4-Methylphenylsulfonyl)pyrrole;1-[(4-Methylphenyl)sulfonyl]-1H-pyrrole;1-(<em>p</em>-Toluenesulfonyl)-1<em>H</em>-pyrrole;<em>N</em>-<em>p</em>-Toluenesulfonylpyrrole;1-(<em>p</em>-Tosyl)-1<em>H</em>-pyrrole;1-(4-Methylbenzenesulfonyl)-1<em>H</em>-pyrrole;1-(Toluene-4-sulfonyl)-1<em>H</em>-pyrrole;1-Tosyl-1<em>H</em>-pyrrole",
    "duplicated_cas_no": "",
    "SMILES": "S(=O)(=O)(C1=CC=C(C)C=C1)N2C=CC=C2",
    "meta_data": {
        "InChI": "InChI=1S/C11H11NO2S/c1-10-4-6-11(7-5-10)15(13,14)12-8-2-3-9-12/h2-9H,1H3",
        "InChIKey": null,
        "Canonical SMILES": "O=S(=O)(C1=CC=C(C=C1)C)N2C=CC=C2",
        "Molecular Formula": "C<sub>11</sub>H<sub>11</sub>NO<sub>2</sub>S",
        "Molecular Mass": "221.28",
        "Melting Point": "98-100 °C"
    }
}