{
    "cas_no": "7761-45-7",
    "key_name": "Metoprine",
    "cn_name": null,
    "alternate_name": "2,4-Pyrimidinediamine, 5-(3,4-dichlorophenyl)-6-methyl-;Pyrimidine, 2,4-diamino-5-(3,4-dichlorophenyl)-6-methyl-;5-(3,4-Dichlorophenyl)-6-methyl-2,4-pyrimidinediamine;2,4-Diamino-5-(3′,4′-dichlorophenyl)-6-methylpyrimidine;BW 50197;Methodichlorophen;2,4-Diamino-5-(3,4-dichlorophenyl)-6-methylpyrimidine;BW 197U;DDMP;Metoprine;NSC 19494;NSC 7364;SK 5265;U 197",
    "duplicated_cas_no": "",
    "SMILES": "CC=1C(=C(N)N=C(N)N1)C2=CC(Cl)=C(Cl)C=C2",
    "meta_data": {
        "InChI": "InChI=1S/C11H10Cl2N4/c1-5-9(10(14)17-11(15)16-5)6-2-3-7(12)8(13)4-6/h2-4H,1H3,(H4,14,15,16,17)",
        "InChIKey": null,
        "Canonical SMILES": "ClC1=CC=C(C=C1Cl)C=2C(=NC(=NC2C)N)N",
        "Molecular Formula": "C<sub>11</sub>H<sub>10</sub>Cl<sub>2</sub>N<sub>4</sub>",
        "Molecular Mass": "269.13",
        "Melting Point": "275-276 °C",
        "Density": "1.485 g/cm³"
    }
}