{
    "cas_no": "25312-34-9",
    "key_name": "α-Ionol",
    "cn_name": null,
    "alternate_name": "3-Buten-2-ol, 4-(2,6,6-trimethyl-2-cyclohexen-1-yl)-, (3<em>E</em>)-;3-Buten-2-ol, 4-(2,6,6-trimethyl-2-cyclohexen-1-yl)-;(3<em>E</em>)-4-(2,6,6-Trimethyl-2-cyclohexen-1-yl)-3-buten-2-ol;α-Ionol;(3<em>E</em>)-4-(2,6,6-Trimethyl-2-cyclohexenyl)-3-buten-2-ol;Latilure;4-(2,6,6-Trimethyl-2-cyclohexenyl)but-3-en-2-ol",
    "duplicated_cas_no": "211241-68-8",
    "SMILES": "C(=C/C(C)O)\\C1C(C)(C)CCC=C1C",
    "meta_data": {
        "InChI": "InChI=1S/C13H22O/c1-10-6-5-9-13(3,4)12(10)8-7-11(2)14/h6-8,11-12,14H,5,9H2,1-4H3/b8-7+",
        "InChIKey": null,
        "Canonical SMILES": "OC(C=CC1C(=CCCC1(C)C)C)C",
        "Molecular Formula": "C<sub>13</sub>H<sub>22</sub>O",
        "Molecular Mass": "194.31",
        "Boiling Point": "103 °C @ Press: 3 Torr",
        "Density": "0.9181 g/cm³ @ Temp: 21 °C"
    }
}