{
    "cas_no": "148-82-3",
    "key_name": "Melphalan",
    "cn_name": "美法仑;米尔法兰;左旋苯丙氨酸氮芥;4-[双(2-氯乙基)氨基]-L-苯丙氨酸;",
    "alternate_name": "<span class=\"text-smallcaps\">L</span>-Phenylalanine, 4-[bis(2-chloroethyl)amino]-;Alanine, 3-[<em>p</em>-[bis(2-chloroethyl)amino]phenyl]-, <span class=\"text-smallcaps\">L</span>-;4-[Bis(2-chloroethyl)amino]-<span class=\"text-smallcaps\">L</span>-phenylalanine;CB 3025;NSC 8806;Alkeran;Melphalan;<span class=\"text-smallcaps\">L</span>-Sarcolysin;<span class=\"text-smallcaps\">L</span>-Sarkolysin;<span class=\"text-smallcaps\">L</span>-Sarcolysine;<span class=\"text-smallcaps\">L</span>-Phenylalanine mustard;Phenylalanine mustard;3025CB;<span class=\"text-smallcaps\">L</span>-PAM;Levofalan;Levofolan;Levopholan;Alanine nitrogen mustard;Melfalan;Sarcoclorin;<span class=\"text-smallcaps\">L</span>-Phenylalanine mustard hydrochloride;NSC 241286;67: PN: WO2010011890 PAGE: 37 claimed protein;MeSH ID: D008558",
    "duplicated_cas_no": "8057-25-8",
    "SMILES": "N(CCCl)(CCCl)C1=CC=C(C[C@@H](C(O)=O)N)C=C1",
    "meta_data": {
        "InChI": "InChI=1S/C13H18Cl2N2O2/c14-5-7-17(8-6-15)11-3-1-10(2-4-11)9-12(16)13(18)19/h1-4,12H,5-9,16H2,(H,18,19)/t12-/m0/s1",
        "InChIKey": null,
        "Canonical SMILES": "O=C(O)C(N)CC1=CC=C(C=C1)N(CCCl)CCCl",
        "Molecular Formula": "C<sub>13</sub>H<sub>18</sub>Cl<sub>2</sub>N<sub>2</sub>O<sub>2</sub>",
        "Molecular Mass": "305.20",
        "Melting Point": "182-183 °C (decomp)"
    }
}