{
    "cas_no": "4076-36-2",
    "key_name": "5-Methyl-2<em>H</em>-tetrazole",
    "cn_name": null,
    "alternate_name": "2<em>H</em>-Tetrazole, 5-methyl-;1<em>H</em>-Tetrazole, 5-methyl-;5-Methyl-2<em>H</em>-tetrazole;5-Methyltetrazole;5-Methyl-1,2,3,4-tetrazole;T 2588F;5-Methyl-1<em>H</em>-tetrazole;NSC 11136;M 5T",
    "duplicated_cas_no": "94079-30-8;2055838-79-2",
    "SMILES": "CC=1NN=NN1",
    "meta_data": {
        "InChI": "InChI=1S/C2H4N4/c1-2-3-5-6-4-2/h1H3,(H,3,4,5,6)",
        "InChIKey": null,
        "Canonical SMILES": "N1=NNC(=N1)C",
        "Molecular Formula": "C<sub>2</sub>H<sub>4</sub>N<sub>4</sub>",
        "Molecular Mass": "84.08",
        "Melting Point": "145-146 °C",
        "Density": "1.32 g/cm³ (solid)"
    }
}