{
    "cas_no": "3462-97-3",
    "key_name": "(4-Methoxybenzyl)triphenylphosphonium chloride",
    "cn_name": null,
    "alternate_name": "Phosphonium, [(4-methoxyphenyl)methyl]triphenyl-, chloride (1:1);Phosphonium, (<em>p</em>-methoxybenzyl)triphenyl-, chloride;Phosphonium, [(4-methoxyphenyl)methyl]triphenyl-, chloride;(<em>p</em>-Methoxybenzyl)triphenylphosphonium chloride;(4-Methoxybenzyl)triphenylphosphonium chloride;[(4-Methoxyphenyl)methyl]triphenylphosphonium chloride",
    "duplicated_cas_no": "",
    "SMILES": "[P+](CC1=CC=C(OC)C=C1)(C2=CC=CC=C2)(C3=CC=CC=C3)C4=CC=CC=C4.[Cl-]",
    "meta_data": {
        "InChI": "InChI=1S/C26H24OP.ClH/c1-27-23-19-17-22(18-20-23)21-28(24-11-5-2-6-12-24,25-13-7-3-8-14-25)26-15-9-4-10-16-26;/h2-20H,21H2,1H3;1H/q+1;/p-1",
        "InChIKey": null,
        "Canonical SMILES": "[Cl-].O(C1=CC=C(C=C1)C[P+](C=2C=CC=CC2)(C=3C=CC=CC3)C=4C=CC=CC4)C",
        "Molecular Formula": "C<sub>26</sub>H<sub>24</sub>OP.Cl",
        "Molecular Mass": "",
        "Melting Point": "241-243 °C"
    }
}