{
    "cas_no": "89-57-6",
    "key_name": "5-Aminosalicylic acid",
    "cn_name": "5-氨基水杨酸;",
    "alternate_name": "Benzoic acid, 5-amino-2-hydroxy-;Salicylic acid, 5-amino-;5-Amino-2-hydroxybenzoic acid;2-Hydroxy-5-aminobenzoic acid;3-Carboxy-4-hydroxyaniline;Pentasa;Mesalamine;5-Aminosalicylic acid;Mesalazine;Asacol;5-ASA;Salofalk;Claversal;Asacolitin;Salozinal;Mesacol;Asacolon;Fisalamine;Lixacol;Mesasal;<em>m</em>-Aminosalicylic acid;Rowasa;NSC 38877;Canasa;Ipocol;Asalit;Lialda;Mesalsal;Novo-5 ASA;Colasa;Apriso;Mezavant;Rovasa;Fivasa;Delzicol;MeSH ID: D019804",
    "duplicated_cas_no": "61513-32-4",
    "SMILES": "C(O)(=O)C1=C(O)C=CC(N)=C1",
    "meta_data": {
        "InChI": "InChI=1S/C7H7NO3/c8-4-1-2-6(9)5(3-4)7(10)11/h1-3,9H,8H2,(H,10,11)",
        "InChIKey": null,
        "Canonical SMILES": "O=C(O)C1=CC(N)=CC=C1O",
        "Molecular Formula": "C<sub>7</sub>H<sub>7</sub>NO<sub>3</sub>",
        "Molecular Mass": "153.14",
        "Melting Point": "283 °C"
    }
}