{
    "cas_no": "2923-66-2",
    "key_name": "1-(3-Chloro-4-fluorophenyl)ethanone",
    "cn_name": "3-氯-4-氟苯乙酮;",
    "alternate_name": "Ethanone, 1-(3-chloro-4-fluorophenyl)-;Acetophenone, 3′-chloro-4′-fluoro-;1-(3-Chloro-4-fluorophenyl)ethanone;3-Chloro-4-fluoroacetophenone;3′-Chloro-4′-fluoroacetophenone;3-Chloro-4-fluorophenyl methyl ketone;1-(3-Chloro-4-fluorophenyl)ethan-1-one",
    "duplicated_cas_no": "",
    "SMILES": "C(C)(=O)C1=CC(Cl)=C(F)C=C1",
    "meta_data": {
        "InChI": "InChI=1S/C8H6ClFO/c1-5(11)6-2-3-8(10)7(9)4-6/h2-4H,1H3",
        "InChIKey": null,
        "Canonical SMILES": "O=C(C1=CC=C(F)C(Cl)=C1)C",
        "Molecular Formula": "C<sub>8</sub>H<sub>6</sub>ClFO",
        "Molecular Mass": "172.58",
        "Melting Point": "41-42 °C"
    }
}