{
    "cas_no": "4163-65-9",
    "key_name": "α-<span class=\"text-smallcaps\">D</span>-Mannose pentaacetate",
    "cn_name": "1,2,3,4,6-O-五乙酰基-Α-甘露糖;",
    "alternate_name": "α-<span class=\"text-smallcaps\">D</span>-Mannopyranose, 1,2,3,4,6-pentaacetate;Mannopyranose, pentaacetate, α-<span class=\"text-smallcaps\">D</span>-;α-<span class=\"text-smallcaps\">D</span>-Mannopyranose, pentaacetate;Penta-<em>O</em>-acetyl-α-<span class=\"text-smallcaps\">D</span>-mannopyranose;1,2,3,4,6-Penta-<em>O</em>-acetyl-α-<span class=\"text-smallcaps\">D</span>-mannopyranose;1,2,3,4,6-Penta-<em>O</em>-acetyl-α-<span class=\"text-smallcaps\">D</span>-mannose;α-<span class=\"text-smallcaps\">D</span>-Mannose pentaacetate;NSC 51251;2,3,4,6-Tetra-<em>O</em>-acetyl-α-<span class=\"text-smallcaps\">D</span>-mannopyranosyl acetate;(2<em>R</em>,3<em>S</em>,4<em>S</em>,5<em>R</em>,6<em>R</em>)-6-(Acetoxymethyl)tetrahydro-2<em>H</em>-pyran-2,3,4,5-tetrayl tetraacetate",
    "duplicated_cas_no": "400894-71-5",
    "SMILES": "O(C(C)=O)[C@H]1[C@H](OC(C)=O)[C@@H](COC(C)=O)O[C@H](OC(C)=O)[C@H]1OC(C)=O",
    "meta_data": {
        "InChI": "InChI=1S/C16H22O11/c1-7(17)22-6-12-13(23-8(2)18)14(24-9(3)19)15(25-10(4)20)16(27-12)26-11(5)21/h12-16H,6H2,1-5H3/t12-,13-,14+,15+,16+/m1/s1",
        "InChIKey": null,
        "Canonical SMILES": "O=C(OCC1OC(OC(=O)C)C(OC(=O)C)C(OC(=O)C)C1OC(=O)C)C",
        "Molecular Formula": "C<sub>16</sub>H<sub>22</sub>O<sub>11</sub>",
        "Molecular Mass": "390.34",
        "Boiling Point": "135 °C @ Press: 1 x 10<sup>-4</sup> Torr",
        "Melting Point": "74 °C"
    }
}