{
    "cas_no": "12148-49-1",
    "key_name": "Bis(indenyl)zirconium dichloride",
    "cn_name": "双茚基锆(VI)二氯化合物;二氯双茚基锆(VI);",
    "alternate_name": "Zirconium, dichlorobis[(1,2,3,3a,7a-η)-1<em>H</em>-inden-1-yl]-;Zirconium, dichlorodiindenyl-;Dichlorobis[(1,2,3,3a,7a-η)-1<em>H</em>-inden-1-yl]zirconium;Dichlorobis(π-indenyl)zirconium;Bis(indenyl)zirconium dichloride;Bis(indenyl)zirconium chloride;Dichlorobis(η<sup>5</sup>-indenyl)zirconium;Dichlorodiindenylzirconium;Dichlorobis(indenyl)zirconium;Bis(η<sup>5</sup>-indenyl)zirconium dichloride;Diindenylzirconium dichloride",
    "duplicated_cas_no": "23225-99-2",
    "SMILES": "[Cl-][Zr+4]12345678([Cl-])(C9=%10C1([CH-]2[CH]3=[CH]49)=CC=CC%10)C%11=%12C5([CH-]6[CH]7=[CH]8%11)=CC=CC%12",
    "meta_data": {
        "InChI": "InChI=1S/2C9H7.2ClH.Zr/c2*1-2-5-9-7-3-6-8(9)4-1;;;/h2*1-7H;2*1H;/q2*-1;;;+4/p-2",
        "InChIKey": null,
        "Canonical SMILES": "[Cl-][Zr+4]12345678([Cl-])([CH]9=[CH]4C=%103C=CC=CC%102[CH-]91)[CH]%11=[CH]8C=%127C=CC=CC%126[CH-]%115",
        "Molecular Formula": "C<sub>18</sub>H<sub>14</sub>Cl<sub>2</sub>Zr",
        "Molecular Mass": "",
        "Melting Point": "110.3 °C"
    }
}