{
    "cas_no": "999-21-3",
    "key_name": "Diallyl maleate",
    "cn_name": "顺丁二烯酸二烯丙酯;马来酸二烯丙酯(Z)-2-丁烯二酸,二-2-丙烯基酯;",
    "alternate_name": "2-Butenedioic acid (2<em>Z</em>)-, 1,4-di-2-propen-1-yl ester;Maleic acid, diallyl ester;2-Butenedioic acid (<em>Z</em>)-, di-2-propenyl ester;2-Butenedioic acid (2<em>Z</em>)-, di-2-propenyl ester;Diallyl maleate",
    "duplicated_cas_no": "105323-33-9;70798-72-0",
    "SMILES": "C(/C=C\\C(OCC=C)=O)(OCC=C)=O",
    "meta_data": {
        "InChI": "InChI=1S/C10H12O4/c1-3-7-13-9(11)5-6-10(12)14-8-4-2/h3-6H,1-2,7-8H2/b6-5-",
        "InChIKey": null,
        "Canonical SMILES": "O=C(OCC=C)C=CC(=O)OCC=C",
        "Molecular Formula": "C<sub>10</sub>H<sub>12</sub>O<sub>4</sub>",
        "Molecular Mass": "196.20",
        "Boiling Point": "108-110 °C",
        "Density": "1.0773 g/cm³ @ Temp: 20 °C"
    }
}