{
    "cas_no": "3676-97-9",
    "key_name": "Tetramethylbiphosphine disulfide",
    "cn_name": "四甲基二硫化双芽膦;四甲基二膦烷二硫化物;",
    "alternate_name": "Diphosphine, 1,1,2,2-tetramethyl-, 1,2-disulfide;Diphosphine, tetramethyl-, disulfide;Diphosphine, tetramethyl-, 1,2-disulfide;Tetramethylbiphosphine disulfide;Tetramethyldiphosphoryl disulfide;Tetramethyldiphosphine disulfide;NSC 666477;NSC 84363",
    "duplicated_cas_no": "",
    "SMILES": "P(P(C)(C)=S)(C)(C)=S",
    "meta_data": {
        "InChI": "InChI=1S/C4H12P2S2/c1-5(2,7)6(3,4)8/h1-4H3",
        "InChIKey": null,
        "Canonical SMILES": "S=P(C)(C)P(=S)(C)C",
        "Molecular Formula": "C<sub>4</sub>H<sub>12</sub>P<sub>2</sub>S<sub>2</sub>",
        "Molecular Mass": "186.22",
        "Melting Point": "217 °C"
    }
}