{
    "cas_no": "1712-64-7",
    "key_name": "Isopropyl nitrate",
    "cn_name": "硝酸异丙酯;",
    "alternate_name": "Nitric acid, 1-methylethyl ester;Isopropyl nitrate;Nitric acid, isopropyl ester;2-Propyl nitrate;NSC 88934;Propan-2-yl nitrate",
    "duplicated_cas_no": "",
    "SMILES": "O(C(C)C)N(=O)=O",
    "meta_data": {
        "InChI": "InChI=1S/C3H7NO3/c1-3(2)7-4(5)6/h3H,1-2H3",
        "InChIKey": null,
        "Canonical SMILES": "O=N(=O)OC(C)C",
        "Molecular Formula": "C<sub>3</sub>H<sub>7</sub>NO<sub>3</sub>",
        "Molecular Mass": "105.09",
        "Boiling Point": "100 °C",
        "Melting Point": "&lt;0 °C"
    }
}