{
    "cas_no": "4825-86-9",
    "key_name": "Ochratoxin B",
    "cn_name": null,
    "alternate_name": "<span class=\"text-smallcaps\">L</span>-Phenylalanine, <em>N</em>-[[(3<em>R</em>)-3,4-dihydro-8-hydroxy-3-methyl-1-oxo-1<em>H</em>-2-benzopyran-7-yl]carbonyl]-;Ochratoxin B;<span class=\"text-smallcaps\">L</span>-Phenylalanine, <em>N</em>-[(3,4-dihydro-8-hydroxy-3-methyl-1-oxo-1<em>H</em>-2-benzopyran-7-yl)carbonyl]-, (<em>R</em>)-;Alanine, <em>N</em>-[(8-hydroxy-3-methyl-1-oxo-7-isochromanyl)carbonyl]-3-phenyl-, <span class=\"text-smallcaps\">L</span>-;<em>N</em>-[[(3<em>R</em>)-3,4-Dihydro-8-hydroxy-3-methyl-1-oxo-1<em>H</em>-2-benzopyran-7-yl]carbonyl]-<span class=\"text-smallcaps\">L</span>-phenylalanine",
    "duplicated_cas_no": "",
    "SMILES": "OC1=C2C(=CC=C1C(N[C@@H](CC3=CC=CC=C3)C(O)=O)=O)C[C@@H](C)OC2=O",
    "meta_data": {
        "InChI": "InChI=1S/C20H19NO6/c1-11-9-13-7-8-14(17(22)16(13)20(26)27-11)18(23)21-15(19(24)25)10-12-5-3-2-4-6-12/h2-8,11,15,22H,9-10H2,1H3,(H,21,23)(H,24,25)/t11-,15+/m1/s1",
        "InChIKey": null,
        "Canonical SMILES": "O=C1OC(C)CC2=CC=C(C(=O)NC(C(=O)O)CC=3C=CC=CC3)C(O)=C12",
        "Molecular Formula": "C<sub>20</sub>H<sub>19</sub>NO<sub>6</sub>",
        "Molecular Mass": "369.37",
        "Melting Point": "221 °C"
    }
}