{
    "cas_no": "10276-85-4",
    "key_name": "Benzyl octanoate",
    "cn_name": "辛酸苯基甲基酯;",
    "alternate_name": "Octanoic acid, phenylmethyl ester;Octanoic acid, benzyl ester;Caprylic acid, benzyl ester;Benzyl octanoate;NSC 23754;Phenylmethyl octanoate",
    "duplicated_cas_no": "",
    "SMILES": "C(OC(CCCCCCC)=O)C1=CC=CC=C1",
    "meta_data": {
        "InChI": "InChI=1S/C15H22O2/c1-2-3-4-5-9-12-15(16)17-13-14-10-7-6-8-11-14/h6-8,10-11H,2-5,9,12-13H2,1H3",
        "InChIKey": null,
        "Canonical SMILES": "O=C(OCC=1C=CC=CC1)CCCCCCC",
        "Molecular Formula": "C<sub>15</sub>H<sub>22</sub>O<sub>2</sub>",
        "Molecular Mass": "234.33",
        "Boiling Point": "125-130 °C @ Press: 1.5 Torr"
    }
}