{
    "cas_no": "2304-96-3",
    "key_name": "<em>N</em><sup>2</sup>-[(Phenylmethoxy)carbonyl]-<span class=\"text-smallcaps\">L</span>-asparagine",
    "cn_name": "N-苄氧羰基-L-天冬酰胺;CBZ-L-天冬酰胺;",
    "alternate_name": "<span class=\"text-smallcaps\">L</span>-Asparagine, <em>N</em><sup>2</sup>-[(phenylmethoxy)carbonyl]-;Asparagine, <em>N</em><sup>2</sup>-carboxy-, <em>N</em><sup>2</sup>-benzyl ester, <span class=\"text-smallcaps\">L</span>-;Asparagine, <em>N</em><sup>2</sup>-carboxy-, <em>N</em>-benzyl ester;<em>N</em><sup>2</sup>-[(Phenylmethoxy)carbonyl]-<span class=\"text-smallcaps\">L</span>-asparagine;Carbobenzoxy-<span class=\"text-smallcaps\">L</span>-asparagine;<em>N</em>-(Benzyloxycarbonyl)-<span class=\"text-smallcaps\">L</span>-asparagine;<em>N</em>-Carbobenzoxy-<span class=\"text-smallcaps\">L</span>-asparagine;<em>N</em><sup>2</sup>-(Benzyloxycarbonyl)-<span class=\"text-smallcaps\">L</span>-asparagine;NSC 59837;NSC 88498;(<em>S</em>)-4-Amino-2-(((benzyloxy)carbonyl)amino)-4-oxobutanoic acid;(2S)-2-[[(Benzyloxy)carbonyl]amino]-3-carbamoylpropanoic acid;(2S)-4-Amino-4-oxo-2-(phenylmethoxycarbonylamino)butanoic acid;<em>N</em>-Cbz-<span class=\"text-smallcaps\">L</span>-asparagine",
    "duplicated_cas_no": "35264-96-1",
    "SMILES": "C(OC(N[C@@H](CC(N)=O)C(O)=O)=O)C1=CC=CC=C1",
    "meta_data": {
        "InChI": "InChI=1S/C12H14N2O5/c13-10(15)6-9(11(16)17)14-12(18)19-7-8-4-2-1-3-5-8/h1-5,9H,6-7H2,(H2,13,15)(H,14,18)(H,16,17)/t9-/m0/s1",
        "InChIKey": null,
        "Canonical SMILES": "O=C(OCC=1C=CC=CC1)NC(C(=O)O)CC(=O)N",
        "Molecular Formula": "C<sub>12</sub>H<sub>14</sub>N<sub>2</sub>O<sub>5</sub>",
        "Molecular Mass": "266.25",
        "Melting Point": "165 °C"
    }
}