{
    "cas_no": "79099-07-3",
    "key_name": "<em>tert</em>-Butyl 4-oxopiperidine-1-carboxylate",
    "cn_name": "N-叔丁氧羰基-4-哌啶酮;",
    "alternate_name": "1-Piperidinecarboxylic acid, 4-oxo-, 1,1-dimethylethyl ester;1-(<em>tert</em>-Butoxycarbonyl)-4-piperidinone;<em>N</em>-(<em>tert</em>-Butoxycarbonyl)-4-piperidinone;<em>N</em>-(<em>tert</em>-Butyloxycarbonyl)-4-piperidone;<em>N</em>-Boc-4-piperidone;1-(<em>tert</em>-Butoxycarbonyl)-4-piperidone;1-BOC-4-piperidone;4-Keto-1-piperidinecarboxylic acid 1,1-dimethylethyl ester;1,1-Dimethylethyl 4-oxo-1-piperidinecarboxylate;<em>tert</em>-Butyl 4-oxo-1-piperidinecarboxylate;4-Oxopiperidine-1-carboxylic acid <em>tert</em>-butyl ester;4-Oxo-<em>N</em>-Boc-piperidine;1-(<em>tert</em>-Butyloxycarbonyl)-4-piperidone;4-Oxo-1-(<em>tert</em>-butoxycarbonyl)piperidine;1-(<em>tert</em>-Butoxycarbonyl)-4-oxopiperidine;4-Oxopiperidine-1-carboxylic acid tert-butyl ester;<em>N</em>-(<em>tert</em>-Butoxycarbonyl)-4-piperidone;1-(<em>tert</em>-Butyloxycarbonyl)-4-piperidinone;4-Oxo-1-piperidinecarboxylic acid 1,1-dimethylethyl ester;<em>N</em>-(<em>tert</em>-Butyloxycarbonyl)piperidin-4-one;<em>N</em>-Boc-piperidin-4-one;<em>N</em>-Boc-4-oxopiperidine;1-Boc-4-oxopiperidine;1-Boc-piperidin-4-one;4-Oxopiperidin-1-carboxylic acid tert-butyl ester;<em>N</em>-Boc-piperidine-4-one;<em>tert</em>-Butyl 4-oxopiperidine-1-carboxylate;<em>tert</em>-Butyl tert-butyl 4-oxopiperidine-1-carboxylate",
    "duplicated_cas_no": "",
    "SMILES": "C(OC(C)(C)C)(=O)N1CCC(=O)CC1",
    "meta_data": {
        "InChI": "InChI=1S/C10H17NO3/c1-10(2,3)14-9(13)11-6-4-8(12)5-7-11/h4-7H2,1-3H3",
        "InChIKey": null,
        "Canonical SMILES": "O=C(OC(C)(C)C)N1CCC(=O)CC1",
        "Molecular Formula": "C<sub>10</sub>H<sub>17</sub>NO<sub>3</sub>",
        "Molecular Mass": "199.25",
        "Melting Point": "64-65 °C"
    }
}