{
    "cas_no": "21423-84-7",
    "key_name": "2-Chloro-4-methylbenzonitrile",
    "cn_name": null,
    "alternate_name": "Benzonitrile, 2-chloro-4-methyl-;<em>p</em>-Tolunitrile, 2-chloro-;2-Chloro-4-methylbenzonitrile;2-Chloro-<em>p</em>-tolunitrile;NSC 263769",
    "duplicated_cas_no": "",
    "SMILES": "C(#N)C1=C(Cl)C=C(C)C=C1",
    "meta_data": {
        "InChI": "InChI=1S/C8H6ClN/c1-6-2-3-7(5-10)8(9)4-6/h2-4H,1H3",
        "InChIKey": null,
        "Canonical SMILES": "N#CC1=CC=C(C=C1Cl)C",
        "Molecular Formula": "C<sub>8</sub>H<sub>6</sub>ClN",
        "Molecular Mass": "151.59",
        "Melting Point": "51-55 °C"
    }
}