{
    "cas_no": "10242-03-2",
    "key_name": "6-Nitro-1<em>H</em>-indole-3-carboxylic acid",
    "cn_name": null,
    "alternate_name": "1<em>H</em>-Indole-3-carboxylic acid, 6-nitro-;Indole-3-carboxylic acid, 6-nitro-;6-Nitro-1<em>H</em>-indole-3-carboxylic acid;NSC 82382",
    "duplicated_cas_no": "",
    "SMILES": "C(O)(=O)C=1C=2C(=CC(N(=O)=O)=CC2)NC1",
    "meta_data": {
        "InChI": "InChI=1S/C9H6N2O4/c12-9(13)7-4-10-8-3-5(11(14)15)1-2-6(7)8/h1-4,10H,(H,12,13)",
        "InChIKey": null,
        "Canonical SMILES": "O=C(O)C1=CNC=2C=C(C=CC21)N(=O)=O",
        "Molecular Formula": "C<sub>9</sub>H<sub>6</sub>N<sub>2</sub>O<sub>4</sub>",
        "Molecular Mass": "206.15",
        "Melting Point": "265-267 °C"
    }
}