{
    "cas_no": "6485-81-0",
    "key_name": "Tris(2-methylpropyl)silane",
    "cn_name": "三异丁基硅烷;三异丁基硅烷;",
    "alternate_name": "Silane, tris(2-methylpropyl)-;Silane, triisobutyl-;Tris(2-methylpropyl)silane;Triisobutylsilane",
    "duplicated_cas_no": "",
    "SMILES": "[SiH](CC(C)C)(CC(C)C)CC(C)C",
    "meta_data": {
        "InChI": "InChI=1S/C12H28Si/c1-10(2)7-13(8-11(3)4)9-12(5)6/h10-13H,7-9H2,1-6H3",
        "InChIKey": null,
        "Canonical SMILES": "CC(C)C[SiH](CC(C)C)CC(C)C",
        "Molecular Formula": "C<sub>12</sub>H<sub>28</sub>Si",
        "Molecular Mass": "200.44",
        "Boiling Point": "204-206 °C",
        "Density": "0.764 g/cm³"
    }
}