{
    "cas_no": "65-49-6",
    "key_name": "4-Aminosalicylic acid",
    "cn_name": "4-氨基水杨酸;对氨基水杨酸;4-氨基-2-羟基苯甲酸;",
    "alternate_name": "Benzoic acid, 4-amino-2-hydroxy-;Salicylic acid, 4-amino-;4-Amino-2-hydroxybenzoic acid;Apacil;Apas;Deapasil;Pamacyl;Para-Pas;Parasal;Parasalicil;Parasalindon;PAS (acid);Pasara;Pasem;Pasmed;Pasnodia;Propasa;Rezipas;PASK;2-Hydroxy-4-aminobenzoic acid;Para-aminosalicylic acid;Pasolac;Sanipirol-4;3-Hydroxy-4-carboxyaniline;Paramycin;Gabbropas;Amino-PAS;Osacyl;Pasalon;Entepas;Pasa;PAS;<em>p</em>-Aminosalicylic acid;4-Aminosalicylic acid;4-ASA;4-Carboxy-3-hydroxyaniline;Pamisyl;NSC 2083;NSC 211698;Monopass;Paser;Euteropas;Granupas",
    "duplicated_cas_no": "2220148-96-7",
    "SMILES": "C(O)(=O)C1=C(O)C=C(N)C=C1",
    "meta_data": {
        "InChI": "InChI=1S/C7H7NO3/c8-4-1-2-5(7(10)11)6(9)3-4/h1-3,9H,8H2,(H,10,11)",
        "InChIKey": null,
        "Canonical SMILES": "O=C(O)C1=CC=C(N)C=C1O",
        "Molecular Formula": "C<sub>7</sub>H<sub>7</sub>NO<sub>3</sub>",
        "Molecular Mass": "153.14",
        "Melting Point": "150.5 °C (decomp)"
    }
}