{
    "cas_no": "18790-57-3",
    "key_name": "1,4-Dimethoxy-2-(2-nitro-1-propen-1-yl)benzene",
    "cn_name": null,
    "alternate_name": "Benzene, 1,4-dimethoxy-2-(2-nitro-1-propen-1-yl)-;Benzene, 1,4-dimethoxy-2-(2-nitropropenyl)-;Benzene, 1,4-dimethoxy-2-(2-nitro-1-propenyl)-;1,4-Dimethoxy-2-(2-nitro-1-propen-1-yl)benzene;1-(2,5-Dimethoxyphenyl)-2-nitropropene;2-Nitro-1-(2,5-dimethoxyphenyl)-1-propene;NSC 151247",
    "duplicated_cas_no": "",
    "SMILES": "C(=C(N(=O)=O)C)C1=C(OC)C=CC(OC)=C1",
    "meta_data": {
        "InChI": "InChI=1S/C11H13NO4/c1-8(12(13)14)6-9-7-10(15-2)4-5-11(9)16-3/h4-7H,1-3H3",
        "InChIKey": null,
        "Canonical SMILES": "O=N(=O)C(=CC1=CC(OC)=CC=C1OC)C",
        "Molecular Formula": "C<sub>11</sub>H<sub>13</sub>NO<sub>4</sub>",
        "Molecular Mass": "223.23",
        "Melting Point": "75 °C"
    }
}