{
    "cas_no": "1761-56-4",
    "key_name": "<em>N</em>-Salicylidene-<em>o</em>-aminophenol",
    "cn_name": "2-羟基缩苯胺;2-羟基缩苯胺;",
    "alternate_name": "Phenol, 2-[[(2-hydroxyphenyl)imino]methyl]-;Phenol, 2,2′-(methylidynenitrilo)di-;2-[[(2-Hydroxyphenyl)imino]methyl]phenol;Manganon;Salicylal-<em>o</em>-aminophenol;Salicylal-2-aminophenol;<em>N</em>-Salicylidene-<em>o</em>-aminophenol;<em>o</em>-(Salicylideneamino)phenol;2-Hydroxy-<em>N</em>-(2-hydroxybenzylidene)aniline;2-(Salicylidenamino)phenol;2-Hydroxy-<em>N</em>-salicylideneaniline;<em>o</em>-Hydroxy-<em>N</em>-salicylideneaniline;<em>N</em>-(2-Hydroxyphenyl)salicylaldimine;2,2′-Dihydroxybenzalaniline;<em>N</em>-Salicylidene-2-hydroxyaniline;2-Hydroxy-<em>N</em>-(2-hydroxyphenylmethylene)benzenamine;<em>o</em>-[(<em>o</em>-Hydroxybenzylidene)amino]phenol;Salicylidene-2-hydroxyaniline;2-(2-Hydroxybenzylideneamino)phenol;<em>N</em>-(<em>o</em>-Hydroxybenzylidene)-<em>o</em>-aminophenol;2,2′-Dihydroxybenzylideneaniline;<em>N</em>-(2-Hydroxyphenyl)salicylidenimine;<em>N</em>-(2-Hydroxyphenyl)salicylideneimine;NSC 1555;NSC 404030;<em>N</em>-Salicylidene-2-aminophenol;<em>o</em>-[(2-Hydroxybenzylidene)amino]phenol;2-(2-Hydroxybenzylidenamino)phenol",
    "duplicated_cas_no": "1021490-47-0",
    "SMILES": "C(=NC1=C(O)C=CC=C1)C2=C(O)C=CC=C2",
    "meta_data": {
        "InChI": "InChI=1S/C13H11NO2/c15-12-7-3-1-5-10(12)9-14-11-6-2-4-8-13(11)16/h1-9,15-16H",
        "InChIKey": null,
        "Canonical SMILES": "OC=1C=CC=CC1N=CC=2C=CC=CC2O",
        "Molecular Formula": "C<sub>13</sub>H<sub>11</sub>NO<sub>2</sub>",
        "Molecular Mass": "213.23",
        "Boiling Point": "188-190 °C @ Press: 1.5-2.0 Torr",
        "Melting Point": "185 °C"
    }
}