{
    "cas_no": "333-18-6",
    "key_name": "Ethylenediamine, dihydrochloride",
    "cn_name": "乙二胺盐酸盐;",
    "alternate_name": "1,2-Ethanediamine, hydrochloride (1:2);Ethylenediamine, dihydrochloride;1,2-Ethanediamine, dihydrochloride;Chlor-ethamine;Ethylenediamine hydrochloride;Dimethylenediamine dihydrochloride;1,2-Diaminoethane dihydrochloride;Ethylenediammonium dichloride;Ethylenediamine hydrochloride (1:2);1,2-Ethylenediamine dihydrochloride",
    "duplicated_cas_no": "",
    "SMILES": "C(CN)N.Cl",
    "meta_data": {
        "InChI": "InChI=1S/C2H8N2.2ClH/c3-1-2-4;;/h1-4H2;2*1H",
        "InChIKey": null,
        "Canonical SMILES": "Cl.NCCN",
        "Molecular Formula": "C<sub>2</sub>H<sub>8</sub>N<sub>2</sub>.2ClH",
        "Molecular Mass": "",
        "Melting Point": "&gt;250 °C",
        "Density": "1.46 g/cm³"
    }
}