{
    "cas_no": "124605-42-1",
    "key_name": "Methyl (α<em>R</em>,β<em>S</em>)-β-[[(1,1-dimethylethoxy)carbonyl]amino]-α-hydroxybenzenepropanoate",
    "cn_name": "(2R,3S)-N-叔丁氧羰基-3-苯基异丝氨酸甲酯;",
    "alternate_name": "Benzenepropanoic acid, β-[[(1,1-dimethylethoxy)carbonyl]amino]-α-hydroxy-, methyl ester, (α<em>R</em>,β<em>S</em>)-;Benzenepropanoic acid, β-[[(1,1-dimethylethoxy)carbonyl]amino]-α-hydroxy-, methyl ester, [<em>R</em>-(<em>R</em>*,<em>S</em>*)]-;Methyl (α<em>R</em>,β<em>S</em>)-β-[[(1,1-dimethylethoxy)carbonyl]amino]-α-hydroxybenzenepropanoate;Methyl (2<em>R</em>,3<em>S</em>)-3-(<em>tert</em>-butoxycarbonylamino)-2-hydroxy-3-phenylpropionate;(2<em>R</em>,3<em>S</em>)-<em>N</em>-<em>tert</em>-Butoxycarbonyl-3-phenylisoserine methyl ester",
    "duplicated_cas_no": "",
    "SMILES": "[C@H]([C@H](C(OC)=O)O)(NC(OC(C)(C)C)=O)C1=CC=CC=C1",
    "meta_data": {
        "InChI": "InChI=1S/C15H21NO5/c1-15(2,3)21-14(19)16-11(12(17)13(18)20-4)10-8-6-5-7-9-10/h5-9,11-12,17H,1-4H3,(H,16,19)/t11-,12+/m0/s1",
        "InChIKey": null,
        "Canonical SMILES": "O=C(OC(C)(C)C)NC(C=1C=CC=CC1)C(O)C(=O)OC",
        "Molecular Formula": "C<sub>15</sub>H<sub>21</sub>NO<sub>5</sub>",
        "Molecular Mass": "295.33",
        "Melting Point": "132-133 °C"
    }
}