{
    "cas_no": "5736-94-7",
    "key_name": "4-(Hexyloxy)benzaldehyde",
    "cn_name": "4-正己氧基苯甲醛;",
    "alternate_name": "Benzaldehyde, 4-(hexyloxy)-;Benzaldehyde, <em>p</em>-(hexyloxy)-;4-(Hexyloxy)benzaldehyde;4-Hexoxybenzaldehyde;<em>p</em>-(Hexyloxy)benzaldehyde;4-(<em>n</em>-Hexyloxy)benzaldehyde;NSC 508752",
    "duplicated_cas_no": "",
    "SMILES": "O(CCCCCC)C1=CC=C(C=O)C=C1",
    "meta_data": {
        "InChI": "InChI=1S/C13H18O2/c1-2-3-4-5-10-15-13-8-6-12(11-14)7-9-13/h6-9,11H,2-5,10H2,1H3",
        "InChIKey": null,
        "Canonical SMILES": "O=CC1=CC=C(OCCCCCC)C=C1",
        "Molecular Formula": "C<sub>13</sub>H<sub>18</sub>O<sub>2</sub>",
        "Molecular Mass": "206.28",
        "Boiling Point": "154-155 °C"
    }
}