{
    "cas_no": "914913-88-5",
    "key_name": "Palomid 529",
    "cn_name": null,
    "alternate_name": "6<em>H</em>-Dibenzo[<em>b</em>,<em>d</em>]pyran-6-one, 8-(1-hydroxyethyl)-2-methoxy-3-[(4-methoxyphenyl)methoxy]-;8-(1-Hydroxyethyl)-2-methoxy-3-[(4-methoxyphenyl)methoxy]-6<em>H</em>-dibenzo[<em>b</em>,<em>d</em>]pyran-6-one;SG 00529;Palomid 529;P 529;8-(1-hydroxyethyl)-2-methoxy-3-(4-methoxybenzyloxy)-benzo[c]chromen-6-one;DFN 529;RES 529",
    "duplicated_cas_no": "",
    "SMILES": "O(C)C=1C=C2C=3C(C(=O)OC2=CC1OCC4=CC=C(OC)C=C4)=CC(C(C)O)=CC3",
    "meta_data": {
        "InChI": "InChI=1S/C24H22O6/c1-14(25)16-6-9-18-19-11-22(28-3)23(12-21(19)30-24(26)20(18)10-16)29-13-15-4-7-17(27-2)8-5-15/h4-12,14,25H,13H2,1-3H3",
        "InChIKey": null,
        "Canonical SMILES": "O=C1OC2=CC(OCC3=CC=C(OC)C=C3)=C(OC)C=C2C=4C=CC(=CC14)C(O)C",
        "Molecular Formula": "C<sub>24</sub>H<sub>22</sub>O<sub>6</sub>",
        "Molecular Mass": "406.43",
        "Melting Point": "193-194 °C"
    }
}