{
    "cas_no": "871-58-9",
    "key_name": "Potassium butyl xanthate",
    "cn_name": "丁基黄原酸钾;丁基黄原酸钾;",
    "alternate_name": "Carbonodithioic acid, <em>O</em>-butyl ester, potassium salt (1:1);Carbonic acid, dithio-, <em>O</em>-butyl ester, potassium salt;Carbonodithioic acid, <em>O</em>-butyl ester, potassium salt;Xanthic acid, butyl-, potassium salt;Butyl potassium xanthate;Potassium butyl xanthate;Potassium butylxanthogenate;Potassium <em>O</em>-butyl xanthate;Potassium <em>O</em>-butyl dithiocarbonate;Potassium <em>n</em>-butylxanthate;Butyl potassium xanthogenate;<em>O</em>-Butyl potassium dithiocarbonate;Potassium butyl dithiocarbonate;Potassium <em>O</em>-<em>n</em>-butyl xanthate;Potassium <em>O</em>-butyl carbonodithioate",
    "duplicated_cas_no": "41256-17-1",
    "SMILES": "O(CCCC)C(=S)S.[K]",
    "meta_data": {
        "InChI": "InChI=1S/C5H10OS2.K/c1-2-3-4-6-5(7)8;/h2-4H2,1H3,(H,7,8);",
        "InChIKey": null,
        "Canonical SMILES": "[K].S=C(S)OCCCC",
        "Molecular Formula": "C<sub>5</sub>H<sub>10</sub>OS<sub>2</sub>.K",
        "Molecular Mass": "",
        "Melting Point": "70 °C (decomp)"
    }
}