{
    "cas_no": "609-60-9",
    "key_name": "2,4-Dimethylbenzenesulfonyl chloride",
    "cn_name": "2,4-二甲基苯磺酰氯;",
    "alternate_name": "Benzenesulfonyl chloride, 2,4-dimethyl-;2,4-Xylenesulfonyl chloride;2,4-Dimethylbenzenesulfonyl chloride;2,4-Dimethylphenylsulfonyl chloride;3,5-Dimethylbenzene-2-sulfonyl chloride;2,4-Dimethylbenzene-1-sulfonylchloride;2,4-Dimethylbenzene-1-sulfonyl chloride",
    "duplicated_cas_no": "",
    "SMILES": "S(Cl)(=O)(=O)C1=C(C)C=C(C)C=C1",
    "meta_data": {
        "InChI": "InChI=1S/C8H9ClO2S/c1-6-3-4-8(7(2)5-6)12(9,10)11/h3-5H,1-2H3",
        "InChIKey": null,
        "Canonical SMILES": "O=S(=O)(Cl)C1=CC=C(C=C1C)C",
        "Molecular Formula": "C<sub>8</sub>H<sub>9</sub>ClO<sub>2</sub>S",
        "Molecular Mass": "204.67",
        "Boiling Point": "152-154 °C @ Press: 12 Torr",
        "Melting Point": "29-31 °C"
    }
}