{
    "cas_no": "3457-48-5",
    "key_name": "1,2-Bis(4-methylphenyl)-1,2-ethanedione",
    "cn_name": "4,4\"-二甲基联苯甲酰;4,4\"-二甲基苯偶酰;",
    "alternate_name": "1,2-Ethanedione, 1,2-bis(4-methylphenyl)-;<em>p</em>-Tolil;Ethanedione, bis(4-methylphenyl)-;1,2-Bis(4-methylphenyl)-1,2-ethanedione;4,4′-Dimethylbenzil;Di-<em>p</em>-tolylethanedione;<em>p</em>,<em>p</em>′-Dimethylbenzil;Di-<em>p</em>-methylbenzil;NSC 22505;Bis(4-methylphenyl)ethanedione;1,2-Bis(<em>p</em>-tolyl)ethane-1,2-dione;1,2-Bis(4-methylphenyl)ethane-1,2-dione;1,2-Bis(4-methylphenyl)ethanedione;1,2-Di-<em>p</em>-tolylethane-1,2-dione",
    "duplicated_cas_no": "",
    "SMILES": "C(C(=O)C1=CC=C(C)C=C1)(=O)C2=CC=C(C)C=C2",
    "meta_data": {
        "InChI": "InChI=1S/C16H14O2/c1-11-3-7-13(8-4-11)15(17)16(18)14-9-5-12(2)6-10-14/h3-10H,1-2H3",
        "InChIKey": null,
        "Canonical SMILES": "O=C(C1=CC=C(C=C1)C)C(=O)C2=CC=C(C=C2)C",
        "Molecular Formula": "C<sub>16</sub>H<sub>14</sub>O<sub>2</sub>",
        "Molecular Mass": "238.28",
        "Boiling Point": "178 °C @ Press: 16 Torr",
        "Melting Point": "106-107 °C"
    }
}