{
    "cas_no": "68401-81-0",
    "key_name": "Ceftizoxime",
    "cn_name": "头孢唑肟;(6R,7R)-7-[[2,3-二氢-2-亚氨基-4-噻唑基)(甲氧亚氨基)乙酰基]氨基]-8-氧代-5-硫杂-1-氮杂二环[4.;",
    "alternate_name": "5-Thia-1-azabicyclo[4.2.0]oct-2-ene-2-carboxylic acid, 7-[[(2<em>Z</em>)-2-(2-amino-4-thiazolyl)-2-(methoxyimino)acetyl]amino]-8-oxo-, (6<em>R</em>,7<em>R</em>)-;5-Thia-1-azabicyclo[4.2.0]oct-2-ene-2-carboxylic acid, 7-[[(2-amino-4-thiazolyl)(methoxyimino)acetyl]amino]-8-oxo-, [6<em>R</em>-[6α,7β(<em>Z</em>)]]-;5-Thia-1-azabicyclo[4.2.0]oct-2-ene-2-carboxylic acid, 7-[[(2<em>Z</em>)-(2-amino-4-thiazolyl)(methoxyimino)acetyl]amino]-8-oxo-, (6<em>R</em>,7<em>R</em>)-;(6<em>R</em>,7<em>R</em>)-7-[[(2<em>Z</em>)-2-(2-Amino-4-thiazolyl)-2-(methoxyimino)acetyl]amino]-8-oxo-5-thia-1-azabicyclo[4.2.0]oct-2-ene-2-carboxylic acid;Ceftizoxime;Epocelin;Ceftisomin;MeSH ID: D015296",
    "duplicated_cas_no": "",
    "SMILES": "O=C1N2[C@@]([C@@H]1NC(/C(=N\\OC)/C3=CSC(N)=N3)=O)(SCC=C2C(O)=O)[H]",
    "meta_data": {
        "InChI": "InChI=1S/C13H13N5O5S2/c1-23-17-7(5-4-25-13(14)15-5)9(19)16-8-10(20)18-6(12(21)22)2-3-24-11(8)18/h2,4,8,11H,3H2,1H3,(H2,14,15)(H,16,19)(H,21,22)/b17-7-/t8-,11-/m1/s1",
        "InChIKey": null,
        "Canonical SMILES": "O=C(O)C1=CCSC2N1C(=O)C2NC(=O)C(=NOC)C=3N=C(SC3)N",
        "Molecular Formula": "C<sub>13</sub>H<sub>13</sub>N<sub>5</sub>O<sub>5</sub>S<sub>2</sub>",
        "Molecular Mass": "383.40",
        "Melting Point": "227 °C"
    }
}