{
    "cas_no": "6274-27-7",
    "key_name": "2-[(2,5-Dichlorophenyl)thio]acetic acid",
    "cn_name": "2,5-二氯苯基硫代羟基乙酸;",
    "alternate_name": "Acetic acid, 2-[(2,5-dichlorophenyl)thio]-;Acetic acid, [(2,5-dichlorophenyl)thio]-;2-[(2,5-Dichlorophenyl)thio]acetic acid;[(2,5-Dichlorophenyl)thio]acetic acid;NSC 36971;(2,5-Dichlorophenylsulfanyl)acetic acid;2-[(2,5-Dichlorophenyl)sulfanyl]acetic acid;2-(2,5-Dichlorophenyl)sulfanylacetic acid",
    "duplicated_cas_no": "",
    "SMILES": "S(CC(O)=O)C1=C(Cl)C=CC(Cl)=C1",
    "meta_data": {
        "InChI": "InChI=1S/C8H6Cl2O2S/c9-5-1-2-6(10)7(3-5)13-4-8(11)12/h1-3H,4H2,(H,11,12)",
        "InChIKey": null,
        "Canonical SMILES": "O=C(O)CSC1=CC(Cl)=CC=C1Cl",
        "Molecular Formula": "C<sub>8</sub>H<sub>6</sub>Cl<sub>2</sub>O<sub>2</sub>S",
        "Molecular Mass": "237.10",
        "Melting Point": "130 °C"
    }
}