{
    "cas_no": "83-72-7",
    "key_name": "2-Hydroxy-1,4-naphthoquinone",
    "cn_name": "2-羟基-1,4-萘醌;",
    "alternate_name": "1,4-Naphthalenedione, 2-hydroxy-;1,4-Naphthoquinone, 2-hydroxy-;2-Hydroxy-1,4-naphthalenedione;C.I. 75480;C.I. Natural Orange 6;Flower of Paradise;Henna;Lawsone;Mehendi;Mendi;2-Hydroxy-1,4-naphthoquinone;2-Hydroxynaphthoquinone;Henna (dye);Q 0;Pakarli;NSC 8625;1,4-Dihydro-1,4-dioxo-2-hydroxynaphthalene;NSC 27285;NSC 52500;Quino Power LSN;Quinoexter 2014;Quinoexter QE 2014;2-Hydroxy-1,4-dihydronaphthalene-1,4-dione;Quino Power 20",
    "duplicated_cas_no": "1985594-94-2",
    "SMILES": "O=C1C=2C(C(=O)C=C1O)=CC=CC2",
    "meta_data": {
        "InChI": "InChI=1S/C10H6O3/c11-8-5-9(12)10(13)7-4-2-1-3-6(7)8/h1-5,12H",
        "InChIKey": null,
        "Canonical SMILES": "O=C1C=C(O)C(=O)C=2C=CC=CC12",
        "Molecular Formula": "C<sub>10</sub>H<sub>6</sub>O<sub>3</sub>",
        "Molecular Mass": "174.15",
        "Melting Point": "195.5 °C (decomp)"
    }
}