{
    "cas_no": "94-18-8",
    "key_name": "Benzyl 4-hydroxybenzoate",
    "cn_name": "对羟基苯甲酸苯甲酯;对羟基苯甲酸苄酯;",
    "alternate_name": "Benzoic acid, 4-hydroxy-, phenylmethyl ester;Benzoic acid, <em>p</em>-hydroxy-, benzyl ester;Benzylparaben;Benzyl Parasept;Benzyl Tegosept;<em>p</em>-Hydroxybenzoic acid benzyl ester;Nipabenzyl;Parosept;Solbrol Z;Benzyl 4-hydroxybenzoate;Benzyl <em>p</em>-hydroxybenzoate;4-(Benzyloxycarbonyl)phenol;POB-BZ;4-Hydroxybenzoic acid benzyl ester;NSC 8080;4-Hydroxybenzoic acid, phenylmethyl ester;Benzyl 4-hydroxylbenzoate",
    "duplicated_cas_no": "",
    "SMILES": "C(OCC1=CC=CC=C1)(=O)C2=CC=C(O)C=C2",
    "meta_data": {
        "InChI": "InChI=1S/C14H12O3/c15-13-8-6-12(7-9-13)14(16)17-10-11-4-2-1-3-5-11/h1-9,15H,10H2",
        "InChIKey": null,
        "Canonical SMILES": "O=C(OCC=1C=CC=CC1)C2=CC=C(O)C=C2",
        "Molecular Formula": "C<sub>14</sub>H<sub>12</sub>O<sub>3</sub>",
        "Molecular Mass": "228.24",
        "Melting Point": "111 °C"
    }
}