{
    "cas_no": "3141-27-3",
    "key_name": "2,5-Dibromothiophene",
    "cn_name": "2,5-二溴噻吩;",
    "alternate_name": "Thiophene, 2,5-dibromo-;2,5-Dibromothiophene;NSC 4488",
    "duplicated_cas_no": "",
    "SMILES": "BrC=1SC(Br)=CC1",
    "meta_data": {
        "InChI": "InChI=1S/C4H2Br2S/c5-3-1-2-4(6)7-3/h1-2H",
        "InChIKey": null,
        "Canonical SMILES": "BrC=1SC(Br)=CC1",
        "Molecular Formula": "C<sub>4</sub>H<sub>2</sub>Br<sub>2</sub>S",
        "Molecular Mass": "241.93",
        "Boiling Point": "210.3 °C",
        "Melting Point": "-6 °C",
        "Density": "2.148 g/cm³ @ Temp: 21 °C"
    }
}