{
    "cas_no": "15503-87-4",
    "key_name": "Usaramine",
    "cn_name": null,
    "alternate_name": "[1,6]Dioxacyclododecino[2,3,4-<em>gh</em>]pyrrolizine-2,7-dione, 3-ethylidene-3,4,5,6,9,11,13,14,14a,14b-decahydro-6-hydroxy-6-(hydroxymethyl)-5-methyl-, (3<em>E</em>,5<em>R</em>,6<em>S</em>,14a<em>R</em>,14b<em>R</em>)-;Usaramine;Senecionan-11,16-dione, 12,18-dihydroxy-, (15<em>E</em>)-;Mucronatine;(3<em>E</em>,5<em>R</em>,6<em>S</em>,14a<em>R</em>,14b<em>R</em>)-3-Ethylidene-3,4,5,6,9,11,13,14,14a,14b-decahydro-6-hydroxy-6-(hydroxymethyl)-5-methyl[1,6]dioxacyclododecino[2,3,4-<em>gh</em>]pyrrolizine-2,7-dione;<em>trans</em>-Retrorsine;(15<em>E</em>)-Retrorsine;Usaramin;(+)-Usaramine",
    "duplicated_cas_no": "1359-80-4;11024-92-3",
    "SMILES": "O=C\\1O[C@]2([C@]3(C(COC(=O)[C@](CO)(O)[C@H](C)C/C1=C\\C)=CCN3CC2)[H])[H]",
    "meta_data": {
        "InChI": "InChI=1S/C18H25NO6/c1-3-12-8-11(2)18(23,10-20)17(22)24-9-13-4-6-19-7-5-14(15(13)19)25-16(12)21/h3-4,11,14-15,20,23H,5-10H2,1-2H3/b12-3+/t11-,14-,15-,18-/m1/s1",
        "InChIKey": null,
        "Canonical SMILES": "O=C1OC2CCN3CC=C(COC(=O)C(O)(CO)C(C)CC1=CC)C32",
        "Molecular Formula": "C<sub>18</sub>H<sub>25</sub>NO<sub>6</sub>",
        "Molecular Mass": "351.39",
        "Melting Point": "178-180 °C"
    }
}