{
    "cas_no": "55-40-3",
    "key_name": "(±)-Methyldopa",
    "cn_name": "3,5-二氟苯甲酸;3,5-二氟苯甲酸,97%;",
    "alternate_name": "Tyrosine, 3-hydroxy-α-methyl-;Alanine, 3-(3,4-dihydroxyphenyl)-2-methyl-;3-Hydroxy-α-methyltyrosine;(±)-Methyldopa;Racemic α-methyldopa;<span class=\"text-smallcaps\">DL</span>-α-Methyl DOPA;(±)-α-Methyldopa;<span class=\"text-smallcaps\">DL</span>-Methyldopa;Metholes;Mulfasin;<span class=\"text-smallcaps\">DL</span>-2-Methyl-3-(3,4-dihydroxyphenyl)alanine;<span class=\"text-smallcaps\">DL</span>-α-Methyl-3-(3,4-dihydroxyphenyl)alanine;2-(3,4-Dihydroxybenzyl)-2-aminopropanoic acid;3-Hydroxy-α-methyl-<span class=\"text-smallcaps\">D</smallcap><smallcap>L</span>-tyrosine;2-Amino-3-(3,4-dihydroxyphenyl)-2-methylpropanoic acid;2-Azaniumyl-3-(3,4-dihydroxyphenyl)-2-methylpropanoate",
    "duplicated_cas_no": "555-29-3",
    "SMILES": "C(C(C(O)=O)(C)N)C1=CC(O)=C(O)C=C1",
    "meta_data": {
        "InChI": "InChI=1S/C10H13NO4/c1-10(11,9(14)15)5-6-2-3-7(12)8(13)4-6/h2-4,12-13H,5,11H2,1H3,(H,14,15)",
        "InChIKey": null,
        "Canonical SMILES": "O=C(O)C(N)(C)CC1=CC=C(O)C(O)=C1",
        "Molecular Formula": "C<sub>10</sub>H<sub>13</sub>NO<sub>4</sub>",
        "Molecular Mass": "211.21",
        "Melting Point": "299-300.5 °C (decomp)"
    }
}