{
    "cas_no": "7335-26-4",
    "key_name": "Ethyl 2-methoxybenzoate",
    "cn_name": "邻甲氧基苯甲酸乙酯;2-甲氧基苯甲酸乙酯;",
    "alternate_name": "Benzoic acid, 2-methoxy-, ethyl ester;<em>o</em>-Anisic acid, ethyl ester;Ethyl 2-methoxybenzoate;Ethyl <em>o</em>-methoxybenzoate;2-Methoxybenzoic acid ethyl ester",
    "duplicated_cas_no": "",
    "SMILES": "C(OCC)(=O)C1=C(OC)C=CC=C1",
    "meta_data": {
        "InChI": "InChI=1S/C10H12O3/c1-3-13-10(11)8-6-4-5-7-9(8)12-2/h4-7H,3H2,1-2H3",
        "InChIKey": null,
        "Canonical SMILES": "O=C(OCC)C=1C=CC=CC1OC",
        "Molecular Formula": "C<sub>10</sub>H<sub>12</sub>O<sub>3</sub>",
        "Molecular Mass": "180.20",
        "Boiling Point": "261 °C",
        "Density": "1.1124 g/cm³ @ Temp: 20 °C"
    }
}