{
    "cas_no": "98-28-2",
    "key_name": "4-<em>tert</em>-Butyl-2-chlorophenol",
    "cn_name": null,
    "alternate_name": "Phenol, 2-chloro-4-(1,1-dimethylethyl)-;Phenol, 4-<em>tert</em>-butyl-2-chloro-;2-Chloro-4-(1,1-dimethylethyl)phenol;4-<em>tert</em>-Butyl-2-chlorophenol;2-Chloro-4-<em>tert</em>-butylphenol;NSC 8464",
    "duplicated_cas_no": "",
    "SMILES": "C(C)(C)(C)C1=CC(Cl)=C(O)C=C1",
    "meta_data": {
        "InChI": "InChI=1S/C10H13ClO/c1-10(2,3)7-4-5-9(12)8(11)6-7/h4-6,12H,1-3H3",
        "InChIKey": null,
        "Canonical SMILES": "ClC1=CC(=CC=C1O)C(C)(C)C",
        "Molecular Formula": "C<sub>10</sub>H<sub>13</sub>ClO",
        "Molecular Mass": "184.66",
        "Boiling Point": "85-86 °C",
        "Density": "1.099 g/cm³ @ Temp: 20 °C"
    }
}