{
    "cas_no": "120-65-0",
    "key_name": "2-[(Dimethylamino)methyl]phenol",
    "cn_name": "2-二甲胺基甲基苯酚;",
    "alternate_name": "Phenol, 2-[(dimethylamino)methyl]-;<em>o</em>-Cresol, α-(dimethylamino)-;2-[(Dimethylamino)methyl]phenol;α-(Dimethylamino)-<em>o</em>-cresol;2-(Dimethylaminomethyl)phenol;<em>o</em>-(Dimethylaminomethyl)phenol;<em>N</em>,<em>N</em>-Dimethyl-2-hydroxybenzylamine;(2-Hydroxybenzyl)dimethylamine;<em>o</em>-Hydroxy-<em>N</em>,<em>N</em>-dimethylbenzylamine;OM 1;<em>N</em>,<em>N</em>-Dimethyl-<em>o</em>-hydroxybenzylamine;NSC 12220",
    "duplicated_cas_no": "",
    "SMILES": "C(N(C)C)C1=C(O)C=CC=C1",
    "meta_data": {
        "InChI": "InChI=1S/C9H13NO/c1-10(2)7-8-5-3-4-6-9(8)11/h3-6,11H,7H2,1-2H3",
        "InChIKey": null,
        "Canonical SMILES": "OC=1C=CC=CC1CN(C)C",
        "Molecular Formula": "C<sub>9</sub>H<sub>13</sub>NO",
        "Molecular Mass": "151.21",
        "Boiling Point": "99-100 °C @ Press: 12 Torr",
        "Density": "1.4431 g/cm³ @ Temp: 22 °C"
    }
}