{
    "cas_no": "503-40-2",
    "key_name": "Methanedisulfonic acid",
    "cn_name": "甲基二磺酸;甲二磺酸;亚甲基二磺酸;",
    "alternate_name": "Methanedisulfonic acid;Methylenedisulfonic acid;Methionic acid",
    "duplicated_cas_no": "",
    "SMILES": "C(S(=O)(=O)O)S(=O)(=O)O",
    "meta_data": {
        "InChI": "InChI=1S/CH4O6S2/c2-8(3,4)1-9(5,6)7/h1H2,(H,2,3,4)(H,5,6,7)",
        "InChIKey": null,
        "Canonical SMILES": "O=S(=O)(O)CS(=O)(=O)O",
        "Molecular Formula": "CH<sub>4</sub>O<sub>6</sub>S<sub>2</sub>",
        "Molecular Mass": "176.17",
        "Melting Point": "98 °C"
    }
}