{
    "cas_no": "580-17-6",
    "key_name": "3-Aminoquinoline",
    "cn_name": "3-氨基喹啉;",
    "alternate_name": "3-Quinolinamine;Quinoline, 3-amino-;3-Aminoquinoline;3-Quinolylamine;(Quinolin-3-yl)amine;NSC 7934;Quinolin-3-amine",
    "duplicated_cas_no": "",
    "SMILES": "NC1=CC2=C(N=C1)C=CC=C2",
    "meta_data": {
        "InChI": "InChI=1S/C9H8N2/c10-8-5-7-3-1-2-4-9(7)11-6-8/h1-6H,10H2",
        "InChIKey": null,
        "Canonical SMILES": "N=1C=C(N)C=C2C=CC=CC12",
        "Molecular Formula": "C<sub>9</sub>H<sub>8</sub>N<sub>2</sub>",
        "Molecular Mass": "144.17",
        "Boiling Point": "127-137 °C @ Press: 0.1 Torr",
        "Melting Point": "91.5 °C"
    }
}