{
    "cas_no": "147-81-9",
    "key_name": "Arabinose",
    "cn_name": "阿拉伯糖;DL-五碳糖;",
    "alternate_name": "Arabinose;<span class=\"text-smallcaps\">DL</span>-Arabinose;<em>dl</em>-Arabinose;(±)-Arabinose;MeSH ID: D001089",
    "duplicated_cas_no": "20235-19-2",
    "SMILES": "[C@@H]([C@@H](CO)O)([C@@H](C=O)O)O",
    "meta_data": {
        "InChI": "InChI=1/C5H10O5/c6-1-3(8)5(10)4(9)2-7/h1,3-5,7-10H,2H2/t3-,4-,5+/s2",
        "InChIKey": null,
        "Canonical SMILES": "O=CC(O)C(O)C(O)CO",
        "Molecular Formula": "C<sub>5</sub>H<sub>10</sub>O<sub>5</sub>",
        "Molecular Mass": "150.13",
        "Melting Point": "158.5 °C",
        "Density": "1.609 g/cm³ @ Temp: -5 °C"
    }
}