{
    "cas_no": "13597-19-8",
    "key_name": "Cerium vanadium oxide (CeVO<sub>4</sub>)",
    "cn_name": "钒酸铈;",
    "alternate_name": "Cerium vanadium oxide (CeVO<sub>4</sub>);Vanadic acid (H<sub>3</sub>VO<sub>4</sub>), cerium(3+) salt (1:1);Cerium vanadate(V) (CeVO<sub>4</sub>);Cerium vanadate (CeVO<sub>4</sub>);Cerium(3+) orthovanadate;Cerium orthovanadate (CeVO<sub>4</sub>)",
    "duplicated_cas_no": "",
    "SMILES": "[O].[V].[Ce]",
    "meta_data": {
        "InChI": "InChI=1S/Ce.O.V",
        "InChIKey": null,
        "Canonical SMILES": "[O].[V].[Ce]",
        "Molecular Formula": "Ce.O.V",
        "Molecular Mass": "",
        "Melting Point": "1100 °C"
    }
}