{
    "uri": "substance/pt/13597198",
    "rn": "13597-19-8",
    "name": "Cerium vanadium oxide (CeVO<sub>4</sub>)",
    "images": [],
    "inchi": "InChI=1S/Ce.O.V",
    "inchiKey": "InChIKey=SGSSLBZZRQBRIH-UHFFFAOYSA-N",
    "smile": "[O].[V].[Ce]",
    "canonicalSmile": "[O].[V].[Ce]",
    "molecularFormula": "Ce.O.V",
    "molecularMass": "",
    "experimentalProperties": [
        {
            "name": "Melting Point",
            "property": "1100 °C",
            "sourceNumber": 1
        }
    ],
    "propertyCitations": [
        {
            "docUri": "document/pt/document/37580361",
            "sourceNumber": 1,
            "source": "Machida, Masato; Chemical Communications (Cambridge, United Kingdom), (2011), 47(34), 9591-9593, CAplus"
        }
    ],
    "synonyms": [
        "Cerium vanadium oxide (CeVO<sub>4</sub>)",
        "Vanadic acid (H<sub>3</sub>VO<sub>4</sub>), cerium(3+) salt (1:1)",
        "Cerium vanadate(V) (CeVO<sub>4</sub>)",
        "Cerium vanadate (CeVO<sub>4</sub>)",
        "Cerium(3+) orthovanadate",
        "Cerium orthovanadate (CeVO<sub>4</sub>)"
    ],
    "replacedRns": [],
    "hasMolfile": true,
    "source": "https://commonchemistry.cas.org/detail?cas_rn=13597-19-8"
}