{
    "cas_no": "34265-58-2",
    "key_name": "Benzoic acid, 2-hydroxy-5-methyl-, ethyl ester",
    "cn_name": null,
    "alternate_name": "Benzoic acid, 2-hydroxy-5-methyl-, ethyl ester;2,5-Cresotic acid, ethyl ester;Ethyl 6-hydroxy-3-methylbenzoate;Ethyl 5-methylsalicylate;5-Methylsalicylic acid ethyl ester;Ethyl 2-hydroxy-5-methylbenzoate;2-Hydroxy-5-methylbenzoic acid ethyl ester",
    "duplicated_cas_no": "53812-43-4",
    "SMILES": "C(OCC)(=O)C1=C(O)C=CC(C)=C1",
    "meta_data": {
        "InChI": "InChI=1S/C10H12O3/c1-3-13-10(12)8-6-7(2)4-5-9(8)11/h4-6,11H,3H2,1-2H3",
        "InChIKey": null,
        "Canonical SMILES": "O=C(OCC)C1=CC(=CC=C1O)C",
        "Molecular Formula": "C<sub>10</sub>H<sub>12</sub>O<sub>3</sub>",
        "Molecular Mass": "180.20",
        "Boiling Point": "153-154 °C",
        "Melting Point": "2 °C"
    }
}