{
    "cas_no": "13494-06-9",
    "key_name": "3,4-Dimethyl-1,2-cyclopentanedione",
    "cn_name": "3,4-二甲基-1,2-环戊二酮;",
    "alternate_name": "1,2-Cyclopentanedione, 3,4-dimethyl-;3,4-Dimethyl-1,2-cyclopentanedione",
    "duplicated_cas_no": "825650-60-0",
    "SMILES": "CC1C(=O)C(=O)CC1C",
    "meta_data": {
        "InChI": "InChI=1S/C7H10O2/c1-4-3-6(8)7(9)5(4)2/h4-5H,3H2,1-2H3",
        "InChIKey": null,
        "Canonical SMILES": "O=C1C(=O)C(C)C(C)C1",
        "Molecular Formula": "C<sub>7</sub>H<sub>10</sub>O<sub>2</sub>",
        "Molecular Mass": "126.15",
        "Boiling Point": "66 °C @ Press: 1 Torr",
        "Melting Point": "71-72 °C"
    }
}