{
    "cas_no": "2486-80-8",
    "key_name": "4-Amino-2-methoxybenzoic acid",
    "cn_name": null,
    "alternate_name": "Benzoic acid, 4-amino-2-methoxy-;<em>o</em>-Anisic acid, 4-amino-;4-Amino-2-methoxybenzoic acid;2-Methoxy-4-aminobenzoic acid;NSC 208766",
    "duplicated_cas_no": "",
    "SMILES": "O(C)C1=C(C(O)=O)C=CC(N)=C1",
    "meta_data": {
        "InChI": "InChI=1S/C8H9NO3/c1-12-7-4-5(9)2-3-6(7)8(10)11/h2-4H,9H2,1H3,(H,10,11)",
        "InChIKey": null,
        "Canonical SMILES": "O=C(O)C1=CC=C(N)C=C1OC",
        "Molecular Formula": "C<sub>8</sub>H<sub>9</sub>NO<sub>3</sub>",
        "Molecular Mass": "167.16",
        "Melting Point": "217-218 °C"
    }
}