{
    "cas_no": "27104-73-0",
    "key_name": "Methyl 3-isoquinolinecarboxylate",
    "cn_name": null,
    "alternate_name": "3-Isoquinolinecarboxylic acid, methyl ester;Methyl 3-isoquinolinecarboxylate;3-(Methoxycarbonyl)isoquinoline",
    "duplicated_cas_no": "",
    "SMILES": "C(OC)(=O)C1=CC2=C(C=N1)C=CC=C2",
    "meta_data": {
        "InChI": "InChI=1S/C11H9NO2/c1-14-11(13)10-6-8-4-2-3-5-9(8)7-12-10/h2-7H,1H3",
        "InChIKey": null,
        "Canonical SMILES": "O=C(OC)C=1N=CC2=CC=CC=C2C1",
        "Molecular Formula": "C<sub>11</sub>H<sub>9</sub>NO<sub>2</sub>",
        "Molecular Mass": "187.19",
        "Melting Point": "88-89 °C"
    }
}