{
    "cas_no": "2955-37-5",
    "key_name": "7-Chloro-5-(2-chlorophenyl)-1,3-dihydro-2<em>H</em>-1,4-benzodiazepin-2-one-4-oxide",
    "cn_name": "7-氯-2-氧代-5-(2-氯苯基)-1,4-苯并二氮杂卓-4-氧化物;",
    "alternate_name": "2<em>H</em>-1,4-Benzodiazepin-2-one, 7-chloro-5-(2-chlorophenyl)-1,3-dihydro-, 4-oxide;2<em>H</em>-1,4-Benzodiazepin-2-one, 7-chloro-5-(<em>o</em>-chlorophenyl)-1,3-dihydro-, 4-oxide;7-Chloro-5-(2-chlorophenyl)-1,3-dihydro-2<em>H</em>-1,4-benzodiazepin-2-one-4-oxide",
    "duplicated_cas_no": "",
    "SMILES": "O=N1=C(C=2C(NC(=O)C1)=CC=C(Cl)C2)C3=C(Cl)C=CC=C3",
    "meta_data": {
        "InChI": "InChI=1S/C15H10Cl2N2O2/c16-9-5-6-13-11(7-9)15(19(21)8-14(20)18-13)10-3-1-2-4-12(10)17/h1-7H,8H2,(H,18,20)",
        "InChIKey": null,
        "Canonical SMILES": "O=C1NC=2C=CC(Cl)=CC2C(C=3C=CC=CC3Cl)=N(=O)C1",
        "Molecular Formula": "C<sub>15</sub>H<sub>10</sub>Cl<sub>2</sub>N<sub>2</sub>O<sub>2</sub>",
        "Molecular Mass": "321.16",
        "Melting Point": "248-249 °C"
    }
}