{
    "cas_no": "80-73-9",
    "key_name": "1,3-Dimethyl-2-imidazolidinone",
    "cn_name": "1,3-二甲基-2-咪唑啉酮;1,3-二甲基咪唑啉酮;",
    "alternate_name": "2-Imidazolidinone, 1,3-dimethyl-;1,3-Dimethyl-2-imidazolidinone;<em>N</em>,<em>N</em>′-Dimethylethyleneurea;<em>N</em>,<em>N</em>′-Dimethyl-2-imidazolidinone;Rhonite 1;1,3-Dimethylethyleneurea;<em>N</em>,<em>N</em>′-Dimethylimidazolidone;Karbomos TsEM;<em>N</em>,<em>N</em>′-Dimethylimidazolidinone;Dimethylimidazolidinone;1,3-Dimethyl-2-imidazolidone;DMEU;DMEU (solvent);<em>N</em>,<em>N</em>-Dimethylimidazolidinone;<em>N</em>,<em>N</em>-Dimethylethylenediamine cyclic urea;DMI;1,3-Dimethylimidazolidinone;<em>N</em>,<em>N</em>′-Dimethyl-<em>N</em>,<em>N</em>′-ethyleneurea;1,3-Dimethyl-2-imidazolidindione",
    "duplicated_cas_no": "95263-95-9",
    "SMILES": "O=C1N(C)CCN1C",
    "meta_data": {
        "InChI": "InChI=1S/C5H10N2O/c1-6-3-4-7(2)5(6)8/h3-4H2,1-2H3",
        "InChIKey": null,
        "Canonical SMILES": "O=C1N(C)CCN1C",
        "Molecular Formula": "C<sub>5</sub>H<sub>10</sub>N<sub>2</sub>O",
        "Molecular Mass": "114.15",
        "Boiling Point": "221 °C",
        "Melting Point": "8.2 °C",
        "Density": "1.04750 g/cm³ (liquid) @ Temp: 30.000 °C; Press: Atm pressure"
    }
}