{
    "cas_no": "583-93-7",
    "key_name": "Diaminopimelic acid",
    "cn_name": "2,6-二氨基庚二酸;二氨荃庚二酸;",
    "alternate_name": "Heptanedioic acid, 2,6-diamino-;2,6-Diaminoheptanedioic acid;α,ε-Diaminopimelic acid;2,6-Diaminopimelic acid;α,α′-Diaminopimelic acid;Diaminopimelic acid;NSC 45225;2,6-Bis(azaniumyl)heptanedioate;6: PN: CN114214436 PAGE: 3 claimed sequence;MeSH ID: D003960",
    "duplicated_cas_no": "22834-73-7;25057-41-4",
    "SMILES": "C(C(O)=O)(CCCC(C(O)=O)N)N",
    "meta_data": {
        "InChI": "InChI=1S/C7H14N2O4/c8-4(6(10)11)2-1-3-5(9)7(12)13/h4-5H,1-3,8-9H2,(H,10,11)(H,12,13)",
        "InChIKey": null,
        "Canonical SMILES": "O=C(O)C(N)CCCC(N)C(=O)O",
        "Molecular Formula": "C<sub>7</sub>H<sub>14</sub>N<sub>2</sub>O<sub>4</sub>",
        "Molecular Mass": "190.20",
        "Melting Point": "&gt;305 °C"
    }
}