{
    "cas_no": "119192-10-8",
    "key_name": "1-(4-Aminobenzyl)-1,2,4-triazole",
    "cn_name": "4-(1H-1,2,4-三氮唑-1-基甲基)苯胺;",
    "alternate_name": "Benzenamine, 4-(1<em>H</em>-1,2,4-triazol-1-ylmethyl)-;4-(1<em>H</em>-1,2,4-Triazol-1-ylmethyl)benzenamine;1-(4-Aminobenzyl)-1<em>H</em>-1,2,4-triazole;1-(4-Aminobenzyl)-1,2,4-triazole;4-(1<em>H</em>-1,2,4-Triazol-1-ylmethyl)aniline;[4-[([1,2,4]Triazol-1-yl)methyl]phenyl]amine;[4-[(1<em>H</em>-[1,2,4]Triazol-1-yl)methyl]phenyl]amine;4-[(1,2,4-Triazol-1-yl)methyl]aniline",
    "duplicated_cas_no": "",
    "SMILES": "C(C1=CC=C(N)C=C1)N2C=NC=N2",
    "meta_data": {
        "InChI": "InChI=1S/C9H10N4/c10-9-3-1-8(2-4-9)5-13-7-11-6-12-13/h1-4,6-7H,5,10H2",
        "InChIKey": null,
        "Canonical SMILES": "N=1C=NN(C1)CC2=CC=C(N)C=C2",
        "Molecular Formula": "C<sub>9</sub>H<sub>10</sub>N<sub>4</sub>",
        "Molecular Mass": "174.20",
        "Melting Point": "128-130 °C"
    }
}