{
    "cas_no": "103-34-4",
    "key_name": "DTDM",
    "cn_name": "促进剂DTDM;4,4\"-二硫代二吗啉;硫化剂DTDM;",
    "alternate_name": "Morpholine, 4,4′-dithiobis-;Morpholine, 4,4′-dithiodi-;4,4′-Dithiobis[morpholine];4,4′-Dithiodimorpholine;Morpholine disulfide;Sulfasan R;Sulfasan;<em>N</em>,<em>N</em>′-Dithiodimorpholine;<em>N</em>,<em>N</em>′-Bismorpholine disulfide;Bismorpholino disulfide;Accel R;Morpholinodisulfide;<em>N</em>,<em>N</em>′-Dimorpholinyl disulfide;Sanfel R;Vanax A;Bismorpholine disulfide;<em>N</em>,<em>N</em>′-Dithiobis[morpholine];Deovulc M;Di(4-morpholinyl) disulfide;Rhenocure M/G;Vulnoc R;Sulfasan DTDM;DTDM;Actor R;NSC 65239;Rhenocure M;Nocmaster R 80E;DTDM 80;Rhenogran DTDM 80;Sulphasan R;TT 106;Burnock R",
    "duplicated_cas_no": "39393-19-6;186983-49-3;1081512-50-6",
    "SMILES": "S(SN1CCOCC1)N2CCOCC2",
    "meta_data": {
        "InChI": "InChI=1S/C8H16N2O2S2/c1-5-11-6-2-9(1)13-14-10-3-7-12-8-4-10/h1-8H2",
        "InChIKey": null,
        "Canonical SMILES": "O1CCN(SSN2CCOCC2)CC1",
        "Molecular Formula": "C<sub>8</sub>H<sub>16</sub>N<sub>2</sub>O<sub>2</sub>S<sub>2</sub>",
        "Molecular Mass": "236.35",
        "Melting Point": "125 °C",
        "Density": "1.36 g/cm³ @ Temp: 25 °C"
    }
}