{
    "cas_no": "4685-14-7",
    "key_name": "Paraquat",
    "cn_name": "百草枯;1,1-二甲基-4,4\"-联吡啶阳离子;",
    "alternate_name": "4,4′-Bipyridinium, 1,1′-dimethyl-;1,1′-Dimethyl-4,4′-bipyridinium;1,1′-Dimethyl-4,4′-bipyridinium cation;Paraquat ion;Methyl viologen(2+);Paraquat dication;<em>N</em>,<em>N</em>′-Dimethyl-4,4′-bipyridinium dication;<em>N</em>,<em>N</em>′-Dimethyl-4,4′-bipyridinium;Dimethyl viologen;Spraytop-graze;Methyl viologen ion(2+);Methyl viologen dication;Paraquat;Starfire;1-Methyl-4-(1-methylpyridin-1-ium-4-yl)pyridin-1-ium;MeSH ID: D010269",
    "duplicated_cas_no": "116047-10-0",
    "SMILES": "C[N+]=1C=CC(=CC1)C=2C=C[N+](C)=CC2",
    "meta_data": {
        "InChI": "InChI=1S/C12H14N2/c1-13-7-3-11(4-8-13)12-5-9-14(2)10-6-12/h3-10H,1-2H3/q+2",
        "InChIKey": null,
        "Canonical SMILES": "C=1C=[N+](C=CC1C=2C=C[N+](=CC2)C)C",
        "Molecular Formula": "C<sub>12</sub>H<sub>14</sub>N<sub>2</sub>",
        "Molecular Mass": "",
        "Melting Point": "300 °C (decomp)",
        "Density": "1.24 g/cm³ @ Temp: 20 °C"
    }
}