{
    "cas_no": "638-32-4",
    "key_name": "Succinamic acid",
    "cn_name": null,
    "alternate_name": "Butanoic acid, 4-amino-4-oxo-;Succinamic acid;4-Amino-4-oxobutanoic acid;Propionic acid, 3-carbamoyl-;Succinic acid monoamide;NSC 78416;3-Carbamoylpropanoic acid",
    "duplicated_cas_no": "",
    "SMILES": "C(CC(O)=O)C(N)=O",
    "meta_data": {
        "InChI": "InChI=1S/C4H7NO3/c5-3(6)1-2-4(7)8/h1-2H2,(H2,5,6)(H,7,8)",
        "InChIKey": null,
        "Canonical SMILES": "O=C(O)CCC(=O)N",
        "Molecular Formula": "C<sub>4</sub>H<sub>7</sub>NO<sub>3</sub>",
        "Molecular Mass": "117.10",
        "Boiling Point": "170 °C @ Press: 2 Torr",
        "Melting Point": "207-208 °C"
    }
}