{
    "cas_no": "114247-09-5",
    "key_name": "(-)-Fluoxetine hydrochloride",
    "cn_name": "R-氟西汀;N-甲基-gamma-[4-(三氟甲基)-苯氧基]-苯丙胺;",
    "alternate_name": "Benzenepropanamine, <em>N</em>-methyl-γ-[4-(trifluoromethyl)phenoxy]-, hydrochloride (1:1), (γ<em>R</em>)-;Benzenepropanamine, <em>N</em>-methyl-γ-[4-(trifluoromethyl)phenoxy]-, hydrochloride, (<em>R</em>)-;Benzenepropanamine, <em>N</em>-methyl-γ-[4-(trifluoromethyl)phenoxy]-, hydrochloride, (γ<em>R</em>)-;(<em>R</em>)-(-)-Fluoxetine hydrochloride;(<em>R</em>)-Fluoxetine hydrochloride;(-)-Fluoxetine hydrochloride;(-)-(<em>R</em>)-Fluoxetine hydrochloride;(<em>R</em>)-<em>N</em>-Methyl-3-(4-trifluoromethylphenoxy)-3-phenylpropylamine hydrochloride",
    "duplicated_cas_no": "",
    "SMILES": "[C@@H](OC1=CC=C(C(F)(F)F)C=C1)(CCNC)C2=CC=CC=C2.Cl",
    "meta_data": {
        "InChI": "InChI=1S/C17H18F3NO.ClH/c1-21-12-11-16(13-5-3-2-4-6-13)22-15-9-7-14(8-10-15)17(18,19)20;/h2-10,16,21H,11-12H2,1H3;1H/t16-;/m1./s1",
        "InChIKey": null,
        "Canonical SMILES": "Cl.FC(F)(F)C1=CC=C(OC(C=2C=CC=CC2)CCNC)C=C1",
        "Molecular Formula": "C<sub>17</sub>H<sub>18</sub>F<sub>3</sub>NO.ClH",
        "Molecular Mass": "",
        "Melting Point": "140 °C"
    }
}