{
    "cas_no": "770-08-1",
    "key_name": "5-Ethylpicolinic acid",
    "cn_name": null,
    "alternate_name": "2-Pyridinecarboxylic acid, 5-ethyl-;Picolinic acid, 5-ethyl-;5-Ethyl-2-pyridinecarboxylic acid;5-Ethylpicolinic acid;5-Ethyl-2-picolinic acid",
    "duplicated_cas_no": "",
    "SMILES": "C(O)(=O)C1=CC=C(CC)C=N1",
    "meta_data": {
        "InChI": "InChI=1S/C8H9NO2/c1-2-6-3-4-7(8(10)11)9-5-6/h3-5H,2H2,1H3,(H,10,11)",
        "InChIKey": null,
        "Canonical SMILES": "O=C(O)C1=NC=C(C=C1)CC",
        "Molecular Formula": "C<sub>8</sub>H<sub>9</sub>NO<sub>2</sub>",
        "Molecular Mass": "151.16",
        "Melting Point": "110 °C"
    }
}