{
    "cas_no": "4818-59-1",
    "key_name": "5-(Aminosulfonyl)-2-chloro-4-[(2-furanylmethyl)amino]benzoic acid",
    "cn_name": null,
    "alternate_name": "Benzoic acid, 5-(aminosulfonyl)-2-chloro-4-[(2-furanylmethyl)amino]-;Benzoic acid, 2-chloro-4-(furfurylamino)-5-sulfamoyl-;5-(Aminosulfonyl)-2-chloro-4-[(2-furanylmethyl)amino]benzoic acid;Isolasix;Isofurosemide;H 20;2-Chloro-4-furfurylamino-5-sulfamoyl-benzoic acid;2-Chloro-4-furfurylamino-5-sulfamoylbenzoic acid",
    "duplicated_cas_no": "110280-09-6",
    "SMILES": "N(CC1=CC=CO1)C2=C(S(N)(=O)=O)C=C(C(O)=O)C(Cl)=C2",
    "meta_data": {
        "InChI": "InChI=1S/C12H11ClN2O5S/c13-9-5-10(15-6-7-2-1-3-20-7)11(21(14,18)19)4-8(9)12(16)17/h1-5,15H,6H2,(H,16,17)(H2,14,18,19)",
        "InChIKey": null,
        "Canonical SMILES": "O=C(O)C=1C=C(C(=CC1Cl)NCC=2OC=CC2)S(=O)(=O)N",
        "Molecular Formula": "C<sub>12</sub>H<sub>11</sub>ClN<sub>2</sub>O<sub>5</sub>S",
        "Molecular Mass": "330.74",
        "Melting Point": "201-202 °C (decomp)"
    }
}