{
    "cas_no": "2224-52-4",
    "key_name": "Alanine <em>N</em>-carboxyanhydride",
    "cn_name": "(S)-4-甲基唑烷-2,5-二酮;",
    "alternate_name": "2,5-Oxazolidinedione, 4-methyl-, (4<em>S</em>)-;2,5-Oxazolidinedione, 4-methyl-, <span class=\"text-smallcaps\">L</span>-;2,5-Oxazolidinedione, 4-methyl-, (<em>S</em>)-;(4<em>S</em>)-4-Methyl-2,5-oxazolidinedione;<em>N</em>-Carboxyalanine anhydride;Alanine <em>N</em>-carboxyanhydride;<em>N</em>-Carboxy-<span class=\"text-smallcaps\">L</span>-alanine anhydride;<em>N</em>-Carboxy-<span class=\"text-smallcaps\">L</span>-alanine <em>N</em>-carboxy anhydride;<span class=\"text-smallcaps\">L</span>-4-Methyl-2,5-oxazolidinedione;<span class=\"text-smallcaps\">L</span>-Alanine <em>N</em>-carboxyanhydride;(<em>S</em>)-4-Methyl-2,5-oxazolidinedione;(4<em>S</em>)-4-Methyl-1,3-oxazolidine-2,5-dione;<span class=\"text-smallcaps\">L</span>-Alanine-<em>N</em>-carboxyl anhydride",
    "duplicated_cas_no": "",
    "SMILES": "CC1C(=O)OC(=O)N1",
    "meta_data": {
        "InChI": "InChI=1S/C4H5NO3/c1-2-3(6)8-4(7)5-2/h2H,1H3,(H,5,7)",
        "InChIKey": null,
        "Canonical SMILES": "O=C1OC(=O)C(N1)C",
        "Molecular Formula": "C<sub>4</sub>H<sub>5</sub>NO<sub>3</sub>",
        "Molecular Mass": "115.09",
        "Melting Point": "90-92 °C"
    }
}