{
    "cas_no": "137252-25-6",
    "key_name": "3-Hydroxy-2-[(1<em>R</em>,6<em>R</em>)-3-methyl-6-(1-methylethenyl)-2-cyclohexen-1-yl]-5-pentyl-2,5-cyclohexadiene-1,4-dione",
    "cn_name": null,
    "alternate_name": "2,5-Cyclohexadiene-1,4-dione, 3-hydroxy-2-[(1<em>R</em>,6<em>R</em>)-3-methyl-6-(1-methylethenyl)-2-cyclohexen-1-yl]-5-pentyl-;2,5-Cyclohexadiene-1,4-dione, 3-hydroxy-2-[3-methyl-6-(1-methylethenyl)-2-cyclohexen-1-yl]-5-pentyl-, (1<em>R</em>-<em>trans</em>)-;3-Hydroxy-2-[(1<em>R</em>,6<em>R</em>)-3-methyl-6-(1-methylethenyl)-2-cyclohexen-1-yl]-5-pentyl-2,5-cyclohexadiene-1,4-dione;HU 331;VCE 004",
    "duplicated_cas_no": "",
    "SMILES": "C(C)(=C)[C@H]1[C@@H](C=C(C)CC1)C2=C(O)C(=O)C(CCCCC)=CC2=O",
    "meta_data": {
        "InChI": "InChI=1S/C21H28O3/c1-5-6-7-8-15-12-18(22)19(21(24)20(15)23)17-11-14(4)9-10-16(17)13(2)3/h11-12,16-17,24H,2,5-10H2,1,3-4H3/t16-,17+/m0/s1",
        "InChIKey": null,
        "Canonical SMILES": "O=C1C=C(C(=O)C(O)=C1C2C=C(C)CCC2C(=C)C)CCCCC",
        "Molecular Formula": "C<sub>21</sub>H<sub>28</sub>O<sub>3</sub>",
        "Molecular Mass": "328.45",
        "Melting Point": "50-51 °C"
    }
}