{
    "cas_no": "56536-96-0",
    "key_name": "1-Cyano-1,2,3,4-tetrahydronaphthalene",
    "cn_name": "1-氰基四氢化萘;alpha-氰基四氢化萘;",
    "alternate_name": "1-Naphthalenecarbonitrile, 1,2,3,4-tetrahydro-;1-Naphthonitrile, 1,2,3,4-tetrahydro-;1,2,3,4-Tetrahydro-1-naphthalenecarbonitrile;1-Cyano-1,2,3,4-tetrahydronaphthalene;1-Cyanotetralin",
    "duplicated_cas_no": "132205-64-2",
    "SMILES": "C(#N)C1C=2C(CCC1)=CC=CC2",
    "meta_data": {
        "InChI": "InChI=1S/C11H11N/c12-8-10-6-3-5-9-4-1-2-7-11(9)10/h1-2,4,7,10H,3,5-6H2",
        "InChIKey": null,
        "Canonical SMILES": "N#CC1C=2C=CC=CC2CCC1",
        "Molecular Formula": "C<sub>11</sub>H<sub>11</sub>N",
        "Molecular Mass": "157.21",
        "Boiling Point": "142 °C @ Press: 8 Torr",
        "Melting Point": "48-50 °C"
    }
}