{
    "cas_no": "122775-35-3",
    "key_name": "3,4-Dimethoxyphenylboronic acid",
    "cn_name": "3,4-二甲氧基苯硼酸;",
    "alternate_name": "Boronic acid, <em>B</em>-(3,4-dimethoxyphenyl)-;Boronic acid, (3,4-dimethoxyphenyl)-;<em>B</em>-(3,4-Dimethoxyphenyl)boronic acid;3,4-Dimethoxyphenylboronic acid;3,4-Dimethoxybenzeneboronic acid",
    "duplicated_cas_no": "",
    "SMILES": "O(C)C1=C(OC)C=CC(B(O)O)=C1",
    "meta_data": {
        "InChI": "InChI=1S/C8H11BO4/c1-12-7-4-3-6(9(10)11)5-8(7)13-2/h3-5,10-11H,1-2H3",
        "InChIKey": null,
        "Canonical SMILES": "OB(O)C1=CC=C(OC)C(OC)=C1",
        "Molecular Formula": "C<sub>8</sub>H<sub>11</sub>BO<sub>4</sub>",
        "Molecular Mass": "181.98",
        "Melting Point": "&gt;220 °C"
    }
}