{
    "cas_no": "108-03-2",
    "key_name": "1-Nitropropane",
    "cn_name": "1-硝基丙烷;",
    "alternate_name": "Propane, 1-nitro-;1-Nitropropane;NSC 6363",
    "duplicated_cas_no": "104306-52-7",
    "SMILES": "C(N(=O)=O)CC",
    "meta_data": {
        "InChI": "InChI=1S/C3H7NO2/c1-2-3-4(5)6/h2-3H2,1H3",
        "InChIKey": null,
        "Canonical SMILES": "O=N(=O)CCC",
        "Molecular Formula": "C<sub>3</sub>H<sub>7</sub>NO<sub>2</sub>",
        "Molecular Mass": "89.09",
        "Boiling Point": "131.6 °C @ Press: 760 Torr",
        "Melting Point": "-108 °C",
        "Density": "0.9934 g/cm³ @ Temp: 25 °C"
    }
}