{
    "cas_no": "3177-80-8",
    "key_name": "2-Amino-3-methoxybenzoic acid",
    "cn_name": "2-氨基-3-甲氧基苯甲酸;",
    "alternate_name": "Benzoic acid, 2-amino-3-methoxy-;<em>m</em>-Anisic acid, 2-amino-;2-Amino-3-methoxybenzoic acid;3-Methoxyanthranilic acid;3-Methoxy-2-aminobenzoic acid;NSC 81443;2-Amino-3-(methyloxy)benzoic acid",
    "duplicated_cas_no": "",
    "SMILES": "C(O)(=O)C1=C(N)C(OC)=CC=C1",
    "meta_data": {
        "InChI": "InChI=1S/C8H9NO3/c1-12-6-4-2-3-5(7(6)9)8(10)11/h2-4H,9H2,1H3,(H,10,11)",
        "InChIKey": null,
        "Canonical SMILES": "O=C(O)C=1C=CC=C(OC)C1N",
        "Molecular Formula": "C<sub>8</sub>H<sub>9</sub>NO<sub>3</sub>",
        "Molecular Mass": "167.16",
        "Melting Point": "169-170 °C"
    }
}