{
    "cas_no": "9003-33-2",
    "key_name": "Ethene, 1,1′-[methylenebis(oxy)]bis-, homopolymer",
    "cn_name": "PVF;PVFO;聚乙烯醇缩甲醛;",
    "alternate_name": "Ethene, 1,1′-[methylenebis(oxy)]bis-, homopolymer;Methane, bis(vinyloxy)-, polymers;Poly(divinyl formal)",
    "duplicated_cas_no": "",
    "SMILES": "C(OC=C)OC=C",
    "meta_data": {
        "InChI": "InChI=1S/C5H8O2/c1-3-6-5-7-4-2/h3-4H,1-2,5H2",
        "InChIKey": null,
        "Canonical SMILES": "O(C=C)COC=C",
        "Molecular Formula": "(C<sub>5</sub>H<sub>8</sub>O<sub>2</sub>)<sub>x</sub>",
        "Molecular Mass": "",
        "Melting Point": "85-120 °C"
    }
}