{
    "cas_no": "23451-01-6",
    "key_name": "Physcion 8-<em>O</em>-β-<span class=\"text-smallcaps\">D</span>-glucopyranoside",
    "cn_name": null,
    "alternate_name": "9,10-Anthracenedione, 1-(β-<span class=\"text-smallcaps\">D</span>-glucopyranosyloxy)-8-hydroxy-3-methoxy-6-methyl-;Glucopyranoside, 8-hydroxy-3-methoxy-6-methyl-1-anthraquinonyl, β-<span class=\"text-smallcaps\">D</span>-;1-(β-<span class=\"text-smallcaps\">D</span>-Glucopyranosyloxy)-8-hydroxy-3-methoxy-6-methyl-9,10-anthracenedione;Physcion 8-β-<span class=\"text-smallcaps\">D</span>-glucopyranoside;Physcion 8-<em>O</em>-β-<span class=\"text-smallcaps\">D</span>-glucoside;Anthraglycoside A;Physcion-8-β-<span class=\"text-smallcaps\">D</span>-monoglucoside;Physcion 8-<em>O</em>-β-<span class=\"text-smallcaps\">D</span>-glucopyranoside",
    "duplicated_cas_no": "",
    "SMILES": "O(C1=C2C(C(=O)C=3C(C2=O)=C(O)C=C(C)C3)=CC(OC)=C1)[C@@H]4O[C@H](CO)[C@@H](O)[C@H](O)[C@H]4O",
    "meta_data": {
        "InChI": "InChI=1S/C22H22O10/c1-8-3-10-15(12(24)4-8)19(27)16-11(17(10)25)5-9(30-2)6-13(16)31-22-21(29)20(28)18(26)14(7-23)32-22/h3-6,14,18,20-24,26,28-29H,7H2,1-2H3/t14-,18-,20+,21-,22-/m1/s1",
        "InChIKey": null,
        "Canonical SMILES": "O=C1C=2C=C(OC)C=C(OC3OC(CO)C(O)C(O)C3O)C2C(=O)C4=C(O)C=C(C=C14)C",
        "Molecular Formula": "C<sub>22</sub>H<sub>22</sub>O<sub>10</sub>",
        "Molecular Mass": "446.40",
        "Melting Point": "235 °C"
    }
}