{
    "cas_no": "65039-09-0",
    "key_name": "1-Ethyl-3-methylimidazolium chloride",
    "cn_name": "氯化1-乙基-3-甲基咪唑鎓;1-乙基-3-甲基咪唑盐酸盐;",
    "alternate_name": "1<em>H</em>-Imidazolium, 3-ethyl-1-methyl-, chloride (1:1);1<em>H</em>-Imidazolium, 1-ethyl-3-methyl-, chloride;1-Methyl-3-ethylimidazolium chloride;1-Ethyl-3-methylimidazolium chloride;3-Ethyl-1-methylimidazolium chloride;1-Methyl-3-ethylimidazolinium chloride;1-Ethyl-3-methyl-1<em>H</em>-imidazolium chloride;<em>N</em>-Methyl-<em>N</em>′-ethylimidazolium chloride;EMZ-C 1;EMIMCl;Basionics ST 80;[C<sub>2</sub>Mim<sup>+</sup>][Cl<sup>-</sup>];IoLiLyt 0093;1-Ethyl-3-methyl-1<em>H</em>-imidazol-3-ium chloride",
    "duplicated_cas_no": "140611-60-5",
    "SMILES": "C(C)[N+]1=CN(C)C=C1.[Cl-]",
    "meta_data": {
        "InChI": "InChI=1S/C6H11N2.ClH/c1-3-8-5-4-7(2)6-8;/h4-6H,3H2,1-2H3;1H/q+1;/p-1",
        "InChIKey": null,
        "Canonical SMILES": "[Cl-].C1=C[N+](=CN1C)CC",
        "Molecular Formula": "C<sub>6</sub>H<sub>11</sub>N<sub>2</sub>.Cl",
        "Molecular Mass": "",
        "Melting Point": "87 °C",
        "Density": "1.435 g/cm³"
    }
}