{
    "cas_no": "13036-02-7",
    "key_name": "Dimethyl 5-hydroxyisophthalate",
    "cn_name": "5-羟基间苯二甲酸二甲酯;",
    "alternate_name": "1,3-Benzenedicarboxylic acid, 5-hydroxy-, 1,3-dimethyl ester;Isophthalic acid, 5-hydroxy-, dimethyl ester;1,3-Benzenedicarboxylic acid, 5-hydroxy-, dimethyl ester;5-Hydroxyisophthalic acid dimethyl ester;Dimethyl 5-hydroxyisophthalate;1-Hydroxy-3,5-bis(methoxycarbonyl)benzene;3,5-Bis(methoxycarbonyl)phenol;Dimethyl 5-hydroxy-1,3-benzenedicarboxylate;1,3-Dimethyl 5-hydroxybenzene-1,3-dicarboxylate",
    "duplicated_cas_no": "",
    "SMILES": "C(OC)(=O)C1=CC(C(OC)=O)=CC(O)=C1",
    "meta_data": {
        "InChI": "InChI=1S/C10H10O5/c1-14-9(12)6-3-7(10(13)15-2)5-8(11)4-6/h3-5,11H,1-2H3",
        "InChIKey": null,
        "Canonical SMILES": "O=C(OC)C1=CC(O)=CC(=C1)C(=O)OC",
        "Molecular Formula": "C<sub>10</sub>H<sub>10</sub>O<sub>5</sub>",
        "Molecular Mass": "210.18",
        "Melting Point": "163-165 °C"
    }
}