{
    "cas_no": "24279-39-8",
    "key_name": "2,6-Dichloro-4-trifluoromethylaniline",
    "cn_name": "2,6-二氯-4-三氟甲基苯胺;",
    "alternate_name": "Benzenamine, 2,6-dichloro-4-(trifluoromethyl)-;<em>p</em>-Toluidine, 2,6-dichloro-α,α,α-trifluoro-;2,6-Dichloro-4-(trifluoromethyl)benzenamine;2,6-Dichloro-4-trifluoromethylaniline;4-Amino-3,5-dichlorobenzotrifluoride",
    "duplicated_cas_no": "",
    "SMILES": "C(F)(F)(F)C1=CC(Cl)=C(N)C(Cl)=C1",
    "meta_data": {
        "InChI": "InChI=1S/C7H4Cl2F3N/c8-4-1-3(7(10,11)12)2-5(9)6(4)13/h1-2H,13H2",
        "InChIKey": null,
        "Canonical SMILES": "FC(F)(F)C1=CC(Cl)=C(N)C(Cl)=C1",
        "Molecular Formula": "C<sub>7</sub>H<sub>4</sub>Cl<sub>2</sub>F<sub>3</sub>N",
        "Molecular Mass": "230.01",
        "Boiling Point": "88-89 °C @ Press: 3 Torr",
        "Melting Point": "32-35 °C"
    }
}