{
    "cas_no": "490-98-2",
    "key_name": "Hydroxytetracaine",
    "cn_name": "羟丁卡因;",
    "alternate_name": "Benzoic acid, 4-(butylamino)-2-hydroxy-, 2-(dimethylamino)ethyl ester;Salicylic acid, 4-(butylamino)-, 2-(dimethylamino)ethyl ester;2-Dimethylaminoethyl 4-butylaminosalicylate;Hydroxytetracaine;Salicaine (anesthetic);Salicaine;Salicain;Oxypantocain;Rhenocain;Hydroxamethocaine;2-(Dimethylamino)ethyl 4-(butylamino)-2-hydroxybenzoate",
    "duplicated_cas_no": "",
    "SMILES": "C(OCCN(C)C)(=O)C1=C(O)C=C(NCCCC)C=C1",
    "meta_data": {
        "InChI": "InChI=1S/C15H24N2O3/c1-4-5-8-16-12-6-7-13(14(18)11-12)15(19)20-10-9-17(2)3/h6-7,11,16,18H,4-5,8-10H2,1-3H3",
        "InChIKey": null,
        "Canonical SMILES": "O=C(OCCN(C)C)C1=CC=C(C=C1O)NCCCC",
        "Molecular Formula": "C<sub>15</sub>H<sub>24</sub>N<sub>2</sub>O<sub>3</sub>",
        "Molecular Mass": "280.36",
        "Melting Point": "156 °C"
    }
}