{
    "cas_no": "32462-30-9",
    "key_name": "Oxfenicine",
    "cn_name": "L-(+)-对羟基苯甘氨酸;",
    "alternate_name": "Benzeneacetic acid, α-amino-4-hydroxy-, (α<em>S</em>)-;Benzeneacetic acid, α-amino-4-hydroxy-, (<em>S</em>)-;Glycine, 2-(<em>p</em>-hydroxyphenyl)-, <span class=\"text-smallcaps\">L</span>-;(α<em>S</em>)-α-Amino-4-hydroxybenzeneacetic acid;<span class=\"text-smallcaps\">L</span>-(+)-2-(4-Hydroxyphenyl)glycine;<span class=\"text-smallcaps\">L</span>-(<em>p</em>-Hydroxyphenyl)glycine;<span class=\"text-smallcaps\">L</span>-(+)-(<em>p</em>-Hydroxyphenyl)glycine;<span class=\"text-smallcaps\">L</span>-α-Amino-<em>p</em>-hydroxyphenylacetic acid;<em>p</em>-Hydroxy-<span class=\"text-smallcaps\">L</span>-phenylglycine;Oxfenicine;UK 25842;<span class=\"text-smallcaps\">L</span>-(4-Hydroxyphenyl)glycine;<span class=\"text-smallcaps\">L</span>-2-(<em>p</em>-Hydroxyphenyl)glycine;(<em>S</em>)-(4-Hydroxyphenyl)glycine;<span class=\"text-smallcaps\">L</span>-(+)-4-Hydroxyphenylglycine;(<em>S</em>)-2-(4-Hydroxyphenyl)glycine;(<em>S</em>)-2-Amino-2-(4-hydroxyphenyl)acetic acid;(2S)-2-Amino-2-(4-hydroxyphenyl)acetic acid;4-Hydroxy-<span class=\"text-smallcaps\">L</span>-phenylglycine",
    "duplicated_cas_no": "",
    "SMILES": "[C@H](C(O)=O)(N)C1=CC=C(O)C=C1",
    "meta_data": {
        "InChI": "InChI=1S/C8H9NO3/c9-7(8(11)12)5-1-3-6(10)4-2-5/h1-4,7,10H,9H2,(H,11,12)/t7-/m0/s1",
        "InChIKey": null,
        "Canonical SMILES": "O=C(O)C(N)C1=CC=C(O)C=C1",
        "Molecular Formula": "C<sub>8</sub>H<sub>9</sub>NO<sub>3</sub>",
        "Molecular Mass": "167.16",
        "Melting Point": "212-214 °C"
    }
}