{
    "cas_no": "1668-19-5",
    "key_name": "Doxepin",
    "cn_name": null,
    "alternate_name": "1-Propanamine, 3-dibenz[<em>b</em>,<em>e</em>]oxepin-11(6<em>H</em>)-ylidene-<em>N</em>,<em>N</em>-dimethyl-;Dibenz[<em>b</em>,<em>e</em>]oxepin-Δ<sup>11(6</sup><em><sup>H</sup></em><sup>),γ</sup>-propylamine, <em>N</em>,<em>N</em>-dimethyl-;Dibenz[<em>b</em>,<em>e</em>]oxepin, 1-propanamine deriv.;3-Dibenz[<em>b</em>,<em>e</em>]oxepin-11(6<em>H</em>)-ylidene-<em>N</em>,<em>N</em>-dimethyl-1-propanamine;<em>N</em>,<em>N</em>-Dimethyldibenz[<em>b</em>,<em>e</em>]oxepin-Δ<sup>11(6</sup><em><sup>H</sup></em><sup>),γ</sup>-propylamine;Doxepin;Doxepine;11-[3-(Dimethylamino)propylidene]-6<em>H</em>-dibenz[<em>b</em>,<em>e</em>]oxepin;NSC 108160;MeSH ID: D004316",
    "duplicated_cas_no": "20917-31-1",
    "SMILES": "C(CCN(C)C)=C1C=2C(COC=3C1=CC=CC3)=CC=CC2",
    "meta_data": {
        "InChI": "InChI=1S/C19H21NO/c1-20(2)13-7-11-17-16-9-4-3-8-15(16)14-21-19-12-6-5-10-18(17)19/h3-6,8-12H,7,13-14H2,1-2H3",
        "InChIKey": null,
        "Canonical SMILES": "O1C=2C=CC=CC2C(=CCCN(C)C)C=3C=CC=CC3C1",
        "Molecular Formula": "C<sub>19</sub>H<sub>21</sub>NO",
        "Molecular Mass": "279.38",
        "Boiling Point": "154-157 °C @ Press: 0.03 Torr",
        "Melting Point": "&lt;25 °C"
    }
}