{
    "cas_no": "1124-11-4",
    "key_name": "Tetramethylpyrazine",
    "cn_name": "2,3,5,6-四甲基吡嗪;",
    "alternate_name": "Pyrazine, 2,3,5,6-tetramethyl-;Pyrazine, tetramethyl-;2,3,5,6-Tetramethylpyrazine;Tetramethylpyrazine;BS factor;Ligustrazine;Tetrapyrazine;Chuanxingzine;Ligustrazin;NSC 36080;NSC 46451",
    "duplicated_cas_no": "87396-75-6;93615-56-6",
    "SMILES": "CC=1C(C)=NC(C)=C(C)N1",
    "meta_data": {
        "InChI": "InChI=1S/C8H12N2/c1-5-6(2)10-8(4)7(3)9-5/h1-4H3",
        "InChIKey": null,
        "Canonical SMILES": "N=1C(=C(N=C(C1C)C)C)C",
        "Molecular Formula": "C<sub>8</sub>H<sub>12</sub>N<sub>2</sub>",
        "Molecular Mass": "136.19",
        "Boiling Point": "190 °C",
        "Melting Point": "84-86 °C"
    }
}