{
    "cas_no": "3278-31-7",
    "key_name": "1,4-Phenylenebismaleimide",
    "cn_name": "N,N-(1,4-亚苯基)双马来酰亚胺;N,N-(对次苯基)二顺丁烯二醯亚胺;",
    "alternate_name": "1<em>H</em>-Pyrrole-2,5-dione, 1,1′-(1,4-phenylene)bis-;Maleimide, <em>N</em>,<em>N</em>′-<em>p</em>-phenylenedi-;1,1′-(1,4-Phenylene)bis[1<em>H</em>-pyrrole-2,5-dione];<em>N</em>,<em>N</em>′-<em>p</em>-Phenylenebis(maleimide);1,4-Dimaleimidobenzene;<em>N</em>,<em>N</em>′-1,4-Phenylenedimaleimide;4,4′-Phenylenedimaleimide;<em>N</em>,<em>N</em>′-<em>p</em>-Phenylenedimaleimide;1,4-Bismaleimidobenzene;<em>p</em>-Phenylene dimaleimide;<em>p</em>-<em>N</em>,<em>N</em>′-Phenylenebismaleimide;1,4-Phenylenebismaleimide;NSC 81257;<em>N</em>,<em>N</em>′-1,4-Phenylenebismaleimide;1-[4-(2,5-Dioxo-2,5-dihydro-1<em>H</em>-pyrrol-1-yl)phenyl]-2,5-dihydro-1<em>H</em>-pyrrole-2,5-dione;1-[4-(2,5-Dioxopyrrol-1-yl)phenyl]pyrrole-2,5-dione",
    "duplicated_cas_no": "",
    "SMILES": "O=C1N(C(=O)C=C1)C2=CC=C(C=C2)N3C(=O)C=CC3=O",
    "meta_data": {
        "InChI": "InChI=1S/C14H8N2O4/c17-11-5-6-12(18)15(11)9-1-2-10(4-3-9)16-13(19)7-8-14(16)20/h1-8H",
        "InChIKey": null,
        "Canonical SMILES": "O=C1C=CC(=O)N1C2=CC=C(C=C2)N3C(=O)C=CC3=O",
        "Molecular Formula": "C<sub>14</sub>H<sub>8</sub>N<sub>2</sub>O<sub>4</sub>",
        "Molecular Mass": "268.22",
        "Melting Point": "300 °C"
    }
}