{
    "cas_no": "152-18-1",
    "key_name": "<em>O</em>,<em>O</em>,<em>O</em>-Trimethyl phosphorothioate",
    "cn_name": "O,O,O-三甲基巯基磷酸酯;O,O,O-三甲基巯基磷酸酯;硫代磷酸三甲酯;三甲基巯基磷酸酯;",
    "alternate_name": "Phosphorothioic acid, <em>O</em>,<em>O</em>,<em>O</em>-trimethyl ester;SD 4741;7900-HC;HC 7900;<em>O</em>,<em>O</em>,<em>O</em>-Trimethyl phosphorothioate;<em>O</em>,<em>O</em>,<em>O</em>-Trimethyl thiophosphate;Methyl phosphorothioate ((MeO)<sub>3</sub>PS);Trimethoxyphosphine sulfide;Trimethyl thionophosphate;<em>O</em>,<em>O</em>,<em>O</em>-Trimethyl phosphorothionate",
    "duplicated_cas_no": "",
    "SMILES": "P(OC)(OC)(OC)=S",
    "meta_data": {
        "InChI": "InChI=1S/C3H9O3PS/c1-4-7(8,5-2)6-3/h1-3H3",
        "InChIKey": null,
        "Canonical SMILES": "S=P(OC)(OC)OC",
        "Molecular Formula": "C<sub>3</sub>H<sub>9</sub>O<sub>3</sub>PS",
        "Molecular Mass": "156.14",
        "Boiling Point": "82 °C @ Press: 20 Torr",
        "Melting Point": "&gt;116 °C (decomp)",
        "Density": "1.2192 g/cm³ @ Temp: 0 °C"
    }
}