{
    "cas_no": "1457-85-8",
    "key_name": "Ethyl oxanilate",
    "cn_name": "草酸乙酯;",
    "alternate_name": "Acetic acid, 2-oxo-2-(phenylamino)-, ethyl ester;Oxanilic acid, ethyl ester;Acetic acid, oxo(phenylamino)-, ethyl ester;Ethoxydicarbonylaminobenzene;Ethyl <em>N</em>-phenyloxalamate;<em>N</em>-Phenylethoxalamide;Ethyl <em>N</em>-phenyloxamate;Ethyl oxanilate;Ethyl phenyloxamate;NSC 5606;<em>N</em>-Phenyloxamic acid ethyl ester;Ethyl 2-(anilino)-2-oxoacetate;<em>N</em>-Phenyloxalamic acid ethyl ester",
    "duplicated_cas_no": "",
    "SMILES": "N(C(C(OCC)=O)=O)C1=CC=CC=C1",
    "meta_data": {
        "InChI": "InChI=1S/C10H11NO3/c1-2-14-10(13)9(12)11-8-6-4-3-5-7-8/h3-7H,2H2,1H3,(H,11,12)",
        "InChIKey": null,
        "Canonical SMILES": "O=C(OCC)C(=O)NC=1C=CC=CC1",
        "Molecular Formula": "C<sub>10</sub>H<sub>11</sub>NO<sub>3</sub>",
        "Molecular Mass": "193.20",
        "Boiling Point": "280 °C",
        "Melting Point": "65.5 °C"
    }
}