{
    "cas_no": "28984-20-5",
    "key_name": "(<em>SP</em>-4-1)-Bis[1,2-diphenyl-1,2-ethenedithiolato(2-)-κ<em>S</em><sup>1</sup>,κ<em>S</em><sup>2</sup>]nickel",
    "cn_name": "(SP-4-1)-双[1,2-二苯基-1,2-乙烯二硫醇根合(2-)-&kappa;S,&kappa;S\"]镍;",
    "alternate_name": "Nickel, bis[1,2-diphenyl-1,2-ethenedithiolato(2-)-κ<em>S</em><sup>1</sup>,κ<em>S</em><sup>2</sup>]-, (<em>SP</em>-4-1)-;Nickel, bis[α,α′-stilbenedithiolato(2-)]-;Nickel, bis[1,2-diphenyl-1,2-ethenedithiolato(2-)-<em>S</em>,<em>S</em>′]-, (<em>SP</em>-4-1)-;Nickel, bis[1,2-diphenyl-1,2-ethenedithiolato(2-)-κ<em>S</em>,κ<em>S</em>′]-, (<em>SP</em>-4-1)-;1,2-Ethenedithiol, 1,2-diphenyl-, nickel complex;(<em>SP</em>-4-1)-Bis[1,2-diphenyl-1,2-ethenedithiolato(2-)-κ<em>S</em><sup>1</sup>,κ<em>S</em><sup>2</sup>]nickel;Dithiobenzilnickel(II);Bis(1,2-diphenylethane-1,2-dithiolato(2-)]nickel;Bis(stilbene-1,2-dithiolato)nickel;NKX 113;Bis(1,2-diphenyl-1,2-ethylenedithiolato)nickel;Bis(1,2-diphenylethylenedithiolato)nickel;MIR 101;Bis(dithiobenzil)nickel;Bis(dithiobenzil)nickel(II);Bis(1,2-diphenylethene-1,2-dithiolato)nickel;Bis(diphenylethenedithiolato)nickel;B 1350",
    "duplicated_cas_no": "12124-61-7;14263-97-9;15665-26-6;15855-62-6;38961-86-3;131689-21-9;2451257-90-0",
    "SMILES": "[Ni]12(SC(=C(S1)C3=CC=CC=C3)C4=CC=CC=C4)SC(=C(S2)C5=CC=CC=C5)C6=CC=CC=C6",
    "meta_data": {
        "InChI": "InChI=1S/2C14H12S2.Ni/c2*15-13(11-7-3-1-4-8-11)14(16)12-9-5-2-6-10-12;/h2*1-10,15-16H;/q;;+4/p-4",
        "InChIKey": null,
        "Canonical SMILES": "S1C(C=2C=CC=CC2)=C(S[Ni]13SC(C=4C=CC=CC4)=C(S3)C=5C=CC=CC5)C=6C=CC=CC6",
        "Molecular Formula": "C<sub>28</sub>H<sub>20</sub>NiS<sub>4</sub>",
        "Molecular Mass": "",
        "Melting Point": "260 °C",
        "Density": "1.44 g/cm³"
    }
}