{
    "cas_no": "6850-57-3",
    "key_name": "2-Methoxybenzylamine",
    "cn_name": "2-甲氧基苄胺;邻甲氧基苄胺;",
    "alternate_name": "Benzenemethanamine, 2-methoxy-;Benzylamine, <em>o</em>-methoxy-;2-Methoxybenzenemethanamine;<em>o</em>-Methoxybenzylamine;2-Methoxybenzylamine;<em>o</em>-Methoxybenzenemethanamine;(<em>o</em>-Anisylmethyl)amine;2-Methoxyphenylmethylamine;(2-Methoxyphenyl)methanamine;1-[2-(Methyloxy)phenyl]methanamine;1-(2-Methoxyphenyl)methanamine;2-(Aminomethyl)anisole",
    "duplicated_cas_no": "844682-95-7",
    "SMILES": "C(N)C1=C(OC)C=CC=C1",
    "meta_data": {
        "InChI": "InChI=1S/C8H11NO/c1-10-8-5-3-2-4-7(8)6-9/h2-5H,6,9H2,1H3",
        "InChIKey": null,
        "Canonical SMILES": "O(C=1C=CC=CC1CN)C",
        "Molecular Formula": "C<sub>8</sub>H<sub>11</sub>NO",
        "Molecular Mass": "137.18",
        "Boiling Point": "229 °C",
        "Melting Point": "60 °C"
    }
}