{
    "cas_no": "91-33-8",
    "key_name": "Benzthiazide",
    "cn_name": "苄噻嗪;苄硫醚氯噻嗪;苄硫噻嗪;",
    "alternate_name": "2<em>H</em>-1,2,4-Benzothiadiazine-7-sulfonamide, 6-chloro-3-[[(phenylmethyl)thio]methyl]-, 1,1-dioxide;2<em>H</em>-1,2,4-Benzothiadiazine-7-sulfonamide, 3-[(benzylthio)methyl]-6-chloro-, 1,1-dioxide;P 1393;Aquatag;Benzothiazide;Benzthiazide;3-[(Benzylthio)methyl]-6-chloro-1,2,4-benzothiadiazine-7-sulfonamide 1,1-dioxide;3-Benzylthiomethyl-6-chloro-2<em>H</em>-1,2,4-benzothiadiazine-7-sulfonamide 1,1-dioxide;3-Benzylthiomethyl-6-chloro-7-sulfamoyl-1,2,4-benzothiadiazine 1,1-dioxide;3-Benzylthiomethyl-6-chloro-7-sulfamyl-1,2,4-benzothiadiazine-1,1-dioxide;Fovane;Pfizer 1393;Urese;3-Benzylthiomethyl-6-chloro-7-sulfamyl-2<em>H</em>-1,2,4-benzothiadiazine 1,1-dioxide;Freeuril;Exosalt;ExNa;Lemazide;Diucene;Edemex;Proaqua;Regulon;Dihydrex;Diucen;HyDrine",
    "duplicated_cas_no": "",
    "SMILES": "O=S1(=O)C=2C(NC(CSCC3=CC=CC=C3)=N1)=CC(Cl)=C(S(N)(=O)=O)C2",
    "meta_data": {
        "InChI": "InChI=1S/C15H14ClN3O4S3/c16-11-6-12-14(7-13(11)25(17,20)21)26(22,23)19-15(18-12)9-24-8-10-4-2-1-3-5-10/h1-7H,8-9H2,(H,18,19)(H2,17,20,21)",
        "InChIKey": null,
        "Canonical SMILES": "O=S1(=O)N=C(NC2=CC(Cl)=C(C=C21)S(=O)(=O)N)CSCC=3C=CC=CC3",
        "Molecular Formula": "C<sub>15</sub>H<sub>14</sub>ClN<sub>3</sub>O<sub>4</sub>S<sub>3</sub>",
        "Molecular Mass": "431.94",
        "Melting Point": "231-232 °C"
    }
}