{
    "cas_no": "24969-06-0",
    "key_name": "Poly(epichlorohydrin)",
    "cn_name": null,
    "alternate_name": "Oxirane, 2-(chloromethyl)-, homopolymer;Propane, 1-chloro-2,3-epoxy-, polymers;Oxirane, (chloromethyl)-, homopolymer;Poly[(chloromethyl)ethylene oxide];Poly(epichlorohydrin);SD 2000;Epichlorohydrin homopolymer;Poly(1-chloro-2,3-epoxypropane);HX 102;Sumirez KF 1D;Sumirez Resin KF 1D;Laproxid E 181;E 181;Epoxychloropropane homopolymer;DP 5245",
    "duplicated_cas_no": "61630-87-3;95522-43-3;95522-44-4;117277-19-7;209008-81-1;209008-82-2;1286163-93-6;2232867-15-9;2480253-11-8",
    "SMILES": "C(Cl)C1CO1",
    "meta_data": {
        "InChI": "InChI=1S/C3H5ClO/c4-1-3-2-5-3/h3H,1-2H2",
        "InChIKey": null,
        "Canonical SMILES": "ClCC1OC1",
        "Molecular Formula": "(C<sub>3</sub>H<sub>5</sub>ClO)<sub>x</sub>",
        "Molecular Mass": "",
        "Melting Point": "115-120 °C",
        "Density": "1.315 g/cm³ @ Temp: 25 °C"
    }
}