{
    "cas_no": "53293-00-8",
    "key_name": "5-Hexynoic acid",
    "cn_name": "5-己炔酸;",
    "alternate_name": "5-Hexynoic acid;5-Hexyn-1-oic acid;4-Ethynylbutyric acid;EC2-103",
    "duplicated_cas_no": "",
    "SMILES": "C(CCC#C)C(O)=O",
    "meta_data": {
        "InChI": "InChI=1S/C6H8O2/c1-2-3-4-5-6(7)8/h1H,3-5H2,(H,7,8)",
        "InChIKey": null,
        "Canonical SMILES": "O=C(O)CCCC#C",
        "Molecular Formula": "C<sub>6</sub>H<sub>8</sub>O<sub>2</sub>",
        "Molecular Mass": "112.13",
        "Boiling Point": "135 °C @ Press: 14 Torr",
        "Density": "1.0372 g/cm³ @ Temp: 20 °C"
    }
}