{
    "cas_no": "5654-93-3",
    "key_name": "3-Methyl-1<em>H</em>-pyrrolo[2,3-<em>b</em>]pyridine",
    "cn_name": null,
    "alternate_name": "1<em>H</em>-Pyrrolo[2,3-<em>b</em>]pyridine, 3-methyl-;3-Methyl-1<em>H</em>-pyrrolo[2,3-<em>b</em>]pyridine;7-Azaskatole;3-Methylpyrrolo[2,3-<em>b</em>]pyridine;3-Methyl-7-azaindole",
    "duplicated_cas_no": "",
    "SMILES": "CC=1C=2C(=NC=CC2)NC1",
    "meta_data": {
        "InChI": "InChI=1S/C8H8N2/c1-6-5-10-8-7(6)3-2-4-9-8/h2-5H,1H3,(H,9,10)",
        "InChIKey": null,
        "Canonical SMILES": "N1=CC=CC2=C1NC=C2C",
        "Molecular Formula": "C<sub>8</sub>H<sub>8</sub>N<sub>2</sub>",
        "Molecular Mass": "132.16",
        "Melting Point": "130.5-133 °C"
    }
}