{
    "cas_no": "74808-10-9",
    "key_name": "α-<span class=\"text-smallcaps\">D</span>-Glucopyranose, 2,3,4,6-tetraacetate 1-(2,2,2-trichloroethanimidate)",
    "cn_name": null,
    "alternate_name": "α-<span class=\"text-smallcaps\">D</span>-Glucopyranose, 2,3,4,6-tetraacetate 1-(2,2,2-trichloroethanimidate);2,3,4,6-Tetra-<em>O</em>-acetyl-α-<span class=\"text-smallcaps\">D</span>-glucopyranosyl trichloroacetimidate;Tetra-<em>O</em>-acetyl-α-<span class=\"text-smallcaps\">D</span>-glucose trichloroacetimidate",
    "duplicated_cas_no": "153765-51-6",
    "SMILES": "O(C(C)=O)[C@@H]1[C@@H](OC(C)=O)[C@@H](OC(C(Cl)(Cl)Cl)=N)O[C@H](COC(C)=O)[C@H]1OC(C)=O",
    "meta_data": {
        "InChI": "InChI=1S/C16H20Cl3NO10/c1-6(21)25-5-10-11(26-7(2)22)12(27-8(3)23)13(28-9(4)24)14(29-10)30-15(20)16(17,18)19/h10-14,20H,5H2,1-4H3/t10-,11-,12+,13-,14-/m1/s1",
        "InChIKey": null,
        "Canonical SMILES": "O=C(OCC1OC(OC(=N)C(Cl)(Cl)Cl)C(OC(=O)C)C(OC(=O)C)C1OC(=O)C)C",
        "Molecular Formula": "C<sub>16</sub>H<sub>20</sub>Cl<sub>3</sub>NO<sub>10</sub>",
        "Molecular Mass": "492.69",
        "Melting Point": "66-68 °C"
    }
}