{
    "cas_no": "23981-47-7",
    "key_name": "6-Methoxy-2-naphthylacetic acid",
    "cn_name": null,
    "alternate_name": "2-Naphthaleneacetic acid, 6-methoxy-;6-Methoxy-2-naphthaleneacetic acid;6-Methoxy-2-naphthylacetic acid;2-(6-Methoxy-2-naphthyl)acetic acid;BRL 10720;2-(2-Methoxynaphthalen-6-yl)acetic acid;2-(6-Methoxynaphthalen-2-yl)acetic acid;2-(6-Methoxynaphthalen-2-yl)aceticacid",
    "duplicated_cas_no": "",
    "SMILES": "C(C(O)=O)C1=CC2=C(C=C(OC)C=C2)C=C1",
    "meta_data": {
        "InChI": "InChI=1S/C13H12O3/c1-16-12-5-4-10-6-9(7-13(14)15)2-3-11(10)8-12/h2-6,8H,7H2,1H3,(H,14,15)",
        "InChIKey": null,
        "Canonical SMILES": "O=C(O)CC1=CC=C2C=C(OC)C=CC2=C1",
        "Molecular Formula": "C<sub>13</sub>H<sub>12</sub>O<sub>3</sub>",
        "Molecular Mass": "216.23",
        "Melting Point": "203-205 °C"
    }
}