{
    "cas_no": "111-74-0",
    "key_name": "<em>N</em>,<em>N</em>′-Diethylethylenediamine",
    "cn_name": "NN\"-二乙基乙二胺;",
    "alternate_name": "1,2-Ethanediamine, <em>N</em><sup>1</sup>,<em>N</em><sup>2</sup>-diethyl-;Ethylenediamine, <em>N</em>,<em>N</em>′-diethyl-;1,2-Ethanediamine, <em>N</em>,<em>N</em>′-diethyl-;<em>N</em><sup>1</sup>,<em>N</em><sup>2</sup>-Diethyl-1,2-ethanediamine;<em>N</em>,<em>N</em>′-Diethyldiaminoethane;<em>N</em>,<em>N</em>′-Diethylethylenediamine;<em>N</em>,<em>N</em>′-Diethyl-1,2-ethanediamine;<em>N</em>,<em>N</em>′-Diethyl-1,2-diaminoethane;1,2-Bis(ethylamino)ethane",
    "duplicated_cas_no": "",
    "SMILES": "C(CNCC)NCC",
    "meta_data": {
        "InChI": "InChI=1S/C6H16N2/c1-3-7-5-6-8-4-2/h7-8H,3-6H2,1-2H3",
        "InChIKey": null,
        "Canonical SMILES": "N(CC)CCNCC",
        "Molecular Formula": "C<sub>6</sub>H<sub>16</sub>N<sub>2</sub>",
        "Molecular Mass": "116.20",
        "Boiling Point": "146 °C"
    }
}