{
    "cas_no": "676-22-2",
    "key_name": "<em>trans</em>,<em>trans</em>,<em>trans</em>-1,5,9-Cyclododecatriene",
    "cn_name": null,
    "alternate_name": "1,5,9-Cyclododecatriene, (1<em>E</em>,5<em>E</em>,9<em>E</em>)-;1,5,9-Cyclododecatriene, (<em>E</em>,<em>E</em>,<em>E</em>)-;(1<em>E</em>,5<em>E</em>,9<em>E</em>)-1,5,9-Cyclododecatriene;<em>trans</em>,<em>trans</em>,<em>trans</em>-1,5,9-Cyclododecatriene;<em>all</em>-<em>trans</em>-1,5,9-Cyclododecatriene;(<em>E</em>,<em>E</em>,<em>E</em>)-1,5,9-Cyclododecatriene;(1<em>E</em>,5<em>E</em>,9<em>E</em>)-Cyclododeca-1,5,9-triene",
    "duplicated_cas_no": "",
    "SMILES": "C/1C/C=C/CC\\C=C\\CC\\C=C1",
    "meta_data": {
        "InChI": "InChI=1S/C12H18/c1-2-4-6-8-10-12-11-9-7-5-3-1/h1-2,7-10H,3-6,11-12H2/b2-1+,9-7+,10-8+",
        "InChIKey": null,
        "Canonical SMILES": "C1=CCCC=CCCC=CCC1",
        "Molecular Formula": "C<sub>12</sub>H<sub>18</sub>",
        "Molecular Mass": "162.27",
        "Boiling Point": "92 °C @ Press: 10 Torr",
        "Melting Point": "34 °C"
    }
}