{
    "cas_no": "53-84-9",
    "key_name": "NAD",
    "cn_name": "烟酰胺腺嘌呤双核苷酸;烟酰胺腺嘌呤双核甙酸;辅酶I;NAD;",
    "alternate_name": "Adenosine 5′-(trihydrogen diphosphate), <em>P</em>′→5′-ester with 3-(aminocarbonyl)-1-β-<span class=\"text-smallcaps\">D</span>-ribofuranosylpyridinium, inner salt;Pyridinium, 3-carbamoyl-1-β-<span class=\"text-smallcaps\">D</span>-ribofuranosyl-, hydroxide, 5′→5′-ester with adenosine 5′-(trihydrogen pyrophosphate), inner salt;Adenosine 5′-(trihydrogen diphosphate), <em>P</em>′→5′-ester with 3-(aminocarbonyl)-1-β-<span class=\"text-smallcaps\">D</span>-ribofuranosylpyridinium hydroxide, inner salt;Codehydrase I;Codehydrogenase I;Coenzyme I;Diphosphopyridine nucleotide;DPN;Cozymase I;NAD;Nadide;Nicotinamide-adenine dinucleotide;Oxidized diphosphopyridine nucleotide;Adenine-nicotinamide dinucleotide;NAD<sup>+</sup>;Enzopride;β-NAD;β-Diphosphopyridine nucleotide;β-Nicotinamide adenine dinucleotide;β-NAD<sup>+</sup>;NSC 20272;CO-I;β-Nicotinamide adenine dinucleotide hydrate;MeSH ID: D009243",
    "duplicated_cas_no": "30429-30-2;159929-29-0;1083039-67-1;1354693-98-3",
    "SMILES": "O[C@H]1[C@H](N2C=3C(N=C2)=C(N)N=CN3)O[C@H](COP(OP(OC[C@H]4O[C@H]([C@H](O)[C@@H]4O)[N+]=5C=C(C(N)=O)C=CC5)(=O)[O-])(=O)O)[C@H]1O",
    "meta_data": {
        "InChI": "InChI=1S/C21H27N7O14P2/c22-17-12-19(25-7-24-17)28(8-26-12)21-16(32)14(30)11(41-21)6-39-44(36,37)42-43(34,35)38-5-10-13(29)15(31)20(40-10)27-3-1-2-9(4-27)18(23)33/h1-4,7-8,10-11,13-16,20-21,29-32H,5-6H2,(H5-,22,23,24,25,33,34,35,36,37)/t10-,11-,13-,14-,15-,16-,20-,21-/m1/s1",
        "InChIKey": null,
        "Canonical SMILES": "O=C(N)C1=CC=C[N+](=C1)C2OC(COP(=O)([O-])OP(=O)(O)OCC3OC(N4C=NC=5C(=NC=NC54)N)C(O)C3O)C(O)C2O",
        "Molecular Formula": "C<sub>21</sub>H<sub>27</sub>N<sub>7</sub>O<sub>14</sub>P<sub>2</sub>",
        "Molecular Mass": "",
        "Melting Point": "140-142 °C (decomp)"
    }
}