{
    "cas_no": "660-60-6",
    "key_name": "Cupric stearate",
    "cn_name": "硬脂酸铜;",
    "alternate_name": "Octadecanoic acid, copper(2+) salt (2:1);Stearic acid, copper(2+) salt;Octadecanoic acid, copper(2+) salt;Cupric stearate;Copper(II) stearate;Copper(2+) stearate;Copper distearate;Cupric distearate;Cupric octadecanoate;Copper(II) octadecanoate;Copper bis(octadecanoate);Copper dioctadecanoate;Cu(octanoate)<sub>2</sub>",
    "duplicated_cas_no": "",
    "SMILES": "C(CCCCCCCCCCC)CCCCCC(O)=O.[Cu]",
    "meta_data": {
        "InChI": "InChI=1S/C18H36O2.Cu/c1-2-3-4-5-6-7-8-9-10-11-12-13-14-15-16-17-18(19)20;/h2-17H2,1H3,(H,19,20);",
        "InChIKey": null,
        "Canonical SMILES": "[Cu].O=C(O)CCCCCCCCCCCCCCCCC",
        "Molecular Formula": "C<sub>18</sub>H<sub>36</sub>O<sub>2</sub>.<sup>1</sup>/<sub>2</sub>Cu",
        "Molecular Mass": "",
        "Melting Point": "250 °C"
    }
}