{
    "cas_no": "53012-41-2",
    "key_name": "1-(2,6-Dimethylphenoxy)-2-propanone",
    "cn_name": null,
    "alternate_name": "2-Propanone, 1-(2,6-dimethylphenoxy)-;1-(2,6-Dimethylphenoxy)-2-propanone;1-(2,6-Dimethylphenoxy)acetone;(2,6-Dimethylphenoxy)-2-propanone",
    "duplicated_cas_no": "",
    "SMILES": "O(CC(C)=O)C1=C(C)C=CC=C1C",
    "meta_data": {
        "InChI": "InChI=1S/C11H14O2/c1-8-5-4-6-9(2)11(8)13-7-10(3)12/h4-6H,7H2,1-3H3",
        "InChIKey": null,
        "Canonical SMILES": "O=C(C)COC=1C(=CC=CC1C)C",
        "Molecular Formula": "C<sub>11</sub>H<sub>14</sub>O<sub>2</sub>",
        "Molecular Mass": "178.23",
        "Boiling Point": "110-113 °C @ Press: 4 Torr"
    }
}