{
    "cas_no": "17865-32-6",
    "key_name": "Cyclohexyldimethoxymethylsilane",
    "cn_name": "甲基环己基二甲氧基硅烷;环己基甲基二甲氧基硅烷;",
    "alternate_name": "Cyclohexane, (dimethoxymethylsilyl)-;Silane, cyclohexyldimethoxymethyl-;(Dimethoxymethylsilyl)cyclohexane;Methyl(cyclohexyl)dimethoxysilane;Cyclohexyl(methyl)dimethoxysilane;Cyclohexyldimethoxymethylsilane;CHMS 112;SZ 6187;Z 6187;Dimethoxycyclohexylmethylsilane;Cyclohexyl dimethoxymethyl siloxane;Donor C 2",
    "duplicated_cas_no": "869843-71-0",
    "SMILES": "[Si](OC)(OC)(C)C1CCCCC1",
    "meta_data": {
        "InChI": "InChI=1S/C9H20O2Si/c1-10-12(3,11-2)9-7-5-4-6-8-9/h9H,4-8H2,1-3H3",
        "InChIKey": null,
        "Canonical SMILES": "O(C)[Si](OC)(C)C1CCCCC1",
        "Molecular Formula": "C<sub>9</sub>H<sub>20</sub>O<sub>2</sub>Si",
        "Molecular Mass": "188.34",
        "Boiling Point": "196 °C",
        "Density": "0.947 g/cm³"
    }
}