{
    "cas_no": "22840-03-5",
    "key_name": "<span class=\"text-smallcaps\">L</smallcap>-α-Aspartyl-<smallcap>L</span>-tyrosine",
    "cn_name": null,
    "alternate_name": "<span class=\"text-smallcaps\">L</smallcap>-Tyrosine, <smallcap>L</span>-α-aspartyl-;Tyrosine, <em>N</em>-<span class=\"text-smallcaps\">L</smallcap>-α-aspartyl-, <smallcap>L</span>-;<span class=\"text-smallcaps\">L</smallcap>-Tyrosine, <em>N</em>-<smallcap>L</span>-α-aspartyl-;<span class=\"text-smallcaps\">L</smallcap>-α-Aspartyl-<smallcap>L</span>-tyrosine;15: PN: WO2016164579 SEQID: 15 claimed sequence;15: PN: WO2016164528 SEQID: 15 claimed sequence;38: PN: WO2019074124 SEQID: 46 claimed protein;4: PN: WO2021210633 PAGE: 18 claimed sequence;448: PN: WO2022215055 SEQID: 448 claimed protein;11: PN: WO2024041532 SEQID: 111 claimed sequence",
    "duplicated_cas_no": "",
    "SMILES": "C([C@H](NC([C@H](CC(O)=O)N)=O)C(O)=O)C1=CC=C(O)C=C1",
    "meta_data": {
        "InChI": "InChI=1S/C13H16N2O6/c14-9(6-11(17)18)12(19)15-10(13(20)21)5-7-1-3-8(16)4-2-7/h1-4,9-10,16H,5-6,14H2,(H,15,19)(H,17,18)(H,20,21)/t9-,10-/m0/s1",
        "InChIKey": null,
        "Canonical SMILES": "O=C(O)CC(N)C(=O)NC(C(=O)O)CC1=CC=C(O)C=C1",
        "Molecular Formula": "C<sub>13</sub>H<sub>16</sub>N<sub>2</sub>O<sub>6</sub>",
        "Molecular Mass": "296.28",
        "Melting Point": "177-178 °C"
    }
}