{
    "cas_no": "1119-33-1",
    "key_name": "Ethyl L-glutamate",
    "cn_name": "L-谷氨酸5乙脂;L-谷氨酸5乙脂;",
    "alternate_name": "<span class=\"text-smallcaps\">L</span>-Glutamic acid, 5-ethyl ester;Glutamic acid, 5-ethyl ester, <span class=\"text-smallcaps\">L</span>-;γ-Ethyl <span class=\"text-smallcaps\">L</span>-glutamate;γ-Ethyl glutamate;<span class=\"text-smallcaps\">L</span>-Glutamic acid γ-ethyl ester;5-Ethyl <span class=\"text-smallcaps\">L</span>-glutamate;γ-Monoethyl glutamate;Ethyl L-glutamate;NSC 156977;NSC 16885;(2S)-2-Amino-5-ethoxy-5-oxopentanoic acid",
    "duplicated_cas_no": "10476-59-2;16452-64-5;70830-47-6;89921-46-0;117060-50-1;1245625-10-8",
    "SMILES": "C(C[C@@H](C(O)=O)N)C(OCC)=O",
    "meta_data": {
        "InChI": "InChI=1S/C7H13NO4/c1-2-12-6(9)4-3-5(8)7(10)11/h5H,2-4,8H2,1H3,(H,10,11)/t5-/m0/s1",
        "InChIKey": null,
        "Canonical SMILES": "O=C(O)C(N)CCC(=O)OCC",
        "Molecular Formula": "C<sub>7</sub>H<sub>13</sub>NO<sub>4</sub>",
        "Molecular Mass": "175.18",
        "Melting Point": "191 °C"
    }
}