{
    "cas_no": "4837-01-8",
    "key_name": "[(2-Bromoethyl)thio]benzene",
    "cn_name": "2-溴乙基苯基硫醚;",
    "alternate_name": "Benzene, [(2-bromoethyl)thio]-;Sulfide, 2-bromoethyl phenyl;[(2-Bromoethyl)thio]benzene;1-Bromo-2-(phenylthio)ethane;β-Bromoethyl phenyl sulfide;2-Bromoethyl phenyl sulfide;Phenylthioethyl bromide;2-(Phenylthio)ethyl bromide;2-Bromoethyl phenyl thioether;2-Phenylthio-1-bromoethane;1-Phenylthio-2-bromoethane;[(2-Bromoethyl)sulfanyl]benzene;2-(Phenylsulfanyl)ethyl bromide;2-[4-(Phenylthio)phenoxy]ethyl bromide",
    "duplicated_cas_no": "2001071-49-2",
    "SMILES": "S(CCBr)C1=CC=CC=C1",
    "meta_data": {
        "InChI": "InChI=1S/C8H9BrS/c9-6-7-10-8-4-2-1-3-5-8/h1-5H,6-7H2",
        "InChIKey": null,
        "Canonical SMILES": "BrCCSC=1C=CC=CC1",
        "Molecular Formula": "C<sub>8</sub>H<sub>9</sub>BrS",
        "Molecular Mass": "217.13",
        "Boiling Point": "135 °C @ Press: 11 Torr"
    }
}