{
    "cas_no": "15258-73-8",
    "key_name": "2,6-Dichlorobenzyl alcohol",
    "cn_name": "2,6-二氯苄醇;",
    "alternate_name": "Benzenemethanol, 2,6-dichloro-;Benzyl alcohol, 2,6-dichloro-;2,6-Dichlorobenzenemethanol;2,6-Dichlorobenzyl alcohol;(2,6-Dichlorophenyl)methanol;NSC 215733",
    "duplicated_cas_no": "",
    "SMILES": "C(O)C1=C(Cl)C=CC=C1Cl",
    "meta_data": {
        "InChI": "InChI=1S/C7H6Cl2O/c8-6-2-1-3-7(9)5(6)4-10/h1-3,10H,4H2",
        "InChIKey": null,
        "Canonical SMILES": "ClC1=CC=CC(Cl)=C1CO",
        "Molecular Formula": "C<sub>7</sub>H<sub>6</sub>Cl<sub>2</sub>O",
        "Molecular Mass": "177.03",
        "Melting Point": "98 °C"
    }
}