{
    "cas_no": "77-71-4",
    "key_name": "Dimethylhydantoin",
    "cn_name": "5,5-二甲基海因;",
    "alternate_name": "2,4-Imidazolidinedione, 5,5-dimethyl-;Hydantoin, 5,5-dimethyl-;5,5-Dimethyl-2,4-imidazolidinedione;5,5-Dimethylhydantoin;Dimethylhydantoin;DM Hydantoin;Dantoin DMH;DMH;Dantoin 736;4,4-Dimethyl-2,5-dioxoimidazolidine;NSC 8652;Fennosurf 300",
    "duplicated_cas_no": "1689577-91-0",
    "SMILES": "CC1(C)C(=O)NC(=O)N1",
    "meta_data": {
        "InChI": "InChI=1S/C5H8N2O2/c1-5(2)3(8)6-4(9)7-5/h1-2H3,(H2,6,7,8,9)",
        "InChIKey": null,
        "Canonical SMILES": "O=C1NC(=O)C(N1)(C)C",
        "Molecular Formula": "C<sub>5</sub>H<sub>8</sub>N<sub>2</sub>O<sub>2</sub>",
        "Molecular Mass": "128.13",
        "Melting Point": "178 °C",
        "Density": "1.261 g/cm³"
    }
}