{
    "cas_no": "610-09-3",
    "key_name": "<em>cis</em>-1,2-Cyclohexanedicarboxylic acid",
    "cn_name": "六氢邻苯二甲酸;顺式-1,2-环己二酸;",
    "alternate_name": "1,2-Cyclohexanedicarboxylic acid, (1<em>R</em>,2<em>S</em>)-<em>rel</em>-;1,2-Cyclohexanedicarboxylic acid, <em>cis</em>-;<em>rel</em>-(1<em>R</em>,2<em>S</em>)-1,2-Cyclohexanedicarboxylic acid;<em>cis</em>-1,2-Cyclohexanedicarboxylic acid;<em>cis</em>-Hexahydrophthalic acid;NSC 57637;<em>cis</em>-1,2-Cyclohexanedioic acid",
    "duplicated_cas_no": "207518-99-8",
    "SMILES": "C(O)(=O)[C@H]1[C@@H](C(O)=O)CCCC1",
    "meta_data": {
        "InChI": "InChI=1/C8H12O4/c9-7(10)5-3-1-2-4-6(5)8(11)12/h5-6H,1-4H2,(H,9,10)(H,11,12)/t5-,6+",
        "InChIKey": null,
        "Canonical SMILES": "O=C(O)C1CCCCC1C(=O)O",
        "Molecular Formula": "C<sub>8</sub>H<sub>12</sub>O<sub>4</sub>",
        "Molecular Mass": "172.18",
        "Boiling Point": "130-132 °C @ Press: 9 Torr",
        "Melting Point": "191 °C"
    }
}