{
    "cas_no": "26081-07-2",
    "key_name": "<span class=\"text-smallcaps\">L</span>-α-Amino-ε-caprolactam hydrochloride",
    "cn_name": null,
    "alternate_name": "2<em>H</em>-Azepin-2-one, 3-aminohexahydro-, hydrochloride (1:1), (3<em>S</em>)-;2<em>H</em>-Azepin-2-one, 3-aminohexahydro-, monohydrochloride, <span class=\"text-smallcaps\">L</span>-;2<em>H</em>-Azepin-2-one, 3-aminohexahydro-, monohydrochloride, (<em>S</em>)-;2<em>H</em>-Azepin-2-one, 3-aminohexahydro-, monohydrochloride, (3<em>S</em>)-;<span class=\"text-smallcaps\">L</span>-α-Aminocaprolactam monohydrochloride;<span class=\"text-smallcaps\">L</span>-α-Amino-ε-caprolactam hydrochloride;<span class=\"text-smallcaps\">L</span>-α-Amino-ε-caprolactam, monohydrochloride;(<em>S</em>)-3-Aminoazepan-2-one hydrochloride",
    "duplicated_cas_no": "50595-44-3",
    "SMILES": "N[C@@H]1C(=O)NCCCC1.Cl",
    "meta_data": {
        "InChI": "InChI=1S/C6H12N2O.ClH/c7-5-3-1-2-4-8-6(5)9;/h5H,1-4,7H2,(H,8,9);1H/t5-;/m0./s1",
        "InChIKey": null,
        "Canonical SMILES": "Cl.O=C1NCCCCC1N",
        "Molecular Formula": "C<sub>6</sub>H<sub>12</sub>N<sub>2</sub>O.ClH",
        "Molecular Mass": "",
        "Melting Point": "&gt;270 °C"
    }
}