{
    "cas_no": "346-18-9",
    "key_name": "Polythiazide",
    "cn_name": null,
    "alternate_name": "2<em>H</em>-1,2,4-Benzothiadiazine-7-sulfonamide, 6-chloro-3,4-dihydro-2-methyl-3-[[(2,2,2-trifluoroethyl)thio]methyl]-, 1,1-dioxide;P 2525;6-Chloro-3,4-dihydro-2-methyl-7-sulfamoyl-3-(2,2,2-trifluoroethylthiomethyl)-2<em>H</em>-1,2,4-benzothiadiazine 1,1-dioxide;6-Chloro-3,4-dihydro-2-methyl-3-[[2,2,2-trifluoroethyl)thio]methyl]-2<em>H</em>-1,2,4-benzothiadiazine-7-sulfonamide 1,1-dioxide;Drenusil;2-Methyl-3-(β,β,β-trifluoroethylthiomethyl)-6-chloro-7-sulfamyl-3,4-dihydro-1,2,4-benzothiadiazine-1,1-dioxide;Polythiazide;Renese;Nephril;(±)-Polythiazide;NSC 108161;(±)-Nephril;MeSH ID: D011139",
    "duplicated_cas_no": "96782-88-6",
    "SMILES": "O=S1(=O)C=2C(NC(CSCC(F)(F)F)N1C)=CC(Cl)=C(S(N)(=O)=O)C2",
    "meta_data": {
        "InChI": "InChI=1S/C11H13ClF3N3O4S3/c1-18-10(4-23-5-11(13,14)15)17-7-2-6(12)8(24(16,19)20)3-9(7)25(18,21)22/h2-3,10,17H,4-5H2,1H3,(H2,16,19,20)",
        "InChIKey": null,
        "Canonical SMILES": "O=S(=O)(N)C=1C=C2C(=CC1Cl)NC(N(C)S2(=O)=O)CSCC(F)(F)F",
        "Molecular Formula": "C<sub>11</sub>H<sub>13</sub>ClF<sub>3</sub>N<sub>3</sub>O<sub>4</sub>S<sub>3</sub>",
        "Molecular Mass": "439.88",
        "Melting Point": "202.5 °C"
    }
}