{
    "cas_no": "821-48-7",
    "key_name": "Bis(2-chloroethyl)amine hydrochloride",
    "cn_name": "二(2-氯乙基)胺盐酸盐;双(2-氯乙基)胺盐酸盐;",
    "alternate_name": "Ethanamine, 2-chloro-<em>N</em>-(2-chloroethyl)-, hydrochloride (1:1);Diethylamine, 2,2′-dichloro-, hydrochloride;Ethanamine, 2-chloro-<em>N</em>-(2-chloroethyl)-, hydrochloride;NSC 10873;Nornitrogen mustard hydrochloride;2,2′-Dichlorodiethylamine hydrochloride;Bis(β-chloroethyl)amine hydrochloride;Bis(2-chloroethyl)amine hydrochloride;<em>N</em>,<em>N</em>-Bis(2-chloroethyl)amine hydrochloride;β,β′-Dichlorodiethylamine hydrochloride;2-Chloro-<em>N</em>-(2-chloroethyl)ethanamine hydrochloride;Bis(2-chloroethyl)ammonium chloride;Leo 72a;1,5-Dichloro-3-azapentane hydrochloride;Di(2-chloroethyl)amine hydrochloride;Bi(2-chloroethyl)amine hydrochloride",
    "duplicated_cas_no": "117336-09-1;2783975-90-4",
    "SMILES": "N(CCCl)CCCl.Cl",
    "meta_data": {
        "InChI": "InChI=1S/C4H9Cl2N.ClH/c5-1-3-7-4-2-6;/h7H,1-4H2;1H",
        "InChIKey": null,
        "Canonical SMILES": "Cl.ClCCNCCCl",
        "Molecular Formula": "C<sub>4</sub>H<sub>9</sub>Cl<sub>2</sub>N.ClH",
        "Molecular Mass": "",
        "Melting Point": "210 °C"
    }
}