{
    "cas_no": "7720-83-4",
    "key_name": "Titanium iodide (TiI<sub>4</sub>), (<em>T</em>-4)-",
    "cn_name": "碘化钛(IV);碘化钛(IV);",
    "alternate_name": "Titanium iodide (TiI<sub>4</sub>), (<em>T</em>-4)-;Titanium iodide (TiI<sub>4</sub>);Titanium tetraiodide;Tetraiodotitanium;Titanium(IV) iodide",
    "duplicated_cas_no": "",
    "SMILES": "[Ti](I)(I)(I)I",
    "meta_data": {
        "InChI": "InChI=1S/4HI.Ti/h4*1H;/q;;;;+4/p-4",
        "InChIKey": null,
        "Canonical SMILES": "I[Ti](I)(I)I",
        "Molecular Formula": "I<sub>4</sub>Ti",
        "Molecular Mass": "",
        "Boiling Point": "379 °C",
        "Melting Point": "150 °C"
    }
}