{
    "cas_no": "25186-43-0",
    "key_name": "<em>N</em>-(1-Methylethyl)-4-nitrobenzenamine",
    "cn_name": null,
    "alternate_name": "Benzenamine, <em>N</em>-(1-methylethyl)-4-nitro-;Aniline, <em>N</em>-isopropyl-<em>p</em>-nitro-;<em>N</em>-(1-Methylethyl)-4-nitrobenzenamine;<em>N</em>-Isopropyl-4-nitroaniline;<em>N</em>-Isopropyl-<em>p</em>-nitroaniline;<em>p</em>-Nitro-<em>N</em>-isopropylaniline",
    "duplicated_cas_no": "",
    "SMILES": "N(C(C)C)C1=CC=C(N(=O)=O)C=C1",
    "meta_data": {
        "InChI": "InChI=1S/C9H12N2O2/c1-7(2)10-8-3-5-9(6-4-8)11(12)13/h3-7,10H,1-2H3",
        "InChIKey": null,
        "Canonical SMILES": "O=N(=O)C1=CC=C(C=C1)NC(C)C",
        "Molecular Formula": "C<sub>9</sub>H<sub>12</sub>N<sub>2</sub>O<sub>2</sub>",
        "Molecular Mass": "180.20",
        "Melting Point": "81-82 °C",
        "Density": "1.260 g/cm³"
    }
}