{
    "cas_no": "27685-94-5",
    "key_name": "4-Chlorothieno[3,2-<em>c</em>]pyridine",
    "cn_name": "4-氯噻吩并[3,2-c]吡啶;",
    "alternate_name": "Thieno[3,2-<em>c</em>]pyridine, 4-chloro-;4-Chlorothieno[3,2-<em>c</em>]pyridine",
    "duplicated_cas_no": "",
    "SMILES": "ClC1=C2C(=CC=N1)SC=C2",
    "meta_data": {
        "InChI": "InChI=1S/C7H4ClNS/c8-7-5-2-4-10-6(5)1-3-9-7/h1-4H",
        "InChIKey": null,
        "Canonical SMILES": "ClC1=NC=CC=2SC=CC12",
        "Molecular Formula": "C<sub>7</sub>H<sub>4</sub>ClNS",
        "Molecular Mass": "169.63",
        "Melting Point": "96 °C"
    }
}