{
    "cas_no": "2207-75-2",
    "key_name": "Potassium oxonate",
    "cn_name": "氧嗪酸钾;1,4,5,6-四氢-4,6-二氧-1,3,5-三嗪-2-羧酸钾;",
    "alternate_name": "1,3,5-Triazine-2-carboxylic acid, 1,4,5,6-tetrahydro-4,6-dioxo-, potassium salt (1:1);Allantoxanic acid, monopotassium salt;1,3,5-Triazine-2-carboxylic acid, 1,4,5,6-tetrahydro-4,6-dioxo-, monopotassium salt;Allantoxanic acid, potassium salt;Potassium azaorotate;Potassium 2,6-dihydroxytriazinecarboxylate;Potassium oxonate;Potassium otastat;Oteracil potassium;Otastat potassium (Oxo);Otastat potassium",
    "duplicated_cas_no": "20636-38-8;1001850-52-7",
    "SMILES": "C(O)(=O)C=1NC(=O)NC(=O)N1.[K]",
    "meta_data": {
        "InChI": "InChI=1S/C4H3N3O4.K/c8-2(9)1-5-3(10)7-4(11)6-1;/h(H,8,9)(H2,5,6,7,10,11);",
        "InChIKey": null,
        "Canonical SMILES": "[K].O=C1N=C(NC(=O)N1)C(=O)O",
        "Molecular Formula": "C<sub>4</sub>H<sub>3</sub>N<sub>3</sub>O<sub>4</sub>.K",
        "Molecular Mass": "",
        "Melting Point": "&gt;300 °C"
    }
}