{
    "cas_no": "64916-48-9",
    "key_name": "Bis(hexafluoroacetylacetonato)palladium",
    "cn_name": "六氟乙酰丙酮钯(II);",
    "alternate_name": "Palladium, bis(1,1,1,5,5,5-hexafluoro-2,4-pentanedionato-κ<em>O</em><sup>2</sup>,κ<em>O</em><sup>4</sup>)-, (<em>SP</em>-4-1)-;Palladium, bis(1,1,1,5,5,5-hexafluoro-2,4-pentanedionato-<em>O</em>,<em>O</em>′)-, (<em>SP</em>-4-1)-;2,4-Pentanedione, 1,1,1,5,5,5-hexafluoro-, palladium deriv.;Palladium, bis(1,1,1,5,5,5-hexafluoro-2,4-pentanedionato-κ<em>O</em>,κ<em>O</em>′)-, (<em>SP</em>-4-1)-;(<em>SP</em>-4-1)-Bis(1,1,1,5,5,5-hexafluoro-2,4-pentanedionato-κ<em>O</em><sup>2</sup>,κ<em>O</em><sup>4</sup>)palladium;Palladium bis(1,1,1,5,5,5-hexafluoro-2,4-pentanedionate);Bis(hexafluoroacetylacetonato)palladium;Palladium bis(hexafluoroacetylacetonate);Bis(1,1,1,5,5,5-hexafluoroacetylacetonato)palladium;Bis(1,1,1,5,5,5-hexafluoro-2,4-pentanedionato)palladium;Palladium (II) hexafluoroacetylacetonate;Hexafluoroacetylacetonato palladium(II);Pd(II) hexafluoroacetylacetonate",
    "duplicated_cas_no": "",
    "SMILES": "C(F)(F)(F)C1=O[Pd+2]2(O=C(C(F)(F)F)[CH-]C(C(F)(F)F)=O2)O=C(C(F)(F)F)[CH-]1",
    "meta_data": {
        "InChI": "InChI=1S/2C5HF6O2.Pd/c2*6-4(7,8)2(12)1-3(13)5(9,10)11;/h2*1H;/q2*-1;+2",
        "InChIKey": null,
        "Canonical SMILES": "FC(F)(F)C1=O[Pd+2]2(O=C([CH-]1)C(F)(F)F)O=C([CH-]C(=O2)C(F)(F)F)C(F)(F)F",
        "Molecular Formula": "C<sub>10</sub>H<sub>2</sub>F<sub>12</sub>O<sub>4</sub>Pd",
        "Molecular Mass": "",
        "Melting Point": "95 °C"
    }
}