{
    "cas_no": "614-30-2",
    "key_name": "<em>N</em>-Benzyl-<em>N</em>-methylaniline",
    "cn_name": "N,N-甲基苄基苯胺;",
    "alternate_name": "Benzenemethanamine, <em>N</em>-methyl-<em>N</em>-phenyl-;Benzylamine, <em>N</em>-methyl-<em>N</em>-phenyl-;<em>N</em>-Methyl-<em>N</em>-phenylbenzenemethanamine;<em>N</em>-Methyl-<em>N</em>-phenylbenzylamine;<em>N</em>-Methyl-<em>N</em>-benzylaniline;<em>N</em>-Benzyl-<em>N</em>-methylaniline;<em>N</em>-Benzyl-<em>N</em>-methylphenylamine;<em>N</em>-Benzyl-<em>N</em>-methyl-<em>N</em>-phenylamine;NSC 97;<em>N</em>-Benzyl-<em>N</em>-methylbenzenamine;<em>N</em>-Methyl-<em>N</em>-benzylphenylamine",
    "duplicated_cas_no": "",
    "SMILES": "N(CC1=CC=CC=C1)(C)C2=CC=CC=C2",
    "meta_data": {
        "InChI": "InChI=1S/C14H15N/c1-15(14-10-6-3-7-11-14)12-13-8-4-2-5-9-13/h2-11H,12H2,1H3",
        "InChIKey": null,
        "Canonical SMILES": "C=1C=CC(=CC1)N(C)CC=2C=CC=CC2",
        "Molecular Formula": "C<sub>14</sub>H<sub>15</sub>N",
        "Molecular Mass": "197.28",
        "Boiling Point": "187-188 °C @ Press: 26 Torr",
        "Melting Point": "37 °C",
        "Density": "1.0422 g/cm³ @ Temp: 26.5 °C"
    }
}