{
    "cas_no": "3400-55-3",
    "key_name": "2-Bromo-1,1-diethoxypropane",
    "cn_name": null,
    "alternate_name": "Propane, 2-bromo-1,1-diethoxy-;Propionaldehyde, 2-bromo-, diethyl acetal;2-Bromo-1,1-diethoxypropane;β-Bromopropionaldehyde diethyl acetal;2-Bromopropionaldehyde diethyl acetal;1,1-Diethoxy-2-bromopropane",
    "duplicated_cas_no": "71239-14-0",
    "SMILES": "C(OCC)(OCC)C(Br)C",
    "meta_data": {
        "InChI": "InChI=1S/C7H15BrO2/c1-4-9-7(6(3)8)10-5-2/h6-7H,4-5H2,1-3H3",
        "InChIKey": null,
        "Canonical SMILES": "BrC(C)C(OCC)OCC",
        "Molecular Formula": "C<sub>7</sub>H<sub>15</sub>BrO<sub>2</sub>",
        "Molecular Mass": "211.10",
        "Boiling Point": "69 °C @ Press: 2 Torr"
    }
}