{
    "cas_no": "2446-23-3",
    "key_name": "Oral-Turinabol",
    "cn_name": "4-氯去氢甲基睾酮; 4-氯-17a-甲基-17b-羟基-1,4-雄甾二烯-3-酮;",
    "alternate_name": "Androsta-1,4-dien-3-one, 4-chloro-17-hydroxy-17-methyl-, (17β)-;Androsta-1,4-dien-3-one, 4-chloro-17β-hydroxy-17-methyl-;(17β)-4-Chloro-17-hydroxy-17-methylandrosta-1,4-dien-3-one;4-Chloro-1-dehydromethyltestosterone;4-Chloro-17α-methyl-17β-hydroxyandrosta-1,4-dien-3-one;4-Chloro-1-dehydro-17-methyltestosterone;1-Dehydro-4-chloro-17α-methyltestosterone;Oral-Turinabol;4-Chlorodianabol;1-Dehydro-4-chloro-17-methyltestosterone;4-Chloromethandienone;4-Chloro-1,2-dehydro-17α-methyltestosterone;4-Chloro-17β-hydroxy-17α-methyl-5α-androsta-1,4-dien-3-one;4-Chlordehydromethyltestosterone;Dehydrochloromethyltestosterone;Turinabol;1,4-Androstadiene-4-chloro-17α-methyl-17β-ol-3-one",
    "duplicated_cas_no": "25466-33-5",
    "SMILES": "C[C@@]12[C@@]3([C@]([C@]4([C@](C)(CC3)[C@@](C)(O)CC4)[H])(CCC1=C(Cl)C(=O)C=C2)[H])[H]",
    "meta_data": {
        "InChI": "InChI=1S/C20H27ClO2/c1-18-9-8-16(22)17(21)15(18)5-4-12-13(18)6-10-19(2)14(12)7-11-20(19,3)23/h8-9,12-14,23H,4-7,10-11H2,1-3H3/t12-,13+,14+,18-,19+,20+/m1/s1",
        "InChIKey": null,
        "Canonical SMILES": "O=C1C=CC2(C(=C1Cl)CCC3C2CCC4(C)C3CCC4(O)C)C",
        "Molecular Formula": "C<sub>20</sub>H<sub>27</sub>ClO<sub>2</sub>",
        "Molecular Mass": "334.88",
        "Melting Point": "149-151 °C"
    }
}