{
    "cas_no": "6327-93-1",
    "key_name": "Macrozamin",
    "cn_name": null,
    "alternate_name": "β-<span class=\"text-smallcaps\">D</smallcap>-Glucopyranoside, (2-methyl-2-oxidodiazenyl)methyl 6-<em>O</em>-β-<smallcap>D</span>-xylopyranosyl-;Macrozamin;β-<span class=\"text-smallcaps\">D</smallcap>-Glucopyranoside, (methyl-<em>ONN</em>-azoxy)methyl 6-<em>O</em>-β-<smallcap>D</span>-xylopyranosyl-;(2-Methyl-2-oxidodiazenyl)methyl 6-<em>O</em>-β-<span class=\"text-smallcaps\">D</smallcap>-xylopyranosyl-β-<smallcap>D</span>-glucopyranoside;NSC 44423",
    "duplicated_cas_no": "40386-89-8",
    "SMILES": "C(O[C@H]1[C@H](O)[C@@H](O)[C@H](O)CO1)[C@H]2O[C@@H](OCN=N(C)=O)[C@H](O)[C@@H](O)[C@@H]2O",
    "meta_data": {
        "InChI": "InChI=1S/C13H24N2O11/c1-15(22)14-4-25-13-11(21)9(19)8(18)6(26-13)3-24-12-10(20)7(17)5(16)2-23-12/h5-13,16-21H,2-4H2,1H3/t5-,6-,7+,8-,9+,10-,11-,12+,13-/m1/s1",
        "InChIKey": null,
        "Canonical SMILES": "O=N(=NCOC1OC(COC2OCC(O)C(O)C2O)C(O)C(O)C1O)C",
        "Molecular Formula": "C<sub>13</sub>H<sub>24</sub>N<sub>2</sub>O<sub>11</sub>",
        "Molecular Mass": "384.34",
        "Melting Point": "199-200 °C"
    }
}