{
    "cas_no": "19748-66-4",
    "key_name": "1-Pyrrolidinepropanol",
    "cn_name": null,
    "alternate_name": "1-Pyrrolidinepropanol;3-(1-Pyrrolidyl)-1-propanol;3-(1-Pyrrolidinyl)propanol;3-Pyrrolidino-1-propanol;<em>N</em>-(3-Hydroxypropyl)pyrrolidine;3-(Pyrrolidin-1-yl)propan-1-ol;1-(3-Hydroxypropyl)pyrrolidine",
    "duplicated_cas_no": "",
    "SMILES": "C(CCO)N1CCCC1",
    "meta_data": {
        "InChI": "InChI=1S/C7H15NO/c9-7-3-6-8-4-1-2-5-8/h9H,1-7H2",
        "InChIKey": null,
        "Canonical SMILES": "OCCCN1CCCC1",
        "Molecular Formula": "C<sub>7</sub>H<sub>15</sub>NO",
        "Molecular Mass": "129.20",
        "Boiling Point": "98 °C @ Press: 18 Torr"
    }
}