{
    "cas_no": "55-51-6",
    "key_name": "<em>N</em>,<em>N</em>-Bis(2-chloroethyl)benzenemethanamine",
    "cn_name": "N-Boc-4-哌啶甲醇;",
    "alternate_name": "Benzenemethanamine, <em>N</em>,<em>N</em>-bis(2-chloroethyl)-;Benzylamine, <em>N</em>,<em>N</em>-bis(2-chloroethyl)-;<em>N</em>,<em>N</em>-Bis(2-chloroethyl)benzenemethanamine;Bis(2-chloroethyl)benzylamine;<em>N</em>-Benzyl-<em>N</em>,<em>N</em>-bis(2-chloroethyl)amine;<em>N</em>,<em>N</em>-Bis(2-chloroethyl)benzylamine;<em>N</em>-Benzylnormechlorethamine;Benzylbis(2-chloroethyl)amine;<em>N</em>-Benzyl-2-chloro-<em>N</em>-(2-chloroethyl)ethanamine;<em>N</em>-Benzyl-2-chloro-<em>N</em>-(2-chloroethyl)ethan-1-amine",
    "duplicated_cas_no": "",
    "SMILES": "N(CC1=CC=CC=C1)(CCCl)CCCl",
    "meta_data": {
        "InChI": "InChI=1S/C11H15Cl2N/c12-6-8-14(9-7-13)10-11-4-2-1-3-5-11/h1-5H,6-10H2",
        "InChIKey": null,
        "Canonical SMILES": "ClCCN(CC=1C=CC=CC1)CCCl",
        "Molecular Formula": "C<sub>11</sub>H<sub>15</sub>Cl<sub>2</sub>N",
        "Molecular Mass": "232.15",
        "Boiling Point": "148-150 °C @ Press: 4 Torr",
        "Melting Point": "148-150 °C"
    }
}