{
    "cas_no": "31098-21-2",
    "key_name": "3-Sulfopropyl methacrylate potassium salt",
    "cn_name": "甲基丙烯酸3-磺酸丙酯钾盐;甲基丙烯酸3-磺酸丙酯钾盐;3-磺酸丙基甲基丙烯酸钾盐;",
    "alternate_name": "2-Propenoic acid, 2-methyl-, 3-sulfopropyl ester, potassium salt (1:1);Methacrylic acid, ester with 3-hydroxy-1-propanesulfonic acid potassium salt;2-Propenoic acid, 2-methyl-, 3-sulfopropyl ester, potassium salt;1-Propanesulfonic acid, 3-hydroxy-, methacrylate, potassium salt;Potassium 3-(methacryloyloxy)propanesulfonate;Potassium 3-sulfopropyl methacrylate;SPM (salt);SPM;3-Sulfopropyl methacrylate potassium salt;Potassium 3-(methacryloyloxy)-1-propanesulfonate;Sulfopropyl methacrylate potassium salt;SPMA-K",
    "duplicated_cas_no": "125430-28-6;393787-02-5;1235514-24-5",
    "SMILES": "O(CCCS(=O)(=O)O)C(C(C)=C)=O.[K]",
    "meta_data": {
        "InChI": "InChI=1S/C7H12O5S.K/c1-6(2)7(8)12-4-3-5-13(9,10)11;/h1,3-5H2,2H3,(H,9,10,11);",
        "InChIKey": null,
        "Canonical SMILES": "[K].O=C(OCCCS(=O)(=O)O)C(=C)C",
        "Molecular Formula": "C<sub>7</sub>H<sub>12</sub>O<sub>5</sub>S.K",
        "Molecular Mass": "",
        "Melting Point": "&gt;300 °C (decomp)"
    }
}