{
    "cas_no": "110-45-2",
    "key_name": "Isoamyl formate",
    "cn_name": "甲酸异戊酯;",
    "alternate_name": "1-Butanol, 3-methyl-, 1-formate;Isopentyl alcohol, formate;1-Butanol, 3-methyl-, formate;Isoamyl formate;Isoamyl methanoate;Isopentyl formate;3-Methylbutyl formate;NSC 6530",
    "duplicated_cas_no": "",
    "SMILES": "C(COC=O)C(C)C",
    "meta_data": {
        "InChI": "InChI=1S/C6H12O2/c1-6(2)3-4-8-5-7/h5-6H,3-4H2,1-2H3",
        "InChIKey": null,
        "Canonical SMILES": "O=COCCC(C)C",
        "Molecular Formula": "C<sub>6</sub>H<sub>12</sub>O<sub>2</sub>",
        "Molecular Mass": "116.16",
        "Boiling Point": "123.5 °C",
        "Melting Point": "-93.5 °C",
        "Density": "0.8820 g/cm³ @ Temp: 20 °C"
    }
}