{
    "cas_no": "528-58-5",
    "key_name": "Cyanidin chloride",
    "cn_name": null,
    "alternate_name": "1-Benzopyrylium, 2-(3,4-dihydroxyphenyl)-3,5,7-trihydroxy-, chloride (1:1);Flavylium, 3,3′,4′,5,7-pentahydroxy-, chloride;1-Benzopyrylium, 2-(3,4-dihydroxyphenyl)-3,5,7-trihydroxy-, chloride;Cyanidol;Cyanidin;Cyanidin chloride;3,3′,4′,5,7-Pentahydroxyflavylium chloride;3,3′,4′,5,7-Pentahydroxy-2-phenylbenzopyrylium chloride;2-(3,4-Dihydroxyphenyl)-3,5,7-trihydroxy-1-benzopyrylium chloride;Cyanidol chloride;IdB 1027;Cyanidine",
    "duplicated_cas_no": "",
    "SMILES": "OC=1C(=[O+]C2=C(C1)C(O)=CC(O)=C2)C3=CC(O)=C(O)C=C3.[Cl-]",
    "meta_data": {
        "InChI": "InChI=1S/C15H10O6.ClH/c16-8-4-11(18)9-6-13(20)15(21-14(9)5-8)7-1-2-10(17)12(19)3-7;/h1-6H,(H4-,16,17,18,19,20);1H",
        "InChIKey": null,
        "Canonical SMILES": "[Cl-].OC=1C=C(O)C=2C=C(O)C(=[O+]C2C1)C=3C=CC(O)=C(O)C3",
        "Molecular Formula": "C<sub>15</sub>H<sub>11</sub>O<sub>6</sub>.Cl",
        "Molecular Mass": "",
        "Melting Point": "&gt;300 °C"
    }
}