{
    "cas_no": "1891-90-3",
    "key_name": "4-(Trifluoromethyl)benzamide",
    "cn_name": "4-三氟甲基苯甲酰胺;对三氟甲基苯甲酰胺;",
    "alternate_name": "Benzamide, 4-(trifluoromethyl)-;<em>p</em>-Toluamide, α,α,α-trifluoro-;4-(Trifluoromethyl)benzamide;4-Trifluoromethylbenzamide;<em>p</em>-(Trifluoromethyl)benzamide;NSC 160490",
    "duplicated_cas_no": "",
    "SMILES": "C(F)(F)(F)C1=CC=C(C(N)=O)C=C1",
    "meta_data": {
        "InChI": "InChI=1S/C8H6F3NO/c9-8(10,11)6-3-1-5(2-4-6)7(12)13/h1-4H,(H2,12,13)",
        "InChIKey": null,
        "Canonical SMILES": "O=C(N)C1=CC=C(C=C1)C(F)(F)F",
        "Molecular Formula": "C<sub>8</sub>H<sub>6</sub>F<sub>3</sub>NO",
        "Molecular Mass": "189.13",
        "Melting Point": "185 °C"
    }
}