{
    "cas_no": "25713-60-4",
    "key_name": "2,4,6-Tris(2,4,6-tribromophenoxy)-1,3,5-triazine",
    "cn_name": "三(三溴苯氧基)三嗪;三(三溴苯基)氰尿酸酯;TBPC;",
    "alternate_name": "1,3,5-Triazine, 2,4,6-tris(2,4,6-tribromophenoxy)-;<em>s</em>-Triazine, 2,4,6-tris(2,4,6-tribromophenoxy)-;2,4,6-Tris(2,4,6-tribromophenoxy)-1,3,5-triazine;Tris(2,4,6-tribromophenoxy)-<em>s</em>-triazine;GX 6145;Pyroguard SR 245;SR 245;FR 245;FR 245 (flame retardant);FR 368;FR 235;2,4,6-Tri(2,4,6-tribromophenoxy)-1,3,5-triazine;BTAC 245;SR 103",
    "duplicated_cas_no": "157971-54-5",
    "SMILES": "O(C1=C(Br)C=C(Br)C=C1Br)C=2N=C(OC3=C(Br)C=C(Br)C=C3Br)N=C(OC4=C(Br)C=C(Br)C=C4Br)N2",
    "meta_data": {
        "InChI": "InChI=1S/C21H6Br9N3O3/c22-7-1-10(25)16(11(26)2-7)34-19-31-20(35-17-12(27)3-8(23)4-13(17)28)33-21(32-19)36-18-14(29)5-9(24)6-15(18)30/h1-6H",
        "InChIKey": null,
        "Canonical SMILES": "BrC=1C=C(Br)C(OC=2N=C(N=C(N2)OC=3C(Br)=CC(Br)=CC3Br)OC=4C(Br)=CC(Br)=CC4Br)=C(Br)C1",
        "Molecular Formula": "C<sub>21</sub>H<sub>6</sub>Br<sub>9</sub>N<sub>3</sub>O<sub>3</sub>",
        "Molecular Mass": "1067.43",
        "Melting Point": "225-235 °C"
    }
}