{
    "cas_no": "5314-37-4",
    "key_name": "[1,1′-Biphenyl]-4,4′-disulfonic acid",
    "cn_name": "4,4\"-联苯二磺酸;",
    "alternate_name": "[1,1′-Biphenyl]-4,4′-disulfonic acid;4,4′-Biphenyldisulfonic acid;NSC 6781",
    "duplicated_cas_no": "1176203-47-6",
    "SMILES": "S(=O)(=O)(O)C1=CC=C(C=C1)C2=CC=C(S(=O)(=O)O)C=C2",
    "meta_data": {
        "InChI": "InChI=1S/C12H10O6S2/c13-19(14,15)11-5-1-9(2-6-11)10-3-7-12(8-4-10)20(16,17)18/h1-8H,(H,13,14,15)(H,16,17,18)",
        "InChIKey": null,
        "Canonical SMILES": "O=S(=O)(O)C1=CC=C(C=C1)C=2C=CC(=CC2)S(=O)(=O)O",
        "Molecular Formula": "C<sub>12</sub>H<sub>10</sub>O<sub>6</sub>S<sub>2</sub>",
        "Molecular Mass": "314.33",
        "Melting Point": "72.5 °C"
    }
}