{
    "cas_no": "999-82-6",
    "key_name": "<em>P</em>-(2-Bromoethyl)phosphonic acid",
    "cn_name": null,
    "alternate_name": "Phosphonic acid, <em>P</em>-(2-bromoethyl)-;Phosphonic acid, (2-bromoethyl)-;<em>P</em>-(2-Bromoethyl)phosphonic acid;(2-Bromoethyl)phosphonic acid;2-Bromoethanephosphonic acid",
    "duplicated_cas_no": "",
    "SMILES": "C(P(=O)(O)O)CBr",
    "meta_data": {
        "InChI": "InChI=1S/C2H6BrO3P/c3-1-2-7(4,5)6/h1-2H2,(H2,4,5,6)",
        "InChIKey": null,
        "Canonical SMILES": "O=P(O)(O)CCBr",
        "Molecular Formula": "C<sub>2</sub>H<sub>6</sub>BrO<sub>3</sub>P",
        "Molecular Mass": "188.95",
        "Melting Point": "86-87 °C"
    }
}