{
    "cas_no": "919-29-9",
    "key_name": "1,1,1-Triethoxypentane",
    "cn_name": "原戊酸三乙酯;",
    "alternate_name": "Pentane, 1,1,1-triethoxy-;Orthovaleric acid, triethyl ester;1,1,1-Triethoxypentane;Triethyl orthovalerate;Triethyl orthopentanoate",
    "duplicated_cas_no": "",
    "SMILES": "C(CCCC)(OCC)(OCC)OCC",
    "meta_data": {
        "InChI": "InChI=1S/C11H24O3/c1-5-9-10-11(12-6-2,13-7-3)14-8-4/h5-10H2,1-4H3",
        "InChIKey": null,
        "Canonical SMILES": "O(CC)C(OCC)(OCC)CCCC",
        "Molecular Formula": "C<sub>11</sub>H<sub>24</sub>O<sub>3</sub>",
        "Molecular Mass": "204.31",
        "Boiling Point": "49-50 °C @ Press: 3 Torr",
        "Density": "0.873 g/cm³ @ Temp: 25 °C"
    }
}