{
    "cas_no": "102308-97-4",
    "key_name": "1-Methyl-1<em>H</em>-indol-5-amine",
    "cn_name": null,
    "alternate_name": "1<em>H</em>-Indol-5-amine, 1-methyl-;Indole, 5-amino-1-methyl-;1-Methyl-1<em>H</em>-indol-5-amine;1-Methyl-5-aminoindole;2-Methyl-5-amino-1<em>H</em>-indole;(1-Methylindol-5-yl)amine;1-Methyl-5-amino-1<em>H</em>-indole;5-Amino-1-methylindole;5-Amino-1-methyl-1<em>H</em>-indole;1-Methylindol-5-amine;<em>N</em>-(1-Methyl-1<em>H</em>-indol-5-yl)amine",
    "duplicated_cas_no": "",
    "SMILES": "CN1C=2C(C=C1)=CC(N)=CC2",
    "meta_data": {
        "InChI": "InChI=1S/C9H10N2/c1-11-5-4-7-6-8(10)2-3-9(7)11/h2-6H,10H2,1H3",
        "InChIKey": null,
        "Canonical SMILES": "NC=1C=CC2=C(C=CN2C)C1",
        "Molecular Formula": "C<sub>9</sub>H<sub>10</sub>N<sub>2</sub>",
        "Molecular Mass": "146.19",
        "Boiling Point": "143-144 °C @ Press: 2 Torr",
        "Melting Point": "100-101.5 °C"
    }
}