{
    "cas_no": "613-29-6",
    "key_name": "<em>N</em>,<em>N</em>-Dibutylbenzenamine",
    "cn_name": "二丁基苯胺;N,N-二正丁基苯胺;N,N-二丁苯胺;",
    "alternate_name": "Benzenamine, <em>N</em>,<em>N</em>-dibutyl-;Aniline, <em>N</em>,<em>N</em>-dibutyl-;<em>N</em>,<em>N</em>-Dibutylbenzenamine;<em>N</em>-Phenyldibutylamine;<em>N</em>,<em>N</em>-Dibutylaniline;Dibutylaniline;1,4-Bis(2-butylamino)benzene",
    "duplicated_cas_no": "594839-00-6",
    "SMILES": "N(CCCC)(CCCC)C1=CC=CC=C1",
    "meta_data": {
        "InChI": "InChI=1S/C14H23N/c1-3-5-12-15(13-6-4-2)14-10-8-7-9-11-14/h7-11H,3-6,12-13H2,1-2H3",
        "InChIKey": null,
        "Canonical SMILES": "C=1C=CC(=CC1)N(CCCC)CCCC",
        "Molecular Formula": "C<sub>14</sub>H<sub>23</sub>N",
        "Molecular Mass": "205.34",
        "Boiling Point": "274.8 °C",
        "Melting Point": "-32.2 °C",
        "Density": "0.9000 g/cm³ @ Temp: 25 °C"
    }
}