{
    "cas_no": "81-61-8",
    "key_name": "Quinalizarin",
    "cn_name": "醌茜素;",
    "alternate_name": "9,10-Anthracenedione, 1,2,5,8-tetrahydroxy-;Anthraquinone, 1,2,5,8-tetrahydroxy-;Quinalizarin;1,2,5,8-Tetrahydroxy-9,10-anthracenedione;C.I. 58500;Alizarinbordeaux;Alizarine Bordeaux B;C.I. Mordant Violet 26;Quinalizarine;1,2,5,8-Tetrahydroxyanthraquinone;Alizarine Bordeaux;Khinalizarin;1,2,5,8-Tetrahydroxy-9,10-anthraquinone;1,4,5,6-Tetrahydroxyanthraquinone;Alizarin Bordeaux BD;NSC 144046;NSC 4896;PHF 016;Quinazarin",
    "duplicated_cas_no": "",
    "SMILES": "O=C1C=2C(C(=O)C=3C1=C(O)C(O)=CC3)=C(O)C=CC2O",
    "meta_data": {
        "InChI": "InChI=1S/C14H8O6/c15-6-3-4-7(16)11-10(6)12(18)5-1-2-8(17)13(19)9(5)14(11)20/h1-4,15-17,19H",
        "InChIKey": null,
        "Canonical SMILES": "O=C1C2=CC=C(O)C(O)=C2C(=O)C=3C(O)=CC=C(O)C13",
        "Molecular Formula": "C<sub>14</sub>H<sub>8</sub>O<sub>6</sub>",
        "Molecular Mass": "272.21",
        "Melting Point": "&gt;275 °C"
    }
}