{
    "cas_no": "42265-67-8",
    "key_name": "2-Chloro-4-(1,1-dimethylethyl)benzenamine",
    "cn_name": "4-叔丁基-2-氯苯胺;",
    "alternate_name": "Benzenamine, 2-chloro-4-(1,1-dimethylethyl)-;Aniline, 4-<em>tert</em>-butyl-2-chloro-;2-Chloro-4-(1,1-dimethylethyl)benzenamine;4-<em>tert</em>-Butyl-2-chlorobenzenamine;(4-<em>tert</em>-Butyl-2-chlorophenyl)amine;2-Chloro-4-(1,1-dimethylethyl)aniline;4-<em>tert</em>-Butyl-2-chloroaniline",
    "duplicated_cas_no": "",
    "SMILES": "C(C)(C)(C)C1=CC(Cl)=C(N)C=C1",
    "meta_data": {
        "InChI": "InChI=1S/C10H14ClN/c1-10(2,3)7-4-5-9(12)8(11)6-7/h4-6H,12H2,1-3H3",
        "InChIKey": null,
        "Canonical SMILES": "ClC1=CC(=CC=C1N)C(C)(C)C",
        "Molecular Formula": "C<sub>10</sub>H<sub>14</sub>ClN",
        "Molecular Mass": "183.68",
        "Boiling Point": "102-104 °C @ Press: 7 Torr"
    }
}