{
    "cas_no": "756-80-9",
    "key_name": "<em>O</em>,<em>O</em>-Dimethyl phosphorodithioate",
    "cn_name": "二甲基二硫代磷酸酯;O,O-二甲基二硫代磷酸酯;",
    "alternate_name": "Phosphorodithioic acid, <em>O</em>,<em>O</em>-dimethyl ester;Methyl phosphorodithioate;<em>O</em>,<em>O</em>-Dimethyl dithiophosphate;<em>O</em>,<em>O</em>-Dimethyl phosphorodithioic acid;<em>O</em>,<em>O</em>-Dimethyl hydrogen dithiophosphate;<em>O</em>,<em>O</em>-Dimethyl dithiophosphoric acid;<em>O</em>,<em>O</em>-Dimethyl phosphorodithioate;<em>O</em>,<em>O</em>′-Dimethyl hydrogen dithiophosphate;<em>O</em>,<em>O</em>′-Dimethyl dithiophosphate",
    "duplicated_cas_no": "",
    "SMILES": "P(OC)(OC)(=S)S",
    "meta_data": {
        "InChI": "InChI=1S/C2H7O2PS2/c1-3-5(6,7)4-2/h1-2H3,(H,6,7)",
        "InChIKey": null,
        "Canonical SMILES": "S=P(S)(OC)OC",
        "Molecular Formula": "C<sub>2</sub>H<sub>7</sub>O<sub>2</sub>PS<sub>2</sub>",
        "Molecular Mass": "158.18",
        "Boiling Point": "62-63 °C @ Press: 4.5 Torr",
        "Density": "1.2888 g/cm³ @ Temp: 20 °C"
    }
}