{
    "cas_no": "130-85-8",
    "key_name": "Pamoic acid",
    "cn_name": null,
    "alternate_name": "2-Naphthalenecarboxylic acid, 4,4′-methylenebis[3-hydroxy-;2-Naphthoic acid, 4,4′-methylenebis[3-hydroxy-;4,4′-Methylenebis[3-hydroxy-2-naphthalenecarboxylic acid];2,2′-Dihydroxy-1,1′-dinaphthylmethane-3,3′-dicarboxylic acid;Embonic acid;Pamoic acid;Bis(2-hydroxy-3-carboxy-1-naphthyl)methane;4,4′-Methylenebis[3-hydroxy-2-naphthoic acid];NSC 30188;NSC 40132;KG 122;4,4′-Methylenebis(3-hydroxy-2-naphthalenecarboxylic acid);4-[(3-Carboxy-2-hydroxynaphthalen-1-yl)methyl]-3-hydroxynaphthalene-2-carboxylic acid",
    "duplicated_cas_no": "108626-78-4;122541-93-9;47620-91-7;50857-36-8;67232-45-5",
    "SMILES": "C(C=1C2=C(C=C(C(O)=O)C1O)C=CC=C2)C=3C4=C(C=C(C(O)=O)C3O)C=CC=C4",
    "meta_data": {
        "InChI": "InChI=1S/C23H16O6/c24-20-16(14-7-3-1-5-12(14)9-18(20)22(26)27)11-17-15-8-4-2-6-13(15)10-19(21(17)25)23(28)29/h1-10,24-25H,11H2,(H,26,27)(H,28,29)",
        "InChIKey": null,
        "Canonical SMILES": "O=C(O)C1=CC=2C=CC=CC2C(=C1O)CC3=C(O)C(=CC=4C=CC=CC43)C(=O)O",
        "Molecular Formula": "C<sub>23</sub>H<sub>16</sub>O<sub>6</sub>",
        "Molecular Mass": "388.37",
        "Melting Point": "315 °C"
    }
}