{
    "cas_no": "69304-38-7",
    "key_name": "3′,5′-<em>O</em>-[1,1,3,3-Tetrakis(1-methylethyl)-1,3-disiloxanediyl]uridine",
    "cn_name": "3\",5\"-O-(1,1,3,3-四异丙基-1,3-二硅氧烷)尿苷;",
    "alternate_name": "Uridine, 3′,5′-<em>O</em>-[1,1,3,3-tetrakis(1-methylethyl)-1,3-disiloxanediyl]-;6<em>H</em>-Furo[3,2-<em>f</em>]-1,3,5,2,4-trioxadisilocin, uridine deriv.;3′,5′-<em>O</em>-[1,1,3,3-Tetrakis(1-methylethyl)-1,3-disiloxanediyl]uridine;3′,5′-<em>O</em>-(Tetraisopropyldisiloxanediyl)uridine;3′,5′-<em>O</em>-(1,1,3,3-Tetraisopropyldisiloxan-1,3-diyl)uridine",
    "duplicated_cas_no": "174088-68-7;2848679-35-4",
    "SMILES": "C(C)(C)[Si]1(C(C)C)O[Si](C(C)C)(C(C)C)OC[C@@]2([C@@](O1)([C@@H](O)[C@@H](O2)N3C(=O)NC(=O)C=C3)[H])[H]",
    "meta_data": {
        "InChI": "InChI=1S/C21H38N2O7Si2/c1-12(2)31(13(3)4)27-11-16-19(29-32(30-31,14(5)6)15(7)8)18(25)20(28-16)23-10-9-17(24)22-21(23)26/h9-10,12-16,18-20,25H,11H2,1-8H3,(H,22,24,26)/t16-,18-,19-,20-/m1/s1",
        "InChIKey": null,
        "Canonical SMILES": "O=C1C=CN(C(=O)N1)C2OC3CO[Si](O[Si](OC3C2O)(C(C)C)C(C)C)(C(C)C)C(C)C",
        "Molecular Formula": "C<sub>21</sub>H<sub>38</sub>N<sub>2</sub>O<sub>7</sub>Si<sub>2</sub>",
        "Molecular Mass": "486.71",
        "Melting Point": "75-76 °C"
    }
}