{
    "cas_no": "5931-17-9",
    "key_name": "1,3-Bis(4-hydroxybutyl)tetramethyldisiloxane",
    "cn_name": "1,3-二(4-羟基丁基)-1,1,3,3-四甲基二硅氧烷;",
    "alternate_name": "1-Butanol, 4,4′-(1,1,3,3-tetramethyl-1,3-disiloxanediyl)bis-;6-Oxa-5,7-disilaundecane-1,11-diol, 5,5,7,7-tetramethyl-;4,4′-(1,1,3,3-Tetramethyl-1,3-disiloxanediyl)bis[1-butanol];1,3-Bis(4-hydroxybutyl)-1,1,3,3-tetramethyldisiloxane;1,3-Bis(4-hydroxybutyl)tetramethyldisiloxane",
    "duplicated_cas_no": "",
    "SMILES": "O([Si](CCCCO)(C)C)[Si](CCCCO)(C)C",
    "meta_data": {
        "InChI": "InChI=1S/C12H30O3Si2/c1-16(2,11-7-5-9-13)15-17(3,4)12-8-6-10-14/h13-14H,5-12H2,1-4H3",
        "InChIKey": null,
        "Canonical SMILES": "OCCCC[Si](O[Si](C)(C)CCCCO)(C)C",
        "Molecular Formula": "C<sub>12</sub>H<sub>30</sub>O<sub>3</sub>Si<sub>2</sub>",
        "Molecular Mass": "278.54",
        "Boiling Point": "148-150 °C @ Press: 2 Torr",
        "Density": "0.930 g/cm³"
    }
}