{
    "cas_no": "1184-76-5",
    "key_name": "Methane, difluorodiiodo-",
    "cn_name": "二碘二氟甲烷;",
    "alternate_name": "Methane, difluorodiiodo-;Difluorodiiodomethane;Diiododifluoromethane",
    "duplicated_cas_no": "",
    "SMILES": "C(F)(F)(I)I",
    "meta_data": {
        "InChI": "InChI=1S/CF2I2/c2-1(3,4)5",
        "InChIKey": null,
        "Canonical SMILES": "FC(F)(I)I",
        "Molecular Formula": "CF<sub>2</sub>I<sub>2</sub>",
        "Molecular Mass": "303.82",
        "Melting Point": "-72 °C"
    }
}