{
    "cas_no": "28691-47-6",
    "key_name": "1,2-Benzisoxazole-3-carboxylic acid",
    "cn_name": null,
    "alternate_name": "1,2-Benzisoxazole-3-carboxylic acid;3-Carboxy-1,2-benzisoxazole;Benzo[<em>d</em>]isoxazole-3-carboxylic acid;3-Benzo[<em>d</em>]isoxazolecarboxylic acid;1,2-Benzoxazole-3-carboxylic acid",
    "duplicated_cas_no": "",
    "SMILES": "C(O)(=O)C=1C=2C(ON1)=CC=CC2",
    "meta_data": {
        "InChI": "InChI=1S/C8H5NO3/c10-8(11)7-5-3-1-2-4-6(5)12-9-7/h1-4H,(H,10,11)",
        "InChIKey": null,
        "Canonical SMILES": "O=C(O)C1=NOC=2C=CC=CC21",
        "Molecular Formula": "C<sub>8</sub>H<sub>5</sub>NO<sub>3</sub>",
        "Molecular Mass": "163.13",
        "Melting Point": "145-146 °C"
    }
}