{
    "cas_no": "632-85-9",
    "key_name": "Wogonin",
    "cn_name": "汉黄芩素;5,7-二羟基-8-甲氧基-2-苯基-4H-1-苯并呋喃-4-酮;",
    "alternate_name": "4<em>H</em>-1-Benzopyran-4-one, 5,7-dihydroxy-8-methoxy-2-phenyl-;Flavone, 5,7-dihydroxy-8-methoxy-;Wogonin;5,7-Dihydroxy-8-methoxy-2-phenyl-4<em>H</em>-1-benzopyran-4-one;5,7-Dihydroxy-8-methoxyflavone",
    "duplicated_cas_no": "",
    "SMILES": "O=C1C=2C(=C(OC)C(O)=CC2O)OC(=C1)C3=CC=CC=C3",
    "meta_data": {
        "InChI": "InChI=1S/C16H12O5/c1-20-15-12(19)7-10(17)14-11(18)8-13(21-16(14)15)9-5-3-2-4-6-9/h2-8,17,19H,1H3",
        "InChIKey": null,
        "Canonical SMILES": "O=C1C=C(OC=2C(OC)=C(O)C=C(O)C12)C=3C=CC=CC3",
        "Molecular Formula": "C<sub>16</sub>H<sub>12</sub>O<sub>5</sub>",
        "Molecular Mass": "284.26",
        "Melting Point": "201 °C"
    }
}