{
    "cas_no": "25391-56-4",
    "key_name": "3-Iodo-5-nitro-2-pyridinamine",
    "cn_name": null,
    "alternate_name": "2-Pyridinamine, 3-iodo-5-nitro-;Pyridine, 2-amino-3-iodo-5-nitro-;3-Iodo-5-nitro-2-pyridinamine;2-Amino-3-iodo-5-nitropyridine;3-Iodo-5-nitro-1,2-dihydropyridin-2-imine",
    "duplicated_cas_no": "",
    "SMILES": "N(=O)(=O)C=1C=C(I)C(N)=NC1",
    "meta_data": {
        "InChI": "InChI=1S/C5H4IN3O2/c6-4-1-3(9(10)11)2-8-5(4)7/h1-2H,(H2,7,8)",
        "InChIKey": null,
        "Canonical SMILES": "O=N(=O)C1=CN=C(N)C(I)=C1",
        "Molecular Formula": "C<sub>5</sub>H<sub>4</sub>IN<sub>3</sub>O<sub>2</sub>",
        "Molecular Mass": "265.01",
        "Melting Point": "237 °C"
    }
}