{
    "cas_no": "5532-41-2",
    "key_name": "(3β,21β)-13,17-Dimethyl-<em>A</em>′-neo-26,28-dinorgammacer-9(11)-en-3-ol",
    "cn_name": null,
    "alternate_name": "<em>A</em>′-Neo-26,28-dinorgammacer-9(11)-en-3-ol, 13,17-dimethyl-, (3β,21β)-;Isoarborinol;<em>D</em>:<em>C</em>-Friedo-<em>B</em>′:<em>A</em>′-neo-8β,13β,14α,17β,18α,21α<span class=\"text-smallcaps\">H</span>-gammacer-9(11)-en-3β-ol;<em>D</em>:<em>C</em>-Friedo-<em>B</em>′:<em>A</em>′-neogammacer-9(11)-en-3-ol, (3β,8β,13β,14α,17β,18α,21β)-;Arborinol B;(3β,21β)-13,17-Dimethyl-<em>A</em>′-neo-26,28-dinorgammacer-9(11)-en-3-ol;3β-Arborinol;(+)-Isoarborinol;Sorghumol",
    "duplicated_cas_no": "90582-44-8",
    "SMILES": "C[C@@]12[C@](C)([C@]3(C(=CC1)[C@]4(C)[C@@](CC3)(C(C)(C)[C@@H](O)CC4)[H])[H])CC[C@]5(C)[C@@]2(CC[C@H]5C(C)C)[H]",
    "meta_data": {
        "InChI": "InChI=1S/C30H50O/c1-19(2)20-9-12-24-28(20,6)17-18-29(7)22-10-11-23-26(3,4)25(31)14-15-27(23,5)21(22)13-16-30(24,29)8/h13,19-20,22-25,31H,9-12,14-18H2,1-8H3/t20-,22+,23-,24-,25-,27+,28-,29-,30+/m0/s1",
        "InChIKey": null,
        "Canonical SMILES": "OC1CCC2(C3=CCC4(C)C5CCC(C(C)C)C5(C)CCC4(C)C3CCC2C1(C)C)C",
        "Molecular Formula": "C<sub>30</sub>H<sub>50</sub>O",
        "Molecular Mass": "426.72",
        "Melting Point": "298-299 °C"
    }
}