{
    "cas_no": "603-52-1",
    "key_name": "Ethyl <em>N</em>,<em>N</em>-diphenylcarbamate",
    "cn_name": "N,N-二苯基氨基甲酸乙酯;",
    "alternate_name": "Carbamic acid, <em>N</em>,<em>N</em>-diphenyl-, ethyl ester;Carbamic acid, diphenyl-, ethyl ester;Ethyl <em>N</em>,<em>N</em>-diphenylcarbamate;Diphenylurethane;Ethyl <em>N</em>,<em>N</em>-diphenyl carbamate;Ethyl diphenylcarbamate;NSC 3568",
    "duplicated_cas_no": "",
    "SMILES": "N(C(OCC)=O)(C1=CC=CC=C1)C2=CC=CC=C2",
    "meta_data": {
        "InChI": "InChI=1S/C15H15NO2/c1-2-18-15(17)16(13-9-5-3-6-10-13)14-11-7-4-8-12-14/h3-12H,2H2,1H3",
        "InChIKey": null,
        "Canonical SMILES": "O=C(OCC)N(C=1C=CC=CC1)C=2C=CC=CC2",
        "Molecular Formula": "C<sub>15</sub>H<sub>15</sub>NO<sub>2</sub>",
        "Molecular Mass": "241.29",
        "Boiling Point": "360 °C",
        "Melting Point": "72 °C"
    }
}