{
    "cas_no": "977-79-7",
    "key_name": "Medrogestone",
    "cn_name": "美屈孕酮;",
    "alternate_name": "Pregna-4,6-diene-3,20-dione, 6,17-dimethyl-;6,17-Dimethylpregna-4,6-diene-3,20-dione;AY 62022;Colprone;Medrogestone;Metrogestone;AY 13615S;Medrogesterone;6,17-Dimethyl-6-dehydroprogesterone;Colpro;Etogyn;AY 13615;Prothil;NSC 123018",
    "duplicated_cas_no": "",
    "SMILES": "C[C@@]12[C@]([C@]3([C@@]([C@]4(C)C(C(C)=C3)=CC(=O)CC4)(CC1)[H])[H])(CC[C@@]2(C(C)=O)C)[H]",
    "meta_data": {
        "InChI": "InChI=1S/C23H32O2/c1-14-12-17-18(21(3)9-6-16(25)13-20(14)21)7-11-23(5)19(17)8-10-22(23,4)15(2)24/h12-13,17-19H,6-11H2,1-5H3/t17-,18+,19+,21-,22-,23+/m1/s1",
        "InChIKey": null,
        "Canonical SMILES": "O=C1C=C2C(=CC3C(CCC4(C)C3CCC4(C(=O)C)C)C2(C)CC1)C",
        "Molecular Formula": "C<sub>23</sub>H<sub>32</sub>O<sub>2</sub>",
        "Molecular Mass": "340.50",
        "Melting Point": "144 °C"
    }
}