{
    "cas_no": "7336-33-6",
    "key_name": "3-Demethylcolchicine",
    "cn_name": null,
    "alternate_name": "Acetamide, <em>N</em>-[(7<em>S</em>)-5,6,7,9-tetrahydro-3-hydroxy-1,2,10-trimethoxy-9-oxobenzo[<em>a</em>]heptalen-7-yl]-;Colchicine, <em>O</em><sup>3</sup>-demethyl-;Acetamide, <em>N</em>-(5,6,7,9-tetrahydro-3-hydroxy-1,2,10-trimethoxy-9-oxobenzo[<em>a</em>]heptalen-7-yl)-, (<em>S</em>)-;Colchicine, 2-demethyl-;Benzo[<em>a</em>]heptalene, acetamide deriv.;<em>N</em>-[(7<em>S</em>)-5,6,7,9-Tetrahydro-3-hydroxy-1,2,10-trimethoxy-9-oxobenzo[<em>a</em>]heptalen-7-yl]acetamide;3-Demethylcolchicine;3-Desmethylcolchicine;<em>O</em><sup>3</sup>-Demethylcolchicine;3-Demethyl-(-)-colchicine",
    "duplicated_cas_no": "",
    "SMILES": "O(C)C1=C2C=3C([C@@H](NC(C)=O)CCC2=CC(O)=C1OC)=CC(=O)C(OC)=CC3",
    "meta_data": {
        "InChI": "InChI=1S/C21H23NO6/c1-11(23)22-15-7-5-12-9-17(25)20(27-3)21(28-4)19(12)13-6-8-18(26-2)16(24)10-14(13)15/h6,8-10,15,25H,5,7H2,1-4H3,(H,22,23)/t15-/m0/s1",
        "InChIKey": null,
        "Canonical SMILES": "O=C1C=C2C(=CC=C1OC)C3=C(OC)C(OC)=C(O)C=C3CCC2NC(=O)C",
        "Molecular Formula": "C<sub>21</sub>H<sub>23</sub>NO<sub>6</sub>",
        "Molecular Mass": "385.41",
        "Melting Point": "177-180 °C"
    }
}