{
    "cas_no": "7782-49-2",
    "key_name": "Selenium",
    "cn_name": "硒;硒粉;",
    "alternate_name": "Selenium;C.I. 77805;B-TRAXIM Se;Selenium (Se);Selsaf 2000;Serendipita MKCA6-3;MeSH ID: D012643",
    "duplicated_cas_no": "95788-45-7;11125-23-8;11133-88-3;12640-29-8;12640-30-1;12641-96-2;12733-65-2;37256-19-2;37258-85-8;37276-15-6;37368-02-8;50954-17-1;51882-60-1",
    "SMILES": "[Se]",
    "meta_data": {
        "InChI": "InChI=1S/Se",
        "InChIKey": null,
        "Canonical SMILES": "[Se]",
        "Molecular Formula": "Se",
        "Molecular Mass": "",
        "Boiling Point": "685 °C",
        "Melting Point": "170-217 °C",
        "Density": "4.8 g/cm³"
    }
}