{
    "cas_no": "1669-44-9",
    "key_name": "3-Octen-2-one",
    "cn_name": "3-辛烯-2-酮;",
    "alternate_name": "3-Octen-2-one;1-Hexenyl methyl ketone",
    "duplicated_cas_no": "",
    "SMILES": "C(=CC(C)=O)CCCC",
    "meta_data": {
        "InChI": "InChI=1S/C8H14O/c1-3-4-5-6-7-8(2)9/h6-7H,3-5H2,1-2H3",
        "InChIKey": null,
        "Canonical SMILES": "O=C(C=CCCCC)C",
        "Molecular Formula": "C<sub>8</sub>H<sub>14</sub>O",
        "Molecular Mass": "126.20",
        "Boiling Point": "69-70 °C @ Press: 11 Torr"
    }
}