{
    "cas_no": "1504-74-1",
    "key_name": "2-Methoxycinnamaldehyde",
    "cn_name": "2\"-甲氧基肉桂醛;邻甲氧基肉桂醛;3-(2-甲氧基苯基)-2-丙烯醛;",
    "alternate_name": "2-Propenal, 3-(2-methoxyphenyl)-;Cinnamaldehyde, <em>o</em>-methoxy-;3-(2-Methoxyphenyl)-2-propenal;<em>o</em>-Methoxycinnamaldehyde;2-Methoxycinnamaldehyde;<em>o</em>-Methoxycinnamic aldehyde;NSC 114599;3-(2-Methoxyphenyl)propenal;3-(2-Methoxyphenyl)acrylaldehyde",
    "duplicated_cas_no": "",
    "SMILES": "C(=CC=O)C1=C(OC)C=CC=C1",
    "meta_data": {
        "InChI": "InChI=1S/C10H10O2/c1-12-10-7-3-2-5-9(10)6-4-8-11/h2-8H,1H3",
        "InChIKey": null,
        "Canonical SMILES": "O=CC=CC=1C=CC=CC1OC",
        "Molecular Formula": "C<sub>10</sub>H<sub>10</sub>O<sub>2</sub>",
        "Molecular Mass": "162.19",
        "Boiling Point": "165-167 °C @ Press: 13 Torr",
        "Melting Point": "44-45 °C"
    }
}