{
    "cas_no": "10476-85-4",
    "key_name": "Strontium chloride",
    "cn_name": "氯化锶;",
    "alternate_name": "Strontium chloride (SrCl<sub>2</sub>);Strontium chloride;Strontium dichloride;STC-K",
    "duplicated_cas_no": "",
    "SMILES": "[Sr](Cl)Cl",
    "meta_data": {
        "InChI": "InChI=1S/2ClH.Sr/h2*1H;/q;;+2/p-2",
        "InChIKey": null,
        "Canonical SMILES": "Cl[Sr]Cl",
        "Molecular Formula": "Cl<sub>2</sub>Sr",
        "Molecular Mass": "",
        "Melting Point": "874 °C",
        "Density": "3.054 g/cm³"
    }
}