{
    "cas_no": "31910-18-6",
    "key_name": "1,4-Dihydro-6-methoxy-2,3-quinoxalinedione",
    "cn_name": null,
    "alternate_name": "2,3-Quinoxalinedione, 1,4-dihydro-6-methoxy-;2,3-Quinoxalinediol, 6-methoxy-;2(1<em>H</em>)-Quinoxalinone, 3-hydroxy-6-methoxy-;1,4-Dihydro-6-methoxy-2,3-quinoxalinedione",
    "duplicated_cas_no": "",
    "SMILES": "O(C)C=1C=C2C(NC(=O)C(=O)N2)=CC1",
    "meta_data": {
        "InChI": "InChI=1S/C9H8N2O3/c1-14-5-2-3-6-7(4-5)11-9(13)8(12)10-6/h2-4H,1H3,(H,10,12)(H,11,13)",
        "InChIKey": null,
        "Canonical SMILES": "O=C1NC2=CC=C(OC)C=C2NC1=O",
        "Molecular Formula": "C<sub>9</sub>H<sub>8</sub>N<sub>2</sub>O<sub>3</sub>",
        "Molecular Mass": "192.17",
        "Melting Point": "350 °C"
    }
}