{
    "cas_no": "11097-69-1",
    "key_name": "PCB 1254",
    "cn_name": null,
    "alternate_name": "PCB 1254;Aroclor 1254",
    "duplicated_cas_no": "",
    "SMILES": "",
    "meta_data": {
        "InChI": "",
        "InChIKey": null,
        "Canonical SMILES": "",
        "Molecular Formula": "Unspecified",
        "Molecular Mass": "",
        "Boiling Point": "365-390 °C",
        "Density": "1.495-1.505 g/cm³ @ Temp: 65 °C"
    }
}