{
    "uri": "substance/pt/11097691",
    "rn": "11097-69-1",
    "name": "PCB 1254",
    "images": [],
    "inchi": "",
    "inchiKey": "",
    "smile": "",
    "canonicalSmile": "",
    "molecularFormula": "Unspecified",
    "molecularMass": "",
    "experimentalProperties": [
        {
            "name": "Boiling Point",
            "property": "365-390 °C",
            "sourceNumber": 1
        },
        {
            "name": "Density",
            "property": "1.495-1.505 g/cm³ @ Temp: 65 °C",
            "sourceNumber": 2
        }
    ],
    "propertyCitations": [
        {
            "docUri": "",
            "sourceNumber": 1,
            "source": "PhysProp data were obtained from Syracuse Research Corporation of Syracuse, New York (US)"
        },
        {
            "docUri": "",
            "sourceNumber": 2,
            "source": "Hazardous Substances Data Bank data were obtained from the National Library of Medicine (US)"
        }
    ],
    "synonyms": [
        "PCB 1254",
        "Aroclor 1254"
    ],
    "replacedRns": [],
    "hasMolfile": false,
    "source": "https://commonchemistry.cas.org/detail?cas_rn=11097-69-1"
}