{
    "cas_no": "915095-94-2",
    "key_name": "(3<em>S</em>)-3-[4-[(2-Chloro-5-iodophenyl)methyl]phenoxy]tetrahydrofuran",
    "cn_name": null,
    "alternate_name": "Furan, 3-[4-[(2-chloro-5-iodophenyl)methyl]phenoxy]tetrahydro-, (3<em>S</em>)-;(3<em>S</em>)-3-[4-[(2-Chloro-5-iodophenyl)methyl]phenoxy]tetrahydrofuran;(<em>S</em>)-3-(4-(2-Chloro-5-iodobenzyl)phenoxy)tetrahydrofuran;(3S)-3-[4-[(2-Chloro-5-iodophenyl)methyl]phenoxy]oxolane",
    "duplicated_cas_no": "",
    "SMILES": "C(C1=C(Cl)C=CC(I)=C1)C2=CC=C(O[C@H]3CCOC3)C=C2",
    "meta_data": {
        "InChI": "InChI=1S/C17H16ClIO2/c18-17-6-3-14(19)10-13(17)9-12-1-4-15(5-2-12)21-16-7-8-20-11-16/h1-6,10,16H,7-9,11H2/t16-/m0/s1",
        "InChIKey": null,
        "Canonical SMILES": "ClC1=CC=C(I)C=C1CC2=CC=C(OC3COCC3)C=C2",
        "Molecular Formula": "C<sub>17</sub>H<sub>16</sub>ClIO<sub>2</sub>",
        "Molecular Mass": "414.67",
        "Melting Point": "60-62 °C"
    }
}