{
    "cas_no": "85006-31-1",
    "key_name": "Methyl 3-amino-4-methylthiophene-2-carboxylate",
    "cn_name": null,
    "alternate_name": "2-Thiophenecarboxylic acid, 3-amino-4-methyl-, methyl ester;Methyl 3-amino-4-methylthiophene-2-carboxylate;2-Methoxycarbonyl-3-amino-4-methylthiophene;3-Amino-4-methylthiophene-2-carboxylic acid methyl ester;3-Amino-4-methyl-2-methoxycarbonylthiophene",
    "duplicated_cas_no": "",
    "SMILES": "C(OC)(=O)C1=C(N)C(C)=CS1",
    "meta_data": {
        "InChI": "InChI=1S/C7H9NO2S/c1-4-3-11-6(5(4)8)7(9)10-2/h3H,8H2,1-2H3",
        "InChIKey": null,
        "Canonical SMILES": "O=C(OC)C=1SC=C(C1N)C",
        "Molecular Formula": "C<sub>7</sub>H<sub>9</sub>NO<sub>2</sub>S",
        "Molecular Mass": "171.22",
        "Melting Point": "84-85 °C"
    }
}