{
    "cas_no": "84-26-4",
    "key_name": "Rutaecarpine",
    "cn_name": "吴茱萸次碱;",
    "alternate_name": "Indolo[2′,3′:3,4]pyrido[2,1-<em>b</em>]quinazolin-5(7<em>H</em>)-one, 8,13-dihydro-;Rutecarpine;8,13-Dihydroindolo[2′,3′:3,4]pyrido[2,1-<em>b</em>]quinazolin-5(7<em>H</em>)-one;Rutaecarpine;Rhetine;NSC 258317;3,13,21-Triazapentacyclo[11.8.0.0[2,10].0[4,9].0[15,20]]henicosa-1(21),2(10),4(9),5,7,15(20),16,18-octaen-14-one",
    "duplicated_cas_no": "",
    "SMILES": "O=C1N2C(C3=C(C=4C(N3)=CC=CC4)CC2)=NC=5C1=CC=CC5",
    "meta_data": {
        "InChI": "InChI=1S/C18H13N3O/c22-18-13-6-2-4-8-15(13)20-17-16-12(9-10-21(17)18)11-5-1-3-7-14(11)19-16/h1-8,19H,9-10H2",
        "InChIKey": null,
        "Canonical SMILES": "O=C1C=2C=CC=CC2N=C3C=4NC=5C=CC=CC5C4CCN13",
        "Molecular Formula": "C<sub>18</sub>H<sub>13</sub>N<sub>3</sub>O",
        "Molecular Mass": "287.32",
        "Melting Point": "260 °C"
    }
}