{
    "cas_no": "21855-16-3",
    "key_name": "2-Ethyl 2,6-pyridinedicarboxylate",
    "cn_name": null,
    "alternate_name": "2,6-Pyridinedicarboxylic acid, 2-ethyl ester;2,6-Pyridinedicarboxylic acid, monoethyl ester;2-Ethyl 2,6-pyridinedicarboxylate;Methyl dipicolinate;6-Ethoxycarbonyl-2-pyridinecarboxylic acid",
    "duplicated_cas_no": "",
    "SMILES": "C(OCC)(=O)C=1N=C(C(O)=O)C=CC1",
    "meta_data": {
        "InChI": "InChI=1S/C9H9NO4/c1-2-14-9(13)7-5-3-4-6(10-7)8(11)12/h3-5H,2H2,1H3,(H,11,12)",
        "InChIKey": null,
        "Canonical SMILES": "O=C(O)C=1N=C(C=CC1)C(=O)OCC",
        "Molecular Formula": "C<sub>9</sub>H<sub>9</sub>NO<sub>4</sub>",
        "Molecular Mass": "195.17",
        "Melting Point": "121 °C"
    }
}