{
    "cas_no": "502764-53-6",
    "key_name": "Dithieno[3,2-<em>b</em>:2′,3′-<em>d</em>]thiophene-2,6-dicarboxylic acid",
    "cn_name": null,
    "alternate_name": "Dithieno[3,2-<em>b</em>:2′,3′-<em>d</em>]thiophene-2,6-dicarboxylic acid",
    "duplicated_cas_no": "",
    "SMILES": "C(O)(=O)C=1SC=2C3=C(SC2C1)C=C(C(O)=O)S3",
    "meta_data": {
        "InChI": "InChI=1S/C10H4O4S3/c11-9(12)5-1-3-7(16-5)8-4(15-3)2-6(17-8)10(13)14/h1-2H,(H,11,12)(H,13,14)",
        "InChIKey": null,
        "Canonical SMILES": "O=C(O)C=1SC2=C(SC=3C=C(SC32)C(=O)O)C1",
        "Molecular Formula": "C<sub>10</sub>H<sub>4</sub>O<sub>4</sub>S<sub>3</sub>",
        "Molecular Mass": "284.33",
        "Melting Point": "&gt;300 °C"
    }
}