{
    "cas_no": "16529-56-9",
    "key_name": "2-Methyl-3-butenenitrile",
    "cn_name": "2-甲基-3-丁烯腈;",
    "alternate_name": "3-Butenenitrile, 2-methyl-;2-Methyl-3-butenenitrile;2-Methyl-3-butenonitrile;3-Cyanobut-1-ene",
    "duplicated_cas_no": "",
    "SMILES": "C(C=C)(C#N)C",
    "meta_data": {
        "InChI": "InChI=1S/C5H7N/c1-3-5(2)4-6/h3,5H,1H2,2H3",
        "InChIKey": null,
        "Canonical SMILES": "N#CC(C=C)C",
        "Molecular Formula": "C<sub>5</sub>H<sub>7</sub>N",
        "Molecular Mass": "81.12",
        "Boiling Point": "126 °C",
        "Density": "0.8131 g/cm³ @ Temp: 20 °C"
    }
}