{
    "cas_no": "25875-50-7",
    "key_name": "Robenidine hydrochloride",
    "cn_name": "盐酸氯苯胍;1,3-双(对氯苄叉氨基)胍盐酸盐;",
    "alternate_name": "Carbonimidic dihydrazide, 2,2′-bis[(4-chlorophenyl)methylene]-, hydrochloride (1:1);Guanidine, 1,3-bis[(<em>p</em>-chlorobenzylidene)amino]-, monohydrochloride;Carbonimidic dihydrazide, bis[(4-chlorophenyl)methylene]-, monohydrochloride;Robenzidene;Robenidine hydrochloride;1,3-Bis[(<em>p</em>-chlorobenzylidene)amino]guanidine monohydrochloride;Cycostat;NCL 812;2,2′-Bis[(4-chlorophenyl)methylene]carbonimidic dihydrazide hydrochloride",
    "duplicated_cas_no": "12692-91-0",
    "SMILES": "C(=NNC(NN=CC1=CC=C(Cl)C=C1)=N)C2=CC=C(Cl)C=C2.Cl",
    "meta_data": {
        "InChI": "InChI=1S/C15H13Cl2N5.ClH/c16-13-5-1-11(2-6-13)9-19-21-15(18)22-20-10-12-3-7-14(17)8-4-12;/h1-10H,(H3,18,21,22);1H",
        "InChIKey": null,
        "Canonical SMILES": "Cl.ClC1=CC=C(C=NNC(=N)NN=CC2=CC=C(Cl)C=C2)C=C1",
        "Molecular Formula": "C<sub>15</sub>H<sub>13</sub>Cl<sub>2</sub>N<sub>5</sub>.ClH",
        "Molecular Mass": "",
        "Melting Point": "289-290 °C"
    }
}