{
    "cas_no": "75-75-2",
    "key_name": "Methanesulfonic acid",
    "cn_name": "甲基磺酸;",
    "alternate_name": "Methanesulfonic acid;Methylsulfonic acid;MCAT 1201;NSC 3718;Scaleva;Mesylic acid;Lutropure MAS;Lutropur MSA;Lutropur G 100;Circuposit Neutralizer 3319/4190;Methanesulfonic acids;Mesylates;Lutropur MSA 100;Lutropur M",
    "duplicated_cas_no": "44209-64-5;44209-72-5;62203-24-1;87128-90-3;98527-29-8;115449-98-4;125756-91-4;1129867-34-0;1821687-51-7",
    "SMILES": "S(C)(=O)(=O)O",
    "meta_data": {
        "InChI": "InChI=1S/CH4O3S/c1-5(2,3)4/h1H3,(H,2,3,4)",
        "InChIKey": null,
        "Canonical SMILES": "O=S(=O)(O)C",
        "Molecular Formula": "CH<sub>4</sub>O<sub>3</sub>S",
        "Molecular Mass": "96.11",
        "Boiling Point": "167 °C @ Press: 10 Torr",
        "Melting Point": "20 °C",
        "Density": "1.4812 g/cm³ @ Temp: 18 °C"
    }
}