{
    "cas_no": "542-44-9",
    "key_name": "1-Monopalmitin",
    "cn_name": "甘油脂肪酸酯;单羟基化菜油丙三醇脂肪酸酯;",
    "alternate_name": "Hexadecanoic acid, 2,3-dihydroxypropyl ester;Palmitin, 1-mono-;α-Monopalmitin;1-Monopalmitin;Glyceryl palmitate;Glycerol 3-palmitate;Glycerol 1-palmitate;Glycerol 1-monopalmitate;Palmitic acid α-monoglyceride;Hexadecanoic acid α-monoglyceride;1-Monohexadecanoylglycerol;(±)-1-Monopalmitin;(±)-1-Hexadecanoylglycerol;<span class=\"text-smallcaps\">D</smallcap><smallcap>L</span>-1-Monopalmitin;1-<em>O</em>-Palmitoyl-<span class=\"text-smallcaps\">D</smallcap><smallcap>L</span>-glycerol;1-Monopalmitoyl-<em>rac</em>-glycerol;(±)-1-<em>O</em>-Hexadecanoylglycerol;1-Palmitoyl-<em>rac</em>-glycerol;Dimodan PA 90;1-Glycerol hexadecanoate;NSC 404240;1-<em>O</em>-Palmitoylglycerol;Glycerol 1-monohexadecanoate;2,3-Dihydroxypropyl palmitate;2,3-Dihydroxypropyl hexadecanoate;1-Glyceryl monohexadecanoate;1-Palmitoyl-rac-glycerol;1-Monohexadecanoyl-rac-glycerol",
    "duplicated_cas_no": "10161-77-0;19670-51-0",
    "SMILES": "C(C(OCC(CO)O)=O)CCCCCCCCCCCCCC",
    "meta_data": {
        "InChI": "InChI=1S/C19H38O4/c1-2-3-4-5-6-7-8-9-10-11-12-13-14-15-19(22)23-17-18(21)16-20/h18,20-21H,2-17H2,1H3",
        "InChIKey": null,
        "Canonical SMILES": "O=C(OCC(O)CO)CCCCCCCCCCCCCCC",
        "Molecular Formula": "C<sub>19</sub>H<sub>38</sub>O<sub>4</sub>",
        "Molecular Mass": "330.50",
        "Melting Point": "71-72 °C"
    }
}