{
    "cas_no": "1036027-54-9",
    "key_name": "5-(Trifluoromethyl)-1<em>H</em>-pyrrolo[2,3-<em>b</em>]pyridine",
    "cn_name": null,
    "alternate_name": "1<em>H</em>-Pyrrolo[2,3-<em>b</em>]pyridine, 5-(trifluoromethyl)-;5-(Trifluoromethyl)-1<em>H</em>-pyrrolo[2,3-<em>b</em>]pyridine",
    "duplicated_cas_no": "",
    "SMILES": "C(F)(F)(F)C=1C=C2C(=NC1)NC=C2",
    "meta_data": {
        "InChI": "InChI=1S/C8H5F3N2/c9-8(10,11)6-3-5-1-2-12-7(5)13-4-6/h1-4H,(H,12,13)",
        "InChIKey": null,
        "Canonical SMILES": "FC(F)(F)C=1C=NC=2NC=CC2C1",
        "Molecular Formula": "C<sub>8</sub>H<sub>5</sub>F<sub>3</sub>N<sub>2</sub>",
        "Molecular Mass": "186.13",
        "Melting Point": "104-105 °C"
    }
}