{
    "cas_no": "636-53-3",
    "key_name": "1,3-Diethyl 1,3-benzenedicarboxylate",
    "cn_name": "间苯二甲酸二乙酯;间苯二甲酸二乙酯;1,3-苯二甲酸二乙酯;",
    "alternate_name": "1,3-Benzenedicarboxylic acid, 1,3-diethyl ester;Isophthalic acid, diethyl ester;1,3-Benzenedicarboxylic acid, diethyl ester;1,3-Diethyl 1,3-benzenedicarboxylate;Diethyl isophthalate;Diethyl 1,3-benzenedicarboxylate;NSC 249815",
    "duplicated_cas_no": "",
    "SMILES": "C(OCC)(=O)C1=CC(C(OCC)=O)=CC=C1",
    "meta_data": {
        "InChI": "InChI=1S/C12H14O4/c1-3-15-11(13)9-6-5-7-10(8-9)12(14)16-4-2/h5-8H,3-4H2,1-2H3",
        "InChIKey": null,
        "Canonical SMILES": "O=C(OCC)C1=CC=CC(=C1)C(=O)OCC",
        "Molecular Formula": "C<sub>12</sub>H<sub>14</sub>O<sub>4</sub>",
        "Molecular Mass": "222.24",
        "Boiling Point": "302 °C @ Press: 760 Torr",
        "Melting Point": "11.5 °C",
        "Density": "1.1239 g/cm³ @ Temp: 17 °C"
    }
}