{
    "cas_no": "3743-22-4",
    "key_name": "2-(Dimethylamino)phenol",
    "cn_name": null,
    "alternate_name": "Phenol, 2-(dimethylamino)-;Phenol, <em>o</em>-(dimethylamino)-;2-(Dimethylamino)phenol;<em>o</em>-(Dimethylamino)phenol;2-Hydroxy-<em>N</em>,<em>N</em>-dimethylaniline;<em>N</em>,<em>N</em>-Dimethyl-2-aminophenol;2-(<em>N</em>,<em>N</em>-Dimethylamino)phenol",
    "duplicated_cas_no": "",
    "SMILES": "N(C)(C)C1=C(O)C=CC=C1",
    "meta_data": {
        "InChI": "InChI=1S/C8H11NO/c1-9(2)7-5-3-4-6-8(7)10/h3-6,10H,1-2H3",
        "InChIKey": null,
        "Canonical SMILES": "OC=1C=CC=CC1N(C)C",
        "Molecular Formula": "C<sub>8</sub>H<sub>11</sub>NO",
        "Molecular Mass": "137.18",
        "Boiling Point": "62-63 °C @ Press: 5 Torr",
        "Melting Point": "45-46 °C"
    }
}