{
    "cas_no": "3760-11-0",
    "key_name": "2-Nonenoic acid",
    "cn_name": "反-2-壬烯酸;",
    "alternate_name": "2-Nonenoic acid;NSC 32357",
    "duplicated_cas_no": "",
    "SMILES": "C(CCCCC)C=CC(O)=O",
    "meta_data": {
        "InChI": "InChI=1S/C9H16O2/c1-2-3-4-5-6-7-8-9(10)11/h7-8H,2-6H2,1H3,(H,10,11)",
        "InChIKey": null,
        "Canonical SMILES": "O=C(O)C=CCCCCCC",
        "Molecular Formula": "C<sub>9</sub>H<sub>16</sub>O<sub>2</sub>",
        "Molecular Mass": "156.22",
        "Boiling Point": "220-223 °C",
        "Melting Point": "0-1 °C",
        "Density": "0.9345 g/cm³ @ Temp: 17.100009765625 °C"
    }
}