{
    "cas_no": "70989-04-7",
    "key_name": "(+)-Mephenytoin",
    "cn_name": null,
    "alternate_name": "2,4-Imidazolidinedione, 5-ethyl-3-methyl-5-phenyl-, (5<em>S</em>)-;2,4-Imidazolidinedione, 5-ethyl-3-methyl-5-phenyl-, (<em>S</em>)-;(5<em>S</em>)-5-Ethyl-3-methyl-5-phenyl-2,4-imidazolidinedione;(<em>S</em>)-Mephenytoin;<em>d</em>-Mephenytoin;(+)-Mephenytoin;(+)-<em>S</em>-Mephenytoin;(+)-5-Ethyl-3-methyl-5-phenylhydantoin;(+)-Mesantoin;(<em>S</em>)-5-Ethyl-3-methyl-5-phenylimidazolidine-2,4-dione",
    "duplicated_cas_no": "",
    "SMILES": "C(C)[C@@]1(C(=O)N(C)C(=O)N1)C2=CC=CC=C2",
    "meta_data": {
        "InChI": "InChI=1S/C12H14N2O2/c1-3-12(9-7-5-4-6-8-9)10(15)14(2)11(16)13-12/h4-8H,3H2,1-2H3,(H,13,16)/t12-/m0/s1",
        "InChIKey": null,
        "Canonical SMILES": "O=C1NC(C=2C=CC=CC2)(C(=O)N1C)CC",
        "Molecular Formula": "C<sub>12</sub>H<sub>14</sub>N<sub>2</sub>O<sub>2</sub>",
        "Molecular Mass": "218.25",
        "Melting Point": "135 °C"
    }
}