{
    "cas_no": "65202-52-0",
    "key_name": "3-Pyridazinecarboxylic acid, 6-bromo-, methyl ester",
    "cn_name": null,
    "alternate_name": "3-Pyridazinecarboxylic acid, 6-bromo-, methyl ester;Methyl 3-bromopyridazine-6-carboxylate;Methyl 6-bromopyridazine-3-carboxylate",
    "duplicated_cas_no": "",
    "SMILES": "C(OC)(=O)C1=CC=C(Br)N=N1",
    "meta_data": {
        "InChI": "InChI=1S/C6H5BrN2O2/c1-11-6(10)4-2-3-5(7)9-8-4/h2-3H,1H3",
        "InChIKey": null,
        "Canonical SMILES": "O=C(OC)C1=NN=C(Br)C=C1",
        "Molecular Formula": "C<sub>6</sub>H<sub>5</sub>BrN<sub>2</sub>O<sub>2</sub>",
        "Molecular Mass": "217.02",
        "Melting Point": "159-160 °C"
    }
}