{
    "cas_no": "203-64-5",
    "key_name": "4<em>H</em>-Cyclopenta[<em>def</em>]phenanthrene",
    "cn_name": "4H-环五菲;",
    "alternate_name": "4<em>H</em>-Cyclopenta[<em>def</em>]phenanthrene;Benzo[<em>def</em>]fluorene;Methane, 4,5-phenanthrylene-;4,5-Methylenephenanthrene;Phenanthrene, 4,5-methylene-;4,5-Phenanthrylenemethane;Methylenephenanthrene;NSC 88888",
    "duplicated_cas_no": "",
    "SMILES": "C12=C3C=4CC1=CC=CC2=CC=C3C=CC4",
    "meta_data": {
        "InChI": "InChI=1S/C15H10/c1-3-10-7-8-11-4-2-6-13-9-12(5-1)14(10)15(11)13/h1-8H,9H2",
        "InChIKey": null,
        "Canonical SMILES": "C=1C=C2C=CC3=CC=CC4=C3C2=C(C1)C4",
        "Molecular Formula": "C<sub>15</sub>H<sub>10</sub>",
        "Molecular Mass": "190.24",
        "Boiling Point": "353 °C",
        "Melting Point": "114 °C"
    }
}