{
    "cas_no": "90-18-6",
    "key_name": "Quercetagetin",
    "cn_name": "六羟黄酮/栎草亭;六羟黄酮/栎草亭;",
    "alternate_name": "4<em>H</em>-1-Benzopyran-4-one, 2-(3,4-dihydroxyphenyl)-3,5,6,7-tetrahydroxy-;Quercetagetin;Flavone, 3,3′,4′,5,6,7-hexahydroxy-;2-(3,4-Dihydroxyphenyl)-3,5,6,7-tetrahydroxy-4<em>H</em>-1-benzopyran-4-one;3,3′,4′,5,6,7-Hexahydroxyflavone;3,5,6,7,3′,4′-Hexahydroxyflavone;6-Hydroxyquercetin;NSC 115916",
    "duplicated_cas_no": "",
    "SMILES": "O=C1C=2C(OC(=C1O)C3=CC(O)=C(O)C=C3)=CC(O)=C(O)C2O",
    "meta_data": {
        "InChI": "InChI=1S/C15H10O8/c16-6-2-1-5(3-7(6)17)15-14(22)13(21)10-9(23-15)4-8(18)11(19)12(10)20/h1-4,16-20,22H",
        "InChIKey": null,
        "Canonical SMILES": "O=C1C(O)=C(OC2=CC(O)=C(O)C(O)=C12)C=3C=CC(O)=C(O)C3",
        "Molecular Formula": "C<sub>15</sub>H<sub>10</sub>O<sub>8</sub>",
        "Molecular Mass": "318.24",
        "Melting Point": "315-318 °C"
    }
}