{
    "cas_no": "1499-55-4",
    "key_name": "5-Methyl hydrogen <span class=\"text-smallcaps\">L</span>-glutamate",
    "cn_name": "L-谷氨酸-5-甲酯;L-谷氨酸gamma-甲酯;",
    "alternate_name": "<span class=\"text-smallcaps\">L</span>-Glutamic acid, 5-methyl ester;Glutamic acid, 5-methyl ester, <span class=\"text-smallcaps\">L</span>-;5-Methyl hydrogen <span class=\"text-smallcaps\">L</span>-glutamate;<span class=\"text-smallcaps\">L</span>-Glutamic acid γ-methyl ester;γ-Methyl <span class=\"text-smallcaps\">L</span>-glutamate;5-Methyl <span class=\"text-smallcaps\">L</span>-glutamate;Glutamic acid 5-methyl ester;γ-Methyl (<em>S</em>)-glutamate;4(<em>S</em>)-Carboxy-4-aminobutanoic acid methyl ester;γ-Methyl L-glutamate;NSC 12959;(<em>S</em>)-2-Aminopentanedioic acid 5-methyl ester;(<em>S</em>)-Glutamic acid 5-methyl ester;(2S)-2-Amino-5-methoxy-5-oxo-pentanoic acid",
    "duplicated_cas_no": "111468-11-2;2409-98-5;53303-59-6;53682-67-0;144595-23-3",
    "SMILES": "C(CC(OC)=O)[C@@H](C(O)=O)N",
    "meta_data": {
        "InChI": "InChI=1S/C6H11NO4/c1-11-5(8)3-2-4(7)6(9)10/h4H,2-3,7H2,1H3,(H,9,10)/t4-/m0/s1",
        "InChIKey": null,
        "Canonical SMILES": "O=C(O)C(N)CCC(=O)OC",
        "Molecular Formula": "C<sub>6</sub>H<sub>11</sub>NO<sub>4</sub>",
        "Molecular Mass": "161.16",
        "Melting Point": "172.6-173.6 °C"
    }
}