{
    "cas_no": "137-04-2",
    "key_name": "Benzenamine, 2-chloro-, hydrochloride (1:1)",
    "cn_name": "邻氯苯胺盐酸盐;2-氯苯胺盐酸盐;",
    "alternate_name": "Benzenamine, 2-chloro-, hydrochloride (1:1);Aniline, <em>o</em>-chloro-, hydrochloride;Benzenamine, 2-chloro-, hydrochloride;Amarthol Fast Yellow GC Base;Amarthol Fast Yellow GC Salt;Ansibases Yellow GC;Azoene Fast Yellow GC Base;Azoene Fast Yellow GC Salt;Daito Yellow Base GC;Daito Yellow Salt GC;Fast Yellow Base GC;Fast Yellow Base JS;Fast Yellow MC;Fast Yellow OC Base;Fast Yellow OC Salt;Fast Yellow Salt GC;Fast Yellow Salt JS;Hiltonil Fast Yellow GC Base;Hiltosal Fast Yellow GC Salt;Hindasol Yellow GC Salt;Kako Yellow GC Base;Mitsui Yellow GC Base;Naphtoelan Fast Yellow GC Base;Naphtoelan Fast Yellow GC Salt;Natasol Fast Yellow GC Salt;Sanyo Fast Yellow GC Base;Sanyo Fast Yellow Salt GC;Spectrolene Orange HD;Yellow Base NGC;Yellow GC Salt;<em>o</em>-Chloroaniline hydrochloride;2-Chloroaniline hydrochloride;2-Chloroanilinium chloride",
    "duplicated_cas_no": "",
    "SMILES": "ClC1=C(N)C=CC=C1.Cl",
    "meta_data": {
        "InChI": "InChI=1S/C6H6ClN.ClH/c7-5-3-1-2-4-6(5)8;/h1-4H,8H2;1H",
        "InChIKey": null,
        "Canonical SMILES": "Cl.ClC=1C=CC=CC1N",
        "Molecular Formula": "C<sub>6</sub>H<sub>6</sub>ClN.ClH",
        "Molecular Mass": "",
        "Melting Point": "235 °C",
        "Density": "1.505 g/cm³"
    }
}