{
    "cas_no": "3233-32-7",
    "key_name": "4-Hydroxyphenyl acetate",
    "cn_name": null,
    "alternate_name": "1,4-Benzenediol, 1-acetate;Hydroquinone, monoacetate;1,4-Benzenediol, monoacetate;Hydroquinone, acetate;4-Hydroxyphenyl acetate;4-Acetoxyphenol;4-(Acetyloxy)phenol;NSC 47899;<em>p</em>-Hydroxyphenyl acetate",
    "duplicated_cas_no": "",
    "SMILES": "O(C(C)=O)C1=CC=C(O)C=C1",
    "meta_data": {
        "InChI": "InChI=1S/C8H8O3/c1-6(9)11-8-4-2-7(10)3-5-8/h2-5,10H,1H3",
        "InChIKey": null,
        "Canonical SMILES": "O=C(OC1=CC=C(O)C=C1)C",
        "Molecular Formula": "C<sub>8</sub>H<sub>8</sub>O<sub>3</sub>",
        "Molecular Mass": "152.15",
        "Melting Point": "62-63 °C"
    }
}