{
    "cas_no": "7597-18-4",
    "key_name": "6-Nitroindazole",
    "cn_name": "6-硝基吲唑;",
    "alternate_name": "1<em>H</em>-Indazole, 6-nitro-;Indazole, 6-nitro-;6-Nitro-1<em>H</em>-indazole;6-Nitroindazole;6-Nitroisoindazole;NSC 35066;NSC 56816",
    "duplicated_cas_no": "",
    "SMILES": "N(=O)(=O)C=1C=C2C(=CC1)C=NN2",
    "meta_data": {
        "InChI": "InChI=1S/C7H5N3O2/c11-10(12)6-2-1-5-4-8-9-7(5)3-6/h1-4H,(H,8,9)",
        "InChIKey": null,
        "Canonical SMILES": "O=N(=O)C=1C=CC=2C=NNC2C1",
        "Molecular Formula": "C<sub>7</sub>H<sub>5</sub>N<sub>3</sub>O<sub>2</sub>",
        "Molecular Mass": "163.13",
        "Melting Point": "181 °C"
    }
}