{
    "cas_no": "1804-87-1",
    "key_name": "2-Propenoic acid, 2-methyl-, 2-sulfoethyl ester, sodium salt (1:1)",
    "cn_name": "甲基丙烯酸2-乙磺酸酯钠盐;",
    "alternate_name": "2-Propenoic acid, 2-methyl-, 2-sulfoethyl ester, sodium salt (1:1);2-Propenoic acid, 2-methyl-, 2-sulfoethyl ester, sodium salt;Methacrylic acid, ester with 2-hydroxyethanesulfonic acid, sodium salt;Methacrylic acid, 2-sulfoethyl ester, sodium salt;Ethanesulfonic acid, 2-hydroxy-, methacrylate, sodium salt;Sodium 2-sulfoethyl methacrylate;2-Sulfoethyl methacrylate sodium salt;Newfrontier LX 1000;2-Sodiosulfoethyl methacrylate;Antox MS 2N;Sodium 2-(methacryloyloxy)ethanesulfonate;2-(Methacryloyloxy)ethylsulfonic acid sodium salt;Acryester SEM-Na;Sulfoethyl methacrylate sodium salt;Sodium 2-(methacryloyloxy)ethylsulfonate;Antox S 2N-D",
    "duplicated_cas_no": "113989-20-1;121484-14-8;124873-46-7",
    "SMILES": "C(OC(C(C)=C)=O)CS(=O)(=O)O.[Na]",
    "meta_data": {
        "InChI": "InChI=1S/C6H10O5S.Na/c1-5(2)6(7)11-3-4-12(8,9)10;/h1,3-4H2,2H3,(H,8,9,10);",
        "InChIKey": null,
        "Canonical SMILES": "[Na].O=C(OCCS(=O)(=O)O)C(=C)C",
        "Molecular Formula": "C<sub>6</sub>H<sub>10</sub>O<sub>5</sub>S.Na",
        "Molecular Mass": "",
        "Melting Point": "245 °C"
    }
}