{
    "cas_no": "14447-15-5",
    "key_name": "Propyl cyanoacetate",
    "cn_name": "氰基乙酸正丙酯;氰乙酸正丙酯;",
    "alternate_name": "Acetic acid, 2-cyano-, propyl ester;Acetic acid, cyano-, propyl ester;Propyl cyanoacetate;<em>n</em>-Propyl cyanoacetate;Cyanoacetic acid propyl ester;Propyl 2-cyanoacetate",
    "duplicated_cas_no": "",
    "SMILES": "C(OCCC)(CC#N)=O",
    "meta_data": {
        "InChI": "InChI=1S/C6H9NO2/c1-2-5-9-6(8)3-4-7/h2-3,5H2,1H3",
        "InChIKey": null,
        "Canonical SMILES": "N#CCC(=O)OCCC",
        "Molecular Formula": "C<sub>6</sub>H<sub>9</sub>NO<sub>2</sub>",
        "Molecular Mass": "127.14",
        "Boiling Point": "216-216.5 °C @ Press: 754 Torr",
        "Density": "1.0249 g/cm³ @ Temp: 20 °C"
    }
}