{
    "cas_no": "13395-16-9",
    "key_name": "Copper(II) acetylacetonate",
    "cn_name": "乙酰丙酮酸铜;二乙酰丙酮铜;",
    "alternate_name": "Copper, bis(2,4-pentanedionato-κ<em>O</em><sup>2</sup>,κ<em>O</em><sup>4</sup>)-, (<em>SP</em>-4-1)-;Copper, bis(2,4-pentanedionato)-;Copper, bis(2,4-pentanedionato-<em>O</em>,<em>O</em>′)-, (<em>SP</em>-4-1)-;Copper, bis(2,4-pentanedionato-κ<em>O</em>,κ<em>O</em>′)-, (<em>SP</em>-4-1)-;(<em>SP</em>-4-1)-Bis(2,4-pentanedionato-κ<em>O</em><sup>2</sup>,κ<em>O</em><sup>4</sup>)copper;Copper(II) acetylacetonate;Copper bis(acetylacetonate);Bis(2,4-pentanedionato)copper;Copper bis(acetylacetone);Copper diacetylacetonate;Cupric acetylacetonate;Bis(acetylacetonato)copper;Bis(acetylacetone)copper;Copper bis(2,4-pentanedionate);CD 9;Cupric bis(2,4-pentanedionate);Nacem Copper;Copper(2+) bis(acetylacetonate);Copper(II) bis(2,4-pentanedionate);Copper acetylacetonate",
    "duplicated_cas_no": "34371-82-9;34371-83-0;34418-24-1",
    "SMILES": "CC1=O[Cu+2]2(O=C(C)[CH-]C(C)=O2)O=C(C)[CH-]1",
    "meta_data": {
        "InChI": "InChI=1S/2C5H7O2.Cu/c2*1-4(6)3-5(2)7;/h2*3H,1-2H3;/q2*-1;+2",
        "InChIKey": null,
        "Canonical SMILES": "O1=C([CH-]C(=O[Cu+2]12O=C([CH-]C(=O2)C)C)C)C",
        "Molecular Formula": "C<sub>10</sub>H<sub>14</sub>CuO<sub>4</sub>",
        "Molecular Mass": "",
        "Melting Point": "279-283 °C",
        "Density": "0.721 g/cm³"
    }
}