{
    "cas_no": "1208-87-3",
    "key_name": "1-(Chloromethyl)-4-(phenylthio)benzene",
    "cn_name": "4-苯硫基氯苄;对苯硫基氯苄;",
    "alternate_name": "Benzene, 1-(chloromethyl)-4-(phenylthio)-;Sulfide, α-chloro-<em>p</em>-tolyl phenyl;1-(Chloromethyl)-4-(phenylthio)benzene;4-Phenylthiobenzyl chloride;NSC 43056;1-(Chloromethyl)-4-phenylsulfanylbenzene;(4-(Chloromethyl)phenyl)(phenyl)sulfane;1-(Chloromethyl)-4-(phenylsulfanyl)benzene",
    "duplicated_cas_no": "",
    "SMILES": "S(C1=CC=C(CCl)C=C1)C2=CC=CC=C2",
    "meta_data": {
        "InChI": "InChI=1S/C13H11ClS/c14-10-11-6-8-13(9-7-11)15-12-4-2-1-3-5-12/h1-9H,10H2",
        "InChIKey": null,
        "Canonical SMILES": "ClCC1=CC=C(SC=2C=CC=CC2)C=C1",
        "Molecular Formula": "C<sub>13</sub>H<sub>11</sub>ClS",
        "Molecular Mass": "234.74",
        "Boiling Point": "136-138 °C @ Press: 0.1 Torr"
    }
}