{
    "cas_no": "1260-05-5",
    "key_name": "1<em>H</em>-Cyclohepta[1,2-<em>a</em>:5,4-<em>a</em>′]dinaphthalene-3,11-diol, 2,3,4,4a,5,6,6a,7,9,9a,10,11,12,13,13a,13b,14,15,15a,15b-eicosahydro-4,4,6a,10,10,13a,15b-heptamethyl-, 3-acetate, (3<em>S</em>,4a<em>R</em>,6a<em>S</em>,9a<em>R</em>,11<em>R</em>,13a<em>R</em>,13b<em>S</em>,15a<em>S</em>,15b<em>R</em>)-",
    "cn_name": null,
    "alternate_name": "1<em>H</em>-Cyclohepta[1,2-<em>a</em>:5,4-<em>a</em>′]dinaphthalene-3,11-diol, 2,3,4,4a,5,6,6a,7,9,9a,10,11,12,13,13a,13b,14,15,15a,15b-eicosahydro-4,4,6a,10,10,13a,15b-heptamethyl-, 3-acetate, (3<em>S</em>,4a<em>R</em>,6a<em>S</em>,9a<em>R</em>,11<em>R</em>,13a<em>R</em>,13b<em>S</em>,15a<em>S</em>,15b<em>R</em>)-;<em>C</em>(<em>14a</em>)-Homo-27-norgammacer-14-ene-3,21-diol, 3-acetate, (3β,21β)-;21-Episerratenediol, 3-acetate;Phlegmanol C;21-<em>epi</em>-Serratenediol 3-acetate;1<em>H</em>-Cyclohepta[1,2-<em>a</em>:5,4-<em>a</em>′]dinaphthalene-3,11-diol, 2,3,4,4a,5,6,6a,7,9,9a,10,11,12,13,13a,13b,14,15,15a,15b-eicosahydro-4,4,6a,10,10,13a,15b-heptamethyl-, 3-acetate, [3<em>S</em>-(3α,4aβ,6aα,9aα,11α,13aβ,13bα,15aβ,15bα)]-;21β-Hydroxyserrat-14-en-3β-yl acetate",
    "duplicated_cas_no": "",
    "SMILES": "C[C@@]12[C@@]3([C@](C)(CC=4[C@](CC3)([C@]5(C)[C@@](CC4)(C(C)(C)[C@H](O)CC5)[H])[H])CC[C@]1(C(C)(C)[C@@H](OC(C)=O)CC2)[H])[H]",
    "meta_data": {
        "InChI": "InChI=1S/C32H52O3/c1-20(33)35-27-15-18-32(8)24(29(27,4)5)13-16-30(6)19-21-9-11-23-28(2,3)26(34)14-17-31(23,7)22(21)10-12-25(30)32/h9,22-27,34H,10-19H2,1-8H3/t22-,23-,24-,25-,26+,27-,30-,31+,32-/m0/s1",
        "InChIKey": null,
        "Canonical SMILES": "O=C(OC1CCC2(C)C(CCC3(C)CC4=CCC5C(C)(C)C(O)CCC5(C)C4CCC32)C1(C)C)C",
        "Molecular Formula": "C<sub>32</sub>H<sub>52</sub>O<sub>3</sub>",
        "Molecular Mass": "484.75",
        "Melting Point": "317-319 °C"
    }
}