{
    "cas_no": "16409-46-4",
    "key_name": "Menthyl isovalerate",
    "cn_name": "异戊酸L-薄荷酯;3-甲基丁酸5-甲基-2-(1-甲基乙基)环己酯;",
    "alternate_name": "Butanoic acid, 3-methyl-, 5-methyl-2-(1-methylethyl)cyclohexyl ester;Menthol, isovalerate;Isovaleric acid, <em>p</em>-menth-3-yl ester;Menthyl isovalerate",
    "duplicated_cas_no": "",
    "SMILES": "C(C)(C)C1C(OC(CC(C)C)=O)CC(C)CC1",
    "meta_data": {
        "InChI": "InChI=1S/C15H28O2/c1-10(2)8-15(16)17-14-9-12(5)6-7-13(14)11(3)4/h10-14H,6-9H2,1-5H3",
        "InChIKey": null,
        "Canonical SMILES": "O=C(OC1CC(C)CCC1C(C)C)CC(C)C",
        "Molecular Formula": "C<sub>15</sub>H<sub>28</sub>O<sub>2</sub>",
        "Molecular Mass": "240.38",
        "Boiling Point": "129 °C @ Press: 9 Torr"
    }
}