{
    "cas_no": "107-39-1",
    "key_name": "2,4,4-Trimethyl-1-pentene",
    "cn_name": "双异丁烯;2,4,4-三甲基-1-戊烯;二异丁烯;",
    "alternate_name": "1-Pentene, 2,4,4-trimethyl-;2,4,4-Trimethyl-1-pentene;2,2,4-Trimethyl-4-pentene;1-Methyl-1-neopentylethylene;NSC 73942;NSC 8701",
    "duplicated_cas_no": "",
    "SMILES": "C(C(C)(C)C)C(C)=C",
    "meta_data": {
        "InChI": "InChI=1S/C8H16/c1-7(2)6-8(3,4)5/h1,6H2,2-5H3",
        "InChIKey": null,
        "Canonical SMILES": "C=C(C)CC(C)(C)C",
        "Molecular Formula": "C<sub>8</sub>H<sub>16</sub>",
        "Molecular Mass": "112.21",
        "Boiling Point": "101.4 °C",
        "Melting Point": "-93.5 °C",
        "Density": "0.7150 g/cm³ @ Temp: 20 °C"
    }
}