{
    "cas_no": "32710-14-8",
    "key_name": "3-Amino-2-pyrazinecarboxaldehyde",
    "cn_name": null,
    "alternate_name": "2-Pyrazinecarboxaldehyde, 3-amino-;Pyrazinecarboxaldehyde, 3-amino-;Pyrazinaldehyde, 3-amino-;3-Amino-2-pyrazinecarboxaldehyde;3-Aminopyrazine-2-carboxaldehyde;3-Aminopyrazine-2-carbaldehyde",
    "duplicated_cas_no": "",
    "SMILES": "C(=O)C=1C(N)=NC=CN1",
    "meta_data": {
        "InChI": "InChI=1S/C5H5N3O/c6-5-4(3-9)7-1-2-8-5/h1-3H,(H2,6,8)",
        "InChIKey": null,
        "Canonical SMILES": "O=CC1=NC=CN=C1N",
        "Molecular Formula": "C<sub>5</sub>H<sub>5</sub>N<sub>3</sub>O",
        "Molecular Mass": "123.11",
        "Melting Point": "119-120 °C"
    }
}