{
    "cas_no": "1548-74-9",
    "key_name": "4-Amino-2,3,5,6-tetrafluorobenzamide",
    "cn_name": "4-氨基-2,3,5,6-四氟苯甲酰胺;",
    "alternate_name": "Benzamide, 4-amino-2,3,5,6-tetrafluoro-;4-Amino-2,3,5,6-tetrafluorobenzamide;NSC 97005",
    "duplicated_cas_no": "",
    "SMILES": "C(N)(=O)C1=C(F)C(F)=C(N)C(F)=C1F",
    "meta_data": {
        "InChI": "InChI=1S/C7H4F4N2O/c8-2-1(7(13)14)3(9)5(11)6(12)4(2)10/h12H2,(H2,13,14)",
        "InChIKey": null,
        "Canonical SMILES": "O=C(N)C1=C(F)C(F)=C(N)C(F)=C1F",
        "Molecular Formula": "C<sub>7</sub>H<sub>4</sub>F<sub>4</sub>N<sub>2</sub>O",
        "Molecular Mass": "208.11",
        "Melting Point": "171-171.5 °C"
    }
}