{
    "cas_no": "5264-65-3",
    "key_name": "2-Chloro-5-methyl-1,3-dinitrobenzene",
    "cn_name": "4-氯-3,5-二硝基甲苯;",
    "alternate_name": "Benzene, 2-chloro-5-methyl-1,3-dinitro-;Toluene, 4-chloro-3,5-dinitro-;2-Chloro-5-methyl-1,3-dinitrobenzene;3,5-Dinitro-4-chlorotoluene;2,6-Dinitro-4-methylchlorobenzene;4-Chloro-3,5-dinitrotoluene;4-Methyl-2,6-dinitrochlorobenzene;1-Chloro-4-methyl-2,6-dinitrobenzene;1-Chloro-2,6-dinitro-4-methylbenzene;NSC 105591",
    "duplicated_cas_no": "",
    "SMILES": "N(=O)(=O)C1=C(Cl)C(N(=O)=O)=CC(C)=C1",
    "meta_data": {
        "InChI": "InChI=1S/C7H5ClN2O4/c1-4-2-5(9(11)12)7(8)6(3-4)10(13)14/h2-3H,1H3",
        "InChIKey": null,
        "Canonical SMILES": "O=N(=O)C1=CC(=CC(=C1Cl)N(=O)=O)C",
        "Molecular Formula": "C<sub>7</sub>H<sub>5</sub>ClN<sub>2</sub>O<sub>4</sub>",
        "Molecular Mass": "216.58",
        "Melting Point": "115-116 °C"
    }
}