{
    "cas_no": "1131-18-6",
    "key_name": "5-Amino-3-methyl-1-phenylpyrazole",
    "cn_name": "5-氨基-3-甲基-1-苯基吡唑;",
    "alternate_name": "1<em>H</em>-Pyrazol-5-amine, 3-methyl-1-phenyl-;Pyrazole, 5-amino-3-methyl-1-phenyl-;3-Methyl-1-phenyl-1<em>H</em>-pyrazol-5-amine;5-Amino-3-methyl-1-phenylpyrazole;1-Phenyl-3-methyl-5-aminopyrazole;3-Methyl-1-phenyl-5-pyrazolamine;5-Methyl-2-phenyl-2<em>H</em>-pyrazol-3-ylamine;3-Amino-5-methyl-2-phenyl-2<em>H</em>-pyrazole;3-Methyl-1-phenylpyrazol-5-amine;5-Amino-1-phenyl-3-methylpyrazole;5-Amino-3-methyl-1-phenyl-1<em>H</em>-pyrazole;1-Phenyl-3-methyl-1<em>H</em>-pyrazol-5-amine;3-Methyl-1-phenyl-1<em>H</em>-pyrazole-5-amine",
    "duplicated_cas_no": "",
    "SMILES": "NC=1N(N=C(C)C1)C2=CC=CC=C2",
    "meta_data": {
        "InChI": "InChI=1S/C10H11N3/c1-8-7-10(11)13(12-8)9-5-3-2-4-6-9/h2-7H,11H2,1H3",
        "InChIKey": null,
        "Canonical SMILES": "N1=C(C=C(N)N1C=2C=CC=CC2)C",
        "Molecular Formula": "C<sub>10</sub>H<sub>11</sub>N<sub>3</sub>",
        "Molecular Mass": "173.21",
        "Boiling Point": "333 °C",
        "Melting Point": "116 °C"
    }
}