{
    "cas_no": "7451-98-1",
    "key_name": "3′,4′-Dihydroxypropiophenone",
    "cn_name": "3,4-二羟基苯丙酮;",
    "alternate_name": "1-Propanone, 1-(3,4-dihydroxyphenyl)-;Propiophenone, 3′,4′-dihydroxy-;1-(3,4-Dihydroxyphenyl)-1-propanone;3,4-Dihydroxypropiophenone;1,2-Dihydroxy-4-propionylbenzene;NSC 63842;3′,4′-Dihydroxypropiophenone",
    "duplicated_cas_no": "",
    "SMILES": "C(CC)(=O)C1=CC(O)=C(O)C=C1",
    "meta_data": {
        "InChI": "InChI=1S/C9H10O3/c1-2-7(10)6-3-4-8(11)9(12)5-6/h3-5,11-12H,2H2,1H3",
        "InChIKey": null,
        "Canonical SMILES": "O=C(C1=CC=C(O)C(O)=C1)CC",
        "Molecular Formula": "C<sub>9</sub>H<sub>10</sub>O<sub>3</sub>",
        "Molecular Mass": "166.17",
        "Melting Point": "146 °C"
    }
}