{
    "cas_no": "154593-58-5",
    "key_name": "(α<em>S</em>)-α-Amino-5-bromo-2-thiophenepropanoic acid",
    "cn_name": null,
    "alternate_name": "2-Thiophenepropanoic acid, α-amino-5-bromo-, (α<em>S</em>)-;2-Thiophenepropanoic acid, α-amino-5-bromo-, (<em>S</em>)-;(α<em>S</em>)-α-Amino-5-bromo-2-thiophenepropanoic acid;(2<em>S</em>)-2-Amino-3-(5-bromothiophen-2-yl)propionic acid;(2<em>S</em>)-Amino-3-(5-bromothiophen-2-yl)propionic acid;(2S)-2-Amino-3-(5-bromo-2-thienyl)propanoic acid;(2S)-2-Amino-3-(5-bromothiophen-2-yl)propanoic acid;(<em>S</em>)-2-Amino-3-(5-bromothiophen-2-yl)propanoicacid",
    "duplicated_cas_no": "",
    "SMILES": "C([C@@H](C(O)=O)N)C1=CC=C(Br)S1",
    "meta_data": {
        "InChI": "InChI=1S/C7H8BrNO2S/c8-6-2-1-4(12-6)3-5(9)7(10)11/h1-2,5H,3,9H2,(H,10,11)/t5-/m0/s1",
        "InChIKey": null,
        "Canonical SMILES": "O=C(O)C(N)CC=1SC(Br)=CC1",
        "Molecular Formula": "C<sub>7</sub>H<sub>8</sub>BrNO<sub>2</sub>S",
        "Molecular Mass": "250.11",
        "Melting Point": "262 °C"
    }
}