{
    "cas_no": "105-13-5",
    "key_name": "4-Methoxybenzyl alcohol",
    "cn_name": "4-甲氧基苄醇;",
    "alternate_name": "Benzenemethanol, 4-methoxy-;Benzyl alcohol, <em>p</em>-methoxy-;4-Methoxybenzenemethanol;Anise alcohol;4-Methoxybenzyl alcohol;<em>p</em>-Methoxybenzyl alcohol;Anisic alcohol;<em>p</em>-Anisyl alcohol;4-(Methoxyphenyl)methanol;4-(Hydroxymethyl)anisole;<em>p</em>-(Methoxyphenyl)methanol;(4-Methoxyphenyl)methyl alcohol;<em>p</em>-Anisalcohol;4-Methoxy-α-hydroxytoluene;NSC 2151;[4-(Methyloxy)phenyl]methanol",
    "duplicated_cas_no": "185532-75-6",
    "SMILES": "C(O)C1=CC=C(OC)C=C1",
    "meta_data": {
        "InChI": "InChI=1S/C8H10O2/c1-10-8-4-2-7(6-9)3-5-8/h2-5,9H,6H2,1H3",
        "InChIKey": null,
        "Canonical SMILES": "OCC1=CC=C(OC)C=C1",
        "Molecular Formula": "C<sub>8</sub>H<sub>10</sub>O<sub>2</sub>",
        "Molecular Mass": "138.16",
        "Boiling Point": "259.1 °C",
        "Melting Point": "25 °C"
    }
}