{
    "cas_no": "56961-81-0",
    "key_name": "8-Chloro-5-methylquinoline",
    "cn_name": null,
    "alternate_name": "Quinoline, 8-chloro-5-methyl-;8-Chloro-5-methylquinoline",
    "duplicated_cas_no": "",
    "SMILES": "CC=1C2=C(C(Cl)=CC1)N=CC=C2",
    "meta_data": {
        "InChI": "InChI=1S/C10H8ClN/c1-7-4-5-9(11)10-8(7)3-2-6-12-10/h2-6H,1H3",
        "InChIKey": null,
        "Canonical SMILES": "ClC=1C=CC(=C2C=CC=NC12)C",
        "Molecular Formula": "C<sub>10</sub>H<sub>8</sub>ClN",
        "Molecular Mass": "177.63",
        "Melting Point": "54 °C"
    }
}