{
    "cas_no": "2298-36-4",
    "key_name": "2-(4-Aminophenoxy)acetic acid",
    "cn_name": "4-胺苯氧基乙酸;",
    "alternate_name": "Acetic acid, 2-(4-aminophenoxy)-;Acetic acid, (<em>p</em>-aminophenoxy)-;Acetic acid, (4-aminophenoxy)-;2-(4-Aminophenoxy)acetic acid;(<em>p</em>-Aminophenoxy)acetic acid;(4-Aminophenoxy)acetic acid;NSC 36983;[(4-Aminophenyl)oxy]acetic acid",
    "duplicated_cas_no": "",
    "SMILES": "O(CC(O)=O)C1=CC=C(N)C=C1",
    "meta_data": {
        "InChI": "InChI=1S/C8H9NO3/c9-6-1-3-7(4-2-6)12-5-8(10)11/h1-4H,5,9H2,(H,10,11)",
        "InChIKey": null,
        "Canonical SMILES": "O=C(O)COC1=CC=C(N)C=C1",
        "Molecular Formula": "C<sub>8</sub>H<sub>9</sub>NO<sub>3</sub>",
        "Molecular Mass": "167.16",
        "Melting Point": "132 °C"
    }
}