{
    "cas_no": "728-90-5",
    "key_name": "<em>N</em>-(2-Nitrophenyl)benzamide",
    "cn_name": null,
    "alternate_name": "Benzamide, <em>N</em>-(2-nitrophenyl)-;Benzanilide, 2′-nitro-;<em>N</em>-(2-Nitrophenyl)benzamide;<em>o</em>′-Nitrobenzanilide;2′-Nitrobenzanilide;<em>N</em>-(<em>o</em>-Nitrophenyl)benzamide;NSC 406275;<em>N</em>-Benzoyl-2-nitroaniline",
    "duplicated_cas_no": "",
    "SMILES": "N(C(=O)C1=CC=CC=C1)C2=C(N(=O)=O)C=CC=C2",
    "meta_data": {
        "InChI": "InChI=1S/C13H10N2O3/c16-13(10-6-2-1-3-7-10)14-11-8-4-5-9-12(11)15(17)18/h1-9H,(H,14,16)",
        "InChIKey": null,
        "Canonical SMILES": "O=C(NC=1C=CC=CC1N(=O)=O)C=2C=CC=CC2",
        "Molecular Formula": "C<sub>13</sub>H<sub>10</sub>N<sub>2</sub>O<sub>3</sub>",
        "Molecular Mass": "242.23",
        "Melting Point": "93 °C"
    }
}