{
    "cas_no": "32634-68-7",
    "key_name": "(+)-Di-<em>p</em>-toluoyl-<span class=\"text-smallcaps\">D</span>-tartaric acid",
    "cn_name": "D-(+)-二对甲基苯甲酰酒石酸;",
    "alternate_name": "Butanedioic acid, 2,3-bis[(4-methylbenzoyl)oxy]-, (2<em>S</em>,3<em>S</em>)-;Butanedioic acid, 2,3-bis[(4-methylbenzoyl)oxy]-, [<em>S</em>-(<em>R</em>*,<em>R</em>*)]-;Tartaric acid, di-<em>p</em>-toluate, (+)-;<em>p</em>-Toluic acid, diester with <span class=\"text-smallcaps\">D</span>-tartaric acid;(2<em>S</em>,3<em>S</em>)-2,3-Bis[(4-methylbenzoyl)oxy]butanedioic acid;(+)-Di-<em>O</em>-<em>p</em>-toluoyl-<span class=\"text-smallcaps\">D</span>-tartaric acid;(+)-<em>O</em>,<em>O</em>-Di-<em>p</em>-toluoyltartaric acid;(+)-Di-<em>p</em>-toluoyltartaric acid;Di-<em>p</em>-toluoyl-<em>l</em>-tartaric acid;(+)-Di-<em>O</em>,<em>O</em>′-<em>p</em>-toluoyltartaric acid;(+)-Bis-<em>O</em>,<em>O</em>′-(4-toluoyl)-<span class=\"text-smallcaps\">D</span>-tartrate;Di-<em>p</em>-toluoyl-<span class=\"text-smallcaps\">D</span>-tartaric acid;(2<em>S</em>,3<em>S</em>)-(+)-Di-<em>p</em>-toluoyltartaric acid;<span class=\"text-smallcaps\">D</span>-Di-<em>O</em>,<em>O</em>′-<em>p</em>-toluyltartaric acid;(+)-Ditoluoyltartaric acid;(+)-Di-<em>p</em>-toluoyl-<span class=\"text-smallcaps\">D</span>-tartaric acid;(<em>S</em>,<em>S</em>)-<em>O</em>,<em>O</em>′-Di-<em>p</em>-toluoyltartaric acid;NSC 97592;<span class=\"text-smallcaps\">D</span>-Bis(<em>O</em>-4-methylbenzoyl)tartaric acid;(+)-Di-<em>O</em>-(<em>p</em>-toluoyl)tartaric acid;(+)-Di-<em>O</em>,<em>O</em>′-<em>p</em>-toluyltartaric acid;<span class=\"text-smallcaps\">D</span>-Di-<em>p</em>-toluoyltartaric acid;(2<em>S</em>,3<em>S</em>)-2,3-Bis[(4-methylbenzoyl)oxy]succinic acid;(+)-<em>O</em>,<em>O</em>′-Di-<em>p</em>-toluoyl-<span class=\"text-smallcaps\">D</span>-tartaric acid;(2S,3S)-2,3-Bis(4-methylbenzoyloxy)butanedioic acid",
    "duplicated_cas_no": "47586-11-8;79780-71-5;79881-62-2;139159-61-8;1624984-70-8",
    "SMILES": "[C@@H]([C@H](OC(=O)C1=CC=C(C)C=C1)C(O)=O)(OC(=O)C2=CC=C(C)C=C2)C(O)=O",
    "meta_data": {
        "InChI": "InChI=1S/C20H18O8/c1-11-3-7-13(8-4-11)19(25)27-15(17(21)22)16(18(23)24)28-20(26)14-9-5-12(2)6-10-14/h3-10,15-16H,1-2H3,(H,21,22)(H,23,24)/t15-,16-/m0/s1",
        "InChIKey": null,
        "Canonical SMILES": "O=C(OC(C(=O)O)C(OC(=O)C1=CC=C(C=C1)C)C(=O)O)C2=CC=C(C=C2)C",
        "Molecular Formula": "C<sub>20</sub>H<sub>18</sub>O<sub>8</sub>",
        "Molecular Mass": "386.35",
        "Melting Point": "162-163 °C"
    }
}