{
    "cas_no": "5967-84-0",
    "key_name": "1<em>H</em>-Purine-2,6-dione, 3,9-dihydro-1,3-dimethyl-, hydrate (1:1)",
    "cn_name": "一水茶碱;茶碱一水合物;",
    "alternate_name": "1<em>H</em>-Purine-2,6-dione, 3,9-dihydro-1,3-dimethyl-, hydrate (1:1);Theophylline, monohydrate;1<em>H</em>-Purine-2,6-dione, 3,7-dihydro-1,3-dimethyl-, monohydrate;1,3-Dimethylxanthine monohydrate;Theopylline monohydrate",
    "duplicated_cas_no": "",
    "SMILES": "O=C1C2=C(N(C)C(=O)N1C)N=CN2.O",
    "meta_data": {
        "InChI": "InChI=1S/C7H8N4O2.H2O/c1-10-5-4(8-3-9-5)6(12)11(2)7(10)13;/h3H,1-2H3,(H,8,9);1H2",
        "InChIKey": null,
        "Canonical SMILES": "O=C1C=2NC=NC2N(C(=O)N1C)C.O",
        "Molecular Formula": "C<sub>7</sub>H<sub>8</sub>N<sub>4</sub>O<sub>2</sub>.H<sub>2</sub>O",
        "Molecular Mass": "",
        "Melting Point": "270-274 °C"
    }
}