{
    "cas_no": "82998-57-0",
    "key_name": "3-Iodo-4-methylbenzoic acid",
    "cn_name": null,
    "alternate_name": "Benzoic acid, 3-iodo-4-methyl-;3-Iodo-4-methylbenzoic acid",
    "duplicated_cas_no": "",
    "SMILES": "C(O)(=O)C1=CC(I)=C(C)C=C1",
    "meta_data": {
        "InChI": "InChI=1S/C8H7IO2/c1-5-2-3-6(8(10)11)4-7(5)9/h2-4H,1H3,(H,10,11)",
        "InChIKey": null,
        "Canonical SMILES": "O=C(O)C1=CC=C(C(I)=C1)C",
        "Molecular Formula": "C<sub>8</sub>H<sub>7</sub>IO<sub>2</sub>",
        "Molecular Mass": "262.04",
        "Melting Point": "208-210 °C"
    }
}