{
    "cas_no": "87726-17-8",
    "key_name": "Panipenem",
    "cn_name": "帕尼培南;(5R,6S)-2-[1-乙酰氨基吡咯烷-3(S)-硫]-6-[1(R)-羟乙基]-2-碳青霉烯-3-羧酸;",
    "alternate_name": "1-Azabicyclo[3.2.0]hept-2-ene-2-carboxylic acid, 6-[(1<em>R</em>)-1-hydroxyethyl]-3-[[(3<em>S</em>)-1-(1-iminoethyl)-3-pyrrolidinyl]thio]-7-oxo-, (5<em>R</em>,6<em>S</em>)-;1-Azabicyclo[3.2.0]hept-2-ene-2-carboxylic acid, 6-(1-hydroxyethyl)-3-[[1-(1-iminoethyl)-3-pyrrolidinyl]thio]-7-oxo-, [5<em>R</em>-[3(<em>S</em>*),5α,6α(<em>R</em>*)]]-;(5<em>R</em>,6<em>S</em>)-6-[(1<em>R</em>)-1-Hydroxyethyl]-3-[[(3<em>S</em>)-1-(1-iminoethyl)-3-pyrrolidinyl]thio]-7-oxo-1-azabicyclo[3.2.0]hept-2-ene-2-carboxylic acid;RS 533;CS 533;Panipenem",
    "duplicated_cas_no": "98167-70-5",
    "SMILES": "[C@H](C)(O)[C@@]1([C@@]2(N(C(C(O)=O)=C(S[C@@H]3CN(C(C)=N)CC3)C2)C1=O)[H])[H]",
    "meta_data": {
        "InChI": "InChI=1S/C15H21N3O4S/c1-7(19)12-10-5-11(13(15(21)22)18(10)14(12)20)23-9-3-4-17(6-9)8(2)16/h7,9-10,12,16,19H,3-6H2,1-2H3,(H,21,22)/t7-,9+,10-,12-/m1/s1",
        "InChIKey": null,
        "Canonical SMILES": "O=C(O)C1=C(SC2CN(C(=N)C)CC2)CC3N1C(=O)C3C(O)C",
        "Molecular Formula": "C<sub>15</sub>H<sub>21</sub>N<sub>3</sub>O<sub>4</sub>S",
        "Molecular Mass": "339.41",
        "Melting Point": "198-200 °C (decomp)"
    }
}