{
    "cas_no": "7664-93-9",
    "key_name": "Sulfuric acid",
    "cn_name": "硫酸;浓硫酸;",
    "alternate_name": "Sulfuric acid;BOV;Dipping acid;Oil of vitriol;Sulphuric acid;Vitriol brown oil;Dihydrogen sulfate;Contact acid;Brimstone acid;NSC 248648;NSC 38965;Ridolene 123;Aftec 3000;Sulfuric acids;Alkyl sulfates;Top Lucina HV-QB;ADWL 02;Top ADD 100;Exodo",
    "duplicated_cas_no": "119540-51-1;127529-01-5;140623-70-7;1973539-23-9",
    "SMILES": "S(=O)(=O)(O)O",
    "meta_data": {
        "InChI": "InChI=1S/H2O4S/c1-5(2,3)4/h(H2,1,2,3,4)",
        "InChIKey": null,
        "Canonical SMILES": "O=S(=O)(O)O",
        "Molecular Formula": "H<sub>2</sub>O<sub>4</sub>S",
        "Molecular Mass": "98.08",
        "Boiling Point": "~290 °C (approx)",
        "Melting Point": "10.31 °C",
        "Density": "1.8 g/cm³"
    }
}