{
    "cas_no": "28598-81-4",
    "key_name": "Nonanoic acid, 9-bromo-, ethyl ester",
    "cn_name": null,
    "alternate_name": "Nonanoic acid, 9-bromo-, ethyl ester;Ethyl 9-bromononanoate",
    "duplicated_cas_no": "",
    "SMILES": "C(CCCCCCCBr)C(OCC)=O",
    "meta_data": {
        "InChI": "InChI=1S/C11H21BrO2/c1-2-14-11(13)9-7-5-3-4-6-8-10-12/h2-10H2,1H3",
        "InChIKey": null,
        "Canonical SMILES": "O=C(OCC)CCCCCCCCBr",
        "Molecular Formula": "C<sub>11</sub>H<sub>21</sub>BrO<sub>2</sub>",
        "Molecular Mass": "265.19",
        "Boiling Point": "150-154 °C @ Press: 10 Torr"
    }
}