{
    "cas_no": "1617-18-1",
    "key_name": "Ethyl vinylacetate",
    "cn_name": null,
    "alternate_name": "3-Butenoic acid, ethyl ester;Ethyl 3-butenoate;Ethyl vinylacetate;NSC 44507;Vinylacetic acid ethyl ester",
    "duplicated_cas_no": "",
    "SMILES": "C(CC=C)(OCC)=O",
    "meta_data": {
        "InChI": "InChI=1S/C6H10O2/c1-3-5-6(7)8-4-2/h3H,1,4-5H2,2H3",
        "InChIKey": null,
        "Canonical SMILES": "O=C(OCC)CC=C",
        "Molecular Formula": "C<sub>6</sub>H<sub>10</sub>O<sub>2</sub>",
        "Molecular Mass": "114.14",
        "Boiling Point": "119 °C",
        "Density": "0.91224 g/cm³ @ Temp: 20 °C"
    }
}