{
    "cas_no": "3760-95-0",
    "key_name": "(2<em>R</em>)-2-Ethyloxirane",
    "cn_name": null,
    "alternate_name": "Oxirane, 2-ethyl-, (2<em>R</em>)-;Butane, 1,2-epoxy-, (<em>R</em>)-(+)-;Oxirane, ethyl-, (<em>R</em>)-;Oxirane, ethyl-, (2<em>R</em>)-;(2<em>R</em>)-2-Ethyloxirane;(<em>R</em>)-1,2-Epoxybutane;(<em>R</em>)-Ethyloxirane;(<em>R</em>)-(+)-1,2-Epoxybutane;(<em>R</em>)-2-Ethyloxirane;(R)-1,2-Epoxybutane;(R)-2-Ethyloxirane;(<em>R</em>)-Epoxybutane;(2R)-2-Ethyloxirane;(R)-(+)-1,2-Epoxybutane",
    "duplicated_cas_no": "",
    "SMILES": "C(C)[C@@H]1CO1",
    "meta_data": {
        "InChI": "InChI=1S/C4H8O/c1-2-4-3-5-4/h4H,2-3H2,1H3/t4-/m1/s1",
        "InChIKey": null,
        "Canonical SMILES": "O1CC1CC",
        "Molecular Formula": "C<sub>4</sub>H<sub>8</sub>O",
        "Molecular Mass": "72.11",
        "Boiling Point": "63-65 °C @ Press: 760 Torr"
    }
}