{
    "cas_no": "624-82-8",
    "key_name": "Formamidoxime",
    "cn_name": "甲酸胺肟;",
    "alternate_name": "Methanimidamide, <em>N</em>-hydroxy-;Formamidoxime;Isuretin;Formamide oxime;NSC 13993",
    "duplicated_cas_no": "",
    "SMILES": "C(NO)=N",
    "meta_data": {
        "InChI": "InChI=1S/CH4N2O/c2-1-3-4/h1,4H,(H2,2,3)",
        "InChIKey": null,
        "Canonical SMILES": "N=CNO",
        "Molecular Formula": "CH<sub>4</sub>N<sub>2</sub>O",
        "Molecular Mass": "60.06",
        "Melting Point": "114.5 °C"
    }
}