{
    "cas_no": "7170-77-6",
    "key_name": "2-Amino-6-benzothiazolyl thiocyanate",
    "cn_name": "2-氨基-6-硫氰基苯并噻唑;",
    "alternate_name": "Thiocyanic acid, 2-amino-6-benzothiazolyl ester;2-Amino-6-benzothiazolyl thiocyanate;2-Amino-6-thiocyanatobenzothiazole;NSC 327380;2-Amino-6-thiocyanato-1,3-benzothiazole;[(2-Amino-1,3-benzothiazol-6-yl)sulfanyl]formonitrile",
    "duplicated_cas_no": "196393-88-1",
    "SMILES": "NC1=NC=2C(=CC(SC#N)=CC2)S1",
    "meta_data": {
        "InChI": "InChI=1S/C8H5N3S2/c9-4-12-5-1-2-6-7(3-5)13-8(10)11-6/h1-3H,(H2,10,11)",
        "InChIKey": null,
        "Canonical SMILES": "N#CSC=1C=CC=2N=C(SC2C1)N",
        "Molecular Formula": "C<sub>8</sub>H<sub>5</sub>N<sub>3</sub>S<sub>2</sub>",
        "Molecular Mass": "207.28",
        "Melting Point": "198 °C"
    }
}