{
    "cas_no": "145040-37-5",
    "key_name": "Candesartan cilexetil",
    "cn_name": "坎地沙坦西来替昔酯;2-乙氧基-1-[[2\"-(1H-四氮唑-5-基)[1,1\"-联苯基]-4-基]甲基]-1H-苯并咪唑-7-甲酸-1-[[(;",
    "alternate_name": "1<em>H</em>-Benzimidazole-7-carboxylic acid, 2-ethoxy-1-[[2′-(2<em>H</em>-tetrazol-5-yl)[1,1′-biphenyl]-4-yl]methyl]-, 1-[[(cyclohexyloxy)carbonyl]oxy]ethyl ester;1<em>H</em>-Benzimidazole-7-carboxylic acid, 2-ethoxy-1-[[2′-(1<em>H</em>-tetrazol-5-yl)[1,1′-biphenyl]-4-yl]methyl]-, 1-[[(cyclohexyloxy)carbonyl]oxy]ethyl ester, (±)-;1<em>H</em>-Benzimidazole-7-carboxylic acid, 2-ethoxy-1-[[2′-(1<em>H</em>-tetrazol-5-yl)[1,1′-biphenyl]-4-yl]methyl]-, 1-[[(cyclohexyloxy)carbonyl]oxy]ethyl ester;TCV 116;(±)-1-Hydroxyethyl 2-ethoxy-1-[<em>p</em>-(<em>o</em>-1<em>H</em>-tetrazol-5-ylphenyl)l]-7-benzimidazolecarboxylate, cyclohexyl carbonate (ester);Candesartan cilexetil;Atacand;TCY 116;Blopress;2-Ethoxy-1-[(2′-(1<em>H</em>-tetrazol-5-yl)-1,1′-biphenyl-4-yl)methyl]-7-benzimidazolecarboxylic acid 1-(cyclohexyloxycarbonyloxy)ethyl ester;1-[[(Cyclohexyloxy)carbonyl]oxy]ethyl 2-ethoxy-1-[[2′-(1<em>H</em>-tetrazol-5-yl)biphenyl-4-yl]methyl]benzimidazole-7-carboxylate;1-Cyclohexyloxycarbonyloxyethyl 2-ethoxy-3-[[4-[2-(2<em>H</em>-tetrazol-5-yl)phenyl]phenyl]methyl]benzimidazole-4-carboxylate;1-[[(Cyclohexyloxy)carbonyl]oxy]ethyl 2-ethoxy-1-([4-[2-(1<em>H</em>-1,2,3,4-tetrazol-5-yl)phenyl]phenyl]methyl)-1<em>H</em>-1,3-benzodiazole-7-carboxylate",
    "duplicated_cas_no": "139481-74-6;198077-85-9;2050948-41-7",
    "SMILES": "C(N1C=2C(N=C1OCC)=CC=CC2C(OC(OC(OC3CCCCC3)=O)C)=O)C4=CC=C(C=C4)C5=C(C=CC=C5)C=6NN=NN6",
    "meta_data": {
        "InChI": "InChI=1S/C33H34N6O6/c1-3-42-32-34-28-15-9-14-27(31(40)43-21(2)44-33(41)45-24-10-5-4-6-11-24)29(28)39(32)20-22-16-18-23(19-17-22)25-12-7-8-13-26(25)30-35-37-38-36-30/h7-9,12-19,21,24H,3-6,10-11,20H2,1-2H3,(H,35,36,37,38)",
        "InChIKey": null,
        "Canonical SMILES": "O=C(OC(OC(=O)C1=CC=CC=2N=C(OCC)N(C21)CC=3C=CC(=CC3)C=4C=CC=CC4C5=NN=NN5)C)OC6CCCCC6",
        "Molecular Formula": "C<sub>33</sub>H<sub>34</sub>N<sub>6</sub>O<sub>6</sub>",
        "Molecular Mass": "610.66",
        "Melting Point": "163 °C (decomp)"
    }
}