{
    "cas_no": "1493-13-6",
    "key_name": "Trifluoromethanesulfonic acid",
    "cn_name": "三氟甲磺酸;三氟甲基磺酸;",
    "alternate_name": "Methanesulfonic acid, 1,1,1-trifluoro-;Methanesulfonic acid, trifluoro-;1,1,1-Trifluoromethanesulfonic acid;Perfluoromethanesulfonic acid;Triflic acid;Trifluoromethanesulfonic acid;Trifluoromethylsulfonic acid;Fluorad FC 24;1,1,1-Trifluoro-1-methanesulfonic acid",
    "duplicated_cas_no": "83936-79-2;132645-03-5;146819-41-2;410094-25-6;686276-05-1;1071724-18-9;1075754-75-4;2001095-27-6;2024604-25-7",
    "SMILES": "C(S(=O)(=O)O)(F)(F)F",
    "meta_data": {
        "InChI": "InChI=1S/CHF3O3S/c2-1(3,4)8(5,6)7/h(H,5,6,7)",
        "InChIKey": null,
        "Canonical SMILES": "O=S(=O)(O)C(F)(F)F",
        "Molecular Formula": "CHF<sub>3</sub>O<sub>3</sub>S",
        "Molecular Mass": "150.08",
        "Boiling Point": "166 °C",
        "Melting Point": "&lt;25 °C",
        "Density": "1.69 g/cm³"
    }
}