{
    "cas_no": "3704-09-4",
    "key_name": "Mibolerone",
    "cn_name": "米勃龙;",
    "alternate_name": "Estr-4-en-3-one, 17-hydroxy-7,17-dimethyl-, (7α,17β)-;Estr-4-en-3-one, 17β-hydroxy-7α,17-dimethyl-;(7α,17β)-17-Hydroxy-7,17-dimethylestr-4-en-3-one;U 10997;7α,17α-Dimethyl-19-nortestosterone;Mibolerone;Miboleron;7α,17α-Dimethyl-17β-hydroxy-4-estren-3-one;Cheque;Matenon;NSC 72260",
    "duplicated_cas_no": "39986-29-3;1050679-36-1",
    "SMILES": "C[C@H]1[C@]2([C@]3([C@](C)(CC[C@@]2([C@@]4(C(C1)=CC(=O)CC4)[H])[H])[C@@](C)(O)CC3)[H])[H]",
    "meta_data": {
        "InChI": "InChI=1S/C20H30O2/c1-12-10-13-11-14(21)4-5-15(13)16-6-8-19(2)17(18(12)16)7-9-20(19,3)22/h11-12,15-18,22H,4-10H2,1-3H3/t12-,15+,16-,17+,18-,19+,20+/m1/s1",
        "InChIKey": null,
        "Canonical SMILES": "O=C1C=C2CC(C)C3C(CCC4(C)C3CCC4(O)C)C2CC1",
        "Molecular Formula": "C<sub>20</sub>H<sub>30</sub>O<sub>2</sub>",
        "Molecular Mass": "302.45",
        "Melting Point": "150.5-151.5 °C"
    }
}