{
    "cas_no": "110-83-8",
    "key_name": "Cyclohexene",
    "cn_name": "环己烯;",
    "alternate_name": "Cyclohexene;Benzene, tetrahydro-;Benzene tetrahydride;Tetrahydrobenzene;1,2,3,4-Tetrahydrobenzene;Cyclohex-1-ene;NSC 24835",
    "duplicated_cas_no": "33004-06-7",
    "SMILES": "C1CCC=CC1",
    "meta_data": {
        "InChI": "InChI=1S/C6H10/c1-2-4-6-5-3-1/h1-2H,3-6H2",
        "InChIKey": null,
        "Canonical SMILES": "C1=CCCCC1",
        "Molecular Formula": "C<sub>6</sub>H<sub>10</sub>",
        "Molecular Mass": "82.14",
        "Boiling Point": "83 °C @ Press: 760 Torr",
        "Melting Point": "-103.5 °C",
        "Density": "0.8098 g/cm³ @ Temp: 20 °C"
    }
}