{
    "cas_no": "85643-19-2",
    "key_name": "Curculigoside",
    "cn_name": "仙茅苷;",
    "alternate_name": "β-<span class=\"text-smallcaps\">D</span>-Glucopyranoside, 2-[[(2,6-dimethoxybenzoyl)oxy]methyl]-4-hydroxyphenyl;2-[[(2,6-Dimethoxybenzoyl)oxy]methyl]-4-hydroxyphenyl β-<span class=\"text-smallcaps\">D</span>-glucopyranoside;Curculigoside;Curculigoside A;Curculigoside I;Curculigoside 1",
    "duplicated_cas_no": "",
    "SMILES": "C(OCC1=C(O[C@@H]2O[C@H](CO)[C@@H](O)[C@H](O)[C@H]2O)C=CC(O)=C1)(=O)C3=C(OC)C=CC=C3OC",
    "meta_data": {
        "InChI": "InChI=1S/C22H26O11/c1-29-14-4-3-5-15(30-2)17(14)21(28)31-10-11-8-12(24)6-7-13(11)32-22-20(27)19(26)18(25)16(9-23)33-22/h3-8,16,18-20,22-27H,9-10H2,1-2H3/t16-,18-,19+,20-,22-/m1/s1",
        "InChIKey": null,
        "Canonical SMILES": "O=C(OCC1=CC(O)=CC=C1OC2OC(CO)C(O)C(O)C2O)C=3C(OC)=CC=CC3OC",
        "Molecular Formula": "C<sub>22</sub>H<sub>26</sub>O<sub>11</sub>",
        "Molecular Mass": "466.44",
        "Melting Point": "158-160 °C"
    }
}