{
    "cas_no": "392-09-6",
    "key_name": "Benzoic acid, 2-fluoro-4-nitro-, methyl ester",
    "cn_name": null,
    "alternate_name": "Benzoic acid, 2-fluoro-4-nitro-, methyl ester;Methyl 2-fluoro-4-nitrobenzoate;2-Fluoro-4-nitrobenzoic acid methyl ester",
    "duplicated_cas_no": "",
    "SMILES": "C(OC)(=O)C1=C(F)C=C(N(=O)=O)C=C1",
    "meta_data": {
        "InChI": "InChI=1S/C8H6FNO4/c1-14-8(11)6-3-2-5(10(12)13)4-7(6)9/h2-4H,1H3",
        "InChIKey": null,
        "Canonical SMILES": "O=C(OC)C1=CC=C(C=C1F)N(=O)=O",
        "Molecular Formula": "C<sub>8</sub>H<sub>6</sub>FNO<sub>4</sub>",
        "Molecular Mass": "199.14",
        "Melting Point": "75.5 °C"
    }
}