{
    "cas_no": "181289-33-8",
    "key_name": "(<em>R</em>)-3-(Carbamoylmethyl)-5-methylhexanoic acid",
    "cn_name": "(R)-(-)-3-(氨甲酰甲基)-5-甲基己酸;",
    "alternate_name": "Hexanoic acid, 3-(2-amino-2-oxoethyl)-5-methyl-, (3<em>R</em>)-;Hexanoic acid, 3-(2-amino-2-oxoethyl)-5-methyl-, (<em>R</em>)-;(3<em>R</em>)-3-(2-Amino-2-oxoethyl)-5-methylhexanoic acid;(<em>R</em>)-3-(Carbamoylmethyl)-5-methylhexanoic acid;(<em>R</em>)-(-)-3-(Carbamoylmethyl)-5-methylhexanoic acid;(R)-3-(2-Amino-2-oxoethyl)-5-methylhexanoic acid;(3R)-3-(2-Amino-2-oxoethyl)-5-methylhexanoic acid",
    "duplicated_cas_no": "",
    "SMILES": "[C@@H](CC(C)C)(CC(N)=O)CC(O)=O",
    "meta_data": {
        "InChI": "InChI=1S/C9H17NO3/c1-6(2)3-7(4-8(10)11)5-9(12)13/h6-7H,3-5H2,1-2H3,(H2,10,11)(H,12,13)/t7-/m1/s1",
        "InChIKey": null,
        "Canonical SMILES": "O=C(O)CC(CC(=O)N)CC(C)C",
        "Molecular Formula": "C<sub>9</sub>H<sub>17</sub>NO<sub>3</sub>",
        "Molecular Mass": "187.24",
        "Melting Point": "131-135 °C"
    }
}