{
    "cas_no": "14697-46-2",
    "key_name": "(±)-1,2,5-Pentanetriol",
    "cn_name": "1,2,5-戊三醇;",
    "alternate_name": "1,2,5-Pentanetriol;1,4,5-Pentanetriol;(±)-1,2,5-Pentanetriol;<em>dl</em>-1,2,5-Pentanetriol;NSC 44963;Pentan-1,2,5-triol;1,2,5-Trihydroxy pentane",
    "duplicated_cas_no": "51064-73-4",
    "SMILES": "C(CCCO)(CO)O",
    "meta_data": {
        "InChI": "InChI=1S/C5H12O3/c6-3-1-2-5(8)4-7/h5-8H,1-4H2",
        "InChIKey": null,
        "Canonical SMILES": "OCCCC(O)CO",
        "Molecular Formula": "C<sub>5</sub>H<sub>12</sub>O<sub>3</sub>",
        "Molecular Mass": "120.15",
        "Boiling Point": "190-191 °C",
        "Density": "1.136 g/cm³ @ Temp: 20 °C"
    }
}