{
    "cas_no": "1589-47-5",
    "key_name": "2-Methoxy-1-propanol",
    "cn_name": "2-甲氧基丙醇;2-甲氧基-1-丙醇;2-甲基-1-羟基丙烷;",
    "alternate_name": "1-Propanol, 2-methoxy-;2-Methoxy-1-propanol;2-Methoxypropanol;2-Methoxy-1-hydroxypropane",
    "duplicated_cas_no": "148616-44-8",
    "SMILES": "C(CO)(OC)C",
    "meta_data": {
        "InChI": "InChI=1S/C4H10O2/c1-4(3-5)6-2/h4-5H,3H2,1-2H3",
        "InChIKey": null,
        "Canonical SMILES": "OCC(OC)C",
        "Molecular Formula": "C<sub>4</sub>H<sub>10</sub>O<sub>2</sub>",
        "Molecular Mass": "90.12",
        "Boiling Point": "130 °C",
        "Density": "0.938 g/cm³ @ Temp: 20 °C"
    }
}