{
    "cas_no": "16672-87-0",
    "key_name": "Ethephon",
    "cn_name": null,
    "alternate_name": "Phosphonic acid, <em>P</em>-(2-chloroethyl)-;Phosphonic acid, (2-chloroethyl)-;<em>P</em>-(2-Chloroethyl)phosphonic acid;CEP;2-Chloroethanephosphonic acid;Ethrel;Ethephon;(2-Chloroethyl)phosphonic acid;Chloroethylphosphonic acid;Ethel;CEPA;Camposan;G 996 (pesticide);Ethefon;Kamposan;Amchem 68-250;Chlorethephon;Flordimex;Roll-Fruct;Florel;Cepha 10LS;Etheverse;2-CEPA;Tomathrel;2-KhEFK;Cerone;PRM 12;Flordimex T;Camposan M;G 996;β-Chloroethylphosphonic acid;Fruitel;Flordimex TM;KhEFK;CEPA (pesticide);Dextrel M;Direphon;Boll'd;Exin;Prep;Prep (growth regulator);Arvest;Romtrel;Mature-Aide;MFX 0307;Super Boll;MFX 0543;Hevetex;Proxy;Ethrel 10;PRM 12RP;Ethrel 48 SL;Ethrel 48SL;MATURE-AIDE;Ethereal",
    "duplicated_cas_no": "55600-37-8;60704-17-8;73020-07-2;82375-49-3",
    "SMILES": "C(P(=O)(O)O)CCl",
    "meta_data": {
        "InChI": "InChI=1S/C2H6ClO3P/c3-1-2-7(4,5)6/h1-2H2,(H2,4,5,6)",
        "InChIKey": null,
        "Canonical SMILES": "O=P(O)(O)CCCl",
        "Molecular Formula": "C<sub>2</sub>H<sub>6</sub>ClO<sub>3</sub>P",
        "Molecular Mass": "144.49",
        "Melting Point": "74-75 °C",
        "Density": "1.58 g/cm³"
    }
}