{
    "cas_no": "94-53-1",
    "key_name": "1,3-Benzodioxole-5-carboxylic acid",
    "cn_name": "胡椒酸;3,4-亚甲二氧基苯甲酸;",
    "alternate_name": "1,3-Benzodioxole-5-carboxylic acid;Piperonylic acid;Heliotropic acid;3,4-Methylenedioxybenzoic acid;Protocatechuic acid methylene ether;5-Benzodioxolecarboxylic acid;3,4-Dioxymethylenebenzoic acid;3,4-Methylenedioxybenzenecarboxylic acid;NSC 10072;NSC 119055;Benzo[<em>d</em>][1,3]dioxole-5-carboxylic acid;1,3-Dioxaindane-5-carboxylic acid;2<em>H</em>-1,3-Benzodioxole-5-carboxylic acid",
    "duplicated_cas_no": "1160950-49-1",
    "SMILES": "C(O)(=O)C=1C=C2C(=CC1)OCO2",
    "meta_data": {
        "InChI": "InChI=1S/C8H6O4/c9-8(10)5-1-2-6-7(3-5)12-4-11-6/h1-3H,4H2,(H,9,10)",
        "InChIKey": null,
        "Canonical SMILES": "O=C(O)C1=CC=C2OCOC2=C1",
        "Molecular Formula": "C<sub>8</sub>H<sub>6</sub>O<sub>4</sub>",
        "Molecular Mass": "166.13",
        "Boiling Point": "120 °C @ Press: 1 Torr",
        "Melting Point": "229 °C"
    }
}