{
    "cas_no": "622-30-0",
    "key_name": "Benzylhydroxylamine",
    "cn_name": "N-苄基羟胺; N-羟基苄胺;",
    "alternate_name": "Benzenemethanamine, <em>N</em>-hydroxy-;Hydroxylamine, <em>N</em>-benzyl-;<em>N</em>-Hydroxybenzenemethanamine;<em>N</em>-Benzylhydroxylamine;Benzylhydroxylamine;<em>N</em>-Hydroxybenzylamine;<em>O</em>-Benzylhydroxyamine",
    "duplicated_cas_no": "159879-46-6",
    "SMILES": "C(NO)C1=CC=CC=C1",
    "meta_data": {
        "InChI": "InChI=1S/C7H9NO/c9-8-6-7-4-2-1-3-5-7/h1-5,8-9H,6H2",
        "InChIKey": null,
        "Canonical SMILES": "ONCC=1C=CC=CC1",
        "Molecular Formula": "C<sub>7</sub>H<sub>9</sub>NO",
        "Molecular Mass": "123.15",
        "Melting Point": "57 °C"
    }
}