{
    "cas_no": "2032-65-7",
    "key_name": "Methiocarb",
    "cn_name": "甲硫威;3,5-二甲基-4-甲硫基苯基-N-甲基氨基甲酸酯;",
    "alternate_name": "Phenol, 3,5-dimethyl-4-(methylthio)-, 1-(<em>N</em>-methylcarbamate);Phenol, 3,5-dimethyl-4-(methylthio)-, methylcarbamate;Carbamic acid, methyl-, 4-(methylthio)-3,5-xylyl ester;B 37344;BAY 37344;Mesurol;4-Methylthio-3,5-dimethylphenyl methylcarbamate;4-(Methylthio)-3,5-xylyl methylcarbamate;Metmercapturon;BAY 5024;DCR 736;Mercaptodimethur;Mesurol phenol;Methiocarb;4-(Methylthio)-3,5-xylyl-<em>N</em>-methylcarbamate;SD 9228;3,5-Dimethyl-4-(methylthio)phenyl methylcarbamate;Draza;Mesurol 50;Mesurol 500FS;MeSH ID: D008714",
    "duplicated_cas_no": "716-16-5",
    "SMILES": "O(C(NC)=O)C1=CC(C)=C(SC)C(C)=C1",
    "meta_data": {
        "InChI": "InChI=1S/C11H15NO2S/c1-7-5-9(14-11(13)12-3)6-8(2)10(7)15-4/h5-6H,1-4H3,(H,12,13)",
        "InChIKey": null,
        "Canonical SMILES": "O=C(OC=1C=C(C(SC)=C(C1)C)C)NC",
        "Molecular Formula": "C<sub>11</sub>H<sub>15</sub>NO<sub>2</sub>S",
        "Molecular Mass": "225.31",
        "Melting Point": "119 °C"
    }
}