{
    "cas_no": "31981-44-9",
    "key_name": "17α-Acetoxy-19-norprogesterone",
    "cn_name": "19-去甲-3,20-二酮-孕甾-4-烯-17-醋酸酯;",
    "alternate_name": "19-Norpregn-4-ene-3,20-dione, 17-(acetyloxy)-;19-Norpregn-4-ene-3,20-dione, 17-hydroxy-, acetate;17-(Acetyloxy)-19-norpregn-4-ene-3,20-dione;17-Acetoxy-19-norpregn-4-en-3,20-dione;17-Acetoxy-19-norpregn-4-ene-3,20-dione;17-Acetoxy-19-norprogesterone;17α-Acetoxy-19-norprogesterone",
    "duplicated_cas_no": "1100-82-9",
    "SMILES": "O(C(C)=O)[C@@]1(C(C)=O)[C@]2(C)[C@@](CC1)([C@]3([C@](CC2)([C@@]4(C(CC3)=CC(=O)CC4)[H])[H])[H])[H]",
    "meta_data": {
        "InChI": "InChI=1S/C22H30O4/c1-13(23)22(26-14(2)24)11-9-20-19-6-4-15-12-16(25)5-7-17(15)18(19)8-10-21(20,22)3/h12,17-20H,4-11H2,1-3H3/t17-,18+,19+,20-,21-,22-/m0/s1",
        "InChIKey": null,
        "Canonical SMILES": "O=C(OC1(C(=O)C)CCC2C3CCC4=CC(=O)CCC4C3CCC21C)C",
        "Molecular Formula": "C<sub>22</sub>H<sub>30</sub>O<sub>4</sub>",
        "Molecular Mass": "358.47",
        "Melting Point": "227-229 °C"
    }
}