{
    "cas_no": "22482-43-5",
    "key_name": "1,3-Dichloro-2-(2-nitroethenyl)benzene",
    "cn_name": "2,6-二氯-ω-硝基苯乙烯;",
    "alternate_name": "Benzene, 1,3-dichloro-2-(2-nitroethenyl)-;Styrene, 2,6-dichloro-β-nitro-;1,3-Dichloro-2-(2-nitroethenyl)benzene;2,6-Dichloro-β-nitrostyrene;NSC 122864;1,3-Dichloro-2-(2-nitrovinyl)benzene",
    "duplicated_cas_no": "",
    "SMILES": "C(=CN(=O)=O)C1=C(Cl)C=CC=C1Cl",
    "meta_data": {
        "InChI": "InChI=1S/C8H5Cl2NO2/c9-7-2-1-3-8(10)6(7)4-5-11(12)13/h1-5H",
        "InChIKey": null,
        "Canonical SMILES": "O=N(=O)C=CC=1C(Cl)=CC=CC1Cl",
        "Molecular Formula": "C<sub>8</sub>H<sub>5</sub>Cl<sub>2</sub>NO<sub>2</sub>",
        "Molecular Mass": "218.04",
        "Melting Point": "63-64 °C"
    }
}