{
    "cas_no": "31515-43-2",
    "key_name": "2-Nitrophenyl phenyl sulfone",
    "cn_name": "2-硝基二苯砜;",
    "alternate_name": "Benzene, 1-nitro-2-(phenylsulfonyl)-;Sulfone, <em>o</em>-nitrophenyl phenyl;1-Nitro-2-(phenylsulfonyl)benzene;2-Nitrophenyl phenyl sulfone;<em>o</em>-Nitrophenyl phenyl sulfone;NSC 624231;1-(Benzenesulfonyl)-2-nitrobenzene",
    "duplicated_cas_no": "144113-81-5",
    "SMILES": "S(=O)(=O)(C1=C(N(=O)=O)C=CC=C1)C2=CC=CC=C2",
    "meta_data": {
        "InChI": "InChI=1S/C12H9NO4S/c14-13(15)11-8-4-5-9-12(11)18(16,17)10-6-2-1-3-7-10/h1-9H",
        "InChIKey": null,
        "Canonical SMILES": "O=N(=O)C=1C=CC=CC1S(=O)(=O)C=2C=CC=CC2",
        "Molecular Formula": "C<sub>12</sub>H<sub>9</sub>NO<sub>4</sub>S",
        "Molecular Mass": "263.27",
        "Melting Point": "147 °C"
    }
}