{
    "cas_no": "42348-86-7",
    "key_name": "5-Chloro-1-indanone",
    "cn_name": "2,3-二氢-5-氯吲哚酮;5-氯茚酮;",
    "alternate_name": "1<em>H</em>-Inden-1-one, 5-chloro-2,3-dihydro-;1-Indanone, 5-chloro-;5-Chloro-2,3-dihydro-1<em>H</em>-inden-1-one;5-Chloro-1-indanone;5-Chloro-2,3-dihydroinden-1-one",
    "duplicated_cas_no": "",
    "SMILES": "O=C1C=2C(CC1)=CC(Cl)=CC2",
    "meta_data": {
        "InChI": "InChI=1S/C9H7ClO/c10-7-2-3-8-6(5-7)1-4-9(8)11/h2-3,5H,1,4H2",
        "InChIKey": null,
        "Canonical SMILES": "O=C1C2=CC=C(Cl)C=C2CC1",
        "Molecular Formula": "C<sub>9</sub>H<sub>7</sub>ClO",
        "Molecular Mass": "166.60",
        "Boiling Point": "150 °C @ Press: 0.2 Torr",
        "Melting Point": "96-97 °C"
    }
}