{
    "cas_no": "50700-72-6",
    "key_name": "Vecuronium",
    "cn_name": "维库溴铵;",
    "alternate_name": "Piperidinium, 1-[(2β,3α,5α,16β,17β)-3,17-bis(acetyloxy)-2-(1-piperidinyl)androstan-16-yl]-1-methyl-, bromide (1:1);Piperidinium, 1-[(2β,3α,5α,16β,17β)-3,17-bis(acetyloxy)-2-(1-piperidinyl)androstan-16-yl]-1-methyl-, bromide;Androstane, piperidinium deriv.;Org-NC 45;NC 45;Vecuronium bromide;Norcuron;Vecuronium;Musculax;MeSH ID: D014673",
    "duplicated_cas_no": "63884-29-7;72254-12-7;74531-67-2",
    "SMILES": "C[C@@]12[C@]([C@]3([C@](CC1)([C@]4(C)[C@@](CC3)(C[C@H](OC(C)=O)[C@H](C4)N5CCCCC5)[H])[H])[H])(C[C@@H]([C@@H]2OC(C)=O)[N@@+]6(C)CCCCC6)[H].[Br-]",
    "meta_data": {
        "InChI": "InChI=1S/C34H57N2O4.BrH/c1-23(37)39-31-20-25-12-13-26-27(34(25,4)22-29(31)35-16-8-6-9-17-35)14-15-33(3)28(26)21-30(32(33)40-24(2)38)36(5)18-10-7-11-19-36;/h25-32H,6-22H2,1-5H3;1H/q+1;/p-1/t25-,26+,27-,28-,29-,30-,31-,32-,33-,34-;/m0./s1",
        "InChIKey": null,
        "Canonical SMILES": "[Br-].O=C(OC1CC2CCC3C(CCC4(C)C(OC(=O)C)C(CC34)[N+]5(C)CCCCC5)C2(C)CC1N6CCCCC6)C",
        "Molecular Formula": "C<sub>34</sub>H<sub>57</sub>N<sub>2</sub>O<sub>4</sub>.Br",
        "Molecular Mass": "",
        "Melting Point": "228 °C"
    }
}