{
    "cas_no": "41373-39-1",
    "key_name": "(2<em>S</em>)-2-Piperidinemethanol",
    "cn_name": null,
    "alternate_name": "2-Piperidinemethanol, (2<em>S</em>)-;2-Piperidinemethanol, (<em>S</em>)-;(2<em>S</em>)-2-Piperidinemethanol;(+)-2-(Hydroxymethyl)piperidine;(<em>S</em>)-Piperidin-2-ylmethanol;(<em>S</em>)-2-Piperidinemethanol;(2S)-2-(Hydroxymethyl)piperidine;(<em>S</em>)-1-Piperidin-2-ylmethanol;(2S)-Piperidin-2-ylmethanol;2-Piperidinemethanol (2S)-",
    "duplicated_cas_no": "",
    "SMILES": "C(O)[C@@H]1CCCCN1",
    "meta_data": {
        "InChI": "InChI=1S/C6H13NO/c8-5-6-3-1-2-4-7-6/h6-8H,1-5H2/t6-/m0/s1",
        "InChIKey": null,
        "Canonical SMILES": "OCC1NCCCC1",
        "Molecular Formula": "C<sub>6</sub>H<sub>13</sub>NO",
        "Molecular Mass": "115.17",
        "Melting Point": "66-68 °C"
    }
}