{
    "cas_no": "739-27-5",
    "key_name": "11-Ketoetiocholanolone",
    "cn_name": "11-酮本胆烷醇酮;",
    "alternate_name": "Androstane-11,17-dione, 3-hydroxy-, (3α,5β)-;5β-Androstane-11,17-dione, 3α-hydroxy-;(3α,5β)-3-Hydroxyandrostane-11,17-dione;3α-Hydroxy-5β-androstane-11,17-dione;3α-Hydroxy-11,17-dioxo-5β-androstane;11-Ketoetiocholanolone;11-Oxoetiocholanolone;5β-Androstan-3α-ol-11,17-dione;Ba 2684;Etiocholanol-11-one;5β-Androstane-3α-ol-11,17-dione;11-Oxoaetiocholanolone;3α-Hydroxy-5β-androstan-11,17-dione;11-Ketoaetiocholanolone;NSC 53896",
    "duplicated_cas_no": "",
    "SMILES": "C[C@@]12[C@@]3([C@]([C@]4([C@](C)(CC3=O)C(=O)CC4)[H])(CC[C@@]1(C[C@H](O)CC2)[H])[H])[H]",
    "meta_data": {
        "InChI": "InChI=1S/C19H28O3/c1-18-8-7-12(20)9-11(18)3-4-13-14-5-6-16(22)19(14,2)10-15(21)17(13)18/h11-14,17,20H,3-10H2,1-2H3/t11-,12-,13+,14+,17-,18+,19+/m1/s1",
        "InChIKey": null,
        "Canonical SMILES": "O=C1CC2(C(=O)CCC2C3CCC4CC(O)CCC4(C)C13)C",
        "Molecular Formula": "C<sub>19</sub>H<sub>28</sub>O<sub>3</sub>",
        "Molecular Mass": "304.42",
        "Melting Point": "187-188 °C"
    }
}