{
    "cas_no": "1204-75-7",
    "key_name": "3,4-Dihydro-3-oxo-2-quinoxalinecarboxylic acid",
    "cn_name": "3-羟基-2-喹喔啉羧酸;",
    "alternate_name": "2-Quinoxalinecarboxylic acid, 3,4-dihydro-3-oxo-;2-Quinoxalinecarboxylic acid, 3-hydroxy-;3,4-Dihydro-3-oxo-2-quinoxalinecarboxylic acid;3-Hydroxyquinoxaline-2-carboxylic acid;NSC 34263;3-Oxo-3,4-dihydroquinoxaline-2-carboxylic acid;3-Oxo-4<em>H</em>-quinoxaline-2-carboxylic acid",
    "duplicated_cas_no": "",
    "SMILES": "C(O)(=O)C1=NC=2C(NC1=O)=CC=CC2",
    "meta_data": {
        "InChI": "InChI=1S/C9H6N2O3/c12-8-7(9(13)14)10-5-3-1-2-4-6(5)11-8/h1-4H,(H,11,12)(H,13,14)",
        "InChIKey": null,
        "Canonical SMILES": "O=C(O)C1=NC=2C=CC=CC2NC1=O",
        "Molecular Formula": "C<sub>9</sub>H<sub>6</sub>N<sub>2</sub>O<sub>3</sub>",
        "Molecular Mass": "190.16",
        "Melting Point": "263-265 °C (decomp)"
    }
}