{
    "cas_no": "1071-21-2",
    "key_name": "Cyanoethylmethyldichlorosilane",
    "cn_name": null,
    "alternate_name": "Propanenitrile, 3-(dichloromethylsilyl)-;Propionitrile, 3-(dichloromethylsilyl)-;3-(Dichloromethylsilyl)propanenitrile;2-Cyanoethylmethyldichlorosilane;Methyl(2-cyanoethyl)dichlorosilane;(β-Cyanoethyl)methyldichlorosilane;Dichloro(2-cyanoethyl)methylsilane;Methyl(β-cyanoethyl)dichlorosilane;Cyanoethylmethyldichlorosilane",
    "duplicated_cas_no": "",
    "SMILES": "C([Si](C)(Cl)Cl)CC#N",
    "meta_data": {
        "InChI": "InChI=1S/C4H7Cl2NSi/c1-8(5,6)4-2-3-7/h2,4H2,1H3",
        "InChIKey": null,
        "Canonical SMILES": "N#CCC[Si](Cl)(Cl)C",
        "Molecular Formula": "C<sub>4</sub>H<sub>7</sub>Cl<sub>2</sub>NSi",
        "Molecular Mass": "168.10",
        "Boiling Point": "216 °C",
        "Density": "1.201 g/cm³"
    }
}