{
    "cas_no": "19427-28-2",
    "key_name": "<em>N</em>-Formyl-<span class=\"text-smallcaps\">L</span>-aspartic acid",
    "cn_name": "N-甲酰-L-天冬氨酸;",
    "alternate_name": "<span class=\"text-smallcaps\">L</span>-Aspartic acid, <em>N</em>-formyl-;Aspartic acid, <em>N</em>-formyl-, <span class=\"text-smallcaps\">L</span>-;<em>N</em>-Formyl-<span class=\"text-smallcaps\">L</span>-aspartic acid;<em>N</em>-Formylaspartic acid;(2S)-2-Formamidobutanedioic acid;(<em>S</em>)-2-Formamidosuccinic acid",
    "duplicated_cas_no": "",
    "SMILES": "[C@@H](CC(O)=O)(NC=O)C(O)=O",
    "meta_data": {
        "InChI": "InChI=1S/C5H7NO5/c7-2-6-3(5(10)11)1-4(8)9/h2-3H,1H2,(H,6,7)(H,8,9)(H,10,11)/t3-/m0/s1",
        "InChIKey": null,
        "Canonical SMILES": "O=CNC(C(=O)O)CC(=O)O",
        "Molecular Formula": "C<sub>5</sub>H<sub>7</sub>NO<sub>5</sub>",
        "Molecular Mass": "161.11",
        "Melting Point": "127.5-128 °C"
    }
}