{
    "cas_no": "33467-79-7",
    "key_name": "(2<em>E</em>,4<em>E</em>)-2,4-Heptadien-1-ol",
    "cn_name": "2,4-庚二烯-1-醇;2,4-庚二烯-1-醇;反,反-2,4-庚二烯-1-醇;",
    "alternate_name": "2,4-Heptadien-1-ol, (2<em>E</em>,4<em>E</em>)-;2,4-Heptadien-1-ol, (<em>E</em>,<em>E</em>)-;(2<em>E</em>,4<em>E</em>)-2,4-Heptadien-1-ol;(2<em>E</em>,4<em>E</em>)-Heptadienol;(<em>E</em>,<em>E</em>)-Hepta-2,4-dien-1-ol",
    "duplicated_cas_no": "",
    "SMILES": "C(\\C=C\\CO)=C/CC",
    "meta_data": {
        "InChI": "InChI=1S/C7H12O/c1-2-3-4-5-6-7-8/h3-6,8H,2,7H2,1H3/b4-3+,6-5+",
        "InChIKey": null,
        "Canonical SMILES": "OCC=CC=CCC",
        "Molecular Formula": "C<sub>7</sub>H<sub>12</sub>O",
        "Molecular Mass": "112.17",
        "Boiling Point": "96-98 °C @ Press: 18 Torr"
    }
}