{
    "cas_no": "57280-22-5",
    "key_name": "4,4-Dimethyl-3,5,8-trioxabicyclo[5.1.0]octane",
    "cn_name": "4,4-二甲基-3,5,8-三氧杂双环[5,1,0]辛烷;",
    "alternate_name": "3,5,8-Trioxabicyclo[5.1.0]octane, 4,4-dimethyl-;4,4-Dimethyl-3,5,8-trioxabicyclo[5.1.0]octane",
    "duplicated_cas_no": "2249925-25-3",
    "SMILES": "CC1(C)OCC2C(O2)CO1",
    "meta_data": {
        "InChI": "InChI=1S/C7H12O3/c1-7(2)8-3-5-6(10-5)4-9-7/h5-6H,3-4H2,1-2H3",
        "InChIKey": null,
        "Canonical SMILES": "O1CC2OC2COC1(C)C",
        "Molecular Formula": "C<sub>7</sub>H<sub>12</sub>O<sub>3</sub>",
        "Molecular Mass": "144.17",
        "Boiling Point": "86 °C @ Press: 15 Torr"
    }
}