{
    "cas_no": "6200-60-8",
    "key_name": "Imidazo[1,2-<em>a</em>]pyridine-3-carboxylic acid",
    "cn_name": "咪唑并[1,2-a]吡啶-3-甲酸;",
    "alternate_name": "Imidazo[1,2-<em>a</em>]pyridine-3-carboxylic acid;NSC 305198;NSC 305199",
    "duplicated_cas_no": "",
    "SMILES": "C(O)(=O)C=1N2C(=NC1)C=CC=C2",
    "meta_data": {
        "InChI": "InChI=1S/C8H6N2O2/c11-8(12)6-5-9-7-3-1-2-4-10(6)7/h1-5H,(H,11,12)",
        "InChIKey": null,
        "Canonical SMILES": "O=C(O)C1=CN=C2C=CC=CN21",
        "Molecular Formula": "C<sub>8</sub>H<sub>6</sub>N<sub>2</sub>O<sub>2</sub>",
        "Molecular Mass": "162.15",
        "Melting Point": "244-245 °C (decomp)"
    }
}