{
    "cas_no": "598-52-7",
    "key_name": "Methylthiourea",
    "cn_name": "甲基硫脲;",
    "alternate_name": "Thiourea, <em>N</em>-methyl-;Urea, 1-methyl-2-thio-;Thiourea, methyl-;Pseudourea, 1-methyl-2-thio-;<em>N</em>-Methylthiourea;Methylthiourea;1-Methyl-2-thiourea;1-Methylthiourea;1-Methylthiocarbamide;Methylthiocarbamide;<em>N</em>-Methylthiocarbamide;Monomethylthiourea;<em>N</em>-Methyl-2-thiourea;NSC 30213",
    "duplicated_cas_no": "50420-24-1",
    "SMILES": "C(NC)(N)=S",
    "meta_data": {
        "InChI": "InChI=1S/C2H6N2S/c1-4-2(3)5/h1H3,(H3,3,4,5)",
        "InChIKey": null,
        "Canonical SMILES": "S=C(N)NC",
        "Molecular Formula": "C<sub>2</sub>H<sub>6</sub>N<sub>2</sub>S",
        "Molecular Mass": "90.15",
        "Melting Point": "120 °C"
    }
}