{
    "cas_no": "55659-75-1",
    "key_name": "Deltonin",
    "cn_name": null,
    "alternate_name": "β-<span class=\"text-smallcaps\">D</smallcap>-Glucopyranoside, (3β,25<em>R</em>)-spirost-5-en-3-yl <em>O</em>-6-deoxy-α-<smallcap>L</smallcap>-mannopyranosyl-(1→2)-<em>O</em>-[β-<smallcap>D</span>-glucopyranosyl-(1→4)]-;(3β,25<em>R</em>)-Spirost-5-en-3-yl <em>O</em>-6-deoxy-α-<span class=\"text-smallcaps\">L</smallcap>-mannopyranosyl-(1→2)-<em>O</em>-[β-<smallcap>D</smallcap>-glucopyranosyl-(1→4)]-β-<smallcap>D</span>-glucopyranoside;Deltonin;3-<em>O</em>-β-<span class=\"text-smallcaps\">D</smallcap>-Glucopyranosyl(1→4)-[α-<smallcap>L</smallcap>-rhamnopyranosyl(1→2)]-β-<smallcap>D</span>-glucopyranoside-diosgenin",
    "duplicated_cas_no": "",
    "SMILES": "C[C@@]12[C@@]3([C@](C[C@]1([C@]4([C@](CC2)([C@]5(C)C(=CC4)C[C@@H](O[C@H]6[C@H](O[C@H]7[C@H](O)[C@H](O)[C@@H](O)[C@H](C)O7)[C@@H](O)[C@H](O[C@@H]8O[C@H](CO)[C@@H](O)[C@H](O)[C@H]8O)[C@@H](CO)O6)CC5)[H])[H])[H])(O[C@@]9([C@H]3C)CC[C@@H](C)CO9)[H])[H]",
    "meta_data": {
        "InChI": "InChI=1S/C45H72O17/c1-19-8-13-45(55-18-19)20(2)30-27(62-45)15-26-24-7-6-22-14-23(9-11-43(22,4)25(24)10-12-44(26,30)5)57-42-39(61-40-35(52)33(50)31(48)21(3)56-40)37(54)38(29(17-47)59-42)60-41-36(53)34(51)32(49)28(16-46)58-41/h6,19-21,23-42,46-54H,7-18H2,1-5H3/t19-,20+,21+,23+,24-,25+,26+,27+,28-,29-,30+,31+,32-,33-,34+,35-,36-,37+,38-,39-,40+,41+,42-,43+,44+,45-/m1/s1",
        "InChIKey": null,
        "Canonical SMILES": "OCC1OC(OC2C(O)C(OC3OC(C)C(O)C(O)C3O)C(OC4CC5=CCC6C(CCC7(C)C6CC8OC9(OCC(C)CC9)C(C)C87)C5(C)CC4)OC2CO)C(O)C(O)C1O",
        "Molecular Formula": "C<sub>45</sub>H<sub>72</sub>O<sub>17</sub>",
        "Molecular Mass": "885.04",
        "Melting Point": "298-300 °C (decomp)"
    }
}