{
    "cas_no": "644-35-9",
    "key_name": "2-Propylphenol",
    "cn_name": "2-丙基苯酚;",
    "alternate_name": "Phenol, 2-propyl-;Phenol, <em>o</em>-propyl-;2-Propylphenol;<em>o</em>-Propylphenol;2-<em>n</em>-Propylphenol;<em>o</em>-<em>n</em>-Propylphenol;NSC 65646",
    "duplicated_cas_no": "",
    "SMILES": "C(CC)C1=C(O)C=CC=C1",
    "meta_data": {
        "InChI": "InChI=1S/C9H12O/c1-2-5-8-6-3-4-7-9(8)10/h3-4,6-7,10H,2,5H2,1H3",
        "InChIKey": null,
        "Canonical SMILES": "OC=1C=CC=CC1CCC",
        "Molecular Formula": "C<sub>9</sub>H<sub>12</sub>O",
        "Molecular Mass": "136.19",
        "Boiling Point": "220 °C",
        "Melting Point": "7 °C",
        "Density": "1.000 g/cm³ @ Temp: 16 °C"
    }
}