{
    "cas_no": "2584-71-6",
    "key_name": "<em>cis</em>-4-Hydroxy-<span class=\"text-smallcaps\">D</span>-proline",
    "cn_name": null,
    "alternate_name": "<span class=\"text-smallcaps\">D</span>-Proline, 4-hydroxy-, (4<em>R</em>)-;Proline, 4-<em>allo</em>-hydroxy-, <span class=\"text-smallcaps\">D</span>-;<span class=\"text-smallcaps\">D</span>-Proline, 4-hydroxy-, <em>cis</em>-;(4<em>R</em>)-4-Hydroxy-<span class=\"text-smallcaps\">D</span>-proline;4-<em>allo</em>-Hydroxy-<span class=\"text-smallcaps\">D</span>-proline;<span class=\"text-smallcaps\">D</span>-<em>allo</em>-Hydroxyproline;4-Hydroxy-<span class=\"text-smallcaps\">D</span>-alloproline;<span class=\"text-smallcaps\">D</span>-<em>allo</em>-4-Hydroxyproline;(<em>R</em>)-<em>allo</em>-Hydroxyproline;<span class=\"text-smallcaps\">D</span>-<em>cis</em>-4-Hydroxyproline;<em>cis</em>-4-Hydroxy-<span class=\"text-smallcaps\">D</span>-proline;NSC 524341;(2<em>R</em>,4<em>R</em>)-4-Hydroxypyrrolidine-2-carboxylic acid;4-(<em>R</em>)-Hydroxypyrrolidine-2-(<em>R</em>)-carboxylic acid;(2R,4R)-4-Hydroxypyrrolidine-2-carboxylic acid;(2<em>R</em>,4<em>R</em>)-4-Hydroxyproline",
    "duplicated_cas_no": "",
    "SMILES": "C(O)(=O)[C@H]1C[C@@H](O)CN1",
    "meta_data": {
        "InChI": "InChI=1S/C5H9NO3/c7-3-1-4(5(8)9)6-2-3/h3-4,6-7H,1-2H2,(H,8,9)/t3-,4-/m1/s1",
        "InChIKey": null,
        "Canonical SMILES": "O=C(O)C1NCC(O)C1",
        "Molecular Formula": "C<sub>5</sub>H<sub>9</sub>NO<sub>3</sub>",
        "Molecular Mass": "131.13",
        "Melting Point": "240 °C"
    }
}