{
    "cas_no": "93-17-4",
    "key_name": "3,4-Dimethoxybenzeneacetonitrile",
    "cn_name": "3,4-二甲氧基苯乙腈;",
    "alternate_name": "Benzeneacetonitrile, 3,4-dimethoxy-;Acetonitrile, (3,4-dimethoxyphenyl)-;3,4-Dimethoxybenzeneacetonitrile;(3,4-Dimethoxyphenyl)acetonitrile;Homoveratronitrile;3,4-Dimethoxybenzyl cyanide;Veratryl cyanide;2-(3,4-Dimethoxyphenyl)acetonitrile;NSC 6324;3,4-Methyleneoxyphenyl acetonitrile",
    "duplicated_cas_no": "",
    "SMILES": "O(C)C1=C(OC)C=CC(CC#N)=C1",
    "meta_data": {
        "InChI": "InChI=1S/C10H11NO2/c1-12-9-4-3-8(5-6-11)7-10(9)13-2/h3-4,7H,5H2,1-2H3",
        "InChIKey": null,
        "Canonical SMILES": "N#CCC1=CC=C(OC)C(OC)=C1",
        "Molecular Formula": "C<sub>10</sub>H<sub>11</sub>NO<sub>2</sub>",
        "Molecular Mass": "177.20",
        "Boiling Point": "171-178 °C @ Press: 10 Torr",
        "Melting Point": "64-65 °C"
    }
}