{
    "cas_no": "17884-88-7",
    "key_name": "(3β,13α)-13-Methyl-27-norolean-14-ene-3,28-diol",
    "cn_name": null,
    "alternate_name": "27-Norolean-14-ene-3,28-diol, 13-methyl-, (3β,13α)-;<em>D</em>-Friedoolean-14-ene-3β,28-diol;<em>D</em>-Friedoolean-14-ene-3,28-diol, (3β)-;Myricadiol;(3β,13α)-13-Methyl-27-norolean-14-ene-3,28-diol;Taraxer-14-ene-3β,28-diol;4a(2<em>H</em>)-Picenemethanol, 1,3,4,5,6b,7,8,8a,9,10,11,12,12a,12b,13,14,14a,14b-octadecahydro-10-hydroxy-2,2,6b,9,9,12a,14a-heptamethyl-, [4a<em>S</em>-(4aα,6bα,8aβ,10α,12aα,12bβ,14aβ,14bα)]-;4a(2<em>H</em>)-Picenemethanol, 1,3,4,5,6b,7,8,8a,9,10,11,12,12a,12b,13,14,14a,14b-octadecahydro-10-hydroxy-2,2,6b,9,9,12a,14a-heptamethyl-, (4a<em>S</em>,6b<em>R</em>,8a<em>R</em>,10<em>S</em>,12a<em>R</em>,12b<em>R</em>,14a<em>S</em>,14b<em>S</em>)-",
    "duplicated_cas_no": "",
    "SMILES": "C[C@]12C([C@@]3(C)[C@](CC1)([C@]4(C)[C@@](CC3)(C(C)(C)[C@@H](O)CC4)[H])[H])=CC[C@]5(CO)[C@]2(CC(C)(C)CC5)[H]",
    "meta_data": {
        "InChI": "InChI=1S/C30H50O2/c1-25(2)16-17-30(19-31)15-10-22-28(6)12-8-20-26(3,4)24(32)11-14-27(20,5)21(28)9-13-29(22,7)23(30)18-25/h10,20-21,23-24,31-32H,8-9,11-19H2,1-7H3/t20-,21+,23-,24-,27-,28+,29+,30-/m0/s1",
        "InChIKey": null,
        "Canonical SMILES": "OCC12CC=C3C4(C)CCC5C(C)(C)C(O)CCC5(C)C4CCC3(C)C2CC(C)(C)CC1",
        "Molecular Formula": "C<sub>30</sub>H<sub>50</sub>O<sub>2</sub>",
        "Molecular Mass": "442.72",
        "Melting Point": "262-263 °C"
    }
}