{
    "cas_no": "98-81-7",
    "key_name": "α-Bromostyrene",
    "cn_name": "氢化松油醇;",
    "alternate_name": "Benzene, (1-bromoethenyl)-;Styrene, α-bromo-;(1-Bromoethenyl)benzene;α-Bromostyrene;1-Bromo-1-phenylethylene;1-Bromostyrene;1-Bromo-1-phenylethene;1-Phenylvinyl bromide;(1-Bromovinyl)benzene",
    "duplicated_cas_no": "",
    "SMILES": "C(Br)(=C)C1=CC=CC=C1",
    "meta_data": {
        "InChI": "InChI=1S/C8H7Br/c1-7(9)8-5-3-2-4-6-8/h2-6H,1H2",
        "InChIKey": null,
        "Canonical SMILES": "BrC(=C)C=1C=CC=CC1",
        "Molecular Formula": "C<sub>8</sub>H<sub>7</sub>Br",
        "Molecular Mass": "183.05",
        "Boiling Point": "110-112 °C @ Press: 35 Torr",
        "Melting Point": "-44 °C",
        "Density": "1.425 g/cm³ @ Temp: 17 °C"
    }
}