{
    "cas_no": "68781-13-5",
    "key_name": "Cyclopropanecarboxylic acid, 1-amino-, hydrochloride (1:1)",
    "cn_name": "1-氨基环丙烷羧酸盐酸盐;",
    "alternate_name": "Cyclopropanecarboxylic acid, 1-amino-, hydrochloride (1:1);Cyclopropanecarboxylic acid, 1-amino-, hydrochloride;1-Amino-1-cyclopropanecarboxylic acid hydrochloride;1-Aminocyclopropanecarboxylic acid hydrochloride;1-Carboxycyclopropanaminium chloride",
    "duplicated_cas_no": "",
    "SMILES": "C(O)(=O)C1(N)CC1.Cl",
    "meta_data": {
        "InChI": "InChI=1S/C4H7NO2.ClH/c5-4(1-2-4)3(6)7;/h1-2,5H2,(H,6,7);1H",
        "InChIKey": null,
        "Canonical SMILES": "Cl.O=C(O)C1(N)CC1",
        "Molecular Formula": "C<sub>4</sub>H<sub>7</sub>NO<sub>2</sub>.ClH",
        "Molecular Mass": "",
        "Melting Point": "222 °C (decomp)"
    }
}