{
    "cas_no": "584-02-1",
    "key_name": "3-Pentanol",
    "cn_name": "3-戊醇;",
    "alternate_name": "3-Pentanol;Diethyl carbinol;3-Pentyl alcohol;1-Ethyl-1-propanol;<em>sec</em>-Amyl alcohol;<em>sec</em>-Pentanol;<em>sec</em>-Pentyl alcohol;NSC 8654;1-Ethylpropyl alcohol;3-Hydroxypentane",
    "duplicated_cas_no": "",
    "SMILES": "C(CC)(CC)O",
    "meta_data": {
        "InChI": "InChI=1S/C5H12O/c1-3-5(6)4-2/h5-6H,3-4H2,1-2H3",
        "InChIKey": null,
        "Canonical SMILES": "OC(CC)CC",
        "Molecular Formula": "C<sub>5</sub>H<sub>12</sub>O",
        "Molecular Mass": "88.15",
        "Boiling Point": "116 °C",
        "Melting Point": "-8 °C",
        "Density": "0.8 g/cm³"
    }
}