{
    "cas_no": "2150-47-2",
    "key_name": "Methyl 2,4-dihydroxybenzoate",
    "cn_name": null,
    "alternate_name": "Benzoic acid, 2,4-dihydroxy-, methyl ester;β-Resorcylic acid, methyl ester;Methyl 2,4-dihydroxybenzoate;Methyl β-resorcylate;2,4-Dihydroxybenzoic acid methyl ester",
    "duplicated_cas_no": "",
    "SMILES": "C(OC)(=O)C1=C(O)C=C(O)C=C1",
    "meta_data": {
        "InChI": "InChI=1S/C8H8O4/c1-12-8(11)6-3-2-5(9)4-7(6)10/h2-4,9-10H,1H3",
        "InChIKey": null,
        "Canonical SMILES": "O=C(OC)C1=CC=C(O)C=C1O",
        "Molecular Formula": "C<sub>8</sub>H<sub>8</sub>O<sub>4</sub>",
        "Molecular Mass": "168.15",
        "Boiling Point": "102-104 °C @ Press: 0.5 Torr",
        "Melting Point": "118-121 °C"
    }
}