{
    "cas_no": "40851-98-7",
    "key_name": "5-Chloro-1,3-dihydro-2<em>H</em>-imidazo[4,5-<em>b</em>]pyridin-2-one",
    "cn_name": null,
    "alternate_name": "2<em>H</em>-Imidazo[4,5-<em>b</em>]pyridin-2-one, 5-chloro-1,3-dihydro-;5-Chloro-1,3-dihydro-2<em>H</em>-imidazo[4,5-<em>b</em>]pyridin-2-one",
    "duplicated_cas_no": "",
    "SMILES": "O=C1NC=2C(N1)=NC(Cl)=CC2",
    "meta_data": {
        "InChI": "InChI=1S/C6H4ClN3O/c7-4-2-1-3-5(9-4)10-6(11)8-3/h1-2H,(H2,8,9,10,11)",
        "InChIKey": null,
        "Canonical SMILES": "O=C1NC2=NC(Cl)=CC=C2N1",
        "Molecular Formula": "C<sub>6</sub>H<sub>4</sub>ClN<sub>3</sub>O",
        "Molecular Mass": "169.57",
        "Melting Point": "374 °C"
    }
}