{
    "cas_no": "140-08-9",
    "key_name": "Tris(2-chloroethyl) phosphite",
    "cn_name": "2-氯乙醇亚磷酸盐;",
    "alternate_name": "Ethanol, 2-chloro-, 1,1′,1′′-phosphite;Ethanol, 2-chloro-, phosphite (3:1);Ethanol, 2-chloro-, phosphite;Tris(β-chloroethyl) phosphite;Tris(2-chloroethyl) phosphite;Tris(chloroethyl) phosphite;Phosphorous acid, tris(2-chloroethyl) ester;CLP 1;Tri(2-chloroethyl) phosphite;NSC 6514",
    "duplicated_cas_no": "",
    "SMILES": "P(OCCCl)(OCCCl)OCCCl",
    "meta_data": {
        "InChI": "InChI=1S/C6H12Cl3O3P/c7-1-4-10-13(11-5-2-8)12-6-3-9/h1-6H2",
        "InChIKey": null,
        "Canonical SMILES": "ClCCOP(OCCCl)OCCCl",
        "Molecular Formula": "C<sub>6</sub>H<sub>12</sub>Cl<sub>3</sub>O<sub>3</sub>P",
        "Molecular Mass": "269.49",
        "Boiling Point": "119 °C @ Press: 0.15 Torr",
        "Density": "1.353 g/cm³ @ Temp: 20 °C"
    }
}