{
    "cas_no": "6301-02-6",
    "key_name": "1-Aminohydantoin",
    "cn_name": null,
    "alternate_name": "2,4-Imidazolidinedione, 1-amino-;Hydantoin, 1-amino-;1-Amino-2,4-imidazolidinedione;1-Aminohydantoin;NSC 44144",
    "duplicated_cas_no": "",
    "SMILES": "O=C1N(N)CC(=O)N1",
    "meta_data": {
        "InChI": "InChI=1S/C3H5N3O2/c4-6-1-2(7)5-3(6)8/h1,4H2,(H,5,7,8)",
        "InChIKey": null,
        "Canonical SMILES": "O=C1NC(=O)CN1N",
        "Molecular Formula": "C<sub>3</sub>H<sub>5</sub>N<sub>3</sub>O<sub>2</sub>",
        "Molecular Mass": "115.09",
        "Melting Point": "195-196 °C"
    }
}