{
    "cas_no": "572-30-5",
    "key_name": "Avicularin",
    "cn_name": "萹蓄苷;",
    "alternate_name": "4<em>H</em>-1-Benzopyran-4-one, 3-(α-<span class=\"text-smallcaps\">L</span>-arabinofuranosyloxy)-2-(3,4-dihydroxyphenyl)-5,7-dihydroxy-;Avicularin;3-(α-<span class=\"text-smallcaps\">L</span>-Arabinofuranosyloxy)-2-(3,4-dihydroxyphenyl)-5,7-dihydroxy-4<em>H</em>-1-benzopyran-4-one;Avicularoside;Quercetin 3-α-<span class=\"text-smallcaps\">L</span>-arabinofuranoside;Avicularine;Quercetin 3-<em>O</em>-α-<span class=\"text-smallcaps\">L</span>-arabinofuranoside",
    "duplicated_cas_no": "844831-83-0;887670-96-4;158560-11-3",
    "SMILES": "O(C1=C(OC=2C(C1=O)=C(O)C=C(O)C2)C3=CC(O)=C(O)C=C3)[C@@H]4O[C@@H](CO)[C@H](O)[C@H]4O",
    "meta_data": {
        "InChI": "InChI=1S/C20H18O11/c21-6-13-15(26)17(28)20(30-13)31-19-16(27)14-11(25)4-8(22)5-12(14)29-18(19)7-1-2-9(23)10(24)3-7/h1-5,13,15,17,20-26,28H,6H2/t13-,15-,17+,20-/m0/s1",
        "InChIKey": null,
        "Canonical SMILES": "O=C1C(OC2OC(CO)C(O)C2O)=C(OC=3C=C(O)C=C(O)C13)C=4C=CC(O)=C(O)C4",
        "Molecular Formula": "C<sub>20</sub>H<sub>18</sub>O<sub>11</sub>",
        "Molecular Mass": "434.35",
        "Melting Point": "207-208 °C"
    }
}