{
    "cas_no": "29110-47-2",
    "key_name": "Guanfacine",
    "cn_name": "胍法辛;",
    "alternate_name": "Benzeneacetamide, <em>N</em>-(aminoiminomethyl)-2,6-dichloro-;Acetamide, <em>N</em>-amidino-2-(2,6-dichlorophenyl)-;<em>N</em>-(Aminoiminomethyl)-2,6-dichlorobenzeneacetamide;[(2,6-Dichlorophenyl)acetyl]guanidine;<em>N</em>-Amidino-2-(2,6-dichlorophenyl)acetamide;Guanfacine;Guanfascine;Guarfacine;Guanfacin;MeSH ID: D016316",
    "duplicated_cas_no": "",
    "SMILES": "C(C(NC(=N)N)=O)C1=C(Cl)C=CC=C1Cl",
    "meta_data": {
        "InChI": "InChI=1S/C9H9Cl2N3O/c10-6-2-1-3-7(11)5(6)4-8(15)14-9(12)13/h1-3H,4H2,(H4,12,13,14,15)",
        "InChIKey": null,
        "Canonical SMILES": "O=C(NC(=N)N)CC=1C(Cl)=CC=CC1Cl",
        "Molecular Formula": "C<sub>9</sub>H<sub>9</sub>Cl<sub>2</sub>N<sub>3</sub>O",
        "Molecular Mass": "246.09",
        "Melting Point": "226 °C"
    }
}