{
    "cas_no": "25016-02-8",
    "key_name": "2-Methoxy-5-nitrobenzaldehyde",
    "cn_name": "2-甲氧基-5-硝基苯甲醛;",
    "alternate_name": "Benzaldehyde, 2-methoxy-5-nitro-;<em>o</em>-Anisaldehyde, 5-nitro-;2-Methoxy-5-nitrobenzaldehyde;5-Nitro-2-methoxybenzaldehyde;3-Nitro-6-methoxybenzaldehyde",
    "duplicated_cas_no": "939374-52-4",
    "SMILES": "C(=O)C1=C(OC)C=CC(N(=O)=O)=C1",
    "meta_data": {
        "InChI": "InChI=1S/C8H7NO4/c1-13-8-3-2-7(9(11)12)4-6(8)5-10/h2-5H,1H3",
        "InChIKey": null,
        "Canonical SMILES": "O=CC1=CC(=CC=C1OC)N(=O)=O",
        "Molecular Formula": "C<sub>8</sub>H<sub>7</sub>NO<sub>4</sub>",
        "Molecular Mass": "181.15",
        "Melting Point": "89 °C"
    }
}