{
    "cas_no": "28217-60-9",
    "key_name": "3,5-Dihydroxyphenyl β-<span class=\"text-smallcaps\">D</span>-glucopyranoside",
    "cn_name": null,
    "alternate_name": "β-<span class=\"text-smallcaps\">D</span>-Glucopyranoside, 3,5-dihydroxyphenyl;Glucopyranoside, 3,5-dihydroxyphenyl, β-<span class=\"text-smallcaps\">D</span>-;Phlorin;3,5-Dihydroxyphenyl β-<span class=\"text-smallcaps\">D</span>-glucopyranoside;3,5-Dihydroxyphenyl β-<span class=\"text-smallcaps\">D</span>-glucoside;Phloroglucinol 1-<em>O</em>-β-<span class=\"text-smallcaps\">D</span>-glucopyranoside;Phloroglucinol 1-<em>O</em>-β-<span class=\"text-smallcaps\">D</span>-glucoside",
    "duplicated_cas_no": "29008-77-3",
    "SMILES": "O([C@H]1[C@H](O)[C@@H](O)[C@H](O)[C@@H](CO)O1)C2=CC(O)=CC(O)=C2",
    "meta_data": {
        "InChI": "InChI=1S/C12H16O8/c13-4-8-9(16)10(17)11(18)12(20-8)19-7-2-5(14)1-6(15)3-7/h1-3,8-18H,4H2/t8-,9-,10+,11-,12-/m1/s1",
        "InChIKey": null,
        "Canonical SMILES": "OC=1C=C(O)C=C(OC2OC(CO)C(O)C(O)C2O)C1",
        "Molecular Formula": "C<sub>12</sub>H<sub>16</sub>O<sub>8</sub>",
        "Molecular Mass": "288.25",
        "Melting Point": "236-238 °C"
    }
}