{
    "cas_no": "760-67-8",
    "key_name": "2-Ethylhexanoyl chloride",
    "cn_name": "2-乙基己酰氯;",
    "alternate_name": "Hexanoyl chloride, 2-ethyl-;2-Ethylhexanoyl chloride;2-Ethylhexanoic acid chloride;2-Ethylcaproyl chloride;NSC 87892",
    "duplicated_cas_no": "",
    "SMILES": "C(CCCC)(C(Cl)=O)CC",
    "meta_data": {
        "InChI": "InChI=1S/C8H15ClO/c1-3-5-6-7(4-2)8(9)10/h7H,3-6H2,1-2H3",
        "InChIKey": null,
        "Canonical SMILES": "O=C(Cl)C(CC)CCCC",
        "Molecular Formula": "C<sub>8</sub>H<sub>15</sub>ClO",
        "Molecular Mass": "162.66",
        "Boiling Point": "88 °C @ Press: 30 Torr",
        "Density": "0.944 g/cm³ @ Temp: 24 °C"
    }
}