{
    "cas_no": "6635-41-2",
    "key_name": "2-Nitrobenzaldehyde oxime",
    "cn_name": "2-硝基苯甲醛肟;",
    "alternate_name": "Benzaldehyde, 2-nitro-, oxime;Benzaldehyde, <em>o</em>-nitro-, oxime;<em>o</em>-Nitrobenzaldehyde oxime;<em>o</em>-Nitrobenzaldoxime;2-Nitrobenzaldoxime;2-Nitrobenzaldehyde oxime;NSC 52215",
    "duplicated_cas_no": "",
    "SMILES": "N(=O)(=O)C1=C(C=NO)C=CC=C1",
    "meta_data": {
        "InChI": "InChI=1S/C7H6N2O3/c10-8-5-6-3-1-2-4-7(6)9(11)12/h1-5,10H",
        "InChIKey": null,
        "Canonical SMILES": "O=N(=O)C=1C=CC=CC1C=NO",
        "Molecular Formula": "C<sub>7</sub>H<sub>6</sub>N<sub>2</sub>O<sub>3</sub>",
        "Molecular Mass": "166.13",
        "Melting Point": "97 °C"
    }
}