{
    "cas_no": "141-20-8",
    "key_name": "Diethylene glycol laurate",
    "cn_name": "淡绿SF;淡绿SF淡黄;",
    "alternate_name": "Dodecanoic acid, 2-(2-hydroxyethoxy)ethyl ester;Lauric acid, 2-(2-hydroxyethoxy)ethyl ester;Diethylene glycol, monolaurate;Nonex 413;Atlas G 2124;Diethylene glycol laurate;Diethylene glycol lauric acid monoester;Diglycol monolaurate;2,2′-Dihydroxyethyl ether monododecanoate;Emcol RDC-D;Glaurin;Lauro-Sebum;Diglycol laurate;2-(2-Hydroxyethoxy)ethyl laurate;PEG-2 Laurate;Pegosperse 100LN;G 2124;NSC 3868;Emcol DL 50;2-(2-Hydroxyethoxy)ethyl dodecanoate;Genapol DEL",
    "duplicated_cas_no": "8034-22-8",
    "SMILES": "C(CCCCCCCCCCC)(OCCOCCO)=O",
    "meta_data": {
        "InChI": "InChI=1S/C16H32O4/c1-2-3-4-5-6-7-8-9-10-11-16(18)20-15-14-19-13-12-17/h17H,2-15H2,1H3",
        "InChIKey": null,
        "Canonical SMILES": "O=C(OCCOCCO)CCCCCCCCCCC",
        "Molecular Formula": "C<sub>16</sub>H<sub>32</sub>O<sub>4</sub>",
        "Molecular Mass": "288.42",
        "Melting Point": "17.5 °C"
    }
}