{
    "cas_no": "107-91-5",
    "key_name": "Cyanoacetamide",
    "cn_name": "氰乙酰胺;",
    "alternate_name": "Acetamide, 2-cyano-;Acetamide, cyano-;2-Cyanoacetamide;Malonamide nitrile;Nitrilomalonamide;Cyanoacetamide;Malonamonitrile;Cyanoiminoacetic acid;Cyanacetamide;α-Cyanoacetamide;Cyanoacetic acid amide;NSC 6285;NSC 8948;8: PN: WO2007101224 PAGE: 36 claimed sequence;Malonoamide nitrile",
    "duplicated_cas_no": "30587-80-5",
    "SMILES": "C(C(N)=O)C#N",
    "meta_data": {
        "InChI": "InChI=1S/C3H4N2O/c4-2-1-3(5)6/h1H2,(H2,5,6)",
        "InChIKey": null,
        "Canonical SMILES": "N#CCC(=O)N",
        "Molecular Formula": "C<sub>3</sub>H<sub>4</sub>N<sub>2</sub>O",
        "Molecular Mass": "84.08",
        "Melting Point": "119.5 °C"
    }
}