{
    "cas_no": "56-84-8",
    "key_name": "<span class=\"text-smallcaps\">L</span>-Aspartic acid",
    "cn_name": "L-天门冬氨酸;",
    "alternate_name": "<span class=\"text-smallcaps\">L</span>-Aspartic acid;Aspartic acid, <span class=\"text-smallcaps\">L</span>-;<span class=\"text-smallcaps\">L</span>-Aminosuccinic acid;Asparagic acid;Asparaginic acid;Butanedioic acid, amino-, (<em>S</em>)-;Aspartic acid;<span class=\"text-smallcaps\">L</span>-Asparaginic acid;(<em>S</em>)-Aspartic acid;<span class=\"text-smallcaps\">L</span>-Asparagic acid;<span class=\"text-smallcaps\">L</span>-(+)-Aspartic acid;(<em>S</em>)-Aminobutanedioic acid;(+)-Aspartic acid;H-Asp-OH;NSC 3973;NSC 79553;(<em>S</em>)-2-Aminobutanedioic acid;(+)-<span class=\"text-smallcaps\">L</span>-Aspartic acid;387: PN: WO2022056313 SEQID: 393 claimed protein;12: PN: WO2023056433 PAGE: 60 claimed sequence;MeSH ID: D001224;391: PN: WO2023172654 SEQID: 393 claimed sequence",
    "duplicated_cas_no": "6899-03-2;181119-33-5;2139279-07-3",
    "SMILES": "[C@H](CC(O)=O)(C(O)=O)N",
    "meta_data": {
        "InChI": "InChI=1S/C4H7NO4/c5-2(4(8)9)1-3(6)7/h2H,1,5H2,(H,6,7)(H,8,9)/t2-/m0/s1",
        "InChIKey": null,
        "Canonical SMILES": "O=C(O)CC(N)C(=O)O",
        "Molecular Formula": "C<sub>4</sub>H<sub>7</sub>NO<sub>4</sub>",
        "Molecular Mass": "133.10",
        "Melting Point": "270-271 °C",
        "Density": "1.661 g/cm³ @ Temp: 12.5 °C"
    }
}