{
    "cas_no": "13055-63-5",
    "key_name": "2-Methyl-5-(trifluoromethyl)benzoic acid",
    "cn_name": "2-甲基-5-(三氟甲基)苯甲酸;",
    "alternate_name": "Benzoic acid, 2-methyl-5-(trifluoromethyl)-;2-Methyl-5-(trifluoromethyl)benzoic acid;2-Methyl-5-trifluoromethylbenzoic acid;5-Trifluoromethyl-2-methylbenzoic acid",
    "duplicated_cas_no": "",
    "SMILES": "C(O)(=O)C1=CC(C(F)(F)F)=CC=C1C",
    "meta_data": {
        "InChI": "InChI=1S/C9H7F3O2/c1-5-2-3-6(9(10,11)12)4-7(5)8(13)14/h2-4H,1H3,(H,13,14)",
        "InChIKey": null,
        "Canonical SMILES": "O=C(O)C1=CC(=CC=C1C)C(F)(F)F",
        "Molecular Formula": "C<sub>9</sub>H<sub>7</sub>F<sub>3</sub>O<sub>2</sub>",
        "Molecular Mass": "204.15",
        "Melting Point": "123.0-124.5 °C"
    }
}