{
    "cas_no": "6283-74-5",
    "key_name": "(+)-Diacetyl-<span class=\"text-smallcaps\">L</span>-tartaric anhydride",
    "cn_name": null,
    "alternate_name": "2,5-Furandione, 3,4-bis(acetyloxy)dihydro-, (3<em>R</em>,4<em>R</em>)-;Tartaric anhydride, diacetate;2,5-Furandione, 3,4-bis(acetyloxy)dihydro-, (3<em>R</em>-<em>trans</em>)-;(3<em>R</em>,4<em>R</em>)-3,4-Bis(acetyloxy)dihydro-2,5-furandione;Diacetyl-<span class=\"text-smallcaps\">L</span>-tartaric anhydride;(+)-Diacetyl-<span class=\"text-smallcaps\">L</span>-tartaric anhydride;<span class=\"text-smallcaps\">L</span>-Diacetyltartaric anhydride;Diacetyltartaric anhydride;Diacetyltartaric acid anhydride;(<em>R</em>,<em>R</em>)-<em>O</em>,<em>O</em>-Diacetyltartaric acid anhydride;<em>O</em>,<em>O</em>′-Diacetyl-<span class=\"text-smallcaps\">L</span>-tartaric anhydride;(<em>R</em>,<em>R</em>)-2,3-Diacetoxy-1,4-butanedioic anhydride;(<em>R</em>,<em>R</em>)-<em>O</em>,<em>O</em>-Diacetyltartaric anhydride;NSC 7712;(2<em>R</em>,3<em>R</em>)-Di-<em>O</em>-acetyltartaric acid anhydride",
    "duplicated_cas_no": "19523-83-2;39547-12-1;69945-02-4;74654-10-7;83185-68-6;90850-61-6",
    "SMILES": "O(C(C)=O)[C@@H]1[C@@H](OC(C)=O)C(=O)OC1=O",
    "meta_data": {
        "InChI": "InChI=1S/C8H8O7/c1-3(9)13-5-6(14-4(2)10)8(12)15-7(5)11/h5-6H,1-2H3/t5-,6-/m1/s1",
        "InChIKey": null,
        "Canonical SMILES": "O=C(OC1C(=O)OC(=O)C1OC(=O)C)C",
        "Molecular Formula": "C<sub>8</sub>H<sub>8</sub>O<sub>7</sub>",
        "Molecular Mass": "216.14",
        "Melting Point": "134 °C"
    }
}