{
    "cas_no": "238-84-6",
    "key_name": "11<em>H</em>-Benzo[<em>a</em>]fluorene",
    "cn_name": "1,2-苯并芴;柯芴;",
    "alternate_name": "11<em>H</em>-Benzo[<em>a</em>]fluorene;Chrysofluorene;1,2-Benzofluorene;Benzo[<em>a</em>]fluorene;NSC 89262",
    "duplicated_cas_no": "",
    "SMILES": "C1=2C(C=3C(C1)=CC=CC3)=CC=C4C2C=CC=C4",
    "meta_data": {
        "InChI": "InChI=1S/C17H12/c1-3-7-14-12(5-1)9-10-16-15-8-4-2-6-13(15)11-17(14)16/h1-10H,11H2",
        "InChIKey": null,
        "Canonical SMILES": "C=1C=CC2=C(C1)C=CC=3C=4C=CC=CC4CC23",
        "Molecular Formula": "C<sub>17</sub>H<sub>12</sub>",
        "Molecular Mass": "216.28",
        "Boiling Point": "399 °C",
        "Melting Point": "189 °C"
    }
}