{
    "cas_no": "10049-12-4",
    "key_name": "Vanadium fluoride (VF<sub>3</sub>)",
    "cn_name": "氟化钒(III);三氟钒;氟化钒;氟化钒(III);",
    "alternate_name": "Vanadium fluoride (VF<sub>3</sub>);Vanadium trifluoride",
    "duplicated_cas_no": "",
    "SMILES": "[V](F)(F)F",
    "meta_data": {
        "InChI": "InChI=1S/3FH.V/h3*1H;/q;;;+3/p-3",
        "InChIKey": null,
        "Canonical SMILES": "F[V](F)F",
        "Molecular Formula": "F<sub>3</sub>V",
        "Molecular Mass": "",
        "Melting Point": "&gt;800 °C",
        "Density": "3.3628 g/cm³ @ Temp: 19 °C"
    }
}