{
    "cas_no": "2103-57-3",
    "key_name": "2,3,4-Trimethoxybenzaldehyde",
    "cn_name": "2,3,4―三甲氧基苯甲醛;",
    "alternate_name": "Benzaldehyde, 2,3,4-trimethoxy-;2,3,4-Trimethoxybenzaldehyde",
    "duplicated_cas_no": "",
    "SMILES": "O(C)C1=C(OC)C(OC)=CC=C1C=O",
    "meta_data": {
        "InChI": "InChI=1S/C10H12O4/c1-12-8-5-4-7(6-11)9(13-2)10(8)14-3/h4-6H,1-3H3",
        "InChIKey": null,
        "Canonical SMILES": "O=CC1=CC=C(OC)C(OC)=C1OC",
        "Molecular Formula": "C<sub>10</sub>H<sub>12</sub>O<sub>4</sub>",
        "Molecular Mass": "196.20",
        "Boiling Point": "170 °C @ Press: 12 Torr",
        "Melting Point": "30 °C"
    }
}