{
    "cas_no": "15767-75-6",
    "key_name": "Glutamic acid, hydrochloride (1:1)",
    "cn_name": null,
    "alternate_name": "Glutamic acid, hydrochloride (1:1);Glutamic acid, hydrochloride, <span class=\"text-smallcaps\">DL</span>-;<span class=\"text-smallcaps\">DL</span>-Glutamic acid, hydrochloride;Glutamic acid, hydrochloride;2-Aminopentanedioic acid hydrochloride",
    "duplicated_cas_no": "18710-29-7;33140-05-5",
    "SMILES": "C(CCC(O)=O)(C(O)=O)N.Cl",
    "meta_data": {
        "InChI": "InChI=1S/C5H9NO4.ClH/c6-3(5(9)10)1-2-4(7)8;/h3H,1-2,6H2,(H,7,8)(H,9,10);1H",
        "InChIKey": null,
        "Canonical SMILES": "Cl.O=C(O)CCC(N)C(=O)O",
        "Molecular Formula": "C<sub>5</sub>H<sub>9</sub>NO<sub>4</sub>.ClH",
        "Molecular Mass": "",
        "Melting Point": "172 °C (decomp)"
    }
}