{
    "cas_no": "5294-61-1",
    "key_name": "4-[(2,6-Dimethylphenyl)aminocarbonylmethyl]piperazine",
    "cn_name": "N-(2,6-二甲基苯基)-1-哌嗪乙酰胺;",
    "alternate_name": "1-Piperazineacetamide, <em>N</em>-(2,6-dimethylphenyl)-;1-Piperazineaceto-2′,6′-xylidide;<em>N</em>-(2,6-Dimethylphenyl)-1-piperazineacetamide;RS 94287;<em>N</em>-(2,6-Dimethylphenyl)-2-piperazinylacetamide;4-[(2,6-Dimethylphenyl)aminocarbonylmethyl]piperazine;<em>N</em>-(2,6-Dimethylphenyl)-2-(1-piperazinyl)acetamide",
    "duplicated_cas_no": "172278-49-8",
    "SMILES": "N(C(CN1CCNCC1)=O)C2=C(C)C=CC=C2C",
    "meta_data": {
        "InChI": "InChI=1S/C14H21N3O/c1-11-4-3-5-12(2)14(11)16-13(18)10-17-8-6-15-7-9-17/h3-5,15H,6-10H2,1-2H3,(H,16,18)",
        "InChIKey": null,
        "Canonical SMILES": "O=C(NC=1C(=CC=CC1C)C)CN2CCNCC2",
        "Molecular Formula": "C<sub>14</sub>H<sub>21</sub>N<sub>3</sub>O",
        "Molecular Mass": "247.34",
        "Melting Point": "110-114 °C"
    }
}