{
    "cas_no": "12063-98-8",
    "key_name": "Gallium phosphide",
    "cn_name": "磷化镓;",
    "alternate_name": "Gallium phosphide (GaP);Gallium phosphide;Gallium monophosphide;Gallium monophosphide (GaP);Gallium alloy, base, Ga 69,P 31",
    "duplicated_cas_no": "287920-56-3;2395838-74-9",
    "SMILES": "[Ga]#P",
    "meta_data": {
        "InChI": "InChI=1S/Ga.P",
        "InChIKey": null,
        "Canonical SMILES": "P#[Ga]",
        "Molecular Formula": "GaP",
        "Molecular Mass": "",
        "Melting Point": "1525 °C"
    }
}