{
    "cas_no": "675-10-5",
    "key_name": "4-Hydroxy-6-methyl-2-pyrone",
    "cn_name": null,
    "alternate_name": "2<em>H</em>-Pyran-2-one, 4-hydroxy-6-methyl-;Sorbic acid, 3,5-dihydroxy-, δ-lactone;4-Hydroxy-6-methyl-2<em>H</em>-pyran-2-one;Triacetic acid lactone;4-Hydroxy-6-methylpyran-2-one;4-Hydroxy-6-methyl-α-pyrone;4-Hydroxy-6-methyl-2-pyrone;6-Methyl-4-hydroxy-2-pyrone;NSC 34625;4-Hydroxy-6-methylpyrone;6-Methyl-4-hydroxypyrone",
    "duplicated_cas_no": "",
    "SMILES": "OC=1C=C(C)OC(=O)C1",
    "meta_data": {
        "InChI": "InChI=1S/C6H6O3/c1-4-2-5(7)3-6(8)9-4/h2-3,7H,1H3",
        "InChIKey": null,
        "Canonical SMILES": "O=C1OC(=CC(O)=C1)C",
        "Molecular Formula": "C<sub>6</sub>H<sub>6</sub>O<sub>3</sub>",
        "Molecular Mass": "126.11",
        "Melting Point": "185 °C"
    }
}