{
    "cas_no": "110-93-0",
    "key_name": "6-Methyl-5-hepten-2-one",
    "cn_name": "甲基庚烯酮;6-甲基-5-庚烯-2-酮;",
    "alternate_name": "5-Hepten-2-one, 6-methyl-;6-Methyl-5-hepten-2-one;2-Methyl-6-oxo-2-heptene;6-Methyl-Δ<sup>5</sup>-hepten-2-one;2-Methyl-2-hepten-6-one;6-Methyl-5-heptene-2-one;2-Methyl-2-heptene-6-one;2-Oxo-6-methylhept-5-ene;Sulcatone;2-Methyl-2-heptene-6-ketone;Methylheptenone;NSC 15294;NSC 66569;Prenylacetone;6-Methyl-5-hepten-2-ketone;Isoprenylacetone",
    "duplicated_cas_no": "129085-68-3",
    "SMILES": "C(C=C(C)C)CC(C)=O",
    "meta_data": {
        "InChI": "InChI=1S/C8H14O/c1-7(2)5-4-6-8(3)9/h5H,4,6H2,1-3H3",
        "InChIKey": null,
        "Canonical SMILES": "O=C(C)CCC=C(C)C",
        "Molecular Formula": "C<sub>8</sub>H<sub>14</sub>O",
        "Molecular Mass": "126.20",
        "Boiling Point": "170-173 °C",
        "Density": "0.8516 g/cm³ @ Temp: 20 °C"
    }
}