{
    "cas_no": "10486-08-5",
    "key_name": "Benzenethiol, 4-methyl-, sodium salt (1:1)",
    "cn_name": "4-甲基苯硫醇钠盐;",
    "alternate_name": "Benzenethiol, 4-methyl-, sodium salt (1:1);<em>p</em>-Toluenethiol, sodium salt;Benzenethiol, 4-methyl-, sodium salt;Sodium, (<em>p</em>-tolylthio)-;<em>p</em>-Toluenethiol, sodium deriv.;Sodium <em>p</em>-toluenethiolate;Sodium <em>p</em>-tolylmercaptide;4-Methylbenzenethiol sodium salt;Sodium <em>p</em>-methylthiophenoxide;<em>p</em>-Thiocresol sodium salt;Sodium <em>p</em>-methylthiophenolate;Sodium <em>p</em>-thiocresolate;Sodium 4-methylbenzenethiolate;Sodium thiocresoxide;<em>p</em>-Methylthiophenol sodium salt;Sodium 4-toluenethiolate;4-Methylthiophenol sodium salt;Sodium 4-thiocresylate;4-Thiocresol sodium salt;Sodium <em>p</em>-methylbenzenethiolate;Sodium 4-methylphenylthiolate;Sodium <em>p</em>-tolylthiolate;Sodium 4-methylthiophenoxide;Sodium <em>p</em>-methylthiophenol",
    "duplicated_cas_no": "",
    "SMILES": "CC1=CC=C(S)C=C1.[Na]",
    "meta_data": {
        "InChI": "InChI=1S/C7H8S.Na/c1-6-2-4-7(8)5-3-6;/h2-5,8H,1H3;",
        "InChIKey": null,
        "Canonical SMILES": "[Na].SC1=CC=C(C=C1)C",
        "Molecular Formula": "C<sub>7</sub>H<sub>8</sub>S.Na",
        "Molecular Mass": "",
        "Melting Point": "50-51 °C"
    }
}