{
    "cas_no": "5685-38-1",
    "key_name": "2-Phenylcyclopropanecarboxylic acid",
    "cn_name": null,
    "alternate_name": "Cyclopropanecarboxylic acid, 2-phenyl-;2-Phenylcyclopropanecarboxylic acid;NSC 245855;2-Phenyl-1-cyclopropanecarboxylic acid",
    "duplicated_cas_no": "",
    "SMILES": "C(O)(=O)C1C(C1)C2=CC=CC=C2",
    "meta_data": {
        "InChI": "InChI=1S/C10H10O2/c11-10(12)9-6-8(9)7-4-2-1-3-5-7/h1-5,8-9H,6H2,(H,11,12)",
        "InChIKey": null,
        "Canonical SMILES": "O=C(O)C1CC1C=2C=CC=CC2",
        "Molecular Formula": "C<sub>10</sub>H<sub>10</sub>O<sub>2</sub>",
        "Molecular Mass": "162.19",
        "Melting Point": "89-90 °C"
    }
}