{
    "cas_no": "7341-96-0",
    "key_name": "2-Propynamide",
    "cn_name": "丙炔酰胺;2-丙炔酰胺;丙炔酸酰胺;",
    "alternate_name": "2-Propynamide;Propiolamide;Propiolic acid amide;NSC 520954;Propynamide",
    "duplicated_cas_no": "",
    "SMILES": "C(C#C)(N)=O",
    "meta_data": {
        "InChI": "InChI=1S/C3H3NO/c1-2-3(4)5/h1H,(H2,4,5)",
        "InChIKey": null,
        "Canonical SMILES": "O=C(C#C)N",
        "Molecular Formula": "C<sub>3</sub>H<sub>3</sub>NO",
        "Molecular Mass": "69.06",
        "Melting Point": "61-62 °C",
        "Density": "1.10 g/cm³"
    }
}