{
    "cas_no": "31949-21-0",
    "key_name": "2-Bromo-1-(2-methoxyphenyl)ethanone",
    "cn_name": null,
    "alternate_name": "Ethanone, 2-bromo-1-(2-methoxyphenyl)-;Acetophenone, 2-bromo-2′-methoxy-;2-Bromo-1-(2-methoxyphenyl)ethanone;Bromomethyl <em>o</em>-methoxyphenyl ketone;2-Bromo-2′-methoxyacetophenone;<em>o</em>-Methoxyphenacylbromide;2-Methoxyphenacyl bromide;ω-Bromo-2-methoxyacetophenone;α-Bromo-2-methoxyacetophenone;2′-Methoxy-2-bromoacetophenone;1-(2-Methoxyphenyl)-2-bromoethanone;2-(Bromoacetyl)anisole;2-Bromo-1-(2-methoxyphenyl)ethan-1-one;Bromo-2′-methoxyacetophenone;<em>o</em>-Methoxy-2-bromoacetophenone",
    "duplicated_cas_no": "",
    "SMILES": "C(CBr)(=O)C1=C(OC)C=CC=C1",
    "meta_data": {
        "InChI": "InChI=1S/C9H9BrO2/c1-12-9-5-3-2-4-7(9)8(11)6-10/h2-5H,6H2,1H3",
        "InChIKey": null,
        "Canonical SMILES": "O=C(C=1C=CC=CC1OC)CBr",
        "Molecular Formula": "C<sub>9</sub>H<sub>9</sub>BrO<sub>2</sub>",
        "Molecular Mass": "229.07",
        "Melting Point": "42-43 °C"
    }
}