{
    "cas_no": "38953-85-4",
    "key_name": "Isovitexin",
    "cn_name": null,
    "alternate_name": "4<em>H</em>-1-Benzopyran-4-one, 6-β-<span class=\"text-smallcaps\">D</span>-glucopyranosyl-5,7-dihydroxy-2-(4-hydroxyphenyl)-;Homovitexin;Flavone, 6-β-<span class=\"text-smallcaps\">D</span>-glucopyranosyl-4′,5,7-trihydroxy-;6-β-<span class=\"text-smallcaps\">D</span>-Glucopyranosyl-5,7-dihydroxy-2-(4-hydroxyphenyl)-4<em>H</em>-1-benzopyran-4-one;Isovitexin;Isovitexin (C-6 isomer);Saponaretin;6-<em>C</em>-Glucosylapigenin;6-<em>C</em>-β-<span class=\"text-smallcaps\">D</span>-Glucopyranosylapigenin;Apigenin 6-<em>C</em>-β-<span class=\"text-smallcaps\">D</span>-glucoside;Apigenin 6-<em>C</em>-β-glucopyranoside;Isoavroside;Apigenin-6-<em>C</em>-glucoside;Avroside;Apigenin-6-<em>C</em>-β-<span class=\"text-smallcaps\">D</span>-glucopyranoside",
    "duplicated_cas_no": "3681-94-5;29702-25-8;36025-68-0;61383-34-4",
    "SMILES": "OC=1C(=C(O)C=C2C1C(=O)C=C(O2)C3=CC=C(O)C=C3)[C@@H]4O[C@H](CO)[C@@H](O)[C@H](O)[C@H]4O",
    "meta_data": {
        "InChI": "InChI=1S/C21H20O10/c22-7-14-17(26)19(28)20(29)21(31-14)16-11(25)6-13-15(18(16)27)10(24)5-12(30-13)8-1-3-9(23)4-2-8/h1-6,14,17,19-23,25-29H,7H2/t14-,17-,19+,20-,21+/m1/s1",
        "InChIKey": null,
        "Canonical SMILES": "O=C1C=C(OC2=CC(O)=C(C(O)=C12)C3OC(CO)C(O)C(O)C3O)C=4C=CC(O)=CC4",
        "Molecular Formula": "C<sub>21</sub>H<sub>20</sub>O<sub>10</sub>",
        "Molecular Mass": "432.38",
        "Melting Point": "257-258 °C"
    }
}