{
    "cas_no": "220353-22-0",
    "key_name": "Phenol, 4-amino-2,6-difluoro-, hydrochloride (1:1)",
    "cn_name": null,
    "alternate_name": "Phenol, 4-amino-2,6-difluoro-, hydrochloride (1:1);Phenol, 4-amino-2,6-difluoro-, hydrochloride;4-Amino-2,6-difluorophenol hydrochloride",
    "duplicated_cas_no": "",
    "SMILES": "OC1=C(F)C=C(N)C=C1F.Cl",
    "meta_data": {
        "InChI": "InChI=1S/C6H5F2NO.ClH/c7-4-1-3(9)2-5(8)6(4)10;/h1-2,10H,9H2;1H",
        "InChIKey": null,
        "Canonical SMILES": "Cl.FC=1C=C(N)C=C(F)C1O",
        "Molecular Formula": "C<sub>6</sub>H<sub>5</sub>F<sub>2</sub>NO.ClH",
        "Molecular Mass": "",
        "Melting Point": "&gt;230 °C (decomp)"
    }
}