{
    "cas_no": "15510-55-1",
    "key_name": "Dodecyltriphenylphosphonium bromide",
    "cn_name": "十二烷基三苯基溴化膦;",
    "alternate_name": "Phosphonium, dodecyltriphenyl-, bromide (1:1);Phosphonium, dodecyltriphenyl-, bromide;Dodecyltriphenylphosphonium bromide;Myxal S;D 305;Mycal;1-(Triphenylphosphonium)dodecyl bromide;Triphenyldodecyl phosphonium bromide",
    "duplicated_cas_no": "8047-89-0",
    "SMILES": "[P+](CCCCCCCCCCCC)(C1=CC=CC=C1)(C2=CC=CC=C2)C3=CC=CC=C3.[Br-]",
    "meta_data": {
        "InChI": "InChI=1S/C30H40P.BrH/c1-2-3-4-5-6-7-8-9-10-20-27-31(28-21-14-11-15-22-28,29-23-16-12-17-24-29)30-25-18-13-19-26-30;/h11-19,21-26H,2-10,20,27H2,1H3;1H/q+1;/p-1",
        "InChIKey": null,
        "Canonical SMILES": "[Br-].C=1C=CC(=CC1)[P+](C=2C=CC=CC2)(C=3C=CC=CC3)CCCCCCCCCCCC",
        "Molecular Formula": "C<sub>30</sub>H<sub>40</sub>P.Br",
        "Molecular Mass": "",
        "Melting Point": "93.0-93.5 °C"
    }
}