{
    "cas_no": "2212-75-1",
    "key_name": "<em>N</em>-α-Benzyloxycarbonyl-<span class=\"text-smallcaps\">L</span>-lysine",
    "cn_name": "N-alpha-Cbz-L-赖氨酸;N(a)-苄氧羰基-L-赖氨酸;",
    "alternate_name": "<span class=\"text-smallcaps\">L</span>-Lysine, <em>N</em><sup>2</sup>-[(phenylmethoxy)carbonyl]-;Lysine, <em>N</em><sup>2</sup>-carboxy-, <em>N</em><sup>2</sup>-benzyl ester, <span class=\"text-smallcaps\">L</span>-;Lysine, <em>N</em><sup>2</sup>-carboxy-, <em>N</em>-benzyl ester;<span class=\"text-smallcaps\">L</span>-Lysine, <em>N</em><sup>2</sup>-carboxy-, <em>N</em>-benzyl ester;<em>N</em><sup>2</sup>-[(Phenylmethoxy)carbonyl]-<span class=\"text-smallcaps\">L</span>-lysine;<em>N</em>-α-Benzyloxycarbonyl-<span class=\"text-smallcaps\">L</span>-lysine;α-Carbobenzoxy-<span class=\"text-smallcaps\">L</span>-lysine;<em>N</em><sup>α</sup>-(Benzyloxycarbonyl)lysine;α-<em>N</em>-Benzyloxycarbonyl-<span class=\"text-smallcaps\">L</span>-lysine;<em>N</em><sup>2</sup>-Carboxylysine <em>N</em><sup>2</sup>-benzyl ester;<em>N</em>-α-Carbobenzoxy-<span class=\"text-smallcaps\">L</span>-lysine;<em>N</em><sup>2</sup>-Benzyloxycarbonyllysine;<em>N</em><sup>2</sup>-Benzyloxycarbonyl-<span class=\"text-smallcaps\">L</span>-lysine;<em>N</em>-α-Z-<span class=\"text-smallcaps\">L</span>-Lysine;Nα-Cbz-Lysine;Cbz-<span class=\"text-smallcaps\">L</span>-Lys-OH;(2S)-6-Azaniumyl-2-(phenylmethoxycarbonylamino)hexanoate;<em>N</em>-α-Benzyloxycarbonyl-<span class=\"text-smallcaps\">L</span>-lysine-<em>p</em>-nitroanilide",
    "duplicated_cas_no": "22834-50-0",
    "SMILES": "[C@H](NC(OCC1=CC=CC=C1)=O)(CCCCN)C(O)=O",
    "meta_data": {
        "InChI": "InChI=1S/C14H20N2O4/c15-9-5-4-8-12(13(17)18)16-14(19)20-10-11-6-2-1-3-7-11/h1-3,6-7,12H,4-5,8-10,15H2,(H,16,19)(H,17,18)/t12-/m0/s1",
        "InChIKey": null,
        "Canonical SMILES": "O=C(OCC=1C=CC=CC1)NC(C(=O)O)CCCCN",
        "Molecular Formula": "C<sub>14</sub>H<sub>20</sub>N<sub>2</sub>O<sub>4</sub>",
        "Molecular Mass": "280.32",
        "Melting Point": "248-250 °C"
    }
}