{
    "cas_no": "7782-79-8",
    "key_name": "Hydrazoic acid",
    "cn_name": "迭氮化氢;",
    "alternate_name": "Hydrazoic acid;Hydrogen azide;Azoimide;Diazoimide;Hydronitric acid;Triazoic acid;Azidic acid",
    "duplicated_cas_no": "127229-27-0;57077-96-0;227798-96-1",
    "SMILES": "[N+](=[N-])=N",
    "meta_data": {
        "InChI": "InChI=1S/HN3/c1-3-2/h1H",
        "InChIKey": null,
        "Canonical SMILES": "[N-]=[N+]=N",
        "Molecular Formula": "HN<sub>3</sub>",
        "Molecular Mass": "",
        "Boiling Point": "37 °C",
        "Melting Point": "-80 °C"
    }
}