{
    "cas_no": "106-94-5",
    "key_name": "1-Bromopropane",
    "cn_name": "正丙基溴;溴代正丙烷;1-溴丙烷;",
    "alternate_name": "Propane, 1-bromo-;1-Bromopropane;Propyl bromide;<em>n</em>-Propyl bromide;Leksol;Ascusol MC;1-Propyl bromide;Drysolv;3-Bromopropane;Abzol JG;PS Cleaner",
    "duplicated_cas_no": "",
    "SMILES": "C(CC)Br",
    "meta_data": {
        "InChI": "InChI=1S/C3H7Br/c1-2-3-4/h2-3H2,1H3",
        "InChIKey": null,
        "Canonical SMILES": "BrCCC",
        "Molecular Formula": "C<sub>3</sub>H<sub>7</sub>Br",
        "Molecular Mass": "122.99",
        "Boiling Point": "71 °C @ Press: 760 Torr",
        "Melting Point": "-110 °C",
        "Density": "1.353 g/cm³ @ Temp: 20 °C"
    }
}