{
    "cas_no": "513-88-2",
    "key_name": "1,1-Dichloroacetone",
    "cn_name": null,
    "alternate_name": "2-Propanone, 1,1-dichloro-;1,1-Dichloro-2-propanone;α,α-Dichloroacetone;1,1-Dichloroacetone;Dichloromethyl methyl ketone;1,1-Dichloropropanone;NSC 42725",
    "duplicated_cas_no": "",
    "SMILES": "C(C(Cl)Cl)(C)=O",
    "meta_data": {
        "InChI": "InChI=1S/C3H4Cl2O/c1-2(6)3(4)5/h3H,1H3",
        "InChIKey": null,
        "Canonical SMILES": "O=C(C)C(Cl)Cl",
        "Molecular Formula": "C<sub>3</sub>H<sub>4</sub>Cl<sub>2</sub>O",
        "Molecular Mass": "126.97",
        "Boiling Point": "120 °C",
        "Density": "1.2985 g/cm³ @ Temp: 20 °C"
    }
}