{
    "cas_no": "140-92-1",
    "key_name": "Potassium isopropylxanthate",
    "cn_name": "异丙基黄原酸钾;二硫代甲酸-O-1-甲基乙酯钾盐;扑灭生钾;",
    "alternate_name": "Carbonodithioic acid, <em>O</em>-(1-methylethyl) ester, potassium salt (1:1);Carbonic acid, dithio-, <em>O</em>-isopropyl ester, potassium salt;Carbonodithioic acid, <em>O</em>-(1-methylethyl) ester, potassium salt;Isopropylxanthic acid potassium salt;Potassium isopropylxanthate;Potassium isopropyl xanthogenate;Potassium <em>O</em>-isopropyldithiocarbonate;Isopropyl potassium xanthate;Potassium isopropyl xanthanate;<em>O</em>-Isopropyl dithiocarbonate potassium salt;Potassium isopropyl dithiocarbonate",
    "duplicated_cas_no": "41256-16-0",
    "SMILES": "O(C(C)C)C(=S)S.[K]",
    "meta_data": {
        "InChI": "InChI=1S/C4H8OS2.K/c1-3(2)5-4(6)7;/h3H,1-2H3,(H,6,7);",
        "InChIKey": null,
        "Canonical SMILES": "[K].S=C(S)OC(C)C",
        "Molecular Formula": "C<sub>4</sub>H<sub>8</sub>OS<sub>2</sub>.K",
        "Molecular Mass": "",
        "Melting Point": "223-227 °C"
    }
}