{
    "cas_no": "25025-59-6",
    "key_name": "Ethanaminium, 2-(acetylthio)-<em>N</em>,<em>N</em>,<em>N</em>-trimethyl-, bromide (1:1)",
    "cn_name": "硫代溴代乙酰胆碱;溴化乙酰硫代胆碱;乙酰溴化硫代胆碱；溴化硫代乙酰胆碱;",
    "alternate_name": "Ethanaminium, 2-(acetylthio)-<em>N</em>,<em>N</em>,<em>N</em>-trimethyl-, bromide (1:1);Ammonium, (2-mercaptoethyl)trimethyl-, bromide, acetate;Ethanaminium, 2-(acetylthio)-<em>N</em>,<em>N</em>,<em>N</em>-trimethyl-, bromide;(2-Mercaptoethyl)trimethylammonium bromide, acetate;Acetic acid, thio-, <em>S</em>-ester with (2-mercaptoethyl)trimethylammonium bromide;Acetylthiocholine bromide;2-(Acetylthio)-<em>N</em>,<em>N</em>,<em>N</em>-trimethylethanaminium bromide",
    "duplicated_cas_no": "",
    "SMILES": "C(CSC(C)=O)[N+](C)(C)C.[Br-]",
    "meta_data": {
        "InChI": "InChI=1S/C7H16NOS.BrH/c1-7(9)10-6-5-8(2,3)4;/h5-6H2,1-4H3;1H/q+1;/p-1",
        "InChIKey": null,
        "Canonical SMILES": "[Br-].O=C(SCC[N+](C)(C)C)C",
        "Molecular Formula": "C<sub>7</sub>H<sub>16</sub>NOS.Br",
        "Molecular Mass": "",
        "Melting Point": "227 °C"
    }
}