{
    "cas_no": "45234-02-4",
    "key_name": "Lysylglutamic acid",
    "cn_name": null,
    "alternate_name": "<span class=\"text-smallcaps\">L</smallcap>-Glutamic acid, <smallcap>L</span>-lysyl-;<span class=\"text-smallcaps\">L</smallcap>-Glutamic acid, <em>N</em>-<smallcap>L</span>-lysyl-;Glutamic acid, <em>N</em>-<span class=\"text-smallcaps\">L</span>-lysyl-;<span class=\"text-smallcaps\">L</smallcap>-Lysyl-<smallcap>L</span>-glutamic acid;Lysylglutamic acid;Vilon;Vilon (peptide);1072: PN: EP2071334 SEQID: 1140 claimed protein;1072: PN: WO2009077864 SEQID: 1140 claimed protein;72: PN: EP2161028 PAGE: 10 claimed protein;8: PN: WO2023161197 SEQID: 10 claimed sequence;16: PN: US20230322872 SEQID: 17 claimed sequence",
    "duplicated_cas_no": "911649-46-2",
    "SMILES": "[C@H](NC([C@H](CCCCN)N)=O)(CCC(O)=O)C(O)=O",
    "meta_data": {
        "InChI": "InChI=1S/C11H21N3O5/c12-6-2-1-3-7(13)10(17)14-8(11(18)19)4-5-9(15)16/h7-8H,1-6,12-13H2,(H,14,17)(H,15,16)(H,18,19)/t7-,8-/m0/s1",
        "InChIKey": null,
        "Canonical SMILES": "O=C(O)CCC(NC(=O)C(N)CCCCN)C(=O)O",
        "Molecular Formula": "C<sub>11</sub>H<sub>21</sub>N<sub>3</sub>O<sub>5</sub>",
        "Molecular Mass": "275.30",
        "Melting Point": "195-197 °C"
    }
}