{
    "cas_no": "77-38-3",
    "key_name": "Chlorphenoxamine",
    "cn_name": "氯苯沙明;氯苯沙明;",
    "alternate_name": "Ethanamine, 2-[1-(4-chlorophenyl)-1-phenylethoxy]-<em>N</em>,<em>N</em>-dimethyl-;Ethylamine, 2-[(<em>p</em>-chloro-α-methyl-α-phenylbenzyl)oxy]-<em>N</em>,<em>N</em>-dimethyl-;2-[1-(4-Chlorophenyl)-1-phenylethoxy]-<em>N</em>,<em>N</em>-dimethylethanamine;<em>p</em>-Chloro-α-methyldiphenhydramine;2-(<em>p</em>-Chloro-α-methyl-α-phenylbenzyloxy)-<em>N</em>,<em>N</em>-dimethylethylamine;[1-(<em>p</em>-Chlorophenyl)-1-phenylethyl] (β-dimethylaminoethyl) ether;β-Dimethylaminoethyl (<em>p</em>-chloro-α-methylbenzhydryl) ether;Chlorphenoxamine",
    "duplicated_cas_no": "121944-29-4",
    "SMILES": "C(OCCN(C)C)(C)(C1=CC=C(Cl)C=C1)C2=CC=CC=C2",
    "meta_data": {
        "InChI": "InChI=1S/C18H22ClNO/c1-18(21-14-13-20(2)3,15-7-5-4-6-8-15)16-9-11-17(19)12-10-16/h4-12H,13-14H2,1-3H3",
        "InChIKey": null,
        "Canonical SMILES": "ClC1=CC=C(C=C1)C(OCCN(C)C)(C=2C=CC=CC2)C",
        "Molecular Formula": "C<sub>18</sub>H<sub>22</sub>ClNO",
        "Molecular Mass": "303.83",
        "Boiling Point": "152.5 °C"
    }
}