{
    "cas_no": "127-33-3",
    "key_name": "Demeclocycline",
    "cn_name": null,
    "alternate_name": "2-Naphthacenecarboxamide, 7-chloro-4-(dimethylamino)-1,4,4a,5,5a,6,11,12a-octahydro-3,6,10,12,12a-pentahydroxy-1,11-dioxo-, (4<em>S</em>,4a<em>S</em>,5a<em>S</em>,6<em>S</em>,12a<em>S</em>)-;2-Naphthacenecarboxamide, 7-chloro-4-(dimethylamino)-1,4,4a,5,5a,6,11,12a-octahydro-3,6,10,12,12a-pentahydroxy-1,11-dioxo-;2-Naphthacenecarboxamide, 7-chloro-4-(dimethylamino)-1,4,4a,5,5a,6,11,12a-octahydro-3,6,10,12,12a-pentahydroxy-1,11-dioxo-, [4<em>S</em>-(4α,4aα,5aα,6β,12aα)]-;(4<em>S</em>,4a<em>S</em>,5a<em>S</em>,6<em>S</em>,12a<em>S</em>)-7-Chloro-4-(dimethylamino)-1,4,4a,5,5a,6,11,12a-octahydro-3,6,10,12,12a-pentahydroxy-1,11-dioxo-2-naphthacenecarboxamide;RP 10192;7-Chloro-6-demethyltetracycline;7-Chloro-4-dimethylamino-1,4,4a,5,5a,6,11,12a-octahydro-3,6,10,12,12a-pentahydroxy-1,11-dioxo-2-naphthacenecarboxamide;Chlortetracycline, 6-demethyl-;Demethylchlorotetracycline;6-Demethylchlorotetracycline;6-Demethyl-7-chlorotetracycline;Demethylchlortetracyclin;Demethylchlortetracycline;6-Demethylchlortetracycline;6-Demethyl-7-chlortetracycline;DMCT;Ledermycin;Mexocine;Tri-demethylchlortetracycline;Demeclocycline;Bioterciclin;Perciclina;Elkamicina;Demeclor;Sumaclina;Diuciclin;Novotriclina;Demetraclin;DMCT (antibiotic);Periciclina;Declostatin;MeSH ID: D003707",
    "duplicated_cas_no": "8059-70-9;16204-02-7",
    "SMILES": "O[C@]12[C@]([C@H](N(C)C)C(O)=C(C(N)=O)C1=O)(C[C@]3(C(=C2O)C(=O)C=4C([C@H]3O)=C(Cl)C=CC4O)[H])[H]",
    "meta_data": {
        "InChI": "InChI=1S/C21H21ClN2O8/c1-24(2)14-7-5-6-10(16(27)12-9(25)4-3-8(22)11(12)15(6)26)18(29)21(7,32)19(30)13(17(14)28)20(23)31/h3-4,6-7,14-15,25-26,28-29,32H,5H2,1-2H3,(H2,23,31)/t6-,7-,14-,15-,21-/m0/s1",
        "InChIKey": null,
        "Canonical SMILES": "O=C(N)C=1C(=O)C2(O)C(O)=C3C(=O)C=4C(O)=CC=C(Cl)C4C(O)C3CC2C(C1O)N(C)C",
        "Molecular Formula": "C<sub>21</sub>H<sub>21</sub>ClN<sub>2</sub>O<sub>8</sub>",
        "Molecular Mass": "464.85",
        "Melting Point": "174-178 °C (decomp)"
    }
}