{
    "cas_no": "8049-17-0",
    "key_name": "Ferrosilicon",
    "cn_name": null,
    "alternate_name": "Ferrosilicon;Ferroalloys, ferrosilicon",
    "duplicated_cas_no": "12632-11-0",
    "SMILES": "",
    "meta_data": {
        "InChI": "",
        "InChIKey": null,
        "Canonical SMILES": "",
        "Molecular Formula": "Unspecified",
        "Molecular Mass": "",
        "Melting Point": "1360 °C",
        "Density": "4.75 g/cm³"
    }
}