{
    "uri": "substance/pt/8049170",
    "rn": "8049-17-0",
    "name": "Ferrosilicon",
    "images": [],
    "inchi": "",
    "inchiKey": "",
    "smile": "",
    "canonicalSmile": "",
    "molecularFormula": "Unspecified",
    "molecularMass": "",
    "experimentalProperties": [
        {
            "name": "Melting Point",
            "property": "1360 °C",
            "sourceNumber": 1
        },
        {
            "name": "Density",
            "property": "4.75 g/cm³",
            "sourceNumber": 1
        }
    ],
    "propertyCitations": [
        {
            "docUri": "",
            "sourceNumber": 1,
            "source": "Metal-Organics Catalog physical property data were obtained from Gelest, Inc. of Morrisville, Pennsylvania (US)"
        }
    ],
    "synonyms": [
        "Ferrosilicon",
        "Ferroalloys, ferrosilicon"
    ],
    "replacedRns": [
        "12632-11-0"
    ],
    "hasMolfile": false,
    "source": "https://commonchemistry.cas.org/detail?cas_rn=8049-17-0"
}