{
    "cas_no": "18855-52-2",
    "key_name": "Tetraethyl [(dimethylamino)methylene]diphosphonate",
    "cn_name": "二甲氨基亚甲基二磷酸四乙酯;",
    "alternate_name": "Phosphonic acid, <em>P</em>,<em>P</em>′-[(dimethylamino)methylene]bis-, <em>P</em>,<em>P</em>,<em>P</em>′,<em>P</em>′-tetraethyl ester;Phosphonic acid, [(dimethylamino)methylene]di-, tetraethyl ester;Phosphonic acid, [(dimethylamino)methylene]bis-, tetraethyl ester;Tetraethyl [(dimethylamino)methylene]diphosphonate;1,1-Bis(diethoxyphosphoryl)-<em>N</em>,<em>N</em>-dimethylmethanamine",
    "duplicated_cas_no": "",
    "SMILES": "C(P(OCC)(OCC)=O)(P(OCC)(OCC)=O)N(C)C",
    "meta_data": {
        "InChI": "InChI=1S/C11H27NO6P2/c1-7-15-19(13,16-8-2)11(12(5)6)20(14,17-9-3)18-10-4/h11H,7-10H2,1-6H3",
        "InChIKey": null,
        "Canonical SMILES": "O=P(OCC)(OCC)C(N(C)C)P(=O)(OCC)OCC",
        "Molecular Formula": "C<sub>11</sub>H<sub>27</sub>NO<sub>6</sub>P<sub>2</sub>",
        "Molecular Mass": "331.28",
        "Boiling Point": "114-115 °C @ Press: 0.03 Torr"
    }
}