{
    "cas_no": "652-39-1",
    "key_name": "3-Fluorophthalic anhydride",
    "cn_name": "3-氟酞酐;3-氟邻苯二甲酸酐;",
    "alternate_name": "1,3-Isobenzofurandione, 4-fluoro-;Phthalic anhydride, 3-fluoro-;4-Fluoro-1,3-isobenzofurandione;3-Fluorophthalic anhydride;3-Fluorophthalic acid anhydride;NSC 402996;4-Fluoroisobenzofuran-1,3-dione",
    "duplicated_cas_no": "",
    "SMILES": "FC1=C2C(C(=O)OC2=O)=CC=C1",
    "meta_data": {
        "InChI": "InChI=1S/C8H3FO3/c9-5-3-1-2-4-6(5)8(11)12-7(4)10/h1-3H",
        "InChIKey": null,
        "Canonical SMILES": "O=C1OC(=O)C=2C(F)=CC=CC12",
        "Molecular Formula": "C<sub>8</sub>H<sub>3</sub>FO<sub>3</sub>",
        "Molecular Mass": "166.11",
        "Boiling Point": "220-225 °C @ Press: 80 Torr",
        "Melting Point": "123-125 °C"
    }
}