{
    "cas_no": "17194-82-0",
    "key_name": "(4-Hydroxyphenyl)acetamide",
    "cn_name": null,
    "alternate_name": "Benzeneacetamide, 4-hydroxy-;Acetamide, 2-(<em>p</em>-hydroxyphenyl)-;4-Hydroxybenzeneacetamide;(4-Hydroxyphenyl)acetamide;2-(<em>p</em>-Hydroxyphenyl)acetamide;<em>p</em>-(Carbamoylmethyl)phenol;(<em>p</em>-Hydroxyphenyl)acetamide;2-(4-Hydroxyphenyl)acetamide;NSC 187193",
    "duplicated_cas_no": "",
    "SMILES": "C(C(N)=O)C1=CC=C(O)C=C1",
    "meta_data": {
        "InChI": "InChI=1S/C8H9NO2/c9-8(11)5-6-1-3-7(10)4-2-6/h1-4,10H,5H2,(H2,9,11)",
        "InChIKey": null,
        "Canonical SMILES": "O=C(N)CC1=CC=C(O)C=C1",
        "Molecular Formula": "C<sub>8</sub>H<sub>9</sub>NO<sub>2</sub>",
        "Molecular Mass": "151.16",
        "Melting Point": "168-172 °C"
    }
}