{
    "cas_no": "5421-46-5",
    "key_name": "Ammonium thioglycolate",
    "cn_name": "巯基乙酸铵;硫代乙醇酸铵;",
    "alternate_name": "Acetic acid, 2-mercapto-, ammonium salt (1:1);Acetic acid, mercapto-, monoammonium salt;Ammonium thioglycolate;Ammonium mercaptoacetate;Ammonium thioglycollate;Thioglycolic acid ammonium salt;Thiofaco A-50",
    "duplicated_cas_no": "8046-21-7;34316-71-7;67124-12-3;860540-22-3",
    "SMILES": "C(CS)(O)=O.N",
    "meta_data": {
        "InChI": "InChI=1S/C2H4O2S.H3N/c3-2(4)1-5;/h5H,1H2,(H,3,4);1H3",
        "InChIKey": null,
        "Canonical SMILES": "O=C(O)CS.N",
        "Molecular Formula": "C<sub>2</sub>H<sub>4</sub>O<sub>2</sub>S.H<sub>3</sub>N",
        "Molecular Mass": "",
        "Melting Point": "139-139.5 °C",
        "Density": "1.205 g/cm³ @ Temp: 20 °C"
    }
}