{
    "cas_no": "84-02-6",
    "key_name": "Prochlorperazine maleate",
    "cn_name": "丙氯拉嗪;",
    "alternate_name": "10<em>H</em>-Phenothiazine, 2-chloro-10-[3-(4-methyl-1-piperazinyl)propyl]-, (2<em>Z</em>)-2-butenedioate (1:2);Phenothiazine, 2-chloro-10-[3-(4-methyl-1-piperazinyl)propyl]-, maleate (1:2);10<em>H</em>-Phenothiazine, 2-chloro-10-[3-(4-methyl-1-piperazinyl)propyl]-, (<em>Z</em>)-2-butenedioate (1:2);Phenothiazine, 2-chloro-10-[3-(4-methyl-1-piperazinyl)propyl]-, dimaleate;2-Chloro-10-[3-(4-methyl-1-piperazinyl)propyl]phenothiazine dimaleate;Pasotomin;Stemetil dimaleate;Prochloroperazine dimaleate;Meterazin maleate;Prochlorperazine maleate;Emetiral;Prochlorperazine dimaleate;Compazine;Stemetil;Prochlorperazine hydrogen maleate;Vertigon;Buccastem;2-Chloro-10-(3-(4-methylpiperazin-1-yl)propyl)-10<em>H</em>-phenothiazine dimaleate",
    "duplicated_cas_no": "3457-05-4",
    "SMILES": "C(=C\\C(O)=O)\\C(O)=O.C(CCN1CCN(C)CC1)N2C=3C(SC=4C2=CC=CC4)=CC=C(Cl)C3",
    "meta_data": {
        "InChI": "InChI=1S/C20H24ClN3S.C4H4O4/c1-22-11-13-23(14-12-22)9-4-10-24-17-5-2-3-6-19(17)25-20-8-7-16(21)15-18(20)24;5-3(6)1-2-4(7)8/h2-3,5-8,15H,4,9-14H2,1H3;1-2H,(H,5,6)(H,7,8)/b;2-1-",
        "InChIKey": null,
        "Canonical SMILES": "O=C(O)C=CC(=O)O.ClC1=CC=C2SC=3C=CC=CC3N(C2=C1)CCCN4CCN(C)CC4",
        "Molecular Formula": "C<sub>20</sub>H<sub>24</sub>ClN<sub>3</sub>S.2C<sub>4</sub>H<sub>4</sub>O<sub>4</sub>",
        "Molecular Mass": "",
        "Melting Point": "228 °C"
    }
}