{
    "cas_no": "4419-47-0",
    "key_name": "Ethanamine, <em>N</em>-ethyl-, titanium(4+) salt (4:1)",
    "cn_name": "四(乙氨基)钛;",
    "alternate_name": "Ethanamine, <em>N</em>-ethyl-, titanium(4+) salt (4:1);Diethylamine, titanium(4+) salt;Ethanamine, <em>N</em>-ethyl-, titanium(4+) salt;Titanium, tetrakis(diethylamino)-;Titanium tetrakis(diethylamine);Tetrakis(diethylamino)titanium;Tetrakis(diethylamido)titanium;Titanium tetrakis(diethylamide);Titanium(4+) diethylamide;TDEAT;Tetrakis(diethylamido)titanium(IV);Titanium(IV) diethylamide",
    "duplicated_cas_no": "10414-17-2;41291-75-2;86796-55-6;98319-49-4;155555-64-9;256418-12-9;1196711-10-0;1431853-89-2;2042147-00-0;2247353-65-5",
    "SMILES": "N(CC)CC.[Ti]",
    "meta_data": {
        "InChI": "InChI=1S/C4H11N.Ti/c1-3-5-4-2;/h5H,3-4H2,1-2H3;",
        "InChIKey": null,
        "Canonical SMILES": "[Ti].N(CC)CC",
        "Molecular Formula": "C<sub>4</sub>H<sub>11</sub>N.<sup>1</sup>/<sub>4</sub>Ti",
        "Molecular Mass": "",
        "Boiling Point": "133 °C @ Press: 1.2 Torr",
        "Density": "0.938 g/cm³"
    }
}