{
    "cas_no": "18368-64-4",
    "key_name": "2-Chloro-5-methylpyridine",
    "cn_name": "2-氯-5-甲基吡啶;",
    "alternate_name": "Pyridine, 2-chloro-5-methyl-;3-Picoline, 6-chloro-;2-Chloro-5-methylpyridine;2-Chloro-5-picoline",
    "duplicated_cas_no": "",
    "SMILES": "CC=1C=CC(Cl)=NC1",
    "meta_data": {
        "InChI": "InChI=1S/C6H6ClN/c1-5-2-3-6(7)8-4-5/h2-4H,1H3",
        "InChIKey": null,
        "Canonical SMILES": "ClC1=NC=C(C=C1)C",
        "Molecular Formula": "C<sub>6</sub>H<sub>6</sub>ClN",
        "Molecular Mass": "127.57",
        "Boiling Point": "56 °C @ Press: 2.5 Torr"
    }
}