{
    "cas_no": "129-94-2",
    "key_name": "2-[(8-Chloro-1-naphthalenyl)thio]acetic acid",
    "cn_name": "2-(8-氯-1-萘硫)乙酸;",
    "alternate_name": "Acetic acid, 2-[(8-chloro-1-naphthalenyl)thio]-;Acetic acid, [(8-chloro-1-naphthyl)thio]-;Acetic acid, [(8-chloro-1-naphthalenyl)thio]-;2-[(8-Chloro-1-naphthalenyl)thio]acetic acid;(8-Chloro-1-naphthylthio)acetic acid;2-(8-Chloronaphthalen-1-yl)sulfanylacetic acid;2-[(8-Chloro-1-naphthyl)thio]acetic acid;2-[(8-Chloronaphthalen-1-yl)sulfanyl]acetic acid",
    "duplicated_cas_no": "",
    "SMILES": "S(CC(O)=O)C=1C2=C(C=CC1)C=CC=C2Cl",
    "meta_data": {
        "InChI": "InChI=1S/C12H9ClO2S/c13-9-5-1-3-8-4-2-6-10(12(8)9)16-7-11(14)15/h1-6H,7H2,(H,14,15)",
        "InChIKey": null,
        "Canonical SMILES": "O=C(O)CSC1=CC=CC=2C=CC=C(Cl)C12",
        "Molecular Formula": "C<sub>12</sub>H<sub>9</sub>ClO<sub>2</sub>S",
        "Molecular Mass": "252.72",
        "Melting Point": "159-160 °C"
    }
}