{
    "cas_no": "915-35-5",
    "key_name": "Hecogenin acetate",
    "cn_name": "龙舌兰皂苷乙酯;(?)-龙舌兰皂苷乙酯;",
    "alternate_name": "Spirostan-12-one, 3-(acetyloxy)-, (3β,5α,25<em>R</em>)-;5α-Spirostan-12-one, 3β-hydroxy-, acetate, (25<em>R</em>)-;5α,25<span class=\"text-smallcaps\">D</span>-Spirostan-12-one, 3β-hydroxy-, acetate;Spiro[8<em>H</em>-naphth[2′,1′:4,5]indeno[2,1-<em>b</em>]furan-8,2′-[2<em>H</em>]pyran], spirostan-12-one deriv.;(3β,5α,25<em>R</em>)-3-(Acetyloxy)spirostan-12-one;Hecogenin acetate;3β-Acetoxy-5α-spirostan-12-one;NSC 15489",
    "duplicated_cas_no": "11034-95-0;27040-14-8;72341-18-5",
    "SMILES": "C[C@@]12[C@@]3([C@@](O[C@@]4([C@H]3C)CC[C@@H](C)CO4)(C[C@]1([C@]5([C@](CC2=O)([C@]6(C)[C@@](CC5)(C[C@@H](OC(C)=O)CC6)[H])[H])[H])[H])[H])[H]",
    "meta_data": {
        "InChI": "InChI=1S/C29H44O5/c1-16-8-11-29(32-15-16)17(2)26-24(34-29)13-23-21-7-6-19-12-20(33-18(3)30)9-10-27(19,4)22(21)14-25(31)28(23,26)5/h16-17,19-24,26H,6-15H2,1-5H3/t16-,17+,19+,20+,21-,22+,23+,24+,26+,27+,28-,29-/m1/s1",
        "InChIKey": null,
        "Canonical SMILES": "O=C(OC1CCC2(C)C(CCC3C2CC(=O)C4(C)C3CC5OC6(OCC(C)CC6)C(C)C54)C1)C",
        "Molecular Formula": "C<sub>29</sub>H<sub>44</sub>O<sub>5</sub>",
        "Molecular Mass": "472.66",
        "Melting Point": "246-248 °C"
    }
}