{
    "cas_no": "7188-38-7",
    "key_name": "<em>tert</em>-Butyl isocyanide",
    "cn_name": "叔丁基异氰酸酯;",
    "alternate_name": "Propane, 2-isocyano-2-methyl-;<em>tert</em>-Butyl isocyanide;2-Isocyano-2-methylpropane;<em>tert</em>-Butylisonitrile;1,1-Dimethylethyl isocyanide;<em>t</em>-Butylisocyanide;<em>t</em>-Butylisonitrile;1-<em>tert</em>-Butylisonitrile",
    "duplicated_cas_no": "17053-83-7;119072-55-8;943929-77-9;1627209-96-4;2408960-27-8",
    "SMILES": "C([N+]#[C-])(C)(C)C",
    "meta_data": {
        "InChI": "InChI=1S/C5H9N/c1-5(2,3)6-4/h1-3H3",
        "InChIKey": null,
        "Canonical SMILES": "[C-]#[N+]C(C)(C)C",
        "Molecular Formula": "C<sub>5</sub>H<sub>9</sub>N",
        "Molecular Mass": "",
        "Melting Point": "148-150 °C"
    }
}