{
    "cas_no": "115-25-3",
    "key_name": "Octafluorocyclobutane",
    "cn_name": "八氟环丁烷;",
    "alternate_name": "Cyclobutane, 1,1,2,2,3,3,4,4-octafluoro-;Cyclobutane, octafluoro-;1,1,2,2,3,3,4,4-Octafluorocyclobutane;Perfluorocyclobutane;Freon C 318;FC-C 318;Propellant C 318;Octafluorocyclobutane;R-C 318;FC 318;FKWC 318;R 318;Flon C 318;Fron C 318;C 318;HFC-C 318;Carbon fluoride (C<sub>4</sub>F<sub>8</sub>);R 318C;PFC-C 318",
    "duplicated_cas_no": "178459-70-6;266002-75-9",
    "SMILES": "FC1(F)C(F)(F)C(F)(F)C1(F)F",
    "meta_data": {
        "InChI": "InChI=1S/C4F8/c5-1(6)2(7,8)4(11,12)3(1,9)10",
        "InChIKey": null,
        "Canonical SMILES": "FC1(F)C(F)(F)C(F)(F)C1(F)F",
        "Molecular Formula": "C<sub>4</sub>F<sub>8</sub>",
        "Molecular Mass": "200.03",
        "Boiling Point": "-5.9 °C",
        "Melting Point": "-40.1 °C"
    }
}