{
    "cas_no": "65-71-4",
    "key_name": "Thymine",
    "cn_name": "5-甲基脲嘧啶;2,4-二羟基-5-甲基嘧啶;",
    "alternate_name": "2,4(1<em>H</em>,3<em>H</em>)-Pyrimidinedione, 5-methyl-;Thymine;5-Methyl-2,4(1<em>H</em>,3<em>H</em>)-pyrimidinedione;2,4-Dihydroxy-5-methylpyrimidine;5-Methyluracil;5-Methyl-2,4-dihydroxypyrimidine;5-Methylpyrimidine-2,4-dione;5-Methyl-1,2,3,4-tetrahydropyrimidine-2,4-dione;NSC 14705;NSC 168663;4-Hydroxy-5-methylpyrimidin-2(1<em>H</em>)-one;2-Hydroxy-5-methyl-3,4-dihydropyrimidin-4-one;2-Hydroxy-5-methyl-1,4-dihydropyrimidin-4-one;MeSH ID: D013941",
    "duplicated_cas_no": "3059-73-2;691841-57-3",
    "SMILES": "O=C1C(C)=CNC(=O)N1",
    "meta_data": {
        "InChI": "InChI=1S/C5H6N2O2/c1-3-2-6-5(9)7-4(3)8/h2H,1H3,(H2,6,7,8,9)",
        "InChIKey": null,
        "Canonical SMILES": "O=C1NC=C(C(=O)N1)C",
        "Molecular Formula": "C<sub>5</sub>H<sub>6</sub>N<sub>2</sub>O<sub>2</sub>",
        "Molecular Mass": "126.11",
        "Melting Point": "316 °C"
    }
}