{
    "cas_no": "2156-29-8",
    "key_name": "Pyridinium, 2-[2-[4-(dimethylamino)phenyl]ethenyl]-1-methyl-, iodide (1:1)",
    "cn_name": "2-[4-(二甲氨基)苯乙烯基]-1-甲基吡啶盐碘化物;",
    "alternate_name": "Pyridinium, 2-[2-[4-(dimethylamino)phenyl]ethenyl]-1-methyl-, iodide (1:1);Pyridinium, 2-[<em>p</em>-(dimethylamino)styryl]-1-methyl-, iodide;Pyridinium, 2-[2-[4-(dimethylamino)phenyl]ethenyl]-1-methyl-, iodide;2-[<em>p</em>-(Dimethylamino)styryl]-1-methylpyridinium iodide;ω-(<em>N</em>′-Methylpyridyl-2′)-4-dimethylaminostyrene iodide;2-[4-(Dimethylamino)styryl]-1-methylpyridinium iodide;2-[<em>p</em>-(Dimethylamino)styryl]pyridine methiodide;D 308 (dye);D 308;DASPI;DASPMI;2-Di-1-ASP;<em>o</em>-DASPMI",
    "duplicated_cas_no": "",
    "SMILES": "C(=CC=1[N+](C)=CC=CC1)C2=CC=C(N(C)C)C=C2.[I-]",
    "meta_data": {
        "InChI": "InChI=1S/C16H19N2.HI/c1-17(2)15-10-7-14(8-11-15)9-12-16-6-4-5-13-18(16)3;/h4-13H,1-3H3;1H/q+1;/p-1",
        "InChIKey": null,
        "Canonical SMILES": "[I-].C=1C=C[N+](=C(C1)C=CC2=CC=C(C=C2)N(C)C)C",
        "Molecular Formula": "C<sub>16</sub>H<sub>19</sub>N<sub>2</sub>.I",
        "Molecular Mass": "",
        "Melting Point": "275 °C"
    }
}