{
    "cas_no": "701-99-5",
    "key_name": "2-Phenoxyacetyl chloride",
    "cn_name": "苯氧乙酰氯;",
    "alternate_name": "Acetyl chloride, 2-phenoxy-;Acetyl chloride, phenoxy-;2-Phenoxyacetyl chloride;Phenoxyacetyl chloride;Phenyloxyacetyl chloride;Phenoxyethanoyl chloride;Phenoxyacetic acid chloride;NSC 9808",
    "duplicated_cas_no": "343594-49-0",
    "SMILES": "O(CC(Cl)=O)C1=CC=CC=C1",
    "meta_data": {
        "InChI": "InChI=1S/C8H7ClO2/c9-8(10)6-11-7-4-2-1-3-5-7/h1-5H,6H2",
        "InChIKey": null,
        "Canonical SMILES": "O=C(Cl)COC=1C=CC=CC1",
        "Molecular Formula": "C<sub>8</sub>H<sub>7</sub>ClO<sub>2</sub>",
        "Molecular Mass": "170.59",
        "Boiling Point": "95 °C @ Press: 16 Torr",
        "Melting Point": "100-100.5 °C"
    }
}