{
    "cas_no": "6137-03-7",
    "key_name": "3-Ethyl-2-pentanone",
    "cn_name": null,
    "alternate_name": "2-Pentanone, 3-ethyl-;3-Ethyl-2-pentanone;3-Acetylpentane",
    "duplicated_cas_no": "",
    "SMILES": "C(C(C)=O)(CC)CC",
    "meta_data": {
        "InChI": "InChI=1S/C7H14O/c1-4-7(5-2)6(3)8/h7H,4-5H2,1-3H3",
        "InChIKey": null,
        "Canonical SMILES": "O=C(C)C(CC)CC",
        "Molecular Formula": "C<sub>7</sub>H<sub>14</sub>O",
        "Molecular Mass": "114.19",
        "Boiling Point": "136-137 °C @ Press: 760 Torr",
        "Density": "0.823 g/cm³ @ Temp: 15 °C"
    }
}