{
    "cas_no": "918-05-8",
    "key_name": "<em>N</em>,<em>N</em>-Dimethylmethanesulfonamide",
    "cn_name": "N,N-二甲基甲磺酰胺;N,N-二甲基甲烷硫胺;",
    "alternate_name": "Methanesulfonamide, <em>N</em>,<em>N</em>-dimethyl-;<em>N</em>,<em>N</em>-Dimethylmethanesulfonamide;NSC 66043",
    "duplicated_cas_no": "",
    "SMILES": "S(N(C)C)(C)(=O)=O",
    "meta_data": {
        "InChI": "InChI=1S/C3H9NO2S/c1-4(2)7(3,5)6/h1-3H3",
        "InChIKey": null,
        "Canonical SMILES": "O=S(=O)(N(C)C)C",
        "Molecular Formula": "C<sub>3</sub>H<sub>9</sub>NO<sub>2</sub>S",
        "Molecular Mass": "123.17",
        "Boiling Point": "103 °C @ Press: 8 Torr",
        "Melting Point": "50-51 °C"
    }
}