{
    "cas_no": "71672-75-8",
    "key_name": "2-Ethoxybenzenemethanol",
    "cn_name": null,
    "alternate_name": "Benzenemethanol, 2-ethoxy-;Benzyl alcohol, <em>o</em>-ethoxy-;2-Ethoxybenzenemethanol;<em>o</em>-Ethoxybenzyl alcohol;2-Ethoxybenzyl alcohol;(2-Ethoxyphenyl)methanol",
    "duplicated_cas_no": "",
    "SMILES": "O(CC)C1=C(CO)C=CC=C1",
    "meta_data": {
        "InChI": "InChI=1S/C9H12O2/c1-2-11-9-6-4-3-5-8(9)7-10/h3-6,10H,2,7H2,1H3",
        "InChIKey": null,
        "Canonical SMILES": "OCC=1C=CC=CC1OCC",
        "Molecular Formula": "C<sub>9</sub>H<sub>12</sub>O<sub>2</sub>",
        "Molecular Mass": "152.19",
        "Melting Point": "31-32 °C"
    }
}