{
    "cas_no": "4543-95-7",
    "key_name": "4-(Butylamino)-1-butanol",
    "cn_name": "4-正丁胺基-1-丁醇;",
    "alternate_name": "1-Butanol, 4-(butylamino)-;4-(Butylamino)-1-butanol;4-(Butylamino)butan-1-ol;Butyl(4-hydroxybutyl)amine;<em>N</em>-Butyl-<em>N</em>-(4-hydroxybutyl)amine;4-(Butylamino)butanol",
    "duplicated_cas_no": "",
    "SMILES": "C(NCCCC)CCCO",
    "meta_data": {
        "InChI": "InChI=1S/C8H19NO/c1-2-3-6-9-7-4-5-8-10/h9-10H,2-8H2,1H3",
        "InChIKey": null,
        "Canonical SMILES": "OCCCCNCCCC",
        "Molecular Formula": "C<sub>8</sub>H<sub>19</sub>NO",
        "Molecular Mass": "145.24",
        "Boiling Point": "80-80.5 °C @ Press: 0.2 Torr",
        "Density": "0.89 g/cm³"
    }
}