{
    "cas_no": "24155-42-8",
    "key_name": "(±)-α-(2,4-Dichlorophenyl)-1<em>H</em>-imidazole-1-ethanol",
    "cn_name": "alpha-(2,4-二氯苯基)-1H-咪唑-1-乙醇;",
    "alternate_name": "1<em>H</em>-Imidazole-1-ethanol, α-(2,4-dichlorophenyl)-;Imidazole-1-ethanol, α-(2,4-dichlorophenyl)-;α-(2,4-Dichlorophenyl)-1<em>H</em>-imidazole-1-ethanol;1-(2,4-Dichlorophenyl)-2-(1-imidazolyl)ethanol;T 824;1-(2,4-Dichlorophenyl)-2-(1<em>H</em>-imidazol-1-yl)ethanol;R 14821;FI 7001;UK 11147;(±)-α-(2,4-Dichlorophenyl)-1<em>H</em>-imidazole-1-ethanol;1-(2,4-Dichlorophenyl)-2-(1<em>H</em>-imidazol-1-yl)ethan-1-ol",
    "duplicated_cas_no": "100220-51-7;64207-33-6",
    "SMILES": "C(CN1C=CN=C1)(O)C2=C(Cl)C=C(Cl)C=C2",
    "meta_data": {
        "InChI": "InChI=1S/C11H10Cl2N2O/c12-8-1-2-9(10(13)5-8)11(16)6-15-4-3-14-7-15/h1-5,7,11,16H,6H2",
        "InChIKey": null,
        "Canonical SMILES": "ClC1=CC=C(C(Cl)=C1)C(O)CN2C=NC=C2",
        "Molecular Formula": "C<sub>11</sub>H<sub>10</sub>Cl<sub>2</sub>N<sub>2</sub>O",
        "Molecular Mass": "257.12",
        "Melting Point": "134 °C"
    }
}