{
    "cas_no": "4554-16-9",
    "key_name": "2,3-Dibromopropionitrile",
    "cn_name": "2,3-二溴丙腈;",
    "alternate_name": "Propanenitrile, 2,3-dibromo-;Propionitrile, 2,3-dibromo-;2,3-Dibromopropanenitrile;2,3-Dibromopropionitrile;α,β-Dibromopropionitrile;2,3-Dibromopropanonitrile",
    "duplicated_cas_no": "159789-09-0",
    "SMILES": "C(CBr)(C#N)Br",
    "meta_data": {
        "InChI": "InChI=1S/C3H3Br2N/c4-1-3(5)2-6/h3H,1H2",
        "InChIKey": null,
        "Canonical SMILES": "N#CC(Br)CBr",
        "Molecular Formula": "C<sub>3</sub>H<sub>3</sub>Br<sub>2</sub>N",
        "Molecular Mass": "212.87",
        "Boiling Point": "106-107 °C @ Press: 22 Torr",
        "Melting Point": "131-132 °C",
        "Density": "2.174 g/cm³ @ Temp: 20 °C"
    }
}