{
    "cas_no": "1175-06-0",
    "key_name": "6-Ketocholestanol",
    "cn_name": null,
    "alternate_name": "Cholestan-6-one, 3-hydroxy-, (3β,5α)-;5α-Cholestan-6-one, 3β-hydroxy-;(3β,5α)-3-Hydroxycholestan-6-one;3β-Hydroxy-5α-cholestan-6-one;5α-Cholestan-3β-ol-6-one;6-Ketocholestanol;YS 164;6-Oxocholestanol;NSC 178278",
    "duplicated_cas_no": "114474-41-8",
    "SMILES": "C[C@@]12[C@@]3([C@]([C@]4([C@](C)(CC3)[C@@]([C@@H](CCCC(C)C)C)(CC4)[H])[H])(CC(=O)[C@]1(C[C@@H](O)CC2)[H])[H])[H]",
    "meta_data": {
        "InChI": "InChI=1S/C27H46O2/c1-17(2)7-6-8-18(3)21-9-10-22-20-16-25(29)24-15-19(28)11-13-27(24,5)23(20)12-14-26(21,22)4/h17-24,28H,6-16H2,1-5H3/t18-,19+,20+,21-,22+,23+,24-,26-,27-/m1/s1",
        "InChIKey": null,
        "Canonical SMILES": "O=C1CC2C3CCC(C(C)CCCC(C)C)C3(C)CCC2C4(C)CCC(O)CC14",
        "Molecular Formula": "C<sub>27</sub>H<sub>46</sub>O<sub>2</sub>",
        "Molecular Mass": "402.65",
        "Melting Point": "143-144 °C"
    }
}