{
    "cas_no": "128-91-6",
    "key_name": "1,5-Dihydroxy-4,8-dinitro-9,10-anthracenedione",
    "cn_name": "1,5-二羟基-4,8-二硝基蒽醌;1,5-二羟基-4,8-二硝基醌蒽;",
    "alternate_name": "9,10-Anthracenedione, 1,5-dihydroxy-4,8-dinitro-;Anthraquinone, 1,5-dihydroxy-4,8-dinitro-;1,5-Dihydroxy-4,8-dinitro-9,10-anthracenedione;Anthrarufin, 4,8-dinitro-;1,5-Dihydroxy-4,8-dinitroanthraquinone;4,8-Dinitro-1,5-dihydroxyanthraquinone;1,5-Dinitro-4,8-dihydroxyanthraquinone;4,8-Dihydroxy-1,5-dinitroanthraquinone;4,8-Dinitroanthrarufin;NSC 37584",
    "duplicated_cas_no": "",
    "SMILES": "O=C1C=2C(C(=O)C=3C1=C(O)C=CC3N(=O)=O)=C(O)C=CC2N(=O)=O",
    "meta_data": {
        "InChI": "InChI=1S/C14H6N2O8/c17-7-3-1-5(15(21)22)9-11(7)14(20)10-6(16(23)24)2-4-8(18)12(10)13(9)19/h1-4,17-18H",
        "InChIKey": null,
        "Canonical SMILES": "O=C1C=2C(O)=CC=C(C2C(=O)C=3C(O)=CC=C(C13)N(=O)=O)N(=O)=O",
        "Molecular Formula": "C<sub>14</sub>H<sub>6</sub>N<sub>2</sub>O<sub>8</sub>",
        "Molecular Mass": "330.21",
        "Melting Point": "360-362 °C"
    }
}