{
    "cas_no": "4390-92-5",
    "key_name": "4-Butanoylresorcinol",
    "cn_name": null,
    "alternate_name": "1-Butanone, 1-(2,4-dihydroxyphenyl)-;Butyrophenone, 2′,4′-dihydroxy-;1-(2,4-Dihydroxyphenyl)-1-butanone;Resobutyrophenone;4-Butanoylresorcinol;NSC 43564;4-Propionyl-1,3-benzenediol",
    "duplicated_cas_no": "",
    "SMILES": "C(CCC)(=O)C1=C(O)C=C(O)C=C1",
    "meta_data": {
        "InChI": "InChI=1S/C10H12O3/c1-2-3-9(12)8-5-4-7(11)6-10(8)13/h4-6,11,13H,2-3H2,1H3",
        "InChIKey": null,
        "Canonical SMILES": "O=C(C1=CC=C(O)C=C1O)CCC",
        "Molecular Formula": "C<sub>10</sub>H<sub>12</sub>O<sub>3</sub>",
        "Molecular Mass": "180.20",
        "Melting Point": "73 °C"
    }
}