{
    "cas_no": "22246-13-5",
    "key_name": "6-Amino-3,4-dihydroquinolin-2(1<em>H</em>)-one",
    "cn_name": null,
    "alternate_name": "2(1<em>H</em>)-Quinolinone, 6-amino-3,4-dihydro-;Carbostyril, 6-amino-3,4-dihydro-;6-Amino-3,4-dihydro-2(1<em>H</em>)-quinolinone;6-Amino-3,4-dihydrocarbostyril;6-Amino-1,3,4-trihydroquinolin-2-one;6-Amino-3,4-dihydro-1<em>H</em>-quinolin-2-one;6-Amino-3,4-dihydroquinolin-2(1<em>H</em>)-one;6-Amino-3,4-dihydroquinoline-2(1<em>H</em>)-one",
    "duplicated_cas_no": "",
    "SMILES": "NC=1C=C2C(NC(=O)CC2)=CC1",
    "meta_data": {
        "InChI": "InChI=1S/C9H10N2O/c10-7-2-3-8-6(5-7)1-4-9(12)11-8/h2-3,5H,1,4,10H2,(H,11,12)",
        "InChIKey": null,
        "Canonical SMILES": "O=C1NC2=CC=C(N)C=C2CC1",
        "Molecular Formula": "C<sub>9</sub>H<sub>10</sub>N<sub>2</sub>O",
        "Molecular Mass": "162.19",
        "Melting Point": "174-176 °C"
    }
}