{
    "cas_no": "168646-54-6",
    "key_name": "5,6-Diamino-1,10-phenanthroline",
    "cn_name": null,
    "alternate_name": "1,10-Phenanthroline-5,6-diamine;5,6-Diamino-1,10-phenanthroline",
    "duplicated_cas_no": "",
    "SMILES": "NC1=C2C(=C3C(=C1N)C=CC=N3)N=CC=C2",
    "meta_data": {
        "InChI": "InChI=1S/C12H10N4/c13-9-7-3-1-5-15-11(7)12-8(10(9)14)4-2-6-16-12/h1-6H,13-14H2",
        "InChIKey": null,
        "Canonical SMILES": "N1=CC=CC=2C1=C3N=CC=CC3=C(N)C2N",
        "Molecular Formula": "C<sub>12</sub>H<sub>10</sub>N<sub>4</sub>",
        "Molecular Mass": "210.23",
        "Melting Point": "155-156 °C"
    }
}