{
    "cas_no": "7694-45-3",
    "key_name": "Perillic acid",
    "cn_name": "紫苏酸;紫苏酸;",
    "alternate_name": "1-Cyclohexene-1-carboxylic acid, 4-(1-methylethenyl)-;1-Cyclohexene-1-carboxylic acid, 4-isopropenyl-;Perillic acid;4-(1-Methylethenyl)-1-cyclohexene-1-carboxylic acid;4-Isopropenyl-1-cyclohexene-1-carboxylic acid;(±)-Perrillic acid;4-(Prop-1-en-2-yl)cyclohex-1-ene-1-carboxylic acid",
    "duplicated_cas_no": "536-65-2;92525-58-1",
    "SMILES": "C(C)(=C)C1CCC(C(O)=O)=CC1",
    "meta_data": {
        "InChI": "InChI=1S/C10H14O2/c1-7(2)8-3-5-9(6-4-8)10(11)12/h5,8H,1,3-4,6H2,2H3,(H,11,12)",
        "InChIKey": null,
        "Canonical SMILES": "O=C(O)C1=CCC(C(=C)C)CC1",
        "Molecular Formula": "C<sub>10</sub>H<sub>14</sub>O<sub>2</sub>",
        "Molecular Mass": "166.22",
        "Boiling Point": "164-165 °C @ Press: 10 Torr",
        "Melting Point": "130-131 °C"
    }
}