{
    "cas_no": "14495-51-3",
    "key_name": "1-Bromo-4-chloro-2-methylbenzene",
    "cn_name": null,
    "alternate_name": "Benzene, 1-bromo-4-chloro-2-methyl-;Toluene, 2-bromo-5-chloro-;1-Bromo-4-chloro-2-methylbenzene;2-Bromo-5-chlorotoluene;1-Bromo-2-methyl-4-chlorobenzene",
    "duplicated_cas_no": "",
    "SMILES": "CC1=C(Br)C=CC(Cl)=C1",
    "meta_data": {
        "InChI": "InChI=1S/C7H6BrCl/c1-5-4-6(9)2-3-7(5)8/h2-4H,1H3",
        "InChIKey": null,
        "Canonical SMILES": "ClC1=CC=C(Br)C(=C1)C",
        "Molecular Formula": "C<sub>7</sub>H<sub>6</sub>BrCl",
        "Molecular Mass": "205.48",
        "Boiling Point": "120-125 °C @ Press: 15 Torr"
    }
}