{
    "cas_no": "174775-48-5",
    "key_name": "2-Benzofurancarboxylic acid, 5-amino-, ethyl ester",
    "cn_name": null,
    "alternate_name": "2-Benzofurancarboxylic acid, 5-amino-, ethyl ester;Ethyl 5-aminobenzofuran-2-carboxylate;5-Aminobenzofuran-2-carboxylic acid ethyl ester;Ethyl 5-amino-1-benzofuran-2-carboxylate",
    "duplicated_cas_no": "",
    "SMILES": "C(OCC)(=O)C1=CC=2C(O1)=CC=C(N)C2",
    "meta_data": {
        "InChI": "InChI=1S/C11H11NO3/c1-2-14-11(13)10-6-7-5-8(12)3-4-9(7)15-10/h3-6H,2,12H2,1H3",
        "InChIKey": null,
        "Canonical SMILES": "O=C(OCC)C=1OC=2C=CC(N)=CC2C1",
        "Molecular Formula": "C<sub>11</sub>H<sub>11</sub>NO<sub>3</sub>",
        "Molecular Mass": "205.21",
        "Melting Point": "59-60 °C"
    }
}