{
    "cas_no": "6629-04-5",
    "key_name": "Ethyl <em>N</em>-(2-cyanoacetyl)carbamate",
    "cn_name": "N-氰基乙酰尿烷;",
    "alternate_name": "Carbamic acid, <em>N</em>-(2-cyanoacetyl)-, ethyl ester;Carbamic acid, (cyanoacetyl)-, ethyl ester;Ethyl <em>N</em>-(2-cyanoacetyl)carbamate;<em>N</em>-Cyanoacetylurethane;Ethyl cyanoacetylcarbamate;Cyanoacetylurethan;<em>N</em>-Carbethoxy-2-cyanoacetamide;Ethyl <em>N</em>-(cyanoacetyl)carbamate;NSC 59709;Ethyl (2-cyanoacetamido)formate;Ethyl (2-cyanoacetyl)carbamate",
    "duplicated_cas_no": "",
    "SMILES": "C(NC(OCC)=O)(CC#N)=O",
    "meta_data": {
        "InChI": "InChI=1S/C6H8N2O3/c1-2-11-6(10)8-5(9)3-4-7/h2-3H2,1H3,(H,8,9,10)",
        "InChIKey": null,
        "Canonical SMILES": "N#CCC(=O)NC(=O)OCC",
        "Molecular Formula": "C<sub>6</sub>H<sub>8</sub>N<sub>2</sub>O<sub>3</sub>",
        "Molecular Mass": "156.14",
        "Melting Point": "167-168 °C"
    }
}