{
    "cas_no": "622-95-7",
    "key_name": "4-Chlorobenzyl bromide",
    "cn_name": "4-氯苄溴;对氯溴苄;",
    "alternate_name": "Benzene, 1-(bromomethyl)-4-chloro-;Toluene, α-bromo-<em>p</em>-chloro-;1-(Bromomethyl)-4-chlorobenzene;4-Chlorobenzyl bromide;<em>p</em>-Chlorobenzyl bromide;α-Bromo-<em>p</em>-chlorotoluene;1-Chloro-4-bromomethylbenzene",
    "duplicated_cas_no": "",
    "SMILES": "C(Br)C1=CC=C(Cl)C=C1",
    "meta_data": {
        "InChI": "InChI=1S/C7H6BrCl/c8-5-6-1-3-7(9)4-2-6/h1-4H,5H2",
        "InChIKey": null,
        "Canonical SMILES": "ClC1=CC=C(C=C1)CBr",
        "Molecular Formula": "C<sub>7</sub>H<sub>6</sub>BrCl",
        "Molecular Mass": "205.48",
        "Boiling Point": "86-90 °C @ Press: 3 Torr",
        "Melting Point": "50 °C"
    }
}