{
    "cas_no": "17368-12-6",
    "key_name": "2-Chloro-4-pyridinol",
    "cn_name": null,
    "alternate_name": "4-Pyridinol, 2-chloro-;2-Chloro-4-pyridinol;2-Chloro-4-hydroxypyridine",
    "duplicated_cas_no": "",
    "SMILES": "OC=1C=C(Cl)N=CC1",
    "meta_data": {
        "InChI": "InChI=1S/C5H4ClNO/c6-5-3-4(8)1-2-7-5/h1-3H,(H,7,8)",
        "InChIKey": null,
        "Canonical SMILES": "ClC1=NC=CC(O)=C1",
        "Molecular Formula": "C<sub>5</sub>H<sub>4</sub>ClNO",
        "Molecular Mass": "129.54",
        "Melting Point": "180-181 °C"
    }
}