{
    "cas_no": "6829-98-7",
    "key_name": "Imipramine <em>N</em>-oxide",
    "cn_name": null,
    "alternate_name": "5<em>H</em>-Dibenz[<em>b</em>,<em>f</em>]azepine-5-propanamine, 10,11-dihydro-<em>N</em>,<em>N</em>-dimethyl-, <em>N</em>-oxide;5<em>H</em>-Dibenz[<em>b</em>,<em>f</em>]azepine, 5-[3-(dimethylamino)propyl]-10,11-dihydro-, <em>N</em>-oxide;Imipramine <em>N</em>-oxide;5-[3-(Dimethylamino)propyl]-10,11-dihydro-5<em>H</em>-dibenz[<em>b</em>,<em>f</em>]azepine 5-oxide;Imipraminoxide",
    "duplicated_cas_no": "2207-85-4",
    "SMILES": "C(CCN(C)(C)=O)N1C=2C(CCC=3C1=CC=CC3)=CC=CC2",
    "meta_data": {
        "InChI": "InChI=1S/C19H24N2O/c1-21(2,22)15-7-14-20-18-10-5-3-8-16(18)12-13-17-9-4-6-11-19(17)20/h3-6,8-11H,7,12-15H2,1-2H3",
        "InChIKey": null,
        "Canonical SMILES": "O=N(C)(C)CCCN1C=2C=CC=CC2CCC=3C=CC=CC31",
        "Molecular Formula": "C<sub>19</sub>H<sub>24</sub>N<sub>2</sub>O",
        "Molecular Mass": "296.41",
        "Melting Point": "121 °C (decomp)"
    }
}