{
    "cas_no": "5441-14-5",
    "key_name": "Hydrazinecarboxamide, <em>N</em>-phenyl-, hydrochloride (1:1)",
    "cn_name": "4-苯基氨基脲盐酸盐;",
    "alternate_name": "Hydrazinecarboxamide, <em>N</em>-phenyl-, hydrochloride (1:1);Semicarbazide, 4-phenyl-, hydrochloride;Hydrazinecarboxamide, <em>N</em>-phenyl-, monohydrochloride;4-Phenylsemicarbazide hydrochloride;4-(Phenyl)-3-semicarbazide hydrochloride;3-Amino-1-phenylurea hydrochloride",
    "duplicated_cas_no": "",
    "SMILES": "N(C(NN)=O)C1=CC=CC=C1.Cl",
    "meta_data": {
        "InChI": "InChI=1S/C7H9N3O.ClH/c8-10-7(11)9-6-4-2-1-3-5-6;/h1-5H,8H2,(H2,9,10,11);1H",
        "InChIKey": null,
        "Canonical SMILES": "Cl.O=C(NN)NC=1C=CC=CC1",
        "Molecular Formula": "C<sub>7</sub>H<sub>9</sub>N<sub>3</sub>O.ClH",
        "Molecular Mass": "",
        "Melting Point": "150 °C"
    }
}