{
    "cas_no": "129-64-6",
    "key_name": "Carbic anhydride",
    "cn_name": "降冰片烯二酸酐;",
    "alternate_name": "4,7-Methanoisobenzofuran-1,3-dione, 3a,4,7,7a-tetrahydro-, (3a<em>R</em>,4<em>S</em>,7<em>R</em>,7a<em>S</em>)-<em>rel</em>-;5-Norbornene-2,3-dicarboxylic anhydride, <em>cis</em>-<em>endo</em>-;4,7-Methanoisobenzofuran-1,3-dione, 3a,4,7,7a-tetrahydro-, (3aα,4α,7α,7aα)-;<em>rel</em>-(3a<em>R</em>,4<em>S</em>,7<em>R</em>,7a<em>S</em>)-3a,4,7,7a-Tetrahydro-4,7-methanoisobenzofuran-1,3-dione;Bicyclo[2.2.1]-2-heptene-<em>endo</em>-5,6-dicarboxylic acid anhydride;<em>endo</em>-<em>cis</em>-Bicyclo[2.2.1]hept-5-ene-2,3-dicarboxylic anhydride;Nadic anhydride;<em>endo</em>-<em>cis</em>-3,6-<em>endo</em>-Methylene-Δ<sup>4</sup>-tetrahydrophthalic anhydride;<em>endo</em>-<em>cis</em>-Bicyclo[2.2.1]hept-5-ene-2,3-dicarboxylic acid anhydride;<em>endo</em>-3,6-Methylene-1,2,3,6-tetrahydrophthalic anhydride;<em>endo</em>-Bicyclo[2.2.1]hept-5-ene-2,3-dicarboxylic anhydride;<em>endo</em>-Bicyclo[2.2.1]hept-2-ene-5,6-dicarboxylic anhydride;<em>endo</em>-Himic acid anhydride;<em>cis</em>-3,6-<em>endo</em>-Methylene-1,2,3,6-tetrahydrophthalic anhydride;Endic anhydride;<em>endo</em>-3,6-Methylene-4-cyclohexene-1,2-dicarboxylic anhydride;<em>endo</em>,<em>cis</em>-5-Norbornene-2,3-dicarboxylic anhydride;Carbic anhydride;5-Norbornene-<em>endo</em>-2,3-dicarboxylic anhydride;Bicyclo[2.2.1]hept-5-ene-2,3-dicarboxylic acid <em>endo</em>-<em>cis</em>-anhydride;Nadic acid anhydride;<em>endo</em>-5-Norbornene-2,3-dicarboxylic anhydride;<em>cis</em>-5-Norbornene-<em>endo</em>-2,3-dicarboxylic anhydride;Kayahard CD;Bicyclo[2.2.1hept-5-ene-2-<em>endo</em>,3-<em>endo</em>-dicarboxylic anhydride;<em>endo</em>-Norbornene-2,3-dicarboxylic acid anhydride;NSC 102277;<em>cis</em>-<em>endo</em>-5-Norbornene-2,3-dicarboxylic acid anhydride;Bicyclo[2.2.1]hept-5-ene-<em>endo</em>,<em>endo</em>-2,3-dicarboxylic anhydride;<em>endo</em>-Carbic anhydride;<em>endo</em>,<em>cis</em>-5-Norbornene-2,3-dicarboxylic acid anhydride;<em>cis</em>-5-Norbornene-<em>endo</em>-2,3-dicarboxylic acid anhydride;Norbornene-5,6-<em>endo</em>-dicarboxylic anhydride;<em>cis</em>-<em>endo</em>-Bicyclo[2.2.1]hept-5-ene-2,3-dicarboxylic anhydride;<em>cis</em>-5-Norbornene-<em>endo</em>-2,3-dicarboxylic andhyride;NAH",
    "duplicated_cas_no": "15332-96-4;298712-39-7;1104560-54-4;1481699-51-7;1774341-33-1;1846566-87-7",
    "SMILES": "O=C1[C@]2([C@]([C@@]3(C[C@]2(C=C3)[H])[H])(C(=O)O1)[H])[H]",
    "meta_data": {
        "InChI": "InChI=1/C9H8O3/c10-8-6-4-1-2-5(3-4)7(6)9(11)12-8/h1-2,4-7H,3H2/t4-,5+,6-,7+",
        "InChIKey": null,
        "Canonical SMILES": "O=C1OC(=O)C2C3C=CC(C3)C12",
        "Molecular Formula": "C<sub>9</sub>H<sub>8</sub>O<sub>3</sub>",
        "Molecular Mass": "164.16",
        "Boiling Point": "110-125 °C @ Press: 1 x 10<sup>-3</sup> Torr",
        "Melting Point": "164.5 °C"
    }
}