{
    "cas_no": "121-33-5",
    "key_name": "Vanillin",
    "cn_name": "香兰素;香草醛;3-甲氧基-4-羟基苯甲醛;",
    "alternate_name": "Benzaldehyde, 4-hydroxy-3-methoxy-;Vanillin;4-Hydroxy-3-methoxybenzaldehyde;3-Methoxy-4-hydroxybenzaldehyde;Vanillic aldehyde;Vanillaldehyde;Lioxin;<em>p</em>-Hydroxy-<em>m</em>-methoxybenzaldehyde;2-Methoxy-4-formylphenol;4-Hydroxy-5-methoxybenzaldehyde;4-Formyl-2-methoxyphenol;4-Hydroxy-<em>m</em>-anisaldehyde;<em>p</em>-Vanillin;<em>m</em>-Methoxy-<em>p</em>-hydroxybenzaldehyde;H 0264;Rhovanil;NSC 15351;NSC 403658;NSC 48383;Vanillum;4-Hydroxy-3-methoxy-benzyldehyde;NPLC 0145;W 310700-1KG",
    "duplicated_cas_no": "8014-42-4;52447-63-9",
    "SMILES": "O(C)C1=CC(C=O)=CC=C1O",
    "meta_data": {
        "InChI": "InChI=1S/C8H8O3/c1-11-8-4-6(5-9)2-3-7(8)10/h2-5,10H,1H3",
        "InChIKey": null,
        "Canonical SMILES": "O=CC1=CC=C(O)C(OC)=C1",
        "Molecular Formula": "C<sub>8</sub>H<sub>8</sub>O<sub>3</sub>",
        "Molecular Mass": "152.15",
        "Boiling Point": "284-285 °C @ Press: 760 Torr",
        "Melting Point": "80-81 °C",
        "Density": "1.056 g/cm³"
    }
}