{
    "cas_no": "13517-10-7",
    "key_name": "Boron triiodide",
    "cn_name": "碘化硼;",
    "alternate_name": "Borane, triiodo-;Boron iodide (BI<sub>3</sub>);Boron iodide;Triiodoborane;Boron triiodide;Triiodoboron",
    "duplicated_cas_no": "5967-38-4;43469-51-8",
    "SMILES": "B(I)(I)I",
    "meta_data": {
        "InChI": "InChI=1S/BI3/c2-1(3)4",
        "InChIKey": null,
        "Canonical SMILES": "IB(I)I",
        "Molecular Formula": "BI<sub>3</sub>",
        "Molecular Mass": "391.52",
        "Melting Point": "49.6 °C"
    }
}