{
    "cas_no": "1214-32-0",
    "key_name": "7-Nitro-9<em>H</em>-fluoren-2-amine",
    "cn_name": null,
    "alternate_name": "9<em>H</em>-Fluoren-2-amine, 7-nitro-;Fluoren-2-amine, 7-nitro-;7-Nitro-9<em>H</em>-fluoren-2-amine;2-Amino-7-nitrofluorene;NSC 12278",
    "duplicated_cas_no": "",
    "SMILES": "N(=O)(=O)C=1C=C2C(C=3C(C2)=CC(N)=CC3)=CC1",
    "meta_data": {
        "InChI": "InChI=1S/C13H10N2O2/c14-10-1-3-12-8(6-10)5-9-7-11(15(16)17)2-4-13(9)12/h1-4,6-7H,5,14H2",
        "InChIKey": null,
        "Canonical SMILES": "O=N(=O)C1=CC=C2C=3C=CC(N)=CC3CC2=C1",
        "Molecular Formula": "C<sub>13</sub>H<sub>10</sub>N<sub>2</sub>O<sub>2</sub>",
        "Molecular Mass": "226.23",
        "Melting Point": "221 °C"
    }
}