{
    "cas_no": "103-76-4",
    "key_name": "1-Piperazineethanol",
    "cn_name": "1-(2-羟乙基)哌嗪;N-羟乙基哌嗪;",
    "alternate_name": "1-Piperazineethanol;<em>N</em>-(β-Hydroxyethyl)piperazine;1-(2-Hydroxyethyl)piperazine;<em>N</em>-(2-Hydroxyethyl)piperazine;2-Piperazinoethanol;1-(β-Hydroxyethyl)piperazine;2-(1-Piperazinyl)ethanol;(β-Hydroxyethyl)piperazine;NSC 26884;NSC 38969;NSC 60706;<em>N</em>-(2′-Hydroxyethyl)piperazine;2-(Piperazin-1-yl)ethanol;2-(Piperazin-1-yl)ethan-1-ol;PC Amine MA 130",
    "duplicated_cas_no": "",
    "SMILES": "C(CO)N1CCNCC1",
    "meta_data": {
        "InChI": "InChI=1S/C6H14N2O/c9-6-5-8-3-1-7-2-4-8/h7,9H,1-6H2",
        "InChIKey": null,
        "Canonical SMILES": "OCCN1CCNCC1",
        "Molecular Formula": "C<sub>6</sub>H<sub>14</sub>N<sub>2</sub>O",
        "Molecular Mass": "130.19",
        "Boiling Point": "246 °C",
        "Melting Point": "147-148 °C",
        "Density": "1.0541 g/cm³ @ Temp: 25 °C"
    }
}