{
    "cas_no": "2407-11-6",
    "key_name": "2-Chloro-6-nitrobenzothiazole",
    "cn_name": "2-氯-6-硝基苯并噻唑;",
    "alternate_name": "Benzothiazole, 2-chloro-6-nitro-;2-Chloro-6-nitrobenzothiazole;6-Nitro-2-chlorobenzothiazole;NSC 503418;2-Chloro-6-nitro-1,3-benzothiazole;2-Chloro-6-nitrobenzo[<em>d</em>]thiazole",
    "duplicated_cas_no": "",
    "SMILES": "N(=O)(=O)C=1C=C2C(=CC1)N=C(Cl)S2",
    "meta_data": {
        "InChI": "InChI=1S/C7H3ClN2O2S/c8-7-9-5-2-1-4(10(11)12)3-6(5)13-7/h1-3H",
        "InChIKey": null,
        "Canonical SMILES": "O=N(=O)C=1C=CC=2N=C(Cl)SC2C1",
        "Molecular Formula": "C<sub>7</sub>H<sub>3</sub>ClN<sub>2</sub>O<sub>2</sub>S",
        "Molecular Mass": "214.63",
        "Melting Point": "192 °C"
    }
}