{
    "cas_no": "7417-18-7",
    "key_name": "2-(2-Methoxyphenyl)ethanol",
    "cn_name": "1-(2-甲氧基苯基)乙醇;",
    "alternate_name": "Benzeneethanol, 2-methoxy-;Phenethyl alcohol, <em>o</em>-methoxy-;2-Methoxybenzeneethanol;2-Methoxyphenethyl alcohol;2-(2-Methoxyphenyl)ethanol;2-(<em>o</em>-Methoxyphenyl)ethanol;2-(2-Methoxyphenyl)-1-ethanol;NSC 101847;2-(2-Methoxyphenyl)ethyl alcohol",
    "duplicated_cas_no": "",
    "SMILES": "C(CO)C1=C(OC)C=CC=C1",
    "meta_data": {
        "InChI": "InChI=1S/C9H12O2/c1-11-9-5-3-2-4-8(9)6-7-10/h2-5,10H,6-7H2,1H3",
        "InChIKey": null,
        "Canonical SMILES": "OCCC=1C=CC=CC1OC",
        "Molecular Formula": "C<sub>9</sub>H<sub>12</sub>O<sub>2</sub>",
        "Molecular Mass": "152.19",
        "Boiling Point": "130-131 °C @ Press: 11 Torr",
        "Density": "1.0939 g/cm³ @ Temp: 25 °C"
    }
}