{
    "cas_no": "34592-47-7",
    "key_name": "<span class=\"text-smallcaps\">L</span>-Thioproline",
    "cn_name": "L-硫代脯氨酸;",
    "alternate_name": "4-Thiazolidinecarboxylic acid, (4<em>R</em>)-;4-Thiazolidinecarboxylic acid, (<em>R</em>)-;4-Thiazolidinecarboxylic acid, <span class=\"text-smallcaps\">L</span>-;(4<em>R</em>)-4-Thiazolidinecarboxylic acid;<span class=\"text-smallcaps\">L</span>-4-Thiazolidinecarboxylic acid;(<em>R</em>)-(-)-Thiazolidine-4-carboxylic acid;<span class=\"text-smallcaps\">L</span>-Thioproline;(<em>R</em>)-4-Thiazolidinecarboxylic acid;(4<em>R</em>)-1,3-Thiazolidine-4-carboxylic acid;(4R)-1,3-Thiazolidine-4-carboxylic acid;(4R)-1,3-Thiazolidin-3-ium-4-carboxylate",
    "duplicated_cas_no": "2928-83-8;6070-92-4",
    "SMILES": "C(O)(=O)[C@@H]1CSCN1",
    "meta_data": {
        "InChI": "InChI=1S/C4H7NO2S/c6-4(7)3-1-8-2-5-3/h3,5H,1-2H2,(H,6,7)/t3-/m0/s1",
        "InChIKey": null,
        "Canonical SMILES": "O=C(O)C1NCSC1",
        "Molecular Formula": "C<sub>4</sub>H<sub>7</sub>NO<sub>2</sub>S",
        "Molecular Mass": "133.17",
        "Melting Point": "195 °C"
    }
}