{
    "cas_no": "97-72-3",
    "key_name": "Isobutyric anhydride",
    "cn_name": "异丁酸酐;",
    "alternate_name": "Propanoic acid, 2-methyl-, 1,1′-anhydride;Isobutyric anhydride;Propanoic acid, 2-methyl-, anhydride;Isobutyric acid anhydride;Isobutyryl anhydride;2-Methylpropanoic anhydride;Isobutanoic anhydride;2-Methylpropionic anhydride;2-Methylpropanoic acid anhydride;2-Methylpropionic acid anhydride;2-Methylpropanoyl-2-methylpropanoate",
    "duplicated_cas_no": "1366133-49-4",
    "SMILES": "C(OC(C(C)C)=O)(C(C)C)=O",
    "meta_data": {
        "InChI": "InChI=1S/C8H14O3/c1-5(2)7(9)11-8(10)6(3)4/h5-6H,1-4H3",
        "InChIKey": null,
        "Canonical SMILES": "O=C(OC(=O)C(C)C)C(C)C",
        "Molecular Formula": "C<sub>8</sub>H<sub>14</sub>O<sub>3</sub>",
        "Molecular Mass": "158.20",
        "Boiling Point": "181.5 °C @ Press: 734 Torr",
        "Melting Point": "-53.5 °C",
        "Density": "0.9535 g/cm³ @ Temp: 20 °C"
    }
}