{
    "cas_no": "63226-13-1",
    "key_name": "3,3′-Carbonylbis(7-diethylaminocoumarin)",
    "cn_name": "3,3\"-羰基双(7-二乙胺香豆素);",
    "alternate_name": "2<em>H</em>-1-Benzopyran-2-one, 3,3′-carbonylbis[7-(diethylamino)-;3,3′-Carbonylbis[7-(diethylamino)-2<em>H</em>-1-benzopyran-2-one];3,3′-Carbonylbis(7-diethylaminocoumarin);SK 1 (dye);SK 1;Kc 450;3,3-Carbonylbis(7-diethylaminocoumarin);Coumarin BC;3,3′-Bis(7-diethylaminocoumarinyl) ketone;3,3′-Carbonylbis[7-(diethylamino)-2<em>H</em>-chromen-2-one]",
    "duplicated_cas_no": "",
    "SMILES": "N(CC)(CC)C=1C=C2C(C=C(C(=O)C3=CC=4C(OC3=O)=CC(N(CC)CC)=CC4)C(=O)O2)=CC1",
    "meta_data": {
        "InChI": "InChI=1S/C27H28N2O5/c1-5-28(6-2)19-11-9-17-13-21(26(31)33-23(17)15-19)25(30)22-14-18-10-12-20(29(7-3)8-4)16-24(18)34-27(22)32/h9-16H,5-8H2,1-4H3",
        "InChIKey": null,
        "Canonical SMILES": "O=C1OC=2C=C(C=CC2C=C1C(=O)C3=CC=4C=CC(=CC4OC3=O)N(CC)CC)N(CC)CC",
        "Molecular Formula": "C<sub>27</sub>H<sub>28</sub>N<sub>2</sub>O<sub>5</sub>",
        "Molecular Mass": "460.52",
        "Melting Point": "215-216.5 °C"
    }
}