{
    "cas_no": "16732-75-5",
    "key_name": "6-Chloro-1<em>H</em>-indole-2-carboxylic acid",
    "cn_name": "6-氯吲哚-2-羧酸;",
    "alternate_name": "1<em>H</em>-Indole-2-carboxylic acid, 6-chloro-;Indole-2-carboxylic acid, 6-chloro-;6-Chloro-1<em>H</em>-indole-2-carboxylic acid;6-Chloroindole-2-carboxylic acid;2-Carboxy-6-chloroindole",
    "duplicated_cas_no": "",
    "SMILES": "C(O)(=O)C1=CC=2C(N1)=CC(Cl)=CC2",
    "meta_data": {
        "InChI": "InChI=1S/C9H6ClNO2/c10-6-2-1-5-3-8(9(12)13)11-7(5)4-6/h1-4,11H,(H,12,13)",
        "InChIKey": null,
        "Canonical SMILES": "O=C(O)C1=CC=2C=CC(Cl)=CC2N1",
        "Molecular Formula": "C<sub>9</sub>H<sub>6</sub>ClNO<sub>2</sub>",
        "Molecular Mass": "195.60",
        "Melting Point": "248-249 °C"
    }
}