{
    "cas_no": "28484-49-3",
    "key_name": "5-(4-Bromobutyl)-2,4-imidazolidinedione",
    "cn_name": null,
    "alternate_name": "2,4-Imidazolidinedione, 5-(4-bromobutyl)-;Hydantoin, 5-(4-bromobutyl)-;5-(4-Bromobutyl)-2,4-imidazolidinedione;5-(4-Bromobutyl)hydantoin",
    "duplicated_cas_no": "87052-63-9",
    "SMILES": "C(CCCBr)C1NC(=O)NC1=O",
    "meta_data": {
        "InChI": "InChI=1S/C7H11BrN2O2/c8-4-2-1-3-5-6(11)10-7(12)9-5/h5H,1-4H2,(H2,9,10,11,12)",
        "InChIKey": null,
        "Canonical SMILES": "O=C1NC(=O)C(N1)CCCCBr",
        "Molecular Formula": "C<sub>7</sub>H<sub>11</sub>BrN<sub>2</sub>O<sub>2</sub>",
        "Molecular Mass": "235.08",
        "Melting Point": "129-131 °C"
    }
}