{
    "cas_no": "10132-07-7",
    "key_name": "2,6-Dichloro-4-pyrimidinamine",
    "cn_name": "4-氨基-2,6-二氯嘧啶;",
    "alternate_name": "4-Pyrimidinamine, 2,6-dichloro-;Pyrimidine, 4-amino-2,6-dichloro-;2,6-Dichloro-4-pyrimidinamine;4-Amino-2,6-dichloropyrimidine;6-Amino-2,4-dichloropyrimidine;2,6-Dichloro-4-aminopyrimidine;2,4-Dichloro-6-aminopyrimidine;NSC 51667;2,6-Dichloropyrimidin-4-ylamine",
    "duplicated_cas_no": "",
    "SMILES": "ClC=1C=C(N)N=C(Cl)N1",
    "meta_data": {
        "InChI": "InChI=1S/C4H3Cl2N3/c5-2-1-3(7)9-4(6)8-2/h1H,(H2,7,8,9)",
        "InChIKey": null,
        "Canonical SMILES": "ClC=1N=C(Cl)C=C(N1)N",
        "Molecular Formula": "C<sub>4</sub>H<sub>3</sub>Cl<sub>2</sub>N<sub>3</sub>",
        "Molecular Mass": "163.99",
        "Melting Point": "270-272 °C"
    }
}