{
    "cas_no": "7356-41-4",
    "key_name": "2-(2,5-Dimethylphenoxy)acetic acid",
    "cn_name": "2,5-二甲基苯氧基乙酸;",
    "alternate_name": "Acetic acid, 2-(2,5-dimethylphenoxy)-;Acetic acid, (2,5-xylyloxy)-;Acetic acid, (2,5-dimethylphenoxy)-;2-(2,5-Dimethylphenoxy)acetic acid;(2,5-Dimethylphenoxy)acetic acid;NSC 48915;NSC 62096",
    "duplicated_cas_no": "",
    "SMILES": "O(CC(O)=O)C1=C(C)C=CC(C)=C1",
    "meta_data": {
        "InChI": "InChI=1S/C10H12O3/c1-7-3-4-8(2)9(5-7)13-6-10(11)12/h3-5H,6H2,1-2H3,(H,11,12)",
        "InChIKey": null,
        "Canonical SMILES": "O=C(O)COC1=CC(=CC=C1C)C",
        "Molecular Formula": "C<sub>10</sub>H<sub>12</sub>O<sub>3</sub>",
        "Molecular Mass": "180.20",
        "Melting Point": "195-197 °C"
    }
}