{
    "cas_no": "5290-62-0",
    "key_name": "4-[2-(4-Nitrophenyl)diazenyl]-1-naphthalenol",
    "cn_name": "镁试剂Ⅱ;对硝基苯偶氮-1-萘酚;4-(4-硝基苯偶氮)-1-萘酚;",
    "alternate_name": "1-Naphthalenol, 4-[2-(4-nitrophenyl)diazenyl]-;1-Naphthol, 4-[(<em>p</em>-nitrophenyl)azo]-;1-Naphthalenol, 4-[(4-nitrophenyl)azo]-;4-[2-(4-Nitrophenyl)diazenyl]-1-naphthalenol;Magneson II;4-[(<em>p</em>-Nitrophenyl)azo]-1-naphthol;4-[(4-Nitrophenyl)azo]-1-naphthol;<em>p</em>-(4-Hydroxy-1-naphthylazo)nitrobenzene;1-(4-Nitrophenylazo)-4-naphthol;NSC 5048",
    "duplicated_cas_no": "59519-85-6",
    "SMILES": "N(=NC1=CC=C(N(=O)=O)C=C1)C=2C3=C(C(O)=CC2)C=CC=C3",
    "meta_data": {
        "InChI": "InChI=1S/C16H11N3O3/c20-16-10-9-15(13-3-1-2-4-14(13)16)18-17-11-5-7-12(8-6-11)19(21)22/h1-10,20H",
        "InChIKey": null,
        "Canonical SMILES": "O=N(=O)C1=CC=C(N=NC2=CC=C(O)C=3C=CC=CC23)C=C1",
        "Molecular Formula": "C<sub>16</sub>H<sub>11</sub>N<sub>3</sub>O<sub>3</sub>",
        "Molecular Mass": "293.28",
        "Melting Point": "275-278 °C"
    }
}