{
    "cas_no": "1690-75-1",
    "key_name": "4-Piperidinecarboxylic acid, 1-methyl-, methyl ester",
    "cn_name": "1-甲基-4-哌啶甲酸甲酯;",
    "alternate_name": "4-Piperidinecarboxylic acid, 1-methyl-, methyl ester;Isonipecotic acid, 1-methyl-, methyl ester;Methyl <em>N</em>-methylisonipecotinate;Methyl 1-methylpiperidine-4-carboxylate",
    "duplicated_cas_no": "",
    "SMILES": "C(OC)(=O)C1CCN(C)CC1",
    "meta_data": {
        "InChI": "InChI=1S/C8H15NO2/c1-9-5-3-7(4-6-9)8(10)11-2/h7H,3-6H2,1-2H3",
        "InChIKey": null,
        "Canonical SMILES": "O=C(OC)C1CCN(C)CC1",
        "Molecular Formula": "C<sub>8</sub>H<sub>15</sub>NO<sub>2</sub>",
        "Molecular Mass": "157.21",
        "Boiling Point": "78-80 °C @ Press: 8 Torr"
    }
}