{
    "cas_no": "50890-96-5",
    "key_name": "(α<em>R</em>)-α-[(Methoxycarbonyl)amino]benzeneacetic acid",
    "cn_name": null,
    "alternate_name": "Benzeneacetic acid, α-[(methoxycarbonyl)amino]-, (α<em>R</em>)-;Benzeneacetic acid, α-[(methoxycarbonyl)amino]-, (<em>R</em>)-;(α<em>R</em>)-α-[(Methoxycarbonyl)amino]benzeneacetic acid;<em>N</em>-Methoxycarbonyl-<span class=\"text-smallcaps\">D</span>-phenylglycine;(<em>R</em>)-2-(Methoxycarbonylamino)-2-phenylacetic acid;(R)-2-((Methoxycarbonyl)amino)-2-phenylacetic acid;(<em>R</em>)-2-(Methoxycarbonylamino)-2-phenylethanoic acid;(2R)-2-(Methoxycarbonylamino)-2-phenylacetic acid",
    "duplicated_cas_no": "",
    "SMILES": "[C@H](NC(OC)=O)(C(O)=O)C1=CC=CC=C1",
    "meta_data": {
        "InChI": "InChI=1S/C10H11NO4/c1-15-10(14)11-8(9(12)13)7-5-3-2-4-6-7/h2-6,8H,1H3,(H,11,14)(H,12,13)/t8-/m1/s1",
        "InChIKey": null,
        "Canonical SMILES": "O=C(OC)NC(C(=O)O)C=1C=CC=CC1",
        "Molecular Formula": "C<sub>10</sub>H<sub>11</sub>NO<sub>4</sub>",
        "Molecular Mass": "209.20",
        "Melting Point": "190.1-192.3 °C"
    }
}