{
    "cas_no": "7699-43-6",
    "key_name": "Zirconium oxychloride",
    "cn_name": "氧氯化锆;",
    "alternate_name": "Zirconium, dichlorooxo-;Dichlorooxozirconium;Basic zirconium chloride;Zirconium chloride oxide (ZrOCl<sub>2</sub>);Zirconium oxychloride (ZrOCl<sub>2</sub>);Zirconyl chloride (ZrOCl<sub>2</sub>);Zirconium oxydichloride;Zirconium oxide chloride (ZrOCl<sub>2</sub>);Zirconium chloride, basic;Zirconyl chloride;Zirconium oxychloride;Zirconium dichloride monoxide;Zirconium dichloride oxide;Zirconium(IV) oxychloride;Zirconyl dichloride;Zircosol ZC;Zirconium dichloride oxide (ZrCl<sub>2</sub>O);Zirconium oxide dichloride;Oxozirconium(IV) chloride;NSC 115914;ZC;Zircosol ZC 20;Zirconium chloride oxide (ZrCl<sub>2</sub>O);Orgatix ZC 126",
    "duplicated_cas_no": "12371-05-0;15169-54-7;22547-97-3;23395-03-1;31411-63-9;1033044-62-0;1133021-29-0;2112767-86-7;2770919-33-8",
    "SMILES": "[Zr](Cl)(Cl)=O",
    "meta_data": {
        "InChI": "InChI=1S/2ClH.O.Zr/h2*1H;;/q;;;+2/p-2",
        "InChIKey": null,
        "Canonical SMILES": "O=[Zr](Cl)Cl",
        "Molecular Formula": "Cl<sub>2</sub>OZr",
        "Molecular Mass": "",
        "Melting Point": "260 °C"
    }
}