{
    "cas_no": "104872-06-2",
    "key_name": "(3<em>S</em>,4<em>S</em>)-3-Hexyl-4-[(2<em>R</em>)-2-hydroxytridecyl]-2-oxetanone",
    "cn_name": "(3S,4S)-3-己基-4-[(2R)-2-羟基十三烷基]-2-氧杂环丁酮;",
    "alternate_name": "2-Oxetanone, 3-hexyl-4-[(2<em>R</em>)-2-hydroxytridecyl]-, (3<em>S</em>,4<em>S</em>)-;2-Oxetanone, 3-hexyl-4-(2-hydroxytridecyl)-, [3<em>S</em>-[3α,4β(<em>S</em>*)]]-;(3<em>S</em>,4<em>S</em>)-3-Hexyl-4-[(2<em>R</em>)-2-hydroxytridecyl]-2-oxetanone",
    "duplicated_cas_no": "",
    "SMILES": "C([C@@H](CCCCCCCCCCC)O)[C@H]1[C@H](CCCCCC)C(=O)O1",
    "meta_data": {
        "InChI": "InChI=1S/C22H42O3/c1-3-5-7-9-10-11-12-13-14-16-19(23)18-21-20(22(24)25-21)17-15-8-6-4-2/h19-21,23H,3-18H2,1-2H3/t19-,20+,21+/m1/s1",
        "InChIKey": null,
        "Canonical SMILES": "O=C1OC(CC(O)CCCCCCCCCCC)C1CCCCCC",
        "Molecular Formula": "C<sub>22</sub>H<sub>42</sub>O<sub>3</sub>",
        "Molecular Mass": "354.57",
        "Melting Point": "61-62 °C"
    }
}