{
    "cas_no": "66104-22-1",
    "key_name": "Pergolide",
    "cn_name": "培高利特;普果立得;",
    "alternate_name": "Ergoline, 8-[(methylthio)methyl]-6-propyl-, (8β)-;Indolo[4,3-<em>fg</em>]quinoline, ergoline deriv.;(8β)-8-[(Methylthio)methyl]-6-propylergoline;Pergolide;LY 141B;<span class=\"text-smallcaps\">D</span>-8β-[(Methylthio)methyl]-6-propylergoline",
    "duplicated_cas_no": "",
    "SMILES": "C(CC)N1[C@]2([C@@](C=3C=4C(C2)=CNC4C=CC3)(C[C@@H](CSC)C1)[H])[H]",
    "meta_data": {
        "InChI": "InChI=1S/C19H26N2S/c1-3-7-21-11-13(12-22-2)8-16-15-5-4-6-17-19(15)14(10-20-17)9-18(16)21/h4-6,10,13,16,18,20H,3,7-9,11-12H2,1-2H3/t13-,16-,18-/m1/s1",
        "InChIKey": null,
        "Canonical SMILES": "S(C)CC1CN(CCC)C2CC3=CNC4=CC=CC(=C43)C2C1",
        "Molecular Formula": "C<sub>19</sub>H<sub>26</sub>N<sub>2</sub>S",
        "Molecular Mass": "314.49",
        "Melting Point": "207.5 °C"
    }
}