{
    "cas_no": "1067-57-8",
    "key_name": "Butyltrimethoxysilane",
    "cn_name": "丁基三甲氧基硅烷;丁基三甲氧基硅烷;",
    "alternate_name": "Silane, butyltrimethoxy-;Butyltrimethoxysilane;<em>n</em>-Butyltrimethoxysilane;AY 43-204;Dynasylan P 01080;AY 43-204M;SIB 1988",
    "duplicated_cas_no": "",
    "SMILES": "[Si](CCCC)(OC)(OC)OC",
    "meta_data": {
        "InChI": "InChI=1S/C7H18O3Si/c1-5-6-7-11(8-2,9-3)10-4/h5-7H2,1-4H3",
        "InChIKey": null,
        "Canonical SMILES": "O(C)[Si](OC)(OC)CCCC",
        "Molecular Formula": "C<sub>7</sub>H<sub>18</sub>O<sub>3</sub>Si",
        "Molecular Mass": "178.30",
        "Boiling Point": "164-165 °C",
        "Density": "0.931 g/cm³"
    }
}