{
    "cas_no": "7443-25-6",
    "key_name": "1,3-Dimethyl 2-[(4-methoxyphenyl)methylene]propanedioate",
    "cn_name": "4-甲氧基苯亚甲基丙二酸二甲酯;4-甲氧基苯亚甲基丙二酸二甲酯;",
    "alternate_name": "Propanedioic acid, 2-[(4-methoxyphenyl)methylene]-, 1,3-dimethyl ester;Malonic acid, (<em>p</em>-methoxybenzylidene)-, dimethyl ester;Propanedioic acid, [(4-methoxyphenyl)methylene]-, dimethyl ester;1,3-Dimethyl 2-[(4-methoxyphenyl)methylene]propanedioate;Cyasorb UV 1988;Dimethyl (<em>p</em>-methoxybenzylidene)malonate;<em>p</em>-Methoxybenzylidenemalonic acid dimethyl ester;Dimethyl 4-methoxybenzylidenemalonate;Sanduvor PR 25;NSC 306435;[(4-Methoxyphenyl)methylene]malonic acid dimethyl ester;Hostavin PR 25;PR 25;Hostavin BRE 25;Dimethyl 2-(<em>p</em>-methoxybenzylidene)malonate;Chisorb 2025;Dimethyl 2-(4-methoxybenzylidene)malonate",
    "duplicated_cas_no": "",
    "SMILES": "C(=CC1=CC=C(OC)C=C1)(C(OC)=O)C(OC)=O",
    "meta_data": {
        "InChI": "InChI=1S/C13H14O5/c1-16-10-6-4-9(5-7-10)8-11(12(14)17-2)13(15)18-3/h4-8H,1-3H3",
        "InChIKey": null,
        "Canonical SMILES": "O=C(OC)C(=CC1=CC=C(OC)C=C1)C(=O)OC",
        "Molecular Formula": "C<sub>13</sub>H<sub>14</sub>O<sub>5</sub>",
        "Molecular Mass": "250.25",
        "Boiling Point": "144-145 °C @ Press: 0.17 Torr",
        "Melting Point": "45 °C"
    }
}