{
    "cas_no": "14216-03-6",
    "key_name": "Hederacoside C",
    "cn_name": "常春藤苷C;",
    "alternate_name": "Olean-12-en-28-oic acid, 3-[[2-<em>O</em>-(6-deoxy-α-<span class=\"text-smallcaps\">L</smallcap>-mannopyranosyl)-α-<smallcap>L</smallcap>-arabinopyranosyl]oxy]-23-hydroxy-, <em>O</em>-6-deoxy-α-<smallcap>L</smallcap>-mannopyranosyl-(1→4)-<em>O</em>-β-<smallcap>D</smallcap>-glucopyranosyl-(1→6)-β-<smallcap>D</span>-glucopyranosyl ester, (3β,4α)-;Glucopyranose, <em>O</em>-6-deoxy-α-<span class=\"text-smallcaps\">L</smallcap>-mannopyranosyl-(1→4)-<em>O</em>-β-<smallcap>D</smallcap>-glucopyranosyl-(1→6)-, 1-ester with 3β-[[2-<em>O</em>-(6-deoxy-α-<smallcap>L</smallcap>-mannopyranosyl)-α-<smallcap>L</smallcap>-arabinopyranosyl]oxy]-23-hydroxyolean-12-en-28-oic acid, β-<smallcap>D</span>-;Akebia saponin P<sub>K</sub>;Kizuta saponin K<sub>12</sub>;Hederacoside C;Kalopanaxsaponin B;Pulsatilla saponin F;Saponin K<sub>12</sub>;Hederoside H<sub>1</sub>;Koronaroside B;Tauroside St-H<sub>2</sub>;Akeboside St<sub>h</sub>;Glycoside L-H<sub>2</sub>;Tauroside H<sub>2</sub>;Saponin PK;Pericarsaponin Pk;Hederasaponin C;Hederagenin 3-<em>O</em>-α-<span class=\"text-smallcaps\">L</smallcap>-rhamnopyranosyl(1→2)-α-<smallcap>L</smallcap>-arabinopyranosyl-28-<em>O</em>-α-<smallcap>L</smallcap>-rhamnopyranosyl(1→4)-β-<smallcap>D</smallcap>-glucopyranosyl(1→6)-β-<smallcap>D</span>-glucopyranoside;23-Hydroxy-3β-[(<em>O</em>-α-<span class=\"text-smallcaps\">L</smallcap>-rhamnopyranosyl-(1→2)-α-<smallcap>L</smallcap>-arabinopyranosyl)oxy]olean-12-en-28-oic acid <em>O</em>-α-<smallcap>L</smallcap>-rhamnopyranosyl-(1→4)-<em>O</em>-β-<smallcap>D</smallcap>-glucopyranosyl-(1→6)-β-<smallcap>D</span>-glucopyranosyl ester;3-<em>O</em>-α-<span class=\"text-smallcaps\">L</smallcap>-Rhamnopyranosyl-(1→2)-α-<smallcap>L</smallcap>-arabinopyranosylhederagenin 28-<em>O</em>-α-<smallcap>L</smallcap>-rhamnopyranosyl-(1→4)-β-<smallcap>D</smallcap>-glucopyranosyl-(1→6)-β-<smallcap>D</span>-glucopyranoside;Pulchinenoside B<sub>5</sub>;Clematangoside A",
    "duplicated_cas_no": "27013-76-9;52038-14-9;52229-78-4;56292-18-3;94021-48-4;103470-80-0;104748-89-2;1002105-94-3;1407838-40-7",
    "SMILES": "C(O[C@@H]1O[C@H](CO[C@@H]2O[C@H](CO)[C@@H](O[C@H]3[C@H](O)[C@H](O)[C@@H](O)[C@H](C)O3)[C@H](O)[C@H]2O)[C@@H](O)[C@H](O)[C@H]1O)(=O)[C@]45[C@](C=6[C@@](C)(CC4)[C@@]7(C)[C@](CC6)([C@]8(C)[C@@](CC7)([C@@](CO)(C)[C@@H](O[C@H]9[C@H](O[C@H]%10[C@H](O)[C@H](O)[C@@H](O)[C@H](C)O%10)[C@@H](O)[C@@H](O)CO9)CC8)[H])[H])(CC(C)(C)CC5)[H]",
    "meta_data": {
        "InChI": "InChI=1S/C59H96O26/c1-24-34(63)38(67)42(71)49(78-24)83-46-29(20-60)80-48(45(74)41(46)70)77-22-30-37(66)40(69)44(73)51(81-30)85-53(75)59-17-15-54(3,4)19-27(59)26-9-10-32-55(5)13-12-33(56(6,23-61)31(55)11-14-58(32,8)57(26,7)16-18-59)82-52-47(36(65)28(62)21-76-52)84-50-43(72)39(68)35(64)25(2)79-50/h9,24-25,27-52,60-74H,10-23H2,1-8H3/t24-,25-,27-,28-,29+,30+,31+,32+,33-,34-,35-,36-,37+,38+,39+,40-,41+,42+,43+,44+,45+,46+,47+,48+,49-,50-,51-,52-,55-,56-,57+,58+,59-/m0/s1",
        "InChIKey": null,
        "Canonical SMILES": "O=C(OC1OC(COC2OC(CO)C(OC3OC(C)C(O)C(O)C3O)C(O)C2O)C(O)C(O)C1O)C45CCC(C)(C)CC5C6=CCC7C8(C)CCC(OC9OCC(O)C(O)C9OC%10OC(C)C(O)C(O)C%10O)C(C)(CO)C8CCC7(C)C6(C)CC4",
        "Molecular Formula": "C<sub>59</sub>H<sub>96</sub>O<sub>26</sub>",
        "Molecular Mass": "1221.38",
        "Melting Point": "225-228 °C"
    }
}