{
    "cas_no": "610-41-3",
    "key_name": "3,4-Dinitroaniline",
    "cn_name": "3,4-二硝基苯胺;",
    "alternate_name": "Benzenamine, 3,4-dinitro-;Aniline, 3,4-dinitro-;3,4-Dinitrobenzenamine;3,4-Dinitroaniline",
    "duplicated_cas_no": "",
    "SMILES": "N(=O)(=O)C1=C(N(=O)=O)C=C(N)C=C1",
    "meta_data": {
        "InChI": "InChI=1S/C6H5N3O4/c7-4-1-2-5(8(10)11)6(3-4)9(12)13/h1-3H,7H2",
        "InChIKey": null,
        "Canonical SMILES": "O=N(=O)C1=CC=C(N)C=C1N(=O)=O",
        "Molecular Formula": "C<sub>6</sub>H<sub>5</sub>N<sub>3</sub>O<sub>4</sub>",
        "Molecular Mass": "183.12",
        "Melting Point": "153-154 °C"
    }
}