{
    "cas_no": "24424-99-5",
    "key_name": "Di-<em>tert</em>-butyl dicarbonate",
    "cn_name": "二碳酸二叔丁酯;",
    "alternate_name": "Dicarbonic acid, 1,3-bis(1,1-dimethylethyl) ester;Formic acid, oxydi-, di-<em>tert</em>-butyl ester;Dicarbonic acid, bis(1,1-dimethylethyl) ester;Pyrocarbonic acid di-<em>tert</em>-butyl ester;Di-<em>tert</em>-butyl pyrocarbonate;Di-<em>tert</em>-butyl dicarbonate;Bis(1,1-dimethylethyl) dicarbonate;Di-<em>tert</em>-butyl oxydiformate;BOC-anhydride;(Boc)<sub>2</sub>O;<em>tert</em>-Butyl dicarbonate;<em>tert</em>-Butoxycarbonyl anhydride;Bis(<em>tert</em>-butyl) dicarbonate;Bis(<em>tert</em>-butoxycarbonyl) ether;<em>tert</em>-Butoxycarbonyl tert-butyl carbonate;di-tert-butyl dicarbonate;<em>tert</em>-Butoxycarboxylic anhydride;Boc2O;Dineopentyl dicarbonate",
    "duplicated_cas_no": "2254521-82-7",
    "SMILES": "O(C(C)(C)C)C(OC(OC(C)(C)C)=O)=O",
    "meta_data": {
        "InChI": "InChI=1S/C10H18O5/c1-9(2,3)14-7(11)13-8(12)15-10(4,5)6/h1-6H3",
        "InChIKey": null,
        "Canonical SMILES": "O=C(OC(=O)OC(C)(C)C)OC(C)(C)C",
        "Molecular Formula": "C<sub>10</sub>H<sub>18</sub>O<sub>5</sub>",
        "Molecular Mass": "218.25",
        "Boiling Point": "64-67 °C @ Press: 1 Torr"
    }
}