{
    "cas_no": "624-75-9",
    "key_name": "Iodoacetonitrile",
    "cn_name": "碘乙腈;",
    "alternate_name": "Acetonitrile, iodo-;Iodoacetonitrile;Cyanoiodomethane;Cyanomethyl iodide;Iodomethyl cyanide;NSC 81208;1-Iodoacetonitrile;2-Iodoacetonitrile",
    "duplicated_cas_no": "",
    "SMILES": "C(C#N)I",
    "meta_data": {
        "InChI": "InChI=1S/C2H2IN/c3-1-2-4/h1H2",
        "InChIKey": null,
        "Canonical SMILES": "N#CCI",
        "Molecular Formula": "C<sub>2</sub>H<sub>2</sub>IN",
        "Molecular Mass": "166.95",
        "Boiling Point": "185 °C"
    }
}