{
    "cas_no": "120004-79-7",
    "key_name": "7-(4-Chlorobutoxy)-3,4-dihydro-2(1<em>H</em>)-quinolinone",
    "cn_name": "3,4-二氢-7-(4-氯丁氧基)-2(1H)-喹啉酮;",
    "alternate_name": "2(1<em>H</em>)-Quinolinone, 7-(4-chlorobutoxy)-3,4-dihydro-;7-(4-Chlorobutoxy)-3,4-dihydro-2(1<em>H</em>)-quinolinone;7-(4-Chlorobutoxy)-3,4-dihydrocarbostyril;7-(4-Chlorobutoxy)-3,4-dihydro-C2(1 H)-quinoline;3,4-Dihydro-7-(4-chlorobutoxy)-2(1<em>H</em>)-quinolinone",
    "duplicated_cas_no": "",
    "SMILES": "O(CCCCCl)C=1C=C2C(=CC1)CCC(=O)N2",
    "meta_data": {
        "InChI": "InChI=1S/C13H16ClNO2/c14-7-1-2-8-17-11-5-3-10-4-6-13(16)15-12(10)9-11/h3,5,9H,1-2,4,6-8H2,(H,15,16)",
        "InChIKey": null,
        "Canonical SMILES": "O=C1NC2=CC(OCCCCCl)=CC=C2CC1",
        "Molecular Formula": "C<sub>13</sub>H<sub>16</sub>ClNO<sub>2</sub>",
        "Molecular Mass": "253.72",
        "Melting Point": "100-102 °C"
    }
}