{
    "cas_no": "1575-37-7",
    "key_name": "4-Bromo-1,2-benzenediamine",
    "cn_name": "4-溴邻苯二胺;4-溴-1,2-苯二胺;",
    "alternate_name": "1,2-Benzenediamine, 4-bromo-;<em>o</em>-Phenylenediamine, 4-bromo-;4-Bromo-1,2-benzenediamine;3,4-Diaminobromobenzene;4-Bromo-1,2-phenylenediamine;<em>p</em>-Bromo-<em>o</em>-phenylenediamine;4-Bromo-<em>o</em>-phenylenediamine;4-Bromo-1,2-diaminobenzene;5-Bromo-<em>o</em>-phenylenediamine;4-Bromo-1,3-phenylenediamine;1,2-Diamino-4-bromobenzene;NSC 285110;2-Amino-4-bromoaniline;4-Bromophenyldiamine",
    "duplicated_cas_no": "",
    "SMILES": "NC1=C(N)C=CC(Br)=C1",
    "meta_data": {
        "InChI": "InChI=1S/C6H7BrN2/c7-4-1-2-5(8)6(9)3-4/h1-3H,8-9H2",
        "InChIKey": null,
        "Canonical SMILES": "BrC1=CC=C(N)C(N)=C1",
        "Molecular Formula": "C<sub>6</sub>H<sub>7</sub>BrN<sub>2</sub>",
        "Molecular Mass": "187.04",
        "Melting Point": "61-62 °C"
    }
}