{
    "cas_no": "672-57-1",
    "key_name": "4-Chloro-3-iodobenzotrifluoride",
    "cn_name": "4-氯-3-碘三氟甲苯;",
    "alternate_name": "Benzene, 1-chloro-2-iodo-4-(trifluoromethyl)-;Toluene, 4-chloro-α,α,α-trifluoro-3-iodo-;1-Chloro-2-iodo-4-(trifluoromethyl)benzene;1-Chloro-2-iodo-4-trifluoromethylbenzene;2-Chloro-1-iodo-5-trifluoromethylbenzene;NSC 89703;4-Chloro-3-iodobenzotrifluoride",
    "duplicated_cas_no": "",
    "SMILES": "C(F)(F)(F)C1=CC(I)=C(Cl)C=C1",
    "meta_data": {
        "InChI": "InChI=1S/C7H3ClF3I/c8-5-2-1-4(3-6(5)12)7(9,10)11/h1-3H",
        "InChIKey": null,
        "Canonical SMILES": "FC(F)(F)C1=CC=C(Cl)C(I)=C1",
        "Molecular Formula": "C<sub>7</sub>H<sub>3</sub>ClF<sub>3</sub>I",
        "Molecular Mass": "306.45",
        "Boiling Point": "74-75 °C @ Press: 5 Torr"
    }
}