{
    "cas_no": "2719-52-0",
    "key_name": "2-Phenylpentane",
    "cn_name": "2-苯基戊烷;",
    "alternate_name": "Benzene, (1-methylbutyl)-;(1-Methylbutyl)benzene;2-Phenylpentane;1-Phenyl-1-methylbutane;(2-Amyl)benzene;(±)-(1-Methylbutyl)benzene;(Pentan-2-yl)benzene",
    "duplicated_cas_no": "127514-76-5",
    "SMILES": "C(CCC)(C)C1=CC=CC=C1",
    "meta_data": {
        "InChI": "InChI=1S/C11H16/c1-3-7-10(2)11-8-5-4-6-9-11/h4-6,8-10H,3,7H2,1-2H3",
        "InChIKey": null,
        "Canonical SMILES": "C=1C=CC(=CC1)C(C)CCC",
        "Molecular Formula": "C<sub>11</sub>H<sub>16</sub>",
        "Molecular Mass": "148.24",
        "Boiling Point": "199 °C",
        "Density": "0.903 g/cm³ @ Temp: 13 °C"
    }
}