{
    "cas_no": "78-81-9",
    "key_name": "Isobutylamine",
    "cn_name": "异丁胺;2-甲基丙胺;",
    "alternate_name": "1-Propanamine, 2-methyl-;Isobutylamine;2-Methyl-1-propanamine;1-Amino-2-methylpropane;Monoisobutylamine;Valamine;2-Methylpropylamine;3-Methyl-2-propylamine;<em>iso</em>-Butylamine;2-Methylpropanamine;2-Methyl-1-aminopropane;NSC 8028;i-Butylamine",
    "duplicated_cas_no": "",
    "SMILES": "C(CN)(C)C",
    "meta_data": {
        "InChI": "InChI=1S/C4H11N/c1-4(2)3-5/h4H,3,5H2,1-2H3",
        "InChIKey": null,
        "Canonical SMILES": "NCC(C)C",
        "Molecular Formula": "C<sub>4</sub>H<sub>11</sub>N",
        "Molecular Mass": "73.14",
        "Boiling Point": "68-69 °C",
        "Melting Point": "-85 °C",
        "Density": "0.724 g/cm³ @ Temp: 25 °C"
    }
}