{
    "cas_no": "72707-66-5",
    "key_name": "2-(Bromomethyl)acrylic acid",
    "cn_name": "2-(溴甲基)丙烯酸;",
    "alternate_name": "2-Propenoic acid, 2-(bromomethyl)-;2-(Bromomethyl)-2-propenoic acid;2-(Bromomethyl)acrylic acid;α-(Bromomethyl)acrylic acid;α-Bromomethacrylic acid;2-(Bromomethyl)propenoic acid;Bromomethylacrylic acid",
    "duplicated_cas_no": "",
    "SMILES": "C(C(O)=O)(CBr)=C",
    "meta_data": {
        "InChI": "InChI=1S/C4H5BrO2/c1-3(2-5)4(6)7/h1-2H2,(H,6,7)",
        "InChIKey": null,
        "Canonical SMILES": "O=C(O)C(=C)CBr",
        "Molecular Formula": "C<sub>4</sub>H<sub>5</sub>BrO<sub>2</sub>",
        "Molecular Mass": "164.99",
        "Melting Point": "74.0-75.0 °C"
    }
}