{
    "cas_no": "5414-21-1",
    "key_name": "5-Bromovaleronitrile",
    "cn_name": null,
    "alternate_name": "Pentanenitrile, 5-bromo-;Valeronitrile, 5-bromo-;5-Bromopentanenitrile;5-Bromovaleronitrile;1-Cyano-4-bromobutane;δ-Bromovaleronitrile;1-Bromo-4-cyanobutane;NSC 8032;4-Cyanobutyl bromide",
    "duplicated_cas_no": "",
    "SMILES": "C(CCBr)CC#N",
    "meta_data": {
        "InChI": "InChI=1S/C5H8BrN/c6-4-2-1-3-5-7/h1-4H2",
        "InChIKey": null,
        "Canonical SMILES": "N#CCCCCBr",
        "Molecular Formula": "C<sub>5</sub>H<sub>8</sub>BrN",
        "Molecular Mass": "162.03",
        "Boiling Point": "110-111 °C @ Press: 11 Torr",
        "Density": "1.3989 g/cm³ @ Temp: 20 °C"
    }
}