{
    "cas_no": "4132-48-3",
    "key_name": "4-Isopropylanisole",
    "cn_name": "4-异丙基苯甲醚;对异丙基苯甲醚;4-甲氧基异丙苯;",
    "alternate_name": "Benzene, 1-methoxy-4-(1-methylethyl)-;Anisole, <em>p</em>-isopropyl-;1-Methoxy-4-(1-methylethyl)benzene;<em>p</em>-Isopropylanisole;<em>p</em>-Methoxyisopropylbenzene;<em>p</em>-Methoxycumene;2-(<em>p</em>-Methoxyphenyl)propane;4-Methoxyisopropylbenzene;4-Isopropylanisole;1-Methoxy-4-isopropylbenzene;4-Isopropylphenol methyl ether;1-Isopropyl-4-methoxybenzene;4-Methoxycumene;1-Methoxy-4-propan-2-ylbenzene;1-Methoxy-4-(propan-2-yl)benzene",
    "duplicated_cas_no": "",
    "SMILES": "C(C)(C)C1=CC=C(OC)C=C1",
    "meta_data": {
        "InChI": "InChI=1S/C10H14O/c1-8(2)9-4-6-10(11-3)7-5-9/h4-8H,1-3H3",
        "InChIKey": null,
        "Canonical SMILES": "O(C1=CC=C(C=C1)C(C)C)C",
        "Molecular Formula": "C<sub>10</sub>H<sub>14</sub>O",
        "Molecular Mass": "150.22",
        "Boiling Point": "212-215 °C",
        "Melting Point": "60-61 °C",
        "Density": "0.9448 g/cm³ @ Temp: 20 °C"
    }
}