{
    "cas_no": "610-27-5",
    "key_name": "4-Nitrophthalic acid",
    "cn_name": "4-硝基邻苯二甲酸;4-硝基酞酸;",
    "alternate_name": "1,2-Benzenedicarboxylic acid, 4-nitro-;Phthalic acid, 4-nitro-;4-Nitro-1,2-benzenedicarboxylic acid;4-Nitrophthalic acid;5-Nitrophthalic acid;4-Nitrobenzene-1,2-dicarboxylic acid;NSC 5395;5-Nitro-1,2-benzenedicarboxylic acid",
    "duplicated_cas_no": "",
    "SMILES": "C(O)(=O)C1=C(C(O)=O)C=CC(N(=O)=O)=C1",
    "meta_data": {
        "InChI": "InChI=1S/C8H5NO6/c10-7(11)5-2-1-4(9(14)15)3-6(5)8(12)13/h1-3H,(H,10,11)(H,12,13)",
        "InChIKey": null,
        "Canonical SMILES": "O=C(O)C1=CC=C(C=C1C(=O)O)N(=O)=O",
        "Molecular Formula": "C<sub>8</sub>H<sub>5</sub>NO<sub>6</sub>",
        "Molecular Mass": "211.13",
        "Melting Point": "161 °C"
    }
}