{
    "cas_no": "1486-28-8",
    "key_name": "Methyldiphenylphosphine",
    "cn_name": "二苯基甲氧基膦;",
    "alternate_name": "Phosphine, methyldiphenyl-;Methyldiphenylphosphine;Diphenylmethylphosphine;Diphenylphosphinomethane;NSC 158476",
    "duplicated_cas_no": "",
    "SMILES": "P(C)(C1=CC=CC=C1)C2=CC=CC=C2",
    "meta_data": {
        "InChI": "InChI=1S/C13H13P/c1-14(12-8-4-2-5-9-12)13-10-6-3-7-11-13/h2-11H,1H3",
        "InChIKey": null,
        "Canonical SMILES": "C=1C=CC(=CC1)P(C=2C=CC=CC2)C",
        "Molecular Formula": "C<sub>13</sub>H<sub>13</sub>P",
        "Molecular Mass": "200.22",
        "Boiling Point": "284 °C @ Press: 760 Torr",
        "Melting Point": "117-118 °C",
        "Density": "1.0779 g/cm³ @ Temp: 20 °C"
    }
}