{
    "cas_no": "640-87-9",
    "key_name": "21-(Acetyloxy)-17-hydroxypregn-4-ene-3,20-dione",
    "cn_name": "孕甾-4-烯-17&alpha;,21-二醇-3,20-二酮-21-醋酸酯;21-乙酰氧基-17&alpha;-羟基孕甾-4-烯-3,20-二酮;",
    "alternate_name": "Pregn-4-ene-3,20-dione, 21-(acetyloxy)-17-hydroxy-;Pregn-4-ene-3,20-dione, 17,21-dihydroxy-, 21-acetate;Corticosterone, 11-deoxy-17-hydroxy-, 21-acetate;21-(Acetyloxy)-17-hydroxypregn-4-ene-3,20-dione;Reichstein-<em>S</em>-acetate;Reichstein's substance S acetate;Reichstein's substance S 21-acetate;21-Acetoxy-17-hydroxypregn-4-ene-3,20-dione;4-Pregnene-17α,21-diol-3,20-dione 21-acetate;17,21-Dihydroxypregn-4-ene-3,20-dione 21-acetate;17α-Hydroxy-11-deoxycorticosterone-21-acetate;Reichstein substance S 21-acetate;17-Hydroxy-21-acetoxyprogesterone;11-Deoxycortisol 21-acetate;Cortodoxon 21-acetate;21-Acetoxy-17α-hydroxyprogesterone;NSC 81196;Cortexolone 21-acetate",
    "duplicated_cas_no": "478614-17-4;499984-29-1",
    "SMILES": "C[C@@]12[C@]([C@]3([C@@]([C@]4(C)C(CC3)=CC(=O)CC4)(CC1)[H])[H])(CC[C@@]2(C(COC(C)=O)=O)O)[H]",
    "meta_data": {
        "InChI": "InChI=1S/C23H32O5/c1-14(24)28-13-20(26)23(27)11-8-19-17-5-4-15-12-16(25)6-9-21(15,2)18(17)7-10-22(19,23)3/h12,17-19,27H,4-11,13H2,1-3H3/t17-,18+,19+,21+,22+,23+/m1/s1",
        "InChIKey": null,
        "Canonical SMILES": "O=C(OCC(=O)C1(O)CCC2C3CCC4=CC(=O)CCC4(C)C3CCC21C)C",
        "Molecular Formula": "C<sub>23</sub>H<sub>32</sub>O<sub>5</sub>",
        "Molecular Mass": "388.50",
        "Melting Point": "235-238 °C",
        "Density": "1.4 g/cm³"
    }
}