{
    "cas_no": "25199-84-2",
    "key_name": "4-(Trifluoromethyl)-2(1<em>H</em>)-quinolinone",
    "cn_name": "4-三氟甲基-2-羟基喹啉;",
    "alternate_name": "2(1<em>H</em>)-Quinolinone, 4-(trifluoromethyl)-;Carbostyril, 4-(trifluoromethyl)-;4-(Trifluoromethyl)-2(1<em>H</em>)-quinolinone;2-Hydroxy-4-(trifluoromethyl)quinoline;4-Trifluoromethyl-1<em>H</em>-quinolin-2-one;4-(Trifluoromethyl)quinolin-2-ol",
    "duplicated_cas_no": "41289-02-5",
    "SMILES": "C(F)(F)(F)C=1C=2C(NC(=O)C1)=CC=CC2",
    "meta_data": {
        "InChI": "InChI=1S/C10H6F3NO/c11-10(12,13)7-5-9(15)14-8-4-2-1-3-6(7)8/h1-5H,(H,14,15)",
        "InChIKey": null,
        "Canonical SMILES": "O=C1C=C(C=2C=CC=CC2N1)C(F)(F)F",
        "Molecular Formula": "C<sub>10</sub>H<sub>6</sub>F<sub>3</sub>NO",
        "Molecular Mass": "213.16",
        "Melting Point": "246-247 °C"
    }
}