{
    "cas_no": "20780-49-8",
    "key_name": "3,7-Dimethyloctyl acetate",
    "cn_name": "乙酸-3,7-二甲基辛酯;",
    "alternate_name": "1-Octanol, 3,7-dimethyl-, 1-acetate;1-Octanol, 3,7-dimethyl-, acetate;Tetrahydrogeranyl acetate;Dihydrocitronellyl acetate;3,7-Dimethyloctyl acetate;Dimethyl octanyl acetate;Acetic acid 3,7-dimethyloctyl ester",
    "duplicated_cas_no": "",
    "SMILES": "C(CCCC(C)C)(CCOC(C)=O)C",
    "meta_data": {
        "InChI": "InChI=1S/C12H24O2/c1-10(2)6-5-7-11(3)8-9-14-12(4)13/h10-11H,5-9H2,1-4H3",
        "InChIKey": null,
        "Canonical SMILES": "O=C(OCCC(C)CCCC(C)C)C",
        "Molecular Formula": "C<sub>12</sub>H<sub>24</sub>O<sub>2</sub>",
        "Molecular Mass": "200.32",
        "Boiling Point": "104-108 °C @ Press: 12 Torr",
        "Density": "0.8659 g/cm³ @ Temp: 20 °C"
    }
}