{
    "cas_no": "2435-47-4",
    "key_name": "3,6-Dimethyl-2-pyrazinecarbonitrile",
    "cn_name": null,
    "alternate_name": "2-Pyrazinecarbonitrile, 3,6-dimethyl-;Pyrazinecarbonitrile, 3,6-dimethyl-;3,6-Dimethyl-2-pyrazinecarbonitrile",
    "duplicated_cas_no": "",
    "SMILES": "C(#N)C=1C(C)=NC=C(C)N1",
    "meta_data": {
        "InChI": "InChI=1S/C7H7N3/c1-5-4-9-6(2)7(3-8)10-5/h4H,1-2H3",
        "InChIKey": null,
        "Canonical SMILES": "N#CC1=NC(=CN=C1C)C",
        "Molecular Formula": "C<sub>7</sub>H<sub>7</sub>N<sub>3</sub>",
        "Molecular Mass": "133.15",
        "Melting Point": "49-50 °C"
    }
}