{
    "cas_no": "24526-64-5",
    "key_name": "Nomifensine",
    "cn_name": "诺米芬辛;苯异喹胺;",
    "alternate_name": "8-Isoquinolinamine, 1,2,3,4-tetrahydro-2-methyl-4-phenyl-;Isoquinoline, 8-amino-1,2,3,4-tetrahydro-2-methyl-4-phenyl-;1,2,3,4-Tetrahydro-2-methyl-4-phenyl-8-isoquinolinamine;Nomifensin;Nomifensine;Linamiphen;(±)-Nomifensine;(±)-Nomifensin;2-Methyl-4-phenyl-1,2,3,4-tetrahydroisoquinolin-8-ylamine;2-Methyl-4-phenyl-3,4-dihydro-1<em>H</em>-isoquinolin-8-amine;2-Methyl-4-phenyl-1,2,3,4-tetrahydroisoquinolin-8-amine;MeSH ID: D009627",
    "duplicated_cas_no": "118184-50-2;89664-19-7",
    "SMILES": "NC1=C2C(C(CN(C)C2)C3=CC=CC=C3)=CC=C1",
    "meta_data": {
        "InChI": "InChI=1S/C16H18N2/c1-18-10-14(12-6-3-2-4-7-12)13-8-5-9-16(17)15(13)11-18/h2-9,14H,10-11,17H2,1H3",
        "InChIKey": null,
        "Canonical SMILES": "NC1=CC=CC2=C1CN(C)CC2C=3C=CC=CC3",
        "Molecular Formula": "C<sub>16</sub>H<sub>18</sub>N<sub>2</sub>",
        "Molecular Mass": "238.33",
        "Melting Point": "180 °C"
    }
}