{
    "cas_no": "16339-18-7",
    "key_name": "2,2′-(Nitrosoimino)bis[acetonitrile]",
    "cn_name": null,
    "alternate_name": "Acetonitrile, 2,2′-(nitrosoimino)bis-;Acetonitrile, nitrosiminodi-;2,2′-(Nitrosoimino)bis[acetonitrile];<em>N</em>-Nitrosodi(cyanomethyl)amine;2-[(Cyanomethyl)(nitroso)amino]acetonitrile",
    "duplicated_cas_no": "",
    "SMILES": "N(CC#N)(CC#N)N=O",
    "meta_data": {
        "InChI": "InChI=1S/C4H4N4O/c5-1-3-8(7-9)4-2-6/h3-4H2",
        "InChIKey": null,
        "Canonical SMILES": "N#CCN(N=O)CC#N",
        "Molecular Formula": "C<sub>4</sub>H<sub>4</sub>N<sub>4</sub>O",
        "Molecular Mass": "124.10",
        "Boiling Point": "157 °C @ Press: 3 Torr",
        "Melting Point": "38-38.5 °C"
    }
}