{
    "cas_no": "78-27-3",
    "key_name": "1-Ethynylcyclohexanol",
    "cn_name": "乙炔环己醇;1-乙炔基环己醇;",
    "alternate_name": "Cyclohexanol, 1-ethynyl-;1-Ethynylcyclohexanol;1-Ethynyl-1-cyclohexanol;(1-Hydroxycyclohexyl)ethyne;1-Ethynyl-1-hydroxycyclohexane;Ethynylcyclohexanol;1-Hydroxy-1-ethynylcyclohexane;(1-Hydroxycyclohexyl)acetylene;NSC 8194;DX 3022;1-Ethynylcyclohexanal;PC 00685;Bluesil RTRD-PA 40",
    "duplicated_cas_no": "1612287-66-7",
    "SMILES": "C(#C)C1(O)CCCCC1",
    "meta_data": {
        "InChI": "InChI=1S/C8H12O/c1-2-8(9)6-4-3-5-7-8/h1,9H,3-7H2",
        "InChIKey": null,
        "Canonical SMILES": "C#CC1(O)CCCCC1",
        "Molecular Formula": "C<sub>8</sub>H<sub>12</sub>O",
        "Molecular Mass": "124.18",
        "Boiling Point": "174 °C",
        "Melting Point": "31.5 °C",
        "Density": "0.9809 g/cm³ @ Temp: 20 °C"
    }
}