{
    "cas_no": "6375-17-3",
    "key_name": "<em>N</em>-(2-Hydroxy-5-methylphenyl)acetamide",
    "cn_name": "邻乙酰氨基对甲基苯酚;",
    "alternate_name": "Acetamide, <em>N</em>-(2-hydroxy-5-methylphenyl)-;<em>m</em>-Acetotoluidide, 6′-hydroxy-;<em>N</em>-(2-Hydroxy-5-methylphenyl)acetamide;2′-Hydroxy-5′-methylacetanilide;4-Methyl-6-acetamidophenol;NSC 158415;2-Acetylamino-<em>p</em>-cresol;2-Acetamido-4-methylphenol",
    "duplicated_cas_no": "",
    "SMILES": "N(C(C)=O)C1=C(O)C=CC(C)=C1",
    "meta_data": {
        "InChI": "InChI=1S/C9H11NO2/c1-6-3-4-9(12)8(5-6)10-7(2)11/h3-5,12H,1-2H3,(H,10,11)",
        "InChIKey": null,
        "Canonical SMILES": "O=C(NC1=CC(=CC=C1O)C)C",
        "Molecular Formula": "C<sub>9</sub>H<sub>11</sub>NO<sub>2</sub>",
        "Molecular Mass": "165.19",
        "Melting Point": "189 °C"
    }
}