{
    "cas_no": "109384-19-2",
    "key_name": "4-Hydroxypiperidine-1-carboxylic acid <em>tert</em>-butyl ester",
    "cn_name": "N-Boc-4-羟基哌啶;1-叔丁氧羰基-4-羟基哌啶;",
    "alternate_name": "1-Piperidinecarboxylic acid, 4-hydroxy-, 1,1-dimethylethyl ester;<em>N</em>-(<em>tert</em>-Butoxycarbonyl)-4-hydroxypiperidine;<em>N</em>-(<em>tert</em>-Butoxycarbonyl)piperidin-4-ol;1-(<em>tert</em>-Butoxycarbonyl)-4-hydroxypiperidine;4-Hydroxy-1-(<em>tert</em>-butoxycarbonyl)piperidine;1-<em>tert</em>-Butoxycarbonyl-4-piperidinol;4-Hydroxypiperidine-1-carboxylic acid <em>tert</em>-butyl ester;<em>tert</em>-Butyl 4-hydroxy-1-piperidinecarboxylate;<em>N</em>-Boc-4-hydroxypiperidine;1,1-Dimethylethyl 4-hydroxypiperidine-1-carboxylate;<em>N</em>-(<em>tert</em>-Butyloxycarbonyl)-4-piperidinol;4-Hydroxy-1-piperidinecarboxylic acid tert-butyl ester;1-Boc-4-hydroxypiperidine;1-(<em>tert</em>-Butyloxycarbonyl)piperidin-4-ol;1-<em>tert</em>-Butyloxycarbonyl-4-hydroxypiperidine;<em>N</em>-Boc-4-piperidinol;<em>N</em>-(<em>tert</em>-Butyloxycarbonyl)-4-hydroxypiperidine;4-Hydroxy-<em>N</em>-Boc-piperidine;1-Boc-piperidin-4-ol;<em>N</em>-Boc-4-hydroxy-1-piperidine;4-Hydroxy-<em>N</em>-(<em>tert</em>-butoxycarbonyl)piperidine;4-Hydroxy-1-piperidinecarboxylic acid 1,1-dimethylethyl ester;2-Methylpropan-2-yl 4-hydroxypiperidine-1-carboxylate;4-Hydroxy-1-Boc-piperidine;<em>tert</em>-Butyl 4-hydroxylpiperidine-1-carboxylate;<em>tert</em>-Butyl 4-hydroxypiperidin-1-carboxylate",
    "duplicated_cas_no": "",
    "SMILES": "C(OC(C)(C)C)(=O)N1CCC(O)CC1",
    "meta_data": {
        "InChI": "InChI=1S/C10H19NO3/c1-10(2,3)14-9(13)11-6-4-8(12)5-7-11/h8,12H,4-7H2,1-3H3",
        "InChIKey": null,
        "Canonical SMILES": "O=C(OC(C)(C)C)N1CCC(O)CC1",
        "Molecular Formula": "C<sub>10</sub>H<sub>19</sub>NO<sub>3</sub>",
        "Molecular Mass": "201.26",
        "Melting Point": "156-158 °C"
    }
}