{
    "cas_no": "897-06-3",
    "key_name": "Androsta-1,4-diene-3,17-dione",
    "cn_name": "1,4-雄烯二酮;",
    "alternate_name": "Androsta-1,4-diene-3,17-dione;Δ<sup>1,4</sup>-Androstadiene-3,17-dione;Androstadienedione;Androsta-1,4-dien-3,17-dione;1-Dehydroandrostenedione;Androstane-1,4-diene-3,17-dione;NSC 49080;Boldione;(+)-Androsta-1,4-diene-3,17-dione;BDION;1,4-Androstadiendione;Boldienone",
    "duplicated_cas_no": "2489676-10-8;2602564-75-8",
    "SMILES": "C[C@@]12[C@@]3([C@]([C@]4([C@](C)(CC3)C(=O)CC4)[H])(CCC1=CC(=O)C=C2)[H])[H]",
    "meta_data": {
        "InChI": "InChI=1S/C19H24O2/c1-18-9-7-13(20)11-12(18)3-4-14-15-5-6-17(21)19(15,2)10-8-16(14)18/h7,9,11,14-16H,3-6,8,10H2,1-2H3/t14-,15-,16-,18-,19-/m0/s1",
        "InChIKey": null,
        "Canonical SMILES": "O=C1C=CC2(C(=C1)CCC3C2CCC4(C(=O)CCC34)C)C",
        "Molecular Formula": "C<sub>19</sub>H<sub>24</sub>O<sub>2</sub>",
        "Molecular Mass": "284.39",
        "Melting Point": "139-140 °C"
    }
}