{
    "cas_no": "1445-56-3",
    "key_name": "3-Chloropyridazine-4-carbonitrile",
    "cn_name": "4-氰基-3-氯哒嗪;",
    "alternate_name": "4-Pyridazinecarbonitrile, 3-chloro-;3-Chloro-4-pyridazinecarbonitrile;4-Cyano-3-chloropyridazine;3-Chloropyridazine-4-carbonitrile",
    "duplicated_cas_no": "",
    "SMILES": "C(#N)C1=C(Cl)N=NC=C1",
    "meta_data": {
        "InChI": "InChI=1S/C5H2ClN3/c6-5-4(3-7)1-2-8-9-5/h1-2H",
        "InChIKey": null,
        "Canonical SMILES": "N#CC1=CC=NN=C1Cl",
        "Molecular Formula": "C<sub>5</sub>H<sub>2</sub>ClN<sub>3</sub>",
        "Molecular Mass": "139.54",
        "Boiling Point": "90 °C @ Press: 0.15 Torr",
        "Melting Point": "41-42 °C"
    }
}