{
    "cas_no": "15301-69-6",
    "key_name": "Flavoxate",
    "cn_name": null,
    "alternate_name": "4<em>H</em>-1-Benzopyran-8-carboxylic acid, 3-methyl-4-oxo-2-phenyl-, 2-(1-piperidinyl)ethyl ester;4<em>H</em>-1-Benzopyran-8-carboxylic acid, 3-methyl-4-oxo-2-phenyl-, 2-piperidinoethyl ester;Flavoxate;Piperidinoethyl 3-methyl-2-phenyl-4-oxo-4<em>H</em>-1-benzopyran-8-carboxylate;β-Piperidinoethyl-3-methylflavone-8-carboxylate;2-Piperidinoethyl 3-methylflavone-8-carboxylate",
    "duplicated_cas_no": "",
    "SMILES": "C(OCCN1CCCCC1)(=O)C2=C3C(C(=O)C(C)=C(O3)C4=CC=CC=C4)=CC=C2",
    "meta_data": {
        "InChI": "InChI=1S/C24H25NO4/c1-17-21(26)19-11-8-12-20(23(19)29-22(17)18-9-4-2-5-10-18)24(27)28-16-15-25-13-6-3-7-14-25/h2,4-5,8-12H,3,6-7,13-16H2,1H3",
        "InChIKey": null,
        "Canonical SMILES": "O=C(OCCN1CCCCC1)C2=CC=CC=3C(=O)C(=C(OC23)C=4C=CC=CC4)C",
        "Molecular Formula": "C<sub>24</sub>H<sub>25</sub>NO<sub>4</sub>",
        "Molecular Mass": "391.46",
        "Melting Point": "87-88 °C"
    }
}