{
    "cas_no": "86-38-4",
    "key_name": "6,9-Dichloro-2-methoxyacridine",
    "cn_name": "6,9-二氯-2-甲氧基吖啶;",
    "alternate_name": "Acridine, 6,9-dichloro-2-methoxy-;6,9-Dichloro-2-methoxyacridine;Halocrin;Halocrine;2-Methoxy-6,9-dichloroacridine;3,9-Dichloro-7-methoxyacridine;NSC 2095;NSC 2951",
    "duplicated_cas_no": "",
    "SMILES": "ClC=1C2=C(N=C3C1C=CC(Cl)=C3)C=CC(OC)=C2",
    "meta_data": {
        "InChI": "InChI=1S/C14H9Cl2NO/c1-18-9-3-5-12-11(7-9)14(16)10-4-2-8(15)6-13(10)17-12/h2-7H,1H3",
        "InChIKey": null,
        "Canonical SMILES": "ClC=1C=CC=2C(=NC=3C=CC(OC)=CC3C2Cl)C1",
        "Molecular Formula": "C<sub>14</sub>H<sub>9</sub>Cl<sub>2</sub>NO",
        "Molecular Mass": "278.13",
        "Melting Point": "160-161 °C",
        "Density": "1.52 g/cm³"
    }
}