{
    "cas_no": "15662-33-6",
    "key_name": "Ryanodine",
    "cn_name": "鱼尼汀[含量＞30%];",
    "alternate_name": "1<em>H</em>-Pyrrole-2-carboxylic acid, (3<em>S</em>,4<em>R</em>,4a<em>R</em>,6<em>S</em>,6a<em>S</em>,7<em>S</em>,8<em>R</em>,8a<em>S</em>,8b<em>R</em>,9<em>S</em>,9a<em>S</em>)-dodecahydro-4,6,7,8a,8b,9a-hexahydroxy-3,6a,9-trimethyl-7-(1-methylethyl)-6,9-methanobenzo[1,2]pentaleno[1,6-<em>bc</em>]furan-8-yl ester;Ryanodine;Ryanodol, 3-(1<em>H</em>-pyrrole-2-carboxylate);Ryanex;Ryania;Ryanicide;Ryanodin;(+)-Ryanodine;Ryania (pesticide);1<em>H</em>-Pyrrole-2-carboxylic acid, dodecahydro-4,6,7,8a,8b,9a-hexahydroxy-3,6a,9-trimethyl-7-(1-methylethyl)-6,9-methanobenzo[1,2]pentaleno[1,6-<em>bc</em>]furan-8-yl ester, [3<em>S</em>-(3α,4β,4a<em>S</em>*,6α,6aα,7α,8β,8aα,8bβ,9β,9aα)]-;MeSH ID: D012433",
    "duplicated_cas_no": "1361-01-9;1580-06-9;8047-13-0;15800-60-9;25800-57-1",
    "SMILES": "O[C@@]12[C@@]34[C@@](O)([C@@]5(C)[C@]1(O)[C@H](OC(=O)C6=CC=CN6)[C@@]([C@@H](C)C)(O)[C@]2(C)[C@@](O)(O3)C5)CC[C@H](C)[C@H]4O",
    "meta_data": {
        "InChI": "InChI=1S/C25H35NO9/c1-12(2)22(31)17(34-16(28)14-7-6-10-26-14)23(32)18(4)11-21(30)19(22,5)25(23,33)24(35-21)15(27)13(3)8-9-20(18,24)29/h6-7,10,12-13,15,17,26-27,29-33H,8-9,11H2,1-5H3/t13-,15+,17+,18-,19-,20-,21-,22+,23+,24+,25+/m0/s1",
        "InChIKey": null,
        "Canonical SMILES": "O=C(OC1C(O)(C(C)C)C2(C)C3(O)OC45C(O)C(C)CCC4(O)C(C)(C3)C1(O)C52O)C6=CC=CN6",
        "Molecular Formula": "C<sub>25</sub>H<sub>35</sub>NO<sub>9</sub>",
        "Molecular Mass": "493.55",
        "Melting Point": "219-220 °C"
    }
}