{
    "cas_no": "144598-75-4",
    "key_name": "Paliperidone",
    "cn_name": "帕潘立酮;6,7,8,9-四氢-3-(2-(4-(6-氟-1,2-苯并异恶唑-3-基)-1-哌啶基)乙基)-9-羟基-2-甲基-4H-吡啶并[2,1-;",
    "alternate_name": "4<em>H</em>-Pyrido[1,2-<em>a</em>]pyrimidin-4-one, 3-[2-[4-(6-fluoro-1,2-benzisoxazol-3-yl)-1-piperidinyl]ethyl]-6,7,8,9-tetrahydro-9-hydroxy-2-methyl-;1,2-Benzisoxazole, 4<em>H</em>-pyrido[1,2-<em>a</em>]pyrimidin-4-one deriv.;3-[2-[4-(6-Fluoro-1,2-benzisoxazol-3-yl)-1-piperidinyl]ethyl]-6,7,8,9-tetrahydro-9-hydroxy-2-methyl-4<em>H</em>-pyrido[1,2-<em>a</em>]pyrimidin-4-one;R 76477;9-Hydroxyrisperidone;Paliperidone;RO 76477;Invega;Invega Trinza",
    "duplicated_cas_no": "130049-86-4;130049-84-2;147687-18-1",
    "SMILES": "FC=1C=C2C(C(=NO2)C3CCN(CCC=4C(=O)N5C(=NC4C)C(O)CCC5)CC3)=CC1",
    "meta_data": {
        "InChI": "InChI=1S/C23H27FN4O3/c1-14-17(23(30)28-9-2-3-19(29)22(28)25-14)8-12-27-10-6-15(7-11-27)21-18-5-4-16(24)13-20(18)31-26-21/h4-5,13,15,19,29H,2-3,6-12H2,1H3",
        "InChIKey": null,
        "Canonical SMILES": "O=C1C(=C(N=C2N1CCCC2O)C)CCN3CCC(C4=NOC=5C=C(F)C=CC54)CC3",
        "Molecular Formula": "C<sub>23</sub>H<sub>27</sub>FN<sub>4</sub>O<sub>3</sub>",
        "Molecular Mass": "426.48",
        "Melting Point": "162.2-162.4 °C"
    }
}