{
    "cas_no": "4726-14-1",
    "key_name": "Nitralin",
    "cn_name": "磺乐灵;",
    "alternate_name": "Benzenamine, 4-(methylsulfonyl)-2,6-dinitro-<em>N</em>,<em>N</em>-dipropyl-;Aniline, 4-(methylsulfonyl)-2,6-dinitro-<em>N</em>,<em>N</em>-dipropyl-;4-(Methylsulfonyl)-2,6-dinitro-<em>N</em>,<em>N</em>-dipropylbenzenamine;Nitralin;Planuin;4-(Methylsulfonyl)-2,6-dinitro-<em>N</em>,<em>N</em>-dipropylaniline;Planavin;SD 11831;2,6-Dinitro-4-methylsulfonyl-<em>N</em>,<em>N</em>-dipropylaniline;Planavin 75;Nitraline;<em>N</em>,<em>N</em>-Dipropyl-2,6-dinitro-4-methylsulfonylaniline;<em>N</em>,<em>N</em>-Dipropyl-4-methylsulfonyl-2,6-dinitroaniline;2,6-Dinitro-4-methylsulfonyl-<em>N</em>-<em>N</em>-di-<em>n</em>-propylaniline",
    "duplicated_cas_no": "",
    "SMILES": "N(CCC)(CCC)C1=C(N(=O)=O)C=C(S(C)(=O)=O)C=C1N(=O)=O",
    "meta_data": {
        "InChI": "InChI=1S/C13H19N3O6S/c1-4-6-14(7-5-2)13-11(15(17)18)8-10(23(3,21)22)9-12(13)16(19)20/h8-9H,4-7H2,1-3H3",
        "InChIKey": null,
        "Canonical SMILES": "O=N(=O)C=1C=C(C=C(C1N(CCC)CCC)N(=O)=O)S(=O)(=O)C",
        "Molecular Formula": "C<sub>13</sub>H<sub>19</sub>N<sub>3</sub>O<sub>6</sub>S",
        "Molecular Mass": "345.37",
        "Melting Point": "151-152 °C"
    }
}