{
    "cas_no": "22007-72-3",
    "key_name": "Quercetin 7-<em>O</em>-rhamnoside",
    "cn_name": null,
    "alternate_name": "4<em>H</em>-1-Benzopyran-4-one, 7-[(6-deoxy-α-<span class=\"text-smallcaps\">L</span>-mannopyranosyl)oxy]-2-(3,4-dihydroxyphenyl)-3,5-dihydroxy-;Vincetoxicoside B;7-[(6-Deoxy-α-<span class=\"text-smallcaps\">L</span>-mannopyranosyl)oxy]-2-(3,4-dihydroxyphenyl)-3,5-dihydroxy-4<em>H</em>-1-benzopyran-4-one;7-Rhamnosylquercetin;Quercetin 7-rhamnoside;Quercetin 7-<em>O</em>-rhamnoside;Quercetol 7-<em>O</em>-rhamnoside;Quercetin-7-α-<span class=\"text-smallcaps\">L</span>-rhamnoside;Sophoretin-3-<em>O</em>-α-<span class=\"text-smallcaps\">L</span>-rhamnoside",
    "duplicated_cas_no": "",
    "SMILES": "O=C1C=2C(OC(=C1O)C3=CC(O)=C(O)C=C3)=CC(O[C@H]4[C@H](O)[C@H](O)[C@@H](O)[C@H](C)O4)=CC2O",
    "meta_data": {
        "InChI": "InChI=1S/C21H20O11/c1-7-15(25)17(27)19(29)21(30-7)31-9-5-12(24)14-13(6-9)32-20(18(28)16(14)26)8-2-3-10(22)11(23)4-8/h2-7,15,17,19,21-25,27-29H,1H3/t7-,15-,17+,19+,21-/m0/s1",
        "InChIKey": null,
        "Canonical SMILES": "O=C1C(O)=C(OC2=CC(OC3OC(C)C(O)C(O)C3O)=CC(O)=C12)C=4C=CC(O)=C(O)C4",
        "Molecular Formula": "C<sub>21</sub>H<sub>20</sub>O<sub>11</sub>",
        "Molecular Mass": "448.38",
        "Melting Point": "174-175 °C"
    }
}