{
    "cas_no": "51-84-3",
    "key_name": "Acetylcholine",
    "cn_name": null,
    "alternate_name": "Ethanaminium, 2-(acetyloxy)-<em>N</em>,<em>N</em>,<em>N</em>-trimethyl-;Choline acetate (ester);Choline, acetate;2-(Acetyloxy)-<em>N</em>,<em>N</em>,<em>N</em>-trimethylethanaminium;Acetylcholine;ACh;Choline, acetyl-;Acetyl choline ion;Acetylcholine cation;Acetylcholinium;2-Acetyloxyethyl(trimethyl)azanium;MeSH ID: D000109",
    "duplicated_cas_no": "",
    "SMILES": "C(COC(C)=O)[N+](C)(C)C",
    "meta_data": {
        "InChI": "InChI=1S/C7H16NO2/c1-7(9)10-6-5-8(2,3)4/h5-6H2,1-4H3/q+1",
        "InChIKey": null,
        "Canonical SMILES": "O=C(OCC[N+](C)(C)C)C",
        "Molecular Formula": "C<sub>7</sub>H<sub>16</sub>NO<sub>2</sub>",
        "Molecular Mass": "",
        "Melting Point": "85-87 °C"
    }
}