{
    "cas_no": "5707-69-7",
    "key_name": "Drazoxolon",
    "cn_name": "联氨恶唑酮;4-(2-氯代苯基肼叉)-3-甲基-5-异恶唑酮;敌菌酮;",
    "alternate_name": "4,5-Isoxazoledione, 3-methyl-, 4-[2-(2-chlorophenyl)hydrazone];4,5-Isoxazoledione, 3-methyl-, 4-[(<em>o</em>-chlorophenyl)hydrazone];4,5-Isoxazoledione, 3-methyl-, 4-[(2-chlorophenyl)hydrazone];PP 781;4-(2-Chlorophenylhydrazono)-3-methyl-5-isoxazolone;4-<em>o</em>-Chlorophenylhydrazono-3-methyl-5-isoxazolone;Drazoxolon;JF 1633;JF 2067;3-Methyl-4-[(<em>o</em>-chlorophenyl)hydrazone]-4,5-isoxazoledione;4-(2-Chlorophenylhydrazono)-3-methyl-5(4<em>H</em>)-isoxazolone;3-Methyl-4-(<em>o</em>-chlorophenylhydrazono)-5-isoxazolone;R 22395;Milcol;Mil-Col (pesticide);Hydrazolon;JF 800;3-Methyl-4-(2-chlorophenylhydrazono)-2-isoxazolin-5-one",
    "duplicated_cas_no": "8039-90-5",
    "SMILES": "N(NC1=C(Cl)C=CC=C1)=C2C(C)=NOC2=O",
    "meta_data": {
        "InChI": "InChI=1S/C10H8ClN3O2/c1-6-9(10(15)16-14-6)13-12-8-5-3-2-4-7(8)11/h2-5,12H,1H3",
        "InChIKey": null,
        "Canonical SMILES": "O=C1ON=C(C1=NNC=2C=CC=CC2Cl)C",
        "Molecular Formula": "C<sub>10</sub>H<sub>8</sub>ClN<sub>3</sub>O<sub>2</sub>",
        "Molecular Mass": "237.64",
        "Melting Point": "168 °C"
    }
}