{
    "cas_no": "66-32-0",
    "key_name": "Strychnidin-10-one, nitrate (1:1)",
    "cn_name": null,
    "alternate_name": "Strychnidin-10-one, nitrate (1:1);Strychnine, mononitrate;Strychnidin-10-one, mononitrate;4,6-Methano-6<em>H</em>,14<em>H</em>-indolo[3,2,1-<em>ij</em>]oxepino[2,3,4-<em>de</em>]pyrrolo[2,3-<em>h</em>]quinoline, strychnidin-10-one deriv.;Strychnine nitrate",
    "duplicated_cas_no": "",
    "SMILES": "N(=O)(=O)O.O=C1N2[C@@]3([C@@]4([C@]5([N@@](CC4)CC=6[C@@]([C@]3([C@](C1)(OCC6)[H])[H])(C5)[H])[H])C=7C2=CC=CC7)[H]",
    "meta_data": {
        "InChI": "InChI=1S/C21H22N2O2.HNO3/c24-18-10-16-19-13-9-17-21(6-7-22(17)11-12(13)5-8-25-16)14-3-1-2-4-15(14)23(18)20(19)21;2-1(3)4/h1-5,13,16-17,19-20H,6-11H2;(H,2,3,4)/t13-,16-,17-,19-,20-,21+;/m0./s1",
        "InChIKey": null,
        "Canonical SMILES": "O=C1N2C=3C=CC=CC3C45CCN6CC7=CCOC(C1)C(C7CC64)C25.O=N(=O)O",
        "Molecular Formula": "C<sub>21</sub>H<sub>22</sub>N<sub>2</sub>O<sub>2</sub>.HNO<sub>3</sub>",
        "Molecular Mass": "",
        "Melting Point": "295 °C"
    }
}