{
    "cas_no": "7704-67-8",
    "key_name": "Erythromycin thiocyanate",
    "cn_name": "硫氰酸红霉素;",
    "alternate_name": "Erythromycin, thiocyanate (salt);Erythromycin thiocyanate;Thiocyanic acid, compd. with erythromycin (1:1);Oxacyclotetradecane, erythromycin deriv.;Gallimycin 10;Gallimycin 50;Erytrovet;Pro-Gallimycin 10;Bactenix V 300;Erythrocin thiocyanate",
    "duplicated_cas_no": "1286-15-3;1336-59-0;8052-90-2;14485-24-6;1187396-59-3",
    "SMILES": "C(#N)S.O([C@@H]1[C@@H](C)[C@H](O[C@H]2C[C@](OC)(C)[C@@H](O)[C@H](C)O2)[C@@H](C)C(=O)O[C@H](CC)[C@@](C)(O)[C@H](O)[C@@H](C)C(=O)[C@H](C)C[C@@]1(C)O)[C@H]3[C@H](O)[C@@H](N(C)C)C[C@@H](C)O3",
    "meta_data": {
        "InChI": "InChI=1S/C37H67NO13.CHNS/c1-14-25-37(10,45)30(41)20(4)27(39)18(2)16-35(8,44)32(51-34-28(40)24(38(11)12)15-19(3)47-34)21(5)29(22(6)33(43)49-25)50-26-17-36(9,46-13)31(42)23(7)48-26;2-1-3/h18-26,28-32,34,40-42,44-45H,14-17H2,1-13H3;3H/t18-,19-,20+,21+,22-,23+,24+,25-,26+,28-,29+,30-,31+,32-,34+,35-,36-,37-;/m1./s1",
        "InChIKey": null,
        "Canonical SMILES": "N#CS.O=C1OC(CC)C(O)(C)C(O)C(C(=O)C(C)CC(O)(C)C(OC2OC(C)CC(N(C)C)C2O)C(C)C(OC3OC(C)C(O)C(OC)(C)C3)C1C)C",
        "Molecular Formula": "C<sub>37</sub>H<sub>67</sub>NO<sub>13</sub>.CHNS",
        "Molecular Mass": "",
        "Melting Point": "166-167 °C"
    }
}