{
    "cas_no": "21816-08-0",
    "key_name": "3-Bromo-1-adamantanecarboxylic acid",
    "cn_name": "3-溴-1-金刚烷甲酸;",
    "alternate_name": "Tricyclo[3.3.1.1<sup>3,7</sup>]decane-1-carboxylic acid, 3-bromo-;1-Adamantanecarboxylic acid, 3-bromo-;3-Bromotricyclo[3.3.1.1<sup>3,7</sup>]decane-1-carboxylic acid;1-Bromo-3-carboxyadamantane;1-Bromoadamantane-3-carboxylic acid;3-Bromo-1-adamantanecarboxylic acid;3-Bromo-1-carboxyadamantane;3-Bromoadamantan-1-carboxylic acid;3-Bromoadamantanecarboxylic acid;3-Bromoadamantane-1-carboxylic cid",
    "duplicated_cas_no": "53263-86-8",
    "SMILES": "C(O)(=O)C12CC3(Br)CC(C1)CC(C2)C3",
    "meta_data": {
        "InChI": "InChI=1S/C11H15BrO2/c12-11-4-7-1-8(5-11)3-10(2-7,6-11)9(13)14/h7-8H,1-6H2,(H,13,14)",
        "InChIKey": null,
        "Canonical SMILES": "O=C(O)C12CC3CC(CC(Br)(C3)C1)C2",
        "Molecular Formula": "C<sub>11</sub>H<sub>15</sub>BrO<sub>2</sub>",
        "Molecular Mass": "259.14",
        "Melting Point": "146.5 °C"
    }
}