{
    "cas_no": "99607-70-2",
    "key_name": "Cloquintocet-mexyl",
    "cn_name": "解毒喹;1-甲基己基(5-氯-8-喹啉氧基)乙酸酯;",
    "alternate_name": "Acetic acid, 2-[(5-chloro-8-quinolinyl)oxy]-, 1-methylhexyl ester;Acetic acid, [(5-chloro-8-quinolinyl)oxy]-, 1-methylhexyl ester;CGA 185072;Cloquintocet-mexyl;Cloquintocet 1-methylhexyl ester;1-Methylhexyl 2-[(5-chloroquinolin-8-yl)oxy]acetate",
    "duplicated_cas_no": "",
    "SMILES": "O(CC(OC(CCCCC)C)=O)C=1C2=C(C(Cl)=CC1)C=CC=N2",
    "meta_data": {
        "InChI": "InChI=1S/C18H22ClNO3/c1-3-4-5-7-13(2)23-17(21)12-22-16-10-9-15(19)14-8-6-11-20-18(14)16/h6,8-11,13H,3-5,7,12H2,1-2H3",
        "InChIKey": null,
        "Canonical SMILES": "O=C(OC(C)CCCCC)COC=1C=CC(Cl)=C2C=CC=NC12",
        "Molecular Formula": "C<sub>18</sub>H<sub>22</sub>ClNO<sub>3</sub>",
        "Molecular Mass": "335.83",
        "Melting Point": "69.4 °C"
    }
}