{
    "cas_no": "4998-76-9",
    "key_name": "Cyclohexylamine, hydrochloride",
    "cn_name": "盐酸环己胺;",
    "alternate_name": "Cyclohexanamine, hydrochloride (1:1);Cyclohexylamine, hydrochloride;Cyclohexanamine, hydrochloride;Cyclohexylammonium chloride",
    "duplicated_cas_no": "",
    "SMILES": "NC1CCCCC1.Cl",
    "meta_data": {
        "InChI": "InChI=1S/C6H13N.ClH/c7-6-4-2-1-3-5-6;/h6H,1-5,7H2;1H",
        "InChIKey": null,
        "Canonical SMILES": "Cl.NC1CCCCC1",
        "Molecular Formula": "C<sub>6</sub>H<sub>13</sub>N.ClH",
        "Molecular Mass": "",
        "Melting Point": "204-205 °C"
    }
}