{
    "cas_no": "1072-21-5",
    "key_name": "Hexanedial",
    "cn_name": "己二醛; 1,6-己二醛;",
    "alternate_name": "Hexanedial;Adipaldehyde;Adipic dialdehyde;Hexanedialdehyde;Adipodialdehyde;1,4-Butane dicarboxaldehyde;Adipic aldehyde;1,6-Hexanedial;Adipindialdehyde",
    "duplicated_cas_no": "",
    "SMILES": "C(CCC=O)CC=O",
    "meta_data": {
        "InChI": "InChI=1S/C6H10O2/c7-5-3-1-2-4-6-8/h5-6H,1-4H2",
        "InChIKey": null,
        "Canonical SMILES": "O=CCCCCC=O",
        "Molecular Formula": "C<sub>6</sub>H<sub>10</sub>O<sub>2</sub>",
        "Molecular Mass": "114.14",
        "Boiling Point": "68-70 °C @ Press: 3 Torr",
        "Melting Point": "-8 °C",
        "Density": "1.003 g/cm³ @ Temp: 19 °C"
    }
}