{
    "cas_no": "488-43-7",
    "key_name": "Glucamine",
    "cn_name": "D-萄糖胺;D-萄糖胺;D-葡萄胺;",
    "alternate_name": "<span class=\"text-smallcaps\">D</span>-Glucitol, 1-amino-1-deoxy-;Glucitol, 1-amino-1-deoxy-, <span class=\"text-smallcaps\">D</span>-;Glucitol, 1-amino-1-deoxy-;Sorbitol, 1-amino-1-deoxy-;1-Amino-1-deoxy-<span class=\"text-smallcaps\">D</span>-glucitol;Glucamine;<span class=\"text-smallcaps\">D</span>-Glucamine;1-Amino-1-deoxysorbitol;1-Amino-1-deoxyglucitol;1-Deoxy-1-amino-<span class=\"text-smallcaps\">D</span>-sorbitol;1-Amino-1-deoxy-<span class=\"text-smallcaps\">D</span>-sorbitol;(2<em>R</em>,3<em>R</em>,4<em>R</em>,5<em>S</em>)-6-Aminohexane-1,2,3,4,5-pentol;1-Deoxy-1-amino-<span class=\"text-smallcaps\">D</span>-glucitol;(2R,3R,4R,5S)-6-Aminohexane-1,2,3,4,5-pentol",
    "duplicated_cas_no": "61303-74-0;184167-10-0",
    "SMILES": "[C@H]([C@@H]([C@@H](CO)O)O)([C@H](CN)O)O",
    "meta_data": {
        "InChI": "InChI=1S/C6H15NO5/c7-1-3(9)5(11)6(12)4(10)2-8/h3-6,8-12H,1-2,7H2/t3-,4+,5+,6+/m0/s1",
        "InChIKey": null,
        "Canonical SMILES": "OCC(O)C(O)C(O)C(O)CN",
        "Molecular Formula": "C<sub>6</sub>H<sub>15</sub>NO<sub>5</sub>",
        "Molecular Mass": "181.19",
        "Melting Point": "127 °C"
    }
}