{
    "cas_no": "109-29-5",
    "key_name": "Hexadecanolide",
    "cn_name": null,
    "alternate_name": "Oxacycloheptadecan-2-one;Hexadecanoic acid, 16-hydroxy-, <em>o</em>-lactone;Hexadecanoic acid, 16-hydroxy-, ο-lactone;Hexadecanolide;Dihydroambrettolide;1,16-Hexadecanolide;16-Hexadecanolactone;Juniperic acid lactone;Cyclohexadecanolide;Hexadecanolactone;NSC 33546;1-Oxacycloheptadecan-2-one;ω-Hexadecalactone",
    "duplicated_cas_no": "",
    "SMILES": "O=C1CCCCCCCCCCCCCCCO1",
    "meta_data": {
        "InChI": "InChI=1S/C16H30O2/c17-16-14-12-10-8-6-4-2-1-3-5-7-9-11-13-15-18-16/h1-15H2",
        "InChIKey": null,
        "Canonical SMILES": "O=C1OCCCCCCCCCCCCCCC1",
        "Molecular Formula": "C<sub>16</sub>H<sub>30</sub>O<sub>2</sub>",
        "Molecular Mass": "254.41",
        "Boiling Point": "127-129 °C @ Press: 2.5 Torr",
        "Melting Point": "33.5-33.8 °C",
        "Density": "0.9324 g/cm³"
    }
}