{
    "cas_no": "608-66-2",
    "key_name": "Galactitol",
    "cn_name": "半乳糖醇;甜醇;",
    "alternate_name": "Galactitol;Dulcite;Dulcitol;Dulcose;Euonymit;Melampyrin;Melampyrit;NSC 1944;MeSH ID: D004376",
    "duplicated_cas_no": "18089-21-9;40742-76-5;362631-40-1;904746-81-2;1315281-36-7;1644285-24-4;1810040-83-5;2075831-00-2",
    "SMILES": "[C@H]([C@H]([C@@H](CO)O)O)([C@H](CO)O)O",
    "meta_data": {
        "InChI": "InChI=1/C6H14O6/c7-1-3(9)5(11)6(12)4(10)2-8/h3-12H,1-2H2/t3-,4+,5+,6-",
        "InChIKey": null,
        "Canonical SMILES": "OCC(O)C(O)C(O)C(O)CO",
        "Molecular Formula": "C<sub>6</sub>H<sub>14</sub>O<sub>6</sub>",
        "Molecular Mass": "182.17",
        "Melting Point": "189.5 °C"
    }
}