{
    "cas_no": "3054-92-0",
    "key_name": "2,3,4-Trimethyl-3-pentanol",
    "cn_name": null,
    "alternate_name": "3-Pentanol, 2,3,4-trimethyl-;2,3,4-Trimethyl-3-pentanol;1,1-Diisopropylethanol;Diisopropylmethylcarbinol",
    "duplicated_cas_no": "",
    "SMILES": "C(C(C)C)(C(C)C)(C)O",
    "meta_data": {
        "InChI": "InChI=1S/C8H18O/c1-6(2)8(5,9)7(3)4/h6-7,9H,1-5H3",
        "InChIKey": null,
        "Canonical SMILES": "OC(C)(C(C)C)C(C)C",
        "Molecular Formula": "C<sub>8</sub>H<sub>18</sub>O",
        "Molecular Mass": "130.23",
        "Boiling Point": "156.5 °C",
        "Density": "0.8492 g/cm³ @ Temp: 20 °C"
    }
}