{
    "cas_no": "1812-30-2",
    "key_name": "Bromazepam",
    "cn_name": "溴西泮;7-溴-5-(2-吡啶基)-3H-1,4-苯并二氮杂卓-2(1H)-酮;",
    "alternate_name": "2<em>H</em>-1,4-Benzodiazepin-2-one, 7-bromo-1,3-dihydro-5-(2-pyridinyl)-;2<em>H</em>-1,4-Benzodiazepin-2-one, 7-bromo-1,3-dihydro-5-(2-pyridyl)-;7-Bromo-1,3-dihydro-5-(2-pyridinyl)-2<em>H</em>-1,4-benzodiazepin-2-one;7-Bromo-1,3-dihydro-5-(2-pyridyl)-2<em>H</em>-1,4-benzdiazepin-2-one;Bromazepam;Ro 5-3350;7-Bromo-1,3-dihydro-5-(2-pyridyl)-2<em>H</em>-1,4-benzodiazepin-2-one;Lexotanil;KL 001;Lexilium;Lexomil;Compendium;Lexotan;Creosedin;Normoc;Durazanil;NSC 140669;Calmepam;Lextonil;Neoopt;7-Bromo-(2-Pyridyl)-1<em>H</em>-1,4-benzodiazepine-2(3<em>H</em>)-one;MeSH ID: D001960",
    "duplicated_cas_no": "37355-30-9",
    "SMILES": "BrC=1C=C2C(=NCC(=O)NC2=CC1)C3=CC=CC=N3",
    "meta_data": {
        "InChI": "InChI=1S/C14H10BrN3O/c15-9-4-5-11-10(7-9)14(17-8-13(19)18-11)12-3-1-2-6-16-12/h1-7H,8H2,(H,18,19)",
        "InChIKey": null,
        "Canonical SMILES": "O=C1NC=2C=CC(Br)=CC2C(=NC1)C=3N=CC=CC3",
        "Molecular Formula": "C<sub>14</sub>H<sub>10</sub>BrN<sub>3</sub>O",
        "Molecular Mass": "316.15",
        "Melting Point": "237-238 °C"
    }
}