{
    "cas_no": "28466-21-9",
    "key_name": "1,3,5-Trimethyl-1<em>H</em>-pyrazol-4-amine",
    "cn_name": "4-氨基-1,3,5-三甲基吡唑;1,3,5-三甲基-吡唑-4-胺;4-氨基-1,3,5-三甲基吡唑,97%;",
    "alternate_name": "1<em>H</em>-Pyrazol-4-amine, 1,3,5-trimethyl-;Pyrazole, 4-amino-1,3,5-trimethyl-;1,3,5-Trimethyl-1<em>H</em>-pyrazol-4-amine;4-Amino-1,3,5-trimethylpyrazole;1,3,5-Trimethyl-4-pyrazolamine;(1,3,5-Trimethyl-1<em>H</em>-pyrazol-4-yl)amine;4-Amino-2,3,5-trimethyl-2<em>H</em>-pyrazole;4-Amino-1,3,5-trimethyl-1<em>H</em>-pyrazole",
    "duplicated_cas_no": "",
    "SMILES": "NC1=C(C)N(C)N=C1C",
    "meta_data": {
        "InChI": "InChI=1S/C6H11N3/c1-4-6(7)5(2)9(3)8-4/h7H2,1-3H3",
        "InChIKey": null,
        "Canonical SMILES": "N1=C(C(N)=C(N1C)C)C",
        "Molecular Formula": "C<sub>6</sub>H<sub>11</sub>N<sub>3</sub>",
        "Molecular Mass": "125.17",
        "Melting Point": "103-105 °C"
    }
}