{
    "cas_no": "6346-05-0",
    "key_name": "3-(Benzyloxy)-4-methoxybenzaldehyde",
    "cn_name": "3-苄氧基-4-甲氧基苯甲醛;",
    "alternate_name": "Benzaldehyde, 4-methoxy-3-(phenylmethoxy)-;Benzaldehyde, 3-(benzyloxy)-4-methoxy-;4-Methoxy-3-(phenylmethoxy)benzaldehyde;<em>O</em>-Benzylisovanillin;3-(Benzyloxy)-4-methoxybenzaldehyde;Benzylisovanillin;Isovanillin benzyl ether;NSC 196547;NSC 43750;4-Methoxy-3-benzyloxybenzaldehyde",
    "duplicated_cas_no": "",
    "SMILES": "O(CC1=CC=CC=C1)C2=C(OC)C=CC(C=O)=C2",
    "meta_data": {
        "InChI": "InChI=1S/C15H14O3/c1-17-14-8-7-13(10-16)9-15(14)18-11-12-5-3-2-4-6-12/h2-10H,11H2,1H3",
        "InChIKey": null,
        "Canonical SMILES": "O=CC1=CC=C(OC)C(OCC=2C=CC=CC2)=C1",
        "Molecular Formula": "C<sub>15</sub>H<sub>14</sub>O<sub>3</sub>",
        "Molecular Mass": "242.27",
        "Boiling Point": "140-150 °C",
        "Melting Point": "63 °C"
    }
}