{
    "cas_no": "557-48-2",
    "key_name": "(<em>E</em>,<em>Z</em>)-2,6-Nonadienal",
    "cn_name": "反,顺-2,6-壬二烯醛;反,顺-2,6-壬二烯醛;2T-6C-壬二烯醛;",
    "alternate_name": "2,6-Nonadienal, (2<em>E</em>,6<em>Z</em>)-;2,6-Nonadienal, (<em>E</em>,<em>Z</em>)-;2,6-Nonadienal, <em>trans</em>,<em>cis</em>-;(2<em>E</em>,6<em>Z</em>)-2,6-Nonadienal;<em>trans</em>-2,<em>cis</em>-6-Nonadienal;2-<em>trans</em>-6-<em>cis</em>-Nonadienal;<em>trans</em>,<em>cis</em>-2,6-Nonadienal;(<em>E</em>,<em>Z</em>)-2,6-Nonadienal;(E,Z)-2,6-Nonadienal;(2<em>E</em>,6<em>Z</em>)-Nonadienal;(2<em>E</em>,6<em>Z</em>)-Nona-2,6-dienal;(<em>E</em>,<em>Z</em>)-2,6-Nonadien-1-al;(2E,6Z)-2,6-Nonadienal",
    "duplicated_cas_no": "",
    "SMILES": "C(C/C=C/C=O)/C=C\\CC",
    "meta_data": {
        "InChI": "InChI=1S/C9H14O/c1-2-3-4-5-6-7-8-9-10/h3-4,7-9H,2,5-6H2,1H3/b4-3-,8-7+",
        "InChIKey": null,
        "Canonical SMILES": "O=CC=CCCC=CCC",
        "Molecular Formula": "C<sub>9</sub>H<sub>14</sub>O",
        "Molecular Mass": "138.21",
        "Boiling Point": "88 °C @ Press: 10 Torr"
    }
}