{
    "cas_no": "704-13-2",
    "key_name": "3-Hydroxy-4-nitrobenzaldehyde",
    "cn_name": "3-羟基-4-硝基苯甲醛;",
    "alternate_name": "Benzaldehyde, 3-hydroxy-4-nitro-;3-Hydroxy-4-nitrobenzaldehyde;3-Formyl-6-nitrophenol;5-Formyl-2-nitrophenol;3-Hydroxy-4-nitrobenzoaldehyde",
    "duplicated_cas_no": "",
    "SMILES": "N(=O)(=O)C1=C(O)C=C(C=O)C=C1",
    "meta_data": {
        "InChI": "InChI=1S/C7H5NO4/c9-4-5-1-2-6(8(11)12)7(10)3-5/h1-4,10H",
        "InChIKey": null,
        "Canonical SMILES": "O=CC1=CC=C(C(O)=C1)N(=O)=O",
        "Molecular Formula": "C<sub>7</sub>H<sub>5</sub>NO<sub>4</sub>",
        "Molecular Mass": "167.12",
        "Melting Point": "128-129 °C"
    }
}