{
    "cas_no": "1303-33-9",
    "key_name": "Arsenic sulfide",
    "cn_name": "硫化砷(III);",
    "alternate_name": "Arsenic sulfide (As<sub>2</sub>S<sub>3</sub>);C.I. 77086;Arsenic yellow;C.I. Pigment Yellow 39;Arsenic sesquisulfide;Auripigment;Arsenous sulfide;Diarsenic trisulfide;Arsenious sulfide;Arsenic trisulfide;Arsenic sesquisulfide (As<sub>2</sub>S<sub>3</sub>);Arsenic trisulfide (As<sub>2</sub>S<sub>3</sub>);Arsenic(III) sulfide;Arsenic sulfide (AsS<sub>1.5</sub>);Pigment Yellow 39;Shio;Auripigmentum;Arsenic sulfide;Arsenic sulfide (As<sub>0.4</sub>S<sub>0.6</sub>);Sekio",
    "duplicated_cas_no": "12393-61-2;188947-55-9;217972-77-5;352030-72-9;1315336-31-2",
    "SMILES": "",
    "meta_data": {
        "InChI": "",
        "InChIKey": null,
        "Canonical SMILES": "",
        "Molecular Formula": "As<sub>2</sub>S<sub>3</sub>",
        "Molecular Mass": "",
        "Boiling Point": "707 °C",
        "Melting Point": "310 °C",
        "Density": "3.46 g/cm³"
    }
}