{
    "uri": "substance/pt/1303339",
    "rn": "1303-33-9",
    "name": "Arsenic sulfide",
    "images": [],
    "inchi": "",
    "inchiKey": "",
    "smile": "",
    "canonicalSmile": "",
    "molecularFormula": "As<sub>2</sub>S<sub>3</sub>",
    "molecularMass": "",
    "experimentalProperties": [
        {
            "name": "Boiling Point",
            "property": "707 °C",
            "sourceNumber": 1
        },
        {
            "name": "Melting Point",
            "property": "310 °C",
            "sourceNumber": 1
        },
        {
            "name": "Density",
            "property": "3.46 g/cm³",
            "sourceNumber": 1
        }
    ],
    "propertyCitations": [
        {
            "docUri": "",
            "sourceNumber": 1,
            "source": "Hazardous Substances Data Bank data were obtained from the National Library of Medicine (US)"
        }
    ],
    "synonyms": [
        "Arsenic sulfide (As<sub>2</sub>S<sub>3</sub>)",
        "C.I. 77086",
        "Arsenic yellow",
        "C.I. Pigment Yellow 39",
        "Arsenic sesquisulfide",
        "Auripigment",
        "Arsenous sulfide",
        "Diarsenic trisulfide",
        "Arsenious sulfide",
        "Arsenic trisulfide",
        "Arsenic sesquisulfide (As<sub>2</sub>S<sub>3</sub>)",
        "Arsenic trisulfide (As<sub>2</sub>S<sub>3</sub>)",
        "Arsenic(III) sulfide",
        "Arsenic sulfide (AsS<sub>1.5</sub>)",
        "Pigment Yellow 39",
        "Shio",
        "Auripigmentum",
        "Arsenic sulfide",
        "Arsenic sulfide (As<sub>0.4</sub>S<sub>0.6</sub>)",
        "Sekio"
    ],
    "replacedRns": [
        "12393-61-2",
        "188947-55-9",
        "217972-77-5",
        "352030-72-9",
        "1315336-31-2"
    ],
    "hasMolfile": false,
    "source": "https://commonchemistry.cas.org/detail?cas_rn=1303-33-9"
}