{
    "cas_no": "67600-94-6",
    "key_name": "8-(β-<span class=\"text-smallcaps\">D</span>-Glucopyranosyloxy)-3,4-dihydro-3-(4-hydroxyphenyl)-1<em>H</em>-2-benzopyran-1-one",
    "cn_name": null,
    "alternate_name": "1<em>H</em>-2-Benzopyran-1-one, 8-(β-<span class=\"text-smallcaps\">D</span>-glucopyranosyloxy)-3,4-dihydro-3-(4-hydroxyphenyl)-;8-(β-<span class=\"text-smallcaps\">D</span>-Glucopyranosyloxy)-3,4-dihydro-3-(4-hydroxyphenyl)-1<em>H</em>-2-benzopyran-1-one;Hydrangenol 8-<em>O</em>-β-<span class=\"text-smallcaps\">D</span>-glucopyranoside",
    "duplicated_cas_no": "",
    "SMILES": "O(C1=C2C(CC(OC2=O)C3=CC=C(O)C=C3)=CC=C1)[C@@H]4O[C@H](CO)[C@@H](O)[C@H](O)[C@H]4O",
    "meta_data": {
        "InChI": "InChI=1S/C21H22O9/c22-9-15-17(24)18(25)19(26)21(30-15)29-13-3-1-2-11-8-14(28-20(27)16(11)13)10-4-6-12(23)7-5-10/h1-7,14-15,17-19,21-26H,8-9H2/t14?,15-,17-,18+,19-,21-/m1/s1",
        "InChIKey": null,
        "Canonical SMILES": "O=C1OC(C2=CC=C(O)C=C2)CC=3C=CC=C(OC4OC(CO)C(O)C(O)C4O)C13",
        "Molecular Formula": "C<sub>21</sub>H<sub>22</sub>O<sub>9</sub>",
        "Molecular Mass": "418.39",
        "Melting Point": "190-194 °C"
    }
}