{
    "cas_no": "1500-85-2",
    "key_name": "7-Deazaadenine",
    "cn_name": "4-氨基-7H-吡咯[2,3-d]嘧啶;",
    "alternate_name": "7<em>H</em>-Pyrrolo[2,3-<em>d</em>]pyrimidin-4-amine;7<em>H</em>-Pyrrolo[2,3-<em>d</em>]pyrimidine, 4-amino-;1<em>H</em>-Pyrrolo[2,3-<em>d</em>]pyrimidin-4-amine;1<em>H</em>-Pyrrolo[2,3-<em>d</em>]pyrimidine, 4-amino-;7-Deazaadenine;4-Aminopyrrolo[2,3-<em>d</em>]pyrimidine",
    "duplicated_cas_no": "",
    "SMILES": "NC1=C2C(=NC=N1)NC=C2",
    "meta_data": {
        "InChI": "InChI=1S/C6H6N4/c7-5-4-1-2-8-6(4)10-3-9-5/h1-3H,(H3,7,8,9,10)",
        "InChIKey": null,
        "Canonical SMILES": "N=1C=NC=2NC=CC2C1N",
        "Molecular Formula": "C<sub>6</sub>H<sub>6</sub>N<sub>4</sub>",
        "Molecular Mass": "134.14",
        "Melting Point": "254-255 °C"
    }
}