{
    "cas_no": "10026-11-6",
    "key_name": "Zirconium chloride (ZrCl<sub>4</sub>)",
    "cn_name": "氯化锆;四氯化锆;",
    "alternate_name": "Zirconium chloride (ZrCl<sub>4</sub>), (<em>T</em>-4)-;Zirconium chloride (ZrCl<sub>4</sub>);Zirconium tetrachloride;Zirconium chloride;Tetrachlorozirconium;Zirconium chloride (Zr<sub>2</sub>Cl<sub>8</sub>);Zirconium(IV) chloride;Orgatix ZB 126",
    "duplicated_cas_no": "12331-30-5",
    "SMILES": "[Zr](Cl)(Cl)(Cl)Cl",
    "meta_data": {
        "InChI": "InChI=1S/4ClH.Zr/h4*1H;/q;;;;+4/p-4",
        "InChIKey": null,
        "Canonical SMILES": "Cl[Zr](Cl)(Cl)Cl",
        "Molecular Formula": "Cl<sub>4</sub>Zr",
        "Molecular Mass": "",
        "Boiling Point": "331 °C",
        "Melting Point": "436 °C",
        "Density": "2.803 g/cm³ @ Temp: 15 °C"
    }
}