{
    "cas_no": "5845-67-0",
    "key_name": "Cyclo(glycyl-<span class=\"text-smallcaps\">L</span>-leucyl)",
    "cn_name": null,
    "alternate_name": "2,5-Piperazinedione, 3-(2-methylpropyl)-, (3<em>S</em>)-;2,5-Piperazinedione, 3-isobutyl-, <span class=\"text-smallcaps\">L</span>-;2,5-Piperazinedione, 3-(2-methylpropyl)-, (<em>S</em>)-;Cyclo(glycyl-<span class=\"text-smallcaps\">L</span>-leucyl);(3<em>S</em>)-3-(2-Methylpropyl)-2,5-piperazinedione;<span class=\"text-smallcaps\">L</span>-Leucylglycine diketopiperazine;Cyclo(<span class=\"text-smallcaps\">L</span>-leucylglycyl);Cyclo-(Gly-Leu);Cyclo(<span class=\"text-smallcaps\">L</span>-leucylglycine);(<em>S</em>)-3-Isobutylpiperazine-2,5-dione;(3S)-3-(2-Methylpropyl)piperazine-2,5-dione;(<em>s</em>)-3-Isobutylpiperazine-2,5-dione",
    "duplicated_cas_no": "",
    "SMILES": "C(C(C)C)[C@H]1C(=O)NCC(=O)N1",
    "meta_data": {
        "InChI": "InChI=1S/C8H14N2O2/c1-5(2)3-6-8(12)9-4-7(11)10-6/h5-6H,3-4H2,1-2H3,(H,9,12)(H,10,11)/t6-/m0/s1",
        "InChIKey": null,
        "Canonical SMILES": "O=C1NC(C(=O)NC1)CC(C)C",
        "Molecular Formula": "C<sub>8</sub>H<sub>14</sub>N<sub>2</sub>O<sub>2</sub>",
        "Molecular Mass": "170.21",
        "Melting Point": "290 °C"
    }
}