{
    "cas_no": "1190-49-4",
    "key_name": "Homocitrulline",
    "cn_name": "高瓜氨酸;高瓜氨酸;",
    "alternate_name": "<span class=\"text-smallcaps\">L</span>-Lysine, <em>N</em><sup>6</sup>-(aminocarbonyl)-;Lysine, <em>N</em><sup>6</sup>-carbamoyl-, <span class=\"text-smallcaps\">L</span>-;Lysine, <em>N</em><sup>6</sup>-carbamoyl-;<em>N</em><sup>6</sup>-(Aminocarbonyl)-<span class=\"text-smallcaps\">L</span>-lysine;Homocitrulline;<span class=\"text-smallcaps\">L</span>-Homocitrulline;<em>N</em>-ε-Carbamyl-<span class=\"text-smallcaps\">L</span>-lysine;Homo-<span class=\"text-smallcaps\">L</span>-citrulline;NSC 27428;(<em>S</em>)-2-Amino-6-ureidohexanoic acid",
    "duplicated_cas_no": "16414-75-8",
    "SMILES": "C([C@@H](C(O)=O)N)CCCNC(N)=O",
    "meta_data": {
        "InChI": "InChI=1S/C7H15N3O3/c8-5(6(11)12)3-1-2-4-10-7(9)13/h5H,1-4,8H2,(H,11,12)(H3,9,10,13)/t5-/m0/s1",
        "InChIKey": null,
        "Canonical SMILES": "O=C(N)NCCCCC(N)C(=O)O",
        "Molecular Formula": "C<sub>7</sub>H<sub>15</sub>N<sub>3</sub>O<sub>3</sub>",
        "Molecular Mass": "189.21",
        "Melting Point": "211-212 °C (decomp)"
    }
}