{
    "cas_no": "20835-91-0",
    "key_name": "Stigmastane-3β,5α,6β-triol",
    "cn_name": null,
    "alternate_name": "Stigmastane-3,5,6-triol, (3β,5α,6β)-;5α-Stigmastane-3β,5,6β-triol;(3β,5α,6β)-Stigmastane-3,5,6-triol;Stigmastane-3β,5α,6β-triol;24α-Ethylcholestane-3β,5α,6β-triol;(24R)-Stigmastane-3β,5α,6β-triol;(24<em>R</em>)-Ethylcholestan-3β,5α,6β-triol;Sitostanetriol;(24<em>R</em>)-24-Ethyl-5α-cholestane-3β,5,6β-triol;Sitostane-3β,5α,6β-triol",
    "duplicated_cas_no": "191410-75-0",
    "SMILES": "C[C@@]12[C@@]3([C@]([C@]4([C@](C)(CC3)[C@@]([C@@H](CC[C@H](C(C)C)CC)C)(CC4)[H])[H])(C[C@@H](O)[C@@]1(O)C[C@@H](O)CC2)[H])[H]",
    "meta_data": {
        "InChI": "InChI=1S/C29H52O3/c1-7-20(18(2)3)9-8-19(4)23-10-11-24-22-16-26(31)29(32)17-21(30)12-15-28(29,6)25(22)13-14-27(23,24)5/h18-26,30-32H,7-17H2,1-6H3/t19-,20-,21+,22+,23-,24+,25+,26-,27-,28-,29+/m1/s1",
        "InChIKey": null,
        "Canonical SMILES": "OC1CCC2(C)C3CCC4(C)C(CCC4C3CC(O)C2(O)C1)C(C)CCC(CC)C(C)C",
        "Molecular Formula": "C<sub>29</sub>H<sub>52</sub>O<sub>3</sub>",
        "Molecular Mass": "448.72",
        "Melting Point": "224-226.5 °C"
    }
}