{
    "cas_no": "766-85-8",
    "key_name": "3-Iodoanisole",
    "cn_name": "3-碘苯甲醚;间碘苯甲醚;",
    "alternate_name": "Benzene, 1-iodo-3-methoxy-;Anisole, <em>m</em>-iodo-;1-Iodo-3-methoxybenzene;<em>m</em>-Methoxyiodobenzene;3-Iodoanisole;<em>m</em>-Iodoanisole;3-Methoxyphenyl iodide;3-Iodophenyl methyl ether;3-Methoxyiodobenzene;NSC 60726;3-Methoxy-1-iodobenzene;<em>m</em>-Methoxyphenyl iodide",
    "duplicated_cas_no": "",
    "SMILES": "O(C)C1=CC(I)=CC=C1",
    "meta_data": {
        "InChI": "InChI=1S/C7H7IO/c1-9-7-4-2-3-6(8)5-7/h2-5H,1H3",
        "InChIKey": null,
        "Canonical SMILES": "IC1=CC=CC(OC)=C1",
        "Molecular Formula": "C<sub>7</sub>H<sub>7</sub>IO",
        "Molecular Mass": "234.03",
        "Boiling Point": "130-135 °C",
        "Melting Point": "94 °C"
    }
}