{
    "cas_no": "492-80-8",
    "key_name": "Solvent Yellow 34",
    "cn_name": "金胺;",
    "alternate_name": "Benzenamine, 4,4′-carbonimidoylbis[<em>N</em>,<em>N</em>-dimethyl-;C.I. Solvent Yellow 34;4,4′-Carbonimidoylbis[<em>N</em>,<em>N</em>-dimethylbenzenamine];C.I. 41000B;Auramine N Base;Auramine O Base;Auramine SS;Brilliant Oil Yellow;4,4′-Dimethylaminobenzophenonimide;Waxoline Yellow O;Auramine base;Auramine OAF;Baso Yellow 124;Orient Oil Yellow 101;4,4′-(Imidocarbonyl)bis(<em>N</em>,<em>N</em>-dimethylaniline);Solvent Yellow 34;Auramine S",
    "duplicated_cas_no": "105913-60-8",
    "SMILES": "C(=N)(C1=CC=C(N(C)C)C=C1)C2=CC=C(N(C)C)C=C2",
    "meta_data": {
        "InChI": "InChI=1S/C17H21N3/c1-19(2)15-9-5-13(6-10-15)17(18)14-7-11-16(12-8-14)20(3)4/h5-12,18H,1-4H3",
        "InChIKey": null,
        "Canonical SMILES": "N=C(C1=CC=C(C=C1)N(C)C)C2=CC=C(C=C2)N(C)C",
        "Molecular Formula": "C<sub>17</sub>H<sub>21</sub>N<sub>3</sub>",
        "Molecular Mass": "267.37",
        "Boiling Point": "330.5 °C",
        "Melting Point": "136 °C"
    }
}