{
    "cas_no": "7292-73-1",
    "key_name": "4-Fluorophenylglycine",
    "cn_name": "DL-4-氟苯甘氨酸;",
    "alternate_name": "Benzeneacetic acid, α-amino-4-fluoro-;Glycine, 2-(<em>p</em>-fluorophenyl)-, <span class=\"text-smallcaps\">DL</span>-;Benzeneacetic acid, α-amino-4-fluoro-, (±)-;α-Amino-4-fluorobenzeneacetic acid;<span class=\"text-smallcaps\">DL</span>-2-(<em>p</em>-Fluorophenyl)glycine;<span class=\"text-smallcaps\">DL</span>-α-Amino-<em>p</em>-fluorophenylacetic acid;Glycine, 2-(<em>p</em>-fluorophenyl)-;4-Fluorophenylglycine;NSC 101466;2-Amino-2-(4-fluorophenyl)acetic acid;<span class=\"text-smallcaps\">DL</span>-4-Fluorophenylglycine;α-Amino-4-fluorophenylacetic acid;2-Azaniumyl-2-(4-fluorophenyl)acetate;2-(4-Fluorophenyl)glycine",
    "duplicated_cas_no": "2343-28-4",
    "SMILES": "C(C(O)=O)(N)C1=CC=C(F)C=C1",
    "meta_data": {
        "InChI": "InChI=1S/C8H8FNO2/c9-6-3-1-5(2-4-6)7(10)8(11)12/h1-4,7H,10H2,(H,11,12)",
        "InChIKey": null,
        "Canonical SMILES": "O=C(O)C(N)C1=CC=C(F)C=C1",
        "Molecular Formula": "C<sub>8</sub>H<sub>8</sub>FNO<sub>2</sub>",
        "Molecular Mass": "169.15",
        "Melting Point": "270-271 °C"
    }
}