{
    "cas_no": "2156-27-6",
    "key_name": "Benproperine",
    "cn_name": "苯丙哌林;咳快好;磷酸苯哌丙烷;",
    "alternate_name": "Piperidine, 1-[1-methyl-2-[2-(phenylmethyl)phenoxy]ethyl]-;Piperidine, 1-[1-methyl-2-[(α-phenyl-<em>o</em>-tolyl)oxy]ethyl]-;1-[1-Methyl-2-[2-(phenylmethyl)phenoxy]ethyl]piperidine;1-[2-(2-Benzylphenoxy)-1-methylethyl]piperidine;Benproperine",
    "duplicated_cas_no": "138663-99-7",
    "SMILES": "C(C1=C(OCC(C)N2CCCCC2)C=CC=C1)C3=CC=CC=C3",
    "meta_data": {
        "InChI": "InChI=1S/C21H27NO/c1-18(22-14-8-3-9-15-22)17-23-21-13-7-6-12-20(21)16-19-10-4-2-5-11-19/h2,4-7,10-13,18H,3,8-9,14-17H2,1H3",
        "InChIKey": null,
        "Canonical SMILES": "O(C=1C=CC=CC1CC=2C=CC=CC2)CC(N3CCCCC3)C",
        "Molecular Formula": "C<sub>21</sub>H<sub>27</sub>NO",
        "Molecular Mass": "309.45",
        "Boiling Point": "159-161 °C @ Press: 0.2 Torr"
    }
}