{
    "cas_no": "623-65-4",
    "key_name": "Palmitic anhydride",
    "cn_name": "棕榈酸酐;十六酸酐;",
    "alternate_name": "Hexadecanoic acid, 1,1′-anhydride;Palmitic anhydride;Hexadecanoic acid, anhydride;Hexadecanoic anhydride;Palmitic acid anhydride;Palmitoyl anhydride;NSC 285112",
    "duplicated_cas_no": "",
    "SMILES": "C(OC(CCCCCCCCCCCCCCC)=O)(CCCCCCCCCCCCCCC)=O",
    "meta_data": {
        "InChI": "InChI=1S/C32H62O3/c1-3-5-7-9-11-13-15-17-19-21-23-25-27-29-31(33)35-32(34)30-28-26-24-22-20-18-16-14-12-10-8-6-4-2/h3-30H2,1-2H3",
        "InChIKey": null,
        "Canonical SMILES": "O=C(OC(=O)CCCCCCCCCCCCCCC)CCCCCCCCCCCCCCC",
        "Molecular Formula": "C<sub>32</sub>H<sub>62</sub>O<sub>3</sub>",
        "Molecular Mass": "494.83",
        "Melting Point": "64 °C",
        "Density": "0.8383 g/cm³ @ Temp: 83 °C"
    }
}