{
    "cas_no": "357-57-3",
    "key_name": "Brucine",
    "cn_name": null,
    "alternate_name": "Strychnidin-10-one, 2,3-dimethoxy-;Brucine;4,6-Methano-6<em>H</em>,14<em>H</em>-indolo[3,2,1-<em>ij</em>]oxepino[2,3,4-<em>de</em>]pyrrolo[2,3-<em>h</em>]quinoline, strychnidin-10-one deriv.;2,3-Dimethoxystrychnidin-10-one;2,3-Dimethoxystrychnine;(-)-Brucine;<em>l</em>-Brucine",
    "duplicated_cas_no": "54193-32-7;70206-61-0;101324-32-7;193198-03-7;462651-43-0;1087723-67-8;1195340-33-0;1195623-19-8",
    "SMILES": "O=C1N2[C@@]3([C@]4(C=5C2=CC(OC)=C(OC)C5)[C@]6([N@@](CC4)CC=7[C@@]([C@]3([C@](C1)(OCC7)[H])[H])(C6)[H])[H])[H]",
    "meta_data": {
        "InChI": "InChI=1S/C23H26N2O4/c1-27-16-8-14-15(9-17(16)28-2)25-20(26)10-18-21-13-7-19-23(14,22(21)25)4-5-24(19)11-12(13)3-6-29-18/h3,8-9,13,18-19,21-22H,4-7,10-11H2,1-2H3/t13-,18-,19-,21-,22-,23+/m0/s1",
        "InChIKey": null,
        "Canonical SMILES": "O=C1N2C3=CC(OC)=C(OC)C=C3C45CCN6CC7=CCOC(C1)C(C7CC64)C25",
        "Molecular Formula": "C<sub>23</sub>H<sub>26</sub>N<sub>2</sub>O<sub>4</sub>",
        "Molecular Mass": "394.46",
        "Boiling Point": "470 °C",
        "Melting Point": "178 °C"
    }
}