{
    "cas_no": "101200-48-0",
    "key_name": "Tribenuron-methyl",
    "cn_name": "苯磺隆;2-[N-(4-甲氧基-6-甲基-1,3,5-三嗪-2-基)-N-甲基氨基甲酰胺基磺酰基]苯甲酸甲酯;",
    "alternate_name": "Benzoic acid, 2-[[[[(4-methoxy-6-methyl-1,3,5-triazin-2-yl)methylamino]carbonyl]amino]sulfonyl]-, methyl ester;DPX-L 5300;L 5300;Express 75DF;Express;Sulfmethmeton-methyl;Tribenuron methyl ester;Cameo;Cameo (pesticide);Tribenuron-methyl;Express 50T;HCHA 92HE;Express (pesticide);Granstar;Pointer;YiLi;Agrostar;Granstar 75DF;Quantum (plant growth regulator);Quantum;Granstar Pro;Granstar 75WG;Helm-Tribi 75WG;Korida 75 VDG;Pointer 723WG;Tribun;DuPont Express with TotalSol;Express SG;Metometuron",
    "duplicated_cas_no": "929881-41-4",
    "SMILES": "S(NC(N(C)C=1N=C(OC)N=C(C)N1)=O)(=O)(=O)C2=C(C(OC)=O)C=CC=C2",
    "meta_data": {
        "InChI": "InChI=1S/C15H17N5O6S/c1-9-16-13(18-14(17-9)26-4)20(2)15(22)19-27(23,24)11-8-6-5-7-10(11)12(21)25-3/h5-8H,1-4H3,(H,19,22)",
        "InChIKey": null,
        "Canonical SMILES": "O=C(OC)C=1C=CC=CC1S(=O)(=O)NC(=O)N(C2=NC(=NC(=N2)C)OC)C",
        "Molecular Formula": "C<sub>15</sub>H<sub>17</sub>N<sub>5</sub>O<sub>6</sub>S",
        "Molecular Mass": "395.39",
        "Melting Point": "141 °C",
        "Density": "1.5 g/cm³"
    }
}