{
    "cas_no": "112-71-0",
    "key_name": "1-Bromotetradecane",
    "cn_name": "溴代十四烷;",
    "alternate_name": "Tetradecane, 1-bromo-;1-Bromotetradecane;<em>n</em>-Tetradecyl-1-bromide;Tetradecyl bromide;Myristyl bromide;1-Tetradecyl bromide;<em>n</em>-Tetradecyl bromide;NSC 83468",
    "duplicated_cas_no": "1465759-07-2",
    "SMILES": "C(CCCCCCBr)CCCCCCC",
    "meta_data": {
        "InChI": "InChI=1S/C14H29Br/c1-2-3-4-5-6-7-8-9-10-11-12-13-14-15/h2-14H2,1H3",
        "InChIKey": null,
        "Canonical SMILES": "BrCCCCCCCCCCCCCC",
        "Molecular Formula": "C<sub>14</sub>H<sub>29</sub>Br",
        "Molecular Mass": "277.28",
        "Boiling Point": "307 °C",
        "Melting Point": "5.6 °C",
        "Density": "1.017 g/cm³ @ Temp: 20 °C"
    }
}