{
    "cas_no": "10177-31-8",
    "key_name": "4-Methoxy-3-pyridinecarboxylic acid",
    "cn_name": null,
    "alternate_name": "3-Pyridinecarboxylic acid, 4-methoxy-;Nicotinic acid, 4-methoxy-;4-Methoxy-3-pyridinecarboxylic acid;4-Methoxynicotinic acid;4-Methoxypyridine-3-carboxylic acid",
    "duplicated_cas_no": "",
    "SMILES": "O(C)C=1C(C(O)=O)=CN=CC1",
    "meta_data": {
        "InChI": "InChI=1S/C7H7NO3/c1-11-6-2-3-8-4-5(6)7(9)10/h2-4H,1H3,(H,9,10)",
        "InChIKey": null,
        "Canonical SMILES": "O=C(O)C=1C=NC=CC1OC",
        "Molecular Formula": "C<sub>7</sub>H<sub>7</sub>NO<sub>3</sub>",
        "Molecular Mass": "153.14",
        "Melting Point": "178-179 °C"
    }
}