{
    "cas_no": "4176-55-0",
    "key_name": "1,3,2-Dioxathiane, 2-oxide",
    "cn_name": "亚硫酸丙烯酯;",
    "alternate_name": "1,3,2-Dioxathiane, 2-oxide;1,3-Propanediol, cyclic sulfite;Trimethylene sulfite;1,3-Propylene sulfite;2-Oxo-1,3,2-dioxathiane;NSC 78687;1,3,2λ4-Dioxathian-2-one",
    "duplicated_cas_no": "",
    "SMILES": "O=S1OCCCO1",
    "meta_data": {
        "InChI": "InChI=1S/C3H6O3S/c4-7-5-2-1-3-6-7/h1-3H2",
        "InChIKey": null,
        "Canonical SMILES": "O=S1OCCCO1",
        "Molecular Formula": "C<sub>3</sub>H<sub>6</sub>O<sub>3</sub>S",
        "Molecular Mass": "122.14",
        "Boiling Point": "88 °C @ Press: 39 Torr",
        "Melting Point": "-14 °C",
        "Density": "1.3225 g/cm³ @ Temp: 20 °C"
    }
}