{
    "cas_no": "924663-38-7",
    "key_name": "Rabeprazole <em>N</em>-oxide",
    "cn_name": null,
    "alternate_name": "1<em>H</em>-Benzimidazole, 2-[[[4-(3-methoxypropoxy)-3-methyl-1-oxido-2-pyridinyl]methyl]sulfinyl]-;2-[[[4-(3-Methoxypropoxy)-3-methyl-1-oxido-2-pyridinyl]methyl]sulfinyl]-1<em>H</em>-benzimidazole;2-(((4-(3-Methoxypropoxy)-3-methyl-1-oxopyridin-2-yl)methyl)sulfinyl)-1<em>H</em>-benzimidazole;Rabeprazole <em>N</em>-oxide;2-(((4-(3-Methoxypropoxy)-3-methyl-2-pyridinyl-1-oxide)methyl)sulphinyl)-1<em>H</em>-benzimidazoleRabeprazole <em>N</em>-oxide;2-[[4-(3-Methoxypropoxy)-3-methyl-1-oxidopyridin-1-ium-2-yl]methylsulfinyl]-1<em>H</em>-benzimidazole",
    "duplicated_cas_no": "",
    "SMILES": "S(CC1=C(C)C(OCCCOC)=CC=N1=O)(=O)C=2NC=3C(N2)=CC=CC3",
    "meta_data": {
        "InChI": "InChI=1S/C18H21N3O4S/c1-13-16(21(22)9-8-17(13)25-11-5-10-24-2)12-26(23)18-19-14-6-3-4-7-15(14)20-18/h3-4,6-9H,5,10-12H2,1-2H3,(H,19,20)",
        "InChIKey": null,
        "Canonical SMILES": "O=N1=CC=C(OCCCOC)C(=C1CS(=O)C2=NC=3C=CC=CC3N2)C",
        "Molecular Formula": "C<sub>18</sub>H<sub>21</sub>N<sub>3</sub>O<sub>4</sub>S",
        "Molecular Mass": "375.44",
        "Melting Point": "161-163 °C (decomp)"
    }
}