{
    "cas_no": "53292-89-0",
    "key_name": "<em>trans</em>-4-[(<em>tert</em>-Butoxycarbonyl)amino]cyclohexanecarboxylic acid",
    "cn_name": null,
    "alternate_name": "Cyclohexanecarboxylic acid, 4-[[(1,1-dimethylethoxy)carbonyl]amino]-, <em>trans</em>-;<em>trans</em>-4-[[(1,1-Dimethylethoxy)carbonyl]amino]cyclohexanecarboxylic acid;<em>trans</em>-4-[[[(1,1-Dimethylethyl)oxy]carbonyl]amino]cyclohexanecarboxylic acid;<em>trans</em>-4-(<em>tert</em>-Butoxycarbonylamino)cyclohexane-1-carboxylic acid;<em>trans</em>-4-[(<em>tert</em>-Butoxycarbonyl)amino]cyclohexanecarboxylic acid;<em>trans</em>-4-[(<em>tert</em>-Butyloxycarbonyl)amino]cyclohexanecarboxylic acid;<em>trans</em>-4-[(<em>tert</em>-Butoxycarbonyl)amino]cyclohexane-1-carboxylic acid",
    "duplicated_cas_no": "",
    "SMILES": "C(O)(=O)[C@H]1CC[C@H](NC(OC(C)(C)C)=O)CC1",
    "meta_data": {
        "InChI": "InChI=1/C12H21NO4/c1-12(2,3)17-11(16)13-9-6-4-8(5-7-9)10(14)15/h8-9H,4-7H2,1-3H3,(H,13,16)(H,14,15)/t8-,9-",
        "InChIKey": null,
        "Canonical SMILES": "O=C(OC(C)(C)C)NC1CCC(C(=O)O)CC1",
        "Molecular Formula": "C<sub>12</sub>H<sub>21</sub>NO<sub>4</sub>",
        "Molecular Mass": "243.30",
        "Melting Point": "181-182 °C"
    }
}