{
    "cas_no": "827-52-1",
    "key_name": "Cyclohexylbenzene",
    "cn_name": "环己基苯;苯基环己烷;",
    "alternate_name": "Benzene, cyclohexyl-;Cyclohexylbenzene;Cyclohexane, phenyl-;1,1′-Biphenyl, 1,2,3,4,5,6-hexahydro-;Phenylcyclohexane;4-Cyclohexylbenzene;NSC 40473;NSC 69101",
    "duplicated_cas_no": "",
    "SMILES": "C1(CCCCC1)C2=CC=CC=C2",
    "meta_data": {
        "InChI": "InChI=1S/C12H16/c1-3-7-11(8-4-1)12-9-5-2-6-10-12/h1,3-4,7-8,12H,2,5-6,9-10H2",
        "InChIKey": null,
        "Canonical SMILES": "C=1C=CC(=CC1)C2CCCCC2",
        "Molecular Formula": "C<sub>12</sub>H<sub>16</sub>",
        "Molecular Mass": "160.26",
        "Boiling Point": "240.1 °C",
        "Melting Point": "7.3 °C",
        "Density": "0.982 g/cm³ @ Temp: 14 °C"
    }
}