{
    "cas_no": "5230-78-4",
    "key_name": "1,2,4,5-Tetrafluoro-3-methylbenzene",
    "cn_name": "2,3,5,6-四氟甲苯;",
    "alternate_name": "Benzene, 1,2,4,5-tetrafluoro-3-methyl-;Toluene, 2,3,5,6-tetrafluoro-;1,2,4,5-Tetrafluoro-3-methylbenzene;2,3,5,6-Tetrafluorotoluene;NSC 97004",
    "duplicated_cas_no": "",
    "SMILES": "FC1=C(C)C(F)=C(F)C=C1F",
    "meta_data": {
        "InChI": "InChI=1S/C7H4F4/c1-3-6(10)4(8)2-5(9)7(3)11/h2H,1H3",
        "InChIKey": null,
        "Canonical SMILES": "FC=1C=C(F)C(F)=C(C1F)C",
        "Molecular Formula": "C<sub>7</sub>H<sub>4</sub>F<sub>4</sub>",
        "Molecular Mass": "164.10",
        "Boiling Point": "125.5 °C"
    }
}