{
    "cas_no": "15438-70-7",
    "key_name": "<em>N</em>,<em>N</em>′-Bis(2-hydroxyethyl)urea",
    "cn_name": null,
    "alternate_name": "Urea, <em>N</em>,<em>N</em>′-bis(2-hydroxyethyl)-;Urea, 1,3-bis(2-hydroxyethyl)-;<em>N</em>,<em>N</em>′-Bis(2-hydroxyethyl)urea;1,3-Di(β-hydroxyethyl)urea;1,3-Bis(2-hydroxyethyl)urea;Diethanolurea;Diethylolurea;NSC 75436;<em>N</em>,<em>N</em>′-Di(2-hydroxyethyl)urea",
    "duplicated_cas_no": "",
    "SMILES": "C(NCCO)(NCCO)=O",
    "meta_data": {
        "InChI": "InChI=1S/C5H12N2O3/c8-3-1-6-5(10)7-2-4-9/h8-9H,1-4H2,(H2,6,7,10)",
        "InChIKey": null,
        "Canonical SMILES": "O=C(NCCO)NCCO",
        "Molecular Formula": "C<sub>5</sub>H<sub>12</sub>N<sub>2</sub>O<sub>3</sub>",
        "Molecular Mass": "148.16",
        "Melting Point": "83 °C"
    }
}