{
    "cas_no": "1031-47-6",
    "key_name": "Triamiphos",
    "cn_name": "威菌磷;威菌磷;三唑磷胺;",
    "alternate_name": "Phosphonic diamide, <em>P</em>-(5-amino-3-phenyl-1<em>H</em>-1,2,4-triazol-1-yl)-<em>N</em>,<em>N</em>,<em>N</em>′,<em>N</em>′-tetramethyl-;<em>P</em>-(5-Amino-3-phenyl-1<em>H</em>-1,2,4-triazol-1-yl)-<em>N</em>,<em>N</em>,<em>N</em>′,<em>N</em>′-tetramethylphosphonic diamide;WP 155;5-Amino-1-bis(dimethylamido)phosphoryl-3-phenyl-1,2,4-triazole;5-Amino-1-[bis(dimethylamino)phosphinyl]-3-phenyl-1,2,4-triazole;5-Amino-3-phenyl-1,2,4-triazol-1-yl-<em>N</em>,<em>N</em>,<em>N</em>′,<em>N</em>′-tetramethylphosphodiamide;Wepsyn;Triamiphos;Wepsyn 155;NSC 232670",
    "duplicated_cas_no": "",
    "SMILES": "P(N(C)C)(N(C)C)(=O)N1N=C(N=C1N)C2=CC=CC=C2",
    "meta_data": {
        "InChI": "InChI=1S/C12H19N6OP/c1-16(2)20(19,17(3)4)18-12(13)14-11(15-18)10-8-6-5-7-9-10/h5-9H,1-4H3,(H2,13,14,15)",
        "InChIKey": null,
        "Canonical SMILES": "O=P(N1N=C(N=C1N)C=2C=CC=CC2)(N(C)C)N(C)C",
        "Molecular Formula": "C<sub>12</sub>H<sub>19</sub>N<sub>6</sub>OP",
        "Molecular Mass": "294.29",
        "Melting Point": "167-169 °C"
    }
}