{
    "cas_no": "103361-09-7",
    "key_name": "Flumioxazin",
    "cn_name": null,
    "alternate_name": "1<em>H</em>-Isoindole-1,3(2<em>H</em>)-dione, 2-[7-fluoro-3,4-dihydro-3-oxo-4-(2-propyn-1-yl)-2<em>H</em>-1,4-benzoxazin-6-yl]-4,5,6,7-tetrahydro-;1<em>H</em>-Isoindole-1,3(2<em>H</em>)-dione, 2-[7-fluoro-3,4-dihydro-3-oxo-4-(2-propynyl)-2<em>H</em>-1,4-benzoxazin-6-yl]-4,5,6,7-tetrahydro-;2<em>H</em>-1,4-Benzoxazine, 1<em>H</em>-isoindole-1,3(2<em>H</em>)-dione deriv.;2-[7-Fluoro-3,4-dihydro-3-oxo-4-(2-propyn-1-yl)-2<em>H</em>-1,4-benzoxazin-6-yl]-4,5,6,7-tetrahydro-1<em>H</em>-isoindole-1,3(2<em>H</em>)-dione;S 53482;Flumioxazin;Sumisoya;V 53482;Valor;Pledge;2-(7-Fluoro-3-oxo-4-(prop-2-ynyl)-3,4-dihydro-2<em>H</em>-benzo[<em>b</em>][1,4]oxazin-6-yl)-4,5,6,7-tetrahydro-2<em>H</em>-isoindole-1,3-dione;Encompass,;Flumizin;BroadStar;Valor SX;Guillotine;Chateau;SureGuard;Sumimax;Valor EZ",
    "duplicated_cas_no": "141490-50-8",
    "SMILES": "O=C1N(C(=O)C2=C1CCCC2)C=3C=C4N(CC#C)C(=O)COC4=CC3F",
    "meta_data": {
        "InChI": "InChI=1S/C19H15FN2O4/c1-2-7-21-15-9-14(13(20)8-16(15)26-10-17(21)23)22-18(24)11-5-3-4-6-12(11)19(22)25/h1,8-9H,3-7,10H2",
        "InChIKey": null,
        "Canonical SMILES": "O=C1C2=C(C(=O)N1C=3C=C4C(OCC(=O)N4CC#C)=CC3F)CCCC2",
        "Molecular Formula": "C<sub>19</sub>H<sub>15</sub>FN<sub>2</sub>O<sub>4</sub>",
        "Molecular Mass": "354.33",
        "Melting Point": "201-204 °C",
        "Density": "1.5136 g/cm³ @ Temp: 20 °C"
    }
}