{
    "cas_no": "637-21-8",
    "key_name": "Homatropine hydrochloride",
    "cn_name": "盐酸后马托品;",
    "alternate_name": "Benzeneacetic acid, α-hydroxy-, (3-<em>endo</em>)-8-methyl-8-azabicyclo[3.2.1]oct-3-yl ester, hydrochloride (1:1);1α<span class=\"text-smallcaps\">H</smallcap>,5α<smallcap>H</span>-Tropan-3α-ol, mandelate (ester), hydrochloride;Homatropine hydrochloride;Benzeneacetic acid, α-hydroxy-, 8-methyl-8-azabicyclo[3.2.1]oct-3-yl ester, hydrochloride, <em>endo</em>-(±)-;Benzeneacetic acid, α-hydroxy-, (3-<em>endo</em>)-8-methyl-8-azabicyclo[3.2.1]oct-3-yl ester, hydrochloride;Benzeneacetic acid, α-hydroxy-, 8-methyl-8-azabicyclo[3.2.1]oct-3-yl ester, hydrochloride, <em>endo</em>-",
    "duplicated_cas_no": "",
    "SMILES": "O(C(C(O)C1=CC=CC=C1)=O)[C@H]2C[C@@]3(N(C)[C@](C2)(CC3)[H])[H].Cl",
    "meta_data": {
        "InChI": "InChI=1/C16H21NO3.ClH/c1-17-12-7-8-13(17)10-14(9-12)20-16(19)15(18)11-5-3-2-4-6-11;/h2-6,12-15,18H,7-10H2,1H3;1H/t12-,13+,14+,15?;",
        "InChIKey": null,
        "Canonical SMILES": "Cl.O=C(OC1CC2N(C)C(CC2)C1)C(O)C=3C=CC=CC3",
        "Molecular Formula": "C<sub>16</sub>H<sub>21</sub>NO<sub>3</sub>.ClH",
        "Molecular Mass": "",
        "Melting Point": "192 °C"
    }
}