{
    "cas_no": "77-94-1",
    "key_name": "Tributyl citrate",
    "cn_name": "柠檬酸三丁酯;",
    "alternate_name": "1,2,3-Propanetricarboxylic acid, 2-hydroxy-, 1,2,3-tributyl ester;Citric acid, tributyl ester;1,2,3-Propanetricarboxylic acid, 2-hydroxy-, tributyl ester;Citroflex 4;Tributyl citrate;Tri-<em>n</em>-butyl citrate;Butyl citrate;2-Hydroxy-1,2,3-propanetricarboxylic acid tributyl ester;Citroflex C 4;NSC 8491;Morflex TBC;Citrofol BI;Citrofol B 1;Scandinol SP 21;Uniplex 83;TBC;BN 63;LM 30 (ester);LM 30",
    "duplicated_cas_no": "611199-02-1",
    "SMILES": "C(CC(OCCCC)=O)(CC(OCCCC)=O)(C(OCCCC)=O)O",
    "meta_data": {
        "InChI": "InChI=1S/C18H32O7/c1-4-7-10-23-15(19)13-18(22,17(21)25-12-9-6-3)14-16(20)24-11-8-5-2/h22H,4-14H2,1-3H3",
        "InChIKey": null,
        "Canonical SMILES": "O=C(OCCCC)CC(O)(C(=O)OCCCC)CC(=O)OCCCC",
        "Molecular Formula": "C<sub>18</sub>H<sub>32</sub>O<sub>7</sub>",
        "Molecular Mass": "360.44",
        "Boiling Point": "170-180 °C @ Press: 11 Torr",
        "Melting Point": "-20 °C"
    }
}