{
    "cas_no": "2804-50-4",
    "key_name": "2-Chloro-1,1,3,3,3-pentafluoropropene",
    "cn_name": null,
    "alternate_name": "1-Propene, 2-chloro-1,1,3,3,3-pentafluoro-;Propene, 2-chloropentafluoro-;Propene, 2-chloro-1,1,3,3,3-pentafluoro-;2-Chloro-1,1,3,3,3-pentafluoro-1-propene;2-Chloropentafluoro-1-propene;2-Chloropentafluoropropene;2-Chloroperfluoropropene;2-Chloro-1,1,3,3,3-pentafluoropropene;CFC 1215xc",
    "duplicated_cas_no": "",
    "SMILES": "C(C(F)(F)F)(=C(F)F)Cl",
    "meta_data": {
        "InChI": "InChI=1S/C3ClF5/c4-1(2(5)6)3(7,8)9",
        "InChIKey": null,
        "Canonical SMILES": "FC(F)=C(Cl)C(F)(F)F",
        "Molecular Formula": "C<sub>3</sub>ClF<sub>5</sub>",
        "Molecular Mass": "166.48",
        "Boiling Point": "6.8 °C",
        "Melting Point": "-130 °C"
    }
}