{
    "cas_no": "1125-78-6",
    "key_name": "5,6,7,8-Tetrahydro-2-naphthol",
    "cn_name": "5,6,7,8-四氢-2-萘酚;",
    "alternate_name": "2-Naphthalenol, 5,6,7,8-tetrahydro-;2-Naphthol, 5,6,7,8-tetrahydro-;5,6,7,8-Tetrahydro-2-naphthalenol;5,6,7,8-Tetrahydro-2-naphthol;5,6,7,8-Tetrahydro-β-naphthol;6-Tetralinol;6-Hydroxytetralin;5,6,7,8-Tetrahydro-2-hydroxynaphthalene;2-Hydroxy-5,6,7,8-tetrahydronaphthalene;5,6,7,8-Tetrahydronaphthalen-2-ol;NSC 65604;6-Hydroxy-1,2,3,4-tetrahydronaphthalene",
    "duplicated_cas_no": "",
    "SMILES": "OC=1C=C2C(=CC1)CCCC2",
    "meta_data": {
        "InChI": "InChI=1S/C10H12O/c11-10-6-5-8-3-1-2-4-9(8)7-10/h5-7,11H,1-4H2",
        "InChIKey": null,
        "Canonical SMILES": "OC1=CC=C2C(=C1)CCCC2",
        "Molecular Formula": "C<sub>10</sub>H<sub>12</sub>O",
        "Molecular Mass": "148.20",
        "Boiling Point": "275.5 °C",
        "Melting Point": "57 °C"
    }
}