{
    "cas_no": "564-20-5",
    "key_name": "(+)-Sclareolide",
    "cn_name": "香紫苏内酯;十氢四甲基萘并呋喃酮;",
    "alternate_name": "Naphtho[2,1-<em>b</em>]furan-2(1<em>H</em>)-one, decahydro-3a,6,6,9a-tetramethyl-, (3a<em>R</em>,5a<em>S</em>,9a<em>S</em>,9b<em>R</em>)-;Norambreinolide;Naphtho[2,1-<em>b</em>]furan-2(1<em>H</em>)-one, 3a,4,5,5aα,6,7,8,9,9a,9bα-decahydro-3aβ,6,6,9aβ-tetramethyl-;Naphtho[2,1-<em>b</em>]furan-2(1<em>H</em>)-one, decahydro-3a,6,6,9a-tetramethyl-, [3a<em>R</em>-(3aα,5aβ,9aα,9bβ)]-;(3a<em>R</em>,5a<em>S</em>,9a<em>S</em>,9b<em>R</em>)-Decahydro-3a,6,6,9a-tetramethylnaphtho[2,1-<em>b</em>]furan-2(1<em>H</em>)-one;(+)-Norambreinolide;Norambreinolid;(+)-Sclareolide;Sclareolide;(<em>R</em>)-(+)-Sclareolide;13,14,15,16-Tetranorlabdano-8α,12-lactone;(3α<em>R</em>)-(+)-Sclareolide;(3a<em>R</em>)-(+)-Sclareolide;(3AR,5aS,9aS,9bR)-3a,6,6,9a-tetramethyldecahydronaphtho[2,1-<em>b</em>]furan-2(1<em>H</em>)-one",
    "duplicated_cas_no": "",
    "SMILES": "C[C@@]12[C@@]3([C@@](C)(CC[C@]1(C(C)(C)CCC2)[H])OC(=O)C3)[H]",
    "meta_data": {
        "InChI": "InChI=1S/C16H26O2/c1-14(2)7-5-8-15(3)11(14)6-9-16(4)12(15)10-13(17)18-16/h11-12H,5-10H2,1-4H3/t11-,12+,15-,16+/m0/s1",
        "InChIKey": null,
        "Canonical SMILES": "O=C1OC2(C)CCC3C(C)(C)CCCC3(C)C2C1",
        "Molecular Formula": "C<sub>16</sub>H<sub>26</sub>O<sub>2</sub>",
        "Molecular Mass": "250.38",
        "Melting Point": "125 °C"
    }
}