{
    "cas_no": "727-71-9",
    "key_name": "2-Phenyl-1-(2,4,6-trihydroxyphenyl)ethanone",
    "cn_name": null,
    "alternate_name": "Ethanone, 2-phenyl-1-(2,4,6-trihydroxyphenyl)-;Acetophenone, 2′,4′,6′-trihydroxy-2-phenyl-;Phloroacetophenone, 2-phenyl-;2-Phenyl-1-(2,4,6-trihydroxyphenyl)ethanone;2,4,6-Trihydroxydeoxybenzoin;2,4,6-Trihydroxyphenyl benzyl ketone;2-Phenyl-2′,4′,6′-trihydroxyacetophenone;2-Phenyl-1-(2,4,6-trihydroxyphenyl)ethan-1-one",
    "duplicated_cas_no": "",
    "SMILES": "C(CC1=CC=CC=C1)(=O)C2=C(O)C=C(O)C=C2O",
    "meta_data": {
        "InChI": "InChI=1S/C14H12O4/c15-10-7-12(17)14(13(18)8-10)11(16)6-9-4-2-1-3-5-9/h1-5,7-8,15,17-18H,6H2",
        "InChIKey": null,
        "Canonical SMILES": "O=C(C=1C(O)=CC(O)=CC1O)CC=2C=CC=CC2",
        "Molecular Formula": "C<sub>14</sub>H<sub>12</sub>O<sub>4</sub>",
        "Molecular Mass": "244.24",
        "Melting Point": "162 °C"
    }
}