{
    "cas_no": "698387-09-6",
    "key_name": "Neratinib",
    "cn_name": null,
    "alternate_name": "2-Butenamide, <em>N</em>-[4-[[3-chloro-4-(2-pyridinylmethoxy)phenyl]amino]-3-cyano-7-ethoxy-6-quinolinyl]-4-(dimethylamino)-, (2<em>E</em>)-;(2<em>E</em>)-<em>N</em>-[4-[[3-Chloro-4-(2-pyridinylmethoxy)phenyl]amino]-3-cyano-7-ethoxy-6-quinolinyl]-4-(dimethylamino)-2-butenamide;HKI 272;(<em>E</em>)-<em>N</em>-[4-[3-Chloro-4-[(2-pyridinyl)methoxy]anilino]-3-cyano-7-ethoxy-6-quinolinyl]-4-(dimethylamino)-2-butenamide;Neratinib;(E)-<em>N</em>-[4-[[3-Chloro-4-((pyridin-2-yl)methoxy)phenyl]amino]-3-cyano-7-ethoxyquinolin-6-yl]-4-(dimethylamino)-2-butenamide",
    "duplicated_cas_no": "736156-77-7",
    "SMILES": "N(C=1C2=C(C=C(OCC)C(NC(/C=C/CN(C)C)=O)=C2)N=CC1C#N)C3=CC(Cl)=C(OCC4=CC=CC=N4)C=C3",
    "meta_data": {
        "InChI": "InChI=1S/C30H29ClN6O3/c1-4-39-28-16-25-23(15-26(28)36-29(38)9-7-13-37(2)3)30(20(17-32)18-34-25)35-21-10-11-27(24(31)14-21)40-19-22-8-5-6-12-33-22/h5-12,14-16,18H,4,13,19H2,1-3H3,(H,34,35)(H,36,38)/b9-7+",
        "InChIKey": null,
        "Canonical SMILES": "N#CC1=CN=C2C=C(OCC)C(=CC2=C1NC3=CC=C(OCC4=NC=CC=C4)C(Cl)=C3)NC(=O)C=CCN(C)C",
        "Molecular Formula": "C<sub>30</sub>H<sub>29</sub>ClN<sub>6</sub>O<sub>3</sub>",
        "Molecular Mass": "557.04",
        "Melting Point": "182-184 °C"
    }
}