{
    "cas_no": "609-26-7",
    "key_name": "3-Ethyl-2-methylpentane",
    "cn_name": "3-乙基-2-甲基戊烷;2-甲基-3-乙基戊烷;",
    "alternate_name": "Pentane, 3-ethyl-2-methyl-;3-Ethyl-2-methylpentane;2-Methyl-3-ethylpentane;NSC 73955",
    "duplicated_cas_no": "",
    "SMILES": "C(C(C)C)(CC)CC",
    "meta_data": {
        "InChI": "InChI=1S/C8H18/c1-5-8(6-2)7(3)4/h7-8H,5-6H2,1-4H3",
        "InChIKey": null,
        "Canonical SMILES": "CCC(CC)C(C)C",
        "Molecular Formula": "C<sub>8</sub>H<sub>18</sub>",
        "Molecular Mass": "114.23",
        "Boiling Point": "115.6 °C",
        "Melting Point": "-114.9 °C",
        "Density": "0.7084 g/cm³ @ Temp: 15 °C"
    }
}