{
    "cas_no": "607-34-1",
    "key_name": "5-Nitroquinoline",
    "cn_name": "5-硝基喹啉;",
    "alternate_name": "Quinoline, 5-nitro-;5-Nitroquinoline;NSC 65583;5-(Hydroxyl[<em>oxido</em>]amino)quinoline",
    "duplicated_cas_no": "",
    "SMILES": "N(=O)(=O)C=1C2=C(C=CC1)N=CC=C2",
    "meta_data": {
        "InChI": "InChI=1S/C9H6N2O2/c12-11(13)9-5-1-4-8-7(9)3-2-6-10-8/h1-6H",
        "InChIKey": null,
        "Canonical SMILES": "O=N(=O)C1=CC=CC2=NC=CC=C21",
        "Molecular Formula": "C<sub>9</sub>H<sub>6</sub>N<sub>2</sub>O<sub>2</sub>",
        "Molecular Mass": "174.16",
        "Melting Point": "74 °C"
    }
}