{
    "cas_no": "6001-87-2",
    "key_name": "Propanoic acid, 3-chloro-, methyl ester",
    "cn_name": null,
    "alternate_name": "Propanoic acid, 3-chloro-, methyl ester;Propionic acid, 3-chloro-, methyl ester;Methyl 3-chloropropionate;3-Chloropropionic acid methyl ester;Methyl 3-chloropropanoate;Methyl β-chloropropionate;3-Chloropropanoic acid methyl ester;NSC 70171",
    "duplicated_cas_no": "",
    "SMILES": "C(CCCl)(OC)=O",
    "meta_data": {
        "InChI": "InChI=1S/C4H7ClO2/c1-7-4(6)2-3-5/h2-3H2,1H3",
        "InChIKey": null,
        "Canonical SMILES": "O=C(OC)CCCl",
        "Molecular Formula": "C<sub>4</sub>H<sub>7</sub>ClO<sub>2</sub>",
        "Molecular Mass": "122.55",
        "Boiling Point": "156 °C",
        "Density": "1.1874 g/cm³ @ Temp: 12 °C"
    }
}