{
    "cas_no": "69806-34-4",
    "key_name": "Haloxyfop",
    "cn_name": "吡氟氯禾灵;2[4-(3-氯-5-三氟甲基-2-吡啶氧基)苯氧基]丙酸;",
    "alternate_name": "Propanoic acid, 2-[4-[[3-chloro-5-(trifluoromethyl)-2-pyridinyl]oxy]phenoxy]-;2-[4-[[3-Chloro-5-(trifluoromethyl)-2-pyridinyl]oxy]phenoxy]propanoic acid;Haloxyfop;Haloxyfop acid;(±)-Haloxyfop",
    "duplicated_cas_no": "95905-78-5;121861-53-8",
    "SMILES": "O(C1=C(Cl)C=C(C(F)(F)F)C=N1)C2=CC=C(OC(C(O)=O)C)C=C2",
    "meta_data": {
        "InChI": "InChI=1S/C15H11ClF3NO4/c1-8(14(21)22)23-10-2-4-11(5-3-10)24-13-12(16)6-9(7-20-13)15(17,18)19/h2-8H,1H3,(H,21,22)",
        "InChIKey": null,
        "Canonical SMILES": "O=C(O)C(OC1=CC=C(OC2=NC=C(C=C2Cl)C(F)(F)F)C=C1)C",
        "Molecular Formula": "C<sub>15</sub>H<sub>11</sub>ClF<sub>3</sub>NO<sub>4</sub>",
        "Molecular Mass": "361.70",
        "Melting Point": "107.5 °C"
    }
}