{
    "cas_no": "147149-76-6",
    "key_name": "Nolatrexed",
    "cn_name": "诺拉曲特;2-氨基-6-甲基-5-(4-吡啶硫基)-4(3H)-喹唑啉酮;",
    "alternate_name": "4(1<em>H</em>)-Quinazolinone, 2-amino-6-methyl-5-(4-pyridinylthio)-;2-Amino-6-methyl-5-(4-pyridinylthio)-4(1<em>H</em>)-quinazolinone;Nolatrexed;2-Amino-6-methyl-5-(pyridin-4-ylsulfanyl)-3<em>H</em>-quinazolin-4-one;2-Amino-6-methyl-5-pyridin-4-ylsulfanyl-1<em>H</em>-quinazolin-4-one",
    "duplicated_cas_no": "",
    "SMILES": "S(C1=C2C(=CC=C1C)NC(N)=NC2=O)C=3C=CN=CC3",
    "meta_data": {
        "InChI": "InChI=1S/C14H12N4OS/c1-8-2-3-10-11(13(19)18-14(15)17-10)12(8)20-9-4-6-16-7-5-9/h2-7H,1H3,(H3,15,17,18,19)",
        "InChIKey": null,
        "Canonical SMILES": "O=C1N=C(N)NC2=CC=C(C(SC=3C=CN=CC3)=C12)C",
        "Molecular Formula": "C<sub>14</sub>H<sub>12</sub>N<sub>4</sub>OS",
        "Molecular Mass": "284.34",
        "Melting Point": "300-301 °C"
    }
}