{
    "cas_no": "6638-79-5",
    "key_name": "<em>N</em>,<em>O</em>-Dimethylhydroxylamine hydrochloride",
    "cn_name": "N,O-二甲基羟胺盐酸盐;二甲羟胺盐酸盐;",
    "alternate_name": "Methanamine, <em>N</em>-methoxy-, hydrochloride (1:1);Methanamine, <em>N</em>-methoxy-, hydrochloride;<em>O</em>,<em>N</em>-Dimethylhydroxylamine hydrochloride;<em>N</em>-Methoxymethylamine hydrochloride;<em>N</em>,<em>O</em>-Dimethylhydroxylamine hydrochloride;<em>N</em>-Methoxymethanamine hydrochloride;<em>N</em>-Methoxy-<em>N</em>-methylamine hydrochloride;Methoxymethylamine hydrochloride;<em>N</em>-Methyl-<em>N</em>-methoxyamine hydrochloride;<em>O</em>-Methyl hydroxy(methyl)amine hydrochloride",
    "duplicated_cas_no": "159581-86-9;882491-88-5",
    "SMILES": "N(OC)C.Cl",
    "meta_data": {
        "InChI": "InChI=1S/C2H7NO.ClH/c1-3-4-2;/h3H,1-2H3;1H",
        "InChIKey": null,
        "Canonical SMILES": "Cl.O(NC)C",
        "Molecular Formula": "C<sub>2</sub>H<sub>7</sub>NO.ClH",
        "Molecular Mass": "",
        "Melting Point": "111-115 °C"
    }
}