{
    "cas_no": "1575-74-2",
    "key_name": "2-Methyl-4-pentenoic acid",
    "cn_name": "2-甲基-4-戊烯酸;2-甲基-4-戊酸;2-甲基-4-戊烯酸;2-甲基-4-戊烯酸,98%;",
    "alternate_name": "4-Pentenoic acid, 2-methyl-;2-Methyl-4-pentenoic acid;(±)-2-Methyl-4-pentenoic acid;α-Methyl-4-pentenoic acid",
    "duplicated_cas_no": "53729-46-7",
    "SMILES": "C(CC=C)(C(O)=O)C",
    "meta_data": {
        "InChI": "InChI=1S/C6H10O2/c1-3-4-5(2)6(7)8/h3,5H,1,4H2,2H3,(H,7,8)",
        "InChIKey": null,
        "Canonical SMILES": "O=C(O)C(C)CC=C",
        "Molecular Formula": "C<sub>6</sub>H<sub>10</sub>O<sub>2</sub>",
        "Molecular Mass": "114.14",
        "Boiling Point": "188-189 °C @ Press: 683 Torr",
        "Density": "0.956 g/cm³ @ Temp: 16 °C"
    }
}