{
    "cas_no": "90-44-8",
    "key_name": "Anthrone",
    "cn_name": "蒽酮;",
    "alternate_name": "9(10<em>H</em>)-Anthracenone;Anthrone;Anthracene, 9,10-dihydro-9-oxo-;Carbothrone;9-Oxoanthracene;NSC 1965;Quino Power ATR",
    "duplicated_cas_no": "",
    "SMILES": "O=C1C=2C(CC=3C1=CC=CC3)=CC=CC2",
    "meta_data": {
        "InChI": "InChI=1S/C14H10O/c15-14-12-7-3-1-5-10(12)9-11-6-2-4-8-13(11)14/h1-8H,9H2",
        "InChIKey": null,
        "Canonical SMILES": "O=C1C=2C=CC=CC2CC=3C=CC=CC13",
        "Molecular Formula": "C<sub>14</sub>H<sub>10</sub>O",
        "Molecular Mass": "194.23",
        "Boiling Point": "375.2 °C",
        "Melting Point": "155 °C"
    }
}