{
    "cas_no": "79-83-4",
    "key_name": "(+)-Pantothenic acid",
    "cn_name": "D-泛酸;",
    "alternate_name": "β-Alanine, <em>N</em>-[(2<em>R</em>)-2,4-dihydroxy-3,3-dimethyl-1-oxobutyl]-;Pantothenic acid, <span class=\"text-smallcaps\">D</span>-;β-Alanine, <em>N</em>-(2,4-dihydroxy-3,3-dimethyl-1-oxobutyl)-, (<em>R</em>)-;<em>N</em>-[(2<em>R</em>)-2,4-Dihydroxy-3,3-dimethyl-1-oxobutyl]-β-alanine;Chick antidermatitis factor;(+)-Pantothenic acid;Vitamin B<sub>5</sub>;Pantothenic acid;<span class=\"text-smallcaps\">D</span>-Pantothenic acid;<span class=\"text-smallcaps\">D</span>(+)-<em>N</em>-(2,4-Dihydroxy-3,3-dimethylbutyryl)-β-alanine;(<span class=\"text-smallcaps\">D</span>)-(+)-Pantothenic acid;(R)-3-(2,4-Dihydroxy-3,3-dimethylbutanamido)propanoicacid;MeSH ID: D010205",
    "duplicated_cas_no": "3563-85-7;1803316-48-4;2087491-31-2",
    "SMILES": "[C@@H](C(CO)(C)C)(C(NCCC(O)=O)=O)O",
    "meta_data": {
        "InChI": "InChI=1S/C9H17NO5/c1-9(2,5-11)7(14)8(15)10-4-3-6(12)13/h7,11,14H,3-5H2,1-2H3,(H,10,15)(H,12,13)/t7-/m0/s1",
        "InChIKey": null,
        "Canonical SMILES": "O=C(O)CCNC(=O)C(O)C(C)(C)CO",
        "Molecular Formula": "C<sub>9</sub>H<sub>17</sub>NO<sub>5</sub>",
        "Molecular Mass": "219.24",
        "Melting Point": "&lt;25 °C"
    }
}