{
    "cas_no": "76824-17-4",
    "key_name": "Propanamide, 3-[[[2-[(aminoiminomethyl)amino]-4-thiazolyl]methyl]thio]-<em>N</em>-(aminosulfonyl)-, hydrochloride (1:1)",
    "cn_name": null,
    "alternate_name": "Propanamide, 3-[[[2-[(aminoiminomethyl)amino]-4-thiazolyl]methyl]thio]-<em>N</em>-(aminosulfonyl)-, hydrochloride (1:1);Propanamide, 3-[[[2-[(aminoiminomethyl)amino]-4-thiazolyl]methyl]thio]-<em>N</em>-(aminosulfonyl)-, monohydrochloride",
    "duplicated_cas_no": "",
    "SMILES": "N(C(=N)N)C1=NC(CSCCC(NS(N)(=O)=O)=O)=CS1.Cl",
    "meta_data": {
        "InChI": "InChI=1S/C8H14N6O3S3.ClH/c9-7(10)13-8-12-5(4-19-8)3-18-2-1-6(15)14-20(11,16)17;/h4H,1-3H2,(H,14,15)(H2,11,16,17)(H4,9,10,12,13);1H",
        "InChIKey": null,
        "Canonical SMILES": "Cl.O=C(NS(=O)(=O)N)CCSCC=1N=C(SC1)NC(=N)N",
        "Molecular Formula": "C<sub>8</sub>H<sub>14</sub>N<sub>6</sub>O<sub>3</sub>S<sub>3</sub>.ClH",
        "Molecular Mass": "",
        "Melting Point": "166-167 °C"
    }
}