{
    "cas_no": "3943-74-6",
    "key_name": "Methyl vanillate",
    "cn_name": "香草酸甲酯;4-羟基-3-甲氧基苯甲酸甲酯;",
    "alternate_name": "Benzoic acid, 4-hydroxy-3-methoxy-, methyl ester;Vanillic acid, methyl ester;Methyl 3-methoxy-4-hydroxybenzoate;Methyl vanillate;Methyl 4-hydroxy-3-methoxybenzoate;4-Hydroxy-3-methoxybenzoic acid methyl ester;NSC 74385",
    "duplicated_cas_no": "1220026-96-9",
    "SMILES": "C(OC)(=O)C1=CC(OC)=C(O)C=C1",
    "meta_data": {
        "InChI": "InChI=1S/C9H10O4/c1-12-8-5-6(9(11)13-2)3-4-7(8)10/h3-5,10H,1-2H3",
        "InChIKey": null,
        "Canonical SMILES": "O=C(OC)C1=CC=C(O)C(OC)=C1",
        "Molecular Formula": "C<sub>9</sub>H<sub>10</sub>O<sub>4</sub>",
        "Molecular Mass": "182.17",
        "Boiling Point": "286 °C",
        "Melting Point": "64 °C",
        "Density": "1.39 g/cm³ @ Temp: 25.000 °C"
    }
}