{
    "cas_no": "143-66-8",
    "key_name": "Sodium tetraphenylborate",
    "cn_name": "四苯硼钠;",
    "alternate_name": "Borate(1-), tetraphenyl-, sodium (1:1);Borate(1-), tetraphenyl-, sodium;Sodium tetraphenylborate;Sodium tetraphenylboron;Kalignost;Sodium tetraphenylborate(1-);Tetraphenyl boron sodium salt;Sodium tetraphenylboride;Tetraphenyl sodium borate;Sodium tetraphenylboride(1-);Kalibor;Sodium tetraphenylborate (NaPh<sub>4</sub>B);Kariporu K;Sodium tetrakis(phenyl) borate;HOK-Boron Na",
    "duplicated_cas_no": "14485-18-8",
    "SMILES": "[B+3]([C-]=1C=CC=CC1)([C-]=2C=CC=CC2)([C-]=3C=CC=CC3)[C-]=4C=CC=CC4.[Na+]",
    "meta_data": {
        "InChI": "InChI=1S/C24H20B.Na/c1-5-13-21(14-6-1)25(22-15-7-2-8-16-22,23-17-9-3-10-18-23)24-19-11-4-12-20-24;/h1-20H;/q-1;+1",
        "InChIKey": null,
        "Canonical SMILES": "[Na+].C=1C=C[C-](=CC1)[B+3]([C-]=2C=CC=CC2)([C-]=3C=CC=CC3)[C-]=4C=CC=CC4",
        "Molecular Formula": "C<sub>24</sub>H<sub>20</sub>B.Na",
        "Molecular Mass": "",
        "Melting Point": "175 °C"
    }
}