{
    "cas_no": "7742-73-6",
    "key_name": "1,3-Dichloroisoquinoline",
    "cn_name": "1,3-二氯异喹啉;",
    "alternate_name": "Isoquinoline, 1,3-dichloro-;1,3-Dichloroisoquinoline;NSC 170843",
    "duplicated_cas_no": "",
    "SMILES": "ClC=1C2=C(C=C(Cl)N1)C=CC=C2",
    "meta_data": {
        "InChI": "InChI=1S/C9H5Cl2N/c10-8-5-6-3-1-2-4-7(6)9(11)12-8/h1-5H",
        "InChIKey": null,
        "Canonical SMILES": "ClC=1N=C(Cl)C=2C=CC=CC2C1",
        "Molecular Formula": "C<sub>9</sub>H<sub>5</sub>Cl<sub>2</sub>N",
        "Molecular Mass": "198.05",
        "Melting Point": "123 °C"
    }
}