{
    "cas_no": "5486-55-5",
    "key_name": "2,6-Dimethoxynaphthalene",
    "cn_name": "2,6-二甲氧基萘;",
    "alternate_name": "Naphthalene, 2,6-dimethoxy-;2,6-Dimethoxynaphthalene;NSC 93947",
    "duplicated_cas_no": "",
    "SMILES": "O(C)C1=CC2=C(C=C(OC)C=C2)C=C1",
    "meta_data": {
        "InChI": "InChI=1S/C12H12O2/c1-13-11-5-3-10-8-12(14-2)6-4-9(10)7-11/h3-8H,1-2H3",
        "InChIKey": null,
        "Canonical SMILES": "O(C=1C=CC2=CC(OC)=CC=C2C1)C",
        "Molecular Formula": "C<sub>12</sub>H<sub>12</sub>O<sub>2</sub>",
        "Molecular Mass": "188.22",
        "Melting Point": "153-154 °C"
    }
}