{
    "cas_no": "93-40-3",
    "key_name": "(3,4-Dimethoxyphenyl)acetic acid",
    "cn_name": "3,4-二甲氧基苯乙酸;",
    "alternate_name": "Benzeneacetic acid, 3,4-dimethoxy-;Acetic acid, (3,4-dimethoxyphenyl)-;3,4-Dimethoxybenzeneacetic acid;Homoveratric acid;(3,4-Dimethoxyphenyl)acetic acid;NSC 2753;NSC 27897;2-(3,4-Dimethoxyphenyl)acetate;2-(3,4-Dimethoxyphenyl)acetic acid",
    "duplicated_cas_no": "",
    "SMILES": "O(C)C1=C(OC)C=C(CC(O)=O)C=C1",
    "meta_data": {
        "InChI": "InChI=1S/C10H12O4/c1-13-8-4-3-7(6-10(11)12)5-9(8)14-2/h3-5H,6H2,1-2H3,(H,11,12)",
        "InChIKey": null,
        "Canonical SMILES": "O=C(O)CC1=CC=C(OC)C(OC)=C1",
        "Molecular Formula": "C<sub>10</sub>H<sub>12</sub>O<sub>4</sub>",
        "Molecular Mass": "196.20",
        "Melting Point": "98 °C"
    }
}