{
    "cas_no": "5332-26-3",
    "key_name": "<em>N</em>-(Bromomethyl)phthalimide",
    "cn_name": "N-溴甲基邻苯二甲酰亚胺;",
    "alternate_name": "1<em>H</em>-Isoindole-1,3(2<em>H</em>)-dione, 2-(bromomethyl)-;Phthalimide, <em>N</em>-(bromomethyl)-;2-(Bromomethyl)-1<em>H</em>-isoindole-1,3(2<em>H</em>)-dione;<em>N</em>-(Bromomethyl)phthalimide;Phthalimidomethyl bromide;2-(Bromomethyl)phthalimide;NSC 3997;Bromomethylphthalimide;2-(Bromomethyl)isoindoline-1,3-dione;2-Bromomethylisoindole-1,3-dione;2-(Bromomethyl)-2,3-dihydro-1<em>H</em>-isoindole-1,3-dione",
    "duplicated_cas_no": "",
    "SMILES": "O=C1C=2C(C(=O)N1CBr)=CC=CC2",
    "meta_data": {
        "InChI": "InChI=1S/C9H6BrNO2/c10-5-11-8(12)6-3-1-2-4-7(6)9(11)13/h1-4H,5H2",
        "InChIKey": null,
        "Canonical SMILES": "O=C1C=2C=CC=CC2C(=O)N1CBr",
        "Molecular Formula": "C<sub>9</sub>H<sub>6</sub>BrNO<sub>2</sub>",
        "Molecular Mass": "240.05",
        "Melting Point": "151.5 °C"
    }
}