{
    "cas_no": "63516-07-4",
    "key_name": "Flutropium bromide",
    "cn_name": "氟托溴铵; 氟托品溴铵; [8-(2-氟乙基)-8-甲基-8-氮杂双环[3.2.1]辛烷-3-基] 2-羟基-2,2-二苯基乙酸酯溴化物;",
    "alternate_name": "8-Azoniabicyclo[3.2.1]octane, 8-(2-fluoroethyl)-3-[(2-hydroxy-2,2-diphenylacetyl)oxy]-8-methyl-, bromide (1:1), (3-<em>endo</em>,8-<em>syn</em>)-;8-Azoniabicyclo[3.2.1]octane, 8-(2-fluoroethyl)-3-[(hydroxydiphenylacetyl)oxy]-8-methyl-, bromide, (<em>endo</em>,<em>syn</em>)-;8-Azoniabicyclo[3.2.1]octane, 8-(2-fluoroethyl)-3-[(hydroxydiphenylacetyl)oxy]-8-methyl-, bromide, (3-<em>endo</em>,8-<em>syn</em>)-;Ba 598Br;Flutropium bromide;Flubron",
    "duplicated_cas_no": "",
    "SMILES": "C(C(O[C@H]1C[C@@]2([N@@+](CCF)(C)[C@](C1)(CC2)[H])[H])=O)(O)(C3=CC=CC=C3)C4=CC=CC=C4.[Br-]",
    "meta_data": {
        "InChI": "InChI=1/C24H29FNO3.BrH/c1-26(15-14-25)20-12-13-21(26)17-22(16-20)29-23(27)24(28,18-8-4-2-5-9-18)19-10-6-3-7-11-19;/h2-11,20-22,28H,12-17H2,1H3;1H/q+1;/p-1/t20-,21+,22+,26+;",
        "InChIKey": null,
        "Canonical SMILES": "[Br-].O=C(OC1CC2CCC(C1)[N+]2(C)CCF)C(O)(C=3C=CC=CC3)C=4C=CC=CC4",
        "Molecular Formula": "C<sub>24</sub>H<sub>29</sub>FNO<sub>3</sub>.Br",
        "Molecular Mass": "",
        "Melting Point": "192-193 °C (decomp)"
    }
}