{
    "cas_no": "35941-71-0",
    "key_name": "2(3<em>H</em>)-Benzothiazolone, 5-chloro-3-[2-[4-(2-hydroxyethyl)-1-piperazinyl]-2-oxoethyl]-, hydrochloride (1:1)",
    "cn_name": null,
    "alternate_name": "2(3<em>H</em>)-Benzothiazolone, 5-chloro-3-[2-[4-(2-hydroxyethyl)-1-piperazinyl]-2-oxoethyl]-, hydrochloride (1:1);1-Piperazineethanol, 4-[(5-chloro-2-oxo-3(2<em>H</em>)-benzothiazolyl)acetyl]-, monohydrochloride;Tiaramide hydrochloride;Solantal;RHC 2592;FK 1160;NTA 194;NSC 289337",
    "duplicated_cas_no": "",
    "SMILES": "C(C(=O)N1CCN(CCO)CC1)N2C=3C(SC2=O)=CC=C(Cl)C3.Cl",
    "meta_data": {
        "InChI": "InChI=1S/C15H18ClN3O3S.ClH/c16-11-1-2-13-12(9-11)19(15(22)23-13)10-14(21)18-5-3-17(4-6-18)7-8-20;/h1-2,9,20H,3-8,10H2;1H",
        "InChIKey": null,
        "Canonical SMILES": "Cl.O=C1SC2=CC=C(Cl)C=C2N1CC(=O)N3CCN(CCO)CC3",
        "Molecular Formula": "C<sub>15</sub>H<sub>18</sub>ClN<sub>3</sub>O<sub>3</sub>S.ClH",
        "Molecular Mass": "",
        "Melting Point": "159-161 °C"
    }
}