{
    "cas_no": "127-68-4",
    "key_name": "Benzenesulfonic acid, 3-nitro-, sodium salt (1:1)",
    "cn_name": null,
    "alternate_name": "Benzenesulfonic acid, 3-nitro-, sodium salt (1:1);Benzenesulfonic acid, <em>m</em>-nitro-, sodium salt;Benzenesulfonic acid, 3-nitro-, sodium salt;Nitrol S;Nacan;Sodium <em>m</em>-nitrobenzenesulfonate;Sodium 3-nitrobenzenesulfonate;<em>m</em>-Nitrobenzenesulfonic acid sodium salt;Ludigol;3-Nitrobenzenesulfonic acid sodium salt;m-Nitrobenzenesulfonic acid sodium salt;Sodium m-nitrobenzenesulfonate;Sodium 3-nitrophenylsulfonate;Register liquid;Resist S;Fangranyan S;Resist salt L",
    "duplicated_cas_no": "55945-59-0",
    "SMILES": "S(=O)(=O)(O)C1=CC(N(=O)=O)=CC=C1.[Na]",
    "meta_data": {
        "InChI": "InChI=1S/C6H5NO5S.Na/c8-7(9)5-2-1-3-6(4-5)13(10,11)12;/h1-4H,(H,10,11,12);",
        "InChIKey": null,
        "Canonical SMILES": "[Na].O=N(=O)C1=CC=CC(=C1)S(=O)(=O)O",
        "Molecular Formula": "C<sub>6</sub>H<sub>5</sub>NO<sub>5</sub>S.Na",
        "Molecular Mass": "",
        "Boiling Point": "217.5 °C",
        "Melting Point": "52.3 °C"
    }
}