{
    "cas_no": "52287-51-1",
    "key_name": "6-Bromo-1,4-benzodioxane",
    "cn_name": "6-溴-1,4-苯并二氧烷;",
    "alternate_name": "1,4-Benzodioxin, 6-bromo-2,3-dihydro-;6-Bromo-2,3-dihydro-1,4-benzodioxin;6-Bromo-1,4-benzodioxan;6-Bromo-1,4-benzodioxane;3,4-Ethylenedioxybromobenzene;4-Bromo-1,2-ethylenedioxybenzene;6-Bromo-2,3-dihydrobenzo[<em>b</em>][1,4]dioxine",
    "duplicated_cas_no": "",
    "SMILES": "BrC=1C=C2C(=CC1)OCCO2",
    "meta_data": {
        "InChI": "InChI=1S/C8H7BrO2/c9-6-1-2-7-8(5-6)11-4-3-10-7/h1-2,5H,3-4H2",
        "InChIKey": null,
        "Canonical SMILES": "BrC1=CC=C2OCCOC2=C1",
        "Molecular Formula": "C<sub>8</sub>H<sub>7</sub>BrO<sub>2</sub>",
        "Molecular Mass": "215.04",
        "Boiling Point": "153-154 °C @ Press: 23 Torr"
    }
}