{
    "cas_no": "92623-83-1",
    "key_name": "Pravadoline",
    "cn_name": "普拉朵林; (4-甲氧基苯基)-[2-甲基-1-(2-吗啉-4-乙基)吲哚-3-基]甲酮;",
    "alternate_name": "Methanone, (4-methoxyphenyl)[2-methyl-1-[2-(4-morpholinyl)ethyl]-1<em>H</em>-indol-3-yl]-;(4-Methoxyphenyl)[2-methyl-1-[2-(4-morpholinyl)ethyl]-1<em>H</em>-indol-3-yl]methanone;Pravadoline;WIN 48098;(4-Methoxyphenyl)(2-methyl-1-(2-morpholinoethyl)-1<em>H</em>-indol-3-yl)methanone;(4-Methoxyphenyl)-[2-methyl-1-(2-morpholin-4-ylethyl)indol-3-yl]methanone",
    "duplicated_cas_no": "",
    "SMILES": "C(=O)(C=1C=2C(N(CCN3CCOCC3)C1C)=CC=CC2)C4=CC=C(OC)C=C4",
    "meta_data": {
        "InChI": "InChI=1S/C23H26N2O3/c1-17-22(23(26)18-7-9-19(27-2)10-8-18)20-5-3-4-6-21(20)25(17)12-11-24-13-15-28-16-14-24/h3-10H,11-16H2,1-2H3",
        "InChIKey": null,
        "Canonical SMILES": "O=C(C1=CC=C(OC)C=C1)C=2C=3C=CC=CC3N(C2C)CCN4CCOCC4",
        "Molecular Formula": "C<sub>23</sub>H<sub>26</sub>N<sub>2</sub>O<sub>3</sub>",
        "Molecular Mass": "378.46",
        "Melting Point": "104-105 °C"
    }
}