{
    "cas_no": "7335-27-5",
    "key_name": "Ethyl 4-chlorobenzoate",
    "cn_name": "4-氯苯甲酸乙酯;",
    "alternate_name": "Benzoic acid, 4-chloro-, ethyl ester;Benzoic acid, <em>p</em>-chloro-, ethyl ester;Ethyl <em>p</em>-chlorobenzoate;<em>p</em>-(Ethoxycarbonyl)phenyl chloride;Ethyl 4-chlorobenzoate;4-Chlorobenzoic acid ethyl ester;NSC 10859;4-(Ethoxycarbonyl)chlorobenzene;4-(Ethoxycarbonyl)phenyl chloride",
    "duplicated_cas_no": "",
    "SMILES": "C(OCC)(=O)C1=CC=C(Cl)C=C1",
    "meta_data": {
        "InChI": "InChI=1S/C9H9ClO2/c1-2-12-9(11)7-3-5-8(10)6-4-7/h3-6H,2H2,1H3",
        "InChIKey": null,
        "Canonical SMILES": "O=C(OCC)C1=CC=C(Cl)C=C1",
        "Molecular Formula": "C<sub>9</sub>H<sub>9</sub>ClO<sub>2</sub>",
        "Molecular Mass": "184.62",
        "Boiling Point": "237.5 °C",
        "Melting Point": "71-73 °C"
    }
}