{
    "cas_no": "503-09-3",
    "key_name": "Epifluorohydrin",
    "cn_name": "环氧氟丙烷;1,2-环氧-3-氟丙烷;",
    "alternate_name": "Oxirane, 2-(fluoromethyl)-;Propane, 1,2-epoxy-3-fluoro-;Epifluorohydrin;Oxirane, (fluoromethyl)-;2-(Fluoromethyl)oxirane;3-Fluoropropene 1,2-oxide;1,2-Epoxy-3-fluoropropane;(Fluoromethyl)oxirane;1-Fluoro-2,3-epoxypropane;Oxirane, (fluoromethyl)-, (±)-;3-Fluoro-1,2-epoxypropane;NSC 21303;NSC 88608;(±)-2-(Fluoromethyl)oxirane",
    "duplicated_cas_no": "103129-23-3",
    "SMILES": "C(F)C1CO1",
    "meta_data": {
        "InChI": "InChI=1S/C3H5FO/c4-1-3-2-5-3/h3H,1-2H2",
        "InChIKey": null,
        "Canonical SMILES": "FCC1OC1",
        "Molecular Formula": "C<sub>3</sub>H<sub>5</sub>FO",
        "Molecular Mass": "76.07",
        "Boiling Point": "85.5 °C",
        "Density": "1.090 g/cm³ @ Temp: 20 °C"
    }
}