{
    "cas_no": "68443-63-0",
    "key_name": "Hexanoic acid, 2-ethyl-, butyl ester",
    "cn_name": "2-乙基己酸正丁酯;",
    "alternate_name": "Hexanoic acid, 2-ethyl-, butyl ester;Butyl 2-ethylhexanoate;2-Ethyl-hexanoic acid butyl ester",
    "duplicated_cas_no": "",
    "SMILES": "C(C(OCCCC)=O)(CCCC)CC",
    "meta_data": {
        "InChI": "InChI=1S/C12H24O2/c1-4-7-9-11(6-3)12(13)14-10-8-5-2/h11H,4-10H2,1-3H3",
        "InChIKey": null,
        "Canonical SMILES": "O=C(OCCCC)C(CC)CCCC",
        "Molecular Formula": "C<sub>12</sub>H<sub>24</sub>O<sub>2</sub>",
        "Molecular Mass": "200.32",
        "Boiling Point": "110-111 °C @ Press: 18 Torr"
    }
}