{
    "cas_no": "1149-26-4",
    "key_name": "Benzyloxycarbonyl-<span class=\"text-smallcaps\">L</span>-valine",
    "cn_name": "CBZ-L-缬氨酸;苯甲氧羰基-L-缬氨酸;",
    "alternate_name": "<span class=\"text-smallcaps\">L</span>-Valine, <em>N</em>-[(phenylmethoxy)carbonyl]-;Valine, <em>N</em>-carboxy-, <em>N</em>-benzyl ester, <span class=\"text-smallcaps\">L</span>-;<em>N</em>-[(Phenylmethoxy)carbonyl]-<span class=\"text-smallcaps\">L</span>-valine;<em>N</em>-Carbobenzoxy-<span class=\"text-smallcaps\">L</span>-valine;<em>N</em>-(Benzyloxycarbonyl)valine;Benzyloxycarbonyl-<span class=\"text-smallcaps\">L</span>-valine;<em>N</em>-Carbobenzoxyvaline;<em>N</em>-(Benzyloxycarbonyl)-<span class=\"text-smallcaps\">L</span>-valine;Carbobenzoxy-<span class=\"text-smallcaps\">L</span>-valine;<em>N</em>-Benzyloxycarbonyl-(<em>S</em>)-valine;CBZ-<span class=\"text-smallcaps\">L</span>-valine;<em>N</em>-Carbobenzyloxy-<span class=\"text-smallcaps\">L</span>-valine;(+)-<em>N</em>-[(Phenylmethoxy)carbonyl]-<span class=\"text-smallcaps\">L</span>-valine;(<em>S</em>)-2-[(Benzyloxycarbonyl)amino]-3-methylbutanoic acid;(2S)-2-[(Benzyloxycarbonyl)amino]-3-methylbutanoic acid;(2S)-3-Methyl-2-(phenylmethoxycarbonylamino)butanoic acid;<em>N</em>-Cbz-<span class=\"text-smallcaps\">L</span>-valine",
    "duplicated_cas_no": "120627-04-5",
    "SMILES": "[C@H](NC(OCC1=CC=CC=C1)=O)(C(C)C)C(O)=O",
    "meta_data": {
        "InChI": "InChI=1S/C13H17NO4/c1-9(2)11(12(15)16)14-13(17)18-8-10-6-4-3-5-7-10/h3-7,9,11H,8H2,1-2H3,(H,14,17)(H,15,16)/t11-/m0/s1",
        "InChIKey": null,
        "Canonical SMILES": "O=C(OCC=1C=CC=CC1)NC(C(=O)O)C(C)C",
        "Molecular Formula": "C<sub>13</sub>H<sub>17</sub>NO<sub>4</sub>",
        "Molecular Mass": "251.28",
        "Melting Point": "64-65 °C"
    }
}