{
    "cas_no": "70-23-5",
    "key_name": "Ethyl bromopyruvate",
    "cn_name": "3-溴丙酮酸乙酯;",
    "alternate_name": "Propanoic acid, 3-bromo-2-oxo-, ethyl ester;Pyruvic acid, bromo-, ethyl ester;Ethyl bromopyruvate;β-Bromopyruvic acid ethyl ester;Ethyl 3-bromopyruvate;Bromopyruvic acid ethyl ester;Ethyl α-bromopyruvate;3-Bromopyruvic acid ethyl ester;Ethyl 3-bromo-2-oxopropanoate;Ethyl 3-bromo-2-oxopropionate;3-Bromo-2-oxopropanoic acid ethyl ester;NSC 62182;3-Bromo-2-(oxo)propionic acid ethyl ester",
    "duplicated_cas_no": "",
    "SMILES": "C(C(CBr)=O)(OCC)=O",
    "meta_data": {
        "InChI": "InChI=1S/C5H7BrO3/c1-2-9-5(8)4(7)3-6/h2-3H2,1H3",
        "InChIKey": null,
        "Canonical SMILES": "O=C(OCC)C(=O)CBr",
        "Molecular Formula": "C<sub>5</sub>H<sub>7</sub>BrO<sub>3</sub>",
        "Molecular Mass": "195.01",
        "Boiling Point": "116-121 °C @ Press: 27 Torr",
        "Density": "1.561 g/cm³ @ Temp: 20 °C"
    }
}