{
    "cas_no": "351-35-9",
    "key_name": "[3-(Trifluoromethyl)phenyl]acetic acid",
    "cn_name": "间三氟甲基苯乙酸;",
    "alternate_name": "Benzeneacetic acid, 3-(trifluoromethyl)-;Acetic acid, (α,α,α-trifluoro-<em>m</em>-tolyl)-;3-(Trifluoromethyl)benzeneacetic acid;(<em>m</em>-Trifluoromethylphenyl)acetic acid;[3-(Trifluoromethyl)phenyl]acetic acid;3-Trifluoromethylbenzeneacetic acid;(α,α,α-Trifluoro-<em>m</em>-tolyl)acetic acid;2-[3-(Trifluoromethyl)phenyl]acetic acid;<em>m</em>-(Trifluoromethyl)benzeneacetic acid",
    "duplicated_cas_no": "",
    "SMILES": "C(C(O)=O)C1=CC(C(F)(F)F)=CC=C1",
    "meta_data": {
        "InChI": "InChI=1S/C9H7F3O2/c10-9(11,12)7-3-1-2-6(4-7)5-8(13)14/h1-4H,5H2,(H,13,14)",
        "InChIKey": null,
        "Canonical SMILES": "O=C(O)CC1=CC=CC(=C1)C(F)(F)F",
        "Molecular Formula": "C<sub>9</sub>H<sub>7</sub>F<sub>3</sub>O<sub>2</sub>",
        "Molecular Mass": "204.15",
        "Melting Point": "77 °C"
    }
}