{
    "cas_no": "124-94-7",
    "key_name": "Triamcinolone",
    "cn_name": "曲安西龙;9a-氟-11b,16a,17a,21-四羟基-1,4-孕烯-3,20-二酮;",
    "alternate_name": "Pregna-1,4-diene-3,20-dione, 9-fluoro-11,16,17,21-tetrahydroxy-, (11β,16α)-;Pregna-1,4-diene-3,20-dione, 9-fluoro-11β,16α,17,21-tetrahydroxy-;(11β,16α)-9-Fluoro-11,16,17,21-tetrahydroxypregna-1,4-diene-3,20-dione;Aristocort;9α-Fluoro-16α-hydroxyprednisolone;9α-Fluoro-11β,16α,17α,21-tetrahydroxypregna-1,4-diene-3,20-dione;9α-Fluoro-11β,16α,17,21-tetrahydroxypregna-1,4-diene-3,20-dione;Fluoxyprednisolone;Rodinolone;11β,16α,17α,21-Tetrahydroxy-9α-fluoro-1,4-pregnadiene-3,20-dione;11β,16α,17α,21-Tetrahydroxy-9α-fluoro-Δ<sup>1,4</sup>-pregnadiene-3,20-dione;Triamcinolone;9-Fluoro-11β,16α,17,21-tetrahydroxypregna-1,4-diene-3,20-dione;Triamcinolon;Delphicort;Volon;Triamcinlon;Adcortyl;CL 19823;Ledercort;Kenacort;Polcortolon;Kenacort AG;Tricortale;Omicilon;Cinolone;NSC 13397;Mycolog;Fluoxiprednisolone;MeSH ID: D014221",
    "duplicated_cas_no": "83474-03-7;918121-67-2",
    "SMILES": "F[C@@]12[C@]([C@]3([C@](C)(C[C@@H]1O)[C@](C(CO)=O)(O)[C@H](O)C3)[H])(CCC=4[C@]2(C)C=CC(=O)C4)[H]",
    "meta_data": {
        "InChI": "InChI=1S/C21H27FO6/c1-18-6-5-12(24)7-11(18)3-4-13-14-8-15(25)21(28,17(27)10-23)19(14,2)9-16(26)20(13,18)22/h5-7,13-16,23,25-26,28H,3-4,8-10H2,1-2H3/t13-,14-,15+,16-,18-,19-,20-,21-/m0/s1",
        "InChIKey": null,
        "Canonical SMILES": "O=C1C=CC2(C(=C1)CCC3C4CC(O)C(O)(C(=O)CO)C4(C)CC(O)C32F)C",
        "Molecular Formula": "C<sub>21</sub>H<sub>27</sub>FO<sub>6</sub>",
        "Molecular Mass": "394.43",
        "Melting Point": "269-271 °C"
    }
}