{
    "cas_no": "3173-56-6",
    "key_name": "Benzyl isocyanate",
    "cn_name": "异氰酸苄酯;",
    "alternate_name": "Benzene, (isocyanatomethyl)-;Isocyanic acid, benzyl ester;(Isocyanatomethyl)benzene;α-Isocyanatotoluene;Benzyl isocyanate;Phenylmethyl isocyanate;NSC 118415;1-(Isocyanatomethyl)benzene",
    "duplicated_cas_no": "1025436-19-4",
    "SMILES": "C(N=C=O)C1=CC=CC=C1",
    "meta_data": {
        "InChI": "InChI=1S/C8H7NO/c10-7-9-6-8-4-2-1-3-5-8/h1-5H,6H2",
        "InChIKey": null,
        "Canonical SMILES": "O=C=NCC=1C=CC=CC1",
        "Molecular Formula": "C<sub>8</sub>H<sub>7</sub>NO",
        "Molecular Mass": "133.15",
        "Boiling Point": "88-91 °C @ Press: 20 Torr",
        "Melting Point": "87 °C",
        "Density": "1.0838 g/cm³ @ Temp: 20 °C"
    }
}