{
    "cas_no": "62-55-5",
    "key_name": "Thioacetamide",
    "cn_name": "硫代乙酰胺;",
    "alternate_name": "Ethanethioamide;Acetamide, thio-;Acetimidic acid, thio-;Acetothioamide;TAA;Thioacetamide;Thiacetamide;NSC 2120;MeSH ID: D013853",
    "duplicated_cas_no": "1482-80-0",
    "SMILES": "C(C)(N)=S",
    "meta_data": {
        "InChI": "InChI=1S/C2H5NS/c1-2(3)4/h1H3,(H2,3,4)",
        "InChIKey": null,
        "Canonical SMILES": "S=C(N)C",
        "Molecular Formula": "C<sub>2</sub>H<sub>5</sub>NS",
        "Molecular Mass": "75.13",
        "Melting Point": "113-114 °C"
    }
}