{
    "cas_no": "42487-72-9",
    "key_name": "2-(Diethylamino)-4-hydroxy-6-methylpyrimidine",
    "cn_name": null,
    "alternate_name": "4(3<em>H</em>)-Pyrimidinone, 2-(diethylamino)-6-methyl-;4(1<em>H</em>)-Pyrimidinone, 2-(diethylamino)-6-methyl-;2-(Diethylamino)-6-methyl-4(3<em>H</em>)-pyrimidinone;2-(Diethylamino)-4-hydroxy-6-methylpyrimidine;2-(Diethylamino)-6-methyl-4-hydroxypyrimidine;2-Diethylamino-6-methylpyrimidin-4-ol;2-(Diethylamino)-6-methyl-3,4-dihydropyrimidin-4-one;2-(Diethylamino)-6-methyl-1<em>H</em>-pyrimidin-4-one",
    "duplicated_cas_no": "",
    "SMILES": "N(CC)(CC)C=1NC(C)=CC(=O)N1",
    "meta_data": {
        "InChI": "InChI=1S/C9H15N3O/c1-4-12(5-2)9-10-7(3)6-8(13)11-9/h6H,4-5H2,1-3H3,(H,10,11,13)",
        "InChIKey": null,
        "Canonical SMILES": "O=C1N=C(NC(=C1)C)N(CC)CC",
        "Molecular Formula": "C<sub>9</sub>H<sub>15</sub>N<sub>3</sub>O",
        "Molecular Mass": "181.23",
        "Melting Point": "133-134 °C"
    }
}