{
    "cas_no": "824-75-9",
    "key_name": "4-Fluorobenzamide",
    "cn_name": "对氟苯甲酰胺;4-氟苯甲酰胺;",
    "alternate_name": "Benzamide, 4-fluoro-;Benzamide, <em>p</em>-fluoro-;4-Fluorobenzamide;<em>p</em>-Fluorobenzamide;<em>p</em>-Fluorobenzoic acid amide;NSC 102765",
    "duplicated_cas_no": "",
    "SMILES": "C(N)(=O)C1=CC=C(F)C=C1",
    "meta_data": {
        "InChI": "InChI=1S/C7H6FNO/c8-6-3-1-5(2-4-6)7(9)10/h1-4H,(H2,9,10)",
        "InChIKey": null,
        "Canonical SMILES": "O=C(N)C1=CC=C(F)C=C1",
        "Molecular Formula": "C<sub>7</sub>H<sub>6</sub>FNO",
        "Molecular Mass": "139.13",
        "Melting Point": "155.5 °C"
    }
}