{
    "cas_no": "95652-81-6",
    "key_name": "6-Chloro-2-methoxy-3-pyridinecarboxaldehyde",
    "cn_name": null,
    "alternate_name": "3-Pyridinecarboxaldehyde, 6-chloro-2-methoxy-;6-Chloro-2-methoxy-3-pyridinecarboxaldehyde;6-Chloro-3-formyl-2-methoxypyridine;6-Chloro-2-methoxynicotinaldehyde",
    "duplicated_cas_no": "",
    "SMILES": "C(=O)C1=C(OC)N=C(Cl)C=C1",
    "meta_data": {
        "InChI": "InChI=1S/C7H6ClNO2/c1-11-7-5(4-10)2-3-6(8)9-7/h2-4H,1H3",
        "InChIKey": null,
        "Canonical SMILES": "O=CC1=CC=C(Cl)N=C1OC",
        "Molecular Formula": "C<sub>7</sub>H<sub>6</sub>ClNO<sub>2</sub>",
        "Molecular Mass": "171.58",
        "Boiling Point": "90 °C @ Press: 3 Torr",
        "Melting Point": "62-64 °C"
    }
}