{
    "cas_no": "65873-72-5",
    "key_name": "6-Methoxy-3-pyridinecarboxaldehyde",
    "cn_name": "6-甲氧基-3-吡啶甲醛;2-甲氧基-5-吡啶甲醛;",
    "alternate_name": "3-Pyridinecarboxaldehyde, 6-methoxy-;6-Methoxy-3-pyridinecarboxaldehyde;6-Methoxynicotinaldehyde;6-Methoxypyridin-3-carboxaldehyde;2-Methoxypyridine-5-carboxaldehyde;5-Formyl-2-methoxypyridine;3-Formyl-6-methoxypyridine",
    "duplicated_cas_no": "",
    "SMILES": "C(=O)C=1C=CC(OC)=NC1",
    "meta_data": {
        "InChI": "InChI=1S/C7H7NO2/c1-10-7-3-2-6(5-9)4-8-7/h2-5H,1H3",
        "InChIKey": null,
        "Canonical SMILES": "O=CC1=CN=C(OC)C=C1",
        "Molecular Formula": "C<sub>7</sub>H<sub>7</sub>NO<sub>2</sub>",
        "Molecular Mass": "137.14",
        "Boiling Point": "65-70 °C @ Press: 12 Torr",
        "Melting Point": "48-49 °C"
    }
}