{
    "cas_no": "32595-59-8",
    "key_name": "α-Amino-β-hydroxy-2-thiophenepropanoic acid",
    "cn_name": null,
    "alternate_name": "2-Thiophenepropanoic acid, α-amino-β-hydroxy-;2-Thiopheneserine;α-Amino-β-hydroxy-2-thiophenepropanoic acid;β-(2-Thienyl)serine;3-(2-Thienyl)-<span class=\"text-smallcaps\">L</span>-serine;NSC 76232;2-Amino-3-hydroxy-3-(thiophen-2-yl)propanoic acid;2-Amino-3-hydroxy-3-(thiophen-2-yl)propanoicacid",
    "duplicated_cas_no": "",
    "SMILES": "C(C(C(O)=O)N)(O)C1=CC=CS1",
    "meta_data": {
        "InChI": "InChI=1S/C7H9NO3S/c8-5(7(10)11)6(9)4-2-1-3-12-4/h1-3,5-6,9H,8H2,(H,10,11)",
        "InChIKey": null,
        "Canonical SMILES": "O=C(O)C(N)C(O)C=1SC=CC1",
        "Molecular Formula": "C<sub>7</sub>H<sub>9</sub>NO<sub>3</sub>S",
        "Molecular Mass": "187.22",
        "Melting Point": "194-195 °C"
    }
}