{
    "cas_no": "113-48-4",
    "key_name": "Dicarboximide",
    "cn_name": "增效胺;协力克;N-(2-乙基己基)-双环(2,2,1)-5-庚烯-2,3-二甲酰亚胺;",
    "alternate_name": "4,7-Methano-1<em>H</em>-isoindole-1,3(2<em>H</em>)-dione, 2-(2-ethylhexyl)-3a,4,7,7a-tetrahydro-;5-Norbornene-2,3-dicarboximide, <em>N</em>-(2-ethylhexyl)-;2-(2-Ethylhexyl)-3a,4,7,7a-tetrahydro-4,7-methano-1<em>H</em>-isoindole-1,3(2<em>H</em>)-dione;MGK 264;<em>N</em>-(2-Ethylhexyl)bicyclo-(2,2,1)-5-heptene-2,3-dicarboximide;Octacide 264;Synergist 264;Van Dyk 264;<em>N</em>-(2-Ethylhexyl)-5-norbornene-2,3-dicarboximide;Dicarboximide;Carboximide;Octylbicycloheptenedicarboximide;Synepirin 222;NSC 36678;NSC 406879;ENT 8184;Zengxiaoan;2-(2-Ethylhexyl)-3a,4,7,7a-tetrahydro-1<em>H</em>-4,7-methanoisoindole-1,3(2<em>H</em>)-dione;<em>N</em>-(2-Etylhexyl)bicyclo[2.2.1]hept-5-ene-2,3-dicarboxyimide",
    "duplicated_cas_no": "16916-65-7;16916-66-8;56195-42-7;70322-82-6;145608-27-1",
    "SMILES": "O=C1C2C(C3CC2C=C3)C(=O)N1CC(CCCC)CC",
    "meta_data": {
        "InChI": "InChI=1S/C17H25NO2/c1-3-5-6-11(4-2)10-18-16(19)14-12-7-8-13(9-12)15(14)17(18)20/h7-8,11-15H,3-6,9-10H2,1-2H3",
        "InChIKey": null,
        "Canonical SMILES": "O=C1N(C(=O)C2C3C=CC(C3)C12)CC(CC)CCCC",
        "Molecular Formula": "C<sub>17</sub>H<sub>25</sub>NO<sub>2</sub>",
        "Molecular Mass": "275.39",
        "Boiling Point": "158.2 °C @ Press: 2 Torr",
        "Melting Point": "-20 °C"
    }
}