{
    "cas_no": "87269-87-2",
    "key_name": "Cyclopenta[<em>b</em>]pyrrole-2-carboxylic acid, octahydro-, phenylmethyl ester, hydrochloride (1:1), (2<em>S</em>,3a<em>S</em>,6a<em>S</em>)-",
    "cn_name": null,
    "alternate_name": "Cyclopenta[<em>b</em>]pyrrole-2-carboxylic acid, octahydro-, phenylmethyl ester, hydrochloride (1:1), (2<em>S</em>,3a<em>S</em>,6a<em>S</em>)-;Cyclopenta[<em>b</em>]pyrrole-2-carboxylic acid, octahydro-, phenylmethyl ester, hydrochloride, [2<em>S</em>-(2α,3aβ,6aβ)]-;Cyclopenta[<em>b</em>]pyrrole-2-carboxylic acid, octahydro-, phenylmethyl ester, hydrochloride, (2<em>S</em>,3a<em>S</em>,6a<em>S</em>)-;(2S,3aS,6aS)-octahydrocyclopenta[<em>b</em>]pyrrole-2-carboxylic acid benzyl ester hydrochloride;Benzyl (2S,3aS,6aS)-octahydrocyclopenta[<em>b</em>]pyrrole-2-carboxylate hydrochloride;(2S,3<em>a</em>S,6<em>a</em>S)-Octahydrocyclopenta[<em>b</em>]pyrrole-2-carboxylic acid benzyl ester hydrochloride",
    "duplicated_cas_no": "",
    "SMILES": "C(OCC1=CC=CC=C1)(=O)[C@@H]2C[C@]3([C@@](N2)(CCC3)[H])[H].Cl",
    "meta_data": {
        "InChI": "InChI=1S/C15H19NO2.ClH/c17-15(18-10-11-5-2-1-3-6-11)14-9-12-7-4-8-13(12)16-14;/h1-3,5-6,12-14,16H,4,7-10H2;1H/t12-,13-,14-;/m0./s1",
        "InChIKey": null,
        "Canonical SMILES": "Cl.O=C(OCC=1C=CC=CC1)C2NC3CCCC3C2",
        "Molecular Formula": "C<sub>15</sub>H<sub>19</sub>NO<sub>2</sub>.ClH",
        "Molecular Mass": "",
        "Melting Point": "178-180 °C"
    }
}