{
    "cas_no": "21120-36-5",
    "key_name": "2-Fluoro-1-phenyl-1-propanone",
    "cn_name": null,
    "alternate_name": "1-Propanone, 2-fluoro-1-phenyl-;Propiophenone, 2-fluoro-;2-Fluoro-1-phenyl-1-propanone;1-Fluoroethyl phenyl ketone;2-Fluoropropiophenone;1-Phenyl-2-fluoro-1-propanone;α-Fluroropropiophenone;α-Fluoropropiophenone",
    "duplicated_cas_no": "",
    "SMILES": "C(C(C)F)(=O)C1=CC=CC=C1",
    "meta_data": {
        "InChI": "InChI=1S/C9H9FO/c1-7(10)9(11)8-5-3-2-4-6-8/h2-7H,1H3",
        "InChIKey": null,
        "Canonical SMILES": "O=C(C=1C=CC=CC1)C(F)C",
        "Molecular Formula": "C<sub>9</sub>H<sub>9</sub>FO",
        "Molecular Mass": "152.17",
        "Boiling Point": "95-99 °C @ Press: 19 Torr"
    }
}