{
    "cas_no": "591-18-4",
    "key_name": "1-Bromo-3-iodobenzene",
    "cn_name": "1-溴-3-碘苯;",
    "alternate_name": "Benzene, 1-bromo-3-iodo-;1-Bromo-3-iodobenzene;<em>m</em>-Bromoiodobenzene;3-Bromophenyl iodide;3-Iodobromobenzene;3-Bromoiodobenzene;1-Iodo-3-bromobenzene;3-Bromo-1-iodobenzene;3-Iodo-1-bromobenzene;3-Iodophenyl bromide",
    "duplicated_cas_no": "",
    "SMILES": "BrC1=CC(I)=CC=C1",
    "meta_data": {
        "InChI": "InChI=1S/C6H4BrI/c7-5-2-1-3-6(8)4-5/h1-4H",
        "InChIKey": null,
        "Canonical SMILES": "BrC1=CC=CC(I)=C1",
        "Molecular Formula": "C<sub>6</sub>H<sub>4</sub>BrI",
        "Molecular Mass": "282.90",
        "Boiling Point": "252 °C",
        "Melting Point": "-9.3 °C"
    }
}