{
    "cas_no": "10538-49-5",
    "key_name": "3-(2,5-Dimethoxyphenyl)propionic acid",
    "cn_name": "3-(2,5-二甲氧苯基)丙酸;",
    "alternate_name": "Benzenepropanoic acid, 2,5-dimethoxy-;Hydrocinnamic acid, 2,5-dimethoxy-;2,5-Dimethoxybenzenepropanoic acid;2,5-Dimethoxyhydrocinnamic acid;3-(2,5-Dimethoxyphenyl)propionic acid;2,5-Dimethoxydihydrocinnamic acid;3-(2,5-Dimethoxyphenyl)propanoic acid",
    "duplicated_cas_no": "",
    "SMILES": "C(CC(O)=O)C1=C(OC)C=CC(OC)=C1",
    "meta_data": {
        "InChI": "InChI=1S/C11H14O4/c1-14-9-4-5-10(15-2)8(7-9)3-6-11(12)13/h4-5,7H,3,6H2,1-2H3,(H,12,13)",
        "InChIKey": null,
        "Canonical SMILES": "O=C(O)CCC1=CC(OC)=CC=C1OC",
        "Molecular Formula": "C<sub>11</sub>H<sub>14</sub>O<sub>4</sub>",
        "Molecular Mass": "210.23",
        "Melting Point": "65.5 °C"
    }
}