{
    "cas_no": "519-09-5",
    "key_name": "Benzoylecgonine",
    "cn_name": null,
    "alternate_name": "8-Azabicyclo[3.2.1]octane-2-carboxylic acid, 3-(benzoyloxy)-8-methyl-, (1<em>R</em>,2<em>R</em>,3<em>S</em>,5<em>S</em>)-;1α<span class=\"text-smallcaps\">H</smallcap>,5α<smallcap>H</span>-Tropane-2β-carboxylic acid, 3β-hydroxy-, benzoate (ester);8-Azabicyclo[3.2.1]octane-2-carboxylic acid, 3-(benzoyloxy)-8-methyl-, [1<em>R</em>-(<em>exo</em>,<em>exo</em>)]-;Ecgonine, benzoate;(1<em>R</em>,2<em>R</em>,3<em>S</em>,5<em>S</em>)-3-(Benzoyloxy)-8-methyl-8-azabicyclo[3.2.1]octane-2-carboxylic acid;Benzoylecgonine;<em>O</em>-Benzoylecgonine;<em>O</em>-Benzoyl-(-)-ecgonine;(-)-Benzoylecgonine",
    "duplicated_cas_no": "",
    "SMILES": "C(O)(=O)[C@@H]1[C@@]2(N(C)[C@](C[C@@H]1OC(=O)C3=CC=CC=C3)(CC2)[H])[H]",
    "meta_data": {
        "InChI": "InChI=1S/C16H19NO4/c1-17-11-7-8-12(17)14(15(18)19)13(9-11)21-16(20)10-5-3-2-4-6-10/h2-6,11-14H,7-9H2,1H3,(H,18,19)/t11-,12+,13-,14+/m0/s1",
        "InChIKey": null,
        "Canonical SMILES": "O=C(OC1CC2N(C)C(CC2)C1C(=O)O)C=3C=CC=CC3",
        "Molecular Formula": "C<sub>16</sub>H<sub>19</sub>NO<sub>4</sub>",
        "Molecular Mass": "289.33",
        "Melting Point": "195 °C"
    }
}