{
    "cas_no": "102-49-8",
    "key_name": "3,4-Dichlorobenzenemethanamine",
    "cn_name": "3,4-二氯苄胺;",
    "alternate_name": "Benzenemethanamine, 3,4-dichloro-;Benzylamine, 3,4-dichloro-;3,4-Dichlorobenzenemethanamine;3,4-Dichlorobenzylamine;(3,4-Dichlorophenyl)methanamine;((3,4-Dichlorophenyl)methyl)amine;NSC 25065;1-(3,4-Dichlorophenyl)methanamine",
    "duplicated_cas_no": "",
    "SMILES": "C(N)C1=CC(Cl)=C(Cl)C=C1",
    "meta_data": {
        "InChI": "InChI=1S/C7H7Cl2N/c8-6-2-1-5(4-10)3-7(6)9/h1-3H,4,10H2",
        "InChIKey": null,
        "Canonical SMILES": "ClC1=CC=C(C=C1Cl)CN",
        "Molecular Formula": "C<sub>7</sub>H<sub>7</sub>Cl<sub>2</sub>N",
        "Molecular Mass": "176.04",
        "Boiling Point": "139-140 °C @ Press: 17 Torr",
        "Melting Point": "332-333 °C"
    }
}