{
    "cas_no": "1124-13-6",
    "key_name": "(±)-<em>trans</em>-1,2-Cyclobutanedicarboxylic acid",
    "cn_name": null,
    "alternate_name": "1,2-Cyclobutanedicarboxylic acid, (1<em>R</em>,2<em>R</em>)-<em>rel</em>-;1,2-Cyclobutanedicarboxylic acid, <em>trans</em>-;<em>rel</em>-(1<em>R</em>,2<em>R</em>)-1,2-Cyclobutanedicarboxylic acid;<em>trans</em>-1,2-Cyclobutanedicarboxylic acid;(±)-<em>trans</em>-1,2-Cyclobutanedicarboxylic acid;NSC 527264",
    "duplicated_cas_no": "58616-94-7",
    "SMILES": "C(O)(=O)[C@H]1[C@H](C(O)=O)CC1",
    "meta_data": {
        "InChI": "InChI=1/C6H8O4/c7-5(8)3-1-2-4(3)6(9)10/h3-4H,1-2H2,(H,7,8)(H,9,10)/t3-,4-/s2",
        "InChIKey": null,
        "Canonical SMILES": "O=C(O)C1CCC1C(=O)O",
        "Molecular Formula": "C<sub>6</sub>H<sub>8</sub>O<sub>4</sub>",
        "Molecular Mass": "144.13",
        "Boiling Point": "140 °C @ Press: 2 Torr",
        "Melting Point": "130-131 °C"
    }
}