{
    "cas_no": "71005-12-4",
    "key_name": "2,3-Dihydro-3-oxo-1<em>H</em>-indene-4-carboxylic acid",
    "cn_name": null,
    "alternate_name": "1<em>H</em>-Indene-4-carboxylic acid, 2,3-dihydro-3-oxo-;4-Indancarboxylic acid, 3-oxo-;2,3-Dihydro-3-oxo-1<em>H</em>-indene-4-carboxylic acid;3-Oxoindan-4-carboxylic acid;3-Oxo-2,3-dihydro-1<em>H</em>-indene-4-carboxylic acid",
    "duplicated_cas_no": "",
    "SMILES": "C(O)(=O)C1=C2C(=CC=C1)CCC2=O",
    "meta_data": {
        "InChI": "InChI=1S/C10H8O3/c11-8-5-4-6-2-1-3-7(9(6)8)10(12)13/h1-3H,4-5H2,(H,12,13)",
        "InChIKey": null,
        "Canonical SMILES": "O=C(O)C1=CC=CC2=C1C(=O)CC2",
        "Molecular Formula": "C<sub>10</sub>H<sub>8</sub>O<sub>3</sub>",
        "Molecular Mass": "176.17",
        "Melting Point": "159.5-161.5 °C"
    }
}