{
    "cas_no": "7787-87-3",
    "key_name": "(1-Chloroethyl)trimethylsilane",
    "cn_name": "(1-氯乙基)三甲基硅烷;(1-氯乙基)三甲基硅烷;",
    "alternate_name": "Silane, (1-chloroethyl)trimethyl-;(1-Chloroethyl)trimethylsilane;α-Chloroethyltrimethylsilane;1-(Chloroethyl)trimethylsilane",
    "duplicated_cas_no": "",
    "SMILES": "[Si](C(C)Cl)(C)(C)C",
    "meta_data": {
        "InChI": "InChI=1S/C5H13ClSi/c1-5(6)7(2,3)4/h5H,1-4H3",
        "InChIKey": null,
        "Canonical SMILES": "ClC(C)[Si](C)(C)C",
        "Molecular Formula": "C<sub>5</sub>H<sub>13</sub>ClSi",
        "Molecular Mass": "136.70",
        "Boiling Point": "118 °C",
        "Density": "0.964 g/cm³"
    }
}