{
    "cas_no": "39652-32-9",
    "key_name": "3-Chloro-4-methylbenzenemethanol",
    "cn_name": "3-氯-4-甲基苯甲醇;",
    "alternate_name": "Benzenemethanol, 3-chloro-4-methyl-;3-Chloro-4-methylbenzenemethanol;(3-Chloro-4-methylphenyl)methanol;3-Chloro-4-methylbenzyl alcohol",
    "duplicated_cas_no": "",
    "SMILES": "C(O)C1=CC(Cl)=C(C)C=C1",
    "meta_data": {
        "InChI": "InChI=1S/C8H9ClO/c1-6-2-3-7(5-10)4-8(6)9/h2-4,10H,5H2,1H3",
        "InChIKey": null,
        "Canonical SMILES": "ClC1=CC(=CC=C1C)CO",
        "Molecular Formula": "C<sub>8</sub>H<sub>9</sub>ClO",
        "Molecular Mass": "156.61",
        "Boiling Point": "135-136 °C @ Press: 15 Torr",
        "Melting Point": "29 °C"
    }
}