{
    "cas_no": "111872-58-3",
    "key_name": "Halfenprox",
    "cn_name": "扫螨宝;",
    "alternate_name": "Benzene, 1-[[2-[4-(bromodifluoromethoxy)phenyl]-2-methylpropoxy]methyl]-3-phenoxy-;1-[[2-[4-(Bromodifluoromethoxy)phenyl]-2-methylpropoxy]methyl]-3-phenoxybenzene;4-Bromodifluoromethoxyneophyl 3-phenoxybenzyl ether;Fubfenprox;MTI 732;Halfenprox;Brofenprox;Sirbon;Anniverse;Fluproxyfen",
    "duplicated_cas_no": "",
    "SMILES": "O(C1=CC(COCC(C)(C)C2=CC=C(OC(Br)(F)F)C=C2)=CC=C1)C3=CC=CC=C3",
    "meta_data": {
        "InChI": "InChI=1S/C24H23BrF2O3/c1-23(2,19-11-13-21(14-12-19)30-24(25,26)27)17-28-16-18-7-6-10-22(15-18)29-20-8-4-3-5-9-20/h3-15H,16-17H2,1-2H3",
        "InChIKey": null,
        "Canonical SMILES": "FC(F)(Br)OC1=CC=C(C=C1)C(C)(C)COCC=2C=CC=C(OC=3C=CC=CC3)C2",
        "Molecular Formula": "C<sub>24</sub>H<sub>23</sub>BrF<sub>2</sub>O<sub>3</sub>",
        "Molecular Mass": "477.34",
        "Boiling Point": "291 °C",
        "Melting Point": "&lt;25 °C"
    }
}