{
    "cas_no": "36282-26-5",
    "key_name": "2-Bromo-4-fluorobenzonitrile",
    "cn_name": "2-溴-4-氟苯甲腈;2-溴-4-氟苯腈;",
    "alternate_name": "Benzonitrile, 2-bromo-4-fluoro-;2-Bromo-4-fluorobenzonitrile;4-Fluoro-2-bromobenzonitrile",
    "duplicated_cas_no": "",
    "SMILES": "C(#N)C1=C(Br)C=C(F)C=C1",
    "meta_data": {
        "InChI": "InChI=1S/C7H3BrFN/c8-7-3-6(9)2-1-5(7)4-10/h1-3H",
        "InChIKey": null,
        "Canonical SMILES": "N#CC1=CC=C(F)C=C1Br",
        "Molecular Formula": "C<sub>7</sub>H<sub>3</sub>BrFN",
        "Molecular Mass": "200.01",
        "Melting Point": "76 °C"
    }
}