{
    "cas_no": "644-49-5",
    "key_name": "Propyl isobutyrate",
    "cn_name": "2-甲基丙酸丙酯;",
    "alternate_name": "Propanoic acid, 2-methyl-, propyl ester;Isobutyric acid, propyl ester;Propyl isobutyrate;Propyl 2-methylpropanoate;<em>n</em>-Propyl isobutyrate;NSC 406702",
    "duplicated_cas_no": "",
    "SMILES": "C(C(C)C)(OCCC)=O",
    "meta_data": {
        "InChI": "InChI=1S/C7H14O2/c1-4-5-9-7(8)6(2)3/h6H,4-5H2,1-3H3",
        "InChIKey": null,
        "Canonical SMILES": "O=C(OCCC)C(C)C",
        "Molecular Formula": "C<sub>7</sub>H<sub>14</sub>O<sub>2</sub>",
        "Molecular Mass": "130.18",
        "Boiling Point": "135.4 °C"
    }
}