{
    "cas_no": "71031-02-2",
    "key_name": "(2<em>R</em>)-2-(Phenoxymethyl)oxirane",
    "cn_name": "(R)-苯氧甲基环氧乙烷;(R)-苯基缩水甘油醚;",
    "alternate_name": "Oxirane, 2-(phenoxymethyl)-, (2<em>R</em>)-;Oxirane, (phenoxymethyl)-, (<em>R</em>)-;Oxirane, (phenoxymethyl)-, (2<em>R</em>)-;(2<em>R</em>)-2-(Phenoxymethyl)oxirane;(<em>R</em>)-Phenyl glycidyl ether;(<em>R</em>)-(-)-3-(Phenyloxy)-1,2-epoxypropane;(<em>R</em>)-Phenoxymethyloxirane;(<em>R</em>)-Glycidyl phenyl ether;(<em>R</em>)-2-(Phenoxymethyl)oxirane;(2R)-2-(Phenoxymethyl)oxirane;(R)-2-(Phenoxymethyl)oxirane",
    "duplicated_cas_no": "",
    "SMILES": "O(C[C@H]1CO1)C2=CC=CC=C2",
    "meta_data": {
        "InChI": "InChI=1S/C9H10O2/c1-2-4-8(5-3-1)10-6-9-7-11-9/h1-5,9H,6-7H2/t9-/m0/s1",
        "InChIKey": null,
        "Canonical SMILES": "O(C=1C=CC=CC1)CC2OC2",
        "Molecular Formula": "C<sub>9</sub>H<sub>10</sub>O<sub>2</sub>",
        "Molecular Mass": "150.17",
        "Boiling Point": "85-86 °C @ Press: 0.8 Torr"
    }
}