{
    "cas_no": "13717-00-5",
    "key_name": "Magnesite",
    "cn_name": null,
    "alternate_name": "Magnesite (Mg(CO<sub>3</sub>));Australian magnesite;Magnesite;Giobertite;LH 1253;SH 123L",
    "duplicated_cas_no": "12440-90-3",
    "SMILES": "C(=O)(O)O.[Mg]",
    "meta_data": {
        "InChI": "InChI=1S/CH2O3.Mg/c2-1(3)4;/h(H2,2,3,4);",
        "InChIKey": null,
        "Canonical SMILES": "[Mg].O=C(O)O",
        "Molecular Formula": "CH<sub>2</sub>O<sub>3</sub>.Mg",
        "Molecular Mass": "",
        "Melting Point": "2200 °C",
        "Density": "3.001 g/cm³"
    }
}