{
    "cas_no": "5719-85-7",
    "key_name": "Hydroxytolbutamide",
    "cn_name": null,
    "alternate_name": "Benzenesulfonamide, <em>N</em>-[(butylamino)carbonyl]-4-(hydroxymethyl)-;Urea, 1-butyl-3-[(α-hydroxy-<em>p</em>-tolyl)sulfonyl]-;<em>N</em>-[(Butylamino)carbonyl]-4-(hydroxymethyl)benzenesulfonamide;Hydroxymethylcarbutamide;Hydroxytolbutamide;Hydroxymethyltolbutamide;1-Butyl-3-(<em>p</em>-hydroxymethylphenyl)sulfonylurea;1-Butyl-3-[4-(hydroxymethyl)phenyl]sulfonylurea",
    "duplicated_cas_no": "42794-31-0",
    "SMILES": "S(NC(NCCCC)=O)(=O)(=O)C1=CC=C(CO)C=C1",
    "meta_data": {
        "InChI": "InChI=1S/C12H18N2O4S/c1-2-3-8-13-12(16)14-19(17,18)11-6-4-10(9-15)5-7-11/h4-7,15H,2-3,8-9H2,1H3,(H2,13,14,16)",
        "InChIKey": null,
        "Canonical SMILES": "O=C(NCCCC)NS(=O)(=O)C1=CC=C(C=C1)CO",
        "Molecular Formula": "C<sub>12</sub>H<sub>18</sub>N<sub>2</sub>O<sub>4</sub>S",
        "Molecular Mass": "286.35",
        "Melting Point": "101-103 °C"
    }
}