{
    "cas_no": "781-35-1",
    "key_name": "1,1-Diphenylacetone",
    "cn_name": "1,1-二苯基丙酮;偏二苯基丙酮;",
    "alternate_name": "2-Propanone, 1,1-diphenyl-;1,1-Diphenyl-2-propanone;1,1-Diphenylacetone;Methyl diphenylmethyl ketone;Benzhydryl methyl ketone;NSC 400472",
    "duplicated_cas_no": "",
    "SMILES": "C(C(C)=O)(C1=CC=CC=C1)C2=CC=CC=C2",
    "meta_data": {
        "InChI": "InChI=1S/C15H14O/c1-12(16)15(13-8-4-2-5-9-13)14-10-6-3-7-11-14/h2-11,15H,1H3",
        "InChIKey": null,
        "Canonical SMILES": "O=C(C)C(C=1C=CC=CC1)C=2C=CC=CC2",
        "Molecular Formula": "C<sub>15</sub>H<sub>14</sub>O",
        "Molecular Mass": "210.27",
        "Boiling Point": "307 °C",
        "Melting Point": "46 °C"
    }
}