{
    "cas_no": "394735-22-9",
    "key_name": "1,1-Dimethylethyl <em>N</em>-[3-amino-1-(cyclobutylmethyl)-2-hydroxy-3-oxopropyl]carbamate",
    "cn_name": null,
    "alternate_name": "Carbamic acid, <em>N</em>-[3-amino-1-(cyclobutylmethyl)-2-hydroxy-3-oxopropyl]-, 1,1-dimethylethyl ester;Carbamic acid, [3-amino-1-(cyclobutylmethyl)-2-hydroxy-3-oxopropyl]-, 1,1-dimethylethyl ester;1,1-Dimethylethyl <em>N</em>-[3-amino-1-(cyclobutylmethyl)-2-hydroxy-3-oxopropyl]carbamate;3-(<em>tert</em>-Butoxycarbonylamino)-4-cyclobutyl-2-hydroxybutanamide;<em>tert</em>-Butyl 4-amino-1-cyclobutyl-3-hydroxy-4-oxobutan-2-ylcarbamate",
    "duplicated_cas_no": "",
    "SMILES": "C(CC1CCC1)(NC(OC(C)(C)C)=O)C(C(N)=O)O",
    "meta_data": {
        "InChI": "InChI=1S/C13H24N2O4/c1-13(2,3)19-12(18)15-9(10(16)11(14)17)7-8-5-4-6-8/h8-10,16H,4-7H2,1-3H3,(H2,14,17)(H,15,18)",
        "InChIKey": null,
        "Canonical SMILES": "O=C(OC(C)(C)C)NC(CC1CCC1)C(O)C(=O)N",
        "Molecular Formula": "C<sub>13</sub>H<sub>24</sub>N<sub>2</sub>O<sub>4</sub>",
        "Molecular Mass": "272.34",
        "Melting Point": "173-177 °C"
    }
}