{
    "cas_no": "68370-47-8",
    "key_name": "Micheliolide",
    "cn_name": null,
    "alternate_name": "Azuleno[4,5-<em>b</em>]furan-2(3<em>H</em>)-one, 3a,4,5,7,8,9,9a,9b-octahydro-9-hydroxy-6,9-dimethyl-3-methylene-, (3a<em>S</em>,9<em>R</em>,9a<em>S</em>,9b<em>S</em>)-;Azuleno[4,5-<em>b</em>]furan-2(3<em>H</em>)-one, 3a,4,5,7,8,9,9a,9b-octahydro-9-hydroxy-6,9-dimethyl-3-methylene-, [3a<em>S</em>-(3aα,9α,9aα,9bβ)]-;(3a<em>S</em>,9<em>R</em>,9a<em>S</em>,9b<em>S</em>)-3a,4,5,7,8,9,9a,9b-Octahydro-9-hydroxy-6,9-dimethyl-3-methyleneazuleno[4,5-<em>b</em>]furan-2(3<em>H</em>)-one;Micheliolide",
    "duplicated_cas_no": "2229044-01-1;2488402-49-7",
    "SMILES": "C[C@]1(O)[C@@]2([C@@]3([C@](C(=C)C(=O)O3)(CCC(C)=C2CC1)[H])[H])[H]",
    "meta_data": {
        "InChI": "InChI=1S/C15H20O3/c1-8-4-5-11-9(2)14(16)18-13(11)12-10(8)6-7-15(12,3)17/h11-13,17H,2,4-7H2,1,3H3/t11-,12-,13-,15+/m0/s1",
        "InChIKey": null,
        "Canonical SMILES": "O=C1OC2C(C1=C)CCC(=C3CCC(O)(C)C32)C",
        "Molecular Formula": "C<sub>15</sub>H<sub>20</sub>O<sub>3</sub>",
        "Molecular Mass": "248.32",
        "Melting Point": "131-133 °C"
    }
}