{
    "cas_no": "31255-57-9",
    "key_name": "3-[2-(3-Chlorophenyl)ethyl]-2-pyridinecarbonitrile",
    "cn_name": "3-[2-(3-氯苯基)乙基]-2-吡啶甲腈;",
    "alternate_name": "2-Pyridinecarbonitrile, 3-[2-(3-chlorophenyl)ethyl]-;Picolinonitrile, 3-(<em>m</em>-chlorophenethyl)-;3-[2-(3-Chlorophenyl)ethyl]-2-pyridinecarbonitrile;3-[2-(3-Chlorophenyl)ethyl]-2-cyanopyridine",
    "duplicated_cas_no": "",
    "SMILES": "C(CC1=CC(Cl)=CC=C1)C2=C(C#N)N=CC=C2",
    "meta_data": {
        "InChI": "InChI=1S/C14H11ClN2/c15-13-5-1-3-11(9-13)6-7-12-4-2-8-17-14(12)10-16/h1-5,8-9H,6-7H2",
        "InChIKey": null,
        "Canonical SMILES": "N#CC1=NC=CC=C1CCC=2C=CC=C(Cl)C2",
        "Molecular Formula": "C<sub>14</sub>H<sub>11</sub>ClN<sub>2</sub>",
        "Molecular Mass": "242.70",
        "Melting Point": "72.8 °C"
    }
}