{
    "cas_no": "331-64-6",
    "key_name": "2-Fluoro-4-methoxybenzaldehyde",
    "cn_name": "2-氟-4-甲氧基苯甲醛;",
    "alternate_name": "Benzaldehyde, 2-fluoro-4-methoxy-;<em>p</em>-Anisaldehyde, 2-fluoro-;2-Fluoro-4-methoxybenzaldehyde;4-Methoxy-2-fluorobenzaldehyde",
    "duplicated_cas_no": "",
    "SMILES": "O(C)C1=CC(F)=C(C=O)C=C1",
    "meta_data": {
        "InChI": "InChI=1S/C8H7FO2/c1-11-7-3-2-6(5-10)8(9)4-7/h2-5H,1H3",
        "InChIKey": null,
        "Canonical SMILES": "O=CC1=CC=C(OC)C=C1F",
        "Molecular Formula": "C<sub>8</sub>H<sub>7</sub>FO<sub>2</sub>",
        "Molecular Mass": "154.14",
        "Melting Point": "47 °C"
    }
}