{
    "cas_no": "6089-09-4",
    "key_name": "4-Pentynoic acid",
    "cn_name": "4-戊酸;炔丙基脲;4-戊炔酸;Propargylacetic acid;",
    "alternate_name": "4-Pentynoic acid;Propargylacetic acid",
    "duplicated_cas_no": "",
    "SMILES": "C(C(O)=O)CC#C",
    "meta_data": {
        "InChI": "InChI=1S/C5H6O2/c1-2-3-4-5(6)7/h1H,3-4H2,(H,6,7)",
        "InChIKey": null,
        "Canonical SMILES": "O=C(O)CCC#C",
        "Molecular Formula": "C<sub>5</sub>H<sub>6</sub>O<sub>2</sub>",
        "Molecular Mass": "98.10",
        "Boiling Point": "98 °C",
        "Melting Point": "57.7 °C"
    }
}