{
    "cas_no": "3112-85-4",
    "key_name": "Methyl phenyl sulfone",
    "cn_name": "苯甲砜;甲基苯砜;甲基苯基砜;",
    "alternate_name": "Benzene, (methylsulfonyl)-;Sulfone, methyl phenyl;(Methylsulfonyl)benzene;Methyl phenyl sulfone;Phenyl methyl sulfone;(Phenylsulfonyl)methane;NSC 41587",
    "duplicated_cas_no": "",
    "SMILES": "S(C)(=O)(=O)C1=CC=CC=C1",
    "meta_data": {
        "InChI": "InChI=1S/C7H8O2S/c1-10(8,9)7-5-3-2-4-6-7/h2-6H,1H3",
        "InChIKey": null,
        "Canonical SMILES": "O=S(=O)(C=1C=CC=CC1)C",
        "Molecular Formula": "C<sub>7</sub>H<sub>8</sub>O<sub>2</sub>S",
        "Molecular Mass": "156.20",
        "Boiling Point": "63 °C @ Press: 0.03 Torr",
        "Melting Point": "86 °C"
    }
}