{
    "cas_no": "23023-13-4",
    "key_name": "1-(1,3-Benzodioxol-5-yl)-2-butanone",
    "cn_name": "1-(3,4-二亚甲氧基)苯基-2-丁酮;",
    "alternate_name": "2-Butanone, 1-(1,3-benzodioxol-5-yl)-;2-Butanone, 1-[3,4-(methylenedioxy)phenyl]-;1-(1,3-Benzodioxol-5-yl)-2-butanone;1-(Benzo[<em>d</em>][1,3]dioxol-5-yl)butan-2-one;1-(2<em>H</em>-1,3-Benzodioxol-5-yl)butan-2-one",
    "duplicated_cas_no": "",
    "SMILES": "C(C(CC)=O)C=1C=C2C(=CC1)OCO2",
    "meta_data": {
        "InChI": "InChI=1S/C11H12O3/c1-2-9(12)5-8-3-4-10-11(6-8)14-7-13-10/h3-4,6H,2,5,7H2,1H3",
        "InChIKey": null,
        "Canonical SMILES": "O=C(CC1=CC=C2OCOC2=C1)CC",
        "Molecular Formula": "C<sub>11</sub>H<sub>12</sub>O<sub>3</sub>",
        "Molecular Mass": "192.21",
        "Boiling Point": "130-134 °C @ Press: 0.1 Torr"
    }
}