{
    "cas_no": "51592-06-4",
    "key_name": "Iodogen",
    "cn_name": "1,3,4,6-四氯-3α,6α-联苯尿嘧啶;",
    "alternate_name": "Imidazo[4,5-<em>d</em>]imidazole-2,5(1<em>H</em>,3<em>H</em>)-dione, 1,3,4,6-tetrachlorotetrahydro-3a,6a-diphenyl-;Glycoluril, 1,3,4,6-tetrachloro-3a,6a-diphenyl-;1,3,4,6-Tetrachlorotetrahydro-3a,6a-diphenylimidazo[4,5-<em>d</em>]imidazole-2,5(1<em>H</em>,3<em>H</em>)-dione;Iodogen;1,3,4,6-Tetrachloro-3a,6a-diphenylglycoluril;Simiod;NSC 4462;1,3,4,6-Tetrachloro-3a,6a-diphenylimidazo[4,5-<em>d</em>]imidazole-2,5-dione",
    "duplicated_cas_no": "",
    "SMILES": "ClN1C2(C(N(Cl)C(=O)N2Cl)(N(Cl)C1=O)C3=CC=CC=C3)C4=CC=CC=C4",
    "meta_data": {
        "InChI": "InChI=1S/C16H10Cl4N4O2/c17-21-13(25)23(19)16(12-9-5-2-6-10-12)15(21,11-7-3-1-4-8-11)22(18)14(26)24(16)20/h1-10H",
        "InChIKey": null,
        "Canonical SMILES": "O=C1N(Cl)C2(C=3C=CC=CC3)N(Cl)C(=O)N(Cl)C2(C=4C=CC=CC4)N1Cl",
        "Molecular Formula": "C<sub>16</sub>H<sub>10</sub>Cl<sub>4</sub>N<sub>4</sub>O<sub>2</sub>",
        "Molecular Mass": "432.09",
        "Melting Point": "249-252 °C"
    }
}