{
    "cas_no": "139525-77-2",
    "key_name": "2-(7-Methoxy-1-naphthyl)ethylamine hydrochloride",
    "cn_name": "2-(7-甲氧基萘-1-基)乙胺盐酸盐;",
    "alternate_name": "1-Naphthaleneethanamine, 7-methoxy-, hydrochloride (1:1);1-Naphthaleneethanamine, 7-methoxy-, hydrochloride;2-(7-Methoxy-1-naphthyl)ethylamine hydrochloride;2-(7-Methoxy-1-naphthyl)ethanamine hydrochloride;2-(7-Methoxynaphthalen-1-yl)ethanamine hydrochloride;2-(7-Methoxynaphthyl)ethanamine hydrochloride",
    "duplicated_cas_no": "",
    "SMILES": "C(CN)C=1C2=C(C=CC(OC)=C2)C=CC1.Cl",
    "meta_data": {
        "InChI": "InChI=1S/C13H15NO.ClH/c1-15-12-6-5-10-3-2-4-11(7-8-14)13(10)9-12;/h2-6,9H,7-8,14H2,1H3;1H",
        "InChIKey": null,
        "Canonical SMILES": "Cl.O(C1=CC=C2C=CC=C(C2=C1)CCN)C",
        "Molecular Formula": "C<sub>13</sub>H<sub>15</sub>NO.ClH",
        "Molecular Mass": "",
        "Melting Point": "245 °C"
    }
}