{
    "cas_no": "17092-92-1",
    "key_name": "(-)-Dihydroactinidiolide",
    "cn_name": "二氢猕猴桃内酯;5,6,7,7a-四氢-4,7,7a-三甲基-2-(4H)-苯并呋喃酮;",
    "alternate_name": "2(4<em>H</em>)-Benzofuranone, 5,6,7,7a-tetrahydro-4,4,7a-trimethyl-, (7a<em>R</em>)-;2(4<em>H</em>)-Benzofuranone, 5,6,7,7a-tetrahydro-4,4,7a-trimethyl-;2(4<em>H</em>)-Benzofuranone, 5,6,7,7a-tetrahydro-4,4,7a-trimethyl-, (<em>R</em>)-;(7a<em>R</em>)-5,6,7,7a-Tetrahydro-4,4,7a-trimethyl-2(4<em>H</em>)-benzofuranone;Actinidiolide, dihydro-;Dihydroactinidiolide;(-)-Dihydroactinidiolide;(<em>R</em>)-Dihydroactinidiolide;NSC 357087;(7AR)-4,4,7a-trimethyl-2,4,5,6,7,7a-hexahydro-1-benzofuran-2-one;(R)-5,6,7,7a-Tetrahydro-4,4,7a-trimethyl-2(4<em>H</em>)-benzofuranone",
    "duplicated_cas_no": "38273-56-2",
    "SMILES": "C[C@@]12C(=CC(=O)O1)C(C)(C)CCC2",
    "meta_data": {
        "InChI": "InChI=1S/C11H16O2/c1-10(2)5-4-6-11(3)8(10)7-9(12)13-11/h7H,4-6H2,1-3H3/t11-/m1/s1",
        "InChIKey": null,
        "Canonical SMILES": "O=C1OC2(C(=C1)C(C)(C)CCC2)C",
        "Molecular Formula": "C<sub>11</sub>H<sub>16</sub>O<sub>2</sub>",
        "Molecular Mass": "180.24",
        "Melting Point": "40-41 °C"
    }
}