{
    "cas_no": "460-12-8",
    "key_name": "1,3-Butadiyne",
    "cn_name": "丁二炔;二乙炔;",
    "alternate_name": "1,3-Butadiyne;Butadiyne;Biacetylene;Biethynyl;Diacetylene",
    "duplicated_cas_no": "",
    "SMILES": "C(C#C)#C",
    "meta_data": {
        "InChI": "InChI=1S/C4H2/c1-3-4-2/h1-2H",
        "InChIKey": null,
        "Canonical SMILES": "C#CC#C",
        "Molecular Formula": "C<sub>4</sub>H<sub>2</sub>",
        "Molecular Mass": "50.06",
        "Boiling Point": "10.3 °C",
        "Melting Point": "-36.4 °C",
        "Density": "0.7364 g/cm³ @ Temp: 0 °C"
    }
}