{
    "cas_no": "487-70-7",
    "key_name": "2,4,6-Trihydroxybenzaldehyde",
    "cn_name": "2,4,6-三羟基苯甲醛;",
    "alternate_name": "Benzaldehyde, 2,4,6-trihydroxy-;2,4,6-Trihydroxybenzaldehyde;Phloroglucinaldehyde;Formylphloroglucinol;NSC 38610;WLH 113;4,6-Dihydroxysalicylaldehyde",
    "duplicated_cas_no": "",
    "SMILES": "C(=O)C1=C(O)C=C(O)C=C1O",
    "meta_data": {
        "InChI": "InChI=1S/C7H6O4/c8-3-5-6(10)1-4(9)2-7(5)11/h1-3,9-11H",
        "InChIKey": null,
        "Canonical SMILES": "O=CC=1C(O)=CC(O)=CC1O",
        "Molecular Formula": "C<sub>7</sub>H<sub>6</sub>O<sub>4</sub>",
        "Molecular Mass": "154.12",
        "Melting Point": "292-295 °C (decomp)"
    }
}