{
    "cas_no": "7782-92-5",
    "key_name": "Sodium amide",
    "cn_name": "氨基钠;",
    "alternate_name": "Sodium amide (Na(NH<sub>2</sub>));Sodium amide;Sodamide",
    "duplicated_cas_no": "12125-45-0;24781-98-4",
    "SMILES": "N[Na]",
    "meta_data": {
        "InChI": "InChI=1S/H2N.Na/h1H2;/q-1;+1",
        "InChIKey": null,
        "Canonical SMILES": "[Na]N",
        "Molecular Formula": "H<sub>2</sub>NNa",
        "Molecular Mass": "",
        "Boiling Point": "400 °C",
        "Melting Point": "210 °C",
        "Density": "1.39 g/cm³ @ Temp: 20 °C"
    }
}