{
    "cas_no": "586-91-4",
    "key_name": "4,4′-(1,2-Diazenediyl)bis[benzoic acid]",
    "cn_name": "偶氮苯-4,4-二羧酸;",
    "alternate_name": "Benzoic acid, 4,4′-(1,2-diazenediyl)bis-;Benzoic acid, 4,4′-azodi-;Benzoic acid, 4,4′-azobis-;Benzoic acid, <em>p</em>,<em>p</em>′-azodi-;4,4′-(1,2-Diazenediyl)bis[benzoic acid];4,4′-Azobenzenedicarboxylic acid;4,4′-Azobisbenzoic acid;4,4′-Azodibenzoic acid",
    "duplicated_cas_no": "",
    "SMILES": "C(O)(=O)C1=CC=C(N=NC2=CC=C(C(O)=O)C=C2)C=C1",
    "meta_data": {
        "InChI": "InChI=1S/C14H10N2O4/c17-13(18)9-1-5-11(6-2-9)15-16-12-7-3-10(4-8-12)14(19)20/h1-8H,(H,17,18)(H,19,20)",
        "InChIKey": null,
        "Canonical SMILES": "O=C(O)C1=CC=C(N=NC2=CC=C(C=C2)C(=O)O)C=C1",
        "Molecular Formula": "C<sub>14</sub>H<sub>10</sub>N<sub>2</sub>O<sub>4</sub>",
        "Molecular Mass": "270.24",
        "Melting Point": "117 °C"
    }
}