{
    "cas_no": "548-08-3",
    "key_name": "(-)-Roemerine",
    "cn_name": null,
    "alternate_name": "5<em>H</em>-Benzo[<em>g</em>]-1,3-benzodioxolo[6,5,4-<em>de</em>]quinoline, 6,7,7a,8-tetrahydro-7-methyl-, (7a<em>R</em>)-;6aβ-Aporphine, 1,2-(methylenedioxy)-;5<em>H</em>-Benzo[<em>g</em>]-1,3-benzodioxolo[6,5,4-<em>de</em>]quinoline, 6,7,7a,8-tetrahydro-7-methyl-, (<em>R</em>)-;Remerine;(7a<em>R</em>)-6,7,7a,8-Tetrahydro-7-methyl-5<em>H</em>-benzo[<em>g</em>]-1,3-benzodioxolo[6,5,4-<em>de</em>]quinoline;(-)-Roemerine;(-)-Remerine;Roemerine;Remerin;Roemerin;Remerine (alkaloid);<em>l</em>-Roemerine;1,2-(Methylenedioxy)-6aβ-aporphine;(-)-Aporheine;Dehydroxyushinsunine;(-)-Roemarine;(<em>R</em>)-Roemerine;<em>l</em>-Romerine",
    "duplicated_cas_no": "11025-64-2",
    "SMILES": "CN1[C@]2(C=3C(=C4C(=CC3CC1)OCO4)C=5C(C2)=CC=CC5)[H]",
    "meta_data": {
        "InChI": "InChI=1S/C18H17NO2/c1-19-7-6-12-9-15-18(21-10-20-15)17-13-5-3-2-4-11(13)8-14(19)16(12)17/h2-5,9,14H,6-8,10H2,1H3/t14-/m1/s1",
        "InChIKey": null,
        "Canonical SMILES": "O1C=2C=C3C4=C(C2OC1)C5=CC=CC=C5CC4N(C)CC3",
        "Molecular Formula": "C<sub>18</sub>H<sub>17</sub>NO<sub>2</sub>",
        "Molecular Mass": "279.33",
        "Melting Point": "102-103 °C"
    }
}