{
    "cas_no": "951-78-0",
    "key_name": "Deoxyuridine",
    "cn_name": "2\"-脱氧尿苷;2\"-脱氧尿甙;2\"-脱氧尿嘧啶核苷;",
    "alternate_name": "Uridine, 2′-deoxy-;2′-Deoxyuridine;Deoxyuridine;Uracil deoxyriboside;2,4(1<em>H</em>,3<em>H</em>)-Pyrimidinedione, 1-(2-deoxy-β-<span class=\"text-smallcaps\">D</span>-<em>erythro</em>-pentofuranosyl)-;2,4(1<em>H</em>,3<em>H</em>)-Pyrimidinedione, 1-(2-deoxy-β-<span class=\"text-smallcaps\">D</span>-ribofuranosyl)-;Deoxyribose uracil;2′-Desoxyuridine;1-(2-Deoxy-β-<span class=\"text-smallcaps\">D</span>-<em>erythro</em>-pentofuranosyl)uracil;NSC 23615;MeSH ID: D003857;WV-NU-242A",
    "duplicated_cas_no": "20649-53-0",
    "SMILES": "O=C1N([C@@H]2O[C@H](CO)[C@@H](O)C2)C=CC(=O)N1",
    "meta_data": {
        "InChI": "InChI=1S/C9H12N2O5/c12-4-6-5(13)3-8(16-6)11-2-1-7(14)10-9(11)15/h1-2,5-6,8,12-13H,3-4H2,(H,10,14,15)/t5-,6+,8+/m0/s1",
        "InChIKey": null,
        "Canonical SMILES": "O=C1C=CN(C(=O)N1)C2OC(CO)C(O)C2",
        "Molecular Formula": "C<sub>9</sub>H<sub>12</sub>N<sub>2</sub>O<sub>5</sub>",
        "Molecular Mass": "228.20",
        "Melting Point": "163 °C"
    }
}