{
    "cas_no": "38936-60-6",
    "key_name": "Hydroxylamine, <em>O</em>-[(4-chlorophenyl)methyl]-, hydrochloride (1:1)",
    "cn_name": null,
    "alternate_name": "Hydroxylamine, <em>O</em>-[(4-chlorophenyl)methyl]-, hydrochloride (1:1);Hydroxylamine, <em>O</em>-[(4-chlorophenyl)methyl]-, hydrochloride;Benzyloxyamine, <em>p</em>-chloro-, hydrochloride;<em>O</em>-(<em>p</em>-Chlorobenzyl)hydroxylamine hydrochloride;<em>O</em>-(4-Chlorobenzyl)hydroxylamine hydrochloride;4-Chlorobenzyloxyamine hydrochloride",
    "duplicated_cas_no": "2808482-90-6",
    "SMILES": "C(ON)C1=CC=C(Cl)C=C1.Cl",
    "meta_data": {
        "InChI": "InChI=1S/C7H8ClNO.ClH/c8-7-3-1-6(2-4-7)5-10-9;/h1-4H,5,9H2;1H",
        "InChIKey": null,
        "Canonical SMILES": "Cl.ClC1=CC=C(C=C1)CON",
        "Molecular Formula": "C<sub>7</sub>H<sub>8</sub>ClNO.ClH",
        "Molecular Mass": "",
        "Melting Point": "243-244 °C (decomp)"
    }
}