{
    "cas_no": "13752-51-7",
    "key_name": "OTOS",
    "cn_name": "吗啉-4-二硫代甲酸-4-吗啉酯;促进剂OTOS;",
    "alternate_name": "4-Morpholinecarbodithioic acid, 4-morpholinyl ester;Morpholine, 4-[(morpholinothiocarbonyl)thio]-;Morpholine, 4-[(4-morpholinylthio)thioxomethyl]-;<em>N</em>,<em>N</em>:<em>N</em>′,<em>N</em>′-Bis(oxydiethylene)thiocarbamoylsulfenamide;<em>N</em>,<em>N</em>′-Bis(oxydiethylene)thiocarbamoylsulfenamide;<em>N</em>-Oxydiethylenethiocarbamoyl-<em>N</em>′-oxydiethylenesulfenamide;4-[(Morpholinothio)thiocarbonyl]morpholine;<em>N</em>,<em>N</em>′-[(Thiocarbonyl)thio]dimorpholine;<em>N</em>-Oxydiethylene thiocarbamyl-<em>N</em>-oxydiethylene sulfenamide;Cure-rite 18;Accelerator OTOS;OTOS;Curite 18",
    "duplicated_cas_no": "57018-26-5",
    "SMILES": "C(SN1CCOCC1)(=S)N2CCOCC2",
    "meta_data": {
        "InChI": "InChI=1S/C9H16N2O2S2/c14-9(10-1-5-12-6-2-10)15-11-3-7-13-8-4-11/h1-8H2",
        "InChIKey": null,
        "Canonical SMILES": "S=C(SN1CCOCC1)N2CCOCC2",
        "Molecular Formula": "C<sub>9</sub>H<sub>16</sub>N<sub>2</sub>O<sub>2</sub>S<sub>2</sub>",
        "Molecular Mass": "248.37",
        "Melting Point": "139 °C"
    }
}