{
    "cas_no": "3535-33-9",
    "key_name": "3-Methoxy-4-(1-methylethoxy)benzoic acid",
    "cn_name": null,
    "alternate_name": "Benzoic acid, 3-methoxy-4-(1-methylethoxy)-;Benzoic acid, 4-isopropoxy-3-methoxy-;3-Methoxy-4-(1-methylethoxy)benzoic acid;Vanillic acid isopropyl ether;4-Isopropoxy-3-methoxybenzoic acid;3-Methoxy-4-propan-2-yloxybenzoic acid;3-Methoxy-4-(propan-2-yloxy)benzoic acid",
    "duplicated_cas_no": "",
    "SMILES": "O(C(C)C)C1=C(OC)C=C(C(O)=O)C=C1",
    "meta_data": {
        "InChI": "InChI=1S/C11H14O4/c1-7(2)15-9-5-4-8(11(12)13)6-10(9)14-3/h4-7H,1-3H3,(H,12,13)",
        "InChIKey": null,
        "Canonical SMILES": "O=C(O)C1=CC=C(OC(C)C)C(OC)=C1",
        "Molecular Formula": "C<sub>11</sub>H<sub>14</sub>O<sub>4</sub>",
        "Molecular Mass": "210.23",
        "Melting Point": "146-148 °C"
    }
}