{
    "cas_no": "10031-82-0",
    "key_name": "4-Ethoxybenzaldehyde",
    "cn_name": "4-乙氧基苯甲醛;对乙氧基苯甲醛;",
    "alternate_name": "Benzaldehyde, 4-ethoxy-;Benzaldehyde, <em>p</em>-ethoxy-;4-Ethoxybenzaldehyde;<em>p</em>-Ethoxybenzaldehyde;Ethoxybenzaldehyde;NSC 406709",
    "duplicated_cas_no": "",
    "SMILES": "O(CC)C1=CC=C(C=O)C=C1",
    "meta_data": {
        "InChI": "InChI=1S/C9H10O2/c1-2-11-9-5-3-8(7-10)4-6-9/h3-7H,2H2,1H3",
        "InChIKey": null,
        "Canonical SMILES": "O=CC1=CC=C(OCC)C=C1",
        "Molecular Formula": "C<sub>9</sub>H<sub>10</sub>O<sub>2</sub>",
        "Molecular Mass": "150.17",
        "Boiling Point": "249 °C",
        "Melting Point": "13.5 °C"
    }
}