{
    "cas_no": "614-69-7",
    "key_name": "2-Methylphenyl isothiocyanate",
    "cn_name": "邻甲苯异硫氰酸酯;异硫氰酸邻甲苯酯;",
    "alternate_name": "Benzene, 1-isothiocyanato-2-methyl-;Isothiocyanic acid, <em>o</em>-tolyl ester;1-Isothiocyanato-2-methylbenzene;<em>o</em>-Tolyl isothiocyanate;<em>o</em>-Methylphenyl isothiocyanate;2-Methylphenyl isothiocyanate;2-Tolyl isothiocyanate;NSC 220230",
    "duplicated_cas_no": "2124236-53-7",
    "SMILES": "N(=C=S)C1=C(C)C=CC=C1",
    "meta_data": {
        "InChI": "InChI=1S/C8H7NS/c1-7-4-2-3-5-8(7)9-6-10/h2-5H,1H3",
        "InChIKey": null,
        "Canonical SMILES": "S=C=NC=1C=CC=CC1C",
        "Molecular Formula": "C<sub>8</sub>H<sub>7</sub>NS",
        "Molecular Mass": "149.21",
        "Boiling Point": "238-240 °C",
        "Melting Point": "236 °C",
        "Density": "1.115 g/cm³"
    }
}