{
    "cas_no": "2160-94-3",
    "key_name": "3-Cyclohexene-1,1-dimethanol",
    "cn_name": "3-环己基-1,1-二甲醇;",
    "alternate_name": "3-Cyclohexene-1,1-dimethanol;1,1-Bis(hydroxymethyl)-3-cyclohexene;4,4-Bis(hydroxymethyl)-1-cyclohexene;4,4-Bis(hydroxymethyl)cyclohexene;1-Cyclohexene-4,4-dimethanol;NSC 112688;[1-(Hydroxymethyl)cyclohex-3-en-1-yl]methanol",
    "duplicated_cas_no": "",
    "SMILES": "C(O)C1(CO)CCC=CC1",
    "meta_data": {
        "InChI": "InChI=1S/C8H14O2/c9-6-8(7-10)4-2-1-3-5-8/h1-2,9-10H,3-7H2",
        "InChIKey": null,
        "Canonical SMILES": "OCC1(CO)CC=CCC1",
        "Molecular Formula": "C<sub>8</sub>H<sub>14</sub>O<sub>2</sub>",
        "Molecular Mass": "142.20",
        "Boiling Point": "128 °C @ Press: 3 Torr",
        "Melting Point": "92 °C"
    }
}