{
    "cas_no": "1883-13-2",
    "key_name": "(±)-3-Hydroxydodecanoic acid",
    "cn_name": "(±)-3-羟基月桂酸;",
    "alternate_name": "Dodecanoic acid, 3-hydroxy-;3-Hydroxydodecanoic acid;β-Hydroxylauric acid;β-Hydroxydodecanoic acid;3-Hydroxylauric acid;<span class=\"text-smallcaps\">DL</span>-β-Hydroxydodecanoic acid;(±)-3-Hydroxydodecanoic acid;(<em>RS</em>)-3-Hydroxylauric acid",
    "duplicated_cas_no": "53941-38-1;1111092-39-7;1639952-42-3",
    "SMILES": "C(CCCCCCCCC)(CC(O)=O)O",
    "meta_data": {
        "InChI": "InChI=1S/C12H24O3/c1-2-3-4-5-6-7-8-9-11(13)10-12(14)15/h11,13H,2-10H2,1H3,(H,14,15)",
        "InChIKey": null,
        "Canonical SMILES": "O=C(O)CC(O)CCCCCCCCC",
        "Molecular Formula": "C<sub>12</sub>H<sub>24</sub>O<sub>3</sub>",
        "Molecular Mass": "216.32",
        "Boiling Point": "113-115 °C @ Press: 3 Torr",
        "Melting Point": "70-70.5 °C"
    }
}