{
    "cas_no": "1004-39-3",
    "key_name": "4,6-Diamino-2-mercaptopyrimidine",
    "cn_name": "4,6-二氨基-2-巰基嘧啶;",
    "alternate_name": "2(1<em>H</em>)-Pyrimidinethione, 4,6-diamino-;2-Pyrimidinethiol, 4,6-diamino-;4,6-Diamino-2(1<em>H</em>)-pyrimidinethione;4,6-Diamino-2-thiopyrimidine;4,6-Diamino-2-mercaptopyrimidine;2-Mercapto-4,6-diaminopyrimidine;4,6-Diamino-2-pyrimidinethiol;2-Thio-6-aminocytosine;4,6-Diamino-1,2-dihydro-2-thioxopyrimidine;4,6-Diaminopyrimidine-2-thione;4,6-Diamino-2-thiouracil;NSC 1586;NSC 680831;4,6-Diamino-1<em>H</em>-pyrimidine-2-thione;4,6-Diaminopyrimidine-2(1<em>H</em>)-thione",
    "duplicated_cas_no": "108766-37-6;3647-46-9",
    "SMILES": "NC1=CC(N)=NC(=S)N1",
    "meta_data": {
        "InChI": "InChI=1S/C4H6N4S/c5-2-1-3(6)8-4(9)7-2/h1H,(H5,5,6,7,8,9)",
        "InChIKey": null,
        "Canonical SMILES": "S=C1N=C(N)C=C(N)N1",
        "Molecular Formula": "C<sub>4</sub>H<sub>6</sub>N<sub>4</sub>S",
        "Molecular Mass": "142.18",
        "Melting Point": "&gt;360 °C"
    }
}