{
    "cas_no": "96-34-4",
    "key_name": "Methyl chloroacetate",
    "cn_name": "氯乙酸甲酯;",
    "alternate_name": "Acetic acid, 2-chloro-, methyl ester;Acetic acid, chloro-, methyl ester;Methyl chloroacetate;Methyl monochloroacetate;Monochloroacetic acid methyl ester;Methyl monochloracetate;Methyl α-chloroacetate;Methyl 2-chloroacetate;Chloroacetic acid methyl ester;NSC 2635;2-Chloroacetic acid methyl ester",
    "duplicated_cas_no": "",
    "SMILES": "C(CCl)(OC)=O",
    "meta_data": {
        "InChI": "InChI=1S/C3H5ClO2/c1-6-3(5)2-4/h2H2,1H3",
        "InChIKey": null,
        "Canonical SMILES": "O=C(OC)CCl",
        "Molecular Formula": "C<sub>3</sub>H<sub>5</sub>ClO<sub>2</sub>",
        "Molecular Mass": "108.52",
        "Boiling Point": "129.5 °C",
        "Melting Point": "-32.1 °C",
        "Density": "1.238 g/cm³ @ Temp: 20 °C"
    }
}