{
    "cas_no": "336182-10-6",
    "key_name": "Pentanedioic acid, 3-amino-, hydrochloride (1:1)",
    "cn_name": null,
    "alternate_name": "Pentanedioic acid, 3-amino-, hydrochloride (1:1);Pentanedioic acid, 3-amino-, hydrochloride;3-Aminopentanedioic acid hydrochloride",
    "duplicated_cas_no": "",
    "SMILES": "C(C(CC(O)=O)N)C(O)=O.Cl",
    "meta_data": {
        "InChI": "InChI=1S/C5H9NO4.ClH/c6-3(1-4(7)8)2-5(9)10;/h3H,1-2,6H2,(H,7,8)(H,9,10);1H",
        "InChIKey": null,
        "Canonical SMILES": "Cl.O=C(O)CC(N)CC(=O)O",
        "Molecular Formula": "C<sub>5</sub>H<sub>9</sub>NO<sub>4</sub>.ClH",
        "Molecular Mass": "",
        "Melting Point": "212 °C (decomp)"
    }
}