{
    "cas_no": "3221-15-6",
    "key_name": "(Chloromethyl)thiirane",
    "cn_name": "Epithiochlorohydrine;",
    "alternate_name": "Thiirane, 2-(chloromethyl)-;Propane, 1-chloro-2,3-epithio-;Thiirane, (chloromethyl)-;2-(Chloromethyl)thiirane;3-Chloropropylene sulfide;Epithiochlorohydrin;Thioepichlorohydrin;1-Chloro-2,3-epithiopropane;2-Thiiranylmethyl chloride;3-Chloropropene sulfide;(Chloromethyl)thiirane;3-Chloro-1,2-propylene sulfide;NSC 36644",
    "duplicated_cas_no": "",
    "SMILES": "C(Cl)C1CS1",
    "meta_data": {
        "InChI": "InChI=1S/C3H5ClS/c4-1-3-2-5-3/h3H,1-2H2",
        "InChIKey": null,
        "Canonical SMILES": "ClCC1SC1",
        "Molecular Formula": "C<sub>3</sub>H<sub>5</sub>ClS",
        "Molecular Mass": "108.59",
        "Boiling Point": "94-96 °C"
    }
}