{
    "cas_no": "7688-51-9",
    "key_name": "1,1,1-Trimethyl-<em>N</em>-2-propen-1-yl-<em>N</em>-(trimethylsilyl)silanamine",
    "cn_name": null,
    "alternate_name": "Silanamine, 1,1,1-trimethyl-<em>N</em>-2-propen-1-yl-<em>N</em>-(trimethylsilyl)-;Silanamine, 1,1,1-trimethyl-<em>N</em>-2-propenyl-<em>N</em>-(trimethylsilyl)-;1,1,1-Trimethyl-<em>N</em>-2-propen-1-yl-<em>N</em>-(trimethylsilyl)silanamine;<em>N</em>,<em>N</em>-Bis(trimethylsilyl)allylamine;<em>N</em>,<em>N</em>-Bis(trimethylsilyl)-2-propen-1-amine;<em>N</em>-Allyl-<em>N</em>,<em>N</em>-bis(trimethylsilyl)amine;3-Bis(trimethylsilyl)amino-1-propene;<em>N</em>-Allyl-1,1,1-trimethyl-<em>N</em>-(trimethylsilyl)silanamine;Bis(trimethylsilyl)allylamine;(Prop-2-en-1-yl)bis(trimethylsilyl)amine",
    "duplicated_cas_no": "",
    "SMILES": "N([Si](C)(C)C)([Si](C)(C)C)CC=C",
    "meta_data": {
        "InChI": "InChI=1S/C9H23NSi2/c1-8-9-10(11(2,3)4)12(5,6)7/h8H,1,9H2,2-7H3",
        "InChIKey": null,
        "Canonical SMILES": "C=CCN([Si](C)(C)C)[Si](C)(C)C",
        "Molecular Formula": "C<sub>9</sub>H<sub>23</sub>NSi<sub>2</sub>",
        "Molecular Mass": "201.46",
        "Boiling Point": "179 °C @ Press: 741 Torr",
        "Density": "0.820 g/cm³ @ Temp: 25 °C"
    }
}