{
    "cas_no": "66952-49-6",
    "key_name": "Methasulfocarb",
    "cn_name": null,
    "alternate_name": "Carbamothioic acid, <em>N</em>-methyl-, <em>S</em>-[4-[(methylsulfonyl)oxy]phenyl] ester;Carbamothioic acid, methyl-, <em>S</em>-[4-[(methylsulfonyl)oxy]phenyl] ester;Methasulfocarb;Kayabest;[4-(Methylcarbamoylsulfanyl)phenyl] methanesulfonate",
    "duplicated_cas_no": "1135443-04-7",
    "SMILES": "O(S(C)(=O)=O)C1=CC=C(SC(NC)=O)C=C1",
    "meta_data": {
        "InChI": "InChI=1S/C9H11NO4S2/c1-10-9(11)15-8-5-3-7(4-6-8)14-16(2,12)13/h3-6H,1-2H3,(H,10,11)",
        "InChIKey": null,
        "Canonical SMILES": "O=C(SC1=CC=C(OS(=O)(=O)C)C=C1)NC",
        "Molecular Formula": "C<sub>9</sub>H<sub>11</sub>NO<sub>4</sub>S<sub>2</sub>",
        "Molecular Mass": "261.32",
        "Melting Point": "137 °C"
    }
}