{
    "cas_no": "5581-32-8",
    "key_name": "Bisphenol A bis(2,3-dihydroxypropyl) ether",
    "cn_name": null,
    "alternate_name": "1,2-Propanediol, 3,3′-[(1-methylethylidene)bis(4,1-phenyleneoxy)]bis-;1,2-Propanediol, 3,3′-[isopropylidenebis(<em>p</em>-phenyleneoxy)]di-;3,3′-[(1-Methylethylidene)bis(4,1-phenyleneoxy)]bis[1,2-propanediol];Bisphenol A bis(2,3-dihydroxypropyl) ether;BADGETOL;BADGE.2H<sub>2</sub>O;2,2-Bis[4-(2,3-dihydroxypropoxy)phenyl]propane",
    "duplicated_cas_no": "",
    "SMILES": "C(C)(C)(C1=CC=C(OCC(CO)O)C=C1)C2=CC=C(OCC(CO)O)C=C2",
    "meta_data": {
        "InChI": "InChI=1S/C21H28O6/c1-21(2,15-3-7-19(8-4-15)26-13-17(24)11-22)16-5-9-20(10-6-16)27-14-18(25)12-23/h3-10,17-18,22-25H,11-14H2,1-2H3",
        "InChIKey": null,
        "Canonical SMILES": "OCC(O)COC1=CC=C(C=C1)C(C2=CC=C(OCC(O)CO)C=C2)(C)C",
        "Molecular Formula": "C<sub>21</sub>H<sub>28</sub>O<sub>6</sub>",
        "Molecular Mass": "376.44",
        "Melting Point": "89-90 °C"
    }
}