{
    "cas_no": "564-73-8",
    "key_name": "Hinokiol",
    "cn_name": null,
    "alternate_name": "2,6-Phenanthrenediol, 1,2,3,4,4a,9,10,10a-octahydro-1,1,4a-trimethyl-7-(1-methylethyl)-, (2<em>S</em>,4a<em>S</em>,10a<em>R</em>)-;Podocarpa-8,11,13-triene-3β,12-diol, 13-isopropyl-;Hinokiol;2,6-Phenanthrenediol, 1,2,3,4,4a,9,10,10a-octahydro-1,1,4a-trimethyl-7-(1-methylethyl)-, [2<em>S</em>-(2α,4aα,10aβ)]-;(2<em>S</em>,4a<em>S</em>,10a<em>R</em>)-1,2,3,4,4a,9,10,10a-Octahydro-1,1,4a-trimethyl-7-(1-methylethyl)-2,6-phenanthrenediol;(+)-Hinokiol;NSC 319628",
    "duplicated_cas_no": "22595-38-6",
    "SMILES": "C[C@@]12C=3C(=CC(C(C)C)=C(O)C3)CC[C@]1(C(C)(C)[C@@H](O)CC2)[H]",
    "meta_data": {
        "InChI": "InChI=1S/C20H30O2/c1-12(2)14-10-13-6-7-17-19(3,4)18(22)8-9-20(17,5)15(13)11-16(14)21/h10-12,17-18,21-22H,6-9H2,1-5H3/t17-,18-,20+/m0/s1",
        "InChIKey": null,
        "Canonical SMILES": "OC=1C=C2C(=CC1C(C)C)CCC3C2(C)CCC(O)C3(C)C",
        "Molecular Formula": "C<sub>20</sub>H<sub>30</sub>O<sub>2</sub>",
        "Molecular Mass": "302.45",
        "Melting Point": "240-242 °C"
    }
}