{
    "cas_no": "1011-54-7",
    "key_name": "<em>trans</em>-2-Methoxycinnamic acid",
    "cn_name": "反式-2-甲氧基肉桂酸;反-O-甲基邻香豆酸;",
    "alternate_name": "2-Propenoic acid, 3-(2-methoxyphenyl)-, (2<em>E</em>)-;Cinnamic acid, <em>o</em>-methoxy-, (<em>E</em>)-;2-Propenoic acid, 3-(2-methoxyphenyl)-, (<em>E</em>)-;Cinnamic acid, <em>o</em>-methoxy-, <em>trans</em>-;(2<em>E</em>)-3-(2-Methoxyphenyl)-2-propenoic acid;<em>trans</em>-2-Methoxycinnamic acid;(<em>E</em>)-<em>o</em>-Methoxycinnamic acid;(<em>E</em>)-2-Methoxycinnamic acid;(<em>E</em>)-3-(2-Methoxyphenyl)acrylic acid;<em>trans</em>-3-(2-Methoxyphenyl)-2-propenoic acid;<em>trans</em>-<em>o</em>-Methoxycinnamic acid;(<em>E</em>)-3-(2-Methoxyphenyl)-2-propenoic acid;(E)-2-Methoxycinnamic acid;(E)-3-(2-Methoxyphenyl)acrylic acid;(2<em>E</em>)-3-(2-Methoxyphenyl)prop-2-enoic acid",
    "duplicated_cas_no": "",
    "SMILES": "C(=C/C(O)=O)\\C1=C(OC)C=CC=C1",
    "meta_data": {
        "InChI": "InChI=1S/C10H10O3/c1-13-9-5-3-2-4-8(9)6-7-10(11)12/h2-7H,1H3,(H,11,12)/b7-6+",
        "InChIKey": null,
        "Canonical SMILES": "O=C(O)C=CC=1C=CC=CC1OC",
        "Molecular Formula": "C<sub>10</sub>H<sub>10</sub>O<sub>3</sub>",
        "Molecular Mass": "178.18",
        "Melting Point": "182 °C"
    }
}