{
    "cas_no": "121-30-2",
    "key_name": "4-Amino-6-chloro-1,3-benzenedisulfonamide",
    "cn_name": "5-氯-2,4-二磺酰胺基苯胺;",
    "alternate_name": "1,3-Benzenedisulfonamide, 4-amino-6-chloro-;<em>m</em>-Benzenedisulfonamide, 4-amino-6-chloro-;4-Amino-6-chloro-1,3-benzenedisulfonamide;1-Amino-5-chloro-2,4-benzenedisulfonamide;4-Amino-6-chloro-<em>m</em>-benzenedisulfonamide;Salmid;Su 5683;4-Amino-6-chlorobenzene-1,3-disulfonamide;5-Chloro-2,4-disulfamoylaniline;Chloraminophenamide;Chloroaminophenamide;Idorese;Salamid;3-Chloro-4,6-disulfamoylaniline;Salamide;Salamide (diuretic);NSC 93772;4-Amino-6-chlorobenzene-1,3-disulphonamide",
    "duplicated_cas_no": "27907-29-5",
    "SMILES": "S(N)(=O)(=O)C1=CC(S(N)(=O)=O)=C(N)C=C1Cl",
    "meta_data": {
        "InChI": "InChI=1S/C6H8ClN3O4S2/c7-3-1-4(8)6(16(10,13)14)2-5(3)15(9,11)12/h1-2H,8H2,(H2,9,11,12)(H2,10,13,14)",
        "InChIKey": null,
        "Canonical SMILES": "O=S(=O)(N)C=1C=C(C(N)=CC1Cl)S(=O)(=O)N",
        "Molecular Formula": "C<sub>6</sub>H<sub>8</sub>ClN<sub>3</sub>O<sub>4</sub>S<sub>2</sub>",
        "Molecular Mass": "285.73",
        "Melting Point": "254.5 °C"
    }
}