{
    "cas_no": "80866-80-4",
    "key_name": "2-Chloro-5-nitrobenzenemethanol",
    "cn_name": "2-氯-5-硝基苯甲醇;",
    "alternate_name": "Benzenemethanol, 2-chloro-5-nitro-;Benzyl alcohol, 2-chloro-5-nitro-;2-Chloro-5-nitrobenzenemethanol;2-Chloro-5-nitrobenzyl alcohol;(2-Chloro-5-nitrophenyl)methanol",
    "duplicated_cas_no": "",
    "SMILES": "C(O)C1=CC(N(=O)=O)=CC=C1Cl",
    "meta_data": {
        "InChI": "InChI=1S/C7H6ClNO3/c8-7-2-1-6(9(11)12)3-5(7)4-10/h1-3,10H,4H2",
        "InChIKey": null,
        "Canonical SMILES": "O=N(=O)C1=CC=C(Cl)C(=C1)CO",
        "Molecular Formula": "C<sub>7</sub>H<sub>6</sub>ClNO<sub>3</sub>",
        "Molecular Mass": "187.58",
        "Melting Point": "68 °C"
    }
}