{
    "cas_no": "6234-26-0",
    "key_name": "Glycylglycyl-<span class=\"text-smallcaps\">L</span>-phenylalanine",
    "cn_name": null,
    "alternate_name": "<span class=\"text-smallcaps\">L</span>-Phenylalanine, glycylglycyl-;Alanine, <em>N</em>-(<em>N</em>-glycylglycyl)-3-phenyl-, <span class=\"text-smallcaps\">L</span>-;<span class=\"text-smallcaps\">L</span>-Phenylalanine, <em>N</em>-(<em>N</em>-glycylglycyl)-;Alanine, <em>N</em>-(<em>N</em>-glycylglycyl)-3-phenyl-;Glycylglycyl-<span class=\"text-smallcaps\">L</span>-phenylalanine;Human β-endorphin-(2-4);1: PN: WO2015155998 PAGE: 228 claimed sequence;97: PN: WO2015171965 SEQID: 101 claimed protein;(<em>S</em>)-2-(2-(2-Aminoacetamido)acetamido)-3-phenylpropanoicacid;(2S)-2-[2-(2-Aminoacetamido)acetamido]-3-phenylpropanoic acid;(<em>S</em>)-2-(2-(2-Aminoacetamido)acetamido)-3-phenylpropanoic acid;167: PN: WO2019173787 SEQID: 167 claimed protein;3: PN: WO2022115421 PAGE: 105 claimed sequence;3: PN: WO2022266659 PAGE: 111 claimed sequence",
    "duplicated_cas_no": "",
    "SMILES": "[C@@H](CC1=CC=CC=C1)(NC(CNC(CN)=O)=O)C(O)=O",
    "meta_data": {
        "InChI": "InChI=1S/C13H17N3O4/c14-7-11(17)15-8-12(18)16-10(13(19)20)6-9-4-2-1-3-5-9/h1-5,10H,6-8,14H2,(H,15,17)(H,16,18)(H,19,20)/t10-/m0/s1",
        "InChIKey": null,
        "Canonical SMILES": "O=C(O)C(NC(=O)CNC(=O)CN)CC=1C=CC=CC1",
        "Molecular Formula": "C<sub>13</sub>H<sub>17</sub>N<sub>3</sub>O<sub>4</sub>",
        "Molecular Mass": "279.29",
        "Melting Point": "228-230 °C (decomp)"
    }
}