{
    "cas_no": "959-33-1",
    "key_name": "4-Methoxychalcone",
    "cn_name": "4-甲氧基查耳酮;3-(4-甲氧苯基)-1-苯基-2-丙烯-1-酮;",
    "alternate_name": "2-Propen-1-one, 3-(4-methoxyphenyl)-1-phenyl-;Chalcone, 4-methoxy-;3-(4-Methoxyphenyl)-1-phenyl-2-propen-1-one;4′-Methoxybenzylideneacetophenone;4-Methoxychalcone;Phenyl <em>p</em>-methoxystyryl ketone;(4-Methoxybenzylidene)acetophenone;<em>p</em>-Methoxystyryl phenyl ketone;3-(<em>p</em>-Methoxyphenyl)-1-phenyl-2-propen-1-one;4-Methoxystyryl phenyl ketone;(<em>p</em>-Methoxybenzylidene)acetophenone;1-Phenyl-3-(4-methoxyphenyl)-2-propen-1-one;NSC 11866;NSC 636917;1-Phenyl-3-(4-methoxyphenyl)-2-propenone",
    "duplicated_cas_no": "",
    "SMILES": "C(C=CC1=CC=C(OC)C=C1)(=O)C2=CC=CC=C2",
    "meta_data": {
        "InChI": "InChI=1S/C16H14O2/c1-18-15-10-7-13(8-11-15)9-12-16(17)14-5-3-2-4-6-14/h2-12H,1H3",
        "InChIKey": null,
        "Canonical SMILES": "O=C(C=CC1=CC=C(OC)C=C1)C=2C=CC=CC2",
        "Molecular Formula": "C<sub>16</sub>H<sub>14</sub>O<sub>2</sub>",
        "Molecular Mass": "238.28",
        "Melting Point": "79 °C"
    }
}