{
    "cas_no": "35779-04-5",
    "key_name": "1-<em>tert</em>-Butyl-4-iodobenzene",
    "cn_name": "1-特-丁基-4-碘苯;",
    "alternate_name": "Benzene, 1-(1,1-dimethylethyl)-4-iodo-;Benzene, 1-<em>tert</em>-butyl-4-iodo-;1-(1,1-Dimethylethyl)-4-iodobenzene;1-<em>tert</em>-Butyl-4-iodobenzene;<em>p</em>-Iodo-<em>tert</em>-butylbenzene;<em>p</em>-<em>tert</em>-Butylphenyl iodide;<em>p</em>-<em>tert</em>-Butyliodobenzene;4-<em>tert</em>-Butylphenyl iodide;4-<em>tert</em>-Butyliodobenzene;4-<em>tert</em>-Butyl-1-iodobenzene;4-Iodo-1-<em>tert</em>-butylbenzene;1-Iodo-4-<em>tert</em>-butylbenzene;4-<em>t</em>-Butyl-1-iodobenzene",
    "duplicated_cas_no": "",
    "SMILES": "C(C)(C)(C)C1=CC=C(I)C=C1",
    "meta_data": {
        "InChI": "InChI=1S/C10H13I/c1-10(2,3)8-4-6-9(11)7-5-8/h4-7H,1-3H3",
        "InChIKey": null,
        "Canonical SMILES": "IC1=CC=C(C=C1)C(C)(C)C",
        "Molecular Formula": "C<sub>10</sub>H<sub>13</sub>I",
        "Molecular Mass": "260.11",
        "Boiling Point": "253-254 °C @ Press: 160 Torr",
        "Density": "1.4392 g/cm³ @ Temp: 14 °C"
    }
}