{
    "cas_no": "5157-08-4",
    "key_name": "4,5-Dihydro-6-methyl-3(2<em>H</em>)-pyridazinone",
    "cn_name": "4,5-二氢-6-甲基哒嗪-3(2H)-酮;",
    "alternate_name": "3(2<em>H</em>)-Pyridazinone, 4,5-dihydro-6-methyl-;4,5-Dihydro-6-methyl-3(2<em>H</em>)-pyridazinone;6-Methyl-4,5-dihydro-3(2<em>H</em>)-pyridazinone;NSC 14585;NSC 48103;3-Methyl-4,5-dihydro-1<em>H</em>-pyridazin-6-one",
    "duplicated_cas_no": "",
    "SMILES": "CC=1CCC(=O)NN1",
    "meta_data": {
        "InChI": "InChI=1S/C5H8N2O/c1-4-2-3-5(8)7-6-4/h2-3H2,1H3,(H,7,8)",
        "InChIKey": null,
        "Canonical SMILES": "O=C1NN=C(C)CC1",
        "Molecular Formula": "C<sub>5</sub>H<sub>8</sub>N<sub>2</sub>O",
        "Molecular Mass": "112.13",
        "Boiling Point": "265-270 °C",
        "Melting Point": "105 °C"
    }
}