{
    "cas_no": "1143-70-0",
    "key_name": "Urolithin A",
    "cn_name": null,
    "alternate_name": "6<em>H</em>-Dibenzo[<em>b</em>,<em>d</em>]pyran-6-one, 3,8-dihydroxy-;2-Biphenylcarboxylic acid, 2′,4,4′-trihydroxy-, δ-lactone;3,8-Dihydroxy-6<em>H</em>-dibenzo[<em>b</em>,<em>d</em>]pyran-6-one;Urolithin A;2′,7-Dihydroxy-3,4-benzocoumarin;3,8-Hydroxydibenzo-α-pyrone;3,8-Dihydroxyurolithin;3,8-Dihydroxybenzo[<em>c</em>]chromen-6-one",
    "duplicated_cas_no": "",
    "SMILES": "O=C1C=2C(C=3C(O1)=CC(O)=CC3)=CC=C(O)C2",
    "meta_data": {
        "InChI": "InChI=1S/C13H8O4/c14-7-1-3-9-10-4-2-8(15)6-12(10)17-13(16)11(9)5-7/h1-6,14-15H",
        "InChIKey": null,
        "Canonical SMILES": "O=C1OC=2C=C(O)C=CC2C3=CC=C(O)C=C13",
        "Molecular Formula": "C<sub>13</sub>H<sub>8</sub>O<sub>4</sub>",
        "Molecular Mass": "228.20",
        "Melting Point": "340-345 °C"
    }
}