{
    "cas_no": "616-82-0",
    "key_name": "4-Hydroxy-3-nitrobenzoic acid",
    "cn_name": "4-羟基-3-硝基苯甲酸;",
    "alternate_name": "Benzoic acid, 4-hydroxy-3-nitro-;4-Hydroxy-3-nitrobenzoic acid;3-Nitro-4-hydroxybenzoic acid;4-Carboxy-2-nitrophenol;<em>p</em>-Hydroxy-<em>m</em>-nitrobenzoic acid;NSC 78436",
    "duplicated_cas_no": "",
    "SMILES": "N(=O)(=O)C1=CC(C(O)=O)=CC=C1O",
    "meta_data": {
        "InChI": "InChI=1S/C7H5NO5/c9-6-2-1-4(7(10)11)3-5(6)8(12)13/h1-3,9H,(H,10,11)",
        "InChIKey": null,
        "Canonical SMILES": "O=C(O)C1=CC=C(O)C(=C1)N(=O)=O",
        "Molecular Formula": "C<sub>7</sub>H<sub>5</sub>NO<sub>5</sub>",
        "Molecular Mass": "183.12",
        "Melting Point": "183-184 °C"
    }
}