{
    "cas_no": "85095-61-0",
    "key_name": "<em>N</em>,<em>N</em>′-(Methylenedi-4,1-phenylene)bis[2,2-dimethylhydrazinecarboxamide]",
    "cn_name": null,
    "alternate_name": "Hydrazinecarboxamide, <em>N</em>,<em>N</em>′-(methylenedi-4,1-phenylene)bis[2,2-dimethyl-;<em>N</em>,<em>N</em>′-(Methylenedi-4,1-phenylene)bis[2,2-dimethylhydrazinecarboxamide];1,1,1′,1′-Tetramethyl-4,4′-(methylene-di-<em>p</em>-phenylene)disemicarbazide;HN 150;Z-UDT;4,4′-(Methylene-di-<em>p</em>-phenylene)bis(<em>N</em>,<em>N</em>-dimethylsemicarbazide);Chisorb 1500;UDT;Anti-yellowing agent UDT;1-(Dimethylamino)-3-[4-[[4-(dimethylaminocarbamoylamino)phenyl]methyl]phenyl]urea",
    "duplicated_cas_no": "",
    "SMILES": "C(C1=CC=C(NC(NN(C)C)=O)C=C1)C2=CC=C(NC(NN(C)C)=O)C=C2",
    "meta_data": {
        "InChI": "InChI=1S/C19H26N6O2/c1-24(2)22-18(26)20-16-9-5-14(6-10-16)13-15-7-11-17(12-8-15)21-19(27)23-25(3)4/h5-12H,13H2,1-4H3,(H2,20,22,26)(H2,21,23,27)",
        "InChIKey": null,
        "Canonical SMILES": "O=C(NC1=CC=C(C=C1)CC2=CC=C(C=C2)NC(=O)NN(C)C)NN(C)C",
        "Molecular Formula": "C<sub>19</sub>H<sub>26</sub>N<sub>6</sub>O<sub>2</sub>",
        "Molecular Mass": "370.45",
        "Melting Point": "161-162 °C"
    }
}