{
    "cas_no": "7440-60-0",
    "key_name": "Holmium",
    "cn_name": "钬;",
    "alternate_name": "Holmium;Holmium-165;MeSH ID: D006695",
    "duplicated_cas_no": "110444-52-5;24490-89-9",
    "SMILES": "[Ho]",
    "meta_data": {
        "InChI": "InChI=1S/Ho",
        "InChIKey": null,
        "Canonical SMILES": "[Ho]",
        "Molecular Formula": "Ho",
        "Molecular Mass": "",
        "Melting Point": "1474 °C (polymorph)",
        "Density": "8.33 g/cm³"
    }
}