{
    "cas_no": "14320-37-7",
    "key_name": "3-Cyclopenten-1-one",
    "cn_name": null,
    "alternate_name": "3-Cyclopenten-1-one;3-Cyclopentenone;Δ<sup>3</sup>-Cyclopentenone;1-Cyclopenten-4-one",
    "duplicated_cas_no": "",
    "SMILES": "O=C1CC=CC1",
    "meta_data": {
        "InChI": "InChI=1S/C5H6O/c6-5-3-1-2-4-5/h1-2H,3-4H2",
        "InChIKey": null,
        "Canonical SMILES": "O=C1CC=CC1",
        "Molecular Formula": "C<sub>5</sub>H<sub>6</sub>O",
        "Molecular Mass": "82.10",
        "Boiling Point": "133-135 °C",
        "Melting Point": "65.3-65.6 °C",
        "Density": "0.9821 g/cm³ @ Temp: 20 °C"
    }
}