{
    "cas_no": "2631-37-0",
    "key_name": "Promecarb",
    "cn_name": null,
    "alternate_name": "Phenol, 3-methyl-5-(1-methylethyl)-, 1-(<em>N</em>-methylcarbamate);Carbamic acid, methyl-, <em>m</em>-cym-5-yl ester;Phenol, 3-methyl-5-(1-methylethyl)-, methylcarbamate;EP 316;Schering 34615;<em>m</em>-Cym-5-yl methylcarbamate;Minacide;Morton EP-316;ITC;Sch 34615;3-Methyl-5-isopropylphenyl methylcarbamate;Promecarb;Carbamult;3-Methyl-5-isopropylphenyl <em>N</em>-methylcarbamate;3-Isopropyl-5-methylphenyl <em>N</em>-methylcarbamate;3-Isopropyl-5-methylphenyl methylcarbamate;NSC 35378;3-Methyl-5-i-propylphenyl <em>N</em>-methylcarbamate",
    "duplicated_cas_no": "4111-89-1;31677-56-2",
    "SMILES": "O(C(NC)=O)C1=CC(C(C)C)=CC(C)=C1",
    "meta_data": {
        "InChI": "InChI=1S/C12H17NO2/c1-8(2)10-5-9(3)6-11(7-10)15-12(14)13-4/h5-8H,1-4H3,(H,13,14)",
        "InChIKey": null,
        "Canonical SMILES": "O=C(OC=1C=C(C=C(C1)C(C)C)C)NC",
        "Molecular Formula": "C<sub>12</sub>H<sub>17</sub>NO<sub>2</sub>",
        "Molecular Mass": "207.27",
        "Boiling Point": "117 °C @ Press: 0.1 Torr",
        "Melting Point": "87-87.5 °C"
    }
}