{
    "cas_no": "2549-19-1",
    "key_name": "2-Methylimidazo[1,2-<em>a</em>]pyridine-3-carboxylic acid ethyl ester",
    "cn_name": null,
    "alternate_name": "Imidazo[1,2-<em>a</em>]pyridine-3-carboxylic acid, 2-methyl-, ethyl ester;2-Methylimidazo[1,2-<em>a</em>]pyridine-3-carboxylic acid ethyl ester",
    "duplicated_cas_no": "",
    "SMILES": "C(OCC)(=O)C=1N2C(=NC1C)C=CC=C2",
    "meta_data": {
        "InChI": "InChI=1S/C11H12N2O2/c1-3-15-11(14)10-8(2)12-9-6-4-5-7-13(9)10/h4-7H,3H2,1-2H3",
        "InChIKey": null,
        "Canonical SMILES": "O=C(OCC)C1=C(N=C2C=CC=CN21)C",
        "Molecular Formula": "C<sub>11</sub>H<sub>12</sub>N<sub>2</sub>O<sub>2</sub>",
        "Molecular Mass": "204.23",
        "Melting Point": "64-65 °C"
    }
}