{
    "cas_no": "1569-60-4",
    "key_name": "6-Methyl-5-hepten-2-ol",
    "cn_name": "(±)-6-甲基-5-庚烯基-2-醇;",
    "alternate_name": "5-Hepten-2-ol, 6-methyl-;6-Methyl-5-hepten-2-ol;6-Hydroxy-2-methyl-2-heptene;2-Methyl-2-hepten-6-ol;Sulcatol;(±)-Sulcatol;(±)-6-Methyl-5-hepten-2-ol;NSC 66273",
    "duplicated_cas_no": "4630-06-2",
    "SMILES": "C(C=C(C)C)CC(C)O",
    "meta_data": {
        "InChI": "InChI=1S/C8H16O/c1-7(2)5-4-6-8(3)9/h5,8-9H,4,6H2,1-3H3",
        "InChIKey": null,
        "Canonical SMILES": "OC(C)CCC=C(C)C",
        "Molecular Formula": "C<sub>8</sub>H<sub>16</sub>O",
        "Molecular Mass": "128.21",
        "Boiling Point": "175 °C",
        "Density": "0.855 g/cm³ @ Temp: 14 °C"
    }
}