{
    "cas_no": "462-10-2",
    "key_name": "Homocystine",
    "cn_name": "L-高胱氨酸;L-4,4\"-二硫双(2-氨基丁酸);",
    "alternate_name": "Butanoic acid, 4,4′-dithiobis[2-amino-;Butyric acid, 4,4′-dithiobis[2-amino-;4,4′-Dithiobis[2-aminobutanoic acid];4,4′-Dithiobis[2-aminobutyric acid];Homocystine;NSC 11337;NSC 43122;(<em>RS</em>)-Homocystine;2-Azaniumyl-4-[(3-azaniumyl-3-carboxylatopropyl)disulfanyl]butanoate;2-Amino-4-[(3-amino-3-carboxypropyl)disulfanyl]butanoic acid;MeSH ID: D006711",
    "duplicated_cas_no": "1866-61-1",
    "SMILES": "C(C(C(O)=O)N)CSSCCC(C(O)=O)N",
    "meta_data": {
        "InChI": "InChI=1S/C8H16N2O4S2/c9-5(7(11)12)1-3-15-16-4-2-6(10)8(13)14/h5-6H,1-4,9-10H2,(H,11,12)(H,13,14)",
        "InChIKey": null,
        "Canonical SMILES": "O=C(O)C(N)CCSSCCC(N)C(=O)O",
        "Molecular Formula": "C<sub>8</sub>H<sub>16</sub>N<sub>2</sub>O<sub>4</sub>S<sub>2</sub>",
        "Molecular Mass": "268.35",
        "Melting Point": "260-265 °C (decomp)"
    }
}