{
    "cas_no": "35249-62-8",
    "key_name": "2-Bromo-4,5-dimethoxybenzenepropanenitrile",
    "cn_name": null,
    "alternate_name": "Benzenepropanenitrile, 2-bromo-4,5-dimethoxy-;2-Bromo-4,5-dimethoxybenzenepropanenitrile;2-Bromo-4,5-dimethoxyhydrocinnamonitrile;NSC 268227;3-(2-Bromo-4,5-dimethoxyphenyl)propiononitrile;3-(2-Bromo-4,5-dimethoxyphenyl)propanenitrile",
    "duplicated_cas_no": "",
    "SMILES": "O(C)C1=C(OC)C=C(Br)C(CCC#N)=C1",
    "meta_data": {
        "InChI": "InChI=1S/C11H12BrNO2/c1-14-10-6-8(4-3-5-13)9(12)7-11(10)15-2/h6-7H,3-4H2,1-2H3",
        "InChIKey": null,
        "Canonical SMILES": "N#CCCC=1C=C(OC)C(OC)=CC1Br",
        "Molecular Formula": "C<sub>11</sub>H<sub>12</sub>BrNO<sub>2</sub>",
        "Molecular Mass": "270.12",
        "Melting Point": "90-92 °C"
    }
}