{
    "cas_no": "541-02-6",
    "key_name": "Decamethylcyclopentasiloxane",
    "cn_name": "十甲基环五硅氧烷;",
    "alternate_name": "Cyclopentasiloxane, 2,2,4,4,6,6,8,8,10,10-decamethyl-;Cyclopentasiloxane, decamethyl-;2,2,4,4,6,6,8,8,10,10-Decamethylcyclopentasiloxane;Decamethylcyclopentasiloxane;Dimethylsiloxane pentamer;Union Carbide 7158 Silicone Fluid;Dow Corning 345;NUC Silicone VS 7158;Dow Corning 345 Fluid;Cyclic dimethylsiloxane pentamer;SF 1202;Silicone SF 1202;VS 7158;KF 995;Dow Corning 245;DC 245;Silbione V 5;Volasil 245;DC 345;TSF 465;LS 9000;Cyclo-decamethylpentasiloxane;Execol D 5;TSF 405;Pentacyclomethicone;SH 245;TFS 405;Silbione 70045V5;Mirasil CM 5;Dow Corning 345EU;DC 2-5252C;Dow Corning 2-5252C;DC 345 Fluid;Dow Corning 245 Fluid;Silicon Plus α;Botanisil CP 33;Cyclopentasiloxane;Cyclopentadimethylsiloxane;D<sub>5</sub>;Volatile Silicone Fluid 345;Cyclomethicone pentamer 245;Xiameter PMX;Xiameter PMX 0245;Tego Polish Additive 5;SH 245 Fluid;Decamethylpentacyclosiloxane;KF 7312T;TSF 405A;KF 955;D 5 (siloxane);Siloxane D 5;PMX 345;D 5;D 1890;Dowsil 245;Dowsil SH 245 Fluid;Dowsil SH 245;SiCare 2955",
    "duplicated_cas_no": "",
    "SMILES": "C[Si]1(C)O[Si](C)(C)O[Si](C)(C)O[Si](C)(C)O[Si](C)(C)O1",
    "meta_data": {
        "InChI": "InChI=1S/C10H30O5Si5/c1-16(2)11-17(3,4)13-19(7,8)15-20(9,10)14-18(5,6)12-16/h1-10H3",
        "InChIKey": null,
        "Canonical SMILES": "O1[Si](O[Si](O[Si](O[Si](O[Si]1(C)C)(C)C)(C)C)(C)C)(C)C",
        "Molecular Formula": "C<sub>10</sub>H<sub>30</sub>O<sub>5</sub>Si<sub>5</sub>",
        "Molecular Mass": "370.77",
        "Boiling Point": "210 °C",
        "Melting Point": "-38 °C",
        "Density": "0.9593 g/cm³ @ Temp: 20 °C"
    }
}