{
    "cas_no": "94088-46-7",
    "key_name": "2-Fluoro-6-methoxybenzonitrile",
    "cn_name": "2-氟-6-甲氧基苯腈;2-氟-6-甲氧基苯甲腈;",
    "alternate_name": "Benzonitrile, 2-fluoro-6-methoxy-;2-Fluoro-6-methoxybenzonitrile;2-Methoxy-6-fluorobenzonitrile;6-Methoxy-2-fluorobenzonitrile",
    "duplicated_cas_no": "",
    "SMILES": "O(C)C1=C(C#N)C(F)=CC=C1",
    "meta_data": {
        "InChI": "InChI=1S/C8H6FNO/c1-11-8-4-2-3-7(9)6(8)5-10/h2-4H,1H3",
        "InChIKey": null,
        "Canonical SMILES": "N#CC=1C(F)=CC=CC1OC",
        "Molecular Formula": "C<sub>8</sub>H<sub>6</sub>FNO",
        "Molecular Mass": "151.14",
        "Melting Point": "93-95 °C"
    }
}