{
    "cas_no": "575-41-7",
    "key_name": "1,3-Dimethylnaphthalene",
    "cn_name": "1,3-二甲基萘;",
    "alternate_name": "Naphthalene, 1,3-dimethyl-;1,3-Dimethylnaphthalene;NSC 66991",
    "duplicated_cas_no": "",
    "SMILES": "CC=1C2=C(C=C(C)C1)C=CC=C2",
    "meta_data": {
        "InChI": "InChI=1S/C12H12/c1-9-7-10(2)12-6-4-3-5-11(12)8-9/h3-8H,1-2H3",
        "InChIKey": null,
        "Canonical SMILES": "C=1C=CC2=C(C1)C=C(C=C2C)C",
        "Molecular Formula": "C<sub>12</sub>H<sub>12</sub>",
        "Molecular Mass": "156.22",
        "Boiling Point": "263 °C",
        "Melting Point": "-6 °C",
        "Density": "1.0144 g/cm³ @ Temp: 20 °C"
    }
}