{
    "cas_no": "6342-80-9",
    "key_name": "4,5-Dimethoxy-1-indanone",
    "cn_name": "4,5-二甲氧基-1-茚满酮;",
    "alternate_name": "1<em>H</em>-Inden-1-one, 2,3-dihydro-4,5-dimethoxy-;1-Indanone, 4,5-dimethoxy-;2,3-Dihydro-4,5-dimethoxy-1<em>H</em>-inden-1-one;4,5-Dimethoxy-1-indanone;NSC 46649",
    "duplicated_cas_no": "",
    "SMILES": "O(C)C1=C2C(=CC=C1OC)C(=O)CC2",
    "meta_data": {
        "InChI": "InChI=1S/C11H12O3/c1-13-10-6-4-7-8(11(10)14-2)3-5-9(7)12/h4,6H,3,5H2,1-2H3",
        "InChIKey": null,
        "Canonical SMILES": "O=C1C2=CC=C(OC)C(OC)=C2CC1",
        "Molecular Formula": "C<sub>11</sub>H<sub>12</sub>O<sub>3</sub>",
        "Molecular Mass": "192.21",
        "Boiling Point": "160-161 °C @ Press: 2 Torr",
        "Melting Point": "82 °C"
    }
}