{
    "cas_no": "868-83-7",
    "key_name": "Acetic acid, 2-chloro-, hydrazide, hydrochloride (1:1)",
    "cn_name": null,
    "alternate_name": "Acetic acid, 2-chloro-, hydrazide, hydrochloride (1:1);Acetic acid, chloro-, hydrazide, monohydrochloride;Acetic acid, chloro-, hydrazide, hydrochloride;Chloroacetylhydrazine hydrochloride;2-Chloroacetohydrazide hydrochloride",
    "duplicated_cas_no": "",
    "SMILES": "C(CCl)(NN)=O.Cl",
    "meta_data": {
        "InChI": "InChI=1S/C2H5ClN2O.ClH/c3-1-2(6)5-4;/h1,4H2,(H,5,6);1H",
        "InChIKey": null,
        "Canonical SMILES": "Cl.O=C(NN)CCl",
        "Molecular Formula": "C<sub>2</sub>H<sub>5</sub>ClN<sub>2</sub>O.ClH",
        "Molecular Mass": "",
        "Melting Point": "150 °C (decomp)"
    }
}