{
    "cas_no": "76963-41-2",
    "key_name": "Nizatidine",
    "cn_name": "尼扎替丁;N-[2-[[[2-(二甲胺基)甲基]-4-噻唑基]甲基]硫]乙基]-N\"-甲基-2-硝基]-1,1-乙烯二胺;",
    "alternate_name": "1,1-Ethenediamine, <em>N</em>′-[2-[[[2-[(dimethylamino)methyl]-4-thiazolyl]methyl]thio]ethyl]-<em>N</em>-methyl-2-nitro-;1,1-Ethenediamine, <em>N</em>-[2-[[[2-[(dimethylamino)methyl]-4-thiazolyl]methyl]thio]ethyl]-<em>N</em>′-methyl-2-nitro-;<em>N</em>′-[2-[[[2-[(Dimethylamino)methyl]-4-thiazolyl]methyl]thio]ethyl]-<em>N</em>-methyl-2-nitro-1,1-ethenediamine;Nizatidine;LY 139037;Axid;Acinon;Tazac;Bonacid;Distaxid;Calmaxid;ZL 101;Nizax;Naxidine;Nizaxid;Cronizat;Zanizal;Gastrax;MeSH ID: D016567",
    "duplicated_cas_no": "",
    "SMILES": "C(N(C)C)C1=NC(CSCCNC(=CN(=O)=O)NC)=CS1",
    "meta_data": {
        "InChI": "InChI=1S/C12H21N5O2S2/c1-13-11(6-17(18)19)14-4-5-20-8-10-9-21-12(15-10)7-16(2)3/h6,9,13-14H,4-5,7-8H2,1-3H3",
        "InChIKey": null,
        "Canonical SMILES": "O=N(=O)C=C(NC)NCCSCC=1N=C(SC1)CN(C)C",
        "Molecular Formula": "C<sub>12</sub>H<sub>21</sub>N<sub>5</sub>O<sub>2</sub>S<sub>2</sub>",
        "Molecular Mass": "331.46",
        "Melting Point": "130-132 °C"
    }
}