{
    "cas_no": "89809-64-3",
    "key_name": "5-Chloro-2-pyridinecarbonitrile",
    "cn_name": "2-氰基-5-氯吡啶;5-氯-2-氰基吡啶;",
    "alternate_name": "2-Pyridinecarbonitrile, 5-chloro-;5-Chloro-2-pyridinecarbonitrile;2-Cyano-5-chloropyridine;5-Chloro-2-cyanopyridine;5-Chloropicolinonitrile",
    "duplicated_cas_no": "",
    "SMILES": "C(#N)C1=CC=C(Cl)C=N1",
    "meta_data": {
        "InChI": "InChI=1S/C6H3ClN2/c7-5-1-2-6(3-8)9-4-5/h1-2,4H",
        "InChIKey": null,
        "Canonical SMILES": "N#CC1=NC=C(Cl)C=C1",
        "Molecular Formula": "C<sub>6</sub>H<sub>3</sub>ClN<sub>2</sub>",
        "Molecular Mass": "138.55",
        "Boiling Point": "110 °C @ Press: 3 Torr",
        "Melting Point": "83-84 °C"
    }
}