{
    "cas_no": "90-69-7",
    "key_name": "(-)-Lobeline",
    "cn_name": "洛贝林;洛贝林;",
    "alternate_name": "Ethanone, 2-[(2<em>R</em>,6<em>S</em>)-6-[(2<em>S</em>)-2-hydroxy-2-phenylethyl]-1-methyl-2-piperidinyl]-1-phenyl-;Lobeline;Ethanone, 2-[6-(2-hydroxy-2-phenylethyl)-1-methyl-2-piperidinyl]-1-phenyl-, [2<em>R</em>-[2α,6α(<em>S</em>*)]]-;α-Lobeline;2-[(2<em>R</em>,6<em>S</em>)-6-[(2<em>S</em>)-2-Hydroxy-2-phenylethyl]-1-methyl-2-piperidinyl]-1-phenylethanone;8,10-Diphenyllobelionol;2-[6-(β-Hydroxyphenethyl)-1-methyl-2-piperidyl]acetophenone;Inflatine;(-)-Lobeline;Lobnico;Lobelin;<em>l</em>-Lobeline;<span class=\"text-smallcaps\">L</span>-Lobeline;(-)-α-Lobeline;NIH 11034;MeSH ID: D008120",
    "duplicated_cas_no": "8057-04-3",
    "SMILES": "C([C@H](O)C1=CC=CC=C1)[C@H]2N(C)[C@@H](CC(=O)C3=CC=CC=C3)CCC2",
    "meta_data": {
        "InChI": "InChI=1S/C22H27NO2/c1-23-19(15-21(24)17-9-4-2-5-10-17)13-8-14-20(23)16-22(25)18-11-6-3-7-12-18/h2-7,9-12,19-21,24H,8,13-16H2,1H3/t19-,20+,21-/m0/s1",
        "InChIKey": null,
        "Canonical SMILES": "O=C(C=1C=CC=CC1)CC2N(C)C(CCC2)CC(O)C=3C=CC=CC3",
        "Molecular Formula": "C<sub>22</sub>H<sub>27</sub>NO<sub>2</sub>",
        "Molecular Mass": "337.46",
        "Melting Point": "130.5 °C"
    }
}