{
    "cas_no": "75-12-7",
    "key_name": "Formamide",
    "cn_name": "甲酰胺;",
    "alternate_name": "Formamide;Carbamaldehyde;Methanamide;Formimidic acid;NSC 748",
    "duplicated_cas_no": "23296-41-5;1156543-55-3;1158234-15-1",
    "SMILES": "C(N)=O",
    "meta_data": {
        "InChI": "InChI=1S/CH3NO/c2-1-3/h1H,(H2,2,3)",
        "InChIKey": null,
        "Canonical SMILES": "O=CN",
        "Molecular Formula": "CH<sub>3</sub>NO",
        "Molecular Mass": "45.04",
        "Boiling Point": "210.5 °C @ Press: 760 Torr",
        "Melting Point": "2.55 °C",
        "Density": "1.1334 g/cm³ @ Temp: 20 °C"
    }
}