{
    "cas_no": "60646-30-2",
    "key_name": "(+)-2,2,2-Trifluoro-1-(9-anthryl)ethanol",
    "cn_name": "2,2,2-三氟-1-(9-蒽基)乙醇;",
    "alternate_name": "9-Anthracenemethanol, α-(trifluoromethyl)-, (α<em>S</em>)-;9-Anthracenemethanol, α-(trifluoromethyl)-, (<em>S</em>)-;(α<em>S</em>)-α-(Trifluoromethyl)-9-anthracenemethanol;Pirkle's Alcohol;(<em>S</em>)-(+)-1-(9-Anthryl)-2,2,2-trifluoroethanol;(+)-2,2,2-Trifluoro-1-(9-anthryl)ethanol;(<em>S</em>)-2,2,2-Trifluoro-1-(9-anthracenyl)ethanol;(+)-1-(9-Anthryl)-2,2,2-trifluoroethanol;(<em>S</em>)-1-(9-Anthryl)-2,2,2-trifluoro-1-ethanol;(<em>S</em>)-1-(Anthracen-9-yl)-2,2,2-trifluoroethanol;(<em>S</em>)-1-(Anthracen-10-yl)-2,2,2-trifluoroethanol;(<em>S</em>)-2,2,2-Trifluoro-1-(9-anthryl)ethanol;(<em>S</em>)-1-(9-Anthryl)-2,2,2-trifluoroethanol;(1<em>S</em>)-1-(9-Anthryl)-2,2,2-trifluoroethanol;(1S)-1-Anthracen-9-yl-2,2,2-trifluoroethanol",
    "duplicated_cas_no": "157381-23-2",
    "SMILES": "[C@H](C(F)(F)F)(O)C=1C2=C(C=C3C1C=CC=C3)C=CC=C2",
    "meta_data": {
        "InChI": "InChI=1S/C16H11F3O/c17-16(18,19)15(20)14-12-7-3-1-5-10(12)9-11-6-2-4-8-13(11)14/h1-9,15,20H/t15-/m0/s1",
        "InChIKey": null,
        "Canonical SMILES": "FC(F)(F)C(O)C=1C=2C=CC=CC2C=C3C=CC=CC31",
        "Molecular Formula": "C<sub>16</sub>H<sub>11</sub>F<sub>3</sub>O",
        "Molecular Mass": "276.25",
        "Melting Point": "135-136 °C"
    }
}