{
    "cas_no": "5398-08-3",
    "key_name": "Propanedioic acid, 2-(3-methylbutyl)-, 1,3-diethyl ester",
    "cn_name": "异戊基丙二酸二乙酯;(1-甲基丁基)丙二酸二乙酯;",
    "alternate_name": "Propanedioic acid, 2-(3-methylbutyl)-, 1,3-diethyl ester;Malonic acid, isopentyl-, diethyl ester;Propanedioic acid, (3-methylbutyl)-, diethyl ester;Diethyl isoamylmalonate;Diethyl 3-methylbutylmalonate;Diethyl isopentylmalonate;Diethyl 2-isopentylmalonate;(3-Methylbutyl)propanedioic acid diethyl ester;NSC 4569;1,3-Diethyl 2-(3-methylbutyl)propanedioate",
    "duplicated_cas_no": "",
    "SMILES": "C(C(OCC)=O)(C(OCC)=O)CCC(C)C",
    "meta_data": {
        "InChI": "InChI=1S/C12H22O4/c1-5-15-11(13)10(8-7-9(3)4)12(14)16-6-2/h9-10H,5-8H2,1-4H3",
        "InChIKey": null,
        "Canonical SMILES": "O=C(OCC)C(C(=O)OCC)CCC(C)C",
        "Molecular Formula": "C<sub>12</sub>H<sub>22</sub>O<sub>4</sub>",
        "Molecular Mass": "230.30",
        "Boiling Point": "241 °C"
    }
}