{
    "cas_no": "41267-76-9",
    "key_name": "2,3,6,7-Tetrahydro-9-methyl-1<em>H</em>,5<em>H</em>,11<em>H</em>-[1]benzopyrano[6,7,8-<em>ij</em>]quinolizin-11-one",
    "cn_name": "香豆素102;",
    "alternate_name": "1<em>H</em>,5<em>H</em>,11<em>H</em>-[1]Benzopyrano[6,7,8-<em>ij</em>]quinolizin-11-one, 2,3,6,7-tetrahydro-9-methyl-;2,3,6,7-Tetrahydro-9-methyl-1<em>H</em>,5<em>H</em>,11<em>H</em>-[1]benzopyrano[6,7,8-<em>ij</em>]quinolizin-11-one;Coumarin 102;Exciton 480;Coumarin 480;C 102;2,3,6,7-Tetrahydro-9-methyl-1<em>H</em>,5<em>H</em>-quinolizino[9,1-<em>gh</em>]coumarin;K 102;NSC 290431",
    "duplicated_cas_no": "53664-69-0;54576-75-9;865440-98-8",
    "SMILES": "CC=1C=2C(=C3C4=C(C2)CCCN4CCC3)OC(=O)C1",
    "meta_data": {
        "InChI": "InChI=1S/C16H17NO2/c1-10-8-14(18)19-16-12-5-3-7-17-6-2-4-11(15(12)17)9-13(10)16/h8-9H,2-7H2,1H3",
        "InChIKey": null,
        "Canonical SMILES": "O=C1OC2=C(C=C3C4=C2CCCN4CCC3)C(=C1)C",
        "Molecular Formula": "C<sub>16</sub>H<sub>17</sub>NO<sub>2</sub>",
        "Molecular Mass": "255.31",
        "Melting Point": "94-96 °C"
    }
}