{
    "cas_no": "7311-63-9",
    "key_name": "5-Bromo-2-thiophenecarboxylic acid",
    "cn_name": "5-溴噻吩-2-羧酸;5-溴-2-羧基噻吩;",
    "alternate_name": "2-Thiophenecarboxylic acid, 5-bromo-;5-Bromo-2-thiophenecarboxylic acid;2-Bromo-5-thiophenecarboxylic acid;NSC 408675;2-Bromo-5-carboxythiophene",
    "duplicated_cas_no": "",
    "SMILES": "C(O)(=O)C=1SC(Br)=CC1",
    "meta_data": {
        "InChI": "InChI=1S/C5H3BrO2S/c6-4-2-1-3(9-4)5(7)8/h1-2H,(H,7,8)",
        "InChIKey": null,
        "Canonical SMILES": "O=C(O)C=1SC(Br)=CC1",
        "Molecular Formula": "C<sub>5</sub>H<sub>3</sub>BrO<sub>2</sub>S",
        "Molecular Mass": "207.05",
        "Melting Point": "142 °C"
    }
}