{
    "cas_no": "7418-19-1",
    "key_name": "2,2,5,5-Tetramethyl-1-aza-2,5-disilacyclopentane",
    "cn_name": null,
    "alternate_name": "1-Aza-2,5-disilacyclopentane, 2,2,5,5-tetramethyl-;2,2,5,5-Tetramethyl-1-aza-2,5-disilacyclopentane;2,2,5,5-Tetramethyl-2,5-disilapyrrolidine;1,1,3,3-Tetramethyl-1,3-disila-2-azacyclopentane;2,2,5,5-Tetramethyl-2,5,1-disilazole;2,2,5,5-Tetramethyl-2,5-disila-1-azacyclopentane;2,2,5,5-Tetramethyl-1,2,5-azadisilolidine",
    "duplicated_cas_no": "",
    "SMILES": "C[Si]1(C)N[Si](C)(C)CC1",
    "meta_data": {
        "InChI": "InChI=1S/C6H17NSi2/c1-8(2)5-6-9(3,4)7-8/h7H,5-6H2,1-4H3",
        "InChIKey": null,
        "Canonical SMILES": "N1[Si](C)(C)CC[Si]1(C)C",
        "Molecular Formula": "C<sub>6</sub>H<sub>17</sub>NSi<sub>2</sub>",
        "Molecular Mass": "159.38",
        "Boiling Point": "92 °C @ Press: 185 Torr",
        "Density": "0.842 g/cm³"
    }
}