{
    "cas_no": "124-06-1",
    "key_name": "Ethyl myristate",
    "cn_name": "十四酸乙酯;肉豆蔻酸乙酯;",
    "alternate_name": "Tetradecanoic acid, ethyl ester;Myristic acid, ethyl ester;Ethyl myristate;Ethyl tetradecanoate;NSC 8917;Nikkol BM",
    "duplicated_cas_no": "",
    "SMILES": "C(CCCCCCCCCCC)CC(OCC)=O",
    "meta_data": {
        "InChI": "InChI=1S/C16H32O2/c1-3-5-6-7-8-9-10-11-12-13-14-15-16(17)18-4-2/h3-15H2,1-2H3",
        "InChIKey": null,
        "Canonical SMILES": "O=C(OCC)CCCCCCCCCCCCC",
        "Molecular Formula": "C<sub>16</sub>H<sub>32</sub>O<sub>2</sub>",
        "Molecular Mass": "256.42",
        "Boiling Point": "295 °C",
        "Melting Point": "12.3 °C",
        "Density": "0.8229 g/cm³ (liquid) @ Temp: 70.000 °C; Press: 750 Torr"
    }
}