{
    "cas_no": "36016-38-3",
    "key_name": "<em>tert</em>-Butyl <em>N</em>-hydroxycarbamate",
    "cn_name": "N-羟基氨基甲酸叔丁酯;N-叔丁氧羰基羟胺;",
    "alternate_name": "Carbamic acid, <em>N</em>-hydroxy-, 1,1-dimethylethyl ester;Carbamic acid, hydroxy-, 1,1-dimethylethyl ester;Carbamic acid, hydroxy-, <em>tert</em>-butyl ester;<em>tert</em>-Butoxycarbonylhydroxylamine;<em>N</em>-(<em>tert</em>-Butoxycarbonyl)hydroxylamine;<em>tert</em>-Butyl <em>N</em>-hydroxycarbamate;<em>tert</em>-Butyl hydroxycarbamate;<em>N</em>-(<em>tert</em>-Butyloxycarbonyl)hydroxylamine;1,1-Dimethylethyl <em>N</em>-hydroxycarbamate;<em>N</em>-<em>t</em>-Butyloxycarbonyl hydroxylamine;Hydroxycarbamic acid 1,1-dimethylethyl ester;NSC 131086;NSC 144620;<em>N</em>-Hydroxycarbamic acid <em>tert</em>-butyl ester;<em>N</em>-Boc-hydroxylamine;<em>tert</em>-Butoxyhydroxamic acid;<em>N</em>-Boc-hydroxyamine",
    "duplicated_cas_no": "",
    "SMILES": "O(C(C)(C)C)C(NO)=O",
    "meta_data": {
        "InChI": "InChI=1S/C5H11NO3/c1-5(2,3)9-4(7)6-8/h8H,1-3H3,(H,6,7)",
        "InChIKey": null,
        "Canonical SMILES": "O=C(OC(C)(C)C)NO",
        "Molecular Formula": "C<sub>5</sub>H<sub>11</sub>NO<sub>3</sub>",
        "Molecular Mass": "133.15",
        "Melting Point": "58-59 °C"
    }
}