{
    "cas_no": "7790-30-9",
    "key_name": "Thallium iodide (TlI)",
    "cn_name": "碘化铊;碘化亚铊;碘化铊(I);",
    "alternate_name": "Thallium iodide (TlI);Thallium monoiodide;Thallous iodide;Thallium iodide;Thallium(1+) iodide;Thallium(I) iodide",
    "duplicated_cas_no": "11089-41-1",
    "SMILES": "I[Tl]",
    "meta_data": {
        "InChI": "InChI=1S/HI.Tl/h1H;/q;+1/p-1",
        "InChIKey": null,
        "Canonical SMILES": "I[Tl]",
        "Molecular Formula": "ITl",
        "Molecular Mass": "",
        "Boiling Point": "823 °C",
        "Melting Point": "440 °C"
    }
}