{
    "cas_no": "3687-18-1",
    "key_name": "3-Aminopropanesulfonic acid",
    "cn_name": "3-氨基丙烷磺酸;3-氨基-1-丙磺酸;高牛磺酸;",
    "alternate_name": "1-Propanesulfonic acid, 3-amino-;3-Amino-1-propanesulfonic acid;3-Aminopropanesulfonic acid;Homotaurine;γ-Aminopropylsulfonic acid;3-Aminopropiosulfonic acid;3-Sulfopropylamine;3-Amino-1-propanesulfonate;NSC 77071;NC 758;Tramiprosate;Alzhemed;3-Azaniumylpropane-1-sulfonate",
    "duplicated_cas_no": "1081530-48-4",
    "SMILES": "C(S(=O)(=O)O)CCN",
    "meta_data": {
        "InChI": "InChI=1S/C3H9NO3S/c4-2-1-3-8(5,6)7/h1-4H2,(H,5,6,7)",
        "InChIKey": null,
        "Canonical SMILES": "O=S(=O)(O)CCCN",
        "Molecular Formula": "C<sub>3</sub>H<sub>9</sub>NO<sub>3</sub>S",
        "Molecular Mass": "139.17",
        "Melting Point": "292 °C"
    }
}