{
    "cas_no": "1320-67-8",
    "key_name": "Propylene glycol monomethyl ether",
    "cn_name": "3-甲氧基-1-丙醇;1,3-丙二醇单甲醚;",
    "alternate_name": "Propanol, 1(<em>or</em> 2)-methoxy-;Propanol, methoxy-;1(<em>or</em> 2)-Methoxypropanol;Dowanol PM;Propylene glycol monomethyl ether;Solvenon PM;Propylene glycol methyl ether;Methoxypropanol;Arcosolv PM;Kuraray PGM;Methyl Propasol;PM;PM (solvent);Polysolv MPM;MFG;1,2-Propanediol monomethyl ether;MMPG;Hisolve MP;Hisolve PM;PGM-AC 4120Y;PGME",
    "duplicated_cas_no": "1337-64-0;30523-02-5;89024-56-6;143749-19-3;170516-38-8",
    "SMILES": "",
    "meta_data": {
        "InChI": "",
        "InChIKey": null,
        "Canonical SMILES": "",
        "Molecular Formula": "C<sub>4</sub>H<sub>10</sub>O<sub>2</sub>",
        "Molecular Mass": "",
        "Boiling Point": "118 °C",
        "Density": "0.9169 g/cm³ (liquid) @ Temp: 25.000 °C"
    }
}