{
    "cas_no": "68817-71-0",
    "key_name": "<em>N</em><sup>1</sup>-(4-Chlorophenyl)-1,2-benzenediamine",
    "cn_name": null,
    "alternate_name": "1,2-Benzenediamine, <em>N</em><sup>1</sup>-(4-chlorophenyl)-;1,2-Benzenediamine, <em>N</em>-(4-chlorophenyl)-;<em>N</em><sup>1</sup>-(4-Chlorophenyl)-1,2-benzenediamine;<em>N</em>-(<em>p</em>-Chlorophenyl)-<em>o</em>-phenylenediamine;<em>N</em>-(4-Chlorophenyl)-1,2-phenylenediamine;<em>N</em>-(4-Chlorophenyl)benzene-1,2-diamine;1-<em>N</em>-(4-Chlorophenyl)benzene-1,2-diamine;1,2-Benzenediamine N1-(4-chlorophenyl)-;2-<em>N</em>-(4-Chlorophenyl)benzene-1,2-diamine;<em>N</em>′-(4-Chlorophenyl)benzene-1,2-diamine",
    "duplicated_cas_no": "",
    "SMILES": "N(C1=C(N)C=CC=C1)C2=CC=C(Cl)C=C2",
    "meta_data": {
        "InChI": "InChI=1S/C12H11ClN2/c13-9-5-7-10(8-6-9)15-12-4-2-1-3-11(12)14/h1-8,15H,14H2",
        "InChIKey": null,
        "Canonical SMILES": "ClC1=CC=C(C=C1)NC=2C=CC=CC2N",
        "Molecular Formula": "C<sub>12</sub>H<sub>11</sub>ClN<sub>2</sub>",
        "Molecular Mass": "218.68",
        "Melting Point": "120-121 °C"
    }
}