{
    "cas_no": "407-38-5",
    "key_name": "Acetic acid, 2,2,2-trifluoro-, 2,2,2-trifluoroethyl ester",
    "cn_name": "三氟乙酸2,2,2-三氟乙酯;",
    "alternate_name": "Acetic acid, 2,2,2-trifluoro-, 2,2,2-trifluoroethyl ester;Acetic acid, trifluoro-, 2,2,2-trifluoroethyl ester;Ethanol, 2,2,2-trifluoro-, trifluoroacetate;2,2,2-Trifluoroethyl trifluoroacetate;Trifluoroethyl trifluoroacetate;2,2,2-Trifluoroethyl 2,2,2-trifluoroacetate;Trifluoroacetic acid 2,2,2-trifluoroethyl ester",
    "duplicated_cas_no": "",
    "SMILES": "O(C(C(F)(F)F)=O)CC(F)(F)F",
    "meta_data": {
        "InChI": "InChI=1S/C4H2F6O2/c5-3(6,7)1-12-2(11)4(8,9)10/h1H2",
        "InChIKey": null,
        "Canonical SMILES": "O=C(OCC(F)(F)F)C(F)(F)F",
        "Molecular Formula": "C<sub>4</sub>H<sub>2</sub>F<sub>6</sub>O<sub>2</sub>",
        "Molecular Mass": "196.05",
        "Boiling Point": "55 °C",
        "Melting Point": "-65.5 °C",
        "Density": "1.4725 g/cm³ @ Temp: 18 °C"
    }
}