{
    "cas_no": "30964-13-7",
    "key_name": "Cynarin",
    "cn_name": "洋蓟素;1,3-二咖啡酰奎宁酸;",
    "alternate_name": "Cyclohexanecarboxylic acid, 1,3-bis[[3-(3,4-dihydroxyphenyl)-1-oxo-2-propen-1-yl]oxy]-4,5-dihydroxy-, (1<em>R</em>,3<em>R</em>,4<em>S</em>,5<em>R</em>)-;Cinnamic acid, 3,4-dihydroxy-, 1-carboxy-4,5-dihydroxy-1,3-cyclohexylene ester;Cyclohexanecarboxylic acid, 1,3-bis[[3-(3,4-dihydroxyphenyl)-1-oxo-2-propenyl]oxy]-4,5-dihydroxy-, [1<em>R</em>-(1α,3α,4α,5β)]-;Cynarine;Cyclohexanecarboxylic acid, 1,3-bis[[3-(3,4-dihydroxyphenyl)-1-oxo-2-propenyl]oxy]-4,5-dihydroxy-, (1<em>R</em>,3<em>R</em>,4<em>S</em>,5<em>R</em>)-;(1<em>R</em>,3<em>R</em>,4<em>S</em>,5<em>R</em>)-1,3-Bis[[3-(3,4-dihydroxyphenyl)-1-oxo-2-propen-1-yl]oxy]-4,5-dihydroxycyclohexanecarboxylic acid;1,5-Dicaffeoylquinic acid;Cinarin;Cynarin;1,3-Dicaffeoylquinic acid;Cinarine",
    "duplicated_cas_no": "",
    "SMILES": "O(C(C=CC1=CC(O)=C(O)C=C1)=O)[C@@]2(C(O)=O)C[C@@H](OC(C=CC3=CC(O)=C(O)C=C3)=O)[C@@H](O)[C@H](O)C2",
    "meta_data": {
        "InChI": "InChI=1S/C25H24O12/c26-15-5-1-13(9-17(15)28)3-7-21(31)36-20-12-25(24(34)35,11-19(30)23(20)33)37-22(32)8-4-14-2-6-16(27)18(29)10-14/h1-10,19-20,23,26-30,33H,11-12H2,(H,34,35)/t19-,20-,23+,25-/m1/s1",
        "InChIKey": null,
        "Canonical SMILES": "O=C(OC1CC(OC(=O)C=CC2=CC=C(O)C(O)=C2)(C(=O)O)CC(O)C1O)C=CC3=CC=C(O)C(O)=C3",
        "Molecular Formula": "C<sub>25</sub>H<sub>24</sub>O<sub>12</sub>",
        "Molecular Mass": "516.45",
        "Melting Point": "225-227 °C"
    }
}