{
    "cas_no": "4206-58-0",
    "key_name": "Sinapaldehyde",
    "cn_name": "反-3,5-二甲氧基-4-羟基肉桂;",
    "alternate_name": "2-Propenal, 3-(4-hydroxy-3,5-dimethoxyphenyl)-, (2<em>E</em>)-;Cinnamaldehyde, 4-hydroxy-3,5-dimethoxy-;2-Propenal, 3-(4-hydroxy-3,5-dimethoxyphenyl)-, (<em>E</em>)-;(2<em>E</em>)-3-(4-Hydroxy-3,5-dimethoxyphenyl)-2-propenal;Sinapaldehyde;Sinapic aldehyde;Sinapyl aldehyde;<em>trans</em>-Sinapaldehyde;(<em>E</em>)-3,5-Dimethoxy-4-hydroxyphenylpropenaldehyde;(<em>E</em>)-3-(4-Hydroxy-3,5-dimethoxyphenyl)acrylaldehyde",
    "duplicated_cas_no": "20649-43-8",
    "SMILES": "C(=C/C=O)\\C1=CC(OC)=C(O)C(OC)=C1",
    "meta_data": {
        "InChI": "InChI=1S/C11H12O4/c1-14-9-6-8(4-3-5-12)7-10(15-2)11(9)13/h3-7,13H,1-2H3/b4-3+",
        "InChIKey": null,
        "Canonical SMILES": "O=CC=CC=1C=C(OC)C(O)=C(OC)C1",
        "Molecular Formula": "C<sub>11</sub>H<sub>12</sub>O<sub>4</sub>",
        "Molecular Mass": "208.21",
        "Melting Point": "109 °C"
    }
}