{
    "cas_no": "932-53-6",
    "key_name": "6-Azathymine",
    "cn_name": "6-氮杂胸腺嘧啶;6-氮胸嘧啶;",
    "alternate_name": "1,2,4-Triazine-3,5(2<em>H</em>,4<em>H</em>)-dione, 6-methyl-;<em>as</em>-Triazine-3,5(2<em>H</em>,4<em>H</em>)-dione, 6-methyl-;6-Methyl-1,2,4-triazine-3,5(2<em>H</em>,4<em>H</em>)-dione;6-Azathymine;6-Methyl-<em>as</em>-triazine-3,5-(2<em>H</em>,4<em>H</em>)-dione;5-Methyl-6-azauracil;3,5-Dihydroxy-6-methyl-1,2,4-triazine;NSC 3426;NSC 38620",
    "duplicated_cas_no": "16075-91-5",
    "SMILES": "O=C1C(C)=NNC(=O)N1",
    "meta_data": {
        "InChI": "InChI=1S/C4H5N3O2/c1-2-3(8)5-4(9)7-6-2/h1H3,(H2,5,7,8,9)",
        "InChIKey": null,
        "Canonical SMILES": "O=C1NN=C(C(=O)N1)C",
        "Molecular Formula": "C<sub>4</sub>H<sub>5</sub>N<sub>3</sub>O<sub>2</sub>",
        "Molecular Mass": "127.10",
        "Melting Point": "211 °C"
    }
}