{
    "cas_no": "696-63-9",
    "key_name": "4-Methoxybenzenethiol",
    "cn_name": "对甲氧基苯硫酚;4-甲氧基苯硫酚;4-甲氧基硫代苯酚;",
    "alternate_name": "Benzenethiol, 4-methoxy-;Benzenethiol, <em>p</em>-methoxy-;4-Methoxybenzenethiol;<em>p</em>-Methoxythiophenol;<em>p</em>-Methoxybenzenethiol;4-Methoxythiophenol;4-Mercaptoanisole;<em>p</em>-Methoxyphenyl mercaptan;<em>p</em>-Mercaptoanisole;<em>p</em>-Methoxyphenylthiol;4-Methoxyphenylthiol;NSC 100727;4-Methoxyphenyl mercaptan;4-Methoxybenzene-1-thiol",
    "duplicated_cas_no": "",
    "SMILES": "O(C)C1=CC=C(S)C=C1",
    "meta_data": {
        "InChI": "InChI=1S/C7H8OS/c1-8-6-2-4-7(9)5-3-6/h2-5,9H,1H3",
        "InChIKey": null,
        "Canonical SMILES": "SC1=CC=C(OC)C=C1",
        "Molecular Formula": "C<sub>7</sub>H<sub>8</sub>OS",
        "Molecular Mass": "140.20",
        "Boiling Point": "228 °C",
        "Melting Point": "291.7-295.8 °C (decomp)",
        "Density": "1.1313 g/cm³ @ Temp: 25 °C"
    }
}