{
    "cas_no": "822-36-6",
    "key_name": "4-Methylimidazole",
    "cn_name": "4-甲基咪唑;",
    "alternate_name": "1<em>H</em>-Imidazole, 5-methyl-;Imidazole, 4-methyl-;1<em>H</em>-Imidazole, 4-methyl-;Imidazole, 4(<em>or</em> 5)-methyl-;5-Methyl-1<em>H</em>-imidazole;4-Methylimidazole;4(<em>or</em> 5)-Methylimidazole;4(5)-Methylimidazole;5-Methylimidazole;4-Methyl-1<em>H</em>-imidazole;NSC 40744;1<em>H</em>-4-Methylimidazole",
    "duplicated_cas_no": "872-33-3;163498-05-3;196413-10-2;88054-16-4;928113-28-4",
    "SMILES": "CC1=CN=CN1",
    "meta_data": {
        "InChI": "InChI=1S/C4H6N2/c1-4-2-5-3-6-4/h2-3H,1H3,(H,5,6)",
        "InChIKey": null,
        "Canonical SMILES": "N1=CNC(=C1)C",
        "Molecular Formula": "C<sub>4</sub>H<sub>6</sub>N<sub>2</sub>",
        "Molecular Mass": "82.10",
        "Boiling Point": "263 °C",
        "Melting Point": "56 °C",
        "Density": "0.9380 g/cm³ @ Temp: 153.0 °C"
    }
}