{
    "cas_no": "700-38-9",
    "key_name": "5-Methyl-2-nitrophenol",
    "cn_name": "6-硝基间甲酚;3-甲基-6-硝基苯酚;",
    "alternate_name": "Phenol, 5-methyl-2-nitro-;<em>m</em>-Cresol, 6-nitro-;5-Methyl-2-nitrophenol;2-Nitro-5-methylphenol;3-Methyl-6-nitrophenol;6-Nitro-<em>m</em>-cresol;3-Hydroxy-4-nitrotoluene;6-Nitro-3-methylphenol;NSC 3142;2-Hydroxy-4-methyl-1-nitrobenzene",
    "duplicated_cas_no": "",
    "SMILES": "N(=O)(=O)C1=C(O)C=C(C)C=C1",
    "meta_data": {
        "InChI": "InChI=1S/C7H7NO3/c1-5-2-3-6(8(10)11)7(9)4-5/h2-4,9H,1H3",
        "InChIKey": null,
        "Canonical SMILES": "O=N(=O)C1=CC=C(C=C1O)C",
        "Molecular Formula": "C<sub>7</sub>H<sub>7</sub>NO<sub>3</sub>",
        "Molecular Mass": "153.14",
        "Melting Point": "53 °C"
    }
}