{
    "cas_no": "13192-04-6",
    "key_name": "Dimethyl 2-oxoglutarate",
    "cn_name": "alpha-酮戊二酸二甲酯;",
    "alternate_name": "Pentanedioic acid, 2-oxo-, 1,5-dimethyl ester;Glutaric acid, 2-oxo-, dimethyl ester;Pentanedioic acid, 2-oxo-, dimethyl ester;Dimethyl 2-oxoglutarate;Dimethyl α-ketoglutarate;Dimethyl α-oxoglutarate;2-Oxoglutaric acid dimethyl ester;Dimethyl 2-oxopentanedioate;α-Ketoglutaric acid dimethyl ester;1,5-Dimethyl 2-oxopentanedioate",
    "duplicated_cas_no": "",
    "SMILES": "C(CCC(OC)=O)(C(OC)=O)=O",
    "meta_data": {
        "InChI": "InChI=1S/C7H10O5/c1-11-6(9)4-3-5(8)7(10)12-2/h3-4H2,1-2H3",
        "InChIKey": null,
        "Canonical SMILES": "O=C(OC)C(=O)CCC(=O)OC",
        "Molecular Formula": "C<sub>7</sub>H<sub>10</sub>O<sub>5</sub>",
        "Molecular Mass": "174.15",
        "Boiling Point": "90-95 °C @ Press: 0.4 Torr"
    }
}