{
    "cas_no": "939-80-0",
    "key_name": "4-Chloro-3-nitrobenzonitrile",
    "cn_name": "4-氯-3-硝基苯腈;4-氯-3-硝基苯甲腈;",
    "alternate_name": "Benzonitrile, 4-chloro-3-nitro-;4-Chloro-3-nitrobenzonitrile;4-Chloro-3-nitrobenzenenitrile;2-Chloro-5-cyanonitrobenzene;4-Cyano-2-nitro-1-chlorobenzene;3-Nitro-4-chlorobenzonitrile",
    "duplicated_cas_no": "",
    "SMILES": "N(=O)(=O)C1=CC(C#N)=CC=C1Cl",
    "meta_data": {
        "InChI": "InChI=1S/C7H3ClN2O2/c8-6-2-1-5(4-9)3-7(6)10(11)12/h1-3H",
        "InChIKey": null,
        "Canonical SMILES": "N#CC1=CC=C(Cl)C(=C1)N(=O)=O",
        "Molecular Formula": "C<sub>7</sub>H<sub>3</sub>ClN<sub>2</sub>O<sub>2</sub>",
        "Molecular Mass": "182.56",
        "Melting Point": "110 °C"
    }
}