{
    "cas_no": "549-21-3",
    "key_name": "Oxyberberine",
    "cn_name": null,
    "alternate_name": "8<em>H</em>-Benzo[<em>g</em>]-1,3-benzodioxolo[5,6-<em>a</em>]quinolizin-8-one, 5,6-dihydro-9,10-dimethoxy-;Berbin-8-one, 13,13a-didehydro-9,10-dimethoxy-2,3-(methylenedioxy)-;Oxyberberine;5,6-Dihydro-9,10-dimethoxy-8<em>H</em>-benzo[<em>g</em>]-1,3-benzodioxolo[5,6-<em>a</em>]quinolizin-8-one;Berlambine;8-Oxyberberine;8-Oxoberberine;JKL 1073A;NSC 93138;Berberin-8-one",
    "duplicated_cas_no": "",
    "SMILES": "O=C1N2C(C=3C(=CC4=C(C3)OCO4)CC2)=CC=5C1=C(OC)C(OC)=CC5",
    "meta_data": {
        "InChI": "InChI=1S/C20H17NO5/c1-23-15-4-3-12-7-14-13-9-17-16(25-10-26-17)8-11(13)5-6-21(14)20(22)18(12)19(15)24-2/h3-4,7-9H,5-6,10H2,1-2H3",
        "InChIKey": null,
        "Canonical SMILES": "O=C1C=2C(OC)=C(OC)C=CC2C=C3C4=CC=5OCOC5C=C4CCN13",
        "Molecular Formula": "C<sub>20</sub>H<sub>17</sub>NO<sub>5</sub>",
        "Molecular Mass": "351.35",
        "Melting Point": "200-200.5 °C"
    }
}