{
    "cas_no": "6425-39-4",
    "key_name": "Dimorpholinodiethyl ether",
    "cn_name": "2,2-二吗啉基二乙基醚;",
    "alternate_name": "Morpholine, 4,4′-(oxydi-2,1-ethanediyl)bis-;Morpholine, 4,4′-(oxydiethylene)di-;4,4′-(Oxydi-2,1-ethanediyl)bis[morpholine];Bis(morpholinoethyl) ether;2,2′-Dimorpholinodiethyl ether;β,β′-Dimorpholinodiethyl ether;4,4′-(Oxydiethylene)bis[morpholine];4,4′-(Oxydiethylene)dimorpholine;Dimorpholinodiethyl ether;Texacat DMDEE;Jeffcat DMDEE;Di(2-morpholinoethyl) ether;PC CAT DMDEE;Bis[2-(4-morpholino)ethyl] ether;Dabco DMDEE;NSC 28749;U-CAT 660M;Bis(2-morpholinoethyl) ether;DMDEE;4,4′-(Oxydi-2,1-ethanediyl)bismorpholine;Lupragen N 106;N 106;JD-DMDEE;2,2′-Dimorpholinyldiethyl ether;B 802012;Maycat DMDEE",
    "duplicated_cas_no": "442548-14-3",
    "SMILES": "C(COCCN1CCOCC1)N2CCOCC2",
    "meta_data": {
        "InChI": "InChI=1S/C12H24N2O3/c1-7-15-8-2-13(1)5-11-17-12-6-14-3-9-16-10-4-14/h1-12H2",
        "InChIKey": null,
        "Canonical SMILES": "O(CCN1CCOCC1)CCN2CCOCC2",
        "Molecular Formula": "C<sub>12</sub>H<sub>24</sub>N<sub>2</sub>O<sub>3</sub>",
        "Molecular Mass": "244.33",
        "Boiling Point": "176-182 °C @ Press: 8 Torr",
        "Density": "1.0682 g/cm³ @ Temp: 20 °C"
    }
}