{
    "cas_no": "121239-75-6",
    "key_name": "<em>p</em>-(Octyloxyphenyl)phenyliodonium hexafluoroantimonate",
    "cn_name": null,
    "alternate_name": "Iodonium, [4-(octyloxy)phenyl]phenyl-, (<em>OC</em>-6-11)-hexafluoroantimonate(1-) (1:1);Iodonium, [4-(octyloxy)phenyl]phenyl-, (<em>OC</em>-6-11)-hexafluoroantimonate(1-);Antimonate(1-), hexafluoro-, (<em>OC</em>-6-11)-, [4-(octyloxy)phenyl]phenyliodonium;[4-(Octyloxy)phenyl]phenyliodonium hexafluoroantimonate;[4-(Octyloxy)phenyl]phenyliodonium hexafluroroantimonate;OPPI;(4-<em>n</em>-Octyloxyphenyl)phenyliodonium hexafluoroantimonate;Uvacure 1600;Phenyl-<em>p</em>-octyloxyphenyliodonium hexafluoroantimonate;UV 9392C;OMAN 071;<em>p</em>-(Octyloxyphenyl)phenyliodonium hexafluoroantimonate;H-Nu 254;4-Octyloxydiphenyliodonium hexafluoroantimonate;OPPI-FP 5386;IOC 8 SbF6;HRcure 9392",
    "duplicated_cas_no": "122159-21-1;2215064-17-6",
    "SMILES": "[I+](C1=CC=C(OCCCCCCCC)C=C1)C2=CC=CC=C2.[Sb+5]([F-])([F-])([F-])([F-])([F-])[F-]",
    "meta_data": {
        "InChI": "InChI=1S/C20H26IO.6FH.Sb/c1-2-3-4-5-6-10-17-22-20-15-13-19(14-16-20)21-18-11-8-7-9-12-18;;;;;;;/h7-9,11-16H,2-6,10,17H2,1H3;6*1H;/q+1;;;;;;;+5/p-6",
        "InChIKey": null,
        "Canonical SMILES": "[F-][Sb+5]([F-])([F-])([F-])([F-])[F-].O(C1=CC=C([I+]C=2C=CC=CC2)C=C1)CCCCCCCC",
        "Molecular Formula": "C<sub>20</sub>H<sub>26</sub>IO.F<sub>6</sub>Sb",
        "Molecular Mass": "",
        "Melting Point": "57-58 °C"
    }
}