{
    "cas_no": "4472-45-1",
    "key_name": "4-Chloro-2,6-dimethylpyrimidine",
    "cn_name": null,
    "alternate_name": "Pyrimidine, 4-chloro-2,6-dimethyl-;4-Chloro-2,6-dimethylpyrimidine;6-Chloro-2,4-dimethylpyrimidine;2,6-Dimethyl-4-chloropyrimidine",
    "duplicated_cas_no": "",
    "SMILES": "CC=1C=C(Cl)N=C(C)N1",
    "meta_data": {
        "InChI": "InChI=1S/C6H7ClN2/c1-4-3-6(7)9-5(2)8-4/h3H,1-2H3",
        "InChIKey": null,
        "Canonical SMILES": "ClC=1N=C(N=C(C1)C)C",
        "Molecular Formula": "C<sub>6</sub>H<sub>7</sub>ClN<sub>2</sub>",
        "Molecular Mass": "142.59",
        "Boiling Point": "180 °C @ Press: 760 Torr",
        "Melting Point": "39-40 °C"
    }
}