{
    "cas_no": "30273-11-1",
    "key_name": "4-(1-Methylpropyl)benzenamine",
    "cn_name": "4-(1-甲丙基)苯胺;4-仲丁基苯胺;对仲丁基苯胺;",
    "alternate_name": "Benzenamine, 4-(1-methylpropyl)-;Aniline, <em>p</em>-<em>sec</em>-butyl-;4-(1-Methylpropyl)benzenamine;<em>p</em>-<em>sec</em>-Butylaniline;4-<em>sec</em>-Butylaniline;4-(1-Methylpropyl)aniline;(<em>RS</em>)-4-<em>sec</em>-Butylaniline;4-Amino-<em>sec</em>-butylbenzene;4-<em>sec</em>-Butylbenzenamine;4-<em>sec</em>-Butylphenylamine;4-(Butan-2-yl)aniline",
    "duplicated_cas_no": "",
    "SMILES": "C(CC)(C)C1=CC=C(N)C=C1",
    "meta_data": {
        "InChI": "InChI=1S/C10H15N/c1-3-8(2)9-4-6-10(11)7-5-9/h4-8H,3,11H2,1-2H3",
        "InChIKey": null,
        "Canonical SMILES": "NC1=CC=C(C=C1)C(C)CC",
        "Molecular Formula": "C<sub>10</sub>H<sub>15</sub>N",
        "Molecular Mass": "149.23",
        "Boiling Point": "238 °C",
        "Density": "0.9770 g/cm³ @ Temp: 20 °C"
    }
}