{
    "cas_no": "934-05-4",
    "key_name": "Methyl 4-bromo-1<em>H</em>-pyrrole-2-carboxylate",
    "cn_name": "4-溴-1H-吡咯-2-羧酸甲酯;",
    "alternate_name": "1<em>H</em>-Pyrrole-2-carboxylic acid, 4-bromo-, methyl ester;Pyrrole-2-carboxylic acid, 4-bromo-, methyl ester;Methyl 4-bromo-1<em>H</em>-pyrrole-2-carboxylate;Methyl 4-bromopyrrole-2-carboxylate;4-Bromo-1<em>H</em>-pyrrole-2-carboxylic acid methyl ester",
    "duplicated_cas_no": "",
    "SMILES": "C(OC)(=O)C1=CC(Br)=CN1",
    "meta_data": {
        "InChI": "InChI=1S/C6H6BrNO2/c1-10-6(9)5-2-4(7)3-8-5/h2-3,8H,1H3",
        "InChIKey": null,
        "Canonical SMILES": "O=C(OC)C1=CC(Br)=CN1",
        "Molecular Formula": "C<sub>6</sub>H<sub>6</sub>BrNO<sub>2</sub>",
        "Molecular Mass": "204.02",
        "Melting Point": "101 °C"
    }
}