{
    "cas_no": "16681-59-7",
    "key_name": "2-Bromo-1-methyl-1<em>H</em>-imidazole",
    "cn_name": "2-溴-1-甲基-1H-咪唑;1-甲基-2-溴-1H-咪唑;",
    "alternate_name": "1<em>H</em>-Imidazole, 2-bromo-1-methyl-;Imidazole, 2-bromo-1-methyl-;2-Bromo-1-methyl-1<em>H</em>-imidazole;2-Bromo-1-methylimidazole;2-Bromo-<em>N</em>-methylimidazole",
    "duplicated_cas_no": "151223-71-1",
    "SMILES": "BrC=1N(C)C=CN1",
    "meta_data": {
        "InChI": "InChI=1S/C4H5BrN2/c1-7-3-2-6-4(7)5/h2-3H,1H3",
        "InChIKey": null,
        "Canonical SMILES": "BrC1=NC=CN1C",
        "Molecular Formula": "C<sub>4</sub>H<sub>5</sub>BrN<sub>2</sub>",
        "Molecular Mass": "161.00",
        "Boiling Point": "115 °C @ Press: 20 Torr"
    }
}