{
    "cas_no": "121-73-3",
    "key_name": "1-Chloro-3-nitrobenzene",
    "cn_name": "3-硝基氯苯;间氯硝基苯;",
    "alternate_name": "Benzene, 1-chloro-3-nitro-;1-Chloro-3-nitrobenzene;3-Nitrochlorobenzene;3-Chloronitrobenzene;3-Chloro-1-nitrobenzene;<em>m</em>-Nitrochlorobenzene;<em>m</em>-Chloronitrobenzene;NSC 5502;3-Nitrophenyl chloride;3-Nitro-1-chlorobenzene;1-Nitro-3-chlorobenzene",
    "duplicated_cas_no": "",
    "SMILES": "N(=O)(=O)C1=CC(Cl)=CC=C1",
    "meta_data": {
        "InChI": "InChI=1S/C6H4ClNO2/c7-5-2-1-3-6(4-5)8(9)10/h1-4H",
        "InChIKey": null,
        "Canonical SMILES": "O=N(=O)C=1C=CC=C(Cl)C1",
        "Molecular Formula": "C<sub>6</sub>H<sub>4</sub>ClNO<sub>2</sub>",
        "Molecular Mass": "157.55",
        "Boiling Point": "236 °C @ Press: 760 Torr",
        "Melting Point": "46 °C",
        "Density": "1.534 g/cm³ @ Temp: 20 °C"
    }
}