{
    "cas_no": "17057-07-7",
    "key_name": "3-(2,5-Dihydro-2,5-dioxo-1<em>H</em>-pyrrol-1-yl)benzoic acid",
    "cn_name": null,
    "alternate_name": "Benzoic acid, 3-(2,5-dihydro-2,5-dioxo-1<em>H</em>-pyrrol-1-yl)-;Benzoic acid, <em>m</em>-maleimido-;3-(2,5-Dihydro-2,5-dioxo-1<em>H</em>-pyrrol-1-yl)benzoic acid;3-Maleimidobenzoic acid;<em>m</em>-Maleimidobenzoic acid;(3-Carboxyphenyl)maleimide;<em>N</em>-(3-Carboxyphenyl)maleimide;NSC 201626",
    "duplicated_cas_no": "",
    "SMILES": "O=C1N(C(=O)C=C1)C2=CC(C(O)=O)=CC=C2",
    "meta_data": {
        "InChI": "InChI=1S/C11H7NO4/c13-9-4-5-10(14)12(9)8-3-1-2-7(6-8)11(15)16/h1-6H,(H,15,16)",
        "InChIKey": null,
        "Canonical SMILES": "O=C(O)C1=CC=CC(=C1)N2C(=O)C=CC2=O",
        "Molecular Formula": "C<sub>11</sub>H<sub>7</sub>NO<sub>4</sub>",
        "Molecular Mass": "217.18",
        "Melting Point": "228-229 °C"
    }
}