{
    "cas_no": "4630-07-3",
    "key_name": "Valencene",
    "cn_name": "巴伦西亚橘烯;",
    "alternate_name": "Naphthalene, 1,2,3,5,6,7,8,8a-octahydro-1,8a-dimethyl-7-(1-methylethenyl)-, (1<em>R</em>,7<em>R</em>,8a<em>S</em>)-;4β<span class=\"text-smallcaps\">H</span>,5α-Eremophila-1(10),11-diene;Valencene;Naphthalene, 1,2,3,5,6,7,8,8a-octahydro-1,8a-dimethyl-7-(1-methylethenyl)-, [1<em>R</em>-(1α,7β,8aα)]-;(1<em>R</em>,7<em>R</em>,8a<em>S</em>)-1,2,3,5,6,7,8,8a-Octahydro-1,8a-dimethyl-7-(1-methylethenyl)naphthalene;Valencen;(+)-Valencene;NSC 148969;4β<em>H</em>,5α-Eremophila-1(10),11-diene",
    "duplicated_cas_no": "20479-02-1",
    "SMILES": "C[C@]12C(CC[C@@H](C(C)=C)C1)=CCC[C@H]2C",
    "meta_data": {
        "InChI": "InChI=1S/C15H24/c1-11(2)13-8-9-14-7-5-6-12(3)15(14,4)10-13/h7,12-13H,1,5-6,8-10H2,2-4H3/t12-,13-,15+/m1/s1",
        "InChIKey": null,
        "Canonical SMILES": "C=C(C)C1CCC2=CCCC(C)C2(C)C1",
        "Molecular Formula": "C<sub>15</sub>H<sub>24</sub>",
        "Molecular Mass": "204.35",
        "Boiling Point": "123 °C @ Press: 11 Torr"
    }
}