{
    "cas_no": "60456-23-7",
    "key_name": "(-)-Glycidol",
    "cn_name": null,
    "alternate_name": "2-Oxiranemethanol, (2<em>S</em>)-;Oxiranemethanol, (<em>S</em>)-;Oxiranemethanol, (2<em>S</em>)-;(2<em>S</em>)-2-Oxiranemethanol;(-)-<span class=\"text-smallcaps\">D</span>-Glycidol;(<em>S</em>)-Glycidol;(-)-Glycidol;(-)-2,3-Epoxy-1-propanol;(<em>S</em>)-(-)-Oxiranemethanol;(<em>S</em>)-(-)-Glycidol;<em>S</em>-Glycidyl alcohol;(<em>S</em>)-Oxiran-2-ylmethanol;(2S)-2-Oxiranylmethanol;(<em>S</em>)-2-Oxiranemethanol;2-Oxiranemethanol (2S)-;((2<em>S</em>)-2-Oxiranyl)methanol",
    "duplicated_cas_no": "",
    "SMILES": "C(O)[C@H]1CO1",
    "meta_data": {
        "InChI": "InChI=1S/C3H6O2/c4-1-3-2-5-3/h3-4H,1-2H2/t3-/m0/s1",
        "InChIKey": null,
        "Canonical SMILES": "OCC1OC1",
        "Molecular Formula": "C<sub>3</sub>H<sub>6</sub>O<sub>2</sub>",
        "Molecular Mass": "74.08",
        "Melting Point": "72-73 °C"
    }
}