{
    "cas_no": "491-35-0",
    "key_name": "4-Methylquinoline",
    "cn_name": "4-甲基喹啉;",
    "alternate_name": "Quinoline, 4-methyl-;Lepidine;4-Methylquinoline;Cincholepidine;4-Lepidine;Lepidin;γ-Methylquinoline;NSC 3412",
    "duplicated_cas_no": "",
    "SMILES": "CC=1C2=C(N=CC1)C=CC=C2",
    "meta_data": {
        "InChI": "InChI=1S/C10H9N/c1-8-6-7-11-10-5-3-2-4-9(8)10/h2-7H,1H3",
        "InChIKey": null,
        "Canonical SMILES": "N=1C=CC(=C2C=CC=CC12)C",
        "Molecular Formula": "C<sub>10</sub>H<sub>9</sub>N",
        "Molecular Mass": "143.19",
        "Boiling Point": "261-263 °C",
        "Melting Point": "9.5 °C",
        "Density": "1.0826 g/cm³ @ Temp: 20 °C"
    }
}