{
    "cas_no": "68373-14-8",
    "key_name": "Sulbactam",
    "cn_name": null,
    "alternate_name": "4-Thia-1-azabicyclo[3.2.0]heptane-2-carboxylic acid, 3,3-dimethyl-7-oxo-, 4,4-dioxide, (2<em>S</em>,5<em>R</em>)-;4-Thia-1-azabicyclo[3.2.0]heptane-2-carboxylic acid, 3,3-dimethyl-7-oxo-, 4,4-dioxide, (2<em>S</em>-<em>cis</em>)-;CP 45899;Penicillanic acid sulfone;Penicillanic acid 1,1-dioxide;Sulbactam;Penicillanic acid dioxide;Penicillanic acid <em>S</em>,<em>S</em>-dioxide;Betamaze;MeSH ID: D013407",
    "duplicated_cas_no": "",
    "SMILES": "C(O)(=O)[C@@H]1N2[C@](S(=O)(=O)C1(C)C)(CC2=O)[H]",
    "meta_data": {
        "InChI": "InChI=1S/C8H11NO5S/c1-8(2)6(7(11)12)9-4(10)3-5(9)15(8,13)14/h5-6H,3H2,1-2H3,(H,11,12)/t5-,6+/m1/s1",
        "InChIKey": null,
        "Canonical SMILES": "O=C(O)C1N2C(=O)CC2S(=O)(=O)C1(C)C",
        "Molecular Formula": "C<sub>8</sub>H<sub>11</sub>NO<sub>5</sub>S",
        "Molecular Mass": "233.24",
        "Melting Point": "148-151 °C"
    }
}