{
    "cas_no": "101-92-8",
    "key_name": "<em>N</em>-(4-Chlorophenyl)-3-oxobutanamide",
    "cn_name": "乙酰基乙酰对氯苯胺;AAPCA;",
    "alternate_name": "Butanamide, <em>N</em>-(4-chlorophenyl)-3-oxo-;Acetoacetanilide, 4′-chloro-;<em>N</em>-(4-Chlorophenyl)-3-oxobutanamide;Acetoacet-<em>p</em>-chloroanilide;<em>p</em>-Chloroacetoacetanilide;4′-Chloroacetoacetanilide;<em>N</em>-(4-Chlorophenyl)acetoacetamide;NSC 3544;<em>N</em>-(4-Chlorophenyl)acetylacetamide",
    "duplicated_cas_no": "1258964-44-1",
    "SMILES": "N(C(CC(C)=O)=O)C1=CC=C(Cl)C=C1",
    "meta_data": {
        "InChI": "InChI=1S/C10H10ClNO2/c1-7(13)6-10(14)12-9-4-2-8(11)3-5-9/h2-5H,6H2,1H3,(H,12,14)",
        "InChIKey": null,
        "Canonical SMILES": "O=C(NC1=CC=C(Cl)C=C1)CC(=O)C",
        "Molecular Formula": "C<sub>10</sub>H<sub>10</sub>ClNO<sub>2</sub>",
        "Molecular Mass": "211.64",
        "Melting Point": "132-133 °C"
    }
}