{
    "cas_no": "18979-72-1",
    "key_name": "3-Butoxyphenol",
    "cn_name": "3-丁氧基苯酚;4-正丁氧基苯酚;4-n-Butoxyphenol;",
    "alternate_name": "Phenol, 3-butoxy-;Phenol, <em>m</em>-butoxy-;3-Butoxyphenol;<em>m</em>-Butoxyphenol;Resorcinol monobutyl ether;3-<em>n</em>-Butoxyphenol;NSC 35992;3-Butyloxyphenol",
    "duplicated_cas_no": "",
    "SMILES": "O(CCCC)C1=CC(O)=CC=C1",
    "meta_data": {
        "InChI": "InChI=1S/C10H14O2/c1-2-3-7-12-10-6-4-5-9(11)8-10/h4-6,8,11H,2-3,7H2,1H3",
        "InChIKey": null,
        "Canonical SMILES": "OC1=CC=CC(OCCCC)=C1",
        "Molecular Formula": "C<sub>10</sub>H<sub>14</sub>O<sub>2</sub>",
        "Molecular Mass": "166.22",
        "Boiling Point": "121 °C @ Press: 4 Torr"
    }
}