{
    "cas_no": "573-97-7",
    "key_name": "1-Bromo-2-naphthol",
    "cn_name": "1-溴-2-萘酚;",
    "alternate_name": "2-Naphthalenol, 1-bromo-;2-Naphthol, 1-bromo-;1-Bromo-2-naphthalenol;α-Bromo-β-naphthol;1-Bromo-β-naphthol;1-Bromo-2-naphthol;Disthemin;Wormin;1-Bromo-2-hydroxynaphthalene;1-Bromonaphthalen-2-ol;NSC 60275",
    "duplicated_cas_no": "",
    "SMILES": "BrC=1C2=C(C=CC1O)C=CC=C2",
    "meta_data": {
        "InChI": "InChI=1S/C10H7BrO/c11-10-8-4-2-1-3-7(8)5-6-9(10)12/h1-6,12H",
        "InChIKey": null,
        "Canonical SMILES": "BrC1=C(O)C=CC=2C=CC=CC21",
        "Molecular Formula": "C<sub>10</sub>H<sub>7</sub>BrO",
        "Molecular Mass": "223.07",
        "Boiling Point": "130 °C",
        "Melting Point": "84 °C"
    }
}