{
    "cas_no": "10361-03-2",
    "key_name": "Sodium phosphate (NaPO<sub>3</sub>)",
    "cn_name": null,
    "alternate_name": "Metaphosphoric acid (HPO<sub>3</sub>), sodium salt (1:1);Metaphosphoric acid (HPO<sub>3</sub>), sodium salt;Sodium metaphosphate (Na(PO<sub>3</sub>));Graham's salt;Metafos;Sodium metaphosphate;Sodium phosphate (NaPO<sub>3</sub>);Kurrol's salt;Maddrell's salt;Sporix;Sodium Kurrol's salt",
    "duplicated_cas_no": "1313-95-7;35270-09-8;857801-56-0;1451008-17-5",
    "SMILES": "P(=O)(=O)O.[Na]",
    "meta_data": {
        "InChI": "InChI=1S/Na.HO3P/c;1-4(2)3/h;(H,1,2,3)",
        "InChIKey": null,
        "Canonical SMILES": "[Na].O=P(=O)O",
        "Molecular Formula": "HO<sub>3</sub>P.Na",
        "Molecular Mass": "",
        "Melting Point": "610 °C",
        "Density": "2.5 g/cm³"
    }
}