{
    "cas_no": "1444-65-1",
    "key_name": "2-Phenylcyclohexanone",
    "cn_name": "2-苯基环已酮;2-苯基环己酮;",
    "alternate_name": "Cyclohexanone, 2-phenyl-;2-Phenylcyclohexanone;α-Phenylcyclohexanone;2-Phenyl-1-cyclohexanone;(±)-2-Phenylcyclohexanone;NSC 22252",
    "duplicated_cas_no": "55700-93-1",
    "SMILES": "O=C1C(C2=CC=CC=C2)CCCC1",
    "meta_data": {
        "InChI": "InChI=1S/C12H14O/c13-12-9-5-4-8-11(12)10-6-2-1-3-7-10/h1-3,6-7,11H,4-5,8-9H2",
        "InChIKey": null,
        "Canonical SMILES": "O=C1CCCCC1C=2C=CC=CC2",
        "Molecular Formula": "C<sub>12</sub>H<sub>14</sub>O",
        "Molecular Mass": "174.24",
        "Boiling Point": "155-160 °C",
        "Melting Point": "63 °C"
    }
}