{
    "cas_no": "23294-41-9",
    "key_name": "Bis[(<em>R</em>)-1-phenylethyl]amine",
    "cn_name": "(R,R)-双-(1-苯基乙基)胺;",
    "alternate_name": "Benzenemethanamine, α-methyl-<em>N</em>-[(1<em>R</em>)-1-phenylethyl]-, (α<em>R</em>)-;Dibenzylamine, α,α′-dimethyl-, (+)-;Benzenemethanamine, α-methyl-<em>N</em>-(1-phenylethyl)-, [<em>R</em>-(<em>R</em>*,<em>R</em>*)]-;(α<em>R</em>)-α-Methyl-<em>N</em>-[(1<em>R</em>)-1-phenylethyl]benzenemethanamine;(<em>R</em>,<em>R</em>)-Bis(1-phenylethyl)amine;(+)-Bis[(<em>R</em>)-1-phenylethyl]amine;Bis[(<em>R</em>)-α-methylbenzyl]amine;(<em>R</em>,<em>R</em>)-Bis(α-methylbenzyl)amine;(α<em>R</em>)-α-methyl-<em>N</em>-[(1<em>R</em>)-1-phenylethyl]benzenemethanamine;Bis((1<em>R</em>)-1-phenylethyl)amine;(<em>R</em>,<em>R</em>)-Whitesell amine;Bis[(<em>R</em>)-1-phenylethyl]amine;(+)-Bis[(R)-1-phenylethyl]amine;Bis((R)-1-phenylethyl)amine",
    "duplicated_cas_no": "169172-50-3",
    "SMILES": "[C@@H](N[C@H](C)C1=CC=CC=C1)(C)C2=CC=CC=C2",
    "meta_data": {
        "InChI": "InChI=1S/C16H19N/c1-13(15-9-5-3-6-10-15)17-14(2)16-11-7-4-8-12-16/h3-14,17H,1-2H3/t13-,14-/m1/s1",
        "InChIKey": null,
        "Canonical SMILES": "C=1C=CC(=CC1)C(NC(C=2C=CC=CC2)C)C",
        "Molecular Formula": "C<sub>16</sub>H<sub>19</sub>N",
        "Molecular Mass": "225.33",
        "Boiling Point": "86-96 °C @ Press: 0.05 Torr",
        "Melting Point": "265-268 °C"
    }
}