{
    "cas_no": "83509-88-0",
    "key_name": "(3<em>S</em>)-3-[[(Phenylmethoxy)carbonyl]amino]butanoic acid",
    "cn_name": null,
    "alternate_name": "Butanoic acid, 3-[[(phenylmethoxy)carbonyl]amino]-, (3<em>S</em>)-;Butanoic acid, 3-[[(phenylmethoxy)carbonyl]amino]-, (<em>S</em>)-;(3<em>S</em>)-3-[[(Phenylmethoxy)carbonyl]amino]butanoic acid;(<em>S</em>)-3-(((Benzyloxy)carbonyl)amino)butanoicacid;(<em>S</em>)-3-(((Benzyloxy)carbonyl)amino)butanoic acid;(<em>s</em>)-3-(Cbz-amino)butanoic acid",
    "duplicated_cas_no": "",
    "SMILES": "C(OC(N[C@H](CC(O)=O)C)=O)C1=CC=CC=C1",
    "meta_data": {
        "InChI": "InChI=1S/C12H15NO4/c1-9(7-11(14)15)13-12(16)17-8-10-5-3-2-4-6-10/h2-6,9H,7-8H2,1H3,(H,13,16)(H,14,15)/t9-/m0/s1",
        "InChIKey": null,
        "Canonical SMILES": "O=C(OCC=1C=CC=CC1)NC(C)CC(=O)O",
        "Molecular Formula": "C<sub>12</sub>H<sub>15</sub>NO<sub>4</sub>",
        "Molecular Mass": "237.25",
        "Melting Point": "104-106 °C"
    }
}