{
    "cas_no": "460-39-9",
    "key_name": "3,3,3-Trifluoro-1-propanamine",
    "cn_name": null,
    "alternate_name": "1-Propanamine, 3,3,3-trifluoro-;Propylamine, 3,3,3-trifluoro-;3,3,3-Trifluoro-1-propanamine;3,3,3-Trifluoropropylamine;3,3,3-Trifluoropropane-1-amine",
    "duplicated_cas_no": "",
    "SMILES": "C(C(F)(F)F)CN",
    "meta_data": {
        "InChI": "InChI=1S/C3H6F3N/c4-3(5,6)1-2-7/h1-2,7H2",
        "InChIKey": null,
        "Canonical SMILES": "FC(F)(F)CCN",
        "Molecular Formula": "C<sub>3</sub>H<sub>6</sub>F<sub>3</sub>N",
        "Molecular Mass": "113.08",
        "Boiling Point": "67 °C"
    }
}