{
    "cas_no": "622-50-4",
    "key_name": "<em>N</em>-(4-Iodophenyl)acetamide",
    "cn_name": "N-(4-碘苯基)乙酰胺;",
    "alternate_name": "Acetamide, <em>N</em>-(4-iodophenyl)-;Acetanilide, 4′-iodo-;<em>N</em>-(4-Iodophenyl)acetamide;4-Iodoacetanilide;4′-Iodoacetanilide;<em>p</em>-Iodoacetanilide;4-Acetamidophenyl iodide;<em>p</em>-Acetamidoiodobenzene;4-Acetamidoiodobenzene;NSC 2161;1-Acetamido-4-iodobenzene;<em>N</em>-Acetyl-4-iodoaniline;1-Acetoamido-4-iodobenzene",
    "duplicated_cas_no": "",
    "SMILES": "N(C(C)=O)C1=CC=C(I)C=C1",
    "meta_data": {
        "InChI": "InChI=1S/C8H8INO/c1-6(11)10-8-4-2-7(9)3-5-8/h2-5H,1H3,(H,10,11)",
        "InChIKey": null,
        "Canonical SMILES": "O=C(NC1=CC=C(I)C=C1)C",
        "Molecular Formula": "C<sub>8</sub>H<sub>8</sub>INO",
        "Molecular Mass": "261.06",
        "Melting Point": "184 °C"
    }
}