{
    "cas_no": "62435-37-4",
    "key_name": "Methyl 4-(octyloxy)benzoate",
    "cn_name": "4-正辛氧苯甲酸甲酯;",
    "alternate_name": "Benzoic acid, 4-(octyloxy)-, methyl ester;Methyl 4-(octyloxy)benzoate;Methyl <em>p</em>-octyloxybenzoate;Methyl 4-octyloxybenzoate;Methyl 4-<em>n</em>-octyloxybenzoate;4-Octyloxybenzoic acid methyl ester",
    "duplicated_cas_no": "",
    "SMILES": "C(OC)(=O)C1=CC=C(OCCCCCCCC)C=C1",
    "meta_data": {
        "InChI": "InChI=1S/C16H24O3/c1-3-4-5-6-7-8-13-19-15-11-9-14(10-12-15)16(17)18-2/h9-12H,3-8,13H2,1-2H3",
        "InChIKey": null,
        "Canonical SMILES": "O=C(OC)C1=CC=C(OCCCCCCCC)C=C1",
        "Molecular Formula": "C<sub>16</sub>H<sub>24</sub>O<sub>3</sub>",
        "Molecular Mass": "264.36",
        "Melting Point": "29 °C"
    }
}