{
    "cas_no": "35461-99-5",
    "key_name": "3-(2-Furanyl)benzoic acid",
    "cn_name": null,
    "alternate_name": "Benzoic acid, 3-(2-furanyl)-;3-(2-Furanyl)benzoic acid;<em>m</em>-2-Furylbenzoic acid;3-(2-Furyl)benzoic acid",
    "duplicated_cas_no": "",
    "SMILES": "C(O)(=O)C=1C=C(C=CC1)C2=CC=CO2",
    "meta_data": {
        "InChI": "InChI=1S/C11H8O3/c12-11(13)9-4-1-3-8(7-9)10-5-2-6-14-10/h1-7H,(H,12,13)",
        "InChIKey": null,
        "Canonical SMILES": "O=C(O)C1=CC=CC(=C1)C=2OC=CC2",
        "Molecular Formula": "C<sub>11</sub>H<sub>8</sub>O<sub>3</sub>",
        "Molecular Mass": "188.18",
        "Melting Point": "138 °C"
    }
}