{
    "cas_no": "77029-83-5",
    "key_name": "Hypocrellin A",
    "cn_name": null,
    "alternate_name": "1<em>H</em>-Cyclohepta[<em>ghi</em>]perylene-5,12-dione, 1-acetyl-2,3-dihydro-2,6,11-trihydroxy-4,8,9,13-tetramethoxy-2-methyl-, stereoisomer;stereoisomer of 1-acetyl-2,3-dihydro-2,6,11-trihydroxy-4,8,9,13-tetramethoxy-2-methyl-1<em>H</em>-cyclohepta[<em>ghi</em>]perylene-5,12-dione;Hypocrellin A;Hypocrellin;(1<em>R</em>,2<em>S</em>,<em>P</em>)-Hypocrellin A;[<em>P</em>(<em>S</em>),14<em>S</em>,15<em>R</em>]-Hypocrellin A",
    "duplicated_cas_no": "127180-29-4;150132-91-5",
    "SMILES": "O(C)C1=C2C=3C4=C5C(=C6C3C(C1=O)=C(O)C=C6OC)C(OC)=CC(O)=C5C(=O)C(OC)=C4CC(C)(O)C2C(C)=O",
    "meta_data": {
        "InChI": "InChI=1S/C30H26O10/c1-10(31)25-24-22-16-11(9-30(25,2)36)28(39-5)26(34)17-12(32)7-14(37-3)19(21(16)17)20-15(38-4)8-13(33)18(23(20)22)27(35)29(24)40-6/h7-8,25,32-33,36H,9H2,1-6H3",
        "InChIKey": null,
        "Canonical SMILES": "O=C1C(OC)=C2C=3C=4C1=C(O)C=C(OC)C4C=5C(OC)=CC(O)=C6C(=O)C(OC)=C(C3C65)C(C(=O)C)C(O)(C)C2",
        "Molecular Formula": "C<sub>30</sub>H<sub>26</sub>O<sub>10</sub>",
        "Molecular Mass": "546.52",
        "Melting Point": "209-210 °C"
    }
}