{
    "cas_no": "2034-65-3",
    "key_name": "3,4′,7-Trihydroxyflavone",
    "cn_name": "5-脱氧莰非醇;5-脱氧莰非醇;",
    "alternate_name": "4<em>H</em>-1-Benzopyran-4-one, 3,7-dihydroxy-2-(4-hydroxyphenyl)-;Flavone, 3,4′,7-trihydroxy-;3,7-Dihydroxy-2-(4-hydroxyphenyl)-4<em>H</em>-1-benzopyran-4-one;Resokaempferol;4′,7-Dihydroxyflavonol;3,4′,7-Trihydroxyflavone;3,7,4′-Trihydroxyflavone;5-Deoxykaempferol;7,4′-Dihydroxyflavonol;5-Dehydroxykaempferol",
    "duplicated_cas_no": "104732-08-3",
    "SMILES": "OC1=C(OC=2C(C1=O)=CC=C(O)C2)C3=CC=C(O)C=C3",
    "meta_data": {
        "InChI": "InChI=1S/C15H10O5/c16-9-3-1-8(2-4-9)15-14(19)13(18)11-6-5-10(17)7-12(11)20-15/h1-7,16-17,19H",
        "InChIKey": null,
        "Canonical SMILES": "O=C1C(O)=C(OC2=CC(O)=CC=C12)C=3C=CC(O)=CC3",
        "Molecular Formula": "C<sub>15</sub>H<sub>10</sub>O<sub>5</sub>",
        "Molecular Mass": "270.24",
        "Melting Point": "280 °C (decomp)"
    }
}