{
    "cas_no": "6818-99-1",
    "key_name": "5-Chloro-1<em>H</em>-1,2,4-triazole",
    "cn_name": "3-氯-1,2,4-三氮唑;",
    "alternate_name": "1<em>H</em>-1,2,4-Triazole, 5-chloro-;<em>s</em>-Triazole, 3-chloro-;1<em>H</em>-1,2,4-Triazole, 3-chloro-;5-Chloro-1<em>H</em>-1,2,4-triazole;3-Chloro-1<em>H</em>-1,2,4-triazole;3-Chloro-<em>s</em>-triazole;3-Chloro-1,2,4-triazole;NSC 153381;5-Chloro-1<em>H</em>-[1,2,4]triazol-3-ylamine",
    "duplicated_cas_no": "15182-43-1;64304-34-3",
    "SMILES": "ClC=1NC=NN1",
    "meta_data": {
        "InChI": "InChI=1S/C2H2ClN3/c3-2-4-1-5-6-2/h1H,(H,4,5,6)",
        "InChIKey": null,
        "Canonical SMILES": "ClC1=NN=CN1",
        "Molecular Formula": "C<sub>2</sub>H<sub>2</sub>ClN<sub>3</sub>",
        "Molecular Mass": "103.51",
        "Melting Point": "167-168 °C"
    }
}