{
    "cas_no": "2641-34-1",
    "key_name": "2,3,3,3-Tetrafluoro-2-[1,1,2,3,3,3-hexafluoro-2-(1,1,2,2,3,3,3-heptafluoropropoxy)propoxy]propanoyl fluoride",
    "cn_name": "2,5-双(三氟甲基)-3,6-二氧杂十一氟代壬酰氟;",
    "alternate_name": "Propanoyl fluoride, 2,3,3,3-tetrafluoro-2-[1,1,2,3,3,3-hexafluoro-2-(1,1,2,2,3,3,3-heptafluoropropoxy)propoxy]-;Propionyl fluoride, tetrafluoro-2-[hexafluoro-2-(heptafluoropropoxy)propoxy]-;Propanoyl fluoride, 2,3,3,3-tetrafluoro-2-[1,1,2,3,3,3-hexafluoro-2-(heptafluoropropoxy)propoxy]-;Propionyl fluoride, 2,3,3,3-tetrafluoro-2-[1,1,2,3,3,3-hexafluoro-2-(heptafluoropropoxy)propoxy]-;2,3,3,3-Tetrafluoro-2-[1,1,2,3,3,3-hexafluoro-2-(1,1,2,2,3,3,3-heptafluoropropoxy)propoxy]propanoyl fluoride;Hexafluoropropene oxide trimer;2,3,3,3-Tetrafluoro-2-[1,1,2,3,3,3-hexafluoro-2-(perfluoropropoxy)propoxy]propanoyl fluoride;Perfluoro-2,5-dimethyl-3,6-dioxanonanoyl fluoride;Perfluoro-2,5-dimethyl-3,6-dioxanonanoic acid fluoride;Perfluoro-2,5-dimethyl-3,6-dioxa-nonanoic acid fluoride;Cheminox PO 3AF",
    "duplicated_cas_no": "514807-04-6",
    "SMILES": "C(C(OC(C(F)(F)F)(C(F)=O)F)(F)F)(OC(C(C(F)(F)F)(F)F)(F)F)(C(F)(F)F)F",
    "meta_data": {
        "InChI": "InChI=1S/C9F18O3/c10-1(28)2(11,5(15,16)17)29-9(26,27)4(14,7(21,22)23)30-8(24,25)3(12,13)6(18,19)20",
        "InChIKey": null,
        "Canonical SMILES": "O=C(F)C(F)(OC(F)(F)C(F)(OC(F)(F)C(F)(F)C(F)(F)F)C(F)(F)F)C(F)(F)F",
        "Molecular Formula": "C<sub>9</sub>F<sub>18</sub>O<sub>3</sub>",
        "Molecular Mass": "498.07",
        "Boiling Point": "114-116 °C @ Press: 760 Torr"
    }
}