{
    "cas_no": "525-76-8",
    "key_name": "2-Methyl-4<em>H</em>-3,1-benzoxazin-4-one",
    "cn_name": "?乙醯胺苯甲酸?酯;?乙醯胺苯甲酸?酯;",
    "alternate_name": "4<em>H</em>-3,1-Benzoxazin-4-one, 2-methyl-;2-Methyl-4<em>H</em>-3,1-benzoxazin-4-one;2-Methyl-3,1-benzoxazin-4-one;2-Methyl-3,1-benzoxaza-4-one;Acetanthranil;Acetylanthranyl;2-Methyl-4-oxo-4<em>H</em>-3,1-benzoxazine;Acetylanthranil;2-Methyl-3,1-benzoxazine-4-one;2-Methyl-4-oxo-3,1-benzoxazine;NSC 10119;NSC 521353;2-Methylbenzo[1,3]oxazin-4-one;2-Methyl-4<em>H</em>-benzo[<em>d</em>][1,3]oxazin-4-one",
    "duplicated_cas_no": "54637-60-4;1610054-15-3;1703770-17-5",
    "SMILES": "O=C1C=2C(N=C(C)O1)=CC=CC2",
    "meta_data": {
        "InChI": "InChI=1S/C9H7NO2/c1-6-10-8-5-3-2-4-7(8)9(11)12-6/h2-5H,1H3",
        "InChIKey": null,
        "Canonical SMILES": "O=C1OC(=NC=2C=CC=CC12)C",
        "Molecular Formula": "C<sub>9</sub>H<sub>7</sub>NO<sub>2</sub>",
        "Molecular Mass": "161.16",
        "Boiling Point": "144-145 °C @ Press: 12 Torr",
        "Melting Point": "77-80 °C"
    }
}