{
    "cas_no": "55314-57-3",
    "key_name": "Ethyl 2-pentynoate",
    "cn_name": "2-戊炔酸乙酯;",
    "alternate_name": "2-Pentynoic acid, ethyl ester;Ethyl 2-pentynoate;NSC 190964;Ethyl 3-ethyl-2-propynoate",
    "duplicated_cas_no": "",
    "SMILES": "C(C#CCC)(OCC)=O",
    "meta_data": {
        "InChI": "InChI=1S/C7H10O2/c1-3-5-6-7(8)9-4-2/h3-4H2,1-2H3",
        "InChIKey": null,
        "Canonical SMILES": "O=C(C#CCC)OCC",
        "Molecular Formula": "C<sub>7</sub>H<sub>10</sub>O<sub>2</sub>",
        "Molecular Mass": "126.15",
        "Boiling Point": "64-66 °C @ Press: 9 Torr",
        "Density": "0.9540 g/cm³ @ Temp: 20 °C"
    }
}