{
    "cas_no": "118184-66-0",
    "key_name": "2-Cyclopropylbenzenemethanamine",
    "cn_name": "2-环丙基苄胺;",
    "alternate_name": "Benzenemethanamine, 2-cyclopropyl-;2-Cyclopropylbenzenemethanamine;(2-Cyclopropylphenyl)methanamine",
    "duplicated_cas_no": "",
    "SMILES": "C(N)C1=C(C=CC=C1)C2CC2",
    "meta_data": {
        "InChI": "InChI=1S/C10H13N/c11-7-9-3-1-2-4-10(9)8-5-6-8/h1-4,8H,5-7,11H2",
        "InChIKey": null,
        "Canonical SMILES": "NCC=1C=CC=CC1C2CC2",
        "Molecular Formula": "C<sub>10</sub>H<sub>13</sub>N",
        "Molecular Mass": "147.22",
        "Boiling Point": "107-108 °C @ Press: 6 Torr"
    }
}