{
    "cas_no": "13086-84-5",
    "key_name": "Di-<em>tert</em>-butyl phosphite",
    "cn_name": "亚磷酸二叔丁酯;二叔丁基亚磷酸盐;",
    "alternate_name": "Phosphonic acid, bis(1,1-dimethylethyl) ester;Phosphonic acid, di-<em>tert</em>-butyl ester;<em>tert</em>-Butyl phosphonate ((C<sub>4</sub>H<sub>9</sub>O)<sub>2</sub>PH(O));Di-<em>tert</em>-butyl phosphonate;Di-<em>tert</em>-butyl phosphite;<em>tert</em>-Butyl phosphite ((C<sub>4</sub>H<sub>9</sub>O)<sub>2</sub>P(OH));2-Methyl-2-[(2-methylpropan-2-yl)oxyphosphonoyloxy]propane",
    "duplicated_cas_no": "36268-95-8",
    "SMILES": "O(C(C)(C)C)P(OC(C)(C)C)=O",
    "meta_data": {
        "InChI": "InChI=1S/C8H19O3P/c1-7(2,3)10-12(9)11-8(4,5)6/h12H,1-6H3",
        "InChIKey": null,
        "Canonical SMILES": "O=P(OC(C)(C)C)OC(C)(C)C",
        "Molecular Formula": "C<sub>8</sub>H<sub>19</sub>O<sub>3</sub>P",
        "Molecular Mass": "194.21",
        "Boiling Point": "62-62.5 °C @ Press: 4 Torr",
        "Melting Point": "&gt;235 °C (decomp)",
        "Density": "0.975 g/cm³ @ Temp: 25 °C"
    }
}