{
    "cas_no": "2457-80-9",
    "key_name": "5′-(Methylthio)adenosine",
    "cn_name": "甲硫腺苷;",
    "alternate_name": "Adenosine, 5′-<em>S</em>-methyl-5′-thio-;5′-<em>S</em>-Methyl-5′-thioadenosine;5′-(Methylthio)-5′-deoxyadenosine;5′-(Methylthio)adenosine;β-<span class=\"text-smallcaps\">D</span>-Ribofuranose, 1-(6-amino-9<em>H</em>-purin-9-yl)-1-deoxy-5-<em>S</em>-methyl-5-thio-;5′-Deoxy-5′-(methylthio)adenosine;5′-<em>S</em>-Methylthioadenosine;Vitamin L<sub>2</sub>;5′-Deoxy(methylthio)adenosine;NSC 335422;5-Deoxy-5-methylthioadenosine",
    "duplicated_cas_no": "37311-40-3",
    "SMILES": "O[C@H]1[C@H](N2C=3C(N=C2)=C(N)N=CN3)O[C@H](CSC)[C@H]1O",
    "meta_data": {
        "InChI": "InChI=1S/C11H15N5O3S/c1-20-2-5-7(17)8(18)11(19-5)16-4-15-6-9(12)13-3-14-10(6)16/h3-5,7-8,11,17-18H,2H2,1H3,(H2,12,13,14)/t5-,7-,8-,11-/m1/s1",
        "InChIKey": null,
        "Canonical SMILES": "OC1C(O)C(OC1N2C=NC=3C(=NC=NC32)N)CSC",
        "Molecular Formula": "C<sub>11</sub>H<sub>15</sub>N<sub>5</sub>O<sub>3</sub>S",
        "Molecular Mass": "297.33",
        "Melting Point": "205 °C"
    }
}