{
    "cas_no": "69-09-0",
    "key_name": "Chlorpromazine hydrochloride",
    "cn_name": "盐酸氯丙嗪;N,N-二甲基-2-氯-10H-吩噻嗪-10-丙胺盐酸盐;",
    "alternate_name": "10<em>H</em>-Phenothiazine-10-propanamine, 2-chloro-<em>N</em>,<em>N</em>-dimethyl-, hydrochloride (1:1);Phenothiazine, 2-chloro-10-[3-(dimethylamino)propyl]-, monohydrochloride;10<em>H</em>-Phenothiazine-10-propanamine, 2-chloro-<em>N</em>,<em>N</em>-dimethyl-, monohydrochloride;2-Chloro-10-(3-dimethylaminopropyl)phenothiazine monohydrochloride;Chloropromazine monohydrochloride;Chlorpromazine monohydrochloride;Chlorpromazinium chloride;CPZ;10-(3-Dimethylaminopropyl)-2-chlorophenothiazine monohydrochloride;Largactil monohydrochloride;Thorazine hydrochloride;Chlorpromazine hydrochloride;Chloropromazine hydrochloride;Plegomazin;Neurazine;Aminazin monohydrochloride;Ampliactil monohydrochloride;Norcozine;Propaphen;Propaphenin hydrochloride;Klorpromex;Hebanil;Klorproman;Aminazin hydrochloride;Hibernal;Megatil;Chlorazin;Taroctyl;Chloractil;Sonazine;Largaktyl;Promacid;Hibanil;Marazine;Tranzene;Promapar;Torazina;Largactil;Contomin;3-(2-Chloro-10<em>H</em>-phenothiazin-10-yl)-<em>N</em>,<em>N</em>-dimethylpropan-1-amine hydrochloride;[3-(2-Chloro-10<em>H</em>-phenothiazin-10-yl)propyl]dimethylamine hydrochloride;2-Chloro-10-(3-dimethylaminopropyl)-phenothiazine hydrochloride",
    "duplicated_cas_no": "",
    "SMILES": "C(CCN(C)C)N1C=2C(SC=3C1=CC=CC3)=CC=C(Cl)C2.Cl",
    "meta_data": {
        "InChI": "InChI=1S/C17H19ClN2S.ClH/c1-19(2)10-5-11-20-14-6-3-4-7-16(14)21-17-9-8-13(18)12-15(17)20;/h3-4,6-9,12H,5,10-11H2,1-2H3;1H",
        "InChIKey": null,
        "Canonical SMILES": "Cl.ClC1=CC=C2SC=3C=CC=CC3N(C2=C1)CCCN(C)C",
        "Molecular Formula": "C<sub>17</sub>H<sub>19</sub>ClN<sub>2</sub>S.ClH",
        "Molecular Mass": "",
        "Melting Point": "180 °C"
    }
}