{
    "cas_no": "35168-64-0",
    "key_name": "1,4-Bis(bromomethyl)-2,3,5,6-tetramethylbenzene",
    "cn_name": "3,6-双(溴甲基)杜烯;",
    "alternate_name": "Benzene, 1,4-bis(bromomethyl)-2,3,5,6-tetramethyl-;1,4-Bis(bromomethyl)-2,3,5,6-tetramethylbenzene;<em>p</em>-Bis(bromomethyl)durene;Bis(bromomethyl)durene;1,4-Bis(bromomethyl)durene;3,6-Bis(broMoMethyl)durene",
    "duplicated_cas_no": "",
    "SMILES": "C(Br)C1=C(C)C(C)=C(CBr)C(C)=C1C",
    "meta_data": {
        "InChI": "InChI=1S/C12H16Br2/c1-7-8(2)12(6-14)10(4)9(3)11(7)5-13/h5-6H2,1-4H3",
        "InChIKey": null,
        "Canonical SMILES": "BrCC1=C(C(=C(C(=C1C)C)CBr)C)C",
        "Molecular Formula": "C<sub>12</sub>H<sub>16</sub>Br<sub>2</sub>",
        "Molecular Mass": "320.06",
        "Melting Point": "214.5-215 °C"
    }
}