{
    "cas_no": "3260-88-6",
    "key_name": "1-Chloro-3-methoxy-2-methylbenzene",
    "cn_name": "3-氯-2-甲基苯甲醚;",
    "alternate_name": "Benzene, 1-chloro-3-methoxy-2-methyl-;Anisole, 3-chloro-2-methyl-;1-Chloro-3-methoxy-2-methylbenzene;3-Chloro-2-methylanisole;2-Chloro-6-methoxytoluene;2-Methyl-3-chloroanisole;6-Chloro-2-methoxytoluene;2-Methoxy-6-chlorotoluene",
    "duplicated_cas_no": "",
    "SMILES": "O(C)C1=C(C)C(Cl)=CC=C1",
    "meta_data": {
        "InChI": "InChI=1S/C8H9ClO/c1-6-7(9)4-3-5-8(6)10-2/h3-5H,1-2H3",
        "InChIKey": null,
        "Canonical SMILES": "ClC1=CC=CC(OC)=C1C",
        "Molecular Formula": "C<sub>8</sub>H<sub>9</sub>ClO",
        "Molecular Mass": "156.61",
        "Boiling Point": "213.5 °C"
    }
}