{
    "cas_no": "18001-97-3",
    "key_name": "3,3′-(1,1,3,3-Tetramethyl-1,3-disiloxanediyl)bis[1-propanol]",
    "cn_name": "1,3-二(3-羟基丙基)-1,1,3,3-四甲基二硅氧烷;",
    "alternate_name": "1-Propanol, 3,3′-(1,1,3,3-tetramethyl-1,3-disiloxanediyl)bis-;5-Oxa-4,6-disilanonane-1,9-diol, 4,4,6,6-tetramethyl-;3,3′-(1,1,3,3-Tetramethyl-1,3-disiloxanediyl)bis[1-propanol];1,3-Bis(γ-hydroxypropyl)-1,1,3,3-tetramethyldisiloxane;1,3-Bis(3-hydroxypropyl)-1,1,3,3-tetramethyldisiloxane;1,3-Bis(3-hydroxypropyl)tetramethyldisiloxane;1,3-Di(3-hydroxypropyl) 1,1,3,3-tetramethyl disiloxane;3,3′-(1,1,3,3-Tetramethyldisiloxane-1,3-diyl)bis(propan-1-ol);3-[[3-Hydroxypropyl(dimethyl)silyl]oxy-dimethylsilyl]propan-1-ol",
    "duplicated_cas_no": "",
    "SMILES": "[Si](O[Si](CCCO)(C)C)(CCCO)(C)C",
    "meta_data": {
        "InChI": "InChI=1S/C10H26O3Si2/c1-14(2,9-5-7-11)13-15(3,4)10-6-8-12/h11-12H,5-10H2,1-4H3",
        "InChIKey": null,
        "Canonical SMILES": "OCCC[Si](O[Si](C)(C)CCCO)(C)C",
        "Molecular Formula": "C<sub>10</sub>H<sub>26</sub>O<sub>3</sub>Si<sub>2</sub>",
        "Molecular Mass": "250.48",
        "Boiling Point": "75 °C @ Press: 20 Torr",
        "Density": "0.953 g/cm³ @ Temp: 25 °C"
    }
}