{
    "cas_no": "681492-22-8",
    "key_name": "Delamanid",
    "cn_name": null,
    "alternate_name": "Imidazo[2,1-<em>b</em>]oxazole, 2,3-dihydro-2-methyl-6-nitro-2-[[4-[4-[4-(trifluoromethoxy)phenoxy]-1-piperidinyl]phenoxy]methyl]-, (2<em>R</em>)-;(2<em>R</em>)-2,3-Dihydro-2-methyl-6-nitro-2-[[4-[4-[4-(trifluoromethoxy)phenoxy]-1-piperidinyl]phenoxy]methyl]imidazo[2,1-<em>b</em>]oxazole;OPC 67683;Delamanid;(2R)-2-Methyl-6-nitro-2-[[4-[4-[4-(trifluoromethoxy)phenoxy]piperidin-1-yl]phenoxy]methyl]-3<em>H</em>-imidazo[2,1-<em>b</em>][1,3]oxazole;Deltyba",
    "duplicated_cas_no": "1299458-95-9;1318734-92-7",
    "SMILES": "C(OC1=CC=C(C=C1)N2CCC(OC3=CC=C(OC(F)(F)F)C=C3)CC2)[C@@]4(C)CN5C(O4)=NC(N(=O)=O)=C5",
    "meta_data": {
        "InChI": "InChI=1S/C25H25F3N4O6/c1-24(15-31-14-22(32(33)34)29-23(31)38-24)16-35-18-4-2-17(3-5-18)30-12-10-20(11-13-30)36-19-6-8-21(9-7-19)37-25(26,27)28/h2-9,14,20H,10-13,15-16H2,1H3/t24-/m1/s1",
        "InChIKey": null,
        "Canonical SMILES": "O=N(=O)C=1N=C2OC(C)(COC3=CC=C(C=C3)N4CCC(OC5=CC=C(OC(F)(F)F)C=C5)CC4)CN2C1",
        "Molecular Formula": "C<sub>25</sub>H<sub>25</sub>F<sub>3</sub>N<sub>4</sub>O<sub>6</sub>",
        "Molecular Mass": "534.48",
        "Melting Point": "195-196 °C"
    }
}