{
    "cas_no": "107504-08-5",
    "key_name": "5-Fluoropyridine-2-carboxylic acid",
    "cn_name": "5-氟-2-羧基吡啶;",
    "alternate_name": "2-Pyridinecarboxylic acid, 5-fluoro-;5-Fluoro-2-pyridinecarboxylic acid;5-Fluoropyridine-2-carboxylic acid;5-Fluoropicolinic acid",
    "duplicated_cas_no": "",
    "SMILES": "C(O)(=O)C1=CC=C(F)C=N1",
    "meta_data": {
        "InChI": "InChI=1S/C6H4FNO2/c7-4-1-2-5(6(9)10)8-3-4/h1-3H,(H,9,10)",
        "InChIKey": null,
        "Canonical SMILES": "O=C(O)C1=NC=C(F)C=C1",
        "Molecular Formula": "C<sub>6</sub>H<sub>4</sub>FNO<sub>2</sub>",
        "Molecular Mass": "141.10",
        "Melting Point": "156-158 °C"
    }
}