{
    "cas_no": "133-91-5",
    "key_name": "3,5-Diiodosalicylic acid",
    "cn_name": "3,5-二碘水杨酸;",
    "alternate_name": "Benzoic acid, 2-hydroxy-3,5-diiodo-;Salicylic acid, 3,5-diiodo-;2-Hydroxy-3,5-diiodobenzoic acid;3,5-Diiodosalicylic acid;2-Hydroxy-3,5-diiodobenzenecarboxylic acid;3,5-Diiodo-2-hydroxybenzoic acid;NSC 6303",
    "duplicated_cas_no": "",
    "SMILES": "C(O)(=O)C1=C(O)C(I)=CC(I)=C1",
    "meta_data": {
        "InChI": "InChI=1S/C7H4I2O3/c8-3-1-4(7(11)12)6(10)5(9)2-3/h1-2,10H,(H,11,12)",
        "InChIKey": null,
        "Canonical SMILES": "O=C(O)C=1C=C(I)C=C(I)C1O",
        "Molecular Formula": "C<sub>7</sub>H<sub>4</sub>I<sub>2</sub>O<sub>3</sub>",
        "Molecular Mass": "389.91",
        "Melting Point": "235.5 °C"
    }
}