{
    "cas_no": "7791-27-7",
    "key_name": "Disulfuryl chloride",
    "cn_name": null,
    "alternate_name": "Disulfuryl chloride;Pyrosulfuryl chloride;Chlorosulfonic anhydride;Disulfur pentoxydichloride;Sulfur pentoxydichloride;Pyrosulfuryl chloride (S<sub>2</sub>O<sub>5</sub>Cl<sub>2</sub>)",
    "duplicated_cas_no": "",
    "SMILES": "O(S(Cl)(=O)=O)S(Cl)(=O)=O",
    "meta_data": {
        "InChI": "InChI=1S/Cl2O5S2/c1-8(3,4)7-9(2,5)6",
        "InChIKey": null,
        "Canonical SMILES": "O=S(=O)(Cl)OS(=O)(=O)Cl",
        "Molecular Formula": "Cl<sub>2</sub>O<sub>5</sub>S<sub>2</sub>",
        "Molecular Mass": "215.03",
        "Boiling Point": "151 °C",
        "Melting Point": "-37 °C",
        "Density": "1.837 g/cm³"
    }
}