{
    "cas_no": "571-58-4",
    "key_name": "1,4-Dimethylnaphthalene",
    "cn_name": "1,4-二甲基萘;",
    "alternate_name": "Naphthalene, 1,4-dimethyl-;1,4-Dimethylnaphthalene;NSC 61779",
    "duplicated_cas_no": "",
    "SMILES": "CC=1C2=C(C(C)=CC1)C=CC=C2",
    "meta_data": {
        "InChI": "InChI=1S/C12H12/c1-9-7-8-10(2)12-6-4-3-5-11(9)12/h3-8H,1-2H3",
        "InChIKey": null,
        "Canonical SMILES": "C=1C=CC=2C(C1)=C(C=CC2C)C",
        "Molecular Formula": "C<sub>12</sub>H<sub>12</sub>",
        "Molecular Mass": "156.22",
        "Boiling Point": "268 °C",
        "Melting Point": "7.6 °C",
        "Density": "1.0160 g/cm³ @ Temp: 20 °C"
    }
}