{
    "cas_no": "117-84-0",
    "key_name": "Di-<em>n</em>-octyl phthalate",
    "cn_name": "邻苯二甲酸二正辛酯;邻苯二甲酸二正辛酯;邻苯二甲酸二正辛酯(DNOP);",
    "alternate_name": "1,2-Benzenedicarboxylic acid, 1,2-dioctyl ester;Phthalic acid, dioctyl ester;1,2-Benzenedicarboxylic acid, dioctyl ester;Di-<em>n</em>-octyl phthalate;Dinopol NOP;<em>n</em>-Octyl phthalate;Vinycizer 85;Octyl phthalate;Phthalic acid dioctyl ester;DNOP;Dioctyl <em>o</em>-phthalate;Dicaprylyl phthalate;NSC 15318;Bis(<em>n</em>-octyl) phthalate;Monocizer W 555;1,2-Di-<em>n</em>-octyl phthalate;Dioctyl phthalate",
    "duplicated_cas_no": "8031-29-6",
    "SMILES": "C(OCCCCCCCC)(=O)C1=C(C(OCCCCCCCC)=O)C=CC=C1",
    "meta_data": {
        "InChI": "InChI=1S/C24H38O4/c1-3-5-7-9-11-15-19-27-23(25)21-17-13-14-18-22(21)24(26)28-20-16-12-10-8-6-4-2/h13-14,17-18H,3-12,15-16,19-20H2,1-2H3",
        "InChIKey": null,
        "Canonical SMILES": "O=C(OCCCCCCCC)C=1C=CC=CC1C(=O)OCCCCCCCC",
        "Molecular Formula": "C<sub>24</sub>H<sub>38</sub>O<sub>4</sub>",
        "Molecular Mass": "390.56",
        "Boiling Point": "220 °C @ Press: 4 Torr",
        "Melting Point": "-25 °C",
        "Density": "0.978 g/cm³ @ Temp: 20 °C"
    }
}