{
    "cas_no": "22199-08-2",
    "key_name": "Silver sulfadiazine",
    "cn_name": "磺胺嘧啶银;N-2-嘧啶基-4-氨基苯磺酰胺银盐;",
    "alternate_name": "Silver, [4-amino-<em>N</em>-(2-pyrimidinyl-κ<em>N</em><sup>1</sup>)benzenesulfonamidato-κ<em>O</em>]-;Sulfanilamide, <em>N</em><sup>1</sup>-2-pyrimidinyl-, monosilver(1+) salt;Silver, (4-amino-<em>N</em>-2-pyrimidinylbenzenesulfonamidato-<em>N</em><sup>N</sup>,<em>O</em><sup>1</sup>)-;Benzenesulfonamide, 4-amino-<em>N</em>-2-pyrimidinyl-, silver complex;[4-Amino-<em>N</em>-(2-pyrimidinyl-κ<em>N</em><sup>1</sup>)benzenesulfonamidato-κ<em>O</em>]silver;Silver sulfadiazine;Silver sulphadiazine;Flamazine;Dermazin;Sulfadiazine silver salt;Silvadene;Sulfadiazine silver;Geben;Flammazine;NSC 625324;Silver 2-sulfanilamidopyrimidine;Silverol;Dermazine;Altreet-Ag;Physiotulle-Ag;Silverdin;Sulfargin;Thermazene;Flumazine;MeSH ID: D012837",
    "duplicated_cas_no": "38834-97-8;57484-89-6;57533-85-4;61906-15-8;216252-08-3",
    "SMILES": "O=S=1(N=C2[N]([Ag+]O1)=CC=C[N-]2)C3=CC=C(N)C=C3",
    "meta_data": {
        "InChI": "InChI=1S/C10H9N4O2S.Ag/c11-8-2-4-9(5-3-8)17(15,16)14-10-12-6-1-7-13-10;/h1-7H,11H2;/q-1;+1",
        "InChIKey": null,
        "Canonical SMILES": "O=S=1(N=C2[N-]C=CC=[N]2[Ag+]O1)C=3C=CC(N)=CC3",
        "Molecular Formula": "C<sub>10</sub>H<sub>9</sub>AgN<sub>4</sub>O<sub>2</sub>S",
        "Molecular Mass": "",
        "Melting Point": "285-287 °C"
    }
}