{
    "cas_no": "14869-41-1",
    "key_name": "2-(2-Chloroethoxy)acetic acid",
    "cn_name": null,
    "alternate_name": "Acetic acid, 2-(2-chloroethoxy)-;Acetic acid, (2-chloroethoxy)-;2-(2-Chloroethoxy)acetic acid;1-Chloro-2-(carboxymethoxy)ethane;2-Chloroethoxyacetic acid;5-Chloro-3-oxapentanoic acid",
    "duplicated_cas_no": "",
    "SMILES": "C(OCCCl)C(O)=O",
    "meta_data": {
        "InChI": "InChI=1S/C4H7ClO3/c5-1-2-8-3-4(6)7/h1-3H2,(H,6,7)",
        "InChIKey": null,
        "Canonical SMILES": "O=C(O)COCCCl",
        "Molecular Formula": "C<sub>4</sub>H<sub>7</sub>ClO<sub>3</sub>",
        "Molecular Mass": "138.55",
        "Boiling Point": "130 °C @ Press: 3.5 Torr",
        "Melting Point": "32.5-33.0 °C",
        "Density": "1.3296 g/cm³ @ Temp: 20 °C"
    }
}