{
    "cas_no": "10377-52-3",
    "key_name": "Trilithium phosphate",
    "cn_name": "磷酸锂;",
    "alternate_name": "Phosphoric acid, lithium salt (1:3);Phosphoric acid, trilithium salt;Lithium phosphate (Li<sub>3</sub>PO<sub>4</sub>);Lithium tribasic phosphate;Trilithium phosphate;Lithiophosphate (Li<sub>3</sub>PO<sub>4</sub>);Trilithium orthophosphate;Lithium phosphate;Trilithium monophosphate;Lithium orthophosphate (Li<sub>3</sub>PO<sub>4</sub>)",
    "duplicated_cas_no": "117384-41-5;708276-88-4;1268612-73-2;1621613-80-6;2362529-28-8;2747170-52-9;2767139-90-0",
    "SMILES": "P(=O)(O)(O)O.[Li]",
    "meta_data": {
        "InChI": "InChI=1S/3Li.H3O4P/c;;;1-5(2,3)4/h;;;(H3,1,2,3,4)",
        "InChIKey": null,
        "Canonical SMILES": "[Li].O=P(O)(O)O",
        "Molecular Formula": "H<sub>3</sub>O<sub>4</sub>P.3Li",
        "Molecular Mass": "",
        "Melting Point": "1206 °C"
    }
}