{
    "cas_no": "3132-99-8",
    "key_name": "3-Bromobenzaldehyde",
    "cn_name": "间溴苯甲醛;3-溴苯甲醛;",
    "alternate_name": "Benzaldehyde, 3-bromo-;Benzaldehyde, <em>m</em>-bromo-;3-Bromobenzaldehyde;<em>m</em>-Bromobenzaldehyde;3-Formylbromobenzene;NSC 66828;3-Formyl-1-bromobenzene;5-Bromobenzaldehyde;<em>m</em>-Formylphenyl bromide;3-Formylphenyl bromide;4-Pyridinecarboxaldehyde, 2-hydrazinyl-",
    "duplicated_cas_no": "2222571-80-2;2377515-68-7",
    "SMILES": "C(=O)C1=CC(Br)=CC=C1",
    "meta_data": {
        "InChI": "InChI=1S/C7H5BrO/c8-7-3-1-2-6(4-7)5-9/h1-5H",
        "InChIKey": null,
        "Canonical SMILES": "O=CC=1C=CC=C(Br)C1",
        "Molecular Formula": "C<sub>7</sub>H<sub>5</sub>BrO",
        "Molecular Mass": "185.02",
        "Boiling Point": "234.5 °C",
        "Density": "1.3007 g/cm³ @ Temp: 30 °C"
    }
}