{
    "cas_no": "20579-43-5",
    "key_name": "3,4,5-Trimethylpyridine",
    "cn_name": null,
    "alternate_name": "Pyridine, 3,4,5-trimethyl-;3,4,5-Trimethylpyridine;3,4,5-Collidine",
    "duplicated_cas_no": "",
    "SMILES": "CC=1C(C)=CN=CC1C",
    "meta_data": {
        "InChI": "InChI=1S/C8H11N/c1-6-4-9-5-7(2)8(6)3/h4-5H,1-3H3",
        "InChIKey": null,
        "Canonical SMILES": "N=1C=C(C(=C(C1)C)C)C",
        "Molecular Formula": "C<sub>8</sub>H<sub>11</sub>N",
        "Molecular Mass": "121.18",
        "Boiling Point": "205-207 °C",
        "Melting Point": "32.6-35.6 °C",
        "Density": "0.9616 g/cm³ @ Temp: 15 °C"
    }
}