{
    "cas_no": "107-54-0",
    "key_name": "3,5-Dimethyl-1-hexyn-3-ol",
    "cn_name": "二甲基己炔醇;3,5-二甲基-1-己炔-3-醇;",
    "alternate_name": "1-Hexyn-3-ol, 3,5-dimethyl-;3,5-Dimethyl-1-hexyn-3-ol;Surfynol 61;3,5-Dimethylhexyn-3-ol;NSC 978;Surfynol S 61;3,5-Dimethyl-1-hexyne-3-ol;Surfinol 61;X 93-1036",
    "duplicated_cas_no": "1583290-12-3;2567947-46-8",
    "SMILES": "C(C(C#C)(C)O)C(C)C",
    "meta_data": {
        "InChI": "InChI=1S/C8H14O/c1-5-8(4,9)6-7(2)3/h1,7,9H,6H2,2-4H3",
        "InChIKey": null,
        "Canonical SMILES": "C#CC(O)(C)CC(C)C",
        "Molecular Formula": "C<sub>8</sub>H<sub>14</sub>O",
        "Molecular Mass": "126.20",
        "Boiling Point": "148 °C @ Press: 760 Torr",
        "Density": "0.859 g/cm³ @ Temp: 12 °C"
    }
}