{
    "cas_no": "14193-38-5",
    "key_name": "(±)-<em>trans</em>-1,2-Dithiane-4,5-diol",
    "cn_name": "反-4,5-二羟基-1,2-二硫烷;",
    "alternate_name": "1,2-Dithiane-4,5-diol, (4<em>R</em>,5<em>R</em>)-<em>rel</em>-;<em>o</em>-Dithiane-4,5-diol, <em>trans</em>-;1,2-Dithiane-4,5-diol, <em>trans</em>-;<em>rel</em>-(4<em>R</em>,5<em>R</em>)-1,2-Dithiane-4,5-diol;<em>trans</em>-1,2-Dithiane-4,5-diol;<em>trans</em>-4,5-Dihydroxy-<em>o</em>-dithiane;<em>trans</em>-4,5-Dihydroxy-1,2-dithiane;NSC 663605;(±)-<em>trans</em>-1,2-Dithiane-4,5-diol",
    "duplicated_cas_no": "17307-14-1;24891-61-0;86023-22-5",
    "SMILES": "O[C@H]1[C@H](O)CSSC1",
    "meta_data": {
        "InChI": "InChI=1/C4H8O2S2/c5-3-1-7-8-2-4(3)6/h3-6H,1-2H2/t3-,4-/s2",
        "InChIKey": null,
        "Canonical SMILES": "OC1CSSCC1O",
        "Molecular Formula": "C<sub>4</sub>H<sub>8</sub>O<sub>2</sub>S<sub>2</sub>",
        "Molecular Mass": "152.24",
        "Melting Point": "129-130 °C"
    }
}