{
    "cas_no": "2491-20-5",
    "key_name": "Alanine methyl ester hydrochloride",
    "cn_name": null,
    "alternate_name": "<span class=\"text-smallcaps\">L</span>-Alanine, methyl ester, hydrochloride (1:1);Alanine, methyl ester, hydrochloride, <span class=\"text-smallcaps\">L</span>-;<span class=\"text-smallcaps\">L</span>-Alanine, methyl ester, hydrochloride;Alanine methyl ester hydrochloride;Methyl <span class=\"text-smallcaps\">L</span>-alaninate hydrochloride;(<em>S</em>)-Alanine methyl ester hydrochloride;Methyl alaninate hydrochloride;<span class=\"text-smallcaps\">L</span>-Alanine methyl ester hydrochloride salt;(<em>S</em>)-2-Aminopropionic acid methyl ester hydrochloride;NSC 29729;Methyl (<em>S</em>)-2-aminopropanoate hydrochloride;(<span class=\"text-smallcaps\">L</span>)-Ala-OMe hydrochloride;<span class=\"text-smallcaps\">L</span>-Alanine methyl ester hydrogen chloride;Methyl (2S)-2-aminopropanoate hydrochloric acid;<span class=\"text-smallcaps\">L</span>-Ala-OMe·HCl",
    "duplicated_cas_no": "",
    "SMILES": "C([C@H](C)N)(OC)=O.Cl",
    "meta_data": {
        "InChI": "InChI=1S/C4H9NO2.ClH/c1-3(5)4(6)7-2;/h3H,5H2,1-2H3;1H/t3-;/m0./s1",
        "InChIKey": null,
        "Canonical SMILES": "Cl.O=C(OC)C(N)C",
        "Molecular Formula": "C<sub>4</sub>H<sub>9</sub>NO<sub>2</sub>.ClH",
        "Molecular Mass": "",
        "Melting Point": "108 °C"
    }
}