{
    "cas_no": "128073-33-6",
    "key_name": "2,2-Difluoro-1-methylcyclopropanecarboxylic acid",
    "cn_name": null,
    "alternate_name": "Cyclopropanecarboxylic acid, 2,2-difluoro-1-methyl-;2,2-Difluoro-1-methylcyclopropanecarboxylic acid;2,2-Difluoro-1-methylcyclopropane-1-carboxylic acid;2,2-Difluoro-1-methyl-1-cyclopropanecarboxylic acid",
    "duplicated_cas_no": "",
    "SMILES": "C(O)(=O)C1(C)C(F)(F)C1",
    "meta_data": {
        "InChI": "InChI=1S/C5H6F2O2/c1-4(3(8)9)2-5(4,6)7/h2H2,1H3,(H,8,9)",
        "InChIKey": null,
        "Canonical SMILES": "O=C(O)C1(C)CC1(F)F",
        "Molecular Formula": "C<sub>5</sub>H<sub>6</sub>F<sub>2</sub>O<sub>2</sub>",
        "Molecular Mass": "136.10",
        "Melting Point": "59-61 °C"
    }
}