{
    "cas_no": "1470-79-7",
    "key_name": "2,4,4′-Trihydroxybenzophenone",
    "cn_name": "2,4,4-三羟基二苯甲酮;",
    "alternate_name": "Methanone, (2,4-dihydroxyphenyl)(4-hydroxyphenyl)-;Benzophenone, 2,4,4′-trihydroxy-;(2,4-Dihydroxyphenyl)(4-hydroxyphenyl)methanone;2,4-Dihydroxyphenyl <em>p</em>-hydroxybenzyl ketone;2,4,4′-Trihydroxybenzophenone;NSC 76052",
    "duplicated_cas_no": "",
    "SMILES": "C(=O)(C1=C(O)C=C(O)C=C1)C2=CC=C(O)C=C2",
    "meta_data": {
        "InChI": "InChI=1S/C13H10O4/c14-9-3-1-8(2-4-9)13(17)11-6-5-10(15)7-12(11)16/h1-7,14-16H",
        "InChIKey": null,
        "Canonical SMILES": "O=C(C1=CC=C(O)C=C1)C2=CC=C(O)C=C2O",
        "Molecular Formula": "C<sub>13</sub>H<sub>10</sub>O<sub>4</sub>",
        "Molecular Mass": "230.22",
        "Melting Point": "203.4-204.0 °C"
    }
}