{
    "cas_no": "78-24-0",
    "key_name": "Tripentaerythritol",
    "cn_name": "三季戊四醇;2,2-双[[3-羟基-2,2-双(羟甲基)丙氧基]-甲基]-1,3-丙二醇;三季戊醇;三聚季戊四醇;三聚季戊醇;",
    "alternate_name": "1,3-Propanediol, 2,2-bis[[3-hydroxy-2,2-bis(hydroxymethyl)propoxy]methyl]-;Tripentaerythritol;2,2-Bis[[3-hydroxy-2,2-bis(hydroxymethyl)propoxy]methyl]-1,3-propanediol;Tris(pentaerythritol);NSC 97579;2-[[3-Hydroxy-2-[[3-hydroxy-2,2-bis(hydroxymethyl)propoxy]methyl]-2-(hydroxymethyl)propoxy]methyl]-2-(hydroxymethyl)propane-1,3-diol",
    "duplicated_cas_no": "104474-78-4;1289373-22-3;1378232-33-7",
    "SMILES": "C(COCC(CO)(CO)CO)(COCC(CO)(CO)CO)(CO)CO",
    "meta_data": {
        "InChI": "InChI=1S/C15H32O10/c16-1-13(2-17,3-18)9-24-11-15(7-22,8-23)12-25-10-14(4-19,5-20)6-21/h16-23H,1-12H2",
        "InChIKey": null,
        "Canonical SMILES": "OCC(CO)(CO)COCC(CO)(CO)COCC(CO)(CO)CO",
        "Molecular Formula": "C<sub>15</sub>H<sub>32</sub>O<sub>10</sub>",
        "Molecular Mass": "372.41",
        "Melting Point": "249 °C"
    }
}