{
    "cas_no": "874-23-7",
    "key_name": "2-Acetylcyclohexanone",
    "cn_name": "2-乙酰基环己酮;",
    "alternate_name": "Cyclohexanone, 2-acetyl-;2-Acetylcyclohexanone;α-Acetylcyclohexanone;2-Acetyl-1-cyclohexanone;NSC 7713",
    "duplicated_cas_no": "125117-37-5",
    "SMILES": "C(C)(=O)C1C(=O)CCCC1",
    "meta_data": {
        "InChI": "InChI=1S/C8H12O2/c1-6(9)7-4-2-3-5-8(7)10/h7H,2-5H2,1H3",
        "InChIKey": null,
        "Canonical SMILES": "O=C(C)C1C(=O)CCCC1",
        "Molecular Formula": "C<sub>8</sub>H<sub>12</sub>O<sub>2</sub>",
        "Molecular Mass": "140.18",
        "Boiling Point": "111-112 °C @ Press: 18 Torr",
        "Melting Point": "112-116 °C",
        "Density": "1.075 g/cm³ @ Temp: 0 °C"
    }
}