{
    "cas_no": "3972-36-9",
    "key_name": "(2<em>S</em>)-2-(Phenylmethyl)butanedioic acid",
    "cn_name": "S-2-苄基琥珀酸;(S)-苄基丁二酸;",
    "alternate_name": "Butanedioic acid, 2-(phenylmethyl)-, (2<em>S</em>)-;Butanedioic acid, (phenylmethyl)-, (<em>S</em>)-;Butanedioic acid, (phenylmethyl)-, (2<em>S</em>)-;(2<em>S</em>)-2-(Phenylmethyl)butanedioic acid;2(<em>S</em>)-Benzyl-3-carboxypropionic acid;(-)-Benzylsuccinic acid;(<em>S</em>)-Benzylsuccinic acid;(<em>S</em>)-2-Benzylsuccinic acid;<span class=\"text-smallcaps\">L</span>-(-)-Benzylsuccinic acid;(2S)-2-Benzylbutanedioic acid",
    "duplicated_cas_no": "",
    "SMILES": "[C@H](CC1=CC=CC=C1)(CC(O)=O)C(O)=O",
    "meta_data": {
        "InChI": "InChI=1S/C11H12O4/c12-10(13)7-9(11(14)15)6-8-4-2-1-3-5-8/h1-5,9H,6-7H2,(H,12,13)(H,14,15)/t9-/m0/s1",
        "InChIKey": null,
        "Canonical SMILES": "O=C(O)CC(C(=O)O)CC=1C=CC=CC1",
        "Molecular Formula": "C<sub>11</sub>H<sub>12</sub>O<sub>4</sub>",
        "Molecular Mass": "208.21",
        "Melting Point": "163-164 °C"
    }
}