{
    "cas_no": "1641-41-4",
    "key_name": "4-Indanol",
    "cn_name": null,
    "alternate_name": "1<em>H</em>-Inden-4-ol, 2,3-dihydro-;4-Indanol;2,3-Dihydro-1<em>H</em>-inden-4-ol;4-Hydroxyhydrindene;4-Hydroxyindan;NSC 64460",
    "duplicated_cas_no": "",
    "SMILES": "OC1=C2C(=CC=C1)CCC2",
    "meta_data": {
        "InChI": "InChI=1S/C9H10O/c10-9-6-2-4-7-3-1-5-8(7)9/h2,4,6,10H,1,3,5H2",
        "InChIKey": null,
        "Canonical SMILES": "OC1=CC=CC2=C1CCC2",
        "Molecular Formula": "C<sub>9</sub>H<sub>10</sub>O",
        "Molecular Mass": "134.18",
        "Boiling Point": "245 °C",
        "Melting Point": "47-51 °C"
    }
}