{
    "cas_no": "523-66-0",
    "key_name": "Evolitrine",
    "cn_name": null,
    "alternate_name": "Furo[2,3-<em>b</em>]quinoline, 4,7-dimethoxy-;Evolitrine;4,7-Dimethoxyfuro[2,3-<em>b</em>]quinoline;Evolitrin;7-Methoxydictamnine",
    "duplicated_cas_no": "",
    "SMILES": "O(C)C=1C=2C(N=C3C1C=CO3)=CC(OC)=CC2",
    "meta_data": {
        "InChI": "InChI=1S/C13H11NO3/c1-15-8-3-4-9-11(7-8)14-13-10(5-6-17-13)12(9)16-2/h3-7H,1-2H3",
        "InChIKey": null,
        "Canonical SMILES": "N1=C2OC=CC2=C(OC)C=3C=CC(OC)=CC13",
        "Molecular Formula": "C<sub>13</sub>H<sub>11</sub>NO<sub>3</sub>",
        "Molecular Mass": "229.23",
        "Melting Point": "114-115 °C"
    }
}