{
    "cas_no": "30148-21-1",
    "key_name": "1<em>H</em>-Imidazole-2-carboxylic acid, 1-methyl-, ethyl ester",
    "cn_name": "1-甲基-1H-咪唑-2-甲酸乙酯;",
    "alternate_name": "1<em>H</em>-Imidazole-2-carboxylic acid, 1-methyl-, ethyl ester;Imidazole-2-carboxylic acid, 1-methyl-, ethyl ester;Ethyl 1-methylimidazole-2-carboxylate;RGW 811;Ethyl 1-methyl-1<em>H</em>-imidazole-2-carboxylate;1-Methyl-1<em>H</em>-imidazole-2-carboxylic acid ethyl ester",
    "duplicated_cas_no": "",
    "SMILES": "C(OCC)(=O)C=1N(C)C=CN1",
    "meta_data": {
        "InChI": "InChI=1S/C7H10N2O2/c1-3-11-7(10)6-8-4-5-9(6)2/h4-5H,3H2,1-2H3",
        "InChIKey": null,
        "Canonical SMILES": "O=C(OCC)C1=NC=CN1C",
        "Molecular Formula": "C<sub>7</sub>H<sub>10</sub>N<sub>2</sub>O<sub>2</sub>",
        "Molecular Mass": "154.17",
        "Boiling Point": "110 °C @ Press: 0.5 Torr",
        "Melting Point": "43-45 °C"
    }
}