{
    "cas_no": "18166-43-3",
    "key_name": "Silicic acid (H<sub>4</sub>SiO<sub>4</sub>), tris(1,1-dimethylethyl) ester",
    "cn_name": "三(叔-丁氧基)硅烷醇;",
    "alternate_name": "Silicic acid (H<sub>4</sub>SiO<sub>4</sub>), tris(1,1-dimethylethyl) ester;Silicic acid (H<sub>4</sub>SiO<sub>4</sub>), tri-<em>tert</em>-butyl ester;Tri-<em>tert</em>-butoxysilanol;Tri-<em>tert</em>-butyl silicate;Tri(<em>tert</em>-butyloxy)silanol;NSC 243646;Tris(<em>tert</em>-butoxy)silanol",
    "duplicated_cas_no": "1526989-02-5",
    "SMILES": "O([Si](OC(C)(C)C)(OC(C)(C)C)O)C(C)(C)C",
    "meta_data": {
        "InChI": "InChI=1S/C12H28O4Si/c1-10(2,3)14-17(13,15-11(4,5)6)16-12(7,8)9/h13H,1-9H3",
        "InChIKey": null,
        "Canonical SMILES": "O[Si](OC(C)(C)C)(OC(C)(C)C)OC(C)(C)C",
        "Molecular Formula": "C<sub>12</sub>H<sub>28</sub>O<sub>4</sub>Si",
        "Molecular Mass": "264.43",
        "Boiling Point": "95 °C @ Press: 20 Torr",
        "Melting Point": "65-66 °C"
    }
}