{
    "cas_no": "122151-32-0",
    "key_name": "(2<em>S</em>)-2-(Phenylmethoxy)-1-(1-pyrrolidinyl)-1-propanone",
    "cn_name": null,
    "alternate_name": "1-Propanone, 2-(phenylmethoxy)-1-(1-pyrrolidinyl)-, (2<em>S</em>)-;Pyrrolidine, 1-[1-oxo-2-(phenylmethoxy)propyl]-, (<em>S</em>)-;Pyrrolidine, 1-[(2<em>S</em>)-1-oxo-2-(phenylmethoxy)propyl]-;(2<em>S</em>)-2-(Phenylmethoxy)-1-(1-pyrrolidinyl)-1-propanone;(<em>S</em>)-<em>N</em>,<em>N</em>-Tetramethylene-2-benzyloxypropionamide;(2S)-2-Phenylmethoxy-1-pyrrolidin-1-ylpropan-1-one;(2S)-2-(Benzyloxy)-1-(pyrrolidin-1-yl)propan-1-one",
    "duplicated_cas_no": "",
    "SMILES": "C([C@@H](OCC1=CC=CC=C1)C)(=O)N2CCCC2",
    "meta_data": {
        "InChI": "InChI=1S/C14H19NO2/c1-12(14(16)15-9-5-6-10-15)17-11-13-7-3-2-4-8-13/h2-4,7-8,12H,5-6,9-11H2,1H3/t12-/m0/s1",
        "InChIKey": null,
        "Canonical SMILES": "O=C(N1CCCC1)C(OCC=2C=CC=CC2)C",
        "Molecular Formula": "C<sub>14</sub>H<sub>19</sub>NO<sub>2</sub>",
        "Molecular Mass": "233.31",
        "Melting Point": "42-42.5 °C"
    }
}