{
    "cas_no": "36376-47-3",
    "key_name": "1<em>H</em>-Imidazole-5-ethanamine, 4-methyl-, hydrochloride (1:2)",
    "cn_name": null,
    "alternate_name": "1<em>H</em>-Imidazole-5-ethanamine, 4-methyl-, hydrochloride (1:2);1<em>H</em>-Imidazole-4-ethanamine, 5-methyl-, dihydrochloride;5-Methylhistamine dihydrochloride;4-Methylhistamine dihydrochloride;2-(5-Methyl-4-imidazolyl)ethylamine dihydrochloride;4-(2-Aminoethyl)-5-methylimidazole dihydrochloride;2-(5-Methyl-1<em>H</em>-imidazol-4-yl)ethan-1-amine dihydrochloride;2-(4-Methyl-1<em>H</em>-imidazol-5-yl)ethan-1-amine dihydrochloride",
    "duplicated_cas_no": "",
    "SMILES": "C(CN)C1=C(C)N=CN1.Cl",
    "meta_data": {
        "InChI": "InChI=1S/C6H11N3.2ClH/c1-5-6(2-3-7)9-4-8-5;;/h4H,2-3,7H2,1H3,(H,8,9);2*1H",
        "InChIKey": null,
        "Canonical SMILES": "Cl.N1=CNC(=C1C)CCN",
        "Molecular Formula": "C<sub>6</sub>H<sub>11</sub>N<sub>3</sub>.2ClH",
        "Molecular Mass": "",
        "Melting Point": "231-233 °C"
    }
}