{
    "cas_no": "594-39-8",
    "key_name": "<em>tert</em>-Amylamine",
    "cn_name": "叔戊基胺;1,1-二甲基丙胺;",
    "alternate_name": "2-Butanamine, 2-methyl-;<em>tert</em>-Pentylamine;2-Methyl-2-butanamine;<em>tert</em>-Amylamine;1,1-Dimethylpropylamine;α,α-Dimethylpropylamine;2-Amino-2-methylbutane",
    "duplicated_cas_no": "",
    "SMILES": "C(CC)(C)(C)N",
    "meta_data": {
        "InChI": "InChI=1S/C5H13N/c1-4-5(2,3)6/h4,6H2,1-3H3",
        "InChIKey": null,
        "Canonical SMILES": "NC(C)(C)CC",
        "Molecular Formula": "C<sub>5</sub>H<sub>13</sub>N",
        "Molecular Mass": "87.16",
        "Boiling Point": "77 °C",
        "Melting Point": "-105 °C"
    }
}