{
    "cas_no": "18436-37-8",
    "key_name": "3-Hexyldihydro-2(3<em>H</em>)-furanone",
    "cn_name": null,
    "alternate_name": "2(3<em>H</em>)-Furanone, 3-hexyldihydro-;Octanoic acid, 2-(2-hydroxyethyl)-, γ-lactone;3-Hexyldihydro-2(3<em>H</em>)-furanone;α-Hexyl-γ-butyrolactone;3-(Hexyl)dihydrofuran-2(3<em>H</em>)-one;3-Hexyl-dihydro-furan-2-one",
    "duplicated_cas_no": "127041-80-9",
    "SMILES": "C(CCCCC)C1C(=O)OCC1",
    "meta_data": {
        "InChI": "InChI=1S/C10H18O2/c1-2-3-4-5-6-9-7-8-12-10(9)11/h9H,2-8H2,1H3",
        "InChIKey": null,
        "Canonical SMILES": "O=C1OCCC1CCCCCC",
        "Molecular Formula": "C<sub>10</sub>H<sub>18</sub>O<sub>2</sub>",
        "Molecular Mass": "170.25",
        "Boiling Point": "87-88 °C @ Press: 1 Torr",
        "Density": "0.9561 g/cm³ @ Temp: 20 °C"
    }
}