{
    "cas_no": "4822-44-0",
    "key_name": "2-Mercapto-<em>N</em>-phenylacetamide",
    "cn_name": null,
    "alternate_name": "Acetamide, 2-mercapto-<em>N</em>-phenyl-;Acetanilide, 2-mercapto-;2-Mercapto-<em>N</em>-phenylacetamide;Thioglycolic acid anilide;2-Mercaptoacetanilide;α-Mercaptoacetanilide;<em>N</em>-Phenyl-2-mercaptoacetamide;Thioglycolanilide;<em>N</em>-Phenylmercaptoacetamide;NSC 2126",
    "duplicated_cas_no": "",
    "SMILES": "N(C(CS)=O)C1=CC=CC=C1",
    "meta_data": {
        "InChI": "InChI=1S/C8H9NOS/c10-8(6-11)9-7-4-2-1-3-5-7/h1-5,11H,6H2,(H,9,10)",
        "InChIKey": null,
        "Canonical SMILES": "O=C(NC=1C=CC=CC1)CS",
        "Molecular Formula": "C<sub>8</sub>H<sub>9</sub>NOS",
        "Molecular Mass": "167.23",
        "Melting Point": "156-160 °C"
    }
}