{
    "cas_no": "91476-82-3",
    "key_name": "Imidazo[1,2-<em>a</em>]pyrazine-2-carboxylic acid, 5,6,7,8-tetrahydro-, ethyl ester",
    "cn_name": null,
    "alternate_name": "Imidazo[1,2-<em>a</em>]pyrazine-2-carboxylic acid, 5,6,7,8-tetrahydro-, ethyl ester;Ethyl 5,6,7,8-tetrahydroimidazo[1,2-<em>a</em>]pyrazine-2-carboxylate;5,6,7,8-Tetrahydroimidazo[1,2-<em>a</em>]pyrazine-2-carboxylic acid ethyl ester;5,6,7,8-Tetrahydroimidazo[1,2-〈<em>a</em>]pyrazine-2-carboxylic acid ethyl ester",
    "duplicated_cas_no": "",
    "SMILES": "C(OCC)(=O)C=1N=C2N(C1)CCNC2",
    "meta_data": {
        "InChI": "InChI=1S/C9H13N3O2/c1-2-14-9(13)7-6-12-4-3-10-5-8(12)11-7/h6,10H,2-5H2,1H3",
        "InChIKey": null,
        "Canonical SMILES": "O=C(OCC)C=1N=C2N(C1)CCNC2",
        "Molecular Formula": "C<sub>9</sub>H<sub>13</sub>N<sub>3</sub>O<sub>2</sub>",
        "Molecular Mass": "195.22",
        "Melting Point": "62-65 °C"
    }
}