{
    "cas_no": "3694-52-8",
    "key_name": "3-Nitro-1,2-phenylenediamine",
    "cn_name": "3-硝基邻苯二胺;3-硝基-1,2-苯二胺;",
    "alternate_name": "1,2-Benzenediamine, 3-nitro-;<em>o</em>-Phenylenediamine, 3-nitro-;3-Nitro-1,2-benzenediamine;3-Nitro-<em>o</em>-phenylenediamine;3-Nitro-1,2-phenylenediamine;2-Amino-6-nitroaniline;1,2-Diamino-3-nitrobenzene;2-Amino-3-nitroaniline;NSC 84243;3-Nitro-1,2-diaminobenzene",
    "duplicated_cas_no": "",
    "SMILES": "N(=O)(=O)C1=C(N)C(N)=CC=C1",
    "meta_data": {
        "InChI": "InChI=1S/C6H7N3O2/c7-4-2-1-3-5(6(4)8)9(10)11/h1-3H,7-8H2",
        "InChIKey": null,
        "Canonical SMILES": "O=N(=O)C=1C=CC=C(N)C1N",
        "Molecular Formula": "C<sub>6</sub>H<sub>7</sub>N<sub>3</sub>O<sub>2</sub>",
        "Molecular Mass": "153.14",
        "Melting Point": "157-159 °C"
    }
}