{
    "cas_no": "2107-70-2",
    "key_name": "3-(3,4-Dimethoxyphenyl)propionic acid",
    "cn_name": "3,4-二甲氧基苯丙酸;3-(3,4-二甲氧基苯基)丙酸;",
    "alternate_name": "Benzenepropanoic acid, 3,4-dimethoxy-;Hydrocinnamic acid, 3,4-dimethoxy-;3,4-Dimethoxybenzenepropanoic acid;3-(3,4-Dimethoxyphenyl)propionic acid;β-(3,4-Dimethoxyphenyl)propionic acid;3,4-Dimethoxyhydrocinnamic acid;3,4-Dimethoxyphenylpropionic acid;3-(3,4-Dimethoxyphenyl)propanoic acid;3,4-Dimethoxybenzenepropionic acid;3,4-Dimethoxydihydrocinnamic acid;NSC 76043",
    "duplicated_cas_no": "",
    "SMILES": "O(C)C1=C(OC)C=CC(CCC(O)=O)=C1",
    "meta_data": {
        "InChI": "InChI=1S/C11H14O4/c1-14-9-5-3-8(4-6-11(12)13)7-10(9)15-2/h3,5,7H,4,6H2,1-2H3,(H,12,13)",
        "InChIKey": null,
        "Canonical SMILES": "O=C(O)CCC1=CC=C(OC)C(OC)=C1",
        "Molecular Formula": "C<sub>11</sub>H<sub>14</sub>O<sub>4</sub>",
        "Molecular Mass": "210.23",
        "Melting Point": "98-99 °C"
    }
}