{
    "cas_no": "498-40-8",
    "key_name": "<span class=\"text-smallcaps\">L</span>-Cysteic acid",
    "cn_name": "磺基丙氨酸;",
    "alternate_name": "<span class=\"text-smallcaps\">L</span>-Alanine, 3-sulfo-;Alanine, 3-sulfo-, <span class=\"text-smallcaps\">L</span>-;3-Sulfo-<span class=\"text-smallcaps\">L</span>-alanine;<span class=\"text-smallcaps\">L</span>-Cysteic acid;Cysteinesulfonic acid;Cysteic acid;Cysteinesulfonate;NSC 254030;(2R)-2-Amino-3-sulfopropanoic acid",
    "duplicated_cas_no": "7754-75-8",
    "SMILES": "[C@H](CS(=O)(=O)O)(C(O)=O)N",
    "meta_data": {
        "InChI": "InChI=1S/C3H7NO5S/c4-2(3(5)6)1-10(7,8)9/h2H,1,4H2,(H,5,6)(H,7,8,9)/t2-/m0/s1",
        "InChIKey": null,
        "Canonical SMILES": "O=C(O)C(N)CS(=O)(=O)O",
        "Molecular Formula": "C<sub>3</sub>H<sub>7</sub>NO<sub>5</sub>S",
        "Molecular Mass": "169.16",
        "Melting Point": "245 °C (decomp)"
    }
}