{
    "cas_no": "581-47-5",
    "key_name": "2,4′-Bipyridine",
    "cn_name": "2,4\"-联吡啶;",
    "alternate_name": "2,4′-Bipyridine;2,4′-Bipyridyl;2,4′-Dipyridine;2,4′-Dipyridyl;4-(2-Pyridyl)pyridine;2-(Pyridin-4-yl)pyridine;2-Pyridin-4-ylpyridine",
    "duplicated_cas_no": "",
    "SMILES": "C=1(C=CN=CC1)C2=CC=CC=N2",
    "meta_data": {
        "InChI": "InChI=1S/C10H8N2/c1-2-6-12-10(3-1)9-4-7-11-8-5-9/h1-8H",
        "InChIKey": null,
        "Canonical SMILES": "N=1C=CC(=CC1)C=2N=CC=CC2",
        "Molecular Formula": "C<sub>10</sub>H<sub>8</sub>N<sub>2</sub>",
        "Molecular Mass": "156.18",
        "Boiling Point": "281 °C",
        "Melting Point": "61.5 °C"
    }
}