{
    "cas_no": "52311-43-0",
    "key_name": "[4,4′-Bipyridin]-3-amine",
    "cn_name": null,
    "alternate_name": "[4,4′-Bipyridin]-3-amine;3-Amino-4-(4-pyridyl)pyridine;3-Amino-4,4′-bipyridine",
    "duplicated_cas_no": "",
    "SMILES": "NC=1C(C=2C=CN=CC2)=CC=NC1",
    "meta_data": {
        "InChI": "InChI=1S/C10H9N3/c11-10-7-13-6-3-9(10)8-1-4-12-5-2-8/h1-7H,11H2",
        "InChIKey": null,
        "Canonical SMILES": "N=1C=CC(=CC1)C=2C=CN=CC2N",
        "Molecular Formula": "C<sub>10</sub>H<sub>9</sub>N<sub>3</sub>",
        "Molecular Mass": "171.20",
        "Melting Point": "166-168 °C"
    }
}