{
    "cas_no": "767-54-4",
    "key_name": "<em>rel</em>-(1<em>R</em>,5<em>S</em>)-3,3,5-Trimethylcyclohexanol",
    "cn_name": "反-三甲基环己醇;三甲基环己醇;",
    "alternate_name": "Cyclohexanol, 3,3,5-trimethyl-, (1<em>R</em>,5<em>S</em>)-<em>rel</em>-;Cyclohexanol, 3,3,5-trimethyl-, <em>trans</em>-;<em>rel</em>-(1<em>R</em>,5<em>S</em>)-3,3,5-Trimethylcyclohexanol;<em>trans</em>-3,5,5-Trimethylcyclohexanol;<em>trans</em>-3,3,5-Trimethylcyclohexanol",
    "duplicated_cas_no": "64840-01-3",
    "SMILES": "CC1(C)C[C@H](C)C[C@@H](O)C1",
    "meta_data": {
        "InChI": "InChI=1/C9H18O/c1-7-4-8(10)6-9(2,3)5-7/h7-8,10H,4-6H2,1-3H3/t7-,8-/s2",
        "InChIKey": null,
        "Canonical SMILES": "OC1CC(C)CC(C)(C)C1",
        "Molecular Formula": "C<sub>9</sub>H<sub>18</sub>O",
        "Molecular Mass": "142.24",
        "Boiling Point": "189.2 °C",
        "Melting Point": "55.8 °C"
    }
}