{
    "cas_no": "5734-64-5",
    "key_name": "4-Chloro-6-methoxy-2-pyrimidinamine",
    "cn_name": "2-氨基-4-氯-6-甲氧基嘧啶;",
    "alternate_name": "2-Pyrimidinamine, 4-chloro-6-methoxy-;Pyrimidine, 2-amino-4-chloro-6-methoxy-;4-Chloro-6-methoxy-2-pyrimidinamine;2-Amino-4-chloro-6-methoxypyrimidine;4-Methoxy-6-chloro-2-aminopyrimidine;NSC 28420;(4-Chloro-6-methoxypyrimidin-2-yl)amine;2-Amino-6-chloro-4-methoxypyrimidine;6-Methoxy-4-chloro-2-aminopyrimidine",
    "duplicated_cas_no": "",
    "SMILES": "O(C)C=1C=C(Cl)N=C(N)N1",
    "meta_data": {
        "InChI": "InChI=1S/C5H6ClN3O/c1-10-4-2-3(6)8-5(7)9-4/h2H,1H3,(H2,7,8,9)",
        "InChIKey": null,
        "Canonical SMILES": "ClC=1N=C(N=C(OC)C1)N",
        "Molecular Formula": "C<sub>5</sub>H<sub>6</sub>ClN<sub>3</sub>O",
        "Molecular Mass": "159.57",
        "Melting Point": "164-166 °C",
        "Density": "1.398 g/cm³"
    }
}