{
    "cas_no": "3319-31-1",
    "key_name": "Trioctyl trimellitate",
    "cn_name": "偏苯三酸三辛酯;偏苯三酸三(2-乙基己酯);",
    "alternate_name": "1,2,4-Benzenetricarboxylic acid, 1,2,4-tris(2-ethylhexyl) ester;1,2,4-Benzenetricarboxylic acid, tris(2-ethylhexyl) ester;Staflex TOTM;Tris(2-ethylhexyl) trimellitate;Morflex 510;Trimex T 08;Tri-2-ethylhexyl trimellitate;Kodaflex TOTM;Monocizer W 710L;Hatcol 200;TOTM;ADK Cizer TOTM;Nuoplaz 6959;Octyl trimellitate;Trioctyl trimellitate;Bisoflex TOT;Adekacizer TOTM;Reomol OTM;Sansocizer TOTM;Plasthall TOTM;TOTM-I;Uniplex 546A;Monocizer W 700;Pelemol TOTM;TOTM-NB;Diplast TM/ST;Tris(octyl) trimellitate;Monocizer W 705;Codan Set 43.4400;W 700;T 08;Trioctyl 1,2,4-benzenetricarboxylate;W 705;Eastman TOTM;TM 150;Uniplex 546;Palatinol TOTM;2-Ethylhexyl trimellitate;ADK Cizer C 8;Adekacizer C 8;TOTM-D;Alcanplast TOTM;T 60 (plasticizer);T 60",
    "duplicated_cas_no": "59941-46-7;75882-00-7;82643-26-3;113816-97-0;131734-05-9;144470-65-5;2093948-34-4;2311886-84-5",
    "SMILES": "C(OCC(CCCC)CC)(=O)C1=C(C(OCC(CCCC)CC)=O)C=CC(C(OCC(CCCC)CC)=O)=C1",
    "meta_data": {
        "InChI": "InChI=1S/C33H54O6/c1-7-13-16-25(10-4)22-37-31(34)28-19-20-29(32(35)38-23-26(11-5)17-14-8-2)30(21-28)33(36)39-24-27(12-6)18-15-9-3/h19-21,25-27H,7-18,22-24H2,1-6H3",
        "InChIKey": null,
        "Canonical SMILES": "O=C(OCC(CC)CCCC)C1=CC=C(C(=O)OCC(CC)CCCC)C(=C1)C(=O)OCC(CC)CCCC",
        "Molecular Formula": "C<sub>33</sub>H<sub>54</sub>O<sub>6</sub>",
        "Molecular Mass": "546.78",
        "Boiling Point": "414 °C",
        "Density": "0.901142 g/cm³ @ Temp: 140.00 °C; Press: 750 Torr"
    }
}