{
    "cas_no": "14964-98-8",
    "key_name": "Bancroftinone",
    "cn_name": null,
    "alternate_name": "Ethanone, 1-(6-hydroxy-2,4-dimethoxy-3-methylphenyl)-;Acetophenone, 6′-hydroxy-2′,4′-dimethoxy-3′-methyl-;1-(6-Hydroxy-2,4-dimethoxy-3-methylphenyl)ethanone;6′-Hydroxy-2′,4′-dimethoxy-3′-methylacetophenone;Bancroftinone;5-Methylxanthoxylin;1-(6-Hydroxy-2,4-dimethoxy-3-methylphenyl)ethan-1-one;2′,4′-Dimethoxy-6′-hydroxy-3′-methylacetophenone",
    "duplicated_cas_no": "",
    "SMILES": "O(C)C1=C(C(C)=O)C(O)=CC(OC)=C1C",
    "meta_data": {
        "InChI": "InChI=1S/C11H14O4/c1-6-9(14-3)5-8(13)10(7(2)12)11(6)15-4/h5,13H,1-4H3",
        "InChIKey": null,
        "Canonical SMILES": "O=C(C1=C(O)C=C(OC)C(=C1OC)C)C",
        "Molecular Formula": "C<sub>11</sub>H<sub>14</sub>O<sub>4</sub>",
        "Molecular Mass": "210.23",
        "Boiling Point": "110-112 °C @ Press: 0.2 Torr",
        "Melting Point": "35-36 °C"
    }
}