{
    "cas_no": "64038-64-8",
    "key_name": "Ethyl 2,3-dihydro-2-thioxo-1<em>H</em>-imidazole-4-carboxylate",
    "cn_name": "4-乙氧基羰基咪唑-2-硫醇;2,3-二氢-2-硫羰基-1H-咪唑-4-羧酸乙酯;2-巯基咪唑-4-羧酸乙酯;2-巯基咪唑-4-甲酸;",
    "alternate_name": "1<em>H</em>-Imidazole-4-carboxylic acid, 2,3-dihydro-2-thioxo-, ethyl ester;Imidazole-4(<em>or</em> 5)-carboxylic acid, 2-mercapto-, ethyl ester;Ethyl 2,3-dihydro-2-thioxo-1<em>H</em>-imidazole-4-carboxylate;Ethyl 2-mercaptoimidazole-4-carboxylate;Ethyl 2-mercapto-1<em>H</em>-imidazole-4-carboxylate;2-Mercapto-1<em>H</em>-imidazole-4-carboxylic acid ethyl ester;4-Ethoxycarbonyl-2-mercaptoimidazole",
    "duplicated_cas_no": "",
    "SMILES": "C(OCC)(=O)C1=CNC(=S)N1",
    "meta_data": {
        "InChI": "InChI=1S/C6H8N2O2S/c1-2-10-5(9)4-3-7-6(11)8-4/h3H,2H2,1H3,(H2,7,8,11)",
        "InChIKey": null,
        "Canonical SMILES": "O=C(OCC)C1=CNC(=S)N1",
        "Molecular Formula": "C<sub>6</sub>H<sub>8</sub>N<sub>2</sub>O<sub>2</sub>S",
        "Molecular Mass": "172.20",
        "Melting Point": "184 °C"
    }
}