{
    "cas_no": "2277-19-2",
    "key_name": "<em>cis</em>-6-Nonenal",
    "cn_name": "(Z)-6-壬烯醛;",
    "alternate_name": "6-Nonenal, (6<em>Z</em>)-;6-Nonenal, (<em>Z</em>)-;(6<em>Z</em>)-6-Nonenal;6-Nonenal, <em>cis</em>-;<em>cis</em>-6-Nonenal;(<em>Z</em>)-6-Nonenal",
    "duplicated_cas_no": "",
    "SMILES": "C(CCCC=O)/C=C\\CC",
    "meta_data": {
        "InChI": "InChI=1S/C9H16O/c1-2-3-4-5-6-7-8-9-10/h3-4,9H,2,5-8H2,1H3/b4-3-",
        "InChIKey": null,
        "Canonical SMILES": "O=CCCCCC=CCC",
        "Molecular Formula": "C<sub>9</sub>H<sub>16</sub>O",
        "Molecular Mass": "140.22",
        "Boiling Point": "62-63 °C @ Press: 2 Torr"
    }
}