{
    "cas_no": "110488-70-5",
    "key_name": "Athlete",
    "cn_name": "烯酰吗啉;4-[3-(4-氯苯基)-3-(3,4-二甲氧基苯基)丙烯酰]吗啉;",
    "alternate_name": "2-Propen-1-one, 3-(4-chlorophenyl)-3-(3,4-dimethoxyphenyl)-1-(4-morpholinyl)-;Morpholine, 4-[3-(4-chlorophenyl)-3-(3,4-dimethoxyphenyl)-1-oxo-2-propenyl]-;3-(4-Chlorophenyl)-3-(3,4-dimethoxyphenyl)-1-(4-morpholinyl)-2-propen-1-one;CME 151;Dimethomorph;Forum;Akrobat;Forum (biocide);Festival C;Acrobat;Athlete;Xixianmalin",
    "duplicated_cas_no": "1135441-72-3",
    "SMILES": "C(=CC(=O)N1CCOCC1)(C2=CC(OC)=C(OC)C=C2)C3=CC=C(Cl)C=C3",
    "meta_data": {
        "InChI": "InChI=1S/C21H22ClNO4/c1-25-19-8-5-16(13-20(19)26-2)18(15-3-6-17(22)7-4-15)14-21(24)23-9-11-27-12-10-23/h3-8,13-14H,9-12H2,1-2H3",
        "InChIKey": null,
        "Canonical SMILES": "O=C(C=C(C1=CC=C(Cl)C=C1)C2=CC=C(OC)C(OC)=C2)N3CCOCC3",
        "Molecular Formula": "C<sub>21</sub>H<sub>22</sub>ClNO<sub>4</sub>",
        "Molecular Mass": "387.86",
        "Melting Point": "127-148 °C"
    }
}