{
    "cas_no": "36554-97-9",
    "key_name": "1,1,1,2,2,3,3,4,4,5,5,6,6,7,7,11,11,12,12,13,13,14,14,15,15,16,16,17,17,17-Triacontafluoro-8,10-heptadecanedione",
    "cn_name": "9H,9H-三十氟-8,10-十七烷二酮;",
    "alternate_name": "8,10-Heptadecanedione, 1,1,1,2,2,3,3,4,4,5,5,6,6,7,7,11,11,12,12,13,13,14,14,15,15,16,16,17,17,17-triacontafluoro-;1,1,1,2,2,3,3,4,4,5,5,6,6,7,7,11,11,12,12,13,13,14,14,15,15,16,16,17,17,17-Triacontafluoro-8,10-heptadecanedione;9,9-Dihydroperfluoro-8,10-heptadecanedione",
    "duplicated_cas_no": "",
    "SMILES": "C(C(C(C(C(F)(F)F)(F)F)(F)F)(F)F)(C(C(C(CC(C(C(C(C(C(C(C(F)(F)F)(F)F)(F)F)(F)F)(F)F)(F)F)(F)F)=O)=O)(F)F)(F)F)(F)F",
    "meta_data": {
        "InChI": "InChI=1S/C17H2F30O2/c18-4(19,6(22,23)8(26,27)10(30,31)12(34,35)14(38,39)16(42,43)44)2(48)1-3(49)5(20,21)7(24,25)9(28,29)11(32,33)13(36,37)15(40,41)17(45,46)47/h1H2",
        "InChIKey": null,
        "Canonical SMILES": "O=C(CC(=O)C(F)(F)C(F)(F)C(F)(F)C(F)(F)C(F)(F)C(F)(F)C(F)(F)F)C(F)(F)C(F)(F)C(F)(F)C(F)(F)C(F)(F)C(F)(F)C(F)(F)F",
        "Molecular Formula": "C<sub>17</sub>H<sub>2</sub>F<sub>30</sub>O<sub>2</sub>",
        "Molecular Mass": "808.15",
        "Melting Point": "50 °C"
    }
}