{
    "cas_no": "1867-66-9",
    "key_name": "Ketamine hydrochloride",
    "cn_name": "盐酸氯氨酮;(+/-)-2-(2-氯苯基)-2-(甲基氨基)环己酮盐酸盐;",
    "alternate_name": "Cyclohexanone, 2-(2-chlorophenyl)-2-(methylamino)-, hydrochloride (1:1);Cyclohexanone, 2-(<em>o</em>-chlorophenyl)-2-(methylamino)-, hydrochloride, (±)-;Cyclohexanone, 2-(2-chlorophenyl)-2-(methylamino)-, hydrochloride, (±)-;Cyclohexanone, 2-(2-chlorophenyl)-2-(methylamino)-, hydrochloride;(±)-2-(<em>o</em>-Chlorophenyl)-2-(methylamino)cyclohexanone hydrochloride;Ketamine hydrochloride;Ketalar;Vetalar;Ketaset;CI 581;(±)-Ketamine hydrochloride;Ketanest;Ketolar;Ketavet 100;Calipsol;Kalipsol;Ketanarkon;Ketaject;Ketavet;CL369;Ketamil;Ketmin 50;2-(2-Chlorophenyl)-2-(methylamino)cyclohexanone hydrochloride;Vetanarcol",
    "duplicated_cas_no": "96448-41-8;100477-73-4;42551-62-2;79499-52-8;81771-21-3",
    "SMILES": "N(C)C1(C(=O)CCCC1)C2=C(Cl)C=CC=C2.Cl",
    "meta_data": {
        "InChI": "InChI=1S/C13H16ClNO.ClH/c1-15-13(9-5-4-8-12(13)16)10-6-2-3-7-11(10)14;/h2-3,6-7,15H,4-5,8-9H2,1H3;1H",
        "InChIKey": null,
        "Canonical SMILES": "Cl.O=C1CCCCC1(NC)C=2C=CC=CC2Cl",
        "Molecular Formula": "C<sub>13</sub>H<sub>16</sub>ClNO.ClH",
        "Molecular Mass": "",
        "Melting Point": "262-263 °C"
    }
}