{
    "cas_no": "105827-91-6",
    "key_name": "2-Chloro-5-(chloromethyl)thiazole",
    "cn_name": "2-氯-5-氯甲基噻唑;",
    "alternate_name": "Thiazole, 2-chloro-5-(chloromethyl)-;2-Chloro-5-(chloromethyl)thiazole;2-Chloro-5-thiazolylmethyl chloride;2-Chloro-5-chloromethyl-1,3-thiazole;5-Chloromethyl-2-chloro-1,3-thiazole",
    "duplicated_cas_no": "",
    "SMILES": "C(Cl)C=1SC(Cl)=NC1",
    "meta_data": {
        "InChI": "InChI=1S/C4H3Cl2NS/c5-1-3-2-7-4(6)8-3/h2H,1H2",
        "InChIKey": null,
        "Canonical SMILES": "ClC1=NC=C(S1)CCl",
        "Molecular Formula": "C<sub>4</sub>H<sub>3</sub>Cl<sub>2</sub>NS",
        "Molecular Mass": "168.04",
        "Melting Point": "31 °C"
    }
}