{
    "cas_no": "67242-59-5",
    "key_name": "<em>N</em>-Methyl-<em>N</em>-2-pyridinylformamide",
    "cn_name": null,
    "alternate_name": "Formamide, <em>N</em>-methyl-<em>N</em>-2-pyridinyl-;<em>N</em>-Methyl-<em>N</em>-2-pyridinylformamide;2-(<em>N</em>-Methyl-<em>N</em>-formylamino)pyridine;<em>N</em>-Methyl-<em>N</em>-2-pyridylformamide",
    "duplicated_cas_no": "",
    "SMILES": "N(C=O)(C)C1=CC=CC=N1",
    "meta_data": {
        "InChI": "InChI=1S/C7H8N2O/c1-9(6-10)7-4-2-3-5-8-7/h2-6H,1H3",
        "InChIKey": null,
        "Canonical SMILES": "O=CN(C1=NC=CC=C1)C",
        "Molecular Formula": "C<sub>7</sub>H<sub>8</sub>N<sub>2</sub>O",
        "Molecular Mass": "136.15",
        "Boiling Point": "71-72 °C @ Press: 0.05 Torr"
    }
}