{
    "cas_no": "623-59-6",
    "key_name": "<em>N</em>-[(Methylamino)carbonyl]acetamide",
    "cn_name": "1-乙酰-3-甲脲;",
    "alternate_name": "Acetamide, <em>N</em>-[(methylamino)carbonyl]-;Urea, 1-acetyl-3-methyl-;<em>N</em>-[(Methylamino)carbonyl]acetamide;<em>N</em>′-Methyl-<em>N</em>-acetylurea;1-Acetyl-3-methylurea;<em>N</em>-Methyl-<em>N</em>′-acetylurea;<em>N</em>-Acetyl-<em>N</em>′-methylurea;1-Methyl-3-acetylurea;NSC 7608",
    "duplicated_cas_no": "",
    "SMILES": "C(NC(C)=O)(NC)=O",
    "meta_data": {
        "InChI": "InChI=1S/C4H8N2O2/c1-3(7)6-4(8)5-2/h1-2H3,(H2,5,6,7,8)",
        "InChIKey": null,
        "Canonical SMILES": "O=C(NC(=O)C)NC",
        "Molecular Formula": "C<sub>4</sub>H<sub>8</sub>N<sub>2</sub>O<sub>2</sub>",
        "Molecular Mass": "116.12",
        "Melting Point": "180.5 °C"
    }
}