{
    "cas_no": "641-77-0",
    "key_name": "21-Deoxycortisol",
    "cn_name": null,
    "alternate_name": "Pregn-4-ene-3,20-dione, 11,17-dihydroxy-, (11β)-;Pregn-4-ene-3,20-dione, 11β,17-dihydroxy-;Progesterone, 11β,17-dihydroxy-;(11β)-11,17-Dihydroxypregn-4-ene-3,20-dione;11β,17α-Dihydroxypregn-4-ene-3,20-dione;Pregn-4-ene-11β,17α-diol-3,20-dione;21-Deoxycortisol;21-Desoxycortisol;11β,17α-Dihydroxyprogesterone;21-Dehydrohydrocortisone;21-Deoxyhydrocortisone",
    "duplicated_cas_no": "186821-85-2",
    "SMILES": "C[C@@]12[C@]([C@]3([C@@]([C@]4(C)C(CC3)=CC(=O)CC4)([C@@H](O)C1)[H])[H])(CC[C@@]2(C(C)=O)O)[H]",
    "meta_data": {
        "InChI": "InChI=1S/C21H30O4/c1-12(22)21(25)9-7-16-15-5-4-13-10-14(23)6-8-19(13,2)18(15)17(24)11-20(16,21)3/h10,15-18,24-25H,4-9,11H2,1-3H3/t15-,16-,17-,18+,19-,20-,21-/m0/s1",
        "InChIKey": null,
        "Canonical SMILES": "O=C1C=C2CCC3C4CCC(O)(C(=O)C)C4(C)CC(O)C3C2(C)CC1",
        "Molecular Formula": "C<sub>21</sub>H<sub>30</sub>O<sub>4</sub>",
        "Molecular Mass": "346.46",
        "Melting Point": "225-228 °C"
    }
}