{
    "cas_no": "485-19-8",
    "key_name": "(+)-Reticuline",
    "cn_name": "牛心果?;牛心果?;",
    "alternate_name": "7-Isoquinolinol, 1,2,3,4-tetrahydro-1-[(3-hydroxy-4-methoxyphenyl)methyl]-6-methoxy-2-methyl-, (1<em>S</em>)-;Reticuline;7-Isoquinolinol, 1,2,3,4-tetrahydro-1-[(3-hydroxy-4-methoxyphenyl)methyl]-6-methoxy-2-methyl-, (<em>S</em>)-;(1<em>S</em>)-1,2,3,4-Tetrahydro-1-[(3-hydroxy-4-methoxyphenyl)methyl]-6-methoxy-2-methyl-7-isoquinolinol;(+)-Reticuline;<span class=\"text-smallcaps\">L</span>-(+)-Reticuline;(<em>S</em>)-Reticuline;Reticulin;<em>S</em>-(+)-Reticuline;<em>d</em>-Reticuline;(<em>S</em>)-Reticulene",
    "duplicated_cas_no": "3466-53-3;7344-79-8",
    "SMILES": "C([C@H]1C=2C(=CC(OC)=C(O)C2)CCN1C)C3=CC(O)=C(OC)C=C3",
    "meta_data": {
        "InChI": "InChI=1S/C19H23NO4/c1-20-7-6-13-10-19(24-3)17(22)11-14(13)15(20)8-12-4-5-18(23-2)16(21)9-12/h4-5,9-11,15,21-22H,6-8H2,1-3H3/t15-/m0/s1",
        "InChIKey": null,
        "Canonical SMILES": "OC1=CC(=CC=C1OC)CC2C3=CC(O)=C(OC)C=C3CCN2C",
        "Molecular Formula": "C<sub>19</sub>H<sub>23</sub>NO<sub>4</sub>",
        "Molecular Mass": "329.39",
        "Melting Point": "88-94 °C"
    }
}