{
    "cas_no": "3575-31-3",
    "key_name": "4-Octylbenzoic acid",
    "cn_name": "4-辛基苯甲酸;",
    "alternate_name": "Benzoic acid, 4-octyl-;Benzoic acid, <em>p</em>-octyl-;4-Octylbenzoic acid;<em>p</em>-Octylbenzoic acid;4-<em>n</em>-Octylbenzoic acid;NSC 173066",
    "duplicated_cas_no": "1042740-24-8",
    "SMILES": "C(CCCCCCC)C1=CC=C(C(O)=O)C=C1",
    "meta_data": {
        "InChI": "InChI=1S/C15H22O2/c1-2-3-4-5-6-7-8-13-9-11-14(12-10-13)15(16)17/h9-12H,2-8H2,1H3,(H,16,17)",
        "InChIKey": null,
        "Canonical SMILES": "O=C(O)C1=CC=C(C=C1)CCCCCCCC",
        "Molecular Formula": "C<sub>15</sub>H<sub>22</sub>O<sub>2</sub>",
        "Molecular Mass": "234.33",
        "Melting Point": "99-100 °C"
    }
}