{
    "cas_no": "119-10-8",
    "key_name": "1-Methoxy-4-methyl-2-nitrobenzene",
    "cn_name": "4-甲基-2-硝基苯甲醚;4-甲氧基-3-硝基甲苯;",
    "alternate_name": "Benzene, 1-methoxy-4-methyl-2-nitro-;Anisole, 4-methyl-2-nitro-;1-Methoxy-4-methyl-2-nitrobenzene;4-Methyl-2-nitroanisole;4-Methoxy-3-nitrotoluene;2-Nitro-4-methylanisole",
    "duplicated_cas_no": "",
    "SMILES": "N(=O)(=O)C1=C(OC)C=CC(C)=C1",
    "meta_data": {
        "InChI": "InChI=1S/C8H9NO3/c1-6-3-4-8(12-2)7(5-6)9(10)11/h3-5H,1-2H3",
        "InChIKey": null,
        "Canonical SMILES": "O=N(=O)C1=CC(=CC=C1OC)C",
        "Molecular Formula": "C<sub>8</sub>H<sub>9</sub>NO<sub>3</sub>",
        "Molecular Mass": "167.16",
        "Boiling Point": "159 °C @ Press: 15 Torr",
        "Melting Point": "8.5 °C",
        "Density": "1.20250061035156 g/cm³ @ Temp: 25 °C"
    }
}