{
    "cas_no": "17938-70-4",
    "key_name": "1-Iodo-4-methoxy-2,3-dimethylbenzene",
    "cn_name": null,
    "alternate_name": "Benzene, 1-iodo-4-methoxy-2,3-dimethyl-;Anisole, 4-iodo-2,3-dimethyl-;1-Iodo-4-methoxy-2,3-dimethylbenzene;2,3-Dimethyl-4-iodoanisole;2,3-Dimethyl-4-methoxy-1-iodobenzene",
    "duplicated_cas_no": "",
    "SMILES": "O(C)C1=C(C)C(C)=C(I)C=C1",
    "meta_data": {
        "InChI": "InChI=1S/C9H11IO/c1-6-7(2)9(11-3)5-4-8(6)10/h4-5H,1-3H3",
        "InChIKey": null,
        "Canonical SMILES": "IC1=CC=C(OC)C(=C1C)C",
        "Molecular Formula": "C<sub>9</sub>H<sub>11</sub>IO",
        "Molecular Mass": "262.09",
        "Melting Point": "39-40 °C"
    }
}