{
    "cas_no": "656247-17-5",
    "key_name": "Nintedanib",
    "cn_name": null,
    "alternate_name": "1<em>H</em>-Indole-6-carboxylic acid, 2,3-dihydro-3-[[[4-[methyl[2-(4-methyl-1-piperazinyl)acetyl]amino]phenyl]amino]phenylmethylene]-2-oxo-, methyl ester, (3<em>Z</em>)-;1<em>H</em>-Indole-6-carboxylic acid, 2,3-dihydro-3-[[[4-[methyl[(4-methyl-1-piperazinyl)acetyl]amino]phenyl]amino]phenylmethylene]-2-oxo-, methyl ester, (3<em>Z</em>)-;BIBF 1120;Nintedanib;Vargatef;Ofev;Methyl (<em>Z</em>)-3-[[[4-[<em>N</em>-methyl-2-(4-methylpiperazin-1-yl)acetamido]phenyl]amino](phenyl)methylene]-2-oxoindoline-6-carboxylate;Methyl (Z)-3-[[[4-(<em>N</em>-methyl-2-(4-methylpiperazin-1-yl)acetamido)phenyl)amino)(phenyl)methylene)-2-oxoindoline-6-carboxylate",
    "duplicated_cas_no": "928326-83-4",
    "SMILES": "C(\\NC1=CC=C(N(C(CN2CCN(C)CC2)=O)C)C=C1)(=C\\3/C=4C(NC3=O)=CC(C(OC)=O)=CC4)/C5=CC=CC=C5",
    "meta_data": {
        "InChI": "InChI=1S/C31H33N5O4/c1-34-15-17-36(18-16-34)20-27(37)35(2)24-12-10-23(11-13-24)32-29(21-7-5-4-6-8-21)28-25-14-9-22(31(39)40-3)19-26(25)33-30(28)38/h4-14,19,32H,15-18,20H2,1-3H3,(H,33,38)/b29-28-",
        "InChIKey": null,
        "Canonical SMILES": "O=C(OC)C1=CC=C2C(=C1)NC(=O)C2=C(NC3=CC=C(C=C3)N(C(=O)CN4CCN(C)CC4)C)C=5C=CC=CC5",
        "Molecular Formula": "C<sub>31</sub>H<sub>33</sub>N<sub>5</sub>O<sub>4</sub>",
        "Molecular Mass": "539.62",
        "Melting Point": "240-246 °C"
    }
}