{
    "cas_no": "768-95-6",
    "key_name": "1-Adamantanol",
    "cn_name": "1-金刚烷醇;",
    "alternate_name": "Tricyclo[3.3.1.1<sup>3,7</sup>]decan-1-ol;1-Adamantanol;1-Hydroxyadamantane;1-Adamantyl alcohol;NSC 108837;NSC 91633",
    "duplicated_cas_no": "",
    "SMILES": "OC12CC3CC(C1)CC(C2)C3",
    "meta_data": {
        "InChI": "InChI=1S/C10H16O/c11-10-4-7-1-8(5-10)3-9(2-7)6-10/h7-9,11H,1-6H2",
        "InChIKey": null,
        "Canonical SMILES": "OC12CC3CC(CC(C3)C1)C2",
        "Molecular Formula": "C<sub>10</sub>H<sub>16</sub>O",
        "Molecular Mass": "152.23",
        "Melting Point": "282 °C"
    }
}