{
    "cas_no": "776-41-0",
    "key_name": "1<em>H</em>-Indole-3-carboxylic acid, ethyl ester",
    "cn_name": "吲哚-3-甲酸乙酯;",
    "alternate_name": "1<em>H</em>-Indole-3-carboxylic acid, ethyl ester;Indole-3-carboxylic acid, ethyl ester;Ethyl indole-3-carboxylate;NSC 63796;Ethyl 1<em>H</em>-indole-3-carboxylate;3-(Ethoxycarbonyl)indole",
    "duplicated_cas_no": "",
    "SMILES": "C(OCC)(=O)C=1C=2C(NC1)=CC=CC2",
    "meta_data": {
        "InChI": "InChI=1S/C11H11NO2/c1-2-14-11(13)9-7-12-10-6-4-3-5-8(9)10/h3-7,12H,2H2,1H3",
        "InChIKey": null,
        "Canonical SMILES": "O=C(OCC)C1=CNC=2C=CC=CC21",
        "Molecular Formula": "C<sub>11</sub>H<sub>11</sub>NO<sub>2</sub>",
        "Molecular Mass": "189.21",
        "Melting Point": "82 °C"
    }
}