{
    "cas_no": "16091-18-2",
    "key_name": "Dioctyltin maleate",
    "cn_name": "马来酸酯辛基锡;顺丁烯二酸二正辛基锡;",
    "alternate_name": "1,3,2-Dioxastannepin-4,7-dione, 2,2-dioctyl-;Dioctyltin maleate;2,2-Dioctyl-1,3,2-dioxastannepin-4,7-dione;Di-<em>n</em>-octyltin maleate;Thermolite 813;Estabex U 18;Dioctylstannylene maleate;Mellite 825;LIV 1176;Stann OMF;TVS 8105;Stann OM;TN 801;ADK Stab OT 9;ONR 79F;OM 3;NSC 65515;S-Cat 46A;LT 195;Di-<em>n</em>-ocytyltin maleate;Scat 47;ZT 8288",
    "duplicated_cas_no": "24493-51-4;32296-04-1;52434-42-1",
    "SMILES": "C(CCCCCCC)[Sn]1(CCCCCCCC)OC(=O)C=CC(=O)O1",
    "meta_data": {
        "InChI": "InChI=1S/2C8H17.C4H4O4.Sn/c2*1-3-5-7-8-6-4-2;5-3(6)1-2-4(7)8;/h2*1,3-8H2,2H3;1-2H,(H,5,6)(H,7,8);/q;;;+2/p-2",
        "InChIKey": null,
        "Canonical SMILES": "O=C1O[Sn](OC(=O)C=C1)(CCCCCCCC)CCCCCCCC",
        "Molecular Formula": "C<sub>20</sub>H<sub>36</sub>O<sub>4</sub>Sn",
        "Molecular Mass": "459.21",
        "Melting Point": "97 °C"
    }
}