{
    "cas_no": "2040-96-2",
    "key_name": "Propylcyclopentane",
    "cn_name": "正丙基环戊烷;正丙基环戊烷;",
    "alternate_name": "Cyclopentane, propyl-;Propylcyclopentane;<em>n</em>-Propylcyclopentane;NSC 73947;1-Propylcyclopentane",
    "duplicated_cas_no": "",
    "SMILES": "C(CC)C1CCCC1",
    "meta_data": {
        "InChI": "InChI=1S/C8H16/c1-2-5-8-6-3-4-7-8/h8H,2-7H2,1H3",
        "InChIKey": null,
        "Canonical SMILES": "CCCC1CCCC1",
        "Molecular Formula": "C<sub>8</sub>H<sub>16</sub>",
        "Molecular Mass": "112.21",
        "Boiling Point": "131 °C",
        "Melting Point": "-117.3 °C",
        "Density": "0.7736 g/cm³ @ Temp: 20 °C"
    }
}