{
    "cas_no": "21132-30-9",
    "key_name": "<em>N</em>,<em>N</em>′-Bis(2,3,4,5,6-pentafluorophenyl)urea",
    "cn_name": null,
    "alternate_name": "Urea, <em>N</em>,<em>N</em>′-bis(2,3,4,5,6-pentafluorophenyl)-;Carbanilide, 2,2′,3,3′,4,4′,5,5′,6,6′-decafluoro-;Urea, <em>N</em>,<em>N</em>′-bis(pentafluorophenyl)-;<em>N</em>,<em>N</em>′-Bis(2,3,4,5,6-pentafluorophenyl)urea",
    "duplicated_cas_no": "",
    "SMILES": "N(C(NC1=C(F)C(F)=C(F)C(F)=C1F)=O)C2=C(F)C(F)=C(F)C(F)=C2F",
    "meta_data": {
        "InChI": "InChI=1S/C13H2F10N2O/c14-1-3(16)7(20)11(8(21)4(1)17)24-13(26)25-12-9(22)5(18)2(15)6(19)10(12)23/h(H2,24,25,26)",
        "InChIKey": null,
        "Canonical SMILES": "O=C(NC=1C(F)=C(F)C(F)=C(F)C1F)NC=2C(F)=C(F)C(F)=C(F)C2F",
        "Molecular Formula": "C<sub>13</sub>H<sub>2</sub>F<sub>10</sub>N<sub>2</sub>O",
        "Molecular Mass": "392.15",
        "Melting Point": "270-270.5 °C"
    }
}