{
    "cas_no": "6681-15-8",
    "key_name": "Jatrorrhizine chloride",
    "cn_name": null,
    "alternate_name": "Dibenzo[<em>a</em>,<em>g</em>]quinolizinium, 5,6-dihydro-3-hydroxy-2,9,10-trimethoxy-, chloride (1:1);Berbinium, 7,8,13,13a-tetradehydro-3-hydroxy-2,9,10-trimethoxy-, chloride;Jatrorrhizine chloride;Dibenzo[<em>a</em>,<em>g</em>]quinolizinium, 5,6-dihydro-3-hydroxy-2,9,10-trimethoxy-, chloride;Neprotine chloride;NSC 645313",
    "duplicated_cas_no": "960383-96-4;1198398-69-4",
    "SMILES": "O(C)C=1C=C2C=3[N+](=CC=4C(C3)=CC=C(OC)C4OC)CCC2=CC1O.[Cl-]",
    "meta_data": {
        "InChI": "InChI=1S/C20H19NO4.ClH/c1-23-18-5-4-12-8-16-14-10-19(24-2)17(22)9-13(14)6-7-21(16)11-15(12)20(18)25-3;/h4-5,8-11H,6-7H2,1-3H3;1H",
        "InChIKey": null,
        "Canonical SMILES": "[Cl-].OC=1C=C2C(=CC1OC)C=3C=C4C=CC(OC)=C(OC)C4=C[N+]3CC2",
        "Molecular Formula": "C<sub>20</sub>H<sub>20</sub>NO<sub>4</sub>.Cl",
        "Molecular Mass": "",
        "Melting Point": "208-210 °C"
    }
}