{
    "cas_no": "628-03-5",
    "key_name": "3-Methylbutyl isothiocyanate",
    "cn_name": null,
    "alternate_name": "Butane, 1-isothiocyanato-3-methyl-;Isothiocyanic acid, isopentyl ester;1-Isothiocyanato-3-methylbutane;Isoamyl isothiocyanate;Isopentyl isothiocyanate;3-Methylbutyl isothiocyanate",
    "duplicated_cas_no": "",
    "SMILES": "C(CN=C=S)C(C)C",
    "meta_data": {
        "InChI": "InChI=1S/C6H11NS/c1-6(2)3-4-7-5-8/h6H,3-4H2,1-2H3",
        "InChIKey": null,
        "Canonical SMILES": "S=C=NCCC(C)C",
        "Molecular Formula": "C<sub>6</sub>H<sub>11</sub>NS",
        "Molecular Mass": "129.22",
        "Boiling Point": "79 °C @ Press: 12 Torr"
    }
}