{
    "cas_no": "88-04-0",
    "key_name": "4-Chloro-3,5-dimethylphenol",
    "cn_name": "4-氯-3,5-二甲基苯酚;",
    "alternate_name": "Phenol, 4-chloro-3,5-dimethyl-;3,5-Xylenol, 4-chloro-;4-Chloro-3,5-dimethylphenol;Benzytol;2-Chloro-5-hydroxy-1,3-dimethylbenzene;2-Chloro-5-hydroxy-<em>m</em>-xylene;Ottasept;PCMX;Dettol;Espadol;4-Chloro-<em>m</em>-xylenol;Chloroxylenol;Husept Extra;Ottasept Extra;RBA 777;4-Chloro-3,5-Xylenol;<em>p</em>-Chloro-<em>m</em>-Xylenol;Desson;<em>p</em>-Chloro-3,5-xylenol;Camel;Camel (pesticide);Hokubarine E 400;Finecide C 2000;Nipacide PX;Parametaxylenol;NSC 4971;4-Chloro-5,3-dimethylphenol;Dettol (biocide);Ecotru;2,6-Dimethyl-4-hydroxy-1-chlorobenzene;3,5-Dimethyl-<em>p</em>-chlorophenol;Nipacide PX-R",
    "duplicated_cas_no": "",
    "SMILES": "ClC1=C(C)C=C(O)C=C1C",
    "meta_data": {
        "InChI": "InChI=1S/C8H9ClO/c1-5-3-7(10)4-6(2)8(5)9/h3-4,10H,1-2H3",
        "InChIKey": null,
        "Canonical SMILES": "ClC=1C(=CC(O)=CC1C)C",
        "Molecular Formula": "C<sub>8</sub>H<sub>9</sub>ClO",
        "Molecular Mass": "156.61",
        "Boiling Point": "246 °C",
        "Melting Point": "115 °C"
    }
}