{
    "cas_no": "15933-07-0",
    "key_name": "Ethyl 2-oxobutanoate",
    "cn_name": "乙酰乙酸乙酯钠盐;丁酮酸乙酯钠;",
    "alternate_name": "Butanoic acid, 2-oxo-, ethyl ester;Butyric acid, 2-oxo-, ethyl ester;Ethyl 2-oxobutyrate;Ethyl α-oxobutyrate;Ethyl α-ketobutyrate;Ethyl 3-methylpyruvate;Ethyl 2-ketobutyrate;Ethyl α-oxobutanoate;Ethyl 2-oxobutanoate;2-Oxobutanoic acid ethyl ester;2-Oxobutyric acid ethyl ester",
    "duplicated_cas_no": "",
    "SMILES": "C(C(CC)=O)(OCC)=O",
    "meta_data": {
        "InChI": "InChI=1S/C6H10O3/c1-3-5(7)6(8)9-4-2/h3-4H2,1-2H3",
        "InChIKey": null,
        "Canonical SMILES": "O=C(OCC)C(=O)CC",
        "Molecular Formula": "C<sub>6</sub>H<sub>10</sub>O<sub>3</sub>",
        "Molecular Mass": "130.14",
        "Boiling Point": "140-145 °C @ Press: 0.4 Torr",
        "Density": "1.020 g/cm³ @ Temp: 20 °C"
    }
}