{
    "cas_no": "400755-44-4",
    "key_name": "1-Ethyl-1<em>H</em>-pyrazole-3-carboxylic acid",
    "cn_name": null,
    "alternate_name": "1<em>H</em>-Pyrazole-3-carboxylic acid, 1-ethyl-;1-Ethyl-1<em>H</em>-pyrazole-3-carboxylic acid;1-Ethylpyrazole-3-carboxylic acid",
    "duplicated_cas_no": "",
    "SMILES": "C(O)(=O)C1=NN(CC)C=C1",
    "meta_data": {
        "InChI": "InChI=1S/C6H8N2O2/c1-2-8-4-3-5(7-8)6(9)10/h3-4H,2H2,1H3,(H,9,10)",
        "InChIKey": null,
        "Canonical SMILES": "O=C(O)C1=NN(C=C1)CC",
        "Molecular Formula": "C<sub>6</sub>H<sub>8</sub>N<sub>2</sub>O<sub>2</sub>",
        "Molecular Mass": "140.14",
        "Melting Point": "176-177 °C"
    }
}