{
    "cas_no": "122773-97-1",
    "key_name": "2-Phenyl-5-pyrimidinecarboxylic acid",
    "cn_name": null,
    "alternate_name": "5-Pyrimidinecarboxylic acid, 2-phenyl-;2-Phenyl-5-pyrimidinecarboxylic acid",
    "duplicated_cas_no": "",
    "SMILES": "C(O)(=O)C=1C=NC(=NC1)C2=CC=CC=C2",
    "meta_data": {
        "InChI": "InChI=1S/C11H8N2O2/c14-11(15)9-6-12-10(13-7-9)8-4-2-1-3-5-8/h1-7H,(H,14,15)",
        "InChIKey": null,
        "Canonical SMILES": "O=C(O)C1=CN=C(N=C1)C=2C=CC=CC2",
        "Molecular Formula": "C<sub>11</sub>H<sub>8</sub>N<sub>2</sub>O<sub>2</sub>",
        "Molecular Mass": "200.19",
        "Melting Point": "&gt;220 °C (decomp)"
    }
}