{
    "cas_no": "56-95-1",
    "key_name": "Chlorhexidine acetate",
    "cn_name": "醋酸氯己定;醋酸洗必泰;1,1\"-己基双[5-(对氯苯基)双胍]醋酸盐;",
    "alternate_name": "2,4,11,13-Tetraazatetradecanediimidamide, <em>N</em>,<em>N</em>′′-bis(4-chlorophenyl)-3,12-diimino-, acetate (1:2);Biguanide, 1,1′-hexamethylenebis[5-(<em>p</em>-chlorophenyl)-, diacetate;2,4,11,13-Tetraazatetradecanediimidamide, <em>N</em>,<em>N</em>′′-bis(4-chlorophenyl)-3,12-diimino-, diacetate;Chlorhexidine diacetate;Hibitane diacetate;1,6-Bis(<em>p</em>-chlorophenylbiguanido)hexane diacetate;Chlorhexidine acetate;Bactigras;Arlacide A;Chlorzoin;EC 40;EC 40 (antibacterial);Chlorasept 2000;NSC 526936;Dosisepsine;Jie-Yin Liquid Disinfectant",
    "duplicated_cas_no": "36466-50-9",
    "SMILES": "C(C)(O)=O.N(C(NC(NCCCCCCNC(NC(NC1=CC=C(Cl)C=C1)=N)=N)=N)=N)C2=CC=C(Cl)C=C2",
    "meta_data": {
        "InChI": "InChI=1S/C22H30Cl2N10.C2H4O2/c23-15-5-9-17(10-6-15)31-21(27)33-19(25)29-13-3-1-2-4-14-30-20(26)34-22(28)32-18-11-7-16(24)8-12-18;1-2(3)4/h5-12H,1-4,13-14H2,(H5,25,27,29,31,33)(H5,26,28,30,32,34);1H3,(H,3,4)",
        "InChIKey": null,
        "Canonical SMILES": "O=C(O)C.ClC1=CC=C(C=C1)NC(=N)NC(=N)NCCCCCCNC(=N)NC(=N)NC2=CC=C(Cl)C=C2",
        "Molecular Formula": "C<sub>22</sub>H<sub>30</sub>Cl<sub>2</sub>N<sub>10</sub>.2C<sub>2</sub>H<sub>4</sub>O<sub>2</sub>",
        "Molecular Mass": "",
        "Melting Point": "154-155 °C"
    }
}