{
    "cas_no": "199327-61-2",
    "key_name": "7-Methoxy-6-(3-morpholinopropoxy)-3,4-dihydroquinazolin-4-one",
    "cn_name": null,
    "alternate_name": "4(3<em>H</em>)-Quinazolinone, 7-methoxy-6-[3-(4-morpholinyl)propoxy]-;4(1<em>H</em>)-Quinazolinone, 7-methoxy-6-[3-(4-morpholinyl)propoxy]-;7-Methoxy-6-[3-(4-morpholinyl)propoxy]-4(3<em>H</em>)-quinazolinone;7-Methoxy-6-(3-morpholinopropoxy)-3,4-dihydroquinazolin-4-one;7-Methoxy-6-(3-(morpholin-4-yl)propoxy)-3<em>H</em>-quinazolin-4-one;7-Methoxy-6-[3-(4-morpholinyl)propoxy]quinazolin-4(3<em>H</em>)-one;7-Methoxy-6-(3-morpholinopropoxy)quinazolin-4-one",
    "duplicated_cas_no": "",
    "SMILES": "O=C1C=2C(=CC(OC)=C(OCCCN3CCOCC3)C2)NC=N1",
    "meta_data": {
        "InChI": "InChI=1S/C16H21N3O4/c1-21-14-10-13-12(16(20)18-11-17-13)9-15(14)23-6-2-3-19-4-7-22-8-5-19/h9-11H,2-8H2,1H3,(H,17,18,20)",
        "InChIKey": null,
        "Canonical SMILES": "O=C1N=CNC2=CC(OC)=C(OCCCN3CCOCC3)C=C12",
        "Molecular Formula": "C<sub>16</sub>H<sub>21</sub>N<sub>3</sub>O<sub>4</sub>",
        "Molecular Mass": "319.36",
        "Melting Point": "233-236 °C"
    }
}