{
    "cas_no": "38963-95-0",
    "key_name": "Resveratroloside",
    "cn_name": null,
    "alternate_name": "β-<span class=\"text-smallcaps\">D</span>-Glucopyranoside, 4-[(1<em>E</em>)-2-(3,5-dihydroxyphenyl)ethenyl]phenyl;β-<span class=\"text-smallcaps\">D</span>-Glucopyranoside, 4-[2-(3,5-dihydroxyphenyl)ethenyl]phenyl, (<em>E</em>)-;4-[(1<em>E</em>)-2-(3,5-Dihydroxyphenyl)ethenyl]phenyl β-<span class=\"text-smallcaps\">D</span>-glucopyranoside;3,4′,5-Trihydroxystilbene 4′-mono-β-<span class=\"text-smallcaps\">D</span>-glycopyranoside;Resveratroloside;Resveratrol 4′-<em>O</em>-β-<span class=\"text-smallcaps\">D</span>-glucopyranoside",
    "duplicated_cas_no": "",
    "SMILES": "O([C@@H]1O[C@H](CO)[C@@H](O)[C@H](O)[C@H]1O)C2=CC=C(/C=C/C3=CC(O)=CC(O)=C3)C=C2",
    "meta_data": {
        "InChI": "InChI=1S/C20H22O8/c21-10-16-17(24)18(25)19(26)20(28-16)27-15-5-3-11(4-6-15)1-2-12-7-13(22)9-14(23)8-12/h1-9,16-26H,10H2/b2-1+/t16-,17-,18+,19-,20-/m1/s1",
        "InChIKey": null,
        "Canonical SMILES": "OC=1C=C(O)C=C(C=CC2=CC=C(OC3OC(CO)C(O)C(O)C3O)C=C2)C1",
        "Molecular Formula": "C<sub>20</sub>H<sub>22</sub>O<sub>8</sub>",
        "Molecular Mass": "390.38",
        "Melting Point": "235-238 °C"
    }
}