{
    "cas_no": "65-22-5",
    "key_name": "Pyridoxal, hydrochloride",
    "cn_name": null,
    "alternate_name": "4-Pyridinecarboxaldehyde, 3-hydroxy-5-(hydroxymethyl)-2-methyl-, hydrochloride (1:1);Pyridoxal, hydrochloride;4-Pyridinecarboxaldehyde, 3-hydroxy-5-(hydroxymethyl)-2-methyl-, hydrochloride;2-Methyl-3-hydroxy-4-formyl-5-hydroxymethylpyridine hydrochloride;3-Hydroxy-5-hydroxymethyl-2-methylisonicotinaldehyde hydrochloride;3-Hydroxy-5-(hydroxymethyl)-2-methyl-4-pyridinecarboxaldehyde hydrochloride;3-Hydroxy-5-(hydroxymethyl)-2-methylpyridine-4-carbaldehyde hydrochloride",
    "duplicated_cas_no": "",
    "SMILES": "C(=O)C=1C(CO)=CN=C(C)C1O.Cl",
    "meta_data": {
        "InChI": "InChI=1S/C8H9NO3.ClH/c1-5-8(12)7(4-11)6(3-10)2-9-5;/h2,4,10,12H,3H2,1H3;1H",
        "InChIKey": null,
        "Canonical SMILES": "Cl.O=CC1=C(O)C(=NC=C1CO)C",
        "Molecular Formula": "C<sub>8</sub>H<sub>9</sub>NO<sub>3</sub>.ClH",
        "Molecular Mass": "",
        "Melting Point": "165 °C"
    }
}