{
    "cas_no": "2065-27-2",
    "key_name": "Benzoic acid, 2,6-dimethoxy-, methyl ester",
    "cn_name": "2,6-二甲氧基苯甲酸甲酯;",
    "alternate_name": "Benzoic acid, 2,6-dimethoxy-, methyl ester;Methyl 2,6-dimethoxybenzoate;2,6-Dimethoxybenzoic acid methyl ester",
    "duplicated_cas_no": "",
    "SMILES": "C(OC)(=O)C1=C(OC)C=CC=C1OC",
    "meta_data": {
        "InChI": "InChI=1S/C10H12O4/c1-12-7-5-4-6-8(13-2)9(7)10(11)14-3/h4-6H,1-3H3",
        "InChIKey": null,
        "Canonical SMILES": "O=C(OC)C=1C(OC)=CC=CC1OC",
        "Molecular Formula": "C<sub>10</sub>H<sub>12</sub>O<sub>4</sub>",
        "Molecular Mass": "196.20",
        "Boiling Point": "160-172 °C @ Press: 14 Torr",
        "Melting Point": "88 °C"
    }
}