{
    "cas_no": "3391-99-9",
    "key_name": "<span class=\"text-smallcaps\">L</span>-Isoleucine, <em>N</em>-[(phenylmethoxy)carbonyl]-, 2,5-dioxo-1-pyrrolidinyl ester",
    "cn_name": null,
    "alternate_name": "<span class=\"text-smallcaps\">L</span>-Isoleucine, <em>N</em>-[(phenylmethoxy)carbonyl]-, 2,5-dioxo-1-pyrrolidinyl ester;Succinimide, <em>N</em>-[(<em>N</em>-carboxy-<span class=\"text-smallcaps\">L</span>-isoleucyl)oxy]-, benzyl ester;Carbamic acid, [1-[[(2,5-dioxo-1-pyrrolidinyl)oxy]carbonyl]-2-methylbutyl]-, phenylmethyl ester, [<em>S</em>-(<em>R</em>*,<em>R</em>*)]-;Carbamic acid, [(1<em>S</em>,2<em>S</em>)-1-[[(2,5-dioxo-1-pyrrolidinyl)oxy]carbonyl]-2-methylbutyl]-, phenylmethyl ester;Isoleucine, <em>N</em>-carboxy-, <em>N</em>-benzyl ester, <em>O</em>-succinimido deriv., <span class=\"text-smallcaps\">L</span>-;<em>N</em>-α-Carbobenzoxy-<span class=\"text-smallcaps\">L</span>-isoleucine-<em>N</em>-hydroxysuccinimide ester;Cbz-Ile-OSu",
    "duplicated_cas_no": "",
    "SMILES": "O(C([C@@H](NC(OCC1=CC=CC=C1)=O)[C@H](CC)C)=O)N2C(=O)CCC2=O",
    "meta_data": {
        "InChI": "InChI=1S/C18H22N2O6/c1-3-12(2)16(17(23)26-20-14(21)9-10-15(20)22)19-18(24)25-11-13-7-5-4-6-8-13/h4-8,12,16H,3,9-11H2,1-2H3,(H,19,24)/t12-,16-/m0/s1",
        "InChIKey": null,
        "Canonical SMILES": "O=C(OCC=1C=CC=CC1)NC(C(=O)ON2C(=O)CCC2=O)C(C)CC",
        "Molecular Formula": "C<sub>18</sub>H<sub>22</sub>N<sub>2</sub>O<sub>6</sub>",
        "Molecular Mass": "362.38",
        "Melting Point": "115-116 °C"
    }
}