{
    "cas_no": "1114-92-7",
    "key_name": "2,3-Diacetoxybutane",
    "cn_name": null,
    "alternate_name": "2,3-Butanediol, 2,3-diacetate;2,3-Butanediol, diacetate;1,2-Dimethylethylene acetate;2,3-Diacetoxybutane;2,3-Butyleneglycol diacetate;2,3-Butanediyl diacetate",
    "duplicated_cas_no": "",
    "SMILES": "C(C(OC(C)=O)C)(OC(C)=O)C",
    "meta_data": {
        "InChI": "InChI=1S/C8H14O4/c1-5(11-7(3)9)6(2)12-8(4)10/h5-6H,1-4H3",
        "InChIKey": null,
        "Canonical SMILES": "O=C(OC(C)C(OC(=O)C)C)C",
        "Molecular Formula": "C<sub>8</sub>H<sub>14</sub>O<sub>4</sub>",
        "Molecular Mass": "174.19",
        "Boiling Point": "82 °C @ Press: 10 Torr",
        "Melting Point": "25.7-25.9 °C",
        "Density": "1.0244 g/cm³ @ Temp: 25 °C"
    }
}