{
    "cas_no": "138-56-7",
    "key_name": "Trimethobenzamide",
    "cn_name": "曲美苄胺;4-(2-二甲基氨基乙氧基)-N-(3,4,5-三甲氧基苯甲酰)苄胺;",
    "alternate_name": "Benzamide, <em>N</em>-[[4-[2-(dimethylamino)ethoxy]phenyl]methyl]-3,4,5-trimethoxy-;Benzamide, <em>N</em>-[<em>p</em>-[2-(dimethylamino)ethoxy]benzyl]-3,4,5-trimethoxy-;<em>N</em>-[[4-[2-(Dimethylamino)ethoxy]phenyl]methyl]-3,4,5-trimethoxybenzamide;<em>N</em>-[<em>p</em>-[2-(Dimethylamino)ethoxy]benzyl]-3,4,5-trimethoxybenzamide;4-(2-Dimethylaminoethoxy)-<em>N</em>-(3,4,5-trimethoxybenzoyl)benzylamine;Trimethobenzamide;Emedur;<em>N</em>-(4-(2-(Dimethylamino)ethoxy)benzyl)-3,4,5-trimethoxybenzamide",
    "duplicated_cas_no": "",
    "SMILES": "C(NCC1=CC=C(OCCN(C)C)C=C1)(=O)C2=CC(OC)=C(OC)C(OC)=C2",
    "meta_data": {
        "InChI": "InChI=1S/C21H28N2O5/c1-23(2)10-11-28-17-8-6-15(7-9-17)14-22-21(24)16-12-18(25-3)20(27-5)19(13-16)26-4/h6-9,12-13H,10-11,14H2,1-5H3,(H,22,24)",
        "InChIKey": null,
        "Canonical SMILES": "O=C(NCC1=CC=C(OCCN(C)C)C=C1)C2=CC(OC)=C(OC)C(OC)=C2",
        "Molecular Formula": "C<sub>21</sub>H<sub>28</sub>N<sub>2</sub>O<sub>5</sub>",
        "Molecular Mass": "388.46",
        "Melting Point": "188.7 °C"
    }
}