{
    "cas_no": "69574-07-8",
    "key_name": "3,5-Diethyl-4-hydroxybenzaldehyde",
    "cn_name": null,
    "alternate_name": "Benzaldehyde, 3,5-diethyl-4-hydroxy-;3,5-Diethyl-4-hydroxybenzaldehyde",
    "duplicated_cas_no": "",
    "SMILES": "C(C)C1=C(O)C(CC)=CC(C=O)=C1",
    "meta_data": {
        "InChI": "InChI=1S/C11H14O2/c1-3-9-5-8(7-12)6-10(4-2)11(9)13/h5-7,13H,3-4H2,1-2H3",
        "InChIKey": null,
        "Canonical SMILES": "O=CC=1C=C(C(O)=C(C1)CC)CC",
        "Molecular Formula": "C<sub>11</sub>H<sub>14</sub>O<sub>2</sub>",
        "Molecular Mass": "178.23",
        "Melting Point": "93.6-94.2 °C"
    }
}