{
    "cas_no": "14346-25-9",
    "key_name": "1,5,6,7-Tetrahydro-4<em>H</em>-cyclopenta[4,5]thieno[2,3-<em>d</em>]pyrimidin-4-one",
    "cn_name": null,
    "alternate_name": "4<em>H</em>-Cyclopenta[4,5]thieno[2,3-<em>d</em>]pyrimidin-4-one, 1,5,6,7-tetrahydro-;5<em>H</em>-Cyclopenta[4,5]thieno[2,3-<em>d</em>]pyrimidin-4-ol, 6,7-dihydro-;1,5,6,7-Tetrahydro-4<em>H</em>-cyclopenta[4,5]thieno[2,3-<em>d</em>]pyrimidin-4-one;ICX 56290675;NSC 612490;2,3-Dihydro-1<em>H</em>-8-thia-5,7-diaza-cyclopenta[<em>a</em>]inden-4-ol;3,5,6,7-Tetrahydro-4<em>H</em>-cyclopenta[4,5]thieno[2,3-<em>d</em>]pyrimidin-4-one",
    "duplicated_cas_no": "",
    "SMILES": "O=C1C=2C3=C(SC2NC=N1)CCC3",
    "meta_data": {
        "InChI": "InChI=1S/C9H8N2OS/c12-8-7-5-2-1-3-6(5)13-9(7)11-4-10-8/h4H,1-3H2,(H,10,11,12)",
        "InChIKey": null,
        "Canonical SMILES": "O=C1N=CNC=2SC3=C(C12)CCC3",
        "Molecular Formula": "C<sub>9</sub>H<sub>8</sub>N<sub>2</sub>OS",
        "Molecular Mass": "192.24",
        "Melting Point": "235 °C"
    }
}