{
    "cas_no": "1330-20-7",
    "key_name": "Xylene",
    "cn_name": null,
    "alternate_name": "Benzene, dimethyl-;Xylene;Dimethylbenzene;Xylol;Dilan;ZEP-RD;Entellan New;X 0040",
    "duplicated_cas_no": "8026-09-3",
    "SMILES": "",
    "meta_data": {
        "InChI": "",
        "InChIKey": null,
        "Canonical SMILES": "",
        "Molecular Formula": "C<sub>8</sub>H<sub>10</sub>",
        "Molecular Mass": "",
        "Boiling Point": "137-140 °C",
        "Density": "0.864 g/cm³ @ Temp: 20 °C"
    }
}