{
    "cas_no": "328-84-7",
    "key_name": "3,4-Dichlorobenzotrifluoride",
    "cn_name": "3,4-二氯三氟甲苯;",
    "alternate_name": "Benzene, 1,2-dichloro-4-(trifluoromethyl)-;Toluene, 3,4-dichloro-α,α,α-trifluoro-;1,2-Dichloro-4-(trifluoromethyl)benzene;3,4-Dichlorobenzotrifluoride;3,4-Dichloro-α,α,α-trifluorotoluene;(3,4-Dichlorophenyl)trifluoromethane;3,4-Dichloro(trifluoromethyl)benzene;3,4-Dichloro-1-(trifluoromethyl)benzene;1-(Trifluoromethyl)-3,4-dichlorobenzene;4-(Trifluoromethyl)-1,2-dichlorobenzene;Oxsol 1000",
    "duplicated_cas_no": "",
    "SMILES": "C(F)(F)(F)C1=CC(Cl)=C(Cl)C=C1",
    "meta_data": {
        "InChI": "InChI=1S/C7H3Cl2F3/c8-5-2-1-4(3-6(5)9)7(10,11)12/h1-3H",
        "InChIKey": null,
        "Canonical SMILES": "FC(F)(F)C1=CC=C(Cl)C(Cl)=C1",
        "Molecular Formula": "C<sub>7</sub>H<sub>3</sub>Cl<sub>2</sub>F<sub>3</sub>",
        "Molecular Mass": "215.00",
        "Boiling Point": "173-174 °C",
        "Melting Point": "-13--12 °C",
        "Density": "1.478 g/cm³"
    }
}