{
    "cas_no": "1115-11-3",
    "key_name": "2-Methyl-2-butenal",
    "cn_name": null,
    "alternate_name": "2-Butenal, 2-methyl-;Crotonaldehyde, 2-methyl-;2-Methyl-2-butenal;2,3-Dimethylacrolein;2-Methylcrotonaldehyde;2-Methyl-2-buten-1-al;α-Methylcrotonaldehyde;α,β-Dimethylacrolein",
    "duplicated_cas_no": "",
    "SMILES": "C(=CC)(C=O)C",
    "meta_data": {
        "InChI": "InChI=1S/C5H8O/c1-3-5(2)4-6/h3-4H,1-2H3",
        "InChIKey": null,
        "Canonical SMILES": "O=CC(=CC)C",
        "Molecular Formula": "C<sub>5</sub>H<sub>8</sub>O",
        "Molecular Mass": "84.12",
        "Boiling Point": "117 °C",
        "Melting Point": "39-40 °C",
        "Density": "0.8583 g/cm³ @ Temp: 20 °C"
    }
}