{
    "cas_no": "3773-14-6",
    "key_name": "2,4,5-Trichlorobenzenethiol",
    "cn_name": "2,4,5-三氯苯硫醇;",
    "alternate_name": "Benzenethiol, 2,4,5-trichloro-;2,4,5-Trichlorobenzenethiol;Renacite II;2,4,5-Trichlorothiophenol;2,4,5-Trichlorophenylmercaptan;NSC 41933;2,4,5-Trichlorobenzene-1-thiol",
    "duplicated_cas_no": "",
    "SMILES": "ClC1=C(Cl)C=C(S)C(Cl)=C1",
    "meta_data": {
        "InChI": "InChI=1S/C6H3Cl3S/c7-3-1-5(9)6(10)2-4(3)8/h1-2,10H",
        "InChIKey": null,
        "Canonical SMILES": "ClC=1C=C(Cl)C(S)=CC1Cl",
        "Molecular Formula": "C<sub>6</sub>H<sub>3</sub>Cl<sub>3</sub>S",
        "Molecular Mass": "213.51",
        "Boiling Point": "140-141 °C @ Press: 13 Torr",
        "Melting Point": "118-120 °C"
    }
}