{
    "cas_no": "2628-17-3",
    "key_name": "4-Vinylphenol",
    "cn_name": "4-羟基苯乙烯;4-乙烯苯酚;4-乙烯基苯酚;",
    "alternate_name": "Phenol, 4-ethenyl-;Phenol, <em>p</em>-vinyl-;4-Ethenylphenol;4-Hydroxystyrene;<em>p</em>-Hydroxystyrene;<em>p</em>-Vinylphenol;4-Vinylphenol",
    "duplicated_cas_no": "",
    "SMILES": "C(=C)C1=CC=C(O)C=C1",
    "meta_data": {
        "InChI": "InChI=1S/C8H8O/c1-2-7-3-5-8(9)6-4-7/h2-6,9H,1H2",
        "InChIKey": null,
        "Canonical SMILES": "OC1=CC=C(C=C)C=C1",
        "Molecular Formula": "C<sub>8</sub>H<sub>8</sub>O",
        "Molecular Mass": "120.15",
        "Boiling Point": "145-152 °C @ Press: 20 Torr",
        "Melting Point": "73.5 °C"
    }
}