{
    "cas_no": "106-23-0",
    "key_name": "Citronellal",
    "cn_name": "香茅醛;",
    "alternate_name": "6-Octenal, 3,7-dimethyl-;3,7-Dimethyl-6-octenal;Citronellal;3,7-Dimethyloct-6-en-1-al;Rhodinal;β-Citronellal;2,3-Dihydrocitral;<em>dl</em>-Citronellal;(±)-Citronellal;NSC 46106;<em>rac</em>-Citronellal;Rac-citronellal",
    "duplicated_cas_no": "26489-02-1",
    "SMILES": "C(CCC=C(C)C)(CC=O)C",
    "meta_data": {
        "InChI": "InChI=1S/C10H18O/c1-9(2)5-4-6-10(3)7-8-11/h5,8,10H,4,6-7H2,1-3H3",
        "InChIKey": null,
        "Canonical SMILES": "O=CCC(C)CCC=C(C)C",
        "Molecular Formula": "C<sub>10</sub>H<sub>18</sub>O",
        "Molecular Mass": "154.25",
        "Boiling Point": "86-89 °C @ Press: 12 Torr",
        "Melting Point": "76-77 °C",
        "Density": "0.8573 g/cm³ @ Temp: 20 °C"
    }
}