{
    "cas_no": "67-72-1",
    "key_name": "Hexachloroethane",
    "cn_name": "六氯乙烷;",
    "alternate_name": "Ethane, 1,1,1,2,2,2-hexachloro-;Ethane, hexachloro-;1,1,1,2,2,2-Hexachloroethane;Avlothane;Ethane hexachloride;Hexachloroethane;Perchloroethane;Phenohep;Hexachlorethane;Hexachloroethylene;Fasciolin;Egitol;Mottenhexe;Falkitol;Distokal;Distopan;Distopin;Fron 110;NSC 9224",
    "duplicated_cas_no": "",
    "SMILES": "C(C(Cl)(Cl)Cl)(Cl)(Cl)Cl",
    "meta_data": {
        "InChI": "InChI=1S/C2Cl6/c3-1(4,5)2(6,7)8",
        "InChIKey": null,
        "Canonical SMILES": "ClC(Cl)(Cl)C(Cl)(Cl)Cl",
        "Molecular Formula": "C<sub>2</sub>Cl<sub>6</sub>",
        "Molecular Mass": "236.74",
        "Boiling Point": "185 °C",
        "Melting Point": "183-185 °C (sublm)",
        "Density": "2.091 g/cm³ @ Temp: 20 °C"
    }
}