{
    "cas_no": "3417-91-2",
    "key_name": "<span class=\"text-smallcaps\">L</span>-Tyrosine, methyl ester, hydrochloride",
    "cn_name": "L-酪氨酸甲酯盐酸盐;",
    "alternate_name": "<span class=\"text-smallcaps\">L</span>-Tyrosine, methyl ester, hydrochloride (1:1);Tyrosine, methyl ester, hydrochloride, <span class=\"text-smallcaps\">L</span>-;<span class=\"text-smallcaps\">L</span>-Tyrosine, methyl ester, hydrochloride;Methyl <span class=\"text-smallcaps\">L</span>-tyrosinate hydrochloride;Tyrosine methyl ester hydrochloride;Methyl tyrosinate hydrochloride;(<em>S</em>)-Tyrosine methyl ester hydrochloride;NSC 65609;(2<em>S</em>)-Methyl 2-ammonio-3-(4-hydroxyphenyl)propionate chloride;H-<span class=\"text-smallcaps\">L</span>-Tyr-OMe hydrochloride",
    "duplicated_cas_no": "3116-89-0;98532-04-8;2377808-89-2;2909532-99-4;2909533-59-9",
    "SMILES": "C([C@@H](C(OC)=O)N)C1=CC=C(O)C=C1.Cl",
    "meta_data": {
        "InChI": "InChI=1S/C10H13NO3.ClH/c1-14-10(13)9(11)6-7-2-4-8(12)5-3-7;/h2-5,9,12H,6,11H2,1H3;1H/t9-;/m0./s1",
        "InChIKey": null,
        "Canonical SMILES": "Cl.O=C(OC)C(N)CC1=CC=C(O)C=C1",
        "Molecular Formula": "C<sub>10</sub>H<sub>13</sub>NO<sub>3</sub>.ClH",
        "Molecular Mass": "",
        "Melting Point": "190 °C"
    }
}