{
    "cas_no": "10233-13-3",
    "key_name": "Isopropyl laurate",
    "cn_name": "十二酸-1-甲基乙基酯;十二酸-1-甲基乙基酯;月桂酸异丙酯;",
    "alternate_name": "Dodecanoic acid, 1-methylethyl ester;Lauric acid, isopropyl ester;Emcol-IL;Isopropyl laurate;Isopropyl dodecanoate;Dodecanoic acid isopropyl ester;1-Methylethyl dodecanoate;Loxanol MI 6460",
    "duplicated_cas_no": "",
    "SMILES": "C(CCCCCCCCCC)C(OC(C)C)=O",
    "meta_data": {
        "InChI": "InChI=1S/C15H30O2/c1-4-5-6-7-8-9-10-11-12-13-15(16)17-14(2)3/h14H,4-13H2,1-3H3",
        "InChIKey": null,
        "Canonical SMILES": "O=C(OC(C)C)CCCCCCCCCCC",
        "Molecular Formula": "C<sub>15</sub>H<sub>30</sub>O<sub>2</sub>",
        "Molecular Mass": "242.40",
        "Boiling Point": "91 °C @ Press: 0.12 Torr"
    }
}