{
    "cas_no": "4411-80-7",
    "key_name": "6,6′-Dimethyl-2,2′-bipyridine",
    "cn_name": "6,6\"-二甲基-2,2\"-联吡啶;",
    "alternate_name": "2,2′-Bipyridine, 6,6′-dimethyl-;6,6′-Bi-2-picoline;6,6′-Dimethyl-2,2′-bipyridine;6,6′-Dimethyl-2,2′-bipyridyl;6,6′-Dimethyl-2,2′-dipyridyl;NSC 4705;2-Methyl-6-(6-methylpyridin-2-yl)pyridine",
    "duplicated_cas_no": "",
    "SMILES": "CC1=NC(=CC=C1)C=2N=C(C)C=CC2",
    "meta_data": {
        "InChI": "InChI=1S/C12H12N2/c1-9-5-3-7-11(13-9)12-8-4-6-10(2)14-12/h3-8H,1-2H3",
        "InChIKey": null,
        "Canonical SMILES": "N=1C(=CC=CC1C)C=2N=C(C=CC2)C",
        "Molecular Formula": "C<sub>12</sub>H<sub>12</sub>N<sub>2</sub>",
        "Molecular Mass": "184.24",
        "Boiling Point": "105-106 °C @ Press: 2 Torr",
        "Melting Point": "89.5-90.5 °C"
    }
}