{
    "cas_no": "64-67-5",
    "key_name": "Diethyl sulfate",
    "cn_name": "硫酸二乙酯;",
    "alternate_name": "Sulfuric acid, diethyl ester;Ethyl sulfate (Et<sub>2</sub>SO<sub>4</sub>);Diethyl sulphate;Diethyl sulfate;Ethyl sulfate;DES;NSC 56380",
    "duplicated_cas_no": "98503-29-8;182115-04-4",
    "SMILES": "S(OCC)(OCC)(=O)=O",
    "meta_data": {
        "InChI": "InChI=1S/C4H10O4S/c1-3-7-9(5,6)8-4-2/h3-4H2,1-2H3",
        "InChIKey": null,
        "Canonical SMILES": "O=S(=O)(OCC)OCC",
        "Molecular Formula": "C<sub>4</sub>H<sub>10</sub>O<sub>4</sub>S",
        "Molecular Mass": "154.18",
        "Boiling Point": "208 °C",
        "Melting Point": "-25 °C",
        "Density": "1.172 g/cm³ @ Temp: 25 °C"
    }
}