{
    "cas_no": "332-77-4",
    "key_name": "2,5-Dimethoxy-2,5-dihydrofuran",
    "cn_name": "2,5-二甲氧基-2,5-二氢呋喃;二甲氧基二氢呋喃;",
    "alternate_name": "Furan, 2,5-dihydro-2,5-dimethoxy-;2,5-Dihydro-2,5-dimethoxyfuran;2,5-Dimethoxy-2,5-dihydrofuran;NSC 43243",
    "duplicated_cas_no": "",
    "SMILES": "O(C)C1OC(OC)C=C1",
    "meta_data": {
        "InChI": "InChI=1S/C6H10O3/c1-7-5-3-4-6(8-2)9-5/h3-6H,1-2H3",
        "InChIKey": null,
        "Canonical SMILES": "O(C)C1OC(OC)C=C1",
        "Molecular Formula": "C<sub>6</sub>H<sub>10</sub>O<sub>3</sub>",
        "Molecular Mass": "130.14",
        "Boiling Point": "161 °C",
        "Density": "1.073 g/cm³ @ Temp: 20 °C"
    }
}