{
    "cas_no": "19063-55-9",
    "key_name": "6-Bromo-2<em>H</em>-1-benzopyran-2-one",
    "cn_name": null,
    "alternate_name": "2<em>H</em>-1-Benzopyran-2-one, 6-bromo-;Coumarin, 6-bromo-;6-Bromo-2<em>H</em>-1-benzopyran-2-one;6-Bromocoumarin;NSC 146624;6-Bromochromene-2-one",
    "duplicated_cas_no": "",
    "SMILES": "BrC=1C=C2C(OC(=O)C=C2)=CC1",
    "meta_data": {
        "InChI": "InChI=1S/C9H5BrO2/c10-7-2-3-8-6(5-7)1-4-9(11)12-8/h1-5H",
        "InChIKey": null,
        "Canonical SMILES": "O=C1OC=2C=CC(Br)=CC2C=C1",
        "Molecular Formula": "C<sub>9</sub>H<sub>5</sub>BrO<sub>2</sub>",
        "Molecular Mass": "225.04",
        "Melting Point": "164 °C"
    }
}