{
    "cas_no": "348-26-5",
    "key_name": "5-Fluoro-1<em>H</em>-indazole",
    "cn_name": "5-氟-1H-吲唑;5-氟-1H-吲唑;",
    "alternate_name": "1<em>H</em>-Indazole, 5-fluoro-;5-Fluoro-1<em>H</em>-indazole",
    "duplicated_cas_no": "",
    "SMILES": "FC=1C=C2C(=CC1)NN=C2",
    "meta_data": {
        "InChI": "InChI=1S/C7H5FN2/c8-6-1-2-7-5(3-6)4-9-10-7/h1-4H,(H,9,10)",
        "InChIKey": null,
        "Canonical SMILES": "FC=1C=CC=2NN=CC2C1",
        "Molecular Formula": "C<sub>7</sub>H<sub>5</sub>FN<sub>2</sub>",
        "Molecular Mass": "136.13",
        "Melting Point": "121 °C (decomp)"
    }
}