{
    "cas_no": "459-72-3",
    "key_name": "Ethyl fluoroacetate",
    "cn_name": "氟乙酸乙酯;",
    "alternate_name": "Acetic acid, 2-fluoro-, ethyl ester;Acetic acid, fluoro-, ethyl ester;Ethyl fluoroacetate;Ethyl monofluoroacetate;Monofluoroacetic acid ethyl ester;NSC 133459;Fluoroacetic acid ethyl ester;Ethyl 2-fluoroacetate",
    "duplicated_cas_no": "",
    "SMILES": "C(OCC)(CF)=O",
    "meta_data": {
        "InChI": "InChI=1S/C4H7FO2/c1-2-7-4(6)3-5/h2-3H2,1H3",
        "InChIKey": null,
        "Canonical SMILES": "O=C(OCC)CF",
        "Molecular Formula": "C<sub>4</sub>H<sub>7</sub>FO<sub>2</sub>",
        "Molecular Mass": "106.10",
        "Boiling Point": "121.6 °C @ Press: 758 Torr",
        "Density": "1.0926 g/cm³ @ Temp: 20.5 °C"
    }
}