{
    "cas_no": "19832-87-2",
    "key_name": "2-Chloro-5-methyl-1,4-benzoquinone",
    "cn_name": "2-氯-5-甲基-1,4-苯醌;",
    "alternate_name": "2,5-Cyclohexadiene-1,4-dione, 2-chloro-5-methyl-;<em>p</em>-Benzoquinone, 2-chloro-5-methyl-;2-Chloro-5-methyl-2,5-cyclohexadiene-1,4-dione;5-Chloro-2-methyl-1,4-benzoquinone;2-Chloro-5-methyl-<em>p</em>-benzoquinone;2-Chloro-5-methyl-1,4-benzoquinone",
    "duplicated_cas_no": "",
    "SMILES": "CC=1C(=O)C=C(Cl)C(=O)C1",
    "meta_data": {
        "InChI": "InChI=1S/C7H5ClO2/c1-4-2-7(10)5(8)3-6(4)9/h2-3H,1H3",
        "InChIKey": null,
        "Canonical SMILES": "O=C1C=C(C(=O)C=C1Cl)C",
        "Molecular Formula": "C<sub>7</sub>H<sub>5</sub>ClO<sub>2</sub>",
        "Molecular Mass": "156.57",
        "Melting Point": "103.7-104.8 °C"
    }
}