{
    "cas_no": "117621-64-4",
    "key_name": "<em>rel</em>-(4<em>Z</em>)-6-[(2<em>R</em>,4<em>R</em>,5<em>S</em>)-2-(2-Chlorophenyl)-4-(2-hydroxyphenyl)-1,3-dioxan-5-yl]-4-hexenoic acid",
    "cn_name": null,
    "alternate_name": "4-Hexenoic acid, 6-[(2<em>R</em>,4<em>R</em>,5<em>S</em>)-2-(2-chlorophenyl)-4-(2-hydroxyphenyl)-1,3-dioxan-5-yl]-, (4<em>Z</em>)-<em>rel</em>-;4-Hexenoic acid, 6-[2-(2-chlorophenyl)-4-(2-hydroxyphenyl)-1,3-dioxan-5-yl]-, [2α,4α,5α(<em>Z</em>)]-;<em>rel</em>-(4<em>Z</em>)-6-[(2<em>R</em>,4<em>R</em>,5<em>S</em>)-2-(2-Chlorophenyl)-4-(2-hydroxyphenyl)-1,3-dioxan-5-yl]-4-hexenoic acid;ICI 192605;ICI 191606",
    "duplicated_cas_no": "106427-72-9",
    "SMILES": "C(/C=C\\CCC(O)=O)[C@@H]1[C@@H](O[C@@H](OC1)C2=C(Cl)C=CC=C2)C3=C(O)C=CC=C3",
    "meta_data": {
        "InChI": "InChI=1/C22H23ClO5/c23-18-11-6-4-9-16(18)22-27-14-15(8-2-1-3-13-20(25)26)21(28-22)17-10-5-7-12-19(17)24/h1-2,4-7,9-12,15,21-22,24H,3,8,13-14H2,(H,25,26)/b2-1-/t15-,21+,22+/s2",
        "InChIKey": null,
        "Canonical SMILES": "O=C(O)CCC=CCC1COC(OC1C=2C=CC=CC2O)C=3C=CC=CC3Cl",
        "Molecular Formula": "C<sub>22</sub>H<sub>23</sub>ClO<sub>5</sub>",
        "Molecular Mass": "402.87",
        "Melting Point": "124-126 °C"
    }
}