{
    "cas_no": "557-91-5",
    "key_name": "1,1-Dibromoethane",
    "cn_name": "1,1-二溴乙醇;",
    "alternate_name": "Ethane, 1,1-dibromo-;1,1-Dibromoethane;Ethylidene dibromide",
    "duplicated_cas_no": "",
    "SMILES": "C(Br)(Br)C",
    "meta_data": {
        "InChI": "InChI=1S/C2H4Br2/c1-2(3)4/h2H,1H3",
        "InChIKey": null,
        "Canonical SMILES": "BrC(Br)C",
        "Molecular Formula": "C<sub>2</sub>H<sub>4</sub>Br<sub>2</sub>",
        "Molecular Mass": "187.86",
        "Boiling Point": "109 °C",
        "Melting Point": "-63 °C",
        "Density": "2.104 g/cm³ @ Temp: 20 °C"
    }
}