{
    "cas_no": "7197-96-8",
    "key_name": "6,7,8,9-Tetrahydro-5<em>H</em>-cyclohepta[<em>b</em>]pyridine",
    "cn_name": "2,3-环庚烯并吡啶;",
    "alternate_name": "5<em>H</em>-Cyclohepta[<em>b</em>]pyridine, 6,7,8,9-tetrahydro-;6,7,8,9-Tetrahydro-5<em>H</em>-cyclohepta[<em>b</em>]pyridine;2,3-Cycloheptenopyridine",
    "duplicated_cas_no": "",
    "SMILES": "C=12C(=NC=CC1)CCCCC2",
    "meta_data": {
        "InChI": "InChI=1S/C10H13N/c1-2-5-9-6-4-8-11-10(9)7-3-1/h4,6,8H,1-3,5,7H2",
        "InChIKey": null,
        "Canonical SMILES": "N=1C=CC=C2C1CCCCC2",
        "Molecular Formula": "C<sub>10</sub>H<sub>13</sub>N",
        "Molecular Mass": "147.22",
        "Boiling Point": "238 °C",
        "Density": "1.013 g/cm³ @ Temp: 20 °C"
    }
}