{
    "cas_no": "13020-57-0",
    "key_name": "3-Hydroxybenzophenone",
    "cn_name": "3-羟基苯甲酮;羟基二苯甲酮;",
    "alternate_name": "Methanone, (3-hydroxyphenyl)phenyl-;Benzophenone, 3-hydroxy-;(3-Hydroxyphenyl)phenylmethanone;<em>m</em>-Hydroxybenzophenone;3-Hydroxybenzophenone;3-Benzoylphenol",
    "duplicated_cas_no": "",
    "SMILES": "C(=O)(C1=CC(O)=CC=C1)C2=CC=CC=C2",
    "meta_data": {
        "InChI": "InChI=1S/C13H10O2/c14-12-8-4-7-11(9-12)13(15)10-5-2-1-3-6-10/h1-9,14H",
        "InChIKey": null,
        "Canonical SMILES": "O=C(C=1C=CC=CC1)C=2C=CC=C(O)C2",
        "Molecular Formula": "C<sub>13</sub>H<sub>10</sub>O<sub>2</sub>",
        "Molecular Mass": "198.22",
        "Melting Point": "115 °C"
    }
}