{
    "cas_no": "35457-80-8",
    "key_name": "Midecamycin A<sub>1</sub>",
    "cn_name": "麦迪霉素;麦迪霉素;",
    "alternate_name": "Leucomycin V, 3,4<sup>B</sup>-dipropanoate;Oxacyclohexadecane, leucomycin V deriv.;Antibiotic SF 837;SF 837;Mydecamycin;YL 704B<sub>1</sub>;Midecamycin;Medemycin;Antibiotic YL 704B<sub>1</sub>;Turimycin P<sub>3</sub>;Antibiotic SF 837A<sub>1</sub>;Midecamycin A<sub>1</sub>;Platenomycin B<sub>1</sub>;Medecamycin A<sub>1</sub>;SF 837A<sub>1</sub>;Medemycin A<sub>1</sub>;Mydecamycin A<sub>1</sub>;Espinomycin A;Aboren;Midecin;Myoxam;Normicina;Rubimycin;Momicine;NSC 154011;Macropen",
    "duplicated_cas_no": "11076-75-8;11091-49-9;39464-24-9",
    "SMILES": "",
    "meta_data": {
        "InChI": "",
        "InChIKey": null,
        "Canonical SMILES": "",
        "Molecular Formula": "C<sub>41</sub>H<sub>67</sub>NO<sub>15</sub>",
        "Molecular Mass": "813.97",
        "Melting Point": "155-156 °C"
    }
}