{
    "cas_no": "76-01-7",
    "key_name": "Pentachloroethane",
    "cn_name": null,
    "alternate_name": "Ethane, 1,1,1,2,2-pentachloro-;Ethane, pentachloro-;1,1,1,2,2-Pentachloroethane;Pentachloroethane;Pentalin;HCC 120",
    "duplicated_cas_no": "",
    "SMILES": "C(C(Cl)Cl)(Cl)(Cl)Cl",
    "meta_data": {
        "InChI": "InChI=1S/C2HCl5/c3-1(4)2(5,6)7/h1H",
        "InChIKey": null,
        "Canonical SMILES": "ClC(Cl)C(Cl)(Cl)Cl",
        "Molecular Formula": "C<sub>2</sub>HCl<sub>5</sub>",
        "Molecular Mass": "202.29",
        "Boiling Point": "159.8 °C",
        "Melting Point": "-29 °C",
        "Density": "1.6796 g/cm³ @ Temp: 20 °C"
    }
}