{
    "cas_no": "1416881-53-2",
    "key_name": "2,3,5,6-Tetra-9<em>H</em>-carbazol-9-yl-1,4-benzenedicarbonitrile",
    "cn_name": null,
    "alternate_name": "1,4-Benzenedicarbonitrile, 2,3,5,6-tetra-9<em>H</em>-carbazol-9-yl-;2,3,5,6-Tetra-9<em>H</em>-carbazol-9-yl-1,4-benzenedicarbonitrile;1,2,4,5-Tetrakis(carbazol-9-yl)-3,6-dicyanobenzene;2,3,5,6-Tetrakis(carbazol-9-yl)-1,4-dicyanobenzene;4CzTPN;2,3,5,6-Tetra(9<em>H</em>-carbazol-9-yl)terephthalonitrile;2,3,5,6-Tetra(carbazol-9-yl)terephthalonitrile",
    "duplicated_cas_no": "",
    "SMILES": "C(#N)C=1C(=C(C(C#N)=C(C1N2C=3C(C=4C2=CC=CC4)=CC=CC3)N5C=6C(C=7C5=CC=CC7)=CC=CC6)N8C=9C(C=%10C8=CC=CC%10)=CC=CC9)N%11C=%12C(C=%13C%11=CC=CC%13)=CC=CC%12",
    "meta_data": {
        "InChI": "InChI=1S/C56H32N6/c57-33-43-53(59-45-25-9-1-17-35(45)36-18-2-10-26-46(36)59)54(60-47-27-11-3-19-37(47)38-20-4-12-28-48(38)60)44(34-58)56(62-51-31-15-7-23-41(51)42-24-8-16-32-52(42)62)55(43)61-49-29-13-5-21-39(49)40-22-6-14-30-50(40)61/h1-32H",
        "InChIKey": null,
        "Canonical SMILES": "N#CC=1C(=C(C(C#N)=C(C1N2C=3C=CC=CC3C=4C=CC=CC42)N5C=6C=CC=CC6C=7C=CC=CC75)N8C=9C=CC=CC9C=%10C=CC=CC%108)N%11C=%12C=CC=CC%12C=%13C=CC=CC%13%11",
        "Molecular Formula": "C<sub>56</sub>H<sub>32</sub>N<sub>6</sub>",
        "Molecular Mass": "788.89",
        "Melting Point": "&gt;360 °C"
    }
}