{
    "cas_no": "68-23-5",
    "key_name": "Norethynodrel",
    "cn_name": null,
    "alternate_name": "19-Norpregn-5(10)-en-20-yn-3-one, 17-hydroxy-, (17α)-;19-Nor-17α-pregn-5(10)-en-20-yn-3-one, 17-hydroxy-;(17α)-17-Hydroxy-19-norpregn-5(10)-en-20-yn-3-one;17α-Ethinyl-17β-hydroxy-Δ<sup>5</sup>(<sup>10</sup>)-estren-3-one;17α-Ethynylestr-5(10)-ene-17β-ol-3-one;17α-Ethynyl-17-hydroxy-5(10)-estren-3-one;17α-Ethynyl-17β-hydroxy-Δ<sup>5(10)</sup>-estren-3-one;3-Oxo-17β-hydroxy-17α-ethynyl-5(10)-estrene;17-Hydroxy-19-nor-17α-pregn-5(10)-en-20-yn-3-one;17α-Ethynylestra-5(10)-ene-17β-ol-3-one;Norethynodrel;17β-Hydroxy-19-nor-17α-pregn-5(10)-en-20-yn-3-one;Norethinodrel;13-Methyl-17-ethynyl-17-hydroxy-1,2,3,4,6,7,8,9,11,12,13,14,16,17-tetradecahydro-15<em>H</em>-cyclopenta[<em>a</em>]phenanthren-3-one;Enidrel;17α-Ethynyl-17β-hydroxy-5(10)-estrene-3-one;Noretynodrel;SC 4642;NSC 15432;MeSH ID: D009641",
    "duplicated_cas_no": "",
    "SMILES": "C[C@@]12[C@]([C@]3([C@](CC1)(C4=C(CC3)CC(=O)CC4)[H])[H])(CC[C@]2(C#C)O)[H]",
    "meta_data": {
        "InChI": "InChI=1S/C20H26O2/c1-3-20(22)11-9-18-17-6-4-13-12-14(21)5-7-15(13)16(17)8-10-19(18,20)2/h1,16-18,22H,4-12H2,2H3/t16-,17-,18+,19+,20+/m1/s1",
        "InChIKey": null,
        "Canonical SMILES": "O=C1CC2=C(CC1)C3CCC4(C)C(CCC4(O)C#C)C3CC2",
        "Molecular Formula": "C<sub>20</sub>H<sub>26</sub>O<sub>2</sub>",
        "Molecular Mass": "298.42",
        "Melting Point": "169-170 °C"
    }
}