{
    "cas_no": "937-39-3",
    "key_name": "(2-Phenylacetyl)hydrazine",
    "cn_name": "苯乙酰肼;",
    "alternate_name": "Benzeneacetic acid, hydrazide;Acetic acid, phenyl-, hydrazide;Phenylacetic acid hydrazide;(2-Phenylacetyl)hydrazine;Phenacetic acid hydrazide;Phenylacetylhydrazine;Phenylacetyl hydrazide;Phenylacetic hydrazide;Phenyl acetohydrazide;2-Phenylacetohydrazide;NSC 151437;INHd 30;2-Phenylacetic hydrazide",
    "duplicated_cas_no": "43183-99-9",
    "SMILES": "C(C(NN)=O)C1=CC=CC=C1",
    "meta_data": {
        "InChI": "InChI=1S/C8H10N2O/c9-10-8(11)6-7-4-2-1-3-5-7/h1-5H,6,9H2,(H,10,11)",
        "InChIKey": null,
        "Canonical SMILES": "O=C(NN)CC=1C=CC=CC1",
        "Molecular Formula": "C<sub>8</sub>H<sub>10</sub>N<sub>2</sub>O",
        "Molecular Mass": "150.18",
        "Melting Point": "116-117 °C"
    }
}