{
    "cas_no": "67914-61-8",
    "key_name": "Deacetylketoconazole",
    "cn_name": null,
    "alternate_name": "Piperazine, 1-[4-[[(2<em>R</em>,4<em>S</em>)-2-(2,4-dichlorophenyl)-2-(1<em>H</em>-imidazol-1-ylmethyl)-1,3-dioxolan-4-yl]methoxy]phenyl]-, <em>rel</em>-;Piperazine, 1-[4-[[2-(2,4-dichlorophenyl)-2-(1<em>H</em>-imidazol-1-ylmethyl)-1,3-dioxolan-4-yl]methoxy]phenyl]-, <em>cis</em>-;<em>rel</em>-1-[4-[[(2<em>R</em>,4<em>S</em>)-2-(2,4-Dichlorophenyl)-2-(1<em>H</em>-imidazol-1-ylmethyl)-1,3-dioxolan-4-yl]methoxy]phenyl]piperazine;Deacylketoconazole;R 39519;Deacetylketoconazole;<em>N</em>-Deacetylketoconazole",
    "duplicated_cas_no": "75052-06-1;581806-67-9",
    "SMILES": "C([C@]1(O[C@@H](COC2=CC=C(C=C2)N3CCNCC3)CO1)C4=C(Cl)C=C(Cl)C=C4)N5C=CN=C5",
    "meta_data": {
        "InChI": "InChI=1/C24H26Cl2N4O3/c25-18-1-6-22(23(26)13-18)24(16-29-10-7-28-17-29)32-15-21(33-24)14-31-20-4-2-19(3-5-20)30-11-8-27-9-12-30/h1-7,10,13,17,21,27H,8-9,11-12,14-16H2/t21-,24-/s2",
        "InChIKey": null,
        "Canonical SMILES": "ClC1=CC=C(C(Cl)=C1)C2(OCC(O2)COC3=CC=C(C=C3)N4CCNCC4)CN5C=NC=C5",
        "Molecular Formula": "C<sub>24</sub>H<sub>26</sub>Cl<sub>2</sub>N<sub>4</sub>O<sub>3</sub>",
        "Molecular Mass": "489.39",
        "Melting Point": "173 °C"
    }
}