{
    "cas_no": "111-27-3",
    "key_name": "1-Hexanol",
    "cn_name": "正己醇;",
    "alternate_name": "1-Hexanol;Hexyl alcohol;Amylcarbinol;Caproyl alcohol;<em>n</em>-Hexanol;1-Hydroxyhexane;<em>n</em>-Hexyl alcohol;Pentylcarbinol;1-Hexyl alcohol;Hexanol;<em>n</em>-Hexan-1-ol;Epal 6;NSC 9254;Kalcohl 0698;Hexan-1-ol",
    "duplicated_cas_no": "220713-27-9",
    "SMILES": "C(CCC)CCO",
    "meta_data": {
        "InChI": "InChI=1S/C6H14O/c1-2-3-4-5-6-7/h7H,2-6H2,1H3",
        "InChIKey": null,
        "Canonical SMILES": "OCCCCCC",
        "Molecular Formula": "C<sub>6</sub>H<sub>14</sub>O",
        "Molecular Mass": "102.17",
        "Boiling Point": "157 °C @ Press: 760 Torr",
        "Melting Point": "-44.6 °C",
        "Density": "0.8153 g/cm³ @ Temp: 25 °C"
    }
}