{
    "cas_no": "13156-04-2",
    "key_name": "1-<em>tert</em>-Butyl-3-hydroxyazetidine",
    "cn_name": "N-叔丁基-3-羟基氮杂环丁烷;",
    "alternate_name": "3-Azetidinol, 1-(1,1-dimethylethyl)-;3-Azetidinol, 1-<em>tert</em>-butyl-;1-(1,1-Dimethylethyl)-3-azetidinol;1-<em>tert</em>-Butyl-3-azetidinol;<em>N</em>-<em>tert</em>-Butyl-3-azetidinol;1-<em>tert</em>-Butyl-3-hydroxyazetidine;NSC 148268",
    "duplicated_cas_no": "",
    "SMILES": "C(C)(C)(C)N1CC(O)C1",
    "meta_data": {
        "InChI": "InChI=1S/C7H15NO/c1-7(2,3)8-4-6(9)5-8/h6,9H,4-5H2,1-3H3",
        "InChIKey": null,
        "Canonical SMILES": "OC1CN(C1)C(C)(C)C",
        "Molecular Formula": "C<sub>7</sub>H<sub>15</sub>NO",
        "Molecular Mass": "129.20",
        "Melting Point": "45-46 °C"
    }
}