{
    "cas_no": "2708-77-2",
    "key_name": "4-Fluoroglutamic acid",
    "cn_name": "4-氟-DL-谷氨酸;",
    "alternate_name": "Glutamic acid, 4-fluoro-;4-Fluoroglutamic acid;<span class=\"text-smallcaps\">DL</span>-4-Fluoroglutamic acid;4-Fluoro-<span class=\"text-smallcaps\">D</smallcap>,<smallcap>L</span>-glutamic acid;2-Amino-4-fluoropentanedioic acid",
    "duplicated_cas_no": "18822-84-9",
    "SMILES": "C(CC(C(O)=O)N)(C(O)=O)F",
    "meta_data": {
        "InChI": "InChI=1S/C5H8FNO4/c6-2(4(8)9)1-3(7)5(10)11/h2-3H,1,7H2,(H,8,9)(H,10,11)",
        "InChIKey": null,
        "Canonical SMILES": "O=C(O)C(F)CC(N)C(=O)O",
        "Molecular Formula": "C<sub>5</sub>H<sub>8</sub>FNO<sub>4</sub>",
        "Molecular Mass": "165.12",
        "Melting Point": "185 °C (decomp)"
    }
}