{
    "cas_no": "20931-37-7",
    "key_name": "β-Mangostin",
    "cn_name": null,
    "alternate_name": "9<em>H</em>-Xanthen-9-one, 1,6-dihydroxy-3,7-dimethoxy-2,8-bis(3-methyl-2-buten-1-yl)-;Xanthen-9-one, 1,6-dihydroxy-3,7-dimethoxy-2,8-bis(3-methyl-2-butenyl)-;9<em>H</em>-Xanthen-9-one, 1,6-dihydroxy-3,7-dimethoxy-2,8-bis(3-methyl-2-butenyl)-;1,6-Dihydroxy-3,7-dimethoxy-2,8-bis(3-methyl-2-buten-1-yl)-9<em>H</em>-xanthen-9-one;β-Mangostin",
    "duplicated_cas_no": "",
    "SMILES": "C(C=C(C)C)C1=C2C(OC=3C(C2=O)=C(O)C(CC=C(C)C)=C(OC)C3)=CC(O)=C1OC",
    "meta_data": {
        "InChI": "InChI=1S/C25H28O6/c1-13(2)7-9-15-18(29-5)12-20-22(23(15)27)24(28)21-16(10-8-14(3)4)25(30-6)17(26)11-19(21)31-20/h7-8,11-12,26-27H,9-10H2,1-6H3",
        "InChIKey": null,
        "Canonical SMILES": "O=C1C=2C(O)=C(C(OC)=CC2OC3=CC(O)=C(OC)C(=C13)CC=C(C)C)CC=C(C)C",
        "Molecular Formula": "C<sub>25</sub>H<sub>28</sub>O<sub>6</sub>",
        "Molecular Mass": "424.49",
        "Melting Point": "175.5 °C"
    }
}