{
    "cas_no": "13961-37-0",
    "key_name": "2-Ethylpiperazine",
    "cn_name": "2-乙基哌嗪;",
    "alternate_name": "Piperazine, 2-ethyl-;2-Ethylpiperazine",
    "duplicated_cas_no": "",
    "SMILES": "C(C)C1CNCCN1",
    "meta_data": {
        "InChI": "InChI=1S/C6H14N2/c1-2-6-5-7-3-4-8-6/h6-8H,2-5H2,1H3",
        "InChIKey": null,
        "Canonical SMILES": "N1CCNC(C1)CC",
        "Molecular Formula": "C<sub>6</sub>H<sub>14</sub>N<sub>2</sub>",
        "Molecular Mass": "114.19",
        "Boiling Point": "178.0-181.0 °C"
    }
}