{
    "cas_no": "5875-41-2",
    "key_name": "γ-Glutamylalanine",
    "cn_name": "γ-L-谷氨酰-L-丙氨酸;",
    "alternate_name": "<span class=\"text-smallcaps\">L</smallcap>-Alanine, <smallcap>L</span>-γ-glutamyl-;Glutamine, <em>N</em>-(1-carboxyethyl)-, <span class=\"text-smallcaps\">L</span>-;<span class=\"text-smallcaps\">L</smallcap>-Alanine, <em>N</em>-<smallcap>L</span>-γ-glutamyl-;<span class=\"text-smallcaps\">L</smallcap>-γ-Glutamyl-<smallcap>L</span>-alanine;γ-Glutamylalanine;γ-<span class=\"text-smallcaps\">L</smallcap>-Glutamyl-<smallcap>L</span>-alanine;γ-Glu-Ala;2: PN: WO2011158590 PAGE: 34 claimed sequence;5: PN: CN107114752 PAGE: 2 claimed sequence",
    "duplicated_cas_no": "",
    "SMILES": "N(C(CC[C@@H](C(O)=O)N)=O)[C@H](C(O)=O)C",
    "meta_data": {
        "InChI": "InChI=1S/C8H14N2O5/c1-4(7(12)13)10-6(11)3-2-5(9)8(14)15/h4-5H,2-3,9H2,1H3,(H,10,11)(H,12,13)(H,14,15)/t4-,5-/m0/s1",
        "InChIKey": null,
        "Canonical SMILES": "O=C(O)C(N)CCC(=O)NC(C(=O)O)C",
        "Molecular Formula": "C<sub>8</sub>H<sub>14</sub>N<sub>2</sub>O<sub>5</sub>",
        "Molecular Mass": "218.21",
        "Melting Point": "185-187 °C"
    }
}