{
    "cas_no": "1934-71-0",
    "key_name": "Cyclohexanamine, 1-phenyl-, hydrochloride (1:1)",
    "cn_name": null,
    "alternate_name": "Cyclohexanamine, 1-phenyl-, hydrochloride (1:1);Cyclohexylamine, 1-phenyl-, hydrochloride;Cyclohexanamine, 1-phenyl-, hydrochloride;CI 401;1-Phenylcyclohexylamine hydrochloride;1-Amino-1-phenylcyclohexane hydrochloride;IEM 1921;1-Phenylcyclohexan-1-amine hydrochloride",
    "duplicated_cas_no": "",
    "SMILES": "NC1(CCCCC1)C2=CC=CC=C2.Cl",
    "meta_data": {
        "InChI": "InChI=1S/C12H17N.ClH/c13-12(9-5-2-6-10-12)11-7-3-1-4-8-11;/h1,3-4,7-8H,2,5-6,9-10,13H2;1H",
        "InChIKey": null,
        "Canonical SMILES": "Cl.NC1(C=2C=CC=CC2)CCCCC1",
        "Molecular Formula": "C<sub>12</sub>H<sub>17</sub>N.ClH",
        "Molecular Mass": "",
        "Melting Point": "247-248 °C"
    }
}