{
    "cas_no": "95337-70-5",
    "key_name": "4-(2,5-Dimethyl-1<em>H</em>-pyrrol-1-yl)benzaldehyde",
    "cn_name": null,
    "alternate_name": "Benzaldehyde, 4-(2,5-dimethyl-1<em>H</em>-pyrrol-1-yl)-;4-(2,5-Dimethyl-1<em>H</em>-pyrrol-1-yl)benzaldehyde;4-(2,5-Dimethylpyrrol-1-yl)benzaldehyde",
    "duplicated_cas_no": "",
    "SMILES": "CC=1N(C2=CC=C(C=O)C=C2)C(C)=CC1",
    "meta_data": {
        "InChI": "InChI=1S/C13H13NO/c1-10-3-4-11(2)14(10)13-7-5-12(9-15)6-8-13/h3-9H,1-2H3",
        "InChIKey": null,
        "Canonical SMILES": "O=CC1=CC=C(C=C1)N2C(=CC=C2C)C",
        "Molecular Formula": "C<sub>13</sub>H<sub>13</sub>NO",
        "Molecular Mass": "199.25",
        "Melting Point": "79-80.5 °C"
    }
}