{
    "cas_no": "75-50-3",
    "key_name": "Trimethylamine",
    "cn_name": "三甲胺;N,N-二甲基甲胺;三甲胺溶液;",
    "alternate_name": "Methanamine, <em>N</em>,<em>N</em>-dimethyl-;Trimethylamine;<em>N</em>,<em>N</em>-Dimethylmethanamine;<em>N</em>-Trimethylamine;<em>N</em>,<em>N</em>,<em>N</em>-Trimethylamine;TM-CP 350",
    "duplicated_cas_no": "4558-12-7",
    "SMILES": "N(C)(C)C",
    "meta_data": {
        "InChI": "InChI=1S/C3H9N/c1-4(2)3/h1-3H3",
        "InChIKey": null,
        "Canonical SMILES": "N(C)(C)C",
        "Molecular Formula": "C<sub>3</sub>H<sub>9</sub>N",
        "Molecular Mass": "59.11",
        "Boiling Point": "2.8 °C",
        "Melting Point": "-117.1 °C",
        "Density": "0.627 g/cm³ @ Temp: 25 °C"
    }
}