{
    "cas_no": "170230-88-3",
    "key_name": "3-Borono-4-methylbenzoic acid",
    "cn_name": null,
    "alternate_name": "Benzoic acid, 3-borono-4-methyl-;3-Borono-4-methylbenzoic acid",
    "duplicated_cas_no": "1346011-76-4",
    "SMILES": "B(O)(O)C1=CC(C(O)=O)=CC=C1C",
    "meta_data": {
        "InChI": "InChI=1S/C8H9BO4/c1-5-2-3-6(8(10)11)4-7(5)9(12)13/h2-4,12-13H,1H3,(H,10,11)",
        "InChIKey": null,
        "Canonical SMILES": "O=C(O)C1=CC=C(C(=C1)B(O)O)C",
        "Molecular Formula": "C<sub>8</sub>H<sub>9</sub>BO<sub>4</sub>",
        "Molecular Mass": "179.97",
        "Melting Point": "157-167 °C"
    }
}