{
    "cas_no": "3185-99-7",
    "key_name": "Methyl <em>p</em>-tolyl sulfone",
    "cn_name": "甲基对甲苯砜;对甲砜基甲苯;",
    "alternate_name": "Benzene, 1-methyl-4-(methylsulfonyl)-;Sulfone, methyl <em>p</em>-tolyl;1-Methyl-4-(methylsulfonyl)benzene;<em>p</em>-Tolyl methyl sulfone;Methyl <em>p</em>-tolyl sulfone;Methyl 4-methylphenyl sulfone;Methyl 4-tolyl sulfone;<em>p</em>-(Methylsulfonyl)toluene;(<em>p</em>-Tolylsulfonyl)methane;4-Methylsulfonyltoluene;Methyl <em>p</em>-methylphenyl sulfone;NSC 2722;NSC 29038;4-Methylphenyl methyl sulfone;1-(Methylsulfonyl)-4-methylbenzene;4-Methylsulfonyl-1-methylbenzene;4-(Methanesulfonyl)toluene;1-Methanesulfonyl-4-methylbenzene",
    "duplicated_cas_no": "",
    "SMILES": "S(C)(=O)(=O)C1=CC=C(C)C=C1",
    "meta_data": {
        "InChI": "InChI=1S/C8H10O2S/c1-7-3-5-8(6-4-7)11(2,9)10/h3-6H,1-2H3",
        "InChIKey": null,
        "Canonical SMILES": "O=S(=O)(C1=CC=C(C=C1)C)C",
        "Molecular Formula": "C<sub>8</sub>H<sub>10</sub>O<sub>2</sub>S",
        "Molecular Mass": "170.23",
        "Boiling Point": "90 °C",
        "Melting Point": "89 °C"
    }
}