{
    "cas_no": "59-92-7",
    "key_name": "DOPA",
    "cn_name": "左旋多巴;3-羟基-L-酪氨酸;",
    "alternate_name": "<span class=\"text-smallcaps\">L</span>-Tyrosine, 3-hydroxy-;Alanine, 3-(3,4-dihydroxyphenyl)-, <span class=\"text-smallcaps\">L</span>-;3-Hydroxy-<span class=\"text-smallcaps\">L</span>-tyrosine;DA;(-)-3,4-Dihydroxyphenylalanine;Levodopa;<span class=\"text-smallcaps\">L</span>-3,4-Dihydroxyphenylalanine;3,4-Dihydroxy-<span class=\"text-smallcaps\">L</span>-phenylalanine;<span class=\"text-smallcaps\">L</span>-DOPA;DOPA;<span class=\"text-smallcaps\">L</span>-β-(3,4-Dihydroxyphenyl)-α-alanine;<span class=\"text-smallcaps\">L</span>-(-)-Dopa;β-(3,4-Dihydroxyphenyl)-α-<span class=\"text-smallcaps\">L</span>-alanine;(-)-Dopa;3-(3,4-Dihydroxyphenyl)-<span class=\"text-smallcaps\">L</span>-alanine;β-(3,4-Dihydroxyphenyl)alanine;β-(3,4-Dihydroxyphenyl)-<span class=\"text-smallcaps\">L</span>-alanine;Dihydroxy-<span class=\"text-smallcaps\">L</span>-phenylalanine;Dopar;Levopa;Eldopal;Pardopa;Helfo-dopa;Insulamina;Larodopa;Dopalina;Dopaston;Dopaflex;3,4-Dihydroxyphenylalanine;3,4-Dihydroxyphenyl-<span class=\"text-smallcaps\">L</span>-alanine;<span class=\"text-smallcaps\">L</span>-3-(3,4-Dihydroxyphenyl)alanine;Dopaston SE;<span class=\"text-smallcaps\">L</span>-4,5-Dihydroxyphenylalanine;Dopicar;Dopastone;Dopal;Doparkine;Eurodopa;Dopaidan;Eldopatec;Parda;Eldopar;Dopasol;Laradopa;Weldopa;Doparl;Dopastral;Veldopa;Doprin;Ledopa;Deadopa;Maipedopa;Bendopa;Cidandopa;(2<em>S</em>)-2-Amino-3-(3,4-dihydroxyphenyl)propanoic acid;Syndopa;Alphadopa;Dihydroxyphenylalanine;(<em>S</em>)-3,4-Dihydroxyphenylalanine;3-Hydroxytyrosine;Brocadopa;(2S)-2-Amino-3-(3,4-dihydroxyphenyl)propanoic acid;Inbrija",
    "duplicated_cas_no": "23734-74-9;25525-15-9;34241-25-3;72572-99-7;72573-00-3;88250-23-1;90638-38-3",
    "SMILES": "C([C@@H](C(O)=O)N)C1=CC(O)=C(O)C=C1",
    "meta_data": {
        "InChI": "InChI=1S/C9H11NO4/c10-6(9(13)14)3-5-1-2-7(11)8(12)4-5/h1-2,4,6,11-12H,3,10H2,(H,13,14)/t6-/m0/s1",
        "InChIKey": null,
        "Canonical SMILES": "O=C(O)C(N)CC1=CC=C(O)C(O)=C1",
        "Molecular Formula": "C<sub>9</sub>H<sub>11</sub>NO<sub>4</sub>",
        "Molecular Mass": "197.19",
        "Melting Point": "284-286 °C",
        "Density": "1.51 g/cm³"
    }
}