{
    "cas_no": "98105-99-8",
    "key_name": "Sarafloxacin",
    "cn_name": "沙拉沙星;6-氟-1-(4-氟苯基)-1,4-二氢-4-氧代-7-(1-哌嗪基)-3-喹啉羧酸;",
    "alternate_name": "3-Quinolinecarboxylic acid, 6-fluoro-1-(4-fluorophenyl)-1,4-dihydro-4-oxo-7-(1-piperazinyl)-;6-Fluoro-1-(4-fluorophenyl)-1,4-dihydro-4-oxo-7-(1-piperazinyl)-3-quinolinecarboxylic acid;A 56620;Sarafloxacin;PD 121960",
    "duplicated_cas_no": "99331-54-1",
    "SMILES": "O=C1C=2C(N(C=C1C(O)=O)C3=CC=C(F)C=C3)=CC(=C(F)C2)N4CCNCC4",
    "meta_data": {
        "InChI": "InChI=1S/C20H17F2N3O3/c21-12-1-3-13(4-2-12)25-11-15(20(27)28)19(26)14-9-16(22)18(10-17(14)25)24-7-5-23-6-8-24/h1-4,9-11,23H,5-8H2,(H,27,28)",
        "InChIKey": null,
        "Canonical SMILES": "O=C(O)C1=CN(C2=CC=C(F)C=C2)C3=CC(=C(F)C=C3C1=O)N4CCNCC4",
        "Molecular Formula": "C<sub>20</sub>H<sub>17</sub>F<sub>2</sub>N<sub>3</sub>O<sub>3</sub>",
        "Molecular Mass": "385.36",
        "Melting Point": "282-285 °C"
    }
}