{
    "cas_no": "6294-70-8",
    "key_name": "5,6-Dimethyl-2-pyrazinamine",
    "cn_name": null,
    "alternate_name": "2-Pyrazinamine, 5,6-dimethyl-;Pyrazine, 5-amino-2,3-dimethyl-;Pyrazinamine, 5,6-dimethyl-;5,6-Dimethyl-2-pyrazinamine;6-Amino-2,3-dimethylpyrazine;2-Amino-5,6-dimethylpyrazine;NSC 9622",
    "duplicated_cas_no": "",
    "SMILES": "CC=1C(C)=NC=C(N)N1",
    "meta_data": {
        "InChI": "InChI=1S/C6H9N3/c1-4-5(2)9-6(7)3-8-4/h3H,1-2H3,(H2,7,9)",
        "InChIKey": null,
        "Canonical SMILES": "N=1C=C(N=C(C1C)C)N",
        "Molecular Formula": "C<sub>6</sub>H<sub>9</sub>N<sub>3</sub>",
        "Molecular Mass": "123.16",
        "Melting Point": "140-144 °C"
    }
}