{
    "cas_no": "1119-46-6",
    "key_name": "5-Chloropentanoic acid",
    "cn_name": "5-氯戊酸;5-氯正戊酸;",
    "alternate_name": "Pentanoic acid, 5-chloro-;Valeric acid, 5-chloro-;5-Chloropentanoic acid;5-Chlorovaleric acid;δ-Chlorovaleric acid;ω-Chloropentanoic acid;ω-Monochlorovaleric acid;δ-Chloropentanoic acid",
    "duplicated_cas_no": "",
    "SMILES": "C(CCCCl)C(O)=O",
    "meta_data": {
        "InChI": "InChI=1S/C5H9ClO2/c6-4-2-1-3-5(7)8/h1-4H2,(H,7,8)",
        "InChIKey": null,
        "Canonical SMILES": "O=C(O)CCCCCl",
        "Molecular Formula": "C<sub>5</sub>H<sub>9</sub>ClO<sub>2</sub>",
        "Molecular Mass": "136.58",
        "Boiling Point": "230 °C",
        "Melting Point": "18 °C",
        "Density": "1.1832 g/cm³ @ Temp: 20 °C"
    }
}