{
    "cas_no": "41667-95-2",
    "key_name": "5,6-Dichloronicotinic acid",
    "cn_name": "5,6-二氯烟酸;",
    "alternate_name": "3-Pyridinecarboxylic acid, 5,6-dichloro-;Nicotinic acid, 5,6-dichloro-;5,6-Dichloro-3-pyridinecarboxylic acid;5,6-Dichloronicotinic acid;5,6-Dichloropyridine-3-carboxylic acid;NSC 63885;2,3-Dichloropyridine-5-carboxylic acid",
    "duplicated_cas_no": "789475-38-3",
    "SMILES": "C(O)(=O)C=1C=C(Cl)C(Cl)=NC1",
    "meta_data": {
        "InChI": "InChI=1S/C6H3Cl2NO2/c7-4-1-3(6(10)11)2-9-5(4)8/h1-2H,(H,10,11)",
        "InChIKey": null,
        "Canonical SMILES": "O=C(O)C1=CN=C(Cl)C(Cl)=C1",
        "Molecular Formula": "C<sub>6</sub>H<sub>3</sub>Cl<sub>2</sub>NO<sub>2</sub>",
        "Molecular Mass": "192.00",
        "Melting Point": "&gt;300 °C (decomp)"
    }
}