{
    "cas_no": "880-52-4",
    "key_name": "1-Acetamidoadamantane",
    "cn_name": "乙酰金刚烷胺;",
    "alternate_name": "Acetamide, <em>N</em>-tricyclo[3.3.1.1<sup>3,7</sup>]dec-1-yl-;Acetamide, <em>N</em>-1-adamantyl-;<em>N</em>-Tricyclo[3.3.1.1<sup>3,7</sup>]dec-1-ylacetamide;<em>N</em>-1-Adamantylacetamide;1-Acetamidoadamantane;<em>N</em>-Adamantylacetamide;<em>N</em>-(Tricyclo[3.3.1.1<sup>3,7</sup>]dec-1-yl)acetamide;NSC 527917;<em>N</em>-Acetyl amantadine;<em>N</em>-(Adamantan-1-yl)acetamide",
    "duplicated_cas_no": "",
    "SMILES": "N(C(C)=O)C12CC3CC(C1)CC(C2)C3",
    "meta_data": {
        "InChI": "InChI=1S/C12H19NO/c1-8(14)13-12-5-9-2-10(6-12)4-11(3-9)7-12/h9-11H,2-7H2,1H3,(H,13,14)",
        "InChIKey": null,
        "Canonical SMILES": "O=C(NC12CC3CC(CC(C3)C1)C2)C",
        "Molecular Formula": "C<sub>12</sub>H<sub>19</sub>NO",
        "Molecular Mass": "193.29",
        "Melting Point": "148 °C"
    }
}