{
    "cas_no": "74509-79-8",
    "key_name": "5-[Ethyl(2-hydroxyethyl)amino]-2-pentanone",
    "cn_name": null,
    "alternate_name": "2-Pentanone, 5-[ethyl(2-hydroxyethyl)amino]-;5-[Ethyl(2-hydroxyethyl)amino]-2-pentanone;5-[<em>N</em>-Ethyl-<em>N</em>-(2-hydroxyethyl)amino]-2-pentanone",
    "duplicated_cas_no": "",
    "SMILES": "N(CCCC(C)=O)(CCO)CC",
    "meta_data": {
        "InChI": "InChI=1S/C9H19NO2/c1-3-10(7-8-11)6-4-5-9(2)12/h11H,3-8H2,1-2H3",
        "InChIKey": null,
        "Canonical SMILES": "O=C(C)CCCN(CC)CCO",
        "Molecular Formula": "C<sub>9</sub>H<sub>19</sub>NO<sub>2</sub>",
        "Molecular Mass": "173.25",
        "Boiling Point": "89-90 °C @ Press: 0.35 Torr"
    }
}