{
    "cas_no": "57102-98-4",
    "key_name": "9-Ethyl-9<em>H</em>-carbazole-3-carboxylic acid",
    "cn_name": null,
    "alternate_name": "9<em>H</em>-Carbazole-3-carboxylic acid, 9-ethyl-;9-Ethyl-9<em>H</em>-carbazole-3-carboxylic acid;3-Carboxy-<em>N</em>-ethylcarbazole;3-Carboxy-9-ethylcarbazole;9-Ethyl-3-carbazolecarboxylic acid",
    "duplicated_cas_no": "",
    "SMILES": "C(C)N1C=2C(C=3C1=CC=CC3)=CC(C(O)=O)=CC2",
    "meta_data": {
        "InChI": "InChI=1S/C15H13NO2/c1-2-16-13-6-4-3-5-11(13)12-9-10(15(17)18)7-8-14(12)16/h3-9H,2H2,1H3,(H,17,18)",
        "InChIKey": null,
        "Canonical SMILES": "O=C(O)C1=CC=C2C(=C1)C=3C=CC=CC3N2CC",
        "Molecular Formula": "C<sub>15</sub>H<sub>13</sub>NO<sub>2</sub>",
        "Molecular Mass": "239.27",
        "Melting Point": "225 °C"
    }
}