{
    "cas_no": "627-42-9",
    "key_name": "2-Chloroethyl methyl ether",
    "cn_name": "2-氯乙基甲基醚;",
    "alternate_name": "Ethane, 1-chloro-2-methoxy-;Ether, 2-chloroethyl methyl;1-Chloro-2-methoxyethane;2-Chloroethyl methyl ether;2-Methoxyethyl chloride;Ethylenechlorohydrin methyl ether;2-Chloro-1-methoxyethane;R-E 280;Methyl 2-chloroethyl ether;1-Chloro-2-(methyloxy)ethane",
    "duplicated_cas_no": "",
    "SMILES": "C(CCl)OC",
    "meta_data": {
        "InChI": "InChI=1S/C3H7ClO/c1-5-3-2-4/h2-3H2,1H3",
        "InChIKey": null,
        "Canonical SMILES": "ClCCOC",
        "Molecular Formula": "C<sub>3</sub>H<sub>7</sub>ClO",
        "Molecular Mass": "94.54",
        "Boiling Point": "92-93 °C",
        "Density": "1.0345 g/cm³ @ Temp: 20 °C"
    }
}