{
    "cas_no": "7719-09-7",
    "key_name": "Thionyl chloride",
    "cn_name": "氧氯化硫;亚硫酰氯;二氯亚砜;二氯氧化硫;氯化亚砜;",
    "alternate_name": "Thionyl chloride;Sulfurous oxychloride;Sulfurous dichloride;Sulfinyl chloride;Thionyl chloride (SOCl<sub>2</sub>);Sulfur chloride oxide (Cl<sub>2</sub>SO);Thionyl dichloride;Sulfur oxychloride (SOCl<sub>2</sub>);Sulfinyl dichloride;Sulfur oxychloride;Sulfur chloride oxide (SCl<sub>2</sub>O)",
    "duplicated_cas_no": "2366156-90-1;2368184-97-6;2505209-14-1",
    "SMILES": "S(Cl)(Cl)=O",
    "meta_data": {
        "InChI": "InChI=1S/Cl2OS/c1-4(2)3",
        "InChIKey": null,
        "Canonical SMILES": "O=S(Cl)Cl",
        "Molecular Formula": "Cl<sub>2</sub>OS",
        "Molecular Mass": "118.97",
        "Boiling Point": "76 °C @ Press: 760 Torr",
        "Melting Point": "-104.5 °C",
        "Density": "1.638 g/cm³ @ Temp: 20 °C"
    }
}