{
    "cas_no": "1416134-49-0",
    "key_name": "(2<em>S</em>,5<em>R</em>)-5-[(Phenylmethoxy)amino]-2-piperidinecarboxamide",
    "cn_name": null,
    "alternate_name": "2-Piperidinecarboxamide, 5-[(phenylmethoxy)amino]-, (2<em>S</em>,5<em>R</em>)-;(2<em>S</em>,5<em>R</em>)-5-[(Phenylmethoxy)amino]-2-piperidinecarboxamide",
    "duplicated_cas_no": "",
    "SMILES": "N(OCC1=CC=CC=C1)[C@@H]2CC[C@@H](C(N)=O)NC2",
    "meta_data": {
        "InChI": "InChI=1S/C13H19N3O2/c14-13(17)12-7-6-11(8-15-12)16-18-9-10-4-2-1-3-5-10/h1-5,11-12,15-16H,6-9H2,(H2,14,17)/t11-,12+/m1/s1",
        "InChIKey": null,
        "Canonical SMILES": "O=C(N)C1NCC(NOCC=2C=CC=CC2)CC1",
        "Molecular Formula": "C<sub>13</sub>H<sub>19</sub>N<sub>3</sub>O<sub>2</sub>",
        "Molecular Mass": "249.31",
        "Melting Point": "148.2-150.9 °C"
    }
}