{
    "cas_no": "55804-66-5",
    "key_name": "Coumarin 314",
    "cn_name": "香豆素314;",
    "alternate_name": "1<em>H</em>,5<em>H</em>,11<em>H</em>-[1]Benzopyrano[6,7,8-<em>ij</em>]quinolizine-10-carboxylic acid, 2,3,6,7-tetrahydro-11-oxo-, ethyl ester;Coumarin 314;Coumarin 504;C 314;NSC 338967",
    "duplicated_cas_no": "75496-02-5",
    "SMILES": "O=C1OC2=C3C4=C(C=C2C=C1C(OCC)=O)CCCN4CCC3",
    "meta_data": {
        "InChI": "InChI=1S/C18H19NO4/c1-2-22-17(20)14-10-12-9-11-5-3-7-19-8-4-6-13(15(11)19)16(12)23-18(14)21/h9-10H,2-8H2,1H3",
        "InChIKey": null,
        "Canonical SMILES": "O=C1OC2=C(C=C1C(=O)OCC)C=C3C4=C2CCCN4CCC3",
        "Molecular Formula": "C<sub>18</sub>H<sub>19</sub>NO<sub>4</sub>",
        "Molecular Mass": "313.35",
        "Melting Point": "139-141 °C"
    }
}