{
    "cas_no": "4419-11-8",
    "key_name": "2,2′-Azobis[2,4-dimethylvaleronitrile]",
    "cn_name": "偶氮二异庚腈;",
    "alternate_name": "Pentanenitrile, 2,2′-(1,2-diazenediyl)bis[2,4-dimethyl-;Valeronitrile, 2,2′-azobis[2,4-dimethyl-;Pentanenitrile, 2,2′-azobis[2,4-dimethyl-;2,2′-(1,2-Diazenediyl)bis[2,4-dimethylpentanenitrile];α,α′-Azobis(α,γ-dimethylvaleronitrile);2,2′-Azobis[2,4-dimethylvaleronitrile];α,α′-Azobis[2,4-dimethylvaleronitrile];Vazo 52;α,α′-Azobis(dimethylvaleronitrile);2,2′-Azobis[2,4-dimethylpentanenitrile];V 65;V 65 (polymerization catalyst);2,2′-Azodi(2,4-dimethylvaleronitrile);AMVN;ADVN;V 65B;ABVN;AIVN;2,2′-Azobis(dimethylvaleronitrile);2,2′-(Diazene-1,2-diyl)bis(2,4-dimethylpentanenitrile);V 52;V 65HP;<em>N</em>,<em>N</em>′-Azobis(2,4-dimethylvaleronitrile);ABN-V",
    "duplicated_cas_no": "116584-22-6;131445-37-9;849944-39-4",
    "SMILES": "C(N=NC(CC(C)C)(C#N)C)(CC(C)C)(C#N)C",
    "meta_data": {
        "InChI": "InChI=1S/C14H24N4/c1-11(2)7-13(5,9-15)17-18-14(6,10-16)8-12(3)4/h11-12H,7-8H2,1-6H3",
        "InChIKey": null,
        "Canonical SMILES": "N#CC(N=NC(C#N)(C)CC(C)C)(C)CC(C)C",
        "Molecular Formula": "C<sub>14</sub>H<sub>24</sub>N<sub>4</sub>",
        "Molecular Mass": "248.37",
        "Melting Point": "75-76 °C (decomp)",
        "Density": "1.0 g/cm³ (solid)"
    }
}