{
    "cas_no": "7783-79-1",
    "key_name": "Selenium hexafluoride",
    "cn_name": "六氟化硒;",
    "alternate_name": "Selenium fluoride (SeF<sub>6</sub>), (<em>OC</em>-6-11)-;Selenium fluoride (SeF<sub>6</sub>);Selenium hexafluoride",
    "duplicated_cas_no": "55569-71-6",
    "SMILES": "[Se](F)(F)(F)(F)(F)F",
    "meta_data": {
        "InChI": "InChI=1S/F6Se/c1-7(2,3,4,5)6",
        "InChIKey": null,
        "Canonical SMILES": "F[Se](F)(F)(F)(F)F",
        "Molecular Formula": "F<sub>6</sub>Se",
        "Molecular Mass": "192.95",
        "Melting Point": "-50.8 °C",
        "Density": "8.467 x 10<sup>-3</sup> g/cm³"
    }
}