{
    "cas_no": "68-05-3",
    "key_name": "Tetraethylammonium iodide",
    "cn_name": "四乙基碘化铵;",
    "alternate_name": "Ethanaminium, <em>N</em>,<em>N</em>,<em>N</em>-triethyl-, iodide (1:1);Tetraethylammonium iodide;Ammonium, tetraethyl-, iodide;Ethanaminium, <em>N</em>,<em>N</em>,<em>N</em>-triethyl-, iodide;Tetamon iodide;Tetramon J;TEA;TEA iodide",
    "duplicated_cas_no": "",
    "SMILES": "[N+](CC)(CC)(CC)CC.[I-]",
    "meta_data": {
        "InChI": "InChI=1S/C8H20N.HI/c1-5-9(6-2,7-3)8-4;/h5-8H2,1-4H3;1H/q+1;/p-1",
        "InChIKey": null,
        "Canonical SMILES": "[I-].CC[N+](CC)(CC)CC",
        "Molecular Formula": "C<sub>8</sub>H<sub>20</sub>N.I",
        "Molecular Mass": "",
        "Melting Point": "300 °C"
    }
}