{
    "cas_no": "6750-60-3",
    "key_name": "Spathulenol",
    "cn_name": null,
    "alternate_name": "1<em>H</em>-Cycloprop[<em>e</em>]azulen-7-ol, decahydro-1,1,7-trimethyl-4-methylene-, (1a<em>R</em>,4a<em>R</em>,7<em>S</em>,7a<em>R</em>,7b<em>R</em>)-;1<em>H</em>-Cycloprop[<em>e</em>]azulen-7-ol, decahydro-1,1,7-trimethyl-4-methylene-, [1a<em>R</em>-(1aα,4aα,7β,7aβ,7bα)]-;Spathulenol;1<em>H</em>-Cycloprop[<em>e</em>]azulen-7-ol, decahydro-1,1,7-trimethyl-4-methylene-;(1a<em>R</em>,4a<em>R</em>,7<em>S</em>,7a<em>R</em>,7b<em>R</em>)-Decahydro-1,1,7-trimethyl-4-methylene-1<em>H</em>-cycloprop[<em>e</em>]azulen-7-ol;Espatulenol;(+)-Spathulenol;spainulenol;Sibachun;(1aR,4aR,7S,7aR,7bR)-1,1,7-trimethyl-4-methylenedecahydro-1<em>H</em>-cyclopropa[<em>e</em>]azulen-7-ol",
    "duplicated_cas_no": "",
    "SMILES": "CC1(C)[C@]2([C@]3([C@@](CC[C@]3(C)O)(C(=C)CC[C@]21[H])[H])[H])[H]",
    "meta_data": {
        "InChI": "InChI=1S/C15H24O/c1-9-5-6-11-13(14(11,2)3)12-10(9)7-8-15(12,4)16/h10-13,16H,1,5-8H2,2-4H3/t10-,11+,12+,13+,15-/m0/s1",
        "InChIKey": null,
        "Canonical SMILES": "OC1(C)CCC2C(=C)CCC3C(C21)C3(C)C",
        "Molecular Formula": "C<sub>15</sub>H<sub>24</sub>O",
        "Molecular Mass": "220.35",
        "Boiling Point": "284.7 °C"
    }
}