{
    "cas_no": "873-63-2",
    "key_name": "3-Chlorobenzyl alcohol",
    "cn_name": "3-氯苯甲醇;",
    "alternate_name": "Benzenemethanol, 3-chloro-;Benzyl alcohol, <em>m</em>-chloro-;3-Chlorobenzenemethanol;3-Chlorobenzyl alcohol;<em>m</em>-Chlorobenzyl alcohol;(3-Chlorophenyl)methanol",
    "duplicated_cas_no": "",
    "SMILES": "C(O)C1=CC(Cl)=CC=C1",
    "meta_data": {
        "InChI": "InChI=1S/C7H7ClO/c8-7-3-1-2-6(4-7)5-9/h1-4,9H,5H2",
        "InChIKey": null,
        "Canonical SMILES": "ClC1=CC=CC(=C1)CO",
        "Molecular Formula": "C<sub>7</sub>H<sub>7</sub>ClO",
        "Molecular Mass": "142.58",
        "Boiling Point": "237 °C",
        "Melting Point": "236 °C"
    }
}