{
    "cas_no": "869-24-9",
    "key_name": "2-(Diethylamino)ethyl chloride hydrochloride",
    "cn_name": "2-二乙氨基氯乙烷盐酸盐;",
    "alternate_name": "Ethanamine, 2-chloro-<em>N</em>,<em>N</em>-diethyl-, hydrochloride (1:1);Triethylamine, 2-chloro-, hydrochloride;Ethanamine, 2-chloro-<em>N</em>,<em>N</em>-diethyl-, hydrochloride;β-Chloroethyldiethylamine hydrochloride;<em>N</em>,<em>N</em>-Diethyl-2-chloroethylamine hydrochloride;β-(Diethylamino)ethyl chloride hydrochloride;<em>N</em>,<em>N</em>-Diethyl-β-chloroethylamine hydrochloride;2-Chloro-<em>N</em>,<em>N</em>-diethylethylamine hydrochloride;1-Chloro-2-(diethylamino)ethane hydrochloride;(<em>N</em>,<em>N</em>-Diethylamino)ethyl chloride hydrochloride;2-Chlorotriethylamine hydrochloride;2-(Diethylamino)ethyl chloride hydrochloride;(2-Chloroethyl)diethylamine monohydrochloride;2-Chloroethyl-<em>N</em>,<em>N</em>-diethylamine hydrochloride;<em>N</em>-2-Chloroethyl-<em>N</em>,<em>N</em>-diethylammonium hydrochloride;2-Chloroethyldiethylammonium chloride;2-(Diethylamino)ethyl chloride hydrochloric acid salt;<em>N</em>-(2-Chloroethyl)diethylamine hydrochloride;2-(<em>N</em>,<em>N</em>-Diethylamino)ethyl chloride hydrochloride;2-Diethylaminoethyl chloride monohydrochloride;1-Chloro-2-(<em>N</em>,<em>N</em>-diethylamino)ethane hydrochloride;2-Chloro-<em>N</em>,<em>N</em>-diethylethanamine hydrochloride",
    "duplicated_cas_no": "147181-43-9",
    "SMILES": "N(CCCl)(CC)CC.Cl",
    "meta_data": {
        "InChI": "InChI=1S/C6H14ClN.ClH/c1-3-8(4-2)6-5-7;/h3-6H2,1-2H3;1H",
        "InChIKey": null,
        "Canonical SMILES": "Cl.ClCCN(CC)CC",
        "Molecular Formula": "C<sub>6</sub>H<sub>14</sub>ClN.ClH",
        "Molecular Mass": "",
        "Melting Point": "212 °C"
    }
}