{
    "cas_no": "337-03-1",
    "key_name": "(11β)-9-Fluoro-11,17-dihydroxypregn-4-ene-3,20-dione",
    "cn_name": "氟孕酮;",
    "alternate_name": "Pregn-4-ene-3,20-dione, 9-fluoro-11,17-dihydroxy-, (11β)-;Pregn-4-ene-3,20-dione, 9-fluoro-11β,17-dihydroxy-;Progesterone, 9-fluoro-11β,17-dihydroxy-;(11β)-9-Fluoro-11,17-dihydroxypregn-4-ene-3,20-dione;Flugestone;9-Fluoro-11β,17-dihydroxypregn-4-ene-3,20-dione;9-Fluoro-11β,17-dihydroxyprogesterone;Fluorogestone;NSC 79327",
    "duplicated_cas_no": "",
    "SMILES": "F[C@@]12[C@]([C@]3([C@](C)(C[C@@H]1O)[C@](C(C)=O)(O)CC3)[H])(CCC=4[C@]2(C)CCC(=O)C4)[H]",
    "meta_data": {
        "InChI": "InChI=1S/C21H29FO4/c1-12(23)20(26)9-7-15-16-5-4-13-10-14(24)6-8-18(13,2)21(16,22)17(25)11-19(15,20)3/h10,15-17,25-26H,4-9,11H2,1-3H3/t15-,16-,17-,18-,19-,20-,21-/m0/s1",
        "InChIKey": null,
        "Canonical SMILES": "O=C1C=C2CCC3C4CCC(O)(C(=O)C)C4(C)CC(O)C3(F)C2(C)CC1",
        "Molecular Formula": "C<sub>21</sub>H<sub>29</sub>FO<sub>4</sub>",
        "Molecular Mass": "364.45",
        "Melting Point": "275-277 °C"
    }
}