{
    "cas_no": "3572-43-8",
    "key_name": "Bromhexine",
    "cn_name": null,
    "alternate_name": "Benzenemethanamine, 2-amino-3,5-dibromo-<em>N</em>-cyclohexyl-<em>N</em>-methyl-;Toluene-α,2-diamine, 3,5-dibromo-<em>N</em><sup>α</sup>-cyclohexyl-<em>N</em><sup>α</sup>-methyl-;2-Amino-3,5-dibromo-<em>N</em>-cyclohexyl-<em>N</em>-methylbenzenemethanamine;Na 274;Bromexine;<em>N</em>-(2-Amino-3,5-dibromobenzyl)-<em>N</em>-methylcyclohexylamine;Bromhexine;2-Amino-3,5-dibromo-<em>N</em>-cyclohexyl-<em>N</em>-methylbenzylamine;2,4-Dibromo-6-[[cyclohexyl(methyl)amino]methyl]aniline;Ezolvin",
    "duplicated_cas_no": "",
    "SMILES": "C(N(C)C1CCCCC1)C2=C(N)C(Br)=CC(Br)=C2",
    "meta_data": {
        "InChI": "InChI=1S/C14H20Br2N2/c1-18(12-5-3-2-4-6-12)9-10-7-11(15)8-13(16)14(10)17/h7-8,12H,2-6,9,17H2,1H3",
        "InChIKey": null,
        "Canonical SMILES": "BrC=1C=C(Br)C(N)=C(C1)CN(C)C2CCCCC2",
        "Molecular Formula": "C<sub>14</sub>H<sub>20</sub>Br<sub>2</sub>N<sub>2</sub>",
        "Molecular Mass": "376.13",
        "Melting Point": "238 °C"
    }
}