{
    "cas_no": "2128-93-0",
    "key_name": "4-Phenylbenzophenone",
    "cn_name": "4-苯基二苯甲酮;对苯基二苯甲酮;",
    "alternate_name": "Methanone, [1,1′-biphenyl]-4-ylphenyl-;Benzophenone, 4-phenyl-;[1,1′-Biphenyl]-4-ylphenylmethanone;4-Benzoylbiphenyl;4-Phenylbenzophenone;<em>p</em>-Phenylbenzophenone;<em>p</em>-Biphenylyl phenyl ketone;4-Biphenylyl phenyl ketone;Phenyl <em>p</em>-biphenylyl ketone;<em>p</em>-Benzoylbiphenyl;Trigonal 12;Eusolex 3490;NSC 55283;NSC 97365;4-Phenylphenyl phenyl methanone;4-(Phenylcarbonyl)biphenyl;Speedcure BPZ;(Biphenyl-4-yl)(phenyl)methanone;Genocure PBZ;Speedcure PBZ;4-Benzoyl-1,1′-biphenyl;Runtecure 1059;JRcure PBZ;Photoinitiator PBZ;Gencure PBZ;Omnirad 4PBZ",
    "duplicated_cas_no": "1621707-32-1",
    "SMILES": "C(=O)(C1=CC=C(C=C1)C2=CC=CC=C2)C3=CC=CC=C3",
    "meta_data": {
        "InChI": "InChI=1S/C19H14O/c20-19(17-9-5-2-6-10-17)18-13-11-16(12-14-18)15-7-3-1-4-8-15/h1-14H",
        "InChIKey": null,
        "Canonical SMILES": "O=C(C=1C=CC=CC1)C=2C=CC(=CC2)C=3C=CC=CC3",
        "Molecular Formula": "C<sub>19</sub>H<sub>14</sub>O",
        "Molecular Mass": "258.31",
        "Boiling Point": "419-420 °C @ Press: 744 Torr",
        "Melting Point": "102 °C"
    }
}