{
    "cas_no": "17692-51-2",
    "key_name": "Metergoline",
    "cn_name": "甲麦角林;美塔可宁;",
    "alternate_name": "Carbamic acid, <em>N</em>-[[(8β)-1,6-dimethylergolin-8-yl]methyl]-, phenylmethyl ester;Carbamic acid, [(1,6-dimethylergolin-8β-yl)methyl]-, benzyl ester;Carbamic acid, [[(8β)-1,6-dimethylergolin-8-yl]methyl]-, phenylmethyl ester;Lysergamine, <em>N</em>-carboxy-9,10-dihydro-1-methyl-, benzyl ester;Indolo[4,3-<em>fg</em>]quinoline, carbamic acid deriv.;Ergoline, carbamic acid deriv.;(+)-<em>N</em>-Carboxy-1-methyl-9,10-dihydrolysergamide benzyl ester;Metergoline;8β-Carbobenzyloxyaminomethyl-1,6-dimethyl-10α-ergoline;Methergoline;AHR 3009;<span class=\"text-smallcaps\">D</span>-8β-[(Carbobenzoxyamino)methyl]-1,6-dimethyl-10α-ergoline;<span class=\"text-smallcaps\">D</span>-<em>N</em>-Carbobenzoxydihydro-1-methyllysergamine I;<span class=\"text-smallcaps\">D</span>-8β-[(Carboxyamino)methyl]-1,6-dimethylergoline I benzyl ester;<span class=\"text-smallcaps\">D</span>-<em>N</em>-Carboxydihydro-1-methyllysergamine I benzyl ester;<span class=\"text-smallcaps\">D</span>-[(4,6,6a,7,8,9,10,10a-Octahydro-4,7-dimethyl-10aα-indolo[4,3-<em>fg</em>]quinolin-9β-yl)methyl]carbamic acid benzyl ester;Liserdol;Metergolin;MCE;Contralac;FI 6337;MeSH ID: D008711",
    "duplicated_cas_no": "",
    "SMILES": "CN1C2=C3C([C@@]4([C@@](CC3=C1)(N(C)C[C@H](CNC(OCC5=CC=CC=C5)=O)C4)[H])[H])=CC=C2",
    "meta_data": {
        "InChI": "InChI=1S/C25H29N3O2/c1-27-14-18(13-26-25(29)30-16-17-7-4-3-5-8-17)11-21-20-9-6-10-22-24(20)19(12-23(21)27)15-28(22)2/h3-10,15,18,21,23H,11-14,16H2,1-2H3,(H,26,29)/t18-,21+,23+/m0/s1",
        "InChIKey": null,
        "Canonical SMILES": "O=C(OCC=1C=CC=CC1)NCC2CN(C)C3CC4=CN(C5=CC=CC(=C54)C3C2)C",
        "Molecular Formula": "C<sub>25</sub>H<sub>29</sub>N<sub>3</sub>O<sub>2</sub>",
        "Molecular Mass": "403.52",
        "Melting Point": "146-149 °C"
    }
}