{
    "cas_no": "2039-87-4",
    "key_name": "2-Chlorostyrene",
    "cn_name": "2-氯苯乙烯;邻氯苯乙烯;",
    "alternate_name": "Benzene, 1-chloro-2-ethenyl-;Styrene, <em>o</em>-chloro-;1-Chloro-2-ethenylbenzene;<em>o</em>-Chlorostyrene;2-Chlorostyrene;<em>o</em>-Chlorovinylbenzene;NSC 18601;1-Chloro-2-vinylbenzene;<em>o</em>-Chlorosytrene",
    "duplicated_cas_no": "",
    "SMILES": "C(=C)C1=C(Cl)C=CC=C1",
    "meta_data": {
        "InChI": "InChI=1S/C8H7Cl/c1-2-7-5-3-4-6-8(7)9/h2-6H,1H2",
        "InChIKey": null,
        "Canonical SMILES": "ClC=1C=CC=CC1C=C",
        "Molecular Formula": "C<sub>8</sub>H<sub>7</sub>Cl",
        "Molecular Mass": "138.59",
        "Boiling Point": "188.7 °C @ Press: 760 Torr",
        "Melting Point": "-63.1 °C",
        "Density": "1.1 g/cm³ @ Temp: 20 °C"
    }
}