{
    "cas_no": "7335-25-3",
    "key_name": "Benzoic acid, 2-chloro-, ethyl ester",
    "cn_name": "邻氯苯甲酸乙酯;2-氯苯甲酸乙酯;",
    "alternate_name": "Benzoic acid, 2-chloro-, ethyl ester;Benzoic acid, <em>o</em>-chloro-, ethyl ester;Ethyl <em>o</em>-chlorobenzoate;Ethyl 2-chlorobenzoate;2-Chlorobenzoic acid ethyl ester",
    "duplicated_cas_no": "",
    "SMILES": "C(OCC)(=O)C1=C(Cl)C=CC=C1",
    "meta_data": {
        "InChI": "InChI=1S/C9H9ClO2/c1-2-12-9(11)7-5-3-4-6-8(7)10/h3-6H,2H2,1H3",
        "InChIKey": null,
        "Canonical SMILES": "O=C(OCC)C=1C=CC=CC1Cl",
        "Molecular Formula": "C<sub>9</sub>H<sub>9</sub>ClO<sub>2</sub>",
        "Molecular Mass": "184.62",
        "Boiling Point": "243 °C"
    }
}