{
    "cas_no": "493-95-8",
    "key_name": "(-)-Savinin",
    "cn_name": null,
    "alternate_name": "2(3<em>H</em>)-Furanone, 4-(1,3-benzodioxol-5-ylmethyl)-3-(1,3-benzodioxol-5-ylmethylene)dihydro-, (3<em>E</em>,4<em>R</em>)-;Hibalactone;2(3<em>H</em>)-Furanone, dihydro-4-piperonyl-3-piperonylidene-, (<em>E</em>)-(<em>R</em>)-(-)-;2(3<em>H</em>)-Furanone, 4-(1,3-benzodioxol-5-ylmethyl)-3-(1,3-benzodioxol-5-ylmethylene)dihydro-, [<em>R</em>-(<em>E</em>)]-;(3<em>E</em>,4<em>R</em>)-4-(1,3-Benzodioxol-5-ylmethyl)-3-(1,3-benzodioxol-5-ylmethylene)dihydro-2(3<em>H</em>)-furanone;Savinin;Savinine;(-)-Savinin;(-)-Hibalactone;NSC 150442",
    "duplicated_cas_no": "21462-62-4;26607-95-4",
    "SMILES": "C([C@@H]1/C(=C\\C=2C=C3C(=CC2)OCO3)/C(=O)OC1)C=4C=C5C(=CC4)OCO5",
    "meta_data": {
        "InChI": "InChI=1S/C20H16O6/c21-20-15(6-13-2-4-17-19(8-13)26-11-24-17)14(9-22-20)5-12-1-3-16-18(7-12)25-10-23-16/h1-4,6-8,14H,5,9-11H2/b15-6+/t14-/m0/s1",
        "InChIKey": null,
        "Canonical SMILES": "O=C1OCC(C1=CC2=CC=C3OCOC3=C2)CC4=CC=C5OCOC5=C4",
        "Molecular Formula": "C<sub>20</sub>H<sub>16</sub>O<sub>6</sub>",
        "Molecular Mass": "352.34",
        "Melting Point": "146.4-148.4 °C"
    }
}