{
    "cas_no": "1120-34-9",
    "key_name": "Methyl erucate",
    "cn_name": "芥酸甲酯;Z-13-二十二烯酸甲酯;",
    "alternate_name": "13-Docosenoic acid, methyl ester, (13<em>Z</em>)-;13-Docosenoic acid, methyl ester, (<em>Z</em>)-;Brassidic acid, methyl ester;Methyl erucate;Erucic acid methyl ester;Methyl 13(Z)-docosenoate;Methyl <em>cis</em>-13-docosenoate;Agnique ME 22U;(<em>Z</em>)-Erucic acid methyl ester",
    "duplicated_cas_no": "",
    "SMILES": "C(CCCCCC/C=C\\CCCCCCCC)CCCCC(OC)=O",
    "meta_data": {
        "InChI": "InChI=1S/C23H44O2/c1-3-4-5-6-7-8-9-10-11-12-13-14-15-16-17-18-19-20-21-22-23(24)25-2/h10-11H,3-9,12-22H2,1-2H3/b11-10-",
        "InChIKey": null,
        "Canonical SMILES": "O=C(OC)CCCCCCCCCCCC=CCCCCCCCC",
        "Molecular Formula": "C<sub>23</sub>H<sub>44</sub>O<sub>2</sub>",
        "Molecular Mass": "352.59",
        "Boiling Point": "221-222 °C @ Press: 5 Torr",
        "Melting Point": "-1.16-1.20 °C",
        "Density": "0.8702 g/cm³ @ Temp: 20 °C"
    }
}