{
    "cas_no": "33884-43-4",
    "key_name": "2-(2-Bromoethyl)-1,3-dioxane",
    "cn_name": "2-(2-溴乙基)-1,3-二氧杂环己烷;2-(2-溴乙基)-1,3-二氧六环;",
    "alternate_name": "1,3-Dioxane, 2-(2-bromoethyl)-;<em>m</em>-Dioxane, 2-(2-bromoethyl)-;2-(2-Bromoethyl)-1,3-dioxane;2-(β-Bromoethyl)-1,3-dioxane;3,3-(Trimethylenedioxy)propyl bromide;2-(1,3-Dioxan-2-yl)ethyl bromide;(1,3-Dioxan-2-ylethyl)bromide",
    "duplicated_cas_no": "",
    "SMILES": "C(CBr)C1OCCCO1",
    "meta_data": {
        "InChI": "InChI=1S/C6H11BrO2/c7-3-2-6-8-4-1-5-9-6/h6H,1-5H2",
        "InChIKey": null,
        "Canonical SMILES": "BrCCC1OCCCO1",
        "Molecular Formula": "C<sub>6</sub>H<sub>11</sub>BrO<sub>2</sub>",
        "Molecular Mass": "195.05",
        "Boiling Point": "68-70 °C @ Press: 3 Torr"
    }
}