{
    "cas_no": "1609-86-5",
    "key_name": "<em>tert</em>-Butyl isocyanate",
    "cn_name": "叔丁基异氰酸酯;",
    "alternate_name": "Propane, 2-isocyanato-2-methyl-;Isocyanic acid, <em>tert</em>-butyl ester;2-Isocyanato-2-methylpropane;<em>tert</em>-Butyl isocyanate;1,1-Dimethylethyl isocyanate;<em>t</em>-Butylisocyanate",
    "duplicated_cas_no": "44584-76-1;945715-84-4",
    "SMILES": "N(C(C)(C)C)=C=O",
    "meta_data": {
        "InChI": "InChI=1S/C5H9NO/c1-5(2,3)6-4-7/h1-3H3",
        "InChIKey": null,
        "Canonical SMILES": "O=C=NC(C)(C)C",
        "Molecular Formula": "C<sub>5</sub>H<sub>9</sub>NO",
        "Molecular Mass": "99.13",
        "Boiling Point": "85 °C"
    }
}