{
    "cas_no": "18666-68-7",
    "key_name": "Triphenylvinylsilane",
    "cn_name": "三苯基乙烯基硅烷;",
    "alternate_name": "Benzene, 1,1′,1′′-(ethenylsilylidyne)tris-;Silane, triphenylvinyl-;Silane, ethenyltriphenyl-;1,1′,1′′-(Ethenylsilylidyne)tris[benzene];Triphenylvinylsilane;Vinyltriphenylsilane;Triphenylsilylethylene;NSC 139006;Ethenyltriphenylsilane",
    "duplicated_cas_no": "",
    "SMILES": "[Si](C=C)(C1=CC=CC=C1)(C2=CC=CC=C2)C3=CC=CC=C3",
    "meta_data": {
        "InChI": "InChI=1S/C20H18Si/c1-2-21(18-12-6-3-7-13-18,19-14-8-4-9-15-19)20-16-10-5-11-17-20/h2-17H,1H2",
        "InChIKey": null,
        "Canonical SMILES": "C=C[Si](C=1C=CC=CC1)(C=2C=CC=CC2)C=3C=CC=CC3",
        "Molecular Formula": "C<sub>20</sub>H<sub>18</sub>Si",
        "Molecular Mass": "286.44",
        "Boiling Point": "190-210 °C @ Press: 3 Torr",
        "Melting Point": "58-61 °C"
    }
}