{
    "cas_no": "79055-68-8",
    "key_name": "(-)-2-Amino-5-phosphonovaleric acid",
    "cn_name": "D-AP5;",
    "alternate_name": "<span class=\"text-smallcaps\">D</span>-Norvaline, 5-phosphono-;5-Phosphono-<span class=\"text-smallcaps\">D</span>-norvaline;<span class=\"text-smallcaps\">D</span>-2-Amino-5-phosphonovaleric acid;(-)-2-Amino-5-phosphonovaleric acid;(-)-2-Amino-5-phosphonopentanoic acid;<span class=\"text-smallcaps\">D</span>-(-)-2-Amino-5-phosphonopentanoic acid;<span class=\"text-smallcaps\">D</span>-2-Amino-5-phosphonopentanoic acid;<span class=\"text-smallcaps\">D</span>-Aminophosphonovaleric acid;(<em>R</em>)-2-Amino-5-phosphonopentanoic acid;D-AP-5;(<em>R</em>)-AP-5;(R)-2-Amino-5-phosphonopentanoic acid;(2R)-2-Amino-5-phosphonopentanoic acid;<span class=\"text-smallcaps\">D</span>-APV",
    "duplicated_cas_no": "",
    "SMILES": "C(C[C@H](C(O)=O)N)CP(=O)(O)O",
    "meta_data": {
        "InChI": "InChI=1S/C5H12NO5P/c6-4(5(7)8)2-1-3-12(9,10)11/h4H,1-3,6H2,(H,7,8)(H2,9,10,11)/t4-/m1/s1",
        "InChIKey": null,
        "Canonical SMILES": "O=C(O)C(N)CCCP(=O)(O)O",
        "Molecular Formula": "C<sub>5</sub>H<sub>12</sub>NO<sub>5</sub>P",
        "Molecular Mass": "197.13",
        "Melting Point": "245-246 °C"
    }
}