{
    "cas_no": "1210-66-8",
    "key_name": "<em>N</em>-Phenyl-9<em>H</em>-purin-6-amine",
    "cn_name": null,
    "alternate_name": "9<em>H</em>-Purin-6-amine, <em>N</em>-phenyl-;Adenine, <em>N</em>-phenyl-;1<em>H</em>-Purin-6-amine, <em>N</em>-phenyl-;Adenine, <em>N</em><sup>6</sup>-phenyl-;<em>N</em>-Phenyl-9<em>H</em>-purin-6-amine;<em>N</em><sup>6</sup>-Phenylaminopurine;6-Phenylaminopurine;6-Anilinopurine;<em>N</em>-Phenyladenine;NSC 519242",
    "duplicated_cas_no": "",
    "SMILES": "N(C1=C2C(N=CN2)=NC=N1)C3=CC=CC=C3",
    "meta_data": {
        "InChI": "InChI=1S/C11H9N5/c1-2-4-8(5-3-1)16-11-9-10(13-6-12-9)14-7-15-11/h1-7H,(H2,12,13,14,15,16)",
        "InChIKey": null,
        "Canonical SMILES": "N1=CN=C(NC=2C=CC=CC2)C=3NC=NC13",
        "Molecular Formula": "C<sub>11</sub>H<sub>9</sub>N<sub>5</sub>",
        "Molecular Mass": "211.22",
        "Melting Point": "284-285 °C (decomp)"
    }
}