{
    "cas_no": "3016-19-1",
    "key_name": "<em>trans</em>-Alloocimene",
    "cn_name": null,
    "alternate_name": "2,4,6-Octatriene, 2,6-dimethyl-, (4<em>E</em>,6<em>E</em>)-;2,4,6-Octatriene, 2,6-dimethyl-, (<em>E</em>,<em>E</em>)-;2,4,6-Octatriene, 2,6-dimethyl-, <em>trans</em>-4,-<em>trans</em>-6-;(4<em>E</em>,6<em>E</em>)-2,6-Dimethyl-2,4,6-octatriene;<em>trans</em>-2,6-Dimethyl-2,4,6-octatriene;<em>trans</em>-<em>allo</em>-Ocimene;(4<em>E</em>,6<em>E</em>)-Alloocimene;<em>trans</em>,<em>trans</em>-Alloocimene;<em>trans</em>-Alloocimene;(<em>E</em>,<em>E</em>)-Alloocimene;(<em>E</em>,<em>E</em>)-2,6-Dimethyl-2,4,6-octatriene",
    "duplicated_cas_no": "",
    "SMILES": "C(\\C=C\\C=C(C)C)(=C/C)/C",
    "meta_data": {
        "InChI": "InChI=1S/C10H16/c1-5-10(4)8-6-7-9(2)3/h5-8H,1-4H3/b8-6+,10-5+",
        "InChIKey": null,
        "Canonical SMILES": "C(=CC(=CC)C)C=C(C)C",
        "Molecular Formula": "C<sub>10</sub>H<sub>16</sub>",
        "Molecular Mass": "136.23",
        "Boiling Point": "188 °C",
        "Melting Point": "-35.4 °C",
        "Density": "0.809 g/cm³"
    }
}