{
    "cas_no": "29082-74-4",
    "key_name": "Octachlorostyrene",
    "cn_name": "八氯苯烯;",
    "alternate_name": "Benzene, 1,2,3,4,5-pentachloro-6-(1,2,2-trichloroethenyl)-;Benzene, pentachloro(trichloroethenyl)-;Styrene, octachloro-;1,2,3,4,5-Pentachloro-6-(1,2,2-trichloroethenyl)benzene;Perchlorostyrene;Trichlorovinylpentachlorobenzene;Octachlorostyrene;OCS;Octachlorostyrol;1,2,3,4,5-Pentachloro-6-(trichloroethenyl)benzene;DTXSID2021074",
    "duplicated_cas_no": "",
    "SMILES": "C(=C(Cl)Cl)(Cl)C1=C(Cl)C(Cl)=C(Cl)C(Cl)=C1Cl",
    "meta_data": {
        "InChI": "InChI=1S/C8Cl8/c9-2-1(4(11)8(15)16)3(10)6(13)7(14)5(2)12",
        "InChIKey": null,
        "Canonical SMILES": "ClC(Cl)=C(Cl)C=1C(Cl)=C(Cl)C(Cl)=C(Cl)C1Cl",
        "Molecular Formula": "C<sub>8</sub>Cl<sub>8</sub>",
        "Molecular Mass": "379.71",
        "Melting Point": "92.5-96.5 °C"
    }
}