{
    "cas_no": "18282-51-4",
    "key_name": "4-Iodobenzyl alcohol",
    "cn_name": "4-碘苄醇;",
    "alternate_name": "Benzenemethanol, 4-iodo-;Benzyl alcohol, <em>p</em>-iodo-;4-Iodobenzenemethanol;<em>p</em>-Iodobenzyl alcohol;4-Iodobenzyl alcohol;(4-Iodophenyl)methanol",
    "duplicated_cas_no": "",
    "SMILES": "C(O)C1=CC=C(I)C=C1",
    "meta_data": {
        "InChI": "InChI=1S/C7H7IO/c8-7-3-1-6(5-9)2-4-7/h1-4,9H,5H2",
        "InChIKey": null,
        "Canonical SMILES": "IC1=CC=C(C=C1)CO",
        "Molecular Formula": "C<sub>7</sub>H<sub>7</sub>IO",
        "Molecular Mass": "234.03",
        "Boiling Point": "135-136 °C @ Press: 5 Torr",
        "Melting Point": "71-71.5 °C"
    }
}