{
    "cas_no": "556-24-1",
    "key_name": "Methyl isovalerate",
    "cn_name": "异戊酸甲酯;",
    "alternate_name": "Butanoic acid, 3-methyl-, methyl ester;Isovaleric acid, methyl ester;Methyl isovalerate;Methyl <em>iso</em>-valerate;Methyl isopentanoate;Methyl 3-methylbutanoate;Methyl 3-methylbutyrate;Isopentanoic acid methyl ester;3-Methylbutanoic acid methyl ester;3-Methyl-butyric acid methyl ester",
    "duplicated_cas_no": "",
    "SMILES": "C(CC(C)C)(OC)=O",
    "meta_data": {
        "InChI": "InChI=1S/C6H12O2/c1-5(2)4-6(7)8-3/h5H,4H2,1-3H3",
        "InChIKey": null,
        "Canonical SMILES": "O=C(OC)CC(C)C",
        "Molecular Formula": "C<sub>6</sub>H<sub>12</sub>O<sub>2</sub>",
        "Molecular Mass": "116.16",
        "Boiling Point": "116.5 °C",
        "Density": "0.9436 g/cm³ @ Temp: 15 °C"
    }
}