{
    "cas_no": "626-33-5",
    "key_name": "2-Methyl-4-heptanone",
    "cn_name": "2-甲基-4-庚酮;异丁基正丙酮;",
    "alternate_name": "4-Heptanone, 2-methyl-;2-Methyl-4-heptanone;Isobutyl propyl ketone;6-Methyl-4-heptanone",
    "duplicated_cas_no": "",
    "SMILES": "C(C(CCC)=O)C(C)C",
    "meta_data": {
        "InChI": "InChI=1S/C8H16O/c1-4-5-8(9)6-7(2)3/h7H,4-6H2,1-3H3",
        "InChIKey": null,
        "Canonical SMILES": "O=C(CCC)CC(C)C",
        "Molecular Formula": "C<sub>8</sub>H<sub>16</sub>O",
        "Molecular Mass": "128.21",
        "Boiling Point": "155 °C",
        "Density": "0.810 g/cm³ @ Temp: 25 °C"
    }
}