{
    "cas_no": "25276-70-4",
    "key_name": "Pentadecanethiol",
    "cn_name": null,
    "alternate_name": "1-Pentadecanethiol;Pentadecanethiol",
    "duplicated_cas_no": "",
    "SMILES": "C(CCCCCCCS)CCCCCCC",
    "meta_data": {
        "InChI": "InChI=1S/C15H32S/c1-2-3-4-5-6-7-8-9-10-11-12-13-14-15-16/h16H,2-15H2,1H3",
        "InChIKey": null,
        "Canonical SMILES": "SCCCCCCCCCCCCCCC",
        "Molecular Formula": "C<sub>15</sub>H<sub>32</sub>S",
        "Molecular Mass": "244.48",
        "Boiling Point": "173-174 °C @ Press: 16 Torr"
    }
}