{
    "cas_no": "1522-92-5",
    "key_name": "Pentaerythritol tribromide",
    "cn_name": "三溴新戊醇;",
    "alternate_name": "1-Propanol, 3-bromo-2,2-bis(bromomethyl)-;3-Bromo-2,2-bis(bromomethyl)-1-propanol;Pentaerythritol tribromide;2,2,2-Tris(bromomethyl)ethanol;Tribromoneopentyl alcohol;2,2-Bis(bromomethyl)-3-bromo-1-propanol;3-Bromo-2,2-bis(bromomethyl)propanol;Pentaerythritol tribromohydrin;3-Bromo-2,2-bis(bromomethyl)propyl alcohol;FR 1360;FR 513;NSC 20521;Tribromoneopentanol;1,3-Propanediol, 2,2-dimethyl-, tribromo deriv.",
    "duplicated_cas_no": "68317-44-2;2756842-70-1",
    "SMILES": "C(CBr)(CBr)(CBr)CO",
    "meta_data": {
        "InChI": "InChI=1S/C5H9Br3O/c6-1-5(2-7,3-8)4-9/h9H,1-4H2",
        "InChIKey": null,
        "Canonical SMILES": "BrCC(CBr)(CBr)CO",
        "Molecular Formula": "C<sub>5</sub>H<sub>9</sub>Br<sub>3</sub>O",
        "Molecular Mass": "324.84",
        "Boiling Point": "131 °C @ Press: 2.5 Torr",
        "Melting Point": "90-95 °C"
    }
}