{
    "cas_no": "719-60-8",
    "key_name": "3-(2,3,4,5,6-Pentafluorophenyl)-2-propenoic acid",
    "cn_name": null,
    "alternate_name": "2-Propenoic acid, 3-(2,3,4,5,6-pentafluorophenyl)-;Cinnamic acid, 2,3,4,5,6-pentafluoro-;2-Propenoic acid, 3-(pentafluorophenyl)-;3-(2,3,4,5,6-Pentafluorophenyl)-2-propenoic acid;2,3,4,5,6-Pentafluorocinnamic acid;3-(Pentafluorophenyl)-2-propenoic acid",
    "duplicated_cas_no": "",
    "SMILES": "C(=CC(O)=O)C1=C(F)C(F)=C(F)C(F)=C1F",
    "meta_data": {
        "InChI": "InChI=1S/C9H3F5O2/c10-5-3(1-2-4(15)16)6(11)8(13)9(14)7(5)12/h1-2H,(H,15,16)",
        "InChIKey": null,
        "Canonical SMILES": "O=C(O)C=CC=1C(F)=C(F)C(F)=C(F)C1F",
        "Molecular Formula": "C<sub>9</sub>H<sub>3</sub>F<sub>5</sub>O<sub>2</sub>",
        "Molecular Mass": "238.11",
        "Melting Point": "64-65 °C"
    }
}