{
    "cas_no": "88-41-5",
    "key_name": "Verdox",
    "cn_name": null,
    "alternate_name": "Cyclohexanol, 2-(1,1-dimethylethyl)-, 1-acetate;Cyclohexanol, 2-(1,1-dimethylethyl)-, acetate;Cyclohexanol, 2-<em>tert</em>-butyl-, acetate;2-<em>tert</em>-Butylcyclohexanol acetate;2-<em>tert</em>-Butylcyclohexyl acetate;<em>o</em>-<em>tert</em>-Butylcyclohexyl acetate;Verdox;2-(1,1-Dimethylethyl)cyclohexyl acetate;Agrumex HC;2-(1,1-Dimethylethyl)cyclohexyl ethanoate",
    "duplicated_cas_no": "",
    "SMILES": "C(C)(C)(C)C1C(OC(C)=O)CCCC1",
    "meta_data": {
        "InChI": "InChI=1S/C12H22O2/c1-9(13)14-11-8-6-5-7-10(11)12(2,3)4/h10-11H,5-8H2,1-4H3",
        "InChIKey": null,
        "Canonical SMILES": "O=C(OC1CCCCC1C(C)(C)C)C",
        "Molecular Formula": "C<sub>12</sub>H<sub>22</sub>O<sub>2</sub>",
        "Molecular Mass": "198.30",
        "Boiling Point": "227 °C"
    }
}