{
    "cas_no": "51473-74-6",
    "key_name": "7-(Diethylamino)-2-oxo-2<em>H</em>-1-benzopyran-3-carbonitrile",
    "cn_name": null,
    "alternate_name": "2<em>H</em>-1-Benzopyran-3-carbonitrile, 7-(diethylamino)-2-oxo-;7-(Diethylamino)-2-oxo-2<em>H</em>-1-benzopyran-3-carbonitrile;3-Cyano-7-(diethylamino)coumarin",
    "duplicated_cas_no": "",
    "SMILES": "C(#N)C1=CC=2C(=CC(N(CC)CC)=CC2)OC1=O",
    "meta_data": {
        "InChI": "InChI=1S/C14H14N2O2/c1-3-16(4-2)12-6-5-10-7-11(9-15)14(17)18-13(10)8-12/h5-8H,3-4H2,1-2H3",
        "InChIKey": null,
        "Canonical SMILES": "N#CC1=CC=2C=CC(=CC2OC1=O)N(CC)CC",
        "Molecular Formula": "C<sub>14</sub>H<sub>14</sub>N<sub>2</sub>O<sub>2</sub>",
        "Molecular Mass": "242.27",
        "Melting Point": "228-229 °C"
    }
}