{
    "cas_no": "10601-19-1",
    "key_name": "5-Methoxyindole-3-carboxaldehyde",
    "cn_name": "5-甲氧基吲哚-3-甲醛;",
    "alternate_name": "1<em>H</em>-Indole-3-carboxaldehyde, 5-methoxy-;Indole-3-carboxaldehyde, 5-methoxy-;5-Methoxy-1<em>H</em>-indole-3-carboxaldehyde;5-Methoxyindole-3-carboxaldehyde;5-Methoxy-3-indolealdehyde;3-Formyl-5-methoxyindole;NSC 521754;3-Formyl-5-methoxy-1<em>H</em>-indole;5-Methoxy-1<em>H</em>-indole-3-carbaldehyde",
    "duplicated_cas_no": "",
    "SMILES": "C(=O)C=1C=2C(NC1)=CC=C(OC)C2",
    "meta_data": {
        "InChI": "InChI=1S/C10H9NO2/c1-13-8-2-3-10-9(4-8)7(6-12)5-11-10/h2-6,11H,1H3",
        "InChIKey": null,
        "Canonical SMILES": "O=CC1=CNC=2C=CC(OC)=CC12",
        "Molecular Formula": "C<sub>10</sub>H<sub>9</sub>NO<sub>2</sub>",
        "Molecular Mass": "175.18",
        "Melting Point": "178 °C"
    }
}