{
    "cas_no": "100501-62-0",
    "key_name": "1-Ethyl-6,7,8-trifluoro-4-oxo-1,4-dihydroquinoline-3-carboxylic acid ethyl ester",
    "cn_name": null,
    "alternate_name": "3-Quinolinecarboxylic acid, 1-ethyl-6,7,8-trifluoro-1,4-dihydro-4-oxo-, ethyl ester;1-Ethyl-6,7,8-trifluoro-4-oxo-1,4-dihydroquinoline-3-carboxylic acid ethyl ester",
    "duplicated_cas_no": "",
    "SMILES": "C(C)N1C=2C(C(=O)C(C(OCC)=O)=C1)=CC(F)=C(F)C2F",
    "meta_data": {
        "InChI": "InChI=1S/C14H12F3NO3/c1-3-18-6-8(14(20)21-4-2)13(19)7-5-9(15)10(16)11(17)12(7)18/h5-6H,3-4H2,1-2H3",
        "InChIKey": null,
        "Canonical SMILES": "O=C(OCC)C1=CN(C2=C(F)C(F)=C(F)C=C2C1=O)CC",
        "Molecular Formula": "C<sub>14</sub>H<sub>12</sub>F<sub>3</sub>NO<sub>3</sub>",
        "Molecular Mass": "299.25",
        "Melting Point": "201-202 °C"
    }
}