{
    "cas_no": "16652-71-4",
    "key_name": "<span class=\"text-smallcaps\">L</span>-Proline, phenylmethyl ester, hydrochloride (1:1)",
    "cn_name": "L-脯氨酸苄酯盐酸盐;",
    "alternate_name": "<span class=\"text-smallcaps\">L</span>-Proline, phenylmethyl ester, hydrochloride (1:1);Proline, benzyl ester, hydrochloride, <span class=\"text-smallcaps\">L</span>-;<span class=\"text-smallcaps\">L</span>-Proline, phenylmethyl ester, hydrochloride;Benzyl <span class=\"text-smallcaps\">L</span>-prolinate hydrochloride;Benzyl (-)-<span class=\"text-smallcaps\">L</span>-prolinate hydrochloride;<span class=\"text-smallcaps\">L</span>-Proline benzyl ester hydrochloride;<span class=\"text-smallcaps\">L</span>-Proline benzyl ester monohydrochloride;(<em>S</em>)-Proline benzyl ester hydrochloride;Proline phenylmethyl ester hydrochloride;Benzyl prolinate hydrochloride;NSC 197199;NSC 71043;(<em>S</em>)-Pyrrolidine-2-carboxylic acid benzyl ester hydrochloride;(<em>S</em>)-Benzyl pyrrolidine-2-carboxylate hydrochloride",
    "duplicated_cas_no": "84677-37-2",
    "SMILES": "C(OCC1=CC=CC=C1)(=O)[C@@H]2CCCN2.Cl",
    "meta_data": {
        "InChI": "InChI=1S/C12H15NO2.ClH/c14-12(11-7-4-8-13-11)15-9-10-5-2-1-3-6-10;/h1-3,5-6,11,13H,4,7-9H2;1H/t11-;/m0./s1",
        "InChIKey": null,
        "Canonical SMILES": "Cl.O=C(OCC=1C=CC=CC1)C2NCCC2",
        "Molecular Formula": "C<sub>12</sub>H<sub>15</sub>NO<sub>2</sub>.ClH",
        "Molecular Mass": "",
        "Melting Point": "143-144 °C"
    }
}