{
    "cas_no": "630-01-3",
    "key_name": "Hexacosane",
    "cn_name": "二十六烷;",
    "alternate_name": "Hexacosane;<em>n</em>-Hexacosane;NSC 122457",
    "duplicated_cas_no": "",
    "SMILES": "C(CCCCCCCCCCCCC)CCCCCCCCCCCC",
    "meta_data": {
        "InChI": "InChI=1S/C26H54/c1-3-5-7-9-11-13-15-17-19-21-23-25-26-24-22-20-18-16-14-12-10-8-6-4-2/h3-26H2,1-2H3",
        "InChIKey": null,
        "Canonical SMILES": "CCCCCCCCCCCCCCCCCCCCCCCCCC",
        "Molecular Formula": "C<sub>26</sub>H<sub>54</sub>",
        "Molecular Mass": "366.71",
        "Boiling Point": "412.2 °C",
        "Melting Point": "56.4 °C",
        "Density": "0.7691 g/cm³ @ Temp: 89 °C"
    }
}