{
    "cas_no": "14470-28-1",
    "key_name": "4-Methoxytrityl chloride",
    "cn_name": "4-甲氧基三苯基氯甲烷;",
    "alternate_name": "Benzene, 1-(chlorodiphenylmethyl)-4-methoxy-;Anisole, <em>p</em>-(chlorodiphenylmethyl)-;1-(Chlorodiphenylmethyl)-4-methoxybenzene;(<em>p</em>-Anisyl)diphenylmethyl chloride;Mono-<em>p</em>-methoxytrityl chloride;4-Methoxytriphenylmethyl chloride;4-Monomethoxytrityl chloride;<em>p</em>-(Chlorodiphenylmethyl)anisole;<em>p</em>-Methoxytrityl chloride;4-Methoxytrityl chloride;4-Anisyl(chloro)diphenylmethane;<em>p</em>-Anisylchlorodiphenylmethane;NSC 54121;MMTCl;[(Chloro)(4-methoxyphenyl)methylene]dibenzene",
    "duplicated_cas_no": "1422975-25-4",
    "SMILES": "C(Cl)(C1=CC=C(OC)C=C1)(C2=CC=CC=C2)C3=CC=CC=C3",
    "meta_data": {
        "InChI": "InChI=1S/C20H17ClO/c1-22-19-14-12-18(13-15-19)20(21,16-8-4-2-5-9-16)17-10-6-3-7-11-17/h2-15H,1H3",
        "InChIKey": null,
        "Canonical SMILES": "ClC(C=1C=CC=CC1)(C=2C=CC=CC2)C3=CC=C(OC)C=C3",
        "Molecular Formula": "C<sub>20</sub>H<sub>17</sub>ClO",
        "Molecular Mass": "308.80",
        "Melting Point": "120-121 °C"
    }
}