{
    "cas_no": "2062-25-1",
    "key_name": "3-[2-(Trifluoromethyl)phenyl]-2-propenoic acid",
    "cn_name": "2-(三氟甲基)肉桂酸;邻三氟甲基肉桂酸;",
    "alternate_name": "2-Propenoic acid, 3-[2-(trifluoromethyl)phenyl]-;Cinnamic acid, <em>o</em>-(trifluoromethyl)-;3-[2-(Trifluoromethyl)phenyl]-2-propenoic acid;<em>o</em>-(Trifluoromethyl)cinnamic acid;2-(Trifluoromethyl)cinnamic acid;3-[2-(Trifluoromethyl)phenyl]acrylic acid",
    "duplicated_cas_no": "",
    "SMILES": "C(F)(F)(F)C1=C(C=CC(O)=O)C=CC=C1",
    "meta_data": {
        "InChI": "InChI=1S/C10H7F3O2/c11-10(12,13)8-4-2-1-3-7(8)5-6-9(14)15/h1-6H,(H,14,15)",
        "InChIKey": null,
        "Canonical SMILES": "O=C(O)C=CC=1C=CC=CC1C(F)(F)F",
        "Molecular Formula": "C<sub>10</sub>H<sub>7</sub>F<sub>3</sub>O<sub>2</sub>",
        "Molecular Mass": "216.16",
        "Melting Point": "206 °C"
    }
}