{
    "cas_no": "82717-96-2",
    "key_name": "<em>N</em>-[1(<em>S</em>)-Ethoxycarbonyl-3-phenylpropyl]-<span class=\"text-smallcaps\">L</span>-alanine",
    "cn_name": "N-[1-(S)-乙氧羰基-3-苯丙基]-L-丙氨酸;",
    "alternate_name": "Benzenebutanoic acid, α-[[(1<em>S</em>)-1-carboxyethyl]amino]-, 1-ethyl ester, (α<em>S</em>)-;Benzenebutanoic acid, α-[(1-carboxyethyl)amino]-, monoethyl ester, [<em>S</em>-(<em>R</em>*,<em>R</em>*)]-;Benzenebutanoic acid, α-[[(1<em>S</em>)-1-carboxyethyl]amino]-, monoethyl ester, (α<em>S</em>)-;<em>N</em>-[(<em>S</em>)-1-Ethoxycarbonyl-3-phenylpropyl]-<span class=\"text-smallcaps\">L</span>-alanine;<em>N</em>-[1(<em>S</em>)-Ethoxycarbonyl-3-phenylpropyl]-<span class=\"text-smallcaps\">L</span>-alanine",
    "duplicated_cas_no": "116308-25-9",
    "SMILES": "[C@@H](CCC1=CC=CC=C1)(N[C@H](C(O)=O)C)C(OCC)=O",
    "meta_data": {
        "InChI": "InChI=1S/C15H21NO4/c1-3-20-15(19)13(16-11(2)14(17)18)10-9-12-7-5-4-6-8-12/h4-8,11,13,16H,3,9-10H2,1-2H3,(H,17,18)/t11-,13-/m0/s1",
        "InChIKey": null,
        "Canonical SMILES": "O=C(O)C(NC(C(=O)OCC)CCC=1C=CC=CC1)C",
        "Molecular Formula": "C<sub>15</sub>H<sub>21</sub>NO<sub>4</sub>",
        "Molecular Mass": "279.33",
        "Melting Point": "147-148 °C"
    }
}