{
    "cas_no": "90-52-8",
    "key_name": "6-Methoxy-8-aminoquinoline",
    "cn_name": "8-氨基-6-甲氧基喹啉;8-氨基-6-甲氧基喹啉;",
    "alternate_name": "8-Quinolinamine, 6-methoxy-;Quinoline, 8-amino-6-methoxy-;6-Methoxy-8-quinolinamine;Amichin;8-Amino-6-methoxyquinoline;6-Methoxy-8-aminoquinoline;WR 15081;6-Methoxyquinolin-8-ylamine;NSC 119507;NSC 119508;NSC 13573;6-Methoxyquinolin-8-amine",
    "duplicated_cas_no": "",
    "SMILES": "NC=1C2=C(C=C(OC)C1)C=CC=N2",
    "meta_data": {
        "InChI": "InChI=1S/C10H10N2O/c1-13-8-5-7-3-2-4-12-10(7)9(11)6-8/h2-6H,11H2,1H3",
        "InChIKey": null,
        "Canonical SMILES": "N1=CC=CC2=CC(OC)=CC(N)=C12",
        "Molecular Formula": "C<sub>10</sub>H<sub>10</sub>N<sub>2</sub>O",
        "Molecular Mass": "174.20",
        "Boiling Point": "137-138 °C @ Press: 1 Torr",
        "Melting Point": "41 °C"
    }
}