{
    "cas_no": "352-24-9",
    "key_name": "Butanoic acid, 4,4-difluoro-3-oxo-, ethyl ester",
    "cn_name": "4,4-二氟乙酰乙酸乙酯;",
    "alternate_name": "Butanoic acid, 4,4-difluoro-3-oxo-, ethyl ester;Acetoacetic acid, 4,4-difluoro-, ethyl ester;4,4-Difluoro-3-oxobutanoic acid ethyl ester;Ethyl 4,4-difluoroacetoacetate;Ethyl 4,4-difluoro-3-oxobutanoate;Ethyl 4,4-difluoro-3-oxobutyrate;4,4-Difluoro-3-oxo-butyric acid ethyl ester;4,4-Difluoroacetoacetic acid ethyl ester",
    "duplicated_cas_no": "",
    "SMILES": "C(CC(C(F)F)=O)(OCC)=O",
    "meta_data": {
        "InChI": "InChI=1S/C6H8F2O3/c1-2-11-5(10)3-4(9)6(7)8/h6H,2-3H2,1H3",
        "InChIKey": null,
        "Canonical SMILES": "O=C(OCC)CC(=O)C(F)F",
        "Molecular Formula": "C<sub>6</sub>H<sub>8</sub>F<sub>2</sub>O<sub>3</sub>",
        "Molecular Mass": "166.12",
        "Boiling Point": "162 °C"
    }
}