{
    "cas_no": "7153-22-2",
    "key_name": "Benzoic acid, 4-cyano-, ethyl ester",
    "cn_name": "4-氰基苯甲酸乙酯;",
    "alternate_name": "Benzoic acid, 4-cyano-, ethyl ester;Benzoic acid, <em>p</em>-cyano-, ethyl ester;Ethyl <em>p</em>-cyanobenzoate;Ethyl 4-cyanobenzoate;NSC 62689;4-(Ethoxycarbonyl)benzonitrile;4-Cyanobenzoic acid ethyl ester",
    "duplicated_cas_no": "2756572-96-8",
    "SMILES": "C(OCC)(=O)C1=CC=C(C#N)C=C1",
    "meta_data": {
        "InChI": "InChI=1S/C10H9NO2/c1-2-13-10(12)9-5-3-8(7-11)4-6-9/h3-6H,2H2,1H3",
        "InChIKey": null,
        "Canonical SMILES": "N#CC1=CC=C(C=C1)C(=O)OCC",
        "Molecular Formula": "C<sub>10</sub>H<sub>9</sub>NO<sub>2</sub>",
        "Molecular Mass": "175.18",
        "Boiling Point": "139-140 °C @ Press: 11 Torr",
        "Melting Point": "54 °C"
    }
}