{
    "cas_no": "51218-49-6",
    "key_name": "Pretilachlor",
    "cn_name": "丙草胺;2-氯-N-(2,6-二乙基苯基)-N-(2-丙氧基乙基)乙酰胺;N-(2,6-二乙基苯基)-N-(丙氧基乙基)-氯乙酰胺;",
    "alternate_name": "Acetamide, 2-chloro-<em>N</em>-(2,6-diethylphenyl)-<em>N</em>-(2-propoxyethyl)-;2-Chloro-<em>N</em>-(2,6-diethylphenyl)-<em>N</em>-(2-propoxyethyl)acetamide;Pretilachlor;CG 113;<em>N</em>-Propoxyethyl-<em>N</em>-chloroacetyl-2,6-diethylaniline;Rifit;Rifit 500;Solnet;Erijan",
    "duplicated_cas_no": "81690-06-4",
    "SMILES": "N(CCOCCC)(C(CCl)=O)C1=C(CC)C=CC=C1CC",
    "meta_data": {
        "InChI": "InChI=1S/C17H26ClNO2/c1-4-11-21-12-10-19(16(20)13-18)17-14(5-2)8-7-9-15(17)6-3/h7-9H,4-6,10-13H2,1-3H3",
        "InChIKey": null,
        "Canonical SMILES": "O=C(N(C=1C(=CC=CC1CC)CC)CCOCCC)CCl",
        "Molecular Formula": "C<sub>17</sub>H<sub>26</sub>ClNO<sub>2</sub>",
        "Molecular Mass": "311.85",
        "Boiling Point": "135 °C",
        "Melting Point": "&lt;25 °C"
    }
}