{
    "cas_no": "2160-63-6",
    "key_name": "5-Bromothiophene-2-carboxaldehyde oxime",
    "cn_name": "5-溴硫代苯-2-甲醛肟;5-溴硫代苯-2-甲醛肟;",
    "alternate_name": "2-Thiophenecarboxaldehyde, 5-bromo-, oxime;BTO;5-Bromothiophene-2-carboxaldehyde oxime",
    "duplicated_cas_no": "",
    "SMILES": "C(=NO)C=1SC(Br)=CC1",
    "meta_data": {
        "InChI": "InChI=1S/C5H4BrNOS/c6-5-2-1-4(9-5)3-7-8/h1-3,8H",
        "InChIKey": null,
        "Canonical SMILES": "BrC=1SC(C=NO)=CC1",
        "Molecular Formula": "C<sub>5</sub>H<sub>4</sub>BrNOS",
        "Molecular Mass": "206.06",
        "Melting Point": "138-139 °C"
    }
}