{
    "cas_no": "23526-45-6",
    "key_name": "(+)-Vomifoliol",
    "cn_name": null,
    "alternate_name": "2-Cyclohexen-1-one, 4-hydroxy-4-[(1<em>E</em>,3<em>R</em>)-3-hydroxy-1-buten-1-yl]-3,5,5-trimethyl-, (4<em>S</em>)-;2-Cyclohexen-1-one, 4-hydroxy-4-(3-hydroxy-1-butenyl)-3,5,5-trimethyl-, (+)-;2-Cyclohexen-1-one, 4-hydroxy-4-(3-hydroxy-1-butenyl)-3,5,5-trimethyl-, [<em>S</em>-[<em>R</em>*,<em>S</em>*-(<em>E</em>)]]-;2-Cyclohexen-1-one, 4-hydroxy-4-[(1<em>E</em>,3<em>R</em>)-3-hydroxy-1-butenyl]-3,5,5-trimethyl-, (4<em>S</em>)-;(4<em>S</em>)-4-Hydroxy-4-[(1<em>E</em>,3<em>R</em>)-3-hydroxy-1-buten-1-yl]-3,5,5-trimethyl-2-cyclohexen-1-one;Vomifoliol;Blumenol A;(+)-Vomifoliol;(+)-Blumenol A;(6<em>S</em>,7<em>E</em>,9<em>R</em>)-6,9-Dihydroxy-4,7-megastigmadien-3-one;Roseoside aglycon;(6<em>S</em>,9<em>R</em>)-Vomifoliol;(6<em>S</em>,9<em>R</em>)-6-Hydroxy-3-oxo-α-ionol",
    "duplicated_cas_no": "36151-00-5",
    "SMILES": "C(=C/[C@@H](C)O)\\[C@]1(O)C(C)(C)CC(=O)C=C1C",
    "meta_data": {
        "InChI": "InChI=1S/C13H20O3/c1-9-7-11(15)8-12(3,4)13(9,16)6-5-10(2)14/h5-7,10,14,16H,8H2,1-4H3/b6-5+/t10-,13-/m1/s1",
        "InChIKey": null,
        "Canonical SMILES": "O=C1C=C(C)C(O)(C=CC(O)C)C(C)(C)C1",
        "Molecular Formula": "C<sub>13</sub>H<sub>20</sub>O<sub>3</sub>",
        "Molecular Mass": "224.30",
        "Melting Point": "115 °C"
    }
}