{
    "cas_no": "106-41-2",
    "key_name": "4-Bromophenol",
    "cn_name": "4-溴苯酚;对溴苯酚;",
    "alternate_name": "Phenol, 4-bromo-;Phenol, <em>p</em>-bromo-;4-Bromophenol;<em>p</em>-Bromophenol;<em>p</em>-Bromohydroxybenzene;<em>p</em>-Bromophenic acid;1-Bromo-4-hydroxybenzene;NSC 4970;4-Hydroxyphenyl bromide;4-Hydroxybromobenzene",
    "duplicated_cas_no": "",
    "SMILES": "BrC1=CC=C(O)C=C1",
    "meta_data": {
        "InChI": "InChI=1S/C6H5BrO/c7-5-1-3-6(8)4-2-5/h1-4,8H",
        "InChIKey": null,
        "Canonical SMILES": "BrC1=CC=C(O)C=C1",
        "Molecular Formula": "C<sub>6</sub>H<sub>5</sub>BrO",
        "Molecular Mass": "173.01",
        "Boiling Point": "238 °C",
        "Melting Point": "66.4 °C"
    }
}