{
    "cas_no": "63754-96-1",
    "key_name": "6-Fluoro-2(3<em>H</em>)-benzothiazolone",
    "cn_name": null,
    "alternate_name": "2(3<em>H</em>)-Benzothiazolone, 6-fluoro-;6-Fluoro-2(3<em>H</em>)-benzothiazolone;6-Fluorobenzothiazolin-2-one;6-Fluoro-1,3-benzothiazol-2(3<em>H</em>)-one",
    "duplicated_cas_no": "",
    "SMILES": "O=C1NC=2C(S1)=CC(F)=CC2",
    "meta_data": {
        "InChI": "InChI=1S/C7H4FNOS/c8-4-1-2-5-6(3-4)11-7(10)9-5/h1-3H,(H,9,10)",
        "InChIKey": null,
        "Canonical SMILES": "O=C1SC2=CC(F)=CC=C2N1",
        "Molecular Formula": "C<sub>7</sub>H<sub>4</sub>FNOS",
        "Molecular Mass": "169.18",
        "Melting Point": "188.4 °C"
    }
}