{
    "cas_no": "116-38-1",
    "key_name": "Edrophonium chloride",
    "cn_name": "依酚氯铵;氯化艾卓酚;N-乙基-3-羟基-N,N-二甲基苯胺氯化物;",
    "alternate_name": "Benzenaminium, <em>N</em>-ethyl-3-hydroxy-<em>N</em>,<em>N</em>-dimethyl-, chloride (1:1);Ammonium, ethyl(<em>m</em>-hydroxyphenyl)dimethyl-, chloride;Benzenaminium, <em>N</em>-ethyl-3-hydroxy-<em>N</em>,<em>N</em>-dimethyl-, chloride;Ethyl(<em>m</em>-hydroxyphenyl)dimethylammonium chloride;Dimethylethyl(3-hydroxyphenyl)ammonium chloride;Edrophonium chloride;Tensilon chloride;Tensilon;Ethyl(3-hydroxyphenyl)dimethylammonium chloride;Antirex;Reversol;Enlon;Edrophone chloride",
    "duplicated_cas_no": "",
    "SMILES": "[N+](CC)(C)(C)C1=CC(O)=CC=C1.[Cl-]",
    "meta_data": {
        "InChI": "InChI=1S/C10H15NO.ClH/c1-4-11(2,3)9-6-5-7-10(12)8-9;/h5-8H,4H2,1-3H3;1H",
        "InChIKey": null,
        "Canonical SMILES": "[Cl-].OC1=CC=CC(=C1)[N+](C)(C)CC",
        "Molecular Formula": "C<sub>10</sub>H<sub>16</sub>NO.Cl",
        "Molecular Mass": "",
        "Melting Point": "162-163 °C (decomp)"
    }
}