{
    "cas_no": "20996-62-7",
    "key_name": "(Ethylthio)acetone",
    "cn_name": "(乙基硫代)丙酮;",
    "alternate_name": "2-Propanone, 1-(ethylthio)-;2-Propanone, (ethylthio)-;1-(Ethylthio)-2-propanone;Ethyl 2-oxopropyl sulfide;(Ethylthio)acetone;Acetonyl ethyl sulfide;Ethyl 2-oxo-thiopropionate;Ethyl acetonyl sulfide;NSC 100147;1-(Ethylsulfanyl)propan-2-one",
    "duplicated_cas_no": "",
    "SMILES": "C(C(C)=O)SCC",
    "meta_data": {
        "InChI": "InChI=1S/C5H10OS/c1-3-7-4-5(2)6/h3-4H2,1-2H3",
        "InChIKey": null,
        "Canonical SMILES": "O=C(C)CSCC",
        "Molecular Formula": "C<sub>5</sub>H<sub>10</sub>OS",
        "Molecular Mass": "118.20",
        "Boiling Point": "63.5-71 °C @ Press: 20 Torr",
        "Density": "0.9950 g/cm³ @ Temp: 20 °C"
    }
}