{
    "cas_no": "17773-10-3",
    "key_name": "Choline, iodide",
    "cn_name": "碘化胆碱;(2-羟乙基)三甲基碘化铵;碘化三甲基(2-羟乙基)铵;三甲基(2-羟乙基)碘化铵;碘化胆碱;",
    "alternate_name": "Ethanaminium, 2-hydroxy-<em>N</em>,<em>N</em>,<em>N</em>-trimethyl-, iodide (1:1);Choline, iodide;Ethanaminium, 2-hydroxy-<em>N</em>,<em>N</em>,<em>N</em>-trimethyl-, iodide;Trimethyl(2-hydroxyethyl)ammonium iodide;Dilatol Zambon;2-Hydroxyethyltrimethylammonium iodide",
    "duplicated_cas_no": "",
    "SMILES": "C([N+](C)(C)C)CO.[I-]",
    "meta_data": {
        "InChI": "InChI=1S/C5H14NO.HI/c1-6(2,3)4-5-7;/h7H,4-5H2,1-3H3;1H/q+1;/p-1",
        "InChIKey": null,
        "Canonical SMILES": "[I-].OCC[N+](C)(C)C",
        "Molecular Formula": "C<sub>5</sub>H<sub>14</sub>NO.I",
        "Molecular Mass": "",
        "Melting Point": "258 °C (decomp)"
    }
}