{
    "cas_no": "693-19-6",
    "key_name": "7-Methyloctanoic acid",
    "cn_name": null,
    "alternate_name": "Octanoic acid, 7-methyl-;7-Methyloctanoic acid;Isopelargonic acid;Isononanoic acid",
    "duplicated_cas_no": "",
    "SMILES": "C(CC(C)C)CCCC(O)=O",
    "meta_data": {
        "InChI": "InChI=1S/C9H18O2/c1-8(2)6-4-3-5-7-9(10)11/h8H,3-7H2,1-2H3,(H,10,11)",
        "InChIKey": null,
        "Canonical SMILES": "O=C(O)CCCCCC(C)C",
        "Molecular Formula": "C<sub>9</sub>H<sub>18</sub>O<sub>2</sub>",
        "Molecular Mass": "158.24",
        "Boiling Point": "140.5 °C @ Press: 15 Torr",
        "Melting Point": "3-5 °C"
    }
}