{
    "cas_no": "19771-63-2",
    "key_name": "Procysteine",
    "cn_name": "丙半胱氨酸;L-2-氧硫杂唑烷-4-羧酸;(R)-(-)-2-氧代噻唑啉-4-羧酸;",
    "alternate_name": "4-Thiazolidinecarboxylic acid, 2-oxo-, (4<em>R</em>)-;4-Thiazolidinecarboxylic acid, 2-oxo-, <span class=\"text-smallcaps\">L</span>-;4-Thiazolidinecarboxylic acid, 2-oxo-, (<em>R</em>)-;(4<em>R</em>)-2-Oxo-4-thiazolidinecarboxylic acid;<span class=\"text-smallcaps\">L</span>-2-Oxo-4-thiazolidinecarboxylic acid;(<em>R</em>)-2-Oxothiazolidine-4-carboxylic acid;Procysteine;(<em>R</em>)-(-)-2-Oxothiazolidine-4-carboxylic acid;2-Oxo-<span class=\"text-smallcaps\">L</span>-thiazolidine-4-carboxylic acid;(4<em>R</em>)-2-Oxothiazolidine-4-carboxylic acid;(-)-2-Oxo-4-thiazolidinecarboxylic acid;<em>R</em>-2-Oxo-1,3-thiazolidine-4-carboxylic acid;(4<em>R</em>)-2-Oxo-1,3-thiazolidine-4-carboxylic acid;(4R)-2-Oxo-1,3-thiazolidine-4-carboxylic acid",
    "duplicated_cas_no": "163675-62-5",
    "SMILES": "C(O)(=O)[C@H]1NC(=O)SC1",
    "meta_data": {
        "InChI": "InChI=1S/C4H5NO3S/c6-3(7)2-1-9-4(8)5-2/h2H,1H2,(H,5,8)(H,6,7)/t2-/m0/s1",
        "InChIKey": null,
        "Canonical SMILES": "O=C1SCC(N1)C(=O)O",
        "Molecular Formula": "C<sub>4</sub>H<sub>5</sub>NO<sub>3</sub>S",
        "Molecular Mass": "147.15",
        "Melting Point": "171-173 °C"
    }
}