{
    "cas_no": "773-76-2",
    "key_name": "Chloroxine",
    "cn_name": "5,7-二氯-8-羟基喹啉;",
    "alternate_name": "8-Quinolinol, 5,7-dichloro-;5,7-Dichloro-8-quinolinol;CHQ;5,7-Dichloro-8-hydroxyquinoline;5,7-Dichloroxine;5,7-Dichloro-8-oxyquinoline;Dichlorohydroxyquinoline;Chloroxine;Quesyl;Clofuzid;Dichloroxin;Chloroxyquinoline;Endiaron;Dichloroquinolinol;Quixalin;Quinolor;5,7-Dichlorooxine;Chlofucid;Capitrol;NSC 3904",
    "duplicated_cas_no": "",
    "SMILES": "OC=1C2=C(C(Cl)=CC1Cl)C=CC=N2",
    "meta_data": {
        "InChI": "InChI=1S/C9H5Cl2NO/c10-6-4-7(11)9(13)8-5(6)2-1-3-12-8/h1-4,13H",
        "InChIKey": null,
        "Canonical SMILES": "ClC1=CC(Cl)=C2C=CC=NC2=C1O",
        "Molecular Formula": "C<sub>9</sub>H<sub>5</sub>Cl<sub>2</sub>NO",
        "Molecular Mass": "214.05",
        "Melting Point": "179.5 °C"
    }
}