{
    "cas_no": "52448-17-6",
    "key_name": "6-Bromo-<span class=\"text-smallcaps\">L</span>-tryptophan",
    "cn_name": null,
    "alternate_name": "<span class=\"text-smallcaps\">L</span>-Tryptophan, 6-bromo-;6-Bromo-<span class=\"text-smallcaps\">L</span>-tryptophan;<span class=\"text-smallcaps\">L</span>-6-Bromotryptophan;6-Bromotryptophan;(<em>S</em>)-2-Amino-3-(6-bromo-1<em>H</em>-indol-3-yl)propanoicacid;(2S)-2-Amino-3-(6-bromo-1<em>H</em>-indol-3-yl)propanoic acid;(<em>S</em>)-2-Amino-3-(6-bromo-1<em>H</em>-indol-3-yl)propanoic acid",
    "duplicated_cas_no": "",
    "SMILES": "C([C@@H](C(O)=O)N)C=1C=2C(NC1)=CC(Br)=CC2",
    "meta_data": {
        "InChI": "InChI=1S/C11H11BrN2O2/c12-7-1-2-8-6(3-9(13)11(15)16)5-14-10(8)4-7/h1-2,4-5,9,14H,3,13H2,(H,15,16)/t9-/m0/s1",
        "InChIKey": null,
        "Canonical SMILES": "O=C(O)C(N)CC1=CNC=2C=C(Br)C=CC21",
        "Molecular Formula": "C<sub>11</sub>H<sub>11</sub>BrN<sub>2</sub>O<sub>2</sub>",
        "Molecular Mass": "283.12",
        "Melting Point": "120-122 °C"
    }
}