{
    "cas_no": "5653-80-5",
    "key_name": "(+)-Methadone",
    "cn_name": null,
    "alternate_name": "3-Heptanone, 6-(dimethylamino)-4,4-diphenyl-, (6<em>S</em>)-;3-Heptanone, 6-(dimethylamino)-4,4-diphenyl-, (<em>S</em>)-;(6<em>S</em>)-6-(Dimethylamino)-4,4-diphenyl-3-heptanone;Dextromethadone;(+)-Methadone;<em>d</em>-Methadone;(+)-(6<em>S</em>)-Methadone;Methadone, (+)-;<span class=\"text-smallcaps\">L</span>-(+)-Methadone;(<em>S</em>)-(+)-Methadone;(6<em>S</em>)-Methadone;<em>S</em>-Methadone;<span class=\"text-smallcaps\">L</span>-Methadone;(+)-(<em>S</em>)-Methadone;REL 1017;Esmethadone",
    "duplicated_cas_no": "",
    "SMILES": "C(C[C@@H](N(C)C)C)(C(CC)=O)(C1=CC=CC=C1)C2=CC=CC=C2",
    "meta_data": {
        "InChI": "InChI=1S/C21H27NO/c1-5-20(23)21(16-17(2)22(3)4,18-12-8-6-9-13-18)19-14-10-7-11-15-19/h6-15,17H,5,16H2,1-4H3/t17-/m0/s1",
        "InChIKey": null,
        "Canonical SMILES": "O=C(CC)C(C=1C=CC=CC1)(C=2C=CC=CC2)CC(N(C)C)C",
        "Molecular Formula": "C<sub>21</sub>H<sub>27</sub>NO",
        "Molecular Mass": "309.45",
        "Melting Point": "98.7-99 °C"
    }
}