{
    "cas_no": "642928-07-2",
    "key_name": "Homosildenafil",
    "cn_name": "蒙莫西地那非;",
    "alternate_name": "7<em>H</em>-Pyrazolo[4,3-<em>d</em>]pyrimidin-7-one, 5-[2-ethoxy-5-[(4-ethyl-1-piperazinyl)sulfonyl]phenyl]-1,6-dihydro-1-methyl-3-propyl-;Piperazine, 1-[[3-(4,7-dihydro-1-methyl-7-oxo-3-propyl-1<em>H</em>-pyrazolo[4,3-<em>d</em>]pyrimidin-5-yl)-4-ethoxyphenyl]sulfonyl]-4-ethyl-;5-[2-Ethoxy-5-[(4-ethyl-1-piperazinyl)sulfonyl]phenyl]-1,6-dihydro-1-methyl-3-propyl-7<em>H</em>-pyrazolo[4,3-<em>d</em>]pyrimidin-7-one;Homosildenafil",
    "duplicated_cas_no": "",
    "SMILES": "C(CC)C=1C2=C(C(=O)N=C(N2)C3=C(OCC)C=CC(S(=O)(=O)N4CCN(CC)CC4)=C3)N(C)N1",
    "meta_data": {
        "InChI": "InChI=1S/C23H32N6O4S/c1-5-8-18-20-21(27(4)26-18)23(30)25-22(24-20)17-15-16(9-10-19(17)33-7-3)34(31,32)29-13-11-28(6-2)12-14-29/h9-10,15H,5-8,11-14H2,1-4H3,(H,24,25,30)",
        "InChIKey": null,
        "Canonical SMILES": "O=C1N=C(NC=2C(=NN(C12)C)CCC)C=3C=C(C=CC3OCC)S(=O)(=O)N4CCN(CC)CC4",
        "Molecular Formula": "C<sub>23</sub>H<sub>32</sub>N<sub>6</sub>O<sub>4</sub>S",
        "Molecular Mass": "",
        "Melting Point": "196.5 °C"
    }
}