{
    "cas_no": "6858-44-2",
    "key_name": "1,2,3-Propanetricarboxylic acid, 2-hydroxy-, sodium salt, hydrate (2:6:11)",
    "cn_name": null,
    "alternate_name": "1,2,3-Propanetricarboxylic acid, 2-hydroxy-, sodium salt, hydrate (2:6:11);Citric acid, trisodium salt, hydrate (2:11);1,2,3-Propanetricarboxylic acid, 2-hydroxy-, trisodium salt, hydrate (2:11)",
    "duplicated_cas_no": "",
    "SMILES": "C(CC(O)=O)(CC(O)=O)(C(O)=O)O.[Na].O",
    "meta_data": {
        "InChI": "InChI=1S/C6H8O7.3Na.5H2O/c7-3(8)1-6(13,5(11)12)2-4(9)10;;;;;;;;/h13H,1-2H2,(H,7,8)(H,9,10)(H,11,12);;;;5*1H2",
        "InChIKey": null,
        "Canonical SMILES": "[Na].O=C(O)CC(O)(C(=O)O)CC(=O)O.O",
        "Molecular Formula": "C<sub>6</sub>H<sub>8</sub>O<sub>7</sub>.<sup>11</sup>/<sub>2</sub>H<sub>2</sub>O.3Na",
        "Molecular Mass": "",
        "Melting Point": "150 °C (decomp)"
    }
}