{
    "cas_no": "304-55-2",
    "key_name": "<em>meso</em>-2,3-Dimercaptosuccinic acid",
    "cn_name": "2,3-二巯基丁二酸;2,3-二巯基琥珀酸;",
    "alternate_name": "Butanedioic acid, 2,3-dimercapto-, (2<em>R</em>,3<em>S</em>)-<em>rel</em>-;Succinic acid, 2,3-dimercapto-, <em>meso</em>-;Butanedioic acid, 2,3-dimercapto-, (<em>R</em>*,<em>S</em>*)-;<em>rel</em>-(2<em>R</em>,3<em>S</em>)-2,3-Dimercaptobutanedioic acid;DMS;<em>meso</em>-Dimercaptosuccinic acid;<em>meso</em>-2,3-Dimercaptosuccinic acid;Succimer;Ro 1-7977;DMSA;Chemet;DIM-SA",
    "duplicated_cas_no": "",
    "SMILES": "[C@H]([C@H](C(O)=O)S)(C(O)=O)S",
    "meta_data": {
        "InChI": "InChI=1/C4H6O4S2/c5-3(6)1(9)2(10)4(7)8/h1-2,9-10H,(H,5,6)(H,7,8)/t1-,2+",
        "InChIKey": null,
        "Canonical SMILES": "O=C(O)C(S)C(S)C(=O)O",
        "Molecular Formula": "C<sub>4</sub>H<sub>6</sub>O<sub>4</sub>S<sub>2</sub>",
        "Molecular Mass": "182.22",
        "Melting Point": "192-194 °C"
    }
}