{
    "cas_no": "78-36-4",
    "key_name": "Linalyl butyrate",
    "cn_name": "丁酸-1-乙烯基-1,5-二甲基-4-己烯基酯;",
    "alternate_name": "Butanoic acid, 1-ethenyl-1,5-dimethyl-4-hexen-1-yl ester;Butyric acid, 1,5-dimethyl-1-vinyl-4-hexenyl ester;Butyric acid linalyl ester;Butanoic acid, 1-ethenyl-1,5-dimethyl-4-hexenyl ester;1,6-Octadien-3-ol, 3,7-dimethyl-, butyrate;3,7-Dimethyl-1,6-octadien-3-ol butyrate;3,7-Dimethyl-1,6-octadien-3-yl butyrate;Linalyl butyrate;Linalool butyrate;Linalyl butanoate;NSC 46144;3,7-Dimethylocta-1,6-dien-3-yl butanoate",
    "duplicated_cas_no": "",
    "SMILES": "C(OC(CCC)=O)(CCC=C(C)C)(C=C)C",
    "meta_data": {
        "InChI": "InChI=1S/C14H24O2/c1-6-9-13(15)16-14(5,7-2)11-8-10-12(3)4/h7,10H,2,6,8-9,11H2,1,3-5H3",
        "InChIKey": null,
        "Canonical SMILES": "O=C(OC(C=C)(C)CCC=C(C)C)CCC",
        "Molecular Formula": "C<sub>14</sub>H<sub>24</sub>O<sub>2</sub>",
        "Molecular Mass": "224.34",
        "Boiling Point": "80-82 °C @ Press: 0.2 Torr"
    }
}