{
    "cas_no": "32329-20-7",
    "key_name": "3,4-Dihydro-3-methyl-2H-1,4-benzoxazine",
    "cn_name": null,
    "alternate_name": "2<em>H</em>-1,4-Benzoxazine, 3,4-dihydro-3-methyl-;3,4-Dihydro-3-methyl-2<em>H</em>-1,4-benzoxazine;3-Methyl-3,4-dihydro-2<em>H</em>-1,4-benzoxazine;2,3-Dihydro-3-methyl-4<em>H</em>-1,4-benzoxazine;3-Methyl-3,4-dihydro-2<em>H</em>-benzo[1,4]oxazine;3,4-Dihydro-3-methyl-2H-1,4-benzoxazine;3-Methyl-3,4-dihydro-2<em>H</em>-benzo[<em>b</em>][1,4]oxazine",
    "duplicated_cas_no": "113708-92-2",
    "SMILES": "CC1NC=2C(OC1)=CC=CC2",
    "meta_data": {
        "InChI": "InChI=1S/C9H11NO/c1-7-6-11-9-5-3-2-4-8(9)10-7/h2-5,7,10H,6H2,1H3",
        "InChIKey": null,
        "Canonical SMILES": "O1C=2C=CC=CC2NC(C)C1",
        "Molecular Formula": "C<sub>9</sub>H<sub>11</sub>NO",
        "Molecular Mass": "149.19",
        "Boiling Point": "165 °C @ Press: 16 Torr"
    }
}