{
    "cas_no": "3466-15-7",
    "key_name": "(+)-Cyperotundone",
    "cn_name": null,
    "alternate_name": "3<em>H</em>-3a,7-Methanoazulen-2(4<em>H</em>)-one, 5,6,7,8-tetrahydro-1,4,9,9-tetramethyl-, (3a<em>R</em>,4<em>R</em>,7<em>R</em>)-;3<em>H</em>-3a,7-Methanoazulen-2(4<em>H</em>)-one, 5,6,7α,8-tetrahydro-1,4α,9,9-tetramethyl-, (+)-;3<em>H</em>-3a,7-Methanoazulen-2(4<em>H</em>)-one, 5,6,7,8-tetrahydro-1,4,9,9-tetramethyl-, [3a<em>R</em>-(3aα,4β,7α)]-;3<em>H</em>-3a,7-Methanoazulen-2(4<em>H</em>)-one, 5,6,7α,8-tetrahydro-1,4α,9,9-tetramethyl-;(3a<em>R</em>,4<em>R</em>,7<em>R</em>)-5,6,7,8-Tetrahydro-1,4,9,9-tetramethyl-3<em>H</em>-3a,7-methanoazulen-2(4<em>H</em>)-one;Cyperotundone;Cyperenone;Isopatchoulenone;(+)-Cyperotundone",
    "duplicated_cas_no": "4678-34-6;4755-43-5;25491-22-9;31104-80-0",
    "SMILES": "C[C@@]1(C)[C@]23C(C[C@]1(CC[C@H]2C)[H])=C(C)C(=O)C3",
    "meta_data": {
        "InChI": "InChI=1S/C15H22O/c1-9-5-6-11-7-12-10(2)13(16)8-15(9,12)14(11,3)4/h9,11H,5-8H2,1-4H3/t9-,11-,15+/m1/s1",
        "InChIKey": null,
        "Canonical SMILES": "O=C1C(=C2CC3CCC(C)C2(C1)C3(C)C)C",
        "Molecular Formula": "C<sub>15</sub>H<sub>22</sub>O",
        "Molecular Mass": "218.33",
        "Melting Point": "46-47.5 °C"
    }
}