{
    "cas_no": "4498-67-3",
    "key_name": "Indazole-3-carboxylic acid",
    "cn_name": "吲唑-3-羧酸;1H-吲唑-3-羧酸;",
    "alternate_name": "1<em>H</em>-Indazole-3-carboxylic acid;Indazole-3-carboxylic acid;3-Carboxy-1<em>H</em>-indazole;3(1<em>H</em>)-Indazolecarboxylic acid;NSC 520610;3-Carboxyindazole",
    "duplicated_cas_no": "",
    "SMILES": "C(O)(=O)C=1C=2C(NN1)=CC=CC2",
    "meta_data": {
        "InChI": "InChI=1S/C8H6N2O2/c11-8(12)7-5-3-1-2-4-6(5)9-10-7/h1-4H,(H,9,10)(H,11,12)",
        "InChIKey": null,
        "Canonical SMILES": "O=C(O)C1=NNC=2C=CC=CC12",
        "Molecular Formula": "C<sub>8</sub>H<sub>6</sub>N<sub>2</sub>O<sub>2</sub>",
        "Molecular Mass": "162.15",
        "Melting Point": "259-260 °C"
    }
}