{
    "cas_no": "18028-96-1",
    "key_name": "Dichloromethyl(2-methylpropyl)silane",
    "cn_name": "二氯异丁基甲基硅烷;二氯异丁基甲基硅烷,97%;",
    "alternate_name": "Silane, dichloromethyl(2-methylpropyl)-;Silane, dichloroisobutylmethyl-;Dichloromethyl(2-methylpropyl)silane;Dichloro(isobutyl)(methyl)silane;Isobutyldichloro(methyl)silane",
    "duplicated_cas_no": "",
    "SMILES": "C([Si](C)(Cl)Cl)C(C)C",
    "meta_data": {
        "InChI": "InChI=1S/C5H12Cl2Si/c1-5(2)4-8(3,6)7/h5H,4H2,1-3H3",
        "InChIKey": null,
        "Canonical SMILES": "Cl[Si](Cl)(C)CC(C)C",
        "Molecular Formula": "C<sub>5</sub>H<sub>12</sub>Cl<sub>2</sub>Si",
        "Molecular Mass": "171.14",
        "Boiling Point": "137.8 °C @ Press: 735 Torr",
        "Density": "1.0281 g/cm³ @ Temp: 20 °C"
    }
}