{
    "cas_no": "2781-11-5",
    "key_name": "Diethyl <em>P</em>-[[bis(2-hydroxyethyl)amino]methyl]phosphonate",
    "cn_name": "阻燃剂FRC-6;",
    "alternate_name": "Phosphonic acid, <em>P</em>-[[bis(2-hydroxyethyl)amino]methyl]-, diethyl ester;Phosphonic acid, [[bis(2-hydroxyethyl)amino]methyl]-, diethyl ester;Diethyl <em>P</em>-[[bis(2-hydroxyethyl)amino]methyl]phosphonate;Fyrol 6;Diethyl [[<em>N</em>,<em>N</em>-bis(2-hydroxyethyl)amino]methyl]phosphonate;Diethyl [(diethanolamino)methyl]phosphonate;Diethyl [[bis(2-hydroxyethyl)amino]methyl]phosphonate;Diethyl [<em>N</em>,<em>N</em>-bis(2-hydroxyethyl)amino]methanephosphonate;Adeka FC 450;FC 450;Levagard 4090;NSC 82342;Levagard 4090N;FRC 6;<em>N</em>,<em>N</em>-Bis(2-hydroxyethyl)aminomethylphosphonic acid diethyl ester;Diethyl <em>N</em>,<em>N</em>′-bis(2-hydroxyethyl)aminomethylphosphonate;WSFR 6;2-[Diethoxyphosphorylmethyl(2-hydroxyethyl)amino]ethanol",
    "duplicated_cas_no": "109223-83-8;163447-57-2",
    "SMILES": "P(CN(CCO)CCO)(OCC)(OCC)=O",
    "meta_data": {
        "InChI": "InChI=1S/C9H22NO5P/c1-3-14-16(13,15-4-2)9-10(5-7-11)6-8-12/h11-12H,3-9H2,1-2H3",
        "InChIKey": null,
        "Canonical SMILES": "O=P(OCC)(OCC)CN(CCO)CCO",
        "Molecular Formula": "C<sub>9</sub>H<sub>22</sub>NO<sub>5</sub>P",
        "Molecular Mass": "255.25",
        "Boiling Point": "150 °C @ Press: 0.1 Torr"
    }
}