{
    "cas_no": "22283-43-8",
    "key_name": "<em>N</em>-[4-(Dimethylamino)phenyl]thiourea",
    "cn_name": null,
    "alternate_name": "Thiourea, <em>N</em>-[4-(dimethylamino)phenyl]-;Urea, 1-[<em>p</em>-(dimethylamino)phenyl]-2-thio-;Thiourea, [4-(dimethylamino)phenyl]-;<em>N</em>-[4-(Dimethylamino)phenyl]thiourea;[4-(Dimethylamino)phenyl]thiourea;1-[4-(Dimethylamino)phenyl]-2-thiourea",
    "duplicated_cas_no": "",
    "SMILES": "N(C(N)=S)C1=CC=C(N(C)C)C=C1",
    "meta_data": {
        "InChI": "InChI=1S/C9H13N3S/c1-12(2)8-5-3-7(4-6-8)11-9(10)13/h3-6H,1-2H3,(H3,10,11,13)",
        "InChIKey": null,
        "Canonical SMILES": "S=C(N)NC1=CC=C(C=C1)N(C)C",
        "Molecular Formula": "C<sub>9</sub>H<sub>13</sub>N<sub>3</sub>S",
        "Molecular Mass": "195.28",
        "Melting Point": "180-181 °C"
    }
}