{
    "cas_no": "2555-05-7",
    "key_name": "3-Methyl-2-pyrrolidinone",
    "cn_name": null,
    "alternate_name": "2-Pyrrolidinone, 3-methyl-;3-Methyl-2-pyrrolidinone;3-Methyl-2-pyrrolidone",
    "duplicated_cas_no": "131065-32-2",
    "SMILES": "CC1C(=O)NCC1",
    "meta_data": {
        "InChI": "InChI=1S/C5H9NO/c1-4-2-3-6-5(4)7/h4H,2-3H2,1H3,(H,6,7)",
        "InChIKey": null,
        "Canonical SMILES": "O=C1NCCC1C",
        "Molecular Formula": "C<sub>5</sub>H<sub>9</sub>NO",
        "Molecular Mass": "99.13",
        "Boiling Point": "118-120 °C @ Press: 10 Torr",
        "Melting Point": "58-59.5 °C"
    }
}