{
    "cas_no": "1069-79-0",
    "key_name": "1,2-Distearoyl-<em>sn</em>-<em>glycero</em>-3-phosphoethanolamine",
    "cn_name": "1,2二硬酯酸-3磷脂酰乙醇胺;L-β,γ-二硬脂酰-α-脑磷脂;β,γ-二硬脂酰-L-α-脑磷脂；L-α-二硬脂酰磷脂酰;",
    "alternate_name": "Octadecanoic acid, 1,1′-[(1<em>R</em>)-1-[[[(2-aminoethoxy)hydroxyphosphinyl]oxy]methyl]-1,2-ethanediyl] ester;Stearin, 1,2-di-, 2-aminoethyl hydrogen phosphate, <span class=\"text-smallcaps\">L</span>-;Octadecanoic acid, 1-[[[(2-aminoethoxy)hydroxyphosphinyl]oxy]methyl]-1,2-ethanediyl ester, (<em>R</em>)-;Octadecanoic acid, (1<em>R</em>)-1-[[[(2-aminoethoxy)hydroxyphosphinyl]oxy]methyl]-1,2-ethanediyl ester;<span class=\"text-smallcaps\">L</span>-β,γ-Distearoyl-α-phosphatidylethanolamine;<span class=\"text-smallcaps\">L</span>-α-Distearoylphosphatidylethanolamine;1,2-Distearoyl-<em>sn</em>-<em>glycero</em>-3-phosphoethanolamine;(<em>R</em>)-Distearoylphosphatidylethanolamine;1,2-Distearoyl-sn-<em>glycero</em>-3-phosphatidylethanolamine;Distearoyl-<span class=\"text-smallcaps\">L</span>-α-phosphatidylethanolamine;DSPE;1,2-Distearoyl-<em>sn</em>-<em>glycero</em>-3-phosphorylethanolamine;Coatsome ME 8080;1,2-Distearoyl-sn-giycero-3-phosphoethanolamine",
    "duplicated_cas_no": "",
    "SMILES": "[C@@H](OC(CCCCCCCCCCCCCCCCC)=O)(COC(CCCCCCCCCCCCCCCCC)=O)COP(OCCN)(=O)O",
    "meta_data": {
        "InChI": "InChI=1S/C41H82NO8P/c1-3-5-7-9-11-13-15-17-19-21-23-25-27-29-31-33-40(43)47-37-39(38-49-51(45,46)48-36-35-42)50-41(44)34-32-30-28-26-24-22-20-18-16-14-12-10-8-6-4-2/h39H,3-38,42H2,1-2H3,(H,45,46)/t39-/m1/s1",
        "InChIKey": null,
        "Canonical SMILES": "O=C(OCC(OC(=O)CCCCCCCCCCCCCCCCC)COP(=O)(O)OCCN)CCCCCCCCCCCCCCCCC",
        "Molecular Formula": "C<sub>41</sub>H<sub>82</sub>NO<sub>8</sub>P",
        "Molecular Mass": "748.07",
        "Melting Point": "173-175 °C"
    }
}