{
    "cas_no": "18092-54-1",
    "key_name": "4-Methoxy-2-nitrobenzenesulfonyl chloride",
    "cn_name": "4-甲氧基-2-硝基苯磺酰氯;",
    "alternate_name": "Benzenesulfonyl chloride, 4-methoxy-2-nitro-;4-Methoxy-2-nitrobenzenesulfonyl chloride;4-Methoxy-2-nitrophenylsulfonyl chloride;2-Nitro-4-methoxybenzenesulfonyl chloride;4-Methoxy-2-nitrobenzene-1-sulfonyl chloride",
    "duplicated_cas_no": "",
    "SMILES": "N(=O)(=O)C1=C(S(Cl)(=O)=O)C=CC(OC)=C1",
    "meta_data": {
        "InChI": "InChI=1S/C7H6ClNO5S/c1-14-5-2-3-7(15(8,12)13)6(4-5)9(10)11/h2-4H,1H3",
        "InChIKey": null,
        "Canonical SMILES": "O=N(=O)C1=CC(OC)=CC=C1S(=O)(=O)Cl",
        "Molecular Formula": "C<sub>7</sub>H<sub>6</sub>ClNO<sub>5</sub>S",
        "Molecular Mass": "251.64",
        "Melting Point": "74-75 °C"
    }
}