{
    "cas_no": "6283-63-2",
    "key_name": "Diethyl-<em>p</em>-phenylenediamine sulfate",
    "cn_name": null,
    "alternate_name": "1,4-Benzenediamine, <em>N</em><sup>1</sup>,<em>N</em><sup>1</sup>-diethyl-, sulfate (1:1);<em>p</em>-Phenylenediamine, <em>N</em>,<em>N</em>-diethyl-, sulfate (1:1);1,4-Benzenediamine, <em>N</em>,<em>N</em>-diethyl-, sulfate (1:1);<em>N</em>,<em>N</em>-Diethyl-<em>p</em>-phenylenediamine sulfate;Diethyl-<em>p</em>-phenylenediamine sulfate;<em>N</em>,<em>N</em>-Diethyl-1,4-phenylenediamine sulfate;NSC 7653;<em>N</em>,<em>N</em>-Diethylbenzene-1,4-diamine sulfate;<em>N</em>,<em>N</em>′-Diethyl-1,4-phenylenediammonium sulfate",
    "duplicated_cas_no": "",
    "SMILES": "S(=O)(=O)(O)O.N(CC)(CC)C1=CC=C(N)C=C1",
    "meta_data": {
        "InChI": "InChI=1S/C10H16N2.H2O4S/c1-3-12(4-2)10-7-5-9(11)6-8-10;1-5(2,3)4/h5-8H,3-4,11H2,1-2H3;(H2,1,2,3,4)",
        "InChIKey": null,
        "Canonical SMILES": "O=S(=O)(O)O.NC1=CC=C(C=C1)N(CC)CC",
        "Molecular Formula": "C<sub>10</sub>H<sub>16</sub>N<sub>2</sub>.H<sub>2</sub>O<sub>4</sub>S",
        "Molecular Mass": "",
        "Melting Point": "182-184 °C"
    }
}