{
    "cas_no": "769-39-1",
    "key_name": "2,3,5,6-Tetrafluorophenol",
    "cn_name": "2,3,5,6-四氟苯酚;",
    "alternate_name": "Phenol, 2,3,5,6-tetrafluoro-;2,3,5,6-Tetrafluorophenol;1,2,4,5-Tetrafluoro-3-hydroxybenzene;NSC 88309",
    "duplicated_cas_no": "",
    "SMILES": "FC1=C(O)C(F)=C(F)C=C1F",
    "meta_data": {
        "InChI": "InChI=1S/C6H2F4O/c7-2-1-3(8)5(10)6(11)4(2)9/h1,11H",
        "InChIKey": null,
        "Canonical SMILES": "FC=1C=C(F)C(F)=C(O)C1F",
        "Molecular Formula": "C<sub>6</sub>H<sub>2</sub>F<sub>4</sub>O",
        "Molecular Mass": "166.07",
        "Boiling Point": "140 °C",
        "Melting Point": "38 °C"
    }
}