{
    "cas_no": "5465-13-4",
    "key_name": "1,2,4,5-Tetramethyl-3,6-dinitrobenzene",
    "cn_name": "二硝基均四甲苯;",
    "alternate_name": "Benzene, 1,2,4,5-tetramethyl-3,6-dinitro-;1,2,4,5-Tetramethyl-3,6-dinitrobenzene;3,6-Dinitro-1,2,4,5-tetramethylbenzene;1,4-Dinitrodurene;1,4-Dinitro-2,3,5,6-tetramethylbenzene;Tetramethyl-1,4-dinitrobenzene;2,3,5,6-Tetramethyl-1,4-dinitrobenzene;NSC 28984",
    "duplicated_cas_no": "",
    "SMILES": "N(=O)(=O)C1=C(C)C(C)=C(N(=O)=O)C(C)=C1C",
    "meta_data": {
        "InChI": "InChI=1S/C10H12N2O4/c1-5-6(2)10(12(15)16)8(4)7(3)9(5)11(13)14/h1-4H3",
        "InChIKey": null,
        "Canonical SMILES": "O=N(=O)C=1C(=C(C(=C(C1C)C)N(=O)=O)C)C",
        "Molecular Formula": "C<sub>10</sub>H<sub>12</sub>N<sub>2</sub>O<sub>4</sub>",
        "Molecular Mass": "224.21",
        "Melting Point": "211.5 °C",
        "Density": "1.330 g/cm³"
    }
}