{
    "cas_no": "2192-20-3",
    "key_name": "Hydroxyzine hydrochloride",
    "cn_name": "盐酸羟嗪;2-[2-[4-(4-氯苯基)苯甲基-1-哌嗪基]乙氧基]-乙醇二盐酸盐;",
    "alternate_name": "Ethanol, 2-[2-[4-[(4-chlorophenyl)phenylmethyl]-1-piperazinyl]ethoxy]-, hydrochloride (1:2);Ethanol, 2-[2-[4-(<em>p</em>-chloro-α-phenylbenzyl)-1-piperazinyl]ethoxy]-, dihydrochloride;Ethanol, 2-[2-[4-[(4-chlorophenyl)phenylmethyl]-1-piperazinyl]ethoxy]-, dihydrochloride;Atarax dihydrochloride;1-(<em>p</em>-Chlorobenzhydryl)-4-[2-(2-hydroxyethoxy)ethyl]diethylenediamine dihydrochloride;2-[2-[4-(<em>p</em>-Chloro-α-phenylbenzyl)-1-piperazinyl]ethoxy]ethanol dihydrochloride;Hydroxyzine dihydrochloride;Vistaril Steraject;Atarax;Hydroxyzine hydrochloride;Neurolax;Durrax;Quiess;Hydroxyzyne hydrochloride;Alamon;Orgatrax;Vistaril Parenteral;QYS;Aterax;Atranine A;Atarax P Parenteral soln.;Hydroxizine chloride;2-(2-(4-((4-Chlorophenyl)(phenyl)methyl)piperazin-1-yl)ethoxy)ethanol dihydrochloride",
    "duplicated_cas_no": "",
    "SMILES": "C(N1CCN(CCOCCO)CC1)(C2=CC=C(Cl)C=C2)C3=CC=CC=C3.Cl",
    "meta_data": {
        "InChI": "InChI=1S/C21H27ClN2O2.2ClH/c22-20-8-6-19(7-9-20)21(18-4-2-1-3-5-18)24-12-10-23(11-13-24)14-16-26-17-15-25;;/h1-9,21,25H,10-17H2;2*1H",
        "InChIKey": null,
        "Canonical SMILES": "Cl.ClC1=CC=C(C=C1)C(C=2C=CC=CC2)N3CCN(CCOCCO)CC3",
        "Molecular Formula": "C<sub>21</sub>H<sub>27</sub>ClN<sub>2</sub>O<sub>2</sub>.2ClH",
        "Molecular Mass": "",
        "Melting Point": "193 °C"
    }
}