{
    "cas_no": "80-39-7",
    "key_name": "<em>N</em>-Ethyl-4-methylbenzenesulfonamide",
    "cn_name": "N-乙基对甲苯磺酰胺;",
    "alternate_name": "Benzenesulfonamide, <em>N</em>-ethyl-4-methyl-;<em>p</em>-Toluenesulfonamide, <em>N</em>-ethyl-;<em>N</em>-Ethyl-4-methylbenzenesulfonamide;<em>N</em>-Ethyl-<em>p</em>-toluenesulfonamide;<em>p</em>-Toluene-<em>N</em>-ethylsulfonamide;<em>p</em>-Toluenesulfonyl-<em>N</em>-ethylamide;Santicizer 3;<em>N</em>-Tosylethylamine;<em>N</em>-Ethyl-<em>p</em>-tolylsulfonamide;<em>N</em>-Ethyl-<em>p</em>-methylbenzenesulfonamide;<em>N</em>-Ethyltosylamide;NSC 68803;<em>N</em>-Ethyl-4-toluenesulfonamide",
    "duplicated_cas_no": "825629-31-0",
    "SMILES": "S(NCC)(=O)(=O)C1=CC=C(C)C=C1",
    "meta_data": {
        "InChI": "InChI=1S/C9H13NO2S/c1-3-10-13(11,12)9-6-4-8(2)5-7-9/h4-7,10H,3H2,1-2H3",
        "InChIKey": null,
        "Canonical SMILES": "O=S(=O)(NCC)C1=CC=C(C=C1)C",
        "Molecular Formula": "C<sub>9</sub>H<sub>13</sub>NO<sub>2</sub>S",
        "Molecular Mass": "199.27",
        "Melting Point": "64 °C"
    }
}