{
    "cas_no": "1741-41-9",
    "key_name": "1,1-Diethoxy-2-methylpropane",
    "cn_name": "异丁醛二乙缩醛;",
    "alternate_name": "Propane, 1,1-diethoxy-2-methyl-;Isobutyraldehyde, diethyl acetal;1,1-Diethoxy-2-methylpropane;Isobutylaldehyde diethyl acetal;1,1-Diethoxyisobutane",
    "duplicated_cas_no": "",
    "SMILES": "C(OCC)(OCC)C(C)C",
    "meta_data": {
        "InChI": "InChI=1S/C8H18O2/c1-5-9-8(7(3)4)10-6-2/h7-8H,5-6H2,1-4H3",
        "InChIKey": null,
        "Canonical SMILES": "O(CC)C(OCC)C(C)C",
        "Molecular Formula": "C<sub>8</sub>H<sub>18</sub>O<sub>2</sub>",
        "Molecular Mass": "146.23",
        "Boiling Point": "135-136 °C @ Press: 745 Torr",
        "Density": "0.8295 g/cm³ @ Temp: 20 °C"
    }
}