{
    "cas_no": "91-61-2",
    "key_name": "6-Methyl-1,2,3,4-tetrahydroquinoline",
    "cn_name": "6-甲基-1,2,3,4-四羟基喹啉;6-甲基-1,2,3,4-四氢喹啉;",
    "alternate_name": "Quinoline, 1,2,3,4-tetrahydro-6-methyl-;1,2,3,4-Tetrahydro-6-methylquinoline;Civettal;6-Methyl-1,2,3,4-tetrahydroquinoline;NSC 65606;6-Methyltetrahydroquinoline",
    "duplicated_cas_no": "",
    "SMILES": "CC=1C=C2C(=CC1)NCCC2",
    "meta_data": {
        "InChI": "InChI=1S/C10H13N/c1-8-4-5-10-9(7-8)3-2-6-11-10/h4-5,7,11H,2-3,6H2,1H3",
        "InChIKey": null,
        "Canonical SMILES": "C=1C=C2NCCCC2=CC1C",
        "Molecular Formula": "C<sub>10</sub>H<sub>13</sub>N",
        "Molecular Mass": "147.22",
        "Boiling Point": "159 °C @ Press: 28 Torr",
        "Melting Point": "36-37 °C"
    }
}