{
    "cas_no": "2411-36-1",
    "key_name": "Triheptylamine",
    "cn_name": "三庚胺;",
    "alternate_name": "1-Heptanamine, <em>N</em>,<em>N</em>-diheptyl-;Triheptylamine;<em>N</em>,<em>N</em>-Diheptyl-1-heptanamine;Tri-<em>n</em>-heptylamine",
    "duplicated_cas_no": "",
    "SMILES": "N(CCCCCCC)(CCCCCCC)CCCCCCC",
    "meta_data": {
        "InChI": "InChI=1S/C21H45N/c1-4-7-10-13-16-19-22(20-17-14-11-8-5-2)21-18-15-12-9-6-3/h4-21H2,1-3H3",
        "InChIKey": null,
        "Canonical SMILES": "N(CCCCCCC)(CCCCCCC)CCCCCCC",
        "Molecular Formula": "C<sub>21</sub>H<sub>45</sub>N",
        "Molecular Mass": "311.59",
        "Boiling Point": "330 °C"
    }
}