{
    "cas_no": "2216-92-4",
    "key_name": "<em>N</em>-Phenylglycine ethyl ester",
    "cn_name": "N-苯基甘氨酸乙酯;N-苯基氨基乙酸乙基醚;",
    "alternate_name": "Glycine, <em>N</em>-phenyl-, ethyl ester;<em>N</em>-Phenylglycine ethyl ester;Ethyl phenylglycinate;Ethyl <em>N</em>-phenylglycinate;Phenylglycine ethyl ester;Ethyl 2-(phenylamino)acetate;Ethyl anilinoacetate",
    "duplicated_cas_no": "",
    "SMILES": "N(CC(OCC)=O)C1=CC=CC=C1",
    "meta_data": {
        "InChI": "InChI=1S/C10H13NO2/c1-2-13-10(12)8-11-9-6-4-3-5-7-9/h3-7,11H,2,8H2,1H3",
        "InChIKey": null,
        "Canonical SMILES": "O=C(OCC)CNC=1C=CC=CC1",
        "Molecular Formula": "C<sub>10</sub>H<sub>13</sub>NO<sub>2</sub>",
        "Molecular Mass": "179.22",
        "Boiling Point": "273.5 °C",
        "Melting Point": "58 °C"
    }
}