{
    "cas_no": "7173-51-5",
    "key_name": "Didecyldimethylammonium chloride",
    "cn_name": null,
    "alternate_name": "1-Decanaminium, <em>N</em>-decyl-<em>N</em>,<em>N</em>-dimethyl-, chloride (1:1);Ammonium, didecyldimethyl-, chloride;Didecyldimethylammonium chloride;1-Decanaminium, <em>N</em>-decyl-<em>N</em>,<em>N</em>-dimethyl-, chloride;Dimethyldidecylammonium chloride;Bardac 22;Quaternium 12;BTC 1010;Querton 210CL;Dodigen 1881;Arquad 10;Tret-O-Lite XC 507;Bardac 2250;Bardac 2280;Nissan Cation 2DB;Calgon H 130;Astop;Bio-Dac;Arquad 210-50;Bardac 2270E;H 130;H 130 (molluscicide);DDAC;DDC 80;Timbercote 2000;Slaoff 91;Britewood Q;BTC 99;Didecyldimethylammounium chloride;Maquat 4480E;Quartamin D 10E;Quartamin D 10P;D 10P;Cation DDC;BTC 2250;Britewood XL;Catiogen DDM;Arquad 210-50E;AQ 210;Microbiocide B 74;Arquad 210;Arquad 210-80E;Kamin RM 2D50A;Macrotrol MT 200;Sporekill;Arquad 210-80;Stenquat 1010;Asepas 3;Acticide DDQ;Arquad 210-85E;Nissan Cation 2DB500E;K-Sanit BP 80;Bardac 2240;KleenGrow;Cation DDC 50;Acticide DDQ 40;M 21080;Catiogen DDM-PG;2DB 500E;Acticide;Microbiocide N 750;<em>N</em>,<em>N</em>-Didecyl-<em>N</em>,<em>N</em>-dimethylammonium chloride;Septapav KhS 70;New Des 50;Cation DDC 80;Nissan Cation 2DB800E;Fentacare 1021-80;Bardac 2270ETM;Bardac 50;Lipoquad 210-80E;Bardac 2250R;Bardac 2280R;BTC 1010E;Bardac 2280G;Maquat 4450T;Bardac 2250J;Arquad 210-70HFP;Uniquat 2240;Di-<em>n</em>-decyl-dimethylammonium chloride;DDAC 80;Acticide DDQ 80;Fentacare D 1021;Arquad 2.1-80;Uniquat 2250;Decamethylammonium chloride",
    "duplicated_cas_no": "126851-24-9;129186-13-6;154765-32-9;446279-85-2;879292-51-0;1094740-76-7;1632379-58-8",
    "SMILES": "C([N+](CCCCCCCCCC)(C)C)CCCCCCCCC.[Cl-]",
    "meta_data": {
        "InChI": "InChI=1S/C22H48N.ClH/c1-5-7-9-11-13-15-17-19-21-23(3,4)22-20-18-16-14-12-10-8-6-2;/h5-22H2,1-4H3;1H/q+1;/p-1",
        "InChIKey": null,
        "Canonical SMILES": "[Cl-].CCCCCCCCCC[N+](C)(C)CCCCCCCCCC",
        "Molecular Formula": "C<sub>22</sub>H<sub>48</sub>N.Cl",
        "Molecular Mass": "",
        "Melting Point": "88 °C"
    }
}