{
    "cas_no": "1415-73-2",
    "key_name": "Barbaloin",
    "cn_name": null,
    "alternate_name": "9(10<em>H</em>)-Anthracenone, 10-β-<span class=\"text-smallcaps\">D</span>-glucopyranosyl-1,8-dihydroxy-3-(hydroxymethyl)-, (10<em>S</em>)-;Barbaloin;9(10<em>H</em>)-Anthracenone, 10-β-<span class=\"text-smallcaps\">D</span>-glucopyranosyl-1,8-dihydroxy-3-(hydroxymethyl)-, (<em>S</em>)-;Anthrone, 10-glucopyranosyl-1,8-dihydroxy-3-(hydroxymethyl)-;(10<em>S</em>)-10-β-<span class=\"text-smallcaps\">D</span>-Glucopyranosyl-1,8-dihydroxy-3-(hydroxymethyl)-9(10<em>H</em>)-anthracenone;Aloin;Aloin A;Barbaloin A;NSC 407305;10-<em>epi</em>-Aloin B",
    "duplicated_cas_no": "5133-19-7;10361-17-8;11019-96-8;20226-90-8;25429-08-7;31017-11-5;31048-97-2;73649-92-0",
    "SMILES": "O[C@H]1[C@]([C@@]2(C=3C(C(=O)C=4C2=CC=CC4O)=C(O)C=C(CO)C3)[H])(O[C@H](CO)[C@@H](O)[C@@H]1O)[H]",
    "meta_data": {
        "InChI": "InChI=1S/C21H22O9/c22-6-8-4-10-14(21-20(29)19(28)17(26)13(7-23)30-21)9-2-1-3-11(24)15(9)18(27)16(10)12(25)5-8/h1-5,13-14,17,19-26,28-29H,6-7H2/t13-,14+,17-,19+,20-,21+/m1/s1",
        "InChIKey": null,
        "Canonical SMILES": "O=C1C=2C(O)=CC=CC2C(C3=CC(=CC(O)=C13)CO)C4OC(CO)C(O)C(O)C4O",
        "Molecular Formula": "C<sub>21</sub>H<sub>22</sub>O<sub>9</sub>",
        "Molecular Mass": "418.39",
        "Melting Point": "148-149 °C"
    }
}