{
    "cas_no": "17043-05-9",
    "key_name": "1-Bromo-4-(trimethoxysilyl)benzene",
    "cn_name": null,
    "alternate_name": "Benzene, 1-bromo-4-(trimethoxysilyl)-;Silane, (<em>p</em>-bromophenyl)trimethoxy-;Silane, (4-bromophenyl)trimethoxy-;1-Bromo-4-(trimethoxysilyl)benzene;1-Bromo-4-trimethoxysilylbenzene;4-Bromo-1-(trimethoxysilyl)benzene;(4-Bromophenyl)trimethoxysilane",
    "duplicated_cas_no": "",
    "SMILES": "[Si](OC)(OC)(OC)C1=CC=C(Br)C=C1",
    "meta_data": {
        "InChI": "InChI=1S/C9H13BrO3Si/c1-11-14(12-2,13-3)9-6-4-8(10)5-7-9/h4-7H,1-3H3",
        "InChIKey": null,
        "Canonical SMILES": "BrC1=CC=C(C=C1)[Si](OC)(OC)OC",
        "Molecular Formula": "C<sub>9</sub>H<sub>13</sub>BrO<sub>3</sub>Si",
        "Molecular Mass": "277.19",
        "Boiling Point": "84 °C @ Press: 0.9 Torr"
    }
}