{
    "cas_no": "13041-62-8",
    "key_name": "4-Methoxy-1-naphthalenecarboxylic acid",
    "cn_name": null,
    "alternate_name": "1-Naphthalenecarboxylic acid, 4-methoxy-;1-Naphthoic acid, 4-methoxy-;4-Methoxy-1-naphthalenecarboxylic acid;4-Methoxy-1-naphthoic acid;4-Methoxy-α-naphthoic acid",
    "duplicated_cas_no": "",
    "SMILES": "C(O)(=O)C=1C2=C(C(OC)=CC1)C=CC=C2",
    "meta_data": {
        "InChI": "InChI=1S/C12H10O3/c1-15-11-7-6-10(12(13)14)8-4-2-3-5-9(8)11/h2-7H,1H3,(H,13,14)",
        "InChIKey": null,
        "Canonical SMILES": "O=C(O)C1=CC=C(OC)C=2C=CC=CC12",
        "Molecular Formula": "C<sub>12</sub>H<sub>10</sub>O<sub>3</sub>",
        "Molecular Mass": "202.21",
        "Melting Point": "230 °C"
    }
}