{
    "cas_no": "1229236-86-5",
    "key_name": "Gandotinib",
    "cn_name": null,
    "alternate_name": "Imidazo[1,2-<em>b</em>]pyridazin-6-amine, 3-[(4-chloro-2-fluorophenyl)methyl]-2-methyl-<em>N</em>-(5-methyl-1<em>H</em>-pyrazol-3-yl)-8-(4-morpholinylmethyl)-;3-[(4-Chloro-2-fluorophenyl)methyl]-2-methyl-<em>N</em>-(5-methyl-1<em>H</em>-pyrazol-3-yl)-8-(4-morpholinylmethyl)imidazo[1,2-<em>b</em>]pyridazin-6-amine;LY 2784544;Gandotinib",
    "duplicated_cas_no": "",
    "SMILES": "C(C=1C=2N(C(CC3=C(F)C=C(Cl)C=C3)=C(C)N2)N=C(NC=4C=C(C)NN4)C1)N5CCOCC5",
    "meta_data": {
        "InChI": "InChI=1S/C23H25ClFN7O/c1-14-9-21(29-28-14)27-22-11-17(13-31-5-7-33-8-6-31)23-26-15(2)20(32(23)30-22)10-16-3-4-18(24)12-19(16)25/h3-4,9,11-12H,5-8,10,13H2,1-2H3,(H2,27,28,29,30)",
        "InChIKey": null,
        "Canonical SMILES": "FC1=CC(Cl)=CC=C1CC2=C(N=C3C(=CC(=NN32)NC4=NNC(=C4)C)CN5CCOCC5)C",
        "Molecular Formula": "C<sub>23</sub>H<sub>25</sub>ClFN<sub>7</sub>O",
        "Molecular Mass": "469.94",
        "Melting Point": "235.6-237.2 °C"
    }
}