{
    "cas_no": "6972-79-8",
    "key_name": "1,3-Bis(phenylmethoxy)-2-propanol",
    "cn_name": "1,3-双(苄氧基)-2-丙醇;1,3-双（苄氧基）-2-丙醇;1,3-二苄氧基-2-丙醇;",
    "alternate_name": "2-Propanol, 1,3-bis(phenylmethoxy)-;2-Propanol, 1,3-bis(benzyloxy)-;1,3-Bis(phenylmethoxy)-2-propanol;1,3-Dibenzyloxy-2-hydroxypropane;1,3-Di-<em>O</em>-benzylglycerol;1,3-Dibenzyloxy-2-propanol;1,3-Dibenzyl glycerol;1,3-<em>O</em>-Dibenzylglycerin;1,3-Dibenzylglycerin;1,3-Benzyloxy-2-propanol;1,3-Bis(benzyloxy)-2-propanol;NSC 62583",
    "duplicated_cas_no": "",
    "SMILES": "C(OCC(COCC1=CC=CC=C1)O)C2=CC=CC=C2",
    "meta_data": {
        "InChI": "InChI=1S/C17H20O3/c18-17(13-19-11-15-7-3-1-4-8-15)14-20-12-16-9-5-2-6-10-16/h1-10,17-18H,11-14H2",
        "InChIKey": null,
        "Canonical SMILES": "OC(COCC=1C=CC=CC1)COCC=2C=CC=CC2",
        "Molecular Formula": "C<sub>17</sub>H<sub>20</sub>O<sub>3</sub>",
        "Molecular Mass": "272.34",
        "Boiling Point": "226-227 °C @ Press: 13 Torr"
    }
}