{
    "cas_no": "114-91-0",
    "key_name": "2-(2-Methoxyethyl)pyridine",
    "cn_name": "2-(2-甲氧基乙基)吡啶;",
    "alternate_name": "Pyridine, 2-(2-methoxyethyl)-;2-(2-Methoxyethyl)pyridine;Dekelmin;Emthyridine;2-(β-Methoxyethyl)pyridine;Methydrine;Methyridine;Metyridine;Mintic;Promintic;2-(2-Pyridyl)ethyl methyl ether;Farmintic;NSC 34071",
    "duplicated_cas_no": "",
    "SMILES": "C(COC)C1=CC=CC=N1",
    "meta_data": {
        "InChI": "InChI=1S/C8H11NO/c1-10-7-5-8-4-2-3-6-9-8/h2-4,6H,5,7H2,1H3",
        "InChIKey": null,
        "Canonical SMILES": "N=1C=CC=CC1CCOC",
        "Molecular Formula": "C<sub>8</sub>H<sub>11</sub>NO",
        "Molecular Mass": "137.18",
        "Boiling Point": "203 °C",
        "Density": "0.998 g/cm³ @ Temp: 20 °C"
    }
}