{
    "cas_no": "60111-52-6",
    "key_name": "1,5-Diethenyl-3-[(ethenyldimethylsilyl)oxy]-1,1,3,5,5-pentamethyltrisiloxane",
    "cn_name": null,
    "alternate_name": "Trisiloxane, 1,5-diethenyl-3-[(ethenyldimethylsilyl)oxy]-1,1,3,5,5-pentamethyl-;1,5-Diethenyl-3-[(ethenyldimethylsilyl)oxy]-1,1,3,5,5-pentamethyltrisiloxane;3-((Dimethyl(vinyl)silyl)oxy)-1,1,3,5,5-pentamethyl-1,5-divinyltrisiloxane",
    "duplicated_cas_no": "",
    "SMILES": "O([Si](O[Si](C=C)(C)C)(O[Si](C=C)(C)C)C)[Si](C=C)(C)C",
    "meta_data": {
        "InChI": "InChI=1S/C13H30O3Si4/c1-11-17(4,5)14-20(10,15-18(6,7)12-2)16-19(8,9)13-3/h11-13H,1-3H2,4-10H3",
        "InChIKey": null,
        "Canonical SMILES": "O([Si](O[Si](C=C)(C)C)(O[Si](C=C)(C)C)C)[Si](C=C)(C)C",
        "Molecular Formula": "C<sub>13</sub>H<sub>30</sub>O<sub>3</sub>Si<sub>4</sub>",
        "Molecular Mass": "346.72",
        "Boiling Point": "135-140 °C @ Press: 50 Torr"
    }
}