{
    "cas_no": "3681-93-4",
    "key_name": "Vitexin",
    "cn_name": "牡荆素;",
    "alternate_name": "4<em>H</em>-1-Benzopyran-4-one, 8-β-<span class=\"text-smallcaps\">D</span>-glucopyranosyl-5,7-dihydroxy-2-(4-hydroxyphenyl)-;Vitexin;Flavone, 8-<span class=\"text-smallcaps\">D</span>-glucosyl-4′,5,7-trihydroxy-;8-β-<span class=\"text-smallcaps\">D</span>-Glucopyranosyl-5,7-dihydroxy-2-(4-hydroxyphenyl)-4<em>H</em>-1-benzopyran-4-one;Vitexine;Apigenin 8-<em>C</em>-glucoside;8-<em>C</em>-β-<span class=\"text-smallcaps\">D</span>-Glucopyranosylapigenin;Vitexina;Orientoside;Flavone, 8-β-<span class=\"text-smallcaps\">D</span>-glucopyranosyl-4′,5,7-trihydroxy-;Isovitexin (C-8 isomer);Apigenin-8-<em>C</em>-β-<span class=\"text-smallcaps\">D</span>-glucopyranoside;Apigenin 8-<em>C</em>-β-<span class=\"text-smallcaps\">D</span>-glucoside;5,7,4′-Trihydroxyflavone 8-<em>C</em>-β-<span class=\"text-smallcaps\">D</span>-glucopyranoside;Apigenin 8-<em>C</em>-β-glucopyranoside;8-<em>C</em>-Glucosylapigenin",
    "duplicated_cas_no": "521-33-5;30108-44-2;53152-13-9;55555-34-5",
    "SMILES": "OC=1C(=C2C(C(=O)C=C(O2)C3=CC=C(O)C=C3)=C(O)C1)[C@@H]4O[C@H](CO)[C@@H](O)[C@H](O)[C@H]4O",
    "meta_data": {
        "InChI": "InChI=1S/C21H20O10/c22-7-14-17(27)18(28)19(29)21(31-14)16-11(25)5-10(24)15-12(26)6-13(30-20(15)16)8-1-3-9(23)4-2-8/h1-6,14,17-19,21-25,27-29H,7H2/t14-,17-,18+,19-,21+/m1/s1",
        "InChIKey": null,
        "Canonical SMILES": "O=C1C=C(OC=2C1=C(O)C=C(O)C2C3OC(CO)C(O)C(O)C3O)C=4C=CC(O)=CC4",
        "Molecular Formula": "C<sub>21</sub>H<sub>20</sub>O<sub>10</sub>",
        "Molecular Mass": "432.38",
        "Melting Point": "263 °C"
    }
}