{
    "cas_no": "93-76-5",
    "key_name": "Trichlorophenoxyacetic acid",
    "cn_name": "2,4,5-三氯苯氧乙酸;2,4,5-三氯苯氧基醋酸;2,4,5-涕酸;2,4,5-T;",
    "alternate_name": "Acetic acid, 2-(2,4,5-trichlorophenoxy)-;Acetic acid, (2,4,5-trichlorophenoxy)-;2-(2,4,5-Trichlorophenoxy)acetic acid;2,4,5-T;Fortex;Trioxon;(2,4,5-Trichlorophenoxy)acetic acid;Verton 2T;BCF-Bushkiller;Forst U 46;Arbokan;Trichlorophenoxyacetic acid;NSC 430",
    "duplicated_cas_no": "",
    "SMILES": "O(CC(O)=O)C1=C(Cl)C=C(Cl)C(Cl)=C1",
    "meta_data": {
        "InChI": "InChI=1S/C8H5Cl3O3/c9-4-1-6(11)7(2-5(4)10)14-3-8(12)13/h1-2H,3H2,(H,12,13)",
        "InChIKey": null,
        "Canonical SMILES": "O=C(O)COC1=CC(Cl)=C(Cl)C=C1Cl",
        "Molecular Formula": "C<sub>8</sub>H<sub>5</sub>Cl<sub>3</sub>O<sub>3</sub>",
        "Molecular Mass": "255.48",
        "Melting Point": "153 °C",
        "Density": "1.80 g/cm³ @ Temp: 20 °C"
    }
}