{
    "cas_no": "907204-31-3",
    "key_name": "Fluxapyroxad",
    "cn_name": null,
    "alternate_name": "1<em>H</em>-Pyrazole-4-carboxamide, 3-(difluoromethyl)-1-methyl-<em>N</em>-(3′,4′,5′-trifluoro[1,1′-biphenyl]-2-yl)-;3-(Difluoromethyl)-1-methyl-<em>N</em>-(3′,4′,5′-trifluoro[1,1′-biphenyl]-2-yl)-1<em>H</em>-pyrazole-4-carboxamide;3-(Difluoromethyl)-1-methyl-<em>N</em>-(3′,4′,5′-trifluorobiphenyl-2-yl)-1<em>H</em>-pyrazole-4-carboxamide;Fluxapyroxad;Xemium;Sercadis;Acceleron DX 612;Systiva XS;Xzemplar;Imbrex;Fluoxapyr;Imtrex",
    "duplicated_cas_no": "1135442-10-2;1195088-44-8;2566738-04-1",
    "SMILES": "N(C(=O)C=1C(C(F)F)=NN(C)C1)C2=C(C3=CC(F)=C(F)C(F)=C3)C=CC=C2",
    "meta_data": {
        "InChI": "InChI=1S/C18H12F5N3O/c1-26-8-11(16(25-26)17(22)23)18(27)24-14-5-3-2-4-10(14)9-6-12(19)15(21)13(20)7-9/h2-8,17H,1H3,(H,24,27)",
        "InChIKey": null,
        "Canonical SMILES": "O=C(NC=1C=CC=CC1C=2C=C(F)C(F)=C(F)C2)C3=CN(N=C3C(F)F)C",
        "Molecular Formula": "C<sub>18</sub>H<sub>12</sub>F<sub>5</sub>N<sub>3</sub>O",
        "Molecular Mass": "381.30",
        "Melting Point": "137-140 °C"
    }
}