{
    "cas_no": "1145-01-3",
    "key_name": "3,5-Diphenylpyrazole",
    "cn_name": "3,5-二苯基吡唑;",
    "alternate_name": "1<em>H</em>-Pyrazole, 3,5-diphenyl-;Pyrazole, 3,5-diphenyl-;3,5-Diphenyl-1<em>H</em>-pyrazole;3,5-Diphenylpyrazole;NSC 126937",
    "duplicated_cas_no": "",
    "SMILES": "C=1(C=C(NN1)C2=CC=CC=C2)C3=CC=CC=C3",
    "meta_data": {
        "InChI": "InChI=1S/C15H12N2/c1-3-7-12(8-4-1)14-11-15(17-16-14)13-9-5-2-6-10-13/h1-11H,(H,16,17)",
        "InChIKey": null,
        "Canonical SMILES": "N=1NC(=CC1C=2C=CC=CC2)C=3C=CC=CC3",
        "Molecular Formula": "C<sub>15</sub>H<sub>12</sub>N<sub>2</sub>",
        "Molecular Mass": "220.27",
        "Boiling Point": "317 °C @ Press: 160 Torr",
        "Melting Point": "198 °C"
    }
}