{
    "cas_no": "4727-17-7",
    "key_name": "Cyclopentadecanol",
    "cn_name": "环十五(烷)酰;",
    "alternate_name": "Cyclopentadecanol;Exaltol;Normuscol",
    "duplicated_cas_no": "",
    "SMILES": "OC1CCCCCCCCCCCCCC1",
    "meta_data": {
        "InChI": "InChI=1S/C15H30O/c16-15-13-11-9-7-5-3-1-2-4-6-8-10-12-14-15/h15-16H,1-14H2",
        "InChIKey": null,
        "Canonical SMILES": "OC1CCCCCCCCCCCCCC1",
        "Molecular Formula": "C<sub>15</sub>H<sub>30</sub>O",
        "Molecular Mass": "226.40",
        "Boiling Point": "175-180 °C",
        "Melting Point": "80.5 °C"
    }
}