{
    "cas_no": "3691-35-8",
    "key_name": "Chlorophacinone",
    "cn_name": "氯鼠酮;2-[2-(4-氯苯基)-2-苯基乙酰基]茚满-1,3-二酮;",
    "alternate_name": "1<em>H</em>-Indene-1,3(2<em>H</em>)-dione, 2-[2-(4-chlorophenyl)-2-phenylacetyl]-;1,3-Indandione, 2-[(<em>p</em>-chlorophenyl)phenylacetyl]-;1<em>H</em>-Indene-1,3(2<em>H</em>)-dione, 2-[(4-chlorophenyl)phenylacetyl]-;2-[2-(4-Chlorophenyl)-2-phenylacetyl]-1<em>H</em>-indene-1,3(2<em>H</em>)-dione;LM 91;2-[2-Phenyl-2-(4-chlorophenyl)acetyl]-1,3-indandione;Chlorophacinone;2-Acetyl-2-(<em>p</em>-chlorophenyl)-2-phenylindan-1,3-dione;Chlorphacinone;Raticide-Caid;2-Phenyl-<em>p</em>-chlorophenylacetyl-1,3-indandione;2-[(<em>p</em>-Chlorophenyl)phenylacetyl]-1,3-indandione;Drat;Chlorphenacone;Chlorodiphacinone;Caid;Ratindan 3;Rozol;Liphadione;Chlorophacinon;Redentin;Raticide;Kaid",
    "duplicated_cas_no": "",
    "SMILES": "C(C(=O)C1C(=O)C=2C(C1=O)=CC=CC2)(C3=CC=C(Cl)C=C3)C4=CC=CC=C4",
    "meta_data": {
        "InChI": "InChI=1S/C23H15ClO3/c24-16-12-10-15(11-13-16)19(14-6-2-1-3-7-14)23(27)20-21(25)17-8-4-5-9-18(17)22(20)26/h1-13,19-20H",
        "InChIKey": null,
        "Canonical SMILES": "O=C1C=2C=CC=CC2C(=O)C1C(=O)C(C=3C=CC=CC3)C4=CC=C(Cl)C=C4",
        "Molecular Formula": "C<sub>23</sub>H<sub>15</sub>ClO<sub>3</sub>",
        "Molecular Mass": "374.82",
        "Melting Point": "138 °C"
    }
}