{
    "cas_no": "32838-55-4",
    "key_name": "2-Benzylpiperidine",
    "cn_name": null,
    "alternate_name": "Piperidine, 2-(phenylmethyl)-;Piperidine, 2-benzyl-;2-(Phenylmethyl)piperidine;2-Benzylpiperidine",
    "duplicated_cas_no": "",
    "SMILES": "C(C1=CC=CC=C1)C2CCCCN2",
    "meta_data": {
        "InChI": "InChI=1S/C12H17N/c1-2-6-11(7-3-1)10-12-8-4-5-9-13-12/h1-3,6-7,12-13H,4-5,8-10H2",
        "InChIKey": null,
        "Canonical SMILES": "C=1C=CC(=CC1)CC2NCCCC2",
        "Molecular Formula": "C<sub>12</sub>H<sub>17</sub>N",
        "Molecular Mass": "175.27",
        "Boiling Point": "267.5 °C",
        "Melting Point": "32 °C",
        "Density": "0.9740 g/cm³ @ Temp: 20 °C"
    }
}