{
    "cas_no": "3658-93-3",
    "key_name": "1,1-Diethoxyhexane",
    "cn_name": "1,1-二乙基己烷;",
    "alternate_name": "Hexane, 1,1-diethoxy-;Hexanal, diethyl acetal;1,1-Diethoxyhexane;Hexylaldehyde diacetal",
    "duplicated_cas_no": "",
    "SMILES": "C(CCCCC)(OCC)OCC",
    "meta_data": {
        "InChI": "InChI=1S/C10H22O2/c1-4-7-8-9-10(11-5-2)12-6-3/h10H,4-9H2,1-3H3",
        "InChIKey": null,
        "Canonical SMILES": "O(CC)C(OCC)CCCCC",
        "Molecular Formula": "C<sub>10</sub>H<sub>22</sub>O<sub>2</sub>",
        "Molecular Mass": "174.28",
        "Boiling Point": "155-158 °C"
    }
}