{
    "cas_no": "3284-51-3",
    "key_name": "1<em>H</em>-Pyrrole-2-carboxylic acid, 5-methyl-, ethyl ester",
    "cn_name": "5-甲基-1H-吡咯-2-甲酸乙酯;",
    "alternate_name": "1<em>H</em>-Pyrrole-2-carboxylic acid, 5-methyl-, ethyl ester;Pyrrole-2-carboxylic acid, 5-methyl-, ethyl ester;Ethyl 5-methylpyrrole-2-carboxylate;NSC 81362;5-Methyl-1<em>H</em>-pyrrole-2-carboxylic acid ethyl ester;Ethyl 5-methyl-1<em>H</em>-pyrrole-2-carboxylate",
    "duplicated_cas_no": "",
    "SMILES": "C(OCC)(=O)C1=CC=C(C)N1",
    "meta_data": {
        "InChI": "InChI=1S/C8H11NO2/c1-3-11-8(10)7-5-4-6(2)9-7/h4-5,9H,3H2,1-2H3",
        "InChIKey": null,
        "Canonical SMILES": "O=C(OCC)C1=CC=C(N1)C",
        "Molecular Formula": "C<sub>8</sub>H<sub>11</sub>NO<sub>2</sub>",
        "Molecular Mass": "153.18",
        "Melting Point": "100 °C"
    }
}