{
    "cas_no": "55377-26-9",
    "key_name": "Quinoline, 6-bromo-, hydrochloride (1:1)",
    "cn_name": null,
    "alternate_name": "Quinoline, 6-bromo-, hydrochloride (1:1);Quinoline, 6-bromo-, hydrochloride",
    "duplicated_cas_no": "",
    "SMILES": "BrC1=CC2=C(C=C1)N=CC=C2.Cl",
    "meta_data": {
        "InChI": "InChI=1S/C9H6BrN.ClH/c10-8-3-4-9-7(6-8)2-1-5-11-9;/h1-6H;1H",
        "InChIKey": null,
        "Canonical SMILES": "Cl.BrC1=CC=C2N=CC=CC2=C1",
        "Molecular Formula": "C<sub>9</sub>H<sub>6</sub>BrN.ClH",
        "Molecular Mass": "",
        "Melting Point": "213-214 °C"
    }
}