{
    "cas_no": "2156-97-0",
    "key_name": "Lauryl acrylate",
    "cn_name": null,
    "alternate_name": "2-Propenoic acid, dodecyl ester;Acrylic acid, dodecyl ester;Lauryl acrylate;Dodecyl acrylate;<em>n</em>-Dodecyl acrylate;Ageflex FA 12;NK Ester LA;SR 335;KU-LA;Sartomer 335;Light Acrylate L-A;Viscoat LA;NSC 24177;Photomer 4812;SR 498D;Blemmer LA;LA;4812/75F;Miramer 120;C 12A;Sarbio 5101;FA 112A;EM 215;LA 001;LAI 214;Light Acrylate L;Sartomer SR 335;Blemmer L;D 4129;M 122 (acrylate);M 122;LA 1213;Light Ester L-A;Miramer M 122",
    "duplicated_cas_no": "199685-42-2;885007-57-8;1418209-80-9;1887074-73-8",
    "SMILES": "C(COC(C=C)=O)CCCCCCCCCC",
    "meta_data": {
        "InChI": "InChI=1S/C15H28O2/c1-3-5-6-7-8-9-10-11-12-13-14-17-15(16)4-2/h4H,2-3,5-14H2,1H3",
        "InChIKey": null,
        "Canonical SMILES": "O=C(OCCCCCCCCCCCC)C=C",
        "Molecular Formula": "C<sub>15</sub>H<sub>28</sub>O<sub>2</sub>",
        "Molecular Mass": "240.38",
        "Boiling Point": "170-185 °C @ Press: 21 Torr",
        "Melting Point": "4 °C",
        "Density": "0.8727 g/cm³ @ Temp: 20 °C"
    }
}