{
    "cas_no": "469-90-9",
    "key_name": "Sedoheptulosan",
    "cn_name": "景天庚酮糖;",
    "alternate_name": "β-<span class=\"text-smallcaps\">D</span>-<em>altro</em>-2-Heptulopyranose, 2,7-anhydro-;<span class=\"text-smallcaps\">D</span>-<em>altro</em>-Heptulopyranose, 2,7-anhydro-, β-;<span class=\"text-smallcaps\">D</span>-<em>altro</em>-Heptulopyranose, 2,7-anhydro-;6,8-Dioxabicyclo[3.2.1]octane, β-<span class=\"text-smallcaps\">D</span>-<em>altro</em>-2-heptulopyranose deriv.;2,7-Anhydro-β-<span class=\"text-smallcaps\">D</span>-<em>altro</em>-2-heptulopyranose;Sedoheptulosan;2,7-Anhydro-β-<span class=\"text-smallcaps\">D</span>-<em>altro</em>-heptulopyranose;2,7-Anhydro-<span class=\"text-smallcaps\">D</span>-sedoheptulose;NSC 2553",
    "duplicated_cas_no": "5397-35-3;58238-31-6;73122-60-8",
    "SMILES": "C(O)[C@]12[C@@H](O)[C@H](O)[C@H](O)[C@](O1)(CO2)[H]",
    "meta_data": {
        "InChI": "InChI=1S/C7H12O6/c8-2-7-6(11)5(10)4(9)3(13-7)1-12-7/h3-6,8-11H,1-2H2/t3-,4-,5-,6+,7-/m1/s1",
        "InChIKey": null,
        "Canonical SMILES": "OCC12OCC(O1)C(O)C(O)C2O",
        "Molecular Formula": "C<sub>7</sub>H<sub>12</sub>O<sub>6</sub>",
        "Molecular Mass": "192.17",
        "Melting Point": "155-156 °C"
    }
}