{
    "cas_no": "115929-59-4",
    "key_name": "2-Bromo-4-methoxy-6-nitrophenol",
    "cn_name": null,
    "alternate_name": "Phenol, 2-bromo-4-methoxy-6-nitro-;2-Bromo-4-methoxy-6-nitrophenol",
    "duplicated_cas_no": "",
    "SMILES": "N(=O)(=O)C1=C(O)C(Br)=CC(OC)=C1",
    "meta_data": {
        "InChI": "InChI=1S/C7H6BrNO4/c1-13-4-2-5(8)7(10)6(3-4)9(11)12/h2-3,10H,1H3",
        "InChIKey": null,
        "Canonical SMILES": "O=N(=O)C1=CC(OC)=CC(Br)=C1O",
        "Molecular Formula": "C<sub>7</sub>H<sub>6</sub>BrNO<sub>4</sub>",
        "Molecular Mass": "248.03",
        "Melting Point": "108-110 °C"
    }
}