{
    "cas_no": "23513-15-7",
    "key_name": "[10]-Gingerol",
    "cn_name": "10-姜酮醇;10-姜辣醇;10-姜酚;(S)-5-羟基-1-(4-羟基-3-甲氧基苯基)十四烷-3-酮;",
    "alternate_name": "3-Tetradecanone, 5-hydroxy-1-(4-hydroxy-3-methoxyphenyl)-, (5<em>S</em>)-;3-Tetradecanone, 5-hydroxy-1-(4-hydroxy-3-methoxyphenyl)-, (<em>S</em>)-;(5<em>S</em>)-5-Hydroxy-1-(4-hydroxy-3-methoxyphenyl)-3-tetradecanone;[10]-Gingerol;(+)-(<em>S</em>)-[10]-Gingerol;(5<em>S</em>)-[10]-Gingerol;(<em>S</em>)-[10]-Gingerol;(5S)-5-Hydroxy-1-(4-hydroxy-3-methoxyphenyl)tetradecan-3-one",
    "duplicated_cas_no": "39886-87-8",
    "SMILES": "C(CC(C[C@H](CCCCCCCCC)O)=O)C1=CC(OC)=C(O)C=C1",
    "meta_data": {
        "InChI": "InChI=1S/C21H34O4/c1-3-4-5-6-7-8-9-10-18(22)16-19(23)13-11-17-12-14-20(24)21(15-17)25-2/h12,14-15,18,22,24H,3-11,13,16H2,1-2H3/t18-/m0/s1",
        "InChIKey": null,
        "Canonical SMILES": "O=C(CCC1=CC=C(O)C(OC)=C1)CC(O)CCCCCCCCC",
        "Molecular Formula": "C<sub>21</sub>H<sub>34</sub>O<sub>4</sub>",
        "Molecular Mass": "350.49",
        "Melting Point": "56-58 °C"
    }
}