{
    "cas_no": "123-90-0",
    "key_name": "Thiomorpholine",
    "cn_name": "硫代吗啉;",
    "alternate_name": "Thiomorpholine;Parathiazan;Tetrahydro-1,4-thiazine;1,4-Thiazan;Thiamorpholine;1-Thia-4-azacyclohexane;1,4-Thiazane;1,4-Thiazine, tetrahydro-;Thiamorpholin",
    "duplicated_cas_no": "",
    "SMILES": "C1CSCCN1",
    "meta_data": {
        "InChI": "InChI=1S/C4H9NS/c1-3-6-4-2-5-1/h5H,1-4H2",
        "InChIKey": null,
        "Canonical SMILES": "S1CCNCC1",
        "Molecular Formula": "C<sub>4</sub>H<sub>9</sub>NS",
        "Molecular Mass": "103.19",
        "Boiling Point": "175 °C",
        "Melting Point": "170-175 °C",
        "Density": "1.0882 g/cm³ @ Temp: 20 °C"
    }
}