{
    "cas_no": "221615-72-1",
    "key_name": "1-(6-Methyl-3-pyridinyl)-2-[4-(methylthio)phenyl]ethanone",
    "cn_name": null,
    "alternate_name": "Ethanone, 1-(6-methyl-3-pyridinyl)-2-[4-(methylthio)phenyl]-;1-(6-Methyl-3-pyridinyl)-2-[4-(methylthio)phenyl]ethanone;1-(6-Methylpyridin-3-yl)-2-[4-(methylthio)phenyl]ethanone;1-(6-Methylpyridin-3-yl)-2-(4-methylsulfanylphenyl)ethanone",
    "duplicated_cas_no": "",
    "SMILES": "C(CC1=CC=C(SC)C=C1)(=O)C=2C=CC(C)=NC2",
    "meta_data": {
        "InChI": "InChI=1S/C15H15NOS/c1-11-3-6-13(10-16-11)15(17)9-12-4-7-14(18-2)8-5-12/h3-8,10H,9H2,1-2H3",
        "InChIKey": null,
        "Canonical SMILES": "O=C(C1=CN=C(C=C1)C)CC2=CC=C(SC)C=C2",
        "Molecular Formula": "C<sub>15</sub>H<sub>15</sub>NOS",
        "Molecular Mass": "257.35",
        "Melting Point": "111-113 °C"
    }
}