{
    "cas_no": "16611-84-0",
    "key_name": "6-Pentadecylsalicylic acid",
    "cn_name": null,
    "alternate_name": "Benzoic acid, 2-hydroxy-6-pentadecyl-;Salicylic acid, 6-pentadecyl-;2-Hydroxy-6-pentadecylbenzoic acid;1-Hydroxy-2-carboxy-3-pentadecylbenzene;(15:0)-Anacardic acid;6-Pentadecylsalicylic acid;Cyclogallipharic acid;Hydroginkgolic acid;22:0-Anacardic acid;NSC 229596;NSC 333857;NSC 623096;6-Pentadecyl-2-hydroxybenzoic acid;Hydrogenated anacardic acid;Ginkgolic acid C15:0",
    "duplicated_cas_no": "",
    "SMILES": "C(O)(=O)C1=C(CCCCCCCCCCCCCCC)C=CC=C1O",
    "meta_data": {
        "InChI": "InChI=1S/C22H36O3/c1-2-3-4-5-6-7-8-9-10-11-12-13-14-16-19-17-15-18-20(23)21(19)22(24)25/h15,17-18,23H,2-14,16H2,1H3,(H,24,25)",
        "InChIKey": null,
        "Canonical SMILES": "O=C(O)C=1C(O)=CC=CC1CCCCCCCCCCCCCCC",
        "Molecular Formula": "C<sub>22</sub>H<sub>36</sub>O<sub>3</sub>",
        "Molecular Mass": "348.52",
        "Melting Point": "89 °C"
    }
}