{
    "cas_no": "831-82-3",
    "key_name": "4-Phenoxyphenol",
    "cn_name": "4-苯氧基苯酚;4-羟基二苯醚;",
    "alternate_name": "Phenol, 4-phenoxy-;Phenol, <em>p</em>-phenoxy-;4-Phenoxyphenol;<em>p</em>-Phenoxyphenol;<em>p</em>-Hydroxydiphenyl ether;4-Hydroxydiphenyl ether;Hydroquinone monophenyl ether;NSC 25027",
    "duplicated_cas_no": "",
    "SMILES": "O(C1=CC=C(O)C=C1)C2=CC=CC=C2",
    "meta_data": {
        "InChI": "InChI=1S/C12H10O2/c13-10-6-8-12(9-7-10)14-11-4-2-1-3-5-11/h1-9,13H",
        "InChIKey": null,
        "Canonical SMILES": "OC1=CC=C(OC=2C=CC=CC2)C=C1",
        "Molecular Formula": "C<sub>12</sub>H<sub>10</sub>O<sub>2</sub>",
        "Molecular Mass": "186.21",
        "Boiling Point": "177-180 °C @ Press: 9 Torr",
        "Melting Point": "84 °C"
    }
}