{
    "cas_no": "27355-22-2",
    "key_name": "Phthalide",
    "cn_name": "四氯苯酞;稻瘟酞;四氯苯酞;4,5,6,7-四氯-2-苯苯并(C)呋喃酮;氯百杀;热必斯;Α-羥鄰甲苯甲酸內酯;酞;4,5,6,7;",
    "alternate_name": "1(3<em>H</em>)-Isobenzofuranone, 4,5,6,7-tetrachloro-;Phthalide, 4,5,6,7-tetrachloro-;4,5,6,7-Tetrachloro-1(3<em>H</em>)-isobenzofuranone;4,5,6,7-Tetrachlorophthalide;Rabcide;Tetrachlorophthalide;Fthalide;Phthalide",
    "duplicated_cas_no": "37259-94-2",
    "SMILES": "ClC1=C2C(=C(Cl)C(Cl)=C1Cl)COC2=O",
    "meta_data": {
        "InChI": "InChI=1S/C8H2Cl4O2/c9-4-2-1-14-8(13)3(2)5(10)7(12)6(4)11/h1H2",
        "InChIKey": null,
        "Canonical SMILES": "O=C1OCC=2C(Cl)=C(Cl)C(Cl)=C(Cl)C12",
        "Molecular Formula": "C<sub>8</sub>H<sub>2</sub>Cl<sub>4</sub>O<sub>2</sub>",
        "Molecular Mass": "271.91",
        "Melting Point": "209.5 °C"
    }
}