{
    "cas_no": "129722-34-5",
    "key_name": "7-(4-Bromobutoxy)-3,4-dihydro-2(1<em>H</em>)-quinolinone",
    "cn_name": "7-(4-溴丁氧基)-3,4-二氢-2(1H)-喹啉酮;",
    "alternate_name": "2(1<em>H</em>)-Quinolinone, 7-(4-bromobutoxy)-3,4-dihydro-;7-(4-Bromobutoxy)-3,4-dihydro-2(1<em>H</em>)-quinolinone;7-(4-Bromobutoxy)-3,4-dihydro-2-quinolinone;Lanzapine;3,4-Dihydro-7-(4-bromobutoxy)-2(1<em>H</em>)-quinolinone",
    "duplicated_cas_no": "",
    "SMILES": "O(CCCCBr)C=1C=C2C(=CC1)CCC(=O)N2",
    "meta_data": {
        "InChI": "InChI=1S/C13H16BrNO2/c14-7-1-2-8-17-11-5-3-10-4-6-13(16)15-12(10)9-11/h3,5,9H,1-2,4,6-8H2,(H,15,16)",
        "InChIKey": null,
        "Canonical SMILES": "O=C1NC2=CC(OCCCCBr)=CC=C2CC1",
        "Molecular Formula": "C<sub>13</sub>H<sub>16</sub>BrNO<sub>2</sub>",
        "Molecular Mass": "298.18",
        "Melting Point": "110.5-111 °C"
    }
}