{
    "cas_no": "34140-59-5",
    "key_name": "Trimebutine maleate",
    "cn_name": "曲美布汀马来酸盐;3,4,5-三甲氧基苯甲酸(2-二甲胺基-2-苯基)丁酯马来酸盐;",
    "alternate_name": "Benzoic acid, 3,4,5-trimethoxy-, 2-(dimethylamino)-2-phenylbutyl ester, (2<em>Z</em>)-2-butenedioate (1:1);Benzoic acid, 3,4,5-trimethoxy-, β-(dimethylamino)-β-ethylphenethyl ester maleate (1:1);Benzoic acid, 3,4,5-trimethoxy-, 2-(dimethylamino)-2-phenylbutyl ester, (<em>Z</em>)-2-butenedioate (1:1);Trimebutine maleate;Debridat;Dromostat;TM 906;Spabucol;Cerekinon;Polibutin;Digerent;Foldox;Trimedat;Gast-Reg",
    "duplicated_cas_no": "39133-32-9",
    "SMILES": "C(COC(=O)C1=CC(OC)=C(OC)C(OC)=C1)(N(C)C)(CC)C2=CC=CC=C2.C(=C\\C(O)=O)\\C(O)=O",
    "meta_data": {
        "InChI": "InChI=1S/C22H29NO5.C4H4O4/c1-7-22(23(2)3,17-11-9-8-10-12-17)15-28-21(24)16-13-18(25-4)20(27-6)19(14-16)26-5;5-3(6)1-2-4(7)8/h8-14H,7,15H2,1-6H3;1-2H,(H,5,6)(H,7,8)/b;2-1-",
        "InChIKey": null,
        "Canonical SMILES": "O=C(O)C=CC(=O)O.O=C(OCC(C=1C=CC=CC1)(N(C)C)CC)C2=CC(OC)=C(OC)C(OC)=C2",
        "Molecular Formula": "C<sub>22</sub>H<sub>29</sub>NO<sub>5</sub>.C<sub>4</sub>H<sub>4</sub>O<sub>4</sub>",
        "Molecular Mass": "",
        "Melting Point": "105-106 °C"
    }
}