{
    "cas_no": "27794-03-2",
    "key_name": "2-Chloro-5-(4-methoxyphenyl)pyrimidine",
    "cn_name": null,
    "alternate_name": "Pyrimidine, 2-chloro-5-(4-methoxyphenyl)-;Pyrimidine, 2-chloro-5-(<em>p</em>-methoxyphenyl)-;2-Chloro-5-(4-methoxyphenyl)pyrimidine",
    "duplicated_cas_no": "",
    "SMILES": "O(C)C1=CC=C(C=C1)C=2C=NC(Cl)=NC2",
    "meta_data": {
        "InChI": "InChI=1S/C11H9ClN2O/c1-15-10-4-2-8(3-5-10)9-6-13-11(12)14-7-9/h2-7H,1H3",
        "InChIKey": null,
        "Canonical SMILES": "ClC=1N=CC(=CN1)C2=CC=C(OC)C=C2",
        "Molecular Formula": "C<sub>11</sub>H<sub>9</sub>ClN<sub>2</sub>O",
        "Molecular Mass": "220.65",
        "Melting Point": "129-131 °C"
    }
}