{
    "cas_no": "4998-57-6",
    "key_name": "<span class=\"text-smallcaps\">DL</span>-Histidine",
    "cn_name": "DL-组氨酸;DL-2-氨基-3-(1H-咪唑-4-基)丙酸;",
    "alternate_name": "Histidine;Histidine, <span class=\"text-smallcaps\">DL</span>-;<span class=\"text-smallcaps\">DL</span>-Histidine;(±)-Histidine;1<em>H</em>-Imidazole-4-alanine;2-Amino-3-(1<em>H</em>-imidazol-5-yl)propanoic acid;2-Amino-3-(5-imidazolyl)propanoic acid;2-Amino-3-(1<em>H</em>-imidazol-4-yl)propanoic acid",
    "duplicated_cas_no": "184709-11-3",
    "SMILES": "C(C(C(O)=O)N)C1=CN=CN1",
    "meta_data": {
        "InChI": "InChI=1S/C6H9N3O2/c7-5(6(10)11)1-4-2-8-3-9-4/h2-3,5H,1,7H2,(H,8,9)(H,10,11)",
        "InChIKey": null,
        "Canonical SMILES": "O=C(O)C(N)CC1=CN=CN1",
        "Molecular Formula": "C<sub>6</sub>H<sub>9</sub>N<sub>3</sub>O<sub>2</sub>",
        "Molecular Mass": "155.15",
        "Melting Point": "287 °C (decomp)"
    }
}