{
    "cas_no": "288-42-6",
    "key_name": "Oxazole",
    "cn_name": "恶唑;1,3-恶唑;噁唑;1,3-氧氮杂茂;",
    "alternate_name": "Oxazole;1,3-Oxazole;3-Azafuran",
    "duplicated_cas_no": "",
    "SMILES": "C1=COC=N1",
    "meta_data": {
        "InChI": "InChI=1S/C3H3NO/c1-2-5-3-4-1/h1-3H",
        "InChIKey": null,
        "Canonical SMILES": "N1=COC=C1",
        "Molecular Formula": "C<sub>3</sub>H<sub>3</sub>NO",
        "Molecular Mass": "69.06",
        "Boiling Point": "69.5 °C",
        "Melting Point": "76-78 °C",
        "Density": "1.050 g/cm³"
    }
}