{
    "cas_no": "102-54-5",
    "key_name": "Ferrocene",
    "cn_name": "二茂铁;双环戊二烯基铁;",
    "alternate_name": "Ferrocene;Di-2,4-cyclopentadien-1-yliron;Dicyclopentadienyliron;Iron, bis(η<sup>5</sup>-2,4-cyclopentadien-1-yl)-;Iron bis(cyclopentadienide);Bis(cyclopentadienyl)iron;Iron dicyclopentadienyl;Bis(η-cyclopentadienyl)iron;Di-π-cyclopentadienyl iron;Ferrotsen;Catane TM;Bis(η<sup>5</sup>-cyclopentadienyl)iron;NSC 2033;NSC 209798;NSC 44012;PLUTOcen G;PLUTOcen F-C",
    "duplicated_cas_no": "51364-12-6;55404-68-7;774583-14-1;856324-92-0;856780-21-7;1080518-86-0;2060533-81-3",
    "SMILES": "[Fe+2]12345678([CH]=9[CH-]1[CH]2=[CH]3[CH]49)[CH]%10=[CH]5[CH-]6[CH]7=[CH]8%10",
    "meta_data": {
        "InChI": "InChI=1S/2C5H5.Fe/c2*1-2-4-5-3-1;/h2*1-5H;/q2*-1;+2",
        "InChIKey": null,
        "Canonical SMILES": "[CH]=12[CH]3=[CH]4[CH-]5[CH]1[Fe+2]23678945[CH]=%10[CH]9=[CH]8[CH-]7[CH]%106",
        "Molecular Formula": "C<sub>10</sub>H<sub>10</sub>Fe",
        "Molecular Mass": "",
        "Boiling Point": "249 °C",
        "Melting Point": "173-174 °C",
        "Density": "1.49 g/cm³"
    }
}