{
    "cas_no": "461-53-0",
    "key_name": "Butanoyl fluoride",
    "cn_name": "4-氟丁醛;",
    "alternate_name": "Butanoyl fluoride;Butyryl fluoride",
    "duplicated_cas_no": "",
    "SMILES": "C(C(F)=O)CC",
    "meta_data": {
        "InChI": "InChI=1S/C4H7FO/c1-2-3-4(5)6/h2-3H2,1H3",
        "InChIKey": null,
        "Canonical SMILES": "O=C(F)CCC",
        "Molecular Formula": "C<sub>4</sub>H<sub>7</sub>FO",
        "Molecular Mass": "90.10",
        "Boiling Point": "67 °C @ Press: 767 Torr",
        "Density": "0.944 g/cm³ @ Temp: 11 °C"
    }
}