{
    "cas_no": "10161-33-8",
    "key_name": "Trenbolone",
    "cn_name": "孕三烯酮;",
    "alternate_name": "Estra-4,9,11-trien-3-one, 17-hydroxy-, (17β)-;Estra-4,9,11-trien-3-one, 17β-hydroxy-;(17β)-17-Hydroxyestra-4,9,11-trien-3-one;Trenbolone;17β-Hydroxyestra-4,9,11-trien-3-one;9,10,11,12-Dehydro-19-nortestosterone;Trienbolone;RU 2341;17β-Trenbolone;β-Trenbolone;(+)-Trenbolone",
    "duplicated_cas_no": "39434-88-3;34145-12-5",
    "SMILES": "C[C@@]12[C@]([C@]3(C(=C4C(CC3)=CC(=O)CC4)C=C1)[H])(CC[C@@H]2O)[H]",
    "meta_data": {
        "InChI": "InChI=1S/C18H22O2/c1-18-9-8-14-13-5-3-12(19)10-11(13)2-4-15(14)16(18)6-7-17(18)20/h8-10,15-17,20H,2-7H2,1H3/t15-,16+,17+,18+/m1/s1",
        "InChIKey": null,
        "Canonical SMILES": "O=C1C=C2C(=C3C=CC4(C)C(O)CCC4C3CC2)CC1",
        "Molecular Formula": "C<sub>18</sub>H<sub>22</sub>O<sub>2</sub>",
        "Molecular Mass": "270.37",
        "Melting Point": "186 °C"
    }
}