{
    "cas_no": "12109-71-6",
    "key_name": "Bis(methylcyclopentadienyl)zirconium dichloride",
    "cn_name": "双(甲基环戊二烯)二氯化锆;",
    "alternate_name": "Zirconium, dichlorobis[(1,2,3,4,5-η)-1-methyl-2,4-cyclopentadien-1-yl]-;Zirconium, dichlorobis(methyl-π-cyclopentadienyl)-;Bis(methylcyclopentadienyl)zirconium dichloride;1,3-Cyclopentadiene, 1-methyl-, zirconium complex;Dichlorobis[(1,2,3,4,5-η)-1-methyl-2,4-cyclopentadien-1-yl]zirconium;1,1′-Dimethylzirconocene dichloride;Dichlorobis(methylcyclopentadienyl)zirconium;Dichlorobis(η<sup>5</sup>-methylcyclopentadienyl)zirconium;Di(methylcyclopentadienyl) zirconium dichloride",
    "duplicated_cas_no": "",
    "SMILES": "[Cl-][Zr+4]12345678([Cl-])([C-]9(C)[CH]1=[CH]2[CH]3=[CH]49)[C-]%10(C)[CH]5=[CH]6[CH]7=[CH]8%10",
    "meta_data": {
        "InChI": "InChI=1S/2C6H7.2ClH.Zr/c2*1-6-4-2-3-5-6;;;/h2*2-5H,1H3;2*1H;/q2*-1;;;+4/p-2",
        "InChIKey": null,
        "Canonical SMILES": "[Cl-][Zr+4]12345678([Cl-])([CH]=9[CH]4=[CH]3[C-]2(C)[CH]91)[CH]=%10[CH]8=[CH]7[C-]6(C)[CH]%105",
        "Molecular Formula": "C<sub>12</sub>H<sub>14</sub>Cl<sub>2</sub>Zr",
        "Molecular Mass": "",
        "Melting Point": "180-184 °C"
    }
}