{
    "cas_no": "87547-06-6",
    "key_name": "4-Bromo-2-fluoro-5-nitrobenzenamine",
    "cn_name": null,
    "alternate_name": "Benzenamine, 4-bromo-2-fluoro-5-nitro-;4-Bromo-2-fluoro-5-nitrobenzenamine;4-Bromo-2-fluoro-5-nitroaniline",
    "duplicated_cas_no": "",
    "SMILES": "N(=O)(=O)C1=C(Br)C=C(F)C(N)=C1",
    "meta_data": {
        "InChI": "InChI=1S/C6H4BrFN2O2/c7-3-1-4(8)5(9)2-6(3)10(11)12/h1-2H,9H2",
        "InChIKey": null,
        "Canonical SMILES": "O=N(=O)C1=CC(N)=C(F)C=C1Br",
        "Molecular Formula": "C<sub>6</sub>H<sub>4</sub>BrFN<sub>2</sub>O<sub>2</sub>",
        "Molecular Mass": "235.01",
        "Melting Point": "90-92 °C"
    }
}