{
    "cas_no": "605-02-7",
    "key_name": "1-Phenylnaphthalene",
    "cn_name": "1-苯基萘;",
    "alternate_name": "Naphthalene, 1-phenyl-;1-Phenylnaphthalene;NSC 5257",
    "duplicated_cas_no": "",
    "SMILES": "C=1(C2=C(C=CC1)C=CC=C2)C3=CC=CC=C3",
    "meta_data": {
        "InChI": "InChI=1S/C16H12/c1-2-7-13(8-3-1)16-12-6-10-14-9-4-5-11-15(14)16/h1-12H",
        "InChIKey": null,
        "Canonical SMILES": "C=1C=CC(=CC1)C=2C=CC=C3C=CC=CC32",
        "Molecular Formula": "C<sub>16</sub>H<sub>12</sub>",
        "Molecular Mass": "204.27",
        "Boiling Point": "334 °C",
        "Melting Point": "45 °C",
        "Density": "1.103 g/cm³ @ Temp: 20 °C"
    }
}