{
    "cas_no": "58769-20-3",
    "key_name": "Kadethrin",
    "cn_name": null,
    "alternate_name": "Cyclopropanecarboxylic acid, 3-[(<em>E</em>)-(dihydro-2-oxo-3(2<em>H</em>)-thienylidene)methyl]-2,2-dimethyl-, [5-(phenylmethyl)-3-furanyl]methyl ester, (1<em>R</em>,3<em>S</em>)-;Cyclopropanecarboxylic acid, 3-[(dihydro-2-oxo-3(2<em>H</em>)-thienylidene)methyl]-2,2-dimethyl-, [5-(phenylmethyl)-3-furanyl]methyl ester, [1<em>R</em>-[1α,3α(<em>E</em>)]]-;ENT 29117;RU 15525;1<em>R</em>,<em>cis</em>-RU 15,525;Kadethrin",
    "duplicated_cas_no": "",
    "SMILES": "C(\\[C@H]1[C@@H](C(OCC=2C=C(CC3=CC=CC=C3)OC2)=O)C1(C)C)=C/4\\CCSC4=O",
    "meta_data": {
        "InChI": "InChI=1S/C23H24O4S/c1-23(2)19(12-17-8-9-28-22(17)25)20(23)21(24)27-14-16-11-18(26-13-16)10-15-6-4-3-5-7-15/h3-7,11-13,19-20H,8-10,14H2,1-2H3/b17-12+/t19-,20-/m0/s1",
        "InChIKey": null,
        "Canonical SMILES": "O=C1SCCC1=CC2C(C(=O)OCC3=COC(=C3)CC=4C=CC=CC4)C2(C)C",
        "Molecular Formula": "C<sub>23</sub>H<sub>24</sub>O<sub>4</sub>S",
        "Molecular Mass": "396.50",
        "Melting Point": "31 °C"
    }
}