{
    "cas_no": "2163-00-0",
    "key_name": "1,6-Dichlorohexane",
    "cn_name": null,
    "alternate_name": "Hexane, 1,6-dichloro-;1,6-Dichlorohexane;NSC 60700",
    "duplicated_cas_no": "",
    "SMILES": "C(CCCCl)CCCl",
    "meta_data": {
        "InChI": "InChI=1S/C6H12Cl2/c7-5-3-1-2-4-6-8/h1-6H2",
        "InChIKey": null,
        "Canonical SMILES": "ClCCCCCCCl",
        "Molecular Formula": "C<sub>6</sub>H<sub>12</sub>Cl<sub>2</sub>",
        "Molecular Mass": "155.07",
        "Boiling Point": "204 °C",
        "Density": "1.0677 g/cm³ @ Temp: 20 °C"
    }
}