{
    "cas_no": "693-05-0",
    "key_name": "3-(Methylamino)propanenitrile",
    "cn_name": "3-甲胺基丙腈;",
    "alternate_name": "Propanenitrile, 3-(methylamino)-;Propionitrile, 3-(methylamino)-;3-(Methylamino)propanenitrile;β-(Methylamino)propionitrile;<em>N</em>-(β-Cyanoethyl)methylamine;3-(Methylamino)propionitrile;(2-Cyanoethyl)methylamine;<em>N</em>-Methyl-β-aminopropionitrile;<em>N</em>-Methyl-2-cyanoethylamine;<em>N</em>-Methyl-β-alaninenitrile;<em>N</em>-Methyl-<em>N</em>-(2-cyanoethyl)amine;3-(<em>N</em>-Methylamino)propionitrile;<em>N</em>-(2-Cyanoethyl)methylamine;Methyl(2-cyanoethyl)amine;NSC 8399;<em>N</em>-(2-Cyanoethyl)-<em>N</em>-methylamine;3-Methylaminopropiononitrile",
    "duplicated_cas_no": "",
    "SMILES": "C(CNC)C#N",
    "meta_data": {
        "InChI": "InChI=1S/C4H8N2/c1-6-4-2-3-5/h6H,2,4H2,1H3",
        "InChIKey": null,
        "Canonical SMILES": "N#CCCNC",
        "Molecular Formula": "C<sub>4</sub>H<sub>8</sub>N<sub>2</sub>",
        "Molecular Mass": "84.12",
        "Boiling Point": "101-104 °C @ Press: 49 Torr",
        "Melting Point": "49-50 °C"
    }
}