{
    "cas_no": "3212-60-0",
    "key_name": "2-Cyclopenten-1-ol",
    "cn_name": null,
    "alternate_name": "2-Cyclopenten-1-ol;1-Cyclopenten-3-ol;Cyclopenten-3-ol;2-Cyclopentenol;3-Hydroxycyclopentene;2-Cyclopenten-1-ol, (±)-;NSC 2499",
    "duplicated_cas_no": "62894-08-0",
    "SMILES": "OC1CCC=C1",
    "meta_data": {
        "InChI": "InChI=1S/C5H8O/c6-5-3-1-2-4-5/h1,3,5-6H,2,4H2",
        "InChIKey": null,
        "Canonical SMILES": "OC1C=CCC1",
        "Molecular Formula": "C<sub>5</sub>H<sub>8</sub>O",
        "Molecular Mass": "84.12",
        "Boiling Point": "140 °C",
        "Density": "0.9815 g/cm³ @ Temp: 20 °C"
    }
}