{
    "cas_no": "75806-85-8",
    "key_name": "2,3,5-Tribromopyridine",
    "cn_name": "2,3,5-三溴吡啶;",
    "alternate_name": "Pyridine, 2,3,5-tribromo-;2,3,5-Tribromopyridine",
    "duplicated_cas_no": "",
    "SMILES": "BrC1=C(Br)N=CC(Br)=C1",
    "meta_data": {
        "InChI": "InChI=1S/C5H2Br3N/c6-3-1-4(7)5(8)9-2-3/h1-2H",
        "InChIKey": null,
        "Canonical SMILES": "BrC1=CN=C(Br)C(Br)=C1",
        "Molecular Formula": "C<sub>5</sub>H<sub>2</sub>Br<sub>3</sub>N",
        "Molecular Mass": "315.79",
        "Boiling Point": "160 °C",
        "Melting Point": "46 °C"
    }
}