{
    "cas_no": "86386-73-4",
    "key_name": "Fluconazole",
    "cn_name": null,
    "alternate_name": "1<em>H</em>-1,2,4-Triazole-1-ethanol, α-(2,4-difluorophenyl)-α-(1<em>H</em>-1,2,4-triazol-1-ylmethyl)-;α-(2,4-Difluorophenyl)-α-(1<em>H</em>-1,2,4-triazol-1-ylmethyl)-1<em>H</em>-1,2,4-triazole-1-ethanol;UK 49858;Fluconazole;Diflucan;Flucostat;Biozolene;Elazor;Triflucan;Flusol;Zoltec;Flunazol;Flumycon;Fluzon;Difluconazole;Fluconal;1-(2,4-Difluorophenyl)-1,1-bis[(1<em>H</em>-1,2,4-triazol-1-yl)methyl]methanol;Triconal;Zocon;Flucan;Fungicon;Fungican;Alkanazole;Flutec;2-(2,4-Difluorophenyl)-1,3-bis(1,2,4-triazol-1-yl)-propan-2-ol;Floroxan;2-(2,4-Difluorophenyl)-1,3-bis(1<em>H</em>-1,2,4-triazol-1-yl)propan-2-ol;MeSH ID: D015725",
    "duplicated_cas_no": "123631-92-5",
    "SMILES": "C(CN1C=NC=N1)(CN2C=NC=N2)(O)C3=C(F)C=C(F)C=C3",
    "meta_data": {
        "InChI": "InChI=1S/C13H12F2N6O/c14-10-1-2-11(12(15)3-10)13(22,4-20-8-16-6-18-20)5-21-9-17-7-19-21/h1-3,6-9,22H,4-5H2",
        "InChIKey": null,
        "Canonical SMILES": "FC1=CC=C(C(F)=C1)C(O)(CN2N=CN=C2)CN3N=CN=C3",
        "Molecular Formula": "C<sub>13</sub>H<sub>12</sub>F<sub>2</sub>N<sub>6</sub>O",
        "Molecular Mass": "306.27",
        "Melting Point": "138-140 °C"
    }
}