{
    "cas_no": "1518-72-5",
    "key_name": "Bis(2-methylpropyl) disulfide",
    "cn_name": "二异丁基二硫醚;",
    "alternate_name": "Disulfide, bis(2-methylpropyl);Isobutyl disulfide;Bis(2-methylpropyl) disulfide;Diisobutyl disulfide;2,7-Dimethyl-4,5-dithiaoctane;Di(2-methylpropyl) disulfide;2-Methyl-1-[(2-methylpropyl)disulfanyl]propane;2-Methyl-1-(2-methylpropyldisulfanyl)propane",
    "duplicated_cas_no": "1081834-42-5",
    "SMILES": "S(SCC(C)C)CC(C)C",
    "meta_data": {
        "InChI": "InChI=1S/C8H18S2/c1-7(2)5-9-10-6-8(3)4/h7-8H,5-6H2,1-4H3",
        "InChIKey": null,
        "Canonical SMILES": "S(SCC(C)C)CC(C)C",
        "Molecular Formula": "C<sub>8</sub>H<sub>18</sub>S<sub>2</sub>",
        "Molecular Mass": "178.36",
        "Boiling Point": "215 °C @ Press: 767 Torr",
        "Density": "0.9090 g/cm³ @ Temp: 20 °C"
    }
}