{
    "cas_no": "6277-38-9",
    "key_name": "1-(4-Methoxy-3-nitrophenyl)ethanone",
    "cn_name": "4-甲氧基-3-硝基苯乙酮;4-甲氧基-3-硝基苯乙酮;4\"-甲氧基-2-硝基苯乙酮;",
    "alternate_name": "Ethanone, 1-(4-methoxy-3-nitrophenyl)-;Acetophenone, 4′-methoxy-3′-nitro-;Acetophenone, 4-methoxy-3-nitro-;1-(4-Methoxy-3-nitrophenyl)ethanone;4-Methoxy-3-nitroacetophenone;4′-Methoxy-3′-nitroacetophenone;3′-Nitro-4′-methoxyacetophenone;3-Nitro-4-methoxyacetophenone;NSC 35014;NSC 49586;1-(3-Nitro-4-methoxyphenyl)ethan-1-one;1-(4-Methoxy-3-nitrophenyl)ethan-1-one",
    "duplicated_cas_no": "",
    "SMILES": "N(=O)(=O)C1=C(OC)C=CC(C(C)=O)=C1",
    "meta_data": {
        "InChI": "InChI=1S/C9H9NO4/c1-6(11)7-3-4-9(14-2)8(5-7)10(12)13/h3-5H,1-2H3",
        "InChIKey": null,
        "Canonical SMILES": "O=C(C1=CC=C(OC)C(=C1)N(=O)=O)C",
        "Molecular Formula": "C<sub>9</sub>H<sub>9</sub>NO<sub>4</sub>",
        "Molecular Mass": "195.17",
        "Melting Point": "99.5 °C"
    }
}