{
    "cas_no": "7647-18-9",
    "key_name": "Antimony pentachloride",
    "cn_name": "五氯化锑;氯化锑;",
    "alternate_name": "Antimony chloride (SbCl<sub>5</sub>);Antimony pentachloride;Antimony perchloride;Antimony(V) chloride;Antimony pentachloride (SbCl<sub>5</sub>);Pentachloroantimony",
    "duplicated_cas_no": "12314-11-3",
    "SMILES": "[Sb](Cl)(Cl)(Cl)(Cl)Cl",
    "meta_data": {
        "InChI": "InChI=1S/5ClH.Sb/h5*1H;/q;;;;;+5/p-5",
        "InChIKey": null,
        "Canonical SMILES": "Cl[Sb](Cl)(Cl)(Cl)Cl",
        "Molecular Formula": "Cl<sub>5</sub>Sb",
        "Molecular Mass": "",
        "Boiling Point": "79 °C @ Press: 22 Torr",
        "Melting Point": "2.8 °C",
        "Density": "2.3356 g/cm³ @ Temp: 20 °C"
    }
}