{
    "cas_no": "146-56-5",
    "key_name": "Fluphenazine hydrochloride",
    "cn_name": "盐酸氟奋乃静;氟奋乃静盐酸盐;盐酸氟奋乃静;氟付沙明杂质;盐酸氟奋那嗪;氟非那嗪盐酸盐;氟非那嗪.盐酸盐,98;",
    "alternate_name": "1-Piperazineethanol, 4-[3-[2-(trifluoromethyl)-10<em>H</em>-phenothiazin-10-yl]propyl]-, hydrochloride (1:2);1-Piperazineethanol, 4-[3-[2-(trifluoromethyl)phenothiazin-10-yl]propyl]-, dihydrochloride;1-Piperazineethanol, 4-[3-[2-(trifluoromethyl)-10<em>H</em>-phenothiazin-10-yl]propyl]-, dihydrochloride;Anatensol;Fluphenazine dihydrochloride;Fluphenazine hydrochloride;10-[3-[4-(2-Hydroxyethyl)piperazinyl]propyl]-2-trifluoromethylphenothiazine dihydrochloride;1-(2-Hydroxyethyl)-4-[3-(2-trifluoromethyl-10-phenothiazinylpropyl]piperazine dihydrochloride;Moditen;Permitil;Permitil hydrochloride;Prolixin;Squibb 4918;4-[3-[2-(Trifluoromethyl)phenothiazin-10-yl]propyl]-1-piperazineethanol dihydrochloride;Liogen;Lyorodin;Fluorophenazine dihydrochloride;Tensofin;OMCA;Flufenazin;Fluphenazine chloride;Trancin;Mirenil;Siqualone;Dapotum;Valamina;Lyogen;Fludecan;Prolinate;2-(4-(3-(2-(Trifluoromethyl)-10<em>H</em>-phenothiazin-10-yl)propyl)piperazin-1-yl)ethanol dihydrochloride",
    "duplicated_cas_no": "36315-90-9",
    "SMILES": "C(CCN1CCN(CCO)CC1)N2C=3C(SC=4C2=CC=CC4)=CC=C(C(F)(F)F)C3.Cl",
    "meta_data": {
        "InChI": "InChI=1S/C22H26F3N3OS.2ClH/c23-22(24,25)17-6-7-21-19(16-17)28(18-4-1-2-5-20(18)30-21)9-3-8-26-10-12-27(13-11-26)14-15-29;;/h1-2,4-7,16,29H,3,8-15H2;2*1H",
        "InChIKey": null,
        "Canonical SMILES": "Cl.FC(F)(F)C1=CC=C2SC=3C=CC=CC3N(C2=C1)CCCN4CCN(CCO)CC4",
        "Molecular Formula": "C<sub>22</sub>H<sub>26</sub>F<sub>3</sub>N<sub>3</sub>OS.2ClH",
        "Molecular Mass": "",
        "Melting Point": "235-237 °C"
    }
}