{
    "cas_no": "1119-34-2",
    "key_name": "<span class=\"text-smallcaps\">L</span>-Arginine, monohydrochloride",
    "cn_name": "L-精氨酸盐酸盐;",
    "alternate_name": "<span class=\"text-smallcaps\">L</span>-Arginine, hydrochloride (1:1);Arginine, monohydrochloride, <span class=\"text-smallcaps\">L</span>-;<span class=\"text-smallcaps\">L</span>-Arginine, monohydrochloride;Argivene;R-Gene;Arginine hydrochloride;Arginine monohydrochloride;<span class=\"text-smallcaps\">L</span>-Arginine hydrochloride;Arginine monochloride;Argamine;Detoxargin;Levargin;Minophagen A;NSC 203450;NSC 7914;<span class=\"text-smallcaps\">L</span>-(+)-Arginine monohydrochloride;Tivortin;<span class=\"text-smallcaps\">L</span>-(+)-Arginine hydrochloride",
    "duplicated_cas_no": "",
    "SMILES": "C(CCNC(=N)N)[C@@H](C(O)=O)N.Cl",
    "meta_data": {
        "InChI": "InChI=1S/C6H14N4O2.ClH/c7-4(5(11)12)2-1-3-10-6(8)9;/h4H,1-3,7H2,(H,11,12)(H4,8,9,10);1H/t4-;/m0./s1",
        "InChIKey": null,
        "Canonical SMILES": "Cl.O=C(O)C(N)CCCNC(=N)N",
        "Molecular Formula": "C<sub>6</sub>H<sub>14</sub>N<sub>4</sub>O<sub>2</sub>.ClH",
        "Molecular Mass": "",
        "Melting Point": "222 °C"
    }
}