{
    "cas_no": "99-15-0",
    "key_name": "Acetyl-<span class=\"text-smallcaps\">DL</span>-leucine",
    "cn_name": "N-乙酰-DL-亮氨酸;",
    "alternate_name": "Leucine, <em>N</em>-acetyl-;Leucine, <em>N</em>-acetyl-, <span class=\"text-smallcaps\">DL</span>-;<span class=\"text-smallcaps\">DL</span>-Leucine, <em>N</em>-acetyl-;<em>N</em>-Acetylleucine;<em>N</em>-Acetyl-<span class=\"text-smallcaps\">DL</span>-leucine;Acetyl-<span class=\"text-smallcaps\">DL</span>-leucine;Acetylleucine;NSC 122020;2-Acetamido-4-methylpentanoic acid;Tanganil;2-[(1-Hydroxyethylidene)amino]-4-methylpentanoic acid",
    "duplicated_cas_no": "138002-01-4",
    "SMILES": "C(CC(C)C)(NC(C)=O)C(O)=O",
    "meta_data": {
        "InChI": "InChI=1S/C8H15NO3/c1-5(2)4-7(8(11)12)9-6(3)10/h5,7H,4H2,1-3H3,(H,9,10)(H,11,12)",
        "InChIKey": null,
        "Canonical SMILES": "O=C(NC(C(=O)O)CC(C)C)C",
        "Molecular Formula": "C<sub>8</sub>H<sub>15</sub>NO<sub>3</sub>",
        "Molecular Mass": "173.21",
        "Melting Point": "159-160 °C"
    }
}