{
    "cas_no": "616-76-2",
    "key_name": "5-Formylsalicylic acid",
    "cn_name": "5-甲酰水杨酸;",
    "alternate_name": "Benzoic acid, 5-formyl-2-hydroxy-;Isophthalaldehydic acid, 6-hydroxy-;5-Formyl-2-hydroxybenzoic acid;6-Hydroxyisophthalaldehydic acid;3-Carboxy-4-hydroxybenzaldehyde;5-Formylsalicylic acid;2-Hydroxy-5-formylbenzoic acid;3-Formyl-6-hydroxybenzoic acid;NSC 15046;NSC 16527",
    "duplicated_cas_no": "",
    "SMILES": "C(O)(=O)C1=CC(C=O)=CC=C1O",
    "meta_data": {
        "InChI": "InChI=1S/C8H6O4/c9-4-5-1-2-7(10)6(3-5)8(11)12/h1-4,10H,(H,11,12)",
        "InChIKey": null,
        "Canonical SMILES": "O=CC1=CC=C(O)C(=C1)C(=O)O",
        "Molecular Formula": "C<sub>8</sub>H<sub>6</sub>O<sub>4</sub>",
        "Molecular Mass": "166.13",
        "Melting Point": "329-332 °C (decomp)"
    }
}