{
    "cas_no": "89-59-8",
    "key_name": "4-Chloro-1-methyl-2-nitrobenzene",
    "cn_name": "4-氯-2-硝基甲苯;2-硝基-4-氯甲苯;",
    "alternate_name": "Benzene, 4-chloro-1-methyl-2-nitro-;Toluene, 4-chloro-2-nitro-;4-Chloro-1-methyl-2-nitrobenzene;4-Chloro-2-nitrotoluene;<em>p</em>-Chloro-<em>o</em>-nitrotoluene;2-Nitro-4-chlorotoluene;4-Chloro-2-nitro-1-methylbenzene;2-Methyl-5-chloronitrobenzene;NSC 5386;1-Chloro-4-methyl-3-nitrobenzene",
    "duplicated_cas_no": "",
    "SMILES": "N(=O)(=O)C1=C(C)C=CC(Cl)=C1",
    "meta_data": {
        "InChI": "InChI=1S/C7H6ClNO2/c1-5-2-3-6(8)4-7(5)9(10)11/h2-4H,1H3",
        "InChIKey": null,
        "Canonical SMILES": "O=N(=O)C1=CC(Cl)=CC=C1C",
        "Molecular Formula": "C<sub>7</sub>H<sub>6</sub>ClNO<sub>2</sub>",
        "Molecular Mass": "171.58",
        "Boiling Point": "242 °C",
        "Melting Point": "38 °C"
    }
}