{
    "cas_no": "97614-44-3",
    "key_name": "α-<span class=\"text-smallcaps\">D</span>-Arabinofuranosyl bromide, 2-deoxy-2-fluoro-, 3,5-dibenzoate",
    "cn_name": null,
    "alternate_name": "α-<span class=\"text-smallcaps\">D</span>-Arabinofuranosyl bromide, 2-deoxy-2-fluoro-, 3,5-dibenzoate;α-<span class=\"text-smallcaps\">D</span>-Arabinofuranosyl bromide, 2-deoxy-2-fluoro-, dibenzoate;2-Deoxy-1-α-bromo-2-β-fluoro-3,5-di-<em>O</em>-benzoyl-<span class=\"text-smallcaps\">D</span>-ribofuranose",
    "duplicated_cas_no": "",
    "SMILES": "O(C(=O)C1=CC=CC=C1)[C@@H]2[C@@H](COC(=O)C3=CC=CC=C3)O[C@H](Br)[C@H]2F",
    "meta_data": {
        "InChI": "InChI=1S/C19H16BrFO5/c20-17-15(21)16(26-19(23)13-9-5-2-6-10-13)14(25-17)11-24-18(22)12-7-3-1-4-8-12/h1-10,14-17H,11H2/t14-,15+,16-,17+/m1/s1",
        "InChIKey": null,
        "Canonical SMILES": "O=C(OCC1OC(Br)C(F)C1OC(=O)C=2C=CC=CC2)C=3C=CC=CC3",
        "Molecular Formula": "C<sub>19</sub>H<sub>16</sub>BrFO<sub>5</sub>",
        "Molecular Mass": "423.23",
        "Melting Point": "73 °C"
    }
}