{
    "cas_no": "52962-25-1",
    "key_name": "2-Carboxy-4-methoxybenzeneacetic acid",
    "cn_name": null,
    "alternate_name": "Benzeneacetic acid, 2-carboxy-4-methoxy-;<em>m</em>-Anisic acid, 6-(carboxymethyl)-;2-Carboxy-4-methoxybenzeneacetic acid;4-Methoxyhomophthalic acid;2-Carboxymethyl-5-methoxybenzoic acid",
    "duplicated_cas_no": "",
    "SMILES": "C(C(O)=O)C1=C(C(O)=O)C=C(OC)C=C1",
    "meta_data": {
        "InChI": "InChI=1S/C10H10O5/c1-15-7-3-2-6(4-9(11)12)8(5-7)10(13)14/h2-3,5H,4H2,1H3,(H,11,12)(H,13,14)",
        "InChIKey": null,
        "Canonical SMILES": "O=C(O)C1=CC(OC)=CC=C1CC(=O)O",
        "Molecular Formula": "C<sub>10</sub>H<sub>10</sub>O<sub>5</sub>",
        "Molecular Mass": "210.18",
        "Melting Point": "188 °C"
    }
}