{
    "cas_no": "721-90-4",
    "key_name": "Phenylalanylglycine",
    "cn_name": null,
    "alternate_name": "Glycine, <span class=\"text-smallcaps\">L</span>-phenylalanyl-;Glycine, <em>N</em>-(3-phenyl-<span class=\"text-smallcaps\">L</span>-alanyl)-;Glycine, <em>N</em>-<span class=\"text-smallcaps\">L</span>-phenylalanyl-;<span class=\"text-smallcaps\">L</span>-Phenylalanylglycine;Phenylalanylglycine;NSC 89182;10: PN: WO2014063098 TABLE: 5 claimed protein;105: PN: US20130123467 SEQID: 128 claimed protein;3: PN: RU2506269 PAGE: 14 claimed sequence;28: PN: WO2016049036 SEQID: 69 claimed protein;2-[[(2S)-2-Amino-3-phenylpropanoyl]amino]acetic acid;2-[(2S)-2-Amino-3-phenylpropanamido]acetic acid",
    "duplicated_cas_no": "",
    "SMILES": "C([C@@H](C(NCC(O)=O)=O)N)C1=CC=CC=C1",
    "meta_data": {
        "InChI": "InChI=1S/C11H14N2O3/c12-9(11(16)13-7-10(14)15)6-8-4-2-1-3-5-8/h1-5,9H,6-7,12H2,(H,13,16)(H,14,15)/t9-/m0/s1",
        "InChIKey": null,
        "Canonical SMILES": "O=C(O)CNC(=O)C(N)CC=1C=CC=CC1",
        "Molecular Formula": "C<sub>11</sub>H<sub>14</sub>N<sub>2</sub>O<sub>3</sub>",
        "Molecular Mass": "222.24",
        "Melting Point": "224 °C"
    }
}