{
    "cas_no": "13504-15-9",
    "key_name": "(16β)-17,21-Dihydroxy-16-methylpregna-1,4,9(11)-triene-3,20-dione",
    "cn_name": null,
    "alternate_name": "Pregna-1,4,9(11)-triene-3,20-dione, 17,21-dihydroxy-16-methyl-, (16β)-;Pregna-1,4,9(11)-triene-3,20-dione, 17,21-dihydroxy-16β-methyl-;(16β)-17,21-Dihydroxy-16-methylpregna-1,4,9(11)-triene-3,20-dione",
    "duplicated_cas_no": "",
    "SMILES": "C[C@@]12[C@]([C@]3(C(=CC1)[C@]4(C)C(CC3)=CC(=O)C=C4)[H])(C[C@H](C)[C@@]2(C(CO)=O)O)[H]",
    "meta_data": {
        "InChI": "InChI=1S/C22H28O4/c1-13-10-18-16-5-4-14-11-15(24)6-8-20(14,2)17(16)7-9-21(18,3)22(13,26)19(25)12-23/h6-8,11,13,16,18,23,26H,4-5,9-10,12H2,1-3H3/t13-,16+,18-,20-,21-,22-/m0/s1",
        "InChIKey": null,
        "Canonical SMILES": "O=C1C=CC2(C(=C1)CCC3C2=CCC4(C)C3CC(C)C4(O)C(=O)CO)C",
        "Molecular Formula": "C<sub>22</sub>H<sub>28</sub>O<sub>4</sub>",
        "Molecular Mass": "356.46",
        "Melting Point": "209-212 °C"
    }
}