{
    "cas_no": "42079-78-7",
    "key_name": "5-Methoxyflavone",
    "cn_name": null,
    "alternate_name": "4<em>H</em>-1-Benzopyran-4-one, 5-methoxy-2-phenyl-;Flavone, 5-methoxy-;5-Methoxy-2-phenyl-4<em>H</em>-1-benzopyran-4-one;5-Methoxyflavone",
    "duplicated_cas_no": "",
    "SMILES": "O(C)C1=C2C(OC(=CC2=O)C3=CC=CC=C3)=CC=C1",
    "meta_data": {
        "InChI": "InChI=1S/C16H12O3/c1-18-13-8-5-9-14-16(13)12(17)10-15(19-14)11-6-3-2-4-7-11/h2-10H,1H3",
        "InChIKey": null,
        "Canonical SMILES": "O=C1C=C(OC2=CC=CC(OC)=C12)C=3C=CC=CC3",
        "Molecular Formula": "C<sub>16</sub>H<sub>12</sub>O<sub>3</sub>",
        "Molecular Mass": "252.26",
        "Melting Point": "135 °C"
    }
}