{
    "cas_no": "1039-17-4",
    "key_name": "9-Dehydromethyltestosterone",
    "cn_name": "17beta-羟基-17-甲基雄甾-4,9(11)-二烯-3-酮;",
    "alternate_name": "Androsta-4,9(11)-dien-3-one, 17-hydroxy-17-methyl-, (17β)-;Androsta-4,9(11)-dien-3-one, 17β-hydroxy-17-methyl-;(17β)-17-Hydroxy-17-methylandrosta-4,9(11)-dien-3-one;U 5261;Δ<sup>9-11</sup>-Methyltestosterone;17β-Hydroxy-17-methylandrost-4,9(11)-dien-3-one;Androsta-4,9(11)-diene-17α-methyl-17β-ol-3-one;17β-Hydroxy-17-methylandrosta-4,9(11)-dien-3-one;17α-Methyl-4,9(11)-androstadien-17β-ol-3-one;17β-Hydroxy-17α-methyl-4,9(11)androstadien-3-one;4,9(11)-Androstadien-17α-methyl-17β-ol-3-one;NSC 3356;9-Dehydromethyltestosterone;17b-Hydroxy-17-methylandrosta-4,9(11)-dien-3-one",
    "duplicated_cas_no": "",
    "SMILES": "C[C@@]12C=3[C@]([C@]4([C@](C)(CC3)[C@@](C)(O)CC4)[H])(CCC1=CC(=O)CC2)[H]",
    "meta_data": {
        "InChI": "InChI=1S/C20H28O2/c1-18-9-6-14(21)12-13(18)4-5-15-16(18)7-10-19(2)17(15)8-11-20(19,3)22/h7,12,15,17,22H,4-6,8-11H2,1-3H3/t15-,17+,18+,19+,20+/m1/s1",
        "InChIKey": null,
        "Canonical SMILES": "O=C1C=C2CCC3C(=CCC4(C)C3CCC4(O)C)C2(C)CC1",
        "Molecular Formula": "C<sub>20</sub>H<sub>28</sub>O<sub>2</sub>",
        "Molecular Mass": "300.44",
        "Melting Point": "170-172 °C"
    }
}