{
    "cas_no": "31566-31-1",
    "key_name": "Monostearin",
    "cn_name": null,
    "alternate_name": "Octadecanoic acid, monoester with 1,2,3-propanetriol;Stearin, mono-;Monoglyceryl stearate;Glycerol monostearate;Monostearin;Kao Atorum P 40S;Glyceryl monostearate;Glycerin monostearate;Imwitor 191;Nikkol MGS-A;Sinnoester SG;Vykamol S/E;Vykamol N/E;Advawax 140;Myvaplex;Hallmark GMS;Stearic acid glycerol monoester;Rikemal S 100;Nikkol MGS;Imwitor 960K;GMS (glyceride);Stearic acid monoglyceride;Glycerol monooctadecanoate;GMS 90;Aldo SMV;Imwitor 900K;Monogly MB;Aldo MS;Cerasynt SD;Electrostripper TS 5;GMS;Polynol A;Rikemal RMS 100;Aldo 28;Empilan GMS-SE 40;Loxiol G 12;R 60 (glyceride);R 60;Empilan GMS/NSE 40;Cithrol GMS;Rikemal S 100A;KPL 1;Cutina GMS;Rewomul MG;Hostalub FE 2;Atmer 129;CPH 53N;Nissan Monogly MB;Nissan Monogly;Nikkol MGS-ASE;Cerasynt 945;S 100A;Capmul GMS 40;Drewmulse GMS-AE;Brian M 1;Stearic monoglyceride;Poem S 100V;Dimodan PM;Dur-Em 117;Myvaplex 600;Rheodol MS 50;Excel 124;Cerasynt Q;Sunsoft 8000;Rikemal 100;Glycolube 825;Estol 1463;Lipo GMS 470;Rheodol MS 60;TB 123;Denon 2068;Atmer 128;Pelemol GS;Myvaplex 600P;Imwitor 960;Anstex MG 100;Loxiol EP 12;Rikemal 100A;MB 400;S 100;Glycerine monostearate;Cerasynt GMS;Atmer 126;Monogly D;Alkamuls GMS-C;MGS-B;Pationic 902;Pationic 901;Edenor GMS;Nikkol MGS-F 20;Citomulgan T00-785;Citomulgan TOO-785;Myverol 18-06K;Emalsy MH;Radiasurf 7140/3;Sorbon MG 100;Kessco GMS Pure;TS 5;Nissan Monogly 5;Monogly 5;Nikkol MGS-F 50;TG-C;Glycolube 110;Loxiol EP 129;MGS-A;Excel 84;Estol 1474;Atmer 290;Rikemal S 100P;S 100P;Elesto TS 5;Atmer 1013;T 95;Rylo-MG 18;Imwitor 940;T 95 (surfactant);Rheodol MS 165;Capmul GMS 50;MB 400 (antistatic agent);Jeechem GMS-450;Monostearoyl glycerol;Nikkol MGS-B;Albimono 90V;Cutina MDV;Emerest 240;Lipo 470 SE;Stepan GMS Pure;MGS-BSEV;Smoothex SMG;Pationic 909;Nikkol MGS-C;Poem V 100;Imwitor 900 P;Atmer 801;Rikester M 100;M 100;GMS-V;Imwitor 491;MGS-BV;Emalex GMS-A;Emalex GMS 55FD;Emalex GMS 10SE;Nikkol MGS-ASEV;Nikkol MGS-F 20V;Lasermul 92AE;Nikkol MGS-BV;Cithrol GMS 0400;Cutina GMS-SE;Nikkol MGS-F 40V;Nikkol MGS-AV;Mazol GMS;Advalube F 1005;Nikkol MGS-FSEV;Hostastat FE 1;Nikkol MGS 150V;Atmer 7300;Sunsoft NO 118;Sunsoft 8000V;Elec TS 5;VegaGel;MGS-F 75MV;MGS-F 50MV;Emalex GMS 8C;Nikkol MGS-BSEV;Glycolube 140;HI-LUB-B 50;Rheodol MS 165V;Dimodan HP 20M;TD 305;MGS-BSE;Nikkol MGS-BSE;MGS-F 20V;Abimono SS 40P;Dimodan HAB;GMS 105;GMS 205;Sunsoft 118;Drewmulse 200K;Guriran TG-C;Emalex GMS-ASE;Perfad 3336;MGS-AMV;S 100P antistatic agent;Nikkol MGS 50V;MGS-BV 2;Estol 1473;Cithrol 0400;MGS-F 50V;Excel S 95;Pre 7070;Nikkol MGS-BMV;Antistatic 129;Dimodan HR 75B;BFP 75A;Softenol 3995;Softemul;Verol N-Vegetable;DM 99;D 95;D 95 (antistatic agent);Excel VS 95;Loxiol 8312;Loxiol G 129;G 129;Cithrol GMS 40PW-GD;Emulsy MH;Montex MA;Perfad FM 3336;Rikemal H 100;SE 364;H 100;NIKKOL MGS-DEXV;Montex A;Myverol 18-07K;Dimodan HP;Myverol 18-08;P 100;Pationic 915;MGS-BMV;Glycerostearic acid;Nikkol MGS-AMV;Atmul 84;Atmer 129V;Activ 325;Rikemal AS 003;Rike HG 60;HG 60;Radiasurf 7142;GMS-BV;Emalsy MM Super V;AS 105;Rikemal AS 105;Glyceryl Stearate SE;Rikemal AS 005;MS 165;TS 5BS;Grindsted PS 426;Finstate 9500;Excel S 95R;Almax 1000;EMULSY MM Super V;Nikkol MGS-F 50SEV;S 823826;Glyceryl stearate;Finastat 9500;Nikkol MGS-BV 2F",
    "duplicated_cas_no": "1319-95-5;8029-22-9;8039-58-5;8045-31-6;8050-92-8;12676-39-0;37297-05-5;55962-68-0;58615-57-9;61163-94-8;64366-44-5;69073-02-5;86904-15-6;87714-32-7;100041-47-2;109767-98-8;110618-11-6;119758-60-0;146586-29-0;150605-03-1;176365-67-6;177645-80-6;200138-94-9;209533-94-8;413576-89-3;696587-54-9;902145-16-8;1361318-46-8;1617532-55-4;2025308-77-2",
    "SMILES": "",
    "meta_data": {
        "InChI": "",
        "InChIKey": null,
        "Canonical SMILES": "",
        "Molecular Formula": "C<sub>21</sub>H<sub>42</sub>O<sub>4</sub>",
        "Molecular Mass": "",
        "Melting Point": "57 °C",
        "Density": "1.03 g/cm³ @ Temp: 20 °C"
    }
}