{
    "cas_no": "6531-86-8",
    "key_name": "[1,1′-Bicyclohexyl]-2-ol",
    "cn_name": "2-环己基环己醇;",
    "alternate_name": "[1,1′-Bicyclohexyl]-2-ol;[Bicyclohexyl]-2-ol;Cyclohexanol, 2-cyclohexyl-;2-Cyclohexylcyclohexanol;NSC 6094",
    "duplicated_cas_no": "",
    "SMILES": "OC1C(C2CCCCC2)CCCC1",
    "meta_data": {
        "InChI": "InChI=1S/C12H22O/c13-12-9-5-4-8-11(12)10-6-2-1-3-7-10/h10-13H,1-9H2",
        "InChIKey": null,
        "Canonical SMILES": "OC1CCCCC1C2CCCCC2",
        "Molecular Formula": "C<sub>12</sub>H<sub>22</sub>O",
        "Molecular Mass": "182.30",
        "Boiling Point": "267-270 °C",
        "Melting Point": "31 °C",
        "Density": "0.971 g/cm³ @ Temp: 18 °C"
    }
}