{
    "cas_no": "653-31-6",
    "key_name": "2,3,4,5,6-Pentafluorobenzeneethanol",
    "cn_name": null,
    "alternate_name": "Benzeneethanol, 2,3,4,5,6-pentafluoro-;Phenethyl alcohol, 2,3,4,5,6-pentafluoro-;2,3,4,5,6-Pentafluorobenzeneethanol;2-(Pentafluorophenyl)ethanol;NSC 96899;2-(2,3,4,5,6-Pentafluorophenyl)ethanol;2-(Perfluorophenyl)ethanol;2-(Pentafluorophenyl)ethan-1-ol",
    "duplicated_cas_no": "",
    "SMILES": "C(CO)C1=C(F)C(F)=C(F)C(F)=C1F",
    "meta_data": {
        "InChI": "InChI=1S/C8H5F5O/c9-4-3(1-2-14)5(10)7(12)8(13)6(4)11/h14H,1-2H2",
        "InChIKey": null,
        "Canonical SMILES": "FC=1C(F)=C(F)C(=C(F)C1F)CCO",
        "Molecular Formula": "C<sub>8</sub>H<sub>5</sub>F<sub>5</sub>O",
        "Molecular Mass": "212.12",
        "Boiling Point": "85.5-87.0 °C @ Press: 14 Torr"
    }
}