{
    "cas_no": "3385-94-2",
    "key_name": "Bis(trimethylsilyl) sulfide",
    "cn_name": "六甲基二硅硫烷;双(三甲基硫化硅);硫甲基二硅硫烷;",
    "alternate_name": "Disilathiane, 1,1,1,3,3,3-hexamethyl-;Disilthiane, hexamethyl-;Disilathiane, hexamethyl-;1,1,1,3,3,3-Hexamethyldisilathiane;Bis(trimethylsilyl) sulfide;Hexamethyldisilthiane;Hexamethyldisilathiane;Hexamethyldisilyl sulfide;Hexamethyldisilthian;Bis(trimethylsilyl)sulfur;Hexamethyldisilylthiane;NSC 252160",
    "duplicated_cas_no": "",
    "SMILES": "S([Si](C)(C)C)[Si](C)(C)C",
    "meta_data": {
        "InChI": "InChI=1S/C6H18SSi2/c1-8(2,3)7-9(4,5)6/h1-6H3",
        "InChIKey": null,
        "Canonical SMILES": "S([Si](C)(C)C)[Si](C)(C)C",
        "Molecular Formula": "C<sub>6</sub>H<sub>18</sub>SSi<sub>2</sub>",
        "Molecular Mass": "178.44",
        "Boiling Point": "162-164 °C",
        "Density": "0.851 g/cm³"
    }
}