{
    "cas_no": "1006062-28-7",
    "key_name": "5-[4′-[[2-Butyl-4-chloro-5-[(triphenylmethoxy)methyl]-1<em>H</em>-imidazol-1-yl]methyl][1,1′-biphenyl]-2-yl]-2<em>H</em>-tetrazole",
    "cn_name": null,
    "alternate_name": "2<em>H</em>-Tetrazole, 5-[4′-[[2-butyl-4-chloro-5-[(triphenylmethoxy)methyl]-1<em>H</em>-imidazol-1-yl]methyl][1,1′-biphenyl]-2-yl]-;5-[4′-[[2-Butyl-4-chloro-5-[(triphenylmethoxy)methyl]-1<em>H</em>-imidazol-1-yl]methyl][1,1′-biphenyl]-2-yl]-2<em>H</em>-tetrazole",
    "duplicated_cas_no": "",
    "SMILES": "C(OCC=1N(CC2=CC=C(C=C2)C3=C(C=CC=C3)C=4NN=NN4)C(CCCC)=NC1Cl)(C5=CC=CC=C5)(C6=CC=CC=C6)C7=CC=CC=C7",
    "meta_data": {
        "InChI": "InChI=1S/C41H37ClN6O/c1-2-3-23-38-43-39(42)37(48(38)28-30-24-26-31(27-25-30)35-21-13-14-22-36(35)40-44-46-47-45-40)29-49-41(32-15-7-4-8-16-32,33-17-9-5-10-18-33)34-19-11-6-12-20-34/h4-22,24-27H,2-3,23,28-29H2,1H3,(H,44,45,46,47)",
        "InChIKey": null,
        "Canonical SMILES": "ClC=1N=C(N(C1COC(C=2C=CC=CC2)(C=3C=CC=CC3)C=4C=CC=CC4)CC=5C=CC(=CC5)C=6C=CC=CC6C7=NN=NN7)CCCC",
        "Molecular Formula": "C<sub>41</sub>H<sub>37</sub>ClN<sub>6</sub>O",
        "Molecular Mass": "665.23",
        "Melting Point": "170-172 °C"
    }
}