{
    "cas_no": "10025-69-1",
    "key_name": "Tin dichloride dihydrate",
    "cn_name": "氯化亚锡;二氯化锡二水合物;",
    "alternate_name": "Tin chloride (SnCl<sub>2</sub>), dihydrate;Stannous chloride dihydrate;Tin dichloride dihydrate;Stannous dichloride dihydrate;Tin chloride dihydrate;Tin(II) chloride dihydrate;Tin dichloride dihydrate (SnCl<sub>2</sub>.2H<sub>2</sub>O);Tin, dichloro-, hydrate (1:2)",
    "duplicated_cas_no": "1235546-99-2",
    "SMILES": "[Sn](Cl)Cl.O",
    "meta_data": {
        "InChI": "InChI=1S/2ClH.2H2O.Sn/h2*1H;2*1H2;/q;;;;+2/p-2",
        "InChIKey": null,
        "Canonical SMILES": "Cl[Sn]Cl.O",
        "Molecular Formula": "Cl<sub>2</sub>Sn.2H<sub>2</sub>O",
        "Molecular Mass": "",
        "Melting Point": "38 °C",
        "Density": "2.71 g/cm³"
    }
}