{
    "cas_no": "83902-02-7",
    "key_name": "2-(Bromomethyl)-1,3-dimethylbenzene",
    "cn_name": "2,6-二甲基苄基溴;",
    "alternate_name": "Benzene, 2-(bromomethyl)-1,3-dimethyl-;2-(Bromomethyl)-1,3-dimethylbenzene;2,6-Dimethylbenzyl bromide",
    "duplicated_cas_no": "",
    "SMILES": "C(Br)C1=C(C)C=CC=C1C",
    "meta_data": {
        "InChI": "InChI=1S/C9H11Br/c1-7-4-3-5-8(2)9(7)6-10/h3-5H,6H2,1-2H3",
        "InChIKey": null,
        "Canonical SMILES": "BrCC=1C(=CC=CC1C)C",
        "Molecular Formula": "C<sub>9</sub>H<sub>11</sub>Br",
        "Molecular Mass": "199.09",
        "Melting Point": "37.5-38.5 °C"
    }
}