{
    "cas_no": "422-59-3",
    "key_name": "2,2,3,3,3-Pentafluoropropanoyl chloride",
    "cn_name": "五氟丙酰氯;五氟丙酰氯;",
    "alternate_name": "Propanoyl chloride, 2,2,3,3,3-pentafluoro-;Propionyl chloride, pentafluoro-;Propanoyl chloride, pentafluoro-;2,2,3,3,3-Pentafluoropropanoyl chloride;Pentafluoropropionyl chloride;Perfluoropropionyl chloride;Perfluoropropionic chloride",
    "duplicated_cas_no": "",
    "SMILES": "C(C(F)(F)F)(C(Cl)=O)(F)F",
    "meta_data": {
        "InChI": "InChI=1S/C3ClF5O/c4-1(10)2(5,6)3(7,8)9",
        "InChIKey": null,
        "Canonical SMILES": "O=C(Cl)C(F)(F)C(F)(F)F",
        "Molecular Formula": "C<sub>3</sub>ClF<sub>5</sub>O",
        "Molecular Mass": "182.48",
        "Boiling Point": "9.5 °C @ Press: 760 Torr"
    }
}