{
    "cas_no": "110525-57-0",
    "key_name": "1-[(4-Nitrophenyl)methyl]-1<em>H</em>-pyrazole",
    "cn_name": "1-[(4-硝基苯)甲基]吡唑;",
    "alternate_name": "1<em>H</em>-Pyrazole, 1-[(4-nitrophenyl)methyl]-;1-[(4-Nitrophenyl)methyl]-1<em>H</em>-pyrazole;1-[(4-Nitrophenyl)methyl]pyrazole",
    "duplicated_cas_no": "",
    "SMILES": "C(C1=CC=C(N(=O)=O)C=C1)N2C=CC=N2",
    "meta_data": {
        "InChI": "InChI=1S/C10H9N3O2/c14-13(15)10-4-2-9(3-5-10)8-12-7-1-6-11-12/h1-7H,8H2",
        "InChIKey": null,
        "Canonical SMILES": "O=N(=O)C1=CC=C(C=C1)CN2N=CC=C2",
        "Molecular Formula": "C<sub>10</sub>H<sub>9</sub>N<sub>3</sub>O<sub>2</sub>",
        "Molecular Mass": "203.20",
        "Melting Point": "88-89 °C"
    }
}