{
    "cas_no": "32262-18-3",
    "key_name": "4-Methoxy-1-methyl-2(1<em>H</em>)-quinolinone",
    "cn_name": null,
    "alternate_name": "2(1<em>H</em>)-Quinolinone, 4-methoxy-1-methyl-;Carbostyril, 4-methoxy-1-methyl-;4-Methoxy-1-methyl-2(1<em>H</em>)-quinolinone;1-Methyl-4-methoxy-2-quinolone;4-Methoxy-1-methyl-2-quinolone;<em>N</em>-Methyl-4-methoxycarbostyril;4-Methoxy-<em>N</em>-methyl-2-quinolone;<em>N</em>-Methyl-4-methoxy-2-quinolone;4-Methoxy-1-methylquinolin-2-one;4-Methoxy-1-methyl-2-(1<em>H</em>)-quinolinone",
    "duplicated_cas_no": "",
    "SMILES": "CN1C=2C(C(OC)=CC1=O)=CC=CC2",
    "meta_data": {
        "InChI": "InChI=1S/C11H11NO2/c1-12-9-6-4-3-5-8(9)10(14-2)7-11(12)13/h3-7H,1-2H3",
        "InChIKey": null,
        "Canonical SMILES": "O=C1C=C(OC)C=2C=CC=CC2N1C",
        "Molecular Formula": "C<sub>11</sub>H<sub>11</sub>NO<sub>2</sub>",
        "Molecular Mass": "189.21",
        "Melting Point": "99.5-100 °C"
    }
}