{
    "cas_no": "541-16-2",
    "key_name": "1,3-Bis(1,1-dimethylethyl) propanedioate",
    "cn_name": "丙二酸二叔丁酯;",
    "alternate_name": "Propanedioic acid, 1,3-bis(1,1-dimethylethyl) ester;Malonic acid, di-<em>tert</em>-butyl ester;Propanedioic acid, bis(1,1-dimethylethyl) ester;1,3-Bis(1,1-dimethylethyl) propanedioate;Di-<em>tert</em>-butyl malonate;<em>tert</em>-Butyl malonate;Bis(1,1-dimethylethyl) malonate;di-tert-butyl propanedioate;1,3-Di-<em>tert</em>-butyl propanedioate",
    "duplicated_cas_no": "",
    "SMILES": "O(C(C)(C)C)C(CC(OC(C)(C)C)=O)=O",
    "meta_data": {
        "InChI": "InChI=1S/C11H20O4/c1-10(2,3)14-8(12)7-9(13)15-11(4,5)6/h7H2,1-6H3",
        "InChIKey": null,
        "Canonical SMILES": "O=C(OC(C)(C)C)CC(=O)OC(C)(C)C",
        "Molecular Formula": "C<sub>11</sub>H<sub>20</sub>O<sub>4</sub>",
        "Molecular Mass": "216.27",
        "Boiling Point": "101.5-102 °C @ Press: 15 Torr",
        "Melting Point": "-6 °C"
    }
}