{
    "cas_no": "759-36-4",
    "key_name": "1,3-Diethyl 2-(1-methylethyl)propanedioate",
    "cn_name": "异丙基丙二酸二乙酯;",
    "alternate_name": "Propanedioic acid, 2-(1-methylethyl)-, 1,3-diethyl ester;Malonic acid, isopropyl-, diethyl ester;Propanedioic acid, (1-methylethyl)-, diethyl ester;1,3-Diethyl 2-(1-methylethyl)propanedioate;Diethyl isopropylmalonate;Ethyl isopropylmalonate;Diethyl 2-isopropylmalonate;Diethyl 2-(1-methylethyl)propanedioate;(1-Methylethyl)propanedioic acid diethyl ester;NSC 1007;Isopropylmalonic acid diethyl ester;1,3-Diethyl 2-(propan-2-yl)propanedioate;Diethyl 2-isopropylpropanedioate",
    "duplicated_cas_no": "581796-73-8",
    "SMILES": "C(C(OCC)=O)(C(OCC)=O)C(C)C",
    "meta_data": {
        "InChI": "InChI=1S/C10H18O4/c1-5-13-9(11)8(7(3)4)10(12)14-6-2/h7-8H,5-6H2,1-4H3",
        "InChIKey": null,
        "Canonical SMILES": "O=C(OCC)C(C(=O)OCC)C(C)C",
        "Molecular Formula": "C<sub>10</sub>H<sub>18</sub>O<sub>4</sub>",
        "Molecular Mass": "202.25",
        "Boiling Point": "215 °C"
    }
}