{
    "cas_no": "3076-04-8",
    "key_name": "Tridecyl acrylate",
    "cn_name": null,
    "alternate_name": "2-Propenoic acid, tridecyl ester;Acrylic acid, tridecyl ester;1-Tridecanol, acrylate;Tridecyl acrylate;SR 489;NSC 6130;SR 498E;SR 489D;TM 2853;Miramer M 124;SR 479D",
    "duplicated_cas_no": "",
    "SMILES": "C(CCCCCCCCCCC)COC(C=C)=O",
    "meta_data": {
        "InChI": "InChI=1S/C16H30O2/c1-3-5-6-7-8-9-10-11-12-13-14-15-18-16(17)4-2/h4H,2-3,5-15H2,1H3",
        "InChIKey": null,
        "Canonical SMILES": "O=C(OCCCCCCCCCCCCC)C=C",
        "Molecular Formula": "C<sub>16</sub>H<sub>30</sub>O<sub>2</sub>",
        "Molecular Mass": "254.41",
        "Boiling Point": "150 °C @ Press: 10 Torr",
        "Density": "0.9 g/cm³"
    }
}