{
    "cas_no": "21352-22-7",
    "key_name": "2-Methyl-3-quinolinamine",
    "cn_name": null,
    "alternate_name": "3-Quinolinamine, 2-methyl-;Quinaldine, 3-amino-;2-Methyl-3-quinolinamine;3-Amino-2-methylquinoline;2-Methylquinolin-3-amine;2-Methyl-quinolin-3-ylamine",
    "duplicated_cas_no": "690253-86-2",
    "SMILES": "NC1=CC2=C(N=C1C)C=CC=C2",
    "meta_data": {
        "InChI": "InChI=1S/C10H10N2/c1-7-9(11)6-8-4-2-3-5-10(8)12-7/h2-6H,11H2,1H3",
        "InChIKey": null,
        "Canonical SMILES": "N=1C=2C=CC=CC2C=C(N)C1C",
        "Molecular Formula": "C<sub>10</sub>H<sub>10</sub>N<sub>2</sub>",
        "Molecular Mass": "158.20",
        "Boiling Point": "198 °C @ Press: 16 Torr",
        "Melting Point": "159-160 °C"
    }
}