{
    "cas_no": "4200-91-3",
    "key_name": "Hexadecylsuccinic anhydride",
    "cn_name": "十六烷基琥珀酸酐;",
    "alternate_name": "2,5-Furandione, 3-hexadecyldihydro-;Succinic anhydride, hexadecyl-;3-Hexadecyldihydro-2,5-furandione;<em>n</em>-Hexadecylsuccinic anhydride;2-Hexadecylsuccinic anhydride;Hexadecylsuccinic anhydride;NSC 77137;3-Hexadecyloxolane-2,5-dione",
    "duplicated_cas_no": "",
    "SMILES": "C(CCCCCCCCCCCCCCC)C1CC(=O)OC1=O",
    "meta_data": {
        "InChI": "InChI=1S/C20H36O3/c1-2-3-4-5-6-7-8-9-10-11-12-13-14-15-16-18-17-19(21)23-20(18)22/h18H,2-17H2,1H3",
        "InChIKey": null,
        "Canonical SMILES": "O=C1OC(=O)C(C1)CCCCCCCCCCCCCCCC",
        "Molecular Formula": "C<sub>20</sub>H<sub>36</sub>O<sub>3</sub>",
        "Molecular Mass": "324.50",
        "Melting Point": "63 °C"
    }
}