{
    "cas_no": "83-75-0",
    "key_name": "Euquinine",
    "cn_name": null,
    "alternate_name": "Cinchonan-9-ol, 6′-methoxy-, 9-(ethyl carbonate), (8α,9<em>R</em>)-;Quinine, ethyl carbonate (ester);Cinchonan-9-ol, 6′-methoxy-, ethyl carbonate (ester), (8α,9<em>R</em>)-;Euquinine;Euquinin;Quinine ethyl carbonate;Aecachinium",
    "duplicated_cas_no": "60996-93-2;674284-84-5",
    "SMILES": "[C@H](OC(OCC)=O)([C@]1([N@@]2C[C@H](C=C)[C@](C1)(CC2)[H])[H])C=3C4=C(C=CC(OC)=C4)N=CC3",
    "meta_data": {
        "InChI": "InChI=1S/C23H28N2O4/c1-4-15-14-25-11-9-16(15)12-21(25)22(29-23(26)28-5-2)18-8-10-24-20-7-6-17(27-3)13-19(18)20/h4,6-8,10,13,15-16,21-22H,1,5,9,11-12,14H2,2-3H3/t15-,16-,21-,22+/m0/s1",
        "InChIKey": null,
        "Canonical SMILES": "O=C(OCC)OC(C=1C=CN=C2C=CC(OC)=CC21)C3N4CCC(C3)C(C=C)C4",
        "Molecular Formula": "C<sub>23</sub>H<sub>28</sub>N<sub>2</sub>O<sub>4</sub>",
        "Molecular Mass": "396.48",
        "Melting Point": "94-95 °C"
    }
}