{
    "cas_no": "126330-90-3",
    "key_name": "2-Piperazinecarboxylic acid, hydrochloride (1:2), (2<em>R</em>)-",
    "cn_name": "(R)-哌嗪-2-羧酸二盐酸盐;",
    "alternate_name": "2-Piperazinecarboxylic acid, hydrochloride (1:2), (2<em>R</em>)-;2-Piperazinecarboxylic acid, dihydrochloride, (<em>R</em>)-;2-Piperazinecarboxylic acid, dihydrochloride, (2<em>R</em>)-;(<em>R</em>)-2-Piperazinecarboxylic acid dihydrochloride;(2R)-Piperazine-2-carboxylic acid dihydrochloride;(R)-2-Piperazinecarboxylic acid dihydrochloride",
    "duplicated_cas_no": "",
    "SMILES": "C(O)(=O)[C@H]1CNCCN1.Cl",
    "meta_data": {
        "InChI": "InChI=1S/C5H10N2O2.2ClH/c8-5(9)4-3-6-1-2-7-4;;/h4,6-7H,1-3H2,(H,8,9);2*1H/t4-;;/m1../s1",
        "InChIKey": null,
        "Canonical SMILES": "Cl.O=C(O)C1NCCNC1",
        "Molecular Formula": "C<sub>5</sub>H<sub>10</sub>N<sub>2</sub>O<sub>2</sub>.2ClH",
        "Molecular Mass": "",
        "Melting Point": "238-243 °C (decomp)"
    }
}