{
    "cas_no": "129-44-2",
    "key_name": "1,5-Diaminoanthraquinone",
    "cn_name": "1,5-二氨基蒽醌;",
    "alternate_name": "9,10-Anthracenedione, 1,5-diamino-;Anthraquinone, 1,5-diamino-;1,5-Diamino-9,10-anthracenedione;1,5-Anthraquinonyldiamine;1,5-Diaminoanthraquinone;1,5-Diamino-9,10-anthraquinone;NSC 507213;Smoke Red F;NSC 63791;NSC 7213;1,5-Diamino-9,10-dihydroanthracene-9,10-dione",
    "duplicated_cas_no": "168681-31-0",
    "SMILES": "O=C1C=2C(C(=O)C=3C1=CC=CC3N)=CC=CC2N",
    "meta_data": {
        "InChI": "InChI=1S/C14H10N2O2/c15-9-5-1-3-7-11(9)14(18)8-4-2-6-10(16)12(8)13(7)17/h1-6H,15-16H2",
        "InChIKey": null,
        "Canonical SMILES": "O=C1C=2C=CC=C(N)C2C(=O)C=3C=CC=C(N)C13",
        "Molecular Formula": "C<sub>14</sub>H<sub>10</sub>N<sub>2</sub>O<sub>2</sub>",
        "Molecular Mass": "238.24",
        "Melting Point": "319 °C"
    }
}