{
    "cas_no": "643-84-5",
    "key_name": "Malvidin",
    "cn_name": "氯化锦葵色素;氯化锦葵色素;锦葵花素MV;",
    "alternate_name": "1-Benzopyrylium, 3,5,7-trihydroxy-2-(4-hydroxy-3,5-dimethoxyphenyl)-, chloride (1:1);Malvidin;Flavylium, 3,4′,5,7-tetrahydroxy-3′,5′-dimethoxy-, chloride;1-Benzopyrylium, 3,5,7-trihydroxy-2-(4-hydroxy-3,5-dimethoxyphenyl)-, chloride;Enidin;Malvidin chloride;Oenidin;Syringidin;Syringidin chloride;3,4′,5,7-Tetrahydroxy-3′,5′-dimethoxyflavylium chloride;3,4′,5,7-Tetrahydroxy-3′,5′-dimethoxy-2-phenylbenzopyrylium chloride;Malvidol;Primulidin;Malvinidin;Malvinidol chloride",
    "duplicated_cas_no": "",
    "SMILES": "OC=1C(C2=CC(OC)=C(O)C(OC)=C2)=[O+]C3=C(C1)C(O)=CC(O)=C3.[Cl-]",
    "meta_data": {
        "InChI": "InChI=1S/C17H14O7.ClH/c1-22-14-3-8(4-15(23-2)16(14)21)17-12(20)7-10-11(19)5-9(18)6-13(10)24-17;/h3-7H,1-2H3,(H3-,18,19,20,21);1H",
        "InChIKey": null,
        "Canonical SMILES": "[Cl-].OC=1C=C(O)C=2C=C(O)C(=[O+]C2C1)C=3C=C(OC)C(O)=C(OC)C3",
        "Molecular Formula": "C<sub>17</sub>H<sub>15</sub>O<sub>7</sub>.Cl",
        "Molecular Mass": "",
        "Melting Point": "&gt;300 °C"
    }
}