{
    "cas_no": "110-74-7",
    "key_name": "Propyl formate",
    "cn_name": "甲酸正丙酯;甲酸丙酯;蚁酸正丙酯;甲酸丙酯;丙基甲酸(酯);",
    "alternate_name": "Formic acid, propyl ester;Propyl formate;<em>n</em>-Propyl formate;Propyl methanoate",
    "duplicated_cas_no": "",
    "SMILES": "C(OC=O)CC",
    "meta_data": {
        "InChI": "InChI=1S/C4H8O2/c1-2-3-6-4-5/h4H,2-3H2,1H3",
        "InChIKey": null,
        "Canonical SMILES": "O=COCCC",
        "Molecular Formula": "C<sub>4</sub>H<sub>8</sub>O<sub>2</sub>",
        "Molecular Mass": "88.11",
        "Boiling Point": "80.9 °C",
        "Melting Point": "-92.9 °C",
        "Density": "0.92868 g/cm³ @ Temp: 40 °C"
    }
}