{
    "cas_no": "25288-76-0",
    "key_name": "3-Dibenzothiophenamine",
    "cn_name": null,
    "alternate_name": "3-Dibenzothiophenamine;3-Aminodibenzothiophene;NSC 170579;Dibenzo[<em>b</em>,<em>d</em>]thiophen-3-amine",
    "duplicated_cas_no": "",
    "SMILES": "NC=1C=C2C(C=3C(S2)=CC=CC3)=CC1",
    "meta_data": {
        "InChI": "InChI=1S/C12H9NS/c13-8-5-6-10-9-3-1-2-4-11(9)14-12(10)7-8/h1-7H,13H2",
        "InChIKey": null,
        "Canonical SMILES": "S1C=2C=CC=CC2C=3C=CC(N)=CC13",
        "Molecular Formula": "C<sub>12</sub>H<sub>9</sub>NS",
        "Molecular Mass": "199.27",
        "Melting Point": "121.5-122 °C"
    }
}