{
    "cas_no": "136-47-0",
    "key_name": "Tetracaine hydrochloride",
    "cn_name": "盐酸丁卡因;4-(丁氨基)-苯甲酸-2-(二甲氨基)乙酯盐酸盐;",
    "alternate_name": "Benzoic acid, 4-(butylamino)-, 2-(dimethylamino)ethyl ester, hydrochloride (1:1);Benzoic acid, <em>p</em>-(butylamino)-, 2-(dimethylamino)ethyl ester, monohydrochloride;Benzoic acid, 4-(butylamino)-, 2-(dimethylamino)ethyl ester, monohydrochloride;Ethanol, 2-dimethylamino-, <em>p</em>-butylaminobenzoate, HCl;Amethocaine monohydrochloride;Anacel;Anethaine;Butethanol;Curtacain;Decicain;Decicaine;Dicaine;2-Dimethylaminoethanol 4-<em>n</em>-butylaminobenzoate hydrochloride;2-(Dimethylamino)ethyl <em>p</em>-(butylamino)benzoate hydrochloride;Menonasal;Pantocaine monohydrochloride;Tetracaine monohydrochloride;Tonexol;Tetracainium chloride;Tetracaine hydrochloride;Amethocaine hydrochloride;Dikain;Pantocain;Anethain;Dessicain;Pontocaine hydrochloride;Pantocaine;Pantocaine hydrochloride;Intercaine;Niphanoid;<em>p</em>-(Butylamino)benzoic acid 2-(dimethylamino)ethyl ester hydrochloride;Leocaine;Tetocaine;Tetracaine chlorhydrate;Dianguang;TetraVisc;Lining",
    "duplicated_cas_no": "2706-41-4;41585-83-5",
    "SMILES": "C(OCCN(C)C)(=O)C1=CC=C(NCCCC)C=C1.Cl",
    "meta_data": {
        "InChI": "InChI=1S/C15H24N2O2.ClH/c1-4-5-10-16-14-8-6-13(7-9-14)15(18)19-12-11-17(2)3;/h6-9,16H,4-5,10-12H2,1-3H3;1H",
        "InChIKey": null,
        "Canonical SMILES": "Cl.O=C(OCCN(C)C)C1=CC=C(C=C1)NCCCC",
        "Molecular Formula": "C<sub>15</sub>H<sub>24</sub>N<sub>2</sub>O<sub>2</sub>.ClH",
        "Molecular Mass": "",
        "Melting Point": "147 °C"
    }
}