{
    "cas_no": "134575-17-0",
    "key_name": "Carbamic acid, <em>N</em>-(1α,5α,6α)-3-azabicyclo[3.1.0]hex-6-yl-, 1,1-dimethylethyl ester",
    "cn_name": null,
    "alternate_name": "Carbamic acid, <em>N</em>-(1α,5α,6α)-3-azabicyclo[3.1.0]hex-6-yl-, 1,1-dimethylethyl ester;Carbamic acid, 3-azabicyclo[3.1.0]hex-6-yl-, 1,1-dimethylethyl ester, (1α,5α,6α)-;3-Azabicyclo[3.1.0]hexane, carbamic acid deriv.",
    "duplicated_cas_no": "2447007-62-5",
    "SMILES": "N(C(OC(C)(C)C)=O)[C@H]1[C@]2([C@@]1(CNC2)[H])[H]",
    "meta_data": {
        "InChI": "InChI=1/C10H18N2O2/c1-10(2,3)14-9(13)12-8-6-4-11-5-7(6)8/h6-8,11H,4-5H2,1-3H3,(H,12,13)/t6-,7+,8+",
        "InChIKey": null,
        "Canonical SMILES": "O=C(OC(C)(C)C)NC1C2CNCC12",
        "Molecular Formula": "C<sub>10</sub>H<sub>18</sub>N<sub>2</sub>O<sub>2</sub>",
        "Molecular Mass": "198.26",
        "Melting Point": "110-111 °C"
    }
}