{
    "cas_no": "527-72-0",
    "key_name": "2-Thiophenecarboxylic acid",
    "cn_name": "噻吩-2-甲酸;2-噻吩甲酸;",
    "alternate_name": "2-Thiophenecarboxylic acid;α-Thiophenecarboxylic acid;2-Thenoic acid;2-Thiophenic acid;2-Carboxythiophene;2-Thienylcarboxylic acid;NSC 2188;Thienoic acid;Thiophene-2-carboxylic acid",
    "duplicated_cas_no": "",
    "SMILES": "C(O)(=O)C1=CC=CS1",
    "meta_data": {
        "InChI": "InChI=1S/C5H4O2S/c6-5(7)4-2-1-3-8-4/h1-3H,(H,6,7)",
        "InChIKey": null,
        "Canonical SMILES": "O=C(O)C=1SC=CC1",
        "Molecular Formula": "C<sub>5</sub>H<sub>4</sub>O<sub>2</sub>S",
        "Molecular Mass": "128.15",
        "Melting Point": "129.5 °C"
    }
}