{
    "cas_no": "42137-88-2",
    "key_name": "<em>N</em>,<em>N</em>-Bis(2-chloroethyl)-4-methylbenzenesulfonamide",
    "cn_name": "N,N-双(2-氯乙基)-4-甲基苯磺酰胺;",
    "alternate_name": "Benzenesulfonamide, <em>N</em>,<em>N</em>-bis(2-chloroethyl)-4-methyl-;<em>p</em>-Toluenesulfonamide, <em>N</em>,<em>N</em>-bis(2-chloroethyl)-;<em>N</em>,<em>N</em>-Bis(2-chloroethyl)-4-methylbenzenesulfonamide;<em>N</em>,<em>N</em>-Bis(2-chloroethyl)-<em>p</em>-toluenesulfonamide;NSC 49364;<em>N</em>,<em>N</em>-Bis(2-chloroethyl)-4-methylbenzensulfonamide",
    "duplicated_cas_no": "",
    "SMILES": "S(N(CCCl)CCCl)(=O)(=O)C1=CC=C(C)C=C1",
    "meta_data": {
        "InChI": "InChI=1S/C11H15Cl2NO2S/c1-10-2-4-11(5-3-10)17(15,16)14(8-6-12)9-7-13/h2-5H,6-9H2,1H3",
        "InChIKey": null,
        "Canonical SMILES": "O=S(=O)(C1=CC=C(C=C1)C)N(CCCl)CCCl",
        "Molecular Formula": "C<sub>11</sub>H<sub>15</sub>Cl<sub>2</sub>NO<sub>2</sub>S",
        "Molecular Mass": "296.21",
        "Melting Point": "47 °C"
    }
}