{
    "cas_no": "5629-60-7",
    "key_name": "Pteropodine",
    "cn_name": null,
    "alternate_name": "Spiro[3<em>H</em>-indole-3,6′(4′a<em>H</em>)-[1<em>H</em>]pyrano[3,4-<em>f</em>]indolizine]-4′-carboxylic acid, 1,2,5′,5′a,7′,8′,10′,10′a-octahydro-1′-methyl-2-oxo-, methyl ester, (1′<em>S</em>,3<em>R</em>,4′a<em>S</em>,5′a<em>S</em>,10′a<em>S</em>)-;Pteropodine;Formosanan-16-carboxylic acid, 19-methyl-2-oxo-, methyl ester, (19α,20α)-;Uncarine C;Pteropodin;Uncarin C;<em>allo</em>-Pteropodine;Spiro[3<em>H</em>-indole-3,6′(4′a<em>H</em>)-[1<em>H</em>]pyrano[3,4-<em>f</em>]indolizine]-4′-carboxylic acid, 1,2,5′,5′a,7′,8′,10′,10′a-octahydro-1′-methyl-2-oxo-, methyl ester, [1′<em>S</em>-(1′α,4′aα,5′aα,6′β,10′aα)]-;NSC 113093;Maruquine methyl ester",
    "duplicated_cas_no": "",
    "SMILES": "O=C1[C@@]2([C@]3(N(CC2)C[C@@]4([C@](C3)(C(C(OC)=O)=CO[C@H]4C)[H])[H])[H])C=5C(N1)=CC=CC5",
    "meta_data": {
        "InChI": "InChI=1S/C21H24N2O4/c1-12-14-10-23-8-7-21(16-5-3-4-6-17(16)22-20(21)25)18(23)9-13(14)15(11-27-12)19(24)26-2/h3-6,11-14,18H,7-10H2,1-2H3,(H,22,25)/t12-,13-,14-,18-,21+/m0/s1",
        "InChIKey": null,
        "Canonical SMILES": "O=C(OC)C1=COC(C)C2CN3CCC4(C(=O)NC=5C=CC=CC54)C3CC12",
        "Molecular Formula": "C<sub>21</sub>H<sub>24</sub>N<sub>2</sub>O<sub>4</sub>",
        "Molecular Mass": "368.43",
        "Melting Point": "217-219 °C"
    }
}