{
    "cas_no": "17180-94-8",
    "key_name": "5-Chloropyrimidine",
    "cn_name": null,
    "alternate_name": "Pyrimidine, 5-chloro-;5-Chloropyrimidine",
    "duplicated_cas_no": "128095-24-9",
    "SMILES": "ClC=1C=NC=NC1",
    "meta_data": {
        "InChI": "InChI=1S/C4H3ClN2/c5-4-1-6-3-7-2-4/h1-3H",
        "InChIKey": null,
        "Canonical SMILES": "ClC=1C=NC=NC1",
        "Molecular Formula": "C<sub>4</sub>H<sub>3</sub>ClN<sub>2</sub>",
        "Molecular Mass": "114.53",
        "Melting Point": "36.5 °C"
    }
}