{
    "cas_no": "627-02-1",
    "key_name": "1-Ethoxy-2-methylpropane",
    "cn_name": null,
    "alternate_name": "Propane, 1-ethoxy-2-methyl-;Ether, ethyl isobutyl;1-Ethoxy-2-methylpropane;Ethyl isobutyl ether;Isobutyl ethyl ether;Ethyl <em>iso</em>-butyl ether",
    "duplicated_cas_no": "",
    "SMILES": "C(C(C)C)OCC",
    "meta_data": {
        "InChI": "InChI=1S/C6H14O/c1-4-7-5-6(2)3/h6H,4-5H2,1-3H3",
        "InChIKey": null,
        "Canonical SMILES": "O(CC)CC(C)C",
        "Molecular Formula": "C<sub>6</sub>H<sub>14</sub>O",
        "Molecular Mass": "102.17",
        "Boiling Point": "81 °C"
    }
}