{
    "cas_no": "912999-49-6",
    "key_name": "Onalespib",
    "cn_name": null,
    "alternate_name": "Methanone, [1,3-dihydro-5-[(4-methyl-1-piperazinyl)methyl]-2<em>H</em>-isoindol-2-yl][2,4-dihydroxy-5-(1-methylethyl)phenyl]-;1<em>H</em>-Isoindole, 2-[2,4-dihydroxy-5-(1-methylethyl)benzoyl]-2,3-dihydro-5-[(4-methyl-1-piperazinyl)methyl]-;[1,3-Dihydro-5-[(4-methyl-1-piperazinyl)methyl]-2<em>H</em>-isoindol-2-yl][2,4-dihydroxy-5-(1-methylethyl)phenyl]methanone;(2,4-Dihydroxy-5-isopropylphenyl)[5-[(4-methylpiperazin-1-yl)methyl]-1,3-dihydroisoindol-2-yl]methanone;AT 13387;AT 13387X;Onalespib;ATI 3387;(2,4-Dihydroxy-5-propan-2-ylphenyl)-[5-[(4-methylpiperazin-1-yl)methyl]-1,3-dihydroisoindol-2-yl]methanone",
    "duplicated_cas_no": "",
    "SMILES": "C(=O)(N1CC=2C(C1)=CC(CN3CCN(C)CC3)=CC2)C4=CC(C(C)C)=C(O)C=C4O",
    "meta_data": {
        "InChI": "InChI=1S/C24H31N3O3/c1-16(2)20-11-21(23(29)12-22(20)28)24(30)27-14-18-5-4-17(10-19(18)15-27)13-26-8-6-25(3)7-9-26/h4-5,10-12,16,28-29H,6-9,13-15H2,1-3H3",
        "InChIKey": null,
        "Canonical SMILES": "O=C(C=1C=C(C(O)=CC1O)C(C)C)N2CC3=CC=C(C=C3C2)CN4CCN(C)CC4",
        "Molecular Formula": "C<sub>24</sub>H<sub>31</sub>N<sub>3</sub>O<sub>3</sub>",
        "Molecular Mass": "409.52",
        "Melting Point": "93-94 °C"
    }
}