{
    "cas_no": "83463-62-1",
    "key_name": "Bromochloroacetonitrile",
    "cn_name": null,
    "alternate_name": "Acetonitrile, 2-bromo-2-chloro-;Acetonitrile, bromochloro-;2-Bromo-2-chloroacetonitrile;Bromochloroacetonitrile",
    "duplicated_cas_no": "",
    "SMILES": "C(C#N)(Br)Cl",
    "meta_data": {
        "InChI": "InChI=1S/C2HBrClN/c3-2(4)1-5/h2H",
        "InChIKey": null,
        "Canonical SMILES": "N#CC(Cl)Br",
        "Molecular Formula": "C<sub>2</sub>HBrClN",
        "Molecular Mass": "154.39",
        "Boiling Point": "125-130 °C @ Press: 760 Torr",
        "Density": "1.68 g/cm³ @ Temp: 25 °C"
    }
}