{
    "cas_no": "18802-38-5",
    "key_name": "6-Amino-1,2,4-triazine-3,5(2<em>H</em>,4<em>H</em>)-dione",
    "cn_name": "6-氨基-1,2,4-三嗪-3,5(2H,4H)-二酮;",
    "alternate_name": "1,2,4-Triazine-3,5(2<em>H</em>,4<em>H</em>)-dione, 6-amino-;<em>as</em>-Triazine-3,5(2<em>H</em>,4<em>H</em>)-dione, 6-amino-;6-Amino-1,2,4-triazine-3,5(2<em>H</em>,4<em>H</em>)-dione;5-Amino-6-azauracil",
    "duplicated_cas_no": "",
    "SMILES": "O=C1C(N)=NNC(=O)N1",
    "meta_data": {
        "InChI": "InChI=1S/C3H4N4O2/c4-1-2(8)5-3(9)7-6-1/h(H2,4,6)(H2,5,7,8,9)",
        "InChIKey": null,
        "Canonical SMILES": "O=C1NN=C(N)C(=O)N1",
        "Molecular Formula": "C<sub>3</sub>H<sub>4</sub>N<sub>4</sub>O<sub>2</sub>",
        "Molecular Mass": "128.09",
        "Melting Point": "310-315 °C"
    }
}