{
    "cas_no": "58993-79-6",
    "key_name": "(α<em>R</em>)-4-Methoxy-α-methylbenzeneethanamine",
    "cn_name": "(R)-(-)-2-(4-甲氧基苯基)-1-甲基乙胺;",
    "alternate_name": "Benzeneethanamine, 4-methoxy-α-methyl-, (α<em>R</em>)-;Benzeneethanamine, 4-methoxy-α-methyl-, (<em>R</em>)-;(α<em>R</em>)-4-Methoxy-α-methylbenzeneethanamine;(-)-<em>p</em>-Methoxyamphetamine;<em>l</em>-4-Methoxyamphetamine;(<em>R</em>)-(-)-2-(4-Methoxyphenyl)-1-methylethylamine;(R)-2-(4-Methoxyphenyl)-1-methyl-ethylamine;(<em>R</em>)-4-Methoxyamphetamine;(2R)-1-(4-Methoxyphenyl)propan-2-amine;(R)-1-(4-Methoxyphenyl)propan-2-amine",
    "duplicated_cas_no": "",
    "SMILES": "C([C@@H](C)N)C1=CC=C(OC)C=C1",
    "meta_data": {
        "InChI": "InChI=1S/C10H15NO/c1-8(11)7-9-3-5-10(12-2)6-4-9/h3-6,8H,7,11H2,1-2H3/t8-/m1/s1",
        "InChIKey": null,
        "Canonical SMILES": "O(C1=CC=C(C=C1)CC(N)C)C",
        "Molecular Formula": "C<sub>10</sub>H<sub>15</sub>NO",
        "Molecular Mass": "165.23",
        "Boiling Point": "90-95 °C @ Press: 2 Torr"
    }
}