{
    "cas_no": "6268-43-5",
    "key_name": "<em>N</em>,<em>N</em>′-Di-2-pyridinylurea",
    "cn_name": null,
    "alternate_name": "Urea, <em>N</em>,<em>N</em>′-di-2-pyridinyl-;Urea, 1,3-di-2-pyridyl-;<em>N</em>,<em>N</em>′-Di-2-pyridinylurea;1,3-Di(2-pyridyl)urea;<em>N</em>,<em>N</em>′-Bis(2-pyridyl)urea;<em>N</em>,<em>N</em>′-Di-2-pyridylurea;NSC 36257;1,3-Di(pyridin-2-yl)urea;1,3-Di-pyridin-2-yl-urea;1,3-Dipyridin-2-ylurea",
    "duplicated_cas_no": "",
    "SMILES": "N(C(NC1=CC=CC=N1)=O)C2=CC=CC=N2",
    "meta_data": {
        "InChI": "InChI=1S/C11H10N4O/c16-11(14-9-5-1-3-7-12-9)15-10-6-2-4-8-13-10/h1-8H,(H2,12,13,14,15,16)",
        "InChIKey": null,
        "Canonical SMILES": "O=C(NC1=NC=CC=C1)NC2=NC=CC=C2",
        "Molecular Formula": "C<sub>11</sub>H<sub>10</sub>N<sub>4</sub>O",
        "Molecular Mass": "214.22",
        "Boiling Point": "170 °C @ Press: 3.0 Torr",
        "Melting Point": "175 °C"
    }
}