{
    "cas_no": "14284-93-6",
    "key_name": "Tris(acetylacetonato)ruthenium",
    "cn_name": "三(乙酰丙酮酸)钌(III);",
    "alternate_name": "Ruthenium, tris(2,4-pentanedionato-κ<em>O</em><sup>2</sup>,κ<em>O</em><sup>4</sup>)-, (<em>OC</em>-6-11)-;Ruthenium, tris(2,4-pentanedionato)-;Ruthenium, tris(2,4-pentanedionato-<em>O</em>,<em>O</em>′)-, (<em>OC</em>-6-11)-;Ruthenium, tris(2,4-pentanedionato-κ<em>O</em>,κ<em>O</em>′)-, (<em>OC</em>-6-11)-;(<em>OC</em>-6-11)-Tris(2,4-pentanedionato-κ<em>O</em><sup>2</sup>,κ<em>O</em><sup>4</sup>)ruthenium;Tris(acetylacetonato)ruthenium;Ruthenium acetylacetonate;Tris(2,4-pentanedionato)ruthenium;Tris(acetylacetonate)ruthenium;Ruthenium tris(acetylacetonate);Tris(acetoacetonato)ruthenium(III);NSC 139624;Ru(acac)3;Ruthenium(III)-2,4-pentanedionate",
    "duplicated_cas_no": "",
    "SMILES": "CC1=O[Ru+3]23(O=C(C)[CH-]C(C)=O2)(O=C(C)[CH-]C(C)=O3)O=C(C)[CH-]1",
    "meta_data": {
        "InChI": "InChI=1S/3C5H7O2.Ru/c3*1-4(6)3-5(2)7;/h3*3H,1-2H3;/q3*-1;+3",
        "InChIKey": null,
        "Canonical SMILES": "O1=C([CH-]C(=O[Ru+3]123(O=C([CH-]C(=O2)C)C)O=C([CH-]C(=O3)C)C)C)C",
        "Molecular Formula": "C<sub>15</sub>H<sub>21</sub>O<sub>6</sub>Ru",
        "Molecular Mass": "",
        "Melting Point": "135-145 °C"
    }
}