{
    "cas_no": "994-05-8",
    "key_name": "<em>tert</em>-Amyl methyl ether",
    "cn_name": "叔戊基甲基醚;",
    "alternate_name": "Butane, 2-methoxy-2-methyl-;Ether, methyl <em>tert</em>-pentyl;2-Methoxy-2-methylbutane;Methyl <em>tert</em>-pentyl ether;2-Methyl-2-methoxybutane;<em>tert</em>-Amyl methyl ether;1,1-Dimethylpropyl methyl ether;Methyl 1,1-dimethylpropyl ether;<em>tert</em>-Pentyl methyl ether;TAME (ether);TAME;Methyl <em>tert</em>-amyl ether;<em>t</em>-Amyl methyl ether",
    "duplicated_cas_no": "",
    "SMILES": "C(CC)(OC)(C)C",
    "meta_data": {
        "InChI": "InChI=1S/C6H14O/c1-5-6(2,3)7-4/h5H2,1-4H3",
        "InChIKey": null,
        "Canonical SMILES": "O(C)C(C)(C)CC",
        "Molecular Formula": "C<sub>6</sub>H<sub>14</sub>O",
        "Molecular Mass": "102.17",
        "Boiling Point": "86.3 °C",
        "Density": "0.7703 g/cm³ @ Temp: 20 °C"
    }
}