{
    "cas_no": "446-65-1",
    "key_name": "4-Methyl-α-(trifluoromethyl)benzenemethanol",
    "cn_name": null,
    "alternate_name": "Benzenemethanol, 4-methyl-α-(trifluoromethyl)-;Benzyl alcohol, <em>p</em>-methyl-α-(trifluoromethyl)-;4-Methyl-α-(trifluoromethyl)benzenemethanol;<em>p</em>-Methyl-α-(trifluoromethyl)benzyl alcohol;4-Methyl-α-(trifluoromethyl)benzyl alcohol;NSC 405748;1-(4-Methylphenyl)-2,2,2-trifluoroethanol;4-(2,2,2-Trifluoro-1-hydroxyethyl)toluene;2,2,2-Trifluoro-1-(4-methylphenyl)ethanol;2,2,2-Trifluoro-1-<em>p</em>-tolyl-ethanol;2,2,2-Trifluoro-1-(<em>p</em>-tolyl)ethanol;2,2,2-Trifluoro-1-(4-methylphenyl)ethan-1-ol;1-(4-Methylphenyl)-2,2,2-trifluoroethan-1-ol",
    "duplicated_cas_no": "77549-72-5",
    "SMILES": "C(C(F)(F)F)(O)C1=CC=C(C)C=C1",
    "meta_data": {
        "InChI": "InChI=1S/C9H9F3O/c1-6-2-4-7(5-3-6)8(13)9(10,11)12/h2-5,8,13H,1H3",
        "InChIKey": null,
        "Canonical SMILES": "FC(F)(F)C(O)C1=CC=C(C=C1)C",
        "Molecular Formula": "C<sub>9</sub>H<sub>9</sub>F<sub>3</sub>O",
        "Molecular Mass": "190.16",
        "Boiling Point": "74.5-75.0 °C @ Press: 2.5 Torr"
    }
}