{
    "cas_no": "1619-57-4",
    "key_name": "Ethyl 2,2-diethyl-3-oxobutanoate",
    "cn_name": "2,2-二乙基乙酰乙酸乙酯;",
    "alternate_name": "Butanoic acid, 2,2-diethyl-3-oxo-, ethyl ester;Acetoacetic acid, 2,2-diethyl-, ethyl ester;Ethyl 2,2-diethyl-3-oxobutanoate;Ethyl α,α-diethylacetoacetate;2,2-Diethyl ethylacetoacetate",
    "duplicated_cas_no": "",
    "SMILES": "C(C(OCC)=O)(C(C)=O)(CC)CC",
    "meta_data": {
        "InChI": "InChI=1S/C10H18O3/c1-5-10(6-2,8(4)11)9(12)13-7-3/h5-7H2,1-4H3",
        "InChIKey": null,
        "Canonical SMILES": "O=C(OCC)C(C(=O)C)(CC)CC",
        "Molecular Formula": "C<sub>10</sub>H<sub>18</sub>O<sub>3</sub>",
        "Molecular Mass": "186.25",
        "Boiling Point": "216 °C",
        "Density": "0.9707 g/cm³ @ Temp: 17.200009765625 °C"
    }
}