{
    "cas_no": "305-33-9",
    "key_name": "Iproniazid phosphate",
    "cn_name": "磷酸异丙烟肼;",
    "alternate_name": "4-Pyridinecarboxylic acid, 2-(1-methylethyl)hydrazide, phosphate (1:1);Isonicotinic acid, 2-isopropylhydrazide, phosphate (1:1);Iproniazid dihydrogen phosphate;Iproniazide phosphate;Iproniazid phosphate;<em>1</em>-Isonicotinyl-2-isopropylhydrazine phosphate;1-Isopropyl-2-isonicotinylhydrazine phosphate;Marsilid phosphate;NSC 81850",
    "duplicated_cas_no": "",
    "SMILES": "P(=O)(O)(O)O.C(NNC(C)C)(=O)C=1C=CN=CC1",
    "meta_data": {
        "InChI": "InChI=1S/C9H13N3O.H3O4P/c1-7(2)11-12-9(13)8-3-5-10-6-4-8;1-5(2,3)4/h3-7,11H,1-2H3,(H,12,13);(H3,1,2,3,4)",
        "InChIKey": null,
        "Canonical SMILES": "O=C(NNC(C)C)C=1C=CN=CC1.O=P(O)(O)O",
        "Molecular Formula": "C<sub>9</sub>H<sub>13</sub>N<sub>3</sub>O.H<sub>3</sub>O<sub>4</sub>P",
        "Molecular Mass": "",
        "Melting Point": "175-184 °C"
    }
}