{
    "cas_no": "14686-14-7",
    "key_name": "<em>trans</em>-3-Heptene",
    "cn_name": null,
    "alternate_name": "3-Heptene, (3<em>E</em>)-;3-Heptene, (<em>E</em>)-;(3<em>E</em>)-3-Heptene;<em>trans</em>-3-Heptene;(<em>E</em>)-3-Heptene;NSC 74133",
    "duplicated_cas_no": "",
    "SMILES": "C(\\CCC)=C/CC",
    "meta_data": {
        "InChI": "InChI=1S/C7H14/c1-3-5-7-6-4-2/h5,7H,3-4,6H2,1-2H3/b7-5+",
        "InChIKey": null,
        "Canonical SMILES": "C(=CCCC)CC",
        "Molecular Formula": "C<sub>7</sub>H<sub>14</sub>",
        "Molecular Mass": "98.19",
        "Boiling Point": "95.7 °C",
        "Melting Point": "-136.6 °C"
    }
}