{
    "cas_no": "5331-37-3",
    "key_name": "2-(Butylthio)ethanol",
    "cn_name": "2-(丁硫)乙醇;",
    "alternate_name": "Ethanol, 2-(butylthio)-;2-(Butylthio)ethanol;Butyl 2-hydroxyethyl sulfide;Butylthioethanol;2-Hydroxyethyl butyl sulfide;Kretol;NSC 2279;2-Butylsulfanylethanol;2-(Butylsulfanyl)ethan-1-ol;2-Butylsulfanyl-ethanol",
    "duplicated_cas_no": "158191-46-9",
    "SMILES": "C(SCCO)CCC",
    "meta_data": {
        "InChI": "InChI=1S/C6H14OS/c1-2-3-5-8-6-4-7/h7H,2-6H2,1H3",
        "InChIKey": null,
        "Canonical SMILES": "OCCSCCCC",
        "Molecular Formula": "C<sub>6</sub>H<sub>14</sub>OS",
        "Molecular Mass": "134.24",
        "Boiling Point": "92-93 °C @ Press: 3 Torr",
        "Density": "0.9693 g/cm³ @ Temp: 25 °C"
    }
}