{
    "cas_no": "923-16-0",
    "key_name": "<span class=\"text-smallcaps\">D</smallcap>-Alanyl-<smallcap>D</span>-alanine",
    "cn_name": "D-丙氨酰-D-丙氨酸;",
    "alternate_name": "<span class=\"text-smallcaps\">D</smallcap>-Alanine, <smallcap>D</span>-alanyl-;Alanine, <em>N</em>-<span class=\"text-smallcaps\">D</smallcap>-alanyl-, <smallcap>D</span>-;<span class=\"text-smallcaps\">D</smallcap>-Alanine, <em>N</em>-<smallcap>D</span>-alanyl-;<span class=\"text-smallcaps\">D</smallcap>-Alanyl-<smallcap>D</span>-alanine;H-<span class=\"text-smallcaps\">D</smallcap>-Ala-<smallcap>D</span>-Ala-OH;<em>N</em>-[<span class=\"text-smallcaps\">D</smallcap>-Alaninyl]-<smallcap>D</span>-alanine",
    "duplicated_cas_no": "32157-98-5",
    "SMILES": "[C@H](NC([C@@H](C)N)=O)(C(O)=O)C",
    "meta_data": {
        "InChI": "InChI=1S/C6H12N2O3/c1-3(7)5(9)8-4(2)6(10)11/h3-4H,7H2,1-2H3,(H,8,9)(H,10,11)/t3-,4-/m1/s1",
        "InChIKey": null,
        "Canonical SMILES": "O=C(O)C(NC(=O)C(N)C)C",
        "Molecular Formula": "C<sub>6</sub>H<sub>12</sub>N<sub>2</sub>O<sub>3</sub>",
        "Molecular Mass": "160.17",
        "Melting Point": "120 °C"
    }
}