{
    "cas_no": "52130-87-7",
    "key_name": "2-Bromo-<em>N</em>-[2-(2-chlorobenzoyl)-4-nitrophenyl]acetamide",
    "cn_name": null,
    "alternate_name": "Acetamide, 2-bromo-<em>N</em>-[2-(2-chlorobenzoyl)-4-nitrophenyl]-;2-Bromo-<em>N</em>-[2-(2-chlorobenzoyl)-4-nitrophenyl]acetamide",
    "duplicated_cas_no": "",
    "SMILES": "C(=O)(C1=C(NC(CBr)=O)C=CC(N(=O)=O)=C1)C2=C(Cl)C=CC=C2",
    "meta_data": {
        "InChI": "InChI=1S/C15H10BrClN2O4/c16-8-14(20)18-13-6-5-9(19(22)23)7-11(13)15(21)10-3-1-2-4-12(10)17/h1-7H,8H2,(H,18,20)",
        "InChIKey": null,
        "Canonical SMILES": "O=C(C=1C=CC=CC1Cl)C2=CC(=CC=C2NC(=O)CBr)N(=O)=O",
        "Molecular Formula": "C<sub>15</sub>H<sub>10</sub>BrClN<sub>2</sub>O<sub>4</sub>",
        "Molecular Mass": "397.61",
        "Melting Point": "146-148 °C"
    }
}