{
    "cas_no": "948-03-8",
    "key_name": "2-Naphthalenecarboxylic acid, 1-hydroxy-, methyl ester",
    "cn_name": "甲基-1-羟基-2-萘甲酸盐;",
    "alternate_name": "2-Naphthalenecarboxylic acid, 1-hydroxy-, methyl ester;2-Naphthoic acid, 1-hydroxy-, methyl ester;Methyl 1-hydroxy-2-naphthoate;1-Hydroxy-2-carbomethoxynaphthalene;2-Methoxycarbonyl-1-naphthol;Methyl 1-hydroxy-2-naphthalenecarboxylate;1-Hydroxy-2-naphthoic acid methyl ester",
    "duplicated_cas_no": "",
    "SMILES": "OC=1C2=C(C=CC1C(OC)=O)C=CC=C2",
    "meta_data": {
        "InChI": "InChI=1S/C12H10O3/c1-15-12(14)10-7-6-8-4-2-3-5-9(8)11(10)13/h2-7,13H,1H3",
        "InChIKey": null,
        "Canonical SMILES": "O=C(OC)C=1C=CC=2C=CC=CC2C1O",
        "Molecular Formula": "C<sub>12</sub>H<sub>10</sub>O<sub>3</sub>",
        "Molecular Mass": "202.21",
        "Melting Point": "78 °C"
    }
}