{
    "cas_no": "10034-93-2",
    "key_name": "Hydrazine sulfate",
    "cn_name": null,
    "alternate_name": "Hydrazine, sulfate (1:1);Hydrazine sulfate;Hydrazine dihydrogen sulfate (salt);Hydrazine monosulfate;Hydrazinium sulfate;Hydrazonium sulfate;Hydrazine hydrogen sulfate;Hydrazine hydrosulfate;Hydrazinium(2+) sulfate;Segidrin;Sehydrin;NSC 150014;NSC 215190",
    "duplicated_cas_no": "95416-15-2",
    "SMILES": "S(=O)(=O)(O)O.NN",
    "meta_data": {
        "InChI": "InChI=1S/H4N2.H2O4S/c1-2;1-5(2,3)4/h1-2H2;(H2,1,2,3,4)",
        "InChIKey": null,
        "Canonical SMILES": "O=S(=O)(O)O.NN",
        "Molecular Formula": "H<sub>4</sub>N<sub>2</sub>.H<sub>2</sub>O<sub>4</sub>S",
        "Molecular Mass": "",
        "Melting Point": "254 °C",
        "Density": "1.378 g/cm³"
    }
}