{
    "cas_no": "71989-38-3",
    "key_name": "Fmoc-L-Tyr(tBu)-OH",
    "cn_name": "Fmoc-O-叔丁基-L-酪氨酸;芴甲氧羰基-O-叔丁基-L-酪氨酸;",
    "alternate_name": "<span class=\"text-smallcaps\">L</span>-Tyrosine, <em>O</em>-(1,1-dimethylethyl)-<em>N</em>-[(9<em>H</em>-fluoren-9-ylmethoxy)carbonyl]-;<em>O</em>-(1,1-Dimethylethyl)-<em>N</em>-[(9<em>H</em>-fluoren-9-ylmethoxy)carbonyl]-<span class=\"text-smallcaps\">L</span>-tyrosine;NSC 334301;(<em>S</em>)-3-(4-<em>tert</em>-Butoxyphenyl)-2-[[[(9<em>H</em>-fluoren-9-yl)methoxy]carbonyl]amino]propionic acid;Fmoc-L-Tyr(tBu)-OH;(2S)-2-(9<em>H</em>-Fluoren-9-ylmethoxycarbonylamino)-3-[4-[(2-methylpropan-2-yl)oxy]phenyl]propanoic acid;(2S)-3-[4-(<em>tert</em>-Butoxy)phenyl]-2-([[(9<em>H</em>-fluoren-9-yl)methoxy]carbonyl]amino)propanoic acid",
    "duplicated_cas_no": "123105-95-3;487011-61-0;504424-88-8;204384-67-8",
    "SMILES": "C(OC(N[C@@H](CC1=CC=C(OC(C)(C)C)C=C1)C(O)=O)=O)C2C=3C(C=4C2=CC=CC4)=CC=CC3",
    "meta_data": {
        "InChI": "InChI=1S/C28H29NO5/c1-28(2,3)34-19-14-12-18(13-15-19)16-25(26(30)31)29-27(32)33-17-24-22-10-6-4-8-20(22)21-9-5-7-11-23(21)24/h4-15,24-25H,16-17H2,1-3H3,(H,29,32)(H,30,31)/t25-/m0/s1",
        "InChIKey": null,
        "Canonical SMILES": "O=C(OCC1C=2C=CC=CC2C=3C=CC=CC31)NC(C(=O)O)CC4=CC=C(OC(C)(C)C)C=C4",
        "Molecular Formula": "C<sub>28</sub>H<sub>29</sub>NO<sub>5</sub>",
        "Molecular Mass": "459.53",
        "Melting Point": "150-152 °C"
    }
}