{
    "cas_no": "557-04-0",
    "key_name": "Magnesium stearate",
    "cn_name": "硬脂酸镁;",
    "alternate_name": "Octadecanoic acid, magnesium salt (2:1);Magnesium stearate;Stearic acid, magnesium salt;Octadecanoic acid, magnesium salt;Dibasic magnesium stearate;Magnesium distearate;SM;Petrac MG 20NF;SM 1000;Magnesium octadecanoate;Daiwax M;Pharma;SM-P;NS-M;NS-M (salt);Synpro Magnesium Stearate 90;Synpro 90;NP 1500;Magnesium stearic acid;EM 100;EM 100 (salt);EM 144;EM 112;EM 612;Nissan Electol MM 2;HyQual;Electol MM 2;Mg-St;Daiwax SMO;Palmstar 325BP/EP;SPX 100F;M 5GN;Magnesium Stearate G;Aurabrite MA 76;Parteck LUB-MST;PETS 120P;AFCO-Chem MGS;Kemilub EM-F-V;JPM 100;Liga MF 2V;SMO;VE;SM-PG;MGS;Songstab SM 310;BS 5818;SAK-MS-P;Parteck LUB;Ligastar MG 700;SM 520;Magnesium stearate GR;S 0238;Nissan Elector MM-2;Ligamed MF-2-V;Magnesium Stearate GP;magnesium stearate;Ligamed;SM 310;E 470B;IADMGSTCM 700;NJ 029;YZM 32C;YZM 75C;Ligamed MF 2V;Hyqual 5712;TY 205 (salt);TY 205;Kang 666;XW 5;MS-SW;Daiwax M 5",
    "duplicated_cas_no": "212132-26-8",
    "SMILES": "C(CCCCCCCCCCC)CCCCCC(O)=O.[Mg]",
    "meta_data": {
        "InChI": "InChI=1S/C18H36O2.Mg/c1-2-3-4-5-6-7-8-9-10-11-12-13-14-15-16-17-18(19)20;/h2-17H2,1H3,(H,19,20);",
        "InChIKey": null,
        "Canonical SMILES": "[Mg].O=C(O)CCCCCCCCCCCCCCCCC",
        "Molecular Formula": "C<sub>18</sub>H<sub>36</sub>O<sub>2</sub>.<sup>1</sup>/<sub>2</sub>Mg",
        "Molecular Mass": "",
        "Melting Point": "88 °C",
        "Density": "1.028 g/cm³"
    }
}