{
    "cas_no": "4441-57-0",
    "key_name": "Cyclohexanebutanol",
    "cn_name": null,
    "alternate_name": "Cyclohexanebutanol;4-Cyclohexylbutanol;4-Cyclohexyl-1-butanol;NSC 44913",
    "duplicated_cas_no": "",
    "SMILES": "C(CCCO)C1CCCCC1",
    "meta_data": {
        "InChI": "InChI=1S/C10H20O/c11-9-5-4-8-10-6-2-1-3-7-10/h10-11H,1-9H2",
        "InChIKey": null,
        "Canonical SMILES": "OCCCCC1CCCCC1",
        "Molecular Formula": "C<sub>10</sub>H<sub>20</sub>O",
        "Molecular Mass": "156.27",
        "Boiling Point": "103-104 °C @ Press: 4 Torr",
        "Density": "0.9015 g/cm³ @ Temp: 25 °C"
    }
}