{
    "cas_no": "2058-52-8",
    "key_name": "Clotiapine",
    "cn_name": "氯噻平;氯哌硫氮卓;",
    "alternate_name": "Dibenzo[<em>b</em>,<em>f</em>][1,4]thiazepine, 2-chloro-11-(4-methyl-1-piperazinyl)-;2-Chloro-11-(4-methyl-1-piperazinyl)dibenzo[<em>b</em>,<em>f</em>][1,4]thiazepine;LW 2159;2-Chloro-11-(4-methylpiperazino)dibenzo[<em>b</em>,<em>f</em>][1,4]thiazepine;Clothiapine;Clotiapine;HF 2159;Etumine;Clothiapin;Entumine;Deliton;Etomine",
    "duplicated_cas_no": "",
    "SMILES": "ClC=1C=C2C(=NC=3C(SC2=CC1)=CC=CC3)N4CCN(C)CC4",
    "meta_data": {
        "InChI": "InChI=1S/C18H18ClN3S/c1-21-8-10-22(11-9-21)18-14-12-13(19)6-7-16(14)23-17-5-3-2-4-15(17)20-18/h2-7,12H,8-11H2,1H3",
        "InChIKey": null,
        "Canonical SMILES": "ClC=1C=CC=2SC=3C=CC=CC3N=C(C2C1)N4CCN(C)CC4",
        "Molecular Formula": "C<sub>18</sub>H<sub>18</sub>ClN<sub>3</sub>S",
        "Molecular Mass": "343.87",
        "Melting Point": "119 °C"
    }
}