{
    "cas_no": "6214-44-4",
    "key_name": "4-Ethoxybenzyl alcohol",
    "cn_name": null,
    "alternate_name": "Benzenemethanol, 4-ethoxy-;Benzyl alcohol, <em>p</em>-ethoxy-;4-Ethoxybenzenemethanol;<em>p</em>-Ethoxybenzyl alcohol;4-Ethoxybenzyl alcohol;NSC 406713;(4-Ethoxyphenyl)methanol",
    "duplicated_cas_no": "",
    "SMILES": "O(CC)C1=CC=C(CO)C=C1",
    "meta_data": {
        "InChI": "InChI=1S/C9H12O2/c1-2-11-9-5-3-8(7-10)4-6-9/h3-6,10H,2,7H2,1H3",
        "InChIKey": null,
        "Canonical SMILES": "OCC1=CC=C(OCC)C=C1",
        "Molecular Formula": "C<sub>9</sub>H<sub>12</sub>O<sub>2</sub>",
        "Molecular Mass": "152.19",
        "Boiling Point": "134-135 °C",
        "Melting Point": "27 °C"
    }
}