{
    "cas_no": "2725-82-8",
    "key_name": "1-Bromo-3-ethylbenzene",
    "cn_name": "1-溴-3-乙基苯;1-溴-3-乙基苯;1-溴-3-乙基苯,98%;",
    "alternate_name": "Benzene, 1-bromo-3-ethyl-;1-Bromo-3-ethylbenzene;<em>m</em>-Bromoethylbenzene;<em>m</em>-Ethylbromobenzene;3-Ethylbromobenzene;3-Bromo-1-ethylbenzene;(3-Ethylphenyl)bromide;1-Ethyl-3-bromobenzene",
    "duplicated_cas_no": "",
    "SMILES": "C(C)C1=CC(Br)=CC=C1",
    "meta_data": {
        "InChI": "InChI=1S/C8H9Br/c1-2-7-4-3-5-8(9)6-7/h3-6H,2H2,1H3",
        "InChIKey": null,
        "Canonical SMILES": "BrC1=CC=CC(=C1)CC",
        "Molecular Formula": "C<sub>8</sub>H<sub>9</sub>Br",
        "Molecular Mass": "185.06",
        "Boiling Point": "200-208 °C",
        "Density": "1.3493 g/cm³ @ Temp: 20 °C"
    }
}