{
    "cas_no": "68-94-0",
    "key_name": "Hypoxanthine",
    "cn_name": "次黄嘌呤;6-羟基嘌呤;",
    "alternate_name": "6<em>H</em>-Purin-6-one, 1,9-dihydro-;Hypoxanthine;6<em>H</em>-Purin-6-one, 1,7-dihydro-;1,9-Dihydro-6<em>H</em>-purin-6-one;Purin-6(3<em>H</em>)-one;9<em>H</em>-Purin-6(1<em>H</em>)-one;Sarcine;Sarkin;Sarkine;Purin-6(1<em>H</em>)-one;6-Hydroxypurine;6-Oxopurine;6-Hydroxy-1<em>H</em>-purine;9<em>H</em>-Purin-6-ol;Purin-6-ol;3<em>H</em>-Purin-6-ol;Hypoxanthine enol;1<em>H</em>,7<em>H</em>-Hypoxanthine;NSC 129419;NSC 14665;1<em>H</em>,9<em>H</em>-Hypoxanthine;1<em>H</em>-Purin-6(9<em>H</em>)-one;1,9-Dihydro-purin-6-one;MeSH ID: D019271",
    "duplicated_cas_no": "480-99-9;6535-89-3;25991-09-7;25991-08-6;25991-07-5;39464-17-0;39464-15-8;184856-40-4;51953-23-2;184856-41-5",
    "SMILES": "O=C1C2=C(NC=N1)N=CN2",
    "meta_data": {
        "InChI": "InChI=1S/C5H4N4O/c10-5-3-4(7-1-6-3)8-2-9-5/h1-2H,(H2,6,7,8,9,10)",
        "InChIKey": null,
        "Canonical SMILES": "O=C1N=CNC=2N=CNC12",
        "Molecular Formula": "C<sub>5</sub>H<sub>4</sub>N<sub>4</sub>O",
        "Molecular Mass": "136.11",
        "Melting Point": "150 °C (decomp)",
        "Density": "1.60 g/cm³ (crystalline) @ Temp: 19.9 °C"
    }
}