{
    "cas_no": "936-52-7",
    "key_name": "1-Morpholinocyclopentene",
    "cn_name": "N-(1-环戊烯基)吗啉;",
    "alternate_name": "Morpholine, 4-(1-cyclopenten-1-yl)-;4-(1-Cyclopenten-1-yl)morpholine;1-Morpholino-1-cyclopentene;1-Morpholinocyclopentene;Cyclopentanone morpholine enamine;4-(1-Cyclopentenyl)morpholine;1-Morpholinylcyclopentene;<em>N</em>-(1-Cyclopentenyl)morpholine;1-(4-Morpholino)-1-cyclopentene;NSC 86131;1-(Morpholin-4-yl)cyclopentene;<em>N</em>-(1-Cyclopenten-1-yl)morpholine",
    "duplicated_cas_no": "",
    "SMILES": "C=1(CCCC1)N2CCOCC2",
    "meta_data": {
        "InChI": "InChI=1S/C9H15NO/c1-2-4-9(3-1)10-5-7-11-8-6-10/h3H,1-2,4-8H2",
        "InChIKey": null,
        "Canonical SMILES": "O1CCN(C2=CCCC2)CC1",
        "Molecular Formula": "C<sub>9</sub>H<sub>15</sub>NO",
        "Molecular Mass": "153.22",
        "Boiling Point": "97 °C @ Press: 7.5 Torr",
        "Melting Point": "122-127 °C (decomp)"
    }
}