{
    "cas_no": "960-71-4",
    "key_name": "Triphenylborane",
    "cn_name": "三苯基硼烷;",
    "alternate_name": "Borane, triphenyl-;Borine, triphenyl-;Triphenylborane;Triphenylboron;Triphenylborine",
    "duplicated_cas_no": "",
    "SMILES": "B(C1=CC=CC=C1)(C2=CC=CC=C2)C3=CC=CC=C3",
    "meta_data": {
        "InChI": "InChI=1S/C18H15B/c1-4-10-16(11-5-1)19(17-12-6-2-7-13-17)18-14-8-3-9-15-18/h1-15H",
        "InChIKey": null,
        "Canonical SMILES": "C=1C=CC(=CC1)B(C=2C=CC=CC2)C=3C=CC=CC3",
        "Molecular Formula": "C<sub>18</sub>H<sub>15</sub>B",
        "Molecular Mass": "242.12",
        "Boiling Point": "208 °C @ Press: 14 Torr",
        "Melting Point": "147 °C"
    }
}