{
    "cas_no": "38240-29-8",
    "key_name": "3-Nitro-2(1<em>H</em>)-pyridinethione",
    "cn_name": null,
    "alternate_name": "2(1<em>H</em>)-Pyridinethione, 3-nitro-;2-Pyridinethiol, 3-nitro-;3-Nitro-2(1<em>H</em>)-pyridinethione;3-Nitro-2-pyridinethiol;2-Mercapto-3-nitropyridine;3-Nitro-2-mercaptopyridine;3-Nitropyridine-2-thione;NSC 98807;3-Nitro-1<em>H</em>-pyridine-2-thione",
    "duplicated_cas_no": "",
    "SMILES": "N(=O)(=O)C=1C(=S)NC=CC1",
    "meta_data": {
        "InChI": "InChI=1S/C5H4N2O2S/c8-7(9)4-2-1-3-6-5(4)10/h1-3H,(H,6,10)",
        "InChIKey": null,
        "Canonical SMILES": "O=N(=O)C1=CC=CNC1=S",
        "Molecular Formula": "C<sub>5</sub>H<sub>4</sub>N<sub>2</sub>O<sub>2</sub>S",
        "Molecular Mass": "156.16",
        "Melting Point": "174-175 °C"
    }
}