{
    "cas_no": "5272-18-4",
    "key_name": "1,1-Dimethyl-1-phenylsilanol",
    "cn_name": "二甲基苯基硅醇;",
    "alternate_name": "Silanol, 1,1-dimethyl-1-phenyl-;Silanol, dimethylphenyl-;1,1-Dimethyl-1-phenylsilanol;Dimethylphenylsilanol;Phenyldimethylsilanol;Hydroxydimethylphenylsilane",
    "duplicated_cas_no": "",
    "SMILES": "[Si](C)(C)(O)C1=CC=CC=C1",
    "meta_data": {
        "InChI": "InChI=1S/C8H12OSi/c1-10(2,9)8-6-4-3-5-7-8/h3-7,9H,1-2H3",
        "InChIKey": null,
        "Canonical SMILES": "O[Si](C=1C=CC=CC1)(C)C",
        "Molecular Formula": "C<sub>8</sub>H<sub>12</sub>OSi",
        "Molecular Mass": "152.27",
        "Boiling Point": "101-101.5 °C @ Press: 14 Torr",
        "Density": "0.990 g/cm³ @ Temp: 25 °C"
    }
}