{
    "cas_no": "544-00-3",
    "key_name": "Diisoamylamine",
    "cn_name": "二异戊基氨;N,N-二(3-甲基丁基)胺;二异戊胺;二(3-甲基丁基)胺;二異戊胺;",
    "alternate_name": "1-Butanamine, 3-methyl-<em>N</em>-(3-methylbutyl)-;Diisopentylamine;3-Methyl-<em>N</em>-(3-methylbutyl)-1-butanamine;Diisoamylamine;NSC 6261;<em>N</em>,<em>N</em>-Bis(3-methylbutyl)amine;Bis(3-methylbutyl)amine",
    "duplicated_cas_no": "855185-04-5",
    "SMILES": "C(CC(C)C)NCCC(C)C",
    "meta_data": {
        "InChI": "InChI=1S/C10H23N/c1-9(2)5-7-11-8-6-10(3)4/h9-11H,5-8H2,1-4H3",
        "InChIKey": null,
        "Canonical SMILES": "N(CCC(C)C)CCC(C)C",
        "Molecular Formula": "C<sub>10</sub>H<sub>23</sub>N",
        "Molecular Mass": "157.30",
        "Boiling Point": "188 °C",
        "Melting Point": "-44 °C",
        "Density": "0.768 g/cm³ @ Temp: 20 °C"
    }
}