{
    "cas_no": "1530-87-6",
    "key_name": "1-Piperidinecarbonitrile",
    "cn_name": "1-吡啶甲酯;",
    "alternate_name": "1-Piperidinecarbonitrile;Pentamethylenecyanamide;<em>N</em>-Cyanopiperidine;1-Cyanopiperidine;<em>N</em>-Piperidinecarbonitrile;1-Piperidinocarbonitrile;NSC 26965",
    "duplicated_cas_no": "71302-74-4",
    "SMILES": "C(#N)N1CCCCC1",
    "meta_data": {
        "InChI": "InChI=1S/C6H10N2/c7-6-8-4-2-1-3-5-8/h1-5H2",
        "InChIKey": null,
        "Canonical SMILES": "N#CN1CCCCC1",
        "Molecular Formula": "C<sub>6</sub>H<sub>10</sub>N<sub>2</sub>",
        "Molecular Mass": "110.16",
        "Boiling Point": "105 °C @ Press: 10 Torr"
    }
}