{
    "cas_no": "56227-55-5",
    "key_name": "Benzoylpiperazine hydrochloride",
    "cn_name": null,
    "alternate_name": "Methanone, phenyl-1-piperazinyl-, hydrochloride (1:1);Piperazine, 1-benzoyl-, monohydrochloride;1-Benzoylpiperazine monohydrochloride;1-Benzoylpiperazine hydrochloride;<em>N</em>-Benzoylpiperazine hydrochloride;4-Benzoylpiperazine hydrochloride;Benzoylpiperazine hydrochloride",
    "duplicated_cas_no": "",
    "SMILES": "C(=O)(C1=CC=CC=C1)N2CCNCC2.Cl",
    "meta_data": {
        "InChI": "InChI=1S/C11H14N2O.ClH/c14-11(10-4-2-1-3-5-10)13-8-6-12-7-9-13;/h1-5,12H,6-9H2;1H",
        "InChIKey": null,
        "Canonical SMILES": "Cl.O=C(C=1C=CC=CC1)N2CCNCC2",
        "Molecular Formula": "C<sub>11</sub>H<sub>14</sub>N<sub>2</sub>O.ClH",
        "Molecular Mass": "",
        "Melting Point": "274-275 °C"
    }
}