{
    "cas_no": "3556-83-0",
    "key_name": "Benzoic acid, 3-methoxy-4-methyl-, methyl ester",
    "cn_name": null,
    "alternate_name": "Benzoic acid, 3-methoxy-4-methyl-, methyl ester;<em>m</em>-Anisic acid, 4-methyl-, methyl ester;Methyl 3-methoxy-4-methylbenzoate;3-Methoxy-4-methylbenzoic acid methyl ester;Methyl 4-methyl-3-(methyloxy)benzoate",
    "duplicated_cas_no": "",
    "SMILES": "C(OC)(=O)C1=CC(OC)=C(C)C=C1",
    "meta_data": {
        "InChI": "InChI=1S/C10H12O3/c1-7-4-5-8(10(11)13-3)6-9(7)12-2/h4-6H,1-3H3",
        "InChIKey": null,
        "Canonical SMILES": "O=C(OC)C1=CC=C(C(OC)=C1)C",
        "Molecular Formula": "C<sub>10</sub>H<sub>12</sub>O<sub>3</sub>",
        "Molecular Mass": "180.20",
        "Boiling Point": "138-142 °C @ Press: 20 Torr",
        "Melting Point": "46-48 °C"
    }
}