{
    "cas_no": "281-23-2",
    "key_name": "Adamantane",
    "cn_name": "金刚烷;",
    "alternate_name": "Tricyclo[3.3.1.1<sup>3,7</sup>]decane;Adamantane;NSC 527913;A 0696;MeSH ID: D000218",
    "duplicated_cas_no": "",
    "SMILES": "C12CC3CC(C1)CC(C2)C3",
    "meta_data": {
        "InChI": "InChI=1S/C10H16/c1-7-2-9-4-8(1)5-10(3-7)6-9/h7-10H,1-6H2",
        "InChIKey": null,
        "Canonical SMILES": "C1C2CC3CC1CC(C2)C3",
        "Molecular Formula": "C<sub>10</sub>H<sub>16</sub>",
        "Molecular Mass": "136.23",
        "Melting Point": "205 °C",
        "Density": "1.07 g/cm³"
    }
}