{
    "cas_no": "122-25-8",
    "key_name": "5,5′-Methylenedisalicylic acid",
    "cn_name": "5,5\"-亚甲基二水杨酸;",
    "alternate_name": "Benzoic acid, 3,3′-methylenebis[6-hydroxy-;Salicylic acid, 5,5′-methylenedi-;3,3′-Methylenebis[6-hydroxybenzoic acid];3,3′-Dicarboxy-4,4′-dihydroxydiphenylmethane;4,4′-Dihydroxydiphenylmethane-3,3′-dicarboxylic acid;Methylenebis(salicylic acid);5,5′-Methylenedisalicylic acid;4,4′-Dihydroxy-3,3′-dicarboxydiphenylmethane;5-(3-Carboxy-4-hydroxybenzyl)salicylic acid;5,5′-Methylenebis(salicylic acid);2,2′-Dihydroxy-5,5′-methylenedibenzoic acid;NSC 622445;NSC 14778",
    "duplicated_cas_no": "198640-77-6",
    "SMILES": "C(C1=CC(C(O)=O)=C(O)C=C1)C2=CC(C(O)=O)=C(O)C=C2",
    "meta_data": {
        "InChI": "InChI=1S/C15H12O6/c16-12-3-1-8(6-10(12)14(18)19)5-9-2-4-13(17)11(7-9)15(20)21/h1-4,6-7,16-17H,5H2,(H,18,19)(H,20,21)",
        "InChIKey": null,
        "Canonical SMILES": "O=C(O)C1=CC(=CC=C1O)CC2=CC=C(O)C(=C2)C(=O)O",
        "Molecular Formula": "C<sub>15</sub>H<sub>12</sub>O<sub>6</sub>",
        "Molecular Mass": "288.25",
        "Melting Point": "243.5 °C"
    }
}