{
    "cas_no": "22374-89-6",
    "key_name": "1-Methyl-3-phenylpropylamine",
    "cn_name": "1-甲基-3-苯基丙胺;4-苯基-2-丁胺;2-氨基-4-苯基丁烷;",
    "alternate_name": "Benzenepropanamine, α-methyl-;Propylamine, 1-methyl-3-phenyl-;α-Methylbenzenepropanamine;1-Phenyl-3-aminobutane;3-Amino-1-phenylbutane;1-Methyl-3-phenylpropylamine;4-Phenyl-2-aminobutane;(±)-α-Methylbenzenepropanamine;<span class=\"text-smallcaps\">D</smallcap><smallcap>L</span>-1-Methyl-3-phenylpropylamine;(±)-1-Methyl-3-phenylpropylamine;(±)-3-Amino-1-phenylbutane;2-Amino-4-phenylbutane;(<em>RS</em>)-1-Methyl-3-phenylpropylamine;NSC 115524;4-Phenyl-2-butanamine;(3-Aminobutyl)benzene;4-Phenyl-2-butylamine;3-Phenyl-1-methylpropylamine",
    "duplicated_cas_no": "22148-77-2",
    "SMILES": "C(CC(C)N)C1=CC=CC=C1",
    "meta_data": {
        "InChI": "InChI=1S/C10H15N/c1-9(11)7-8-10-5-3-2-4-6-10/h2-6,9H,7-8,11H2,1H3",
        "InChIKey": null,
        "Canonical SMILES": "NC(C)CCC=1C=CC=CC1",
        "Molecular Formula": "C<sub>10</sub>H<sub>15</sub>N",
        "Molecular Mass": "149.23",
        "Boiling Point": "223 °C",
        "Melting Point": "143 °C",
        "Density": "0.9289 g/cm³"
    }
}