{
    "cas_no": "6317-57-3",
    "key_name": "Benzenamine, 4-(phenylmethyl)-, hydrochloride (1:1)",
    "cn_name": null,
    "alternate_name": "Benzenamine, 4-(phenylmethyl)-, hydrochloride (1:1);Benzenamine, 4-(phenylmethyl)-, hydrochloride",
    "duplicated_cas_no": "",
    "SMILES": "C(C1=CC=C(N)C=C1)C2=CC=CC=C2.Cl",
    "meta_data": {
        "InChI": "InChI=1S/C13H13N.ClH/c14-13-8-6-12(7-9-13)10-11-4-2-1-3-5-11;/h1-9H,10,14H2;1H",
        "InChIKey": null,
        "Canonical SMILES": "Cl.NC1=CC=C(C=C1)CC=2C=CC=CC2",
        "Molecular Formula": "C<sub>13</sub>H<sub>13</sub>N.ClH",
        "Molecular Mass": "",
        "Melting Point": "219 °C"
    }
}