{
    "cas_no": "2639-63-6",
    "key_name": "Hexyl butyrate",
    "cn_name": "丁酸己酯;",
    "alternate_name": "Butanoic acid, hexyl ester;Butyric acid, hexyl ester;Hexyl butanoate;Hexyl butyrate;<em>n</em>-Hexyl butanoate;<em>n</em>-Hexyl <em>n</em>-butyrate;<em>n</em>-Hexyl butyrate;1-Hexyl butyrate",
    "duplicated_cas_no": "",
    "SMILES": "C(OCCCCCC)(CCC)=O",
    "meta_data": {
        "InChI": "InChI=1S/C10H20O2/c1-3-5-6-7-9-12-10(11)8-4-2/h3-9H2,1-2H3",
        "InChIKey": null,
        "Canonical SMILES": "O=C(OCCCCCC)CCC",
        "Molecular Formula": "C<sub>10</sub>H<sub>20</sub>O<sub>2</sub>",
        "Molecular Mass": "172.26",
        "Boiling Point": "208 °C",
        "Melting Point": "-78 °C",
        "Density": "0.8825 g/cm³ @ Temp: 0 °C"
    }
}