{
    "cas_no": "7335-06-0",
    "key_name": "1-Ethylpyrrolidine",
    "cn_name": "N-乙基吡咯烷;",
    "alternate_name": "Pyrrolidine, 1-ethyl-;1-Ethylpyrrolidine;<em>N</em>-Ethylpyrrolidine;<em>N</em>-Ethyltetrahydropyrrole",
    "duplicated_cas_no": "",
    "SMILES": "C(C)N1CCCC1",
    "meta_data": {
        "InChI": "InChI=1S/C6H13N/c1-2-7-5-3-4-6-7/h2-6H2,1H3",
        "InChIKey": null,
        "Canonical SMILES": "N1(CC)CCCC1",
        "Molecular Formula": "C<sub>6</sub>H<sub>13</sub>N",
        "Molecular Mass": "99.17",
        "Boiling Point": "104 °C",
        "Melting Point": "102-104 °C",
        "Density": "0.8156 g/cm³ @ Temp: 20 °C"
    }
}