{
    "cas_no": "5204-74-0",
    "key_name": "Triethylammonium acetate",
    "cn_name": "乙酸与二乙胺的化合物;",
    "alternate_name": "Acetic acid, compd. with <em>N</em>,<em>N</em>-diethylethanamine (1:1);Triethylamine, acetate;Ethanamine, <em>N</em>,<em>N</em>-diethyl-, acetate;Triethylammonium acetate;Triethylamine monoacetate;Acetic acid compound with triethylamine (1:1);Acetic acid triethylamine salt",
    "duplicated_cas_no": "",
    "SMILES": "N(CC)(CC)CC.C(C)(O)=O",
    "meta_data": {
        "InChI": "InChI=1S/C6H15N.C2H4O2/c1-4-7(5-2)6-3;1-2(3)4/h4-6H2,1-3H3;1H3,(H,3,4)",
        "InChIKey": null,
        "Canonical SMILES": "O=C(O)C.N(CC)(CC)CC",
        "Molecular Formula": "C<sub>6</sub>H<sub>15</sub>N.C<sub>2</sub>H<sub>4</sub>O<sub>2</sub>",
        "Molecular Mass": "",
        "Melting Point": "-18 °C",
        "Density": "0.96 g/cm³"
    }
}