{
    "cas_no": "2037-31-2",
    "key_name": "3-Chlorothiophenol",
    "cn_name": "3-氯苯硫酚;间氯苯硫酚;",
    "alternate_name": "Benzenethiol, 3-chloro-;Benzenethiol, <em>m</em>-chloro-;3-Chlorobenzenethiol;<em>m</em>-Chlorobenzenethiol;<em>m</em>-Chlorothiophenol;3-Chlorothiophenol;m-Chlorobenzenethiol;NSC 32020;3-Chlorobenzene-1-thiol",
    "duplicated_cas_no": "",
    "SMILES": "ClC1=CC(S)=CC=C1",
    "meta_data": {
        "InChI": "InChI=1S/C6H5ClS/c7-5-2-1-3-6(8)4-5/h1-4,8H",
        "InChIKey": null,
        "Canonical SMILES": "ClC1=CC=CC(S)=C1",
        "Molecular Formula": "C<sub>6</sub>H<sub>5</sub>ClS",
        "Molecular Mass": "144.62",
        "Boiling Point": "206 °C"
    }
}