{
    "cas_no": "101-76-8",
    "key_name": "4,4′-Dichlorodiphenylmethane",
    "cn_name": "双(对氯苯基)甲烷;1,1\"-亚甲基双(4-氯苯);",
    "alternate_name": "Benzene, 1,1′-methylenebis[4-chloro-;Methane, bis(<em>p</em>-chlorophenyl)-;1,1′-Methylenebis[4-chlorobenzene];Bis(<em>p</em>-chlorophenyl)methane;DBM;<em>p</em>,<em>p</em>′-Dichlorodiphenylmethane;4,4′-Dichlorodiphenylmethane;DDM;Bis(4-chlorophenyl)methane;NSC 406594;p,p′-DDM",
    "duplicated_cas_no": "",
    "SMILES": "C(C1=CC=C(Cl)C=C1)C2=CC=C(Cl)C=C2",
    "meta_data": {
        "InChI": "InChI=1S/C13H10Cl2/c14-12-5-1-10(2-6-12)9-11-3-7-13(15)8-4-11/h1-8H,9H2",
        "InChIKey": null,
        "Canonical SMILES": "ClC1=CC=C(C=C1)CC2=CC=C(Cl)C=C2",
        "Molecular Formula": "C<sub>13</sub>H<sub>10</sub>Cl<sub>2</sub>",
        "Molecular Mass": "237.12",
        "Boiling Point": "145-160 °C @ Press: 2 Torr",
        "Melting Point": "55.5 °C"
    }
}