{
    "cas_no": "89466-19-3",
    "key_name": "5-Bromo-2,3-dimethoxypyrazine",
    "cn_name": null,
    "alternate_name": "Pyrazine, 5-bromo-2,3-dimethoxy-;5-Bromo-2,3-dimethoxypyrazine",
    "duplicated_cas_no": "",
    "SMILES": "O(C)C=1C(OC)=NC(Br)=CN1",
    "meta_data": {
        "InChI": "InChI=1S/C6H7BrN2O2/c1-10-5-6(11-2)9-4(7)3-8-5/h3H,1-2H3",
        "InChIKey": null,
        "Canonical SMILES": "BrC=1N=C(OC)C(=NC1)OC",
        "Molecular Formula": "C<sub>6</sub>H<sub>7</sub>BrN<sub>2</sub>O<sub>2</sub>",
        "Molecular Mass": "219.04",
        "Melting Point": "54-56 °C"
    }
}