{
    "cas_no": "130-00-7",
    "key_name": "Benz[<em>cd</em>]indol-2(1<em>H</em>)-one",
    "cn_name": "1,8-萘内酰亚胺;",
    "alternate_name": "Benz[<em>cd</em>]indol-2(1<em>H</em>)-one;Naphthostyril;2(1<em>H</em>)-<em>peri</em>-Naphthazolone;2(1<em>H</em>)-Perinaphthazolone;1-Naphthalenecarboxylic acid, 8-amino-, lactam;Naphtholactam;1,8-Naphtholactam;NSC 25094;Benz[<em>c</em>,<em>d</em>]indole-2(1<em>H</em>)-one;1<em>H</em>-Benzo[<em>cd</em>]indol-2-one",
    "duplicated_cas_no": "",
    "SMILES": "O=C1C2=C3C(N1)=CC=CC3=CC=C2",
    "meta_data": {
        "InChI": "InChI=1S/C11H7NO/c13-11-8-5-1-3-7-4-2-6-9(12-11)10(7)8/h1-6H,(H,12,13)",
        "InChIKey": null,
        "Canonical SMILES": "O=C1NC=2C=CC=C3C=CC=C1C32",
        "Molecular Formula": "C<sub>11</sub>H<sub>7</sub>NO",
        "Molecular Mass": "169.18",
        "Melting Point": "181 °C"
    }
}