{
    "cas_no": "6924-72-7",
    "key_name": "Ethyl 6-quinoxalinecarboxylate",
    "cn_name": null,
    "alternate_name": "6-Quinoxalinecarboxylic acid, ethyl ester;Ethyl 6-quinoxalinecarboxylate",
    "duplicated_cas_no": "",
    "SMILES": "C(OCC)(=O)C1=CC2=C(C=C1)N=CC=N2",
    "meta_data": {
        "InChI": "InChI=1S/C11H10N2O2/c1-2-15-11(14)8-3-4-9-10(7-8)13-6-5-12-9/h3-7H,2H2,1H3",
        "InChIKey": null,
        "Canonical SMILES": "O=C(OCC)C1=CC=C2N=CC=NC2=C1",
        "Molecular Formula": "C<sub>11</sub>H<sub>10</sub>N<sub>2</sub>O<sub>2</sub>",
        "Molecular Mass": "202.21",
        "Melting Point": "66 °C"
    }
}