{
    "cas_no": "401788-98-5",
    "key_name": "1-Butyl-3-methylimidazolium methylsulfate",
    "cn_name": null,
    "alternate_name": "1<em>H</em>-Imidazolium, 3-butyl-1-methyl-, methyl sulfate (1:1);1<em>H</em>-Imidazolium, 1-butyl-3-methyl-, methyl sulfate;1-Butyl-3-methylimidazolium methylsulfate;3-Butyl-1-methylimidazolium methyl sulfate;Basionics AC 01;Butylmethylimidazolium methyl sulfate;1-<em>n</em>-Butyl-3-methylimidazolium methylsulfate",
    "duplicated_cas_no": "",
    "SMILES": "C(CCC)[N+]1=CN(C)C=C1.S(OC)(=O)(=O)[O-]",
    "meta_data": {
        "InChI": "InChI=1S/C8H15N2.CH4O4S/c1-3-4-5-10-7-6-9(2)8-10;1-5-6(2,3)4/h6-8H,3-5H2,1-2H3;1H3,(H,2,3,4)/q+1;/p-1",
        "InChIKey": null,
        "Canonical SMILES": "O=S(=O)([O-])OC.C1=C[N+](=CN1C)CCCC",
        "Molecular Formula": "C<sub>8</sub>H<sub>15</sub>N<sub>2</sub>.CH<sub>3</sub>O<sub>4</sub>S",
        "Molecular Mass": "",
        "Melting Point": "25 °C",
        "Density": "1.0684 g/cm³ @ Temp: 298.15 °C"
    }
}