{
    "cas_no": "33863-86-4",
    "key_name": "4-Butoxybenzoyl chloride",
    "cn_name": "4-正丁氧基苯甲酰氯;",
    "alternate_name": "Benzoyl chloride, 4-butoxy-;Benzoyl chloride, <em>p</em>-butoxy-;4-Butoxybenzoyl chloride;<em>p</em>-Butoxybenzoyl chloride;<em>p</em>-Butyloxybenzoyl chloride;4-<em>n</em>-Butoxybenzoyl chloride;<em>p</em>-<em>n</em>-Butoxybenzoic acid chloride;<em>p</em>-Butoxybenzoic acid chloride;4-<em>n</em>-Butyloxybenzoyl chloride;4-Butyloxybenzoic acid chloride",
    "duplicated_cas_no": "",
    "SMILES": "O(CCCC)C1=CC=C(C(Cl)=O)C=C1",
    "meta_data": {
        "InChI": "InChI=1S/C11H13ClO2/c1-2-3-8-14-10-6-4-9(5-7-10)11(12)13/h4-7H,2-3,8H2,1H3",
        "InChIKey": null,
        "Canonical SMILES": "O=C(Cl)C1=CC=C(OCCCC)C=C1",
        "Molecular Formula": "C<sub>11</sub>H<sub>13</sub>ClO<sub>2</sub>",
        "Molecular Mass": "212.67",
        "Boiling Point": "160 °C @ Press: 13 Torr"
    }
}