{
    "cas_no": "154-08-5",
    "key_name": "5-Fluoro-<span class=\"text-smallcaps\">DL</span>-tryptophan",
    "cn_name": "5-氟-DL-色氨酸;5-氟-DL-色氨酸;5-氟色氨酸;",
    "alternate_name": "Tryptophan, 5-fluoro-;Tryptophan, 5-fluoro-, <span class=\"text-smallcaps\">DL</span>-;<span class=\"text-smallcaps\">DL</span>-Tryptophan, 5-fluoro-;5-Fluorotryptophan;5-Fluoro-<span class=\"text-smallcaps\">DL</span>-tryptophan;<span class=\"text-smallcaps\">DL</span>-5-Fluorotryptophan;NSC 9363;2-Amino-3-(5-fluoro-1<em>H</em>-indol-3-yl)propanoic acid",
    "duplicated_cas_no": "343-91-9",
    "SMILES": "C(C(C(O)=O)N)C=1C=2C(NC1)=CC=C(F)C2",
    "meta_data": {
        "InChI": "InChI=1S/C11H11FN2O2/c12-7-1-2-10-8(4-7)6(5-14-10)3-9(13)11(15)16/h1-2,4-5,9,14H,3,13H2,(H,15,16)",
        "InChIKey": null,
        "Canonical SMILES": "O=C(O)C(N)CC1=CNC=2C=CC(F)=CC21",
        "Molecular Formula": "C<sub>11</sub>H<sub>11</sub>FN<sub>2</sub>O<sub>2</sub>",
        "Molecular Mass": "222.22",
        "Melting Point": "264-265 °C (decomp)"
    }
}