{
    "cas_no": "2880-58-2",
    "key_name": "2-Methoxy-1,4-benzoquinone",
    "cn_name": "甲氧苯醌;甲氧基苯醌;2-甲氧基-1,4-苯醌;",
    "alternate_name": "2,5-Cyclohexadiene-1,4-dione, 2-methoxy-;<em>p</em>-Benzoquinone, 2-methoxy-;<em>p</em>-Benzoquinone, methoxy-;2-Methoxy-2,5-cyclohexadiene-1,4-dione;Methoxy-<em>p</em>-benzoquinone;Methoxy-1,4-benzoquinone;2-Methoxyquinone;2-Methoxy-1,4-benzoquinone;Methoxy-<em>p</em>-quinone;2-Methoxybenzoquinone;2-Methoxy-<em>p</em>-benzoquinone;NSC 508876",
    "duplicated_cas_no": "",
    "SMILES": "O(C)C=1C(=O)C=CC(=O)C1",
    "meta_data": {
        "InChI": "InChI=1S/C7H6O3/c1-10-7-4-5(8)2-3-6(7)9/h2-4H,1H3",
        "InChIKey": null,
        "Canonical SMILES": "O=C1C=CC(=O)C(OC)=C1",
        "Molecular Formula": "C<sub>7</sub>H<sub>6</sub>O<sub>3</sub>",
        "Molecular Mass": "138.12",
        "Melting Point": "139 °C"
    }
}