{
    "cas_no": "307-24-4",
    "key_name": "Perfluorohexanoic acid",
    "cn_name": "全氟己酸;全氟己酸;十一氟已酸;",
    "alternate_name": "Hexanoic acid, 2,2,3,3,4,4,5,5,6,6,6-undecafluoro-;Hexanoic acid, undecafluoro-;2,2,3,3,4,4,5,5,6,6,6-Undecafluorohexanoic acid;Undecafluorocaproic acid;Perfluorohexanoic acid;Undecafluorohexanoic acid;NSC 5213;Perfluoro-1-pentanecarboxylic acid;PFHxA;Perfluorocaproic acid",
    "duplicated_cas_no": "",
    "SMILES": "C(C(C(C(O)=O)(F)F)(F)F)(C(C(F)(F)F)(F)F)(F)F",
    "meta_data": {
        "InChI": "InChI=1S/C6HF11O2/c7-2(8,1(18)19)3(9,10)4(11,12)5(13,14)6(15,16)17/h(H,18,19)",
        "InChIKey": null,
        "Canonical SMILES": "O=C(O)C(F)(F)C(F)(F)C(F)(F)C(F)(F)C(F)(F)F",
        "Molecular Formula": "C<sub>6</sub>HF<sub>11</sub>O<sub>2</sub>",
        "Molecular Mass": "314.05",
        "Boiling Point": "157 °C @ Press: 742 Torr",
        "Melting Point": "12-14 °C",
        "Density": "1.762 g/cm³ @ Temp: 20 °C"
    }
}