{
    "cas_no": "2581-69-3",
    "key_name": "Disperse Orange 1",
    "cn_name": "4-[(4-硝基苯基)偶氮]-N-苯基苯胺;",
    "alternate_name": "Benzenamine, 4-[2-(4-nitrophenyl)diazenyl]-<em>N</em>-phenyl-;C.I. Disperse Orange 1;Benzenamine, 4-[(4-nitrophenyl)azo]-<em>N</em>-phenyl-;4-[2-(4-Nitrophenyl)diazenyl]-<em>N</em>-phenylbenzenamine;C.I. 11080;Acetate Orange 5R;Acetoquinone Light Orange 4RL;Celliton Discharge Orange 5RL;Celliton Fast Orange 5R;Cilla Fast Orange 5R;Diacelliton Fast Orange R;Disperse Orange 5R;Dispersol Fast Orange A;Dispersol Orange A;Dispersol Printing Orange A;Miketon Fast Orange 5R;Miketon Polyester Orange 5R;Palanil Orange 5R;Reliton Orange 5R;Resolin Orange 5R;Serisol Orange 5R;Setacyl Scarlet P 2G;Setacyl Scarlet 2GN;Supracet Scarlet 2G;Vonteryl Red 4G;Disperse Orange 1;4-Anilino-4′-nitroazobenzene;4-(<em>p</em>-Nitrophenylazo)diphenylamine;Navilene Orange 5R;Diacelliton Fast Orange RM/D;Serilene Orange 5R300;Dispersol Orange B-A;Serilene Orange 5R;4-(4-Nitrophenylazo)diphenylamine;4-Nitro-4′-(phenylamino)azobenzene;Akasperse Transfer Orange",
    "duplicated_cas_no": "",
    "SMILES": "N(C1=CC=C(N=NC2=CC=C(N(=O)=O)C=C2)C=C1)C3=CC=CC=C3",
    "meta_data": {
        "InChI": "InChI=1S/C18H14N4O2/c23-22(24)18-12-10-17(11-13-18)21-20-16-8-6-15(7-9-16)19-14-4-2-1-3-5-14/h1-13,19H",
        "InChIKey": null,
        "Canonical SMILES": "O=N(=O)C1=CC=C(N=NC2=CC=C(C=C2)NC=3C=CC=CC3)C=C1",
        "Molecular Formula": "C<sub>18</sub>H<sub>14</sub>N<sub>4</sub>O<sub>2</sub>",
        "Molecular Mass": "318.33",
        "Melting Point": "157.5-158.0 °C"
    }
}