{
    "cas_no": "100-18-5",
    "key_name": "1,4-Diisopropylbenzene",
    "cn_name": null,
    "alternate_name": "Benzene, 1,4-bis(1-methylethyl)-;Benzene, <em>p</em>-diisopropyl-;1,4-Bis(1-methylethyl)benzene;<em>p</em>-Diisopropylbenzene;1,4-Diisopropylbenzene;<em>p</em>-Di-<em>iso</em>-propylbenzene;NSC 84198;1,4-Bis(isopropyl)benzene;1,4-Di(propan-2-yl)benzene;1,4-Bis(propan-2-yl)benzene",
    "duplicated_cas_no": "",
    "SMILES": "C(C)(C)C1=CC=C(C(C)C)C=C1",
    "meta_data": {
        "InChI": "InChI=1S/C12H18/c1-9(2)11-5-7-12(8-6-11)10(3)4/h5-10H,1-4H3",
        "InChIKey": null,
        "Canonical SMILES": "C=1C=C(C=CC1C(C)C)C(C)C",
        "Molecular Formula": "C<sub>12</sub>H<sub>18</sub>",
        "Molecular Mass": "162.27",
        "Boiling Point": "210.3 °C @ Press: 760 Torr",
        "Melting Point": "-17.1 °C",
        "Density": "0.8568 g/cm³ @ Temp: 20 °C"
    }
}