{
    "cas_no": "2239-24-9",
    "key_name": "(3<em>S</em>,4a<em>R</em>,6a<em>S</em>,9a<em>R</em>,11<em>S</em>,13a<em>R</em>,13b<em>S</em>,15a<em>S</em>,15b<em>R</em>)-2,3,4,4a,5,6,6a,7,9,9a,10,11,12,13,13a,13b,14,15,15a,15b-Eicosahydro-4,4,6a,10,10,13a,15b-heptamethyl-1<em>H</em>-cyclohepta[1,2-<em>a</em>:5,4-<em>a</em>′]dinaphthalene-3,11-diol",
    "cn_name": null,
    "alternate_name": "1<em>H</em>-Cyclohepta[1,2-<em>a</em>:5,4-<em>a</em>′]dinaphthalene-3,11-diol, 2,3,4,4a,5,6,6a,7,9,9a,10,11,12,13,13a,13b,14,15,15a,15b-eicosahydro-4,4,6a,10,10,13a,15b-heptamethyl-, (3<em>S</em>,4a<em>R</em>,6a<em>S</em>,9a<em>R</em>,11<em>S</em>,13a<em>R</em>,13b<em>S</em>,15a<em>S</em>,15b<em>R</em>)-;<em>C</em>(<em>14a</em>)-Homo-27-norgammacer-14-ene-3β,21α-diol;Serratenediol;<em>C</em>(<em>14a</em>)-Homo-27-norgammacer-14-ene-3,21-diol, (3β,21α)-;(3<em>S</em>,4a<em>R</em>,6a<em>S</em>,9a<em>R</em>,11<em>S</em>,13a<em>R</em>,13b<em>S</em>,15a<em>S</em>,15b<em>R</em>)-2,3,4,4a,5,6,6a,7,9,9a,10,11,12,13,13a,13b,14,15,15a,15b-Eicosahydro-4,4,6a,10,10,13a,15b-heptamethyl-1<em>H</em>-cyclohepta[1,2-<em>a</em>:5,4-<em>a</em>′]dinaphthalene-3,11-diol;Cathaya D;1<em>H</em>-Cyclohepta[1,2-<em>a</em>:5,4-<em>a</em>′]dinaphthalene-3,11-diol, 2,3,4,4a,5,6,6a,7,9,9a,10,11,12,13,13a,13b,14,15,15a,15b-eicosahydro-4,4,6a,10,10,13a,15b-heptamethyl-, [3<em>S</em>-(3α,4aβ,6aα,9aα,11β,13aβ,13bα,15aβ,15bα)]-;<em>C</em>(14a)-Homo-27-norgammacer-14-ene-3β,21α-diol;3β-Hydroxyserrat-14-en-21α-ol;Serrat-14-en-3β,21α-diol",
    "duplicated_cas_no": "1651208-32-0",
    "SMILES": "C[C@@]12[C@@]3([C@](C)(CC=4[C@](CC3)([C@]5(C)[C@@](CC4)(C(C)(C)[C@@H](O)CC5)[H])[H])CC[C@]1(C(C)(C)[C@@H](O)CC2)[H])[H]",
    "meta_data": {
        "InChI": "InChI=1S/C30H50O2/c1-26(2)21-10-8-19-18-28(5)15-12-22-27(3,4)25(32)14-17-30(22,7)23(28)11-9-20(19)29(21,6)16-13-24(26)31/h8,20-25,31-32H,9-18H2,1-7H3/t20-,21-,22-,23-,24-,25-,28-,29+,30-/m0/s1",
        "InChIKey": null,
        "Canonical SMILES": "OC1CCC2(C)C3C(=CCC2C1(C)C)CC4(C)CCC5C(C)(C)C(O)CCC5(C)C4CC3",
        "Molecular Formula": "C<sub>30</sub>H<sub>50</sub>O<sub>2</sub>",
        "Molecular Mass": "442.72",
        "Melting Point": "302.5-304.5 °C"
    }
}