{
    "cas_no": "14246-53-8",
    "key_name": "Capryloylglycine",
    "cn_name": "辛酰甘氨酸;",
    "alternate_name": "Glycine, <em>N</em>-(1-oxooctyl)-;Glycine, <em>N</em>-octanoyl-;<em>N</em>-(1-Oxooctyl)glycine;<em>N</em>-Octanoyl-glycine;Capryloylglycine;Lipacide C 8G;Octanoylglycine;2-Octanamidoacetic acid",
    "duplicated_cas_no": "",
    "SMILES": "C(NCC(O)=O)(CCCCCCC)=O",
    "meta_data": {
        "InChI": "InChI=1S/C10H19NO3/c1-2-3-4-5-6-7-9(12)11-8-10(13)14/h2-8H2,1H3,(H,11,12)(H,13,14)",
        "InChIKey": null,
        "Canonical SMILES": "O=C(O)CNC(=O)CCCCCCC",
        "Molecular Formula": "C<sub>10</sub>H<sub>19</sub>NO<sub>3</sub>",
        "Molecular Mass": "201.26",
        "Melting Point": "102-103 °C"
    }
}