{
    "cas_no": "101827-46-7",
    "key_name": "Butenafine hydrochloride",
    "cn_name": "盐酸布替萘芬;N-(4-叔丁基苯基)-N-甲基-1-萘甲胺盐酸盐;",
    "alternate_name": "1-Naphthalenemethanamine, <em>N</em>-[[4-(1,1-dimethylethyl)phenyl]methyl]-<em>N</em>-methyl-, hydrochloride (1:1);1-Naphthalenemethanamine, <em>N</em>-[[4-(1,1-dimethylethyl)phenyl]methyl]-<em>N</em>-methyl-, hydrochloride;KP 363;Butenafine hydrochloride;Mentax;Scorba",
    "duplicated_cas_no": "",
    "SMILES": "C(N(CC1=CC=C(C(C)(C)C)C=C1)C)C=2C3=C(C=CC2)C=CC=C3.Cl",
    "meta_data": {
        "InChI": "InChI=1S/C23H27N.ClH/c1-23(2,3)21-14-12-18(13-15-21)16-24(4)17-20-10-7-9-19-8-5-6-11-22(19)20;/h5-15H,16-17H2,1-4H3;1H",
        "InChIKey": null,
        "Canonical SMILES": "Cl.C=1C=CC2=C(C1)C=CC=C2CN(C)CC3=CC=C(C=C3)C(C)(C)C",
        "Molecular Formula": "C<sub>23</sub>H<sub>27</sub>N.ClH",
        "Molecular Mass": "",
        "Melting Point": "200-202 °C"
    }
}