{
    "cas_no": "100-25-4",
    "key_name": "1,4-Dinitrobenzene",
    "cn_name": "对二硝基苯;1,4-二硝基苯;",
    "alternate_name": "Benzene, 1,4-dinitro-;Benzene, <em>p</em>-dinitro-;1,4-Dinitrobenzene;<em>p</em>-Dinitrobenzene;Para-dinitrobenzene;NSC 3809;1,4-Dintrobenzene",
    "duplicated_cas_no": "",
    "SMILES": "N(=O)(=O)C1=CC=C(N(=O)=O)C=C1",
    "meta_data": {
        "InChI": "InChI=1S/C6H4N2O4/c9-7(10)5-1-2-6(4-3-5)8(11)12/h1-4H",
        "InChIKey": null,
        "Canonical SMILES": "O=N(=O)C1=CC=C(C=C1)N(=O)=O",
        "Molecular Formula": "C<sub>6</sub>H<sub>4</sub>N<sub>2</sub>O<sub>4</sub>",
        "Molecular Mass": "168.11",
        "Boiling Point": "297 °C",
        "Melting Point": "174 °C",
        "Density": "1.625 g/cm³ @ Temp: 18 °C"
    }
}