{
    "cas_no": "3213-29-4",
    "key_name": "2,3-Dimethoxyphenethylamine",
    "cn_name": "2,3-二甲氧基苯乙胺;",
    "alternate_name": "Benzeneethanamine, 2,3-dimethoxy-;Phenethylamine, 2,3-dimethoxy-;2,3-Dimethoxybenzeneethanamine;2,3-Dimethoxyphenethylamine;2-(2,3-Dimethoxyphenyl)ethylamine;2-(2,3-Dimethoxyphenyl)ethanamine;2-(2,3-Dimethoxyphenyl)ethan-1-amine",
    "duplicated_cas_no": "",
    "SMILES": "O(C)C1=C(CCN)C=CC=C1OC",
    "meta_data": {
        "InChI": "InChI=1S/C10H15NO2/c1-12-9-5-3-4-8(6-7-11)10(9)13-2/h3-5H,6-7,11H2,1-2H3",
        "InChIKey": null,
        "Canonical SMILES": "O(C1=CC=CC(=C1OC)CCN)C",
        "Molecular Formula": "C<sub>10</sub>H<sub>15</sub>NO<sub>2</sub>",
        "Molecular Mass": "181.23",
        "Boiling Point": "190 °C @ Press: 70 Torr"
    }
}