{
    "cas_no": "1199-01-5",
    "key_name": "Azlactone",
    "cn_name": "2-苯基-5-唑酮;",
    "alternate_name": "5(4<em>H</em>)-Oxazolone, 2-phenyl-;2-Oxazolin-5-one, 2-phenyl-;2-Phenyl-5(4<em>H</em>)-oxazolone;2-Phenyl-2-oxazolin-5-one;2-Phenyl-5-oxazolone;Azlactone;2-Phenyl-4,5-dihydro-1,3-oxazol-5-one;NSC 79500;2-Phenyl-4<em>H</em>-oxazol-5-one;2-Phenyl-4,5-dihydro-5-oxazolone;2-Phenyl-4<em>H</em>-1,3-oxazol-5-one",
    "duplicated_cas_no": "53766-22-6",
    "SMILES": "O=C1OC(=NC1)C2=CC=CC=C2",
    "meta_data": {
        "InChI": "InChI=1S/C9H7NO2/c11-8-6-10-9(12-8)7-4-2-1-3-5-7/h1-5H,6H2",
        "InChIKey": null,
        "Canonical SMILES": "O=C1OC(=NC1)C=2C=CC=CC2",
        "Molecular Formula": "C<sub>9</sub>H<sub>7</sub>NO<sub>2</sub>",
        "Molecular Mass": "161.16",
        "Melting Point": "90-91 °C"
    }
}