{
    "cas_no": "2997-92-4",
    "key_name": "2,2-Azobis(2-amidinopropane) dihydrochloride",
    "cn_name": "2,2\"-偶氮二异丁基脒二盐酸盐;",
    "alternate_name": "Propanimidamide, 2,2′-(1,2-diazenediyl)bis[2-methyl-, hydrochloride (1:2);Propionamidine, 2,2′-azobis[2-methyl-, dihydrochloride;Propanimidamide, 2,2′-azobis[2-methyl-, dihydrochloride;2,2′-Azobis(isobutyramidine hydrochloride);2,2′-Azobis(2-amidinopropane) dihydrochloride;Azobis(isobutyramidine) dihydrochloride;MS 1 (catalyst);MS 1;V 50;Azobisisobutyramidinium dichloride;2,2′-Azobisisobutyramidinium chloride;2,2′-Azobis(propane-2-carboxamidine) dihydrochloride;2,2′-Azobis(2-methylpropionamidine) dihydrochloride;2,2-Azobis(2-amidinopropane) dihydrochloride;Azostarter V 50;AAPH;2,2′-Azobisamidinopropane dihydrochloride;NC 32P;Vazo 56;VA 50;VA 50 (catalyst);AIBA;Wako V 50;Vazo 56WSP;Vazo 56WSW;2,2′-Azobis(isobutyramidine) dihydrochloride;VA 050;2,2′-Azodiisobutyramidine dihydrochloride;Azobis(isobutyl)amidine hydrochloride;TB 2000;TB 2000 (initiator);2,2′-Azodiisobutylamidine dihydrochloride;V 50 initiator;Vazo 55;2,2′-(Diazene-1,2-diyl)bis(2-methylpropanimidamide) dihydrochloride;Azobis(isobutyl)amidine dihydrochloride;DN 55549;LA 3887;VA 056",
    "duplicated_cas_no": "4139-50-8;60345-43-9;89491-81-6;1904575-90-1",
    "SMILES": "C(N=NC(C(=N)N)(C)C)(C(=N)N)(C)C.Cl",
    "meta_data": {
        "InChI": "InChI=1S/C8H18N6.2ClH/c1-7(2,5(9)10)13-14-8(3,4)6(11)12;;/h1-4H3,(H3,9,10)(H3,11,12);2*1H",
        "InChIKey": null,
        "Canonical SMILES": "Cl.N=C(N)C(N=NC(C(=N)N)(C)C)(C)C",
        "Molecular Formula": "C<sub>8</sub>H<sub>18</sub>N<sub>6</sub>.2ClH",
        "Molecular Mass": "",
        "Melting Point": "165-170 °C (decomp)"
    }
}