{
    "cas_no": "66-77-3",
    "key_name": "1-Naphthalenecarboxaldehyde",
    "cn_name": "1-萘甲醛;",
    "alternate_name": "1-Naphthalenecarboxaldehyde;1-Naphthaldehyde;α-Naphthaldehyde;1-Naphthylaldehyde;1-Formylnaphthalene;α-Naphthylaldehyde;α-Naphthylcarboxaldehyde;1-Naphthylcarboxaldehyde;α-Naphthalenecarboxaldehyde;α-Naphthoaldehyde;Naphthalene-1-carbaldehyde;Naphthalene-1-aldehyde;NSC 6106;4-Naphthalene-1-carboxaldehyde",
    "duplicated_cas_no": "",
    "SMILES": "C(=O)C=1C2=C(C=CC1)C=CC=C2",
    "meta_data": {
        "InChI": "InChI=1S/C11H8O/c12-8-10-6-3-5-9-4-1-2-7-11(9)10/h1-8H",
        "InChIKey": null,
        "Canonical SMILES": "O=CC1=CC=CC=2C=CC=CC12",
        "Molecular Formula": "C<sub>11</sub>H<sub>8</sub>O",
        "Molecular Mass": "156.18",
        "Boiling Point": "292 °C",
        "Melting Point": "33.5 °C",
        "Density": "1.066 g/cm³ @ Temp: 30 °C"
    }
}