{
    "cas_no": "108-72-5",
    "key_name": "1,3,5-Triaminobenzene",
    "cn_name": "1,3,5-三氨基苯;",
    "alternate_name": "1,3,5-Benzenetriamine;<em>sym</em>-Triaminobenzene;1,3,5-Triaminobenzene;NSC 28676",
    "duplicated_cas_no": "",
    "SMILES": "NC1=CC(N)=CC(N)=C1",
    "meta_data": {
        "InChI": "InChI=1S/C6H9N3/c7-4-1-5(8)3-6(9)2-4/h1-3H,7-9H2",
        "InChIKey": null,
        "Canonical SMILES": "NC=1C=C(N)C=C(N)C1",
        "Molecular Formula": "C<sub>6</sub>H<sub>9</sub>N<sub>3</sub>",
        "Molecular Mass": "123.16",
        "Melting Point": "84-85 °C"
    }
}