{
    "cas_no": "706811-25-8",
    "key_name": "5-(4-Bromophenyl)-6-hydroxy-4(1<em>H</em>)-pyrimidinone",
    "cn_name": null,
    "alternate_name": "4(1<em>H</em>)-Pyrimidinone, 5-(4-bromophenyl)-6-hydroxy-;5-(4-Bromophenyl)-6-hydroxy-4(1<em>H</em>)-pyrimidinone;5-(4-Bromophenyl)pyrimidine-4,6-diol",
    "duplicated_cas_no": "",
    "SMILES": "O=C1C(=C(O)N=CN1)C2=CC=C(Br)C=C2",
    "meta_data": {
        "InChI": "InChI=1S/C10H7BrN2O2/c11-7-3-1-6(2-4-7)8-9(14)12-5-13-10(8)15/h1-5H,(H2,12,13,14,15)",
        "InChIKey": null,
        "Canonical SMILES": "O=C1NC=NC(O)=C1C=2C=CC(Br)=CC2",
        "Molecular Formula": "C<sub>10</sub>H<sub>7</sub>BrN<sub>2</sub>O<sub>2</sub>",
        "Molecular Mass": "267.08",
        "Melting Point": "176-180 °C"
    }
}