{
    "cas_no": "1918-13-4",
    "key_name": "Chlorthiamid",
    "cn_name": "2,6-二氯硫代苯甲酰胺;",
    "alternate_name": "Benzenecarbothioamide, 2,6-dichloro-;Benzamide, 2,6-dichlorothio-;2,6-Dichlorobenzenecarbothioamide;SD 7961;Chlorthiamid;2,6-Dichlorothiobenzamide;Prefix;Chlorthiamide;DCBN;Prefix (chlorthiamid);2,6-Dichlorobenzene-1-carbothioamide",
    "duplicated_cas_no": "",
    "SMILES": "C(N)(=S)C1=C(Cl)C=CC=C1Cl",
    "meta_data": {
        "InChI": "InChI=1S/C7H5Cl2NS/c8-4-2-1-3-5(9)6(4)7(10)11/h1-3H,(H2,10,11)",
        "InChIKey": null,
        "Canonical SMILES": "S=C(N)C=1C(Cl)=CC=CC1Cl",
        "Molecular Formula": "C<sub>7</sub>H<sub>5</sub>Cl<sub>2</sub>NS",
        "Molecular Mass": "206.09",
        "Melting Point": "151 °C"
    }
}