{
    "cas_no": "2369-37-1",
    "key_name": "1,2-Dibromo-4-fluorobenzene",
    "cn_name": "1,2-二溴-4-氟苯;1,2-二溴-4-氟代苯;",
    "alternate_name": "Benzene, 1,2-dibromo-4-fluoro-;1,2-Dibromo-4-fluorobenzene;3,4-Dibromofluorobenzene;3,4-Dibromo-1-fluorobenzene",
    "duplicated_cas_no": "",
    "SMILES": "BrC1=C(Br)C=CC(F)=C1",
    "meta_data": {
        "InChI": "InChI=1S/C6H3Br2F/c7-5-2-1-4(9)3-6(5)8/h1-3H",
        "InChIKey": null,
        "Canonical SMILES": "FC1=CC=C(Br)C(Br)=C1",
        "Molecular Formula": "C<sub>6</sub>H<sub>3</sub>Br<sub>2</sub>F",
        "Molecular Mass": "253.89",
        "Boiling Point": "87 °C @ Press: 13 Torr",
        "Melting Point": "69 °C"
    }
}