{
    "cas_no": "57-13-6",
    "key_name": "Urea",
    "cn_name": "尿素;碳酰二胺脲;涂硫尿素;",
    "alternate_name": "Urea;Carbamide;UR;Isourea;Carbamimidic acid;Carbonyl diamide;Urevert;Ureaphil;Ureophil;Pseudourea;B-I-K;Varioform II;Benural 70;Urepearl;Urea perhydrate;Urepeal;Keratinamin Kowa;Pastaron;Pastaron 20;Pastaron 20 soft;Urepeal L;Pastaron 10;Optigen 1200;Aquacare;Basodexan;Keratinamin;Aquadrate;Hyanit;Elaqua XX;Onychomal;Nutraplus;NSC 34375;Pastaron soft;Rubinol ST 010;Carmol 40;SGN 250;Uroderm;Ultra Low Biuret Urea;Low Biuret Urea;Duration III;ESN;Optigen II;Uria;Cellton NP;Cellpaste K 4;AUS 32;Onyster;AdBlue;U 6504;GS 013;HY 741;SP-AD 0052;MeSH ID: D014508;Urea, polymer with <em>N</em>′-(4-chlorophenyl)-<em>N</em>,<em>N</em>-dimethylurea;Monuron-urea polymer",
    "duplicated_cas_no": "30535-50-3;41488-96-4;118548-06-4;860639-56-1;923953-70-2;1202865-46-0;1228376-38-2;1262769-89-0;1637232-71-3;2060607-07-8;2417243-36-6;2694035-40-8",
    "SMILES": "C(N)(N)=O",
    "meta_data": {
        "InChI": "InChI=1S/CH4N2O/c2-1(3)4/h(H4,2,3,4)",
        "InChIKey": null,
        "Canonical SMILES": "O=C(N)N",
        "Molecular Formula": "CH<sub>4</sub>N<sub>2</sub>O",
        "Molecular Mass": "60.06",
        "Boiling Point": "317-389 °C",
        "Melting Point": "132.70 °C",
        "Density": "1.3230 g/cm³ @ Temp: 20 °C"
    }
}