{
    "cas_no": "1066-44-0",
    "key_name": "Bromotrimethylstannane",
    "cn_name": "三甲基溴化锡;",
    "alternate_name": "Stannane, bromotrimethyl-;Trimethyltin bromide;Tin, bromotrimethyl-;Bromotrimethylstannane;Bromotrimethyltin;Trimethylstannyl bromide;Trimethyltin monobromide",
    "duplicated_cas_no": "",
    "SMILES": "[Sn](Br)(C)(C)C",
    "meta_data": {
        "InChI": "InChI=1S/3CH3.BrH.Sn/h3*1H3;1H;/q;;;;+1/p-1",
        "InChIKey": null,
        "Canonical SMILES": "Br[Sn](C)(C)C",
        "Molecular Formula": "C<sub>3</sub>H<sub>9</sub>BrSn",
        "Molecular Mass": "243.72",
        "Boiling Point": "164 °C",
        "Melting Point": "26.5 °C"
    }
}