{
    "cas_no": "376-27-2",
    "key_name": "Methyl perfluorooctanoate",
    "cn_name": "全氟辛酸甲酯;十五氟辛酸甲酯;全氟辛酸甲酯;",
    "alternate_name": "Octanoic acid, 2,2,3,3,4,4,5,5,6,6,7,7,8,8,8-pentadecafluoro-, methyl ester;Octanoic acid, pentadecafluoro-, methyl ester;Methyl perfluorooctanoate;Methyl pentadecafluorooctanoate;Perfluorooctanoic acid methyl ester;P 1453",
    "duplicated_cas_no": "",
    "SMILES": "C(C(C(C(C(F)(F)F)(F)F)(F)F)(F)F)(C(C(C(OC)=O)(F)F)(F)F)(F)F",
    "meta_data": {
        "InChI": "InChI=1S/C9H3F15O2/c1-26-2(25)3(10,11)4(12,13)5(14,15)6(16,17)7(18,19)8(20,21)9(22,23)24/h1H3",
        "InChIKey": null,
        "Canonical SMILES": "O=C(OC)C(F)(F)C(F)(F)C(F)(F)C(F)(F)C(F)(F)C(F)(F)C(F)(F)F",
        "Molecular Formula": "C<sub>9</sub>H<sub>3</sub>F<sub>15</sub>O<sub>2</sub>",
        "Molecular Mass": "428.10",
        "Boiling Point": "158 °C"
    }
}