{
    "cas_no": "19094-48-5",
    "key_name": "3,5-Diiodobenzoic acid",
    "cn_name": "3,5-二碘苯甲酸;",
    "alternate_name": "Benzoic acid, 3,5-diiodo-;3,5-Diiodobenzoic acid;3,5-Diiodobenzoate;NSC 149429",
    "duplicated_cas_no": "",
    "SMILES": "C(O)(=O)C1=CC(I)=CC(I)=C1",
    "meta_data": {
        "InChI": "InChI=1S/C7H4I2O2/c8-5-1-4(7(10)11)2-6(9)3-5/h1-3H,(H,10,11)",
        "InChIKey": null,
        "Canonical SMILES": "O=C(O)C=1C=C(I)C=C(I)C1",
        "Molecular Formula": "C<sub>7</sub>H<sub>4</sub>I<sub>2</sub>O<sub>2</sub>",
        "Molecular Mass": "373.91",
        "Melting Point": "235 °C"
    }
}