{
    "cas_no": "37466-89-0",
    "key_name": "3-Methoxy-1,2-benzenediamine",
    "cn_name": null,
    "alternate_name": "1,2-Benzenediamine, 3-methoxy-;<em>o</em>-Phenylenediamine, 3-methoxy-;3-Methoxy-1,2-benzenediamine;1,2-Diamino-3-methoxybenzene;3-Methoxy-1,2-diaminobenzene;NSC 521887;2,3-Diaminoanisole;3-Methoxybenzene-1,2-diamine;3-Methoxy-1,2-phenylenediamine;2-Amino-3-methoxyaniline",
    "duplicated_cas_no": "",
    "SMILES": "O(C)C1=C(N)C(N)=CC=C1",
    "meta_data": {
        "InChI": "InChI=1S/C7H10N2O/c1-10-6-4-2-3-5(8)7(6)9/h2-4H,8-9H2,1H3",
        "InChIKey": null,
        "Canonical SMILES": "O(C1=CC=CC(N)=C1N)C",
        "Molecular Formula": "C<sub>7</sub>H<sub>10</sub>N<sub>2</sub>O",
        "Molecular Mass": "138.17",
        "Boiling Point": "114-116 °C @ Press: 0.5 Torr",
        "Melting Point": "39-40 °C"
    }
}