{
    "cas_no": "6089-04-9",
    "key_name": "Propargyl tetrahydropyranyl ether",
    "cn_name": "哌喃;",
    "alternate_name": "2<em>H</em>-Pyran, tetrahydro-2-(2-propyn-1-yloxy)-;2<em>H</em>-Pyran, tetrahydro-2-(2-propynyloxy)-;Pyran, tetrahydro-2-(2-propynyloxy)-;Tetrahydro-2-(2-propyn-1-yloxy)-2<em>H</em>-pyran;3-(Tetrahydropyran-2-yloxy)prop-1-yne;1-(2′-Tetrahydropyranyloxy)-2-propyne;Propargyl 2-tetrahydropyranyl ether;Tetrahydro-2-(2-propynyloxy)-2<em>H</em>-pyran;1-Tetrahydropyran-2-yloxy-2-propyne;2-(Propargyloxy)tetrahydropyran;3-(2′-Tetrahydropyranyloxy)propyne;3-(Tetrahydro-2-pyranyloxy)propyne;2-(2-Propynyloxy)tetrahydropyran;Propargyl alcohol tetrahydropyranyl ether;2-Propargyloxane;2-Propynyl tetrahydro-2-pyranyl ether;3-Tetrahydropyranyloxyprop-1-yne;1-(Tetrahydropyranyloxy)prop-2-yne;Propargyl tetrahydropyranyl ether;Tetrahydropyran-2-yloxypropyne;3-(Tetrahydropyranyloxy)propyne;Tetrahydro-2-(2-propynyloxy)pyran;(2-Propynyloxy)tetrahydropyran;<em>O</em>-Tetrahydropyranylpropargyl alcohol;3,4,5,6-Tetrahydro-2-(2-propynyloxy)-2<em>H</em>-pyran;2-(2-Propynyloxy)tetrahydro-2<em>H</em>-pyran;(±)-Tetrahydro-2-(2-propynyloxy)-2<em>H</em>-pyran;Tetrahydropyranyl propargyl ether;Propargyl (tetrahydro-2<em>H</em>-pyran-2-yl) ether;NSC 152714;2-Propynyl tetrahydro-2<em>H</em>-pyran-2-yl ether;2-Propynyl tetrahydropyran ether;3-[(Tetrahydro-2<em>H</em>-pyran-2-yl)oxy]-1-propyne;1-(Tetrahydro-2<em>H</em>-pyranyloxy)-2-propyne;2-(2-Propyn-1-yloxy)tetrahydro-2<em>H</em>-pyran;Oct-2-yne-1-ol;2-(Prop-2-yn-1-yloxy)oxane;2-Prop-2-ynoxyoxane;2-Prop-2-ynoxytetrahydropyran",
    "duplicated_cas_no": "69841-59-4",
    "SMILES": "O(CC#C)C1CCCCO1",
    "meta_data": {
        "InChI": "InChI=1S/C8H12O2/c1-2-6-9-8-5-3-4-7-10-8/h1,8H,3-7H2",
        "InChIKey": null,
        "Canonical SMILES": "C#CCOC1OCCCC1",
        "Molecular Formula": "C<sub>8</sub>H<sub>12</sub>O<sub>2</sub>",
        "Molecular Mass": "140.18",
        "Boiling Point": "78 °C @ Press: 25 Torr",
        "Density": "0.9965 g/cm³ @ Temp: 25 °C"
    }
}