{
    "cas_no": "33170-72-8",
    "key_name": "2-Bromo-1,1-dimethoxypropane",
    "cn_name": null,
    "alternate_name": "Propane, 2-bromo-1,1-dimethoxy-;Propionaldehyde, 2-bromo-, dimethyl acetal;2-Bromo-1,1-dimethoxypropane;2-Bromopropanal dimethyl acetal",
    "duplicated_cas_no": "",
    "SMILES": "C(C(Br)C)(OC)OC",
    "meta_data": {
        "InChI": "InChI=1S/C5H11BrO2/c1-4(6)5(7-2)8-3/h4-5H,1-3H3",
        "InChIKey": null,
        "Canonical SMILES": "BrC(C)C(OC)OC",
        "Molecular Formula": "C<sub>5</sub>H<sub>11</sub>BrO<sub>2</sub>",
        "Molecular Mass": "183.04",
        "Boiling Point": "52 °C @ Press: 12 Torr",
        "Density": "1.360 g/cm³ @ Temp: 20 °C"
    }
}