{
    "cas_no": "56621-99-9",
    "key_name": "<em>N</em><sup>2</sup>,<em>N</em><sup>2</sup>-Dimethyl-2,5-pyrimidinediamine",
    "cn_name": null,
    "alternate_name": "2,5-Pyrimidinediamine, <em>N</em><sup>2</sup>,<em>N</em><sup>2</sup>-dimethyl-;<em>N</em><sup>2</sup>,<em>N</em><sup>2</sup>-Dimethyl-2,5-pyrimidinediamine;2-(Dimethylamino)-5-pyrimidinamine;2-<em>N</em>,2-<em>N</em>-Dimethylpyrimidine-2,5-diamine",
    "duplicated_cas_no": "",
    "SMILES": "N(C)(C)C=1N=CC(N)=CN1",
    "meta_data": {
        "InChI": "InChI=1S/C6H10N4/c1-10(2)6-8-3-5(7)4-9-6/h3-4H,7H2,1-2H3",
        "InChIKey": null,
        "Canonical SMILES": "N=1C=C(N)C=NC1N(C)C",
        "Molecular Formula": "C<sub>6</sub>H<sub>10</sub>N<sub>4</sub>",
        "Molecular Mass": "138.17",
        "Melting Point": "83.0-83.5 °C"
    }
}