{
    "cas_no": "628-32-0",
    "key_name": "Ethyl propyl ether",
    "cn_name": null,
    "alternate_name": "Propane, 1-ethoxy-;Ether, ethyl propyl;1-Ethoxypropane;Ethyl propyl ether;Propyl ethyl ether;Ethyl <em>n</em>-propyl ether",
    "duplicated_cas_no": "",
    "SMILES": "C(OCC)CC",
    "meta_data": {
        "InChI": "InChI=1S/C5H12O/c1-3-5-6-4-2/h3-5H2,1-2H3",
        "InChIKey": null,
        "Canonical SMILES": "O(CC)CCC",
        "Molecular Formula": "C<sub>5</sub>H<sub>12</sub>O",
        "Molecular Mass": "88.15",
        "Boiling Point": "63.2 °C",
        "Melting Point": "-127.5 °C",
        "Density": "0.7330 g/cm³ @ Temp: 20 °C"
    }
}