{
    "cas_no": "6159-55-3",
    "key_name": "(-)-Vasicine",
    "cn_name": "骆驼蓬碱;",
    "alternate_name": "Pyrrolo[2,1-<em>b</em>]quinazolin-3-ol, 1,2,3,9-tetrahydro-, (3<em>S</em>)-;Pyrrolo[2,1-<em>b</em>]quinazolin-3-ol, 1,2,3,9-tetrahydro-, (<em>S</em>)-;Vasicine;(3<em>S</em>)-1,2,3,9-Tetrahydropyrrolo[2,1-<em>b</em>]quinazolin-3-ol;<em>l</em>-Peganine;Linarine, (-)-;Peganine;(-)-Peganine;Peganine, (-)-;<em>l</em>-Vasicine;(-)-Vasicine;(-)-Linarine;Peganin;(3S)-1,2,3,9-Tetrahydropyrrolo[2,1-<em>b</em>]quinazolin-3-ol",
    "duplicated_cas_no": "89-70-3",
    "SMILES": "O[C@@H]1C=2N(CC=3C(N2)=CC=CC3)CC1",
    "meta_data": {
        "InChI": "InChI=1S/C11H12N2O/c14-10-5-6-13-7-8-3-1-2-4-9(8)12-11(10)13/h1-4,10,14H,5-7H2/t10-/m0/s1",
        "InChIKey": null,
        "Canonical SMILES": "OC1C2=NC=3C=CC=CC3CN2CC1",
        "Molecular Formula": "C<sub>11</sub>H<sub>12</sub>N<sub>2</sub>O",
        "Molecular Mass": "188.23",
        "Melting Point": "190-191 °C (decomp)"
    }
}