{
    "cas_no": "1532-72-5",
    "key_name": "Isoquinoline <em>N</em>-oxide",
    "cn_name": "异喹啉-N-氧化物;异喹啉-N-氧化物;",
    "alternate_name": "Isoquinoline, 2-oxide;Isoquinoline <em>N</em>-oxide;Isoquinoline oxide;NSC 153684;2-Oxidoisoquinolin-2-ium",
    "duplicated_cas_no": "",
    "SMILES": "O=N1=CC2=C(C=C1)C=CC=C2",
    "meta_data": {
        "InChI": "InChI=1S/C9H7NO/c11-10-6-5-8-3-1-2-4-9(8)7-10/h1-7H",
        "InChIKey": null,
        "Canonical SMILES": "O=N=1C=CC=2C=CC=CC2C1",
        "Molecular Formula": "C<sub>9</sub>H<sub>7</sub>NO",
        "Molecular Mass": "145.16",
        "Boiling Point": "179 °C @ Press: 3 Torr",
        "Melting Point": "103-105 °C"
    }
}