{
    "cas_no": "2051-90-3",
    "key_name": "Dichlorodiphenylmethane",
    "cn_name": "二氯二苯甲烷;",
    "alternate_name": "Benzene, 1,1′-(dichloromethylene)bis-;Methane, dichlorodiphenyl-;1,1′-(Dichloromethylene)bis[benzene];Dichlorodiphenylmethane;Diphenyldichloromethane;Benzophenone dichloride;DPM (halocarbon);DPM;α,α-Dichlorodiphenylmethane;NSC 37425;[Dichloro(phenyl)methyl]benzene",
    "duplicated_cas_no": "",
    "SMILES": "C(Cl)(Cl)(C1=CC=CC=C1)C2=CC=CC=C2",
    "meta_data": {
        "InChI": "InChI=1S/C13H10Cl2/c14-13(15,11-7-3-1-4-8-11)12-9-5-2-6-10-12/h1-10H",
        "InChIKey": null,
        "Canonical SMILES": "ClC(Cl)(C=1C=CC=CC1)C=2C=CC=CC2",
        "Molecular Formula": "C<sub>13</sub>H<sub>10</sub>Cl<sub>2</sub>",
        "Molecular Mass": "237.12",
        "Boiling Point": "193 °C @ Press: 32 Torr",
        "Melting Point": "190 °C (decomp)",
        "Density": "1.243 g/cm³ @ Temp: 20 °C"
    }
}