{
    "cas_no": "4666-84-6",
    "key_name": "Cryptomeridiol",
    "cn_name": null,
    "alternate_name": "2-Naphthalenemethanol, decahydro-8-hydroxy-α,α,4a,8-tetramethyl-, (2<em>R</em>,4a<em>R</em>,8<em>R</em>,8a<em>R</em>)-;5β,7β<span class=\"text-smallcaps\">H</span>,10α-Eudesmane-4,11-diol;2-Naphthalenemethanol, decahydro-8-hydroxy-α,α,4a,8-tetramethyl-, [2<em>R</em>-(2α,4aα,8β,8aβ)]-;2-Naphthalenemethanol, 1,2β,3,4,4a,5,6,7,8,8aβ-decahydro-8β-hydroxy-α,α,4aα,8-tetramethyl-;(2<em>R</em>,4a<em>R</em>,8<em>R</em>,8a<em>R</em>)-Decahydro-8-hydroxy-α,α,4a,8-tetramethyl-2-naphthalenemethanol;Cryptomeridiol;Selina-4,7-diol;Proximadiol;Selinane-4α,11-diol",
    "duplicated_cas_no": "4735-12-0;55353-16-7;3034168-09-4",
    "SMILES": "C[C@]12[C@@](C[C@H](C(C)(C)O)CC1)([C@](C)(O)CCC2)[H]",
    "meta_data": {
        "InChI": "InChI=1S/C15H28O2/c1-13(2,16)11-6-9-14(3)7-5-8-15(4,17)12(14)10-11/h11-12,16-17H,5-10H2,1-4H3/t11-,12-,14-,15-/m1/s1",
        "InChIKey": null,
        "Canonical SMILES": "OC(C)(C)C1CCC2(C)CCCC(O)(C)C2C1",
        "Molecular Formula": "C<sub>15</sub>H<sub>28</sub>O<sub>2</sub>",
        "Molecular Mass": "240.38",
        "Melting Point": "137.5 °C"
    }
}