{
    "cas_no": "4663-97-2",
    "key_name": "2,6-Pyridinedicarboxamide",
    "cn_name": null,
    "alternate_name": "2,6-Pyridinedicarboxamide",
    "duplicated_cas_no": "",
    "SMILES": "C(N)(=O)C=1N=C(C(N)=O)C=CC1",
    "meta_data": {
        "InChI": "InChI=1S/C7H7N3O2/c8-6(11)4-2-1-3-5(10-4)7(9)12/h1-3H,(H2,8,11)(H2,9,12)",
        "InChIKey": null,
        "Canonical SMILES": "O=C(N)C=1N=C(C=CC1)C(=O)N",
        "Molecular Formula": "C<sub>7</sub>H<sub>7</sub>N<sub>3</sub>O<sub>2</sub>",
        "Molecular Mass": "165.15",
        "Melting Point": "295.5-297 °C"
    }
}