{
    "cas_no": "642-15-9",
    "key_name": "Butanoic acid, 2(<em>or</em> 3)-methyl-, (2<em>R</em>,3<em>S</em>,6<em>S</em>,7<em>R</em>,8<em>R</em>)-3-[[3-(formylamino)-2-hydroxybenzoyl]amino]-8-hexyl-2,6-dimethyl-4,9-dioxo-1,5-dioxonan-7-yl ester",
    "cn_name": null,
    "alternate_name": "Butanoic acid, 2(<em>or</em> 3)-methyl-, (2<em>R</em>,3<em>S</em>,6<em>S</em>,7<em>R</em>,8<em>R</em>)-3-[[3-(formylamino)-2-hydroxybenzoyl]amino]-8-hexyl-2,6-dimethyl-4,9-dioxo-1,5-dioxonan-7-yl ester;Butanoic acid, 2(<em>or</em> 3)-methyl-, 3-[[3-(formylamino)-2-hydroxybenzoyl]amino]-8-hexyl-2,6-dimethyl-4,9-dioxo-1,5-dioxonan-7-yl ester, [2<em>R</em>-(2<em>R</em>*,3<em>S</em>*,6<em>S</em>*,7<em>R</em>*,8<em>R</em>*)]-;Antimycin A<sub>1</sub>;1,5-Dioxonane, butanoic acid deriv.",
    "duplicated_cas_no": "27220-56-0;37341-24-5",
    "SMILES": "",
    "meta_data": {
        "InChI": "",
        "InChIKey": null,
        "Canonical SMILES": "",
        "Molecular Formula": "C<sub>28</sub>H<sub>40</sub>N<sub>2</sub>O<sub>9</sub>",
        "Molecular Mass": "",
        "Melting Point": "149.5 °C"
    }
}