{
    "cas_no": "34202-69-2",
    "key_name": "Hexafluoroacetone trihydrate",
    "cn_name": "三水六氟丙酮;全氟丙酮三水化合物;",
    "alternate_name": "2-Propanone, 1,1,1,3,3,3-hexafluoro-, hydrate (1:3);2-Propanone, 1,1,1,3,3,3-hexafluoro-, trihydrate;Hexafluoroacetone trihydrate",
    "duplicated_cas_no": "",
    "SMILES": "C(C(F)(F)F)(C(F)(F)F)=O.O",
    "meta_data": {
        "InChI": "InChI=1S/C3F6O.3H2O/c4-2(5,6)1(10)3(7,8)9;;;/h;3*1H2",
        "InChIKey": null,
        "Canonical SMILES": "O=C(C(F)(F)F)C(F)(F)F.O",
        "Molecular Formula": "C<sub>3</sub>F<sub>6</sub>O.3H<sub>2</sub>O",
        "Molecular Mass": "",
        "Melting Point": "18-21 °C"
    }
}