{
    "cas_no": "610-72-0",
    "key_name": "2,5-Dimethylbenzoic acid",
    "cn_name": "2,5-二甲基苯甲酸;",
    "alternate_name": "Benzoic acid, 2,5-dimethyl-;2,5-Dimethylbenzoic acid;Isoxylic acid;2-Carboxy-1,4-dimethylbenzene",
    "duplicated_cas_no": "",
    "SMILES": "C(O)(=O)C1=C(C)C=CC(C)=C1",
    "meta_data": {
        "InChI": "InChI=1S/C9H10O2/c1-6-3-4-7(2)8(5-6)9(10)11/h3-5H,1-2H3,(H,10,11)",
        "InChIKey": null,
        "Canonical SMILES": "O=C(O)C1=CC(=CC=C1C)C",
        "Molecular Formula": "C<sub>9</sub>H<sub>10</sub>O<sub>2</sub>",
        "Molecular Mass": "150.17",
        "Melting Point": "132 °C"
    }
}