{
    "cas_no": "104-55-2",
    "key_name": "Cinnamaldehyde",
    "cn_name": "肉桂醛;beta-苯丙烯醛;",
    "alternate_name": "2-Propenal, 3-phenyl-;Cinnamaldehyde;3-Phenyl-2-propenal;Cassia aldehyde;Cinnamal;Cinnamic aldehyde;Phenylacrolein;3-Phenylpropenal;3-Phenyl-2-propene-1-al;Cinnamyl aldehyde;3-Phenylacrolein;Benzylideneacetaldehyde;3-Phenyl-2-propenaldehyde;Zimtaldehyde;3-Phenyl-2-propen-1-al;3-Phenylacrylaldehyde;Abion CA;β-Phenylacrolein;Cinnamite;NSC 16935;NSC 40346;Cinnacure;XC 800",
    "duplicated_cas_no": "",
    "SMILES": "C(=CC=O)C1=CC=CC=C1",
    "meta_data": {
        "InChI": "InChI=1S/C9H8O/c10-8-4-7-9-5-2-1-3-6-9/h1-8H",
        "InChIKey": null,
        "Canonical SMILES": "O=CC=CC=1C=CC=CC1",
        "Molecular Formula": "C<sub>9</sub>H<sub>8</sub>O",
        "Molecular Mass": "132.16",
        "Boiling Point": "246 °C",
        "Melting Point": "-7.5 °C",
        "Density": "1.048-1.052 g/cm³ @ Temp: 25 °C"
    }
}