{
    "cas_no": "119-42-6",
    "key_name": "2-Cyclohexylphenol",
    "cn_name": "2-环己基苯酚;2-环己基苯酚;",
    "alternate_name": "Phenol, 2-cyclohexyl-;Phenol, <em>o</em>-cyclohexyl-;2-Cyclohexylphenol;<em>o</em>-Cyclohexylphenol;NSC 6093",
    "duplicated_cas_no": "",
    "SMILES": "OC1=C(C2CCCCC2)C=CC=C1",
    "meta_data": {
        "InChI": "InChI=1S/C12H16O/c13-12-9-5-4-8-11(12)10-6-2-1-3-7-10/h4-5,8-10,13H,1-3,6-7H2",
        "InChIKey": null,
        "Canonical SMILES": "OC=1C=CC=CC1C2CCCCC2",
        "Molecular Formula": "C<sub>12</sub>H<sub>16</sub>O",
        "Molecular Mass": "176.25",
        "Boiling Point": "153-154 °C @ Press: 22 Torr",
        "Melting Point": "66-67 °C"
    }
}