{
    "cas_no": "2106-49-2",
    "key_name": "1-Chloro-2-fluoro-3-nitrobenzene",
    "cn_name": "3-氯-2-氟硝基苯;",
    "alternate_name": "Benzene, 1-chloro-2-fluoro-3-nitro-;1-Chloro-2-fluoro-3-nitrobenzene;3-Chloro-2-fluoronitrobenzene;2-Fluoro-3-chloronitrobenzene;NSC 190665",
    "duplicated_cas_no": "",
    "SMILES": "N(=O)(=O)C1=C(F)C(Cl)=CC=C1",
    "meta_data": {
        "InChI": "InChI=1S/C6H3ClFNO2/c7-4-2-1-3-5(6(4)8)9(10)11/h1-3H",
        "InChIKey": null,
        "Canonical SMILES": "O=N(=O)C=1C=CC=C(Cl)C1F",
        "Molecular Formula": "C<sub>6</sub>H<sub>3</sub>ClFNO<sub>2</sub>",
        "Molecular Mass": "175.54",
        "Boiling Point": "106 °C @ Press: 5 Torr",
        "Melting Point": "5 °C"
    }
}