{
    "cas_no": "3351-28-8",
    "key_name": "1-Methylchrysene",
    "cn_name": null,
    "alternate_name": "Chrysene, 1-methyl-;1-Methylchrysene",
    "duplicated_cas_no": "",
    "SMILES": "CC1=C2C(C3=C(C=4C(C=C3)=CC=CC4)C=C2)=CC=C1",
    "meta_data": {
        "InChI": "InChI=1S/C19H14/c1-13-5-4-8-17-15(13)11-12-18-16-7-3-2-6-14(16)9-10-19(17)18/h2-12H,1H3",
        "InChIKey": null,
        "Canonical SMILES": "C=1C=CC2=C(C1)C=CC=3C=4C=CC=C(C4C=CC23)C",
        "Molecular Formula": "C<sub>19</sub>H<sub>14</sub>",
        "Molecular Mass": "242.31",
        "Melting Point": "256.5 °C"
    }
}