{
    "cas_no": "13814-97-6",
    "key_name": "Borate(1-), tetrafluoro-, tin(2+) (2:1)",
    "cn_name": "氟硼酸亚锡;",
    "alternate_name": "Borate(1-), tetrafluoro-, tin(2+) (2:1);Borate(1-), tetrafluoro-, tin(2+);Tin tetrafluoroborate;Tin fluoborate;Stannous fluoborate;Tin fluoroborate;Tin(II) fluoborate;Stannous tetrafluoroborate(1-);Tin tetrafluoroborate (Sn(BF<sub>4</sub>)<sub>2</sub>);Tin borofluoride;Tin(II) fluoroborate;Tin(II) tetrafluoroborate;Tin(2+) fluoroborate;Stannous fluoroborate [Sn(BF<sub>4</sub>)<sub>2</sub>];Stannous fluoroborate",
    "duplicated_cas_no": "14104-17-7",
    "SMILES": "[B+3]([F-])([F-])([F-])[F-].[Sn+2]",
    "meta_data": {
        "InChI": "InChI=1S/BF4.Sn/c2-1(3,4)5;/q-1;+2",
        "InChIKey": null,
        "Canonical SMILES": "[Sn+2].[F-][B+3]([F-])([F-])[F-]",
        "Molecular Formula": "BF<sub>4</sub>.<sup>1</sup>/<sub>2</sub>Sn",
        "Molecular Mass": "",
        "Melting Point": "&gt;130 °C (decomp)",
        "Density": "1.6 g/cm³"
    }
}