{
    "cas_no": "50924-49-7",
    "key_name": "Mizoribine",
    "cn_name": "咪唑立宾;5-羟基-1-beta-D-呋喃糖基-1H-咪唑-4-羧酰胺;",
    "alternate_name": "1<em>H</em>-Imidazole-4-carboxamide, 5-hydroxy-1-β-<span class=\"text-smallcaps\">D</span>-ribofuranosyl-;5-Hydroxy-1-β-<span class=\"text-smallcaps\">D</span>-ribofuranosyl-1<em>H</em>-imidazole-4-carboxamide;Bredinin;Mizoribine;β-Bredinin;HE 69;NSC 289637",
    "duplicated_cas_no": "55727-07-6",
    "SMILES": "O[C@H]1[C@@H](O[C@H](CO)[C@H]1O)N2C(O)=C(C(N)=O)N=C2",
    "meta_data": {
        "InChI": "InChI=1S/C9H13N3O6/c10-7(16)4-8(17)12(2-11-4)9-6(15)5(14)3(1-13)18-9/h2-3,5-6,9,13-15,17H,1H2,(H2,10,16)/t3-,5-,6-,9-/m1/s1",
        "InChIKey": null,
        "Canonical SMILES": "O=C(N)C=1N=CN(C1O)C2OC(CO)C(O)C2O",
        "Molecular Formula": "C<sub>9</sub>H<sub>13</sub>N<sub>3</sub>O<sub>6</sub>",
        "Molecular Mass": "259.22",
        "Melting Point": "&gt;200 °C (decomp)"
    }
}