{
    "cas_no": "6526-72-3",
    "key_name": "1-(1-Methylethyl)-2-nitrobenzene",
    "cn_name": "2-硝基枯烯;",
    "alternate_name": "Benzene, 1-(1-methylethyl)-2-nitro-;Cumene, <em>o</em>-nitro-;1-(1-Methylethyl)-2-nitrobenzene;<em>o</em>-Isopropylnitrobenzene;<em>o</em>-Nitrocumene;2-Nitroisopropylbenzene;1-Isopropyl-2-nitrobenzene;2-Isopropylnitrobenzene;2-Isopropyl-1-nitrobenzene;<em>o</em>-Nitroisopropylbenzene;1-Nitro-2-propan-2-ylbenzene;1-Nitro-2-(propan-2-yl)benzene",
    "duplicated_cas_no": "",
    "SMILES": "C(C)(C)C1=C(N(=O)=O)C=CC=C1",
    "meta_data": {
        "InChI": "InChI=1S/C9H11NO2/c1-7(2)8-5-3-4-6-9(8)10(11)12/h3-7H,1-2H3",
        "InChIKey": null,
        "Canonical SMILES": "O=N(=O)C=1C=CC=CC1C(C)C",
        "Molecular Formula": "C<sub>9</sub>H<sub>11</sub>NO<sub>2</sub>",
        "Molecular Mass": "165.19",
        "Boiling Point": "103 °C",
        "Melting Point": "-9.5 °C",
        "Density": "1.0848 g/cm³ @ Temp: 20 °C"
    }
}