{
    "cas_no": "10304-39-9",
    "key_name": "8-(<em>p</em>-Toluenesulfonylamino)quinoline",
    "cn_name": "8-(甲苯磺酰氨基)喹啉;",
    "alternate_name": "Benzenesulfonamide, 4-methyl-<em>N</em>-8-quinolinyl-;<em>p</em>-Toluenesulfonamide, <em>N</em>-8-quinolyl-;4-Methyl-<em>N</em>-8-quinolinylbenzenesulfonamide;8-(<em>p</em>-Tolylsulfonylamino)quinoline;8-(<em>p</em>-Tolylsulfonamido)quinoline;8-<em>p</em>-Tosylaminoquinoline;8-(<em>p</em>-Toluenesulfonylamino)quinoline;<em>N</em>-8-Quinolyl-<em>p</em>-toluenesulfonamide;4-Methyl-<em>N</em>-(8-quinolinyl)benzenesulfonamide;NSC 87883",
    "duplicated_cas_no": "",
    "SMILES": "N(S(=O)(=O)C1=CC=C(C)C=C1)C=2C3=C(C=CC2)C=CC=N3",
    "meta_data": {
        "InChI": "InChI=1S/C16H14N2O2S/c1-12-7-9-14(10-8-12)21(19,20)18-15-6-2-4-13-5-3-11-17-16(13)15/h2-11,18H,1H3",
        "InChIKey": null,
        "Canonical SMILES": "O=S(=O)(NC1=CC=CC2=CC=CN=C21)C3=CC=C(C=C3)C",
        "Molecular Formula": "C<sub>16</sub>H<sub>14</sub>N<sub>2</sub>O<sub>2</sub>S",
        "Molecular Mass": "298.36",
        "Melting Point": "154 °C"
    }
}