{
    "cas_no": "96-88-8",
    "key_name": "Mepivacaine",
    "cn_name": null,
    "alternate_name": "2-Piperidinecarboxamide, <em>N</em>-(2,6-dimethylphenyl)-1-methyl-;2′,6′-Pipecoloxylidide, 1-methyl-;<em>N</em>-(2,6-Dimethylphenyl)-1-methyl-2-piperidinecarboxamide;Carbocaine;Mepivacaine;Scandicain;Scandicaine;Carbocain;1-Methyl-2′,6′-pipecoloxylidide;<span class=\"text-smallcaps\">DL</span>-Mepivacaine;(±)-Mepivacaine;Mepicaine;Tevacaine;Carbocaine-V;MepiSV;APF 135;Scandinibsa;MeSH ID: D008619",
    "duplicated_cas_no": "22801-44-1",
    "SMILES": "N(C(=O)C1N(C)CCCC1)C2=C(C)C=CC=C2C",
    "meta_data": {
        "InChI": "InChI=1S/C15H22N2O/c1-11-7-6-8-12(2)14(11)16-15(18)13-9-4-5-10-17(13)3/h6-8,13H,4-5,9-10H2,1-3H3,(H,16,18)",
        "InChIKey": null,
        "Canonical SMILES": "O=C(NC=1C(=CC=CC1C)C)C2N(C)CCCC2",
        "Molecular Formula": "C<sub>15</sub>H<sub>22</sub>N<sub>2</sub>O",
        "Molecular Mass": "246.35",
        "Melting Point": "150.5 °C"
    }
}