{
    "cas_no": "872-50-4",
    "key_name": "<em>N</em>-Methyl-2-pyrrolidone",
    "cn_name": "N-甲基吡咯烷酮;1-甲基-2-吡咯烷酮;",
    "alternate_name": "2-Pyrrolidinone, 1-methyl-;2-Pyrrolidone, 1-methyl-;1-Methyl-2-pyrrolidinone;<em>N</em>-Methylpyrrolidinone;1-Methyl-5-pyrrolidinone;NMP;<em>N</em>-Methyl-2-pyrrolidone;<em>N</em>-Methyl-α-pyrrolidinone;<em>N</em>-Methyl-α-pyrrolidone;<em>N</em>-Methyl-γ-butyrolactam;<em>N</em>-Methyl-2-pyrrolidinone;N-Methylpyrrolidone;M-Pyrol;1-Methylazacyclopentan-2-one;1-Methyl-2-pyrrolidone;Pyrol M;<em>N</em>-Methylpyrrolidone;AgsolEx 1;N 0131;Microposit 2001;<em>N</em>-Methyl-2-ketopyrrolidine;<em>N</em>-Methylbutyrolactam;Pharmasolve;SL 1332;NSC 4594;<em>N</em>-Methylpyrrolidine-2-one;M 0418;EKOS 1;NMP 1165;LA 8E",
    "duplicated_cas_no": "26138-58-9;53774-35-9;57762-46-6",
    "SMILES": "O=C1N(C)CCC1",
    "meta_data": {
        "InChI": "InChI=1S/C5H9NO/c1-6-4-2-3-5(6)7/h2-4H2,1H3",
        "InChIKey": null,
        "Canonical SMILES": "O=C1N(C)CCC1",
        "Molecular Formula": "C<sub>5</sub>H<sub>9</sub>NO",
        "Molecular Mass": "99.13",
        "Boiling Point": "202 °C @ Press: 760 Torr",
        "Melting Point": "-25 °C",
        "Density": "1.027 g/cm³ @ Temp: 25 °C"
    }
}