{
    "cas_no": "20677-73-0",
    "key_name": "2,2-Diethoxy-<em>N</em>-methylethanamine",
    "cn_name": "2,2-二乙氧基-N-甲基乙胺;2-(甲氨基)-乙醛缩二乙醇;",
    "alternate_name": "Ethanamine, 2,2-diethoxy-<em>N</em>-methyl-;Acetaldehyde, (methylamino)-, diethyl acetal;Ethylamine, 2,2-diethoxy-<em>N</em>-methyl-;2,2-Diethoxy-<em>N</em>-methylethanamine;Methylaminoacetaldehyde diethyl acetal;2-(Methylamino)acetaldehyde diethyl acetal;2,2-Diethoxyethylmethylamine;<em>N</em>-Methylaminoacetaldehyde diethyl acetal;NSC 66542",
    "duplicated_cas_no": "",
    "SMILES": "C(CNC)(OCC)OCC",
    "meta_data": {
        "InChI": "InChI=1S/C7H17NO2/c1-4-9-7(6-8-3)10-5-2/h7-8H,4-6H2,1-3H3",
        "InChIKey": null,
        "Canonical SMILES": "O(CC)C(OCC)CNC",
        "Molecular Formula": "C<sub>7</sub>H<sub>17</sub>NO<sub>2</sub>",
        "Molecular Mass": "147.22",
        "Boiling Point": "164-166 °C @ Press: 750 Torr"
    }
}