{
    "cas_no": "93-10-7",
    "key_name": "Quinaldic acid",
    "cn_name": "喹哪啶酸;喹啉-2-甲酸;",
    "alternate_name": "2-Quinolinecarboxylic acid;Quinaldic acid;Quinaldinic acid;2-Carboxyquinoline;2-Quinolinylcarboxylic acid;NSC 4882;Quinolin-2-carboxylic acid;2-Quinolinic acid",
    "duplicated_cas_no": "1580002-30-7",
    "SMILES": "C(O)(=O)C1=NC2=C(C=C1)C=CC=C2",
    "meta_data": {
        "InChI": "InChI=1S/C10H7NO2/c12-10(13)9-6-5-7-3-1-2-4-8(7)11-9/h1-6H,(H,12,13)",
        "InChIKey": null,
        "Canonical SMILES": "O=C(O)C=1N=C2C=CC=CC2=CC1",
        "Molecular Formula": "C<sub>10</sub>H<sub>7</sub>NO<sub>2</sub>",
        "Molecular Mass": "173.17",
        "Melting Point": "156 °C"
    }
}