{
    "cas_no": "16596-41-1",
    "key_name": "1-Aminopyrrolidine",
    "cn_name": "N-氨基四氢吡咯;烷基肼;1-氨基四氢吡咯;N-氨基吡咯烷;N-氨基四氢吡咯;1-氨基吡咯烷;",
    "alternate_name": "1-Pyrrolidinamine;Pyrrolidine, 1-amino-;<em>N</em>-Aminopyrrolidine;1-Aminopyrrolidine;Pyrrolidylamine;NSC 80647;Pyrrolidin-1-ylamine",
    "duplicated_cas_no": "",
    "SMILES": "NN1CCCC1",
    "meta_data": {
        "InChI": "InChI=1S/C4H10N2/c5-6-3-1-2-4-6/h1-5H2",
        "InChIKey": null,
        "Canonical SMILES": "NN1CCCC1",
        "Molecular Formula": "C<sub>4</sub>H<sub>10</sub>N<sub>2</sub>",
        "Molecular Mass": "86.14",
        "Boiling Point": "53 °C @ Press: 40 Torr"
    }
}