{
    "cas_no": "106973-37-9",
    "key_name": "(3<em>S</em>)-5-Oxo-4-(phenylmethyl)-3-morpholinecarboxylic acid",
    "cn_name": null,
    "alternate_name": "3-Morpholinecarboxylic acid, 5-oxo-4-(phenylmethyl)-, (3<em>S</em>)-;3-Morpholinecarboxylic acid, 5-oxo-4-(phenylmethyl)-, (<em>S</em>)-;(3<em>S</em>)-5-Oxo-4-(phenylmethyl)-3-morpholinecarboxylic acid;(3<em>S</em>)-4-Benzyl-5-oxomorpholine-3-carboxylic acid;(3S)-4-Benzyl-5-oxomorpholine-3-carboxylic acid",
    "duplicated_cas_no": "",
    "SMILES": "C(N1[C@H](C(O)=O)COCC1=O)C2=CC=CC=C2",
    "meta_data": {
        "InChI": "InChI=1S/C12H13NO4/c14-11-8-17-7-10(12(15)16)13(11)6-9-4-2-1-3-5-9/h1-5,10H,6-8H2,(H,15,16)/t10-/m0/s1",
        "InChIKey": null,
        "Canonical SMILES": "O=C(O)C1N(C(=O)COC1)CC=2C=CC=CC2",
        "Molecular Formula": "C<sub>12</sub>H<sub>13</sub>NO<sub>4</sub>",
        "Molecular Mass": "235.24",
        "Melting Point": "179-180 °C"
    }
}