{
    "cas_no": "1463-10-1",
    "key_name": "5-Methyluridine",
    "cn_name": "5-甲基尿苷;5-甲基尿甙;5-甲基尿嘧啶核苷;",
    "alternate_name": "Uridine, 5-methyl-;5-Methyluridine;Ribothymidine;Thymine riboside;2,4(1<em>H</em>,3<em>H</em>)-Pyrimidinedione, 5-methyl-1-β-<span class=\"text-smallcaps\">D</span>-ribofuranosyl-;β-<span class=\"text-smallcaps\">D</span>-Ribofuranoside, thymine-1;1-β-<span class=\"text-smallcaps\">D</span>-Ribofuranosylthymine;1-[3,4-Dihydroxy-5-(hydroxymethyl)oxolan-2-yl]-5-methyl-1,3-dihydropyrimidine-2,4-dione;1-[3,4-Dihydroxy-5-(hydroxymethyl)tetrahydro-2-furanyl]-5-methyl-2,4(1<em>H</em>,3<em>H</em>)-pyrimidinedione;1-[3,4-Dihydroxy-5-(hydroxymethyl)oxolan-2-yl]-5-methylpyrimidine-2,4-dione;<em>ribo</em>-Thymidine",
    "duplicated_cas_no": "849658-09-9;1094602-20-6;1354050-91-1;1888395-33-2",
    "SMILES": "O[C@H]1[C@@H](O[C@H](CO)[C@H]1O)N2C(=O)NC(=O)C(C)=C2",
    "meta_data": {
        "InChI": "InChI=1S/C10H14N2O6/c1-4-2-12(10(17)11-8(4)16)9-7(15)6(14)5(3-13)18-9/h2,5-7,9,13-15H,3H2,1H3,(H,11,16,17)/t5-,6-,7-,9-/m1/s1",
        "InChIKey": null,
        "Canonical SMILES": "O=C1NC(=O)N(C=C1C)C2OC(CO)C(O)C2O",
        "Molecular Formula": "C<sub>10</sub>H<sub>14</sub>N<sub>2</sub>O<sub>6</sub>",
        "Molecular Mass": "258.23",
        "Melting Point": "183-185 °C"
    }
}