{
    "cas_no": "36556-06-6",
    "key_name": "5,6,7,8-Tetrahydroisoquinoline",
    "cn_name": "四氢异喹啉;5,6,7,8-四氢异喹啉;",
    "alternate_name": "Isoquinoline, 5,6,7,8-tetrahydro-;5,6,7,8-Tetrahydroisoquinoline",
    "duplicated_cas_no": "",
    "SMILES": "C1=2C(CCCC1)=CN=CC2",
    "meta_data": {
        "InChI": "InChI=1S/C9H11N/c1-2-4-9-7-10-6-5-8(9)3-1/h5-7H,1-4H2",
        "InChIKey": null,
        "Canonical SMILES": "N=1C=CC2=C(C1)CCCC2",
        "Molecular Formula": "C<sub>9</sub>H<sub>11</sub>N",
        "Molecular Mass": "133.19",
        "Boiling Point": "218 °C",
        "Melting Point": "146.5 °C",
        "Density": "1.03025 g/cm³ @ Temp: 29.15 °C"
    }
}