{
    "cas_no": "86831-54-1",
    "key_name": "Rhodiosin",
    "cn_name": "红景天素;",
    "alternate_name": "4<em>H</em>-1-Benzopyran-4-one, 7-[(6-deoxy-3-<em>O</em>-β-<span class=\"text-smallcaps\">D</smallcap>-glucopyranosyl-α-<smallcap>L</span>-mannopyranosyl)oxy]-3,5,8-trihydroxy-2-(4-hydroxyphenyl)-;7-[(6-Deoxy-3-<em>O</em>-β-<span class=\"text-smallcaps\">D</smallcap>-glucopyranosyl-α-<smallcap>L</span>-mannopyranosyl)oxy]-3,5,8-trihydroxy-2-(4-hydroxyphenyl)-4<em>H</em>-1-benzopyran-4-one;Rhodiosin;Herbacetin-7-<em>O</em>-β-<span class=\"text-smallcaps\">D</smallcap>-glucopyranosyl(1→3)-α-<smallcap>L</span>-rhamnopyranoside;Herbacetin-7-<em>O</em>-(3′′-<em>O</em>-β-<span class=\"text-smallcaps\">D</smallcap>-glucopyranoside)-α-<smallcap>L</span>-rhamnopyranoside",
    "duplicated_cas_no": "",
    "SMILES": "OC1=C2C(C(=O)C(O)=C(O2)C3=CC=C(O)C=C3)=C(O)C=C1O[C@H]4[C@H](O)[C@H](O[C@@H]5O[C@H](CO)[C@@H](O)[C@H](O)[C@H]5O)[C@@H](O)[C@H](C)O4",
    "meta_data": {
        "InChI": "InChI=1S/C27H30O16/c1-8-15(31)25(43-26-21(37)19(35)16(32)13(7-28)41-26)22(38)27(39-8)40-12-6-11(30)14-18(34)20(36)23(42-24(14)17(12)33)9-2-4-10(29)5-3-9/h2-6,8,13,15-16,19,21-22,25-33,35-38H,7H2,1H3/t8-,13+,15-,16+,19-,21+,22+,25+,26-,27-/m0/s1",
        "InChIKey": null,
        "Canonical SMILES": "O=C1C(O)=C(OC2=C(O)C(OC3OC(C)C(O)C(OC4OC(CO)C(O)C(O)C4O)C3O)=CC(O)=C12)C=5C=CC(O)=CC5",
        "Molecular Formula": "C<sub>27</sub>H<sub>30</sub>O<sub>16</sub>",
        "Molecular Mass": "610.52",
        "Melting Point": "195-199 °C"
    }
}