{
    "cas_no": "2556-10-7",
    "key_name": "[2-(1-Ethoxyethoxy)ethyl]benzene",
    "cn_name": "风信子素;",
    "alternate_name": "Benzene, [2-(1-ethoxyethoxy)ethyl]-;Acetaldehyde, ethyl phenethyl acetal;Ethane, 1-ethoxy-1-(phenethyloxy)-;[2-(1-Ethoxyethoxy)ethyl]benzene;Acetaldehyde ethyl 2-phenylethyl acetal;1-Ethoxy-1-(2′-phenylethoxy)ethane;Efetaal;1-(2-((1-(Ethyloxy)ethyl)oxy)ethyl)benzene",
    "duplicated_cas_no": "",
    "SMILES": "C(COC(OCC)C)C1=CC=CC=C1",
    "meta_data": {
        "InChI": "InChI=1S/C12H18O2/c1-3-13-11(2)14-10-9-12-7-5-4-6-8-12/h4-8,11H,3,9-10H2,1-2H3",
        "InChIKey": null,
        "Canonical SMILES": "O(CC)C(OCCC=1C=CC=CC1)C",
        "Molecular Formula": "C<sub>12</sub>H<sub>18</sub>O<sub>2</sub>",
        "Molecular Mass": "194.27",
        "Boiling Point": "67-70 °C @ Press: 7 Torr"
    }
}