{
    "cas_no": "1908-87-8",
    "key_name": "3-Methyl-2-thiazolidinethione",
    "cn_name": "3-甲基四氢噻唑-2-硫酮;3-甲基四氢噻唑-2-硫酮;",
    "alternate_name": "2-Thiazolidinethione, 3-methyl-;3-Methyl-2-thiazolidinethione;<em>N</em>-Methyl-2-thiazolidinethione;Vulkacit CRV;3-Methyl-1,3-thiazolidine-2-thione;NSC 122616;Rhenogran MTT 80;Rhenocure CRV;MTT 80;MTT;Rhenocure CRV/LG",
    "duplicated_cas_no": "1227299-62-8",
    "SMILES": "S=C1N(C)CCS1",
    "meta_data": {
        "InChI": "InChI=1S/C4H7NS2/c1-5-2-3-7-4(5)6/h2-3H2,1H3",
        "InChIKey": null,
        "Canonical SMILES": "S=C1SCCN1C",
        "Molecular Formula": "C<sub>4</sub>H<sub>7</sub>NS<sub>2</sub>",
        "Molecular Mass": "133.24",
        "Boiling Point": "90-100 °C @ Press: 10-14 Torr",
        "Melting Point": "68-69 °C"
    }
}