{
    "cas_no": "4519-40-8",
    "key_name": "2,3-Difluoroaniline",
    "cn_name": "2,3-二氟苯胺;",
    "alternate_name": "Benzenamine, 2,3-difluoro-;Aniline, 2,3-difluoro-;2,3-Difluorobenzenamine;2,3-Difluoroaniline;2,3-Difluorophenylamine",
    "duplicated_cas_no": "",
    "SMILES": "FC1=C(F)C=CC=C1N",
    "meta_data": {
        "InChI": "InChI=1S/C6H5F2N/c7-4-2-1-3-5(9)6(4)8/h1-3H,9H2",
        "InChIKey": null,
        "Canonical SMILES": "FC1=CC=CC(N)=C1F",
        "Molecular Formula": "C<sub>6</sub>H<sub>5</sub>F<sub>2</sub>N",
        "Molecular Mass": "129.11",
        "Boiling Point": "69 °C @ Press: 12 Torr"
    }
}