{
    "cas_no": "17253-11-1",
    "key_name": "2,3-Dihydro-1,4-benzodioxin-6-acetic acid",
    "cn_name": null,
    "alternate_name": "1,4-Benzodioxin-6-acetic acid, 2,3-dihydro-;1,4-Benzodioxan-6-acetic acid;2,3-Dihydro-1,4-benzodioxin-6-acetic acid;(Benzodioxan-6-yl)acetic acid;(2,3-Dihydrobenzo[1,4]dioxin-6-yl)acetic acid;2-(2,3-Dihydrobenzo[<em>b</em>][1,4]dioxin-6-yl)acetic acid",
    "duplicated_cas_no": "",
    "SMILES": "C(C(O)=O)C=1C=C2C(=CC1)OCCO2",
    "meta_data": {
        "InChI": "InChI=1S/C10H10O4/c11-10(12)6-7-1-2-8-9(5-7)14-4-3-13-8/h1-2,5H,3-4,6H2,(H,11,12)",
        "InChIKey": null,
        "Canonical SMILES": "O=C(O)CC1=CC=C2OCCOC2=C1",
        "Molecular Formula": "C<sub>10</sub>H<sub>10</sub>O<sub>4</sub>",
        "Molecular Mass": "194.18",
        "Melting Point": "76 °C"
    }
}