{
    "cas_no": "142-72-3",
    "key_name": "Magnesium acetate",
    "cn_name": "乙酸镁;醋酸镁;",
    "alternate_name": "Acetic acid, magnesium salt (2:1);Magnesium acetate;Acetic acid, magnesium salt;Cromosan;Magnesium diacetate;Magnesium acetate, Mg(OAc)<sub>2</sub>",
    "duplicated_cas_no": "873963-51-0",
    "SMILES": "C(C)(O)=O.[Mg]",
    "meta_data": {
        "InChI": "InChI=1S/C2H4O2.Mg/c1-2(3)4;/h1H3,(H,3,4);",
        "InChIKey": null,
        "Canonical SMILES": "[Mg].O=C(O)C",
        "Molecular Formula": "C<sub>2</sub>H<sub>4</sub>O<sub>2</sub>.<sup>1</sup>/<sub>2</sub>Mg",
        "Molecular Mass": "",
        "Melting Point": "323 °C",
        "Density": "1.42 g/cm³"
    }
}