{
    "cas_no": "2460-58-4",
    "key_name": "2-Hydroxy-4-nitrobenzaldehyde",
    "cn_name": null,
    "alternate_name": "Benzaldehyde, 2-hydroxy-4-nitro-;Salicylaldehyde, 4-nitro-;2-Hydroxy-4-nitrobenzaldehyde;4-Nitrosalicylaldehyde;NSC 82622",
    "duplicated_cas_no": "",
    "SMILES": "N(=O)(=O)C1=CC(O)=C(C=O)C=C1",
    "meta_data": {
        "InChI": "InChI=1S/C7H5NO4/c9-4-5-1-2-6(8(11)12)3-7(5)10/h1-4,10H",
        "InChIKey": null,
        "Canonical SMILES": "O=CC1=CC=C(C=C1O)N(=O)=O",
        "Molecular Formula": "C<sub>7</sub>H<sub>5</sub>NO<sub>4</sub>",
        "Molecular Mass": "167.12",
        "Melting Point": "133-134 °C"
    }
}