{
    "cas_no": "1031-07-8",
    "key_name": "Endosulfan sulfate",
    "cn_name": null,
    "alternate_name": "6,9-Methano-2,4,3-benzodioxathiepin, 6,7,8,9,10,10-hexachloro-1,5,5a,6,9,9a-hexahydro-, 3,3-dioxide;5-Norbornene-2,3-dimethanol, 1,4,5,6,7,7-hexachloro-, cyclic sulfate;Endosulfan sulfate;1,4,5,6,7,7-Hexachloro-5-norbornene-2,3-dimethanol cyclic sulfate;6,7,8,9,10,10-Hexachloro-1,5,5a,6,9,9a-hexahydro-6,9-methano-2,4,3-benzodioxathiepin 3,6-dioxide;Thiodan sulfate;Benzoepin sulfate;Endosulfan cyclic sulfate;Endosulfan III;Endosulfate;6,7,8,9,10,10-Hexachloro-1,5,5a,6,9,9a-hexahydro-6,9-methano-2,4,3-benzodioxathiepin 3,3-dioxide",
    "duplicated_cas_no": "6749-25-3;87695-43-0",
    "SMILES": "ClC12C3C(C(Cl)(C1(Cl)Cl)C(Cl)=C2Cl)COS(=O)(=O)OC3",
    "meta_data": {
        "InChI": "InChI=1S/C9H6Cl6O4S/c10-5-6(11)8(13)4-2-19-20(16,17)18-1-3(4)7(5,12)9(8,14)15/h3-4H,1-2H2",
        "InChIKey": null,
        "Canonical SMILES": "O=S1(=O)OCC2C(CO1)C3(Cl)C(Cl)=C(Cl)C2(Cl)C3(Cl)Cl",
        "Molecular Formula": "C<sub>9</sub>H<sub>6</sub>Cl<sub>6</sub>O<sub>4</sub>S",
        "Molecular Mass": "422.92",
        "Melting Point": "181-182 °C"
    }
}