{
    "cas_no": "4099-85-8",
    "key_name": "Methyl 2,3-<em>O</em>-(1-methylethylidene)-β-<span class=\"text-smallcaps\">D</span>-ribofuranoside",
    "cn_name": "甲基-2,3-O-异亚丙基-beta-D-呋喃核糖苷;",
    "alternate_name": "β-<span class=\"text-smallcaps\">D</span>-Ribofuranoside, methyl 2,3-<em>O</em>-(1-methylethylidene)-;Ribofuranoside, methyl 2,3-<em>O</em>-isopropylidene-, β-<span class=\"text-smallcaps\">D</span>-;Ribofuranoside, methyl 2,3-<em>O</em>-isopropylidene-;Furo[3,4-<em>d</em>]-1,3-dioxole, β-<span class=\"text-smallcaps\">D</span>-ribofuranoside deriv.;Methyl 2,3-<em>O</em>-(1-methylethylidene)-β-<span class=\"text-smallcaps\">D</span>-ribofuranoside;Methyl 2,3-<em>O</em>-isopropylidene-β-<span class=\"text-smallcaps\">D</span>-ribofuranoside;NSC 85191",
    "duplicated_cas_no": "828937-29-7;1187321-56-7;1227182-31-1",
    "SMILES": "C(O)[C@@H]1[C@@]2([C@]([C@H](OC)O1)(OC(C)(C)O2)[H])[H]",
    "meta_data": {
        "InChI": "InChI=1S/C9H16O5/c1-9(2)13-6-5(4-10)12-8(11-3)7(6)14-9/h5-8,10H,4H2,1-3H3/t5-,6-,7-,8-/m1/s1",
        "InChIKey": null,
        "Canonical SMILES": "OCC1OC(OC)C2OC(OC12)(C)C",
        "Molecular Formula": "C<sub>9</sub>H<sub>16</sub>O<sub>5</sub>",
        "Molecular Mass": "204.22",
        "Boiling Point": "92-94 °C @ Press: 0.08 Torr"
    }
}