{
    "cas_no": "450412-22-3",
    "key_name": "1-Bromo-2-iodo-3-methoxybenzene",
    "cn_name": null,
    "alternate_name": "Benzene, 1-bromo-2-iodo-3-methoxy-;1-Bromo-2-iodo-3-methoxybenzene;2-Iodo-3-bromoanisole;3-Bromo-2-iodoanisole",
    "duplicated_cas_no": "",
    "SMILES": "O(C)C1=C(I)C(Br)=CC=C1",
    "meta_data": {
        "InChI": "InChI=1S/C7H6BrIO/c1-10-6-4-2-3-5(8)7(6)9/h2-4H,1H3",
        "InChIKey": null,
        "Canonical SMILES": "BrC1=CC=CC(OC)=C1I",
        "Molecular Formula": "C<sub>7</sub>H<sub>6</sub>BrIO",
        "Molecular Mass": "312.93",
        "Melting Point": "63-65 °C"
    }
}