{
    "cas_no": "50548-43-1",
    "key_name": "4-Dibenzofuranamine",
    "cn_name": null,
    "alternate_name": "4-Dibenzofuranamine;4-Aminodibenzofuran",
    "duplicated_cas_no": "",
    "SMILES": "NC1=C2C(C=3C(O2)=CC=CC3)=CC=C1",
    "meta_data": {
        "InChI": "InChI=1S/C12H9NO/c13-10-6-3-5-9-8-4-1-2-7-11(8)14-12(9)10/h1-7H,13H2",
        "InChIKey": null,
        "Canonical SMILES": "O1C=2C=CC=CC2C=3C=CC=C(N)C13",
        "Molecular Formula": "C<sub>12</sub>H<sub>9</sub>NO",
        "Molecular Mass": "183.21",
        "Melting Point": "84.5-85.5 °C"
    }
}