{
    "cas_no": "70735-79-4",
    "key_name": "4-Acetyl-2(3<em>H</em>)-benzoxazolone",
    "cn_name": null,
    "alternate_name": "2(3<em>H</em>)-Benzoxazolone, 4-acetyl-;2-Benzoxazolinone, 4-acetyl-;4-Acetyl-2(3<em>H</em>)-benzoxazolone;1-(2-Hydroxy-1,3-benzoxazol-4-yl)ethan-1-one",
    "duplicated_cas_no": "",
    "SMILES": "C(C)(=O)C1=C2C(OC(=O)N2)=CC=C1",
    "meta_data": {
        "InChI": "InChI=1S/C9H7NO3/c1-5(11)6-3-2-4-7-8(6)10-9(12)13-7/h2-4H,1H3,(H,10,12)",
        "InChIKey": null,
        "Canonical SMILES": "O=C1OC2=CC=CC(C(=O)C)=C2N1",
        "Molecular Formula": "C<sub>9</sub>H<sub>7</sub>NO<sub>3</sub>",
        "Molecular Mass": "177.16",
        "Melting Point": "203-204 °C"
    }
}