{
    "cas_no": "16715-79-0",
    "key_name": "<em>N</em>-(2,4-Dimethoxyphenyl)-3-oxobutanamide",
    "cn_name": "2,4-二甲氧基乙酰乙酰替苯胺;",
    "alternate_name": "Butanamide, <em>N</em>-(2,4-dimethoxyphenyl)-3-oxo-;Acetoacetanilide, 2′,4′-dimethoxy-;<em>N</em>-(2,4-Dimethoxyphenyl)-3-oxobutanamide;2′,4′-Dimethoxyacetoacetanilide;NSC 50633",
    "duplicated_cas_no": "",
    "SMILES": "N(C(CC(C)=O)=O)C1=C(OC)C=C(OC)C=C1",
    "meta_data": {
        "InChI": "InChI=1S/C12H15NO4/c1-8(14)6-12(15)13-10-5-4-9(16-2)7-11(10)17-3/h4-5,7H,6H2,1-3H3,(H,13,15)",
        "InChIKey": null,
        "Canonical SMILES": "O=C(NC1=CC=C(OC)C=C1OC)CC(=O)C",
        "Molecular Formula": "C<sub>12</sub>H<sub>15</sub>NO<sub>4</sub>",
        "Molecular Mass": "237.25",
        "Melting Point": "92-94 °C"
    }
}