{
    "cas_no": "2754-32-7",
    "key_name": "1,1′-(1,4-Phenylene)bis[1,1-dimethylsilanol]",
    "cn_name": "1,4-双(二甲基羟基硅基)苯;",
    "alternate_name": "Silanol, 1,1′-(1,4-phenylene)bis[1,1-dimethyl-;Silanol, <em>p</em>-phenylenebis[dimethyl-;Silanol, 1,4-phenylenebis[dimethyl-;1,1′-(1,4-Phenylene)bis[1,1-dimethylsilanol];<em>p</em>-Bis(dimethylhydroxysilyl)benzene;1,4-Bis(dimethylhydroxysilyl)benzene;1,4-Bis(hydroxydimethylsilyl)benzene;<em>p</em>-Phenylenebis(dimethylsilanol);<em>p</em>-Bis(hydroxydimethylsilyl)benzene;1,4-Di(dimethylhydroxysilyl)benzene;NSC 83943;1,4-Phenylenebis(dimethylsilanol);PH 1 (silane);PH 1",
    "duplicated_cas_no": "",
    "SMILES": "[Si](C)(C)(O)C1=CC=C([Si](C)(C)O)C=C1",
    "meta_data": {
        "InChI": "InChI=1S/C10H18O2Si2/c1-13(2,11)9-5-7-10(8-6-9)14(3,4)12/h5-8,11-12H,1-4H3",
        "InChIKey": null,
        "Canonical SMILES": "O[Si](C1=CC=C(C=C1)[Si](O)(C)C)(C)C",
        "Molecular Formula": "C<sub>10</sub>H<sub>18</sub>O<sub>2</sub>Si<sub>2</sub>",
        "Molecular Mass": "226.42",
        "Melting Point": "135 °C"
    }
}