{
    "cas_no": "65262-96-6",
    "key_name": "3-Chloro-5-methoxyphenol",
    "cn_name": null,
    "alternate_name": "Phenol, 3-chloro-5-methoxy-;3-Chloro-5-methoxyphenol",
    "duplicated_cas_no": "",
    "SMILES": "O(C)C1=CC(Cl)=CC(O)=C1",
    "meta_data": {
        "InChI": "InChI=1S/C7H7ClO2/c1-10-7-3-5(8)2-6(9)4-7/h2-4,9H,1H3",
        "InChIKey": null,
        "Canonical SMILES": "ClC=1C=C(O)C=C(OC)C1",
        "Molecular Formula": "C<sub>7</sub>H<sub>7</sub>ClO<sub>2</sub>",
        "Molecular Mass": "158.58",
        "Melting Point": "99 °C"
    }
}