{
    "cas_no": "3724-65-0",
    "key_name": "Crotonic acid",
    "cn_name": "巴豆酸;2-丁烯酸;",
    "alternate_name": "2-Butenoic acid;Crotonic acid;α-Butenoic acid;3-Methylacrylic acid;NSC 206946;MeSH ID: D003437",
    "duplicated_cas_no": "15105-17-6",
    "SMILES": "C(C(O)=O)=CC",
    "meta_data": {
        "InChI": "InChI=1S/C4H6O2/c1-2-3-4(5)6/h2-3H,1H3,(H,5,6)",
        "InChIKey": null,
        "Canonical SMILES": "O=C(O)C=CC",
        "Molecular Formula": "C<sub>4</sub>H<sub>6</sub>O<sub>2</sub>",
        "Molecular Mass": "86.09",
        "Boiling Point": "185 °C",
        "Melting Point": "72 °C",
        "Density": "1.018 g/cm³ @ Temp: 15 °C"
    }
}