{
    "cas_no": "2475-44-7",
    "key_name": "Disperse Blue 14",
    "cn_name": "分散蓝14;1,4-二(甲氨基)蒽醌;",
    "alternate_name": "9,10-Anthracenedione, 1,4-bis(methylamino)-;Anthraquinone, 1,4-bis(methylamino)-;1,4-Bis(methylamino)-9,10-anthracenedione;C.I. 61500;Acetate Blue B;Artisil Blue BRP;1,4-Bis(methylamino)anthraquinone;Celliton Fast Blue B;Cibacet Blue BR;Cilla Fast Blue B;C.I. Disperse Blue 14;Duranol Brilliant Blue G;Serisol Brilliant Blue G;Supracet Fast Blue 2G;Disperse Blue 14;C.I. Disperse Blue 110;Setacyl Blue BS;1,4-Bis-<em>N</em>-methylamino-9,10-anthraquinone;Resiren Blue TB;C.I. Disperse Blue 78;1,4-Bis(methylamino)-9,10-anthraquinone;Macrolex Blue FR;C.I. Solvent Blue 93;C.I. Solvent Blue 78;Solvent Blue 93;Disperse Blue 78;Disperse Blue 110;Solvent Blue 78;Diaresin Blue K;Sumiplast Blue GP;Plast Blue 8516;Intratherm Blue P 1404;NSC 86161;Disperse Blue B;KP Plast Blue G",
    "duplicated_cas_no": "12223-05-1;78170-41-9;86003-54-5;95567-19-4;225794-61-6;1191271-75-6",
    "SMILES": "O=C1C=2C(C(=O)C=3C1=CC=CC3)=C(NC)C=CC2NC",
    "meta_data": {
        "InChI": "InChI=1S/C16H14N2O2/c1-17-11-7-8-12(18-2)14-13(11)15(19)9-5-3-4-6-10(9)16(14)20/h3-8,17-18H,1-2H3",
        "InChIKey": null,
        "Canonical SMILES": "O=C1C=2C=CC=CC2C(=O)C=3C(=CC=C(NC)C13)NC",
        "Molecular Formula": "C<sub>16</sub>H<sub>14</sub>N<sub>2</sub>O<sub>2</sub>",
        "Molecular Mass": "266.29",
        "Melting Point": "220 °C"
    }
}