{
    "cas_no": "37721-75-8",
    "key_name": "2,3,5,6-Tetrabromo-4-methylphenol",
    "cn_name": "2,3,5,6-四溴-4-甲基苯酚;",
    "alternate_name": "Phenol, 2,3,5,6-tetrabromo-4-methyl-;2,3,5,6-Tetrabromo-4-methylphenol;2,3,5,6-Tetrabromo-<em>p</em>-cresol;4-Methyl-2,3,5,6-tetrabromophenol;Tetrabromo-<em>p</em>-cresol",
    "duplicated_cas_no": "",
    "SMILES": "BrC1=C(Br)C(O)=C(Br)C(Br)=C1C",
    "meta_data": {
        "InChI": "InChI=1S/C7H4Br4O/c1-2-3(8)5(10)7(12)6(11)4(2)9/h12H,1H3",
        "InChIKey": null,
        "Canonical SMILES": "BrC=1C(Br)=C(C(Br)=C(Br)C1O)C",
        "Molecular Formula": "C<sub>7</sub>H<sub>4</sub>Br<sub>4</sub>O",
        "Molecular Mass": "423.72",
        "Melting Point": "209 °C"
    }
}