{
    "cas_no": "877-09-8",
    "key_name": "Tetrachloro-<em>m</em>-xylene",
    "cn_name": null,
    "alternate_name": "Benzene, 1,2,3,5-tetrachloro-4,6-dimethyl-;<em>m</em>-Xylene, 2,4,5,6-tetrachloro-;<em>m</em>-Xylene, tetrachloro-;1,2,3,5-Tetrachloro-4,6-dimethylbenzene;Tetrachloro-<em>m</em>-xylene;2,4,5,6-Tetrachloro-<em>m</em>-xylene;2,4,5,6-Tetrachloro-m-xylene;2,4,5,6-Tetrachloroxylene;TCMX;1,2,3,5-Tetrachloroxylene",
    "duplicated_cas_no": "",
    "SMILES": "CC1=C(Cl)C(C)=C(Cl)C(Cl)=C1Cl",
    "meta_data": {
        "InChI": "InChI=1S/C8H6Cl4/c1-3-5(9)4(2)7(11)8(12)6(3)10/h1-2H3",
        "InChIKey": null,
        "Canonical SMILES": "ClC=1C(Cl)=C(C(Cl)=C(C1Cl)C)C",
        "Molecular Formula": "C<sub>8</sub>H<sub>6</sub>Cl<sub>4</sub>",
        "Molecular Mass": "243.95",
        "Melting Point": "223 °C"
    }
}