{
    "cas_no": "192441-08-0",
    "key_name": "Lomeguatrib",
    "cn_name": "罗米鲁曲;洛美呱曲;2-氨基-6-[(4-溴-2-噻吩基)甲氧基]-9H-嘌呤;",
    "alternate_name": "9<em>H</em>-Purin-2-amine, 6-[(4-bromo-2-thienyl)methoxy]-;1<em>H</em>-Purin-2-amine, 6-[(4-bromo-2-thienyl)methoxy]-;6-[(4-Bromo-2-thienyl)methoxy]-9<em>H</em>-purin-2-amine;Lomeguatrib;2-Amino-6-(4-bromothiophen-2-ylmethoxy)-9<em>H</em>-purine;PaTrin 2",
    "duplicated_cas_no": "793035-44-6",
    "SMILES": "O(CC1=CC(Br)=CS1)C2=C3C(=NC(N)=N2)N=CN3",
    "meta_data": {
        "InChI": "InChI=1S/C10H8BrN5OS/c11-5-1-6(18-3-5)2-17-9-7-8(14-4-13-7)15-10(12)16-9/h1,3-4H,2H2,(H3,12,13,14,15,16)",
        "InChIKey": null,
        "Canonical SMILES": "BrC1=CSC(=C1)COC2=NC(=NC=3N=CNC32)N",
        "Molecular Formula": "C<sub>10</sub>H<sub>8</sub>BrN<sub>5</sub>OS",
        "Molecular Mass": "326.17",
        "Melting Point": "212-214 °C"
    }
}