{
    "cas_no": "5025-82-1",
    "key_name": "<em>N</em>-Acetyl-4-thiazolidinecarboxylic acid",
    "cn_name": "半叶素;N-乙酰硫代脯氨酸;3-乙酰基噻唑烷-4-羧酸;",
    "alternate_name": "4-Thiazolidinecarboxylic acid, 3-acetyl-;3-Acetyl-4-thiazolidinecarboxylic acid;<em>N</em>-Acetyl-4-thiazolidinecarboxylic acid;Aminofol;ATCA;NSC 146111;<em>N</em>-Acetyl-1,3-thiazolidine-4-carboxylic acid;Fantac;Fantac Plus;3-Acetyl-1,3-thiazolidine-4-carboxylic acid",
    "duplicated_cas_no": "118014-14-5",
    "SMILES": "C(O)(=O)C1N(C(C)=O)CSC1",
    "meta_data": {
        "InChI": "InChI=1S/C6H9NO3S/c1-4(8)7-3-11-2-5(7)6(9)10/h5H,2-3H2,1H3,(H,9,10)",
        "InChIKey": null,
        "Canonical SMILES": "O=C(O)C1N(C(=O)C)CSC1",
        "Molecular Formula": "C<sub>6</sub>H<sub>9</sub>NO<sub>3</sub>S",
        "Molecular Mass": "175.21",
        "Melting Point": "146-148 °C"
    }
}