{
    "cas_no": "1534-27-6",
    "key_name": "3-Dodecanone",
    "cn_name": "3-十二酮;",
    "alternate_name": "3-Dodecanone;Ethyl nonyl ketone;NSC 158522",
    "duplicated_cas_no": "",
    "SMILES": "C(CCCCCCCC)C(CC)=O",
    "meta_data": {
        "InChI": "InChI=1S/C12H24O/c1-3-5-6-7-8-9-10-11-12(13)4-2/h3-11H2,1-2H3",
        "InChIKey": null,
        "Canonical SMILES": "O=C(CC)CCCCCCCCC",
        "Molecular Formula": "C<sub>12</sub>H<sub>24</sub>O",
        "Molecular Mass": "184.32",
        "Boiling Point": "129-130 °C @ Press: 18 Torr",
        "Melting Point": "18-19 °C"
    }
}