{
    "cas_no": "32981-86-5",
    "key_name": "10-Deacetylbaccatin III",
    "cn_name": "10-脱乙酰基巴卡丁III;10-去乙酰基巴卡亭;",
    "alternate_name": "7,11-Methano-5<em>H</em>-cyclodeca[3,4]benz[1,2-<em>b</em>]oxet-5-one, 12b-(acetyloxy)-12-(benzoyloxy)-1,2a,3,4,4a,6,9,10,11,12,12a,12b-dodecahydro-4,6,9,11-tetrahydroxy-4a,8,13,13-tetramethyl-, (2a<em>R</em>,4<em>S</em>,4a<em>S</em>,6<em>R</em>,9<em>S</em>,11<em>S</em>,12<em>S</em>,12a<em>R</em>,12b<em>S</em>)-;Tax-11-en-9-one, 5β,20-epoxy-1,2α,4,7β,10β,13α-hexahydroxy-, 4-acetate 2-benzoate;7,11-Methano-5<em>H</em>-cyclodeca[3,4]benz[1,2-<em>b</em>]oxet-5-one, 12b-(acetyloxy)-12-(benzoyloxy)-1,2a,3,4,4a,6,9,10,11,12,12a,12b-dodecahydro-4,6,9,11-tetrahydroxy-4a,8,13,13-tetramethyl-, [2<em>aR</em>-(2aα,4β,4aβ,6β,9α,11α,12α,12aα,12bα)]-;(2a<em>R</em>,4<em>S</em>,4a<em>S</em>,6<em>R</em>,9<em>S</em>,11<em>S</em>,12<em>S</em>,12a<em>R</em>,12b<em>S</em>)-12b-(Acetyloxy)-12-(benzoyloxy)-1,2a,3,4,4a,6,9,10,11,12,12a,12b-dodecahydro-4,6,9,11-tetrahydroxy-4a,8,13,13-tetramethyl-7,11-methano-5<em>H</em>-cyclodeca[3,4]benz[1,2-<em>b</em>]oxet-5-one;10-Deacetylbaccatin III;10-Desacetylbaccatin III;NSC 251677;10β-Deacetylbaccatin III;10-Deacetylbaccatin",
    "duplicated_cas_no": "115509-92-7",
    "SMILES": "O(C(C)=O)[C@]12[C@]3([C@H](OC(=O)C4=CC=CC=C4)[C@@]5(O)C(C)(C)C([C@@H](O)C(=O)[C@]3(C)[C@@H](O)C[C@]1(OC2)[H])=C(C)[C@@H](O)C5)[H]",
    "meta_data": {
        "InChI": "InChI=1S/C29H36O10/c1-14-17(31)12-29(36)24(38-25(35)16-9-7-6-8-10-16)22-27(5,23(34)21(33)20(14)26(29,3)4)18(32)11-19-28(22,13-37-19)39-15(2)30/h6-10,17-19,21-22,24,31-33,36H,11-13H2,1-5H3/t17-,18-,19+,21+,22-,24-,27+,28-,29+/m0/s1",
        "InChIKey": null,
        "Canonical SMILES": "O=C(OC1C2C3(OC(=O)C)COC3CC(O)C2(C(=O)C(O)C4=C(C)C(O)CC1(O)C4(C)C)C)C=5C=CC=CC5",
        "Molecular Formula": "C<sub>29</sub>H<sub>36</sub>O<sub>10</sub>",
        "Molecular Mass": "544.59",
        "Melting Point": "221-223 °C"
    }
}