{
    "cas_no": "20451-53-0",
    "key_name": "(Ethenylsulfinyl)benzene",
    "cn_name": "苯基乙烯亚砜;",
    "alternate_name": "Benzene, (ethenylsulfinyl)-;Sulfoxide, phenyl vinyl;(Ethenylsulfinyl)benzene;Phenyl vinyl sulfoxide;Vinyl phenyl sulfoxide;(±)-Phenyl vinyl sulfoxide;(Vinylsulfinyl)benzene;Ethenyl phenyl sulfoxide",
    "duplicated_cas_no": "88180-53-4",
    "SMILES": "S(C=C)(=O)C1=CC=CC=C1",
    "meta_data": {
        "InChI": "InChI=1S/C8H8OS/c1-2-10(9)8-6-4-3-5-7-8/h2-7H,1H2",
        "InChIKey": null,
        "Canonical SMILES": "O=S(C=C)C=1C=CC=CC1",
        "Molecular Formula": "C<sub>8</sub>H<sub>8</sub>OS",
        "Molecular Mass": "152.21",
        "Boiling Point": "93-95 °C @ Press: 0.2 Torr",
        "Melting Point": "100-102 °C",
        "Density": "1.1629 g/cm³ @ Temp: 20 °C"
    }
}