{
    "cas_no": "3875-78-3",
    "key_name": "6-Bromochroman",
    "cn_name": null,
    "alternate_name": "2<em>H</em>-1-Benzopyran, 6-bromo-3,4-dihydro-;Chroman, 6-bromo-;6-Bromo-3,4-dihydro-2<em>H</em>-1-benzopyran;6-Bromochroman;6-Bromochromane",
    "duplicated_cas_no": "",
    "SMILES": "BrC=1C=C2C(=CC1)OCCC2",
    "meta_data": {
        "InChI": "InChI=1S/C9H9BrO/c10-8-3-4-9-7(6-8)2-1-5-11-9/h3-4,6H,1-2,5H2",
        "InChIKey": null,
        "Canonical SMILES": "BrC1=CC=C2OCCCC2=C1",
        "Molecular Formula": "C<sub>9</sub>H<sub>9</sub>BrO",
        "Molecular Mass": "213.07",
        "Boiling Point": "143-144 °C @ Press: 18 Torr",
        "Density": "1.465 g/cm³ @ Temp: 25 °C"
    }
}