{
    "cas_no": "538-39-6",
    "key_name": "1,2-Bis(4-methylphenyl)ethane",
    "cn_name": "1,2-二对甲苯基乙烷;",
    "alternate_name": "Benzene, 1,1′-(1,2-ethanediyl)bis[4-methyl-;Bibenzyl, 4,4′-dimethyl-;1,1′-(1,2-Ethanediyl)bis[4-methylbenzene];<em>p</em>,<em>p</em>′-Dimethylbibenzyl;4,4′-Dimethylbibenzyl;4,4′-Dimethyldibenzyl;<em>sym</em>-Di-<em>p</em>-tolylethane;α,β-Di-<em>p</em>-tolylethane;1,2-Di-<em>p</em>-tolylethane;1,2-Di(<em>p</em>-methylphenyl)ethane;1,2-Bis(<em>p</em>-methylphenyl)ethane;1,2-Bis(4-methylphenyl)ethane;1-Methyl-4-[2-(4-methylphenyl)ethyl]benzene",
    "duplicated_cas_no": "",
    "SMILES": "C(CC1=CC=C(C)C=C1)C2=CC=C(C)C=C2",
    "meta_data": {
        "InChI": "InChI=1S/C16H18/c1-13-3-7-15(8-4-13)11-12-16-9-5-14(2)6-10-16/h3-10H,11-12H2,1-2H3",
        "InChIKey": null,
        "Canonical SMILES": "C=1C=C(C=CC1C)CCC2=CC=C(C=C2)C",
        "Molecular Formula": "C<sub>16</sub>H<sub>18</sub>",
        "Molecular Mass": "210.31",
        "Boiling Point": "170-180 °C @ Press: 15 Torr",
        "Melting Point": "85 °C"
    }
}