{
    "cas_no": "55234-58-7",
    "key_name": "3-Amino-2-pyridinecarboxaldehyde",
    "cn_name": null,
    "alternate_name": "2-Pyridinecarboxaldehyde, 3-amino-;Picolinaldehyde, 3-amino-;3-Amino-2-pyridinecarboxaldehyde;3-Aminopicolinaldehyde;3-Aminopyridine-2-carbaldehyde;3-Amino-pyridine-2-carbaldehyde",
    "duplicated_cas_no": "",
    "SMILES": "C(=O)C1=C(N)C=CC=N1",
    "meta_data": {
        "InChI": "InChI=1S/C6H6N2O/c7-5-2-1-3-8-6(5)4-9/h1-4H,7H2",
        "InChIKey": null,
        "Canonical SMILES": "O=CC1=NC=CC=C1N",
        "Molecular Formula": "C<sub>6</sub>H<sub>6</sub>N<sub>2</sub>O",
        "Molecular Mass": "122.12",
        "Melting Point": "134 °C"
    }
}