{
    "cas_no": "7203-96-5",
    "key_name": "Thiocaprolactam",
    "cn_name": "epsilon-硫代己内酰胺;",
    "alternate_name": "2<em>H</em>-Azepine-2-thione, hexahydro-;Hexahydro-2<em>H</em>-azepine-2-thione;Thiocaprolactam;ε-Caprothiolactam;ω-Thiocaprolactam;ε-Thiocaprolactam;1-Aza-2-cycloheptanethione;Perhydroazepine-2-thione;NSC 14023;Azepane-2-thione",
    "duplicated_cas_no": "",
    "SMILES": "S=C1CCCCCN1",
    "meta_data": {
        "InChI": "InChI=1S/C6H11NS/c8-6-4-2-1-3-5-7-6/h1-5H2,(H,7,8)",
        "InChIKey": null,
        "Canonical SMILES": "S=C1NCCCCC1",
        "Molecular Formula": "C<sub>6</sub>H<sub>11</sub>NS",
        "Molecular Mass": "129.22",
        "Boiling Point": "188-190 °C @ Press: 18 Torr",
        "Melting Point": "107-110 °C"
    }
}