{
    "cas_no": "18635-45-5",
    "key_name": "Alanine, 3-amino-, hydrobromide (1:1)",
    "cn_name": null,
    "alternate_name": "Alanine, 3-amino-, hydrobromide (1:1);Propionic acid, 2,3-diamino-, monohydrobromide, <span class=\"text-smallcaps\">D</smallcap><smallcap>L</span>-;<span class=\"text-smallcaps\">D</smallcap><smallcap>L</span>-Alanine, 3-amino-, monohydrobromide;Alanine, 3-amino-, monohydrobromide;<span class=\"text-smallcaps\">DL</span>-2,3-Diaminopropanoic acid hydrobromide;(±)-2,3-Diaminopropionic acid hydrobromide;2,3-Diaminopropanoic acid hydrobromide",
    "duplicated_cas_no": "61049-68-1",
    "SMILES": "C(C(O)=O)(CN)N.Br",
    "meta_data": {
        "InChI": "InChI=1S/C3H8N2O2.BrH/c4-1-2(5)3(6)7;/h2H,1,4-5H2,(H,6,7);1H",
        "InChIKey": null,
        "Canonical SMILES": "Br.O=C(O)C(N)CN",
        "Molecular Formula": "C<sub>3</sub>H<sub>8</sub>N<sub>2</sub>O<sub>2</sub>.BrH",
        "Molecular Mass": "",
        "Melting Point": "&gt;236 °C (decomp)"
    }
}