{
    "cas_no": "3034-52-4",
    "key_name": "2-Chlorothiazole",
    "cn_name": "2-氯噻唑;",
    "alternate_name": "Thiazole, 2-chloro-;2-Chlorothiazole;2-Chloro-1,3-thiazole;NSC 43543",
    "duplicated_cas_no": "",
    "SMILES": "ClC1=NC=CS1",
    "meta_data": {
        "InChI": "InChI=1S/C3H2ClNS/c4-3-5-1-2-6-3/h1-2H",
        "InChIKey": null,
        "Canonical SMILES": "ClC1=NC=CS1",
        "Molecular Formula": "C<sub>3</sub>H<sub>2</sub>ClNS",
        "Molecular Mass": "119.57",
        "Boiling Point": "34.0-34.5 °C @ Press: 10 Torr",
        "Melting Point": "85 °C",
        "Density": "1.3782 g/cm³ @ Temp: 20 °C"
    }
}