{
    "cas_no": "20407-84-5",
    "key_name": "(<em>E</em>)-2-Dodecenal",
    "cn_name": null,
    "alternate_name": "2-Dodecenal, (2<em>E</em>)-;2-Dodecenal, (<em>E</em>)-;(2<em>E</em>)-2-Dodecenal;2-<em>trans</em>-Dodecenal;<em>trans</em>-2-Dodecenal;(<em>E</em>)-2-Dodecenal;<em>trans</em>-2-Dodecen-1-al;(<em>E</em>)-2-Dodecen-1-al;(E)-2-Dodecenal",
    "duplicated_cas_no": "",
    "SMILES": "C(CCCCCC)CC/C=C/C=O",
    "meta_data": {
        "InChI": "InChI=1S/C12H22O/c1-2-3-4-5-6-7-8-9-10-11-12-13/h10-12H,2-9H2,1H3/b11-10+",
        "InChIKey": null,
        "Canonical SMILES": "O=CC=CCCCCCCCCC",
        "Molecular Formula": "C<sub>12</sub>H<sub>22</sub>O",
        "Molecular Mass": "182.30",
        "Boiling Point": "73-74 °C @ Press: 0.5 Torr",
        "Density": "0.837 g/cm³ @ Temp: 20 °C; Press: 760 Torr"
    }
}