{
    "cas_no": "53312-77-9",
    "key_name": "2-Amino-3-chlorobenzonitrile",
    "cn_name": "2-氨基-3-氯氰苯;",
    "alternate_name": "Benzonitrile, 2-amino-3-chloro-;2-Amino-3-chlorobenzonitrile;2-Chloro-6-cyanoaniline;3-Chloro-2-aminobenzonitrile;2-Cyano-6-chloroaniline",
    "duplicated_cas_no": "",
    "SMILES": "C(#N)C1=C(N)C(Cl)=CC=C1",
    "meta_data": {
        "InChI": "InChI=1S/C7H5ClN2/c8-6-3-1-2-5(4-9)7(6)10/h1-3H,10H2",
        "InChIKey": null,
        "Canonical SMILES": "N#CC=1C=CC=C(Cl)C1N",
        "Molecular Formula": "C<sub>7</sub>H<sub>5</sub>ClN<sub>2</sub>",
        "Molecular Mass": "152.58",
        "Melting Point": "94-96 °C"
    }
}