{
    "cas_no": "4299-07-4",
    "key_name": "<em>N</em>-Butyl-1,2-benzisothiazolin-3-one",
    "cn_name": "2-丁基-1,2-苯并异噻唑啉-3-酮;",
    "alternate_name": "1,2-Benzisothiazol-3(2<em>H</em>)-one, 2-butyl-;1,2-Benzisothiazolin-3-one, 2-butyl-;2-Butyl-1,2-benzisothiazol-3(2<em>H</em>)-one;Densil DN;<em>N</em>-Butylbenzisothiazolin-3-one;Vanquish 100;Proxel XL 2S;2-Butyl-2,3-dihydrobenzisothiazol-3-one;<em>N</em>-Butyl-1,2-benzisothiazolin-3-one;BBIT;<em>N</em>-<em>n</em>-Butyl-1,2-benzisothiazolin-3-one;2-Butylbenzo[<em>d</em>]isothiazol-3(2<em>H</em>)-one;2-<em>n</em>-Butylbenzisothiazolin-3-one;2-Butyl-1,2-benzisothiazolin-3-one",
    "duplicated_cas_no": "",
    "SMILES": "O=C1C=2C(SN1CCCC)=CC=CC2",
    "meta_data": {
        "InChI": "InChI=1S/C11H13NOS/c1-2-3-8-12-11(13)9-6-4-5-7-10(9)14-12/h4-7H,2-3,8H2,1H3",
        "InChIKey": null,
        "Canonical SMILES": "O=C1C=2C=CC=CC2SN1CCCC",
        "Molecular Formula": "C<sub>11</sub>H<sub>13</sub>NOS",
        "Molecular Mass": "207.29",
        "Boiling Point": "180 °C",
        "Melting Point": "137-138 °C"
    }
}