{
    "cas_no": "658-28-6",
    "key_name": "1-Fluoro-3-(methylthio)benzene",
    "cn_name": "3-氟茴香硫醚;间氟茴香硫醚;",
    "alternate_name": "Benzene, 1-fluoro-3-(methylthio)-;Sulfide, <em>m</em>-fluorophenyl methyl;1-Fluoro-3-(methylthio)benzene;<em>m</em>-Fluorophenyl methyl sulfide;3-Fluorophenyl methyl sulfide;3-Fluorothioanisole;1-Fluoro-3-(methylsulfanyl)benzene;1-Fluoro-3-methylsulfanylbenzene",
    "duplicated_cas_no": "",
    "SMILES": "S(C)C1=CC(F)=CC=C1",
    "meta_data": {
        "InChI": "InChI=1S/C7H7FS/c1-9-7-4-2-3-6(8)5-7/h2-5H,1H3",
        "InChIKey": null,
        "Canonical SMILES": "FC1=CC=CC(SC)=C1",
        "Molecular Formula": "C<sub>7</sub>H<sub>7</sub>FS",
        "Molecular Mass": "142.19",
        "Boiling Point": "70-71 °C @ Press: 13 Torr"
    }
}