{
    "cas_no": "83881-51-0",
    "key_name": "Cetirizine",
    "cn_name": "西替利嗪;2-[2-[4-[(4-氯苯基)苯甲基]-1-哌嗪基]乙氧基]乙酸;",
    "alternate_name": "Acetic acid, 2-[2-[4-[(4-chlorophenyl)phenylmethyl]-1-piperazinyl]ethoxy]-;Acetic acid, [2-[4-[(4-chlorophenyl)phenylmethyl]-1-piperazinyl]ethoxy]-;2-[2-[4-[(4-Chlorophenyl)phenylmethyl]-1-piperazinyl]ethoxy]acetic acid;Cetirizine;(±)-Cetirizine;Cetirizin-Teva;Piriteze;Rigix;Allamine;Cetrin;Zetrinal;(2-[4-[(4-Chloro-phenyl)-phenyl-methyl]-piperazin-1-yl]-ethoxy)-acetic acid;MeSH ID: D017332",
    "duplicated_cas_no": "130018-86-9",
    "SMILES": "C(N1CCN(CCOCC(O)=O)CC1)(C2=CC=C(Cl)C=C2)C3=CC=CC=C3",
    "meta_data": {
        "InChI": "InChI=1S/C21H25ClN2O3/c22-19-8-6-18(7-9-19)21(17-4-2-1-3-5-17)24-12-10-23(11-13-24)14-15-27-16-20(25)26/h1-9,21H,10-16H2,(H,25,26)",
        "InChIKey": null,
        "Canonical SMILES": "O=C(O)COCCN1CCN(CC1)C(C=2C=CC=CC2)C3=CC=C(Cl)C=C3",
        "Molecular Formula": "C<sub>21</sub>H<sub>25</sub>ClN<sub>2</sub>O<sub>3</sub>",
        "Molecular Mass": "388.89",
        "Melting Point": "112.5 °C"
    }
}