{
    "cas_no": "7492-66-2",
    "key_name": "Citral diethyl acetal",
    "cn_name": "1,1-二乙氧基-3,7-二甲基-2,6-辛二烯;柠檬醛二乙醇缩醛;",
    "alternate_name": "2,6-Octadiene, 1,1-diethoxy-3,7-dimethyl-;2,6-Octadienal, 3,7-dimethyl-, diethyl acetal;Citral diethyl acetal;1,1-Diethoxy-3,7-dimethyl-2,6-octadiene;1,1-Diethoxy-3,7-dimethylocta-2,6-diene;Citrathal R",
    "duplicated_cas_no": "",
    "SMILES": "C(C=C(CCC=C(C)C)C)(OCC)OCC",
    "meta_data": {
        "InChI": "InChI=1S/C14H26O2/c1-6-15-14(16-7-2)11-13(5)10-8-9-12(3)4/h9,11,14H,6-8,10H2,1-5H3",
        "InChIKey": null,
        "Canonical SMILES": "O(CC)C(OCC)C=C(C)CCC=C(C)C",
        "Molecular Formula": "C<sub>14</sub>H<sub>26</sub>O<sub>2</sub>",
        "Molecular Mass": "226.35",
        "Boiling Point": "117-118 °C @ Press: 10 Torr",
        "Density": "0.8730 g/cm³ @ Temp: 20 °C"
    }
}