{
    "cas_no": "474-67-9",
    "key_name": "Brassicasterol",
    "cn_name": "菜籽甾醇;",
    "alternate_name": "Ergosta-5,22-dien-3-ol, (3β,22<em>E</em>)-;Brassicasterol;Ergosta-5,22-dien-3β-ol;(3β,22<em>E</em>)-Ergosta-5,22-dien-3-ol;Brassicasterin;24(<em>R</em>)-Methylcholesta-5,22<em>E</em>-dien-3β-ol;Δ<sup>5,22</sup>-Ergostadien-3β-ol;Δ<sup>5,22</sup>-Ergostadienol;Ergosta-5,22(<em>E</em>)-dien-3β-ol;24-Methylcholesta-5,22-dien-3β-ol;(22<em>E</em>,24<em>R</em>)-Ergosta-5,22-dien-3β-ol",
    "duplicated_cas_no": "23399-28-2;168982-50-1",
    "SMILES": "C[C@@]12[C@]([C@]3([C@@]([C@]4(C)C(=CC3)C[C@@H](O)CC4)(CC1)[H])[H])(CC[C@@]2([C@@H](/C=C/[C@@H](C(C)C)C)C)[H])[H]",
    "meta_data": {
        "InChI": "InChI=1S/C28H46O/c1-18(2)19(3)7-8-20(4)24-11-12-25-23-10-9-21-17-22(29)13-15-27(21,5)26(23)14-16-28(24,25)6/h7-9,18-20,22-26,29H,10-17H2,1-6H3/b8-7+/t19-,20+,22-,23-,24+,25-,26-,27-,28+/m0/s1",
        "InChIKey": null,
        "Canonical SMILES": "OC1CC2=CCC3C(CCC4(C)C(CCC34)C(C=CC(C)C(C)C)C)C2(C)CC1",
        "Molecular Formula": "C<sub>28</sub>H<sub>46</sub>O",
        "Molecular Mass": "398.66",
        "Melting Point": "205-213 °C"
    }
}