{
    "cas_no": "112281-77-3",
    "key_name": "Tetraconazole",
    "cn_name": "氟醚唑;(±)-2-(2，4-二氟苯基)-3-(1H-1，2，4-三唑-1-基)丙基1，1，2，2-四氟乙基醚；四氟醚唑;",
    "alternate_name": "1<em>H</em>-1,2,4-Triazole, 1-[2-(2,4-dichlorophenyl)-3-(1,1,2,2-tetrafluoroethoxy)propyl]-;1<em>H</em>-1,2,4-Triazole, 1-[2-(2,4-dichlorophenyl)-3-(1,1,2,2-tetrafluoroethoxy)propyl]-, (±)-;1-[2-(2,4-Dichlorophenyl)-3-(1,1,2,2-tetrafluoroethoxy)propyl]-1<em>H</em>-1,2,4-triazole;Tetraconazole;M 14360;Eminent;AG 4454;Domark;Greman;Salvatore ME;Emerald;Perissim",
    "duplicated_cas_no": "119615-64-4;124842-94-0;1135441-20-1",
    "SMILES": "C(CN1C=NC=N1)(COC(C(F)F)(F)F)C2=C(Cl)C=C(Cl)C=C2",
    "meta_data": {
        "InChI": "InChI=1S/C13H11Cl2F4N3O/c14-9-1-2-10(11(15)3-9)8(4-22-7-20-6-21-22)5-23-13(18,19)12(16)17/h1-3,6-8,12H,4-5H2",
        "InChIKey": null,
        "Canonical SMILES": "FC(F)C(F)(F)OCC(C1=CC=C(Cl)C=C1Cl)CN2N=CN=C2",
        "Molecular Formula": "C<sub>13</sub>H<sub>11</sub>Cl<sub>2</sub>F<sub>4</sub>N<sub>3</sub>O",
        "Molecular Mass": "372.15",
        "Melting Point": "6 °C"
    }
}