{
    "cas_no": "23983-43-9",
    "key_name": "Dehydroepiandrosterone enanthate",
    "cn_name": "普拉雄酮庚酸酯;去氢表雄酮庚酸酯;脱氢表雄酮庚酸酯;",
    "alternate_name": "Androst-5-en-17-one, 3-[(1-oxoheptyl)oxy]-, (3β)-;Androst-5-en-17-one, 3β-hydroxy-, heptanoate;Heptanoic acid, ester with 3β-hydroxyandrost-5-en-17-one;(3β)-3-[(1-Oxoheptyl)oxy]androst-5-en-17-one;Dehydroepiandrosterone enanthate;3β-Heptanoyloxy-5-androsten-17-one;Dehydroepiandrosterone oenanthate;Prasterone enanthate",
    "duplicated_cas_no": "",
    "SMILES": "C[C@@]12[C@@]3([C@]([C@]4([C@](C)(CC3)C(=O)CC4)[H])(CC=C1C[C@@H](OC(CCCCCC)=O)CC2)[H])[H]",
    "meta_data": {
        "InChI": "InChI=1S/C26H40O3/c1-4-5-6-7-8-24(28)29-19-13-15-25(2)18(17-19)9-10-20-21-11-12-23(27)26(21,3)16-14-22(20)25/h9,19-22H,4-8,10-17H2,1-3H3/t19-,20-,21-,22-,25-,26-/m0/s1",
        "InChIKey": null,
        "Canonical SMILES": "O=C(OC1CC2=CCC3C4CCC(=O)C4(C)CCC3C2(C)CC1)CCCCCC",
        "Molecular Formula": "C<sub>26</sub>H<sub>40</sub>O<sub>3</sub>",
        "Molecular Mass": "400.59",
        "Melting Point": "69-70 °C"
    }
}