{
    "cas_no": "80473-92-3",
    "key_name": "6α,9α-Difluoro-11β,17α-dihydroxy-16α-methyl-3-oxoandrosta-1,4-diene-17β-carbothioic acid",
    "cn_name": "(6A,11B,16A,17A)-6,9-二氟-11,17-二羟基-16-甲基-3-氧代雄甾-1,4-二烯-17-硫代羧酸;",
    "alternate_name": "Androsta-1,4-diene-17-carbothioic acid, 6,9-difluoro-11,17-dihydroxy-16-methyl-3-oxo-, (6α,11β,16α,17α)-;(6α,11β,16α,17α)-6,9-Difluoro-11,17-dihydroxy-16-methyl-3-oxoandrosta-1,4-diene-17-carbothioic acid;6α,9α-Difluoro-11β,17α-dihydroxy-16α-methyl-3-oxoandrosta-1,4-diene-17β-carbothioic acid",
    "duplicated_cas_no": "",
    "SMILES": "C[C@@]12[C@]([C@]3([C@](F)([C@@H](O)C1)[C@]4(C)C([C@@H](F)C3)=CC(=O)C=C4)[H])(C[C@@H](C)[C@@]2(C(=O)S)O)[H]",
    "meta_data": {
        "InChI": "InChI=1S/C21H26F2O4S/c1-10-6-12-13-8-15(22)14-7-11(24)4-5-18(14,2)20(13,23)16(25)9-19(12,3)21(10,27)17(26)28/h4-5,7,10,12-13,15-16,25,27H,6,8-9H2,1-3H3,(H,26,28)/t10-,12+,13+,15+,16+,18+,19+,20+,21+/m1/s1",
        "InChIKey": null,
        "Canonical SMILES": "O=C1C=CC2(C(=C1)C(F)CC3C4CC(C)C(O)(C(=O)S)C4(C)CC(O)C32F)C",
        "Molecular Formula": "C<sub>21</sub>H<sub>26</sub>F<sub>2</sub>O<sub>4</sub>S",
        "Molecular Mass": "412.49",
        "Melting Point": "230-231 °C"
    }
}