{
    "cas_no": "3570-58-9",
    "key_name": "Ethanol, 2-chloro-, 1-methanesulfonate",
    "cn_name": "2-氯乙基甲基磺酸;甲磺酸2-氯乙酯;",
    "alternate_name": "Ethanol, 2-chloro-, 1-methanesulfonate;Ethanol, 2-chloro-, methanesulfonate;Methanesulfonic acid, 2-chloroethyl ester;NSC 18016;2-Chloroethyl methanesulfonate;CB 1506;2-Chloroethyl mesylate",
    "duplicated_cas_no": "",
    "SMILES": "O(S(C)(=O)=O)CCCl",
    "meta_data": {
        "InChI": "InChI=1S/C3H7ClO3S/c1-8(5,6)7-3-2-4/h2-3H2,1H3",
        "InChIKey": null,
        "Canonical SMILES": "O=S(=O)(OCCCl)C",
        "Molecular Formula": "C<sub>3</sub>H<sub>7</sub>ClO<sub>3</sub>S",
        "Molecular Mass": "158.60",
        "Boiling Point": "138-142 °C @ Press: 17 Torr",
        "Density": "1.3837 g/cm³ @ Temp: 20 °C"
    }
}