{
    "cas_no": "2111-75-3",
    "key_name": "Perillaldehyde",
    "cn_name": "4-(1-甲基乙烯基)-1-环己烯-1-甲醛;",
    "alternate_name": "1-Cyclohexene-1-carboxaldehyde, 4-(1-methylethenyl)-;Perillaldehyde;1-Cyclohexene-1-carboxaldehyde, 4-isopropenyl-;4-(1-Methylethenyl)-1-cyclohexene-1-carboxaldehyde;Perilla aldehyde;4-Isopropenyl-1-cyclohexene-1-carboxaldehyde;Perillal;<em>p</em>-Mentha-1,8-dien-7-al;Perillyl aldehyde;4-Isopropenyl-1-cyclohexenecarboxaldehyde;4-(2-Propenyl)-1-cyclohexenecarboxaldehyde;(±)-Perillaldehyde;<em>dl</em>-Perillaldehyde;NSC 138642;1,8-<em>p</em>-Menthadien-7-al;4-(Prop-1-en-2-yl)cyclohex-1-ene-1-carboxaldehyde;Perillic aldehyde",
    "duplicated_cas_no": "6611-91-2;21090-66-4;1254961-45-9",
    "SMILES": "C(C)(=C)C1CCC(C=O)=CC1",
    "meta_data": {
        "InChI": "InChI=1S/C10H14O/c1-8(2)10-5-3-9(7-11)4-6-10/h3,7,10H,1,4-6H2,2H3",
        "InChIKey": null,
        "Canonical SMILES": "O=CC1=CCC(C(=C)C)CC1",
        "Molecular Formula": "C<sub>10</sub>H<sub>14</sub>O",
        "Molecular Mass": "150.22",
        "Boiling Point": "240 °C",
        "Melting Point": "&lt;25 °C",
        "Density": "0.9617 g/cm³ @ Temp: 18 °C"
    }
}