{
    "cas_no": "610-78-6",
    "key_name": "4-Chloro-3-nitrophenol",
    "cn_name": "4-氯-3-硝基苯酚;",
    "alternate_name": "Phenol, 4-chloro-3-nitro-;4-Chloro-3-nitrophenol;3-Nitro-4-chlorophenol;2-Chloro-5-hydroxynitrobenzene;NSC 211001",
    "duplicated_cas_no": "",
    "SMILES": "N(=O)(=O)C1=C(Cl)C=CC(O)=C1",
    "meta_data": {
        "InChI": "InChI=1S/C6H4ClNO3/c7-5-2-1-4(9)3-6(5)8(10)11/h1-3,9H",
        "InChIKey": null,
        "Canonical SMILES": "O=N(=O)C1=CC(O)=CC=C1Cl",
        "Molecular Formula": "C<sub>6</sub>H<sub>4</sub>ClNO<sub>3</sub>",
        "Molecular Mass": "173.55",
        "Melting Point": "126.5 °C"
    }
}