{
    "cas_no": "2043-55-2",
    "key_name": "1,1,1,2,2,3,3,4,4-Nonafluoro-6-iodohexane",
    "cn_name": "1,1,2,2-四氢全氟己基碘;1-碘-1H,1H,2H,2H-全氟己烷;",
    "alternate_name": "Hexane, 1,1,1,2,2,3,3,4,4-nonafluoro-6-iodo-;1,1,1,2,2,3,3,4,4-Nonafluoro-6-iodohexane;2-(Perfluorobutyl)ethyl iodide;1-Perfluorobutyl-2-iodoethane;1<em>H</em>,1<em>H</em>,2<em>H</em>,2<em>H</em>-Perfluorohexyl iodide;2-Perfluorobutyl-1-iodoethane;3,3,4,4,5,5,6,6,6-Nonafluorohexyl iodide;1-Iodo-3,3,4,4,5,5,6,6,6-nonafluorohexane;2-(Nonafluorobutyl)ethyl iodide;1-Iodo-2-(perfluorobutyl)ethane;1-Iodo-1<em>H</em>,1<em>H</em>,2<em>H</em>,2<em>H</em>-perfluorohexane;1<em>H</em>,1<em>H</em>,2<em>H</em>,2<em>H</em>-Nonafluorohexyl iodide",
    "duplicated_cas_no": "",
    "SMILES": "C(C(C(F)(F)F)(F)F)(C(CCI)(F)F)(F)F",
    "meta_data": {
        "InChI": "InChI=1S/C6H4F9I/c7-3(8,1-2-16)4(9,10)5(11,12)6(13,14)15/h1-2H2",
        "InChIKey": null,
        "Canonical SMILES": "FC(F)(F)C(F)(F)C(F)(F)C(F)(F)CCI",
        "Molecular Formula": "C<sub>6</sub>H<sub>4</sub>F<sub>9</sub>I",
        "Molecular Mass": "373.99",
        "Boiling Point": "81 °C @ Press: 100 Torr"
    }
}