{
    "cas_no": "30100-16-4",
    "key_name": "8-[[(1,1-Dimethylethoxy)carbonyl]amino]octanoic acid",
    "cn_name": "8-(Boc-氨基)羊脂酸;",
    "alternate_name": "Octanoic acid, 8-[[(1,1-dimethylethoxy)carbonyl]amino]-;Octanoic acid, 8-(carboxyamino)-, <em>N</em>-<em>tert</em>-butyl ester;8-[[(1,1-Dimethylethoxy)carbonyl]amino]octanoic acid;<em>N</em>-<em>tert</em>-Butoxycarbonyl-8-aminooctanoic acid;8-(<em>tert</em>-Butoxycarbonylamino)octanoic acid;Boc-8-aminooctanoic acid",
    "duplicated_cas_no": "",
    "SMILES": "O(C(NCCCCCCCC(O)=O)=O)C(C)(C)C",
    "meta_data": {
        "InChI": "InChI=1S/C13H25NO4/c1-13(2,3)18-12(17)14-10-8-6-4-5-7-9-11(15)16/h4-10H2,1-3H3,(H,14,17)(H,15,16)",
        "InChIKey": null,
        "Canonical SMILES": "O=C(OC(C)(C)C)NCCCCCCCC(=O)O",
        "Molecular Formula": "C<sub>13</sub>H<sub>25</sub>NO<sub>4</sub>",
        "Molecular Mass": "259.34",
        "Melting Point": "56-57 °C"
    }
}