{
    "cas_no": "2345-28-0",
    "key_name": "2-Pentadecanone",
    "cn_name": "2-十五烷酮;2-十五酮;",
    "alternate_name": "2-Pentadecanone;Methyl tridecyl ketone;2-Oxopentadecane;Tridecyl methyl ketone",
    "duplicated_cas_no": "",
    "SMILES": "C(CCCCCCCC)CCCCC(C)=O",
    "meta_data": {
        "InChI": "InChI=1S/C15H30O/c1-3-4-5-6-7-8-9-10-11-12-13-14-15(2)16/h3-14H2,1-2H3",
        "InChIKey": null,
        "Canonical SMILES": "O=C(C)CCCCCCCCCCCCC",
        "Molecular Formula": "C<sub>15</sub>H<sub>30</sub>O",
        "Molecular Mass": "226.40",
        "Boiling Point": "294 °C",
        "Melting Point": "39.5 °C"
    }
}