{
    "cas_no": "533-74-4",
    "key_name": "Dimethylformocarbothialdine",
    "cn_name": "棉隆;3,5-二甲基-1,3,5-噻二嗪-2-硫酮;",
    "alternate_name": "2<em>H</em>-1,3,5-Thiadiazine-2-thione, tetrahydro-3,5-dimethyl-;Tetrahydro-3,5-dimethyl-2<em>H</em>-1,3,5-thiadiazine-2-thione;Crag 85W;N 521;Crag 974;UCC 974;Dazomet;Dimethylformocarbothialdine;3,5-Dimethyltetrahydro-2<em>H</em>-1,3,5-thiadiazine-2-thione;3,5-Dimethyltetrahydro-1,3,5-2<em>H</em>-thiadiazine-2-thione;3,5-Dimethyltetrahydro-1,3,5-thiadiazine-2-thione;3,5-Dimethyl-2-thionotetrahydro-1,3,5-thiadiazine;DMTT;Mylone;Nalcon 243;Stauffer N 521;Tetrahydro-2<em>H</em>-3,5-dimethyl-1,3,5-thiadiazine-2-thione;Thiazon;Thiazone;2-Thio-3,5-dimethyltetrahydro-1,3,5-thiadiazine;Mylone 85;Basamid P;Basamid G;Nefusan;Basamid;Basamid-Puder;Tetrahydro-3,5-dimethyl-2<em>H</em>-1,3,5-thiodiazin-2-thione;Fennosan B 100;D 35;Tetrahydro-3,5-dimethyl-1,3,5-thiadiazin-2-thione;Busan;Nalco 5787;Busan 1058;Nuosept S;NSC 4737;Metasol D 3TA;AMA 424;Basamid Granular;3,5-Dimethyl-1,3,5-thiadiazinane-2-thione",
    "duplicated_cas_no": "55146-10-6;1135442-80-6",
    "SMILES": "CN1C(=S)SCN(C)C1",
    "meta_data": {
        "InChI": "InChI=1S/C5H10N2S2/c1-6-3-7(2)5(8)9-4-6/h3-4H2,1-2H3",
        "InChIKey": null,
        "Canonical SMILES": "S=C1SCN(C)CN1C",
        "Molecular Formula": "C<sub>5</sub>H<sub>10</sub>N<sub>2</sub>S<sub>2</sub>",
        "Molecular Mass": "162.28",
        "Melting Point": "106-107 °C",
        "Density": "1.30 g/cm³ @ Temp: 20 °C"
    }
}