{
    "cas_no": "27591-69-1",
    "key_name": "Tilorone hydrochloride",
    "cn_name": "盐酸替洛隆;盐酸梯洛龙;2,7-双[2-(二乙基氨基)乙氧基]-9-芴酮二盐酸盐;",
    "alternate_name": "9<em>H</em>-Fluoren-9-one, 2,7-bis[2-(diethylamino)ethoxy]-, hydrochloride (1:2);Fluoren-9-one, 2,7-bis[2-(diethylamino)ethoxy]-, dihydrochloride;9<em>H</em>-Fluoren-9-one, 2,7-bis[2-(diethylamino)ethoxy]-, dihydrochloride;Tilorone dihydrochloride;Tilorone hydrochloride;DEAE-F;RMI 10008DA;RMI 10028DA;Amyxin;NSC 143969;Amixinum",
    "duplicated_cas_no": "33562-94-6;93968-77-5",
    "SMILES": "O=C1C=2C(C=3C1=CC(OCCN(CC)CC)=CC3)=CC=C(OCCN(CC)CC)C2.Cl",
    "meta_data": {
        "InChI": "InChI=1S/C25H34N2O3.2ClH/c1-5-26(6-2)13-15-29-19-9-11-21-22-12-10-20(30-16-14-27(7-3)8-4)18-24(22)25(28)23(21)17-19;;/h9-12,17-18H,5-8,13-16H2,1-4H3;2*1H",
        "InChIKey": null,
        "Canonical SMILES": "Cl.O=C1C=2C=C(OCCN(CC)CC)C=CC2C3=CC=C(OCCN(CC)CC)C=C13",
        "Molecular Formula": "C<sub>25</sub>H<sub>34</sub>N<sub>2</sub>O<sub>3</sub>.2ClH",
        "Molecular Mass": "",
        "Melting Point": "235-237 °C"
    }
}