{
    "cas_no": "100986-85-4",
    "key_name": "Levofloxacin",
    "cn_name": "左氧氟沙星;左旋氧氟沙星;左氟沙星;利复星;",
    "alternate_name": "7<em>H</em>-Pyrido[1,2,3-<em>de</em>]-1,4-benzoxazine-6-carboxylic acid, 9-fluoro-2,3-dihydro-3-methyl-10-(4-methyl-1-piperazinyl)-7-oxo-, (3<em>S</em>)-;7<em>H</em>-Pyrido[1,2,3-<em>de</em>]-1,4-benzoxazine-6-carboxylic acid, 9-fluoro-2,3-dihydro-3-methyl-10-(4-methyl-1-piperazinyl)-7-oxo-, (<em>S</em>)-;(3<em>S</em>)-9-Fluoro-2,3-dihydro-3-methyl-10-(4-methyl-1-piperazinyl)-7-oxo-7<em>H</em>-pyrido[1,2,3-<em>de</em>]-1,4-benzoxazine-6-carboxylic acid;(-)-Ofloxacin;(<em>S</em>)-Ofloxacin;DR 3355;(<em>S</em>)-(-)-Ofloxacin;Levofloxacin;HR 355;RWJ 25213-097;Tavanic;Levaquin;Cravit;Quixin;Oftaquix;Loxof;MP 376;Unibiotic;Venaxan;Levoflox;Lexoflon;Iquix;Quinsair;MMV687798;MMV 687798;MeSH ID: D064704",
    "duplicated_cas_no": "",
    "SMILES": "O=C1C=2C3=C(C(=C(F)C2)N4CCN(C)CC4)OC[C@H](C)N3C=C1C(O)=O",
    "meta_data": {
        "InChI": "InChI=1S/C18H20FN3O4/c1-10-9-26-17-14-11(16(23)12(18(24)25)8-22(10)14)7-13(19)15(17)21-5-3-20(2)4-6-21/h7-8,10H,3-6,9H2,1-2H3,(H,24,25)/t10-/m0/s1",
        "InChIKey": null,
        "Canonical SMILES": "O=C(O)C1=CN2C3=C(OCC2C)C(=C(F)C=C3C1=O)N4CCN(C)CC4",
        "Molecular Formula": "C<sub>18</sub>H<sub>20</sub>FN<sub>3</sub>O<sub>4</sub>",
        "Molecular Mass": "361.37",
        "Melting Point": "225-227 °C (decomp)"
    }
}