{
    "cas_no": "14579-03-4",
    "key_name": "Cyclopentyltrichlorosilane",
    "cn_name": "环戊基三氯硅烷;",
    "alternate_name": "Cyclopentane, (trichlorosilyl)-;Silane, trichlorocyclopentyl-;(Trichlorosilyl)cyclopentane;Cyclopentyltrichlorosilane",
    "duplicated_cas_no": "",
    "SMILES": "[Si](Cl)(Cl)(Cl)C1CCCC1",
    "meta_data": {
        "InChI": "InChI=1S/C5H9Cl3Si/c6-9(7,8)5-3-1-2-4-5/h5H,1-4H2",
        "InChIKey": null,
        "Canonical SMILES": "Cl[Si](Cl)(Cl)C1CCCC1",
        "Molecular Formula": "C<sub>5</sub>H<sub>9</sub>Cl<sub>3</sub>Si",
        "Molecular Mass": "203.57",
        "Boiling Point": "178-179 °C",
        "Density": "1.225 g/cm³"
    }
}