{
    "cas_no": "6094-02-6",
    "key_name": "2-Methyl-1-hexene",
    "cn_name": "2-甲基-1-己烯;",
    "alternate_name": "1-Hexene, 2-methyl-;2-Methyl-1-hexene;NSC 73924",
    "duplicated_cas_no": "",
    "SMILES": "C(C(C)=C)CCC",
    "meta_data": {
        "InChI": "InChI=1S/C7H14/c1-4-5-6-7(2)3/h2,4-6H2,1,3H3",
        "InChIKey": null,
        "Canonical SMILES": "C=C(C)CCCC",
        "Molecular Formula": "C<sub>7</sub>H<sub>14</sub>",
        "Molecular Mass": "98.19",
        "Boiling Point": "92 °C",
        "Melting Point": "-102.8 °C",
        "Density": "0.6987 g/cm³ @ Temp: 25 °C"
    }
}