{
    "cas_no": "2032-33-9",
    "key_name": "<em>N</em>-Propylbenzenemethanamine",
    "cn_name": "N-丙基苄胺;",
    "alternate_name": "Benzenemethanamine, <em>N</em>-propyl-;Benzylamine, <em>N</em>-propyl-;<em>N</em>-Propylbenzenemethanamine;<em>N</em>-Benzylpropylamine;Benzylpropylamine;<em>N</em>-Propylbenzylamine;<em>N</em>-(Phenylmethyl)propylamine;<em>N</em>-Benzyl-1-propanamine;Propylbenzylamine",
    "duplicated_cas_no": "",
    "SMILES": "C(NCCC)C1=CC=CC=C1",
    "meta_data": {
        "InChI": "InChI=1S/C10H15N/c1-2-8-11-9-10-6-4-3-5-7-10/h3-7,11H,2,8-9H2,1H3",
        "InChIKey": null,
        "Canonical SMILES": "C=1C=CC(=CC1)CNCCC",
        "Molecular Formula": "C<sub>10</sub>H<sub>15</sub>N",
        "Molecular Mass": "149.23",
        "Boiling Point": "102-108 °C @ Press: 12 Torr"
    }
}