{
    "cas_no": "5373-87-5",
    "key_name": "4-Methoxybenzamidoxime",
    "cn_name": null,
    "alternate_name": "Benzenecarboximidamide, <em>N</em>-hydroxy-4-methoxy-;<em>p</em>-Anisamidoxime;<em>N</em>-Hydroxy-4-methoxybenzenecarboximidamide;<em>p</em>-Anisamide, oxime;<em>p</em>-Methoxybenzamide oxime;<em>p</em>-Methoxybenzamidoxime;4-Methoxybenzamidoxime;<em>p</em>-Anisylamidoxime;<em>N</em>-Hydroxy-4-methoxybenzamidine;<em>N</em>′-Hydroxy-4-methoxybenzamidine;<em>N</em>′-Hydroxy-4-methoxybenzenecarboximidamide;<em>N</em>′-Hydroxy-4-methoxybenzimidamide;<em>N</em>-Hydroxy-<em>p</em>-methoxybenzamidine;<em>N</em>-Hydroxy-4-methoxybenzimidamide",
    "duplicated_cas_no": "",
    "SMILES": "C(NO)(=N)C1=CC=C(OC)C=C1",
    "meta_data": {
        "InChI": "InChI=1S/C8H10N2O2/c1-12-7-4-2-6(3-5-7)8(9)10-11/h2-5,11H,1H3,(H2,9,10)",
        "InChIKey": null,
        "Canonical SMILES": "N=C(NO)C1=CC=C(OC)C=C1",
        "Molecular Formula": "C<sub>8</sub>H<sub>10</sub>N<sub>2</sub>O<sub>2</sub>",
        "Molecular Mass": "166.18",
        "Melting Point": "121 °C"
    }
}