{
    "cas_no": "4876-59-9",
    "key_name": "4-Piperidinamine, <em>N</em>,<em>N</em>-dimethyl-, hydrochloride (1:2)",
    "cn_name": null,
    "alternate_name": "4-Piperidinamine, <em>N</em>,<em>N</em>-dimethyl-, hydrochloride (1:2);4-Piperidinamine, <em>N</em>,<em>N</em>-dimethyl-, dihydrochloride;Piperidine, 4-(dimethylamino)-, dihydrochloride;4-(Dimethylamino)piperidine dihydrochloride;Dimethyl(piperidin-4-yl)amine dihydrochloride;<em>N</em>,<em>N</em>-Dimethylpiperidin-4-amine dihydrochloride",
    "duplicated_cas_no": "",
    "SMILES": "N(C)(C)C1CCNCC1.Cl",
    "meta_data": {
        "InChI": "InChI=1S/C7H16N2.2ClH/c1-9(2)7-3-5-8-6-4-7;;/h7-8H,3-6H2,1-2H3;2*1H",
        "InChIKey": null,
        "Canonical SMILES": "Cl.N1CCC(N(C)C)CC1",
        "Molecular Formula": "C<sub>7</sub>H<sub>16</sub>N<sub>2</sub>.2ClH",
        "Molecular Mass": "",
        "Melting Point": "288-290 °C"
    }
}