{
    "cas_no": "145-73-3",
    "key_name": "Endothall",
    "cn_name": "草多索;3,6-内氧六氢苯二甲酸;7-氧杂二环[2.2.1]庚环-2,3-二甲酸;内氧环己邻二甲酸;",
    "alternate_name": "7-Oxabicyclo[2.2.1]heptane-2,3-dicarboxylic acid;1,2-Cyclohexanedicarboxylic acid, 3,6-<em>endo</em>-epoxy-;3,6-Endooxyphthalic acid, hexahydro-;Endothal;Endothall;1,2-Benzenedicarboxylic acid, hexahydro-3,6-<em>endo</em>-oxy-;Hydout;Herbon pennout;Aquothol;Hydrothol;Aquathol;NSC 112771;Endothallic acid;Endothalic acid",
    "duplicated_cas_no": "349466-39-3;857020-72-5",
    "SMILES": "C(O)(=O)C1C(C(O)=O)C2OC1CC2",
    "meta_data": {
        "InChI": "InChI=1S/C8H10O5/c9-7(10)5-3-1-2-4(13-3)6(5)8(11)12/h3-6H,1-2H2,(H,9,10)(H,11,12)",
        "InChIKey": null,
        "Canonical SMILES": "O=C(O)C1C2OC(CC2)C1C(=O)O",
        "Molecular Formula": "C<sub>8</sub>H<sub>10</sub>O<sub>5</sub>",
        "Molecular Mass": "186.16",
        "Melting Point": "144 °C",
        "Density": "1.431 g/cm³"
    }
}