{
    "cas_no": "4393-09-3",
    "key_name": "2,3-Dimethoxybenzylamine",
    "cn_name": "2,3-二甲氧基苄胺;",
    "alternate_name": "Benzenemethanamine, 2,3-dimethoxy-;2,3-Dimethoxybenzenemethanamine;<em>o</em>-Veratrylamine;Benzylamine, 2,3-dimethoxy-;2,3-Dimethoxybenzylamine;[(2,3-Dimethoxyphenyl)methyl]amine;(2,3-Dimethoxyphenyl)methanamine",
    "duplicated_cas_no": "",
    "SMILES": "O(C)C1=C(CN)C=CC=C1OC",
    "meta_data": {
        "InChI": "InChI=1S/C9H13NO2/c1-11-8-5-3-4-7(6-10)9(8)12-2/h3-5H,6,10H2,1-2H3",
        "InChIKey": null,
        "Canonical SMILES": "O(C1=CC=CC(=C1OC)CN)C",
        "Molecular Formula": "C<sub>9</sub>H<sub>13</sub>NO<sub>2</sub>",
        "Molecular Mass": "167.21",
        "Boiling Point": "137 °C @ Press: 11 Torr",
        "Melting Point": "229-230 °C",
        "Density": "1.1243 g/cm³ @ Temp: 0 °C"
    }
}