{
    "cas_no": "95715-86-9",
    "key_name": "(<em>R</em>)-Methyl-3-(<em>tert</em>-butoxycarbonyl)-2,2-dimethyl-4-oxazolidinecarboxylate",
    "cn_name": "(R)-(+)-3-Boc-2,2-二甲基-4-噁唑烷羧酸甲酯;",
    "alternate_name": "3,4-Oxazolidinedicarboxylic acid, 2,2-dimethyl-, 3-(1,1-dimethylethyl) 4-methyl ester, (4<em>R</em>)-;3,4-Oxazolidinedicarboxylic acid, 2,2-dimethyl-, 3-(1,1-dimethylethyl) 4-methyl ester, (<em>R</em>)-;Methyl (<em>R</em>)-(+)-3-(<em>tert</em>-butoxycarbonyl)-2,2-dimethyl-4-oxazolidinecarboxylate;(<em>R</em>)-Methyl-3-(<em>tert</em>-butoxycarbonyl)-2,2-dimethyl-4-oxazolidinecarboxylate;(<em>R</em>)-2,2-Dimethyloxazolidine-3,4-dicarboxylic acid 3-<em>tert</em>-butyl ester 4-methyl ester;3-<em>O</em>-<em>tert</em>-Butyl 4-<em>O</em>-methyl (4R)-2,2-dimethyl-1,3-oxazolidine-3,4-dicarboxylate",
    "duplicated_cas_no": "",
    "SMILES": "C(OC(C)(C)C)(=O)N1[C@@H](C(OC)=O)COC1(C)C",
    "meta_data": {
        "InChI": "InChI=1S/C12H21NO5/c1-11(2,3)18-10(15)13-8(9(14)16-6)7-17-12(13,4)5/h8H,7H2,1-6H3/t8-/m1/s1",
        "InChIKey": null,
        "Canonical SMILES": "O=C(OC(C)(C)C)N1C(C(=O)OC)COC1(C)C",
        "Molecular Formula": "C<sub>12</sub>H<sub>21</sub>NO<sub>5</sub>",
        "Molecular Mass": "259.30",
        "Boiling Point": "101-102 °C @ Press: 2 Torr"
    }
}