{
    "cas_no": "529-61-3",
    "key_name": "Euxanthone",
    "cn_name": null,
    "alternate_name": "9<em>H</em>-Xanthen-9-one, 1,7-dihydroxy-;Euxanthone;Xanthen-9-one, 1,7-dihydroxy-;1,7-Dihydroxy-9<em>H</em>-xanthen-9-one;1,7-Dihydroxyxanthone;DX 1",
    "duplicated_cas_no": "",
    "SMILES": "O=C1C=2C(OC=3C1=CC(O)=CC3)=CC=CC2O",
    "meta_data": {
        "InChI": "InChI=1S/C13H8O4/c14-7-4-5-10-8(6-7)13(16)12-9(15)2-1-3-11(12)17-10/h1-6,14-15H",
        "InChIKey": null,
        "Canonical SMILES": "O=C1C2=CC(O)=CC=C2OC=3C=CC=C(O)C13",
        "Molecular Formula": "C<sub>13</sub>H<sub>8</sub>O<sub>4</sub>",
        "Molecular Mass": "228.20",
        "Melting Point": "240 °C"
    }
}