{
    "cas_no": "55283-68-6",
    "key_name": "Ethalfluralin",
    "cn_name": "丁氟消草;乙丁烯氟灵;N-乙基-N-(2-甲基-2-丙烯基)-2,6-二硝基-4-(三氟甲基)苯胺;",
    "alternate_name": "Benzenamine, <em>N</em>-ethyl-<em>N</em>-(2-methyl-2-propen-1-yl)-2,6-dinitro-4-(trifluoromethyl)-;Benzenamine, <em>N</em>-ethyl-<em>N</em>-(2-methyl-2-propenyl)-2,6-dinitro-4-(trifluoromethyl)-;<em>N</em>-Ethyl-<em>N</em>-(2-methyl-2-propen-1-yl)-2,6-dinitro-4-(trifluoromethyl)benzenamine;Ethalfluralin;EL 161;Sonalan;Buvilan;Edge",
    "duplicated_cas_no": "",
    "SMILES": "N(CC(C)=C)(CC)C1=C(N(=O)=O)C=C(C(F)(F)F)C=C1N(=O)=O",
    "meta_data": {
        "InChI": "InChI=1S/C13H14F3N3O4/c1-4-17(7-8(2)3)12-10(18(20)21)5-9(13(14,15)16)6-11(12)19(22)23/h5-6H,2,4,7H2,1,3H3",
        "InChIKey": null,
        "Canonical SMILES": "O=N(=O)C=1C=C(C=C(C1N(CC(=C)C)CC)N(=O)=O)C(F)(F)F",
        "Molecular Formula": "C<sub>13</sub>H<sub>14</sub>F<sub>3</sub>N<sub>3</sub>O<sub>4</sub>",
        "Molecular Mass": "333.26",
        "Melting Point": "56 °C"
    }
}