{
    "cas_no": "3067-19-4",
    "key_name": "<em>N</em>-Acetylvaline",
    "cn_name": "N-乙酰-DL-缬氨酸;",
    "alternate_name": "Valine, <em>N</em>-acetyl-;Valine, <em>N</em>-acetyl-, <span class=\"text-smallcaps\">DL</span>-;<span class=\"text-smallcaps\">DL</span>-Valine, <em>N</em>-acetyl-;<em>N</em>-Acetylvaline;<em>N</em>-Acetyl-<span class=\"text-smallcaps\">DL</span>-valine;Acetyl-<span class=\"text-smallcaps\">DL</span>-valine;<span class=\"text-smallcaps\">DL</span>-<em>N</em>-Acetylvaline;NSC 122016;2-Acetamido-3-methylbutanoic acid",
    "duplicated_cas_no": "7295-89-8",
    "SMILES": "C(NC(C)=O)(C(C)C)C(O)=O",
    "meta_data": {
        "InChI": "InChI=1S/C7H13NO3/c1-4(2)6(7(10)11)8-5(3)9/h4,6H,1-3H3,(H,8,9)(H,10,11)",
        "InChIKey": null,
        "Canonical SMILES": "O=C(NC(C(=O)O)C(C)C)C",
        "Molecular Formula": "C<sub>7</sub>H<sub>13</sub>NO<sub>3</sub>",
        "Molecular Mass": "159.18",
        "Melting Point": "148-149 °C"
    }
}