{
    "cas_no": "97760-98-0",
    "key_name": "<em>N</em>-[4-Iodo-2-(trifluoromethyl)phenyl]acetamide",
    "cn_name": "4-碘-2-三氟甲基乙酰胺;",
    "alternate_name": "Acetamide, <em>N</em>-[4-iodo-2-(trifluoromethyl)phenyl]-;<em>N</em>-[4-Iodo-2-(trifluoromethyl)phenyl]acetamide",
    "duplicated_cas_no": "",
    "SMILES": "C(F)(F)(F)C1=C(NC(C)=O)C=CC(I)=C1",
    "meta_data": {
        "InChI": "InChI=1S/C9H7F3INO/c1-5(15)14-8-3-2-6(13)4-7(8)9(10,11)12/h2-4H,1H3,(H,14,15)",
        "InChIKey": null,
        "Canonical SMILES": "O=C(NC1=CC=C(I)C=C1C(F)(F)F)C",
        "Molecular Formula": "C<sub>9</sub>H<sub>7</sub>F<sub>3</sub>INO",
        "Molecular Mass": "329.06",
        "Melting Point": "132 °C"
    }
}