{
    "cas_no": "7521-80-4",
    "key_name": "Butyltrichlorosilane",
    "cn_name": "正丁基三氯硅烷;",
    "alternate_name": "Silane, butyltrichloro-;Butyltrichlorosilane;Trichlorobutylsilane;NSC 93881",
    "duplicated_cas_no": "",
    "SMILES": "C([Si](Cl)(Cl)Cl)CCC",
    "meta_data": {
        "InChI": "InChI=1S/C4H9Cl3Si/c1-2-3-4-8(5,6)7/h2-4H2,1H3",
        "InChIKey": null,
        "Canonical SMILES": "Cl[Si](Cl)(Cl)CCCC",
        "Molecular Formula": "C<sub>4</sub>H<sub>9</sub>Cl<sub>3</sub>Si",
        "Molecular Mass": "191.56",
        "Boiling Point": "148.5 °C",
        "Melting Point": "147-149 °C",
        "Density": "1.1606 g/cm³ @ Temp: 20 °C"
    }
}