{
    "cas_no": "927-68-4",
    "key_name": "2-Bromoethyl acetate",
    "cn_name": "2-溴乙基乙酸酯;乙酸溴乙酯;",
    "alternate_name": "Ethanol, 2-bromo-, 1-acetate;Ethanol, 2-bromo-, acetate;Acetic acid 2-bromoethyl ester;1-Bromo-2-acetoxyethane;2-Bromoethyl acetate;1-Acetoxy-2-bromoethane;2-Acetoxyethyl bromide;NSC 7079;2-Bromoethanol acetate",
    "duplicated_cas_no": "",
    "SMILES": "O(C(C)=O)CCBr",
    "meta_data": {
        "InChI": "InChI=1S/C4H7BrO2/c1-4(6)7-3-2-5/h2-3H2,1H3",
        "InChIKey": null,
        "Canonical SMILES": "O=C(OCCBr)C",
        "Molecular Formula": "C<sub>4</sub>H<sub>7</sub>BrO<sub>2</sub>",
        "Molecular Mass": "167.00",
        "Boiling Point": "162.5 °C",
        "Melting Point": "-13.8 °C",
        "Density": "1.502 g/cm³ @ Temp: 23 °C"
    }
}