{
    "cas_no": "15679-03-5",
    "key_name": "6-Chlorophenanthridine",
    "cn_name": null,
    "alternate_name": "Phenanthridine, 6-chloro-;6-Chlorophenanthridine;NSC 111845;NSC 134379",
    "duplicated_cas_no": "",
    "SMILES": "ClC1=C2C(=C3C(=N1)C=CC=C3)C=CC=C2",
    "meta_data": {
        "InChI": "InChI=1S/C13H8ClN/c14-13-11-7-2-1-5-9(11)10-6-3-4-8-12(10)15-13/h1-8H",
        "InChIKey": null,
        "Canonical SMILES": "ClC=1N=C2C=CC=CC2=C3C=CC=CC13",
        "Molecular Formula": "C<sub>13</sub>H<sub>8</sub>ClN",
        "Molecular Mass": "213.66",
        "Melting Point": "117-118 °C"
    }
}