{
    "cas_no": "15723-90-7",
    "key_name": "Benzenecarboximidamide, 4-nitro-, hydrochloride (1:1)",
    "cn_name": "4-硝基苄眯盐酸盐;",
    "alternate_name": "Benzenecarboximidamide, 4-nitro-, hydrochloride (1:1);Benzamidine, <em>p</em>-nitro-, monohydrochloride;Benzenecarboximidamide, 4-nitro-, monohydrochloride;Benzamidine, <em>p</em>-nitro-, hydrochloride;4-Nitrobenzamidine hydrochloride;<em>p</em>-Nitrobenzamidine monohydrochloride;<em>p</em>-Nitrobenzamidine hydrochloride;4-Nitrophenylamidine hydrochloride;4-Nitrobenzimidamide hydrochloride",
    "duplicated_cas_no": "",
    "SMILES": "C(=N)(N)C1=CC=C(N(=O)=O)C=C1.Cl",
    "meta_data": {
        "InChI": "InChI=1S/C7H7N3O2.ClH/c8-7(9)5-1-3-6(4-2-5)10(11)12;/h1-4H,(H3,8,9);1H",
        "InChIKey": null,
        "Canonical SMILES": "Cl.O=N(=O)C1=CC=C(C=C1)C(=N)N",
        "Molecular Formula": "C<sub>7</sub>H<sub>7</sub>N<sub>3</sub>O<sub>2</sub>.ClH",
        "Molecular Mass": "",
        "Melting Point": "290.6-293.6 °C (decomp)"
    }
}