{
    "cas_no": "495-27-2",
    "key_name": "Ophthalmic acid",
    "cn_name": null,
    "alternate_name": "Glycine, <span class=\"text-smallcaps\">L</span>-γ-glutamyl-(2<em>S</em>)-2-aminobutanoyl-;Ophthalmic acid;Glutamine, <em>N</em>-[(<em>S</em>)-1-[(carboxymethyl)carbamoyl]propyl]-, <span class=\"text-smallcaps\">L</span>-;Glycine, <span class=\"text-smallcaps\">L</smallcap>-γ-glutamyl-<smallcap>L</span>-2-aminobutanoyl-;<span class=\"text-smallcaps\">L</span>-γ-Glutamyl-(2<em>S</em>)-2-aminobutanoylglycine;γ-Glutamyl-α-amino-<em>n</em>-butyrylglycine;Ophthalmate",
    "duplicated_cas_no": "30631-43-7",
    "SMILES": "[C@H](C(NCC(O)=O)=O)(NC(CC[C@@H](C(O)=O)N)=O)CC",
    "meta_data": {
        "InChI": "InChI=1S/C11H19N3O6/c1-2-7(10(18)13-5-9(16)17)14-8(15)4-3-6(12)11(19)20/h6-7H,2-5,12H2,1H3,(H,13,18)(H,14,15)(H,16,17)(H,19,20)/t6-,7-/m0/s1",
        "InChIKey": null,
        "Canonical SMILES": "O=C(O)CNC(=O)C(NC(=O)CCC(N)C(=O)O)CC",
        "Molecular Formula": "C<sub>11</sub>H<sub>19</sub>N<sub>3</sub>O<sub>6</sub>",
        "Molecular Mass": "289.29",
        "Melting Point": "177-179 °C (decomp)"
    }
}