{
    "cas_no": "7280-37-7",
    "key_name": "Ogen",
    "cn_name": "雌酮硫酸酯哌嗪;硫酸哌嗪雌酮;",
    "alternate_name": "Estra-1,3,5(10)-trien-17-one, 3-(sulfooxy)-, compd. with piperazine (1:1);Estrone, hydrogen sulfate, compd. with piperazine (1:1);Piperazine, compd. with estrone hydrogen sulfate (1:1);Piperazine, compd. with 3-(sulfooxy)estra-1,3,5(10)-trien-17-one (1:1);Sulestrex;Piperazine estrone sulfate;Harmogen;Estropipate;Ogen;3-Sulfatoxyestra-1,3,5(10)-trien-17-one piperazine salt;Estrone sulfate piperazine salt;Sulestrex piperazine",
    "duplicated_cas_no": "6509-44-0;29080-16-8",
    "SMILES": "C[C@@]12[C@]([C@]3([C@@](C=4C(CC3)=CC(OS(=O)(=O)O)=CC4)(CC1)[H])[H])(CCC2=O)[H].C1CNCCN1",
    "meta_data": {
        "InChI": "InChI=1S/C18H22O5S.C4H10N2/c1-18-9-8-14-13-5-3-12(23-24(20,21)22)10-11(13)2-4-15(14)16(18)6-7-17(18)19;1-2-6-4-3-5-1/h3,5,10,14-16H,2,4,6-9H2,1H3,(H,20,21,22);5-6H,1-4H2/t14-,15-,16+,18+;/m1./s1",
        "InChIKey": null,
        "Canonical SMILES": "O=C1CCC2C3CCC4=CC(OS(=O)(=O)O)=CC=C4C3CCC12C.N1CCNCC1",
        "Molecular Formula": "C<sub>18</sub>H<sub>22</sub>O<sub>5</sub>S.C<sub>4</sub>H<sub>10</sub>N<sub>2</sub>",
        "Molecular Mass": "",
        "Melting Point": "190 °C"
    }
}