{
    "cas_no": "79983-71-4",
    "key_name": "Hexaconazole",
    "cn_name": "己唑醇;(RS)-2-(2,4-二氯苯基)-1-(1H-1,2,4-三唑-4-基)-己-2-醇;",
    "alternate_name": "1<em>H</em>-1,2,4-Triazole-1-ethanol, α-butyl-α-(2,4-dichlorophenyl)-;1<em>H</em>-1,2,4-Triazole-1-ethanol, α-butyl-α-(2,4-dichlorophenyl)-, (±)-;α-Butyl-α-(2,4-dichlorophenyl)-1<em>H</em>-1,2,4-triazole-1-ethanol;R 154523;PP 523;Hexaconazole;Anvil;FD 4053;PC 1002;Clortriafol;Anvil L;Contaf;Contaf 5EC;TDP;(±)-Hexaconazole;Anvil Liquid;<em>RS</em>-2-(2,4-Dichlorophenyl)-1-(1<em>H</em>-1,2,4-triazol-1-yl)hexan-2-ol;Sitara;Flowmax 5SC;Ranvil;Blin Exa;Canvil;Contaf Plus;Controll;Hexadhan;Samarth;2-(2,4-Dichlorophenyl)-1-(1<em>H</em>-1,2,4-triazol-1-yl)hexan-2-ol;Hexaconazole Technical",
    "duplicated_cas_no": "103556-63-4;87677-54-1;205862-67-5;1135441-09-6",
    "SMILES": "C(CN1C=NC=N1)(CCCC)(O)C2=C(Cl)C=C(Cl)C=C2",
    "meta_data": {
        "InChI": "InChI=1S/C14H17Cl2N3O/c1-2-3-6-14(20,8-19-10-17-9-18-19)12-5-4-11(15)7-13(12)16/h4-5,7,9-10,20H,2-3,6,8H2,1H3",
        "InChIKey": null,
        "Canonical SMILES": "ClC1=CC=C(C(Cl)=C1)C(O)(CN2N=CN=C2)CCCC",
        "Molecular Formula": "C<sub>14</sub>H<sub>17</sub>Cl<sub>2</sub>N<sub>3</sub>O",
        "Molecular Mass": "314.21",
        "Melting Point": "111 °C",
        "Density": "1.335 g/cm³ @ Temp: 19.9 °C; Press: Atm pressure"
    }
}