{
    "cas_no": "1565-17-9",
    "key_name": "4-Acetylbenzenesulfonamide",
    "cn_name": "4-乙酰基苯磺酰胺;",
    "alternate_name": "Benzenesulfonamide, 4-acetyl-;Benzenesulfonamide, <em>p</em>-acetyl-;4-Acetylbenzenesulfonamide;<em>p</em>-Acetobenzenesulfonamide;<em>p</em>-Acetylbenzenesulfonamide;4-(Aminosulfonyl)acetophenone",
    "duplicated_cas_no": "",
    "SMILES": "S(N)(=O)(=O)C1=CC=C(C(C)=O)C=C1",
    "meta_data": {
        "InChI": "InChI=1S/C8H9NO3S/c1-6(10)7-2-4-8(5-3-7)13(9,11)12/h2-5H,1H3,(H2,9,11,12)",
        "InChIKey": null,
        "Canonical SMILES": "O=C(C1=CC=C(C=C1)S(=O)(=O)N)C",
        "Molecular Formula": "C<sub>8</sub>H<sub>9</sub>NO<sub>3</sub>S",
        "Molecular Mass": "199.23",
        "Melting Point": "178-179 °C"
    }
}