{
    "cas_no": "619-45-4",
    "key_name": "Methyl 4-aminobenzoate",
    "cn_name": "4-氨基苯甲酸甲酯;对氨基苯甲酸甲酯;",
    "alternate_name": "Benzoic acid, 4-amino-, methyl ester;Benzoic acid, <em>p</em>-amino-, methyl ester;Methyl <em>p</em>-aminobenzoate;4-Aminobenzoic acid methyl ester;Methyl 4-aminobenzoate;<em>p</em>-Aminobenzoic acid methyl ester;<em>p</em>-Carbomethoxyaniline;4-(Methoxycarbonyl)aniline;Methyl aniline-4-carboxylate;<em>p</em>-(Methoxycarbonyl)aniline;4-(Carbomethoxy)aniline;Methyl 4-aminophenylcarboxylate;(4-(Methoxycarbonyl)phenyl)amine;NSC 3783;4-Aminobenzenecarboxylic acid methyl ester",
    "duplicated_cas_no": "",
    "SMILES": "C(OC)(=O)C1=CC=C(N)C=C1",
    "meta_data": {
        "InChI": "InChI=1S/C8H9NO2/c1-11-8(10)6-2-4-7(9)5-3-6/h2-5H,9H2,1H3",
        "InChIKey": null,
        "Canonical SMILES": "O=C(OC)C1=CC=C(N)C=C1",
        "Molecular Formula": "C<sub>8</sub>H<sub>9</sub>NO<sub>2</sub>",
        "Molecular Mass": "151.16",
        "Melting Point": "110-111 °C"
    }
}