{
    "cas_no": "2528-39-4",
    "key_name": "Trihexyl phosphate",
    "cn_name": "磷酸三己基酯;",
    "alternate_name": "Phosphoric acid, trihexyl ester;Hexyl phosphate ((C<sub>6</sub>H<sub>13</sub>O)<sub>3</sub>PO);Trihexyl phosphate;Tri(n-hexyl) phosphate;Tri-<em>N</em>-hexyl phosphate",
    "duplicated_cas_no": "",
    "SMILES": "P(OCCCCCC)(OCCCCCC)(OCCCCCC)=O",
    "meta_data": {
        "InChI": "InChI=1S/C18H39O4P/c1-4-7-10-13-16-20-23(19,21-17-14-11-8-5-2)22-18-15-12-9-6-3/h4-18H2,1-3H3",
        "InChIKey": null,
        "Canonical SMILES": "O=P(OCCCCCC)(OCCCCCC)OCCCCCC",
        "Molecular Formula": "C<sub>18</sub>H<sub>39</sub>O<sub>4</sub>P",
        "Molecular Mass": "350.47",
        "Boiling Point": "183.5-184.5 °C @ Press: 2.5 Torr",
        "Density": "0.9205 g/cm³ @ Temp: 020 °C"
    }
}