{
    "cas_no": "5466-06-8",
    "key_name": "Ethyl 3-mercaptopropionate",
    "cn_name": "3-巯基丙酸乙酯;",
    "alternate_name": "Propanoic acid, 3-mercapto-, ethyl ester;Propionic acid, 3-mercapto-, ethyl ester;Ethyl 3-mercaptopropionate;Ethyl β-mercaptopropionate;3-Mercaptopropanoic acid ethyl ester;Ethyl 3-mercaptopropanoate;3-Mercaptopropionic acid ethyl ester;NSC 25754;β-Mercaptopropionic acid ethyl ester;EPM (thiol);EPM",
    "duplicated_cas_no": "",
    "SMILES": "C(CCS)(OCC)=O",
    "meta_data": {
        "InChI": "InChI=1S/C5H10O2S/c1-2-7-5(6)3-4-8/h8H,2-4H2,1H3",
        "InChIKey": null,
        "Canonical SMILES": "O=C(OCC)CCS",
        "Molecular Formula": "C<sub>5</sub>H<sub>10</sub>O<sub>2</sub>S",
        "Molecular Mass": "134.20",
        "Boiling Point": "77.5 °C @ Press: 20 Torr",
        "Density": "1.0550 g/cm³ @ Temp: 20 °C"
    }
}