{
    "cas_no": "603-78-1",
    "key_name": "2,3-Dibromobenzoic acid",
    "cn_name": null,
    "alternate_name": "Benzoic acid, 2,3-dibromo-;2,3-Dibromobenzoic acid",
    "duplicated_cas_no": "",
    "SMILES": "C(O)(=O)C1=C(Br)C(Br)=CC=C1",
    "meta_data": {
        "InChI": "InChI=1S/C7H4Br2O2/c8-5-3-1-2-4(6(5)9)7(10)11/h1-3H,(H,10,11)",
        "InChIKey": null,
        "Canonical SMILES": "O=C(O)C=1C=CC=C(Br)C1Br",
        "Molecular Formula": "C<sub>7</sub>H<sub>4</sub>Br<sub>2</sub>O<sub>2</sub>",
        "Molecular Mass": "279.91",
        "Melting Point": "144-148 °C"
    }
}