{
    "cas_no": "615-94-1",
    "key_name": "2,5-Dihydroxy-1,4-benzoquinone",
    "cn_name": "2,5-二羟基对苯醌;2,5-二羟基-1,4-苯喹酮;2,5-二羟基-1,4-苯醌;2,5-二羟基苯醌;",
    "alternate_name": "2,5-Cyclohexadiene-1,4-dione, 2,5-dihydroxy-;<em>p</em>-Benzoquinone, 2,5-dihydroxy-;Quinone, 2,5-dihydroxy-;2,5-Dihydroxy-2,5-cyclohexadiene-1,4-dione;2,5-Dihydroxy-<em>p</em>-benzoquinone;2,5-Dihydroxy-1,4-benzoquinone;2,5-Dihydroxycyclohexa-2,5-diene-1,4-dione;Anilic acid;NSC 3843",
    "duplicated_cas_no": "",
    "SMILES": "O=C1C(O)=CC(=O)C(O)=C1",
    "meta_data": {
        "InChI": "InChI=1S/C6H4O4/c7-3-1-4(8)6(10)2-5(3)9/h1-2,7,10H",
        "InChIKey": null,
        "Canonical SMILES": "O=C1C=C(O)C(=O)C=C1O",
        "Molecular Formula": "C<sub>6</sub>H<sub>4</sub>O<sub>4</sub>",
        "Molecular Mass": "140.09",
        "Melting Point": "169-170 °C"
    }
}