{
    "cas_no": "57018-52-7",
    "key_name": "1-<em>tert</em>-Butoxy-2-propanol",
    "cn_name": "1-叔丁氧基-2-丙醇;",
    "alternate_name": "2-Propanol, 1-(1,1-dimethylethoxy)-;1-(1,1-Dimethylethoxy)-2-propanol;1-Methyl-2-<em>tert</em>-butoxyethanol;1-<em>tert</em>-Butoxy-2-propanol;Arcosolv PTB;1-(1,1-dimethylethoxy)-2-propanol;Propylene glycol 1-(<em>tert</em>-butyl ether);1-[(2-Methylpropan-2-yl)oxy]propan-2-ol",
    "duplicated_cas_no": "136579-67-4",
    "SMILES": "O(C(C)(C)C)CC(C)O",
    "meta_data": {
        "InChI": "InChI=1S/C7H16O2/c1-6(8)5-9-7(2,3)4/h6,8H,5H2,1-4H3",
        "InChIKey": null,
        "Canonical SMILES": "OC(C)COC(C)(C)C",
        "Molecular Formula": "C<sub>7</sub>H<sub>16</sub>O<sub>2</sub>",
        "Molecular Mass": "132.20",
        "Boiling Point": "105-110 °C @ Press: 2 Torr"
    }
}