{
    "cas_no": "2577-40-4",
    "key_name": "<span class=\"text-smallcaps\">L</smallcap>-Phenylalanyl-<smallcap>L</span>-phenylalanine",
    "cn_name": null,
    "alternate_name": "<span class=\"text-smallcaps\">L</smallcap>-Phenylalanine, <smallcap>L</span>-phenylalanyl-;Alanine, 3-phenyl-<em>N</em>-(3-phenyl-<span class=\"text-smallcaps\">L</smallcap>-alanyl)-, <smallcap>L</span>-;<span class=\"text-smallcaps\">L</smallcap>-Phenylalanine, <em>N</em>-<smallcap>L</span>-phenylalanyl-;Alanine, 3-phenyl-<em>N</em>-3-phenyl-<span class=\"text-smallcaps\">L</span>-alanyl-;<span class=\"text-smallcaps\">L</smallcap>-Phenylalanyl-<smallcap>L</span>-phenylalanine;(Phenylalanyl)phenylalanine;NSC 524136;21: PN: US20050069551 PAGE: 16 claimed protein;10: PN: WO2010004535 PAGE: 31 claimed protein;110: PN: EP2161028 PAGE: 10 claimed protein;<span class=\"text-smallcaps\">L</smallcap>-Phe-<smallcap>L</span>-Phe-OH;101: PN: WO2014145242 PAGE: 31 claimed protein;<span class=\"text-smallcaps\">L</smallcap>,<smallcap>L</span>-Diphenylalanine;Diphenylalanine;1: PN: WO2019190333 SEQID: 1 claimed protein;10: PN: CN112794917 SEQID: 10 claimed protein;1: PN: CN113005166 PAGE: 2 claimed sequence;2: PN: CN113105560 SEQID: 2 claimed sequence;529: PN: WO2023161197 SEQID: 531 claimed sequence",
    "duplicated_cas_no": "42578-52-9",
    "SMILES": "C([C@H](NC([C@H](CC1=CC=CC=C1)N)=O)C(O)=O)C2=CC=CC=C2",
    "meta_data": {
        "InChI": "InChI=1S/C18H20N2O3/c19-15(11-13-7-3-1-4-8-13)17(21)20-16(18(22)23)12-14-9-5-2-6-10-14/h1-10,15-16H,11-12,19H2,(H,20,21)(H,22,23)/t15-,16-/m0/s1",
        "InChIKey": null,
        "Canonical SMILES": "O=C(O)C(NC(=O)C(N)CC=1C=CC=CC1)CC=2C=CC=CC2",
        "Molecular Formula": "C<sub>18</sub>H<sub>20</sub>N<sub>2</sub>O<sub>3</sub>",
        "Molecular Mass": "312.36",
        "Melting Point": "131-133 °C"
    }
}