{
    "cas_no": "7727-15-3",
    "key_name": "Aluminum bromide",
    "cn_name": "三溴化铝;溴化铝;",
    "alternate_name": "Aluminum bromide (AlBr<sub>3</sub>);Aluminum bromide;Aluminum tribromide;Aluminum tribromide (AlBr<sub>3</sub>);NSC 87608",
    "duplicated_cas_no": "2762993-62-2",
    "SMILES": "[Al](Br)(Br)Br",
    "meta_data": {
        "InChI": "InChI=1S/Al.3BrH/h;3*1H/q+3;;;/p-3",
        "InChIKey": null,
        "Canonical SMILES": "Br[Al](Br)Br",
        "Molecular Formula": "AlBr<sub>3</sub>",
        "Molecular Mass": "",
        "Boiling Point": "255 °C",
        "Melting Point": "97.5 °C",
        "Density": "3.2 g/cm³"
    }
}