{
    "cas_no": "137234-87-8",
    "key_name": "6-Ethyl-5-fluoro-4(3<em>H</em>)-pyrimidinone",
    "cn_name": "4-乙基-5-氟-6-羟基嘧啶;6-乙基-5-氟嘧啶-4(3H)-酮;",
    "alternate_name": "4(3<em>H</em>)-Pyrimidinone, 6-ethyl-5-fluoro-;4(1<em>H</em>)-Pyrimidinone, 6-ethyl-5-fluoro-;6-Ethyl-5-fluoro-4(3<em>H</em>)-pyrimidinone;6-Ethyl-5-fluoropyrimidin-4(3<em>H</em>)-one;6-Ethyl-5-fluoro-4-hydroxypyrimidine;6-Ethyl-5-fluoropyrimidin-4-ol",
    "duplicated_cas_no": "",
    "SMILES": "C(C)C1=C(F)C(=O)N=CN1",
    "meta_data": {
        "InChI": "InChI=1S/C6H7FN2O/c1-2-4-5(7)6(10)9-3-8-4/h3H,2H2,1H3,(H,8,9,10)",
        "InChIKey": null,
        "Canonical SMILES": "O=C1N=CNC(=C1F)CC",
        "Molecular Formula": "C<sub>6</sub>H<sub>7</sub>FN<sub>2</sub>O",
        "Molecular Mass": "142.13",
        "Melting Point": "112-114 °C"
    }
}