{
    "cas_no": "124750-92-1",
    "key_name": "Losartan carboxylic acid",
    "cn_name": null,
    "alternate_name": "1<em>H</em>-Imidazole-5-carboxylic acid, 2-butyl-4-chloro-1-[[2′-(2<em>H</em>-tetrazol-5-yl)[1,1′-biphenyl]-4-yl]methyl]-;1<em>H</em>-Imidazole-5-carboxylic acid, 2-butyl-4-chloro-1-[[2′-(1<em>H</em>-tetrazol-5-yl)[1,1′-biphenyl]-4-yl]methyl]-;2-Butyl-4-chloro-1-[[2′-(2<em>H</em>-tetrazol-5-yl)[1,1′-biphenyl]-4-yl]methyl]-1<em>H</em>-imidazole-5-carboxylic acid;EXP 3174;E 3174;Losartan carboxylic acid;2-Butyl-5-chloro-3-[[4-[2-(2<em>H</em>-tetrazol-5-yl)phenyl]phenyl]methyl]imidazole-4-carboxylic acid",
    "duplicated_cas_no": "",
    "SMILES": "C(N1C(CCCC)=NC(Cl)=C1C(O)=O)C2=CC=C(C=C2)C3=C(C=CC=C3)C=4NN=NN4",
    "meta_data": {
        "InChI": "InChI=1S/C22H21ClN6O2/c1-2-3-8-18-24-20(23)19(22(30)31)29(18)13-14-9-11-15(12-10-14)16-6-4-5-7-17(16)21-25-27-28-26-21/h4-7,9-12H,2-3,8,13H2,1H3,(H,30,31)(H,25,26,27,28)",
        "InChIKey": null,
        "Canonical SMILES": "O=C(O)C1=C(Cl)N=C(N1CC=2C=CC(=CC2)C=3C=CC=CC3C4=NN=NN4)CCCC",
        "Molecular Formula": "C<sub>22</sub>H<sub>21</sub>ClN<sub>6</sub>O<sub>2</sub>",
        "Molecular Mass": "436.89",
        "Melting Point": "176-178 °C"
    }
}