{
    "cas_no": "919-30-2",
    "key_name": "(3-Aminopropyl)triethoxysilane",
    "cn_name": "3-氨基丙基三乙氧基硅烷;",
    "alternate_name": "1-Propanamine, 3-(triethoxysilyl)-;Propylamine, 3-(triethoxysilyl)-;3-(Triethoxysilyl)-1-propanamine;A 1100;(γ-Aminopropyl)triethoxysilane;AGM 9;3-(Triethoxysilyl)propylamine;Silane A 1100;A 1112;NUCA 1100;Silane AMG 9;KH 550;A 1102;Dynasylan AMEO;NB 1114;Triethoxy(3-aminopropyl)silane;KBE 903;GF 93;Prosil 220;Prosil 221;APS-E;Sila-Ace S 330;TSL 8331;A 0750;APTES;VM 651 (coupling agent);VM 651;Silicone A 1100;APS;S 330;3-(Triethoxysilyl)-1-propylamine;A 1100 (coupling agent);Triethoxy(γ-aminopropyl)silane;Hydrosil 2627;X 12-843;Silquest A 1100;AMEO;Unisilan 13;APS (coupling agent);Dynasylan AMEO-T;WD 50;γ-Triethoxysilylpropylamine;AP 1690;Dynasylan 1203;A 1102 (silane derivative);Z 6011;3-APTES;TSC 202;(Aminopropyl)triethoxysilane;(3-Aminopropyl)triethoxysilane;Silquest A 1102;3-(Triethoxysilyl)propanamine;DS-AMEO;A 1112 (coupling agent);SIA 0610.0;Sila-Ace MS 3201;Surfcoat LX;NSC 95428;Unisil 13;C 50752;APS-E (coupling agent);KH 550 (amine);Dow Corning Z 6011;A 1106;Silquest A 1106;U 13 (coupling agent);U 13;Silwet A 1100;KBE 903P;KS 600;Silquest A 1101;A 1101 coupling agent;A 1101;Pyralin VM 651;KH 507PS10S;Silquest A 110;AX 1100;KH 500;Dynasylan Hydrosil 2627;Geniosil GF 93;Toray Silicone Z 6011;A 110;APTS;H 550;(γ-Aminopropyl)triethoxylsilane;Sila-Ace 330;SH 6011;AMS 70;γ-Aminpropyltriethoxysilane;DB 550;Xiameter OFS 6011;JH-A 110;SCA 1100;Silquest 11009;A 3648;Silsoft A 1100;KEM 903;3-(Triethoxysilanyl)propylamine;LS 3150;E-Acroseal;KBE 930;(3-Aminopropyl)triethoxylsilane;LT 550;Silane coupling agent KH550;L 6376;OFS 6011;SCA-A 10E;CY 550;Deolink Amino TE;FD 550;FD 550 (coupling agent);PC 1100;Momentive A 1100;CG 550;Nanoflex TTN 500;A 10668;Dynasylan ANEI;3-(Triethoxysilyl)propane-1-amine;NQ 55;LD 550;KH 2550;Dynasylan SIVO 214;AM 5;Dowsil Z 6011;Andisil 1100;Dynasylan ARVIEO;KH 5550;SG-SI 1100;ZB 029;Nevosil S 230;Dow Corning 6011;BR 302 (silane);BR 302;HZ-BK 1833",
    "duplicated_cas_no": "12738-50-0;60000-97-7;71618-18-3;86836-28-4;88527-61-1;96726-79-3;106096-79-1;130730-84-6;131641-77-5;143178-71-6;159778-17-3;204987-58-6;449753-82-6;479401-05-3;607502-71-6;875121-65-6;1020103-34-7;1044532-60-6;1392103-81-9;1582784-92-6;1686133-96-9;2661611-68-1",
    "SMILES": "[Si](CCCN)(OCC)(OCC)OCC",
    "meta_data": {
        "InChI": "InChI=1S/C9H23NO3Si/c1-4-11-14(12-5-2,13-6-3)9-7-8-10/h4-10H2,1-3H3",
        "InChIKey": null,
        "Canonical SMILES": "O(CC)[Si](OCC)(OCC)CCCN",
        "Molecular Formula": "C<sub>9</sub>H<sub>23</sub>NO<sub>3</sub>Si",
        "Molecular Mass": "221.37",
        "Boiling Point": "217 °C",
        "Density": "0.94 g/cm³ @ Temp: 25 °C"
    }
}