{
    "cas_no": "72571-82-5",
    "key_name": "Pipemidic acid trihydrate",
    "cn_name": "吡哌酸三水合物;",
    "alternate_name": "Pyrido[2,3-<em>d</em>]pyrimidine-6-carboxylic acid, 8-ethyl-5,8-dihydro-5-oxo-2-(1-piperazinyl)-, hydrate (1:3);Pyrido[2,3-<em>d</em>]pyrimidine-6-carboxylic acid, 8-ethyl-5,8-dihydro-5-oxo-2-(1-piperazinyl)-, trihydrate;Pipemidic acid trihydrate",
    "duplicated_cas_no": "",
    "SMILES": "C(C)N1C=2C(C(=O)C(C(O)=O)=C1)=CN=C(N2)N3CCNCC3.O",
    "meta_data": {
        "InChI": "InChI=1S/C14H17N5O3.3H2O/c1-2-18-8-10(13(21)22)11(20)9-7-16-14(17-12(9)18)19-5-3-15-4-6-19;;;/h7-8,15H,2-6H2,1H3,(H,21,22);3*1H2",
        "InChIKey": null,
        "Canonical SMILES": "O=C(O)C1=CN(C2=NC(=NC=C2C1=O)N3CCNCC3)CC.O",
        "Molecular Formula": "C<sub>14</sub>H<sub>17</sub>N<sub>5</sub>O<sub>3</sub>.3H<sub>2</sub>O",
        "Molecular Mass": "",
        "Melting Point": "253-255 °C",
        "Density": "1.41 g/cm³"
    }
}