{
    "cas_no": "30084-91-4",
    "key_name": "2,3-Dihydro-1<em>H</em>-indene-5-carboxaldehyde",
    "cn_name": "茚满-5-甲醛;",
    "alternate_name": "1<em>H</em>-Indene-5-carboxaldehyde, 2,3-dihydro-;5-Indancarboxaldehyde;2,3-Dihydro-1<em>H</em>-indene-5-carboxaldehyde;5-Indanecarboxaldehyde;5-Formylindan;3,4-Trimethylenebenzaldehyde;Indan-5-carbaldehyde;2,3-Dihydro-1<em>H</em>-indene-5-carbaldehyde",
    "duplicated_cas_no": "",
    "SMILES": "C(=O)C=1C=C2C(=CC1)CCC2",
    "meta_data": {
        "InChI": "InChI=1S/C10H10O/c11-7-8-4-5-9-2-1-3-10(9)6-8/h4-7H,1-3H2",
        "InChIKey": null,
        "Canonical SMILES": "O=CC1=CC=C2C(=C1)CCC2",
        "Molecular Formula": "C<sub>10</sub>H<sub>10</sub>O",
        "Molecular Mass": "146.19",
        "Boiling Point": "146.0-147.5 °C @ Press: 29 Torr",
        "Melting Point": "255-257 °C"
    }
}