{
    "cas_no": "2845-89-8",
    "key_name": "3-Chloroanisole",
    "cn_name": "3-氯苯甲醚;间氯苯甲醚;",
    "alternate_name": "Benzene, 1-chloro-3-methoxy-;Anisole, <em>m</em>-chloro-;1-Chloro-3-methoxybenzene;<em>m</em>-Chlorophenyl methyl ether;3-Chloroanisole;<em>m</em>-Chloroanisole;<em>m</em>-Chloromethoxybenzene;3-Chloromethoxybenzene;3-Methoxychlorobenzene;3-Chloroanisol;3-Methoxyphenyl chloride;4-Chloro-2-methoxybenzene",
    "duplicated_cas_no": "",
    "SMILES": "O(C)C1=CC(Cl)=CC=C1",
    "meta_data": {
        "InChI": "InChI=1S/C7H7ClO/c1-9-7-4-2-3-6(8)5-7/h2-5H,1H3",
        "InChIKey": null,
        "Canonical SMILES": "ClC1=CC=CC(OC)=C1",
        "Molecular Formula": "C<sub>7</sub>H<sub>7</sub>ClO",
        "Molecular Mass": "142.58",
        "Boiling Point": "193.5 °C",
        "Melting Point": "&lt;25 °C"
    }
}