{
    "cas_no": "618-32-6",
    "key_name": "Benzoyl bromide",
    "cn_name": "苯甲酰溴;",
    "alternate_name": "Benzoyl bromide",
    "duplicated_cas_no": "",
    "SMILES": "C(Br)(=O)C1=CC=CC=C1",
    "meta_data": {
        "InChI": "InChI=1S/C7H5BrO/c8-7(9)6-4-2-1-3-5-6/h1-5H",
        "InChIKey": null,
        "Canonical SMILES": "O=C(Br)C=1C=CC=CC1",
        "Molecular Formula": "C<sub>7</sub>H<sub>5</sub>BrO",
        "Molecular Mass": "185.02",
        "Boiling Point": "218.5 °C",
        "Melting Point": "-24 °C"
    }
}