{
    "cas_no": "461-81-4",
    "key_name": "1-Chloro-4-(trifluoromethoxy)benzene",
    "cn_name": "对氯三氟甲氧基苯;",
    "alternate_name": "Benzene, 1-chloro-4-(trifluoromethoxy)-;Anisole, <em>p</em>-chloro-α,α,α-trifluoro-;1-Chloro-4-(trifluoromethoxy)benzene;4-Chlorophenyl trifluoromethyl ether;<em>p</em>-Chloro(trifluoromethoxy)benzene;4-Chloro-α,α,α-trifluoroanisole;4-Chloro(trifluoromethoxy)benzene;4-(Trifluoromethoxy)chlorobenzene",
    "duplicated_cas_no": "",
    "SMILES": "O(C(F)(F)F)C1=CC=C(Cl)C=C1",
    "meta_data": {
        "InChI": "InChI=1S/C7H4ClF3O/c8-5-1-3-6(4-2-5)12-7(9,10)11/h1-4H",
        "InChIKey": null,
        "Canonical SMILES": "FC(F)(F)OC1=CC=C(Cl)C=C1",
        "Molecular Formula": "C<sub>7</sub>H<sub>4</sub>ClF<sub>3</sub>O",
        "Molecular Mass": "196.55",
        "Boiling Point": "141-142 °C",
        "Density": "1.3679 g/cm³ @ Temp: 20 °C"
    }
}