{
    "cas_no": "672-66-2",
    "key_name": "Dimethylphenylphosphine",
    "cn_name": "二甲基苯基膦;二甲基苯基磷;二甲基苯基膦;二甲基苯膦;",
    "alternate_name": "Phosphine, dimethylphenyl-;Dimethylphenylphosphine;Phenyldimethylphosphine;NSC 158474",
    "duplicated_cas_no": "706748-04-1",
    "SMILES": "P(C)(C)C1=CC=CC=C1",
    "meta_data": {
        "InChI": "InChI=1S/C8H11P/c1-9(2)8-6-4-3-5-7-8/h3-7H,1-2H3",
        "InChIKey": null,
        "Canonical SMILES": "C=1C=CC(=CC1)P(C)C",
        "Molecular Formula": "C<sub>8</sub>H<sub>11</sub>P",
        "Molecular Mass": "138.15",
        "Boiling Point": "74-75 °C",
        "Melting Point": "102 °C",
        "Density": "0.967 g/cm³ @ Temp: 20 °C"
    }
}