{
    "cas_no": "2392-68-9",
    "key_name": "3-Chlorophenyl isothiocyanate",
    "cn_name": "3-氯异硫氰酸苯酯;3-氯苯基硫代异氰酸酯;",
    "alternate_name": "Benzene, 1-chloro-3-isothiocyanato-;Isothiocyanic acid, <em>m</em>-chlorophenyl ester;1-Chloro-3-isothiocyanatobenzene;<em>m</em>-Chlorophenyl isothiocyanate;3-Chlorophenyl isothiocyanate;NSC 132371",
    "duplicated_cas_no": "1619287-31-8",
    "SMILES": "N(=C=S)C1=CC(Cl)=CC=C1",
    "meta_data": {
        "InChI": "InChI=1S/C7H4ClNS/c8-6-2-1-3-7(4-6)9-5-10/h1-4H",
        "InChIKey": null,
        "Canonical SMILES": "S=C=NC=1C=CC=C(Cl)C1",
        "Molecular Formula": "C<sub>7</sub>H<sub>4</sub>ClNS",
        "Molecular Mass": "169.63",
        "Boiling Point": "249.5 °C",
        "Density": "1.115 g/cm³"
    }
}