{
    "cas_no": "6312-73-8",
    "key_name": "6-Amino-5-bromo-2,4(1<em>H</em>,3<em>H</em>)-pyrimidinedione",
    "cn_name": null,
    "alternate_name": "2,4(1<em>H</em>,3<em>H</em>)-Pyrimidinedione, 6-amino-5-bromo-;Uracil, 6-amino-5-bromo-;6-Amino-5-bromo-2,4(1<em>H</em>,3<em>H</em>)-pyrimidinedione;6-Amino-5-bromouracil;5-Bromo-6-aminouracil;NSC 27652;NSC 40394",
    "duplicated_cas_no": "17607-05-5",
    "SMILES": "BrC1=C(N)NC(=O)NC1=O",
    "meta_data": {
        "InChI": "InChI=1S/C4H4BrN3O2/c5-1-2(6)7-4(10)8-3(1)9/h(H4,6,7,8,9,10)",
        "InChIKey": null,
        "Canonical SMILES": "O=C1NC(=O)C(Br)=C(N)N1",
        "Molecular Formula": "C<sub>4</sub>H<sub>4</sub>BrN<sub>3</sub>O<sub>2</sub>",
        "Molecular Mass": "206.00",
        "Melting Point": "&gt;320 °C"
    }
}