{
    "cas_no": "43088-67-1",
    "key_name": "4-Chloro-5-methylthieno[2,3-<em>d</em>]pyrimidine",
    "cn_name": "4-氯-5-甲基噻吩基[2,3-d!嘧啶;",
    "alternate_name": "Thieno[2,3-<em>d</em>]pyrimidine, 4-chloro-5-methyl-;4-Chloro-5-methylthieno[2,3-<em>d</em>]pyrimidine;NSC 153315;5-Methyl-4-chlorothieno[2,3-<em>d</em>]pyrimidine",
    "duplicated_cas_no": "",
    "SMILES": "ClC1=C2C(=NC=N1)SC=C2C",
    "meta_data": {
        "InChI": "InChI=1S/C7H5ClN2S/c1-4-2-11-7-5(4)6(8)9-3-10-7/h2-3H,1H3",
        "InChIKey": null,
        "Canonical SMILES": "ClC1=NC=NC=2SC=C(C12)C",
        "Molecular Formula": "C<sub>7</sub>H<sub>5</sub>ClN<sub>2</sub>S",
        "Molecular Mass": "184.65",
        "Melting Point": "140-142 °C"
    }
}