{
    "cas_no": "627-30-5",
    "key_name": "3-Chloro-1-propanol",
    "cn_name": "3-氯-1-丙醇;",
    "alternate_name": "1-Propanol, 3-chloro-;3-Chloro-1-propanol;Trimethylene chlorohydrin;1-Chloro-3-hydroxypropane;3-Chloropropanol;1-Chloro-3-propanol;3-Chloro-1-hydroxypropane;3-Chloropropyl alcohol;NSC 60190",
    "duplicated_cas_no": "",
    "SMILES": "C(CCl)CO",
    "meta_data": {
        "InChI": "InChI=1S/C3H7ClO/c4-2-1-3-5/h5H,1-3H2",
        "InChIKey": null,
        "Canonical SMILES": "ClCCCO",
        "Molecular Formula": "C<sub>3</sub>H<sub>7</sub>ClO",
        "Molecular Mass": "94.54",
        "Boiling Point": "165 °C",
        "Density": "1.1122 g/cm³"
    }
}