{
    "cas_no": "3312-60-5",
    "key_name": "<em>N</em>-Cyclohexyl-1,3-propanediamine",
    "cn_name": "N-环己基-1,3-丙二胺;",
    "alternate_name": "1,3-Propanediamine, <em>N</em><sup>1</sup>-cyclohexyl-;1,3-Propanediamine, <em>N</em>-cyclohexyl-;<em>N</em><sup>1</sup>-Cyclohexyl-1,3-propanediamine;<em>N</em>-Cyclohexyl-1,3-propylenediamine;1-(Cyclohexylamino)-3-aminopropane;<em>N</em>-(3-Aminopropyl)cyclohexylamine;<em>N</em>-Cyclohexyl-1,3-propanediamine;3-(Cyclohexylamino)-1-propylamine;<em>N</em>-Cyclohexyl-1,3-diaminopropane;3-Amino-1-(cyclohexylamino)propane;<em>N</em>-Cyclohexyltrimethylenediamine;Polycat 352;(Cyclohexylamino)propylamine;<em>N</em>-(3-Aminopropyl)cyclohexanamine;Laromin C 252;<em>N</em>-(3-Aminopropyl)-<em>N</em>-cyclohexylamine;3-(Cyclohexylamino)propylamine;NSC 87572;Baxxodur EC 252;EC 252",
    "duplicated_cas_no": "37221-91-3;152725-50-3;2044666-90-0",
    "SMILES": "N(CCCN)C1CCCCC1",
    "meta_data": {
        "InChI": "InChI=1S/C9H20N2/c10-7-4-8-11-9-5-2-1-3-6-9/h9,11H,1-8,10H2",
        "InChIKey": null,
        "Canonical SMILES": "NCCCNC1CCCCC1",
        "Molecular Formula": "C<sub>9</sub>H<sub>20</sub>N<sub>2</sub>",
        "Molecular Mass": "156.27",
        "Boiling Point": "85-89 °C @ Press: 2 Torr",
        "Melting Point": "153.7 °C"
    }
}