{
    "cas_no": "59576-30-6",
    "key_name": "2-Methyl-1-(2-pyridinyl)-1-propanone",
    "cn_name": null,
    "alternate_name": "1-Propanone, 2-methyl-1-(2-pyridinyl)-;1-Propanone, 2-methyl-1-(2-pyridyl)-;2-Methyl-1-(2-pyridinyl)-1-propanone;2-Methyl-1-(2-pyridyl)-1-propanone;Isopropyl 2-pyridyl ketone",
    "duplicated_cas_no": "",
    "SMILES": "C(C(C)C)(=O)C1=CC=CC=N1",
    "meta_data": {
        "InChI": "InChI=1S/C9H11NO/c1-7(2)9(11)8-5-3-4-6-10-8/h3-7H,1-2H3",
        "InChIKey": null,
        "Canonical SMILES": "O=C(C1=NC=CC=C1)C(C)C",
        "Molecular Formula": "C<sub>9</sub>H<sub>11</sub>NO",
        "Molecular Mass": "149.19",
        "Boiling Point": "112 °C @ Press: 30 Torr",
        "Melting Point": "179-180 °C"
    }
}