{
    "cas_no": "1299-86-1",
    "key_name": "Aluminum carbide (Al<sub>4</sub>C<sub>3</sub>)",
    "cn_name": null,
    "alternate_name": "Aluminum carbide (Al<sub>4</sub>C<sub>3</sub>);Tetraaluminum tricarbide;Aluminum carbide;ALI 03PB;Aluminum carbide (AlC<sub>0.75</sub>)",
    "duplicated_cas_no": "56320-44-6;2089425-55-6",
    "SMILES": "",
    "meta_data": {
        "InChI": "",
        "InChIKey": null,
        "Canonical SMILES": "",
        "Molecular Formula": "C<sub>3</sub>Al<sub>4</sub>",
        "Molecular Mass": "",
        "Melting Point": "2200 °C",
        "Density": "2.36 g/cm³"
    }
}