{
    "uri": "substance/pt/1299861",
    "rn": "1299-86-1",
    "name": "Aluminum carbide (Al<sub>4</sub>C<sub>3</sub>)",
    "images": [],
    "inchi": "",
    "inchiKey": "",
    "smile": "",
    "canonicalSmile": "",
    "molecularFormula": "C<sub>3</sub>Al<sub>4</sub>",
    "molecularMass": "",
    "experimentalProperties": [
        {
            "name": "Melting Point",
            "property": "2200 °C",
            "sourceNumber": 1
        },
        {
            "name": "Density",
            "property": "2.36 g/cm³",
            "sourceNumber": 2
        }
    ],
    "propertyCitations": [
        {
            "docUri": "document/pt/document/23730836",
            "sourceNumber": 1,
            "source": "Ruff, Otto; Zeitschrift fuer Anorganische und Allgemeine Chemie, (1916), 97, 312-36, CAplus"
        },
        {
            "docUri": "document/pt/document/48622087",
            "sourceNumber": 2,
            "source": "Ciupinski, Lukasz; Materials & Design, (2017), 120, 170-185, CAplus"
        }
    ],
    "synonyms": [
        "Aluminum carbide (Al<sub>4</sub>C<sub>3</sub>)",
        "Tetraaluminum tricarbide",
        "Aluminum carbide",
        "ALI 03PB",
        "Aluminum carbide (AlC<sub>0.75</sub>)"
    ],
    "replacedRns": [
        "56320-44-6",
        "2089425-55-6"
    ],
    "hasMolfile": false,
    "source": "https://commonchemistry.cas.org/detail?cas_rn=1299-86-1"
}