{
    "cas_no": "23150-65-4",
    "key_name": "<span class=\"text-smallcaps\">L</span>-Glutamic acid, 1,5-dimethyl ester, hydrochloride (1:1)",
    "cn_name": "L-谷氨酸二甲酯盐酸盐;",
    "alternate_name": "<span class=\"text-smallcaps\">L</span>-Glutamic acid, 1,5-dimethyl ester, hydrochloride (1:1);Glutamic acid, dimethyl ester, hydrochloride, <span class=\"text-smallcaps\">L</span>-;<span class=\"text-smallcaps\">L</span>-Glutamic acid, dimethyl ester, hydrochloride;Dimethyl <span class=\"text-smallcaps\">L</span>-glutamate hydrochloride;Glutamic acid dimethyl ester hydrochloride;Dimethyl glutamate hydrochloride;NSC 83254;Dimethyl (<em>S</em>)-2-aminopentanedioate hydrochloride;<span class=\"text-smallcaps\">L</span>-Glu(OMe)OMe hydrochloride;1,5-Dimethyl (2S)-2-aminopentanedioate hydrochloride",
    "duplicated_cas_no": "",
    "SMILES": "[C@H](CCC(OC)=O)(C(OC)=O)N.Cl",
    "meta_data": {
        "InChI": "InChI=1S/C7H13NO4.ClH/c1-11-6(9)4-3-5(8)7(10)12-2;/h5H,3-4,8H2,1-2H3;1H/t5-;/m0./s1",
        "InChIKey": null,
        "Canonical SMILES": "Cl.O=C(OC)CCC(N)C(=O)OC",
        "Molecular Formula": "C<sub>7</sub>H<sub>13</sub>NO<sub>4</sub>.ClH",
        "Molecular Mass": "",
        "Melting Point": "149 °C"
    }
}