{
    "cas_no": "111955-05-6",
    "key_name": "<em>rel</em>-1-Methyl (1<em>R</em>,2<em>S</em>)-1,2-cyclohexanedicarboxylate",
    "cn_name": null,
    "alternate_name": "1,2-Cyclohexanedicarboxylic acid, 1-methyl ester, (1<em>R</em>,2<em>S</em>)-<em>rel</em>-;1,2-Cyclohexanedicarboxylic acid, monomethyl ester, <em>cis</em>-(±)-;1,2-Cyclohexanedicarboxylic acid, monomethyl ester, (1<em>R</em>,2<em>S</em>)-<em>rel</em>-;<em>rel</em>-1-Methyl (1<em>R</em>,2<em>S</em>)-1,2-cyclohexanedicarboxylate;1,2-Cyclohexanedicarboxylic acid, monomethyl ester, <em>cis</em>-;<em>cis</em>-2-Carbomethoxycyclohexanecarboxylic acid;NSC 53943",
    "duplicated_cas_no": "2778-62-3",
    "SMILES": "C(OC)(=O)[C@H]1[C@@H](C(O)=O)CCCC1",
    "meta_data": {
        "InChI": "InChI=1/C9H14O4/c1-13-9(12)7-5-3-2-4-6(7)8(10)11/h6-7H,2-5H2,1H3,(H,10,11)/t6-,7+/s2",
        "InChIKey": null,
        "Canonical SMILES": "O=C(O)C1CCCCC1C(=O)OC",
        "Molecular Formula": "C<sub>9</sub>H<sub>14</sub>O<sub>4</sub>",
        "Molecular Mass": "186.21",
        "Boiling Point": "82 °C @ Press: 0.5 Torr",
        "Melting Point": "68-69 °C"
    }
}