{
    "cas_no": "16355-92-3",
    "key_name": "1,10-Diiododecane",
    "cn_name": "1,10-二碘癸烷;双碘癸烷;",
    "alternate_name": "Decane, 1,10-diiodo-;1,10-Diiododecane;Decamethylene diiodide",
    "duplicated_cas_no": "",
    "SMILES": "C(CCCCCI)CCCCI",
    "meta_data": {
        "InChI": "InChI=1S/C10H20I2/c11-9-7-5-3-1-2-4-6-8-10-12/h1-10H2",
        "InChIKey": null,
        "Canonical SMILES": "ICCCCCCCCCCI",
        "Molecular Formula": "C<sub>10</sub>H<sub>20</sub>I<sub>2</sub>",
        "Molecular Mass": "394.07",
        "Boiling Point": "187-190 °C @ Press: 10 Torr",
        "Melting Point": "28-30 °C"
    }
}