{
    "cas_no": "502-26-1",
    "key_name": "γ-Stearolactone",
    "cn_name": null,
    "alternate_name": "2(3<em>H</em>)-Furanone, dihydro-5-tetradecyl-;Octadecanoic acid, 4-hydroxy-, γ-lactone;Dihydro-5-tetradecyl-2(3<em>H</em>)-furanone;γ-Stearolactone;4-Octadecanolide;γ-Octadecalactone;NSC 34907;5-Tetradecyldihydro-2(3<em>H</em>)-furanone;5-Tetradecyl-γ-butyrolactone",
    "duplicated_cas_no": "110071-71-1",
    "SMILES": "C(CCCCCCCCCCCCC)C1CCC(=O)O1",
    "meta_data": {
        "InChI": "InChI=1S/C18H34O2/c1-2-3-4-5-6-7-8-9-10-11-12-13-14-17-15-16-18(19)20-17/h17H,2-16H2,1H3",
        "InChIKey": null,
        "Canonical SMILES": "O=C1OC(CC1)CCCCCCCCCCCCCC",
        "Molecular Formula": "C<sub>18</sub>H<sub>34</sub>O<sub>2</sub>",
        "Molecular Mass": "282.46",
        "Boiling Point": "180-190 °C @ Press: 1 Torr",
        "Melting Point": "50.1-50.3 °C"
    }
}