{
    "cas_no": "106-79-6",
    "key_name": "Dimethyl sebacate",
    "cn_name": "癸二酸二甲酯;",
    "alternate_name": "Decanedioic acid, 1,10-dimethyl ester;Sebacic acid, dimethyl ester;Decanedioic acid, dimethyl ester;Dimethyl sebacate;Dimethyl octane-1,8-dicarboxylate;Dimethyldecanedioate;Dimethyl decane-1,10-dioate;NSC 9415",
    "duplicated_cas_no": "",
    "SMILES": "C(CCCCCCCCC(OC)=O)(OC)=O",
    "meta_data": {
        "InChI": "InChI=1S/C12H22O4/c1-15-11(13)9-7-5-3-4-6-8-10-12(14)16-2/h3-10H2,1-2H3",
        "InChIKey": null,
        "Canonical SMILES": "O=C(OC)CCCCCCCCC(=O)OC",
        "Molecular Formula": "C<sub>12</sub>H<sub>22</sub>O<sub>4</sub>",
        "Molecular Mass": "230.30",
        "Boiling Point": "293 °C @ Press: 154 Torr",
        "Melting Point": "38 °C",
        "Density": "0.9944 g/cm³ @ Temp: 25 °C"
    }
}