{
    "cas_no": "400-53-3",
    "key_name": "Acetic acid, 2,2,2-trifluoro-, trimethylsilyl ester",
    "cn_name": "三氟乙酸三甲基硅酯;三甲硅烷基三氟乙酸酯;",
    "alternate_name": "Acetic acid, 2,2,2-trifluoro-, trimethylsilyl ester;Acetic acid, trifluoro-, trimethylsilyl ester;Silanol, trimethyl-, trifluoroacetate;Trimethyl(trifluoroacetato)silane;Trimethylsilyl trifluoroacetate;Trimethyl(trifluoroacetoxy)silane;(Trifluoroacetoxy)trimethylsilane",
    "duplicated_cas_no": "",
    "SMILES": "C(O[Si](C)(C)C)(C(F)(F)F)=O",
    "meta_data": {
        "InChI": "InChI=1S/C5H9F3O2Si/c1-11(2,3)10-4(9)5(6,7)8/h1-3H3",
        "InChIKey": null,
        "Canonical SMILES": "O=C(O[Si](C)(C)C)C(F)(F)F",
        "Molecular Formula": "C<sub>5</sub>H<sub>9</sub>F<sub>3</sub>O<sub>2</sub>Si",
        "Molecular Mass": "186.20",
        "Boiling Point": "88-90 °C",
        "Density": "1.078 g/cm³"
    }
}