{
    "cas_no": "7418-16-8",
    "key_name": "4,4′-(1-Methylethylidene)bis[cyclohexanone]",
    "cn_name": "2,2-二(4-羰基环己)丙烷;",
    "alternate_name": "Cyclohexanone, 4,4′-(1-methylethylidene)bis-;Cyclohexanone, 4,4′-isopropylidenedi-;4,4′-(1-Methylethylidene)bis[cyclohexanone];2,2-Bis(4-oxocyclohexyl)propane;4,4′-Isopropylidenedicyclohexanone;NSC 36631",
    "duplicated_cas_no": "",
    "SMILES": "C(C)(C)(C1CCC(=O)CC1)C2CCC(=O)CC2",
    "meta_data": {
        "InChI": "InChI=1S/C15H24O2/c1-15(2,11-3-7-13(16)8-4-11)12-5-9-14(17)10-6-12/h11-12H,3-10H2,1-2H3",
        "InChIKey": null,
        "Canonical SMILES": "O=C1CCC(CC1)C(C)(C)C2CCC(=O)CC2",
        "Molecular Formula": "C<sub>15</sub>H<sub>24</sub>O<sub>2</sub>",
        "Molecular Mass": "236.35",
        "Melting Point": "162.5-163 °C"
    }
}