{
    "cas_no": "73746-45-9",
    "key_name": "5-Iodo-2-methyl-1<em>H</em>-imidazole",
    "cn_name": null,
    "alternate_name": "1<em>H</em>-Imidazole, 5-iodo-2-methyl-;1<em>H</em>-Imidazole, 4-iodo-2-methyl-;5-Iodo-2-methyl-1<em>H</em>-imidazole;4-Iodo-2-methylimidazole;4-Iodo-2-methyl-1<em>H</em>-imidazole",
    "duplicated_cas_no": "",
    "SMILES": "IC=1NC(C)=NC1",
    "meta_data": {
        "InChI": "InChI=1S/C4H5IN2/c1-3-6-2-4(5)7-3/h2H,1H3,(H,6,7)",
        "InChIKey": null,
        "Canonical SMILES": "IC1=CN=C(N1)C",
        "Molecular Formula": "C<sub>4</sub>H<sub>5</sub>IN<sub>2</sub>",
        "Molecular Mass": "208.00",
        "Melting Point": "144-145 °C"
    }
}