{
    "cas_no": "4894-75-1",
    "key_name": "4-Phenylcyclohexanone",
    "cn_name": "4-苯基环己酮;",
    "alternate_name": "Cyclohexanone, 4-phenyl-;4-Phenylcyclohexanone;NSC 28473;4-Phenyl-1-cyclohexanone",
    "duplicated_cas_no": "",
    "SMILES": "O=C1CCC(CC1)C2=CC=CC=C2",
    "meta_data": {
        "InChI": "InChI=1S/C12H14O/c13-12-8-6-11(7-9-12)10-4-2-1-3-5-10/h1-5,11H,6-9H2",
        "InChIKey": null,
        "Canonical SMILES": "O=C1CCC(C=2C=CC=CC2)CC1",
        "Molecular Formula": "C<sub>12</sub>H<sub>14</sub>O",
        "Molecular Mass": "174.24",
        "Boiling Point": "158-160 °C @ Press: 12 Torr",
        "Melting Point": "78-81 °C"
    }
}