{
    "cas_no": "42729-56-6",
    "key_name": "1-(1-Methylethyl)-3-pyrrolidinol",
    "cn_name": "1-异丙基-3-羟基吡咯烷醇;",
    "alternate_name": "3-Pyrrolidinol, 1-(1-methylethyl)-;3-Pyrrolidinol, 1-isopropyl-;1-(1-Methylethyl)-3-pyrrolidinol;1-Isopropyl-3-pyrrolidinol;<em>N</em>-Isopropyl-3-hydroxypyrrolidine;3-Hydroxy-1-isopropylpyrrolidine;<em>N</em>-Isopropylpyrrolidin-3-ol;1-(Propan-2-yl)pyrrolidin-3-ol;1-Propan-2-ylpyrrolidin-3-ol",
    "duplicated_cas_no": "50470-29-6",
    "SMILES": "C(C)(C)N1CC(O)CC1",
    "meta_data": {
        "InChI": "InChI=1S/C7H15NO/c1-6(2)8-4-3-7(9)5-8/h6-7,9H,3-5H2,1-2H3",
        "InChIKey": null,
        "Canonical SMILES": "OC1CN(CC1)C(C)C",
        "Molecular Formula": "C<sub>7</sub>H<sub>15</sub>NO",
        "Molecular Mass": "129.20",
        "Boiling Point": "98 °C @ Press: 13 Torr"
    }
}