{
    "cas_no": "452-67-5",
    "key_name": "1,4-Difluoro-2-methylbenzene",
    "cn_name": "2,5-二氟甲苯;",
    "alternate_name": "Benzene, 1,4-difluoro-2-methyl-;Toluene, 2,5-difluoro-;1,4-Difluoro-2-methylbenzene;2,5-Difluorotoluene;NSC 25757",
    "duplicated_cas_no": "",
    "SMILES": "CC1=C(F)C=CC(F)=C1",
    "meta_data": {
        "InChI": "InChI=1S/C7H6F2/c1-5-4-6(8)2-3-7(5)9/h2-4H,1H3",
        "InChIKey": null,
        "Canonical SMILES": "FC1=CC=C(F)C(=C1)C",
        "Molecular Formula": "C<sub>7</sub>H<sub>6</sub>F<sub>2</sub>",
        "Molecular Mass": "128.12",
        "Boiling Point": "117 °C"
    }
}