{
    "cas_no": "12025-34-2",
    "key_name": "Germanium sulfide (GeS<sub>2</sub>)",
    "cn_name": null,
    "alternate_name": "Germanium sulfide (GeS<sub>2</sub>);Germanium sulfide (Ge<sub>0.33</sub>S<sub>0.67</sub>);Germanium disulfide",
    "duplicated_cas_no": "145114-12-1;145114-13-2",
    "SMILES": "[Ge](=S)=S",
    "meta_data": {
        "InChI": "InChI=1S/GeS2/c2-1-3",
        "InChIKey": null,
        "Canonical SMILES": "S=[Ge]=S",
        "Molecular Formula": "GeS<sub>2</sub>",
        "Molecular Mass": "136.77",
        "Melting Point": "825 °C",
        "Density": "2.34 g/cm³"
    }
}