{
    "cas_no": "301-00-8",
    "key_name": "Methyl linolenate",
    "cn_name": null,
    "alternate_name": "9,12,15-Octadecatrienoic acid, methyl ester, (9<em>Z</em>,12<em>Z</em>,15<em>Z</em>)-;Linolenic acid, methyl ester;9,12,15-Octadecatrienoic acid, methyl ester, (<em>Z</em>,<em>Z</em>,<em>Z</em>)-;Methyl linolenate;Methyl <em>all</em>-<em>cis</em>-9,12,15-octadecatrienoate;α-Linolenic acid methyl ester;Methyl (9<em>Z</em>,12<em>Z</em>,15<em>Z</em>)-octadecatrienoate;Methyl α-linolenate;Methyl <em>cis</em>,<em>cis</em>,<em>cis</em>-octadeca-9,12,15-trienoate;9<em>Z</em>,12<em>Z</em>,15<em>Z</em>-Octadecatrienoic acid methyl ester;(<em>Z</em>,<em>Z</em>,<em>Z</em>)-9,12,15-Octadecatrienoic acid methyl ester;Methyl (9<em>Z</em>,12<em>Z</em>,15<em>Z</em>)-9,12,15-octadecatrienoate;Methyl (<em>Z</em>,<em>Z</em>,<em>Z</em>)-9,12,15-octadecatrienoate",
    "duplicated_cas_no": "",
    "SMILES": "C(CC/C=C\\C/C=C\\C/C=C\\CC)CCCCC(OC)=O",
    "meta_data": {
        "InChI": "InChI=1S/C19H32O2/c1-3-4-5-6-7-8-9-10-11-12-13-14-15-16-17-18-19(20)21-2/h4-5,7-8,10-11H,3,6,9,12-18H2,1-2H3/b5-4-,8-7-,11-10-",
        "InChIKey": null,
        "Canonical SMILES": "O=C(OC)CCCCCCCC=CCC=CCC=CCC",
        "Molecular Formula": "C<sub>19</sub>H<sub>32</sub>O<sub>2</sub>",
        "Molecular Mass": "292.46",
        "Boiling Point": "182 °C",
        "Melting Point": "-57 °C",
        "Density": "0.8982 g/cm³ @ Temp: 20 °C"
    }
}