{
    "cas_no": "826-36-8",
    "key_name": "2,2,6,6-Tetramethyl-4-piperidone",
    "cn_name": "四甲基哌啶酮;2,2,6,6-四甲基-4-哌啶酮;三丙酮胺;",
    "alternate_name": "4-Piperidinone, 2,2,6,6-tetramethyl-;4-Piperidone, 2,2,6,6-tetramethyl-;2,2,6,6-Tetramethyl-4-piperidinone;2,2,6,6-Tetramethyl-4-piperidone;Triacetonamine;2,2,6,6-Tetramethyl-4-oxopiperidine;Triacetonamin;Vincubine;Vincubina;4-Oxo-2,2,6,6-tetramethylpiperidine;Odoratine;IKh 196;NSC 16579;TEMP;Violine;Tetramethylpiperidone",
    "duplicated_cas_no": "59217-40-2",
    "SMILES": "CC1(C)NC(C)(C)CC(=O)C1",
    "meta_data": {
        "InChI": "InChI=1S/C9H17NO/c1-8(2)5-7(11)6-9(3,4)10-8/h10H,5-6H2,1-4H3",
        "InChIKey": null,
        "Canonical SMILES": "O=C1CC(NC(C)(C)C1)(C)C",
        "Molecular Formula": "C<sub>9</sub>H<sub>17</sub>NO",
        "Molecular Mass": "155.24",
        "Boiling Point": "205 °C",
        "Melting Point": "36 °C"
    }
}