{
    "cas_no": "446-48-0",
    "key_name": "2-Fluorobenzyl bromide",
    "cn_name": "2-氟溴苄;",
    "alternate_name": "Benzene, 1-(bromomethyl)-2-fluoro-;Toluene, α-bromo-<em>o</em>-fluoro-;1-(Bromomethyl)-2-fluorobenzene;α-Bromo-2-fluorotoluene;2-Fluorobenzyl bromide;<em>o</em>-Fluorobenzyl bromide;2-(Bromomethyl)fluorobenzene;1-Fluoro-2-(bromomethyl)benzene",
    "duplicated_cas_no": "",
    "SMILES": "C(Br)C1=C(F)C=CC=C1",
    "meta_data": {
        "InChI": "InChI=1S/C7H6BrF/c8-5-6-3-1-2-4-7(6)9/h1-4H,5H2",
        "InChIKey": null,
        "Canonical SMILES": "FC=1C=CC=CC1CBr",
        "Molecular Formula": "C<sub>7</sub>H<sub>6</sub>BrF",
        "Molecular Mass": "189.02",
        "Boiling Point": "84-85 °C @ Press: 16 Torr"
    }
}