{
    "cas_no": "77123-58-1",
    "key_name": "2-[2-(Trimethylsilyl)ethynyl]benzaldehyde",
    "cn_name": "2-[(三甲基甲硅烷基)乙炔基苯甲醛;",
    "alternate_name": "Benzaldehyde, 2-[2-(trimethylsilyl)ethynyl]-;Benzaldehyde, 2-[(trimethylsilyl)ethynyl]-;2-[2-(Trimethylsilyl)ethynyl]benzaldehyde;2-[(Trimethylsilyl)ethynyl]benzaldehyde;2-Trimethylsilanylethynylbenzaldehyde",
    "duplicated_cas_no": "",
    "SMILES": "C(#C[Si](C)(C)C)C1=C(C=O)C=CC=C1",
    "meta_data": {
        "InChI": "InChI=1S/C12H14OSi/c1-14(2,3)9-8-11-6-4-5-7-12(11)10-13/h4-7,10H,1-3H3",
        "InChIKey": null,
        "Canonical SMILES": "O=CC=1C=CC=CC1C#C[Si](C)(C)C",
        "Molecular Formula": "C<sub>12</sub>H<sub>14</sub>OSi",
        "Molecular Mass": "202.32",
        "Boiling Point": "105 °C @ Press: 3 Torr",
        "Melting Point": "47-48 °C"
    }
}