{
    "cas_no": "1499-10-1",
    "key_name": "9,10-Diphenylanthracene",
    "cn_name": "9,10-二联苯蒽;9,10-二苯基蒽;",
    "alternate_name": "Anthracene, 9,10-diphenyl-;9,10-Diphenylanthracene;DPA;NSC 24861;Cyalume Blue",
    "duplicated_cas_no": "65166-75-8",
    "SMILES": "C=1(C2=C(C(=C3C1C=CC=C3)C4=CC=CC=C4)C=CC=C2)C5=CC=CC=C5",
    "meta_data": {
        "InChI": "InChI=1S/C26H18/c1-3-11-19(12-4-1)25-21-15-7-9-17-23(21)26(20-13-5-2-6-14-20)24-18-10-8-16-22(24)25/h1-18H",
        "InChIKey": null,
        "Canonical SMILES": "C=1C=CC(=CC1)C=2C=3C=CC=CC3C(C=4C=CC=CC4)=C5C=CC=CC52",
        "Molecular Formula": "C<sub>26</sub>H<sub>18</sub>",
        "Molecular Mass": "330.42",
        "Melting Point": "246 °C"
    }
}