{
    "cas_no": "628-13-7",
    "key_name": "Pyridinium chloride",
    "cn_name": "吡啶盐酸盐;",
    "alternate_name": "Pyridine, hydrochloride (1:1);Pyridine, hydrochloride;Pyridinium chloride",
    "duplicated_cas_no": "1089313-48-3",
    "SMILES": "C=1C=CN=CC1.Cl",
    "meta_data": {
        "InChI": "InChI=1S/C5H5N.ClH/c1-2-4-6-5-3-1;/h1-5H;1H",
        "InChIKey": null,
        "Canonical SMILES": "Cl.N=1C=CC=CC1",
        "Molecular Formula": "C<sub>5</sub>H<sub>5</sub>N.ClH",
        "Molecular Mass": "",
        "Boiling Point": "222 °C",
        "Melting Point": "146 °C"
    }
}