{
    "cas_no": "10421-48-4",
    "key_name": "Ferric nitrate",
    "cn_name": "硝酸铁;硝酸高铁;",
    "alternate_name": "Nitric acid, iron(3+) salt (3:1);Nitric acid, iron(3+) salt;Ferric nitrate;Iron nitrate (Fe(NO<sub>3</sub>)<sub>3</sub>);Iron trinitrate;Iron(III) nitrate;Gazhazot;FN 376;Anaerite 263Hi",
    "duplicated_cas_no": "23032-72-6;959928-40-6;1313195-45-7;2688757-97-1;2768521-04-4",
    "SMILES": "N(=O)(=O)O.[Fe]",
    "meta_data": {
        "InChI": "InChI=1S/Fe.HNO3/c;2-1(3)4/h;(H,2,3,4)",
        "InChIKey": null,
        "Canonical SMILES": "[Fe].O=N(=O)O",
        "Molecular Formula": "Fe.3HNO<sub>3</sub>",
        "Molecular Mass": "",
        "Melting Point": "47 °C"
    }
}