{
    "cas_no": "378-75-6",
    "key_name": "Methyl 2,2,3,3,3-pentafluoropropanoate",
    "cn_name": "五氟丙酸甲酯;",
    "alternate_name": "Propanoic acid, 2,2,3,3,3-pentafluoro-, methyl ester;Propionic acid, pentafluoro-, methyl ester;Propanoic acid, pentafluoro-, methyl ester;Methyl 2,2,3,3,3-pentafluoropropanoate;Methyl pentafluoropropionate;Methyl perfluoropropionate;Methyl 2,2,3,3,3-pentafluoropropionate;Methyl pentafluoropropanoate",
    "duplicated_cas_no": "",
    "SMILES": "C(C(OC)=O)(C(F)(F)F)(F)F",
    "meta_data": {
        "InChI": "InChI=1S/C4H3F5O2/c1-11-2(10)3(5,6)4(7,8)9/h1H3",
        "InChIKey": null,
        "Canonical SMILES": "O=C(OC)C(F)(F)C(F)(F)F",
        "Molecular Formula": "C<sub>4</sub>H<sub>3</sub>F<sub>5</sub>O<sub>2</sub>",
        "Molecular Mass": "178.06",
        "Boiling Point": "59.5 °C",
        "Density": "1.393 g/cm³ @ Temp: 20 °C"
    }
}