{
    "cas_no": "20175-84-2",
    "key_name": "Isodiospyrin",
    "cn_name": null,
    "alternate_name": "[1,2′-Binaphthalene]-5,5′,8,8′-tetrone, 1′,4-dihydroxy-2,3′-dimethyl-, (1<em>R</em>)-;[1,2′-Binaphthalene]-5,5′,8,8′-tetrone, 1′,4-dihydroxy-2,3′-dimethyl-, (<em>R</em>)-;(1<em>R</em>)-1′,4-Dihydroxy-2,3′-dimethyl[1,2′-binaphthalene]-5,5′,8,8′-tetrone;Isodiospyrin;(-)-Isodiospyrin",
    "duplicated_cas_no": "17669-62-4",
    "SMILES": "CC=1C(=C2C(=C(O)C1)C(=O)C=CC2=O)C=3C(O)=C4C(=CC3C)C(=O)C=CC4=O",
    "meta_data": {
        "InChI": "InChI=1S/C22H14O6/c1-9-7-11-12(23)3-4-13(24)19(11)22(28)18(9)17-10(2)8-16(27)20-14(25)5-6-15(26)21(17)20/h3-8,27-28H,1-2H3",
        "InChIKey": null,
        "Canonical SMILES": "O=C1C=CC(=O)C2=C(O)C(C3=C4C(=O)C=CC(=O)C4=C(O)C=C3C)=C(C=C12)C",
        "Molecular Formula": "C<sub>22</sub>H<sub>14</sub>O<sub>6</sub>",
        "Molecular Mass": "374.34",
        "Melting Point": "233 °C"
    }
}