{
    "cas_no": "3128-06-1",
    "key_name": "5-Oxohexanoic acid",
    "cn_name": "5-氧代己酸;4-乙酰丁酸;",
    "alternate_name": "Hexanoic acid, 5-oxo-;Caproic acid, δ-oxo-;5-Oxohexanoic acid;5-Ketohexanoic acid;δ-Ketocaproic acid;γ-Acetylbutyric acid;δ-Oxocaproic acid;4-Acetylbutyric acid;5-Ketocaproic acid;5-Oxocaproic acid;δ-Ketohexanoic acid;NSC 5281",
    "duplicated_cas_no": "",
    "SMILES": "C(CC(C)=O)CC(O)=O",
    "meta_data": {
        "InChI": "InChI=1S/C6H10O3/c1-5(7)3-2-4-6(8)9/h2-4H2,1H3,(H,8,9)",
        "InChIKey": null,
        "Canonical SMILES": "O=C(O)CCCC(=O)C",
        "Molecular Formula": "C<sub>6</sub>H<sub>10</sub>O<sub>3</sub>",
        "Molecular Mass": "130.14",
        "Boiling Point": "274.5 °C",
        "Melting Point": "13.5 °C",
        "Density": "1.1100 g/cm³ @ Temp: 20 °C"
    }
}