{
    "cas_no": "3332-29-4",
    "key_name": "<em>O</em>-Ethylhydroxylamine hydrochloride",
    "cn_name": "乙氧基胺盐酸盐;",
    "alternate_name": "Hydroxylamine, <em>O</em>-ethyl-, hydrochloride (1:1);Hydroxylamine, <em>O</em>-ethyl-, hydrochloride;Ethoxyamine, hydrochloride;<em>O</em>-Ethylhydroxylamine hydrochloride;Ethoxamine hydrochloride;Ethoxyammonium chloride;<em>N</em>-Ethoxyamine hydrochloride;Ethoxylamine hydrochloride;(Aminooxy)ethane hydrochloride",
    "duplicated_cas_no": "188720-08-3;253880-86-3",
    "SMILES": "C(ON)C.Cl",
    "meta_data": {
        "InChI": "InChI=1S/C2H7NO.ClH/c1-2-4-3;/h2-3H2,1H3;1H",
        "InChIKey": null,
        "Canonical SMILES": "Cl.O(N)CC",
        "Molecular Formula": "C<sub>2</sub>H<sub>7</sub>NO.ClH",
        "Molecular Mass": "",
        "Melting Point": "126 °C"
    }
}