{
    "cas_no": "14401-75-3",
    "key_name": "1-(3,5-Dinitrophenyl)ethanone",
    "cn_name": "3,5-二硝基乙酰苯;",
    "alternate_name": "Ethanone, 1-(3,5-dinitrophenyl)-;Acetophenone, 3′,5′-dinitro-;1-(3,5-Dinitrophenyl)ethanone;3,5-Dinitroacetophenone;3′,5′-Dinitroacetophenone;NSC 87635",
    "duplicated_cas_no": "",
    "SMILES": "C(C)(=O)C1=CC(N(=O)=O)=CC(N(=O)=O)=C1",
    "meta_data": {
        "InChI": "InChI=1S/C8H6N2O5/c1-5(11)6-2-7(9(12)13)4-8(3-6)10(14)15/h2-4H,1H3",
        "InChIKey": null,
        "Canonical SMILES": "O=C(C=1C=C(C=C(C1)N(=O)=O)N(=O)=O)C",
        "Molecular Formula": "C<sub>8</sub>H<sub>6</sub>N<sub>2</sub>O<sub>5</sub>",
        "Molecular Mass": "210.14",
        "Melting Point": "74-76 °C"
    }
}