{
    "cas_no": "3972-26-7",
    "key_name": "2-Propan-<em>2</em>-<em>d</em>-ol",
    "cn_name": "2-丙醇-2-d1;",
    "alternate_name": "2-Propan-<em>2</em>-<em>d</em>-ol;Isopropyl-<em>1</em>-<em>d</em> alcohol;2-Deuterioisopropanol;2-Deuterio-2-propanol;2-Propanol-<em>2</em>-<em>d</em><sub>1</sub>;Propan-<em>2</em>-<em>d</em>-2-ol",
    "duplicated_cas_no": "",
    "SMILES": "C(C)(C)(O)[2H]",
    "meta_data": {
        "InChI": "InChI=1S/C3H8O/c1-3(2)4/h3-4H,1-2H3/i3D",
        "InChIKey": null,
        "Canonical SMILES": "OC(C)C",
        "Molecular Formula": "C<sub>3</sub>H<sub>7</sub>DO",
        "Molecular Mass": "",
        "Boiling Point": "80-82 °C"
    }
}