{
    "cas_no": "99-94-5",
    "key_name": "<em>p</em>-Toluic acid",
    "cn_name": "对甲基苯甲酸;",
    "alternate_name": "Benzoic acid, 4-methyl-;<em>p</em>-Toluic acid;4-Methylbenzoic acid;Crithminic acid;<em>p</em>-Methylbenzoic acid;<em>p</em>-Carboxytoluene;<em>p</em>-Tolylcarboxylic acid;<em>p</em>-Toluylic acid;NSC 2215",
    "duplicated_cas_no": "852148-36-8",
    "SMILES": "C(O)(=O)C1=CC=C(C)C=C1",
    "meta_data": {
        "InChI": "InChI=1S/C8H8O2/c1-6-2-4-7(5-3-6)8(9)10/h2-5H,1H3,(H,9,10)",
        "InChIKey": null,
        "Canonical SMILES": "O=C(O)C1=CC=C(C=C1)C",
        "Molecular Formula": "C<sub>8</sub>H<sub>8</sub>O<sub>2</sub>",
        "Molecular Mass": "136.15",
        "Melting Point": "179.6 °C",
        "Density": "1.251 g/cm³"
    }
}