{
    "cas_no": "170850-75-6",
    "key_name": "1,2-Bis(1,1-dimethylethyl) (2<em>S</em>,4<em>R</em>)-4-hydroxy-1,2-pyrrolidinedicarboxylate",
    "cn_name": null,
    "alternate_name": "1,2-Pyrrolidinedicarboxylic acid, 4-hydroxy-, 1,2-bis(1,1-dimethylethyl) ester, (2<em>S</em>,4<em>R</em>)-;1,2-Pyrrolidinedicarboxylic acid, 4-hydroxy-, bis(1,1-dimethylethyl) ester, (2<em>S</em>-<em>trans</em>)-;1,2-Pyrrolidinedicarboxylic acid, 4-hydroxy-, bis(1,1-dimethylethyl) ester, (2<em>S</em>,4<em>R</em>)-;1,2-Bis(1,1-dimethylethyl) (2<em>S</em>,4<em>R</em>)-4-hydroxy-1,2-pyrrolidinedicarboxylate;<em>N</em>-<em>tert</em>-Butoxycarbonyl-<span class=\"text-smallcaps\">L</span>-hydroxyproline tert-butyl ester;(2<em>S</em>,4<em>R</em>)-4-Hydroxypyrrolidine-1,2-dicarboxylic acid di-<em>tert</em>-butyl ester;<em>tert</em>-Butyl (2<em>S</em>,4<em>R</em>)-<em>N</em>-Boc-<em>trans</em>-4-hydroxyprolinate;Ditert-butyl (2S,4R)-4-hydroxypyrrolidine-1,2-dicarboxylate",
    "duplicated_cas_no": "1192036-36-4",
    "SMILES": "C(OC(C)(C)C)(=O)[C@H]1N(C(OC(C)(C)C)=O)C[C@H](O)C1",
    "meta_data": {
        "InChI": "InChI=1S/C14H25NO5/c1-13(2,3)19-11(17)10-7-9(16)8-15(10)12(18)20-14(4,5)6/h9-10,16H,7-8H2,1-6H3/t9-,10+/m1/s1",
        "InChIKey": null,
        "Canonical SMILES": "O=C(OC(C)(C)C)N1CC(O)CC1C(=O)OC(C)(C)C",
        "Molecular Formula": "C<sub>14</sub>H<sub>25</sub>NO<sub>5</sub>",
        "Molecular Mass": "287.35",
        "Melting Point": "62-64 °C"
    }
}