{
    "cas_no": "307-35-7",
    "key_name": "Perfluorooctanesulfonyl fluoride",
    "cn_name": "全氟辛基磺酰氟;FX-8;",
    "alternate_name": "1-Octanesulfonyl fluoride, 1,1,2,2,3,3,4,4,5,5,6,6,7,7,8,8,8-heptadecafluoro-;1-Octanesulfonyl fluoride, heptadecafluoro-;1,1,2,2,3,3,4,4,5,5,6,6,7,7,8,8,8-Heptadecafluoro-1-octanesulfonyl fluoride;Perfluorooctylsulfonyl fluoride;<em>n</em>-Perfluorooctanesulfonyl fluoride;Perfluorooctanesulfonyl fluoride;Perfluoro-1-octanesulfonyl fluoride;FX 8;Fluorad FX 8;1,1,2,2,3,3,4,4,5,5,6,6,7,7,8,8,8-Heptadecafluoro-octanesulfonyl fluoride",
    "duplicated_cas_no": "",
    "SMILES": "C(C(C(C(C(F)(F)F)(F)F)(F)F)(F)F)(C(C(C(S(F)(=O)=O)(F)F)(F)F)(F)F)(F)F",
    "meta_data": {
        "InChI": "InChI=1S/C8F18O2S/c9-1(10,3(13,14)5(17,18)7(21,22)23)2(11,12)4(15,16)6(19,20)8(24,25)29(26,27)28",
        "InChIKey": null,
        "Canonical SMILES": "O=S(=O)(F)C(F)(F)C(F)(F)C(F)(F)C(F)(F)C(F)(F)C(F)(F)C(F)(F)C(F)(F)F",
        "Molecular Formula": "C<sub>8</sub>F<sub>18</sub>O<sub>2</sub>S",
        "Molecular Mass": "502.12",
        "Boiling Point": "154.5 °C @ Press: 744 Torr"
    }
}