{
    "cas_no": "625-86-5",
    "key_name": "2,5-Dimethylfuran",
    "cn_name": "2,5-二甲基呋喃;",
    "alternate_name": "Furan, 2,5-dimethyl-;2,5-Dimethylfuran;NSC 6220;2-Methyl-5-methylfuran",
    "duplicated_cas_no": "",
    "SMILES": "CC=1OC(C)=CC1",
    "meta_data": {
        "InChI": "InChI=1S/C6H8O/c1-5-3-4-6(2)7-5/h3-4H,1-2H3",
        "InChIKey": null,
        "Canonical SMILES": "O1C(=CC=C1C)C",
        "Molecular Formula": "C<sub>6</sub>H<sub>8</sub>O",
        "Molecular Mass": "96.13",
        "Boiling Point": "93.5 °C",
        "Melting Point": "-62.8 °C",
        "Density": "0.9000 g/cm³ @ Temp: 20 °C"
    }
}