{
    "cas_no": "128-63-2",
    "key_name": "1,3,6,8-Tetrabromopyrene",
    "cn_name": null,
    "alternate_name": "Pyrene, 1,3,6,8-tetrabromo-;1,3,6,8-Tetrabromopyrene;Pyrene, 1,3,6,8-tetrabromo-1,9-dihydro-",
    "duplicated_cas_no": "2364454-63-5",
    "SMILES": "BrC1=C2C3=C4C(C(Br)=CC(Br)=C4C=C2)=CC=C3C(Br)=C1",
    "meta_data": {
        "InChI": "InChI=1S/C16H6Br4/c17-11-5-13(19)9-3-4-10-14(20)6-12(18)8-2-1-7(11)15(9)16(8)10/h1-6H",
        "InChIKey": null,
        "Canonical SMILES": "BrC1=CC(Br)=C2C=CC3=C(Br)C=C(Br)C4=CC=C1C2=C43",
        "Molecular Formula": "C<sub>16</sub>H<sub>6</sub>Br<sub>4</sub>",
        "Molecular Mass": "517.83",
        "Melting Point": "&gt;300 °C"
    }
}