{
    "cas_no": "592-50-7",
    "key_name": "1-Fluoropentane",
    "cn_name": "1-氟代戊烷;戊烷基氟;",
    "alternate_name": "Pentane, 1-fluoro-;1-Fluoropentane;Pentyl fluoride;<em>n</em>-Amyl fluoride",
    "duplicated_cas_no": "",
    "SMILES": "C(CCF)CC",
    "meta_data": {
        "InChI": "InChI=1S/C5H11F/c1-2-3-4-5-6/h2-5H2,1H3",
        "InChIKey": null,
        "Canonical SMILES": "FCCCCC",
        "Molecular Formula": "C<sub>5</sub>H<sub>11</sub>F",
        "Molecular Mass": "90.14",
        "Boiling Point": "62.8 °C",
        "Melting Point": "-120 °C",
        "Density": "0.7960 g/cm³ @ Temp: 10.5 °C"
    }
}