{
    "cas_no": "1011-13-8",
    "key_name": "1-(2-Bromophenyl)piperazine",
    "cn_name": "1-(2-溴苯基)哌嗪;",
    "alternate_name": "Piperazine, 1-(2-bromophenyl)-;Piperazine, 1-(<em>o</em>-bromophenyl)-;1-(2-Bromophenyl)piperazine",
    "duplicated_cas_no": "",
    "SMILES": "BrC1=C(N2CCNCC2)C=CC=C1",
    "meta_data": {
        "InChI": "InChI=1S/C10H13BrN2/c11-9-3-1-2-4-10(9)13-7-5-12-6-8-13/h1-4,12H,5-8H2",
        "InChIKey": null,
        "Canonical SMILES": "BrC=1C=CC=CC1N2CCNCC2",
        "Molecular Formula": "C<sub>10</sub>H<sub>13</sub>BrN<sub>2</sub>",
        "Molecular Mass": "241.13",
        "Boiling Point": "109-113 °C @ Press: 0.35 Torr"
    }
}