{
    "cas_no": "3486-67-7",
    "key_name": "Palmatine",
    "cn_name": "黄藤素;巴马汀;",
    "alternate_name": "Dibenzo[<em>a</em>,<em>g</em>]quinolizinium, 5,6-dihydro-2,3,9,10-tetramethoxy-;Berbinium, 7,8,13,13a-tetradehydro-2,3,9,10-tetramethoxy-;Palmatine;5,6-Dihydro-2,3,9,10-tetramethoxydibenzo[<em>a</em>,<em>g</em>]quinolizinium;Berbericinine;<em>O</em>,<em>O</em>-Dimethyldemethyleneberberine;Depiline;Fibrauretin;Huang Teng Su;Fibrauretine;2,3,9,10-Tetramethoxy-5,6-dihydroisoquinolino[2,1-<em>b</em>]isoquinolin-7-ium",
    "duplicated_cas_no": "11049-99-3;123363-46-2;947323-43-5;2832957-77-2",
    "SMILES": "O(C)C=1C=C2C=3[N+](=CC=4C(C3)=CC=C(OC)C4OC)CCC2=CC1OC",
    "meta_data": {
        "InChI": "InChI=1S/C21H22NO4/c1-23-18-6-5-13-9-17-15-11-20(25-3)19(24-2)10-14(15)7-8-22(17)12-16(13)21(18)26-4/h5-6,9-12H,7-8H2,1-4H3/q+1",
        "InChIKey": null,
        "Canonical SMILES": "O(C=1C=CC2=CC=3C4=CC(OC)=C(OC)C=C4CC[N+]3C=C2C1OC)C",
        "Molecular Formula": "C<sub>21</sub>H<sub>22</sub>NO<sub>4</sub>",
        "Molecular Mass": "",
        "Melting Point": "187-189 °C"
    }
}