{
    "cas_no": "1073-05-8",
    "key_name": "1,3,2-Dioxathiane, 2,2-dioxide",
    "cn_name": "硫酸丙烯酯;硫酸亚丙酯;1,3,2-二氧硫杂环己烷-2,2-二氧化物;",
    "alternate_name": "1,3,2-Dioxathiane, 2,2-dioxide;Trimethylene sulfate;1,3-Propanediol, cyclic sulfate;1,3-Propylene sulfate;Propano-1,3-diyl sulfate;NSC 526595;1,3,2λ6-Dioxathiane-2,2-dione",
    "duplicated_cas_no": "",
    "SMILES": "O=S1(=O)OCCCO1",
    "meta_data": {
        "InChI": "InChI=1S/C3H6O4S/c4-8(5)6-2-1-3-7-8/h1-3H2",
        "InChIKey": null,
        "Canonical SMILES": "O=S1(=O)OCCCO1",
        "Molecular Formula": "C<sub>3</sub>H<sub>6</sub>O<sub>4</sub>S",
        "Molecular Mass": "138.14",
        "Boiling Point": "153 °C @ Press: 14 Torr",
        "Melting Point": "63 °C"
    }
}