{
    "cas_no": "592-27-8",
    "key_name": "2-Methylheptane",
    "cn_name": null,
    "alternate_name": "Heptane, 2-methyl-;2-Methylheptane;NSC 24844",
    "duplicated_cas_no": "",
    "SMILES": "C(CCCC)C(C)C",
    "meta_data": {
        "InChI": "InChI=1S/C8H18/c1-4-5-6-7-8(2)3/h8H,4-7H2,1-3H3",
        "InChIKey": null,
        "Canonical SMILES": "CCCCCC(C)C",
        "Molecular Formula": "C<sub>8</sub>H<sub>18</sub>",
        "Molecular Mass": "114.23",
        "Boiling Point": "116 °C",
        "Melting Point": "-109 °C",
        "Density": "0.698 g/cm³"
    }
}