{
    "cas_no": "94-63-3",
    "key_name": "Pralidoxime iodide",
    "cn_name": "碘解磷啶;2-[(羟基亚氨基)甲基]-1-甲基吡啶鎓碘化物;1-甲基吡啶-2-醛肟碘化物;",
    "alternate_name": "Pyridinium, 2-[(hydroxyimino)methyl]-1-methyl-, iodide (1:1);2-Formyl-1-methylpyridinium iodide oxime;Pyridinium, 2-formyl-1-methyl-, iodide, oxime;Pyridinium, 2-[(hydroxyimino)methyl]-1-methyl-, iodide;2-PAM;1-Methyl-2-aldoximinopyridinium iodide;1-Methyl-2-hydroxyiminomethylpyridinium iodide;<em>N</em>-Methylpyridinium-2-aldoxime iodide;PAM;Pralidoxime iodide;Protopam iodide;2-Pyridine aldoxime iodomethylate;2-Pyridinealdoxime methiodide;2-Pyridine aldoxymethiodide;PAM (pharmaceutical);2-Hydroxyiminomethyl-1-methylpyridinium iodide;<em>N</em>-Methylpyridine-2-aldoxime iodide;Pyridinium-2-aldoxime <em>N</em>-methyliodide;Pralidoxime methiodide;2-Pyridine aldoxime methyl iodide;2-Pyridinecarboxaldehyde aldoxime methiodide;2-Pyridylaldoxime methiodide;Pyridine aldoxime methiodide;2-(Hydroximinomethyl)-1-methylpyridinium iodide;2-PAM iodide;2-Pyridinaldoxime methiodide;Pralidoxime iodomethylate",
    "duplicated_cas_no": "",
    "SMILES": "C(=NO)C=1[N+](C)=CC=CC1.[I-]",
    "meta_data": {
        "InChI": "InChI=1S/C7H8N2O.HI/c1-9-5-3-2-4-7(9)6-8-10;/h2-6H,1H3;1H",
        "InChIKey": null,
        "Canonical SMILES": "[I-].ON=CC=1C=CC=C[N+]1C",
        "Molecular Formula": "C<sub>7</sub>H<sub>9</sub>N<sub>2</sub>O.I",
        "Molecular Mass": "",
        "Melting Point": "225-226 °C"
    }
}