{
    "cas_no": "515-46-8",
    "key_name": "Ethyl benzenesulfonate",
    "cn_name": "苯磺酸乙酯;",
    "alternate_name": "Benzenesulfonic acid, ethyl ester;Ethyl benzenesulfonate;Ethyl phenylsulfonate;NSC 3217",
    "duplicated_cas_no": "",
    "SMILES": "S(OCC)(=O)(=O)C1=CC=CC=C1",
    "meta_data": {
        "InChI": "InChI=1S/C8H10O3S/c1-2-11-12(9,10)8-6-4-3-5-7-8/h3-7H,2H2,1H3",
        "InChIKey": null,
        "Canonical SMILES": "O=S(=O)(OCC)C=1C=CC=CC1",
        "Molecular Formula": "C<sub>8</sub>H<sub>10</sub>O<sub>3</sub>S",
        "Molecular Mass": "186.23",
        "Boiling Point": "156 °C"
    }
}