{
    "cas_no": "23687-27-6",
    "key_name": "8-Isoquinolinamine",
    "cn_name": "8-氨基异喹啉;",
    "alternate_name": "8-Isoquinolinamine;Isoquinoline, 8-amino-;8-Aminoisoquinoline",
    "duplicated_cas_no": "",
    "SMILES": "NC=1C2=C(C=CC1)C=CN=C2",
    "meta_data": {
        "InChI": "InChI=1S/C9H8N2/c10-9-3-1-2-7-4-5-11-6-8(7)9/h1-6H,10H2",
        "InChIKey": null,
        "Canonical SMILES": "N=1C=CC=2C=CC=C(N)C2C1",
        "Molecular Formula": "C<sub>9</sub>H<sub>8</sub>N<sub>2</sub>",
        "Molecular Mass": "144.17",
        "Melting Point": "174 °C"
    }
}