{
    "cas_no": "17159-79-4",
    "key_name": "Ethyl 4-oxocyclohexanecarboxylate",
    "cn_name": "对环己酮甲酸乙酯;",
    "alternate_name": "Cyclohexanecarboxylic acid, 4-oxo-, ethyl ester;4-Ethoxycarbonylcyclohexanone;Ethyl cyclohexanone 4-carboxylate;4-Carboethoxycyclohexanone;Ethyl 4-oxocyclohexanecarboxylate;4-(Ethoxycarbonyl)-1-cyclohexanone;4-Oxocyclohexane-1-carboxylic acid ethyl ester;NSC 250674;4-Oxocyclohexanecarboxylic acid ethyl ester;4-Cyclohexanonecarboxylic acid ethyl ester;Ethyl 4-ketocyclohexylcarboxylate;Ethyl 4-oxocyclohexane-1-carboxylate;Ethyl 4-oxocyclohexan-1-carboxylate",
    "duplicated_cas_no": "",
    "SMILES": "C(OCC)(=O)C1CCC(=O)CC1",
    "meta_data": {
        "InChI": "InChI=1S/C9H14O3/c1-2-12-9(11)7-3-5-8(10)6-4-7/h7H,2-6H2,1H3",
        "InChIKey": null,
        "Canonical SMILES": "O=C(OCC)C1CCC(=O)CC1",
        "Molecular Formula": "C<sub>9</sub>H<sub>14</sub>O<sub>3</sub>",
        "Molecular Mass": "170.21",
        "Boiling Point": "150 °C @ Press: 20 Torr",
        "Melting Point": "221-226 °C"
    }
}