{
    "cas_no": "18293-53-3",
    "key_name": "2-(Trimethylsilyl)acetonitrile",
    "cn_name": "三甲基硅烷氰化甲烷;",
    "alternate_name": "Acetonitrile, 2-(trimethylsilyl)-;Acetonitrile, (trimethylsilyl)-;2-(Trimethylsilyl)acetonitrile;(Trimethylsilyl)acetonitrile;(Cyanomethyl)trimethylsilane",
    "duplicated_cas_no": "",
    "SMILES": "C([Si](C)(C)C)C#N",
    "meta_data": {
        "InChI": "InChI=1S/C5H11NSi/c1-7(2,3)5-4-6/h5H2,1-3H3",
        "InChIKey": null,
        "Canonical SMILES": "N#CC[Si](C)(C)C",
        "Molecular Formula": "C<sub>5</sub>H<sub>11</sub>NSi",
        "Molecular Mass": "113.23",
        "Boiling Point": "49-51 °C @ Press: 10 Torr",
        "Density": "0.829 g/cm³"
    }
}