{
    "cas_no": "19533-92-7",
    "key_name": "Alphitolic acid",
    "cn_name": null,
    "alternate_name": "Lup-20(29)-en-28-oic acid, 2,3-dihydroxy-, (2α,3β)-;Lup-20(29)-en-28-oic acid, 2α,3β-dihydroxy-;3a<em>H</em>-Cyclopenta[<em>a</em>]chrysene, lup-20(29)-en-28-oic acid deriv.;(2α,3β)-2,3-Dihydroxylup-20(29)-en-28-oic acid;Alphitolic acid;2α-Hydroxybetulinic acid;Aophitolic acid",
    "duplicated_cas_no": "",
    "SMILES": "C(O)(=O)[C@]12[C@@]([C@@]3([C@@](C)(CC1)[C@@]4(C)[C@](CC3)([C@]5(C)[C@@](CC4)(C(C)(C)[C@@H](O)[C@H](O)C5)[H])[H])[H])([C@H](C(C)=C)CC2)[H]",
    "meta_data": {
        "InChI": "InChI=1S/C30H48O4/c1-17(2)18-10-13-30(25(33)34)15-14-28(6)19(23(18)30)8-9-22-27(5)16-20(31)24(32)26(3,4)21(27)11-12-29(22,28)7/h18-24,31-32H,1,8-16H2,2-7H3,(H,33,34)/t18-,19+,20+,21-,22+,23+,24-,27-,28+,29+,30-/m0/s1",
        "InChIKey": null,
        "Canonical SMILES": "O=C(O)C12CCC(C(=C)C)C2C3CCC4C5(C)CC(O)C(O)C(C)(C)C5CCC4(C)C3(C)CC1",
        "Molecular Formula": "C<sub>30</sub>H<sub>48</sub>O<sub>4</sub>",
        "Molecular Mass": "472.70",
        "Melting Point": "232-234 °C"
    }
}