{
    "cas_no": "513-42-8",
    "key_name": "Methallyl alcohol",
    "cn_name": "2-甲基烯丙醇;异丁烯醇;2-甲基-2-丙烯-1-醇;3-羟基-2-甲基丙烯;",
    "alternate_name": "2-Propen-1-ol, 2-methyl-;2-Methyl-2-propen-1-ol;Isopropenyl carbinol;Methallyl alcohol;2-Methylallyl alcohol;3-Hydroxy-2-methylpropene;Isobutenol;Methacryl alcohol;β-Methylallyl alcohol;2-Methylprop-1-en-3-ol;2-Methyl-2-propenol;2-Methallyl alcohol;β-Methallyl alcohol;2-Methyl-3-hydroxy-1-propene;NSC 30674;NSC 404204",
    "duplicated_cas_no": "",
    "SMILES": "C(CO)(C)=C",
    "meta_data": {
        "InChI": "InChI=1S/C4H8O/c1-4(2)3-5/h5H,1,3H2,2H3",
        "InChIKey": null,
        "Canonical SMILES": "OCC(=C)C",
        "Molecular Formula": "C<sub>4</sub>H<sub>8</sub>O",
        "Molecular Mass": "72.11",
        "Boiling Point": "112-114 °C",
        "Density": "0.8524 g/cm³ @ Temp: 20 °C"
    }
}