{
    "cas_no": "1135-24-6",
    "key_name": "Ferulic acid",
    "cn_name": "3-甲氧基-4-羟基肉桂酸;阿魏酸;",
    "alternate_name": "2-Propenoic acid, 3-(4-hydroxy-3-methoxyphenyl)-;Cinnamic acid, 4-hydroxy-3-methoxy-;3-(4-Hydroxy-3-methoxyphenyl)-2-propenoic acid;Ferulic acid;4-Hydroxy-3-methoxycinnamic acid;3-Methoxy-4-hydroxycinnamic acid;3-(4-Hydroxy-3-methoxyphenyl)acrylic acid;Coniferic acid;Ferulaic acid;4′-Hydroxy-3′-methoxycinnamic acid;NSC 2821;NSC 51986;NSC 674320",
    "duplicated_cas_no": "1356408-74-6",
    "SMILES": "C(=CC(O)=O)C1=CC(OC)=C(O)C=C1",
    "meta_data": {
        "InChI": "InChI=1S/C10H10O4/c1-14-9-6-7(2-4-8(9)11)3-5-10(12)13/h2-6,11H,1H3,(H,12,13)",
        "InChIKey": null,
        "Canonical SMILES": "O=C(O)C=CC1=CC=C(O)C(OC)=C1",
        "Molecular Formula": "C<sub>10</sub>H<sub>10</sub>O<sub>4</sub>",
        "Molecular Mass": "194.18",
        "Melting Point": "169 °C",
        "Density": "1.315 g/cm³ (crystalline)"
    }
}