{
    "cas_no": "105-08-8",
    "key_name": "1,4-Cyclohexanedimethanol",
    "cn_name": "1,4-环己烷二甲醇;1,4-二(羟甲基)环己烷;",
    "alternate_name": "1,4-Cyclohexanedimethanol;1,4-Bis(hydroxymethyl)cyclohexane;1,4-Dimethylolcyclohexane;1,4-Cyclohexamethylenebis(methylol);Rikabinol DM;Cyclohex-1,4-ylenedimethanol;Vibracure A 240;NSC 44508;CHDM;Sky CHDM;CHDM-D;1,4-Cyclohexane dimethylol;1,4-Cyclohexanedimethaneol;[4-(Hydroxymethyl)cyclohexyl]methanol;C 0479",
    "duplicated_cas_no": "",
    "SMILES": "C(O)C1CCC(CO)CC1",
    "meta_data": {
        "InChI": "InChI=1S/C8H16O2/c9-5-7-1-2-8(6-10)4-3-7/h7-10H,1-6H2",
        "InChIKey": null,
        "Canonical SMILES": "OCC1CCC(CO)CC1",
        "Molecular Formula": "C<sub>8</sub>H<sub>16</sub>O<sub>2</sub>",
        "Molecular Mass": "144.21",
        "Boiling Point": "274 °C",
        "Melting Point": "41-61 °C",
        "Density": "1.0381 g/cm³ @ Temp: 25 °C"
    }
}