{
    "cas_no": "3215-64-3",
    "key_name": "2,6-Dichlorobenzeneacetonitrile",
    "cn_name": "2,6-二氯苯乙腈;",
    "alternate_name": "Benzeneacetonitrile, 2,6-dichloro-;Acetonitrile, (2,6-dichlorophenyl)-;2,6-Dichlorobenzeneacetonitrile;(2,6-Dichlorophenyl)acetonitrile;2,6-Dichlorobenzyl cyanide;NSC 72901;2-(2,6-Dichlorophenyl)acetonitrile",
    "duplicated_cas_no": "",
    "SMILES": "C(C#N)C1=C(Cl)C=CC=C1Cl",
    "meta_data": {
        "InChI": "InChI=1S/C8H5Cl2N/c9-7-2-1-3-8(10)6(7)4-5-11/h1-3H,4H2",
        "InChIKey": null,
        "Canonical SMILES": "N#CCC=1C(Cl)=CC=CC1Cl",
        "Molecular Formula": "C<sub>8</sub>H<sub>5</sub>Cl<sub>2</sub>N",
        "Molecular Mass": "186.04",
        "Melting Point": "75-76 °C"
    }
}