{
    "cas_no": "14430-23-0",
    "key_name": "5,6-Dimethoxyindole",
    "cn_name": "5,6-二甲氧基吲哚;",
    "alternate_name": "1<em>H</em>-Indole, 5,6-dimethoxy-;Indole, 5,6-dimethoxy-;5,6-Dimethoxy-1<em>H</em>-indole;5,6-Dimethoxyindole;5,6-Methoxyindole",
    "duplicated_cas_no": "",
    "SMILES": "O(C)C=1C=C2C(=CC1OC)NC=C2",
    "meta_data": {
        "InChI": "InChI=1S/C10H11NO2/c1-12-9-5-7-3-4-11-8(7)6-10(9)13-2/h3-6,11H,1-2H3",
        "InChIKey": null,
        "Canonical SMILES": "O(C1=CC=2C=CNC2C=C1OC)C",
        "Molecular Formula": "C<sub>10</sub>H<sub>11</sub>NO<sub>2</sub>",
        "Molecular Mass": "177.20",
        "Melting Point": "149-152 °C"
    }
}