{
    "cas_no": "1558-25-4",
    "key_name": "Trichloro(chloromethyl)silane",
    "cn_name": "(氯甲基)三氯硅烷;",
    "alternate_name": "Silane, trichloro(chloromethyl)-;Trichloro(chloromethyl)silane;(Chloromethyl)trichlorosilane;NSC 139830;LS 30",
    "duplicated_cas_no": "",
    "SMILES": "[Si](CCl)(Cl)(Cl)Cl",
    "meta_data": {
        "InChI": "InChI=1S/CH2Cl4Si/c2-1-6(3,4)5/h1H2",
        "InChIKey": null,
        "Canonical SMILES": "ClC[Si](Cl)(Cl)Cl",
        "Molecular Formula": "CH<sub>2</sub>Cl<sub>4</sub>Si",
        "Molecular Mass": "183.92",
        "Boiling Point": "118 °C",
        "Density": "1.465 g/cm³"
    }
}