{
    "cas_no": "10143-60-9",
    "key_name": "Di(2-ethylhexyl)ether",
    "cn_name": "二(2-乙基己基)醚;",
    "alternate_name": "Heptane, 3,3′-[oxybis(methylene)]bis-;Ether, bis(2-ethylhexyl);3,3′-[Oxybis(methylene)]bis[heptane];Di(2-ethylhexyl)ether;Ethylhexyl oxide;Bis(2-ethylhexyl) ether",
    "duplicated_cas_no": "",
    "SMILES": "C(COCC(CCCC)CC)(CCCC)CC",
    "meta_data": {
        "InChI": "InChI=1S/C16H34O/c1-5-9-11-15(7-3)13-17-14-16(8-4)12-10-6-2/h15-16H,5-14H2,1-4H3",
        "InChIKey": null,
        "Canonical SMILES": "O(CC(CC)CCCC)CC(CC)CCCC",
        "Molecular Formula": "C<sub>16</sub>H<sub>34</sub>O",
        "Molecular Mass": "242.44",
        "Boiling Point": "269.4 °C"
    }
}