{
    "cas_no": "17812-32-7",
    "key_name": "Methyl <span class=\"text-smallcaps\">L</span>-aspartate",
    "cn_name": "L-天门冬氨酸1-甲酯;L-天冬氨酸1-甲酯;",
    "alternate_name": "<span class=\"text-smallcaps\">L</span>-Aspartic acid, 1-methyl ester;Aspartic acid, 1-methyl ester, <span class=\"text-smallcaps\">L</span>-;Aspartic acid α-methyl ester;Methyl <span class=\"text-smallcaps\">L</span>-aspartate",
    "duplicated_cas_no": "",
    "SMILES": "[C@@H](C(OC)=O)(CC(O)=O)N",
    "meta_data": {
        "InChI": "InChI=1S/C5H9NO4/c1-10-5(9)3(6)2-4(7)8/h3H,2,6H2,1H3,(H,7,8)/t3-/m0/s1",
        "InChIKey": null,
        "Canonical SMILES": "O=C(O)CC(N)C(=O)OC",
        "Molecular Formula": "C<sub>5</sub>H<sub>9</sub>NO<sub>4</sub>",
        "Molecular Mass": "147.13",
        "Melting Point": "167 °C"
    }
}