{
    "cas_no": "666-99-9",
    "key_name": "Agaric acid",
    "cn_name": "伞菌酸水合物;落叶松蕈素;落叶松蕈酸;平茸酸;琼脂酸;十六烷基柠檬酸;松蕈(三)酸;松蕈酸;落叶松覃酸;",
    "alternate_name": "1,2,3-Nonadecanetricarboxylic acid, 2-hydroxy-;Agaric acid;2-Hydroxy-1,2,3-nonadecanetricarboxylic acid;Agaricic acid;Laricic acid;Agaricin;α-Cetylcitric acid;Agaricinic acid;NSC 60429;NSC 65690",
    "duplicated_cas_no": "6940-97-2;24435-59-4;37961-86-7",
    "SMILES": "C(C(CC(O)=O)(C(O)=O)O)(CCCCCCCCCCCCCCCC)C(O)=O",
    "meta_data": {
        "InChI": "InChI=1S/C22H40O7/c1-2-3-4-5-6-7-8-9-10-11-12-13-14-15-16-18(20(25)26)22(29,21(27)28)17-19(23)24/h18,29H,2-17H2,1H3,(H,23,24)(H,25,26)(H,27,28)",
        "InChIKey": null,
        "Canonical SMILES": "O=C(O)CC(O)(C(=O)O)C(C(=O)O)CCCCCCCCCCCCCCCC",
        "Molecular Formula": "C<sub>22</sub>H<sub>40</sub>O<sub>7</sub>",
        "Molecular Mass": "416.55",
        "Melting Point": "142 °C (decomp)"
    }
}