{
    "cas_no": "191-24-2",
    "key_name": "Benzo[<em>ghi</em>]perylene",
    "cn_name": "1,12-苯并芘;",
    "alternate_name": "Benzo[<em>ghi</em>]perylene;1,12-Benzoperylene;1,12-Benzperylene;NSC 89275",
    "duplicated_cas_no": "",
    "SMILES": "C12=C3C=4C=5C=6C1=C(C=CC2=CC=C3C=CC4C=CC5)C=CC6",
    "meta_data": {
        "InChI": "InChI=1S/C22H12/c1-3-13-7-9-15-11-12-16-10-8-14-4-2-6-18-17(5-1)19(13)21(15)22(16)20(14)18/h1-12H",
        "InChIKey": null,
        "Canonical SMILES": "C=1C=C2C=CC3=CC=C4C=CC5=CC=CC=6C(C1)=C2C3=C4C56",
        "Molecular Formula": "C<sub>22</sub>H<sub>12</sub>",
        "Molecular Mass": "276.33",
        "Boiling Point": "550 °C @ Press: 760 Torr",
        "Melting Point": "277 °C",
        "Density": "1.3 g/cm³"
    }
}