{
    "cas_no": "17584-12-2",
    "key_name": "3-Amino-5,6-dimethyl-1,2,4-triazine",
    "cn_name": "3-氨基-5,6-二甲基-1,2,4-三嗪;3-氨基-5,6-二甲基-偏三嗪;",
    "alternate_name": "1,2,4-Triazin-3-amine, 5,6-dimethyl-;<em>as</em>-Triazine, 3-amino-5,6-dimethyl-;5,6-Dimethyl-1,2,4-triazin-3-amine;3-Amino-5,6-dimethyl-1,2,4-triazine;3-Amino-5,6-dimethyl-<em>as</em>-triazine;NSC 55646;NSC 9443",
    "duplicated_cas_no": "",
    "SMILES": "CC=1C(C)=NN=C(N)N1",
    "meta_data": {
        "InChI": "InChI=1S/C5H8N4/c1-3-4(2)8-9-5(6)7-3/h1-2H3,(H2,6,7,9)",
        "InChIKey": null,
        "Canonical SMILES": "N=1N=C(C(=NC1N)C)C",
        "Molecular Formula": "C<sub>5</sub>H<sub>8</sub>N<sub>4</sub>",
        "Molecular Mass": "124.14",
        "Melting Point": "210-211 °C"
    }
}