{
    "cas_no": "41107-56-6",
    "key_name": "2′,3′-Dideoxy-3′-fluorouridine",
    "cn_name": "2,3-二脱氧-3-氟尿苷;",
    "alternate_name": "Uridine, 2′,3′-dideoxy-3′-fluoro-;2′,3′-Dideoxy-3′-fluorouridine;1-(2,3-Dideoxy-3-fluoro-β-<span class=\"text-smallcaps\">D</span>-ribofuranosyl)uracil;3′-Fluoro-2′,3′-dideoxyuridine",
    "duplicated_cas_no": "",
    "SMILES": "O=C1N([C@@H]2O[C@H](CO)[C@@H](F)C2)C=CC(=O)N1",
    "meta_data": {
        "InChI": "InChI=1S/C9H11FN2O4/c10-5-3-8(16-6(5)4-13)12-2-1-7(14)11-9(12)15/h1-2,5-6,8,13H,3-4H2,(H,11,14,15)/t5-,6+,8+/m0/s1",
        "InChIKey": null,
        "Canonical SMILES": "O=C1C=CN(C(=O)N1)C2OC(CO)C(F)C2",
        "Molecular Formula": "C<sub>9</sub>H<sub>11</sub>FN<sub>2</sub>O<sub>4</sub>",
        "Molecular Mass": "230.19",
        "Melting Point": "184-188 °C"
    }
}