{
    "cas_no": "103-72-0",
    "key_name": "Phenyl isothiocyanate",
    "cn_name": "异硫氰酸苯酯;",
    "alternate_name": "Benzene, isothiocyanato-;Isothiocyanic acid, phenyl ester;Isothiocyanatobenzene;Phenyl isothiocyanate;Phenyl mustard oil;Thiocarbanil;Phenyl thioisocyanate;Benzene isothiocyanate;NSC 5583",
    "duplicated_cas_no": "2124236-45-7",
    "SMILES": "N(=C=S)C1=CC=CC=C1",
    "meta_data": {
        "InChI": "InChI=1S/C7H5NS/c9-6-8-7-4-2-1-3-5-7/h1-5H",
        "InChIKey": null,
        "Canonical SMILES": "S=C=NC=1C=CC=CC1",
        "Molecular Formula": "C<sub>7</sub>H<sub>5</sub>NS",
        "Molecular Mass": "135.19",
        "Boiling Point": "221 °C",
        "Melting Point": "-21 °C",
        "Density": "1.13 g/cm³"
    }
}