{
    "cas_no": "3916-44-7",
    "key_name": "4′-Nitro[1,1′-biphenyl]-4-ol",
    "cn_name": null,
    "alternate_name": "[1,1′-Biphenyl]-4-ol, 4′-nitro-;4-Biphenylol, 4′-nitro-;Phenol, <em>p</em>-(<em>p</em>-nitrophenyl)-;4′-Nitro[1,1′-biphenyl]-4-ol;4-Hydroxy-4′-nitrobiphenyl;4′-Hydroxy-4-nitrobiphenyl;4′-Nitro-4-biphenylol;NSC 95704;4′-Nitro-1,1′-biphenyl-4-ol;4-(4-Nitrophenyl)phenol;4-Nitro-4′-hydroxybiphenyl",
    "duplicated_cas_no": "",
    "SMILES": "N(=O)(=O)C1=CC=C(C=C1)C2=CC=C(O)C=C2",
    "meta_data": {
        "InChI": "InChI=1S/C12H9NO3/c14-12-7-3-10(4-8-12)9-1-5-11(6-2-9)13(15)16/h1-8,14H",
        "InChIKey": null,
        "Canonical SMILES": "O=N(=O)C1=CC=C(C=C1)C=2C=CC(O)=CC2",
        "Molecular Formula": "C<sub>12</sub>H<sub>9</sub>NO<sub>3</sub>",
        "Molecular Mass": "215.20",
        "Melting Point": "200-201 °C"
    }
}