{
    "cas_no": "1665-48-1",
    "key_name": "Metaxalone",
    "cn_name": "美他沙酮;5-[(3,5-二甲基苯氧基)甲基]噁唑烷-2-酮;",
    "alternate_name": "2-Oxazolidinone, 5-[(3,5-dimethylphenoxy)methyl]-;2-Oxazolidinone, 5-[(3,5-xylyloxy)methyl]-;5-[(3,5-Dimethylphenoxy)methyl]-2-oxazolidinone;AHR 438;Metaxalone;Metazalone;Metazolone;Skelaxin;5-[(3,5-Xylyloxy)methyl]-2-oxazolidinone;Zorane;Metaxalon;NSC 170959;Flexura;Rac-5-[(3,5-dimethylphenoxy)methyl]-1,3-oxazolidin-2-one",
    "duplicated_cas_no": "105801-80-7",
    "SMILES": "C(OC1=CC(C)=CC(C)=C1)C2OC(=O)NC2",
    "meta_data": {
        "InChI": "InChI=1S/C12H15NO3/c1-8-3-9(2)5-10(4-8)15-7-11-6-13-12(14)16-11/h3-5,11H,6-7H2,1-2H3,(H,13,14)",
        "InChIKey": null,
        "Canonical SMILES": "O=C1OC(COC=2C=C(C=C(C2)C)C)CN1",
        "Molecular Formula": "C<sub>12</sub>H<sub>15</sub>NO<sub>3</sub>",
        "Molecular Mass": "221.25",
        "Melting Point": "121.5-123 °C"
    }
}