{
    "cas_no": "89-48-5",
    "key_name": "(±)-Menthyl acetate",
    "cn_name": "乙酸薄荷酯;1-异丙基-4-甲基环己基-2-醇乙酸酯;",
    "alternate_name": "Cyclohexanol, 5-methyl-2-(1-methylethyl)-, 1-acetate, (1<em>R</em>,2<em>S</em>,5<em>R</em>)-<em>rel</em>-;Menthol, acetate, <em>cis</em>-1,3,<em>trans</em>-1,4-;Cyclohexanol, 5-methyl-2-(1-methylethyl)-, acetate, (1α,2β,5α)-;Cyclohexanol, 5-methyl-2-(1-methylethyl)-, acetate, (1<em>R</em>,2<em>S</em>,5<em>R</em>)-<em>rel</em>-;Menthyl acetate;<em>dl</em>-Menthyl acetate;(±)-Menthol acetate;(±)-Menthyl acetate;Symfresh RF",
    "duplicated_cas_no": "29066-34-0",
    "SMILES": "[C@H](C)(C)[C@H]1[C@H](OC(C)=O)C[C@H](C)CC1",
    "meta_data": {
        "InChI": "InChI=1/C12H22O2/c1-8(2)11-6-5-9(3)7-12(11)14-10(4)13/h8-9,11-12H,5-7H2,1-4H3/t9-,11+,12-/s2",
        "InChIKey": null,
        "Canonical SMILES": "O=C(OC1CC(C)CCC1C(C)C)C",
        "Molecular Formula": "C<sub>12</sub>H<sub>22</sub>O<sub>2</sub>",
        "Molecular Mass": "198.30",
        "Boiling Point": "227 °C",
        "Melting Point": "&lt;25 °C"
    }
}