{
    "cas_no": "51753-57-2",
    "key_name": "Phenazepam",
    "cn_name": "5-(2-氯苯基)-7-溴-1,4-苯并二氮杂卓-2-酮;7-溴-5-(2-氯苯基)-1,3-二氢-2H-1,4-苯并二氮杂卓-2-酮;",
    "alternate_name": "2<em>H</em>-1,4-Benzodiazepin-2-one, 7-bromo-5-(2-chlorophenyl)-1,3-dihydro-;7-Bromo-5-(2-chlorophenyl)-1,3-dihydro-2<em>H</em>-1,4-benzodiazepin-2-one;Phenazepam;Fenazepam;BD 98;7-Bromo-5-(2-chlorophenyl)-1,3-dihydrobenzo[<em>e</em>]-1,4-diazepin-2-one",
    "duplicated_cas_no": "66173-95-3",
    "SMILES": "BrC=1C=C2C(=NCC(=O)NC2=CC1)C3=C(Cl)C=CC=C3",
    "meta_data": {
        "InChI": "InChI=1S/C15H10BrClN2O/c16-9-5-6-13-11(7-9)15(18-8-14(20)19-13)10-3-1-2-4-12(10)17/h1-7H,8H2,(H,19,20)",
        "InChIKey": null,
        "Canonical SMILES": "O=C1NC=2C=CC(Br)=CC2C(=NC1)C=3C=CC=CC3Cl",
        "Molecular Formula": "C<sub>15</sub>H<sub>10</sub>BrClN<sub>2</sub>O",
        "Molecular Mass": "349.61",
        "Melting Point": "220-222 °C"
    }
}