{
    "cas_no": "4904-61-4",
    "key_name": "1,5,9-Cyclododecatriene",
    "cn_name": "1,5,9-环十二烷三烯;1,5,9-环十二碳三烯;",
    "alternate_name": "1,5,9-Cyclododecatriene;CDT;NSC 72433;1,5,9-Cyclooctadecatriene",
    "duplicated_cas_no": "13338-87-9;2095354-65-5",
    "SMILES": "C1CC=CCCC=CCCC=C1",
    "meta_data": {
        "InChI": "InChI=1S/C12H18/c1-2-4-6-8-10-12-11-9-7-5-3-1/h1-2,7-10H,3-6,11-12H2",
        "InChIKey": null,
        "Canonical SMILES": "C1=CCCC=CCCC=CCC1",
        "Molecular Formula": "C<sub>12</sub>H<sub>18</sub>",
        "Molecular Mass": "162.27",
        "Boiling Point": "240 °C",
        "Melting Point": "-18 °C",
        "Density": "0.8910 g/cm³ @ Temp: 20 °C"
    }
}