{
    "cas_no": "2163-48-6",
    "key_name": "Propanedioic acid, 2-propyl-, 1,3-diethyl ester",
    "cn_name": null,
    "alternate_name": "Propanedioic acid, 2-propyl-, 1,3-diethyl ester;Malonic acid, propyl-, diethyl ester;Propanedioic acid, propyl-, diethyl ester;Propylmalonic acid diethyl ester;Diethyl propylmalonate;Diethyl 2-propylmalonate;Diethyl <em>n</em>-propylmalonate;2-Propylmalonic acid diethyl ester;NSC 53659;Diethyl 2-<em>n</em>-propylmalonate;1,3-Diethyl 2-propylpropanedioate;Diethyl 2-propylpropanedioate",
    "duplicated_cas_no": "581796-74-9",
    "SMILES": "C(C(OCC)=O)(C(OCC)=O)CCC",
    "meta_data": {
        "InChI": "InChI=1S/C10H18O4/c1-4-7-8(9(11)13-5-2)10(12)14-6-3/h8H,4-7H2,1-3H3",
        "InChIKey": null,
        "Canonical SMILES": "O=C(OCC)C(C(=O)OCC)CCC",
        "Molecular Formula": "C<sub>10</sub>H<sub>18</sub>O<sub>4</sub>",
        "Molecular Mass": "202.25",
        "Boiling Point": "221 °C",
        "Density": "0.9914 g/cm³ @ Temp: 20 °C"
    }
}