{
    "cas_no": "12771-68-5",
    "key_name": "(±)-Ancymidol",
    "cn_name": null,
    "alternate_name": "5-Pyrimidinemethanol, α-cyclopropyl-α-(4-methoxyphenyl)-;5-Pyrimidinemethanol, α-cyclopropyl-α-(<em>p</em>-methoxyphenyl)-;α-Cyclopropyl-α-(4-methoxyphenyl)-5-pyrimidinemethanol;Ancymidol;α-Cyclopropyl-α-(4-methoxyphenyl)-5-pyrimidinylmethanol;α-Cyclopropyl-α-(methoxyphenyl)-5-pyrimidinemethanol;A-Rest;EL 531;Thritone;Reducymol;Amcymidol;(±)-Ancymidol",
    "duplicated_cas_no": "133562-92-2;33712-16-2;50642-61-0;51025-96-8",
    "SMILES": "C(O)(C1CC1)(C2=CC=C(OC)C=C2)C=3C=NC=NC3",
    "meta_data": {
        "InChI": "InChI=1S/C15H16N2O2/c1-19-14-6-4-12(5-7-14)15(18,11-2-3-11)13-8-16-10-17-9-13/h4-11,18H,2-3H2,1H3",
        "InChIKey": null,
        "Canonical SMILES": "OC(C=1C=NC=NC1)(C2=CC=C(OC)C=C2)C3CC3",
        "Molecular Formula": "C<sub>15</sub>H<sub>16</sub>N<sub>2</sub>O<sub>2</sub>",
        "Molecular Mass": "256.30",
        "Melting Point": "110-111 °C"
    }
}