{
    "cas_no": "251320-86-2",
    "key_name": "2-(Dicyclohexylphosphino)-2′-methylbiphenyl",
    "cn_name": "2-二环己基磷-2\"-甲基联苯;",
    "alternate_name": "Phosphine, dicyclohexyl(2′-methyl[1,1′-biphenyl]-2-yl)-;Dicyclohexyl(2′-methyl[1,1′-biphenyl]-2-yl)phosphine;2-(Dicyclohexylphosphino)-2′-methylbiphenyl;MePhos",
    "duplicated_cas_no": "",
    "SMILES": "P(C1=C(C=CC=C1)C2=C(C)C=CC=C2)(C3CCCCC3)C4CCCCC4",
    "meta_data": {
        "InChI": "InChI=1S/C25H33P/c1-20-12-8-9-17-23(20)24-18-10-11-19-25(24)26(21-13-4-2-5-14-21)22-15-6-3-7-16-22/h8-12,17-19,21-22H,2-7,13-16H2,1H3",
        "InChIKey": null,
        "Canonical SMILES": "C=1C=CC(=C(C1)C=2C=CC=CC2C)P(C3CCCCC3)C4CCCCC4",
        "Molecular Formula": "C<sub>25</sub>H<sub>33</sub>P",
        "Molecular Mass": "364.50",
        "Melting Point": "109-111 °C"
    }
}