{
    "cas_no": "705-19-1",
    "key_name": "Isometronidazole",
    "cn_name": "异甲硝唑;异甲硝唑;",
    "alternate_name": "1<em>H</em>-Imidazole-1-ethanol, 2-methyl-4-nitro-;Imidazole-1-ethanol, 2-methyl-4-nitro-;2-Methyl-4-nitro-1<em>H</em>-imidazole-1-ethanol;Isometronidazole;Izoklion;RP 8979;Mizonidazole;SC-16427;1-(2-Hydroxyethyl)-2-methyl-4-nitroimidazole;1-(2-Hydroxyethyl)-2-methyl-4-nitro-1<em>H</em>-imidazole;2-(2-Methyl-4-nitroimidazol-1-yl)ethanol;2-(2-Methyl-4-nitro-imidazol-1-yl)-ethanol",
    "duplicated_cas_no": "",
    "SMILES": "C(CO)N1C=C(N(=O)=O)N=C1C",
    "meta_data": {
        "InChI": "InChI=1S/C6H9N3O3/c1-5-7-6(9(11)12)4-8(5)2-3-10/h4,10H,2-3H2,1H3",
        "InChIKey": null,
        "Canonical SMILES": "O=N(=O)C=1N=C(N(C1)CCO)C",
        "Molecular Formula": "C<sub>6</sub>H<sub>9</sub>N<sub>3</sub>O<sub>3</sub>",
        "Molecular Mass": "171.15",
        "Melting Point": "140 °C"
    }
}