{
    "cas_no": "1583-88-6",
    "key_name": "4-Fluorophenethylamine",
    "cn_name": "4-氟苯乙胺;对氟苯乙胺;",
    "alternate_name": "Benzeneethanamine, 4-fluoro-;Phenethylamine, <em>p</em>-fluoro-;4-Fluorobenzeneethanamine;2-(<em>p</em>-Fluorophenyl)ethylamine;4-Fluorophenethylamine;<em>p</em>-Fluorophenethylamine;2-(4-Fluorophenyl)ethylamine;(<em>p</em>-Fluorophenyl)ethylamine;2-(4-Fluorophenyl)ethanamine;4-(2-Aminoethyl)fluorobenzene;2-(4-Fluorophenyl)ethan-1-amine;<em>N</em>-(4-Fluorophenethyl)amine",
    "duplicated_cas_no": "676501-17-0",
    "SMILES": "C(CN)C1=CC=C(F)C=C1",
    "meta_data": {
        "InChI": "InChI=1S/C8H10FN/c9-8-3-1-7(2-4-8)5-6-10/h1-4H,5-6,10H2",
        "InChIKey": null,
        "Canonical SMILES": "FC1=CC=C(C=C1)CCN",
        "Molecular Formula": "C<sub>8</sub>H<sub>10</sub>FN",
        "Molecular Mass": "139.17",
        "Boiling Point": "99-100 °C @ Press: 24 Torr",
        "Density": "1.069 g/cm³ @ Temp: 20 °C"
    }
}