{
    "cas_no": "2344-70-9",
    "key_name": "4-Phenyl-2-butanol",
    "cn_name": "4-苯基-2-丁醇;",
    "alternate_name": "Benzenepropanol, α-methyl-;2-Butanol, 4-phenyl-;α-Methylbenzenepropanol;4-Phenyl-2-butanol;1-Phenyl-3-butanol;1-Methyl-3-phenyl-1-propanol;2-Hydroxy-4-phenylbutane;(±)-4-Phenylbutan-2-ol;NSC 69076;(±)-3-Phenyl-1-methylpropanol;(3-Hydroxybutyl)benzene",
    "duplicated_cas_no": "14786-43-7",
    "SMILES": "C(CC(C)O)C1=CC=CC=C1",
    "meta_data": {
        "InChI": "InChI=1S/C10H14O/c1-9(11)7-8-10-5-3-2-4-6-10/h2-6,9,11H,7-8H2,1H3",
        "InChIKey": null,
        "Canonical SMILES": "OC(C)CCC=1C=CC=CC1",
        "Molecular Formula": "C<sub>10</sub>H<sub>14</sub>O",
        "Molecular Mass": "150.22",
        "Boiling Point": "239 °C",
        "Melting Point": "61 °C",
        "Density": "0.9899 g/cm³ @ Temp: 1 °C"
    }
}