{
    "cas_no": "963-75-7",
    "key_name": "5α-Androst-2-en-17-one",
    "cn_name": "5alpha-雄甾-2-烯-17-酮;",
    "alternate_name": "Androst-2-en-17-one, (5α)-;5α-Androst-2-en-17-one;(5α)-Androst-2-en-17-one;Ba 2662;17-Oxo-5α-androst-2-ene;NSC 44506;NSC 80614;5α-Androst-2-ene-17-one;5alpha-androst-2-en-17-one",
    "duplicated_cas_no": "",
    "SMILES": "C[C@@]12[C@@]3([C@]([C@]4([C@](C)(CC3)C(=O)CC4)[H])(CC[C@]1(CC=CC2)[H])[H])[H]",
    "meta_data": {
        "InChI": "InChI=1S/C19H28O/c1-18-11-4-3-5-13(18)6-7-14-15-8-9-17(20)19(15,2)12-10-16(14)18/h3-4,13-16H,5-12H2,1-2H3/t13-,14+,15+,16+,18+,19+/m1/s1",
        "InChIKey": null,
        "Canonical SMILES": "O=C1CCC2C3CCC4CC=CCC4(C)C3CCC12C",
        "Molecular Formula": "C<sub>19</sub>H<sub>28</sub>O",
        "Molecular Mass": "272.42",
        "Melting Point": "106-108 °C"
    }
}