{
    "cas_no": "69304-45-6",
    "key_name": "3′,5′-<em>O</em>-[1,1,3,3-Tetrakis(1-methylethyl)-1,3-disiloxanediyl]adenosine",
    "cn_name": null,
    "alternate_name": "Adenosine, 3′,5′-<em>O</em>-[1,1,3,3-tetrakis(1-methylethyl)-1,3-disiloxanediyl]-;6<em>H</em>-Furo[3,2-<em>f</em>]-1,3,5,2,4-trioxadisilocin, adenosine deriv.;3′,5′-<em>O</em>-[1,1,3,3-Tetrakis(1-methylethyl)-1,3-disiloxanediyl]adenosine",
    "duplicated_cas_no": "",
    "SMILES": "C(C)(C)[Si]1(C(C)C)O[Si](C(C)C)(C(C)C)OC[C@@]2([C@@](O1)([C@@H](O)[C@@H](O2)N3C=4C(N=C3)=C(N)N=CN4)[H])[H]",
    "meta_data": {
        "InChI": "InChI=1S/C22H39N5O5Si2/c1-12(2)33(13(3)4)29-9-16-19(31-34(32-33,14(5)6)15(7)8)18(28)22(30-16)27-11-26-17-20(23)24-10-25-21(17)27/h10-16,18-19,22,28H,9H2,1-8H3,(H2,23,24,25)/t16-,18-,19-,22-/m1/s1",
        "InChIKey": null,
        "Canonical SMILES": "OC1C(OC2CO[Si](O[Si](OC12)(C(C)C)C(C)C)(C(C)C)C(C)C)N3C=NC=4C(=NC=NC43)N",
        "Molecular Formula": "C<sub>22</sub>H<sub>39</sub>N<sub>5</sub>O<sub>5</sub>Si<sub>2</sub>",
        "Molecular Mass": "509.75",
        "Melting Point": "143-145 °C"
    }
}