{
    "cas_no": "1522-13-0",
    "key_name": "α-Phenyl-α-(2-phenylethynyl)benzenemethanol",
    "cn_name": "1,1,3-三苯基-2-丙炔醇;",
    "alternate_name": "Benzenemethanol, α-phenyl-α-(2-phenylethynyl)-;2-Propyn-1-ol, 1,1,3-triphenyl-;Benzenemethanol, α-phenyl-α-(phenylethynyl)-;α-Phenyl-α-(2-phenylethynyl)benzenemethanol;1,1,3-Triphenylpropargyl alcohol;1,1,3-Triphenyl-2-propyn-1-ol;1,1,3-Triphenylpropyn-1-ol;Diphenyl(phenylethynyl)methanol;NSC 52241;1,1,3-Triphenyl-2-propyne-1-ol",
    "duplicated_cas_no": "",
    "SMILES": "C(C#CC1=CC=CC=C1)(O)(C2=CC=CC=C2)C3=CC=CC=C3",
    "meta_data": {
        "InChI": "InChI=1S/C21H16O/c22-21(19-12-6-2-7-13-19,20-14-8-3-9-15-20)17-16-18-10-4-1-5-11-18/h1-15,22H",
        "InChIKey": null,
        "Canonical SMILES": "OC(C#CC=1C=CC=CC1)(C=2C=CC=CC2)C=3C=CC=CC3",
        "Molecular Formula": "C<sub>21</sub>H<sub>16</sub>O",
        "Molecular Mass": "284.35",
        "Melting Point": "82 °C"
    }
}