{
    "cas_no": "59340-27-1",
    "key_name": "1,3,5-Trimethyl-1<em>H</em>-pyrazole-4-sulfonyl chloride",
    "cn_name": "1,3,5-三甲基-1H-吡唑-4-磺酰氯;",
    "alternate_name": "1<em>H</em>-Pyrazole-4-sulfonyl chloride, 1,3,5-trimethyl-;Pyrazole-4-sulfonyl chloride, 1,3,5-trimethyl-;1,3,5-Trimethyl-1<em>H</em>-pyrazole-4-sulfonyl chloride;1,3,5-Trimethyl-4-pyrazolesulfonyl chloride",
    "duplicated_cas_no": "",
    "SMILES": "S(Cl)(=O)(=O)C1=C(C)N(C)N=C1C",
    "meta_data": {
        "InChI": "InChI=1S/C6H9ClN2O2S/c1-4-6(12(7,10)11)5(2)9(3)8-4/h1-3H3",
        "InChIKey": null,
        "Canonical SMILES": "O=S(=O)(Cl)C=1C(=NN(C1C)C)C",
        "Molecular Formula": "C<sub>6</sub>H<sub>9</sub>ClN<sub>2</sub>O<sub>2</sub>S",
        "Molecular Mass": "208.67",
        "Melting Point": "133-135 °C"
    }
}