{
    "cas_no": "25109-57-3",
    "key_name": "3,4-Dibromo-2-butanone",
    "cn_name": "3,4-二溴丁酮;",
    "alternate_name": "2-Butanone, 3,4-dibromo-;3,4-Dibromo-2-butanone;1,2-Dibromoethyl methyl ketone",
    "duplicated_cas_no": "",
    "SMILES": "C(C(C)=O)(CBr)Br",
    "meta_data": {
        "InChI": "InChI=1S/C4H6Br2O/c1-3(7)4(6)2-5/h4H,2H2,1H3",
        "InChIKey": null,
        "Canonical SMILES": "O=C(C)C(Br)CBr",
        "Molecular Formula": "C<sub>4</sub>H<sub>6</sub>Br<sub>2</sub>O",
        "Molecular Mass": "229.90",
        "Boiling Point": "97 °C @ Press: 15 Torr",
        "Density": "1.9594 g/cm³ @ Temp: 20 °C"
    }
}