{
    "cas_no": "4553-07-5",
    "key_name": "Benzeneacetic acid, α-cyano-, ethyl ester",
    "cn_name": "苯基氰基乙酸乙酯;",
    "alternate_name": "Benzeneacetic acid, α-cyano-, ethyl ester;Acetic acid, cyanophenyl-, ethyl ester;Ethyl α-cyanophenylacetate;Phenylcyanoacetic acid ethyl ester;Ethyl cyanophenylacetate;Ethyl 2-cyano-2-phenylacetate;Ethyl α-cyano-α-phenylacetate;Ethyl (±)-2-cyano-2-phenylacetate;NSC 362;Ethyl 2-phenyl-2-cyanoacetate;Ethyl α-cyanobenzeneacetate",
    "duplicated_cas_no": "64077-28-7",
    "SMILES": "C(C(OCC)=O)(C#N)C1=CC=CC=C1",
    "meta_data": {
        "InChI": "InChI=1S/C11H11NO2/c1-2-14-11(13)10(8-12)9-6-4-3-5-7-9/h3-7,10H,2H2,1H3",
        "InChIKey": null,
        "Canonical SMILES": "N#CC(C(=O)OCC)C=1C=CC=CC1",
        "Molecular Formula": "C<sub>11</sub>H<sub>11</sub>NO<sub>2</sub>",
        "Molecular Mass": "189.21",
        "Boiling Point": "163-165 °C @ Press: 10 Torr",
        "Melting Point": "115-116 °C",
        "Density": "1.085 g/cm³ @ Temp: 17 °C"
    }
}