{
    "cas_no": "538-08-9",
    "key_name": "<em>N</em>,<em>N</em>-Di-2-propen-1-ylcyanamide",
    "cn_name": "二烯丙基代氰氨;二烯丙基氰胺;N-氰基二烯丙基胺;",
    "alternate_name": "Cyanamide, <em>N</em>,<em>N</em>-di-2-propen-1-yl-;Cyanamide, diallyl-;Cyanamide, di-2-propenyl-;<em>N</em>,<em>N</em>-Di-2-propen-1-ylcyanamide;Diallylcyanamide;<em>N</em>,<em>N</em>-Diallylcyanamide;NSC 3513",
    "duplicated_cas_no": "",
    "SMILES": "N(CC=C)(CC=C)C#N",
    "meta_data": {
        "InChI": "InChI=1S/C7H10N2/c1-3-5-9(7-8)6-4-2/h3-4H,1-2,5-6H2",
        "InChIKey": null,
        "Canonical SMILES": "N#CN(CC=C)CC=C",
        "Molecular Formula": "C<sub>7</sub>H<sub>10</sub>N<sub>2</sub>",
        "Molecular Mass": "122.17",
        "Boiling Point": "140-145 °C @ Press: 90 Torr",
        "Melting Point": "&lt;-70 °C",
        "Density": "0.9021 g/cm³"
    }
}