{
    "cas_no": "2046-18-6",
    "key_name": "Benzenebutanenitrile",
    "cn_name": "4-苯基丁腈;",
    "alternate_name": "Benzenebutanenitrile;Butyronitrile, 4-phenyl-;4-Phenylbutyronitrile;(3-Cyanopropyl)benzene;1-Cyano-3-phenylpropane;4-Phenylbutanenitrile;γ-Phenylpropyl cyanide;NSC 1853",
    "duplicated_cas_no": "",
    "SMILES": "C(CCC#N)C1=CC=CC=C1",
    "meta_data": {
        "InChI": "InChI=1S/C10H11N/c11-9-5-4-8-10-6-2-1-3-7-10/h1-3,6-7H,4-5,8H2",
        "InChIKey": null,
        "Canonical SMILES": "N#CCCCC=1C=CC=CC1",
        "Molecular Formula": "C<sub>10</sub>H<sub>11</sub>N",
        "Molecular Mass": "145.20",
        "Boiling Point": "97-99 °C"
    }
}