{
    "cas_no": "520-45-6",
    "key_name": "3-Acetyl-6-methyl-2<em>H</em>-pyran-2,4(3<em>H</em>)-dione",
    "cn_name": "脱氢乙酸;3-乙酰基-6-甲基-2H-吡喃-2,4(3H)二酮;脱氢醋酸;",
    "alternate_name": "2<em>H</em>-Pyran-2,4(3<em>H</em>)-dione, 3-acetyl-6-methyl-;3-Acetyl-6-methyl-2<em>H</em>-pyran-2,4(3<em>H</em>)-dione;Acetic acid, dehydro-;Dehydroacetic acid;DHAA;DHS;4-Hexenoic acid, 2-acetyl-5-hydroxy-3-oxo-, δ-lactone;3-Acetyl-6-methyldihydropyrandione-2,4;Dehydracetic acid;3-Acetyl-6-methylpyran-2,4(3<em>H</em>)-dione;3-Acetyl-6-methyl-1-oxacyclohex-5-ene-2,4-dione;Biocide 470F;NSC 8770;Geogard 111A;3-Acetyl-6-methyl-3,4-dihydro-2<em>H</em>-pyran-2,4-dione;3-Acetyl-6-methyl-pyran-2,4-dione;3-Acetyl-6-methylpyran-2,4-dione;Unisept DHA",
    "duplicated_cas_no": "53488-80-5",
    "SMILES": "C(C)(=O)C1C(=O)C=C(C)OC1=O",
    "meta_data": {
        "InChI": "InChI=1S/C8H8O4/c1-4-3-6(10)7(5(2)9)8(11)12-4/h3,7H,1-2H3",
        "InChIKey": null,
        "Canonical SMILES": "O=C1OC(=CC(=O)C1C(=O)C)C",
        "Molecular Formula": "C<sub>8</sub>H<sub>8</sub>O<sub>4</sub>",
        "Molecular Mass": "168.15",
        "Boiling Point": "269.9 °C @ Press: 760 Torr",
        "Melting Point": "109 °C"
    }
}