{
    "cas_no": "2349-07-7",
    "key_name": "Hexyl isobutyrate",
    "cn_name": null,
    "alternate_name": "Propanoic acid, 2-methyl-, hexyl ester;Isobutyric acid, hexyl ester;Hexyl isobutyrate;<em>n</em>-Hexyl isobutyrate;1-Hexyl isobutyrate;Hexyl isobutanoate;<em>n</em>-Hexyl <em>iso</em>-butyrate;Hexyl 2-methylpropionate;Hexyl 2-methylpropanoate;NSC 46108",
    "duplicated_cas_no": "",
    "SMILES": "O(C(C(C)C)=O)CCCCCC",
    "meta_data": {
        "InChI": "InChI=1S/C10H20O2/c1-4-5-6-7-8-12-10(11)9(2)3/h9H,4-8H2,1-3H3",
        "InChIKey": null,
        "Canonical SMILES": "O=C(OCCCCCC)C(C)C",
        "Molecular Formula": "C<sub>10</sub>H<sub>20</sub>O<sub>2</sub>",
        "Molecular Mass": "172.26",
        "Boiling Point": "199 °C @ Press: 760 Torr",
        "Density": "0.8700 g/cm³ @ Temp: 20 °C"
    }
}