{
    "cas_no": "1719-83-1",
    "key_name": "3a,4,4a,7a,8,8a-Hexahydro-4,8-etheno-1<em>H</em>,3<em>H</em>-benzo[1,2-<em>c</em>:4,5-<em>c</em>′]difuran-1,3,5,7-tetrone",
    "cn_name": "双环[2.2.2]辛-7-烯-2,3,5,6-四羧酸二酐;",
    "alternate_name": "4,8-Etheno-1<em>H</em>,3<em>H</em>-benzo[1,2-<em>c</em>:4,5-<em>c</em>′]difuran-1,3,5,7-tetrone, 3a,4,4a,7a,8,8a-hexahydro-;Bicyclo[2.2.2]oct-7-ene-2,3,5,6-tetracarboxylic 2,3:5,6-dianhydride;3a,4,4a,7a,8,8a-Hexahydro-4,8-etheno-1<em>H</em>,3<em>H</em>-benzo[1,2-<em>c</em>:4,5-<em>c</em>′]difuran-1,3,5,7-tetrone;Bicyclooctenetetracarboxylic dianhydride;Bicyclo[2.2.2]oct-7-ene-2,3,5,6-tetracarboxylic dianhydride;Bicyclo[2.2.2]oct-7-ene-2,3,5,6-tetracarboxylic anhydride;BTA;Bicyclo[2.2.2]octane-7-ene-2,3,5,6-tetracarboxylic dianhydride;Bicyclo[2.2.2]oct-7-ene-2,3,5,8-tetracarboxylic dianhydride;Bicyclic [2.2.2] oct-7-ene-2,3,5,6-tetracarboxylic dianhydride;B 1317",
    "duplicated_cas_no": "37279-17-7;361186-53-0;1383688-20-7",
    "SMILES": "O=C1C2C(C3C4C(C2C=C3)C(=O)OC4=O)C(=O)O1",
    "meta_data": {
        "InChI": "InChI=1S/C12H8O6/c13-9-5-3-1-2-4(7(5)11(15)17-9)8-6(3)10(14)18-12(8)16/h1-8H",
        "InChIKey": null,
        "Canonical SMILES": "O=C1OC(=O)C2C3C=CC(C12)C4C(=O)OC(=O)C34",
        "Molecular Formula": "C<sub>12</sub>H<sub>8</sub>O<sub>6</sub>",
        "Molecular Mass": "248.19",
        "Melting Point": "345-346 °C (decomp)"
    }
}