{
    "cas_no": "70-70-2",
    "key_name": "4′-Hydroxypropiophenone",
    "cn_name": "4-羟基苯丙酮;对羟基苯丙酮;",
    "alternate_name": "1-Propanone, 1-(4-hydroxyphenyl)-;Propiophenone, 4′-hydroxy-;Propiophenone, <em>p</em>-hydroxy-;1-(4-Hydroxyphenyl)-1-propanone;B 360;H 365;Ethyl <em>p</em>-hydroxyphenyl ketone;Frenantol;Frenohypon;<em>p</em>-Hydroxyphenyl-1-propanone;<em>p</em>-Hydroxypropiophenone;Hypophenon;Paroxon;Paroxypropione;POP;Profenone;<em>p</em>-Propionylphenol;1-(<em>p</em>-Hydroxyphenyl)-1-propanone;<em>p</em>-Propiophenol;4′-Hydroxypropiophenone;Possipione;Hypostat;4-Propionylphenol;Bio-fren;Proxiphenon;Paroxypropion;Ibiopopp;Frenon;Frenormon;Mepal;4-Propanoylphenol;Possipion;NSC 2834;NSC 33949;Ethyl 4-hydroxyphenyl ketone;4-Hydroxyphenyl ethyl ketone;1-(4-Hydroxyphenyl)propanone;4-Hydroxyphenyl-1-propanone",
    "duplicated_cas_no": "",
    "SMILES": "C(CC)(=O)C1=CC=C(O)C=C1",
    "meta_data": {
        "InChI": "InChI=1S/C9H10O2/c1-2-9(11)7-3-5-8(10)6-4-7/h3-6,10H,2H2,1H3",
        "InChIKey": null,
        "Canonical SMILES": "O=C(C1=CC=C(O)C=C1)CC",
        "Molecular Formula": "C<sub>9</sub>H<sub>10</sub>O<sub>2</sub>",
        "Molecular Mass": "150.17",
        "Boiling Point": "140-145 °C @ Press: 0.5 Torr",
        "Melting Point": "149 °C"
    }
}