{
    "cas_no": "1124-04-5",
    "key_name": "2-Chloro-4,5-dimethylphenol",
    "cn_name": "2-氯-4,5-二甲酚;2-氯-4,5-二甲基苯酚;",
    "alternate_name": "Phenol, 2-chloro-4,5-dimethyl-;3,4-Xylenol, 6-chloro-;2-Chloro-4,5-dimethylphenol;2-Chloro-4,5-xylenol;3,4-Dimethyl-6-chlorophenol;6-Chloro-3,4-xylenol;NSC 60149",
    "duplicated_cas_no": "",
    "SMILES": "CC1=C(C)C=C(O)C(Cl)=C1",
    "meta_data": {
        "InChI": "InChI=1S/C8H9ClO/c1-5-3-7(9)8(10)4-6(5)2/h3-4,10H,1-2H3",
        "InChIKey": null,
        "Canonical SMILES": "ClC=1C=C(C(=CC1O)C)C",
        "Molecular Formula": "C<sub>8</sub>H<sub>9</sub>ClO",
        "Molecular Mass": "156.61",
        "Melting Point": "71.5-72.5 °C"
    }
}