{
    "cas_no": "22706-11-2",
    "key_name": "4-Amino-5-phenyl-4<em>H</em>-1,2,4-triazole-3-thiol",
    "cn_name": "4-氨基-5-苯基-4H-1,2,4-三唑-3-硫醇;",
    "alternate_name": "3<em>H</em>-1,2,4-Triazole-3-thione, 4-amino-2,4-dihydro-5-phenyl-;4<em>H</em>-1,2,4-Triazole-3-thiol, 4-amino-5-phenyl-;4-Amino-2,4-dihydro-5-phenyl-3<em>H</em>-1,2,4-triazole-3-thione;1<em>H</em>-4-Amino-3-phenyl-<em>s</em>-triazole-5-thione;4-Amino-5-phenyl-4<em>H</em>-1,2,4-triazole-3-thiol;4-Amino-3-phenyl-5-mercapto-1,2,4-triazoline;4-Amino-3-mercapto-5-phenyl-1,2,4-triazole;4-Amino-3-mercapto-5-phenyl-4<em>H</em>-1,2,4-triazole;4-Amino-5-phenyl-2,4-dihydro-3<em>H</em>-1,2,4-triazole-3-thione;3-Phenyl-4-amino-5-mercapto-1,2,4-triazole",
    "duplicated_cas_no": "21089-45-2;1353549-58-2",
    "SMILES": "NN1C(=NNC1=S)C2=CC=CC=C2",
    "meta_data": {
        "InChI": "InChI=1S/C8H8N4S/c9-12-7(10-11-8(12)13)6-4-2-1-3-5-6/h1-5H,9H2,(H,11,13)",
        "InChIKey": null,
        "Canonical SMILES": "S=C1NN=C(C=2C=CC=CC2)N1N",
        "Molecular Formula": "C<sub>8</sub>H<sub>8</sub>N<sub>4</sub>S",
        "Molecular Mass": "192.24",
        "Melting Point": "204-205 °C"
    }
}