{
    "cas_no": "105802-46-8",
    "key_name": "4-[4-(Diethylamino)styryl]-<em>N</em>-methylpyridinium iodide",
    "cn_name": null,
    "alternate_name": "Pyridinium, 4-[2-[4-(diethylamino)phenyl]ethenyl]-1-methyl-, iodide (1:1);Pyridinium, 4-[2-[4-(diethylamino)phenyl]ethenyl]-1-methyl-, iodide;4-[4-(Diethylamino)styryl]-<em>N</em>-methylpyridinium iodide;D289;4-Di-2-ASP",
    "duplicated_cas_no": "142057-20-3",
    "SMILES": "N(CC)(CC)C1=CC=C(C=CC=2C=C[N+](C)=CC2)C=C1.[I-]",
    "meta_data": {
        "InChI": "InChI=1S/C18H23N2.HI/c1-4-20(5-2)18-10-8-16(9-11-18)6-7-17-12-14-19(3)15-13-17;/h6-15H,4-5H2,1-3H3;1H/q+1;/p-1",
        "InChIKey": null,
        "Canonical SMILES": "[I-].C(=CC1=CC=[N+](C=C1)C)C2=CC=C(C=C2)N(CC)CC",
        "Molecular Formula": "C<sub>18</sub>H<sub>23</sub>N<sub>2</sub>.I",
        "Molecular Mass": "",
        "Melting Point": "262 °C"
    }
}