{
    "cas_no": "70-07-5",
    "key_name": "Mephenoxalone",
    "cn_name": "美芬诺酮;5-[(2-甲氧基苯氧基)甲基]-2-恶唑烷酮;",
    "alternate_name": "2-Oxazolidinone, 5-[(2-methoxyphenoxy)methyl]-;2-Oxazolidinone, 5-[(<em>o</em>-methoxyphenoxy)methyl]-;5-[(2-Methoxyphenoxy)methyl]-2-oxazolidinone;AHR 233;Ekilan;Lenetranat;Lenetran Tab;Methoxydon;5-(<em>o</em>-Methoxyphenoxymethyl)-2-oxazolidinone;5-(<em>o</em>-Methoxyphenoxymethyl)-2-oxazolidone;Trepidone;Mephenoxalone;Lenetran;Metoxadone;Methoxydone;Methoxadone;Dorsiflex;Tranpoise;Dorsilon;Placidex;OM-518;Riself;Xerene;Moderamin;Valans;Metoxadon;Control-OM;(±)-Mephenoxalone",
    "duplicated_cas_no": "147740-89-4",
    "SMILES": "O(CC1CNC(=O)O1)C2=C(OC)C=CC=C2",
    "meta_data": {
        "InChI": "InChI=1S/C11H13NO4/c1-14-9-4-2-3-5-10(9)15-7-8-6-12-11(13)16-8/h2-5,8H,6-7H2,1H3,(H,12,13)",
        "InChIKey": null,
        "Canonical SMILES": "O=C1OC(COC=2C=CC=CC2OC)CN1",
        "Molecular Formula": "C<sub>11</sub>H<sub>13</sub>NO<sub>4</sub>",
        "Molecular Mass": "223.23",
        "Boiling Point": "220-225 °C @ Press: 0.1 Torr",
        "Melting Point": "144 °C"
    }
}