{
    "cas_no": "51323-43-4",
    "key_name": "3-(Bromomethyl)phenylboronic acid",
    "cn_name": "3-溴甲基苯硼酸;3-(溴甲基)苯硼酸;",
    "alternate_name": "Boronic acid, <em>B</em>-[3-(bromomethyl)phenyl]-;Boronic acid, [3-(bromomethyl)phenyl]-;<em>m</em>-Tolueneboronic acid, α-bromo-;<em>B</em>-[3-(Bromomethyl)phenyl]boronic acid;<em>m</em>-Bromomethylphenylboric acid;<em>m</em>-Boronobenzyl bromide;3-(Bromomethyl)phenylboronic acid",
    "duplicated_cas_no": "",
    "SMILES": "B(O)(O)C1=CC(CBr)=CC=C1",
    "meta_data": {
        "InChI": "InChI=1S/C7H8BBrO2/c9-5-6-2-1-3-7(4-6)8(10)11/h1-4,10-11H,5H2",
        "InChIKey": null,
        "Canonical SMILES": "BrCC=1C=CC=C(C1)B(O)O",
        "Molecular Formula": "C<sub>7</sub>H<sub>8</sub>BBrO<sub>2</sub>",
        "Molecular Mass": "214.85",
        "Melting Point": "214-216 °C"
    }
}