{
    "cas_no": "3150-15-0",
    "key_name": "Methyl 2,3-anhydro-4,6-<em>O</em>-(phenylmethylene)-α-<span class=\"text-smallcaps\">D</span>-allopyranoside",
    "cn_name": "甲基2,3-脱水-4,6-O-亚苄基-α-D-吡喃糖苷;",
    "alternate_name": "α-<span class=\"text-smallcaps\">D</span>-Allopyranoside, methyl 2,3-anhydro-4,6-<em>O</em>-(phenylmethylene)-;Allopyranoside, methyl 2,3-anhydro-4,6-<em>O</em>-benzylidene-, α-<span class=\"text-smallcaps\">D</span>-;Oxireno[4,5]pyrano[3,2-<em>d</em>][1,3]dioxin, α-<span class=\"text-smallcaps\">D</span>-allopyranoside deriv.;Methyl 2,3-anhydro-4,6-<em>O</em>-(phenylmethylene)-α-<span class=\"text-smallcaps\">D</span>-allopyranoside;Methyl 2,3-anhydro-4,6-<em>O</em>-benzylidene-α-<span class=\"text-smallcaps\">D</span>-allopyranoside;NSC 41444",
    "duplicated_cas_no": "78138-17-7",
    "SMILES": "O(C)[C@@H]1[C@]2([C@@]([C@]3([C@](O1)(COC(O3)C4=CC=CC=C4)[H])[H])(O2)[H])[H]",
    "meta_data": {
        "InChI": "InChI=1S/C14H16O5/c1-15-14-12-11(18-12)10-9(17-14)7-16-13(19-10)8-5-3-2-4-6-8/h2-6,9-14H,7H2,1H3/t9-,10-,11-,12-,13?,14+/m1/s1",
        "InChIKey": null,
        "Canonical SMILES": "O(C)C1OC2COC(OC2C3OC13)C=4C=CC=CC4",
        "Molecular Formula": "C<sub>14</sub>H<sub>16</sub>O<sub>5</sub>",
        "Molecular Mass": "264.27",
        "Melting Point": "199-200 °C"
    }
}