{
    "cas_no": "51716-63-3",
    "key_name": "<em>cis</em>-Tetrahydro-2,5(1<em>H</em>,3<em>H</em>)-pentalenedione",
    "cn_name": "顺-二环[3.3.0]辛烷-3,7-二酮;顺式-双环[3.3.0]辛-3,7-二酮;",
    "alternate_name": "2,5(1<em>H</em>,3<em>H</em>)-Pentalenedione, tetrahydro-, <em>cis</em>-;<em>cis</em>-Tetrahydro-2,5(1<em>H</em>,3<em>H</em>)-pentalenedione;<em>cis</em>-Bicyclo[3.3.0]octane-3,7-dione;<em>rel</em>-(3<em>a</em>R,6<em>a</em>S)-Tetrahydropentalene-2,5(1<em>H</em>,3<em>H</em>)-dione",
    "duplicated_cas_no": "131213-99-5",
    "SMILES": "O=C1C[C@@]2([C@@](CC(=O)C2)(C1)[H])[H]",
    "meta_data": {
        "InChI": "InChI=1/C8H10O2/c9-7-1-5-2-8(10)4-6(5)3-7/h5-6H,1-4H2/t5-,6+",
        "InChIKey": null,
        "Canonical SMILES": "O=C1CC2CC(=O)CC2C1",
        "Molecular Formula": "C<sub>8</sub>H<sub>10</sub>O<sub>2</sub>",
        "Molecular Mass": "138.16",
        "Melting Point": "82-84 °C"
    }
}