{
    "cas_no": "1677-27-6",
    "key_name": "1,2-Benzodithiol-3-one",
    "cn_name": "3H-1,2-苯丙二硫醇-3-酮;",
    "alternate_name": "3<em>H</em>-1,2-Benzodithiol-3-one;1,2-Benzodisulfol-3-one;Benzodithiolone;2-Dithiobenzoyl;1,2-Benzodithiol-3-one;NSC 158037",
    "duplicated_cas_no": "",
    "SMILES": "O=C1C=2C(=CC=CC2)SS1",
    "meta_data": {
        "InChI": "InChI=1S/C7H4OS2/c8-7-5-3-1-2-4-6(5)9-10-7/h1-4H",
        "InChIKey": null,
        "Canonical SMILES": "O=C1SSC=2C=CC=CC12",
        "Molecular Formula": "C<sub>7</sub>H<sub>4</sub>OS<sub>2</sub>",
        "Molecular Mass": "168.24",
        "Melting Point": "77 °C"
    }
}