{
    "cas_no": "2488-01-9",
    "key_name": "1,4-Bis(dimethylsilyl)benzene",
    "cn_name": "1,4-二(二甲基硅烷基)苯;",
    "alternate_name": "Benzene, 1,4-bis(dimethylsilyl)-;Silane, <em>p</em>-phenylenebis[dimethyl-;Silane, 1,4-phenylenebis[dimethyl-;1,4-Bis(dimethylsilyl)benzene;<em>p</em>-Phenylenebis[dimethylsilane];<em>p</em>-Bis(dimethylsilyl)benzene;1,4-Bis(dimethylhydrogensilyl)benzene;LS 7310;Silphenylene C;(4-Dimethylsilylphenyl)-dimethylsilane",
    "duplicated_cas_no": "228860-42-2",
    "SMILES": "[SiH](C)(C)C1=CC=C([SiH](C)C)C=C1",
    "meta_data": {
        "InChI": "InChI=1S/C10H18Si2/c1-11(2)9-5-7-10(8-6-9)12(3)4/h5-8,11-12H,1-4H3",
        "InChIKey": null,
        "Canonical SMILES": "C=1C=C(C=CC1[SiH](C)C)[SiH](C)C",
        "Molecular Formula": "C<sub>10</sub>H<sub>18</sub>Si<sub>2</sub>",
        "Molecular Mass": "194.42",
        "Boiling Point": "118 °C @ Press: 35 Torr",
        "Melting Point": "115 °C",
        "Density": "0.872 g/cm³"
    }
}