{
    "cas_no": "1983-72-8",
    "key_name": "3-Hydroxy-6<em>H</em>-[1,3]dioxolo[4′,5′:5,6]benzofuro[3,2-<em>c</em>][1]benzopyran-6-one",
    "cn_name": null,
    "alternate_name": "6<em>H</em>-[1,3]Dioxolo[4′,5′:5,6]benzofuro[3,2-<em>c</em>][1]benzopyran-6-one, 3-hydroxy-;6<em>H</em>-[1,3]Dioxolo[5,6]benzofuro[3,2-<em>c</em>][1]benzopyran-6-one, 3-hydroxy-;Furo[2,3-<em>f</em>]-1,3-benzodioxole-7-carboxylic acid, 6-(2,4-dihydroxyphenyl)-, δ-lactone;3-Hydroxy-6<em>H</em>-[1,3]dioxolo[4′,5′:5,6]benzofuro[3,2-<em>c</em>][1]benzopyran-6-one;Medicagol;3-Hydroxy-6<em>H</em>-[1,3]dioxolo[5,6]benzofuro[3,2-<em>c</em>][1]benzopyran-6-one;7-Hydroxy-11,12-(methylenedioxy)coumestan;7-Hydroxy-5′,6′-methylene dioxybenzofurano[3′,2′:3,4]coumarin",
    "duplicated_cas_no": "",
    "SMILES": "O=C1C2=C(C=3C(O1)=CC(O)=CC3)OC=4C2=CC5=C(C4)OCO5",
    "meta_data": {
        "InChI": "InChI=1S/C16H8O6/c17-7-1-2-8-10(3-7)22-16(18)14-9-4-12-13(20-6-19-12)5-11(9)21-15(8)14/h1-5,17H,6H2",
        "InChIKey": null,
        "Canonical SMILES": "O=C1OC=2C=C(O)C=CC2C=3OC4=CC=5OCOC5C=C4C13",
        "Molecular Formula": "C<sub>16</sub>H<sub>8</sub>O<sub>6</sub>",
        "Molecular Mass": "296.23",
        "Melting Point": "&gt;300 °C"
    }
}