{
    "cas_no": "123-81-9",
    "key_name": "Glycol dimercaptoacetate",
    "cn_name": "双巯基乙酸乙二醇酯;二(巯基乙酸)乙二醇酯;",
    "alternate_name": "Acetic acid, 2-mercapto-, 1,1′-(1,2-ethanediyl) ester;Acetic acid, mercapto-, ethylene ester;Acetic acid, mercapto-, 1,2-ethanediyl ester;Ethylene glycol, bis(mercaptoacetate);Glycol dimercaptoacetate;Ethylene glycol bis(thioglycolate);Ethylene mercaptoacetate;Ethylene glycol bis(thioglycolic ester);Glycol bis(mercaptoacetate);Ethylenebis(thioglycolate);Ethylene bis(mercaptoacetate);PETP;EGTG (polythiol);EGTG;Glycol(bis thioglycolate);NSC 30032;Ethylene glycol bis(2-mercaptoacetate);Thiocure GDMA;2-[(2-Sulfanylacetyl)oxy]ethyl 2-sulfanylacetate",
    "duplicated_cas_no": "101027-48-9;121717-87-1",
    "SMILES": "O(CCOC(CS)=O)C(CS)=O",
    "meta_data": {
        "InChI": "InChI=1S/C6H10O4S2/c7-5(3-11)9-1-2-10-6(8)4-12/h11-12H,1-4H2",
        "InChIKey": null,
        "Canonical SMILES": "O=C(OCCOC(=O)CS)CS",
        "Molecular Formula": "C<sub>6</sub>H<sub>10</sub>O<sub>4</sub>S<sub>2</sub>",
        "Molecular Mass": "210.27",
        "Boiling Point": "129-130 °C @ Press: 5 Torr"
    }
}