{
    "cas_no": "5878-61-5",
    "key_name": "7-(2-Chloroethyl)theophylline",
    "cn_name": "7-(2-氯乙基)茶碱;",
    "alternate_name": "1<em>H</em>-Purine-2,6-dione, 7-(2-chloroethyl)-3,7-dihydro-1,3-dimethyl-;Theophylline, 7-(2-chloroethyl)-;7-(2-Chloroethyl)-3,7-dihydro-1,3-dimethyl-1<em>H</em>-purine-2,6-dione;7-(β-Chloroethyl)theophylline;β-Chloroethyltheophylline;7-(2-Chloroethyl)theophylline;7-(β-Chlorethyl)theophylline;Benaphyllin;Eupnophile;7-(Chloroethyl)theophylline;7-(2-Chloroethyl)-1,3-dimethylxanthine;Benaphylline;NSC 337614",
    "duplicated_cas_no": "",
    "SMILES": "C(CCl)N1C2=C(N(C)C(=O)N(C)C2=O)N=C1",
    "meta_data": {
        "InChI": "InChI=1S/C9H11ClN4O2/c1-12-7-6(8(15)13(2)9(12)16)14(4-3-10)5-11-7/h5H,3-4H2,1-2H3",
        "InChIKey": null,
        "Canonical SMILES": "O=C1C2=C(N=CN2CCCl)N(C(=O)N1C)C",
        "Molecular Formula": "C<sub>9</sub>H<sub>11</sub>ClN<sub>4</sub>O<sub>2</sub>",
        "Molecular Mass": "242.66",
        "Melting Point": "121.5-122.5 °C"
    }
}