{
    "cas_no": "3528-17-4",
    "key_name": "Thiochromanone",
    "cn_name": "硫代色满4-酮;",
    "alternate_name": "4<em>H</em>-1-Benzothiopyran-4-one, 2,3-dihydro-;Thiochroman-4-one;2,3-Dihydro-4<em>H</em>-1-benzothiopyran-4-one;1-Thiochroman-4-one;Thiochromanone;Thiachroman-4-one;2,3-Dihydro-4-benzothiopyranone;2,3-Dihydro-4<em>H</em>-thiochromen-4-one;NSC 113603;NSC 153096;NSC 64353;2,3-Dihydrothiochromen-4-one;3,4-Dihydro-2<em>H</em>-1-benzothiopyran-4-one",
    "duplicated_cas_no": "",
    "SMILES": "O=C1C=2C(SCC1)=CC=CC2",
    "meta_data": {
        "InChI": "InChI=1S/C9H8OS/c10-8-5-6-11-9-4-2-1-3-7(8)9/h1-4H,5-6H2",
        "InChIKey": null,
        "Canonical SMILES": "O=C1C=2C=CC=CC2SCC1",
        "Molecular Formula": "C<sub>9</sub>H<sub>8</sub>OS",
        "Molecular Mass": "164.22",
        "Boiling Point": "154 °C @ Press: 12 Torr",
        "Melting Point": "29 °C",
        "Density": "1.2487 g/cm³ @ Temp: 13.7 °C"
    }
}