{
    "cas_no": "5055-72-1",
    "key_name": "<em>N</em>-Cyclohexylthiourea",
    "cn_name": "1-环己基-2-硫脲;1-环己基-2-硫脲;",
    "alternate_name": "Thiourea, <em>N</em>-cyclohexyl-;Urea, 1-cyclohexyl-2-thio-;Thiourea, cyclohexyl-;<em>N</em>-Cyclohexylthiourea;Cyclohexylthiourea;1-Cyclohexyl-2-thiourea;NSC 34636;1-Cyclohexylthiourea",
    "duplicated_cas_no": "",
    "SMILES": "N(C(N)=S)C1CCCCC1",
    "meta_data": {
        "InChI": "InChI=1S/C7H14N2S/c8-7(10)9-6-4-2-1-3-5-6/h6H,1-5H2,(H3,8,9,10)",
        "InChIKey": null,
        "Canonical SMILES": "S=C(N)NC1CCCCC1",
        "Molecular Formula": "C<sub>7</sub>H<sub>14</sub>N<sub>2</sub>S",
        "Molecular Mass": "158.26",
        "Melting Point": "161-162 °C"
    }
}