{
    "cas_no": "7658-08-4",
    "key_name": "6-Deoxy-<span class=\"text-smallcaps\">D</span>-glucose",
    "cn_name": "6-脱氧-D-葡萄糖;6-脱氧-D-葡萄糖;D-异鼠李糖；D-表鼠李糖；D-葡甲基糖;",
    "alternate_name": "<span class=\"text-smallcaps\">D</span>-Glucose, 6-deoxy-;6-Deoxy-<span class=\"text-smallcaps\">D</span>-glucose;Glucomethylose;Quinovose;Epirhamnose, <span class=\"text-smallcaps\">D</span>-;Isorhamnose;Isorhodeose;6-Deoxyglucose;<span class=\"text-smallcaps\">D</span>-Chinovose;<span class=\"text-smallcaps\">D</span>-Quinovose;<span class=\"text-smallcaps\">D</span>-6-Deoxyglucose;<span class=\"text-smallcaps\">D</span>-Isorhamnose",
    "duplicated_cas_no": "5624-55-5",
    "SMILES": "[C@H]([C@@H]([C@@H](C)O)O)([C@H](C=O)O)O",
    "meta_data": {
        "InChI": "InChI=1S/C6H12O5/c1-3(8)5(10)6(11)4(9)2-7/h2-6,8-11H,1H3/t3-,4+,5-,6-/m1/s1",
        "InChIKey": null,
        "Canonical SMILES": "O=CC(O)C(O)C(O)C(O)C",
        "Molecular Formula": "C<sub>6</sub>H<sub>12</sub>O<sub>5</sub>",
        "Molecular Mass": "164.16",
        "Melting Point": "139.5 °C"
    }
}