{
    "cas_no": "1112-48-7",
    "key_name": "Bromotriethylsilane",
    "cn_name": "Triethylbromosilane;",
    "alternate_name": "Silane, bromotriethyl-;Bromotriethylsilane;Triethylbromosilane;Triethylsilyl bromide",
    "duplicated_cas_no": "",
    "SMILES": "[Si](CC)(CC)(CC)Br",
    "meta_data": {
        "InChI": "InChI=1S/C6H15BrSi/c1-4-8(7,5-2)6-3/h4-6H2,1-3H3",
        "InChIKey": null,
        "Canonical SMILES": "Br[Si](CC)(CC)CC",
        "Molecular Formula": "C<sub>6</sub>H<sub>15</sub>BrSi",
        "Molecular Mass": "195.17",
        "Boiling Point": "66-67 °C @ Press: 24 Torr",
        "Melting Point": "-50 °C",
        "Density": "1.140 g/cm³"
    }
}