{
    "cas_no": "13774-81-7",
    "key_name": "Ammonia borane",
    "cn_name": "硼烷氨络合物;",
    "alternate_name": "Boron, amminetrihydro-, (<em>T</em>-4)-;Borane, monoammoniate;Borane, ammoniate;Borine, ammoniate;(<em>T</em>-4)-Amminetrihydroboron;Ammonia borane;Borazane;Amminetrihydroboron;Ammineborane;Ammonia compd. with borane (1:1);Ammonia, mixt. contg.;Borane, mixt. with ammonia",
    "duplicated_cas_no": "17596-45-1;28698-24-0;43054-26-8;133441-44-8;210639-40-0;2172788-60-0",
    "SMILES": "[B+3]([H-])([H-])([H-])[NH3]",
    "meta_data": {
        "InChI": "InChI=1S/BH6N/c1-2/h1-2H3",
        "InChIKey": null,
        "Canonical SMILES": "[H-][B+3]([H-])([H-])[NH3]",
        "Molecular Formula": "BH<sub>6</sub>N",
        "Molecular Mass": "",
        "Melting Point": "111-114 °C",
        "Density": "0.31 g/cm³"
    }
}