{
    "cas_no": "953-91-3",
    "key_name": "Cyclohexyl <em>p</em>-toluenesulfonate",
    "cn_name": "P-甲苯磺酸环己酯;",
    "alternate_name": "Benzenesulfonic acid, 4-methyl-, cyclohexyl ester;<em>p</em>-Toluenesulfonic acid, cyclohexyl ester;Cyclohexanol, <em>p</em>-toluenesulfonate;Cyclohexyl tosylate;Cyclohexyl <em>p</em>-toluenesulfonate;Cyclohexyl 4-toluenesulfonate;Cyclohexyl <em>p</em>-methylbenzenesulfonate;NSC 122484;NSC 127370;Cyclohexyl 4-methylbenzenesulfonate;WPAG 618",
    "duplicated_cas_no": "1058204-88-8",
    "SMILES": "S(OC1CCCCC1)(=O)(=O)C2=CC=C(C)C=C2",
    "meta_data": {
        "InChI": "InChI=1S/C13H18O3S/c1-11-7-9-13(10-8-11)17(14,15)16-12-5-3-2-4-6-12/h7-10,12H,2-6H2,1H3",
        "InChIKey": null,
        "Canonical SMILES": "O=S(=O)(OC1CCCCC1)C2=CC=C(C=C2)C",
        "Molecular Formula": "C<sub>13</sub>H<sub>18</sub>O<sub>3</sub>S",
        "Molecular Mass": "254.35",
        "Melting Point": "44-45 °C"
    }
}