{
    "cas_no": "75-99-0",
    "key_name": "Dalapon",
    "cn_name": "2,2-二氯丙酸;",
    "alternate_name": "Propanoic acid, 2,2-dichloro-;Propionic acid, 2,2-dichloro-;2,2-Dichloropropanoic acid;Dalapon;α,α-Dichloropropionic acid;2,2-Dichloropropionic acid;DPA;2,2-DPA;Alatex;Basinex P;S 95;S 95 (herbicide);S 1315;α,α-Dichloropropanoic acid;Proprop;Tripon;Dalascam;NSC 56352;Dalapon 740",
    "duplicated_cas_no": "",
    "SMILES": "C(C(O)=O)(C)(Cl)Cl",
    "meta_data": {
        "InChI": "InChI=1S/C3H4Cl2O2/c1-3(4,5)2(6)7/h1H3,(H,6,7)",
        "InChIKey": null,
        "Canonical SMILES": "O=C(O)C(Cl)(Cl)C",
        "Molecular Formula": "C<sub>3</sub>H<sub>4</sub>Cl<sub>2</sub>O<sub>2</sub>",
        "Molecular Mass": "142.97",
        "Boiling Point": "190 °C",
        "Melting Point": "20 °C",
        "Density": "1.4014 g/cm³ @ Temp: 20 °C"
    }
}