{
    "cas_no": "33173-53-4",
    "key_name": "<em>p</em>-Azido-<span class=\"text-smallcaps\">L</span>-phenylalanine",
    "cn_name": null,
    "alternate_name": "<span class=\"text-smallcaps\">L</span>-Phenylalanine, 4-azido-;Alanine, 3-(<em>p</em>-azidophenyl)-, <span class=\"text-smallcaps\">L</span>-;4-Azido-<span class=\"text-smallcaps\">L</span>-phenylalanine;<em>p</em>-Azidophenylalanine;<em>p</em>-Azido-<span class=\"text-smallcaps\">L</span>-phenylalanine;4-Azidophenylalanine;(<em>S</em>)-2-Amino-3-(4-azidophenyl)propanoic acid;(2S)-2-Amino-3-(4-azidophenyl)propanoic acid",
    "duplicated_cas_no": "",
    "SMILES": "C([C@@H](C(O)=O)N)C1=CC=C(N=[N+]=[N-])C=C1",
    "meta_data": {
        "InChI": "InChI=1S/C9H10N4O2/c10-8(9(14)15)5-6-1-3-7(4-2-6)12-13-11/h1-4,8H,5,10H2,(H,14,15)/t8-/m0/s1",
        "InChIKey": null,
        "Canonical SMILES": "[N-]=[N+]=NC1=CC=C(C=C1)CC(N)C(=O)O",
        "Molecular Formula": "C<sub>9</sub>H<sub>10</sub>N<sub>4</sub>O<sub>2</sub>",
        "Molecular Mass": "",
        "Melting Point": "186-191 °C"
    }
}