{
    "cas_no": "2530-87-2",
    "key_name": "3-(Trimethoxysilyl)propyl chloride",
    "cn_name": "3-氯丙基三甲氧基硅烷;",
    "alternate_name": "Silane, (3-chloropropyl)trimethoxy-;(3-Chloropropyl)trimethoxysilane;δ-Chloropropyltrimethoxysilane;(γ-Chloropropyl)trimethoxysilane;Z 6076;A 143;Trimethoxy(3-chloropropyl)silane;3-(Trimethoxysilyl)propyl chloride;SH 6076;CPS-M;Sila-Ace S 620;KBM 703;LS 1260;TSL 8320;Silquest A 1430;C 3300;NSC 83878;TSL 8326;Unisilan 311;Silquest A 143;Dynasylan CPTMO;KH 300;KH 231;DB 231;SIC 2410;Silane A 1430;Xiameter OFS 6076;3-Chloropropyltrimethoxysilan;SIC 2410.0;UP 121;Amprso 482",
    "duplicated_cas_no": "",
    "SMILES": "[Si](CCCCl)(OC)(OC)OC",
    "meta_data": {
        "InChI": "InChI=1S/C6H15ClO3Si/c1-8-11(9-2,10-3)6-4-5-7/h4-6H2,1-3H3",
        "InChIKey": null,
        "Canonical SMILES": "ClCCC[Si](OC)(OC)OC",
        "Molecular Formula": "C<sub>6</sub>H<sub>15</sub>ClO<sub>3</sub>Si",
        "Molecular Mass": "198.72",
        "Boiling Point": "100 °C @ Press: 40 Torr",
        "Density": "1.077 g/cm³ @ Temp: 25 °C"
    }
}