{
    "cas_no": "23579-92-2",
    "key_name": "2-(Methoxymethyl)pyridine",
    "cn_name": "2-甲氧基甲基吡啶;",
    "alternate_name": "Pyridine, 2-(methoxymethyl)-;2-(Methoxymethyl)pyridine;NSC 75841",
    "duplicated_cas_no": "",
    "SMILES": "C(OC)C1=CC=CC=N1",
    "meta_data": {
        "InChI": "InChI=1S/C7H9NO/c1-9-6-7-4-2-3-5-8-7/h2-5H,6H2,1H3",
        "InChIKey": null,
        "Canonical SMILES": "N=1C=CC=CC1COC",
        "Molecular Formula": "C<sub>7</sub>H<sub>9</sub>NO",
        "Molecular Mass": "123.15",
        "Boiling Point": "241-250 °C @ Press: 10 Torr"
    }
}