{
    "cas_no": "83881-52-1",
    "key_name": "Cetirizine hydrochloride",
    "cn_name": "盐酸西替利嗪;(+/-)-2-[2-[4-[(4-氯苯基)苯甲基]-1-哌嗪基]乙氧基]乙酸二盐酸盐;",
    "alternate_name": "Acetic acid, 2-[2-[4-[(4-chlorophenyl)phenylmethyl]-1-piperazinyl]ethoxy]-, hydrochloride (1:2);Acetic acid, [2-[4-[(4-chlorophenyl)phenylmethyl]-1-piperazinyl]ethoxy]-, dihydrochloride;Cetirizine hydrochloride;UCB-P 071;Cetirizine dihydrochloride;Alercet;Cetrine;Cetrizet;Cistamine;Histazine;Nosemin;Alerid;Cesta;Ryzen;Sancotec;Selitex;Triz;Virlix;Zeran;Zirtin;Zyrtec;Zyrzine;Alerlisin;Formistin;Zirtek;Zyrlex;Reactine;Riztec;P 071;Zirtec;Cetrak;Cetiriz;Tomazine;Epirizine;Histazine-1;2-(2-[4-[(4-Chlorophenyl)(phenyl)methyl]piperazin-1-yl]ethoxy)acetic acid dihydrochloride",
    "duplicated_cas_no": "130018-82-5",
    "SMILES": "C(N1CCN(CCOCC(O)=O)CC1)(C2=CC=C(Cl)C=C2)C3=CC=CC=C3.Cl",
    "meta_data": {
        "InChI": "InChI=1S/C21H25ClN2O3.2ClH/c22-19-8-6-18(7-9-19)21(17-4-2-1-3-5-17)24-12-10-23(11-13-24)14-15-27-16-20(25)26;;/h1-9,21H,10-16H2,(H,25,26);2*1H",
        "InChIKey": null,
        "Canonical SMILES": "Cl.O=C(O)COCCN1CCN(CC1)C(C=2C=CC=CC2)C3=CC=C(Cl)C=C3",
        "Molecular Formula": "C<sub>21</sub>H<sub>25</sub>ClN<sub>2</sub>O<sub>3</sub>.2ClH",
        "Molecular Mass": "",
        "Melting Point": "225 °C"
    }
}