{
    "cas_no": "1120-28-1",
    "key_name": "Methyl eicosanoate",
    "cn_name": "二十酸甲酯;花生酸甲酯;",
    "alternate_name": "Eicosanoic acid, methyl ester;Methyl arachate;Methyl arachidate;Methyl eicosanoate;Arachic acid methyl ester;Arachidic acid methyl ester;<em>n</em>-Eicosanoic acid methyl ester;Methyl eicosanate;C20:0 FAME",
    "duplicated_cas_no": "",
    "SMILES": "C(CCCCCCCCCCCCCCC)CCCC(OC)=O",
    "meta_data": {
        "InChI": "InChI=1S/C21H42O2/c1-3-4-5-6-7-8-9-10-11-12-13-14-15-16-17-18-19-20-21(22)23-2/h3-20H2,1-2H3",
        "InChIKey": null,
        "Canonical SMILES": "O=C(OC)CCCCCCCCCCCCCCCCCCC",
        "Molecular Formula": "C<sub>21</sub>H<sub>42</sub>O<sub>2</sub>",
        "Molecular Mass": "326.56",
        "Boiling Point": "215 °C @ Press: 10 Torr",
        "Melting Point": "54.5 °C",
        "Density": "0.8633 g/cm³ @ Temp: 20 °C"
    }
}