{
    "cas_no": "548-35-6",
    "key_name": "Truxene",
    "cn_name": "三(2,3-二溴丙基)磷酸酯;三(2,3-二溴丙基)磷酸酯;",
    "alternate_name": "5<em>H</em>-Tribenzo[<em>a</em>,<em>f</em>,<em>k</em>]trindene, 10,15-dihydro-;5<em>H</em>-Diindeno[1,2-<em>a</em>:1′,2′-<em>c</em>]fluorene, 10,15-dihydro-;10,15-Dihydro-5<em>H</em>-tribenzo[<em>a</em>,<em>f</em>,<em>k</em>]trindene;Benzene, tribenzylene-;Truxene;α-Truxene;10,15-Dihydro-5<em>H</em>-diindeno[1,2-<em>a</em>;1′,2′-<em>c</em>]fluorene;Truxen;Tribenzylenebenzene;NSC 5559",
    "duplicated_cas_no": "",
    "SMILES": "C=12C3=C(C4=C(C1CC=5C2=CC=CC5)C=6C(C4)=CC=CC6)C=7C(C3)=CC=CC7",
    "meta_data": {
        "InChI": "InChI=1S/C27H18/c1-4-10-19-16(7-1)13-22-25(19)23-14-17-8-3-6-12-21(17)27(23)24-15-18-9-2-5-11-20(18)26(22)24/h1-12H,13-15H2",
        "InChIKey": null,
        "Canonical SMILES": "C1=CC=C2C(=C1)C3=C(C=4C=5C=CC=CC5CC4C=6C=7C=CC=CC7CC36)C2",
        "Molecular Formula": "C<sub>27</sub>H<sub>18</sub>",
        "Molecular Mass": "342.43",
        "Melting Point": "364-365 °C"
    }
}