{
    "cas_no": "2571-54-2",
    "key_name": "2,4,6-Trimethoxybenzonitrile",
    "cn_name": "2,4,6-三甲氧基苯甲腈;2,4,6-三甲氧基苯腈;2,4,6-三甲氧基苄氰;",
    "alternate_name": "Benzonitrile, 2,4,6-trimethoxy-;2,4,6-Trimethoxybenzonitrile",
    "duplicated_cas_no": "",
    "SMILES": "C(#N)C1=C(OC)C=C(OC)C=C1OC",
    "meta_data": {
        "InChI": "InChI=1S/C10H11NO3/c1-12-7-4-9(13-2)8(6-11)10(5-7)14-3/h4-5H,1-3H3",
        "InChIKey": null,
        "Canonical SMILES": "N#CC=1C(OC)=CC(OC)=CC1OC",
        "Molecular Formula": "C<sub>10</sub>H<sub>11</sub>NO<sub>3</sub>",
        "Molecular Mass": "193.20",
        "Melting Point": "142-144 °C"
    }
}