{
    "cas_no": "3556-56-7",
    "key_name": "<em>N</em>-[(Phenylmethoxy)carbonyl]-<span class=\"text-smallcaps\">L</span>-tyrosine 4-nitrophenyl ester",
    "cn_name": "N-苄氧羰基-L-酪氨酸对硝基苯酯;N-苄氧羰基-L-酪氨酸对硝基苯酯;",
    "alternate_name": "<span class=\"text-smallcaps\">L</span>-Tyrosine, <em>N</em>-[(phenylmethoxy)carbonyl]-, 4-nitrophenyl ester;Tyrosine, <em>N</em>-carboxy-, <em>N</em>-benzyl <em>p</em>-nitrophenyl ester, <span class=\"text-smallcaps\">L</span>-;<em>N</em>-[(Phenylmethoxy)carbonyl]-<span class=\"text-smallcaps\">L</span>-tyrosine 4-nitrophenyl ester;<em>N</em>-(Benzyloxycarbonyl)-<span class=\"text-smallcaps\">L</span>-tyrosine <em>p</em>-nitrophenyl ester;<em>N</em>-α-Carbobenzoxy-<span class=\"text-smallcaps\">L</span>-tyrosine <em>p</em>-nitrophenyl ester;<em>N</em>-Carbobenzoxy-<span class=\"text-smallcaps\">L</span>-tyrosine <em>p</em>-nitrophenyl ester;α-<em>N</em>-Benzyloxycarbonyl-<span class=\"text-smallcaps\">L</span>-tyrosine <em>p</em>-nitrophenyl ester;<em>p</em>-Nitrophenyl <em>N</em>-benzyloxycarbonyl-<span class=\"text-smallcaps\">L</span>-tyrosine;NSC 88489",
    "duplicated_cas_no": "",
    "SMILES": "[C@H](CC1=CC=C(O)C=C1)(C(OC2=CC=C(N(=O)=O)C=C2)=O)NC(OCC3=CC=CC=C3)=O",
    "meta_data": {
        "InChI": "InChI=1S/C23H20N2O7/c26-19-10-6-16(7-11-19)14-21(24-23(28)31-15-17-4-2-1-3-5-17)22(27)32-20-12-8-18(9-13-20)25(29)30/h1-13,21,26H,14-15H2,(H,24,28)/t21-/m0/s1",
        "InChIKey": null,
        "Canonical SMILES": "O=C(OCC=1C=CC=CC1)NC(C(=O)OC2=CC=C(C=C2)N(=O)=O)CC3=CC=C(O)C=C3",
        "Molecular Formula": "C<sub>23</sub>H<sub>20</sub>N<sub>2</sub>O<sub>7</sub>",
        "Molecular Mass": "436.41",
        "Melting Point": "155-156 °C"
    }
}