{
    "cas_no": "1212-48-2",
    "key_name": "1<em>H</em>-Benzimidazole, 2-(phenylmethyl)-, hydrochloride (1:1)",
    "cn_name": "盐酸地巴唑HPLC;盐酸地巴唑HPLC;",
    "alternate_name": "1<em>H</em>-Benzimidazole, 2-(phenylmethyl)-, hydrochloride (1:1);Benzimidazole, 2-benzyl-, monohydrochloride;1<em>H</em>-Benzimidazole, 2-(phenylmethyl)-, monohydrochloride;Dibazole hydrochloride;Dibazol hydrochloride;Bendazol hydrochloride;Dibasole;2-Benzyl-1<em>H</em>-benzoimidazole; hydrochloride;2-Benzyl-1<em>H</em>-benzimidazole monohydrochloride;2-Benzyl-1<em>H</em>-benzo[<em>d</em>]imidazole hydrochloride",
    "duplicated_cas_no": "2593569-50-5",
    "SMILES": "C(C=1NC=2C(N1)=CC=CC2)C3=CC=CC=C3.Cl",
    "meta_data": {
        "InChI": "InChI=1S/C14H12N2.ClH/c1-2-6-11(7-3-1)10-14-15-12-8-4-5-9-13(12)16-14;/h1-9H,10H2,(H,15,16);1H",
        "InChIKey": null,
        "Canonical SMILES": "Cl.N=1C=2C=CC=CC2NC1CC=3C=CC=CC3",
        "Molecular Formula": "C<sub>14</sub>H<sub>12</sub>N<sub>2</sub>.ClH",
        "Molecular Mass": "",
        "Melting Point": "175 °C"
    }
}