{
    "cas_no": "106-57-0",
    "key_name": "2,5-Piperazinedione",
    "cn_name": null,
    "alternate_name": "2,5-Piperazinedione;Cycloglycylglycine;α,γ-Diacipiperazine;Diglycolyl diamide;2,5-Diketopiperazine;2,5-Dioxopiperazine;Glycylglycine lactam;Glycine, <em>N</em>-glycyl-, cyclic peptide;Cyclo(glycylglycyl);Cyclodiglycine;Diketopiperazine;Cyclo(Gly-Gly);Glycine, bimol. cyclic peptide;NSC 26345;Glycine cyclic dimer",
    "duplicated_cas_no": "",
    "SMILES": "O=C1CNC(=O)CN1",
    "meta_data": {
        "InChI": "InChI=1S/C4H6N2O2/c7-3-1-5-4(8)2-6-3/h1-2H2,(H,5,8)(H,6,7)",
        "InChIKey": null,
        "Canonical SMILES": "O=C1NCC(=O)NC1",
        "Molecular Formula": "C<sub>4</sub>H<sub>6</sub>N<sub>2</sub>O<sub>2</sub>",
        "Molecular Mass": "114.10",
        "Melting Point": "312 °C (decomp)"
    }
}