{
    "cas_no": "198904-86-8",
    "key_name": "1,1-Dimethylethyl 2-[(2<em>S</em>,3<em>S</em>)-3-[[(1,1-dimethylethoxy)carbonyl]amino]-2-hydroxy-4-phenylbutyl]-2-[[4-(2-pyridinyl)phenyl]methyl]hydrazinecarboxylate",
    "cn_name": null,
    "alternate_name": "Hydrazinecarboxylic acid, 2-[(2<em>S</em>,3<em>S</em>)-3-[[(1,1-dimethylethoxy)carbonyl]amino]-2-hydroxy-4-phenylbutyl]-2-[[4-(2-pyridinyl)phenyl]methyl]-, 1,1-dimethylethyl ester;Hydrazinecarboxylic acid, 2-[3-[[(1,1-dimethylethoxy)carbonyl]amino]-2-hydroxy-4-phenylbutyl]-2-[[4-(2-pyridinyl)phenyl]methyl]-, 1,1-dimethylethyl ester, [<em>S</em>-(<em>R</em>*,<em>R</em>*)]-;1,1-Dimethylethyl 2-[(2<em>S</em>,3<em>S</em>)-3-[[(1,1-dimethylethoxy)carbonyl]amino]-2-hydroxy-4-phenylbutyl]-2-[[4-(2-pyridinyl)phenyl]methyl]hydrazinecarboxylate",
    "duplicated_cas_no": "",
    "SMILES": "C(N(C[C@@H]([C@H](CC1=CC=CC=C1)NC(OC(C)(C)C)=O)O)NC(OC(C)(C)C)=O)C2=CC=C(C=C2)C3=CC=CC=N3",
    "meta_data": {
        "InChI": "InChI=1S/C32H42N4O5/c1-31(2,3)40-29(38)34-27(20-23-12-8-7-9-13-23)28(37)22-36(35-30(39)41-32(4,5)6)21-24-15-17-25(18-16-24)26-14-10-11-19-33-26/h7-19,27-28,37H,20-22H2,1-6H3,(H,34,38)(H,35,39)/t27-,28-/m0/s1",
        "InChIKey": null,
        "Canonical SMILES": "O=C(OC(C)(C)C)NN(CC=1C=CC(=CC1)C2=NC=CC=C2)CC(O)C(NC(=O)OC(C)(C)C)CC=3C=CC=CC3",
        "Molecular Formula": "C<sub>32</sub>H<sub>42</sub>N<sub>4</sub>O<sub>5</sub>",
        "Molecular Mass": "562.70",
        "Melting Point": "185-186 °C"
    }
}