{
    "cas_no": "155306-71-1",
    "key_name": "C 545T",
    "cn_name": null,
    "alternate_name": "1<em>H</em>,5<em>H</em>,11<em>H</em>-[1]Benzopyrano[6,7,8-<em>ij</em>]quinolizin-11-one, 10-(2-benzothiazolyl)-2,3,6,7-tetrahydro-1,1,7,7-tetramethyl-;10-(2-Benzothiazolyl)-2,3,6,7-tetrahydro-1,1,7,7-tetramethyl-1<em>H</em>,5<em>H</em>,11<em>H</em>-[1]benzopyrano[6,7,8-<em>ij</em>]quinolizin-11-one;10-(2-Benzothiazolyl)-1,1,7,7-tetramethyl-2,3,6,7-tetrahydro-1<em>H</em>,5<em>H</em>,11<em>H</em>-[1]benzopyrano[6,7,8-<em>ij</em>]quinolizin-11-one;NKX 1595;Coumarin 545T;C 545T;10-(2-Benzothiazolyl)-2,3,6,7-tetrahydro-1,1,7,7-tetramethyl-1<em>H</em>,5<em>H</em>,11<em>H</em>-[1]benzopyrano[6,7,8-<em>ij</em>]quinolizin-11-on",
    "duplicated_cas_no": "298699-87-3;1519039-19-0",
    "SMILES": "CC1(C)C=2C3=C(C=C4C2OC(=O)C(=C4)C5=NC=6C(S5)=CC=CC6)C(C)(C)CCN3CC1",
    "meta_data": {
        "InChI": "InChI=1S/C26H26N2O2S/c1-25(2)9-11-28-12-10-26(3,4)20-21(28)17(25)14-15-13-16(24(29)30-22(15)20)23-27-18-7-5-6-8-19(18)31-23/h5-8,13-14H,9-12H2,1-4H3",
        "InChIKey": null,
        "Canonical SMILES": "O=C1OC2=C(C=C1C3=NC=4C=CC=CC4S3)C=C5C6=C2C(C)(C)CCN6CCC5(C)C",
        "Molecular Formula": "C<sub>26</sub>H<sub>26</sub>N<sub>2</sub>O<sub>2</sub>S",
        "Molecular Mass": "430.56",
        "Melting Point": "234 °C"
    }
}