{
    "cas_no": "111-71-7",
    "key_name": "Heptanal",
    "cn_name": "庚醛;正庚醛;",
    "alternate_name": "Heptanal;Enanthal;Enanthaldehyde;Enanthole;Heptaldehyde;Heptyl aldehyde;Oenanthal;Oenanthaldehyde;Oenanthic aldehyde;Oenanthol;Enanthic aldehyde;<em>n</em>-Heptylaldehyde;<em>n</em>-Heptanal;<em>n</em>-Heptaldehyde;Heptanaldehyde;1-Heptaldehyde;NSC 2190",
    "duplicated_cas_no": "",
    "SMILES": "C(CCC=O)CCC",
    "meta_data": {
        "InChI": "InChI=1S/C7H14O/c1-2-3-4-5-6-7-8/h7H,2-6H2,1H3",
        "InChIKey": null,
        "Canonical SMILES": "O=CCCCCCC",
        "Molecular Formula": "C<sub>7</sub>H<sub>14</sub>O",
        "Molecular Mass": "114.19",
        "Boiling Point": "152.8 °C",
        "Melting Point": "-43.3 °C",
        "Density": "0.82162 g/cm³ @ Temp: 15 °C"
    }
}