{
    "cas_no": "345-83-5",
    "key_name": "4-Fluorobenzophenone",
    "cn_name": "4-氟二苯甲酮;",
    "alternate_name": "Methanone, (4-fluorophenyl)phenyl-;Benzophenone, 4-fluoro-;(4-Fluorophenyl)phenylmethanone;4-Fluorobenzophenone;<em>p</em>-Fluorobenzophenone;Phenyl 4-fluorophenyl ketone;<em>p</em>-Fluorophenyl phenyl ketone;NSC 88321;4-Fluorophenyl phenyl ketone;1-(4′-Fluorophenyl)-phenylmethanone",
    "duplicated_cas_no": "",
    "SMILES": "C(=O)(C1=CC=C(F)C=C1)C2=CC=CC=C2",
    "meta_data": {
        "InChI": "InChI=1S/C13H9FO/c14-12-8-6-11(7-9-12)13(15)10-4-2-1-3-5-10/h1-9H",
        "InChIKey": null,
        "Canonical SMILES": "O=C(C=1C=CC=CC1)C2=CC=C(F)C=C2",
        "Molecular Formula": "C<sub>13</sub>H<sub>9</sub>FO",
        "Molecular Mass": "200.21",
        "Melting Point": "48 °C"
    }
}