{
    "cas_no": "49830-37-7",
    "key_name": "1-Aminocyclopentanecarbonitrile",
    "cn_name": null,
    "alternate_name": "Cyclopentanecarbonitrile, 1-amino-;1-Aminocyclopentanecarbonitrile;1-Amino-1-cyclopentanecarbonitrile",
    "duplicated_cas_no": "",
    "SMILES": "C(#N)C1(N)CCCC1",
    "meta_data": {
        "InChI": "InChI=1S/C6H10N2/c7-5-6(8)3-1-2-4-6/h1-4,8H2",
        "InChIKey": null,
        "Canonical SMILES": "N#CC1(N)CCCC1",
        "Molecular Formula": "C<sub>6</sub>H<sub>10</sub>N<sub>2</sub>",
        "Molecular Mass": "110.16",
        "Boiling Point": "60 °C @ Press: 0.5 Torr"
    }
}