{
    "cas_no": "5315-25-3",
    "key_name": "2-Bromo-6-methylpyridine",
    "cn_name": "2-溴-6-甲基吡啶;",
    "alternate_name": "Pyridine, 2-bromo-6-methyl-;2-Picoline, 6-bromo-;2-Bromo-6-methylpyridine;6-Methyl-2-bromopyridine;6-Bromo-2-picoline;2-Bromo-6-picoline;6-Bromo-2-methylpyridine;2-Methyl-6-bromopyridine",
    "duplicated_cas_no": "",
    "SMILES": "BrC=1N=C(C)C=CC1",
    "meta_data": {
        "InChI": "InChI=1S/C6H6BrN/c1-5-3-2-4-6(7)8-5/h2-4H,1H3",
        "InChIKey": null,
        "Canonical SMILES": "BrC=1N=C(C=CC1)C",
        "Molecular Formula": "C<sub>6</sub>H<sub>6</sub>BrN",
        "Molecular Mass": "172.02",
        "Boiling Point": "205.5-207 °C"
    }
}