{
    "cas_no": "352-33-0",
    "key_name": "1-Chloro-4-fluorobenzene",
    "cn_name": "1-氯-4-氟苯;4-氯氟苯;",
    "alternate_name": "Benzene, 1-chloro-4-fluoro-;1-Chloro-4-fluorobenzene;1-Fluoro-4-chlorobenzene;<em>p</em>-Chlorofluorobenzene;<em>p</em>-Fluorochlorobenzene;4-Chlorofluorobenzene;4-Fluorochlorobenzene;<em>p</em>-Monofluoromonochlorobenzene;4-Fluorophenyl chloride;NSC 10272;4-Fluoro-1-chlorobenzene",
    "duplicated_cas_no": "",
    "SMILES": "ClC1=CC=C(F)C=C1",
    "meta_data": {
        "InChI": "InChI=1S/C6H4ClF/c7-5-1-3-6(8)4-2-5/h1-4H",
        "InChIKey": null,
        "Canonical SMILES": "FC1=CC=C(Cl)C=C1",
        "Molecular Formula": "C<sub>6</sub>H<sub>4</sub>ClF",
        "Molecular Mass": "130.55",
        "Boiling Point": "130 °C",
        "Melting Point": "-26.8 °C",
        "Density": "1.2355 g/cm³ @ Temp: 11.2 °C"
    }
}