{
    "cas_no": "21702-79-4",
    "key_name": "Benzoic acid, 3,5-dibromo-2-hydroxy-, methyl ester",
    "cn_name": "3,5-二溴-2-羟基苯甲酸甲酯;",
    "alternate_name": "Benzoic acid, 3,5-dibromo-2-hydroxy-, methyl ester;Salicylic acid, 3,5-dibromo-, methyl ester;Methyl 3,5-dibromosalicylate;Methyl 3,5-dibromo-2-hydroxybenzoate;3,5-Dibromo-2-hydroxy-benzoic acid methyl ester",
    "duplicated_cas_no": "",
    "SMILES": "C(OC)(=O)C1=C(O)C(Br)=CC(Br)=C1",
    "meta_data": {
        "InChI": "InChI=1S/C8H6Br2O3/c1-13-8(12)5-2-4(9)3-6(10)7(5)11/h2-3,11H,1H3",
        "InChIKey": null,
        "Canonical SMILES": "O=C(OC)C=1C=C(Br)C=C(Br)C1O",
        "Molecular Formula": "C<sub>8</sub>H<sub>6</sub>Br<sub>2</sub>O<sub>3</sub>",
        "Molecular Mass": "309.94",
        "Melting Point": "155 °C"
    }
}