{
    "cas_no": "18422-83-8",
    "key_name": "Dihydromorin",
    "cn_name": null,
    "alternate_name": "4<em>H</em>-1-Benzopyran-4-one, 2-(2,4-dihydroxyphenyl)-2,3-dihydro-3,5,7-trihydroxy-, (2<em>R</em>,3<em>R</em>)-;Flavanone, 2′,3,4′,5,7-pentahydroxy-;4<em>H</em>-1-Benzopyran-4-one, 2-(2,4-dihydroxyphenyl)-2,3-dihydro-3,5,7-trihydroxy-, (2<em>R</em>-<em>trans</em>)-;(2<em>R</em>,3<em>R</em>)-2-(2,4-Dihydroxyphenyl)-2,3-dihydro-3,5,7-trihydroxy-4<em>H</em>-1-benzopyran-4-one;Dihydromorin;(+)-Dihydromorin",
    "duplicated_cas_no": "97676-49-8;910619-49-7;1089764-67-9;1610531-86-6;1812186-23-4",
    "SMILES": "O=C1C=2C(O[C@@H]([C@H]1O)C3=C(O)C=C(O)C=C3)=CC(O)=CC2O",
    "meta_data": {
        "InChI": "InChI=1S/C15H12O7/c16-6-1-2-8(9(18)3-6)15-14(21)13(20)12-10(19)4-7(17)5-11(12)22-15/h1-5,14-19,21H/t14-,15+/m0/s1",
        "InChIKey": null,
        "Canonical SMILES": "O=C1C=2C(O)=CC(O)=CC2OC(C3=CC=C(O)C=C3O)C1O",
        "Molecular Formula": "C<sub>15</sub>H<sub>12</sub>O<sub>7</sub>",
        "Molecular Mass": "304.25",
        "Melting Point": "224 °C"
    }
}