{
    "cas_no": "2168-93-6",
    "key_name": "Dibutyl sulfoxide",
    "cn_name": "正丁基亚砜;",
    "alternate_name": "Butane, 1-(butylsulfinyl)-;Butyl sulfoxide;Butane, 1,1′-sulfinylbis-;1-(Butylsulfinyl)butane;Di-<em>n</em>-butyl sulfoxide;Dibutyl sulfoxide;1,1′-Sulfinylbis[butane];<em>n</em>-Butyl sulfoxide",
    "duplicated_cas_no": "2095628-15-0",
    "SMILES": "S(CCCC)(CCCC)=O",
    "meta_data": {
        "InChI": "InChI=1S/C8H18OS/c1-3-5-7-10(9)8-6-4-2/h3-8H2,1-2H3",
        "InChIKey": null,
        "Canonical SMILES": "O=S(CCCC)CCCC",
        "Molecular Formula": "C<sub>8</sub>H<sub>18</sub>OS",
        "Molecular Mass": "162.29",
        "Boiling Point": "106-107 °C @ Press: 2 Torr",
        "Melting Point": "32.6 °C",
        "Density": "0.92234 g/cm³ @ Temp: 40.00 °C"
    }
}