{
    "cas_no": "6053-81-2",
    "key_name": "Cyclopentanemethanamine",
    "cn_name": "环戊基甲胺;",
    "alternate_name": "Cyclopentanemethanamine;Cyclopentanemethylamine;Aminomethylcyclopentane;(Cyclopentylmethyl)amine;1-Cyclopentylmethanamine;Cyclopentylmethanamine",
    "duplicated_cas_no": "",
    "SMILES": "C(N)C1CCCC1",
    "meta_data": {
        "InChI": "InChI=1S/C6H13N/c7-5-6-3-1-2-4-6/h6H,1-5,7H2",
        "InChIKey": null,
        "Canonical SMILES": "NCC1CCCC1",
        "Molecular Formula": "C<sub>6</sub>H<sub>13</sub>N",
        "Molecular Mass": "99.17",
        "Boiling Point": "140 °C"
    }
}