{
    "cas_no": "118058-74-5",
    "key_name": "5-<em>O</em>-Desosaminyl-6-<em>O</em>-methylerythronolide A",
    "cn_name": null,
    "alternate_name": "Erythromycin, 3-<em>O</em>-de(2,6-dideoxy-3-<em>C</em>-methyl-3-<em>O</em>-methyl-α-<span class=\"text-smallcaps\">L</span>-<em>ribo</em>-hexopyranosyl)-6-<em>O</em>-methyl-;Oxacyclotetradecane, erythromycin deriv.;3-<em>O</em>-De(2,6-dideoxy-3-<em>C</em>-methyl-3-<em>O</em>-methyl-α-<span class=\"text-smallcaps\">L</span>-<em>ribo</em>-hexopyranosyl)-6-<em>O</em>-methylerythromycin;De(cladinosyl)clarithromycin;5-<em>O</em>-Desosaminyl-6-<em>O</em>-methylerythronolide A",
    "duplicated_cas_no": "118165-21-2",
    "SMILES": "O([C@H]1[C@@](OC)(C)C[C@@H](C)C(=O)[C@H](C)[C@@H](O)[C@](C)(O)[C@@H](CC)OC(=O)[C@H](C)[C@@H](O)[C@@H]1C)[C@H]2[C@H](O)[C@@H](N(C)C)C[C@@H](C)O2",
    "meta_data": {
        "InChI": "InChI=1S/C30H55NO10/c1-12-21-30(8,37)25(35)17(4)22(32)15(2)14-29(7,38-11)26(18(5)23(33)19(6)27(36)40-21)41-28-24(34)20(31(9)10)13-16(3)39-28/h15-21,23-26,28,33-35,37H,12-14H2,1-11H3/t15-,16-,17+,18+,19-,20+,21-,23+,24-,25-,26-,28+,29-,30-/m1/s1",
        "InChIKey": null,
        "Canonical SMILES": "O=C1OC(CC)C(O)(C)C(O)C(C(=O)C(C)CC(OC)(C)C(OC2OC(C)CC(N(C)C)C2O)C(C)C(O)C1C)C",
        "Molecular Formula": "C<sub>30</sub>H<sub>55</sub>NO<sub>10</sub>",
        "Molecular Mass": "589.76",
        "Melting Point": "158-160 °C"
    }
}