{
    "cas_no": "73-03-0",
    "key_name": "Cordycepin",
    "cn_name": "虫草素;3\"-脱氧腺苷;",
    "alternate_name": "Adenosine, 3′-deoxy-;Cordycepin;3′-Deoxyadenosine;9-Cordyceposidoadenine;9<em>H</em>-Purin-6-amine, 9-(3-deoxy-β-<span class=\"text-smallcaps\">D</span>-<em>erythro</em>-pentofuranosyl)-;β-<span class=\"text-smallcaps\">D</span>-<em>erythro</em>-Pentofuranoside, adenine-9 3-deoxy-;Cordycepine;9-(3-Deoxy-β-<span class=\"text-smallcaps\">D</span>-ribofuranosyl)adenine;NSC 63984;NSC 401022;NQZ-001",
    "duplicated_cas_no": "153-49-1;48171-89-7;2222836-17-9",
    "SMILES": "O[C@H]1[C@H](N2C=3C(N=C2)=C(N)N=CN3)O[C@H](CO)C1",
    "meta_data": {
        "InChI": "InChI=1S/C10H13N5O3/c11-8-7-9(13-3-12-8)15(4-14-7)10-6(17)1-5(2-16)18-10/h3-6,10,16-17H,1-2H2,(H2,11,12,13)/t5-,6+,10+/m0/s1",
        "InChIKey": null,
        "Canonical SMILES": "OCC1OC(N2C=NC=3C(=NC=NC32)N)C(O)C1",
        "Molecular Formula": "C<sub>10</sub>H<sub>13</sub>N<sub>5</sub>O<sub>3</sub>",
        "Molecular Mass": "251.24",
        "Melting Point": "225.5 °C"
    }
}