{
    "cas_no": "5445-22-7",
    "key_name": "Octanoic acid, 2-bromo-, methyl ester",
    "cn_name": "2-溴辛酸甲酯;2-溴辛酸甲酯;",
    "alternate_name": "Octanoic acid, 2-bromo-, methyl ester;Methyl 2-bromooctanoate;NSC 21981",
    "duplicated_cas_no": "135339-61-6",
    "SMILES": "C(CCCCCC)(C(OC)=O)Br",
    "meta_data": {
        "InChI": "InChI=1S/C9H17BrO2/c1-3-4-5-6-7-8(10)9(11)12-2/h8H,3-7H2,1-2H3",
        "InChIKey": null,
        "Canonical SMILES": "O=C(OC)C(Br)CCCCCC",
        "Molecular Formula": "C<sub>9</sub>H<sub>17</sub>BrO<sub>2</sub>",
        "Molecular Mass": "237.13",
        "Boiling Point": "15 °C @ Press: 0.6 Torr"
    }
}