{
    "cas_no": "112143-82-5",
    "key_name": "Triazamate",
    "cn_name": null,
    "alternate_name": "Acetic acid, 2-[[1-[(dimethylamino)carbonyl]-3-(1,1-dimethylethyl)-1<em>H</em>-1,2,4-triazol-5-yl]thio]-, ethyl ester;Acetic acid, [[1-[(dimethylamino)carbonyl]-3-(1,1-dimethylethyl)-1<em>H</em>-1,2,4-triazol-5-yl]thio]-, ethyl ester;RH 7988;Triazamate;Triazuron;Aphistar",
    "duplicated_cas_no": "110895-43-7",
    "SMILES": "C(N(C)C)(=O)N1C(SCC(OCC)=O)=NC(C(C)(C)C)=N1",
    "meta_data": {
        "InChI": "InChI=1S/C13H22N4O3S/c1-7-20-9(18)8-21-11-14-10(13(2,3)4)15-17(11)12(19)16(5)6/h7-8H2,1-6H3",
        "InChIKey": null,
        "Canonical SMILES": "O=C(OCC)CSC1=NC(=NN1C(=O)N(C)C)C(C)(C)C",
        "Molecular Formula": "C<sub>13</sub>H<sub>22</sub>N<sub>4</sub>O<sub>3</sub>S",
        "Molecular Mass": "314.40",
        "Boiling Point": "&gt;280 °C",
        "Melting Point": "53 °C"
    }
}