{
    "cas_no": "188121-31-5",
    "key_name": "6-Methyl-5-nitroisoquinoline",
    "cn_name": null,
    "alternate_name": "Isoquinoline, 6-methyl-5-nitro-;6-Methyl-5-nitroisoquinoline",
    "duplicated_cas_no": "",
    "SMILES": "N(=O)(=O)C=1C2=C(C=CC1C)C=NC=C2",
    "meta_data": {
        "InChI": "InChI=1S/C10H8N2O2/c1-7-2-3-8-6-11-5-4-9(8)10(7)12(13)14/h2-6H,1H3",
        "InChIKey": null,
        "Canonical SMILES": "O=N(=O)C=1C=2C=CN=CC2C=CC1C",
        "Molecular Formula": "C<sub>10</sub>H<sub>8</sub>N<sub>2</sub>O<sub>2</sub>",
        "Molecular Mass": "188.18",
        "Melting Point": "135-137 °C"
    }
}