{
    "cas_no": "149-15-5",
    "key_name": "1-Propanol, 3-(dibutylamino)-, 1-(4-aminobenzoate), sulfate (2:1)",
    "cn_name": "硫酸丁丙卡因;",
    "alternate_name": "1-Propanol, 3-(dibutylamino)-, 1-(4-aminobenzoate), sulfate (2:1);1-Propanol, 3-(dibutylamino)-, 4-aminobenzoate (ester), sulfate (2:1) (salt);Butacaine sulfate;1-Propanol, 3-(dibutylamino)-, <em>p</em>-aminobenzoate (ester), sulfate (2:1);3-(<em>p</em>-Aminobenzoxy)-1-di-<em>n</em>-butylaminopropane sulfate;Butyn Sulfate;Dibutylaminopropyl <em>p</em>-aminobenzoate sulfate;3′-Dibutylaminopropyl 4-aminobenzoate sulfate;Butacaine hemisulfate",
    "duplicated_cas_no": "",
    "SMILES": "S(=O)(=O)(O)O.C(OCCCN(CCCC)CCCC)(=O)C1=CC=C(N)C=C1",
    "meta_data": {
        "InChI": "InChI=1S/C18H30N2O2.H2O4S/c1-3-5-12-20(13-6-4-2)14-7-15-22-18(21)16-8-10-17(19)11-9-16;1-5(2,3)4/h8-11H,3-7,12-15,19H2,1-2H3;(H2,1,2,3,4)",
        "InChIKey": null,
        "Canonical SMILES": "O=C(OCCCN(CCCC)CCCC)C1=CC=C(N)C=C1.O=S(=O)(O)O",
        "Molecular Formula": "C<sub>18</sub>H<sub>30</sub>N<sub>2</sub>O<sub>2</sub>.<sup>1</sup>/<sub>2</sub>H<sub>2</sub>O<sub>4</sub>S",
        "Molecular Mass": "",
        "Melting Point": "138.5-139.5 °C"
    }
}