{
    "cas_no": "40252-74-2",
    "key_name": "3-Methoxybenzaldehyde 2-[(3-methoxyphenyl)methylene]hydrazone",
    "cn_name": null,
    "alternate_name": "Benzaldehyde, 3-methoxy-, 2-[(3-methoxyphenyl)methylene]hydrazone;Benzaldehyde, 3-methoxy-, [(3-methoxyphenyl)methylene]hydrazone;<em>m</em>-Anisaldehyde, azine;3-Methoxybenzaldehyde 2-[(3-methoxyphenyl)methylene]hydrazone;3,3′-Dimethoxybenzaldazine",
    "duplicated_cas_no": "",
    "SMILES": "C(=NN=CC1=CC(OC)=CC=C1)C2=CC(OC)=CC=C2",
    "meta_data": {
        "InChI": "InChI=1S/C16H16N2O2/c1-19-15-7-3-5-13(9-15)11-17-18-12-14-6-4-8-16(10-14)20-2/h3-12H,1-2H3",
        "InChIKey": null,
        "Canonical SMILES": "N(N=CC=1C=CC=C(OC)C1)=CC=2C=CC=C(OC)C2",
        "Molecular Formula": "C<sub>16</sub>H<sub>16</sub>N<sub>2</sub>O<sub>2</sub>",
        "Molecular Mass": "268.31",
        "Melting Point": "77-78 °C"
    }
}