{
    "cas_no": "70831-56-0",
    "key_name": "(-)-Chicoric acid",
    "cn_name": "菊苣酸;(2R,3R)-2,3-双[[(E)-3-(3,4-二羟基苯基)丙-2-烯酰]氧]丁二酸;",
    "alternate_name": "Butanedioic acid, 2,3-bis[[(2<em>E</em>)-3-(3,4-dihydroxyphenyl)-1-oxo-2-propen-1-yl]oxy]-, (2<em>R</em>,3<em>R</em>)-;Butanedioic acid, 2,3-bis[[3-(3,4-dihydroxyphenyl)-1-oxo-2-propenyl]oxy]-, [<em>R</em>-[<em>R</em>*,<em>R</em>*-(<em>E</em>,<em>E</em>)]]-;Butanedioic acid, 2,3-bis[[(2<em>E</em>)-3-(3,4-dihydroxyphenyl)-1-oxo-2-propenyl]oxy]-, (2<em>R</em>,3<em>R</em>)-;(2<em>R</em>,3<em>R</em>)-2,3-Bis[[(2<em>E</em>)-3-(3,4-dihydroxyphenyl)-1-oxo-2-propen-1-yl]oxy]butanedioic acid;Chicoric acid, (-)-;(-)-Chicoric acid;l-Chicoric acid;(-)-<span class=\"text-smallcaps\">L</span>-Chicoric acid;NSC 99173;<span class=\"text-smallcaps\">L</span>-Chicoric acid;<em>trans</em>-Caffeoyltartaric acid",
    "duplicated_cas_no": "",
    "SMILES": "[C@H]([C@@H](OC(/C=C/C1=CC(O)=C(O)C=C1)=O)C(O)=O)(OC(/C=C/C2=CC(O)=C(O)C=C2)=O)C(O)=O",
    "meta_data": {
        "InChI": "InChI=1S/C22H18O12/c23-13-5-1-11(9-15(13)25)3-7-17(27)33-19(21(29)30)20(22(31)32)34-18(28)8-4-12-2-6-14(24)16(26)10-12/h1-10,19-20,23-26H,(H,29,30)(H,31,32)/b7-3+,8-4+/t19-,20-/m1/s1",
        "InChIKey": null,
        "Canonical SMILES": "O=C(OC(C(=O)O)C(OC(=O)C=CC1=CC=C(O)C(O)=C1)C(=O)O)C=CC2=CC=C(O)C(O)=C2",
        "Molecular Formula": "C<sub>22</sub>H<sub>18</sub>O<sub>12</sub>",
        "Molecular Mass": "474.37",
        "Melting Point": "206 °C"
    }
}