{
    "cas_no": "19379-90-9",
    "key_name": "Benzoxonium chloride",
    "cn_name": "N-十二烷基-N,N-双(2-羟基乙基)苯甲基氯化铵;",
    "alternate_name": "Benzenemethanaminium, <em>N</em>-dodecyl-<em>N</em>,<em>N</em>-bis(2-hydroxyethyl)-, chloride (1:1);Ammonium, benzyldodecylbis(2-hydroxyethyl)-, chloride;Benzenemethanaminium, <em>N</em>-dodecyl-<em>N</em>,<em>N</em>-bis(2-hydroxyethyl)-, chloride;Benzyldodecylbis(2-hydroxyethyl)ammonium chloride;Absonal;Bradophen;Dodecylbis(β-hydroxyethyl)benzylammonium chloride;Beloran;Dodecyldi(β-hydroxyethyl)benzylammonium chloride;Cohortan;D 301 (antiseptic);Dodecyl(benzyl)diethanolammonium chloride;Benzyldodecyldiethanolammonium chloride;Laurylbis(2-hydroxyethyl)benzylammonium chloride;Lomades;Bactofen;Benzoxonium chloride;D 301;Katanol C<sub>12</sub>;Zy 15021;Bradophen 100M;Bialcol;Orofar;Absonal V",
    "duplicated_cas_no": "",
    "SMILES": "[N+](CC1=CC=CC=C1)(CCCCCCCCCCCC)(CCO)CCO.[Cl-]",
    "meta_data": {
        "InChI": "InChI=1S/C23H42NO2.ClH/c1-2-3-4-5-6-7-8-9-10-14-17-24(18-20-25,19-21-26)22-23-15-12-11-13-16-23;/h11-13,15-16,25-26H,2-10,14,17-22H2,1H3;1H/q+1;/p-1",
        "InChIKey": null,
        "Canonical SMILES": "[Cl-].OCC[N+](CC=1C=CC=CC1)(CCO)CCCCCCCCCCCC",
        "Molecular Formula": "C<sub>23</sub>H<sub>42</sub>NO<sub>2</sub>.Cl",
        "Molecular Mass": "",
        "Melting Point": "108 °C"
    }
}