{
    "cas_no": "1069-23-4",
    "key_name": "1,5-Hexadiene-3,4-diol",
    "cn_name": "1,5-己二烯-3,4-二醇;二乙烯基乙二醇;",
    "alternate_name": "1,5-Hexadiene-3,4-diol;3,4-Dihydroxy-1,5-hexadiene;Divinylglycol;NSC 60695;1,2-Divinylethylene glycol",
    "duplicated_cas_no": "",
    "SMILES": "C(C(C=C)O)(C=C)O",
    "meta_data": {
        "InChI": "InChI=1S/C6H10O2/c1-3-5(7)6(8)4-2/h3-8H,1-2H2",
        "InChIKey": null,
        "Canonical SMILES": "OC(C=C)C(O)C=C",
        "Molecular Formula": "C<sub>6</sub>H<sub>10</sub>O<sub>2</sub>",
        "Molecular Mass": "114.14",
        "Boiling Point": "138-144 °C",
        "Melting Point": "106 °C",
        "Density": "1.006 g/cm³ @ Temp: 20 °C"
    }
}