{
    "cas_no": "921205-03-0",
    "key_name": "1,3,5-Tri(<em>m</em>-pyrid-3-ylphenyl)benzene",
    "cn_name": null,
    "alternate_name": "Pyridine, 3,3′-[5′-[3-(3-pyridinyl)phenyl][1,1′:3′,1′′-terphenyl]-3,3′′-diyl]bis-;3,3′-[5′-[3-(3-Pyridinyl)phenyl][1,1′:3′,1′′-terphenyl]-3,3′′-diyl]bis[pyridine];1,3,5-Tri(<em>m</em>-pyridin-3-ylphenyl)benzenee;1,3,5-Tri(<em>m</em>-pyrid-3-ylphenyl)benzene;1,3,5-Tris(3-pyridyl-3-phenyl)benzene;TmPyPB;Tm3PyPB;1,3,5-Tri(<em>m</em>-pyridin-3-ylphenyl)benzene;1,3,5-Tris(<em>m</em>-pyridin-3-ylphenyl)benzene;3,3′′-Bis-(3-pyridinyl)-5′-(3-(3-pyridinyl)phenyl)-1,1′:3′,1′′-Terphenyl",
    "duplicated_cas_no": "",
    "SMILES": "C1(=CC(=CC(=C1)C2=CC(=CC=C2)C=3C=CC=NC3)C4=CC(=CC=C4)C=5C=CC=NC5)C6=CC(=CC=C6)C=7C=CC=NC7",
    "meta_data": {
        "InChI": "InChI=1S/C39H27N3/c1-7-28(34-13-4-16-40-25-34)19-31(10-1)37-22-38(32-11-2-8-29(20-32)35-14-5-17-41-26-35)24-39(23-37)33-12-3-9-30(21-33)36-15-6-18-42-27-36/h1-27H",
        "InChIKey": null,
        "Canonical SMILES": "N=1C=CC=C(C1)C2=CC=CC(=C2)C3=CC(=CC(=C3)C4=CC=CC(=C4)C=5C=NC=CC5)C=6C=CC=C(C6)C=7C=NC=CC7",
        "Molecular Formula": "C<sub>39</sub>H<sub>27</sub>N<sub>3</sub>",
        "Molecular Mass": "537.65",
        "Melting Point": "181 °C"
    }
}