{
    "cas_no": "5327-45-7",
    "key_name": "<em>N</em>-(Phenylmethyl)octadecanamide",
    "cn_name": null,
    "alternate_name": "Octadecanamide, <em>N</em>-(phenylmethyl)-;Octadecanamide, <em>N</em>-benzyl-;Stearamide, <em>N</em>-benzyl-;<em>N</em>-(Phenylmethyl)octadecanamide;<em>N</em>-Benzylstearamide;NSC 3333;<em>N</em>-Benzyloctadecanamide",
    "duplicated_cas_no": "",
    "SMILES": "C(NC(CCCCCCCCCCCCCCCCC)=O)C1=CC=CC=C1",
    "meta_data": {
        "InChI": "InChI=1S/C25H43NO/c1-2-3-4-5-6-7-8-9-10-11-12-13-14-15-19-22-25(27)26-23-24-20-17-16-18-21-24/h16-18,20-21H,2-15,19,22-23H2,1H3,(H,26,27)",
        "InChIKey": null,
        "Canonical SMILES": "O=C(NCC=1C=CC=CC1)CCCCCCCCCCCCCCCCC",
        "Molecular Formula": "C<sub>25</sub>H<sub>43</sub>NO",
        "Molecular Mass": "373.61",
        "Melting Point": "86-88 °C"
    }
}