{
    "cas_no": "132-29-6",
    "key_name": "Phosphoric acid, [1,1′-biphenyl]-2-yl diphenyl ester",
    "cn_name": "磷酸-2-联苯基二苯基酯;磷酸-2-联苯基二苯基酯;",
    "alternate_name": "Phosphoric acid, [1,1′-biphenyl]-2-yl diphenyl ester;Phosphoric acid, 2-biphenylyl diphenyl ester;2-Biphenylyl phenyl phosphate ((C<sub>12</sub>H<sub>9</sub>O)(PhO)<sub>2</sub>PO);2-Biphenylol, diphenyl phosphate;Dow 5;2-Biphenylyl diphenyl phosphate;Diphenyl mono-<em>o</em>-xenyl phosphate;Dow Plasticizer 5;<em>o</em>-Phenylphenyl diphenyl phosphate;Diphenyl <em>o</em>-biphenylyl phosphate;<em>o</em>-Phenylphenyl bisphenyl phosphate;NSC 2889;<em>o</em>-Xelenyl diphenyl phosphate",
    "duplicated_cas_no": "",
    "SMILES": "O(P(OC1=CC=CC=C1)(OC2=CC=CC=C2)=O)C3=C(C=CC=C3)C4=CC=CC=C4",
    "meta_data": {
        "InChI": "InChI=1S/C24H19O4P/c25-29(26-21-14-6-2-7-15-21,27-22-16-8-3-9-17-22)28-24-19-11-10-18-23(24)20-12-4-1-5-13-20/h1-19H",
        "InChIKey": null,
        "Canonical SMILES": "O=P(OC=1C=CC=CC1)(OC=2C=CC=CC2)OC=3C=CC=CC3C=4C=CC=CC4",
        "Molecular Formula": "C<sub>24</sub>H<sub>19</sub>O<sub>4</sub>P",
        "Molecular Mass": "402.38",
        "Boiling Point": "289-290 °C @ Press: 11.5 Torr",
        "Density": "1.2896 g/cm³ @ Temp: 204 °C"
    }
}