{
    "cas_no": "3976-69-0",
    "key_name": "Methyl (-)-3-hydroxybutyrate",
    "cn_name": "(R)-3-羟基丁酸甲酯;",
    "alternate_name": "Butanoic acid, 3-hydroxy-, methyl ester, (3<em>R</em>)-;Butanoic acid, 3-hydroxy-, methyl ester, (<em>R</em>)-;Butyric acid, 3-hydroxy-, methyl ester, <span class=\"text-smallcaps\">D</span>-(-)-;<span class=\"text-smallcaps\">D</span>-3-Hydroxybutyric acid methyl ester;Methyl (<em>R</em>)-3-hydroxybutanoate;Methyl (-)-3-hydroxybutyrate;Methyl (<em>R</em>)-3-hydroxybutyrate;(<em>R</em>)-β-Hydroxybutyric acid methyl ester;Methyl 3<em>R</em>-hydroxybutyrate;Methyl (<em>R</em>)-(-)-3-hydroxybutyrate;Methyl (-)-3-hydroxybutanoate;Methyl (R)-3-hydroxybutanoate;(-)-(3<em>R</em>)-3-Hydroxybutanoic acid methyl ester;(3<em>R</em>)-3-Hydroxybutanoic acid methyl ester;Methyl (3<em>R</em>)-hydroxybutanoate;(<em>R</em>)-(-)-3-Hydroxy-<em>n</em>-butyrate methyl ester;Methyl (R)-3-hydroxybutyrate",
    "duplicated_cas_no": "",
    "SMILES": "C(C[C@@H](C)O)(OC)=O",
    "meta_data": {
        "InChI": "InChI=1S/C5H10O3/c1-4(6)3-5(7)8-2/h4,6H,3H2,1-2H3/t4-/m1/s1",
        "InChIKey": null,
        "Canonical SMILES": "O=C(OC)CC(O)C",
        "Molecular Formula": "C<sub>5</sub>H<sub>10</sub>O<sub>3</sub>",
        "Molecular Mass": "118.13",
        "Boiling Point": "63-66 °C @ Press: 10 Torr",
        "Density": "1.0523 g/cm³ @ Temp: 25.00 °C"
    }
}