{
    "cas_no": "57672-33-0",
    "key_name": "2,3-Dihydro-7-nitro-1,4-benzodioxin-6-carboxylic acid",
    "cn_name": null,
    "alternate_name": "1,4-Benzodioxin-6-carboxylic acid, 2,3-dihydro-7-nitro-;1,4-Benzodioxan-6-carboxylic acid, 7-nitro-;2,3-Dihydro-7-nitro-1,4-benzodioxin-6-carboxylic acid",
    "duplicated_cas_no": "",
    "SMILES": "C(O)(=O)C1=C(N(=O)=O)C=C2C(=C1)OCCO2",
    "meta_data": {
        "InChI": "InChI=1S/C9H7NO6/c11-9(12)5-3-7-8(16-2-1-15-7)4-6(5)10(13)14/h3-4H,1-2H2,(H,11,12)",
        "InChIKey": null,
        "Canonical SMILES": "O=C(O)C1=CC=2OCCOC2C=C1N(=O)=O",
        "Molecular Formula": "C<sub>9</sub>H<sub>7</sub>NO<sub>6</sub>",
        "Molecular Mass": "225.15",
        "Melting Point": "230-231 °C"
    }
}