{
    "cas_no": "73-49-4",
    "key_name": "Quinethazone",
    "cn_name": "喹乙唑酮;奎乃塞酮;喹乙宗;",
    "alternate_name": "6-Quinazolinesulfonamide, 7-chloro-2-ethyl-1,2,3,4-tetrahydro-4-oxo-;7-Chloro-2-ethyl-1,2,3,4-tetrahydro-4-oxo-6-quinazolinesulfonamide;Aquamox;7-Chloro-2-ethyl-2,3-dihydro-4-oxo-(1<em>H</em>)-quinazoline-6-sulfonamide;7-Chloro-2-ethyl-6-sulfamyl-1,2,3,4-tetrahydro-4-quinazolinone;7-Chloro-2-ethyl-1,2,3,4-tetrahydro-4-oxo-6-sulfamoylquinazoline;2-Ethyl-7-chloro-2,3-dihydro-4(1<em>H</em>)-quinazolone-6-sulfonamide;Hydromox;Quinethazone;Quinethazonum;2-Ethyl-7-chloro-1,2,3,4-tetrahydro-4-oxoquinazoline-6-sulfonamide;CL 36010;Idrokin;Quinethazon;Quimethazin",
    "duplicated_cas_no": "96782-92-2",
    "SMILES": "O=C1C=2C(NC(CC)N1)=CC(Cl)=C(S(N)(=O)=O)C2",
    "meta_data": {
        "InChI": "InChI=1S/C10H12ClN3O3S/c1-2-9-13-7-4-6(11)8(18(12,16)17)3-5(7)10(15)14-9/h3-4,9,13H,2H2,1H3,(H,14,15)(H2,12,16,17)",
        "InChIKey": null,
        "Canonical SMILES": "O=C1NC(NC2=CC(Cl)=C(C=C12)S(=O)(=O)N)CC",
        "Molecular Formula": "C<sub>10</sub>H<sub>12</sub>ClN<sub>3</sub>O<sub>3</sub>S",
        "Molecular Mass": "289.74",
        "Melting Point": "250-252 °C"
    }
}