{
    "cas_no": "502-55-6",
    "key_name": "Dixanthogen",
    "cn_name": null,
    "alternate_name": "Thioperoxydicarbonic acid ([(HO)C(S)]<sub>2</sub>S<sub>2</sub>), <em>O</em><sup>C</sup>,<em>O</em><sup>C′</sup>-diethyl ester;Formic acid, dithiobis[thio-, <em>O</em>,<em>O</em>-diethyl ester;Thioperoxydicarbonic acid ([(HO)C(S)]<sub>2</sub>S<sub>2</sub>), diethyl ester;Auligen;Aulinogen;Bisethylxanthogen;Bisethylxanthogen disulfide;Diethyl dixanthogen;Diethylxanthogen disulfide;Dithiobis(thioformic acid) <em>O</em>,<em>O</em>-diethyl ester;Dixanthogen;Herbisan;Lenisarin;K Preparation;Bexide;EXD;Herbisan 5;Thioperoxydicarbonic acid diethyl ester;<em>O</em>,<em>O</em>-Diethyl dithiobis[thioformate];3,8-Dioxa-5,6-dithiadecane-4,7-dithione;Antigal;Aulin;Scabicidol;Xantoscabin;Dixan;Galasan;NSC 402561;Sulfasan;Diexanthogen",
    "duplicated_cas_no": "",
    "SMILES": "C(SSC(OCC)=S)(OCC)=S",
    "meta_data": {
        "InChI": "InChI=1S/C6H10O2S4/c1-3-7-5(9)11-12-6(10)8-4-2/h3-4H2,1-2H3",
        "InChIKey": null,
        "Canonical SMILES": "S=C(OCC)SSC(=S)OCC",
        "Molecular Formula": "C<sub>6</sub>H<sub>10</sub>O<sub>2</sub>S<sub>4</sub>",
        "Molecular Mass": "242.40",
        "Boiling Point": "125 °C @ Press: 0.5 Torr",
        "Melting Point": "30 °C"
    }
}