{
    "cas_no": "2050-74-0",
    "key_name": "1,8-Dichloronaphthalene",
    "cn_name": null,
    "alternate_name": "Naphthalene, 1,8-dichloro-;1,8-Dichloronaphthalene;PCN 9",
    "duplicated_cas_no": "",
    "SMILES": "ClC=1C2=C(C=CC=C2Cl)C=CC1",
    "meta_data": {
        "InChI": "InChI=1S/C10H6Cl2/c11-8-5-1-3-7-4-2-6-9(12)10(7)8/h1-6H",
        "InChIKey": null,
        "Canonical SMILES": "ClC1=CC=CC=2C=CC=C(Cl)C12",
        "Molecular Formula": "C<sub>10</sub>H<sub>6</sub>Cl<sub>2</sub>",
        "Molecular Mass": "197.06",
        "Melting Point": "89 °C"
    }
}