{
    "cas_no": "57196-62-0",
    "key_name": "Isoquinoline, 1,2,3,4-tetrahydro-6-methoxy-, hydrochloride (1:1)",
    "cn_name": "6-甲氧基-1,2,3,4-四氢异喹啉盐酸盐;",
    "alternate_name": "Isoquinoline, 1,2,3,4-tetrahydro-6-methoxy-, hydrochloride (1:1);Isoquinoline, 1,2,3,4-tetrahydro-6-methoxy-, hydrochloride;Longimammatine hydrochloride;6-Methoxy-1,2,3,4-tetrahydroisoquinoline hydrochloride",
    "duplicated_cas_no": "",
    "SMILES": "O(C)C=1C=C2C(=CC1)CNCC2.Cl",
    "meta_data": {
        "InChI": "InChI=1S/C10H13NO.ClH/c1-12-10-3-2-9-7-11-5-4-8(9)6-10;/h2-3,6,11H,4-5,7H2,1H3;1H",
        "InChIKey": null,
        "Canonical SMILES": "Cl.O(C1=CC=C2C(=C1)CCNC2)C",
        "Molecular Formula": "C<sub>10</sub>H<sub>13</sub>NO.ClH",
        "Molecular Mass": "",
        "Melting Point": "233-234 °C"
    }
}