{
    "cas_no": "95-58-9",
    "key_name": "2-Chloro-3-methylpyrazine",
    "cn_name": null,
    "alternate_name": "Pyrazine, 2-chloro-3-methyl-;2-Chloro-3-methylpyrazine;2-Methyl-3-chloropyrazine;NSC 41093",
    "duplicated_cas_no": "",
    "SMILES": "CC=1C(Cl)=NC=CN1",
    "meta_data": {
        "InChI": "InChI=1S/C5H5ClN2/c1-4-5(6)8-3-2-7-4/h2-3H,1H3",
        "InChIKey": null,
        "Canonical SMILES": "ClC1=NC=CN=C1C",
        "Molecular Formula": "C<sub>5</sub>H<sub>5</sub>ClN<sub>2</sub>",
        "Molecular Mass": "128.56",
        "Boiling Point": "78 °C @ Press: 25 Torr"
    }
}