{
    "cas_no": "2574-25-6",
    "key_name": "Bis(1-methylethyl) phosphorochloridate",
    "cn_name": "氯磷酸二异丙酯;",
    "alternate_name": "Phosphorochloridic acid, bis(1-methylethyl) ester;Phosphorochloridic acid, diisopropyl ester;Isopropyl phosphorochloridate;Bis(1-methylethyl) phosphorochloridate;Diisopropyl phosphorochloridate;Isopropyl phosphorochloridate ((C<sub>3</sub>H<sub>7</sub>O)<sub>2</sub>ClPO);Diisopropyl chlorophosphate;(Chlorodiisopropoxy)phosphine oxide;Diisopropyl phosphoryl chloride;2-[Chloro(propan-2-yloxy)phosphoryl]oxypropane",
    "duplicated_cas_no": "",
    "SMILES": "O(P(OC(C)C)(Cl)=O)C(C)C",
    "meta_data": {
        "InChI": "InChI=1S/C6H14ClO3P/c1-5(2)9-11(7,8)10-6(3)4/h5-6H,1-4H3",
        "InChIKey": null,
        "Canonical SMILES": "O=P(Cl)(OC(C)C)OC(C)C",
        "Molecular Formula": "C<sub>6</sub>H<sub>14</sub>ClO<sub>3</sub>P",
        "Molecular Mass": "200.60",
        "Boiling Point": "95 °C @ Press: 14 Torr"
    }
}