{
    "cas_no": "13623-94-4",
    "key_name": "1,1-Bis(methylthio)-2-nitroethylene",
    "cn_name": "1,1-双(甲硫基)-2-亚硝基乙烯;1,1-二甲硫基-2-硝基乙烯;硝基乙烯酮缩二甲硫醇;侧链2;1,1-双(甲基硫基)-2-硝;",
    "alternate_name": "Ethene, 1,1-bis(methylthio)-2-nitro-;Ketene, nitro-, dimethyl mercaptole;Ethylene, 1,1-bis(methylthio)-2-nitro-;1,1-Bis(methylthio)-2-nitroethene;2,2-Bis(methylthio)-1-nitroethylene;1,1-Bis(methylthio)-2-nitroethylene;1-Nitro-2,2-bis(methylthio)ethylene;1-Nitro-2,2-bis(methylmercapto)ethylene;1-Nitro-2,2-bis(methylthio)ethene;1,1-Bis(methylsulfanyl)-2-nitroethene;NSC 241513;(2-Nitroethene-1,1-diyl)bis(methylsulfane)",
    "duplicated_cas_no": "",
    "SMILES": "C(=CN(=O)=O)(SC)SC",
    "meta_data": {
        "InChI": "InChI=1S/C4H7NO2S2/c1-8-4(9-2)3-5(6)7/h3H,1-2H3",
        "InChIKey": null,
        "Canonical SMILES": "O=N(=O)C=C(SC)SC",
        "Molecular Formula": "C<sub>4</sub>H<sub>7</sub>NO<sub>2</sub>S<sub>2</sub>",
        "Molecular Mass": "165.23",
        "Melting Point": "125-126 °C"
    }
}