{
    "cas_no": "1477-19-6",
    "key_name": "Benzarone",
    "cn_name": "苯扎隆;苯萨容;2-乙基-3-(4-羟基苯甲酰基)苯并呋喃;",
    "alternate_name": "Methanone, (2-ethyl-3-benzofuranyl)(4-hydroxyphenyl)-;Ketone, 2-ethyl-3-benzofuranyl <em>p</em>-hydroxyphenyl;(2-Ethyl-3-benzofuranyl)(4-hydroxyphenyl)methanone;Benzarone;2-Ethyl-3-benzofuranyl <em>p</em>-hydroxyphenyl ketone;2-Ethyl-3-(<em>p</em>-hydroxybenzoyl)benzofuran;2-Ethyl-3-(4-hydroxybenzoyl)benzofuran;2-Ethyl-4′-hydroxy-3-benzoylbenzofuran;Fragivix;L 2197;Fragivil;Benzaron;Fagivil;L 2179-Labaz;NSC 82134;(2-Ethylbenzofuran-3-yl)(4-hydroxyphenyl)methanone;(2-Ethyl-1-benzofuran-3-yl)-(4-hydroxyphenyl)methanone",
    "duplicated_cas_no": "",
    "SMILES": "C(=O)(C=1C=2C(OC1CC)=CC=CC2)C3=CC=C(O)C=C3",
    "meta_data": {
        "InChI": "InChI=1S/C17H14O3/c1-2-14-16(13-5-3-4-6-15(13)20-14)17(19)11-7-9-12(18)10-8-11/h3-10,18H,2H2,1H3",
        "InChIKey": null,
        "Canonical SMILES": "O=C(C1=CC=C(O)C=C1)C=2C=3C=CC=CC3OC2CC",
        "Molecular Formula": "C<sub>17</sub>H<sub>14</sub>O<sub>3</sub>",
        "Molecular Mass": "266.29",
        "Melting Point": "124.3 °C"
    }
}