{
    "cas_no": "84-95-7",
    "key_name": "<em>N</em>,<em>N</em>-Diethyl-1-naphthalenamine",
    "cn_name": "N,N’-二乙基-1-萘胺;",
    "alternate_name": "1-Naphthalenamine, <em>N</em>,<em>N</em>-diethyl-;1-Naphthylamine, <em>N</em>,<em>N</em>-diethyl-;<em>N</em>,<em>N</em>-Diethyl-1-naphthalenamine;<em>N</em>,<em>N</em>-Diethyl-1-naphthylamine;<em>N</em>,<em>N</em>-Diethyl-α-naphthylamine;1-(Diethylamino)naphthalene;NSC 6340",
    "duplicated_cas_no": "",
    "SMILES": "N(CC)(CC)C=1C2=C(C=CC1)C=CC=C2",
    "meta_data": {
        "InChI": "InChI=1S/C14H17N/c1-3-15(4-2)14-11-7-9-12-8-5-6-10-13(12)14/h5-11H,3-4H2,1-2H3",
        "InChIKey": null,
        "Canonical SMILES": "C=1C=CC2=C(C1)C=CC=C2N(CC)CC",
        "Molecular Formula": "C<sub>14</sub>H<sub>17</sub>N",
        "Molecular Mass": "199.29",
        "Boiling Point": "285 °C",
        "Density": "1.015 g/cm³ @ Temp: 20 °C"
    }
}