{
    "cas_no": "95-20-5",
    "key_name": "2-Methylindole",
    "cn_name": "2-甲基吲哚;",
    "alternate_name": "1<em>H</em>-Indole, 2-methyl-;Indole, 2-methyl-;2-Methyl-1<em>H</em>-indole;2-Methylindole;NSC 7514",
    "duplicated_cas_no": "",
    "SMILES": "CC1=CC=2C(N1)=CC=CC2",
    "meta_data": {
        "InChI": "InChI=1S/C9H9N/c1-7-6-8-4-2-3-5-9(8)10-7/h2-6,10H,1H3",
        "InChIKey": null,
        "Canonical SMILES": "C=1C=CC=2NC(=CC2C1)C",
        "Molecular Formula": "C<sub>9</sub>H<sub>9</sub>N",
        "Molecular Mass": "131.17",
        "Boiling Point": "272 °C",
        "Melting Point": "61 °C"
    }
}