{
    "cas_no": "60568-05-0",
    "key_name": "Furmecyclox",
    "cn_name": "拌种胺;N-环己基-N-甲氧基-2,5-二甲基-3-糠酰胺;",
    "alternate_name": "3-Furancarboxamide, <em>N</em>-cyclohexyl-<em>N</em>-methoxy-2,5-dimethyl-;<em>N</em>-Cyclohexyl-<em>N</em>-methoxy-2,5-dimethyl-3-furancarboxamide;BAS 389;BAS 389F;Furmetamid;Xyligen B;Furmecyclox;GUS 215;Campogran;BAS 389-01F",
    "duplicated_cas_no": "",
    "SMILES": "C(N(OC)C1CCCCC1)(=O)C=2C=C(C)OC2C",
    "meta_data": {
        "InChI": "InChI=1S/C14H21NO3/c1-10-9-13(11(2)18-10)14(16)15(17-3)12-7-5-4-6-8-12/h9,12H,4-8H2,1-3H3",
        "InChIKey": null,
        "Canonical SMILES": "O=C(C=1C=C(OC1C)C)N(OC)C2CCCCC2",
        "Molecular Formula": "C<sub>14</sub>H<sub>21</sub>NO<sub>3</sub>",
        "Molecular Mass": "251.32",
        "Melting Point": "33 °C"
    }
}