{
    "cas_no": "99-99-0",
    "key_name": "4-Nitrotoluene",
    "cn_name": null,
    "alternate_name": "Benzene, 1-methyl-4-nitro-;Toluene, <em>p</em>-nitro-;1-Methyl-4-nitrobenzene;<em>p</em>-Methylnitrobenzene;<em>p</em>-Nitrotoluene;4-Nitrotoluol;PNT;4-Nitrotoluene;4-Methylnitrobenzene;4-Methyl-1-nitrobenzene;<em>para</em>-Nitrotoluene;NSC 9579",
    "duplicated_cas_no": "",
    "SMILES": "N(=O)(=O)C1=CC=C(C)C=C1",
    "meta_data": {
        "InChI": "InChI=1S/C7H7NO2/c1-6-2-4-7(5-3-6)8(9)10/h2-5H,1H3",
        "InChIKey": null,
        "Canonical SMILES": "O=N(=O)C1=CC=C(C=C1)C",
        "Molecular Formula": "C<sub>7</sub>H<sub>7</sub>NO<sub>2</sub>",
        "Molecular Mass": "137.14",
        "Boiling Point": "238 °C",
        "Melting Point": "53-54 °C",
        "Density": "1.29 g/cm³"
    }
}