{
    "cas_no": "30674-80-7",
    "key_name": "2-Isocyanatoethyl methacrylate",
    "cn_name": "甲基丙烯酸异氰基乙酯;甲基丙烯酰氧乙基异氰酸酯;",
    "alternate_name": "2-Propenoic acid, 2-methyl-, 2-isocyanatoethyl ester;Methacrylic acid, 2-isocyanatoethyl ester;Isocyanic acid, 2-hydroxyethyl ester methacrylate (ester);Methacrylic acid β-isocyanatoethyl ester;β-Isocyanatoethyl methacrylate;2-Isocyanatoethyl methacrylate;Karenz MOI;2-(Methacryloyloxy)ethyl isocyanate;2-(Methacryloxy)ethyl isocyanate;2-Isocyanatoethyl 2-methylacrylate;2-Isocyanatoethyl 2-methyl-2-propenoate;Aldrich 477060;2-Isocyanatoethyl methacrylic acid",
    "duplicated_cas_no": "5001-87-6;1426396-97-5",
    "SMILES": "C(OCCN=C=O)(C(C)=C)=O",
    "meta_data": {
        "InChI": "InChI=1S/C7H9NO3/c1-6(2)7(10)11-4-3-8-5-9/h1,3-4H2,2H3",
        "InChIKey": null,
        "Canonical SMILES": "O=C=NCCOC(=O)C(=C)C",
        "Molecular Formula": "C<sub>7</sub>H<sub>9</sub>NO<sub>3</sub>",
        "Molecular Mass": "155.15",
        "Boiling Point": "87-89 °C @ Press: 10 Torr",
        "Melting Point": "56 °C"
    }
}