{
    "cas_no": "32707-89-4",
    "key_name": "3,5-Bis(trifluoromethyl)benzenemethanol",
    "cn_name": "3,5-双三氟甲基苄醇;",
    "alternate_name": "Benzenemethanol, 3,5-bis(trifluoromethyl)-;Benzyl alcohol, 3,5-bis(trifluoromethyl)-;3,5-Bis(trifluoromethyl)benzenemethanol;3,5-Bis(trifluoromethyl)benzyl alcohol;[3,5-Bis(trifluoromethyl)phenyl]methanol;[3,5-Di(trifluoromethyl)phenyl]methanol",
    "duplicated_cas_no": "",
    "SMILES": "C(F)(F)(F)C1=CC(C(F)(F)F)=CC(CO)=C1",
    "meta_data": {
        "InChI": "InChI=1S/C9H6F6O/c10-8(11,12)6-1-5(4-16)2-7(3-6)9(13,14)15/h1-3,16H,4H2",
        "InChIKey": null,
        "Canonical SMILES": "FC(F)(F)C1=CC(=CC(=C1)C(F)(F)F)CO",
        "Molecular Formula": "C<sub>9</sub>H<sub>6</sub>F<sub>6</sub>O",
        "Molecular Mass": "244.13",
        "Melting Point": "54-56 °C"
    }
}