{
    "cas_no": "619-21-6",
    "key_name": "3-Formylbenzoic acid",
    "cn_name": "3-羧基苯甲醛;",
    "alternate_name": "Benzoic acid, 3-formyl-;Isophthalaldehydic acid;3-Formylbenzoic acid;<em>m</em>-Carboxybenzaldehyde;<em>m</em>-Formylbenzoic acid;3-Carboxybenzaldehyde;5-Formylbenzoic acid",
    "duplicated_cas_no": "",
    "SMILES": "C(O)(=O)C1=CC(C=O)=CC=C1",
    "meta_data": {
        "InChI": "InChI=1S/C8H6O3/c9-5-6-2-1-3-7(4-6)8(10)11/h1-5H,(H,10,11)",
        "InChIKey": null,
        "Canonical SMILES": "O=CC1=CC=CC(=C1)C(=O)O",
        "Molecular Formula": "C<sub>8</sub>H<sub>6</sub>O<sub>3</sub>",
        "Molecular Mass": "150.13",
        "Melting Point": "173-175 °C"
    }
}