{
    "cas_no": "16069-36-6",
    "key_name": "Dicyclohexano-18-crown-6",
    "cn_name": "二环己烷并-18-冠醚-6;",
    "alternate_name": "Dibenzo[<em>b</em>,<em>k</em>][1,4,7,10,13,16]hexaoxacyclooctadecin, eicosahydro-;Eicosahydrodibenzo[<em>b</em>,<em>k</em>][1,4,7,10,13,16]hexaoxacyclooctadecin;Dicyclohexyl-18-crown-6;Perhydrodibenzo-18-crown-6;DCH18C6;2,5,8,15,18,21-Hexaoxatricyclo[20.4.0.0<sup>9,14</sup>]hexacosane;2,3,11,12-Dicyclohexano-1,4,7-10,13,16-hexaoxacyclooctadecane;DCH-18-crown-6;Dicyclohexano-18-crown-6;<em>cis</em>-Dicyclohexano-18-crown-6;NSC 252171;SuperLig 332;Dicyclohexano-18-crown-6-ether",
    "duplicated_cas_no": "34044-48-9",
    "SMILES": "C12C(CCCC1)OCCOCCOC3C(OCCOCCO2)CCCC3",
    "meta_data": {
        "InChI": "InChI=1S/C20H36O6/c1-2-6-18-17(5-1)23-13-9-21-11-15-25-19-7-3-4-8-20(19)26-16-12-22-10-14-24-18/h17-20H,1-16H2",
        "InChIKey": null,
        "Canonical SMILES": "O1CCOC2CCCCC2OCCOCCOC3CCCCC3OCC1",
        "Molecular Formula": "C<sub>20</sub>H<sub>36</sub>O<sub>6</sub>",
        "Molecular Mass": "372.50",
        "Boiling Point": "342 °C @ Press: 755 Torr",
        "Melting Point": "68.5-95 °C"
    }
}