{
    "cas_no": "723-62-6",
    "key_name": "9-Anthracenecarboxylic acid",
    "cn_name": "9-蒽甲酸;",
    "alternate_name": "9-Anthracenecarboxylic acid;9-Anthroic acid;9-Carboxyanthracene;9-Anthracenylcarboxylic acid;NSC 151909;9-Anthraceneformic acid",
    "duplicated_cas_no": "",
    "SMILES": "C(O)(=O)C=1C2=C(C=C3C1C=CC=C3)C=CC=C2",
    "meta_data": {
        "InChI": "InChI=1S/C15H10O2/c16-15(17)14-12-7-3-1-5-10(12)9-11-6-2-4-8-13(11)14/h1-9H,(H,16,17)",
        "InChIKey": null,
        "Canonical SMILES": "O=C(O)C=1C=2C=CC=CC2C=C3C=CC=CC31",
        "Molecular Formula": "C<sub>15</sub>H<sub>10</sub>O<sub>2</sub>",
        "Molecular Mass": "222.24",
        "Melting Point": "217 °C (decomp)",
        "Density": "1.397 g/cm³"
    }
}