{
    "cas_no": "4684-32-6",
    "key_name": "Picrinine",
    "cn_name": null,
    "alternate_name": "2<em>H</em>,12<em>H</em>-6,12a-Epoxy-2,7a-methanoindolo[2,3-<em>a</em>]quinolizine-14-carboxylic acid, 3-ethylidene-1,3,4,6,7,12b-hexahydro-, methyl ester, (2<em>R</em>,3<em>E</em>,6<em>S</em>,7a<em>R</em>,12a<em>R</em>,12b<em>S</em>,14<em>R</em>)-;Picrinine;Akuammilan-17-oic acid, 2,5-epoxy-1,2-dihydro-, methyl ester, (2α,5α)-;Picraline, deacetyldeformo-;16-De[(acetyloxy)methyl]picraline;Deacetyldeformopicraline;2<em>H</em>,12<em>H</em>-6,12a-Epoxy-2,7a-methanoindolo[2,3-<em>a</em>]quinolizine-14-carboxylic acid, 3-ethylidene-1,3,4,6,7,12b-hexahydro-, methyl ester, [2<em>R</em>-(2α,3<em>E</em>,6β,7aα,12aβ,12bβ,14<em>R</em>*)]-",
    "duplicated_cas_no": "20045-04-9",
    "SMILES": "C(OC)(=O)[C@H]1[C@]23[C@@]4([C@]5(N([C@](C2)(O4)[H])C\\C(=C\\C)\\[C@@]1(C5)[H])[H])NC=6C3=CC=CC6",
    "meta_data": {
        "InChI": "InChI=1S/C20H22N2O3/c1-3-11-10-22-15-8-12(11)17(18(23)24-2)19-9-16(22)25-20(15,19)21-14-7-5-4-6-13(14)19/h3-7,12,15-17,21H,8-10H2,1-2H3/b11-3-/t12-,15-,16-,17-,19-,20-/m0/s1",
        "InChIKey": null,
        "Canonical SMILES": "O=C(OC)C1C2C(=CC)CN3C4OC5(NC=6C=CC=CC6C15C4)C3C2",
        "Molecular Formula": "C<sub>20</sub>H<sub>22</sub>N<sub>2</sub>O<sub>3</sub>",
        "Molecular Mass": "338.40",
        "Melting Point": "222-224 °C"
    }
}