{
    "cas_no": "121-62-0",
    "key_name": "4-Acetamidobenzenesulfonic acid",
    "cn_name": null,
    "alternate_name": "Benzenesulfonic acid, 4-(acetylamino)-;Sulfanilic acid, <em>N</em>-acetyl-;4-(Acetylamino)benzenesulfonic acid;4-Acetamidobenzenesulfonic acid;Acetanilide-<em>p</em>-sulfonic acid;<em>p</em>-Acetylaminobenzenesulfonic acid;<em>N</em>-<em>p</em>-Acetylanilinosulfonic acid;<em>N</em>-Acetylsulfanilic acid;<em>N</em><sup>4</sup>-Acetylsulfanilic acid;<em>p</em>-Acetamidobenzenesulfonic acid;4-Acetylaminobenzenesulfonic acid",
    "duplicated_cas_no": "",
    "SMILES": "S(=O)(=O)(O)C1=CC=C(NC(C)=O)C=C1",
    "meta_data": {
        "InChI": "InChI=1S/C8H9NO4S/c1-6(10)9-7-2-4-8(5-3-7)14(11,12)13/h2-5H,1H3,(H,9,10)(H,11,12,13)",
        "InChIKey": null,
        "Canonical SMILES": "O=C(NC1=CC=C(C=C1)S(=O)(=O)O)C",
        "Molecular Formula": "C<sub>8</sub>H<sub>9</sub>NO<sub>4</sub>S",
        "Molecular Mass": "215.23",
        "Melting Point": "320 °C (decomp)"
    }
}