{
    "cas_no": "1345-13-7",
    "key_name": "Cerium oxide (Ce<sub>2</sub>O<sub>3</sub>)",
    "cn_name": "氧化铯;",
    "alternate_name": "Cerium oxide (Ce<sub>2</sub>O<sub>3</sub>);C.I. 77280;Cerous oxide;Cerium trioxide;Cerium(III) oxide;Dicerium trioxide;Cerium sesquioxide;Cerium(3+) oxide;Cerium oxide (Ce<sub>0.8</sub>O<sub>1.2</sub>);Cerium oxide (CeO<sub>1.5</sub>)",
    "duplicated_cas_no": "127386-24-7;162524-85-8;163912-29-6;202325-43-7;1033016-72-6;2428439-96-5",
    "SMILES": "",
    "meta_data": {
        "InChI": "",
        "InChIKey": null,
        "Canonical SMILES": "",
        "Molecular Formula": "Ce<sub>2</sub>O<sub>3</sub>",
        "Molecular Mass": "",
        "Melting Point": "1692 °C",
        "Density": "6.86 g/cm³"
    }
}