{
    "uri": "substance/pt/1345137",
    "rn": "1345-13-7",
    "name": "Cerium oxide (Ce<sub>2</sub>O<sub>3</sub>)",
    "images": [],
    "inchi": "",
    "inchiKey": "",
    "smile": "",
    "canonicalSmile": "",
    "molecularFormula": "Ce<sub>2</sub>O<sub>3</sub>",
    "molecularMass": "",
    "experimentalProperties": [
        {
            "name": "Melting Point",
            "property": "1692 °C",
            "sourceNumber": 1
        },
        {
            "name": "Density",
            "property": "6.86 g/cm³",
            "sourceNumber": 1
        }
    ],
    "propertyCitations": [
        {
            "docUri": "",
            "sourceNumber": 1,
            "source": "Hazardous Substances Data Bank data were obtained from the National Library of Medicine (US)"
        }
    ],
    "synonyms": [
        "Cerium oxide (Ce<sub>2</sub>O<sub>3</sub>)",
        "C.I. 77280",
        "Cerous oxide",
        "Cerium trioxide",
        "Cerium(III) oxide",
        "Dicerium trioxide",
        "Cerium sesquioxide",
        "Cerium(3+) oxide",
        "Cerium oxide (Ce<sub>0.8</sub>O<sub>1.2</sub>)",
        "Cerium oxide (CeO<sub>1.5</sub>)"
    ],
    "replacedRns": [
        "127386-24-7",
        "162524-85-8",
        "163912-29-6",
        "202325-43-7",
        "1033016-72-6",
        "2428439-96-5"
    ],
    "hasMolfile": false,
    "source": "https://commonchemistry.cas.org/detail?cas_rn=1345-13-7"
}