{
    "cas_no": "132-86-5",
    "key_name": "1,3-Dihydroxynaphthalene",
    "cn_name": null,
    "alternate_name": "1,3-Naphthalenediol;1,3-Dihydroxynaphthalene;Naphthoresorcinol;NSC 115890",
    "duplicated_cas_no": "",
    "SMILES": "OC=1C2=C(C=C(O)C1)C=CC=C2",
    "meta_data": {
        "InChI": "InChI=1S/C10H8O2/c11-8-5-7-3-1-2-4-9(7)10(12)6-8/h1-6,11-12H",
        "InChIKey": null,
        "Canonical SMILES": "OC=1C=C(O)C=2C=CC=CC2C1",
        "Molecular Formula": "C<sub>10</sub>H<sub>8</sub>O<sub>2</sub>",
        "Molecular Mass": "160.17",
        "Melting Point": "123.5 °C"
    }
}