{
    "cas_no": "634-91-3",
    "key_name": "3,4,5-Trichloroaniline",
    "cn_name": null,
    "alternate_name": "Benzenamine, 3,4,5-trichloro-;Aniline, 3,4,5-trichloro-;3,4,5-Trichlorobenzenamine;3,4,5-Trichloroaniline;NSC 115260",
    "duplicated_cas_no": "",
    "SMILES": "ClC1=C(Cl)C=C(N)C=C1Cl",
    "meta_data": {
        "InChI": "InChI=1S/C6H4Cl3N/c7-4-1-3(10)2-5(8)6(4)9/h1-2H,10H2",
        "InChIKey": null,
        "Canonical SMILES": "ClC=1C=C(N)C=C(Cl)C1Cl",
        "Molecular Formula": "C<sub>6</sub>H<sub>4</sub>Cl<sub>3</sub>N",
        "Molecular Mass": "196.46",
        "Melting Point": "99 °C"
    }
}