{
    "cas_no": "55-57-2",
    "key_name": "Imidodicarbonimidic diamide, <em>N</em>-phenyl-, hydrochloride (1:1)",
    "cn_name": "1-苯基双胍盐酸盐;",
    "alternate_name": "Imidodicarbonimidic diamide, <em>N</em>-phenyl-, hydrochloride (1:1);Biguanide, 1-phenyl-, monohydrochloride;Imidodicarbonimidic diamide, <em>N</em>-phenyl-, monohydrochloride;<em>N</em>′-Phenylbiguanide monohydrochloride;1-Phenylbiguanide monohydrochloride;Phenylbiguanide monohydrochloride;<em>N</em>-Phenylimidodicarbonimidic diamide monohydrochloride;<em>N</em>-Phenylimidodicarbonimidic diamide hydrochloride;1-Phenylbiguanide hydrochloride;1-Carbamimidamido-<em>N</em>-phenylmethanimidamide hydrochloride",
    "duplicated_cas_no": "759458-83-8",
    "SMILES": "N(C(NC(=N)N)=N)C1=CC=CC=C1.Cl",
    "meta_data": {
        "InChI": "InChI=1S/C8H11N5.ClH/c9-7(10)13-8(11)12-6-4-2-1-3-5-6;/h1-5H,(H6,9,10,11,12,13);1H",
        "InChIKey": null,
        "Canonical SMILES": "Cl.N=C(N)NC(=N)NC=1C=CC=CC1",
        "Molecular Formula": "C<sub>8</sub>H<sub>11</sub>N<sub>5</sub>.ClH",
        "Molecular Mass": "",
        "Melting Point": "237 °C"
    }
}