{
    "cas_no": "19466-47-8",
    "key_name": "Stigmastan-3β-ol",
    "cn_name": "豆甾烷醇;",
    "alternate_name": "Stigmastan-3-ol, (3β)-;Stigmastan-3β-ol;(3β)-Stigmastan-3-ol;24α-Ethyl-5α-cholestan-3β-ol",
    "duplicated_cas_no": "",
    "SMILES": "C[C@@]12[C@]([C@]3([C@@]([C@]4(C)C(CC3)(C[C@@H](O)CC4)[H])(CC1)[H])[H])(CC[C@@]2([C@@H](CC[C@H](C(C)C)CC)C)[H])[H]",
    "meta_data": {
        "InChI": "InChI=1S/C29H52O/c1-7-21(19(2)3)9-8-20(4)25-12-13-26-24-11-10-22-18-23(30)14-16-28(22,5)27(24)15-17-29(25,26)6/h19-27,30H,7-18H2,1-6H3/t20-,21-,22?,23+,24+,25-,26+,27+,28+,29-/m1/s1",
        "InChIKey": null,
        "Canonical SMILES": "OC1CCC2(C)C(CCC3C4CCC(C(C)CCC(CC)C(C)C)C4(C)CCC32)C1",
        "Molecular Formula": "C<sub>29</sub>H<sub>52</sub>O",
        "Molecular Mass": "416.72",
        "Melting Point": "134-139 °C"
    }
}