{
    "cas_no": "110-68-9",
    "key_name": "Methylbutylamine",
    "cn_name": "N-甲基丁胺;甲基丁胺;1-甲基丁胺;",
    "alternate_name": "1-Butanamine, <em>N</em>-methyl-;Butylamine, <em>N</em>-methyl-;<em>N</em>-Methyl-1-butanamine;Methylbutylamine;<em>N</em>-Methyl-<em>n</em>-butylamine;Butylmethylamine;<em>N</em>-Methylbutylamine;<em>N</em>-Butylmethylamine;<em>N</em>-Butyl-<em>N</em>-methylamine;<em>N</em>-Methylbutanamine;Methylaminobutane",
    "duplicated_cas_no": "",
    "SMILES": "C(CNC)CC",
    "meta_data": {
        "InChI": "InChI=1S/C5H13N/c1-3-4-5-6-2/h6H,3-5H2,1-2H3",
        "InChIKey": null,
        "Canonical SMILES": "N(C)CCCC",
        "Molecular Formula": "C<sub>5</sub>H<sub>13</sub>N",
        "Molecular Mass": "87.16",
        "Boiling Point": "91 °C",
        "Melting Point": "-75 °C",
        "Density": "0.7637 g/cm³ @ Temp: 15 °C"
    }
}