{
    "cas_no": "6399-81-1",
    "key_name": "Triphenylphosphonium bromide",
    "cn_name": "三苯基膦氢溴酸盐;",
    "alternate_name": "Phosphine, triphenyl-, hydrobromide (1:1);Phosphine, triphenyl-, hydrobromide;Phosphine, triphenyl-, compd. with hydrobromic acid;Triphenylphosphine hydrobromide;Triphenylphosphonium bromide",
    "duplicated_cas_no": "",
    "SMILES": "P(C1=CC=CC=C1)(C2=CC=CC=C2)C3=CC=CC=C3.Br",
    "meta_data": {
        "InChI": "InChI=1S/C18H15P.BrH/c1-4-10-16(11-5-1)19(17-12-6-2-7-13-17)18-14-8-3-9-15-18;/h1-15H;1H",
        "InChIKey": null,
        "Canonical SMILES": "Br.C=1C=CC(=CC1)P(C=2C=CC=CC2)C=3C=CC=CC3",
        "Molecular Formula": "C<sub>18</sub>H<sub>15</sub>P.BrH",
        "Molecular Mass": "",
        "Melting Point": "202 °C"
    }
}