{
    "cas_no": "26673-32-5",
    "key_name": "7-Chloro-3,4-dihydro-1(2<em>H</em>)-naphthalenone",
    "cn_name": "7-氯-3,4-二氢-2H-1-萘酮;7-氯-1-四氢萘酮;",
    "alternate_name": "1(2<em>H</em>)-Naphthalenone, 7-chloro-3,4-dihydro-;7-Chloro-3,4-dihydro-1(2<em>H</em>)-naphthalenone;7-Chloro-α-tetralone;7-Chloro-1-tetralone;7-Chloro-3,4-dihydro-2<em>H</em>-naphthalen-1-one;NSC 83813;7-Chloro-1,2,3,4-tetrahydro-1-oxonaphthalene;7-Chlorotetralin-1-one",
    "duplicated_cas_no": "",
    "SMILES": "O=C1C=2C(=CC=C(Cl)C2)CCC1",
    "meta_data": {
        "InChI": "InChI=1S/C10H9ClO/c11-8-5-4-7-2-1-3-10(12)9(7)6-8/h4-6H,1-3H2",
        "InChIKey": null,
        "Canonical SMILES": "O=C1C2=CC(Cl)=CC=C2CCC1",
        "Molecular Formula": "C<sub>10</sub>H<sub>9</sub>ClO",
        "Molecular Mass": "180.63",
        "Melting Point": "98-99.5 °C"
    }
}