{
    "cas_no": "2002-24-6",
    "key_name": "Ethanolamine hydrochloride",
    "cn_name": null,
    "alternate_name": "Ethanol, 2-amino-, hydrochloride (1:1);Ethanol, 2-amino-, hydrochloride;Ethanolamine hydrochloride;Monoethanolamine hydrochloride;2-Aminoethanol hydrochloride;MEA hydrochloride;β-Aminoethanol hydrochloride;Ethanolamine chloride;Colamine hydrochloride;Monoethanolaminium chloride",
    "duplicated_cas_no": "2850319-71-8",
    "SMILES": "C(CO)N.Cl",
    "meta_data": {
        "InChI": "InChI=1S/C2H7NO.ClH/c3-1-2-4;/h4H,1-3H2;1H",
        "InChIKey": null,
        "Canonical SMILES": "Cl.OCCN",
        "Molecular Formula": "C<sub>2</sub>H<sub>7</sub>NO.ClH",
        "Molecular Mass": "",
        "Melting Point": "82-86 °C"
    }
}