{
    "cas_no": "421-53-4",
    "key_name": "2,2,2-Trifluoro-1,1-ethanediol",
    "cn_name": "三氟乙醛;三氟乙醛水合物;三氟乙醛水合物., CA 75% IN WATER;",
    "alternate_name": "1,1-Ethanediol, 2,2,2-trifluoro-;Acetaldehyde, trifluoro-, hydrate;Fluoral hydrate;2,2,2-Trifluoro-1,1-ethanediol;Trifluoroacetaldehyde hydrate;2,2,2-Trifluoroacetaldehyde hydrate;Trifluoroethanal hydrate;NSC 146025",
    "duplicated_cas_no": "",
    "SMILES": "C(C(O)O)(F)(F)F",
    "meta_data": {
        "InChI": "InChI=1S/C2H3F3O2/c3-2(4,5)1(6)7/h1,6-7H",
        "InChIKey": null,
        "Canonical SMILES": "FC(F)(F)C(O)O",
        "Molecular Formula": "C<sub>2</sub>H<sub>3</sub>F<sub>3</sub>O<sub>2</sub>",
        "Molecular Mass": "116.04",
        "Boiling Point": "105-106 °C",
        "Melting Point": "68-70 °C",
        "Density": "1.49 g/cm³"
    }
}