{
    "cas_no": "620-80-4",
    "key_name": "Ethyl 3-oxo-2-(phenylmethylene)butanoate",
    "cn_name": null,
    "alternate_name": "Butanoic acid, 3-oxo-2-(phenylmethylene)-, ethyl ester;Cinnamic acid, α-acetyl-, ethyl ester;Ethyl 3-oxo-2-(phenylmethylene)butanoate;Ethyl 2-benzylideneacetoacetate;Ethyl α-acetylcinnamate;Ethyl benzylideneacetoacetate;3-Oxo-2-(phenylmethylene)butanoic acid ethyl ester;NSC 68527;Ethyl 2-(acetyl)-3-phenyl-2-propenoate;Pentanoic acid, 4-oxo-2-(phenylmethylene)-, ethyl ester",
    "duplicated_cas_no": "111853-44-2;2616746-85-9",
    "SMILES": "C(=C(C(OCC)=O)C(C)=O)C1=CC=CC=C1",
    "meta_data": {
        "InChI": "InChI=1S/C13H14O3/c1-3-16-13(15)12(10(2)14)9-11-7-5-4-6-8-11/h4-9H,3H2,1-2H3",
        "InChIKey": null,
        "Canonical SMILES": "O=C(OCC)C(=CC=1C=CC=CC1)C(=O)C",
        "Molecular Formula": "C<sub>13</sub>H<sub>14</sub>O<sub>3</sub>",
        "Molecular Mass": "218.25",
        "Boiling Point": "296 °C",
        "Melting Point": "60.5 °C",
        "Density": "1.5590 g/cm³ @ Temp: 17 °C"
    }
}