{
    "cas_no": "104-77-8",
    "key_name": "3-Chloro-<em>N</em>,<em>N</em>-diethyl-1-propanamine",
    "cn_name": "3-氯-1-二乙氨基丙烷;",
    "alternate_name": "1-Propanamine, 3-chloro-<em>N</em>,<em>N</em>-diethyl-;Propylamine, 3-chloro-<em>N</em>,<em>N</em>-diethyl-;3-Chloro-<em>N</em>,<em>N</em>-diethyl-1-propanamine;3-Chloro-<em>N</em>,<em>N</em>-diethylpropanamine;3-Chloro-<em>N</em>,<em>N</em>-diethylpropylamine;3-(Diethylamino)propyl chloride;3-(<em>N</em>,<em>N</em>-Diethylamino)propyl chloride;1-Chloro-3-diethylaminopropane;3-Diethylamino-1-chloropropane;<em>N</em>-(3-Chloropropyl)diethylamine;Diethylaminopropyl chloride;1-Diethylamino-3-chloropropane;Diethyl(3-chloropropyl)amine;(3-Chloropropyl)diethylamine;3-Chloro-<em>N</em>,<em>N</em>-diethyl-<em>N</em>-propylamine;3-(<em>N</em>,<em>N</em>-Diethylamino)-1-chloropropane",
    "duplicated_cas_no": "",
    "SMILES": "N(CCCCl)(CC)CC",
    "meta_data": {
        "InChI": "InChI=1S/C7H16ClN/c1-3-9(4-2)7-5-6-8/h3-7H2,1-2H3",
        "InChIKey": null,
        "Canonical SMILES": "ClCCCN(CC)CC",
        "Molecular Formula": "C<sub>7</sub>H<sub>16</sub>ClN",
        "Molecular Mass": "149.66",
        "Boiling Point": "169-171 °C",
        "Density": "0.980 g/cm³ @ Temp: 20 °C"
    }
}