{
    "cas_no": "1191-62-4",
    "key_name": "1,8-Octanedithiol",
    "cn_name": "1,8-辛二硫醇;",
    "alternate_name": "1,8-Octanedithiol;1,8-Octamethylenedithiol",
    "duplicated_cas_no": "",
    "SMILES": "C(CCCCS)CCCS",
    "meta_data": {
        "InChI": "InChI=1S/C8H18S2/c9-7-5-3-1-2-4-6-8-10/h9-10H,1-8H2",
        "InChIKey": null,
        "Canonical SMILES": "SCCCCCCCCS",
        "Molecular Formula": "C<sub>8</sub>H<sub>18</sub>S<sub>2</sub>",
        "Molecular Mass": "178.36",
        "Boiling Point": "101 °C @ Press: 1 Torr",
        "Density": "0.95 g/cm³ @ Temp: 40 °C"
    }
}