{
    "cas_no": "13534-97-9",
    "key_name": "5-Amino-2-bromopyridine",
    "cn_name": "3-氨基-6-溴吡啶;2-溴-5-氨基吡啶;",
    "alternate_name": "3-Pyridinamine, 6-bromo-;Pyridine, 5-amino-2-bromo-;6-Bromo-3-pyridinamine;2-Bromo-5-aminopyridine;5-Amino-2-bromopyridine;3-Amino-6-bromopyridine;6-Bromopyridin-3-ylamine;(2-Bromopyridin-5-yl)amine;6-Bromo-3-aminopyridine;2-Bromopyridin-5-amine",
    "duplicated_cas_no": "",
    "SMILES": "NC=1C=CC(Br)=NC1",
    "meta_data": {
        "InChI": "InChI=1S/C5H5BrN2/c6-5-2-1-4(7)3-8-5/h1-3H,7H2",
        "InChIKey": null,
        "Canonical SMILES": "BrC1=NC=C(N)C=C1",
        "Molecular Formula": "C<sub>5</sub>H<sub>5</sub>BrN<sub>2</sub>",
        "Molecular Mass": "173.01",
        "Boiling Point": "177-178 °C @ Press: 12 Torr",
        "Melting Point": "77 °C"
    }
}