{
    "cas_no": "431-89-0",
    "key_name": "1,1,1,2,3,3,3-Heptafluoropropane",
    "cn_name": "七氟丙烷;",
    "alternate_name": "Propane, 1,1,1,2,3,3,3-heptafluoro-;1,1,1,2,3,3,3-Heptafluoropropane;2<em>H</em>-Heptafluoropropane;2-Hydroperfluoropropane;2-Hydroheptafluoropropane;R 227ea;HFC 227ea;R 227;HFC 227;TG 227;Apaflurane;FM 200 (fluorocarbon);FM 200;HFA 227;F 227e;2<em>H</em>-Perfluoropropane;F 227ea;F 227;HFA 227ea;HFA P227;Solkane 227ea;Solkane 227;1,1,1,2,3,3,3-Heptafluoro-<em>n</em>-propane;HFC 227e;HFC 227a;HFO 227ea;HFA 227a;SP 350;FM 700",
    "duplicated_cas_no": "",
    "SMILES": "C(C(F)(F)F)(C(F)(F)F)F",
    "meta_data": {
        "InChI": "InChI=1S/C3HF7/c4-1(2(5,6)7)3(8,9)10/h1H",
        "InChIKey": null,
        "Canonical SMILES": "FC(C(F)(F)F)C(F)(F)F",
        "Molecular Formula": "C<sub>3</sub>HF<sub>7</sub>",
        "Molecular Mass": "170.03",
        "Boiling Point": "-18 °C",
        "Melting Point": "-129.5 °C",
        "Density": "1.3875 g/cm³ (liquid) @ Temp: 25.000 °C; Press: 3413 Torr"
    }
}