{
    "cas_no": "486-16-8",
    "key_name": "(±)-Carbinoxamine",
    "cn_name": null,
    "alternate_name": "Ethanamine, 2-[(4-chlorophenyl)-2-pyridinylmethoxy]-<em>N</em>,<em>N</em>-dimethyl-;Pyridine, 2-[<em>p</em>-chloro-α-[2-(dimethylamino)ethoxy]benzyl]-;2-[(4-Chlorophenyl)-2-pyridinylmethoxy]-<em>N</em>,<em>N</em>-dimethylethanamine;McN-R 73Z;2-[<em>p</em>-Chloro-α-[2-(dimethylamino)ethoxy]benzyl]pyridine;Carbinoxamine;Paracarbinoxamine;(±)-Carbinoxamine;Paracarinoxamine;[2-[(4-Chlorophenyl)(pyridin-2-yl)methoxy]ethyl]dimethylamine",
    "duplicated_cas_no": "59811-38-0",
    "SMILES": "C(OCCN(C)C)(C1=CC=C(Cl)C=C1)C2=CC=CC=N2",
    "meta_data": {
        "InChI": "InChI=1S/C16H19ClN2O/c1-19(2)11-12-20-16(15-5-3-4-10-18-15)13-6-8-14(17)9-7-13/h3-10,16H,11-12H2,1-2H3",
        "InChIKey": null,
        "Canonical SMILES": "ClC1=CC=C(C=C1)C(OCCN(C)C)C2=NC=CC=C2",
        "Molecular Formula": "C<sub>16</sub>H<sub>19</sub>ClN<sub>2</sub>O",
        "Molecular Mass": "290.79",
        "Boiling Point": "160 °C",
        "Melting Point": "&lt;25 °C"
    }
}