{
    "cas_no": "28705-46-6",
    "key_name": "Ethyl 7-diethylaminocoumarin-3-carboxylate",
    "cn_name": "7-(二乙胺基)香豆素-3-甲酸乙酯;",
    "alternate_name": "2<em>H</em>-1-Benzopyran-3-carboxylic acid, 7-(diethylamino)-2-oxo-, ethyl ester;3-Carbethoxy-7-(diethylamino)coumarin;3-(Carboxyethyl)-7-diethylamino coumarin;Ethyl 7-diethylaminocoumarin-3-carboxylate;NKX 1253;S 0679;Ethyl 7-<em>N</em>,<em>N</em>-Dimethylamino-2-oxo-2<em>H</em>-3-coumarate;Ethyl 7-(diethylamino)-2-oxo-2<em>H</em>-chromene-3-carboxylate",
    "duplicated_cas_no": "2570439-47-1",
    "SMILES": "N(CC)(CC)C=1C=C2C(C=C(C(OCC)=O)C(=O)O2)=CC1",
    "meta_data": {
        "InChI": "InChI=1S/C16H19NO4/c1-4-17(5-2)12-8-7-11-9-13(15(18)20-6-3)16(19)21-14(11)10-12/h7-10H,4-6H2,1-3H3",
        "InChIKey": null,
        "Canonical SMILES": "O=C1OC=2C=C(C=CC2C=C1C(=O)OCC)N(CC)CC",
        "Molecular Formula": "C<sub>16</sub>H<sub>19</sub>NO<sub>4</sub>",
        "Molecular Mass": "289.33",
        "Melting Point": "87 °C"
    }
}