{
    "cas_no": "7021-09-2",
    "key_name": "Methoxyphenylacetic acid",
    "cn_name": null,
    "alternate_name": "Benzeneacetic acid, α-methoxy-;Acetic acid, methoxyphenyl-, (±)-;Benzeneacetic acid, α-methoxy-, (±)-;α-Methoxybenzeneacetic acid;<span class=\"text-smallcaps\">DL</span>-Methoxyphenylacetic acid;(±)-α-Methoxyphenylacetic acid;<span class=\"text-smallcaps\">DL</span>-α-Methoxyphenylacetic acid;Methoxyphenylacetic acid;MOPA;α-Methoxyphenylacetic acid;2-Methoxy-2-phenylacetic acid;(±)-2-Methoxy-2-phenylacetic acid;(<em>RS</em>)-α-Methoxyphenylacetic acid;NSC 5665;(<em>RS</em>)-2-Methoxy-2-phenylacetic acid",
    "duplicated_cas_no": "1701-77-5",
    "SMILES": "C(C(O)=O)(OC)C1=CC=CC=C1",
    "meta_data": {
        "InChI": "InChI=1S/C9H10O3/c1-12-8(9(10)11)7-5-3-2-4-6-7/h2-6,8H,1H3,(H,10,11)",
        "InChIKey": null,
        "Canonical SMILES": "O=C(O)C(OC)C=1C=CC=CC1",
        "Molecular Formula": "C<sub>9</sub>H<sub>10</sub>O<sub>3</sub>",
        "Molecular Mass": "166.17",
        "Melting Point": "70-71 °C"
    }
}