{
    "cas_no": "60656-87-3",
    "key_name": "(Benzyloxy)acetaldehyde",
    "cn_name": "苄氧基乙醛;",
    "alternate_name": "Acetaldehyde, 2-(phenylmethoxy)-;Acetaldehyde, (phenylmethoxy)-;Acetaldehyde, (benzyloxy)-;2-(Phenylmethoxy)acetaldehyde;(Benzyloxy)acetaldehyde;2-(Benzyloxy)ethanal;2-(Benzyloxy)acetaldehyde;α-(Benzyloxy)acetaldehyde;(Phenylmethoxy)acetaldehyde;(Benzyloxy)ethanal",
    "duplicated_cas_no": "",
    "SMILES": "C(OCC=O)C1=CC=CC=C1",
    "meta_data": {
        "InChI": "InChI=1S/C9H10O2/c10-6-7-11-8-9-4-2-1-3-5-9/h1-6H,7-8H2",
        "InChIKey": null,
        "Canonical SMILES": "O=CCOCC=1C=CC=CC1",
        "Molecular Formula": "C<sub>9</sub>H<sub>10</sub>O<sub>2</sub>",
        "Molecular Mass": "150.17",
        "Boiling Point": "110-112 °C",
        "Melting Point": "116 °C",
        "Density": "1.105 g/cm³ @ Temp: 18 °C"
    }
}