{
    "cas_no": "120-21-8",
    "key_name": "4-(Diethylamino)benzaldehyde",
    "cn_name": "N,N-二乙基-4-氨基苯甲醛;对二乙氨基苯甲醛;",
    "alternate_name": "Benzaldehyde, 4-(diethylamino)-;Benzaldehyde, <em>p</em>-(diethylamino)-;4-(Diethylamino)benzaldehyde;<em>p</em>-(Diethylamino)benzaldehyde;<em>p</em>-Formyl-<em>N</em>,<em>N</em>-diethylaniline;4-(<em>N</em>,<em>N</em>-Diethylamino)benzaldehyde;4-Formyl-<em>N</em>,<em>N</em>-diethylaniline;<em>p</em>-(<em>N</em>,<em>N</em>-Diethylamino)benzaldehyde;NSC 8782;<em>N</em>,<em>N</em>-Diethyl-4-formylaniline;4-(<em>N</em>,<em>N</em>-Diethylamine)benzaldehyde;4-(<em>N</em>,<em>N</em>-Diethylphenyl)aldehyde;<em>N</em>,<em>N</em>-Diethylaminobenzaldehyde",
    "duplicated_cas_no": "",
    "SMILES": "N(CC)(CC)C1=CC=C(C=O)C=C1",
    "meta_data": {
        "InChI": "InChI=1S/C11H15NO/c1-3-12(4-2)11-7-5-10(9-13)6-8-11/h5-9H,3-4H2,1-2H3",
        "InChIKey": null,
        "Canonical SMILES": "O=CC1=CC=C(C=C1)N(CC)CC",
        "Molecular Formula": "C<sub>11</sub>H<sub>15</sub>NO",
        "Molecular Mass": "177.24",
        "Melting Point": "41 °C"
    }
}