{
    "cas_no": "82671-06-5",
    "key_name": "2,6-Dichloro-5-fluoronicotinic acid",
    "cn_name": "2,6-二氯-5-氟烟酸;",
    "alternate_name": "3-Pyridinecarboxylic acid, 2,6-dichloro-5-fluoro-;2,6-Dichloro-5-fluoro-3-pyridinecarboxylic acid;2,6-Dichloro-5-fluoronicotinic acid",
    "duplicated_cas_no": "2159123-15-4",
    "SMILES": "C(O)(=O)C1=C(Cl)N=C(Cl)C(F)=C1",
    "meta_data": {
        "InChI": "InChI=1S/C6H2Cl2FNO2/c7-4-2(6(11)12)1-3(9)5(8)10-4/h1H,(H,11,12)",
        "InChIKey": null,
        "Canonical SMILES": "O=C(O)C1=CC(F)=C(Cl)N=C1Cl",
        "Molecular Formula": "C<sub>6</sub>H<sub>2</sub>Cl<sub>2</sub>FNO<sub>2</sub>",
        "Molecular Mass": "209.99",
        "Melting Point": "155-156 °C"
    }
}