{
    "cas_no": "582-60-5",
    "key_name": "5,6-Dimethylbenzimidazole",
    "cn_name": "5,6-二甲基苯并咪唑;",
    "alternate_name": "1<em>H</em>-Benzimidazole, 5,6-dimethyl-;Benzimidazole, 5,6-dimethyl-;5,6-Dimethyl-1<em>H</em>-benzimidazole;Dimedazol;Dimedazole;Dimesol;5,6-Dimethylbenzimidazole;Dimezol;NSC 68316",
    "duplicated_cas_no": "",
    "SMILES": "CC=1C=C2C(=CC1C)N=CN2",
    "meta_data": {
        "InChI": "InChI=1S/C9H10N2/c1-6-3-8-9(4-7(6)2)11-5-10-8/h3-5H,1-2H3,(H,10,11)",
        "InChIKey": null,
        "Canonical SMILES": "N1=CNC=2C=C(C(=CC12)C)C",
        "Molecular Formula": "C<sub>9</sub>H<sub>10</sub>N<sub>2</sub>",
        "Molecular Mass": "146.19",
        "Melting Point": "205.5 °C"
    }
}