{
    "cas_no": "874-63-5",
    "key_name": "1-Methoxy-3,5-dimethylbenzene",
    "cn_name": "3,5-二甲基苯甲醚;",
    "alternate_name": "Benzene, 1-methoxy-3,5-dimethyl-;Anisole, 3,5-dimethyl-;1-Methoxy-3,5-dimethylbenzene;3,5-Dimethylanisole;5-Methoxy-<em>m</em>-xylene;5-Methoxy-1,3-dimethylbenzene;5-Methoxy-m-xylene;NSC 406910;3,5-Dimethylphenyl methyl ether",
    "duplicated_cas_no": "",
    "SMILES": "O(C)C1=CC(C)=CC(C)=C1",
    "meta_data": {
        "InChI": "InChI=1S/C9H12O/c1-7-4-8(2)6-9(5-7)10-3/h4-6H,1-3H3",
        "InChIKey": null,
        "Canonical SMILES": "O(C=1C=C(C=C(C1)C)C)C",
        "Molecular Formula": "C<sub>9</sub>H<sub>12</sub>O",
        "Molecular Mass": "136.19",
        "Boiling Point": "194 °C"
    }
}