{
    "cas_no": "14208-10-7",
    "key_name": "<em>p</em>-Xylene bis(pyridinium bromide)",
    "cn_name": null,
    "alternate_name": "Pyridinium, 1,1′-[1,4-phenylenebis(methylene)]bis-, dibromide;Pyridinium, 1,1′-(<em>p</em>-phenylenedimethylene)di-, dibromide;1,1′-(<em>p</em>-Phenylenedimethylene)bis[pyridinium bromide];DPX;<em>p</em>-Xylene bis(pyridinium bromide)",
    "duplicated_cas_no": "",
    "SMILES": "C(C1=CC=C(C[N+]=2C=CC=CC2)C=C1)[N+]=3C=CC=CC3.[Br-]",
    "meta_data": {
        "InChI": "InChI=1S/C18H18N2.2BrH/c1-3-11-19(12-4-1)15-17-7-9-18(10-8-17)16-20-13-5-2-6-14-20;;/h1-14H,15-16H2;2*1H/q+2;;/p-2",
        "InChIKey": null,
        "Canonical SMILES": "[Br-].C=1C=C[N+](=CC1)CC2=CC=C(C=C2)C[N+]=3C=CC=CC3",
        "Molecular Formula": "C<sub>18</sub>H<sub>18</sub>N<sub>2</sub>.2Br",
        "Molecular Mass": "",
        "Melting Point": "296-297 °C"
    }
}