{
    "cas_no": "550-60-7",
    "key_name": "1-Nitro-2-naphthol",
    "cn_name": "硝基-2-萘酚;1-硝基-2-萘酚;1-硝-2-萘酚;",
    "alternate_name": "2-Naphthalenol, 1-nitro-;2-Naphthol, 1-nitro-;1-Nitro-2-naphthalenol;1-Nitro-2-hydroxynaphthalene;α-Nitro-β-naphthol;1-Nitro-β-naphthol;1-Nitro-2-naphthol;2-Hydroxy-1-nitronaphthalene;NSC 37027",
    "duplicated_cas_no": "",
    "SMILES": "N(=O)(=O)C=1C2=C(C=CC1O)C=CC=C2",
    "meta_data": {
        "InChI": "InChI=1S/C10H7NO3/c12-9-6-5-7-3-1-2-4-8(7)10(9)11(13)14/h1-6,12H",
        "InChIKey": null,
        "Canonical SMILES": "O=N(=O)C1=C(O)C=CC=2C=CC=CC21",
        "Molecular Formula": "C<sub>10</sub>H<sub>7</sub>NO<sub>3</sub>",
        "Molecular Mass": "189.17",
        "Boiling Point": "115 °C",
        "Melting Point": "104 °C"
    }
}