{
    "cas_no": "13505-01-6",
    "key_name": "3-Fluoro-4-nitropyridine",
    "cn_name": "3-氟-4-硝基吡啶;",
    "alternate_name": "Pyridine, 3-fluoro-4-nitro-;3-Fluoro-4-nitropyridine",
    "duplicated_cas_no": "",
    "SMILES": "N(=O)(=O)C=1C(F)=CN=CC1",
    "meta_data": {
        "InChI": "InChI=1S/C5H3FN2O2/c6-4-3-7-2-1-5(4)8(9)10/h1-3H",
        "InChIKey": null,
        "Canonical SMILES": "O=N(=O)C=1C=CN=CC1F",
        "Molecular Formula": "C<sub>5</sub>H<sub>3</sub>FN<sub>2</sub>O<sub>2</sub>",
        "Molecular Mass": "142.09",
        "Boiling Point": "62-64 °C @ Press: 5 Torr"
    }
}