{
    "cas_no": "1032231-32-5",
    "key_name": "<em>B</em>-(3-Bromo-2-cyanophenyl)boronic acid",
    "cn_name": null,
    "alternate_name": "Boronic acid, <em>B</em>-(3-bromo-2-cyanophenyl)-;<em>B</em>-(3-Bromo-2-cyanophenyl)boronic acid;3-Bromo-2-cyanophenylboronic acid",
    "duplicated_cas_no": "",
    "SMILES": "C(#N)C1=C(B(O)O)C=CC=C1Br",
    "meta_data": {
        "InChI": "InChI=1S/C7H5BBrNO2/c9-7-3-1-2-6(8(11)12)5(7)4-10/h1-3,11-12H",
        "InChIKey": null,
        "Canonical SMILES": "N#CC=1C(Br)=CC=CC1B(O)O",
        "Molecular Formula": "C<sub>7</sub>H<sub>5</sub>BBrNO<sub>2</sub>",
        "Molecular Mass": "225.84",
        "Melting Point": "264-267 °C (decomp)"
    }
}