{
    "cas_no": "84873-15-4",
    "key_name": "<em>p</em>-Hydroxyphenethyl <em>trans</em>-ferulate",
    "cn_name": null,
    "alternate_name": "2-Propenoic acid, 3-(4-hydroxy-3-methoxyphenyl)-, 2-(4-hydroxyphenyl)ethyl ester, (2<em>E</em>)-;2-Propenoic acid, 3-(4-hydroxy-3-methoxyphenyl)-, 2-(4-hydroxyphenyl)ethyl ester, (<em>E</em>)-;<em>p</em>-Hydroxyphenethyl <em>trans</em>-ferulate;4-Hydroxyphenethyl <em>trans</em>-ferulate",
    "duplicated_cas_no": "",
    "SMILES": "C(=C/C(OCCC1=CC=C(O)C=C1)=O)\\C2=CC(OC)=C(O)C=C2",
    "meta_data": {
        "InChI": "InChI=1S/C18H18O5/c1-22-17-12-14(4-8-16(17)20)5-9-18(21)23-11-10-13-2-6-15(19)7-3-13/h2-9,12,19-20H,10-11H2,1H3/b9-5+",
        "InChIKey": null,
        "Canonical SMILES": "O=C(OCCC1=CC=C(O)C=C1)C=CC2=CC=C(O)C(OC)=C2",
        "Molecular Formula": "C<sub>18</sub>H<sub>18</sub>O<sub>5</sub>",
        "Molecular Mass": "314.33",
        "Melting Point": "168-169 °C"
    }
}