{
    "cas_no": "2150-45-0",
    "key_name": "Benzoic acid, 2,6-dihydroxy-, methyl ester",
    "cn_name": null,
    "alternate_name": "Benzoic acid, 2,6-dihydroxy-, methyl ester;γ-Resorcylic acid, methyl ester;Methyl 2,6-dihydroxybenzoate;2,6-Dihydroxy-benzoic acid methylester",
    "duplicated_cas_no": "",
    "SMILES": "C(OC)(=O)C1=C(O)C=CC=C1O",
    "meta_data": {
        "InChI": "InChI=1S/C8H8O4/c1-12-8(11)7-5(9)3-2-4-6(7)10/h2-4,9-10H,1H3",
        "InChIKey": null,
        "Canonical SMILES": "O=C(OC)C=1C(O)=CC=CC1O",
        "Molecular Formula": "C<sub>8</sub>H<sub>8</sub>O<sub>4</sub>",
        "Molecular Mass": "168.15",
        "Melting Point": "68-69 °C"
    }
}