{
    "cas_no": "21801-79-6",
    "key_name": "2-Methylimidazo[1,2-<em>a</em>]pyridine-3-carboxylic acid",
    "cn_name": null,
    "alternate_name": "Imidazo[1,2-<em>a</em>]pyridine-3-carboxylic acid, 2-methyl-;2-Methylimidazo[1,2-<em>a</em>]pyridine-3-carboxylic acid;NSC 156822",
    "duplicated_cas_no": "",
    "SMILES": "C(O)(=O)C=1N2C(=NC1C)C=CC=C2",
    "meta_data": {
        "InChI": "InChI=1S/C9H8N2O2/c1-6-8(9(12)13)11-5-3-2-4-7(11)10-6/h2-5H,1H3,(H,12,13)",
        "InChIKey": null,
        "Canonical SMILES": "O=C(O)C1=C(N=C2C=CC=CN21)C",
        "Molecular Formula": "C<sub>9</sub>H<sub>8</sub>N<sub>2</sub>O<sub>2</sub>",
        "Molecular Mass": "176.17",
        "Melting Point": "~185 °C (decomp) (approx)"
    }
}