{
    "cas_no": "9003-17-2",
    "key_name": "Polybutadiene",
    "cn_name": null,
    "alternate_name": "1,3-Butadiene, homopolymer;1,3-Butadiene, polymers;Butadiene polymer;Poly-1,3-butadiene;Hystl;Butarez 15;FCR 126;1,3-Butadiene polymer;XRDR-A 288;Atactic butadiene polymer;B 11;B 7;Budium RK 622;FCR 1261PD;Hystl B 2000;Hystl B 3000;Nisso PR 2000;PBC 200;XPDR-A 288;1,3-Butadiene oligomers;Polybutadiene;Nisso PB-GQ 3000;Hystl B 1000;Butadiene oligomer;Alfine;Hystl B 300;Butadiene homopolymer;LCB 150;S 820;FCR 1261 (polymer);Dienite X 644;Dienite X 555;Dienite X 556;Dienite X 643;Elecron 7200;Nisso V 3043;V 341/7781I550;RB-S 820;CB 10;FCR 1261;Huls 801;Euderm Bottom 63B;Euderm Bottom 33B;New Polyoil NX 5;Budium RKY 662;Budium R 622;Sconamoll 32;PB 810;BR 30;Resydrol SWP 195E;UKW Liquid;Butarez NF;LX 16;Revertex LX 16;LPM 2374;Polyoil LCB 110;Sconamoll MP 38;Univest;XW 1703A;T 291;Polyoil LCB 80;LYF-G 2;LYF-G 4;Poly(vinylethylene);PO 110;Genflo 8061;JSR-PB 805;B 1000;Contaminex;Baystal S 2004;TP 049;S 820 (polyolefin);Adcote EL 451;NT 8500;Ricacryl FX 9801;BR 30 (polyolefin);PB 36;PBN;Nisseki B 700;Nisseki B 2000;Nisseki B 1000;APR-K 11;B 2000;B 31;B 39;MM 100-80;Krasvl LB 2000;Krasvl LB 3000;Lithene AX;PS 004;Martex 19230;Seetec BR 1209H;Krasol LB 2000;JSR-RB 150;RO 4403;R 131;SN 8000;Polyvest 110;Polyvest 130;Lithene ALS;LBH 1000;P 110;P 130;Lithene P 4-25P;Lithene P 4-150P;Lithene AL 15MA;Seikadaine 4300A;Rinco 130;Lithene Ultra AL;Seikadaine 4300;TW 6431;PB 1300;Ricon 300;Ricon 350;Fabrial R;Lithene N 4-9000;N 4-9000;Lithene ActiV 50;R 134 (polyolefin);R 134;R 450VOI;ActiV 50;ActiV 1000;Lithene Ultra PH",
    "duplicated_cas_no": "29717-41-7;29717-42-8;37325-15-8;51033-74-0;54577-68-3;57829-13-7;57829-18-2;105521-92-4;150773-71-0;186263-90-1;191172-06-2;785803-43-2;801291-48-5;874748-74-0;1026023-28-8;1337929-27-7;1350308-34-7;1352929-52-2;1914169-93-9;2409453-88-7;2412406-56-3;2766519-80-4;2769015-65-6",
    "SMILES": "C(C=C)=C",
    "meta_data": {
        "InChI": "InChI=1S/C4H6/c1-3-4-2/h3-4H,1-2H2",
        "InChIKey": null,
        "Canonical SMILES": "C=CC=C",
        "Molecular Formula": "(C<sub>4</sub>H<sub>6</sub>)<sub>x</sub>",
        "Molecular Mass": "",
        "Melting Point": "155 °C",
        "Density": "0.90 g/cm³"
    }
}