{
    "cas_no": "73568-29-3",
    "key_name": "2-Chloro-6-methoxyquinoline-3-carboxaldehyde",
    "cn_name": "2-氯-6-甲氧基喹啉-3-甲醛;2-氯-6-甲氧基-3-喹啉甲醛;",
    "alternate_name": "3-Quinolinecarboxaldehyde, 2-chloro-6-methoxy-;2-Chloro-6-methoxy-3-quinolinecarboxaldehyde;2-Chloro-6-methoxyquinoline-3-carboxaldehyde;2-Chloro-3-formyl-6-methoxyquinoline;2-Chloro-6-methoxyquinoline-3-carbaldehyde",
    "duplicated_cas_no": "",
    "SMILES": "C(=O)C1=CC2=C(N=C1Cl)C=CC(OC)=C2",
    "meta_data": {
        "InChI": "InChI=1S/C11H8ClNO2/c1-15-9-2-3-10-7(5-9)4-8(6-14)11(12)13-10/h2-6H,1H3",
        "InChIKey": null,
        "Canonical SMILES": "O=CC=1C=C2C=C(OC)C=CC2=NC1Cl",
        "Molecular Formula": "C<sub>11</sub>H<sub>8</sub>ClNO<sub>2</sub>",
        "Molecular Mass": "221.64",
        "Melting Point": "143-144 °C"
    }
}