{
    "cas_no": "3678-63-5",
    "key_name": "4-Chloro-2-methylpyridine",
    "cn_name": "4-氯-2-甲基吡啶;",
    "alternate_name": "Pyridine, 4-chloro-2-methyl-;2-Picoline, 4-chloro-;4-Chloro-2-methylpyridine;4-Chloro-2-picoline;2-Methyl-4-chloropyridine",
    "duplicated_cas_no": "",
    "SMILES": "ClC=1C=C(C)N=CC1",
    "meta_data": {
        "InChI": "InChI=1S/C6H6ClN/c1-5-4-6(7)2-3-8-5/h2-4H,1H3",
        "InChIKey": null,
        "Canonical SMILES": "ClC=1C=CN=C(C1)C",
        "Molecular Formula": "C<sub>6</sub>H<sub>6</sub>ClN",
        "Molecular Mass": "127.57",
        "Boiling Point": "48.5 °C @ Press: 10 Torr"
    }
}