{
    "cas_no": "105-04-4",
    "key_name": "Triethylethylenediamine",
    "cn_name": "N,N,N-三乙基乙二胺;",
    "alternate_name": "1,2-Ethanediamine, <em>N</em><sup>1</sup>,<em>N</em><sup>1</sup>,<em>N</em><sup>2</sup>-triethyl-;Ethylenediamine, <em>N</em>,<em>N</em>,<em>N</em>′-triethyl-;1,2-Ethanediamine, <em>N</em>,<em>N</em>,<em>N</em>′-triethyl-;<em>N</em><sup>1</sup>,<em>N</em><sup>1</sup>,<em>N</em><sup>2</sup>-Triethyl-1,2-ethanediamine;<em>N</em>,<em>N</em>,<em>N</em>′-Triethylethylenediamine;Triethylethylenediamine;<em>N</em>-(2-Diethylaminoethyl)ethylamine;<em>N</em>,<em>N</em>,<em>N</em>′-Triethyl-1,2-ethanediamine;Ethyl(2-(diethylamino)ethyl)amine;NSC 78444;Diethyl(2-ethylaminoethyl)amine;<em>N</em>,<em>N</em>′,<em>N</em>′-Triethylethylenediamine;[2-(Diethylamino)ethyl](ethyl)amine",
    "duplicated_cas_no": "",
    "SMILES": "N(CCNCC)(CC)CC",
    "meta_data": {
        "InChI": "InChI=1S/C8H20N2/c1-4-9-7-8-10(5-2)6-3/h9H,4-8H2,1-3H3",
        "InChIKey": null,
        "Canonical SMILES": "N(CC)CCN(CC)CC",
        "Molecular Formula": "C<sub>8</sub>H<sub>20</sub>N<sub>2</sub>",
        "Molecular Mass": "144.26",
        "Boiling Point": "65 °C @ Press: 10 Torr"
    }
}