{
    "cas_no": "5340-78-3",
    "key_name": "Butanoic acid, 3,3-dimethyl-, ethyl ester",
    "cn_name": "叔丁基乙酸乙酯;",
    "alternate_name": "Butanoic acid, 3,3-dimethyl-, ethyl ester;Butyric acid, 3,3-dimethyl-, ethyl ester;Butyric acid, β,β-dimethyl-, ethyl ester;Ethyl 3,3-dimethylbutyrate;Ethyl 3,3-dimethylbutanoate;NSC 949;<em>tert</em>-Butylacetic acid ethyl ester;3,3-Dimethylbutanoic acid ethyl ester",
    "duplicated_cas_no": "",
    "SMILES": "C(CC(C)(C)C)(OCC)=O",
    "meta_data": {
        "InChI": "InChI=1S/C8H16O2/c1-5-10-7(9)6-8(2,3)4/h5-6H2,1-4H3",
        "InChIKey": null,
        "Canonical SMILES": "O=C(OCC)CC(C)(C)C",
        "Molecular Formula": "C<sub>8</sub>H<sub>16</sub>O<sub>2</sub>",
        "Molecular Mass": "144.21",
        "Boiling Point": "102 °C @ Press: 740 Torr"
    }
}