{
    "cas_no": "15356-60-2",
    "key_name": "(+)-Menthol",
    "cn_name": null,
    "alternate_name": "Cyclohexanol, 5-methyl-2-(1-methylethyl)-, (1<em>S</em>,2<em>R</em>,5<em>S</em>)-;Cyclohexanol, 5-methyl-2-(1-methylethyl)-, [1<em>S</em>-(1α,2β,5α)]-;Menthol, (1<em>S</em>,3<em>S</em>,4<em>R</em>)-(+)-;(1<em>S</em>,2<em>R</em>,5<em>S</em>)-5-Methyl-2-(1-methylethyl)cyclohexanol;(+)-Menthol;<em>d</em>-Menthol;(1<em>S</em>,2<em>R</em>,5<em>S</em>)-Menthol;(1<em>S</em>,2<em>R</em>,5<em>S</em>)-(+)-Menthol;D-Menthol;(1S,2R,5S)-2-Isopropyl-5-methylcyclohexanol;<span class=\"text-smallcaps\">D</span>-Menthol",
    "duplicated_cas_no": "",
    "SMILES": "C(C)(C)[C@@H]1[C@@H](O)C[C@@H](C)CC1",
    "meta_data": {
        "InChI": "InChI=1S/C10H20O/c1-7(2)9-5-4-8(3)6-10(9)11/h7-11H,4-6H2,1-3H3/t8-,9+,10-/m0/s1",
        "InChIKey": null,
        "Canonical SMILES": "OC1CC(C)CCC1C(C)C",
        "Molecular Formula": "C<sub>10</sub>H<sub>20</sub>O",
        "Molecular Mass": "156.27",
        "Melting Point": "42-44 °C"
    }
}