{
    "cas_no": "925-60-0",
    "key_name": "Propyl acrylate",
    "cn_name": null,
    "alternate_name": "2-Propenoic acid, propyl ester;Acrylic acid, propyl ester;Propyl acrylate;Propyl 2-propenoate;NSC 32620",
    "duplicated_cas_no": "2056117-88-3",
    "SMILES": "C(OCCC)(C=C)=O",
    "meta_data": {
        "InChI": "InChI=1S/C6H10O2/c1-3-5-8-6(7)4-2/h4H,2-3,5H2,1H3",
        "InChIKey": null,
        "Canonical SMILES": "O=C(OCCC)C=C",
        "Molecular Formula": "C<sub>6</sub>H<sub>10</sub>O<sub>2</sub>",
        "Molecular Mass": "114.14",
        "Boiling Point": "121 °C @ Press: 800 Torr"
    }
}