{
    "cas_no": "3977-29-5",
    "key_name": "2-Amino-4-hydroxy-6-methylpyrimidine",
    "cn_name": "2-氨基-4-羟基-6-甲基嘧啶;",
    "alternate_name": "4(3<em>H</em>)-Pyrimidinone, 2-amino-6-methyl-;4(1<em>H</em>)-Pyrimidinone, 2-amino-6-methyl-;4-Pyrimidinol, 2-amino-6-methyl-;2-Amino-6-methyl-4(3<em>H</em>)-pyrimidinone;4-Methylisocytosine;Superacyl;Mecytosine;Superacil;2-Amino-6-hydroxy-4-methylpyrimidine;2-Amino-4-oxo-6-methylpyrimidine;2-Amino-4-hydroxy-6-methylpyrimidine;2-Amino-4-methyl-6-hydroxypyrimidine;2-Amino-6-methyl-4-oxopyrimidine;6-Methylisocytosine;2-Amino-6-methylpyrimidin-4-ol;2-Amino-6-methyl-4-pyrimidinol;2-Amino-6-methyl-4-pyrimidinone;NSC 13145;NSC 23662;NSC 41833;NSC 7893;2-Amino-6-methyl-4(1<em>H</em>)-pyrimidinone;4-Hydroxy-6-methyl-2-pyrimidinamine;2-Amino-6-methylpyrimidin-4(3<em>H</em>)-one;2-Amino-6-methyl-1<em>H</em>-pyrimidin-4-one;2-Amino-6-methyl-1,4-dihydropyrimidin-4-one;2-Amino-6-methyl-3<em>H</em>-pyrimidin-4-one;2-Amino-6-methyl-3,4-dihydropyrimidin-4-one",
    "duplicated_cas_no": "5414-09-5;175657-83-7",
    "SMILES": "CC1=CC(=O)N=C(N)N1",
    "meta_data": {
        "InChI": "InChI=1S/C5H7N3O/c1-3-2-4(9)8-5(6)7-3/h2H,1H3,(H3,6,7,8,9)",
        "InChIKey": null,
        "Canonical SMILES": "O=C1N=C(N)NC(=C1)C",
        "Molecular Formula": "C<sub>5</sub>H<sub>7</sub>N<sub>3</sub>O",
        "Molecular Mass": "125.13",
        "Melting Point": "299-300 °C"
    }
}