{
    "cas_no": "14937-32-7",
    "key_name": "Penta-<em>O</em>-galloyl-β-<span class=\"text-smallcaps\">D</span>-glucose",
    "cn_name": null,
    "alternate_name": "β-<span class=\"text-smallcaps\">D</span>-Glucopyranose, 1,2,3,4,6-pentakis(3,4,5-trihydroxybenzoate);Glucopyranose, pentagallate, β-<span class=\"text-smallcaps\">D</span>-;β-<span class=\"text-smallcaps\">D</span>-Glucopyranose, pentakis(3,4,5-trihydroxybenzoate);Gallic acid, pentaester with β-<span class=\"text-smallcaps\">D</span>-glucopyranose;1,2,3,4,6-Pentagalloyl-β-<span class=\"text-smallcaps\">D</span>-glucose;Penta-<em>O</em>-galloyl-β-<span class=\"text-smallcaps\">D</span>-glucopyranose;Penta-<em>O</em>-galloyl-β-<span class=\"text-smallcaps\">D</span>-glucose;β-1,2,3,4,6-Pentagalloylglucose;1,2,3,4,6-Pentagalloyl-β-<span class=\"text-smallcaps\">D</span>-glucopyranose;1,2,3,4,6-Penta-<em>O</em>-galloyl-β-<span class=\"text-smallcaps\">D</span>-glucopyranose;1,2,3,4,6-Pentagalloyl-β-<span class=\"text-smallcaps\">D</span>-glucopyranoside;Pentagalloyl-<span class=\"text-smallcaps\">D</span>-glucose;Penta-<em>O</em>-galloylglucose;Gallotannin 15;1,2,3,4,6-Penta-<em>O</em>-galloyl-β-glucopyranose;1,2,3,4,6-Penta-<em>O</em>-galloyl-β-<span class=\"text-smallcaps\">D</span>-glucose;1,2,3,4,6-Penta-<em>O</em>-galloylglucose;1,2,3,4,6-Penta-<em>O</em>-galloyl-β-<span class=\"text-smallcaps\">D</span>-glucopyranoside;1,2,3,4,6-Penta-<em>O</em>-galloyl-β-<span class=\"text-smallcaps\">D</span>-glucoside;G 7548;DB 03208",
    "duplicated_cas_no": "94008-28-3;98731-29-4;99935-72-5;102694-50-8;131647-34-2;1809258-59-0;2392017-59-1",
    "SMILES": "O(C(=O)C1=CC(O)=C(O)C(O)=C1)[C@@H]2[C@@H](OC(=O)C3=CC(O)=C(O)C(O)=C3)[C@H](OC(=O)C4=CC(O)=C(O)C(O)=C4)O[C@H](COC(=O)C5=CC(O)=C(O)C(O)=C5)[C@H]2OC(=O)C6=CC(O)=C(O)C(O)=C6",
    "meta_data": {
        "InChI": "InChI=1S/C41H32O26/c42-17-1-12(2-18(43)28(17)52)36(57)62-11-27-33(64-37(58)13-3-19(44)29(53)20(45)4-13)34(65-38(59)14-5-21(46)30(54)22(47)6-14)35(66-39(60)15-7-23(48)31(55)24(49)8-15)41(63-27)67-40(61)16-9-25(50)32(56)26(51)10-16/h1-10,27,33-35,41-56H,11H2/t27-,33-,34+,35-,41+/m1/s1",
        "InChIKey": null,
        "Canonical SMILES": "O=C(OCC1OC(OC(=O)C2=CC(O)=C(O)C(O)=C2)C(OC(=O)C3=CC(O)=C(O)C(O)=C3)C(OC(=O)C4=CC(O)=C(O)C(O)=C4)C1OC(=O)C5=CC(O)=C(O)C(O)=C5)C6=CC(O)=C(O)C(O)=C6",
        "Molecular Formula": "C<sub>41</sub>H<sub>32</sub>O<sub>26</sub>",
        "Molecular Mass": "940.68",
        "Melting Point": "143 °C"
    }
}