{
    "cas_no": "53716-49-7",
    "key_name": "Carprofen",
    "cn_name": "卡洛芬;(+/-)-6-氯-alpha-甲基咔唑-2-乙酸;",
    "alternate_name": "9<em>H</em>-Carbazole-2-acetic acid, 6-chloro-α-methyl-;9<em>H</em>-Carbazole-2-acetic acid, 6-chloro-α-methyl-, (±)-;6-Chloro-α-methyl-9<em>H</em>-carbazole-2-acetic acid;C 5720;(<em>dl</em>)-6-Chloro-α-methylcarbazole-2-acetic acid;Carprofen;Ro 20-5720;2-(6-Chlorocarbazol-2-yl)propionic acid;Ro 20-5720/000;Imadyl;Rimadyl;NSC 297935;6-Chloro-α-methylcarbazole-2-acetic acid;Carprodyl;2-(6-Chloro-9<em>H</em>-carbazol-2-yl)propanoic acid;Vetprofen",
    "duplicated_cas_no": "52263-47-5",
    "SMILES": "ClC=1C=C2C=3C(NC2=CC1)=CC(C(C(O)=O)C)=CC3",
    "meta_data": {
        "InChI": "InChI=1S/C15H12ClNO2/c1-8(15(18)19)9-2-4-11-12-7-10(16)3-5-13(12)17-14(11)6-9/h2-8,17H,1H3,(H,18,19)",
        "InChIKey": null,
        "Canonical SMILES": "O=C(O)C(C=1C=CC2=C(C1)NC3=CC=C(Cl)C=C32)C",
        "Molecular Formula": "C<sub>15</sub>H<sub>12</sub>ClNO<sub>2</sub>",
        "Molecular Mass": "273.71",
        "Melting Point": "197.5 °C"
    }
}