{
    "cas_no": "18800-51-6",
    "key_name": "2,3-Dimethylbenzenethiol",
    "cn_name": null,
    "alternate_name": "Benzenethiol, 2,3-dimethyl-;2,3-Xylenethiol;2,3-Dimethylbenzenethiol",
    "duplicated_cas_no": "",
    "SMILES": "CC1=C(C)C=CC=C1S",
    "meta_data": {
        "InChI": "InChI=1S/C8H10S/c1-6-4-3-5-8(9)7(6)2/h3-5,9H,1-2H3",
        "InChIKey": null,
        "Canonical SMILES": "SC1=CC=CC(=C1C)C",
        "Molecular Formula": "C<sub>8</sub>H<sub>10</sub>S",
        "Molecular Mass": "138.23",
        "Boiling Point": "132.2 °C @ Press: 50 Torr",
        "Melting Point": "22-23 °C"
    }
}