{
    "cas_no": "25122-46-7",
    "key_name": "Clobetasol propionate",
    "cn_name": "丙酸氯倍他索;",
    "alternate_name": "Pregna-1,4-diene-3,20-dione, 21-chloro-9-fluoro-11-hydroxy-16-methyl-17-(1-oxopropoxy)-, (11β,16β)-;Pregna-1,4-diene-3,20-dione, 21-chloro-9-fluoro-11β,17-dihydroxy-16β-methyl-, 17-propionate;(11β,16β)-21-Chloro-9-fluoro-11-hydroxy-16-methyl-17-(1-oxopropoxy)pregna-1,4-diene-3,20-dione;21-Chloro-21-deoxybetamethasone 17-propionate;Dermovate;Clobetasol propionate;Clobetasol 17-propionate;CGP 9555;Clobesol;Temovate;Clobederm;GR 2/925;Dermoxin;Dermoxinale;Dermoval;CCl 4725;Karison;Clobex;Olux;Skin Cap;Olux-E;Tenovate",
    "duplicated_cas_no": "",
    "SMILES": "O(C(CC)=O)[C@@]1(C(CCl)=O)[C@]2(C)[C@@](C[C@@H]1C)([C@]3([C@](F)([C@@H](O)C2)[C@]4(C)C(CC3)=CC(=O)C=C4)[H])[H]",
    "meta_data": {
        "InChI": "InChI=1S/C25H32ClFO5/c1-5-21(31)32-25(20(30)13-26)14(2)10-18-17-7-6-15-11-16(28)8-9-22(15,3)24(17,27)19(29)12-23(18,25)4/h8-9,11,14,17-19,29H,5-7,10,12-13H2,1-4H3/t14-,17-,18-,19-,22-,23-,24-,25-/m0/s1",
        "InChIKey": null,
        "Canonical SMILES": "O=C1C=CC2(C(=C1)CCC3C4CC(C)C(OC(=O)CC)(C(=O)CCl)C4(C)CC(O)C32F)C",
        "Molecular Formula": "C<sub>25</sub>H<sub>32</sub>ClFO<sub>5</sub>",
        "Molecular Mass": "466.97",
        "Melting Point": "195.5-197 °C"
    }
}