{
    "cas_no": "267-48-1",
    "key_name": "5<em>H</em>-1,3-Dioxolo[4,5-<em>f</em>]indole",
    "cn_name": "5,6-亚甲二氧吲哚;",
    "alternate_name": "5<em>H</em>-1,3-Dioxolo[4,5-<em>f</em>]indole;5,6-(Methylenedioxy)indole;1<em>H</em>-Indole, 5,6-[methylenebis(oxy)]-;NSC 92516;5,6-Methylenedioxy-1<em>H</em>-indole;2<em>H</em>,5<em>H</em>-[1,3]Dioxolo[4,5-<em>f</em>]indole",
    "duplicated_cas_no": "",
    "SMILES": "C=12C(=CC3=C(C1)OCO3)NC=C2",
    "meta_data": {
        "InChI": "InChI=1S/C9H7NO2/c1-2-10-7-4-9-8(3-6(1)7)11-5-12-9/h1-4,10H,5H2",
        "InChIKey": null,
        "Canonical SMILES": "O1C2=CC=3C=CNC3C=C2OC1",
        "Molecular Formula": "C<sub>9</sub>H<sub>7</sub>NO<sub>2</sub>",
        "Molecular Mass": "161.16",
        "Melting Point": "110 °C"
    }
}