{
    "cas_no": "2629-59-6",
    "key_name": "<em>S</em>-Ethyl-<span class=\"text-smallcaps\">L</span>-cysteine",
    "cn_name": null,
    "alternate_name": "<span class=\"text-smallcaps\">L</span>-Cysteine, <em>S</em>-ethyl-;Alanine, 3-(ethylthio)-, <span class=\"text-smallcaps\">L</span>-;<em>S</em>-Ethyl-<span class=\"text-smallcaps\">L</span>-cysteine;<em>S</em>-Ethylcysteine;NSC 49244;(2R)-2-Amino-3-(ethylsulfanyl)propanoic acid",
    "duplicated_cas_no": "22196-52-7",
    "SMILES": "[C@@H](C(O)=O)(CSCC)N",
    "meta_data": {
        "InChI": "InChI=1S/C5H11NO2S/c1-2-9-3-4(6)5(7)8/h4H,2-3,6H2,1H3,(H,7,8)/t4-/m0/s1",
        "InChIKey": null,
        "Canonical SMILES": "O=C(O)C(N)CSCC",
        "Molecular Formula": "C<sub>5</sub>H<sub>11</sub>NO<sub>2</sub>S",
        "Molecular Mass": "149.21",
        "Melting Point": "260 °C"
    }
}