{
    "cas_no": "13472-58-7",
    "key_name": "3,5-Dichloro-2-methoxypyridine",
    "cn_name": null,
    "alternate_name": "Pyridine, 3,5-dichloro-2-methoxy-;3,5-Dichloro-2-methoxypyridine",
    "duplicated_cas_no": "",
    "SMILES": "O(C)C1=C(Cl)C=C(Cl)C=N1",
    "meta_data": {
        "InChI": "InChI=1S/C6H5Cl2NO/c1-10-6-5(8)2-4(7)3-9-6/h2-3H,1H3",
        "InChIKey": null,
        "Canonical SMILES": "ClC1=CN=C(OC)C(Cl)=C1",
        "Molecular Formula": "C<sub>6</sub>H<sub>5</sub>Cl<sub>2</sub>NO",
        "Molecular Mass": "178.02",
        "Melting Point": "90 °C"
    }
}