{
    "cas_no": "1882-69-5",
    "key_name": "5-Methoxy-2-nitrobenzoic acid",
    "cn_name": "5-甲氧基-2-硝基苯甲酸;",
    "alternate_name": "Benzoic acid, 5-methoxy-2-nitro-;<em>m</em>-Anisic acid, 6-nitro-;5-Methoxy-2-nitrobenzoic acid;2-Nitro-5-methoxybenzoic acid;NSC 364656;5-(Methyloxy)-2-nitrobenzoic acid",
    "duplicated_cas_no": "",
    "SMILES": "C(O)(=O)C1=C(N(=O)=O)C=CC(OC)=C1",
    "meta_data": {
        "InChI": "InChI=1S/C8H7NO5/c1-14-5-2-3-7(9(12)13)6(4-5)8(10)11/h2-4H,1H3,(H,10,11)",
        "InChIKey": null,
        "Canonical SMILES": "O=C(O)C1=CC(OC)=CC=C1N(=O)=O",
        "Molecular Formula": "C<sub>8</sub>H<sub>7</sub>NO<sub>5</sub>",
        "Molecular Mass": "197.14",
        "Melting Point": "132 °C"
    }
}