{
    "cas_no": "85785-20-2",
    "key_name": "Esprocarb",
    "cn_name": "禾草畏;ICI A2957；SC-2957(Stauffer)；YH-432；S-苄基1，2-二甲基丙基(乙基)硫代氨基甲酸酯;",
    "alternate_name": "Carbamothioic acid, <em>N</em>-(1,2-dimethylpropyl)-<em>N</em>-ethyl-, <em>S</em>-(phenylmethyl) ester;Carbamothioic acid, (1,2-dimethylpropyl)ethyl-, <em>S</em>-(phenylmethyl) ester;SC 2957;Esprocarb;R 22957",
    "duplicated_cas_no": "119993-54-3",
    "SMILES": "N(C(SCC1=CC=CC=C1)=O)(C(C(C)C)C)CC",
    "meta_data": {
        "InChI": "InChI=1S/C15H23NOS/c1-5-16(13(4)12(2)3)15(17)18-11-14-9-7-6-8-10-14/h6-10,12-13H,5,11H2,1-4H3",
        "InChIKey": null,
        "Canonical SMILES": "O=C(SCC=1C=CC=CC1)N(CC)C(C)C(C)C",
        "Molecular Formula": "C<sub>15</sub>H<sub>23</sub>NOS",
        "Molecular Mass": "265.41",
        "Boiling Point": "135 °C",
        "Melting Point": "&lt;25 °C"
    }
}