{
    "cas_no": "4780-14-7",
    "key_name": "3-Methoxy-2-methyl-4<em>H</em>-pyran-4-one",
    "cn_name": null,
    "alternate_name": "4<em>H</em>-Pyran-4-one, 3-methoxy-2-methyl-;3-Methoxy-2-methyl-4<em>H</em>-pyran-4-one;Maltol methyl ether;5-Methoxy-6-methyl-4-pyrone;3-Methoxy-2-methyl-4-pyranone;2-Methyl-3-methoxypyran-4(1<em>H</em>)-one",
    "duplicated_cas_no": "",
    "SMILES": "O(C)C=1C(=O)C=COC1C",
    "meta_data": {
        "InChI": "InChI=1S/C7H8O3/c1-5-7(9-2)6(8)3-4-10-5/h3-4H,1-2H3",
        "InChIKey": null,
        "Canonical SMILES": "O=C1C=COC(=C1OC)C",
        "Molecular Formula": "C<sub>7</sub>H<sub>8</sub>O<sub>3</sub>",
        "Molecular Mass": "140.14",
        "Boiling Point": "85-89 °C @ Press: 3.5 Torr"
    }
}