{
    "cas_no": "76-86-8",
    "key_name": "1,1′,1′′-(Chlorosilylidyne)tris[benzene]",
    "cn_name": "三苯基氯硅烷;",
    "alternate_name": "Benzene, 1,1′,1′′-(chlorosilylidyne)tris-;Silane, chlorotriphenyl-;1,1′,1′′-(Chlorosilylidyne)tris[benzene];Chlorotriphenylsilane;Triphenylchlorosilane;Triphenylsilicon chloride;Triphenylsilyl chloride;TSL 8061;NSC 102804",
    "duplicated_cas_no": "155684-37-0;953074-25-4",
    "SMILES": "[Si](Cl)(C1=CC=CC=C1)(C2=CC=CC=C2)C3=CC=CC=C3",
    "meta_data": {
        "InChI": "InChI=1S/C18H15ClSi/c19-20(16-10-4-1-5-11-16,17-12-6-2-7-13-17)18-14-8-3-9-15-18/h1-15H",
        "InChIKey": null,
        "Canonical SMILES": "Cl[Si](C=1C=CC=CC1)(C=2C=CC=CC2)C=3C=CC=CC3",
        "Molecular Formula": "C<sub>18</sub>H<sub>15</sub>ClSi",
        "Molecular Mass": "294.85",
        "Boiling Point": "188-189 °C @ Press: 3 Torr",
        "Melting Point": "91-92 °C"
    }
}