{
    "cas_no": "120-97-8",
    "key_name": "Dichlorphenamide",
    "cn_name": null,
    "alternate_name": "1,3-Benzenedisulfonamide, 4,5-dichloro-;<em>m</em>-Benzenedisulfonamide, 4,5-dichloro-;4,5-Dichloro-1,3-benzenedisulfonamide;Daranide;Dichlofenamide;4,5-Dichloro-<em>m</em>-benzenedisulfonamide;4,5-Dichloro-1,3-disulfamoylbenzene;Dichlorophenamide;3,4-Dichloro-5-sulfamylbenzenesulfonamide;Dichlorphenamide;Oratrol;1,3-Disulfamyl-4,5-dichlorobenzene;Antidrasi;1,3-Disulfamoyl-4,5-dichlorobenzene;Daramide;Diclofenamid;Glaucol;Diclofenamide;CB 8000;Keveyis;MeSH ID: D004005",
    "duplicated_cas_no": "179044-03-2",
    "SMILES": "S(N)(=O)(=O)C1=CC(S(N)(=O)=O)=CC(Cl)=C1Cl",
    "meta_data": {
        "InChI": "InChI=1S/C6H6Cl2N2O4S2/c7-4-1-3(15(9,11)12)2-5(6(4)8)16(10,13)14/h1-2H,(H2,9,11,12)(H2,10,13,14)",
        "InChIKey": null,
        "Canonical SMILES": "O=S(=O)(N)C1=CC(Cl)=C(Cl)C(=C1)S(=O)(=O)N",
        "Molecular Formula": "C<sub>6</sub>H<sub>6</sub>Cl<sub>2</sub>N<sub>2</sub>O<sub>4</sub>S<sub>2</sub>",
        "Molecular Mass": "305.16",
        "Melting Point": "239-241 °C"
    }
}