{
    "cas_no": "589-62-8",
    "key_name": "(±)-4-Octanol",
    "cn_name": "4-辛醇;丁基丙基甲醇;",
    "alternate_name": "4-Octanol;<em>n</em>-Octan-4-ol;<em>dl</em>-Octan-4-ol;(±)-4-Octanol;NSC 66398",
    "duplicated_cas_no": "74778-22-6",
    "SMILES": "C(CCCC)(CCC)O",
    "meta_data": {
        "InChI": "InChI=1S/C8H18O/c1-3-5-7-8(9)6-4-2/h8-9H,3-7H2,1-2H3",
        "InChIKey": null,
        "Canonical SMILES": "OC(CCC)CCCC",
        "Molecular Formula": "C<sub>8</sub>H<sub>18</sub>O",
        "Molecular Mass": "130.23",
        "Boiling Point": "175 °C",
        "Density": "0.818 g/cm³ @ Temp: 22 °C"
    }
}