{
    "cas_no": "693-03-8",
    "key_name": "Butylmagnesium bromide",
    "cn_name": null,
    "alternate_name": "Magnesium, bromobutyl-;Butylmagnesium bromide;Bromobutylmagnesium;<em>n</em>-Butylmagnesium bromide;1-Butylmagnesium bromide",
    "duplicated_cas_no": "33925-58-5;52948-62-6",
    "SMILES": "C(C[Mg]Br)CC",
    "meta_data": {
        "InChI": "InChI=1S/C4H9.BrH.Mg/c1-3-4-2;;/h1,3-4H2,2H3;1H;/q;;+1/p-1",
        "InChIKey": null,
        "Canonical SMILES": "Br[Mg]CCCC",
        "Molecular Formula": "C<sub>4</sub>H<sub>9</sub>BrMg",
        "Molecular Mass": "",
        "Boiling Point": "128-131 °C @ Press: 0.2 Torr",
        "Melting Point": "80.5-81 °C"
    }
}