{
    "cas_no": "5271-27-2",
    "key_name": "1-Methyl-3-phenylpiperazine",
    "cn_name": "1-甲基-3-苯基哌嗪;",
    "alternate_name": "Piperazine, 1-methyl-3-phenyl-;1-Methyl-3-phenylpiperazine;(±)-3-Phenyl-1-methylpiperazine",
    "duplicated_cas_no": "",
    "SMILES": "CN1CC(NCC1)C2=CC=CC=C2",
    "meta_data": {
        "InChI": "InChI=1S/C11H16N2/c1-13-8-7-12-11(9-13)10-5-3-2-4-6-10/h2-6,11-12H,7-9H2,1H3",
        "InChIKey": null,
        "Canonical SMILES": "C=1C=CC(=CC1)C2NCCN(C)C2",
        "Molecular Formula": "C<sub>11</sub>H<sub>16</sub>N<sub>2</sub>",
        "Molecular Mass": "176.26",
        "Melting Point": "58-60 °C"
    }
}