{
    "cas_no": "122151-38-6",
    "key_name": "(2<em>S</em>)-2-Hydroxy-1-(1-pyrrolidinyl)-1-propanone",
    "cn_name": null,
    "alternate_name": "1-Propanone, 2-hydroxy-1-(1-pyrrolidinyl)-, (2<em>S</em>)-;Pyrrolidine, 1-(2-hydroxy-1-oxopropyl)-, (<em>S</em>)-;Pyrrolidine, 1-[(2<em>S</em>)-2-hydroxy-1-oxopropyl]-;(2<em>S</em>)-2-Hydroxy-1-(1-pyrrolidinyl)-1-propanone;(-)-(<em>S</em>)-<em>N</em>,<em>N</em>-Tetramethylene-2-hydroxypropionamide;(2<em>S</em>)-1-Oxo-1-(1-pyrrolidinyl)-2-propanol;(2S)-2-Hydroxy-1-(pyrrolidin-1-yl)propan-1-one;(<em>S</em>)-1-(Pyrrolidin-1-yl)-2-hydroxypropan-1-one;(2S)-2-Hydroxy-1-pyrrolidin-1-ylpropan-1-one",
    "duplicated_cas_no": "",
    "SMILES": "C([C@H](C)O)(=O)N1CCCC1",
    "meta_data": {
        "InChI": "InChI=1S/C7H13NO2/c1-6(9)7(10)8-4-2-3-5-8/h6,9H,2-5H2,1H3/t6-/m0/s1",
        "InChIKey": null,
        "Canonical SMILES": "O=C(N1CCCC1)C(O)C",
        "Molecular Formula": "C<sub>7</sub>H<sub>13</sub>NO<sub>2</sub>",
        "Molecular Mass": "143.18",
        "Boiling Point": "95-97 °C @ Press: 1 Torr"
    }
}