{
    "cas_no": "3130-87-8",
    "key_name": "Asparagine",
    "cn_name": "DL-天冬酰胺一水物;DL-天门冬酰胺一水物;",
    "alternate_name": "Asparagine;Asparagine, <span class=\"text-smallcaps\">D</smallcap><smallcap>L</span>-;(±)-Asparagine;<span class=\"text-smallcaps\">D</smallcap><smallcap>L</span>-Aspartamine;<span class=\"text-smallcaps\">D</smallcap><smallcap>L</span>-Asparagine;NSC 206243;NSC 7891;2-Aminosuccinamic acid;2-Amino-3-carbamoylpropanoic acid;2,4-Diamino-4-oxobutanoic acid",
    "duplicated_cas_no": "",
    "SMILES": "C(CC(N)=O)(C(O)=O)N",
    "meta_data": {
        "InChI": "InChI=1S/C4H8N2O3/c5-2(4(8)9)1-3(6)7/h2H,1,5H2,(H2,6,7)(H,8,9)",
        "InChIKey": null,
        "Canonical SMILES": "O=C(O)C(N)CC(=O)N",
        "Molecular Formula": "C<sub>4</sub>H<sub>8</sub>N<sub>2</sub>O<sub>3</sub>",
        "Molecular Mass": "132.12",
        "Melting Point": "280-285 °C (decomp)"
    }
}