{
    "cas_no": "16681-70-2",
    "key_name": "1<em>H</em>-1,2,3-Triazole-5-carboxylic acid",
    "cn_name": null,
    "alternate_name": "1<em>H</em>-1,2,3-Triazole-5-carboxylic acid;<em>v</em>-Triazole-4-carboxylic acid;1<em>H</em>-1,2,3-Triazole-4-carboxylic acid;4-Carboxy-1,2,3-triazole;1,2,3-Triazole-4-carboxylic acid;NSC 77700;3<em>H</em>-1,2,3-Triazole-4-carboxylic acid;1,2,3-Triazole-5-carboxylic acid;2<em>H</em>-Triazole-4-carboxylic acid",
    "duplicated_cas_no": "4343-72-0;66377-38-6",
    "SMILES": "C(O)(=O)C1=CN=NN1",
    "meta_data": {
        "InChI": "InChI=1S/C3H3N3O2/c7-3(8)2-1-4-6-5-2/h1H,(H,7,8)(H,4,5,6)",
        "InChIKey": null,
        "Canonical SMILES": "O=C(O)C1=CN=NN1",
        "Molecular Formula": "C<sub>3</sub>H<sub>3</sub>N<sub>3</sub>O<sub>2</sub>",
        "Molecular Mass": "113.07",
        "Melting Point": "213 °C"
    }
}