{
    "cas_no": "21411-53-0",
    "key_name": "Virginiamycin M<sub>1</sub>",
    "cn_name": null,
    "alternate_name": "3<em>H</em>-21,18-Nitrilo-1<em>H</em>,22<em>H</em>-pyrrolo[2,1-<em>c</em>][1,8,4,19]dioxadiazacyclotetracosine-1,7,16,22(4<em>H</em>,17<em>H</em>)-tetrone, 8,9,14,15,24,25-hexahydro-14-hydroxy-4,12-dimethyl-3-(1-methylethyl)-, (3<em>R</em>,4<em>R</em>,5<em>E</em>,10<em>E</em>,12<em>E</em>,14<em>S</em>)-;Ostreogrycin A;Virginiamycin M<sub>1</sub>;Mikamycin A;(3<em>R</em>,4<em>R</em>,5<em>E</em>,10<em>E</em>,12<em>E</em>,14<em>S</em>)-8,9,14,15,24,25-Hexahydro-14-hydroxy-4,12-dimethyl-3-(1-methylethyl)-3<em>H</em>-21,18-nitrilo-1<em>H</em>,22<em>H</em>-pyrrolo[2,1-<em>c</em>][1,8,4,19]dioxadiazacyclotetracosine-1,7,16,22(4<em>H</em>,17<em>H</em>)-tetrone;Staphylomycin M<sub>1</sub>;PA 114A;Streptogramin A;Pristinamycin II<sub>A</sub>;Antibiotic PA 114A1;Factor M (antibiotic);Vernamycin A;Antibiotic PA 114A;[3<em>R</em>-(3<em>R</em>*,4<em>R</em>*,5<em>E</em>,10<em>E</em>,12<em>E</em>,14<em>S</em>*)]-8,9,14,15,24,25-Hexahydro-14-hydroxy-4,12-dimethyl-3-(1-methylethyl)-3<em>H</em>-21,18-nitrilo-1<em>H</em>,22<em>H</em>-pyrrolo[2,1-<em>c</em>][1,8,4,19]dioxadiazacyclotetracosine-1,7,16,22(4<em>H</em>,17<em>H</em>)-tetrone;Factor M;RP 12536;NSC 244426;NSC 87432;Pristinamycin II",
    "duplicated_cas_no": "1402-85-3;5365-57-1;11015-24-0;11031-71-3;12656-20-1;12739-05-8;191289-43-7",
    "SMILES": "",
    "meta_data": {
        "InChI": "",
        "InChIKey": null,
        "Canonical SMILES": "",
        "Molecular Formula": "C<sub>28</sub>H<sub>35</sub>N<sub>3</sub>O<sub>7</sub>",
        "Molecular Mass": "525.59",
        "Melting Point": "165-167 °C"
    }
}