{
    "cas_no": "112-16-3",
    "key_name": "Dodecanoyl chloride",
    "cn_name": "十二酰氯;月桂酰氯;",
    "alternate_name": "Dodecanoyl chloride;Lauroyl chloride;Lauric acid chloride;<em>n</em>-Dodecanoyl chloride;Dodecanoic acid chloride;Dodecanoic acid, anhydride with carbonochloridic acid",
    "duplicated_cas_no": "1246204-29-4",
    "SMILES": "C(CCCCCCCC)CCC(Cl)=O",
    "meta_data": {
        "InChI": "InChI=1S/C12H23ClO/c1-2-3-4-5-6-7-8-9-10-11-12(13)14/h2-11H2,1H3",
        "InChIKey": null,
        "Canonical SMILES": "O=C(Cl)CCCCCCCCCCC",
        "Molecular Formula": "C<sub>12</sub>H<sub>23</sub>ClO",
        "Molecular Mass": "218.76",
        "Boiling Point": "145 °C @ Press: 18 Torr",
        "Melting Point": "-17 °C"
    }
}