{
    "cas_no": "154361-50-9",
    "key_name": "Capecitabine",
    "cn_name": "卡培他滨;5-脱氧-5-氟-N-[(戊氧基)羰基]-胞嘧啶核苷;5-脱氧-5-氟-N-[(戊氧基)羰基]-胞嘧啶核甙;",
    "alternate_name": "Cytidine, 5′-deoxy-5-fluoro-<em>N</em>-[(pentyloxy)carbonyl]-;Carbamic acid, [1-(5-deoxy-β-<span class=\"text-smallcaps\">D</span>-ribofuranosyl)-5-fluoro-1,2-dihydro-2-oxo-4-pyrimidinyl]-, pentyl ester;5′-Deoxy-5-fluoro-<em>N</em>-[(pentyloxy)carbonyl]cytidine;Ro 09-1978/000;Capecitabine;Ro 09-1978;5′-Deoxy-5-fluoro-<em>N</em><sup>4</sup>-(pentyloxycarbonyl)cytidine;Xeloda;Capecitibine;Capecytabine;Capiibine;Captabin;<em>N</em><sup>4</sup>-Pentyloxycarbonyl-5′-deoxy-5-fluorocytidine;Capacetrine;Ecansya;Capecitabine Medac;Capecitabine Accord;Capecitabine Teva;Capecitabine SUN;Xeltabin",
    "duplicated_cas_no": "158798-73-3;958887-39-3",
    "SMILES": "O[C@H]1[C@@H](O[C@H](C)[C@H]1O)N2C(=O)N=C(NC(OCCCCC)=O)C(F)=C2",
    "meta_data": {
        "InChI": "InChI=1S/C15H22FN3O6/c1-3-4-5-6-24-15(23)18-12-9(16)7-19(14(22)17-12)13-11(21)10(20)8(2)25-13/h7-8,10-11,13,20-21H,3-6H2,1-2H3,(H,17,18,22,23)/t8-,10-,11-,13-/m1/s1",
        "InChIKey": null,
        "Canonical SMILES": "O=C(OCCCCC)NC1=NC(=O)N(C=C1F)C2OC(C)C(O)C2O",
        "Molecular Formula": "C<sub>15</sub>H<sub>22</sub>FN<sub>3</sub>O<sub>6</sub>",
        "Molecular Mass": "359.35",
        "Melting Point": "88-89 °C"
    }
}