{
    "cas_no": "1712-70-5",
    "key_name": "1-Chloro-4-(1-methylethenyl)benzene",
    "cn_name": "对氯甲基苯乙烯;",
    "alternate_name": "Benzene, 1-chloro-4-(1-methylethenyl)-;Styrene, <em>p</em>-chloro-α-methyl-;1-Chloro-4-(1-methylethenyl)benzene;<em>p</em>-Chloro-α-methylstyrene;4-Chloro-α-methylstyrene;2-(<em>p</em>-Chlorophenyl)propene;2-(4-Chlorophenyl)propene;1-Chloro-4-isopropenylbenzene;<em>p</em>-Chloroisopropenylbenzene;α-Methyl-<em>p</em>-chlorostyrene;2-(4-Chlorophenyl)-1-propene;α-Methyl-4-chlorostyrene;4-Isopropenylphenyl chloride;1-Chloro-4-(prop-1-en-2-yl)benzene;4-Isopropenyl-1-chlorobenzene",
    "duplicated_cas_no": "",
    "SMILES": "C(C)(=C)C1=CC=C(Cl)C=C1",
    "meta_data": {
        "InChI": "InChI=1S/C9H9Cl/c1-7(2)8-3-5-9(10)6-4-8/h3-6H,1H2,2H3",
        "InChIKey": null,
        "Canonical SMILES": "ClC1=CC=C(C=C1)C(=C)C",
        "Molecular Formula": "C<sub>9</sub>H<sub>9</sub>Cl",
        "Molecular Mass": "152.62",
        "Boiling Point": "89 °C",
        "Density": "1.0750 g/cm³ @ Temp: 20 °C"
    }
}