{
    "cas_no": "99-91-2",
    "key_name": "<em>p</em>-Chloroacetophenone",
    "cn_name": "对氯苯乙酮;4\"-氯苯乙酮;",
    "alternate_name": "Ethanone, 1-(4-chlorophenyl)-;Acetophenone, 4′-chloro-;Acetophenone, <em>p</em>-chloro-;1-(4-Chlorophenyl)ethanone;<em>p</em>-Chloroacetophenone;4′-Chloroacetophenone;Methyl <em>p</em>-chlorophenyl ketone;<em>p</em>-Chlorophenyl methyl ketone;Methyl 4-chlorophenyl ketone;1-Acetyl-4-chlorobenzene;4-Chlorophenyl methyl ketone;4-Acetylchlorobenzene;<em>p</em>-Acetylchlorobenzene;1-(4-Chlorophenyl)-1-ethanone;1-Chloro-4-acetylbenzene;4-Acetyl-1-chlorobenzene;NSC 6115;1-(<em>p</em>-Chlorophenyl)ethanone;4-Acetylphenyl chloride;<em>p</em>-Chlorohypnone;4-Chlorohypnone;4-Chloro-1-acetylbenzene;4-Chlorobenzene methyl ketone",
    "duplicated_cas_no": "",
    "SMILES": "C(C)(=O)C1=CC=C(Cl)C=C1",
    "meta_data": {
        "InChI": "InChI=1S/C8H7ClO/c1-6(10)7-2-4-8(9)5-3-7/h2-5H,1H3",
        "InChIKey": null,
        "Canonical SMILES": "O=C(C1=CC=C(Cl)C=C1)C",
        "Molecular Formula": "C<sub>8</sub>H<sub>7</sub>ClO",
        "Molecular Mass": "154.59",
        "Boiling Point": "237 °C",
        "Melting Point": "20-21 °C",
        "Density": "1.1922 g/cm³ @ Temp: 20 °C"
    }
}