{
    "cas_no": "6270-56-0",
    "key_name": "Furfuryl ethyl ether",
    "cn_name": null,
    "alternate_name": "Furan, 2-(ethoxymethyl)-;2-(Ethoxymethyl)furan;Furfuryl ethyl ether;Ethyl furfuryl ether;NSC 35558;(Ethoxymethyl)furan",
    "duplicated_cas_no": "",
    "SMILES": "C(OCC)C1=CC=CO1",
    "meta_data": {
        "InChI": "InChI=1S/C7H10O2/c1-2-8-6-7-4-3-5-9-7/h3-5H,2,6H2,1H3",
        "InChIKey": null,
        "Canonical SMILES": "O1C=CC=C1COCC",
        "Molecular Formula": "C<sub>7</sub>H<sub>10</sub>O<sub>2</sub>",
        "Molecular Mass": "126.15",
        "Boiling Point": "149 °C",
        "Density": "0.986 g/cm³ @ Temp: 24.9 °C; Press: 750 Torr"
    }
}