{
    "cas_no": "55134-13-9",
    "key_name": "Narasin",
    "cn_name": "甲基盐霉素钠;甲基沙利霉素;",
    "alternate_name": "Salinomycin, 4-methyl-, (4<em>S</em>)-;1,6,8-Trioxadispiro[4.1.5.3]pentadecane, salinomycin deriv.;(4<em>S</em>)-4-Methylsalinomycin;Antibiotic A 28086A;A 28086A;Narasin;Antibiotic C 7819B;C 7819B;Narasin A;Narasul;Monteban",
    "duplicated_cas_no": "124760-07-2;58716-56-6;59979-83-8",
    "SMILES": "O[C@H]1[C@]2(O[C@@]3(O[C@]([C@H](C([C@H]([C@H]([C@H](C)[C@@]4(O[C@@]([C@H](C(O)=O)CC)([C@@H](C)C[C@@H]4C)[H])[H])O)C)=O)CC)([C@@H](C)C[C@H]3C)[H])C=C1)O[C@@](C)(CC2)[C@@]5(O[C@@H](C)[C@](CC)(O)CC5)[H]",
    "meta_data": {
        "InChI": "InChI=1S/C43H72O11/c1-12-30(35(46)27(8)34(45)28(9)36-23(4)21-24(5)37(51-36)31(13-2)39(47)48)38-25(6)22-26(7)42(52-38)18-15-32(44)43(54-42)20-19-40(11,53-43)33-16-17-41(49,14-3)29(10)50-33/h15,18,23-34,36-38,44-45,49H,12-14,16-17,19-22H2,1-11H3,(H,47,48)/t23-,24-,25-,26+,27-,28-,29-,30-,31+,32+,33+,34+,36+,37+,38-,40-,41+,42-,43-/m0/s1",
        "InChIKey": null,
        "Canonical SMILES": "O=C(O)C(CC)C1OC(C(C)CC1C)C(C)C(O)C(C(=O)C(CC)C2OC3(OC4(OC(C)(CC4)C5OC(C)C(O)(CC)CC5)C(O)C=C3)C(C)CC2C)C",
        "Molecular Formula": "C<sub>43</sub>H<sub>72</sub>O<sub>11</sub>",
        "Molecular Mass": "765.03",
        "Melting Point": "98-100 °C"
    }
}