{
    "cas_no": "66-28-4",
    "key_name": "Strophanthidin",
    "cn_name": "毒毛旋花子苷元;",
    "alternate_name": "Card-20(22)-enolide, 3,5,14-trihydroxy-19-oxo-, (3β,5β)-;Strophanthidin;5β-Card-20(22)-enolide, 3β,5,14-trihydroxy-19-oxo-;(3β,5β)-3,5,14-Trihydroxy-19-oxocard-20(22)-enolide;Convallatoxigenin;Corchoside A aglycon;Corchsularin;Erysimupicrone;Erysimupikron;<em>k</em>-Strophanthidin;Strophanthidine;Corchorin;Strophanthidin K;NSC 86078;Apocymarin;MeSH ID: D013327",
    "duplicated_cas_no": "1398-86-3;11023-66-8",
    "SMILES": "C(=O)[C@@]12[C@@]3([C@]([C@]4(O)[C@](C)(CC3)[C@H](CC4)C5=CC(=O)OC5)(CC[C@]1(O)C[C@@H](O)CC2)[H])[H]",
    "meta_data": {
        "InChI": "InChI=1S/C23H32O6/c1-20-6-3-17-18(4-8-22(27)11-15(25)2-7-21(17,22)13-24)23(20,28)9-5-16(20)14-10-19(26)29-12-14/h10,13,15-18,25,27-28H,2-9,11-12H2,1H3/t15-,16+,17-,18+,20+,21-,22-,23-/m0/s1",
        "InChIKey": null,
        "Canonical SMILES": "O=CC12CCC(O)CC2(O)CCC3C1CCC4(C)C(C5=CC(=O)OC5)CCC34O",
        "Molecular Formula": "C<sub>23</sub>H<sub>32</sub>O<sub>6</sub>",
        "Molecular Mass": "404.50",
        "Melting Point": "173 °C (decomp)"
    }
}