{
    "cas_no": "102-98-7",
    "key_name": "Phenylmercuric borate",
    "cn_name": "硼酸苯汞;硼酸苯汞;",
    "alternate_name": "Mercurate(2-), [orthoborato(3-)-κ<em>O</em>]phenyl-, hydrogen (1:2);Mercury, (dihydrogen orthoborato)phenyl-;Phenylmercury borate;Mercurate(2-), [orthoborato(3-)-<em>O</em>]phenyl-, dihydrogen;Mercury, (dihydrogen borato)phenyl-;Mercurate(2-), [orthoborato(3-)-κ<em>O</em>]phenyl-, dihydrogen;Boric acid (H<sub>3</sub>BO<sub>3</sub>), mercury complex;Famosept;Merfen;Metasol BT;Phenylmercuric borate;PMB;Fenosept;Phenylmercuriborate;Merphen;Ryfen;Spidox;Spidoxol;Formasept;Exomycol gel;NSC 163948",
    "duplicated_cas_no": "24425-43-2;62050-76-4;92473-75-1;854874-41-2",
    "SMILES": "[Hg+2]([O-]B([O-])[O-])[C-]=1C=CC=CC1.[H+]",
    "meta_data": {
        "InChI": "InChI=1S/C6H5.BO3.Hg/c1-2-4-6-5-3-1;2-1(3)4;/h1-5H;;/q-1;-3;+2/p+2",
        "InChIKey": null,
        "Canonical SMILES": "[H+].[O-]B([O-])[O-][Hg+2][C-]=1C=CC=CC1",
        "Molecular Formula": "C<sub>6</sub>H<sub>5</sub>BHgO<sub>3</sub>.2H",
        "Molecular Mass": "",
        "Melting Point": "112.5 °C"
    }
}