{
    "cas_no": "111-96-6",
    "key_name": "Diglyme",
    "cn_name": "二乙二醇二甲醚;二甘醇二甲醚;双(2-甲氧基乙基)醚;",
    "alternate_name": "Ethane, 1,1′-oxybis[2-methoxy-;Ether, bis(2-methoxyethyl);1,1′-Oxybis[2-methoxyethane];Diethylene glycol dimethyl ether;Diglyme;Poly-Solv;2,5,8-Trioxanonane;Bis(2-methoxyethyl) ether;Glyme 2;2-(2-Methoxyethoxy)-1-methoxyethane;Dimethyl carbitol;(2-Methoxyethyl) ether;Ethanol, 2,2′-oxybis-, dimethyl ether;Methyl diglyme;Di(2-methoxyethyl) ether;Glyme 3;Dimethyl digol;Hisolve MDM;Ansul Ether 141;NSC 59726;1,5-Dimethoxy-3-oxapentane;1-(2-Methoxyethoxy)-2-methoxyethane;DMDG;B 0498;1-Methoxy-2-(2-methoxyethoxy)ethane",
    "duplicated_cas_no": "142939-39-7;54631-70-8;70992-86-8",
    "SMILES": "O(CCOC)CCOC",
    "meta_data": {
        "InChI": "InChI=1S/C6H14O3/c1-7-3-5-9-6-4-8-2/h3-6H2,1-2H3",
        "InChIKey": null,
        "Canonical SMILES": "O(C)CCOCCOC",
        "Molecular Formula": "C<sub>6</sub>H<sub>14</sub>O<sub>3</sub>",
        "Molecular Mass": "134.17",
        "Boiling Point": "162 °C @ Press: 760 Torr",
        "Melting Point": "-68 °C",
        "Density": "0.9451 g/cm³ @ Temp: 20 °C"
    }
}