{
    "cas_no": "1835-04-7",
    "key_name": "Propioveratrone",
    "cn_name": null,
    "alternate_name": "1-Propanone, 1-(3,4-dimethoxyphenyl)-;Propiophenone, 3′,4′-dimethoxy-;1-(3,4-Dimethoxyphenyl)-1-propanone;Propioveratrone;3,4-Dimethoxypropiophenone;3′,4′-Dimethoxypropiophenone;3,4-Dimethoxyphenyl ethyl ketone;Ethyl 3,4-dimethoxyphenyl ketone;NSC 16954;1,2-Dimethoxy-4-propionylbenzene",
    "duplicated_cas_no": "",
    "SMILES": "O(C)C1=C(OC)C=CC(C(CC)=O)=C1",
    "meta_data": {
        "InChI": "InChI=1S/C11H14O3/c1-4-9(12)8-5-6-10(13-2)11(7-8)14-3/h5-7H,4H2,1-3H3",
        "InChIKey": null,
        "Canonical SMILES": "O=C(C1=CC=C(OC)C(OC)=C1)CC",
        "Molecular Formula": "C<sub>11</sub>H<sub>14</sub>O<sub>3</sub>",
        "Molecular Mass": "194.23",
        "Boiling Point": "168-170 °C @ Press: 13 Torr",
        "Melting Point": "59-60 °C"
    }
}