{
    "cas_no": "968-93-4",
    "key_name": "Testolactone",
    "cn_name": "睾内酯酮;",
    "alternate_name": "2<em>H</em>-Phenanthro[2,1-<em>b</em>]pyran-2,8(4b<em>H</em>)-dione, 3,4,4a,5,6,10a,10b,11,12,12a-decahydro-10a,12a-dimethyl-, (4a<em>S</em>,4b<em>R</em>,10a<em>R</em>,10b<em>S</em>,12a<em>S</em>)-;13,17-Secoandrosta-1,4-dien-17-oic acid, 13-hydroxy-3-oxo-, δ-lactone;<em>D</em>-Homo-17a-oxaandrosta-1,4-diene-3,17-dione;Testololactone, 1-dehydro-;(4a<em>S</em>,4b<em>R</em>,10a<em>R</em>,10b<em>S</em>,12a<em>S</em>)-3,4,4a,5,6,10a,10b,11,12,12a-Decahydro-10a,12a-dimethyl-2<em>H</em>-phenanthro[2,1-<em>b</em>]pyran-2,8(4b<em>H</em>)-dione;SQ 9538;1-Dehydrotestololactone;1,2-Didehydrotestololactone;17a-Oxa-<em>D</em>-homo-1,4-androstadiene-3,17-dione;Teslac;Testolactone;Δ<sup>1</sup>-Testololactone;Δ<sup>1</sup>-Dehydrotestololactone;1,2-Dehydrotestololactone;Fludestrin;Teolit;Teslak;Testolacton;Δ<sup>1</sup>-Testolactone;2<em>H</em>-Phenanthro[2,1-<em>b</em>]pyran-2,8(4b<em>H</em>)-dione, 3,4,4a,5,6,10a,10b,11,12,12a-decahydro-10a,12a-dimethyl-, [4a<em>S</em>-(4aα,4bβ,10aβ,10bα,12aβ)]-;NSC 23759;MeSH ID: D013738",
    "duplicated_cas_no": "",
    "SMILES": "C[C@@]12[C@@]3([C@]([C@]4([C@](C)(CC3)OC(=O)CC4)[H])(CCC1=CC(=O)C=C2)[H])[H]",
    "meta_data": {
        "InChI": "InChI=1S/C19H24O3/c1-18-9-7-13(20)11-12(18)3-4-14-15(18)8-10-19(2)16(14)5-6-17(21)22-19/h7,9,11,14-16H,3-6,8,10H2,1-2H3/t14-,15+,16+,18+,19+/m1/s1",
        "InChIKey": null,
        "Canonical SMILES": "O=C1C=CC2(C(=C1)CCC3C2CCC4(OC(=O)CCC34)C)C",
        "Molecular Formula": "C<sub>19</sub>H<sub>24</sub>O<sub>3</sub>",
        "Molecular Mass": "300.39",
        "Melting Point": "218-219 °C"
    }
}