{
    "cas_no": "3637-10-3",
    "key_name": "1,4-Dihydroxy-2,2,6,6-tetramethylpiperidine",
    "cn_name": "1,4-二羟基-2,2,6,6-四甲基哌啶;",
    "alternate_name": "4-Piperidinol, 1-hydroxy-2,2,6,6-tetramethyl-;1-Hydroxy-2,2,6,6-tetramethyl-4-piperidinol;1,4-Dihydroxy-2,2,6,6-tetramethylpiperidine;TOLH;Tempol H;4-Hydroxy-2,2,6,6-tetramethyl-<em>N</em>-hydroxypiperidine;1-Hydroxy-2,2,6,6-tetramethyl-4-hydroxypiperidine;OT 674",
    "duplicated_cas_no": "87220-69-7",
    "SMILES": "ON1C(C)(C)CC(O)CC1(C)C",
    "meta_data": {
        "InChI": "InChI=1S/C9H19NO2/c1-8(2)5-7(11)6-9(3,4)10(8)12/h7,11-12H,5-6H2,1-4H3",
        "InChIKey": null,
        "Canonical SMILES": "ON1C(C)(C)CC(O)CC1(C)C",
        "Molecular Formula": "C<sub>9</sub>H<sub>19</sub>NO<sub>2</sub>",
        "Molecular Mass": "173.25",
        "Melting Point": "159 °C"
    }
}