{
    "cas_no": "1809-10-5",
    "key_name": "3-Bromopentane",
    "cn_name": "3-溴戊烷;3-溴代戊烷;3-溴戊烷(含约14%的2-溴己烷);3-溴戊烷,97%;",
    "alternate_name": "Pentane, 3-bromo-;3-Bromopentane;3-Pentyl bromide",
    "duplicated_cas_no": "",
    "SMILES": "C(CC)(CC)Br",
    "meta_data": {
        "InChI": "InChI=1S/C5H11Br/c1-3-5(6)4-2/h5H,3-4H2,1-2H3",
        "InChIKey": null,
        "Canonical SMILES": "BrC(CC)CC",
        "Molecular Formula": "C<sub>5</sub>H<sub>11</sub>Br",
        "Molecular Mass": "151.04",
        "Boiling Point": "118.6 °C",
        "Melting Point": "-126.2 °C",
        "Density": "1.2171 g/cm³ @ Temp: 20 °C"
    }
}