{
    "cas_no": "1551-27-5",
    "key_name": "2-Propylthiophene",
    "cn_name": "2-正丙基噻吩;2-丙基噻吩;2-正丙基噻吩;2-正丙基噻吩,97%;",
    "alternate_name": "Thiophene, 2-propyl-;2-Propylthiophene;2-<em>n</em>-Propylthiophene;NSC 82326",
    "duplicated_cas_no": "",
    "SMILES": "C(CC)C1=CC=CS1",
    "meta_data": {
        "InChI": "InChI=1S/C7H10S/c1-2-4-7-5-3-6-8-7/h3,5-6H,2,4H2,1H3",
        "InChIKey": null,
        "Canonical SMILES": "S1C=CC=C1CCC",
        "Molecular Formula": "C<sub>7</sub>H<sub>10</sub>S",
        "Molecular Mass": "126.22",
        "Boiling Point": "158 °C",
        "Density": "0.9683 g/cm³ @ Temp: 20 °C"
    }
}