{
    "cas_no": "25717-80-0",
    "key_name": "Molsidomine",
    "cn_name": "吗多明;脉导敏;吗导敏;",
    "alternate_name": "1,2,3-Oxadiazolium, 5-[(ethoxycarbonyl)amino]-3-(4-morpholinyl)-, inner salt;Sydnone imine, <em>N</em>-carboxy-3-morpholino-, ethyl ester;Sydnone imine, <em>N</em>-(ethoxycarbonyl)-3-(4-morpholinyl)-;<em>N</em>-Ethoxycarbonyl-3-morpholinosydnonimine;<em>N</em>-(Ethoxycarbonyl)-3-morpholinosydnone imine;Molsidomine;Morial;Corvaton;SIN 10;SIN 10 (pharmaceutical);Sydnopharm;Corraton;Morsydomine;Corvasal;Molsidolat;CAS 276;Motazomin;Coruno;Molsicor",
    "duplicated_cas_no": "625821-16-1;2125492-39-7",
    "SMILES": "[N-](C(OCC)=O)C1=C[N+](=NO1)N2CCOCC2",
    "meta_data": {
        "InChI": "InChI=1S/C9H14N4O4/c1-2-16-9(14)10-8-7-13(11-17-8)12-3-5-15-6-4-12/h7H,2-6H2,1H3",
        "InChIKey": null,
        "Canonical SMILES": "O=C([N-]C=1ON=[N+](C1)N2CCOCC2)OCC",
        "Molecular Formula": "C<sub>9</sub>H<sub>14</sub>N<sub>4</sub>O<sub>4</sub>",
        "Molecular Mass": "",
        "Melting Point": "140.5 °C"
    }
}