{
    "cas_no": "23074-42-2",
    "key_name": "1-Cyanoadamantane",
    "cn_name": "1-氰基金刚烷;金刚烷-1-甲腈;",
    "alternate_name": "Tricyclo[3.3.1.1<sup>3,7</sup>]decane-1-carbonitrile;1-Adamantanecarbonitrile;1-Adamantylnitrile;1-Cyanoadamantane;1-Adamantyl cyanide;1-Adamantane carboxylic acid nitrile;NSC 137842",
    "duplicated_cas_no": "",
    "SMILES": "C(#N)C12CC3CC(C1)CC(C2)C3",
    "meta_data": {
        "InChI": "InChI=1S/C11H15N/c12-7-11-4-8-1-9(5-11)3-10(2-8)6-11/h8-10H,1-6H2",
        "InChIKey": null,
        "Canonical SMILES": "N#CC12CC3CC(CC(C3)C1)C2",
        "Molecular Formula": "C<sub>11</sub>H<sub>15</sub>N",
        "Molecular Mass": "161.24",
        "Melting Point": "184-187 °C"
    }
}