{
    "cas_no": "21422-04-8",
    "key_name": "Demethylsuberosin",
    "cn_name": null,
    "alternate_name": "2<em>H</em>-1-Benzopyran-2-one, 7-hydroxy-6-(3-methyl-2-buten-1-yl)-;Coumarin, 7-hydroxy-6-(3-methyl-2-butenyl)-;2<em>H</em>-1-Benzopyran-2-one, 7-hydroxy-6-(3-methyl-2-butenyl)-;7-Hydroxy-6-(3-methyl-2-buten-1-yl)-2<em>H</em>-1-benzopyran-2-one;7-Demethylsuberosin;6-(Dimethylallyl)umbelliferone;Demethylsuberosin",
    "duplicated_cas_no": "",
    "SMILES": "C(C=C(C)C)C=1C=C2C(=CC1O)OC(=O)C=C2",
    "meta_data": {
        "InChI": "InChI=1S/C14H14O3/c1-9(2)3-4-10-7-11-5-6-14(16)17-13(11)8-12(10)15/h3,5-8,15H,4H2,1-2H3",
        "InChIKey": null,
        "Canonical SMILES": "O=C1OC=2C=C(O)C(=CC2C=C1)CC=C(C)C",
        "Molecular Formula": "C<sub>14</sub>H<sub>14</sub>O<sub>3</sub>",
        "Molecular Mass": "230.26",
        "Melting Point": "133.5-134.0 °C"
    }
}