{
    "cas_no": "444579-42-4",
    "key_name": "Tributyl(4-hexylthiophen-2-yl)stannane",
    "cn_name": null,
    "alternate_name": "Stannane, tributyl(4-hexyl-2-thienyl)-;Tributyl(4-hexyl-2-thienyl)stannane;5-(Tributylstannyl)-3-hexylthiophene;Tributyl(4-hexylthiophen-2-yl)stannane;3-Hexyl-5-(tributylstannyl)thiophene;2-(Tri-<em>n</em>-butylstannyl)-4-hexylthiophene;Tributyl(4-hexyl-thien-2-yl)stannane;(4-Hexyl-2-thienyl)(tributyl)stannane;4-Hexyl-2-tributylstannylthiophene",
    "duplicated_cas_no": "",
    "SMILES": "[Sn](CCCC)(CCCC)(CCCC)C1=CC(CCCCCC)=CS1",
    "meta_data": {
        "InChI": "InChI=1S/C10H15S.3C4H9.Sn/c1-2-3-4-5-6-10-7-8-11-9-10;3*1-3-4-2;/h7,9H,2-6H2,1H3;3*1,3-4H2,2H3;",
        "InChIKey": null,
        "Canonical SMILES": "S1C=C(C=C1[Sn](CCCC)(CCCC)CCCC)CCCCCC",
        "Molecular Formula": "C<sub>22</sub>H<sub>42</sub>SSn",
        "Molecular Mass": "457.34",
        "Boiling Point": "136-138 °C @ Press: 4 Torr"
    }
}