{
    "cas_no": "112575-13-0",
    "key_name": "6-Bromo-<em>N</em>,<em>N</em>-dimethyl-2-pyridinamine",
    "cn_name": null,
    "alternate_name": "2-Pyridinamine, 6-bromo-<em>N</em>,<em>N</em>-dimethyl-;6-Bromo-<em>N</em>,<em>N</em>-dimethyl-2-pyridinamine;6-Bromo-2-(dimethylamino)pyridine;(6-Bromopyridin-2-yl)dimethylamine;2-Bromo-6-(dimethylamino)pyridine",
    "duplicated_cas_no": "",
    "SMILES": "N(C)(C)C=1N=C(Br)C=CC1",
    "meta_data": {
        "InChI": "InChI=1S/C7H9BrN2/c1-10(2)7-5-3-4-6(8)9-7/h3-5H,1-2H3",
        "InChIKey": null,
        "Canonical SMILES": "BrC=1N=C(C=CC1)N(C)C",
        "Molecular Formula": "C<sub>7</sub>H<sub>9</sub>BrN<sub>2</sub>",
        "Molecular Mass": "201.06",
        "Melting Point": "56-57 °C"
    }
}