{
    "cas_no": "725-89-3",
    "key_name": "3,5-Bis(trifluoromethyl)benzoic acid",
    "cn_name": "3,5-双三氟甲基苯甲酸;",
    "alternate_name": "Benzoic acid, 3,5-bis(trifluoromethyl)-;3,5-Bis(trifluoromethyl)benzoic acid;NSC 88282;3,5-Di(trifluoromethyl)benzoic acid",
    "duplicated_cas_no": "",
    "SMILES": "C(F)(F)(F)C1=CC(C(F)(F)F)=CC(C(O)=O)=C1",
    "meta_data": {
        "InChI": "InChI=1S/C9H4F6O2/c10-8(11,12)5-1-4(7(16)17)2-6(3-5)9(13,14)15/h1-3H,(H,16,17)",
        "InChIKey": null,
        "Canonical SMILES": "O=C(O)C=1C=C(C=C(C1)C(F)(F)F)C(F)(F)F",
        "Molecular Formula": "C<sub>9</sub>H<sub>4</sub>F<sub>6</sub>O<sub>2</sub>",
        "Molecular Mass": "258.12",
        "Melting Point": "142-143 °C (sublm)"
    }
}