{
    "cas_no": "17196-12-2",
    "key_name": "Chlorodimethyl-7-octen-1-ylsilane",
    "cn_name": null,
    "alternate_name": "Silane, chlorodimethyl-7-octen-1-yl-;Silane, chlorodimethyl-7-octenyl-;Chlorodimethyl-7-octen-1-ylsilane;7-Octenyldimethylchlorosilane;Chlorodimethyl-7-octenylsilane;Chlorodimethyl(7-octen-1-yl)silane;Dimethyl(oct-7-en-1-yl)(chloro)silane",
    "duplicated_cas_no": "342046-56-4",
    "SMILES": "C(CCCCCC=C)[Si](C)(C)Cl",
    "meta_data": {
        "InChI": "InChI=1S/C10H21ClSi/c1-4-5-6-7-8-9-10-12(2,3)11/h4H,1,5-10H2,2-3H3",
        "InChIKey": null,
        "Canonical SMILES": "Cl[Si](C)(C)CCCCCCC=C",
        "Molecular Formula": "C<sub>10</sub>H<sub>21</sub>ClSi",
        "Molecular Mass": "204.81",
        "Boiling Point": "98 °C @ Press: 11 Torr",
        "Density": "0.800 g/cm³"
    }
}