{
    "cas_no": "14233-37-5",
    "key_name": "1,4-Bis[(1-methylethyl)amino]-9,10-anthracenedione",
    "cn_name": "溶剂蓝36;分散蓝134;",
    "alternate_name": "9,10-Anthracenedione, 1,4-bis[(1-methylethyl)amino]-;Anthraquinone, 1,4-bis(isopropylamino)-;1,4-Bis[(1-methylethyl)amino]-9,10-anthracenedione;1,4-Bis(isopropylamino)anthraquinone;Brilliant Oil Blue BGS;Duranol Blue PP;Waxoline Blue AP;C.I. Solvent Blue 36;Oil Blue A;C.I. Disperse Blue 134;Solvent Blue 36;Waxoline Blue AP-FW;Disperse Blue 134;Sumiplast Blue OA;C.I. 61551;Sublaprint Blue 70038;Blue AP-FW;1,4-Bis(<em>N</em>-isopropylamino)anthraquinone;NSC 58039;Orient Oil Blue 630;Oil Blue 630;Oplas Blue 630;Morplas Blue 1003;Unisol blue;1,4-Bis(propan-2-ylamino)anthracene-9,10-dione;Unisol Blue AS",
    "duplicated_cas_no": "12226-73-2;88651-81-4;89073-26-7",
    "SMILES": "N(C(C)C)C1=C2C(=C(NC(C)C)C=C1)C(=O)C=3C(C2=O)=CC=CC3",
    "meta_data": {
        "InChI": "InChI=1S/C20H22N2O2/c1-11(2)21-15-9-10-16(22-12(3)4)18-17(15)19(23)13-7-5-6-8-14(13)20(18)24/h5-12,21-22H,1-4H3",
        "InChIKey": null,
        "Canonical SMILES": "O=C1C=2C=CC=CC2C(=O)C=3C(=CC=C(NC(C)C)C13)NC(C)C",
        "Molecular Formula": "C<sub>20</sub>H<sub>22</sub>N<sub>2</sub>O<sub>2</sub>",
        "Molecular Mass": "322.40",
        "Melting Point": "176-178 °C",
        "Density": "1.165 g/cm³"
    }
}