{
    "cas_no": "6342-77-4",
    "key_name": "3-(2-Methoxyphenyl)propionic acid",
    "cn_name": null,
    "alternate_name": "Benzenepropanoic acid, 2-methoxy-;Hydrocinnamic acid, <em>o</em>-methoxy-;2-Methoxybenzenepropanoic acid;2-Methoxydihydrocinnamic acid;<em>o</em>-Methoxybenzenepropionic acid;<em>o</em>-Methoxydihydrocinnamic acid;3-(2-Methoxyphenyl)propionic acid;Guaiacylpropionic acid;3-(<em>o</em>-Methoxyphenyl)propionic acid;3-(2-Methoxyphenyl)propanoic acid;NSC 46646;3-[2-(Methyloxy)phenyl]propanoic acid",
    "duplicated_cas_no": "",
    "SMILES": "C(CC(O)=O)C1=C(OC)C=CC=C1",
    "meta_data": {
        "InChI": "InChI=1S/C10H12O3/c1-13-9-5-3-2-4-8(9)6-7-10(11)12/h2-5H,6-7H2,1H3,(H,11,12)",
        "InChIKey": null,
        "Canonical SMILES": "O=C(O)CCC=1C=CC=CC1OC",
        "Molecular Formula": "C<sub>10</sub>H<sub>12</sub>O<sub>3</sub>",
        "Molecular Mass": "180.20",
        "Melting Point": "90 °C"
    }
}