{
    "cas_no": "50816-20-1",
    "key_name": "2-[(8-Bromooctyl)oxy]tetrahydro-2<em>H</em>-pyran",
    "cn_name": "1-溴-8-(四氢吡喃氧基)辛烷;",
    "alternate_name": "2<em>H</em>-Pyran, 2-[(8-bromooctyl)oxy]tetrahydro-;2-[(8-Bromooctyl)oxy]tetrahydro-2<em>H</em>-pyran;2-[(8-Bromooctyl)oxy]tetrahydropyran;8-Bromo-1-[(tetrahydropyran-2-yl)oxy]octane;8-(Tetrahydropyranyloxy)octyl bromide;1-(2-Tetrahydropyranyloxy)-8-bromooctane;1-Bromo-8-(tetrahydro-2-pyranyloxy)octane;8-Bromo-1-octanol tetrahydropyranyl ether;2-(8-Bromooctoxy)oxane;2<em>H</em>-Pyran, 2-(8-bromooctyl)tetrahydro-",
    "duplicated_cas_no": "112999-83-4;2922273-78-5",
    "SMILES": "O(CCCCCCCCBr)C1CCCCO1",
    "meta_data": {
        "InChI": "InChI=1S/C13H25BrO2/c14-10-6-3-1-2-4-7-11-15-13-9-5-8-12-16-13/h13H,1-12H2",
        "InChIKey": null,
        "Canonical SMILES": "BrCCCCCCCCOC1OCCCC1",
        "Molecular Formula": "C<sub>13</sub>H<sub>25</sub>BrO<sub>2</sub>",
        "Molecular Mass": "293.24",
        "Boiling Point": "105-107 °C @ Press: 0.1 Torr"
    }
}