{
    "cas_no": "5453-80-5",
    "key_name": "Bicyclo[2.2.1]hept-5-ene-2-carboxaldehyde",
    "cn_name": "5-降冰片烯-2-甲醛;双环[2.2.1]庚-5-烯-2-甲醛;",
    "alternate_name": "Bicyclo[2.2.1]hept-5-ene-2-carboxaldehyde;5-Norbornene-2-carboxaldehyde;2,5-Endomethylene-1,2,5,6-tetrahydrobenzaldehyde;Bicyclo[2.2.1]hept-2-ene-5-carboxaldehyde;Bicyclo[2.2.1]hept-2-enyl-5-carboxaldehyde;2-Norbornene-5-carboxaldehyde;5-Formyl-2-norbornene;5-Norbornene-2-carbaldehyde;2-Formylbicyclo[2.2.1]hept-5-ene;NSC 18897",
    "duplicated_cas_no": "",
    "SMILES": "C(=O)C1C2CC(C1)C=C2",
    "meta_data": {
        "InChI": "InChI=1S/C8H10O/c9-5-8-4-6-1-2-7(8)3-6/h1-2,5-8H,3-4H2",
        "InChIKey": null,
        "Canonical SMILES": "O=CC1CC2C=CC1C2",
        "Molecular Formula": "C<sub>8</sub>H<sub>10</sub>O",
        "Molecular Mass": "122.16",
        "Boiling Point": "70-72 °C @ Press: 620 Torr"
    }
}