{
    "cas_no": "13139-12-3",
    "key_name": "Carbonic acid, 1,1-dimethylethyl 2,5-dioxo-1-pyrrolidinyl ester",
    "cn_name": null,
    "alternate_name": "Carbonic acid, 1,1-dimethylethyl 2,5-dioxo-1-pyrrolidinyl ester;Succinimide, <em>N</em>-(carboxyoxy)-, <em>tert</em>-butyl ester;2,5-Pyrrolidinedione, 1-[[(1,1-dimethylethoxy)carbonyl]oxy]-;Carbonic acid, mono-<em>tert</em>-butyl ester, succinimido deriv.;<em>tert</em>-Butyl succinimidyl carbonate;<em>N</em>-(<em>tert</em>-Butoxycarbonyloxy)succinimide;1-[(<em>tert</em>-Butoxycarbonyl)oxy]pyrrolidine-2,5-dione",
    "duplicated_cas_no": "",
    "SMILES": "O(C(OC(C)(C)C)=O)N1C(=O)CCC1=O",
    "meta_data": {
        "InChI": "InChI=1S/C9H13NO5/c1-9(2,3)14-8(13)15-10-6(11)4-5-7(10)12/h4-5H2,1-3H3",
        "InChIKey": null,
        "Canonical SMILES": "O=C(ON1C(=O)CCC1=O)OC(C)(C)C",
        "Molecular Formula": "C<sub>9</sub>H<sub>13</sub>NO<sub>5</sub>",
        "Molecular Mass": "215.20",
        "Melting Point": "98-100 °C"
    }
}