{
    "cas_no": "2285-12-3",
    "key_name": "2-(Trifluoromethyl)phenyl isocyanate",
    "cn_name": "2-(三氟甲基)苯基异氰酸酯;",
    "alternate_name": "Benzene, 1-isocyanato-2-(trifluoromethyl)-;Isocyanic acid, α,α,α-trifluoro-<em>o</em>-tolyl ester;1-Isocyanato-2-(trifluoromethyl)benzene;2-(Trifluoromethyl)phenyl isocyanate;<em>o</em>-(Trifluoromethyl)phenyl isocyanate;α,α,α-Trifluoro-<em>o</em>-tolyl isocyanate",
    "duplicated_cas_no": "",
    "SMILES": "C(F)(F)(F)C1=C(N=C=O)C=CC=C1",
    "meta_data": {
        "InChI": "InChI=1S/C8H4F3NO/c9-8(10,11)6-3-1-2-4-7(6)12-5-13/h1-4H",
        "InChIKey": null,
        "Canonical SMILES": "O=C=NC=1C=CC=CC1C(F)(F)F",
        "Molecular Formula": "C<sub>8</sub>H<sub>4</sub>F<sub>3</sub>NO",
        "Molecular Mass": "187.12",
        "Boiling Point": "70-72 °C @ Press: 20 Torr"
    }
}