{
    "cas_no": "22316-47-8",
    "key_name": "Clobazam",
    "cn_name": null,
    "alternate_name": "1<em>H</em>-1,5-Benzodiazepine-2,4(3<em>H</em>,5<em>H</em>)-dione, 7-chloro-1-methyl-5-phenyl-;7-Chloro-1-methyl-5-phenyl-1<em>H</em>-1,5-benzodiazepine-2,4(3<em>H</em>,5<em>H</em>)-dione;Clobazam;HR 376;Frisium;Urbanyl;Mystan;Frizium;Urbadan;H 4723;LM 2717;NSC 336279;Clobazepam;7-Chloro-1,5-dihydro-1-methyl-5-phenyl-1,5-benzodiazepine-2,4(3<em>H</em>)-dione;7-chloro-1-methyl-5-phenyl-1 H-1,5-benzodiazepine-2,4(3H,5H)-dione;Onfi",
    "duplicated_cas_no": "",
    "SMILES": "O=C1N(C=2C(N(C)C(=O)C1)=CC=C(Cl)C2)C3=CC=CC=C3",
    "meta_data": {
        "InChI": "InChI=1S/C16H13ClN2O2/c1-18-13-8-7-11(17)9-14(13)19(16(21)10-15(18)20)12-5-3-2-4-6-12/h2-9H,10H2,1H3",
        "InChIKey": null,
        "Canonical SMILES": "O=C1N(C=2C=CC=CC2)C3=CC(Cl)=CC=C3N(C(=O)C1)C",
        "Molecular Formula": "C<sub>16</sub>H<sub>13</sub>ClN<sub>2</sub>O<sub>2</sub>",
        "Molecular Mass": "300.74",
        "Melting Point": "166-168 °C"
    }
}