{
    "cas_no": "348-40-3",
    "key_name": "2-Amino-6-fluorobenzothiazole",
    "cn_name": "2-氨基-6-氟苯并噻唑;",
    "alternate_name": "2-Benzothiazolamine, 6-fluoro-;Benzothiazole, 2-amino-6-fluoro-;6-Fluoro-2-benzothiazolamine;2-Amino-6-fluorobenzothiazole;6-Fluoro-2-aminobenzothiazole;6-Fluoro-1,3-benzothiazol-2-ylamine;6-Fluorobenzothiazol-2-ylamine;2-Amino-6-fluoro-1,3-benzothiazole;NSC 266095;6-Fluorobenzothiazol-2-amine;SKA 18;6-Fluoro-1,3-benzothiazol-2-amine;6-Fluorobenzo[<em>d</em>]thiazol-2-amine",
    "duplicated_cas_no": "",
    "SMILES": "NC1=NC=2C(S1)=CC(F)=CC2",
    "meta_data": {
        "InChI": "InChI=1S/C7H5FN2S/c8-4-1-2-5-6(3-4)11-7(9)10-5/h1-3H,(H2,9,10)",
        "InChIKey": null,
        "Canonical SMILES": "FC=1C=CC=2N=C(SC2C1)N",
        "Molecular Formula": "C<sub>7</sub>H<sub>5</sub>FN<sub>2</sub>S",
        "Molecular Mass": "168.19",
        "Melting Point": "183 °C"
    }
}