{
    "cas_no": "1255580-76-7",
    "key_name": "2-Cyclohexyl-6-methoxy-<em>N</em>-[1-(1-methylethyl)-4-piperidinyl]-7-[3-(1-pyrrolidinyl)propoxy]-4-quinazolinamine",
    "cn_name": null,
    "alternate_name": "4-Quinazolinamine, 2-cyclohexyl-6-methoxy-<em>N</em>-[1-(1-methylethyl)-4-piperidinyl]-7-[3-(1-pyrrolidinyl)propoxy]-;2-Cyclohexyl-6-methoxy-<em>N</em>-[1-(1-methylethyl)-4-piperidinyl]-7-[3-(1-pyrrolidinyl)propoxy]-4-quinazolinamine;UNC 0638;2-Cyclohexyl-<em>N</em>-(1-isopropylpiperidin-4-yl)-6-methoxy-7-(3-(pyrrolidin-1-yl)propoxy) quinazolin-4-amine;2-Cyclohexyl-6-methoxy-<em>N</em>-(1-propan-2-ylpiperidin-4-yl)-7-(3-pyrrolidin-1-ylpropoxy)quinazolin-4-amine",
    "duplicated_cas_no": "1846605-01-3",
    "SMILES": "N(C=1C2=C(N=C(N1)C3CCCCC3)C=C(OCCCN4CCCC4)C(OC)=C2)C5CCN(C(C)C)CC5",
    "meta_data": {
        "InChI": "InChI=1S/C30H47N5O2/c1-22(2)35-17-12-24(13-18-35)31-30-25-20-27(36-3)28(37-19-9-16-34-14-7-8-15-34)21-26(25)32-29(33-30)23-10-5-4-6-11-23/h20-24H,4-19H2,1-3H3,(H,31,32,33)",
        "InChIKey": null,
        "Canonical SMILES": "N=1C=2C=C(OCCCN3CCCC3)C(OC)=CC2C(=NC1C4CCCCC4)NC5CCN(CC5)C(C)C",
        "Molecular Formula": "C<sub>30</sub>H<sub>47</sub>N<sub>5</sub>O<sub>2</sub>",
        "Molecular Mass": "509.73",
        "Melting Point": "93-94 °C"
    }
}