{
    "cas_no": "4387-36-4",
    "key_name": "2-Iodobenzonitrile",
    "cn_name": "2-碘氰基苯;2-碘苯腈;邻碘苯腈;",
    "alternate_name": "Benzonitrile, 2-iodo-;Benzonitrile, <em>o</em>-iodo-;2-Iodobenzonitrile;<em>o</em>-Iodobenzonitrile;2-Iodophenyl cyanide;<em>o</em>-Cyanophenyl iodide;2-Cyanophenyl iodide;1-Cyano-2-iodobenzene",
    "duplicated_cas_no": "",
    "SMILES": "C(#N)C1=C(I)C=CC=C1",
    "meta_data": {
        "InChI": "InChI=1S/C7H4IN/c8-7-4-2-1-3-6(7)5-9/h1-4H",
        "InChIKey": null,
        "Canonical SMILES": "N#CC=1C=CC=CC1I",
        "Molecular Formula": "C<sub>7</sub>H<sub>4</sub>IN",
        "Molecular Mass": "229.02",
        "Melting Point": "54-55 °C"
    }
}