{
    "cas_no": "60168-88-9",
    "key_name": "Fenarimol",
    "cn_name": "氯苯嘧啶醇;2,4\"-二氯-alpha-(嘧啶-5-基)二苯基甲醇;",
    "alternate_name": "5-Pyrimidinemethanol, α-(2-chlorophenyl)-α-(4-chlorophenyl)-;α-(2-Chlorophenyl)-α-(4-chlorophenyl)-5-pyrimidinemethanol;Fenarimol;EL 222;Rubigan;Fenari;Rubigan SC;(±)-Fenarimol",
    "duplicated_cas_no": "162707-16-6;1135442-57-7",
    "SMILES": "C(O)(C1=C(Cl)C=CC=C1)(C2=CC=C(Cl)C=C2)C=3C=NC=NC3",
    "meta_data": {
        "InChI": "InChI=1S/C17H12Cl2N2O/c18-14-7-5-12(6-8-14)17(22,13-9-20-11-21-10-13)15-3-1-2-4-16(15)19/h1-11,22H",
        "InChIKey": null,
        "Canonical SMILES": "ClC1=CC=C(C=C1)C(O)(C=2C=NC=NC2)C=3C=CC=CC3Cl",
        "Molecular Formula": "C<sub>17</sub>H<sub>12</sub>Cl<sub>2</sub>N<sub>2</sub>O",
        "Molecular Mass": "331.20",
        "Melting Point": "118 °C",
        "Density": "1.40 g/cm³"
    }
}