{
    "cas_no": "3405-45-6",
    "key_name": "<em>N</em>-Butyl-<em>N</em>-methyl-1-butanamine",
    "cn_name": "甲基二丁基胺;二丁基甲胺;",
    "alternate_name": "1-Butanamine, <em>N</em>-butyl-<em>N</em>-methyl-;Dibutylamine, <em>N</em>-methyl-;<em>N</em>-Butyl-<em>N</em>-methyl-1-butanamine;<em>N</em>,<em>N</em>-Dibutylmethylamine;Methyldibutylamine;Methanamine, <em>N</em>,<em>N</em>-dibutyl-;<em>N</em>-Methyldibutylamine;Dibutylmethylamine;<em>N</em>,<em>N</em>-Dibutyl-<em>N</em>-methylamine",
    "duplicated_cas_no": "",
    "SMILES": "N(CCCC)(CCCC)C",
    "meta_data": {
        "InChI": "InChI=1S/C9H21N/c1-4-6-8-10(3)9-7-5-2/h4-9H2,1-3H3",
        "InChIKey": null,
        "Canonical SMILES": "N(C)(CCCC)CCCC",
        "Molecular Formula": "C<sub>9</sub>H<sub>21</sub>N",
        "Molecular Mass": "143.27",
        "Boiling Point": "155-163 °C",
        "Density": "0.782 g/cm³ @ Temp: 20 °C"
    }
}