{
    "cas_no": "6261-22-9",
    "key_name": "2-Pentyn-1-ol",
    "cn_name": "2-戊炔-1-醇;",
    "alternate_name": "2-Pentyn-1-ol;2-Pentynol;2-Pentynyl alcohol",
    "duplicated_cas_no": "",
    "SMILES": "C(#CCO)CC",
    "meta_data": {
        "InChI": "InChI=1S/C5H8O/c1-2-3-4-5-6/h6H,2,5H2,1H3",
        "InChIKey": null,
        "Canonical SMILES": "OCC#CCC",
        "Molecular Formula": "C<sub>5</sub>H<sub>8</sub>O",
        "Molecular Mass": "84.12",
        "Boiling Point": "154.0-154.2 °C",
        "Density": "0.9091 g/cm³ @ Temp: 20 °C"
    }
}