{
    "cas_no": "18328-90-0",
    "key_name": "<em>N</em>-Ethyl-2-methylallylamine",
    "cn_name": "N-乙基甲基丙烯胺;N-乙基-2-甲基-2-丙烯基-1-胺;",
    "alternate_name": "2-Propen-1-amine, <em>N</em>-ethyl-2-methyl-;Allylamine, <em>N</em>-ethyl-2-methyl-;<em>N</em>-Ethyl-2-methyl-2-propen-1-amine;<em>N</em>-Ethyl-2-methylallylamine;<em>N</em>-Ethylmethallylamine;<em>N</em>-2-Methylallyl-<em>N</em>-ethylamine;<em>N</em>-Ethyl(2-methyl-2-propenyl)amine",
    "duplicated_cas_no": "1902155-94-5",
    "SMILES": "C(C(C)=C)NCC",
    "meta_data": {
        "InChI": "InChI=1S/C6H13N/c1-4-7-5-6(2)3/h7H,2,4-5H2,1,3H3",
        "InChIKey": null,
        "Canonical SMILES": "C=C(C)CNCC",
        "Molecular Formula": "C<sub>6</sub>H<sub>13</sub>N",
        "Molecular Mass": "99.17",
        "Boiling Point": "102 °C"
    }
}