{
    "cas_no": "534-64-5",
    "key_name": "Pyridinium, 1-[(4-amino-2-methyl-5-pyrimidinyl)methyl]-3-(2-hydroxyethyl)-2-methyl-, bromide, hydrobromide (1:1:1)",
    "cn_name": null,
    "alternate_name": "Pyridinium, 1-[(4-amino-2-methyl-5-pyrimidinyl)methyl]-3-(2-hydroxyethyl)-2-methyl-, bromide, hydrobromide (1:1:1);2-Picolinium, 1-[(4-amino-2-methyl-5-pyrimidinyl)methyl]-3-(2-hydroxyethyl)-, bromide, monohydrobromide;Pyridinium, 1-[(4-amino-2-methyl-5-pyrimidinyl)methyl]-3-(2-hydroxyethyl)-2-methyl-, bromide, monohydrobromide;Neopyrithiamine;Pyrithiamine;Pyrithiamine hydrobromide;Pyrithiamine bromide hydrobromide;Pyrithiamin;Pyrithiamin hydrobromide;MeSH ID: D011745",
    "duplicated_cas_no": "2964-31-0",
    "SMILES": "C([N+]=1C(C)=C(CCO)C=CC1)C=2C(N)=NC(C)=NC2.[Br-].Br",
    "meta_data": {
        "InChI": "InChI=1S/C14H19N4O.2BrH/c1-10-12(5-7-19)4-3-6-18(10)9-13-8-16-11(2)17-14(13)15;;/h3-4,6,8,19H,5,7,9H2,1-2H3,(H2,15,16,17);2*1H/q+1;;/p-1",
        "InChIKey": null,
        "Canonical SMILES": "[Br-].Br.OCCC1=CC=C[N+](=C1C)CC2=CN=C(N=C2N)C",
        "Molecular Formula": "C<sub>14</sub>H<sub>19</sub>N<sub>4</sub>O.BrH.Br",
        "Molecular Mass": "",
        "Melting Point": "247 °C"
    }
}