{
    "cas_no": "33171-05-0",
    "key_name": "Bisdemethoxycurcumin",
    "cn_name": null,
    "alternate_name": "1,6-Heptadiene-3,5-dione, 1,7-bis(4-hydroxyphenyl)-, (1<em>E</em>,6<em>E</em>)-;1,6-Heptadiene-3,5-dione, 1,7-bis(<em>p</em>-hydroxyphenyl)-, (<em>E</em>,<em>E</em>)-;(1<em>E</em>,6<em>E</em>)-1,7-Bis(4-hydroxyphenyl)-1,6-heptadiene-3,5-dione;Bisdemethoxycurcumin;Curcumin III;Didemethoxycurcumin;Bisdesmethoxycurcumin;(1<em>E</em>,6<em>E</em>)-Bis(demethoxy)curcumin",
    "duplicated_cas_no": "104024-29-5;22608-12-4;85801-92-9;91884-88-7",
    "SMILES": "C(=C/C(CC(/C=C/C1=CC=C(O)C=C1)=O)=O)\\C2=CC=C(O)C=C2",
    "meta_data": {
        "InChI": "InChI=1S/C19H16O4/c20-16-7-1-14(2-8-16)5-11-18(22)13-19(23)12-6-15-3-9-17(21)10-4-15/h1-12,20-21H,13H2/b11-5+,12-6+",
        "InChIKey": null,
        "Canonical SMILES": "O=C(C=CC1=CC=C(O)C=C1)CC(=O)C=CC2=CC=C(O)C=C2",
        "Molecular Formula": "C<sub>19</sub>H<sub>16</sub>O<sub>4</sub>",
        "Molecular Mass": "308.33",
        "Melting Point": "224 °C"
    }
}