{
    "cas_no": "7147-89-9",
    "key_name": "4-Chloro-5-methyl-2-nitrophenol",
    "cn_name": "4-氯-3-甲基-6-硝基苯酚; 4-氯-5-甲基-2-硝基苯酚;",
    "alternate_name": "Phenol, 4-chloro-5-methyl-2-nitro-;<em>m</em>-Cresol, 4-chloro-6-nitro-;4-Chloro-5-methyl-2-nitrophenol;4-Chloro-3-methyl-6-nitrophenol;4-Chloro-6-nitro-<em>m</em>-cresol;4-Chloro-6-nitro-3-methylphenol;NSC 28451;4-Chloro-6-nitro-3-cresol",
    "duplicated_cas_no": "",
    "SMILES": "N(=O)(=O)C1=C(O)C=C(C)C(Cl)=C1",
    "meta_data": {
        "InChI": "InChI=1S/C7H6ClNO3/c1-4-2-7(10)6(9(11)12)3-5(4)8/h2-3,10H,1H3",
        "InChIKey": null,
        "Canonical SMILES": "O=N(=O)C1=CC(Cl)=C(C=C1O)C",
        "Molecular Formula": "C<sub>7</sub>H<sub>6</sub>ClNO<sub>3</sub>",
        "Molecular Mass": "187.58",
        "Melting Point": "133 °C"
    }
}