{
    "cas_no": "2896-70-0",
    "key_name": "Tempone",
    "cn_name": "4-氧-2,2,6,6-四甲基哌啶-1-氧自由基;4-羰基-TEMPO;",
    "alternate_name": "1-Piperidinyloxy, 2,2,6,6-tetramethyl-4-oxo-;Piperidinooxy, 2,2,6,6-tetramethyl-4-oxo-;2,2,6,6-Tetramethyl-4-oxo-1-piperidinyloxy;Tetramethyl-2,2,6,6-aza-1-cyclohexanone-4-oxide-1;2,2,6,6-Tetramethyl-4-piperidone nitroxide;2,2,6,6-Tetramethyl-4-piperidone 1-nitroxide;Triacetoneamine <em>N</em>-oxyl;TAN (radical);Triacetoneamine nitroxide;2,2,6,6-Tetramethylpiperid-4-one-1-oxyl;2,2,6,6-Tetramethyl-4-piperidone <em>N</em>-oxide;2,2,6,6-Tetramethyl-4-piperidone-<em>N</em>-oxy;Tanone;Tanone radical;2,2,6,6-Tetramethyl-4-oxopiperidinooxy;2,2,6,6-Tetramethyl-4-piperidone-<em>N</em>-oxyl;2,2,6,6-Tetramethyl-4-oxopiperidin-1-oxyl;2,2,6,6-Tetramethyl-4-oxo-1-piperidinooxy;2,2,6,6-Tetramethyl-4-oxopiperidine-1-oxyl;2,2,6,6-Tetramethyl-4-oxopiperidin-1-oxyl radical;2,2,6,6-Tetramethyl-4-oxo-1-piperidinyloxyl;Tempone;4-Oxo-2,2,6,6-tetramethylpiperidinooxy;2,2′,6,6′-Tetramethyl-4-oxopiperidine-1-oxyl;1-Oxyl-2,2,6,6-tetramethyl-4-piperidone;TANO;4-Oxo-2,2,6,6-tetramethylpiperidinooxyl;2,2,6,6-Tetramethyl-4-oxypiperidin-1-oxyl;4-Oxo-2,2,6,6-tetramethylpiperidino-<em>N</em>-oxyl;4-Oxo-2,2,6,6-tetramethylpiperidine-1-oxyl;4-Oxo-2,2,6,6-tetramethyl-1-piperidinoxyl;4-Oxo-2,2,6,6-tetramethylpiperidinyl-1-oxy;OTEMPO;2,2,6,6-Tetramethyl-4-oxopiperidine-1-oxyl radical;4-Oxo-2,2,6,6-tetramethylpiperidinoxyl;2,2,6,6-Tetramethyl-4-piperidinone-1-oxyl;2,2,6,6-Tetramethyl-4-piperidon-1-oxyl;4-Oxo-2,2,6,6-tetramethylpiperidino-1-oxy;4-Oxo-2,2,6,6-tetramethylpiperidine-<em>N</em>-oxyl;4-Oxo-TEMPO;2,2,6,6-Tetramethyl-4-oxo-piperydin-1-oxyl;4-Oxo-2,2,6,6-tetramethylpiperidinyloxy;TAN;1-Oxyl-2,2,6,6-tetramethylpiperidin-4-one;2,2,6,6-Tetramethyl-4-piperidinone oxide;1-Oxyl-2,2,6,6-tetramethyl-4-oxopiperidine;Nitroxyl 1;4-Oxo-2,2,6,6-tetramethylpiperidin-1-yl oxide;702",
    "duplicated_cas_no": "26841-66-7;70939-26-3;1169497-70-4;1818888-13-9;2325667-65-8",
    "SMILES": "",
    "meta_data": {
        "InChI": "",
        "InChIKey": null,
        "Canonical SMILES": "",
        "Molecular Formula": "C<sub>9</sub>H<sub>16</sub>NO<sub>2</sub>",
        "Molecular Mass": "",
        "Melting Point": "36 °C"
    }
}