{
    "cas_no": "4460-86-0",
    "key_name": "2,4,5-Trimethoxybenzaldehyde",
    "cn_name": "2,4,5-三甲氧基苯甲醛;",
    "alternate_name": "Benzaldehyde, 2,4,5-trimethoxy-;2,4,5-Trimethoxybenzaldehyde;Asaronaldehyde;Asaraldehyde;3,4,6-Trimethoxybenzaldehyde;Gazarin;Asarylaldehyde;NSC 89299;2,4,5-Trimethoxylbenzaldehyde",
    "duplicated_cas_no": "14374-62-0",
    "SMILES": "C(=O)C1=C(OC)C=C(OC)C(OC)=C1",
    "meta_data": {
        "InChI": "InChI=1S/C10H12O4/c1-12-8-5-10(14-3)9(13-2)4-7(8)6-11/h4-6H,1-3H3",
        "InChIKey": null,
        "Canonical SMILES": "O=CC1=CC(OC)=C(OC)C=C1OC",
        "Molecular Formula": "C<sub>10</sub>H<sub>12</sub>O<sub>4</sub>",
        "Molecular Mass": "196.20",
        "Boiling Point": "143 °C @ Press: 6 Torr",
        "Melting Point": "114 °C",
        "Density": "1.093 g/cm³ @ Temp: 16.5 °C"
    }
}