{
    "cas_no": "3554-74-3",
    "key_name": "3-Hydroxy-1-methylpiperidine",
    "cn_name": "3-羟基-N-甲基哌啶;1-甲基-3-哌啶醇;",
    "alternate_name": "3-Piperidinol, 1-methyl-;1-Methyl-3-piperidinol;<em>N</em>-Methyl-3-hydroxypiperidine;<em>N</em>-Methyl-3-piperidinol;3-Hydroxy-1-methylpiperidine;1-Methyl-3-hydroxypiperidine;3-Hydroxy-<em>N</em>-methylpiperidine;(±)-1-Methyl-3-piperidinol;(±)-3-Hydroxy-1-methylpiperidine;<em>rac</em>-3-Hydroxy-1-methylpiperidine;NSC 68348",
    "duplicated_cas_no": "97275-25-7",
    "SMILES": "OC1CN(C)CCC1",
    "meta_data": {
        "InChI": "InChI=1S/C6H13NO/c1-7-4-2-3-6(8)5-7/h6,8H,2-5H2,1H3",
        "InChIKey": null,
        "Canonical SMILES": "OC1CN(C)CCC1",
        "Molecular Formula": "C<sub>6</sub>H<sub>13</sub>NO",
        "Molecular Mass": "115.17",
        "Boiling Point": "79 °C @ Press: 16 Torr",
        "Density": "0.9635 g/cm³ @ Temp: 16 °C"
    }
}