{
    "cas_no": "1253-84-5",
    "key_name": "Cholestane-3β,5α,6β-triol",
    "cn_name": "胆甾烷-3,5,6-三醇;胆甾烷-3,5,6-三醇;",
    "alternate_name": "Cholestane-3,5,6-triol, (3β,5α,6β)-;5α-Cholestane-3β,5,6β-triol;(3β,5α,6β)-Cholestane-3,5,6-triol;Cholestane-3β,5α,6β-triol;Cholesta-3β,5α,6β-triol;3β,5α,6β-Trihydroxycholestane;5α,6β-Dihydroxycholestanol;3β-Hydroxycholestane-5α,6β-diol;NSC 124751;NSC 18178;Cholestanetriol;Cholestane-3,5,6-triol",
    "duplicated_cas_no": "72879-16-4;115510-05-9;2023759-81-9",
    "SMILES": "C[C@@]12[C@@]3([C@]([C@]4([C@](C)(CC3)[C@@]([C@@H](CCCC(C)C)C)(CC4)[H])[H])(C[C@@H](O)[C@@]1(O)C[C@@H](O)CC2)[H])[H]",
    "meta_data": {
        "InChI": "InChI=1S/C27H48O3/c1-17(2)7-6-8-18(3)21-9-10-22-20-15-24(29)27(30)16-19(28)11-14-26(27,5)23(20)12-13-25(21,22)4/h17-24,28-30H,6-16H2,1-5H3/t18-,19+,20+,21-,22+,23+,24-,25-,26-,27+/m1/s1",
        "InChIKey": null,
        "Canonical SMILES": "OC1CCC2(C)C3CCC4(C)C(CCC4C3CC(O)C2(O)C1)C(C)CCCC(C)C",
        "Molecular Formula": "C<sub>27</sub>H<sub>48</sub>O<sub>3</sub>",
        "Molecular Mass": "420.67",
        "Melting Point": "217-218 °C"
    }
}