{
    "cas_no": "109-12-6",
    "key_name": "2-Aminopyrimidine",
    "cn_name": "2-氨基嘧啶;",
    "alternate_name": "2-Pyrimidinamine;Pyrimidine, 2-amino-;Pyrimidine, 1,2-dihydro-2-imino-;2-Aminopyrimidine;1,2-Dihydro-2-iminopyrimidine;2-Pyrimidylamine;Pyrimidin-2-ylamine;NSC 1912",
    "duplicated_cas_no": "6918-31-6",
    "SMILES": "NC=1N=CC=CN1",
    "meta_data": {
        "InChI": "InChI=1S/C4H5N3/c5-4-6-2-1-3-7-4/h1-3H,(H2,5,6,7)",
        "InChIKey": null,
        "Canonical SMILES": "N=1C=CC=NC1N",
        "Molecular Formula": "C<sub>4</sub>H<sub>5</sub>N<sub>3</sub>",
        "Molecular Mass": "95.10",
        "Boiling Point": "157 °C @ Press: 135 Torr",
        "Melting Point": "127.5 °C"
    }
}