{
    "cas_no": "779-89-5",
    "key_name": "3-(Trifluoromethyl)cinnamic acid",
    "cn_name": "3-三氟甲基肉桂酸;间三氟甲基肉桂酸;",
    "alternate_name": "2-Propenoic acid, 3-[3-(trifluoromethyl)phenyl]-;Cinnamic acid, <em>m</em>-(trifluoromethyl)-;3-[3-(Trifluoromethyl)phenyl]-2-propenoic acid;3-(Trifluoromethyl)cinnamic acid;<em>m</em>-(Trifluoromethyl)cinnamic acid;3-(3-Trifluoromethylphenyl)acrylic acid",
    "duplicated_cas_no": "",
    "SMILES": "C(F)(F)(F)C1=CC(C=CC(O)=O)=CC=C1",
    "meta_data": {
        "InChI": "InChI=1S/C10H7F3O2/c11-10(12,13)8-3-1-2-7(6-8)4-5-9(14)15/h1-6H,(H,14,15)",
        "InChIKey": null,
        "Canonical SMILES": "O=C(O)C=CC1=CC=CC(=C1)C(F)(F)F",
        "Molecular Formula": "C<sub>10</sub>H<sub>7</sub>F<sub>3</sub>O<sub>2</sub>",
        "Molecular Mass": "216.16",
        "Melting Point": "136 °C"
    }
}