{
    "cas_no": "707-61-9",
    "key_name": "3-Methyl-1-phenyl-2-phospholene 1-oxide",
    "cn_name": "2,3-二氢-4-甲基-1-苯基-1H-1-磷杂环戊-2,4-二烯-1-氧化物;",
    "alternate_name": "1<em>H</em>-Phosphole, 2,3-dihydro-4-methyl-1-phenyl-, 1-oxide;2-Phospholene, 3-methyl-1-phenyl-, 1-oxide;1-Oxo-1-phenyl-3-methyl-2-phospholene;1-Phenyl-3-methyl-2-phospholene 1-oxide;1-Oxo-3-methyl-1-phenyl-2-phospholene;3-Methyl-1-phenyl-2-phospholene 1-oxide;2,3-Dihydro-4-methyl-1-phenyl-1<em>H</em>-phosphole 1-oxide;NSC 107634;3-Methyl-1-phenyl-2-phospholen 1-oxide",
    "duplicated_cas_no": "90408-79-0",
    "SMILES": "O=P1(C2=CC=CC=C2)C=C(C)CC1",
    "meta_data": {
        "InChI": "InChI=1S/C11H13OP/c1-10-7-8-13(12,9-10)11-5-3-2-4-6-11/h2-6,9H,7-8H2,1H3",
        "InChIKey": null,
        "Canonical SMILES": "O=P1(C=C(C)CC1)C=2C=CC=CC2",
        "Molecular Formula": "C<sub>11</sub>H<sub>13</sub>OP",
        "Molecular Mass": "192.19",
        "Boiling Point": "150 °C @ Press: 0.15 Torr"
    }
}