{
    "cas_no": "35757-20-1",
    "key_name": "2-Bromo-3-nitrobenzenamine",
    "cn_name": null,
    "alternate_name": "Benzenamine, 2-bromo-3-nitro-;Aniline, 2-bromo-3-nitro-;2-Bromo-3-nitrobenzenamine;2-Bromo-3-nitroaniline",
    "duplicated_cas_no": "",
    "SMILES": "N(=O)(=O)C1=C(Br)C(N)=CC=C1",
    "meta_data": {
        "InChI": "InChI=1S/C6H5BrN2O2/c7-6-4(8)2-1-3-5(6)9(10)11/h1-3H,8H2",
        "InChIKey": null,
        "Canonical SMILES": "O=N(=O)C=1C=CC=C(N)C1Br",
        "Molecular Formula": "C<sub>6</sub>H<sub>5</sub>BrN<sub>2</sub>O<sub>2</sub>",
        "Molecular Mass": "217.02",
        "Melting Point": "96-97 °C"
    }
}