{
    "cas_no": "71-43-2",
    "key_name": "Benzene",
    "cn_name": "苯;",
    "alternate_name": "Benzene;Benzol;Coal naphtha;Cyclohexatriene;Phene;Phenyl hydride;Pyrobenzol;Benzole;Pyrobenzole;[6]Annulene;1,3,5-Cyclohexatriene;NSC 67315;MeSH ID: D001554",
    "duplicated_cas_no": "54682-86-9;174973-66-1;1053658-43-7;1173023-23-8",
    "SMILES": "C=1C=CC=CC1",
    "meta_data": {
        "InChI": "InChI=1S/C6H6/c1-2-4-6-5-3-1/h1-6H",
        "InChIKey": null,
        "Canonical SMILES": "C=1C=CC=CC1",
        "Molecular Formula": "C<sub>6</sub>H<sub>6</sub>",
        "Molecular Mass": "78.11",
        "Boiling Point": "80.1 °C",
        "Melting Point": "5.5 °C",
        "Density": "0.8787 g/cm³ @ Temp: 15 °C"
    }
}