{
    "cas_no": "14647-23-5",
    "key_name": "(Bis(diphenylphosphino)ethane)dichloronickel",
    "cn_name": null,
    "alternate_name": "Nickel, dichloro[1,2-ethanediylbis[diphenylphosphine-κ<em>P</em>]]-, (<em>SP</em>-4-2)-;Nickel, dichloro[ethylenebis[diphenylphosphine]]-, <em>cis</em>-;Nickel, dichloro[1,2-ethanediylbis[diphenylphosphine]-<em>P</em>,<em>P</em>′]-, (<em>SP</em>-4-2)-;Nickel, dichloro[ethylenebis[diphenylphosphine]]-;Phosphine, 1,2-ethanediylbis[diphenyl-, nickel complex;Dichloro[ethylenebis[diphenylphosphine]]nickel;Dichloro[1,2-ethanediylbis[diphenylphosphine]-<em>P</em>,<em>P</em>′]nickel;Dichloro[1,2-bis(diphenylphosphino)ethane]nickel(II);1,2-Bis(diphenylphosphino)ethanenickel dichloride;[1,2-Bis(diphenylphosphino)ethane]dichloronickel;Dichloro[1,2-ethanediylbis[diphenylphosphine]]nickel;Dichloro[1,2-bis(diphenylphosphino)ethane]nickel;Dichlorobis[(diphenylphosphino)ethane]nickel(II);(Bis(diphenylphosphino)ethane)dichloronickel;[1,2-Bis(diphenylphosphino)ethane]nickel(II) chloride;<em>cis</em>-(1,2-Bis(diphenylphosphino)ethane)dichloronickel;Nickel 1,2-Bis(diphenylphosphino)ethane dichloride;1,2-Ethylenebis(diphenylphosphine)nickel dichloride",
    "duplicated_cas_no": "135719-11-8;19978-63-3;38754-20-0;60932-90-3",
    "SMILES": "[Cl-][Ni+2]1([Cl-])[P](CC[P]1(C2=CC=CC=C2)C3=CC=CC=C3)(C4=CC=CC=C4)C5=CC=CC=C5",
    "meta_data": {
        "InChI": "InChI=1S/C26H24P2.2ClH.Ni/c1-5-13-23(14-6-1)27(24-15-7-2-8-16-24)21-22-28(25-17-9-3-10-18-25)26-19-11-4-12-20-26;;;/h1-20H,21-22H2;2*1H;/q;;;+2/p-2",
        "InChIKey": null,
        "Canonical SMILES": "[Cl-][Ni+2]1([Cl-])[P](C=2C=CC=CC2)(C=3C=CC=CC3)CC[P]1(C=4C=CC=CC4)C=5C=CC=CC5",
        "Molecular Formula": "C<sub>26</sub>H<sub>24</sub>Cl<sub>2</sub>NiP<sub>2</sub>",
        "Molecular Mass": "",
        "Melting Point": "274 °C (decomp)"
    }
}