{
    "cas_no": "20503-40-6",
    "key_name": "6-Amino-1,1-dioxobenzo[<em>b</em>]thiophene",
    "cn_name": null,
    "alternate_name": "Benzo[<em>b</em>]thiophen-6-amine, 1,1-dioxide;6-Aminobenzo[<em>b</em>]thiophene 1,1-dioxide;6-Amino-1,1-dioxobenzo[<em>b</em>]thiophene;(1,1-Dioxobenzothiophen-6-yl)amine;1,1-Dioxo-1<em>H</em>-benzo[<em>b</em>]thiophen-6-ylamine;6-Aminobenzothiophene-1,1-dioxide;1,1-Dioxo-1-benzothiophen-6-amine",
    "duplicated_cas_no": "",
    "SMILES": "O=S1(=O)C=2C(C=C1)=CC=C(N)C2",
    "meta_data": {
        "InChI": "InChI=1S/C8H7NO2S/c9-7-2-1-6-3-4-12(10,11)8(6)5-7/h1-5H,9H2",
        "InChIKey": null,
        "Canonical SMILES": "O=S1(=O)C=CC=2C=CC(N)=CC21",
        "Molecular Formula": "C<sub>8</sub>H<sub>7</sub>NO<sub>2</sub>S",
        "Molecular Mass": "181.21",
        "Melting Point": "165 °C (decomp)"
    }
}