{
    "cas_no": "71989-14-5",
    "key_name": "Fmoc-L-Asp(OtBu)-OH",
    "cn_name": null,
    "alternate_name": "<span class=\"text-smallcaps\">L</span>-Aspartic acid, <em>N</em>-[(9<em>H</em>-fluoren-9-ylmethoxy)carbonyl]-, 4-(1,1-dimethylethyl) ester;<em>N</em>-(9-Fluorenylmethoxycarbonyl)-<span class=\"text-smallcaps\">L</span>-aspartic acid β-<em>tert</em>-butyl ester;<em>N</em>-(9-Fluorenylmethoxycarbonyl)aspartic acid 4-<em>tert</em>-butyl ester;(<em>S</em>)-2-((((9<em>H</em>-Fluoren-9-yl)methoxy)carbonyl)amino)-4-<em>tert</em>-butoxy-4-oxo-butanoic acid;(2<em>S</em>)-4-<em>tert</em>-Butoxy-2-[[[(9<em>H</em>-fluoren-9-yl)methoxy]carbonyl]amino]-4-oxobutanoic acid;4-<em>tert</em>-Butyl <em>N</em>-(fluoren-9-ylmethoxycarbonyl)-<span class=\"text-smallcaps\">L</span>-aspartate;Fmoc-L-Asp(OtBu)-OH;Fmoc-Asp(tBu)-OH;Fmoc-<span class=\"text-smallcaps\">L</span>-Asp(OtBu);(2S)-4-(<em>tert</em>-Butoxy)-2-([[(9<em>H</em>-fluoren-9-yl)methoxy]carbonyl]amino)-4-oxobutanoic acid;(2S)-2-(9<em>H</em>-Fluoren-9-ylmethoxycarbonylamino)-4-[(2-methylpropan-2-yl)oxy]-4-oxobutanoic acid;(2S)-4-<em>tert</em>-Butoxy-2-(9<em>H</em>-fluoren-9-ylmethoxycarbonylamino)-4-oxo-butanoic acid",
    "duplicated_cas_no": "109924-80-3;138451-81-7;141893-61-0;184170-71-6;259726-30-2;499139-37-6;844640-44-4;850324-95-7;958295-18-6;1357091-39-4;1617538-14-3;1632285-02-9;1643955-67-2",
    "SMILES": "C(OC(N[C@@H](CC(OC(C)(C)C)=O)C(O)=O)=O)C1C=2C(C=3C1=CC=CC3)=CC=CC2",
    "meta_data": {
        "InChI": "InChI=1S/C23H25NO6/c1-23(2,3)30-20(25)12-19(21(26)27)24-22(28)29-13-18-16-10-6-4-8-14(16)15-9-5-7-11-17(15)18/h4-11,18-19H,12-13H2,1-3H3,(H,24,28)(H,26,27)/t19-/m0/s1",
        "InChIKey": null,
        "Canonical SMILES": "O=C(OCC1C=2C=CC=CC2C=3C=CC=CC31)NC(C(=O)O)CC(=O)OC(C)(C)C",
        "Molecular Formula": "C<sub>23</sub>H<sub>25</sub>NO<sub>6</sub>",
        "Molecular Mass": "411.45",
        "Melting Point": "149-152 °C"
    }
}