{
    "cas_no": "338-69-2",
    "key_name": "<span class=\"text-smallcaps\">D</span>-Alanine",
    "cn_name": "D-丙氨酸;",
    "alternate_name": "<span class=\"text-smallcaps\">D</span>-Alanine;Alanine, <span class=\"text-smallcaps\">D</span>-;Ba 2776;<span class=\"text-smallcaps\">D</span>-(-)-Alanine;<span class=\"text-smallcaps\">D</span>-α-Alanine;<span class=\"text-smallcaps\">D</span>(-)-α-Alanine;(<em>R</em>)-Alanine;NSC 158286;(2<em>R</em>)-2-Aminopropanoic acid;(<em>R</em>)-2-Aminopropanoic acid;2: PN: RU2506269 PAGE: 13 claimed sequence",
    "duplicated_cas_no": "",
    "SMILES": "[C@H](C(O)=O)(C)N",
    "meta_data": {
        "InChI": "InChI=1S/C3H7NO2/c1-2(4)3(5)6/h2H,4H2,1H3,(H,5,6)/t2-/m1/s1",
        "InChIKey": null,
        "Canonical SMILES": "O=C(O)C(N)C",
        "Molecular Formula": "C<sub>3</sub>H<sub>7</sub>NO<sub>2</sub>",
        "Molecular Mass": "89.09",
        "Melting Point": "292 °C"
    }
}