{
    "cas_no": "10022-70-5",
    "key_name": "Hypochlorous acid, sodium salt, pentahydrate",
    "cn_name": null,
    "alternate_name": "Hypochlorous acid, sodium salt, pentahydrate;Sodium hypochlorite pentahydrate",
    "duplicated_cas_no": "",
    "SMILES": "ClO.[Na].O",
    "meta_data": {
        "InChI": "InChI=1S/ClHO.Na.5H2O/c1-2;;;;;;/h2H;;5*1H2",
        "InChIKey": null,
        "Canonical SMILES": "[Na].ClO.O",
        "Molecular Formula": "ClHO.5H<sub>2</sub>O.Na",
        "Molecular Mass": "",
        "Melting Point": "27 °C"
    }
}