{
    "cas_no": "10348-47-7",
    "key_name": "Ethyl 2-hydroxy-4-methylpentanoate",
    "cn_name": null,
    "alternate_name": "Pentanoic acid, 2-hydroxy-4-methyl-, ethyl ester;Valeric acid, 2-hydroxy-4-methyl-, ethyl ester;Ethyl 2-hydroxyisocaproate;Ethyl 2-hydroxy-4-methylpentanoate;Ethyl 2-hydroxy-4-methylvalerate;Ethyl 2-hydroxy-<em>iso</em>-hexanoate;Ethyl leucate",
    "duplicated_cas_no": "74364-76-4",
    "SMILES": "C(C(OCC)=O)(CC(C)C)O",
    "meta_data": {
        "InChI": "InChI=1S/C8H16O3/c1-4-11-8(10)7(9)5-6(2)3/h6-7,9H,4-5H2,1-3H3",
        "InChIKey": null,
        "Canonical SMILES": "O=C(OCC)C(O)CC(C)C",
        "Molecular Formula": "C<sub>8</sub>H<sub>16</sub>O<sub>3</sub>",
        "Molecular Mass": "160.21",
        "Boiling Point": "80-81 °C @ Press: 16 Torr"
    }
}