{
    "cas_no": "637-97-8",
    "key_name": "2-Iodopentane",
    "cn_name": null,
    "alternate_name": "Pentane, 2-iodo-;2-Iodopentane;(±)-2-Iodopentane;NSC 7902;1-Methylbutyl iodide",
    "duplicated_cas_no": "52152-72-4",
    "SMILES": "C(C(C)I)CC",
    "meta_data": {
        "InChI": "InChI=1S/C5H11I/c1-3-4-5(2)6/h5H,3-4H2,1-2H3",
        "InChIKey": null,
        "Canonical SMILES": "IC(C)CCC",
        "Molecular Formula": "C<sub>5</sub>H<sub>11</sub>I",
        "Molecular Mass": "198.05",
        "Boiling Point": "150 °C",
        "Melting Point": "-50 °C",
        "Density": "1.3251 g/cm³ @ Temp: 20 °C"
    }
}