{
    "cas_no": "41252-96-4",
    "key_name": "2-Chloro-1-iodo-4-nitrobenzene",
    "cn_name": "2-氯-1-碘-4-硝基苯;",
    "alternate_name": "Benzene, 2-chloro-1-iodo-4-nitro-;2-Chloro-1-iodo-4-nitrobenzene;3-Chloro-4-iodonitrobenzene;NSC 83313;1-Chloro-2-iodo-5-nitrobenzene;2-Chloro-4-nitrophenyl iodide",
    "duplicated_cas_no": "",
    "SMILES": "N(=O)(=O)C1=CC(Cl)=C(I)C=C1",
    "meta_data": {
        "InChI": "InChI=1S/C6H3ClINO2/c7-5-3-4(9(10)11)1-2-6(5)8/h1-3H",
        "InChIKey": null,
        "Canonical SMILES": "O=N(=O)C1=CC=C(I)C(Cl)=C1",
        "Molecular Formula": "C<sub>6</sub>H<sub>3</sub>ClINO<sub>2</sub>",
        "Molecular Mass": "283.45",
        "Melting Point": "103 °C"
    }
}