{
    "cas_no": "2504-64-5",
    "key_name": "1,1′-(1,2-Ethanediyl)bis[1,1,1-trichlorosilane]",
    "cn_name": "1,2-二(三氯甲硅基)乙烷;1,1,1,4,4,4-六氯二甲硅基乙烯;",
    "alternate_name": "Silane, 1,1′-(1,2-ethanediyl)bis[1,1,1-trichloro-;1,4-Disilabutane, 1,1,1,4,4,4-hexachloro-;Silane, 1,2-ethanediylbis[trichloro-;1,1′-(1,2-Ethanediyl)bis[1,1,1-trichlorosilane];1,2-Bis(trichlorosilyl)ethane;Ethylenebis(trichlorosilane);1,2-Ethanediylbis(trichlorosilane);1,1,1,4,4,4-Hexachloro-1,4-disilabutane;Trichloro(2-trichlorosilylethyl)silane",
    "duplicated_cas_no": "",
    "SMILES": "C(C[Si](Cl)(Cl)Cl)[Si](Cl)(Cl)Cl",
    "meta_data": {
        "InChI": "InChI=1S/C2H4Cl6Si2/c3-9(4,5)1-2-10(6,7)8/h1-2H2",
        "InChIKey": null,
        "Canonical SMILES": "Cl[Si](Cl)(Cl)CC[Si](Cl)(Cl)Cl",
        "Molecular Formula": "C<sub>2</sub>H<sub>4</sub>Cl<sub>6</sub>Si<sub>2</sub>",
        "Molecular Mass": "296.94",
        "Boiling Point": "201 °C",
        "Melting Point": "24-25 °C",
        "Density": "1.482 g/cm³"
    }
}