{
    "cas_no": "5959-56-8",
    "key_name": "4-Amino-1-naphthol hydrochloride",
    "cn_name": "4-氨基-1-萘酚盐酸盐;",
    "alternate_name": "1-Naphthalenol, 4-amino-, hydrochloride (1:1);1-Naphthol, 4-amino-, hydrochloride;1-Naphthalenol, 4-amino-, hydrochloride;4-Amino-1-naphthol hydrochloride;4-Aminonaphthalen-1-ol hydrochloride;4-Aminonaphth-1-ol hydrochloride;1-Amino-4-hydroxynaphthalene hydrochloride",
    "duplicated_cas_no": "",
    "SMILES": "NC=1C2=C(C(O)=CC1)C=CC=C2.Cl",
    "meta_data": {
        "InChI": "InChI=1S/C10H9NO.ClH/c11-9-5-6-10(12)8-4-2-1-3-7(8)9;/h1-6,12H,11H2;1H",
        "InChIKey": null,
        "Canonical SMILES": "Cl.OC1=CC=C(N)C=2C=CC=CC12",
        "Molecular Formula": "C<sub>10</sub>H<sub>9</sub>NO.ClH",
        "Molecular Mass": "",
        "Melting Point": "265-267 °C (decomp)"
    }
}