{
    "cas_no": "1796-84-5",
    "key_name": "4-Ethoxy-3-nitropyridine",
    "cn_name": "4-乙氧基-3-硝基吡啶;",
    "alternate_name": "Pyridine, 4-ethoxy-3-nitro-;4-Ethoxy-3-nitropyridine;3-Nitro-4-ethoxypyridine;NSC 611545",
    "duplicated_cas_no": "",
    "SMILES": "N(=O)(=O)C=1C(OCC)=CC=NC1",
    "meta_data": {
        "InChI": "InChI=1S/C7H8N2O3/c1-2-12-7-3-4-8-5-6(7)9(10)11/h3-5H,2H2,1H3",
        "InChIKey": null,
        "Canonical SMILES": "O=N(=O)C=1C=NC=CC1OCC",
        "Molecular Formula": "C<sub>7</sub>H<sub>8</sub>N<sub>2</sub>O<sub>3</sub>",
        "Molecular Mass": "168.15",
        "Melting Point": "49-50 °C"
    }
}