{
    "cas_no": "111-28-4",
    "key_name": "2,4-Hexadien-1-ol",
    "cn_name": "2,4-已二烯-1-醇;反-2,4-已二烯-1-醇;",
    "alternate_name": "2,4-Hexadien-1-ol;Hexacose;Hexakose;1-Hydroxy-2,4-hexadiene;<em>n</em>-Hex-2,4-dien-1-ol;2,4-Hexadienol",
    "duplicated_cas_no": "",
    "SMILES": "C(C=CC)=CCO",
    "meta_data": {
        "InChI": "InChI=1S/C6H10O/c1-2-3-4-5-6-7/h2-5,7H,6H2,1H3",
        "InChIKey": null,
        "Canonical SMILES": "OCC=CC=CC",
        "Molecular Formula": "C<sub>6</sub>H<sub>10</sub>O",
        "Molecular Mass": "98.14",
        "Boiling Point": "77-78 °C",
        "Melting Point": "30.5 °C",
        "Density": "0.8967 g/cm³ @ Temp: 23 °C"
    }
}