{
    "cas_no": "617-45-8",
    "key_name": "<span class=\"text-smallcaps\">DL</span>-Aspartic acid",
    "cn_name": "DL-天门冬氨酸;DL-天冬氨酸;DL-2-氨基丁二酸;",
    "alternate_name": "Aspartic acid;Aspartic acid, <span class=\"text-smallcaps\">DL</span>-;<span class=\"text-smallcaps\">DL</span>-Aspartic acid;<span class=\"text-smallcaps\">DL</span>-Aminosuccinic acid;(<em>RS</em>)-Aspartic acid;(±)-Aspartic acid;Aminosuccinic acid;NSC 141379;2-Aminobutanedioic acid;2-Azaniumyl-4-hydroxy-4-oxobutanoate",
    "duplicated_cas_no": "874742-68-4",
    "SMILES": "C(CC(O)=O)(C(O)=O)N",
    "meta_data": {
        "InChI": "InChI=1S/C4H7NO4/c5-2(4(8)9)1-3(6)7/h2H,1,5H2,(H,6,7)(H,8,9)",
        "InChIKey": null,
        "Canonical SMILES": "O=C(O)CC(N)C(=O)O",
        "Molecular Formula": "C<sub>4</sub>H<sub>7</sub>NO<sub>4</sub>",
        "Molecular Mass": "133.10",
        "Melting Point": "275 °C",
        "Density": "1.663 g/cm³"
    }
}