{
    "cas_no": "4930-98-7",
    "key_name": "2-Hydrazinopyridine",
    "cn_name": "2-肼吡啶;2-肼基吡啶;吡啶-2-肼;",
    "alternate_name": "Pyridine, 2-hydrazinyl-;Pyridine, 2-hydrazino-;2(1<em>H</em>)-Pyridinone, hydrazone;2-Hydrazinylpyridine;2-Pyridylhydrazine;2-Hydrazinopyridine;Hydrazine, 2-pyridinyl-;α-Pyridylhydrazine;2-Pyridinylhydrazine;NSC 76877;(Pyridin-2-yl)hydrazine",
    "duplicated_cas_no": "",
    "SMILES": "N(N)=C1C=CC=CN1",
    "meta_data": {
        "InChI": "InChI=1S/C5H7N3/c6-8-5-3-1-2-4-7-5/h1-4H,6H2,(H,7,8)",
        "InChIKey": null,
        "Canonical SMILES": "N(N)=C1C=CC=CN1",
        "Molecular Formula": "C<sub>5</sub>H<sub>7</sub>N<sub>3</sub>",
        "Molecular Mass": "109.13",
        "Boiling Point": "185 °C @ Press: 140 Torr",
        "Melting Point": "46.6 °C"
    }
}