{
    "cas_no": "1047-16-1",
    "key_name": "Quinacridone",
    "cn_name": "喹吖啶酮;颜料紫V19;",
    "alternate_name": "Quino[2,3-<em>b</em>]acridine-7,14-dione, 5,12-dihydro-;5,12-Dihydroquino[2,3-<em>b</em>]acridine-7,14-dione;C.I. 46500;Cinquasia Red B;Cinquasia Red Y;Cinquasia Violet R;C.I. Pigment Violet 19;Monastral Red B;Monastral Red Y;Monastral Violet R;Paliogen Red BG;Permanent Red E 3B;Permanent Red E 5B;Quinacridone Red MC;Quinacridone Violet MC;PV Fast Red E 5B;Quinacridone;Monastral Red;Hostaperm Red Violet ER;Quinacridone violet;Cinquasia Red;Pigment Violet 19;PV Fast Red E 3B;Hostaperm Red E 5B;Pigment Quinacridone Red;Hostaperm Red E 3B;Pigment Pink Quinacridone S;Fastogen Super Red BN;Monolite Violet 4R;Cinquasia Red Y-RT 759D;Cinquasia Red B-RT 796D;Fastogen Super Red YE;Sunfast Violet;Red E 3B;Sunfast Red 19;Cinquasia Violet R-RT 791D;Hostaperm Red Violet ER 02;Pigment Violet Quinacridone;Dark violet;Permanent magenta;Rembrandt Rose;TSD-T 120 Red;Cinquasia Red Y-RT 859D;Mobay R 6700;Quindo Red R 6700;Hostaperm Red E 5B02;Fastogen Super Red 7083Y;Acramin Pink BC;Chromofine Red 6820;Monastral Red RT 759D;Paliogen Violet 5100;Fastogen Super Red 7061B;Paliogen Red L 4470;Fastogen Super Red 7094Y;Monastral Red RT 790D;Monastral Red Y-RT 759D;Fastogen Super Red 400R;Fastogen Super Red 500R;Hostaperm Red E 2B70;Cinquasia Red B-RT 790D;Acramin Pink BN;Quindo Magenta RV 6911;Cinquasia Violet R-RT 101D;Quinacridone Red Y;Fastogen Red 7094Y;Fastogen Super Red 380R;C.I. 73900;Fastogen Super Red 7100Y-E;Fastogen Super Red 500RG;Hostaperm Red Violet ER 02-13-7011;Fastogen Super Red 7100Y;Violet R-RT 101D;Fastogen Red 500RG;Cinquasia Violet R-NRT 201D;Lionogen Red 5700;Hostaperm Red Violet ERX;Hostaperm Red Violet ERX-WD;Fastogen Super Red Violet SR;Monastral Red B-RT 796D;Cinquasia Violet R-RT 891D;NSC 316165;Red Y-RT 759D;Lionogen Magenta FG 5700;Cromophtal Red 2020;PV 19;Quindo Red R 6713;Magenta RT 238D;Sanyo Pigment Violet GC 227A;Pigment Violet GC 227A;PV Fast Violet ER;CFR 311;Red E 2B70;Quindo Violet RV 6926;RV 6926;Polytrend 850-9440;Chromofine Red 6830;5,7,12,14-Tetrahydro[2,3-<em>b</em>]quinolinoacridine;Sunfast Violet 19;Fastogen Super Red 400RG;Nippe Color Max W Eco;Cinquasia Magenta RT 355D;Magenta RT 355D;Hostaperm ER 02;Ink Jet Magenta E 5B02VP2984;Cinquasia Red B-NRT 742D;Quindo Violet 19228-690;Quindo Violet 19 228-6902;Quindo Violet 19;Hostaperm Red E 5B02IN;Colanyl Red E 3B;Hostaperm Inkjet E 5B02;Sensijet Magenta PV 19;Cinquasia Pacific Red 2020;Ink Jet Magenta E 5B02;SJD-R 019;Ink Jet Red E 5B02VP2984;Cinquasia Violet R-NRT 795D;Pacific Red 2020;Cutulia Red 2BP;Cinquasia Red RT 195D;PV Fast Violet E 3B;Aquafine Red E 17;AF Red E 17;Lionogen Red 2B;Catulia Red YP;Red B-NRT 742D;Fastogen Super Red 7066B;CFR 0100;Quindo Red 19;Fastogen Super Red 7064B;Sun Quindo Red 19;Quinacridone RT 201D;Cinquasia Violet RT 201D;Fastogen Super Red BRZ;Super Red BRZ;Cinquasia Magenta E 05B;E 5B02;Red E 5B;D 71V19;Cinquasia Red K 4104;Cinquasia Red L 4100HD;Hostaperm Red E 4G;Cinquasia Violet L 5110;Ink Jet Magenta ESB;Pigment Violet RT 04;Violet ER 02;Hostaperm Violet ER 02;Q 0057;BH 201;Colanyl Red E 3B130;Ink Jet Red E 5B02;Inkjet Magenta E 5B02;Cinquasia Red L 4105HD;NW-MEA 12",
    "duplicated_cas_no": "39362-27-1;42612-56-6;59537-56-3;63440-25-5;65381-35-3;67051-64-3;67053-84-3;87397-48-6;323179-22-2;790240-46-9;942621-44-5;2370770-65-1",
    "SMILES": "O=C1C=2C(=CC3=C(C2)NC=4C(C3=O)=CC=CC4)NC=5C1=CC=CC5",
    "meta_data": {
        "InChI": "InChI=1S/C20H12N2O2/c23-19-11-5-1-3-7-15(11)21-17-10-14-18(9-13(17)19)22-16-8-4-2-6-12(16)20(14)24/h1-10H,(H,21,23)(H,22,24)",
        "InChIKey": null,
        "Canonical SMILES": "O=C1C=2C=CC=CC2NC3=CC=4C(=O)C=5C=CC=CC5NC4C=C13",
        "Molecular Formula": "C<sub>20</sub>H<sub>12</sub>N<sub>2</sub>O<sub>2</sub>",
        "Molecular Mass": "312.32",
        "Melting Point": "400 °C (decomp)",
        "Density": "1.5 g/cm³"
    }
}