{
    "cas_no": "2164-84-3",
    "key_name": "4,6-Diamino-5-nitropyrimidine",
    "cn_name": null,
    "alternate_name": "4,6-Pyrimidinediamine, 5-nitro-;Pyrimidine, 4,6-diamino-5-nitro-;5-Nitro-4,6-pyrimidinediamine;4,6-Diamino-5-nitropyrimidine;NSC 26753;NSC 45756",
    "duplicated_cas_no": "",
    "SMILES": "N(=O)(=O)C=1C(N)=NC=NC1N",
    "meta_data": {
        "InChI": "InChI=1S/C4H5N5O2/c5-3-2(9(10)11)4(6)8-1-7-3/h1H,(H4,5,6,7,8)",
        "InChIKey": null,
        "Canonical SMILES": "O=N(=O)C=1C(=NC=NC1N)N",
        "Molecular Formula": "C<sub>4</sub>H<sub>5</sub>N<sub>5</sub>O<sub>2</sub>",
        "Molecular Mass": "155.11",
        "Melting Point": "&gt;250 °C"
    }
}