{
    "cas_no": "87413-09-0",
    "key_name": "Dess-Martin periodinane",
    "cn_name": "戴斯-马丁氧化剂;(1,1,1-三乙酰氧基)-1,1-二氢-1,2-苯碘酰-3(1H)-酮;",
    "alternate_name": "Acetic acid, 1,1′,1′′-(3-oxo-1λ<sup>5</sup>-1,2-benziodoxol-1(3<em>H</em>)-ylidyne) ester;1,2-Benziodoxol-3(1<em>H</em>)-one, 1,1,1-tris(acetyloxy)-1,1-dihydro-;Dess-Martin periodinane;Martin's reagent;Dess-Martin reagent;Reagents, Martin's;Triacetoxyperiodinane;1,1,1-Tris(acetyloxy)-1,1-dihydro-1,2-benziodoxol-3(1<em>H</em>)-one;1,1,1-Triacetoxy-1,1-dihydro-1,2-benziodoxol-3(1<em>H</em>)-one;(1,1-Diacetoxy-3-oxo-1,2-benziodoxol-1-yl) acetate",
    "duplicated_cas_no": "134362-98-4;1331748-44-7",
    "SMILES": "O(C(C)=O)I1(OC(C)=O)(OC(C)=O)C=2C(C(=O)O1)=CC=CC2",
    "meta_data": {
        "InChI": "InChI=1S/C13H13IO8/c1-8(15)19-14(20-9(2)16,21-10(3)17)12-7-5-4-6-11(12)13(18)22-14/h4-7H,1-3H3",
        "InChIKey": null,
        "Canonical SMILES": "O=C1OI(OC(=O)C)(OC(=O)C)(OC(=O)C)C=2C=CC=CC12",
        "Molecular Formula": "C<sub>13</sub>H<sub>13</sub>IO<sub>8</sub>",
        "Molecular Mass": "424.14",
        "Melting Point": "134 °C"
    }
}