{
    "cas_no": "19694-10-1",
    "key_name": "3-Amino-4-chlorobenzamide",
    "cn_name": "3-氨基-4-氯苯甲酰胺;",
    "alternate_name": "Benzamide, 3-amino-4-chloro-;3-Amino-4-chlorobenzamide;4-Chloro-3-aminobenzamide;3-Amino-4-chlorobenzenecarboxamide",
    "duplicated_cas_no": "",
    "SMILES": "C(N)(=O)C1=CC(N)=C(Cl)C=C1",
    "meta_data": {
        "InChI": "InChI=1S/C7H7ClN2O/c8-5-2-1-4(7(10)11)3-6(5)9/h1-3H,9H2,(H2,10,11)",
        "InChIKey": null,
        "Canonical SMILES": "O=C(N)C1=CC=C(Cl)C(N)=C1",
        "Molecular Formula": "C<sub>7</sub>H<sub>7</sub>ClN<sub>2</sub>O",
        "Molecular Mass": "170.60",
        "Melting Point": "164 °C"
    }
}