{
    "cas_no": "695-85-2",
    "key_name": "4-Chloro-5-methoxypyrimidine",
    "cn_name": null,
    "alternate_name": "Pyrimidine, 4-chloro-5-methoxy-;4-Chloro-5-methoxypyrimidine",
    "duplicated_cas_no": "",
    "SMILES": "O(C)C=1C(Cl)=NC=NC1",
    "meta_data": {
        "InChI": "InChI=1S/C5H5ClN2O/c1-9-4-2-7-3-8-5(4)6/h2-3H,1H3",
        "InChIKey": null,
        "Canonical SMILES": "ClC=1N=CN=CC1OC",
        "Molecular Formula": "C<sub>5</sub>H<sub>5</sub>ClN<sub>2</sub>O",
        "Molecular Mass": "144.56",
        "Melting Point": "63-64 °C (sublm)"
    }
}