{
    "cas_no": "625-77-4",
    "key_name": "<em>N</em>-Acetylacetamide",
    "cn_name": null,
    "alternate_name": "Acetamide, <em>N</em>-acetyl-;Diacetamide;<em>N</em>-Acetylacetamide;Diacetylamine;NSC 405639",
    "duplicated_cas_no": "1338727-70-0",
    "SMILES": "N(C(C)=O)C(C)=O",
    "meta_data": {
        "InChI": "InChI=1S/C4H7NO2/c1-3(6)5-4(2)7/h1-2H3,(H,5,6,7)",
        "InChIKey": null,
        "Canonical SMILES": "O=C(NC(=O)C)C",
        "Molecular Formula": "C<sub>4</sub>H<sub>7</sub>NO<sub>2</sub>",
        "Molecular Mass": "101.10",
        "Boiling Point": "223.5 °C",
        "Melting Point": "79 °C"
    }
}