{
    "cas_no": "6351-10-6",
    "key_name": "1-Indanol",
    "cn_name": "1-茚醇;1-羟基茚满;1-茚醇;1-茚酮醇;1-茚;",
    "alternate_name": "1<em>H</em>-Inden-1-ol, 2,3-dihydro-;1-Indanol;1-Indanol, (±)-;2,3-Dihydro-1<em>H</em>-inden-1-ol;1-Hydroxyindan;(±)-2,3-Dihydro-1<em>H</em>-inden-1-ol;(±)-1-Indanol;(<em>RS</em>)-1-Indanol;NSC 31258;1-Hydroxyhydrindene",
    "duplicated_cas_no": "697-63-2",
    "SMILES": "OC1C=2C(=CC=CC2)CC1",
    "meta_data": {
        "InChI": "InChI=1S/C9H10O/c10-9-6-5-7-3-1-2-4-8(7)9/h1-4,9-10H,5-6H2",
        "InChIKey": null,
        "Canonical SMILES": "OC1C=2C=CC=CC2CC1",
        "Molecular Formula": "C<sub>9</sub>H<sub>10</sub>O",
        "Molecular Mass": "134.18",
        "Boiling Point": "220 °C",
        "Melting Point": "54.8 °C"
    }
}