{
    "cas_no": "46503-52-0",
    "key_name": "1-(2,4-Dichlorophenyl)-2-(1<em>H</em>-imidazol-1-yl)ethanone",
    "cn_name": "2\"-(1H-咪唑-1-基)-2,4-二氯苯乙酮;",
    "alternate_name": "Ethanone, 1-(2,4-dichlorophenyl)-2-(1<em>H</em>-imidazol-1-yl)-;1-(2,4-Dichlorophenyl)-2-(1<em>H</em>-imidazol-1-yl)ethanone;1-(2,4-Dichlorophenacyl)imidazole;2′,4′-Dichloro-2-(imidazol-1-yl)acetophenone;1-(2,4-Dichlorobenzoylmethyl)imidazole;1-(2,4-Dichlorophenyl)-2-(1<em>H</em>-imidazolyl)ethanone;1-(2,4-Dichlorophenyl)-2-imidazol-1-ylethanone;2,4-Dichlorophenyl (1,3-imidazole-1-yl)methyl ketone",
    "duplicated_cas_no": "104060-91-5;71311-71-2",
    "SMILES": "C(CN1C=CN=C1)(=O)C2=C(Cl)C=C(Cl)C=C2",
    "meta_data": {
        "InChI": "InChI=1S/C11H8Cl2N2O/c12-8-1-2-9(10(13)5-8)11(16)6-15-4-3-14-7-15/h1-5,7H,6H2",
        "InChIKey": null,
        "Canonical SMILES": "O=C(C1=CC=C(Cl)C=C1Cl)CN2C=NC=C2",
        "Molecular Formula": "C<sub>11</sub>H<sub>8</sub>Cl<sub>2</sub>N<sub>2</sub>O",
        "Molecular Mass": "255.10",
        "Melting Point": "76-78 °C"
    }
}