{
    "cas_no": "5657-19-2",
    "key_name": "<em>N</em>-(2-Furoyl)glycine",
    "cn_name": "N-(2-糠酰)甘氨酸;",
    "alternate_name": "Glycine, <em>N</em>-(2-furanylcarbonyl)-;Glycine, <em>N</em>-2-furoyl-;<em>N</em>-(2-Furanylcarbonyl)glycine;Furfuroylglycine;Pyromucuric acid;2-Furancarboxamide, <em>N</em>-(carboxymethyl)-;2-Furoylglycine;Furoylglycine;<em>N</em>-(2-Furoyl)glycine;[[(Furan-2-yl)carbonyl]amino]acetic acid;[(Furan-2-carbonyl)amino]acetic acid;2-[(Furan-2-carbonyl)amino]acetic acid;2-[(Furan-2-yl)formamido]acetic acid;2-(2-Furoylamino)acetic acid;2-(Furan-2-ylformamido)acetic acid",
    "duplicated_cas_no": "",
    "SMILES": "C(NCC(O)=O)(=O)C1=CC=CO1",
    "meta_data": {
        "InChI": "InChI=1S/C7H7NO4/c9-6(10)4-8-7(11)5-2-1-3-12-5/h1-3H,4H2,(H,8,11)(H,9,10)",
        "InChIKey": null,
        "Canonical SMILES": "O=C(O)CNC(=O)C=1OC=CC1",
        "Molecular Formula": "C<sub>7</sub>H<sub>7</sub>NO<sub>4</sub>",
        "Molecular Mass": "169.13",
        "Melting Point": "165 °C"
    }
}