{
    "cas_no": "591-50-4",
    "key_name": "Iodobenzene",
    "cn_name": "碘苯;碘代苯;",
    "alternate_name": "Benzene, iodo-;Iodobenzene;Phenyl iodide;Benzene iodide;NSC 9244;1-Iodobenzene;4-Iodobenzene",
    "duplicated_cas_no": "172484-65-0;2222572-06-5;2692599-14-5",
    "SMILES": "IC1=CC=CC=C1",
    "meta_data": {
        "InChI": "InChI=1S/C6H5I/c7-6-4-2-1-3-5-6/h1-5H",
        "InChIKey": null,
        "Canonical SMILES": "IC=1C=CC=CC1",
        "Molecular Formula": "C<sub>6</sub>H<sub>5</sub>I",
        "Molecular Mass": "204.01",
        "Boiling Point": "188.4 °C",
        "Melting Point": "-31.3 °C",
        "Density": "1.86059 g/cm³ @ Temp: 40 °C"
    }
}