{
    "cas_no": "431-03-8",
    "key_name": "Butanedione",
    "cn_name": "2,3-丁二酮;双乙酰;",
    "alternate_name": "2,3-Butanedione;Biacetyl;Diacetyl;2,3-Diketobutane;Dimethyl diketone;Dimethylglyoxal;Butanedione;2,3-Butadione;2,3-Dioxobutane;NSC 8750;MeSH ID: D003931",
    "duplicated_cas_no": "151677-70-2",
    "SMILES": "C(C(C)=O)(C)=O",
    "meta_data": {
        "InChI": "InChI=1S/C4H6O2/c1-3(5)4(2)6/h1-2H3",
        "InChIKey": null,
        "Canonical SMILES": "O=C(C(=O)C)C",
        "Molecular Formula": "C<sub>4</sub>H<sub>6</sub>O<sub>2</sub>",
        "Molecular Mass": "86.09",
        "Boiling Point": "88 °C @ Press: 760 Torr",
        "Melting Point": "-2.4 °C",
        "Density": "0.990 g/cm³ @ Temp: 15 °C"
    }
}