{
    "cas_no": "38965-51-4",
    "key_name": "Eriodictyol 7-<em>O</em>-glucoside",
    "cn_name": "圣草酚-7-O-葡糖苷;",
    "alternate_name": "4<em>H</em>-1-Benzopyran-4-one, 2-(3,4-dihydroxyphenyl)-7-(β-<span class=\"text-smallcaps\">D</span>-glucopyranosyloxy)-2,3-dihydro-5-hydroxy-, (2<em>S</em>)-;4<em>H</em>-1-Benzopyran-4-one, 2-(3,4-dihydroxyphenyl)-7-(β-<span class=\"text-smallcaps\">D</span>-glucopyranosyloxy)-2,3-dihydro-5-hydroxy-, (<em>S</em>)-;Flavanone, 3′,4′,5,7-tetrahydroxy-, 7-β-<span class=\"text-smallcaps\">D</span>-glucopyranoside;(2<em>S</em>)-2-(3,4-Dihydroxyphenyl)-7-(β-<span class=\"text-smallcaps\">D</span>-glucopyranosyloxy)-2,3-dihydro-5-hydroxy-4<em>H</em>-1-benzopyran-4-one;Miscanthoside;Eriodictyol 7-glucoside;Eriodictyol 7-<em>O</em>-glucoside;3′,4′,5,7-Tetrahydroxyflavanone 7-glucoside;Eriodictyol 7-<em>O</em>-β-<span class=\"text-smallcaps\">D</span>-glucoside;3′,4′,5,7-Tetrahydroxyflavanone 7-β-<span class=\"text-smallcaps\">D</span>-glucopyranoside;Eriodictyol 7-<em>O</em>-β-<span class=\"text-smallcaps\">D</span>-glucopyranoside;(2<em>S</em>)-Eriodictyol-7-<em>O</em>-β-<span class=\"text-smallcaps\">D</span>-glucopyranoside;Eriodictyol 7-β-<span class=\"text-smallcaps\">D</span>-glucoside;5,7,3′,4′-Tetrahydroxyflavanone 7-<em>O</em>-glucoside;(2S)-Eriodictyol 7-<em>O</em>-β-<span class=\"text-smallcaps\">D</span>-glucopyranoside",
    "duplicated_cas_no": "2500-69-8;6802-06-8;28757-28-0;60479-26-7;301647-87-0;851538-97-1;906320-86-3;1195169-82-4;1217974-95-2",
    "SMILES": "O=C1C=2C(O[C@@H](C1)C3=CC(O)=C(O)C=C3)=CC(O[C@@H]4O[C@H](CO)[C@@H](O)[C@H](O)[C@H]4O)=CC2O",
    "meta_data": {
        "InChI": "InChI=1S/C21H22O11/c22-7-16-18(27)19(28)20(29)21(32-16)30-9-4-12(25)17-13(26)6-14(31-15(17)5-9)8-1-2-10(23)11(24)3-8/h1-5,14,16,18-25,27-29H,6-7H2/t14-,16+,18+,19-,20+,21+/m0/s1",
        "InChIKey": null,
        "Canonical SMILES": "O=C1C2=C(O)C=C(OC3OC(CO)C(O)C(O)C3O)C=C2OC(C4=CC=C(O)C(O)=C4)C1",
        "Molecular Formula": "C<sub>21</sub>H<sub>22</sub>O<sub>11</sub>",
        "Molecular Mass": "450.39",
        "Melting Point": "168-170 °C"
    }
}