{
    "cas_no": "10034-20-5",
    "key_name": "β-<span class=\"text-smallcaps\">D</span>-Glucopyranose, 2-amino-2-deoxy-, 1,3,4,6-tetraacetate, hydrochloride (1:1)",
    "cn_name": null,
    "alternate_name": "β-<span class=\"text-smallcaps\">D</span>-Glucopyranose, 2-amino-2-deoxy-, 1,3,4,6-tetraacetate, hydrochloride (1:1);Glucopyranose, 2-amino-2-deoxy-, 1,3,4,6-tetraacetate, hydrochloride, β-<span class=\"text-smallcaps\">D</span>-;β-<span class=\"text-smallcaps\">D</span>-Glucopyranose, 2-amino-2-deoxy-, 1,3,4,6-tetraacetate, hydrochloride;2-Amino-2-deoxy-1,3,4,6-tetra-<em>O</em>-acetyl-β,<span class=\"text-smallcaps\">D</span>-glucopyranose hydrochloride;NSC 82044;1,3,4,6-Tetra-<em>O</em>-acetyl-β-<span class=\"text-smallcaps\">D</span>-glucosamine hydrochloride;1,3,4,6-Tetra-<em>O</em>-acetyl-2-amino-2-deoxy-β-<span class=\"text-smallcaps\">D</span>-glucopyranose hydrochloride;β-<span class=\"text-smallcaps\">D</span>-Glucopyranose 1,3,4,6-tetraacetate-2-amino-2-deoxy hydrochloride",
    "duplicated_cas_no": "1274878-00-0",
    "SMILES": "O(C(C)=O)[C@H]1[C@H](OC(C)=O)[C@@H](N)[C@H](OC(C)=O)O[C@@H]1COC(C)=O.Cl",
    "meta_data": {
        "InChI": "InChI=1S/C14H21NO9.ClH/c1-6(16)20-5-10-12(21-7(2)17)13(22-8(3)18)11(15)14(24-10)23-9(4)19;/h10-14H,5,15H2,1-4H3;1H/t10-,11-,12-,13-,14-;/m1./s1",
        "InChIKey": null,
        "Canonical SMILES": "Cl.O=C(OCC1OC(OC(=O)C)C(N)C(OC(=O)C)C1OC(=O)C)C",
        "Molecular Formula": "C<sub>14</sub>H<sub>21</sub>NO<sub>9</sub>.ClH",
        "Molecular Mass": "",
        "Melting Point": "230 °C (decomp)"
    }
}