{
    "cas_no": "68392-35-8",
    "key_name": "4-[1-[4-[2-(Dimethylamino)ethoxy]phenyl]-2-phenyl-1-buten-1-yl]phenol",
    "cn_name": null,
    "alternate_name": "Phenol, 4-[1-[4-[2-(dimethylamino)ethoxy]phenyl]-2-phenyl-1-buten-1-yl]-;Phenol, 4-[1-[4-[2-(dimethylamino)ethoxy]phenyl]-2-phenyl-1-butenyl]-;4-[1-[4-[2-(Dimethylamino)ethoxy]phenyl]-2-phenyl-1-buten-1-yl]phenol;4-[1-[4-[2-(Dimethylamino)ethoxy]phenyl]-2-phenyl-1-butenyl]phenol;4-OHT;Afimoxifene;TamoGel",
    "duplicated_cas_no": "71880-76-7;76702-42-6",
    "SMILES": "C(=C(CC)C1=CC=CC=C1)(C2=CC=C(OCCN(C)C)C=C2)C3=CC=C(O)C=C3",
    "meta_data": {
        "InChI": "InChI=1S/C26H29NO2/c1-4-25(20-8-6-5-7-9-20)26(21-10-14-23(28)15-11-21)22-12-16-24(17-13-22)29-19-18-27(2)3/h5-17,28H,4,18-19H2,1-3H3",
        "InChIKey": null,
        "Canonical SMILES": "OC1=CC=C(C=C1)C(C2=CC=C(OCCN(C)C)C=C2)=C(C=3C=CC=CC3)CC",
        "Molecular Formula": "C<sub>26</sub>H<sub>29</sub>NO<sub>2</sub>",
        "Molecular Mass": "387.51",
        "Melting Point": "157-159 °C"
    }
}