{
    "cas_no": "19937-59-8",
    "key_name": "Metoxuron",
    "cn_name": "甲氧隆;1,1-二甲基-3-(3-氯-4-甲氧基苯基)脲;Nˊ-(3-氯-4-甲氧基苯基)-N,N-二甲基脲;",
    "alternate_name": "Urea, <em>N</em>′-(3-chloro-4-methoxyphenyl)-<em>N</em>,<em>N</em>-dimethyl-;Urea, 3-(3-chloro-4-methoxyphenyl)-1,1-dimethyl-;<em>N</em>′-(3-Chloro-4-methoxyphenyl)-<em>N</em>,<em>N</em>-dimethylurea;Metoxuron;<em>N</em>-(3-Chloro-4-methoxyphenyl)-<em>N</em>′,<em>N</em>′-dimethylurea;Metoxuran;1-(3-Chloro-4-methoxyphenyl)-3,3-dimethylurea;Dosanex;3-(3-Chloro-4-methoxyphenyl)-1,1-dimethylurea;SAN 6602;SAN 7102;Purivel",
    "duplicated_cas_no": "",
    "SMILES": "N(C(N(C)C)=O)C1=CC(Cl)=C(OC)C=C1",
    "meta_data": {
        "InChI": "InChI=1S/C10H13ClN2O2/c1-13(2)10(14)12-7-4-5-9(15-3)8(11)6-7/h4-6H,1-3H3,(H,12,14)",
        "InChIKey": null,
        "Canonical SMILES": "O=C(NC1=CC=C(OC)C(Cl)=C1)N(C)C",
        "Molecular Formula": "C<sub>10</sub>H<sub>13</sub>ClN<sub>2</sub>O<sub>2</sub>",
        "Molecular Mass": "228.68",
        "Melting Point": "126.5 °C"
    }
}