{
    "cas_no": "530-56-3",
    "key_name": "Syringyl alcohol",
    "cn_name": "4-羟基-3,5-二甲氧基苯甲醇;",
    "alternate_name": "Benzenemethanol, 4-hydroxy-3,5-dimethoxy-;Benzyl alcohol, 4-hydroxy-3,5-dimethoxy-;4-Hydroxy-3,5-dimethoxybenzenemethanol;Syringyl alcohol;4-Hydroxy-3,5-dimethoxybenzyl alcohol;3,5-Dimethoxy-4-hydroxybenzyl alcohol;2,6-Dimethoxy-4-(hydroxymethyl)phenol;Syringic alcohol",
    "duplicated_cas_no": "",
    "SMILES": "O(C)C1=C(O)C(OC)=CC(CO)=C1",
    "meta_data": {
        "InChI": "InChI=1S/C9H12O4/c1-12-7-3-6(5-10)4-8(13-2)9(7)11/h3-4,10-11H,5H2,1-2H3",
        "InChIKey": null,
        "Canonical SMILES": "OC1=C(OC)C=C(C=C1OC)CO",
        "Molecular Formula": "C<sub>9</sub>H<sub>12</sub>O<sub>4</sub>",
        "Molecular Mass": "184.19",
        "Melting Point": "136 °C"
    }
}