{
    "cas_no": "3877-86-9",
    "key_name": "Cucurbitacin D",
    "cn_name": "葫芦素 D;",
    "alternate_name": "19-Norlanosta-5,23-diene-3,11,22-trione, 2,16,20,25-tetrahydroxy-9-methyl-, (2β,9β,10α,16α,23<em>E</em>)-;19-Nor-9β,10α-lanosta-5,23-diene-3,11,22-trione, 2β,16α,20,25-tetrahydroxy-9-methyl-;(2β,9β,10α,16α,23<em>E</em>)-2,16,20,25-Tetrahydroxy-9-methyl-19-norlanosta-5,23-diene-3,11,22-trione;Elatericin A;Cucurbitacin D;NSC 521776;Cucurbitacine D;Elatericine A;NSC 308606;(+)-Cucurbitacin D",
    "duplicated_cas_no": "28973-72-0;204376-96-5",
    "SMILES": "C[C@]12[C@@](C)([C@@]([C@@](C(/C=C/C(C)(C)O)=O)(C)O)([C@H](O)C1)[H])CC(=O)[C@]3(C)[C@]2(CC=C4[C@]3(C[C@H](O)C(=O)C4(C)C)[H])[H]",
    "meta_data": {
        "InChI": "InChI=1S/C30H44O7/c1-25(2,36)12-11-21(33)30(8,37)23-19(32)14-27(5)20-10-9-16-17(13-18(31)24(35)26(16,3)4)29(20,7)22(34)15-28(23,27)6/h9,11-12,17-20,23,31-32,36-37H,10,13-15H2,1-8H3/b12-11+/t17-,18+,19-,20+,23+,27+,28-,29+,30+/m1/s1",
        "InChIKey": null,
        "Canonical SMILES": "O=C(C=CC(O)(C)C)C(O)(C)C1C(O)CC2(C)C3CC=C4C(CC(O)C(=O)C4(C)C)C3(C(=O)CC12C)C",
        "Molecular Formula": "C<sub>30</sub>H<sub>44</sub>O<sub>7</sub>",
        "Molecular Mass": "516.67",
        "Melting Point": "149-150 °C (decomp)"
    }
}