{
    "cas_no": "7790-80-9",
    "key_name": "Cadmium iodide",
    "cn_name": "碘化镉;",
    "alternate_name": "Cadmium iodide (CdI<sub>2</sub>);Cadmium diiodide;Cadmium iodide;Cadmium(II) iodide",
    "duplicated_cas_no": "28825-30-1;53168-85-7;405884-26-6",
    "SMILES": "[Cd](I)I",
    "meta_data": {
        "InChI": "InChI=1S/Cd.2HI/h;2*1H/q+2;;/p-2",
        "InChIKey": null,
        "Canonical SMILES": "I[Cd]I",
        "Molecular Formula": "CdI<sub>2</sub>",
        "Molecular Mass": "",
        "Boiling Point": "796 °C",
        "Melting Point": "387 °C",
        "Density": "5.67 g/cm³"
    }
}