{
    "cas_no": "4485-12-5",
    "key_name": "Lithium stearate",
    "cn_name": "硬脂酸锂;十八酸锂;",
    "alternate_name": "Octadecanoic acid, lithium salt (1:1);Stearic acid, lithium salt;Octadecanoic acid, lithium salt;Lithalure;Lithium stearate;Litholite;Stavinor 60;Lithium octadecanoate;S 7000 (fatty acid);S 7000;S 7000F;AFCO-Chem LIS;SPL 100F;Li-St;LIC 17;Lithiumsoap 1;SAK-LIS-PE",
    "duplicated_cas_no": "2250320-39-7",
    "SMILES": "C(CCCCCCCCCCC)CCCCCC(O)=O.[Li]",
    "meta_data": {
        "InChI": "InChI=1S/C18H36O2.Li/c1-2-3-4-5-6-7-8-9-10-11-12-13-14-15-16-17-18(19)20;/h2-17H2,1H3,(H,19,20);",
        "InChIKey": null,
        "Canonical SMILES": "[Li].O=C(O)CCCCCCCCCCCCCCCCC",
        "Molecular Formula": "C<sub>18</sub>H<sub>36</sub>O<sub>2</sub>.Li",
        "Molecular Mass": "",
        "Melting Point": "192 °C"
    }
}