{
    "cas_no": "776-04-5",
    "key_name": "2-(Trifluoromethyl)benzenesulfonyl chloride",
    "cn_name": "2-三氟甲基苯磺酰氯;邻三氟甲基苯磺酰氯;",
    "alternate_name": "Benzenesulfonyl chloride, 2-(trifluoromethyl)-;<em>o</em>-Toluenesulfonyl chloride, α,α,α-trifluoro-;2-(Trifluoromethyl)benzenesulfonyl chloride;2-(Trifluoromethyl)phenylsulfonyl chloride;2-(Trifluoromethyl)benzene-1-sulfonyl chloride;<em>o</em>-(Trifluoromethyl)benzenesulfonyl chloride",
    "duplicated_cas_no": "",
    "SMILES": "C(F)(F)(F)C1=C(S(Cl)(=O)=O)C=CC=C1",
    "meta_data": {
        "InChI": "InChI=1S/C7H4ClF3O2S/c8-14(12,13)6-4-2-1-3-5(6)7(9,10)11/h1-4H",
        "InChIKey": null,
        "Canonical SMILES": "O=S(=O)(Cl)C=1C=CC=CC1C(F)(F)F",
        "Molecular Formula": "C<sub>7</sub>H<sub>4</sub>ClF<sub>3</sub>O<sub>2</sub>S",
        "Molecular Mass": "244.62",
        "Boiling Point": "123-126 °C @ Press: 5 Torr"
    }
}