{
    "cas_no": "68524-30-1",
    "key_name": "2-[(Diphenylmethyl)thio]acetamide",
    "cn_name": "2-[(二苯基甲基)硫基]乙酰胺;二苯甲基硫乙酰胺;",
    "alternate_name": "Acetamide, 2-[(diphenylmethyl)thio]-;2-[(Diphenylmethyl)thio]acetamide;2-(Benzhydrylthio)acetamide;2-Benzhydrylsulfanylacetamide",
    "duplicated_cas_no": "",
    "SMILES": "C(SCC(N)=O)(C1=CC=CC=C1)C2=CC=CC=C2",
    "meta_data": {
        "InChI": "InChI=1S/C15H15NOS/c16-14(17)11-18-15(12-7-3-1-4-8-12)13-9-5-2-6-10-13/h1-10,15H,11H2,(H2,16,17)",
        "InChIKey": null,
        "Canonical SMILES": "O=C(N)CSC(C=1C=CC=CC1)C=2C=CC=CC2",
        "Molecular Formula": "C<sub>15</sub>H<sub>15</sub>NOS",
        "Molecular Mass": "257.35",
        "Melting Point": "109-110 °C"
    }
}