{
    "cas_no": "114772-54-2",
    "key_name": "4-(Bromomethyl)-2′-cyanobiphenyl",
    "cn_name": "2-氰基-4\"-溴甲基联苯;",
    "alternate_name": "[1,1′-Biphenyl]-2-carbonitrile, 4′-(bromomethyl)-;4′-(Bromomethyl)[1,1′-biphenyl]-2-carbonitrile;4-(Bromomethyl)-2′-cyanobiphenyl;4′-(Bromomethyl)-2-cyanobiphenyl;2-Cyano-4′-(bromomethyl)biphenyl;4-(2-Cyanophenyl)benzyl bromide;4′-Bromomethylbiphenyl-2-carbonitrile;2-(4-Bromomethylphenyl)benzonitrile;2′-(Cyano)biphenyl-4-ylmethyl bromide;4-Bromomethyl-2′-cyano-1,1′-biphenyl;2′-Cyano-4-(bromomethyl)-1,1′-biphenyl;2-(4′-Bromomethylphenyl)benzonitrile;4′-Bromomethyl-2-cyano-1,1′-biphenyl",
    "duplicated_cas_no": "",
    "SMILES": "C(#N)C1=C(C=CC=C1)C2=CC=C(CBr)C=C2",
    "meta_data": {
        "InChI": "InChI=1S/C14H10BrN/c15-9-11-5-7-12(8-6-11)14-4-2-1-3-13(14)10-16/h1-8H,9H2",
        "InChIKey": null,
        "Canonical SMILES": "N#CC=1C=CC=CC1C=2C=CC(=CC2)CBr",
        "Molecular Formula": "C<sub>14</sub>H<sub>10</sub>BrN",
        "Molecular Mass": "272.14",
        "Melting Point": "120-122 °C"
    }
}