{
    "cas_no": "687-51-4",
    "key_name": "<span class=\"text-smallcaps\">L</span>-Leucinamide",
    "cn_name": null,
    "alternate_name": "Pentanamide, 2-amino-4-methyl-, (2<em>S</em>)-;Leucinamide, <span class=\"text-smallcaps\">L</span>-;Pentanamide, 2-amino-4-methyl-, (<em>S</em>)-;(2<em>S</em>)-2-Amino-4-methylpentanamide;<span class=\"text-smallcaps\">L</span>-Leucinamide;<span class=\"text-smallcaps\">L</span>-Leucine amide;Leucine amide;H-Leu-NH<sub>2</sub>;(<em>S</em>)-2-Amino-4-methylpentanamide;(2S)-2-Amino-4-methylpentanamide",
    "duplicated_cas_no": "",
    "SMILES": "[C@H](CC(C)C)(C(N)=O)N",
    "meta_data": {
        "InChI": "InChI=1S/C6H14N2O/c1-4(2)3-5(7)6(8)9/h4-5H,3,7H2,1-2H3,(H2,8,9)/t5-/m0/s1",
        "InChIKey": null,
        "Canonical SMILES": "O=C(N)C(N)CC(C)C",
        "Molecular Formula": "C<sub>6</sub>H<sub>14</sub>N<sub>2</sub>O",
        "Molecular Mass": "130.19",
        "Melting Point": "84-85 °C"
    }
}