{
    "cas_no": "400-44-2",
    "key_name": "2-Chloro-1,1,1,4,4,4-hexafluoro-2-butene",
    "cn_name": null,
    "alternate_name": "2-Butene, 2-chloro-1,1,1,4,4,4-hexafluoro-;2-Chloro-1,1,1,4,4,4-hexafluoro-2-butene;R 1326mxz;1,1,1,4,4,4-Hexafluoro-2-chlorobutene;CFC 1326;HCFO 1326mxz;HCFO-1326;FC-1326mxz",
    "duplicated_cas_no": "",
    "SMILES": "C(=CC(F)(F)F)(C(F)(F)F)Cl",
    "meta_data": {
        "InChI": "InChI=1S/C4HClF6/c5-2(4(9,10)11)1-3(6,7)8/h1H",
        "InChIKey": null,
        "Canonical SMILES": "FC(F)(F)C=C(Cl)C(F)(F)F",
        "Molecular Formula": "C<sub>4</sub>HClF<sub>6</sub>",
        "Molecular Mass": "198.49",
        "Boiling Point": "33.5 °C",
        "Density": "1.487 g/cm³ @ Temp: 17 °C"
    }
}