{
    "cas_no": "64952-97-2",
    "key_name": "Moxalactam",
    "cn_name": "拉氧头孢;7-((羧基(4-羟基苯基)乙酰)氨基)-7-甲氧基-(3-((1-甲基-1H-四唑-5-基)硫)甲基)-8-氧代-5-氧杂-1-;",
    "alternate_name": "5-Oxa-1-azabicyclo[4.2.0]oct-2-ene-2-carboxylic acid, 7-[[(2<em>R</em>)-2-carboxy-2-(4-hydroxyphenyl)acetyl]amino]-7-methoxy-3-[[(1-methyl-1<em>H</em>-tetrazol-5-yl)thio]methyl]-8-oxo-, (6<em>R</em>,7<em>R</em>)-;5-Oxa-1-azabicyclo[4.2.0]oct-2-ene-2-carboxylic acid, 7-[[carboxy(4-hydroxyphenyl)acetyl]amino]-7-methoxy-3-[[(1-methyl-1<em>H</em>-tetrazol-5-yl)thio]methyl]-8-oxo-, [6<em>R</em>-[6α,7α,7(<em>R</em>*)]]-;5-Oxa-1-azabicyclo[4.2.0]oct-2-ene-2-carboxylic acid, 7-[[(2<em>R</em>)-carboxy(4-hydroxyphenyl)acetyl]amino]-7-methoxy-3-[[(1-methyl-1<em>H</em>-tetrazol-5-yl)thio]methyl]-8-oxo-, (6<em>R</em>,7<em>R</em>)-;(6<em>R</em>,7<em>R</em>)-7-[[(2<em>R</em>)-2-Carboxy-2-(4-hydroxyphenyl)acetyl]amino]-7-methoxy-3-[[(1-methyl-1<em>H</em>-tetrazol-5-yl)thio]methyl]-8-oxo-5-oxa-1-azabicyclo[4.2.0]oct-2-ene-2-carboxylic acid;Moxalactam;Oxa-cephem;Latamoxef;Lamoxactam;Moxam",
    "duplicated_cas_no": "75007-71-5",
    "SMILES": "N(C([C@H](C(O)=O)C1=CC=C(O)C=C1)=O)[C@@]2(OC)[C@@]3(N(C2=O)C(C(O)=O)=C(CSC=4N(C)N=NN4)CO3)[H]",
    "meta_data": {
        "InChI": "InChI=1S/C20H20N6O9S/c1-25-19(22-23-24-25)36-8-10-7-35-18-20(34-2,17(33)26(18)13(10)16(31)32)21-14(28)12(15(29)30)9-3-5-11(27)6-4-9/h3-6,12,18,27H,7-8H2,1-2H3,(H,21,28)(H,29,30)(H,31,32)/t12-,18-,20+/m1/s1",
        "InChIKey": null,
        "Canonical SMILES": "O=C(O)C1=C(COC2N1C(=O)C2(OC)NC(=O)C(C(=O)O)C3=CC=C(O)C=C3)CSC4=NN=NN4C",
        "Molecular Formula": "C<sub>20</sub>H<sub>20</sub>N<sub>6</sub>O<sub>9</sub>S",
        "Molecular Mass": "520.47",
        "Melting Point": "117-122 °C"
    }
}