{
    "cas_no": "32634-95-0",
    "key_name": "17-(Acetyloxy)-6-methylenepregn-4-ene-3,20-dione",
    "cn_name": null,
    "alternate_name": "Pregn-4-ene-3,20-dione, 17-(acetyloxy)-6-methylene-;Pregn-4-ene-3,20-dione, 17-hydroxy-6-methylene-, acetate;Progesterone, 17-hydroxy-6-methylene-, acetate;17-(Acetyloxy)-6-methylenepregn-4-ene-3,20-dione;17-Acetoxy-6-methylenepregn-4-ene-3,20-dione;17α-Acetoxy-6-methyleneprogesterone;6,6′-Dehydromedroxyprogesterone acetate;NSC 58799;17α-Acetoxy-6-methylenepregn-4-ene-3,20-dione",
    "duplicated_cas_no": "",
    "SMILES": "O(C(C)=O)[C@@]1(C(C)=O)[C@]2(C)[C@@](CC1)([C@]3([C@](CC2)([C@]4(C)C(C(=C)C3)=CC(=O)CC4)[H])[H])[H]",
    "meta_data": {
        "InChI": "InChI=1S/C24H32O4/c1-14-12-18-19(22(4)9-6-17(27)13-21(14)22)7-10-23(5)20(18)8-11-24(23,15(2)25)28-16(3)26/h13,18-20H,1,6-12H2,2-5H3/t18-,19+,20+,22-,23+,24+/m1/s1",
        "InChIKey": null,
        "Canonical SMILES": "O=C(OC1(C(=O)C)CCC2C3CC(=C)C4=CC(=O)CCC4(C)C3CCC21C)C",
        "Molecular Formula": "C<sub>24</sub>H<sub>32</sub>O<sub>4</sub>",
        "Molecular Mass": "384.51",
        "Melting Point": "248-251 °C"
    }
}