{
    "cas_no": "32595-49-6",
    "key_name": "4-[(2-Aminoacetyl)amino]butanoic acid",
    "cn_name": "甘氨酰-4-氨基-N-丁酸;",
    "alternate_name": "Butanoic acid, 4-[(2-aminoacetyl)amino]-;Butanoic acid, 4-[(aminoacetyl)amino]-;4-[(2-Aminoacetyl)amino]butanoic acid;Glycyl-γ-aminobutyric acid;Gly-γ-Abu;NSC 203795",
    "duplicated_cas_no": "",
    "SMILES": "N(CCCC(O)=O)C(CN)=O",
    "meta_data": {
        "InChI": "InChI=1S/C6H12N2O3/c7-4-5(9)8-3-1-2-6(10)11/h1-4,7H2,(H,8,9)(H,10,11)",
        "InChIKey": null,
        "Canonical SMILES": "O=C(O)CCCNC(=O)CN",
        "Molecular Formula": "C<sub>6</sub>H<sub>12</sub>N<sub>2</sub>O<sub>3</sub>",
        "Molecular Mass": "160.17",
        "Melting Point": "223 °C"
    }
}