{
    "cas_no": "99-56-9",
    "key_name": "4-Nitro-1,2-phenylenediamine",
    "cn_name": "4-硝基邻苯二胺;",
    "alternate_name": "1,2-Benzenediamine, 4-nitro-;<em>o</em>-Phenylenediamine, 4-nitro-;4-Nitro-1,2-benzenediamine;C.I. 76020;4-Nitro-1,2-diaminobenzene;4-Nitro-<em>o</em>-phenylenediamine;4-Nitro-1,2-phenylenediamine;<em>p</em>-Nitro-<em>o</em>-phenylenediamine;1,2-Diamino-4-nitrobenzene;3,4-Diaminonitrobenzene;2-Amino-4-nitroaniline;4-Nitro-2-aminoaniline;2-Amino-5-nitroaniline;NSC 5378;(2-Amino-4-nitrophenyl)amine;Ancamine 2730",
    "duplicated_cas_no": "",
    "SMILES": "N(=O)(=O)C1=CC(N)=C(N)C=C1",
    "meta_data": {
        "InChI": "InChI=1S/C6H7N3O2/c7-5-2-1-4(9(10)11)3-6(5)8/h1-3H,7-8H2",
        "InChIKey": null,
        "Canonical SMILES": "O=N(=O)C1=CC=C(N)C(N)=C1",
        "Molecular Formula": "C<sub>6</sub>H<sub>7</sub>N<sub>3</sub>O<sub>2</sub>",
        "Molecular Mass": "153.14",
        "Melting Point": "199-200 °C"
    }
}