{
    "cas_no": "4250-77-5",
    "key_name": "(±)-6-Hydroxyflavanone",
    "cn_name": null,
    "alternate_name": "4<em>H</em>-1-Benzopyran-4-one, 2,3-dihydro-6-hydroxy-2-phenyl-;Flavanone, 6-hydroxy-;2,3-Dihydro-6-hydroxy-2-phenyl-4<em>H</em>-1-benzopyran-4-one;6-Hydroxyflavanone;(±)-6-Hydroxyflavanone;6-Hydroxy-2-phenylchroman-4-one;CSU-1814;CSU 1814",
    "duplicated_cas_no": "118178-33-9",
    "SMILES": "O=C1C=2C(OC(C1)C3=CC=CC=C3)=CC=C(O)C2",
    "meta_data": {
        "InChI": "InChI=1S/C15H12O3/c16-11-6-7-14-12(8-11)13(17)9-15(18-14)10-4-2-1-3-5-10/h1-8,15-16H,9H2",
        "InChIKey": null,
        "Canonical SMILES": "O=C1C2=CC(O)=CC=C2OC(C=3C=CC=CC3)C1",
        "Molecular Formula": "C<sub>15</sub>H<sub>12</sub>O<sub>3</sub>",
        "Molecular Mass": "240.25",
        "Melting Point": "213-214 °C"
    }
}