{
    "cas_no": "1544-86-1",
    "key_name": "1-(Difluoromethoxy)-4-nitrobenzene",
    "cn_name": "4-(二氟甲氧基)硝基苯;4-(二氟甲氧基)硝基苯;1-二氟甲氧基-4-硝基苯;4-硝基二氟甲氧基苯;1-二氟甲氧基-4-硝;",
    "alternate_name": "Benzene, 1-(difluoromethoxy)-4-nitro-;Anisole, α,α-difluoro-<em>p</em>-nitro-;1-(Difluoromethoxy)-4-nitrobenzene;α,α-Difluoro-<em>p</em>-nitroanisole;<em>p</em>-Nitrophenyl difluoromethyl ether;Difluoromethyl 4-nitrophenyl ether;1-Difluoromethoxy-4-nitrobenzene;4-(Difluoromethoxy)nitrobenzene;2-Difluoromethoxy-5-nitrobenzene",
    "duplicated_cas_no": "",
    "SMILES": "O(C(F)F)C1=CC=C(N(=O)=O)C=C1",
    "meta_data": {
        "InChI": "InChI=1S/C7H5F2NO3/c8-7(9)13-6-3-1-5(2-4-6)10(11)12/h1-4,7H",
        "InChIKey": null,
        "Canonical SMILES": "O=N(=O)C1=CC=C(OC(F)F)C=C1",
        "Molecular Formula": "C<sub>7</sub>H<sub>5</sub>F<sub>2</sub>NO<sub>3</sub>",
        "Molecular Mass": "189.12",
        "Melting Point": "30-31 °C"
    }
}