{
    "cas_no": "13959-02-9",
    "key_name": "3-Bromoisonicotinic acid",
    "cn_name": "3-溴异烟酸;维生素E;",
    "alternate_name": "4-Pyridinecarboxylic acid, 3-bromo-;Isonicotinic acid, 3-bromo-;3-Bromo-4-pyridinecarboxylic acid;3-Bromoisonicotinic acid",
    "duplicated_cas_no": "",
    "SMILES": "C(O)(=O)C=1C(Br)=CN=CC1",
    "meta_data": {
        "InChI": "InChI=1S/C6H4BrNO2/c7-5-3-8-2-1-4(5)6(9)10/h1-3H,(H,9,10)",
        "InChIKey": null,
        "Canonical SMILES": "O=C(O)C=1C=CN=CC1Br",
        "Molecular Formula": "C<sub>6</sub>H<sub>4</sub>BrNO<sub>2</sub>",
        "Molecular Mass": "202.01",
        "Melting Point": "220 °C"
    }
}