{
    "cas_no": "19562-30-2",
    "key_name": "Piromidic acid",
    "cn_name": "吡咯酸;吡咯酸标准品;吡咯甲酸;吡咯米酸;吡咯嘧啶酸;吡乙酸三氮萘;",
    "alternate_name": "Pyrido[2,3-<em>d</em>]pyrimidine-6-carboxylic acid, 8-ethyl-5,8-dihydro-5-oxo-2-(1-pyrrolidinyl)-;8-Ethyl-5,8-dihydro-5-oxo-2-(1-pyrrolidinyl)pyrido[2,3-<em>d</em>]pyrimidine-6-carboxylic acid;8-Ethyl-5,8-dihydro-5-oxo-2-pyrrolidinopyrido[2,3-<em>d</em>]pyrimidine-6-carboxylic acid;Piromidic acid;5,8-Dihydro-8-ethyl-5-oxo-2-pyrrolidinopyrido[2,3-<em>d</em>]pyrimidine-6-carboxylic acid;PD 93;Panacid;Pyromidic acid;Septural;Enterol;Purim;Reelon;Pirudal;Gastrurol;Bactramyl;Uropir;NSC 291120",
    "duplicated_cas_no": "",
    "SMILES": "C(C)N1C=2C(C(=O)C(C(O)=O)=C1)=CN=C(N2)N3CCCC3",
    "meta_data": {
        "InChI": "InChI=1S/C14H16N4O3/c1-2-17-8-10(13(20)21)11(19)9-7-15-14(16-12(9)17)18-5-3-4-6-18/h7-8H,2-6H2,1H3,(H,20,21)",
        "InChIKey": null,
        "Canonical SMILES": "O=C(O)C1=CN(C2=NC(=NC=C2C1=O)N3CCCC3)CC",
        "Molecular Formula": "C<sub>14</sub>H<sub>16</sub>N<sub>4</sub>O<sub>3</sub>",
        "Molecular Mass": "288.30",
        "Melting Point": "315 °C"
    }
}