{
    "cas_no": "1344-08-7",
    "key_name": "Sodium polysulfide",
    "cn_name": "多硫化钠;",
    "alternate_name": "Sodium sulfide (Na<sub>2</sub>(S<sub>x</sub>));Sodium polysulfide;Disodium polysulfide",
    "duplicated_cas_no": "9071-94-7;12439-17-7;37301-04-5",
    "SMILES": "",
    "meta_data": {
        "InChI": "",
        "InChIKey": null,
        "Canonical SMILES": "",
        "Molecular Formula": "Unspecified",
        "Molecular Mass": "",
        "Melting Point": "400 °C"
    }
}