{
    "uri": "substance/pt/1344087",
    "rn": "1344-08-7",
    "name": "Sodium polysulfide",
    "images": [],
    "inchi": "",
    "inchiKey": "",
    "smile": "",
    "canonicalSmile": "",
    "molecularFormula": "Unspecified",
    "molecularMass": "",
    "experimentalProperties": [
        {
            "name": "Melting Point",
            "property": "400 °C",
            "sourceNumber": 1
        }
    ],
    "propertyCitations": [
        {
            "docUri": "document/pt/document/14899051",
            "sourceNumber": 1,
            "source": "Spengler, Gunter; DE1106143, 1961, CAplus"
        }
    ],
    "synonyms": [
        "Sodium sulfide (Na<sub>2</sub>(S<sub>x</sub>))",
        "Sodium polysulfide",
        "Disodium polysulfide"
    ],
    "replacedRns": [
        "9071-94-7",
        "12439-17-7",
        "37301-04-5"
    ],
    "hasMolfile": false,
    "source": "https://commonchemistry.cas.org/detail?cas_rn=1344-08-7"
}