{
    "cas_no": "616-83-1",
    "key_name": "4-Methyl-3-nitrobenzenesulfonyl chloride",
    "cn_name": "4-甲基-3-硝基苯磺酰氯;3-硝基-4-甲基苯磺酰氯;",
    "alternate_name": "Benzenesulfonyl chloride, 4-methyl-3-nitro-;<em>p</em>-Toluenesulfonyl chloride, 3-nitro-;4-Methyl-3-nitrobenzenesulfonyl chloride;2-Nitrotoluene-4-sulfonyl chloride;4-Methyl-3-nitrobenzene-1-sulfonyl chloride",
    "duplicated_cas_no": "",
    "SMILES": "N(=O)(=O)C1=CC(S(Cl)(=O)=O)=CC=C1C",
    "meta_data": {
        "InChI": "InChI=1S/C7H6ClNO4S/c1-5-2-3-6(14(8,12)13)4-7(5)9(10)11/h2-4H,1H3",
        "InChIKey": null,
        "Canonical SMILES": "O=N(=O)C1=CC(=CC=C1C)S(=O)(=O)Cl",
        "Molecular Formula": "C<sub>7</sub>H<sub>6</sub>ClNO<sub>4</sub>S",
        "Molecular Mass": "235.64",
        "Melting Point": "34 °C"
    }
}