{
    "cas_no": "19829-32-4",
    "key_name": "1-Bromo-3-propylbenzene",
    "cn_name": null,
    "alternate_name": "Benzene, 1-bromo-3-propyl-;1-Bromo-3-propylbenzene;3-Propylbromobenzene",
    "duplicated_cas_no": "",
    "SMILES": "C(CC)C1=CC(Br)=CC=C1",
    "meta_data": {
        "InChI": "InChI=1S/C9H11Br/c1-2-4-8-5-3-6-9(10)7-8/h3,5-7H,2,4H2,1H3",
        "InChIKey": null,
        "Canonical SMILES": "BrC1=CC=CC(=C1)CCC",
        "Molecular Formula": "C<sub>9</sub>H<sub>11</sub>Br",
        "Molecular Mass": "199.09",
        "Boiling Point": "96-100 °C @ Press: 17 Torr"
    }
}