{
    "cas_no": "81945-73-5",
    "key_name": "1-Hydroxypyrazole",
    "cn_name": null,
    "alternate_name": "1<em>H</em>-Pyrazole, 1-hydroxy-;1-Hydroxy-1<em>H</em>-pyrazole;1-Hydroxypyrazole;<em>N</em>-Hydroxypyrazole;Pyrazol-1-ol",
    "duplicated_cas_no": "126248-89-3;169382-96-1",
    "SMILES": "ON1C=CC=N1",
    "meta_data": {
        "InChI": "InChI=1S/C3H4N2O/c6-5-3-1-2-4-5/h1-3,6H",
        "InChIKey": null,
        "Canonical SMILES": "ON1N=CC=C1",
        "Molecular Formula": "C<sub>3</sub>H<sub>4</sub>N<sub>2</sub>O",
        "Molecular Mass": "84.08",
        "Melting Point": "74 °C"
    }
}