{
    "cas_no": "68104-61-0",
    "key_name": "1-[4-(1,1-Dimethylethyl)phenyl]piperazine",
    "cn_name": null,
    "alternate_name": "Piperazine, 1-[4-(1,1-dimethylethyl)phenyl]-;Piperazine, 1-(<em>p</em>-<em>tert</em>-butylphenyl)-;1-[4-(1,1-Dimethylethyl)phenyl]piperazine;<em>N</em>-(4-<em>tert</em>-Butylphenyl)piperazine;1-(4-<em>tert</em>-Butylphenyl)piperazine;1-(<em>p</em>-<em>tert</em>-Butylphenyl)piperazine;4-(4-<em>tert</em>-Butylphenyl)piperazine",
    "duplicated_cas_no": "",
    "SMILES": "C(C)(C)(C)C1=CC=C(C=C1)N2CCNCC2",
    "meta_data": {
        "InChI": "InChI=1S/C14H22N2/c1-14(2,3)12-4-6-13(7-5-12)16-10-8-15-9-11-16/h4-7,15H,8-11H2,1-3H3",
        "InChIKey": null,
        "Canonical SMILES": "C=1C=C(C=CC1N2CCNCC2)C(C)(C)C",
        "Molecular Formula": "C<sub>14</sub>H<sub>22</sub>N<sub>2</sub>",
        "Molecular Mass": "218.34",
        "Melting Point": "48-52 °C"
    }
}