{
    "cas_no": "112-82-3",
    "key_name": "1-Bromohexadecane",
    "cn_name": "溴代十六烷;",
    "alternate_name": "Hexadecane, 1-bromo-;1-Bromohexadecane;Hexadecyl bromide;Cetyl bromide;<em>n</em>-Hexadecyl bromide;1-Hexadecyl bromide;Palmityl bromide;NSC 4193",
    "duplicated_cas_no": "",
    "SMILES": "C(CCCCCCCBr)CCCCCCCC",
    "meta_data": {
        "InChI": "InChI=1S/C16H33Br/c1-2-3-4-5-6-7-8-9-10-11-12-13-14-15-16-17/h2-16H2,1H3",
        "InChIKey": null,
        "Canonical SMILES": "BrCCCCCCCCCCCCCCCC",
        "Molecular Formula": "C<sub>16</sub>H<sub>33</sub>Br",
        "Molecular Mass": "305.34",
        "Boiling Point": "336 °C",
        "Melting Point": "18 °C",
        "Density": "1.000 g/cm³ @ Temp: 20 °C"
    }
}