{
    "cas_no": "60811-21-4",
    "key_name": "4-Bromo-2-chloro-1-fluorobenzene",
    "cn_name": "3-氯-4-氟溴苯;4-溴-2-氯氟苯;",
    "alternate_name": "Benzene, 4-bromo-2-chloro-1-fluoro-;4-Bromo-2-chloro-1-fluorobenzene;3-Chloro-4-fluorobromobenzene;4-Bromo-2-chlorofluorobenzene;1-Bromo-3-chloro-4-fluorobenzene;5-Bromo-2-fluorochlorobenzene;1-Bromo-4-Fluoro-3-chlorobenzene;3-Chloro-4-fluorophenyl bromide",
    "duplicated_cas_no": "",
    "SMILES": "ClC1=C(F)C=CC(Br)=C1",
    "meta_data": {
        "InChI": "InChI=1S/C6H3BrClF/c7-4-1-2-6(9)5(8)3-4/h1-3H",
        "InChIKey": null,
        "Canonical SMILES": "FC1=CC=C(Br)C=C1Cl",
        "Molecular Formula": "C<sub>6</sub>H<sub>3</sub>BrClF",
        "Molecular Mass": "209.44",
        "Boiling Point": "92 °C @ Press: 35 Torr"
    }
}