{
    "cas_no": "3770-97-6",
    "key_name": "1,2-Naphthoquinonediazide-5-sulfonyl chloride",
    "cn_name": "2-重氮-1-萘酚-5-磺酰氯;2.1.5磺酰氯;215磺酰氯;",
    "alternate_name": "1-Naphthalenesulfonyl chloride, 6-diazo-5,6-dihydro-5-oxo-;6-Diazo-5,6-dihydro-5-oxo-1-naphthalenesulfonyl chloride;2-Diazo-1-naphthol-5-sulfonyl chloride;2-Diazo-1(2<em>H</em>)-naphthalenone-5-sulfonyl chloride;1,2-Naphthoquinone-2-diazide-5-sulfonyl chloride;6-Diazo-5-hydroxy-1-naphthalenesulfonyl chloride;2-Diazo-1-oxonaphthalene-5-sulfonyl chloride;2-Diazo-1,2-dihydro-1-oxonaphthalene-5-sulfonyl chloride;5-(Chlorosulfonyl)-1,2-naphthoquinone-2-diazide;2-Diazo-1-naphtho-5-sulfonyl chloride;2-Diazo-1,2-naphthoquinone-5-sulfonyl chloride;2-Diazo-1-oxo-1,2-dihydronaphthalene-5-sulfonyl chloride;1,2-Naphthoquinonediazido-5-sulfonyl chloride;6-Diazo-5-oxo-1-naphthalenesulfonyl chloride;3-Diazo-4-oxo-1-naphthalenesulfonyl chloride;1-Oxo-2-diazonaphthoquinone-5-sulfonyl chloride;1-Oxo-1,2-dihydro-2-diazonaphthalene-5-sulfonyl chloride;1,2-Naphthoquinonediazide-5-sulfonyl chloride;<em>o</em>-Naphthoquinonediazide-5-sulfonyl chloride;1,2-Naphthoquinone-2-diazido-5-sulfonyl chloride;NAC 5;5-Naphthoquinonediazidesulfonyl chloride;2-Diazo-1,2-dihydro-1-oxonaphthalene-5-sulphonyl chloride;1,2-Naphthoquinone-2-diazido-5-sulfonic chloride",
    "duplicated_cas_no": "28020-74-8;68959-13-7;138860-89-6;1001756-09-7",
    "SMILES": "S(Cl)(=O)(=O)C1=C2C(C(=O)C(=[N+]=[N-])C=C2)=CC=C1",
    "meta_data": {
        "InChI": "InChI=1S/C10H5ClN2O3S/c11-17(15,16)9-3-1-2-7-6(9)4-5-8(13-12)10(7)14/h1-5H",
        "InChIKey": null,
        "Canonical SMILES": "[N-]=[N+]=C1C=CC=2C(=CC=CC2S(=O)(=O)Cl)C1=O",
        "Molecular Formula": "C<sub>10</sub>H<sub>5</sub>ClN<sub>2</sub>O<sub>3</sub>S",
        "Molecular Mass": "",
        "Melting Point": "139 °C (decomp)"
    }
}