{
    "cas_no": "2134-24-9",
    "key_name": "<em>N</em>-Benzoyl-<span class=\"text-smallcaps\">DL</span>-phenylalanine β-naphthyl ester",
    "cn_name": "N-苯甲酰-DL-苯基丙氨酸β-苯基酯;",
    "alternate_name": "Phenylalanine, <em>N</em>-benzoyl-, 2-naphthalenyl ester;Alanine, <em>N</em>-benzoyl-3-phenyl-, 2-naphthyl ester, <span class=\"text-smallcaps\">DL</span>-;Alanine, <em>N</em>-benzoyl-3-phenyl-, 2-naphthyl ester;2-Naphthol, ester with <em>N</em>-benzoyl-3-phenyl-<span class=\"text-smallcaps\">DL</span>-alanine;<em>N</em>-Benzoyl-<span class=\"text-smallcaps\">DL</span>-phenylalanine β-naphthyl ester",
    "duplicated_cas_no": "",
    "SMILES": "O(C(C(CC1=CC=CC=C1)NC(=O)C2=CC=CC=C2)=O)C3=CC4=C(C=C3)C=CC=C4",
    "meta_data": {
        "InChI": "InChI=1S/C26H21NO3/c28-25(21-12-5-2-6-13-21)27-24(17-19-9-3-1-4-10-19)26(29)30-23-16-15-20-11-7-8-14-22(20)18-23/h1-16,18,24H,17H2,(H,27,28)",
        "InChIKey": null,
        "Canonical SMILES": "O=C(OC=1C=CC=2C=CC=CC2C1)C(NC(=O)C=3C=CC=CC3)CC=4C=CC=CC4",
        "Molecular Formula": "C<sub>26</sub>H<sub>21</sub>NO<sub>3</sub>",
        "Molecular Mass": "395.45",
        "Melting Point": "156-157 °C"
    }
}