{
    "cas_no": "698-29-3",
    "key_name": "4-Amino-2-methyl-5-pyrimidinecarbonitrile",
    "cn_name": null,
    "alternate_name": "5-Pyrimidinecarbonitrile, 4-amino-2-methyl-;4-Amino-2-methyl-5-pyrimidinecarbonitrile;4-Amino-5-cyano-2-methylpyrimidine;5-Cyano-4-amino-2-methylpyrimidine;2-Methyl-4-amino-5-cyanopyrimidine;NSC 459;Pynitrile",
    "duplicated_cas_no": "",
    "SMILES": "C(#N)C=1C(N)=NC(C)=NC1",
    "meta_data": {
        "InChI": "InChI=1S/C6H6N4/c1-4-9-3-5(2-7)6(8)10-4/h3H,1H3,(H2,8,9,10)",
        "InChIKey": null,
        "Canonical SMILES": "N#CC1=CN=C(N=C1N)C",
        "Molecular Formula": "C<sub>6</sub>H<sub>6</sub>N<sub>4</sub>",
        "Molecular Mass": "134.14",
        "Melting Point": "249 °C"
    }
}