{
    "cas_no": "45521-09-3",
    "key_name": "(<em>S</em>)-4-Thiazolidinecarboxylic acid",
    "cn_name": null,
    "alternate_name": "4-Thiazolidinecarboxylic acid, (4<em>S</em>)-;4-Thiazolidinecarboxylic acid, (<em>S</em>)-;(4<em>S</em>)-4-Thiazolidinecarboxylic acid;<span class=\"text-smallcaps\">D</span>-Thiazolidine-4-carboxylic acid;(<em>S</em>)-4-Thiazolidinecarboxylic acid;<span class=\"text-smallcaps\">L</span>-4-Thioproline;(4<em>S</em>)-1,3-Thiazolidine-4-carboxylic acid;(4S)-1,3-Thiazolidine-4-carboxylic acid",
    "duplicated_cas_no": "",
    "SMILES": "C(O)(=O)[C@H]1CSCN1",
    "meta_data": {
        "InChI": "InChI=1S/C4H7NO2S/c6-4(7)3-1-8-2-5-3/h3,5H,1-2H2,(H,6,7)/t3-/m1/s1",
        "InChIKey": null,
        "Canonical SMILES": "O=C(O)C1NCSC1",
        "Molecular Formula": "C<sub>4</sub>H<sub>7</sub>NO<sub>2</sub>S",
        "Molecular Mass": "133.17",
        "Melting Point": "196-197 °C"
    }
}