{
    "cas_no": "36861-47-9",
    "key_name": "3-(4′-Methylbenzylidene)camphor",
    "cn_name": "3-(4-甲基苯亚甲基)樟脑;3-(4-甲基亚苄基)樟脑;(3E)-1,7,7-三甲基-3-[(4-甲基苯基)亚甲基]双环[2.2.1]庚烷-;",
    "alternate_name": "Bicyclo[2.2.1]heptan-2-one, 1,7,7-trimethyl-3-[(4-methylphenyl)methylene]-;Bicyclo[2.2.1]heptan-2-one, 1,7,7-trimethyl-3-[(4-methylphenyl)methylene]-, (±)-;1,7,7-Trimethyl-3-[(4-methylphenyl)methylene]bicyclo[2.2.1]heptan-2-one;3-(4-Methylbenzylidene)-<span class=\"text-smallcaps\">DL</span>-camphor;3-(<em>p</em>-Methylbenzylidene)-<span class=\"text-smallcaps\">DL</span>-camphor;Eusolex 6300;3-(4-Methylbenzylidene)camphor;3-(<em>p</em>-Methylbenzylidene)camphor;<em>p</em>-Methylbenzylidenecamphor;1,7,7-Trimethyl-3-(4-methylbenzylidene)bicyclo[2.2.1]heptan-2-one;4-Methylbenzylidenecamphor;3-(4′-Methylbenzylidene)camphor;Parsol 5000;3-(4-Methylbenzylidene)bornan-2-one;Enzacamene;Neo Heliopan MBC;Uvinul MBC 95;Methylbenzylidenecamphor;Parsol 500;3-(4-Methylbenzylidene)-<em>dl</em>-camphor;4-MBC",
    "duplicated_cas_no": "38102-62-4;84055-65-2",
    "SMILES": "CC12C(C)(C)C(C(=CC3=CC=C(C)C=C3)C1=O)CC2",
    "meta_data": {
        "InChI": "InChI=1S/C18H22O/c1-12-5-7-13(8-6-12)11-14-15-9-10-18(4,16(14)19)17(15,2)3/h5-8,11,15H,9-10H2,1-4H3",
        "InChIKey": null,
        "Canonical SMILES": "O=C1C(=CC2=CC=C(C=C2)C)C3CCC1(C)C3(C)C",
        "Molecular Formula": "C<sub>18</sub>H<sub>22</sub>O",
        "Molecular Mass": "254.37",
        "Boiling Point": "198-200 °C",
        "Melting Point": "-25 °C"
    }
}