{
    "cas_no": "586-06-1",
    "key_name": "Metaproterenol",
    "cn_name": "奥西那林;5-(1-羟基-2-异丙基氨基乙基)苯-1,3-二酚;",
    "alternate_name": "1,3-Benzenediol, 5-[1-hydroxy-2-[(1-methylethyl)amino]ethyl]-;Benzyl alcohol, 3,5-dihydroxy-α-[(isopropylamino)methyl]-;5-[1-Hydroxy-2-[(1-methylethyl)amino]ethyl]-1,3-benzenediol;3,5-Dihydroxy-α-[(isopropylamino)methyl]benzyl alcohol;Metaproterenol;Orciprenaline;1-(3,5-Dihydroxyphenyl)-2-(isopropylamino)ethanol;(±)-Orciprenaline;(±)-Metaproterenol;3,5-Dihydroxy-α-[(isopropylamino)methyl]benzenemethanol",
    "duplicated_cas_no": "13392-25-1;46397-55-1",
    "SMILES": "C(CNC(C)C)(O)C1=CC(O)=CC(O)=C1",
    "meta_data": {
        "InChI": "InChI=1S/C11H17NO3/c1-7(2)12-6-11(15)8-3-9(13)5-10(14)4-8/h3-5,7,11-15H,6H2,1-2H3",
        "InChIKey": null,
        "Canonical SMILES": "OC=1C=C(O)C=C(C1)C(O)CNC(C)C",
        "Molecular Formula": "C<sub>11</sub>H<sub>17</sub>NO<sub>3</sub>",
        "Molecular Mass": "211.26",
        "Melting Point": "100 °C"
    }
}