{
    "cas_no": "1314-68-7",
    "key_name": "Rhenium oxide (Re<sub>2</sub>O<sub>7</sub>)",
    "cn_name": null,
    "alternate_name": "Rhenium oxide (Re<sub>2</sub>O<sub>7</sub>);Dirhenium heptoxide;Rhenium heptaoxide;Rhenium heptoxide;Dirhenium heptaoxide;Rhenium(VII) oxide",
    "duplicated_cas_no": "148054-99-3",
    "SMILES": "",
    "meta_data": {
        "InChI": "",
        "InChIKey": null,
        "Canonical SMILES": "",
        "Molecular Formula": "O<sub>7</sub>Re<sub>2</sub>",
        "Molecular Mass": "",
        "Boiling Point": "358.6 °C",
        "Melting Point": "26-30 °C",
        "Density": "6.14 g/cm³"
    }
}