{
    "uri": "substance/pt/1314687",
    "rn": "1314-68-7",
    "name": "Rhenium oxide (Re<sub>2</sub>O<sub>7</sub>)",
    "images": [],
    "inchi": "",
    "inchiKey": "",
    "smile": "",
    "canonicalSmile": "",
    "molecularFormula": "O<sub>7</sub>Re<sub>2</sub>",
    "molecularMass": "",
    "experimentalProperties": [
        {
            "name": "Boiling Point",
            "property": "358.6 °C",
            "sourceNumber": 1
        },
        {
            "name": "Melting Point",
            "property": "26-30 °C",
            "sourceNumber": 2
        },
        {
            "name": "Density",
            "property": "6.14 g/cm³",
            "sourceNumber": 3
        }
    ],
    "propertyCitations": [
        {
            "docUri": "document/pt/document/33851088",
            "sourceNumber": 1,
            "source": "Vitvitskii, A. I.; Russian Journal of Applied Chemistry, (2009), 82(3), 505-508, CAplus"
        },
        {
            "docUri": "document/pt/document/23282013",
            "sourceNumber": 2,
            "source": "Noddack, Walter; Zeitschrift fuer Elektrochemie und Angewandte Physikalische Chemie, (1928), 34, 627-9, CAplus"
        },
        {
            "docUri": "document/pt/document/21412115",
            "sourceNumber": 3,
            "source": "Krebs, Bernt; Chemical Communications (London), (1968), (5), 263-4, CAplus"
        }
    ],
    "synonyms": [
        "Rhenium oxide (Re<sub>2</sub>O<sub>7</sub>)",
        "Dirhenium heptoxide",
        "Rhenium heptaoxide",
        "Rhenium heptoxide",
        "Dirhenium heptaoxide",
        "Rhenium(VII) oxide"
    ],
    "replacedRns": [
        "148054-99-3"
    ],
    "hasMolfile": false,
    "source": "https://commonchemistry.cas.org/detail?cas_rn=1314-68-7"
}