{
    "cas_no": "5653-62-3",
    "key_name": "2,3-Dimethoxybenzonitrile",
    "cn_name": "2,3-二甲氧基苯甲腈;",
    "alternate_name": "Benzonitrile, 2,3-dimethoxy-;<em>o</em>-Veratronitrile;2,3-Dimethoxybenzonitrile;NSC 27018",
    "duplicated_cas_no": "",
    "SMILES": "O(C)C1=C(C#N)C=CC=C1OC",
    "meta_data": {
        "InChI": "InChI=1S/C9H9NO2/c1-11-8-5-3-4-7(6-10)9(8)12-2/h3-5H,1-2H3",
        "InChIKey": null,
        "Canonical SMILES": "N#CC1=CC=CC(OC)=C1OC",
        "Molecular Formula": "C<sub>9</sub>H<sub>9</sub>NO<sub>2</sub>",
        "Molecular Mass": "163.17",
        "Boiling Point": "195 °C @ Press: 2 Torr",
        "Melting Point": "47 °C"
    }
}