{
    "cas_no": "6921-66-0",
    "key_name": "1-(4-Chloro-2-hydroxyphenyl)ethanone",
    "cn_name": null,
    "alternate_name": "Ethanone, 1-(4-chloro-2-hydroxyphenyl)-;Acetophenone, 4′-chloro-2′-hydroxy-;1-(4-Chloro-2-hydroxyphenyl)ethanone;4′-Chloro-2′-hydroxyacetophenone;2′-Hydroxy-4′-chloroacetophenone;4-Chloro-<em>o</em>-hydroxyacetophenone;1-(4-Chloro-2-hydroxyphenyl)ethan-1-one",
    "duplicated_cas_no": "",
    "SMILES": "C(C)(=O)C1=C(O)C=C(Cl)C=C1",
    "meta_data": {
        "InChI": "InChI=1S/C8H7ClO2/c1-5(10)7-3-2-6(9)4-8(7)11/h2-4,11H,1H3",
        "InChIKey": null,
        "Canonical SMILES": "O=C(C1=CC=C(Cl)C=C1O)C",
        "Molecular Formula": "C<sub>8</sub>H<sub>7</sub>ClO<sub>2</sub>",
        "Molecular Mass": "170.59",
        "Boiling Point": "126 °C @ Press: 16 Torr",
        "Melting Point": "50-51 °C"
    }
}