{
    "cas_no": "591-60-6",
    "key_name": "Butyl acetoacetate",
    "cn_name": "乙酰乙酸丁酯;",
    "alternate_name": "Butanoic acid, 3-oxo-, butyl ester;Acetoacetic acid, butyl ester;Butyl acetoacetate;Butyl 3-oxobutanoate;Butyl 3-oxobutyrate;<em>n</em>-Butyl acetoacetate;3-Oxobutanoic acid butyl ester;NSC 97211",
    "duplicated_cas_no": "",
    "SMILES": "O(C(CC(C)=O)=O)CCCC",
    "meta_data": {
        "InChI": "InChI=1S/C8H14O3/c1-3-4-5-11-8(10)6-7(2)9/h3-6H2,1-2H3",
        "InChIKey": null,
        "Canonical SMILES": "O=C(OCCCC)CC(=O)C",
        "Molecular Formula": "C<sub>8</sub>H<sub>14</sub>O<sub>3</sub>",
        "Molecular Mass": "158.20",
        "Boiling Point": "90 °C @ Press: 11 Torr",
        "Melting Point": "-35.6 °C",
        "Density": "0.9761 g/cm³ @ Temp: 25 °C"
    }
}