{
    "cas_no": "187035-81-0",
    "key_name": "Ethyl 4-(trifluoromethyl)-5-pyrimidinecarboxylate",
    "cn_name": null,
    "alternate_name": "5-Pyrimidinecarboxylic acid, 4-(trifluoromethyl)-, ethyl ester;Ethyl 4-(trifluoromethyl)-5-pyrimidinecarboxylate",
    "duplicated_cas_no": "",
    "SMILES": "C(OCC)(=O)C=1C(C(F)(F)F)=NC=NC1",
    "meta_data": {
        "InChI": "InChI=1S/C8H7F3N2O2/c1-2-15-7(14)5-3-12-4-13-6(5)8(9,10)11/h3-4H,2H2,1H3",
        "InChIKey": null,
        "Canonical SMILES": "O=C(OCC)C=1C=NC=NC1C(F)(F)F",
        "Molecular Formula": "C<sub>8</sub>H<sub>7</sub>F<sub>3</sub>N<sub>2</sub>O<sub>2</sub>",
        "Molecular Mass": "220.15",
        "Boiling Point": "53-55 °C @ Press: 0.1 Torr"
    }
}