{
    "cas_no": "488-23-3",
    "key_name": "1,2,3,4-Tetramethylbenzene",
    "cn_name": "1,2,3,4-四甲基苯;",
    "alternate_name": "Benzene, 1,2,3,4-tetramethyl-;1,2,3,4-Tetramethylbenzene;Prehnitene;Prehnitol;NSC 93932",
    "duplicated_cas_no": "",
    "SMILES": "CC1=C(C)C(C)=CC=C1C",
    "meta_data": {
        "InChI": "InChI=1S/C10H14/c1-7-5-6-8(2)10(4)9(7)3/h5-6H,1-4H3",
        "InChIKey": null,
        "Canonical SMILES": "C=1C=C(C(=C(C1C)C)C)C",
        "Molecular Formula": "C<sub>10</sub>H<sub>14</sub>",
        "Molecular Mass": "134.22",
        "Boiling Point": "205 °C",
        "Melting Point": "-6.2 °C",
        "Density": "0.9044 g/cm³ @ Temp: 18 °C"
    }
}