{
    "cas_no": "483-17-0",
    "key_name": "(-)-Cephaeline",
    "cn_name": null,
    "alternate_name": "6-Isoquinolinol, 1-[[(2<em>S</em>,3<em>R</em>,11b<em>S</em>)-3-ethyl-1,3,4,6,7,11b-hexahydro-9,10-dimethoxy-2<em>H</em>-benzo[<em>a</em>]quinolizin-2-yl]methyl]-1,2,3,4-tetrahydro-7-methoxy-, (1<em>R</em>)-;Cephaeline;Emetan-6′-ol, 7′,10,11-trimethoxy-;(1<em>R</em>)-1-[[(2<em>S</em>,3<em>R</em>,11b<em>S</em>)-3-Ethyl-1,3,4,6,7,11b-hexahydro-9,10-dimethoxy-2<em>H</em>-benzo[<em>a</em>]quinolizin-2-yl]methyl]-1,2,3,4-tetrahydro-7-methoxy-6-isoquinolinol;Desmethylemetine;(-)-Cephaeline;7′,10,11-Trimethoxyemetan-6′-ol;Dihydropsychotrine;Cepheline",
    "duplicated_cas_no": "1390-78-9;10159-63-4",
    "SMILES": "C([C@H]1C[C@]2(C=3C(=CC(OC)=C(OC)C3)CCN2C[C@@H]1CC)[H])[C@@H]4C=5C(=CC(O)=C(OC)C5)CCN4",
    "meta_data": {
        "InChI": "InChI=1S/C28H38N2O4/c1-5-17-16-30-9-7-19-13-27(33-3)28(34-4)15-22(19)24(30)11-20(17)10-23-21-14-26(32-2)25(31)12-18(21)6-8-29-23/h12-15,17,20,23-24,29,31H,5-11,16H2,1-4H3/t17-,20-,23+,24-/m0/s1",
        "InChIKey": null,
        "Canonical SMILES": "OC=1C=C2C(=CC1OC)C(NCC2)CC3CC4C5=CC(OC)=C(OC)C=C5CCN4CC3CC",
        "Molecular Formula": "C<sub>28</sub>H<sub>38</sub>N<sub>2</sub>O<sub>4</sub>",
        "Molecular Mass": "466.61",
        "Melting Point": "115.5 °C"
    }
}