{
    "cas_no": "1897-52-5",
    "key_name": "2,6-Difluorobenzonitrile",
    "cn_name": "2,6-二氟苯腈;",
    "alternate_name": "Benzonitrile, 2,6-difluoro-;2,6-Difluorobenzonitrile",
    "duplicated_cas_no": "",
    "SMILES": "C(#N)C1=C(F)C=CC=C1F",
    "meta_data": {
        "InChI": "InChI=1S/C7H3F2N/c8-6-2-1-3-7(9)5(6)4-10/h1-3H",
        "InChIKey": null,
        "Canonical SMILES": "N#CC=1C(F)=CC=CC1F",
        "Molecular Formula": "C<sub>7</sub>H<sub>3</sub>F<sub>2</sub>N",
        "Molecular Mass": "139.10",
        "Boiling Point": "99 °C",
        "Melting Point": "31 °C"
    }
}