{
    "cas_no": "400-99-7",
    "key_name": "2-Nitro-4-(trifluoromethyl)phenol",
    "cn_name": "4-羟基-3-硝基三氟甲苯;2-硝基-4-三氟甲基苯酚;2-硝基-4-(三氟甲基)苯酚;",
    "alternate_name": "Phenol, 2-nitro-4-(trifluoromethyl)-;<em>p</em>-Cresol, α,α,α-trifluoro-2-nitro-;2-Nitro-4-(trifluoromethyl)phenol;<em>o</em>-Nitro-<em>p</em>-(trifluoromethyl)phenol;4-(Trifluoromethyl)-2-nitrophenol;4-Hydroxy-3-nitrobenzotrifluoride",
    "duplicated_cas_no": "",
    "SMILES": "N(=O)(=O)C1=CC(C(F)(F)F)=CC=C1O",
    "meta_data": {
        "InChI": "InChI=1S/C7H4F3NO3/c8-7(9,10)4-1-2-6(12)5(3-4)11(13)14/h1-3,12H",
        "InChIKey": null,
        "Canonical SMILES": "O=N(=O)C1=CC(=CC=C1O)C(F)(F)F",
        "Molecular Formula": "C<sub>7</sub>H<sub>4</sub>F<sub>3</sub>NO<sub>3</sub>",
        "Molecular Mass": "207.11",
        "Boiling Point": "92-94 °C"
    }
}