{
    "cas_no": "81224-16-0",
    "key_name": "7-Bromo-4-methoxy-1<em>H</em>-indole",
    "cn_name": "7-溴-4-甲氧基吲哚;",
    "alternate_name": "1<em>H</em>-Indole, 7-bromo-4-methoxy-;7-Bromo-4-methoxy-1<em>H</em>-indole;7-Bromo-4-methoxyindole;4-Methoxy-7-bromoindole",
    "duplicated_cas_no": "",
    "SMILES": "O(C)C1=C2C(=C(Br)C=C1)NC=C2",
    "meta_data": {
        "InChI": "InChI=1S/C9H8BrNO/c1-12-8-3-2-7(10)9-6(8)4-5-11-9/h2-5,11H,1H3",
        "InChIKey": null,
        "Canonical SMILES": "BrC1=CC=C(OC)C=2C=CNC12",
        "Molecular Formula": "C<sub>9</sub>H<sub>8</sub>BrNO",
        "Molecular Mass": "226.07",
        "Melting Point": "118 °C"
    }
}