{
    "cas_no": "35621-01-3",
    "key_name": "4-Piperidinamine, hydrochloride (1:2)",
    "cn_name": "4-氨基哌啶二盐酸盐;",
    "alternate_name": "4-Piperidinamine, hydrochloride (1:2);4-Piperidinamine, dihydrochloride;4-Aminopiperidine dihydrochloride",
    "duplicated_cas_no": "",
    "SMILES": "NC1CCNCC1.Cl",
    "meta_data": {
        "InChI": "InChI=1S/C5H12N2.2ClH/c6-5-1-3-7-4-2-5;;/h5,7H,1-4,6H2;2*1H",
        "InChIKey": null,
        "Canonical SMILES": "Cl.NC1CCNCC1",
        "Molecular Formula": "C<sub>5</sub>H<sub>12</sub>N<sub>2</sub>.2ClH",
        "Molecular Mass": "",
        "Melting Point": "331-333 °C"
    }
}