{
    "cas_no": "4315-09-7",
    "key_name": "4-Nitroisophthalic acid",
    "cn_name": "4-硝基苯基-1,3-二甲酸;4-硝基苯基-1,3-二甲酸;",
    "alternate_name": "1,3-Benzenedicarboxylic acid, 4-nitro-;Isophthalic acid, 4-nitro-;4-Nitro-1,3-benzenedicarboxylic acid;1-Nitrobenzene-2,4-dicarboxylic acid;4-Nitrobenzene-1,3-dicarboxylic acid;4-Nitroisophthalic acid;3-Carboxy-4-nitrobenzoic acid",
    "duplicated_cas_no": "1253261-34-5",
    "SMILES": "C(O)(=O)C1=C(N(=O)=O)C=CC(C(O)=O)=C1",
    "meta_data": {
        "InChI": "InChI=1S/C8H5NO6/c10-7(11)4-1-2-6(9(14)15)5(3-4)8(12)13/h1-3H,(H,10,11)(H,12,13)",
        "InChIKey": null,
        "Canonical SMILES": "O=C(O)C1=CC=C(C(=C1)C(=O)O)N(=O)=O",
        "Molecular Formula": "C<sub>8</sub>H<sub>5</sub>NO<sub>6</sub>",
        "Molecular Mass": "211.13",
        "Melting Point": "245 °C"
    }
}