{
    "cas_no": "13737-36-5",
    "key_name": "4-(Bromomethyl)phenylacetic acid",
    "cn_name": "4-(溴乙烷)苯乙酸;",
    "alternate_name": "Benzeneacetic acid, 4-(bromomethyl)-;Acetic acid, (α-bromo-<em>p</em>-tolyl)-;4-(Bromomethyl)benzeneacetic acid;4-(Bromomethyl)phenylacetic acid;<em>p</em>-(Bromomethyl)phenylacetic acid;2-[4-(Bromomethyl)phenyl]acetic acid",
    "duplicated_cas_no": "",
    "SMILES": "C(C(O)=O)C1=CC=C(CBr)C=C1",
    "meta_data": {
        "InChI": "InChI=1S/C9H9BrO2/c10-6-8-3-1-7(2-4-8)5-9(11)12/h1-4H,5-6H2,(H,11,12)",
        "InChIKey": null,
        "Canonical SMILES": "O=C(O)CC1=CC=C(C=C1)CBr",
        "Molecular Formula": "C<sub>9</sub>H<sub>9</sub>BrO<sub>2</sub>",
        "Molecular Mass": "229.07",
        "Melting Point": "180 °C"
    }
}