{
    "cas_no": "7727-18-6",
    "key_name": "Vanadium oxytrichloride",
    "cn_name": "三氯氧钒;三氯代氧化钒(V);",
    "alternate_name": "Vanadium, trichlorooxo-, (<em>T</em>-4)-;Vanadium, trichlorooxo-;(<em>T</em>-4)-Trichlorooxovanadium;Vanadium oxychloride;Vanadium oxytrichloride;Vanadyl trichloride;Vanadium chloride oxide (VOCl<sub>3</sub>);Vanadyl chloride (VOCl<sub>3</sub>);Vanadyl chloride;Trichlorooxovanadium;Vanadium(V) oxytrichloride;Vanadium oxide trichloride;Vanadium trichloride oxide;Vanadium chloride oxide (VCl<sub>3</sub>O);Vanadium monoxide trichloride;Vanadium trichloride monooxide;Vanadium trichloride monoxide;Trichlorovanadium oxide;Trichlorooxovanadium(V)",
    "duplicated_cas_no": "204864-21-1",
    "SMILES": "[V](Cl)(Cl)(Cl)=O",
    "meta_data": {
        "InChI": "InChI=1S/3ClH.O.V/h3*1H;;/q;;;;+3/p-3",
        "InChIKey": null,
        "Canonical SMILES": "O=[V](Cl)(Cl)Cl",
        "Molecular Formula": "Cl<sub>3</sub>OV",
        "Molecular Mass": "",
        "Boiling Point": "126-127 °C",
        "Melting Point": "-77 °C",
        "Density": "1.829 g/cm³"
    }
}