{
    "cas_no": "31857-31-5",
    "key_name": "1,3-Dimethyl-2-cyanoguanidine",
    "cn_name": null,
    "alternate_name": "Guanidine, <em>N</em>-cyano-<em>N</em>′,<em>N</em>′′-dimethyl-;Guanidine, 1-cyano-2,3-dimethyl-;<em>N</em>-Cyano-<em>N</em>′,<em>N</em>′′-dimethylguanidine;2-Cyano-1,3-dimethylguanidine;1,3-Dimethyl-2-cyanoguanidine",
    "duplicated_cas_no": "",
    "SMILES": "C(=NC#N)(NC)NC",
    "meta_data": {
        "InChI": "InChI=1S/C4H8N4/c1-6-4(7-2)8-3-5/h1-2H3,(H2,6,7,8)",
        "InChIKey": null,
        "Canonical SMILES": "N#CN=C(NC)NC",
        "Molecular Formula": "C<sub>4</sub>H<sub>8</sub>N<sub>4</sub>",
        "Molecular Mass": "112.13",
        "Melting Point": "174.5-174.8 °C"
    }
}