{
    "cas_no": "702-24-9",
    "key_name": "<em>N</em>-Methyl-4-methoxybenzylamine",
    "cn_name": "N-(4-甲氧基苄基)-N-甲胺;",
    "alternate_name": "Benzenemethanamine, 4-methoxy-<em>N</em>-methyl-;Benzylamine, <em>p</em>-methoxy-<em>N</em>-methyl-;4-Methoxy-<em>N</em>-methylbenzenemethanamine;<em>N</em>-Benzyl-<em>N</em>-methyl-<em>p</em>-anisidine;<em>p</em>-Methoxy-<em>N</em>-methylbenzylamine;<em>N</em>-Methyl-4-methoxybenzylamine;(<em>p</em>-Methoxybenzyl)methylamine;<em>N</em>-Methyl-<em>p</em>-methoxybenzylamine;(4-Methoxyphenyl)-<em>N</em>-methylmethanamine;<em>N</em>-(4-Methoxybenzyl)-<em>N</em>-methylamine;4-Methoxybenzyl-<em>N</em>-methylamine;1-(4-Methoxyphenyl)-<em>N</em>-methylmethanamine;4-Methoxy-<em>N</em>-methylbenzylamine;[(4-Methoxyphenyl)methyl](methyl)amine;<em>N</em>-[(4-Methoxyphenyl)methyl]methylamine;(4-Methoxybenzyl)methylamine",
    "duplicated_cas_no": "",
    "SMILES": "C(NC)C1=CC=C(OC)C=C1",
    "meta_data": {
        "InChI": "InChI=1S/C9H13NO/c1-10-7-8-3-5-9(11-2)6-4-8/h3-6,10H,7H2,1-2H3",
        "InChIKey": null,
        "Canonical SMILES": "O(C1=CC=C(C=C1)CNC)C",
        "Molecular Formula": "C<sub>9</sub>H<sub>13</sub>NO",
        "Molecular Mass": "151.21",
        "Boiling Point": "121 °C @ Press: 14 Torr",
        "Melting Point": "238 °C",
        "Density": "1.025 g/cm³ @ Temp: 0 °C"
    }
}