{
    "cas_no": "132-32-1",
    "key_name": "3-Amino-9-ethylcarbazole",
    "cn_name": "3-氨基-9-乙基咔唑;",
    "alternate_name": "9<em>H</em>-Carbazol-3-amine, 9-ethyl-;Carbazole, 3-amino-9-ethyl-;9-Ethyl-9<em>H</em>-carbazol-3-amine;3-Amino-9-ethylcarbazole;3-Amino-<em>N</em>-ethylcarbazole;9-Ethyl-3-carbazolamine;9-Ethyl-9<em>H</em>-carbazol-3-ylamine;NSC 67709;NSC 96640;AEC;AEC (chromogen);9-Ethyl-9<em>H</em>-carbazole-3-amine;3-Amino-9-ethyl-9<em>H</em>-carbazole;<em>N</em>-(9-Ethyl-9<em>H</em>-carbazol-3-yl)amine",
    "duplicated_cas_no": "",
    "SMILES": "C(C)N1C=2C(C=3C1=CC=C(N)C3)=CC=CC2",
    "meta_data": {
        "InChI": "InChI=1S/C14H14N2/c1-2-16-13-6-4-3-5-11(13)12-9-10(15)7-8-14(12)16/h3-9H,2,15H2,1H3",
        "InChIKey": null,
        "Canonical SMILES": "NC1=CC=C2C(=C1)C=3C=CC=CC3N2CC",
        "Molecular Formula": "C<sub>14</sub>H<sub>14</sub>N<sub>2</sub>",
        "Molecular Mass": "210.27",
        "Melting Point": "127 °C"
    }
}