{
    "cas_no": "107761-24-0",
    "key_name": "2-Cyano-3-[3-ethoxy-4-hydroxy-5-[(phenylthio)methyl]phenyl]-2-propenamide",
    "cn_name": "α-氰基-(3-乙氧基-4-羟基-5-苯基硫代甲基)肉桂酰胺;",
    "alternate_name": "2-Propenamide, 2-cyano-3-[3-ethoxy-4-hydroxy-5-[(phenylthio)methyl]phenyl]-;2-Cyano-3-[3-ethoxy-4-hydroxy-5-[(phenylthio)methyl]phenyl]-2-propenamide;ST 638;ST 638 (pharmaceutical)",
    "duplicated_cas_no": "",
    "SMILES": "C(=C(C(N)=O)C#N)C1=CC(CSC2=CC=CC=C2)=C(O)C(OCC)=C1",
    "meta_data": {
        "InChI": "InChI=1S/C19H18N2O3S/c1-2-24-17-10-13(8-14(11-20)19(21)23)9-15(18(17)22)12-25-16-6-4-3-5-7-16/h3-10,22H,2,12H2,1H3,(H2,21,23)",
        "InChIKey": null,
        "Canonical SMILES": "N#CC(=CC=1C=C(OCC)C(O)=C(C1)CSC=2C=CC=CC2)C(=O)N",
        "Molecular Formula": "C<sub>19</sub>H<sub>18</sub>N<sub>2</sub>O<sub>3</sub>S",
        "Molecular Mass": "354.42",
        "Melting Point": "157-161 °C"
    }
}