{
    "cas_no": "6947-94-0",
    "key_name": "2-Methyl-3-furancarboxylic acid",
    "cn_name": "2-甲基-3-糠酸;2-甲基-3-糠酸,98%;2-甲基-3-糠酸;2-甲-3-呋喃甲酸;",
    "alternate_name": "3-Furancarboxylic acid, 2-methyl-;3-Furoic acid, 2-methyl-;2-Methyl-3-furancarboxylic acid;2-Methyl-3-furoic acid;NSC 55881",
    "duplicated_cas_no": "",
    "SMILES": "C(O)(=O)C1=C(C)OC=C1",
    "meta_data": {
        "InChI": "InChI=1S/C6H6O3/c1-4-5(6(7)8)2-3-9-4/h2-3H,1H3,(H,7,8)",
        "InChIKey": null,
        "Canonical SMILES": "O=C(O)C=1C=COC1C",
        "Molecular Formula": "C<sub>6</sub>H<sub>6</sub>O<sub>3</sub>",
        "Molecular Mass": "126.11",
        "Melting Point": "101 °C"
    }
}