{
    "cas_no": "5454-28-4",
    "key_name": "Butyl heptanoate",
    "cn_name": "庚酸丁酯;",
    "alternate_name": "Heptanoic acid, butyl ester;Butyl heptanoate;Butyl enanthate;NSC 23048",
    "duplicated_cas_no": "",
    "SMILES": "C(CCCCCC)(OCCCC)=O",
    "meta_data": {
        "InChI": "InChI=1S/C11H22O2/c1-3-5-7-8-9-11(12)13-10-6-4-2/h3-10H2,1-2H3",
        "InChIKey": null,
        "Canonical SMILES": "O=C(OCCCC)CCCCCC",
        "Molecular Formula": "C<sub>11</sub>H<sub>22</sub>O<sub>2</sub>",
        "Molecular Mass": "186.29",
        "Boiling Point": "226.2 °C",
        "Melting Point": "-67.5 °C",
        "Density": "0.8799 g/cm³ @ Temp: 0 °C"
    }
}