{
    "cas_no": "17228-74-9",
    "key_name": "2,6-Dichloro-4-pyridinol",
    "cn_name": null,
    "alternate_name": "4-Pyridinol, 2,6-dichloro-;2,6-Dichloro-4-pyridinol;2,6-Dichloro-4-hydroxypyridine;2,6-Dichloro-1<em>H</em>-pyridin-4-one",
    "duplicated_cas_no": "",
    "SMILES": "OC=1C=C(Cl)N=C(Cl)C1",
    "meta_data": {
        "InChI": "InChI=1S/C5H3Cl2NO/c6-4-1-3(9)2-5(7)8-4/h1-2H,(H,8,9)",
        "InChIKey": null,
        "Canonical SMILES": "ClC=1N=C(Cl)C=C(O)C1",
        "Molecular Formula": "C<sub>5</sub>H<sub>3</sub>Cl<sub>2</sub>NO",
        "Molecular Mass": "163.99",
        "Melting Point": "196 °C"
    }
}