{
    "cas_no": "1941-26-0",
    "key_name": "Ethanaminium, <em>N</em>,<em>N</em>,<em>N</em>-triethyl-, nitrate (1:1)",
    "cn_name": "四乙基硝酸铵;",
    "alternate_name": "Ethanaminium, <em>N</em>,<em>N</em>,<em>N</em>-triethyl-, nitrate (1:1);Ammonium, tetraethyl-, nitrate;Ethanaminium, <em>N</em>,<em>N</em>,<em>N</em>-triethyl-, nitrate;Tetraethylammonium nitrate;NSC 152114",
    "duplicated_cas_no": "",
    "SMILES": "N(=O)(=O)[O-].[N+](CC)(CC)(CC)CC",
    "meta_data": {
        "InChI": "InChI=1S/C8H20N.NO3/c1-5-9(6-2,7-3)8-4;2-1(3)4/h5-8H2,1-4H3;/q+1;-1",
        "InChIKey": null,
        "Canonical SMILES": "O=N(=O)[O-].CC[N+](CC)(CC)CC",
        "Molecular Formula": "C<sub>8</sub>H<sub>20</sub>N.NO<sub>3</sub>",
        "Molecular Mass": "",
        "Melting Point": "280 °C (decomp)",
        "Density": "1.029 g/cm³"
    }
}