{
    "cas_no": "92-35-3",
    "key_name": "Thiochrome",
    "cn_name": "硫色素脱氢硫胺素;",
    "alternate_name": "5<em>H</em>-Pyrimido[4,5-<em>d</em>]thiazolo[3,2-<em>a</em>]pyrimidine-8-ethanol, 2,7-dimethyl-;Thiachromine-8-ethanol, 2,7-dimethyl-;Thiochrome;2,7-Dimethyl-5<em>H</em>-pyrimido[4,5-<em>d</em>]thiazolo[3,2-<em>a</em>]pyrimidine-8-ethanol;NSC 56339;2-(2,7-Dimethyl-5<em>H</em>-pyrimido[4,5-<em>d</em>]thiazolo[3,2-<em>a</em>]pyrimidin-8-yl)ethanol",
    "duplicated_cas_no": "51810-67-4",
    "SMILES": "CC=1N2C(=NC=3C(C2)=CN=C(C)N3)SC1CCO",
    "meta_data": {
        "InChI": "InChI=1S/C12H14N4OS/c1-7-10(3-4-17)18-12-15-11-9(6-16(7)12)5-13-8(2)14-11/h5,17H,3-4,6H2,1-2H3",
        "InChIKey": null,
        "Canonical SMILES": "OCCC=1SC2=NC=3N=C(N=CC3CN2C1C)C",
        "Molecular Formula": "C<sub>12</sub>H<sub>14</sub>N<sub>4</sub>OS",
        "Molecular Mass": "262.33",
        "Melting Point": "228.8 °C"
    }
}