{
    "cas_no": "104-24-5",
    "key_name": "4-Phenylazobenzoyl chloride",
    "cn_name": "对苯偶氮基苯甲酰氯;",
    "alternate_name": "Benzoyl chloride, 4-(2-phenyldiazenyl)-;Benzoyl chloride, <em>p</em>-(phenylazo)-;Benzoyl chloride, 4-(phenylazo)-;4-(2-Phenyldiazenyl)benzoyl chloride;<em>p</em>-(Phenylazo)benzoyl chloride;4-Phenylazobenzoyl chloride;NSC 7955;4-(Chlorocarbonyl)azobenzene",
    "duplicated_cas_no": "",
    "SMILES": "N(=NC1=CC=CC=C1)C2=CC=C(C(Cl)=O)C=C2",
    "meta_data": {
        "InChI": "InChI=1S/C13H9ClN2O/c14-13(17)10-6-8-12(9-7-10)16-15-11-4-2-1-3-5-11/h1-9H",
        "InChIKey": null,
        "Canonical SMILES": "O=C(Cl)C1=CC=C(N=NC=2C=CC=CC2)C=C1",
        "Molecular Formula": "C<sub>13</sub>H<sub>9</sub>ClN<sub>2</sub>O",
        "Molecular Mass": "244.68",
        "Melting Point": "94.5-95.5 °C"
    }
}