{
    "cas_no": "4394-00-7",
    "key_name": "Niflumic acid",
    "cn_name": "氟尼酸;尼氟灭酸;2-[(3-三氟甲基)苯基]氨基-3-吡啶羧酸;",
    "alternate_name": "3-Pyridinecarboxylic acid, 2-[[3-(trifluoromethyl)phenyl]amino]-;Nicotinic acid, 2-(α,α,α-trifluoro-<em>m</em>-toluidino)-;2-[[3-(Trifluoromethyl)phenyl]amino]-3-pyridinecarboxylic acid;UP 83;Niflumic acid;2-[3-(Trifluoromethyl)anilino]nicotinic acid;Nifluril;Actol (analgesic);Actol;Nifluminic acid;Flogovital;Forenol;Landruma;Donalgin;2-[3-(Trifluoromethyl)anilino]-3-pyridinecarboxylic acid;<em>N</em>-(α,α,α-Trifluoro-<em>m</em>-tolyl)nicotinic acid;Niflamol;MeSH ID: D009544",
    "duplicated_cas_no": "",
    "SMILES": "N(C1=C(C(O)=O)C=CC=N1)C2=CC(C(F)(F)F)=CC=C2",
    "meta_data": {
        "InChI": "InChI=1S/C13H9F3N2O2/c14-13(15,16)8-3-1-4-9(7-8)18-11-10(12(19)20)5-2-6-17-11/h1-7H,(H,17,18)(H,19,20)",
        "InChIKey": null,
        "Canonical SMILES": "O=C(O)C1=CC=CN=C1NC2=CC=CC(=C2)C(F)(F)F",
        "Molecular Formula": "C<sub>13</sub>H<sub>9</sub>F<sub>3</sub>N<sub>2</sub>O<sub>2</sub>",
        "Molecular Mass": "282.22",
        "Melting Point": "204 °C"
    }
}