{
    "cas_no": "13108-19-5",
    "key_name": "10-Aminodecanoic acid",
    "cn_name": null,
    "alternate_name": "Decanoic acid, 10-amino-;10-Aminodecanoic acid;ω-Aminodecanoic acid;10-Aminodecanic Acid",
    "duplicated_cas_no": "",
    "SMILES": "C(CCCCCN)CCCC(O)=O",
    "meta_data": {
        "InChI": "InChI=1S/C10H21NO2/c11-9-7-5-3-1-2-4-6-8-10(12)13/h1-9,11H2,(H,12,13)",
        "InChIKey": null,
        "Canonical SMILES": "O=C(O)CCCCCCCCCN",
        "Molecular Formula": "C<sub>10</sub>H<sub>21</sub>NO<sub>2</sub>",
        "Molecular Mass": "187.28",
        "Melting Point": "177 °C"
    }
}