{
    "cas_no": "83-32-9",
    "key_name": "Acenaphthene",
    "cn_name": "苊;萘嵌戊烷;",
    "alternate_name": "Acenaphthylene, 1,2-dihydro-;Acenaphthene;1,2-Dihydroacenaphthylene;<em>peri</em>-Ethylenenaphthalene;1,8-Ethylenenaphthalene;Naphthyleneethylene;NSC 7657",
    "duplicated_cas_no": "",
    "SMILES": "C12=C3CCC1=CC=CC2=CC=C3",
    "meta_data": {
        "InChI": "InChI=1S/C12H10/c1-3-9-4-2-6-11-8-7-10(5-1)12(9)11/h1-6H,7-8H2",
        "InChIKey": null,
        "Canonical SMILES": "C=1C=C2C=CC=C3C2=C(C1)CC3",
        "Molecular Formula": "C<sub>12</sub>H<sub>10</sub>",
        "Molecular Mass": "154.21",
        "Boiling Point": "279 °C @ Press: 760 Torr",
        "Melting Point": "95 °C",
        "Density": "1.0242 g/cm³ @ Temp: 90 °C"
    }
}