{
    "cas_no": "855-97-0",
    "key_name": "5,7,3′,4′-Tetramethoxyflavone",
    "cn_name": null,
    "alternate_name": "4<em>H</em>-1-Benzopyran-4-one, 2-(3,4-dimethoxyphenyl)-5,7-dimethoxy-;Flavone, 3′,4′,5,7-tetramethoxy-;2-(3,4-Dimethoxyphenyl)-5,7-dimethoxy-4<em>H</em>-1-benzopyran-4-one;Luteolin tetramethyl ether;Tetramethyl camphoral;3′,4′,5,7-Tetramethoxyflavone;5,7,3′,4′-Tetramethoxyflavone;Luteolin 5,7,3′,4′-tetramethyl ether;5,7,3′,4′-Pentamethoxyflavone;2-(3,4-Dimethoxyphenyl)-5,7-dimethoxy-4<em>H</em>-chromen-4-one;2-(3,4-Dimethoxyphenyl)-5,7-dimethoxychromen-4-one",
    "duplicated_cas_no": "",
    "SMILES": "O(C)C1=C2C(OC(=CC2=O)C3=CC(OC)=C(OC)C=C3)=CC(OC)=C1",
    "meta_data": {
        "InChI": "InChI=1S/C19H18O6/c1-21-12-8-17(24-4)19-13(20)10-15(25-18(19)9-12)11-5-6-14(22-2)16(7-11)23-3/h5-10H,1-4H3",
        "InChIKey": null,
        "Canonical SMILES": "O=C1C=C(OC2=CC(OC)=CC(OC)=C12)C=3C=CC(OC)=C(OC)C3",
        "Molecular Formula": "C<sub>19</sub>H<sub>18</sub>O<sub>6</sub>",
        "Molecular Mass": "342.34",
        "Melting Point": "192 °C"
    }
}