{
    "cas_no": "10361-39-4",
    "key_name": "Benzyl pentanoate",
    "cn_name": "戊酸苄酯;",
    "alternate_name": "Pentanoic acid, phenylmethyl ester;Valeric acid, benzyl ester;Benzyl valerate;Benzyl valerianate;Benzyl pentanoate;Phenylmethyl pentanoate;Phenylmethyl valerate",
    "duplicated_cas_no": "",
    "SMILES": "C(OC(CCCC)=O)C1=CC=CC=C1",
    "meta_data": {
        "InChI": "InChI=1S/C12H16O2/c1-2-3-9-12(13)14-10-11-7-5-4-6-8-11/h4-8H,2-3,9-10H2,1H3",
        "InChIKey": null,
        "Canonical SMILES": "O=C(OCC=1C=CC=CC1)CCCC",
        "Molecular Formula": "C<sub>12</sub>H<sub>16</sub>O<sub>2</sub>",
        "Molecular Mass": "192.25",
        "Boiling Point": "64 °C @ Press: 15 Torr",
        "Melting Point": "-34 °C"
    }
}