{
    "cas_no": "2104-04-3",
    "key_name": "2-Amino-4-(4-methoxyphenyl)thiazole",
    "cn_name": "4-(4-甲氧基苯基)-1,3-噻唑-2-胺;",
    "alternate_name": "2-Thiazolamine, 4-(4-methoxyphenyl)-;Thiazole, 2-amino-4-(<em>p</em>-methoxyphenyl)-;4-(4-Methoxyphenyl)-2-thiazolamine;2-Amino-4-(<em>p</em>-methoxyphenyl)thiazole;2-Amino-4-(4-methoxyphenyl)thiazole;2-Amino-4-(<em>p</em>-anisyl)thiazole;4-(4-Methoxyphenyl)thiazol-2-ylamine;4-(4-Methoxyphenyl)-1,3-thiazol-2-amine",
    "duplicated_cas_no": "",
    "SMILES": "NC1=NC(=CS1)C2=CC=C(OC)C=C2",
    "meta_data": {
        "InChI": "InChI=1S/C10H10N2OS/c1-13-8-4-2-7(3-5-8)9-6-14-10(11)12-9/h2-6H,1H3,(H2,11,12)",
        "InChIKey": null,
        "Canonical SMILES": "N1=C(SC=C1C=2C=CC(OC)=CC2)N",
        "Molecular Formula": "C<sub>10</sub>H<sub>10</sub>N<sub>2</sub>OS",
        "Molecular Mass": "206.26",
        "Melting Point": "204-205 °C"
    }
}