{
    "cas_no": "13076-17-0",
    "key_name": "<span class=\"text-smallcaps\">D</span>-Lactide",
    "cn_name": null,
    "alternate_name": "1,4-Dioxane-2,5-dione, 3,6-dimethyl-, (3<em>R</em>,6<em>R</em>)-;<em>p</em>-Dioxane-2,5-dione, 3,6-dimethyl-, <span class=\"text-smallcaps\">D</span>-;1,4-Dioxane-2,5-dione, 3,6-dimethyl-, (3<em>R</em>-<em>cis</em>)-;(3<em>R</em>,6<em>R</em>)-3,6-Dimethyl-1,4-dioxane-2,5-dione;<span class=\"text-smallcaps\">D</span>-Lactide;<span class=\"text-smallcaps\">D</span>-(+)-Lactide;<span class=\"text-smallcaps\">D</smallcap><smallcap>D</span>-lactide;1,4-Dioxane-2,5-dione, 3,6-dimethyl-, (3<em>R</em>,5<em>R</em>)-;<span class=\"text-smallcaps\">D</smallcap>,<smallcap>D</span>-Dilactide;<span class=\"text-smallcaps\">D</span>-Dilactide;Purasorb D;PuraLact D;(R,R)-3,6-Di-methyl-1,4-dioxane-2,5-dione",
    "duplicated_cas_no": "17699-82-0",
    "SMILES": "C[C@@H]1C(=O)O[C@H](C)C(=O)O1",
    "meta_data": {
        "InChI": "InChI=1S/C6H8O4/c1-3-5(7)10-4(2)6(8)9-3/h3-4H,1-2H3/t3-,4-/m1/s1",
        "InChIKey": null,
        "Canonical SMILES": "O=C1OC(C(=O)OC1C)C",
        "Molecular Formula": "C<sub>6</sub>H<sub>8</sub>O<sub>4</sub>",
        "Molecular Mass": "144.13",
        "Melting Point": "96.5-97.5 °C"
    }
}