{
    "cas_no": "149-57-5",
    "key_name": "2-Ethylhexanoic acid",
    "cn_name": "异辛酸;2-乙基己酸;",
    "alternate_name": "Hexanoic acid, 2-ethyl-;Caproic acid, α-ethyl-;2-Ethylhexanoic acid;Butylethylacetic acid;α-Ethylcaproic acid;2-Ethylhexoic acid;3-Heptanecarboxylic acid;2-Ethylcaproic acid;Ethylhexanoic acid;α-Ethylhexanoic acid;2-Butylbutanoic acid;2-Ethyl-1-hexanoic acid;(±)-2-Ethylhexanoic acid;NSC 8881;Octylic acid",
    "duplicated_cas_no": "83829-68-9;202054-39-5",
    "SMILES": "C(CCCC)(C(O)=O)CC",
    "meta_data": {
        "InChI": "InChI=1S/C8H16O2/c1-3-5-6-7(4-2)8(9)10/h7H,3-6H2,1-2H3,(H,9,10)",
        "InChIKey": null,
        "Canonical SMILES": "O=C(O)C(CC)CCCC",
        "Molecular Formula": "C<sub>8</sub>H<sub>16</sub>O<sub>2</sub>",
        "Molecular Mass": "144.21",
        "Boiling Point": "228 °C",
        "Melting Point": "-59 °C",
        "Density": "0.9031 g/cm³ @ Temp: 25 °C"
    }
}