{
    "cas_no": "610-81-1",
    "key_name": "4-Amino-3-nitrophenol",
    "cn_name": "3-硝基-4-氨基苯酚;4-氨基-3-硝基苯酚;",
    "alternate_name": "Phenol, 4-amino-3-nitro-;4-Amino-3-nitrophenol;2-Nitro-4-hydroxyaniline;3-Nitro-4-aminophenol;4-Hydroxy-2-nitroaniline;2-Amino-5-hydroxynitrobenzene;NSC 400380;<em>p</em>-Hydroxy-<em>o</em>-nitroaniline",
    "duplicated_cas_no": "",
    "SMILES": "N(=O)(=O)C1=C(N)C=CC(O)=C1",
    "meta_data": {
        "InChI": "InChI=1S/C6H6N2O3/c7-5-2-1-4(9)3-6(5)8(10)11/h1-3,9H,7H2",
        "InChIKey": null,
        "Canonical SMILES": "O=N(=O)C1=CC(O)=CC=C1N",
        "Molecular Formula": "C<sub>6</sub>H<sub>6</sub>N<sub>2</sub>O<sub>3</sub>",
        "Molecular Mass": "154.12",
        "Melting Point": "147-149 °C"
    }
}