{
    "cas_no": "4090-17-9",
    "key_name": "<em>N</em>-(2-Chloroacetyl)valine",
    "cn_name": "氯乙酰基-DL-缬氨酸;",
    "alternate_name": "Valine, <em>N</em>-(2-chloroacetyl)-;Valine, <em>N</em>-(chloroacetyl)-, <span class=\"text-smallcaps\">DL</span>-;Valine, <em>N</em>-(chloroacetyl)-;<span class=\"text-smallcaps\">DL</span>-Valine, <em>N</em>-(chloroacetyl)-;<em>N</em>-(2-Chloroacetyl)valine;<em>N</em>-Chloroacetyl-<span class=\"text-smallcaps\">DL</span>-valine;NSC 401063;2-[(2-Chloroacetyl)amino]-3-methylbutanoic acid;2-(2-Chloroacetamido)-3-methylbutanoic acid",
    "duplicated_cas_no": "89826-74-4",
    "SMILES": "C(NC(CCl)=O)(C(C)C)C(O)=O",
    "meta_data": {
        "InChI": "InChI=1S/C7H12ClNO3/c1-4(2)6(7(11)12)9-5(10)3-8/h4,6H,3H2,1-2H3,(H,9,10)(H,11,12)",
        "InChIKey": null,
        "Canonical SMILES": "O=C(NC(C(=O)O)C(C)C)CCl",
        "Molecular Formula": "C<sub>7</sub>H<sub>12</sub>ClNO<sub>3</sub>",
        "Molecular Mass": "193.63",
        "Melting Point": "129.5-130.5 °C"
    }
}