{
    "cas_no": "55897-64-8",
    "key_name": "2,3-Dimethyl-2-(1-methylethyl)butanenitrile",
    "cn_name": "2-异丙基-2,3-二甲基丁腈;2,2-二异丙基丙腈;DIPPN;",
    "alternate_name": "Butanenitrile, 2,3-dimethyl-2-(1-methylethyl)-;Butyronitrile, 2-isopropyl-2,3-dimethyl-;2,3-Dimethyl-2-(1-methylethyl)butanenitrile;2-Isopropyl-2,3-dimethylbutyronitrile;2,3-Dimethyl-2-propan-2-ylbutanenitrile;2,3-Dimethyl-2-(propan-2-yl)butanenitrile",
    "duplicated_cas_no": "",
    "SMILES": "C(C(C)C)(C(C)C)(C#N)C",
    "meta_data": {
        "InChI": "InChI=1S/C9H17N/c1-7(2)9(5,6-10)8(3)4/h7-8H,1-5H3",
        "InChIKey": null,
        "Canonical SMILES": "N#CC(C)(C(C)C)C(C)C",
        "Molecular Formula": "C<sub>9</sub>H<sub>17</sub>N",
        "Molecular Mass": "139.24",
        "Boiling Point": "186-187 °C"
    }
}