{
    "cas_no": "1190-93-8",
    "key_name": "(Acetylthio)acetic acid",
    "cn_name": "S-乙酰巯基乙酸;",
    "alternate_name": "Acetic acid, 2-(acetylthio)-;Acetic acid, mercapto-, acetate;Acetic acid, (acetylthio)-;Acetic acid, thio-, <em>S</em>-ester with mercaptoacetic acid;2-(Acetylthio)acetic acid;<em>S</em>-Acetylthioglycolic acid;(Acetylthio)acetic acid;2-Acetylthioacetic acid;<em>S</em>-Acetylthioacetic acid;<em>S</em>-Acetyl-2-mercaptoacetic acid;<em>S</em>-Acetylmercaptoacetic acid;2-Acetylsulfanylacetic acid",
    "duplicated_cas_no": "",
    "SMILES": "C(SC(C)=O)C(O)=O",
    "meta_data": {
        "InChI": "InChI=1S/C4H6O3S/c1-3(5)8-2-4(6)7/h2H2,1H3,(H,6,7)",
        "InChIKey": null,
        "Canonical SMILES": "O=C(O)CSC(=O)C",
        "Molecular Formula": "C<sub>4</sub>H<sub>6</sub>O<sub>3</sub>S",
        "Molecular Mass": "134.15",
        "Boiling Point": "158-159 °C @ Press: 17 Torr"
    }
}