{
    "cas_no": "10493-98-8",
    "key_name": "2-Hydroxy-2-cyclopenten-1-one",
    "cn_name": null,
    "alternate_name": "2-Cyclopenten-1-one, 2-hydroxy-;2-Hydroxy-2-cyclopenten-1-one;2-Hydroxy-2-cyclopentenone;1-Hydroxy-1-cyclopenten-5-one",
    "duplicated_cas_no": "",
    "SMILES": "O=C1C(O)=CCC1",
    "meta_data": {
        "InChI": "InChI=1S/C5H6O2/c6-4-2-1-3-5(4)7/h2,6H,1,3H2",
        "InChIKey": null,
        "Canonical SMILES": "O=C1C(O)=CCC1",
        "Molecular Formula": "C<sub>5</sub>H<sub>6</sub>O<sub>2</sub>",
        "Molecular Mass": "98.10",
        "Melting Point": "52-53 °C"
    }
}