{
    "cas_no": "18242-39-2",
    "key_name": "1-Bromo-3,5-dinitrobenzene",
    "cn_name": null,
    "alternate_name": "Benzene, 1-bromo-3,5-dinitro-;1-Bromo-3,5-dinitrobenzene;5-Bromo-1,3-dinitrobenzene;3,5-Dinitrobromobenzene",
    "duplicated_cas_no": "",
    "SMILES": "N(=O)(=O)C1=CC(N(=O)=O)=CC(Br)=C1",
    "meta_data": {
        "InChI": "InChI=1S/C6H3BrN2O4/c7-4-1-5(8(10)11)3-6(2-4)9(12)13/h1-3H",
        "InChIKey": null,
        "Canonical SMILES": "O=N(=O)C1=CC(Br)=CC(=C1)N(=O)=O",
        "Molecular Formula": "C<sub>6</sub>H<sub>3</sub>BrN<sub>2</sub>O<sub>4</sub>",
        "Molecular Mass": "247.00",
        "Melting Point": "77 °C"
    }
}