{
    "cas_no": "61995-52-6",
    "key_name": "1-(5-Bromo-1<em>H</em>-indol-1-yl)ethanone",
    "cn_name": null,
    "alternate_name": "Ethanone, 1-(5-bromo-1<em>H</em>-indol-1-yl)-;1<em>H</em>-Indole, 1-acetyl-5-bromo-;1-(5-Bromo-1<em>H</em>-indol-1-yl)ethanone;1-Acetyl-5-bromoindole;<em>N</em>-Acetyl-5-bromoindole;1-Acetyl-5-bromo-1<em>H</em>-indole;1-(5-Bromo-1<em>H</em>-indol-1-yl)ethan-1-one;1-(5-Bromoindol-1-yl)ethanone;5-Bromo-<em>N</em>-acetylindole",
    "duplicated_cas_no": "",
    "SMILES": "C(C)(=O)N1C=2C(C=C1)=CC(Br)=CC2",
    "meta_data": {
        "InChI": "InChI=1S/C10H8BrNO/c1-7(13)12-5-4-8-6-9(11)2-3-10(8)12/h2-6H,1H3",
        "InChIKey": null,
        "Canonical SMILES": "O=C(N1C=CC=2C=C(Br)C=CC21)C",
        "Molecular Formula": "C<sub>10</sub>H<sub>8</sub>BrNO",
        "Molecular Mass": "238.08",
        "Melting Point": "157-158 °C"
    }
}