{
    "cas_no": "1098-60-8",
    "key_name": "10<em>H</em>-Phenothiazine-10-propanamine, <em>N</em>,<em>N</em>-dimethyl-2-(trifluoromethyl)-, monohydrochloride",
    "cn_name": "盐酸三氟丙嗪;盐酸三氟丙嗪;",
    "alternate_name": "10<em>H</em>-Phenothiazine-10-propanamine, <em>N</em>,<em>N</em>-dimethyl-2-(trifluoromethyl)-, hydrochloride (1:1);Phenothiazine, 10-[3-(dimethylamino)propyl]-2-(trifluoromethyl)-, monohydrochloride;10<em>H</em>-Phenothiazine-10-propanamine, <em>N</em>,<em>N</em>-dimethyl-2-(trifluoromethyl)-, monohydrochloride;Phenothiazine, 10-(3-dimethylaminopropyl)-2-(trifluoromethyl)-, hydrochloride;10-(3-Dimethylaminopropyl)-2-(trifluoromethyl)phenothiazine monohydrochloride;Trifluopromazine hydrochloride;Triflupromazine hydrochloride;Vesprin hydrochloride;Vesprin;Siquil hydrochloride;Triflupromazine monohydrochloride;Neoprin;Nivoman;Flumazin;Fluorofen;MC 4703;Vetame;Syquil;Adazine;Vespral;Neocalm",
    "duplicated_cas_no": "",
    "SMILES": "C(CCN(C)C)N1C=2C(SC=3C1=CC=CC3)=CC=C(C(F)(F)F)C2.Cl",
    "meta_data": {
        "InChI": "InChI=1S/C18H19F3N2S.ClH/c1-22(2)10-5-11-23-14-6-3-4-7-16(14)24-17-9-8-13(12-15(17)23)18(19,20)21;/h3-4,6-9,12H,5,10-11H2,1-2H3;1H",
        "InChIKey": null,
        "Canonical SMILES": "Cl.FC(F)(F)C1=CC=C2SC=3C=CC=CC3N(C2=C1)CCCN(C)C",
        "Molecular Formula": "C<sub>18</sub>H<sub>19</sub>F<sub>3</sub>N<sub>2</sub>S.ClH",
        "Molecular Mass": "",
        "Melting Point": "172-174 °C (decomp)"
    }
}