{
    "cas_no": "5633-14-7",
    "key_name": "Benzetimide hydrochloride",
    "cn_name": "盐酸苄替米特;",
    "alternate_name": "[3,4′-Bipiperidine]-2,6-dione, 3-phenyl-1′-(phenylmethyl)-, hydrochloride (1:1);Glutarimide, 2-(1-benzyl-4-piperidyl)-2-phenyl-, monohydrochloride;[3,4′-Bipiperidine]-2,6-dione, 3-phenyl-1′-(phenylmethyl)-, monohydrochloride;Benzetimide hydrochloride;R 4929;Spasmentral;1′-Benzyl-3-phenyl-[3,4′-bipiperidine]-2,6-dione hydrochloride",
    "duplicated_cas_no": "",
    "SMILES": "O=C1C(CCC(=O)N1)(C2CCN(CC3=CC=CC=C3)CC2)C4=CC=CC=C4.Cl",
    "meta_data": {
        "InChI": "InChI=1S/C23H26N2O2.ClH/c26-21-11-14-23(22(27)24-21,19-9-5-2-6-10-19)20-12-15-25(16-13-20)17-18-7-3-1-4-8-18;/h1-10,20H,11-17H2,(H,24,26,27);1H",
        "InChIKey": null,
        "Canonical SMILES": "Cl.O=C1NC(=O)C(C=2C=CC=CC2)(CC1)C3CCN(CC=4C=CC=CC4)CC3",
        "Molecular Formula": "C<sub>23</sub>H<sub>26</sub>N<sub>2</sub>O<sub>2</sub>.ClH",
        "Molecular Mass": "",
        "Melting Point": "299-301.5 °C"
    }
}