{
    "cas_no": "3570-55-6",
    "key_name": "2-Mercaptoethyl sulfide",
    "cn_name": "2,2\"-硫代双(乙硫醇);双巯乙基硫醚;2-巯基乙基硫醚;",
    "alternate_name": "Ethanethiol, 2,2′-thiobis-;Ethanethiol, 2,2′-thiodi-;2,2′-Thiobis[ethanethiol];TDT;2-Mercaptoethyl sulfide;Bis(2-mercaptoethyl) sulfide;2,2′-Dimercaptodiethyl thioether;2,2′-Dimercaptodiethyl sulfide;2,2′-Thiodi(ethanethiol);1-Mercapto-2-(mercaptoethylthio)ethane;3-Thia-1,5-pentanedithiol;1,5-Dimercapto-3-thiapentane;1,4,7-Trithiaheptane;2-Mercaptoethyl thioether;Bis(2-sulfanylethyl) sulfide;NSC 4766;DMDS;2-[(2-Mercaptoethyl)thio]ethanethiol;IU 11B;2T-S;2-(2-Sulfanylethylsulfanyl)ethanethiol;2-[(2-Sulfanylethyl)sulfanyl]ethane-1-thiol;Di(2-mercaptoethyl) sulfide",
    "duplicated_cas_no": "",
    "SMILES": "S(CCS)CCS",
    "meta_data": {
        "InChI": "InChI=1S/C4H10S3/c5-1-3-7-4-2-6/h5-6H,1-4H2",
        "InChIKey": null,
        "Canonical SMILES": "SCCSCCS",
        "Molecular Formula": "C<sub>4</sub>H<sub>10</sub>S<sub>3</sub>",
        "Molecular Mass": "154.32",
        "Boiling Point": "135-136 °C @ Press: 10 Torr",
        "Melting Point": "-12.5 °C",
        "Density": "1.2187 g/cm³ @ Temp: 25 °C"
    }
}