{
    "cas_no": "2976-74-1",
    "key_name": "2,3-Dichlorophenoxyacetic acid",
    "cn_name": "2,3-二氯苯氧乙酸;",
    "alternate_name": "Acetic acid, 2-(2,3-dichlorophenoxy)-;Acetic acid, (2,3-dichlorophenoxy)-;2-(2,3-Dichlorophenoxy)acetic acid;2,3-Dichlorophenoxyacetic acid;2,3-D;NSC 74462",
    "duplicated_cas_no": "",
    "SMILES": "O(CC(O)=O)C1=C(Cl)C(Cl)=CC=C1",
    "meta_data": {
        "InChI": "InChI=1S/C8H6Cl2O3/c9-5-2-1-3-6(8(5)10)13-4-7(11)12/h1-3H,4H2,(H,11,12)",
        "InChIKey": null,
        "Canonical SMILES": "O=C(O)COC=1C=CC=C(Cl)C1Cl",
        "Molecular Formula": "C<sub>8</sub>H<sub>6</sub>Cl<sub>2</sub>O<sub>3</sub>",
        "Molecular Mass": "221.04",
        "Melting Point": "173-175 °C"
    }
}