{
    "cas_no": "853029-57-9",
    "key_name": "8-Bromo-7-(2-butyn-1-yl)-3,7-dihydro-3-methyl-1-[(4-methyl-2-quinazolinyl)methyl]-1<em>H</em>-purine-2,6-dione",
    "cn_name": null,
    "alternate_name": "1<em>H</em>-Purine-2,6-dione, 8-bromo-7-(2-butyn-1-yl)-3,7-dihydro-3-methyl-1-[(4-methyl-2-quinazolinyl)methyl]-;1<em>H</em>-Purine-2,6-dione, 8-bromo-7-(2-butynyl)-3,7-dihydro-3-methyl-1-[(4-methyl-2-quinazolinyl)methyl]-;8-Bromo-7-(2-butyn-1-yl)-3,7-dihydro-3-methyl-1-[(4-methyl-2-quinazolinyl)methyl]-1<em>H</em>-purine-2,6-dione;1-[(4-Methylquinazolin-2-yl)methyl]-3-methyl-7-(2-butyn-1-yl)-8-bromoxanthine",
    "duplicated_cas_no": "",
    "SMILES": "C(C#CC)N1C2=C(N(C)C(=O)N(CC3=NC4=C(C(C)=N3)C=CC=C4)C2=O)N=C1Br",
    "meta_data": {
        "InChI": "InChI=1S/C20H17BrN6O2/c1-4-5-10-26-16-17(24-19(26)21)25(3)20(29)27(18(16)28)11-15-22-12(2)13-8-6-7-9-14(13)23-15/h6-9H,10-11H2,1-3H3",
        "InChIKey": null,
        "Canonical SMILES": "O=C1C2=C(N=C(Br)N2CC#CC)N(C(=O)N1CC3=NC=4C=CC=CC4C(=N3)C)C",
        "Molecular Formula": "C<sub>20</sub>H<sub>17</sub>BrN<sub>6</sub>O<sub>2</sub>",
        "Molecular Mass": "453.29",
        "Melting Point": "229-231 °C"
    }
}