{
    "cas_no": "4101-32-0",
    "key_name": "1-(4,5-Dimethoxy-2-nitrophenyl)ethanone",
    "cn_name": null,
    "alternate_name": "Ethanone, 1-(4,5-dimethoxy-2-nitrophenyl)-;Acetophenone, 4′,5′-dimethoxy-2′-nitro-;1-(4,5-Dimethoxy-2-nitrophenyl)ethanone;4′,5′-Dimethoxy-2′-nitroacetophenone;1-(4,5-Dimethoxy-2-nitrophenyl)ethan-1-one",
    "duplicated_cas_no": "",
    "SMILES": "C(C)(=O)C1=C(N(=O)=O)C=C(OC)C(OC)=C1",
    "meta_data": {
        "InChI": "InChI=1S/C10H11NO5/c1-6(12)7-4-9(15-2)10(16-3)5-8(7)11(13)14/h4-5H,1-3H3",
        "InChIKey": null,
        "Canonical SMILES": "O=C(C1=CC(OC)=C(OC)C=C1N(=O)=O)C",
        "Molecular Formula": "C<sub>10</sub>H<sub>11</sub>NO<sub>5</sub>",
        "Molecular Mass": "225.20",
        "Melting Point": "133.5-135 °C"
    }
}