{
    "cas_no": "150-30-1",
    "key_name": "DL-Phenylalanine",
    "cn_name": "DL-苯丙氨酸;",
    "alternate_name": "Phenylalanine;Alanine, phenyl-, <span class=\"text-smallcaps\">D</smallcap><smallcap>L</span>-;Alanine, β-phenyl-;<span class=\"text-smallcaps\">D</smallcap><smallcap>L</span>-β-Phenyl-α-alanine;<span class=\"text-smallcaps\">D</smallcap><smallcap>L</span>-Phenylalanine;<span class=\"text-smallcaps\">D</smallcap><smallcap>L</span>-α-Amino-β-phenylpropionic acid;(±)-Phenylalanine;<span class=\"text-smallcaps\">D</smallcap><smallcap>L</span>-3-Phenylalanine;(±)-β-Phenyl-α-alanine;<span class=\"text-smallcaps\">D</smallcap><smallcap>L</span>-2-Amino-3-phenylpropionic acid;(±)-3-Phenyl-2-aminopropanoic acid;2-Amino-3-phenylpropanoic acid;NSC 9959;DLPA;<span class=\"text-smallcaps\">D</smallcap><smallcap>L</span>-2-Amino-3-phenylpropanoic acid;DL-Phenylalanine;DL-3-Phenylalanine;DL-2-Amino-3-phenylpropionic acid;DL-2-Amino-3-phenylpropanoic acid;DL-beta-Phenyl-alpha-alanine;<span class=\"text-smallcaps\">DL</span>-Phenylalanine;2-Azaniumyl-3-phenylpropanoate",
    "duplicated_cas_no": "",
    "SMILES": "C(C(C(O)=O)N)C1=CC=CC=C1",
    "meta_data": {
        "InChI": "InChI=1S/C9H11NO2/c10-8(9(11)12)6-7-4-2-1-3-5-7/h1-5,8H,6,10H2,(H,11,12)",
        "InChIKey": null,
        "Canonical SMILES": "O=C(O)C(N)CC=1C=CC=CC1",
        "Molecular Formula": "C<sub>9</sub>H<sub>11</sub>NO<sub>2</sub>",
        "Molecular Mass": "165.19",
        "Melting Point": "186 °C (decomp)"
    }
}