{
    "cas_no": "7697-25-8",
    "key_name": "2-Chloro-4-methylbenzoic acid",
    "cn_name": "2-氯-4-甲基苯甲酸;",
    "alternate_name": "Benzoic acid, 2-chloro-4-methyl-;<em>p</em>-Toluic acid, 2-chloro-;2-Chloro-4-methylbenzoic acid;2-Chloro-<em>p</em>-toluic acid;4-Methyl-2-chlorobenzoic acid",
    "duplicated_cas_no": "",
    "SMILES": "C(O)(=O)C1=C(Cl)C=C(C)C=C1",
    "meta_data": {
        "InChI": "InChI=1S/C8H7ClO2/c1-5-2-3-6(8(10)11)7(9)4-5/h2-4H,1H3,(H,10,11)",
        "InChIKey": null,
        "Canonical SMILES": "O=C(O)C1=CC=C(C=C1Cl)C",
        "Molecular Formula": "C<sub>8</sub>H<sub>7</sub>ClO<sub>2</sub>",
        "Molecular Mass": "170.59",
        "Melting Point": "195 °C"
    }
}