{
    "cas_no": "500287-72-9",
    "key_name": "Rilpivirine",
    "cn_name": null,
    "alternate_name": "Benzonitrile, 4-[[4-[[4-[(1<em>E</em>)-2-cyanoethenyl]-2,6-dimethylphenyl]amino]-2-pyrimidinyl]amino]-;4-[[4-[[4-[(1<em>E</em>)-2-Cyanoethenyl]-2,6-dimethylphenyl]amino]-2-pyrimidinyl]amino]benzonitrile;Rilpivirine;R 278474;TMC 278;Rekambys",
    "duplicated_cas_no": "",
    "SMILES": "N(C1=C(C)C=C(/C=C/C#N)C=C1C)C2=NC(NC3=CC=C(C#N)C=C3)=NC=C2",
    "meta_data": {
        "InChI": "InChI=1S/C22H18N6/c1-15-12-18(4-3-10-23)13-16(2)21(15)27-20-9-11-25-22(28-20)26-19-7-5-17(14-24)6-8-19/h3-9,11-13H,1-2H3,(H2,25,26,27,28)/b4-3+",
        "InChIKey": null,
        "Canonical SMILES": "N#CC=CC=1C=C(C(NC2=NC(=NC=C2)NC3=CC=C(C#N)C=C3)=C(C1)C)C",
        "Molecular Formula": "C<sub>22</sub>H<sub>18</sub>N<sub>6</sub>",
        "Molecular Mass": "366.42",
        "Melting Point": "245 °C"
    }
}