{
    "cas_no": "13360-63-9",
    "key_name": "Ethylbutylamine",
    "cn_name": "N-乙基正丁胺;N-乙基-N-丁基胺;",
    "alternate_name": "1-Butanamine, <em>N</em>-ethyl-;Butylamine, <em>N</em>-ethyl-;<em>N</em>-Ethyl-1-butanamine;<em>N</em>-Butyl-<em>N</em>-ethylamine;<em>N</em>-Ethylbutylamine;Butylethylamine;Ethylbutylamine;<em>N</em>-Ethyl-<em>N</em>-butylamine;<em>N</em>-Butylethylamine;<em>N</em>-Ethylbutanamine;<em>N</em>-Ethyl,<em>N</em>-(<em>n</em>-butyl)amine",
    "duplicated_cas_no": "",
    "SMILES": "C(CCC)NCC",
    "meta_data": {
        "InChI": "InChI=1S/C6H15N/c1-3-5-6-7-4-2/h7H,3-6H2,1-2H3",
        "InChIKey": null,
        "Canonical SMILES": "N(CC)CCCC",
        "Molecular Formula": "C<sub>6</sub>H<sub>15</sub>N",
        "Molecular Mass": "101.19",
        "Boiling Point": "107.5 °C",
        "Melting Point": "-78 °C",
        "Density": "0.7398 g/cm³ @ Temp: 20 °C"
    }
}