{
    "cas_no": "613-46-7",
    "key_name": "2-Naphthalenecarbonitrile",
    "cn_name": "2-萘甲腈;2-氰基萘;",
    "alternate_name": "2-Naphthalenecarbonitrile;2-Naphthonitrile;β-Naphthonitrile;2-Cyanonaphthalene;β-Cyanonaphthalene;2-Naphthalenenitrile;NSC 4169",
    "duplicated_cas_no": "",
    "SMILES": "C(#N)C1=CC2=C(C=C1)C=CC=C2",
    "meta_data": {
        "InChI": "InChI=1S/C11H7N/c12-8-9-5-6-10-3-1-2-4-11(10)7-9/h1-7H",
        "InChIKey": null,
        "Canonical SMILES": "N#CC=1C=CC=2C=CC=CC2C1",
        "Molecular Formula": "C<sub>11</sub>H<sub>7</sub>N",
        "Molecular Mass": "153.18",
        "Boiling Point": "306.5 °C",
        "Melting Point": "66 °C"
    }
}