{
    "cas_no": "1606-01-5",
    "key_name": "<em>N</em>,<em>N</em>-Diethylglycine",
    "cn_name": "2-二乙氨基乙酸盐酸盐;",
    "alternate_name": "Glycine, <em>N</em>,<em>N</em>-diethyl-;<em>N</em>,<em>N</em>-Diethylglycine;(Diethylamino)acetic acid;<em>N</em>,<em>N</em>-Diethylaminoacetic acid;2-(Diethylamino)acetic acid",
    "duplicated_cas_no": "",
    "SMILES": "N(CC(O)=O)(CC)CC",
    "meta_data": {
        "InChI": "InChI=1S/C6H13NO2/c1-3-7(4-2)5-6(8)9/h3-5H2,1-2H3,(H,8,9)",
        "InChIKey": null,
        "Canonical SMILES": "O=C(O)CN(CC)CC",
        "Molecular Formula": "C<sub>6</sub>H<sub>13</sub>NO<sub>2</sub>",
        "Molecular Mass": "131.17",
        "Boiling Point": "142-145 °C @ Press: 20 Torr",
        "Melting Point": "126-130 °C"
    }
}