{
    "cas_no": "626-64-2",
    "key_name": "4-Hydroxypyridine",
    "cn_name": null,
    "alternate_name": "4-Pyridinol;4-Pyridol;4-Hydroxypyridine;γ-Hydroxypyridine;NSC 5080",
    "duplicated_cas_no": "811801-35-1",
    "SMILES": "OC=1C=CN=CC1",
    "meta_data": {
        "InChI": "InChI=1S/C5H5NO/c7-5-1-3-6-4-2-5/h1-4H,(H,6,7)",
        "InChIKey": null,
        "Canonical SMILES": "OC=1C=CN=CC1",
        "Molecular Formula": "C<sub>5</sub>H<sub>5</sub>NO",
        "Molecular Mass": "95.10",
        "Boiling Point": "257 °C",
        "Melting Point": "149.8 °C"
    }
}