{
    "cas_no": "59804-37-4",
    "key_name": "Tenoxicam",
    "cn_name": "替诺昔康;4-羟基-2-甲基-N-(2-吡啶基)-2H-噻吩并(2,3-e)-1,2-噻嗪-3-甲酰胺1,1-二氧化物;",
    "alternate_name": "2<em>H</em>-Thieno[2,3-<em>e</em>]-1,2-thiazine-3-carboxamide, 4-hydroxy-2-methyl-<em>N</em>-2-pyridinyl-, 1,1-dioxide;Ro 12-0068;Tenoxicam;Tilcotil;Liman;Mobiflex;Tilatil;Dolmen;Alganex;Rexalgan;Oxamen-L;Epicotil;Soral;Texamen",
    "duplicated_cas_no": "",
    "SMILES": "OC=1C2=C(S(=O)(=O)N(C)C1C(NC3=CC=CC=N3)=O)C=CS2",
    "meta_data": {
        "InChI": "InChI=1S/C13H11N3O4S2/c1-16-10(13(18)15-9-4-2-3-6-14-9)11(17)12-8(5-7-21-12)22(16,19)20/h2-7,17H,1H3,(H,14,15,18)",
        "InChIKey": null,
        "Canonical SMILES": "O=C(NC1=NC=CC=C1)C2=C(O)C=3SC=CC3S(=O)(=O)N2C",
        "Molecular Formula": "C<sub>13</sub>H<sub>11</sub>N<sub>3</sub>O<sub>4</sub>S<sub>2</sub>",
        "Molecular Mass": "337.37",
        "Melting Point": "211 °C (decomp)",
        "Density": "1.59 g/cm³"
    }
}