{
    "cas_no": "4252-78-2",
    "key_name": "2,2′,4′-Trichloroacetophenone",
    "cn_name": "2,2\",4\"-三氯苯乙酮;",
    "alternate_name": "Ethanone, 2-chloro-1-(2,4-dichlorophenyl)-;Acetophenone, 2,2′,4′-trichloro-;2-Chloro-1-(2,4-dichlorophenyl)ethanone;2,4-Dichlorophenacyl chloride;2,2′,4′-Trichloroacetophenone;α,2,4-Trichloroacetophenone;ω-Chloro-2,4-dichloroacetophenone;2,4,2′-Trichloroacetophenone;Chloromethyl 2,4-dichlorophenyl ketone;2-Chloro-1-(2′,4′-dichlorophenyl)ethanone;2-Chloro-1-(2,4-dichlorophenyl)ethan-1-one",
    "duplicated_cas_no": "",
    "SMILES": "C(CCl)(=O)C1=C(Cl)C=C(Cl)C=C1",
    "meta_data": {
        "InChI": "InChI=1S/C8H5Cl3O/c9-4-8(12)6-2-1-5(10)3-7(6)11/h1-3H,4H2",
        "InChIKey": null,
        "Canonical SMILES": "O=C(C1=CC=C(Cl)C=C1Cl)CCl",
        "Molecular Formula": "C<sub>8</sub>H<sub>5</sub>Cl<sub>3</sub>O",
        "Molecular Mass": "223.48",
        "Boiling Point": "130-135 °C @ Press: 4 Torr",
        "Melting Point": "57 °C"
    }
}