{
    "cas_no": "21050-13-5",
    "key_name": "Bis(triphenylphosphine)iminium chloride",
    "cn_name": "双(三苯基正膦基)氯化铵;",
    "alternate_name": "Phosphorus(1+), triphenyl(<em>P</em>,<em>P</em>,<em>P</em>-triphenylphosphine imidato-κ<em>N</em>)-, chloride (1:1), (<em>T</em>-4)-;Phosphorus(1+), triphenyl(<em>P</em>,<em>P</em>,<em>P</em>-triphenylphosphine imidato)-, chloride;Phosphorus(1+), triphenyl(<em>P</em>,<em>P</em>,<em>P</em>-triphenylphosphine imidato-<em>N</em>)-, chloride, (<em>T</em>-4)-;Bis(triphenylphosphoranylidene)ammonium chloride;Phosphorus(1+), triphenyl(<em>P</em>,<em>P</em>,<em>P</em>-triphenylphosphine imidato-κ<em>N</em>)-, chloride, (<em>T</em>-4)-;Phosphine imide, <em>P</em>,<em>P</em>,<em>P</em>-triphenyl-, phosphorus complex;Bis(triphenylphosphine)iminium chloride;Triphenyl(<em>P</em>,<em>P</em>,<em>P</em>-triphenylphosphine imidato)phosphorus(1+) chloride;Bis(triphenylphosphine)iminium monochloride;PPNCl;Bis(triphenylphosphoranylidene)iminium chloride;Bis(triphenylphosphoranyldiene)ammonium chloride",
    "duplicated_cas_no": "13811-06-8;87593-63-3;89835-82-5;102276-71-1;106405-99-6;118070-78-3;148598-32-7;151930-74-4;154374-75-1;1640190-87-9",
    "SMILES": "[P+](N=P(C1=CC=CC=C1)(C2=CC=CC=C2)C3=CC=CC=C3)(C4=CC=CC=C4)(C5=CC=CC=C5)C6=CC=CC=C6.[Cl-]",
    "meta_data": {
        "InChI": "InChI=1S/C36H30NP2.ClH/c1-7-19-31(20-8-1)38(32-21-9-2-10-22-32,33-23-11-3-12-24-33)37-39(34-25-13-4-14-26-34,35-27-15-5-16-28-35)36-29-17-6-18-30-36;/h1-30H;1H/q+1;/p-1",
        "InChIKey": null,
        "Canonical SMILES": "[Cl-].N(=P(C=1C=CC=CC1)(C=2C=CC=CC2)C=3C=CC=CC3)[P+](C=4C=CC=CC4)(C=5C=CC=CC5)C=6C=CC=CC6",
        "Molecular Formula": "C<sub>36</sub>H<sub>30</sub>NP<sub>2</sub>.Cl",
        "Molecular Mass": "",
        "Melting Point": "272 °C"
    }
}