{
    "cas_no": "470-67-7",
    "key_name": "1,4-Cineole",
    "cn_name": "1,4-桉叶素;",
    "alternate_name": "7-Oxabicyclo[2.2.1]heptane, 1-methyl-4-(1-methylethyl)-;<em>p</em>-Menthane, 1,4-epoxy-;7-Oxabicyclo[2.2.1]heptane, 1-isopropyl-4-methyl-;1-Methyl-4-(1-methylethyl)-7-oxabicyclo[2.2.1]heptane;1,4-Cineole;Isocineole;1,4-Cineol;1-Methyl-4-(propan-2-yl)-7-oxabicyclo[2.2.1]heptane",
    "duplicated_cas_no": "21499-90-1",
    "SMILES": "C(C)(C)C12OC(C)(CC1)CC2",
    "meta_data": {
        "InChI": "InChI=1S/C10H18O/c1-8(2)10-6-4-9(3,11-10)5-7-10/h8H,4-7H2,1-3H3",
        "InChIKey": null,
        "Canonical SMILES": "O1C2(C)CCC1(CC2)C(C)C",
        "Molecular Formula": "C<sub>10</sub>H<sub>18</sub>O",
        "Molecular Mass": "154.25",
        "Boiling Point": "173-174 °C",
        "Melting Point": "1 °C",
        "Density": "0.8997 g/cm³ @ Temp: 20 °C"
    }
}