{
    "cas_no": "923565-21-3",
    "key_name": "1-[4-[(3-Fluorophenyl)amino]-1-piperidinyl]-2-[4-[[(3<em>S</em>)-3-methyl-1-piperazinyl]methyl]phenyl]ethanone",
    "cn_name": null,
    "alternate_name": "Ethanone, 1-[4-[(3-fluorophenyl)amino]-1-piperidinyl]-2-[4-[[(3<em>S</em>)-3-methyl-1-piperazinyl]methyl]phenyl]-;1-[4-[(3-Fluorophenyl)amino]-1-piperidinyl]-2-[4-[[(3<em>S</em>)-3-methyl-1-piperazinyl]methyl]phenyl]ethanone;GSK 962040;Camicinal;GSK 962040B;1-[4-(3-Fluoroanilino)piperidin-1-yl]-2-[4-[[(3S)-3-methylpiperazin-1-yl]methyl]phenyl]ethanone",
    "duplicated_cas_no": "",
    "SMILES": "C(CC1=CC=C(CN2C[C@H](C)NCC2)C=C1)(=O)N3CCC(NC4=CC(F)=CC=C4)CC3",
    "meta_data": {
        "InChI": "InChI=1S/C25H33FN4O/c1-19-17-29(14-11-27-19)18-21-7-5-20(6-8-21)15-25(31)30-12-9-23(10-13-30)28-24-4-2-3-22(26)16-24/h2-8,16,19,23,27-28H,9-15,17-18H2,1H3/t19-/m0/s1",
        "InChIKey": null,
        "Canonical SMILES": "O=C(N1CCC(NC=2C=CC=C(F)C2)CC1)CC3=CC=C(C=C3)CN4CCNC(C)C4",
        "Molecular Formula": "C<sub>25</sub>H<sub>33</sub>FN<sub>4</sub>O",
        "Molecular Mass": "424.55",
        "Melting Point": "144 °C"
    }
}