{
    "cas_no": "98-96-4",
    "key_name": "Pyrazinamide",
    "cn_name": "吡嗪酰胺;吡嗪甲酰胺;",
    "alternate_name": "2-Pyrazinecarboxamide;Pyrazinecarboxamide;D 50;MK 56;Aldinamid;2-Carbamylpyrazine;Eprazin;Pyrazinamide;Pyrazine carboxylamide;Pyrazinoic acid amide;Tebrazid;Aldinamide;Zinamide;Unipyranamide;Pyrazinecarboxylic acid amide;Pirazinamid;Novamid;Pirazimida;Farmizina;Pyrafat;2-Carboxamidopyrazine;α-Pyrazinamide;2-(Aminocarbonyl)pyrazine;NSC 14911;Pyrazide;Isopas;Rifafour e-200;Rifcin;Rozide;Pyramizade;MeSH ID: D011718",
    "duplicated_cas_no": "",
    "SMILES": "C(N)(=O)C=1C=NC=CN1",
    "meta_data": {
        "InChI": "InChI=1S/C5H5N3O/c6-5(9)4-3-7-1-2-8-4/h1-3H,(H2,6,9)",
        "InChIKey": null,
        "Canonical SMILES": "O=C(N)C1=NC=CN=C1",
        "Molecular Formula": "C<sub>5</sub>H<sub>5</sub>N<sub>3</sub>O",
        "Molecular Mass": "123.11",
        "Melting Point": "192 °C",
        "Density": "1.4475 g/cm³"
    }
}