{
    "cas_no": "401-84-3",
    "key_name": "1,3-Dibromo-5-(trifluoromethyl)benzene",
    "cn_name": null,
    "alternate_name": "Benzene, 1,3-dibromo-5-(trifluoromethyl)-;Toluene, 3,5-dibromo-α,α,α-trifluoro-;1,3-Dibromo-5-(trifluoromethyl)benzene;3,5-Dibromobenzotrifluoride;3,5-Dibromo-1-(trifluoromethyl)benzene",
    "duplicated_cas_no": "",
    "SMILES": "C(F)(F)(F)C1=CC(Br)=CC(Br)=C1",
    "meta_data": {
        "InChI": "InChI=1S/C7H3Br2F3/c8-5-1-4(7(10,11)12)2-6(9)3-5/h1-3H",
        "InChIKey": null,
        "Canonical SMILES": "FC(F)(F)C=1C=C(Br)C=C(Br)C1",
        "Molecular Formula": "C<sub>7</sub>H<sub>3</sub>Br<sub>2</sub>F<sub>3</sub>",
        "Molecular Mass": "303.90",
        "Boiling Point": "117-118 °C @ Press: 38 Torr",
        "Melting Point": "47.4-48.0 °C"
    }
}