{
    "cas_no": "108-33-8",
    "key_name": "2-Amino-5-methyl-1,3,4-thiadiazole",
    "cn_name": "2-氨基-5-甲基-1,3,4-噻二唑;",
    "alternate_name": "1,3,4-Thiadiazol-2-amine, 5-methyl-;1,3,4-Thiadiazole, 2-amino-5-methyl-;5-Methyl-1,3,4-thiadiazol-2-amine;2-Amino-5-methyl-1,3,4-thiadiazole;5-Amino-2-methyl-1,3,4-thiadiazole;2-Methyl-5-amino-1,3,4-thiadiazole;5-Methyl-2-amino-1,3,4-thiadiazole;2-Amino-5-methylthiadiazole;5-Methyl-1,3,4-thiadiazole-2-amine;NSC 137228;NSC 526661;(5-Methyl-1,3,4-thiadiazol-2-yl)amine",
    "duplicated_cas_no": "",
    "SMILES": "CC=1SC(N)=NN1",
    "meta_data": {
        "InChI": "InChI=1S/C3H5N3S/c1-2-5-6-3(4)7-2/h1H3,(H2,4,6)",
        "InChIKey": null,
        "Canonical SMILES": "N=1N=C(SC1N)C",
        "Molecular Formula": "C<sub>3</sub>H<sub>5</sub>N<sub>3</sub>S",
        "Molecular Mass": "115.16",
        "Melting Point": "235 °C"
    }
}