{
    "cas_no": "129-20-4",
    "key_name": "Oxazolidin",
    "cn_name": "羟保松;羟布宗;羟基保泰松;羟基保泰松,坦特利尔,羟保松;",
    "alternate_name": "3,5-Pyrazolidinedione, 4-butyl-1-(4-hydroxyphenyl)-2-phenyl-;3,5-Pyrazolidinedione, 4-butyl-1-(<em>p</em>-hydroxyphenyl)-2-phenyl-;4-Butyl-1-(4-hydroxyphenyl)-2-phenyl-3,5-pyrazolidinedione;G 27202;4-Butyl-2-(<em>p</em>-hydroxyphenyl)-1-phenyl-3,5-pyrazolidinedione;1-(<em>p</em>-Hydroxyphenyl)-2-phenyl-4-butyl-3,5-pyrazolidinedione;1-<em>p</em>-Hydroxyphenyl-2-phenyl-3,5-dioxo-4-<em>n</em>-butylpyrazolidine;Metabolite I;Oxazolidin;Oxyphenbutazone;Oxyphenobutazone;Oxyphenylbutazone;1-Phenyl-2-(<em>p</em>-hydroxyphenyl)-3,5-dioxo-4-butylpyrazolidine;Tandearil;Tanderil;Tendearil;<em>p</em>-Hydroxyphenylbutazone;4-Butyl-2-(4-hydroxyphenyl)-1-phenyl-3,5-dioxopyrazolidine;1-Phenyl-2-(<em>p</em>-hydroxyphenyl)-3,5-dioxo-4-<em>n</em>-butylpyrazolidine;4-Butyl-2-(<em>p</em>-hydroxyphenyl)-1-phenyl-3,4-pyrazolidinedione;<em>p</em>-Oxyphenylbutazone;Flogoril;Crovaril;Oxalid;Tandacote;Floghene;Telidal;Flogitolo;Butapirone;Neo-Farmadol;Flamaril;Offitril;Suganril;Romaxin;Ro 04-4410;Rapostan;Visubutina;Frabel;Californit;NSC 526053;MeSH ID: D010113",
    "duplicated_cas_no": "",
    "SMILES": "O=C1N(N(C(=O)C1CCCC)C2=CC=CC=C2)C3=CC=C(O)C=C3",
    "meta_data": {
        "InChI": "InChI=1S/C19H20N2O3/c1-2-3-9-17-18(23)20(14-7-5-4-6-8-14)21(19(17)24)15-10-12-16(22)13-11-15/h4-8,10-13,17,22H,2-3,9H2,1H3",
        "InChIKey": null,
        "Canonical SMILES": "O=C1N(C=2C=CC=CC2)N(C3=CC=C(O)C=C3)C(=O)C1CCCC",
        "Molecular Formula": "C<sub>19</sub>H<sub>20</sub>N<sub>2</sub>O<sub>3</sub>",
        "Molecular Mass": "324.37",
        "Melting Point": "96 °C"
    }
}