{
    "cas_no": "3011-89-0",
    "key_name": "Aklomide",
    "cn_name": "阿克洛胺;",
    "alternate_name": "Benzamide, 2-chloro-4-nitro-;2-Chloro-4-nitrobenzamide;Aklomide;Aklomix;4-Nitro-2-chlorobenzamide;NSC 191832",
    "duplicated_cas_no": "",
    "SMILES": "N(=O)(=O)C1=CC(Cl)=C(C(N)=O)C=C1",
    "meta_data": {
        "InChI": "InChI=1S/C7H5ClN2O3/c8-6-3-4(10(12)13)1-2-5(6)7(9)11/h1-3H,(H2,9,11)",
        "InChIKey": null,
        "Canonical SMILES": "O=C(N)C1=CC=C(C=C1Cl)N(=O)=O",
        "Molecular Formula": "C<sub>7</sub>H<sub>5</sub>ClN<sub>2</sub>O<sub>3</sub>",
        "Molecular Mass": "200.58",
        "Melting Point": "172 °C"
    }
}