{
    "cas_no": "20526-97-0",
    "key_name": "3-(<em>p</em>-Chlorobenzylidene)phthalide",
    "cn_name": null,
    "alternate_name": "1(3<em>H</em>)-Isobenzofuranone, 3-[(4-chlorophenyl)methylene]-;Phthalide, 3-(<em>p</em>-chlorobenzylidene)-;3-[(4-Chlorophenyl)methylene]-1(3<em>H</em>)-isobenzofuranone;3-(4-Chlorobenzal)phthalide;3-(<em>p</em>-Chlorobenzylidene)phthalide;3-(4-Chlorobenzylidene)-2-benzofuran-1(3<em>H</em>)-one;3-[(4-Chlorophenyl)methylidene]-2-benzofuran-1-one",
    "duplicated_cas_no": "",
    "SMILES": "C(=C1C=2C(C(=O)O1)=CC=CC2)C3=CC=C(Cl)C=C3",
    "meta_data": {
        "InChI": "InChI=1S/C15H9ClO2/c16-11-7-5-10(6-8-11)9-14-12-3-1-2-4-13(12)15(17)18-14/h1-9H",
        "InChIKey": null,
        "Canonical SMILES": "O=C1OC(=CC2=CC=C(Cl)C=C2)C=3C=CC=CC13",
        "Molecular Formula": "C<sub>15</sub>H<sub>9</sub>ClO<sub>2</sub>",
        "Molecular Mass": "256.68",
        "Melting Point": "152-153 °C"
    }
}