{
    "cas_no": "103-69-5",
    "key_name": "<em>N</em>-Ethylaniline",
    "cn_name": "N-乙基苯胺;",
    "alternate_name": "Benzenamine, <em>N</em>-ethyl-;Aniline, <em>N</em>-ethyl-;<em>N</em>-Ethylbenzenamine;Anilinoethane;<em>N</em>-Ethylaminobenzene;<em>N</em>-Ethylaniline;Ethylphenylamine;Ethylaniline;<em>N</em>-Ethyl-<em>N</em>-phenylamine;NSC 8736;<em>N</em>-Phenylethylamine",
    "duplicated_cas_no": "",
    "SMILES": "N(CC)C1=CC=CC=C1",
    "meta_data": {
        "InChI": "InChI=1S/C8H11N/c1-2-9-8-6-4-3-5-7-8/h3-7,9H,2H2,1H3",
        "InChIKey": null,
        "Canonical SMILES": "C=1C=CC(=CC1)NCC",
        "Molecular Formula": "C<sub>8</sub>H<sub>11</sub>N",
        "Molecular Mass": "121.18",
        "Boiling Point": "204.5 °C",
        "Melting Point": "-63.5 °C",
        "Density": "0.9625 g/cm³ @ Temp: 20 °C"
    }
}