{
    "cas_no": "631-07-2",
    "key_name": "Nirvanol",
    "cn_name": null,
    "alternate_name": "2,4-Imidazolidinedione, 5-ethyl-5-phenyl-;Hydantoin, 5-ethyl-5-phenyl-;5-Ethyl-5-phenyl-2,4-imidazolidinedione;5-Ethyl-5-phenylhydantoin;Nirvanol;5-Phenyl-5-ethylhydantoin;Ethylphenylhydantoin;Desmethylmephenytoin;Normephenytoin;(<em>RS</em>)-5-Ethyl-5-phenyl-2,4-imidazolidinedione;NSC 150466;NSC 33388",
    "duplicated_cas_no": "2216-93-5",
    "SMILES": "C(C)C1(C(=O)NC(=O)N1)C2=CC=CC=C2",
    "meta_data": {
        "InChI": "InChI=1S/C11H12N2O2/c1-2-11(8-6-4-3-5-7-8)9(14)12-10(15)13-11/h3-7H,2H2,1H3,(H2,12,13,14,15)",
        "InChIKey": null,
        "Canonical SMILES": "O=C1NC(=O)C(N1)(C=2C=CC=CC2)CC",
        "Molecular Formula": "C<sub>11</sub>H<sub>12</sub>N<sub>2</sub>O<sub>2</sub>",
        "Molecular Mass": "204.23",
        "Melting Point": "197 °C"
    }
}