{
    "cas_no": "56341-37-8",
    "key_name": "6-Chlorooxindole",
    "cn_name": "6-氯氧化吲哚;6-氯吲哚酮;",
    "alternate_name": "2<em>H</em>-Indol-2-one, 6-chloro-1,3-dihydro-;6-Chloro-1,3-dihydro-2<em>H</em>-indol-2-one;6-Chloro-2-oxoindoline;6-Chlorooxindole;6-Chloro-2-oxindole;6-Chloro-1,3-dihydroindol-2-one;6-Chloro-2-indolinone",
    "duplicated_cas_no": "1504576-68-4",
    "SMILES": "O=C1CC=2C(N1)=CC(Cl)=CC2",
    "meta_data": {
        "InChI": "InChI=1S/C8H6ClNO/c9-6-2-1-5-3-8(11)10-7(5)4-6/h1-2,4H,3H2,(H,10,11)",
        "InChIKey": null,
        "Canonical SMILES": "O=C1NC2=CC(Cl)=CC=C2C1",
        "Molecular Formula": "C<sub>8</sub>H<sub>6</sub>ClNO",
        "Molecular Mass": "167.59",
        "Melting Point": "196-198 °C"
    }
}