{
    "cas_no": "544-64-9",
    "key_name": "Myristoleic acid",
    "cn_name": "顺-9-十四碳烯酸;(Z)-9-十四烯酸;肉豆蔻油酸;9-十四烯酸;",
    "alternate_name": "9-Tetradecenoic acid, (9<em>Z</em>)-;9-Tetradecenoic acid, (<em>Z</em>)-;(9<em>Z</em>)-9-Tetradecenoic acid;Myristoleic acid;<em>cis</em>-Δ<sup>9</sup>-Tetradecenoic acid;<em>cis</em>-9-Tetradecenoic acid;Myristolenic acid;(<em>Z</em>)-9-Tetradecenoic acid;9-<em>cis</em>-Tetradecenoic acid;9(<em>Z</em>)-Tetradecenoic acid;9(Z)-Tetradecenoic acid;Oleomyristic acid;(9<em>Z</em>)-Tetradeca-9-enoic acid",
    "duplicated_cas_no": "",
    "SMILES": "C(CC/C=C\\CCCC)CCCCC(O)=O",
    "meta_data": {
        "InChI": "InChI=1S/C14H26O2/c1-2-3-4-5-6-7-8-9-10-11-12-13-14(15)16/h5-6H,2-4,7-13H2,1H3,(H,15,16)/b6-5-",
        "InChIKey": null,
        "Canonical SMILES": "O=C(O)CCCCCCCC=CCCCC",
        "Molecular Formula": "C<sub>14</sub>H<sub>26</sub>O<sub>2</sub>",
        "Molecular Mass": "226.35",
        "Boiling Point": "144 °C @ Press: 0.6 Torr",
        "Melting Point": "-4.5-4 °C"
    }
}