{
    "cas_no": "148-51-6",
    "key_name": "3-Pyridinemethanol, 5-hydroxy-4,6-dimethyl-, hydrochloride (1:1)",
    "cn_name": "4-脱氧吡哆醇盐酸盐;5-(羟甲基)-2,4-二甲基吡啶-3-醇盐酸盐;4-脱氧基维生素B6盐酸盐;",
    "alternate_name": "3-Pyridinemethanol, 5-hydroxy-4,6-dimethyl-, hydrochloride (1:1);3-Pyridinemethanol, 5-hydroxy-4,6-dimethyl-, hydrochloride;4-Deoxypyridoxine hydrochloride;4-Desoxyadermin hydrochloride;2,4-Dimethyl-3-hydroxy-5-hydroxymethylpyridine hydrochloride;5-Hydroxy-4,6-dimethyl-3-pyridinemethanol hydrochloride;3-Hydroxy-5-hydroxymethyl-2,4-dimethylpyridine hydrochloride;4-Deoxypyridoxol hydrochloride;4-Desoxypyridoxine hydrochloride;5-Hydroxymethyl-2,4-dimethylpyridin-3-ol hydrochloride",
    "duplicated_cas_no": "",
    "SMILES": "C(O)C=1C(C)=C(O)C(C)=NC1.Cl",
    "meta_data": {
        "InChI": "InChI=1S/C8H11NO2.ClH/c1-5-7(4-10)3-9-6(2)8(5)11;/h3,10-11H,4H2,1-2H3;1H",
        "InChIKey": null,
        "Canonical SMILES": "Cl.OC=1C(=NC=C(C1C)CO)C",
        "Molecular Formula": "C<sub>8</sub>H<sub>11</sub>NO<sub>2</sub>.ClH",
        "Molecular Mass": "",
        "Melting Point": "254 °C"
    }
}