{
    "cas_no": "3002-81-1",
    "key_name": "5,6-Dimethyl-1,10-phenanthroline",
    "cn_name": "5,6-二甲基-1,10-菲咯啉;5,6-二甲基-1,10-菲罗啉;5,6-二甲基-1,10-邻二氮杂菲;",
    "alternate_name": "1,10-Phenanthroline, 5,6-dimethyl-;5,6-Dimethyl-1,10-phenanthroline;5,6-Dimethyl-<em>o</em>-phenanthroline",
    "duplicated_cas_no": "71958-76-4",
    "SMILES": "CC1=C2C(=C3C(=C1C)C=CC=N3)N=CC=C2",
    "meta_data": {
        "InChI": "InChI=1S/C14H12N2/c1-9-10(2)12-6-4-8-16-14(12)13-11(9)5-3-7-15-13/h3-8H,1-2H3",
        "InChIKey": null,
        "Canonical SMILES": "N1=CC=CC=2C1=C3N=CC=CC3=C(C2C)C",
        "Molecular Formula": "C<sub>14</sub>H<sub>12</sub>N<sub>2</sub>",
        "Molecular Mass": "208.26",
        "Melting Point": "265-266 °C"
    }
}