{
    "cas_no": "4928-88-5",
    "key_name": "Methyl 1<em>H</em>-1,2,4-triazole-5-carboxylate",
    "cn_name": "1,2,4-三氮唑-3-羧酸甲酯;",
    "alternate_name": "1<em>H</em>-1,2,4-Triazole-5-carboxylic acid, methyl ester;<em>s</em>-Triazole-3-carboxylic acid, methyl ester;1<em>H</em>-1,2,4-Triazole-3-carboxylic acid, methyl ester;Methyl 1<em>H</em>-1,2,4-triazole-5-carboxylate;Methyl 1,2,4-triazole-3-carboxylate;3-Methoxycarbonyl-1,2,4-triazole;Methyl 1<em>H</em>-1,2,4-triazole-3-carboxylate;Methyl 1-[1,2,4]triazole-3-carboxylate;Methyl 4<em>H</em>-1,2,4-triazole-3-carboxylate",
    "duplicated_cas_no": "",
    "SMILES": "C(OC)(=O)C=1NC=NN1",
    "meta_data": {
        "InChI": "InChI=1S/C4H5N3O2/c1-9-4(8)3-5-2-6-7-3/h2H,1H3,(H,5,6,7)",
        "InChIKey": null,
        "Canonical SMILES": "O=C(OC)C1=NN=CN1",
        "Molecular Formula": "C<sub>4</sub>H<sub>5</sub>N<sub>3</sub>O<sub>2</sub>",
        "Molecular Mass": "127.10",
        "Melting Point": "198 °C (decomp)"
    }
}