{
    "cas_no": "30727-14-1",
    "key_name": "1-Ethyl-3-pyrrolidinol",
    "cn_name": "N-乙基-3-吡咯烷醇;",
    "alternate_name": "3-Pyrrolidinol, 1-ethyl-;1-Ethyl-3-pyrrolidinol;<em>N</em>-Ethyl-3-pyrrolidinol;<em>N</em>-Ethyl-3-hydroxypyrrolidine;NSC 88610",
    "duplicated_cas_no": "",
    "SMILES": "C(C)N1CC(O)CC1",
    "meta_data": {
        "InChI": "InChI=1S/C6H13NO/c1-2-7-4-3-6(8)5-7/h6,8H,2-5H2,1H3",
        "InChIKey": null,
        "Canonical SMILES": "OC1CN(CC)CC1",
        "Molecular Formula": "C<sub>6</sub>H<sub>13</sub>NO",
        "Molecular Mass": "115.17",
        "Boiling Point": "117-118 °C @ Press: 39 Torr"
    }
}