{
    "cas_no": "50-21-5",
    "key_name": "Lactic acid",
    "cn_name": "乳酸;2-羟基丙酸;alpha-羟基丙酸;",
    "alternate_name": "Propanoic acid, 2-hydroxy-;Lactic acid;2-Hydroxypropanoic acid;α-Hydroxypropionic acid;2-Hydroxypropionic acid;Milk acid;α-Hydroxypropanoic acid;Chem-Cast;Biolac;<span class=\"text-smallcaps\">DL</span>-Lactic acid;Tonsillosan;(±)-Lactic acid;<em>dl</em>-Lactic acid;Purac FCC 88;2-Hydroxy-2-methylacetic acid;E 270;NSC 367919;Purac FCC 80;HiPure 88;Lurex;Purac HS 88;Purac HS 100;(<em>RS</em>)-2-Hydroxypropanoic acid;Kiwilustre;Musashino lactate 50F;Masashino Lactic acid 90F;Purac 55;Purac 60;Purac HS 50;Rac-lactic acid;Lactate;Purac UltraPure 90;MeSH ID: D019344;Purac PF 90",
    "duplicated_cas_no": "152-36-3;598-82-3;1334714-39-4",
    "SMILES": "C(C(O)=O)(C)O",
    "meta_data": {
        "InChI": "InChI=1S/C3H6O3/c1-2(4)3(5)6/h2,4H,1H3,(H,5,6)",
        "InChIKey": null,
        "Canonical SMILES": "O=C(O)C(O)C",
        "Molecular Formula": "C<sub>3</sub>H<sub>6</sub>O<sub>3</sub>",
        "Molecular Mass": "90.08",
        "Boiling Point": "122 °C @ Press: 14-15 Torr",
        "Melting Point": "16.8 °C",
        "Density": "1.249 g/cm³ @ Temp: 15 °C"
    }
}