{
    "cas_no": "3353-69-3",
    "key_name": "1,2-Bis(dichloromethylsilyl)ethane",
    "cn_name": "1,2-二(甲基二氯硅基)乙烷;",
    "alternate_name": "Silane, 1,1′-(1,2-ethanediyl)bis[1,1-dichloro-1-methyl-;2,5-Disilahexane, 2,2,5,5-tetrachloro-;Silane, 1,2-ethanediylbis[dichloromethyl-;1,1′-(1,2-Ethanediyl)bis[1,1-dichloro-1-methylsilane];1,2-Bis(dichloromethylsilyl)ethane;2,2,5,5-Tetrachloro-2,5-disilahexane;1,2-Ethanediylbis[dichloromethylsilane];1,2-Bis(methyldichlorosilyl)ethane",
    "duplicated_cas_no": "99979-79-0",
    "SMILES": "C(C[Si](C)(Cl)Cl)[Si](C)(Cl)Cl",
    "meta_data": {
        "InChI": "InChI=1S/C4H10Cl4Si2/c1-9(5,6)3-4-10(2,7)8/h3-4H2,1-2H3",
        "InChIKey": null,
        "Canonical SMILES": "Cl[Si](Cl)(C)CC[Si](Cl)(Cl)C",
        "Molecular Formula": "C<sub>4</sub>H<sub>10</sub>Cl<sub>4</sub>Si<sub>2</sub>",
        "Molecular Mass": "256.11",
        "Boiling Point": "208-210 °C",
        "Melting Point": "31-33 °C",
        "Density": "1.262 g/cm³"
    }
}