{
    "cas_no": "828-27-3",
    "key_name": "4-(Trifluoromethoxy)phenol",
    "cn_name": "对三氟甲氧基苯酚;对羟基三氟甲氧基苯;",
    "alternate_name": "Phenol, 4-(trifluoromethoxy)-;Phenol, <em>p</em>-(trifluoromethoxy)-;4-(Trifluoromethoxy)phenol;<em>p</em>-(Trifluoromethoxy)phenol",
    "duplicated_cas_no": "",
    "SMILES": "O(C(F)(F)F)C1=CC=C(O)C=C1",
    "meta_data": {
        "InChI": "InChI=1S/C7H5F3O2/c8-7(9,10)12-6-3-1-5(11)2-4-6/h1-4,11H",
        "InChIKey": null,
        "Canonical SMILES": "FC(F)(F)OC1=CC=C(O)C=C1",
        "Molecular Formula": "C<sub>7</sub>H<sub>5</sub>F<sub>3</sub>O<sub>2</sub>",
        "Molecular Mass": "178.11",
        "Boiling Point": "90 °C @ Press: 4.5 Torr"
    }
}