{
    "cas_no": "286-62-4",
    "key_name": "Cyclooctene oxide",
    "cn_name": "1,2-环氧环辛烷;1,2-环氧环辛烷;",
    "alternate_name": "9-Oxabicyclo[6.1.0]nonane;Cyclooctane, 1,2-epoxy-;Epoxycyclooctane;1,2-Epoxycyclooctane;Cyclooctene epoxide;NSC 59878;Cyclooctane oxide;Cyclooctene oxide",
    "duplicated_cas_no": "852554-68-8",
    "SMILES": "C12C(O1)CCCCCC2",
    "meta_data": {
        "InChI": "InChI=1S/C8H14O/c1-2-4-6-8-7(9-8)5-3-1/h7-8H,1-6H2",
        "InChIKey": null,
        "Canonical SMILES": "O1C2CCCCCCC12",
        "Molecular Formula": "C<sub>8</sub>H<sub>14</sub>O",
        "Molecular Mass": "126.20",
        "Boiling Point": "189-190 °C",
        "Melting Point": "45 °C"
    }
}