{
    "cas_no": "83-39-6",
    "key_name": "1<em>H</em>-Imidazole-4,5-dicarboxamide",
    "cn_name": "4,5-咪唑二酰胺;咪唑-4,5-二酰胺;",
    "alternate_name": "1<em>H</em>-Imidazole-4,5-dicarboxamide;Imidazole-4,5-dicarboxamide;Glycamide;Glycarbylamide;Glycamide 12",
    "duplicated_cas_no": "8027-74-5",
    "SMILES": "C(N)(=O)C1=C(C(N)=O)N=CN1",
    "meta_data": {
        "InChI": "InChI=1S/C5H6N4O2/c6-4(10)2-3(5(7)11)9-1-8-2/h1H,(H2,6,10)(H2,7,11)(H,8,9)",
        "InChIKey": null,
        "Canonical SMILES": "O=C(N)C=1N=CNC1C(=O)N",
        "Molecular Formula": "C<sub>5</sub>H<sub>6</sub>N<sub>4</sub>O<sub>2</sub>",
        "Molecular Mass": "154.13",
        "Melting Point": "&gt;360 °C"
    }
}