{
    "cas_no": "12008-21-8",
    "key_name": "Lanthanum hexaboride",
    "cn_name": "硼化镧;",
    "alternate_name": "Lanthanum boride (LaB<sub>6</sub>), (<em>OC</em>-6-11)-;Lanthanum boride (LaB<sub>6</sub>);Lanthanum hexaboride;Lanthanum hexaboride (LaB<sub>6</sub>);Lanthanum boride;LaB<sub>6</sub>-F;KHF 7;Alfa 43100;KHGS 02;KHDS 6;KHF 7AH;XT 0804-2-1;HW-B 005;202110LLF;4430DX",
    "duplicated_cas_no": "674783-29-0;1393738-69-6",
    "SMILES": "[La](#B)(#B)(#B)(#B)(#B)#B",
    "meta_data": {
        "InChI": "InChI=1S/6B.La",
        "InChIKey": null,
        "Canonical SMILES": "B#[La](#B)(#B)(#B)(#B)#B",
        "Molecular Formula": "B<sub>6</sub>La",
        "Molecular Mass": "",
        "Melting Point": "2715 °C",
        "Density": "4.62 g/cm³ (solid)"
    }
}