{
    "cas_no": "82185-41-9",
    "key_name": "Benzyl anthranilate",
    "cn_name": null,
    "alternate_name": "Benzoic acid, 2-amino-, phenylmethyl ester;Anthranilic acid, benzyl ester;Benzyl <em>o</em>-aminobenzoate;Benzyl anthranilate;Benzyl 2-aminobenzoate",
    "duplicated_cas_no": "",
    "SMILES": "C(OCC1=CC=CC=C1)(=O)C2=C(N)C=CC=C2",
    "meta_data": {
        "InChI": "InChI=1S/C14H13NO2/c15-13-9-5-4-8-12(13)14(16)17-10-11-6-2-1-3-7-11/h1-9H,10,15H2",
        "InChIKey": null,
        "Canonical SMILES": "O=C(OCC=1C=CC=CC1)C=2C=CC=CC2N",
        "Molecular Formula": "C<sub>14</sub>H<sub>13</sub>NO<sub>2</sub>",
        "Molecular Mass": "227.26",
        "Melting Point": "79-80 °C"
    }
}