{
    "cas_no": "2150-37-0",
    "key_name": "Methyl 3,5-dimethoxybenzoate",
    "cn_name": "3,5-二甲氧基苯甲酸甲酯;",
    "alternate_name": "Benzoic acid, 3,5-dimethoxy-, methyl ester;Methyl 3,5-dimethoxybenzoate;3,5-Dimethoxybenzoic acid methyl ester;NSC 65605;Methyl 3,5-bis(methyloxy)benzoate",
    "duplicated_cas_no": "",
    "SMILES": "C(OC)(=O)C1=CC(OC)=CC(OC)=C1",
    "meta_data": {
        "InChI": "InChI=1S/C10H12O4/c1-12-8-4-7(10(11)14-3)5-9(6-8)13-2/h4-6H,1-3H3",
        "InChIKey": null,
        "Canonical SMILES": "O=C(OC)C=1C=C(OC)C=C(OC)C1",
        "Molecular Formula": "C<sub>10</sub>H<sub>12</sub>O<sub>4</sub>",
        "Molecular Mass": "196.20",
        "Melting Point": "43 °C"
    }
}