{
    "cas_no": "33213-65-9",
    "key_name": "β-Endosulfan",
    "cn_name": "beta-硫丹;硫丹II;",
    "alternate_name": "6,9-Methano-2,4,3-benzodioxathiepin, 6,7,8,9,10,10-hexachloro-1,5,5a,6,9,9a-hexahydro-, 3-oxide, (3α,5aα,6β,9β,9aα)-;5-Norbornene-2,3-dimethanol, 1,4,5,6,7,7-hexachloro-, cyclic sulfite, <em>exo</em>-;Endosulfan B;Endosulfan II;General Weed Killer;β-Thiodan;β-Endosulfan;Endosulfan 2;α-Thionex;β-Benzoepin;Thiodan II;Endosulphan II",
    "duplicated_cas_no": "891-86-1;12640-59-4;19670-15-6",
    "SMILES": "Cl[C@@]12[C@]3([C@@]([C@@](Cl)(C1(Cl)Cl)C(Cl)=C2Cl)(COS(=O)OC3)[H])[H]",
    "meta_data": {
        "InChI": "InChI=1/C9H6Cl6O3S/c10-5-6(11)8(13)4-2-18-19(16)17-1-3(4)7(5,12)9(8,14)15/h3-4H,1-2H2/t3-,4+,7-,8+,19-",
        "InChIKey": null,
        "Canonical SMILES": "O=S1OCC2C(CO1)C3(Cl)C(Cl)=C(Cl)C2(Cl)C3(Cl)Cl",
        "Molecular Formula": "C<sub>9</sub>H<sub>6</sub>Cl<sub>6</sub>O<sub>3</sub>S",
        "Molecular Mass": "406.93",
        "Melting Point": "213.3 °C"
    }
}