{
    "cas_no": "1836-77-7",
    "key_name": "Chlornitrofen",
    "cn_name": "草枯醚;2,4,6-三氯苯基-4\"硝基苯醚;",
    "alternate_name": "Benzene, 1,3,5-trichloro-2-(4-nitrophenoxy)-;Ether, <em>p</em>-nitrophenyl 2,4,6-trichlorophenyl;1,3,5-Trichloro-2-(4-nitrophenoxy)benzene;MC 1478;2,4,6-Trichlorophenyl 4-nitrophenyl ether;<em>p</em>-Nitrophenyl 2,4,6-trichlorophenyl ether;CNP;2,4,6-Trichlorophenyl <em>p</em>-nitrophenyl ether;2,4,6-Trichloro-4′-nitrodiphenyl ether;MO 338;Chlornitrofen;CNP 1032;MC 338;1-Nitro-4-(2,4,6-trichlorophenoxy)benzene;2′,4′,6′-Trichloro-4-nitrodiphenyl ether;4-Nitrophenyl 2,4,6-trichlorophenyl ether",
    "duplicated_cas_no": "",
    "SMILES": "O(C1=C(Cl)C=C(Cl)C=C1Cl)C2=CC=C(N(=O)=O)C=C2",
    "meta_data": {
        "InChI": "InChI=1S/C12H6Cl3NO3/c13-7-5-10(14)12(11(15)6-7)19-9-3-1-8(2-4-9)16(17)18/h1-6H",
        "InChIKey": null,
        "Canonical SMILES": "O=N(=O)C1=CC=C(OC=2C(Cl)=CC(Cl)=CC2Cl)C=C1",
        "Molecular Formula": "C<sub>12</sub>H<sub>6</sub>Cl<sub>3</sub>NO<sub>3</sub>",
        "Molecular Mass": "318.54",
        "Boiling Point": "210 °C @ Press: 6 Torr",
        "Melting Point": "105.5 °C"
    }
}