{
    "cas_no": "24991-55-7",
    "key_name": "Polyethylene glycol dimethyl ether",
    "cn_name": null,
    "alternate_name": "Poly(oxy-1,2-ethanediyl), α-methyl-ω-methoxy-;Glycols, polyethylene, dimethyl ether;Selexol;Polyethylene glycol dimethyl ether;Glyme 23;Polyoxyethylene dimethyl ether;α-Methyl-ω-methoxypolyoxyethylene;α,ω-Methoxypoly(ethylene oxide);Dimethoxy polyethylene glycol;CLE 400;U-Nox DM 1000;U-Nox DM 200;Nissan Unisafe MM 1000;Nissan Unisafe MM 400;Genosorb 300;Varonic DM 55;Sanfine DM 200;Sanfine DM 1000;Sanfine DM 400;PEG-DME 2000;Genosorb 175;Carpol CLE 1000;Carpol CLE 400;Uniox MM 500;MM 500;Nissan Uniox MM 500;Poly(ethylene oxide) dimethyl ether;PolyDME 250;Uniox MM 1000;Uniox MM 2000;Uniox MM 800;Nissan Uniox MM 1000;Nissan Uniox MM 2000;Nissan Uniox MM 800;PEG-DME;DM 400;MM 1000;NHD;NHD (solvent);Adeka Carpol CLE 400;Polyglycol DME 500;Polyglycol DME 250;Hisolve MPM;Genosorb 1753;Polyglyme;Uniox MM 550;Nissan Uniox MM 550;B 19504;Uniox MM 400;MM 400;NHD 250",
    "duplicated_cas_no": "52755-96-1;144808-02-6;144808-03-7;847145-59-9;890090-87-6;1194542-96-5;2414559-30-9",
    "SMILES": "",
    "meta_data": {
        "InChI": "",
        "InChIKey": null,
        "Canonical SMILES": "",
        "Molecular Formula": "(C<sub>2</sub>H<sub>4</sub>O)<sub>n</sub>C<sub>2</sub>H<sub>6</sub>O",
        "Molecular Mass": "",
        "Melting Point": "53 °C",
        "Density": "1.026 g/cm³ (liquid) @ Temp: 40 °C; Press: 751 Torr"
    }
}