{
    "cas_no": "2122-63-6",
    "key_name": "4-Amino-3-iodobenzoic acid",
    "cn_name": "4-氨基-3-碘苯甲酸;",
    "alternate_name": "Benzoic acid, 4-amino-3-iodo-;4-Amino-3-iodobenzoic acid;3-Iodo-4-aminobenzoic acid;NSC 85381",
    "duplicated_cas_no": "",
    "SMILES": "C(O)(=O)C1=CC(I)=C(N)C=C1",
    "meta_data": {
        "InChI": "InChI=1S/C7H6INO2/c8-5-3-4(7(10)11)1-2-6(5)9/h1-3H,9H2,(H,10,11)",
        "InChIKey": null,
        "Canonical SMILES": "O=C(O)C1=CC=C(N)C(I)=C1",
        "Molecular Formula": "C<sub>7</sub>H<sub>6</sub>INO<sub>2</sub>",
        "Molecular Mass": "263.03",
        "Melting Point": "201-202 °C"
    }
}