{
    "cas_no": "1028-33-7",
    "key_name": "Pentifylline",
    "cn_name": "己可碱;己可可碱;1-己基可可碱;1-正-己基可可碱;",
    "alternate_name": "1<em>H</em>-Purine-2,6-dione, 1-hexyl-3,7-dihydro-3,7-dimethyl-;Theobromine, 1-hexyl-;1-Hexyl-3,7-dihydro-3,7-dimethyl-1<em>H</em>-purine-2,6-dione;Cosaldon;1-Hexyl-3,7-dimethylxanthine;1-Hexyltheobromine;1-<em>n</em>-Hexyl-3,7-dimethyl-xanthine;3,7-Dimethyl-1-hexyl-1<em>H</em>,3<em>H</em>-purin-2,6-dione;SK 7;Pentifylline;Hexyltheobromine;SK 7 (pharmaceutical);Cosadon;1-Hexyl-3,7-dimethylpurine-2,6-dione;1-Hexyl-3,7-dimethyl-1<em>H</em>-purine-2,6(3<em>H</em>,7<em>H</em>)-dione",
    "duplicated_cas_no": "",
    "SMILES": "O=C1C2=C(N(C)C(=O)N1CCCCCC)N=CN2C",
    "meta_data": {
        "InChI": "InChI=1S/C13H20N4O2/c1-4-5-6-7-8-17-12(18)10-11(14-9-15(10)2)16(3)13(17)19/h9H,4-8H2,1-3H3",
        "InChIKey": null,
        "Canonical SMILES": "O=C1C2=C(N=CN2C)N(C(=O)N1CCCCCC)C",
        "Molecular Formula": "C<sub>13</sub>H<sub>20</sub>N<sub>4</sub>O<sub>2</sub>",
        "Molecular Mass": "264.32",
        "Melting Point": "82.5 °C"
    }
}