{
    "cas_no": "10517-44-9",
    "key_name": "1,3-Diaminopropane dihydrochloride",
    "cn_name": "1,3-二氨基丙烷盐酸盐;丙二胺二盐酸盐;",
    "alternate_name": "1,3-Propanediamine, dihydrochloride;Trimethylenediamine dihydrochloride;1,3-Diaminopropane dihydrochloride",
    "duplicated_cas_no": "",
    "SMILES": "C(CN)CN.Cl",
    "meta_data": {
        "InChI": "InChI=1S/C3H10N2.2ClH/c4-2-1-3-5;;/h1-5H2;2*1H",
        "InChIKey": null,
        "Canonical SMILES": "Cl.NCCCN",
        "Molecular Formula": "C<sub>3</sub>H<sub>10</sub>N<sub>2</sub>.2ClH",
        "Molecular Mass": "",
        "Melting Point": "242 °C"
    }
}