{
    "cas_no": "653-30-5",
    "key_name": "2,3,4,5,6-Pentafluorobenzeneacetonitrile",
    "cn_name": "五氟苯乙腈;",
    "alternate_name": "Benzeneacetonitrile, 2,3,4,5,6-pentafluoro-;Acetonitrile, (pentafluorophenyl)-;2,3,4,5,6-Pentafluorobenzeneacetonitrile;(Pentafluorophenyl)acetonitrile;Pentafluorobenzyl cyanide;2,3,4,5,6-Pentafluorophenylacetonitrile;NSC 612875;2,3,4,5,6-Pentafluoro-1-(cyanomethyl)benzene;2-(Perfluorophenyl)acetonitrile;2-(2,3,4,5,6-Pentafluorophenyl)acetonitrile;2-(Pentafluorophenyl)acetonitrile",
    "duplicated_cas_no": "",
    "SMILES": "C(C#N)C1=C(F)C(F)=C(F)C(F)=C1F",
    "meta_data": {
        "InChI": "InChI=1S/C8H2F5N/c9-4-3(1-2-14)5(10)7(12)8(13)6(4)11/h1H2",
        "InChIKey": null,
        "Canonical SMILES": "N#CCC=1C(F)=C(F)C(F)=C(F)C1F",
        "Molecular Formula": "C<sub>8</sub>H<sub>2</sub>F<sub>5</sub>N",
        "Molecular Mass": "207.10",
        "Boiling Point": "107-111 °C @ Press: 17 Torr"
    }
}