{
    "cas_no": "16606-02-3",
    "key_name": "PCB 31",
    "cn_name": "2,4,5-三氯联苯醚;2,4,5-三氯联苯醚PCBNo31;",
    "alternate_name": "1,1′-Biphenyl, 2,4′,5-trichloro-;Biphenyl, 2,4′,5-trichloro-;2,4′,5-Trichloro-1,1′-biphenyl;2,4′,5-Trichlorobiphenyl;4,2′,5′-Trichlorobiphenyl;Delor 103;PCB 31",
    "duplicated_cas_no": "63439-93-0",
    "SMILES": "ClC1=C(C=C(Cl)C=C1)C2=CC=C(Cl)C=C2",
    "meta_data": {
        "InChI": "InChI=1S/C12H7Cl3/c13-9-3-1-8(2-4-9)11-7-10(14)5-6-12(11)15/h1-7H",
        "InChIKey": null,
        "Canonical SMILES": "ClC=1C=CC(=CC1)C2=CC(Cl)=CC=C2Cl",
        "Molecular Formula": "C<sub>12</sub>H<sub>7</sub>Cl<sub>3</sub>",
        "Molecular Mass": "257.54",
        "Melting Point": "67 °C"
    }
}