{
    "cas_no": "3562-73-0",
    "key_name": "1-(4-Biphenylyl)ethanol",
    "cn_name": null,
    "alternate_name": "[1,1′-Biphenyl]-4-methanol, α-methyl-;4-Biphenylmethanol, α-methyl-;α-Methyl[1,1′-biphenyl]-4-methanol;Diascleril;α-Methyl-4-biphenylmethanol;Difencol;Drucoles;1-(4′-Biphenyl)-1-ethanol;1-(4-Biphenylyl)ethanol;(±)-1-(4-Phenylphenyl)ethanol;(<em>RS</em>)-1-<em>p</em>-Biphenylethanol;4-(1-Hydroxyethyl)-1,1′-biphenyl;(±)-1-(4-Biphenyl)ethanol;α-Methyl-<em>p</em>-phenylbenzyl alcohol;α-Methyl-1,1′-biphenyl-4-methanol;4-(1-Hydroxyethyl)biphenyl;NSC 58063;1-(<em>p</em>-Biphenyl)ethanol;α-Methyl-4-phenylbenzyl alcohol;1-(<em>p</em>-Phenylphenyl)ethanol;1-(4-Phenylphenyl)ethanol;1-(4-Biphenyl)ethanol;1-(4-Biphenylyl)-1-ethanol;1-(4-Phenylphenyl)ethan-1-ol",
    "duplicated_cas_no": "13860-18-9;25675-30-3",
    "SMILES": "C(C)(O)C1=CC=C(C=C1)C2=CC=CC=C2",
    "meta_data": {
        "InChI": "InChI=1S/C14H14O/c1-11(15)12-7-9-14(10-8-12)13-5-3-2-4-6-13/h2-11,15H,1H3",
        "InChIKey": null,
        "Canonical SMILES": "OC(C=1C=CC(=CC1)C=2C=CC=CC2)C",
        "Molecular Formula": "C<sub>14</sub>H<sub>14</sub>O",
        "Molecular Mass": "198.26",
        "Melting Point": "90-92 °C"
    }
}