{
    "cas_no": "1127-45-3",
    "key_name": "8-Hydroxyquinoline <em>N</em>-oxide",
    "cn_name": "8-羟基喹啉-N-氧化物;",
    "alternate_name": "8-Quinolinol, 1-oxide;8-Hydroxyquinoline 1-oxide;8-Hydroxyquinoline <em>N</em>-oxide;<em>o</em>-Hydroxyquinoline <em>N</em>-oxide;8-Quinolinol <em>N</em>-oxide;NSC 21656",
    "duplicated_cas_no": "",
    "SMILES": "OC=1C2=C(C=CC=N2=O)C=CC1",
    "meta_data": {
        "InChI": "InChI=1S/C9H7NO2/c11-8-5-1-3-7-4-2-6-10(12)9(7)8/h1-6,11H",
        "InChIKey": null,
        "Canonical SMILES": "O=N1=CC=CC=2C=CC=C(O)C21",
        "Molecular Formula": "C<sub>9</sub>H<sub>7</sub>NO<sub>2</sub>",
        "Molecular Mass": "161.16",
        "Melting Point": "138 °C"
    }
}