{
    "cas_no": "7143-01-3",
    "key_name": "Methanesulfonic anhydride",
    "cn_name": "甲基磺酸酐;",
    "alternate_name": "Methanesulfonic acid, 1,1′-anhydride;Methanesulfonic anhydride;Methanesulfonic acid, anhydride;Mesyl anhydride;Methanesulfonyl anhydride;NSC 65906;Mesylic anhydride;Methylsulfonyl methanesulfonate",
    "duplicated_cas_no": "",
    "SMILES": "O(S(C)(=O)=O)S(C)(=O)=O",
    "meta_data": {
        "InChI": "InChI=1S/C2H6O5S2/c1-8(3,4)7-9(2,5)6/h1-2H3",
        "InChIKey": null,
        "Canonical SMILES": "O=S(=O)(OS(=O)(=O)C)C",
        "Molecular Formula": "C<sub>2</sub>H<sub>6</sub>O<sub>5</sub>S<sub>2</sub>",
        "Molecular Mass": "174.20",
        "Boiling Point": "105-109 °C @ Press: 1 Torr",
        "Melting Point": "63-63.5 °C"
    }
}