{
    "cas_no": "20358-06-9",
    "key_name": "4-Fluoro-2-benzothiazolamine",
    "cn_name": null,
    "alternate_name": "2-Benzothiazolamine, 4-fluoro-;Benzothiazole, 2-amino-4-fluoro-;4-Fluoro-2-benzothiazolamine;2-Amino-4-fluorobenzothiazole;(4-Fluorobenzothiazol-2-yl)amine;4-Fluorobenzothiazol-2-amine",
    "duplicated_cas_no": "",
    "SMILES": "FC1=C2C(SC(N)=N2)=CC=C1",
    "meta_data": {
        "InChI": "InChI=1S/C7H5FN2S/c8-4-2-1-3-5-6(4)10-7(9)11-5/h1-3H,(H2,9,10)",
        "InChIKey": null,
        "Canonical SMILES": "FC1=CC=CC=2SC(=NC12)N",
        "Molecular Formula": "C<sub>7</sub>H<sub>5</sub>FN<sub>2</sub>S",
        "Molecular Mass": "168.19",
        "Boiling Point": "101 °C @ Press: 760 Torr"
    }
}