{
    "cas_no": "100-59-4",
    "key_name": "Phenylmagnesium chloride",
    "cn_name": "苯基氯化镁;苯基氯化镁;氯化苯基鎂;氯化苯鎂;",
    "alternate_name": "Magnesium, chlorophenyl-;Magnesium, phenyl-, chloride;Chlorophenylmagnesium;Phenylmagnesium chloride",
    "duplicated_cas_no": "",
    "SMILES": "[Mg](Cl)C1=CC=CC=C1",
    "meta_data": {
        "InChI": "InChI=1S/C6H5.ClH.Mg/c1-2-4-6-5-3-1;;/h1-5H;1H;/q;;+1/p-1",
        "InChIKey": null,
        "Canonical SMILES": "Cl[Mg]C=1C=CC=CC1",
        "Molecular Formula": "C<sub>6</sub>H<sub>5</sub>ClMg",
        "Molecular Mass": "",
        "Boiling Point": "230 °C @ Press: 8 Torr",
        "Melting Point": "89-90 °C"
    }
}