{
    "cas_no": "2213-23-2",
    "key_name": "(±)-2,4-Dimethylheptane",
    "cn_name": "2,4-二甲基庚烷;",
    "alternate_name": "Heptane, 2,4-dimethyl-;2,4-Dimethylheptane;(±)-2,4-Dimethylheptane",
    "duplicated_cas_no": "",
    "SMILES": "C(C(CCC)C)C(C)C",
    "meta_data": {
        "InChI": "InChI=1S/C9H20/c1-5-6-9(4)7-8(2)3/h8-9H,5-7H2,1-4H3",
        "InChIKey": null,
        "Canonical SMILES": "CCCC(C)CC(C)C",
        "Molecular Formula": "C<sub>9</sub>H<sub>20</sub>",
        "Molecular Mass": "128.26",
        "Boiling Point": "132.9 °C",
        "Density": "0.7206 g/cm³ @ Temp: 15 °C"
    }
}