{
    "cas_no": "13446-74-7",
    "key_name": "Rubidium fluoride",
    "cn_name": "氟化铷;",
    "alternate_name": "Rubidium fluoride (RbF);Rubidium fluoride;Rubidium monofluoride",
    "duplicated_cas_no": "59217-76-4;2018280-10-7",
    "SMILES": "F[Rb]",
    "meta_data": {
        "InChI": "InChI=1S/FH.Rb/h1H;/q;+1/p-1",
        "InChIKey": null,
        "Canonical SMILES": "F[Rb]",
        "Molecular Formula": "FRb",
        "Molecular Mass": "",
        "Melting Point": "780 °C",
        "Density": "3.557 g/cm³ @ Temp: 1068 °C"
    }
}