{
    "cas_no": "6962-44-3",
    "key_name": "<em>N</em>-(2-Methoxy-5-methylphenyl)acetamide",
    "cn_name": "乙酰克利西丁;N-(2-甲氧基-5-甲基苯基)-乙酰胺;",
    "alternate_name": "Acetamide, <em>N</em>-(2-methoxy-5-methylphenyl)-;<em>o</em>-Acetanisidide, 5′-methyl-;<em>N</em>-(2-Methoxy-5-methylphenyl)acetamide;2′-Methoxy-5′-methylacetanilide;3-Acetamido-4-methoxytoluene;NSC 109456;NSC 37057",
    "duplicated_cas_no": "",
    "SMILES": "N(C(C)=O)C1=C(OC)C=CC(C)=C1",
    "meta_data": {
        "InChI": "InChI=1S/C10H13NO2/c1-7-4-5-10(13-3)9(6-7)11-8(2)12/h4-6H,1-3H3,(H,11,12)",
        "InChIKey": null,
        "Canonical SMILES": "O=C(NC1=CC(=CC=C1OC)C)C",
        "Molecular Formula": "C<sub>10</sub>H<sub>13</sub>NO<sub>2</sub>",
        "Molecular Mass": "179.22",
        "Melting Point": "112 °C"
    }
}