{
    "cas_no": "94-59-7",
    "key_name": "Safrole",
    "cn_name": "黄樟素;黄樟油素;黄樟脑;4-烯丙基-1,2-亚甲基二氧基苯;",
    "alternate_name": "1,3-Benzodioxole, 5-(2-propen-1-yl)-;Benzene, 4-allyl-1,2-(methylenedioxy)-;1,3-Benzodioxole, 5-(2-propenyl)-;5-(2-Propen-1-yl)-1,3-benzodioxole;Allylcatechol methylene ether;Allyldioxybenzene methylene ether;1-Allyl-3,4-methylenedioxybenzene;<em>m</em>-Allylpyrocatechin methylene ether;Allylpyrocatechol methylene ether;3,4-Methylenedioxy-allylbenzene;Safrol;Safrole MF;Shikimole;Shikomol;Safrole;5-Allyl-1,3-benzodioxole;Rhyuno oil;4-Allyl-1,2-(methylenedioxy)benzene;3-(3,4-Methylenedioxyphenyl)prop-1-ene;NSC 11831;5-(2-Propenyl)-1,3-benzodioxole;Alda 89;5-Allylbenzo[<em>d</em>][1,3]dioxole;MeSH ID: D012451",
    "duplicated_cas_no": "1406-55-9;8022-92-2;1548770-71-3",
    "SMILES": "C(C=C)C=1C=C2C(=CC1)OCO2",
    "meta_data": {
        "InChI": "InChI=1S/C10H10O2/c1-2-3-8-4-5-9-10(6-8)12-7-11-9/h2,4-6H,1,3,7H2",
        "InChIKey": null,
        "Canonical SMILES": "O1C2=CC=C(C=C2OC1)CC=C",
        "Molecular Formula": "C<sub>10</sub>H<sub>10</sub>O<sub>2</sub>",
        "Molecular Mass": "162.19",
        "Boiling Point": "234.5 °C @ Press: 760 Torr",
        "Melting Point": "11.2 °C",
        "Density": "1.096 g/cm³ @ Temp: 20 °C"
    }
}