{
    "cas_no": "557-35-7",
    "key_name": "2-Bromooctane",
    "cn_name": "2-溴辛烷;",
    "alternate_name": "Octane, 2-bromo-;2-Bromooctane;<em>sec</em>-Octyl bromide;2-Octyl bromide;1-Methylheptyl bromide;(±)-2-Bromooctane;NSC 8060",
    "duplicated_cas_no": "60251-57-2",
    "SMILES": "C(CC(Br)C)CCCC",
    "meta_data": {
        "InChI": "InChI=1S/C8H17Br/c1-3-4-5-6-7-8(2)9/h8H,3-7H2,1-2H3",
        "InChIKey": null,
        "Canonical SMILES": "BrC(C)CCCCCC",
        "Molecular Formula": "C<sub>8</sub>H<sub>17</sub>Br",
        "Molecular Mass": "193.12",
        "Boiling Point": "65-70 °C @ Press: 16 Torr",
        "Density": "1.0982 g/cm³ @ Temp: 25 °C"
    }
}