{
    "cas_no": "1198-64-7",
    "key_name": "2,3,5,6-Tetrafluoro-1,4-benzenediamine",
    "cn_name": "2,3,5,6-四氟-1,4-苯二胺;1,4-二氨基-2,3,5,6-四苯氟;",
    "alternate_name": "1,4-Benzenediamine, 2,3,5,6-tetrafluoro-;<em>p</em>-Phenylenediamine, 2,3,5,6-tetrafluoro-;2,3,5,6-Tetrafluoro-1,4-benzenediamine;1,4-Diaminotetrafluorobenzene;Tetrafluoro-<em>p</em>-phenylenediamine;2,3,5,6-Tetrafluoro-<em>p</em>-phenylenediamine;1,4-Diamino-2,3,5,6-tetrafluorobenzene;2,3,5,6-Tetrafluorophenylene-1,4-diamine;2,3,5,6-Tetrafluoro-1,4-diaminobenzene;Perfluorobenzene-1,4-diamine",
    "duplicated_cas_no": "69680-23-5",
    "SMILES": "FC1=C(F)C(N)=C(F)C(F)=C1N",
    "meta_data": {
        "InChI": "InChI=1S/C6H4F4N2/c7-1-2(8)6(12)4(10)3(9)5(1)11/h11-12H2",
        "InChIKey": null,
        "Canonical SMILES": "FC=1C(F)=C(N)C(F)=C(F)C1N",
        "Molecular Formula": "C<sub>6</sub>H<sub>4</sub>F<sub>4</sub>N<sub>2</sub>",
        "Molecular Mass": "180.10",
        "Melting Point": "143.5-145.0 °C"
    }
}