{
    "cas_no": "13457-18-6",
    "key_name": "Pyrazophos",
    "cn_name": "吡嘧磷;吡啶磷粉剂；定菌磷;",
    "alternate_name": "Pyrazolo[1,5-<em>a</em>]pyrimidine-6-carboxylic acid, 2-[(diethoxyphosphinothioyl)oxy]-5-methyl-, ethyl ester;Pyrazolo[1,5-<em>a</em>]pyrimidine-6-carboxylic acid, 2-hydroxy-5-methyl-, ethyl ester, <em>O</em>-ester with <em>O</em>,<em>O</em>-diethyl phosphorothioate;Afugan;Diethyl 6-carbethoxy-5-methylpyrazolo[1,5-<em>a</em>]pyrimidin-2-yl phosphorothioate;HOE 2873;Hoechst 2873;2-(<em>O</em>,<em>O</em>-Diethylthionophosphoryl)-5-methyl-6-carbethoxypyrazolopyrimidine;Pyrazophos;Curamil;Missile;Afugan WP 30;NSC 232671",
    "duplicated_cas_no": "52329-56-3;1135443-41-2",
    "SMILES": "C(OCC)(=O)C1=CN2C(=CC(OP(OCC)(OCC)=S)=N2)N=C1C",
    "meta_data": {
        "InChI": "InChI=1S/C14H20N3O5PS/c1-5-19-14(18)11-9-17-12(15-10(11)4)8-13(16-17)22-23(24,20-6-2)21-7-3/h8-9H,5-7H2,1-4H3",
        "InChIKey": null,
        "Canonical SMILES": "O=C(OCC)C1=CN2N=C(OP(=S)(OCC)OCC)C=C2N=C1C",
        "Molecular Formula": "C<sub>14</sub>H<sub>20</sub>N<sub>3</sub>O<sub>5</sub>PS",
        "Molecular Mass": "373.36",
        "Melting Point": "51 °C"
    }
}