{
    "cas_no": "172975-69-8",
    "key_name": "(3,5-Dimethylphenyl)boronic acid",
    "cn_name": "3,5-二甲基苯硼酸;",
    "alternate_name": "Boronic acid, <em>B</em>-(3,5-dimethylphenyl)-;Boronic acid, (3,5-dimethylphenyl)-;<em>B</em>-(3,5-Dimethylphenyl)boronic acid;(3,5-Dimethylphenyl)boronic acid;(3,5-Dimethylphenyl)dihydroxyborane;3,5-Dimethylbenzeneboronic acid",
    "duplicated_cas_no": "",
    "SMILES": "B(O)(O)C1=CC(C)=CC(C)=C1",
    "meta_data": {
        "InChI": "InChI=1S/C8H11BO2/c1-6-3-7(2)5-8(4-6)9(10)11/h3-5,10-11H,1-2H3",
        "InChIKey": null,
        "Canonical SMILES": "OB(O)C=1C=C(C=C(C1)C)C",
        "Molecular Formula": "C<sub>8</sub>H<sub>11</sub>BO<sub>2</sub>",
        "Molecular Mass": "149.98",
        "Melting Point": "130-132 °C"
    }
}