{
    "cas_no": "37686-84-3",
    "key_name": "Terguride",
    "cn_name": "R-(+)-特麦角脲;",
    "alternate_name": "Urea, <em>N</em>,<em>N</em>-diethyl-<em>N</em>′-[(8α)-6-methylergolin-8-yl]-;Ergoline, urea deriv.;Indolo[4,3-<em>fg</em>]quinoline, urea deriv.;<em>N</em>,<em>N</em>-Diethyl-<em>N</em>′-[(8α)-6-methylergolin-8-yl]urea;<em>N</em>,<em>N</em>-Diethyl-<em>N</em>′-(<span class=\"text-smallcaps\">D</span>-6-methyl-10α-isoergolin-8-yl)urea;6-Methyl-8α-(diethylcarbamoylamino)ergoline;<em>trans</em>-Dihydrolisuride;9,10α-Dihydrolisuride;Terguride;Tergurid;(+)-(5<em>R</em>,8<em>S</em>,10<em>R</em>)-Terguride;(5<em>R</em>,8<em>S</em>,10<em>R</em>)-Terguride;(+)-Terguride;TDHL",
    "duplicated_cas_no": "85649-11-2",
    "SMILES": "CN1[C@]2([C@@](C=3C=4C(C2)=CNC4C=CC3)(C[C@H](NC(N(CC)CC)=O)C1)[H])[H]",
    "meta_data": {
        "InChI": "InChI=1S/C20H28N4O/c1-4-24(5-2)20(25)22-14-10-16-15-7-6-8-17-19(15)13(11-21-17)9-18(16)23(3)12-14/h6-8,11,14,16,18,21H,4-5,9-10,12H2,1-3H3,(H,22,25)/t14-,16+,18+/m0/s1",
        "InChIKey": null,
        "Canonical SMILES": "O=C(NC1CN(C)C2CC3=CNC4=CC=CC(=C43)C2C1)N(CC)CC",
        "Molecular Formula": "C<sub>20</sub>H<sub>28</sub>N<sub>4</sub>O",
        "Molecular Mass": "340.46",
        "Melting Point": "203-204 °C (decomp)"
    }
}