{
    "cas_no": "926-57-8",
    "key_name": "1,3-Dichloro-2-butene",
    "cn_name": "1,3-二氯-2-丁烯;1,3-二氯-2-丁烯;",
    "alternate_name": "2-Butene, 1,3-dichloro-;1,3-Dichloro-2-butene;NSC 8749",
    "duplicated_cas_no": "",
    "SMILES": "C(=C(C)Cl)CCl",
    "meta_data": {
        "InChI": "InChI=1S/C4H6Cl2/c1-4(6)2-3-5/h2H,3H2,1H3",
        "InChIKey": null,
        "Canonical SMILES": "ClC(=CCCl)C",
        "Molecular Formula": "C<sub>4</sub>H<sub>6</sub>Cl<sub>2</sub>",
        "Molecular Mass": "125.00",
        "Boiling Point": "131 °C",
        "Density": "1.161 g/cm³"
    }
}