{
    "cas_no": "54057-95-3",
    "key_name": "2-Propenoic acid, 3-(4-aminophenyl)-, hydrochloride (1:1)",
    "cn_name": "4-氨基肉桂酸盐酸盐;",
    "alternate_name": "2-Propenoic acid, 3-(4-aminophenyl)-, hydrochloride (1:1);2-Propenoic acid, 3-(4-aminophenyl)-, hydrochloride;<em>p</em>-Aminocinnamic acid hydrochloride;4-Aminocinnamic acid hydrochloride;3-(4-Aminophenyl)acrylic acid hydrochloride",
    "duplicated_cas_no": "",
    "SMILES": "C(=CC(O)=O)C1=CC=C(N)C=C1.Cl",
    "meta_data": {
        "InChI": "InChI=1S/C9H9NO2.ClH/c10-8-4-1-7(2-5-8)3-6-9(11)12;/h1-6H,10H2,(H,11,12);1H",
        "InChIKey": null,
        "Canonical SMILES": "Cl.O=C(O)C=CC1=CC=C(N)C=C1",
        "Molecular Formula": "C<sub>9</sub>H<sub>9</sub>NO<sub>2</sub>.ClH",
        "Molecular Mass": "",
        "Melting Point": "265-268 °C"
    }
}