{
    "cas_no": "19059-68-8",
    "key_name": "3-(Dimethylamino)-2,2-dimethyl-1-propanol",
    "cn_name": "3-二甲氨基-2,2-二甲基-1-丙醇;",
    "alternate_name": "1-Propanol, 3-(dimethylamino)-2,2-dimethyl-;3-(Dimethylamino)-2,2-dimethyl-1-propanol;NSC 403920",
    "duplicated_cas_no": "1416163-41-1",
    "SMILES": "C(C(CO)(C)C)N(C)C",
    "meta_data": {
        "InChI": "InChI=1S/C7H17NO/c1-7(2,6-9)5-8(3)4/h9H,5-6H2,1-4H3",
        "InChIKey": null,
        "Canonical SMILES": "OCC(C)(C)CN(C)C",
        "Molecular Formula": "C<sub>7</sub>H<sub>17</sub>NO",
        "Molecular Mass": "131.22",
        "Boiling Point": "150-151 °C @ Press: 17 Torr"
    }
}