{
    "cas_no": "1795-16-0",
    "key_name": "Decylcyclohexane",
    "cn_name": null,
    "alternate_name": "Cyclohexane, decyl-;Decane, 1-cyclohexyl-;Decylcyclohexane;1-Decylcyclohexane;<em>n</em>-Decylcyclohexane;1-Cyclohexyldecane;NSC 74192",
    "duplicated_cas_no": "",
    "SMILES": "C(CCCCCCCCC)C1CCCCC1",
    "meta_data": {
        "InChI": "InChI=1S/C16H32/c1-2-3-4-5-6-7-8-10-13-16-14-11-9-12-15-16/h16H,2-15H2,1H3",
        "InChIKey": null,
        "Canonical SMILES": "CCCCCCCCCCC1CCCCC1",
        "Molecular Formula": "C<sub>16</sub>H<sub>32</sub>",
        "Molecular Mass": "224.43",
        "Boiling Point": "299 °C",
        "Melting Point": "-1.7 °C",
        "Density": "0.8167 g/cm³ @ Temp: 20 °C"
    }
}