{
    "cas_no": "52244-70-9",
    "key_name": "4-Methoxybenzenebutanol",
    "cn_name": "4-(4\"-甲氧基苯基)-1-丁醇;",
    "alternate_name": "Benzenebutanol, 4-methoxy-;1-Butanol, 4-(<em>p</em>-methoxyphenyl)-;4-Methoxybenzenebutanol;4-(<em>p</em>-Methoxyphenyl)-1-butanol;4-(4-Methoxyphenyl)butanol;4-(4-Methoxyphenyl)-1-butanol;4-(4-Hydroxybutyl)anisole;NSC 141198",
    "duplicated_cas_no": "",
    "SMILES": "C(CCCO)C1=CC=C(OC)C=C1",
    "meta_data": {
        "InChI": "InChI=1S/C11H16O2/c1-13-11-7-5-10(6-8-11)4-2-3-9-12/h5-8,12H,2-4,9H2,1H3",
        "InChIKey": null,
        "Canonical SMILES": "OCCCCC1=CC=C(OC)C=C1",
        "Molecular Formula": "C<sub>11</sub>H<sub>16</sub>O<sub>2</sub>",
        "Molecular Mass": "180.24",
        "Boiling Point": "118-119 °C @ Press: 1.5 Torr",
        "Melting Point": "3.5 °C"
    }
}