{
    "cas_no": "1313725-88-0",
    "key_name": "1-[(1<em>S</em>)-1-Imidazo[1,2-<em>a</em>]pyridin-6-ylethyl]-6-(1-methyl-1<em>H</em>-pyrazol-4-yl)-1<em>H</em>-1,2,3-triazolo[4,5-<em>b</em>]pyrazine",
    "cn_name": null,
    "alternate_name": "1<em>H</em>-1,2,3-Triazolo[4,5-<em>b</em>]pyrazine, 1-[(1<em>S</em>)-1-imidazo[1,2-<em>a</em>]pyridin-6-ylethyl]-6-(1-methyl-1<em>H</em>-pyrazol-4-yl)-;1-[(1<em>S</em>)-1-Imidazo[1,2-<em>a</em>]pyridin-6-ylethyl]-6-(1-methyl-1<em>H</em>-pyrazol-4-yl)-1<em>H</em>-1,2,3-triazolo[4,5-<em>b</em>]pyrazine;Savolitinib;AZD 6094;HMPL 504;HM 5016504;Volitinib;1<em>H</em>-1,2,3-Triazolo[4,5-<em>b</em>]pyrazine 1-[(1S)-1-imidazo[1,2-<em>a</em>]pyridin-6-ylethyl]-6-(1-methyl-1<em>H</em>-pyrazol-4-yl)-;3-[(1S)-1-Imidazo[1,2-<em>a</em>]pyridin-6-ylethyl]-5-(1-methylpyrazol-4-yl)triazolo[4,5-<em>b</em>]pyrazine;AZD6094;AZD-6094;Orpathys",
    "duplicated_cas_no": "1635456-22-2",
    "SMILES": "[C@@H](C)(N1C=2C(N=N1)=NC=C(N2)C3=CN(C)N=C3)C4=CN5C(C=C4)=NC=C5",
    "meta_data": {
        "InChI": "InChI=1S/C17H15N9/c1-11(12-3-4-15-18-5-6-25(15)10-12)26-17-16(22-23-26)19-8-14(21-17)13-7-20-24(2)9-13/h3-11H,1-2H3/t11-/m0/s1",
        "InChIKey": null,
        "Canonical SMILES": "N1=NN(C=2N=C(C=NC12)C=3C=NN(C3)C)C(C=4C=CC5=NC=CN5C4)C",
        "Molecular Formula": "C<sub>17</sub>H<sub>15</sub>N<sub>9</sub>",
        "Molecular Mass": "345.36",
        "Melting Point": "205.9-208.8 °C"
    }
}