{
    "cas_no": "1064-10-4",
    "key_name": "1,1,1,2,2,2-Hexaphenyldistannane",
    "cn_name": "六苯基二锡;",
    "alternate_name": "Distannane, 1,1,1,2,2,2-hexaphenyl-;Distannane, hexaphenyl-;Tin, hexaphenyldi-;1,1,1,2,2,2-Hexaphenyldistannane;Hexaphenylditin;Hexaphenyldistannane;NSC 22333",
    "duplicated_cas_no": "",
    "SMILES": "[Sn]([Sn](C1=CC=CC=C1)(C2=CC=CC=C2)C3=CC=CC=C3)(C4=CC=CC=C4)(C5=CC=CC=C5)C6=CC=CC=C6",
    "meta_data": {
        "InChI": "InChI=1S/6C6H5.2Sn/c6*1-2-4-6-5-3-1;;/h6*1-5H;;",
        "InChIKey": null,
        "Canonical SMILES": "C=1C=CC(=CC1)[Sn](C=2C=CC=CC2)(C=3C=CC=CC3)[Sn](C=4C=CC=CC4)(C=5C=CC=CC5)C=6C=CC=CC6",
        "Molecular Formula": "C<sub>36</sub>H<sub>30</sub>Sn<sub>2</sub>",
        "Molecular Mass": "700.04",
        "Melting Point": "232.5 °C"
    }
}