{
    "cas_no": "86-30-6",
    "key_name": "<em>N</em>-Nitrosodiphenylamine",
    "cn_name": "N-亚硝基二苯胺;",
    "alternate_name": "Benzenamine, <em>N</em>-nitroso-<em>N</em>-phenyl-;Diphenylamine, <em>N</em>-nitroso-;<em>N</em>-Nitroso-<em>N</em>-phenylbenzenamine;Nitrosodiphenylamine;<em>N</em>-Nitrosodiphenylamine;Diphenylnitrosamine;Retarder J;Redax;<em>N</em>-Nitroso-<em>N</em>-phenylaniline;Vulkalent A;Vultrol;Vulcatard A;<em>N</em>,<em>N</em>-Diphenylnitrosamine;<em>N</em>-Nitroso-<em>N</em>-diphenylamine;<em>N</em>,<em>N</em>-Diphenyl-<em>N</em>-nitrosoamine;Sconoc;Ortard;<em>N</em>-Phenyl-<em>N</em>-nitrosoaniline;NSC 585;Diphenam N;Antioxidant NDPA",
    "duplicated_cas_no": "",
    "SMILES": "N(N=O)(C1=CC=CC=C1)C2=CC=CC=C2",
    "meta_data": {
        "InChI": "InChI=1S/C12H10N2O/c15-13-14(11-7-3-1-4-8-11)12-9-5-2-6-10-12/h1-10H",
        "InChIKey": null,
        "Canonical SMILES": "O=NN(C=1C=CC=CC1)C=2C=CC=CC2",
        "Molecular Formula": "C<sub>12</sub>H<sub>10</sub>N<sub>2</sub>O",
        "Molecular Mass": "198.22",
        "Boiling Point": "101 °C",
        "Melting Point": "66.5 °C",
        "Density": "1.23 g/cm³"
    }
}