{
    "cas_no": "6368-20-3",
    "key_name": "<em>N</em>-[(1,1-Dimethylethoxy)carbonyl]-<span class=\"text-smallcaps\">D</span>-serine",
    "cn_name": "Boc-D-丝氨酸;N-叔丁氧羰基-D-丝氨酸;",
    "alternate_name": "<span class=\"text-smallcaps\">D</span>-Serine, <em>N</em>-[(1,1-dimethylethoxy)carbonyl]-;Serine, <em>N</em>-carboxy-, <em>N</em>-<em>tert</em>-butyl ester, <span class=\"text-smallcaps\">D</span>-;<em>N</em>-[(1,1-Dimethylethoxy)carbonyl]-<span class=\"text-smallcaps\">D</span>-serine;<em>N</em>-<em>tert</em>-Butoxycarbonyl-<span class=\"text-smallcaps\">D</span>-serine;<em>tert</em>-(Butoxycarbonyl)-<span class=\"text-smallcaps\">D</span>-serine;BOC-<span class=\"text-smallcaps\">D</span>-Serine;(R)-2-(<em>tert</em>-Butoxycarbonylamino)-3-hydroxypropanoic acid;<em>N</em>-Boc-<span class=\"text-smallcaps\">D</span>-serine;(<em>R</em>)-2-(<em>tert</em>-Butoxycarbonylamino)-3-hydroxypropanoic acid;(<em>R</em>)-<em>tert</em>-Butoxycarbonyl-<span class=\"text-smallcaps\">D</span>-serine;(2R)-3-Hydroxy-2-[(2-methylpropan-2-yl)oxycarbonylamino]propanoic acid;(2R)-2-[[(<em>tert</em>-Butoxy)carbonyl]amino]-3-hydroxypropanoic acid",
    "duplicated_cas_no": "",
    "SMILES": "[C@H](NC(OC(C)(C)C)=O)(C(O)=O)CO",
    "meta_data": {
        "InChI": "InChI=1S/C8H15NO5/c1-8(2,3)14-7(13)9-5(4-10)6(11)12/h5,10H,4H2,1-3H3,(H,9,13)(H,11,12)/t5-/m1/s1",
        "InChIKey": null,
        "Canonical SMILES": "O=C(OC(C)(C)C)NC(C(=O)O)CO",
        "Molecular Formula": "C<sub>8</sub>H<sub>15</sub>NO<sub>5</sub>",
        "Molecular Mass": "205.21",
        "Melting Point": "50-52 °C"
    }
}