{
    "cas_no": "1506-53-2",
    "key_name": "<em>N</em>-Dodecyl-2-propenamide",
    "cn_name": "N-十二烷基丙烯酰胺;",
    "alternate_name": "2-Propenamide, <em>N</em>-dodecyl-;Acrylamide, <em>N</em>-dodecyl-;<em>N</em>-Dodecyl-2-propenamide;<em>N</em>-Dodecylacrylamide;<em>N</em>-Laurylacrylamide;<em>N</em>-(<em>n</em>-Dodecyl)acrylamide;Lauryl acrylamide",
    "duplicated_cas_no": "222159-53-7;1262675-18-2",
    "SMILES": "C(CNC(C=C)=O)CCCCCCCCCC",
    "meta_data": {
        "InChI": "InChI=1S/C15H29NO/c1-3-5-6-7-8-9-10-11-12-13-14-16-15(17)4-2/h4H,2-3,5-14H2,1H3,(H,16,17)",
        "InChIKey": null,
        "Canonical SMILES": "O=C(C=C)NCCCCCCCCCCCC",
        "Molecular Formula": "C<sub>15</sub>H<sub>29</sub>NO",
        "Molecular Mass": "239.40",
        "Boiling Point": "150-155 °C @ Press: 1 Torr",
        "Melting Point": "55.5 °C"
    }
}