{
    "cas_no": "2873-90-7",
    "key_name": "4-(Diethylamino)benzonitrile",
    "cn_name": "4-二乙基氨基苯甲腈;",
    "alternate_name": "Benzonitrile, 4-(diethylamino)-;Benzonitrile, <em>p</em>-(diethylamino)-;4-(Diethylamino)benzonitrile;4-(Diethylamino)benzenecarbonitrile;<em>N</em>,<em>N</em>-Diethyl-<em>p</em>-cyanoaniline;<em>p</em>-Cyano-<em>N</em>,<em>N</em>-diethylaniline;<em>p</em>-(Diethylamino)benzonitrile;4-(<em>N</em>,<em>N</em>-Diethylamino)benzonitrile;4-(Diethylamino)benzenenitrile;NSC 32450",
    "duplicated_cas_no": "",
    "SMILES": "N(CC)(CC)C1=CC=C(C#N)C=C1",
    "meta_data": {
        "InChI": "InChI=1S/C11H14N2/c1-3-13(4-2)11-7-5-10(9-12)6-8-11/h5-8H,3-4H2,1-2H3",
        "InChIKey": null,
        "Canonical SMILES": "N#CC1=CC=C(C=C1)N(CC)CC",
        "Molecular Formula": "C<sub>11</sub>H<sub>14</sub>N<sub>2</sub>",
        "Molecular Mass": "174.24",
        "Melting Point": "66-67 °C"
    }
}