{
    "cas_no": "2396-83-0",
    "key_name": "Ethyl 3-hexenoate",
    "cn_name": "3-己烯酸乙酯;",
    "alternate_name": "3-Hexenoic acid, ethyl ester;Hydrosorbic acid, ethyl ester;Ethyl 3-hexenoate",
    "duplicated_cas_no": "",
    "SMILES": "C(C(OCC)=O)C=CCC",
    "meta_data": {
        "InChI": "InChI=1S/C8H14O2/c1-3-5-6-7-8(9)10-4-2/h5-6H,3-4,7H2,1-2H3",
        "InChIKey": null,
        "Canonical SMILES": "O=C(OCC)CC=CCC",
        "Molecular Formula": "C<sub>8</sub>H<sub>14</sub>O<sub>2</sub>",
        "Molecular Mass": "142.20",
        "Boiling Point": "166.5 °C"
    }
}