{
    "cas_no": "2586-89-2",
    "key_name": "3-Heptyne",
    "cn_name": "3-庚炔;",
    "alternate_name": "3-Heptyne;1-Ethyl-2-propylacetylene",
    "duplicated_cas_no": "",
    "SMILES": "C(CCC)#CCC",
    "meta_data": {
        "InChI": "InChI=1S/C7H12/c1-3-5-7-6-4-2/h3-5H2,1-2H3",
        "InChIKey": null,
        "Canonical SMILES": "C(#CCCC)CC",
        "Molecular Formula": "C<sub>7</sub>H<sub>12</sub>",
        "Molecular Mass": "96.17",
        "Boiling Point": "107.2 °C",
        "Melting Point": "-130.5 °C",
        "Density": "0.7527 g/cm³ @ Temp: 20 °C"
    }
}