{
    "cas_no": "13171-18-1",
    "key_name": "Hexafluoroisopropyl methyl ether",
    "cn_name": "1,1,1,3,3,3-六氟异丙基甲基醚;六氟异丙基甲醚;",
    "alternate_name": "Propane, 1,1,1,3,3,3-hexafluoro-2-methoxy-;Ether, methyl 2,2,2-trifluoro-1-(trifluoromethyl)ethyl;1,1,1,3,3,3-Hexafluoro-2-methoxypropane;Hexafluoroisopropyl methyl ether;Bis(trifluoromethyl)methyl methyl ether;1,1,1,3,3,3-Hexafluoroisopropyl methyl ether;Isoindoklon;356mmzEβγ;Iso-flurothyl;1-Methoxy-1-trifluoromethyl-2,2,2-trifluoroethane;HFE 356mmz;1-(Trifluoromethyl)-2,2,2-trifluoroethyl methyl ether;Methyl 1-(trifluoromethyl)-2,2,2-trifluoroethyl ether",
    "duplicated_cas_no": "",
    "SMILES": "C(C(F)(F)F)(C(F)(F)F)OC",
    "meta_data": {
        "InChI": "InChI=1S/C4H4F6O/c1-11-2(3(5,6)7)4(8,9)10/h2H,1H3",
        "InChIKey": null,
        "Canonical SMILES": "FC(F)(F)C(OC)C(F)(F)F",
        "Molecular Formula": "C<sub>4</sub>H<sub>4</sub>F<sub>6</sub>O",
        "Molecular Mass": "182.06",
        "Boiling Point": "50.0-50.5 °C"
    }
}