{
    "cas_no": "1552-42-7",
    "key_name": "Crystal Violet lactone",
    "cn_name": "结晶紫内酯;",
    "alternate_name": "1(3<em>H</em>)-Isobenzofuranone, 6-(dimethylamino)-3,3-bis[4-(dimethylamino)phenyl]-;Phthalide, 6-(dimethylamino)-3,3-bis[<em>p</em>-(dimethylamino)phenyl]-;6-(Dimethylamino)-3,3-bis[4-(dimethylamino)phenyl]-1(3<em>H</em>)-isobenzofuranone;Crystal Violet lactone;3,3-Bis[<em>p</em>-(dimethylamino)phenyl]-6-(dimethylamino)phthalide;3,3-Bis[4-(dimethylamino)phenyl]-6-(dimethylamino)phthalide;3,3-Bis[4-(dimethylamino)phenyl]-6-(dimethylamino)-1,3-dihydroisobenzofuran-1-one;Copikem I;Pergascript Blue I 2R;CVL;Color Former CVL;NSC 32991;NSC 3562;Copikem 1 Blue;6-Dimethylamino-3,3-bis(4-dimethylaminophenyl)-3<em>H</em>-isobenzofuran-1-one;CVL-K;Chameleon Blue 3;LCV-L;6-Dimethylamino-3,3-bis(4-dimethylaminophenyl)phthalide",
    "duplicated_cas_no": "129652-58-0",
    "SMILES": "O=C1OC(C=2C1=CC(N(C)C)=CC2)(C3=CC=C(N(C)C)C=C3)C4=CC=C(N(C)C)C=C4",
    "meta_data": {
        "InChI": "InChI=1S/C26H29N3O2/c1-27(2)20-11-7-18(8-12-20)26(19-9-13-21(14-10-19)28(3)4)24-16-15-22(29(5)6)17-23(24)25(30)31-26/h7-17H,1-6H3",
        "InChIKey": null,
        "Canonical SMILES": "O=C1OC(C2=CC=C(C=C2)N(C)C)(C3=CC=C(C=C3)N(C)C)C4=CC=C(C=C14)N(C)C",
        "Molecular Formula": "C<sub>26</sub>H<sub>29</sub>N<sub>3</sub>O<sub>2</sub>",
        "Molecular Mass": "415.53",
        "Melting Point": "176-179 °C"
    }
}