{
    "cas_no": "79-20-9",
    "key_name": "Methyl acetate",
    "cn_name": "乙酸甲酯;醋酸甲酯;",
    "alternate_name": "Acetic acid, methyl ester;Methyl acetate;Devoton;Tereton;Methyl ethanoate;NSC 405071",
    "duplicated_cas_no": "1800084-97-2",
    "SMILES": "C(OC)(C)=O",
    "meta_data": {
        "InChI": "InChI=1S/C3H6O2/c1-3(4)5-2/h1-2H3",
        "InChIKey": null,
        "Canonical SMILES": "O=C(OC)C",
        "Molecular Formula": "C<sub>3</sub>H<sub>6</sub>O<sub>2</sub>",
        "Molecular Mass": "74.08",
        "Boiling Point": "56.8 °C",
        "Melting Point": "-98 °C",
        "Density": "0.9342 g/cm³ @ Temp: 20 °C"
    }
}