{
    "cas_no": "878194-93-5",
    "key_name": "3-(4,4,5,5-Tetramethyl-1,3,2-dioxaborolan-2-yl)-2-pyridinecarbonitrile",
    "cn_name": "2-氰吡啶-3-硼酸频哪酯;2-氰基-4-(4,4,5,5-四甲基-[1,3,2]二氧硼戊环-2-基)吡啶;",
    "alternate_name": "2-Pyridinecarbonitrile, 3-(4,4,5,5-tetramethyl-1,3,2-dioxaborolan-2-yl)-;3-(4,4,5,5-Tetramethyl-1,3,2-dioxaborolan-2-yl)-2-pyridinecarbonitrile",
    "duplicated_cas_no": "",
    "SMILES": "C(#N)C1=C(C=CC=N1)B2OC(C)(C)C(C)(C)O2",
    "meta_data": {
        "InChI": "InChI=1S/C12H15BN2O2/c1-11(2)12(3,4)17-13(16-11)9-6-5-7-15-10(9)8-14/h5-7H,1-4H3",
        "InChIKey": null,
        "Canonical SMILES": "N#CC1=NC=CC=C1B2OC(C)(C)C(O2)(C)C",
        "Molecular Formula": "C<sub>12</sub>H<sub>15</sub>BN<sub>2</sub>O<sub>2</sub>",
        "Molecular Mass": "230.07",
        "Melting Point": "66 °C"
    }
}