{
    "cas_no": "87848-99-5",
    "key_name": "Acrivastine",
    "cn_name": "阿伐斯汀;(E)-3-[6-[(E)-1-(4-甲基苯基)-3-吡咯烷-1-基丙-1-烯基]吡啶-2-基]-2-丙烯酸;",
    "alternate_name": "2-Propenoic acid, 3-[6-[(1<em>E</em>)-1-(4-methylphenyl)-3-(1-pyrrolidinyl)-1-propen-1-yl]-2-pyridinyl]-, (2<em>E</em>)-;2-Propenoic acid, 3-[6-[1-(4-methylphenyl)-3-(1-pyrrolidinyl)-1-propenyl]-2-pyridinyl]-, (<em>E</em>,<em>E</em>)-;2-Propenoic acid, 3-[6-[(1<em>E</em>)-1-(4-methylphenyl)-3-(1-pyrrolidinyl)-1-propenyl]-2-pyridinyl]-, (2<em>E</em>)-;(2<em>E</em>)-3-[6-[(1<em>E</em>)-1-(4-Methylphenyl)-3-(1-pyrrolidinyl)-1-propen-1-yl]-2-pyridinyl]-2-propenoic acid;BW 825C;Acrivastine;BW A825C;BW 0270C;Semprex",
    "duplicated_cas_no": "",
    "SMILES": "C(=C/CN1CCCC1)(\\C=2N=C(/C=C/C(O)=O)C=CC2)/C3=CC=C(C)C=C3",
    "meta_data": {
        "InChI": "InChI=1S/C22H24N2O2/c1-17-7-9-18(10-8-17)20(13-16-24-14-2-3-15-24)21-6-4-5-19(23-21)11-12-22(25)26/h4-13H,2-3,14-16H2,1H3,(H,25,26)/b12-11+,20-13+",
        "InChIKey": null,
        "Canonical SMILES": "O=C(O)C=CC=1N=C(C=CC1)C(=CCN2CCCC2)C3=CC=C(C=C3)C",
        "Molecular Formula": "C<sub>22</sub>H<sub>24</sub>N<sub>2</sub>O<sub>2</sub>",
        "Molecular Mass": "348.44",
        "Melting Point": "222 °C (decomp)"
    }
}