{
    "cas_no": "5036-02-2",
    "key_name": "(±)-Tetramisole",
    "cn_name": "四米唑;四米唑;",
    "alternate_name": "Imidazo[2,1-<em>b</em>]thiazole, 2,3,5,6-tetrahydro-6-phenyl-;Imidazo[2,1-<em>b</em>]thiazole, 2,3,5,6-tetrahydro-6-phenyl-, (±)-;2,3,5,6-Tetrahydro-6-phenylimidazo[2,1-<em>b</em>]thiazole;(±)-2,3,5,6-Tetrahydro-6-phenylimidazo[2,1-<em>b</em>]thiazole;<em>dl</em>-Tetramisole;(±)-Tetramisole;<em>dl</em>-Tetramisol;Nilverm base;Tetramisole;Tetramisol;<em>dl</em>-2,3,5,6-Tetrahydro-6-phenylimidazo(2,1-<em>b</em>)thiazole;6-Phenyl-2,3,5,6-tetrahydroimidazo[2,1-<em>b</em>]thiazole;Duxamintic;Ashitetra",
    "duplicated_cas_no": "6649-23-6;803614-33-7",
    "SMILES": "C1(CN2C(=N1)SCC2)C3=CC=CC=C3",
    "meta_data": {
        "InChI": "InChI=1S/C11H12N2S/c1-2-4-9(5-3-1)10-8-13-6-7-14-11(13)12-10/h1-5,10H,6-8H2",
        "InChIKey": null,
        "Canonical SMILES": "N1=C2SCCN2CC1C=3C=CC=CC3",
        "Molecular Formula": "C<sub>11</sub>H<sub>12</sub>N<sub>2</sub>S",
        "Molecular Mass": "204.29",
        "Melting Point": "90-92 °C"
    }
}