{
    "cas_no": "17316-67-5",
    "key_name": "<em>P</em>-[1-(Butylamino)-1-methylethyl]phosphinic acid",
    "cn_name": "布他磷;1-(丁基氨基)-1-甲基乙基]-膦酸;",
    "alternate_name": "Phosphinic acid, <em>P</em>-[1-(butylamino)-1-methylethyl]-;Phosphinic acid, [1-(butylamino)-1-methylethyl]-;<em>P</em>-[1-(Butylamino)-1-methylethyl]phosphinic acid;1-(Butylamino)-1-methylethylphosphonous acid;Butaphosphan;Butafosfan;(1-Butylamino-1-methyl-ethyl)-phosphinic acid;[2-(Butylamino)propan-2-yl]phosphinic acid",
    "duplicated_cas_no": "59331-93-0",
    "SMILES": "C(NCCCC)(P(=O)O)(C)C",
    "meta_data": {
        "InChI": "InChI=1S/C7H18NO2P/c1-4-5-6-8-7(2,3)11(9)10/h8,11H,4-6H2,1-3H3,(H,9,10)",
        "InChIKey": null,
        "Canonical SMILES": "O=P(O)C(NCCCC)(C)C",
        "Molecular Formula": "C<sub>7</sub>H<sub>18</sub>NO<sub>2</sub>P",
        "Molecular Mass": "179.20",
        "Melting Point": "219 °C"
    }
}