{
    "cas_no": "1912-45-4",
    "key_name": "5-Chloroindole-3-acetic acid",
    "cn_name": "5-氯吲哚-3-醋酸;",
    "alternate_name": "1<em>H</em>-Indole-3-acetic acid, 5-chloro-;Indole-3-acetic acid, 5-chloro-;5-Chloro-1<em>H</em>-indole-3-acetic acid;5-Chloroindole-3-acetic acid;5-Chloro-IAA;2-(5-Chloro-1<em>H</em>-indol-3-yl)acetic acid;SR 024;5-Chloroindoleacetic acid;(5-Chloro-1<em>H</em>-indol-3-yl)acetic acid",
    "duplicated_cas_no": "",
    "SMILES": "C(C(O)=O)C=1C=2C(NC1)=CC=C(Cl)C2",
    "meta_data": {
        "InChI": "InChI=1S/C10H8ClNO2/c11-7-1-2-9-8(4-7)6(5-12-9)3-10(13)14/h1-2,4-5,12H,3H2,(H,13,14)",
        "InChIKey": null,
        "Canonical SMILES": "O=C(O)CC1=CNC=2C=CC(Cl)=CC21",
        "Molecular Formula": "C<sub>10</sub>H<sub>8</sub>ClNO<sub>2</sub>",
        "Molecular Mass": "209.63",
        "Melting Point": "158-159 °C"
    }
}