{
    "cas_no": "71255-78-2",
    "key_name": "2-(1,3-Benzodioxol-5-yl)-4,6-bis(trichloromethyl)-1,3,5-triazine",
    "cn_name": "2-(3,4-亚甲二氧苯基)-4,6-双(三氯甲基)-1,3,5-三嗪;2-(1,3-苯并二氧戊环-5-基)-4,6-双(三氯甲基)-1,3,5-三;",
    "alternate_name": "1,3,5-Triazine, 2-(1,3-benzodioxol-5-yl)-4,6-bis(trichloromethyl)-;2-(1,3-Benzodioxol-5-yl)-4,6-bis(trichloromethyl)-1,3,5-triazine;2,6-Bis(trichloromethyl)-4-(3,4-methylenedioxyphenyl)-1,3,5-triazine;2-(3,4-Methylenedioxyphenyl)-4,6-bis(trichloromethyl)-<em>s</em>-triazine;TAZ 107;2-(3,4-Methylenedioxyphenyl)-4,6-bis(trichloromethyl)-1,3,5-triazine;2-(1,3-Benzodioxolane-5-yl)-4,6-bis(trichloromethyl)-1,3,5-triazine",
    "duplicated_cas_no": "214620-30-1",
    "SMILES": "C(Cl)(Cl)(Cl)C1=NC(=NC(C(Cl)(Cl)Cl)=N1)C=2C=C3C(=CC2)OCO3",
    "meta_data": {
        "InChI": "InChI=1S/C12H5Cl6N3O2/c13-11(14,15)9-19-8(20-10(21-9)12(16,17)18)5-1-2-6-7(3-5)23-4-22-6/h1-3H,4H2",
        "InChIKey": null,
        "Canonical SMILES": "ClC(Cl)(Cl)C1=NC(=NC(=N1)C(Cl)(Cl)Cl)C=2C=CC=3OCOC3C2",
        "Molecular Formula": "C<sub>12</sub>H<sub>5</sub>Cl<sub>6</sub>N<sub>3</sub>O<sub>2</sub>",
        "Molecular Mass": "435.90",
        "Melting Point": "131.2-133.0 °C"
    }
}