{
    "cas_no": "768-66-1",
    "key_name": "2,2,6,6-Tetramethylpiperidine",
    "cn_name": "2,2,6,6-四甲基哌啶;",
    "alternate_name": "Piperidine, 2,2,6,6-tetramethyl-;2,2,6,6-Tetramethylpiperidine;Norpempidine;TEMP;NSC 102838;TMPH",
    "duplicated_cas_no": "",
    "SMILES": "CC1(C)NC(C)(C)CCC1",
    "meta_data": {
        "InChI": "InChI=1S/C9H19N/c1-8(2)6-5-7-9(3,4)10-8/h10H,5-7H2,1-4H3",
        "InChIKey": null,
        "Canonical SMILES": "N1C(C)(C)CCCC1(C)C",
        "Molecular Formula": "C<sub>9</sub>H<sub>19</sub>N",
        "Molecular Mass": "141.25",
        "Boiling Point": "156 °C",
        "Melting Point": "28 °C",
        "Density": "0.837 g/cm³"
    }
}