{
    "cas_no": "5496-10-6",
    "key_name": "1-Aminocyclohexanecarbonitrile",
    "cn_name": null,
    "alternate_name": "Cyclohexanecarbonitrile, 1-amino-;1-Aminocyclohexanecarbonitrile;1-Amino-1-cyanocyclohexane;1-Cyanocyclohexylamine;1-Cyano-1-aminocyclohexane;1-Aminocyclohexane-1-carbonitrile",
    "duplicated_cas_no": "",
    "SMILES": "C(#N)C1(N)CCCCC1",
    "meta_data": {
        "InChI": "InChI=1S/C7H12N2/c8-6-7(9)4-2-1-3-5-7/h1-5,9H2",
        "InChIKey": null,
        "Canonical SMILES": "N#CC1(N)CCCCC1",
        "Molecular Formula": "C<sub>7</sub>H<sub>12</sub>N<sub>2</sub>",
        "Molecular Mass": "124.18",
        "Boiling Point": "81-83 °C @ Press: 10 Torr",
        "Melting Point": "32 °C"
    }
}