{
    "cas_no": "72798-66-4",
    "key_name": "1,3-Dihydro-1-(2-propen-1-yl)-2<em>H</em>-benzimidazol-2-one",
    "cn_name": null,
    "alternate_name": "2<em>H</em>-Benzimidazol-2-one, 1,3-dihydro-1-(2-propen-1-yl)-;2<em>H</em>-Benzimidazol-2-one, 1,3-dihydro-1-(2-propenyl)-;2-Benzimidazolinone, 1-allyl-;1,3-Dihydro-1-(2-propen-1-yl)-2<em>H</em>-benzimidazol-2-one;1-(Allyl)-1<em>H</em>-benzo[<em>d</em>]imidazol-2(3<em>H</em>)-one;1-(Prop-2-en-1-yl)-2,3-dihydro-1<em>H</em>-1,3-benzodiazol-2-one;1-Allyl-1,3-dihydro-benzoimidazol-2-one;3-Prop-2-enyl-1<em>H</em>-benzimidazol-2-one",
    "duplicated_cas_no": "",
    "SMILES": "C(C=C)N1C=2C(NC1=O)=CC=CC2",
    "meta_data": {
        "InChI": "InChI=1S/C10H10N2O/c1-2-7-12-9-6-4-3-5-8(9)11-10(12)13/h2-6H,1,7H2,(H,11,13)",
        "InChIKey": null,
        "Canonical SMILES": "O=C1NC=2C=CC=CC2N1CC=C",
        "Molecular Formula": "C<sub>10</sub>H<sub>10</sub>N<sub>2</sub>O",
        "Molecular Mass": "174.20",
        "Melting Point": "99-100 °C"
    }
}