{
    "cas_no": "6334-18-5",
    "key_name": "2,3-Dichlorobenzaldehyde",
    "cn_name": "2,3-二氯苯甲醛;",
    "alternate_name": "Benzaldehyde, 2,3-dichloro-;2,3-Dichlorobenzaldehyde;NSC 28450",
    "duplicated_cas_no": "",
    "SMILES": "C(=O)C1=C(Cl)C(Cl)=CC=C1",
    "meta_data": {
        "InChI": "InChI=1S/C7H4Cl2O/c8-6-3-1-2-5(4-10)7(6)9/h1-4H",
        "InChIKey": null,
        "Canonical SMILES": "O=CC=1C=CC=C(Cl)C1Cl",
        "Molecular Formula": "C<sub>7</sub>H<sub>4</sub>Cl<sub>2</sub>O",
        "Molecular Mass": "175.01",
        "Melting Point": "65-67 °C"
    }
}