{
    "cas_no": "82005-12-7",
    "key_name": "Hymenialdisine",
    "cn_name": "2,5-已炔二醇;",
    "alternate_name": "Pyrrolo[2,3-<em>c</em>]azepin-8(1<em>H</em>)-one, 4-(2-amino-1,5-dihydro-5-oxo-4<em>H</em>-imidazol-4-ylidene)-2-bromo-4,5,6,7-tetrahydro-, (4<em>Z</em>)-;Pyrrolo[2,3-<em>c</em>]azepin-8(1<em>H</em>)-one, 4-(2-amino-1,5-dihydro-5-oxo-4<em>H</em>-imidazol-4-ylidene)-2-bromo-4,5,6,7-tetrahydro-, (<em>Z</em>)-;(4<em>Z</em>)-4-(2-Amino-1,5-dihydro-5-oxo-4<em>H</em>-imidazol-4-ylidene)-2-bromo-4,5,6,7-tetrahydropyrrolo[2,3-<em>c</em>]azepin-8(1<em>H</em>)-one;Hymenialdisine;(<em>Z</em>)-Hymenialdisine;Hymenialdesine;Z-Hymenialdisine;10<em>Z</em>-Hymenialdisine;10Z-Hymenialdisine",
    "duplicated_cas_no": "84094-93-9",
    "SMILES": "O=C1C2=C(/C(/CCN1)=C\\3/C(=O)N=C(N)N3)C=C(Br)N2",
    "meta_data": {
        "InChI": "InChI=1S/C11H10BrN5O2/c12-6-3-5-4(7-10(19)17-11(13)16-7)1-2-14-9(18)8(5)15-6/h3,15H,1-2H2,(H,14,18)(H3,13,16,17,19)/b7-4-",
        "InChIKey": null,
        "Canonical SMILES": "O=C1N=C(N)NC1=C2C=3C=C(Br)NC3C(=O)NCC2",
        "Molecular Formula": "C<sub>11</sub>H<sub>10</sub>BrN<sub>5</sub>O<sub>2</sub>",
        "Molecular Mass": "324.13",
        "Melting Point": "&gt;250 °C (decomp)"
    }
}