{
    "cas_no": "105942-08-3",
    "key_name": "4-Bromo-2-fluorobenzonitrile",
    "cn_name": "4-溴-2-氟苯腈;",
    "alternate_name": "Benzonitrile, 4-bromo-2-fluoro-;4-Bromo-2-fluorobenzonitrile;2-Fluoro-4-bromobenzonitrile;4-Cyano-3-fluoro-1-bromobenzene;4-Bromo-2-fluorobenzonitril",
    "duplicated_cas_no": "",
    "SMILES": "C(#N)C1=C(F)C=C(Br)C=C1",
    "meta_data": {
        "InChI": "InChI=1S/C7H3BrFN/c8-6-2-1-5(4-10)7(9)3-6/h1-3H",
        "InChIKey": null,
        "Canonical SMILES": "N#CC1=CC=C(Br)C=C1F",
        "Molecular Formula": "C<sub>7</sub>H<sub>3</sub>BrFN",
        "Molecular Mass": "200.01",
        "Melting Point": "71-73 °C"
    }
}