{
    "cas_no": "3217-15-0",
    "key_name": "4-Bromo-2,6-dichlorophenol",
    "cn_name": "4-溴-2,6-二氯酚;2,6-二氯对溴苯酚;",
    "alternate_name": "Phenol, 4-bromo-2,6-dichloro-;4-Bromo-2,6-dichlorophenol;2,6-Dichloro-4-bromophenol;NSC 74624",
    "duplicated_cas_no": "",
    "SMILES": "OC1=C(Cl)C=C(Br)C=C1Cl",
    "meta_data": {
        "InChI": "InChI=1S/C6H3BrCl2O/c7-3-1-4(8)6(10)5(9)2-3/h1-2,10H",
        "InChIKey": null,
        "Canonical SMILES": "ClC=1C=C(Br)C=C(Cl)C1O",
        "Molecular Formula": "C<sub>6</sub>H<sub>3</sub>BrCl<sub>2</sub>O",
        "Molecular Mass": "241.90",
        "Melting Point": "54-58 °C"
    }
}