{
    "cas_no": "119-34-6",
    "key_name": "4-Amino-2-nitrophenol",
    "cn_name": "2-硝基-4-氨基苯酚;",
    "alternate_name": "Phenol, 4-amino-2-nitro-;4-Amino-2-nitrophenol;C.I. 76555;C.I. Oxidation Base 25;Fourrine 57;Fourrine Brown PR;<em>o</em>-Nitro-<em>p</em>-aminophenol;2-Nitro-4-aminophenol;4-Hydroxy-3-nitroaniline;<em>p</em>-Amino-<em>o</em>-nitrophenol;3-Nitro-4-hydroxyaniline;1-Amino-3-nitro-4-hydroxybenzene;2-Hydroxy-5-aminonitrobenzene;NSC 56809",
    "duplicated_cas_no": "",
    "SMILES": "N(=O)(=O)C1=C(O)C=CC(N)=C1",
    "meta_data": {
        "InChI": "InChI=1S/C6H6N2O3/c7-4-1-2-6(9)5(3-4)8(10)11/h1-3,9H,7H2",
        "InChIKey": null,
        "Canonical SMILES": "O=N(=O)C1=CC(N)=CC=C1O",
        "Molecular Formula": "C<sub>6</sub>H<sub>6</sub>N<sub>2</sub>O<sub>3</sub>",
        "Molecular Mass": "154.12",
        "Melting Point": "131 °C"
    }
}