{
    "cas_no": "1484-50-0",
    "key_name": "2-Bromo-1,2-diphenylethanone",
    "cn_name": "2-溴-2-苯基苯乙酮;",
    "alternate_name": "Ethanone, 2-bromo-1,2-diphenyl-;Acetophenone, 2-bromo-2-phenyl-;2-Bromo-1,2-diphenylethanone;2-Bromo-2-phenylacetophenone;Desyl bromide;α-Bromodeoxybenzoin;α-Bromobenzyl phenyl ketone;α-Bromo-α-phenylacetophenone;α-Phenylphenacyl bromide;1-Bromo-1,2-diphenyl-2-ethanone;2-Bromo-1,2-diphenylethan-1-one",
    "duplicated_cas_no": "147749-68-6",
    "SMILES": "C(C(=O)C1=CC=CC=C1)(Br)C2=CC=CC=C2",
    "meta_data": {
        "InChI": "InChI=1S/C14H11BrO/c15-13(11-7-3-1-4-8-11)14(16)12-9-5-2-6-10-12/h1-10,13H",
        "InChIKey": null,
        "Canonical SMILES": "O=C(C=1C=CC=CC1)C(Br)C=2C=CC=CC2",
        "Molecular Formula": "C<sub>14</sub>H<sub>11</sub>BrO",
        "Molecular Mass": "275.14",
        "Melting Point": "63 °C"
    }
}