{
    "cas_no": "33996-58-6",
    "key_name": "α-Ethyl-2-oxo-1-pyrrolidineacetamide",
    "cn_name": "乙拉西坦;N-丁酰胺-2-吡咯烷酮;",
    "alternate_name": "1-Pyrrolidineacetamide, α-ethyl-2-oxo-;α-Ethyl-2-oxo-1-pyrrolidineacetamide;Etiracetam;UCB 6474;2-(2-Oxopyrrolidin-1-yl)butanamide;2-(2-Oxo-1-pyrrolidinyl)butanamide",
    "duplicated_cas_no": "103833-73-4",
    "SMILES": "C(C(N)=O)(CC)N1C(=O)CCC1",
    "meta_data": {
        "InChI": "InChI=1S/C8H14N2O2/c1-2-6(8(9)12)10-5-3-4-7(10)11/h6H,2-5H2,1H3,(H2,9,12)",
        "InChIKey": null,
        "Canonical SMILES": "O=C(N)C(N1C(=O)CCC1)CC",
        "Molecular Formula": "C<sub>8</sub>H<sub>14</sub>N<sub>2</sub>O<sub>2</sub>",
        "Molecular Mass": "170.21",
        "Melting Point": "113-114 °C"
    }
}