{
    "cas_no": "751-38-2",
    "key_name": "1,2,3,4-Tetraphenylnaphthalene",
    "cn_name": "1,2,3,4-四苯基萘;",
    "alternate_name": "Naphthalene, 1,2,3,4-tetraphenyl-;1,2,3,4-Tetraphenylnaphthalene;NSC 63121",
    "duplicated_cas_no": "",
    "SMILES": "C=1(C(=C(C2=C(C1C3=CC=CC=C3)C=CC=C2)C4=CC=CC=C4)C5=CC=CC=C5)C6=CC=CC=C6",
    "meta_data": {
        "InChI": "InChI=1S/C34H24/c1-5-15-25(16-6-1)31-29-23-13-14-24-30(29)32(26-17-7-2-8-18-26)34(28-21-11-4-12-22-28)33(31)27-19-9-3-10-20-27/h1-24H",
        "InChIKey": null,
        "Canonical SMILES": "C=1C=CC(=CC1)C=2C=3C=CC=CC3C(C=4C=CC=CC4)=C(C=5C=CC=CC5)C2C=6C=CC=CC6",
        "Molecular Formula": "C<sub>34</sub>H<sub>24</sub>",
        "Molecular Mass": "432.55",
        "Melting Point": "200-202 °C"
    }
}