{
    "cas_no": "142-59-6",
    "key_name": "DSE",
    "cn_name": null,
    "alternate_name": "Carbamodithioic acid, <em>N</em>,<em>N</em>′-1,2-ethanediylbis-, sodium salt (1:2);Carbamic acid, ethylenebis[dithio-, disodium salt;Carbamodithioic acid, 1,2-ethanediylbis-, disodium salt;Chem Bam;Disodium ethylenebis[dithiocarbamate];Dithane D 14;DSE;Ethylenebis[dithiocarbamic acid] disodium salt;Nabam;Parzate;Parzate Liquid;Nafun IPO;Dithane A 40",
    "duplicated_cas_no": "",
    "SMILES": "C(CNC(=S)S)NC(=S)S.[Na]",
    "meta_data": {
        "InChI": "InChI=1S/C4H8N2S4.2Na/c7-3(8)5-1-2-6-4(9)10;;/h1-2H2,(H2,5,7,8)(H2,6,9,10);;",
        "InChIKey": null,
        "Canonical SMILES": "[Na].S=C(S)NCCNC(=S)S",
        "Molecular Formula": "C<sub>4</sub>H<sub>8</sub>N<sub>2</sub>S<sub>4</sub>.2Na",
        "Molecular Mass": "",
        "Melting Point": "76-80 °C"
    }
}