{
    "cas_no": "99-87-6",
    "key_name": "<em>p</em>-Cymene",
    "cn_name": "4-异丙基甲苯;对异丙基甲苯;p-伞花烃;",
    "alternate_name": "Benzene, 1-methyl-4-(1-methylethyl)-;<em>p</em>-Cymene;1-Methyl-4-(1-methylethyl)benzene;Camphogen;<em>p</em>-Isopropyltoluene;<em>p</em>-Cymol;Dolcymene;1-Methyl-4-isopropylbenzene;1-Isopropyl-4-methylbenzene;<em>p</em>-Methylisopropylbenzene;2-<em>p</em>-Tolylpropane;4-Isopropyl-1-methylbenzene;<em>p</em>-Methylcumene;4-Isopropyltoluene;<em>para</em>-Cymene;4-Methylisopropylbenzene;4-Cymene;NSC 4162;1-Methyl-4-(propan-2-yl)benzene",
    "duplicated_cas_no": "",
    "SMILES": "C(C)(C)C1=CC=C(C)C=C1",
    "meta_data": {
        "InChI": "InChI=1S/C10H14/c1-8(2)10-6-4-9(3)5-7-10/h4-8H,1-3H3",
        "InChIKey": null,
        "Canonical SMILES": "C=1C=C(C=CC1C)C(C)C",
        "Molecular Formula": "C<sub>10</sub>H<sub>14</sub>",
        "Molecular Mass": "134.22",
        "Boiling Point": "177.10 °C",
        "Melting Point": "-68.9 °C",
        "Density": "0.8610 g/cm³ @ Temp: 20 °C"
    }
}