{
    "cas_no": "100367-39-3",
    "key_name": "4-Bromo-2-methoxypyridine",
    "cn_name": "4-溴-2-甲氧基吡啶;",
    "alternate_name": "Pyridine, 4-bromo-2-methoxy-;4-Bromo-2-methoxypyridine;2-Methoxy-4-bromopyridine",
    "duplicated_cas_no": "",
    "SMILES": "O(C)C1=CC(Br)=CC=N1",
    "meta_data": {
        "InChI": "InChI=1S/C6H6BrNO/c1-9-6-4-5(7)2-3-8-6/h2-4H,1H3",
        "InChIKey": null,
        "Canonical SMILES": "BrC=1C=CN=C(OC)C1",
        "Molecular Formula": "C<sub>6</sub>H<sub>6</sub>BrNO",
        "Molecular Mass": "188.02",
        "Boiling Point": "87 °C @ Press: 15 Torr"
    }
}