{
    "cas_no": "1521-38-6",
    "key_name": "2,3-Dimethoxybenzoic acid",
    "cn_name": "2,3-二甲氧基苯甲酸;",
    "alternate_name": "Benzoic acid, 2,3-dimethoxy-;<em>o</em>-Veratric acid;2,3-Dimethoxybenzoic acid;NSC 406133",
    "duplicated_cas_no": "",
    "SMILES": "O(C)C1=C(C(O)=O)C=CC=C1OC",
    "meta_data": {
        "InChI": "InChI=1S/C9H10O4/c1-12-7-5-3-4-6(9(10)11)8(7)13-2/h3-5H,1-2H3,(H,10,11)",
        "InChIKey": null,
        "Canonical SMILES": "O=C(O)C=1C=CC=C(OC)C1OC",
        "Molecular Formula": "C<sub>9</sub>H<sub>10</sub>O<sub>4</sub>",
        "Molecular Mass": "182.17",
        "Melting Point": "122-124 °C",
        "Density": "1.29 g/cm³"
    }
}