{
    "cas_no": "116-66-5",
    "key_name": "Moskene",
    "cn_name": "2,3-二氢-1,1,3,3,5-五甲基-4,6-二硝基-1H-茚;",
    "alternate_name": "1<em>H</em>-Indene, 2,3-dihydro-1,1,3,3,5-pentamethyl-4,6-dinitro-;Indan, 1,1,3,3,5-pentamethyl-4,6-dinitro-;2,3-Dihydro-1,1,3,3,5-pentamethyl-4,6-dinitro-1<em>H</em>-indene;Moskene;1,1,3,3,5-Pentamethyl-4,6-dinitroindan;Musk moskene;1,1,3,3,5-Pentamethyl-4,6-dinitroindane;NSC 60035;4,6-Dinitro-1,1,3,3,5-pentamethylindane;1,1,3,3,5-Pentamethyl-4,6-dinitro-2<em>H</em>-indene",
    "duplicated_cas_no": "",
    "SMILES": "N(=O)(=O)C1=C2C(C(C)(C)CC2(C)C)=CC(N(=O)=O)=C1C",
    "meta_data": {
        "InChI": "InChI=1S/C14H18N2O4/c1-8-10(15(17)18)6-9-11(12(8)16(19)20)14(4,5)7-13(9,2)3/h6H,7H2,1-5H3",
        "InChIKey": null,
        "Canonical SMILES": "O=N(=O)C=1C=C2C(=C(C1C)N(=O)=O)C(C)(C)CC2(C)C",
        "Molecular Formula": "C<sub>14</sub>H<sub>18</sub>N<sub>2</sub>O<sub>4</sub>",
        "Molecular Mass": "278.30",
        "Boiling Point": "351.1 °C"
    }
}