{
    "cas_no": "6127-19-1",
    "key_name": "6-Bromo-2-methyl-1<em>H</em>-indole",
    "cn_name": null,
    "alternate_name": "1<em>H</em>-Indole, 6-bromo-2-methyl-;Indole, 6-bromo-2-methyl-;6-Bromo-2-methyl-1<em>H</em>-indole;6-Bromo-2-methylindole;NSC 115145",
    "duplicated_cas_no": "",
    "SMILES": "CC1=CC=2C(N1)=CC(Br)=CC2",
    "meta_data": {
        "InChI": "InChI=1S/C9H8BrN/c1-6-4-7-2-3-8(10)5-9(7)11-6/h2-5,11H,1H3",
        "InChIKey": null,
        "Canonical SMILES": "BrC=1C=CC=2C=C(NC2C1)C",
        "Molecular Formula": "C<sub>9</sub>H<sub>8</sub>BrN",
        "Molecular Mass": "210.07",
        "Melting Point": "123-124 °C"
    }
}