{
    "cas_no": "84633-29-4",
    "key_name": "Eurycomanone",
    "cn_name": null,
    "alternate_name": "Picrasa-3,13(21)-diene-2,16-dione, 11,20-epoxy-1,11,12,14,15-pentahydroxy-, (1β,11β,12α,15β)-;2<em>H</em>-1,11c-(Epoxymethano)phenanthro[10,1-<em>bc</em>]pyran, picrasa-3,13(21)-diene-2,16-dione deriv.;(1β,11β,12α,15β)-11,20-Epoxy-1,11,12,14,15-pentahydroxypicrasa-3,13(21)-diene-2,16-dione;Eurycomanone;Pasakbumin A;NSC 339187",
    "duplicated_cas_no": "",
    "SMILES": "O[C@]12[C@@]34[C@@]([C@]5(C)[C@@](C[C@]3(OC(=O)[C@@H]1O)[H])(C(C)=CC(=O)[C@H]5O)[H])([C@@](O)(OC4)[C@H](O)C2=C)[H]",
    "meta_data": {
        "InChI": "InChI=1S/C20H24O9/c1-7-4-10(21)13(23)17(3)9(7)5-11-18-6-28-20(27,16(17)18)12(22)8(2)19(18,26)14(24)15(25)29-11/h4,9,11-14,16,22-24,26-27H,2,5-6H2,1,3H3/t9-,11+,12+,13+,14-,16+,17+,18+,19-,20-/m0/s1",
        "InChIKey": null,
        "Canonical SMILES": "O=C1OC2CC3C(=CC(=O)C(O)C3(C)C4C5(O)OCC24C(O)(C(=C)C5O)C1O)C",
        "Molecular Formula": "C<sub>20</sub>H<sub>24</sub>O<sub>9</sub>",
        "Molecular Mass": "408.40",
        "Melting Point": "273-285 °C"
    }
}