{
    "cas_no": "2436-85-3",
    "key_name": "<em>N</em>,<em>N</em>-Dimethyl-2-naphthalenamine",
    "cn_name": "N,N-二甲基-2-萘胺;N,N-二甲基-2-萘胺;",
    "alternate_name": "2-Naphthalenamine, <em>N</em>,<em>N</em>-dimethyl-;2-Naphthylamine, <em>N</em>,<em>N</em>-dimethyl-;<em>N</em>,<em>N</em>-Dimethyl-2-naphthalenamine;<em>N</em>,<em>N</em>-Dimethyl-2-naphthylamine;<em>N</em>,<em>N</em>-Dimethyl-β-naphthylamine;2-Dimethylaminonaphthalene",
    "duplicated_cas_no": "",
    "SMILES": "N(C)(C)C1=CC2=C(C=C1)C=CC=C2",
    "meta_data": {
        "InChI": "InChI=1S/C12H13N/c1-13(2)12-8-7-10-5-3-4-6-11(10)9-12/h3-9H,1-2H3",
        "InChIKey": null,
        "Canonical SMILES": "C=1C=CC=2C=C(C=CC2C1)N(C)C",
        "Molecular Formula": "C<sub>12</sub>H<sub>13</sub>N",
        "Molecular Mass": "171.24",
        "Boiling Point": "305 °C",
        "Melting Point": "52.5 °C"
    }
}