{
    "cas_no": "5154-02-9",
    "key_name": "1,5-Isoquinolinediol",
    "cn_name": null,
    "alternate_name": "1(2<em>H</em>)-Isoquinolinone, 5-hydroxy-;1,5-Isoquinolinediol;5-Hydroxy-1(2<em>H</em>)-isoquinolinone;1,5-Dihydroxyisoquinoline;NSC 65585;1,5-IQD",
    "duplicated_cas_no": "40048-26-8",
    "SMILES": "OC1=C2C(C(=O)NC=C2)=CC=C1",
    "meta_data": {
        "InChI": "InChI=1S/C9H7NO2/c11-8-3-1-2-7-6(8)4-5-10-9(7)12/h1-5,11H,(H,10,12)",
        "InChIKey": null,
        "Canonical SMILES": "O=C1NC=CC=2C(O)=CC=CC12",
        "Molecular Formula": "C<sub>9</sub>H<sub>7</sub>NO<sub>2</sub>",
        "Molecular Mass": "161.16",
        "Melting Point": "282 °C"
    }
}