{
    "cas_no": "1124-05-6",
    "key_name": "2,5-Dichloro-<em>p</em>-xylene",
    "cn_name": "2,5-二氯-对-二甲苯;",
    "alternate_name": "Benzene, 1,4-dichloro-2,5-dimethyl-;<em>p</em>-Xylene, 2,5-dichloro-;1,4-Dichloro-2,5-dimethylbenzene;2,5-Dichloro-<em>p</em>-xylene;2,5-Dichloro-1,4-dimethylbenzene;NSC 61999",
    "duplicated_cas_no": "",
    "SMILES": "CC1=C(Cl)C=C(C)C(Cl)=C1",
    "meta_data": {
        "InChI": "InChI=1S/C8H8Cl2/c1-5-3-8(10)6(2)4-7(5)9/h3-4H,1-2H3",
        "InChIKey": null,
        "Canonical SMILES": "ClC=1C=C(C(Cl)=CC1C)C",
        "Molecular Formula": "C<sub>8</sub>H<sub>8</sub>Cl<sub>2</sub>",
        "Molecular Mass": "175.06",
        "Boiling Point": "222 °C",
        "Melting Point": "71 °C"
    }
}