{
    "cas_no": "624-51-1",
    "key_name": "3-Nonanol",
    "cn_name": "3-壬醇;3-羟基壬烷;乙基己基甲醇;",
    "alternate_name": "3-Nonanol;Nonanol-3;<em>dl</em>-Nonan-3-ol;(±)-3-Nonanol",
    "duplicated_cas_no": "74742-08-8",
    "SMILES": "C(CCCCCC)(CC)O",
    "meta_data": {
        "InChI": "InChI=1S/C9H20O/c1-3-5-6-7-8-9(10)4-2/h9-10H,3-8H2,1-2H3",
        "InChIKey": null,
        "Canonical SMILES": "OC(CC)CCCCCC",
        "Molecular Formula": "C<sub>9</sub>H<sub>20</sub>O",
        "Molecular Mass": "144.25",
        "Boiling Point": "96-98 °C @ Press: 19 Torr",
        "Melting Point": "22-23 °C",
        "Density": "0.80624 g/cm³ (liquid) @ Temp: 45.000 °C"
    }
}