{
    "cas_no": "305-01-1",
    "key_name": "Esculetin",
    "cn_name": "6,7-二羟基香豆素;",
    "alternate_name": "2<em>H</em>-1-Benzopyran-2-one, 6,7-dihydroxy-;Coumarin, 6,7-dihydroxy-;Esculetin;6,7-Dihydroxy-2<em>H</em>-1-benzopyran-2-one;Cichorigenin;Cichoriin aglycon;6,7-Dihydroxycoumarin;Esculetol;Esculin aglycon;Aesculetin;Asculetine;NSC 26428;6,7-Dihydroxy-2-benzopyrone",
    "duplicated_cas_no": "",
    "SMILES": "OC=1C=C2C(=CC1O)C=CC(=O)O2",
    "meta_data": {
        "InChI": "InChI=1S/C9H6O4/c10-6-3-5-1-2-9(12)13-8(5)4-7(6)11/h1-4,10-11H",
        "InChIKey": null,
        "Canonical SMILES": "O=C1OC=2C=C(O)C(O)=CC2C=C1",
        "Molecular Formula": "C<sub>9</sub>H<sub>6</sub>O<sub>4</sub>",
        "Molecular Mass": "178.14",
        "Melting Point": "276 °C",
        "Density": "1.56 g/cm³"
    }
}