{
    "cas_no": "26377-17-3",
    "key_name": "4-Pyridinepropanoic acid, β-oxo-, ethyl ester",
    "cn_name": null,
    "alternate_name": "4-Pyridinepropanoic acid, β-oxo-, ethyl ester;4-Pyridinepropionic acid, β-oxo-, ethyl ester;Ethyl 3-(4-pyridyl)-3-oxopropionate;Isonicotinoylacetic acid ethyl ester;Ethyl isonicotinoylacetate;3-Oxo-3-pyridin-4-ylpropionic acid ethyl ester;Ethyl 3-oxo-3-(4-pyridyl)propionate;Ethyl β-oxo-4-pyridinepropanoate;Ethyl 3-oxo-3-(4-pyridinyl)propanoate;Ethyl 3-(pyridin-4-yl)-3-oxopropionate;3-Oxo-3-(pyridin-4-yl)propanoic acid ethyl ester;Ethyl 3-(pyridin-4-yl)-3-oxopropanoate;Ethyl 3-oxo-3-(4-pyridyl)propanoate",
    "duplicated_cas_no": "",
    "SMILES": "C(CC(OCC)=O)(=O)C=1C=CN=CC1",
    "meta_data": {
        "InChI": "InChI=1S/C10H11NO3/c1-2-14-10(13)7-9(12)8-3-5-11-6-4-8/h3-6H,2,7H2,1H3",
        "InChIKey": null,
        "Canonical SMILES": "O=C(OCC)CC(=O)C=1C=CN=CC1",
        "Molecular Formula": "C<sub>10</sub>H<sub>11</sub>NO<sub>3</sub>",
        "Molecular Mass": "193.20",
        "Boiling Point": "80-82 °C @ Press: 0.03 Torr",
        "Melting Point": "60 °C"
    }
}