{
    "cas_no": "109425-55-0",
    "key_name": "<em>N</em>-α-Fluorenylmethoxycarbonyl-<em>N</em>-δ-<em>tert</em>-butoxycarbonyl-<span class=\"text-smallcaps\">L</span>-ornithine",
    "cn_name": "N-Fmoc-N\"-Boc-L-鸟氨酸;N-芴甲氧羰基-N\"-叔丁氧羰基-L-鸟氨酸;",
    "alternate_name": "<span class=\"text-smallcaps\">L</span>-Ornithine, <em>N</em><sup>5</sup>-[(1,1-dimethylethoxy)carbonyl]-<em>N</em><sup>2</sup>-[(9<em>H</em>-fluoren-9-ylmethoxy)carbonyl]-;<em>N</em><sup>5</sup>-[(1,1-Dimethylethoxy)carbonyl]-<em>N</em><sup>2</sup>-[(9<em>H</em>-fluoren-9-ylmethoxy)carbonyl]-<span class=\"text-smallcaps\">L</span>-ornithine;(<em>S</em>)-5-[(<em>tert</em>-Butoxycarbonyl)amino]-2-[[[(9<em>H</em>-fluoren-9-yl)methoxy]carbonyl]amino]pentanoic acid;<em>N</em>-α-Fluorenylmethoxycarbonyl-<em>N</em>-δ-<em>tert</em>-butoxycarbonyl-<span class=\"text-smallcaps\">L</span>-ornithine;Fmoc-<span class=\"text-smallcaps\">L</span>-Orn(Boc)-OH;(2S)-2-(9<em>H</em>-Fluoren-9-ylmethoxycarbonylamino)-5-[(2-methylpropan-2-yl)oxycarbonylamino]pentanoic acid",
    "duplicated_cas_no": "",
    "SMILES": "C(OC(N[C@@H](CCCNC(OC(C)(C)C)=O)C(O)=O)=O)C1C=2C(C=3C1=CC=CC3)=CC=CC2",
    "meta_data": {
        "InChI": "InChI=1S/C25H30N2O6/c1-25(2,3)33-23(30)26-14-8-13-21(22(28)29)27-24(31)32-15-20-18-11-6-4-9-16(18)17-10-5-7-12-19(17)20/h4-7,9-12,20-21H,8,13-15H2,1-3H3,(H,26,30)(H,27,31)(H,28,29)/t21-/m0/s1",
        "InChIKey": null,
        "Canonical SMILES": "O=C(OCC1C=2C=CC=CC2C=3C=CC=CC31)NC(C(=O)O)CCCNC(=O)OC(C)(C)C",
        "Molecular Formula": "C<sub>25</sub>H<sub>30</sub>N<sub>2</sub>O<sub>6</sub>",
        "Molecular Mass": "454.52",
        "Melting Point": "93-94 °C"
    }
}