{
    "cas_no": "230-07-9",
    "key_name": "4,7-Phenanthroline",
    "cn_name": "4,7-菲洛林;",
    "alternate_name": "4,7-Phenanthroline;Pseudophenanthroline;5,6,3′,2′-Pyridoquinoline;Pyrido[3,2-<em>f</em>]quinoline;<em>p</em>-Phenanthroline;1,8-Diazaphenanthrene;NSC 35680",
    "duplicated_cas_no": "",
    "SMILES": "C12=C3C(=CC=C1N=CC=C2)N=CC=C3",
    "meta_data": {
        "InChI": "InChI=1S/C12H8N2/c1-3-9-10-4-2-8-14-12(10)6-5-11(9)13-7-1/h1-8H",
        "InChIKey": null,
        "Canonical SMILES": "N1=CC=CC=2C1=CC=C3N=CC=CC32",
        "Molecular Formula": "C<sub>12</sub>H<sub>8</sub>N<sub>2</sub>",
        "Molecular Mass": "180.21",
        "Melting Point": "177 °C"
    }
}