{
    "cas_no": "45102-52-1",
    "key_name": "2,2,3,3-Tetrafluoropropyl methacrylate",
    "cn_name": "2,2,3,3-四氟丙基甲基丙烯酸酯;甲基丙烯酸2,2,3,3-四氟丙酯;",
    "alternate_name": "2-Propenoic acid, 2-methyl-, 2,2,3,3-tetrafluoropropyl ester;Methacrylic acid, 2,2,3,3-tetrafluoropropyl ester;2,2,3,3-Tetrafluoropropyl methacrylate;Viscoat 4FM;1,1,3-Trihydroperfluoropropyl methacrylate;1,1,3-Trihydrotetrafluoropropyl methacrylate;M 5210;1<em>H</em>,1<em>H</em>,3<em>H</em>-Tetrafluoropropyl methacrylate;2,2,3,3-Tetrafluoropropyl 2-methylprop-2-enoate;M 1150",
    "duplicated_cas_no": "119822-07-0",
    "SMILES": "C(COC(C(C)=C)=O)(C(F)F)(F)F",
    "meta_data": {
        "InChI": "InChI=1S/C7H8F4O2/c1-4(2)5(12)13-3-7(10,11)6(8)9/h6H,1,3H2,2H3",
        "InChIKey": null,
        "Canonical SMILES": "O=C(OCC(F)(F)C(F)F)C(=C)C",
        "Molecular Formula": "C<sub>7</sub>H<sub>8</sub>F<sub>4</sub>O<sub>2</sub>",
        "Molecular Mass": "200.13",
        "Boiling Point": "124 °C",
        "Density": "1.2598 g/cm³ @ Temp: 20 °C"
    }
}