{
    "cas_no": "734-32-7",
    "key_name": "(+)-Estr-4-ene-3,17-dione",
    "cn_name": "19-去甲-4-雄烯二酮;",
    "alternate_name": "Estr-4-ene-3,17-dione;3,17-Dioxo-19-norandrost-4-ene;Δ<sup>4</sup>-Estrene-3,17-dione;19-Norandrost-4-ene-3,17-dione;19-Norandrostenedione;(+)-19-Norandrost-4-en-3,17-dione;<em>d</em>-19-Norandrost-4-ene-3,17-dione;(+)-Estr-4-ene-3,17-dione;(+)-19-Norandrost-4-ene-3,17-dione;19-Nor-4-androstenedione;NSC 12164;Nordione",
    "duplicated_cas_no": "15324-53-5;30598-83-5",
    "SMILES": "C[C@@]12[C@]([C@]3([C@@]([C@@]4(C(CC3)=CC(=O)CC4)[H])(CC1)[H])[H])(CCC2=O)[H]",
    "meta_data": {
        "InChI": "InChI=1S/C18H24O2/c1-18-9-8-14-13-5-3-12(19)10-11(13)2-4-15(14)16(18)6-7-17(18)20/h10,13-16H,2-9H2,1H3/t13-,14+,15+,16-,18-/m0/s1",
        "InChIKey": null,
        "Canonical SMILES": "O=C1C=C2CCC3C(CCC4(C(=O)CCC34)C)C2CC1",
        "Molecular Formula": "C<sub>18</sub>H<sub>24</sub>O<sub>2</sub>",
        "Molecular Mass": "272.38",
        "Melting Point": "169-170.5 °C"
    }
}