{
    "cas_no": "100418-33-5",
    "key_name": "2-[(4-Methyl-2-nitrophenyl)amino]ethanol",
    "cn_name": null,
    "alternate_name": "Ethanol, 2-[(4-methyl-2-nitrophenyl)amino]-;2-[(4-Methyl-2-nitrophenyl)amino]ethanol;4-(2-Hydroxyethylamino)-3-nitrotoluene;4-[(2-Hydroxyethyl)amino]-3-nitro-1-methylbenzene;2-[(4-Methyl-2-nitrophenyl)amino]ethan-1-ol;2-(4-Methyl-2-nitroanilino)ethanol",
    "duplicated_cas_no": "",
    "SMILES": "N(CCO)C1=C(N(=O)=O)C=C(C)C=C1",
    "meta_data": {
        "InChI": "InChI=1S/C9H12N2O3/c1-7-2-3-8(10-4-5-12)9(6-7)11(13)14/h2-3,6,10,12H,4-5H2,1H3",
        "InChIKey": null,
        "Canonical SMILES": "O=N(=O)C1=CC(=CC=C1NCCO)C",
        "Molecular Formula": "C<sub>9</sub>H<sub>12</sub>N<sub>2</sub>O<sub>3</sub>",
        "Molecular Mass": "196.20",
        "Melting Point": "82-83 °C"
    }
}