{
    "cas_no": "10026-04-7",
    "key_name": "Silicon tetrachloride",
    "cn_name": "四氯化硅;",
    "alternate_name": "Silane, tetrachloro-;Silicon chloride (SiCl<sub>4</sub>);Tetrachlorosilane;Silicon tetrachloride;Tetrachlorosilicon;Perchlorosilane;Silicon chloride;LS 10;LS 10 (silane)",
    "duplicated_cas_no": "",
    "SMILES": "[Si](Cl)(Cl)(Cl)Cl",
    "meta_data": {
        "InChI": "InChI=1S/Cl4Si/c1-5(2,3)4",
        "InChIKey": null,
        "Canonical SMILES": "Cl[Si](Cl)(Cl)Cl",
        "Molecular Formula": "Cl<sub>4</sub>Si",
        "Molecular Mass": "169.90",
        "Boiling Point": "59 °C",
        "Melting Point": "-70 °C",
        "Density": "1.52 g/cm³ @ Temp: 0 °C"
    }
}