{
    "cas_no": "13709-36-9",
    "key_name": "Xenon difluoride",
    "cn_name": "二氟代氙;",
    "alternate_name": "Xenon fluoride (XeF<sub>2</sub>);Xenon difluoride;Xenon difluoride (XeF<sub>2</sub>);Xenon(II) fluoride",
    "duplicated_cas_no": "",
    "SMILES": "[Xe](F)F",
    "meta_data": {
        "InChI": "InChI=1S/F2Xe/c1-3-2",
        "InChIKey": null,
        "Canonical SMILES": "F[Xe]F",
        "Molecular Formula": "F<sub>2</sub>Xe",
        "Molecular Mass": "",
        "Melting Point": "136 °C"
    }
}