{
    "cas_no": "407-47-6",
    "key_name": "2,2,2-Trifluoroethyl acrylate",
    "cn_name": "丙烯酸三氟乙酯;2,2,2-三氟乙基丙烯酸酯;",
    "alternate_name": "2-Propenoic acid, 2,2,2-trifluoroethyl ester;Acrylic acid, 2,2,2-trifluoroethyl ester;Ethanol, 2,2,2-trifluoro-, acrylate;2,2,2-Trifluoroethyl acrylate;Viscoat 3F;NSC 32611;V 3F;A 1152;Trifluoroethyl acrylate;Trifluoromethylmethyl acrylate;R 1110;2,2,2-Trifluoroethyl prop-2-enoate;Viscoat V 3F",
    "duplicated_cas_no": "",
    "SMILES": "O(C(C=C)=O)CC(F)(F)F",
    "meta_data": {
        "InChI": "InChI=1S/C5H5F3O2/c1-2-4(9)10-3-5(6,7)8/h2H,1,3H2",
        "InChIKey": null,
        "Canonical SMILES": "O=C(OCC(F)(F)F)C=C",
        "Molecular Formula": "C<sub>5</sub>H<sub>5</sub>F<sub>3</sub>O<sub>2</sub>",
        "Molecular Mass": "154.09",
        "Boiling Point": "46 °C"
    }
}