{
    "cas_no": "20126-59-4",
    "key_name": "Diosmetin 7-<em>O</em>-β-<span class=\"text-smallcaps\">D</span>-glucoside",
    "cn_name": null,
    "alternate_name": "4<em>H</em>-1-Benzopyran-4-one, 7-(β-<span class=\"text-smallcaps\">D</span>-glucopyranosyloxy)-5-hydroxy-2-(3-hydroxy-4-methoxyphenyl)-;Flavone, 3′,5,7-trihydroxy-4′-methoxy-, 7-β-<span class=\"text-smallcaps\">D</span>-glucopyranoside;Diosmetin, 7-β-<span class=\"text-smallcaps\">D</span>-glucopyranoside;Glucopyranoside, diosmetin-7, β-<span class=\"text-smallcaps\">D</span>-;7-(β-<span class=\"text-smallcaps\">D</span>-Glucopyranosyloxy)-5-hydroxy-2-(3-hydroxy-4-methoxyphenyl)-4<em>H</em>-1-benzopyran-4-one;Diosmetol 7-glucoside;7-β-<span class=\"text-smallcaps\">D</span>-Glucopyranosyldiosmetol;Diosmetin 7-<em>O</em>-β-<span class=\"text-smallcaps\">D</span>-glucopyranoside;Diosmetin 7-<em>O</em>-glucoside;7-<em>O</em>-β-<span class=\"text-smallcaps\">D</span>-Glucopyranosyl-3′,5-dihydroxy-4′-methoxyflavone;Diosmetin 7-glucoside;Diosmetin 7-<em>O</em>-β-glucoside;Diosmetin 7-<em>O</em>-β-<span class=\"text-smallcaps\">D</span>-glucoside;7-<em>O</em>-(β-<span class=\"text-smallcaps\">D</span>-Glucopyranosyl)diosmetine;Eridictiol;Thalassiolin D aglycon",
    "duplicated_cas_no": "101203-50-3;30370-81-1;58798-56-4",
    "SMILES": "O=C1C=2C(OC(=C1)C3=CC(O)=C(OC)C=C3)=CC(O[C@@H]4O[C@H](CO)[C@@H](O)[C@H](O)[C@H]4O)=CC2O",
    "meta_data": {
        "InChI": "InChI=1S/C22H22O11/c1-30-14-3-2-9(4-11(14)24)15-7-13(26)18-12(25)5-10(6-16(18)32-15)31-22-21(29)20(28)19(27)17(8-23)33-22/h2-7,17,19-25,27-29H,8H2,1H3/t17-,19-,20+,21-,22-/m1/s1",
        "InChIKey": null,
        "Canonical SMILES": "O=C1C=C(OC2=CC(OC3OC(CO)C(O)C(O)C3O)=CC(O)=C12)C=4C=CC(OC)=C(O)C4",
        "Molecular Formula": "C<sub>22</sub>H<sub>22</sub>O<sub>11</sub>",
        "Molecular Mass": "462.40",
        "Melting Point": "253-255 °C"
    }
}