{
    "cas_no": "13278-36-9",
    "key_name": "2-[(3-Chlorophenyl)amino]benzoic acid",
    "cn_name": "氯灭酸;",
    "alternate_name": "Benzoic acid, 2-[(3-chlorophenyl)amino]-;Anthranilic acid, <em>N</em>-(<em>m</em>-chlorophenyl)-;2-[(3-Chlorophenyl)amino]benzoic acid;<em>N</em>-(3-Chlorophenyl)-anthranilic acid;<em>N</em>-(<em>m</em>-Chlorophenyl)anthranilic acid;NSC 49135;2-(3-Chloroanilino)benzoic acid",
    "duplicated_cas_no": "",
    "SMILES": "N(C1=C(C(O)=O)C=CC=C1)C2=CC(Cl)=CC=C2",
    "meta_data": {
        "InChI": "InChI=1S/C13H10ClNO2/c14-9-4-3-5-10(8-9)15-12-7-2-1-6-11(12)13(16)17/h1-8,15H,(H,16,17)",
        "InChIKey": null,
        "Canonical SMILES": "O=C(O)C=1C=CC=CC1NC=2C=CC=C(Cl)C2",
        "Molecular Formula": "C<sub>13</sub>H<sub>10</sub>ClNO<sub>2</sub>",
        "Molecular Mass": "247.68",
        "Melting Point": "167-168 °C"
    }
}