{
    "cas_no": "57479-70-6",
    "key_name": "4-Chloro-2-methoxybenzoic acid",
    "cn_name": "4-氯-2-甲氧基苯甲酸;2-甲氧基-4-氯苯甲酸;",
    "alternate_name": "Benzoic acid, 4-chloro-2-methoxy-;<em>o</em>-Anisic acid, 4-chloro-;4-Chloro-2-methoxybenzoic acid;4-Chloro-<em>o</em>-anisic acid;2-Methoxy-4-chlorobenzoic acid",
    "duplicated_cas_no": "",
    "SMILES": "O(C)C1=C(C(O)=O)C=CC(Cl)=C1",
    "meta_data": {
        "InChI": "InChI=1S/C8H7ClO3/c1-12-7-4-5(9)2-3-6(7)8(10)11/h2-4H,1H3,(H,10,11)",
        "InChIKey": null,
        "Canonical SMILES": "O=C(O)C1=CC=C(Cl)C=C1OC",
        "Molecular Formula": "C<sub>8</sub>H<sub>7</sub>ClO<sub>3</sub>",
        "Molecular Mass": "186.59",
        "Melting Point": "148 °C"
    }
}