{
    "cas_no": "75-08-1",
    "key_name": "Ethanethiol",
    "cn_name": "乙硫醇;巯基乙烷;",
    "alternate_name": "Ethanethiol;Ethyl hydrosulfide;Ethyl mercaptan;Ethyl thioalcohol;Thioethanol;Thioethyl alcohol;Mercaptoethane;NSC 93877",
    "duplicated_cas_no": "",
    "SMILES": "C(C)S",
    "meta_data": {
        "InChI": "InChI=1S/C2H6S/c1-2-3/h3H,2H2,1H3",
        "InChIKey": null,
        "Canonical SMILES": "SCC",
        "Molecular Formula": "C<sub>2</sub>H<sub>6</sub>S",
        "Molecular Mass": "62.13",
        "Boiling Point": "35 °C @ Press: 760 Torr",
        "Melting Point": "-144.4 °C",
        "Density": "0.83907 g/cm³ @ Temp: 20 °C"
    }
}