{
    "cas_no": "2344-83-4",
    "key_name": "(3-Chloropropyl)trimethylsilane",
    "cn_name": "(3-氯丙基)三甲基硅烷;3-氯丙基三甲基硅烷;",
    "alternate_name": "Silane, (3-chloropropyl)trimethyl-;(3-Chloropropyl)trimethylsilane;3-Trimethylsilylpropyl chloride;γ-Chloropropyltrimethylsilane;1-Chloro-3-(trimethylsilyl)propane;LS 1180",
    "duplicated_cas_no": "",
    "SMILES": "C([Si](C)(C)C)CCCl",
    "meta_data": {
        "InChI": "InChI=1S/C6H15ClSi/c1-8(2,3)6-4-5-7/h4-6H2,1-3H3",
        "InChIKey": null,
        "Canonical SMILES": "ClCCC[Si](C)(C)C",
        "Molecular Formula": "C<sub>6</sub>H<sub>15</sub>ClSi",
        "Molecular Mass": "150.72",
        "Boiling Point": "151 °C",
        "Density": "0.879 g/cm³"
    }
}