{
    "cas_no": "106-90-1",
    "key_name": "Glycidyl acrylate",
    "cn_name": "丙烯酸-2,3-环氧丙酯;丙烯酸-2，3-环氧丙酯;",
    "alternate_name": "2-Propenoic acid, 2-oxiranylmethyl ester;Acrylic acid, 2,3-epoxypropyl ester;2-Propenoic acid, oxiranylmethyl ester;Acrylic acid, glycidyl ester;2,3-Epoxypropyl acrylate;Glycidyl propenoate;Glycidyl acrylate;Epoxypropyl acrylate;(±)-Glycidyl acrylate;NSC 24151;NSC 67196;SR 378;(Oxiran-2-yl)methyl prop-2-enoate;A 1045",
    "duplicated_cas_no": "130232-45-0;69960-65-2;70404-76-1",
    "SMILES": "C(OC(C=C)=O)C1CO1",
    "meta_data": {
        "InChI": "InChI=1S/C6H8O3/c1-2-6(7)9-4-5-3-8-5/h2,5H,1,3-4H2",
        "InChIKey": null,
        "Canonical SMILES": "O=C(OCC1OC1)C=C",
        "Molecular Formula": "C<sub>6</sub>H<sub>8</sub>O<sub>3</sub>",
        "Molecular Mass": "128.13",
        "Boiling Point": "57 °C @ Press: 2 Torr",
        "Density": "1.1074 g/cm³ @ Temp: 20 °C"
    }
}