{
    "cas_no": "622-39-9",
    "key_name": "2-Propylpyridine",
    "cn_name": "2-丙基吡啶;",
    "alternate_name": "Pyridine, 2-propyl-;2-Propylpyridine;Conyrine;1-(2-Pyridyl)propane;2-<em>n</em>-Propylpyridine;NSC 966",
    "duplicated_cas_no": "",
    "SMILES": "C(CC)C1=CC=CC=N1",
    "meta_data": {
        "InChI": "InChI=1S/C8H11N/c1-2-5-8-6-3-4-7-9-8/h3-4,6-7H,2,5H2,1H3",
        "InChIKey": null,
        "Canonical SMILES": "N=1C=CC=CC1CCC",
        "Molecular Formula": "C<sub>8</sub>H<sub>11</sub>N",
        "Molecular Mass": "121.18",
        "Boiling Point": "167 °C",
        "Melting Point": "2 °C",
        "Density": "0.9119 g/cm³ @ Temp: 20 °C"
    }
}