{
    "cas_no": "79-22-1",
    "key_name": "Methyl chloroformate",
    "cn_name": "氯甲酸甲酯;",
    "alternate_name": "Carbonochloridic acid, methyl ester;Formic acid, chloro-, methyl ester;Chloroformic acid methyl ester;Methyl chlorocarbonate;Methyl chloroformate;Chlorocarbonic acid methyl ester;Methoxycarbonyl chloride;Methyl carbonochloridate;Chloro(methoxy)methanone",
    "duplicated_cas_no": "",
    "SMILES": "C(OC)(Cl)=O",
    "meta_data": {
        "InChI": "InChI=1S/C2H3ClO2/c1-5-2(3)4/h1H3",
        "InChIKey": null,
        "Canonical SMILES": "O=C(Cl)OC",
        "Molecular Formula": "C<sub>2</sub>H<sub>3</sub>ClO<sub>2</sub>",
        "Molecular Mass": "94.50",
        "Boiling Point": "71.0 °C",
        "Melting Point": "-61 °C",
        "Density": "1.223 g/cm³ @ Temp: 20 °C"
    }
}