{
    "cas_no": "3383-72-0",
    "key_name": "1-(2-Chloroethoxy)-4-nitrobenzene",
    "cn_name": "2-氯乙基4-硝基苯基醚;",
    "alternate_name": "Benzene, 1-(2-chloroethoxy)-4-nitro-;Phenetole, β-chloro-<em>p</em>-nitro-;1-(2-Chloroethoxy)-4-nitrobenzene;4-(2-Chloroethoxy)nitrobenzene;2-Chloroethyl 4-nitrophenyl ether;β-Chloro-4-nitrophenetole;2-(4-Nitrophenoxy)ethyl chloride;4-Nitro-1-(2-chloroethoxy)benzene",
    "duplicated_cas_no": "",
    "SMILES": "N(=O)(=O)C1=CC=C(OCCCl)C=C1",
    "meta_data": {
        "InChI": "InChI=1S/C8H8ClNO3/c9-5-6-13-8-3-1-7(2-4-8)10(11)12/h1-4H,5-6H2",
        "InChIKey": null,
        "Canonical SMILES": "O=N(=O)C1=CC=C(OCCCl)C=C1",
        "Molecular Formula": "C<sub>8</sub>H<sub>8</sub>ClNO<sub>3</sub>",
        "Molecular Mass": "201.61",
        "Boiling Point": "204-206 °C @ Press: 25 Torr",
        "Melting Point": "67-68 °C"
    }
}