{
    "cas_no": "639-58-7",
    "key_name": "Triphenyltin chloride",
    "cn_name": "三苯基氯化锡;",
    "alternate_name": "Stannane, chlorotriphenyl-;Triphenyltin chloride;Chlorotriphenylstannane;LS 4442;GC 8993;General Chemicals 8993;TPTC;HOE 2872;Brestanol;Fentin chloride;Chlorotriphenyltin;Triphenylchlorostannane;Triphenylstannyl chloride;Triphenylchlorotin;Triphenyltin monochloride;Aquatin;Wenqukexing;NSC 1214;NSC 43675",
    "duplicated_cas_no": "",
    "SMILES": "[Sn](Cl)(C1=CC=CC=C1)(C2=CC=CC=C2)C3=CC=CC=C3",
    "meta_data": {
        "InChI": "InChI=1S/3C6H5.ClH.Sn/c3*1-2-4-6-5-3-1;;/h3*1-5H;1H;/q;;;;+1/p-1",
        "InChIKey": null,
        "Canonical SMILES": "Cl[Sn](C=1C=CC=CC1)(C=2C=CC=CC2)C=3C=CC=CC3",
        "Molecular Formula": "C<sub>18</sub>H<sub>15</sub>ClSn",
        "Molecular Mass": "385.47",
        "Boiling Point": "240 °C @ Press: 13.5 Torr",
        "Melting Point": "103.5 °C",
        "Density": "1.4 g/cm³"
    }
}