{
    "cas_no": "21168-72-9",
    "key_name": "4-(Aminomethyl)-1-piperidineethanol",
    "cn_name": null,
    "alternate_name": "1-Piperidineethanol, 4-(aminomethyl)-;4-(Aminomethyl)-1-piperidineethanol;4-Aminomethyl-1-(2-hydroxyethyl)piperidine;2-[4-(Aminomethyl)piperidin-1-yl]ethan-1-ol;2-[4-(Aminomethyl)piperidin-1-yl]ethanol;2-(4-Aminomethyl-piperidin-1-yl)-ethanol",
    "duplicated_cas_no": "",
    "SMILES": "C(CO)N1CCC(CN)CC1",
    "meta_data": {
        "InChI": "InChI=1S/C8H18N2O/c9-7-8-1-3-10(4-2-8)5-6-11/h8,11H,1-7,9H2",
        "InChIKey": null,
        "Canonical SMILES": "OCCN1CCC(CN)CC1",
        "Molecular Formula": "C<sub>8</sub>H<sub>18</sub>N<sub>2</sub>O",
        "Molecular Mass": "158.24",
        "Boiling Point": "99-100 °C @ Press: 10.3 Torr"
    }
}