{
    "cas_no": "140681-55-6",
    "key_name": "Selectfluor",
    "cn_name": "1-氯甲基-4-氟-1,4-二氮杂双环[2.2.2]辛烷二(四氟硼酸)盐;",
    "alternate_name": "1,4-Diazoniabicyclo[2.2.2]octane, 1-(chloromethyl)-4-fluoro-, tetrafluoroborate(1-) (1:2);1,4-Diazoniabicyclo[2.2.2]octane, 1-(chloromethyl)-4-fluoro-, bis[tetrafluoroborate(1-)];1,4-Diazabicyclo[2.2.2]octane, 1,4-diazoniabicyclo[2.2.2]octane deriv.;1-Chloromethyl-4-fluoro-1,4-diazoniabicyclo[2.2.2]octane bis(tetrafluoroborate);Selectfluor;1-Chloromethyl-4-fluoro-1,4-diazobicyclo[2.2.2]octane bis(tetrafluoroborate);1-(Chloromethyl)-4-fluoro-1,4-diazoniabicyclo[2.2.2]octane ditetrafluoroborate;<em>N</em>-Fluoro-<em>N</em>′-chloromethyltriethylenediamine bis(tetrafluoroborate);1-(Chloromethyl)-4-fluoro-1,4-diazabicyclo[2.2.2]octane-1,4-diium tetrafluoroborate",
    "duplicated_cas_no": "",
    "SMILES": "C(Cl)[N+]12CC[N+](F)(CC1)CC2.[B+3]([F-])([F-])([F-])[F-]",
    "meta_data": {
        "InChI": "InChI=1S/C7H14ClFN2.BF4/c8-7-10-1-4-11(9,5-2-10)6-3-10;2-1(3,4)5/h1-7H2;/q+2;-1",
        "InChIKey": null,
        "Canonical SMILES": "F[N+]12CC[N+](CCl)(CC1)CC2.[F-][B+3]([F-])([F-])[F-]",
        "Molecular Formula": "C<sub>7</sub>H<sub>14</sub>ClFN<sub>2</sub>.2BF<sub>4</sub>",
        "Molecular Mass": "",
        "Melting Point": "170 °C"
    }
}