{
    "cas_no": "2140-77-4",
    "key_name": "<em>N</em><sup>2</sup>-Methylguanosine",
    "cn_name": "2-甲?苷;2-甲?苷;",
    "alternate_name": "Guanosine, <em>N</em>-methyl-;<em>N</em>-Methylguanosine;<em>N</em><sup>2</sup>-Methylguanosine;2-Methylguanosine;<em>N</em><sup>2</sup>-Methylguanine riboside",
    "duplicated_cas_no": "26723-31-9",
    "SMILES": "O[C@H]1[C@H](N2C3=C(N=C2)C(=O)N=C(NC)N3)O[C@H](CO)[C@H]1O",
    "meta_data": {
        "InChI": "InChI=1S/C11H15N5O5/c1-12-11-14-8-5(9(20)15-11)13-3-16(8)10-7(19)6(18)4(2-17)21-10/h3-4,6-7,10,17-19H,2H2,1H3,(H2,12,14,15,20)/t4-,6-,7-,10-/m1/s1",
        "InChIKey": null,
        "Canonical SMILES": "O=C1N=C(NC2=C1N=CN2C3OC(CO)C(O)C3O)NC",
        "Molecular Formula": "C<sub>11</sub>H<sub>15</sub>N<sub>5</sub>O<sub>5</sub>",
        "Molecular Mass": "297.27",
        "Melting Point": "233 °C (decomp)"
    }
}