{
    "cas_no": "127464-43-1",
    "key_name": "Mexidol",
    "cn_name": null,
    "alternate_name": "Butanedioic acid, compd. with 2-ethyl-6-methyl-3-pyridinol (1:1);3-Pyridinol, 2-ethyl-6-methyl-, butanedioate (1:1) (salt);Mexidol;Mexicor;Emicidine;Emicidin;Mexiprim;2-Ethyl-6-methyl-3-hydroxypyridine succinate;2-Ethyl-6-methyl-3-Pyridinol butanedioate",
    "duplicated_cas_no": "128228-60-4;137963-73-6;803686-22-8;1015239-29-8",
    "SMILES": "C(C)C1=C(O)C=CC(C)=N1.C(CC(O)=O)C(O)=O",
    "meta_data": {
        "InChI": "InChI=1S/C8H11NO.C4H6O4/c1-3-7-8(10)5-4-6(2)9-7;5-3(6)1-2-4(7)8/h4-5,10H,3H2,1-2H3;1-2H2,(H,5,6)(H,7,8)",
        "InChIKey": null,
        "Canonical SMILES": "O=C(O)CCC(=O)O.OC1=CC=C(N=C1CC)C",
        "Molecular Formula": "C<sub>8</sub>H<sub>11</sub>NO.C<sub>4</sub>H<sub>6</sub>O<sub>4</sub>",
        "Molecular Mass": "",
        "Melting Point": "119-120 °C"
    }
}