{
    "cas_no": "2404-87-7",
    "key_name": "3-Phenylthiophene",
    "cn_name": "3-苯基噻吩;",
    "alternate_name": "Thiophene, 3-phenyl-;3-Phenylthiophene;NSC 229334",
    "duplicated_cas_no": "",
    "SMILES": "C=1(C=CSC1)C2=CC=CC=C2",
    "meta_data": {
        "InChI": "InChI=1S/C10H8S/c1-2-4-9(5-3-1)10-6-7-11-8-10/h1-8H",
        "InChIKey": null,
        "Canonical SMILES": "S1C=CC(=C1)C2=CC=CC=C2",
        "Molecular Formula": "C<sub>10</sub>H<sub>8</sub>S",
        "Molecular Mass": "160.24",
        "Boiling Point": "115-126 °C @ Press: 2 Torr",
        "Melting Point": "91-92 °C"
    }
}