{
    "cas_no": "38401-71-7",
    "key_name": "5-(4-Chlorophenyl)-2-thiophenecarboxaldehyde",
    "cn_name": "5-(4-氯苯基)噻吩-2-甲醛;",
    "alternate_name": "2-Thiophenecarboxaldehyde, 5-(4-chlorophenyl)-;5-(4-Chlorophenyl)-2-thiophenecarboxaldehyde;5-(<em>p</em>-Chlorophenyl)-2-thiophenecarboxaldehyde",
    "duplicated_cas_no": "",
    "SMILES": "C(=O)C=1SC(=CC1)C2=CC=C(Cl)C=C2",
    "meta_data": {
        "InChI": "InChI=1S/C11H7ClOS/c12-9-3-1-8(2-4-9)11-6-5-10(7-13)14-11/h1-7H",
        "InChIKey": null,
        "Canonical SMILES": "O=CC=1SC(=CC1)C=2C=CC(Cl)=CC2",
        "Molecular Formula": "C<sub>11</sub>H<sub>7</sub>ClOS",
        "Molecular Mass": "222.69",
        "Melting Point": "88-89 °C"
    }
}