{
    "cas_no": "19095-24-0",
    "key_name": "1,1,3,3,5,5,7,7,9,9,11,11,13,13,15,15-Hexadecamethyloctasiloxane",
    "cn_name": null,
    "alternate_name": "Octasiloxane, 1,1,3,3,5,5,7,7,9,9,11,11,13,13,15,15-hexadecamethyl-;1,1,3,3,5,5,7,7,9,9,11,11,13,13,15,15-Hexadecamethyloctasiloxane;1,15-Dihydrohexadecamethyloctasiloxane;1,15-Dihydrogenhexadecamethyloctasiloxane",
    "duplicated_cas_no": "",
    "SMILES": "[Si](O[Si](O[Si](O[Si](O[SiH](C)C)(C)C)(C)C)(C)C)(O[Si](O[Si](O[SiH](C)C)(C)C)(C)C)(C)C",
    "meta_data": {
        "InChI": "InChI=1S/C16H50O7Si8/c1-24(2)17-26(5,6)19-28(9,10)21-30(13,14)23-31(15,16)22-29(11,12)20-27(7,8)18-25(3)4/h24-25H,1-16H3",
        "InChIKey": null,
        "Canonical SMILES": "O([SiH](C)C)[Si](O[Si](O[Si](O[Si](O[Si](O[Si](O[SiH](C)C)(C)C)(C)C)(C)C)(C)C)(C)C)(C)C",
        "Molecular Formula": "C<sub>16</sub>H<sub>50</sub>O<sub>7</sub>Si<sub>8</sub>",
        "Molecular Mass": "579.25",
        "Boiling Point": "105 °C @ Press: 0.3 Torr"
    }
}