{
    "cas_no": "129145-51-3",
    "key_name": "Gancaonin M",
    "cn_name": null,
    "alternate_name": "4<em>H</em>-1-Benzopyran-4-one, 5,7-dihydroxy-3-(4-methoxyphenyl)-8-(3-methyl-2-buten-1-yl)-;4<em>H</em>-1-Benzopyran-4-one, 5,7-dihydroxy-3-(4-methoxyphenyl)-8-(3-methyl-2-butenyl)-;5,7-Dihydroxy-3-(4-methoxyphenyl)-8-(3-methyl-2-buten-1-yl)-4<em>H</em>-1-benzopyran-4-one;Gancaonin M",
    "duplicated_cas_no": "",
    "SMILES": "C(C=C(C)C)C1=C2C(C(=O)C(=CO2)C3=CC=C(OC)C=C3)=C(O)C=C1O",
    "meta_data": {
        "InChI": "InChI=1S/C21H20O5/c1-12(2)4-9-15-17(22)10-18(23)19-20(24)16(11-26-21(15)19)13-5-7-14(25-3)8-6-13/h4-8,10-11,22-23H,9H2,1-3H3",
        "InChIKey": null,
        "Canonical SMILES": "O=C1C(=COC=2C1=C(O)C=C(O)C2CC=C(C)C)C=3C=CC(OC)=CC3",
        "Molecular Formula": "C<sub>21</sub>H<sub>20</sub>O<sub>5</sub>",
        "Molecular Mass": "352.38",
        "Melting Point": "139-141 °C"
    }
}