{
    "cas_no": "94-67-7",
    "key_name": "Salicylaldoxime",
    "cn_name": "水杨醛肟;",
    "alternate_name": "Benzaldehyde, 2-hydroxy-, oxime;Salicylaldehyde, oxime;<em>o</em>-Hydroxybenzaldehyde oxime;Salicylaldoxime;<em>o</em>-Hydroxybenzaldoxime;Saldox;2-Hydroxybenzaldehyde oxime;2-Hydroxybenzaldoxime;Salicylaldehydoxime;(2-Hydroxyphenylmethylene)azanol;Salox;NSC 5057;2-Formylphenol oxime",
    "duplicated_cas_no": "",
    "SMILES": "C(=NO)C1=C(O)C=CC=C1",
    "meta_data": {
        "InChI": "InChI=1S/C7H7NO2/c9-7-4-2-1-3-6(7)5-8-10/h1-5,9-10H",
        "InChIKey": null,
        "Canonical SMILES": "ON=CC=1C=CC=CC1O",
        "Molecular Formula": "C<sub>7</sub>H<sub>7</sub>NO<sub>2</sub>",
        "Molecular Mass": "137.14",
        "Boiling Point": "90-92 °C @ Press: 15 Torr",
        "Melting Point": "57 °C"
    }
}