{
    "cas_no": "465-39-4",
    "key_name": "Resibufogenin",
    "cn_name": "蟾力苏;布福吉宁;酯蟾毒配基;",
    "alternate_name": "Bufa-20,22-dienolide, 14,15-epoxy-3-hydroxy-, (3β,5β,15β)-;5β-Bufa-20,22-dienolide, 14,15β-epoxy-3β-hydroxy-;(3β,5β,15β)-14,15-Epoxy-3-hydroxybufa-20,22-dienolide;Bufogenin;14,15β-Epoxy-3β-hydroxy-5β-bufa-20,22-dienolide;3β-Hydroxy-14,15β-epoxy-5β-bufa-20,22-dienolide;Resibufogenin;Respigon;Resi;Recibufogenin;NSC 90783;Resinobufagin",
    "duplicated_cas_no": "",
    "SMILES": "C[C@]12[C@]3([C@](O3)(C[C@@H]1C=4C=CC(=O)OC4)[H])[C@]5([C@](CC2)([C@]6(C)[C@](CC5)(C[C@@H](O)CC6)[H])[H])[H]",
    "meta_data": {
        "InChI": "InChI=1S/C24H32O4/c1-22-9-7-16(25)11-15(22)4-5-18-17(22)8-10-23(2)19(12-20-24(18,23)28-20)14-3-6-21(26)27-13-14/h3,6,13,15-20,25H,4-5,7-12H2,1-2H3/t15-,16+,17+,18-,19-,20-,22+,23-,24-/m1/s1",
        "InChIKey": null,
        "Canonical SMILES": "O=C1OC=C(C=C1)C2CC3OC34C5CCC6CC(O)CCC6(C)C5CCC24C",
        "Molecular Formula": "C<sub>24</sub>H<sub>32</sub>O<sub>4</sub>",
        "Molecular Mass": "384.51",
        "Melting Point": "155 °C"
    }
}