{
    "cas_no": "87051-43-2",
    "key_name": "Ritanserin",
    "cn_name": null,
    "alternate_name": "5<em>H</em>-Thiazolo[3,2-<em>a</em>]pyrimidin-5-one, 6-[2-[4-[bis(4-fluorophenyl)methylene]-1-piperidinyl]ethyl]-7-methyl-;6-[2-[4-[Bis(4-fluorophenyl)methylene]-1-piperidinyl]ethyl]-7-methyl-5<em>H</em>-thiazolo[3,2-<em>a</em>]pyrimidin-5-one;Ritanserin;Tiserton;ZINC 00538314;MeSH ID: D016713",
    "duplicated_cas_no": "",
    "SMILES": "C(=C1CCN(CCC=2C(=O)N3C(=NC2C)SC=C3)CC1)(C4=CC=C(F)C=C4)C5=CC=C(F)C=C5",
    "meta_data": {
        "InChI": "InChI=1S/C27H25F2N3OS/c1-18-24(26(33)32-16-17-34-27(32)30-18)12-15-31-13-10-21(11-14-31)25(19-2-6-22(28)7-3-19)20-4-8-23(29)9-5-20/h2-9,16-17H,10-15H2,1H3",
        "InChIKey": null,
        "Canonical SMILES": "O=C1C(=C(N=C2SC=CN21)C)CCN3CCC(=C(C4=CC=C(F)C=C4)C5=CC=C(F)C=C5)CC3",
        "Molecular Formula": "C<sub>27</sub>H<sub>25</sub>F<sub>2</sub>N<sub>3</sub>OS",
        "Molecular Mass": "477.57",
        "Melting Point": "145.5 °C"
    }
}