{
    "cas_no": "2045-70-7",
    "key_name": "3,5-Dinitro-2-thiophenamine",
    "cn_name": "3,5-二硝基-2-氨基噻吩;",
    "alternate_name": "2-Thiophenamine, 3,5-dinitro-;3,5-Dinitro-2-thiophenamine;2-Amino-3,5-dinitrothiophene",
    "duplicated_cas_no": "",
    "SMILES": "N(=O)(=O)C1=CC(N(=O)=O)=C(N)S1",
    "meta_data": {
        "InChI": "InChI=1S/C4H3N3O4S/c5-4-2(6(8)9)1-3(12-4)7(10)11/h1H,5H2",
        "InChIKey": null,
        "Canonical SMILES": "O=N(=O)C=1SC(N)=C(C1)N(=O)=O",
        "Molecular Formula": "C<sub>4</sub>H<sub>3</sub>N<sub>3</sub>O<sub>4</sub>S",
        "Molecular Mass": "189.15",
        "Melting Point": "178.9-180.8 °C"
    }
}