{
    "cas_no": "97-88-1",
    "key_name": "Butyl methacrylate",
    "cn_name": "甲基丙烯酸丁酯;甲基丙烯酸正丁酯;",
    "alternate_name": "2-Propenoic acid, 2-methyl-, butyl ester;Methacrylic acid, butyl ester;Butyl methacrylate;<em>n</em>-Butyl methacrylate;Butyl 2-methyl-2-propenoate;Acryester B;Blemmer BMA;Butyl 2-methylacrylate;NSC 20956;2-Methyl-2-propenoic acid butyl ester;N 212;Light Ester NB;Acryester BMA;Visiomer n-BMA;2-Methyl-acrylic acid butyl ester",
    "duplicated_cas_no": "55922-77-5;159172-35-7;1151915-97-7;1310566-97-2;1343477-79-1",
    "SMILES": "C(OCCCC)(C(C)=C)=O",
    "meta_data": {
        "InChI": "InChI=1S/C8H14O2/c1-4-5-6-10-8(9)7(2)3/h2,4-6H2,1,3H3",
        "InChIKey": null,
        "Canonical SMILES": "O=C(OCCCC)C(=C)C",
        "Molecular Formula": "C<sub>8</sub>H<sub>14</sub>O<sub>2</sub>",
        "Molecular Mass": "142.20",
        "Boiling Point": "160 °C @ Press: 760 Torr",
        "Melting Point": "-25 °C",
        "Density": "0.8936 g/cm³ @ Temp: 20 °C"
    }
}