{
    "cas_no": "10236-16-5",
    "key_name": "Phytol, acetate",
    "cn_name": "植醋酸;R,R,R,(E)3,7,11,15-四甲基-2-十六烯-1-醇乙酸酯;Acetic Acid 3,7,11,15-Tetramethyl-2-hexadecenyl;",
    "alternate_name": "2-Hexadecen-1-ol, 3,7,11,15-tetramethyl-, 1-acetate, (2<em>E</em>,7<em>R</em>,11<em>R</em>)-;2-Hexadecen-1-ol, 3,7,11,15-tetramethyl-, acetate, [<em>R</em>-[<em>R</em>*,<em>R</em>*-(<em>E</em>)]]-;2-Hexadecen-1-ol, 3,7,11,15-tetramethyl-, acetate, (2<em>E</em>,7<em>R</em>,11<em>R</em>)-;Phytol, acetate;Phytol acetate;(7<em>R</em>,11<em>R</em>)-<em>trans</em>-Phytol acetate;Phytyl acetate;<em>trans</em>-Phytyl acetate;(<em>E</em>,<em>R</em>,<em>R</em>)-Phytyl acetate",
    "duplicated_cas_no": "5016-86-4",
    "SMILES": "[C@@H](CCC[C@@H](CCCC(C)C)C)(CCC/C(=C/COC(C)=O)/C)C",
    "meta_data": {
        "InChI": "InChI=1S/C22H42O2/c1-18(2)10-7-11-19(3)12-8-13-20(4)14-9-15-21(5)16-17-24-22(6)23/h16,18-20H,7-15,17H2,1-6H3/b21-16+/t19-,20-/m1/s1",
        "InChIKey": null,
        "Canonical SMILES": "O=C(OCC=C(C)CCCC(C)CCCC(C)CCCC(C)C)C",
        "Molecular Formula": "C<sub>22</sub>H<sub>42</sub>O<sub>2</sub>",
        "Molecular Mass": "338.57",
        "Boiling Point": "130 °C @ Press: 0.01 Torr",
        "Density": "0.8700 g/cm³ @ Temp: 22 °C"
    }
}