{
    "cas_no": "108934-21-0",
    "key_name": "2′-Methyl[1,1′-biphenyl]-4-carboxaldehyde",
    "cn_name": null,
    "alternate_name": "[1,1′-Biphenyl]-4-carboxaldehyde, 2′-methyl-;2′-Methyl[1,1′-biphenyl]-4-carboxaldehyde;2′-Methyl-1,1′-biphenyl-4-carboxaldehyde;4-Formyl-2′-methylbiphenyl;2′-Methyl-4-biphenylcarboxaldehyde;2′-Methylbiphenyl-4-carbaldehyde;2′-Methyl-[1,1′-biphenyl]-4-carbaldehyde",
    "duplicated_cas_no": "",
    "SMILES": "CC1=C(C=CC=C1)C2=CC=C(C=O)C=C2",
    "meta_data": {
        "InChI": "InChI=1S/C14H12O/c1-11-4-2-3-5-14(11)13-8-6-12(10-15)7-9-13/h2-10H,1H3",
        "InChIKey": null,
        "Canonical SMILES": "O=CC1=CC=C(C=C1)C=2C=CC=CC2C",
        "Molecular Formula": "C<sub>14</sub>H<sub>12</sub>O",
        "Molecular Mass": "196.24",
        "Melting Point": "47-49 °C"
    }
}