{
    "cas_no": "1119-48-8",
    "key_name": "4-(Methylamino)butyric acid",
    "cn_name": null,
    "alternate_name": "Butanoic acid, 4-(methylamino)-;Butyric acid, 4-(methylamino)-;4-(Methylamino)butanoic acid;<em>N</em>-Methyl-4-aminobutyric acid;<em>N</em>-Methyl-γ-aminobutyric acid;<em>N</em>-Methyl-GABA;4-(Methylamino)butyric acid;4-(<em>N</em>-Methylamino)butanoic acid;<em>N</em>-Methyl-4-aminobutanoic acid",
    "duplicated_cas_no": "",
    "SMILES": "C(CCNC)C(O)=O",
    "meta_data": {
        "InChI": "InChI=1S/C5H11NO2/c1-6-4-2-3-5(7)8/h6H,2-4H2,1H3,(H,7,8)",
        "InChIKey": null,
        "Canonical SMILES": "O=C(O)CCCNC",
        "Molecular Formula": "C<sub>5</sub>H<sub>11</sub>NO<sub>2</sub>",
        "Molecular Mass": "117.15",
        "Melting Point": "143-145 °C"
    }
}