{
    "cas_no": "142-92-7",
    "key_name": "Hexyl acetate",
    "cn_name": "乙酸己酯;",
    "alternate_name": "Acetic acid, hexyl ester;Hexyl alcohol, acetate;Hexyl acetate;Hexyl ethanoate;<em>n</em>-Hexyl acetate;1-Hexyl acetate;Exceed 600;NSC 7323;<em>n</em>-Hexyl ethanoate;Hexyl ester acetic acid;ZED-N 60",
    "duplicated_cas_no": "",
    "SMILES": "C(CCCCC)OC(C)=O",
    "meta_data": {
        "InChI": "InChI=1S/C8H16O2/c1-3-4-5-6-7-10-8(2)9/h3-7H2,1-2H3",
        "InChIKey": null,
        "Canonical SMILES": "O=C(OCCCCCC)C",
        "Molecular Formula": "C<sub>8</sub>H<sub>16</sub>O<sub>2</sub>",
        "Molecular Mass": "144.21",
        "Boiling Point": "171.5 °C @ Press: 760 Torr",
        "Melting Point": "-80.9 °C",
        "Density": "0.8779 g/cm³ @ Temp: 15 °C"
    }
}