{
    "cas_no": "472-66-2",
    "key_name": "β-Apo-8-carotenal",
    "cn_name": "2,6,6-三甲基-1-环己烯基乙醛;",
    "alternate_name": "1-Cyclohexene-1-acetaldehyde, 2,6,6-trimethyl-;2,6,6-Trimethyl-1-cyclohexene-1-acetaldehyde;β-Apo-8-carotenal;β-Cyclohomocitral;β-Homocyclocitral;(2,6,6-Trimethyl-1-cyclohexenyl)acetaldehyde;2-(2,6,6-Trimethylcyclohex-1-enyl)acetaldehyde;2,6,6-Trimethyl-1-cycloethenylacetaldehyde;2-(2,6,6-Trimethylcyclohex-1-en-1-yl)acetaldehyde",
    "duplicated_cas_no": "",
    "SMILES": "C(C=O)C=1C(C)(C)CCCC1C",
    "meta_data": {
        "InChI": "InChI=1S/C11H18O/c1-9-5-4-7-11(2,3)10(9)6-8-12/h8H,4-7H2,1-3H3",
        "InChIKey": null,
        "Canonical SMILES": "O=CCC1=C(C)CCCC1(C)C",
        "Molecular Formula": "C<sub>11</sub>H<sub>18</sub>O",
        "Molecular Mass": "166.26",
        "Boiling Point": "101 °C @ Press: 11 Torr"
    }
}