{
    "cas_no": "2114-33-2",
    "key_name": "Benzeneethanol, α-methyl-, 1-acetate",
    "cn_name": "1-甲基-2-苯乙基乙酸;",
    "alternate_name": "Benzeneethanol, α-methyl-, 1-acetate;Phenethyl alcohol, α-methyl-, acetate;Benzeneethanol, α-methyl-, acetate;2-Acetoxy-1-phenylpropane;1-Phenyl-2-propanol acetate;(2-Acetoxypropyl)benzene;NSC 30160;1-Benzylethyl acetate;1-Phenyl-2-propyl acetate;1-Phenylpropan-2-yl acetate",
    "duplicated_cas_no": "115630-98-3",
    "SMILES": "C(C(OC(C)=O)C)C1=CC=CC=C1",
    "meta_data": {
        "InChI": "InChI=1S/C11H14O2/c1-9(13-10(2)12)8-11-6-4-3-5-7-11/h3-7,9H,8H2,1-2H3",
        "InChIKey": null,
        "Canonical SMILES": "O=C(OC(C)CC=1C=CC=CC1)C",
        "Molecular Formula": "C<sub>11</sub>H<sub>14</sub>O<sub>2</sub>",
        "Molecular Mass": "178.23",
        "Boiling Point": "107-108 °C @ Press: 13 Torr",
        "Density": "1.0081 g/cm³ @ Temp: 20 °C"
    }
}