{
    "cas_no": "55726-47-1",
    "key_name": "Enocitabine",
    "cn_name": null,
    "alternate_name": "Docosanamide, <em>N</em>-(1-β-<span class=\"text-smallcaps\">D</span>-arabinofuranosyl-1,2-dihydro-2-oxo-4-pyrimidinyl)-;<em>N</em>-(1-β-<span class=\"text-smallcaps\">D</span>-Arabinofuranosyl-1,2-dihydro-2-oxo-4-pyrimidinyl)docosanamide;<em>N</em><sup>4</sup>-Behenoyl-1-β-<span class=\"text-smallcaps\">D</span>-arabinofuranosylcytosine;Behenoylcytosine arabinoside;<em>N</em><sup>4</sup>-Behenoylcytosine arabinoside;NSC 239336;Sunrabin;Enocitabine;BH-AC;N4-Behenoyl-Ara-C",
    "duplicated_cas_no": "93974-11-9",
    "SMILES": "O[C@@H]1[C@@H](O[C@H](CO)[C@H]1O)N2C(=O)N=C(NC(CCCCCCCCCCCCCCCCCCCCC)=O)C=C2",
    "meta_data": {
        "InChI": "InChI=1S/C31H55N3O6/c1-2-3-4-5-6-7-8-9-10-11-12-13-14-15-16-17-18-19-20-21-27(36)32-26-22-23-34(31(39)33-26)30-29(38)28(37)25(24-35)40-30/h22-23,25,28-30,35,37-38H,2-21,24H2,1H3,(H,32,33,36,39)/t25-,28-,29+,30-/m1/s1",
        "InChIKey": null,
        "Canonical SMILES": "O=C1N=C(C=CN1C2OC(CO)C(O)C2O)NC(=O)CCCCCCCCCCCCCCCCCCCCC",
        "Molecular Formula": "C<sub>31</sub>H<sub>55</sub>N<sub>3</sub>O<sub>6</sub>",
        "Molecular Mass": "565.78",
        "Melting Point": "141-142 °C"
    }
}