{
    "cas_no": "1127-35-1",
    "key_name": "3-Oxo-2,3-dihydrobenzo[<em>b</em>]thiophene 1,1-dioxide",
    "cn_name": "1,1-二氧苯并噻吩-3(2H)-酮;",
    "alternate_name": "Benzo[<em>b</em>]thiophen-3(2<em>H</em>)-one, 1,1-dioxide;3-Oxo-2,3-dihydrobenzo[<em>b</em>]thiophene 1,1-dioxide;NSC 403326;1,1-Dioxo-1-benzothiophen-3-one;2,3-Dihydro-1λ6-benzothiophene-1,1,3-trione;1-Benzothiophen-3(2<em>H</em>)-one 1,1-dioxide",
    "duplicated_cas_no": "",
    "SMILES": "O=S1(=O)C=2C(C(=O)C1)=CC=CC2",
    "meta_data": {
        "InChI": "InChI=1S/C8H6O3S/c9-7-5-12(10,11)8-4-2-1-3-6(7)8/h1-4H,5H2",
        "InChIKey": null,
        "Canonical SMILES": "O=C1C=2C=CC=CC2S(=O)(=O)C1",
        "Molecular Formula": "C<sub>8</sub>H<sub>6</sub>O<sub>3</sub>S",
        "Molecular Mass": "182.20",
        "Melting Point": "134-135 °C"
    }
}