{
    "cas_no": "3964-54-3",
    "key_name": "3′-Chloro-4′-hydroxyacetanilide",
    "cn_name": "N-(3-氯-4-羟苯基)乙酰苯胺;",
    "alternate_name": "Acetamide, <em>N</em>-(3-chloro-4-hydroxyphenyl)-;Acetanilide, 3′-chloro-4′-hydroxy-;<em>N</em>-(3-Chloro-4-hydroxyphenyl)acetamide;4-Acetylamino-2-chlorophenol;2-Chloro-4-acetamidophenol;2-Chloro-4-acetylaminophenol;3′-Chloro-4′-hydroxyacetanilide;4-Acetamido-2-chlorophenol",
    "duplicated_cas_no": "",
    "SMILES": "N(C(C)=O)C1=CC(Cl)=C(O)C=C1",
    "meta_data": {
        "InChI": "InChI=1S/C8H8ClNO2/c1-5(11)10-6-2-3-8(12)7(9)4-6/h2-4,12H,1H3,(H,10,11)",
        "InChIKey": null,
        "Canonical SMILES": "O=C(NC1=CC=C(O)C(Cl)=C1)C",
        "Molecular Formula": "C<sub>8</sub>H<sub>8</sub>ClNO<sub>2</sub>",
        "Molecular Mass": "185.61",
        "Melting Point": "144 °C"
    }
}