{
    "cas_no": "865-47-4",
    "key_name": "Potassium <em>tert</em>-butoxide",
    "cn_name": "叔丁醇钾;",
    "alternate_name": "2-Propanol, 2-methyl-, potassium salt (1:1);<em>tert</em>-Butyl alcohol, potassium salt;2-Propanol, 2-methyl-, potassium salt;Potassium <em>tert</em>-butoxide;Potassium <em>tert</em>-butylate;Potassium <em>t</em>-butoxide;Potassium 1,1-dimethylethoxide;<em>tert</em>-Butoxypotassium;2-Methyl-2-propanol potassium salt;<em>tert</em>-Butanol potassium salt;Potassium <em>tert</em>-butanolate;Potassium 2-methylpropan-2-olate;Potassium tert-butanol",
    "duplicated_cas_no": "102528-14-3;2165340-20-3",
    "SMILES": "C(C)(C)(C)O.[K]",
    "meta_data": {
        "InChI": "InChI=1S/C4H10O.K/c1-4(2,3)5;/h5H,1-3H3;",
        "InChIKey": null,
        "Canonical SMILES": "[K].OC(C)(C)C",
        "Molecular Formula": "C<sub>4</sub>H<sub>10</sub>O.K",
        "Molecular Mass": "",
        "Melting Point": "220 °C"
    }
}