{
    "cas_no": "1135-99-5",
    "key_name": "Diphenyltin dichloride",
    "cn_name": "二苯基二氯化锡;",
    "alternate_name": "Stannane, dichlorodiphenyl-;Diphenyltin dichloride;Dichlorodiphenylstannane;Dichlorodiphenyltin;Diphenylstannyl dichloride;Diphenyldichlorotin;Diphenyltin chloride;Dichlorobis(phenyl)tin;NSC 405640",
    "duplicated_cas_no": "",
    "SMILES": "[Sn](Cl)(Cl)(C1=CC=CC=C1)C2=CC=CC=C2",
    "meta_data": {
        "InChI": "InChI=1S/2C6H5.2ClH.Sn/c2*1-2-4-6-5-3-1;;;/h2*1-5H;2*1H;/q;;;;+2/p-2",
        "InChIKey": null,
        "Canonical SMILES": "Cl[Sn](Cl)(C=1C=CC=CC1)C=2C=CC=CC2",
        "Molecular Formula": "C<sub>12</sub>H<sub>10</sub>Cl<sub>2</sub>Sn",
        "Molecular Mass": "343.82",
        "Boiling Point": "335 °C",
        "Melting Point": "42 °C"
    }
}