{
    "cas_no": "308831-61-0",
    "key_name": "<em>N</em>-[4-[1-[(2,6-Difluorophenyl)methyl]-1,2,3,4-tetrahydro-5-[[methyl(phenylmethyl)amino]methyl]-2,4-dioxo-3-phenylthieno[2,3-<em>d</em>]pyrimidin-6-yl]phenyl]-<em>N</em>′-methoxyurea",
    "cn_name": null,
    "alternate_name": "Urea, <em>N</em>-[4-[1-[(2,6-difluorophenyl)methyl]-1,2,3,4-tetrahydro-5-[[methyl(phenylmethyl)amino]methyl]-2,4-dioxo-3-phenylthieno[2,3-<em>d</em>]pyrimidin-6-yl]phenyl]-<em>N</em>′-methoxy-;<em>N</em>-[4-[1-[(2,6-Difluorophenyl)methyl]-1,2,3,4-tetrahydro-5-[[methyl(phenylmethyl)amino]methyl]-2,4-dioxo-3-phenylthieno[2,3-<em>d</em>]pyrimidin-6-yl]phenyl]-<em>N</em>′-methoxyurea;5-(<em>N</em>-Benzyl-<em>N</em>-methylaminomethyl)-1-(2,6-difluorobenzyl)-6-[4-(3-methoxyureido)phenyl]-3-phenylthieno[2,3-<em>d</em>]pyrimidine-2,4(1<em>H</em>,3<em>H</em>)dione;TAK 013;Sufugolix",
    "duplicated_cas_no": "388563-81-3",
    "SMILES": "C(N1C2=C(C(CN(CC3=CC=CC=C3)C)=C(S2)C4=CC=C(NC(NOC)=O)C=C4)C(=O)N(C1=O)C5=CC=CC=C5)C6=C(F)C=CC=C6F",
    "meta_data": {
        "InChI": "InChI=1S/C36H31F2N5O4S/c1-41(20-23-10-5-3-6-11-23)21-28-31-33(44)43(26-12-7-4-8-13-26)36(46)42(22-27-29(37)14-9-15-30(27)38)34(31)48-32(28)24-16-18-25(19-17-24)39-35(45)40-47-2/h3-19H,20-22H2,1-2H3,(H2,39,40,45)",
        "InChIKey": null,
        "Canonical SMILES": "O=C(NOC)NC=1C=CC(=CC1)C=2SC3=C(C(=O)N(C=4C=CC=CC4)C(=O)N3CC=5C(F)=CC=CC5F)C2CN(C)CC=6C=CC=CC6",
        "Molecular Formula": "C<sub>36</sub>H<sub>31</sub>F<sub>2</sub>N<sub>5</sub>O<sub>4</sub>S",
        "Molecular Mass": "667.72",
        "Melting Point": "182-185 °C"
    }
}