{
    "cas_no": "928-95-0",
    "key_name": "<em>trans</em>-2-Hexen-1-ol",
    "cn_name": "反式-2-己烯-1-醇;(E)-2-己烯-1-醇;",
    "alternate_name": "2-Hexen-1-ol, (2<em>E</em>)-;2-Hexen-1-ol, (<em>E</em>)-;2-Hexen-1-ol, <em>trans</em>-;(2<em>E</em>)-2-Hexen-1-ol;<em>trans</em>-2-Hexenol;<em>trans</em>-4-Ethyl-2-buten-1-ol;<em>n</em>-Hex-<em>trans</em>-2-en-1-ol;<em>trans</em>-2-Hexen-1-ol;(<em>E</em>)-2-Hexen-1-ol;(<em>E</em>)-2-Hexene-1-ol;1-Hydroxy-2-<em>trans</em>-hexene;(<em>E</em>)-2-Hexenol;<em>trans</em>-2-Hexene-1-ol;(<em>E</em>)-Hex-2-en-1-ol",
    "duplicated_cas_no": "",
    "SMILES": "C(\\CCC)=C/CO",
    "meta_data": {
        "InChI": "InChI=1S/C6H12O/c1-2-3-4-5-6-7/h4-5,7H,2-3,6H2,1H3/b5-4+",
        "InChIKey": null,
        "Canonical SMILES": "OCC=CCCC",
        "Molecular Formula": "C<sub>6</sub>H<sub>12</sub>O",
        "Molecular Mass": "100.16",
        "Boiling Point": "157 °C",
        "Melting Point": "155-156 °C",
        "Density": "0.8490 g/cm³ @ Temp: 16 °C"
    }
}