{
    "cas_no": "23360-92-1",
    "key_name": "Leurosine",
    "cn_name": null,
    "alternate_name": "Vincaleukoblastine, 4′-deoxy-3′,4′-epoxy-, (3′α,4′α)-;Leurosine;1<em>H</em>-Indolizino[8,1-<em>cd</em>]carbazole, vincaleukoblastine deriv.;2<em>H</em>-3,13-Methanooxireno[9,10]azacycloundecino[5,4-<em>b</em>]indole, vincaleukoblastine deriv.;(3′α,4′α)-4′-Deoxy-3′,4′-epoxyvincaleukoblastine;Vinleurosine;NSC 528004",
    "duplicated_cas_no": "1358-98-1;1362-18-1;11032-39-6;27776-07-4;53716-28-2",
    "SMILES": "C(C)[C@@]12[C@]3([C@@]4([C@]([C@](C(OC)=O)(O)[C@@H]1OC(C)=O)(N(C)C=5C4=CC(=C(OC)C5)[C@]6(C(OC)=O)C7=C(C=8C(N7)=CC=CC8)CC[N@@]9C[C@](C6)([C@@]%10([C@@](CC)(O%10)C9)[H])[H])[H])CCN3CC=C2)[H]",
    "meta_data": {
        "InChI": "InChI=1S/C46H56N4O9/c1-8-42-16-12-18-50-20-17-44(37(42)50)30-21-31(34(55-5)22-33(30)48(4)38(44)46(54,41(53)57-7)39(42)58-26(3)51)45(40(52)56-6)23-27-24-49(25-43(9-2)36(27)59-43)19-15-29-28-13-10-11-14-32(28)47-35(29)45/h10-14,16,21-22,27,36-39,47,54H,8-9,15,17-20,23-25H2,1-7H3/t27-,36+,37-,38+,39+,42+,43-,44+,45-,46-/m0/s1",
        "InChIKey": null,
        "Canonical SMILES": "O=C(OC1C(O)(C(=O)OC)C2N(C3=CC(OC)=C(C=C3C42CCN5CC=CC1(CC)C54)C6(C(=O)OC)C=7NC=8C=CC=CC8C7CCN9CC(C6)C%10OC%10(C9)CC)C)C",
        "Molecular Formula": "C<sub>46</sub>H<sub>56</sub>N<sub>4</sub>O<sub>9</sub>",
        "Molecular Mass": "808.96",
        "Melting Point": "202-205 °C (decomp)"
    }
}