{
    "cas_no": "1134-47-0",
    "key_name": "Baclofen",
    "cn_name": "巴氯芬;4-氨基-3-(4-氯苯基)-丁酸;",
    "alternate_name": "Benzenepropanoic acid, β-(aminomethyl)-4-chloro-;Hydrocinnamic acid, β-(aminomethyl)-<em>p</em>-chloro-;β-(Aminomethyl)-4-chlorobenzenepropanoic acid;β-(Aminomethyl)-<em>p</em>-chlorohydrocinnamic acid;β-(4-Chlorophenyl)-γ-aminobutyric acid;Baclofen;Lioresal;Ba 34647;β-(<em>p</em>-Chlorophenyl)-γ-aminobutyric acid;β-<em>p</em>-Chlorophenyl-GABA;CIBA Ba 34647;4-Amino-3-(4-chlorophenyl)butyric acid;C 34647Ba;4-Amino-3-(<em>p</em>-chlorophenyl)butyric acid;<span class=\"text-smallcaps\">D</smallcap><smallcap>L</span>-4-Amino-3-<em>p</em>-chlorophenylbutanoic acid;<em>dl</em>-Baclofen;(±)-Baclofen;<span class=\"text-smallcaps\">D</smallcap><smallcap>L</span>-Baclofen;Baclon;4-Amino-3-(4-chlorophenyl)butanoic acid;(±)-4-Amino-3-(4-chlorophenyl)butanoic acid;Lyvispah;MeSH ID: D001418",
    "duplicated_cas_no": "62594-36-9",
    "SMILES": "C(CC(O)=O)(CN)C1=CC=C(Cl)C=C1",
    "meta_data": {
        "InChI": "InChI=1S/C10H12ClNO2/c11-9-3-1-7(2-4-9)8(6-12)5-10(13)14/h1-4,8H,5-6,12H2,(H,13,14)",
        "InChIKey": null,
        "Canonical SMILES": "O=C(O)CC(C1=CC=C(Cl)C=C1)CN",
        "Molecular Formula": "C<sub>10</sub>H<sub>12</sub>ClNO<sub>2</sub>",
        "Molecular Mass": "213.66",
        "Melting Point": "206-208 °C"
    }
}