{
    "cas_no": "517-63-5",
    "key_name": "Stephanine",
    "cn_name": null,
    "alternate_name": "5<em>H</em>-Benzo[<em>g</em>]-1,3-benzodioxolo[6,5,4-<em>de</em>]quinoline, 6,7,7a,8-tetrahydro-9-methoxy-7-methyl-, (7a<em>R</em>)-;6aβ-Aporphine, 8-methoxy-1,2-(methylenedioxy)-;Stephanine;5<em>H</em>-Benzo[<em>g</em>]-1,3-benzodioxolo[6,5,4-<em>de</em>]quinoline, 6,7,7a,8-tetrahydro-9-methoxy-7-methyl-, (<em>R</em>)-;(7a<em>R</em>)-6,7,7a,8-Tetrahydro-9-methoxy-7-methyl-5<em>H</em>-benzo[<em>g</em>]-1,3-benzodioxolo[6,5,4-<em>de</em>]quinoline;Stephanin;<em>l</em>-Stephanine;(-)-Stephanine;(<em>R</em>)-(-)-Stephanine;8-Methoxy-1,2-(methylenedioxy)-6aβ-aporphine",
    "duplicated_cas_no": "",
    "SMILES": "CN1[C@]2(C=3C(C=4C(C2)=C(OC)C=CC4)=C5C(=CC3CC1)OCO5)[H]",
    "meta_data": {
        "InChI": "InChI=1S/C19H19NO3/c1-20-7-6-11-8-16-19(23-10-22-16)18-12-4-3-5-15(21-2)13(12)9-14(20)17(11)18/h3-5,8,14H,6-7,9-10H2,1-2H3/t14-/m1/s1",
        "InChIKey": null,
        "Canonical SMILES": "O(C1=CC=CC=2C=3C=4OCOC4C=C5C3C(N(C)CC5)CC12)C",
        "Molecular Formula": "C<sub>19</sub>H<sub>19</sub>NO<sub>3</sub>",
        "Molecular Mass": "309.36",
        "Melting Point": "155 °C"
    }
}