{
    "cas_no": "135062-02-1",
    "key_name": "Repaglinide",
    "cn_name": "瑞格列奈;(S)-2-乙氧基-4-[2-[3-甲基-1-[2-(1-哌啶基)苯基]-丁烷基]-氨基]-2-羰乙基苯甲酸;",
    "alternate_name": "Benzoic acid, 2-ethoxy-4-[2-[[(1<em>S</em>)-3-methyl-1-[2-(1-piperidinyl)phenyl]butyl]amino]-2-oxoethyl]-;Benzoic acid, 2-ethoxy-4-[2-[[3-methyl-1-[2-(1-piperidinyl)phenyl]butyl]amino]-2-oxoethyl]-, (<em>S</em>)-;2-Ethoxy-4-[2-[[(1<em>S</em>)-3-methyl-1-[2-(1-piperidinyl)phenyl]butyl]amino]-2-oxoethyl]benzoic acid;Repaglinide;AG-EE 623ZW;Prandin;NovoNorm;(<em>S</em>)-(+)-2-Ethoxy-4-[[[<em>N</em>-[1-(2-piperidinophenyl)-3-methylbutyl]amino]carbonyl]methyl]benzoic acid;AGEE 623;Novolon;Eurepa;(S)-(+)-Repaglinide;GlucoNorm;Europa 0.5;Europa 1;(<em>S</em>)-2-Ethoxy-4-[2-[[3-methyl-1-[2-(piperidin-1-yl)phenyl]butyl]amino]-2-oxoethyl]benzoic acid;Enyglid",
    "duplicated_cas_no": "",
    "SMILES": "[C@H](NC(CC1=CC(OCC)=C(C(O)=O)C=C1)=O)(CC(C)C)C2=C(C=CC=C2)N3CCCCC3",
    "meta_data": {
        "InChI": "InChI=1S/C27H36N2O4/c1-4-33-25-17-20(12-13-22(25)27(31)32)18-26(30)28-23(16-19(2)3)21-10-6-7-11-24(21)29-14-8-5-9-15-29/h6-7,10-13,17,19,23H,4-5,8-9,14-16,18H2,1-3H3,(H,28,30)(H,31,32)/t23-/m0/s1",
        "InChIKey": null,
        "Canonical SMILES": "O=C(O)C1=CC=C(C=C1OCC)CC(=O)NC(C=2C=CC=CC2N3CCCCC3)CC(C)C",
        "Molecular Formula": "C<sub>27</sub>H<sub>36</sub>N<sub>2</sub>O<sub>4</sub>",
        "Molecular Mass": "452.59",
        "Melting Point": "132 °C"
    }
}