{
    "cas_no": "17321-77-6",
    "key_name": "Clomipramine hydrochloride",
    "cn_name": "盐酸氯米帕明;氯丙咪嗪盐酸盐;N,N-二甲基-10,11-二氢-3-氯-5H-二苯并[b,f]氮杂卓-5-丙胺盐酸盐;",
    "alternate_name": "5<em>H</em>-Dibenz[<em>b</em>,<em>f</em>]azepine-5-propanamine, 3-chloro-10,11-dihydro-<em>N</em>,<em>N</em>-dimethyl-, hydrochloride (1:1);5<em>H</em>-Dibenz[<em>b</em>,<em>f</em>]azepine, 3-chloro-5-[3-(dimethylamino)propyl]-10,11-dihydro-, monohydrochloride;5<em>H</em>-Dibenz[<em>b</em>,<em>f</em>]azepine-5-propanamine, 3-chloro-10,11-dihydro-<em>N</em>,<em>N</em>-dimethyl-, monohydrochloride;3-Chloro-5-(3-dimethylaminopropyl)-10,11-dihydro-5<em>H</em>-dibenz[<em>b</em>,<em>f</em>]azepine hydrochloride;Chlorimipramine hydrochloride;Anafranil;3-Chloroimipramine hydrochloride;Anaphranil;Chloroimipramine monohydrochloride;Clomipramine hydrochloride;Anatranil",
    "duplicated_cas_no": "117848-72-3;17286-81-6",
    "SMILES": "C(CCN(C)C)N1C=2C(CCC=3C1=CC=CC3)=CC=C(Cl)C2.Cl",
    "meta_data": {
        "InChI": "InChI=1S/C19H23ClN2.ClH/c1-21(2)12-5-13-22-18-7-4-3-6-15(18)8-9-16-10-11-17(20)14-19(16)22;/h3-4,6-7,10-11,14H,5,8-9,12-13H2,1-2H3;1H",
        "InChIKey": null,
        "Canonical SMILES": "Cl.ClC1=CC=C2C(=C1)N(C=3C=CC=CC3CC2)CCCN(C)C",
        "Molecular Formula": "C<sub>19</sub>H<sub>23</sub>ClN<sub>2</sub>.ClH",
        "Molecular Mass": "",
        "Melting Point": "189-190 °C"
    }
}