{
    "cas_no": "103-73-1",
    "key_name": "Phenetole",
    "cn_name": "苯乙醚;乙氧基苯;",
    "alternate_name": "Benzene, ethoxy-;Phenetole;Ethoxybenzene;Ethyl phenyl ether;Phenyl ethyl ether;Phenoxyethane;Phenetol;NSC 406706",
    "duplicated_cas_no": "",
    "SMILES": "O(CC)C1=CC=CC=C1",
    "meta_data": {
        "InChI": "InChI=1S/C8H10O/c1-2-9-8-6-4-3-5-7-8/h3-7H,2H2,1H3",
        "InChIKey": null,
        "Canonical SMILES": "O(C=1C=CC=CC1)CC",
        "Molecular Formula": "C<sub>8</sub>H<sub>10</sub>O",
        "Molecular Mass": "122.16",
        "Boiling Point": "171-173 °C",
        "Melting Point": "-30.0 °C",
        "Density": "0.967 g/cm³ @ Temp: 20 °C"
    }
}