{
    "cas_no": "1965-19-1",
    "key_name": "2-(2-Methoxyphenyl)-4,5-diphenyl-1<em>H</em>-imidazole",
    "cn_name": "2-(2-甲氧基苯基)-4,5-二苯基-1H-咪唑;",
    "alternate_name": "1<em>H</em>-Imidazole, 2-(2-methoxyphenyl)-4,5-diphenyl-;Imidazole, 2-(<em>o</em>-methoxyphenyl)-4,5-diphenyl-;2-(2-Methoxyphenyl)-4,5-diphenyl-1<em>H</em>-imidazole",
    "duplicated_cas_no": "",
    "SMILES": "O(C)C1=C(C=2NC(=C(N2)C3=CC=CC=C3)C4=CC=CC=C4)C=CC=C1",
    "meta_data": {
        "InChI": "InChI=1S/C22H18N2O/c1-25-19-15-9-8-14-18(19)22-23-20(16-10-4-2-5-11-16)21(24-22)17-12-6-3-7-13-17/h2-15H,1H3,(H,23,24)",
        "InChIKey": null,
        "Canonical SMILES": "N1=C(NC(C=2C=CC=CC2)=C1C=3C=CC=CC3)C=4C=CC=CC4OC",
        "Molecular Formula": "C<sub>22</sub>H<sub>18</sub>N<sub>2</sub>O",
        "Molecular Mass": "326.39",
        "Melting Point": "207.5-208.5 °C"
    }
}