{
    "cas_no": "59743-84-9",
    "key_name": "10-Methoxy-4<em>H</em>-benzo[4,5]cyclohepta[1,2-<em>b</em>]thiophen-4-one",
    "cn_name": "10-甲氧基-4H-苯并[4,5]环庚三烯并[1,2-b]噻吩-4-酮;10-甲氧基苯并噻吩环庚酮;",
    "alternate_name": "4<em>H</em>-Benzo[4,5]cyclohepta[1,2-<em>b</em>]thiophen-4-one, 10-methoxy-;10-Methoxy-4<em>H</em>-benzo[4,5]cyclohepta[1,2-<em>b</em>]thiophen-4-one",
    "duplicated_cas_no": "43076-76-2",
    "SMILES": "O(C)C=1C2=C(C(=O)C=3C(C1)=CC=CC3)C=CS2",
    "meta_data": {
        "InChI": "InChI=1S/C14H10O2S/c1-16-12-8-9-4-2-3-5-10(9)13(15)11-6-7-17-14(11)12/h2-8H,1H3",
        "InChIKey": null,
        "Canonical SMILES": "O=C1C=2C=CC=CC2C=C(OC)C=3SC=CC13",
        "Molecular Formula": "C<sub>14</sub>H<sub>10</sub>O<sub>2</sub>S",
        "Molecular Mass": "242.29",
        "Melting Point": "164-166 °C"
    }
}