{
    "cas_no": "100-27-6",
    "key_name": "2-(4-Nitrophenyl)ethanol",
    "cn_name": "对硝基苯乙醇;",
    "alternate_name": "Benzeneethanol, 4-nitro-;Phenethyl alcohol, <em>p</em>-nitro-;4-Nitrobenzeneethanol;<em>p</em>-Nitrophenethyl alcohol;2-(<em>p</em>-Nitrophenyl)ethanol;4-Nitrophenethyl alcohol;2-(4-Nitrophenyl)ethanol;<em>p</em>-Nitrophenylethyl alcohol;4-Nitrophenethanol;1-(2-Hydroxyethyl)-4-nitrobenzene;2-(4-Nitrophenyl)-1-ethanol;NSC 55519;2-(4-Nitrophenyl)ethyl alcohol",
    "duplicated_cas_no": "",
    "SMILES": "N(=O)(=O)C1=CC=C(CCO)C=C1",
    "meta_data": {
        "InChI": "InChI=1S/C8H9NO3/c10-6-5-7-1-3-8(4-2-7)9(11)12/h1-4,10H,5-6H2",
        "InChIKey": null,
        "Canonical SMILES": "O=N(=O)C1=CC=C(C=C1)CCO",
        "Molecular Formula": "C<sub>8</sub>H<sub>9</sub>NO<sub>3</sub>",
        "Molecular Mass": "167.16",
        "Boiling Point": "177 °C",
        "Melting Point": "63 °C"
    }
}