{
    "cas_no": "16532-02-8",
    "key_name": "(Bromomethyl)chlorodimethylsilane",
    "cn_name": null,
    "alternate_name": "Silane, (bromomethyl)chlorodimethyl-;(Bromomethyl)chlorodimethylsilane;(Bromomethyl)dimethylchlorosilane;(Bromomethyl)dimethylsilyl chloride",
    "duplicated_cas_no": "",
    "SMILES": "[Si](CBr)(C)(C)Cl",
    "meta_data": {
        "InChI": "InChI=1S/C3H8BrClSi/c1-6(2,5)3-4/h3H2,1-2H3",
        "InChIKey": null,
        "Canonical SMILES": "Cl[Si](C)(C)CBr",
        "Molecular Formula": "C<sub>3</sub>H<sub>8</sub>BrClSi",
        "Molecular Mass": "187.54",
        "Boiling Point": "131 °C",
        "Density": "1.375 g/cm³"
    }
}