{
    "cas_no": "1592-38-7",
    "key_name": "2-Naphthalenemethanol",
    "cn_name": "2-萘甲醇;",
    "alternate_name": "2-Naphthalenemethanol;2-Naphthylmethanol;β-Naphthylcarbinol;2-(Hydroxymethyl)naphthalene;2-Naphthylcarbinol;2-Naphthylmethyl alcohol;Naphthalen-2-ylmethanol;β-(Hydroxymethyl)naphthalene;NSC 408615;2-Naphthylmethan-1-ol",
    "duplicated_cas_no": "",
    "SMILES": "C(O)C1=CC2=C(C=C1)C=CC=C2",
    "meta_data": {
        "InChI": "InChI=1S/C11H10O/c12-8-9-5-6-10-3-1-2-4-11(10)7-9/h1-7,12H,8H2",
        "InChIKey": null,
        "Canonical SMILES": "OCC=1C=CC=2C=CC=CC2C1",
        "Molecular Formula": "C<sub>11</sub>H<sub>10</sub>O",
        "Molecular Mass": "158.20",
        "Boiling Point": "178 °C",
        "Melting Point": "81.3 °C"
    }
}