{
    "cas_no": "4840-75-9",
    "key_name": "<em>N</em>,<em>N</em>,<em>N</em>′,<em>N</em>′,<em>N</em>′′,<em>N</em>′′-Hexamethyl-1-phenylsilanetriamine",
    "cn_name": null,
    "alternate_name": "Silanetriamine, <em>N</em>,<em>N</em>,<em>N</em>′,<em>N</em>′,<em>N</em>′′,<em>N</em>′′-hexamethyl-1-phenyl-;<em>N</em>,<em>N</em>,<em>N</em>′,<em>N</em>′,<em>N</em>′′,<em>N</em>′′-Hexamethyl-1-phenylsilanetriamine;Tris(dimethylamino)phenylsilane;Phenyltri(dimethylamino)silane",
    "duplicated_cas_no": "",
    "SMILES": "[Si](N(C)C)(N(C)C)(N(C)C)C1=CC=CC=C1",
    "meta_data": {
        "InChI": "InChI=1S/C12H23N3Si/c1-13(2)16(14(3)4,15(5)6)12-10-8-7-9-11-12/h7-11H,1-6H3",
        "InChIKey": null,
        "Canonical SMILES": "C=1C=CC(=CC1)[Si](N(C)C)(N(C)C)N(C)C",
        "Molecular Formula": "C<sub>12</sub>H<sub>23</sub>N<sub>3</sub>Si",
        "Molecular Mass": "237.42",
        "Boiling Point": "143-144 °C @ Press: 32 Torr",
        "Density": "0.965 g/cm³"
    }
}