{
    "cas_no": "15176-29-1",
    "key_name": "Edoxudine",
    "cn_name": null,
    "alternate_name": "Uridine, 2′-deoxy-5-ethyl-;2′-Deoxy-5-ethyluridine;5-Ethyl-2′-deoxyuridine;5-Ethyldeoxyuridine;β-5-Ethyldeoxyuridine;β-5-Ethyl-2′-deoxyuridine;EDU;Epoxudine;Edoxudine;5-Ethyl-1-(2′-deoxy-β-<span class=\"text-smallcaps\">D</span>-ribofuranosyl)uracil;Aedurid;ORF 15817;EUDR;RWJ 15817",
    "duplicated_cas_no": "46895-01-6",
    "SMILES": "O=C1N([C@@H]2O[C@H](CO)[C@@H](O)C2)C=C(CC)C(=O)N1",
    "meta_data": {
        "InChI": "InChI=1S/C11H16N2O5/c1-2-6-4-13(11(17)12-10(6)16)9-3-7(15)8(5-14)18-9/h4,7-9,14-15H,2-3,5H2,1H3,(H,12,16,17)/t7-,8+,9+/m0/s1",
        "InChIKey": null,
        "Canonical SMILES": "O=C1NC(=O)N(C=C1CC)C2OC(CO)C(O)C2",
        "Molecular Formula": "C<sub>11</sub>H<sub>16</sub>N<sub>2</sub>O<sub>5</sub>",
        "Molecular Mass": "256.26",
        "Melting Point": "152.5 °C"
    }
}