{
    "cas_no": "86541-75-5",
    "key_name": "Benazepril",
    "cn_name": "贝那普利;(3s)-3-{[((1s)-1-乙氧羰基)-3-苯基丙基]氨基}-2,3,4,5-四氢-2-氧代-1H-1-苯并氮卓-1-乙酸;",
    "alternate_name": "1<em>H</em>-1-Benzazepine-1-acetic acid, 3-[[(1<em>S</em>)-1-(ethoxycarbonyl)-3-phenylpropyl]amino]-2,3,4,5-tetrahydro-2-oxo-, (3<em>S</em>)-;1<em>H</em>-1-Benzazepine-1-acetic acid, 3-[[1-(ethoxycarbonyl)-3-phenylpropyl]amino]-2,3,4,5-tetrahydro-2-oxo-, [<em>S</em>-(<em>R</em>*,<em>R</em>*)]-;(3<em>S</em>)-3-[[(1<em>S</em>)-1-(Ethoxycarbonyl)-3-phenylpropyl]amino]-2,3,4,5-tetrahydro-2-oxo-1<em>H</em>-1-benzazepine-1-acetic acid;Benazepril;Cibacen WS;Benapril;Cibacen;Briem;Cibacene",
    "duplicated_cas_no": "116764-54-6",
    "SMILES": "C(C(O)=O)N1C=2C(CC[C@H](N[C@@H](CCC3=CC=CC=C3)C(OCC)=O)C1=O)=CC=CC2",
    "meta_data": {
        "InChI": "InChI=1S/C24H28N2O5/c1-2-31-24(30)20(14-12-17-8-4-3-5-9-17)25-19-15-13-18-10-6-7-11-21(18)26(23(19)29)16-22(27)28/h3-11,19-20,25H,2,12-16H2,1H3,(H,27,28)/t19-,20-/m0/s1",
        "InChIKey": null,
        "Canonical SMILES": "O=C(O)CN1C(=O)C(NC(C(=O)OCC)CCC=2C=CC=CC2)CCC=3C=CC=CC31",
        "Molecular Formula": "C<sub>24</sub>H<sub>28</sub>N<sub>2</sub>O<sub>5</sub>",
        "Molecular Mass": "424.49",
        "Melting Point": "148.5 °C"
    }
}