{
    "cas_no": "109-60-4",
    "key_name": "Propyl acetate",
    "cn_name": "乙酸丙酯;醋酸正丙酯;",
    "alternate_name": "Acetic acid, propyl ester;Propyl acetate;<em>n</em>-Propyl acetate;1-Propyl acetate;1-Acetoxypropane;Propyl ethanoate;<em>n</em>-Propanol acetate;Acetic acid <em>n</em>-propyl ester;NSC 72025;Acetic acid 1-propyl ester",
    "duplicated_cas_no": "",
    "SMILES": "O(C(C)=O)CCC",
    "meta_data": {
        "InChI": "InChI=1S/C5H10O2/c1-3-4-7-5(2)6/h3-4H2,1-2H3",
        "InChIKey": null,
        "Canonical SMILES": "O=C(OCCC)C",
        "Molecular Formula": "C<sub>5</sub>H<sub>10</sub>O<sub>2</sub>",
        "Molecular Mass": "102.13",
        "Boiling Point": "101.5 °C @ Press: 760 Torr",
        "Melting Point": "-93 °C",
        "Density": "0.836 g/cm³ @ Temp: 20 °C"
    }
}