{
    "cas_no": "13033-84-6",
    "key_name": "<span class=\"text-smallcaps\">D</span>-Phenylalanine, methyl ester, hydrochloride (1:1)",
    "cn_name": "D-苯丙氨酸甲酯盐酸盐;",
    "alternate_name": "<span class=\"text-smallcaps\">D</span>-Phenylalanine, methyl ester, hydrochloride (1:1);Alanine, phenyl-, methyl ester, hydrochloride, <span class=\"text-smallcaps\">D</span>-;<span class=\"text-smallcaps\">D</span>-Phenylalanine, methyl ester, hydrochloride;Methyl (<em>R</em>)-phenylalaninate hydrochloride;Methyl <span class=\"text-smallcaps\">D</span>-phenylalaninate hydrochloride;(<em>R</em>)-Phenylalanine methyl ester hydrochloride;<span class=\"text-smallcaps\">D</span>-Phe-OMe monohydrochloride;(R)-Methyl 2-amino-3-phenylpropanoate hydrochloride",
    "duplicated_cas_no": "",
    "SMILES": "C([C@H](C(OC)=O)N)C1=CC=CC=C1.Cl",
    "meta_data": {
        "InChI": "InChI=1S/C10H13NO2.ClH/c1-13-10(12)9(11)7-8-5-3-2-4-6-8;/h2-6,9H,7,11H2,1H3;1H/t9-;/m1./s1",
        "InChIKey": null,
        "Canonical SMILES": "Cl.O=C(OC)C(N)CC=1C=CC=CC1",
        "Molecular Formula": "C<sub>10</sub>H<sub>13</sub>NO<sub>2</sub>.ClH",
        "Molecular Mass": "",
        "Melting Point": "156-158 °C"
    }
}