{
    "cas_no": "605-87-8",
    "key_name": "3-Hydroxyphenanthrene",
    "cn_name": null,
    "alternate_name": "3-Phenanthrenol;3-Phenanthrol;3-Hydroxyphenanthrene;NSC 30984",
    "duplicated_cas_no": "",
    "SMILES": "OC1=CC2=C3C(=CC=C2C=C1)C=CC=C3",
    "meta_data": {
        "InChI": "InChI=1S/C14H10O/c15-12-8-7-11-6-5-10-3-1-2-4-13(10)14(11)9-12/h1-9,15H",
        "InChIKey": null,
        "Canonical SMILES": "OC=1C=CC=2C=CC=3C=CC=CC3C2C1",
        "Molecular Formula": "C<sub>14</sub>H<sub>10</sub>O",
        "Molecular Mass": "194.23",
        "Melting Point": "120 °C"
    }
}