{
    "cas_no": "4548-45-2",
    "key_name": "2-Chloro-5-nitropyridine",
    "cn_name": "2-氯-5-硝基吡啶;",
    "alternate_name": "Pyridine, 2-chloro-5-nitro-;2-Chloro-5-nitropyridine;6-Chloro-3-nitropyridine;5-Nitro-2-chloropyridine;3-Nitro-6-chloropyridine;NSC 4468",
    "duplicated_cas_no": "",
    "SMILES": "N(=O)(=O)C=1C=CC(Cl)=NC1",
    "meta_data": {
        "InChI": "InChI=1S/C5H3ClN2O2/c6-5-2-1-4(3-7-5)8(9)10/h1-3H",
        "InChIKey": null,
        "Canonical SMILES": "O=N(=O)C1=CN=C(Cl)C=C1",
        "Molecular Formula": "C<sub>5</sub>H<sub>3</sub>ClN<sub>2</sub>O<sub>2</sub>",
        "Molecular Mass": "158.54",
        "Melting Point": "107 °C"
    }
}