{
    "cas_no": "113486-29-6",
    "key_name": "3-Methyl-2,4-nonanedione",
    "cn_name": null,
    "alternate_name": "2,4-Nonanedione, 3-methyl-;3-Methyl-2,4-nonanedione;3-Methylnonan-2,4-dione",
    "duplicated_cas_no": "",
    "SMILES": "C(C(C(C)=O)C)(CCCCC)=O",
    "meta_data": {
        "InChI": "InChI=1S/C10H18O2/c1-4-5-6-7-10(12)8(2)9(3)11/h8H,4-7H2,1-3H3",
        "InChIKey": null,
        "Canonical SMILES": "O=C(C)C(C(=O)CCCCC)C",
        "Molecular Formula": "C<sub>10</sub>H<sub>18</sub>O<sub>2</sub>",
        "Molecular Mass": "170.25",
        "Melting Point": "126-126.5 °C"
    }
}