{
    "cas_no": "68818-86-0",
    "key_name": "9,10-Diethoxyanthracene",
    "cn_name": "9,10-二乙氧基蒽;",
    "alternate_name": "Anthracene, 9,10-diethoxy-;9,10-Diethoxyanthracene;DEA;Adeka Optomer SP 100;SP 100;UVS 1101;Anthracure UVS 1101",
    "duplicated_cas_no": "218949-25-8",
    "SMILES": "O(CC)C=1C2=C(C(OCC)=C3C1C=CC=C3)C=CC=C2",
    "meta_data": {
        "InChI": "InChI=1S/C18H18O2/c1-3-19-17-13-9-5-7-11-15(13)18(20-4-2)16-12-8-6-10-14(16)17/h5-12H,3-4H2,1-2H3",
        "InChIKey": null,
        "Canonical SMILES": "O(C=1C=2C=CC=CC2C(OCC)=C3C=CC=CC13)CC",
        "Molecular Formula": "C<sub>18</sub>H<sub>18</sub>O<sub>2</sub>",
        "Molecular Mass": "266.33",
        "Melting Point": "148 °C"
    }
}