{
    "cas_no": "4694-12-6",
    "key_name": "2,4,4-Trimethylcyclopentanone",
    "cn_name": "2,4,4-三甲基环戊酮;",
    "alternate_name": "Cyclopentanone, 2,4,4-trimethyl-;2,4,4-Trimethylcyclopentanone;(±)-2,4,4-Trimethylcyclopentanone;2,4,4-Trimethylcyclopentan-1-one",
    "duplicated_cas_no": "55130-95-5",
    "SMILES": "CC1(C)CC(C)C(=O)C1",
    "meta_data": {
        "InChI": "InChI=1S/C8H14O/c1-6-4-8(2,3)5-7(6)9/h6H,4-5H2,1-3H3",
        "InChIKey": null,
        "Canonical SMILES": "O=C1CC(C)(C)CC1C",
        "Molecular Formula": "C<sub>8</sub>H<sub>14</sub>O",
        "Molecular Mass": "126.20",
        "Boiling Point": "160.5 °C",
        "Melting Point": "-25.6 °C",
        "Density": "0.785000610351563 g/cm³ @ Temp: 18 °C"
    }
}