{
    "cas_no": "13707-88-5",
    "key_name": "Alprenolol hydrochloride",
    "cn_name": "心得舒;1-[(1-甲基乙基)氨基]-3-[2-(2-丙烯基)苯氧基]-2-丙醇;",
    "alternate_name": "2-Propanol, 1-[(1-methylethyl)amino]-3-[2-(2-propen-1-yl)phenoxy]-, hydrochloride (1:1);2-Propanol, 1-(<em>o</em>-allylphenoxy)-3-(isopropylamino)-, hydrochloride;2-Propanol, 1-[(1-methylethyl)amino]-3-[2-(2-propenyl)phenoxy]-, hydrochloride;1-(<em>o</em>-Allylphenoxy)-3-(isopropylamino)-2-propanol hydrochloride;Alprenolol hydrochloride;H 56/28;1-(2-Allylphenoxy)-2-hydroxy-3-isopropylaminopropane hydrochloride;Gubernal;Aptine;Alfeprol;Aptin;Betaptin;Dimacor;Aptol Duriles;Apllobal;(±)-1-(<em>o</em>-Allylphenoxy)-3-isopropylamino-2-propanol hydrochloride;(±)-Alprenolol hydrochloride;<em>dl</em>-Alprenolol chloride;<span class=\"text-smallcaps\">DL</span>-1-(<em>o</em>-Allylphenoxy)-3-isopropylamino-2-propanol hydrochloride;Regletin;Applobal;Yobir;Aprobal;1-(2-Allylphenoxy)-3-(isopropylamino)propan-2-ol hydrochloride;[2-Hydroxy-3-[2-(prop-2-en-1-yl)phenoxy]propyl](propan-2-yl)amine hydrochloride",
    "duplicated_cas_no": "13678-97-2",
    "SMILES": "O(CC(CNC(C)C)O)C1=C(CC=C)C=CC=C1.Cl",
    "meta_data": {
        "InChI": "InChI=1S/C15H23NO2.ClH/c1-4-7-13-8-5-6-9-15(13)18-11-14(17)10-16-12(2)3;/h4-6,8-9,12,14,16-17H,1,7,10-11H2,2-3H3;1H",
        "InChIKey": null,
        "Canonical SMILES": "Cl.OC(COC=1C=CC=CC1CC=C)CNC(C)C",
        "Molecular Formula": "C<sub>15</sub>H<sub>23</sub>NO<sub>2</sub>.ClH",
        "Molecular Mass": "",
        "Melting Point": "107-109 °C"
    }
}