{
    "cas_no": "940-41-0",
    "key_name": "[2-(Trichlorosilyl)ethyl]benzene",
    "cn_name": "苯乙基三氯硅烷;",
    "alternate_name": "Benzene, [2-(trichlorosilyl)ethyl]-;Silane, trichlorophenethyl-;Silane, trichloro(2-phenylethyl)-;[2-(Trichlorosilyl)ethyl]benzene;(2-Phenylethyl)trichlorosilane;Trichloro(2-phenylethyl)silane;Trichlorophenethylsilane;Phenethyltrichlorosilane;1-Phenyl-2-(trichlorosilyl)ethane;1-(Trichlorosilyl)-2-phenylethane;2-(Trichlorosilyl)ethylbenzene;Trichloro(β-phenylethyl)silane;NSC 139848;β-Phenetyltrichlorosilane;PETS;LP 1990;3-Phenethyltrichlorosilane;Trichloro(phenylethyl)silane",
    "duplicated_cas_no": "",
    "SMILES": "C(C[Si](Cl)(Cl)Cl)C1=CC=CC=C1",
    "meta_data": {
        "InChI": "InChI=1S/C8H9Cl3Si/c9-12(10,11)7-6-8-4-2-1-3-5-8/h1-5H,6-7H2",
        "InChIKey": null,
        "Canonical SMILES": "Cl[Si](Cl)(Cl)CCC=1C=CC=CC1",
        "Molecular Formula": "C<sub>8</sub>H<sub>9</sub>Cl<sub>3</sub>Si",
        "Molecular Mass": "239.60",
        "Boiling Point": "242 °C",
        "Density": "1.240 g/cm³"
    }
}