{
    "cas_no": "16728-59-9",
    "key_name": "3-Propoxy-1-propanamine",
    "cn_name": "3-正丙氧基丙胺;",
    "alternate_name": "1-Propanamine, 3-propoxy-;Propylamine, 3-propoxy-;3-Propoxy-1-propanamine;3-Propoxypropylamine;1-Amino-3-propoxypropane;3-(Propyloxy)propylamine",
    "duplicated_cas_no": "",
    "SMILES": "C(OCCC)CCN",
    "meta_data": {
        "InChI": "InChI=1S/C6H15NO/c1-2-5-8-6-3-4-7/h2-7H2,1H3",
        "InChIKey": null,
        "Canonical SMILES": "O(CCC)CCCN",
        "Molecular Formula": "C<sub>6</sub>H<sub>15</sub>NO",
        "Molecular Mass": "117.19",
        "Boiling Point": "84-89 °C @ Press: 80 Torr"
    }
}