{
    "cas_no": "373-52-4",
    "key_name": "Bromofluoromethane",
    "cn_name": "氟溴甲烷;",
    "alternate_name": "Methane, bromofluoro-;Bromofluoromethane;Fluorobromomethane",
    "duplicated_cas_no": "",
    "SMILES": "C(Br)F",
    "meta_data": {
        "InChI": "InChI=1S/CH2BrF/c2-1-3/h1H2",
        "InChIKey": null,
        "Canonical SMILES": "FCBr",
        "Molecular Formula": "CH<sub>2</sub>BrF",
        "Molecular Mass": "112.93",
        "Boiling Point": "19 °C"
    }
}