{
    "cas_no": "604-75-1",
    "key_name": "Oxazepam",
    "cn_name": "奥沙西泮;羟苯二氮唑;去甲羟安定;去甲羟基安定;舒宁;",
    "alternate_name": "2<em>H</em>-1,4-Benzodiazepin-2-one, 7-chloro-1,3-dihydro-3-hydroxy-5-phenyl-;7-Chloro-1,3-dihydro-3-hydroxy-5-phenyl-2<em>H</em>-1,4-benzodiazepin-2-one;Wy 3498;Ro 5-6789;Adumbran;7-Chloro-3-hydroxy-5-phenyl-1,3-dihydro-2<em>H</em>-1,4-benzodiazepin-2-one;Oxazepam;Serax;Seresta;Aplakil;Bonare;Enidrel;Limbial;Nesontil;Praxiten;Propax;Rondar;Serenal;Serepax;Tazepam;Psiquiwas;Hi-Long;Astress;Sobril;Drimuel;Droxacepam;Anxiolit retard;Tarchomin;Nozepam;<em>N</em>-Desmethyltemazepam;Anxiolit;Nortemazepam;(±)-Oxazepam;(<em>RS</em>)-Oxazepam;Noctazepam;Serenid;Lederpam;Quilibrex;Isodin;Azutranquil;Zaxopam;Uskan;Oxanid;Sigacalm;Oxa-puren;Durazepam;NSC 169448;3-Hydroxynordiazepam;Serenid-D;7-Chloro-3-hydroxy-5-phenyl-1<em>H</em>-1,4-benzodiazepin-2(3<em>H</em>)-one;MeSH ID: D010076",
    "duplicated_cas_no": "35295-88-6;61036-43-9",
    "SMILES": "ClC=1C=C2C(=NC(O)C(=O)NC2=CC1)C3=CC=CC=C3",
    "meta_data": {
        "InChI": "InChI=1S/C15H11ClN2O2/c16-10-6-7-12-11(8-10)13(9-4-2-1-3-5-9)18-15(20)14(19)17-12/h1-8,15,20H,(H,17,19)",
        "InChIKey": null,
        "Canonical SMILES": "O=C1NC=2C=CC(Cl)=CC2C(=NC1O)C=3C=CC=CC3",
        "Molecular Formula": "C<sub>15</sub>H<sub>11</sub>ClN<sub>2</sub>O<sub>2</sub>",
        "Molecular Mass": "286.71",
        "Melting Point": "205-206 °C"
    }
}