{
    "cas_no": "485-91-6",
    "key_name": "Allocryptopine",
    "cn_name": null,
    "alternate_name": "[1,3]Benzodioxolo[5,6-<em>e</em>][2]benzazecin-14(6<em>H</em>)-one, 5,7,8,15-tetrahydro-3,4-dimethoxy-6-methyl-;α-Fagarine;5,7,8,15-Tetrahydro-3,4-dimethoxy-6-methyl[1,3]benzodioxolo[5,6-<em>e</em>][2]benzazecin-14(6<em>H</em>)-one;β-Homochelidonine;α-Allocryptopine;Thalictrimine;Allocryptopine;Thalictrimine (C<sub>21</sub> alkaloid);α-<em>allo</em>-Cryptopine",
    "duplicated_cas_no": "",
    "SMILES": "O(C)C1=C2C(CC(=O)C=3C(CCN(C)C2)=CC4=C(C3)OCO4)=CC=C1OC",
    "meta_data": {
        "InChI": "InChI=1S/C21H23NO5/c1-22-7-6-14-9-19-20(27-12-26-19)10-15(14)17(23)8-13-4-5-18(24-2)21(25-3)16(13)11-22/h4-5,9-10H,6-8,11-12H2,1-3H3",
        "InChIKey": null,
        "Canonical SMILES": "O=C1C2=CC=3OCOC3C=C2CCN(C)CC4=C(OC)C(OC)=CC=C4C1",
        "Molecular Formula": "C<sub>21</sub>H<sub>23</sub>NO<sub>5</sub>",
        "Molecular Mass": "369.41",
        "Melting Point": "160.5 °C"
    }
}