{
    "cas_no": "7460-84-6",
    "key_name": "Glycidyl stearate",
    "cn_name": null,
    "alternate_name": "Octadecanoic acid, 2-oxiranylmethyl ester;Stearic acid, 2,3-epoxypropyl ester;Octadecanoic acid, oxiranylmethyl ester;1-Propanol, 2,3-epoxy-, stearate;Glycidyl stearate;Stearic acid glycidyl ester;Glycidol stearate;Glycidyl octadecanoate;NSC 404228",
    "duplicated_cas_no": "59951-98-3",
    "SMILES": "C(OC(CCCCCCCCCCCCCCCCC)=O)C1CO1",
    "meta_data": {
        "InChI": "InChI=1S/C21H40O3/c1-2-3-4-5-6-7-8-9-10-11-12-13-14-15-16-17-21(22)24-19-20-18-23-20/h20H,2-19H2,1H3",
        "InChIKey": null,
        "Canonical SMILES": "O=C(OCC1OC1)CCCCCCCCCCCCCCCCC",
        "Molecular Formula": "C<sub>21</sub>H<sub>40</sub>O<sub>3</sub>",
        "Molecular Mass": "340.54",
        "Boiling Point": "193 °C @ Press: 1 Torr",
        "Melting Point": "50.5-51.3 °C",
        "Density": "0.8867 g/cm³ @ Temp: 60 °C"
    }
}