{
    "cas_no": "329216-65-1",
    "key_name": "2-[2-[4-(5,5-Dioxidodibenzo[<em>b</em>,<em>f</em>][1,4]thiazepin-11-yl)-1-piperazinyl]ethoxy]ethanol",
    "cn_name": null,
    "alternate_name": "Ethanol, 2-[2-[4-(5,5-dioxidodibenzo[<em>b</em>,<em>f</em>][1,4]thiazepin-11-yl)-1-piperazinyl]ethoxy]-;2-[2-[4-(5,5-Dioxidodibenzo[<em>b</em>,<em>f</em>][1,4]thiazepin-11-yl)-1-piperazinyl]ethoxy]ethanol",
    "duplicated_cas_no": "",
    "SMILES": "O=S1(=O)C=2C(C(=NC=3C1=CC=CC3)N4CCN(CCOCCO)CC4)=CC=CC2",
    "meta_data": {
        "InChI": "InChI=1S/C21H25N3O4S/c25-14-16-28-15-13-23-9-11-24(12-10-23)21-17-5-1-3-7-19(17)29(26,27)20-8-4-2-6-18(20)22-21/h1-8,25H,9-16H2",
        "InChIKey": null,
        "Canonical SMILES": "O=S1(=O)C=2C=CC=CC2N=C(C=3C=CC=CC31)N4CCN(CCOCCO)CC4",
        "Molecular Formula": "C<sub>21</sub>H<sub>25</sub>N<sub>3</sub>O<sub>4</sub>S",
        "Molecular Mass": "415.51",
        "Melting Point": "168-169 °C"
    }
}