{
    "cas_no": "23220-52-2",
    "key_name": "<em>meso</em>-2,3-Diaminosuccinic acid",
    "cn_name": null,
    "alternate_name": "<span class=\"text-smallcaps\">D</span>-Aspartic acid, 3-amino-, (3<em>S</em>)-<em>rel</em>-;Succinic acid, 2,3-diamino-, <em>meso</em>-;Aspartic acid, 3-amino-, <em>erythro</em>-;<em>rel</em>-(3<em>S</em>)-3-Amino-<span class=\"text-smallcaps\">D</span>-aspartic acid;<em>meso</em>-Diaminosuccinic acid;<em>meso</em>-2,3-Diaminosuccinic acid",
    "duplicated_cas_no": "50817-04-4",
    "SMILES": "[C@H]([C@H](C(O)=O)N)(C(O)=O)N",
    "meta_data": {
        "InChI": "InChI=1/C4H8N2O4/c5-1(3(7)8)2(6)4(9)10/h1-2H,5-6H2,(H,7,8)(H,9,10)/t1-,2+",
        "InChIKey": null,
        "Canonical SMILES": "O=C(O)C(N)C(N)C(=O)O",
        "Molecular Formula": "C<sub>4</sub>H<sub>8</sub>N<sub>2</sub>O<sub>4</sub>",
        "Molecular Mass": "148.12",
        "Melting Point": "304 °C"
    }
}