{
    "cas_no": "2305-21-7",
    "key_name": "2-Hexen-1-ol",
    "cn_name": null,
    "alternate_name": "2-Hexen-1-ol;NSC 142553;2-Hexenyl alcohol",
    "duplicated_cas_no": "114411-82-4",
    "SMILES": "C(CCC)=CCO",
    "meta_data": {
        "InChI": "InChI=1S/C6H12O/c1-2-3-4-5-6-7/h4-5,7H,2-3,6H2,1H3",
        "InChIKey": null,
        "Canonical SMILES": "OCC=CCCC",
        "Molecular Formula": "C<sub>6</sub>H<sub>12</sub>O",
        "Molecular Mass": "100.16",
        "Boiling Point": "154-156 °C",
        "Density": "0.8628 g/cm³ @ Temp: 20 °C"
    }
}