{
    "cas_no": "6606-65-1",
    "key_name": "Butyl cyanoacrylate",
    "cn_name": "2-氰基-2-丙烯酸丁酯;2-氰基烯丙酸正丁酯;粘合止血剂BCA;",
    "alternate_name": "2-Propenoic acid, 2-cyano-, butyl ester;Acrylic acid, 2-cyano-, butyl ester;Butyl cyanoacrylate;Butyl 2-cyanoacrylate;<em>n</em>-Butyl 2-cyanoacrylate;Butyl α-cyanoacrylate;BK 200;BK 201;BK 300;BK 301 (adhesive);BK 301;Enbucrilate;BK 201 (adhesive);Tisuacryl;Indermil;Sicomet 6000;Histacryl Blue;InteguSeal Clear;Integuseal Microbial Sealant;Integuseal;Indermil Tissue Adhesive;Hystoacryl;Glubranh 1;Z 26;1-Butyl 2-cyanoacrylate;Cyberbond 7000;Periacryl",
    "duplicated_cas_no": "1003600-51-8",
    "SMILES": "C(OCCCC)(C(C#N)=C)=O",
    "meta_data": {
        "InChI": "InChI=1S/C8H11NO2/c1-3-4-5-11-8(10)7(2)6-9/h2-5H2,1H3",
        "InChIKey": null,
        "Canonical SMILES": "N#CC(=C)C(=O)OCCCC",
        "Molecular Formula": "C<sub>8</sub>H<sub>11</sub>NO<sub>2</sub>",
        "Molecular Mass": "153.18",
        "Boiling Point": "69-72 °C @ Press: 1.6 Torr",
        "Density": "0.986 g/cm³ @ Temp: 20 °C"
    }
}