{
    "cas_no": "42573-57-9",
    "key_name": "2-(4-Methoxystyryl)-4,6-bis(trichloromethyl)-1,3,5-triazine",
    "cn_name": "2,4-双(三氯甲基)-6-对甲氧基苯乙烯基-S-三嗪;",
    "alternate_name": "1,3,5-Triazine, 2-[2-(4-methoxyphenyl)ethenyl]-4,6-bis(trichloromethyl)-;2-[2-(4-Methoxyphenyl)ethenyl]-4,6-bis(trichloromethyl)-1,3,5-triazine;2,4-Bis(trichloromethyl)-6-(<em>p</em>-methoxystyryl)-<em>s</em>-triazine;2,4-Bis(trichloromethyl)-6-(4-methoxystyryl)-<em>s</em>-triazine;2-(4-Methoxystyryl)-4,6-bis(trichloromethyl)-<em>s</em>-triazine;2-(<em>p</em>-Methoxystyryl)-4,6-bis(trichloromethyl)-<em>s</em>-triazine;2-(<em>p</em>-Methoxystyryl)-4,6-bis(trichloromethyl)-1,3,5-triazine;2-(4-Methoxystyryl)-4,6-bis(trichloromethyl)-1,3,5-triazine;TAZ 100;TAZ 110;2,4-Bis(trichloromethyl)-6-(4-methoxystyryl)-1,3,5-triazine;Triazine PMS;2-(4-Methoxy-β-styryl)-4,6-bis(trichloromethyl)-<em>s</em>-triazine;TMS (photoinitiator);TMS;TAZ-TMS;2,4-(Trichloromethyl)-6-(4-methoxystyryl)-1,3,5-triazine;Chemcure PAG 4;MOP Triazine",
    "duplicated_cas_no": "52578-58-2;181429-60-7",
    "SMILES": "C(Cl)(Cl)(Cl)C=1N=C(C(Cl)(Cl)Cl)N=C(C=CC2=CC=C(OC)C=C2)N1",
    "meta_data": {
        "InChI": "InChI=1S/C14H9Cl6N3O/c1-24-9-5-2-8(3-6-9)4-7-10-21-11(13(15,16)17)23-12(22-10)14(18,19)20/h2-7H,1H3",
        "InChIKey": null,
        "Canonical SMILES": "ClC(Cl)(Cl)C1=NC(=NC(=N1)C(Cl)(Cl)Cl)C=CC2=CC=C(OC)C=C2",
        "Molecular Formula": "C<sub>14</sub>H<sub>9</sub>Cl<sub>6</sub>N<sub>3</sub>O",
        "Molecular Mass": "447.96",
        "Melting Point": "191 °C"
    }
}