{
    "cas_no": "509-15-9",
    "key_name": "(+)-Gelsemine",
    "cn_name": "钩吻碱;",
    "alternate_name": "Spiro[3,5,8-ethanylylidene-1<em>H</em>-pyrano[3,4-<em>c</em>]pyridine-10,3′-[3<em>H</em>]indol]-2′(1′<em>H</em>)-one, 5-ethenyl-3,4,4a,5,6,7,8,8a-octahydro-7-methyl-, (3<em>R</em>,3′<em>S</em>,4a<em>R</em>,5<em>S</em>,8<em>S</em>,8a<em>S</em>,9<em>S</em>)-;Gelsemine;(3<em>R</em>,3′<em>S</em>,4a<em>R</em>,5<em>S</em>,8<em>S</em>,8a<em>S</em>,9<em>S</em>)-5-Ethenyl-3,4,4a,5,6,7,8,8a-octahydro-7-methylspiro[3,5,8-ethanylylidene-1<em>H</em>-pyrano[3,4-<em>c</em>]pyridine-10,3′-[3<em>H</em>]indol]-2′(1′<em>H</em>)-one;[3<em>R</em>-(3α,4aβ,5α,8α,8aβ,9<em>S</em>*,10<em>S</em>*)]-5-Ethenyl-3,4,4a,5,6,7,8,8a-octahydro-7-methylspiro[3,5,8-ethanylylidene-1<em>H</em>-pyrano[3,4-<em>c</em>]pyridine-10,3′-[3<em>H</em>]indol]-2′(1′<em>H</em>)-one;(+)-Gelsemine;NSC 21729",
    "duplicated_cas_no": "1413-63-4;791726-87-9",
    "SMILES": "O=C1[C@@]2([C@@]3([C@]4(C=C)[C@@]5(C[C@]2(OC[C@@]5([C@]3(N(C)C4)[H])[H])[H])[H])[H])C=6C(N1)=CC=CC6",
    "meta_data": {
        "InChI": "InChI=1S/C20H22N2O2/c1-3-19-10-22(2)16-11-9-24-15(8-13(11)19)20(17(16)19)12-6-4-5-7-14(12)21-18(20)23/h3-7,11,13,15-17H,1,8-10H2,2H3,(H,21,23)/t11-,13+,15+,16+,17-,19-,20-/m0/s1",
        "InChIKey": null,
        "Canonical SMILES": "O=C1NC=2C=CC=CC2C13C4OCC5C6N(C)CC(C=C)(C5C4)C63",
        "Molecular Formula": "C<sub>20</sub>H<sub>22</sub>N<sub>2</sub>O<sub>2</sub>",
        "Molecular Mass": "322.40",
        "Melting Point": "178 °C"
    }
}