{
    "cas_no": "12772-57-5",
    "key_name": "Radicicol",
    "cn_name": "根赤壳菌素;",
    "alternate_name": "6<em>H</em>-Oxireno[<em>e</em>][2]benzoxacyclotetradecin-6,12(7<em>H</em>)-dione, 8-chloro-1a,14,15,15a-tetrahydro-9,11-dihydroxy-14-methyl-, (1a<em>R</em>,2<em>Z</em>,4<em>E</em>,14<em>R</em>,15a<em>R</em>)-;Radicicol;β-Resorcylic acid, 5-chloro-6-(7,8-epoxy-10-hydroxy-2-oxo-3,5-undecadienyl)-, μ-lactone;(1a<em>R</em>,2<em>Z</em>,4<em>E</em>,14<em>R</em>,15a<em>R</em>)-8-Chloro-1a,14,15,15a-tetrahydro-9,11-dihydroxy-14-methyl-6<em>H</em>-oxireno[<em>e</em>][2]benzoxacyclotetradecin-6,12(7<em>H</em>)-dione;Monorden;Monordene;Radisicol;NSC 294404;Radicicol R 2146;Monorden A;(+)-Monorden A;Radicolol",
    "duplicated_cas_no": "5137-90-6;11021-61-7;957231-40-2",
    "SMILES": "",
    "meta_data": {
        "InChI": "",
        "InChIKey": null,
        "Canonical SMILES": "",
        "Molecular Formula": "C<sub>18</sub>H<sub>17</sub>ClO<sub>6</sub>",
        "Molecular Mass": "364.78",
        "Melting Point": "193.5 °C"
    }
}