{
    "cas_no": "614-78-8",
    "key_name": "(2-Methylphenyl)thiourea",
    "cn_name": "N-邻甲苯基硫脲;N-(2-甲苯基)硫脲;",
    "alternate_name": "Thiourea, <em>N</em>-(2-methylphenyl)-;Urea, 2-thio-1-<em>o</em>-tolyl-;Thiourea, (2-methylphenyl)-;<em>N</em>-(2-Methylphenyl)thiourea;(2-Methylphenyl)thiourea;<em>N</em>-(<em>o</em>-Tolyl)thiourea;1-(2-Methylphenyl)thiourea;2-Tolylthiourea;<em>o</em>-Tolylthiourea;NSC 5786;1-(<em>o</em>-Tolyl)thiourea",
    "duplicated_cas_no": "",
    "SMILES": "N(C(N)=S)C1=C(C)C=CC=C1",
    "meta_data": {
        "InChI": "InChI=1S/C8H10N2S/c1-6-4-2-3-5-7(6)10-8(9)11/h2-5H,1H3,(H3,9,10,11)",
        "InChIKey": null,
        "Canonical SMILES": "S=C(N)NC=1C=CC=CC1C",
        "Molecular Formula": "C<sub>8</sub>H<sub>10</sub>N<sub>2</sub>S",
        "Molecular Mass": "166.24",
        "Melting Point": "162 °C"
    }
}