{
    "cas_no": "26385-07-9",
    "key_name": "<em>N</em>-(2-Chloroethyl)benzamide",
    "cn_name": "N-(2-氯乙基)苯甲酰胺;",
    "alternate_name": "Benzamide, <em>N</em>-(2-chloroethyl)-;<em>N</em>-(2-Chloroethyl)benzamide;NSC 520281",
    "duplicated_cas_no": "",
    "SMILES": "C(NCCCl)(=O)C1=CC=CC=C1",
    "meta_data": {
        "InChI": "InChI=1S/C9H10ClNO/c10-6-7-11-9(12)8-4-2-1-3-5-8/h1-5H,6-7H2,(H,11,12)",
        "InChIKey": null,
        "Canonical SMILES": "O=C(NCCCl)C=1C=CC=CC1",
        "Molecular Formula": "C<sub>9</sub>H<sub>10</sub>ClNO",
        "Molecular Mass": "183.63",
        "Melting Point": "105 °C"
    }
}