{
    "cas_no": "59803-98-4",
    "key_name": "Brimonidine",
    "cn_name": "溴莫尼定;5-溴-6-(咪唑啉-2-基)氨基喹喔啉;",
    "alternate_name": "6-Quinoxalinamine, 5-bromo-<em>N</em>-(4,5-dihydro-1<em>H</em>-imidazol-2-yl)-;5-Bromo-<em>N</em>-(4,5-dihydro-1<em>H</em>-imidazol-2-yl)-6-quinoxalinamine;UK 14304;5-Bromo-6-(2-imidazolin-2-ylamino)quinoxaline;UK 14304-18;Brimonidine;Bromoxidine;AGN 190342;Lyuksfen",
    "duplicated_cas_no": "109826-55-3",
    "SMILES": "BrC=1C2=C(C=CC1NC=3NCCN3)N=CC=N2",
    "meta_data": {
        "InChI": "InChI=1S/C11H10BrN5/c12-9-7(17-11-15-5-6-16-11)1-2-8-10(9)14-4-3-13-8/h1-4H,5-6H2,(H2,15,16,17)",
        "InChIKey": null,
        "Canonical SMILES": "BrC1=C2N=CC=NC2=CC=C1NC3=NCCN3",
        "Molecular Formula": "C<sub>11</sub>H<sub>10</sub>BrN<sub>5</sub>",
        "Molecular Mass": "292.13",
        "Melting Point": "252 °C"
    }
}