{
    "cas_no": "3695-00-9",
    "key_name": "4-Methyl-<em>N</em>-[(4-methylphenyl)sulfonyl]benzenesulfonamide",
    "cn_name": "4-甲基-N-[(4-甲苯基)磺酰基]苯磺酰胺;",
    "alternate_name": "Benzenesulfonamide, 4-methyl-<em>N</em>-[(4-methylphenyl)sulfonyl]-;Di-<em>p</em>-toluenesulfonamide;4-Methyl-<em>N</em>-[(4-methylphenyl)sulfonyl]benzenesulfonamide;Bis(<em>p</em>-tolylsulfonyl)amine;Di-<em>p</em>-Toluenesulfonimide;Bis(4-methylbenzenesulfon)amine;Ditosylamine;Bis(4-methylbenzenesulfonyl)amine;<em>N</em>-(<em>p</em>-Tolylsulfonyl)-<em>p</em>-toluenesulfonamide;KPTSM;NSC 1150;Bis(<em>p</em>-toluenesulfonyl)amine;<em>N</em>-(4-Methylphenylsulfonyl)-4-methylbenzenesulfonamide;Ditosylimide;Bis(4-methylbenzenesulfonyl)imide;4-Methyl-<em>N</em>-tosylbenzenesulfonamide",
    "duplicated_cas_no": "",
    "SMILES": "S(NS(=O)(=O)C1=CC=C(C)C=C1)(=O)(=O)C2=CC=C(C)C=C2",
    "meta_data": {
        "InChI": "InChI=1S/C14H15NO4S2/c1-11-3-7-13(8-4-11)20(16,17)15-21(18,19)14-9-5-12(2)6-10-14/h3-10,15H,1-2H3",
        "InChIKey": null,
        "Canonical SMILES": "O=S(=O)(NS(=O)(=O)C1=CC=C(C=C1)C)C2=CC=C(C=C2)C",
        "Molecular Formula": "C<sub>14</sub>H<sub>15</sub>NO<sub>4</sub>S<sub>2</sub>",
        "Molecular Mass": "325.40",
        "Melting Point": "171-172 °C"
    }
}