{
    "cas_no": "99705-50-7",
    "key_name": "Ethanone, 1-[3-(trifluoromethyl)phenyl]-, oxime",
    "cn_name": null,
    "alternate_name": "Ethanone, 1-[3-(trifluoromethyl)phenyl]-, oxime;3′-(Trifluoromethyl)acetophenone oxime;<em>m</em>-(Trifluoromethyl)acetophenone oxime;1-[3-(Trifluoromethyl)phenyl]ethanone oxime",
    "duplicated_cas_no": "",
    "SMILES": "C(=NO)(C)C1=CC(C(F)(F)F)=CC=C1",
    "meta_data": {
        "InChI": "InChI=1S/C9H8F3NO/c1-6(13-14)7-3-2-4-8(5-7)9(10,11)12/h2-5,14H,1H3",
        "InChIKey": null,
        "Canonical SMILES": "FC(F)(F)C=1C=CC=C(C1)C(=NO)C",
        "Molecular Formula": "C<sub>9</sub>H<sub>8</sub>F<sub>3</sub>NO",
        "Molecular Mass": "203.16",
        "Melting Point": "56-62 °C"
    }
}