{
    "cas_no": "76547-98-3",
    "key_name": "Lisinopril",
    "cn_name": null,
    "alternate_name": "<span class=\"text-smallcaps\">L</smallcap>-Proline, <em>N</em><sup>2</sup>-[(1<em>S</em>)-1-carboxy-3-phenylpropyl]-<smallcap>L</span>-lysyl-;<span class=\"text-smallcaps\">L</smallcap>-Proline, 1-[<em>N</em><sup>2</sup>-(1-carboxy-3-phenylpropyl)-<smallcap>L</span>-lysyl]-, (<em>S</em>)-;<em>N</em><sup>2</sup>-[(1<em>S</em>)-1-Carboxy-3-phenylpropyl]-<span class=\"text-smallcaps\">L</smallcap>-lysyl-<smallcap>L</span>-proline;MK 521;<em>N</em>-(1(<em>S</em>)-Carboxy-3-phenylpropyl)-<span class=\"text-smallcaps\">L</smallcap>-lysyl-<smallcap>L</span>-proline;Lisinopril;MK 522;Zestril;Prinivil;N<sup>2</sup>-[(<em>S</em>)-1-Carboxy-3-phenylpropyl]-<span class=\"text-smallcaps\">L</smallcap>-lysyl-<smallcap>L</span>-proline;Carace;Cipral;Cipril;Coric;Inopril;Acerbon;Alapril;Lipril;Lisipril;Lisoril;Lispril;Listril;Noperten;Novatec;Presiten;Prinil;Prinvil;Tensopril;Tensyn;Vivatec;Linopril;Linvas;Lisopril;Lizonoton;Nanopril;Diroton;Longes;Lisitec;Loril;Skopryl;Amicor;Irumed;Laaven;Lizinopril;Optimon;Vitopril;Lisigamma;Lisinopril Sandoz;Ranolip;MeSH ID: D017706",
    "duplicated_cas_no": "",
    "SMILES": "C([C@@H](N[C@@H](CCC1=CC=CC=C1)C(O)=O)CCCCN)(=O)N2[C@H](C(O)=O)CCC2",
    "meta_data": {
        "InChI": "InChI=1S/C21H31N3O5/c22-13-5-4-9-16(19(25)24-14-6-10-18(24)21(28)29)23-17(20(26)27)12-11-15-7-2-1-3-8-15/h1-3,7-8,16-18,23H,4-6,9-14,22H2,(H,26,27)(H,28,29)/t16-,17-,18-/m0/s1",
        "InChIKey": null,
        "Canonical SMILES": "O=C(O)C(NC(C(=O)N1CCCC1C(=O)O)CCCCN)CCC=2C=CC=CC2",
        "Molecular Formula": "C<sub>21</sub>H<sub>31</sub>N<sub>3</sub>O<sub>5</sub>",
        "Molecular Mass": "405.49",
        "Melting Point": "162-165 °C"
    }
}