{
    "cas_no": "87-10-5",
    "key_name": "3,4′,5-Tribromosalicylanilide",
    "cn_name": "3,5-二溴代水杨酰对溴苯胺;三溴沙仑;3,5-二溴-N-(4-溴代苯基)-2-羟基苯甲酰胺;",
    "alternate_name": "Benzamide, 3,5-dibromo-<em>N</em>-(4-bromophenyl)-2-hydroxy-;Salicylanilide, 3,4′,5-tribromo-;3,5-Dibromo-<em>N</em>-(4-bromophenyl)-2-hydroxybenzamide;3,5-Dibromo-6-hydroxybenz-<em>p</em>-bromanilide;Temasept II;Temasept IV;3,4′,5-Tribromosalicylanilide;Tribromsalan;Tempasept II;3,5-Dibromosalicylic acid <em>p</em>-bromoanilide;Trisanyl;Vancide TBS;Sherstat TBS;Tuasal 100;Trisanil;Agramed;WR 34912;TBS;Tuasol;NSC 20526",
    "duplicated_cas_no": "98518-05-9;12738-72-6;12770-42-2",
    "SMILES": "C(NC1=CC=C(Br)C=C1)(=O)C2=C(O)C(Br)=CC(Br)=C2",
    "meta_data": {
        "InChI": "InChI=1S/C13H8Br3NO2/c14-7-1-3-9(4-2-7)17-13(19)10-5-8(15)6-11(16)12(10)18/h1-6,18H,(H,17,19)",
        "InChIKey": null,
        "Canonical SMILES": "O=C(NC1=CC=C(Br)C=C1)C=2C=C(Br)C=C(Br)C2O",
        "Molecular Formula": "C<sub>13</sub>H<sub>8</sub>Br<sub>3</sub>NO<sub>2</sub>",
        "Molecular Mass": "449.92",
        "Melting Point": "227 °C"
    }
}