{
    "cas_no": "1746-77-6",
    "key_name": "Propan-2-yl carbamate",
    "cn_name": null,
    "alternate_name": "Carbamic acid, 1-methylethyl ester;Carbamic acid, isopropyl ester;1-Methylethyl carbamate;Isopropyl carbamate;NSC 60539;Propan-2-yl carbamate",
    "duplicated_cas_no": "",
    "SMILES": "O(C(C)C)C(N)=O",
    "meta_data": {
        "InChI": "InChI=1S/C4H9NO2/c1-3(2)7-4(5)6/h3H,1-2H3,(H2,5,6)",
        "InChIKey": null,
        "Canonical SMILES": "O=C(OC(C)C)N",
        "Molecular Formula": "C<sub>4</sub>H<sub>9</sub>NO<sub>2</sub>",
        "Molecular Mass": "103.12",
        "Boiling Point": "183 °C",
        "Melting Point": "93 °C",
        "Density": "0.9951 g/cm³ @ Temp: 66 °C"
    }
}