{
    "cas_no": "14916-79-1",
    "key_name": "3-Heptyn-1-ol",
    "cn_name": "3-庚炔-1-醇;3-庚炔-1-醇;3-庚炔-1-醇,98%;",
    "alternate_name": "3-Heptyn-1-ol;1-Hydroxy-3-heptyne",
    "duplicated_cas_no": "",
    "SMILES": "C(#CCCO)CCC",
    "meta_data": {
        "InChI": "InChI=1S/C7H12O/c1-2-3-4-5-6-7-8/h8H,2-3,6-7H2,1H3",
        "InChIKey": null,
        "Canonical SMILES": "OCCC#CCCC",
        "Molecular Formula": "C<sub>7</sub>H<sub>12</sub>O",
        "Molecular Mass": "112.17",
        "Boiling Point": "79-80 °C @ Press: 18 Torr",
        "Density": "0.8976 g/cm³ @ Temp: 20 °C"
    }
}