{
    "cas_no": "1558-24-3",
    "key_name": "Trichloro(dichloromethyl)silane",
    "cn_name": "二氯甲基三氯硅烷;",
    "alternate_name": "Silane, trichloro(dichloromethyl)-;Trichloro(dichloromethyl)silane;(Dichloromethyl)trichlorosilane;NSC 139833",
    "duplicated_cas_no": "",
    "SMILES": "[Si](C(Cl)Cl)(Cl)(Cl)Cl",
    "meta_data": {
        "InChI": "InChI=1S/CHCl5Si/c2-1(3)7(4,5)6/h1H",
        "InChIKey": null,
        "Canonical SMILES": "ClC(Cl)[Si](Cl)(Cl)Cl",
        "Molecular Formula": "CHCl<sub>5</sub>Si",
        "Molecular Mass": "218.37",
        "Boiling Point": "145 °C",
        "Density": "1.5518 g/cm³ @ Temp: 20 °C"
    }
}