{
    "cas_no": "4316-94-3",
    "key_name": "6-Chloro-5-nitropyrimidin-4-amine",
    "cn_name": null,
    "alternate_name": "4-Pyrimidinamine, 6-chloro-5-nitro-;Pyrimidine, 4-amino-6-chloro-5-nitro-;6-Chloro-5-nitro-4-pyrimidinamine;4-Amino-5-nitro-6-chloropyrimidine;4-Amino-6-chloro-5-nitropyrimidine;4-Chloro-5-nitro-6-pyrimidinylamine;NSC 401941;6-Chloro-5-nitropyrimidin-4-amine",
    "duplicated_cas_no": "127820-27-3",
    "SMILES": "N(=O)(=O)C=1C(Cl)=NC=NC1N",
    "meta_data": {
        "InChI": "InChI=1S/C4H3ClN4O2/c5-3-2(9(10)11)4(6)8-1-7-3/h1H,(H2,6,7,8)",
        "InChIKey": null,
        "Canonical SMILES": "O=N(=O)C=1C(Cl)=NC=NC1N",
        "Molecular Formula": "C<sub>4</sub>H<sub>3</sub>ClN<sub>4</sub>O<sub>2</sub>",
        "Molecular Mass": "174.55",
        "Melting Point": "155-156 °C"
    }
}