{
    "cas_no": "37067-96-2",
    "key_name": "4,5-Diiodo-1-methyl-1<em>H</em>-imidazole",
    "cn_name": null,
    "alternate_name": "1<em>H</em>-Imidazole, 4,5-diiodo-1-methyl-;4,5-Diiodo-1-methyl-1<em>H</em>-imidazole;NSC 329118;1-Methyl-4,5-diiodoimidazole;4,5-Diiodo-1-methylimidazole",
    "duplicated_cas_no": "",
    "SMILES": "IC1=C(I)N=CN1C",
    "meta_data": {
        "InChI": "InChI=1S/C4H4I2N2/c1-8-2-7-3(5)4(8)6/h2H,1H3",
        "InChIKey": null,
        "Canonical SMILES": "IC=1N=CN(C1I)C",
        "Molecular Formula": "C<sub>4</sub>H<sub>4</sub>I<sub>2</sub>N<sub>2</sub>",
        "Molecular Mass": "333.90",
        "Melting Point": "144-145 °C"
    }
}