{
    "cas_no": "132-20-7",
    "key_name": "Pheniramine maleate",
    "cn_name": "马来酸非尼拉敏;1-苯基-1-(2-吡啶基)-3-二甲氨基丙烷马来酸盐;",
    "alternate_name": "2-Pyridinepropanamine, <em>N</em>,<em>N</em>-dimethyl-γ-phenyl-, (2<em>Z</em>)-2-butenedioate (1:1);Pyridine, 2-[α-[2-(dimethylamino)ethyl]benzyl]-, maleate (1:1);Prophenpyridamine maleate;2-Pyridinepropanamine, <em>N</em>,<em>N</em>-dimethyl-γ-phenyl-, (<em>Z</em>)-2-butenedioate (1:1);Daneral;2-[α-[2-(Dimethylamino)ethyl]benzyl]pyridine bimaleate;Pheniramine maleate;1-Phenyl-1-(2-pyridyl)-3-dimethylaminopropane maleate;Trimetose;1-Phenyl-1-(2-pyridyl)-3-dimethaminopropane maleinate;Inhiston;Metron;PM 241;Pheniramine hydrogen maleate;Naphcon A;Trimeton;Antolozine",
    "duplicated_cas_no": "155683-11-7",
    "SMILES": "C(=C\\C(O)=O)\\C(O)=O.C(CCN(C)C)(C1=CC=CC=C1)C2=CC=CC=N2",
    "meta_data": {
        "InChI": "InChI=1S/C16H20N2.C4H4O4/c1-18(2)13-11-15(14-8-4-3-5-9-14)16-10-6-7-12-17-16;5-3(6)1-2-4(7)8/h3-10,12,15H,11,13H2,1-2H3;1-2H,(H,5,6)(H,7,8)/b;2-1-",
        "InChIKey": null,
        "Canonical SMILES": "O=C(O)C=CC(=O)O.N=1C=CC=CC1C(C=2C=CC=CC2)CCN(C)C",
        "Molecular Formula": "C<sub>16</sub>H<sub>20</sub>N<sub>2</sub>.C<sub>4</sub>H<sub>4</sub>O<sub>4</sub>",
        "Molecular Mass": "",
        "Melting Point": "107 °C"
    }
}