{
    "cas_no": "2657-25-2",
    "key_name": "4′-Hydroxychalcone",
    "cn_name": null,
    "alternate_name": "2-Propen-1-one, 1-(4-hydroxyphenyl)-3-phenyl-;Chalcone, 4′-hydroxy-;1-(4-Hydroxyphenyl)-3-phenyl-2-propen-1-one;4′-Hydroxychalcone;<em>p</em>-Cinnamoylphenol;4-Hydroxyphenyl styryl ketone;NSC 242264;1-(4-Hydroxyphenyl)-3-phenylpropenone",
    "duplicated_cas_no": "2098642-17-0",
    "SMILES": "C(C=CC1=CC=CC=C1)(=O)C2=CC=C(O)C=C2",
    "meta_data": {
        "InChI": "InChI=1S/C15H12O2/c16-14-9-7-13(8-10-14)15(17)11-6-12-4-2-1-3-5-12/h1-11,16H",
        "InChIKey": null,
        "Canonical SMILES": "O=C(C=CC=1C=CC=CC1)C2=CC=C(O)C=C2",
        "Molecular Formula": "C<sub>15</sub>H<sub>12</sub>O<sub>2</sub>",
        "Molecular Mass": "224.25",
        "Melting Point": "171-172 °C"
    }
}