{
    "cas_no": "16952-66-2",
    "key_name": "3-Pyridinecarboxylic acid, 4-amino-, ethyl ester",
    "cn_name": null,
    "alternate_name": "3-Pyridinecarboxylic acid, 4-amino-, ethyl ester;Nicotinic acid, 4-amino-, ethyl ester;4-Amino-3-ethoxycarbonylpyridine;Ethyl 4-aminonicotinate;Ethyl 4-amino-3-pyridinecarboxylate",
    "duplicated_cas_no": "",
    "SMILES": "C(OCC)(=O)C=1C(N)=CC=NC1",
    "meta_data": {
        "InChI": "InChI=1S/C8H10N2O2/c1-2-12-8(11)6-5-10-4-3-7(6)9/h3-5H,2H2,1H3,(H2,9,10)",
        "InChIKey": null,
        "Canonical SMILES": "O=C(OCC)C=1C=NC=CC1N",
        "Molecular Formula": "C<sub>8</sub>H<sub>10</sub>N<sub>2</sub>O<sub>2</sub>",
        "Molecular Mass": "166.18",
        "Melting Point": "109-111 °C"
    }
}