{
    "cas_no": "6876-23-9",
    "key_name": "<em>trans</em>-1,2-Dimethylcyclohexane",
    "cn_name": "反式-1,2-二甲基环己烷;反-1,2-二甲基环己烷;反式-1,2-二甲基环己烷;",
    "alternate_name": "Cyclohexane, 1,2-dimethyl-, (1<em>R</em>,2<em>R</em>)-<em>rel</em>-;Cyclohexane, 1,2-dimethyl-, <em>trans</em>-;<em>rel</em>-(1<em>R</em>,2<em>R</em>)-1,2-Dimethylcyclohexane;<em>trans</em>-1,2-Dimethylcyclohexane;1,2-<em>trans</em>-Dimethylcyclohexane;(±)-<em>trans</em>-1,2-Dimethylcyclohexane;NSC 74158",
    "duplicated_cas_no": "",
    "SMILES": "C[C@H]1[C@H](C)CCCC1",
    "meta_data": {
        "InChI": "InChI=1/C8H16/c1-7-5-3-4-6-8(7)2/h7-8H,3-6H2,1-2H3/t7-,8-/s2",
        "InChIKey": null,
        "Canonical SMILES": "CC1CCCCC1C",
        "Molecular Formula": "C<sub>8</sub>H<sub>16</sub>",
        "Molecular Mass": "112.21",
        "Boiling Point": "123.5 °C",
        "Melting Point": "-90 °C",
        "Density": "0.77204 g/cm³ @ Temp: 25 °C"
    }
}