{
    "cas_no": "105112-76-3",
    "key_name": "3,3′-[[1,1′-Biphenyl]-4,4′-diylbis(oxy)]bis[benzenamine]",
    "cn_name": "4,4\"-双(3-氨基苯氧基)联苯;",
    "alternate_name": "Benzenamine, 3,3′-[[1,1′-biphenyl]-4,4′-diylbis(oxy)]bis-;3,3′-[[1,1′-Biphenyl]-4,4′-diylbis(oxy)]bis[benzenamine];4,4′-Bis(3-aminophenoxy)biphenyl;3,3′-([1,1′-Biphenyl]-4,4′-diylbis(oxy))dianiline",
    "duplicated_cas_no": "755021-70-6",
    "SMILES": "O(C1=CC=C(C=C1)C2=CC=C(OC3=CC(N)=CC=C3)C=C2)C4=CC(N)=CC=C4",
    "meta_data": {
        "InChI": "InChI=1S/C24H20N2O2/c25-19-3-1-5-23(15-19)27-21-11-7-17(8-12-21)18-9-13-22(14-10-18)28-24-6-2-4-20(26)16-24/h1-16H,25-26H2",
        "InChIKey": null,
        "Canonical SMILES": "O(C=1C=CC(=CC1)C2=CC=C(OC3=CC=CC(N)=C3)C=C2)C4=CC=CC(N)=C4",
        "Molecular Formula": "C<sub>24</sub>H<sub>20</sub>N<sub>2</sub>O<sub>2</sub>",
        "Molecular Mass": "368.43",
        "Melting Point": "144 °C"
    }
}