{
    "cas_no": "72324-18-6",
    "key_name": "Stepronin",
    "cn_name": "司替罗宁;2-[(2-噻吩甲酰基硫)丙酰胺基]乙酸;",
    "alternate_name": "Glycine, <em>N</em>-[1-oxo-2-[(2-thienylcarbonyl)thio]propyl]-;<em>N</em>-[1-Oxo-2-[(2-thienylcarbonyl)thio]propyl]glycine;Prostenoglycine;Stepronin;Tiase;Bronco-plus;TTPG",
    "duplicated_cas_no": "",
    "SMILES": "C(SC(C(NCC(O)=O)=O)C)(=O)C1=CC=CS1",
    "meta_data": {
        "InChI": "InChI=1S/C10H11NO4S2/c1-6(9(14)11-5-8(12)13)17-10(15)7-3-2-4-16-7/h2-4,6H,5H2,1H3,(H,11,14)(H,12,13)",
        "InChIKey": null,
        "Canonical SMILES": "O=C(SC(C(=O)NCC(=O)O)C)C=1SC=CC1",
        "Molecular Formula": "C<sub>10</sub>H<sub>11</sub>NO<sub>4</sub>S<sub>2</sub>",
        "Molecular Mass": "273.33",
        "Melting Point": "168-170 °C"
    }
}