{
    "cas_no": "23133-37-1",
    "key_name": "1-Propyl-4-piperidone",
    "cn_name": "N-丙基-4-哌啶酮;",
    "alternate_name": "4-Piperidinone, 1-propyl-;4-Piperidone, 1-propyl-;1-Propyl-4-piperidinone;1-Propyl-4-piperidone;1-<em>n</em>-Propyl-4-piperidone;<em>N</em>-Propyl-4-piperidinone;<em>N</em>-Propyl-4-piperidone",
    "duplicated_cas_no": "",
    "SMILES": "C(CC)N1CCC(=O)CC1",
    "meta_data": {
        "InChI": "InChI=1S/C8H15NO/c1-2-5-9-6-3-8(10)4-7-9/h2-7H2,1H3",
        "InChIKey": null,
        "Canonical SMILES": "O=C1CCN(CC1)CCC",
        "Molecular Formula": "C<sub>8</sub>H<sub>15</sub>NO",
        "Molecular Mass": "141.21",
        "Boiling Point": "56 °C @ Press: 1 Torr"
    }
}