{
    "cas_no": "10421-85-9",
    "key_name": "2-Chloromandelic acid",
    "cn_name": "邻氯扁桃酸;2-氯扁桃酸;",
    "alternate_name": "Benzeneacetic acid, 2-chloro-α-hydroxy-;Mandelic acid, <em>o</em>-chloro-;2-Chloro-α-hydroxybenzeneacetic acid;2-Chloromandelic acid;<em>o</em>-Chloromandelic acid;(±)-<em>o</em>-Chloromandelic acid;(2-Chlorophenyl)hydroxyacetic acid;(±)-2-Hydroxy-2-(2-chlorophenyl)acetic acid;NSC 31401;(2-Chlorophenyl)glycolic acid;2-(2-Chlorophenyl)-2-(hydroxy)acetic acid;(±)-2-Chloromandelic acid",
    "duplicated_cas_no": "52923-23-6",
    "SMILES": "C(C(O)=O)(O)C1=C(Cl)C=CC=C1",
    "meta_data": {
        "InChI": "InChI=1S/C8H7ClO3/c9-6-4-2-1-3-5(6)7(10)8(11)12/h1-4,7,10H,(H,11,12)",
        "InChIKey": null,
        "Canonical SMILES": "O=C(O)C(O)C=1C=CC=CC1Cl",
        "Molecular Formula": "C<sub>8</sub>H<sub>7</sub>ClO<sub>3</sub>",
        "Molecular Mass": "186.59",
        "Melting Point": "85-85.5 °C"
    }
}