{
    "cas_no": "87562-14-9",
    "key_name": "Randaiol",
    "cn_name": null,
    "alternate_name": "[1,1′-Biphenyl]-2,2′,5-triol, 5′-(2-propen-1-yl)-;[1,1′-Biphenyl]-2,2′,5-triol, 5′-(2-propenyl)-;5′-(2-Propen-1-yl)[1,1′-biphenyl]-2,2′,5-triol;Randaiol;Magnotriol A",
    "duplicated_cas_no": "",
    "SMILES": "OC=1C(=CC(CC=C)=CC1)C2=C(O)C=CC(O)=C2",
    "meta_data": {
        "InChI": "InChI=1S/C15H14O3/c1-2-3-10-4-6-14(17)12(8-10)13-9-11(16)5-7-15(13)18/h2,4-9,16-18H,1,3H2",
        "InChIKey": null,
        "Canonical SMILES": "OC1=CC=C(O)C(=C1)C=2C=C(C=CC2O)CC=C",
        "Molecular Formula": "C<sub>15</sub>H<sub>14</sub>O<sub>3</sub>",
        "Molecular Mass": "242.27",
        "Melting Point": "99-100 °C"
    }
}