{
    "cas_no": "85006-21-9",
    "key_name": "Benzenamine, 2-chloro-5-methoxy-, hydrochloride (1:1)",
    "cn_name": null,
    "alternate_name": "Benzenamine, 2-chloro-5-methoxy-, hydrochloride (1:1);Benzenamine, 2-chloro-5-methoxy-, hydrochloride;2-Chloro-5-methoxyaniline hydrochloride;6-Chloro-<em>m</em>-anisidine hydrochloride;6-Chloro-3-methoxyaniline hydrochloride;2-Chloro-5-methoxybenzenamine hydrochloride",
    "duplicated_cas_no": "",
    "SMILES": "O(C)C1=CC(N)=C(Cl)C=C1.Cl",
    "meta_data": {
        "InChI": "InChI=1S/C7H8ClNO.ClH/c1-10-5-2-3-6(8)7(9)4-5;/h2-4H,9H2,1H3;1H",
        "InChIKey": null,
        "Canonical SMILES": "Cl.ClC1=CC=C(OC)C=C1N",
        "Molecular Formula": "C<sub>7</sub>H<sub>8</sub>ClNO.ClH",
        "Molecular Mass": "",
        "Melting Point": "203-205 °C (decomp)"
    }
}