{
    "cas_no": "3848-24-6",
    "key_name": "2,3-Hexanedione",
    "cn_name": "乙酰基丁酰;2,3-己二酮;",
    "alternate_name": "2,3-Hexanedione;Acetylbutyryl;NSC 31665",
    "duplicated_cas_no": "",
    "SMILES": "C(CCC)(C(C)=O)=O",
    "meta_data": {
        "InChI": "InChI=1S/C6H10O2/c1-3-4-6(8)5(2)7/h3-4H2,1-2H3",
        "InChIKey": null,
        "Canonical SMILES": "O=C(C(=O)CCC)C",
        "Molecular Formula": "C<sub>6</sub>H<sub>10</sub>O<sub>2</sub>",
        "Molecular Mass": "114.14",
        "Boiling Point": "128-130 °C",
        "Density": "0.9353 g/cm³ @ Temp: 20 °C"
    }
}