{
    "cas_no": "13269-19-7",
    "key_name": "2-Nitro-3-pyridinamine",
    "cn_name": "3-氨基-2-硝基吡啶;",
    "alternate_name": "3-Pyridinamine, 2-nitro-;Pyridine, 3-amino-2-nitro-;2-Nitro-3-pyridinamine;3-Amino-2-nitropyridine;2-Nitro-3-aminopyridine;2-Nitropyridin-3-amine;(2-Nitropyridin-3-yl)amine",
    "duplicated_cas_no": "",
    "SMILES": "N(=O)(=O)C1=C(N)C=CC=N1",
    "meta_data": {
        "InChI": "InChI=1S/C5H5N3O2/c6-4-2-1-3-7-5(4)8(9)10/h1-3H,6H2",
        "InChIKey": null,
        "Canonical SMILES": "O=N(=O)C1=NC=CC=C1N",
        "Molecular Formula": "C<sub>5</sub>H<sub>5</sub>N<sub>3</sub>O<sub>2</sub>",
        "Molecular Mass": "139.11",
        "Melting Point": "180-184 °C"
    }
}