{
    "cas_no": "592-87-0",
    "key_name": "Thiocyanic acid, lead(2+) salt (2:1)",
    "cn_name": "硫氰酸铅;硫氰酸铅;硫氰化铅;",
    "alternate_name": "Thiocyanic acid, lead(2+) salt (2:1);Thiocyanic acid, lead(2+) salt;Lead thiocyanate;Lead thiocyanate (Pb(SCN)<sub>2</sub>);Lead dithiocyanate;Lead(II) thiocyanate;Lead bis(thiocyanate);Lead(2+) thiocyanate",
    "duplicated_cas_no": "10382-36-2;14287-09-3;953087-97-3",
    "SMILES": "C(#N)S.[Pb]",
    "meta_data": {
        "InChI": "InChI=1S/CHNS.Pb/c2-1-3;/h3H;",
        "InChIKey": null,
        "Canonical SMILES": "[Pb].N#CS",
        "Molecular Formula": "CHNS.<sup>1</sup>/<sub>2</sub>Pb",
        "Molecular Mass": "",
        "Melting Point": "190 °C (decomp)",
        "Density": "3.82 g/cm³ @ Temp: 20 °C"
    }
}