{
    "cas_no": "91-77-0",
    "key_name": "<em>N</em><sup>2</sup>,<em>N</em><sup>2</sup>-Di-2-propen-1-yl-1,3,5-triazine-2,4,6-triamine",
    "cn_name": "N-苄基-2-吡咯烷酮;1-苄基-2-吡咯烷酮;N-苄基吡咯烷酮;1-苄基-吡咯-2-酮;1-苄基-2-吡咯二酮;1-苄基-2-吡咯;",
    "alternate_name": "1,3,5-Triazine-2,4,6-triamine, <em>N</em><sup>2</sup>,<em>N</em><sup>2</sup>-di-2-propen-1-yl-;Melamine, <em>N</em><sup>2</sup>,<em>N</em><sup>2</sup>-diallyl-;1,3,5-Triazine-2,4,6-triamine, <em>N</em>,<em>N</em>-di-2-propenyl-;<em>N</em><sup>2</sup>,<em>N</em><sup>2</sup>-Di-2-propen-1-yl-1,3,5-triazine-2,4,6-triamine;U-7720;DAM;<em>N</em>,<em>N</em>-Diallylmelamine;Upjohn 7720;Diallylmelamine;2,4-Diamino-6-diallylamino-1,3,5-triazine;NSC 4420;2-<em>N</em>,2-<em>N</em>-Bis(prop-2-enyl)-1,3,5-triazine-2,4,6-triamine",
    "duplicated_cas_no": "",
    "SMILES": "N(CC=C)(CC=C)C=1N=C(N)N=C(N)N1",
    "meta_data": {
        "InChI": "InChI=1S/C9H14N6/c1-3-5-15(6-4-2)9-13-7(10)12-8(11)14-9/h3-4H,1-2,5-6H2,(H4,10,11,12,13,14)",
        "InChIKey": null,
        "Canonical SMILES": "N=1C(=NC(=NC1N)N(CC=C)CC=C)N",
        "Molecular Formula": "C<sub>9</sub>H<sub>14</sub>N<sub>6</sub>",
        "Molecular Mass": "206.25",
        "Melting Point": "144-145 °C"
    }
}