{
    "cas_no": "3319-15-1",
    "key_name": "1-(4-Methoxyphenyl)ethanol",
    "cn_name": null,
    "alternate_name": "Benzenemethanol, 4-methoxy-α-methyl-;Benzyl alcohol, <em>p</em>-methoxy-α-methyl-;<em>p</em>-Anisyl alcohol, α-methyl-;4-Methoxy-α-methylbenzenemethanol;1-(4-Methoxyphenyl)ethanol;1-Hydroxyethyl-4-methoxybenzene;α-Methyl-4-methoxybenzyl alcohol;<em>p</em>-Methoxy-α-methylbenzyl alcohol;1-(<em>p</em>-Anisyl)ethanol;(4-Methoxyphenyl)methylcarbinol;<em>p</em>-Methoxyphenyl methyl carbinol;<em>p</em>-Methoxy-α-phenylethanol;1-(<em>p</em>-Methoxyphenyl)ethanol;(±)-1-(4-Methoxyphenyl)-1-ethanol;1-(4-Methoxyphenyl)ethan-1-ol;4-Methoxy-α-methylbenzyl alcohol;(±)-1-(4-Methoxyphenyl)ethanol;NSC 406712;(±)-1-(<em>p</em>-Methoxyphenyl)ethanol;α-Methyl-4-methoxybenzenemethanol",
    "duplicated_cas_no": "43230-31-5",
    "SMILES": "C(C)(O)C1=CC=C(OC)C=C1",
    "meta_data": {
        "InChI": "InChI=1S/C9H12O2/c1-7(10)8-3-5-9(11-2)6-4-8/h3-7,10H,1-2H3",
        "InChIKey": null,
        "Canonical SMILES": "OC(C1=CC=C(OC)C=C1)C",
        "Molecular Formula": "C<sub>9</sub>H<sub>12</sub>O<sub>2</sub>",
        "Molecular Mass": "152.19",
        "Boiling Point": "142-143 °C @ Press: 23 Torr",
        "Density": "1.0953 g/cm³ @ Temp: 0 °C"
    }
}