{
    "cas_no": "1497-49-0",
    "key_name": "Benzenamine, <em>N</em>-[5-(phenylamino)-2,4-pentadien-1-ylidene]-, hydrochloride (1:1)",
    "cn_name": "戊二烯醛缩二苯胺盐酸盐;",
    "alternate_name": "Benzenamine, <em>N</em>-[5-(phenylamino)-2,4-pentadien-1-ylidene]-, hydrochloride (1:1);Aniline, <em>N</em>,<em>N</em>′-1,3-pentadien-1-yl-5-ylidenedi-, monohydrochloride;Benzenamine, <em>N</em>-[5-(phenylamino)-2,4-pentadienylidene]-, monohydrochloride;Aniline, <em>N</em>,<em>N</em>′-1,3-pentadien-1-yl-5-ylidenedi-, hydrochloride;Pentadienedianiline hydrochloride;Glutaconaldehyde dianilide hydrochloride;Glutaconaldehyde dianil chloride;Glutaconic aldehyde dianil hydrochloride;1-Phenylamino-5-phenylimino-1,3-pentadiene hydrochloride;Glutacondianil hydrochloride;Glutaconaldehydedianyl hydrochloride;Glutaconic dialdehyde dianil hydrochloride;Glutaconaldehyde dianil hydrochloride;Glutaconaldehyde dianil hydrochloric acid salt",
    "duplicated_cas_no": "",
    "SMILES": "N(C=CC=CC=NC1=CC=CC=C1)C2=CC=CC=C2.Cl",
    "meta_data": {
        "InChI": "InChI=1S/C17H16N2.ClH/c1-4-10-16(11-5-1)18-14-8-3-9-15-19-17-12-6-2-7-13-17;/h1-15,18H;1H",
        "InChIKey": null,
        "Canonical SMILES": "Cl.N(=CC=CC=CNC=1C=CC=CC1)C=2C=CC=CC2",
        "Molecular Formula": "C<sub>17</sub>H<sub>16</sub>N<sub>2</sub>.ClH",
        "Molecular Mass": "",
        "Melting Point": "145-146 °C"
    }
}