{
    "cas_no": "39807-15-3",
    "key_name": "Oxadiargyl",
    "cn_name": null,
    "alternate_name": "1,3,4-Oxadiazol-2(3<em>H</em>)-one, 3-[2,4-dichloro-5-(2-propyn-1-yloxy)phenyl]-5-(1,1-dimethylethyl)-;1,3,4-Oxadiazol-2(3<em>H</em>)-one, 3-[2,4-dichloro-5-(2-propynyloxy)phenyl]-5-(1,1-dimethylethyl)-;3-[2,4-Dichloro-5-(2-propyn-1-yloxy)phenyl]-5-(1,1-dimethylethyl)-1,3,4-oxadiazol-2(3<em>H</em>)-one;Oxadiargyl;RP 020630;SAN-1315;Raft;Topstar;Raft 400 SC",
    "duplicated_cas_no": "",
    "SMILES": "O=C1N(N=C(C(C)(C)C)O1)C2=CC(OCC#C)=C(Cl)C=C2Cl",
    "meta_data": {
        "InChI": "InChI=1S/C15H14Cl2N2O3/c1-5-6-21-12-8-11(9(16)7-10(12)17)19-14(20)22-13(18-19)15(2,3)4/h1,7-8H,6H2,2-4H3",
        "InChIKey": null,
        "Canonical SMILES": "O=C1OC(=NN1C2=CC(OCC#C)=C(Cl)C=C2Cl)C(C)(C)C",
        "Molecular Formula": "C<sub>15</sub>H<sub>14</sub>Cl<sub>2</sub>N<sub>2</sub>O<sub>3</sub>",
        "Molecular Mass": "341.19",
        "Melting Point": "131 °C"
    }
}