{
    "cas_no": "5465-63-4",
    "key_name": "Benzenemethanamine, 2-bromo-, hydrochloride (1:1)",
    "cn_name": "2-溴苄胺盐酸盐;2-溴苯甲基胺盐酸盐;",
    "alternate_name": "Benzenemethanamine, 2-bromo-, hydrochloride (1:1);Benzenemethanamine, 2-bromo-, hydrochloride;Benzylamine, <em>o</em>-bromo-, hydrochloride;2-Bromobenzylamine hydrochloride;<em>o</em>-Bromobenzylamine hydrochloride;1-(2-Bromophenyl)methanamine hydrochloride;o-Bromobenzylamine hydrochloride;(2-Bromophenyl)methanamine hydrochloride",
    "duplicated_cas_no": "",
    "SMILES": "C(N)C1=C(Br)C=CC=C1.Cl",
    "meta_data": {
        "InChI": "InChI=1S/C7H8BrN.ClH/c8-7-4-2-1-3-6(7)5-9;/h1-4H,5,9H2;1H",
        "InChIKey": null,
        "Canonical SMILES": "Cl.BrC=1C=CC=CC1CN",
        "Molecular Formula": "C<sub>7</sub>H<sub>8</sub>BrN.ClH",
        "Molecular Mass": "",
        "Melting Point": "214-220 °C"
    }
}