{
    "cas_no": "1989-53-3",
    "key_name": "2,6-Dimethoxybenzoyl chloride",
    "cn_name": "2,6-二甲氧基苯甲酰氯;",
    "alternate_name": "Benzoyl chloride, 2,6-dimethoxy-;2,6-Dimethoxybenzoyl chloride",
    "duplicated_cas_no": "",
    "SMILES": "C(Cl)(=O)C1=C(OC)C=CC=C1OC",
    "meta_data": {
        "InChI": "InChI=1S/C9H9ClO3/c1-12-6-4-3-5-7(13-2)8(6)9(10)11/h3-5H,1-2H3",
        "InChIKey": null,
        "Canonical SMILES": "O=C(Cl)C=1C(OC)=CC=CC1OC",
        "Molecular Formula": "C<sub>9</sub>H<sub>9</sub>ClO<sub>3</sub>",
        "Molecular Mass": "200.62",
        "Boiling Point": "125-132 °C @ Press: 0.2 Torr",
        "Melting Point": "64-66 °C"
    }
}