{
    "cas_no": "6088-51-3",
    "key_name": "6,6′-Dithiobis[2-naphthalenol]",
    "cn_name": "双(6-羟基-2-萘)二硫;双(6-羟基-2-萘)二硫;6,6-二硫-2,2-二萘酚;",
    "alternate_name": "2-Naphthalenol, 6,6′-dithiobis-;2-Naphthol, 6,6′-dithiodi-;6,6′-Dithiobis[2-naphthalenol];2,2′-Dihydroxy-6,6′-dinaphthyl disulfide;DDD (analytical);(6,6′-Dihydroxy-2,2′-dinaphthyl)disulfide;NSC 87629;6,6′-Dithiodi(2-naphthol);Bis(6-hydroxy-2-naphthyl)disulfide",
    "duplicated_cas_no": "",
    "SMILES": "S(SC1=CC2=C(C=C1)C=C(O)C=C2)C3=CC4=C(C=C3)C=C(O)C=C4",
    "meta_data": {
        "InChI": "InChI=1S/C20H14O2S2/c21-17-5-1-15-11-19(7-3-13(15)9-17)23-24-20-8-4-14-10-18(22)6-2-16(14)12-20/h1-12,21-22H",
        "InChIKey": null,
        "Canonical SMILES": "OC=1C=CC2=CC(SSC3=CC=C4C=C(O)C=CC4=C3)=CC=C2C1",
        "Molecular Formula": "C<sub>20</sub>H<sub>14</sub>O<sub>2</sub>S<sub>2</sub>",
        "Molecular Mass": "350.45",
        "Melting Point": "220-221 °C"
    }
}