{
    "cas_no": "2177-47-1",
    "key_name": "2-Methylindene",
    "cn_name": "2-甲基茚;",
    "alternate_name": "1<em>H</em>-Indene, 2-methyl-;Indene, 2-methyl-;2-Methyl-1<em>H</em>-indene;2-Methylindene",
    "duplicated_cas_no": "",
    "SMILES": "CC=1CC=2C(C1)=CC=CC2",
    "meta_data": {
        "InChI": "InChI=1S/C10H10/c1-8-6-9-4-2-3-5-10(9)7-8/h2-6H,7H2,1H3",
        "InChIKey": null,
        "Canonical SMILES": "C=1C=CC2=C(C1)C=C(C)C2",
        "Molecular Formula": "C<sub>10</sub>H<sub>10</sub>",
        "Molecular Mass": "130.19",
        "Boiling Point": "208 °C",
        "Melting Point": "80 °C",
        "Density": "0.9734 g/cm³ @ Temp: 19 °C"
    }
}