{
    "cas_no": "632-24-6",
    "key_name": "2-Sulfamoylbenzoic acid",
    "cn_name": null,
    "alternate_name": "Benzoic acid, 2-(aminosulfonyl)-;Benzoic acid, <em>o</em>-sulfamoyl-;2-(Aminosulfonyl)benzoic acid;<em>o</em>-Sulfamoylbenzoic acid;2-Carboxybenzenesulfonamide;<em>o</em>-Sulfonamidobenzoic acid;2-Sulfamoylbenzoic acid;<em>o</em>-Sulfamidobenzoic acid;NSC 22975",
    "duplicated_cas_no": "",
    "SMILES": "S(N)(=O)(=O)C1=C(C(O)=O)C=CC=C1",
    "meta_data": {
        "InChI": "InChI=1S/C7H7NO4S/c8-13(11,12)6-4-2-1-3-5(6)7(9)10/h1-4H,(H,9,10)(H2,8,11,12)",
        "InChIKey": null,
        "Canonical SMILES": "O=C(O)C=1C=CC=CC1S(=O)(=O)N",
        "Molecular Formula": "C<sub>7</sub>H<sub>7</sub>NO<sub>4</sub>S",
        "Molecular Mass": "201.20",
        "Melting Point": "154-156 °C"
    }
}