{
    "cas_no": "563-79-1",
    "key_name": "2,3-Dimethyl-2-butene",
    "cn_name": "2,3-二甲基-2-丁烯;",
    "alternate_name": "2-Butene, 2,3-dimethyl-;2,3-Dimethyl-2-butene;Tetramethylethylene;1,1,2,2-Tetramethylethylene;Tetramethylethene;NSC 73907",
    "duplicated_cas_no": "",
    "SMILES": "C(=C(C)C)(C)C",
    "meta_data": {
        "InChI": "InChI=1S/C6H12/c1-5(2)6(3)4/h1-4H3",
        "InChIKey": null,
        "Canonical SMILES": "C(=C(C)C)(C)C",
        "Molecular Formula": "C<sub>6</sub>H<sub>12</sub>",
        "Molecular Mass": "84.16",
        "Boiling Point": "73.3 °C",
        "Melting Point": "-74.6 °C",
        "Density": "0.7075 g/cm³ @ Temp: 20 °C"
    }
}