{
    "cas_no": "17579-99-6",
    "key_name": "Phosphorus(1+), methyltriphenoxy-, iodide (1:1), (<em>T</em>-4)-",
    "cn_name": "甲基三苯氧碘化磷;",
    "alternate_name": "Phosphorus(1+), methyltriphenoxy-, iodide (1:1), (<em>T</em>-4)-;Phosphorus(1+), methyltriphenoxy-, iodide;Phosphorus(1+), methyltriphenoxy-, iodide, (<em>T</em>-4)-;Triphenylphosphine methiodide;Methyltriphenoxyphosphonium iodide",
    "duplicated_cas_no": "",
    "SMILES": "[P+](OC1=CC=CC=C1)(OC2=CC=CC=C2)(OC3=CC=CC=C3)C.[I-]",
    "meta_data": {
        "InChI": "InChI=1S/C19H18O3P.HI/c1-23(20-17-11-5-2-6-12-17,21-18-13-7-3-8-14-18)22-19-15-9-4-10-16-19;/h2-16H,1H3;1H/q+1;/p-1",
        "InChIKey": null,
        "Canonical SMILES": "[I-].O(C=1C=CC=CC1)[P+](OC=2C=CC=CC2)(OC=3C=CC=CC3)C",
        "Molecular Formula": "C<sub>19</sub>H<sub>18</sub>O<sub>3</sub>P.I",
        "Molecular Mass": "",
        "Melting Point": "130 °C"
    }
}