{
    "cas_no": "1121586-29-5",
    "key_name": "Benzoic acid, 4-fluoro-3-iodo-, methyl ester",
    "cn_name": null,
    "alternate_name": "Benzoic acid, 4-fluoro-3-iodo-, methyl ester;Methyl 4-fluoro-3-iodobenzoate",
    "duplicated_cas_no": "",
    "SMILES": "C(OC)(=O)C1=CC(I)=C(F)C=C1",
    "meta_data": {
        "InChI": "InChI=1S/C8H6FIO2/c1-12-8(11)5-2-3-6(9)7(10)4-5/h2-4H,1H3",
        "InChIKey": null,
        "Canonical SMILES": "O=C(OC)C1=CC=C(F)C(I)=C1",
        "Molecular Formula": "C<sub>8</sub>H<sub>6</sub>FIO<sub>2</sub>",
        "Molecular Mass": "280.03",
        "Melting Point": "42-43 °C"
    }
}