{
    "cas_no": "66799-97-1",
    "key_name": "2-Ethoxy-3-methoxybenzaldehyde",
    "cn_name": null,
    "alternate_name": "Benzaldehyde, 2-ethoxy-3-methoxy-;2-Ethoxy-3-methoxybenzaldehyde;NSC 72388",
    "duplicated_cas_no": "",
    "SMILES": "O(CC)C1=C(C=O)C=CC=C1OC",
    "meta_data": {
        "InChI": "InChI=1S/C10H12O3/c1-3-13-10-8(7-11)5-4-6-9(10)12-2/h4-7H,3H2,1-2H3",
        "InChIKey": null,
        "Canonical SMILES": "O=CC=1C=CC=C(OC)C1OCC",
        "Molecular Formula": "C<sub>10</sub>H<sub>12</sub>O<sub>3</sub>",
        "Molecular Mass": "180.20",
        "Boiling Point": "151-154 °C @ Press: 22 Torr"
    }
}