{
    "cas_no": "1012-12-0",
    "key_name": "4-[(Trimethylsilyl)oxy]benzaldehyde",
    "cn_name": "4-三甲基硅氧基-苯甲醛;",
    "alternate_name": "Benzaldehyde, 4-[(trimethylsilyl)oxy]-;Benzaldehyde, <em>p</em>-(trimethylsiloxy)-;4-[(Trimethylsilyl)oxy]benzaldehyde;4-Trimethylsiloxybenzaldehyde;4-(Trimethylsilyloxy)benzaldehyde;<em>p</em>-[(Trimethylsilyl)oxy]benzaldehyde",
    "duplicated_cas_no": "",
    "SMILES": "O([Si](C)(C)C)C1=CC=C(C=O)C=C1",
    "meta_data": {
        "InChI": "InChI=1S/C10H14O2Si/c1-13(2,3)12-10-6-4-9(8-11)5-7-10/h4-8H,1-3H3",
        "InChIKey": null,
        "Canonical SMILES": "O=CC1=CC=C(O[Si](C)(C)C)C=C1",
        "Molecular Formula": "C<sub>10</sub>H<sub>14</sub>O<sub>2</sub>Si",
        "Molecular Mass": "194.30",
        "Boiling Point": "83-84 °C @ Press: 3 Torr"
    }
}