{
    "cas_no": "1423-60-5",
    "key_name": "3-Butyn-2-one",
    "cn_name": "3-炔基-2-丁酮;",
    "alternate_name": "3-Butyn-2-one;Methyl ethynyl ketone;Ethynyl methyl ketone;Acetylacetylene;1-Butyn-3-one;Acetylethyne",
    "duplicated_cas_no": "",
    "SMILES": "C(C#C)(C)=O",
    "meta_data": {
        "InChI": "InChI=1S/C4H4O/c1-3-4(2)5/h1H,2H3",
        "InChIKey": null,
        "Canonical SMILES": "O=C(C#C)C",
        "Molecular Formula": "C<sub>4</sub>H<sub>4</sub>O",
        "Molecular Mass": "68.07",
        "Boiling Point": "84 °C",
        "Density": "0.8796 g/cm³ @ Temp: 20 °C"
    }
}