{
    "cas_no": "140-76-1",
    "key_name": "2-Methyl-5-vinylpyridine",
    "cn_name": "2-甲基-5-乙烯基吡啶;",
    "alternate_name": "Pyridine, 5-ethenyl-2-methyl-;2-Picoline, 5-vinyl-;5-Ethenyl-2-methylpyridine;2-Methyl-5-vinylpyridine;5-Vinyl-2-picoline",
    "duplicated_cas_no": "20260-76-8",
    "SMILES": "C(=C)C=1C=CC(C)=NC1",
    "meta_data": {
        "InChI": "InChI=1S/C8H9N/c1-3-8-5-4-7(2)9-6-8/h3-6H,1H2,2H3",
        "InChIKey": null,
        "Canonical SMILES": "N=1C=C(C=C)C=CC1C",
        "Molecular Formula": "C<sub>8</sub>H<sub>9</sub>N",
        "Molecular Mass": "119.16",
        "Boiling Point": "181 °C",
        "Melting Point": "-12.0 °C",
        "Density": "0.978-0.982 g/cm³ @ Temp: 20 °C"
    }
}