{
    "cas_no": "66215-27-8",
    "key_name": "Cyromazine",
    "cn_name": "环丙氨嗪;2-环丙氨基-4,6-二氨基-S-三嗪;",
    "alternate_name": "1,3,5-Triazine-2,4,6-triamine, <em>N</em><sup>2</sup>-cyclopropyl-;1,3,5-Triazine-2,4,6-triamine, <em>N</em>-cyclopropyl-;<em>N</em><sup>2</sup>-Cyclopropyl-1,3,5-triazine-2,4,6-triamine;Vetrazin;Vetrazine;Vetrazin (pesticide);2-Cyclopropylamino-4,6-diamino-<em>s</em>-triazine;CGA 72662;Larvadex;Cyclopropylmelamine;Cyromazine;<em>N</em>-Cyclopropyl-1,3,5-triazine-2,4,6-triamine;Trigard;2,4-Diamino-6-(cyclopropylamino)-<em>s</em>-triazine;Neporex;Citation;Vetrazin Liquid;Patron;Cyromazin;2,4-Diamino-6-cyclopropylamino-1,3,5-triazine",
    "duplicated_cas_no": "",
    "SMILES": "N(C=1N=C(N)N=C(N)N1)C2CC2",
    "meta_data": {
        "InChI": "InChI=1S/C6H10N6/c7-4-10-5(8)12-6(11-4)9-3-1-2-3/h3H,1-2H2,(H5,7,8,9,10,11,12)",
        "InChIKey": null,
        "Canonical SMILES": "N=1C(=NC(=NC1N)NC2CC2)N",
        "Molecular Formula": "C<sub>6</sub>H<sub>10</sub>N<sub>6</sub>",
        "Molecular Mass": "166.18",
        "Melting Point": "219-222 °C",
        "Density": "1.35 g/cm³ @ Temp: 20 °C"
    }
}