{
    "cas_no": "2973-19-5",
    "key_name": "2-(Chloromethyl)-4-nitrophenol",
    "cn_name": "2-氯甲基-4-硝基苯酚;",
    "alternate_name": "Phenol, 2-(chloromethyl)-4-nitro-;<em>o</em>-Cresol, α-chloro-4-nitro-;2-(Chloromethyl)-4-nitrophenol;2-Hydroxy-5-nitrobenzyl chloride;NSC 128135;NSC 541",
    "duplicated_cas_no": "",
    "SMILES": "C(Cl)C1=CC(N(=O)=O)=CC=C1O",
    "meta_data": {
        "InChI": "InChI=1S/C7H6ClNO3/c8-4-5-3-6(9(11)12)1-2-7(5)10/h1-3,10H,4H2",
        "InChIKey": null,
        "Canonical SMILES": "O=N(=O)C1=CC=C(O)C(=C1)CCl",
        "Molecular Formula": "C<sub>7</sub>H<sub>6</sub>ClNO<sub>3</sub>",
        "Molecular Mass": "187.58",
        "Melting Point": "129-130 °C"
    }
}