{
    "cas_no": "480-56-8",
    "key_name": "Lecanoric acid",
    "cn_name": "?粉苔酸;",
    "alternate_name": "Benzoic acid, 2,4-dihydroxy-6-methyl-, 4-carboxy-3-hydroxy-5-methylphenyl ester;Lecanoric acid;β-Resorcylic acid, 6-methyl-, 4-(6-methyl-β-resorcylate);NSC 249981",
    "duplicated_cas_no": "",
    "SMILES": "C(OC1=CC(C)=C(C(O)=O)C(O)=C1)(=O)C2=C(C)C=C(O)C=C2O",
    "meta_data": {
        "InChI": "InChI=1S/C16H14O7/c1-7-3-9(17)5-11(18)14(7)16(22)23-10-4-8(2)13(15(20)21)12(19)6-10/h3-6,17-19H,1-2H3,(H,20,21)",
        "InChIKey": null,
        "Canonical SMILES": "O=C(O)C1=C(O)C=C(OC(=O)C=2C(O)=CC(O)=CC2C)C=C1C",
        "Molecular Formula": "C<sub>16</sub>H<sub>14</sub>O<sub>7</sub>",
        "Molecular Mass": "318.28",
        "Melting Point": "176 °C"
    }
}