{
    "cas_no": "1655-57-8",
    "key_name": "<em>N</em>-(2,4-Dinitrophenyl)-<span class=\"text-smallcaps\">L</span>-leucine",
    "cn_name": null,
    "alternate_name": "<span class=\"text-smallcaps\">L</span>-Leucine, <em>N</em>-(2,4-dinitrophenyl)-;Leucine, <em>N</em>-(2,4-dinitrophenyl)-, <span class=\"text-smallcaps\">L</span>-;<em>N</em>-(2,4-Dinitrophenyl)-<span class=\"text-smallcaps\">L</span>-leucine;(2,4-Dinitrophenyl)-<span class=\"text-smallcaps\">L</span>-leucine;<em>N</em>-2,4-DNP-<span class=\"text-smallcaps\">L</span>-leucine;DNP-<span class=\"text-smallcaps\">L</span>-leucine;<span class=\"text-smallcaps\">L</span>-DNP-Leucine;NSC 89626;(2S)-2-[(2,4-Dinitrophenyl)amino]-4-methylpentanoic acid",
    "duplicated_cas_no": "",
    "SMILES": "N([C@@H](CC(C)C)C(O)=O)C1=C(N(=O)=O)C=C(N(=O)=O)C=C1",
    "meta_data": {
        "InChI": "InChI=1S/C12H15N3O6/c1-7(2)5-10(12(16)17)13-9-4-3-8(14(18)19)6-11(9)15(20)21/h3-4,6-7,10,13H,5H2,1-2H3,(H,16,17)/t10-/m0/s1",
        "InChIKey": null,
        "Canonical SMILES": "O=C(O)C(NC1=CC=C(C=C1N(=O)=O)N(=O)=O)CC(C)C",
        "Molecular Formula": "C<sub>12</sub>H<sub>15</sub>N<sub>3</sub>O<sub>6</sub>",
        "Molecular Mass": "297.26",
        "Melting Point": "101 °C"
    }
}