{
    "cas_no": "762-49-2",
    "key_name": "Ethane, 1-bromo-2-fluoro-",
    "cn_name": "1-溴-2-氟乙烷;",
    "alternate_name": "Ethane, 1-bromo-2-fluoro-;1-Bromo-2-fluoroethane;1-Fluoro-2-bromoethane;2-Fluoroethyl bromide;2-Bromofluoroethane;NSC 172603",
    "duplicated_cas_no": "",
    "SMILES": "C(CF)Br",
    "meta_data": {
        "InChI": "InChI=1S/C2H4BrF/c3-1-2-4/h1-2H2",
        "InChIKey": null,
        "Canonical SMILES": "FCCBr",
        "Molecular Formula": "C<sub>2</sub>H<sub>4</sub>BrF",
        "Molecular Mass": "126.96",
        "Boiling Point": "71-72 °C @ Press: 760 Torr",
        "Melting Point": "70-72 °C",
        "Density": "1.7044 g/cm³ @ Temp: 25 °C"
    }
}