{
    "cas_no": "203854-51-7",
    "key_name": "(3<em>R</em>)-4-(1,1-Dimethylethoxy)-3-[[(9<em>H</em>-fluoren-9-ylmethoxy)carbonyl]amino]butanoic acid",
    "cn_name": null,
    "alternate_name": "Butanoic acid, 4-(1,1-dimethylethoxy)-3-[[(9<em>H</em>-fluoren-9-ylmethoxy)carbonyl]amino]-, (3<em>R</em>)-;Butanoic acid, 4-(1,1-dimethylethoxy)-3-[[(9<em>H</em>-fluoren-9-ylmethoxy)carbonyl]amino]-, (<em>R</em>)-;(3<em>R</em>)-4-(1,1-Dimethylethoxy)-3-[[(9<em>H</em>-fluoren-9-ylmethoxy)carbonyl]amino]butanoic acid;(3R)-3-(9<em>H</em>-Fluoren-9-ylmethoxycarbonylamino)-4-[(2-methylpropan-2-yl)oxy]butanoic acid",
    "duplicated_cas_no": "",
    "SMILES": "C(OC(N[C@@H](COC(C)(C)C)CC(O)=O)=O)C1C=2C(C=3C1=CC=CC3)=CC=CC2",
    "meta_data": {
        "InChI": "InChI=1S/C23H27NO5/c1-23(2,3)29-13-15(12-21(25)26)24-22(27)28-14-20-18-10-6-4-8-16(18)17-9-5-7-11-19(17)20/h4-11,15,20H,12-14H2,1-3H3,(H,24,27)(H,25,26)/t15-/m1/s1",
        "InChIKey": null,
        "Canonical SMILES": "O=C(OCC1C=2C=CC=CC2C=3C=CC=CC31)NC(COC(C)(C)C)CC(=O)O",
        "Molecular Formula": "C<sub>23</sub>H<sub>27</sub>NO<sub>5</sub>",
        "Molecular Mass": "397.46",
        "Melting Point": "98 °C"
    }
}