{
    "cas_no": "39191-07-6",
    "key_name": "3-Chloro-<em>N</em>-methylbenzenemethanamine",
    "cn_name": "N-甲基-3-氯苄胺;",
    "alternate_name": "Benzenemethanamine, 3-chloro-<em>N</em>-methyl-;Benzylamine, <em>m</em>-chloro-<em>N</em>-methyl-;3-Chloro-<em>N</em>-methylbenzenemethanamine;3-Chloro-<em>N</em>-methylbenzylamine;(3-Chlorobenzyl)methylamine;<em>N</em>-Methyl-3-chlorobenzylamine;<em>N</em>-(3-Chlorobenzyl)-<em>N</em>-methylamine;3-Chlorobenzyl-<em>N</em>-methylamine;1-(3-Chlorophenyl)-<em>N</em>-methylmethanamine;[(3-Chlorophenyl)methyl](methyl)amine",
    "duplicated_cas_no": "",
    "SMILES": "C(NC)C1=CC(Cl)=CC=C1",
    "meta_data": {
        "InChI": "InChI=1S/C8H10ClN/c1-10-6-7-3-2-4-8(9)5-7/h2-5,10H,6H2,1H3",
        "InChIKey": null,
        "Canonical SMILES": "ClC1=CC=CC(=C1)CNC",
        "Molecular Formula": "C<sub>8</sub>H<sub>10</sub>ClN",
        "Molecular Mass": "155.62",
        "Boiling Point": "97 °C @ Press: 6.6 Torr"
    }
}