{
    "cas_no": "183718-77-6",
    "key_name": "(5<em>Z</em>,8<em>Z</em>,11<em>Z</em>,14<em>Z</em>)-<em>N</em>-(4-Hydroxyphenyl)-5,8,11,14-eicosatetraenamide",
    "cn_name": null,
    "alternate_name": "5,8,11,14-Eicosatetraenamide, <em>N</em>-(4-hydroxyphenyl)-, (5<em>Z</em>,8<em>Z</em>,11<em>Z</em>,14<em>Z</em>)-;5,8,11,14-Eicosatetraenamide, <em>N</em>-(4-hydroxyphenyl)-, (<em>all</em>-<em>Z</em>)-;(5<em>Z</em>,8<em>Z</em>,11<em>Z</em>,14<em>Z</em>)-<em>N</em>-(4-Hydroxyphenyl)-5,8,11,14-eicosatetraenamide;AM 404",
    "duplicated_cas_no": "198022-70-7",
    "SMILES": "N(C(CCC/C=C\\C/C=C\\C/C=C\\C/C=C\\CCCCC)=O)C1=CC=C(O)C=C1",
    "meta_data": {
        "InChI": "InChI=1S/C26H37NO2/c1-2-3-4-5-6-7-8-9-10-11-12-13-14-15-16-17-18-19-26(29)27-24-20-22-25(28)23-21-24/h6-7,9-10,12-13,15-16,20-23,28H,2-5,8,11,14,17-19H2,1H3,(H,27,29)/b7-6-,10-9-,13-12-,16-15-",
        "InChIKey": null,
        "Canonical SMILES": "O=C(NC1=CC=C(O)C=C1)CCCC=CCC=CCC=CCC=CCCCCC",
        "Molecular Formula": "C<sub>26</sub>H<sub>37</sub>NO<sub>2</sub>",
        "Molecular Mass": "395.58",
        "Melting Point": "51-52 °C"
    }
}