{
    "cas_no": "405-99-2",
    "key_name": "4-Fluorostyrene",
    "cn_name": "4-氟苯乙烯;对氟苯乙烯;",
    "alternate_name": "Benzene, 1-ethenyl-4-fluoro-;Styrene, <em>p</em>-fluoro-;1-Ethenyl-4-fluorobenzene;4-Fluorostyrene;<em>p</em>-Fluorostyrene;<em>p</em>-Vinylfluorobenzene;1-Fluoro-4-vinylbenzene;1-Vinyl-4-fluorobenzene;4-Fluoro-1-ethenylbenzene",
    "duplicated_cas_no": "",
    "SMILES": "C(=C)C1=CC=C(F)C=C1",
    "meta_data": {
        "InChI": "InChI=1S/C8H7F/c1-2-7-3-5-8(9)6-4-7/h2-6H,1H2",
        "InChIKey": null,
        "Canonical SMILES": "FC1=CC=C(C=C)C=C1",
        "Molecular Formula": "C<sub>8</sub>H<sub>7</sub>F",
        "Molecular Mass": "122.14",
        "Boiling Point": "29-30 °C @ Press: 4 Torr",
        "Melting Point": "-34.5 °C",
        "Density": "1.024 g/cm³ @ Temp: 20 °C"
    }
}