{
    "cas_no": "160706-62-7",
    "key_name": "1-(Phenylmethyl) (3<em>R</em>)-1,3-piperidinedicarboxylate",
    "cn_name": null,
    "alternate_name": "1,3-Piperidinedicarboxylic acid, 1-(phenylmethyl) ester, (3<em>R</em>)-;1,3-Piperidinedicarboxylic acid, 1-(phenylmethyl) ester, (<em>R</em>)-;1-(Phenylmethyl) (3<em>R</em>)-1,3-piperidinedicarboxylate;3(<em>R</em>)-<em>N</em>-(Carbobenzyloxy)-3-carboxypiperidine;(R)-1-Benzyloxycarbonylnipecotic acid;(<em>R</em>)-Piperidine-1,3-dicarboxylic acid 1-benzyl ester;(<em>R</em>)-1-(Benzyloxycarbonyl)piperidine-3-carboxylic acid;(R)-1-((Benzyloxy)carbonyl)piperidine-3-carboxylic acid;(3R)-1-[(Benzyloxy)carbonyl]piperidine-3-carboxylic acid;(3R)-1-Phenylmethoxycarbonylpiperidine-3-carboxylic acid;(R)-1-((Benzyloxy)carbonyl)piperidine-3-carboxylicacid",
    "duplicated_cas_no": "",
    "SMILES": "C(OCC1=CC=CC=C1)(=O)N2C[C@H](C(O)=O)CCC2",
    "meta_data": {
        "InChI": "InChI=1S/C14H17NO4/c16-13(17)12-7-4-8-15(9-12)14(18)19-10-11-5-2-1-3-6-11/h1-3,5-6,12H,4,7-10H2,(H,16,17)/t12-/m1/s1",
        "InChIKey": null,
        "Canonical SMILES": "O=C(OCC=1C=CC=CC1)N2CCCC(C(=O)O)C2",
        "Molecular Formula": "C<sub>14</sub>H<sub>17</sub>NO<sub>4</sub>",
        "Molecular Mass": "263.29",
        "Melting Point": "97 °C"
    }
}