{
    "cas_no": "1073-79-6",
    "key_name": "Tetrahydro-2,6-dimethyl-4<em>H</em>-pyran-4-one",
    "cn_name": null,
    "alternate_name": "4<em>H</em>-Pyran-4-one, tetrahydro-2,6-dimethyl-;Tetrahydro-2,6-dimethyl-4<em>H</em>-pyran-4-one;2,6-Dimethyltetrahydro-4-pyranone;2,6-Dimethyl-4-tetrahydropyrone;Tetrahydro-2,6-dimethylpyran-4-one;2,6-Dimethyltetrahydro-4<em>H</em>-pyran-4-one;2,6-Dimethyldihydro-2<em>H</em>-pyran-4(3<em>H</em>)-one;2,6-Dimethyloxan-4-one",
    "duplicated_cas_no": "",
    "SMILES": "O=C1CC(C)OC(C)C1",
    "meta_data": {
        "InChI": "InChI=1S/C7H12O2/c1-5-3-7(8)4-6(2)9-5/h5-6H,3-4H2,1-2H3",
        "InChIKey": null,
        "Canonical SMILES": "O=C1CC(OC(C)C1)C",
        "Molecular Formula": "C<sub>7</sub>H<sub>12</sub>O<sub>2</sub>",
        "Molecular Mass": "128.17",
        "Boiling Point": "170 °C @ Press: 737 Torr",
        "Density": "0.9856 g/cm³ @ Temp: 14 °C"
    }
}