{
    "cas_no": "5987-82-6",
    "key_name": "Oxybuprocaine hydrochloride",
    "cn_name": "盐酸丁氧普鲁卡因;4-氨基-2-丁氧基苯甲酸2-(二乙氨基)乙酯盐酸盐;奥布卡因盐酸盐;诺维辛;",
    "alternate_name": "Benzoic acid, 4-amino-3-butoxy-, 2-(diethylamino)ethyl ester, hydrochloride (1:1);Benzoic acid, 4-amino-3-butoxy-, 2-(diethylamino)ethyl ester, monohydrochloride;2-(Diethylamino)ethyl 4-amino-3-butoxybenzoate hydrochloride;Dorsacaine hydrochloride;Benoxinate hydrochloride;Novesine;Novesin;Dorsacaine;Oxybuprocaine hydrochloride;Conjucaine;Boxinate;Benoxil;Cebesine;Conjuncain;Lacrimin;Minims",
    "duplicated_cas_no": "",
    "SMILES": "C(OCCN(CC)CC)(=O)C1=CC(OCCCC)=C(N)C=C1.Cl",
    "meta_data": {
        "InChI": "InChI=1S/C17H28N2O3.ClH/c1-4-7-11-21-16-13-14(8-9-15(16)18)17(20)22-12-10-19(5-2)6-3;/h8-9,13H,4-7,10-12,18H2,1-3H3;1H",
        "InChIKey": null,
        "Canonical SMILES": "Cl.O=C(OCCN(CC)CC)C1=CC=C(N)C(OCCCC)=C1",
        "Molecular Formula": "C<sub>17</sub>H<sub>28</sub>N<sub>2</sub>O<sub>3</sub>.ClH",
        "Molecular Mass": "",
        "Melting Point": "155 °C"
    }
}