{
    "cas_no": "2579-20-6",
    "key_name": "1,3-Bis(aminomethyl)cyclohexane",
    "cn_name": "1,3-环己二甲胺;",
    "alternate_name": "1,3-Cyclohexanedimethanamine;1,3-Cyclohexanebis(methylamine);1,3-Di(aminomethyl)cyclohexane;1,3-Bis(aminomethyl)cyclohexane;<em>m</em>-Bis(aminomethyl)cyclohexane;[[3-(Aminomethyl)cyclohexyl]methyl]amine;1,3-Bis(methylamine)cyclohexane;1,3-BAC;B 2413;Baxxodur EC 2120;Hydrogenated <em>m</em>-xylylenediamine;[3-(Aminomethyl)cyclohexyl]methanamine;1,3-Cyclohexanedimethylamine;Daitocurar B 2413;Hydrogenated <em>m</em>-XDA",
    "duplicated_cas_no": "",
    "SMILES": "C(N)C1CC(CN)CCC1",
    "meta_data": {
        "InChI": "InChI=1S/C8H18N2/c9-5-7-2-1-3-8(4-7)6-10/h7-8H,1-6,9-10H2",
        "InChIKey": null,
        "Canonical SMILES": "NCC1CCCC(CN)C1",
        "Molecular Formula": "C<sub>8</sub>H<sub>18</sub>N<sub>2</sub>",
        "Molecular Mass": "142.24",
        "Boiling Point": "220 °C",
        "Melting Point": "&lt;-70 °C"
    }
}