{
    "cas_no": "335-27-3",
    "key_name": "Perfluoro(1,3-dimethylcyclohexane)",
    "cn_name": null,
    "alternate_name": "Cyclohexane, 1,1,2,2,3,3,4,5,5,6-decafluoro-4,6-bis(trifluoromethyl)-;Cyclohexane, decafluoro-1,3-bis(trifluoromethyl)-;1,1,2,2,3,3,4,5,5,6-Decafluoro-4,6-bis(trifluoromethyl)cyclohexane;Perfluoro(1,3-dimethylcyclohexane);Decafluoro-1,3-bis(trifluoromethyl)cyclohexane;Flutec PP 3;PP 3;Carbogal;Flutec PC 3;NSC 4782",
    "duplicated_cas_no": "79956-40-4",
    "SMILES": "C(F)(F)(F)C1(F)C(F)(F)C(C(F)(F)F)(F)C(F)(F)C(F)(F)C1(F)F",
    "meta_data": {
        "InChI": "InChI=1S/C8F16/c9-1(7(19,20)21)3(11,12)2(10,8(22,23)24)5(15,16)6(17,18)4(1,13)14",
        "InChIKey": null,
        "Canonical SMILES": "FC(F)(F)C1(F)C(F)(F)C(F)(F)C(F)(F)C(F)(C(F)(F)F)C1(F)F",
        "Molecular Formula": "C<sub>8</sub>F<sub>16</sub>",
        "Molecular Mass": "400.06",
        "Boiling Point": "102 °C",
        "Melting Point": "-70 °C",
        "Density": "1.8560 g/cm³ @ Temp: 20 °C"
    }
}