{
    "cas_no": "102-86-3",
    "key_name": "Trihexylamine",
    "cn_name": "三正己胺;三己胺;三正己胺;三正己基胺;三-N-己基胺;",
    "alternate_name": "1-Hexanamine, <em>N</em>,<em>N</em>-dihexyl-;Trihexylamine;<em>N</em>,<em>N</em>-Dihexyl-1-hexanamine;Tri-<em>n</em>-hexylamine;NSC 409786",
    "duplicated_cas_no": "45235-09-4",
    "SMILES": "N(CCCCCC)(CCCCCC)CCCCCC",
    "meta_data": {
        "InChI": "InChI=1S/C18H39N/c1-4-7-10-13-16-19(17-14-11-8-5-2)18-15-12-9-6-3/h4-18H2,1-3H3",
        "InChIKey": null,
        "Canonical SMILES": "N(CCCCCC)(CCCCCC)CCCCCC",
        "Molecular Formula": "C<sub>18</sub>H<sub>39</sub>N",
        "Molecular Mass": "269.51",
        "Boiling Point": "261.7 °C"
    }
}