{
    "cas_no": "621-95-4",
    "key_name": "4,4′-Ethylenedianiline",
    "cn_name": "4,4\"-二氨基联苄;",
    "alternate_name": "Benzenamine, 4,4′-(1,2-ethanediyl)bis-;α,α′-Bi-<em>p</em>-toluidine;4,4′-(1,2-Ethanediyl)bis[benzenamine];4,4′-Diaminobibenzyl;1,2-Bis(<em>p</em>-aminophenyl)ethane;1,2-Bis(4-aminophenyl)ethane;4,4′-Ethylenedianiline;4,4′-Diaminodibenzyl;4,4′-Dibenzyldiamine;4,4′-Diaminodiphenylethane;<em>p</em>,<em>p</em>′-Diaminobibenzyl;<em>p</em>,<em>p</em>′-Diaminodibenzyl;4,4′-Ethylenebisaniline;NSC 44062;NSC 580;NSC 60033;1,2-Di(4-aminophenyl)ethane;4,4′-Diamino-1,2-diphenylethane;4,4′-(Ethane-1,2-diyl)dianiline",
    "duplicated_cas_no": "35860-42-5",
    "SMILES": "C(CC1=CC=C(N)C=C1)C2=CC=C(N)C=C2",
    "meta_data": {
        "InChI": "InChI=1S/C14H16N2/c15-13-7-3-11(4-8-13)1-2-12-5-9-14(16)10-6-12/h3-10H,1-2,15-16H2",
        "InChIKey": null,
        "Canonical SMILES": "NC1=CC=C(C=C1)CCC2=CC=C(N)C=C2",
        "Molecular Formula": "C<sub>14</sub>H<sub>16</sub>N<sub>2</sub>",
        "Molecular Mass": "212.29",
        "Melting Point": "137 °C"
    }
}