{
    "cas_no": "74586-53-1",
    "key_name": "3-Bromo-5-methylbenzenamine",
    "cn_name": null,
    "alternate_name": "Benzenamine, 3-bromo-5-methyl-;3-Bromo-5-methylbenzenamine;3-Bromo-5-methylaniline;(3-Bromo-5-methylphenyl)amine",
    "duplicated_cas_no": "",
    "SMILES": "BrC1=CC(C)=CC(N)=C1",
    "meta_data": {
        "InChI": "InChI=1S/C7H8BrN/c1-5-2-6(8)4-7(9)3-5/h2-4H,9H2,1H3",
        "InChIKey": null,
        "Canonical SMILES": "BrC=1C=C(N)C=C(C1)C",
        "Molecular Formula": "C<sub>7</sub>H<sub>8</sub>BrN",
        "Molecular Mass": "186.05",
        "Boiling Point": "150-151 °C @ Press: 15 Torr"
    }
}