{
    "cas_no": "836-79-3",
    "key_name": "4-Hydroxy-α,α-bis(trifluoromethyl)benzenemethanol",
    "cn_name": null,
    "alternate_name": "Benzenemethanol, 4-hydroxy-α,α-bis(trifluoromethyl)-;Benzyl alcohol, <em>p</em>-hydroxy-α,α-bis(trifluoromethyl)-;4-Hydroxy-α,α-bis(trifluoromethyl)benzenemethanol;4-(2,2,2-Trifluoro-1-hydroxy-1-trifluoromethylethyl)phenol;2-(4-Hydroxyphenyl)hexafluoropropan-2-ol",
    "duplicated_cas_no": "",
    "SMILES": "C(C(F)(F)F)(C(F)(F)F)(O)C1=CC=C(O)C=C1",
    "meta_data": {
        "InChI": "InChI=1S/C9H6F6O2/c10-8(11,12)7(17,9(13,14)15)5-1-3-6(16)4-2-5/h1-4,16-17H",
        "InChIKey": null,
        "Canonical SMILES": "FC(F)(F)C(O)(C1=CC=C(O)C=C1)C(F)(F)F",
        "Molecular Formula": "C<sub>9</sub>H<sub>6</sub>F<sub>6</sub>O<sub>2</sub>",
        "Molecular Mass": "260.13",
        "Melting Point": "122.5-123.5 °C"
    }
}