{
    "cas_no": "19398-53-9",
    "key_name": "2,4-Dibromopentane",
    "cn_name": null,
    "alternate_name": "Pentane, 2,4-dibromo-;2,4-Dibromopentane",
    "duplicated_cas_no": "",
    "SMILES": "C(C(Br)C)C(Br)C",
    "meta_data": {
        "InChI": "InChI=1S/C5H10Br2/c1-4(6)3-5(2)7/h4-5H,3H2,1-2H3",
        "InChIKey": null,
        "Canonical SMILES": "BrC(C)CC(Br)C",
        "Molecular Formula": "C<sub>5</sub>H<sub>10</sub>Br<sub>2</sub>",
        "Molecular Mass": "229.94",
        "Boiling Point": "70 °C @ Press: 17 Torr",
        "Density": "1.6302 g/cm³ @ Temp: 20 °C"
    }
}