{
    "cas_no": "27311-52-0",
    "key_name": "Phenol, 2,2′-methylenebis[4-amino-, hydrochloride (1:2)",
    "cn_name": null,
    "alternate_name": "Phenol, 2,2′-methylenebis[4-amino-, hydrochloride (1:2);Phenol, 2,2′-methylenebis[4-amino-, dihydrochloride",
    "duplicated_cas_no": "",
    "SMILES": "C(C1=C(O)C=CC(N)=C1)C2=C(O)C=CC(N)=C2.Cl",
    "meta_data": {
        "InChI": "InChI=1S/C13H14N2O2.2ClH/c14-10-1-3-12(16)8(6-10)5-9-7-11(15)2-4-13(9)17;;/h1-4,6-7,16-17H,5,14-15H2;2*1H",
        "InChIKey": null,
        "Canonical SMILES": "Cl.OC1=CC=C(N)C=C1CC2=CC(N)=CC=C2O",
        "Molecular Formula": "C<sub>13</sub>H<sub>14</sub>N<sub>2</sub>O<sub>2</sub>.2ClH",
        "Molecular Mass": "",
        "Melting Point": "&gt;300 °C"
    }
}