{
    "cas_no": "18027-45-7",
    "key_name": "Phenyltris(dimethylsiloxy)silane",
    "cn_name": "苯基三(二甲基硅氧烷基)硅烷;",
    "alternate_name": "Trisiloxane, 3-[(dimethylsilyl)oxy]-1,1,5,5-tetramethyl-3-phenyl-;Trisiloxane, 3-(dimethylsiloxy)-1,1,5,5-tetramethyl-3-phenyl-;3-[(Dimethylsilyl)oxy]-1,1,5,5-tetramethyl-3-phenyltrisiloxane;Phenyltris(dimethylsiloxy)silane;Tris(dimethylhydrogensiloxy)phenylsilane;Tris(dimethylsiloxy)phenylsilane;P 0660;X 93-916;3-Dimethylsilyloxy-3-phenyl-1,1,5,5-tetramethyltrisiloxane;Tris(dimethylsilyloxy)phenylsilane;SIP 6826.0;SIP 6826;3-(Dimethylsilyloxy)-1,1,5,5-tetramethyl-3-phenyltrisiloxane;Tri(dimethylsiloxy)phenylsilane;UC 235",
    "duplicated_cas_no": "",
    "SMILES": "[Si](O[SiH](C)C)(O[SiH](C)C)(O[SiH](C)C)C1=CC=CC=C1",
    "meta_data": {
        "InChI": "InChI=1S/C12H26O3Si4/c1-16(2)13-19(14-17(3)4,15-18(5)6)12-10-8-7-9-11-12/h7-11,16-18H,1-6H3",
        "InChIKey": null,
        "Canonical SMILES": "O([SiH](C)C)[Si](O[SiH](C)C)(O[SiH](C)C)C=1C=CC=CC1",
        "Molecular Formula": "C<sub>12</sub>H<sub>26</sub>O<sub>3</sub>Si<sub>4</sub>",
        "Molecular Mass": "330.67",
        "Boiling Point": "91 °C @ Press: 2 Torr",
        "Density": "0.942 g/cm³"
    }
}