{
    "cas_no": "38870-89-2",
    "key_name": "Methoxyacetyl chloride",
    "cn_name": "甲氧基乙酰氯;",
    "alternate_name": "Acetyl chloride, 2-methoxy-;Acetyl chloride, methoxy-;2-Methoxyacetyl chloride;Methoxyacetyl chloride;α-Methoxyacetyl chloride;Methoxyacetic acid chloride;NSC 82321",
    "duplicated_cas_no": "",
    "SMILES": "C(C(Cl)=O)OC",
    "meta_data": {
        "InChI": "InChI=1S/C3H5ClO2/c1-6-2-3(4)5/h2H2,1H3",
        "InChIKey": null,
        "Canonical SMILES": "O=C(Cl)COC",
        "Molecular Formula": "C<sub>3</sub>H<sub>5</sub>ClO<sub>2</sub>",
        "Molecular Mass": "108.52",
        "Boiling Point": "112.5 °C"
    }
}