{
    "cas_no": "147150-35-4",
    "key_name": "Cloransulam-methyl",
    "cn_name": "3-氯-2-[(5-乙氧基-7-氟-[1,2,4]三唑并[5,1-C]嘧啶-2-基)磺酰氨基]苯甲酸甲酯;",
    "alternate_name": "Benzoic acid, 3-chloro-2-[[(5-ethoxy-7-fluoro[1,2,4]triazolo[1,5-<em>c</em>]pyrimidin-2-yl)sulfonyl]amino]-, methyl ester;[1,2,4]Triazolo[1,5-<em>c</em>]pyrimidine, benzoic acid deriv.;Cloransulam-methyl;DE 565;Cloransulam methyl ester;FirstRate;Chloransulam-methyl",
    "duplicated_cas_no": "",
    "SMILES": "O(CC)C=1N2C(=NC(S(NC3=C(C(OC)=O)C=CC=C3Cl)(=O)=O)=N2)C=C(F)N1",
    "meta_data": {
        "InChI": "InChI=1S/C15H13ClFN5O5S/c1-3-27-15-18-10(17)7-11-19-14(20-22(11)15)28(24,25)21-12-8(13(23)26-2)5-4-6-9(12)16/h4-7,21H,3H2,1-2H3",
        "InChIKey": null,
        "Canonical SMILES": "O=C(OC)C=1C=CC=C(Cl)C1NS(=O)(=O)C=2N=C3C=C(F)N=C(OCC)N3N2",
        "Molecular Formula": "C<sub>15</sub>H<sub>13</sub>ClFN<sub>5</sub>O<sub>5</sub>S",
        "Molecular Mass": "429.81",
        "Melting Point": "216-218 °C",
        "Density": "1.538 g/cm³ @ Temp: 20 °C"
    }
}