{
    "cas_no": "20676-54-4",
    "key_name": "Methyl 2-(acetylamino)-5-chlorobenzoate",
    "cn_name": "2-乙酰氨基-5-氯苯甲酸甲酯;",
    "alternate_name": "Benzoic acid, 2-(acetylamino)-5-chloro-, methyl ester;Anthranilic acid, <em>N</em>-acetyl-5-chloro-, methyl ester;Methyl 2-(acetylamino)-5-chlorobenzoate;Methyl <em>N</em>-acetyl-5-chloroanthranilate;Methyl 5-chloro-<em>N</em>-acetylanthranilate;2-Acetylamino-5-chloro-benzoic acid methyl ester",
    "duplicated_cas_no": "",
    "SMILES": "N(C(C)=O)C1=C(C(OC)=O)C=C(Cl)C=C1",
    "meta_data": {
        "InChI": "InChI=1S/C10H10ClNO3/c1-6(13)12-9-4-3-7(11)5-8(9)10(14)15-2/h3-5H,1-2H3,(H,12,13)",
        "InChIKey": null,
        "Canonical SMILES": "O=C(OC)C1=CC(Cl)=CC=C1NC(=O)C",
        "Molecular Formula": "C<sub>10</sub>H<sub>10</sub>ClNO<sub>3</sub>",
        "Molecular Mass": "227.64",
        "Melting Point": "130 °C"
    }
}