{
    "cas_no": "72459-58-6",
    "key_name": "Triazoxide",
    "cn_name": "咪唑嗪;7-氯-3-咪唑-1-基-1，2，4-苯并三嗪-氧化物;",
    "alternate_name": "1,2,4-Benzotriazine, 7-chloro-3-(1<em>H</em>-imidazol-1-yl)-, 1-oxide;Triazoxide",
    "duplicated_cas_no": "",
    "SMILES": "O=N=1C2=C(N=C(N1)N3C=CN=C3)C=CC(Cl)=C2",
    "meta_data": {
        "InChI": "InChI=1S/C10H6ClN5O/c11-7-1-2-8-9(5-7)16(17)14-10(13-8)15-4-3-12-6-15/h1-6H",
        "InChIKey": null,
        "Canonical SMILES": "O=N=1N=C(N=C2C=CC(Cl)=CC21)N3C=NC=C3",
        "Molecular Formula": "C<sub>10</sub>H<sub>6</sub>ClN<sub>5</sub>O",
        "Molecular Mass": "247.64",
        "Melting Point": "182 °C"
    }
}