{
    "cas_no": "1821-12-1",
    "key_name": "4-Phenylbutyric acid",
    "cn_name": "苯丁酸;4-苯基丁酸;",
    "alternate_name": "Benzenebutanoic acid;Butyric acid, 4-phenyl-;Butyric acid, γ-phenyl-;4-Phenylbutyric acid;Benzenebutyric acid;γ-Phenylbutyric acid;4-Phenylbutanoic acid;ω-Phenylbutanoic acid;γ-Phenylbutanoic acid;4-Phenyl-<em>n</em>-butyric acid;NSC 295",
    "duplicated_cas_no": "",
    "SMILES": "C(CCC(O)=O)C1=CC=CC=C1",
    "meta_data": {
        "InChI": "InChI=1S/C10H12O2/c11-10(12)8-4-7-9-5-2-1-3-6-9/h1-3,5-6H,4,7-8H2,(H,11,12)",
        "InChIKey": null,
        "Canonical SMILES": "O=C(O)CCCC=1C=CC=CC1",
        "Molecular Formula": "C<sub>10</sub>H<sub>12</sub>O<sub>2</sub>",
        "Molecular Mass": "164.20",
        "Boiling Point": "290 °C",
        "Melting Point": "52 °C"
    }
}