{
    "cas_no": "35139-67-4",
    "key_name": "2,4-Diamino-6-chloropyrimidine 3-oxide",
    "cn_name": "2,6-二氨基-4-氯嘧啶-1-氧化物;",
    "alternate_name": "2,4-Pyrimidinediamine, 6-chloro-, 3-oxide;2,4-Diamino-6-chloropyrimidine 3-oxide;6-Chloro-2,4-diaminopyrimidine 3-oxide;6-Chloro-2,4-pyrimidinediamine 3-oxide;2,4-Diamino-6-chloropyrimidine 3-<em>N</em>-oxide;NSC 137211;2,6-Diamino-4-chloropyrimidine 1-oxide",
    "duplicated_cas_no": "",
    "SMILES": "O=N1=C(N)C=C(Cl)N=C1N",
    "meta_data": {
        "InChI": "InChI=1S/C4H5ClN4O/c5-2-1-3(6)9(10)4(7)8-2/h1H,6H2,(H2,7,8)",
        "InChIKey": null,
        "Canonical SMILES": "O=N=1C(=NC(Cl)=CC1N)N",
        "Molecular Formula": "C<sub>4</sub>H<sub>5</sub>ClN<sub>4</sub>O",
        "Molecular Mass": "160.56",
        "Melting Point": "193 °C"
    }
}