{
    "cas_no": "7152-03-6",
    "key_name": "Cyclopropyl(4-methoxyphenyl)methanone",
    "cn_name": "4-甲氧基苯基环丙基甲酮;",
    "alternate_name": "Methanone, cyclopropyl(4-methoxyphenyl)-;Ketone, cyclopropyl <em>p</em>-methoxyphenyl;Cyclopropyl(4-methoxyphenyl)methanone;Cyclopropyl 4-methoxyphenyl ketone;<em>p</em>-Anisoylcyclopropane;<em>p</em>-Anisyl cyclopropyl ketone;Cyclopropyl <em>p</em>-methoxyphenyl ketone;4-Methoxyphenyl cyclopropyl ketone;NSC 71980",
    "duplicated_cas_no": "",
    "SMILES": "C(=O)(C1=CC=C(OC)C=C1)C2CC2",
    "meta_data": {
        "InChI": "InChI=1S/C11H12O2/c1-13-10-6-4-9(5-7-10)11(12)8-2-3-8/h4-8H,2-3H2,1H3",
        "InChIKey": null,
        "Canonical SMILES": "O=C(C1=CC=C(OC)C=C1)C2CC2",
        "Molecular Formula": "C<sub>11</sub>H<sub>12</sub>O<sub>2</sub>",
        "Molecular Mass": "176.21",
        "Melting Point": "41-42 °C"
    }
}