{
    "cas_no": "4425-82-5",
    "key_name": "Dibenzofulvene",
    "cn_name": null,
    "alternate_name": "9<em>H</em>-Fluorene, 9-methylene-;Fluorene, 9-methylene-;9-Methylene-9<em>H</em>-fluorene;Dibenzofulvene;Dibenzfulvene;1,2:3,4-Dibenzofulvene;9-Methylenefluorene;Fluorenylidenemethane;9-Methylidenefluorene",
    "duplicated_cas_no": "",
    "SMILES": "C=C1C=2C(C=3C1=CC=CC3)=CC=CC2",
    "meta_data": {
        "InChI": "InChI=1S/C14H10/c1-10-11-6-2-4-8-13(11)14-9-5-3-7-12(10)14/h2-9H,1H2",
        "InChIKey": null,
        "Canonical SMILES": "C=C1C=2C=CC=CC2C=3C=CC=CC13",
        "Molecular Formula": "C<sub>14</sub>H<sub>10</sub>",
        "Molecular Mass": "178.23",
        "Melting Point": "46-48 °C"
    }
}