{
    "cas_no": "2439-35-2",
    "key_name": "Dimethylaminoethyl acrylate",
    "cn_name": null,
    "alternate_name": "2-Propenoic acid, 2-(dimethylamino)ethyl ester;Acrylic acid, 2-(dimethylamino)ethyl ester;Dimethylaminoethyl acrylate;2-(Dimethylamino)ethyl acrylate;<em>N</em>,<em>N</em>-Dimethylaminoethyl acrylate;DMAEA;NSC 20952;Acryloyloxyethyldimethylamine;[2-(Acryloyloxy)ethyl]dimethylamine;Norsocryl ADAME;ADAME;Aron DA;2-(Dimethylamino)ethyl prop-2-enoate",
    "duplicated_cas_no": "202667-60-5;254887-68-8",
    "SMILES": "C(OCCN(C)C)(C=C)=O",
    "meta_data": {
        "InChI": "InChI=1S/C7H13NO2/c1-4-7(9)10-6-5-8(2)3/h4H,1,5-6H2,2-3H3",
        "InChIKey": null,
        "Canonical SMILES": "O=C(OCCN(C)C)C=C",
        "Molecular Formula": "C<sub>7</sub>H<sub>13</sub>NO<sub>2</sub>",
        "Molecular Mass": "143.18",
        "Boiling Point": "59.5-61.5 °C @ Press: 11 Torr"
    }
}