{
    "cas_no": "366-49-4",
    "key_name": "<em>N</em>-(5-Fluoro-2-methylphenyl)acetamide",
    "cn_name": null,
    "alternate_name": "Acetamide, <em>N</em>-(5-fluoro-2-methylphenyl)-;<em>o</em>-Acetotoluidide, 5′-fluoro-;<em>N</em>-(5-Fluoro-2-methylphenyl)acetamide;2-Acetamido-4-fluorotoluene;5′-Fluoro-<em>o</em>-acetotoluidide",
    "duplicated_cas_no": "",
    "SMILES": "N(C(C)=O)C1=C(C)C=CC(F)=C1",
    "meta_data": {
        "InChI": "InChI=1S/C9H10FNO/c1-6-3-4-8(10)5-9(6)11-7(2)12/h3-5H,1-2H3,(H,11,12)",
        "InChIKey": null,
        "Canonical SMILES": "O=C(NC1=CC(F)=CC=C1C)C",
        "Molecular Formula": "C<sub>9</sub>H<sub>10</sub>FNO",
        "Molecular Mass": "167.18",
        "Melting Point": "111-115 °C"
    }
}