{
    "cas_no": "82-50-8",
    "key_name": "9,10-Dihydro-5-nitro-9,10-dioxo-1-anthracenesulfonic acid",
    "cn_name": null,
    "alternate_name": "1-Anthracenesulfonic acid, 9,10-dihydro-5-nitro-9,10-dioxo-;1-Anthraquinonesulfonic acid, 5-nitro-;9,10-Dihydro-5-nitro-9,10-dioxo-1-anthracenesulfonic acid;1-Nitro-5-sulfoanthraquinone;5-Nitroanthraquinone-1-sulfonic acid;1-Nitro-5-anthraquinonesulfonic acid;1-Nitro-5-sulfonate-9,10-anthraquinone;NSC 5535",
    "duplicated_cas_no": "",
    "SMILES": "S(=O)(=O)(O)C1=C2C(C(=O)C=3C(C2=O)=CC=CC3N(=O)=O)=CC=C1",
    "meta_data": {
        "InChI": "InChI=1S/C14H7NO7S/c16-13-8-4-2-6-10(23(20,21)22)12(8)14(17)7-3-1-5-9(11(7)13)15(18)19/h1-6H,(H,20,21,22)",
        "InChIKey": null,
        "Canonical SMILES": "O=C1C2=CC=CC(=C2C(=O)C3=CC=CC(=C13)N(=O)=O)S(=O)(=O)O",
        "Molecular Formula": "C<sub>14</sub>H<sub>7</sub>NO<sub>7</sub>S",
        "Molecular Mass": "333.27",
        "Melting Point": "348-350 °C"
    }
}