{
    "cas_no": "107-30-2",
    "key_name": "Chloromethyl methyl ether",
    "cn_name": "氯甲基甲醚;甲基氯甲醚;氯二甲醚;氯甲甲醚;",
    "alternate_name": "Methane, chloromethoxy-;Ether, chloromethyl methyl;Chloromethoxymethane;Chlorodimethyl ether;Chloromethyl methyl ether;Monochlorodimethyl ether;Methyl chloromethyl ether;Methoxymethyl chloride;Methoxychloromethane;Monochloromethyl methyl ether;NSC 21208;NSC 93873;Monochlorodimethylene ether;1-Chloro-1-methoxy methane;MOMCl",
    "duplicated_cas_no": "2775252-81-6",
    "SMILES": "C(OC)Cl",
    "meta_data": {
        "InChI": "InChI=1S/C2H5ClO/c1-4-2-3/h2H2,1H3",
        "InChIKey": null,
        "Canonical SMILES": "ClCOC",
        "Molecular Formula": "C<sub>2</sub>H<sub>5</sub>ClO",
        "Molecular Mass": "80.51",
        "Boiling Point": "59.5 °C",
        "Melting Point": "-103.5 °C",
        "Density": "1.0603 g/cm³ @ Temp: 20 °C"
    }
}