{
    "cas_no": "4229-44-1",
    "key_name": "<em>N</em>-Methylhydroxylamine hydrochloride",
    "cn_name": "N-甲基羟胺盐酸盐;",
    "alternate_name": "Methanamine, <em>N</em>-hydroxy-, hydrochloride (1:1);Hydroxylamine, <em>N</em>-methyl-, hydrochloride;Methanamine, <em>N</em>-hydroxy-, hydrochloride;<em>N</em>-Methylhydroxylamine hydrochloride;<em>N</em>-Methylhydroxylammonium chloride;Methylhydroxylammonium chloride;Methylhydroxylamine hydrochloride;<em>N</em>-Hydroxymethanamine hydrochloride;<em>N</em>-Hydroxy-<em>N</em>-methanamine hydrochloride;<em>N</em>-Hydroxy-<em>N</em>-methylammonium chloride;<em>N</em>-Hydroxymethylamine hydrochloride;<em>N</em>-Methylhydroxylamine monohydrochloride;<em>N</em>-Methylhydroxyamine hydrochloride",
    "duplicated_cas_no": "52716-10-6",
    "SMILES": "N(C)O.Cl",
    "meta_data": {
        "InChI": "InChI=1S/CH5NO.ClH/c1-2-3;/h2-3H,1H3;1H",
        "InChIKey": null,
        "Canonical SMILES": "Cl.ONC",
        "Molecular Formula": "CH<sub>5</sub>NO.ClH",
        "Molecular Mass": "",
        "Melting Point": "84.5-86.0 °C",
        "Density": "1.36 g/cm³"
    }
}