{
    "cas_no": "144-90-1",
    "key_name": "β-Aminoisobutyric acid",
    "cn_name": null,
    "alternate_name": "Propanoic acid, 3-amino-2-methyl-;3-Amino-2-methylpropanoic acid;β-Aminoisobutyric acid;α-Methyl-β-alanine;2-Methyl-3-aminopropionic acid;3-Aminoisobutyric acid;2-Methyl-β-alanine;3-Amino-2-methylpropionic acid;<span class=\"text-smallcaps\">D</smallcap><smallcap>L</span>-2-Methyl-β-alanine;(±)-3-Amino-2-methylpropanoic acid;(±)-β-Aminoisobutyric acid;(±)-3-Aminoisobutyric acid;<span class=\"text-smallcaps\">D</smallcap><smallcap>L</span>-β-Aminoisobutyric acid;<span class=\"text-smallcaps\">D</smallcap><smallcap>L</span>-3-Amino-2-methylpropionic acid;<span class=\"text-smallcaps\">D</smallcap><smallcap>L</span>-3-amino-2-methylpropanoic acid;<span class=\"text-smallcaps\">D</smallcap><smallcap>L</span>-3-Aminoisobutyric acid;(±)-3-Amino-2-methylpropionic acid",
    "duplicated_cas_no": "10569-72-9",
    "SMILES": "C(C(O)=O)(CN)C",
    "meta_data": {
        "InChI": "InChI=1S/C4H9NO2/c1-3(2-5)4(6)7/h3H,2,5H2,1H3,(H,6,7)",
        "InChIKey": null,
        "Canonical SMILES": "O=C(O)C(C)CN",
        "Molecular Formula": "C<sub>4</sub>H<sub>9</sub>NO<sub>2</sub>",
        "Molecular Mass": "103.12",
        "Melting Point": "181-182 °C"
    }
}