{
    "cas_no": "57090-88-7",
    "key_name": "1<em>H</em>-Imidazole-5-carbonitrile",
    "cn_name": "1H-咪唑-4-甲腈;",
    "alternate_name": "1<em>H</em>-Imidazole-5-carbonitrile;1<em>H</em>-Imidazole-4-carbonitrile;4-Cyanoimidazole;4-Imidazolecarbonitrile;4-Cyano-1<em>H</em>-imidazole",
    "duplicated_cas_no": "88054-20-0;196413-23-7",
    "SMILES": "C(#N)C1=CN=CN1",
    "meta_data": {
        "InChI": "InChI=1S/C4H3N3/c5-1-4-2-6-3-7-4/h2-3H,(H,6,7)",
        "InChIKey": null,
        "Canonical SMILES": "N#CC1=CN=CN1",
        "Molecular Formula": "C<sub>4</sub>H<sub>3</sub>N<sub>3</sub>",
        "Molecular Mass": "93.09",
        "Melting Point": "143.5-144.5 °C"
    }
}