{
    "cas_no": "609-20-1",
    "key_name": "2,6-Dichloro-1,4-benzenediamine",
    "cn_name": null,
    "alternate_name": "1,4-Benzenediamine, 2,6-dichloro-;<em>p</em>-Phenylenediamine, 2,6-dichloro-;2,6-Dichloro-1,4-benzenediamine;C.I. 37020;Daito Brown Salt RR;2,6-Dichloro-<em>p</em>-phenylenediamine;2,6-Dichloro-1,4-phenylenediamine;3,5-Dichloro-1,4-phenylenediamine;4-Amino-2,6-dichloroaniline;NSC 60685",
    "duplicated_cas_no": "",
    "SMILES": "NC1=C(Cl)C=C(N)C=C1Cl",
    "meta_data": {
        "InChI": "InChI=1S/C6H6Cl2N2/c7-4-1-3(9)2-5(8)6(4)10/h1-2H,9-10H2",
        "InChIKey": null,
        "Canonical SMILES": "ClC=1C=C(N)C=C(Cl)C1N",
        "Molecular Formula": "C<sub>6</sub>H<sub>6</sub>Cl<sub>2</sub>N<sub>2</sub>",
        "Molecular Mass": "177.03",
        "Melting Point": "124-125 °C"
    }
}