{
    "cas_no": "13181-17-4",
    "key_name": "Bromofenoxim",
    "cn_name": "溴酚肟;",
    "alternate_name": "Benzaldehyde, 3,5-dibromo-4-hydroxy-, <em>O</em>-(2,4-dinitrophenyl)oxime;C 9122;3,5-Dibromo-4-hydroxybenzaldoxime 2,4-dinitrophenyl ether;3,5-Dibromo-4-hydroxybenzaldehyde 2,4-dinitrophenyl oxime;Faneron;Bromphenoxim;Bromofenoxim;Bromfenoxime;3,5-Dibromo-4-hydroxybenzaldehyde <em>O</em>-(2,4-dinitrophenyl)oxime;Bromfenoxim;Bromophenoxim;Bromophenoxime",
    "duplicated_cas_no": "37273-85-1",
    "SMILES": "O(N=CC1=CC(Br)=C(O)C(Br)=C1)C2=C(N(=O)=O)C=C(N(=O)=O)C=C2",
    "meta_data": {
        "InChI": "InChI=1S/C13H7Br2N3O6/c14-9-3-7(4-10(15)13(9)19)6-16-24-12-2-1-8(17(20)21)5-11(12)18(22)23/h1-6,19H",
        "InChIKey": null,
        "Canonical SMILES": "O=N(=O)C1=CC=C(ON=CC2=CC(Br)=C(O)C(Br)=C2)C(=C1)N(=O)=O",
        "Molecular Formula": "C<sub>13</sub>H<sub>7</sub>Br<sub>2</sub>N<sub>3</sub>O<sub>6</sub>",
        "Molecular Mass": "461.02",
        "Melting Point": "196.5 °C"
    }
}