{
    "cas_no": "5890-28-8",
    "key_name": "Cassythicine",
    "cn_name": null,
    "alternate_name": "5<em>H</em>-Benzo[<em>g</em>]-1,3-benzodioxolo[6,5,4-<em>de</em>]quinolin-10-ol, 6,7,7a,8-tetrahydro-11-methoxy-7-methyl-, (7a<em>S</em>)-;6aα-Aporphin-9-ol, 10-methoxy-1,2-(methylenedioxy)-;5<em>H</em>-Benzo[<em>g</em>]-1,3-benzodioxolo[6,5,4-<em>de</em>]quinolin-10-ol, 6,7,7a,8-tetrahydro-11-methoxy-7-methyl-, (<em>S</em>)-;Actinodaphnine, <em>N</em>-methyl-;(7a<em>S</em>)-6,7,7a,8-Tetrahydro-11-methoxy-7-methyl-5<em>H</em>-benzo[<em>g</em>]-1,3-benzodioxolo[6,5,4-<em>de</em>]quinolin-10-ol;Cassythicine;<em>N</em>-Methylactinodaphnine;(+)-<em>N</em>-Methylactinodaphnine;Cassythicin;(+)-Cassythicine;NSC 785178",
    "duplicated_cas_no": "83919-98-6",
    "SMILES": "CN1[C@@]2(C=3C(C=4C(C2)=CC(O)=C(OC)C4)=C5C(=CC3CC1)OCO5)[H]",
    "meta_data": {
        "InChI": "InChI=1S/C19H19NO4/c1-20-4-3-10-7-16-19(24-9-23-16)18-12-8-15(22-2)14(21)6-11(12)5-13(20)17(10)18/h6-8,13,21H,3-5,9H2,1-2H3/t13-/m0/s1",
        "InChIKey": null,
        "Canonical SMILES": "OC1=CC2=C(C=C1OC)C3=C4OCOC4=CC5=C3C(N(C)CC5)C2",
        "Molecular Formula": "C<sub>19</sub>H<sub>19</sub>NO<sub>4</sub>",
        "Molecular Mass": "325.36",
        "Melting Point": "206 °C"
    }
}