{
    "cas_no": "56613-80-0",
    "key_name": "(-)-Phenylglycinol",
    "cn_name": "D-苯甘氨醇;右旋苯甘氨醇;",
    "alternate_name": "Benzeneethanol, β-amino-, (β<em>R</em>)-;Benzeneethanol, β-amino-, (<em>R</em>)-;(β<em>R</em>)-β-Aminobenzeneethanol;(-)-2-Amino-2-phenylethanol;<span class=\"text-smallcaps\">D</span>-Phenylglycinol;(<em>R</em>)-2-Amino-2-phenylethanol;(<em>R</em>)-(-)-Phenylglycinol;(-)-Phenylglycinol;<span class=\"text-smallcaps\">D</span>-(-)-2-Amino-2-phenylethanol;<span class=\"text-smallcaps\">D</span>-(-)-α-Phenylglycinol;(<em>R</em>)-(-)-2-Phenyl-2-aminoethanol;(<em>R</em>)-α-Phenylglycinol;(<em>R</em>)-2-Phenylglycinol;(-)-(<em>R</em>)-β-Aminobenzeneethanol;<span class=\"text-smallcaps\">D</span>-α-Phenylglycinol;(<em>R</em>)-(-)-2-Amino-2-phenylethanol;(2<em>R</em>)-2-Amino-2-phenyl-1-ethanol;(<em>R</em>)-(-)-2-Phenylglycinol;[(<em>R</em>)-2-Hydroxy-1-phenylethyl]amine;(2<em>R</em>)-2-Amino-2-phenylethanol;(-)-<span class=\"text-smallcaps\">D</span>-α-Phenylglycinol;(<em>R</em>)-Phenylglycinol;(<em>R</em>)-2-Amino-2-phenylethan-1-ol;(R)-2-Amino-2-phenylethan-1-ol;(2R)-2-Amino-2-phenylethan-1-ol;(R)-(-)-2-Amino-2-phenylethanol",
    "duplicated_cas_no": "",
    "SMILES": "[C@@H](CO)(N)C1=CC=CC=C1",
    "meta_data": {
        "InChI": "InChI=1S/C8H11NO/c9-8(6-10)7-4-2-1-3-5-7/h1-5,8,10H,6,9H2/t8-/m0/s1",
        "InChIKey": null,
        "Canonical SMILES": "OCC(N)C=1C=CC=CC1",
        "Molecular Formula": "C<sub>8</sub>H<sub>11</sub>NO",
        "Molecular Mass": "137.18",
        "Melting Point": "76-79 °C"
    }
}