{
    "cas_no": "65271-80-9",
    "key_name": "Mitoxantrone",
    "cn_name": "米托蒽醌;1,4-二羟基-5,8-双[[2-[(2-羟乙基)氨基]乙基]氨基]-9,10-蒽醌;",
    "alternate_name": "9,10-Anthracenedione, 1,4-dihydroxy-5,8-bis[[2-[(2-hydroxyethyl)amino]ethyl]amino]-;1,4-Dihydroxy-5,8-bis[[2-[(2-hydroxyethyl)amino]ethyl]amino]-9,10-anthracenedione;NSC 279836;DHAQ;Dihydroxyanthraquinone;Mitoxantrone;Mitoxanthrone;1,4-Bis[(2-(2-hydroxyethylamino)ethyl)amino]-5,8-dihydroxyanthraquinone;Mitozantrone;1,4-Dihydroxy-5,8-bis-[[2-[(2-hydroxyethyl)amino]ethyl]amino]anthraquinone;Novantron;Ralenova;Novantrone;Mitox;Nimitoxantron;MeSH ID: D008942",
    "duplicated_cas_no": "137635-96-2;70945-62-9",
    "SMILES": "N(CCNCCO)C1=C2C(=C(NCCNCCO)C=C1)C(=O)C=3C(C2=O)=C(O)C=CC3O",
    "meta_data": {
        "InChI": "InChI=1S/C22H28N4O6/c27-11-9-23-5-7-25-13-1-2-14(26-8-6-24-10-12-28)18-17(13)21(31)19-15(29)3-4-16(30)20(19)22(18)32/h1-4,23-30H,5-12H2",
        "InChIKey": null,
        "Canonical SMILES": "O=C1C=2C(O)=CC=C(O)C2C(=O)C=3C(=CC=C(NCCNCCO)C13)NCCNCCO",
        "Molecular Formula": "C<sub>22</sub>H<sub>28</sub>N<sub>4</sub>O<sub>6</sub>",
        "Molecular Mass": "444.48",
        "Melting Point": "160-162 °C"
    }
}