{
    "cas_no": "3019-25-8",
    "key_name": "Cyclobutyl methyl ketone",
    "cn_name": "环丁基甲基酮;",
    "alternate_name": "Ethanone, 1-cyclobutyl-;Ketone, cyclobutyl methyl;1-Cyclobutylethanone;Cyclobutane, acetyl-;Cyclobutyl methyl ketone;Acetylcyclobutane;Methyl cyclobutyl ketone;1-Cyclobutylethan-1-one",
    "duplicated_cas_no": "",
    "SMILES": "C(C)(=O)C1CCC1",
    "meta_data": {
        "InChI": "InChI=1S/C6H10O/c1-5(7)6-3-2-4-6/h6H,2-4H2,1H3",
        "InChIKey": null,
        "Canonical SMILES": "O=C(C)C1CCC1",
        "Molecular Formula": "C<sub>6</sub>H<sub>10</sub>O",
        "Molecular Mass": "98.14",
        "Boiling Point": "138 °C",
        "Density": "0.9093 g/cm³ @ Temp: 410 °C"
    }
}