{
    "cas_no": "5470-75-7",
    "key_name": "6-Chloro-8-aminoquinoline",
    "cn_name": null,
    "alternate_name": "8-Quinolinamine, 6-chloro-;Quinoline, 8-amino-6-chloro-;6-Chloro-8-quinolinamine;6-Chloro-8-aminoquinoline;8-Amino-6-chloroquinoline;NSC 27981;(6-Chloroquinolin-8-yl)amine",
    "duplicated_cas_no": "",
    "SMILES": "NC=1C2=C(C=C(Cl)C1)C=CC=N2",
    "meta_data": {
        "InChI": "InChI=1S/C9H7ClN2/c10-7-4-6-2-1-3-12-9(6)8(11)5-7/h1-5H,11H2",
        "InChIKey": null,
        "Canonical SMILES": "ClC1=CC(N)=C2N=CC=CC2=C1",
        "Molecular Formula": "C<sub>9</sub>H<sub>7</sub>ClN<sub>2</sub>",
        "Molecular Mass": "178.62",
        "Melting Point": "72-74 °C"
    }
}