{
    "cas_no": "35773-43-4",
    "key_name": "Macrolex yellow",
    "cn_name": "分散黄232;3-(5-氯-2-苯并噁唑基)-7-(二乙基氨基)-2H-1-苯并吡喃-2-酮;",
    "alternate_name": "2<em>H</em>-1-Benzopyran-2-one, 3-(5-chloro-2-benzoxazolyl)-7-(diethylamino)-;3-(5-Chloro-2-benzoxazolyl)-7-(diethylamino)-2<em>H</em>-1-benzopyran-2-one;Intrasil Brilliant Yellow 10GF;Macrolex Fluorescent Yellow 10GN;C.I. Disperse Yellow 232;Disperse Yellow 232;C.I. 55165;Macrolex 10GN;Solvent Yellow 160:1;C.I. Solvent Yellow 160:1;Macrolex fluorescent yellow;Macrolex Fl Yellow 10GN;Macrolex yellow;Solvent Yellow GK",
    "duplicated_cas_no": "94945-27-4;129038-03-5",
    "SMILES": "O=C1C(C=2OC=3C(N2)=CC(Cl)=CC3)=CC=4C(O1)=CC(N(CC)CC)=CC4",
    "meta_data": {
        "InChI": "InChI=1S/C20H17ClN2O3/c1-3-23(4-2)14-7-5-12-9-15(20(24)26-18(12)11-14)19-22-16-10-13(21)6-8-17(16)25-19/h5-11H,3-4H2,1-2H3",
        "InChIKey": null,
        "Canonical SMILES": "O=C1OC2=CC(=CC=C2C=C1C3=NC=4C=C(Cl)C=CC4O3)N(CC)CC",
        "Molecular Formula": "C<sub>20</sub>H<sub>17</sub>ClN<sub>2</sub>O<sub>3</sub>",
        "Molecular Mass": "368.81",
        "Melting Point": "195-196 °C"
    }
}