{
    "cas_no": "83-25-0",
    "key_name": "1-Phenyl-2,5-pyrrolidinedione",
    "cn_name": "N-苯基琥珀酰亚胺;N-苯丁二酰亚胺;",
    "alternate_name": "2,5-Pyrrolidinedione, 1-phenyl-;Succinimide, <em>N</em>-phenyl-;1-Phenyl-2,5-pyrrolidinedione;<em>N</em>-Phenylsuccinimide;Succinanil;1-Phenylsuccinimide;NSC 2359",
    "duplicated_cas_no": "",
    "SMILES": "O=C1N(C(=O)CC1)C2=CC=CC=C2",
    "meta_data": {
        "InChI": "InChI=1S/C10H9NO2/c12-9-6-7-10(13)11(9)8-4-2-1-3-5-8/h1-5H,6-7H2",
        "InChIKey": null,
        "Canonical SMILES": "O=C1N(C=2C=CC=CC2)C(=O)CC1",
        "Molecular Formula": "C<sub>10</sub>H<sub>9</sub>NO<sub>2</sub>",
        "Molecular Mass": "175.18",
        "Boiling Point": "400 °C",
        "Melting Point": "156 °C"
    }
}