{
    "cas_no": "1235-82-1",
    "key_name": "Biperiden hydrochloride",
    "cn_name": "盐酸比哌立登;1-(5-双环[2.2.1]庚-2-烯基)-1-苯基-3-(1-哌啶基)丙-1-醇盐酸盐;",
    "alternate_name": "1-Piperidinepropanol, α-bicyclo[2.2.1]hept-5-en-2-yl-α-phenyl-, hydrochloride (1:1);1-Piperidinepropanol, α-5-norbornen-2-yl-α-phenyl-, hydrochloride;1-Piperidinepropanol, α-bicyclo[2.2.1]hept-5-en-2-yl-α-phenyl-, hydrochloride;Akineton hydrochloride;α-(Bicyclo[2.2.1]hept-5-en-2-yl)-α-phenyl-1-piperidinepropanol hydrochloride;Biperidene hydrochloride;Biperiden hydrochloride;Akinophyl;NSC 170950;NSC 84989;Tasmolin;1-(Bicyclo[2.2.1]hept-5-en-2-yl)-1-phenyl-3-(piperidin-1-yl)propan-1-ol hydrochloride",
    "duplicated_cas_no": "",
    "SMILES": "C(CCN1CCCCC1)(O)(C2C3CC(C2)C=C3)C4=CC=CC=C4.Cl",
    "meta_data": {
        "InChI": "InChI=1S/C21H29NO.ClH/c23-21(19-7-3-1-4-8-19,11-14-22-12-5-2-6-13-22)20-16-17-9-10-18(20)15-17;/h1,3-4,7-10,17-18,20,23H,2,5-6,11-16H2;1H",
        "InChIKey": null,
        "Canonical SMILES": "Cl.OC(C=1C=CC=CC1)(CCN2CCCCC2)C3CC4C=CC3C4",
        "Molecular Formula": "C<sub>21</sub>H<sub>29</sub>NO.ClH",
        "Molecular Mass": "",
        "Melting Point": "275 °C (decomp)"
    }
}