{
    "cas_no": "22978-25-2",
    "key_name": "2-Chloro-5-nitrobenzanilide",
    "cn_name": "2-氯-5-硝基-N-苯基苯酰胺;",
    "alternate_name": "Benzamide, 2-chloro-5-nitro-<em>N</em>-phenyl-;Benzanilide, 2-chloro-5-nitro-;2-Chloro-5-nitro-<em>N</em>-phenylbenzamide;2-Chloro-5-nitrobenzanilide;GW 9662;GW 9622",
    "duplicated_cas_no": "",
    "SMILES": "C(NC1=CC=CC=C1)(=O)C2=CC(N(=O)=O)=CC=C2Cl",
    "meta_data": {
        "InChI": "InChI=1S/C13H9ClN2O3/c14-12-7-6-10(16(18)19)8-11(12)13(17)15-9-4-2-1-3-5-9/h1-8H,(H,15,17)",
        "InChIKey": null,
        "Canonical SMILES": "O=C(NC=1C=CC=CC1)C2=CC(=CC=C2Cl)N(=O)=O",
        "Molecular Formula": "C<sub>13</sub>H<sub>9</sub>ClN<sub>2</sub>O<sub>3</sub>",
        "Molecular Mass": "276.68",
        "Melting Point": "158 °C"
    }
}