{
    "cas_no": "348-62-9",
    "key_name": "4-Chloro-2-fluorophenol",
    "cn_name": "4-氯-2-氟苯酚;2-氟-4-氯苯酚;",
    "alternate_name": "Phenol, 4-chloro-2-fluoro-;4-Chloro-2-fluorophenol;2-Fluoro-4-chlorophenol",
    "duplicated_cas_no": "",
    "SMILES": "FC1=C(O)C=CC(Cl)=C1",
    "meta_data": {
        "InChI": "InChI=1S/C6H4ClFO/c7-4-1-2-6(9)5(8)3-4/h1-3,9H",
        "InChIKey": null,
        "Canonical SMILES": "FC1=CC(Cl)=CC=C1O",
        "Molecular Formula": "C<sub>6</sub>H<sub>4</sub>ClFO",
        "Molecular Mass": "146.55",
        "Boiling Point": "103-104 °C @ Press: 50 Torr"
    }
}