{
    "cas_no": "1124-20-5",
    "key_name": "<em>m</em>-Cymenene",
    "cn_name": "1-异丙烯基-3-甲基苯;",
    "alternate_name": "Benzene, 1-methyl-3-(1-methylethenyl)-;Styrene, <em>m</em>,α-dimethyl-;1-Methyl-3-(1-methylethenyl)benzene;<em>m</em>-Isopropenyltoluene;<em>m</em>,α-Dimethylstyrene;α,<em>m</em>-Dimethylstyrene;α,3-Dimethylstyrene;<em>m</em>-Methylisopropenylbenzene;1-Isopropenyl-3-methylbenzene;2-<em>m</em>-Tolylpropene;<em>m</em>-Cymenene;α-Methyl-<em>m</em>-methylstyrene;1-Methyl-3-(prop-1-en-2-yl)benzene;2-(3-Methylphenyl)propene",
    "duplicated_cas_no": "",
    "SMILES": "C(C)(=C)C1=CC(C)=CC=C1",
    "meta_data": {
        "InChI": "InChI=1S/C10H12/c1-8(2)10-6-4-5-9(3)7-10/h4-7H,1H2,2-3H3",
        "InChIKey": null,
        "Canonical SMILES": "C=C(C1=CC=CC(=C1)C)C",
        "Molecular Formula": "C<sub>10</sub>H<sub>12</sub>",
        "Molecular Mass": "132.20",
        "Boiling Point": "185 °C",
        "Density": "0.9076 g/cm³ @ Temp: 14 °C"
    }
}