{
    "cas_no": "20193-21-9",
    "key_name": "<em>N</em>-Propyl-1-butanamine",
    "cn_name": "N-丙基丁胺;",
    "alternate_name": "1-Butanamine, <em>N</em>-propyl-;Butylamine, <em>N</em>-propyl-;<em>N</em>-Propyl-1-butanamine;Butylpropylamine;<em>N</em>-Butyl-<em>N</em>-propylamine;<em>N</em>-Propylbutylamine;<em>n</em>-Propyl-<em>n</em>-butylamine;<em>N</em>-Butylpropylamine;<em>N</em>-Propylbutan-1-amine",
    "duplicated_cas_no": "",
    "SMILES": "C(NCCC)CCC",
    "meta_data": {
        "InChI": "InChI=1S/C7H17N/c1-3-5-7-8-6-4-2/h8H,3-7H2,1-2H3",
        "InChIKey": null,
        "Canonical SMILES": "N(CCC)CCCC",
        "Molecular Formula": "C<sub>7</sub>H<sub>17</sub>N",
        "Molecular Mass": "115.22",
        "Boiling Point": "134 °C",
        "Density": "0.7497 g/cm³ @ Temp: 20 °C"
    }
}