{
    "cas_no": "873-95-0",
    "key_name": "3-Amino-5,5-dimethyl-2-cyclohexen-1-one",
    "cn_name": "3-氨基-5,5-二甲基-2-环己烯-1-酮;",
    "alternate_name": "2-Cyclohexen-1-one, 3-amino-5,5-dimethyl-;3-Amino-5,5-dimethyl-2-cyclohexen-1-one;3-Amino-1,1-dimethyl-3-cyclohexen-5-one;3-Amino-5,5-dimethylcyclohex-2-enone;NSC 176345",
    "duplicated_cas_no": "",
    "SMILES": "CC1(C)CC(N)=CC(=O)C1",
    "meta_data": {
        "InChI": "InChI=1S/C8H13NO/c1-8(2)4-6(9)3-7(10)5-8/h3H,4-5,9H2,1-2H3",
        "InChIKey": null,
        "Canonical SMILES": "O=C1C=C(N)CC(C)(C)C1",
        "Molecular Formula": "C<sub>8</sub>H<sub>13</sub>NO",
        "Molecular Mass": "139.19",
        "Melting Point": "167 °C"
    }
}