{
    "cas_no": "2837-89-0",
    "key_name": "HCFC 124",
    "cn_name": "1,1,1,2-四氟-2-氯乙烷;",
    "alternate_name": "Ethane, 2-chloro-1,1,1,2-tetrafluoro-;2-Chloro-1,1,1,2-tetrafluoroethane;Freon 124;1-Chloro-1,2,2,2-tetrafluoroethane;R 124;1,1,1,2-Tetrafluorochloroethane;FC 124;1,1,1,2-Tetrafluoro-2-chloroethane;HCFC 124;CFC 124;Fron 124;F 124;Khladon 124;F 124 (halocarbon)",
    "duplicated_cas_no": "",
    "SMILES": "C(C(Cl)F)(F)(F)F",
    "meta_data": {
        "InChI": "InChI=1S/C2HClF4/c3-1(4)2(5,6)7/h1H",
        "InChIKey": null,
        "Canonical SMILES": "FC(Cl)C(F)(F)F",
        "Molecular Formula": "C<sub>2</sub>HClF<sub>4</sub>",
        "Molecular Mass": "136.48",
        "Boiling Point": "-12 °C",
        "Melting Point": "-199 °C",
        "Density": "1.364 g/cm³ @ Temp: 25 °C"
    }
}