{
    "cas_no": "129611-32-1",
    "key_name": "2-Bromo-6-iodo-3-pyridinol",
    "cn_name": null,
    "alternate_name": "3-Pyridinol, 2-bromo-6-iodo-;2-Bromo-6-iodo-3-pyridinol;2-Bromo-3-hydroxy-6-iodopyridine;2-Bromo-6-iodopyridin-3-ol",
    "duplicated_cas_no": "",
    "SMILES": "BrC1=C(O)C=CC(I)=N1",
    "meta_data": {
        "InChI": "InChI=1S/C5H3BrINO/c6-5-3(9)1-2-4(7)8-5/h1-2,9H",
        "InChIKey": null,
        "Canonical SMILES": "BrC=1N=C(I)C=CC1O",
        "Molecular Formula": "C<sub>5</sub>H<sub>3</sub>BrINO",
        "Molecular Mass": "299.89",
        "Melting Point": "141-142 °C"
    }
}