{
    "cas_no": "22821-80-3",
    "key_name": "<em>N</em>-[4-(Methylsulfonyl)phenyl]acetamide",
    "cn_name": "4\"-甲基磺酰乙酰苯胺;",
    "alternate_name": "Acetamide, <em>N</em>-[4-(methylsulfonyl)phenyl]-;Acetanilide, 4′-(methylsulfonyl)-;<em>N</em>-[4-(Methylsulfonyl)phenyl]acetamide;<em>p</em>-Acetamidophenyl methyl sulfone;NSC 85737",
    "duplicated_cas_no": "",
    "SMILES": "S(C)(=O)(=O)C1=CC=C(NC(C)=O)C=C1",
    "meta_data": {
        "InChI": "InChI=1S/C9H11NO3S/c1-7(11)10-8-3-5-9(6-4-8)14(2,12)13/h3-6H,1-2H3,(H,10,11)",
        "InChIKey": null,
        "Canonical SMILES": "O=C(NC1=CC=C(C=C1)S(=O)(=O)C)C",
        "Molecular Formula": "C<sub>9</sub>H<sub>11</sub>NO<sub>3</sub>S",
        "Molecular Mass": "213.25",
        "Melting Point": "183 °C"
    }
}