{
    "cas_no": "572-32-7",
    "key_name": "Ayanin",
    "cn_name": null,
    "alternate_name": "4<em>H</em>-1-Benzopyran-4-one, 5-hydroxy-2-(3-hydroxy-4-methoxyphenyl)-3,7-dimethoxy-;Flavone, 3′,5-dihydroxy-3,4′,7-trimethoxy-;5-Hydroxy-2-(3-hydroxy-4-methoxyphenyl)-3,7-dimethoxy-4<em>H</em>-1-benzopyran-4-one;Ayanin;Quercetin 3,7,4′-trimethyl ether;3,7,4′-Tri-<em>O</em>-methylquercetin;Ayarin;3,7,4′-Trimethylquercetin;5,3′-Dihydroxy-3,7,4′-trimethoxyflavone;NSC 691652;3,4′,7-Trimethylquercetin",
    "duplicated_cas_no": "117047-32-2",
    "SMILES": "O(C)C1=C(OC=2C(C1=O)=C(O)C=C(OC)C2)C3=CC(O)=C(OC)C=C3",
    "meta_data": {
        "InChI": "InChI=1S/C18H16O7/c1-22-10-7-12(20)15-14(8-10)25-17(18(24-3)16(15)21)9-4-5-13(23-2)11(19)6-9/h4-8,19-20H,1-3H3",
        "InChIKey": null,
        "Canonical SMILES": "O=C1C(OC)=C(OC2=CC(OC)=CC(O)=C12)C=3C=CC(OC)=C(O)C3",
        "Molecular Formula": "C<sub>18</sub>H<sub>16</sub>O<sub>7</sub>",
        "Molecular Mass": "344.32",
        "Melting Point": "172-173 °C"
    }
}