{
    "cas_no": "16974-11-1",
    "key_name": "(Z)-9-Dodecenyl acetate",
    "cn_name": null,
    "alternate_name": "9-Dodecen-1-ol, 1-acetate, (9<em>Z</em>)-;9-Dodecen-1-ol, acetate, (<em>Z</em>)-;9-Dodecen-1-ol, acetate, (9<em>Z</em>)-;<em>cis</em>-9-Dodecenyl acetate;<em>cis</em>-9-Dodecen-1-yl acetate;Grapemone;(<em>Z</em>)-9-Dodecen-1-ol acetate;(<em>Z</em>)-1-Acetoxy-9-dodecene;<em>cis</em>-9-Dodecen-1-ol acetate;(Z)-9-Dodecen-1-yl acetate;(Z)-9-Dodecenyl acetate;(9<em>Z</em>)-Dodec-9-en-1-ol acetate;Eupoewit;(<em>Z</em>)-Dodec-9-en-1-yl acetate;(<em>Z</em>)-9-Dodecenyl acetate",
    "duplicated_cas_no": "",
    "SMILES": "C(CCCC/C=C\\CC)CCCOC(C)=O",
    "meta_data": {
        "InChI": "InChI=1S/C14H26O2/c1-3-4-5-6-7-8-9-10-11-12-13-16-14(2)15/h4-5H,3,6-13H2,1-2H3/b5-4-",
        "InChIKey": null,
        "Canonical SMILES": "O=C(OCCCCCCCCC=CCC)C",
        "Molecular Formula": "C<sub>14</sub>H<sub>26</sub>O<sub>2</sub>",
        "Molecular Mass": "226.35",
        "Boiling Point": "101-102 °C @ Press: 0.01 Torr"
    }
}