{
    "cas_no": "519-74-4",
    "key_name": "(±)-Desoxypipradrol",
    "cn_name": "2-二苯甲基哌啶;",
    "alternate_name": "Piperidine, 2-(diphenylmethyl)-;2-(Diphenylmethyl)piperidine;Ciba 14469;Desoxypipradrol;Deoxypipradrol;(±)-Desoxypipradrol;2-Benzhydrylpiperidine",
    "duplicated_cas_no": "",
    "SMILES": "C(C1=CC=CC=C1)(C2=CC=CC=C2)C3CCCCN3",
    "meta_data": {
        "InChI": "InChI=1S/C18H21N/c1-3-9-15(10-4-1)18(16-11-5-2-6-12-16)17-13-7-8-14-19-17/h1-6,9-12,17-19H,7-8,13-14H2",
        "InChIKey": null,
        "Canonical SMILES": "C=1C=CC(=CC1)C(C=2C=CC=CC2)C3NCCCC3",
        "Molecular Formula": "C<sub>18</sub>H<sub>21</sub>N",
        "Molecular Mass": "251.37",
        "Boiling Point": "150-151 °C @ Press: 0.03 Torr",
        "Melting Point": "65-66 °C"
    }
}