{
    "cas_no": "6007-85-8",
    "key_name": "1<em>H</em>,3<em>H</em>-Thieno[3,4-<em>c</em>]furan-1,3-dione",
    "cn_name": null,
    "alternate_name": "1<em>H</em>,3<em>H</em>-Thieno[3,4-<em>c</em>]furan-1,3-dione;3,4-Thiophenedicarboxylic anhydride;3,4-Thiophenedicarboxylic acid anhydride;NSC 241105;Thieno[3,4-<em>c</em>]furan-1,3-dione",
    "duplicated_cas_no": "",
    "SMILES": "O=C1C=2C(C(=O)O1)=CSC2",
    "meta_data": {
        "InChI": "InChI=1S/C6H2O3S/c7-5-3-1-10-2-4(3)6(8)9-5/h1-2H",
        "InChIKey": null,
        "Canonical SMILES": "O=C1OC(=O)C2=CSC=C12",
        "Molecular Formula": "C<sub>6</sub>H<sub>2</sub>O<sub>3</sub>S",
        "Molecular Mass": "154.14",
        "Melting Point": "144.5-146.5 °C"
    }
}