{
    "cas_no": "20780-74-9",
    "key_name": "7-Bromoisatin",
    "cn_name": null,
    "alternate_name": "1<em>H</em>-Indole-2,3-dione, 7-bromo-;Indole-2,3-dione, 7-bromo-;Isatin, 7-bromo-;7-Bromo-1<em>H</em>-indole-2,3-dione;7-Bromoisatin;7-Bromoindoline-2,3-dione;7-Bromoindole-2,3-dione;7-Bromo-2,3-dioxoindoline",
    "duplicated_cas_no": "",
    "SMILES": "O=C1C=2C(=C(Br)C=CC2)NC1=O",
    "meta_data": {
        "InChI": "InChI=1S/C8H4BrNO2/c9-5-3-1-2-4-6(5)10-8(12)7(4)11/h1-3H,(H,10,11,12)",
        "InChIKey": null,
        "Canonical SMILES": "O=C1NC=2C(Br)=CC=CC2C1=O",
        "Molecular Formula": "C<sub>8</sub>H<sub>4</sub>BrNO<sub>2</sub>",
        "Molecular Mass": "226.03",
        "Melting Point": "203-204 °C"
    }
}