{
    "cas_no": "7440-27-9",
    "key_name": "Terbium",
    "cn_name": "铽;铽棒;",
    "alternate_name": "Terbium;Terbium-159;MeSH ID: D013725",
    "duplicated_cas_no": "110424-82-3",
    "SMILES": "[Tb]",
    "meta_data": {
        "InChI": "InChI=1S/Tb",
        "InChIKey": null,
        "Canonical SMILES": "[Tb]",
        "Molecular Formula": "Tb",
        "Molecular Mass": "",
        "Boiling Point": "255 °C",
        "Melting Point": "1356 °C (polymorph)",
        "Density": "8.23 g/cm³ @ Temp: Room temp"
    }
}