{
    "cas_no": "5211-62-1",
    "key_name": "1-(2-Methoxyphenyl)-2-propanone",
    "cn_name": "2-甲氧基苯基丙酮;邻甲氧基苯丙酮;",
    "alternate_name": "2-Propanone, 1-(2-methoxyphenyl)-;2-Propanone, 1-(<em>o</em>-methoxyphenyl)-;2-Propanone, (<em>o</em>-methoxyphenyl)-;1-(2-Methoxyphenyl)-2-propanone;1-(<em>o</em>-Methoxyphenyl)-2-propanone;<em>o</em>-Methoxyphenyl-2-propanone;(2-Methoxyphenyl)acetone;1-(2-Anisyl)-2-propanone;2′-Methoxyphenyl-2-propanone;(<em>o</em>-Methoxyphenyl)acetone",
    "duplicated_cas_no": "",
    "SMILES": "C(C(C)=O)C1=C(OC)C=CC=C1",
    "meta_data": {
        "InChI": "InChI=1S/C10H12O2/c1-8(11)7-9-5-3-4-6-10(9)12-2/h3-6H,7H2,1-2H3",
        "InChIKey": null,
        "Canonical SMILES": "O=C(C)CC=1C=CC=CC1OC",
        "Molecular Formula": "C<sub>10</sub>H<sub>12</sub>O<sub>2</sub>",
        "Molecular Mass": "164.20",
        "Boiling Point": "127-130 °C @ Press: 10 Torr"
    }
}