{
    "cas_no": "13339-02-1",
    "key_name": "2-(1-Piperazinyl)benzenamine",
    "cn_name": "2-(1-哌嗪)苯胺;",
    "alternate_name": "Benzenamine, 2-(1-piperazinyl)-;Piperazine, 1-(<em>o</em>-aminophenyl)-;2-(1-Piperazinyl)benzenamine;NSC 285885;1-(2-Aminophenyl)piperazine;2-(Piperazin-1-yl)aniline",
    "duplicated_cas_no": "",
    "SMILES": "NC1=C(N2CCNCC2)C=CC=C1",
    "meta_data": {
        "InChI": "InChI=1S/C10H15N3/c11-9-3-1-2-4-10(9)13-7-5-12-6-8-13/h1-4,12H,5-8,11H2",
        "InChIKey": null,
        "Canonical SMILES": "NC=1C=CC=CC1N2CCNCC2",
        "Molecular Formula": "C<sub>10</sub>H<sub>15</sub>N<sub>3</sub>",
        "Molecular Mass": "177.25",
        "Melting Point": "114 °C"
    }
}