{
    "cas_no": "345-17-5",
    "key_name": "1-Chloro-4-fluoro-2-nitrobenzene",
    "cn_name": null,
    "alternate_name": "Benzene, 1-chloro-4-fluoro-2-nitro-;1-Chloro-4-fluoro-2-nitrobenzene;2-Chloro-5-fluoronitrobenzene;2-Chloro-5-fluoro-1-nitrobenzene",
    "duplicated_cas_no": "",
    "SMILES": "N(=O)(=O)C1=C(Cl)C=CC(F)=C1",
    "meta_data": {
        "InChI": "InChI=1S/C6H3ClFNO2/c7-5-2-1-4(8)3-6(5)9(10)11/h1-3H",
        "InChIKey": null,
        "Canonical SMILES": "O=N(=O)C1=CC(F)=CC=C1Cl",
        "Molecular Formula": "C<sub>6</sub>H<sub>3</sub>ClFNO<sub>2</sub>",
        "Molecular Mass": "175.54",
        "Boiling Point": "100-120 °C @ Press: 11.25 Torr",
        "Melting Point": "36 °C"
    }
}