{
    "cas_no": "6631-37-4",
    "key_name": "<em>N</em>-Phenyl-2-pyridinamine",
    "cn_name": "2-苯基氨基吡啶;2-苯胺基吡啶;",
    "alternate_name": "2-Pyridinamine, <em>N</em>-phenyl-;Pyridine, 2-anilino-;Pyridine, 1-ethyl-1,2-dihydro-2-phenylimino-;<em>N</em>-Phenyl-2-pyridinamine;2-Anilinopyridine;2-(Phenylamino)pyridine;NSC 53090;<em>N</em>-(2-Pyridyl)aniline",
    "duplicated_cas_no": "",
    "SMILES": "N(C1=CC=CC=C1)C2=CC=CC=N2",
    "meta_data": {
        "InChI": "InChI=1S/C11H10N2/c1-2-6-10(7-3-1)13-11-8-4-5-9-12-11/h1-9H,(H,12,13)",
        "InChIKey": null,
        "Canonical SMILES": "N=1C=CC=CC1NC=2C=CC=CC2",
        "Molecular Formula": "C<sub>11</sub>H<sub>10</sub>N<sub>2</sub>",
        "Molecular Mass": "170.21",
        "Melting Point": "108 °C"
    }
}