{
    "cas_no": "4437-20-1",
    "key_name": "Difurfuryl disulfide",
    "cn_name": "二糠基二硫;二糠基二硫醚;",
    "alternate_name": "Furan, 2,2′-[dithiobis(methylene)]bis-;Furan, 2,2′-(dithiodimethylene)di-;2,2′-[Dithiobis(methylene)]bis[furan];Furfuryl disulfide;Difurfuryl disulfide;Bisfurfuryl disulfide;Bis(2-furylmethyl) disulfide;Bis(furan-2-ylmethyl) disulfide;Di(furan-2-ylmethyl) disulfide;2-[(Furan-2-ylmethyldisulfanyl)methyl]furan",
    "duplicated_cas_no": "2351122-81-9",
    "SMILES": "C(SSCC1=CC=CO1)C2=CC=CO2",
    "meta_data": {
        "InChI": "InChI=1S/C10H10O2S2/c1-3-9(11-5-1)7-13-14-8-10-4-2-6-12-10/h1-6H,7-8H2",
        "InChIKey": null,
        "Canonical SMILES": "O1C=CC=C1CSSCC=2OC=CC2",
        "Molecular Formula": "C<sub>10</sub>H<sub>10</sub>O<sub>2</sub>S<sub>2</sub>",
        "Molecular Mass": "226.32",
        "Boiling Point": "160-165 °C @ Press: 5 Torr",
        "Melting Point": "10 °C"
    }
}