{
    "cas_no": "535-26-2",
    "key_name": "Aposcopolamine",
    "cn_name": null,
    "alternate_name": "Benzeneacetic acid, α-methylene-, (1α,2β,4β,5α,7β)-9-methyl-3-oxa-9-azatricyclo[3.3.1.0<sup>2,4</sup>]non-7-yl ester;Aposcopolamine;1α<span class=\"text-smallcaps\">H</smallcap>,5α<smallcap>H</span>-Tropan-3α-ol, 6β,7β-epoxy-, atropate (ester);Benzeneacetic acid, α-methylene-, 9-methyl-3-oxa-9-azatricyclo[3.3.1.0<sup>2,4</sup>]non-7-yl ester, (1α,2β,4β,5α,7β)-;3-Oxa-9-azatricyclo[3.3.1.0<sup>2,4</sup>]nonane, benzeneacetic acid deriv.;Apohyoscine;Aposcopolamin",
    "duplicated_cas_no": "34260-99-6;862901-23-3;1065500-46-0",
    "SMILES": "CN1[C@]2([C@@]3([C@@](O3)([C@@]1(C[C@H](OC(C(=C)C4=CC=CC=C4)=O)C2)[H])[H])[H])[H]",
    "meta_data": {
        "InChI": "InChI=1/C17H19NO3/c1-10(11-6-4-3-5-7-11)17(19)20-12-8-13-15-16(21-15)14(9-12)18(13)2/h3-7,12-16H,1,8-9H2,2H3/t12-,13-,14+,15-,16+",
        "InChIKey": null,
        "Canonical SMILES": "O=C(OC1CC2N(C)C(C1)C3OC32)C(=C)C=4C=CC=CC4",
        "Molecular Formula": "C<sub>17</sub>H<sub>19</sub>NO<sub>3</sub>",
        "Molecular Mass": "285.34",
        "Melting Point": "97 °C"
    }
}