{
    "cas_no": "1738-36-9",
    "key_name": "Methoxyacetonitrile",
    "cn_name": "甲氧基乙腈;",
    "alternate_name": "Acetonitrile, 2-methoxy-;Acetonitrile, methoxy-;2-Methoxyacetonitrile;Methoxyacetonitrile;Formaldehyde cyanohydrin methyl ether;Methoxymethyl cyanide;Cyanomethyl methyl ether;Methoxyethanenitrile;NSC 26905",
    "duplicated_cas_no": "",
    "SMILES": "C(C#N)OC",
    "meta_data": {
        "InChI": "InChI=1S/C3H5NO/c1-5-3-2-4/h3H2,1H3",
        "InChIKey": null,
        "Canonical SMILES": "N#CCOC",
        "Molecular Formula": "C<sub>3</sub>H<sub>5</sub>NO",
        "Molecular Mass": "71.08",
        "Boiling Point": "119 °C",
        "Melting Point": "97 °C",
        "Density": "0.9373 g/cm³ @ Temp: 28 °C"
    }
}