{
    "cas_no": "1304-28-5",
    "key_name": "Barium oxide",
    "cn_name": "氧化钡,无水;",
    "alternate_name": "Barium oxide (BaO);Barium oxide;Barium monoxide;Baryta;Baria;Barium oxide (Ba<sub>2</sub>O<sub>2</sub>)",
    "duplicated_cas_no": "12231-51-5;1269419-45-5",
    "SMILES": "[Ba]=O",
    "meta_data": {
        "InChI": "InChI=1S/Ba.O",
        "InChIKey": null,
        "Canonical SMILES": "O=[Ba]",
        "Molecular Formula": "BaO",
        "Molecular Mass": "",
        "Boiling Point": "2000 °C",
        "Melting Point": "1923 °C",
        "Density": "5.7 g/cm³"
    }
}