{
    "cas_no": "142-09-6",
    "key_name": "Hexyl methacrylate",
    "cn_name": "甲基丙烯酸己酯;2-甲基-2-丙烯酸己酯;",
    "alternate_name": "2-Propenoic acid, 2-methyl-, hexyl ester;Methacrylic acid, hexyl ester;Hexyl alcohol, methacrylate;Hexyl methacrylate;ENT 25419;Hexyl 2-methyl-2-propenoate;<em>n</em>-Hexyl methacrylate;SR 211;NSC 24169;2-Methyl-2-propenoic acid hexyl ester",
    "duplicated_cas_no": "",
    "SMILES": "O(C(C(C)=C)=O)CCCCCC",
    "meta_data": {
        "InChI": "InChI=1S/C10H18O2/c1-4-5-6-7-8-12-10(11)9(2)3/h2,4-8H2,1,3H3",
        "InChIKey": null,
        "Canonical SMILES": "O=C(OCCCCCC)C(=C)C",
        "Molecular Formula": "C<sub>10</sub>H<sub>18</sub>O<sub>2</sub>",
        "Molecular Mass": "170.25",
        "Boiling Point": "162 °C",
        "Density": "0.880 g/cm³ @ Temp: 25 °C"
    }
}