{
    "cas_no": "103-05-9",
    "key_name": "2-Methyl-4-phenyl-2-butanol",
    "cn_name": "&alpha;,&alpha;-二甲基苯丙醇;二甲基苯乙基原醇;",
    "alternate_name": "Benzenepropanol, α,α-dimethyl-;2-Butanol, 2-methyl-4-phenyl-;α,α-Dimethylbenzenepropanol;Benzyl-<em>tert</em>-butanol;Phenylethyl dimethyl carbinol;2-(2-Phenylethyl)-2-propanol;2-Hydroxy-2-methyl-4-phenylbutane;2-Methyl-4-phenyl-2-butanol;4-Phenyl-2-hydroxy-2-methylbutane;Dimethylphenethylcarbinol;1,1-Dimethyl-3-phenylpropyl alcohol;1-Phenyl-3-methylbutan-3-ol;1,1-Dimethyl-3-phenylpropanol;2-Phenethyl-2-propanol;4-Phenyl-2-methyl-2-butanol;NSC 62145;1,1-Dimethyl-3-phenyl-1-propanol;Muguet carbinol",
    "duplicated_cas_no": "173090-19-2",
    "SMILES": "C(CC(C)(C)O)C1=CC=CC=C1",
    "meta_data": {
        "InChI": "InChI=1S/C11H16O/c1-11(2,12)9-8-10-6-4-3-5-7-10/h3-7,12H,8-9H2,1-2H3",
        "InChIKey": null,
        "Canonical SMILES": "OC(C)(C)CCC=1C=CC=CC1",
        "Molecular Formula": "C<sub>11</sub>H<sub>16</sub>O",
        "Molecular Mass": "164.24",
        "Boiling Point": "144 °C @ Press: 85 Torr",
        "Melting Point": "24.5 °C",
        "Density": "0.9626 g/cm³ @ Temp: 20.7 °C"
    }
}