{
    "cas_no": "172595-68-5",
    "key_name": "Methyl 5-methoxy-1<em>H</em>-indole-3-carboxylate",
    "cn_name": "5-甲氧基-1H-吲哚-3-甲酸甲酯;",
    "alternate_name": "1<em>H</em>-Indole-3-carboxylic acid, 5-methoxy-, methyl ester;Methyl 5-methoxy-1<em>H</em>-indole-3-carboxylate;5-Methoxyindole-3-carboxylic acid methyl ester",
    "duplicated_cas_no": "",
    "SMILES": "C(OC)(=O)C=1C=2C(NC1)=CC=C(OC)C2",
    "meta_data": {
        "InChI": "InChI=1S/C11H11NO3/c1-14-7-3-4-10-8(5-7)9(6-12-10)11(13)15-2/h3-6,12H,1-2H3",
        "InChIKey": null,
        "Canonical SMILES": "O=C(OC)C1=CNC=2C=CC(OC)=CC21",
        "Molecular Formula": "C<sub>11</sub>H<sub>11</sub>NO<sub>3</sub>",
        "Molecular Mass": "205.21",
        "Melting Point": "141-142 °C"
    }
}