{
    "cas_no": "944-73-0",
    "key_name": "1,3-Dimethyluric acid",
    "cn_name": null,
    "alternate_name": "1<em>H</em>-Purine-2,6,8(3<em>H</em>)-trione, 7,9-dihydro-1,3-dimethyl-;Uric acid, 1,3-dimethyl-;7,9-Dihydro-1,3-dimethyl-1<em>H</em>-purine-2,6,8(3<em>H</em>)-trione;1,3-Dimethyluric acid;Oxytheophylline;Ba 2751;NSC 95854;1,3-Dimethyl-7,9-dihydropurine-2,6,8-trione;1,3-Dimethyl-7,9-dihydro-3<em>H</em>-purine-2,6,8-trione",
    "duplicated_cas_no": "7026-70-2",
    "SMILES": "O=C1C2=C(N(C)C(=O)N1C)NC(=O)N2",
    "meta_data": {
        "InChI": "InChI=1S/C7H8N4O3/c1-10-4-3(8-6(13)9-4)5(12)11(2)7(10)14/h1-2H3,(H2,8,9,13)",
        "InChIKey": null,
        "Canonical SMILES": "O=C1NC=2C(=O)N(C(=O)N(C2N1)C)C",
        "Molecular Formula": "C<sub>7</sub>H<sub>8</sub>N<sub>4</sub>O<sub>3</sub>",
        "Molecular Mass": "196.16",
        "Melting Point": "318-318.5 °C"
    }
}