{
    "cas_no": "165252-70-0",
    "key_name": "Dinotefuran",
    "cn_name": "呋虫胺;1-甲基-2-硝基-3-(四氢-3-呋喃甲基)胍;",
    "alternate_name": "Guanidine, <em>N</em>′′-methyl-<em>N</em>-nitro-<em>N</em>′-[(tetrahydro-3-furanyl)methyl]-;Guanidine, <em>N</em>-methyl-<em>N</em>′-nitro-<em>N</em>′′-[(tetrahydro-3-furanyl)methyl]-;<em>N</em>′′-Methyl-<em>N</em>-nitro-<em>N</em>′-[(tetrahydro-3-furanyl)methyl]guanidine;MTI 446;Dinotefuran;Starkle;Safari;Safari (insecticide);Venom (insecticide);Mikeblock;Tenchu;Zylam;Alpine WSG;Nidinotefuran;Safari 20SG;Arubarin;1-Methyl-2-nitro-3-((tetrahydrofuran-3-yl)methyl)guanidine",
    "duplicated_cas_no": "222540-72-9",
    "SMILES": "C(N=C(NN(=O)=O)NC)C1CCOC1",
    "meta_data": {
        "InChI": "InChI=1S/C7H14N4O3/c1-8-7(10-11(12)13)9-4-6-2-3-14-5-6/h6H,2-5H2,1H3,(H2,8,9,10)",
        "InChIKey": null,
        "Canonical SMILES": "O=N(=O)NC(=NCC1COCC1)NC",
        "Molecular Formula": "C<sub>7</sub>H<sub>14</sub>N<sub>4</sub>O<sub>3</sub>",
        "Molecular Mass": "202.21",
        "Melting Point": "94.5-101.5 °C"
    }
}