{
    "cas_no": "930-22-3",
    "key_name": "Vinyloxirane",
    "cn_name": null,
    "alternate_name": "Oxirane, 2-ethenyl-;1-Butene, 3,4-epoxy-;Oxirane, ethenyl-;2-Ethenyloxirane;1,2-Epoxy-3-butene;Butadiene monoxide;Ethenyloxirane;1,2-Oxido-3-butene;3,4-Epoxy-1-butene;Butadiene monoepoxide;1,3-Butadiene oxide;Vinyloxirane;Butene 3,4-epoxide;Butadiene epoxide;1,3-Butadiene monooxide;Butadiene monooxide;2-Vinyloxirane;Vinyl epoxide;1,3-Butadiene monoepoxide;Epoxybutadiene;(±)-Vinyloxirane;NSC 24251;NSC 8023;1,3-Butadiene monoxide",
    "duplicated_cas_no": "22910-58-3;88416-31-3",
    "SMILES": "C(=C)C1CO1",
    "meta_data": {
        "InChI": "InChI=1S/C4H6O/c1-2-4-3-5-4/h2,4H,1,3H2",
        "InChIKey": null,
        "Canonical SMILES": "O1CC1C=C",
        "Molecular Formula": "C<sub>4</sub>H<sub>6</sub>O",
        "Molecular Mass": "70.09",
        "Boiling Point": "68 °C",
        "Melting Point": "-135 °C",
        "Density": "0.9006 g/cm³ @ Temp: 25 °C"
    }
}