{
    "cas_no": "496-72-0",
    "key_name": "3,4-Diaminotoluene",
    "cn_name": "3,4-二氨基甲苯;",
    "alternate_name": "1,2-Benzenediamine, 4-methyl-;Toluene-3,4-diamine;4-Methyl-1,2-benzenediamine;3,4-Diaminotoluene;4-Methyl-1,2-diaminobenzene;4-Methyl-<em>o</em>-phenylenediamine;3,4-Diamino-1-methylbenzene;3,4-Tolylenediamine;4-Methyl-1,2-phenylenediamine;1,2-Diamino-4-methylbenzene;4-Methyl-2-aminoaniline;2-Amino-5-methylaniline;2-Amino-4-methylaniline;NSC 1495;5-Methylbenzene-1,2-diamine;2-Amino-4-methylphenylamine",
    "duplicated_cas_no": "",
    "SMILES": "NC1=C(N)C=CC(C)=C1",
    "meta_data": {
        "InChI": "InChI=1S/C7H10N2/c1-5-2-3-6(8)7(9)4-5/h2-4H,8-9H2,1H3",
        "InChIKey": null,
        "Canonical SMILES": "NC1=CC=C(C=C1N)C",
        "Molecular Formula": "C<sub>7</sub>H<sub>10</sub>N<sub>2</sub>",
        "Molecular Mass": "122.17",
        "Boiling Point": "265 °C",
        "Melting Point": "80-90 °C"
    }
}