{
    "cas_no": "596-43-0",
    "key_name": "Trityl bromide",
    "cn_name": "三苯基甲基溴;溴三苯基甲烷;",
    "alternate_name": "Benzene, 1,1′,1′′-(bromomethylidyne)tris-;Methane, bromotriphenyl-;1,1′,1′′-(Bromomethylidyne)tris[benzene];Triphenylmethyl bromide;Trityl bromide;Bromotriphenylmethane;α-Bromotriphenylmethane;Triphenylbromomethane;NSC 66464;[Bromo(diphenyl)methyl]benzene;PS 0053",
    "duplicated_cas_no": "136684-50-9",
    "SMILES": "C(Br)(C1=CC=CC=C1)(C2=CC=CC=C2)C3=CC=CC=C3",
    "meta_data": {
        "InChI": "InChI=1S/C19H15Br/c20-19(16-10-4-1-5-11-16,17-12-6-2-7-13-17)18-14-8-3-9-15-18/h1-15H",
        "InChIKey": null,
        "Canonical SMILES": "BrC(C=1C=CC=CC1)(C=2C=CC=CC2)C=3C=CC=CC3",
        "Molecular Formula": "C<sub>19</sub>H<sub>15</sub>Br",
        "Molecular Mass": "323.23",
        "Melting Point": "153 °C"
    }
}