{
    "cas_no": "590372-17-1",
    "key_name": "2-Bromo-4-(trifluoromethyl)quinoline",
    "cn_name": "2-溴-4-三氟甲基喹啉;",
    "alternate_name": "Quinoline, 2-bromo-4-(trifluoromethyl)-;2-Bromo-4-(trifluoromethyl)quinoline",
    "duplicated_cas_no": "",
    "SMILES": "C(F)(F)(F)C=1C2=C(N=C(Br)C1)C=CC=C2",
    "meta_data": {
        "InChI": "InChI=1S/C10H5BrF3N/c11-9-5-7(10(12,13)14)6-3-1-2-4-8(6)15-9/h1-5H",
        "InChIKey": null,
        "Canonical SMILES": "FC(F)(F)C=1C=C(Br)N=C2C=CC=CC21",
        "Molecular Formula": "C<sub>10</sub>H<sub>5</sub>BrF<sub>3</sub>N",
        "Molecular Mass": "276.05",
        "Melting Point": "56-57 °C"
    }
}