{
    "cas_no": "3064-73-1",
    "key_name": "Tetraisobutylthiuram disulfide",
    "cn_name": "二硫化二异丁基秋兰姆;TiBTD;",
    "alternate_name": "Thioperoxydicarbonic diamide ([(H<sub>2</sub>N)C(S)]<sub>2</sub>S<sub>2</sub>), <em>N</em>,<em>N</em>,<em>N</em>′,<em>N</em>′-tetrakis(2-methylpropyl)-;Disulfide, bis(diisobutylthiocarbamoyl);Thioperoxydicarbonic diamide ([(H<sub>2</sub>N)C(S)]<sub>2</sub>S<sub>2</sub>), tetrakis(2-methylpropyl)-;Bis(diisobutylthiocarbamoyl) disulfide;Tetraisobutylthiuram disulfide;<em>N</em>,<em>N</em>,<em>N</em>′,<em>N</em>′-Tetraisobutylthiuram disulfide;Isobutyl Tuads;Cure-rite IBT",
    "duplicated_cas_no": "",
    "SMILES": "N(C(SSC(N(CC(C)C)CC(C)C)=S)=S)(CC(C)C)CC(C)C",
    "meta_data": {
        "InChI": "InChI=1S/C18H36N2S4/c1-13(2)9-19(10-14(3)4)17(21)23-24-18(22)20(11-15(5)6)12-16(7)8/h13-16H,9-12H2,1-8H3",
        "InChIKey": null,
        "Canonical SMILES": "S=C(SSC(=S)N(CC(C)C)CC(C)C)N(CC(C)C)CC(C)C",
        "Molecular Formula": "C<sub>18</sub>H<sub>36</sub>N<sub>2</sub>S<sub>4</sub>",
        "Molecular Mass": "408.75",
        "Melting Point": "73.5-74.5 °C"
    }
}