{
    "cas_no": "80-41-1",
    "key_name": "2-Chloroethyl <em>p</em>-toluenesulfonate",
    "cn_name": null,
    "alternate_name": "Ethanol, 2-chloro-, 1-(4-methylbenzenesulfonate);Ethanol, 2-chloro-, 4-methylbenzenesulfonate;Ethanol, 2-chloro-, <em>p</em>-toluenesulfonate;2-Chloroethanol <em>p</em>-toluenesulfonate;2-Chloroethyl <em>p</em>-toluenesulfonate;2-Chloroethyl <em>p</em>-tosylate;β-Chloroethyl <em>p</em>-toluenesulfonate;2-Chloroethyl tosylate;2-(<em>p</em>-Toluenesulfonyloxy)ethyl chloride;2-Chloroethyl 4-methylbenzenesulfonate;2-Chloroethanol tosylate;2-Tosyloxyethyl chloride;β-Chloroethyl tosylate;2-Chloro-1-(<em>p</em>-toluenesulfonyl)ethane;NSC 6079;Toluene-4-sulfonic acid 2-chloroethyl ester;<em>p</em>-Toluenesulfonic acid 2-chloroethyl ester;2-Chloroethyl 4-methylbenzene-1-sulfonate",
    "duplicated_cas_no": "56215-02-2;85426-03-5;344310-40-3",
    "SMILES": "S(OCCCl)(=O)(=O)C1=CC=C(C)C=C1",
    "meta_data": {
        "InChI": "InChI=1S/C9H11ClO3S/c1-8-2-4-9(5-3-8)14(11,12)13-7-6-10/h2-5H,6-7H2,1H3",
        "InChIKey": null,
        "Canonical SMILES": "O=S(=O)(OCCCl)C1=CC=C(C=C1)C",
        "Molecular Formula": "C<sub>9</sub>H<sub>11</sub>ClO<sub>3</sub>S",
        "Molecular Mass": "234.70",
        "Boiling Point": "210 °C @ Press: 21 Torr",
        "Melting Point": "22.5-23.0 °C",
        "Density": "1.361 g/cm³ @ Temp: 20 °C"
    }
}