{
    "cas_no": "565-63-9",
    "key_name": "Angelic acid",
    "cn_name": "当归酸;依替前列通;2-甲基-2-丁烯酸;白芷酸;欧白芷酸;顺式-2,3-二甲基丙烯酸;顺式-2-甲基丁烯酸;",
    "alternate_name": "2-Butenoic acid, 2-methyl-, (2<em>Z</em>)-;Angelic acid;Crotonic acid, 2-methyl-, (<em>Z</em>)-;2-Butenoic acid, 2-methyl-, (<em>Z</em>)-;(2<em>Z</em>)-2-Methyl-2-butenoic acid;<em>cis</em>-2-Methyl-2-butenoic acid;<em>cis</em>-α,β-Dimethylacrylic acid;(<em>Z</em>)-2-Methylbut-2-enoic acid;(<em>Z</em>)-2-Methylbutenoic acid",
    "duplicated_cas_no": "",
    "SMILES": "C(\\C(O)=O)(=C\\C)/C",
    "meta_data": {
        "InChI": "InChI=1S/C5H8O2/c1-3-4(2)5(6)7/h3H,1-2H3,(H,6,7)/b4-3-",
        "InChIKey": null,
        "Canonical SMILES": "O=C(O)C(=CC)C",
        "Molecular Formula": "C<sub>5</sub>H<sub>8</sub>O<sub>2</sub>",
        "Molecular Mass": "100.12",
        "Boiling Point": "185 °C",
        "Melting Point": "45.5 °C",
        "Density": "9.9298 g/cm³ @ Temp: 99.600078125 °C"
    }
}