{
    "cas_no": "6961-46-2",
    "key_name": "Idrocilamide",
    "cn_name": null,
    "alternate_name": "2-Propenamide, <em>N</em>-(2-hydroxyethyl)-3-phenyl-;Cinnamamide, <em>N</em>-(2-hydroxyethyl)-;<em>N</em>-(2-Hydroxyethyl)-3-phenyl-2-propenamide;<em>N</em>-(2-Hydroxyethyl)cinnamide;LCB 29;Idrocilamide;Brolitene;<em>N</em>-(2-Hydroxyethyl)cinnamamide;Srilane;NSC 44979;NSC 58207;NSC 63229",
    "duplicated_cas_no": "",
    "SMILES": "C(=CC(NCCO)=O)C1=CC=CC=C1",
    "meta_data": {
        "InChI": "InChI=1S/C11H13NO2/c13-9-8-12-11(14)7-6-10-4-2-1-3-5-10/h1-7,13H,8-9H2,(H,12,14)",
        "InChIKey": null,
        "Canonical SMILES": "O=C(C=CC=1C=CC=CC1)NCCO",
        "Molecular Formula": "C<sub>11</sub>H<sub>13</sub>NO<sub>2</sub>",
        "Molecular Mass": "191.23",
        "Melting Point": "101 °C"
    }
}