{
    "cas_no": "2251-65-2",
    "key_name": "3-(Trifluoromethyl)benzoyl chloride",
    "cn_name": "3-(三氟甲基)苯甲酰氯;",
    "alternate_name": "Benzoyl chloride, 3-(trifluoromethyl)-;<em>m</em>-Toluoyl chloride, α,α,α-trifluoro-;3-(Trifluoromethyl)benzoyl chloride;α,α,α-Trifluoro-<em>m</em>-toluoyl chloride;<em>m</em>-(Trifluoromethyl)benzoyl chloride;NSC 88307;3-[Trifluoromethyl]phenylcarbonyl chloride;3-Trifluoromethylbenzoyl chloride",
    "duplicated_cas_no": "",
    "SMILES": "C(F)(F)(F)C1=CC(C(Cl)=O)=CC=C1",
    "meta_data": {
        "InChI": "InChI=1S/C8H4ClF3O/c9-7(13)5-2-1-3-6(4-5)8(10,11)12/h1-4H",
        "InChIKey": null,
        "Canonical SMILES": "O=C(Cl)C1=CC=CC(=C1)C(F)(F)F",
        "Molecular Formula": "C<sub>8</sub>H<sub>4</sub>ClF<sub>3</sub>O",
        "Molecular Mass": "208.57",
        "Boiling Point": "187 °C"
    }
}