{
    "cas_no": "5118-13-8",
    "key_name": "4-Bromobenzo[<em>b</em>]thiophene",
    "cn_name": null,
    "alternate_name": "Benzo[<em>b</em>]thiophene, 4-bromo-;4-Bromobenzo[<em>b</em>]thiophene;4-Bromo-1-benzothiophene",
    "duplicated_cas_no": "",
    "SMILES": "BrC1=C2C(=CC=C1)SC=C2",
    "meta_data": {
        "InChI": "InChI=1S/C8H5BrS/c9-7-2-1-3-8-6(7)4-5-10-8/h1-5H",
        "InChIKey": null,
        "Canonical SMILES": "BrC1=CC=CC=2SC=CC12",
        "Molecular Formula": "C<sub>8</sub>H<sub>5</sub>BrS",
        "Molecular Mass": "213.09",
        "Boiling Point": "144 °C @ Press: 20 Torr"
    }
}