{
    "cas_no": "4090-55-5",
    "key_name": "1,3,2-Dioxaphosphorinane, 2-chloro-5,5-dimethyl-, 2-oxide",
    "cn_name": "2-氯-5,5-二甲基-1,3,2-二氧磷杂环己烷-2-氧化物;5,5-二甲基-2-氯-1,3,2-二氧磷杂己内酰磷酸酯;",
    "alternate_name": "1,3,2-Dioxaphosphorinane, 2-chloro-5,5-dimethyl-, 2-oxide;Phosphorochloridic acid, cyclic 2,2-dimethyltrimethylene ester;1,3-Propanediol, 2,2-dimethyl-, cyclic phosphorochloridate;5,5-Dimethyl-2-chloro-2-oxo-1,3,2-dioxaphosphorinane;2-Chloro-2-oxo-5,5-dimethyl-1,3,2-dioxaphosphorinane;2-Chloro-5,5-dimethyl-1,3,2-dioxaphosphorinan-2-one;2-Chloro-5,5-dimethyl-1,3,2-dioxaphosphorinane 2-oxide;Cyclic 2,2-dimethyltrimethylene phosphorochloridate;2-Chloro-5,5-dimethyl-2-oxodioxaphosphorinane;2-Chloro-5,5-dimethyl-2-oxo-1,3,2-dioxaphosphorinane;Cyclic 2,2-dimethyl-1,3-propanediol phosphoryl chloride;2-Chloro-5,5-dimethyl-1,3,2-dioxaphosphinane 2-oxide;2,2-Dimethyltrimethylene phosphorochloridate;DMOCP;2-Chloro-5,5-dimethyl-1,3,2λ5-dioxaphosphinan-2-one",
    "duplicated_cas_no": "",
    "SMILES": "CC1(C)COP(Cl)(=O)OC1",
    "meta_data": {
        "InChI": "InChI=1S/C5H10ClO3P/c1-5(2)3-8-10(6,7)9-4-5/h3-4H2,1-2H3",
        "InChIKey": null,
        "Canonical SMILES": "O=P1(Cl)OCC(C)(C)CO1",
        "Molecular Formula": "C<sub>5</sub>H<sub>10</sub>ClO<sub>3</sub>P",
        "Molecular Mass": "184.56",
        "Melting Point": "104.5-106.0 °C",
        "Density": "1.416 g/cm³"
    }
}