{
    "cas_no": "3710-84-7",
    "key_name": "Diethylhydroxylamine",
    "cn_name": "二乙基羟胺;N,N-二乙基羟胺;DEHA;",
    "alternate_name": "Ethanamine, <em>N</em>-ethyl-<em>N</em>-hydroxy-;<em>N</em>-Ethyl-<em>N</em>-hydroxyethanamine;<em>N</em>,<em>N</em>-Diethylhydroxylamine;<em>N</em>-Hydroxydiethylamine;Diethylhydroxylamine;DEHA",
    "duplicated_cas_no": "",
    "SMILES": "N(CC)(CC)O",
    "meta_data": {
        "InChI": "InChI=1S/C4H11NO/c1-3-5(6)4-2/h6H,3-4H2,1-2H3",
        "InChIKey": null,
        "Canonical SMILES": "ON(CC)CC",
        "Molecular Formula": "C<sub>4</sub>H<sub>11</sub>NO",
        "Molecular Mass": "89.14",
        "Boiling Point": "133 °C",
        "Melting Point": "10 °C",
        "Density": "0.8612 g/cm³ @ Temp: 25 °C"
    }
}