{
    "cas_no": "87-86-5",
    "key_name": "Pentachlorophenol",
    "cn_name": "五氯酚;五氯苯酚;",
    "alternate_name": "Phenol, 2,3,4,5,6-pentachloro-;Phenol, pentachloro-;2,3,4,5,6-Pentachlorophenol;Dowicide 7;PCP (pesticide);Penchlorol;Penta;EP 30;Liroprem;Pentachlorophenol;Grundier Arbezol;Lauxtol;Permasan;Fungifen;Santophen 20;PCP;Preventol P;Chlon;PKhF;Woodtreat A;Pol Nu;Dura Treet II;1-Hydroxypentachlorobenzene;Witophen P;Pole topper;Pole topper fluid;Chlorophenasic acid;Pentor 70;Penton 70;1-Hydroxy-2,3,4,5,6-pentachlorobenzene;EP 30 (pesticide);Dowicide EC 7;NSC 263497;Satophen;Perchlorophenol;MeSH ID: D010416",
    "duplicated_cas_no": "101802-54-4;39390-77-7;1135443-67-2",
    "SMILES": "ClC1=C(Cl)C(Cl)=C(O)C(Cl)=C1Cl",
    "meta_data": {
        "InChI": "InChI=1S/C6HCl5O/c7-1-2(8)4(10)6(12)5(11)3(1)9/h12H",
        "InChIKey": null,
        "Canonical SMILES": "ClC=1C(Cl)=C(Cl)C(O)=C(Cl)C1Cl",
        "Molecular Formula": "C<sub>6</sub>HCl<sub>5</sub>O",
        "Molecular Mass": "266.34",
        "Boiling Point": "309.5 °C",
        "Melting Point": "191 °C",
        "Density": "1.978 g/cm³ @ Temp: 22 °C"
    }
}