{
    "cas_no": "128-70-1",
    "key_name": "Pyranthrone",
    "cn_name": "还原橙9;",
    "alternate_name": "8,16-Pyranthrenedione;C.I. 59700;Ahcovat Golden Orange G;Amanthrene Golden Orange G;Benzadone Gold Orange G;Calcoloid Golden Orange GD;Calcoloid Golden Orange GFD;Caledon Gold Orange G;Caledon Gold Orange GN;Caledon Paper Gold Orange G;Caledon Printing Orange G;Carbanthrene Golden Orange G;Carbanthrene Golden Orange GD;Carbanthrene Golden Orange GP;Carbanthrene Printing Golden Orange G;Cibanone Golden Orange G;Cibanone Golden Orange FG;C.I. Pigment Orange 40;C.I. Vat Orange 9;Endurol Golden Orange G;Fenanthren Golden Orange G;Indanthrene Golden Orange G;Indanthrene Golden Orange GA;Indanthren Golden Orange G;Indanthren Golden Orange GLP;Indanthren Gold Orange G;Mikethrene Gold Orange G;Monolite Fast Gold Orange GV;Nihonthrene Golden Orange G;Nyanthrene Golden Orange G;Palanthrene Gold Orange G;Paradone Golden Orange G;Ponsol Golden Orange G;Ponsol Golden Orange GD;Pyranthrone;Romantrene Golden Orange FG;Sandothrene Golden Orange NG;Solanthrene Orange J;Tinon Golden Orange G;Tinon Golden Orange GN;Tyrian Golden Orange I-G;Mikethren Gold Orange G;Indanthrene Gold Orange G;Pyranthron;Solanthrene Orange F-J;C.I. Pigment Orange 41;Caledon Golden Orange G;Vat Orange G;NSC 5267;NSC 667752;Indanthrene Golden Orange RG",
    "duplicated_cas_no": "115134-19-5",
    "SMILES": "O=C1C2=C3C4=C5C6=C(C=C4C=C2)C=7C(C(=O)C6=CC=C5C=C3C=8C1=CC=CC8)=CC=CC7",
    "meta_data": {
        "InChI": "InChI=1S/C30H14O2/c31-29-19-7-3-1-5-17(19)23-13-15-9-12-22-28-24(18-6-2-4-8-20(18)30(22)32)14-16-10-11-21(29)27(23)25(16)26(15)28/h1-14H",
        "InChIKey": null,
        "Canonical SMILES": "O=C1C=2C=CC=CC2C=3C=C4C=CC=5C(=O)C=6C=CC=CC6C7=CC8=CC=C1C3C8=C4C57",
        "Molecular Formula": "C<sub>30</sub>H<sub>14</sub>O<sub>2</sub>",
        "Molecular Mass": "406.43",
        "Melting Point": "269 °C"
    }
}