{
    "cas_no": "1007-01-8",
    "key_name": "Bicyclo[2.2.1]heptane-2-acetic acid",
    "cn_name": "2-降坎烷乙酸;",
    "alternate_name": "Bicyclo[2.2.1]heptane-2-acetic acid;2-Norbornaneacetic acid;2-Norbornylacetic acid;NSC 174059;2-(Bicyclo[2.2.1]hept-2-yl)acetic acid;Bicyclo[2.2.1]hept-2-ylacetic acid;2-(Bicyclo[2.2.1]heptan-2-yl)acetic acid;2-[Bicyclo[2.2.1]heptan-2-yl]acetic acid;2-(3-Bicyclo[2.2.1]heptanyl)acetic acid",
    "duplicated_cas_no": "",
    "SMILES": "C(C(O)=O)C1C2CC(C1)CC2",
    "meta_data": {
        "InChI": "InChI=1S/C9H14O2/c10-9(11)5-8-4-6-1-2-7(8)3-6/h6-8H,1-5H2,(H,10,11)",
        "InChIKey": null,
        "Canonical SMILES": "O=C(O)CC1CC2CCC1C2",
        "Molecular Formula": "C<sub>9</sub>H<sub>14</sub>O<sub>2</sub>",
        "Molecular Mass": "154.21",
        "Boiling Point": "91-92 °C @ Press: 23 Torr",
        "Melting Point": "95 °C"
    }
}