{
    "cas_no": "4696-56-4",
    "key_name": "Calcium laurate",
    "cn_name": "十二酸钙盐;",
    "alternate_name": "Dodecanoic acid, calcium salt (2:1);Lauric acid, calcium salt;Dodecanoic acid, calcium salt;Calcium laurate;Stavinor 330;Calcium dodecanoate;C 12;C 12 (salt);CS 3",
    "duplicated_cas_no": "",
    "SMILES": "C(CCCCCCCC)CCC(O)=O.[Ca]",
    "meta_data": {
        "InChI": "InChI=1S/C12H24O2.Ca/c1-2-3-4-5-6-7-8-9-10-11-12(13)14;/h2-11H2,1H3,(H,13,14);",
        "InChIKey": null,
        "Canonical SMILES": "[Ca].O=C(O)CCCCCCCCCCC",
        "Molecular Formula": "C<sub>12</sub>H<sub>24</sub>O<sub>2</sub>.<sup>1</sup>/<sub>2</sub>Ca",
        "Molecular Mass": "",
        "Melting Point": "182 °C"
    }
}