{
    "cas_no": "82-57-5",
    "key_name": "Visnagin",
    "cn_name": "甲氧呋豆素;齿阿米素;威士拿精;阿密茴素;维斯纳金;",
    "alternate_name": "5<em>H</em>-Furo[3,2-<em>g</em>][1]benzopyran-5-one, 4-methoxy-7-methyl-;Visnagin;4-Methoxy-7-methyl-5<em>H</em>-furo[3,2-<em>g</em>][1]benzopyran-5-one;Desmethoxykhellin;5-Methoxy-2-methyl-6,7-furanochrome;5-Methoxy-2-methylfuranochromone;Visnagidin;Visnagine;NSC 100593",
    "duplicated_cas_no": "",
    "SMILES": "O(C)C=1C2=C(C=C3C1C=CO3)OC(C)=CC2=O",
    "meta_data": {
        "InChI": "InChI=1S/C13H10O4/c1-7-5-9(14)12-11(17-7)6-10-8(3-4-16-10)13(12)15-2/h3-6H,1-2H3",
        "InChIKey": null,
        "Canonical SMILES": "O=C1C=C(OC=2C=C3OC=CC3=C(OC)C12)C",
        "Molecular Formula": "C<sub>13</sub>H<sub>10</sub>O<sub>4</sub>",
        "Molecular Mass": "230.22",
        "Melting Point": "144.5 °C"
    }
}