{
    "cas_no": "917-23-7",
    "key_name": "Tetraphenylporphyrin",
    "cn_name": "阻燃剂;中-四苯卟吩;四苯基卟啉;间-四苯基卟吩;5,10,15,20-四苯基卟啉;内消旋-四苯基扑吩;",
    "alternate_name": "21<em>H</em>,23<em>H</em>-Porphine, 5,10,15,20-tetraphenyl-;Porphine, 5,10,15,20-tetraphenyl-;Porphine, α,β,γ,δ-tetraphenyl-;5,10,15,20-Tetraphenyl-21<em>H</em>,23<em>H</em>-porphine;α,β,γ,δ-Tetraphenylporphine;<em>meso</em>-Tetraphenylporphine;Tetraphenylporphyrin;Tetraphenylporphine;<em>meso</em>-Tetraphenylporphyrin;5,10,15,20-Tetraphenylporphine;5,10,15,20-Tetraphenylporphyrin;TPP;TPP (chelating agent);5,10,15,20-Tetraphenyl-21<em>H</em>,23<em>H</em>-porphyrin;NSC 18506;NSC 640184;5,10,15,20-Tetraphenyl-22<em>H</em>,24<em>H</em>-prophyrin;5,10,15,20-Tetraphenyl-21<em>H</em>,23<em>H</em>-porphrin;A 5012",
    "duplicated_cas_no": "106051-94-9;15503-35-2;20998-75-8;25323-25-5;87719-36-6",
    "SMILES": "C=1(C=2NC(=CC2)C(=C3N=C(C=C3)C(=C4NC(=C(C5=NC1C=C5)C6=CC=CC=C6)C=C4)C7=CC=CC=C7)C8=CC=CC=C8)C9=CC=CC=C9",
    "meta_data": {
        "InChI": "InChI=1S/C44H30N4/c1-5-13-29(14-6-1)41-33-21-23-35(45-33)42(30-15-7-2-8-16-30)37-25-27-39(47-37)44(32-19-11-4-12-20-32)40-28-26-38(48-40)43(31-17-9-3-10-18-31)36-24-22-34(41)46-36/h1-28,45,48H/b41-33-,41-34?,42-35-,42-37?,43-36-,43-38?,44-39-,44-40?",
        "InChIKey": null,
        "Canonical SMILES": "N1=C2C=CC1=C(C=3C=CC=CC3)C4=CC=C(N4)C(=C5N=C(C=C5)C(C=6C=CC=CC6)=C7C=CC(N7)=C2C=8C=CC=CC8)C=9C=CC=CC9",
        "Molecular Formula": "C<sub>44</sub>H<sub>30</sub>N<sub>4</sub>",
        "Molecular Mass": "614.74",
        "Melting Point": "444 °C",
        "Density": "1.64 g/cm³"
    }
}