{
    "cas_no": "612-23-7",
    "key_name": "2-Nitrobenzyl chloride",
    "cn_name": "2-硝基苄氯;",
    "alternate_name": "Benzene, 1-(chloromethyl)-2-nitro-;Toluene, α-chloro-<em>o</em>-nitro-;1-(Chloromethyl)-2-nitrobenzene;<em>o</em>-Nitrobenzyl chloride;2-Nitrobenzyl chloride;α-Chloro-<em>o</em>-nitrotoluene;NSC 66500",
    "duplicated_cas_no": "",
    "SMILES": "C(Cl)C1=C(N(=O)=O)C=CC=C1",
    "meta_data": {
        "InChI": "InChI=1S/C7H6ClNO2/c8-5-6-3-1-2-4-7(6)9(10)11/h1-4H,5H2",
        "InChIKey": null,
        "Canonical SMILES": "O=N(=O)C=1C=CC=CC1CCl",
        "Molecular Formula": "C<sub>7</sub>H<sub>6</sub>ClNO<sub>2</sub>",
        "Molecular Mass": "171.58",
        "Melting Point": "51 °C"
    }
}