{
    "cas_no": "92-84-2",
    "key_name": "Phenothiazine",
    "cn_name": "吩噻嗪;",
    "alternate_name": "10<em>H</em>-Phenothiazine;Phenothiazine;ENT 38;Contaverm;Dibenzothiazine;Feeno;Fenoverm;Padophene;Penthazine;Phenegic;Phenovis;Phenoxur;Phenthiazine;Thiodiphenylamine;Dibenzo-1,4-thiazine;Early bird wormer;Nemazene;Reconox;Nexarbol;Orimon;Phenoverm;Phenzeen;Danikoropa;Antage TDP;NSC 2037;TDP-G",
    "duplicated_cas_no": "8023-30-1;8048-22-4",
    "SMILES": "C1=2C(SC=3C(N1)=CC=CC3)=CC=CC2",
    "meta_data": {
        "InChI": "InChI=1S/C12H9NS/c1-3-7-11-9(5-1)13-10-6-2-4-8-12(10)14-11/h1-8,13H",
        "InChIKey": null,
        "Canonical SMILES": "S1C=2C=CC=CC2NC=3C=CC=CC13",
        "Molecular Formula": "C<sub>12</sub>H<sub>9</sub>NS",
        "Molecular Mass": "199.27",
        "Boiling Point": "371 °C @ Press: 760 Torr",
        "Melting Point": "185.1 °C",
        "Density": "1.34 g/cm³"
    }
}