{
    "cas_no": "25973-55-1",
    "key_name": "UV 328",
    "cn_name": "紫外线吸收剂THUV-328;紫外线吸收剂328;2-(2\"-羟基-3\",5\"-二叔戊基苯基)苯并三唑;",
    "alternate_name": "Phenol, 2-(2<em>H</em>-benzotriazol-2-yl)-4,6-bis(1,1-dimethylpropyl)-;Phenol, 2-(2<em>H</em>-benzotriazol-2-yl)-4,6-di-<em>tert</em>-pentyl-;2-(2<em>H</em>-Benzotriazol-2-yl)-4,6-bis(1,1-dimethylpropyl)phenol;2-(2-Hydroxy-3,5-di-<em>tert</em>-amylphenyl)benzotriazole;Tinuvin 328;2-(2-Hydroxy-3,5-di-<em>tert</em>-pentylphenyl)benzotriazole;2-(2<em>H</em>-Benzotriazol-2-yl)-4,6-di-<em>tert</em>-pentylphenol;2-(3,5-Di-<em>tert</em>-amyl-2-hydroxyphenyl)benzotriazole;2-(3′,5′-Di-<em>tert</em>-amyl-2′-hydroxyphenyl)benzotriazole;2-(2-Hydroxy-3,5-di-<em>tert</em>-amylphenyl)-2<em>H</em>-benzotriazole;2-(3,5-Di-<em>tert</em>-amyl-2-hydroxyphenyl)-2<em>H</em>-benzotriazole;Sumisorb 350;Viosorb 591;Seesorb 704;2-(2′-Hydroxy-3′,5′-di-<em>tert</em>-amylphenyl)benzotriazole;Cyasorb UV 2337;2-(3,5-Di-<em>tert</em>-pentyl-2-hydroxyphenyl)-2<em>H</em>-benzotriazole;Kemisorb 74;Tin 328;Lowilite 28;UV 328;2-(3,5-Di-<em>tert</em>-pentyl-2-hydroxyphenyl)benzotriazole;Chisorb 328;UV 74;Eversorb 74;UV 2337;THUV 328;2-[2-Hydroxy-3,5-bis(1,1-dimethylpropyl)phenyl]-2<em>H</em>-benzotriazole;Light Stabilizer 328;Tinuvin PA 238;2-(Benzotriazol-2-yl)-4,6-bis-(2-methylbutan-2-yl)phenol;2-(Benzotriazol-2-yl)-4,6-bis-(1,1-dimethyl-propyl)phenol;EV 74;Hostavin 3310;BLS 99-2;2-(2<em>H</em>-Benzotriazol-2-yl)-4,6-di-<em>tert</em>-amylphenol;2-(2<em>H</em>-Benzotriazol-2-yl)-4,6-ditertpentylphenol;2-(2′-Hydroxy-3′,5′-di-<em>tert</em>-amylphenyl)-2<em>H</em>-benzotriazole;2-(2′-Hydroxy-3′,5′-<em>tert</em>-amylphenyl)benzotriazole;Chiguard 328;Chemsorb 328;Tinuvin PA 328",
    "duplicated_cas_no": "3142-41-4;42558-99-6;51829-45-9;70419-42-0;98354-04-2;102257-30-7;104817-16-5;131242-53-0;134018-57-8;153613-73-1;186805-09-4;188025-36-7;189377-89-7;796971-88-5;850346-35-9;855281-45-7;909728-30-9;1244977-94-3;1391942-68-9;1449275-36-8;1492588-58-5;2098648-58-7;2135719-12-7;2502966-12-1",
    "SMILES": "OC1=C(N2N=C3C(=N2)C=CC=C3)C=C(C(CC)(C)C)C=C1C(CC)(C)C",
    "meta_data": {
        "InChI": "InChI=1S/C22H29N3O/c1-7-21(3,4)15-13-16(22(5,6)8-2)20(26)19(14-15)25-23-17-11-9-10-12-18(17)24-25/h9-14,26H,7-8H2,1-6H3",
        "InChIKey": null,
        "Canonical SMILES": "OC=1C(=CC(=CC1C(C)(C)CC)C(C)(C)CC)N2N=C3C=CC=CC3=N2",
        "Molecular Formula": "C<sub>22</sub>H<sub>29</sub>N<sub>3</sub>O",
        "Molecular Mass": "351.49",
        "Melting Point": "86.5-88.0 °C",
        "Density": "0.958 g/cm³"
    }
}