{
    "cas_no": "7789-02-8",
    "key_name": "Chromium nitrate nonahydrate",
    "cn_name": "硝酸铬九水合物;硝酸铬,九水;",
    "alternate_name": "Nitric acid, chromium(3+) salt, nonahydrate;Chromic nitrate nonahydrate;Chromium nitrate nonahydrate;Chromium trinitrate nonahydrate;Chromium nitrate (Cr(NO<sub>3</sub>)<sub>3</sub>) nonahydrate;Chromium(III) nitrate nonahydrate",
    "duplicated_cas_no": "2379804-74-5;2411676-68-9",
    "SMILES": "N(=O)(=O)O.[Cr].O",
    "meta_data": {
        "InChI": "InChI=1S/Cr.HNO3.3H2O/c;2-1(3)4;;;/h;(H,2,3,4);3*1H2",
        "InChIKey": null,
        "Canonical SMILES": "[Cr].O=N(=O)O.O",
        "Molecular Formula": "Cr.9H<sub>2</sub>O.3HNO<sub>3</sub>",
        "Molecular Mass": "",
        "Melting Point": "37 °C"
    }
}