{
    "cas_no": "1609-47-8",
    "key_name": "Diethyl dicarbonate",
    "cn_name": "焦碳酸二乙酯;",
    "alternate_name": "Dicarbonic acid, 1,3-diethyl ester;Formic acid, oxydi-, diethyl ester;Dicarbonic acid, diethyl ester;Pyrocarbonic acid diethyl ester;Baycovin;DEPC;Diethyl dicarbonate;Diethyl oxydiformate;Diethyl pyrocarbonate;Piref;DEPA;Dekapex;Ue 5908",
    "duplicated_cas_no": "",
    "SMILES": "C(OC(OCC)=O)(OCC)=O",
    "meta_data": {
        "InChI": "InChI=1S/C6H10O5/c1-3-9-5(7)11-6(8)10-4-2/h3-4H2,1-2H3",
        "InChIKey": null,
        "Canonical SMILES": "O=C(OC(=O)OCC)OCC",
        "Molecular Formula": "C<sub>6</sub>H<sub>10</sub>O<sub>5</sub>",
        "Molecular Mass": "162.14",
        "Boiling Point": "93.5 °C",
        "Melting Point": "&lt;25 °C",
        "Density": "1.1300 g/cm³ @ Temp: 20 °C"
    }
}