{
    "cas_no": "5980-15-4",
    "key_name": "1,4-Didodecyl butanedioate",
    "cn_name": "二月桂醇酯琥珀酸;",
    "alternate_name": "Butanedioic acid, 1,4-didodecyl ester;Succinic acid, didodecyl ester;Butanedioic acid, didodecyl ester;1,4-Didodecyl butanedioate;Dilauryl succinate;Bisdodecyl succinate;Didodecyl succinate",
    "duplicated_cas_no": "",
    "SMILES": "C(CCC(OCCCCCCCCCCCC)=O)(OCCCCCCCCCCCC)=O",
    "meta_data": {
        "InChI": "InChI=1S/C28H54O4/c1-3-5-7-9-11-13-15-17-19-21-25-31-27(29)23-24-28(30)32-26-22-20-18-16-14-12-10-8-6-4-2/h3-26H2,1-2H3",
        "InChIKey": null,
        "Canonical SMILES": "O=C(OCCCCCCCCCCCC)CCC(=O)OCCCCCCCCCCCC",
        "Molecular Formula": "C<sub>28</sub>H<sub>54</sub>O<sub>4</sub>",
        "Molecular Mass": "454.73",
        "Melting Point": "39 °C"
    }
}