{
    "cas_no": "112-06-1",
    "key_name": "Heptyl acetate",
    "cn_name": "乙酸庚酯;",
    "alternate_name": "Acetic acid, heptyl ester;Heptyl acetate;<em>n</em>-Heptyl acetate;1-Heptyl acetate;Heptyl alcohol, acetate;Heptyl ethanoate;NSC 3833",
    "duplicated_cas_no": "25360-20-7",
    "SMILES": "C(CCCCC)COC(C)=O",
    "meta_data": {
        "InChI": "InChI=1S/C9H18O2/c1-3-4-5-6-7-8-11-9(2)10/h3-8H2,1-2H3",
        "InChIKey": null,
        "Canonical SMILES": "O=C(OCCCCCCC)C",
        "Molecular Formula": "C<sub>9</sub>H<sub>18</sub>O<sub>2</sub>",
        "Molecular Mass": "158.24",
        "Boiling Point": "193 °C",
        "Melting Point": "-50.2 °C",
        "Density": "0.8857 g/cm³ @ Temp: 19 °C"
    }
}