{
    "cas_no": "539-64-0",
    "key_name": "Glycine, <em>N</em>,<em>N</em>-dimethyl-, hydrazide, hydrochloride (1:1)",
    "cn_name": null,
    "alternate_name": "Glycine, <em>N</em>,<em>N</em>-dimethyl-, hydrazide, hydrochloride (1:1);Glycine, <em>N</em>,<em>N</em>-dimethyl-, hydrazide, monohydrochloride;<em>N</em>,<em>N</em>-Dimethylglycine hydrazide hydrochloride;Girard's D reagent;Girard's reagent D;Reagents, Girard's D;Girard reagent D;2-(Dimethylamino)acetohydrazide hydrochloride",
    "duplicated_cas_no": "",
    "SMILES": "C(CN(C)C)(NN)=O.Cl",
    "meta_data": {
        "InChI": "InChI=1S/C4H11N3O.ClH/c1-7(2)3-4(8)6-5;/h3,5H2,1-2H3,(H,6,8);1H",
        "InChIKey": null,
        "Canonical SMILES": "Cl.O=C(NN)CN(C)C",
        "Molecular Formula": "C<sub>4</sub>H<sub>11</sub>N<sub>3</sub>O.ClH",
        "Molecular Mass": "",
        "Melting Point": "181-183 °C"
    }
}