{
    "cas_no": "40207-02-1",
    "key_name": "<em>N</em>-(2-Methoxyphenyl)hydrazinecarbothioamide",
    "cn_name": null,
    "alternate_name": "Hydrazinecarbothioamide, <em>N</em>-(2-methoxyphenyl)-;Semicarbazide, 4-(<em>o</em>-methoxyphenyl)-3-thio-;<em>N</em>-(2-Methoxyphenyl)hydrazinecarbothioamide;4-(<em>o</em>-Methoxyphenyl)-3-thiosemicarbazide;4-(<em>o</em>-Methoxyphenyl)thiosemicarbazide;4-(2-Methoxyphenyl)thiosemicarbazide;4-(2-Methoxyphenyl)-3-thiosemicarbazide;<em>N</em>-(2-Methoxyphenyl)thiosemicarbazide;1-Amino-3-(2-methoxyphenyl)thiourea;3-Amino-1-(2-methoxyphenyl)thiourea",
    "duplicated_cas_no": "",
    "SMILES": "N(C(NN)=S)C1=C(OC)C=CC=C1",
    "meta_data": {
        "InChI": "InChI=1S/C8H11N3OS/c1-12-7-5-3-2-4-6(7)10-8(13)11-9/h2-5H,9H2,1H3,(H2,10,11,13)",
        "InChIKey": null,
        "Canonical SMILES": "S=C(NN)NC=1C=CC=CC1OC",
        "Molecular Formula": "C<sub>8</sub>H<sub>11</sub>N<sub>3</sub>OS",
        "Molecular Mass": "197.26",
        "Melting Point": "156 °C"
    }
}