{
    "cas_no": "103750-03-4",
    "key_name": "2,5-Dioxo-1-pyrrolidinyl 2,5-dihydro-2,5-dioxo-1<em>H</em>-pyrrole-1-pentanoate",
    "cn_name": null,
    "alternate_name": "1<em>H</em>-Pyrrole-1-pentanoic acid, 2,5-dihydro-2,5-dioxo-, 2,5-dioxo-1-pyrrolidinyl ester;1<em>H</em>-Pyrrole-2,5-dione, 1-[5-[(2,5-dioxo-1-pyrrolidinyl)oxy]-5-oxopentyl]-;2,5-Dioxo-1-pyrrolidinyl 2,5-dihydro-2,5-dioxo-1<em>H</em>-pyrrole-1-pentanoate;2,5-Dioxopyrrolidin-1-yl 5-(2,5-dioxo-2,5-dihydro-1<em>H</em>-pyrrol-1-yl)pentanoate",
    "duplicated_cas_no": "",
    "SMILES": "O(C(CCCCN1C(=O)C=CC1=O)=O)N2C(=O)CCC2=O",
    "meta_data": {
        "InChI": "InChI=1S/C13H14N2O6/c16-9-4-5-10(17)14(9)8-2-1-3-13(20)21-15-11(18)6-7-12(15)19/h4-5H,1-3,6-8H2",
        "InChIKey": null,
        "Canonical SMILES": "O=C1C=CC(=O)N1CCCCC(=O)ON2C(=O)CCC2=O",
        "Molecular Formula": "C<sub>13</sub>H<sub>14</sub>N<sub>2</sub>O<sub>6</sub>",
        "Molecular Mass": "294.26",
        "Melting Point": "135-137 °C"
    }
}