{
    "cas_no": "929-62-4",
    "key_name": "1-(Ethenyloxy)octane",
    "cn_name": null,
    "alternate_name": "Octane, 1-(ethenyloxy)-;Ether, octyl vinyl;1-(Ethenyloxy)octane;<em>n</em>-Octyl vinyl ether;Octyl vinyl ether;Vinyl octyl ether;1-(Vinyloxy)octane",
    "duplicated_cas_no": "",
    "SMILES": "C(CCCCC)CCOC=C",
    "meta_data": {
        "InChI": "InChI=1S/C10H20O/c1-3-5-6-7-8-9-10-11-4-2/h4H,2-3,5-10H2,1H3",
        "InChIKey": null,
        "Canonical SMILES": "O(C=C)CCCCCCCC",
        "Molecular Formula": "C<sub>10</sub>H<sub>20</sub>O",
        "Molecular Mass": "156.27",
        "Boiling Point": "75 °C @ Press: 5 Torr",
        "Density": "0.8028 g/cm³ @ Temp: 420 °C"
    }
}