{
    "cas_no": "1192-58-1",
    "key_name": "1-Methyl-1<em>H</em>-pyrrole-2-carboxaldehyde",
    "cn_name": "N-甲基-2-吡咯甲醛;",
    "alternate_name": "1<em>H</em>-Pyrrole-2-carboxaldehyde, 1-methyl-;Pyrrole-2-carboxaldehyde, 1-methyl-;1-Methyl-1<em>H</em>-pyrrole-2-carboxaldehyde;1-Methyl-2-formylpyrrole;<em>N</em>-Methyl-2-formylpyrrole;<em>N</em>-Methylpyrrole-2-carboxaldehyde;2-Formyl-1-methylpyrrole;1-Methylpyrrole-2-carboxaldehyde;<em>N</em>-Methyl-2-pyrrolylcarboxaldehyde;<em>N</em>-Methyl-2-pyrrolaldehyde;<em>N</em>-Methylpyrrole-2-carbaldehyde;2-Formyl-<em>N</em>-methylpyrrole;NSC 72386;N-Methyl-2-pyrrolecarboxaldehyde;1-Methyl-1<em>H</em>-pyrrole-2-carbaldehyde;1-Methylpyrrole-2-carbaldehyde",
    "duplicated_cas_no": "",
    "SMILES": "C(=O)C=1N(C)C=CC1",
    "meta_data": {
        "InChI": "InChI=1S/C6H7NO/c1-7-4-2-3-6(7)5-8/h2-5H,1H3",
        "InChIKey": null,
        "Canonical SMILES": "O=CC1=CC=CN1C",
        "Molecular Formula": "C<sub>6</sub>H<sub>7</sub>NO",
        "Molecular Mass": "109.13",
        "Boiling Point": "75.6 °C @ Press: 12-13 Torr"
    }
}