{
    "cas_no": "3944-72-7",
    "key_name": "1-Octanesulfonic acid",
    "cn_name": null,
    "alternate_name": "1-Octanesulfonic acid;<em>n</em>-Octanesulfonic acid;Octylsulfonic acid",
    "duplicated_cas_no": "",
    "SMILES": "C(CCCCCCC)S(=O)(=O)O",
    "meta_data": {
        "InChI": "InChI=1S/C8H18O3S/c1-2-3-4-5-6-7-8-12(9,10)11/h2-8H2,1H3,(H,9,10,11)",
        "InChIKey": null,
        "Canonical SMILES": "O=S(=O)(O)CCCCCCCC",
        "Molecular Formula": "C<sub>8</sub>H<sub>18</sub>O<sub>3</sub>S",
        "Molecular Mass": "194.29",
        "Melting Point": "103-104 °C"
    }
}