{
    "cas_no": "5423-22-3",
    "key_name": "Guanidine, phosphate (1:1)",
    "cn_name": null,
    "alternate_name": "Guanidine, phosphate (1:1);Monoguanidine phosphate;Monoguanidium phosphate;Guanidinium dihydrogen phosphate;NSC 8140",
    "duplicated_cas_no": "",
    "SMILES": "P(=O)(O)(O)O.C(=N)(N)N",
    "meta_data": {
        "InChI": "InChI=1S/CH5N3.H3O4P/c2-1(3)4;1-5(2,3)4/h(H5,2,3,4);(H3,1,2,3,4)",
        "InChIKey": null,
        "Canonical SMILES": "O=P(O)(O)O.N=C(N)N",
        "Molecular Formula": "CH<sub>5</sub>N<sub>3</sub>.H<sub>3</sub>O<sub>4</sub>P",
        "Molecular Mass": "",
        "Melting Point": "107 °C"
    }
}