{
    "cas_no": "615-28-1",
    "key_name": "<em>o</em>-Phenylenediamine, dihydrochloride",
    "cn_name": "邻苯二胺二盐酸盐;OPD片;",
    "alternate_name": "1,2-Benzenediamine, hydrochloride (1:2);<em>o</em>-Phenylenediamine, dihydrochloride;1,2-Benzenediamine, dihydrochloride;1,2-Phenylenediamine dihydrochloride;1,2-Diaminobenzene dihydrochloride",
    "duplicated_cas_no": "",
    "SMILES": "NC1=C(N)C=CC=C1.Cl",
    "meta_data": {
        "InChI": "InChI=1S/C6H8N2.2ClH/c7-5-3-1-2-4-6(5)8;;/h1-4H,7-8H2;2*1H",
        "InChIKey": null,
        "Canonical SMILES": "Cl.NC=1C=CC=CC1N",
        "Molecular Formula": "C<sub>6</sub>H<sub>8</sub>N<sub>2</sub>.2ClH",
        "Molecular Mass": "",
        "Melting Point": "200 °C (decomp)"
    }
}