{
    "cas_no": "27582-14-5",
    "key_name": "2-Methyl-3-nitro-4-pyridinamine",
    "cn_name": null,
    "alternate_name": "4-Pyridinamine, 2-methyl-3-nitro-;2-Picoline, 4-amino-3-nitro-;2-Methyl-3-nitro-4-pyridinamine;2-Methyl-3-nitropyridin-4-amine",
    "duplicated_cas_no": "",
    "SMILES": "N(=O)(=O)C=1C(N)=CC=NC1C",
    "meta_data": {
        "InChI": "InChI=1S/C6H7N3O2/c1-4-6(9(10)11)5(7)2-3-8-4/h2-3H,1H3,(H2,7,8)",
        "InChIKey": null,
        "Canonical SMILES": "O=N(=O)C1=C(N)C=CN=C1C",
        "Molecular Formula": "C<sub>6</sub>H<sub>7</sub>N<sub>3</sub>O<sub>2</sub>",
        "Molecular Mass": "153.14",
        "Melting Point": "175 °C"
    }
}