{
    "cas_no": "488-11-9",
    "key_name": "Mucobromic acid",
    "cn_name": "粘溴酸;糠溴酸;2,3-二溴-4-氧代-2-丁烯酸;",
    "alternate_name": "2-Butenoic acid, 2,3-dibromo-4-oxo-, (2<em>Z</em>)-;Malealdehydic acid, dibromo-;Mucobromic acid;2-Butenoic acid, 2,3-dibromo-4-oxo-, (<em>Z</em>)-;(2<em>Z</em>)-2,3-Dibromo-4-oxo-2-butenoic acid;Bromomucic acid;(Z)-2,3-Dibromo-4-oxobut-2-enoic acid",
    "duplicated_cas_no": "",
    "SMILES": "C(=C(\\C=O)/Br)(\\C(O)=O)/Br",
    "meta_data": {
        "InChI": "InChI=1S/C4H2Br2O3/c5-2(1-7)3(6)4(8)9/h1H,(H,8,9)/b3-2-",
        "InChIKey": null,
        "Canonical SMILES": "O=CC(Br)=C(Br)C(=O)O",
        "Molecular Formula": "C<sub>4</sub>H<sub>2</sub>Br<sub>2</sub>O<sub>3</sub>",
        "Molecular Mass": "257.86",
        "Melting Point": "123-124 °C"
    }
}