{
    "cas_no": "98-52-2",
    "key_name": "4-<em>tert</em>-Butylcyclohexanol",
    "cn_name": "4-叔丁基环己醇;对叔丁基环己醇;",
    "alternate_name": "Cyclohexanol, 4-(1,1-dimethylethyl)-;Cyclohexanol, 4-<em>tert</em>-butyl-;4-(1,1-Dimethylethyl)cyclohexanol;4-<em>tert</em>-Butylcyclohexanol;NSC 404197;4-<em>tert</em>-Butyl-1-cyclohexanol",
    "duplicated_cas_no": "",
    "SMILES": "C(C)(C)(C)C1CCC(O)CC1",
    "meta_data": {
        "InChI": "InChI=1S/C10H20O/c1-10(2,3)8-4-6-9(11)7-5-8/h8-9,11H,4-7H2,1-3H3",
        "InChIKey": null,
        "Canonical SMILES": "OC1CCC(CC1)C(C)(C)C",
        "Molecular Formula": "C<sub>10</sub>H<sub>20</sub>O",
        "Molecular Mass": "156.27",
        "Boiling Point": "119-129 °C @ Press: 29 Torr",
        "Melting Point": "82 °C"
    }
}