{
    "cas_no": "53324-38-2",
    "key_name": "4-Bromo-3-nitrobenzenamine",
    "cn_name": "4-溴-3-硝基苯胺;",
    "alternate_name": "Benzenamine, 4-bromo-3-nitro-;Aniline, 4-bromo-3-nitro-;4-Bromo-3-nitrobenzenamine;4-Bromo-3-nitroaniline;5-Amino-2-bromonitrobenzene",
    "duplicated_cas_no": "",
    "SMILES": "N(=O)(=O)C1=C(Br)C=CC(N)=C1",
    "meta_data": {
        "InChI": "InChI=1S/C6H5BrN2O2/c7-5-2-1-4(8)3-6(5)9(10)11/h1-3H,8H2",
        "InChIKey": null,
        "Canonical SMILES": "O=N(=O)C1=CC(N)=CC=C1Br",
        "Molecular Formula": "C<sub>6</sub>H<sub>5</sub>BrN<sub>2</sub>O<sub>2</sub>",
        "Molecular Mass": "217.02",
        "Melting Point": "125-126 °C"
    }
}