{
    "cas_no": "6375-47-9",
    "key_name": "<em>N</em>-(3-Amino-4-methoxyphenyl)acetamide",
    "cn_name": "3-氨基-4-甲氧基乙酰苯胺;2-氨基-4-乙酰氨基苯甲醚;",
    "alternate_name": "Acetamide, <em>N</em>-(3-amino-4-methoxyphenyl)-;<em>p</em>-Acetanisidide, 3′-amino-;<em>N</em>-(3-Amino-4-methoxyphenyl)acetamide;2-Amino-4-(acetylamino)anisole;1-Methoxy-4-(<em>N</em>-acetylamino)-2-aminobenzene;2-Methoxy-5-(acetylamino)aniline;4-Acetamido-2-aminoanisole;5-Acetamido-2-methoxyaniline;4′-Methoxy-3′-aminoacetanilide;<em>m</em>-Amino-<em>p</em>-methoxyacetanilide;5-(Acetylamino)-2-methoxyaniline;4-(Acetylamino)-2-aminoanisole;3′-Amino-4′-methoxyacetanilide;2-Amino-4-(acetylamino)phenyl methyl ether;2-Amino-4-acetaminoanisole;2-Amino-4-acetamidoanisole",
    "duplicated_cas_no": "",
    "SMILES": "O(C)C1=C(N)C=C(NC(C)=O)C=C1",
    "meta_data": {
        "InChI": "InChI=1S/C9H12N2O2/c1-6(12)11-7-3-4-9(13-2)8(10)5-7/h3-5H,10H2,1-2H3,(H,11,12)",
        "InChIKey": null,
        "Canonical SMILES": "O=C(NC1=CC=C(OC)C(N)=C1)C",
        "Molecular Formula": "C<sub>9</sub>H<sub>12</sub>N<sub>2</sub>O<sub>2</sub>",
        "Molecular Mass": "180.20",
        "Melting Point": "108-109 °C"
    }
}