{
    "cas_no": "10099-58-8",
    "key_name": "Lanthanum chloride (LaCl<sub>3</sub>)",
    "cn_name": null,
    "alternate_name": "Lanthanum chloride (LaCl<sub>3</sub>);Lanthanum trichloride;Lanthanum chloride;Lanthanum chloride (La<sub>2</sub>Cl<sub>6</sub>);Lanthanum(III) chloride",
    "duplicated_cas_no": "12314-13-5",
    "SMILES": "[La](Cl)(Cl)Cl",
    "meta_data": {
        "InChI": "InChI=1S/3ClH.La/h3*1H;/q;;;+3/p-3",
        "InChIKey": null,
        "Canonical SMILES": "Cl[La](Cl)Cl",
        "Molecular Formula": "Cl<sub>3</sub>La",
        "Molecular Mass": "",
        "Melting Point": "860 °C"
    }
}