{
    "cas_no": "62-53-3",
    "key_name": "Aniline",
    "cn_name": "苯胺;氨基苯;",
    "alternate_name": "Benzenamine;Aniline;C.I. 76000;Aminophen;Benzene, amino-;Blue Oil;Phenylamine;Anyvim;Aminobenzene;NCI 176889",
    "duplicated_cas_no": "37342-16-8;146997-94-6;1533423-51-6;1582784-51-7;1619933-02-6",
    "SMILES": "NC1=CC=CC=C1",
    "meta_data": {
        "InChI": "InChI=1S/C6H7N/c7-6-4-2-1-3-5-6/h1-5H,7H2",
        "InChIKey": null,
        "Canonical SMILES": "NC=1C=CC=CC1",
        "Molecular Formula": "C<sub>6</sub>H<sub>7</sub>N",
        "Molecular Mass": "93.13",
        "Boiling Point": "184.1 °C",
        "Melting Point": "-6.0 °C",
        "Density": "1.0217 g/cm³ @ Temp: 20 °C"
    }
}