{
    "cas_no": "1775-95-7",
    "key_name": "2-Amino-5-nitrobenzophenone",
    "cn_name": "2-氨基-5-硝基二苯甲酮;",
    "alternate_name": "Methanone, (2-amino-5-nitrophenyl)phenyl-;Benzophenone, 2-amino-5-nitro-;(2-Amino-5-nitrophenyl)phenylmethanone;2-Amino-5-nitrobenzophenone;5-Nitro-2-aminobenzophenone;Ro 7-19990;2-Benzoyl-4-nitroaniline",
    "duplicated_cas_no": "",
    "SMILES": "C(=O)(C1=CC(N(=O)=O)=CC=C1N)C2=CC=CC=C2",
    "meta_data": {
        "InChI": "InChI=1S/C13H10N2O3/c14-12-7-6-10(15(17)18)8-11(12)13(16)9-4-2-1-3-5-9/h1-8H,14H2",
        "InChIKey": null,
        "Canonical SMILES": "O=C(C=1C=CC=CC1)C2=CC(=CC=C2N)N(=O)=O",
        "Molecular Formula": "C<sub>13</sub>H<sub>10</sub>N<sub>2</sub>O<sub>3</sub>",
        "Molecular Mass": "242.23",
        "Melting Point": "160.1 °C"
    }
}