{
    "cas_no": "209410-46-8",
    "key_name": "5-(2,6-Dichlorophenyl)-2-[(2,4-difluorophenyl)thio]-6<em>H</em>-pyrimido[1,6-<em>b</em>]pyridazin-6-one",
    "cn_name": "5-(2,6-二氯苯基)-2-((2,4-二氟苯基)硫基)-6H-嘧啶并[1,6-b]哒嗪-6-酮;",
    "alternate_name": "6<em>H</em>-Pyrimido[1,6-<em>b</em>]pyridazin-6-one, 5-(2,6-dichlorophenyl)-2-[(2,4-difluorophenyl)thio]-;5-(2,6-Dichlorophenyl)-2-[(2,4-difluorophenyl)thio]-6<em>H</em>-pyrimido[1,6-<em>b</em>]pyridazin-6-one;VX 745;Neflamapimod;VRT 031745;VD 31745",
    "duplicated_cas_no": "",
    "SMILES": "O=C1C(=C2N(N=C(SC3=C(F)C=C(F)C=C3)C=C2)C=N1)C4=C(Cl)C=CC=C4Cl",
    "meta_data": {
        "InChI": "InChI=1S/C19H9Cl2F2N3OS/c20-11-2-1-3-12(21)17(11)18-14-5-7-16(25-26(14)9-24-19(18)27)28-15-6-4-10(22)8-13(15)23/h1-9H",
        "InChIKey": null,
        "Canonical SMILES": "O=C1N=CN2N=C(SC3=CC=C(F)C=C3F)C=CC2=C1C=4C(Cl)=CC=CC4Cl",
        "Molecular Formula": "C<sub>19</sub>H<sub>9</sub>Cl<sub>2</sub>F<sub>2</sub>N<sub>3</sub>OS",
        "Molecular Mass": "436.26",
        "Melting Point": "261-264 °C"
    }
}