{
    "cas_no": "670-80-4",
    "key_name": "1-Morpholinocyclohexene",
    "cn_name": "1-吗啉基-1-环己烯;",
    "alternate_name": "Morpholine, 4-(1-cyclohexen-1-yl)-;4-(1-Cyclohexen-1-yl)morpholine;1-Morpholino-1-cyclohexene;Cyclohexanone morpholine enamine;1-Morpholinocyclohexene;4-(1-Cyclohexenyl)morpholine;1-(<em>N</em>-Morpholino)cyclohexene;<em>N</em>-Morpholino-1-cyclohexene;<em>N</em>-Cyclohex-1-enylmorpholine;1-(<em>N</em>-Morpholinyl)cyclohexene;<em>N</em>-1′-Cyclohexenylmorpholine;2-Morpholino-1-cyclohexene;1-(4-Morpholino)cyclohexene;1-(Morpholin-4-yl)cyclohexene;1-(4-Morpholino)-1-cyclohexene;NSC 42450;<em>N</em>-(1-Cyclohexen-1-yl)morpholine;1-(Morpholin-4-yl)cyclohex-1-ene",
    "duplicated_cas_no": "",
    "SMILES": "C=1(CCCCC1)N2CCOCC2",
    "meta_data": {
        "InChI": "InChI=1S/C10H17NO/c1-2-4-10(5-3-1)11-6-8-12-9-7-11/h4H,1-3,5-9H2",
        "InChIKey": null,
        "Canonical SMILES": "O1CCN(C2=CCCCC2)CC1",
        "Molecular Formula": "C<sub>10</sub>H<sub>17</sub>NO",
        "Molecular Mass": "167.25",
        "Boiling Point": "117-120 °C @ Press: 10 Torr"
    }
}