{
    "cas_no": "10570-67-9",
    "key_name": "4-Iodo-2,6-dimethylphenol",
    "cn_name": "4-碘基-2,6-二甲酚;4-碘-2,6-二甲基苯酚;2,6-二甲基-4-碘苯酚;",
    "alternate_name": "Phenol, 4-iodo-2,6-dimethyl-;2,6-Xylenol, 4-iodo-;4-Iodo-2,6-dimethylphenol;2,6-Dimethyl-4-iodophenol;4-Iodo-2,6-xylenol;4-Iodo-2,6-methylphenol",
    "duplicated_cas_no": "",
    "SMILES": "OC1=C(C)C=C(I)C=C1C",
    "meta_data": {
        "InChI": "InChI=1S/C8H9IO/c1-5-3-7(9)4-6(2)8(5)10/h3-4,10H,1-2H3",
        "InChIKey": null,
        "Canonical SMILES": "IC=1C=C(C(O)=C(C1)C)C",
        "Molecular Formula": "C<sub>8</sub>H<sub>9</sub>IO",
        "Molecular Mass": "248.06",
        "Melting Point": "99.5-100.5 °C"
    }
}