{
    "cas_no": "91-59-8",
    "key_name": "2-Naphthylamine",
    "cn_name": "2-萘胺;",
    "alternate_name": "2-Naphthalenamine;2-Naphthylamine;C.I. 37270;2-Aminonaphthalene;Fast Scarlet Base B;β-Naphthylamine;Naphthalen-2-ylamine;β-Aminonaphthalene;<em>o</em>-Aminonaphthalene;MeSH ID: D015081",
    "duplicated_cas_no": "",
    "SMILES": "NC1=CC2=C(C=C1)C=CC=C2",
    "meta_data": {
        "InChI": "InChI=1S/C10H9N/c11-10-6-5-8-3-1-2-4-9(8)7-10/h1-7H,11H2",
        "InChIKey": null,
        "Canonical SMILES": "NC=1C=CC=2C=CC=CC2C1",
        "Molecular Formula": "C<sub>10</sub>H<sub>9</sub>N",
        "Molecular Mass": "143.19",
        "Boiling Point": "306 °C",
        "Melting Point": "111-113 °C",
        "Density": "1.061 g/cm³ @ Temp: 98 °C"
    }
}