{
    "cas_no": "5408-04-8",
    "key_name": "Butanoic acid, 2-(hydroxyimino)-3-oxo-, ethyl ester",
    "cn_name": "2-(羟亚氨基)乙酰乙酸乙酯;2-羟亚氨基-3-氧代丁酸乙酯;",
    "alternate_name": "Butanoic acid, 2-(hydroxyimino)-3-oxo-, ethyl ester;Butyric acid, 2,3-dioxo-, ethyl ester, 2-oxime;Butyric acid, α,β-dioxo-, ethyl ester α-oxime;Ethyl α-isonitrosoacetoacetate;Ethyl 2-(hydroxyimino)acetoacetate;Ethyl 2-oximinoacetoacetate;Ethyl α-(hydroxyimino)acetoacetate;2-(Hydroxyimino)-3-oxobutyric acid ethyl ester;Ethyl α-oximinoacetoacetate;Ethyl 2-(hydroxyimino)-3-ketobutyrate;Ethyl 2-(hydroxyimino)-3-oxobutanoate;2-Hydroxyimino-3-oxobutanoic acid ethyl ester;NSC 10758",
    "duplicated_cas_no": "",
    "SMILES": "C(C(OCC)=O)(C(C)=O)=NO",
    "meta_data": {
        "InChI": "InChI=1S/C6H9NO4/c1-3-11-6(9)5(7-10)4(2)8/h10H,3H2,1-2H3",
        "InChIKey": null,
        "Canonical SMILES": "O=C(OCC)C(=NO)C(=O)C",
        "Molecular Formula": "C<sub>6</sub>H<sub>9</sub>NO<sub>4</sub>",
        "Molecular Mass": "159.14",
        "Boiling Point": "136-137 °C @ Press: 5 Torr",
        "Melting Point": "45-47 °C"
    }
}