{
    "cas_no": "1780-31-0",
    "key_name": "2,4-Dichloro-5-methylpyrimidine",
    "cn_name": "2,4-二氯-5-甲基嘧啶;",
    "alternate_name": "Pyrimidine, 2,4-dichloro-5-methyl-;2,4-Dichloro-5-methylpyrimidine;5-Methyl-2,4-dichloropyrimidine;NSC 37532;2,6-Dichloro-5-methylpyrimidine",
    "duplicated_cas_no": "",
    "SMILES": "ClC=1C(C)=CN=C(Cl)N1",
    "meta_data": {
        "InChI": "InChI=1S/C5H4Cl2N2/c1-3-2-8-5(7)9-4(3)6/h2H,1H3",
        "InChIKey": null,
        "Canonical SMILES": "ClC1=NC=C(C(Cl)=N1)C",
        "Molecular Formula": "C<sub>5</sub>H<sub>4</sub>Cl<sub>2</sub>N<sub>2</sub>",
        "Molecular Mass": "163.00",
        "Boiling Point": "235 °C",
        "Melting Point": "26 °C"
    }
}