{
    "cas_no": "77-09-8",
    "key_name": "3,3-Bis(4-hydroxyphenyl)phthalide",
    "cn_name": "酚酞;3,3-双(4-羟基苯基)-1(3H)-异苯并呋喃酮;",
    "alternate_name": "1(3<em>H</em>)-Isobenzofuranone, 3,3-bis(4-hydroxyphenyl)-;Phenolphthalein;3,3-Bis(4-hydroxyphenyl)-1(3<em>H</em>)-isobenzofuranone;3,3-Bis(4-hydroxyphenyl)phthalide;Purga;Laxogen;Spulmako-lax;Lilo;Trilax;Koprol;Purgophen;Euchessina;Phthalimetten;Purgen;Phthalin;3,3-Bis(<em>p</em>-hydroxyphenyl)phthalide;NSC 10464;NSC 215214;TY 9;PX 0520-1;3,3-Bis-(4-hydroxy-phenyl)-3<em>H</em>-isobenzofuran-1-one;3,3-Bis(4-hydroxyphenyl)-2-benzofuran-1-one;MeSH ID: D020113",
    "duplicated_cas_no": "467-29-8;57214-20-7;390417-24-0;546094-13-7;1541170-18-6",
    "SMILES": "O=C1OC(C=2C1=CC=CC2)(C3=CC=C(O)C=C3)C4=CC=C(O)C=C4",
    "meta_data": {
        "InChI": "InChI=1S/C20H14O4/c21-15-9-5-13(6-10-15)20(14-7-11-16(22)12-8-14)18-4-2-1-3-17(18)19(23)24-20/h1-12,21-22H",
        "InChIKey": null,
        "Canonical SMILES": "O=C1OC(C2=CC=C(O)C=C2)(C3=CC=C(O)C=C3)C=4C=CC=CC14",
        "Molecular Formula": "C<sub>20</sub>H<sub>14</sub>O<sub>4</sub>",
        "Molecular Mass": "318.32",
        "Melting Point": "262.5 °C",
        "Density": "1.277 g/cm³ @ Temp: 32 °C"
    }
}