{
    "cas_no": "2038-44-0",
    "key_name": "Dichloroglyoxime",
    "cn_name": "二氯乙二肟;二氯乙二醛二肟;",
    "alternate_name": "Ethanediimidoyl dichloride, <em>N</em><sup>1</sup>,<em>N</em><sup>2</sup>-dihydroxy-;Glyoxime, dichloro-;Oxalohydroximoyl chloride;Ethanediimidoyl dichloride, dihydroxy-;<em>N</em><sup>1</sup>,<em>N</em><sup>2</sup>-Dihydroxyethanediimidoyl dichloride;Oxalyl chloride, dioxime;Ethanedioyl dichloride, dioxime;Dichloroglyoxime;1,2-Dichloroglyoxime;NSC 528431;DCO",
    "duplicated_cas_no": "",
    "SMILES": "C(C(=NO)Cl)(=NO)Cl",
    "meta_data": {
        "InChI": "InChI=1S/C2H2Cl2N2O2/c3-1(5-7)2(4)6-8/h7-8H",
        "InChIKey": null,
        "Canonical SMILES": "ClC(=NO)C(Cl)=NO",
        "Molecular Formula": "C<sub>2</sub>H<sub>2</sub>Cl<sub>2</sub>N<sub>2</sub>O<sub>2</sub>",
        "Molecular Mass": "156.96",
        "Melting Point": "201 °C"
    }
}