{
    "cas_no": "123-20-6",
    "key_name": "Vinyl butyrate",
    "cn_name": "丁酸乙烯酯;",
    "alternate_name": "Butanoic acid, ethenyl ester;Butyric acid, vinyl ester;Vinyl butyrate;Vinyl butanoate;Vinyl <em>n</em>-butyrate;NSC 5280;Ethenyl butanoate",
    "duplicated_cas_no": "",
    "SMILES": "C(CCC)(OC=C)=O",
    "meta_data": {
        "InChI": "InChI=1S/C6H10O2/c1-3-5-6(7)8-4-2/h4H,2-3,5H2,1H3",
        "InChIKey": null,
        "Canonical SMILES": "O=C(OC=C)CCC",
        "Molecular Formula": "C<sub>6</sub>H<sub>10</sub>O<sub>2</sub>",
        "Molecular Mass": "114.14",
        "Boiling Point": "107-108 °C",
        "Density": "0.8966 g/cm³ @ Temp: 20 °C"
    }
}