{
    "cas_no": "69408-81-7",
    "key_name": "Amonafide",
    "cn_name": "氨萘非特;5-氨基-2-[2-(二甲基氨基)乙基]-1H-苯并[de]异喹啉-1,3(2H)-二酮;",
    "alternate_name": "1<em>H</em>-Benz[<em>de</em>]isoquinoline-1,3(2<em>H</em>)-dione, 5-amino-2-[2-(dimethylamino)ethyl]-;5-Amino-2-[2-(dimethylamino)ethyl]-1<em>H</em>-benz[<em>de</em>]isoquinoline-1,3(2<em>H</em>)-dione;M-FA 142;FA 142;NSC 308847;Nafidimide;MADE-FA 142;Amonafide;NCI 308847",
    "duplicated_cas_no": "",
    "SMILES": "O=C1C=2C=3C(C(=O)N1CCN(C)C)=CC=CC3C=C(N)C2",
    "meta_data": {
        "InChI": "InChI=1S/C16H17N3O2/c1-18(2)6-7-19-15(20)12-5-3-4-10-8-11(17)9-13(14(10)12)16(19)21/h3-5,8-9H,6-7,17H2,1-2H3",
        "InChIKey": null,
        "Canonical SMILES": "O=C1C=2C=CC=C3C=C(N)C=C(C(=O)N1CCN(C)C)C32",
        "Molecular Formula": "C<sub>16</sub>H<sub>17</sub>N<sub>3</sub>O<sub>2</sub>",
        "Molecular Mass": "283.33",
        "Melting Point": "169-171 °C"
    }
}