{
    "cas_no": "334-56-5",
    "key_name": "1-Fluorodecane",
    "cn_name": "1-氟癸;1-氟癸;",
    "alternate_name": "Decane, 1-fluoro-;1-Fluorodecane;Decyl fluoride;1-Decylfluoride",
    "duplicated_cas_no": "",
    "SMILES": "C(CCCCC)CCCCF",
    "meta_data": {
        "InChI": "InChI=1S/C10H21F/c1-2-3-4-5-6-7-8-9-10-11/h2-10H2,1H3",
        "InChIKey": null,
        "Canonical SMILES": "FCCCCCCCCCC",
        "Molecular Formula": "C<sub>10</sub>H<sub>21</sub>F",
        "Molecular Mass": "160.27",
        "Boiling Point": "186.2 °C",
        "Melting Point": "-35 °C",
        "Density": "0.792 g/cm³ @ Temp: 10.2 °C"
    }
}