{
    "cas_no": "2243-47-2",
    "key_name": "3-Aminobiphenyl",
    "cn_name": "3-氨基联苯;",
    "alternate_name": "[1,1′-Biphenyl]-3-amine;3-Biphenylamine;3-Aminobiphenyl;<em>m</em>-Phenylaniline;<em>m</em>-Aminobiphenyl;3-Phenylaniline;(1,1′-Biphenyl-3-yl)amine;3-Amino-1,1′-biphenyl",
    "duplicated_cas_no": "",
    "SMILES": "NC=1C=C(C=CC1)C2=CC=CC=C2",
    "meta_data": {
        "InChI": "InChI=1S/C12H11N/c13-12-8-4-7-11(9-12)10-5-2-1-3-6-10/h1-9H,13H2",
        "InChIKey": null,
        "Canonical SMILES": "NC1=CC=CC(=C1)C=2C=CC=CC2",
        "Molecular Formula": "C<sub>12</sub>H<sub>11</sub>N",
        "Molecular Mass": "169.22",
        "Boiling Point": "177-178 °C @ Press: 18 Torr",
        "Melting Point": "31-31.5 °C"
    }
}