{
    "cas_no": "665-31-6",
    "key_name": "2,2-Difluorobutanedioic acid",
    "cn_name": "2,2-二氟丁二酸;",
    "alternate_name": "Butanedioic acid, 2,2-difluoro-;Succinic acid, 2,2-difluoro-;2,2-Difluorobutanedioic acid;α,α-Difluorosuccinic acid;2,2-Difluorosuccinic acid;2,2-Difluorosuccinate",
    "duplicated_cas_no": "",
    "SMILES": "C(CC(O)=O)(C(O)=O)(F)F",
    "meta_data": {
        "InChI": "InChI=1S/C4H4F2O4/c5-4(6,3(9)10)1-2(7)8/h1H2,(H,7,8)(H,9,10)",
        "InChIKey": null,
        "Canonical SMILES": "O=C(O)CC(F)(F)C(=O)O",
        "Molecular Formula": "C<sub>4</sub>H<sub>4</sub>F<sub>2</sub>O<sub>4</sub>",
        "Molecular Mass": "154.07",
        "Melting Point": "144-145 °C"
    }
}