{
    "cas_no": "43141-69-1",
    "key_name": "<em>N</em>,<em>N</em>-Dibutyl-3-aminophenol",
    "cn_name": "N,N-二丁基间氨基苯酚;间二丁基氨基苯酚;",
    "alternate_name": "Phenol, 3-(dibutylamino)-;3-(Dibutylamino)phenol;<em>N</em>,<em>N</em>-Dibutyl-<em>m</em>-aminophenol;<em>m</em>-(Dibutylamino)phenol;<em>N</em>,<em>N</em>-Di-<em>n</em>-butyl-<em>m</em>-aminophenol;<em>N</em>,<em>N</em>-Dibutyl-3-aminophenol;3-Hydroxy-<em>N</em>,<em>N</em>-dibutylaniline;3-(<em>N</em>,<em>N</em>-Dibutylamino)phenol;<em>N</em>,<em>N</em>-Dibutyl-3-hydroxyaniline",
    "duplicated_cas_no": "",
    "SMILES": "N(CCCC)(CCCC)C1=CC(O)=CC=C1",
    "meta_data": {
        "InChI": "InChI=1S/C14H23NO/c1-3-5-10-15(11-6-4-2)13-8-7-9-14(16)12-13/h7-9,12,16H,3-6,10-11H2,1-2H3",
        "InChIKey": null,
        "Canonical SMILES": "OC1=CC=CC(=C1)N(CCCC)CCCC",
        "Molecular Formula": "C<sub>14</sub>H<sub>23</sub>NO",
        "Molecular Mass": "221.34",
        "Boiling Point": "184-186 °C @ Press: 12 Torr"
    }
}