{
    "cas_no": "18686-82-3",
    "key_name": "1,3,4-Thiadiazole-2-thiol",
    "cn_name": "2-巯基-1,3,4-噻二唑;巯基噻二唑;去甲噻二唑;",
    "alternate_name": "1,3,4-Thiadiazole-2(3<em>H</em>)-thione;Δ<sup>2</sup>-1,3,4-Thiadiazoline-5-thione;5-Mercapto-1,3,4-thiadiazole;2-Mercapto-1,3,4-thiadiazole;1,3,4-Thiadiazole-2-thione;1,3,4-Thiadiazole-2-thiol;1,3,4-Thiadiazole-5-thiol;NSC 184817;1,3,4-Thiadiazol-2-thione;CA 1703",
    "duplicated_cas_no": "50268-94-5",
    "SMILES": "S=C1NN=CS1",
    "meta_data": {
        "InChI": "InChI=1S/C2H2N2S2/c5-2-4-3-1-6-2/h1H,(H,4,5)",
        "InChIKey": null,
        "Canonical SMILES": "S=C1SC=NN1",
        "Molecular Formula": "C<sub>2</sub>H<sub>2</sub>N<sub>2</sub>S<sub>2</sub>",
        "Molecular Mass": "118.18",
        "Melting Point": "143 °C"
    }
}