{
    "cas_no": "136236-51-6",
    "key_name": "Rasagiline",
    "cn_name": "雷沙吉兰;(R)-2,3-二氢-N-2-丙烯基-1H-茚-1-胺;",
    "alternate_name": "1<em>H</em>-Inden-1-amine, 2,3-dihydro-<em>N</em>-2-propyn-1-yl-, (1<em>R</em>)-;1<em>H</em>-Inden-1-amine, 2,3-dihydro-<em>N</em>-2-propynyl-, (<em>R</em>)-;1<em>H</em>-Inden-1-amine, 2,3-dihydro-<em>N</em>-2-propynyl-, (1<em>R</em>)-;(1<em>R</em>)-2,3-Dihydro-<em>N</em>-2-propyn-1-yl-1<em>H</em>-inden-1-amine;Rasagiline;(<em>R</em>)-<em>N</em>-2-Propynyl-1-indanamine;(<em>R</em>)-(+)-Rasagiline;Azilect;R-(+)-<em>N</em>-Propargyl-1-aminoindan;(1R)-<em>N</em>-Prop-2-ynyl-2,3-dihydro-1<em>H</em>-inden-1-amine;(R)-<em>N</em>-(2-Propynyl)-2,3-dihydroinden-1-amine;(1R)-<em>N</em>-(Prop-2-yn-1-yl)-2,3-dihydro-1<em>H</em>-inden-1-amine;(R)-<em>N</em>-(Prop-2-yn-1-yl)-2,3-dihydro-1<em>H</em>-inden-1-amine",
    "duplicated_cas_no": "",
    "SMILES": "N(CC#C)[C@H]1C=2C(CC1)=CC=CC2",
    "meta_data": {
        "InChI": "InChI=1S/C12H13N/c1-2-9-13-12-8-7-10-5-3-4-6-11(10)12/h1,3-6,12-13H,7-9H2/t12-/m1/s1",
        "InChIKey": null,
        "Canonical SMILES": "C#CCNC1C=2C=CC=CC2CC1",
        "Molecular Formula": "C<sub>12</sub>H<sub>13</sub>N",
        "Molecular Mass": "171.24",
        "Melting Point": "148 °C"
    }
}