{
    "cas_no": "14024-58-9",
    "key_name": "Manganese(II) acetylacetonate",
    "cn_name": "乙酰丙酮锰(II);",
    "alternate_name": "Manganese, bis(2,4-pentanedionato-κ<em>O</em><sup>2</sup>,κ<em>O</em><sup>4</sup>)-;Manganese, bis(2,4-pentanedionato)-;Manganese, bis(2,4-pentanedionato-<em>O</em>,<em>O</em>′)-;Manganese, bis(2,4-pentanedionato-κ<em>O</em>,κ<em>O</em>′)-;Bis(2,4-pentanedionato-κ<em>O</em><sup>2</sup>,κ<em>O</em><sup>4</sup>)manganese;Manganous acetylacetonate;Manganese(II) acetylacetonate;Manganese bis(acetylacetonate);Acetylacetone manganese(II);Bis(2,4-pentanedionato)manganese;Bis(acetylacetone)manganese;Manganese(2+) acetylacetonate;Bis(acetylacetonato)manganese(II);Manganese bis(2,4-pentanedionate);Manganese(II) bis(acetylacetonate);Bis(acetylacetonato)manganese;Manganese diacetylacetonate;NSC 177707;NSC 4656;NSC 52334;Manganese (II) 2,4-pentanedionate",
    "duplicated_cas_no": "",
    "SMILES": "CC1=O[Mn+2]2(O=C(C)[CH-]C(C)=O2)O=C(C)[CH-]1",
    "meta_data": {
        "InChI": "InChI=1S/2C5H7O2.Mn/c2*1-4(6)3-5(2)7;/h2*3H,1-2H3;/q2*-1;+2",
        "InChIKey": null,
        "Canonical SMILES": "O1=C([CH-]C(=O[Mn+2]12O=C([CH-]C(=O2)C)C)C)C",
        "Molecular Formula": "C<sub>10</sub>H<sub>14</sub>MnO<sub>4</sub>",
        "Molecular Mass": "",
        "Melting Point": "187.6 °C (decomp)"
    }
}