{
    "cas_no": "640-60-8",
    "key_name": "Phenyl tosylate",
    "cn_name": "对甲苯磺酸苯酯;",
    "alternate_name": "Benzenesulfonic acid, 4-methyl-, phenyl ester;<em>p</em>-Toluenesulfonic acid, phenyl ester;Phenyl <em>p</em>-toluenesulfonate;Phenyl tosylate;Phenyl 4-toluenesulfonate;Phenyl toluenesulfonate;NSC 10407;NSC 14917;Phenyl <em>p</em>-methylbenzenesulfonate;Phenyl 4-methylbenzenesulfonate;2-[[(4-Methylphenyl)sulfonyl]oxy]benzene",
    "duplicated_cas_no": "108882-76-4",
    "SMILES": "S(OC1=CC=CC=C1)(=O)(=O)C2=CC=C(C)C=C2",
    "meta_data": {
        "InChI": "InChI=1S/C13H12O3S/c1-11-7-9-13(10-8-11)17(14,15)16-12-5-3-2-4-6-12/h2-10H,1H3",
        "InChIKey": null,
        "Canonical SMILES": "O=S(=O)(OC=1C=CC=CC1)C2=CC=C(C=C2)C",
        "Molecular Formula": "C<sub>13</sub>H<sub>12</sub>O<sub>3</sub>S",
        "Molecular Mass": "248.30",
        "Boiling Point": "155-158 °C @ Press: 7 Torr",
        "Melting Point": "93 °C"
    }
}