{
    "cas_no": "79887-10-8",
    "key_name": "4-Pentylphenylacetylene",
    "cn_name": "4-戊基苯乙炔;",
    "alternate_name": "Benzene, 1-ethynyl-4-pentyl-;1-Ethynyl-4-pentylbenzene;4-Pentylphenylacetylene;4-(1-Pentyl)phenylacetylene;(4-Amylphenyl)acetylene;4-<em>n</em>-Pentylphenylacetylene;4-Ethynyl-1-pentylbenzene;1-Pentyl-4-ethynylbenzene",
    "duplicated_cas_no": "",
    "SMILES": "C(CCCC)C1=CC=C(C#C)C=C1",
    "meta_data": {
        "InChI": "InChI=1S/C13H16/c1-3-5-6-7-13-10-8-12(4-2)9-11-13/h2,8-11H,3,5-7H2,1H3",
        "InChIKey": null,
        "Canonical SMILES": "C#CC1=CC=C(C=C1)CCCCC",
        "Molecular Formula": "C<sub>13</sub>H<sub>16</sub>",
        "Molecular Mass": "172.27",
        "Melting Point": "&gt;240 °C (decomp)"
    }
}