{
    "cas_no": "519-05-1",
    "key_name": "6-Formyl-2,3-dimethoxybenzoic acid",
    "cn_name": "2-羧基-3,4-二甲氧基苯甲醛;",
    "alternate_name": "Benzoic acid, 6-formyl-2,3-dimethoxy-;Phthalaldehydic acid, 5,6-dimethoxy-;6-Formyl-2,3-dimethoxybenzoic acid;5,6-Dimethoxy-2-formylbenzoic acid;Opianic acid;5,6-Dimethoxyphthalaldehydic acid;2,3-Dimethoxy-6-formylbenzoic acid;NSC 35546",
    "duplicated_cas_no": "",
    "SMILES": "C(O)(=O)C1=C(OC)C(OC)=CC=C1C=O",
    "meta_data": {
        "InChI": "InChI=1S/C10H10O5/c1-14-7-4-3-6(5-11)8(10(12)13)9(7)15-2/h3-5H,1-2H3,(H,12,13)",
        "InChIKey": null,
        "Canonical SMILES": "O=CC1=CC=C(OC)C(OC)=C1C(=O)O",
        "Molecular Formula": "C<sub>10</sub>H<sub>10</sub>O<sub>5</sub>",
        "Molecular Mass": "210.18",
        "Melting Point": "150 °C"
    }
}