{
    "cas_no": "1655-54-5",
    "key_name": "<em>N</em>-(2,4-Dinitrophenyl)-<span class=\"text-smallcaps\">L</span>-phenylalanine",
    "cn_name": "N-2,4-二硝基苯-L-苯丙氨酸;N-2,4-DNP-L-苯丙氨酸;N-2,4-二硝基苯-L-苯丙氨酸;",
    "alternate_name": "<span class=\"text-smallcaps\">L</span>-Phenylalanine, <em>N</em>-(2,4-dinitrophenyl)-;Alanine, <em>N</em>-(2,4-dinitrophenyl)-3-phenyl-, <span class=\"text-smallcaps\">L</span>-;<em>N</em>-(2,4-Dinitrophenyl)-<span class=\"text-smallcaps\">L</span>-phenylalanine;<em>N</em>-2,4-DNP-<span class=\"text-smallcaps\">L</span>-phenylalanine;DNP-<span class=\"text-smallcaps\">L</span>-phenylalanine;NSC 526956;NSC 78496",
    "duplicated_cas_no": "",
    "SMILES": "N([C@@H](CC1=CC=CC=C1)C(O)=O)C2=C(N(=O)=O)C=C(N(=O)=O)C=C2",
    "meta_data": {
        "InChI": "InChI=1S/C15H13N3O6/c19-15(20)13(8-10-4-2-1-3-5-10)16-12-7-6-11(17(21)22)9-14(12)18(23)24/h1-7,9,13,16H,8H2,(H,19,20)/t13-/m0/s1",
        "InChIKey": null,
        "Canonical SMILES": "O=C(O)C(NC1=CC=C(C=C1N(=O)=O)N(=O)=O)CC=2C=CC=CC2",
        "Molecular Formula": "C<sub>15</sub>H<sub>13</sub>N<sub>3</sub>O<sub>6</sub>",
        "Molecular Mass": "331.28",
        "Melting Point": "186 °C"
    }
}