{
    "cas_no": "115-08-2",
    "key_name": "Methanethioamide",
    "cn_name": "硫代甲酰胺;",
    "alternate_name": "Methanethioamide;Formamide, thio-;Thioformamide",
    "duplicated_cas_no": "",
    "SMILES": "C(N)=S",
    "meta_data": {
        "InChI": "InChI=1S/CH3NS/c2-1-3/h1H,(H2,2,3)",
        "InChIKey": null,
        "Canonical SMILES": "S=CN",
        "Molecular Formula": "CH<sub>3</sub>NS",
        "Molecular Mass": "61.11",
        "Boiling Point": "146-148 °C @ Press: 2 Torr",
        "Melting Point": "26.5 °C",
        "Density": "1.0401 g/cm³ @ Temp: 20 °C"
    }
}