{
    "cas_no": "4812-45-7",
    "key_name": "3-Chloro-5-nitro-1<em>H</em>-indazole",
    "cn_name": null,
    "alternate_name": "1<em>H</em>-Indazole, 3-chloro-5-nitro-;3-Chloro-5-nitro-1<em>H</em>-indazole;3-Chloro-5-nitroindazole;3-Chloro-5-nitro-2<em>H</em>-indazole",
    "duplicated_cas_no": "",
    "SMILES": "ClC=1C=2C(=CC=C(N(=O)=O)C2)NN1",
    "meta_data": {
        "InChI": "InChI=1S/C7H4ClN3O2/c8-7-5-3-4(11(12)13)1-2-6(5)9-10-7/h1-3H,(H,9,10)",
        "InChIKey": null,
        "Canonical SMILES": "O=N(=O)C=1C=CC=2NN=C(Cl)C2C1",
        "Molecular Formula": "C<sub>7</sub>H<sub>4</sub>ClN<sub>3</sub>O<sub>2</sub>",
        "Molecular Mass": "197.58",
        "Melting Point": "210-211 °C"
    }
}