{
    "cas_no": "74115-13-2",
    "key_name": "5-Bromo-3-pyridinol",
    "cn_name": "3-溴-5-羟基吡啶;3-羟基-5-溴吡啶;5-溴-3-羟基吡啶;",
    "alternate_name": "3-Pyridinol, 5-bromo-;5-Bromo-3-pyridinol;3-Bromo-5-hydroxypyridine;5-Bromo-3-hydroxypyridine;3-Bromopyridin-5-ol;3-Hydroxyl-5-bromopyridine",
    "duplicated_cas_no": "",
    "SMILES": "BrC=1C=C(O)C=NC1",
    "meta_data": {
        "InChI": "InChI=1S/C5H4BrNO/c6-4-1-5(8)3-7-2-4/h1-3,8H",
        "InChIKey": null,
        "Canonical SMILES": "BrC1=CN=CC(O)=C1",
        "Molecular Formula": "C<sub>5</sub>H<sub>4</sub>BrNO",
        "Molecular Mass": "174.00",
        "Melting Point": "166.5-167.5 °C"
    }
}