{
    "cas_no": "6216-81-5",
    "key_name": "(-)-Syringaresinol",
    "cn_name": null,
    "alternate_name": "Phenol, 4,4′-[(1<em>R</em>,3a<em>S</em>,4<em>R</em>,6a<em>S</em>)-tetrahydro-1<em>H</em>,3<em>H</em>-furo[3,4-<em>c</em>]furan-1,4-diyl]bis[2,6-dimethoxy-;Phenol, 4,4′-(tetrahydro-1<em>H</em>,3<em>H</em>-furo[3,4-<em>c</em>]furan-1,4-diyl)bis[2,6-dimethoxy-, (-)-;Phenol, 4,4′-(tetrahydro-1<em>H</em>,3<em>H</em>-furo[3,4-<em>c</em>]furan-1,4-diyl)bis[2,6-dimethoxy-, [1<em>R</em>-(1α,3aα,4α,6aα)]-;Lirioresinol B;1<em>H</em>,3<em>H</em>-Furo[3,4-<em>c</em>]furan, phenol deriv.;4,4′-[(1<em>R</em>,3a<em>S</em>,4<em>R</em>,6a<em>S</em>)-Tetrahydro-1<em>H</em>,3<em>H</em>-furo[3,4-<em>c</em>]furan-1,4-diyl]bis[2,6-dimethoxyphenol];(-)-Syringaresinol;(-)-Lirioresinol B;(-)-(7<em>R</em>,8<em>S</em>,7′<em>R</em>,8′<em>S</em>)-Syringaresinol",
    "duplicated_cas_no": "",
    "SMILES": "O(C)C=1C=C([C@H]2[C@]3([C@]([C@@H](OC3)C4=CC(OC)=C(O)C(OC)=C4)(CO2)[H])[H])C=C(OC)C1O",
    "meta_data": {
        "InChI": "InChI=1S/C22H26O8/c1-25-15-5-11(6-16(26-2)19(15)23)21-13-9-30-22(14(13)10-29-21)12-7-17(27-3)20(24)18(8-12)28-4/h5-8,13-14,21-24H,9-10H2,1-4H3/t13-,14-,21+,22+/m1/s1",
        "InChIKey": null,
        "Canonical SMILES": "OC1=C(OC)C=C(C=C1OC)C2OCC3C(OCC23)C4=CC(OC)=C(O)C(OC)=C4",
        "Molecular Formula": "C<sub>22</sub>H<sub>26</sub>O<sub>8</sub>",
        "Molecular Mass": "418.44",
        "Melting Point": "172-177 °C"
    }
}