{
    "cas_no": "10365-98-7",
    "key_name": "(3-Methoxyphenyl)boronic acid",
    "cn_name": "3-甲氧基苯硼酸;3-甲氧基苯基硼酸;",
    "alternate_name": "Boronic acid, <em>B</em>-(3-methoxyphenyl)-;Benzeneboronic acid, <em>m</em>-methoxy-;Boronic acid, (3-methoxyphenyl)-;<em>B</em>-(3-Methoxyphenyl)boronic acid;<em>m</em>-Anisylboronic acid;<em>m</em>-Methoxybenzeneboronic acid;(3-Methoxyphenyl)boronic acid;(<em>m</em>-Methoxyphenyl)boronic acid;3-Methoxybenzeneboronic acid",
    "duplicated_cas_no": "1107579-37-2;2093414-95-8",
    "SMILES": "B(O)(O)C1=CC(OC)=CC=C1",
    "meta_data": {
        "InChI": "InChI=1S/C7H9BO3/c1-11-7-4-2-3-6(5-7)8(9)10/h2-5,9-10H,1H3",
        "InChIKey": null,
        "Canonical SMILES": "OB(O)C=1C=CC=C(OC)C1",
        "Molecular Formula": "C<sub>7</sub>H<sub>9</sub>BO<sub>3</sub>",
        "Molecular Mass": "151.96",
        "Melting Point": "158-162 °C"
    }
}