{
    "cas_no": "7764-95-6",
    "key_name": "BOC-<span class=\"text-smallcaps\">D</span>-alanine",
    "cn_name": "BOC-D-丙氨酸;N-叔丁氧羰基-D-丙氨酸;",
    "alternate_name": "<span class=\"text-smallcaps\">D</span>-Alanine, <em>N</em>-[(1,1-dimethylethoxy)carbonyl]-;Alanine, <em>N</em>-carboxy-, <em>N</em>-<em>tert</em>-butyl ester, <span class=\"text-smallcaps\">D</span>-;<em>N</em>-[(1,1-Dimethylethoxy)carbonyl]-<span class=\"text-smallcaps\">D</span>-alanine;<em>N</em>-<em>tert</em>-Butoxycarbonyl-<span class=\"text-smallcaps\">D</span>-alanine;BOC-<span class=\"text-smallcaps\">D</span>-alanine;<em>N</em>-(<em>tert</em>-Butyloxycarbonyl)-<span class=\"text-smallcaps\">D</span>-alanine;<em>N</em>-<em>tert</em>-BOC-(<em>R</em>)-alanine;<em>N</em>-BOC-<span class=\"text-smallcaps\">D</span>-alanine;(2<em>R</em>)-2-[(<em>tert</em>-Butoxycarbonyl)amino]propanoic acid;(<em>R</em>)-2-<em>tert</em>-Butoxycarbonylaminopropionic acid;2<em>R</em>-<em>tert</em>-Butoxycarbonylaminopropionic acid;(2<em>R</em>)-2-(<em>tert</em>-Butoxycarbonylamino)propionic acid;(<em>R</em>)-2-[(<em>tert</em>-Butoxycarbonyl)amino]propanoic acid;(R)-2-<em>tert</em>-Butoxycarbonylaminopropionic acid;(2R)-2-[[(<em>tert</em>-Butoxy)carbonyl]amino]propanoic acid;(R)-2-((<em>tert</em>-Butoxycarbonyl)amino)propanoic acid;(2R)-2-[(2-Methylpropan-2-yl)oxycarbonylamino]propanoic acid;(2R)-2-(<em>tert</em>-Butoxycarbonylamino)propanoic acid",
    "duplicated_cas_no": "87979-93-9;1186628-00-1",
    "SMILES": "N(C(OC(C)(C)C)=O)[C@@H](C(O)=O)C",
    "meta_data": {
        "InChI": "InChI=1S/C8H15NO4/c1-5(6(10)11)9-7(12)13-8(2,3)4/h5H,1-4H3,(H,9,12)(H,10,11)/t5-/m1/s1",
        "InChIKey": null,
        "Canonical SMILES": "O=C(OC(C)(C)C)NC(C(=O)O)C",
        "Molecular Formula": "C<sub>8</sub>H<sub>15</sub>NO<sub>4</sub>",
        "Molecular Mass": "189.21",
        "Melting Point": "80-82 °C"
    }
}