{
    "cas_no": "5446-92-4",
    "key_name": "6-Methoxy-3-nitropyridine",
    "cn_name": "5-硝基-2-甲氧基吡啶;",
    "alternate_name": "Pyridine, 2-methoxy-5-nitro-;2-Methoxy-5-nitropyridine;6-Methoxy-3-nitropyridine;NSC 5555",
    "duplicated_cas_no": "",
    "SMILES": "N(=O)(=O)C=1C=CC(OC)=NC1",
    "meta_data": {
        "InChI": "InChI=1S/C6H6N2O3/c1-11-6-3-2-5(4-7-6)8(9)10/h2-4H,1H3",
        "InChIKey": null,
        "Canonical SMILES": "O=N(=O)C1=CN=C(OC)C=C1",
        "Molecular Formula": "C<sub>6</sub>H<sub>6</sub>N<sub>2</sub>O<sub>3</sub>",
        "Molecular Mass": "154.12",
        "Melting Point": "108-109 °C"
    }
}