{
    "cas_no": "55750-53-3",
    "key_name": "6-Maleimidocaproic acid",
    "cn_name": null,
    "alternate_name": "1<em>H</em>-Pyrrole-1-hexanoic acid, 2,5-dihydro-2,5-dioxo-;2,5-Dihydro-2,5-dioxo-1<em>H</em>-pyrrole-1-hexanoic acid;<em>N</em>-(5-Carboxypentyl)maleimide;6-Maleimidohexanoic acid;6-Maleimidocaproic acid;ε-Maleimidocaproic acid;<em>N</em>-(5-Carboxy-<em>n</em>-pentyl)maleimide;6-Maleimidocapronic acid;ε-Maleimidohexanoic acid;6-(2,5-Dioxo-2,5-dihydro-1<em>H</em>-pyrrol-1-yl)hexanoic acid;Epsilon-maleimidocaproic acid",
    "duplicated_cas_no": "",
    "SMILES": "C(CCCCC(O)=O)N1C(=O)C=CC1=O",
    "meta_data": {
        "InChI": "InChI=1S/C10H13NO4/c12-8-5-6-9(13)11(8)7-3-1-2-4-10(14)15/h5-6H,1-4,7H2,(H,14,15)",
        "InChIKey": null,
        "Canonical SMILES": "O=C1C=CC(=O)N1CCCCCC(=O)O",
        "Molecular Formula": "C<sub>10</sub>H<sub>13</sub>NO<sub>4</sub>",
        "Molecular Mass": "211.21",
        "Melting Point": "78 °C"
    }
}