{
    "cas_no": "1182-07-6",
    "key_name": "Cholesteryl heptanoate",
    "cn_name": null,
    "alternate_name": "Cholest-5-en-3-ol (3β)-, 3-heptanoate;Cholesterol, heptanoate;Cholest-5-en-3-ol (3β)-, heptanoate;Heptanoic acid, cholesteryl ester;Cholesteryl heptanoate;Cholesteryl enanthate;Cholest-5-en-3β-ol heptanoate;5-Cholesten-3β-ol heptanoate",
    "duplicated_cas_no": "55066-92-7;870637-56-2;248260-63-1",
    "SMILES": "C[C@@]12[C@@]3([C@]([C@]4([C@](C)(CC3)[C@@]([C@@H](CCCC(C)C)C)(CC4)[H])[H])(CC=C1C[C@@H](OC(CCCCCC)=O)CC2)[H])[H]",
    "meta_data": {
        "InChI": "InChI=1S/C34H58O2/c1-7-8-9-10-14-32(35)36-27-19-21-33(5)26(23-27)15-16-28-30-18-17-29(25(4)13-11-12-24(2)3)34(30,6)22-20-31(28)33/h15,24-25,27-31H,7-14,16-23H2,1-6H3/t25-,27+,28+,29-,30+,31+,33+,34-/m1/s1",
        "InChIKey": null,
        "Canonical SMILES": "O=C(OC1CC2=CCC3C(CCC4(C)C(CCC34)C(C)CCCC(C)C)C2(C)CC1)CCCCCC",
        "Molecular Formula": "C<sub>34</sub>H<sub>58</sub>O<sub>2</sub>",
        "Molecular Mass": "498.82",
        "Melting Point": "111.4-112.2 °C"
    }
}