{
    "cas_no": "127-41-3",
    "key_name": "α-Ionone",
    "cn_name": "alpha-紫罗酮;alpha-紫罗兰酮;甲位紫罗兰酮;4-(2,6,6-三甲基-2-环己烯基-1-基)-3-丁烯-2-酮;",
    "alternate_name": "3-Buten-2-one, 4-(2,6,6-trimethyl-2-cyclohexen-1-yl)-, (3<em>E</em>)-;3-Buten-2-one, 4-(2,6,6-trimethyl-2-cyclohexen-1-yl)-, (<em>E</em>)-;(3<em>E</em>)-4-(2,6,6-Trimethyl-2-cyclohexen-1-yl)-3-buten-2-one;α-Cyclocitrylideneacetone;4-(2,6,6-Trimethyl-2-cyclohexen-1-yl)-3-buten-2-one;α-Ionone;<em>trans</em>-α-Ionone;(<em>E</em>)-α-Ionone;4-(2,6,6-Trimethyl-2-cyclohexenyl)-3-buten-2-one;(5<em>E</em>)-Ionone;(±)-α-Ionone;(±)-<em>trans</em>-α-Ionone;(<em>E</em>)-4-(2,6,6-Trimethyl-2-cyclohexen-1-yl)-3-buten-2-one",
    "duplicated_cas_no": "30685-95-1;31798-11-5",
    "SMILES": "C(=C/C(C)=O)\\C1C(C)(C)CCC=C1C",
    "meta_data": {
        "InChI": "InChI=1/C13H20O/c1-10-6-5-9-13(3,4)12(10)8-7-11(2)14/h6-8,12H,5,9H2,1-4H3/b8-7+",
        "InChIKey": null,
        "Canonical SMILES": "O=C(C=CC1C(=CCCC1(C)C)C)C",
        "Molecular Formula": "C<sub>13</sub>H<sub>20</sub>O",
        "Molecular Mass": "192.30",
        "Boiling Point": "121-122 °C @ Press: 10 Torr",
        "Melting Point": "&lt;25 °C",
        "Density": "0.9319 g/cm³ @ Temp: 20 °C"
    }
}