{
    "cas_no": "5680-61-5",
    "key_name": "Diethyl phthalimidomalonate",
    "cn_name": null,
    "alternate_name": "Propanedioic acid, 2-(1,3-dihydro-1,3-dioxo-2<em>H</em>-isoindol-2-yl)-, 1,3-diethyl ester;2-Isoindolinemalonic acid, 1,3-dioxo-, diethyl ester;Propanedioic acid, (1,3-dihydro-1,3-dioxo-2<em>H</em>-isoindol-2-yl)-, diethyl ester;Diethyl phthalimidomalonate;Diethyl 2-phthalimidomalonate;NSC 12023;1,3-Diethyl 2-(1,3-dioxo-2,3-dihydro-1<em>H</em>-isoindol-2-yl)propanedioate",
    "duplicated_cas_no": "",
    "SMILES": "C(C(OCC)=O)(C(OCC)=O)N1C(=O)C=2C(C1=O)=CC=CC2",
    "meta_data": {
        "InChI": "InChI=1S/C15H15NO6/c1-3-21-14(19)11(15(20)22-4-2)16-12(17)9-7-5-6-8-10(9)13(16)18/h5-8,11H,3-4H2,1-2H3",
        "InChIKey": null,
        "Canonical SMILES": "O=C(OCC)C(C(=O)OCC)N1C(=O)C=2C=CC=CC2C1=O",
        "Molecular Formula": "C<sub>15</sub>H<sub>15</sub>NO<sub>6</sub>",
        "Molecular Mass": "305.28",
        "Melting Point": "71-72 °C"
    }
}