{
    "cas_no": "7782-68-5",
    "key_name": "Iodic acid",
    "cn_name": "碘酸;",
    "alternate_name": "Iodic acid (HIO<sub>3</sub>);Hydrogen iodate;Hydrogen iodate (HIO<sub>3</sub>);Iodic acid",
    "duplicated_cas_no": "",
    "SMILES": "I(=O)(=O)O",
    "meta_data": {
        "InChI": "InChI=1S/HIO3/c2-1(3)4/h(H,2,3,4)",
        "InChIKey": null,
        "Canonical SMILES": "O=I(=O)O",
        "Molecular Formula": "HIO<sub>3</sub>",
        "Molecular Mass": "175.91",
        "Melting Point": "110 °C (decomp)",
        "Density": "4.63 g/cm³"
    }
}