{
    "cas_no": "6973-60-0",
    "key_name": "1-Methyl-1<em>H</em>-pyrrole-2-carboxylic acid",
    "cn_name": "N-甲基-2-吡咯羧酸;",
    "alternate_name": "1<em>H</em>-Pyrrole-2-carboxylic acid, 1-methyl-;Pyrrole-2-carboxylic acid, 1-methyl-;1-Methyl-1<em>H</em>-pyrrole-2-carboxylic acid;<em>N</em>-Methyl-2-pyrrolecarboxylic acid;1-Methyl-2-pyrrolecarboxylic acid;NSC 40289;<em>N</em>-Methyl-2-pyrrolcarboxylic acid",
    "duplicated_cas_no": "",
    "SMILES": "C(O)(=O)C=1N(C)C=CC1",
    "meta_data": {
        "InChI": "InChI=1S/C6H7NO2/c1-7-4-2-3-5(7)6(8)9/h2-4H,1H3,(H,8,9)",
        "InChIKey": null,
        "Canonical SMILES": "O=C(O)C1=CC=CN1C",
        "Molecular Formula": "C<sub>6</sub>H<sub>7</sub>NO<sub>2</sub>",
        "Molecular Mass": "125.13",
        "Melting Point": "135-136 °C"
    }
}