{
    "cas_no": "583-05-1",
    "key_name": "1-Phenyl-1,4-pentanedione",
    "cn_name": "1-苯基-1,4-戊二酮;",
    "alternate_name": "1,4-Pentanedione, 1-phenyl-;1-Phenyl-1,4-pentanedione;Phenacylacetone;Levulinophenone;5-Phenyl-2,5-pentanedione;4-Benzoyl-2-butanone",
    "duplicated_cas_no": "",
    "SMILES": "C(CCC(C)=O)(=O)C1=CC=CC=C1",
    "meta_data": {
        "InChI": "InChI=1S/C11H12O2/c1-9(12)7-8-11(13)10-5-3-2-4-6-10/h2-6H,7-8H2,1H3",
        "InChIKey": null,
        "Canonical SMILES": "O=C(C=1C=CC=CC1)CCC(=O)C",
        "Molecular Formula": "C<sub>11</sub>H<sub>12</sub>O<sub>2</sub>",
        "Molecular Mass": "176.21",
        "Boiling Point": "109-112 °C @ Press: 0.35 Torr",
        "Melting Point": "138 °C",
        "Density": "1.142 g/cm³"
    }
}