{
    "cas_no": "87-42-3",
    "key_name": "6-Chloropurine",
    "cn_name": "6-氯嘌呤;",
    "alternate_name": "9<em>H</em>-Purine, 6-chloro-;Purine, 6-chloro-;1<em>H</em>-Purine, 6-chloro-;6-Chloro-9<em>H</em>-purine;6-Chloropurine;NSC 744;6-Chloro-1<em>H</em>-purine;6-Chloro-7<em>H</em>-purine",
    "duplicated_cas_no": "111055-91-5;111055-92-6",
    "SMILES": "ClC1=C2C(=NC=N1)N=CN2",
    "meta_data": {
        "InChI": "InChI=1S/C5H3ClN4/c6-4-3-5(9-1-7-3)10-2-8-4/h1-2H,(H,7,8,9,10)",
        "InChIKey": null,
        "Canonical SMILES": "ClC1=NC=NC=2N=CNC12",
        "Molecular Formula": "C<sub>5</sub>H<sub>3</sub>ClN<sub>4</sub>",
        "Molecular Mass": "154.56",
        "Boiling Point": "185-192 °C @ Press: 2.25 Torr",
        "Melting Point": "175-177 °C"
    }
}