{
    "cas_no": "16846-24-5",
    "key_name": "Josamycin",
    "cn_name": "交沙霉素;角沙霉素;",
    "alternate_name": "Leucomycin V, 3-acetate 4<sup>B</sup>-(3-methylbutanoate);Leucomycin A<sub>3</sub>;Oxacyclohexadecane, leucomycin V deriv.;Antibiotic YL 704A<sub>3</sub>;Turimycin A<sub>5</sub>;Kitasamycin A<sub>3</sub>;Josamycin;Wilprafen;Josacine;Vilprafen;Jomybel;Iosalide;EN 141;Josamina;MeSH ID: D015570",
    "duplicated_cas_no": "11033-18-4;35414-05-2;39416-64-3;56689-45-3;801993-04-4",
    "SMILES": "",
    "meta_data": {
        "InChI": "",
        "InChIKey": null,
        "Canonical SMILES": "",
        "Molecular Formula": "C<sub>42</sub>H<sub>69</sub>NO<sub>15</sub>",
        "Molecular Mass": "827.99",
        "Melting Point": "131.5 °C"
    }
}