{
    "cas_no": "39903-01-0",
    "key_name": "2-Amino-5-bromo-3-hydroxypyridine",
    "cn_name": "2-羟基-3-氨基-5-溴吡啶;",
    "alternate_name": "3-Pyridinol, 2-amino-5-bromo-;2-Amino-5-bromo-3-pyridinol;2-Amino-3-hydroxy-5-bromopyridine;2-Amino-5-bromo-3-hydroxypyridine;5-Bromo-3-hydroxy-2-aminopyridine",
    "duplicated_cas_no": "",
    "SMILES": "OC1=C(N)N=CC(Br)=C1",
    "meta_data": {
        "InChI": "InChI=1S/C5H5BrN2O/c6-3-1-4(9)5(7)8-2-3/h1-2,9H,(H2,7,8)",
        "InChIKey": null,
        "Canonical SMILES": "BrC1=CN=C(N)C(O)=C1",
        "Molecular Formula": "C<sub>5</sub>H<sub>5</sub>BrN<sub>2</sub>O",
        "Molecular Mass": "189.01",
        "Melting Point": "205 °C"
    }
}