{
    "cas_no": "95-80-7",
    "key_name": "2,4-Diaminotoluene",
    "cn_name": "2,4-二氨基甲苯;",
    "alternate_name": "1,3-Benzenediamine, 4-methyl-;Toluene-2,4-diamine;4-Methyl-1,3-benzenediamine;2,4-Diaminotoluene;Fouramine J;Fourrine M;Fourrine 94;4-Methyl-<em>m</em>-phenylenediamine;Nako TMT;Pelagol J;Pelagol Grey J;Pontamine Developer TN;Renal MD;<em>m</em>-Toluenediamine;<em>m</em>-Tolylenediamine;2,4-Tolylenediamine;Zoba GKE;2,4-Diamino-1-methylbenzene;C.I. Oxidation Base 35;Eucanine GB;1,3-Diamino-4-methylbenzene;TDA;4-Methyl-1,3-phenylenediamine;Brown for Fur T;TDA (diamine);3-Amino-4-methylaniline;4-Methyl-1,3-diaminobenzene;2-Methyl-1,5-benzenediamine",
    "duplicated_cas_no": "12236-56-5;85898-88-0",
    "SMILES": "NC1=C(C)C=CC(N)=C1",
    "meta_data": {
        "InChI": "InChI=1S/C7H10N2/c1-5-2-3-6(8)4-7(5)9/h2-4H,8-9H2,1H3",
        "InChIKey": null,
        "Canonical SMILES": "NC1=CC=C(C(N)=C1)C",
        "Molecular Formula": "C<sub>7</sub>H<sub>10</sub>N<sub>2</sub>",
        "Molecular Mass": "122.17",
        "Boiling Point": "292 °C",
        "Melting Point": "99 °C"
    }
}