{
    "cas_no": "36507-30-9",
    "key_name": "Carbamazepine 10,11-epoxide",
    "cn_name": null,
    "alternate_name": "6<em>H</em>-Dibenz[<em>b</em>,<em>f</em>]oxireno[<em>d</em>]azepine-6-carboxamide, 1a,10b-dihydro-;1a,10b-Dihydro-6<em>H</em>-dibenz[<em>b</em>,<em>f</em>]oxireno[<em>d</em>]azepine-6-carboxamide;Carbamazepine 10,11-epoxide;10,11-Dihydro-5<em>H</em>-dibenz[<em>b</em>,<em>f</em>]azepine-5-carboxamide 10,11-epoxide;10,11-Epoxycarbamazepine;Carbamazepine 10,11-oxide;GP 49-023;10,11-Dihydro-10,11-epoxycarbamazepine;1a,10b-Dihydro-6<em>H</em>-dibenzo[<em>b</em>,<em>f</em>]oxireno[<em>d</em>]azepine-6-carboxamide",
    "duplicated_cas_no": "",
    "SMILES": "C(N)(=O)N1C=2C(C3C(O3)C=4C1=CC=CC4)=CC=CC2",
    "meta_data": {
        "InChI": "InChI=1S/C15H12N2O2/c16-15(18)17-11-7-3-1-5-9(11)13-14(19-13)10-6-2-4-8-12(10)17/h1-8,13-14H,(H2,16,18)",
        "InChIKey": null,
        "Canonical SMILES": "O=C(N)N1C=2C=CC=CC2C3OC3C=4C=CC=CC41",
        "Molecular Formula": "C<sub>15</sub>H<sub>12</sub>N<sub>2</sub>O<sub>2</sub>",
        "Molecular Mass": "252.27",
        "Melting Point": "195-197 °C (decomp)"
    }
}