{
    "cas_no": "175136-34-2",
    "key_name": "3,4-Dihydro-2<em>H</em>-1,5-benzodioxepin-7-amine",
    "cn_name": "3,4-二氢-2H-1,5-苯并二氧-7-胺;3,4-二氢-7-氨基-2H-苯并[1,4]二氧庚烷;",
    "alternate_name": "2<em>H</em>-1,5-Benzodioxepin-7-amine, 3,4-dihydro-;3,4-Dihydro-2<em>H</em>-1,5-benzodioxepin-7-amine;7-Aminobenzo[<em>b</em>][1,4]dioxepane",
    "duplicated_cas_no": "",
    "SMILES": "NC=1C=C2C(=CC1)OCCCO2",
    "meta_data": {
        "InChI": "InChI=1S/C9H11NO2/c10-7-2-3-8-9(6-7)12-5-1-4-11-8/h2-3,6H,1,4-5,10H2",
        "InChIKey": null,
        "Canonical SMILES": "O1C2=CC=C(N)C=C2OCCC1",
        "Molecular Formula": "C<sub>9</sub>H<sub>11</sub>NO<sub>2</sub>",
        "Molecular Mass": "165.19",
        "Melting Point": "68 °C"
    }
}