{
    "cas_no": "630-22-8",
    "key_name": "2,2-Dimethylpropanethioamide",
    "cn_name": null,
    "alternate_name": "Propanethioamide, 2,2-dimethyl-;Propionamide, 2,2-dimethylthio-;2,2-Dimethylpropanethioamide;Thiopivalamide;2,2-Dimethylthiopropionamide;NSC 381432;Neopentanethioamide;2,2,2-Trimethylthioacetamide",
    "duplicated_cas_no": "",
    "SMILES": "C(C(N)=S)(C)(C)C",
    "meta_data": {
        "InChI": "InChI=1S/C5H11NS/c1-5(2,3)4(6)7/h1-3H3,(H2,6,7)",
        "InChIKey": null,
        "Canonical SMILES": "S=C(N)C(C)(C)C",
        "Molecular Formula": "C<sub>5</sub>H<sub>11</sub>NS",
        "Molecular Mass": "117.21",
        "Melting Point": "117-119 °C"
    }
}