{
    "cas_no": "54950-20-8",
    "key_name": "Methyl β-oxo-3-pyridinepropanoate",
    "cn_name": "烟酰乙酸甲酯;",
    "alternate_name": "3-Pyridinepropanoic acid, β-oxo-, methyl ester;3-Pyridinepropionic acid, β-oxo-, methyl ester;Methyl β-oxo-3-pyridinepropanoate;Methyl nicotinoylacetate;3-Oxo-3-pyridin-3-ylpropionic acid methyl ester;Methyl 3-oxo-3-(3-pyridinyl)propanoate;3-Oxo-3-(pyridin-3-yl)propanoic acid methyl ester;Methyl 3-oxo-3-(3-pyridyl)propanoate",
    "duplicated_cas_no": "",
    "SMILES": "C(CC(OC)=O)(=O)C=1C=CC=NC1",
    "meta_data": {
        "InChI": "InChI=1S/C9H9NO3/c1-13-9(12)5-8(11)7-3-2-4-10-6-7/h2-4,6H,5H2,1H3",
        "InChIKey": null,
        "Canonical SMILES": "O=C(OC)CC(=O)C=1C=NC=CC1",
        "Molecular Formula": "C<sub>9</sub>H<sub>9</sub>NO<sub>3</sub>",
        "Molecular Mass": "179.17",
        "Boiling Point": "128-129 °C @ Press: 1 Torr",
        "Melting Point": "42 °C"
    }
}