{
    "cas_no": "51760-22-6",
    "key_name": "5-Bromo-1,3-benzenedimethanol",
    "cn_name": null,
    "alternate_name": "1,3-Benzenedimethanol, 5-bromo-;5-Bromo-1,3-benzenedimethanol;3,5-Bis(hydroxymethyl)bromobenzene;1-Bromo-3,5-bis(hydroxymethyl)benzene;3-Bromo-5-(hydroxymethyl)benzyl alcohol;5-Bromo-3-(hydroxymethyl)benzyl alcohol;[3-Bromo-5-(hydroxymethyl)phenyl]methanol;3,5-Bis(hydroxymethyl)phenyl bromide;5-Bromo-1,3-phenylenedimethanol;1,3-Bis(hydroxymethyl)-5-bromobenzene",
    "duplicated_cas_no": "",
    "SMILES": "C(O)C1=CC(CO)=CC(Br)=C1",
    "meta_data": {
        "InChI": "InChI=1S/C8H9BrO2/c9-8-2-6(4-10)1-7(3-8)5-11/h1-3,10-11H,4-5H2",
        "InChIKey": null,
        "Canonical SMILES": "BrC=1C=C(C=C(C1)CO)CO",
        "Molecular Formula": "C<sub>8</sub>H<sub>9</sub>BrO<sub>2</sub>",
        "Molecular Mass": "217.06",
        "Melting Point": "90-91 °C"
    }
}