{
    "cas_no": "5577-72-0",
    "key_name": "Methacryloyloxymethyltriethoxysilane",
    "cn_name": "甲基丙烯酰氧基甲基三乙氧基硅烷;",
    "alternate_name": "2-Propenoic acid, 2-methyl-, (triethoxysilyl)methyl ester;Methacrylic acid, (triethoxysilyl)methyl ester;Methanol, (triethoxysilyl)-, methacrylate;(Triethoxysilyl)methyl methacrylate;Methacryloyloxymethyltriethoxysilane;NS (coupling agent);NS;Triethoxy(methacryloyloxymethyl)silane;Geniosil XL 36;Methacryloyloxymethylene triethoxysilane;Methacryloyloxymethyltriethoysilane;SIM 6483.0;SIM 6482.0",
    "duplicated_cas_no": "7529-25-1",
    "SMILES": "[Si](COC(C(C)=C)=O)(OCC)(OCC)OCC",
    "meta_data": {
        "InChI": "InChI=1S/C11H22O5Si/c1-6-14-17(15-7-2,16-8-3)9-13-11(12)10(4)5/h4,6-9H2,1-3,5H3",
        "InChIKey": null,
        "Canonical SMILES": "O=C(OC[Si](OCC)(OCC)OCC)C(=C)C",
        "Molecular Formula": "C<sub>11</sub>H<sub>22</sub>O<sub>5</sub>Si",
        "Molecular Mass": "262.37",
        "Boiling Point": "65-68 °C @ Press: 2 Torr",
        "Density": "1 g/cm³"
    }
}