{
    "cas_no": "20734-58-1",
    "key_name": "Proton sponge",
    "cn_name": "1,8-双二甲氨基萘;",
    "alternate_name": "1,8-Naphthalenediamine, <em>N</em><sup>1</sup>,<em>N</em><sup>1</sup>,<em>N</em><sup>8</sup>,<em>N</em><sup>8</sup>-tetramethyl-;1,8-Naphthalenediamine, <em>N</em>,<em>N</em>,<em>N</em>′,<em>N</em>′-tetramethyl-;<em>N</em><sup>1</sup>,<em>N</em><sup>1</sup>,<em>N</em><sup>8</sup>,<em>N</em><sup>8</sup>-Tetramethyl-1,8-naphthalenediamine;1,8-Bis(dimethylamino)naphthalene;Proton sponge;<em>N</em>,<em>N</em>,<em>N</em>′,<em>N</em>′-Tetramethyl-1,8-diaminonaphthalene;<em>N</em>,<em>N</em>,<em>N</em>′,<em>N</em>′-Tetramethyl-1,8-naphthalenediamine;1,8-Bis(<em>N</em>,<em>N</em>-dimethylamino)naphthalene;1-<em>N</em>,1-<em>N</em>,8-<em>N</em>,8-<em>N</em>-Tetramethylnaphthalene-1,8-diamine",
    "duplicated_cas_no": "60934-62-5",
    "SMILES": "N(C)(C)C=1C=2C(N(C)C)=CC=CC2C=CC1",
    "meta_data": {
        "InChI": "InChI=1S/C14H18N2/c1-15(2)12-9-5-7-11-8-6-10-13(14(11)12)16(3)4/h5-10H,1-4H3",
        "InChIKey": null,
        "Canonical SMILES": "C=1C=C2C=CC=C(C2=C(C1)N(C)C)N(C)C",
        "Molecular Formula": "C<sub>14</sub>H<sub>18</sub>N<sub>2</sub>",
        "Molecular Mass": "214.31",
        "Boiling Point": "144-145 °C @ Press: 4 Torr",
        "Melting Point": "185 °C"
    }
}