{
    "cas_no": "2644-64-6",
    "key_name": "1,2-Dipalmitoylphosphatidylcholine",
    "cn_name": null,
    "alternate_name": "3,5,9-Trioxa-4-phosphapentacosan-1-aminium, 4-hydroxy-<em>N</em>,<em>N</em>,<em>N</em>-trimethyl-10-oxo-7-[(1-oxohexadecyl)oxy]-, inner salt, 4-oxide;Choline, hydroxide, dihydrogen phosphate, inner salt, ester with 1,2-dipalmitin;3,5,9-Trioxa-4-phosphapentacosan-1-aminium, 4-hydroxy-<em>N</em>,<em>N</em>,<em>N</em>-trimethyl-10-oxo-7-[(1-oxohexadecyl)oxy]-, hydroxide, inner salt, 4-oxide;Choline, phosphate, ester with 1,2-dipalmitin;1,2-Dipalmitoylglycerol-3-phosphorylcholine;Dipalmitoyllecithin;1,2-Dipalmitoyl-3-phosphatidylcholine;α-Glycerophosphorylcholine, β,γ-palmitoyl-;1,2-Dipalmitoyllecithin;Dipalmitoyl glycerophosphorylcholine;Dipalmitoylphosphatidylcholine;1,2-Dipalmitoylphosphatidylcholine;1,2-Dihexadecanoyl phosphatidylcholine;1,2-Dipalmitoylglycerophosphorylcholine;1,2-Dipalmitoyl-α-phosphatidylcholine;β,γ-Dipalmitoyllecithin;α,β-Dipalmitoylphosphatidylcholine;Dihexadecanoyl phosphatidylcholine;DPPC;1-Palmitoyl-2-palmitoylphosphatidylcholine;Dipalmitoylglycerophosphocholine;DPPC (phosphatide);Dipalmitoylphosphocholine;(±)-β,γ-Dipalmitoyl-α-lecithin;β,γ-Dipalmitoyl-<span class=\"text-smallcaps\">D</smallcap><smallcap>L</span>-phosphatidylcholine;<span class=\"text-smallcaps\">D</smallcap><smallcap>L</span>-Dipalmitoyl-α-lecithin;<span class=\"text-smallcaps\">D</smallcap><smallcap>L</span>-Dipalmitoylphosphatidylcholine;β,γ-Dipalmitoyl-<span class=\"text-smallcaps\">D</smallcap><smallcap>L</span>-α-lecithin;Dipalmitoyl-<em>dl</em>-α-lecithin;<em>dl</em>-1,2-Dipalmitoyl-3-phosphatidylcholine;1,2-Dipalmitoyl-<span class=\"text-smallcaps\">D</smallcap><smallcap>L</span>-phosphatidylcholine;β,γ-Dipalmitoyl-<span class=\"text-smallcaps\">D</smallcap><smallcap>L</span>-α-glycerylphosphorylcholine;β,γ-Dipalmitoyl-<span class=\"text-smallcaps\">D</smallcap><smallcap>L</span>-α-phosphatidylcholine;<span class=\"text-smallcaps\">D</smallcap><smallcap>L</span>-Dipalmitoyl-α-phosphatidylcholine;Dipalmitoyl-<span class=\"text-smallcaps\">D</smallcap><smallcap>L</span>-α-phosphatidylcholine;<em>rac</em>-1,2-Dipalmitoylglycerol-3-phosphorylcholine;1,2-Dipalmitoyl-<span class=\"text-smallcaps\">D</smallcap><smallcap>L</span>-α-phosphatidylcholine;<span class=\"text-smallcaps\">D</smallcap><smallcap>L</span>-Dipalmitoyllecithin;<span class=\"text-smallcaps\">D</smallcap><smallcap>L</span>-β,γ-Dipalmitoyl-α-phosphatidylcholine;1,2-Dihexadecanoyl-<em>rac</em>-glycerol-3-phosphorylcholine;<span class=\"text-smallcaps\">D</smallcap><smallcap>L</span>-3-Dipalmitoylphosphatidylcholine;<em>rac</em>-1,2-Dipalmitoylphosphatidylcholine;<span class=\"text-smallcaps\">D</smallcap><smallcap>L</span>-α-DPPC;<span class=\"text-smallcaps\">D</smallcap><smallcap>L</span>-β,γ-Dipalmitoyl-α-lecithin;1,2-Dipalmitoyl-3-phosphatidyl choline",
    "duplicated_cas_no": "107041-15-6;2797-68-4;36441-53-9;67118-46-1;82623-33-4;90289-55-7;159022-81-8;173839-68-4;215369-06-5",
    "SMILES": "C(OC(CCCCCCCCCCCCCCC)=O)(COP(OCC[N+](C)(C)C)(=O)[O-])COC(CCCCCCCCCCCCCCC)=O",
    "meta_data": {
        "InChI": "InChI=1S/C40H80NO8P/c1-6-8-10-12-14-16-18-20-22-24-26-28-30-32-39(42)46-36-38(37-48-50(44,45)47-35-34-41(3,4)5)49-40(43)33-31-29-27-25-23-21-19-17-15-13-11-9-7-2/h38H,6-37H2,1-5H3",
        "InChIKey": null,
        "Canonical SMILES": "O=C(OCC(OC(=O)CCCCCCCCCCCCCCC)COP(=O)([O-])OCC[N+](C)(C)C)CCCCCCCCCCCCCCC",
        "Molecular Formula": "C<sub>40</sub>H<sub>80</sub>NO<sub>8</sub>P",
        "Molecular Mass": "",
        "Melting Point": "190 °C (decomp)"
    }
}