{
    "cas_no": "475-83-2",
    "key_name": "(-)-Nuciferine",
    "cn_name": "荷叶碱; 1,2-二甲氧基-6-甲基-5,6,6a,7-四氢-4H-二苯并[de,g]喹啉;",
    "alternate_name": "4<em>H</em>-Dibenzo[<em>de</em>,<em>g</em>]quinoline, 5,6,6a,7-tetrahydro-1,2-dimethoxy-6-methyl-, (6a<em>R</em>)-;6aβ-Aporphine, 1,2-dimethoxy-;Nuciferine;4<em>H</em>-Dibenzo[<em>de</em>,<em>g</em>]quinoline, 5,6,6a,7-tetrahydro-1,2-dimethoxy-6-methyl-, (<em>R</em>)-;(6a<em>R</em>)-5,6,6a,7-Tetrahydro-1,2-dimethoxy-6-methyl-4<em>H</em>-dibenzo[<em>de</em>,<em>g</em>]quinoline;<em>l</em>-Nuciferine;(-)-Nuciferine;(<em>R</em>)-1,2-Dimethoxyaporphine;Nuciferin;<span class=\"text-smallcaps\">D</span>-(-)-Nuciferine;1,2-Dimethoxy-6aβ-aporphine;Sanjoinine E;(<em>R</em>)-Nuciferine;VLT 049;(6AR)-1,2-dimethoxy-6-methyl-5,6,6a,7-tetrahydro-4<em>H</em>-dibenzo[<em>de</em>,<em>g</em>]quinoline",
    "duplicated_cas_no": "",
    "SMILES": "O(C)C1=C2C=3[C@@](CC=4C2=CC=CC4)(N(C)CCC3C=C1OC)[H]",
    "meta_data": {
        "InChI": "InChI=1S/C19H21NO2/c1-20-9-8-13-11-16(21-2)19(22-3)18-14-7-5-4-6-12(14)10-15(20)17(13)18/h4-7,11,15H,8-10H2,1-3H3/t15-/m1/s1",
        "InChIKey": null,
        "Canonical SMILES": "O(C=1C=C2C3=C(C1OC)C4=CC=CC=C4CC3N(C)CC2)C",
        "Molecular Formula": "C<sub>19</sub>H<sub>21</sub>NO<sub>2</sub>",
        "Molecular Mass": "295.38",
        "Melting Point": "162.5-163.5 °C"
    }
}