{
    "cas_no": "18600-59-4",
    "key_name": "UV 3638",
    "cn_name": "2,2\"-(1,4-亚苯基)双-4H-3,1-苯并恶嗪-4-酮; UV-3638 紫外线吸收剂;",
    "alternate_name": "4<em>H</em>-3,1-Benzoxazin-4-one, 2,2′-(1,4-phenylene)bis-;4<em>H</em>-3,1-Benzoxazin-4-one, 2,2′-<em>p</em>-phenylenebis-;2,2′-(1,4-Phenylene)bis[4<em>H</em>-3,1-benzoxazin-4-one];Cyasorb UV 3638;2,2′-<em>p</em>-Phenylenebis[4<em>H</em>-3,1-benzoxazin-4-one];2,2′-(1,4-Phenylene)bis[3,1-benzoxazin-4-one];2,2′-<em>p</em>-Phenylenebis(3,1-benzoxazin-4-one);CEi-P;2,2′-(1,4-Phenylene)bis(4<em>H</em>-3,1-benzoxazin-4-one);Pionin ZA 101;CEi-P-A;UV 0901;UV-BO;UV 3638;Eversorb 58;2,2′-(1,4-Phenylene)bis(4H-benzo[d][1,3]oxazin-4-one);Cyasorb 3638;2-[4-(4-Oxo-3,1-benzoxazin-2-yl)phenyl]-3,1-benzoxazin-4-one;Cyasorb UV 3638F;UV 3638F;2,2′-(<em>p</em>-Phenylene)di-3,1-benzoxazine-4-one;UVsorb 101;Kemisorb 500",
    "duplicated_cas_no": "1328985-23-4;1334723-53-3",
    "SMILES": "O=C1C=2C(N=C(O1)C3=CC=C(C=C3)C4=NC=5C(C(=O)O4)=CC=CC5)=CC=CC2",
    "meta_data": {
        "InChI": "InChI=1S/C22H12N2O4/c25-21-15-5-1-3-7-17(15)23-19(27-21)13-9-11-14(12-10-13)20-24-18-8-4-2-6-16(18)22(26)28-20/h1-12H",
        "InChIKey": null,
        "Canonical SMILES": "O=C1OC(=NC2=CC=CC=C12)C3=CC=C(C=C3)C4=NC5=CC=CC=C5C(=O)O4",
        "Molecular Formula": "C<sub>22</sub>H<sub>12</sub>N<sub>2</sub>O<sub>4</sub>",
        "Molecular Mass": "368.34",
        "Melting Point": "315-317 °C"
    }
}