{
    "cas_no": "54-06-8",
    "key_name": "Adrenochrome",
    "cn_name": "2-硝基-5-羟基苯甲醛;5-羟基-2-硝基苯甲醛;",
    "alternate_name": "1<em>H</em>-Indole-5,6-dione, 2,3-dihydro-3-hydroxy-1-methyl-;5,6-Indolinedione, 3-hydroxy-1-methyl-;2,3-Dihydro-3-hydroxy-1-methyl-1<em>H</em>-indole-5,6-dione;Adrenochrome;2,3-Dihydro-3-hydroxy-<em>N</em>-methylindole-5,6-quinone;Adraxone;1-Methyl-3-hydroxy-5,6-dioxo-2,3,5,6-tetrahydroindole;3-Hydroxy-1-methyl-5,6-indolinedione;3-Hydroxy-1-methyl-2,3-dihydroindole-5,6-dione;3-Hydroxy-1-methyl-2,3,5,6-tetrahydro-1<em>H</em>-indole-5,6-dione;3-Hydroxy-1-methyl-2,3-dihydro-1<em>H</em>-indole-5,6-dione;MeSH ID: D000323",
    "duplicated_cas_no": "116698-47-6",
    "SMILES": "OC1C=2C(N(C)C1)=CC(=O)C(=O)C2",
    "meta_data": {
        "InChI": "InChI=1S/C9H9NO3/c1-10-4-9(13)5-2-7(11)8(12)3-6(5)10/h2-3,9,13H,4H2,1H3",
        "InChIKey": null,
        "Canonical SMILES": "O=C1C=C2C(=CC1=O)C(O)CN2C",
        "Molecular Formula": "C<sub>9</sub>H<sub>9</sub>NO<sub>3</sub>",
        "Molecular Mass": "179.17",
        "Melting Point": "125 °C (decomp)"
    }
}