{
    "cas_no": "28645-51-4",
    "key_name": "Oxacycloheptadec-10-en-2-one",
    "cn_name": null,
    "alternate_name": "Oxacycloheptadec-10-en-2-one;9-Hexadecenoic acid, 16-hydroxy-, ο-lactone;Δ<sup>9</sup>-Isoambrettolic acid, lactone;Isoambrettolide;NSC 31697",
    "duplicated_cas_no": "",
    "SMILES": "O=C1CCCCCCCC=CCCCCCCO1",
    "meta_data": {
        "InChI": "InChI=1S/C16H28O2/c17-16-14-12-10-8-6-4-2-1-3-5-7-9-11-13-15-18-16/h1,3H,2,4-15H2",
        "InChIKey": null,
        "Canonical SMILES": "O=C1OCCCCCCC=CCCCCCCC1",
        "Molecular Formula": "C<sub>16</sub>H<sub>28</sub>O<sub>2</sub>",
        "Molecular Mass": "252.39",
        "Boiling Point": "135-136 °C @ Press: 0.1 Torr"
    }
}