{
    "cas_no": "1641-09-4",
    "key_name": "3-Thiophenecarbonitrile",
    "cn_name": "3-氰基噻吩;噻吩-3-甲腈;",
    "alternate_name": "3-Thiophenecarbonitrile;3-Cyanothiophene;Thiophene-3-nitrile;Thiopheno-3-carbonitrile",
    "duplicated_cas_no": "",
    "SMILES": "C(#N)C=1C=CSC1",
    "meta_data": {
        "InChI": "InChI=1S/C5H3NS/c6-3-5-1-2-7-4-5/h1-2,4H",
        "InChIKey": null,
        "Canonical SMILES": "N#CC1=CSC=C1",
        "Molecular Formula": "C<sub>5</sub>H<sub>3</sub>NS",
        "Molecular Mass": "109.15",
        "Boiling Point": "100-102 °C @ Press: 30 Torr",
        "Density": "1.200 g/cm³ @ Temp: 25.000 °C"
    }
}