{
    "cas_no": "307-55-1",
    "key_name": "Perfluorododecanoic acid",
    "cn_name": "全氟十二酸;全氟十二烷酸;全氟十二烷酸/PFDOA;全氟十二酸;",
    "alternate_name": "Dodecanoic acid, 2,2,3,3,4,4,5,5,6,6,7,7,8,8,9,9,10,10,11,11,12,12,12-tricosafluoro-;Dodecanoic acid, tricosafluoro-;2,2,3,3,4,4,5,5,6,6,7,7,8,8,9,9,10,10,11,11,12,12,12-Tricosafluorododecanoic acid;Perfluorododecanoic acid;Perfluorolauric acid;2,2,3,3,4,4,5,5,6,6,7,7,8,8,9,9,10,10,11,11,11-Tricosafluorododecanoic acid;PFDoDA",
    "duplicated_cas_no": "",
    "SMILES": "C(C(C(C(C(C(C(O)=O)(F)F)(F)F)(F)F)(F)F)(F)F)(C(C(C(C(C(F)(F)F)(F)F)(F)F)(F)F)(F)F)(F)F",
    "meta_data": {
        "InChI": "InChI=1S/C12HF23O2/c13-2(14,1(36)37)3(15,16)4(17,18)5(19,20)6(21,22)7(23,24)8(25,26)9(27,28)10(29,30)11(31,32)12(33,34)35/h(H,36,37)",
        "InChIKey": null,
        "Canonical SMILES": "O=C(O)C(F)(F)C(F)(F)C(F)(F)C(F)(F)C(F)(F)C(F)(F)C(F)(F)C(F)(F)C(F)(F)C(F)(F)C(F)(F)F",
        "Molecular Formula": "C<sub>12</sub>HF<sub>23</sub>O<sub>2</sub>",
        "Molecular Mass": "614.10",
        "Boiling Point": "249 °C",
        "Melting Point": "108 °C"
    }
}