{
    "cas_no": "95-11-4",
    "key_name": "Bicyclo[2.2.1]hept-5-ene-2-carbonitrile",
    "cn_name": "2-氰基-5-降冰片烯;双环[2.2.1]庚-5-烯-2-甲腈;",
    "alternate_name": "Bicyclo[2.2.1]hept-5-ene-2-carbonitrile;5-Norbornene-2-carbonitrile;5-Cyanobicyclo[2.2.1]hept-2-ene;5-Cyano-2-norbornene;2-Cyano-5-norbornene;2-Cyanobicyclo[2.2.1]hept-5-ene;Bicyclo[2.2.1]-5-hepten-2-carbonitrile;Norbornenecarbonitrile;5-Cyanonorbornene",
    "duplicated_cas_no": "",
    "SMILES": "C(#N)C1C2CC(C1)C=C2",
    "meta_data": {
        "InChI": "InChI=1S/C8H9N/c9-5-8-4-6-1-2-7(8)3-6/h1-2,6-8H,3-4H2",
        "InChIKey": null,
        "Canonical SMILES": "N#CC1CC2C=CC1C2",
        "Molecular Formula": "C<sub>8</sub>H<sub>9</sub>N",
        "Molecular Mass": "119.16",
        "Boiling Point": "80-85 °C @ Press: 11 Torr",
        "Melting Point": "13 °C",
        "Density": "1.0066 g/cm³ @ Temp: 25 °C"
    }
}