{
    "cas_no": "18887-19-9",
    "key_name": "Methyl tanshinonate",
    "cn_name": null,
    "alternate_name": "Phenanthro[1,2-<em>b</em>]furan-6-carboxylic acid, 6,7,8,9,10,11-hexahydro-1,6-dimethyl-10,11-dioxo-, methyl ester, (6<em>S</em>)-;Phenanthro[1,2-<em>b</em>]furan-6-carboxylic acid, 6,7,8,9,10,11-hexahydro-1,6-dimethyl-10,11-dioxo-, methyl ester, (<em>S</em>)-;Methyl tanshinonate;Methyl tanshinate",
    "duplicated_cas_no": "135355-72-5",
    "SMILES": "O=C1C=2C(C3=C(C1=O)C(C)=CO3)=CC=C4C2CCC[C@@]4(C(OC)=O)C",
    "meta_data": {
        "InChI": "InChI=1S/C20H18O5/c1-10-9-25-18-12-6-7-13-11(15(12)17(22)16(21)14(10)18)5-4-8-20(13,2)19(23)24-3/h6-7,9H,4-5,8H2,1-3H3/t20-/m0/s1",
        "InChIKey": null,
        "Canonical SMILES": "O=C1C(=O)C2=C(C=CC3=C2CCCC3(C(=O)OC)C)C=4OC=C(C14)C",
        "Molecular Formula": "C<sub>20</sub>H<sub>18</sub>O<sub>5</sub>",
        "Molecular Mass": "338.35",
        "Melting Point": "175-176 °C"
    }
}