{
    "cas_no": "7355-18-2",
    "key_name": "Methyl 1,2,3,4-tetra-<em>O</em>-acetyl-β-<span class=\"text-smallcaps\">D</span>-glucopyranuronate",
    "cn_name": "1,2,3,4-四-O-乙酰基-D-葡糖醛酸甲酯;",
    "alternate_name": "β-<span class=\"text-smallcaps\">D</span>-Glucopyranuronic acid, methyl ester, 1,2,3,4-tetraacetate;Glucopyranuronic acid, methyl ester, tetraacetate, β-<span class=\"text-smallcaps\">D</span>-;β-<span class=\"text-smallcaps\">D</span>-Glucopyranuronic acid, methyl ester, tetraacetate;Methyl tetra-<em>O</em>-acetyl-β-<span class=\"text-smallcaps\">D</span>-glucopyranuronate;1,2,3,4-Tetra-<em>O</em>-acetyl-β-<span class=\"text-smallcaps\">D</span>-glucopyranuronic acid methyl ester;Methyl 1,2,3,4-tetra-<em>O</em>-acetyl-β-<span class=\"text-smallcaps\">D</span>-glucopyranuronate;NSC 16925;NSC 82042",
    "duplicated_cas_no": "1080019-28-8;1195175-90-6",
    "SMILES": "O(C(C)=O)[C@H]1[C@H](OC(C)=O)[C@@H](C(OC)=O)O[C@@H](OC(C)=O)[C@@H]1OC(C)=O",
    "meta_data": {
        "InChI": "InChI=1S/C15H20O11/c1-6(16)22-10-11(23-7(2)17)13(24-8(3)18)15(25-9(4)19)26-12(10)14(20)21-5/h10-13,15H,1-5H3/t10-,11-,12-,13+,15+/m0/s1",
        "InChIKey": null,
        "Canonical SMILES": "O=C(OC1OC(C(=O)OC)C(OC(=O)C)C(OC(=O)C)C1OC(=O)C)C",
        "Molecular Formula": "C<sub>15</sub>H<sub>20</sub>O<sub>11</sub>",
        "Molecular Mass": "376.31",
        "Melting Point": "178 °C"
    }
}