{
    "cas_no": "7580-85-0",
    "key_name": "Ethylene glycol mono-<em>tert</em>-butyl ether",
    "cn_name": "乙二醇单叔丁基醚;2-(叔丁氧基)乙醇;叔丁基溶纤剂;乙二醇单叔丁醚;",
    "alternate_name": "Ethanol, 2-(1,1-dimethylethoxy)-;Ethanol, 2-<em>tert</em>-butoxy-;2-(1,1-Dimethylethoxy)ethanol;Ethylene glycol mono-<em>tert</em>-butyl ether;Swasolve ETB;2-<em>tert</em>-Butoxyethanol;<em>tert</em>-Butyl 2-hydroxyethyl ether;<em>tert</em>-Butyl Cellosolve;Ethylene glycol <em>tert</em>-butyl ether;2-<em>tert</em>-Butoxyethyl alcohol;2-(<em>tert</em>-Butoxy)ethan-1-ol;2-[(2-Methylpropan-2-yl)oxy]ethanol",
    "duplicated_cas_no": "",
    "SMILES": "O(C(C)(C)C)CCO",
    "meta_data": {
        "InChI": "InChI=1S/C6H14O2/c1-6(2,3)8-5-4-7/h7H,4-5H2,1-3H3",
        "InChIKey": null,
        "Canonical SMILES": "OCCOC(C)(C)C",
        "Molecular Formula": "C<sub>6</sub>H<sub>14</sub>O<sub>2</sub>",
        "Molecular Mass": "118.17",
        "Boiling Point": "153 °C",
        "Density": "0.8970 g/cm³ @ Temp: 20 °C"
    }
}