{
    "cas_no": "123040-75-5",
    "key_name": "Methyl 6-chloro-3,4-dihydro-3-oxo-2<em>H</em>-1,4-benzoxazine-8-carboxylate",
    "cn_name": "6-氯-3,4-二氢-3-氧代-2H-1,4-苯并恶嗪-8-甲酸甲酯;",
    "alternate_name": "2<em>H</em>-1,4-Benzoxazine-8-carboxylic acid, 6-chloro-3,4-dihydro-3-oxo-, methyl ester;Methyl 6-chloro-3,4-dihydro-3-oxo-2<em>H</em>-1,4-benzoxazine-8-carboxylate",
    "duplicated_cas_no": "",
    "SMILES": "C(OC)(=O)C1=C2C(NC(=O)CO2)=CC(Cl)=C1",
    "meta_data": {
        "InChI": "InChI=1S/C10H8ClNO4/c1-15-10(14)6-2-5(11)3-7-9(6)16-4-8(13)12-7/h2-3H,4H2,1H3,(H,12,13)",
        "InChIKey": null,
        "Canonical SMILES": "O=C(OC)C=1C=C(Cl)C=C2NC(=O)COC21",
        "Molecular Formula": "C<sub>10</sub>H<sub>8</sub>ClNO<sub>4</sub>",
        "Molecular Mass": "241.63",
        "Melting Point": "239-241 °C"
    }
}