{
    "cas_no": "489-98-5",
    "key_name": "Picramide",
    "cn_name": "2,4,6-三硝基苯胺;",
    "alternate_name": "Benzenamine, 2,4,6-trinitro-;Picramide;Aniline, 2,4,6-trinitro-;2,4,6-Trinitrobenzenamine;2,4,6-Trinitroaniline;MATB (explosive);MATB;1-Amino-2,4,6-trinitrobenzene;TNA;NSC 4860;2,4,6-Trinitrophenylamine",
    "duplicated_cas_no": "",
    "SMILES": "N(=O)(=O)C1=C(N)C(N(=O)=O)=CC(N(=O)=O)=C1",
    "meta_data": {
        "InChI": "InChI=1S/C6H4N4O6/c7-6-4(9(13)14)1-3(8(11)12)2-5(6)10(15)16/h1-2H,7H2",
        "InChIKey": null,
        "Canonical SMILES": "O=N(=O)C=1C=C(C(N)=C(C1)N(=O)=O)N(=O)=O",
        "Molecular Formula": "C<sub>6</sub>H<sub>4</sub>N<sub>4</sub>O<sub>6</sub>",
        "Molecular Mass": "228.12",
        "Melting Point": "193.5 °C"
    }
}