{
    "cas_no": "36913-39-0",
    "key_name": "Pyridinium, 1-methyl-4-phenyl-, iodide (1:1)",
    "cn_name": null,
    "alternate_name": "Pyridinium, 1-methyl-4-phenyl-, iodide (1:1);Pyridinium, 1-methyl-4-phenyl-, iodide;1-Methyl-4-phenylpyridinium iodide;<em>N</em>-Methyl-4-phenylpyridinium iodide",
    "duplicated_cas_no": "",
    "SMILES": "C[N+]=1C=CC(=CC1)C2=CC=CC=C2.[I-]",
    "meta_data": {
        "InChI": "InChI=1S/C12H12N.HI/c1-13-9-7-12(8-10-13)11-5-3-2-4-6-11;/h2-10H,1H3;1H/q+1;/p-1",
        "InChIKey": null,
        "Canonical SMILES": "[I-].C=1C=CC(=CC1)C=2C=C[N+](=CC2)C",
        "Molecular Formula": "C<sub>12</sub>H<sub>12</sub>N.I",
        "Molecular Mass": "",
        "Melting Point": "166-168 °C"
    }
}