{
    "cas_no": "124700-41-0",
    "key_name": "2-Fluoro-5-iodobenzoic acid",
    "cn_name": "2-氟-5-碘苯甲酸;",
    "alternate_name": "Benzoic acid, 2-fluoro-5-iodo-;2-Fluoro-5-iodobenzoic acid",
    "duplicated_cas_no": "1165796-02-0",
    "SMILES": "C(O)(=O)C1=C(F)C=CC(I)=C1",
    "meta_data": {
        "InChI": "InChI=1S/C7H4FIO2/c8-6-2-1-4(9)3-5(6)7(10)11/h1-3H,(H,10,11)",
        "InChIKey": null,
        "Canonical SMILES": "O=C(O)C1=CC(I)=CC=C1F",
        "Molecular Formula": "C<sub>7</sub>H<sub>4</sub>FIO<sub>2</sub>",
        "Molecular Mass": "266.01",
        "Melting Point": "161-163 °C"
    }
}