{
    "cas_no": "607-71-6",
    "key_name": "4-Methylcoumarin",
    "cn_name": "4-甲基香豆素;",
    "alternate_name": "2<em>H</em>-1-Benzopyran-2-one, 4-methyl-;Coumarin, 4-methyl-;4-Methyl-2<em>H</em>-1-benzopyran-2-one;4-Methylcoumarin;NSC 20100;4-Methylchromen-2-one",
    "duplicated_cas_no": "",
    "SMILES": "CC=1C=2C(OC(=O)C1)=CC=CC2",
    "meta_data": {
        "InChI": "InChI=1S/C10H8O2/c1-7-6-10(11)12-9-5-3-2-4-8(7)9/h2-6H,1H3",
        "InChIKey": null,
        "Canonical SMILES": "O=C1OC=2C=CC=CC2C(=C1)C",
        "Molecular Formula": "C<sub>10</sub>H<sub>8</sub>O<sub>2</sub>",
        "Molecular Mass": "160.17",
        "Boiling Point": "180 °C @ Press: 15 Torr",
        "Melting Point": "79 °C"
    }
}