{
    "cas_no": "611-94-9",
    "key_name": "4-Methoxybenzophenone",
    "cn_name": "4-甲氧基二苯甲酮;",
    "alternate_name": "Methanone, (4-methoxyphenyl)phenyl-;Benzophenone, 4-methoxy-;Benzophenone, <em>p</em>-methoxy-;(4-Methoxyphenyl)phenylmethanone;<em>p</em>-Methoxybenzophenone;4-Methoxybenzophenone;Phenyl <em>p</em>-anisyl ketone;<em>p</em>-Methoxyphenyl phenyl ketone;4-Methoxyphenyl phenyl ketone;4-Benzoylanisole;NSC 2194;<em>p</em>-Benzoylanisole",
    "duplicated_cas_no": "",
    "SMILES": "C(=O)(C1=CC=C(OC)C=C1)C2=CC=CC=C2",
    "meta_data": {
        "InChI": "InChI=1S/C14H12O2/c1-16-13-9-7-12(8-10-13)14(15)11-5-3-2-4-6-11/h2-10H,1H3",
        "InChIKey": null,
        "Canonical SMILES": "O=C(C=1C=CC=CC1)C2=CC=C(OC)C=C2",
        "Molecular Formula": "C<sub>14</sub>H<sub>12</sub>O<sub>2</sub>",
        "Molecular Mass": "212.24",
        "Boiling Point": "355 °C",
        "Melting Point": "61.5 °C"
    }
}