{
    "cas_no": "368-47-8",
    "key_name": "(Trifluorosilyl)benzene",
    "cn_name": null,
    "alternate_name": "Benzene, (trifluorosilyl)-;Silane, trifluorophenyl-;(Trifluorosilyl)benzene;Phenyltrifluorosilane;Trifluorophenylsilane;Phenylsilane trifluoride",
    "duplicated_cas_no": "",
    "SMILES": "[Si](F)(F)(F)C1=CC=CC=C1",
    "meta_data": {
        "InChI": "InChI=1S/C6H5F3Si/c7-10(8,9)6-4-2-1-3-5-6/h1-5H",
        "InChIKey": null,
        "Canonical SMILES": "F[Si](F)(F)C=1C=CC=CC1",
        "Molecular Formula": "C<sub>6</sub>H<sub>5</sub>F<sub>3</sub>Si",
        "Molecular Mass": "162.18",
        "Boiling Point": "101.5 °C",
        "Melting Point": "-18 °C",
        "Density": "1.216 g/cm³"
    }
}