{
    "cas_no": "1460-57-7",
    "key_name": "<em>trans</em>-1,2-Cyclohexanediol",
    "cn_name": "反-1,2-环己二醇;顺反混合物;",
    "alternate_name": "1,2-Cyclohexanediol, (1<em>R</em>,2<em>R</em>)-<em>rel</em>-;1,2-Cyclohexanediol, <em>trans</em>-;<em>rel</em>-(1<em>R</em>,2<em>R</em>)-1,2-Cyclohexanediol;<em>trans</em>-1,2-Cyclohexanediol;<em>trans</em>-1,2-Dihydroxycyclohexane;1,2-<em>trans</em>-Cyclohexanediol;1,2-<em>trans</em>-Dihydroxycyclohexane;<em>trans</em>-2-Hydroxycyclohexanol;(±)-<em>trans</em>-1,2-Cyclohexanediol;NSC 150568;NSC 34836",
    "duplicated_cas_no": "54383-22-1",
    "SMILES": "O[C@H]1[C@H](O)CCCC1",
    "meta_data": {
        "InChI": "InChI=1/C6H12O2/c7-5-3-1-2-4-6(5)8/h5-8H,1-4H2/t5-,6-/s2",
        "InChIKey": null,
        "Canonical SMILES": "OC1CCCCC1O",
        "Molecular Formula": "C<sub>6</sub>H<sub>12</sub>O<sub>2</sub>",
        "Molecular Mass": "116.16",
        "Boiling Point": "117 °C",
        "Melting Point": "101-104 °C"
    }
}