{
    "cas_no": "5871-17-0",
    "key_name": "Potassium <em>O</em>,<em>O</em>-diethylthiophosphate",
    "cn_name": "O,O-二乙基硫代磷酸钾盐;O,O-二乙基硫代磷酸钾盐;",
    "alternate_name": "Phosphorothioic acid, <em>O</em>,<em>O</em>-diethyl ester, potassium salt (1:1);Phosphorothioic acid, <em>O</em>,<em>O</em>-diethyl ester, potassium salt;Ethyl potassium phosphorothioate;Potassium <em>O</em>,<em>O</em>-diethylthiophosphate;Potassium <em>O</em>,<em>O</em>-diethyl phosphorothioate;Potassium diethyl thiophosphate;<em>O</em>,<em>O</em>-Diethyl potassium phosphorothioate;Potassium di-<em>O</em>-ethyl phosphorothioate",
    "duplicated_cas_no": "28523-81-1",
    "SMILES": "P(OCC)(OCC)(=O)S.[K]",
    "meta_data": {
        "InChI": "InChI=1S/C4H11O3PS.K/c1-3-6-8(5,9)7-4-2;/h3-4H2,1-2H3,(H,5,9);",
        "InChIKey": null,
        "Canonical SMILES": "[K].O=P(S)(OCC)OCC",
        "Molecular Formula": "C<sub>4</sub>H<sub>11</sub>O<sub>3</sub>PS.K",
        "Molecular Mass": "",
        "Melting Point": "196-197 °C"
    }
}