{
    "cas_no": "68837-59-2",
    "key_name": "4-Bromo-2-methylbenzoic acid",
    "cn_name": "4-溴-2-甲基苯甲酸;",
    "alternate_name": "Benzoic acid, 4-bromo-2-methyl-;<em>o</em>-Toluic acid, 4-bromo-;4-Bromo-2-methylbenzoic acid;4-Bromo-<em>o</em>-toluic acid;2-Methyl-4-bromobenzoic acid;NSC 243710",
    "duplicated_cas_no": "",
    "SMILES": "C(O)(=O)C1=C(C)C=C(Br)C=C1",
    "meta_data": {
        "InChI": "InChI=1S/C8H7BrO2/c1-5-4-6(9)2-3-7(5)8(10)11/h2-4H,1H3,(H,10,11)",
        "InChIKey": null,
        "Canonical SMILES": "O=C(O)C1=CC=C(Br)C=C1C",
        "Molecular Formula": "C<sub>8</sub>H<sub>7</sub>BrO<sub>2</sub>",
        "Molecular Mass": "215.04",
        "Melting Point": "181-182 °C"
    }
}