{
    "cas_no": "632-20-2",
    "key_name": "<span class=\"text-smallcaps\">D</span>-Threonine",
    "cn_name": "D-苏氨酸;D-2-氨基-3-羟基丁酸;",
    "alternate_name": "<span class=\"text-smallcaps\">D</span>-Threonine;Threonine, <span class=\"text-smallcaps\">D</span>-;(<em>R</em>)-Threonine;NSC 46702;(2<em>R</em>,3<em>S</em>)-2-Amino-3-hydroxybutanoic acid;(2<em>R</em>,3<em>S</em>)-3-Hydroxy-2-aminobutanoic acid;(2R,3S)-2-Amino-3-hydroxybutanoic acid",
    "duplicated_cas_no": "6350-52-3;1644578-87-9",
    "SMILES": "[C@@H]([C@H](C)O)(C(O)=O)N",
    "meta_data": {
        "InChI": "InChI=1S/C4H9NO3/c1-2(6)3(5)4(7)8/h2-3,6H,5H2,1H3,(H,7,8)/t2-,3+/m0/s1",
        "InChIKey": null,
        "Canonical SMILES": "O=C(O)C(N)C(O)C",
        "Molecular Formula": "C<sub>4</sub>H<sub>9</sub>NO<sub>3</sub>",
        "Molecular Mass": "119.12",
        "Melting Point": "251-253 °C"
    }
}