{
    "cas_no": "52200-22-3",
    "key_name": "α-[(Dimethylamino)methylene]-β-oxo-2-thiophenepropanenitrile",
    "cn_name": null,
    "alternate_name": "2-Thiophenepropanenitrile, α-[(dimethylamino)methylene]-β-oxo-;α-[(Dimethylamino)methylene]-β-oxo-2-thiophenepropanenitrile;3-(Dimethylamino)-2-(2-thenoyl)acrylonitrile",
    "duplicated_cas_no": "",
    "SMILES": "C(C(=CN(C)C)C#N)(=O)C1=CC=CS1",
    "meta_data": {
        "InChI": "InChI=1S/C10H10N2OS/c1-12(2)7-8(6-11)10(13)9-4-3-5-14-9/h3-5,7H,1-2H3",
        "InChIKey": null,
        "Canonical SMILES": "N#CC(=CN(C)C)C(=O)C=1SC=CC1",
        "Molecular Formula": "C<sub>10</sub>H<sub>10</sub>N<sub>2</sub>OS",
        "Molecular Mass": "206.26",
        "Melting Point": "153-154 °C"
    }
}