{
    "cas_no": "13673-95-5",
    "key_name": "Methyl (α<em>S</em>)-α-hydroxybenzenepropanoate",
    "cn_name": "L-3-苯基乳酸甲酯;",
    "alternate_name": "Benzenepropanoic acid, α-hydroxy-, methyl ester, (α<em>S</em>)-;Lactic acid, 3-phenyl-, methyl ester, <span class=\"text-smallcaps\">L</span>-;Benzenepropanoic acid, α-hydroxy-, methyl ester, (<em>S</em>)-;Methyl (α<em>S</em>)-α-hydroxybenzenepropanoate;<span class=\"text-smallcaps\">L</span>-β-Phenyllactic acid methyl ester;Methyl β-phenyl-<span class=\"text-smallcaps\">L</span>-lactate;Methyl <span class=\"text-smallcaps\">L</span>-phenyllactate;(<em>S</em>)-β-Phenyllactic acid methyl ester;Methyl (<em>S</em>)-α-hydroxy-β-phenylpropionate;Methyl <span class=\"text-smallcaps\">L</span>-2-hydroxy-3-phenylpropionate;Papulin;Methyl (<em>S</em>)-(-)-3-phenyllactate;Methyl 3-phenyl-<span class=\"text-smallcaps\">L</span>-lactate;Methyl (<em>S</em>)-3-phenyllactate;(-)-3-Phenyllactic acid methyl ester;(α<em>S</em>)-α-Hydroxybenzenepropanoic acid methyl ester;(2<em>S</em>)-2-Hydroxy-3-phenylpropionic acid methyl ester;Methyl (2S)-2-hydroxy-3-phenylpropanoate;Methyl (2<em>S</em>)-2-hydroxy-3-phenylpropanoate;(<em>S</em>)-2-Hydroxy-3-phenylpropionic acid methyl ester;Methyl (<em>S</em>)-2-hydroxy-3-phenylpropanoate;Papuline",
    "duplicated_cas_no": "19036-67-0",
    "SMILES": "C([C@@H](C(OC)=O)O)C1=CC=CC=C1",
    "meta_data": {
        "InChI": "InChI=1S/C10H12O3/c1-13-10(12)9(11)7-8-5-3-2-4-6-8/h2-6,9,11H,7H2,1H3/t9-/m0/s1",
        "InChIKey": null,
        "Canonical SMILES": "O=C(OC)C(O)CC=1C=CC=CC1",
        "Molecular Formula": "C<sub>10</sub>H<sub>12</sub>O<sub>3</sub>",
        "Molecular Mass": "180.20",
        "Boiling Point": "110-115 °C @ Press: 3 Torr",
        "Melting Point": "45-47 °C",
        "Density": "1.129 g/cm³ @ Temp: 20 °C"
    }
}