{
    "cas_no": "333-20-0",
    "key_name": "Potassium thiocyanate",
    "cn_name": "硫氰酸钾;",
    "alternate_name": "Thiocyanic acid, potassium salt (1:1);Potassium thiocyanate;Thiocyanic acid, potassium salt;Aterocyn;Potassium rhodanate;Rhocya;Potassium thiocyanide;Potassium isothiocyanate;Arterocyn;Kyonate;Rodanca;Thio-Cara",
    "duplicated_cas_no": "4495-15-2;14314-32-0;77044-25-8;170159-46-3;885624-03-3;2239311-10-3",
    "SMILES": "C(#N)S.[K]",
    "meta_data": {
        "InChI": "InChI=1S/CHNS.K/c2-1-3;/h3H;",
        "InChIKey": null,
        "Canonical SMILES": "[K].N#CS",
        "Molecular Formula": "CHNS.K",
        "Molecular Mass": "",
        "Melting Point": "173 °C",
        "Density": "1.956 g/cm³"
    }
}