{
    "cas_no": "70918-01-3",
    "key_name": "Methanone, [4-(4-amino-6,7-dimethoxy-2-quinazolinyl)-1-piperazinyl](2,3-dihydro-1,4-benzodioxin-2-yl)-, hydrochloride (1:1)",
    "cn_name": "盐酸多沙唑嗪;1-(4-氨基-6,7-二甲氧基-2-喹唑啉基)-4-(1,4-苯并二恶烷-2-甲酰基)哌嗪盐酸盐;",
    "alternate_name": "Methanone, [4-(4-amino-6,7-dimethoxy-2-quinazolinyl)-1-piperazinyl](2,3-dihydro-1,4-benzodioxin-2-yl)-, hydrochloride (1:1);Piperazine, 1-(4-amino-6,7-dimethoxy-2-quinazolinyl)-4-[(2,3-dihydro-1,4-benzodioxin-2-yl)carbonyl]-, monohydrochloride;1,4-Benzodioxin, piperazine deriv.",
    "duplicated_cas_no": "",
    "SMILES": "NC=1C2=C(N=C(N1)N3CCN(C(=O)C4OC=5C(OC4)=CC=CC5)CC3)C=C(OC)C(OC)=C2.Cl",
    "meta_data": {
        "InChI": "InChI=1S/C23H25N5O5.ClH/c1-30-18-11-14-15(12-19(18)31-2)25-23(26-21(14)24)28-9-7-27(8-10-28)22(29)20-13-32-16-5-3-4-6-17(16)33-20;/h3-6,11-12,20H,7-10,13H2,1-2H3,(H2,24,25,26);1H",
        "InChIKey": null,
        "Canonical SMILES": "Cl.O=C(N1CCN(C=2N=C(N)C=3C=C(OC)C(OC)=CC3N2)CC1)C4OC=5C=CC=CC5OC4",
        "Molecular Formula": "C<sub>23</sub>H<sub>25</sub>N<sub>5</sub>O<sub>5</sub>.ClH",
        "Molecular Mass": "",
        "Melting Point": "289-290 °C"
    }
}