{
    "cas_no": "877-95-2",
    "key_name": "<em>N</em>-(2-Phenylethyl)acetamide",
    "cn_name": null,
    "alternate_name": "Acetamide, <em>N</em>-(2-phenylethyl)-;Acetamide, <em>N</em>-phenethyl-;<em>N</em>-(2-Phenylethyl)acetamide;<em>N</em>-Phenethylacetamide;<em>N</em>-Acetylphenethylamine;<em>N</em>-(β-Phenylethyl)acetamide;<em>N</em>-2-Phenethylacetamide;<em>N</em>-Acetyl-2-phenylethylamine;NSC 7177;Acetamide, N-(2-phenylethyl)",
    "duplicated_cas_no": "",
    "SMILES": "C(CNC(C)=O)C1=CC=CC=C1",
    "meta_data": {
        "InChI": "InChI=1S/C10H13NO/c1-9(12)11-8-7-10-5-3-2-4-6-10/h2-6H,7-8H2,1H3,(H,11,12)",
        "InChIKey": null,
        "Canonical SMILES": "O=C(NCCC=1C=CC=CC1)C",
        "Molecular Formula": "C<sub>10</sub>H<sub>13</sub>NO",
        "Molecular Mass": "163.22",
        "Boiling Point": "154 °C @ Press: 2 Torr",
        "Melting Point": "40 °C"
    }
}