{
    "cas_no": "53234-55-2",
    "key_name": "5-Cyanopicolinic acid",
    "cn_name": "5-氰基吡啶-2-羧酸、5-氰基-2-吡啶甲酸;",
    "alternate_name": "2-Pyridinecarboxylic acid, 5-cyano-;5-Cyano-2-pyridinecarboxylic acid;5-Cyanopicolinic acid;5-Cyanopicoliniic acid",
    "duplicated_cas_no": "",
    "SMILES": "C(O)(=O)C1=CC=C(C#N)C=N1",
    "meta_data": {
        "InChI": "InChI=1S/C7H4N2O2/c8-3-5-1-2-6(7(10)11)9-4-5/h1-2,4H,(H,10,11)",
        "InChIKey": null,
        "Canonical SMILES": "N#CC1=CN=C(C=C1)C(=O)O",
        "Molecular Formula": "C<sub>7</sub>H<sub>4</sub>N<sub>2</sub>O<sub>2</sub>",
        "Molecular Mass": "148.12",
        "Melting Point": "220 °C"
    }
}