{
    "cas_no": "21892-80-8",
    "key_name": "3-Methylbenzo[<em>d</em>]oxazol-2(3<em>H</em>)-one",
    "cn_name": "3-甲基-2-苯并恶唑酮;3-甲基-2-苯并噁唑酮;",
    "alternate_name": "2(3<em>H</em>)-Benzoxazolone, 3-methyl-;2-Benzoxazolinone, 3-methyl-;3-Methyl-2(3<em>H</em>)-benzoxazolone;<em>N</em>-Methyl-2-benzoxazolinone;<em>N</em>-Methylbenzoxazolone;3-Methylbenzoxazolone;3-Methyl-2-benzoxazolinone;3-Methyl-3<em>H</em>-benzoxazol-2-one;3-Methylbenzo[<em>d</em>]oxazol-2(3<em>H</em>)-one;3-Methyl-1,2-dihydrobenzoxazol-2-one;3-Methyl-2,3-dihydro-1,3-benzoxazol-2-one;3-Methyl-3<em>H</em>-benzooxazol-2-one;3-Methyl-1,3-benzoxazol-2-one",
    "duplicated_cas_no": "",
    "SMILES": "CN1C=2C(OC1=O)=CC=CC2",
    "meta_data": {
        "InChI": "InChI=1S/C8H7NO2/c1-9-6-4-2-3-5-7(6)11-8(9)10/h2-5H,1H3",
        "InChIKey": null,
        "Canonical SMILES": "O=C1OC=2C=CC=CC2N1C",
        "Molecular Formula": "C<sub>8</sub>H<sub>7</sub>NO<sub>2</sub>",
        "Molecular Mass": "149.15",
        "Boiling Point": "110-112 °C @ Press: 1 Torr",
        "Melting Point": "83 °C"
    }
}