{
    "cas_no": "10039-54-0",
    "key_name": "Hydroxylamine, sulfate",
    "cn_name": "硫酸羟胺;",
    "alternate_name": "Hydroxylamine, sulfate (2:1);Hydroxylamine, sulfate (2:1) (salt);Hydroxylamine, sulfate;Oxammonium sulfate;Hydroxylammonium sulfate;Bis(hydroxylamine) sulfate;Hydroxyl ammonium sulfate ((HONH<sub>3</sub>)<sub>2</sub>SO<sub>4</sub>);Hydroxylamine neutral sulfate;Di(hydroxylamine) sulfate;Lanasane LAB;Envision MLB 2030;Bis(hydroxylammonium) sulfate;Reduction Solution Securiganth P",
    "duplicated_cas_no": "120893-78-9;1257422-90-4",
    "SMILES": "NO.S(=O)(=O)(O)O",
    "meta_data": {
        "InChI": "InChI=1S/H3NO.H2O4S/c1-2;1-5(2,3)4/h2H,1H2;(H2,1,2,3,4)",
        "InChIKey": null,
        "Canonical SMILES": "O=S(=O)(O)O.ON",
        "Molecular Formula": "H<sub>3</sub>NO.<sup>1</sup>/<sub>2</sub>H<sub>2</sub>O<sub>4</sub>S",
        "Molecular Mass": "",
        "Melting Point": "120 °C (decomp)",
        "Density": "1.88 g/cm³"
    }
}