{
    "cas_no": "4685-47-6",
    "key_name": "3,4-Dimethylanisole",
    "cn_name": "3,4-二甲基茴香醚;",
    "alternate_name": "Benzene, 4-methoxy-1,2-dimethyl-;Anisole, 3,4-dimethyl-;4-Methoxy-1,2-dimethylbenzene;3,4-Dimethylanisole;4-Methoxy-<em>o</em>-xylene;1-Methoxy-3,4-dimethylbenzene;3,4-Dimethylphenol methyl ether;1,2-Dimethyl-4-methoxybenzene;2-Methyl-4-methoxytoluene",
    "duplicated_cas_no": "",
    "SMILES": "O(C)C1=CC(C)=C(C)C=C1",
    "meta_data": {
        "InChI": "InChI=1S/C9H12O/c1-7-4-5-9(10-3)6-8(7)2/h4-6H,1-3H3",
        "InChIKey": null,
        "Canonical SMILES": "O(C1=CC=C(C(=C1)C)C)C",
        "Molecular Formula": "C<sub>9</sub>H<sub>12</sub>O",
        "Molecular Mass": "136.19",
        "Boiling Point": "202 °C"
    }
}