{
    "cas_no": "154970-45-3",
    "key_name": "1,1-Dimethylethyl bicyclo[2.2.1]hept-5-ene-2-carboxylate",
    "cn_name": "5-降冰片烯-2-羧酸叔丁酯;",
    "alternate_name": "Bicyclo[2.2.1]hept-5-ene-2-carboxylic acid, 1,1-dimethylethyl ester;1,1-Dimethylethyl bicyclo[2.2.1]hept-5-ene-2-carboxylate;5-<em>tert</em>-Butoxycarbonylbicyclo[2.2.1]hept-2-ene;<em>tert</em>-Butyl 5-norbornene-2-carboxylate;Bicyclo[2,2,1 ]hept-5-ene-2-<em>tert</em>-butylcarboxylate;Norbornene carboxylic acid <em>tert</em>-butyl ester;<em>tert</em>-Butyl 2-norbornene-5-carboxylate",
    "duplicated_cas_no": "617704-81-1;218791-02-7;357341-34-5",
    "SMILES": "C(OC(C)(C)C)(=O)C1C2CC(C1)C=C2",
    "meta_data": {
        "InChI": "InChI=1S/C12H18O2/c1-12(2,3)14-11(13)10-7-8-4-5-9(10)6-8/h4-5,8-10H,6-7H2,1-3H3",
        "InChIKey": null,
        "Canonical SMILES": "O=C(OC(C)(C)C)C1CC2C=CC1C2",
        "Molecular Formula": "C<sub>12</sub>H<sub>18</sub>O<sub>2</sub>",
        "Molecular Mass": "194.27",
        "Boiling Point": "44-46 °C @ Press: 0.4-0.5 Torr"
    }
}