{
    "cas_no": "19202-36-9",
    "key_name": "Hinokiflavone",
    "cn_name": null,
    "alternate_name": "4<em>H</em>-1-Benzopyran-4-one, 6-[4-(5,7-dihydroxy-4-oxo-4<em>H</em>-1-benzopyran-2-yl)phenoxy]-5,7-dihydroxy-2-(4-hydroxyphenyl)-;Flavone, 4′,5,5′′,7,7′′-pentahydroxy-4′′′,6-oxydi-;Hinokiflavone;6-[4-(5,7-Dihydroxy-4-oxo-4<em>H</em>-1-benzopyran-2-yl)phenoxy]-5,7-dihydroxy-2-(4-hydroxyphenyl)-4<em>H</em>-1-benzopyran-4-one",
    "duplicated_cas_no": "",
    "SMILES": "OC1=C2C(OC(=CC2=O)C3=CC=C(O)C=C3)=CC(O)=C1OC4=CC=C(C=C4)C=5OC=6C(C(=O)C5)=C(O)C=C(O)C6",
    "meta_data": {
        "InChI": "InChI=1S/C30H18O10/c31-16-5-1-14(2-6-16)24-12-21(35)28-26(40-24)13-22(36)30(29(28)37)38-18-7-3-15(4-8-18)23-11-20(34)27-19(33)9-17(32)10-25(27)39-23/h1-13,31-33,36-37H",
        "InChIKey": null,
        "Canonical SMILES": "O=C1C=C(OC=2C=C(O)C=C(O)C12)C=3C=CC(OC4=C(O)C=C5OC(=CC(=O)C5=C4O)C=6C=CC(O)=CC6)=CC3",
        "Molecular Formula": "C<sub>30</sub>H<sub>18</sub>O<sub>10</sub>",
        "Molecular Mass": "538.46",
        "Melting Point": "&gt;330 °C"
    }
}