{
    "cas_no": "2768-53-8",
    "key_name": "<em>N</em>-[(Phenylmethoxy)carbonyl]-<span class=\"text-smallcaps\">L</smallcap>-alanyl-<smallcap>L</span>-phenylalanine",
    "cn_name": null,
    "alternate_name": "<span class=\"text-smallcaps\">L</smallcap>-Phenylalanine, <em>N</em>-[(phenylmethoxy)carbonyl]-<smallcap>L</span>-alanyl-;Alanine, <em>N</em>-(<em>N</em>-carboxy-<span class=\"text-smallcaps\">L</smallcap>-alanyl)-3-phenyl-, <em>N</em>-benzyl ester, <smallcap>L</span>-;<span class=\"text-smallcaps\">L</smallcap>-Phenylalanine, <em>N</em>-[<em>N</em>-[(phenylmethoxy)carbonyl]-<smallcap>L</span>-alanyl]-;Alanine, <em>N</em>-(<em>N</em>-carboxyalanyl)-3-phenyl-, <em>N</em>-benzyl ester;<em>N</em>-[(Phenylmethoxy)carbonyl]-<span class=\"text-smallcaps\">L</smallcap>-alanyl-<smallcap>L</span>-phenylalanine;<em>N</em>-(Benzyloxycarbonyl)-<span class=\"text-smallcaps\">L</smallcap>-alanyl-<smallcap>L</span>-phenylalanine;<em>N</em>-Carbobenzyloxy-<span class=\"text-smallcaps\">L</smallcap>-alanyl-<smallcap>L</span>-phenylalanine;Carbobenzoxy-<span class=\"text-smallcaps\">L</smallcap>-alanyl-<smallcap>L</span>-phenylalanine;NSC 87854",
    "duplicated_cas_no": "",
    "SMILES": "C([C@H](NC([C@@H](NC(OCC1=CC=CC=C1)=O)C)=O)C(O)=O)C2=CC=CC=C2",
    "meta_data": {
        "InChI": "InChI=1S/C20H22N2O5/c1-14(21-20(26)27-13-16-10-6-3-7-11-16)18(23)22-17(19(24)25)12-15-8-4-2-5-9-15/h2-11,14,17H,12-13H2,1H3,(H,21,26)(H,22,23)(H,24,25)/t14-,17-/m0/s1",
        "InChIKey": null,
        "Canonical SMILES": "O=C(OCC=1C=CC=CC1)NC(C(=O)NC(C(=O)O)CC=2C=CC=CC2)C",
        "Molecular Formula": "C<sub>20</sub>H<sub>22</sub>N<sub>2</sub>O<sub>5</sub>",
        "Molecular Mass": "370.40",
        "Melting Point": "130-132 °C"
    }
}