{
    "cas_no": "1317-42-6",
    "key_name": "Cobalt sulfide (CoS)",
    "cn_name": "硫化钴;",
    "alternate_name": "Cobalt sulfide (CoS);Cobaltous sulfide;Cobalt monosulfide;Cobalt sulfide;Cobalt(2+) sulfide;Cobalt(II) sulfide;Cobalt sulfide (Co<sub>0.5</sub>S<sub>0.5</sub>);Cobalt sulfide (Co<sub>4</sub>S)",
    "duplicated_cas_no": "1931076-21-9;2267981-00-8;2768981-48-0",
    "SMILES": "[Co]=S",
    "meta_data": {
        "InChI": "InChI=1S/Co.S",
        "InChIKey": null,
        "Canonical SMILES": "S=[Co]",
        "Molecular Formula": "CoS",
        "Molecular Mass": "",
        "Melting Point": "1182 °C",
        "Density": "5.45 g/cm³"
    }
}