{
    "cas_no": "326-62-5",
    "key_name": "2-Fluorobenzeneacetonitrile",
    "cn_name": "2-氟苯基乙腈;2-氟苯乙腈;邻氟氰苄;",
    "alternate_name": "Benzeneacetonitrile, 2-fluoro-;Acetonitrile, (<em>o</em>-fluorophenyl)-;2-Fluorobenzeneacetonitrile;<em>o</em>-Fluorobenzyl cyanide;2-Fluorobenzyl cyanide;(2-Fluorophenyl)acetonitrile;<em>o</em>-Fluorophenylacetonitrile;<em>o</em>-Fluorobenzyl nitrile;NSC 88280;2-Fluorobenzylnitrile;2-(2-Fluorophenyl)acetonitrile",
    "duplicated_cas_no": "",
    "SMILES": "C(C#N)C1=C(F)C=CC=C1",
    "meta_data": {
        "InChI": "InChI=1S/C8H6FN/c9-8-4-2-1-3-7(8)5-6-10/h1-4H,5H2",
        "InChIKey": null,
        "Canonical SMILES": "N#CCC=1C=CC=CC1F",
        "Molecular Formula": "C<sub>8</sub>H<sub>6</sub>FN",
        "Molecular Mass": "135.14",
        "Boiling Point": "232 °C"
    }
}