{
    "cas_no": "588-68-1",
    "key_name": "Benzalazine",
    "cn_name": "苯甲醛嗪;",
    "alternate_name": "Benzaldehyde, 2-(phenylmethylene)hydrazone;Benzaldehyde, azine;Benzaldehyde, (phenylmethylene)hydrazone;Dibenzylidenehydrazine;Dibenzalhydrazine;1,4-Diphenylformalazine;Benzalazine;Benzaldazine;Benzaldazin;Benzylideneazine;Eusolex 6653;1,4-Diphenyl-2,3-diaza-1,3-butadiene;NSC 3269",
    "duplicated_cas_no": "",
    "SMILES": "C(=NN=CC1=CC=CC=C1)C2=CC=CC=C2",
    "meta_data": {
        "InChI": "InChI=1S/C14H12N2/c1-3-7-13(8-4-1)11-15-16-12-14-9-5-2-6-10-14/h1-12H",
        "InChIKey": null,
        "Canonical SMILES": "N(N=CC=1C=CC=CC1)=CC=2C=CC=CC2",
        "Molecular Formula": "C<sub>14</sub>H<sub>12</sub>N<sub>2</sub>",
        "Molecular Mass": "208.26",
        "Melting Point": "92-93 °C"
    }
}