{
    "cas_no": "2997-88-8",
    "key_name": "2-Morpholinoethyl methacrylate",
    "cn_name": "2-甲基-2-丙烯酸2-(4-吗啉基)乙基酯;甲基丙烯酸[2-(4-吗啉基)乙基]酯;",
    "alternate_name": "2-Propenoic acid, 2-methyl-, 2-(4-morpholinyl)ethyl ester;Methacrylic acid, 2-morpholinoethyl ester;4-Morpholineethanol, methacrylate (ester);2-Morpholinoethyl methacrylate;2-(4-Morpholinyl)ethyl methacrylate;2-(<em>N</em>-Morpholino)ethyl methacrylate;2-(Morpholin-4-yl)ethyl 2-methylprop-2-enoate;2-Morpholin-4-ylethyl 2-methylprop-2-enoate",
    "duplicated_cas_no": "",
    "SMILES": "C(COC(C(C)=C)=O)N1CCOCC1",
    "meta_data": {
        "InChI": "InChI=1S/C10H17NO3/c1-9(2)10(12)14-8-5-11-3-6-13-7-4-11/h1,3-8H2,2H3",
        "InChIKey": null,
        "Canonical SMILES": "O=C(OCCN1CCOCC1)C(=C)C",
        "Molecular Formula": "C<sub>10</sub>H<sub>17</sub>NO<sub>3</sub>",
        "Molecular Mass": "199.25",
        "Boiling Point": "78 °C @ Press: 1.7 mbar"
    }
}