{
    "cas_no": "644-98-4",
    "key_name": "2-Isopropylpyridine",
    "cn_name": "2-异丙基吡啶;",
    "alternate_name": "Pyridine, 2-(1-methylethyl)-;Pyridine, 2-isopropyl-;2-(1-Methylethyl)pyridine;2-Isopropylpyridine;2-(2-Pyridyl)propane;NSC 42615;2-(Propan-2-yl)pyridine;2-Propan-2-ylpyridine",
    "duplicated_cas_no": "",
    "SMILES": "C(C)(C)C1=CC=CC=N1",
    "meta_data": {
        "InChI": "InChI=1S/C8H11N/c1-7(2)8-5-3-4-6-9-8/h3-7H,1-2H3",
        "InChIKey": null,
        "Canonical SMILES": "N=1C=CC=CC1C(C)C",
        "Molecular Formula": "C<sub>8</sub>H<sub>11</sub>N",
        "Molecular Mass": "121.18",
        "Boiling Point": "154-156 °C @ Press: 726 Torr",
        "Melting Point": "-141 °C",
        "Density": "1.4910 g/cm³ @ Temp: 20 °C"
    }
}