{
    "cas_no": "23676-08-6",
    "key_name": "Methyl 4-ethoxybenzoate",
    "cn_name": "对乙氧基苯甲酸甲酯;4-乙氧基苯甲酸甲酯;",
    "alternate_name": "Benzoic acid, 4-ethoxy-, methyl ester;Benzoic acid, <em>p</em>-ethoxy-, methyl ester;Methyl 4-ethoxybenzoate;Methyl <em>p</em>-ethoxybenzoate;NSC 8378;Methyl 4-ethyloxybenzoate",
    "duplicated_cas_no": "",
    "SMILES": "C(OC)(=O)C1=CC=C(OCC)C=C1",
    "meta_data": {
        "InChI": "InChI=1S/C10H12O3/c1-3-13-9-6-4-8(5-7-9)10(11)12-2/h4-7H,3H2,1-2H3",
        "InChIKey": null,
        "Canonical SMILES": "O=C(OC)C1=CC=C(OCC)C=C1",
        "Molecular Formula": "C<sub>10</sub>H<sub>12</sub>O<sub>3</sub>",
        "Molecular Mass": "180.20",
        "Boiling Point": "260 °C",
        "Melting Point": "37.5-38.0 °C"
    }
}