{
    "cas_no": "5531-65-7",
    "key_name": "Benzyl stearate",
    "cn_name": "十八酸苯甲酯;十八酸苯甲酯;",
    "alternate_name": "Octadecanoic acid, phenylmethyl ester;Stearic acid, benzyl ester;Benzyl stearate;Benzyl octadecanoate",
    "duplicated_cas_no": "",
    "SMILES": "C(OC(CCCCCCCCCCCCCCCCC)=O)C1=CC=CC=C1",
    "meta_data": {
        "InChI": "InChI=1S/C25H42O2/c1-2-3-4-5-6-7-8-9-10-11-12-13-14-15-19-22-25(26)27-23-24-20-17-16-18-21-24/h16-18,20-21H,2-15,19,22-23H2,1H3",
        "InChIKey": null,
        "Canonical SMILES": "O=C(OCC=1C=CC=CC1)CCCCCCCCCCCCCCCCC",
        "Molecular Formula": "C<sub>25</sub>H<sub>42</sub>O<sub>2</sub>",
        "Molecular Mass": "374.60",
        "Melting Point": "45.8 °C",
        "Density": "0.9075 g/cm³ @ Temp: 50 °C"
    }
}