{
    "cas_no": "1107-26-2",
    "key_name": "β-Apo-8′-carotenal",
    "cn_name": null,
    "alternate_name": "2,4,6,8,10,12,14,16-Heptadecaoctaenal, 2,6,11,15-tetramethyl-17-(2,6,6-trimethyl-1-cyclohexen-1-yl)-, (2<em>E</em>,4<em>E</em>,6<em>E</em>,8<em>E</em>,10<em>E</em>,12<em>E</em>,14<em>E</em>,16<em>E</em>)-;8′-Apo-β-carotenal, <em>all</em>-<em>trans</em>-;8′-Apo-β,ψ-carotenal;8′-Apo-β-carotenal;(2<em>E</em>,4<em>E</em>,6<em>E</em>,8<em>E</em>,10<em>E</em>,12<em>E</em>,14<em>E</em>,16<em>E</em>)-2,6,11,15-Tetramethyl-17-(2,6,6-trimethyl-1-cyclohexen-1-yl)-2,4,6,8,10,12,14,16-heptadecaoctaenal;β-Apo-8′-carotenal;8′-Apo-β,ψ-caroten-8′-al;β-<em>apo</em>-8′-Carotenal;C.I. Food Orange 6;E 160e;C Orange 16;8′-Apo-β-caroten-8′-al;<em>all</em>-<em>trans</em>-β-Apo-8′-carotenal;β-<em>apo</em>-Carotenal;8′-<em>apo</em>-β-Caroten-8′-al;2,4,6,8,10,12,14,16-Heptadecaoctaenal, 2,6,11,15-tetramethyl-17-(2,6,6-trimethyl-1-cyclohexen-1-yl)-, (<em>all</em>-<em>E</em>)-;8′-Apo-caroten-8′-al;C.I. 40820;(2<em>E</em>,4<em>E</em>,6<em>E</em>,8<em>E</em>,10<em>E</em>,12<em>E</em>,14<em>E</em>,16<em>E</em>)-2,6,11,15-Tetramethyl-17-(2,6,6-trimethylcyclohex-1-en-1-l) heptadeca-2,4,6,8,10,12,14,16-octaenal;β-Carotinal",
    "duplicated_cas_no": "2756-57-2;4172-46-7",
    "SMILES": "C(=C/C(=C/C=C/C(=C/C=C/C=C(/C=C/C=C(/C=O)\\C)\\C)/C)/C)\\C=1C(C)(C)CCCC1C",
    "meta_data": {
        "InChI": "InChI=1S/C30H40O/c1-24(13-8-9-14-25(2)16-11-18-27(4)23-31)15-10-17-26(3)20-21-29-28(5)19-12-22-30(29,6)7/h8-11,13-18,20-21,23H,12,19,22H2,1-7H3/b9-8+,15-10+,16-11+,21-20+,24-13+,25-14+,26-17+,27-18+",
        "InChIKey": null,
        "Canonical SMILES": "O=CC(=CC=CC(=CC=CC=C(C=CC=C(C=CC1=C(C)CCCC1(C)C)C)C)C)C",
        "Molecular Formula": "C<sub>30</sub>H<sub>40</sub>O",
        "Molecular Mass": "416.64",
        "Melting Point": "136-137 °C"
    }
}