{
    "cas_no": "18740-39-1",
    "key_name": "2,4-Dichlorothieno[2,3-<em>d</em>]pyrimidine",
    "cn_name": null,
    "alternate_name": "Thieno[2,3-<em>d</em>]pyrimidine, 2,4-dichloro-;2,4-Dichlorothieno[2,3-<em>d</em>]pyrimidine",
    "duplicated_cas_no": "",
    "SMILES": "ClC1=C2C(=NC(Cl)=N1)SC=C2",
    "meta_data": {
        "InChI": "InChI=1S/C6H2Cl2N2S/c7-4-3-1-2-11-5(3)10-6(8)9-4/h1-2H",
        "InChIKey": null,
        "Canonical SMILES": "ClC=1N=C(Cl)C=2C=CSC2N1",
        "Molecular Formula": "C<sub>6</sub>H<sub>2</sub>Cl<sub>2</sub>N<sub>2</sub>S",
        "Molecular Mass": "205.06",
        "Melting Point": "161-162 °C"
    }
}