{
    "cas_no": "80866-82-6",
    "key_name": "5-Bromo-2-methoxybenzenemethanol",
    "cn_name": "5-溴-2-甲氧基苄基醇;",
    "alternate_name": "Benzenemethanol, 5-bromo-2-methoxy-;Benzyl alcohol, 5-bromo-2-methoxy-;5-Bromo-2-methoxybenzenemethanol;3-Bromo-6-methoxybenzyl alcohol;5-Bromo-2-methoxybenzyl alcohol;2-Methoxy-5-bromobenzyl alcohol;(5-Bromo-2-methoxyphenyl)methanol",
    "duplicated_cas_no": "",
    "SMILES": "O(C)C1=C(CO)C=C(Br)C=C1",
    "meta_data": {
        "InChI": "InChI=1S/C8H9BrO2/c1-11-8-3-2-7(9)4-6(8)5-10/h2-4,10H,5H2,1H3",
        "InChIKey": null,
        "Canonical SMILES": "BrC1=CC=C(OC)C(=C1)CO",
        "Molecular Formula": "C<sub>8</sub>H<sub>9</sub>BrO<sub>2</sub>",
        "Molecular Mass": "217.06",
        "Melting Point": "72 °C"
    }
}