{
    "cas_no": "625-04-7",
    "key_name": "4-Amino-4-methyl-2-pentanone",
    "cn_name": "双丙酮胺草酸盐;4-氨基-4-甲基-2-戊酮草酸盐;",
    "alternate_name": "2-Pentanone, 4-amino-4-methyl-;Diacetonamine;4-Amino-4-methyl-2-pentanone;2-Amino-2-methyl-4-pentanone;(1,1-Dimethyl-2-oxobutyl)amine",
    "duplicated_cas_no": "",
    "SMILES": "C(C(C)(C)N)C(C)=O",
    "meta_data": {
        "InChI": "InChI=1S/C6H13NO/c1-5(8)4-6(2,3)7/h4,7H2,1-3H3",
        "InChIKey": null,
        "Canonical SMILES": "O=C(C)CC(N)(C)C",
        "Molecular Formula": "C<sub>6</sub>H<sub>13</sub>NO",
        "Molecular Mass": "115.17",
        "Boiling Point": "180 °C",
        "Melting Point": "&lt;25 °C"
    }
}