{
    "cas_no": "1633-14-3",
    "key_name": "2,5-Dibromo-1,4-benzoquinone",
    "cn_name": "2,5-二溴-1,4-苯醌;二溴苯醌;",
    "alternate_name": "2,5-Cyclohexadiene-1,4-dione, 2,5-dibromo-;<em>p</em>-Benzoquinone, 2,5-dibromo-;Quinone, 2,5-dibromo-;2,5-Dibromo-2,5-cyclohexadiene-1,4-dione;2,5-Dibromo-1,4-benzoquinone;2,5-Dibromo-<em>p</em>-benzoquinone;2,5-Dibromoquinone;2,5-Dibromobenzoquinone",
    "duplicated_cas_no": "",
    "SMILES": "BrC=1C(=O)C=C(Br)C(=O)C1",
    "meta_data": {
        "InChI": "InChI=1S/C6H2Br2O2/c7-3-1-5(9)4(8)2-6(3)10/h1-2H",
        "InChIKey": null,
        "Canonical SMILES": "O=C1C=C(Br)C(=O)C=C1Br",
        "Molecular Formula": "C<sub>6</sub>H<sub>2</sub>Br<sub>2</sub>O<sub>2</sub>",
        "Molecular Mass": "265.89",
        "Melting Point": "188-189 °C"
    }
}