{
    "cas_no": "122-42-9",
    "key_name": "Propham",
    "cn_name": null,
    "alternate_name": "Carbamic acid, <em>N</em>-phenyl-, 1-methylethyl ester;Carbanilic acid, isopropyl ester;Carbamic acid, phenyl-, 1-methylethyl ester;Y 2;Chem-Hoe;IFK;INPC;IPC;Isopropyl carbanilate;Isopropyl phenylcarbamate;<em>O</em>-Isopropyl <em>N</em>-phenylcarbamate;Propham;Tuberit;Profam;Agermin;IPPC;Birgin;Collavin;Tixit;Isopropyl phenylurethane;Tuberite;<em>N</em>-Phenyl-<em>O</em>-isopropylurethane;NSC 2105",
    "duplicated_cas_no": "",
    "SMILES": "N(C(OC(C)C)=O)C1=CC=CC=C1",
    "meta_data": {
        "InChI": "InChI=1S/C10H13NO2/c1-8(2)13-10(12)11-9-6-4-3-5-7-9/h3-8H,1-2H3,(H,11,12)",
        "InChIKey": null,
        "Canonical SMILES": "O=C(OC(C)C)NC=1C=CC=CC1",
        "Molecular Formula": "C<sub>10</sub>H<sub>13</sub>NO<sub>2</sub>",
        "Molecular Mass": "179.22",
        "Melting Point": "90 °C",
        "Density": "1.09 g/cm³ @ Temp: 20 °C"
    }
}