{
    "cas_no": "62873-16-9",
    "key_name": "γ-Methyl-α-methylene-γ-butyrolactone",
    "cn_name": null,
    "alternate_name": "2(3<em>H</em>)-Furanone, dihydro-5-methyl-3-methylene-;Valeric acid, 4-hydroxy-2-methylene-, γ-lactone;Dihydro-5-methyl-3-methylene-2(3<em>H</em>)-furanone;NSC 272654;γ-Methyl-α-methylene-γ-butyrolactone;α-Methylene-γ-valerolactone;5-Methyl-3-methylidenedihydrofuran-2(3<em>H</em>)-one;α-Methylene-γ-methyl-γ-butyrolactone",
    "duplicated_cas_no": "82166-51-6",
    "SMILES": "C=C1C(=O)OC(C)C1",
    "meta_data": {
        "InChI": "InChI=1S/C6H8O2/c1-4-3-5(2)8-6(4)7/h5H,1,3H2,2H3",
        "InChIKey": null,
        "Canonical SMILES": "O=C1OC(C)CC1=C",
        "Molecular Formula": "C<sub>6</sub>H<sub>8</sub>O<sub>2</sub>",
        "Molecular Mass": "112.13",
        "Boiling Point": "33 °C @ Press: 0.02 Torr"
    }
}