{
    "cas_no": "6339-19-1",
    "key_name": "3(2<em>H</em>)-Pyridazinone, 5-amino-4-chloro-",
    "cn_name": null,
    "alternate_name": "3(2<em>H</em>)-Pyridazinone, 5-amino-4-chloro-;3-Pyridazinol, 5-amino-4-chloro-;5-Amino-4-chloro-3(2<em>H</em>)-pyridazinone;5-Amino-4-chloro-3(2<em>H</em>)-pyridazone;5-Amino-4-chloro-3-pyridazinone;4-Amino-5-chloropyridazin-6(1<em>H</em>)-one;NSC 38293",
    "duplicated_cas_no": "",
    "SMILES": "ClC1=C(N)C=NNC1=O",
    "meta_data": {
        "InChI": "InChI=1S/C4H4ClN3O/c5-3-2(6)1-7-8-4(3)9/h1H,(H3,6,8,9)",
        "InChIKey": null,
        "Canonical SMILES": "O=C1NN=CC(N)=C1Cl",
        "Molecular Formula": "C<sub>4</sub>H<sub>4</sub>ClN<sub>3</sub>O",
        "Molecular Mass": "145.55",
        "Melting Point": "292-294 °C"
    }
}