{
    "cas_no": "7440-47-3",
    "key_name": "Chromium",
    "cn_name": "铬;金属铬;",
    "alternate_name": "Chromium;Chrome;Chromium element;Alpaste RRA 030;Alpaste RRA 050;Sun Ti-Cr;BioChrome;BioChrome (feed additive);Dinakrome;SunshineBabe D 9;Lanxess BF;MeSH ID: D002857",
    "duplicated_cas_no": "188785-87-7;195161-82-1",
    "SMILES": "[Cr]",
    "meta_data": {
        "InChI": "InChI=1S/Cr",
        "InChIKey": null,
        "Canonical SMILES": "[Cr]",
        "Molecular Formula": "Cr",
        "Molecular Mass": "",
        "Boiling Point": "2642 °C",
        "Melting Point": "1900 °C",
        "Density": "7.14 g/cm³"
    }
}