{
    "cas_no": "86-56-6",
    "key_name": "<em>N</em>,<em>N</em>-Dimethyl-1-naphthylamine",
    "cn_name": "N,N-二甲基-1-萘胺;1-二甲氨基萘;",
    "alternate_name": "1-Naphthalenamine, <em>N</em>,<em>N</em>-dimethyl-;1-Naphthylamine, <em>N</em>,<em>N</em>-dimethyl-;<em>N</em>,<em>N</em>-Dimethyl-1-naphthalenamine;Dimethyl-α-naphthylamine;<em>N</em>,<em>N</em>-Dimethyl-α-naphthylamine;<em>N</em>,<em>N</em>-Dimethyl-1-naphthylamine;α-Dimethylaminonaphthalene;1-(Dimethylamino)naphthalene;Dimethyl(naphth-1-yl)amine;NSC 8713",
    "duplicated_cas_no": "",
    "SMILES": "N(C)(C)C=1C2=C(C=CC1)C=CC=C2",
    "meta_data": {
        "InChI": "InChI=1S/C12H13N/c1-13(2)12-9-5-7-10-6-3-4-8-11(10)12/h3-9H,1-2H3",
        "InChIKey": null,
        "Canonical SMILES": "C=1C=CC2=C(C1)C=CC=C2N(C)C",
        "Molecular Formula": "C<sub>12</sub>H<sub>13</sub>N",
        "Molecular Mass": "171.24",
        "Boiling Point": "280 °C",
        "Melting Point": "&lt;25 °C"
    }
}