{
    "cas_no": "112-80-1",
    "key_name": "Oleic acid",
    "cn_name": "油酸;顺式十八碳-9-烯酸;",
    "alternate_name": "9-Octadecenoic acid (9<em>Z</em>)-;Oleic acid;9-Octadecenoic acid (<em>Z</em>)-;(9<em>Z</em>)-9-Octadecenoic acid;<em>cis</em>-Δ<sup>9</sup>-Octadecenoic acid;<em>cis</em>-9-Octadecenoic acid;Vopcolene 27;Wecoline OO;Δ<sup>9</sup>-<em>cis</em>-Oleic acid;Pamolyn 100;Oleine 7503;<em>cis</em>-Oleic acid;<em>Z</em>-9-Octadecenoic acid;Emersol 211;9-Octadecenoic acid, (<em>Z</em>)-;Δ<sup>9</sup>-<em>cis</em>-Octadecenoic acid;9-<em>cis</em>-Octadecenoic acid;Industrene 105;C18:1;Lunac <em>O</em>-P;Lunac O-CA;Lunac O-LL;Priolene 6930;NAA 35;Extra Olein 80;Neo-Fat 92-04;Edenor ATiO<sub>5</sub>;Priolene 6907;Edenor FTiO<sub>5</sub>;Emersol 205;Extra Oleic 99;Emersol 6313NF;Emersol 213NF;Extra Olein 90R;Emersol 214NF;Extra Olein 99;Extra Oleic 90;Extra Oleic 80R;D 100;Priolene 6933;Emersol 233;D 100 (fatty acid);Priolene 6928;Priolene 6906;Lunac OA;9<em>Z</em>-Octadecenoic acid;NAA 38;Priolene 6204;Crossential O 94;Extra Olein A 1981;Lunac O-V;B 115;Crodacid O-P;Clear FRAC EF;Extra Olein 90;NAA 36;NAA 200;Lunac O-LL-V;Priolene 6936;Emersol 622;Lunac LO-V;C18:1n9c;Edenor C 18:1-98-100;PM 500;PM 810B;Extra Olein 80R;Palmera A 1813;Radiacid 0137;Lubolic acid;(18,9-Olefin) oleic acid;Impex;Radiacid 0212;POFAC 930;Priolene 6977;MeSH ID: D019301;Kortacid 1811;CU-A (catalyst);CU-A;OA 7075",
    "duplicated_cas_no": "8046-01-3;17156-84-2;56833-51-3;949900-16-7;1190712-11-8;1190965-71-9;1380514-02-2;2252262-80-7",
    "SMILES": "C(C/C=C\\CCCCCCCC)CCCCCC(O)=O",
    "meta_data": {
        "InChI": "InChI=1S/C18H34O2/c1-2-3-4-5-6-7-8-9-10-11-12-13-14-15-16-17-18(19)20/h9-10H,2-8,11-17H2,1H3,(H,19,20)/b10-9-",
        "InChIKey": null,
        "Canonical SMILES": "O=C(O)CCCCCCCC=CCCCCCCCC",
        "Molecular Formula": "C<sub>18</sub>H<sub>34</sub>O<sub>2</sub>",
        "Molecular Mass": "282.46",
        "Boiling Point": "286 °C @ Press: 100 Torr",
        "Melting Point": "16.3 °C",
        "Density": "0.895 g/cm³ @ Temp: 25 °C"
    }
}