{
    "cas_no": "600-00-0",
    "key_name": "Ethyl 2-bromoisobutyrate",
    "cn_name": "2-溴-2-甲基丙酸乙酯;2-溴异丁酸乙酯;",
    "alternate_name": "Propanoic acid, 2-bromo-2-methyl-, ethyl ester;Propionic acid, 2-bromo-2-methyl-, ethyl ester;Isobutyric acid, α-bromo-, Et ester;Ethyl α-bromoisobutyrate;Ethyl 2-bromoisobutyrate;Ethyl 2-bromo-2-methylpropionate;α-Bromoisobutyric acid ethyl ester;Ethyl 2-bromo-2-methylpropanoate;Ethyl α-bromo-α-methylpropionate;2-Bromo-2-methylpropionic acid ethyl ester;2-Bromo-2-methylpropanoic acid ethyl ester;NSC 402034;NSC 9465;2-Bromoisobutyric acid ethyl ester;2-Bromoisobutanoic acid ethyl ester;Ethyl 2-bromoisobutanoate;Ethyl 2-bromisobutyrate;Ebib;Ethyl 2-methyl-2-bromopropionate;Ethyl bromoisobutyrate",
    "duplicated_cas_no": "",
    "SMILES": "C(C(Br)(C)C)(OCC)=O",
    "meta_data": {
        "InChI": "InChI=1S/C6H11BrO2/c1-4-9-5(8)6(2,3)7/h4H2,1-3H3",
        "InChIKey": null,
        "Canonical SMILES": "O=C(OCC)C(Br)(C)C",
        "Molecular Formula": "C<sub>6</sub>H<sub>11</sub>BrO<sub>2</sub>",
        "Molecular Mass": "195.05",
        "Boiling Point": "163 °C"
    }
}