{
    "cas_no": "1529-65-3",
    "key_name": "1,3,5-Triethenyl-1,1,3,5,5-pentamethyltrisiloxane",
    "cn_name": null,
    "alternate_name": "Trisiloxane, 1,3,5-triethenyl-1,1,3,5,5-pentamethyl-;Trisiloxane, 1,1,3,5,5-pentamethyl-1,3,5-trivinyl-;1,3,5-Triethenyl-1,1,3,5,5-pentamethyltrisiloxane;1,1,3,5,5-Pentamethyl-1,3,5-trivinyltrisiloxane;1,3,5-Trivinylpentamethyltrisiloxane;1,3,5-Trivinyl-1,1,3,5,5-pentamethyltrisiloxane",
    "duplicated_cas_no": "",
    "SMILES": "[Si](O[Si](C=C)(C)C)(O[Si](C=C)(C)C)(C=C)C",
    "meta_data": {
        "InChI": "InChI=1S/C11H24O2Si3/c1-9-14(4,5)12-16(8,11-3)13-15(6,7)10-2/h9-11H,1-3H2,4-8H3",
        "InChIKey": null,
        "Canonical SMILES": "O([Si](O[Si](C=C)(C)C)(C=C)C)[Si](C=C)(C)C",
        "Molecular Formula": "C<sub>11</sub>H<sub>24</sub>O<sub>2</sub>Si<sub>3</sub>",
        "Molecular Mass": "272.56",
        "Boiling Point": "198-200 °C"
    }
}