{
    "cas_no": "7787-62-4",
    "key_name": "Bismuth fluoride (BiF<sub>5</sub>)",
    "cn_name": null,
    "alternate_name": "Bismuth fluoride (BiF<sub>5</sub>);Bismuth pentafluoride",
    "duplicated_cas_no": "",
    "SMILES": "[Bi](F)(F)(F)(F)F",
    "meta_data": {
        "InChI": "InChI=1S/Bi.5FH/h;5*1H/q+5;;;;;/p-5",
        "InChIKey": null,
        "Canonical SMILES": "F[Bi](F)(F)(F)F",
        "Molecular Formula": "BiF<sub>5</sub>",
        "Molecular Mass": "",
        "Boiling Point": "230 °C"
    }
}