{
    "cas_no": "16932-49-3",
    "key_name": "2,6-Dimethoxybenzonitrile",
    "cn_name": "2,6-二甲氧基苯甲腈;",
    "alternate_name": "Benzonitrile, 2,6-dimethoxy-;2,6-Dimethoxybenzonitrile;2-Cyano-3-methoxyanisole;NSC 27017",
    "duplicated_cas_no": "",
    "SMILES": "C(#N)C1=C(OC)C=CC=C1OC",
    "meta_data": {
        "InChI": "InChI=1S/C9H9NO2/c1-11-8-4-3-5-9(12-2)7(8)6-10/h3-5H,1-2H3",
        "InChIKey": null,
        "Canonical SMILES": "N#CC=1C(OC)=CC=CC1OC",
        "Molecular Formula": "C<sub>9</sub>H<sub>9</sub>NO<sub>2</sub>",
        "Molecular Mass": "163.17",
        "Boiling Point": "310 °C",
        "Melting Point": "119 °C"
    }
}