{
    "cas_no": "1465-76-5",
    "key_name": "1-<em>tert</em>-Butyl-4-piperidinone",
    "cn_name": null,
    "alternate_name": "4-Piperidinone, 1-(1,1-dimethylethyl)-;4-Piperidone, 1-<em>tert</em>-butyl-;1-(1,1-Dimethylethyl)-4-piperidinone;1-<em>tert</em>-Butyl-4-piperidinone;<em>N</em>-<em>tert</em>-Butyl-4-piperidone;1-<em>tert</em>-Butyl-4-piperidone;1-<em>tert</em>-Butyl-4-oxopiperidine;1-Tert-butylpiperidin-4-one;1-<em>tert</em>-Butylpiperidin-4-one",
    "duplicated_cas_no": "",
    "SMILES": "C(C)(C)(C)N1CCC(=O)CC1",
    "meta_data": {
        "InChI": "InChI=1S/C9H17NO/c1-9(2,3)10-6-4-8(11)5-7-10/h4-7H2,1-3H3",
        "InChIKey": null,
        "Canonical SMILES": "O=C1CCN(CC1)C(C)(C)C",
        "Molecular Formula": "C<sub>9</sub>H<sub>17</sub>NO",
        "Molecular Mass": "155.24",
        "Boiling Point": "82-84 °C @ Press: 7 Torr",
        "Melting Point": "92-94 °C (sublm) @ Press: 10 Torr"
    }
}