{
    "cas_no": "5669-19-2",
    "key_name": "2-Benzylacrylic acid",
    "cn_name": "2-苄基丙烯酸;",
    "alternate_name": "Benzenepropanoic acid, α-methylene-;Hydrocinnamic acid, α-methylene-;α-Methylenebenzenepropanoic acid;2-Benzylacrylic acid;α-Benzylacrylic acid;2-Methylene-3-phenylpropanoic acid;NSC 192640;2-Benzylprop-2-enoic acid",
    "duplicated_cas_no": "",
    "SMILES": "C(C(C(O)=O)=C)C1=CC=CC=C1",
    "meta_data": {
        "InChI": "InChI=1S/C10H10O2/c1-8(10(11)12)7-9-5-3-2-4-6-9/h2-6H,1,7H2,(H,11,12)",
        "InChIKey": null,
        "Canonical SMILES": "O=C(O)C(=C)CC=1C=CC=CC1",
        "Molecular Formula": "C<sub>10</sub>H<sub>10</sub>O<sub>2</sub>",
        "Molecular Mass": "162.19",
        "Boiling Point": "170-174 °C @ Press: 20 Torr",
        "Melting Point": "68-69 °C"
    }
}