{
    "cas_no": "14984-68-0",
    "key_name": "Cloperastine hydrochloride",
    "cn_name": "盐酸氯哌斯丁;",
    "alternate_name": "Piperidine, 1-[2-[(4-chlorophenyl)phenylmethoxy]ethyl]-, hydrochloride (1:1);Piperidine, 1-[2-[(<em>p</em>-chloro-α-phenylbenzyl)oxy]ethyl]-, hydrochloride;Piperidine, 1-[2-[(4-chlorophenyl)phenylmethoxy]ethyl]-, hydrochloride;<em>p</em>-Chlorobenzhydryl 2-(1-piperidyl)ethyl ether hydrochloride;HT 11;Hustazol;Cloperastine hydrochloride;Seki;Nitossil;Novotusil",
    "duplicated_cas_no": "",
    "SMILES": "C(OCCN1CCCCC1)(C2=CC=C(Cl)C=C2)C3=CC=CC=C3.Cl",
    "meta_data": {
        "InChI": "InChI=1S/C20H24ClNO.ClH/c21-19-11-9-18(10-12-19)20(17-7-3-1-4-8-17)23-16-15-22-13-5-2-6-14-22;/h1,3-4,7-12,20H,2,5-6,13-16H2;1H",
        "InChIKey": null,
        "Canonical SMILES": "Cl.ClC1=CC=C(C=C1)C(OCCN2CCCCC2)C=3C=CC=CC3",
        "Molecular Formula": "C<sub>20</sub>H<sub>24</sub>ClNO.ClH",
        "Molecular Mass": "",
        "Melting Point": "147.9 °C"
    }
}