{
    "cas_no": "27472-21-5",
    "key_name": "3,4-Diethoxybenzeneacetonitrile",
    "cn_name": "3,4-二乙氧基苯乙腈;",
    "alternate_name": "Benzeneacetonitrile, 3,4-diethoxy-;Acetonitrile, (3,4-diethoxyphenyl)-;3,4-Diethoxybenzeneacetonitrile;3,4-Diethoxyphenylacetonitrile;3,4-Diethoxybenzyl cyanide;2-(3,4-Diethoxyphenyl)acetonitrile",
    "duplicated_cas_no": "",
    "SMILES": "O(CC)C1=C(OCC)C=CC(CC#N)=C1",
    "meta_data": {
        "InChI": "InChI=1S/C12H15NO2/c1-3-14-11-6-5-10(7-8-13)9-12(11)15-4-2/h5-6,9H,3-4,7H2,1-2H3",
        "InChIKey": null,
        "Canonical SMILES": "N#CCC1=CC=C(OCC)C(OCC)=C1",
        "Molecular Formula": "C<sub>12</sub>H<sub>15</sub>NO<sub>2</sub>",
        "Molecular Mass": "205.25",
        "Boiling Point": "175-180 °C",
        "Melting Point": "37 °C"
    }
}