{
    "cas_no": "103-93-5",
    "key_name": "4-Methylphenyl 2-methylpropanoate",
    "cn_name": "异丁酸对甲苯酯;2-甲基丙酸-4-甲基苯酯;",
    "alternate_name": "Propanoic acid, 2-methyl-, 4-methylphenyl ester;Isobutyric acid, <em>p</em>-tolyl ester;4-Methylphenyl 2-methylpropanoate;<em>p</em>-Cresyl isobutyrate;<em>p</em>-Tolyl isobutyrate;<em>p</em>-Methylphenyl isobutyrate;2-Methylpropanoic acid 4-methylphenyl ester;(4-Methylphenyl) 2-methylpropanoate",
    "duplicated_cas_no": "",
    "SMILES": "O(C(C(C)C)=O)C1=CC=C(C)C=C1",
    "meta_data": {
        "InChI": "InChI=1S/C11H14O2/c1-8(2)11(12)13-10-6-4-9(3)5-7-10/h4-8H,1-3H3",
        "InChIKey": null,
        "Canonical SMILES": "O=C(OC1=CC=C(C=C1)C)C(C)C",
        "Molecular Formula": "C<sub>11</sub>H<sub>14</sub>O<sub>2</sub>",
        "Molecular Mass": "178.23",
        "Boiling Point": "237 °C"
    }
}