{
    "cas_no": "76801-93-9",
    "key_name": "5-Amino-<em>N</em>,<em>N</em>′-bis(2,3-dihydroxypropyl)-2,4,6-triiodoisophthalamide",
    "cn_name": null,
    "alternate_name": "1,3-Benzenedicarboxamide, 5-amino-<em>N</em><sup>1</sup>,<em>N</em><sup>3</sup>-bis(2,3-dihydroxypropyl)-2,4,6-triiodo-;1,3-Benzenedicarboxamide, 5-amino-<em>N</em>,<em>N</em>′-bis(2,3-dihydroxypropyl)-2,4,6-triiodo-;5-Amino-<em>N</em><sup>1</sup>,<em>N</em><sup>3</sup>-bis(2,3-dihydroxypropyl)-2,4,6-triiodo-1,3-benzenedicarboxamide;5-Amino-<em>N</em>,<em>N</em>′-bis(2,3-dihydroxypropyl)-2,4,6-triiodoisophthalamide;3,5-Bis(2,3-dihydroxypropylaminocarbonyl)-2,4,6-triiodoaniline;5-Amino-2,4,6-triiodo-<em>N</em>,<em>N</em>′-bis(2,3-dihydroxypropyl)isophthalamide",
    "duplicated_cas_no": "",
    "SMILES": "C(NCC(CO)O)(=O)C1=C(I)C(C(NCC(CO)O)=O)=C(I)C(N)=C1I",
    "meta_data": {
        "InChI": "InChI=1S/C14H18I3N3O6/c15-9-7(13(25)19-1-5(23)3-21)10(16)12(18)11(17)8(9)14(26)20-2-6(24)4-22/h5-6,21-24H,1-4,18H2,(H,19,25)(H,20,26)",
        "InChIKey": null,
        "Canonical SMILES": "O=C(NCC(O)CO)C1=C(I)C(N)=C(I)C(C(=O)NCC(O)CO)=C1I",
        "Molecular Formula": "C<sub>14</sub>H<sub>18</sub>I<sub>3</sub>N<sub>3</sub>O<sub>6</sub>",
        "Molecular Mass": "705.02",
        "Melting Point": "195 °C (decomp)"
    }
}