{
    "cas_no": "2196-14-7",
    "key_name": "7,4′-Dihydroxyflavone",
    "cn_name": null,
    "alternate_name": "4<em>H</em>-1-Benzopyran-4-one, 7-hydroxy-2-(4-hydroxyphenyl)-;Flavone, 4′,7-dihydroxy-;7-Hydroxy-2-(4-hydroxyphenyl)-4<em>H</em>-1-benzopyran-4-one;7,4′-Dihydroxyflavone;4′,7-Dihydroxyflavone;7-Hydroxy-2-(4-Hydroxyphenyl)chromen-4-one;Kumatakenin B;7-Hydroxy-2-(4-hydroxyphenyl)-4<em>H</em>-chromen-4-one;Daizein",
    "duplicated_cas_no": "",
    "SMILES": "O=C1C=2C(OC(=C1)C3=CC=C(O)C=C3)=CC(O)=CC2",
    "meta_data": {
        "InChI": "InChI=1S/C15H10O4/c16-10-3-1-9(2-4-10)14-8-13(18)12-6-5-11(17)7-15(12)19-14/h1-8,16-17H",
        "InChIKey": null,
        "Canonical SMILES": "O=C1C=C(OC2=CC(O)=CC=C12)C=3C=CC(O)=CC3",
        "Molecular Formula": "C<sub>15</sub>H<sub>10</sub>O<sub>4</sub>",
        "Molecular Mass": "254.24",
        "Melting Point": "315 °C"
    }
}