{
    "cas_no": "98-14-6",
    "key_name": "(4-Hydroxyphenyl)arsonic acid",
    "cn_name": "对羟基苯胂酸;对砷酸酚;",
    "alternate_name": "Arsonic acid, <em>As</em>-(4-hydroxyphenyl)-;Benzenearsonic acid, <em>p</em>-hydroxy-;Arsonic acid, (4-hydroxyphenyl)-;<em>As</em>-(4-Hydroxyphenyl)arsonic acid;<em>p</em>-Hydroxybenzenearsonic acid;(4-Hydroxyphenyl)arsonic acid;Oxarsanilic acid;Phenol-<em>p</em>-arsonic acid;4-Hydroxybenzenearsonic acid;(<em>p</em>-Hydroxyphenyl)arsonic acid;NSC 1943",
    "duplicated_cas_no": "535-57-9",
    "SMILES": "[As](=O)(O)(O)C1=CC=C(O)C=C1",
    "meta_data": {
        "InChI": "InChI=1S/C6H7AsO4/c8-6-3-1-5(2-4-6)7(9,10)11/h1-4,8H,(H2,9,10,11)",
        "InChIKey": null,
        "Canonical SMILES": "O=[As](O)(O)C1=CC=C(O)C=C1",
        "Molecular Formula": "C<sub>6</sub>H<sub>7</sub>AsO<sub>4</sub>",
        "Molecular Mass": "218.04",
        "Melting Point": "170-174 °C"
    }
}