{
    "cas_no": "3469-00-9",
    "key_name": "Methyl α-phenylbenzeneacetate",
    "cn_name": null,
    "alternate_name": "Benzeneacetic acid, α-phenyl-, methyl ester;Acetic acid, diphenyl-, methyl ester;Methyl α-phenylbenzeneacetate;Diphenylacetic acid, methyl ester;Methyl diphenylacetate;Methyl 2,2-diphenylacetate;NSC 120416;NSC 27912",
    "duplicated_cas_no": "",
    "SMILES": "C(C(OC)=O)(C1=CC=CC=C1)C2=CC=CC=C2",
    "meta_data": {
        "InChI": "InChI=1S/C15H14O2/c1-17-15(16)14(12-8-4-2-5-9-12)13-10-6-3-7-11-13/h2-11,14H,1H3",
        "InChIKey": null,
        "Canonical SMILES": "O=C(OC)C(C=1C=CC=CC1)C=2C=CC=CC2",
        "Molecular Formula": "C<sub>15</sub>H<sub>14</sub>O<sub>2</sub>",
        "Molecular Mass": "226.27",
        "Boiling Point": "136-141 °C @ Press: 0.8 Torr",
        "Melting Point": "39-43 °C"
    }
}