{
    "cas_no": "123-62-6",
    "key_name": "Propionic anhydride",
    "cn_name": "丙酸酐;丙酐;",
    "alternate_name": "Propanoic acid, 1,1′-anhydride;Propanoic acid, anhydride;Propionic anhydride;Methylacetic anhydride;Propanoic anhydride;Propionic acid anhydride;Propionyl oxide;Propionyl anhydride;Propanoyl propanoate",
    "duplicated_cas_no": "",
    "SMILES": "O(C(CC)=O)C(CC)=O",
    "meta_data": {
        "InChI": "InChI=1S/C6H10O3/c1-3-5(7)9-6(8)4-2/h3-4H2,1-2H3",
        "InChIKey": null,
        "Canonical SMILES": "O=C(OC(=O)CC)CC",
        "Molecular Formula": "C<sub>6</sub>H<sub>10</sub>O<sub>3</sub>",
        "Molecular Mass": "130.14",
        "Boiling Point": "167.0 °C @ Press: 760 Torr",
        "Melting Point": "-45 °C",
        "Density": "1.01 g/cm³"
    }
}