{
    "cas_no": "36894-69-6",
    "key_name": "Labetalol",
    "cn_name": "拉贝洛尔;2-羟基-5-{1-羟基-2-[(1-甲基-3-苯基丙基)氨基]乙基}苯甲酰胺;",
    "alternate_name": "Benzamide, 2-hydroxy-5-[1-hydroxy-2-[(1-methyl-3-phenylpropyl)amino]ethyl]-;2-Hydroxy-5-[1-hydroxy-2-[(1-methyl-3-phenylpropyl)amino]ethyl]benzamide;AH 5158;Labetalol;Albetol;Ibidomide;(±)-Labetalol;2-Hydroxy-5-[1-hydroxy-2-(4-phenylbutan-2-ylamino)ethyl]benzamide;2-Hydroxy-5-(1-hydroxy-2-((4-phenylbutan-2-yl)amino)ethyl)benzamide;MeSH ID: D007741",
    "duplicated_cas_no": "",
    "SMILES": "C(CNC(CCC1=CC=CC=C1)C)(O)C2=CC(C(N)=O)=C(O)C=C2",
    "meta_data": {
        "InChI": "InChI=1S/C19H24N2O3/c1-13(7-8-14-5-3-2-4-6-14)21-12-18(23)15-9-10-17(22)16(11-15)19(20)24/h2-6,9-11,13,18,21-23H,7-8,12H2,1H3,(H2,20,24)",
        "InChIKey": null,
        "Canonical SMILES": "O=C(N)C1=CC(=CC=C1O)C(O)CNC(C)CCC=2C=CC=CC2",
        "Molecular Formula": "C<sub>19</sub>H<sub>24</sub>N<sub>2</sub>O<sub>3</sub>",
        "Molecular Mass": "328.41",
        "Melting Point": "188 °C"
    }
}