{
    "cas_no": "320-76-3",
    "key_name": "4-Bromo-2-fluoro-6-nitrophenol",
    "cn_name": "4-溴-2-氟-6-硝基苯酚;",
    "alternate_name": "Phenol, 4-bromo-2-fluoro-6-nitro-;4-Bromo-2-fluoro-6-nitrophenol;2-Fluoro-4-bromo-6-nitrophenol",
    "duplicated_cas_no": "",
    "SMILES": "N(=O)(=O)C1=C(O)C(F)=CC(Br)=C1",
    "meta_data": {
        "InChI": "InChI=1S/C6H3BrFNO3/c7-3-1-4(8)6(10)5(2-3)9(11)12/h1-2,10H",
        "InChIKey": null,
        "Canonical SMILES": "O=N(=O)C1=CC(Br)=CC(F)=C1O",
        "Molecular Formula": "C<sub>6</sub>H<sub>3</sub>BrFNO<sub>3</sub>",
        "Molecular Mass": "236.00",
        "Melting Point": "62 °C"
    }
}