{
    "cas_no": "10102-24-6",
    "key_name": "Lithium metasilicate",
    "cn_name": "硅酸二锂盐;硅酸锂;",
    "alternate_name": "Silicic acid (H<sub>2</sub>SiO<sub>3</sub>), lithium salt (1:2);Silicic acid (H<sub>2</sub>SiO<sub>3</sub>), dilithium salt;Lithium silicate (Li<sub>2</sub>SiO<sub>3</sub>);Lithium metasilicate;Lithium silicate;Dilithium silicate (Li<sub>2</sub>SiO<sub>3</sub>);Lithium silicon oxide (Li<sub>2</sub>SiO<sub>3</sub>);Lithium metasilicate (Li<sub>2</sub>SiO<sub>3</sub>);Dilithium metasilicate;A-ED 3",
    "duplicated_cas_no": "1189978-77-5;1779572-75-6;2249955-15-3;2259880-24-3;2412660-22-9;2739051-59-1;2815279-64-0",
    "SMILES": "[Si](O)(O)=O.[Li]",
    "meta_data": {
        "InChI": "InChI=1S/2Li.H2O3Si/c;;1-4(2)3/h;;1-2H",
        "InChIKey": null,
        "Canonical SMILES": "[Li].O=[Si](O)O",
        "Molecular Formula": "H<sub>2</sub>O<sub>3</sub>Si.2Li",
        "Molecular Mass": "",
        "Melting Point": "1204 °C",
        "Density": "2.52 g/cm³"
    }
}