{
    "cas_no": "538-86-3",
    "key_name": "Benzyl methyl ether",
    "cn_name": "苄甲醚;苄基甲基醚;",
    "alternate_name": "Benzene, (methoxymethyl)-;Ether, benzyl methyl;(Methoxymethyl)benzene;Benzyl methyl ether;Methyl benzyl ether;α-Methoxytoluene;NSC 8058;1-(Methoxymethyl)benzene",
    "duplicated_cas_no": "",
    "SMILES": "C(OC)C1=CC=CC=C1",
    "meta_data": {
        "InChI": "InChI=1S/C8H10O/c1-9-7-8-5-3-2-4-6-8/h2-6H,7H2,1H3",
        "InChIKey": null,
        "Canonical SMILES": "O(C)CC=1C=CC=CC1",
        "Molecular Formula": "C<sub>8</sub>H<sub>10</sub>O",
        "Molecular Mass": "122.16",
        "Boiling Point": "170 °C",
        "Melting Point": "-52.6 °C",
        "Density": "0.9634 g/cm³"
    }
}