{
    "cas_no": "452-80-2",
    "key_name": "2-Fluoro-4-methylaniline",
    "cn_name": "2-氟-4-甲基苯胺;3-氟-4-氨基甲苯;",
    "alternate_name": "Benzenamine, 2-fluoro-4-methyl-;<em>p</em>-Toluidine, 2-fluoro-;2-Fluoro-4-methylbenzenamine;2-Fluoro-<em>p</em>-toluidine;4-Amino-3-fluorotoluene;4-Methyl-2-fluoroaniline;2-Fluoro-4-methylaniline;(2-Fluoro-4-methylphenyl)amine;NSC 147489",
    "duplicated_cas_no": "",
    "SMILES": "FC1=C(N)C=CC(C)=C1",
    "meta_data": {
        "InChI": "InChI=1S/C7H8FN/c1-5-2-3-7(9)6(8)4-5/h2-4H,9H2,1H3",
        "InChIKey": null,
        "Canonical SMILES": "FC1=CC(=CC=C1N)C",
        "Molecular Formula": "C<sub>7</sub>H<sub>8</sub>FN",
        "Molecular Mass": "125.14",
        "Boiling Point": "70-71 °C @ Press: 7 Torr",
        "Melting Point": "3.2-3.5 °C",
        "Density": "1.1084 g/cm³ @ Temp: 18 °C"
    }
}