{
    "cas_no": "766-36-9",
    "key_name": "3-Ethyl-1,5-dihydro-4-methyl-2<em>H</em>-pyrrol-2-one",
    "cn_name": "3-乙基-4-甲基-3-吡咯啉-2-酮;",
    "alternate_name": "2<em>H</em>-Pyrrol-2-one, 3-ethyl-1,5-dihydro-4-methyl-;3-Pyrrolin-2-one, 3-ethyl-4-methyl-;3-Ethyl-1,5-dihydro-4-methyl-2<em>H</em>-pyrrol-2-one;3-Ethyl-4-methyl-3-pyrrolin-2-one;3-Ethyl-4-methyl-2-oxo-3-pyrroline;3-Ethyl-4-methyl-1,5-dihydropyrrol-2-one;3-Ethyl-4-methylpyrrolin-2-one;3-Ethyl-4-methyl-2,5-dihydro-1<em>H</em>-pyrrol-2-one;3-Ethyl-1,2-dihydro-4-methyl-5<em>H</em>-pyrrol-2-one",
    "duplicated_cas_no": "",
    "SMILES": "C(C)C1=C(C)CNC1=O",
    "meta_data": {
        "InChI": "InChI=1S/C7H11NO/c1-3-6-5(2)4-8-7(6)9/h3-4H2,1-2H3,(H,8,9)",
        "InChIKey": null,
        "Canonical SMILES": "O=C1NCC(=C1CC)C",
        "Molecular Formula": "C<sub>7</sub>H<sub>11</sub>NO",
        "Molecular Mass": "125.17",
        "Melting Point": "100-101 °C"
    }
}