{
    "cas_no": "1586-00-1",
    "key_name": "2-(Phenylmethyl)benzenemethanol",
    "cn_name": null,
    "alternate_name": "Benzenemethanol, 2-(phenylmethyl)-;Benzyl alcohol, <em>o</em>-benzyl-;2-(Phenylmethyl)benzenemethanol;<em>o</em>-Hydroxymethyldiphenylmethane;2-Benzylbenzyl alcohol;NSC 405651;(2-Benzylphenyl)methanol",
    "duplicated_cas_no": "",
    "SMILES": "C(C1=C(CO)C=CC=C1)C2=CC=CC=C2",
    "meta_data": {
        "InChI": "InChI=1S/C14H14O/c15-11-14-9-5-4-8-13(14)10-12-6-2-1-3-7-12/h1-9,15H,10-11H2",
        "InChIKey": null,
        "Canonical SMILES": "OCC=1C=CC=CC1CC=2C=CC=CC2",
        "Molecular Formula": "C<sub>14</sub>H<sub>14</sub>O",
        "Molecular Mass": "198.26",
        "Boiling Point": "197-199 °C @ Press: 19 Torr",
        "Melting Point": "40-41 °C"
    }
}