{
    "cas_no": "18787-64-9",
    "key_name": "3-Hexadecanone",
    "cn_name": "3-十六酮;",
    "alternate_name": "3-Hexadecanone;NSC 158511;Cetan-3-one",
    "duplicated_cas_no": "",
    "SMILES": "C(CCC(CC)=O)CCCCCCCCCC",
    "meta_data": {
        "InChI": "InChI=1S/C16H32O/c1-3-5-6-7-8-9-10-11-12-13-14-15-16(17)4-2/h3-15H2,1-2H3",
        "InChIKey": null,
        "Canonical SMILES": "O=C(CC)CCCCCCCCCCCCC",
        "Molecular Formula": "C<sub>16</sub>H<sub>32</sub>O",
        "Molecular Mass": "240.42",
        "Boiling Point": "184 °C @ Press: 17 Torr",
        "Melting Point": "43 °C"
    }
}