{
    "cas_no": "26177-44-6",
    "key_name": "4-Bromobenzylamine hydrochloride",
    "cn_name": null,
    "alternate_name": "Benzenemethanamine, 4-bromo-, hydrochloride (1:1);Benzylamine, <em>p</em>-bromo-, hydrochloride;Benzenemethanamine, 4-bromo-, hydrochloride;4-Bromobenzylammonium chloride;<em>p</em>-Bromobenzylamine hydrochloride;4-Bromobenzylamine hydrochloride;4-Bromobenzylamine monohydrochloride;(4-Bromophenyl)methanamine hydrochloride;(4-Bromophenyl)methanaminium chloride",
    "duplicated_cas_no": "",
    "SMILES": "C(N)C1=CC=C(Br)C=C1.Cl",
    "meta_data": {
        "InChI": "InChI=1S/C7H8BrN.ClH/c8-7-3-1-6(5-9)2-4-7;/h1-4H,5,9H2;1H",
        "InChIKey": null,
        "Canonical SMILES": "Cl.BrC1=CC=C(C=C1)CN",
        "Molecular Formula": "C<sub>7</sub>H<sub>8</sub>BrN.ClH",
        "Molecular Mass": "",
        "Melting Point": "267-270 °C"
    }
}