{
    "cas_no": "34010-21-4",
    "key_name": "(<em>Z</em>)-11-Hexadecenyl acetate",
    "cn_name": "(Z)-11-十六碳烯-1-乙酸盐;",
    "alternate_name": "11-Hexadecen-1-ol, 1-acetate, (11<em>Z</em>)-;11-Hexadecen-1-ol, acetate, (<em>Z</em>)-;11-Hexadecen-1-ol, acetate, (11<em>Z</em>)-;<em>cis</em>-11-Hexadecenyl acetate;<em>cis</em>-11-Hexadecen-1-ol acetate;<em>cis</em>-11-Hexadecen-1-yl acetate;(<em>Z</em>)-11-Hexadecenyl acetate;(<em>Z</em>)-11-Hexadecen-1-ol acetate;(<em>Z</em>)-11-Hexadecen-1-yl acetate;1-Acetoxy-(<em>Z</em>)-11-hexadecene;Z11-16:Ac;(Z)-11-Hexadecen-1-yl acetate;(11<em>Z</em>)-11-Hexadecen-1-ol acetate",
    "duplicated_cas_no": "",
    "SMILES": "C(CCCCC/C=C\\CCCC)CCCCOC(C)=O",
    "meta_data": {
        "InChI": "InChI=1S/C18H34O2/c1-3-4-5-6-7-8-9-10-11-12-13-14-15-16-17-20-18(2)19/h6-7H,3-5,8-17H2,1-2H3/b7-6-",
        "InChIKey": null,
        "Canonical SMILES": "O=C(OCCCCCCCCCCC=CCCCC)C",
        "Molecular Formula": "C<sub>18</sub>H<sub>34</sub>O<sub>2</sub>",
        "Molecular Mass": "282.46",
        "Boiling Point": "131 °C @ Press: 0.02 Torr"
    }
}