{
    "cas_no": "50615-66-2",
    "key_name": "β-<span class=\"text-smallcaps\">D</span>-Galactopyranose, 1-thio-, 2,3,4,6-tetraacetate",
    "cn_name": null,
    "alternate_name": "β-<span class=\"text-smallcaps\">D</span>-Galactopyranose, 1-thio-, 2,3,4,6-tetraacetate;Galactopyranose, 1-thio-, 2,3,4,6-tetraacetate;2,3,4,6-Tetra-<em>O</em>-acetyl-1-thio-β-<span class=\"text-smallcaps\">D</span>-galactopyranose;2,3,4,6-Tetra-<em>O</em>-acetyl-β-<span class=\"text-smallcaps\">D</span>-1-thioglacatopyranoside",
    "duplicated_cas_no": "",
    "SMILES": "O(C(C)=O)[C@H]1[C@@H](OC(C)=O)[C@@H](COC(C)=O)O[C@@H](S)[C@@H]1OC(C)=O",
    "meta_data": {
        "InChI": "InChI=1S/C14H20O9S/c1-6(15)19-5-10-11(20-7(2)16)12(21-8(3)17)13(14(24)23-10)22-9(4)18/h10-14,24H,5H2,1-4H3/t10-,11+,12+,13-,14+/m1/s1",
        "InChIKey": null,
        "Canonical SMILES": "O=C(OCC1OC(S)C(OC(=O)C)C(OC(=O)C)C1OC(=O)C)C",
        "Molecular Formula": "C<sub>14</sub>H<sub>20</sub>O<sub>9</sub>S",
        "Molecular Mass": "364.37",
        "Melting Point": "83 °C"
    }
}