{
    "cas_no": "618-88-2",
    "key_name": "5-Nitroisophthalic acid",
    "cn_name": "5-硝基异酞酸;5-硝基间苯二甲酸;",
    "alternate_name": "1,3-Benzenedicarboxylic acid, 5-nitro-;Isophthalic acid, 5-nitro-;5-Nitro-1,3-benzenedicarboxylic acid;5-Nitroisophthalic acid;1-Nitrobenzene-3,5-dicarboxylic acid;5-Nitro-<em>m</em>-phthalic acid;NSC 66545",
    "duplicated_cas_no": "",
    "SMILES": "C(O)(=O)C1=CC(C(O)=O)=CC(N(=O)=O)=C1",
    "meta_data": {
        "InChI": "InChI=1S/C8H5NO6/c10-7(11)4-1-5(8(12)13)3-6(2-4)9(14)15/h1-3H,(H,10,11)(H,12,13)",
        "InChIKey": null,
        "Canonical SMILES": "O=C(O)C=1C=C(C=C(C1)N(=O)=O)C(=O)O",
        "Molecular Formula": "C<sub>8</sub>H<sub>5</sub>NO<sub>6</sub>",
        "Molecular Mass": "211.13",
        "Melting Point": "255-256 °C"
    }
}