{
    "cas_no": "2437-25-4",
    "key_name": "Dodecanenitrile",
    "cn_name": "十二腈;月桂腈;",
    "alternate_name": "Dodecanenitrile;Lauronitrile;Dodecanonitrile;Decylacetonitrile;Lauric nitrile;Undecyl cyanide;Lauric acid nitrile;<em>n</em>-Dodecanonitrile;1-Cyanoundecane;NSC 1804;Arneel 12;Lauryl nitrile",
    "duplicated_cas_no": "891491-24-0",
    "SMILES": "C(CCCCCC)CCCCC#N",
    "meta_data": {
        "InChI": "InChI=1S/C12H23N/c1-2-3-4-5-6-7-8-9-10-11-12-13/h2-11H2,1H3",
        "InChIKey": null,
        "Canonical SMILES": "N#CCCCCCCCCCCC",
        "Molecular Formula": "C<sub>12</sub>H<sub>23</sub>N",
        "Molecular Mass": "181.32",
        "Boiling Point": "277 °C",
        "Melting Point": "4 °C"
    }
}