{
    "cas_no": "4673-26-1",
    "key_name": "Diphenyleneiodonium chloride",
    "cn_name": "二苯基氯化碘盐;",
    "alternate_name": "Dibenziodolium, chloride (1:1);Dibenziodolium, chloride;Dibenziodolium chloride;Diphenyleneiodonium chloride",
    "duplicated_cas_no": "1190008-57-1",
    "SMILES": "C1=2C=3C([I+]C1=CC=CC2)=CC=CC3.[Cl-]",
    "meta_data": {
        "InChI": "InChI=1S/C12H8I.ClH/c1-3-7-11-9(5-1)10-6-2-4-8-12(10)13-11;/h1-8H;1H/q+1;/p-1",
        "InChIKey": null,
        "Canonical SMILES": "[Cl-].[I+]1C=2C=CC=CC2C=3C=CC=CC13",
        "Molecular Formula": "C<sub>12</sub>H<sub>8</sub>I.Cl",
        "Molecular Mass": "",
        "Melting Point": "237-240 °C"
    }
}