{
    "cas_no": "10506-37-3",
    "key_name": "Carbonochloridothioic acid, <em>O</em>-2-naphthalenyl ester",
    "cn_name": "硫代氯甲酸-2-萘酯;",
    "alternate_name": "Carbonochloridothioic acid, <em>O</em>-2-naphthalenyl ester;Formic acid, chlorothio-, <em>O</em>-2-naphthyl ester;<em>O</em>-2-Naphthyl chlorothioformate;<em>O</em>-(β-Naphthyl) thiocarbonic acid chloride;<em>O</em>-2-Naphthalenyl carbonochloridothioate;2-Naphthyl chlorothioformate",
    "duplicated_cas_no": "",
    "SMILES": "O(C(Cl)=S)C1=CC2=C(C=C1)C=CC=C2",
    "meta_data": {
        "InChI": "InChI=1S/C11H7ClOS/c12-11(14)13-10-6-5-8-3-1-2-4-9(8)7-10/h1-7H",
        "InChIKey": null,
        "Canonical SMILES": "S=C(Cl)OC=1C=CC=2C=CC=CC2C1",
        "Molecular Formula": "C<sub>11</sub>H<sub>7</sub>ClOS",
        "Molecular Mass": "222.69",
        "Melting Point": "76-77 °C"
    }
}