{
    "cas_no": "3647-74-3",
    "key_name": "3a,4,7,7a-Tetrahydro-4,7-methano-1<em>H</em>-isoindole-1,3(2<em>H</em>)-dione",
    "cn_name": "5-降冰片烯-2,3-二甲酰亚胺;5-降冰片烯-2,3-二甲酰亚胺;",
    "alternate_name": "4,7-Methano-1<em>H</em>-isoindole-1,3(2<em>H</em>)-dione, 3a,4,7,7a-tetrahydro-;5-Norbornene-2,3-dicarboximide;3a,4,7,7a-Tetrahydro-4,7-methano-1<em>H</em>-isoindole-1,3(2<em>H</em>)-dione;3,6-Endomethylenetetrahydrophthalimide;3,6-Endomethylenephthalimide, 1,2,3,6-tetrahydro-;3,6-Endomethylene-4-cyclohexene-1,2-dicarboximide;Bicyclo[2.2.1]hept-5-ene-2,3-dicarboximide;<em>cis</em>-3,6-Endomethylene-Δ<sup>4</sup>-tetrahydrophthalimide;NSC 147237;3a,4,7,7a-Tetrahydro-1<em>H</em>-4,7-methanoisoindole-1,3(2<em>H</em>)-dione",
    "duplicated_cas_no": "",
    "SMILES": "O=C1C2C(C3CC2C=C3)C(=O)N1",
    "meta_data": {
        "InChI": "InChI=1S/C9H9NO2/c11-8-6-4-1-2-5(3-4)7(6)9(12)10-8/h1-2,4-7H,3H2,(H,10,11,12)",
        "InChIKey": null,
        "Canonical SMILES": "O=C1NC(=O)C2C3C=CC(C3)C12",
        "Molecular Formula": "C<sub>9</sub>H<sub>9</sub>NO<sub>2</sub>",
        "Molecular Mass": "163.17",
        "Melting Point": "187 °C"
    }
}