{
    "cas_no": "471-69-2",
    "key_name": "Dipterocarpol",
    "cn_name": "龙脑香醇酮;龙脑香醇酮;",
    "alternate_name": "Dammar-24-en-3-one, 20-hydroxy-;Dipterocarpol;Dammar-24-en-3-one, 20-hydroxy-, (20<em>S</em>)-;20-Hydroxydammar-24-en-3-one;Hydroxydammarenone II;NSC 732192;(20S)-Hydroxydammar-24-en-3-one",
    "duplicated_cas_no": "",
    "SMILES": "C[C@]12[C@@]([C@]3(C)[C@@](CC1)(C(C)(C)C(=O)CC3)[H])(CC[C@]4([C@@]2(C)CC[C@@]4([C@@](CCC=C(C)C)(C)O)[H])[H])[H]",
    "meta_data": {
        "InChI": "InChI=1S/C30H50O2/c1-20(2)10-9-16-30(8,32)22-13-18-28(6)21(22)11-12-24-27(5)17-15-25(31)26(3,4)23(27)14-19-29(24,28)7/h10,21-24,32H,9,11-19H2,1-8H3/t21-,22+,23+,24-,27+,28-,29-,30+/m1/s1",
        "InChIKey": null,
        "Canonical SMILES": "O=C1CCC2(C)C(CCC3(C)C2CCC4C(CCC43C)C(O)(C)CCC=C(C)C)C1(C)C",
        "Molecular Formula": "C<sub>30</sub>H<sub>50</sub>O<sub>2</sub>",
        "Molecular Mass": "442.72",
        "Melting Point": "134-135 °C"
    }
}