{
    "cas_no": "1011-15-0",
    "key_name": "1-(2-Fluorophenyl)piperazine",
    "cn_name": "1-(2-氟苯基)哌嗪;",
    "alternate_name": "Piperazine, 1-(2-fluorophenyl)-;Piperazine, 1-(<em>o</em>-fluorophenyl)-;1-(2-Fluorophenyl)piperazine;<em>N</em>-(2-Fluorophenyl)piperazine;1-(<em>o</em>-Fluorophenyl)piperazine;4-(2-Fluorophenyl)piperazine",
    "duplicated_cas_no": "",
    "SMILES": "FC1=C(N2CCNCC2)C=CC=C1",
    "meta_data": {
        "InChI": "InChI=1S/C10H13FN2/c11-9-3-1-2-4-10(9)13-7-5-12-6-8-13/h1-4,12H,5-8H2",
        "InChIKey": null,
        "Canonical SMILES": "FC=1C=CC=CC1N2CCNCC2",
        "Molecular Formula": "C<sub>10</sub>H<sub>13</sub>FN<sub>2</sub>",
        "Molecular Mass": "180.22",
        "Boiling Point": "93 °C @ Press: 0.5 Torr",
        "Melting Point": "176.5-178.5 °C",
        "Density": "1.14 g/cm³"
    }
}