{
    "cas_no": "124-04-9",
    "key_name": "Adipic acid",
    "cn_name": "己二酸;",
    "alternate_name": "Hexanedioic acid;Adipic acid;Adipinic acid;1,4-Butanedicarboxylic acid;1,6-Hexanedioic acid;Acifloctin;Acinetten;Adilactetten;Asapic;Inipol DS;E 355;NSC 7622;NSC 87836;Rhodiacid AA;Edenol 1208;HA 26;A 108267",
    "duplicated_cas_no": "1186514-28-2;2023788-68-1",
    "SMILES": "C(CCC(O)=O)CC(O)=O",
    "meta_data": {
        "InChI": "InChI=1S/C6H10O4/c7-5(8)3-1-2-4-6(9)10/h1-4H2,(H,7,8)(H,9,10)",
        "InChIKey": null,
        "Canonical SMILES": "O=C(O)CCCCC(=O)O",
        "Molecular Formula": "C<sub>6</sub>H<sub>10</sub>O<sub>4</sub>",
        "Molecular Mass": "146.14",
        "Boiling Point": "338 °C",
        "Melting Point": "152 °C",
        "Density": "1.360 g/cm³ @ Temp: 25 °C"
    }
}