{
    "cas_no": "75680-92-1",
    "key_name": "Ethyl 6-chloro-3-pyridazinecarboxylate",
    "cn_name": null,
    "alternate_name": "3-Pyridazinecarboxylic acid, 6-chloro-, ethyl ester;Ethyl 6-chloro-3-pyridazinecarboxylate",
    "duplicated_cas_no": "",
    "SMILES": "C(OCC)(=O)C1=CC=C(Cl)N=N1",
    "meta_data": {
        "InChI": "InChI=1S/C7H7ClN2O2/c1-2-12-7(11)5-3-4-6(8)10-9-5/h3-4H,2H2,1H3",
        "InChIKey": null,
        "Canonical SMILES": "O=C(OCC)C1=NN=C(Cl)C=C1",
        "Molecular Formula": "C<sub>7</sub>H<sub>7</sub>ClN<sub>2</sub>O<sub>2</sub>",
        "Molecular Mass": "186.60",
        "Melting Point": "147-149 °C"
    }
}