{
    "cas_no": "112055-36-4",
    "key_name": "Ethyl 1-(4-chlorophenyl)-5-(trifluoromethyl)-1<em>H</em>-pyrazole-4-carboxylate",
    "cn_name": null,
    "alternate_name": "1<em>H</em>-Pyrazole-4-carboxylic acid, 1-(4-chlorophenyl)-5-(trifluoromethyl)-, ethyl ester;Ethyl 1-(4-chlorophenyl)-5-(trifluoromethyl)-1<em>H</em>-pyrazole-4-carboxylate;1-(4-Chlorophenyl)-5-trifluoromethyl-1<em>H</em>-pyrazole-4-carboxylic acid ethyl ester",
    "duplicated_cas_no": "",
    "SMILES": "C(F)(F)(F)C=1N(N=CC1C(OCC)=O)C2=CC=C(Cl)C=C2",
    "meta_data": {
        "InChI": "InChI=1S/C13H10ClF3N2O2/c1-2-21-12(20)10-7-18-19(11(10)13(15,16)17)9-5-3-8(14)4-6-9/h3-7H,2H2,1H3",
        "InChIKey": null,
        "Canonical SMILES": "O=C(OCC)C=1C=NN(C2=CC=C(Cl)C=C2)C1C(F)(F)F",
        "Molecular Formula": "C<sub>13</sub>H<sub>10</sub>ClF<sub>3</sub>N<sub>2</sub>O<sub>2</sub>",
        "Molecular Mass": "318.68",
        "Melting Point": "51-53 °C"
    }
}