{
    "cas_no": "13254-07-4",
    "key_name": "<em>N</em>-[(Phenylmethoxy)carbonyl]-<span class=\"text-smallcaps\">L</smallcap>-isoleucyl-<smallcap>L</span>-phenylalanine",
    "cn_name": null,
    "alternate_name": "<span class=\"text-smallcaps\">L</smallcap>-Phenylalanine, <em>N</em>-[(phenylmethoxy)carbonyl]-<smallcap>L</span>-isoleucyl-;<span class=\"text-smallcaps\">L</smallcap>-Phenylalanine, <em>N</em>-[<em>N</em>-[(phenylmethoxy)carbonyl]-<smallcap>L</span>-isoleucyl]-;Alanine, <em>N</em>-(<em>N</em>-carboxy-<span class=\"text-smallcaps\">L</span>-isoleucyl)-3-phenyl-, <em>N</em>-benzyl ester;<em>N</em>-[(Phenylmethoxy)carbonyl]-<span class=\"text-smallcaps\">L</smallcap>-isoleucyl-<smallcap>L</span>-phenylalanine;<em>N</em>-Benzyloxycarbonyl-<span class=\"text-smallcaps\">L</smallcap>-isoleucyl-<smallcap>L</span>-phenylalanine;<em>N</em>-Carbobenzyloxy-<span class=\"text-smallcaps\">L</smallcap>-isoleucyl-<smallcap>L</span>-phenylalanine;Carbobenzoxy-<span class=\"text-smallcaps\">L</smallcap>-isoleucyl-<smallcap>L</span>-phenylalanine",
    "duplicated_cas_no": "",
    "SMILES": "[C@H](C(N[C@@H](CC1=CC=CC=C1)C(O)=O)=O)(NC(OCC2=CC=CC=C2)=O)[C@H](CC)C",
    "meta_data": {
        "InChI": "InChI=1S/C23H28N2O5/c1-3-16(2)20(25-23(29)30-15-18-12-8-5-9-13-18)21(26)24-19(22(27)28)14-17-10-6-4-7-11-17/h4-13,16,19-20H,3,14-15H2,1-2H3,(H,24,26)(H,25,29)(H,27,28)/t16-,19-,20-/m0/s1",
        "InChIKey": null,
        "Canonical SMILES": "O=C(OCC=1C=CC=CC1)NC(C(=O)NC(C(=O)O)CC=2C=CC=CC2)C(C)CC",
        "Molecular Formula": "C<sub>23</sub>H<sub>28</sub>N<sub>2</sub>O<sub>5</sub>",
        "Molecular Mass": "412.48",
        "Melting Point": "166-167 °C"
    }
}