{
    "cas_no": "1251-85-0",
    "key_name": "Diantipyrylmethane",
    "cn_name": null,
    "alternate_name": "3<em>H</em>-Pyrazol-3-one, 4,4′-methylenebis[1,2-dihydro-1,5-dimethyl-2-phenyl-;Antipyrine, 4,4′-methylenedi-;4,4′-Methylenebis[1,2-dihydro-1,5-dimethyl-2-phenyl-3<em>H</em>-pyrazol-3-one];Diantipyrinylmethane;Diantipyrylmethane;Bisantipyrylmethane;4,4′-Diantipyrylmethane;NSC 60670",
    "duplicated_cas_no": "47545-55-1",
    "SMILES": "O=C1N(N(C)C(C)=C1CC=2C(=O)N(N(C)C2C)C3=CC=CC=C3)C4=CC=CC=C4",
    "meta_data": {
        "InChI": "InChI=1S/C23H24N4O2/c1-16-20(22(28)26(24(16)3)18-11-7-5-8-12-18)15-21-17(2)25(4)27(23(21)29)19-13-9-6-10-14-19/h5-14H,15H2,1-4H3",
        "InChIKey": null,
        "Canonical SMILES": "O=C1C(=C(N(N1C=2C=CC=CC2)C)C)CC=3C(=O)N(C=4C=CC=CC4)N(C3C)C",
        "Molecular Formula": "C<sub>23</sub>H<sub>24</sub>N<sub>4</sub>O<sub>2</sub>",
        "Molecular Mass": "388.46",
        "Melting Point": "178-179 °C"
    }
}