{
    "cas_no": "23386-41-6",
    "key_name": "2,3-Dihydro-3-oxo-1<em>H</em>-isoindole-5-carboxylic acid",
    "cn_name": null,
    "alternate_name": "1<em>H</em>-Isoindole-5-carboxylic acid, 2,3-dihydro-3-oxo-;5-Isoindolinecarboxylic acid, 3-oxo-;2,3-Dihydro-3-oxo-1<em>H</em>-isoindole-5-carboxylic acid;1-Oxo-2,3-dihydro-1<em>H</em>-isoindole-6-carboxylic acid;3-Oxoisoindoline-5-carboxylic acid;3-Oxo-2,3-dihydro-1<em>H</em>-isoindole-5-carboxylic acid",
    "duplicated_cas_no": "",
    "SMILES": "O=C1C=2C(=CC=C(C(O)=O)C2)CN1",
    "meta_data": {
        "InChI": "InChI=1S/C9H7NO3/c11-8-7-3-5(9(12)13)1-2-6(7)4-10-8/h1-3H,4H2,(H,10,11)(H,12,13)",
        "InChIKey": null,
        "Canonical SMILES": "O=C(O)C1=CC=C2C(=C1)C(=O)NC2",
        "Molecular Formula": "C<sub>9</sub>H<sub>7</sub>NO<sub>3</sub>",
        "Molecular Mass": "177.16",
        "Melting Point": "351.2-353.1 °C"
    }
}