{
    "cas_no": "1518-58-7",
    "key_name": "Diethylammonium diethyldithiocarbamate",
    "cn_name": null,
    "alternate_name": "Carbamodithioic acid, <em>N</em>,<em>N</em>-diethyl-, compd. with <em>N</em>-ethylethanamine (1:1);Carbamic acid, diethyldithio-, compd. with diethylamine (1:1);Carbamodithioic acid, diethyl-, compd. with <em>N</em>-ethylethanamine (1:1);Carbamic acid, diethyldithio-, compd. with Et<sub>2</sub>NH;Diethylamine, diethyldithiocarbamate;Ethanamine, <em>N</em>-ethyl-, diethylcarbamodithioate;Diethylammonium <em>N</em>,<em>N</em>-diethyldithiocarbamate;Diethylammonium diethyldithiocarbamate;Contramine;<em>N</em>,<em>N</em>-Diethyldithiocarbamic acid diethylamine salt;NSC 6248;Diethyldithiocarbamic acid diethylammonium salt",
    "duplicated_cas_no": "",
    "SMILES": "N(C(=S)S)(CC)CC.N(CC)CC",
    "meta_data": {
        "InChI": "InChI=1S/C5H11NS2.C4H11N/c1-3-6(4-2)5(7)8;1-3-5-4-2/h3-4H2,1-2H3,(H,7,8);5H,3-4H2,1-2H3",
        "InChIKey": null,
        "Canonical SMILES": "S=C(S)N(CC)CC.N(CC)CC",
        "Molecular Formula": "C<sub>5</sub>H<sub>11</sub>NS<sub>2</sub>.C<sub>4</sub>H<sub>11</sub>N",
        "Molecular Mass": "",
        "Boiling Point": "125 °C",
        "Melting Point": "81 °C"
    }
}