{
    "cas_no": "100678-32-8",
    "key_name": "Cibenzoline succinate",
    "cn_name": null,
    "alternate_name": "Butanedioic acid, compd. with 2-(2,2-diphenylcyclopropyl)-4,5-dihydro-1<em>H</em>-imidazole (1:1);1<em>H</em>-Imidazole, 2-(2,2-diphenylcyclopropyl)-4,5-dihydro-, butanedioate (1:1);Cifenline succinate;Cibenzoline succinate (1:1);Cipralan;Exacor;Ro 22-7796/001;Cibenol;Cibenzoline succinate;2-(2,2-Diphenylcyclopropyl)-4,5-dihydro-1<em>H</em>-imidazole succinate",
    "duplicated_cas_no": "85589-37-3",
    "SMILES": "C1(C(C1)C=2NCCN2)(C3=CC=CC=C3)C4=CC=CC=C4.C(CC(O)=O)C(O)=O",
    "meta_data": {
        "InChI": "InChI=1S/C18H18N2.C4H6O4/c1-3-7-14(8-4-1)18(15-9-5-2-6-10-15)13-16(18)17-19-11-12-20-17;5-3(6)1-2-4(7)8/h1-10,16H,11-13H2,(H,19,20);1-2H2,(H,5,6)(H,7,8)",
        "InChIKey": null,
        "Canonical SMILES": "O=C(O)CCC(=O)O.N1=C(NCC1)C2CC2(C=3C=CC=CC3)C=4C=CC=CC4",
        "Molecular Formula": "C<sub>18</sub>H<sub>18</sub>N<sub>2</sub>.C<sub>4</sub>H<sub>6</sub>O<sub>4</sub>",
        "Molecular Mass": "",
        "Melting Point": "165 °C"
    }
}