{
    "cas_no": "1947-00-8",
    "key_name": "<em>N</em>-(Benzyloxycarbonyl)-6-aminohexanoic acid",
    "cn_name": "N-苄氧羰基--6-氨基己酸;N-苄氧羰基--6-氨基己酸;",
    "alternate_name": "Hexanoic acid, 6-[[(phenylmethoxy)carbonyl]amino]-;Hexanoic acid, 6-(carboxyamino)-, <em>N</em>-benzyl ester;6-[[(Phenylmethoxy)carbonyl]amino]hexanoic acid;Carbobenzoxy-ε-aminocaproic acid;<em>N</em>-(Carbobenzoxy)-6-aminocaproic acid;6-[(Benzyloxycarbonyl)amino]hexanoic acid;<em>N</em>-(Benzyloxycarbonyl)-6-aminocaproic acid;<em>N</em>-(Benzyloxycarbonyl)-ε-aminocaproic acid;<em>N</em>-Carbobenzoxy-ε-aminohexanoic acid;6-(Benzyloxycarbonylamino)caproic acid;6-(<em>N</em>-Benzyloxycarbonylamino)hexanoic acid;<em>N</em>-(Benzyloxycarbonyl)-6-aminohexanoic acid;6-(<em>N</em>-Carbobenzyloxyamino)hexanoic acid;NSC 92812;VIB 197;6-[(Carbobenzyloxy)amino]caproic acid",
    "duplicated_cas_no": "",
    "SMILES": "C(OC(NCCCCCC(O)=O)=O)C1=CC=CC=C1",
    "meta_data": {
        "InChI": "InChI=1S/C14H19NO4/c16-13(17)9-5-2-6-10-15-14(18)19-11-12-7-3-1-4-8-12/h1,3-4,7-8H,2,5-6,9-11H2,(H,15,18)(H,16,17)",
        "InChIKey": null,
        "Canonical SMILES": "O=C(O)CCCCCNC(=O)OCC=1C=CC=CC1",
        "Molecular Formula": "C<sub>14</sub>H<sub>19</sub>NO<sub>4</sub>",
        "Molecular Mass": "265.30",
        "Melting Point": "55 °C"
    }
}