{
    "cas_no": "634-95-7",
    "key_name": "<em>N</em>,<em>N</em>-Diethylurea",
    "cn_name": "1,1-二乙基脲;N,N-二乙基脲;",
    "alternate_name": "Urea, <em>N</em>,<em>N</em>-diethyl-;Urea, 1,1-diethyl-;<em>N</em>,<em>N</em>-Diethylurea;1,1-Diethylurea;<em>asym</em>-Diethylurea;NSC 165657",
    "duplicated_cas_no": "",
    "SMILES": "N(C(N)=O)(CC)CC",
    "meta_data": {
        "InChI": "InChI=1S/C5H12N2O/c1-3-7(4-2)5(6)8/h3-4H2,1-2H3,(H2,6,8)",
        "InChIKey": null,
        "Canonical SMILES": "O=C(N)N(CC)CC",
        "Molecular Formula": "C<sub>5</sub>H<sub>12</sub>N<sub>2</sub>O",
        "Molecular Mass": "116.16",
        "Boiling Point": "94-96 °C @ Press: 0.02 Torr",
        "Melting Point": "75 °C",
        "Density": "1.1347 g/cm³"
    }
}