{
    "cas_no": "7314-44-5",
    "key_name": "2,4-Dimethoxybenzyl alcohol",
    "cn_name": "2,4-二甲氧基苄醇;2,4-二甲氧基苯甲醇;",
    "alternate_name": "Benzenemethanol, 2,4-dimethoxy-;Benzyl alcohol, 2,4-dimethoxy-;2,4-Dimethoxybenzenemethanol;2,4-Dimethoxybenzyl alcohol;2,4-Dimethoxyphenylmethanol",
    "duplicated_cas_no": "",
    "SMILES": "O(C)C1=C(CO)C=CC(OC)=C1",
    "meta_data": {
        "InChI": "InChI=1S/C9H12O3/c1-11-8-4-3-7(6-10)9(5-8)12-2/h3-5,10H,6H2,1-2H3",
        "InChIKey": null,
        "Canonical SMILES": "OCC1=CC=C(OC)C=C1OC",
        "Molecular Formula": "C<sub>9</sub>H<sub>12</sub>O<sub>3</sub>",
        "Molecular Mass": "168.19",
        "Boiling Point": "177-179 °C @ Press: 10 Torr",
        "Melting Point": "34-34.5 °C"
    }
}