{
    "cas_no": "263400-88-0",
    "key_name": "1-Propanol, 3-(methylsulfonyl)-, 1-(4-methylbenzenesulfonate)",
    "cn_name": null,
    "alternate_name": "1-Propanol, 3-(methylsulfonyl)-, 1-(4-methylbenzenesulfonate);1-Propanol, 3-(methylsulfonyl)-, 4-methylbenzenesulfonate;3-(Methylsulfonyl)propyl 4-methylbenzenesulfonate;3-(Methylsulfonyl)propyl tosylate",
    "duplicated_cas_no": "",
    "SMILES": "S(OCCCS(C)(=O)=O)(=O)(=O)C1=CC=C(C)C=C1",
    "meta_data": {
        "InChI": "InChI=1S/C11H16O5S2/c1-10-4-6-11(7-5-10)18(14,15)16-8-3-9-17(2,12)13/h4-7H,3,8-9H2,1-2H3",
        "InChIKey": null,
        "Canonical SMILES": "O=S(=O)(OCCCS(=O)(=O)C)C1=CC=C(C=C1)C",
        "Molecular Formula": "C<sub>11</sub>H<sub>16</sub>O<sub>5</sub>S<sub>2</sub>",
        "Molecular Mass": "292.37",
        "Melting Point": "88-89 °C"
    }
}