{
    "cas_no": "6968-11-2",
    "key_name": "<em>N</em>,<em>N</em>′-Bis[(phenylmethoxy)carbonyl]-<span class=\"text-smallcaps\">L</span>-cystine",
    "cn_name": "N,N\"-二(苄氧羰基)-L-胱氨酸;",
    "alternate_name": "<span class=\"text-smallcaps\">L</span>-Cystine, <em>N</em>,<em>N</em>′-bis[(phenylmethoxy)carbonyl]-;Cystine, <em>N</em>,<em>N</em>′-dicarboxy-, <em>N</em>,<em>N</em>′-dibenzyl ester, <span class=\"text-smallcaps\">L</span>-;<span class=\"text-smallcaps\">L</span>-Cystine, <em>N</em>,<em>N</em>′-dicarboxy-, <em>N</em>,<em>N</em>′-dibenzyl ester;<em>N</em>,<em>N</em>′-Bis[(phenylmethoxy)carbonyl]-<span class=\"text-smallcaps\">L</span>-cystine;Dicarbobenzoxy-<span class=\"text-smallcaps\">L</span>-cystine;<em>N</em>,<em>N</em>′-Dicarbobenzoxy-<span class=\"text-smallcaps\">L</span>-cystine;<em>N</em>,<em>N</em>′-Bis(benzyloxycarbonyl)cystine;<em>N</em>,<em>N</em>′-Dicarboxy-<span class=\"text-smallcaps\">L</span>-cystine <em>N</em>,<em>N</em>′-dibenzyl ester;<em>N</em>,<em>N</em>′-Dicarboxycystine <em>N</em>,<em>N</em>′-dibenzyl ester;<em>N</em>,<em>N</em>′-Bis(benzyloxycarbonyl)-<span class=\"text-smallcaps\">L</span>-cystine;<em>N</em>,<em>N</em>′-Dicarbobenzoxycystine;NSC 154939;NSC 20645;NSC 88480;<em>N</em>-Cbz-<em>N</em>′-Cbz-<span class=\"text-smallcaps\">L</span>-cystine",
    "duplicated_cas_no": "32381-22-9;118660-02-9;887905-26-2;896445-23-1;1186629-62-8;1229647-40-8",
    "SMILES": "C(OC(N[C@@H](CSSC[C@H](NC(OCC1=CC=CC=C1)=O)C(O)=O)C(O)=O)=O)C2=CC=CC=C2",
    "meta_data": {
        "InChI": "InChI=1S/C22H24N2O8S2/c25-19(26)17(23-21(29)31-11-15-7-3-1-4-8-15)13-33-34-14-18(20(27)28)24-22(30)32-12-16-9-5-2-6-10-16/h1-10,17-18H,11-14H2,(H,23,29)(H,24,30)(H,25,26)(H,27,28)/t17-,18-/m0/s1",
        "InChIKey": null,
        "Canonical SMILES": "O=C(OCC=1C=CC=CC1)NC(C(=O)O)CSSCC(NC(=O)OCC=2C=CC=CC2)C(=O)O",
        "Molecular Formula": "C<sub>22</sub>H<sub>24</sub>N<sub>2</sub>O<sub>8</sub>S<sub>2</sub>",
        "Molecular Mass": "508.56",
        "Melting Point": "119-120 °C"
    }
}