{
    "cas_no": "2836-32-0",
    "key_name": "Sodium glycolate",
    "cn_name": "乙醇酸钠;羟基乙酸钠;羟基乙酸单钠盐;",
    "alternate_name": "Acetic acid, 2-hydroxy-, sodium salt (1:1);Glycolic acid, monosodium salt;Acetic acid, hydroxy-, monosodium salt;Sodium glycolate;Sodium α-hydroxyacetate;Sodium hydroxyacetate;Hydroxyacetic acid sodium salt;Glycolic acid sodium salt",
    "duplicated_cas_no": "",
    "SMILES": "C(CO)(O)=O.[Na]",
    "meta_data": {
        "InChI": "InChI=1S/C2H4O3.Na/c3-1-2(4)5;/h3H,1H2,(H,4,5);",
        "InChIKey": null,
        "Canonical SMILES": "[Na].O=C(O)CO",
        "Molecular Formula": "C<sub>2</sub>H<sub>4</sub>O<sub>3</sub>.Na",
        "Molecular Mass": "",
        "Melting Point": "151 °C"
    }
}