{
    "cas_no": "1344-70-3",
    "key_name": "Copper oxide (CuO<sub>x</sub>)",
    "cn_name": null,
    "alternate_name": "Copper oxide;Copper oxide (CuO<sub>x</sub>);CB 250;Perfect Copper;NO 0031HP;CUAP 15WT%-G180",
    "duplicated_cas_no": "908254-75-1;2095191-16-3;2170422-12-3",
    "SMILES": "",
    "meta_data": {
        "InChI": "",
        "InChIKey": null,
        "Canonical SMILES": "",
        "Molecular Formula": "Unspecified",
        "Molecular Mass": "",
        "Melting Point": "77 °C",
        "Density": "6.32 g/cm³ (solid)"
    }
}