{
    "uri": "substance/pt/1344703",
    "rn": "1344-70-3",
    "name": "Copper oxide (CuO<sub>x</sub>)",
    "images": [],
    "inchi": "",
    "inchiKey": "",
    "smile": "",
    "canonicalSmile": "",
    "molecularFormula": "Unspecified",
    "molecularMass": "",
    "experimentalProperties": [
        {
            "name": "Melting Point",
            "property": "77 °C",
            "sourceNumber": 1
        },
        {
            "name": "Density",
            "property": "6.32 g/cm³ (solid)",
            "sourceNumber": 2
        }
    ],
    "propertyCitations": [
        {
            "docUri": "document/pt/patent/10982785",
            "sourceNumber": 1,
            "source": "Matsumoto, Takeshi; WO2004045766, A1, 2004, CAplus"
        },
        {
            "docUri": "document/pt/document/49571462",
            "sourceNumber": 2,
            "source": "Aghaei, Alireza; Heat and Mass Transfer, (2018), 54(1), 151-161, CAplus"
        }
    ],
    "synonyms": [
        "Copper oxide",
        "Copper oxide (CuO<sub>x</sub>)",
        "CB 250",
        "Perfect Copper",
        "NO 0031HP",
        "CUAP 15WT%-G180"
    ],
    "replacedRns": [
        "908254-75-1",
        "2095191-16-3",
        "2170422-12-3"
    ],
    "hasMolfile": false,
    "source": "https://commonchemistry.cas.org/detail?cas_rn=1344-70-3"
}