{
    "cas_no": "4666-16-4",
    "key_name": "<span class=\"text-smallcaps\">L</span>-Glutamic acid, <em>N</em>-[(phenylmethoxy)carbonyl]-, 5-(1,1-dimethylethyl) 1-(2,5-dioxo-1-pyrrolidinyl) ester",
    "cn_name": null,
    "alternate_name": "<span class=\"text-smallcaps\">L</span>-Glutamic acid, <em>N</em>-[(phenylmethoxy)carbonyl]-, 5-(1,1-dimethylethyl) 1-(2,5-dioxo-1-pyrrolidinyl) ester;Succinimide, <em>N</em>-[(<em>N</em>-carboxy-<span class=\"text-smallcaps\">L</span>-α-glutamyl)oxy]-, <em>N</em>-benzyl <em>tert</em>-butyl ester;Pentanoic acid, 5-[(2,5-dioxo-1-pyrrolidinyl)oxy]-5-oxo-4-[[(phenylmethoxy)carbonyl]amino]-, 1,1-dimethylethyl ester, (<em>S</em>)-;Succinimide, <em>N</em>-[(<em>N</em>-carboxy-<span class=\"text-smallcaps\">L</span>-α-glutamyl)oxy]-, benzyl <em>tert</em>-butyl ester;Pentanoic acid, 5-[(2,5-dioxo-1-pyrrolidinyl)oxy]-5-oxo-4-[[(phenylmethoxy)carbonyl]amino]-, 1,1-dimethylethyl ester, (4<em>S</em>)-;<span class=\"text-smallcaps\">L</span>-Glutamic acid, pentanoic acid deriv.;<em>N</em>-Cbz-<span class=\"text-smallcaps\">L</span>-glutamic acid γ-(tert butyl) α-(<em>N</em>-hydroxysuccinimidyl) diester",
    "duplicated_cas_no": "110625-54-2;51537-20-3;478404-09-0",
    "SMILES": "O(C([C@H](CCC(OC(C)(C)C)=O)NC(OCC1=CC=CC=C1)=O)=O)N2C(=O)CCC2=O",
    "meta_data": {
        "InChI": "InChI=1S/C21H26N2O8/c1-21(2,3)30-18(26)12-9-15(19(27)31-23-16(24)10-11-17(23)25)22-20(28)29-13-14-7-5-4-6-8-14/h4-8,15H,9-13H2,1-3H3,(H,22,28)/t15-/m0/s1",
        "InChIKey": null,
        "Canonical SMILES": "O=C(OCC=1C=CC=CC1)NC(C(=O)ON2C(=O)CCC2=O)CCC(=O)OC(C)(C)C",
        "Molecular Formula": "C<sub>21</sub>H<sub>26</sub>N<sub>2</sub>O<sub>8</sub>",
        "Molecular Mass": "434.44",
        "Melting Point": "86-89 °C"
    }
}