{
    "cas_no": "876-03-9",
    "key_name": "Benzoic acid, 3-(aminomethyl)-, hydrochloride (1:1)",
    "cn_name": "3-氨甲基苯甲酸盐酸盐;",
    "alternate_name": "Benzoic acid, 3-(aminomethyl)-, hydrochloride (1:1);<em>m</em>-Toluic acid, α-amino-, hydrochloride;Benzoic acid, 3-(aminomethyl)-, hydrochloride;3-(aminomethyl)benzoic acid hydrochloride",
    "duplicated_cas_no": "",
    "SMILES": "C(O)(=O)C1=CC(CN)=CC=C1.Cl",
    "meta_data": {
        "InChI": "InChI=1S/C8H9NO2.ClH/c9-5-6-2-1-3-7(4-6)8(10)11;/h1-4H,5,9H2,(H,10,11);1H",
        "InChIKey": null,
        "Canonical SMILES": "Cl.O=C(O)C1=CC=CC(=C1)CN",
        "Molecular Formula": "C<sub>8</sub>H<sub>9</sub>NO<sub>2</sub>.ClH",
        "Molecular Mass": "",
        "Melting Point": "250-251 °C"
    }
}