{
    "cas_no": "3511-19-1",
    "key_name": "2,3-Dichlorotetrahydrofuran",
    "cn_name": "2,3-二氯四氢呋喃;",
    "alternate_name": "Furan, 2,3-dichlorotetrahydro-;2,3-Dichlorotetrahydrofuran",
    "duplicated_cas_no": "",
    "SMILES": "ClC1C(Cl)OCC1",
    "meta_data": {
        "InChI": "InChI=1S/C4H6Cl2O/c5-3-1-2-7-4(3)6/h3-4H,1-2H2",
        "InChIKey": null,
        "Canonical SMILES": "ClC1OCCC1Cl",
        "Molecular Formula": "C<sub>4</sub>H<sub>6</sub>Cl<sub>2</sub>O",
        "Molecular Mass": "141.00",
        "Boiling Point": "62-63 °C @ Press: 20 Torr",
        "Density": "1.336 g/cm³ @ Temp: 16 °C"
    }
}