{
    "cas_no": "741709-62-6",
    "key_name": "4-(4,4,5,5-Tetramethyl-1,3,2-dioxaborolan-2-yl)picolinonitrile",
    "cn_name": null,
    "alternate_name": "2-Pyridinecarbonitrile, 4-(4,4,5,5-tetramethyl-1,3,2-dioxaborolan-2-yl)-;4-(4,4,5,5-Tetramethyl-1,3,2-dioxaborolan-2-yl)-2-pyridinecarbonitrile;2-(2-Cyanopyridin-4-yl)-4,4,5,5-tetramethyl-1,3,2-dioxaborolane;4-(4,4,5,5-Tetramethyl-1,3,2-dioxaborolan-2-yl)picolinonitrile;4-(Tetramethyl-1,3,2-dioxaborolan-2-yl)pyridine-2-carbonitrile;2-Cyanopyridine-4-boronic acid pinacol ester",
    "duplicated_cas_no": "",
    "SMILES": "CC1(C)OB(OC1(C)C)C=2C=C(C#N)N=CC2",
    "meta_data": {
        "InChI": "InChI=1S/C12H15BN2O2/c1-11(2)12(3,4)17-13(16-11)9-5-6-15-10(7-9)8-14/h5-7H,1-4H3",
        "InChIKey": null,
        "Canonical SMILES": "N#CC1=NC=CC(=C1)B2OC(C)(C)C(O2)(C)C",
        "Molecular Formula": "C<sub>12</sub>H<sub>15</sub>BN<sub>2</sub>O<sub>2</sub>",
        "Molecular Mass": "230.07",
        "Melting Point": "60-61 °C"
    }
}