{
    "cas_no": "22027-51-6",
    "key_name": "Methyl 4-methyl-β-oxobenzenepropanoate",
    "cn_name": null,
    "alternate_name": "Benzenepropanoic acid, 4-methyl-β-oxo-, methyl ester;Acetic acid, <em>p</em>-toluoyl-, methyl ester;Methyl 4-methyl-β-oxobenzenepropanoate;Methyl 3-(4-methylphenyl)-3-oxopropanoate;NSC 157310;3-Oxo-3-(4-methylphenyl)propionic acid methyl ester;Methyl 3-oxo-3-<em>p</em>-tolylpropanoate;Methyl 3-oxo-3-(4-methylphenyl)propanoate;3-Oxo-3-<em>p</em>-tolyl-propionic acid methyl ester",
    "duplicated_cas_no": "",
    "SMILES": "C(CC(OC)=O)(=O)C1=CC=C(C)C=C1",
    "meta_data": {
        "InChI": "InChI=1S/C11H12O3/c1-8-3-5-9(6-4-8)10(12)7-11(13)14-2/h3-6H,7H2,1-2H3",
        "InChIKey": null,
        "Canonical SMILES": "O=C(OC)CC(=O)C1=CC=C(C=C1)C",
        "Molecular Formula": "C<sub>11</sub>H<sub>12</sub>O<sub>3</sub>",
        "Molecular Mass": "192.21",
        "Boiling Point": "190-192 °C @ Press: 41 Torr"
    }
}