{
    "cas_no": "2737-22-6",
    "key_name": "2,4,6-Tribromo-3-hydroxybenzaldehyde",
    "cn_name": "3-羟基-2,4,6-三溴苯甲醛;",
    "alternate_name": "Benzaldehyde, 2,4,6-tribromo-3-hydroxy-;2,4,6-Tribromo-3-hydroxybenzaldehyde",
    "duplicated_cas_no": "",
    "SMILES": "C(=O)C1=C(Br)C(O)=C(Br)C=C1Br",
    "meta_data": {
        "InChI": "InChI=1S/C7H3Br3O2/c8-4-1-5(9)7(12)6(10)3(4)2-11/h1-2,12H",
        "InChIKey": null,
        "Canonical SMILES": "O=CC=1C(Br)=CC(Br)=C(O)C1Br",
        "Molecular Formula": "C<sub>7</sub>H<sub>3</sub>Br<sub>3</sub>O<sub>2</sub>",
        "Molecular Mass": "358.81",
        "Melting Point": "119.5 °C"
    }
}