{
    "cas_no": "502-32-9",
    "key_name": "Leucinol",
    "cn_name": null,
    "alternate_name": "1-Pentanol, 2-amino-4-methyl-;Leucinol;2-Amino-4-methyl-1-pentanol;<em>dl</em>-Leucinol;<span class=\"text-smallcaps\">DL</span>-Leucinol;(±)-Leucinol;2-Aminoisohexyl alcohol;(1-Hydroxymethyl-3-methylbutyl)amine;1-Hydroxy-4-methylpentan-2-amine",
    "duplicated_cas_no": "16369-17-8",
    "SMILES": "C(CC(C)C)(CO)N",
    "meta_data": {
        "InChI": "InChI=1S/C6H15NO/c1-5(2)3-6(7)4-8/h5-6,8H,3-4,7H2,1-2H3",
        "InChIKey": null,
        "Canonical SMILES": "OCC(N)CC(C)C",
        "Molecular Formula": "C<sub>6</sub>H<sub>15</sub>NO",
        "Molecular Mass": "117.19",
        "Boiling Point": "194 °C"
    }
}