{
    "cas_no": "372-30-5",
    "key_name": "Ethyl 4,4,4-trifluoro-3-hydroxybutanoate",
    "cn_name": "3-羟基-4,4,4-三氟丁酸乙酯;",
    "alternate_name": "Butanoic acid, 4,4,4-trifluoro-3-hydroxy-, ethyl ester;Butyric acid, 4,4,4-trifluoro-3-hydroxy-, ethyl ester;Ethyl 4,4,4-trifluoro-3-hydroxybutanoate;Ethyl 4,4,4-trifluoro-3-hydroxybutyrate;Ethyl 3-hydroxy-4,4,4-trifluorobutyrate",
    "duplicated_cas_no": "88968-78-9",
    "SMILES": "C(C(C(F)(F)F)O)C(OCC)=O",
    "meta_data": {
        "InChI": "InChI=1S/C6H9F3O3/c1-2-12-5(11)3-4(10)6(7,8)9/h4,10H,2-3H2,1H3",
        "InChIKey": null,
        "Canonical SMILES": "O=C(OCC)CC(O)C(F)(F)F",
        "Molecular Formula": "C<sub>6</sub>H<sub>9</sub>F<sub>3</sub>O<sub>3</sub>",
        "Molecular Mass": "186.13",
        "Boiling Point": "90-91 °C @ Press: 50 Torr",
        "Melting Point": "25.5 °C",
        "Density": "1.259 g/cm³ @ Temp: 25 °C"
    }
}