{
    "cas_no": "2100-25-6",
    "key_name": "3-Iodo-1,2,4,5-tetramethylbenzene",
    "cn_name": "3-碘-1,2,4,5-四甲基苯;2,3,5,6-四甲基碘苯;",
    "alternate_name": "Benzene, 3-iodo-1,2,4,5-tetramethyl-;3-Iodo-1,2,4,5-tetramethylbenzene;Iododurene;3-Iododurene;2,3,5,6-Tetramethyliodobenzene;1-Iodo-2,3,5,6-tetramethylbenzene;NSC 97133",
    "duplicated_cas_no": "",
    "SMILES": "CC1=C(I)C(C)=C(C)C=C1C",
    "meta_data": {
        "InChI": "InChI=1S/C10H13I/c1-6-5-7(2)9(4)10(11)8(6)3/h5H,1-4H3",
        "InChIKey": null,
        "Canonical SMILES": "IC=1C(=C(C=C(C1C)C)C)C",
        "Molecular Formula": "C<sub>10</sub>H<sub>13</sub>I",
        "Molecular Mass": "260.11",
        "Melting Point": "78.5-79.5 °C"
    }
}