{
    "cas_no": "471-80-7",
    "key_name": "(-)-Steviol",
    "cn_name": "甜叶菊甙元;",
    "alternate_name": "Kaur-16-en-18-oic acid, 13-hydroxy-, (4α)-;Kaur-16-en-18-oic acid, 13-hydroxy-;Steviol;(4α)-13-Hydroxykaur-16-en-18-oic acid;Hydroxydehydrostevic acid;13-Hydroxykaurenoic acid;(-)-Steviol;NSC 226902;Ent-13-hydroxykauran-16-en-19-oic acid;13-<em>O</em>-Glucosylsteviol",
    "duplicated_cas_no": "4574-62-3;13095-77-7",
    "SMILES": "C[C@]12[C@]3([C@]4(C[C@@](O)(CC3)C(=C)C4)CC[C@@]1([C@@](C(O)=O)(C)CCC2)[H])[H]",
    "meta_data": {
        "InChI": "InChI=1S/C20H30O3/c1-13-11-19-9-5-14-17(2,7-4-8-18(14,3)16(21)22)15(19)6-10-20(13,23)12-19/h14-15,23H,1,4-12H2,2-3H3,(H,21,22)/t14-,15-,17+,18+,19+,20-/m0/s1",
        "InChIKey": null,
        "Canonical SMILES": "O=C(O)C1(C)CCCC2(C)C1CCC34CC(=C)C(O)(CCC32)C4",
        "Molecular Formula": "C<sub>20</sub>H<sub>30</sub>O<sub>3</sub>",
        "Molecular Mass": "318.45",
        "Melting Point": "212-213 °C"
    }
}