{
    "cas_no": "110-73-6",
    "key_name": "2-(Ethylamino)ethanol",
    "cn_name": "乙基羟乙胺;N-乙基乙醇胺;",
    "alternate_name": "Ethanol, 2-(ethylamino)-;2-(Ethylamino)ethanol;<em>N</em>-Ethylmonoethanolamine;2-(Monoethylamino)ethanol;<em>N</em>-Ethylethanolamine;(2-Hydroxyethyl)ethylamine;<em>N</em>-Ethyl-<em>N</em>-(β-hydroxyethyl)amine;<em>N</em>-Ethyl-<em>N</em>-(2-hydroxyethyl)amine;<em>N</em>-Ethyl-2-aminoethanol;2-(<em>N</em>-Ethylamino)ethanol;<em>N</em>-(2-Hydroxyethyl)ethylamine;Amino Alcohol MEM;<em>N</em>-(2-Hydroxyethyl)-<em>N</em>-ethylamine",
    "duplicated_cas_no": "",
    "SMILES": "C(NCC)CO",
    "meta_data": {
        "InChI": "InChI=1S/C4H11NO/c1-2-5-3-4-6/h5-6H,2-4H2,1H3",
        "InChIKey": null,
        "Canonical SMILES": "OCCNCC",
        "Molecular Formula": "C<sub>4</sub>H<sub>11</sub>NO",
        "Molecular Mass": "89.14",
        "Boiling Point": "169.5 °C",
        "Density": "0.913386 g/cm³ @ Temp: 25.00 °C"
    }
}