{
    "cas_no": "431-46-9",
    "key_name": "Trifluoroacetaldehyde methyl hemiacetal",
    "cn_name": "三氟乙醛缩甲基半醇;三氟乙醛缩甲基半醇;三氟乙醛缩甲基半醇, TECH;",
    "alternate_name": "Ethanol, 2,2,2-trifluoro-1-methoxy-;2,2,2-Trifluoro-1-methoxyethanol;Fluoral methyl hemiacetal;Trifluoroacetaldehyde methyl hemiacetal;1-Methoxy-2,2,2-trifluoroethanol;2,2,2-Trifluoro-1-methoxyethan-1-ol",
    "duplicated_cas_no": "",
    "SMILES": "C(C(F)(F)F)(OC)O",
    "meta_data": {
        "InChI": "InChI=1S/C3H5F3O2/c1-8-2(7)3(4,5)6/h2,7H,1H3",
        "InChIKey": null,
        "Canonical SMILES": "FC(F)(F)C(O)OC",
        "Molecular Formula": "C<sub>3</sub>H<sub>5</sub>F<sub>3</sub>O<sub>2</sub>",
        "Molecular Mass": "130.07",
        "Boiling Point": "96-96.5 °C @ Press: 729 Torr"
    }
}