{
    "cas_no": "85-00-7",
    "key_name": "Diquat dibromide",
    "cn_name": "敌草快;1,1\"-乙撑-2,2\"-联吡啶鎓盐二溴化物;",
    "alternate_name": "Dipyrido[1,2-<em>a</em>:2′,1′-<em>c</em>]pyrazinediium, 6,7-dihydro-, bromide (1:2);Dipyrido[1,2-<em>a</em>:2′,1′-<em>c</em>]pyrazinediium, 6,7-dihydro-, dibromide;6,7-Dihydrodipyrido[1,2-<em>a</em>:2′,1′-<em>c</em>]pyrazinediium dibromide;6,7-Dihydrodipyrido[1,2-<em>a</em>:2′,1′-<em>c</em>]pyrazidiinium dibromide;9,10-Dihydro-8a,10a-diazoniaphenanthrene dibromide;Diquat dibromide;1,1′-Ethylene-2,2′-bipyridylium dibromide;Reglon;Reglone;1,1′-Ethylene-2,2′-bipyridinium dibromide;Diquat;Ortho-Diquat;PP 100;Weedtrine D;<em>N</em>,<em>N</em>′-Ethylene-2,2′-bipyridinium dibromide;6,7-Dihydrodipyrido[1,2-<em>a</em>:2′,1′-<em>c</em>]pyrazinium dibromide;Reward;Eliminator;Eliminator (herbicide);Reglox;Reglone Turbo;PP 100 (herbicide)",
    "duplicated_cas_no": "2028303-14-0",
    "SMILES": "C1=2C=3[N+](CC[N+]1=CC=CC2)=CC=CC3.[Br-]",
    "meta_data": {
        "InChI": "InChI=1S/C12H12N2.2BrH/c1-3-7-13-9-10-14-8-4-2-6-12(14)11(13)5-1;;/h1-8H,9-10H2;2*1H/q+2;;/p-2",
        "InChIKey": null,
        "Canonical SMILES": "[Br-].C=1C=C[N+]2=C(C1)C=3C=CC=C[N+]3CC2",
        "Molecular Formula": "C<sub>12</sub>H<sub>12</sub>N<sub>2</sub>.2Br",
        "Molecular Mass": "",
        "Melting Point": "337 °C",
        "Density": "1.22-1.27 g/cm³ @ Temp: 20 °C"
    }
}