{
    "cas_no": "1699-56-5",
    "key_name": "Benzeneethanamine, 3,4-bis(phenylmethoxy)-, hydrochloride (1:1)",
    "cn_name": "3,4-(二苄氧基)苯乙胺盐酸盐;",
    "alternate_name": "Benzeneethanamine, 3,4-bis(phenylmethoxy)-, hydrochloride (1:1);Benzeneethanamine, 3,4-bis(phenylmethoxy)-, hydrochloride;Phenethylamine, 3,4-bis(benzyloxy)-, hydrochloride;<em>O</em>,<em>O</em>′-Dibenzyldopamine hydrochloride;Dibenzyldopamine hydrochloride;2-(3,4-Dibenzyloxy)phenethylamine hydrochloride;3,4-Dibenzyloxyphenethylamine hydrochloride;2-[3,4-Bis(benzyloxy)phenyl]ethylamine hydrochloride",
    "duplicated_cas_no": "",
    "SMILES": "O(CC1=CC=CC=C1)C2=C(OCC3=CC=CC=C3)C=CC(CCN)=C2.Cl",
    "meta_data": {
        "InChI": "InChI=1S/C22H23NO2.ClH/c23-14-13-18-11-12-21(24-16-19-7-3-1-4-8-19)22(15-18)25-17-20-9-5-2-6-10-20;/h1-12,15H,13-14,16-17,23H2;1H",
        "InChIKey": null,
        "Canonical SMILES": "Cl.O(C1=CC=C(C=C1OCC=2C=CC=CC2)CCN)CC=3C=CC=CC3",
        "Molecular Formula": "C<sub>22</sub>H<sub>23</sub>NO<sub>2</sub>.ClH",
        "Molecular Mass": "",
        "Melting Point": "133 °C"
    }
}