{
    "cas_no": "400-76-0",
    "key_name": "4-Amino-3-(trifluoromethyl)benzoic acid",
    "cn_name": "4-氨基-3-三氟甲基苯甲酸;",
    "alternate_name": "Benzoic acid, 4-amino-3-(trifluoromethyl)-;<em>m</em>-Toluic acid, 4-amino-α,α,α-trifluoro-;4-Amino-3-(trifluoromethyl)benzoic acid;4-Amino-5-trifluoromethylbenzoic acid",
    "duplicated_cas_no": "",
    "SMILES": "C(F)(F)(F)C1=CC(C(O)=O)=CC=C1N",
    "meta_data": {
        "InChI": "InChI=1S/C8H6F3NO2/c9-8(10,11)5-3-4(7(13)14)1-2-6(5)12/h1-3H,12H2,(H,13,14)",
        "InChIKey": null,
        "Canonical SMILES": "O=C(O)C1=CC=C(N)C(=C1)C(F)(F)F",
        "Molecular Formula": "C<sub>8</sub>H<sub>6</sub>F<sub>3</sub>NO<sub>2</sub>",
        "Molecular Mass": "205.13",
        "Melting Point": "206-207 °C"
    }
}