{
    "cas_no": "21490-63-1",
    "key_name": "<em>trans</em>-2,3-Dimethyloxirane",
    "cn_name": "反-2,3-环氧丁烷;",
    "alternate_name": "Oxirane, 2,3-dimethyl-, (2<em>R</em>,3<em>R</em>)-<em>rel</em>-;Butane, 2,3-epoxy-, <em>trans</em>-;Oxirane, 2,3-dimethyl-, <em>trans</em>-;<em>rel</em>-(2<em>R</em>,3<em>R</em>)-2,3-Dimethyloxirane;<em>trans</em>-2-Butene oxide;<em>trans</em>-2,3-Dimethyloxirane;<em>trans</em>-2-Butylene oxide;<em>trans</em>-2,3-Epoxybutane;<em>trans</em>-2,3-Butylene oxide;(±)-<em>trans</em>-2,3-Dimethyloxirane;(±)-<em>trans</em>-2,3-Epoxybutane;<em>trans</em>-2,3-Butene oxide;NSC 24244;(2R*,3R*)-2,3-Dimethyloxirane",
    "duplicated_cas_no": "6189-41-9;10203-50-6",
    "SMILES": "C[C@H]1[C@H](C)O1",
    "meta_data": {
        "InChI": "InChI=1/C4H8O/c1-3-4(2)5-3/h3-4H,1-2H3/t3-,4-/s2",
        "InChIKey": null,
        "Canonical SMILES": "O1C(C)C1C",
        "Molecular Formula": "C<sub>4</sub>H<sub>8</sub>O",
        "Molecular Mass": "72.11",
        "Boiling Point": "56.5 °C",
        "Melting Point": "-85 °C",
        "Density": "0.8226 g/cm³ @ Temp: 25 °C"
    }
}