{
    "cas_no": "766-08-5",
    "key_name": "Methylphenylsilane",
    "cn_name": "甲苯基硅烷;",
    "alternate_name": "Benzene, (methylsilyl)-;Silane, methylphenyl-;(Methylsilyl)benzene;Methylphenylsilane;Phenylmethylsilane",
    "duplicated_cas_no": "",
    "SMILES": "[SiH2](C)C1=CC=CC=C1",
    "meta_data": {
        "InChI": "InChI=1S/C7H10Si/c1-8-7-5-3-2-4-6-7/h2-6H,8H2,1H3",
        "InChIKey": null,
        "Canonical SMILES": "C=1C=CC(=CC1)[SiH2]C",
        "Molecular Formula": "C<sub>7</sub>H<sub>10</sub>Si",
        "Molecular Mass": "122.24",
        "Boiling Point": "140 °C",
        "Density": "0.889 g/cm³"
    }
}