{
    "cas_no": "367-22-6",
    "key_name": "4-Chloro-3-fluorobenzenamine",
    "cn_name": "4-氯-3-氟苯胺;",
    "alternate_name": "Benzenamine, 4-chloro-3-fluoro-;Aniline, 4-chloro-3-fluoro-;4-Chloro-3-fluorobenzenamine;4-Chloro-3-fluoroaniline;3-Fluoro-4-chloroaniline;4-Chloro-3-fluorophenylamine;4-Chloro-3-fluorobenzeneamine;3-Fluoro-4-chlorobenzenamine",
    "duplicated_cas_no": "",
    "SMILES": "FC1=C(Cl)C=CC(N)=C1",
    "meta_data": {
        "InChI": "InChI=1S/C6H5ClFN/c7-5-2-1-4(9)3-6(5)8/h1-3H,9H2",
        "InChIKey": null,
        "Canonical SMILES": "FC1=CC(N)=CC=C1Cl",
        "Molecular Formula": "C<sub>6</sub>H<sub>5</sub>ClFN",
        "Molecular Mass": "145.56",
        "Boiling Point": "226 °C",
        "Melting Point": "61-62 °C"
    }
}