{
    "cas_no": "70775-75-6",
    "key_name": "Octenidine dihydrochloride",
    "cn_name": null,
    "alternate_name": "1-Octanamine, <em>N</em>,<em>N</em>′-(1,10-decanediyldi-1(4<em>H</em>)-pyridinyl-4-ylidene)bis-, hydrochloride (1:2);1-Octanamine, <em>N</em>,<em>N</em>′-(1,10-decanediyldi-1(4<em>H</em>)-pyridinyl-4-ylidene)bis-, dihydrochloride;Octenidine hydrochloride;Octeniderm;Octenidine dihydrochloride;Neo Kodan;Win 41464-2;Octenilin;Octenidol;Octenidine 2HCl;Pyridinium, 1,1′-(1,10-decanediyl)bis[4-(octylamino)-, chloride (1:2)",
    "duplicated_cas_no": "",
    "SMILES": "C(CCCCCCCCCN1C=CC(=NCCCCCCCC)C=C1)N2C=CC(=NCCCCCCCC)C=C2.Cl",
    "meta_data": {
        "InChI": "InChI=1S/C36H62N4.2ClH/c1-3-5-7-9-15-19-27-37-35-23-31-39(32-24-35)29-21-17-13-11-12-14-18-22-30-40-33-25-36(26-34-40)38-28-20-16-10-8-6-4-2;;/h23-26,31-34H,3-22,27-30H2,1-2H3;2*1H",
        "InChIKey": null,
        "Canonical SMILES": "Cl.N(=C1C=CN(C=C1)CCCCCCCCCCN2C=CC(=NCCCCCCCC)C=C2)CCCCCCCC",
        "Molecular Formula": "C<sub>36</sub>H<sub>62</sub>N<sub>4</sub>.2ClH",
        "Molecular Mass": "",
        "Melting Point": "215-217 °C"
    }
}