{
    "cas_no": "3749-51-7",
    "key_name": "4-Hydroxy-6-methyl-2(1<em>H</em>)-pyridinone",
    "cn_name": null,
    "alternate_name": "2(1<em>H</em>)-Pyridinone, 4-hydroxy-6-methyl-;2(1<em>H</em>)-Pyridone, 4-hydroxy-6-methyl-;4-Hydroxy-6-methyl-2(1<em>H</em>)-pyridinone;4-Hydroxy-6-methyl-2-pyridone;2-Picoline-4,6-diol;4-Hydroxy-6-methyl-2(1<em>H</em>)-pyridone;2,4-Dihydroxy-6-methylpyridine;NSC 110283;4-Hydroxy-6-methyl-1<em>H</em>-pyridin-2-one;4-Hydroxy-6-methylpyridin-2(1<em>H</em>)-one",
    "duplicated_cas_no": "4664-15-7",
    "SMILES": "OC=1C=C(C)NC(=O)C1",
    "meta_data": {
        "InChI": "InChI=1S/C6H7NO2/c1-4-2-5(8)3-6(9)7-4/h2-3H,1H3,(H2,7,8,9)",
        "InChIKey": null,
        "Canonical SMILES": "O=C1C=C(O)C=C(N1)C",
        "Molecular Formula": "C<sub>6</sub>H<sub>7</sub>NO<sub>2</sub>",
        "Molecular Mass": "125.13",
        "Melting Point": "320 °C (decomp)"
    }
}