{
    "cas_no": "99-09-2",
    "key_name": "3-Nitroaniline",
    "cn_name": "3-硝基苯胺;间硝基苯胺;",
    "alternate_name": "Benzenamine, 3-nitro-;Aniline, <em>m</em>-nitro-;3-Nitrobenzenamine;C.I. 37030;Amarthol Fast Orange R Base;Azobase MNA;Daito Orange Base R;Devol Orange R;Diazo Fast Orange R;Fast Orange M Base;Fast Orange R Base;Fast Orange MM Base;Hiltonil Fast Orange R Base;Fast Orange Base R;MNA;Naphtoelan Orange R Base;<em>m</em>-Nitroaniline;Orange Base Irga I;3-Nitroaniline;C.I. Azoic Diazo Component 7;Fast Orange R Salt;<em>m</em>-Nitrophenylamine;Nitranilin;1-Amino-3-nitrobenzene;<em>m</em>-Aminonitrobenzene;<em>m</em>-Nitroaminobenzene;<em>meta</em>-Nitroaniline;3-Aminonitrobenzene;3-Nitrophenylamine;NSC 9574;<em>m</em>-Aminonitrobenze",
    "duplicated_cas_no": "12262-63-4",
    "SMILES": "N(=O)(=O)C1=CC(N)=CC=C1",
    "meta_data": {
        "InChI": "InChI=1S/C6H6N2O2/c7-5-2-1-3-6(4-5)8(9)10/h1-4H,7H2",
        "InChIKey": null,
        "Canonical SMILES": "O=N(=O)C=1C=CC=C(N)C1",
        "Molecular Formula": "C<sub>6</sub>H<sub>6</sub>N<sub>2</sub>O<sub>2</sub>",
        "Molecular Mass": "138.12",
        "Boiling Point": "306 °C",
        "Melting Point": "114 °C",
        "Density": "0.9011 g/cm³ @ Temp: 25 °C"
    }
}