{
    "cas_no": "587-33-7",
    "key_name": "<span class=\"text-smallcaps\">L</span>-<em>m</em>-Tyrosine",
    "cn_name": "L-m-酪氨酸;",
    "alternate_name": "<span class=\"text-smallcaps\">L</span>-Phenylalanine, 3-hydroxy-;<em>m</em>-Tyrosine, <span class=\"text-smallcaps\">L</span>-;3-Hydroxy-<span class=\"text-smallcaps\">L</span>-phenylalanine;3-(<em>m</em>-Hydroxyphenyl)alanine;<span class=\"text-smallcaps\">L</span>-<em>m</em>-Tyrosine;3-Hydroxyphenylalanine;<em>m</em>-<span class=\"text-smallcaps\">L</span>-Tyrosine;<span class=\"text-smallcaps\">L</span>-<em>meta</em>-Tyrosine;<span class=\"text-smallcaps\">L</span>-3-Hydroxyphenylalanine;(<em>S</em>)-2-Amino-3-(3-hydroxyphenyl)propanoic acid;(2S)-2-Amino-3-(3-hydroxyphenyl)propanoic acid",
    "duplicated_cas_no": "29562-33-2",
    "SMILES": "C([C@@H](C(O)=O)N)C1=CC(O)=CC=C1",
    "meta_data": {
        "InChI": "InChI=1S/C9H11NO3/c10-8(9(12)13)5-6-2-1-3-7(11)4-6/h1-4,8,11H,5,10H2,(H,12,13)/t8-/m0/s1",
        "InChIKey": null,
        "Canonical SMILES": "O=C(O)C(N)CC=1C=CC=C(O)C1",
        "Molecular Formula": "C<sub>9</sub>H<sub>11</sub>NO<sub>3</sub>",
        "Molecular Mass": "181.19",
        "Melting Point": "268 °C (decomp)"
    }
}