{
    "cas_no": "1660-94-2",
    "key_name": "Tetraethyl methylenediphosphonate",
    "cn_name": "四乙基亚甲基二磷酸脂;",
    "alternate_name": "Phosphonic acid, <em>P</em>,<em>P</em>′-methylenebis-, <em>P</em>,<em>P</em>,<em>P</em>′,<em>P</em>′-tetraethyl ester;Phosphonic acid, methylenedi-, tetraethyl ester;Phosphonic acid, methylenebis-, tetraethyl ester;Methylenebis(diethoxyphosphine oxide);Tetraethyl methylenediphosphonate;Methylenediphosphonic acid tetraethyl ester;Bis(diethylphosphono)methane;Tetraethyl methylenebisphosphonate;Methanediphosphonic acid tetraethyl ester;Methylenebis(diethyl phosphonate);Methylenebis(phosphonic acid) tetraethyl ester;Tetraethyl methylidenebisphosphonate;NSC 133889;1-[Diethoxyphosphorylmethyl(ethoxy)phosphoryl]oxyethane",
    "duplicated_cas_no": "",
    "SMILES": "C(P(OCC)(OCC)=O)P(OCC)(OCC)=O",
    "meta_data": {
        "InChI": "InChI=1S/C9H22O6P2/c1-5-12-16(10,13-6-2)9-17(11,14-7-3)15-8-4/h5-9H2,1-4H3",
        "InChIKey": null,
        "Canonical SMILES": "O=P(OCC)(OCC)CP(=O)(OCC)OCC",
        "Molecular Formula": "C<sub>9</sub>H<sub>22</sub>O<sub>6</sub>P<sub>2</sub>",
        "Molecular Mass": "288.21",
        "Boiling Point": "143 °C @ Press: 1.5 Torr",
        "Density": "1.167 g/cm³ @ Temp: 20 °C"
    }
}