{
    "cas_no": "654671-78-0",
    "key_name": "Sitagliptin phosphate",
    "cn_name": "磷酸西他列汀;4-氧代-4-(3-三氟甲基-5,6-二氢(1,2,4)三唑并[4,3-a]吡嗪-7(8H)-基)-1-(2,4,5-三氟苯基)丁-2-;",
    "alternate_name": "1-Butanone, 3-amino-1-[5,6-dihydro-3-(trifluoromethyl)-1,2,4-triazolo[4,3-<em>a</em>]pyrazin-7(8<em>H</em>)-yl]-4-(2,4,5-trifluorophenyl)-, (3<em>R</em>)-, phosphate (1:1);1,2,4-Triazolo[4,3-<em>a</em>]pyrazine, 7-[(3<em>R</em>)-3-amino-1-oxo-4-(2,4,5-trifluorophenyl)butyl]-5,6,7,8-tetrahydro-3-(trifluoromethyl)-, phosphate (1:1);MK 0431;MK 431;Sitagliptin phosphate;Januvia;Glactiv",
    "duplicated_cas_no": "790712-60-6",
    "SMILES": "C(F)(F)(F)C=1N2C(CN(C(C[C@@H](CC3=C(F)C=C(F)C(F)=C3)N)=O)CC2)=NN1.P(=O)(O)(O)O",
    "meta_data": {
        "InChI": "InChI=1S/C16H15F6N5O.H3O4P/c17-10-6-12(19)11(18)4-8(10)3-9(23)5-14(28)26-1-2-27-13(7-26)24-25-15(27)16(20,21)22;1-5(2,3)4/h4,6,9H,1-3,5,7,23H2;(H3,1,2,3,4)/t9-;/m1./s1",
        "InChIKey": null,
        "Canonical SMILES": "O=C(N1CC2=NN=C(N2CC1)C(F)(F)F)CC(N)CC3=CC(F)=C(F)C=C3F.O=P(O)(O)O",
        "Molecular Formula": "C<sub>16</sub>H<sub>15</sub>F<sub>6</sub>N<sub>5</sub>O.H<sub>3</sub>O<sub>4</sub>P",
        "Molecular Mass": "",
        "Melting Point": "215-217 °C"
    }
}