{
    "cas_no": "6860-47-5",
    "key_name": "Xylobiose",
    "cn_name": "木二糖;木二糖;",
    "alternate_name": "<span class=\"text-smallcaps\">D</smallcap>-Xylose, 4-<em>O</em>-β-<smallcap>D</span>-xylopyranosyl-;Xylobiose;4-<em>O</em>-β-<span class=\"text-smallcaps\">D</smallcap>-Xylopyranosyl-<smallcap>D</span>-xylose;1,4-β-Xylobiose",
    "duplicated_cas_no": "",
    "SMILES": "O([C@@H]([C@@H]([C@H](C=O)O)O)CO)[C@H]1[C@H](O)[C@@H](O)[C@H](O)CO1",
    "meta_data": {
        "InChI": "InChI=1S/C10H18O9/c11-1-4(13)7(15)6(2-12)19-10-9(17)8(16)5(14)3-18-10/h1,4-10,12-17H,2-3H2/t4-,5+,6+,7+,8-,9+,10-/m0/s1",
        "InChIKey": null,
        "Canonical SMILES": "O=CC(O)C(O)C(OC1OCC(O)C(O)C1O)CO",
        "Molecular Formula": "C<sub>10</sub>H<sub>18</sub>O<sub>9</sub>",
        "Molecular Mass": "282.24",
        "Melting Point": "186-187 °C"
    }
}