{
    "cas_no": "4027-57-0",
    "key_name": "5-Methyl-1<em>H</em>-pyrazole-3-carboxylic acid ethyl ester",
    "cn_name": "3-甲基吡唑-5-甲酸乙酯;",
    "alternate_name": "1<em>H</em>-Pyrazole-3-carboxylic acid, 5-methyl-, ethyl ester;Pyrazole-3-carboxylic acid, 5-methyl-, ethyl ester;Pyrazole-3(<em>or</em> 5)-carboxylic acid, 5(<em>or</em> 3)-methyl-, ethyl ester;Ethyl 3-methyl-5-pyrazolecarboxylate;Ethyl 5-methylpyrazole-3-carboxylate;3-Ethoxycarbonyl-5-methylpyrazole;5-Methyl-1<em>H</em>-pyrazole-3-carboxylic acid ethyl ester;NSC 44006;NSC 62433;5-Methylpyrazole-3-carboxylic acid ethyl ester;Ethyl 5-methyl-1<em>H</em>-pyrazole-3-carboxylate",
    "duplicated_cas_no": "129506-37-2;133261-00-4;136679-07-7;141665-26-1;17599-24-5;84501-66-6;89239-81-6;681468-22-4;684287-97-6;695184-13-5;741706-00-3;856691-69-5;174198-27-7;209601-45-6;278798-26-8;890719-15-0;1096969-08-2",
    "SMILES": "C(OCC)(=O)C1=NNC(C)=C1",
    "meta_data": {
        "InChI": "InChI=1S/C7H10N2O2/c1-3-11-7(10)6-4-5(2)8-9-6/h4H,3H2,1-2H3,(H,8,9)",
        "InChIKey": null,
        "Canonical SMILES": "O=C(OCC)C1=NNC(=C1)C",
        "Molecular Formula": "C<sub>7</sub>H<sub>10</sub>N<sub>2</sub>O<sub>2</sub>",
        "Molecular Mass": "154.17",
        "Melting Point": "82 °C"
    }
}