{
    "cas_no": "25369-33-9",
    "key_name": "7-Chloro-1,3-dihydro-2<em>H</em>-indol-2-one",
    "cn_name": null,
    "alternate_name": "2<em>H</em>-Indol-2-one, 7-chloro-1,3-dihydro-;2-Indolinone, 7-chloro-;7-Chloro-1,3-dihydro-2<em>H</em>-indol-2-one;7-Chloro-2-oxoindoline;7-Chlorooxindole;7-Chloro-1,3-dihydroindol-2-one;7-Chloroindolin-2-one;7-Chloro-2-oxindole",
    "duplicated_cas_no": "",
    "SMILES": "ClC1=C2C(CC(=O)N2)=CC=C1",
    "meta_data": {
        "InChI": "InChI=1S/C8H6ClNO/c9-6-3-1-2-5-4-7(11)10-8(5)6/h1-3H,4H2,(H,10,11)",
        "InChIKey": null,
        "Canonical SMILES": "O=C1NC=2C(Cl)=CC=CC2C1",
        "Molecular Formula": "C<sub>8</sub>H<sub>6</sub>ClNO",
        "Molecular Mass": "167.59",
        "Melting Point": "215 °C"
    }
}