{
    "cas_no": "619-33-0",
    "key_name": "Dichloroacetaldehyde diethyl acetal",
    "cn_name": "2,2-二氯-1,1-二乙氧基乙烷;",
    "alternate_name": "Ethane, 1,1-dichloro-2,2-diethoxy-;Acetaldehyde, dichloro-, diethyl acetal;1,1-Dichloro-2,2-diethoxyethane;Dichloroacetaldehyde diethyl acetal;2,2-Dichloro-1,1-diethoxyethane",
    "duplicated_cas_no": "",
    "SMILES": "C(OCC)(OCC)C(Cl)Cl",
    "meta_data": {
        "InChI": "InChI=1S/C6H12Cl2O2/c1-3-9-6(5(7)8)10-4-2/h5-6H,3-4H2,1-2H3",
        "InChIKey": null,
        "Canonical SMILES": "ClC(Cl)C(OCC)OCC",
        "Molecular Formula": "C<sub>6</sub>H<sub>12</sub>Cl<sub>2</sub>O<sub>2</sub>",
        "Molecular Mass": "187.06",
        "Boiling Point": "183.5 °C",
        "Density": "1.157 g/cm³ @ Temp: 25 °C"
    }
}