{
    "cas_no": "2469-45-6",
    "key_name": "Dodecyl sulfide",
    "cn_name": "正十二烷基硫醚;",
    "alternate_name": "Dodecane, 1,1′-thiobis-;Dodecyl sulfide;1,1′-Thiobis[dodecane];Didodecyl sulfide;Dilauryl sulfide;<em>n</em>-Dodecyl sulfide;Bis(<em>n</em>-dodecyl) sulfide;Bis(dodecyl) sulfide;Di-<em>n</em>-dodecyl sulfide;NSC 12039;1-Dodecylsulfanyldodecane",
    "duplicated_cas_no": "",
    "SMILES": "S(CCCCCCCCCCCC)CCCCCCCCCCCC",
    "meta_data": {
        "InChI": "InChI=1S/C24H50S/c1-3-5-7-9-11-13-15-17-19-21-23-25-24-22-20-18-16-14-12-10-8-6-4-2/h3-24H2,1-2H3",
        "InChIKey": null,
        "Canonical SMILES": "S(CCCCCCCCCCCC)CCCCCCCCCCCC",
        "Molecular Formula": "C<sub>24</sub>H<sub>50</sub>S",
        "Molecular Mass": "370.72",
        "Melting Point": "40 °C"
    }
}