{
    "cas_no": "3330-14-1",
    "key_name": "1-[1-[Difluoro(1,2,2,2-tetrafluoroethoxy)methyl]-1,2,2,2-tetrafluoroethoxy]-1,1,2,2,3,3,3-heptafluoropropane",
    "cn_name": "2H-全氟(5-甲基-3,6-二氧杂壬烷);",
    "alternate_name": "Propane, 1-[1-[difluoro(1,2,2,2-tetrafluoroethoxy)methyl]-1,2,2,2-tetrafluoroethoxy]-1,1,2,2,3,3,3-heptafluoro-;Propane, 1,1,1,2,3,3-hexafluoro-2-(heptafluoropropoxy)-3-(1,2,2,2-tetrafluoroethoxy)-;1-[1-[Difluoro(1,2,2,2-tetrafluoroethoxy)methyl]-1,2,2,2-tetrafluoroethoxy]-1,1,2,2,3,3,3-heptafluoropropane;2<em>H</em>-Perfluoro(5-methyl-3,6-dioxanonane);Freon E 2;Polyether E 2;1,1,1,2,3,3-Hexafluoro-2-(heptafluoropropoxy)-3-(1,2,2,2-tetrafluoroethoxy)-propane;1,1,1,2,3,3-Hexafluoro-2-(1,1,2,2,3,3,3-heptafluoropropoxy)-3-(1,2,2,2-tetrafluoroethoxy)propane",
    "duplicated_cas_no": "",
    "SMILES": "C(OC(C(C(F)(F)F)(F)F)(F)F)(C(OC(C(F)(F)F)F)(F)F)(C(F)(F)F)F",
    "meta_data": {
        "InChI": "InChI=1S/C8HF17O2/c9-1(2(10,11)12)26-8(24,25)4(15,6(19,20)21)27-7(22,23)3(13,14)5(16,17)18/h1H",
        "InChIKey": null,
        "Canonical SMILES": "FC(OC(F)(F)C(F)(OC(F)(F)C(F)(F)C(F)(F)F)C(F)(F)F)C(F)(F)F",
        "Molecular Formula": "C<sub>8</sub>HF<sub>17</sub>O<sub>2</sub>",
        "Molecular Mass": "452.07",
        "Boiling Point": "99-101 °C"
    }
}