{
    "cas_no": "12002-99-2",
    "key_name": "Silver telluride (Ag<sub>2</sub>Te)",
    "cn_name": null,
    "alternate_name": "Silver telluride (Ag<sub>2</sub>Te);Disilver telluride;Silver(1+) telluride;Silver telluride (Ag<sub>0.67</sub>Te<sub>0.33</sub>);Silver telluride",
    "duplicated_cas_no": "2323616-71-1",
    "SMILES": "[Te]([Ag])[Ag]",
    "meta_data": {
        "InChI": "InChI=1S/2Ag.Te",
        "InChIKey": null,
        "Canonical SMILES": "[Ag][Te][Ag]",
        "Molecular Formula": "Ag<sub>2</sub>Te",
        "Molecular Mass": "",
        "Melting Point": "959 °C",
        "Density": "8.08 g/cm³"
    }
}