{
    "cas_no": "110-25-8",
    "key_name": "Oleoylsarcosine",
    "cn_name": null,
    "alternate_name": "Glycine, <em>N</em>-methyl-<em>N</em>-[(9<em>Z</em>)-1-oxo-9-octadecen-1-yl]-;Sarcosine, <em>N</em>-oleoyl-;Glycine, <em>N</em>-methyl-<em>N</em>-(1-oxo-9-octadecenyl)-, (<em>Z</em>)-;Glycine, <em>N</em>-methyl-<em>N</em>-[(9<em>Z</em>)-1-oxo-9-octadecenyl]-;<em>N</em>-Methyl-<em>N</em>-[(9<em>Z</em>)-1-oxo-9-octadecen-1-yl]glycine;Sarkosyl O;<em>N</em>-Oleoylsarcosine;Oleoylsarcosine;Medialanic acid;Oleic sarcosine;Hamposyl O;Oleoyl <em>N</em>-methylaminoacetic acid;Oleyl methylaminoethanoic acid;Oleyl <em>N</em>-methylglycine;Maprosyl O;<em>N</em>-Oleylsarcosine;Nikkol Sarcosinate OH;Cordesin O;Sarcosinate VH;Nikkol Sarcosinate VH;221P;Sarcosinate OH;Oleic sarcoside;Perlastan OCV;<em>N</em>-Oleoyl sarcosinate;Crodasinic O;Esleam 221P;2-(<em>N</em>-Methyloleamido)acetic acid;Nikkol Sarcosinate OHV",
    "duplicated_cas_no": "57368-03-3;2230958-89-9",
    "SMILES": "C(CCCCCC/C=C\\CCCCCCCC)C(N(CC(O)=O)C)=O",
    "meta_data": {
        "InChI": "InChI=1S/C21H39NO3/c1-3-4-5-6-7-8-9-10-11-12-13-14-15-16-17-18-20(23)22(2)19-21(24)25/h10-11H,3-9,12-19H2,1-2H3,(H,24,25)/b11-10-",
        "InChIKey": null,
        "Canonical SMILES": "O=C(O)CN(C(=O)CCCCCCCC=CCCCCCCCC)C",
        "Molecular Formula": "C<sub>21</sub>H<sub>39</sub>NO<sub>3</sub>",
        "Molecular Mass": "353.54",
        "Melting Point": "16.1-17.0 °C"
    }
}