{
    "cas_no": "2633-67-2",
    "key_name": "<em>p</em>-Styrenesulfonyl chloride",
    "cn_name": "对-苯乙烯磺酰氯;",
    "alternate_name": "Benzenesulfonyl chloride, 4-ethenyl-;Benzenesulfonyl chloride, <em>p</em>-vinyl-;4-Ethenylbenzenesulfonyl chloride;<em>p</em>-Vinylbenzenesulfonyl chloride;<em>p</em>-Styrenesulfonyl chloride;4-Styrenesulfonyl chloride;4-Vinylbenzenesulfonyl chloride;4-(Chlorosulfonyl)styrene;4-Vinylbenzene-1-sulfonyl chloride;<em>p</em>-Vinylphenylsulfonyl chloride",
    "duplicated_cas_no": "",
    "SMILES": "S(Cl)(=O)(=O)C1=CC=C(C=C)C=C1",
    "meta_data": {
        "InChI": "InChI=1S/C8H7ClO2S/c1-2-7-3-5-8(6-4-7)12(9,10)11/h2-6H,1H2",
        "InChIKey": null,
        "Canonical SMILES": "O=S(=O)(Cl)C1=CC=C(C=C)C=C1",
        "Molecular Formula": "C<sub>8</sub>H<sub>7</sub>ClO<sub>2</sub>S",
        "Molecular Mass": "202.66",
        "Boiling Point": "128-130 °C @ Press: 4 Torr",
        "Melting Point": "86 °C",
        "Density": "1.3060 g/cm³ @ Temp: 20 °C"
    }
}