{
    "cas_no": "15869-85-9",
    "key_name": "5-Methylnonane",
    "cn_name": "5-甲基壬烷;",
    "alternate_name": "Nonane, 5-methyl-;5-Methylnonane",
    "duplicated_cas_no": "",
    "SMILES": "C(CCCC)(CCCC)C",
    "meta_data": {
        "InChI": "InChI=1S/C10H22/c1-4-6-8-10(3)9-7-5-2/h10H,4-9H2,1-3H3",
        "InChIKey": null,
        "Canonical SMILES": "CCCCC(C)CCCC",
        "Molecular Formula": "C<sub>10</sub>H<sub>22</sub>",
        "Molecular Mass": "142.28",
        "Boiling Point": "165.1 °C",
        "Melting Point": "-87.7 °C",
        "Density": "0.738 g/cm³"
    }
}