{
    "cas_no": "394-28-5",
    "key_name": "2-Bromo-5-fluorobenzoic acid",
    "cn_name": "2-溴-5-氟苯甲酸;",
    "alternate_name": "Benzoic acid, 2-bromo-5-fluoro-;2-Bromo-5-fluorobenzoic acid;5-Fluoro-2-bromobenzoic acid",
    "duplicated_cas_no": "",
    "SMILES": "C(O)(=O)C1=C(Br)C=CC(F)=C1",
    "meta_data": {
        "InChI": "InChI=1S/C7H4BrFO2/c8-6-2-1-4(9)3-5(6)7(10)11/h1-3H,(H,10,11)",
        "InChIKey": null,
        "Canonical SMILES": "O=C(O)C1=CC(F)=CC=C1Br",
        "Molecular Formula": "C<sub>7</sub>H<sub>4</sub>BrFO<sub>2</sub>",
        "Molecular Mass": "219.01",
        "Melting Point": "151 °C"
    }
}