{
    "cas_no": "18162-48-6",
    "key_name": "<em>tert</em>-Butyldimethylsilyl chloride",
    "cn_name": "叔丁基二甲基氯硅烷;",
    "alternate_name": "Silane, chloro(1,1-dimethylethyl)dimethyl-;Silane, chloro-<em>tert</em>-butyldimethyl-;Chloro(1,1-dimethylethyl)dimethylsilane;Dimethyl-<em>tert</em>-butylchlorosilane;(1,1-Dimethylethyl)dimethylsilyl chloride;<em>tert</em>-Butyldimethylsilyl chloride;<em>tert</em>-Butyldimethylchlorosilane;Chlorodimethyl-<em>tert</em>-butylsilane;Chloro-<em>tert</em>-butyldimethylsilane;Dimethyl(1,1-dimethylethyl)chlorosilane;Dimethyl-<em>tert</em>-butylsilyl chloride;TBDMS chloride;<em>tert</em>-Butylchlorodimethylsilane;t-Butyldimethylchlorosilane;TBDMS-Cl;<em>tert</em>-Butyl(dimethyl)silane chloride;2-(Chlorodimethylsilyl)-2-methylpropane;TBSCl;LS 1190;2-[4-(TertButyldimethylsilanyloxy)phenyl] chloride",
    "duplicated_cas_no": "132560-73-7;187979-91-5",
    "SMILES": "C([Si](C)(C)Cl)(C)(C)C",
    "meta_data": {
        "InChI": "InChI=1S/C6H15ClSi/c1-6(2,3)8(4,5)7/h1-5H3",
        "InChIKey": null,
        "Canonical SMILES": "Cl[Si](C)(C)C(C)(C)C",
        "Molecular Formula": "C<sub>6</sub>H<sub>15</sub>ClSi",
        "Molecular Mass": "150.72",
        "Boiling Point": "126 °C",
        "Melting Point": "86-88 °C (sublm)",
        "Density": "0.872 g/cm³"
    }
}