{
    "cas_no": "1194-98-5",
    "key_name": "2,5-Dihydroxybenzaldehyde",
    "cn_name": "2,5-二羟基苯甲醛;",
    "alternate_name": "Benzaldehyde, 2,5-dihydroxy-;Gentisaldehyde;2,5-Dihydroxybenzaldehyde;5-Hydroxysalicylaldehyde;Formylhydroquinone;NSC 72387",
    "duplicated_cas_no": "",
    "SMILES": "C(=O)C1=C(O)C=CC(O)=C1",
    "meta_data": {
        "InChI": "InChI=1S/C7H6O3/c8-4-5-3-6(9)1-2-7(5)10/h1-4,9-10H",
        "InChIKey": null,
        "Canonical SMILES": "O=CC1=CC(O)=CC=C1O",
        "Molecular Formula": "C<sub>7</sub>H<sub>6</sub>O<sub>3</sub>",
        "Molecular Mass": "138.12",
        "Melting Point": "277 °C"
    }
}