{
    "cas_no": "24317-94-0",
    "key_name": "Heptanoic acid, 2-acetyl-, ethyl ester",
    "cn_name": "2-戊基乙酰乙酸乙酯;2-乙酰基庚酸乙酯;",
    "alternate_name": "Heptanoic acid, 2-acetyl-, ethyl ester;Enanthic acid, α-acetyl-, ethyl ester;Ethyl α-<em>n</em>-amylacetoacetate;Ethyl 2-pentylacetoacetate;Ethyl α-amylacetoacetate;Ethyl α-pentylacetoacetate;Ethyl 2-acetylheptanoate;NSC 67887",
    "duplicated_cas_no": "",
    "SMILES": "C(C(OCC)=O)(CCCCC)C(C)=O",
    "meta_data": {
        "InChI": "InChI=1S/C11H20O3/c1-4-6-7-8-10(9(3)12)11(13)14-5-2/h10H,4-8H2,1-3H3",
        "InChIKey": null,
        "Canonical SMILES": "O=C(OCC)C(C(=O)C)CCCCC",
        "Molecular Formula": "C<sub>11</sub>H<sub>20</sub>O<sub>3</sub>",
        "Molecular Mass": "200.27",
        "Boiling Point": "160-180 °C @ Press: 20 Torr",
        "Density": "0.9232 g/cm³ @ Temp: 30 °C"
    }
}