{
    "cas_no": "15667-63-7",
    "key_name": "Acrolein cyanohydrin acetate",
    "cn_name": "1-氰基-2-丙烯基乙酸酯;",
    "alternate_name": "3-Butenenitrile, 2-(acetyloxy)-;3-Butenenitrile, 2-hydroxy-, acetate (ester);3-Butenenitrile, 2-hydroxy-, acetate;2-(Acetyloxy)-3-butenenitrile;Acrolein cyanohydrin acetate;1-Cyano-2-propenyl acetate;NSC 46585;1-Cyano-2-propen-1-yl acetate;1-Cyanoallyl acetate;2-Acetoxy-3-butenenitrile",
    "duplicated_cas_no": "",
    "SMILES": "C(OC(C)=O)(C=C)C#N",
    "meta_data": {
        "InChI": "InChI=1S/C6H7NO2/c1-3-6(4-7)9-5(2)8/h3,6H,1H2,2H3",
        "InChIKey": null,
        "Canonical SMILES": "N#CC(OC(=O)C)C=C",
        "Molecular Formula": "C<sub>6</sub>H<sub>7</sub>NO<sub>2</sub>",
        "Molecular Mass": "125.13",
        "Boiling Point": "63-65 °C @ Press: 10 Torr"
    }
}