{
    "cas_no": "2369-11-1",
    "key_name": "5-Fluoro-2-nitrobenzenamine",
    "cn_name": "5-氟-2-硝基苯胺;",
    "alternate_name": "Benzenamine, 5-fluoro-2-nitro-;Aniline, 5-fluoro-2-nitro-;5-Fluoro-2-nitrobenzenamine;5-Fluoro-2-nitroaniline;5-Fluoro-2-nitrophenylamine;NSC 10292;3-Fluoro-6-nitroaniline",
    "duplicated_cas_no": "",
    "SMILES": "N(=O)(=O)C1=C(N)C=C(F)C=C1",
    "meta_data": {
        "InChI": "InChI=1S/C6H5FN2O2/c7-4-1-2-6(9(10)11)5(8)3-4/h1-3H,8H2",
        "InChIKey": null,
        "Canonical SMILES": "O=N(=O)C1=CC=C(F)C=C1N",
        "Molecular Formula": "C<sub>6</sub>H<sub>5</sub>FN<sub>2</sub>O<sub>2</sub>",
        "Molecular Mass": "156.11",
        "Melting Point": "97 °C"
    }
}