{
    "cas_no": "5848-24-8",
    "key_name": "Methyl <em>N</em>-cyano-<em>N</em>′-methylcarbamimidothioate",
    "cn_name": "N-腈-N,S-二甲基异硫脲;",
    "alternate_name": "Carbamimidothioic acid, <em>N</em>-cyano-<em>N</em>′-methyl-, methyl ester;Pseudourea, 3-cyano-1,2-dimethyl-2-thio-;Pseudourea, 1-cyano-2,3-dimethyl-2-thio-;Methyl <em>N</em>-cyano-<em>N</em>′-methylcarbamimidothioate;<em>N</em>-Cyano-<em>N</em>′,<em>S</em>-dimethylisothiourea;1-Cyano-2,3-dimethyl-2-thiopseudourea",
    "duplicated_cas_no": "",
    "SMILES": "C(=NC#N)(NC)SC",
    "meta_data": {
        "InChI": "InChI=1S/C4H7N3S/c1-6-4(8-2)7-3-5/h1-2H3,(H,6,7)",
        "InChIKey": null,
        "Canonical SMILES": "N#CN=C(SC)NC",
        "Molecular Formula": "C<sub>4</sub>H<sub>7</sub>N<sub>3</sub>S",
        "Molecular Mass": "129.18",
        "Melting Point": "196 °C (decomp)"
    }
}