{
    "cas_no": "230-46-6",
    "key_name": "1,7-Phenanthroline",
    "cn_name": null,
    "alternate_name": "1,7-Phenanthroline;<em>m</em>-Phenanthroline;4,10-Phenanthroline;Pyrido[2,3-<em>f</em>]quinoline;1,5-Diazaphenanthrene;NSC 35679",
    "duplicated_cas_no": "",
    "SMILES": "C12=C3C(=CC=C1N=CC=C2)C=CC=N3",
    "meta_data": {
        "InChI": "InChI=1S/C12H8N2/c1-3-9-5-6-11-10(4-2-7-13-11)12(9)14-8-1/h1-8H",
        "InChIKey": null,
        "Canonical SMILES": "N1=CC=CC=2C1=CC=C3C=CC=NC32",
        "Molecular Formula": "C<sub>12</sub>H<sub>8</sub>N<sub>2</sub>",
        "Molecular Mass": "180.21",
        "Boiling Point": "360 °C",
        "Melting Point": "78 °C"
    }
}