{
    "uri": "substance/pt/9000902",
    "rn": "9000-90-2",
    "name": "α-Amylase",
    "images": [],
    "inchi": "",
    "inchiKey": "",
    "smile": "",
    "canonicalSmile": "",
    "molecularFormula": "Unspecified",
    "molecularMass": "",
    "experimentalProperties": [
        {
            "name": "Melting Point",
            "property": "66-73 °C",
            "sourceNumber": 1
        }
    ],
    "propertyCitations": [
        {
            "docUri": "document/pt/document/6477194",
            "sourceNumber": 1,
            "source": "Mishra, Ravi S.; Journal of Biosciences (Bangalore, India), (1996), 21(5), 653-672, CAplus"
        }
    ],
    "synonyms": [
        "α-Amylase",
        "Amylase, α-",
        "E.C. 3.2.1.1",
        "Buclamase",
        "Fortizyme",
        "Amylopsin",
        "Maxilase",
        "Amylase THC 250",
        "Maxamyl",
        "Ptyalin",
        "Clarase",
        "Bactosol TK",
        "Spitase CP 1",
        "Takatherm",
        "Pivozin",
        "Thermolase",
        "Endoamylase",
        "Kleistase L 1",
        "G 995",
        "Kokugen K",
        "Hitempase",
        "Canalpha 600L",
        "Tanase",
        "G<sub>6</sub>-Amylase",
        "Kleistase T 5",
        "Takalite",
        "Denazyme SA 7",
        "BAN 240",
        "Amylase AD",
        "Speedase HS",
        "Speedase XP 404",
        "Amylogal CS",
        "Takalite L 340",
        "Speedase M",
        "Termamyl",
        "Kleistase KD",
        "WC 8",
        "Termamyl 120L",
        "Termamyl 60L",
        "Amylolisin 5",
        "BAN 120L",
        "Maxamyl HT 3000",
        "Maltogenase 4000L",
        "Sumizyme L",
        "Maxamyl WL 15000",
        "Termamyl 60T",
        "Plurafact Oxam",
        "Biotex GT",
        "Biozyme F",
        "Purafact Ox Am",
        "Bioprep TBS",
        "Termamyl 120T",
        "G-zyme G 995",
        "Fungamyl 300L",
        "Bioferm P",
        "Canalpha 1000P",
        "Biobake 40000",
        "Veron GX",
        "FD Super",
        "Thermozyme",
        "Ban",
        "Maxaliq S",
        "Maltogenase",
        "Fungamyl",
        "Fungamyl 800L",
        "Ban (enzyme)",
        "Speedase PG 2",
        "Aquazyme 240",
        "Brewers Amylique TS",
        "Canalpha 60P",
        "Desize 160",
        "Maxamyl 15,000 CXT",
        "Maxamyl CXT 5000",
        "Fungamyl 2500BG",
        "Termamyl LS",
        "Beisol T 2090",
        "Speedase CP 40",
        "Grindamyl FD 11",
        "Spezyme Delta AA",
        "Amylosubtilin",
        "Thermosize 10L",
        "Grindamyl max-life 25",
        "Hitempase 2XL",
        "Bioferm",
        "Spitase CP 40FG",
        "Amano AD 1",
        "Zimadzhunt 400",
        "Zimadzhunt L 340",
        "Spitase CP 40G",
        "Palkodex",
        "Gemsize 4A",
        "Uniase BM 8",
        "Aquazym 120L",
        "Speedase HKS",
        "Termamyl 120 LS",
        "1,4-α-<span class=\"text-smallcaps\">D</span>-Glucan glucanohydrolase",
        "Tenase L-1,200",
        "1,4-α-Glucanase",
        "1,4-α-<span class=\"text-smallcaps\">D</span>-Glucanase",
        "Purastar OxAm",
        "Gamalpha HT 120L",
        "Neospitase PK 2",
        "Termamyl LS Plus",
        "Grindamyl A 200",
        "Spezyme Fred",
        "EMCEmaltex 1000",
        "Biozyme A",
        "Ekikakoso 6T",
        "Orientase AO 40",
        "Takarazyme A",
        "XP-404",
        "Orbamil T",
        "Orbamil BHT",
        "Fungamil Super AX",
        "Fermizyme P 500",
        "Lysase",
        "Aquazyme 240L",
        "Bioamylase BAA",
        "AS 10",
        "Fukutamylase",
        "Purastar HPAmL",
        "Stainzyme",
        "Magunakkusu JW-121",
        "Aquazyme Ultra 250L",
        "Duramyl 120T",
        "Grindamyl A 1000",
        "Termamyl 120L, Type L",
        "Neospitase PG 2",
        "Aquazym 240 L",
        "Kokugen L",
        "Orbamil ES 10X",
        "GC 262SP",
        "GC 007",
        "Spezyme Fred L",
        "Spezyme LT-300",
        "Clarase L",
        "Kokugen <em>K</em>",
        "Kleistase E5",
        "AMT 1.2L",
        "Bioalpha amylase",
        "Gamalpha P 120L",
        "Amylase A",
        "Biozyme F 10SD",
        "Speedase L",
        "Termamyl SC",
        "BAN 800",
        "G-zyme G 997",
        "Optisize HT 40",
        "Gamalpha 300L",
        "Bakezyme P 180",
        "Biotempase",
        "Liquozyme SC",
        "Amylase S Amano",
        "Liquizyme X",
        "Nervanase BT 2",
        "Stainzyme 12T",
        "Termamyl Ultra 300L",
        "Liquezyme X",
        "Liquozyme X",
        "Fungamyl 2500 SG",
        "Kleistase M 8",
        "Stainzyme 12L",
        "Bioferm L",
        "Hightempase 2XL",
        "Spezyme HPA",
        "Liquozyme Supra",
        "Alfamalt FAU-C 5000",
        "Liquizyme Supra",
        "Fungamyl Super BR",
        "Validase FAA",
        "Amylolichoterm",
        "Aimadzhunt NT",
        "Veron M4",
        "Amylogal CS-15",
        "Desizyme 2000L",
        "Liquifase L 45",
        "Speedase CP 40 FG",
        "Suhong AA Plus",
        "Purastar OxAm 4000E",
        "Optisize 160",
        "Termamyl SC L",
        "Uniase BM80",
        "Diasmen",
        "Amylase A 12L",
        "Termamyl 120",
        "Purastar ST 15000L",
        "Purastar HPAm 5000L",
        "Unikamyl HT",
        "Grindamyl Maxlife 85",
        "Termamyl Classic",
        "Panzyn FA 100",
        "Kleistase T 10S",
        "Termamyl CS DS",
        "Zimadzhunt HT 340C",
        "Amylase AD (Amano) 1",
        "Kleistase YC 15S",
        "Termamyl 150",
        "Natalase 90 CT",
        "Liquamyl 1200C",
        "Liquozyme SC DS",
        "LTAA L 2000",
        "BAN 480L",
        "Timextra",
        "Kleistase KM",
        "Spezyme Ethyl",
        "Nervanaze T",
        "Amilosubtilin G10x",
        "Amilosubtilin GZX",
        "Termamyl Supra",
        "GA-LNEW-O",
        "Termanyl",
        "Stainzyme Plus",
        "Spezyme ethel",
        "Spezyme-α",
        "Sumizyme AS",
        "Lixazyme D",
        "Palkozyme HT",
        "SpringAlfa 100.000",
        "BAN 240L",
        "Amylase, α- (Aspergillus oryzae)",
        "Enerzyme Alpha MHT",
        "Amilex 3T",
        "Amylyve A 30",
        "Kleistase P8",
        "SP 288",
        "Trametes AMG",
        "Spirizyme Ultra",
        "Multifect AA 1200L",
        "Termamyl 2X",
        "Torazym NT",
        "Termanyl L 120",
        "Brewers Amyliq TS",
        "Validase HT 425L",
        "Liquozym SC DS",
        "Themamyl SC",
        "Ultra Thin",
        "Fuelzyme-LF",
        "Termamyl L",
        "Powerase",
        "Termamyl Ultra",
        "Optisize HT Plus",
        "Sukamy TX 55",
        "Clearflow AA",
        "Amilosubtilin G-3X",
        "Amilosubtilin",
        "Distizym BA",
        "Optisize Next",
        "Saczyme",
        "MATS L",
        "Ban 480LS",
        "Mycolase LV",
        "Ekikakoso T",
        "Amylex A3",
        "Termamyl SC DS",
        "Stainzyme Plus 12L",
        "Kokugen SD-T 20M",
        "Kleistase SD 80",
        "Spezyme AA",
        "Termamyl LC",
        "Fuelzyme",
        "Amylex 4T",
        "Spezyme Prime",
        "Veretase",
        "Aquazym Ultra 1200N",
        "Liquozyme Supra 2.8",
        "Liquozyme Supra 2",
        "Spezyme alpha",
        "Spezyme CL",
        "Optitherm",
        "Fukutamylase 50",
        "Spezyme RSL",
        "Spezyme Robust Starch Liquefaction",
        "Stainzyme Plus 12T",
        "Spezyme alpha PF",
        "Keistase SD TU20",
        "Kokugen SD YC15",
        "Hipozyme 2000",
        "Amylex HT",
        "A 3306",
        "Grindamyl 1000",
        "Opticake Fresh",
        "Aquazyme SD-L",
        "Grindamyl Max-Life E 21",
        "Optizym BA",
        "Kleistase E 5CC",
        "Biozyme LC",
        "Optise NEXT",
        "GC 626",
        "SEBAmyl L",
        "Bactosol MTN",
        "Speedase HK",
        "Kleistase E5C7",
        "Optisize",
        "Biodermol WP",
        "Speedase CP 3",
        "Ricozyme Supra",
        "LpHera",
        "Natalase",
        "Resilience 200 L",
        "Kleistase SD-KM",
        "Speedase HR/R",
        "BXP 25001",
        "MATS L Classic",
        "Gamalpha T 400",
        "Novozyme CONC",
        "Novamyl 3D BG",
        "Novamyl",
        "Novamyl 3D",
        "Biowin AG",
        "Spitase HK",
        "Spitase HK-S/R",
        "Spitase HK-S",
        "Spitase HK-R",
        "Opticake Fresh 50B",
        "ACA concentrate",
        "SEBStar L40",
        "VF-Kartoffel",
        "Spezyme HT TG",
        "Novamyl 3D ConcBG",
        "Lycozyme Supra",
        "MK-ZH",
        "Brenn Zyme HL 120 L",
        "Spitase CP 3",
        "Amylex 5 T",
        "Liquozyme SC 4X",
        "Neospitase K",
        "RM Consebourg V",
        "Optimalt 4G",
        "Bioferm FA Conc",
        "GZYME G 997",
        "KLEISTASE E5NC",
        "SEBstar HTL",
        "Liquozyme LpH",
        "Beisol T 2090-G",
        "Palkozyme Plus",
        "FoodPro ALT",
        "SPEZYME HT",
        "GC 127",
        "Fungamyl Ultra WF G",
        "Aquazym 480L",
        "Bakezyme P500",
        "Bakezyme P 500G",
        "HY-B 2193",
        "Achieve Alpha 100L",
        "TB 04335"
    ],
    "replacedRns": [
        "9001-95-0",
        "9036-05-9",
        "9077-78-5",
        "70356-39-7",
        "106009-10-3",
        "135319-50-5",
        "144133-13-1",
        "2829257-17-0"
    ],
    "hasMolfile": false,
    "source": "https://commonchemistry.cas.org/detail?cas_rn=9000-90-2"
}