{
    "cas_no": "14399-37-2",
    "key_name": "3,6-Dichloro-2-pyrazinamine",
    "cn_name": null,
    "alternate_name": "2-Pyrazinamine, 3,6-dichloro-;Pyrazine, 3-amino-2,5-dichloro-;Pyrazinamine, 3,6-dichloro-;3,6-Dichloro-2-pyrazinamine;2-Amino-3,6-dichloropyrazine",
    "duplicated_cas_no": "",
    "SMILES": "NC=1C(Cl)=NC=C(Cl)N1",
    "meta_data": {
        "InChI": "InChI=1S/C4H3Cl2N3/c5-2-1-8-3(6)4(7)9-2/h1H,(H2,7,9)",
        "InChIKey": null,
        "Canonical SMILES": "ClC=1N=C(N)C(Cl)=NC1",
        "Molecular Formula": "C<sub>4</sub>H<sub>3</sub>Cl<sub>2</sub>N<sub>3</sub>",
        "Molecular Mass": "163.99",
        "Melting Point": "140-141 °C"
    }
}