{
    "cas_no": "328-87-0",
    "key_name": "2-Chloro-5-(trifluoromethyl)benzonitrile",
    "cn_name": "2-氯-5-(三氟甲基)苯甲腈;",
    "alternate_name": "Benzonitrile, 2-chloro-5-(trifluoromethyl)-;<em>m</em>-Tolunitrile, 6-chloro-α,α,α-trifluoro-;2-Chloro-5-(trifluoromethyl)benzonitrile;1-Chloro-2-cyano-4-(trifluoromethyl)benzene;6-Chloro-α,α,α-trifluoro-<em>m</em>-tolunitrile;5-Trifluoromethyl-2-chlorobenzonitrile;4-Chloro-3-cyanobenzotrifluoride;NSC 88338",
    "duplicated_cas_no": "",
    "SMILES": "C(F)(F)(F)C1=CC(C#N)=C(Cl)C=C1",
    "meta_data": {
        "InChI": "InChI=1S/C8H3ClF3N/c9-7-2-1-6(8(10,11)12)3-5(7)4-13/h1-3H",
        "InChIKey": null,
        "Canonical SMILES": "N#CC1=CC(=CC=C1Cl)C(F)(F)F",
        "Molecular Formula": "C<sub>8</sub>H<sub>3</sub>ClF<sub>3</sub>N",
        "Molecular Mass": "205.56",
        "Boiling Point": "210-212 °C",
        "Melting Point": "38.5-39.5 °C"
    }
}