{
    "cas_no": "7148-06-3",
    "key_name": "<em>N</em>,<em>N</em>-Dimethylglycine methyl ester",
    "cn_name": "N,N-二甲基甘氨酸甲酯;N,N-二甲基甘氨酸甲酯;",
    "alternate_name": "Glycine, <em>N</em>,<em>N</em>-dimethyl-, methyl ester;<em>N</em>,<em>N</em>-Dimethylglycine methyl ester;Methyl (dimethylamino)acetate;NSC 29651",
    "duplicated_cas_no": "",
    "SMILES": "C(CN(C)C)(OC)=O",
    "meta_data": {
        "InChI": "InChI=1S/C5H11NO2/c1-6(2)4-5(7)8-3/h4H2,1-3H3",
        "InChIKey": null,
        "Canonical SMILES": "O=C(OC)CN(C)C",
        "Molecular Formula": "C<sub>5</sub>H<sub>11</sub>NO<sub>2</sub>",
        "Molecular Mass": "117.15",
        "Boiling Point": "50-53 °C @ Press: 30 Torr"
    }
}