{
    "cas_no": "24758-49-4",
    "key_name": "4-Morpholinobenzophenone",
    "cn_name": "4-吗啉二苯甲酮;",
    "alternate_name": "Methanone, [4-(4-morpholinyl)phenyl]phenyl-;Benzophenone, 4-morpholino-;[4-(4-Morpholinyl)phenyl]phenylmethanone;4-Morpholinobenzophenone;NSC 111168;AMA 57;<em>N</em>-(4-Benzoylphenyl)morpholine;(4-Morpholinophenyl)(phenyl)methanone",
    "duplicated_cas_no": "",
    "SMILES": "C(=O)(C1=CC=C(C=C1)N2CCOCC2)C3=CC=CC=C3",
    "meta_data": {
        "InChI": "InChI=1S/C17H17NO2/c19-17(14-4-2-1-3-5-14)15-6-8-16(9-7-15)18-10-12-20-13-11-18/h1-9H,10-13H2",
        "InChIKey": null,
        "Canonical SMILES": "O=C(C=1C=CC=CC1)C2=CC=C(C=C2)N3CCOCC3",
        "Molecular Formula": "C<sub>17</sub>H<sub>17</sub>NO<sub>2</sub>",
        "Molecular Mass": "267.32",
        "Melting Point": "137-138 °C"
    }
}