{
    "cas_no": "604-59-1",
    "key_name": "α-Naphthoflavone",
    "cn_name": "α-萘黄酮;7,8-苯并黄酮;苯并黄素;",
    "alternate_name": "4<em>H</em>-Naphtho[1,2-<em>b</em>]pyran-4-one, 2-phenyl-;7,8-Benzoflavone;2-Phenyl-4<em>H</em>-naphtho[1,2-<em>b</em>]pyran-4-one;α-Naphthoflavone;α-Naphthylflavone;Benzo[<em>h</em>]flavone;ANF;UCCF 023;NSC 407011;2-Phenyl-4<em>H</em>-benzo[<em>h</em>]chromen-4-one;2-Phenylbenzo[<em>h</em>]chromen-4-one",
    "duplicated_cas_no": "",
    "SMILES": "O=C1C=2C(=C3C(=CC2)C=CC=C3)OC(=C1)C4=CC=CC=C4",
    "meta_data": {
        "InChI": "InChI=1S/C19H12O2/c20-17-12-18(14-7-2-1-3-8-14)21-19-15-9-5-4-6-13(15)10-11-16(17)19/h1-12H",
        "InChIKey": null,
        "Canonical SMILES": "O=C1C=C(OC2=C1C=CC=3C=CC=CC32)C=4C=CC=CC4",
        "Molecular Formula": "C<sub>19</sub>H<sub>12</sub>O<sub>2</sub>",
        "Molecular Mass": "272.30",
        "Melting Point": "167 °C"
    }
}