{
    "cas_no": "1746-25-4",
    "key_name": "2,4,5-Triiodo-1<em>H</em>-imidazole",
    "cn_name": "2,4,5-三碘咪唑;",
    "alternate_name": "1<em>H</em>-Imidazole, 2,4,5-triiodo-;Imidazole, 2,4,5-triiodo-;2,4,5-Triiodo-1<em>H</em>-imidazole;2,4,5-Triiodoimidazole;RGW 809;NSC 222411",
    "duplicated_cas_no": "",
    "SMILES": "IC1=C(I)N=C(I)N1",
    "meta_data": {
        "InChI": "InChI=1S/C3HI3N2/c4-1-2(5)8-3(6)7-1/h(H,7,8)",
        "InChIKey": null,
        "Canonical SMILES": "IC1=NC(I)=C(I)N1",
        "Molecular Formula": "C<sub>3</sub>HI<sub>3</sub>N<sub>2</sub>",
        "Molecular Mass": "445.77",
        "Melting Point": "191-192 °C"
    }
}