{
    "cas_no": "373-02-4",
    "key_name": "Nickel acetate",
    "cn_name": "醋酸镍;乙酸镍;",
    "alternate_name": "Acetic acid, nickel(2+) salt (2:1);Acetic acid, nickel(2+) salt;Nickel acetate (Ni(OAc)<sub>2</sub>);Nickel(II) acetate;Nickel diacetate;Nickelous acetate;Nickel(2+) acetate;Nickel acetate;Top Seal DX 300;Top Seal H 298",
    "duplicated_cas_no": "17593-69-0;219782-27-1",
    "SMILES": "C(C)(O)=O.[Ni]",
    "meta_data": {
        "InChI": "InChI=1S/C2H4O2.Ni/c1-2(3)4;/h1H3,(H,3,4);",
        "InChIKey": null,
        "Canonical SMILES": "[Ni].O=C(O)C",
        "Molecular Formula": "C<sub>2</sub>H<sub>4</sub>O<sub>2</sub>.<sup>1</sup>/<sub>2</sub>Ni",
        "Molecular Mass": "",
        "Boiling Point": "16.6 °C",
        "Density": "1.798 g/cm³"
    }
}