{
    "cas_no": "1701-26-4",
    "key_name": "4-Chloro-6-methyl-2-(trifluoromethyl)quinoline",
    "cn_name": "4-氯-6-甲基-2-(三氟甲基)喹啉;",
    "alternate_name": "Quinoline, 4-chloro-6-methyl-2-(trifluoromethyl)-;4-Chloro-6-methyl-2-(trifluoromethyl)quinoline;NSC 128775",
    "duplicated_cas_no": "",
    "SMILES": "ClC=1C2=C(N=C(C(F)(F)F)C1)C=CC(C)=C2",
    "meta_data": {
        "InChI": "InChI=1S/C11H7ClF3N/c1-6-2-3-9-7(4-6)8(12)5-10(16-9)11(13,14)15/h2-5H,1H3",
        "InChIKey": null,
        "Canonical SMILES": "FC(F)(F)C1=NC=2C=CC(=CC2C(Cl)=C1)C",
        "Molecular Formula": "C<sub>11</sub>H<sub>7</sub>ClF<sub>3</sub>N",
        "Molecular Mass": "245.63",
        "Melting Point": "66-68 °C"
    }
}