{
    "cas_no": "81-50-5",
    "key_name": "1-Amino-4-bromo-2-methyl-9,10-anthracenedione",
    "cn_name": null,
    "alternate_name": "9,10-Anthracenedione, 1-amino-4-bromo-2-methyl-;Anthraquinone, 1-amino-4-bromo-2-methyl-;1-Amino-4-bromo-2-methyl-9,10-anthracenedione;1-Amino-4-bromo-2-methylanthraquinone;1-Amino-2-methyl-4-bromoanthraquinone;4-Bromo-2-methyl-1-anthraquinonylamine;1-Amino-2-methyl-4-bromo-9,10-anthraquinone;NSC 401160;1-Amino-3-bromo-2-methyl-9,10-anthraquinone;1-Amino-4-bromo-2-methyl-9,10-dihydroanthracene-9,10-dione",
    "duplicated_cas_no": "",
    "SMILES": "O=C1C=2C(C(=O)C=3C1=CC=CC3)=C(Br)C=C(C)C2N",
    "meta_data": {
        "InChI": "InChI=1S/C15H10BrNO2/c1-7-6-10(16)11-12(13(7)17)15(19)9-5-3-2-4-8(9)14(11)18/h2-6H,17H2,1H3",
        "InChIKey": null,
        "Canonical SMILES": "O=C1C=2C=CC=CC2C(=O)C3=C(N)C(=CC(Br)=C13)C",
        "Molecular Formula": "C<sub>15</sub>H<sub>10</sub>BrNO<sub>2</sub>",
        "Molecular Mass": "316.15",
        "Melting Point": "346-347 °C"
    }
}