{
    "cas_no": "104-09-6",
    "key_name": "<em>p</em>-Tolylacetaldehyde",
    "cn_name": "4-甲基苯乙醛;",
    "alternate_name": "Benzeneacetaldehyde, 4-methyl-;Acetaldehyde, <em>p</em>-tolyl-;4-Methylbenzeneacetaldehyde;<em>p</em>-Methylphenylacetaldehyde;<em>p</em>-Tolylacetaldehyde;(4-Methylphenyl)acetaldehyde;2-(4-Methylphenyl)acetaldehyde;<em>p</em>-Toluacetaldehyde;2-(<em>p</em>-Tolyl)acetaldehyde;Syringa aldehyde",
    "duplicated_cas_no": "",
    "SMILES": "C(C=O)C1=CC=C(C)C=C1",
    "meta_data": {
        "InChI": "InChI=1S/C9H10O/c1-8-2-4-9(5-3-8)6-7-10/h2-5,7H,6H2,1H3",
        "InChIKey": null,
        "Canonical SMILES": "O=CCC1=CC=C(C=C1)C",
        "Molecular Formula": "C<sub>9</sub>H<sub>10</sub>O",
        "Molecular Mass": "134.18",
        "Boiling Point": "221.5 °C",
        "Melting Point": "40 °C",
        "Density": "1.0030 g/cm³ @ Temp: 15 °C"
    }
}