{
    "cas_no": "7775-11-3",
    "key_name": "Disodium chromate",
    "cn_name": "铬酸钠;无水铬酸钠;",
    "alternate_name": "Chromic acid (H<sub>2</sub>CrO<sub>4</sub>), sodium salt (1:2);Chromic acid (H<sub>2</sub>CrO<sub>4</sub>), disodium salt;Disodium chromate;Sodium chromate;Sodium chromate (Na<sub>2</sub>(CrO<sub>4</sub>));Chromium disodium oxide;Chromium sodium oxide (CrNa<sub>2</sub>O<sub>4</sub>);Disodium chromate (Na<sub>2</sub>CrO<sub>4</sub>);Sodium chromium oxide (Na<sub>2</sub>CrO<sub>4</sub>);Sodium chromate (VI)",
    "duplicated_cas_no": "",
    "SMILES": "[Cr](O)(O)(=O)=O.[Na]",
    "meta_data": {
        "InChI": "InChI=1S/Cr.2Na.2H2O.2O/h;;;2*1H2;;/q+2;;;;;;/p-2",
        "InChIKey": null,
        "Canonical SMILES": "[Na].O=[Cr](=O)(O)O",
        "Molecular Formula": "CrH<sub>2</sub>O<sub>4</sub>.2Na",
        "Molecular Mass": "",
        "Melting Point": "792 °C",
        "Density": "2.72 g/cm³"
    }
}