{
    "cas_no": "6422-36-2",
    "key_name": "<span class=\"text-smallcaps\">L</smallcap>-Prolyl-<smallcap>L</span>-alanine",
    "cn_name": "脯氨酰丙氨酸;脯氨酰丙氨酸;",
    "alternate_name": "<span class=\"text-smallcaps\">L</smallcap>-Alanine, <smallcap>L</span>-prolyl-;Alanine, <em>N</em>-<span class=\"text-smallcaps\">L</smallcap>-prolyl-, <smallcap>L</span>-;<span class=\"text-smallcaps\">L</smallcap>-Alanine, <em>N</em>-<smallcap>L</span>-prolyl-;<span class=\"text-smallcaps\">L</smallcap>-Prolyl-<smallcap>L</span>-alanine;NSC 97933;108: PN: WO2006024694 SEQID: 108 claimed protein;99: PN: EP2161028 PAGE: 10 claimed protein;62: PN: WO2014063098 TABLE: 5 claimed sequence;28: PN: WO2011146121 PAGE: 114 claimed sequence;3: PN: WO2011150133 PAGE: 63 claimed sequence;169: PN: US20130123467 SEQID: 208 claimed protein;7: PN: WO2014102104 SEQID: 106 claimed protein;7: PN: WO2014102101 SEQID: 307 claimed protein;47: PN: WO2014102103 TABLE: 1 claimed protein;26: PN: WO2014102100 TABLE: 1 claimed protein;1: PN: US20180142240 PAGE: 82 claimed sequence;20: PN: WO2020069398 SEQID: 20 claimed protein;809: PN: WO2022215055 SEQID: 809 claimed protein;356: PN: WO2023161197 SEQID: 358 claimed sequence",
    "duplicated_cas_no": "",
    "SMILES": "C(N[C@H](C(O)=O)C)(=O)[C@@H]1CCCN1",
    "meta_data": {
        "InChI": "InChI=1S/C8H14N2O3/c1-5(8(12)13)10-7(11)6-3-2-4-9-6/h5-6,9H,2-4H2,1H3,(H,10,11)(H,12,13)/t5-,6-/m0/s1",
        "InChIKey": null,
        "Canonical SMILES": "O=C(O)C(NC(=O)C1NCCC1)C",
        "Molecular Formula": "C<sub>8</sub>H<sub>14</sub>N<sub>2</sub>O<sub>3</sub>",
        "Molecular Mass": "186.21",
        "Melting Point": "232 °C"
    }
}