{
    "cas_no": "589-38-8",
    "key_name": "3-Hexanone",
    "cn_name": "3-己酮;",
    "alternate_name": "3-Hexanone;Ethyl propyl ketone;3-Oxohexane",
    "duplicated_cas_no": "",
    "SMILES": "C(CCC)(CC)=O",
    "meta_data": {
        "InChI": "InChI=1S/C6H12O/c1-3-5-6(7)4-2/h3-5H2,1-2H3",
        "InChIKey": null,
        "Canonical SMILES": "O=C(CC)CCC",
        "Molecular Formula": "C<sub>6</sub>H<sub>12</sub>O",
        "Molecular Mass": "100.16",
        "Boiling Point": "123.5 °C",
        "Melting Point": "-55.5 °C",
        "Density": "0.816 g/cm³ @ Temp: 15 °C"
    }
}