{
    "cas_no": "116548-03-9",
    "key_name": "1,2-Dihydro-2-oxo-6-(trifluoromethyl)-3-pyridinecarboxamide",
    "cn_name": "2-羟基-6-三氟甲基烟酰胺; 2-羟基-6-三氟甲基吡啶-3-甲酰胺;",
    "alternate_name": "3-Pyridinecarboxamide, 1,2-dihydro-2-oxo-6-(trifluoromethyl)-;1,2-Dihydro-2-oxo-6-(trifluoromethyl)-3-pyridinecarboxamide;2-Hydroxy-6-trifluoromethylnicotinamide;1,2-Dihydro-2-oxo-6-(trifluoromethyl)pyridine-3-carboxylic acid amide;2-Oxo-6-(trifluoromethyl)-1,2-dihydropyridine-3-carboxamide;2-Oxo-6-(trifluoromethyl)-1<em>H</em>-pyridine-3-carboxamide;2-Hydroxy-6-(trifluoromethyl)pyridine-3-carboxamide",
    "duplicated_cas_no": "",
    "SMILES": "C(F)(F)(F)C=1NC(=O)C(C(N)=O)=CC1",
    "meta_data": {
        "InChI": "InChI=1S/C7H5F3N2O2/c8-7(9,10)4-2-1-3(5(11)13)6(14)12-4/h1-2H,(H2,11,13)(H,12,14)",
        "InChIKey": null,
        "Canonical SMILES": "O=C(N)C1=CC=C(NC1=O)C(F)(F)F",
        "Molecular Formula": "C<sub>7</sub>H<sub>5</sub>F<sub>3</sub>N<sub>2</sub>O<sub>2</sub>",
        "Molecular Mass": "206.12",
        "Melting Point": "220-222 °C"
    }
}