{
    "cas_no": "57252-83-2",
    "key_name": "3-Methylcyclobutanecarboxylic acid",
    "cn_name": null,
    "alternate_name": "Cyclobutanecarboxylic acid, 3-methyl-;3-Methylcyclobutanecarboxylic acid;3-Methylcyclobutylcarboxylic acid;3-Methylcyclobutane-1-carboxylic acid",
    "duplicated_cas_no": "",
    "SMILES": "C(O)(=O)C1CC(C)C1",
    "meta_data": {
        "InChI": "InChI=1S/C6H10O2/c1-4-2-5(3-4)6(7)8/h4-5H,2-3H2,1H3,(H,7,8)",
        "InChIKey": null,
        "Canonical SMILES": "O=C(O)C1CC(C)C1",
        "Molecular Formula": "C<sub>6</sub>H<sub>10</sub>O<sub>2</sub>",
        "Molecular Mass": "114.14",
        "Boiling Point": "204-207 °C @ Press: 764.7 Torr",
        "Density": "1.0061 g/cm³ @ Temp: 20 °C"
    }
}