{
    "cas_no": "58066-85-6",
    "key_name": "Miltefosine",
    "cn_name": "米替福新;十六烷基2-(三甲基氨基)乙基磷酸酯;",
    "alternate_name": "Ethanaminium, 2-[[(hexadecyloxy)hydroxyphosphinyl]oxy]-<em>N</em>,<em>N</em>,<em>N</em>-trimethyl-, inner salt;Choline phosphate, hexadecyl ester, hydroxide, inner salt;<em>n</em>-Hexadecylphosphorylcholine;Hexadecylphosphocholine;Hexadecylphosphorylcholine;D 18506;Miltefosine;<em>n</em>-Hexadecylphosphocholine;Miltex;HPC;NSC 605583;Fos-choline 16;Impavido;Miltefos",
    "duplicated_cas_no": "93597-88-7",
    "SMILES": "O(P(OCC[N+](C)(C)C)(=O)[O-])CCCCCCCCCCCCCCCC",
    "meta_data": {
        "InChI": "InChI=1S/C21H46NO4P/c1-5-6-7-8-9-10-11-12-13-14-15-16-17-18-20-25-27(23,24)26-21-19-22(2,3)4/h5-21H2,1-4H3",
        "InChIKey": null,
        "Canonical SMILES": "O=P([O-])(OCCCCCCCCCCCCCCCC)OCC[N+](C)(C)C",
        "Molecular Formula": "C<sub>21</sub>H<sub>46</sub>NO<sub>4</sub>P",
        "Molecular Mass": "",
        "Melting Point": "232-234 °C (decomp)"
    }
}