{
    "cas_no": "5685-05-2",
    "key_name": "2-Mercaptothiazole",
    "cn_name": "2-巯基噻唑;",
    "alternate_name": "2(3<em>H</em>)-Thiazolethione;4-Thiazoline-2-thione;2-Thiazolethiol;2-Mercaptothiazole;2-Mercapto-1,3-thiazole;Thiazoline-2-thione;Δ<sup>4</sup>-Thiazoline-2-thione;NSC 24294;NSC 41217;1,3-Thiazole-2-thiol;2-Thiothiazole",
    "duplicated_cas_no": "5459-03-0",
    "SMILES": "S=C1NC=CS1",
    "meta_data": {
        "InChI": "InChI=1S/C3H3NS2/c5-3-4-1-2-6-3/h1-2H,(H,4,5)",
        "InChIKey": null,
        "Canonical SMILES": "S=C1SC=CN1",
        "Molecular Formula": "C<sub>3</sub>H<sub>3</sub>NS<sub>2</sub>",
        "Molecular Mass": "117.19",
        "Melting Point": "80 °C"
    }
}