{
    "cas_no": "392-83-6",
    "key_name": "1-Bromo-2-(trifluoromethyl)benzene",
    "cn_name": "邻溴三氟甲苯;",
    "alternate_name": "Benzene, 1-bromo-2-(trifluoromethyl)-;Toluene, <em>o</em>-bromo-α,α,α-trifluoro-;1-Bromo-2-(trifluoromethyl)benzene;<em>o</em>-(Trifluoromethyl)bromobenzene;2-Bromobenzotrifluoride;<em>o</em>-Bromobenzotrifluoride;<em>o</em>-Bromo-α,α,α-trifluorotoluene;2-(Trifluoromethyl)bromobenzene;2-Bromo-α,α,α-trifluorotoluene;<em>o</em>-(Trifluoromethyl)phenyl bromide;2-Bromo(trifluoromethyl)benzene;<em>o</em>-Bromo(trifluoromethyl)benzene;2-(Trifluoromethyl)phenyl bromide;1-Bromo-2-(1,1,1-trifluoromethyl)benzene;2-(Trifluoromethyl)-1-bromobenzene;2-Bromo-1-trifluoromethylbenzene",
    "duplicated_cas_no": "",
    "SMILES": "C(F)(F)(F)C1=C(Br)C=CC=C1",
    "meta_data": {
        "InChI": "InChI=1S/C7H4BrF3/c8-6-4-2-1-3-5(6)7(9,10)11/h1-4H",
        "InChIKey": null,
        "Canonical SMILES": "FC(F)(F)C=1C=CC=CC1Br",
        "Molecular Formula": "C<sub>7</sub>H<sub>4</sub>BrF<sub>3</sub>",
        "Molecular Mass": "225.01",
        "Boiling Point": "167.5 °C",
        "Melting Point": "149.3-149.6 °C",
        "Density": "1.664 g/cm³ @ Temp: 25 °C"
    }
}