{
    "cas_no": "370-86-5",
    "key_name": "FCCP",
    "cn_name": "羰基氰对三氟甲氧基苯腙;羰基氰基4-三氟甲氧腙;",
    "alternate_name": "Propanedinitrile, 2-[2-[4-(trifluoromethoxy)phenyl]hydrazinylidene]-;Mesoxalonitrile, [<em>p</em>-(trifluoromethoxy)phenyl]hydrazone;Propanedinitrile, [[4-(trifluoromethoxy)phenyl]hydrazono]-;2-[2-[4-(Trifluoromethoxy)phenyl]hydrazinylidene]propanedinitrile;FCCP;Trifluoromethoxy carbonylcyanide phenylhydrazone;Carbonyl cyanide [<em>p</em>-(trifluoromethoxy)phenyl]hydrazone;Carbonyl cyanide [4-(trifluoromethoxy)phenyl]hydrazone;FCCCP;[[4-(Trifluoromethoxy)phenyl]hydrazono]malononitrile;2-[[4-(Trifluoromethoxy)phenyl]hydrazinylidene]propanedinitrile;MeSH ID: D002259",
    "duplicated_cas_no": "",
    "SMILES": "O(C(F)(F)F)C1=CC=C(NN=C(C#N)C#N)C=C1",
    "meta_data": {
        "InChI": "InChI=1S/C10H5F3N4O/c11-10(12,13)18-9-3-1-7(2-4-9)16-17-8(5-14)6-15/h1-4,16H",
        "InChIKey": null,
        "Canonical SMILES": "N#CC(C#N)=NNC1=CC=C(OC(F)(F)F)C=C1",
        "Molecular Formula": "C<sub>10</sub>H<sub>5</sub>F<sub>3</sub>N<sub>4</sub>O",
        "Molecular Mass": "254.17",
        "Melting Point": "174 °C (decomp)"
    }
}