{
    "cas_no": "1752-30-3",
    "key_name": "2-(1-Methylethylidene)hydrazinecarbothioamide",
    "cn_name": "丙酮缩氨基硫脲;",
    "alternate_name": "Hydrazinecarbothioamide, 2-(1-methylethylidene)-;Acetone, thiosemicarbazone;2-(1-Methylethylidene)hydrazinecarbothioamide;Thiosemicarbazone acetone;Dimethyl ketone thiosemicarbazone;NSC 711;ATS;ATSC;(Propan-2-ylideneamino)thiourea;[(Propan-2-ylidene)amino]thiourea",
    "duplicated_cas_no": "",
    "SMILES": "N(NC(N)=S)=C(C)C",
    "meta_data": {
        "InChI": "InChI=1S/C4H9N3S/c1-3(2)6-7-4(5)8/h1-2H3,(H3,5,7,8)",
        "InChIKey": null,
        "Canonical SMILES": "S=C(N)NN=C(C)C",
        "Molecular Formula": "C<sub>4</sub>H<sub>9</sub>N<sub>3</sub>S",
        "Molecular Mass": "131.20",
        "Melting Point": "179 °C"
    }
}