{
    "cas_no": "27652-89-7",
    "key_name": "α-(4-Chlorophenyl)-2-pyridinemethanol",
    "cn_name": "α-(4-氯苯基)吡啶-2-甲醇;",
    "alternate_name": "2-Pyridinemethanol, α-(4-chlorophenyl)-;2-Pyridinemethanol, α-(<em>p</em>-chlorophenyl)-;α-(4-Chlorophenyl)-2-pyridinemethanol;NSC 31264;NSC 47970;(<em>p</em>-Chlorophenyl)(2-pyridinyl)methanol;(4-Chlorophenyl)(pyridin-2-yl)methanol",
    "duplicated_cas_no": "112906-30-6",
    "SMILES": "C(O)(C1=CC=C(Cl)C=C1)C2=CC=CC=N2",
    "meta_data": {
        "InChI": "InChI=1S/C12H10ClNO/c13-10-6-4-9(5-7-10)12(15)11-3-1-2-8-14-11/h1-8,12,15H",
        "InChIKey": null,
        "Canonical SMILES": "ClC1=CC=C(C=C1)C(O)C2=NC=CC=C2",
        "Molecular Formula": "C<sub>12</sub>H<sub>10</sub>ClNO",
        "Molecular Mass": "219.67",
        "Melting Point": "80-81 °C"
    }
}