{
    "cas_no": "80937-23-1",
    "key_name": "(2<em>E</em>)-4-(3,4-Dimethoxyphenyl)-4-oxo-2-butenoic acid",
    "cn_name": "(E)-4-(3,4-二甲氧基苯基)-4-氧代-2-丁烯酸乙酯;",
    "alternate_name": "2-Butenoic acid, 4-(3,4-dimethoxyphenyl)-4-oxo-, (2<em>E</em>)-;2-Butenoic acid, 4-(3,4-dimethoxyphenyl)-4-oxo-, (<em>E</em>)-;(2<em>E</em>)-4-(3,4-Dimethoxyphenyl)-4-oxo-2-butenoic acid;<em>trans</em>-β-(<em>m</em>,<em>p</em>-Dimethoxybenzoyl)acrylic acid",
    "duplicated_cas_no": "",
    "SMILES": "C(/C=C/C(O)=O)(=O)C1=CC(OC)=C(OC)C=C1",
    "meta_data": {
        "InChI": "InChI=1S/C12H12O5/c1-16-10-5-3-8(7-11(10)17-2)9(13)4-6-12(14)15/h3-7H,1-2H3,(H,14,15)/b6-4+",
        "InChIKey": null,
        "Canonical SMILES": "O=C(O)C=CC(=O)C1=CC=C(OC)C(OC)=C1",
        "Molecular Formula": "C<sub>12</sub>H<sub>12</sub>O<sub>5</sub>",
        "Molecular Mass": "236.22",
        "Melting Point": "181 °C"
    }
}