{
    "cas_no": "63010-70-8",
    "key_name": "8-Fluoro-4-hydroxy-3-quinolinecarboxylic acid",
    "cn_name": null,
    "alternate_name": "3-Quinolinecarboxylic acid, 8-fluoro-4-hydroxy-;8-Fluoro-4-hydroxy-3-quinolinecarboxylic acid",
    "duplicated_cas_no": "",
    "SMILES": "OC=1C2=C(N=CC1C(O)=O)C(F)=CC=C2",
    "meta_data": {
        "InChI": "InChI=1S/C10H6FNO3/c11-7-3-1-2-5-8(7)12-4-6(9(5)13)10(14)15/h1-4H,(H,12,13)(H,14,15)",
        "InChIKey": null,
        "Canonical SMILES": "O=C(O)C1=CN=C2C(F)=CC=CC2=C1O",
        "Molecular Formula": "C<sub>10</sub>H<sub>6</sub>FNO<sub>3</sub>",
        "Molecular Mass": "207.16",
        "Melting Point": "302 °C"
    }
}