{
    "cas_no": "76006-10-5",
    "key_name": "7-Methoxy-1<em>H</em>-pyrazolo[3,4-<em>c</em>]pyridine",
    "cn_name": null,
    "alternate_name": "1<em>H</em>-Pyrazolo[3,4-<em>c</em>]pyridine, 7-methoxy-;7-Methoxy-1<em>H</em>-pyrazolo[3,4-<em>c</em>]pyridine",
    "duplicated_cas_no": "",
    "SMILES": "O(C)C1=C2C(C=NN2)=CC=N1",
    "meta_data": {
        "InChI": "InChI=1S/C7H7N3O/c1-11-7-6-5(2-3-8-7)4-9-10-6/h2-4H,1H3,(H,9,10)",
        "InChIKey": null,
        "Canonical SMILES": "N1=CC=2C=CN=C(OC)C2N1",
        "Molecular Formula": "C<sub>7</sub>H<sub>7</sub>N<sub>3</sub>O",
        "Molecular Mass": "149.15",
        "Melting Point": "153-154 °C"
    }
}