{
    "cas_no": "117-78-2",
    "key_name": "2-Anthraquinonecarboxylic acid",
    "cn_name": null,
    "alternate_name": "2-Anthracenecarboxylic acid, 9,10-dihydro-9,10-dioxo-;2-Anthroic acid, 9,10-dihydro-9,10-dioxo-;2-Anthraquinonecarboxylic acid;9,10-Dihydro-9,10-dioxo-2-anthracenecarboxylic acid;2-Carboxy-9,10-anthraquinone;β-Anthraquinonecarboxylic acid;2-Carboxyanthraquinone;9,10-Dioxoanthracene-2-carboxylic acid;9,10-Anthraquinone-2-carboxylic acid;NSC 5001;9,10-Dioxo-9,10-dihydro-2-anthracenecarboxylic acid",
    "duplicated_cas_no": "",
    "SMILES": "O=C1C=2C(C(=O)C=3C1=CC=CC3)=CC=C(C(O)=O)C2",
    "meta_data": {
        "InChI": "InChI=1S/C15H8O4/c16-13-9-3-1-2-4-10(9)14(17)12-7-8(15(18)19)5-6-11(12)13/h1-7H,(H,18,19)",
        "InChIKey": null,
        "Canonical SMILES": "O=C(O)C1=CC=C2C(=O)C=3C=CC=CC3C(=O)C2=C1",
        "Molecular Formula": "C<sub>15</sub>H<sub>8</sub>O<sub>4</sub>",
        "Molecular Mass": "252.22",
        "Melting Point": "291 °C"
    }
}