{
    "cas_no": "33996-30-4",
    "key_name": "<span class=\"text-smallcaps\">L</span>-Proline, 4-hydroxy-, ethyl ester, hydrochloride (1:1), (4<em>R</em>)-",
    "cn_name": null,
    "alternate_name": "<span class=\"text-smallcaps\">L</span>-Proline, 4-hydroxy-, ethyl ester, hydrochloride (1:1), (4<em>R</em>)-;Proline, 4-hydroxy-, ethyl ester, hydrochloride, <span class=\"text-smallcaps\">L</span>-;<span class=\"text-smallcaps\">L</span>-Proline, 4-hydroxy-, ethyl ester, hydrochloride, <em>trans</em>-;<span class=\"text-smallcaps\">L</span>-Proline, 4-hydroxy-, ethyl ester, hydrochloride, (4<em>R</em>)-;Hydroxyproline ethyl ester hydrochloride;<span class=\"text-smallcaps\">L</span>-Hydroxyproline ethyl ester hydrochloride;4-Hydroxy-<span class=\"text-smallcaps\">L</span>-proline ethyl ester hydrochloride;(2S,4R)-4-Hydroxypyrrolidine-2-carboxylic acid ethyl ester hydrochloride;<em>trans</em>-4-Hydroxy-<span class=\"text-smallcaps\">L</span>-proline ethyl ester hydrochloride;<span class=\"text-smallcaps\">L</span>-4-Hydroxyproline ethyl ester hydrochloride salt",
    "duplicated_cas_no": "",
    "SMILES": "C(OCC)(=O)[C@H]1NC[C@H](O)C1.Cl",
    "meta_data": {
        "InChI": "InChI=1S/C7H13NO3.ClH/c1-2-11-7(10)6-3-5(9)4-8-6;/h5-6,8-9H,2-4H2,1H3;1H/t5-,6+;/m1./s1",
        "InChIKey": null,
        "Canonical SMILES": "Cl.O=C(OCC)C1NCC(O)C1",
        "Molecular Formula": "C<sub>7</sub>H<sub>13</sub>NO<sub>3</sub>.ClH",
        "Molecular Mass": "",
        "Melting Point": "150 °C"
    }
}