{
    "cas_no": "462-47-5",
    "key_name": "1-Propanethiol, 3-amino-",
    "cn_name": null,
    "alternate_name": "1-Propanethiol, 3-amino-;3-Mercapto-1-propylamine;Homocysteamine;Mercaptopropylamine;3-Amino-1-propanethiol;3-Mercaptopropylamine;3-Aminopropanethiol;1-Amino-3-propanethiol;NSC 123021;3-Mercaptopropaneamine",
    "duplicated_cas_no": "93107-59-6",
    "SMILES": "C(CN)CS",
    "meta_data": {
        "InChI": "InChI=1S/C3H9NS/c4-2-1-3-5/h5H,1-4H2",
        "InChIKey": null,
        "Canonical SMILES": "SCCCN",
        "Molecular Formula": "C<sub>3</sub>H<sub>9</sub>NS",
        "Molecular Mass": "91.18",
        "Melting Point": "112-113 °C"
    }
}