{
    "cas_no": "52119-39-8",
    "key_name": "Ethyl 2-nitro-β-oxobenzenepropanoate",
    "cn_name": "2-硝基苯甲酰乙酸乙酯;",
    "alternate_name": "Benzenepropanoic acid, 2-nitro-β-oxo-, ethyl ester;Acetic acid, (<em>o</em>-nitrobenzoyl)-, ethyl ester;Ethyl 2-nitro-β-oxobenzenepropanoate;(<em>o</em>-Nitrobenzoyl)acetic acid ethyl ester;Ethyl (2-nitrobenzoyl)acetate;Ethyl (<em>o</em>-nitrobenzoyl)acetate;Ethyl 2-(2-nitrobenzoyl)acetate;2-Nitro-β-oxobenzenepropanoic acid ethyl ester;Ethyl 3-(2-nitrophenyl)-3-oxopropanoate",
    "duplicated_cas_no": "",
    "SMILES": "C(CC(OCC)=O)(=O)C1=C(N(=O)=O)C=CC=C1",
    "meta_data": {
        "InChI": "InChI=1S/C11H11NO5/c1-2-17-11(14)7-10(13)8-5-3-4-6-9(8)12(15)16/h3-6H,2,7H2,1H3",
        "InChIKey": null,
        "Canonical SMILES": "O=C(OCC)CC(=O)C=1C=CC=CC1N(=O)=O",
        "Molecular Formula": "C<sub>11</sub>H<sub>11</sub>NO<sub>5</sub>",
        "Molecular Mass": "237.21",
        "Boiling Point": "170 °C @ Press: 0.1 Torr",
        "Melting Point": "35-36 °C"
    }
}