{
    "cas_no": "54410-90-1",
    "key_name": "4-Pentylcyclohexanol",
    "cn_name": "4-戊基环己醇;",
    "alternate_name": "Cyclohexanol, 4-pentyl-;4-Pentylcyclohexanol;NSC 168970",
    "duplicated_cas_no": "",
    "SMILES": "C(CCCC)C1CCC(O)CC1",
    "meta_data": {
        "InChI": "InChI=1S/C11H22O/c1-2-3-4-5-10-6-8-11(12)9-7-10/h10-12H,2-9H2,1H3",
        "InChIKey": null,
        "Canonical SMILES": "OC1CCC(CCCCC)CC1",
        "Molecular Formula": "C<sub>11</sub>H<sub>22</sub>O",
        "Molecular Mass": "170.29",
        "Boiling Point": "88 °C"
    }
}