{
    "cas_no": "2740-88-7",
    "key_name": "1-Fluoro-4-(isothiocyanatomethyl)benzene",
    "cn_name": "4-氟苄基硫代异氰酸酯;",
    "alternate_name": "Benzene, 1-fluoro-4-(isothiocyanatomethyl)-;Isothiocyanic acid, <em>p</em>-fluorobenzyl ester;1-Fluoro-4-(isothiocyanatomethyl)benzene;<em>p</em>-Fluorobenzyl isothiocyanate;4-Fluorobenzyl isothiocyanate;1-(Isothiocyanatomethyl)-4-fluorobenzene",
    "duplicated_cas_no": "",
    "SMILES": "C(N=C=S)C1=CC=C(F)C=C1",
    "meta_data": {
        "InChI": "InChI=1S/C8H6FNS/c9-8-3-1-7(2-4-8)5-10-6-11/h1-4H,5H2",
        "InChIKey": null,
        "Canonical SMILES": "FC1=CC=C(C=C1)CN=C=S",
        "Molecular Formula": "C<sub>8</sub>H<sub>6</sub>FNS",
        "Molecular Mass": "167.20",
        "Boiling Point": "122-124 °C @ Press: 8 Torr"
    }
}