{
    "cas_no": "56578-18-8",
    "key_name": "(5<em>E</em>)-5-Decen-1-ol",
    "cn_name": "反-5-癸烯醇;",
    "alternate_name": "5-Decen-1-ol, (5<em>E</em>)-;5-Decen-1-ol, (<em>E</em>)-;(5<em>E</em>)-5-Decen-1-ol;<em>trans</em>-5-Decen-1-ol;(<em>E</em>)-5-Decen-1-ol;(<em>E</em>)-5-Decenol",
    "duplicated_cas_no": "",
    "SMILES": "C(=C/CCCC)\\CCCCO",
    "meta_data": {
        "InChI": "InChI=1S/C10H20O/c1-2-3-4-5-6-7-8-9-10-11/h5-6,11H,2-4,7-10H2,1H3/b6-5+",
        "InChIKey": null,
        "Canonical SMILES": "OCCCCC=CCCCC",
        "Molecular Formula": "C<sub>10</sub>H<sub>20</sub>O",
        "Molecular Mass": "156.27",
        "Boiling Point": "95-96 °C @ Press: 2 Torr"
    }
}