{
    "cas_no": "5789-21-9",
    "key_name": "5-(1-Hydroxyethyl)-3-phenyl-2-thioxo-4-imidazolidinone",
    "cn_name": "乙内酰硫脲苏氨酸;",
    "alternate_name": "4-Imidazolidinone, 5-(1-hydroxyethyl)-3-phenyl-2-thioxo-;Hydantoin, 5-(1-hydroxyethyl)-3-phenyl-2-thio-;5-(1-Hydroxyethyl)-3-phenyl-2-thioxo-4-imidazolidinone;Threonine, 3-phenyl-2-thiohydantoin;Threonine phenylthiohydantoin;PTH-<span class=\"text-smallcaps\">D</smallcap><smallcap>L</span>-threonine;NSC 116497",
    "duplicated_cas_no": "",
    "SMILES": "O=C1N(C(=S)NC1C(C)O)C2=CC=CC=C2",
    "meta_data": {
        "InChI": "InChI=1S/C11H12N2O2S/c1-7(14)9-10(15)13(11(16)12-9)8-5-3-2-4-6-8/h2-7,9,14H,1H3,(H,12,16)",
        "InChIKey": null,
        "Canonical SMILES": "O=C1N(C=2C=CC=CC2)C(=S)NC1C(O)C",
        "Molecular Formula": "C<sub>11</sub>H<sub>12</sub>N<sub>2</sub>O<sub>2</sub>S",
        "Molecular Mass": "236.29",
        "Melting Point": "194 °C (decomp)"
    }
}