{
    "cas_no": "66490-33-3",
    "key_name": "4-Chlorobenzo[<em>b</em>]thiophene",
    "cn_name": null,
    "alternate_name": "Benzo[<em>b</em>]thiophene, 4-chloro-;4-Chlorobenzo[<em>b</em>]thiophene;4-Chlorobenzothiophene",
    "duplicated_cas_no": "",
    "SMILES": "ClC1=C2C(=CC=C1)SC=C2",
    "meta_data": {
        "InChI": "InChI=1S/C8H5ClS/c9-7-2-1-3-8-6(7)4-5-10-8/h1-5H",
        "InChIKey": null,
        "Canonical SMILES": "ClC1=CC=CC=2SC=CC12",
        "Molecular Formula": "C<sub>8</sub>H<sub>5</sub>ClS",
        "Molecular Mass": "168.64",
        "Boiling Point": "0.8 °C @ Press: 155-165 Torr",
        "Melting Point": "81-82 °C"
    }
}