{
    "cas_no": "304-21-2",
    "key_name": "Harmaline",
    "cn_name": "骆驼蓬碱; 骆驼蓬灵; 7-甲氧基-1-甲基-4,9-二氢-3H-吡啶并[3,4-b]吲哚;",
    "alternate_name": "3<em>H</em>-Pyrido[3,4-<em>b</em>]indole, 4,9-dihydro-7-methoxy-1-methyl-;Harmaline;Harmidine;4,9-Dihydro-7-methoxy-1-methyl-3<em>H</em>-pyrido[3,4-<em>b</em>]indole;3,4-Dihydroharmine;3,4-Dihydro-7-methoxy-1-methyl-9<em>H</em>-pyrido[3,4-<em>b</em>]indole;1-Methyl-7-methoxy-3,4-dihydro-β-carboline;NSC 407285;MeSH ID: D006246",
    "duplicated_cas_no": "",
    "SMILES": "CC=1C2=C(C=3C(N2)=CC(OC)=CC3)CCN1",
    "meta_data": {
        "InChI": "InChI=1S/C13H14N2O/c1-8-13-11(5-6-14-8)10-4-3-9(16-2)7-12(10)15-13/h3-4,7,15H,5-6H2,1-2H3",
        "InChIKey": null,
        "Canonical SMILES": "N1=C(C=2NC=3C=C(OC)C=CC3C2CC1)C",
        "Molecular Formula": "C<sub>13</sub>H<sub>14</sub>N<sub>2</sub>O",
        "Molecular Mass": "214.26",
        "Melting Point": "250 °C (decomp)"
    }
}