{
    "cas_no": "99294-93-6",
    "key_name": "Zolpidem tartrate",
    "cn_name": "酒石酸唑吡坦;2-(4-甲基苯基)-N,N,6-三甲基咪唑并[1,2-a]吡啶-3-乙酰胺酒石酸盐;",
    "alternate_name": "Imidazo[1,2-<em>a</em>]pyridine-3-acetamide, <em>N</em>,<em>N</em>,6-trimethyl-2-(4-methylphenyl)-, (2<em>R</em>,3<em>R</em>)-2,3-dihydroxybutanedioate (2:1);Imidazo[1,2-<em>a</em>]pyridine-3-acetamide, <em>N</em>,<em>N</em>,6-trimethyl-2-(4-methylphenyl)-, [<em>R</em>-(<em>R</em>*,<em>R</em>*)]-2,3-dihydroxybutanedioate (2:1);Zolpidem tartrate;Ambien;Zolpidem hemitartrate;Stilnoct;Niotal;Stilnox;Ivadal;SL 800750-23N;Zolfresh;Zolinox;sobrium;Intermezzo",
    "duplicated_cas_no": "",
    "SMILES": "C(C(N(C)C)=O)C1=C(N=C2N1C=C(C)C=C2)C3=CC=C(C)C=C3.[C@@H]([C@H](C(O)=O)O)(C(O)=O)O",
    "meta_data": {
        "InChI": "InChI=1S/C19H21N3O.C4H6O6/c1-13-5-8-15(9-6-13)19-16(11-18(23)21(3)4)22-12-14(2)7-10-17(22)20-19;5-1(3(7)8)2(6)4(9)10/h5-10,12H,11H2,1-4H3;1-2,5-6H,(H,7,8)(H,9,10)/t;1-,2-/m.1/s1",
        "InChIKey": null,
        "Canonical SMILES": "O=C(O)C(O)C(O)C(=O)O.O=C(N(C)C)CC1=C(N=C2C=CC(=CN21)C)C3=CC=C(C=C3)C",
        "Molecular Formula": "C<sub>19</sub>H<sub>21</sub>N<sub>3</sub>O.<sup>1</sup>/<sub>2</sub>C<sub>4</sub>H<sub>6</sub>O<sub>6</sub>",
        "Molecular Mass": "",
        "Melting Point": "196 °C"
    }
}