{
    "cas_no": "27246-81-7",
    "key_name": "3-Bromophenylhydrazine hydrochloride",
    "cn_name": "3-溴苯肼盐酸盐;",
    "alternate_name": "Hydrazine, (3-bromophenyl)-, hydrochloride (1:1);Hydrazine, (<em>m</em>-bromophenyl)-, monohydrochloride;Hydrazine, (3-bromophenyl)-, monohydrochloride;Hydrazine, (<em>m</em>-bromophenyl)-, hydrochloride;<em>m</em>-Bromphenylhydrazine hydrochloride;3-Bromophenylhydrazine hydrochloride;1-(3-Bromophenyl)hydrazine hydrochloride",
    "duplicated_cas_no": "",
    "SMILES": "N(N)C1=CC(Br)=CC=C1.Cl",
    "meta_data": {
        "InChI": "InChI=1S/C6H7BrN2.ClH/c7-5-2-1-3-6(4-5)9-8;/h1-4,9H,8H2;1H",
        "InChIKey": null,
        "Canonical SMILES": "Cl.BrC1=CC=CC(=C1)NN",
        "Molecular Formula": "C<sub>6</sub>H<sub>7</sub>BrN<sub>2</sub>.ClH",
        "Molecular Mass": "",
        "Melting Point": "228-230 °C"
    }
}