{
    "cas_no": "5285-60-9",
    "key_name": "4,4′-Bis(<em>sec</em>-butylamino)diphenylmethane",
    "cn_name": null,
    "alternate_name": "Benzenamine, 4,4′-methylenebis[<em>N</em>-(1-methylpropyl)-;Aniline, 4,4′-methylenebis[<em>N</em>-<em>sec</em>-butyl-;4,4′-Methylenebis[<em>N</em>-(1-methylpropyl)benzenamine];4,4′-Bis(<em>sec</em>-butylamino)diphenylmethane;4,4′-Methylenebis[<em>N</em>-<em>sec</em>-butylaniline];Bis(<em>N</em>-<em>sec</em>-butyl-<em>p</em>-aminophenyl)methane;<em>N</em>,<em>N</em>′-Di(2-butyl)-4,4′-methylenedianiline;<em>N</em>,<em>N</em>′-Di-<em>sec</em>-butyl-4,4′-methylenedianiline;UOP 225;Unilink 4200;DBMDA;4,4′-Di(<em>sec</em>-butylamino)diphenylmethane;Ethacure 420;Polylink 4100;Polylink 4200;W 6200;Wanalink 6200;Wanda link 6200;4,4′-Methylene bis[<em>N</em>-(1-methylpropyl)benzenamine];Dinlink 4200;WK 6200;Polylink 4000",
    "duplicated_cas_no": "69522-77-6;106388-88-9;937270-25-2;1135060-63-7;1176323-73-1",
    "SMILES": "C(C1=CC=C(NC(CC)C)C=C1)C2=CC=C(NC(CC)C)C=C2",
    "meta_data": {
        "InChI": "InChI=1S/C21H30N2/c1-5-16(3)22-20-11-7-18(8-12-20)15-19-9-13-21(14-10-19)23-17(4)6-2/h7-14,16-17,22-23H,5-6,15H2,1-4H3",
        "InChIKey": null,
        "Canonical SMILES": "C=1C=C(C=CC1NC(C)CC)CC2=CC=C(C=C2)NC(C)CC",
        "Molecular Formula": "C<sub>21</sub>H<sub>30</sub>N<sub>2</sub>",
        "Molecular Mass": "310.48",
        "Boiling Point": "240-250 °C @ Press: 2-3 Torr"
    }
}