{
    "cas_no": "90213-67-5",
    "key_name": "2,4-Dichloro-7-methyl-7<em>H</em>-pyrrolo[2,3-<em>d</em>]pyrimidine",
    "cn_name": null,
    "alternate_name": "7<em>H</em>-Pyrrolo[2,3-<em>d</em>]pyrimidine, 2,4-dichloro-7-methyl-;2,4-Dichloro-7-methyl-7<em>H</em>-pyrrolo[2,3-<em>d</em>]pyrimidine;2,4-Dichloro-7-methylpyrrolo[2,3-<em>d</em>]pyrimidine",
    "duplicated_cas_no": "",
    "SMILES": "ClC1=C2C(=NC(Cl)=N1)N(C)C=C2",
    "meta_data": {
        "InChI": "InChI=1S/C7H5Cl2N3/c1-12-3-2-4-5(8)10-7(9)11-6(4)12/h2-3H,1H3",
        "InChIKey": null,
        "Canonical SMILES": "ClC=1N=C(Cl)C=2C=CN(C2N1)C",
        "Molecular Formula": "C<sub>7</sub>H<sub>5</sub>Cl<sub>2</sub>N<sub>3</sub>",
        "Molecular Mass": "202.04",
        "Melting Point": "151-152.7 °C"
    }
}