{
    "cas_no": "1126-61-0",
    "key_name": "Hydroxychavicol",
    "cn_name": null,
    "alternate_name": "1,2-Benzenediol, 4-(2-propen-1-yl)-;Pyrocatechol, 4-allyl-;1,2-Benzenediol, 4-(2-propenyl)-;4-(2-Propen-1-yl)-1,2-benzenediol;4-Allylcatechol;1,2-Dihydroxy-4-allylbenzene;4-Allyl-1,2-dihydroxybenzene;1-Allyl-3,4-dihydroxybenzene;4-Allylpyrocatechol;4-(2′-Propenyl)-1,2-benzenediol;Hydroxychavicol;4-(2-Propenyl)-1,2-benzenediol;Desmethyleugenol;4-Allyl-1,2-Benzenediol;3,4-Dihydroxyallylbenzene;<em>p</em>-Allylcatechol",
    "duplicated_cas_no": "",
    "SMILES": "C(C=C)C1=CC(O)=C(O)C=C1",
    "meta_data": {
        "InChI": "InChI=1S/C9H10O2/c1-2-3-7-4-5-8(10)9(11)6-7/h2,4-6,10-11H,1,3H2",
        "InChIKey": null,
        "Canonical SMILES": "OC1=CC=C(C=C1O)CC=C",
        "Molecular Formula": "C<sub>9</sub>H<sub>10</sub>O<sub>2</sub>",
        "Molecular Mass": "150.17",
        "Boiling Point": "147-149 °C @ Press: 10 Torr",
        "Melting Point": "48 °C"
    }
}