{
    "cas_no": "25790-35-6",
    "key_name": "1-(2-Furanyl)-1,3-butanedione",
    "cn_name": "1-(2-糠酰)-1,3-丁二酮;",
    "alternate_name": "1,3-Butanedione, 1-(2-furanyl)-;1,3-Butanedione, 1-(2-furyl)-;1-(2-Furanyl)-1,3-butanedione;2-Furoylacetone;1-(2-Furyl)-1,3-butanedione;2-(1,3-Dioxobutyl)furan;1-(Furan-2-yl)-1,3-dioxobutane",
    "duplicated_cas_no": "",
    "SMILES": "C(CC(C)=O)(=O)C1=CC=CO1",
    "meta_data": {
        "InChI": "InChI=1S/C8H8O3/c1-6(9)5-7(10)8-3-2-4-11-8/h2-4H,5H2,1H3",
        "InChIKey": null,
        "Canonical SMILES": "O=C(C=1OC=CC1)CC(=O)C",
        "Molecular Formula": "C<sub>8</sub>H<sub>8</sub>O<sub>3</sub>",
        "Molecular Mass": "152.15",
        "Boiling Point": "110-115 °C @ Press: 15 Torr"
    }
}