{
    "cas_no": "53-35-0",
    "key_name": "6β-Hydroxycortisol",
    "cn_name": "2,3,4,5,6-五氟苯甲基氯;",
    "alternate_name": "Pregn-4-ene-3,20-dione, 6,11,17,21-tetrahydroxy-, (6β,11β)-;Pregn-4-ene-3,20-dione, 6β,11β,17,21-tetrahydroxy-;Corticosterone, 6β,17-dihydroxy-;(6β,11β)-6,11,17,21-Tetrahydroxypregn-4-ene-3,20-dione;6β-Hydroxycortisol;6β,11β,17α,21-Tetrahydroxypregn-4-ene-3,20-dione;6β,11β,17α,21-Tetrahydroxy-4-pregen-3,20-dione;6β,11β,17α,21-Tetrahydroxypregn-4-en-3,20-dione;6β,17-Dihydroxycorticosterone;NSC 76163",
    "duplicated_cas_no": "",
    "SMILES": "C[C@@]12[C@]([C@]3([C@@]([C@]4(C)C([C@H](O)C3)=CC(=O)CC4)([C@@H](O)C1)[H])[H])(CC[C@@]2(C(CO)=O)O)[H]",
    "meta_data": {
        "InChI": "InChI=1S/C21H30O6/c1-19-5-3-11(23)7-14(19)15(24)8-12-13-4-6-21(27,17(26)10-22)20(13,2)9-16(25)18(12)19/h7,12-13,15-16,18,22,24-25,27H,3-6,8-10H2,1-2H3/t12-,13-,15+,16-,18+,19-,20-,21-/m0/s1",
        "InChIKey": null,
        "Canonical SMILES": "O=C1C=C2C(O)CC3C4CCC(O)(C(=O)CO)C4(C)CC(O)C3C2(C)CC1",
        "Molecular Formula": "C<sub>21</sub>H<sub>30</sub>O<sub>6</sub>",
        "Molecular Mass": "378.46",
        "Melting Point": "239-241 °C"
    }
}