{
    "cas_no": "70060-13-8",
    "key_name": "5-Fluorobenzo[<em>b</em>]thiophene-2-carboxylic acid",
    "cn_name": null,
    "alternate_name": "Benzo[<em>b</em>]thiophene-2-carboxylic acid, 5-fluoro-;5-Fluorobenzo[<em>b</em>]thiophene-2-carboxylic acid;5-Fluorobenzothiophene-2-carboxylic acid;5-Fluoro-1-benzothiophene-2-carboxylic acid",
    "duplicated_cas_no": "",
    "SMILES": "C(O)(=O)C=1SC=2C(C1)=CC(F)=CC2",
    "meta_data": {
        "InChI": "InChI=1S/C9H5FO2S/c10-6-1-2-7-5(3-6)4-8(13-7)9(11)12/h1-4H,(H,11,12)",
        "InChIKey": null,
        "Canonical SMILES": "O=C(O)C=1SC=2C=CC(F)=CC2C1",
        "Molecular Formula": "C<sub>9</sub>H<sub>5</sub>FO<sub>2</sub>S",
        "Molecular Mass": "196.20",
        "Melting Point": "229-230 °C (decomp)"
    }
}