{
    "cas_no": "5747-23-9",
    "key_name": "2-Phenyl-1,3,2-benzodioxaborole",
    "cn_name": null,
    "alternate_name": "1,3,2-Benzodioxaborole, 2-phenyl-;Benzeneboronic acid, cyclic <em>o</em>-phenylene ester;Benzeneboronic acid, <em>o</em>-phenylene ester;2-Phenyl-1,3,2-benzodioxaborole;NSC 54020;2-Phenyl-2<em>H</em>-1,3,2-benzodioxaborole;2-Phenylbenzo[<em>d</em>][1,3,2]dioxaborole",
    "duplicated_cas_no": "",
    "SMILES": "B1(OC=2C(O1)=CC=CC2)C3=CC=CC=C3",
    "meta_data": {
        "InChI": "InChI=1S/C12H9BO2/c1-2-6-10(7-3-1)13-14-11-8-4-5-9-12(11)15-13/h1-9H",
        "InChIKey": null,
        "Canonical SMILES": "O1B(OC=2C=CC=CC12)C=3C=CC=CC3",
        "Molecular Formula": "C<sub>12</sub>H<sub>9</sub>BO<sub>2</sub>",
        "Molecular Mass": "196.01",
        "Boiling Point": "124 °C @ Press: 0.4 Torr",
        "Density": "1.26 g/cm³"
    }
}