{
    "cas_no": "4425-93-8",
    "key_name": "9<em>H</em>-Fluorene-9,9-dimethanol",
    "cn_name": null,
    "alternate_name": "9<em>H</em>-Fluorene-9,9-dimethanol;Fluorene-9,9-dimethanol;9,9-Bis(hydroxymethyl)fluorene;NSC 402230;(9<em>H</em>-Fluorene-9,9-diyl)dimethanol;[9-(Hydroxymethyl)fluoren-9-yl]methanol",
    "duplicated_cas_no": "",
    "SMILES": "C(O)C1(CO)C=2C(C=3C1=CC=CC3)=CC=CC2",
    "meta_data": {
        "InChI": "InChI=1S/C15H14O2/c16-9-15(10-17)13-7-3-1-5-11(13)12-6-2-4-8-14(12)15/h1-8,16-17H,9-10H2",
        "InChIKey": null,
        "Canonical SMILES": "OCC1(C=2C=CC=CC2C=3C=CC=CC31)CO",
        "Molecular Formula": "C<sub>15</sub>H<sub>14</sub>O<sub>2</sub>",
        "Molecular Mass": "226.27",
        "Melting Point": "145.5-146.5 °C"
    }
}