{
    "cas_no": "3274-28-0",
    "key_name": "2-Propylhexanoic acid",
    "cn_name": null,
    "alternate_name": "Hexanoic acid, 2-propyl-;2-Propylhexanoic acid;4-Octanecarboxylic acid",
    "duplicated_cas_no": "152916-69-3",
    "SMILES": "C(CCCC)(CCC)C(O)=O",
    "meta_data": {
        "InChI": "InChI=1S/C9H18O2/c1-3-5-7-8(6-4-2)9(10)11/h8H,3-7H2,1-2H3,(H,10,11)",
        "InChIKey": null,
        "Canonical SMILES": "O=C(O)C(CCC)CCCC",
        "Molecular Formula": "C<sub>9</sub>H<sub>18</sub>O<sub>2</sub>",
        "Molecular Mass": "158.24",
        "Boiling Point": "127 °C @ Press: 5 Torr",
        "Density": "0.914 g/cm³"
    }
}