{
    "cas_no": "576-83-0",
    "key_name": "Mesityl bromide",
    "cn_name": "2-溴-1,3,5-三甲基苯;",
    "alternate_name": "Benzene, 2-bromo-1,3,5-trimethyl-;Mesitylene, 2-bromo-;2-Bromo-1,3,5-trimethylbenzene;2-Bromomesitylene;Mesityl bromide;2,4,6-Trimethylbromobenzene;2,4,6-Trimethylphenyl bromide;1-Bromo-2,4,6-trimethylbenzene;1-Bromomesitylene;NSC 8064;2,4,6-Trimethyl-1-bromobenzene",
    "duplicated_cas_no": "",
    "SMILES": "BrC1=C(C)C=C(C)C=C1C",
    "meta_data": {
        "InChI": "InChI=1S/C9H11Br/c1-6-4-7(2)9(10)8(3)5-6/h4-5H,1-3H3",
        "InChIKey": null,
        "Canonical SMILES": "BrC=1C(=CC(=CC1C)C)C",
        "Molecular Formula": "C<sub>9</sub>H<sub>11</sub>Br",
        "Molecular Mass": "199.09",
        "Boiling Point": "225 °C",
        "Melting Point": "-1 °C",
        "Density": "1.3220 g/cm³ @ Temp: 20 °C"
    }
}