{
    "cas_no": "13595-25-0",
    "key_name": "Bisphenol M",
    "cn_name": "双酚M;1,3-双[2-(4-羟基苯基)-2-丙基]苯;",
    "alternate_name": "Phenol, 4,4′-[1,3-phenylenebis(1-methylethylidene)]bis-;Phenol, 4,4′-(<em>m</em>-phenylenediisopropylidene)di-;4,4′-[1,3-Phenylenebis(1-methylethylidene)]bis[phenol];1,3-Bis[2-(4-hydroxyphenyl)-2-propyl]benzene;1,3-Di[2-(4-hydroxyphenyl)-2-propyl]benzene;1,3-Bis(4-hydroxycumyl)benzene;4,4′-(<em>m</em>-Phenylenediisopropylidene)diphenol;4,4′-(<em>m</em>-Phenylenediisopropylidene)bisphenol;Bisphenol M;1,3-Bis[α-methyl-α-(4-hydroxyphenyl)ethyl]benzene;1,3-Bis[1-methyl-1-(4-hydroxyphenyl)ethyl]benzene;4,4′-[1,3-Phenylenebis(2,2-propylidene)]bisphenol;4,4′-(1,3-Phenylenediisopropylidene)bisphenol",
    "duplicated_cas_no": "122907-77-1;133556-17-9;194023-00-2",
    "SMILES": "C(C)(C)(C1=CC(C(C)(C)C2=CC=C(O)C=C2)=CC=C1)C3=CC=C(O)C=C3",
    "meta_data": {
        "InChI": "InChI=1S/C24H26O2/c1-23(2,17-8-12-21(25)13-9-17)19-6-5-7-20(16-19)24(3,4)18-10-14-22(26)15-11-18/h5-16,25-26H,1-4H3",
        "InChIKey": null,
        "Canonical SMILES": "OC1=CC=C(C=C1)C(C2=CC=CC(=C2)C(C3=CC=C(O)C=C3)(C)C)(C)C",
        "Molecular Formula": "C<sub>24</sub>H<sub>26</sub>O<sub>2</sub>",
        "Molecular Mass": "346.46",
        "Melting Point": "137.5-140.5 °C"
    }
}