{
    "cas_no": "1641-40-3",
    "key_name": "2-Chloro-1,3,2-benzodioxaphosphole",
    "cn_name": "1,2-亚苯基-次氯酸化膦;a-丙烯酸氯甲酯;邻苯撑磷酰氯;1,2-亚苯基-次氯酸化膦;1,2-亚苯基-次氯酸化膦,97%;",
    "alternate_name": "1,3,2-Benzodioxaphosphole, 2-chloro-;Phosphorochloridous acid, cyclic <em>o</em>-phenylene ester;<em>o</em>-Phenylene phosphorochloridite;Pyrocatechol, cyclic phosphorochloridite;2-Chloro-1,3,2-benzodioxaphosphole;<em>o</em>-Phenylene phosphorochloridite ((C<sub>6</sub>H<sub>4</sub>O<sub>2</sub>)ClP);1,2-Phenylene phosphorochloridite ((C<sub>6</sub>H<sub>4</sub>O<sub>2</sub>)ClP);Cyclic <em>o</em>-phenylene phosphorochloridite;<em>o</em>-Phenylene chlorophosphite;Pyrocatechol phosphoryl chloride;2-Chloro-1,3,2-benzodioxaphospholane;Chloro(1,2-phenylenedioxy)phosphine;Phosphorochloridous acid orthophenylene ester;2-Chloro-4,5-benzo-1,3,2-dioxaphospholane;1,2-Phenylene phosphorochloridite;2-Chloro-2<em>H</em>-1,3,2-benzodioxaphosphole",
    "duplicated_cas_no": "60480-12-8",
    "SMILES": "ClP1OC=2C(O1)=CC=CC2",
    "meta_data": {
        "InChI": "InChI=1S/C6H4ClO2P/c7-10-8-5-3-1-2-4-6(5)9-10/h1-4H",
        "InChIKey": null,
        "Canonical SMILES": "ClP1OC=2C=CC=CC2O1",
        "Molecular Formula": "C<sub>6</sub>H<sub>4</sub>ClO<sub>2</sub>P",
        "Molecular Mass": "174.52",
        "Boiling Point": "80 °C @ Press: 10 Torr",
        "Melting Point": "30 °C"
    }
}