{
    "cas_no": "932-90-1",
    "key_name": "Benzaldehyde oxime",
    "cn_name": null,
    "alternate_name": "Benzaldehyde, oxime;Benzaldehyde oxime;Benzaldoxime;α-Benzyl monoxime;α-Benzaldoxime;Benzaloxime;Benzoxime;NSC 68362",
    "duplicated_cas_no": "",
    "SMILES": "C(=NO)C1=CC=CC=C1",
    "meta_data": {
        "InChI": "InChI=1S/C7H7NO/c9-8-6-7-4-2-1-3-5-7/h1-6,9H",
        "InChIKey": null,
        "Canonical SMILES": "ON=CC=1C=CC=CC1",
        "Molecular Formula": "C<sub>7</sub>H<sub>7</sub>NO",
        "Molecular Mass": "121.14",
        "Boiling Point": "117-119 °C @ Press: 14 Torr",
        "Melting Point": "35 °C",
        "Density": "1.121 g/cm³ @ Temp: 20 °C"
    }
}