{
    "cas_no": "1530-45-6",
    "key_name": "Phosphonium, (2-ethoxy-2-oxoethyl)triphenyl-, bromide (1:1)",
    "cn_name": "乙氧甲酰基甲基三苯基溴化膦;(乙氧基羰基甲基)三苯基溴化膦;",
    "alternate_name": "Phosphonium, (2-ethoxy-2-oxoethyl)triphenyl-, bromide (1:1);Phosphonium, (carboxymethyl)triphenyl-, bromide, ethyl ester;Phosphonium, (2-ethoxy-2-oxoethyl)triphenyl-, bromide;(Carboxymethyl)triphenylphosphonium bromide ethyl ester;(Carbethoxymethyl)triphenylphosphonium bromide;Ethoxycarbonylmethyltriphenylphosphonium bromide;Carboethoxymethyltriphenylphosphonium bromide;(2-Ethoxy-2-oxoethyl)(triphenyl)phosphonium bromide;NSC 60450",
    "duplicated_cas_no": "128428-67-1",
    "SMILES": "[P+](CC(OCC)=O)(C1=CC=CC=C1)(C2=CC=CC=C2)C3=CC=CC=C3.[Br-]",
    "meta_data": {
        "InChI": "InChI=1S/C22H22O2P.BrH/c1-2-24-22(23)18-25(19-12-6-3-7-13-19,20-14-8-4-9-15-20)21-16-10-5-11-17-21;/h3-17H,2,18H2,1H3;1H/q+1;/p-1",
        "InChIKey": null,
        "Canonical SMILES": "[Br-].O=C(OCC)C[P+](C=1C=CC=CC1)(C=2C=CC=CC2)C=3C=CC=CC3",
        "Molecular Formula": "C<sub>22</sub>H<sub>22</sub>O<sub>2</sub>P.Br",
        "Molecular Mass": "",
        "Melting Point": "157 °C"
    }
}