{
    "cas_no": "25357-81-7",
    "key_name": "3-Aminopropyltris(trimethylsiloxy)silane",
    "cn_name": null,
    "alternate_name": "1-Propanamine, 3-[3,3,3-trimethyl-1,1-bis[(trimethylsilyl)oxy]-1-disiloxanyl]-;Propylamine, 3-[3,3,3-trimethyl-1,1-bis(trimethylsiloxy)disiloxanyl]-;1-Propanamine, 3-[3,3,3-trimethyl-1,1-bis[(trimethylsilyl)oxy]disiloxanyl]-;3-[3,3,3-Trimethyl-1,1-bis[(trimethylsilyl)oxy]-1-disiloxanyl]-1-propanamine;Tris(trimethylsiloxy)(3-aminopropyl)silane;3-Tris[(trimethylsilyl)oxy]silyl]propylamine;3-Aminopropyltris(trimethylsiloxy)silane;A 0805;3-Tris(trimethylsilyloxy)silylpropan-1-amine;3-(1,1,1,5,5,5-Hexamethyl-3-((trimethylsilyl)oxy)trisiloxan-3-yl)propan-1-amine",
    "duplicated_cas_no": "",
    "SMILES": "[Si](O[Si](C)(C)C)(O[Si](C)(C)C)(O[Si](C)(C)C)CCCN",
    "meta_data": {
        "InChI": "InChI=1S/C12H35NO3Si4/c1-17(2,3)14-20(12-10-11-13,15-18(4,5)6)16-19(7,8)9/h10-13H2,1-9H3",
        "InChIKey": null,
        "Canonical SMILES": "O([Si](O[Si](C)(C)C)(O[Si](C)(C)C)CCCN)[Si](C)(C)C",
        "Molecular Formula": "C<sub>12</sub>H<sub>35</sub>NO<sub>3</sub>Si<sub>4</sub>",
        "Molecular Mass": "353.75",
        "Boiling Point": "152 °C @ Press: 47 Torr",
        "Density": "0.891 g/cm³ @ Temp: 25 °C"
    }
}