{
    "cas_no": "3484-35-3",
    "key_name": "5-Methyloxindole",
    "cn_name": null,
    "alternate_name": "2<em>H</em>-Indol-2-one, 1,3-dihydro-5-methyl-;2-Indolinone, 5-methyl-;Oxindole, 5-methyl-;1,3-Dihydro-5-methyl-2<em>H</em>-indol-2-one;5-Methyloxindole;5-Methyl-2-oxoindoline;5-Methyl-2-oxindole;5-Methyl-2-indolinone;5-Methyl-1,3-dihydro-2<em>H</em>-indol-2-one",
    "duplicated_cas_no": "",
    "SMILES": "O=C1NC=2C(C1)=CC(C)=CC2",
    "meta_data": {
        "InChI": "InChI=1S/C9H9NO/c1-6-2-3-8-7(4-6)5-9(11)10-8/h2-4H,5H2,1H3,(H,10,11)",
        "InChIKey": null,
        "Canonical SMILES": "O=C1NC2=CC=C(C=C2C1)C",
        "Molecular Formula": "C<sub>9</sub>H<sub>9</sub>NO",
        "Molecular Mass": "147.17",
        "Melting Point": "168 °C"
    }
}