{
    "cas_no": "107-14-2",
    "key_name": "Chloroacetonitrile",
    "cn_name": "氯乙腈;",
    "alternate_name": "Acetonitrile, 2-chloro-;Acetonitrile, chloro-;2-Chloroacetonitrile;Chloroacetonitrile;Chloromethyl cyanide;α-Chloroacetonitrile;Monochloroacetonitrile;Chloracetonitrile;NSC 6180;Cyanomethyl chloride",
    "duplicated_cas_no": "1867-10-3",
    "SMILES": "C(C#N)Cl",
    "meta_data": {
        "InChI": "InChI=1S/C2H2ClN/c3-1-2-4/h1H2",
        "InChIKey": null,
        "Canonical SMILES": "N#CCCl",
        "Molecular Formula": "C<sub>2</sub>H<sub>2</sub>ClN",
        "Molecular Mass": "75.50",
        "Boiling Point": "126.5 °C",
        "Melting Point": "&lt;25 °C",
        "Density": "1.1930 g/cm³"
    }
}