{
    "cas_no": "659-41-6",
    "key_name": "Benzenemethanamine, 4-fluoro-, hydrochloride (1:1)",
    "cn_name": null,
    "alternate_name": "Benzenemethanamine, 4-fluoro-, hydrochloride (1:1);Benzylamine, <em>p</em>-fluoro-, hydrochloride;Benzenemethanamine, 4-fluoro-, hydrochloride;<em>p</em>-Fluorobenzylamine hydrochloride;4-Fluorobenzylamine hydrochloride;(4-Fluorophenyl)methanamine hydrochloride",
    "duplicated_cas_no": "2583632-24-8",
    "SMILES": "C(N)C1=CC=C(F)C=C1.Cl",
    "meta_data": {
        "InChI": "InChI=1S/C7H8FN.ClH/c8-7-3-1-6(5-9)2-4-7;/h1-4H,5,9H2;1H",
        "InChIKey": null,
        "Canonical SMILES": "Cl.FC1=CC=C(C=C1)CN",
        "Molecular Formula": "C<sub>7</sub>H<sub>8</sub>FN.ClH",
        "Molecular Mass": "",
        "Melting Point": "265-268 °C"
    }
}