{
    "cas_no": "1173-26-8",
    "key_name": "Corticosterone acetate",
    "cn_name": "21-乙酸肾上腺酮;21-乙酸肾上腺酮;",
    "alternate_name": "Pregn-4-ene-3,20-dione, 21-(acetyloxy)-11-hydroxy-, (11β)-;Corticosterone, 21-acetate;Corticosterone acetate;(11β)-21-(Acetyloxy)-11-hydroxypregn-4-ene-3,20-dione;SKF 5654;Cort A;NSC 81764",
    "duplicated_cas_no": "",
    "SMILES": "C[C@@]12[C@@]3([C@]([C@]4([C@](C)(C[C@@H]3O)[C@@H](C(COC(C)=O)=O)CC4)[H])(CCC1=CC(=O)CC2)[H])[H]",
    "meta_data": {
        "InChI": "InChI=1S/C23H32O5/c1-13(24)28-12-20(27)18-7-6-17-16-5-4-14-10-15(25)8-9-22(14,2)21(16)19(26)11-23(17,18)3/h10,16-19,21,26H,4-9,11-12H2,1-3H3/t16-,17-,18+,19-,21+,22-,23-/m0/s1",
        "InChIKey": null,
        "Canonical SMILES": "O=C(OCC(=O)C1CCC2C3CCC4=CC(=O)CCC4(C)C3C(O)CC12C)C",
        "Molecular Formula": "C<sub>23</sub>H<sub>32</sub>O<sub>5</sub>",
        "Molecular Mass": "388.50",
        "Melting Point": "152.5-153.0 °C"
    }
}