{
    "cas_no": "603-00-9",
    "key_name": "Proxyphylline",
    "cn_name": "羟丙茶碱;7-(2-羟基丙基)-1,3-二甲基-3,7-二氢-1H-嘌呤-2,6-二酮;",
    "alternate_name": "1<em>H</em>-Purine-2,6-dione, 3,7-dihydro-7-(2-hydroxypropyl)-1,3-dimethyl-;Theophylline, 7-(2-hydroxypropyl)-;3,7-Dihydro-7-(2-hydroxypropyl)-1,3-dimethyl-1<em>H</em>-purine-2,6-dione;Brontyl;1,3-Dimethyl-7-(2-hydroxypropyl)xanthine;7-(β-Hydroxypropyl)theophylline;Proxyphylline;Purophyllin;7-(2-Hydroxypropyl)theophylline;Spasmolysin;Hydroxypropyltheophylline;2-Hydroxypropyl-7-theophylline;Oxypropyltheophylline;β-Hydroxypropyltheophylline;Proxiphylline;7-(β-Hydroxypropyl)-1,3-dimethylxanthine;Theoden;Sanwaphyllin;Sigophyl;Thean;Monophylline;2,6-Dioxo-3,7-dihydro-7-(2-hydroxypropyl)-1,3-dimethylpurine;(±)-Proxyphyllin;Proxy-Retardoral;Theon;Spantin;NSC 163343",
    "duplicated_cas_no": "86480-51-5",
    "SMILES": "C(C(C)O)N1C2=C(N(C)C(=O)N(C)C2=O)N=C1",
    "meta_data": {
        "InChI": "InChI=1S/C10H14N4O3/c1-6(15)4-14-5-11-8-7(14)9(16)13(3)10(17)12(8)2/h5-6,15H,4H2,1-3H3",
        "InChIKey": null,
        "Canonical SMILES": "O=C1C2=C(N=CN2CC(O)C)N(C(=O)N1C)C",
        "Molecular Formula": "C<sub>10</sub>H<sub>14</sub>N<sub>4</sub>O<sub>3</sub>",
        "Molecular Mass": "238.24",
        "Melting Point": "135.5 °C"
    }
}