{
    "cas_no": "14392-72-4",
    "key_name": "1-(4-Hydroxyphenyl)-1-heptanone",
    "cn_name": "4\"-羟基苯庚酮;对羟基苯庚酮;",
    "alternate_name": "1-Heptanone, 1-(4-hydroxyphenyl)-;Heptanophenone, 4′-hydroxy-;1-(4-Hydroxyphenyl)-1-heptanone;<em>p</em>-Hydroxyheptanophenone;4′-Hydroxyheptanophenone",
    "duplicated_cas_no": "",
    "SMILES": "C(CCCCCC)(=O)C1=CC=C(O)C=C1",
    "meta_data": {
        "InChI": "InChI=1S/C13H18O2/c1-2-3-4-5-6-13(15)11-7-9-12(14)10-8-11/h7-10,14H,2-6H2,1H3",
        "InChIKey": null,
        "Canonical SMILES": "O=C(C1=CC=C(O)C=C1)CCCCCC",
        "Molecular Formula": "C<sub>13</sub>H<sub>18</sub>O<sub>2</sub>",
        "Molecular Mass": "206.28",
        "Boiling Point": "220 °C @ Press: 15 Torr",
        "Melting Point": "93-94 °C"
    }
}