{
    "cas_no": "1663-35-0",
    "key_name": "(2-Methoxyethoxy)ethene",
    "cn_name": "2-甲氧基乙基乙烯基醚;乙二醇甲基乙烯基醚;",
    "alternate_name": "Ethene, (2-methoxyethoxy)-;Ethane, 1-methoxy-2-(vinyloxy)-;(2-Methoxyethoxy)ethene;Vinyl 2-methoxyethyl ether;2-Methoxyethyl ethenyl ether;1-Methoxy-2-(vinyloxy)ethane;2-Methoxyethyl vinyl ether;NSC 2143;1-Ethenoxy-2-methoxyethane;1-(Ethenyloxy)-2-methoxyethane",
    "duplicated_cas_no": "",
    "SMILES": "C(COC)OC=C",
    "meta_data": {
        "InChI": "InChI=1S/C5H10O2/c1-3-7-5-4-6-2/h3H,1,4-5H2,2H3",
        "InChIKey": null,
        "Canonical SMILES": "O(C=C)CCOC",
        "Molecular Formula": "C<sub>5</sub>H<sub>10</sub>O<sub>2</sub>",
        "Molecular Mass": "102.13",
        "Boiling Point": "108.8 °C @ Press: 760 Torr",
        "Melting Point": "-83 °C",
        "Density": "0.897 g/cm³ @ Temp: 20 °C"
    }
}