{
    "cas_no": "451-40-1",
    "key_name": "2-Phenylacetophenone",
    "cn_name": "二苯基乙酮;苄基苯基酮;",
    "alternate_name": "Ethanone, 1,2-diphenyl-;Acetophenone, 2-phenyl-;1,2-Diphenylethanone;Benzoin, deoxy-;Deoxybenzoin;Desoxybenzoin;Phenyl benzyl ketone;Benzyl phenyl ketone;2-Phenylacetophenone;1,2-Diphenylethan-1-one;α-Phenylacetophenone;Phenylmethyl phenyl ketone;NSC 131456;NSC 249236;NSC 6097",
    "duplicated_cas_no": "",
    "SMILES": "C(CC1=CC=CC=C1)(=O)C2=CC=CC=C2",
    "meta_data": {
        "InChI": "InChI=1S/C14H12O/c15-14(13-9-5-2-6-10-13)11-12-7-3-1-4-8-12/h1-10H,11H2",
        "InChIKey": null,
        "Canonical SMILES": "O=C(C=1C=CC=CC1)CC=2C=CC=CC2",
        "Molecular Formula": "C<sub>14</sub>H<sub>12</sub>O",
        "Molecular Mass": "196.24",
        "Boiling Point": "320 °C",
        "Melting Point": "60 °C"
    }
}