{
    "cas_no": "18609-17-1",
    "key_name": "Quercetin 3-<em>O</em>-sophoroside",
    "cn_name": null,
    "alternate_name": "4<em>H</em>-1-Benzopyran-4-one, 2-(3,4-dihydroxyphenyl)-3-[(2-<em>O</em>-β-<span class=\"text-smallcaps\">D</smallcap>-glucopyranosyl-β-<smallcap>D</span>-glucopyranosyl)oxy]-5,7-dihydroxy-;Flavone, 3,3′,4′,5,7-pentahydroxy-, 3-(2-<em>O</em>-β-<span class=\"text-smallcaps\">D</smallcap>-glucopyranosyl-β-<smallcap>D</span>-glucopyranoside);Flavone, 3,3′,4′,5,7-pentahydroxy-, 3-β-<span class=\"text-smallcaps\">D</span>-sophoroside;2-(3,4-Dihydroxyphenyl)-3-[(2-<em>O</em>-β-<span class=\"text-smallcaps\">D</smallcap>-glucopyranosyl-β-<smallcap>D</span>-glucopyranosyl)oxy]-5,7-dihydroxy-4<em>H</em>-1-benzopyran-4-one;Quercetin 3-β-sophoroside;Q 6;Quercetin 3-<em>O</em>-sophoroside;Quercetin 3-β-<span class=\"text-smallcaps\">D</span>-sophoroside;Baimaside;Quercetin 3-<em>O</em>-(2-<em>O</em>-β-<span class=\"text-smallcaps\">D</smallcap>-glucopyranosyl)-β-<smallcap>D</span>-glucopyranoside;Quercetin-3-<em>O</em>-β-<span class=\"text-smallcaps\">D</smallcap>-glucosyl-(2→1)-β-<smallcap>D</span>-glucoside;Quercetin 3-<em>O</em>-β-<span class=\"text-smallcaps\">D</smallcap>-glucopyranosyl(1→2)-β-<smallcap>D</span>-glucopyranoside",
    "duplicated_cas_no": "31564-15-5",
    "SMILES": "O(C1=C(OC=2C(C1=O)=C(O)C=C(O)C2)C3=CC(O)=C(O)C=C3)[C@H]4[C@H](O[C@@H]5O[C@H](CO)[C@@H](O)[C@H](O)[C@H]5O)[C@@H](O)[C@H](O)[C@@H](CO)O4",
    "meta_data": {
        "InChI": "InChI=1S/C27H30O17/c28-6-14-17(34)20(37)22(39)26(41-14)44-25-21(38)18(35)15(7-29)42-27(25)43-24-19(36)16-12(33)4-9(30)5-13(16)40-23(24)8-1-2-10(31)11(32)3-8/h1-5,14-15,17-18,20-22,25-35,37-39H,6-7H2/t14-,15-,17-,18-,20+,21+,22-,25-,26+,27+/m1/s1",
        "InChIKey": null,
        "Canonical SMILES": "O=C1C(OC2OC(CO)C(O)C(O)C2OC3OC(CO)C(O)C(O)C3O)=C(OC=4C=C(O)C=C(O)C14)C=5C=CC(O)=C(O)C5",
        "Molecular Formula": "C<sub>27</sub>H<sub>30</sub>O<sub>17</sub>",
        "Molecular Mass": "626.52",
        "Melting Point": "198-200 °C"
    }
}