{
    "cas_no": "3430-34-0",
    "key_name": "3,5-Dibromo-2,6-dimethylpyridine",
    "cn_name": null,
    "alternate_name": "Pyridine, 3,5-dibromo-2,6-dimethyl-;2,6-Lutidine, 3,5-dibromo-;3,5-Dibromo-2,6-dimethylpyridine;3,5-Dibromo-2,6-lutidine",
    "duplicated_cas_no": "",
    "SMILES": "BrC1=C(C)N=C(C)C(Br)=C1",
    "meta_data": {
        "InChI": "InChI=1S/C7H7Br2N/c1-4-6(8)3-7(9)5(2)10-4/h3H,1-2H3",
        "InChIKey": null,
        "Canonical SMILES": "BrC=1C=C(Br)C(=NC1C)C",
        "Molecular Formula": "C<sub>7</sub>H<sub>7</sub>Br<sub>2</sub>N",
        "Molecular Mass": "264.95",
        "Melting Point": "46-57 °C"
    }
}