{
    "cas_no": "20511-12-0",
    "key_name": "2-Amino-5-iodopyridine",
    "cn_name": "2-氨基-5-碘吡啶;",
    "alternate_name": "2-Pyridinamine, 5-iodo-;Pyridine, 2-amino-5-iodo-;5-Iodo-2-pyridinamine;5-Iodo-2-aminopyridine;2-Amino-5-iodopyridine;6-Amino-3-iodopyridine;NSC 31592;(5-Iodopyridin-2-yl)amine",
    "duplicated_cas_no": "",
    "SMILES": "IC=1C=CC(N)=NC1",
    "meta_data": {
        "InChI": "InChI=1S/C5H5IN2/c6-4-1-2-5(7)8-3-4/h1-3H,(H2,7,8)",
        "InChIKey": null,
        "Canonical SMILES": "IC1=CN=C(N)C=C1",
        "Molecular Formula": "C<sub>5</sub>H<sub>5</sub>IN<sub>2</sub>",
        "Molecular Mass": "220.01",
        "Melting Point": "129 °C"
    }
}