{
    "cas_no": "30414-53-0",
    "key_name": "Methyl 3-oxopentanoate",
    "cn_name": "3-氧代戊酸甲酯;",
    "alternate_name": "Pentanoic acid, 3-oxo-, methyl ester;Valeric acid, 3-oxo-, methyl ester;Methyl 3-oxopentanoate;Methyl β-ketovalerate;Methyl propionylacetate;Methyl 3-oxovalerate;3-Oxopentanoic acid methyl ester;Methyl propanoylacetate;3-Oxovaleric acid methyl ester;Methyl oxovalerate;NV082-1",
    "duplicated_cas_no": "",
    "SMILES": "C(C(CC)=O)C(OC)=O",
    "meta_data": {
        "InChI": "InChI=1S/C6H10O3/c1-3-5(7)4-6(8)9-2/h3-4H2,1-2H3",
        "InChIKey": null,
        "Canonical SMILES": "O=C(OC)CC(=O)CC",
        "Molecular Formula": "C<sub>6</sub>H<sub>10</sub>O<sub>3</sub>",
        "Molecular Mass": "130.14",
        "Boiling Point": "73-76 °C @ Press: 16 Torr"
    }
}