{
    "cas_no": "1251-84-9",
    "key_name": "3,5,6,7,3′,4′-Hexamethoxyflavone",
    "cn_name": null,
    "alternate_name": "4<em>H</em>-1-Benzopyran-4-one, 2-(3,4-dimethoxyphenyl)-3,5,6,7-tetramethoxy-;Flavone, 3,3′,4′,5,6,7-hexamethoxy-;2-(3,4-Dimethoxyphenyl)-3,5,6,7-tetramethoxy-4<em>H</em>-1-benzopyran-4-one;3,5,6,7,3′,4′-Hexamethoxyflavone;Hexamethylquercetagetin;Quercetagetin hexamethyl ether;3,3′,4′,5,6,7-Hexamethoxyflavone;Oxyayanin B trimethyl ether;Hexa-<em>O</em>-methylquercetagetin;NSC 678108;Quercetogetin;3′,4′,3,5,6,7-Hexamethoxyflavone",
    "duplicated_cas_no": "",
    "SMILES": "O(C)C1=C2C(OC(=C(OC)C2=O)C3=CC(OC)=C(OC)C=C3)=CC(OC)=C1OC",
    "meta_data": {
        "InChI": "InChI=1S/C21H22O8/c1-23-12-8-7-11(9-13(12)24-2)18-21(28-6)17(22)16-14(29-18)10-15(25-3)19(26-4)20(16)27-5/h7-10H,1-6H3",
        "InChIKey": null,
        "Canonical SMILES": "O=C1C(OC)=C(OC=2C=C(OC)C(OC)=C(OC)C12)C=3C=CC(OC)=C(OC)C3",
        "Molecular Formula": "C<sub>21</sub>H<sub>22</sub>O<sub>8</sub>",
        "Molecular Mass": "402.39",
        "Melting Point": "142-144 °C"
    }
}