{
    "cas_no": "24305-56-4",
    "key_name": "4-Dodecylresorcinol",
    "cn_name": "4-正十二烷基间苯二酚;",
    "alternate_name": "1,3-Benzenediol, 4-dodecyl-;Resorcinol, 4-dodecyl-;4-Dodecyl-1,3-benzenediol;4-Dodecylresorcinol;NKO 15;4-Laurylresorcinol",
    "duplicated_cas_no": "",
    "SMILES": "C(CCCCCCCCCCC)C1=C(O)C=C(O)C=C1",
    "meta_data": {
        "InChI": "InChI=1S/C18H30O2/c1-2-3-4-5-6-7-8-9-10-11-12-16-13-14-17(19)15-18(16)20/h13-15,19-20H,2-12H2,1H3",
        "InChIKey": null,
        "Canonical SMILES": "OC1=CC=C(C(O)=C1)CCCCCCCCCCCC",
        "Molecular Formula": "C<sub>18</sub>H<sub>30</sub>O<sub>2</sub>",
        "Molecular Mass": "278.43",
        "Melting Point": "78 °C"
    }
}