{
    "cas_no": "593-45-3",
    "key_name": "Octadecane",
    "cn_name": "十八烷;正十八烷;",
    "alternate_name": "Octadecane;<em>n</em>-Octadecane;C18-<em>n</em>-Alkane;NSC 4201;Cactus Normal Paraffin TS 8;TS 8;TS Paraffin TS 8;RT 26;PCM 18",
    "duplicated_cas_no": "",
    "SMILES": "C(CCCCCCCCC)CCCCCCCC",
    "meta_data": {
        "InChI": "InChI=1S/C18H38/c1-3-5-7-9-11-13-15-17-18-16-14-12-10-8-6-4-2/h3-18H2,1-2H3",
        "InChIKey": null,
        "Canonical SMILES": "CCCCCCCCCCCCCCCCCC",
        "Molecular Formula": "C<sub>18</sub>H<sub>38</sub>",
        "Molecular Mass": "254.49",
        "Boiling Point": "316.3 °C",
        "Melting Point": "28.2 °C",
        "Density": "0.7786 g/cm³ @ Temp: 28 °C"
    }
}