{
    "cas_no": "40054-73-7",
    "key_name": "2-Ethyl-9-methyl-4-phenyl-6<em>H</em>-thieno[3,2-<em>f</em>][1,2,4]triazolo[4,3-<em>a</em>][1,4]diazepine",
    "cn_name": null,
    "alternate_name": "6<em>H</em>-Thieno[3,2-<em>f</em>][1,2,4]triazolo[4,3-<em>a</em>][1,4]diazepine, 2-ethyl-9-methyl-4-phenyl-;2-Ethyl-9-methyl-4-phenyl-6<em>H</em>-thieno[3,2-<em>f</em>][1,2,4]triazolo[4,3-<em>a</em>][1,4]diazepine",
    "duplicated_cas_no": "",
    "SMILES": "CC=1N2C3=C(C(=NCC2=NN1)C4=CC=CC=C4)C=C(CC)S3",
    "meta_data": {
        "InChI": "InChI=1S/C17H16N4S/c1-3-13-9-14-16(12-7-5-4-6-8-12)18-10-15-20-19-11(2)21(15)17(14)22-13/h4-9H,3,10H2,1-2H3",
        "InChIKey": null,
        "Canonical SMILES": "N=1N=C2N(C1C)C=3SC(=CC3C(=NC2)C=4C=CC=CC4)CC",
        "Molecular Formula": "C<sub>17</sub>H<sub>16</sub>N<sub>4</sub>S",
        "Molecular Mass": "308.40",
        "Melting Point": "165-166 °C"
    }
}