{
    "cas_no": "19064-65-4",
    "key_name": "3-Methoxypyridazine",
    "cn_name": null,
    "alternate_name": "Pyridazine, 3-methoxy-;3-Methoxypyridazine",
    "duplicated_cas_no": "",
    "SMILES": "O(C)C1=CC=CN=N1",
    "meta_data": {
        "InChI": "InChI=1S/C5H6N2O/c1-8-5-3-2-4-6-7-5/h2-4H,1H3",
        "InChIKey": null,
        "Canonical SMILES": "N=1N=C(OC)C=CC1",
        "Molecular Formula": "C<sub>5</sub>H<sub>6</sub>N<sub>2</sub>O",
        "Molecular Mass": "110.11",
        "Boiling Point": "77-78 °C @ Press: 5 Torr"
    }
}