{
    "cas_no": "628-41-1",
    "key_name": "1,4-Cyclohexadiene",
    "cn_name": "1,4-环己二烯;1,4-二氢苯;",
    "alternate_name": "1,4-Cyclohexadiene;1,4-Dihydrobenzene",
    "duplicated_cas_no": "33004-08-9;56481-79-9",
    "SMILES": "C1C=CCC=C1",
    "meta_data": {
        "InChI": "InChI=1S/C6H8/c1-2-4-6-5-3-1/h1-2,5-6H,3-4H2",
        "InChIKey": null,
        "Canonical SMILES": "C1=CCC=CC1",
        "Molecular Formula": "C<sub>6</sub>H<sub>8</sub>",
        "Molecular Mass": "80.13",
        "Boiling Point": "85.5 °C",
        "Melting Point": "-49.2 °C",
        "Density": "0.8569 g/cm³ @ Temp: 20 °C"
    }
}