{
    "cas_no": "13280-61-0",
    "key_name": "Bis-MSB",
    "cn_name": "1,4-双[2-(2-甲基苯基)乙烯基]苯;1,4-双(2-甲基苯乙烯基)苯;",
    "alternate_name": "Benzene, 1,4-bis[2-(2-methylphenyl)ethenyl]-;Benzene, <em>p</em>-bis(<em>o</em>-methylstyryl)-;1,4-Bis[2-(2-methylphenyl)ethenyl]benzene;<em>p</em>-Bis(<em>o</em>-methylstyryl)benzene;Bis-MSB;1,4-Bis(2-methylstyryl)benzene;1,4-Bis(<em>o</em>-methylstyryl)benzene;<em>p</em>-Bis(2-methylstyryl)benzene;DST;DST (hole transport material)",
    "duplicated_cas_no": "",
    "SMILES": "C(=CC1=CC=C(C=CC2=C(C)C=CC=C2)C=C1)C3=C(C)C=CC=C3",
    "meta_data": {
        "InChI": "InChI=1S/C24H22/c1-19-7-3-5-9-23(19)17-15-21-11-13-22(14-12-21)16-18-24-10-6-4-8-20(24)2/h3-18H,1-2H3",
        "InChIKey": null,
        "Canonical SMILES": "C=1C=CC(=C(C1)C=CC2=CC=C(C=C2)C=CC=3C=CC=CC3C)C",
        "Molecular Formula": "C<sub>24</sub>H<sub>22</sub>",
        "Molecular Mass": "310.43",
        "Melting Point": "178-179 °C"
    }
}