{
    "cas_no": "41110-33-2",
    "key_name": "2-Pyrazinecarboxylic acid, 5-methyl-, methyl ester",
    "cn_name": null,
    "alternate_name": "2-Pyrazinecarboxylic acid, 5-methyl-, methyl ester;Pyrazinecarboxylic acid, 5-methyl-, methyl ester;Methyl 5-methylpyrazine-2-carboxylate;2-Methoxycarbonyl-5-methylpyrazine;5-Methylpyrazine-2-carboxylic acid methyl ester",
    "duplicated_cas_no": "",
    "SMILES": "C(OC)(=O)C=1C=NC(C)=CN1",
    "meta_data": {
        "InChI": "InChI=1S/C7H8N2O2/c1-5-3-9-6(4-8-5)7(10)11-2/h3-4H,1-2H3",
        "InChIKey": null,
        "Canonical SMILES": "O=C(OC)C1=NC=C(N=C1)C",
        "Molecular Formula": "C<sub>7</sub>H<sub>8</sub>N<sub>2</sub>O<sub>2</sub>",
        "Molecular Mass": "152.15",
        "Melting Point": "92 °C"
    }
}