{
    "cas_no": "287118-97-2",
    "key_name": "4-[(Nitrooxy)methyl]phenyl 2-(acetyloxy)benzoate",
    "cn_name": null,
    "alternate_name": "Benzoic acid, 2-(acetyloxy)-, 4-[(nitrooxy)methyl]phenyl ester;4-[(Nitrooxy)methyl]phenyl 2-(acetyloxy)benzoate;NO-aspirin;NCX 4040;2-(Acetyloxy)benzoic acid 4-(nitroxymethyl)phenyl ester",
    "duplicated_cas_no": "",
    "SMILES": "C(OC1=CC=C(CON(=O)=O)C=C1)(=O)C2=C(OC(C)=O)C=CC=C2",
    "meta_data": {
        "InChI": "InChI=1S/C16H13NO7/c1-11(18)23-15-5-3-2-4-14(15)16(19)24-13-8-6-12(7-9-13)10-22-17(20)21/h2-9H,10H2,1H3",
        "InChIKey": null,
        "Canonical SMILES": "O=C(OC1=CC=C(C=C1)CON(=O)=O)C=2C=CC=CC2OC(=O)C",
        "Molecular Formula": "C<sub>16</sub>H<sub>13</sub>NO<sub>7</sub>",
        "Molecular Mass": "331.28",
        "Melting Point": "84.6-86.0 °C"
    }
}