{
    "cas_no": "4426-79-3",
    "key_name": "<em>sec</em>-Butyl isothiocyanate",
    "cn_name": "异硫氰酸丁酯;",
    "alternate_name": "Butane, 2-isothiocyanato-;Isothiocyanic acid, <em>sec</em>-butyl ester;2-Isothiocyanatobutane;<em>sec</em>-Butyl isothiocyanate;2-Butyl isothiocyanate;1-Methylpropyl isothiocyanate",
    "duplicated_cas_no": "116724-11-9",
    "SMILES": "C(N=C=S)(CC)C",
    "meta_data": {
        "InChI": "InChI=1S/C5H9NS/c1-3-5(2)6-4-7/h5H,3H2,1-2H3",
        "InChIKey": null,
        "Canonical SMILES": "S=C=NC(C)CC",
        "Molecular Formula": "C<sub>5</sub>H<sub>9</sub>NS",
        "Molecular Mass": "115.20",
        "Boiling Point": "62-63 °C @ Press: 21 Torr",
        "Density": "0.9322 g/cm³ @ Temp: 22 °C"
    }
}