{
    "cas_no": "1019-52-9",
    "key_name": "4-Hydroxy-3,5-dinitrobenzoic acid",
    "cn_name": "3,5-二硝基-4-羟基苯甲酸;",
    "alternate_name": "Benzoic acid, 4-hydroxy-3,5-dinitro-;4-Hydroxy-3,5-dinitrobenzoic acid;3,5-Dinitro-4-hydroxybenzoic acid",
    "duplicated_cas_no": "",
    "SMILES": "N(=O)(=O)C1=C(O)C(N(=O)=O)=CC(C(O)=O)=C1",
    "meta_data": {
        "InChI": "InChI=1S/C7H4N2O7/c10-6-4(8(13)14)1-3(7(11)12)2-5(6)9(15)16/h1-2,10H,(H,11,12)",
        "InChIKey": null,
        "Canonical SMILES": "O=C(O)C=1C=C(C(O)=C(C1)N(=O)=O)N(=O)=O",
        "Molecular Formula": "C<sub>7</sub>H<sub>4</sub>N<sub>2</sub>O<sub>7</sub>",
        "Molecular Mass": "228.12",
        "Melting Point": "236 °C"
    }
}