{
    "cas_no": "1148-11-4",
    "key_name": "Benzyloxycarbonyl-<span class=\"text-smallcaps\">L</span>-proline",
    "cn_name": "N-苄氧羰基-L-脯氨酸;N-CBZ-L-脯氨酸;",
    "alternate_name": "1,2-Pyrrolidinedicarboxylic acid, 1-(phenylmethyl) ester, (2<em>S</em>)-;1,2-Pyrrolidinedicarboxylic acid, 1-benzyl ester, <span class=\"text-smallcaps\">L</span>-;1,2-Pyrrolidinedicarboxylic acid, 1-(phenylmethyl) ester, (<em>S</em>)-;<em>N</em>-Carbobenzoxy-<span class=\"text-smallcaps\">L</span>-proline;Benzyloxycarbonyl-<span class=\"text-smallcaps\">L</span>-proline;1-Carbobenzoxy-<span class=\"text-smallcaps\">L</span>-proline;<em>N</em>-(Benzyloxycarbonyl)-<span class=\"text-smallcaps\">L</span>-proline;1-(Benzyloxycarbonyl)-<span class=\"text-smallcaps\">L</span>-proline;Carbobenzoxy-<em>S</em>-proline;Carbobenzoxy-<span class=\"text-smallcaps\">L</span>-proline;Carbobenzyloxy-<span class=\"text-smallcaps\">L</span>-proline;<em>N</em>-Benzyloxycarbonyl-(<em>S</em>)-proline;<em>N</em>-(Carbobenzyloxy)-<span class=\"text-smallcaps\">L</span>-proline;Cbz-<span class=\"text-smallcaps\">L</span>-Pro-OH;(2<em>S</em>)-1,2-Pyrrolidinedicarboxylic acid 1-(phenylmethyl) ester;<em>N</em>-[(Phenylmethoxy)carbonyl]-<span class=\"text-smallcaps\">L</span>-proline;(<em>S</em>)-1-(Benzyloxycarbonyl)pyrrolidine-2-carboxylic acid;<em>N</em>-Cbz-<span class=\"text-smallcaps\">L</span>-proline;(2S)-1-(Benzyloxycarbonyl)pyrrolidine-2-carboxylic acid;(2<em>S</em>)-1-(Benzyloxycarbonyl)pyrrolidine-2-carboxylic acid;<em>N</em>-Carbobenzyloxy-(<em>S</em>)-proline;<span class=\"text-smallcaps\">L</span>-Cbz-Proline;(2S)-1-Phenylmethoxycarbonylpyrrolidine-2-carboxylic acid",
    "duplicated_cas_no": "72580-07-5",
    "SMILES": "C(OCC1=CC=CC=C1)(=O)N2[C@H](C(O)=O)CCC2",
    "meta_data": {
        "InChI": "InChI=1S/C13H15NO4/c15-12(16)11-7-4-8-14(11)13(17)18-9-10-5-2-1-3-6-10/h1-3,5-6,11H,4,7-9H2,(H,15,16)/t11-/m0/s1",
        "InChIKey": null,
        "Canonical SMILES": "O=C(O)C1N(C(=O)OCC=2C=CC=CC2)CCC1",
        "Molecular Formula": "C<sub>13</sub>H<sub>15</sub>NO<sub>4</sub>",
        "Molecular Mass": "249.26",
        "Melting Point": "77 °C"
    }
}