{
    "cas_no": "63562-33-4",
    "key_name": "2-[(6-Oxido-6<em>H</em>-dibenz[<em>c</em>,<em>e</em>][1,2]oxaphosphorin-6-yl)methyl]butanedioic acid",
    "cn_name": "阻燃剂 DDP; [(6-氧代-6H-二苯并[c,e][1,2]氧磷杂己环-6-基)甲基]丁二酸;",
    "alternate_name": "Butanedioic acid, 2-[(6-oxido-6<em>H</em>-dibenz[<em>c</em>,<em>e</em>][1,2]oxaphosphorin-6-yl)methyl]-;Butanedioic acid, (6<em>H</em>-dibenz[<em>c</em>,<em>e</em>][1,2]oxaphosphorin-6-ylmethyl)-, <em>P</em>-oxide;Butanedioic acid, [(6-oxido-6<em>H</em>-dibenz[<em>c</em>,<em>e</em>][1,2]oxaphosphorin-6-yl)methyl]-;6<em>H</em>-Dibenz[<em>c</em>,<em>e</em>][1,2]oxaphosphorin, butanedioic acid deriv.;2-[(6-Oxido-6<em>H</em>-dibenz[<em>c</em>,<em>e</em>][1,2]oxaphosphorin-6-yl)methyl]butanedioic acid;Ukanol RD;9,10-Dihydro-9-oxa-10-phosphaphenanthren-10-oxide itaconic acid adduct;M-Acid;M-Acid (carboxylic acid);ZB 101;DDP;10-(9,10-Dihydro-9-oxa-10-phosphaphenanthrene-10-oxide)-2-methylbutanedicarboxylic acid;Lunastab DDP;DDP Flame Retardant",
    "duplicated_cas_no": "",
    "SMILES": "C(C(CC(O)=O)C(O)=O)P1(=O)C=2C(C=3C(O1)=CC=CC3)=CC=CC2",
    "meta_data": {
        "InChI": "InChI=1S/C17H15O6P/c18-16(19)9-11(17(20)21)10-24(22)15-8-4-2-6-13(15)12-5-1-3-7-14(12)23-24/h1-8,11H,9-10H2,(H,18,19)(H,20,21)",
        "InChIKey": null,
        "Canonical SMILES": "O=C(O)CC(C(=O)O)CP1(=O)OC=2C=CC=CC2C=3C=CC=CC31",
        "Molecular Formula": "C<sub>17</sub>H<sub>15</sub>O<sub>6</sub>P",
        "Molecular Mass": "346.27",
        "Melting Point": "191-192 °C"
    }
}