{
    "cas_no": "95715-87-0",
    "key_name": "(<em>R</em>)-Garner aldehyde",
    "cn_name": "(R)-(+)-3-Boc-2,2-二甲基恶唑啉-4-甲醛; (R)-4-甲酰基-2,2-二甲基-3-恶唑啉羧酸叔丁酯;",
    "alternate_name": "3-Oxazolidinecarboxylic acid, 4-formyl-2,2-dimethyl-, 1,1-dimethylethyl ester, (4<em>R</em>)-;3-Oxazolidinecarboxylic acid, 4-formyl-2,2-dimethyl-, 1,1-dimethylethyl ester, (<em>R</em>)-;1,1-Dimethylethyl (<em>R</em>)-4-formyl-2,2-dimethyl-3-oxazolidinecarboxylate;(<em>R</em>)-Garner aldehyde;<em>tert</em>-Butyl (R)-4-formyl-2,2-dimethyloxazolidine-3-carboxylate;<em>ent</em>-Garner's aldehyde;<em>tert</em>-Butyl (4<em>R</em>)-4-formyl-2,2-dimethyloxazolidine-3-carboxylate;(<em>R</em>)-3-<em>tert</em>-Butoxycarbonyl-2,2-dimethyl-4-formyloxazolidine;(<em>R</em>)-2,2-Dimethyl-3-<em>tert</em>-butoxycarbonyl-1,3-oxazolidine-4-carboxaldehyde;(<em>R</em>)-4-Formyl-2,2-dimethyloxazolidine-3-carboxylic acid tert-butyl ester;(4<em>R</em>)-4-Formyl-2,2-dimethyl-1,3-oxazolidine-3-carboxylic acid tert-butyl ester;<em>tert</em>-Butyl (4<em>R</em>)-4-formyl-2,2-dimethyl-1,3-oxazolidine-3-carboxylate;<em>tert</em>-Butyl (4R)-4-formyl-2,2-dimethyloxazolidine-3-carboxylate;<em>tert</em>-Butyl (<em>R</em>)-(+)-4-formyl-2,2-dimethyloxazolidine-3-carboxylate;(<em>R</em>)-Garner's aldehyde;<em>tert</em>-Butyl (<em>R</em>)-4-formyl-2,2-dimethyloxazolidine-3-carboxylate;(<em>R</em>)-(+)-3-<em>tert</em>-Butoxycarbonyl-2,2-dimethyloxazolidine-4-carboxaldehyde;(<em>R</em>)-<em>tert</em>-Butyl 4-formyl-2,2-dimethyloxazolidine-3-carboxylate;(R)-<em>tert</em>-Butyl 4-formyl-2,2-dimethyloxazolidine-3-carboxylate;(R)-(+)-3-Boc-2,2-dimethyloxazolidine-4-carboxaldehyde",
    "duplicated_cas_no": "",
    "SMILES": "C(OC(C)(C)C)(=O)N1[C@@H](C=O)COC1(C)C",
    "meta_data": {
        "InChI": "InChI=1S/C11H19NO4/c1-10(2,3)16-9(14)12-8(6-13)7-15-11(12,4)5/h6,8H,7H2,1-5H3/t8-/m0/s1",
        "InChIKey": null,
        "Canonical SMILES": "O=CC1N(C(=O)OC(C)(C)C)C(OC1)(C)C",
        "Molecular Formula": "C<sub>11</sub>H<sub>19</sub>NO<sub>4</sub>",
        "Molecular Mass": "229.27",
        "Boiling Point": "83-88 °C @ Press: 1.0-1.4 Torr"
    }
}