{
    "cas_no": "87-61-6",
    "key_name": "1,2,3-Trichlorobenzene",
    "cn_name": "1,2,3-三氯苯;",
    "alternate_name": "Benzene, 1,2,3-trichloro-;1,2,3-Trichlorobenzene;<em>vic</em>-Trichlorobenzene;1,2,6-Trichlorobenzene;NSC 43432",
    "duplicated_cas_no": "",
    "SMILES": "ClC1=C(Cl)C=CC=C1Cl",
    "meta_data": {
        "InChI": "InChI=1S/C6H3Cl3/c7-4-2-1-3-5(8)6(4)9/h1-3H",
        "InChIKey": null,
        "Canonical SMILES": "ClC1=CC=CC(Cl)=C1Cl",
        "Molecular Formula": "C<sub>6</sub>H<sub>3</sub>Cl<sub>3</sub>",
        "Molecular Mass": "181.45",
        "Boiling Point": "218.5 °C",
        "Melting Point": "53.5 °C",
        "Density": "1.4533 g/cm³ @ Temp: 25 °C"
    }
}