{
    "cas_no": "35486-42-1",
    "key_name": "2-Amino-3,5-dibromopyridine",
    "cn_name": "2-氨基-3,5-二溴吡啶;",
    "alternate_name": "2-Pyridinamine, 3,5-dibromo-;Pyridine, 2-amino-3,5-dibromo-;3,5-Dibromo-2-pyridinamine;3,5-Dibromo-2-aminopyridine;2-Amino-3,5-dibromopyridine;NSC 170846;3-Bromo-5-bromo-6-aminopyridine;3,5-Dibromo-pyridin-2-ylamine",
    "duplicated_cas_no": "1350375-08-4",
    "SMILES": "BrC1=C(N)N=CC(Br)=C1",
    "meta_data": {
        "InChI": "InChI=1S/C5H4Br2N2/c6-3-1-4(7)5(8)9-2-3/h1-2H,(H2,8,9)",
        "InChIKey": null,
        "Canonical SMILES": "BrC1=CN=C(N)C(Br)=C1",
        "Molecular Formula": "C<sub>5</sub>H<sub>4</sub>Br<sub>2</sub>N<sub>2</sub>",
        "Molecular Mass": "251.91",
        "Melting Point": "105 °C"
    }
}