{
    "cas_no": "26616-35-3",
    "key_name": "(Vinylbenzyl)trimethylammonium chloride",
    "cn_name": null,
    "alternate_name": "Benzenemethanaminium, <em>ar</em>-ethenyl-<em>N</em>,<em>N</em>,<em>N</em>-trimethyl-, chloride (1:1);Ammonium, trimethyl(<em>ar</em>-vinylbenzyl)-, chloride;Benzenemethanaminium, <em>ar</em>-ethenyl-<em>N</em>,<em>N</em>,<em>N</em>-trimethyl-, chloride;Trimethyl(<em>ar</em>-vinylbenzyl)ammonium chloride;(Vinylbenzyl)trimethylammonium chloride;QBm",
    "duplicated_cas_no": "102329-56-6;129304-96-7;27030-39-3;29034-92-2;73105-20-1",
    "SMILES": "",
    "meta_data": {
        "InChI": "",
        "InChIKey": null,
        "Canonical SMILES": "",
        "Molecular Formula": "C<sub>12</sub>H<sub>18</sub>N.Cl",
        "Molecular Mass": "",
        "Melting Point": "147-150 °C"
    }
}