{
    "cas_no": "3271-05-4",
    "key_name": "<em>N</em>-Methyl-4-methoxy-1,8-naphthalimide",
    "cn_name": null,
    "alternate_name": "1<em>H</em>-Benz[<em>de</em>]isoquinoline-1,3(2<em>H</em>)-dione, 6-methoxy-2-methyl-;Naphthalimide, 4-methoxy-<em>N</em>-methyl-;6-Methoxy-2-methyl-1<em>H</em>-benz[<em>de</em>]isoquinoline-1,3(2<em>H</em>)-dione;4-Methoxynaphthalene-1,8-dicarboxylic methylimide;C.I. Fluorescent Brightening Agent 162;Mikawhite AT;Fluorescent Brightening Agent 162;C.I. Fluorescent Brightener 162;Fluorescent Brightener 162;4-Methoxy-<em>N</em>-methyl-1,8-naphthalimide;Mikawhite AT CONC;C.I. 56190;<em>N</em>-Methyl-4-methoxy-1,8-naphthalimide;AMI 3",
    "duplicated_cas_no": "12224-26-9",
    "SMILES": "O(C)C=1C2=C3C(C(=O)N(C)C(=O)C3=CC=C2)=CC1",
    "meta_data": {
        "InChI": "InChI=1S/C14H11NO3/c1-15-13(16)9-5-3-4-8-11(18-2)7-6-10(12(8)9)14(15)17/h3-7H,1-2H3",
        "InChIKey": null,
        "Canonical SMILES": "O=C1C=2C=CC=C3C(OC)=CC=C(C(=O)N1C)C32",
        "Molecular Formula": "C<sub>14</sub>H<sub>11</sub>NO<sub>3</sub>",
        "Molecular Mass": "241.24",
        "Melting Point": "197-201 °C"
    }
}