{
    "cas_no": "87-31-0",
    "key_name": "5,7-Dinitro-1,2,3-benzoxadiazole",
    "cn_name": "二硝基重氮酚;二硝基重氮酚；重氮二硝基苯酚；4,6-二硝基-2-重氮基-1-氧化苯;",
    "alternate_name": "1,2,3-Benzoxadiazole, 5,7-dinitro-;5,7-Dinitro-1,2,3-benzoxadiazole",
    "duplicated_cas_no": "",
    "SMILES": "N(=O)(=O)C1=C2C(=CC(N(=O)=O)=C1)N=NO2",
    "meta_data": {
        "InChI": "InChI=1S/C6H2N4O5/c11-9(12)3-1-4-6(15-8-7-4)5(2-3)10(13)14/h1-2H",
        "InChIKey": null,
        "Canonical SMILES": "O=N(=O)C1=CC=2N=NOC2C(=C1)N(=O)=O",
        "Molecular Formula": "C<sub>6</sub>H<sub>2</sub>N<sub>4</sub>O<sub>5</sub>",
        "Molecular Mass": "210.10",
        "Melting Point": "158 °C"
    }
}