{
    "cas_no": "609-36-9",
    "key_name": "<span class=\"text-smallcaps\">D</smallcap><smallcap>L</span>-Proline",
    "cn_name": "DL-脯氨酸;",
    "alternate_name": "Proline;<span class=\"text-smallcaps\">D</smallcap><smallcap>L</span>-Proline;Proline, <span class=\"text-smallcaps\">D</smallcap><smallcap>L</span>-;(±)-Proline;<span class=\"text-smallcaps\">D</smallcap><smallcap>L</span>-Pro;(<em>RS</em>)-Proline;NSC 97923;2-Pyrrolidinylcarboxylic acid",
    "duplicated_cas_no": "",
    "SMILES": "C(O)(=O)C1CCCN1",
    "meta_data": {
        "InChI": "InChI=1S/C5H9NO2/c7-5(8)4-2-1-3-6-4/h4,6H,1-3H2,(H,7,8)",
        "InChIKey": null,
        "Canonical SMILES": "O=C(O)C1NCCC1",
        "Molecular Formula": "C<sub>5</sub>H<sub>9</sub>NO<sub>2</sub>",
        "Molecular Mass": "115.13",
        "Melting Point": "205 °C"
    }
}