{
    "cas_no": "107-22-2",
    "key_name": "Glyoxal",
    "cn_name": "乙二醛;",
    "alternate_name": "Ethanedial;Glyoxal;Biformal;1,2-Ethanedione;Oxal;Biformyl;Diformyl;Ethanedione;Glyoxylaldehyde;Oxalaldehyde;Glyoxal aldehyde;Permafresh 114;Gohsezal P;Glyfix CS 50;Daicel GY 60;Glyoxazal;Glyoxazal GX;GX (aldehyde);GX;Glyoxal T 40;Aurarez 136;Protorez BLF-C;Cartabond GHF;Cartabond GH;Glyoxal 40L;XH 536;Freechem 40DL;Earth Works Linkup Plus;MeSH ID: D006037",
    "duplicated_cas_no": "83513-30-8",
    "SMILES": "C(C=O)=O",
    "meta_data": {
        "InChI": "InChI=1S/C2H2O2/c3-1-2-4/h1-2H",
        "InChIKey": null,
        "Canonical SMILES": "O=CC=O",
        "Molecular Formula": "C<sub>2</sub>H<sub>2</sub>O<sub>2</sub>",
        "Molecular Mass": "58.04",
        "Boiling Point": "51 °C @ Press: 776 Torr",
        "Melting Point": "15 °C",
        "Density": "1.14 g/cm³ @ Temp: 20 °C"
    }
}