{
    "cas_no": "526-95-4",
    "key_name": "Gluconic acid",
    "cn_name": "葡萄糖酸;",
    "alternate_name": "<span class=\"text-smallcaps\">D</span>-Gluconic acid;Gluconic acid, <span class=\"text-smallcaps\">D</span>-;Gluconic acid;Maltonic acid;Dextronic acid;Glyconic acid;Glycogenic acid;Pentahydroxycaproic acid;NSC 77381;Gluconal GA-50;Sour Oligo",
    "duplicated_cas_no": "723724-74-1;887830-55-9;880385-91-1",
    "SMILES": "[C@H]([C@@H]([C@@H](CO)O)O)([C@H](C(O)=O)O)O",
    "meta_data": {
        "InChI": "InChI=1S/C6H12O7/c7-1-2(8)3(9)4(10)5(11)6(12)13/h2-5,7-11H,1H2,(H,12,13)/t2-,3-,4+,5-/m1/s1",
        "InChIKey": null,
        "Canonical SMILES": "O=C(O)C(O)C(O)C(O)C(O)CO",
        "Molecular Formula": "C<sub>6</sub>H<sub>12</sub>O<sub>7</sub>",
        "Molecular Mass": "196.16",
        "Melting Point": "131 °C",
        "Density": "1.24 g/cm³ @ Temp: 25 °C"
    }
}