{
    "cas_no": "103-71-9",
    "key_name": "Phenyl isocyanate",
    "cn_name": "异氰酸苯酯;苯基异氰酸酯;",
    "alternate_name": "Benzene, isocyanato-;Isocyanic acid, phenyl ester;Isocyanatobenzene;Carbanil;Mondur P;Phenylcarbimide;Phenyl carbonimide;Phenyl isocyanate;NSC 74454",
    "duplicated_cas_no": "1025436-18-3",
    "SMILES": "N(=C=O)C1=CC=CC=C1",
    "meta_data": {
        "InChI": "InChI=1S/C7H5NO/c9-6-8-7-4-2-1-3-5-7/h1-5H",
        "InChIKey": null,
        "Canonical SMILES": "O=C=NC=1C=CC=CC1",
        "Molecular Formula": "C<sub>7</sub>H<sub>5</sub>NO",
        "Molecular Mass": "119.12",
        "Boiling Point": "158-168 °C",
        "Melting Point": "-30 °C",
        "Density": "1.0956 g/cm³ @ Temp: 19.6 °C"
    }
}