{
    "cas_no": "818-61-1",
    "key_name": "2-Hydroxyethyl acrylate",
    "cn_name": "丙烯酸羟乙酯;",
    "alternate_name": "2-Propenoic acid, 2-hydroxyethyl ester;Acrylic acid, 2-hydroxyethyl ester;β-Hydroxyethyl acrylate;2-Hydroxyethyl acrylate;Ethylene glycol monoacrylate;2-(Acryloyloxy)ethanol;Bisomer 2HEA;Rocryl 420;Light Ester HOA;Viscoat 220;Light Ester OA;Perm A (monomer);Perm A;HEA;AHEC-T;Acryics HEA;2-Hydroxyethyl 2-propenoate;2HEA;Light Acrylate HOA;BHEA;HOA;Light Ester HOA-N;2-Hydroxyethyl ester propenoic acid;2-Hydroxyethyl pro-2-enoate;HEA 98;BEM 120;Acrycs HEA;L 61011;HCA 203",
    "duplicated_cas_no": "77210-89-0;139642-59-4;1637456-67-7",
    "SMILES": "C(OCCO)(C=C)=O",
    "meta_data": {
        "InChI": "InChI=1S/C5H8O3/c1-2-5(7)8-4-3-6/h2,6H,1,3-4H2",
        "InChIKey": null,
        "Canonical SMILES": "O=C(OCCO)C=C",
        "Molecular Formula": "C<sub>5</sub>H<sub>8</sub>O<sub>3</sub>",
        "Molecular Mass": "116.12",
        "Boiling Point": "220 °C",
        "Density": "1.011 g/cm³"
    }
}