{
    "cas_no": "1198-37-4",
    "key_name": "2,4-Dimethylquinoline",
    "cn_name": "2,4-二甲基喹啉;4-甲基喹哪啶;",
    "alternate_name": "Quinoline, 2,4-dimethyl-;2,4-Dimethylquinoline;4-Methylquinaldine;NSC 62132",
    "duplicated_cas_no": "",
    "SMILES": "CC=1C2=C(N=C(C)C1)C=CC=C2",
    "meta_data": {
        "InChI": "InChI=1S/C11H11N/c1-8-7-9(2)12-11-6-4-3-5-10(8)11/h3-7H,1-2H3",
        "InChIKey": null,
        "Canonical SMILES": "N=1C=2C=CC=CC2C(=CC1C)C",
        "Molecular Formula": "C<sub>11</sub>H<sub>11</sub>N",
        "Molecular Mass": "157.21",
        "Boiling Point": "265 °C",
        "Density": "1.0558 g/cm³ @ Temp: 20 °C"
    }
}