{
    "cas_no": "3898-08-6",
    "key_name": "<em>N</em>,<em>N</em>-Diphenylthiourea",
    "cn_name": "1,1-二苯基-2-硫脲;",
    "alternate_name": "Thiourea, <em>N</em>,<em>N</em>-diphenyl-;Urea, 1,1-diphenyl-2-thio-;<em>N</em>,<em>N</em>-Diphenylthiourea;1,1-Diphenyl-2-thiourea;1,1-Diphenylthiourea;NSC 49187",
    "duplicated_cas_no": "",
    "SMILES": "N(C(N)=S)(C1=CC=CC=C1)C2=CC=CC=C2",
    "meta_data": {
        "InChI": "InChI=1S/C13H12N2S/c14-13(16)15(11-7-3-1-4-8-11)12-9-5-2-6-10-12/h1-10H,(H2,14,16)",
        "InChIKey": null,
        "Canonical SMILES": "S=C(N)N(C=1C=CC=CC1)C=2C=CC=CC2",
        "Molecular Formula": "C<sub>13</sub>H<sub>12</sub>N<sub>2</sub>S",
        "Molecular Mass": "228.31",
        "Melting Point": "212 °C"
    }
}