{
    "cas_no": "694-53-1",
    "key_name": "Phenylsilane",
    "cn_name": "苯硅烷;",
    "alternate_name": "Benzene, silyl-;Silane, phenyl-;Silylbenzene;Phenylsilane;Monophenylsilane;NSC 179699;Z 6047;SIP 6750.0",
    "duplicated_cas_no": "",
    "SMILES": "[SiH3]C1=CC=CC=C1",
    "meta_data": {
        "InChI": "InChI=1S/C6H8Si/c7-6-4-2-1-3-5-6/h1-5H,7H3",
        "InChIKey": null,
        "Canonical SMILES": "C=1C=CC(=CC1)[SiH3]",
        "Molecular Formula": "C<sub>6</sub>H<sub>8</sub>Si",
        "Molecular Mass": "108.21",
        "Boiling Point": "119 °C",
        "Melting Point": "-68--64 °C",
        "Density": "0.868 g/cm³"
    }
}