{
    "cas_no": "79560-19-3",
    "key_name": "4-(3,4-Dichlorophenyl)-3,4-dihydro-1(2<em>H</em>)-naphthalenone",
    "cn_name": "4-(3,4-二氯苯基)-1-四氢萘酮;4-(3,4-二氯苯基)-1-萘满酮;",
    "alternate_name": "1(2<em>H</em>)-Naphthalenone, 4-(3,4-dichlorophenyl)-3,4-dihydro-;4-(3,4-Dichlorophenyl)-3,4-dihydro-1(2<em>H</em>)-naphthalenone;(±)-(3,4-Dichlorophenyl)-3,4-dihydro-1(2<em>H</em>)-naphthalenone;4-(3,4-Dichlorophenyl)-1-tetralone;Sertraline tetralone;4-(3,4-Dichlorophenyl)-1-oxo-1,2,3,4-tetrahydronaphthalene;Sertralone;4-(3,4-Dichlorophenyl)-1,2,3,4-tetrahydro-1-naphthalenone;4-(3,4-Dichlorophenyl)-3,4-dihydro-1(2<em>H</em>)-naphthalone;CP 52608;4-(3,4-Dichlorophenyl)tetralin-1-one;Rac-tetralone",
    "duplicated_cas_no": "79836-44-5",
    "SMILES": "O=C1C=2C(C(CC1)C3=CC(Cl)=C(Cl)C=C3)=CC=CC2",
    "meta_data": {
        "InChI": "InChI=1S/C16H12Cl2O/c17-14-7-5-10(9-15(14)18)11-6-8-16(19)13-4-2-1-3-12(11)13/h1-5,7,9,11H,6,8H2",
        "InChIKey": null,
        "Canonical SMILES": "O=C1C=2C=CC=CC2C(C3=CC=C(Cl)C(Cl)=C3)CC1",
        "Molecular Formula": "C<sub>16</sub>H<sub>12</sub>Cl<sub>2</sub>O",
        "Molecular Mass": "291.17",
        "Melting Point": "99-101 °C"
    }
}