{
    "cas_no": "22047-88-7",
    "key_name": "2-(Benzyloxy)phenylacetic acid",
    "cn_name": "2-苯甲氧基苯基乙酸;",
    "alternate_name": "Benzeneacetic acid, 2-(phenylmethoxy)-;Acetic acid, [<em>o</em>-(benzyloxy)phenyl]-;2-(Phenylmethoxy)benzeneacetic acid;<em>o</em>-(Benzyloxy)phenylacetic acid;2-(Benzyloxy)phenylacetic acid;2-Phenylmethoxybenzeneacetic acid;2-(2-(Benzyloxy)phenyl)acetic acid;2-[2-(Benzyloxy)phenyl]acetic acid",
    "duplicated_cas_no": "",
    "SMILES": "O(CC1=CC=CC=C1)C2=C(CC(O)=O)C=CC=C2",
    "meta_data": {
        "InChI": "InChI=1S/C15H14O3/c16-15(17)10-13-8-4-5-9-14(13)18-11-12-6-2-1-3-7-12/h1-9H,10-11H2,(H,16,17)",
        "InChIKey": null,
        "Canonical SMILES": "O=C(O)CC=1C=CC=CC1OCC=2C=CC=CC2",
        "Molecular Formula": "C<sub>15</sub>H<sub>14</sub>O<sub>3</sub>",
        "Molecular Mass": "242.27",
        "Melting Point": "97-99 °C"
    }
}