{
    "cas_no": "27425-55-4",
    "key_name": "Coumarin 7",
    "cn_name": "香豆素7;3-(2-苯并咪唑基)-7-二乙基氨基香豆素;",
    "alternate_name": "2<em>H</em>-1-Benzopyran-2-one, 3-(1<em>H</em>-benzimidazol-2-yl)-7-(diethylamino)-;Coumarin, 3-(2-benzimidazolyl)-7-(diethylamino)-;3-(1<em>H</em>-Benzimidazol-2-yl)-7-(diethylamino)-2<em>H</em>-1-benzopyran-2-one;3-(2-Benzimidazolyl)-7-(diethylamino)coumarin;Coumarin 7;Coumarin 535;Oracet Yellow 8GF;C.I. Disperse Yellow 82;Setaron Brilliant Flavine 8GFF;Terasil Brilliant Flavine 8GFF;Disperse Yellow 82;Kayaset Yellow SF-G;K 7;Polycron Brilliant Yellow 10GF;Terasil Flavine 8GFF;Sumikaron Brilliant Flavine S 10G;Disperse Yellow 8GFF;Yellow 8GFF;Solvent Yellow 185;C.I. Solvent Yellow 185;C.I. 551200;Solvent Yellow 145;C.I. Solvent Yellow 145;Keystone Fluorescent Yellow 10G;NSC 303254;3-(Benzimidazol-2-yl)-7-diethylamino-2<em>H</em>-benzopyran-2-one;Day-Glo Savannah Yellow;C.I. Solvent Yellow 171;Fluorescent Yellow 9GF;3-(2′-Benzimidazolyl)-7-(diethylamino)coumarin;D 820 Savannah Yellow;Savannah Yellow;Fluorescent Yellow 10G",
    "duplicated_cas_no": "136403-01-5;12239-58-6;54576-77-1;222414-02-0",
    "SMILES": "O=C1C(=CC=2C(O1)=CC(N(CC)CC)=CC2)C=3NC=4C(N3)=CC=CC4",
    "meta_data": {
        "InChI": "InChI=1S/C20H19N3O2/c1-3-23(4-2)14-10-9-13-11-15(20(24)25-18(13)12-14)19-21-16-7-5-6-8-17(16)22-19/h5-12H,3-4H2,1-2H3,(H,21,22)",
        "InChIKey": null,
        "Canonical SMILES": "O=C1OC=2C=C(C=CC2C=C1C3=NC=4C=CC=CC4N3)N(CC)CC",
        "Molecular Formula": "C<sub>20</sub>H<sub>19</sub>N<sub>3</sub>O<sub>2</sub>",
        "Molecular Mass": "333.38",
        "Melting Point": "242 °C",
        "Density": "1.345 g/cm³"
    }
}