{
    "cas_no": "3637-61-4",
    "key_name": "Cyclopentanemethanol",
    "cn_name": "环戊基甲醇;",
    "alternate_name": "Cyclopentanemethanol;Cyclopentylmethanol;Cyclopentylmethyl alcohol;(Hydroxymethyl)cyclopentane;Cyclopentylcarbinol;NSC 102763;Cyclopentanemethan-1-ol;Cylopentylmethanol",
    "duplicated_cas_no": "",
    "SMILES": "C(O)C1CCCC1",
    "meta_data": {
        "InChI": "InChI=1S/C6H12O/c7-5-6-3-1-2-4-6/h6-7H,1-5H2",
        "InChIKey": null,
        "Canonical SMILES": "OCC1CCCC1",
        "Molecular Formula": "C<sub>6</sub>H<sub>12</sub>O",
        "Molecular Mass": "100.16",
        "Boiling Point": "163 °C",
        "Melting Point": "121-123 °C",
        "Density": "0.9260 g/cm³ @ Temp: 20 °C"
    }
}