{
    "cas_no": "5341-61-7",
    "key_name": "Hydrazine, dihydrochloride",
    "cn_name": null,
    "alternate_name": "Hydrazine, hydrochloride (1:2);Hydrazine, dihydrochloride",
    "duplicated_cas_no": "",
    "SMILES": "NN.Cl",
    "meta_data": {
        "InChI": "InChI=1S/2ClH.H4N2/c;;1-2/h2*1H;1-2H2",
        "InChIKey": null,
        "Canonical SMILES": "Cl.NN",
        "Molecular Formula": "ClH.<sup>1</sup>/<sub>2</sub>H<sub>4</sub>N<sub>2</sub>",
        "Molecular Mass": "",
        "Melting Point": "197 °C"
    }
}