{
    "cas_no": "3321-06-0",
    "key_name": "Benzeneacetic acid, α-(2-ethylbutoxy)-α-phenyl-, 2-(dimethylamino)ethyl ester, hydrochloride (1:1)",
    "cn_name": null,
    "alternate_name": "Benzeneacetic acid, α-(2-ethylbutoxy)-α-phenyl-, 2-(dimethylamino)ethyl ester, hydrochloride (1:1);Acetic acid, (2-ethylbutoxy)diphenyl-, 2-(dimethylamino)ethyl ester hydrochloride;Benzeneacetic acid, α-(2-ethylbutoxy)-α-phenyl-, 2-(dimethylamino)ethyl ester, hydrochloride;Spasmalgan;Denaverine hydrochloride",
    "duplicated_cas_no": "",
    "SMILES": "C(OCC(CC)CC)(C(OCCN(C)C)=O)(C1=CC=CC=C1)C2=CC=CC=C2.Cl",
    "meta_data": {
        "InChI": "InChI=1S/C24H33NO3.ClH/c1-5-20(6-2)19-28-24(21-13-9-7-10-14-21,22-15-11-8-12-16-22)23(26)27-18-17-25(3)4;/h7-16,20H,5-6,17-19H2,1-4H3;1H",
        "InChIKey": null,
        "Canonical SMILES": "Cl.O=C(OCCN(C)C)C(OCC(CC)CC)(C=1C=CC=CC1)C=2C=CC=CC2",
        "Molecular Formula": "C<sub>24</sub>H<sub>33</sub>NO<sub>3</sub>.ClH",
        "Molecular Mass": "",
        "Melting Point": "140-142 °C"
    }
}