{
    "cas_no": "796-77-0",
    "key_name": "[4-[2-(Diethylamino)ethoxy]phenyl]phenylmethanone",
    "cn_name": null,
    "alternate_name": "Methanone, [4-[2-(diethylamino)ethoxy]phenyl]phenyl-;Benzophenone, 4-[2-(diethylamino)ethoxy]-;[4-[2-(Diethylamino)ethoxy]phenyl]phenylmethanone;4-[2-(Diethylamino)ethoxy]benzophenone;4-(β-Diethylaminoethoxy)benzophenone;[2-(4-Benzoylphenoxy)ethyl]diethylamine",
    "duplicated_cas_no": "",
    "SMILES": "C(=O)(C1=CC=C(OCCN(CC)CC)C=C1)C2=CC=CC=C2",
    "meta_data": {
        "InChI": "InChI=1S/C19H23NO2/c1-3-20(4-2)14-15-22-18-12-10-17(11-13-18)19(21)16-8-6-5-7-9-16/h5-13H,3-4,14-15H2,1-2H3",
        "InChIKey": null,
        "Canonical SMILES": "O=C(C=1C=CC=CC1)C2=CC=C(OCCN(CC)CC)C=C2",
        "Molecular Formula": "C<sub>19</sub>H<sub>23</sub>NO<sub>2</sub>",
        "Molecular Mass": "297.39",
        "Boiling Point": "230 °C @ Press: 3 Torr"
    }
}