{
    "cas_no": "638-58-4",
    "key_name": "Tetradecanamide",
    "cn_name": "正十四烷基铵;十四酰胺;肉豆蔻酰胺;",
    "alternate_name": "Tetradecanamide;Myristamide;Myristic amide;Myristic acid amide;Tetradecylamide;Armid 14;NSC 66436",
    "duplicated_cas_no": "8014-75-3",
    "SMILES": "C(CCCCCCCC)CCCCC(N)=O",
    "meta_data": {
        "InChI": "InChI=1S/C14H29NO/c1-2-3-4-5-6-7-8-9-10-11-12-13-14(15)16/h2-13H2,1H3,(H2,15,16)",
        "InChIKey": null,
        "Canonical SMILES": "O=C(N)CCCCCCCCCCCCC",
        "Molecular Formula": "C<sub>14</sub>H<sub>29</sub>NO",
        "Molecular Mass": "227.39",
        "Melting Point": "104 °C"
    }
}