{
    "cas_no": "50-31-7",
    "key_name": "2,3,6-Trichlorobenzoic acid",
    "cn_name": "2,3,6-三氯苯甲酸;",
    "alternate_name": "Benzoic acid, 2,3,6-trichloro-;2,3,6-Trichlorobenzoic acid;HC 1281;TCB;2,3,6-TCBA;Trysben;2,3,6-TBA;TCBA",
    "duplicated_cas_no": "",
    "SMILES": "C(O)(=O)C1=C(Cl)C(Cl)=CC=C1Cl",
    "meta_data": {
        "InChI": "InChI=1S/C7H3Cl3O2/c8-3-1-2-4(9)6(10)5(3)7(11)12/h1-2H,(H,11,12)",
        "InChIKey": null,
        "Canonical SMILES": "O=C(O)C=1C(Cl)=CC=C(Cl)C1Cl",
        "Molecular Formula": "C<sub>7</sub>H<sub>3</sub>Cl<sub>3</sub>O<sub>2</sub>",
        "Molecular Mass": "225.46",
        "Melting Point": "124.5 °C"
    }
}