{
    "cas_no": "33295-37-3",
    "key_name": "1-Bromo-8-methylnaphthalene",
    "cn_name": null,
    "alternate_name": "Naphthalene, 1-bromo-8-methyl-;1-Bromo-8-methylnaphthalene",
    "duplicated_cas_no": "",
    "SMILES": "BrC=1C2=C(C=CC=C2C)C=CC1",
    "meta_data": {
        "InChI": "InChI=1S/C11H9Br/c1-8-4-2-5-9-6-3-7-10(12)11(8)9/h2-7H,1H3",
        "InChIKey": null,
        "Canonical SMILES": "BrC1=CC=CC=2C=CC=C(C12)C",
        "Molecular Formula": "C<sub>11</sub>H<sub>9</sub>Br",
        "Molecular Mass": "221.09",
        "Boiling Point": "115-130 °C @ Press: 3.5 Torr",
        "Melting Point": "80 °C"
    }
}