{
    "cas_no": "4214-73-7",
    "key_name": "2-Amino-5-cyanopyridine",
    "cn_name": "2-氨基-5-氰基吡啶;",
    "alternate_name": "3-Pyridinecarbonitrile, 6-amino-;Nicotinonitrile, 6-amino-;6-Amino-3-pyridinecarbonitrile;6-Aminonicotinonitrile;2-Amino-5-cyanopyridine;2-Amino-5-pyridinecarbonitrile;6-Aminopyridine-3-carbonitrile;5-Cyano-2-aminopyridine;5-Cyanopyridin-2-amine",
    "duplicated_cas_no": "",
    "SMILES": "C(#N)C=1C=CC(N)=NC1",
    "meta_data": {
        "InChI": "InChI=1S/C6H5N3/c7-3-5-1-2-6(8)9-4-5/h1-2,4H,(H2,8,9)",
        "InChIKey": null,
        "Canonical SMILES": "N#CC1=CN=C(N)C=C1",
        "Molecular Formula": "C<sub>6</sub>H<sub>5</sub>N<sub>3</sub>",
        "Molecular Mass": "119.12",
        "Boiling Point": "240-250 °C @ Press: 15 Torr",
        "Melting Point": "163-164 °C"
    }
}