{
    "cas_no": "17796-82-6",
    "key_name": "2-(Cyclohexylthio)-1<em>H</em>-isoindole-1,3(2<em>H</em>)-dione",
    "cn_name": "N-环己基硫代邻苯二甲酰亚胺;N-环己基硫代酞酰亚胺;",
    "alternate_name": "1<em>H</em>-Isoindole-1,3(2<em>H</em>)-dione, 2-(cyclohexylthio)-;Phthalimide, <em>N</em>-(cyclohexylthio)-;2-(Cyclohexylthio)-1<em>H</em>-isoindole-1,3(2<em>H</em>)-dione;<em>N</em>-(Cyclohexylthio)phthalimide;Santogard PVI;<em>N</em>-Cyclohexylsulfenylphthalimide;Santogard PVI-DS;Duslin P;Vulkalent G;Retarder CTP;Accitard RE;Duslin PP;Rhenogran CPT 80;CTP;CTP (chinese inhibitor);2-(Cyclohexylthio)isoindoline-1,3-dione;PVI;Anscorch CTP;Vulkalent P;Pilgard PVI;CTP-PVI;2-Cyclohexylsulfanylisoindole-1,3-dione;2-(Cyclohexylsulfanyl)-2,3-dihydro-1<em>H</em>-isoindole-1,3-dione;SF 205;CTP 80 (rubber additive);CTP 80",
    "duplicated_cas_no": "866259-75-8",
    "SMILES": "O=C1C=2C(C(=O)N1SC3CCCCC3)=CC=CC2",
    "meta_data": {
        "InChI": "InChI=1S/C14H15NO2S/c16-13-11-8-4-5-9-12(11)14(17)15(13)18-10-6-2-1-3-7-10/h4-5,8-10H,1-3,6-7H2",
        "InChIKey": null,
        "Canonical SMILES": "O=C1C=2C=CC=CC2C(=O)N1SC3CCCCC3",
        "Molecular Formula": "C<sub>14</sub>H<sub>15</sub>NO<sub>2</sub>S",
        "Molecular Mass": "261.34",
        "Melting Point": "93-94 °C",
        "Density": "1.48 g/cm³ (Solid)"
    }
}