{
    "cas_no": "58473-74-8",
    "key_name": "(2<em>E</em>)-3-(3-Bromophenyl)-<em>N</em>-ethyl-2-propenamide",
    "cn_name": "反-3-溴-N-乙基肉桂酰胺;",
    "alternate_name": "2-Propenamide, 3-(3-bromophenyl)-<em>N</em>-ethyl-, (2<em>E</em>)-;2-Propenamide, 3-(3-bromophenyl)-<em>N</em>-ethyl-, (<em>E</em>)-;(2<em>E</em>)-3-(3-Bromophenyl)-<em>N</em>-ethyl-2-propenamide;Cinromide;Vumide;BW 122U",
    "duplicated_cas_no": "",
    "SMILES": "C(=C/C(NCC)=O)\\C1=CC(Br)=CC=C1",
    "meta_data": {
        "InChI": "InChI=1S/C11H12BrNO/c1-2-13-11(14)7-6-9-4-3-5-10(12)8-9/h3-8H,2H2,1H3,(H,13,14)/b7-6+",
        "InChIKey": null,
        "Canonical SMILES": "O=C(C=CC=1C=CC=C(Br)C1)NCC",
        "Molecular Formula": "C<sub>11</sub>H<sub>12</sub>BrNO",
        "Molecular Mass": "254.12",
        "Melting Point": "89-90 °C"
    }
}