{
    "cas_no": "2498-50-2",
    "key_name": "Benzenecarboximidamide, 4-amino-, hydrochloride (1:2)",
    "cn_name": "4-氨基苯甲脒二盐酸盐;对氨基苯脒盐酸盐;",
    "alternate_name": "Benzenecarboximidamide, 4-amino-, hydrochloride (1:2);Benzenecarboximidamide, 4-amino-, dihydrochloride;Benzamidine, <em>p</em>-amino-, dihydrochloride;<em>p</em>-Aminobenzamidine dihydrochloride;4-Aminobenzamidine dihydrochloride;4-Amidinoaniline dihydrochloride;SC 67235",
    "duplicated_cas_no": "2571070-61-4",
    "SMILES": "C(=N)(N)C1=CC=C(N)C=C1.Cl",
    "meta_data": {
        "InChI": "InChI=1S/C7H9N3.2ClH/c8-6-3-1-5(2-4-6)7(9)10;;/h1-4H,8H2,(H3,9,10);2*1H",
        "InChIKey": null,
        "Canonical SMILES": "Cl.N=C(N)C1=CC=C(N)C=C1",
        "Molecular Formula": "C<sub>7</sub>H<sub>9</sub>N<sub>3</sub>.2ClH",
        "Molecular Mass": "",
        "Melting Point": "&gt;300 °C"
    }
}