{
    "cas_no": "6106-41-8",
    "key_name": "Sodium valerate",
    "cn_name": null,
    "alternate_name": "Pentanoic acid, sodium salt (1:1);Valeric acid, sodium salt;Pentanoic acid, sodium salt;Sodium valerate;Sodium pentanoate;Sodium <em>n</em>-pentanoate;Sodium <em>n</em>-valerate",
    "duplicated_cas_no": "",
    "SMILES": "C(C(O)=O)CCC.[Na]",
    "meta_data": {
        "InChI": "InChI=1S/C5H10O2.Na/c1-2-3-4-5(6)7;/h2-4H2,1H3,(H,6,7);",
        "InChIKey": null,
        "Canonical SMILES": "[Na].O=C(O)CCCC",
        "Molecular Formula": "C<sub>5</sub>H<sub>10</sub>O<sub>2</sub>.Na",
        "Molecular Mass": "",
        "Melting Point": "210 °C"
    }
}