{
    "cas_no": "26049-94-5",
    "key_name": "(3<em>S</em>)-3-Benzyloxycarbonylamino-1-chloro-4-phenyl-2-butanone",
    "cn_name": "N-苯氧基碳-L-苯丙氨酰甲基氯酮;",
    "alternate_name": "Carbamic acid, <em>N</em>-[(1<em>S</em>)-3-chloro-2-oxo-1-(phenylmethyl)propyl]-, phenylmethyl ester;Carbamic acid, [α-(chloroacetyl)phenethyl]-, benzyl ester, <span class=\"text-smallcaps\">L</span>-;Carbamic acid, [3-chloro-2-oxo-1-(phenylmethyl)propyl]-, phenylmethyl ester, (<em>S</em>)-;Carbamic acid, [(1<em>S</em>)-3-chloro-2-oxo-1-(phenylmethyl)propyl]-, phenylmethyl ester;[<em>N</em><sup>α</sup>-(Benzyloxycarbonyl)phenylalanyl]chloromethane;(3<em>S</em>)-3-Benzyloxycarbonylamino-1-chloro-4-phenyl-2-butanone;NSC 251810",
    "duplicated_cas_no": "",
    "SMILES": "[C@@H](CC1=CC=CC=C1)(NC(OCC2=CC=CC=C2)=O)C(CCl)=O",
    "meta_data": {
        "InChI": "InChI=1S/C18H18ClNO3/c19-12-17(21)16(11-14-7-3-1-4-8-14)20-18(22)23-13-15-9-5-2-6-10-15/h1-10,16H,11-13H2,(H,20,22)/t16-/m0/s1",
        "InChIKey": null,
        "Canonical SMILES": "O=C(OCC=1C=CC=CC1)NC(C(=O)CCl)CC=2C=CC=CC2",
        "Molecular Formula": "C<sub>18</sub>H<sub>18</sub>ClNO<sub>3</sub>",
        "Molecular Mass": "331.79",
        "Melting Point": "109-111 °C"
    }
}