{
    "cas_no": "14464-29-0",
    "key_name": "Acetic acid <em>N</em>-hydroxysuccinimide ester",
    "cn_name": "乙酸-N-琥珀酰亚胺酯;",
    "alternate_name": "2,5-Pyrrolidinedione, 1-(acetyloxy)-;Succinimide, <em>N</em>-acetoxy-;1-(Acetyloxy)-2,5-pyrrolidinedione;<em>N</em>-Acetoxysuccinimide;<em>N</em>-Hydroxysuccinimide acetate;<em>O</em>-Acetyl-<em>N</em>,<em>N</em>-succinyl hydroxylamine;Acetic acid <em>N</em>-hydroxysuccinimide ester;<em>N</em>-Hydroxysuccinimidyl acetate;Ac-OSu;(2,5-Dioxopyrrolidin-1-yl) acetate",
    "duplicated_cas_no": "",
    "SMILES": "O(C(C)=O)N1C(=O)CCC1=O",
    "meta_data": {
        "InChI": "InChI=1S/C6H7NO4/c1-4(8)11-7-5(9)2-3-6(7)10/h2-3H2,1H3",
        "InChIKey": null,
        "Canonical SMILES": "O=C(ON1C(=O)CCC1=O)C",
        "Molecular Formula": "C<sub>6</sub>H<sub>7</sub>NO<sub>4</sub>",
        "Molecular Mass": "157.12",
        "Melting Point": "131-132 °C"
    }
}