{
    "cas_no": "57-67-0",
    "key_name": "Sulfaguanidine",
    "cn_name": "磺胺脒;4-氨基-N-(氨基亚氨基甲基)苯磺酰胺;",
    "alternate_name": "Benzenesulfonamide, 4-amino-<em>N</em>-(aminoiminomethyl)-;Sulfanilamide, <em>N</em><sup>1</sup>-amidino-;Sulfanilamide, <em>N</em><sup>1</sup>-(diaminomethylene)-;4-Amino-<em>N</em>-(aminoiminomethyl)benzenesulfonamide;RP 2275;Abiguanil;<em>N</em><sup>1</sup>-Amidinosulfanilamide;<em>p</em>-Aminobenzenesulfonylguanidine;Aterian;Ganidan;Guamide;Guanicil;Guanidan;<em>N</em>-Guanylsulfanilamide;<em>N</em><sup>1</sup>-Guanylsulfanilamide;Resulfon;Ruocid;Suganyl;Sulfaguanidine;Sulfaguine;Sulfanilguanidine;Sulfanilylguanidine;Sulfoguanidine;Sulfoguenil;Sulgin;Emerin (pharmaceutical);4-Aminophenylsulfonylguanidine;A 307;Sulphaguanidine;[(<em>p</em>-Aminophenyl)sulfonyl]guanidine;<em>p</em>-Aminobenzenesulfoguanidide;<em>N</em><sup>1</sup>-Guanidylsulfanilamide;1-Sulfanilylguanidine;Sulfentidine;Orgaguanidon;Sulfaguanil;Sulfoguanil;Sulfoguanyl;Sulfaguanidin;1-[(<em>p</em>-Aminophenyl)sulfonyl]guanidine;4-Aminobenzenesulfonylguanidine;Diacta;Shigatox;NSC 14041;4-Amino-<em>N</em>-carbamimidoylbenzenesulfonamide;4-Amino-<em>N</em>-(diaminomethylene)benzenesulfonamide;1-Amino-4-([[amino(imino)methyl]amino]sulfonyl)benzene;2-(4-Aminophenyl)sulfonylguanidine;2-(4-Aminobenzenesulfonyl)guanidine;MeSH ID: D013414",
    "duplicated_cas_no": "61116-95-8;2680613-78-7",
    "SMILES": "S(NC(=N)N)(=O)(=O)C1=CC=C(N)C=C1",
    "meta_data": {
        "InChI": "InChI=1S/C7H10N4O2S/c8-5-1-3-6(4-2-5)14(12,13)11-7(9)10/h1-4H,8H2,(H4,9,10,11)",
        "InChIKey": null,
        "Canonical SMILES": "O=S(=O)(NC(=N)N)C1=CC=C(N)C=C1",
        "Molecular Formula": "C<sub>7</sub>H<sub>10</sub>N<sub>4</sub>O<sub>2</sub>S",
        "Molecular Mass": "214.24",
        "Melting Point": "191.5 °C"
    }
}