{
    "cas_no": "7440-46-2",
    "key_name": "Cesium",
    "cn_name": null,
    "alternate_name": "Cesium;Cesium-133;MeSH ID: D002586",
    "duplicated_cas_no": "24347-12-4;1093650-97-5",
    "SMILES": "[Cs]",
    "meta_data": {
        "InChI": "InChI=1S/Cs",
        "InChIKey": null,
        "Canonical SMILES": "[Cs]",
        "Molecular Formula": "Cs",
        "Molecular Mass": "",
        "Boiling Point": "685 °C",
        "Melting Point": "29 °C",
        "Density": "1.87 g/cm³"
    }
}