{
    "cas_no": "57-24-9",
    "key_name": "Strychnine",
    "cn_name": "毒鼠碱;二甲双胍；双甲胍；马钱子碱；士得宁；番木鳌碱；;",
    "alternate_name": "Strychnidin-10-one;Strychnine;4,6-Methano-6<em>H</em>,14<em>H</em>-indolo[3,2,1-<em>ij</em>]oxepino[2,3,4-<em>de</em>]pyrrolo[2,3-<em>h</em>]quinoline, strychnidin-10-one deriv.;Strychnin;(-)-Strychnine;NSC 5365;Certox;MeSH ID: D013331",
    "duplicated_cas_no": "6899-11-2;101324-33-8;525584-40-1;854644-96-5;875538-26-4;900786-57-4;936009-28-8;1194719-36-2;2093106-90-0",
    "SMILES": "O=C1N2[C@@]3([C@@]4([C@]5([N@@](CC4)CC=6[C@@]([C@]3([C@](C1)(OCC6)[H])[H])(C5)[H])[H])C=7C2=CC=CC7)[H]",
    "meta_data": {
        "InChI": "InChI=1S/C21H22N2O2/c24-18-10-16-19-13-9-17-21(6-7-22(17)11-12(13)5-8-25-16)14-3-1-2-4-15(14)23(18)20(19)21/h1-5,13,16-17,19-20H,6-11H2/t13-,16-,17-,19-,20-,21+/m0/s1",
        "InChIKey": null,
        "Canonical SMILES": "O=C1N2C=3C=CC=CC3C45CCN6CC7=CCOC(C1)C(C7CC64)C25",
        "Molecular Formula": "C<sub>21</sub>H<sub>22</sub>N<sub>2</sub>O<sub>2</sub>",
        "Molecular Mass": "334.41",
        "Boiling Point": "270 °C @ Press: 5 Torr",
        "Melting Point": "287 °C",
        "Density": "1.36 g/cm³ @ Temp: 20 °C"
    }
}