{
    "cas_no": "451-81-0",
    "key_name": "2-Fluorobenzeneacetyl chloride",
    "cn_name": "邻氟苯乙酰氯;",
    "alternate_name": "Benzeneacetyl chloride, 2-fluoro-;Acetyl chloride, (<em>o</em>-fluorophenyl)-;2-Fluorobenzeneacetyl chloride;<em>o</em>-Fluorophenylacetyl chloride;2-(2-Fluorophenyl)acetyl chloride",
    "duplicated_cas_no": "2136608-97-2",
    "SMILES": "C(C(Cl)=O)C1=C(F)C=CC=C1",
    "meta_data": {
        "InChI": "InChI=1S/C8H6ClFO/c9-8(11)5-6-3-1-2-4-7(6)10/h1-4H,5H2",
        "InChIKey": null,
        "Canonical SMILES": "O=C(Cl)CC=1C=CC=CC1F",
        "Molecular Formula": "C<sub>8</sub>H<sub>6</sub>ClFO",
        "Molecular Mass": "172.58",
        "Boiling Point": "203-204 °C"
    }
}