{
    "cas_no": "19524-06-2",
    "key_name": "4-Bromopyridine hydrochloride",
    "cn_name": "4-溴吡啶盐酸盐;",
    "alternate_name": "Pyridine, 4-bromo-, hydrochloride (1:1);Pyridine, 4-bromo-, hydrochloride;4-Bromopyridine hydrochloride;4-Bromopyridinium chloride;4-Bromopyridine monohydrochloride",
    "duplicated_cas_no": "",
    "SMILES": "BrC=1C=CN=CC1.Cl",
    "meta_data": {
        "InChI": "InChI=1S/C5H4BrN.ClH/c6-5-1-3-7-4-2-5;/h1-4H;1H",
        "InChIKey": null,
        "Canonical SMILES": "Cl.BrC=1C=CN=CC1",
        "Molecular Formula": "C<sub>5</sub>H<sub>4</sub>BrN.ClH",
        "Molecular Mass": "",
        "Melting Point": "237-239 °C"
    }
}