{
    "cas_no": "52711-30-5",
    "key_name": "1-Bromo-2-(methoxymethyl)benzene",
    "cn_name": "1-溴-2-(甲氧基甲基)苯;",
    "alternate_name": "Benzene, 1-bromo-2-(methoxymethyl)-;Ether, <em>o</em>-bromobenzyl methyl;1-Bromo-2-(methoxymethyl)benzene;<em>o</em>-Bromobenzyl methyl ether;2-Bromobenzyl methyl ether;2-(Methoxymethyl)bromobenzene;2-(Methoxymethyl)phenyl bromide;<em>o</em>-Bromo(methoxymethyl)benzene",
    "duplicated_cas_no": "",
    "SMILES": "C(OC)C1=C(Br)C=CC=C1",
    "meta_data": {
        "InChI": "InChI=1S/C8H9BrO/c1-10-6-7-4-2-3-5-8(7)9/h2-5H,6H2,1H3",
        "InChIKey": null,
        "Canonical SMILES": "BrC=1C=CC=CC1COC",
        "Molecular Formula": "C<sub>8</sub>H<sub>9</sub>BrO",
        "Molecular Mass": "201.06",
        "Boiling Point": "225 °C @ Press: 745 Torr"
    }
}