{
    "cas_no": "769-42-6",
    "key_name": "Dimethylbarbituric acid",
    "cn_name": "1,3-二甲基巴比妥酸;",
    "alternate_name": "2,4,6(1<em>H</em>,3<em>H</em>,5<em>H</em>)-Pyrimidinetrione, 1,3-dimethyl-;Barbituric acid, 1,3-dimethyl-;1,3-Dimethyl-2,4,6(1<em>H</em>,3<em>H</em>,5<em>H</em>)-pyrimidinetrione;<em>N</em>,<em>N</em>′-Dimethylbarbituric acid;1,3-Dimethylbarbituric acid;<em>N</em>,<em>N</em>′-Dimethyl-2,4,6-pyrimidinetrione;Dimethylbarbituric acid;6-Hydroxy-1,3-dimethyluracil;<em>N</em>,<em>N</em>-Dimethylbarbituric acid;NSC 61918;1,3-Dimethyl-1,3-diazacyclohexane-2,4,6-trione;<em>N</em>′,<em>N</em>-Dimethylbarbituric acid;1,3-Dimethyl-pyrimidine-2,4,6-trione;1,3-Dimethyl-1,3-diazinane-2,4,6-trione",
    "duplicated_cas_no": "41949-07-9;213833-88-6;342615-73-0;863970-57-4;936361-69-2;952003-94-0;959586-34-6;1030585-39-7;1188497-83-7;1240326-21-9;1392010-45-5;1429128-12-0",
    "SMILES": "CN1C(=O)N(C)C(=O)CC1=O",
    "meta_data": {
        "InChI": "InChI=1S/C6H8N2O3/c1-7-4(9)3-5(10)8(2)6(7)11/h3H2,1-2H3",
        "InChIKey": null,
        "Canonical SMILES": "O=C1N(C(=O)CC(=O)N1C)C",
        "Molecular Formula": "C<sub>6</sub>H<sub>8</sub>N<sub>2</sub>O<sub>3</sub>",
        "Molecular Mass": "156.14",
        "Melting Point": "119-121 °C"
    }
}