{
    "cas_no": "2463-53-8",
    "key_name": "2-Nonenal",
    "cn_name": null,
    "alternate_name": "2-Nonenal;2-Nonen-1-al;NSC 20746",
    "duplicated_cas_no": "",
    "SMILES": "C(CC=CC=O)CCCC",
    "meta_data": {
        "InChI": "InChI=1S/C9H16O/c1-2-3-4-5-6-7-8-9-10/h7-9H,2-6H2,1H3",
        "InChIKey": null,
        "Canonical SMILES": "O=CC=CCCCCCC",
        "Molecular Formula": "C<sub>9</sub>H<sub>16</sub>O",
        "Molecular Mass": "140.22",
        "Boiling Point": "115-117 °C @ Press: 35 Torr",
        "Density": "0.898 g/cm³ @ Temp: 21 °C"
    }
}