{
    "cas_no": "29683-84-9",
    "key_name": "2-Thiophenecarboxaldehyde, oxime",
    "cn_name": "噻酚-2-甲醛肟;",
    "alternate_name": "2-Thiophenecarboxaldehyde, oxime;Thiophene-2-aldoxime;2-Formylthiophene oxime;2-Thiophenealdehyde oxime;2-Thiophenecarboxaldoxime;NSC 110538",
    "duplicated_cas_no": "",
    "SMILES": "C(=NO)C1=CC=CS1",
    "meta_data": {
        "InChI": "InChI=1S/C5H5NOS/c7-6-4-5-2-1-3-8-5/h1-4,7H",
        "InChIKey": null,
        "Canonical SMILES": "ON=CC=1SC=CC1",
        "Molecular Formula": "C<sub>5</sub>H<sub>5</sub>NOS",
        "Molecular Mass": "127.16",
        "Melting Point": "128-129 °C"
    }
}