{
    "cas_no": "693-07-2",
    "key_name": "2-Chloroethyl ethyl sulfide",
    "cn_name": "2-氯乙基乙基硫醚;",
    "alternate_name": "Ethane, 1-chloro-2-(ethylthio)-;Sulfide, 2-chloroethyl ethyl;1-Chloro-2-(ethylthio)ethane;2-Chloroethyl ethyl sulfide;Ethyl 2-chloroethyl sulfide;2-Ethylthioethyl chloride;2-(Ethylthio)chloroethane;2-Chloroethyl ethyl thioether;2-Chlorodiethyl sulfide;H-MG;Half-sulfur mustard;1-Chloro-2-(ethylsulfanyl)ethane;NSC 10977;CEES",
    "duplicated_cas_no": "",
    "SMILES": "C(SCC)CCl",
    "meta_data": {
        "InChI": "InChI=1S/C4H9ClS/c1-2-6-4-3-5/h2-4H2,1H3",
        "InChIKey": null,
        "Canonical SMILES": "ClCCSCC",
        "Molecular Formula": "C<sub>4</sub>H<sub>9</sub>ClS",
        "Molecular Mass": "124.63",
        "Boiling Point": "156 °C",
        "Density": "1.0663 g/cm³ @ Temp: 20 °C"
    }
}