{
    "cas_no": "60442-41-3",
    "key_name": "Ethyl 2-[(2-chloroacetyl)amino]-4,5,6,7-tetrahydrobenzo[<em>b</em>]thiophene-3-carboxylate",
    "cn_name": null,
    "alternate_name": "Benzo[<em>b</em>]thiophene-3-carboxylic acid, 2-[(2-chloroacetyl)amino]-4,5,6,7-tetrahydro-, ethyl ester;Benzo[<em>b</em>]thiophene-3-carboxylic acid, 2-[(chloroacetyl)amino]-4,5,6,7-tetrahydro-, ethyl ester;Ethyl 2-[(2-chloroacetyl)amino]-4,5,6,7-tetrahydrobenzo[<em>b</em>]thiophene-3-carboxylate",
    "duplicated_cas_no": "",
    "SMILES": "C(OCC)(=O)C=1C2=C(SC1NC(CCl)=O)CCCC2",
    "meta_data": {
        "InChI": "InChI=1S/C13H16ClNO3S/c1-2-18-13(17)11-8-5-3-4-6-9(8)19-12(11)15-10(16)7-14/h2-7H2,1H3,(H,15,16)",
        "InChIKey": null,
        "Canonical SMILES": "O=C(OCC)C1=C(SC2=C1CCCC2)NC(=O)CCl",
        "Molecular Formula": "C<sub>13</sub>H<sub>16</sub>ClNO<sub>3</sub>S",
        "Molecular Mass": "301.79",
        "Melting Point": "115-117 °C"
    }
}