{
    "cas_no": "5932-32-1",
    "key_name": "1,4,5,6-Tetrahydro-3-cyclopentapyrazolecarboxylic acid",
    "cn_name": null,
    "alternate_name": "3-Cyclopentapyrazolecarboxylic acid, 1,4,5,6-tetrahydro-;1,4,5,6-Tetrahydro-3-cyclopentapyrazolecarboxylic acid;1,4,5,6-Tetrahydrocyclopentapyrazole-3-carboxylic acid;1,4,5,6-Tetrahydrocyclopenta[<em>c</em>]pyrazole-3-carboxylic acid;1<em>H</em>,4<em>H</em>,5<em>H</em>,6<em>H</em>-Cyclopenta[<em>c</em>]pyrazole-3-carboxylic acid",
    "duplicated_cas_no": "",
    "SMILES": "C(O)(=O)C=1C2=C(NN1)CCC2",
    "meta_data": {
        "InChI": "InChI=1S/C7H8N2O2/c10-7(11)6-4-2-1-3-5(4)8-9-6/h1-3H2,(H,8,9)(H,10,11)",
        "InChIKey": null,
        "Canonical SMILES": "O=C(O)C1=NNC2=C1CCC2",
        "Molecular Formula": "C<sub>7</sub>H<sub>8</sub>N<sub>2</sub>O<sub>2</sub>",
        "Molecular Mass": "152.15",
        "Melting Point": "245-248 °C"
    }
}