{
    "cas_no": "5424-01-1",
    "key_name": "3-Amino-2-pyrazinecarboxylic acid",
    "cn_name": "3-氨基吡嗪-2-羧酸;",
    "alternate_name": "2-Pyrazinecarboxylic acid, 3-amino-;Pyrazinecarboxylic acid, 3-amino-;Pyrazinoic acid, 3-amino-;3-Amino-2-pyrazinecarboxylic acid;3-Aminopyrazinecarboxylic acid;3-Aminopyrazine-2-carboxylic acid;2-Amino-3-carboxypyrazine;3-Amino-2-pyrazinoic acid;2-Aminopyrazine-3-carboxylic acid;NSC 13148;NSC 225114",
    "duplicated_cas_no": "860498-38-0",
    "SMILES": "C(O)(=O)C=1C(N)=NC=CN1",
    "meta_data": {
        "InChI": "InChI=1S/C5H5N3O2/c6-4-3(5(9)10)7-1-2-8-4/h1-2H,(H2,6,8)(H,9,10)",
        "InChIKey": null,
        "Canonical SMILES": "O=C(O)C1=NC=CN=C1N",
        "Molecular Formula": "C<sub>5</sub>H<sub>5</sub>N<sub>3</sub>O<sub>2</sub>",
        "Molecular Mass": "139.11",
        "Melting Point": "209-210 °C (decomp)"
    }
}