{
    "cas_no": "52089-54-0",
    "key_name": "Ethyl 2-hydroxybutanoate",
    "cn_name": "2-羟基正丁酸乙酯;",
    "alternate_name": "Butanoic acid, 2-hydroxy-, ethyl ester;Butyric acid, 2-hydroxy-, ethyl ester;Ethyl α-hydroxybutyrate;Ethyl 2-hydroxybutanoate;Ethyl 2-hydroxybutyrate;2-Hydroxybutyric acid ethyl ester;2-Hydroxybutanoic acid ethyl ester",
    "duplicated_cas_no": "68057-83-0",
    "SMILES": "C(C(CC)O)(OCC)=O",
    "meta_data": {
        "InChI": "InChI=1S/C6H12O3/c1-3-5(7)6(8)9-4-2/h5,7H,3-4H2,1-2H3",
        "InChIKey": null,
        "Canonical SMILES": "O=C(OCC)C(O)CC",
        "Molecular Formula": "C<sub>6</sub>H<sub>12</sub>O<sub>3</sub>",
        "Molecular Mass": "132.16",
        "Boiling Point": "74.5 °C @ Press: 25 Torr",
        "Density": "1.0069 g/cm³ @ Temp: 20 °C"
    }
}