{
    "cas_no": "10025-73-7",
    "key_name": "Chromium chloride (CrCl<sub>3</sub>)",
    "cn_name": null,
    "alternate_name": "Chromium chloride (CrCl<sub>3</sub>);C.I. 77295;Chromic chloride;Chromium trichloride;Chromium(III) chloride;Trichlorochromium;Chromic chloride (CrCl<sub>3</sub>);Chromium trichloride (CrCl<sub>3</sub>);Chromic trichloride;Chromium(3+) chloride",
    "duplicated_cas_no": "",
    "SMILES": "[Cr](Cl)(Cl)Cl",
    "meta_data": {
        "InChI": "InChI=1S/3ClH.Cr/h3*1H;/q;;;+3/p-3",
        "InChIKey": null,
        "Canonical SMILES": "Cl[Cr](Cl)Cl",
        "Molecular Formula": "Cl<sub>3</sub>Cr",
        "Molecular Mass": "",
        "Melting Point": "1150 °C",
        "Density": "2.87 g/cm³ @ Temp: 25 °C"
    }
}