{
    "cas_no": "1208-03-3",
    "key_name": "4-[Bis(2-chloroethyl)amino]benzaldehyde",
    "cn_name": "氯芥苯甲醛;4-[双(&beta;-氯乙基)氨基]苯甲醛;4-甲酰基-N,N-二(2-氯乙基)苯胺;",
    "alternate_name": "Benzaldehyde, 4-[bis(2-chloroethyl)amino]-;Benzaldehyde, <em>p</em>-[bis(2-chloroethyl)amino]-;4-[Bis(2-chloroethyl)amino]benzaldehyde;<em>p</em>-Bis(β-chloroethyl)aminobenzaldehyde;4-[<em>N</em>,<em>N</em>-Bis(2-chloroethyl)amino]benzaldehyde;<em>p</em>-Bis(2-chloroethyl)aminobenzaldehyde;<em>N</em>,<em>N</em>-Bis(β-chloroethyl)-4-aminobenzaldehyde;4-<em>N</em>,<em>N</em>-Bis(β-chloroethyl)aminobenzaldehyde;4-Bis(β-chloroethyl)aminobenzaldehyde;<em>p</em>-[<em>N</em>,<em>N</em>-Bis(2-chloroethyl)amino]benzaldehyde;NSC 19996",
    "duplicated_cas_no": "",
    "SMILES": "N(CCCl)(CCCl)C1=CC=C(C=O)C=C1",
    "meta_data": {
        "InChI": "InChI=1S/C11H13Cl2NO/c12-5-7-14(8-6-13)11-3-1-10(9-15)2-4-11/h1-4,9H,5-8H2",
        "InChIKey": null,
        "Canonical SMILES": "O=CC1=CC=C(C=C1)N(CCCl)CCCl",
        "Molecular Formula": "C<sub>11</sub>H<sub>13</sub>Cl<sub>2</sub>NO",
        "Molecular Mass": "246.13",
        "Melting Point": "88.5 °C"
    }
}