{
    "cas_no": "29800-89-3",
    "key_name": "4-Pyridineacetic acid, methyl ester",
    "cn_name": null,
    "alternate_name": "4-Pyridineacetic acid, methyl ester;Methyl 4-pyridineacetate;Methyl 4-pyridylacetate;Methyl 2-(pyridin-4-yl)acetate;Methyl 4-carboxymethylpyridine;Pyridin-4-ylacetic acid methyl ester",
    "duplicated_cas_no": "",
    "SMILES": "C(C(OC)=O)C=1C=CN=CC1",
    "meta_data": {
        "InChI": "InChI=1S/C8H9NO2/c1-11-8(10)6-7-2-4-9-5-3-7/h2-5H,6H2,1H3",
        "InChIKey": null,
        "Canonical SMILES": "O=C(OC)CC=1C=CN=CC1",
        "Molecular Formula": "C<sub>8</sub>H<sub>9</sub>NO<sub>2</sub>",
        "Molecular Mass": "151.16",
        "Boiling Point": "150 °C @ Press: 0.2 Torr"
    }
}