{
    "cas_no": "7786-30-3",
    "key_name": "Magnesium chloride",
    "cn_name": "氯化镁;二氯化镁;",
    "alternate_name": "Magnesium chloride (MgCl<sub>2</sub>);Magnesium chloride;Magnesium dichloride;Magnogene;Aerotex Accelerator MX;Catalyst G;TMT 2;Ekimac;NSC 529832;Freecat MX;Magnesium(II) chloride;FIX-Mg;White Nigari NS;HMC 23D;C-TEK;White Nigari;TMT 4;Soft Wafer;LR-MC;PS-F 20;PS-F 30;PS-F 15;MeSH ID: D015636",
    "duplicated_cas_no": "12285-34-6;77069-22-8;1122625-86-8",
    "SMILES": "[Mg](Cl)Cl",
    "meta_data": {
        "InChI": "InChI=1S/2ClH.Mg/h2*1H;/q;;+2/p-2",
        "InChIKey": null,
        "Canonical SMILES": "Cl[Mg]Cl",
        "Molecular Formula": "Cl<sub>2</sub>Mg",
        "Molecular Mass": "",
        "Boiling Point": "1412 °C",
        "Melting Point": "712 °C",
        "Density": "2.32 g/cm³"
    }
}