{
    "cas_no": "4856-95-5",
    "key_name": "(<em>T</em>-4)-Trihydro(morpholine-κ<em>N</em><sup>4</sup>)boron",
    "cn_name": "吗啉硼烷;",
    "alternate_name": "Boron, trihydro(morpholine-κ<em>N</em><sup>4</sup>)-, (<em>T</em>-4)-;Morpholine, compd. with borane (1:1);Boron, trihydro(morpholine-<em>N</em><sup>4</sup>)-, (<em>T</em>-4)-;Morpholine, compd. with BH<sub>3</sub>;Borane, compd. with morpholine (1:1);Morpholine, boron complex;(<em>T</em>-4)-Trihydro(morpholine-κ<em>N</em><sup>4</sup>)boron;NSC 93813;Borane, compd. with morpholine",
    "duplicated_cas_no": "33981-21-4;34063-29-1;34432-26-3;856613-10-0",
    "SMILES": "[B+3]([H-])([H-])([H-])[NH]1CCOCC1",
    "meta_data": {
        "InChI": "InChI=1S/C4H12BNO/c5-6-1-3-7-4-2-6/h6H,1-4H2,5H3",
        "InChIKey": null,
        "Canonical SMILES": "[H-][B+3]([H-])([H-])[NH]1CCOCC1",
        "Molecular Formula": "C<sub>4</sub>H<sub>12</sub>BNO",
        "Molecular Mass": "",
        "Melting Point": "95 °C"
    }
}