{
    "cas_no": "5343-52-2",
    "key_name": "2-Ethyl-2-methylpentanoic acid",
    "cn_name": null,
    "alternate_name": "Pentanoic acid, 2-ethyl-2-methyl-;Valeric acid, 2-ethyl-2-methyl-;2-Ethyl-2-methylpentanoic acid;α-Ethyl-α-methylvaleric acid;α-Methyl-α-ethylvaleric acid;NSC 466;2-Methyl-2-ethylpentanoic acid",
    "duplicated_cas_no": "",
    "SMILES": "C(CCC)(C(O)=O)(CC)C",
    "meta_data": {
        "InChI": "InChI=1S/C8H16O2/c1-4-6-8(3,5-2)7(9)10/h4-6H2,1-3H3,(H,9,10)",
        "InChIKey": null,
        "Canonical SMILES": "O=C(O)C(C)(CC)CCC",
        "Molecular Formula": "C<sub>8</sub>H<sub>16</sub>O<sub>2</sub>",
        "Molecular Mass": "144.21",
        "Boiling Point": "215-220 °C",
        "Density": "0.9187 g/cm³ @ Temp: 17 °C"
    }
}