{
    "cas_no": "7491-74-9",
    "key_name": "Piracetam",
    "cn_name": "吡拉西坦;吡乙酰胺;乙酰胺吡咯烷酮;2-氧代-1-吡咯烷基乙酰胺;",
    "alternate_name": "1-Pyrrolidineacetamide, 2-oxo-;2-Oxo-1-pyrrolidineacetamide;UCB 6215;Piracetam;Nootropil;2-Pyrrolidoneacetamide;2-Pyrrolidinoneacetamide;Euvifor;Nootropyl;Pirazetam;2-Oxo-1-pyrrolidinylacetamide;Pyracetam;Normabrain;Pyramem;Piramem;Prima;(2-Oxopyrrolidino)acetamide;2-Ketopyrrolidine-1-acetamide;Prima (pharmaceutical);Myocalm;Gabacet;Nootrop;Geram;Nootron;Avigilen;Encetrop;Pirroxil;Cl 781;Axonyl;Norzetam;Genogris;Cerebroforte;Nootobril;Nootobryl;2-(2-Oxopyrrolidin-1-yl)acetamide;Neuracetam;MeSH ID: D010889",
    "duplicated_cas_no": "",
    "SMILES": "C(C(N)=O)N1C(=O)CCC1",
    "meta_data": {
        "InChI": "InChI=1S/C6H10N2O2/c7-5(9)4-8-3-1-2-6(8)10/h1-4H2,(H2,7,9)",
        "InChIKey": null,
        "Canonical SMILES": "O=C(N)CN1C(=O)CCC1",
        "Molecular Formula": "C<sub>6</sub>H<sub>10</sub>N<sub>2</sub>O<sub>2</sub>",
        "Molecular Mass": "142.16",
        "Melting Point": "151.5-152.5 °C",
        "Density": "1.36 g/cm³"
    }
}