{
    "cas_no": "3345-50-4",
    "key_name": "2,5-Dihydro-2,5-dioxo-1<em>H</em>-pyrrole-1-carboxamide",
    "cn_name": "N-氨基甲酰马来酰亚胺;N-氨基甲酰马来酰亚胺;",
    "alternate_name": "1<em>H</em>-Pyrrole-1-carboxamide, 2,5-dihydro-2,5-dioxo-;3-Pyrroline-1-carboxamide, 2,5-dioxo-;2,5-Dihydro-2,5-dioxo-1<em>H</em>-pyrrole-1-carboxamide;<em>N</em>-Carbamoylmaleimide;<em>N</em>-Carbamylmaleimide;NSC 19626;NSC 524923;NSC 58034;NSC 67202;2,5-Dioxopyrrole-1-carboxamide;2,5-Dioxo-2,5-dihydro-1<em>H</em>-pyrrole-1-carboxamide;<em>N</em>-Carbomoyl maleimide",
    "duplicated_cas_no": "",
    "SMILES": "C(N)(=O)N1C(=O)C=CC1=O",
    "meta_data": {
        "InChI": "InChI=1S/C5H4N2O3/c6-5(10)7-3(8)1-2-4(7)9/h1-2H,(H2,6,10)",
        "InChIKey": null,
        "Canonical SMILES": "O=C(N)N1C(=O)C=CC1=O",
        "Molecular Formula": "C<sub>5</sub>H<sub>4</sub>N<sub>2</sub>O<sub>3</sub>",
        "Molecular Mass": "140.10",
        "Melting Point": "157-158 °C"
    }
}