{
    "cas_no": "21193-75-9",
    "key_name": "<span class=\"text-smallcaps\">D</span>-Galactal",
    "cn_name": "D-半乳糖烯;",
    "alternate_name": "<span class=\"text-smallcaps\">D</span>-<em>arabino</em>-Hex-5-enitol, 2,6-anhydro-5-deoxy-;<span class=\"text-smallcaps\">D</span>-<em>lyxo</em>-Hex-1-enopyranose, 1,2-dideoxy-;2,6-Anhydro-5-deoxy-<span class=\"text-smallcaps\">D</span>-<em>arabino</em>-hex-5-enitol;<span class=\"text-smallcaps\">D</span>-Galactal",
    "duplicated_cas_no": "21193-76-0;29082-05-1",
    "SMILES": "C(O)[C@@H]1[C@H](O)[C@H](O)C=CO1",
    "meta_data": {
        "InChI": "InChI=1S/C6H10O4/c7-3-5-6(9)4(8)1-2-10-5/h1-2,4-9H,3H2/t4-,5-,6-/m1/s1",
        "InChIKey": null,
        "Canonical SMILES": "OCC1OC=CC(O)C1O",
        "Molecular Formula": "C<sub>6</sub>H<sub>10</sub>O<sub>4</sub>",
        "Molecular Mass": "146.14",
        "Melting Point": "99-100 °C"
    }
}