{
    "cas_no": "3077-12-1",
    "key_name": "<em>N</em>,<em>N</em>-Bis(2-hydroxyethyl)-<em>p</em>-toluidine",
    "cn_name": "N,N-二羟乙基对甲苯胺;N,N-二羟乙基对甲基苯胺;2,2\"-[(4-甲苯基)亚胺基]双乙醇;N,N-二(2-羟乙基)对甲苯胺;",
    "alternate_name": "Ethanol, 2,2′-[(4-methylphenyl)imino]bis-;Ethanol, 2,2′-(<em>p</em>-tolylimino)di-;2,2′-[(4-Methylphenyl)imino]bis[ethanol];Diethylol-<em>p</em>-toluidine;<em>N</em>,<em>N</em>-Bis(2-hydroxyethyl)-<em>p</em>-toluidine;<em>N</em>-(4-Methylphenyl)diethanolamine;<em>N</em>,<em>N</em>-Diethanol-<em>p</em>-toluidine;2,2′-(<em>p</em>-Tolylimino)diethanol;<em>N</em>-(<em>p</em>-Methylphenyl)-<em>N</em>,<em>N</em>-diethanolamine;<em>N</em>,<em>N</em>-Diethanol-<em>p</em>-methylphenylamine;<em>N</em>,<em>N</em>-Bis(2-hydroxyethyl)-4-methylaniline;<em>N</em>,<em>N</em>-Bis(β-hydroxyethyl)-<em>p</em>-toluidine;<em>N</em>-(<em>p</em>-Methylphenyl)diethanolamine;<em>N</em>-<em>p</em>-Tolyldiethanolamine;DEPT;Plexilith 492;<em>N</em>,<em>N</em>-Di(β-hydroxyethyl)-<em>p</em>-toluidine;<em>N</em>,<em>N</em>-Bis(2-hydroxyethyl)-<em>p</em>-toludine;NSC 103354;<em>N</em>,<em>N</em>-Bis(2-hydroxyethyl)-4-toluidine;PT 2HE;<em>N</em>,<em>N</em>-Di(2-hydroxyethyl)-<em>p</em>-toluidine;<em>N</em>,<em>N</em>-Di(2-hydroxyethyl)-4-toluidine;<em>N</em>,<em>N</em>-Di(2-hydroxyethyl)-<em>p</em>-methylaniline;<em>p</em>-Tolyldiethanolamine;Pergaquick A 150;2,2′-(4-Methylphenylimino)diethanol;PTEO;2,2′-(<em>p</em>-Tolylazanediyl)diethanol;2-[<em>N</em>-(2-Hydroxyethyl)-4-methylanilino]ethanol;2-[(2-Hydroxyethyl)(4-methylphenyl)amino]ethan-1-ol;Pergaquick PQ-A 150",
    "duplicated_cas_no": "213334-40-8;221314-43-8;695177-37-8;1007403-49-7",
    "SMILES": "N(CCO)(CCO)C1=CC=C(C)C=C1",
    "meta_data": {
        "InChI": "InChI=1S/C11H17NO2/c1-10-2-4-11(5-3-10)12(6-8-13)7-9-14/h2-5,13-14H,6-9H2,1H3",
        "InChIKey": null,
        "Canonical SMILES": "OCCN(C1=CC=C(C=C1)C)CCO",
        "Molecular Formula": "C<sub>11</sub>H<sub>17</sub>NO<sub>2</sub>",
        "Molecular Mass": "195.26",
        "Boiling Point": "339 °C",
        "Melting Point": "53-54 °C"
    }
}