{
    "cas_no": "81-21-0",
    "key_name": "Dicyclopentadiene dioxide",
    "cn_name": "二环戊二烯环氧化物;二氧化二聚环戊二烯;",
    "alternate_name": "2,4-Methano-2<em>H</em>-indeno[1,2-<em>b</em>:5,6-<em>b</em>′]bisoxirene, octahydro-;4,7-Methanoindan, 1,2:5,6-diepoxyhexahydro-;Octahydro-2,4-methano-2<em>H</em>-indeno[1,2-<em>b</em>:5,6-<em>b</em>′]bisoxirene;Bicyclopentadiene dioxide;Dicyclopentadiene diepoxide;Dicyclopentadiene dioxide;1,2:5,6-Diepoxyhexahydro-4,7-methanoindan;NSC 24262;NSC 30544;NSC 34460;NSC 54738;NSC 56357;DCPDDO;1,2:5,6-Diepoxydicyclopentadiene;TTA 27;Dicyclopentandiene diepoxide;Synasia S 32",
    "duplicated_cas_no": "4168-48-3;21090-47-1;29475-56-7;106342-07-8;1657001-20-1",
    "SMILES": "C12C3C4C(C(C1CC5C2O5)C3)O4",
    "meta_data": {
        "InChI": "InChI=1S/C10H12O2/c1-4-3-2-6-10(11-6)7(3)5(1)9-8(4)12-9/h3-10H,1-2H2",
        "InChIKey": null,
        "Canonical SMILES": "O1C2CC3C4CC(C5OC54)C3C12",
        "Molecular Formula": "C<sub>10</sub>H<sub>12</sub>O<sub>2</sub>",
        "Molecular Mass": "164.20",
        "Boiling Point": "50 °C @ Press: 7.5 mmHg",
        "Melting Point": "180-184 °C",
        "Density": "1.331 g/cm³ @ Temp: 25 °C"
    }
}