{
    "cas_no": "118-08-1",
    "key_name": "(-)-Hydrastine",
    "cn_name": "北美黄连碱;",
    "alternate_name": "1(3<em>H</em>)-Isobenzofuranone, 6,7-dimethoxy-3-[(5<em>R</em>)-5,6,7,8-tetrahydro-6-methyl-1,3-dioxolo[4,5-<em>g</em>]isoquinolin-5-yl]-, (3<em>S</em>)-;Hydrastine;1(3<em>H</em>)-Isobenzofuranone, 6,7-dimethoxy-3-(5,6,7,8-tetrahydro-6-methyl-1,3-dioxolo[4,5-<em>g</em>]isoquinolin-5-yl)-, [<em>S</em>-(<em>R</em>*,<em>S</em>*)]-;1,3-Dioxolo[4,5-<em>g</em>]isoquinoline, 1(3<em>H</em>)-isobenzofuranone deriv.;(3<em>S</em>)-6,7-Dimethoxy-3-[(5<em>R</em>)-5,6,7,8-tetrahydro-6-methyl-1,3-dioxolo[4,5-<em>g</em>]isoquinolin-5-yl]-1(3<em>H</em>)-isobenzofuranone;β-Hydrastine;(-)-β-Hydrastine;<em>l</em>-Hydrastine;(-)-Hydrastine;(1<em>R</em>,9<em>S</em>)-β-Hydrastine",
    "duplicated_cas_no": "5988-13-6;26294-47-3;28638-96-2",
    "SMILES": "CN1[C@@]([C@@]2(C=3C(C(=O)O2)=C(OC)C(OC)=CC3)[H])(C4=C(C=C5C(=C4)OCO5)CC1)[H]",
    "meta_data": {
        "InChI": "InChI=1S/C21H21NO6/c1-22-7-6-11-8-15-16(27-10-26-15)9-13(11)18(22)19-12-4-5-14(24-2)20(25-3)17(12)21(23)28-19/h4-5,8-9,18-19H,6-7,10H2,1-3H3/t18-,19+/m1/s1",
        "InChIKey": null,
        "Canonical SMILES": "O=C1OC(C2=CC=C(OC)C(OC)=C12)C3C4=CC=5OCOC5C=C4CCN3C",
        "Molecular Formula": "C<sub>21</sub>H<sub>21</sub>NO<sub>6</sub>",
        "Molecular Mass": "383.39",
        "Melting Point": "132 °C"
    }
}