{
    "cas_no": "104700-98-3",
    "key_name": "Ganoderal A",
    "cn_name": null,
    "alternate_name": "Lanosta-7,9(11),24-trien-26-al, 3-oxo-, (24<em>E</em>)-;(24<em>E</em>)-3-Oxolanosta-7,9(11),24-trien-26-al;(+)-Ganoderal A;Ganoderal A",
    "duplicated_cas_no": "",
    "SMILES": "C[C@]12C=3C([C@]4(C)[C@@](CC3)(C(C)(C)C(=O)CC4)[H])=CC[C@]1(C)[C@@]([C@@H](CC/C=C(/C=O)\\C)C)(CC2)[H]",
    "meta_data": {
        "InChI": "InChI=1S/C30H44O2/c1-20(19-31)9-8-10-21(2)22-13-17-30(7)24-11-12-25-27(3,4)26(32)15-16-28(25,5)23(24)14-18-29(22,30)6/h9,11,14,19,21-22,25H,8,10,12-13,15-18H2,1-7H3/b20-9+/t21-,22-,25+,28-,29-,30+/m1/s1",
        "InChIKey": null,
        "Canonical SMILES": "O=CC(=CCCC(C)C1CCC2(C3=CCC4C(C(=O)CCC4(C3=CCC12C)C)(C)C)C)C",
        "Molecular Formula": "C<sub>30</sub>H<sub>44</sub>O<sub>2</sub>",
        "Molecular Mass": "436.67",
        "Melting Point": "127-128 °C"
    }
}