{
    "cas_no": "13360-61-7",
    "key_name": "1-Pentadecene",
    "cn_name": "十五烯;1-十五烯;",
    "alternate_name": "1-Pentadecene;NSC 77125",
    "duplicated_cas_no": "",
    "SMILES": "C(CCCCCCC)CCCCCC=C",
    "meta_data": {
        "InChI": "InChI=1S/C15H30/c1-3-5-7-9-11-13-15-14-12-10-8-6-4-2/h3H,1,4-15H2,2H3",
        "InChIKey": null,
        "Canonical SMILES": "C=CCCCCCCCCCCCCC",
        "Molecular Formula": "C<sub>15</sub>H<sub>30</sub>",
        "Molecular Mass": "210.40",
        "Boiling Point": "268.2 °C",
        "Melting Point": "-2.8 °C",
        "Density": "0.7769 g/cm³ @ Temp: 20 °C"
    }
}