{
    "cas_no": "603-40-7",
    "key_name": "4,4′-(Phenylmethylene)bis[benzenamine]",
    "cn_name": null,
    "alternate_name": "Benzenamine, 4,4′-(phenylmethylene)bis-;Aniline, 4,4′-benzylidenedi-;Aniline, <em>p</em>,<em>p</em>′-benzalbis-;4,4′-(Phenylmethylene)bis[benzenamine];4,4′-Diaminotriphenylmethane;4,4′-(Phenylmethylene)bisaniline;Tetradesmethyl leucomalachite green;NSC 37196;Bis(4-aminophenyl)phenylmethane;4,4′-Benzylidenedianiline;4,4′-(Phenylmethylene)dianiline",
    "duplicated_cas_no": "107052-76-6",
    "SMILES": "C(C1=CC=C(N)C=C1)(C2=CC=C(N)C=C2)C3=CC=CC=C3",
    "meta_data": {
        "InChI": "InChI=1S/C19H18N2/c20-17-10-6-15(7-11-17)19(14-4-2-1-3-5-14)16-8-12-18(21)13-9-16/h1-13,19H,20-21H2",
        "InChIKey": null,
        "Canonical SMILES": "NC1=CC=C(C=C1)C(C=2C=CC=CC2)C3=CC=C(N)C=C3",
        "Molecular Formula": "C<sub>19</sub>H<sub>18</sub>N<sub>2</sub>",
        "Molecular Mass": "274.36",
        "Melting Point": "139 °C"
    }
}