{
    "cas_no": "3811-25-4",
    "key_name": "Clorprenaline",
    "cn_name": "氯丙那林;1-(2-氯苯基)-2-异丙基氨基-乙醇;alpha-[1-(甲基乙基)氨基甲基]-2-氯-苯甲醇;邻氯异丙肾上腺素;",
    "alternate_name": "Benzenemethanol, 2-chloro-α-[[(1-methylethyl)amino]methyl]-;Benzyl alcohol, <em>o</em>-chloro-α-[(isopropylamino)methyl]-;2-Chloro-α-[[(1-methylethyl)amino]methyl]benzenemethanol;1-<em>o</em>-Chlorophenyl-2-isopropylaminoethanol;Clorprenaline;Isoprophenamine;E 241;<em>o</em>-Chloro-α-(isopropylaminomethyl)benzyl alcohol;(±)-Chloroprenaline;Isoprofenamine;1-(2-Chlorophenyl)-2-[(propan-2-yl)amino]ethan-1-ol;1-(2-Chlorophenyl)-2-(propan-2-ylamino)ethanol;2-Chloro-α-[(isopropylamino)methyl]benzenemethanol",
    "duplicated_cas_no": "103125-10-6",
    "SMILES": "C(CNC(C)C)(O)C1=C(Cl)C=CC=C1",
    "meta_data": {
        "InChI": "InChI=1S/C11H16ClNO/c1-8(2)13-7-11(14)9-5-3-4-6-10(9)12/h3-6,8,11,13-14H,7H2,1-2H3",
        "InChIKey": null,
        "Canonical SMILES": "ClC=1C=CC=CC1C(O)CNC(C)C",
        "Molecular Formula": "C<sub>11</sub>H<sub>16</sub>ClNO",
        "Molecular Mass": "213.70",
        "Melting Point": "81-82 °C"
    }
}