{
    "cas_no": "2835-96-3",
    "key_name": "4-Amino-2-methylphenol",
    "cn_name": "2-甲基-4-氨基苯酚;4-氨基邻甲酚;",
    "alternate_name": "Phenol, 4-amino-2-methyl-;<em>o</em>-Cresol, 4-amino-;4-Amino-2-methylphenol;3-Methyl-4-hydroxyaniline;2-Methyl-4-aminophenol;4-Hydroxy-3-methylaniline;5-Amino-2-hydroxytoluene;3-Amino-6-hydroxytoluene;4-Amino-<em>o</em>-cresol;<em>p</em>-Amino-<em>o</em>-cresol;2-Methyl-<em>p</em>-aminophenol;4-Amino-2-cresol",
    "duplicated_cas_no": "",
    "SMILES": "CC1=C(O)C=CC(N)=C1",
    "meta_data": {
        "InChI": "InChI=1S/C7H9NO/c1-5-4-6(8)2-3-7(5)9/h2-4,9H,8H2,1H3",
        "InChIKey": null,
        "Canonical SMILES": "OC1=CC=C(N)C=C1C",
        "Molecular Formula": "C<sub>7</sub>H<sub>9</sub>NO",
        "Molecular Mass": "123.15",
        "Melting Point": "176.5 °C"
    }
}