{
    "cas_no": "28240-69-9",
    "key_name": "1,2-Bis(dichlorophosphino)ethane",
    "cn_name": "1,2-双(二氯磷基)-乙烷;",
    "alternate_name": "Phosphonous dichloride, <em>P</em>,<em>P</em>′-1,2-ethanediylbis-;Phosphonous dichloride, ethylenedi-;Phosphonous dichloride, 1,2-ethanediylbis-;<em>P</em>,<em>P</em>′-1,2-Ethanediylbis[phosphonous dichloride];1,2-Bis(dichlorophosphino)ethane;Ethylenebis(dichlorophosphine);1,2-Ethanediylbis[phosphonous dichloride];<em>P</em>,<em>P</em>′-(1,2-Ethanediyl)bis(dichlorophosphane)",
    "duplicated_cas_no": "",
    "SMILES": "C(CP(Cl)Cl)P(Cl)Cl",
    "meta_data": {
        "InChI": "InChI=1S/C2H4Cl4P2/c3-7(4)1-2-8(5)6/h1-2H2",
        "InChIKey": null,
        "Canonical SMILES": "ClP(Cl)CCP(Cl)Cl",
        "Molecular Formula": "C<sub>2</sub>H<sub>4</sub>Cl<sub>4</sub>P<sub>2</sub>",
        "Molecular Mass": "231.81",
        "Boiling Point": "68 °C @ Press: 1 Torr",
        "Melting Point": "118-120 °C"
    }
}