{
    "cas_no": "7128-64-5",
    "key_name": "2,5-Bis(5′-<em>tert</em>-butyl-2-benzoxazolyl)thiophene",
    "cn_name": "荧光增白剂184;2,5-双(5-叔丁基-1,3-苯并噁唑-2-基)噻酚;荧光增白剂OB;",
    "alternate_name": "Benzoxazole, 2,2′-(2,5-thiophenediyl)bis[5-(1,1-dimethylethyl)-;Benzoxazole, 2,2′-(2,5-thiophenediyl)bis[5-<em>tert</em>-butyl-;2,2′-(2,5-Thiophenediyl)bis[5-(1,1-dimethylethyl)benzoxazole];2,5-Di(5-<em>tert</em>-butylbenzoxazol-2-yl)thiophene;2,5-Bis(5-<em>tert</em>-butyl-2-benzoxazolyl)thiophene;2,2′-(2,5-Thiophenediyl)bis[5-<em>tert</em>-butylbenzoxazole];BBOT;2,5-Bis(5′-<em>tert</em>-butyl-2-benzoxazolyl)thiophene;Uvitex OB;BBOT 150;Uvitex 3BSA;C.I. Fluorescent Brightening Agent 184;C.I. Fluorescent Brightener 184;C.I. 515245;Fluorescent Brightener 184;Keyfluor White PL;O-B TECH;Uvitex OB 55;NSC 158163;C.I. FBA 184;OB;TBO;2,5-Bis(5-<em>tert</em>-butylbenzooxazol-2-yl)thiophene;Tinopal OB;B 0047;OB-FBA 184;Hitex OB;Brightener OB;MPI Bright 100;Benetex OB;Helios SC;SpeedBright OB 184;OB 184;Fluorescent brightener OB;2,2′-(2,5-Thiophenediyl)bis(5-tert-butylbenzoxazole);S-FN;Telalux OB;Tinopal OB-CO;Mayzo OB Plus;Benetex OB+;Benetex OB Plus;Skywhite UVT7.1;Omnistab OB;Radglo CFF-X 02;Radglo CFF-X 02 UV Blue",
    "duplicated_cas_no": "12224-40-7;59249-63-7;61229-63-8;144470-46-2;864446-12-8;1197996-34-1;1430334-83-0;2369674-07-5;3024607-07-3",
    "SMILES": "C(C)(C)(C)C=1C=C2N=C(OC2=CC1)C=3SC(=CC3)C4=NC=5C(O4)=CC=C(C(C)(C)C)C5",
    "meta_data": {
        "InChI": "InChI=1S/C26H26N2O2S/c1-25(2,3)15-7-9-19-17(13-15)27-23(29-19)21-11-12-22(31-21)24-28-18-14-16(26(4,5)6)8-10-20(18)30-24/h7-14H,1-6H3",
        "InChIKey": null,
        "Canonical SMILES": "N1=C(OC2=CC=C(C=C12)C(C)(C)C)C=3SC(=CC3)C4=NC5=CC(=CC=C5O4)C(C)(C)C",
        "Molecular Formula": "C<sub>26</sub>H<sub>26</sub>N<sub>2</sub>O<sub>2</sub>S",
        "Molecular Mass": "430.56",
        "Melting Point": "201-202 °C"
    }
}