{
    "cas_no": "2104-09-8",
    "key_name": "2-Amino-4-(<em>p</em>-nitrophenyl)thiazole",
    "cn_name": null,
    "alternate_name": "2-Thiazolamine, 4-(4-nitrophenyl)-;Thiazole, 2-amino-4-(<em>p</em>-nitrophenyl)-;4-(4-Nitrophenyl)-2-thiazolamine;2-Amino-4-(<em>p</em>-nitrophenyl)thiazole;4-(4-Nitrophenyl)thiazol-2-amine;2-Amino-4-(4-nitrophenyl)thiazole;4-(4-Nitrophenyl)-1,3-thiazol-2-amine;2-Amino-4-(4′-nitrophenyl)-1,3-thiazole",
    "duplicated_cas_no": "",
    "SMILES": "NC1=NC(C2=CC=C(N(=O)=O)C=C2)=CS1",
    "meta_data": {
        "InChI": "InChI=1S/C9H7N3O2S/c10-9-11-8(5-15-9)6-1-3-7(4-2-6)12(13)14/h1-5H,(H2,10,11)",
        "InChIKey": null,
        "Canonical SMILES": "O=N(=O)C=1C=CC(=CC1)C=2N=C(SC2)N",
        "Molecular Formula": "C<sub>9</sub>H<sub>7</sub>N<sub>3</sub>O<sub>2</sub>S",
        "Molecular Mass": "221.24",
        "Melting Point": "285-286 °C"
    }
}