{
    "cas_no": "60875-16-3",
    "key_name": "4-(3-Methyl-5-oxo-2-pyrazolin-1-yl)benzoic acid",
    "cn_name": "1-(4-羧基苯基)-3-甲基-5-吡唑酮;",
    "alternate_name": "Benzoic acid, 4-(4,5-dihydro-3-methyl-5-oxo-1<em>H</em>-pyrazol-1-yl)-;Benzoic acid, <em>p</em>-(3-methyl-5-oxo-2-pyrazolin-1-yl)-;4-(4,5-Dihydro-3-methyl-5-oxo-1<em>H</em>-pyrazol-1-yl)benzoic acid;1-(4-Carboxyphenyl)-3-methyl-2-pyrazolinone;1-(4-Carboxyphenyl)-3-methyl-2-pyrazolin-5-one;4-(3-Methyl-5-oxo-2-pyrazolin-1-yl)benzoic acid;1-(<em>p</em>-Carboxyphenyl)-3-methyl-5-pyrazolone;1-(4-Carboxyphenyl)-3-methyl-5-pyrazolone;4-(3-Methyl-5-oxopyrazol-1-yl)benzoic acid;4-(3-Methyl-5-oxo-4,5-dihydro-1<em>H</em>-pyrazol-1-yl)benzoic acid",
    "duplicated_cas_no": "",
    "SMILES": "O=C1N(N=C(C)C1)C2=CC=C(C(O)=O)C=C2",
    "meta_data": {
        "InChI": "InChI=1S/C11H10N2O3/c1-7-6-10(14)13(12-7)9-4-2-8(3-5-9)11(15)16/h2-5H,6H2,1H3,(H,15,16)",
        "InChIKey": null,
        "Canonical SMILES": "O=C(O)C1=CC=C(C=C1)N2N=C(C)CC2=O",
        "Molecular Formula": "C<sub>11</sub>H<sub>10</sub>N<sub>2</sub>O<sub>3</sub>",
        "Molecular Mass": "218.21",
        "Melting Point": "278 °C"
    }
}