{
    "cas_no": "38210-35-4",
    "key_name": "2-(Benzo[<em>b</em>]thiophen-2-yl)pyridine",
    "cn_name": "2-(2-吡啶基)苯并噻吩;",
    "alternate_name": "Pyridine, 2-benzo[<em>b</em>]thien-2-yl-;2-Benzo[<em>b</em>]thien-2-ylpyridine;2-(2-Pyridyl)benzothiophene;2-(Benzo[<em>b</em>]thiophen-2-yl)pyridine;2-(Benzo[<em>b</em>]thiphen-2-yl)pyridine;2-(2-Pyridyl)benzo[<em>b</em>]thiophene",
    "duplicated_cas_no": "",
    "SMILES": "C1(=CC=2C(S1)=CC=CC2)C3=CC=CC=N3",
    "meta_data": {
        "InChI": "InChI=1S/C13H9NS/c1-2-7-12-10(5-1)9-13(15-12)11-6-3-4-8-14-11/h1-9H",
        "InChIKey": null,
        "Canonical SMILES": "N=1C=CC=CC1C=2SC=3C=CC=CC3C2",
        "Molecular Formula": "C<sub>13</sub>H<sub>9</sub>NS",
        "Molecular Mass": "211.28",
        "Melting Point": "124-126 °C"
    }
}