{
    "cas_no": "149-16-6",
    "key_name": "Butacaine",
    "cn_name": "二丁氨卡因;二丁氨卡因;",
    "alternate_name": "1-Propanol, 3-(dibutylamino)-, 1-(4-aminobenzoate);Butacaine;1-Propanol, 3-(dibutylamino)-, <em>p</em>-aminobenzoate (ester);1-Propanol, 3-(dibutylamino)-, 4-aminobenzoate (ester);1-Propanol, 3-(dibutylamino)-, <em>p</em>-aminobenzoate;3-(<em>p</em>-Aminobenzoxy)-1-di-<em>n</em>-butylaminopropane;Butyn;3-(Dibutylamino)-1-propanol <em>p</em>-aminobenzoate;3-Dibutylaminopropyl <em>p</em>-aminobenzoate;Butelline",
    "duplicated_cas_no": "",
    "SMILES": "C(OCCCN(CCCC)CCCC)(=O)C1=CC=C(N)C=C1",
    "meta_data": {
        "InChI": "InChI=1S/C18H30N2O2/c1-3-5-12-20(13-6-4-2)14-7-15-22-18(21)16-8-10-17(19)11-9-16/h8-11H,3-7,12-15,19H2,1-2H3",
        "InChIKey": null,
        "Canonical SMILES": "O=C(OCCCN(CCCC)CCCC)C1=CC=C(N)C=C1",
        "Molecular Formula": "C<sub>18</sub>H<sub>30</sub>N<sub>2</sub>O<sub>2</sub>",
        "Molecular Mass": "306.44",
        "Boiling Point": "180 °C",
        "Melting Point": "&lt;25 °C"
    }
}