{
    "cas_no": "77214-82-5",
    "key_name": "Ferric <em>p</em>-toluenesulfonate",
    "cn_name": "对甲苯磺酸铁;",
    "alternate_name": "Benzenesulfonic acid, 4-methyl-, iron(3+) salt (3:1);Benzenesulfonic acid, 4-methyl-, iron(3+) salt;Iron(III) <em>p</em>-toluenesulfonate;<em>p</em>-Toluenesulfonic acid ferric salt;Ferric <em>p</em>-toluenesulfonate;Ferric tosylate;Iron tris(4-toluenesulfonate);Iron(3+) tosylate;Tris(toluenesulfonate)iron(III);Iron(III) tris(toluenesulfonate);Baytron C-B 40;Baytron C;Baytron C-E;Baytron C-B 50;Baytron C-B 40 High Fe;Iron(III) tosylate;Fe(III) <em>p</em>-toluenesulfonate;Clevios C-B 40;Clevios C-W;Clevios C-B 40V2;Iron tris(<em>p</em>-toluenesulfonate);FTS;Clevios C-E 60;Taycatron AF 60E;Taycatron AF 55B;Clevios C;Clevios C-E 40;OS-DO 55;C-B 40V2;Clevios C-B 54V3;Clevios CB 54",
    "duplicated_cas_no": "113284-17-6;114504-10-8;615564-16-4",
    "SMILES": "S(=O)(=O)(O)C1=CC=C(C)C=C1.[Fe]",
    "meta_data": {
        "InChI": "InChI=1S/C7H8O3S.Fe/c1-6-2-4-7(5-3-6)11(8,9)10;/h2-5H,1H3,(H,8,9,10);",
        "InChIKey": null,
        "Canonical SMILES": "[Fe].O=S(=O)(O)C1=CC=C(C=C1)C",
        "Molecular Formula": "C<sub>7</sub>H<sub>8</sub>O<sub>3</sub>S.<sup>1</sup>/<sub>3</sub>Fe",
        "Molecular Mass": "",
        "Melting Point": "279-283 °C"
    }
}