{
    "cas_no": "1333-53-5",
    "key_name": "Isopropylquinoline",
    "cn_name": "(1-甲基乙基)喹啉;6-(1-甲基乙基)喹啉;",
    "alternate_name": "Quinoline, (1-methylethyl)-;Quinoline, isopropyl-;(1-Methylethyl)quinoline;Lichenol;Isopropylquinoline",
    "duplicated_cas_no": "",
    "SMILES": "",
    "meta_data": {
        "InChI": "",
        "InChIKey": null,
        "Canonical SMILES": "",
        "Molecular Formula": "C<sub>12</sub>H<sub>13</sub>N",
        "Molecular Mass": "",
        "Melting Point": "73.5-74 °C"
    }
}