{
    "cas_no": "2912-62-1",
    "key_name": "α-Chlorobenzeneacetyl chloride",
    "cn_name": "DL-2-氯-2-苯基乙酰氯;",
    "alternate_name": "Benzeneacetyl chloride, α-chloro-;Acetyl chloride, chlorophenyl-;α-Chlorobenzeneacetyl chloride;2-Chloro-2-phenylacetyl chloride;Chlorophenylacetyl chloride;α-Chlorophenylacetyl chloride;α-Chloro-α-phenylacetyl chloride;Phenyl(chloro)acetyl chloride;(±)-2-Chloro-2-phenylacetyl chloride;2-Phenyl-2-chloroacetyl chloride",
    "duplicated_cas_no": "58690-83-8",
    "SMILES": "C(C(Cl)=O)(Cl)C1=CC=CC=C1",
    "meta_data": {
        "InChI": "InChI=1S/C8H6Cl2O/c9-7(8(10)11)6-4-2-1-3-5-6/h1-5,7H",
        "InChIKey": null,
        "Canonical SMILES": "O=C(Cl)C(Cl)C=1C=CC=CC1",
        "Molecular Formula": "C<sub>8</sub>H<sub>6</sub>Cl<sub>2</sub>O",
        "Molecular Mass": "189.04",
        "Boiling Point": "118 °C @ Press: 24 Torr",
        "Melting Point": "285 °C"
    }
}