{
    "cas_no": "20266-00-6",
    "key_name": "2-Chloro-1-(1-pyrrolidinyl)ethanone",
    "cn_name": null,
    "alternate_name": "Ethanone, 2-chloro-1-(1-pyrrolidinyl)-;Pyrrolidine, 1-(chloroacetyl)-;2-Chloro-1-(1-pyrrolidinyl)ethanone;1-(Chloroacetyl)pyrrolidine;Pyrrolidylcarbonylmethyl chloride;<em>N</em>-(Chloroacetyl)pyrrolidine;2-Chloro-1-(pyrrolidin-1-yl)ethanone;2-Chloro-1-(pyrrolidin-1-yl)ethan-1-one;1-(2-Chloroacetyl)pyrrolidine",
    "duplicated_cas_no": "",
    "SMILES": "C(CCl)(=O)N1CCCC1",
    "meta_data": {
        "InChI": "InChI=1S/C6H10ClNO/c7-5-6(9)8-3-1-2-4-8/h1-5H2",
        "InChIKey": null,
        "Canonical SMILES": "O=C(N1CCCC1)CCl",
        "Molecular Formula": "C<sub>6</sub>H<sub>10</sub>ClNO",
        "Molecular Mass": "147.60",
        "Boiling Point": "112 °C @ Press: 0.5 Torr",
        "Melting Point": "44-46 °C"
    }
}