{
    "cas_no": "189279-58-1",
    "key_name": "Delafloxacin",
    "cn_name": null,
    "alternate_name": "3-Quinolinecarboxylic acid, 1-(6-amino-3,5-difluoro-2-pyridinyl)-8-chloro-6-fluoro-1,4-dihydro-7-(3-hydroxy-1-azetidinyl)-4-oxo-;1-(6-Amino-3,5-difluoro-2-pyridinyl)-8-chloro-6-fluoro-1,4-dihydro-7-(3-hydroxy-1-azetidinyl)-4-oxo-3-quinolinecarboxylic acid;WQ 3034;ABT 492;1-(6-Amino-3,5-difluoropyridin-2-yl)-8-chloro-6-fluoro-7-(3-hydroxyazetidin-1-yl)-4-oxo-1,4-dihydroquinoline-3-carboxylic acid;RX 3341;Delafloxacin;Delafloxacinum;Baxdela",
    "duplicated_cas_no": "579508-20-6",
    "SMILES": "ClC1=C2N(C=C(C(O)=O)C(=O)C2=CC(F)=C1N3CC(O)C3)C4=C(F)C=C(F)C(N)=N4",
    "meta_data": {
        "InChI": "InChI=1S/C18H12ClF3N4O4/c19-12-13-7(1-9(20)14(12)25-3-6(27)4-25)15(28)8(18(29)30)5-26(13)17-11(22)2-10(21)16(23)24-17/h1-2,5-6,27H,3-4H2,(H2,23,24)(H,29,30)",
        "InChIKey": null,
        "Canonical SMILES": "O=C(O)C1=CN(C2=NC(N)=C(F)C=C2F)C3=C(Cl)C(=C(F)C=C3C1=O)N4CC(O)C4",
        "Molecular Formula": "C<sub>18</sub>H<sub>12</sub>ClF<sub>3</sub>N<sub>4</sub>O<sub>4</sub>",
        "Molecular Mass": "440.76",
        "Melting Point": "238-241 °C"
    }
}