{
    "cas_no": "3682-15-3",
    "key_name": "5-Nitrophthalhydrazide",
    "cn_name": "3-硝基邻苯二甲酰肼;",
    "alternate_name": "1,4-Phthalazinedione, 2,3-dihydro-5-nitro-;2,3-Dihydro-5-nitro-1,4-phthalazinedione;5-Nitro-2,3-dihydro-1,4-phthalazinedione;5-Nitrophthalhydrazide;NSC 942",
    "duplicated_cas_no": "",
    "SMILES": "N(=O)(=O)C1=C2C(C(=O)NNC2=O)=CC=C1",
    "meta_data": {
        "InChI": "InChI=1S/C8H5N3O4/c12-7-4-2-1-3-5(11(14)15)6(4)8(13)10-9-7/h1-3H,(H,9,12)(H,10,13)",
        "InChIKey": null,
        "Canonical SMILES": "O=C1NNC(=O)C=2C1=CC=CC2N(=O)=O",
        "Molecular Formula": "C<sub>8</sub>H<sub>5</sub>N<sub>3</sub>O<sub>4</sub>",
        "Molecular Mass": "207.14",
        "Melting Point": "&gt;320 °C"
    }
}