{
    "cas_no": "5049-61-6",
    "key_name": "Aminopyrazine",
    "cn_name": "氨基吡嗪;2-氨基吡嗪;",
    "alternate_name": "2-Pyrazinamine;Pyrazinamine;Pyrazine, 1,2-dihydro-2-imino-;Pyrazine, amino-;Aminopyrazine;ENT 60202;2-Aminopyrazine;1,2-Dihydro-2-iminopyrazine;Pyrazin-2-ylamine;NSC 13147;2-Amino-1,4-pyrazine;3-Aminopyrazine",
    "duplicated_cas_no": "20502-54-9",
    "SMILES": "NC=1C=NC=CN1",
    "meta_data": {
        "InChI": "InChI=1S/C4H5N3/c5-4-3-6-1-2-7-4/h1-3H,(H2,5,7)",
        "InChIKey": null,
        "Canonical SMILES": "N=1C=CN=C(N)C1",
        "Molecular Formula": "C<sub>4</sub>H<sub>5</sub>N<sub>3</sub>",
        "Molecular Mass": "95.10",
        "Melting Point": "117 °C"
    }
}