{
    "cas_no": "89-55-4",
    "key_name": "5-Bromosalicylic acid",
    "cn_name": "5-溴水杨酸;5-溴-2-羟基苯甲酸;",
    "alternate_name": "Benzoic acid, 5-bromo-2-hydroxy-;Salicylic acid, 5-bromo-;5-Bromo-2-hydroxybenzoic acid;2-Hydroxy-5-bromobenzoic acid;5-Bromosalicylic acid;NSC 3981;NSC 52393",
    "duplicated_cas_no": "50516-75-1",
    "SMILES": "C(O)(=O)C1=C(O)C=CC(Br)=C1",
    "meta_data": {
        "InChI": "InChI=1S/C7H5BrO3/c8-4-1-2-6(9)5(3-4)7(10)11/h1-3,9H,(H,10,11)",
        "InChIKey": null,
        "Canonical SMILES": "O=C(O)C1=CC(Br)=CC=C1O",
        "Molecular Formula": "C<sub>7</sub>H<sub>5</sub>BrO<sub>3</sub>",
        "Molecular Mass": "217.02",
        "Melting Point": "169.8 °C"
    }
}