{
    "cas_no": "10130-89-9",
    "key_name": "4-(Chlorosulfonyl)benzoic acid",
    "cn_name": "4-(氯磺酰(基))苯甲酸;",
    "alternate_name": "Benzoic acid, 4-(chlorosulfonyl)-;Benzoic acid, <em>p</em>-(chlorosulfonyl)-;4-(Chlorosulfonyl)benzoic acid;<em>p</em>-Carboxybenzenesulfonyl chloride;<em>p</em>-(Chlorosulfonyl)benzoic acid;4-Carboxybenzenesulfonyl chloride;4-Carboxyphenylsulfonyl chloride;NSC 191087",
    "duplicated_cas_no": "",
    "SMILES": "S(Cl)(=O)(=O)C1=CC=C(C(O)=O)C=C1",
    "meta_data": {
        "InChI": "InChI=1S/C7H5ClO4S/c8-13(11,12)6-3-1-5(2-4-6)7(9)10/h1-4H,(H,9,10)",
        "InChIKey": null,
        "Canonical SMILES": "O=C(O)C1=CC=C(C=C1)S(=O)(=O)Cl",
        "Molecular Formula": "C<sub>7</sub>H<sub>5</sub>ClO<sub>4</sub>S",
        "Molecular Mass": "220.63",
        "Melting Point": "235 °C (decomp)"
    }
}