{
    "cas_no": "3339-73-9",
    "key_name": "<em>N</em>-Phthaloyl-β-alanine",
    "cn_name": "3-(邻苯二甲酰亚氨基)丙酸;",
    "alternate_name": "2<em>H</em>-Isoindole-2-propanoic acid, 1,3-dihydro-1,3-dioxo-;2-Isoindolinepropionic acid, 1,3-dioxo-;1,3-Dihydro-1,3-dioxo-2<em>H</em>-isoindole-2-propanoic acid;β-Alanine, <em>N</em>-phthaloyl-;1,3-Dioxo-2-isoindolinepropionic acid;3-Phthalimidopropionic acid;β-Phthalimidopropionic acid;<em>N</em>-Phthaloyl-β-alanine;β-(<em>N</em>-Phthalimido)propionic acid;Phthalimido-β-alanine;NSC 401084;3-(1,3-Dihydro-1,3-dioxo-2<em>H</em>-isoindol-2-yl)propanoic acid;3-(1,3-Dioxo-1,3-dihydroisoindol-2-yl)propionic Acid;3-Phthalimidoylpropionic acid;3-Phthalimidopropanoic acid;3-(1,3-Dioxoisoindolin-2-yl)propanoic acid;3-(1,3-Dioxo-2,3-dihydro-1<em>H</em>-isoindol-2-yl)propanoic acid;3-(1,3-Dioxoisoindol-2-yl)propanoic acid",
    "duplicated_cas_no": "",
    "SMILES": "O=C1C=2C(C(=O)N1CCC(O)=O)=CC=CC2",
    "meta_data": {
        "InChI": "InChI=1S/C11H9NO4/c13-9(14)5-6-12-10(15)7-3-1-2-4-8(7)11(12)16/h1-4H,5-6H2,(H,13,14)",
        "InChIKey": null,
        "Canonical SMILES": "O=C(O)CCN1C(=O)C=2C=CC=CC2C1=O",
        "Molecular Formula": "C<sub>11</sub>H<sub>9</sub>NO<sub>4</sub>",
        "Molecular Mass": "219.19",
        "Melting Point": "150-151 °C"
    }
}