{
    "cas_no": "5326-34-1",
    "key_name": "1-Bromo-4-methyl-2-nitrobenzene",
    "cn_name": "4-溴-3-硝基甲苯;",
    "alternate_name": "Benzene, 1-bromo-4-methyl-2-nitro-;Toluene, 4-bromo-3-nitro-;1-Bromo-4-methyl-2-nitrobenzene;2-Bromo-5-methylnitrobenzene;4-Bromo-3-nitrotoluene;NSC 289",
    "duplicated_cas_no": "919522-57-9",
    "SMILES": "N(=O)(=O)C1=C(Br)C=CC(C)=C1",
    "meta_data": {
        "InChI": "InChI=1S/C7H6BrNO2/c1-5-2-3-6(8)7(4-5)9(10)11/h2-4H,1H3",
        "InChIKey": null,
        "Canonical SMILES": "O=N(=O)C1=CC(=CC=C1Br)C",
        "Molecular Formula": "C<sub>7</sub>H<sub>6</sub>BrNO<sub>2</sub>",
        "Molecular Mass": "216.03",
        "Boiling Point": "147-148 °C @ Press: 13 Torr",
        "Melting Point": "30.2-31.2 °C"
    }
}