{
    "cas_no": "94-25-7",
    "key_name": "Butyl 4-aminobenzoate",
    "cn_name": "4-氨基苯甲酸丁酯;对氨基苯甲酸丁酯;",
    "alternate_name": "Benzoic acid, 4-amino-, butyl ester;Benzoic acid, <em>p</em>-amino-, butyl ester;Butamben;Butesin;Butoform;Butyl Keloform;Planoform;Scuroform;Scuroforme;Butyl <em>p</em>-aminobenzoate;Butyl 4-aminobenzoate;<em>n</em>-Butyl <em>p</em>-aminobenzoate;<em>p</em>-Aminobenzoic acid butyl ester;4-(Butoxycarbonyl)aniline;Butylcaine;Butesine;<em>p</em>-Aminobenzoic acid <em>n</em>-butyl ester;<em>n</em>-Butyl 4-aminobenzoate;Butsein;NSC 128464;Butambene;4-Aminobenzoic acid butyl ester;Hemoride",
    "duplicated_cas_no": "",
    "SMILES": "C(OCCCC)(=O)C1=CC=C(N)C=C1",
    "meta_data": {
        "InChI": "InChI=1S/C11H15NO2/c1-2-3-8-14-11(13)9-4-6-10(12)7-5-9/h4-7H,2-3,8,12H2,1H3",
        "InChIKey": null,
        "Canonical SMILES": "O=C(OCCCC)C1=CC=C(N)C=C1",
        "Molecular Formula": "C<sub>11</sub>H<sub>15</sub>NO<sub>2</sub>",
        "Molecular Mass": "193.24",
        "Boiling Point": "173-174 °C @ Press: 8 Torr",
        "Melting Point": "58 °C"
    }
}