{
    "cas_no": "21535-44-4",
    "key_name": "6-(Chloromethyl)-11<em>H</em>-dibenz[<em>b</em>,<em>e</em>]azepine",
    "cn_name": "6-氯甲基吗吩烷啶;",
    "alternate_name": "11<em>H</em>-Dibenz[<em>b</em>,<em>e</em>]azepine, 6-(chloromethyl)-;Morphanthridine, 6-(chloromethyl)-;6-(Chloromethyl)-11<em>H</em>-dibenz[<em>b</em>,<em>e</em>]azepine;6-Chloromethylmorphanthridine",
    "duplicated_cas_no": "",
    "SMILES": "C(Cl)C=1C=2C(CC=3C(N1)=CC=CC3)=CC=CC2",
    "meta_data": {
        "InChI": "InChI=1S/C15H12ClN/c16-10-15-13-7-3-1-5-11(13)9-12-6-2-4-8-14(12)17-15/h1-8H,9-10H2",
        "InChIKey": null,
        "Canonical SMILES": "ClCC1=NC=2C=CC=CC2CC=3C=CC=CC13",
        "Molecular Formula": "C<sub>15</sub>H<sub>12</sub>ClN",
        "Molecular Mass": "241.72",
        "Melting Point": "136-137 °C"
    }
}