{
    "cas_no": "1932-03-2",
    "key_name": "1-(2-Chloroethyl)piperidine",
    "cn_name": "1-(2-氯乙基)哌啶;N-(2-氯乙基)哌啶;",
    "alternate_name": "Piperidine, 1-(2-chloroethyl)-;1-(2-Chloroethyl)piperidine;<em>N</em>-(β-Chloroethyl)piperidine;<em>N</em>-(2-Chloroethyl)piperidine;SKF 191;2-Piperidinoethyl chloride;2-(1-Piperidyl)ethyl chloride;β-Piperidinoethyl chloride;1-Chloro-2-piperidinoethane;<em>N</em>-(2-Chlorethyl)piperidine;1-Piperidino-2-chloroethane;1-(β-Chloroethyl)piperidine;2-(Piperidin-1-yl)ethyl chloride;1-(3-Chloroethyl)piperidine;2-Piperidino-1-chloroethane;2-Chloroethyl piperidine",
    "duplicated_cas_no": "",
    "SMILES": "C(CCl)N1CCCCC1",
    "meta_data": {
        "InChI": "InChI=1S/C7H14ClN/c8-4-7-9-5-2-1-3-6-9/h1-7H2",
        "InChIKey": null,
        "Canonical SMILES": "ClCCN1CCCCC1",
        "Molecular Formula": "C<sub>7</sub>H<sub>14</sub>ClN",
        "Molecular Mass": "147.65",
        "Boiling Point": "47 °C @ Press: 1 Torr",
        "Melting Point": "229-230 °C"
    }
}