{
    "cas_no": "466-77-3",
    "key_name": "Erythraline",
    "cn_name": "对甲氧基肉桂酸辛酯;对甲氧基苯乙烯酸-2-乙基己基酯;乙基己基甲氧基苯乙烯酸;",
    "alternate_name": "Erythrinan, 1,2,6,7-tetradehydro-3-methoxy-15,16-[methylenebis(oxy)]-, (3β)-;Erythraline;1<em>H</em>-[1,3]Dioxolo[4,5-<em>g</em>]indolo[7a,1-<em>a</em>]isoquinoline, erythrinan deriv.;(3β)-1,2,6,7-Tetradehydro-3-methoxy-15,16-[methylenebis(oxy)]erythrinan;(+)-Erythraline;Erythralin",
    "duplicated_cas_no": "13168-60-0;47180-78-9",
    "SMILES": "O(C)[C@@H]1C[C@]23C=4C(=CC5=C(C4)OCO5)CCN2CC=C3C=C1",
    "meta_data": {
        "InChI": "InChI=1S/C18H19NO3/c1-20-14-3-2-13-5-7-19-6-4-12-8-16-17(22-11-21-16)9-15(12)18(13,19)10-14/h2-3,5,8-9,14H,4,6-7,10-11H2,1H3/t14-,18-/m0/s1",
        "InChIKey": null,
        "Canonical SMILES": "O1C=2C=C3C(=CC2OC1)C45C(C=CC(OC)C4)=CCN5CC3",
        "Molecular Formula": "C<sub>18</sub>H<sub>19</sub>NO<sub>3</sub>",
        "Molecular Mass": "297.35",
        "Melting Point": "106-107 °C"
    }
}