{
    "cas_no": "5910-87-2",
    "key_name": "(<em>E</em>,<em>E</em>)-2,4-Nonadienal",
    "cn_name": "(E,E)-2,4-壬二烯醛;反,反-2,4-壬二烯醛;",
    "alternate_name": "2,4-Nonadienal, (2<em>E</em>,4<em>E</em>)-;2,4-Nonadienal, (<em>E</em>,<em>E</em>)-;(2<em>E</em>,4<em>E</em>)-2,4-Nonadienal;<em>trans</em>-2,<em>trans</em>-4-Nonadienal;<em>trans</em>,<em>trans</em>-2,4-Nonadienal;(<em>E</em>,<em>E</em>)-2,4-Nonadien-1-al;(<em>E</em>,<em>E</em>)-2,4-Nonadienal;(2<em>E</em>,4<em>E</em>)-Nona-2,4-dienal;(2<em>E</em>,4<em>E</em>)-Nonadienal;(2<em>E</em>,4<em>E</em>)-2,4-Nonadien-1-al;(E,E)-2,4-Nonadienal",
    "duplicated_cas_no": "",
    "SMILES": "C(=C/C=C/C=O)\\CCCC",
    "meta_data": {
        "InChI": "InChI=1S/C9H14O/c1-2-3-4-5-6-7-8-9-10/h5-9H,2-4H2,1H3/b6-5+,8-7+",
        "InChIKey": null,
        "Canonical SMILES": "O=CC=CC=CCCCC",
        "Molecular Formula": "C<sub>9</sub>H<sub>14</sub>O",
        "Molecular Mass": "138.21",
        "Boiling Point": "75 °C @ Press: 3 Torr"
    }
}