{
    "cas_no": "589-34-4",
    "key_name": "3-Methylhexane",
    "cn_name": "3-甲基己烷;",
    "alternate_name": "Hexane, 3-methyl-;3-Methylhexane;2-Ethylpentane;NSC 73937;(±)-3-Methylhexane",
    "duplicated_cas_no": "116502-45-5",
    "SMILES": "C(CCC)(CC)C",
    "meta_data": {
        "InChI": "InChI=1S/C7H16/c1-4-6-7(3)5-2/h7H,4-6H2,1-3H3",
        "InChIKey": null,
        "Canonical SMILES": "CCCC(C)CC",
        "Molecular Formula": "C<sub>7</sub>H<sub>16</sub>",
        "Molecular Mass": "100.20",
        "Boiling Point": "91 °C",
        "Melting Point": "-119 °C",
        "Density": "0.684 g/cm³ @ Temp: 19 °C"
    }
}