{
    "cas_no": "6575-10-6",
    "key_name": "2-Chloro-6-methoxybenzonitrile",
    "cn_name": null,
    "alternate_name": "Benzonitrile, 2-chloro-6-methoxy-;<em>o</em>-Anisonitrile, 6-chloro-;2-Chloro-6-methoxybenzonitrile;6-Chloro-2-methoxybenzonitrile;6-Chloro-<em>o</em>-anisonitrile;2-Methoxy-6-chlorobenzonitrile",
    "duplicated_cas_no": "",
    "SMILES": "O(C)C1=C(C#N)C(Cl)=CC=C1",
    "meta_data": {
        "InChI": "InChI=1S/C8H6ClNO/c1-11-8-4-2-3-7(9)6(8)5-10/h2-4H,1H3",
        "InChIKey": null,
        "Canonical SMILES": "N#CC=1C(Cl)=CC=CC1OC",
        "Molecular Formula": "C<sub>8</sub>H<sub>6</sub>ClNO",
        "Molecular Mass": "167.59",
        "Melting Point": "114 °C"
    }
}