{
    "cas_no": "79603-03-5",
    "key_name": "4-Bromo-2-nitrobenzonitrile",
    "cn_name": null,
    "alternate_name": "Benzonitrile, 4-bromo-2-nitro-;4-Bromo-2-nitrobenzonitrile;NSC 158356",
    "duplicated_cas_no": "",
    "SMILES": "N(=O)(=O)C1=C(C#N)C=CC(Br)=C1",
    "meta_data": {
        "InChI": "InChI=1S/C7H3BrN2O2/c8-6-2-1-5(4-9)7(3-6)10(11)12/h1-3H",
        "InChIKey": null,
        "Canonical SMILES": "N#CC1=CC=C(Br)C=C1N(=O)=O",
        "Molecular Formula": "C<sub>7</sub>H<sub>3</sub>BrN<sub>2</sub>O<sub>2</sub>",
        "Molecular Mass": "227.01",
        "Melting Point": "98-99 °C"
    }
}