{
    "cas_no": "544-92-3",
    "key_name": "Cuprous cyanide",
    "cn_name": "氰化亚铜;",
    "alternate_name": "Copper cyanide (Cu(CN));Cupricin;Cuprous cyanide;Copper cyanide;Copper(I) cyanide;Copper monocyanide;Copper(1+) cyanide",
    "duplicated_cas_no": "13092-67-6;2648583-05-3",
    "SMILES": "C([Cu])#N",
    "meta_data": {
        "InChI": "InChI=1S/CN.Cu/c1-2;",
        "InChIKey": null,
        "Canonical SMILES": "N#C[Cu]",
        "Molecular Formula": "CCuN",
        "Molecular Mass": "",
        "Melting Point": "474 °C",
        "Density": "2.9 g/cm³"
    }
}