{
    "cas_no": "13482-23-0",
    "key_name": "4-Methoxycyclohexanone",
    "cn_name": "对甲氧基环己酮;对甲氧基环己酮;4-甲氧基环己酮;",
    "alternate_name": "Cyclohexanone, 4-methoxy-;4-Methoxycyclohexanone;<em>p</em>-Methoxycyclohexanone;4-Methoxycyclohexan-1-one",
    "duplicated_cas_no": "",
    "SMILES": "O(C)C1CCC(=O)CC1",
    "meta_data": {
        "InChI": "InChI=1S/C7H12O2/c1-9-7-4-2-6(8)3-5-7/h7H,2-5H2,1H3",
        "InChIKey": null,
        "Canonical SMILES": "O=C1CCC(OC)CC1",
        "Molecular Formula": "C<sub>7</sub>H<sub>12</sub>O<sub>2</sub>",
        "Molecular Mass": "128.17",
        "Boiling Point": "72 °C @ Press: 9 Torr"
    }
}