{
    "cas_no": "5746-04-3",
    "key_name": "<em>N</em><sup>ε</sup>-(Carboxymethyl)lysine",
    "cn_name": null,
    "alternate_name": "<span class=\"text-smallcaps\">L</span>-Lysine, <em>N</em><sup>6</sup>-(carboxymethyl)-;Lysine, <em>N</em><sup>6</sup>-(carboxymethyl)-, <span class=\"text-smallcaps\">L</span>-;<em>N</em><sup>6</sup>-(Carboxymethyl)-<span class=\"text-smallcaps\">L</span>-lysine;<em>N</em><sup>6</sup>-(Carboxymethyl)lysine;ε-(Carboxymethyl)lysine;<em>N</em><sup>ε</sup>-(Carboxymethyl)lysine;(2S)-2-Amino-6-(carboxymethylamino)hexanoic acid",
    "duplicated_cas_no": "",
    "SMILES": "C([C@@H](C(O)=O)N)CCCNCC(O)=O",
    "meta_data": {
        "InChI": "InChI=1S/C8H16N2O4/c9-6(8(13)14)3-1-2-4-10-5-7(11)12/h6,10H,1-5,9H2,(H,11,12)(H,13,14)/t6-/m0/s1",
        "InChIKey": null,
        "Canonical SMILES": "O=C(O)CNCCCCC(N)C(=O)O",
        "Molecular Formula": "C<sub>8</sub>H<sub>16</sub>N<sub>2</sub>O<sub>4</sub>",
        "Molecular Mass": "204.22",
        "Melting Point": "176-180 °C (decomp)"
    }
}