{
    "cas_no": "220497-66-5",
    "key_name": "(1<em>S</em>,3<em>R</em>)-3-[[(9<em>H</em>-Fluoren-9-ylmethoxy)carbonyl]amino]cyclopentanecarboxylic acid",
    "cn_name": "(+)-(1S,3R)-N-FMOC-3-环亮氨酸;",
    "alternate_name": "Cyclopentanecarboxylic acid, 3-[[(9<em>H</em>-fluoren-9-ylmethoxy)carbonyl]amino]-, (1<em>S</em>,3<em>R</em>)-;(1<em>S</em>,3<em>R</em>)-3-[[(9<em>H</em>-Fluoren-9-ylmethoxy)carbonyl]amino]cyclopentanecarboxylic acid",
    "duplicated_cas_no": "",
    "SMILES": "C(OC(N[C@H]1C[C@@H](C(O)=O)CC1)=O)C2C=3C(C=4C2=CC=CC4)=CC=CC3",
    "meta_data": {
        "InChI": "InChI=1S/C21H21NO4/c23-20(24)13-9-10-14(11-13)22-21(25)26-12-19-17-7-3-1-5-15(17)16-6-2-4-8-18(16)19/h1-8,13-14,19H,9-12H2,(H,22,25)(H,23,24)/t13-,14+/m0/s1",
        "InChIKey": null,
        "Canonical SMILES": "O=C(OCC1C=2C=CC=CC2C=3C=CC=CC31)NC4CCC(C(=O)O)C4",
        "Molecular Formula": "C<sub>21</sub>H<sub>21</sub>NO<sub>4</sub>",
        "Molecular Mass": "351.40",
        "Melting Point": "166-168 °C"
    }
}