{
    "cas_no": "3347-22-6",
    "key_name": "Dithianon",
    "cn_name": "二氰蒽醌;二噻农;2,3-二氰基-1,4-二硫代蒽醌;",
    "alternate_name": "Naphtho[2,3-<em>b</em>]-1,4-dithiin-2,3-dicarbonitrile, 5,10-dihydro-5,10-dioxo-;Naphtho[2,3-<em>b</em>]-<em>p</em>-dithiin-2,3-dicarbonitrile, 5,10-dihydro-5,10-dioxo-;5,10-Dihydro-5,10-dioxonaphtho[2,3-<em>b</em>]-1,4-dithiin-2,3-dicarbonitrile;MV 119A;Dithianon;Stauffer MV 119A;Delan WP;Delan (fungicide);2,3-Dicyano-1,4-dithiaanthraquinone;2,3-Dinitrilo-1,4-dithiaanthraquinone;Dithianone;Thynon;1,4-Dithiaanthraquinone-2,3-dicarbonitrile;2,3-Dinitrilo-1,4-dithia-9,10-anthraquinone;Delan;Delan-Col;Delan 75SC;NSC 218452;Delan WG;Delan 700WG",
    "duplicated_cas_no": "95591-89-2;11096-35-8;1135443-33-2",
    "SMILES": "O=C1C2=C(C(=O)C=3C1=CC=CC3)SC(C#N)=C(C#N)S2",
    "meta_data": {
        "InChI": "InChI=1S/C14H4N2O2S2/c15-5-9-10(6-16)20-14-12(18)8-4-2-1-3-7(8)11(17)13(14)19-9/h1-4H",
        "InChIKey": null,
        "Canonical SMILES": "N#CC=1SC=2C(=O)C=3C=CC=CC3C(=O)C2SC1C#N",
        "Molecular Formula": "C<sub>14</sub>H<sub>4</sub>N<sub>2</sub>O<sub>2</sub>S<sub>2</sub>",
        "Molecular Mass": "296.32",
        "Melting Point": "220 °C",
        "Density": "1.55 g/cm³ @ Temp: 18 °C"
    }
}