{
    "cas_no": "23135-22-0",
    "key_name": "Oxamyl",
    "cn_name": "杀线威;O-甲基氨基甲酰基-1-二甲氨基甲酰-1-甲硫基甲醛肟;",
    "alternate_name": "Ethanimidothioic acid, 2-(dimethylamino)-<em>N</em>-[[(methylamino)carbonyl]oxy]-2-oxo-, methyl ester;Oxamimidic acid, <em>N</em>′,<em>N</em>′-dimethyl-<em>N</em>-[(methylcarbamoyl)oxy]-1-thio-, methyl ester;Carbamic acid, methyl-, <em>O</em>-[[[(dimethylcarbamoyl)methylthio]methylene]amino] deriv.;Du Pont 1410;DPX 1410;Vydate;Oxamyl;Oxamyl (pesticide);Thioxamyl;DPX 1410L;Vydate L;Vydate G;Vydate CLV;NSC 379588;Methyl 2-(dimethylamino)-<em>N</em>-[(methylcarbamoyl)oxy]-2-oxoethanimidothioate",
    "duplicated_cas_no": "",
    "SMILES": "C(C(N(C)C)=O)(=NOC(NC)=O)SC",
    "meta_data": {
        "InChI": "InChI=1S/C7H13N3O3S/c1-8-7(12)13-9-5(14-4)6(11)10(2)3/h1-4H3,(H,8,12)",
        "InChIKey": null,
        "Canonical SMILES": "O=C(ON=C(SC)C(=O)N(C)C)NC",
        "Molecular Formula": "C<sub>7</sub>H<sub>13</sub>N<sub>3</sub>O<sub>3</sub>S",
        "Molecular Mass": "219.26",
        "Melting Point": "101 °C",
        "Density": "0.97 g/cm³ @ Temp: 25 °C"
    }
}