{
    "cas_no": "928-80-3",
    "key_name": "3-Decanone",
    "cn_name": "3-癸酮;",
    "alternate_name": "3-Decanone;Ethyl heptyl ketone",
    "duplicated_cas_no": "",
    "SMILES": "C(CC(CC)=O)CCCCC",
    "meta_data": {
        "InChI": "InChI=1S/C10H20O/c1-3-5-6-7-8-9-10(11)4-2/h3-9H2,1-2H3",
        "InChIKey": null,
        "Canonical SMILES": "O=C(CC)CCCCCCC",
        "Molecular Formula": "C<sub>10</sub>H<sub>20</sub>O",
        "Molecular Mass": "156.27",
        "Boiling Point": "203 °C",
        "Melting Point": "2.5 °C"
    }
}