{
    "cas_no": "89942-59-6",
    "key_name": "2-Acetyl-3-pyridinecarboxylic acid",
    "cn_name": null,
    "alternate_name": "3-Pyridinecarboxylic acid, 2-acetyl-;Nicotinic acid, 2-acetyl-;2-Acetyl-3-pyridinecarboxylic acid;2-Acetylpyridine-3-carboxylic acid;2-Acetylnicotinic acid",
    "duplicated_cas_no": "",
    "SMILES": "C(O)(=O)C1=C(C(C)=O)N=CC=C1",
    "meta_data": {
        "InChI": "InChI=1S/C8H7NO3/c1-5(10)7-6(8(11)12)3-2-4-9-7/h2-4H,1H3,(H,11,12)",
        "InChIKey": null,
        "Canonical SMILES": "O=C(O)C1=CC=CN=C1C(=O)C",
        "Molecular Formula": "C<sub>8</sub>H<sub>7</sub>NO<sub>3</sub>",
        "Molecular Mass": "165.15",
        "Melting Point": "126-127 °C"
    }
}