{
    "cas_no": "163520-33-0",
    "key_name": "3-Isoxazolecarboxylic acid, 4,5-dihydro-5,5-diphenyl-, ethyl ester",
    "cn_name": "双苯恶唑酸;",
    "alternate_name": "3-Isoxazolecarboxylic acid, 4,5-dihydro-5,5-diphenyl-, ethyl ester;Isoxadifen-ethyl;HOE 122006;AE-F 122006;Isoxadifen ethyl ester",
    "duplicated_cas_no": "",
    "SMILES": "C(OCC)(=O)C=1CC(ON1)(C2=CC=CC=C2)C3=CC=CC=C3",
    "meta_data": {
        "InChI": "InChI=1S/C18H17NO3/c1-2-21-17(20)16-13-18(22-19-16,14-9-5-3-6-10-14)15-11-7-4-8-12-15/h3-12H,2,13H2,1H3",
        "InChIKey": null,
        "Canonical SMILES": "O=C(OCC)C1=NOC(C=2C=CC=CC2)(C=3C=CC=CC3)C1",
        "Molecular Formula": "C<sub>18</sub>H<sub>17</sub>NO<sub>3</sub>",
        "Molecular Mass": "295.33",
        "Melting Point": "87-88 °C"
    }
}