{
    "cas_no": "54-91-1",
    "key_name": "Pipobroman",
    "cn_name": null,
    "alternate_name": "1-Propanone, 1,1′-(1,4-piperazinediyl)bis[3-bromo-;Piperazine, 1,4-bis(3-bromopropionyl)-;Piperazine, 1,4-bis(3-bromo-1-oxopropyl)-;1,1′-(1,4-Piperazinediyl)bis[3-bromo-1-propanone];NSC-25154;1,4-Bis(3-bromopropionyl)piperazine;<em>N</em>,<em>N</em>′-Bis(3-bromopropionyl)piperazine;Pipobroman;Vercyte;A 1803;Amedel;1,1′-(Piperazine-1,4-diyl)bis(3-bromopropan-1-one);1,4-Di(3-bromopropionyl)piperazine;3-Bromo-1-[4-(3-bromopropanoyl)piperazin-1-yl]propan-1-one;MeSH ID: D010885",
    "duplicated_cas_no": "",
    "SMILES": "C(CCBr)(=O)N1CCN(C(CCBr)=O)CC1",
    "meta_data": {
        "InChI": "InChI=1S/C10H16Br2N2O2/c11-3-1-9(15)13-5-7-14(8-6-13)10(16)2-4-12/h1-8H2",
        "InChIKey": null,
        "Canonical SMILES": "O=C(N1CCN(C(=O)CCBr)CC1)CCBr",
        "Molecular Formula": "C<sub>10</sub>H<sub>16</sub>Br<sub>2</sub>N<sub>2</sub>O<sub>2</sub>",
        "Molecular Mass": "356.05",
        "Melting Point": "106-107 °C"
    }
}