{
    "cas_no": "53-39-4",
    "key_name": "17β-Hydroxy-17-methyl-2-oxa-5α-androstan-3-one",
    "cn_name": "氧甲氢龙;氧雄龙;",
    "alternate_name": "Cyclopenta[5,6]naphtho[1,2-<em>c</em>]pyran-2(1<em>H</em>)-one, tetradecahydro-7-hydroxy-4a,6a,7-trimethyl-, (4a<em>S</em>,4b<em>S</em>,6a<em>S</em>,7<em>S</em>,9a<em>S</em>,9b<em>R</em>,11a<em>S</em>)-;2-Oxa-5α-androstan-3-one, 17β-hydroxy-17-methyl-;2-Oxaandrostan-3-one, 17-hydroxy-17-methyl-, (5α,17β)-;(4a<em>S</em>,4b<em>S</em>,6a<em>S</em>,7<em>S</em>,9a<em>S</em>,9b<em>R</em>,11a<em>S</em>)-Tetradecahydro-7-hydroxy-4a,6a,7-trimethylcyclopenta[5,6]naphtho[1,2-<em>c</em>]pyran-2(1<em>H</em>)-one;SC 11585;Anavar;17-Methyl-2-oxa-5α-androstan-17β-ol-3-one;Oxandrolone;17β-Hydroxy-17-methyl-2-oxa-5α-androstan-3-one;17β-Hydroxy-17α-methyl-2-oxa-5α-androstan-3-one;Vasorome;8075CB;Protivar;Oxandrin;Oxandren;Lonavar;NSC 67068;Provitar;(17β)-Oxandrolone;MeSH ID: D010074",
    "duplicated_cas_no": "",
    "SMILES": "C[C@@]12[C@@]3([C@]([C@]4([C@](C)(CC3)[C@@](C)(O)CC4)[H])(CC[C@]1(CC(=O)OC2)[H])[H])[H]",
    "meta_data": {
        "InChI": "InChI=1S/C19H30O3/c1-17-11-22-16(20)10-12(17)4-5-13-14(17)6-8-18(2)15(13)7-9-19(18,3)21/h12-15,21H,4-11H2,1-3H3/t12-,13+,14-,15-,17-,18-,19-/m0/s1",
        "InChIKey": null,
        "Canonical SMILES": "O=C1OCC2(C)C(C1)CCC3C2CCC4(C)C3CCC4(O)C",
        "Molecular Formula": "C<sub>19</sub>H<sub>30</sub>O<sub>3</sub>",
        "Molecular Mass": "306.44",
        "Melting Point": "235-238 °C"
    }
}