{
    "cas_no": "13429-83-9",
    "key_name": "(1<em>S</em>,4<em>R</em>)-4,7,7-Trimethyl-3-oxo-2-oxabicyclo[2.2.1]heptane-1-carboxylic acid",
    "cn_name": "(1S)-(-)-樟脑烷酸;4,7,7-三甲基-3-氧代-2-氧杂双环[2.2.1]庚烷-1-甲酸;",
    "alternate_name": "2-Oxabicyclo[2.2.1]heptane-1-carboxylic acid, 4,7,7-trimethyl-3-oxo-, (1<em>S</em>,4<em>R</em>)-;2-Oxabicyclo[2.2.1]heptane-1-carboxylic acid, 4,7,7-trimethyl-3-oxo-, (1<em>S</em>)-;(1<em>S</em>,4<em>R</em>)-4,7,7-Trimethyl-3-oxo-2-oxabicyclo[2.2.1]heptane-1-carboxylic acid;(-)-Camphanic acid;Camphanic acid;ω-Camphanic acid, (-)-;(-)-ω-Camphanic acid;(1<em>S</em>,4<em>R</em>)-(-)-Camphanic acid;(1<em>S</em>)-Camphanic acid;(1<em>S</em>)-(-)-Camphanic acid;(1<em>S</em>,4<em>R</em>)-ω-Camphanic acid;(<em>S</em>)-Camphanic acid;(1R,4R)-4,7,7-Trimethyl-3-oxo-2-oxabicyclo[2.2.1]heptane-1-carboxylic acid",
    "duplicated_cas_no": "10333-97-8;1212470-97-7;1276015-95-2;1888474-17-6;1933693-87-8;2117730-04-6;2180113-20-4;2649107-77-5",
    "SMILES": "C(O)(=O)[C@]12C(C)(C)[C@](C)(C(=O)O1)CC2",
    "meta_data": {
        "InChI": "InChI=1S/C10H14O4/c1-8(2)9(3)4-5-10(8,6(11)12)14-7(9)13/h4-5H2,1-3H3,(H,11,12)/t9-,10+/m0/s1",
        "InChIKey": null,
        "Canonical SMILES": "O=C(O)C12OC(=O)C(C)(CC1)C2(C)C",
        "Molecular Formula": "C<sub>10</sub>H<sub>14</sub>O<sub>4</sub>",
        "Molecular Mass": "198.22",
        "Boiling Point": "108-110 °C @ Press: 13 Torr",
        "Melting Point": "199-200 °C"
    }
}