{
    "cas_no": "78-09-1",
    "key_name": "Tetraethyl orthocarbonate",
    "cn_name": "原碳酸四乙酯;",
    "alternate_name": "Ethane, 1,1′,1′′,1′′′-[methanetetrayltetrakis(oxy)]tetrakis-;Orthocarbonic acid, tetraethyl ester;1,1′,1′′,1′′′-[Methanetetrayltetrakis(oxy)]tetrakis[ethane];Tetraethoxymethane;Tetraethyl orthocarbonate;NSC 28574;(Triethoxymethoxy)ethane",
    "duplicated_cas_no": "",
    "SMILES": "C(OCC)(OCC)(OCC)OCC",
    "meta_data": {
        "InChI": "InChI=1S/C9H20O4/c1-5-10-9(11-6-2,12-7-3)13-8-4/h5-8H2,1-4H3",
        "InChIKey": null,
        "Canonical SMILES": "O(CC)C(OCC)(OCC)OCC",
        "Molecular Formula": "C<sub>9</sub>H<sub>20</sub>O<sub>4</sub>",
        "Molecular Mass": "192.25",
        "Boiling Point": "159.5 °C",
        "Melting Point": "222 °C"
    }
}