{
    "cas_no": "34246-96-3",
    "key_name": "1-Methoxypyrene",
    "cn_name": null,
    "alternate_name": "Pyrene, 1-methoxy-;1-Methoxypyrene;3-Methoxypyrene;1-Hydroxypyrene methyl ether",
    "duplicated_cas_no": "",
    "SMILES": "O(C)C1=C2C3=C4C(C=C2)=CC=CC4=CC=C3C=C1",
    "meta_data": {
        "InChI": "InChI=1S/C17H12O/c1-18-15-10-8-13-6-5-11-3-2-4-12-7-9-14(15)17(13)16(11)12/h2-10H,1H3",
        "InChIKey": null,
        "Canonical SMILES": "O(C1=CC=C2C=CC3=CC=CC=4C=CC1=C2C34)C",
        "Molecular Formula": "C<sub>17</sub>H<sub>12</sub>O",
        "Molecular Mass": "232.28",
        "Melting Point": "128-129 °C"
    }
}