{
    "cas_no": "1192-62-7",
    "key_name": "2-Acetylfuran",
    "cn_name": "2-乙酰基呋喃;",
    "alternate_name": "Ethanone, 1-(2-furanyl)-;Ketone, 2-furyl methyl;1-(2-Furanyl)ethanone;Methyl 2-furyl ketone;2-Furyl methyl ketone;2-Furylethanone;2-Acetylfuran;1-(2-Furyl)ethanone;α-Acetylfuran;NSC 4665;NSC 49133;1-(Furan-2-yl)ethan-1-one",
    "duplicated_cas_no": "80145-44-4;1906904-64-0",
    "SMILES": "C(C)(=O)C1=CC=CO1",
    "meta_data": {
        "InChI": "InChI=1S/C6H6O2/c1-5(7)6-3-2-4-8-6/h2-4H,1H3",
        "InChIKey": null,
        "Canonical SMILES": "O=C(C=1OC=CC1)C",
        "Molecular Formula": "C<sub>6</sub>H<sub>6</sub>O<sub>2</sub>",
        "Molecular Mass": "110.11",
        "Boiling Point": "175 °C",
        "Melting Point": "33 °C",
        "Density": "1.09750061035156 g/cm³ @ Temp: 20 °C"
    }
}