{
    "cas_no": "110-96-3",
    "key_name": "Diisobutylamine",
    "cn_name": "二异丁胺;",
    "alternate_name": "1-Propanamine, 2-methyl-<em>N</em>-(2-methylpropyl)-;Diisobutylamine;2-Methyl-<em>N</em>-(2-methylpropyl)-1-propanamine;<em>N</em>,<em>N</em>-Bis(2-methylpropyl)amine;Di-<em>iso</em>-butylamine",
    "duplicated_cas_no": "",
    "SMILES": "N(CC(C)C)CC(C)C",
    "meta_data": {
        "InChI": "InChI=1S/C8H19N/c1-7(2)5-9-6-8(3)4/h7-9H,5-6H2,1-4H3",
        "InChIKey": null,
        "Canonical SMILES": "N(CC(C)C)CC(C)C",
        "Molecular Formula": "C<sub>8</sub>H<sub>19</sub>N",
        "Molecular Mass": "129.24",
        "Boiling Point": "139.6 °C",
        "Melting Point": "-73.5 °C",
        "Density": "0.745 g/cm³ @ Temp: 20 °C"
    }
}