{
    "cas_no": "2524-37-0",
    "key_name": "Ethyl orsellinate",
    "cn_name": "2,4-二羟基-6-苯甲基甲酸乙酯;",
    "alternate_name": "Benzoic acid, 2,4-dihydroxy-6-methyl-, ethyl ester;β-Resorcylic acid, 6-methyl-, ethyl ester;Ethyl orsellinate;Ethyl 2,4-dihydroxy-6-methylbenzoate;NSC 149781;2,4-Dihydroxy-6-methylbenzoic acid ethyl ester",
    "duplicated_cas_no": "",
    "SMILES": "C(OCC)(=O)C1=C(C)C=C(O)C=C1O",
    "meta_data": {
        "InChI": "InChI=1S/C10H12O4/c1-3-14-10(13)9-6(2)4-7(11)5-8(9)12/h4-5,11-12H,3H2,1-2H3",
        "InChIKey": null,
        "Canonical SMILES": "O=C(OCC)C=1C(O)=CC(O)=CC1C",
        "Molecular Formula": "C<sub>10</sub>H<sub>12</sub>O<sub>4</sub>",
        "Molecular Mass": "196.20",
        "Melting Point": "132 °C"
    }
}