{
    "cas_no": "1845-25-6",
    "key_name": "(1<em>S</em>,2<em>S</em>,5<em>S</em>)-2-Hydroxy-2,6,6-trimethylbicyclo[3.1.1]heptan-3-one",
    "cn_name": "(1S,2S,5S)-(-)-2-羟基-3-蒎烷酮;(1S,2S,5S)-2-羟基-2,6,6-三甲基-双环[3.1.1]庚-3-酮;",
    "alternate_name": "Bicyclo[3.1.1]heptan-3-one, 2-hydroxy-2,6,6-trimethyl-, (1<em>S</em>,2<em>S</em>,5<em>S</em>)-;3-Pinanone, 2-hydroxy-, (1<em>S</em>,2<em>S</em>,5<em>S</em>)-(-)-;Bicyclo[3.1.1]heptan-3-one, 2-hydroxy-2,6,6-trimethyl-, [1<em>S</em>-(1α,2α,5α)]-;(1<em>S</em>,2<em>S</em>,5<em>S</em>)-2-Hydroxy-2,6,6-trimethylbicyclo[3.1.1]heptan-3-one;(-)-2α-Hydroxypinocamphone;(-)-2-Hydroxy-3-pinanone;(1<em>S</em>,2<em>S</em>,5<em>S</em>)-2-Hydroxypinan-3-one;2α-Hydroxypinan-3-one",
    "duplicated_cas_no": "",
    "SMILES": "CC1(C)[C@@]2(C[C@]1(CC(=O)[C@@]2(C)O)[H])[H]",
    "meta_data": {
        "InChI": "InChI=1S/C10H16O2/c1-9(2)6-4-7(9)10(3,12)8(11)5-6/h6-7,12H,4-5H2,1-3H3/t6-,7-,10-/m0/s1",
        "InChIKey": null,
        "Canonical SMILES": "O=C1CC2CC(C1(O)C)C2(C)C",
        "Molecular Formula": "C<sub>10</sub>H<sub>16</sub>O<sub>2</sub>",
        "Molecular Mass": "168.23",
        "Melting Point": "39-40 °C"
    }
}