{
    "cas_no": "619-01-2",
    "key_name": "1,6-Dihydrocarveol",
    "cn_name": null,
    "alternate_name": "Cyclohexanol, 2-methyl-5-(1-methylethenyl)-;<em>p</em>-Menth-8-en-2-ol;2-Methyl-5-(1-methylethenyl)cyclohexanol;1,6-Dihydrocarveol;6-Methyl-3-isopropenylcyclohexanol;8-<em>p</em>-Menthen-2-ol;2-Methyl-5-(prop-1-en-2-yl)cyclohexan-1-ol;2-Methyl-5-(prop-1-en-2-yl)cyclohexanol",
    "duplicated_cas_no": "",
    "SMILES": "C(C)(=C)C1CC(O)C(C)CC1",
    "meta_data": {
        "InChI": "InChI=1S/C10H18O/c1-7(2)9-5-4-8(3)10(11)6-9/h8-11H,1,4-6H2,2-3H3",
        "InChIKey": null,
        "Canonical SMILES": "OC1CC(C(=C)C)CCC1C",
        "Molecular Formula": "C<sub>10</sub>H<sub>18</sub>O",
        "Molecular Mass": "154.25",
        "Boiling Point": "224.5 °C",
        "Density": "0.9223 g/cm³ @ Temp: 16 °C"
    }
}