{
    "cas_no": "5826-73-3",
    "key_name": "Bicyclo[2.2.1]hept-5-ene-2,3-dicarboxylic acid, 2,3-dimethyl ester",
    "cn_name": "5-降冰片烯-2,3-二羧酸二甲酯;",
    "alternate_name": "Bicyclo[2.2.1]hept-5-ene-2,3-dicarboxylic acid, 2,3-dimethyl ester;5-Norbornene-2,3-dicarboxylic acid, dimethyl ester;Bicyclo[2.2.1]hept-5-ene-2,3-dicarboxylic acid, dimethyl ester;Dimethyl 5-norbornene-2,3-dicarboxylate;NSC 7326;Dimethyl norbornene-2,3-dicarboxylate;2,3-Dimethyl bicyclo[2.2.1]hept-5-ene-2,3-dicarboxylate",
    "duplicated_cas_no": "117-24-8;1326256-62-5",
    "SMILES": "C(OC)(=O)C1C(C(OC)=O)C2CC1C=C2",
    "meta_data": {
        "InChI": "InChI=1S/C11H14O4/c1-14-10(12)8-6-3-4-7(5-6)9(8)11(13)15-2/h3-4,6-9H,5H2,1-2H3",
        "InChIKey": null,
        "Canonical SMILES": "O=C(OC)C1C2C=CC(C2)C1C(=O)OC",
        "Molecular Formula": "C<sub>11</sub>H<sub>14</sub>O<sub>4</sub>",
        "Molecular Mass": "210.23",
        "Boiling Point": "135 °C @ Press: 7 mmHg",
        "Melting Point": "37.5-38.0 °C"
    }
}