{
    "cas_no": "425-88-7",
    "key_name": "1-Methoxy-1,1,2,2-tetrafluoroethane",
    "cn_name": "1,1,2,2-四氟乙基甲醚;1,1,2,2-四氟乙基甲基醚;",
    "alternate_name": "Ethane, 1,1,2,2-tetrafluoro-1-methoxy-;Ether, methyl 1,1,2,2-tetrafluoroethyl;1,1,2,2-Tetrafluoro-1-methoxyethane;1,1,2,2-Tetrafluoroethyl methyl ether;Methyl 1,1,2,2-tetrafluoroethyl ether;1-Methoxy-1,1,2,2-tetrafluoroethane;HFE 254pc;HFE 254cb2;HFE 254;HFE 254CB1",
    "duplicated_cas_no": "",
    "SMILES": "C(C(F)F)(OC)(F)F",
    "meta_data": {
        "InChI": "InChI=1S/C3H4F4O/c1-8-3(6,7)2(4)5/h2H,1H3",
        "InChIKey": null,
        "Canonical SMILES": "FC(F)C(F)(F)OC",
        "Molecular Formula": "C<sub>3</sub>H<sub>4</sub>F<sub>4</sub>O",
        "Molecular Mass": "132.06",
        "Boiling Point": "36 °C"
    }
}