{
    "cas_no": "2491-18-1",
    "key_name": "<span class=\"text-smallcaps\">L</span>-Methionine, methyl ester, hydrochloride",
    "cn_name": "L-蛋氨酸甲酯盐酸盐;",
    "alternate_name": "<span class=\"text-smallcaps\">L</span>-Methionine, methyl ester, hydrochloride (1:1);<span class=\"text-smallcaps\">L</span>-Methionine, methyl ester, hydrochloride;Methionine, methyl ester, hydrochloride, <span class=\"text-smallcaps\">L</span>-;Methionine methyl ester hydrochloride;Methyl (<em>S</em>)-methioninate hydrochloride;(<em>S</em>)-Methionine methyl ester hydrochloride;Methyl <span class=\"text-smallcaps\">L</span>-methioninate hydrochloride;NSC 522231;(<em>S</em>)-2-Amino-4-methylsulfanylbutanoic acid methyl ester hydrochloride;<span class=\"text-smallcaps\">L</span>-Met-OMe·HCl",
    "duplicated_cas_no": "",
    "SMILES": "[C@@H](C(OC)=O)(CCSC)N.Cl",
    "meta_data": {
        "InChI": "InChI=1S/C6H13NO2S.ClH/c1-9-6(8)5(7)3-4-10-2;/h5H,3-4,7H2,1-2H3;1H/t5-;/m0./s1",
        "InChIKey": null,
        "Canonical SMILES": "Cl.O=C(OC)C(N)CCSC",
        "Molecular Formula": "C<sub>6</sub>H<sub>13</sub>NO<sub>2</sub>S.ClH",
        "Molecular Mass": "",
        "Melting Point": "159-161 °C"
    }
}