{
    "cas_no": "5103-71-9",
    "key_name": "<em>cis</em>-Chlordane",
    "cn_name": null,
    "alternate_name": "4,7-Methano-1<em>H</em>-indene, 1,2,4,5,6,7,8,8-octachloro-2,3,3a,4,7,7a-hexahydro-, (1<em>R</em>,2<em>S</em>,3a<em>S</em>,4<em>S</em>,7<em>R</em>,7a<em>S</em>)-<em>rel</em>-;4,7-Methanoindan, 1α,2α,4β,5,6,7β,8,8-octachloro-3aα,4,7,7aα-tetrahydro-;4,7-Methano-1<em>H</em>-indene, 1,2,4,5,6,7,8,8-octachloro-2,3,3a,4,7,7a-hexahydro-, (1α,2α,3aα,4β,7β,7aα)-;<em>rel</em>-(1<em>R</em>,2<em>S</em>,3a<em>S</em>,4<em>S</em>,7<em>R</em>,7a<em>S</em>)-1,2,4,5,6,7,8,8-Octachloro-2,3,3a,4,7,7a-hexahydro-4,7-methano-1<em>H</em>-indene;Chlordan, <em>cis</em>-;<em>cis</em>-Chlordane;α-Chlordan;α-Chlordane;<em>cis</em>-1,2,4,5,6,7,8,8-Octachloro-3a,4,7,7a-tetrahydro-4,7-<em>endo</em>-methanoindan;<em>cis</em>-Chlordan;(±)-<em>cis</em>-Chlordane;<em>cis</em>-α-Chlordane",
    "duplicated_cas_no": "22212-52-8;26703-86-6;28140-46-7;152322-29-7",
    "SMILES": "Cl[C@]12[C@@]3([C@]([C@](Cl)(C1(Cl)Cl)C(Cl)=C2Cl)([C@@H](Cl)[C@@H](Cl)C3)[H])[H]",
    "meta_data": {
        "InChI": "InChI=1/C10H6Cl8/c11-3-1-2-4(5(3)12)9(16)7(14)6(13)8(2,15)10(9,17)18/h2-5H,1H2/t2-,3-,4-,5-,8-,9+/s2",
        "InChIKey": null,
        "Canonical SMILES": "ClC1=C(Cl)C2(Cl)C3C(Cl)C(Cl)CC3C1(Cl)C2(Cl)Cl",
        "Molecular Formula": "C<sub>10</sub>H<sub>6</sub>Cl<sub>8</sub>",
        "Molecular Mass": "409.78",
        "Melting Point": "133 °C"
    }
}