{
    "cas_no": "117860-56-7",
    "key_name": "5-Methyl 1-methyl-1<em>H</em>-pyrazole-3,5-dicarboxylate",
    "cn_name": null,
    "alternate_name": "1<em>H</em>-Pyrazole-3,5-dicarboxylic acid, 1-methyl-, 5-methyl ester;5-Methyl 1-methyl-1<em>H</em>-pyrazole-3,5-dicarboxylate;5-(Methoxycarbonyl)-1-methyl-1<em>H</em>-pyrazole-3-carboxylic acid",
    "duplicated_cas_no": "",
    "SMILES": "C(OC)(=O)C1=CC(C(O)=O)=NN1C",
    "meta_data": {
        "InChI": "InChI=1S/C7H8N2O4/c1-9-5(7(12)13-2)3-4(8-9)6(10)11/h3H,1-2H3,(H,10,11)",
        "InChIKey": null,
        "Canonical SMILES": "O=C(O)C1=NN(C(=C1)C(=O)OC)C",
        "Molecular Formula": "C<sub>7</sub>H<sub>8</sub>N<sub>2</sub>O<sub>4</sub>",
        "Molecular Mass": "184.15",
        "Melting Point": "172-172.5 °C"
    }
}