{
    "cas_no": "594-10-5",
    "key_name": "Trimethylantimony",
    "cn_name": "高纯三甲基锑;高纯三甲基锑;",
    "alternate_name": "Stibine, trimethyl-;Trimethylstibine;Trimethylantimony",
    "duplicated_cas_no": "",
    "SMILES": "[Sb](C)(C)C",
    "meta_data": {
        "InChI": "InChI=1S/3CH3.Sb/h3*1H3;",
        "InChIKey": null,
        "Canonical SMILES": "[Sb](C)(C)C",
        "Molecular Formula": "C<sub>3</sub>H<sub>9</sub>Sb",
        "Molecular Mass": "",
        "Boiling Point": "80.6 °C",
        "Melting Point": "-62 °C"
    }
}