{
    "cas_no": "82-49-5",
    "key_name": "9,10-Dihydro-9,10-dioxo-1-anthracenesulfonic acid",
    "cn_name": "1-蒽醌磺酸;",
    "alternate_name": "1-Anthracenesulfonic acid, 9,10-dihydro-9,10-dioxo-;1-Anthraquinonesulfonic acid;9,10-Dihydro-9,10-dioxo-1-anthracenesulfonic acid;α-Anthraquinonesulfonic acid;1-Sulfoanthraquinone;α-Sulfoanthraquinone;9,10-Anthraquinone-1-sulfonic acid",
    "duplicated_cas_no": "",
    "SMILES": "S(=O)(=O)(O)C1=C2C(C(=O)C=3C(C2=O)=CC=CC3)=CC=C1",
    "meta_data": {
        "InChI": "InChI=1S/C14H8O5S/c15-13-8-4-1-2-5-9(8)14(16)12-10(13)6-3-7-11(12)20(17,18)19/h1-7H,(H,17,18,19)",
        "InChIKey": null,
        "Canonical SMILES": "O=C1C=2C=CC=CC2C(=O)C=3C1=CC=CC3S(=O)(=O)O",
        "Molecular Formula": "C<sub>14</sub>H<sub>8</sub>O<sub>5</sub>S",
        "Molecular Mass": "288.28",
        "Melting Point": "210-211 °C"
    }
}