{
    "cas_no": "52-52-8",
    "key_name": "1-Aminocyclopentanecarboxylic acid",
    "cn_name": "环亮氨酸;1-氨基-1-环戊烷羧酸;",
    "alternate_name": "Cyclopentanecarboxylic acid, 1-amino-;1-Aminocyclopentanecarboxylic acid;NSC 1026;1-Aminocyclopentane-1-carboxylic acid;Cycloleucine;ACPC;WR 14997;Cycloleucin;1-Amino-1-carboxycyclopentane;NSC 112194;NSC 112195;NSC 112197;1-Azaniumylcyclopentane-1-carboxylate",
    "duplicated_cas_no": "15313-85-6",
    "SMILES": "C(O)(=O)C1(N)CCCC1",
    "meta_data": {
        "InChI": "InChI=1S/C6H11NO2/c7-6(5(8)9)3-1-2-4-6/h1-4,7H2,(H,8,9)",
        "InChIKey": null,
        "Canonical SMILES": "O=C(O)C1(N)CCCC1",
        "Molecular Formula": "C<sub>6</sub>H<sub>11</sub>NO<sub>2</sub>",
        "Molecular Mass": "129.16",
        "Melting Point": "330 °C (decomp)"
    }
}