{
    "cas_no": "2489-13-6",
    "key_name": "Glycyl-<span class=\"text-smallcaps\">L</span>-histidine",
    "cn_name": null,
    "alternate_name": "<span class=\"text-smallcaps\">L</span>-Histidine, glycyl-;Histidine, <em>N</em>-glycyl-, <span class=\"text-smallcaps\">L</span>-;<span class=\"text-smallcaps\">L</span>-Histidine, <em>N</em>-glycyl-;Histidine, <em>N</em>-glycyl-;Glycyl-<span class=\"text-smallcaps\">L</span>-histidine;Glycylhistidine;<em>N</em>-Glycylhistidine;50: PN: WO03052099 PAGE: 85 claimed protein;141: PN: WO2011146121 PAGE: 116 claimed sequence;(2S)-2-[(2-Aminoacetyl)amino]-3-(1<em>H</em>-imidazol-5-yl)propanoic acid;(2S)-2-(2-Aminoacetamido)-3-(1<em>H</em>-imidazol-4-yl)propanoic acid;5: PN: WO2020009548 SEQID: 5 claimed protein",
    "duplicated_cas_no": "25799-75-1",
    "SMILES": "[C@@H](CC1=CN=CN1)(NC(CN)=O)C(O)=O",
    "meta_data": {
        "InChI": "InChI=1S/C8H12N4O3/c9-2-7(13)12-6(8(14)15)1-5-3-10-4-11-5/h3-4,6H,1-2,9H2,(H,10,11)(H,12,13)(H,14,15)/t6-/m0/s1",
        "InChIKey": null,
        "Canonical SMILES": "O=C(O)C(NC(=O)CN)CC1=CN=CN1",
        "Molecular Formula": "C<sub>8</sub>H<sub>12</sub>N<sub>4</sub>O<sub>3</sub>",
        "Molecular Mass": "212.21",
        "Melting Point": "130-155 °C"
    }
}