{
    "cas_no": "871231-44-6",
    "key_name": "Borate(1-), trifluoro(3-formylphenyl)-, potassium (1:1), (<em>T</em>-4)-",
    "cn_name": null,
    "alternate_name": "Borate(1-), trifluoro(3-formylphenyl)-, potassium (1:1), (<em>T</em>-4)-;Borate(1-), trifluoro(3-formylphenyl)-, potassium, (<em>T</em>-4)-;Potassium trifluoro(3-formylphenyl)borate",
    "duplicated_cas_no": "",
    "SMILES": "[B+3]([F-])([F-])([F-])[C-]=1C=C(C=O)C=CC1.[K+]",
    "meta_data": {
        "InChI": "InChI=1S/C7H5BF3O.K/c9-8(10,11)7-3-1-2-6(4-7)5-12;/h1-5H;/q-1;+1",
        "InChIKey": null,
        "Canonical SMILES": "[K+].O=CC1=CC=C[C-](=C1)[B+3]([F-])([F-])[F-]",
        "Molecular Formula": "C<sub>7</sub>H<sub>5</sub>BF<sub>3</sub>O.K",
        "Molecular Mass": "",
        "Melting Point": "196 °C"
    }
}