{
    "cas_no": "14206-69-0",
    "key_name": "Benzoic acid, 3-amino-5-hydroxy-, hydrochloride (1:1)",
    "cn_name": "3-氨基-5-羟基苯甲酸盐酸盐;",
    "alternate_name": "Benzoic acid, 3-amino-5-hydroxy-, hydrochloride (1:1);Benzoic acid, 3-amino-5-hydroxy-, hydrochloride;3-Amino-5-hydroxybenzoic acid hydrochloride",
    "duplicated_cas_no": "",
    "SMILES": "C(O)(=O)C1=CC(N)=CC(O)=C1.Cl",
    "meta_data": {
        "InChI": "InChI=1S/C7H7NO3.ClH/c8-5-1-4(7(10)11)2-6(9)3-5;/h1-3,9H,8H2,(H,10,11);1H",
        "InChIKey": null,
        "Canonical SMILES": "Cl.O=C(O)C=1C=C(O)C=C(N)C1",
        "Molecular Formula": "C<sub>7</sub>H<sub>7</sub>NO<sub>3</sub>.ClH",
        "Molecular Mass": "",
        "Melting Point": "269-272 °C (decomp)"
    }
}