{
    "cas_no": "2976-75-2",
    "key_name": "Naphthoxyacetic acid",
    "cn_name": "1-萘氧基乙酸;",
    "alternate_name": "Acetic acid, 2-(1-naphthalenyloxy)-;Acetic acid, (1-naphthyloxy)-;Acetic acid, (1-naphthalenyloxy)-;Acetic acid, 1-naphthoxy-;2-(1-Naphthalenyloxy)acetic acid;α-Naphthoxyacetic acid;1-Naphthoxyacetic acid;α-Naphthyloxyacetic acid;1-Naphthyloxyacetic acid;1-Naphthalenyloxyacetic acid;2-(1-Naphthyloxy)acetic acid;2-(1-Naphthoxy)acetic acid;Naphthalene 1-carboxymethyl ether;NSC 9847;2-[(Naphthalen-1-yl)oxy]acetic acid;Naphthoxyacetic acid",
    "duplicated_cas_no": "",
    "SMILES": "O(CC(O)=O)C=1C2=C(C=CC1)C=CC=C2",
    "meta_data": {
        "InChI": "InChI=1S/C12H10O3/c13-12(14)8-15-11-7-3-5-9-4-1-2-6-10(9)11/h1-7H,8H2,(H,13,14)",
        "InChIKey": null,
        "Canonical SMILES": "O=C(O)COC1=CC=CC=2C=CC=CC12",
        "Molecular Formula": "C<sub>12</sub>H<sub>10</sub>O<sub>3</sub>",
        "Molecular Mass": "202.21",
        "Melting Point": "195-197 °C"
    }
}