{
    "cas_no": "20893-30-5",
    "key_name": "2-Thiopheneacetonitrile",
    "cn_name": "2-噻吩乙腈;",
    "alternate_name": "2-Thiopheneacetonitrile;2-Thienylacetonitrile;2-(Cyanomethyl)thiophene;2-(Thien-2-yl)acetonitrile;2-(Thiophen-2-yl)acetonitrile",
    "duplicated_cas_no": "",
    "SMILES": "C(C#N)C1=CC=CS1",
    "meta_data": {
        "InChI": "InChI=1S/C6H5NS/c7-4-3-6-2-1-5-8-6/h1-2,5H,3H2",
        "InChIKey": null,
        "Canonical SMILES": "N#CCC=1SC=CC1",
        "Molecular Formula": "C<sub>6</sub>H<sub>5</sub>NS",
        "Molecular Mass": "123.18",
        "Boiling Point": "115-120 °C",
        "Melting Point": "50-51 °C",
        "Density": "1.153 g/cm³ @ Temp: 25 °C"
    }
}