{
    "cas_no": "78-04-6",
    "key_name": "Dibutyltin maleate",
    "cn_name": "二丁基马来酸锡;马来酸二丁基锡;顺丁烯二酸二丁基锡;DBTM;",
    "alternate_name": "1,3,2-Dioxastannepin-4,7-dione, 2,2-dibutyl-;Dibutyltin maleate;2,2-Dibutyl-1,3,2-dioxastannepin-4,7-dione;Dibutyl(maleoyldioxy)tin;Advastab DBTM;Advastab T 290;Nuodex V 1525;Irgastab T 290;Stavinor 1300SN;Dibutylstannylene maleate;Advastab T 340;Markure UL 2;KS 4B;TVS-MA 300;Mark BT 31;Irgastab T 4;Irgastab T 150;Stann RC 40F;Stanclere T 157;Stavinor Sn 1300;TVS-N 2000E;TN 3J;MA 300A;Mark 275;Stann RC 71A;OTS 227;Stann BM;Stann BM(N);KK 3206;Mark BT 58;TN 1000;KS 4C;TVS 86SP5;Stanclere TM;Stann RC 5R;TVS-NK 220B;BM(N);T 501;T 501 (tin compound);ADK Stab BT 53;ADK Stab BT 31;Stann MMS 22A;Tinstab BM 360;Stann RC 90C;Mark 2289;N 2000E;Plastistab 2808;KS 100A;Neostann U 870;Di-<em>n</em>-butyltin maleate;ZT 203;Therm-Chek 837",
    "duplicated_cas_no": "5883-36-3;15465-08-4;24432-06-2;32296-03-0;59948-27-5;68794-06-9;75139-28-5;76162-34-0;132641-04-4;153422-76-5",
    "SMILES": "C(CCC)[Sn]1(CCCC)OC(=O)C=CC(=O)O1",
    "meta_data": {
        "InChI": "InChI=1S/C4H4O4.2C4H9.Sn/c5-3(6)1-2-4(7)8;2*1-3-4-2;/h1-2H,(H,5,6)(H,7,8);2*1,3-4H2,2H3;/q;;;+2/p-2",
        "InChIKey": null,
        "Canonical SMILES": "O=C1O[Sn](OC(=O)C=C1)(CCCC)CCCC",
        "Molecular Formula": "C<sub>12</sub>H<sub>20</sub>O<sub>4</sub>Sn",
        "Molecular Mass": "346.99",
        "Melting Point": "125-135 °C"
    }
}