{
    "cas_no": "22948-06-7",
    "key_name": "<em>p</em>-Tritylaniline",
    "cn_name": "4-三苯代甲基苯胺;",
    "alternate_name": "Benzenamine, 4-(triphenylmethyl)-;<em>p</em>-Toluidine, α,α,α-triphenyl-;4-(Triphenylmethyl)benzenamine;Triphenyl(<em>p</em>-aminophenyl)methane;<em>p</em>-Aminotetraphenylmethane;<em>p</em>-Tritylaniline;4-(Triphenylmethyl)aniline;1-Amino-4-(triphenylmethyl)benzene;α,α,α-Triphenyl-<em>p</em>-toluidine;4-(Trityl)aniline;NSC 2085;4-(Aminophenyl)triphenylmethane",
    "duplicated_cas_no": "",
    "SMILES": "C(C1=CC=C(N)C=C1)(C2=CC=CC=C2)(C3=CC=CC=C3)C4=CC=CC=C4",
    "meta_data": {
        "InChI": "InChI=1S/C25H21N/c26-24-18-16-23(17-19-24)25(20-10-4-1-5-11-20,21-12-6-2-7-13-21)22-14-8-3-9-15-22/h1-19H,26H2",
        "InChIKey": null,
        "Canonical SMILES": "NC1=CC=C(C=C1)C(C=2C=CC=CC2)(C=3C=CC=CC3)C=4C=CC=CC4",
        "Molecular Formula": "C<sub>25</sub>H<sub>21</sub>N",
        "Molecular Mass": "335.44",
        "Melting Point": "250 °C"
    }
}