{
    "cas_no": "57356-49-7",
    "key_name": "<em>N</em>-Phenyl-2-pyrimidinamine",
    "cn_name": null,
    "alternate_name": "2-Pyrimidinamine, <em>N</em>-phenyl-;Pyrimidine, 2-anilino-;<em>N</em>-Phenyl-2-pyrimidinamine;2-Anilinopyrimidine;2-(Phenylamino)pyrimidine",
    "duplicated_cas_no": "",
    "SMILES": "N(C1=CC=CC=C1)C=2N=CC=CN2",
    "meta_data": {
        "InChI": "InChI=1S/C10H9N3/c1-2-5-9(6-3-1)13-10-11-7-4-8-12-10/h1-8H,(H,11,12,13)",
        "InChIKey": null,
        "Canonical SMILES": "N=1C=CC=NC1NC=2C=CC=CC2",
        "Molecular Formula": "C<sub>10</sub>H<sub>9</sub>N<sub>3</sub>",
        "Molecular Mass": "171.20",
        "Melting Point": "116 °C"
    }
}