{
    "cas_no": "36727-29-4",
    "key_name": "3,5,5-Trimethylhexanoyl chloride",
    "cn_name": "3,5,5-三甲基己酰氯;异壬酰氯;",
    "alternate_name": "Hexanoyl chloride, 3,5,5-trimethyl-;3,5,5-Trimethylhexanoyl chloride;3,5,5-Trimethylhexanoic acid chloride;Isononanoic acid chloride;2,4,4-Trimethylhexanoyl chloride",
    "duplicated_cas_no": "",
    "SMILES": "C(C(C)(C)C)C(CC(Cl)=O)C",
    "meta_data": {
        "InChI": "InChI=1S/C9H17ClO/c1-7(5-8(10)11)6-9(2,3)4/h7H,5-6H2,1-4H3",
        "InChIKey": null,
        "Canonical SMILES": "O=C(Cl)CC(C)CC(C)(C)C",
        "Molecular Formula": "C<sub>9</sub>H<sub>17</sub>ClO",
        "Molecular Mass": "176.68",
        "Boiling Point": "188-190 °C @ Press: 760 Torr"
    }
}