{
    "cas_no": "124172-53-8",
    "key_name": "Uvinul 4050H",
    "cn_name": null,
    "alternate_name": "Formamide, <em>N</em>,<em>N</em>′-1,6-hexanediylbis[<em>N</em>-(2,2,6,6-tetramethyl-4-piperidinyl)-;<em>N</em>,<em>N</em>′-1,6-Hexanediylbis[<em>N</em>-(2,2,6,6-tetramethyl-4-piperidinyl)formamide];<em>N</em>,<em>N</em>′-Bis(2,2,6,6-tetramethylpiperidin-4-yl)-<em>N</em>,<em>N</em>′-diformyl-1,6-diaminohexane;Uvinul 4050H;<em>N</em>,<em>N</em>′-Bis(formyl)-<em>N</em>,<em>N</em>′-bis(2,2,6,6-tetramethyl-4-piperidyl)-1,6-hexanediamine;Uvinul FK 4145;4050H;1,6-Hexamethylenebis[<em>N</em>-formyl-<em>N</em>-(2,2,6,6-tetramethylpiperidin-4-yl)amine];<em>N</em>,<em>N</em>′-Bis(formyl)-<em>N</em>,<em>N</em>′-bis(2,2,6,6-tetramethyl-4-piperidyl)-1,6-hexamethylenediamine;<em>N</em>,<em>N</em>′-Bisformyl-<em>N</em>,<em>N</em>′-bis(2,2,6,6-tetramethyl-4-piperidyl)hexamethylenediamine;<em>N</em>,<em>N</em>′-Bis(2,2,6,6-tetramethyl-4-piperidyl)-<em>N</em>,<em>N</em>′-diformylhexamethylenediamine;Uvinul 4050;Uvinul 4050FF;UV 4050;Uvinyl 4050FF",
    "duplicated_cas_no": "182016-11-1;1431863-84-1",
    "SMILES": "N(CCCCCCN(C=O)C1CC(C)(C)NC(C)(C)C1)(C=O)C2CC(C)(C)NC(C)(C)C2",
    "meta_data": {
        "InChI": "InChI=1S/C26H50N4O2/c1-23(2)15-21(16-24(3,4)27-23)29(19-31)13-11-9-10-12-14-30(20-32)22-17-25(5,6)28-26(7,8)18-22/h19-22,27-28H,9-18H2,1-8H3",
        "InChIKey": null,
        "Canonical SMILES": "O=CN(CCCCCCN(C=O)C1CC(NC(C)(C)C1)(C)C)C2CC(NC(C)(C)C2)(C)C",
        "Molecular Formula": "C<sub>26</sub>H<sub>50</sub>N<sub>4</sub>O<sub>2</sub>",
        "Molecular Mass": "450.70",
        "Melting Point": "155 °C"
    }
}