{
    "cas_no": "1583-67-1",
    "key_name": "3-Fluorophthalic acid",
    "cn_name": "3-氟邻苯二甲酸;",
    "alternate_name": "1,2-Benzenedicarboxylic acid, 3-fluoro-;Phthalic acid, 3-fluoro-;3-Fluoro-1,2-benzenedicarboxylic acid;3-Fluorophthalic acid;NSC 402999",
    "duplicated_cas_no": "",
    "SMILES": "C(O)(=O)C1=C(C(O)=O)C=CC=C1F",
    "meta_data": {
        "InChI": "InChI=1S/C8H5FO4/c9-5-3-1-2-4(7(10)11)6(5)8(12)13/h1-3H,(H,10,11)(H,12,13)",
        "InChIKey": null,
        "Canonical SMILES": "O=C(O)C=1C=CC=C(F)C1C(=O)O",
        "Molecular Formula": "C<sub>8</sub>H<sub>5</sub>FO<sub>4</sub>",
        "Molecular Mass": "184.12",
        "Melting Point": "167-168 °C"
    }
}