{
    "cas_no": "100-56-1",
    "key_name": "Phenylmercury chloride",
    "cn_name": "氯苯汞;氯化苯汞;苯基氯化汞;",
    "alternate_name": "Mercury, chlorophenyl-;Phenylmercury chloride;Chlorophenylmercury;Merfazin;Mersolite 2;Phenyl chloromercury;PMC;Benzene, (chloromercurio)-;Phenylmercuric chloride;Hexason;Agrenal;Agronal;Mercutal;PMC (fungicide);Phenylmercury(II) chloride;Monophenylmercury chloride",
    "duplicated_cas_no": "",
    "SMILES": "[Hg](Cl)C1=CC=CC=C1",
    "meta_data": {
        "InChI": "InChI=1S/C6H5.ClH.Hg/c1-2-4-6-5-3-1;;/h1-5H;1H;/q;;+1/p-1",
        "InChIKey": null,
        "Canonical SMILES": "Cl[Hg]C=1C=CC=CC1",
        "Molecular Formula": "C<sub>6</sub>H<sub>5</sub>ClHg",
        "Molecular Mass": "",
        "Melting Point": "250-252 °C"
    }
}