{
    "cas_no": "3180-81-2",
    "key_name": "Disperse Red 13",
    "cn_name": "分散枣红B;分散枣红B;",
    "alternate_name": "Ethanol, 2-[[4-[2-(2-chloro-4-nitrophenyl)diazenyl]phenyl]ethylamino]-;Dispersol Fast Crimson B;C.I. Disperse Red 13;Ethanol, 2-[[4-[(2-chloro-4-nitrophenyl)azo]phenyl]ethylamino]-;2-[[4-[2-(2-Chloro-4-nitrophenyl)diazenyl]phenyl]ethylamino]ethanol;C.I. 11115;Acetamine Rubine B;Acetate Fast Rubine B;Acetoquinone Light Rubine BLZ;Amacel Rubine B;Celliton Discharging Rubine BL;Celliton Fast Rubine B;Celliton Fast Rubine BA-CF;Cibacet Rubine BS;Cibacet Rubine R;Cilla Fast Rubine B;Diacelliton Fast Blue Bordeaux B;Diacelliton Fast Bordeaux B;Durgacet Rubine B;Fenacet Fast Rubine B;Interchem Acetate Bordeaux B;Kayalon Fast Rubine B;KCA Acetate Crimson B;Microsetile Rubine 2B;Nyloquinone Bordeaux B;Perliton Rubine 4B;Serisol Fast Crimson BD;Setacyl Red 2B;Silotras Rubine TSB;Supracet Fast Crimson B;Celliton Ruby B;Palacet Scarlet B;4-Nitro-2-chloro-4′-[ethyl(2-hydroxyethyl)amino]azobenzene;Disperse Bordeaux S;Disperse Red 13;Dispersol Rubine B;Celliton Rubine B;Serisol Fast Crimson BD 150;Intrasperse Bordeaux BA",
    "duplicated_cas_no": "",
    "SMILES": "N(CCO)(CC)C1=CC=C(N=NC2=C(Cl)C=C(N(=O)=O)C=C2)C=C1",
    "meta_data": {
        "InChI": "InChI=1S/C16H17ClN4O3/c1-2-20(9-10-22)13-5-3-12(4-6-13)18-19-16-8-7-14(21(23)24)11-15(16)17/h3-8,11,22H,2,9-10H2,1H3",
        "InChIKey": null,
        "Canonical SMILES": "O=N(=O)C1=CC=C(N=NC2=CC=C(C=C2)N(CC)CCO)C(Cl)=C1",
        "Molecular Formula": "C<sub>16</sub>H<sub>17</sub>ClN<sub>4</sub>O<sub>3</sub>",
        "Molecular Mass": "348.78",
        "Melting Point": "133 °C"
    }
}