{
    "cas_no": "576-44-3",
    "key_name": "Kanosamine",
    "cn_name": null,
    "alternate_name": "<span class=\"text-smallcaps\">D</span>-Glucose, 3-amino-3-deoxy-;Kanosamine;3-Amino-3-deoxy-<span class=\"text-smallcaps\">D</span>-glucose;<span class=\"text-smallcaps\">D</span>-Kanosamine;3-Deoxy-3-amino-<span class=\"text-smallcaps\">D</span>-glucose;Antibiotic B, from <em>Bacillus</em><em>cereus</em>",
    "duplicated_cas_no": "492-56-8;156798-76-4",
    "SMILES": "[C@H]([C@@H]([C@@H](CO)O)O)([C@H](C=O)O)N",
    "meta_data": {
        "InChI": "InChI=1S/C6H13NO5/c7-5(3(10)1-8)6(12)4(11)2-9/h1,3-6,9-12H,2,7H2/t3-,4+,5+,6+/m0/s1",
        "InChIKey": null,
        "Canonical SMILES": "O=CC(O)C(N)C(O)C(O)CO",
        "Molecular Formula": "C<sub>6</sub>H<sub>13</sub>NO<sub>5</sub>",
        "Molecular Mass": "179.17",
        "Melting Point": "131.5-137 °C (decomp)"
    }
}