{
    "cas_no": "638-16-4",
    "key_name": "Trithiocyanuric acid",
    "cn_name": "三聚硫氰酸;硫代三聚氰酸;三巯基均三嗪;硫化剂TMT;",
    "alternate_name": "1,3,5-Triazine-2,4,6(1<em>H</em>,3<em>H</em>,5<em>H</em>)-trithione;<em>s</em>-Triazine-2,4,6-trithiol;<em>s</em>-Triazine-2,4,6(1<em>H</em>,3<em>H</em>,5<em>H</em>)-trithione;Cyanuric acid, trithio-;Trithiocyanuric acid;2,4,6-Trimercapto-<em>s</em>-triazine;Thiocyanuric acid;2,4,6-Triazinetrithiol;1,3,5-Trimercaptotriazine;Trimercaptocyanuric acid;2,4,6-Trimercapto-1,3,5-triazine;<em>s</em>-Triazinetrithiol;1,3,5-Triazine-2,4,6-trithiol;Zisnet F;OF 100;TCY-MBA;Trimercapto-<em>s</em>-triazine;2,4,6-Trithiol-1,3,5-triazine;2,4,6-Trithio-5-azauracil;1,3,5-Triazine-2,4,6-trithione;Trimercaptotriazine;Zisnet FPT;Zeonet A;TCY;Nocceler TCA;2,4,6-Trimercaptotriazine;NSC 62071;NSC 65480;Rhenogran Triazine TM 70ECO;TM 70ECO;Actor TSH;Rhenogran Triazine TM 70AEMD;Taicros TMT;Tatcross TMT;TSH;Curekind TCY;TMT;1,3,5-Triazinane-2,4,6-trithione;Zisnet F-ET",
    "duplicated_cas_no": "2060-82-4;907189-62-2",
    "SMILES": "S=C1NC(=S)NC(=S)N1",
    "meta_data": {
        "InChI": "InChI=1S/C3H3N3S3/c7-1-4-2(8)6-3(9)5-1/h(H3,4,5,6,7,8,9)",
        "InChIKey": null,
        "Canonical SMILES": "S=C1NC(=S)NC(=S)N1",
        "Molecular Formula": "C<sub>3</sub>H<sub>3</sub>N<sub>3</sub>S<sub>3</sub>",
        "Molecular Mass": "177.27",
        "Melting Point": "&gt;300 °C",
        "Density": "1.3500 g/cm³ @ Temp: 20 °C"
    }
}