{
    "cas_no": "43083-14-3",
    "key_name": "2-Chloro-6-phenyl-3-pyridinecarbonitrile",
    "cn_name": "2-氯-6-苯基烟腈;",
    "alternate_name": "3-Pyridinecarbonitrile, 2-chloro-6-phenyl-;2-Chloro-6-phenyl-3-pyridinecarbonitrile;2-Chloro-3-cyano-6-phenylpyridine;NSC 363888;2-Chloro-6-phenylnicotinonitrile",
    "duplicated_cas_no": "",
    "SMILES": "ClC1=NC(=CC=C1C#N)C2=CC=CC=C2",
    "meta_data": {
        "InChI": "InChI=1S/C12H7ClN2/c13-12-10(8-14)6-7-11(15-12)9-4-2-1-3-5-9/h1-7H",
        "InChIKey": null,
        "Canonical SMILES": "N#CC=1C=CC(=NC1Cl)C=2C=CC=CC2",
        "Molecular Formula": "C<sub>12</sub>H<sub>7</sub>ClN<sub>2</sub>",
        "Molecular Mass": "214.65",
        "Melting Point": "112-114 °C"
    }
}