{
    "cas_no": "19614-16-5",
    "key_name": "2-Bromothioanisole",
    "cn_name": "2-溴茴香硫醚;2-溴硫代苯甲醚;",
    "alternate_name": "Benzene, 1-bromo-2-(methylthio)-;Sulfide, <em>o</em>-bromophenyl methyl;1-Bromo-2-(methylthio)benzene;<em>o</em>-Bromophenyl methyl sulfide;<em>o</em>-Bromothioanisole;<em>o</em>-Bromo(methylthio)benzene;2-Bromothioanisole;2-(Methylthio)phenyl bromide;2-Bromophenyl methyl sulfide;Methyl <em>o</em>-bromophenyl sulfide;1-Bromo-2-methylthiobenzene;2-(Methylthio)bromobenzene;Methyl 2-bromophenyl sulfide;1-Bromo-2-methylsulfanylbenzene;(2-Bromophenyl)(methyl)sulfane",
    "duplicated_cas_no": "",
    "SMILES": "S(C)C1=C(Br)C=CC=C1",
    "meta_data": {
        "InChI": "InChI=1S/C7H7BrS/c1-9-7-5-3-2-4-6(7)8/h2-5H,1H3",
        "InChIKey": null,
        "Canonical SMILES": "BrC=1C=CC=CC1SC",
        "Molecular Formula": "C<sub>7</sub>H<sub>7</sub>BrS",
        "Molecular Mass": "203.10",
        "Boiling Point": "256 °C @ Press: 768 Torr",
        "Density": "1.5135 g/cm³ @ Temp: 16 °C"
    }
}