{
    "cas_no": "99799-10-7",
    "key_name": "3-Methoxycyclohexanecarboxylic acid",
    "cn_name": null,
    "alternate_name": "Cyclohexanecarboxylic acid, 3-methoxy-;3-Methoxycyclohexanecarboxylic acid;3-Methoxycyclohexane-1-carboxylic acid",
    "duplicated_cas_no": "",
    "SMILES": "C(O)(=O)C1CC(OC)CCC1",
    "meta_data": {
        "InChI": "InChI=1S/C8H14O3/c1-11-7-4-2-3-6(5-7)8(9)10/h6-7H,2-5H2,1H3,(H,9,10)",
        "InChIKey": null,
        "Canonical SMILES": "O=C(O)C1CCCC(OC)C1",
        "Molecular Formula": "C<sub>8</sub>H<sub>14</sub>O<sub>3</sub>",
        "Molecular Mass": "158.20",
        "Boiling Point": "140-142 °C @ Press: 5 Torr"
    }
}