{
    "cas_no": "25654-31-3",
    "key_name": "Cannabigerol",
    "cn_name": null,
    "alternate_name": "1,3-Benzenediol, 2-[(2<em>E</em>)-3,7-dimethyl-2,6-octadien-1-yl]-5-pentyl-;Resorcinol, 2-(3,7-dimethyl-2,6-octadienyl)-5-pentyl-, (<em>E</em>)-;1,3-Benzenediol, 2-(3,7-dimethyl-2,6-octadienyl)-5-pentyl-, (<em>E</em>)-;Cannabigerol;1,3-Benzenediol, 2-[(2<em>E</em>)-3,7-dimethyl-2,6-octadienyl]-5-pentyl-;2-[(2<em>E</em>)-3,7-Dimethyl-2,6-octadien-1-yl]-5-pentyl-1,3-benzenediol;CBG;2-((2<em>E</em>)-3,7-Dimethylocta-2,6-dienyl)-5-pentylbenzene-1,3-diol;(<em>E</em>)-2-(3,7-Dimethylocta-2,6-dien-1-yl)-5-pentylbenzene-1,3-diol;(E)-2-(3,7-Dimethylocta-2,6-dien-1-yl)-5-pentylbenzene-1,3-diol;EHP 102",
    "duplicated_cas_no": "2808-33-5;26645-67-0",
    "SMILES": "C(CCCC)C1=CC(O)=C(C/C=C(/CCC=C(C)C)\\C)C(O)=C1",
    "meta_data": {
        "InChI": "InChI=1S/C21H32O2/c1-5-6-7-11-18-14-20(22)19(21(23)15-18)13-12-17(4)10-8-9-16(2)3/h9,12,14-15,22-23H,5-8,10-11,13H2,1-4H3/b17-12+",
        "InChIKey": null,
        "Canonical SMILES": "OC=1C=C(C=C(O)C1CC=C(C)CCC=C(C)C)CCCCC",
        "Molecular Formula": "C<sub>21</sub>H<sub>32</sub>O<sub>2</sub>",
        "Molecular Mass": "316.48",
        "Melting Point": "49-50 °C"
    }
}