{
    "cas_no": "551-92-8",
    "key_name": "Dimetridazole",
    "cn_name": "二甲硝咪唑;迪美唑;滴咪唑;1,2-二甲基-5-硝基咪唑;",
    "alternate_name": "1<em>H</em>-Imidazole, 1,2-dimethyl-5-nitro-;Imidazole, 1,2-dimethyl-5-nitro-;1,2-Dimethyl-5-nitro-1<em>H</em>-imidazole;1,2-Dimethyl-5-nitroimidazole;Dimetridazole;Emtryl;5-Nitro-1,2-dimethylimidazole;Emtrylvet;Emtrymix;Dimetridazol;8595RP;Dimetronidazole;NSC 226253;Dimetrizadole;MeSH ID: D004131",
    "duplicated_cas_no": "8028-31-7",
    "SMILES": "N(=O)(=O)C=1N(C)C(C)=NC1",
    "meta_data": {
        "InChI": "InChI=1S/C5H7N3O2/c1-4-6-3-5(7(4)2)8(9)10/h3H,1-2H3",
        "InChIKey": null,
        "Canonical SMILES": "O=N(=O)C1=CN=C(N1C)C",
        "Molecular Formula": "C<sub>5</sub>H<sub>7</sub>N<sub>3</sub>O<sub>2</sub>",
        "Molecular Mass": "141.13",
        "Melting Point": "138.5 °C"
    }
}