{
    "cas_no": "5331-43-1",
    "key_name": "Phenylmethyl hydrazinecarboxylate",
    "cn_name": "肼基甲酸苄酯;",
    "alternate_name": "Hydrazinecarboxylic acid, phenylmethyl ester;Carbazic acid, benzyl ester;Phenylmethyl hydrazinecarboxylate;Benzyloxycarbonyl hydrazide;Benzyl carbazate;[(Benzyloxy)carbonyl]hydrazine;Carbobenzoxyhydrazide;Benzyl hydrazinocarboxylate;Carbobenzyloxyhydrazine;NSC 2287;Benzyl hydrazinecarboxylate;Hydrazincarboxylic acid benzyl ester;Hydrazinecarboxylic acid benzyl ester;<em>N</em>-(Benzyloxycarbonyl)hydrazine;Cbz-hydrazine",
    "duplicated_cas_no": "",
    "SMILES": "C(OC(NN)=O)C1=CC=CC=C1",
    "meta_data": {
        "InChI": "InChI=1S/C8H10N2O2/c9-10-8(11)12-6-7-4-2-1-3-5-7/h1-5H,6,9H2,(H,10,11)",
        "InChIKey": null,
        "Canonical SMILES": "O=C(OCC=1C=CC=CC1)NN",
        "Molecular Formula": "C<sub>8</sub>H<sub>10</sub>N<sub>2</sub>O<sub>2</sub>",
        "Molecular Mass": "166.18",
        "Melting Point": "69-70 °C"
    }
}