{
    "cas_no": "313-04-2",
    "key_name": "Desmosterol",
    "cn_name": null,
    "alternate_name": "Cholesta-5,24-dien-3-ol, (3β)-;Cholesta-5,24-dien-3β-ol;(3β)-Cholesta-5,24-dien-3-ol;24-Dehydrocholesterol;Desmosterol;24,25-Dehydrocholesterol;NSC 226126;OR 942 (Sterol);MeSH ID: D003897",
    "duplicated_cas_no": "",
    "SMILES": "C[C@@]12[C@]([C@]3([C@@]([C@]4(C)C(=CC3)C[C@@H](O)CC4)(CC1)[H])[H])(CC[C@@]2([C@@H](CCC=C(C)C)C)[H])[H]",
    "meta_data": {
        "InChI": "InChI=1S/C27H44O/c1-18(2)7-6-8-19(3)23-11-12-24-22-10-9-20-17-21(28)13-15-26(20,4)25(22)14-16-27(23,24)5/h7,9,19,21-25,28H,6,8,10-17H2,1-5H3/t19-,21+,22+,23-,24+,25+,26+,27-/m1/s1",
        "InChIKey": null,
        "Canonical SMILES": "OC1CC2=CCC3C(CCC4(C)C(CCC34)C(C)CCC=C(C)C)C2(C)CC1",
        "Molecular Formula": "C<sub>27</sub>H<sub>44</sub>O",
        "Molecular Mass": "384.64",
        "Melting Point": "121.5 °C"
    }
}