{
    "cas_no": "6960-22-1",
    "key_name": "6-Methylnicotinamide",
    "cn_name": "6-甲基烟酰胺;6-甲基烟酰胺;",
    "alternate_name": "3-Pyridinecarboxamide, 6-methyl-;Nicotinamide, 6-methyl-;6-Methyl-3-pyridinecarboxamide;6-Methylnicotinic acid amide;6-Methylnicotinamide;NSC 69797;6-Methylpyridine-3-carboxamide",
    "duplicated_cas_no": "",
    "SMILES": "C(N)(=O)C=1C=CC(C)=NC1",
    "meta_data": {
        "InChI": "InChI=1S/C7H8N2O/c1-5-2-3-6(4-9-5)7(8)10/h2-4H,1H3,(H2,8,10)",
        "InChIKey": null,
        "Canonical SMILES": "O=C(N)C1=CN=C(C=C1)C",
        "Molecular Formula": "C<sub>7</sub>H<sub>8</sub>N<sub>2</sub>O",
        "Molecular Mass": "136.15",
        "Melting Point": "196-198 °C"
    }
}