{
    "cas_no": "73576-32-6",
    "key_name": "2-Amino-6-(1-methylethyl)-4(3<em>H</em>)-pyrimidinone",
    "cn_name": null,
    "alternate_name": "4(3<em>H</em>)-Pyrimidinone, 2-amino-6-(1-methylethyl)-;4(1<em>H</em>)-Pyrimidinone, 2-amino-6-(1-methylethyl)-;2-Amino-6-(1-methylethyl)-4(3<em>H</em>)-pyrimidinone;2-Amino-6-isopropylpyrimidin-4-ol;2-Amino-6-(propan-2-yl)pyrimidin-4-ol;2-Amino-6-(propan-2-yl)-3,4-dihydropyrimidin-4-one;2-Amino-6-propan-2-yl-1<em>H</em>-pyrimidin-4-one;2-Amino-6-isopropyl-3<em>H</em>-pyrimidin-4-one",
    "duplicated_cas_no": "",
    "SMILES": "C(C)(C)C1=CC(=O)N=C(N)N1",
    "meta_data": {
        "InChI": "InChI=1S/C7H11N3O/c1-4(2)5-3-6(11)10-7(8)9-5/h3-4H,1-2H3,(H3,8,9,10,11)",
        "InChIKey": null,
        "Canonical SMILES": "O=C1N=C(N)NC(=C1)C(C)C",
        "Molecular Formula": "C<sub>7</sub>H<sub>11</sub>N<sub>3</sub>O",
        "Molecular Mass": "153.18",
        "Melting Point": "246-248 °C"
    }
}