{
    "cas_no": "5891-21-4",
    "key_name": "5-Chloro-2-pentanone",
    "cn_name": "5-氯-2-戊酮;",
    "alternate_name": "2-Pentanone, 5-chloro-;5-Chloro-2-pentanone;1-Chloro-4-pentanone;3-Chloropropyl methyl ketone;NSC 60210;NSC 8427",
    "duplicated_cas_no": "",
    "SMILES": "C(C(C)=O)CCCl",
    "meta_data": {
        "InChI": "InChI=1S/C5H9ClO/c1-5(7)3-2-4-6/h2-4H2,1H3",
        "InChIKey": null,
        "Canonical SMILES": "O=C(C)CCCCl",
        "Molecular Formula": "C<sub>5</sub>H<sub>9</sub>ClO",
        "Molecular Mass": "120.58",
        "Boiling Point": "71-72 °C @ Press: 20 Torr",
        "Density": "1.0571 g/cm³ @ Temp: 18 °C"
    }
}