{
    "cas_no": "108-01-0",
    "key_name": "2-(Dimethylamino)ethanol",
    "cn_name": "N,N-二甲基乙醇胺;",
    "alternate_name": "Ethanol, 2-(dimethylamino)-;2-(Dimethylamino)ethanol;Deanol;(<em>N</em>,<em>N</em>-Dimethylamino)ethanol;β-Dimethylaminoethyl alcohol;<em>N</em>,<em>N</em>-Dimethylethanolamine;DMAE;β-Hydroxyethyldimethylamine;Bimanol;β-(Dimethylamino)ethanol;(Dimethylamino)ethanol;Dimethyl(2-hydroxyethyl)amine;Propamine A;<em>N</em>-(2-Hydroxyethyl)dimethylamine;2-(<em>N</em>,<em>N</em>-Dimethylamino)ethanol;(2-Hydroxyethyl)dimethylamine;<em>N</em>,<em>N</em>-Dimethyl-2-aminoethanol;Dimethylmonoethanolamine;<em>N</em>,<em>N</em>-Dimethyl(2-hydroxyethyl)amine;Norcholine;<em>N</em>,<em>N</em>-Dimethyl-<em>N</em>-(β-hydroxyethyl)amine;Dimethyl(hydroxyethyl)amine;Kalpur P;Amietol M 21;<em>N</em>,<em>N</em>-Dimethyl-β-hydroxyethylamine;Dimethol;Texacat DME;Dimethylethanolamine;Rexolin;2-(Dimethylamino)ethyl alcohol;Thancat DME;DMEA;<em>N</em>-(2-Hydroxyethyl)-<em>N</em>,<em>N</em>-dimethylamine;PC CAT DMEA;Dabco DMEA;NSC 2652;Jeffcat DMEA;Texacat DMEA;Niax DMEA;Lupragen N 101;Tegoamin DMEA;T 80;<em>N</em>,<em>N</em>-Dimethyl-2-ethanolamine;DeuAdd MA 95;MA 95;Dimethyl MEA;D 0649;Aminoalcohol 2Mabs",
    "duplicated_cas_no": "116134-09-9;156681-25-3;1404326-81-3",
    "SMILES": "C(N(C)C)CO",
    "meta_data": {
        "InChI": "InChI=1S/C4H11NO/c1-5(2)3-4-6/h6H,3-4H2,1-2H3",
        "InChIKey": null,
        "Canonical SMILES": "OCCN(C)C",
        "Molecular Formula": "C<sub>4</sub>H<sub>11</sub>NO",
        "Molecular Mass": "89.14",
        "Boiling Point": "135 °C @ Press: 758 Torr",
        "Melting Point": "-59 °C",
        "Density": "0.8866 g/cm³ @ Temp: 20 °C"
    }
}