{
    "cas_no": "155405-80-4",
    "key_name": "Methyl 4-[2-(2-amino-4,7-dihydro-4-oxo-3<em>H</em>-pyrrolo[2,3-<em>d</em>]pyrimidin-5-yl)ethyl]benzoate",
    "cn_name": "4-[2-(2-氨基-4,7-二氢-4-氧-1H-吡咯[2,3-d]嘧啶-5-基)乙基]苯甲酸甲酯;",
    "alternate_name": "Benzoic acid, 4-[2-(2-amino-4,7-dihydro-4-oxo-3<em>H</em>-pyrrolo[2,3-<em>d</em>]pyrimidin-5-yl)ethyl]-, methyl ester;Benzoic acid, 4-[2-(2-amino-4,7-dihydro-4-oxo-1<em>H</em>-pyrrolo[2,3-<em>d</em>]pyrimidin-5-yl)ethyl]-, methyl ester;1<em>H</em>-Pyrrolo[2,3-<em>d</em>]pyrimidine, benzoic acid deriv.;Methyl 4-[2-(2-amino-4,7-dihydro-4-oxo-3<em>H</em>-pyrrolo[2,3-<em>d</em>]pyrimidin-5-yl)ethyl]benzoate",
    "duplicated_cas_no": "",
    "SMILES": "C(CC1=CC=C(C(OC)=O)C=C1)C=2C3=C(NC2)NC(N)=NC3=O",
    "meta_data": {
        "InChI": "InChI=1S/C16H16N4O3/c1-23-15(22)10-5-2-9(3-6-10)4-7-11-8-18-13-12(11)14(21)20-16(17)19-13/h2-3,5-6,8H,4,7H2,1H3,(H4,17,18,19,20,21)",
        "InChIKey": null,
        "Canonical SMILES": "O=C1N=C(N)NC=2NC=C(C12)CCC3=CC=C(C=C3)C(=O)OC",
        "Molecular Formula": "C<sub>16</sub>H<sub>16</sub>N<sub>4</sub>O<sub>3</sub>",
        "Molecular Mass": "312.32",
        "Melting Point": "&gt;220 °C"
    }
}