{
    "cas_no": "72679-02-8",
    "key_name": "(2<em>S</em>)-3-(Benzoylthio)-2-methylpropanoic acid",
    "cn_name": "(S)-(-)-3-苯甲酰巯基-2-甲基丙酸;",
    "alternate_name": "Propanoic acid, 3-(benzoylthio)-2-methyl-, (2<em>S</em>)-;Propanoic acid, 3-(benzoylthio)-2-methyl-, (<em>S</em>)-;(2<em>S</em>)-3-(Benzoylthio)-2-methylpropanoic acid;(<em>S</em>)-(-)-3-(Benzoylthio)-2-methylpropanoic acid;(2<em>S</em>)-3-(Benzoylthio)-2-methylpropionic acid;(2<em>S</em>)-3-Benzoylthio-2-methylpropanoic acid;(2S)-3-Benzoylsulfanyl-2-methylpropanoic acid;(2S)-3-(Benzoylsulfanyl)-2-methylpropanoic acid",
    "duplicated_cas_no": "",
    "SMILES": "C(SC[C@H](C(O)=O)C)(=O)C1=CC=CC=C1",
    "meta_data": {
        "InChI": "InChI=1S/C11H12O3S/c1-8(10(12)13)7-15-11(14)9-5-3-2-4-6-9/h2-6,8H,7H2,1H3,(H,12,13)/t8-/m1/s1",
        "InChIKey": null,
        "Canonical SMILES": "O=C(SCC(C(=O)O)C)C=1C=CC=CC1",
        "Molecular Formula": "C<sub>11</sub>H<sub>12</sub>O<sub>3</sub>S",
        "Molecular Mass": "224.28",
        "Melting Point": "69-71.5 °C"
    }
}