{
    "cas_no": "3863-11-4",
    "key_name": "3,4-Difluoroaniline",
    "cn_name": "3,4-二氟苯胺;",
    "alternate_name": "Benzenamine, 3,4-difluoro-;Aniline, 3,4-difluoro-;3,4-Difluorobenzenamine;3,4-Difluoroaniline;NSC 10296;4,5-Difluoroaniline;3,4-Difluorophenylamine",
    "duplicated_cas_no": "",
    "SMILES": "FC1=C(F)C=CC(N)=C1",
    "meta_data": {
        "InChI": "InChI=1S/C6H5F2N/c7-5-2-1-4(9)3-6(5)8/h1-3H,9H2",
        "InChIKey": null,
        "Canonical SMILES": "FC1=CC=C(N)C=C1F",
        "Molecular Formula": "C<sub>6</sub>H<sub>5</sub>F<sub>2</sub>N",
        "Molecular Mass": "129.11",
        "Boiling Point": "77 °C @ Press: 7 Torr",
        "Melting Point": "227-228 °C"
    }
}