{
    "cas_no": "86-79-3",
    "key_name": "2-Hydroxycarbazole",
    "cn_name": null,
    "alternate_name": "9<em>H</em>-Carbazol-2-ol;Carbazol-2-ol;2-Hydroxycarbazole;2-Hydroxy-9<em>H</em>-carbazole;2-Hydroxycarbazol",
    "duplicated_cas_no": "",
    "SMILES": "OC=1C=C2C(C=3C(N2)=CC=CC3)=CC1",
    "meta_data": {
        "InChI": "InChI=1S/C12H9NO/c14-8-5-6-10-9-3-1-2-4-11(9)13-12(10)7-8/h1-7,13-14H",
        "InChIKey": null,
        "Canonical SMILES": "OC=1C=CC2=C(C1)NC=3C=CC=CC32",
        "Molecular Formula": "C<sub>12</sub>H<sub>9</sub>NO",
        "Molecular Mass": "183.21",
        "Melting Point": "276 °C"
    }
}