{
    "cas_no": "1187-58-2",
    "key_name": "<em>N</em>-Methylpropionamide",
    "cn_name": "N-甲基丙酰胺;",
    "alternate_name": "Propanamide, <em>N</em>-methyl-;Propionamide, <em>N</em>-methyl-;<em>N</em>-Methylpropanamide;<em>N</em>-Methylpropionamide;<em>N</em>-Methylpropionic acid amide;NSC 54114",
    "duplicated_cas_no": "",
    "SMILES": "C(CC)(NC)=O",
    "meta_data": {
        "InChI": "InChI=1S/C4H9NO/c1-3-4(6)5-2/h3H2,1-2H3,(H,5,6)",
        "InChIKey": null,
        "Canonical SMILES": "O=C(NC)CC",
        "Molecular Formula": "C<sub>4</sub>H<sub>9</sub>NO",
        "Molecular Mass": "87.12",
        "Boiling Point": "148 °C",
        "Melting Point": "-30.9 °C"
    }
}