{
    "cas_no": "3333-67-3",
    "key_name": "Nickel carbonate (NiCO<sub>3</sub>)",
    "cn_name": "碳酸镍;",
    "alternate_name": "Carbonic acid, nickel(2+) salt (1:1);Nickel carbonate (NiCO<sub>3</sub>);Nickel carbonate;Nickel(II) carbonate;Nickelous carbonate;Nickel(2+) carbonate;Nickel carbonate (1:1);Nickel(2+) carbonate (NiCO<sub>3</sub>);Nickel monocarbonate",
    "duplicated_cas_no": "17301-01-8",
    "SMILES": "C(=O)(O)O.[Ni]",
    "meta_data": {
        "InChI": "InChI=1S/CH2O3.Ni/c2-1(3)4;/h(H2,2,3,4);",
        "InChIKey": null,
        "Canonical SMILES": "[Ni].O=C(O)O",
        "Molecular Formula": "CH<sub>2</sub>O<sub>3</sub>.Ni",
        "Molecular Mass": "",
        "Melting Point": "270 °C (decomp)",
        "Density": "4 x 10<sup>-6</sup> g/cm³"
    }
}