{
    "cas_no": "100361-18-0",
    "key_name": "7-Chloro-1-cyclopropyl-6-fluoro-1,4-dihydro-4-oxo-1,8-naphthyridine-3-carboxylic acid",
    "cn_name": "环丙基萘啶羧酸;1-环丙基-6-氟-7-氯-4-氧-1,4-二氢-1,8-萘啶-3-羧酸;",
    "alternate_name": "1,8-Naphthyridine-3-carboxylic acid, 7-chloro-1-cyclopropyl-6-fluoro-1,4-dihydro-4-oxo-;7-Chloro-1-cyclopropyl-6-fluoro-1,4-dihydro-4-oxo-1,8-naphthyridine-3-carboxylic acid;3-Carboxy-7-chloro-1-cyclopropyl-6-fluoro-4-oxo-1,4-dihydro[1,8]naphthyridine;7-Chloro-1-cyclopropyl-6-fluoro-4-oxo-1,4-dihydro-[1,8]naphthyridine-3-carboxylic acid;1-Cyclopropyl-6-fluoro-7-chloro-4-oxo-1,4-dihydro-1,8-naphthyridine-3-carboxylicacid",
    "duplicated_cas_no": "118688-40-7",
    "SMILES": "C(O)(=O)C1=CN(C=2C(C1=O)=CC(F)=C(Cl)N2)C3CC3",
    "meta_data": {
        "InChI": "InChI=1S/C12H8ClFN2O3/c13-10-8(14)3-6-9(17)7(12(18)19)4-16(5-1-2-5)11(6)15-10/h3-5H,1-2H2,(H,18,19)",
        "InChIKey": null,
        "Canonical SMILES": "O=C(O)C1=CN(C2=NC(Cl)=C(F)C=C2C1=O)C3CC3",
        "Molecular Formula": "C<sub>12</sub>H<sub>8</sub>ClFN<sub>2</sub>O<sub>3</sub>",
        "Molecular Mass": "282.65",
        "Melting Point": "209-212 °C"
    }
}