{
    "cas_no": "1043-50-1",
    "key_name": "1,1′-Thiobis[2,3,4,5,6-pentafluorobenzene]",
    "cn_name": "五氟苯硫醚;",
    "alternate_name": "Benzene, 1,1′-thiobis[2,3,4,5,6-pentafluoro-;Sulfide, bis(pentafluorophenyl);1,1′-Thiobis[2,3,4,5,6-pentafluorobenzene];Bis(pentafluorophenyl) sulfide;Pentafluorophenyl sulfide;Perfluorodiphenyl sulfide;Decafluorodiphenyl sulfide;Bis(2,3,4,5,6-pentafluorophenyl) sulfide;1,2,3,4,5-Pentafluoro-6-(2,3,4,5,6-pentafluorophenyl)sulfanylbenzene",
    "duplicated_cas_no": "",
    "SMILES": "S(C1=C(F)C(F)=C(F)C(F)=C1F)C2=C(F)C(F)=C(F)C(F)=C2F",
    "meta_data": {
        "InChI": "InChI=1S/C12F10S/c13-1-3(15)7(19)11(8(20)4(1)16)23-12-9(21)5(17)2(14)6(18)10(12)22",
        "InChIKey": null,
        "Canonical SMILES": "FC=1C(F)=C(F)C(SC=2C(F)=C(F)C(F)=C(F)C2F)=C(F)C1F",
        "Molecular Formula": "C<sub>12</sub>F<sub>10</sub>S",
        "Molecular Mass": "366.18",
        "Melting Point": "87 °C"
    }
}