{
    "cas_no": "81872-10-8",
    "key_name": "Zofenopril",
    "cn_name": "佐芬普利钙;[(4S)-3-(苯甲酰硫基)-2(S)-甲基丙酰-4-(苯硫基)-L-脯氨酸]钙盐;",
    "alternate_name": "<span class=\"text-smallcaps\">L</span>-Proline, 1-[(2<em>S</em>)-3-(benzoylthio)-2-methyl-1-oxopropyl]-4-(phenylthio)-, (4<em>S</em>)-;<span class=\"text-smallcaps\">L</span>-Proline, 1-[3-(benzoylthio)-2-methyl-1-oxopropyl]-4-(phenylthio)-, [1(<em>R</em>*),2α,4α]-;(4<em>S</em>)-1-[(2<em>S</em>)-3-(Benzoylthio)-2-methyl-1-oxopropyl]-4-(phenylthio)-<span class=\"text-smallcaps\">L</span>-proline;Zofenopril",
    "duplicated_cas_no": "",
    "SMILES": "C([C@@H](CSC(=O)C1=CC=CC=C1)C)(=O)N2[C@H](C(O)=O)C[C@H](SC3=CC=CC=C3)C2",
    "meta_data": {
        "InChI": "InChI=1S/C22H23NO4S2/c1-15(14-28-22(27)16-8-4-2-5-9-16)20(24)23-13-18(12-19(23)21(25)26)29-17-10-6-3-7-11-17/h2-11,15,18-19H,12-14H2,1H3,(H,25,26)/t15-,18+,19+/m1/s1",
        "InChIKey": null,
        "Canonical SMILES": "O=C(SCC(C(=O)N1CC(SC=2C=CC=CC2)CC1C(=O)O)C)C=3C=CC=CC3",
        "Molecular Formula": "C<sub>22</sub>H<sub>23</sub>NO<sub>4</sub>S<sub>2</sub>",
        "Molecular Mass": "429.55",
        "Melting Point": "42-47 °C"
    }
}