{
    "cas_no": "946-30-5",
    "key_name": "Benzenesulfonic acid, 2-chloro-5-nitro-, sodium salt (1:1)",
    "cn_name": "2-氯-5-硝基苯磺酸钠;",
    "alternate_name": "Benzenesulfonic acid, 2-chloro-5-nitro-, sodium salt (1:1);Benzenesulfonic acid, 2-chloro-5-nitro-, sodium salt;2-Chloro-5-nitrobenzenesulfonic acid sodium salt;Sodium 2-chloro-5-nitrobenzenesulfonate;Sodium 6-chloro-3-nitrobenzenesulfonate;6-Chloro-3-nitrobenzenesulfonic acid sodium salt;Sodium 1-chloro-4-nitrobenzene-2-sulfonate",
    "duplicated_cas_no": "",
    "SMILES": "S(=O)(=O)(O)C1=CC(N(=O)=O)=CC=C1Cl.[Na]",
    "meta_data": {
        "InChI": "InChI=1S/C6H4ClNO5S.Na/c7-5-2-1-4(8(9)10)3-6(5)14(11,12)13;/h1-3H,(H,11,12,13);",
        "InChIKey": null,
        "Canonical SMILES": "[Na].O=N(=O)C1=CC=C(Cl)C(=C1)S(=O)(=O)O",
        "Molecular Formula": "C<sub>6</sub>H<sub>4</sub>ClNO<sub>5</sub>S.Na",
        "Molecular Mass": "",
        "Melting Point": "&gt;300 °C"
    }
}