{
    "cas_no": "6873-09-2",
    "key_name": "Epiberberine",
    "cn_name": null,
    "alternate_name": "Benzo[<em>a</em>]-1,3-benzodioxolo[4,5-<em>g</em>]quinolizinium, 11,12-dihydro-8,9-dimethoxy-;Berbinium, 7,8,13,13a-tetradehydro-2,3-dimethoxy-9,10-(methylenedioxy)-;11,12-Dihydro-8,9-dimethoxybenzo[<em>a</em>]-1,3-benzodioxolo[4,5-<em>g</em>]quinolizinium;Epiberberine;Dehydrosinactine",
    "duplicated_cas_no": "",
    "SMILES": "O(C)C=1C=C2C=3[N+](=CC4=C(C3)C=CC5=C4OCO5)CCC2=CC1OC",
    "meta_data": {
        "InChI": "InChI=1S/C20H18NO4/c1-22-18-8-13-5-6-21-10-15-12(3-4-17-20(15)25-11-24-17)7-16(21)14(13)9-19(18)23-2/h3-4,7-10H,5-6,11H2,1-2H3/q+1",
        "InChIKey": null,
        "Canonical SMILES": "O(C=1C=C2C=3C=C4C=CC=5OCOC5C4=C[N+]3CCC2=CC1OC)C",
        "Molecular Formula": "C<sub>20</sub>H<sub>18</sub>NO<sub>4</sub>",
        "Molecular Mass": "",
        "Melting Point": "260 °C"
    }
}