{
    "cas_no": "76-12-0",
    "key_name": "Tetrachloro-1,2-difluoroethane",
    "cn_name": "1,2-二氟四氯乙烷;氟里昂-112;",
    "alternate_name": "Ethane, 1,1,2,2-tetrachloro-1,2-difluoro-;1,1,2,2-Tetrachloro-1,2-difluoroethane;F 112;Freon 112;1,2-Difluoro-1,1,2,2-tetrachloroethane;Genetron 112;1,1,2,2-Tetrachlorodifluoroethane;1,2-Difluorotetrachloroethane;<em>sym</em>-Tetrachlorodifluoroethane;Ucon 112;Tetrachloro-1,2-difluoroethane;FC 112;Daiflon S 2;Daiflon 112;R 112;CFC 112;Fron 112;CFC 122",
    "duplicated_cas_no": "",
    "SMILES": "C(C(Cl)(Cl)F)(Cl)(Cl)F",
    "meta_data": {
        "InChI": "InChI=1S/C2Cl4F2/c3-1(4,7)2(5,6)8",
        "InChIKey": null,
        "Canonical SMILES": "FC(Cl)(Cl)C(F)(Cl)Cl",
        "Molecular Formula": "C<sub>2</sub>Cl<sub>4</sub>F<sub>2</sub>",
        "Molecular Mass": "203.83",
        "Boiling Point": "93 °C",
        "Melting Point": "26 °C",
        "Density": "1.6447 g/cm³ @ Temp: 25 °C"
    }
}