{
    "cas_no": "630-88-6",
    "key_name": "3′,6′-Dichlorospiro[isobenzofuran-1(3<em>H</em>),9′-[9<em>H</em>]xanthen]-3-one",
    "cn_name": "氯化荧光素;3,6-二氯荧光素;",
    "alternate_name": "Spiro[isobenzofuran-1(3<em>H</em>),9′-[9<em>H</em>]xanthen]-3-one, 3′,6′-dichloro-;Fluoran, 3′,6′-dichloro-;3′,6′-Dichlorospiro[isobenzofuran-1(3<em>H</em>),9′-[9<em>H</em>]xanthen]-3-one;Fluorescein dichloride;3′,6′-Dichlorofluoran;3,6-Dichlorofluorescein;NSC 231613;3′,6′-dichlorospiro(phthalide-3,9′-xanthene);3′,6′-Dichlorospiro[2-benzofuran-3,9′-xanthene]-1-one",
    "duplicated_cas_no": "",
    "SMILES": "O=C1OC2(C=3C1=CC=CC3)C=4C(OC=5C2=CC=C(Cl)C5)=CC(Cl)=CC4",
    "meta_data": {
        "InChI": "InChI=1S/C20H10Cl2O3/c21-11-5-7-15-17(9-11)24-18-10-12(22)6-8-16(18)20(15)14-4-2-1-3-13(14)19(23)25-20/h1-10H",
        "InChIKey": null,
        "Canonical SMILES": "O=C1OC2(C3=CC=C(Cl)C=C3OC4=CC(Cl)=CC=C42)C=5C=CC=CC15",
        "Molecular Formula": "C<sub>20</sub>H<sub>10</sub>Cl<sub>2</sub>O<sub>3</sub>",
        "Molecular Mass": "369.20",
        "Melting Point": "255-257 °C"
    }
}