{
    "cas_no": "51460-26-5",
    "key_name": "Carbazochrome sodium sulfonate",
    "cn_name": "卡络磺钠;1-甲基-6-氧代-2,3,5,6-四氢吲哚-5-缩氨脲-2-磺酸钠;",
    "alternate_name": "1<em>H</em>-Indole-2-sulfonic acid, 5-[2-(aminocarbonyl)hydrazinylidene]-2,3,5,6-tetrahydro-1-methyl-6-oxo-, sodium salt (1:1);1<em>H</em>-Indole-2-sulfonic acid, 5-[(aminocarbonyl)hydrazono]-2,3,5,6-tetrahydro-1-methyl-6-oxo-, monosodium salt;2-Indolinesulfonic acid, 5,6-dihydro-1-methyl-5,6-dioxo-, 5-semicarbazone, sodium salt;Adrenochrome sulfonate Ac 17;Carbazochrome sodium sulfonate;Adona;AC 17;Carbazon;Adenaron;Donaseven;Tazin;Odanon;Emex",
    "duplicated_cas_no": "",
    "SMILES": "CN1C=2C(CC1S(=O)(=O)O)=CC(=NNC(N)=O)C(=O)C2.[Na]",
    "meta_data": {
        "InChI": "InChI=1S/C10H12N4O5S.Na/c1-14-7-4-8(15)6(12-13-10(11)16)2-5(7)3-9(14)20(17,18)19;/h2,4,9H,3H2,1H3,(H3,11,13,16)(H,17,18,19);",
        "InChIKey": null,
        "Canonical SMILES": "[Na].O=C(N)NN=C1C=C2C(=CC1=O)N(C)C(C2)S(=O)(=O)O",
        "Molecular Formula": "C<sub>10</sub>H<sub>12</sub>N<sub>4</sub>O<sub>5</sub>S.Na",
        "Molecular Mass": "",
        "Melting Point": "227-228 °C (decomp)"
    }
}