{
    "cas_no": "173336-76-0",
    "key_name": "4-Bromo-1-methoxy-2-(3-methoxypropoxy)benzene",
    "cn_name": null,
    "alternate_name": "Benzene, 4-bromo-1-methoxy-2-(3-methoxypropoxy)-;4-Bromo-1-methoxy-2-(3-methoxypropoxy)benzene;4-Methoxy-3-(3-methoxypropoxy)phenyl bromide;1-Bromo-4-methoxy-3-(3-methoxypropoxy)benzene",
    "duplicated_cas_no": "",
    "SMILES": "O(CCCOC)C1=C(OC)C=CC(Br)=C1",
    "meta_data": {
        "InChI": "InChI=1S/C11H15BrO3/c1-13-6-3-7-15-11-8-9(12)4-5-10(11)14-2/h4-5,8H,3,6-7H2,1-2H3",
        "InChIKey": null,
        "Canonical SMILES": "BrC1=CC=C(OC)C(OCCCOC)=C1",
        "Molecular Formula": "C<sub>11</sub>H<sub>15</sub>BrO<sub>3</sub>",
        "Molecular Mass": "275.14",
        "Melting Point": "39 °C"
    }
}