{
    "cas_no": "139399-64-7",
    "key_name": "6-Bromo-8-quinolinol",
    "cn_name": null,
    "alternate_name": "8-Quinolinol, 6-bromo-;6-Bromo-8-quinolinol;NSC 673454",
    "duplicated_cas_no": "",
    "SMILES": "OC=1C2=C(C=C(Br)C1)C=CC=N2",
    "meta_data": {
        "InChI": "InChI=1S/C9H6BrNO/c10-7-4-6-2-1-3-11-9(6)8(12)5-7/h1-5,12H",
        "InChIKey": null,
        "Canonical SMILES": "BrC1=CC(O)=C2N=CC=CC2=C1",
        "Molecular Formula": "C<sub>9</sub>H<sub>6</sub>BrNO",
        "Molecular Mass": "224.05",
        "Melting Point": "138-139 °C"
    }
}