{
    "cas_no": "503-11-7",
    "key_name": "Glycidic acid",
    "cn_name": "环氧丙酸;环氧丙酸;",
    "alternate_name": "2-Oxiranecarboxylic acid;Glycidic acid;Oxiranecarboxylic acid;Epihydrinic acid;Ethylene oxide-carboxylic acid;Propanoic acid, 2,3-epoxy-;2,3-Epoxypropionic acid;2,3-Epoxypropanoic acid",
    "duplicated_cas_no": "",
    "SMILES": "C(O)(=O)C1CO1",
    "meta_data": {
        "InChI": "InChI=1S/C3H4O3/c4-3(5)2-1-6-2/h2H,1H2,(H,4,5)",
        "InChIKey": null,
        "Canonical SMILES": "O=C(O)C1OC1",
        "Molecular Formula": "C<sub>3</sub>H<sub>4</sub>O<sub>3</sub>",
        "Molecular Mass": "88.06",
        "Boiling Point": "55-60 °C @ Press: 0.5 Torr",
        "Melting Point": "196 °C (decomp)"
    }
}