{
    "cas_no": "499-55-8",
    "key_name": "Benzoic acid, 3-fluoro-, hydrazide",
    "cn_name": null,
    "alternate_name": "Benzoic acid, 3-fluoro-, hydrazide;Benzoic acid, <em>m</em>-fluoro-, hydrazide;<em>m</em>-Fluorobenzoic acid hydrazide;3-Fluorobenzoyl hydrazine;3-Fluorobenzoic acid hydrazide;3-Fluorobenzhydrazide;NSC 522533;3-Fluorobenzoic hydrazide;3-Fluorobenzohydrazide",
    "duplicated_cas_no": "",
    "SMILES": "C(NN)(=O)C1=CC(F)=CC=C1",
    "meta_data": {
        "InChI": "InChI=1S/C7H7FN2O/c8-6-3-1-2-5(4-6)7(11)10-9/h1-4H,9H2,(H,10,11)",
        "InChIKey": null,
        "Canonical SMILES": "O=C(NN)C=1C=CC=C(F)C1",
        "Molecular Formula": "C<sub>7</sub>H<sub>7</sub>FN<sub>2</sub>O",
        "Molecular Mass": "154.14",
        "Melting Point": "139-143 °C"
    }
}