{
    "cas_no": "13031-04-4",
    "key_name": "Ketopantolactone",
    "cn_name": "二氢-4,4-二甲基-2,3-呋喃二酮;二氢-4,4-二甲基-2,3-呋喃二酮;",
    "alternate_name": "2,3-Furandione, dihydro-4,4-dimethyl-;Butyric acid, 4-hydroxy-3,3-dimethyl-2-oxo-, γ-lactone;Dihydro-4,4-dimethyl-2,3-furandione;2-Ketopantoyl lactone;Ketopantolactone;4,5-Dihydro-4,4-dimethyl-2,3-furandione;Tetrahydro-4,4-dimethyl-2,3-furandione;α-Ketopantolactone;3,3-Dimethyl-2-oxo-γ-butyrolactone;4,4-Dimethyltetrahydrofuran-2,3-dione;4,4-Dimethyl-2,3-furandione;2-Oxo-3,3-dimethyl-γ-butyrolactone;Dihydro-4,4′-dimethyl-2,3-furandione;4,4-Dimethyldihydrofuran-2,3-dione",
    "duplicated_cas_no": "",
    "SMILES": "O=C1C(C)(C)COC1=O",
    "meta_data": {
        "InChI": "InChI=1S/C6H8O3/c1-6(2)3-9-5(8)4(6)7/h3H2,1-2H3",
        "InChIKey": null,
        "Canonical SMILES": "O=C1OCC(C1=O)(C)C",
        "Molecular Formula": "C<sub>6</sub>H<sub>8</sub>O<sub>3</sub>",
        "Molecular Mass": "128.13",
        "Boiling Point": "125-126 °C @ Press: 15 Torr",
        "Melting Point": "60 °C"
    }
}