{
    "cas_no": "502-73-8",
    "key_name": "16-Hentriacontanone",
    "cn_name": "16-三十一酮;16-三十一酮;二(十五基)酮;",
    "alternate_name": "16-Hentriacontanone;Palmitone;Pentadecyl ketone;Dipentadecyl ketone;NSC 953",
    "duplicated_cas_no": "",
    "SMILES": "C(CCCCCCCCCCCCCCC)(CCCCCCCCCCCCCCC)=O",
    "meta_data": {
        "InChI": "InChI=1S/C31H62O/c1-3-5-7-9-11-13-15-17-19-21-23-25-27-29-31(32)30-28-26-24-22-20-18-16-14-12-10-8-6-4-2/h3-30H2,1-2H3",
        "InChIKey": null,
        "Canonical SMILES": "O=C(CCCCCCCCCCCCCCC)CCCCCCCCCCCCCCC",
        "Molecular Formula": "C<sub>31</sub>H<sub>62</sub>O",
        "Molecular Mass": "450.82",
        "Boiling Point": "200-207 °C @ Press: 5-7 Torr",
        "Melting Point": "82 °C"
    }
}