{
    "cas_no": "56129-55-6",
    "key_name": "α-Methyl-3-pyridinemethanamine",
    "cn_name": "1-(3-吡啶)乙胺;",
    "alternate_name": "3-Pyridinemethanamine, α-methyl-;Pyridine, 3-(1-aminoethyl)-;α-Methyl-3-pyridinemethanamine;1-(3-Pyridyl)ethylamine;1-(3′-Pyridyl)-1-aminoethane;3-(1-Aminoethyl)pyridine;(±)-3-(1-Aminoethyl)pyridine;(±)-1-(3-Pyridyl)ethylamine;[1-(Pyridin-3-yl)ethyl]amine;1-(Pyridin-3-yl)ethanamine;1-(3-Pyridyl)ethanamine;1-(Pyridin-3-yl)ethan-1-amine",
    "duplicated_cas_no": "42732-18-3",
    "SMILES": "C(C)(N)C=1C=CC=NC1",
    "meta_data": {
        "InChI": "InChI=1S/C7H10N2/c1-6(8)7-3-2-4-9-5-7/h2-6H,8H2,1H3",
        "InChIKey": null,
        "Canonical SMILES": "N=1C=CC=C(C1)C(N)C",
        "Molecular Formula": "C<sub>7</sub>H<sub>10</sub>N<sub>2</sub>",
        "Molecular Mass": "122.17",
        "Boiling Point": "118-120 °C @ Press: 14 Torr",
        "Melting Point": "63 °C",
        "Density": "1.014 g/cm³ @ Temp: 25 °C"
    }
}