{
    "cas_no": "33611-43-7",
    "key_name": "Methyl 3-morpholinopropionate",
    "cn_name": null,
    "alternate_name": "4-Morpholinepropanoic acid, methyl ester;4-Morpholinepropionic acid, methyl ester;Methyl 3-morpholinopropionate;NSC 408953;Methyl 3-morpholinopropanoate;4-(2-(Methoxycarbonyl)ethyl)morpholine;Methyl 3-(4-morpholinyl)propionate;Methyl 4-morpholinepropanoate;Methyl β-morphonyl-propionate;3-Morpholin-4-yl-propionic acid methyl ester",
    "duplicated_cas_no": "",
    "SMILES": "C(CC(OC)=O)N1CCOCC1",
    "meta_data": {
        "InChI": "InChI=1S/C8H15NO3/c1-11-8(10)2-3-9-4-6-12-7-5-9/h2-7H2,1H3",
        "InChIKey": null,
        "Canonical SMILES": "O=C(OC)CCN1CCOCC1",
        "Molecular Formula": "C<sub>8</sub>H<sub>15</sub>NO<sub>3</sub>",
        "Molecular Mass": "173.21",
        "Boiling Point": "82 °C @ Press: 2 Torr",
        "Density": "1.0711 g/cm³ @ Temp: 20 °C"
    }
}