{
    "cas_no": "5608-13-9",
    "key_name": "4-(Acetylamino)-5-chloro-<em>N</em>-[2-(diethylamino)ethyl]-2-methoxybenzamide",
    "cn_name": null,
    "alternate_name": "Benzamide, 4-(acetylamino)-5-chloro-<em>N</em>-[2-(diethylamino)ethyl]-2-methoxy-;<em>m</em>-Acetanisidide, 6′-chloro-4′-[[2-(diethylamino)ethyl]carbamoyl]-;4-(Acetylamino)-5-chloro-<em>N</em>-[2-(diethylamino)ethyl]-2-methoxybenzamide;<em>N</em>-[2-(Diethylamino)ethyl]-2-methoxy-4-acetamido-5-chlorobenzamide;4-Acetamido-5-chloro-<em>N</em>-[2-(diethylamino)ethyl]-2-methoxybenzamide",
    "duplicated_cas_no": "",
    "SMILES": "C(NCCN(CC)CC)(=O)C1=C(OC)C=C(NC(C)=O)C(Cl)=C1",
    "meta_data": {
        "InChI": "InChI=1S/C16H24ClN3O3/c1-5-20(6-2)8-7-18-16(22)12-9-13(17)14(19-11(3)21)10-15(12)23-4/h9-10H,5-8H2,1-4H3,(H,18,22)(H,19,21)",
        "InChIKey": null,
        "Canonical SMILES": "O=C(NCCN(CC)CC)C1=CC(Cl)=C(C=C1OC)NC(=O)C",
        "Molecular Formula": "C<sub>16</sub>H<sub>24</sub>ClN<sub>3</sub>O<sub>3</sub>",
        "Molecular Mass": "341.83",
        "Melting Point": "86-87 °C"
    }
}