{
    "cas_no": "106-86-5",
    "key_name": "4-Vinylcyclohexene oxide",
    "cn_name": "1,2-环氧-4-乙烯基环己烷;4-乙烯基环氧环己烷;4-乙烯基-1-环己烯-1,2-环氧;",
    "alternate_name": "7-Oxabicyclo[4.1.0]heptane, 3-ethenyl-;7-Oxabicyclo[4.1.0]heptane, 3-vinyl-;Cyclohexane, 1,2-epoxy-4-vinyl-;3-Ethenyl-7-oxabicyclo[4.1.0]heptane;Epoxide 101;1,2-Epoxy-4-vinylcyclohexane;Unoxat epoxide 101;4-Vinylcyclohexane 1,2-epoxide;1-Vinyl-3,4-epoxycyclohexane;3-Vinyl-7-oxabicyclo[4.1.0]heptane;3,4-Epoxycyclohexylethylene;4-Vinylcyclohexene monoepoxide;4-Vinylcyclohexene oxide;4-Vinylcyclohexane-1-oxide;4-Vinyl-1-cyclohexene-1,2-epoxide;Vinyl-3,4-epoxycyclohexane;1-Ethenyl-3-cyclohexene oxide;NSC 35409;Cyracure VCMX-C;4-Vinylcyclohexene-1,2-oxide;4-Vinylcyclohexene-1,2-epoxide;4-Vinyl-1-cyclohexane 1,2-epoxide;4-Vinyl-1,2-epoxycyclohexane;Vinylcyclohexene oxide;Vinylcyclohexene monoxide;4-Vinyl 1,2-cyclohexane oxide;TTA 11;UVR 6100",
    "duplicated_cas_no": "29087-40-9;1629602-29-4",
    "SMILES": "C(=C)C1CC2C(O2)CC1",
    "meta_data": {
        "InChI": "InChI=1S/C8H12O/c1-2-6-3-4-7-8(5-6)9-7/h2,6-8H,1,3-5H2",
        "InChIKey": null,
        "Canonical SMILES": "O1C2CCC(C=C)CC12",
        "Molecular Formula": "C<sub>8</sub>H<sub>12</sub>O",
        "Molecular Mass": "124.18",
        "Boiling Point": "169 °C",
        "Melting Point": "&lt;-100 °C",
        "Density": "0.9598 g/cm³ @ Temp: 20 °C"
    }
}