{
    "cas_no": "620-40-6",
    "key_name": "Tribenzylamine",
    "cn_name": "三苄胺;三苯甲基胺;",
    "alternate_name": "Benzenemethanamine, <em>N</em>,<em>N</em>-bis(phenylmethyl)-;Tribenzylamine;<em>N</em>,<em>N</em>-Bis(phenylmethyl)benzenemethanamine;(<em>N</em>,<em>N</em>-Dibenzylaminomethyl)benzene;<em>N</em>,<em>N</em>,<em>N</em>-Tribenzylamine",
    "duplicated_cas_no": "",
    "SMILES": "N(CC1=CC=CC=C1)(CC2=CC=CC=C2)CC3=CC=CC=C3",
    "meta_data": {
        "InChI": "InChI=1S/C21H21N/c1-4-10-19(11-5-1)16-22(17-20-12-6-2-7-13-20)18-21-14-8-3-9-15-21/h1-15H,16-18H2",
        "InChIKey": null,
        "Canonical SMILES": "C=1C=CC(=CC1)CN(CC=2C=CC=CC2)CC=3C=CC=CC3",
        "Molecular Formula": "C<sub>21</sub>H<sub>21</sub>N",
        "Molecular Mass": "287.40",
        "Boiling Point": "385 °C",
        "Melting Point": "91.5 °C"
    }
}