{
    "cas_no": "2045-79-6",
    "key_name": "2-Methoxyphenethylamine",
    "cn_name": "2-甲氧基苯乙胺;",
    "alternate_name": "Benzeneethanamine, 2-methoxy-;Phenethylamine, <em>o</em>-methoxy-;2-Methoxybenzeneethanamine;2-(<em>o</em>-Methoxyphenyl)ethylamine;2-Methoxyphenylethylamine;<em>o</em>-Methoxyphenylethylamine;2-Methoxyphenethylamine;<em>o</em>-Methoxy-β-phenylethylamine;2-(2-Methoxyphenyl)ethanamine;2-(2-Methoxyphenyl)ethylamine;<em>o</em>-Methoxyphenethylamine;2-(2-Methoxyphenyl)ethan-1-amine;1-Amino-2-(2-methoxyphenyl)-ethane",
    "duplicated_cas_no": "",
    "SMILES": "C(CN)C1=C(OC)C=CC=C1",
    "meta_data": {
        "InChI": "InChI=1S/C9H13NO/c1-11-9-5-3-2-4-8(9)6-7-10/h2-5H,6-7,10H2,1H3",
        "InChIKey": null,
        "Canonical SMILES": "O(C=1C=CC=CC1CCN)C",
        "Molecular Formula": "C<sub>9</sub>H<sub>13</sub>NO",
        "Molecular Mass": "151.21",
        "Boiling Point": "236.5 °C"
    }
}