{
    "cas_no": "498-59-9",
    "key_name": "Djenkolic acid",
    "cn_name": null,
    "alternate_name": "<span class=\"text-smallcaps\">L</span>-Cysteine, <em>S</em>,<em>S</em>′-methylenebis-;Alanine, 3,3′-(methylenedithio)di-, <span class=\"text-smallcaps\">L</span>-;Djenkolic acid;Alanine, 3,3′-(methylenedithio)di-;<em>S</em>,<em>S</em>′-Methylenebis[<span class=\"text-smallcaps\">L</span>-cysteine];3,3′-Methylenedithiobis(2-aminopropanoic acid);β,β′-Methylenedithiodialanine;<span class=\"text-smallcaps\">L</span>-Djenkolic acid;NSC 76076",
    "duplicated_cas_no": "13117-51-6;25717-42-4;50584-55-9",
    "SMILES": "[C@H](CSCSC[C@@H](C(O)=O)N)(C(O)=O)N",
    "meta_data": {
        "InChI": "InChI=1S/C7H14N2O4S2/c8-4(6(10)11)1-14-3-15-2-5(9)7(12)13/h4-5H,1-3,8-9H2,(H,10,11)(H,12,13)/t4-,5-/m0/s1",
        "InChIKey": null,
        "Canonical SMILES": "O=C(O)C(N)CSCSCC(N)C(=O)O",
        "Molecular Formula": "C<sub>7</sub>H<sub>14</sub>N<sub>2</sub>O<sub>4</sub>S<sub>2</sub>",
        "Molecular Mass": "254.33",
        "Melting Point": "325 °C (decomp)"
    }
}