{
    "cas_no": "2770-11-8",
    "key_name": "2-(4-Chlorophenoxy)benzenamine",
    "cn_name": "2-(4-氯苯氧)苯胺;",
    "alternate_name": "Benzenamine, 2-(4-chlorophenoxy)-;Aniline, <em>o</em>-(<em>p</em>-chlorophenoxy)-;2-(4-Chlorophenoxy)benzenamine;2-(<em>p</em>-Chlorophenoxy)aniline;2-(4-Chlorophenoxy)aniline;2-Amino-4′-chlorodiphenyl ether;2-(4-Chlorophenoxy)phenylamine",
    "duplicated_cas_no": "",
    "SMILES": "O(C1=C(N)C=CC=C1)C2=CC=C(Cl)C=C2",
    "meta_data": {
        "InChI": "InChI=1S/C12H10ClNO/c13-9-5-7-10(8-6-9)15-12-4-2-1-3-11(12)14/h1-8H,14H2",
        "InChIKey": null,
        "Canonical SMILES": "ClC1=CC=C(OC=2C=CC=CC2N)C=C1",
        "Molecular Formula": "C<sub>12</sub>H<sub>10</sub>ClNO",
        "Molecular Mass": "219.67",
        "Boiling Point": "202 °C @ Press: 13 Torr"
    }
}