{
    "cas_no": "18435-45-5",
    "key_name": "1-Nonadecene",
    "cn_name": "1-十九烯;",
    "alternate_name": "1-Nonadecene;NSC 77135",
    "duplicated_cas_no": "",
    "SMILES": "C(CCCCCCCCC)CCCCCCCC=C",
    "meta_data": {
        "InChI": "InChI=1S/C19H38/c1-3-5-7-9-11-13-15-17-19-18-16-14-12-10-8-6-4-2/h3H,1,4-19H2,2H3",
        "InChIKey": null,
        "Canonical SMILES": "C=CCCCCCCCCCCCCCCCCC",
        "Molecular Formula": "C<sub>19</sub>H<sub>38</sub>",
        "Molecular Mass": "266.51",
        "Boiling Point": "329 °C",
        "Melting Point": "23 °C"
    }
}