{
    "cas_no": "1708-29-8",
    "key_name": "2,5-Dihydrofuran",
    "cn_name": "2,5-二氢呋喃;",
    "alternate_name": "Furan, 2,5-dihydro-;2,5-Dihydrofuran;NSC 60532",
    "duplicated_cas_no": "",
    "SMILES": "C1=CCOC1",
    "meta_data": {
        "InChI": "InChI=1S/C4H6O/c1-2-4-5-3-1/h1-2H,3-4H2",
        "InChIKey": null,
        "Canonical SMILES": "O1CC=CC1",
        "Molecular Formula": "C<sub>4</sub>H<sub>6</sub>O",
        "Molecular Mass": "70.09",
        "Boiling Point": "66.5 °C",
        "Density": "0.9265 g/cm³ @ Temp: 20 °C"
    }
}