{
    "cas_no": "23384-72-7",
    "key_name": "1-(3,4-Difluorophenyl)-1-propanone",
    "cn_name": "3,4-二氟苯丙酮;",
    "alternate_name": "1-Propanone, 1-(3,4-difluorophenyl)-;Propiophenone, 3′,4′-difluoro-;1-(3,4-Difluorophenyl)-1-propanone",
    "duplicated_cas_no": "",
    "SMILES": "C(CC)(=O)C1=CC(F)=C(F)C=C1",
    "meta_data": {
        "InChI": "InChI=1S/C9H8F2O/c1-2-9(12)6-3-4-7(10)8(11)5-6/h3-5H,2H2,1H3",
        "InChIKey": null,
        "Canonical SMILES": "O=C(C1=CC=C(F)C(F)=C1)CC",
        "Molecular Formula": "C<sub>9</sub>H<sub>8</sub>F<sub>2</sub>O",
        "Molecular Mass": "170.16",
        "Boiling Point": "98 °C @ Press: 15 Torr"
    }
}