{
    "cas_no": "19132-06-0",
    "key_name": "(+)-2,3-Butanediol",
    "cn_name": "(2S,3S)-(+)-2,3-丁二醇;",
    "alternate_name": "2,3-Butanediol, (2<em>S</em>,3<em>S</em>)-;2,3-Butanediol, <span class=\"text-smallcaps\">L</span>-;2,3-Butanediol, [<em>S</em>-(<em>R</em>*,<em>R</em>*)]-;(2<em>S</em>,3<em>S</em>)-2,3-Butanediol;(<em>S</em>,<em>S</em>)-2,3-Butanediol;<span class=\"text-smallcaps\">L</span>-(+)-Butane-2,3-diol;(+)-2,3-Butanediol;(2<em>S</em>,3<em>S</em>)-(+)-2,3-Butanediol;Dextro-2,3-Butanediol",
    "duplicated_cas_no": "",
    "SMILES": "[C@@H]([C@H](C)O)(C)O",
    "meta_data": {
        "InChI": "InChI=1S/C4H10O2/c1-3(5)4(2)6/h3-6H,1-2H3/t3-,4-/m0/s1",
        "InChIKey": null,
        "Canonical SMILES": "OC(C)C(O)C",
        "Molecular Formula": "C<sub>4</sub>H<sub>10</sub>O<sub>2</sub>",
        "Molecular Mass": "90.12",
        "Boiling Point": "180.5 °C",
        "Melting Point": "18.2 °C"
    }
}