{
    "cas_no": "13195-50-1",
    "key_name": "2-Bromo-5-nitrothiophene",
    "cn_name": "2-溴-5-硝基噻吩;",
    "alternate_name": "Thiophene, 2-bromo-5-nitro-;2-Bromo-5-nitrothiophene;2-Nitro-5-bromothiophene;5-Bromo-2-nitrothiophene;NSC 511505",
    "duplicated_cas_no": "",
    "SMILES": "N(=O)(=O)C=1SC(Br)=CC1",
    "meta_data": {
        "InChI": "InChI=1S/C4H2BrNO2S/c5-3-1-2-4(9-3)6(7)8/h1-2H",
        "InChIKey": null,
        "Canonical SMILES": "O=N(=O)C=1SC(Br)=CC1",
        "Molecular Formula": "C<sub>4</sub>H<sub>2</sub>BrNO<sub>2</sub>S",
        "Molecular Mass": "208.03",
        "Boiling Point": "235-237 °C",
        "Melting Point": "45-46 °C"
    }
}