{
    "cas_no": "58414-52-1",
    "key_name": "3-Thiopheneacetic acid, methyl ester",
    "cn_name": "噻吩-3-乙酸甲酯;噻吩-3-乙酸甲酯;",
    "alternate_name": "3-Thiopheneacetic acid, methyl ester;Methyl 3-thiopheneacetate;Methyl 3-thienylacetate;2-(Thien-3-yl)acetic acid methyl ester;Methyl 2-(thiophen-3-yl)acetate;3-Thiophene acetic acid methyl ester;Methyl 2-(3-thienyl)acetate",
    "duplicated_cas_no": "",
    "SMILES": "C(C(OC)=O)C=1C=CSC1",
    "meta_data": {
        "InChI": "InChI=1S/C7H8O2S/c1-9-7(8)4-6-2-3-10-5-6/h2-3,5H,4H2,1H3",
        "InChIKey": null,
        "Canonical SMILES": "O=C(OC)CC1=CSC=C1",
        "Molecular Formula": "C<sub>7</sub>H<sub>8</sub>O<sub>2</sub>S",
        "Molecular Mass": "156.20",
        "Boiling Point": "56-58 °C @ Press: 1.2 Torr"
    }
}