{
    "cas_no": "762-72-1",
    "key_name": "Allyltrimethylsilane",
    "cn_name": "烯丙基三甲基硅烷;",
    "alternate_name": "Silane, trimethyl-2-propen-1-yl-;Silane, allyltrimethyl-;Silane, trimethyl-2-propenyl-;Trimethyl-2-propen-1-ylsilane;Allyltrimethylsilane;Trimethylallylsilane;3-(Trimethylsilyl)propene;3-(Trimethylsilyl)-1-propene;Trimethyl(2-propenyl)silane;SIA 0555.0",
    "duplicated_cas_no": "255878-58-1",
    "SMILES": "C([Si](C)(C)C)C=C",
    "meta_data": {
        "InChI": "InChI=1S/C6H14Si/c1-5-6-7(2,3)4/h5H,1,6H2,2-4H3",
        "InChIKey": null,
        "Canonical SMILES": "C=CC[Si](C)(C)C",
        "Molecular Formula": "C<sub>6</sub>H<sub>14</sub>Si",
        "Molecular Mass": "114.26",
        "Boiling Point": "86 °C",
        "Density": "0.719 g/cm³"
    }
}