{
    "cas_no": "1779-10-8",
    "key_name": "4,7-Dibromo-3-hydroxy-2-naphthalenecarboxylic acid",
    "cn_name": "1,6-二溴-2-羟基萘-3-羧酸;1,6-二溴-2-羟基萘-3-羧酸;",
    "alternate_name": "2-Naphthalenecarboxylic acid, 4,7-dibromo-3-hydroxy-;2-Naphthoic acid, 4,7-dibromo-3-hydroxy-;4,7-Dibromo-3-hydroxy-2-naphthalenecarboxylic acid;4,7-Dibromo-3-hydroxy-2-naphthoic acid;NSC 50642;NSC 8508;1,6-Dibromo-2-hydroxynaphthalene-3-carboxylicacid",
    "duplicated_cas_no": "",
    "SMILES": "BrC=1C2=C(C=C(C(O)=O)C1O)C=C(Br)C=C2",
    "meta_data": {
        "InChI": "InChI=1S/C11H6Br2O3/c12-6-1-2-7-5(3-6)4-8(11(15)16)10(14)9(7)13/h1-4,14H,(H,15,16)",
        "InChIKey": null,
        "Canonical SMILES": "O=C(O)C=1C=C2C=C(Br)C=CC2=C(Br)C1O",
        "Molecular Formula": "C<sub>11</sub>H<sub>6</sub>Br<sub>2</sub>O<sub>3</sub>",
        "Molecular Mass": "345.97",
        "Melting Point": "251 °C"
    }
}