{
    "cas_no": "823-40-5",
    "key_name": "2,6-Diaminotoluene",
    "cn_name": "2,6-二氨基甲苯;",
    "alternate_name": "1,3-Benzenediamine, 2-methyl-;Toluene-2,6-diamine;2-Methyl-1,3-benzenediamine;2,6-Diaminotoluene;2,6-Tolylenediamine;2,6-Diamino-1-methylbenzene;2-Methyl-1,3-phenylenediamine;2-Methyl-<em>m</em>-phenylenediamine;2,6-Toluylenediamine;1,3-Diamino-2-methylbenzene;NSC 147490;2,6-Diaminetoluene",
    "duplicated_cas_no": "",
    "SMILES": "CC1=C(N)C=CC=C1N",
    "meta_data": {
        "InChI": "InChI=1S/C7H10N2/c1-5-6(8)3-2-4-7(5)9/h2-4H,8-9H2,1H3",
        "InChIKey": null,
        "Canonical SMILES": "NC1=CC=CC(N)=C1C",
        "Molecular Formula": "C<sub>7</sub>H<sub>10</sub>N<sub>2</sub>",
        "Molecular Mass": "122.17",
        "Boiling Point": "289 °C",
        "Melting Point": "106 °C"
    }
}