{
    "cas_no": "1459-09-2",
    "key_name": "Hexadecylbenzene",
    "cn_name": "十六烷基苯;",
    "alternate_name": "Benzene, hexadecyl-;Hexadecane, 1-phenyl-;Hexadecylbenzene;Hexadecane, 1(<em>or</em> 16)-phenyl-;<em>n</em>-Hexadecylbenzene;1-Phenylhexadecane;Hexadecylbenzol",
    "duplicated_cas_no": "",
    "SMILES": "C(CCCCCCCCCCCCCCC)C1=CC=CC=C1",
    "meta_data": {
        "InChI": "InChI=1S/C22H38/c1-2-3-4-5-6-7-8-9-10-11-12-13-14-16-19-22-20-17-15-18-21-22/h15,17-18,20-21H,2-14,16,19H2,1H3",
        "InChIKey": null,
        "Canonical SMILES": "C=1C=CC(=CC1)CCCCCCCCCCCCCCCC",
        "Molecular Formula": "C<sub>22</sub>H<sub>38</sub>",
        "Molecular Mass": "302.54",
        "Boiling Point": "385 °C",
        "Melting Point": "27 °C",
        "Density": "0.8558 g/cm³ @ Temp: 20 °C"
    }
}