{
    "cas_no": "1315-05-5",
    "key_name": "Antimony selenide (Sb<sub>2</sub>Se<sub>3</sub>)",
    "cn_name": null,
    "alternate_name": "Antimony selenide (Sb<sub>2</sub>Se<sub>3</sub>);Antimony triselenide;Antimony sesquiselenide;Diantimony triselenide;Antimony(3+) selenide;Antimony selenide;Antimony(III) selenide",
    "duplicated_cas_no": "12656-50-7;37256-15-8;37256-16-9;72924-94-8;73508-21-1;264921-16-6;1253906-76-1",
    "SMILES": "",
    "meta_data": {
        "InChI": "",
        "InChIKey": null,
        "Canonical SMILES": "",
        "Molecular Formula": "Sb<sub>2</sub>Se<sub>3</sub>",
        "Molecular Mass": "",
        "Boiling Point": "1031.9 °C",
        "Melting Point": "605 °C"
    }
}