{
    "uri": "substance/pt/1315055",
    "rn": "1315-05-5",
    "name": "Antimony selenide (Sb<sub>2</sub>Se<sub>3</sub>)",
    "images": [],
    "inchi": "",
    "inchiKey": "",
    "smile": "",
    "canonicalSmile": "",
    "molecularFormula": "Sb<sub>2</sub>Se<sub>3</sub>",
    "molecularMass": "",
    "experimentalProperties": [
        {
            "name": "Boiling Point",
            "property": "1031.9 °C",
            "sourceNumber": 1
        },
        {
            "name": "Melting Point",
            "property": "605 °C",
            "sourceNumber": 2
        }
    ],
    "propertyCitations": [
        {
            "docUri": "document/pt/document/21172827",
            "sourceNumber": 1,
            "source": "Ustyugov, G. P.; Izvestiya Akademii Nauk SSSR, Neorganicheskie Materialy, (1969), 5(3), 589-90, CAplus"
        },
        {
            "docUri": "document/pt/document/23527272",
            "sourceNumber": 2,
            "source": "Helabon, P.; Annales de Chimie et de Physique, (1910), 17, 526-66, CAplus"
        }
    ],
    "synonyms": [
        "Antimony selenide (Sb<sub>2</sub>Se<sub>3</sub>)",
        "Antimony triselenide",
        "Antimony sesquiselenide",
        "Diantimony triselenide",
        "Antimony(3+) selenide",
        "Antimony selenide",
        "Antimony(III) selenide"
    ],
    "replacedRns": [
        "12656-50-7",
        "37256-15-8",
        "37256-16-9",
        "72924-94-8",
        "73508-21-1",
        "264921-16-6",
        "1253906-76-1"
    ],
    "hasMolfile": false,
    "source": "https://commonchemistry.cas.org/detail?cas_rn=1315-05-5"
}