{
    "cas_no": "16738-20-8",
    "key_name": "<em>N</em>-(2,4-Dimethylphenyl)thiourea",
    "cn_name": "2,4-二甲基苯基硫脲;2,4-二甲基苯基硫脲;2,4-二甲基苯(基)硫脲,98%;N-(2,4-二甲基苯基)硫脲;",
    "alternate_name": "Thiourea, <em>N</em>-(2,4-dimethylphenyl)-;Urea, 2-thio-1-(2,4-xylyl)-;Thiourea, (2,4-dimethylphenyl)-;<em>N</em>-(2,4-Dimethylphenyl)thiourea;2,4-Dimethylphenylthiourea;2,4-Xylylthiourea;1-(2,4-Dimethylphenyl)thiourea;1-(2,4-Dimethylphenyl)-2-thiourea",
    "duplicated_cas_no": "",
    "SMILES": "N(C(N)=S)C1=C(C)C=C(C)C=C1",
    "meta_data": {
        "InChI": "InChI=1S/C9H12N2S/c1-6-3-4-8(7(2)5-6)11-9(10)12/h3-5H,1-2H3,(H3,10,11,12)",
        "InChIKey": null,
        "Canonical SMILES": "S=C(N)NC1=CC=C(C=C1C)C",
        "Molecular Formula": "C<sub>9</sub>H<sub>12</sub>N<sub>2</sub>S",
        "Molecular Mass": "180.27",
        "Melting Point": "182 °C"
    }
}