{
    "cas_no": "18181-80-1",
    "key_name": "Bromopropylate",
    "cn_name": "溴螨酯;alpha,alpha-双(对溴苯基)乙醇酸异丙酯;",
    "alternate_name": "Benzeneacetic acid, 4-bromo-α-(4-bromophenyl)-α-hydroxy-, 1-methylethyl ester;Benzilic acid, 4,4′-dibromo-, isopropyl ester;Geigy 19851;Isopropyl 4,4′-dibromobenzilate;GS 19851;Bromopropylate;Neoron (pesticide);Isopropyl dibromobenzilate;Acarol;Phenisobromolate;Folbex VA;Akpin;Neoron;Nanocron;Akpinol;Isopropyl bis(4-bromophenyl)glycolate",
    "duplicated_cas_no": "39394-17-7",
    "SMILES": "C(C(OC(C)C)=O)(O)(C1=CC=C(Br)C=C1)C2=CC=C(Br)C=C2",
    "meta_data": {
        "InChI": "InChI=1S/C17H16Br2O3/c1-11(2)22-16(20)17(21,12-3-7-14(18)8-4-12)13-5-9-15(19)10-6-13/h3-11,21H,1-2H3",
        "InChIKey": null,
        "Canonical SMILES": "O=C(OC(C)C)C(O)(C1=CC=C(Br)C=C1)C2=CC=C(Br)C=C2",
        "Molecular Formula": "C<sub>17</sub>H<sub>16</sub>Br<sub>2</sub>O<sub>3</sub>",
        "Molecular Mass": "428.12",
        "Melting Point": "77 °C"
    }
}