{
    "cas_no": "3622-40-0",
    "key_name": "2-Bromo-4-chlorobenzothiazole",
    "cn_name": null,
    "alternate_name": "Benzothiazole, 2-bromo-4-chloro-;2-Bromo-4-chlorobenzothiazole;NSC 523841;2-Bromo-4-chloro-1,3-benzothiazole",
    "duplicated_cas_no": "",
    "SMILES": "ClC1=C2C(SC(Br)=N2)=CC=C1",
    "meta_data": {
        "InChI": "InChI=1S/C7H3BrClNS/c8-7-10-6-4(9)2-1-3-5(6)11-7/h1-3H",
        "InChIKey": null,
        "Canonical SMILES": "ClC1=CC=CC=2SC(Br)=NC12",
        "Molecular Formula": "C<sub>7</sub>H<sub>3</sub>BrClNS",
        "Molecular Mass": "248.53",
        "Melting Point": "107-108 °C"
    }
}