{
    "cas_no": "1078-97-3",
    "key_name": "1,4-Bis(chlorodimethylsilyl)benzene",
    "cn_name": "1,4-双(二甲基氯甲硅烷基)苯;",
    "alternate_name": "Benzene, 1,4-bis(chlorodimethylsilyl)-;Silane, <em>p</em>-phenylenebis[chlorodimethyl-;Silane, 1,4-phenylenebis[chlorodimethyl-;1,4-Bis(chlorodimethylsilyl)benzene;<em>p</em>-Bis(dimethylchlorosilyl)benzene;1,4-Bis(dimethylchlorosilyl)benzene;<em>p</em>-Phenylenebis[chlorodimethylsilane]",
    "duplicated_cas_no": "",
    "SMILES": "[Si](C)(C)(Cl)C1=CC=C([Si](C)(C)Cl)C=C1",
    "meta_data": {
        "InChI": "InChI=1S/C10H16Cl2Si2/c1-13(2,11)9-5-7-10(8-6-9)14(3,4)12/h5-8H,1-4H3",
        "InChIKey": null,
        "Canonical SMILES": "Cl[Si](C1=CC=C(C=C1)[Si](Cl)(C)C)(C)C",
        "Molecular Formula": "C<sub>10</sub>H<sub>16</sub>Cl<sub>2</sub>Si<sub>2</sub>",
        "Molecular Mass": "263.31",
        "Boiling Point": "200-208 °C @ Press: 6 Torr",
        "Density": "1.2259 g/cm³ @ Temp: 20 °C"
    }
}