{
    "cas_no": "475-67-2",
    "key_name": "(+)-Isocorydine",
    "cn_name": null,
    "alternate_name": "4<em>H</em>-Dibenzo[<em>de</em>,<em>g</em>]quinolin-11-ol, 5,6,6a,7-tetrahydro-1,2,10-trimethoxy-6-methyl-, (6a<em>S</em>)-;Isocorydine;6aα-Aporphin-11-ol, 1,2,10-trimethoxy-;4<em>H</em>-Dibenzo[<em>de</em>,<em>g</em>]quinolin-11-ol, 5,6,6a,7-tetrahydro-1,2,10-trimethoxy-6-methyl-, (<em>S</em>)-;(6a<em>S</em>)-5,6,6a,7-Tetrahydro-1,2,10-trimethoxy-6-methyl-4<em>H</em>-dibenzo[<em>de</em>,<em>g</em>]quinolin-11-ol;Luteanine;<em>d</em>-Isocorydine;<span class=\"text-smallcaps\">L</span>-(+)-Isocorydine;(+)-(<em>S</em>)-Isocorydine;Luteanin;Luteanine (aporphine);(<em>S</em>)-(+)-Isocorydine;(+)-Isocorydine;NSC 32979",
    "duplicated_cas_no": "11014-71-4;14028-99-0",
    "SMILES": "O(C)C1=C2C=3[C@](CC=4C2=C(O)C(OC)=CC4)(N(C)CCC3C=C1OC)[H]",
    "meta_data": {
        "InChI": "InChI=1S/C20H23NO4/c1-21-8-7-12-10-15(24-3)20(25-4)18-16(12)13(21)9-11-5-6-14(23-2)19(22)17(11)18/h5-6,10,13,22H,7-9H2,1-4H3/t13-/m0/s1",
        "InChIKey": null,
        "Canonical SMILES": "OC=1C(OC)=CC=C2C1C=3C(OC)=C(OC)C=C4C3C(N(C)CC4)C2",
        "Molecular Formula": "C<sub>20</sub>H<sub>23</sub>NO<sub>4</sub>",
        "Molecular Mass": "341.40",
        "Melting Point": "185 °C"
    }
}