{
    "cas_no": "23452-05-3",
    "key_name": "Djalonensone",
    "cn_name": null,
    "alternate_name": "6<em>H</em>-Dibenzo[<em>b</em>,<em>d</em>]pyran-6-one, 3,7-dihydroxy-9-methoxy-1-methyl-;2-Biphenylcarboxylic acid, 2′,3,4′-trihydroxy-5-methoxy-6′-methyl-, δ-lactone;3,7-Dihydroxy-9-methoxy-1-methyl-6<em>H</em>-dibenzo[<em>b</em>,<em>d</em>]pyran-6-one;AME;Alternariol 9-methyl ether;Alternariol monomethyl ether;Djalonensone;NSC 638262;Alternariol-5-<em>O</em>-methyl ether;Alternariol 9-<em>O</em>-methyl ether;Alternariol 4-<em>O</em>-methyl ether;3,7-Dihydroxy-9-methoxy-1-methylbenzo[<em>c</em>]chromen-6-one",
    "duplicated_cas_no": "",
    "SMILES": "CC1=C2C=3C(C(=O)OC2=CC(O)=C1)=C(O)C=C(OC)C3",
    "meta_data": {
        "InChI": "InChI=1S/C15H12O5/c1-7-3-8(16)4-12-13(7)10-5-9(19-2)6-11(17)14(10)15(18)20-12/h3-6,16-17H,1-2H3",
        "InChIKey": null,
        "Canonical SMILES": "O=C1OC2=CC(O)=CC(=C2C3=CC(OC)=CC(O)=C13)C",
        "Molecular Formula": "C<sub>15</sub>H<sub>12</sub>O<sub>5</sub>",
        "Molecular Mass": "272.25",
        "Melting Point": "277-279 °C"
    }
}