{
    "cas_no": "592-42-7",
    "key_name": "Diallyl",
    "cn_name": "1,5-己二烯;1,5-己二烯；双烯丙基;",
    "alternate_name": "1,5-Hexadiene;Biallyl;Diallyl;α,ω-Hexadiene;NSC 60690",
    "duplicated_cas_no": "41919-05-5",
    "SMILES": "C(CC=C)C=C",
    "meta_data": {
        "InChI": "InChI=1S/C6H10/c1-3-5-6-4-2/h3-4H,1-2,5-6H2",
        "InChIKey": null,
        "Canonical SMILES": "C=CCCC=C",
        "Molecular Formula": "C<sub>6</sub>H<sub>10</sub>",
        "Molecular Mass": "82.14",
        "Boiling Point": "59.4 °C",
        "Melting Point": "-140.7 °C",
        "Density": "0.7106 g/cm³ @ Temp: 0 °C"
    }
}