{
    "cas_no": "42521-82-4",
    "key_name": "1,1′-Dithiobis[2-naphthalenol]",
    "cn_name": null,
    "alternate_name": "2-Naphthalenol, 1,1′-dithiobis-;2-Naphthol, 1,1′-dithiodi-;1,1′-Dithiobis[2-naphthalenol];1,1′-Dithiodi-2-naphthol;Bis(2-hydroxy-1-naphthyl) disulfide;IPA 3;1,1′-Disulfanediyldinaphthalen-2-ol;p21-Activated kinase inhibitor III;1-[(2-Hydroxynaphthalen-1-yl)disulfanyl]naphthalen-2-ol",
    "duplicated_cas_no": "1081767-20-5",
    "SMILES": "S(SC=1C2=C(C=CC1O)C=CC=C2)C=3C4=C(C=CC3O)C=CC=C4",
    "meta_data": {
        "InChI": "InChI=1S/C20H14O2S2/c21-17-11-9-13-5-1-3-7-15(13)19(17)23-24-20-16-8-4-2-6-14(16)10-12-18(20)22/h1-12,21-22H",
        "InChIKey": null,
        "Canonical SMILES": "OC=1C=CC=2C=CC=CC2C1SSC3=C(O)C=CC=4C=CC=CC43",
        "Molecular Formula": "C<sub>20</sub>H<sub>14</sub>O<sub>2</sub>S<sub>2</sub>",
        "Molecular Mass": "350.45",
        "Melting Point": "171 °C"
    }
}