{
    "cas_no": "120067-83-6",
    "key_name": "Fipronil sulfide",
    "cn_name": null,
    "alternate_name": "1<em>H</em>-Pyrazole-3-carbonitrile, 5-amino-1-[2,6-dichloro-4-(trifluoromethyl)phenyl]-4-[(trifluoromethyl)thio]-;5-Amino-1-[2,6-dichloro-4-(trifluoromethyl)phenyl]-4-[(trifluoromethyl)thio]-1<em>H</em>-pyrazole-3-carbonitrile;MB 45950;5-Amino-1-(2,6-dichloro-4-trifluoromethylphenyl)-3-cyano-4-trifluoromethylthiopyrazole;Fipronil sulfide;5-Amino-1-[2,6-Dichloro-4-(trifluoromethyl)phenyl]-4-(trifluoromethylthio)pyrazole-3-carbonitrile;5-Amino-3-cyano-1-(2,6-dichloro-4-trifluoromethylphenyl)-4-(trifluoromethylthio)pyrazole;1-(2,6-Dichloro-4-trifluoromethylphenyl)-3-cyano-5-amino-4-(trifluoromethylthio)pyrazole;MBO 45950",
    "duplicated_cas_no": "",
    "SMILES": "NC=1N(N=C(C#N)C1SC(F)(F)F)C2=C(Cl)C=C(C(F)(F)F)C=C2Cl",
    "meta_data": {
        "InChI": "InChI=1S/C12H4Cl2F6N4S/c13-5-1-4(11(15,16)17)2-6(14)8(5)24-10(22)9(7(3-21)23-24)25-12(18,19)20/h1-2H,22H2",
        "InChIKey": null,
        "Canonical SMILES": "N#CC1=NN(C(N)=C1SC(F)(F)F)C2=C(Cl)C=C(C=C2Cl)C(F)(F)F",
        "Molecular Formula": "C<sub>12</sub>H<sub>4</sub>Cl<sub>2</sub>F<sub>6</sub>N<sub>4</sub>S",
        "Molecular Mass": "421.15",
        "Melting Point": "161-163 °C"
    }
}