{
    "cas_no": "112-48-1",
    "key_name": "Glycol dibutyl ether",
    "cn_name": "乙二醇二丁醚;",
    "alternate_name": "Butane, 1-(2-butoxyethoxy)-;Ethane, 1,2-dibutoxy-;Butane, 1,1′-[1,2-ethanediylbis(oxy)]bis-;1-(2-Butoxyethoxy)butane;1,2-Dibutoxyethane;Dibutyl cellosolve;Ethylene glycol dibutyl ether;Dibutyl Oxitol;Glycol dibutyl ether",
    "duplicated_cas_no": "",
    "SMILES": "C(COCCCC)OCCCC",
    "meta_data": {
        "InChI": "InChI=1S/C10H22O2/c1-3-5-7-11-9-10-12-8-6-4-2/h3-10H2,1-2H3",
        "InChIKey": null,
        "Canonical SMILES": "O(CCOCCCC)CCCC",
        "Molecular Formula": "C<sub>10</sub>H<sub>22</sub>O<sub>2</sub>",
        "Molecular Mass": "174.28",
        "Boiling Point": "203.6 °C @ Press: 760 Torr",
        "Melting Point": "-69 °C",
        "Density": "0.837 g/cm³ @ Temp: 25 °C"
    }
}