{
    "cas_no": "121-27-7",
    "key_name": "5-Chloro-2-(4-chlorophenoxy)benzenamine",
    "cn_name": "4,4\"-二氯-2-氨基二苯醚;5-氯-2-(4-氯苯氧基)苯胺;",
    "alternate_name": "Benzenamine, 5-chloro-2-(4-chlorophenoxy)-;Aniline, 5-chloro-2-(<em>p</em>-chlorophenoxy)-;5-Chloro-2-(4-chlorophenoxy)benzenamine;5-Chloro-2-(<em>p</em>-chlorophenoxy)aniline;4,4′-Dichloro-2-aminodiphenyl ether;2-Amino-4,4′-dichlorodiphenyl ether;Fast Red FR Base;5-Chloro-2-(4-chlorophenoxy)aniline;Red FR Base;NSC 42129",
    "duplicated_cas_no": "56646-10-7",
    "SMILES": "O(C1=C(N)C=C(Cl)C=C1)C2=CC=C(Cl)C=C2",
    "meta_data": {
        "InChI": "InChI=1S/C12H9Cl2NO/c13-8-1-4-10(5-2-8)16-12-6-3-9(14)7-11(12)15/h1-7H,15H2",
        "InChIKey": null,
        "Canonical SMILES": "ClC1=CC=C(OC2=CC=C(Cl)C=C2N)C=C1",
        "Molecular Formula": "C<sub>12</sub>H<sub>9</sub>Cl<sub>2</sub>NO",
        "Molecular Mass": "254.11",
        "Melting Point": "67 °C"
    }
}