{
    "cas_no": "13170-23-5",
    "key_name": "Acetic acid, 1,1′-dianhydride with silicic acid (H<sub>4</sub>SiO<sub>4</sub>) bis(1,1-dimethylethyl) ester",
    "cn_name": "二叔丁氧基二乙酰氧基硅烷;",
    "alternate_name": "Acetic acid, 1,1′-dianhydride with silicic acid (H<sub>4</sub>SiO<sub>4</sub>) bis(1,1-dimethylethyl) ester;Acetic acid, dianhydride with silicic acid (H<sub>4</sub>SiO<sub>4</sub>) di-<em>tert</em>-butyl ester;Acetic acid, dianhydride with silicic acid (H<sub>4</sub>SiO<sub>4</sub>) bis(1,1-dimethylethyl) ester;Acetic acid, dianhydride with (<em>tert</em>-BuO)<sub>2</sub>(HO)<sub>2</sub>Si;Silicic acid (H<sub>4</sub>SiO<sub>4</sub>), dianhydride with acetic acid di-<em>tert</em>-butyl ester;Di-<em>tert</em>-butoxydiacetoxysilane;Diacetoxydi-<em>tert</em>-butoxysilane;Diacetoxydi-<em>t</em>-butoxysilane;Haftvermittler DBS;[Acetyloxy-bis[(2-methylpropan-2-yl)oxy]silyl] acetate;Dynasylan BDAC;PC 7910",
    "duplicated_cas_no": "",
    "SMILES": "[Si](OC(C)(C)C)(OC(C)(C)C)(OC(C)=O)OC(C)=O",
    "meta_data": {
        "InChI": "InChI=1S/C12H24O6Si/c1-9(13)15-19(16-10(2)14,17-11(3,4)5)18-12(6,7)8/h1-8H3",
        "InChIKey": null,
        "Canonical SMILES": "O=C(O[Si](OC(=O)C)(OC(C)(C)C)OC(C)(C)C)C",
        "Molecular Formula": "C<sub>12</sub>H<sub>24</sub>O<sub>6</sub>Si",
        "Molecular Mass": "292.40",
        "Boiling Point": "102 °C @ Press: 5 Torr",
        "Melting Point": "-4 °C",
        "Density": "1.019 g/cm³"
    }
}