{
    "cas_no": "5293-83-4",
    "key_name": "Phosphonium, (hydroxymethyl)triphenyl-, chloride (1:1)",
    "cn_name": "(羟基甲基)三苯基氯化鏻;(羟基甲基)三苯基氯化?;",
    "alternate_name": "Phosphonium, (hydroxymethyl)triphenyl-, chloride (1:1);Phosphonium, (hydroxymethyl)triphenyl-, chloride;(Hydroxymethyl)triphenylphosphonium chloride;NSC 221281",
    "duplicated_cas_no": "1091617-64-9",
    "SMILES": "[P+](CO)(C1=CC=CC=C1)(C2=CC=CC=C2)C3=CC=CC=C3.[Cl-]",
    "meta_data": {
        "InChI": "InChI=1S/C19H18OP.ClH/c20-16-21(17-10-4-1-5-11-17,18-12-6-2-7-13-18)19-14-8-3-9-15-19;/h1-15,20H,16H2;1H/q+1;/p-1",
        "InChIKey": null,
        "Canonical SMILES": "[Cl-].OC[P+](C=1C=CC=CC1)(C=2C=CC=CC2)C=3C=CC=CC3",
        "Molecular Formula": "C<sub>19</sub>H<sub>18</sub>OP.Cl",
        "Molecular Mass": "",
        "Melting Point": "190-192 °C"
    }
}