{
    "cas_no": "492-14-8",
    "key_name": "(-)-Butin",
    "cn_name": "漆黄素 ( 紫铆素);",
    "alternate_name": "4<em>H</em>-1-Benzopyran-4-one, 2-(3,4-dihydroxyphenyl)-2,3-dihydro-7-hydroxy-, (2<em>S</em>)-;Flavanone, 3′,4′,7-trihydroxy-;Butin;4<em>H</em>-1-Benzopyran-4-one, 2-(3,4-dihydroxyphenyl)-2,3-dihydro-7-hydroxy-, (<em>S</em>)-;(2<em>S</em>)-2-(3,4-Dihydroxyphenyl)-2,3-dihydro-7-hydroxy-4<em>H</em>-1-benzopyran-4-one;(-)-Butin;7,3′,4′-Trihydroxyflavanone;(<em>S</em>)-7,3′,4′-Trihydroxyflavanone",
    "duplicated_cas_no": "",
    "SMILES": "O=C1C=2C(O[C@@H](C1)C3=CC(O)=C(O)C=C3)=CC(O)=CC2",
    "meta_data": {
        "InChI": "InChI=1S/C15H12O5/c16-9-2-3-10-12(18)7-14(20-15(10)6-9)8-1-4-11(17)13(19)5-8/h1-6,14,16-17,19H,7H2/t14-/m0/s1",
        "InChIKey": null,
        "Canonical SMILES": "O=C1C2=CC=C(O)C=C2OC(C3=CC=C(O)C(O)=C3)C1",
        "Molecular Formula": "C<sub>15</sub>H<sub>12</sub>O<sub>5</sub>",
        "Molecular Mass": "272.25",
        "Melting Point": "224-226 °C"
    }
}