{
    "cas_no": "14121-49-4",
    "key_name": "1<em>H</em>,3<em>H</em>-Thioxantheno[2,1,9-<em>def</em>]-2-benzopyran-1,3-dione",
    "cn_name": "苯并噻吨二羧酸酐;",
    "alternate_name": "1<em>H</em>,3<em>H</em>-Thioxantheno[2,1,9-<em>def</em>]-2-benzopyran-1,3-dione;Benzo[<em>kl</em>]thioxanthene-3,4-dicarboxylic anhydride;Benzothioxanthene-3,4-dicarboxylic anhydride;4,10-Benzothioxanthene-3,1′-dicarboxylic acid anhydride",
    "duplicated_cas_no": "2718130-93-7",
    "SMILES": "O=C1C=2C3=C4C(C=5C(SC4=CC=C3C(=O)O1)=CC=CC5)=CC2",
    "meta_data": {
        "InChI": "InChI=1S/C18H8O3S/c19-17-11-6-5-10-9-3-1-2-4-13(9)22-14-8-7-12(18(20)21-17)15(11)16(10)14/h1-8H",
        "InChIKey": null,
        "Canonical SMILES": "O=C1OC(=O)C=2C=CC=3C=4C=CC=CC4SC5=CC=C1C2C53",
        "Molecular Formula": "C<sub>18</sub>H<sub>8</sub>O<sub>3</sub>S",
        "Molecular Mass": "304.32",
        "Melting Point": "&gt;300 °C"
    }
}