{
    "cas_no": "1670-87-7",
    "key_name": "Indole-5-carboxamide",
    "cn_name": null,
    "alternate_name": "1<em>H</em>-Indole-5-carboxamide;Indole-5-carboxamide;5-(Aminocarbonyl)-1<em>H</em>-indole;5-Carbamoylindole;SD 169",
    "duplicated_cas_no": "",
    "SMILES": "C(N)(=O)C=1C=C2C(=CC1)NC=C2",
    "meta_data": {
        "InChI": "InChI=1S/C9H8N2O/c10-9(12)7-1-2-8-6(5-7)3-4-11-8/h1-5,11H,(H2,10,12)",
        "InChIKey": null,
        "Canonical SMILES": "O=C(N)C=1C=CC=2NC=CC2C1",
        "Molecular Formula": "C<sub>9</sub>H<sub>8</sub>N<sub>2</sub>O",
        "Molecular Mass": "160.17",
        "Melting Point": "165.5-167.0 °C"
    }
}