{
    "cas_no": "1005-67-0",
    "key_name": "4-Butylmorpholine",
    "cn_name": "4-丁基吗啉;",
    "alternate_name": "Morpholine, 4-butyl-;4-Butylmorpholine;<em>N</em>-Butylmorpholine;NSC 28457;Butylmorpholine",
    "duplicated_cas_no": "",
    "SMILES": "C(CCC)N1CCOCC1",
    "meta_data": {
        "InChI": "InChI=1S/C8H17NO/c1-2-3-4-9-5-7-10-8-6-9/h2-8H2,1H3",
        "InChIKey": null,
        "Canonical SMILES": "O1CCN(CC1)CCCC",
        "Molecular Formula": "C<sub>8</sub>H<sub>17</sub>NO",
        "Molecular Mass": "143.23",
        "Boiling Point": "213.5 °C",
        "Melting Point": "-57.1 °C",
        "Density": "0.8105 g/cm³ @ Temp: 20 °C"
    }
}