{
    "cas_no": "5932-79-6",
    "key_name": "4-Nonanol",
    "cn_name": "4-壬醇;丙基戊基甲醇;",
    "alternate_name": "4-Nonanol;<em>dl</em>-Nonan-4-ol;(±)-4-Nonanol",
    "duplicated_cas_no": "74742-09-9",
    "SMILES": "C(C(CCC)O)CCCC",
    "meta_data": {
        "InChI": "InChI=1S/C9H20O/c1-3-5-6-8-9(10)7-4-2/h9-10H,3-8H2,1-2H3",
        "InChIKey": null,
        "Canonical SMILES": "OC(CCC)CCCCC",
        "Molecular Formula": "C<sub>9</sub>H<sub>20</sub>O",
        "Molecular Mass": "144.25",
        "Boiling Point": "192-193 °C @ Press: 769 Torr",
        "Density": "0.8263 g/cm³ @ Temp: 20 °C"
    }
}