{
    "cas_no": "2237-36-7",
    "key_name": "4-Methoxysalicylic acid",
    "cn_name": "4-甲氧基水杨酸;2-羟基-4-甲氧基苯甲酸;",
    "alternate_name": "Benzoic acid, 2-hydroxy-4-methoxy-;<em>p</em>-Anisic acid, 2-hydroxy-;2-Hydroxy-4-methoxybenzoic acid;2-Hydroxy-<em>p</em>-anisic acid;4-Methoxysalicylic acid;4-Methoxy-2-hydroxybenzoic acid;<em>p</em>-Methoxysalicylic acid;NSC 94304",
    "duplicated_cas_no": "",
    "SMILES": "C(O)(=O)C1=C(O)C=C(OC)C=C1",
    "meta_data": {
        "InChI": "InChI=1S/C8H8O4/c1-12-5-2-3-6(8(10)11)7(9)4-5/h2-4,9H,1H3,(H,10,11)",
        "InChIKey": null,
        "Canonical SMILES": "O=C(O)C1=CC=C(OC)C=C1O",
        "Molecular Formula": "C<sub>8</sub>H<sub>8</sub>O<sub>4</sub>",
        "Molecular Mass": "168.15",
        "Melting Point": "157 °C"
    }
}