{
    "cas_no": "3748-13-8",
    "key_name": "1,3-Diisopropenylbenzene",
    "cn_name": null,
    "alternate_name": "Benzene, 1,3-bis(1-methylethenyl)-;Benzene, <em>m</em>-diisopropenyl-;1,3-Bis(1-methylethenyl)benzene;<em>m</em>-Diisopropenylbenzene;1,3-Diisopropenylbenzene;<em>m</em>-Bis(1-methylvinyl)benzene;1,3-Bis(1-methylvinyl)benzene;1,3-Bis(prop-1-en-2-yl)benzene",
    "duplicated_cas_no": "",
    "SMILES": "C(C)(=C)C1=CC(C(C)=C)=CC=C1",
    "meta_data": {
        "InChI": "InChI=1S/C12H14/c1-9(2)11-6-5-7-12(8-11)10(3)4/h5-8H,1,3H2,2,4H3",
        "InChIKey": null,
        "Canonical SMILES": "C=C(C1=CC=CC(=C1)C(=C)C)C",
        "Molecular Formula": "C<sub>12</sub>H<sub>14</sub>",
        "Molecular Mass": "158.24",
        "Boiling Point": "102 °C @ Press: 20 Torr"
    }
}