{
    "cas_no": "1739-84-0",
    "key_name": "1,2-Dimethylimidazole",
    "cn_name": "1,2-二甲基咪唑;",
    "alternate_name": "1<em>H</em>-Imidazole, 1,2-dimethyl-;Imidazole, 1,2-dimethyl-;1,2-Dimethyl-1<em>H</em>-imidazole;1,2-Dimethylimidazole;<em>N</em>,2-Dimethylimidazole;PC CAT DMI;Toyocat DP 70;SN 25;SN 25 (vulcanizing agent);Curezol 1,2DMZ;NSC 111174;Toyocat DMI;Toyocat DM 70;1,2DMZ;Nichigo Imidazole 1,2-DMI;Curezol 12DMZ;Lupragen DMI;Dabco 2040;Dabco 2039;Dabco 2041;Kaolizer 390;Kaolizer NO 390;DM 70;Kaolizer 350",
    "duplicated_cas_no": "204854-16-0;226992-37-6;259222-76-9;263899-38-3;1821216-04-9;2611300-60-6",
    "SMILES": "CC=1N(C)C=CN1",
    "meta_data": {
        "InChI": "InChI=1S/C5H8N2/c1-5-6-3-4-7(5)2/h3-4H,1-2H3",
        "InChIKey": null,
        "Canonical SMILES": "N=1C=CN(C1C)C",
        "Molecular Formula": "C<sub>5</sub>H<sub>8</sub>N<sub>2</sub>",
        "Molecular Mass": "96.13",
        "Boiling Point": "206 °C",
        "Melting Point": "39-41 °C"
    }
}