{
    "cas_no": "114432-13-2",
    "key_name": "Fantofarone",
    "cn_name": null,
    "alternate_name": "Benzeneethanamine, 3,4-dimethoxy-<em>N</em>-methyl-<em>N</em>-[3-[4-[[2-(1-methylethyl)-1-indolizinyl]sulfonyl]phenoxy]propyl]-;3,4-Dimethoxy-<em>N</em>-methyl-<em>N</em>-[3-[4-[[2-(1-methylethyl)-1-indolizinyl]sulfonyl]phenoxy]propyl]benzeneethanamine;SR 33557;Fantofarone",
    "duplicated_cas_no": "",
    "SMILES": "S(=O)(=O)(C1=C2N(C=C1C(C)C)C=CC=C2)C3=CC=C(OCCCN(CCC4=CC(OC)=C(OC)C=C4)C)C=C3",
    "meta_data": {
        "InChI": "InChI=1S/C31H38N2O5S/c1-23(2)27-22-33-18-7-6-9-28(33)31(27)39(34,35)26-13-11-25(12-14-26)38-20-8-17-32(3)19-16-24-10-15-29(36-4)30(21-24)37-5/h6-7,9-15,18,21-23H,8,16-17,19-20H2,1-5H3",
        "InChIKey": null,
        "Canonical SMILES": "O=S(=O)(C1=CC=C(OCCCN(C)CCC2=CC=C(OC)C(OC)=C2)C=C1)C3=C4C=CC=CN4C=C3C(C)C",
        "Molecular Formula": "C<sub>31</sub>H<sub>38</sub>N<sub>2</sub>O<sub>5</sub>S",
        "Molecular Mass": "550.71",
        "Melting Point": "82-83 °C",
        "Density": "1.21 g/cm³"
    }
}