{
    "cas_no": "6160-80-1",
    "key_name": "4-Methylumbelliferyl β-<span class=\"text-smallcaps\">D</span>-glucuronide",
    "cn_name": "4-甲基伞型酮-beta-D-葡糖苷酸;4-甲基伞花基-beta-D-葡糖苷酸;4-甲基-2-氧代-2H-1-苯并吡喃-7-基-beta-D-葡;",
    "alternate_name": "β-<span class=\"text-smallcaps\">D</span>-Glucopyranosiduronic acid, 4-methyl-2-oxo-2<em>H</em>-1-benzopyran-7-yl;Glucopyranosiduronic acid, 4-methyl-2-oxo-2<em>H</em>-1-benzopyran-7-yl, β-<span class=\"text-smallcaps\">D</span>-;4-Methyl-2-oxo-2<em>H</em>-1-benzopyran-7-yl β-<span class=\"text-smallcaps\">D</span>-glucopyranosiduronic acid;4-Methylumbelliferone glucuronide;4-Methylumbelliferyl β-<span class=\"text-smallcaps\">D</span>-glucuronide;4-Methylumbelliferone β-<span class=\"text-smallcaps\">D</span>-glucuronide;4-Methylumbelliferyl glucuronide;Hymecromon-7-<em>O</em>-4-β-<span class=\"text-smallcaps\">D</span>-glucuronide;4-Methylumbelliferyl-β-<span class=\"text-smallcaps\">D</span>-glucuronic acid",
    "duplicated_cas_no": "30138-68-2;84434-84-4;1049980-85-9",
    "SMILES": "CC=1C=2C(=CC(O[C@@H]3O[C@H](C(O)=O)[C@@H](O)[C@H](O)[C@H]3O)=CC2)OC(=O)C1",
    "meta_data": {
        "InChI": "InChI=1S/C16H16O9/c1-6-4-10(17)24-9-5-7(2-3-8(6)9)23-16-13(20)11(18)12(19)14(25-16)15(21)22/h2-5,11-14,16,18-20H,1H3,(H,21,22)/t11-,12-,13+,14-,16+/m0/s1",
        "InChIKey": null,
        "Canonical SMILES": "O=C(O)C1OC(OC=2C=CC3=C(OC(=O)C=C3C)C2)C(O)C(O)C1O",
        "Molecular Formula": "C<sub>16</sub>H<sub>16</sub>O<sub>9</sub>",
        "Molecular Mass": "352.29",
        "Melting Point": "140-143 °C"
    }
}