{
    "cas_no": "5720-06-9",
    "key_name": "2-Methoxyphenylboronic acid",
    "cn_name": "2-甲氧基苯基硼酸;2-甲氧基苯硼酸;",
    "alternate_name": "Boronic acid, <em>B</em>-(2-methoxyphenyl)-;Benzeneboronic acid, <em>o</em>-methoxy-;Boronic acid, (2-methoxyphenyl)-;<em>B</em>-(2-Methoxyphenyl)boronic acid;<em>o</em>-Methoxybenzeneboronic acid;<em>o</em>-Anisylboronic acid;<em>o</em>-Methoxyphenylboronic acid;(2-Methoxyphenyl)boric acid;2-Methoxybenzeneboronic acid;2-Methoxyphenylboronic acid",
    "duplicated_cas_no": "1643806-50-1;2093414-93-6",
    "SMILES": "O(C)C1=C(B(O)O)C=CC=C1",
    "meta_data": {
        "InChI": "InChI=1S/C7H9BO3/c1-11-7-5-3-2-4-6(7)8(9)10/h2-5,9-10H,1H3",
        "InChIKey": null,
        "Canonical SMILES": "OB(O)C=1C=CC=CC1OC",
        "Molecular Formula": "C<sub>7</sub>H<sub>9</sub>BO<sub>3</sub>",
        "Molecular Mass": "151.96",
        "Melting Point": "80-81 °C"
    }
}