{
    "cas_no": "6146-52-7",
    "key_name": "5-Nitroindole",
    "cn_name": "5-硝基吲哚;",
    "alternate_name": "1<em>H</em>-Indole, 5-nitro-;Indole, 5-nitro-;5-Nitro-1<em>H</em>-indole;5-Nitroindole;NSC 520594",
    "duplicated_cas_no": "",
    "SMILES": "N(=O)(=O)C=1C=C2C(=CC1)NC=C2",
    "meta_data": {
        "InChI": "InChI=1S/C8H6N2O2/c11-10(12)7-1-2-8-6(5-7)3-4-9-8/h1-5,9H",
        "InChIKey": null,
        "Canonical SMILES": "O=N(=O)C=1C=CC=2NC=CC2C1",
        "Molecular Formula": "C<sub>8</sub>H<sub>6</sub>N<sub>2</sub>O<sub>2</sub>",
        "Molecular Mass": "162.15",
        "Melting Point": "140-142 °C"
    }
}