{
    "cas_no": "1092443-55-4",
    "key_name": "(2<em>S</em>,3<em>S</em>)-3-[[3-(1-Methylethyl)-7-[(phenylmethyl)amino]pyrazolo[1,5-<em>a</em>]pyrimidin-5-yl]amino]-1,2,4-butanetriol",
    "cn_name": null,
    "alternate_name": "1,2,4-Butanetriol, 3-[[3-(1-methylethyl)-7-[(phenylmethyl)amino]pyrazolo[1,5-<em>a</em>]pyrimidin-5-yl]amino]-, (2<em>S</em>,3<em>S</em>)-;(2<em>S</em>,3<em>S</em>)-3-[[3-(1-Methylethyl)-7-[(phenylmethyl)amino]pyrazolo[1,5-<em>a</em>]pyrimidin-5-yl]amino]-1,2,4-butanetriol;BS 194",
    "duplicated_cas_no": "",
    "SMILES": "C(C)(C)C1=C2N(C(NCC3=CC=CC=C3)=CC(N[C@H]([C@@H](CO)O)CO)=N2)N=C1",
    "meta_data": {
        "InChI": "InChI=1S/C20H27N5O3/c1-13(2)15-10-22-25-19(21-9-14-6-4-3-5-7-14)8-18(24-20(15)25)23-16(11-26)17(28)12-27/h3-8,10,13,16-17,21,26-28H,9,11-12H2,1-2H3,(H,23,24)/t16-,17+/m0/s1",
        "InChIKey": null,
        "Canonical SMILES": "OCC(O)C(NC1=NC2=C(C=NN2C(=C1)NCC=3C=CC=CC3)C(C)C)CO",
        "Molecular Formula": "C<sub>20</sub>H<sub>27</sub>N<sub>5</sub>O<sub>3</sub>",
        "Molecular Mass": "385.46",
        "Melting Point": "184-186 °C"
    }
}