{
    "cas_no": "119-13-1",
    "key_name": "δ-Tocopherol",
    "cn_name": "3,4-二氢-2,8-二甲基-2-(4,8,12-三甲基十三烷基)取代1-苯并吡喃-6-醇;",
    "alternate_name": "2<em>H</em>-1-Benzopyran-6-ol, 3,4-dihydro-2,8-dimethyl-2-[(4<em>R</em>,8<em>R</em>)-4,8,12-trimethyltridecyl]-, (2<em>R</em>)-;6-Chromanol, 2,8-dimethyl-2-(4,8,12-trimethyltridecyl)-;2<em>H</em>-1-Benzopyran-6-ol, 3,4-dihydro-2,8-dimethyl-2-(4,8,12-trimethyltridecyl)-, [2<em>R</em>-[2<em>R</em>*(4<em>R</em>*,8<em>R</em>*)]]-;(2<em>R</em>)-3,4-Dihydro-2,8-dimethyl-2-[(4<em>R</em>,8<em>R</em>)-4,8,12-trimethyltridecyl]-2<em>H</em>-1-benzopyran-6-ol;8-Methyltocol;δ-Tocopherol;(+)-δ-Tocopherol;<em>d</em>-δ-Tocopherol;δ-<span class=\"text-smallcaps\">D</span>-Tocopherol;(<em>R</em>,<em>R</em>,<em>R</em>)-δ-Tocopherol;δ-Vitamin E;(2<em>R</em>,4′<em>R</em>,8′<em>R</em>)-δ-Tocopherol;<span class=\"text-smallcaps\">D</span>-δ-Tocopherol;E-Mix D;E 309",
    "duplicated_cas_no": "16698-36-5;37816-35-6;78656-14-1;2914217-06-2",
    "SMILES": "CC1=C2C(CC[C@](CCC[C@@H](CCC[C@@H](CCCC(C)C)C)C)(C)O2)=CC(O)=C1",
    "meta_data": {
        "InChI": "InChI=1S/C27H46O2/c1-20(2)10-7-11-21(3)12-8-13-22(4)14-9-16-27(6)17-15-24-19-25(28)18-23(5)26(24)29-27/h18-22,28H,7-17H2,1-6H3/t21-,22-,27-/m1/s1",
        "InChIKey": null,
        "Canonical SMILES": "OC=1C=C(C=2OC(C)(CCC2C1)CCCC(C)CCCC(C)CCCC(C)C)C",
        "Molecular Formula": "C<sub>27</sub>H<sub>46</sub>O<sub>2</sub>",
        "Molecular Mass": "402.65",
        "Melting Point": "&lt;25 °C"
    }
}