{
    "cas_no": "14799-94-1",
    "key_name": "Dichlorohexylmethylsilane",
    "cn_name": "己基甲基二氯硅烷;",
    "alternate_name": "Silane, dichlorohexylmethyl-;Dichlorohexylmethylsilane;Hexylmethyldichlorosilane;2,2-Dichloro-2-silaoctane;<em>n</em>-Hexyldichloromethylsilane",
    "duplicated_cas_no": "",
    "SMILES": "C(C[Si](C)(Cl)Cl)CCCC",
    "meta_data": {
        "InChI": "InChI=1S/C7H16Cl2Si/c1-3-4-5-6-7-10(2,8)9/h3-7H2,1-2H3",
        "InChIKey": null,
        "Canonical SMILES": "Cl[Si](Cl)(C)CCCCCC",
        "Molecular Formula": "C<sub>7</sub>H<sub>16</sub>Cl<sub>2</sub>Si",
        "Molecular Mass": "199.19",
        "Boiling Point": "204-206 °C",
        "Density": "0.993 g/cm³"
    }
}