{
    "cas_no": "17289-19-9",
    "key_name": "Methyl 1-methyl-1<em>H</em>-imidazole-4-carboxylate",
    "cn_name": null,
    "alternate_name": "1<em>H</em>-Imidazole-4-carboxylic acid, 1-methyl-, methyl ester;Imidazole-4-carboxylic acid, 1-methyl-, methyl ester;Methyl 1-methyl-1<em>H</em>-imidazole-4-carboxylate;Methyl 1-methylimidazole-4-carboxylate;1-Methyl-1<em>H</em>-imidazole-4-carboxylic acid methyl ester",
    "duplicated_cas_no": "",
    "SMILES": "C(OC)(=O)C1=CN(C)C=N1",
    "meta_data": {
        "InChI": "InChI=1S/C6H8N2O2/c1-8-3-5(7-4-8)6(9)10-2/h3-4H,1-2H3",
        "InChIKey": null,
        "Canonical SMILES": "O=C(OC)C=1N=CN(C1)C",
        "Molecular Formula": "C<sub>6</sub>H<sub>8</sub>N<sub>2</sub>O<sub>2</sub>",
        "Molecular Mass": "140.14",
        "Melting Point": "103-104 °C"
    }
}