{
    "cas_no": "3240-72-0",
    "key_name": "5,6-Diaminouracil",
    "cn_name": "4,5-二氨基脲嘧啶;5,6-氨基-2,4(1H,3H)-嘧啶二酮;",
    "alternate_name": "2,4(1<em>H</em>,3<em>H</em>)-Pyrimidinedione, 5,6-diamino-;Uracil, 5,6-diamino-;5,6-Diamino-2,4(1<em>H</em>,3<em>H</em>)-pyrimidinedione;5,6-Diaminouracil;5,6-Diamino-2,4-dihydroxypyrimidine;4,5-Diamino-2,6-dihydroxypyrimidine;4,5-Diaminouracil;2,6-Dihydroxy-4,5-diaminopyrimidine;2,4-Dihydroxy-5,6-diaminopyrimidine",
    "duplicated_cas_no": "13034-83-8;23899-74-3;51171-03-0",
    "SMILES": "NC1=C(N)NC(=O)NC1=O",
    "meta_data": {
        "InChI": "InChI=1S/C4H6N4O2/c5-1-2(6)7-4(10)8-3(1)9/h5H2,(H4,6,7,8,9,10)",
        "InChIKey": null,
        "Canonical SMILES": "O=C1NC(=O)C(N)=C(N)N1",
        "Molecular Formula": "C<sub>4</sub>H<sub>6</sub>N<sub>4</sub>O<sub>2</sub>",
        "Molecular Mass": "142.12",
        "Melting Point": "&gt;300 °C"
    }
}