{
    "cas_no": "4938-52-7",
    "key_name": "(±)-1-Hepten-3-ol",
    "cn_name": "1-庚烯-3-醇;丁基乙烯基甲醇;",
    "alternate_name": "1-Hepten-3-ol;(±)-1-Hepten-3-ol;NSC 93797;1-Vinylpentanol",
    "duplicated_cas_no": "67928-91-0",
    "SMILES": "C(CCCC)(C=C)O",
    "meta_data": {
        "InChI": "InChI=1S/C7H14O/c1-3-5-6-7(8)4-2/h4,7-8H,2-3,5-6H2,1H3",
        "InChIKey": null,
        "Canonical SMILES": "OC(C=C)CCCC",
        "Molecular Formula": "C<sub>7</sub>H<sub>14</sub>O",
        "Molecular Mass": "114.19",
        "Boiling Point": "153.5-154 °C",
        "Density": "0.835 g/cm³ @ Temp: 22 °C"
    }
}