{
    "cas_no": "57-39-6",
    "key_name": "Metepa",
    "cn_name": "三(2-甲基氮丙啶)氧化膦;",
    "alternate_name": "Aziridine, 1,1′,1′′-phosphinylidynetris[2-methyl-;Phosphine oxide, tris(2-methyl-1-aziridinyl)-;1,1′,1′′-Phosphinylidynetris[2-methylaziridine];EMT 50003;MAPO;Metapoxide;Metepa;Methaphoxide;Methyl aphoxide;Tris(2-methyl-1-aziridinyl)phosphine oxide;Tris(methylaziridinyl)phosphine oxide;Tris(1,2-propylene)phosphoramide;Tris(2-methylaziridinyl)phosphine oxide;Trimethylaziridinylphosphine oxide;Metapa;MAPO (chemosterilant);NSC 54054",
    "duplicated_cas_no": "23701-62-4",
    "SMILES": "P(=O)(N1C(C)C1)(N2C(C)C2)N3C(C)C3",
    "meta_data": {
        "InChI": "InChI=1S/C9H18N3OP/c1-7-4-10(7)14(13,11-5-8(11)2)12-6-9(12)3/h7-9H,4-6H2,1-3H3",
        "InChIKey": null,
        "Canonical SMILES": "O=P(N1CC1C)(N2CC2C)N3CC3C",
        "Molecular Formula": "C<sub>9</sub>H<sub>18</sub>N<sub>3</sub>OP",
        "Molecular Mass": "215.23",
        "Boiling Point": "91 °C",
        "Melting Point": "&lt;25 °C"
    }
}