{
    "cas_no": "457-68-1",
    "key_name": "1,1′-Methylenebis[4-fluorobenzene]",
    "cn_name": "4,4\"-二氟二苯甲烷;双(4-氟苯基)甲烷;",
    "alternate_name": "Benzene, 1,1′-methylenebis[4-fluoro-;Methane, bis(<em>p</em>-fluorophenyl)-;1,1′-Methylenebis[4-fluorobenzene];4,4′-Difluorodiphenylmethane;1-Fluoro-4-(4-fluorobenzyl)benzene;Bis(<em>p</em>-fluorophenyl)methane;NSC 51803;Bis(4-fluorophenyl)methane",
    "duplicated_cas_no": "",
    "SMILES": "C(C1=CC=C(F)C=C1)C2=CC=C(F)C=C2",
    "meta_data": {
        "InChI": "InChI=1S/C13H10F2/c14-12-5-1-10(2-6-12)9-11-3-7-13(15)8-4-11/h1-8H,9H2",
        "InChIKey": null,
        "Canonical SMILES": "FC1=CC=C(C=C1)CC2=CC=C(F)C=C2",
        "Molecular Formula": "C<sub>13</sub>H<sub>10</sub>F<sub>2</sub>",
        "Molecular Mass": "204.22",
        "Boiling Point": "258-260 °C @ Press: 742 Torr",
        "Melting Point": "28.5 °C"
    }
}