{
    "cas_no": "17600-72-5",
    "key_name": "1-Ethoxy-2-methoxybenzene",
    "cn_name": "邻乙氧基苯甲醚;",
    "alternate_name": "Benzene, 1-ethoxy-2-methoxy-;1-Ethoxy-2-methoxybenzene;Ethyl <em>o</em>-methoxyphenyl ether",
    "duplicated_cas_no": "",
    "SMILES": "O(CC)C1=C(OC)C=CC=C1",
    "meta_data": {
        "InChI": "InChI=1S/C9H12O2/c1-3-11-9-7-5-4-6-8(9)10-2/h4-7H,3H2,1-2H3",
        "InChIKey": null,
        "Canonical SMILES": "O(C=1C=CC=CC1OCC)C",
        "Molecular Formula": "C<sub>9</sub>H<sub>12</sub>O<sub>2</sub>",
        "Molecular Mass": "152.19",
        "Boiling Point": "207-209 °C"
    }
}