{
    "cas_no": "1547-36-0",
    "key_name": "4,4,4-Trifluoro-3-hydroxy-3-(trifluoromethyl)butanoic acid",
    "cn_name": "4,4,4-三氟-3-羟基-3-(三氟甲基)丁酸;",
    "alternate_name": "Butanoic acid, 4,4,4-trifluoro-3-hydroxy-3-(trifluoromethyl)-;Butyric acid, 4,4,4-trifluoro-3-hydroxy-3-(trifluoromethyl)-;4,4,4-Trifluoro-3-hydroxy-3-(trifluoromethyl)butanoic acid;4,4,4-Trifluoro-3-hydroxy-3-(trifluoromethyl)butyric acid;3-Hydroxy-4,4,4-trifluoro-3-(trifluoromethyl)butanoic acid",
    "duplicated_cas_no": "",
    "SMILES": "C(CC(O)=O)(C(F)(F)F)(C(F)(F)F)O",
    "meta_data": {
        "InChI": "InChI=1S/C5H4F6O3/c6-4(7,8)3(14,1-2(12)13)5(9,10)11/h14H,1H2,(H,12,13)",
        "InChIKey": null,
        "Canonical SMILES": "O=C(O)CC(O)(C(F)(F)F)C(F)(F)F",
        "Molecular Formula": "C<sub>5</sub>H<sub>4</sub>F<sub>6</sub>O<sub>3</sub>",
        "Molecular Mass": "226.07",
        "Melting Point": "89-89.5 °C"
    }
}