{
    "cas_no": "13816-33-6",
    "key_name": "4-(1-Methylethyl)benzonitrile",
    "cn_name": "4-异丙基苯甲腈;枯茗腈;",
    "alternate_name": "Benzonitrile, 4-(1-methylethyl)-;Benzonitrile, <em>p</em>-isopropyl-;4-(1-Methylethyl)benzonitrile;<em>p</em>-Cyanocumene;<em>p</em>-Isopropylbenzonitrile;Cuminylnitrile;4-Isopropylbenzonitrile",
    "duplicated_cas_no": "",
    "SMILES": "C(C)(C)C1=CC=C(C#N)C=C1",
    "meta_data": {
        "InChI": "InChI=1S/C10H11N/c1-8(2)10-5-3-9(7-11)4-6-10/h3-6,8H,1-2H3",
        "InChIKey": null,
        "Canonical SMILES": "N#CC1=CC=C(C=C1)C(C)C",
        "Molecular Formula": "C<sub>10</sub>H<sub>11</sub>N",
        "Molecular Mass": "145.20",
        "Boiling Point": "143-145 °C @ Press: 40 Torr"
    }
}