{
    "cas_no": "80715-22-6",
    "key_name": "4-(Bromomethyl)-5-methyl-1,3-dioxol-2-one",
    "cn_name": "4-溴甲基-5-甲基-1,3-间二氧杂环戊烯-2-酮;",
    "alternate_name": "1,3-Dioxol-2-one, 4-(bromomethyl)-5-methyl-;4-(Bromomethyl)-5-methyl-1,3-dioxol-2-one;(5-Methyl-2-oxo-1,3-dioxol-4-yl)methyl bromide;5-(Bromomethyl)-4-methyl-2-oxo-1,3-dioxole;4-(Bromomethyl)-5-methyl-2-oxo-1,3-dioxole",
    "duplicated_cas_no": "",
    "SMILES": "C(Br)C1=C(C)OC(=O)O1",
    "meta_data": {
        "InChI": "InChI=1S/C5H5BrO3/c1-3-4(2-6)9-5(7)8-3/h2H2,1H3",
        "InChIKey": null,
        "Canonical SMILES": "O=C1OC(=C(O1)CBr)C",
        "Molecular Formula": "C<sub>5</sub>H<sub>5</sub>BrO<sub>3</sub>",
        "Molecular Mass": "193.00",
        "Boiling Point": "115-120 °C @ Press: 5 Torr"
    }
}