{
    "cas_no": "27064-94-4",
    "key_name": "4,4′-Difluorobenzhydryl chloride",
    "cn_name": "氯代双(4-氟苯基甲烷);氯代双(4-氟苯)甲烷;",
    "alternate_name": "Benzene, 1,1′-(chloromethylene)bis[4-fluoro-;Methane, chlorobis(<em>p</em>-fluorophenyl)-;1,1′-(Chloromethylene)bis[4-fluorobenzene];Bis(<em>p</em>-fluorophenyl)methyl chloride;4,4′-Difluorobenzhydryl chloride;Bis(4-fluorophenyl)methyl chloride;Chlorobis(<em>p</em>-fluorophenyl)methane;4,4′-Difluorodiphenylmethyl chloride;Chlorobis(4-fluorophenyl)methane;1-[Chloro-(4-fluorophenyl)methyl]-4-fluorobenzene;4,4′-(Chloromethylene)bis(fluorobenzene)",
    "duplicated_cas_no": "",
    "SMILES": "C(Cl)(C1=CC=C(F)C=C1)C2=CC=C(F)C=C2",
    "meta_data": {
        "InChI": "InChI=1S/C13H9ClF2/c14-13(9-1-5-11(15)6-2-9)10-3-7-12(16)8-4-10/h1-8,13H",
        "InChIKey": null,
        "Canonical SMILES": "FC1=CC=C(C=C1)C(Cl)C2=CC=C(F)C=C2",
        "Molecular Formula": "C<sub>13</sub>H<sub>9</sub>ClF<sub>2</sub>",
        "Molecular Mass": "238.66",
        "Boiling Point": "129-130 °C @ Press: 2 Torr"
    }
}