{
    "cas_no": "7783-47-3",
    "key_name": "Stop",
    "cn_name": "二氟化锡;氟化亚锡;",
    "alternate_name": "Tin fluoride (SnF<sub>2</sub>);Fluoristan;Stannous fluoride;Tin bifluoride;Tin difluoride;Stannous fluoride (SnF<sub>2</sub>);Gel-Tin;Tin(II) fluoride;Stop;Difluorostannylene",
    "duplicated_cas_no": "12324-56-0;12324-60-6",
    "SMILES": "[Sn](F)F",
    "meta_data": {
        "InChI": "InChI=1S/2FH.Sn/h2*1H;/q;;+2/p-2",
        "InChIKey": null,
        "Canonical SMILES": "F[Sn]F",
        "Molecular Formula": "F<sub>2</sub>Sn",
        "Molecular Mass": "",
        "Boiling Point": "850 °C",
        "Melting Point": "213 °C",
        "Density": "4.57 g/cm³ @ Temp: 25 °C"
    }
}