{
    "cas_no": "10026-12-7",
    "key_name": "Niobium pentachloride",
    "cn_name": null,
    "alternate_name": "Niobium chloride (NbCl<sub>5</sub>);Niobium pentachloride;Niobium chloride;Pentachloroniobium;Niobium pentachloride (NbCl<sub>5</sub>);Niobium(V) chloride;Columbium pentachloride",
    "duplicated_cas_no": "",
    "SMILES": "[Nb](Cl)(Cl)(Cl)(Cl)Cl",
    "meta_data": {
        "InChI": "InChI=1S/5ClH.Nb/h5*1H;/q;;;;;+5/p-5",
        "InChIKey": null,
        "Canonical SMILES": "Cl[Nb](Cl)(Cl)(Cl)Cl",
        "Molecular Formula": "Cl<sub>5</sub>Nb",
        "Molecular Mass": "",
        "Boiling Point": "254 °C",
        "Melting Point": "205-209.5 °C"
    }
}