{
    "cas_no": "521-34-6",
    "key_name": "Sciadopitysin",
    "cn_name": null,
    "alternate_name": "4<em>H</em>-1-Benzopyran-4-one, 5,7-dihydroxy-8-[5-(5-hydroxy-7-methoxy-4-oxo-4<em>H</em>-1-benzopyran-2-yl)-2-methoxyphenyl]-2-(4-methoxyphenyl)-;3′′′,8-Biflavone, 5,5′′,7-trihydroxy-4′,4′′′,7′′-trimethoxy-;Sciadopitysin;5,7-Dihydroxy-8-[5-(5-hydroxy-7-methoxy-4-oxo-4<em>H</em>-1-benzopyran-2-yl)-2-methoxyphenyl]-2-(4-methoxyphenyl)-4<em>H</em>-1-benzopyran-4-one;7,4′,4′′′-Trimethylamentoflavone;NSC 45108",
    "duplicated_cas_no": "",
    "SMILES": "OC=1C(=C2C(C(=O)C=C(O2)C3=CC=C(OC)C=C3)=C(O)C1)C4=CC(=CC=C4OC)C=5OC=6C(C(=O)C5)=C(O)C=C(OC)C6",
    "meta_data": {
        "InChI": "InChI=1S/C33H24O10/c1-39-18-7-4-16(5-8-18)27-15-25(38)32-23(36)13-22(35)30(33(32)43-27)20-10-17(6-9-26(20)41-3)28-14-24(37)31-21(34)11-19(40-2)12-29(31)42-28/h4-15,34-36H,1-3H3",
        "InChIKey": null,
        "Canonical SMILES": "O=C1C=C(OC2=CC(OC)=CC(O)=C12)C=3C=CC(OC)=C(C3)C4=C(O)C=C(O)C=5C(=O)C=C(OC54)C=6C=CC(OC)=CC6",
        "Molecular Formula": "C<sub>33</sub>H<sub>24</sub>O<sub>10</sub>",
        "Molecular Mass": "580.54",
        "Melting Point": "286-287 °C (decomp)"
    }
}