{
    "cas_no": "184416-83-9",
    "key_name": "2,3-Dichloro-4-pyridinamine",
    "cn_name": null,
    "alternate_name": "4-Pyridinamine, 2,3-dichloro-;2,3-Dichloro-4-pyridinamine;4-Amino-2,3-dichloropyridine",
    "duplicated_cas_no": "",
    "SMILES": "ClC=1C(N)=CC=NC1Cl",
    "meta_data": {
        "InChI": "InChI=1S/C5H4Cl2N2/c6-4-3(8)1-2-9-5(4)7/h1-2H,(H2,8,9)",
        "InChIKey": null,
        "Canonical SMILES": "ClC1=NC=CC(N)=C1Cl",
        "Molecular Formula": "C<sub>5</sub>H<sub>4</sub>Cl<sub>2</sub>N<sub>2</sub>",
        "Molecular Mass": "163.00",
        "Melting Point": "153.5-154.5 °C"
    }
}