{
    "cas_no": "122548-33-8",
    "key_name": "Imazosulfuron",
    "cn_name": "咪唑磺隆;2-氯-N-(((4,6-二甲氧基-2-嘧啶基)氨基)甲酰)咪唑并[1,2-a]吡啶-3-磺酰胺;",
    "alternate_name": "Imidazo[1,2-<em>a</em>]pyridine-3-sulfonamide, 2-chloro-<em>N</em>-[[(4,6-dimethoxy-2-pyrimidinyl)amino]carbonyl]-;2-Chloro-<em>N</em>-[[(4,6-dimethoxy-2-pyrimidinyl)amino]carbonyl]imidazo[1,2-<em>a</em>]pyridine-3-sulfonamide;Imazosulfuron;TH 913;Takeoff;<em>N</em>-(2-Chloroimidazo[1,2-<em>a</em>]pyridin-3-ylsulfonyl)-<em>N</em>′-(4,6-dimethoxy-2-pyrimidinyl)urea;Brazzos;League",
    "duplicated_cas_no": "",
    "SMILES": "S(NC(NC=1N=C(OC)C=C(OC)N1)=O)(=O)(=O)C=2N3C(=NC2Cl)C=CC=C3",
    "meta_data": {
        "InChI": "InChI=1S/C14H13ClN6O5S/c1-25-9-7-10(26-2)18-13(17-9)19-14(22)20-27(23,24)12-11(15)16-8-5-3-4-6-21(8)12/h3-7H,1-2H3,(H2,17,18,19,20,22)",
        "InChIKey": null,
        "Canonical SMILES": "O=C(NC=1N=C(OC)C=C(N1)OC)NS(=O)(=O)C2=C(Cl)N=C3C=CC=CN32",
        "Molecular Formula": "C<sub>14</sub>H<sub>13</sub>ClN<sub>6</sub>O<sub>5</sub>S",
        "Molecular Mass": "412.81",
        "Melting Point": "183 °C (decomp)"
    }
}