{
    "cas_no": "100-99-2",
    "key_name": "Triisobutylaluminum",
    "cn_name": "三异丁基铝;",
    "alternate_name": "Aluminum, tris(2-methylpropyl)-;Aluminum, triisobutyl-;Tris(2-methylpropyl)aluminum;Triisobutylaluminum;Triisobutylalane;Tris-<em>iso</em>-butylaluminum;Tri-<em>iso</em>-butylaluminum;Tris(isobutyl)aluminum;Tris(isobutyl)alane;TIBAL;TIBA",
    "duplicated_cas_no": "130565-62-7",
    "SMILES": "[Al](CC(C)C)(CC(C)C)CC(C)C",
    "meta_data": {
        "InChI": "InChI=1S/3C4H9.Al/c3*1-4(2)3;/h3*4H,1H2,2-3H3;",
        "InChIKey": null,
        "Canonical SMILES": "[Al](CC(C)C)(CC(C)C)CC(C)C",
        "Molecular Formula": "C<sub>12</sub>H<sub>27</sub>Al",
        "Molecular Mass": "",
        "Boiling Point": "86 °C @ Press: 10 Torr",
        "Melting Point": "0 °C",
        "Density": "0.781 g/cm³ @ Temp: 25 °C"
    }
}