{
    "cas_no": "476-70-0",
    "key_name": "(+)-Boldine",
    "cn_name": "波尔定碱;",
    "alternate_name": "4<em>H</em>-Dibenzo[<em>de</em>,<em>g</em>]quinoline-2,9-diol, 5,6,6a,7-tetrahydro-1,10-dimethoxy-6-methyl-, (6a<em>S</em>)-;6aα-Aporphine-2,9-diol, 1,10-dimethoxy-;Boldine;4<em>H</em>-Dibenzo[<em>de</em>,<em>g</em>]quinoline-2,9-diol, 5,6,6a,7-tetrahydro-1,10-dimethoxy-6-methyl-, (<em>S</em>)-;(6a<em>S</em>)-5,6,6a,7-Tetrahydro-1,10-dimethoxy-6-methyl-4<em>H</em>-dibenzo[<em>de</em>,<em>g</em>]quinoline-2,9-diol;(<em>S</em>)-Boldine;1,10-Dimethoxy-6aα-aporphine-2,9-diol;(+)-(<em>S</em>)-Boldine;Boldin;Boldina;(+)-Boldine;(+)-2,9-Dihydroxy-1,10-dimethoxyaporphine;(<em>S</em>)-(+)-Boldine;<em>d</em>-Boldine;NSC 65689;(6AS)-1,10-dimethoxy-6-methyl-5,6,6a,7-tetrahydro-4<em>H</em>-dibenzo[<em>de</em>,<em>g</em>]quinoline-2,9-diol",
    "duplicated_cas_no": "",
    "SMILES": "O(C)C1=C2C=3[C@](CC=4C2=CC(OC)=C(O)C4)(N(C)CCC3C=C1O)[H]",
    "meta_data": {
        "InChI": "InChI=1S/C19H21NO4/c1-20-5-4-10-7-15(22)19(24-3)18-12-9-16(23-2)14(21)8-11(12)6-13(20)17(10)18/h7-9,13,21-22H,4-6H2,1-3H3/t13-/m0/s1",
        "InChIKey": null,
        "Canonical SMILES": "OC1=CC2=C(C=C1OC)C3=C(OC)C(O)=CC4=C3C(N(C)CC4)C2",
        "Molecular Formula": "C<sub>19</sub>H<sub>21</sub>NO<sub>4</sub>",
        "Molecular Mass": "327.37",
        "Melting Point": "163 °C"
    }
}