{
    "cas_no": "5192-03-0",
    "key_name": "5-Aminoindole",
    "cn_name": "5-氨基吲哚;",
    "alternate_name": "1<em>H</em>-Indol-5-amine;Indole, 5-amino-;5-Aminoindole;5-Indolamine;5-Amino-1<em>H</em>-indole;1<em>H</em>-Indol-5-ylamine;(Indol-5-yl)amine;NSC 61452",
    "duplicated_cas_no": "",
    "SMILES": "NC=1C=C2C(=CC1)NC=C2",
    "meta_data": {
        "InChI": "InChI=1S/C8H8N2/c9-7-1-2-8-6(5-7)3-4-10-8/h1-5,10H,9H2",
        "InChIKey": null,
        "Canonical SMILES": "NC=1C=CC=2NC=CC2C1",
        "Molecular Formula": "C<sub>8</sub>H<sub>8</sub>N<sub>2</sub>",
        "Molecular Mass": "132.16",
        "Boiling Point": "190 °C @ Press: 6 Torr",
        "Melting Point": "131-133 °C"
    }
}