{
    "cas_no": "62625-24-5",
    "key_name": "2-Bromo-1-[4-(2-phenyldiazenyl)phenyl]ethanone",
    "cn_name": "4-苯基偶氮苯乙酰溴;",
    "alternate_name": "Ethanone, 2-bromo-1-[4-(2-phenyldiazenyl)phenyl]-;Ethanone, 2-bromo-1-[4-(phenylazo)phenyl]-;Acetophenone, 2-bromo-4′-phenylazo-;2-Bromo-1-[4-(2-phenyldiazenyl)phenyl]ethanone;2-Bromo-1-(4-(phenyldiazenyl)phenyl)ethanone",
    "duplicated_cas_no": "125906-59-4",
    "SMILES": "C(CBr)(=O)C1=CC=C(N=NC2=CC=CC=C2)C=C1",
    "meta_data": {
        "InChI": "InChI=1S/C14H11BrN2O/c15-10-14(18)11-6-8-13(9-7-11)17-16-12-4-2-1-3-5-12/h1-9H,10H2",
        "InChIKey": null,
        "Canonical SMILES": "O=C(C1=CC=C(N=NC=2C=CC=CC2)C=C1)CBr",
        "Molecular Formula": "C<sub>14</sub>H<sub>11</sub>BrN<sub>2</sub>O",
        "Molecular Mass": "303.15",
        "Melting Point": "92 °C"
    }
}