{
    "cas_no": "32233-40-2",
    "key_name": "(3a<em>R</em>,4<em>S</em>,5<em>R</em>,6a<em>S</em>)-Hexahydro-5-hydroxy-4-(hydroxymethyl)-2<em>H</em>-cyclopenta[<em>b</em>]furan-2-one",
    "cn_name": "科立内脂二醇;(-)-6beta-羟甲基-7alpha-羟基-顺式-2-氧杂双环[3.3.0]辛-3-酮;(3aR,4S,5R,6aS)-(-)-六氢-5-;",
    "alternate_name": "2<em>H</em>-Cyclopenta[<em>b</em>]furan-2-one, hexahydro-5-hydroxy-4-(hydroxymethyl)-, (3a<em>R</em>,4<em>S</em>,5<em>R</em>,6a<em>S</em>)-;2<em>H</em>-Cyclopenta[<em>b</em>]furan-2-one, hexahydro-5-hydroxy-4-(hydroxymethyl)-, [3a<em>R</em>-(3aα,4α,5β,6aα)]-;2<em>H</em>-Cyclopenta[<em>b</em>]furan-2-one, hexahydro-5-hydroxy-4-(hydroxymethyl)-, stereoisomer;(3a<em>R</em>,4<em>S</em>,5<em>R</em>,6a<em>S</em>)-Hexahydro-5-hydroxy-4-(hydroxymethyl)-2<em>H</em>-cyclopenta[<em>b</em>]furan-2-one;(-)-Corey's lactone diol;(3<em>a</em>R,4S,5R,6<em>a</em>S)-Hexahydro-5-hydroxy-4-(hydroxymethyl)-2<em>H</em>-cyclopenta[<em>b</em>]furan-2-one",
    "duplicated_cas_no": "",
    "SMILES": "C(O)[C@@H]1[C@@]2([C@](C[C@H]1O)(OC(=O)C2)[H])[H]",
    "meta_data": {
        "InChI": "InChI=1S/C8H12O4/c9-3-5-4-1-8(11)12-7(4)2-6(5)10/h4-7,9-10H,1-3H2/t4-,5-,6-,7+/m1/s1",
        "InChIKey": null,
        "Canonical SMILES": "O=C1OC2CC(O)C(CO)C2C1",
        "Molecular Formula": "C<sub>8</sub>H<sub>12</sub>O<sub>4</sub>",
        "Molecular Mass": "172.18",
        "Melting Point": "115-116 °C"
    }
}