{
    "cas_no": "1577-18-0",
    "key_name": "<em>trans</em>-3-Hexenoic acid",
    "cn_name": "反式-3-己烯酸;(E)-3-己烯酸;",
    "alternate_name": "3-Hexenoic acid, (3<em>E</em>)-;3-Hexenoic acid, (<em>E</em>)-;(3<em>E</em>)-3-Hexenoic acid;<em>trans</em>-3-Hexenoic acid;(<em>E</em>)-3-Hexenoic acid;3(<em>E</em>)-Hexenoic acid;(3<em>E</em>)-Hex-3-enoic acid;(E)-Hex-3-enoic acid",
    "duplicated_cas_no": "",
    "SMILES": "C(/C=C/CC)C(O)=O",
    "meta_data": {
        "InChI": "InChI=1S/C6H10O2/c1-2-3-4-5-6(7)8/h3-4H,2,5H2,1H3,(H,7,8)/b4-3+",
        "InChIKey": null,
        "Canonical SMILES": "O=C(O)CC=CCC",
        "Molecular Formula": "C<sub>6</sub>H<sub>10</sub>O<sub>2</sub>",
        "Molecular Mass": "114.14",
        "Boiling Point": "106.5-108 °C @ Press: 13 Torr",
        "Melting Point": "12 °C"
    }
}