{
    "cas_no": "1449-55-4",
    "key_name": "Tetracyclohexylstannane",
    "cn_name": "四环己基锡;",
    "alternate_name": "Stannane, tetracyclohexyl-;Tin, tetracyclohexyl-;Tetracyclohexylstannane;Tetracyclohexyltin;Tetrakis(cyclohexyl)tin",
    "duplicated_cas_no": "",
    "SMILES": "[Sn](C1CCCCC1)(C2CCCCC2)(C3CCCCC3)C4CCCCC4",
    "meta_data": {
        "InChI": "InChI=1S/4C6H11.Sn/c4*1-2-4-6-5-3-1;/h4*1H,2-6H2;",
        "InChIKey": null,
        "Canonical SMILES": "C1CCC(CC1)[Sn](C2CCCCC2)(C3CCCCC3)C4CCCCC4",
        "Molecular Formula": "C<sub>24</sub>H<sub>44</sub>Sn",
        "Molecular Mass": "451.32",
        "Melting Point": "250-254 °C"
    }
}