{
    "cas_no": "406-39-3",
    "key_name": "1,1,1-Trifluoro-2-butene",
    "cn_name": "1,1,1-三氟-2-丁烯;1,1,1-三氟-2-丁烯;",
    "alternate_name": "2-Butene, 1,1,1-trifluoro-;1,1,1-Trifluoro-2-butene",
    "duplicated_cas_no": "",
    "SMILES": "C(C(F)(F)F)=CC",
    "meta_data": {
        "InChI": "InChI=1S/C4H5F3/c1-2-3-4(5,6)7/h2-3H,1H3",
        "InChIKey": null,
        "Canonical SMILES": "FC(F)(F)C=CC",
        "Molecular Formula": "C<sub>4</sub>H<sub>5</sub>F<sub>3</sub>",
        "Molecular Mass": "110.08",
        "Boiling Point": "20 °C"
    }
}