{
    "cas_no": "80-21-7",
    "key_name": "3-Amino-<em>N</em>-phenylbenzenesulfonamide",
    "cn_name": "间氨基苯磺酰苯胺;",
    "alternate_name": "Benzenesulfonamide, 3-amino-<em>N</em>-phenyl-;Metanilanilide;3-Amino-<em>N</em>-phenylbenzenesulfonamide;3-Aminobenzenesulfonanilide;NSC 4989;3-(<em>N</em>-Phenylaminosulfonyl)aniline;3-Amino-<em>N</em>-phenylbenzene-1-sulfonamide",
    "duplicated_cas_no": "",
    "SMILES": "S(NC1=CC=CC=C1)(=O)(=O)C2=CC(N)=CC=C2",
    "meta_data": {
        "InChI": "InChI=1S/C12H12N2O2S/c13-10-5-4-8-12(9-10)17(15,16)14-11-6-2-1-3-7-11/h1-9,14H,13H2",
        "InChIKey": null,
        "Canonical SMILES": "O=S(=O)(NC=1C=CC=CC1)C=2C=CC=C(N)C2",
        "Molecular Formula": "C<sub>12</sub>H<sub>12</sub>N<sub>2</sub>O<sub>2</sub>S",
        "Molecular Mass": "248.30",
        "Melting Point": "126-128 °C"
    }
}