{
    "cas_no": "13382-43-9",
    "key_name": "5-Amino-2-methylbenzothiazole",
    "cn_name": "5-氨基-2-甲基苯并噻唑;5-氨基-2-甲基-1,3-苯并噻唑;",
    "alternate_name": "5-Benzothiazolamine, 2-methyl-;Benzothiazole, 5-amino-2-methyl-;2-Methyl-5-benzothiazolamine;5-Amino-2-methylbenzothiazole;2-Methyl-5-aminobenzothiazole;2-Methylbenzothiazol-5-ylamine;2-Methyl-1,3-benzothiazol-5-amine;2-Methylbenzo[<em>d</em>]thiazol-5-amine",
    "duplicated_cas_no": "1261351-78-3",
    "SMILES": "CC=1SC=2C(N1)=CC(N)=CC2",
    "meta_data": {
        "InChI": "InChI=1S/C8H8N2S/c1-5-10-7-4-6(9)2-3-8(7)11-5/h2-4H,9H2,1H3",
        "InChIKey": null,
        "Canonical SMILES": "N1=C(SC=2C=CC(N)=CC12)C",
        "Molecular Formula": "C<sub>8</sub>H<sub>8</sub>N<sub>2</sub>S",
        "Molecular Mass": "164.23",
        "Melting Point": "102 °C"
    }
}