{
    "cas_no": "114152-21-5",
    "key_name": "2,3,6-Trifluorobenzeneacetonitrile",
    "cn_name": "2,3,6-三氟苯乙腈;",
    "alternate_name": "Benzeneacetonitrile, 2,3,6-trifluoro-;2,3,6-Trifluorobenzeneacetonitrile;2-(2,3,6-Trifluorophenyl)acetonitrile;2,3,6-Trifluorophenylacetonitrile",
    "duplicated_cas_no": "",
    "SMILES": "C(C#N)C1=C(F)C(F)=CC=C1F",
    "meta_data": {
        "InChI": "InChI=1S/C8H4F3N/c9-6-1-2-7(10)8(11)5(6)3-4-12/h1-2H,3H2",
        "InChIKey": null,
        "Canonical SMILES": "N#CCC=1C(F)=CC=C(F)C1F",
        "Molecular Formula": "C<sub>8</sub>H<sub>4</sub>F<sub>3</sub>N",
        "Molecular Mass": "171.12",
        "Boiling Point": "80-85 °C @ Press: 5 Torr"
    }
}