{
    "cas_no": "124-25-4",
    "key_name": "Tetradecanal",
    "cn_name": "肉豆蔻醛;十四醛;桃醛;",
    "alternate_name": "Tetradecanal;Myristaldehyde;<em>n</em>-Tetradecyl aldehyde;Myristylaldehyde;Tetradecyl aldehyde;<em>n</em>-Tetradecanal;Tetradecanaldehyde;1-Tetradecanal;Myristinaldehyde;NSC 66435;Aldehyde peche (C<sub>14</sub>);Peach aldehyde (C<sub>14</sub>)",
    "duplicated_cas_no": "511542-15-7",
    "SMILES": "C(CCCCCCC)CCCCCC=O",
    "meta_data": {
        "InChI": "InChI=1S/C14H28O/c1-2-3-4-5-6-7-8-9-10-11-12-13-14-15/h14H,2-13H2,1H3",
        "InChIKey": null,
        "Canonical SMILES": "O=CCCCCCCCCCCCCC",
        "Molecular Formula": "C<sub>14</sub>H<sub>28</sub>O",
        "Molecular Mass": "212.37",
        "Boiling Point": "166 °C @ Press: 24 Torr",
        "Melting Point": "26-27 °C",
        "Density": "0.826 g/cm³ @ Temp: 20 °C; Press: 760 Torr"
    }
}