{
    "cas_no": "38954-67-5",
    "key_name": "β-<span class=\"text-smallcaps\">D</span>-Glucopyranoside, octyl, 2,3,4,6-tetraacetate",
    "cn_name": null,
    "alternate_name": "β-<span class=\"text-smallcaps\">D</span>-Glucopyranoside, octyl, 2,3,4,6-tetraacetate;β-<span class=\"text-smallcaps\">D</span>-Glucopyranoside, octyl, tetraacetate;Glucopyranoside, octyl, tetraacetate;β-<span class=\"text-smallcaps\">D</span>-Tetraacetyloctyl glucoside",
    "duplicated_cas_no": "",
    "SMILES": "O(C(C)=O)[C@H]1[C@H](OC(C)=O)[C@@H](COC(C)=O)O[C@@H](OCCCCCCCC)[C@@H]1OC(C)=O",
    "meta_data": {
        "InChI": "InChI=1S/C22H36O10/c1-6-7-8-9-10-11-12-27-22-21(31-17(5)26)20(30-16(4)25)19(29-15(3)24)18(32-22)13-28-14(2)23/h18-22H,6-13H2,1-5H3/t18-,19-,20+,21-,22-/m1/s1",
        "InChIKey": null,
        "Canonical SMILES": "O=C(OCC1OC(OCCCCCCCC)C(OC(=O)C)C(OC(=O)C)C1OC(=O)C)C",
        "Molecular Formula": "C<sub>22</sub>H<sub>36</sub>O<sub>10</sub>",
        "Molecular Mass": "460.52",
        "Melting Point": "64 °C"
    }
}