{
    "cas_no": "26165-45-7",
    "key_name": "1-Pyrrolidinepropanenitrile",
    "cn_name": "3-(1-吡咯基)丙腈;3-(1-吡咯基)丙腈;3-(1-吡咯基)丙腈,97%;",
    "alternate_name": "1-Pyrrolidinepropanenitrile;1-Pyrrolidinepropionitrile;β-Pyrrolidinopropionitrile;<em>N</em>-(β-Cyanoethyl)pyrrolidine;<em>N</em>-(2-Cyanoethyl)pyrrolidine;3-(1-Pyrrolidinyl)propionitrile;3-(Pyrrolidin-1-yl)propanenitrile",
    "duplicated_cas_no": "",
    "SMILES": "C(CC#N)N1CCCC1",
    "meta_data": {
        "InChI": "InChI=1S/C7H12N2/c8-4-3-7-9-5-1-2-6-9/h1-3,5-7H2",
        "InChIKey": null,
        "Canonical SMILES": "N#CCCN1CCCC1",
        "Molecular Formula": "C<sub>7</sub>H<sub>12</sub>N<sub>2</sub>",
        "Molecular Mass": "124.18",
        "Boiling Point": "110-112 °C @ Press: 28 Torr"
    }
}