{
    "cas_no": "4214-75-9",
    "key_name": "2-Amino-3-nitropyridine",
    "cn_name": "2-氨基-3-硝基吡啶;",
    "alternate_name": "2-Pyridinamine, 3-nitro-;Pyridine, 2-amino-3-nitro-;3-Nitro-2-pyridinamine;2-Amino-3-nitropyridine;3-Nitro-2-aminopyridine;NSC 12460",
    "duplicated_cas_no": "",
    "SMILES": "N(=O)(=O)C1=C(N)N=CC=C1",
    "meta_data": {
        "InChI": "InChI=1S/C5H5N3O2/c6-5-4(8(9)10)2-1-3-7-5/h1-3H,(H2,6,7)",
        "InChIKey": null,
        "Canonical SMILES": "O=N(=O)C1=CC=CN=C1N",
        "Molecular Formula": "C<sub>5</sub>H<sub>5</sub>N<sub>3</sub>O<sub>2</sub>",
        "Molecular Mass": "139.11",
        "Melting Point": "162 °C"
    }
}