{
    "cas_no": "16903-35-8",
    "key_name": "Chloroauric acid",
    "cn_name": null,
    "alternate_name": "Aurate(1-), tetrachloro-, hydrogen (1:1), (<em>SP</em>-4-1)-;Aurate(1-), tetrachloro-, hydrogen;Aurate(1-), tetrachloro-, hydrogen, (<em>SP</em>-4-1)-;Chloroauric(III) acid;Chloroauric acid;Chloroauric acid (HAuCl<sub>4</sub>);Hydrogen tetrachloroaurate (III);Hydrogen tetrachloroaurate;Auric acid (HAuCl<sub>4</sub>);Gold trichloride hydrochloride;Gold chloride (AuCl<sub>3</sub>), hydrochloride;Tetrachloroauric acid;Chlorauric acid;Brown gold chloride;Chlorooauric acid (HAuCl<sub>4</sub>);Tetrachloroauric acid (HAuCl<sub>4</sub>);Hydrogen tetrachloroaurate(1-);Gold hydrogen chloride (AuHCl<sub>4</sub>);Gold tetrachloride (HAuCl<sub>4</sub>);G 4022;Tetrachloroauric(III) acid;Gold chloride (AuCl<sub>3</sub>), compd. with hydrochloric acid (1:1)",
    "duplicated_cas_no": "1335-28-0;52562-86-4;81853-52-3;90907-74-7;91947-07-8;137355-36-3;147142-02-7;172825-39-7;1228031-19-3;2569183-85-1",
    "SMILES": "[Au+3]([Cl-])([Cl-])([Cl-])[Cl-].[H+]",
    "meta_data": {
        "InChI": "InChI=1S/Au.4ClH/h;4*1H/q+3;;;;/p-3",
        "InChIKey": null,
        "Canonical SMILES": "[H+].[Cl-][Au+3]([Cl-])([Cl-])[Cl-]",
        "Molecular Formula": "AuCl<sub>4</sub>.H",
        "Molecular Mass": "",
        "Boiling Point": "100 °C"
    }
}