{
    "cas_no": "720-94-5",
    "key_name": "1-(4-Methylphenyl)-4,4,4-trifluorobutane-1,3-dione",
    "cn_name": "4,4,4-三氟-1-(4-甲苯基)-1,3-丁二酮;三氟甲苯丁二酮;",
    "alternate_name": "1,3-Butanedione, 4,4,4-trifluoro-1-(4-methylphenyl)-;1,3-Butanedione, 4,4,4-trifluoro-1-<em>p</em>-tolyl-;4,4,4-Trifluoro-1-(4-methylphenyl)-1,3-butanedione;1,1,1-Trifluoro-4-(4-methylphenyl)-2,4-butanedione;4-(4-Methylphenyl)-1,1,1-trifluorobutane-2,4-dione;(4-Methylbenzoyl)trifluoroacetone;1-(4-Methylphenyl)-4,4,4-trifluorobutane-1,3-dione;4-Methyl-1-(4,4,4-trifluoro-3-oxobutanoyl)benzene;4,4,4-Trifluoro-1-(<em>p</em>-tolyl)butane-1,3-dione;4,4,4-Trifluoro-1-(<em>p</em>-tolyl)butan-1,3-dione;4,4,4-Trifluoro-1-(4-tolyl)-1,3-butanedione",
    "duplicated_cas_no": "",
    "SMILES": "C(CC(C(F)(F)F)=O)(=O)C1=CC=C(C)C=C1",
    "meta_data": {
        "InChI": "InChI=1S/C11H9F3O2/c1-7-2-4-8(5-3-7)9(15)6-10(16)11(12,13)14/h2-5H,6H2,1H3",
        "InChIKey": null,
        "Canonical SMILES": "O=C(C1=CC=C(C=C1)C)CC(=O)C(F)(F)F",
        "Molecular Formula": "C<sub>11</sub>H<sub>9</sub>F<sub>3</sub>O<sub>2</sub>",
        "Molecular Mass": "230.18",
        "Melting Point": "44-45 °C"
    }
}