{
    "cas_no": "36545-53-6",
    "key_name": "Cycloheterophyllin",
    "cn_name": null,
    "alternate_name": "6<em>H</em>,7<em>H</em>,11<em>H</em>-Bis[1]benzopyrano[4,3-<em>b</em>:6′,7′-<em>e</em>]pyran-7-one, 2,3,8-trihydroxy-11,11-dimethyl-13-(3-methyl-2-buten-1-yl)-6-(2-methyl-1-propen-1-yl)-, (+)-;6<em>H</em>,7<em>H</em>,11<em>H</em>-Bis[1]benzopyrano[4,3-<em>b</em>:6′,7′-<em>e</em>]pyran-7-one, 2,3,8-trihydroxy-11,11-dimethyl-13-(3-methyl-2-butenyl)-6-(2-methyl-1-propenyl)-, (+)-;(+)-2,3,8-Trihydroxy-11,11-dimethyl-13-(3-methyl-2-buten-1-yl)-6-(2-methyl-1-propen-1-yl)-6<em>H</em>,7<em>H</em>,11<em>H</em>-bis[1]benzopyrano[4,3-<em>b</em>:6′,7′-<em>e</em>]pyran-7-one;Cycloheterophyllin",
    "duplicated_cas_no": "34144-07-5",
    "SMILES": "C(=C(C)C)C1C2=C(C=3C(O1)=CC(O)=C(O)C3)OC=4C(C2=O)=C(O)C5=C(C4CC=C(C)C)OC(C)(C)C=C5",
    "meta_data": {
        "InChI": "InChI=1/C30H30O7/c1-14(2)7-8-17-27-16(9-10-30(5,6)37-27)25(33)24-26(34)23-22(11-15(3)4)35-21-13-20(32)19(31)12-18(21)29(23)36-28(17)24/h7,9-13,22,31-33H,8H2,1-6H3",
        "InChIKey": null,
        "Canonical SMILES": "O=C1C2=C(O)C=3C=CC(OC3C(=C2OC=4C=5C=C(O)C(O)=CC5OC(C=C(C)C)C14)CC=C(C)C)(C)C",
        "Molecular Formula": "C<sub>30</sub>H<sub>30</sub>O<sub>7</sub>",
        "Molecular Mass": "502.55",
        "Melting Point": "220 °C"
    }
}