{
    "cas_no": "13331-52-7",
    "key_name": "Tributyltin acrylate",
    "cn_name": null,
    "alternate_name": "2-Propenoic acid, tributylstannyl ester;Stannane, (acryloyloxy)tributyl-;Stannane, tributyl[(1-oxo-2-propenyl)oxy]-;Tributyltin acrylate;Tin, (acryloyloxy)tributyl-;Tributylstannyl acrylate;Tributylacryloyloxystannane",
    "duplicated_cas_no": "",
    "SMILES": "[Sn](OC(C=C)=O)(CCCC)(CCCC)CCCC",
    "meta_data": {
        "InChI": "InChI=1S/3C4H9.C3H4O2.Sn/c3*1-3-4-2;1-2-3(4)5;/h3*1,3-4H2,2H3;2H,1H2,(H,4,5);/q;;;;+1/p-1",
        "InChIKey": null,
        "Canonical SMILES": "O=C(O[Sn](CCCC)(CCCC)CCCC)C=C",
        "Molecular Formula": "C<sub>15</sub>H<sub>30</sub>O<sub>2</sub>Sn",
        "Molecular Mass": "361.11",
        "Melting Point": "69-70 °C"
    }
}