{
    "cas_no": "362-07-2",
    "key_name": "2-Methoxyestradiol",
    "cn_name": "2-甲氧基雌二醇;1,3,5(10)-雌甾三烯-2,3,17-三醇二甲醚;3,17β-二羟基-2-甲氧基-1,3,5(10)-雌甾三烯;",
    "alternate_name": "Estra-1,3,5(10)-triene-3,17-diol, 2-methoxy-, (17β)-;Estra-1,3,5(10)-triene-3,17β-diol, 2-methoxy-;Estradiol, 2-methoxy-;(17β)-2-Methoxyestra-1,3,5(10)-triene-3,17-diol;2-Methoxyestradiol;2-Methoxyestra-1,3,5(10)-triene-3,17β-diol;2-Hydroxyestradiol 2-methyl ether;NSC 659853;Panzem;2ME2;2-Methoxy-E2",
    "duplicated_cas_no": "916057-22-2",
    "SMILES": "C[C@@]12[C@]([C@]3([C@@](C=4C(CC3)=CC(O)=C(OC)C4)(CC1)[H])[H])(CC[C@@H]2O)[H]",
    "meta_data": {
        "InChI": "InChI=1S/C19H26O3/c1-19-8-7-12-13(15(19)5-6-18(19)21)4-3-11-9-16(20)17(22-2)10-14(11)12/h9-10,12-13,15,18,20-21H,3-8H2,1-2H3/t12-,13+,15-,18-,19-/m0/s1",
        "InChIKey": null,
        "Canonical SMILES": "OC=1C=C2C(=CC1OC)C3CCC4(C)C(O)CCC4C3CC2",
        "Molecular Formula": "C<sub>19</sub>H<sub>26</sub>O<sub>3</sub>",
        "Molecular Mass": "302.41",
        "Melting Point": "184-186 °C"
    }
}