{
    "cas_no": "2259-96-3",
    "key_name": "Cyclothiazide",
    "cn_name": null,
    "alternate_name": "2<em>H</em>-1,2,4-Benzothiadiazine-7-sulfonamide, 3-bicyclo[2.2.1]hept-5-en-2-yl-6-chloro-3,4-dihydro-, 1,1-dioxide;2<em>H</em>-1,2,4-Benzothiadiazine-7-sulfonamide, 6-chloro-3,4-dihydro-3-(5-norbornen-2-yl)-, 1,1-dioxide;MDi 193;Anhydron;6-Chloro-3,4-dihydro-3-(5-norbornen-2-yl)-2<em>H</em>-1,2,4-benzothiadiazine-7-sulfonamide-1,1-dioxide;6-Chloro-3,4-dihydro-3-(5-norbornen-2-yl)-7-sulfamyl-1,2,4-benzothiadiazine-1,1-dioxide;6-Chloro-3-(5-norbornen-2-yl)-7-sulfamoyl-3,4-dihydro-2<em>H</em>-1,2,4-benzothiadiazine-1,1-dioxide;Cyclothiazide;Doburil;6-Chloro-3-(5-bicyclo[2.2.1]hept-2-enyl)-7-sulfamoyl-3,4-dihydro-1,2,4-benzothiadiazine 1,1-dioxide;Aquirel;Renazide;Valmiran;Fluidil;Lilly 35483",
    "duplicated_cas_no": "",
    "SMILES": "O=S1(=O)NC(C2C3CC(C2)C=C3)NC=4C1=CC(S(N)(=O)=O)=C(Cl)C4",
    "meta_data": {
        "InChI": "InChI=1S/C14H16ClN3O4S2/c15-10-5-11-13(6-12(10)23(16,19)20)24(21,22)18-14(17-11)9-4-7-1-2-8(9)3-7/h1-2,5-9,14,17-18H,3-4H2,(H2,16,19,20)",
        "InChIKey": null,
        "Canonical SMILES": "O=S(=O)(N)C=1C=C2C(=CC1Cl)NC(NS2(=O)=O)C3CC4C=CC3C4",
        "Molecular Formula": "C<sub>14</sub>H<sub>16</sub>ClN<sub>3</sub>O<sub>4</sub>S<sub>2</sub>",
        "Molecular Mass": "389.88",
        "Melting Point": "234 °C"
    }
}