{
    "cas_no": "36411-52-6",
    "key_name": "Salicyloylaminotriazole",
    "cn_name": "3-水杨酰胺基-1,2,4-三氮唑;",
    "alternate_name": "Benzamide, 2-hydroxy-<em>N</em>-1<em>H</em>-1,2,4-triazol-5-yl-;Benzamide, 2-hydroxy-<em>N</em>-1<em>H</em>-1,2,4-triazol-3-yl-;2-Hydroxy-<em>N</em>-1<em>H</em>-1,2,4-triazol-5-ylbenzamide;3-Salicylamido-1<em>H</em>-1,2,4-triazole;Mark 1475;Salicyloylaminotriazole;3-(<em>N</em>-Salicyloyl)amino-1,2,4-triazole;Mark CDA 1;3-(Salicyloylamino)-1,2,4-triazole;CDA 1;ADK Stab CDA 1;Mark CDA 1M;Adeka CDA 1c;NSC 332171;ADK Stab CDA 1M;CDA 1M;<em>N</em>-(1,2,4-Triazol-3-yl)salicylamide;Adeka CDA-1;2-Hydroxy-<em>N</em>-1<em>H</em>-1,2,4-triazol-3-yl-benzamide;2-Hydroxy-<em>N</em>-(4<em>H</em>-[1,2,4]triazol-3-yl)-benzamide;2-Hydroxy-<em>N</em>-(4<em>H</em>-1,2,4-triazol-3-yl)benzamide",
    "duplicated_cas_no": "106803-52-5",
    "SMILES": "C(NC=1NC=NN1)(=O)C2=C(O)C=CC=C2",
    "meta_data": {
        "InChI": "InChI=1S/C9H8N4O2/c14-7-4-2-1-3-6(7)8(15)12-9-10-5-11-13-9/h1-5,14H,(H2,10,11,12,13,15)",
        "InChIKey": null,
        "Canonical SMILES": "O=C(NC1=NN=CN1)C=2C=CC=CC2O",
        "Molecular Formula": "C<sub>9</sub>H<sub>8</sub>N<sub>4</sub>O<sub>2</sub>",
        "Molecular Mass": "204.19",
        "Melting Point": "225 °C"
    }
}