{
    "cas_no": "19924-43-7",
    "key_name": "(3-Methoxyphenyl)acetonitrile",
    "cn_name": "3-甲氧基苯乙腈;间甲氧基苯乙腈;",
    "alternate_name": "Benzeneacetonitrile, 3-methoxy-;Acetonitrile, (<em>m</em>-methoxyphenyl)-;3-Methoxybenzeneacetonitrile;(<em>m</em>-Methoxyphenyl)acetonitrile;<em>m</em>-Methoxybenzyl cyanide;(3-Methoxyphenyl)acetonitrile;3-Methoxybenzyl cyanide;2-(3-Methoxyphenyl)acetonitrile;NSC 143401;Limnanthin nitrile",
    "duplicated_cas_no": "",
    "SMILES": "C(C#N)C1=CC(OC)=CC=C1",
    "meta_data": {
        "InChI": "InChI=1S/C9H9NO/c1-11-9-4-2-3-8(7-9)5-6-10/h2-4,7H,5H2,1H3",
        "InChIKey": null,
        "Canonical SMILES": "N#CCC=1C=CC=C(OC)C1",
        "Molecular Formula": "C<sub>9</sub>H<sub>9</sub>NO",
        "Molecular Mass": "147.17",
        "Boiling Point": "152 °C"
    }
}