{
    "cas_no": "134-03-2",
    "key_name": "Sodium ascorbate",
    "cn_name": "抗坏血酸钠;维生素C钠;L(+)-苏糖型-2,3,4,5,6-五羟基-2-己烯酸-4-内酯钠;",
    "alternate_name": "<span class=\"text-smallcaps\">L</span>-Ascorbic acid, sodium salt (1:1);<span class=\"text-smallcaps\">L</span>-Ascorbic acid, monosodium salt;Ascorbic acid, sodium deriv.;Ascorbicin;Ascorbin;Natrascorb;Natri-C;3-Oxo-<span class=\"text-smallcaps\">L</span>-gulofuranolactone sodium;Sodascorbate;Sodium ascorbate;Sodium <span class=\"text-smallcaps\">L</span>-ascorbate;Vitamin C sodium;Cebitate;Cenolate;Monosodium ascorbate;Ascorbic acid sodium salt;<span class=\"text-smallcaps\">L</span>-Ascorbic acid sodium salt;Iskia C;HBL 508;ASK-P 10KR;CK 40;CK 40 (ascorbate);E 301;E 301 (antioxidant);Limcee;Monosodium <span class=\"text-smallcaps\">L</span>-ascorbate;Vitamin C Na salt;Sodium (+)-<span class=\"text-smallcaps\">L</span>-ascorbate;Sodium <span class=\"text-smallcaps\">L</span>-(+)-ascorbate;Vitamin C Na;Sodium 2-(1,2-dihydroxyethyl)-4-hydroxy-5-oxo-2,5-dihydrofuran-3-olate",
    "duplicated_cas_no": "129940-98-3;156683-68-0;884311-57-3;1017795-34-4;1184919-96-7;2649053-32-5",
    "SMILES": "[C@@H](CO)(O)[C@@]1(C(O)=C(O)C(=O)O1)[H].[Na]",
    "meta_data": {
        "InChI": "InChI=1S/C6H8O6.Na/c7-1-2(8)5-3(9)4(10)6(11)12-5;/h2,5,7-10H,1H2;/t2-,5+;/m0./s1",
        "InChIKey": null,
        "Canonical SMILES": "[Na].O=C1OC(C(O)=C1O)C(O)CO",
        "Molecular Formula": "C<sub>6</sub>H<sub>8</sub>O<sub>6</sub>.Na",
        "Molecular Mass": "",
        "Boiling Point": "235 °C",
        "Melting Point": "220 °C"
    }
}