{
    "cas_no": "117946-91-5",
    "key_name": "Luzindole",
    "cn_name": "褪黑素受体拮抗剂;",
    "alternate_name": "Acetamide, <em>N</em>-[2-[2-(phenylmethyl)-1<em>H</em>-indol-3-yl]ethyl]-;<em>N</em>-[2-[2-(Phenylmethyl)-1<em>H</em>-indol-3-yl]ethyl]acetamide;Luzindole;N 0774;2-Benzyl-<em>N</em>-acetyltryptamine",
    "duplicated_cas_no": "",
    "SMILES": "C(CNC(C)=O)C=1C=2C(NC1CC3=CC=CC=C3)=CC=CC2",
    "meta_data": {
        "InChI": "InChI=1S/C19H20N2O/c1-14(22)20-12-11-17-16-9-5-6-10-18(16)21-19(17)13-15-7-3-2-4-8-15/h2-10,21H,11-13H2,1H3,(H,20,22)",
        "InChIKey": null,
        "Canonical SMILES": "O=C(NCCC=1C=2C=CC=CC2NC1CC=3C=CC=CC3)C",
        "Molecular Formula": "C<sub>19</sub>H<sub>20</sub>N<sub>2</sub>O",
        "Molecular Mass": "292.37",
        "Melting Point": "103-104 °C"
    }
}