{
    "cas_no": "153723-40-1",
    "key_name": "4-(Dimethoxymethylsilyl)butanenitrile",
    "cn_name": null,
    "alternate_name": "Butanenitrile, 4-(dimethoxymethylsilyl)-;4-(Dimethoxymethylsilyl)butanenitrile;(3-Cyanopropyl)(methyl)dimethoxysilane",
    "duplicated_cas_no": "",
    "SMILES": "[Si](CCCC#N)(OC)(OC)C",
    "meta_data": {
        "InChI": "InChI=1S/C7H15NO2Si/c1-9-11(3,10-2)7-5-4-6-8/h4-5,7H2,1-3H3",
        "InChIKey": null,
        "Canonical SMILES": "N#CCCC[Si](OC)(OC)C",
        "Molecular Formula": "C<sub>7</sub>H<sub>15</sub>NO<sub>2</sub>Si",
        "Molecular Mass": "173.29",
        "Boiling Point": "82-83 °C @ Press: 3 Torr",
        "Density": "0.997 g/cm³"
    }
}