{
    "cas_no": "1883-75-6",
    "key_name": "2,5-Furandimethanol",
    "cn_name": "2,5-呋喃二甲醇;",
    "alternate_name": "2,5-Furandimethanol;2,5-Bis(hydroxymethyl)furan;2,5-Di(hydroxymethyl)furan;FaRez 6305;5-(Hydroxymethyl)furfuryl alcohol;NSC 40737;NSC 524614;2,5-Bis(hydroxylmethyl)furan;2,5-Dihydroxymethylfurane",
    "duplicated_cas_no": "",
    "SMILES": "C(O)C=1OC(CO)=CC1",
    "meta_data": {
        "InChI": "InChI=1S/C6H8O3/c7-3-5-1-2-6(4-8)9-5/h1-2,7-8H,3-4H2",
        "InChIKey": null,
        "Canonical SMILES": "OCC=1OC(=CC1)CO",
        "Molecular Formula": "C<sub>6</sub>H<sub>8</sub>O<sub>3</sub>",
        "Molecular Mass": "128.13",
        "Boiling Point": "95-120 °C @ Press: 0.4 Torr",
        "Melting Point": "80 °C"
    }
}