{
    "cas_no": "626-02-8",
    "key_name": "3-Iodophenol",
    "cn_name": "3-碘苯酚;间碘苯酚;",
    "alternate_name": "Phenol, 3-iodo-;Phenol, <em>m</em>-iodo-;3-Iodophenol;<em>m</em>-Hydroxyiodobenzene;<em>m</em>-Iodophenol;m-Iodophenol",
    "duplicated_cas_no": "",
    "SMILES": "IC1=CC(O)=CC=C1",
    "meta_data": {
        "InChI": "InChI=1S/C6H5IO/c7-5-2-1-3-6(8)4-5/h1-4,8H",
        "InChIKey": null,
        "Canonical SMILES": "IC1=CC=CC(O)=C1",
        "Molecular Formula": "C<sub>6</sub>H<sub>5</sub>IO",
        "Molecular Mass": "220.01",
        "Boiling Point": "186 °C",
        "Melting Point": "118 °C"
    }
}