{
    "cas_no": "39562-16-8",
    "key_name": "Ethyl 2-[(3-nitrophenyl)methylene]-3-oxobutanoate",
    "cn_name": "2-乙酰基-3-(3-硝基苯基)丙烯酸乙酯;&alpha;-(间硝基亚苄基)乙酰乙酸乙酯;2-[(3-硝基苯基)亚甲基]-3-氧代丁;",
    "alternate_name": "Butanoic acid, 2-[(3-nitrophenyl)methylene]-3-oxo-, ethyl ester;Cinnamic acid, α-acetyl-<em>m</em>-nitro-, ethyl ester;Ethyl 2-[(3-nitrophenyl)methylene]-3-oxobutanoate;Ethyl 2-(3-nitrobenzylidene)acetoacetate;Ethyl α-acetyl-β-(<em>m</em>-nitrophenyl)acrylate;Ethyl 2-(<em>m</em>-nitrobenzylidene)acetoacetate;Ethyl 3-nitrobenzylideneacetoacetate;NSC 637307;Ethyl 2-(3′-nitrobenzylidene)acetoacetate",
    "duplicated_cas_no": "",
    "SMILES": "C(=C(C(OCC)=O)C(C)=O)C1=CC(N(=O)=O)=CC=C1",
    "meta_data": {
        "InChI": "InChI=1S/C13H13NO5/c1-3-19-13(16)12(9(2)15)8-10-5-4-6-11(7-10)14(17)18/h4-8H,3H2,1-2H3",
        "InChIKey": null,
        "Canonical SMILES": "O=C(OCC)C(=CC1=CC=CC(=C1)N(=O)=O)C(=O)C",
        "Molecular Formula": "C<sub>13</sub>H<sub>13</sub>NO<sub>5</sub>",
        "Molecular Mass": "263.25",
        "Melting Point": "110-112 °C"
    }
}