{
    "cas_no": "27200-12-0",
    "key_name": "(+)-Dihydromyricetin",
    "cn_name": "二氢杨梅素;(2R,3R)-3,5,7-三羟基-2-(3,4,5-三羟基苯基)苯并二氢吡喃-4-酮;",
    "alternate_name": "4<em>H</em>-1-Benzopyran-4-one, 2,3-dihydro-3,5,7-trihydroxy-2-(3,4,5-trihydroxyphenyl)-, (2<em>R</em>,3<em>R</em>)-;Flavanone, 3,3′,4′,5,5′,7-hexahydroxy-;4<em>H</em>-1-Benzopyran-4-one, 2,3-dihydro-3,5,7-trihydroxy-2-(3,4,5-trihydroxyphenyl)-, (2<em>R</em>-<em>trans</em>)-;Ampelopsin;(2<em>R</em>,3<em>R</em>)-2,3-Dihydro-3,5,7-trihydroxy-2-(3,4,5-trihydroxyphenyl)-4<em>H</em>-1-benzopyran-4-one;Dihydromyricetin;Ampelopsin (flavanol);Ampeloptin;(+)-Dihydromyricetin;(+)-Ampelopsin;REL-Eqyms 98",
    "duplicated_cas_no": "100405-68-3;491-53-2;59284-90-1;437650-51-6;221071-97-2",
    "SMILES": "O=C1C=2C(O[C@@H]([C@H]1O)C3=CC(O)=C(O)C(O)=C3)=CC(O)=CC2O",
    "meta_data": {
        "InChI": "InChI=1S/C15H12O8/c16-6-3-7(17)11-10(4-6)23-15(14(22)13(11)21)5-1-8(18)12(20)9(19)2-5/h1-4,14-20,22H/t14-,15+/m0/s1",
        "InChIKey": null,
        "Canonical SMILES": "O=C1C=2C(O)=CC(O)=CC2OC(C3=CC(O)=C(O)C(O)=C3)C1O",
        "Molecular Formula": "C<sub>15</sub>H<sub>12</sub>O<sub>8</sub>",
        "Molecular Mass": "320.25",
        "Melting Point": "239-241 °C"
    }
}