{
    "cas_no": "10433-52-0",
    "key_name": "<em>O</em>-(Phenylmethyl)-<span class=\"text-smallcaps\">D</span>-serine",
    "cn_name": "O-苄基-D-丝氨酸;O-苄基-D-丝氨酸;",
    "alternate_name": "<span class=\"text-smallcaps\">D</span>-Serine, <em>O</em>-(phenylmethyl)-;Alanine, 3-(benzyloxy)-, <span class=\"text-smallcaps\">D</span>-;<em>O</em>-(Phenylmethyl)-<span class=\"text-smallcaps\">D</span>-serine;<em>O</em>-Benzyl-<span class=\"text-smallcaps\">D</span>-serine;(2R)-2-Azaniumyl-3-phenylmethoxypropanoate;(2R)-2-Amino-3-(benzyloxy)propanoic acid;(R)-2-Amino-3-(benzyloxy)propanoic acid",
    "duplicated_cas_no": "112604-97-4",
    "SMILES": "C(OC[C@H](C(O)=O)N)C1=CC=CC=C1",
    "meta_data": {
        "InChI": "InChI=1S/C10H13NO3/c11-9(10(12)13)7-14-6-8-4-2-1-3-5-8/h1-5,9H,6-7,11H2,(H,12,13)/t9-/m1/s1",
        "InChIKey": null,
        "Canonical SMILES": "O=C(O)C(N)COCC=1C=CC=CC1",
        "Molecular Formula": "C<sub>10</sub>H<sub>13</sub>NO<sub>3</sub>",
        "Molecular Mass": "195.22",
        "Melting Point": "212-213 °C"
    }
}