{
    "cas_no": "116498-58-9",
    "key_name": "(2<em>S</em>,3<em>R</em>,4<em>R</em>)-Tetrahydro-2-(4-hydroxy-3,5-dimethoxyphenyl)-4-[(4-hydroxy-3,5-dimethoxyphenyl)methyl]-3-furanmethanol",
    "cn_name": null,
    "alternate_name": "3-Furanmethanol, tetrahydro-2-(4-hydroxy-3,5-dimethoxyphenyl)-4-[(4-hydroxy-3,5-dimethoxyphenyl)methyl]-, (2<em>S</em>,3<em>R</em>,4<em>R</em>)-;3-Furanmethanol, tetrahydro-2-(4-hydroxy-3,5-dimethoxyphenyl)-4-[(4-hydroxy-3,5-dimethoxyphenyl)methyl]-, [2<em>S</em>-(2α,3β,4β)]-;(2<em>S</em>,3<em>R</em>,4<em>R</em>)-Tetrahydro-2-(4-hydroxy-3,5-dimethoxyphenyl)-4-[(4-hydroxy-3,5-dimethoxyphenyl)methyl]-3-furanmethanol;(+)-5,5′-Dimethoxylariciresinol;(7<em>S</em>,8<em>R</em>,8′<em>R</em>)-5,5′-Dimethoxylariciresinol",
    "duplicated_cas_no": "641611-08-7",
    "SMILES": "C(O)[C@@H]1[C@H](OC[C@@H]1CC2=CC(OC)=C(O)C(OC)=C2)C3=CC(OC)=C(O)C(OC)=C3",
    "meta_data": {
        "InChI": "InChI=1S/C22H28O8/c1-26-16-6-12(7-17(27-2)20(16)24)5-14-11-30-22(15(14)10-23)13-8-18(28-3)21(25)19(9-13)29-4/h6-9,14-15,22-25H,5,10-11H2,1-4H3/t14-,15-,22+/m0/s1",
        "InChIKey": null,
        "Canonical SMILES": "OC1=C(OC)C=C(C=C1OC)CC2COC(C3=CC(OC)=C(O)C(OC)=C3)C2CO",
        "Molecular Formula": "C<sub>22</sub>H<sub>28</sub>O<sub>8</sub>",
        "Molecular Mass": "420.45",
        "Melting Point": "85 °C"
    }
}