{
    "cas_no": "93-56-1",
    "key_name": "1-Phenyl-1,2-ethanediol",
    "cn_name": "苯基-1,2-乙二醇;1,2-二羟基-1-苯基乙烷;",
    "alternate_name": "1,2-Ethanediol, 1-phenyl-;1,2-Ethanediol, phenyl-;1-Phenyl-1,2-ethanediol;α,β-Dihydroxyethylbenzene;Styrene glycol;Styrolyl alcohol;Phenylethylene glycol;Phenyl glycol;1,2-Dihydroxy-1-phenylethane;(1,2-Dihydroxyethyl)benzene;1-Phenylethylene glycol;β-Hydroxy-β-phenylethanol;1,2-Dihydroxy-2-phenylethane;(<em>RS</em>)-1-Phenyl-1,2-ethanediol;(±)-1-Phenyl-1,2-ethanediol;(±)-Phenyl-1,2-ethanediol;(±)-Styrene glycol;NSC 406601;<em>cis</em>-1-Phenyl-1,2-ethanediol;(±)-Phenyl glycol;1-Phenyl-1,2-glycol",
    "duplicated_cas_no": "7138-28-5;170678-55-4",
    "SMILES": "C(CO)(O)C1=CC=CC=C1",
    "meta_data": {
        "InChI": "InChI=1S/C8H10O2/c9-6-8(10)7-4-2-1-3-5-7/h1-5,8-10H,6H2",
        "InChIKey": null,
        "Canonical SMILES": "OCC(O)C=1C=CC=CC1",
        "Molecular Formula": "C<sub>8</sub>H<sub>10</sub>O<sub>2</sub>",
        "Molecular Mass": "138.16",
        "Boiling Point": "273 °C",
        "Melting Point": "67.5 °C",
        "Density": "1.225 g/cm³ @ Temp: 0 °C"
    }
}