{
    "cas_no": "53723-88-9",
    "key_name": "2-[(4,5-Dihydro-5-thioxo-1,3,4-thiadiazol-2-yl)thio]acetic acid",
    "cn_name": "(5-巯基-1,3,4-噻二唑-2-基硫代)乙酸;",
    "alternate_name": "Acetic acid, 2-[(4,5-dihydro-5-thioxo-1,3,4-thiadiazol-2-yl)thio]-;Acetic acid, [(4,5-dihydro-5-thioxo-1,3,4-thiadiazol-2-yl)thio]-;Acetic acid, (5-mercapto-1,3,4-thiadiazol-2-ylthio)-;2-[(4,5-Dihydro-5-thioxo-1,3,4-thiadiazol-2-yl)thio]acetic acid;[(5-Mercapto-1,3,4-thiadiazol-2-yl)thio]acetic acid;2-Carboxymethylthio-5-mercapto-1,3,4-thiadiazole;2-Carboxymethylmercapto-5-mercapto-1,3,4-thiadiazole;NSC 12586;2-Carboxythio-5-mercapto-1,3,4-thiadiazole;(5-Mercapto-1,3,4-thiadiazole-2-ylthio)aceticacid;2-[(5-Sulfanyl-1,3,4-thiadiazol-2-yl)sulfanyl]acetic acid;2-[(2-Sulfanylidene-3<em>H</em>-1,3,4-thiadiazol-5-yl)sulfanyl]acetic acid;2-[(5-Mercapto-1,3,4-thiadiazol-2-yl)thio]acetic acid",
    "duplicated_cas_no": "197462-45-6",
    "SMILES": "S(CC(O)=O)C=1SC(=S)NN1",
    "meta_data": {
        "InChI": "InChI=1S/C4H4N2O2S3/c7-2(8)1-10-4-6-5-3(9)11-4/h1H2,(H,5,9)(H,7,8)",
        "InChIKey": null,
        "Canonical SMILES": "O=C(O)CSC1=NNC(=S)S1",
        "Molecular Formula": "C<sub>4</sub>H<sub>4</sub>N<sub>2</sub>O<sub>2</sub>S<sub>3</sub>",
        "Molecular Mass": "208.28",
        "Melting Point": "168-169 °C"
    }
}