{
    "cas_no": "95-81-8",
    "key_name": "2-Chloro-5-methylaniline",
    "cn_name": "2-氯-5-甲基苯胺;",
    "alternate_name": "Benzenamine, 2-chloro-5-methyl-;<em>m</em>-Toluidine, 6-chloro-;2-Chloro-5-methylbenzenamine;6-Chloro-<em>m</em>-toluidine;2-Chloro-5-methylaniline;3-Amino-4-chlorotoluene",
    "duplicated_cas_no": "",
    "SMILES": "NC1=C(Cl)C=CC(C)=C1",
    "meta_data": {
        "InChI": "InChI=1S/C7H8ClN/c1-5-2-3-6(8)7(9)4-5/h2-4H,9H2,1H3",
        "InChIKey": null,
        "Canonical SMILES": "ClC1=CC=C(C=C1N)C",
        "Molecular Formula": "C<sub>7</sub>H<sub>8</sub>ClN",
        "Molecular Mass": "141.60",
        "Boiling Point": "229 °C",
        "Melting Point": "29.5 °C"
    }
}