{
    "cas_no": "51847-92-8",
    "key_name": "Licoricone",
    "cn_name": null,
    "alternate_name": "4<em>H</em>-1-Benzopyran-4-one, 7-hydroxy-3-[6-hydroxy-2,4-dimethoxy-3-(3-methyl-2-buten-1-yl)phenyl]-;4<em>H</em>-1-Benzopyran-4-one, 7-hydroxy-3-[6-hydroxy-2,4-dimethoxy-3-(3-methyl-2-butenyl)phenyl]-;7-Hydroxy-3-[6-hydroxy-2,4-dimethoxy-3-(3-methyl-2-buten-1-yl)phenyl]-4<em>H</em>-1-benzopyran-4-one;Licoricone",
    "duplicated_cas_no": "",
    "SMILES": "O(C)C1=C(C(O)=CC(OC)=C1CC=C(C)C)C=2C(=O)C=3C(OC2)=CC(O)=CC3",
    "meta_data": {
        "InChI": "InChI=1S/C22H22O6/c1-12(2)5-7-15-18(26-3)10-17(24)20(22(15)27-4)16-11-28-19-9-13(23)6-8-14(19)21(16)25/h5-6,8-11,23-24H,7H2,1-4H3",
        "InChIKey": null,
        "Canonical SMILES": "O=C1C2=CC=C(O)C=C2OC=C1C=3C(O)=CC(OC)=C(C3OC)CC=C(C)C",
        "Molecular Formula": "C<sub>22</sub>H<sub>22</sub>O<sub>6</sub>",
        "Molecular Mass": "382.41",
        "Melting Point": "250-251 °C"
    }
}