{
    "cas_no": "622-88-8",
    "key_name": "4-Bromophenylhydrazine hydrochloride",
    "cn_name": "4-溴苯肼盐酸盐;",
    "alternate_name": "Hydrazine, (4-bromophenyl)-, hydrochloride (1:1);Hydrazine, (<em>p</em>-bromophenyl)-, monohydrochloride;Hydrazine, (4-bromophenyl)-, monohydrochloride;4-Bromophenylhydrazine hydrochloride;<em>p</em>-Bromophenylhydrazine monohydrochloride;4-Bromophenylhydrazine monohydrochloride;1-(4-Bromophenyl)hydrazine hydrochloride;2-(4-Bromophenyl)hydrazinium chloride",
    "duplicated_cas_no": "2567792-06-5",
    "SMILES": "N(N)C1=CC=C(Br)C=C1.Cl",
    "meta_data": {
        "InChI": "InChI=1S/C6H7BrN2.ClH/c7-5-1-3-6(9-8)4-2-5;/h1-4,9H,8H2;1H",
        "InChIKey": null,
        "Canonical SMILES": "Cl.BrC1=CC=C(C=C1)NN",
        "Molecular Formula": "C<sub>6</sub>H<sub>7</sub>BrN<sub>2</sub>.ClH",
        "Molecular Mass": "",
        "Melting Point": "201-203 °C (decomp)"
    }
}