{
    "cas_no": "19461-38-2",
    "key_name": "Glycyl-<span class=\"text-smallcaps\">L</span>-isoleucine",
    "cn_name": "甘氨酰-L-异亮氨酸;",
    "alternate_name": "<span class=\"text-smallcaps\">L</span>-Isoleucine, glycyl-;Isoleucine, <em>N</em>-glycyl-, <span class=\"text-smallcaps\">L</span>-;<span class=\"text-smallcaps\">L</span>-Isoleucine, <em>N</em>-glycyl-;Glycyl-<span class=\"text-smallcaps\">L</span>-isoleucine;Glycylisoleucine;<em>N</em>-Glycyl-<span class=\"text-smallcaps\">L</span>-isoleucine;54: PN: EP2161028 PAGE: 10 claimed protein;15: PN: WO2014063098 TABLE: 5 claimed protein;161: PN: WO2011146121 PAGE: 117 claimed sequence;110: PN: US20130123467 SEQID: 134 claimed protein;16: PN: KR20140043582 SEQID: 19 claimed protein;466: PN: WO2022125673 SEQID: 466 claimed protein;484: PN: WO2022215055 SEQID: 484 claimed protein",
    "duplicated_cas_no": "",
    "SMILES": "[C@H](NC(CN)=O)([C@H](CC)C)C(O)=O",
    "meta_data": {
        "InChI": "InChI=1S/C8H16N2O3/c1-3-5(2)7(8(12)13)10-6(11)4-9/h5,7H,3-4,9H2,1-2H3,(H,10,11)(H,12,13)/t5-,7-/m0/s1",
        "InChIKey": null,
        "Canonical SMILES": "O=C(O)C(NC(=O)CN)C(C)CC",
        "Molecular Formula": "C<sub>8</sub>H<sub>16</sub>N<sub>2</sub>O<sub>3</sub>",
        "Molecular Mass": "188.22",
        "Melting Point": "257 °C"
    }
}