{
    "cas_no": "19213-72-0",
    "key_name": "1<em>H</em>-Imidazole-1-carboxylic acid, ethyl ester",
    "cn_name": null,
    "alternate_name": "1<em>H</em>-Imidazole-1-carboxylic acid, ethyl ester;Imidazole-1-carboxylic acid, ethyl ester;<em>N</em>-(Ethoxyformyl)imidazole;1-(Ethoxycarbonyl)imidazole;Ethyl imidazole-1-carboxylate;Ethyl 1<em>H</em>-imidazole-1-carboxylate;NSC 82335;1-Carbethoxyimidazole",
    "duplicated_cas_no": "",
    "SMILES": "C(OCC)(=O)N1C=CN=C1",
    "meta_data": {
        "InChI": "InChI=1S/C6H8N2O2/c1-2-10-6(9)8-4-3-7-5-8/h3-5H,2H2,1H3",
        "InChIKey": null,
        "Canonical SMILES": "O=C(OCC)N1C=NC=C1",
        "Molecular Formula": "C<sub>6</sub>H<sub>8</sub>N<sub>2</sub>O<sub>2</sub>",
        "Molecular Mass": "140.14",
        "Boiling Point": "100 °C @ Press: 16 Torr"
    }
}