{
    "cas_no": "33100-27-5",
    "key_name": "15-Crown-5",
    "cn_name": "15-冠醚-5;",
    "alternate_name": "1,4,7,10,13-Pentaoxacyclopentadecane;15-Crown-5;15-Crown-5 ether;Ethylene oxide cyclic pentamer;15C5;Crown Ether O 15",
    "duplicated_cas_no": "168081-57-0",
    "SMILES": "C1COCCOCCOCCOCCO1",
    "meta_data": {
        "InChI": "InChI=1S/C10H20O5/c1-2-12-5-6-14-9-10-15-8-7-13-4-3-11-1/h1-10H2",
        "InChIKey": null,
        "Canonical SMILES": "O1CCOCCOCCOCCOCC1",
        "Molecular Formula": "C<sub>10</sub>H<sub>20</sub>O<sub>5</sub>",
        "Molecular Mass": "220.26",
        "Boiling Point": "100-135 °C",
        "Density": "1.324 g/cm³"
    }
}