{
    "cas_no": "7745-91-7",
    "key_name": "3-Bromo-4-methylaniline",
    "cn_name": "3-溴-4-甲基苯胺;",
    "alternate_name": "Benzenamine, 3-bromo-4-methyl-;<em>p</em>-Toluidine, 3-bromo-;3-Bromo-4-methylbenzenamine;3-Bromo-<em>p</em>-toluidine;3-Bromo-4-methylaniline;4-Amino-2-bromotoluene;NSC 139873;3-Bromo-4-methylphenylamine",
    "duplicated_cas_no": "",
    "SMILES": "BrC1=C(C)C=CC(N)=C1",
    "meta_data": {
        "InChI": "InChI=1S/C7H8BrN/c1-5-2-3-6(9)4-7(5)8/h2-4H,9H2,1H3",
        "InChIKey": null,
        "Canonical SMILES": "BrC1=CC(N)=CC=C1C",
        "Molecular Formula": "C<sub>7</sub>H<sub>8</sub>BrN",
        "Molecular Mass": "186.05",
        "Boiling Point": "255.5 °C",
        "Melting Point": "26 °C"
    }
}