{
    "cas_no": "2050-09-1",
    "key_name": "Isoamyl valerate",
    "cn_name": "正戊酸异戊酯;正戊酸异戊酯;",
    "alternate_name": "Pentanoic acid, 3-methylbutyl ester;Valeric acid, isopentyl ester;Isopentyl alcohol, valerate;3-Methylbutyl valerate;Isoamyl valerate;3-Methyl-1-butyl <em>n</em>-valerate;3-Methylbutyl pentanoate;Isopentyl pentanoate;Isopentyl valerate;Isoamyl <em>n</em>-valerate;NSC 7006",
    "duplicated_cas_no": "",
    "SMILES": "C(OCCC(C)C)(CCCC)=O",
    "meta_data": {
        "InChI": "InChI=1S/C10H20O2/c1-4-5-6-10(11)12-8-7-9(2)3/h9H,4-8H2,1-3H3",
        "InChIKey": null,
        "Canonical SMILES": "O=C(OCCC(C)C)CCCC",
        "Molecular Formula": "C<sub>10</sub>H<sub>20</sub>O<sub>2</sub>",
        "Molecular Mass": "172.26",
        "Boiling Point": "187-190 °C"
    }
}