{
    "cas_no": "20711-10-8",
    "key_name": "(<em>Z</em>)-11-Tetradecenyl acetate",
    "cn_name": null,
    "alternate_name": "11-Tetradecen-1-ol, 1-acetate, (11<em>Z</em>)-;11-Tetradecen-1-ol, acetate, (<em>Z</em>)-;11-Tetradecen-1-ol, acetate, (11<em>Z</em>)-;<em>cis</em>-11-Tetradecenyl acetate;<em>cis</em>-11-Tetradecen-1-ol acetate;(<em>Z</em>)-11-Tetradecenyl acetate;<em>cis</em>-11-Tetradecen-1-yl acetate;(<em>Z</em>)-11-Tetradecen-1-ol acetate;(<em>Z</em>)-11-Tetradecen-1-yl acetate;11-<em>cis</em>-Tetradecen-1-yl acetate;Hamaki-con;Z 11-14Ac;(11<em>Z</em>)-11-Tetradecen-1-ol acetate",
    "duplicated_cas_no": "",
    "SMILES": "C(CCCCCC/C=C\\CC)CCCOC(C)=O",
    "meta_data": {
        "InChI": "InChI=1S/C16H30O2/c1-3-4-5-6-7-8-9-10-11-12-13-14-15-18-16(2)17/h4-5H,3,6-15H2,1-2H3/b5-4-",
        "InChIKey": null,
        "Canonical SMILES": "O=C(OCCCCCCCCCCC=CCC)C",
        "Molecular Formula": "C<sub>16</sub>H<sub>30</sub>O<sub>2</sub>",
        "Molecular Mass": "254.41",
        "Boiling Point": "117 °C",
        "Melting Point": "&lt;25 °C"
    }
}