{
    "cas_no": "42417-66-3",
    "key_name": "<span class=\"text-smallcaps\">L</span>-Isoleucine, <em>N</em>-methyl-<em>N</em>-[(phenylmethoxy)carbonyl]-",
    "cn_name": "N-苄氧羰基-N-甲基-L-异亮氨酸;",
    "alternate_name": "<span class=\"text-smallcaps\">L</span>-Isoleucine, <em>N</em>-methyl-<em>N</em>-[(phenylmethoxy)carbonyl]-;Isoleucine, <em>N</em>-carboxy-<em>N</em>-methyl-, <em>N</em>-benzyl ester;<em>N</em>-(Benzyloxycarbonyl)-<em>N</em>-methyl-<span class=\"text-smallcaps\">L</span>-isoleucine;<em>N</em>-Methyl-<em>N</em>-(phenylmethoxy)carbonyl-<span class=\"text-smallcaps\">L</span>-isoleucine",
    "duplicated_cas_no": "",
    "SMILES": "[C@H](N(C(OCC1=CC=CC=C1)=O)C)([C@H](CC)C)C(O)=O",
    "meta_data": {
        "InChI": "InChI=1S/C15H21NO4/c1-4-11(2)13(14(17)18)16(3)15(19)20-10-12-8-6-5-7-9-12/h5-9,11,13H,4,10H2,1-3H3,(H,17,18)/t11-,13-/m0/s1",
        "InChIKey": null,
        "Canonical SMILES": "O=C(OCC=1C=CC=CC1)N(C)C(C(=O)O)C(C)CC",
        "Molecular Formula": "C<sub>15</sub>H<sub>21</sub>NO<sub>4</sub>",
        "Molecular Mass": "279.33",
        "Melting Point": "63-64 °C"
    }
}