{
    "cas_no": "2769-64-4",
    "key_name": "Butyl isocyanide",
    "cn_name": "正丁基胩;",
    "alternate_name": "Butane, 1-isocyano-;Butyl isocyanide;1-Isocyanobutane;<em>n</em>-Butyl isocyanide;Butyl isonitrile;<em>n</em>-Butyl isonitrile;1-Butylisonitrile",
    "duplicated_cas_no": "1627209-97-5;2546342-31-6",
    "SMILES": "C(C[N+]#[C-])CC",
    "meta_data": {
        "InChI": "InChI=1S/C5H9N/c1-3-4-5-6-2/h3-5H2,1H3",
        "InChIKey": null,
        "Canonical SMILES": "[C-]#[N+]CCCC",
        "Molecular Formula": "C<sub>5</sub>H<sub>9</sub>N",
        "Molecular Mass": "",
        "Boiling Point": "120 °C"
    }
}