{
    "cas_no": "2516-97-4",
    "key_name": "(Methylsulfonyl)acetic acid",
    "cn_name": "甲磺酰乙酸;",
    "alternate_name": "Acetic acid, 2-(methylsulfonyl)-;Acetic acid, (methylsulfonyl)-;2-(Methylsulfonyl)acetic acid;Mesylacetic acid;(Methylsulfonyl)acetic acid;Methanesulfonylacetic acid;2-Methanesulfonylacetic acid",
    "duplicated_cas_no": "",
    "SMILES": "C(S(C)(=O)=O)C(O)=O",
    "meta_data": {
        "InChI": "InChI=1S/C3H6O4S/c1-8(6,7)2-3(4)5/h2H2,1H3,(H,4,5)",
        "InChIKey": null,
        "Canonical SMILES": "O=C(O)CS(=O)(=O)C",
        "Molecular Formula": "C<sub>3</sub>H<sub>6</sub>O<sub>4</sub>S",
        "Molecular Mass": "138.14",
        "Melting Point": "115 °C"
    }
}