{
    "cas_no": "518-44-5",
    "key_name": "Fluorescin",
    "cn_name": null,
    "alternate_name": "Benzoic acid, 2-(3,6-dihydroxy-9<em>H</em>-xanthen-9-yl)-;Fluorescin;Benzoic acid, <em>o</em>-(3,6-dihydroxyxanthen-9-yl)-;2-(3,6-Dihydroxy-9<em>H</em>-xanthen-9-yl)benzoic acid;Resorcinolphthalin;Leucofluorescein",
    "duplicated_cas_no": "",
    "SMILES": "C(O)(=O)C1=C(C2C=3C(OC=4C2=CC=C(O)C4)=CC(O)=CC3)C=CC=C1",
    "meta_data": {
        "InChI": "InChI=1S/C20H14O5/c21-11-5-7-15-17(9-11)25-18-10-12(22)6-8-16(18)19(15)13-3-1-2-4-14(13)20(23)24/h1-10,19,21-22H,(H,23,24)",
        "InChIKey": null,
        "Canonical SMILES": "O=C(O)C=1C=CC=CC1C2C3=CC=C(O)C=C3OC4=CC(O)=CC=C42",
        "Molecular Formula": "C<sub>20</sub>H<sub>14</sub>O<sub>5</sub>",
        "Molecular Mass": "334.32",
        "Melting Point": "126 °C"
    }
}