{
    "cas_no": "10036-64-3",
    "key_name": "<em>N</em>-Acetyl-α-<span class=\"text-smallcaps\">D</span>-glucosamine",
    "cn_name": "2-乙酰氨基-2-脱氧-α-D-吡喃糖;",
    "alternate_name": "α-<span class=\"text-smallcaps\">D</span>-Glucopyranose, 2-(acetylamino)-2-deoxy-;Glucopyranose, 2-acetamido-2-deoxy-, α-<span class=\"text-smallcaps\">D</span>-;2-(Acetylamino)-2-deoxy-α-<span class=\"text-smallcaps\">D</span>-glucopyranose;α-<em>N</em>-Acetyl-<span class=\"text-smallcaps\">D</span>-glucosamine;2-Acetamido-2-deoxy-α-<span class=\"text-smallcaps\">D</span>-glucopyranose;<em>N</em>-Acetyl-α-<span class=\"text-smallcaps\">D</span>-glucosamine;2-Deoxy-2-acetamido-α-<span class=\"text-smallcaps\">D</span>-glucopyranose;2-Acetamido-2-deoxy-α-<span class=\"text-smallcaps\">D</span>-glucose;α-<em>N</em>-Acetylglucosamine",
    "duplicated_cas_no": "28905-09-1",
    "SMILES": "N(C(C)=O)[C@@H]1[C@@H](O)[C@H](O)[C@@H](CO)O[C@@H]1O",
    "meta_data": {
        "InChI": "InChI=1S/C8H15NO6/c1-3(11)9-5-7(13)6(12)4(2-10)15-8(5)14/h4-8,10,12-14H,2H2,1H3,(H,9,11)/t4-,5-,6-,7-,8+/m1/s1",
        "InChIKey": null,
        "Canonical SMILES": "O=C(NC1C(O)OC(CO)C(O)C1O)C",
        "Molecular Formula": "C<sub>8</sub>H<sub>15</sub>NO<sub>6</sub>",
        "Molecular Mass": "221.21",
        "Melting Point": "209-210 °C (decomp)"
    }
}