{
    "cas_no": "407-01-2",
    "key_name": "2,2,2-Trifluoro-<em>N</em>-(2,2,2-trifluoroethyl)ethanamine",
    "cn_name": "双(2,2,2-三氟乙基)胺;双(三氟乙基)胺;双(2,2,2-三氟乙基)胺;双(2,2,2-三氟乙基)胺,96%;",
    "alternate_name": "Ethanamine, 2,2,2-trifluoro-<em>N</em>-(2,2,2-trifluoroethyl)-;Diethylamine, 2,2,2,2′,2′,2′-hexafluoro-;2,2,2-Trifluoro-<em>N</em>-(2,2,2-trifluoroethyl)ethanamine;Bis(2,2,2-trifluoroethyl)amine;<em>N</em>,<em>N</em>-Bis(2,2,2-trifluoroethyl)amine",
    "duplicated_cas_no": "",
    "SMILES": "C(C(F)(F)F)NCC(F)(F)F",
    "meta_data": {
        "InChI": "InChI=1S/C4H5F6N/c5-3(6,7)1-11-2-4(8,9)10/h11H,1-2H2",
        "InChIKey": null,
        "Canonical SMILES": "FC(F)(F)CNCC(F)(F)F",
        "Molecular Formula": "C<sub>4</sub>H<sub>5</sub>F<sub>6</sub>N",
        "Molecular Mass": "181.08",
        "Boiling Point": "79 °C"
    }
}