{
    "cas_no": "188815-32-9",
    "key_name": "3-Bromo-5-iodobenzoic acid",
    "cn_name": "3-溴-5-碘苯甲酸;",
    "alternate_name": "Benzoic acid, 3-bromo-5-iodo-;3-Bromo-5-iodobenzoic acid;5-Iodo-3-bromobenzoic acid",
    "duplicated_cas_no": "",
    "SMILES": "C(O)(=O)C1=CC(Br)=CC(I)=C1",
    "meta_data": {
        "InChI": "InChI=1S/C7H4BrIO2/c8-5-1-4(7(10)11)2-6(9)3-5/h1-3H,(H,10,11)",
        "InChIKey": null,
        "Canonical SMILES": "O=C(O)C=1C=C(Br)C=C(I)C1",
        "Molecular Formula": "C<sub>7</sub>H<sub>4</sub>BrIO<sub>2</sub>",
        "Molecular Mass": "326.91",
        "Melting Point": "209-211 °C"
    }
}