{
    "cas_no": "10504-60-6",
    "key_name": "Sulfonium, methyldiphenyl-, tetrafluoroborate(1-) (1:1)",
    "cn_name": "四氟硼酸甲基二苯基硫鎓盐;四氟硼酸甲基二苯基硫盐;二苯基(甲基)锍四氟硼酸盐;",
    "alternate_name": "Sulfonium, methyldiphenyl-, tetrafluoroborate(1-) (1:1);Sulfonium, methyldiphenyl-, tetrafluoroborate(1-);Methyldiphenylsulfonium tetrafluoroborate;Borate(1-), tetrafluoro-, methyldiphenylsulfonium;Diphenylmethylsulfonium tetrafluoroborate;Methyldiphenylsulfonium tetrafluoroborate(1-)",
    "duplicated_cas_no": "",
    "SMILES": "[S+](C)(C1=CC=CC=C1)C2=CC=CC=C2.[B+3]([F-])([F-])([F-])[F-]",
    "meta_data": {
        "InChI": "InChI=1S/C13H13S.BF4/c1-14(12-8-4-2-5-9-12)13-10-6-3-7-11-13;2-1(3,4)5/h2-11H,1H3;/q+1;-1",
        "InChIKey": null,
        "Canonical SMILES": "[F-][B+3]([F-])([F-])[F-].C=1C=CC(=CC1)[S+](C=2C=CC=CC2)C",
        "Molecular Formula": "C<sub>13</sub>H<sub>13</sub>S.BF<sub>4</sub>",
        "Molecular Mass": "",
        "Melting Point": "61-62 °C"
    }
}