{
    "cas_no": "16773-52-7",
    "key_name": "1-(2,3-Epoxypropyl)-2-methyl-5-nitroimidazole",
    "cn_name": null,
    "alternate_name": "1<em>H</em>-Imidazole, 2-methyl-5-nitro-1-(2-oxiranylmethyl)-;Imidazole, 1-(2,3-epoxypropyl)-2-methyl-5-nitro-;1<em>H</em>-Imidazole, 2-methyl-5-nitro-1-(oxiranylmethyl)-;2-Methyl-5-nitro-1-(2-oxiranylmethyl)-1<em>H</em>-imidazole;1-(2,3-Epoxypropyl)-2-methyl-5-nitroimidazole",
    "duplicated_cas_no": "929077-48-5",
    "SMILES": "C(N1C(N(=O)=O)=CN=C1C)C2CO2",
    "meta_data": {
        "InChI": "InChI=1S/C7H9N3O3/c1-5-8-2-7(10(11)12)9(5)3-6-4-13-6/h2,6H,3-4H2,1H3",
        "InChIKey": null,
        "Canonical SMILES": "O=N(=O)C1=CN=C(N1CC2OC2)C",
        "Molecular Formula": "C<sub>7</sub>H<sub>9</sub>N<sub>3</sub>O<sub>3</sub>",
        "Molecular Mass": "183.16",
        "Melting Point": "110-111 °C"
    }
}