{
    "cas_no": "13130-50-2",
    "key_name": "[2,2′:5′,2′′-Terthiophene]-5,5′′-dicarboxaldehyde",
    "cn_name": null,
    "alternate_name": "[2,2′:5′,2′′-Terthiophene]-5,5′′-dicarboxaldehyde;5,5′′-Di(carbaldehyde)-2,2′:5′,2′′-terthiophene;5,5′′-Biformyl-2,2′:5′,2′′-terthiophene",
    "duplicated_cas_no": "",
    "SMILES": "C(=O)C=1SC(C=2SC(=CC2)C=3SC(C=O)=CC3)=CC1",
    "meta_data": {
        "InChI": "InChI=1S/C14H8O2S3/c15-7-9-1-3-11(17-9)13-5-6-14(19-13)12-4-2-10(8-16)18-12/h1-8H",
        "InChIKey": null,
        "Canonical SMILES": "O=CC=1SC(=CC1)C=2SC(=CC2)C=3SC(C=O)=CC3",
        "Molecular Formula": "C<sub>14</sub>H<sub>8</sub>O<sub>2</sub>S<sub>3</sub>",
        "Molecular Mass": "304.41",
        "Melting Point": "215-218 °C"
    }
}