{
    "cas_no": "2926-27-4",
    "key_name": "Potassium trifluoromethanesulfonate",
    "cn_name": "三氟甲烷磺酸钾;三氟甲磺酸钾;三氟甲烷磺酸钾,98%;",
    "alternate_name": "Methanesulfonic acid, 1,1,1-trifluoro-, potassium salt (1:1);Methanesulfonic acid, trifluoro-, potassium salt;Potassium trifluoromethanesulfonate;Potassium trifluoromethylsulfonate;Potassium triflate;Trifluoromethanesulfonic acid potassium salt;Eftop EF 12;EF 12",
    "duplicated_cas_no": "32578-37-3;1196039-87-8;2747964-69-6",
    "SMILES": "C(S(=O)(=O)O)(F)(F)F.[K]",
    "meta_data": {
        "InChI": "InChI=1S/CHF3O3S.K/c2-1(3,4)8(5,6)7;/h(H,5,6,7);",
        "InChIKey": null,
        "Canonical SMILES": "[K].O=S(=O)(O)C(F)(F)F",
        "Molecular Formula": "CHF<sub>3</sub>O<sub>3</sub>S.K",
        "Molecular Mass": "",
        "Melting Point": "230 °C"
    }
}