{
    "cas_no": "1005-56-7",
    "key_name": "Phenyl chlorothionoformate",
    "cn_name": "硫代氯甲酸苯酯;",
    "alternate_name": "Carbonochloridothioic acid, <em>O</em>-phenyl ester;Formic acid, chlorothio-, <em>O</em>-phenyl ester;<em>O</em>-Phenyl chlorothioformate;Phenoxythiocarbonyl chloride;Phenyl chlorothionocarbonate;Phenyl thiochloroformate;Phenyl chlorothionoformate;<em>O</em>-Phenyl carbonochloridothioate;<em>O</em>-Phenyl chlorothionoformate;Phenyl chlorothiocarbonate;Phenyl thionochloroformate;NSC 99103;Phenyl thioxochloroformate;<em>O</em>-Phenyl chlorothiocarbonate;Phenyl chloromethanethioate",
    "duplicated_cas_no": "",
    "SMILES": "O(C(Cl)=S)C1=CC=CC=C1",
    "meta_data": {
        "InChI": "InChI=1S/C7H5ClOS/c8-7(10)9-6-4-2-1-3-5-6/h1-5H",
        "InChIKey": null,
        "Canonical SMILES": "S=C(Cl)OC=1C=CC=CC1",
        "Molecular Formula": "C<sub>7</sub>H<sub>5</sub>ClOS",
        "Molecular Mass": "172.63",
        "Boiling Point": "100 °C @ Press: 15 Torr",
        "Melting Point": "51 °C",
        "Density": "1.283 g/cm³ @ Temp: 15 °C"
    }
}