{
    "cas_no": "2815-95-4",
    "key_name": "1,3-Benzodioxole-5-propanoic acid",
    "cn_name": "3-(3,4-亚甲二氧基苯基)丙酸;",
    "alternate_name": "1,3-Benzodioxole-5-propanoic acid;Hydrocinnamic acid, 3,4-(methylenedioxy)-;3-(3,4-Methylenedioxyphenyl)propionic acid;3,4-(Methylenedioxy)hydrocinnamic acid;1,3-Benzodioxole-5-propionic acid;NSC 55524;3,4-Methylenedioxydihydrocinnamic acid;3-[Benzo[1,3]dioxol-5-yl]propionic acid;3-(Benzodioxol-5-yl)propionic acid;3-(Benzo[<em>d</em>][1,3]dioxol-5-yl)propanoic acid;3-(1,3-Benzodioxol-5-yl)propanoic acid;3-(1,3-Dioxaindan-5-yl)propanoic acid;<em>trans</em>-3-(1,3-Benzodioxol-5-yl)propanoic acid",
    "duplicated_cas_no": "",
    "SMILES": "C(CC(O)=O)C=1C=C2C(=CC1)OCO2",
    "meta_data": {
        "InChI": "InChI=1S/C10H10O4/c11-10(12)4-2-7-1-3-8-9(5-7)14-6-13-8/h1,3,5H,2,4,6H2,(H,11,12)",
        "InChIKey": null,
        "Canonical SMILES": "O=C(O)CCC1=CC=C2OCOC2=C1",
        "Molecular Formula": "C<sub>10</sub>H<sub>10</sub>O<sub>4</sub>",
        "Molecular Mass": "194.18",
        "Melting Point": "81-85 °C"
    }
}