{
    "cas_no": "720-75-2",
    "key_name": "[1,1′-Biphenyl]-4-carboxylic acid, methyl ester",
    "cn_name": "联苯-4-甲酸甲酯;",
    "alternate_name": "[1,1′-Biphenyl]-4-carboxylic acid, methyl ester;4-Biphenylcarboxylic acid, methyl ester;Methyl 4-biphenylcarboxylate;Methyl <em>p</em>-phenylbenzoate;Methyl 4-phenylbenzoate;4-Carbomethoxybiphenyl;4-Methoxycarbonylbiphenyl;NSC 16285;NSC 234749;Methyl 1,1′-biphenyl-4-carboxylate;4-(Methoxycarbonyl)-1,1′-biphenyl",
    "duplicated_cas_no": "",
    "SMILES": "C(OC)(=O)C1=CC=C(C=C1)C2=CC=CC=C2",
    "meta_data": {
        "InChI": "InChI=1S/C14H12O2/c1-16-14(15)13-9-7-12(8-10-13)11-5-3-2-4-6-11/h2-10H,1H3",
        "InChIKey": null,
        "Canonical SMILES": "O=C(OC)C=1C=CC(=CC1)C=2C=CC=CC2",
        "Molecular Formula": "C<sub>14</sub>H<sub>12</sub>O<sub>2</sub>",
        "Molecular Mass": "212.24",
        "Boiling Point": "110-130 °C @ Press: 3 Torr",
        "Melting Point": "118 °C"
    }
}