{
    "cas_no": "148901-68-2",
    "key_name": "(2<em>E</em>)-3-[2-Cyclopropyl-4-(4-fluorophenyl)-3-quinolinyl]-2-propenal",
    "cn_name": "(E)-3-[2-环丙基-4-(4-氟苯基)-3-喹啉-2-丙烯醛;",
    "alternate_name": "2-Propenal, 3-[2-cyclopropyl-4-(4-fluorophenyl)-3-quinolinyl]-, (2<em>E</em>)-;2-Propenal, 3-[2-cyclopropyl-4-(4-fluorophenyl)-3-quinolinyl]-, (<em>E</em>)-;(2<em>E</em>)-3-[2-Cyclopropyl-4-(4-fluorophenyl)-3-quinolinyl]-2-propenal;(<em>E</em>)-3-[2-Cyclopropyl-4-(4-fluorophenyl)quinolin-3-yl]prop-2-en-1-al;(2<em>E</em>)-3-[2-cyclopropyl-4-(4-fluorophenyl)-3-quinolinyl]-2-propenal",
    "duplicated_cas_no": "1006053-99-1",
    "SMILES": "C(=C/C=O)\\C1=C(C2=C(N=C1C3CC3)C=CC=C2)C4=CC=C(F)C=C4",
    "meta_data": {
        "InChI": "InChI=1S/C21H16FNO/c22-16-11-9-14(10-12-16)20-17-4-1-2-6-19(17)23-21(15-7-8-15)18(20)5-3-13-24/h1-6,9-13,15H,7-8H2/b5-3+",
        "InChIKey": null,
        "Canonical SMILES": "O=CC=CC=1C(=NC=2C=CC=CC2C1C=3C=CC(F)=CC3)C4CC4",
        "Molecular Formula": "C<sub>21</sub>H<sub>16</sub>FNO",
        "Molecular Mass": "317.36",
        "Melting Point": "136-142 °C"
    }
}