{
    "cas_no": "74070-46-5",
    "key_name": "Aclonifen",
    "cn_name": "苯草醚;",
    "alternate_name": "Benzenamine, 2-chloro-6-nitro-3-phenoxy-;2-Chloro-6-nitro-3-phenoxybenzenamine;CME 127;Aclonifen;2-Chloro-6-nitro-3-phenoxyaniline;Bandren;Bandur;KUB 3359;Challenge 600",
    "duplicated_cas_no": "",
    "SMILES": "O(C1=C(Cl)C(N)=C(N(=O)=O)C=C1)C2=CC=CC=C2",
    "meta_data": {
        "InChI": "InChI=1S/C12H9ClN2O3/c13-11-10(18-8-4-2-1-3-5-8)7-6-9(12(11)14)15(16)17/h1-7H,14H2",
        "InChIKey": null,
        "Canonical SMILES": "O=N(=O)C1=CC=C(OC=2C=CC=CC2)C(Cl)=C1N",
        "Molecular Formula": "C<sub>12</sub>H<sub>9</sub>ClN<sub>2</sub>O<sub>3</sub>",
        "Molecular Mass": "264.66",
        "Melting Point": "81.5 °C"
    }
}