{
    "cas_no": "15332-99-7",
    "key_name": "Vinyltriisopropenoxysilane",
    "cn_name": "乙烯三[(1-甲基乙烯基)氧]硅烷;乙烯三[(1-甲基乙烯基)氧]硅烷;",
    "alternate_name": "Silane, ethenyltris[(1-methylethenyl)oxy]-;Silane, tris(isopropenyloxy)vinyl-;Ethenyltris[(1-methylethenyl)oxy]silane;Tris(isopropenyloxy)vinylsilane;Vinyltris(isopropenyloxy)silane;Tri(isopropenoxy)vinylsilane;Vinyltriisopropenoxysilane;Vinyltris(isopropenoxy)silane;Vinyltriisopropenyloxysilane;SIV 9209.0;LS 3975",
    "duplicated_cas_no": "",
    "SMILES": "[Si](OC(C)=C)(OC(C)=C)(OC(C)=C)C=C",
    "meta_data": {
        "InChI": "InChI=1S/C11H18O3Si/c1-8-15(12-9(2)3,13-10(4)5)14-11(6)7/h8H,1-2,4,6H2,3,5,7H3",
        "InChIKey": null,
        "Canonical SMILES": "O(C(=C)C)[Si](OC(=C)C)(OC(=C)C)C=C",
        "Molecular Formula": "C<sub>11</sub>H<sub>18</sub>O<sub>3</sub>Si",
        "Molecular Mass": "226.34",
        "Boiling Point": "73-75 °C @ Press: 12 Torr",
        "Density": "0.926 g/cm³"
    }
}