{
    "cas_no": "175277-76-6",
    "key_name": "<em>N</em>-(2,4-Difluorophenyl)thiourea",
    "cn_name": "2,4-二氟苯基硫脲;2,4-二氟苯(基)硫脲;",
    "alternate_name": "Thiourea, <em>N</em>-(2,4-difluorophenyl)-;Thiourea, (2,4-difluorophenyl)-;<em>N</em>-(2,4-Difluorophenyl)thiourea;NSC 370368;1-(2,4-Difluorophenyl)-2-thiourea;(2,4-Difluorophenyl)thiourea",
    "duplicated_cas_no": "",
    "SMILES": "N(C(N)=S)C1=C(F)C=C(F)C=C1",
    "meta_data": {
        "InChI": "InChI=1S/C7H6F2N2S/c8-4-1-2-6(5(9)3-4)11-7(10)12/h1-3H,(H3,10,11,12)",
        "InChIKey": null,
        "Canonical SMILES": "FC1=CC=C(NC(=S)N)C(F)=C1",
        "Molecular Formula": "C<sub>7</sub>H<sub>6</sub>F<sub>2</sub>N<sub>2</sub>S",
        "Molecular Mass": "188.20",
        "Melting Point": "168-170 °C"
    }
}