{
    "cas_no": "635-12-1",
    "key_name": "1,4-Anthraquinone",
    "cn_name": "1,4-蒽醌;蒽-1,4-二酮;",
    "alternate_name": "1,4-Anthracenedione;1,4-Anthraquinone;1,4-Anthracenequinone;NSC 104530;1,4-Dihydroanthracene-1,4-dione",
    "duplicated_cas_no": "",
    "SMILES": "O=C1C=2C(=CC=3C(C2)=CC=CC3)C(=O)C=C1",
    "meta_data": {
        "InChI": "InChI=1S/C14H8O2/c15-13-5-6-14(16)12-8-10-4-2-1-3-9(10)7-11(12)13/h1-8H",
        "InChIKey": null,
        "Canonical SMILES": "O=C1C=CC(=O)C2=CC=3C=CC=CC3C=C12",
        "Molecular Formula": "C<sub>14</sub>H<sub>8</sub>O<sub>2</sub>",
        "Molecular Mass": "208.21",
        "Melting Point": "206 °C (decomp)"
    }
}