{
    "cas_no": "13423-60-4",
    "key_name": "1-Phenyl-1<em>H</em>-1,2,4-triazole",
    "cn_name": null,
    "alternate_name": "1<em>H</em>-1,2,4-Triazole, 1-phenyl-;1-Phenyl-1<em>H</em>-1,2,4-triazole;1-Phenyl-1,2,4-triazole;1-Phenyl-<em>s</em>-triazole;<em>N</em>-Phenyl-1<em>H</em>-1,2,4-triazole;NSC 609753",
    "duplicated_cas_no": "",
    "SMILES": "N1(C=NC=N1)C2=CC=CC=C2",
    "meta_data": {
        "InChI": "InChI=1S/C8H7N3/c1-2-4-8(5-3-1)11-7-9-6-10-11/h1-7H",
        "InChIKey": null,
        "Canonical SMILES": "N=1C=NN(C1)C=2C=CC=CC2",
        "Molecular Formula": "C<sub>8</sub>H<sub>7</sub>N<sub>3</sub>",
        "Molecular Mass": "145.16",
        "Boiling Point": "268-270 °C",
        "Melting Point": "47 °C"
    }
}