{
    "cas_no": "719-54-0",
    "key_name": "<em>N</em>-Methylacridone",
    "cn_name": "N-甲基-9-吖啶酮;甲基-蒽酮;N-甲吖啶酮;10-甲基-9(10H)-吖啶酮;",
    "alternate_name": "9(10<em>H</em>)-Acridinone, 10-methyl-;9-Acridanone, 10-methyl-;10-Methyl-9(10<em>H</em>)-acridinone;<em>N</em>-Methylacridone;10-Methyl-9-acridanone;10-Methylacridin-9-one;<em>N</em>-Methyl-9-acridone;10-Methyl-9(10<em>H</em>)-acridone;10-Methylacridone;10-Methyl-9-acridone;NSC 1189;NSC 54142;9,10-Dihydro-9-methyl-10-acridinone;10-Methyl-10<em>H</em>-acridin-9-one;9-Methyl-9-azaanthracen-10-one",
    "duplicated_cas_no": "",
    "SMILES": "O=C1C=2C(N(C)C=3C1=CC=CC3)=CC=CC2",
    "meta_data": {
        "InChI": "InChI=1S/C14H11NO/c1-15-12-8-4-2-6-10(12)14(16)11-7-3-5-9-13(11)15/h2-9H,1H3",
        "InChIKey": null,
        "Canonical SMILES": "O=C1C=2C=CC=CC2N(C=3C=CC=CC13)C",
        "Molecular Formula": "C<sub>14</sub>H<sub>11</sub>NO",
        "Molecular Mass": "209.24",
        "Melting Point": "203 °C"
    }
}