{
    "cas_no": "73960-07-3",
    "key_name": "4-(Difluoromethoxy)benzaldehyde",
    "cn_name": "4-(二氟甲氧基)苯甲醛;",
    "alternate_name": "Benzaldehyde, 4-(difluoromethoxy)-;4-(Difluoromethoxy)benzaldehyde;<em>p</em>-Difluoromethoxybenzaldehyde;Difluoromethyl 4-Formylphenyl ether",
    "duplicated_cas_no": "",
    "SMILES": "O(C(F)F)C1=CC=C(C=O)C=C1",
    "meta_data": {
        "InChI": "InChI=1S/C8H6F2O2/c9-8(10)12-7-3-1-6(5-11)2-4-7/h1-5,8H",
        "InChIKey": null,
        "Canonical SMILES": "O=CC1=CC=C(OC(F)F)C=C1",
        "Molecular Formula": "C<sub>8</sub>H<sub>6</sub>F<sub>2</sub>O<sub>2</sub>",
        "Molecular Mass": "172.13",
        "Boiling Point": "87 °C @ Press: 3 Torr"
    }
}