{
    "cas_no": "88-63-1",
    "key_name": "2,4-Diaminobenzenesulfonic acid",
    "cn_name": "2,4-二氨基苯磺酸;",
    "alternate_name": "Benzenesulfonic acid, 2,4-diamino-;2,4-Diaminobenzenesulfonic acid;<em>o</em>-Aminosulfanilic acid;1,3-Diaminobenzene-6-sulfonic acid;<em>m</em>-Phenylenediamine-4-sulfonic acid;1,3-Diaminobenzene-4-sulfonic acid;1,3-Phenylenediamine-4-sulfonic acid;4-Sulfo-1,3-diaminobenzene;Metaphenylenediamine-4-sulfonic acid;NSC 7835;2,4-Diamino-1-benzenesulfonic acid;ABSA;1-Sulfo-2,4-phenylenediamine",
    "duplicated_cas_no": "",
    "SMILES": "S(=O)(=O)(O)C1=C(N)C=C(N)C=C1",
    "meta_data": {
        "InChI": "InChI=1S/C6H8N2O3S/c7-4-1-2-6(5(8)3-4)12(9,10)11/h1-3H,7-8H2,(H,9,10,11)",
        "InChIKey": null,
        "Canonical SMILES": "O=S(=O)(O)C1=CC=C(N)C=C1N",
        "Molecular Formula": "C<sub>6</sub>H<sub>8</sub>N<sub>2</sub>O<sub>3</sub>S",
        "Molecular Mass": "188.20",
        "Melting Point": "&gt;294 °C"
    }
}