{
    "cas_no": "54004-38-5",
    "key_name": "7-Methylisoquinoline",
    "cn_name": "7-甲基异喹啉;7-甲基异喹啉;",
    "alternate_name": "Isoquinoline, 7-methyl-;7-Methylisoquinoline",
    "duplicated_cas_no": "",
    "SMILES": "CC1=CC2=C(C=C1)C=CN=C2",
    "meta_data": {
        "InChI": "InChI=1S/C10H9N/c1-8-2-3-9-4-5-11-7-10(9)6-8/h2-7H,1H3",
        "InChIKey": null,
        "Canonical SMILES": "N=1C=CC=2C=CC(=CC2C1)C",
        "Molecular Formula": "C<sub>10</sub>H<sub>9</sub>N",
        "Molecular Mass": "143.19",
        "Melting Point": "67-68 °C"
    }
}