{
    "cas_no": "589-55-9",
    "key_name": "4-Heptanol",
    "cn_name": "4-庚醇;4-庚醇;",
    "alternate_name": "4-Heptanol;Dipropylcarbinol;4-Heptyl alcohol;NSC 8695;4-Hydroxyheptane",
    "duplicated_cas_no": "",
    "SMILES": "C(CCC)(CCC)O",
    "meta_data": {
        "InChI": "InChI=1S/C7H16O/c1-3-5-7(8)6-4-2/h7-8H,3-6H2,1-2H3",
        "InChIKey": null,
        "Canonical SMILES": "OC(CCC)CCC",
        "Molecular Formula": "C<sub>7</sub>H<sub>16</sub>O",
        "Molecular Mass": "116.20",
        "Boiling Point": "156 °C",
        "Melting Point": "-41.2 °C",
        "Density": "0.8183 g/cm³ @ Temp: 20 °C"
    }
}