{
    "cas_no": "122321-04-4",
    "key_name": "2-[<em>N</em>-Methyl-<em>N</em>-(2-pyridyl)amino]ethanol",
    "cn_name": "2-[N-甲基-N-(2-吡啶基)氨基]乙醇;",
    "alternate_name": "Ethanol, 2-(methyl-2-pyridinylamino)-;2-(Methyl-2-pyridinylamino)ethanol;2-(Methyl-2-pyridylamino)ethanol;2-[<em>N</em>-Methyl-<em>N</em>-(2-pyridyl)amino]ethanol;2-[Methyl(2-pyridinyl)amino]ethanol;2-[<em>N</em>-Methyl-<em>N</em>-(pyridin-2-yl)amino]ethanol;2-[Methyl(pyridin-2-yl)amino]ethan-1-ol;2-[<em>N</em>-(2-Hydroxyethyl)-<em>N</em>-methylamino]pyridine",
    "duplicated_cas_no": "",
    "SMILES": "N(CCO)(C)C1=CC=CC=N1",
    "meta_data": {
        "InChI": "InChI=1S/C8H12N2O/c1-10(6-7-11)8-4-2-3-5-9-8/h2-5,11H,6-7H2,1H3",
        "InChIKey": null,
        "Canonical SMILES": "OCCN(C1=NC=CC=C1)C",
        "Molecular Formula": "C<sub>8</sub>H<sub>12</sub>N<sub>2</sub>O",
        "Molecular Mass": "152.19",
        "Boiling Point": "106-108 °C @ Press: 0.9 Torr"
    }
}