{
    "cas_no": "877-22-5",
    "key_name": "3-Methoxysalicylic acid",
    "cn_name": "3-甲氧基水杨酸;2-羟基-3-甲氧基苯甲酸;",
    "alternate_name": "Benzoic acid, 2-hydroxy-3-methoxy-;<em>m</em>-Anisic acid, 2-hydroxy-;Salicylic acid, 3-methoxy-;2-Hydroxy-3-methoxybenzoic acid;<em>o</em>-Vanillic acid;3-Methoxysalicylic acid;3-Methoxy-2-hydroxybenzoic acid;NSC 134533;NSC 408167",
    "duplicated_cas_no": "",
    "SMILES": "C(O)(=O)C1=C(O)C(OC)=CC=C1",
    "meta_data": {
        "InChI": "InChI=1S/C8H8O4/c1-12-6-4-2-3-5(7(6)9)8(10)11/h2-4,9H,1H3,(H,10,11)",
        "InChIKey": null,
        "Canonical SMILES": "O=C(O)C=1C=CC=C(OC)C1O",
        "Molecular Formula": "C<sub>8</sub>H<sub>8</sub>O<sub>4</sub>",
        "Molecular Mass": "168.15",
        "Melting Point": "150-152 °C"
    }
}