{
    "cas_no": "112811-59-3",
    "key_name": "Gatifloxacin",
    "cn_name": "加替沙星;1-环丙基-6-氟-1,4-二氢-8-甲氧基-7-(3-甲基-1-哌嗪基)-4-氧代-3-喹啉羧酸;",
    "alternate_name": "3-Quinolinecarboxylic acid, 1-cyclopropyl-6-fluoro-1,4-dihydro-8-methoxy-7-(3-methyl-1-piperazinyl)-4-oxo-;1-Cyclopropyl-6-fluoro-1,4-dihydro-8-methoxy-7-(3-methyl-1-piperazinyl)-4-oxo-3-quinolinecarboxylic acid;AM 1155;PD 135432;(±)-1-Cyclopropyl-6-fluoro-1,4-dihydro-8-methoxy-7-(3-methyl-1-piperazinyl)-4-oxo-3-quinolinecarboxylic acid;BMS 206584-01;Gatifloxacin;1-Cyclopropyl-6-fluoro-8-methoxy-1,4-dihydro-7-(3-methylpiperazin-1-yl)-4-oxoquinoline-3-carboxylic acid;Tequin;Gatiflo;Zymar;Tymer;Gatiquin;Gaity;Gatilox;Gatispan;G-Cebran;Gatifloxin;1-Cyclopropyl-6-fluoro-8-methoxy-7-(3-methylpiperazin-4-ium-1-yl)-4-oxoquinoline-3-carboxylate;1-Cyclopropyl-6-fluoro-8-methoxy-7-(3-methyl-piperazin-1-yl)-4-oxo-1,4-dihydro-quinoline-3-carboxylic acid;Zymaxid",
    "duplicated_cas_no": "160738-57-8",
    "SMILES": "O(C)C1=C2N(C=C(C(O)=O)C(=O)C2=CC(F)=C1N3CC(C)NCC3)C4CC4",
    "meta_data": {
        "InChI": "InChI=1S/C19H22FN3O4/c1-10-8-22(6-5-21-10)16-14(20)7-12-15(18(16)27-2)23(11-3-4-11)9-13(17(12)24)19(25)26/h7,9-11,21H,3-6,8H2,1-2H3,(H,25,26)",
        "InChIKey": null,
        "Canonical SMILES": "O=C(O)C1=CN(C2=C(OC)C(=C(F)C=C2C1=O)N3CCNC(C)C3)C4CC4",
        "Molecular Formula": "C<sub>19</sub>H<sub>22</sub>FN<sub>3</sub>O<sub>4</sub>",
        "Molecular Mass": "375.39",
        "Melting Point": "167-168 °C"
    }
}