{
    "cas_no": "760-20-3",
    "key_name": "3-Methyl-1-pentene",
    "cn_name": "3-甲基-1-戊烯;仲丁基乙烯;3-甲基-1-戊烯;3-甲-1-戊烯;二級丁基乙烯;",
    "alternate_name": "1-Pentene, 3-methyl-;3-Methyl-1-pentene;<em>sec</em>-Butylethene;3-Ethyl-1-butene;(<em>RS</em>)-3-Methyl-1-pentene;NSC 73909;3-Methylpentene-1",
    "duplicated_cas_no": "13643-02-2",
    "SMILES": "C(CC)(C=C)C",
    "meta_data": {
        "InChI": "InChI=1S/C6H12/c1-4-6(3)5-2/h4,6H,1,5H2,2-3H3",
        "InChIKey": null,
        "Canonical SMILES": "C=CC(C)CC",
        "Molecular Formula": "C<sub>6</sub>H<sub>12</sub>",
        "Molecular Mass": "84.16",
        "Boiling Point": "54.2 °C",
        "Melting Point": "-153 °C",
        "Density": "0.06700 g/cm³ @ Temp: 20 °C"
    }
}