{
    "cas_no": "21806-61-1",
    "key_name": "5<em>H</em>-1,2-Oxathiole, 2,2-dioxide",
    "cn_name": "丙烯基-1,3-磺酸内酯;",
    "alternate_name": "5<em>H</em>-1,2-Oxathiole, 2,2-dioxide;1-Propene-1-sulfonic acid, 3-hydroxy-, γ-sultone;1,3-Propene sultone;1-Propene-1,3-sultone",
    "duplicated_cas_no": "",
    "SMILES": "O=S1(=O)C=CCO1",
    "meta_data": {
        "InChI": "InChI=1S/C3H4O3S/c4-7(5)3-1-2-6-7/h1,3H,2H2",
        "InChIKey": null,
        "Canonical SMILES": "O=S1(=O)OCC=C1",
        "Molecular Formula": "C<sub>3</sub>H<sub>4</sub>O<sub>3</sub>S",
        "Molecular Mass": "120.13",
        "Boiling Point": "118 °C",
        "Melting Point": "78 °C"
    }
}