{
    "cas_no": "38051-57-9",
    "key_name": "Chlorodecyldimethylsilane",
    "cn_name": "癸基二甲基氯硅烷;正癸基二甲基氯硅烷;",
    "alternate_name": "Silane, chlorodecyldimethyl-;Chlorodecyldimethylsilane;Dimethyldecylchlorosilane;Decyldimethylchlorosilane;<em>n</em>-Decyldimethylchlorosilane;Decyldimethylsilyl chloride;Chlorodimethyldecylsilane",
    "duplicated_cas_no": "",
    "SMILES": "C(CCCCCCCC)C[Si](C)(C)Cl",
    "meta_data": {
        "InChI": "InChI=1S/C12H27ClSi/c1-4-5-6-7-8-9-10-11-12-14(2,3)13/h4-12H2,1-3H3",
        "InChIKey": null,
        "Canonical SMILES": "Cl[Si](C)(C)CCCCCCCCCC",
        "Molecular Formula": "C<sub>12</sub>H<sub>27</sub>ClSi",
        "Molecular Mass": "234.88",
        "Boiling Point": "98 °C @ Press: 2 Torr",
        "Density": "0.866 g/cm³"
    }
}