{
    "cas_no": "14001-63-9",
    "key_name": "4-Methyl-2-(methylthio)pyrimidine",
    "cn_name": "4-甲基-2-甲硫基嘧啶;",
    "alternate_name": "Pyrimidine, 4-methyl-2-(methylthio)-;4-Methyl-2-(methylthio)pyrimidine;2-Methylthio-4-methylpyrimidine;4-Methyl-2-methylsulfanylpyrimidine",
    "duplicated_cas_no": "",
    "SMILES": "S(C)C=1N=C(C)C=CN1",
    "meta_data": {
        "InChI": "InChI=1S/C6H8N2S/c1-5-3-4-7-6(8-5)9-2/h3-4H,1-2H3",
        "InChIKey": null,
        "Canonical SMILES": "N=1C=CC(=NC1SC)C",
        "Molecular Formula": "C<sub>6</sub>H<sub>8</sub>N<sub>2</sub>S",
        "Molecular Mass": "140.21",
        "Boiling Point": "78-80 °C @ Press: 1 Torr"
    }
}