{
    "cas_no": "23806-24-8",
    "key_name": "3-Methyl-2-thiophenecarboxylic acid",
    "cn_name": "3-甲基噻吩-2-羧酸;",
    "alternate_name": "2-Thiophenecarboxylic acid, 3-methyl-;3-Methyl-2-thiophenecarboxylic acid;2-Carboxy-3-methylthiophene",
    "duplicated_cas_no": "",
    "SMILES": "C(O)(=O)C1=C(C)C=CS1",
    "meta_data": {
        "InChI": "InChI=1S/C6H6O2S/c1-4-2-3-9-5(4)6(7)8/h2-3H,1H3,(H,7,8)",
        "InChIKey": null,
        "Canonical SMILES": "O=C(O)C=1SC=CC1C",
        "Molecular Formula": "C<sub>6</sub>H<sub>6</sub>O<sub>2</sub>S",
        "Molecular Mass": "142.18",
        "Melting Point": "144 °C"
    }
}