{
    "cas_no": "1212-29-9",
    "key_name": "Dicyclohexylthiourea",
    "cn_name": "N,N\"-二环己基硫脲;1,3-二环己烷基-2-硫脲;",
    "alternate_name": "Thiourea, <em>N</em>,<em>N</em>′-dicyclohexyl-;Urea, 1,3-dicyclohexyl-2-thio-;<em>N</em>,<em>N</em>′-Dicyclohexylthiourea;<em>sym</em>-Dicyclohexylthiourea;1,3-Dicyclohexylthiourea;<em>N</em>,<em>N</em>′-Dicyclohexylthiocarbamide;1,3-Dicyclohexyl-2-thiourea;Dicyclohexylthiourea;1,3-Bis(cyclohexyl)thiourea;NSC 33443",
    "duplicated_cas_no": "",
    "SMILES": "N(C(NC1CCCCC1)=S)C2CCCCC2",
    "meta_data": {
        "InChI": "InChI=1S/C13H24N2S/c16-13(14-11-7-3-1-4-8-11)15-12-9-5-2-6-10-12/h11-12H,1-10H2,(H2,14,15,16)",
        "InChIKey": null,
        "Canonical SMILES": "S=C(NC1CCCCC1)NC2CCCCC2",
        "Molecular Formula": "C<sub>13</sub>H<sub>24</sub>N<sub>2</sub>S",
        "Molecular Mass": "240.41",
        "Melting Point": "180-181 °C"
    }
}