{
    "cas_no": "1087-21-4",
    "key_name": "Diallyl isophthalate",
    "cn_name": null,
    "alternate_name": "1,3-Benzenedicarboxylic acid, 1,3-di-2-propen-1-yl ester;Isophthalic acid, diallyl ester;1,3-Benzenedicarboxylic acid, di-2-propenyl ester;Diallyl isophthalate;Di-2-Propenyl isophthalate;DAP 100 Monomer;DAP Monomer 100;NSC 6098;Daiso DAP 100 monomer",
    "duplicated_cas_no": "127002-01-1;163447-33-4",
    "SMILES": "C(OCC=C)(=O)C1=CC(C(OCC=C)=O)=CC=C1",
    "meta_data": {
        "InChI": "InChI=1S/C14H14O4/c1-3-8-17-13(15)11-6-5-7-12(10-11)14(16)18-9-4-2/h3-7,10H,1-2,8-9H2",
        "InChIKey": null,
        "Canonical SMILES": "O=C(OCC=C)C1=CC=CC(=C1)C(=O)OCC=C",
        "Molecular Formula": "C<sub>14</sub>H<sub>14</sub>O<sub>4</sub>",
        "Molecular Mass": "246.26",
        "Boiling Point": "120-135 °C @ Press: 1-4 Torr"
    }
}