{
    "cas_no": "80-26-2",
    "key_name": "(±)-α-Terpinyl acetate",
    "cn_name": "乙酸松油酯;",
    "alternate_name": "3-Cyclohexene-1-methanol, α,α,4-trimethyl-, 1-acetate;<em>p</em>-Menth-1-en-8-ol, acetate;3-Cyclohexene-1-methanol, α,α,4-trimethyl-, acetate;α-Terpineol acetate;α-Terpinyl acetate;Terpinyl acetate;2-(4-Methyl-3-cyclohexen-1-yl)-2-propyl acetate;(±)-α-Terpineol acetate;(±)-α-Terpinyl acetate;2-(4-Methylcyclohex-3-en-1-yl)propan-2-yl acetate;α,α,4-Trimethyl-3-cyclohexene-1-methanol acetate",
    "duplicated_cas_no": "104806-93-1;10581-37-0;21090-64-2",
    "SMILES": "C(OC(C)=O)(C)(C)C1CCC(C)=CC1",
    "meta_data": {
        "InChI": "InChI=1S/C12H20O2/c1-9-5-7-11(8-6-9)12(3,4)14-10(2)13/h5,11H,6-8H2,1-4H3",
        "InChIKey": null,
        "Canonical SMILES": "O=C(OC(C)(C)C1CC=C(C)CC1)C",
        "Molecular Formula": "C<sub>12</sub>H<sub>20</sub>O<sub>2</sub>",
        "Molecular Mass": "196.29",
        "Boiling Point": "104-106 °C @ Press: 12 Torr",
        "Melting Point": "112-113.5 °C",
        "Density": "0.967 g/cm³ @ Temp: 20 °C"
    }
}