{
    "cas_no": "2284-31-3",
    "key_name": "Pratensein",
    "cn_name": null,
    "alternate_name": "4<em>H</em>-1-Benzopyran-4-one, 5,7-dihydroxy-3-(3-hydroxy-4-methoxyphenyl)-;Isoflavone, 3′,5,7-trihydroxy-4′-methoxy-;5,7-Dihydroxy-3-(3-hydroxy-4-methoxyphenyl)-4<em>H</em>-1-benzopyran-4-one;Pratensein;4′-<em>O</em>-Methylorobol;Pratenseine;3′-Hydroxybiochanin A",
    "duplicated_cas_no": "",
    "SMILES": "O=C1C=2C(OC=C1C3=CC(O)=C(OC)C=C3)=CC(O)=CC2O",
    "meta_data": {
        "InChI": "InChI=1S/C16H12O6/c1-21-13-3-2-8(4-11(13)18)10-7-22-14-6-9(17)5-12(19)15(14)16(10)20/h2-7,17-19H,1H3",
        "InChIKey": null,
        "Canonical SMILES": "O=C1C(=COC=2C=C(O)C=C(O)C12)C=3C=CC(OC)=C(O)C3",
        "Molecular Formula": "C<sub>16</sub>H<sub>12</sub>O<sub>6</sub>",
        "Molecular Mass": "300.26",
        "Melting Point": "271-273 °C"
    }
}