{
    "cas_no": "60-29-7",
    "key_name": "Diethyl ether",
    "cn_name": "乙醚;二乙醚;",
    "alternate_name": "Ethane, 1,1′-oxybis-;Ether;Ethyl ether;1,1′-Oxybis[ethane];Anaesthetic ether;Anesthesia ether;Anesthetic ether;Diethyl ether;Diethyl oxide;Ethoxyethane;Pronarcol;3-Oxapentane;Sulfuric ether;Ethyl oxide;NSC 100036;R 610;MeSH ID: D004986",
    "duplicated_cas_no": "7578-39-4;74446-43-8;927820-24-4;1480389-44-3",
    "SMILES": "O(CC)CC",
    "meta_data": {
        "InChI": "InChI=1S/C4H10O/c1-3-5-4-2/h3-4H2,1-2H3",
        "InChIKey": null,
        "Canonical SMILES": "O(CC)CC",
        "Molecular Formula": "C<sub>4</sub>H<sub>10</sub>O",
        "Molecular Mass": "74.12",
        "Boiling Point": "2.2 °C @ Press: 200 Torr",
        "Melting Point": "-116 °C",
        "Density": "0.7134 g/cm³ @ Temp: 20 °C"
    }
}