{
    "cas_no": "113158-40-0",
    "key_name": "Fenoxaprop P",
    "cn_name": "精恶唑禾草灵;(R)-2-[4-(6-氯-2-苯并噁唑氧基)苯氧基]丙酸;",
    "alternate_name": "Propanoic acid, 2-[4-[(6-chloro-2-benzoxazolyl)oxy]phenoxy]-, (2<em>R</em>)-;Propanoic acid, 2-[4-[(6-chloro-2-benzoxazolyl)oxy]phenoxy]-, (<em>R</em>)-;(2<em>R</em>)-2-[4-[(6-Chloro-2-benzoxazolyl)oxy]phenoxy]propanoic acid;Fenoxaprop P;HOE 088406;(<em>R</em>)-Fenoxaprop;(<em>R</em>)-Fenoxaprop acid;(R)-2-(4-(6-Chloro-2-benzoxazolyloxy)phenoxy)propionic acid",
    "duplicated_cas_no": "",
    "SMILES": "O(C1=NC=2C(O1)=CC(Cl)=CC2)C3=CC=C(O[C@@H](C(O)=O)C)C=C3",
    "meta_data": {
        "InChI": "InChI=1S/C16H12ClNO5/c1-9(15(19)20)21-11-3-5-12(6-4-11)22-16-18-13-7-2-10(17)8-14(13)23-16/h2-9H,1H3,(H,19,20)/t9-/m1/s1",
        "InChIKey": null,
        "Canonical SMILES": "O=C(O)C(OC1=CC=C(OC2=NC=3C=CC(Cl)=CC3O2)C=C1)C",
        "Molecular Formula": "C<sub>16</sub>H<sub>12</sub>ClNO<sub>5</sub>",
        "Molecular Mass": "333.72",
        "Melting Point": "158 °C"
    }
}