{
    "cas_no": "18063-03-1",
    "key_name": "2,6-Difluorobenzamide",
    "cn_name": "2,6-二氟苯甲酰胺;",
    "alternate_name": "Benzamide, 2,6-difluoro-;2,6-Difluorobenzamide",
    "duplicated_cas_no": "",
    "SMILES": "C(N)(=O)C1=C(F)C=CC=C1F",
    "meta_data": {
        "InChI": "InChI=1S/C7H5F2NO/c8-4-2-1-3-5(9)6(4)7(10)11/h1-3H,(H2,10,11)",
        "InChIKey": null,
        "Canonical SMILES": "O=C(N)C=1C(F)=CC=CC1F",
        "Molecular Formula": "C<sub>7</sub>H<sub>5</sub>F<sub>2</sub>NO",
        "Molecular Mass": "157.12",
        "Melting Point": "145-148 °C"
    }
}