{
    "cas_no": "3385-78-2",
    "key_name": "Trimethylindium",
    "cn_name": null,
    "alternate_name": "Indium, trimethyl-;Trimethylindium;TMI",
    "duplicated_cas_no": "",
    "SMILES": "[In](C)(C)C",
    "meta_data": {
        "InChI": "InChI=1S/3CH3.In/h3*1H3;",
        "InChIKey": null,
        "Canonical SMILES": "[In](C)(C)C",
        "Molecular Formula": "C<sub>3</sub>H<sub>9</sub>In",
        "Molecular Mass": "",
        "Boiling Point": "66-67 °C @ Press: 12 Torr",
        "Melting Point": "88 °C",
        "Density": "1.568 g/cm³"
    }
}