{
    "cas_no": "51-35-4",
    "key_name": "<span class=\"text-smallcaps\">L</span>-Hydroxyproline",
    "cn_name": "L-羟基脯氨酸;L-羟脯氨酸;反式-4-羟基-L-脯氨酸;",
    "alternate_name": "<span class=\"text-smallcaps\">L</span>-Proline, 4-hydroxy-, (4<em>R</em>)-;Proline, 4-hydroxy-, <span class=\"text-smallcaps\">L</span>-;<span class=\"text-smallcaps\">L</span>-Proline, 4-hydroxy-, <em>trans</em>-;(4<em>R</em>)-4-Hydroxy-<span class=\"text-smallcaps\">L</span>-proline;Hydroxy-<span class=\"text-smallcaps\">L</span>-proline;4-Hydroxyproline;4(<em>R</em>)-Hydroxy-2(<em>S</em>)-pyrrolidinecarboxylic acid;Hypro;δ-Hydroxyproline;4-Hydroxy-<span class=\"text-smallcaps\">L</span>-proline;<em>trans</em>-4-Hydroxyproline;Hydroxyproline;<em>trans</em>-4-Hydroxy-<span class=\"text-smallcaps\">L</span>-proline;<em>trans</em>-<span class=\"text-smallcaps\">L</span>-Hydroxyproline;4-<em>trans</em>-Hydroxy-<span class=\"text-smallcaps\">L</span>-proline;<span class=\"text-smallcaps\">L</span>-4-Hydroxyproline;L<sub>s</sub>-Hydroxyproline;(2<em>S</em>,4<em>R</em>)-(-)-4-Hydroxyproline;<span class=\"text-smallcaps\">L</span>-Hydroxyproline;<span class=\"text-smallcaps\">L</span>-<em>trans</em>-4-Hydroxyproline;(<em>R</em>)-4-Hydroxy-(<em>S</em>)-proline;(<em>S</em>)-Hydroxyproline;<span class=\"text-smallcaps\">L</span>-Hypro;(-)-4-Hydroxy-2-pyrrolidinecarboxylic acid;<em>trans</em>-<span class=\"text-smallcaps\">L</span>-4-Hydroxyproline;(<em>R</em>)-4-Hydroxy-<span class=\"text-smallcaps\">L</span>-proline;Proline, 4-hydroxy-;(2<em>S</em>,4<em>R</em>)-4-Hydroxyproline;NSC 46704;4-Hydroxy-(<em>S</em>)-proline;4(<em>R</em>)-Hydroxyproline;(2<em>S</em>,4<em>R</em>)-4-Hydroxypyrrolidine-2-carboxylic acid;(2S,4R)-4-Hydroxypyrrolidine-2-carboxylic acid;(4<em>R</em>,2<em>S</em>)-Hydroxyproline;<em>trans</em>-(2S,4R)-4-Hydroxy-<span class=\"text-smallcaps\">L</span>-proline;MeSH ID: D006909",
    "duplicated_cas_no": "138-46-5;17210-41-2;21105-75-9;24784-87-0;54733-36-7",
    "SMILES": "C(O)(=O)[C@@H]1C[C@@H](O)CN1",
    "meta_data": {
        "InChI": "InChI=1S/C5H9NO3/c7-3-1-4(5(8)9)6-2-3/h3-4,6-7H,1-2H2,(H,8,9)/t3-,4+/m1/s1",
        "InChIKey": null,
        "Canonical SMILES": "O=C(O)C1NCC(O)C1",
        "Molecular Formula": "C<sub>5</sub>H<sub>9</sub>NO<sub>3</sub>",
        "Molecular Mass": "131.13",
        "Melting Point": "274 °C",
        "Density": "1.478 g/cm³"
    }
}