{
    "cas_no": "2867-63-2",
    "key_name": "2-Benzylcyclopentanone",
    "cn_name": null,
    "alternate_name": "Cyclopentanone, 2-(phenylmethyl)-;Cyclopentanone, 2-benzyl-;2-(Phenylmethyl)cyclopentanone;2-Benzylcyclopentanone;2-Benzylcyclopentan-1-one",
    "duplicated_cas_no": "69815-13-0",
    "SMILES": "C(C1C(=O)CCC1)C2=CC=CC=C2",
    "meta_data": {
        "InChI": "InChI=1S/C12H14O/c13-12-8-4-7-11(12)9-10-5-2-1-3-6-10/h1-3,5-6,11H,4,7-9H2",
        "InChIKey": null,
        "Canonical SMILES": "O=C1CCCC1CC=2C=CC=CC2",
        "Molecular Formula": "C<sub>12</sub>H<sub>14</sub>O",
        "Molecular Mass": "174.24",
        "Boiling Point": "144-146 °C @ Press: 16 Torr",
        "Melting Point": "195-196 °C",
        "Density": "1.038 g/cm³"
    }
}