{
    "cas_no": "95-17-0",
    "key_name": "Bicyclo[2.2.1]hept-5-ene-2-carboxamide",
    "cn_name": "5-降冰片烯-2-甲酰胺;",
    "alternate_name": "Bicyclo[2.2.1]hept-5-ene-2-carboxamide;5-Norbornene-2-carboxamide",
    "duplicated_cas_no": "",
    "SMILES": "C(N)(=O)C1C2CC(C1)C=C2",
    "meta_data": {
        "InChI": "InChI=1S/C8H11NO/c9-8(10)7-4-5-1-2-6(7)3-5/h1-2,5-7H,3-4H2,(H2,9,10)",
        "InChIKey": null,
        "Canonical SMILES": "O=C(N)C1CC2C=CC1C2",
        "Molecular Formula": "C<sub>8</sub>H<sub>11</sub>NO",
        "Molecular Mass": "137.18",
        "Melting Point": "160-171 °C"
    }
}