{
    "cas_no": "2426-07-5",
    "key_name": "1,2:7,8-Diepoxyoctane",
    "cn_name": "1,2,7,8-二环氧辛烷;1，2，7，8-二环氧酮;",
    "alternate_name": "Oxirane, 2,2′-(1,4-butanediyl)bis-;Octane, 1,2:7,8-diepoxy-;2,2′-(1,4-Butanediyl)bis[oxirane];1,2:7,8-Diepoxyoctane;1,7-Octadiene diepoxide;2,2′-Tetramethylenebis[oxirane];1,7-Octadiene bisoxide;NSC 269058;1,4-Di(oxiran-2-yl)butane;2-[4-(Oxiran-2-yl)butyl]oxirane;1,2,7,8-Octanediepoxide",
    "duplicated_cas_no": "2375433-63-7",
    "SMILES": "C(CCCC1CO1)C2CO2",
    "meta_data": {
        "InChI": "InChI=1S/C8H14O2/c1(3-7-5-9-7)2-4-8-6-10-8/h7-8H,1-6H2",
        "InChIKey": null,
        "Canonical SMILES": "O1CC1CCCCC2OC2",
        "Molecular Formula": "C<sub>8</sub>H<sub>14</sub>O<sub>2</sub>",
        "Molecular Mass": "142.20",
        "Boiling Point": "120 °C @ Press: 28 Torr"
    }
}