{
    "cas_no": "368-53-6",
    "key_name": "3,5-Diaminobenzotrifluoride",
    "cn_name": "3,5-二氨基三氟甲苯;5-三氟甲基-1,3-苯二胺;",
    "alternate_name": "1,3-Benzenediamine, 5-(trifluoromethyl)-;Toluene-3,5-diamine, α,α,α-trifluoro-;5-(Trifluoromethyl)-1,3-benzenediamine;5-(Trifluoromethyl)-1,3-phenylenediamine;3,5-Diaminobenzotrifluoride;5-Trifluoromethyl-1,3-benzenediamine;5-(Trifluoromethyl)-1,3-diaminobenzene;3,5-Diamino-1-trifluoromethylbenzene;1-Trifluoromethyl-3,5-diaminobenzene",
    "duplicated_cas_no": "",
    "SMILES": "C(F)(F)(F)C1=CC(N)=CC(N)=C1",
    "meta_data": {
        "InChI": "InChI=1S/C7H7F3N2/c8-7(9,10)4-1-5(11)3-6(12)2-4/h1-3H,11-12H2",
        "InChIKey": null,
        "Canonical SMILES": "FC(F)(F)C=1C=C(N)C=C(N)C1",
        "Molecular Formula": "C<sub>7</sub>H<sub>7</sub>F<sub>3</sub>N<sub>2</sub>",
        "Molecular Mass": "176.14",
        "Melting Point": "88 °C"
    }
}