{
    "cas_no": "41532-84-7",
    "key_name": "1,1,2-Trimethyl-1<em>H</em>-benz[<em>e</em>]indole",
    "cn_name": "1,1,2-三甲基-1H-苯并[e]吲哚;2,3,3-三甲基-4,5-苯并吲哚;",
    "alternate_name": "1<em>H</em>-Benz[<em>e</em>]indole, 1,1,2-trimethyl-;1,1,2-Trimethyl-1<em>H</em>-benz[<em>e</em>]indole;1,1,2-Trimethylbenz[<em>e</em>]indole;2,3,3-Trimethyl-4,5-benzo-3<em>H</em>-indole;2,3,3-Trimethyl-3<em>H</em>-benz[<em>e</em>]indole;1,1,2-Trimethylbenzo[<em>e</em>]indolenine",
    "duplicated_cas_no": "1924617-96-8",
    "SMILES": "CC1(C)C=2C=3C(C=CC2N=C1C)=CC=CC3",
    "meta_data": {
        "InChI": "InChI=1S/C15H15N/c1-10-15(2,3)14-12-7-5-4-6-11(12)8-9-13(14)16-10/h4-9H,1-3H3",
        "InChIKey": null,
        "Canonical SMILES": "N=1C=2C=CC=3C=CC=CC3C2C(C1C)(C)C",
        "Molecular Formula": "C<sub>15</sub>H<sub>15</sub>N",
        "Molecular Mass": "209.29",
        "Melting Point": "115.5-116.0 °C"
    }
}