{
    "cas_no": "1637-75-8",
    "key_name": "3-Hydroxyhippuric acid",
    "cn_name": null,
    "alternate_name": "Glycine, <em>N</em>-(3-hydroxybenzoyl)-;Hippuric acid, <em>m</em>-hydroxy-;<em>N</em>-(3-Hydroxybenzoyl)glycine;<em>m</em>-Hydroxyhippuric acid;3-Hydroxyhippuric acid;3-Hydroxybenzoylglycine;<em>N</em>-<em>m</em>-Hydroxylbenzoylglycine;(3-Hydroxybenzoylamino)acetic acid;(3-Hydroxybenzamido)acetic acid;2-[(3-Hydroxyphenyl)formamido]acetic acid",
    "duplicated_cas_no": "",
    "SMILES": "C(NCC(O)=O)(=O)C1=CC(O)=CC=C1",
    "meta_data": {
        "InChI": "InChI=1S/C9H9NO4/c11-7-3-1-2-6(4-7)9(14)10-5-8(12)13/h1-4,11H,5H2,(H,10,14)(H,12,13)",
        "InChIKey": null,
        "Canonical SMILES": "O=C(O)CNC(=O)C=1C=CC=C(O)C1",
        "Molecular Formula": "C<sub>9</sub>H<sub>9</sub>NO<sub>4</sub>",
        "Molecular Mass": "195.17",
        "Melting Point": "185 °C"
    }
}