{
    "cas_no": "1656-63-9",
    "key_name": "Trilauryl trithiophosphite",
    "cn_name": null,
    "alternate_name": "Phosphorotrithious acid, tridodecyl ester;Dodecyl phosphorotrithioite;1-Dodecanethiol, phosphorotrithioate (3:1);Trilauryl trithiophosphite;Tridodecyl trithiophosphite;Trisdodecyl trithiophosphite;Tris(dodecylthio) phosphite;JPS 312;NSC 44604;JP 312;Antioxidant TLTTP",
    "duplicated_cas_no": "",
    "SMILES": "P(SCCCCCCCCCCCC)(SCCCCCCCCCCCC)SCCCCCCCCCCCC",
    "meta_data": {
        "InChI": "InChI=1S/C36H75PS3/c1-4-7-10-13-16-19-22-25-28-31-34-38-37(39-35-32-29-26-23-20-17-14-11-8-5-2)40-36-33-30-27-24-21-18-15-12-9-6-3/h4-36H2,1-3H3",
        "InChIKey": null,
        "Canonical SMILES": "S(P(SCCCCCCCCCCCC)SCCCCCCCCCCCC)CCCCCCCCCCCC",
        "Molecular Formula": "C<sub>36</sub>H<sub>75</sub>PS<sub>3</sub>",
        "Molecular Mass": "635.15",
        "Melting Point": "29.5-30 °C",
        "Density": "0.92 g/cm³ @ Temp: 20 °C"
    }
}