{
    "cas_no": "6899-04-3",
    "key_name": "Glutamine",
    "cn_name": null,
    "alternate_name": "Glutamine;γ-Glutamine;<span class=\"text-smallcaps\">DL</span>-Glutamine;(±)-Glutamine;<span class=\"text-smallcaps\">DL</span>-Gln;NSC 97925;2-Amino-4-carbamoylbutyric acid;2-Amino-4-carbamoylbutanoic acid",
    "duplicated_cas_no": "585-21-7",
    "SMILES": "C(CCC(N)=O)(C(O)=O)N",
    "meta_data": {
        "InChI": "InChI=1S/C5H10N2O3/c6-3(5(9)10)1-2-4(7)8/h3H,1-2,6H2,(H2,7,8)(H,9,10)",
        "InChIKey": null,
        "Canonical SMILES": "O=C(O)C(N)CCC(=O)N",
        "Molecular Formula": "C<sub>5</sub>H<sub>10</sub>N<sub>2</sub>O<sub>3</sub>",
        "Molecular Mass": "146.14",
        "Melting Point": "186 °C"
    }
}