{
    "cas_no": "223519-11-7",
    "key_name": "Benzoic acid, 3-amino-5-bromo-4-methyl-, methyl ester",
    "cn_name": null,
    "alternate_name": "Benzoic acid, 3-amino-5-bromo-4-methyl-, methyl ester;Methyl 3-amino-5-bromo-4-methylbenzoate;3-Amino-5-bromo-4-methylBenzoic acid methyl ester;3-Amino-5-bromo-4-methyl-benzoic acid methyl ester",
    "duplicated_cas_no": "",
    "SMILES": "C(OC)(=O)C1=CC(Br)=C(C)C(N)=C1",
    "meta_data": {
        "InChI": "InChI=1S/C9H10BrNO2/c1-5-7(10)3-6(4-8(5)11)9(12)13-2/h3-4H,11H2,1-2H3",
        "InChIKey": null,
        "Canonical SMILES": "O=C(OC)C1=CC(Br)=C(C(N)=C1)C",
        "Molecular Formula": "C<sub>9</sub>H<sub>10</sub>BrNO<sub>2</sub>",
        "Molecular Mass": "244.09",
        "Melting Point": "117.5-119.5 °C"
    }
}