{
    "cas_no": "7649-92-5",
    "key_name": "2-(4-Fluorobenzoyl)benzoic acid",
    "cn_name": null,
    "alternate_name": "Benzoic acid, 2-(4-fluorobenzoyl)-;Benzoic acid, <em>o</em>-(<em>p</em>-fluorobenzoyl)-;2-(4-Fluorobenzoyl)benzoic acid;2-(<em>p</em>-Fluorobenzoyl)benzoic acid;<em>o</em>-(<em>p</em>-Fluorobenzoyl)benzoic acid;2-(4-Fluorophenylcarbonyl)benzoic acid;NSC 111165",
    "duplicated_cas_no": "",
    "SMILES": "C(=O)(C1=C(C(O)=O)C=CC=C1)C2=CC=C(F)C=C2",
    "meta_data": {
        "InChI": "InChI=1S/C14H9FO3/c15-10-7-5-9(6-8-10)13(16)11-3-1-2-4-12(11)14(17)18/h1-8H,(H,17,18)",
        "InChIKey": null,
        "Canonical SMILES": "O=C(O)C=1C=CC=CC1C(=O)C2=CC=C(F)C=C2",
        "Molecular Formula": "C<sub>14</sub>H<sub>9</sub>FO<sub>3</sub>",
        "Molecular Mass": "244.22",
        "Melting Point": "120-123 °C"
    }
}