{
    "cas_no": "112-12-9",
    "key_name": "2-Undecanone",
    "cn_name": "甲基壬基甲酮;2-十一酮;",
    "alternate_name": "2-Undecanone;Methyl nonyl ketone;Methyl <em>n</em>-nonyl ketone;Nonyl methyl ketone;2-Hendecanone;NSC 4028;BioUD 30;BioUD;BioUD 8;Mostique EGX 101",
    "duplicated_cas_no": "",
    "SMILES": "C(CCCCCC)CCC(C)=O",
    "meta_data": {
        "InChI": "InChI=1S/C11H22O/c1-3-4-5-6-7-8-9-10-11(2)12/h3-10H2,1-2H3",
        "InChIKey": null,
        "Canonical SMILES": "O=C(C)CCCCCCCCC",
        "Molecular Formula": "C<sub>11</sub>H<sub>22</sub>O",
        "Molecular Mass": "170.29",
        "Boiling Point": "231.5 °C",
        "Melting Point": "15 °C",
        "Density": "0.830 g/cm³ @ Temp: 15 °C"
    }
}