{
    "cas_no": "6531-35-7",
    "key_name": "2,3-Dimethylanthraquinone",
    "cn_name": "2,3-二甲基蒽醌;",
    "alternate_name": "9,10-Anthracenedione, 2,3-dimethyl-;Anthraquinone, 2,3-dimethyl-;2,3-Dimethyl-9,10-anthracenedione;2,3-Dimethylanthraquinone;2,3-Dimethyl-9,10-anthraquinone;NSC 76612",
    "duplicated_cas_no": "",
    "SMILES": "O=C1C=2C(C(=O)C=3C1=CC=CC3)=CC(C)=C(C)C2",
    "meta_data": {
        "InChI": "InChI=1S/C16H12O2/c1-9-7-13-14(8-10(9)2)16(18)12-6-4-3-5-11(12)15(13)17/h3-8H,1-2H3",
        "InChIKey": null,
        "Canonical SMILES": "O=C1C=2C=CC=CC2C(=O)C=3C=C(C(=CC13)C)C",
        "Molecular Formula": "C<sub>16</sub>H<sub>12</sub>O<sub>2</sub>",
        "Molecular Mass": "236.27",
        "Melting Point": "210.8 °C"
    }
}