{
    "cas_no": "79-42-5",
    "key_name": "(±)-2-Mercaptopropionic acid",
    "cn_name": "硫代乳酸;2-巯基丙酸;",
    "alternate_name": "Propanoic acid, 2-mercapto-;Propionic acid, 2-mercapto-;Propionic acid, α-mercapto-;2-Mercaptopropanoic acid;α-Mercaptopropanoic acid;α-Mercaptopropionic acid;2-Mercaptopropionic acid;2-Thiolactic acid;Mercaptopropionic acid;Thiolactic acid;(±)-2-Mercaptopropionic acid;Mercaptolactic acid;2-Sulfanylpropanoic acid",
    "duplicated_cas_no": "71563-86-5;2018279-93-9",
    "SMILES": "C(C(O)=O)(C)S",
    "meta_data": {
        "InChI": "InChI=1S/C3H6O2S/c1-2(6)3(4)5/h2,6H,1H3,(H,4,5)",
        "InChIKey": null,
        "Canonical SMILES": "O=C(O)C(S)C",
        "Molecular Formula": "C<sub>3</sub>H<sub>6</sub>O<sub>2</sub>S",
        "Molecular Mass": "106.14",
        "Boiling Point": "102 °C @ Press: 16 Torr",
        "Melting Point": "12 °C",
        "Density": "1.193 g/cm³ @ Temp: 19.2 °C"
    }
}