{
    "cas_no": "605-71-0",
    "key_name": "1,5-Dinitronaphthalene",
    "cn_name": "1,5-二硝基萘;",
    "alternate_name": "Naphthalene, 1,5-dinitro-;1,5-Dinitronaphthalene;NSC 20593",
    "duplicated_cas_no": "",
    "SMILES": "N(=O)(=O)C=1C2=C(C(N(=O)=O)=CC=C2)C=CC1",
    "meta_data": {
        "InChI": "InChI=1S/C10H6N2O4/c13-11(14)9-5-1-3-7-8(9)4-2-6-10(7)12(15)16/h1-6H",
        "InChIKey": null,
        "Canonical SMILES": "O=N(=O)C=1C=CC=C2C1C=CC=C2N(=O)=O",
        "Molecular Formula": "C<sub>10</sub>H<sub>6</sub>N<sub>2</sub>O<sub>4</sub>",
        "Molecular Mass": "218.17",
        "Melting Point": "219 °C",
        "Density": "1.595 g/cm³"
    }
}