{
    "cas_no": "6125-24-2",
    "key_name": "1-Nitro-2-phenylethane",
    "cn_name": null,
    "alternate_name": "Benzene, (2-nitroethyl)-;(2-Nitroethyl)benzene;1-Nitro-2-phenylethane;1-Phenyl-2-nitroethane;2-Phenylnitroethane;β-Phenylnitroethane;2-Phenyl-1-nitroethane;ω-Nitroethylbenzene;NSC 23854;1-(2-Nitroethyl)benzene",
    "duplicated_cas_no": "",
    "SMILES": "C(CN(=O)=O)C1=CC=CC=C1",
    "meta_data": {
        "InChI": "InChI=1S/C8H9NO2/c10-9(11)7-6-8-4-2-1-3-5-8/h1-5H,6-7H2",
        "InChIKey": null,
        "Canonical SMILES": "O=N(=O)CCC=1C=CC=CC1",
        "Molecular Formula": "C<sub>8</sub>H<sub>9</sub>NO<sub>2</sub>",
        "Molecular Mass": "151.16",
        "Boiling Point": "250 °C",
        "Melting Point": "-23 °C",
        "Density": "1.122 g/cm³ @ Temp: 25 °C"
    }
}