{
    "cas_no": "26537-19-9",
    "key_name": "Methyl 4-<em>tert</em>-butylbenzoate",
    "cn_name": "对叔丁基苯甲酸;",
    "alternate_name": "Benzoic acid, 4-(1,1-dimethylethyl)-, methyl ester;Benzoic acid, <em>p</em>-<em>tert</em>-butyl-, methyl ester;Methyl <em>p</em>-<em>tert</em>-butylbenzoate;Methyl 4-<em>tert</em>-butylbenzoate;Methyl 4-(1,1-dimethylethyl)benzoate;<em>p</em>-<em>tert</em>-Butylbenzoic acid methyl ester;4-(1,1-Dimethylethyl)benzoic acid methyl ester;NSC 122690",
    "duplicated_cas_no": "",
    "SMILES": "C(C)(C)(C)C1=CC=C(C(OC)=O)C=C1",
    "meta_data": {
        "InChI": "InChI=1S/C12H16O2/c1-12(2,3)10-7-5-9(6-8-10)11(13)14-4/h5-8H,1-4H3",
        "InChIKey": null,
        "Canonical SMILES": "O=C(OC)C1=CC=C(C=C1)C(C)(C)C",
        "Molecular Formula": "C<sub>12</sub>H<sub>16</sub>O<sub>2</sub>",
        "Molecular Mass": "192.25",
        "Boiling Point": "110-112 °C @ Press: 5 Torr",
        "Density": "1.0113 g/cm³ @ Temp: 20.000 °C"
    }
}