{
    "cas_no": "83-41-0",
    "key_name": "3-Nitro-<em>o</em>-xylene",
    "cn_name": "3-硝基邻二甲苯;2,3-二甲基硝基苯;3-硝基-1,2-二甲苯;1,2-二甲基-3-硝基苯;",
    "alternate_name": "Benzene, 1,2-dimethyl-3-nitro-;<em>o</em>-Xylene, 3-nitro-;1,2-Dimethyl-3-nitrobenzene;3-Nitro-<em>o</em>-xylene;2,3-Dimethylnitrobenzene;2,3-Dimethyl-1-nitrobenzene;3-Nitro-<em>o</em>-xylol;NSC 5402",
    "duplicated_cas_no": "",
    "SMILES": "N(=O)(=O)C1=C(C)C(C)=CC=C1",
    "meta_data": {
        "InChI": "InChI=1S/C8H9NO2/c1-6-4-3-5-8(7(6)2)9(10)11/h3-5H,1-2H3",
        "InChIKey": null,
        "Canonical SMILES": "O=N(=O)C1=CC=CC(=C1C)C",
        "Molecular Formula": "C<sub>8</sub>H<sub>9</sub>NO<sub>2</sub>",
        "Molecular Mass": "151.16",
        "Boiling Point": "240 °C",
        "Melting Point": "15 °C",
        "Density": "1.1402 g/cm³ @ Temp: 20 °C"
    }
}