{
    "cas_no": "2887-61-8",
    "key_name": "2-Hydroxybutyrophenone",
    "cn_name": "2\"-羟基苯丁酮;邻羟基苯丁酮;",
    "alternate_name": "1-Butanone, 1-(2-hydroxyphenyl)-;Butyrophenone, 2′-hydroxy-;1-(2-Hydroxyphenyl)-1-butanone;2-Butyrylphenol;<em>o</em>-Hydroxybutyrophenone;2-Hydroxybutyrophenone;2′-Hydroxybutyrophenone;Propyl 2-hydroxyphenyl ketone;Fenjuntong",
    "duplicated_cas_no": "",
    "SMILES": "C(CCC)(=O)C1=C(O)C=CC=C1",
    "meta_data": {
        "InChI": "InChI=1S/C10H12O2/c1-2-5-9(11)8-6-3-4-7-10(8)12/h3-4,6-7,12H,2,5H2,1H3",
        "InChIKey": null,
        "Canonical SMILES": "O=C(C=1C=CC=CC1O)CCC",
        "Molecular Formula": "C<sub>10</sub>H<sub>12</sub>O<sub>2</sub>",
        "Molecular Mass": "164.20",
        "Boiling Point": "124-126 °C @ Press: 14 Torr",
        "Melting Point": "10 °C",
        "Density": "1.0683 g/cm³ @ Temp: 24 °C"
    }
}