{
    "cas_no": "6259-42-3",
    "key_name": "Benzenamine, 5-chloro-2-methyl-, hydrochloride (1:1)",
    "cn_name": "红色基KB;",
    "alternate_name": "Benzenamine, 5-chloro-2-methyl-, hydrochloride (1:1);<em>o</em>-Toluidine, 5-chloro-, hydrochloride;Benzenamine, 5-chloro-2-methyl-, hydrochloride;Amarthol Fast Red KB Base;Amarthol Fast Red KB Salt;Azanil Red Salt KB;Azobase CAT;Azoene Fast Red KB Salt;Daito Red Base KB;Fast Red 4CT;Fast Red Base D;Fast Red Base KB;Fast Red DA Salt;Fast Red KB;Fast Red 4CT Salt;Fast Red Salt KB;Fast Red Salt KBA;Mitsui Red KB Base;Naphthanil Red KB Base;Naphthanil Red KBH;Naphthanil Red KBO Base;Naphtoelan Fast Red KB Base;Naphtoelan Fast Red KB Salt;Neutrosel Red DVA;Red Base NKB;Red KB Salt;Sanyo Fast Red KB Base;Scarlet Base Irga VI;Scarlet Salt Irga VI;Stabamine Red KB;5-Chloro-<em>o</em>-toluidine hydrochloride;5-Chloro-2-methylaniline hydrochloride;2-Amino-4-chlorotoluene hydrochloride",
    "duplicated_cas_no": "",
    "SMILES": "NC1=C(C)C=CC(Cl)=C1.Cl",
    "meta_data": {
        "InChI": "InChI=1S/C7H8ClN.ClH/c1-5-2-3-6(8)4-7(5)9;/h2-4H,9H2,1H3;1H",
        "InChIKey": null,
        "Canonical SMILES": "Cl.ClC1=CC=C(C(N)=C1)C",
        "Molecular Formula": "C<sub>7</sub>H<sub>8</sub>ClN.ClH",
        "Molecular Mass": "",
        "Melting Point": "265-267 °C"
    }
}