{
    "cas_no": "2010-06-2",
    "key_name": "2-Amino-4-phenylthiazole",
    "cn_name": "2-氨基-4-苯基噻唑;",
    "alternate_name": "2-Thiazolamine, 4-phenyl-;Thiazole, 2-amino-4-phenyl-;4-Phenyl-2-thiazolamine;2-Amino-4-phenylthiazole;4-Phenyl-2-aminothiazole;4-Phenyl-2-thiazolylamine;4-Phenyl-1,3-thiazol-2-ylamine;NSC 2528;2-Amino-4-phenyl-1,3-thiazole;4-Phenyl-1,3-thiazol-2-amine",
    "duplicated_cas_no": "",
    "SMILES": "NC1=NC(=CS1)C2=CC=CC=C2",
    "meta_data": {
        "InChI": "InChI=1S/C9H8N2S/c10-9-11-8(6-12-9)7-4-2-1-3-5-7/h1-6H,(H2,10,11)",
        "InChIKey": null,
        "Canonical SMILES": "N1=C(SC=C1C=2C=CC=CC2)N",
        "Molecular Formula": "C<sub>9</sub>H<sub>8</sub>N<sub>2</sub>S",
        "Molecular Mass": "176.24",
        "Melting Point": "152.5 °C"
    }
}