{
    "cas_no": "29681-43-4",
    "key_name": "2-Pyridinecarboxylic acid, 4-methoxy-, methyl ester",
    "cn_name": "4-甲氧基吡啶-2-甲酸甲酯;",
    "alternate_name": "2-Pyridinecarboxylic acid, 4-methoxy-, methyl ester;Picolinic acid, 4-methoxy-, methyl ester;Methyl 4-methoxypicolinate;Methyl 4-methoxypyridine-2-carboxylate;Methyl 4-(methyloxy)-2-pyridinecarboxylate;4-Methoxypyridine-2-carboxylic acid methyl ester;Methyl 4-methoxy-2-picolinate",
    "duplicated_cas_no": "",
    "SMILES": "C(OC)(=O)C1=CC(OC)=CC=N1",
    "meta_data": {
        "InChI": "InChI=1S/C8H9NO3/c1-11-6-3-4-9-7(5-6)8(10)12-2/h3-5H,1-2H3",
        "InChIKey": null,
        "Canonical SMILES": "O=C(OC)C1=NC=CC(OC)=C1",
        "Molecular Formula": "C<sub>8</sub>H<sub>9</sub>NO<sub>3</sub>",
        "Molecular Mass": "167.16",
        "Melting Point": "47-49 °C"
    }
}