{
    "cas_no": "27605-76-1",
    "key_name": "Probenazole",
    "cn_name": "烯丙苯噻唑;烯丙异噻唑;3-(2-丙烯基氧基)-1,2-苯并异噻唑1,1-二氧化物;",
    "alternate_name": "1,2-Benzisothiazole, 3-(2-propen-1-yloxy)-, 1,1-dioxide;1,2-Benzisothiazole, 3-(allyloxy)-, 1,1-dioxide;1,2-Benzisothiazole, 3-(2-propenyloxy)-, 1,1-dioxide;Oryzaemate;3-Allyloxy-1,2-benzisothiazole 1,1-dioxide;Probenazole;PO 20;3-Allyloxy-1,2-benzisothiazol-1,1-dioxide;Oryzemate;PO 20 (pharmaceutical);3-Allyloxy-1,2-benzisothiazole-1,1-oxide",
    "duplicated_cas_no": "37184-58-0;1135442-69-1",
    "SMILES": "O(CC=C)C=1C=2C(S(=O)(=O)N1)=CC=CC2",
    "meta_data": {
        "InChI": "InChI=1S/C10H9NO3S/c1-2-7-14-10-8-5-3-4-6-9(8)15(12,13)11-10/h2-6H,1,7H2",
        "InChIKey": null,
        "Canonical SMILES": "O=S1(=O)N=C(OCC=C)C=2C=CC=CC21",
        "Molecular Formula": "C<sub>10</sub>H<sub>9</sub>NO<sub>3</sub>S",
        "Molecular Mass": "223.25",
        "Melting Point": "138.5 °C"
    }
}