{
    "cas_no": "161050-58-4",
    "key_name": "Methoxyfenozide",
    "cn_name": "甲氧虫酰肼;",
    "alternate_name": "Benzoic acid, 3-methoxy-2-methyl-, 2-(3,5-dimethylbenzoyl)-2-(1,1-dimethylethyl)hydrazide;RH 2485;RH 112485;Intrepid;Methoxyfenozide;3,5-Dimethylbenzoic acid <em>N</em>-<em>tert</em>-butyl-<em>N</em>-(3-methoxy-2-methylbenzoyl)hydrazide;Runner;Intrepid (pesticide);Methoxyphenozide;RG 102398;Prodigy 240SC",
    "duplicated_cas_no": "468062-56-8;163442-56-6",
    "SMILES": "C(N(NC(=O)C1=C(C)C(OC)=CC=C1)C(C)(C)C)(=O)C2=CC(C)=CC(C)=C2",
    "meta_data": {
        "InChI": "InChI=1S/C22H28N2O3/c1-14-11-15(2)13-17(12-14)21(26)24(22(4,5)6)23-20(25)18-9-8-10-19(27-7)16(18)3/h8-13H,1-7H3,(H,23,25)",
        "InChIKey": null,
        "Canonical SMILES": "O=C(NN(C(=O)C=1C=C(C=C(C1)C)C)C(C)(C)C)C=2C=CC=C(OC)C2C",
        "Molecular Formula": "C<sub>22</sub>H<sub>28</sub>N<sub>2</sub>O<sub>3</sub>",
        "Molecular Mass": "368.47",
        "Melting Point": "204.5 °C"
    }
}