{
    "cas_no": "3070-53-9",
    "key_name": "1,6-Heptadiene",
    "cn_name": "1,6-庚二烯;1，6-庚二烯;",
    "alternate_name": "1,6-Heptadiene",
    "duplicated_cas_no": "",
    "SMILES": "C(CC=C)CC=C",
    "meta_data": {
        "InChI": "InChI=1S/C7H12/c1-3-5-7-6-4-2/h3-4H,1-2,5-7H2",
        "InChIKey": null,
        "Canonical SMILES": "C=CCCCC=C",
        "Molecular Formula": "C<sub>7</sub>H<sub>12</sub>",
        "Molecular Mass": "96.17",
        "Boiling Point": "90 °C",
        "Melting Point": "-129 °C"
    }
}