{
    "cas_no": "112965-21-6",
    "key_name": "Calcipotriol",
    "cn_name": "卡泊三醇;(1a,3b,5z,7e,22e,24s)-24-环丙基-9,10-开环胆甾-5,7,10(19),22-四烯-1,3,24-三醇;",
    "alternate_name": "1,3-Cyclohexanediol, 5-[(2<em>E</em>)-2-[(1<em>R</em>,3a<em>S</em>,7a<em>R</em>)-1-[(1<em>R</em>,2<em>E</em>,4<em>S</em>)-4-cyclopropyl-4-hydroxy-1-methyl-2-buten-1-yl]octahydro-7a-methyl-4<em>H</em>-inden-4-ylidene]ethylidene]-4-methylene-, (1<em>R</em>,3<em>S</em>,5<em>Z</em>)-;9,10-Secochola-5,7,10(19),22-tetraene-1,3,24-triol, 24-cyclopropyl-, (1α,3β,5<em>Z</em>,7<em>E</em>,22<em>E</em>,24<em>S</em>)-;(1<em>R</em>,3<em>S</em>,5<em>Z</em>)-5-[(2<em>E</em>)-2-[(1<em>R</em>,3a<em>S</em>,7a<em>R</em>)-1-[(1<em>R</em>,2<em>E</em>,4<em>S</em>)-4-Cyclopropyl-4-hydroxy-1-methyl-2-buten-1-yl]octahydro-7a-methyl-4<em>H</em>-inden-4-ylidene]ethylidene]-4-methylene-1,3-cyclohexanediol;MC 903;Calcipotriol;Dovonex;Daivonex;Calcipotriene;Calciptriol;Psorcutan;PRI 2201",
    "duplicated_cas_no": "112828-00-9",
    "SMILES": "C[C@@]12[C@](\\C(=C\\C=C\\3/C(=C)[C@@H](O)C[C@H](O)C3)\\CCC1)(CC[C@@]2([C@@H](/C=C/[C@@H](O)C4CC4)C)[H])[H]",
    "meta_data": {
        "InChI": "InChI=1S/C27H40O3/c1-17(6-13-25(29)20-8-9-20)23-11-12-24-19(5-4-14-27(23,24)3)7-10-21-15-22(28)16-26(30)18(21)2/h6-7,10,13,17,20,22-26,28-30H,2,4-5,8-9,11-12,14-16H2,1,3H3/b13-6+,19-7+,21-10-/t17-,22-,23-,24+,25-,26+,27-/m1/s1",
        "InChIKey": null,
        "Canonical SMILES": "OC(C=CC(C)C1CCC2C(=CC=C3C(=C)C(O)CC(O)C3)CCCC21C)C4CC4",
        "Molecular Formula": "C<sub>27</sub>H<sub>40</sub>O<sub>3</sub>",
        "Molecular Mass": "412.60",
        "Melting Point": "166-168 °C"
    }
}