{
    "cas_no": "769-54-0",
    "key_name": "Pyridine, 3-fluoro-4-nitro-, 1-oxide",
    "cn_name": "3-氟-4-硝基-N-氧化吡啶;3-氟-4-硝基-N-氧化吡啶;",
    "alternate_name": "Pyridine, 3-fluoro-4-nitro-, 1-oxide;3-Fluoro-4-nitropyridine <em>N</em>-oxide;3-Fluoro-4-nitropyridine 1-oxide;3-Fluoro-4-nitro-1-oxidopyridin-1-ium;3-Fluoro-4-nitropyridin-1-ium-1-olate",
    "duplicated_cas_no": "",
    "SMILES": "N(=O)(=O)C=1C(F)=CN(=O)=CC1",
    "meta_data": {
        "InChI": "InChI=1S/C5H3FN2O3/c6-4-3-7(9)2-1-5(4)8(10)11/h1-3H",
        "InChIKey": null,
        "Canonical SMILES": "O=N(=O)C1=CC=N(=O)C=C1F",
        "Molecular Formula": "C<sub>5</sub>H<sub>3</sub>FN<sub>2</sub>O<sub>3</sub>",
        "Molecular Mass": "158.09",
        "Melting Point": "122 °C"
    }
}