{
    "cas_no": "2169-68-8",
    "key_name": "Ethyl (2<em>E</em>)-3-(4-chlorophenyl)-2-cyano-2-propenoate",
    "cn_name": null,
    "alternate_name": "2-Propenoic acid, 3-(4-chlorophenyl)-2-cyano-, ethyl ester, (2<em>E</em>)-;Cinnamic acid, <em>p</em>-chloro-α-cyano-, ethyl ester, (<em>E</em>)-;2-Propenoic acid, 3-(4-chlorophenyl)-2-cyano-, ethyl ester, (<em>E</em>)-;Ethyl (2<em>E</em>)-3-(4-chlorophenyl)-2-cyano-2-propenoate;Ethyl (<em>E</em>)-(4-chlorobenzylidene)cyanoacetate;Ethyl (<em>E</em>)-<em>p</em>-chloro-α-cyanocinnamate;(2<em>E</em>)-3-(4-Chlorophenyl)-2-cyano-2-propenoic acid ethyl ester;Ethyl (<em>E</em>)-3-(4-chlorophenyl)-2-cyano-2-propenoate;Ethyl (<em>E</em>)-2-cyano-3-(4-chlorophenyl)-2-propenoate;(<em>E</em>)-Ethyl 3-(4-chlorophenyl)-2-cyanoacrylate",
    "duplicated_cas_no": "1429479-26-4",
    "SMILES": "C(=C(/C(OCC)=O)\\C#N)\\C1=CC=C(Cl)C=C1",
    "meta_data": {
        "InChI": "InChI=1S/C12H10ClNO2/c1-2-16-12(15)10(8-14)7-9-3-5-11(13)6-4-9/h3-7H,2H2,1H3/b10-7+",
        "InChIKey": null,
        "Canonical SMILES": "N#CC(=CC1=CC=C(Cl)C=C1)C(=O)OCC",
        "Molecular Formula": "C<sub>12</sub>H<sub>10</sub>ClNO<sub>2</sub>",
        "Molecular Mass": "235.67",
        "Melting Point": "92-94 °C"
    }
}