{
    "cas_no": "1090-13-7",
    "key_name": "5,12-Naphthacenedione",
    "cn_name": "5,12-四并苯醌;5,12-丁省醌;",
    "alternate_name": "5,12-Naphthacenedione;Naphthacenequinone;Naphthacene-6,11-quinone;5,12-Naphthacenequinone;Tetracenemonoquinone;5,12-Tetracenequinone;Benz[<em>b</em>]anthracene-5,12-dione;NSC 401183",
    "duplicated_cas_no": "",
    "SMILES": "O=C1C=2C(C(=O)C=3C1=CC=CC3)=CC=4C(C2)=CC=CC4",
    "meta_data": {
        "InChI": "InChI=1S/C18H10O2/c19-17-13-7-3-4-8-14(13)18(20)16-10-12-6-2-1-5-11(12)9-15(16)17/h1-10H",
        "InChIKey": null,
        "Canonical SMILES": "O=C1C=2C=CC=CC2C(=O)C3=CC=4C=CC=CC4C=C13",
        "Molecular Formula": "C<sub>18</sub>H<sub>10</sub>O<sub>2</sub>",
        "Molecular Mass": "258.27",
        "Melting Point": "285 °C"
    }
}