{
    "cas_no": "6627-91-4",
    "key_name": "2-(Cyanomethyl)benzoic acid",
    "cn_name": null,
    "alternate_name": "Benzoic acid, 2-(cyanomethyl)-;<em>o</em>-Toluic acid, α-cyano-;2-(Cyanomethyl)benzoic acid;<em>o</em>-Carboxyphenylacetonitrile;NSC 60255;NSC 631630",
    "duplicated_cas_no": "",
    "SMILES": "C(O)(=O)C1=C(CC#N)C=CC=C1",
    "meta_data": {
        "InChI": "InChI=1S/C9H7NO2/c10-6-5-7-3-1-2-4-8(7)9(11)12/h1-4H,5H2,(H,11,12)",
        "InChIKey": null,
        "Canonical SMILES": "N#CCC=1C=CC=CC1C(=O)O",
        "Molecular Formula": "C<sub>9</sub>H<sub>7</sub>NO<sub>2</sub>",
        "Molecular Mass": "161.16",
        "Melting Point": "126 °C"
    }
}