{
    "cas_no": "616-79-5",
    "key_name": "2-Amino-5-nitrobenzoic acid",
    "cn_name": "2-氨基-5-硝基苯甲酸;",
    "alternate_name": "Benzoic acid, 2-amino-5-nitro-;Anthranilic acid, 5-nitro-;2-Amino-5-nitrobenzoic acid;5-Nitroanthranilic acid;NSC 16208;NSC 63867;5-Nitro-2-aminobenzoic acid",
    "duplicated_cas_no": "",
    "SMILES": "C(O)(=O)C1=CC(N(=O)=O)=CC=C1N",
    "meta_data": {
        "InChI": "InChI=1S/C7H6N2O4/c8-6-2-1-4(9(12)13)3-5(6)7(10)11/h1-3H,8H2,(H,10,11)",
        "InChIKey": null,
        "Canonical SMILES": "O=C(O)C1=CC(=CC=C1N)N(=O)=O",
        "Molecular Formula": "C<sub>7</sub>H<sub>6</sub>N<sub>2</sub>O<sub>4</sub>",
        "Molecular Mass": "182.13",
        "Melting Point": "265 °C (decomp)"
    }
}