{
    "cas_no": "3883-95-2",
    "key_name": "3-Bromosalicylic acid",
    "cn_name": null,
    "alternate_name": "Benzoic acid, 3-bromo-2-hydroxy-;Salicylic acid, 3-bromo-;3-Bromo-2-hydroxybenzoic acid;3-Bromosalicylic acid",
    "duplicated_cas_no": "",
    "SMILES": "C(O)(=O)C1=C(O)C(Br)=CC=C1",
    "meta_data": {
        "InChI": "InChI=1S/C7H5BrO3/c8-5-3-1-2-4(6(5)9)7(10)11/h1-3,9H,(H,10,11)",
        "InChIKey": null,
        "Canonical SMILES": "O=C(O)C=1C=CC=C(Br)C1O",
        "Molecular Formula": "C<sub>7</sub>H<sub>5</sub>BrO<sub>3</sub>",
        "Molecular Mass": "217.02",
        "Melting Point": "184 °C"
    }
}