{
    "cas_no": "2872-52-8",
    "key_name": "Disperse Red 1",
    "cn_name": "分散红1;N-乙基-N-(2-羟乙基)-4-(4-硝基苯基偶氮)苯胺;",
    "alternate_name": "Ethanol, 2-[ethyl[4-[2-(4-nitrophenyl)diazenyl]phenyl]amino]-;Celliton Scarlet B;C.I. Disperse Red 1;Ethanol, 2-[ethyl[4-[(4-nitrophenyl)azo]phenyl]amino]-;2-[Ethyl[4-[2-(4-nitrophenyl)diazenyl]phenyl]amino]ethanol;C.I. 11110;Acetamine Scarlet B;Acetate Fast Scarlet B;Acetoquinone Light Scarlet BLZ;Amacel Scarlet GB;Calcosyn Brilliant Scarlet BN;Celliton Discharge Scarlet B;Celliton Scarlet BA-CF;Celutate Scarlet BH;Cibacet Scarlet BRN;Cibacet Scarlet 2B;Cibacet Scarlet BS;Cilla Scarlet B;Diacelliton Scarlet B;Disperse Scarlet B;Dispersol Fast Scarlet B;Durgacet Scarlet B;Eastone Scarlet BG;Eniacyl Scarlet B;<em>N</em>-Ethyl-<em>N</em>-[<em>p</em>-(<em>p</em>-nitrophenylazo)phenyl]ethanolamine;Fenacet Scarlet B;Interchem Acetate Scarlet B;Interchem Hisperse Scarlet BH;Kayalon Fast Scarlet B;Microsetile Scarlet B;Miketon Fast Scarlet B;Monocel Scarlet B;Nacelan Scarlet CSB;Neosetile Scarlet B;4-Nitro-4′-[<em>N</em>-ethyl-<em>N</em>-(β-hydroxyethyl)amino]azobenzene;Nyloquinone Red N;Reliton Scarlet BA;Safaritone Scarlet B;Scarlet Reliton BA;Serinyl Hoisery Scarlet BD;Serisol Fast Scarlet BD;Setacyl Scarlet B;Setacyl Scarlet 2BD;Setacyl Scarlet RNA;Silotras Scarlet TSR;Supracet Fast Scarlet B;Tertranese Scarlet N-B;Disperse Red 1;Disperse Scarlet Zh;4-Nitro-4′-[ethyl(2-hydroxyethyl)amino]azobenzene;Disperse Red Zh;<em>N</em>-Ethyl-<em>N</em>-(2-hydroxyethyl)-4-[(<em>p</em>-nitrophenyl)azo]aniline;4-[<em>N</em>-Ethyl-<em>N</em>-(2-hydroxyethyl)amino]-4′-nitroazobenzene;Dispersive ruby Zh;Dispersol Scarlet B;C.I. Solvent Red 14;WO 4;4-[Ethyl(2-hydroxyethyl)amino]-4′-nitroazobenzene;Diacelliton Fast Scarlet B;Serisol Fast Scarlet BD 200;4-[(2-Hydroxyethyl)ethylamino]-4′-nitroazobenzene;1-[<em>N</em>-Ethyl-<em>N</em>-(2-hydroxyethyl)amino]-4-(4-nitrophenylazo)benzene;4-[4-(Nitrophenyl)azo]-<em>N</em>-ethyl-<em>N</em>-(2-hydroxyethyl)aniline;Intrasperse Scarlet BRN;NSC 57019;<em>N</em>-Ethyl-<em>N</em>-(2-hydroxyethyl)-4-(4-nitrophenylazo)aniline;4-[<em>N</em>-(2-Hydroxyethyl)-<em>N</em>-ethylamino]-4′-nitroazobenzene;Fluka Disperse Red;D 3284",
    "duplicated_cas_no": "",
    "SMILES": "N(CCO)(CC)C1=CC=C(N=NC2=CC=C(N(=O)=O)C=C2)C=C1",
    "meta_data": {
        "InChI": "InChI=1S/C16H18N4O3/c1-2-19(11-12-21)15-7-3-13(4-8-15)17-18-14-5-9-16(10-6-14)20(22)23/h3-10,21H,2,11-12H2,1H3",
        "InChIKey": null,
        "Canonical SMILES": "O=N(=O)C1=CC=C(N=NC2=CC=C(C=C2)N(CC)CCO)C=C1",
        "Molecular Formula": "C<sub>16</sub>H<sub>18</sub>N<sub>4</sub>O<sub>3</sub>",
        "Molecular Mass": "314.34",
        "Melting Point": "161 °C"
    }
}