{
    "cas_no": "100523-84-0",
    "key_name": "5-Bromo-3-thiophenecarboxylic acid",
    "cn_name": null,
    "alternate_name": "3-Thiophenecarboxylic acid, 5-bromo-;5-Bromo-3-thiophenecarboxylic acid;2-Bromothiophene-4-carboxylic acid",
    "duplicated_cas_no": "",
    "SMILES": "C(O)(=O)C=1C=C(Br)SC1",
    "meta_data": {
        "InChI": "InChI=1S/C5H3BrO2S/c6-4-1-3(2-9-4)5(7)8/h1-2H,(H,7,8)",
        "InChIKey": null,
        "Canonical SMILES": "O=C(O)C1=CSC(Br)=C1",
        "Molecular Formula": "C<sub>5</sub>H<sub>3</sub>BrO<sub>2</sub>S",
        "Molecular Mass": "207.05",
        "Melting Point": "117-118 °C"
    }
}