{
    "cas_no": "22705-32-4",
    "key_name": "<em>N</em>,<em>N</em>,1,1-Tetramethylsilanamine",
    "cn_name": "二甲硅基二甲胺;二甲硅基二甲胺;",
    "alternate_name": "Silanamine, <em>N</em>,<em>N</em>,1,1-tetramethyl-;Silylamine, <em>N</em>,<em>N</em>,1,1-tetramethyl-;<em>N</em>,<em>N</em>,1,1-Tetramethylsilanamine;(Dimethylamino)dimethylsilane;Dimethyl(dimethylsilyl)amine;<em>N</em>,<em>N</em>-Dimethylaminodimethylsilane;(Dimethylsilyl)dimethylamine",
    "duplicated_cas_no": "",
    "SMILES": "N([SiH](C)C)(C)C",
    "meta_data": {
        "InChI": "InChI=1S/C4H13NSi/c1-5(2)6(3)4/h6H,1-4H3",
        "InChIKey": null,
        "Canonical SMILES": "N(C)(C)[SiH](C)C",
        "Molecular Formula": "C<sub>4</sub>H<sub>13</sub>NSi",
        "Molecular Mass": "103.24",
        "Boiling Point": "67.00 °C"
    }
}