{
    "cas_no": "1921-70-6",
    "key_name": "Pristane",
    "cn_name": "2,6,10,14-四甲基十五烷;",
    "alternate_name": "Pentadecane, 2,6,10,14-tetramethyl-;2,6,10,14-Tetramethylpentadecane;Norphytane;Pristane;Bute hydrocarbon;Norphytan;Pristan;NSC 114852",
    "duplicated_cas_no": "",
    "SMILES": "C(CCCC(CCCC(C)C)C)(CCCC(C)C)C",
    "meta_data": {
        "InChI": "InChI=1S/C19H40/c1-16(2)10-7-12-18(5)14-9-15-19(6)13-8-11-17(3)4/h16-19H,7-15H2,1-6H3",
        "InChIKey": null,
        "Canonical SMILES": "CC(C)CCCC(C)CCCC(C)CCCC(C)C",
        "Molecular Formula": "C<sub>19</sub>H<sub>40</sub>",
        "Molecular Mass": "268.52",
        "Boiling Point": "296 °C",
        "Density": "0.7833 g/cm³ @ Temp: 20 °C"
    }
}