{
    "cas_no": "103300-74-9",
    "key_name": "Taltirelin",
    "cn_name": "他替瑞林;(4S)-N-[(2S)-1-[(2S)-2-氨基甲酰基吡咯烷-1-基]-3-(3H-咪唑-4-基)-1-氧代丙-2-基]-1-甲基-2,6-二;",
    "alternate_name": "<span class=\"text-smallcaps\">L</smallcap>-Prolinamide, (4<em>S</em>)-hexahydro-1-methyl-2,6-dioxo-4-pyrimidinecarbonyl-<smallcap>L</span>-histidyl-;<span class=\"text-smallcaps\">L</smallcap>-Prolinamide, <em>N</em>-[(hexahydro-1-methyl-2,6-dioxo-4-pyrimidinyl)carbonyl]-<smallcap>L</span>-histidyl-, (<em>S</em>)-;(4<em>S</em>)-Hexahydro-1-methyl-2,6-dioxo-4-pyrimidinecarbonyl-<span class=\"text-smallcaps\">L</smallcap>-histidyl-<smallcap>L</span>-prolinamide;TA 0910;Taltirelin;Ceredist",
    "duplicated_cas_no": "",
    "SMILES": "C([C@H](CC1=CN=CN1)NC(=O)[C@@H]2CC(=O)N(C)C(=O)N2)(=O)N3[C@H](C(N)=O)CCC3",
    "meta_data": {
        "InChI": "InChI=1S/C17H23N7O5/c1-23-13(25)6-10(22-17(23)29)15(27)21-11(5-9-7-19-8-20-9)16(28)24-4-2-3-12(24)14(18)26/h7-8,10-12H,2-6H2,1H3,(H2,18,26)(H,19,20)(H,21,27)(H,22,29)/t10-,11-,12-/m0/s1",
        "InChIKey": null,
        "Canonical SMILES": "O=C(N)C1N(C(=O)C(NC(=O)C2NC(=O)N(C(=O)C2)C)CC3=CN=CN3)CCC1",
        "Molecular Formula": "C<sub>17</sub>H<sub>23</sub>N<sub>7</sub>O<sub>5</sub>",
        "Molecular Mass": "405.41",
        "Melting Point": "72-75 °C"
    }
}