{
    "cas_no": "14924-53-9",
    "key_name": "Ethyl cyclobutanecarboxylate",
    "cn_name": null,
    "alternate_name": "Cyclobutanecarboxylic acid, ethyl ester;Ethyl cyclobutanecarboxylate;NSC 125691",
    "duplicated_cas_no": "",
    "SMILES": "C(OCC)(=O)C1CCC1",
    "meta_data": {
        "InChI": "InChI=1S/C7H12O2/c1-2-9-7(8)6-4-3-5-6/h6H,2-5H2,1H3",
        "InChIKey": null,
        "Canonical SMILES": "O=C(OCC)C1CCC1",
        "Molecular Formula": "C<sub>7</sub>H<sub>12</sub>O<sub>2</sub>",
        "Molecular Mass": "128.17",
        "Boiling Point": "159 °C",
        "Density": "0.9549 g/cm³ @ Temp: 20 °C"
    }
}