{
    "cas_no": "1122-83-4",
    "key_name": "<em>N</em>-Sulfinylbenzenamine",
    "cn_name": "N-二胺二苯砜;",
    "alternate_name": "Benzenamine, <em>N</em>-sulfinyl-;Aniline, <em>N</em>-sulfinyl-;<em>N</em>-Sulfinylbenzenamine;Thionyl imide, phenyl-;NSC 40228;Sulfurous imide, phenyl-;Thionylaniline;<em>N</em>-Sulfinylaniline;Phenylsulfinylamine;Phenylthionylamine;Sulfinylphenylamine;<em>N</em>-Thionylaniline;(Sulfinylamino)benzene",
    "duplicated_cas_no": "",
    "SMILES": "N(=S=O)C1=CC=CC=C1",
    "meta_data": {
        "InChI": "InChI=1S/C6H5NOS/c8-9-7-6-4-2-1-3-5-6/h1-5H",
        "InChIKey": null,
        "Canonical SMILES": "O=S=NC=1C=CC=CC1",
        "Molecular Formula": "C<sub>6</sub>H<sub>5</sub>NOS",
        "Molecular Mass": "139.18",
        "Boiling Point": "200 °C"
    }
}