{
    "cas_no": "59870-68-7",
    "key_name": "Glabridin",
    "cn_name": "光甘草定;甘草黄酮;",
    "alternate_name": "1,3-Benzenediol, 4-[(3<em>R</em>)-3,4-dihydro-8,8-dimethyl-2<em>H</em>,8<em>H</em>-benzo[1,2-<em>b</em>:3,4-<em>b</em>′]dipyran-3-yl]-;1,3-Benzenediol, 4-(3,4-dihydro-8,8-dimethyl-2<em>H</em>,8<em>H</em>-benzo[1,2-<em>b</em>:3,4-<em>b</em>′]dipyran-3-yl)-, (<em>R</em>)-;2<em>H</em>,8<em>H</em>-Benzo[1,2-<em>b</em>:3,4-<em>b</em>′]dipyran, 1,3-benzenediol deriv.;4-[(3<em>R</em>)-3,4-Dihydro-8,8-dimethyl-2<em>H</em>,8<em>H</em>-benzo[1,2-<em>b</em>:3,4-<em>b</em>′]dipyran-3-yl]-1,3-benzenediol;Glabridin",
    "duplicated_cas_no": "",
    "SMILES": "CC1(C)OC2=C(C3=C(C[C@@H](CO3)C4=C(O)C=C(O)C=C4)C=C2)C=C1",
    "meta_data": {
        "InChI": "InChI=1S/C20H20O4/c1-20(2)8-7-16-18(24-20)6-3-12-9-13(11-23-19(12)16)15-5-4-14(21)10-17(15)22/h3-8,10,13,21-22H,9,11H2,1-2H3/t13-/m0/s1",
        "InChIKey": null,
        "Canonical SMILES": "OC1=CC=C(C(O)=C1)C2COC3=C4C=CC(OC4=CC=C3C2)(C)C",
        "Molecular Formula": "C<sub>20</sub>H<sub>20</sub>O<sub>4</sub>",
        "Molecular Mass": "324.37",
        "Melting Point": "238-240 °C"
    }
}