{
    "cas_no": "513-02-0",
    "key_name": "Triisopropyl phosphate",
    "cn_name": null,
    "alternate_name": "Phosphoric acid, tris(1-methylethyl) ester;Phosphoric acid, triisopropyl ester;Isopropyl phosphate ((C<sub>3</sub>H<sub>7</sub>O)<sub>3</sub>PO);Triisopropyl phosphate;Triisopropoxyphosphine oxide;NSC 46370;NSC 62275",
    "duplicated_cas_no": "",
    "SMILES": "P(OC(C)C)(OC(C)C)(OC(C)C)=O",
    "meta_data": {
        "InChI": "InChI=1S/C9H21O4P/c1-7(2)11-14(10,12-8(3)4)13-9(5)6/h7-9H,1-6H3",
        "InChIKey": null,
        "Canonical SMILES": "O=P(OC(C)C)(OC(C)C)OC(C)C",
        "Molecular Formula": "C<sub>9</sub>H<sub>21</sub>O<sub>4</sub>P",
        "Molecular Mass": "224.23",
        "Boiling Point": "219 °C",
        "Density": "0.985 g/cm³ @ Temp: 25 °C"
    }
}