{
    "cas_no": "10603-53-9",
    "key_name": "3-Pyrrolidinecarbonitrile",
    "cn_name": null,
    "alternate_name": "3-Pyrrolidinecarbonitrile;3-Cyanopyrrolidine",
    "duplicated_cas_no": "",
    "SMILES": "C(#N)C1CCNC1",
    "meta_data": {
        "InChI": "InChI=1S/C5H8N2/c6-3-5-1-2-7-4-5/h5,7H,1-2,4H2",
        "InChIKey": null,
        "Canonical SMILES": "N#CC1CNCC1",
        "Molecular Formula": "C<sub>5</sub>H<sub>8</sub>N<sub>2</sub>",
        "Molecular Mass": "96.13",
        "Boiling Point": "115-120 °C @ Press: 50 Torr"
    }
}