{
    "cas_no": "14281-83-5",
    "key_name": "Zinc glycinate",
    "cn_name": "甘氨酸锌;",
    "alternate_name": "Zinc, bis(glycinato-κ<em>N</em>,κ<em>O</em>)-, (<em>T</em>-4)-;Zinc, bis(glycinato)-;Zinc, bis(glycinato-<em>N</em>,<em>O</em>)-, (<em>T</em>-4)-;Glycine, zinc complex;Bis(glycinato)zinc;Glycine zinc salt;Zinc Chelazome;Zinc(II) glycinate;Zinc bisglycinate;Zinc glycinate",
    "duplicated_cas_no": "",
    "SMILES": "O=C1[O-][Zn+2]2([O-]C(=O)C[NH2]2)[NH2]C1",
    "meta_data": {
        "InChI": "InChI=1S/2C2H5NO2.Zn/c2*3-1-2(4)5;/h2*1,3H2,(H,4,5);/q;;+2/p-2",
        "InChIKey": null,
        "Canonical SMILES": "O=C1[O-][Zn+2]2([O-]C(=O)C[NH2]2)[NH2]C1",
        "Molecular Formula": "C<sub>4</sub>H<sub>8</sub>N<sub>2</sub>O<sub>4</sub>Zn",
        "Molecular Mass": "",
        "Melting Point": "&gt;300 °C (decomp)"
    }
}