{
    "cas_no": "84110-40-7",
    "key_name": "2-Methylpropylboronic acid",
    "cn_name": "异丁基硼酸;(2-甲基丙基)硼酸;",
    "alternate_name": "Boronic acid, <em>B</em>-(2-methylpropyl)-;Boronic acid, (2-methylpropyl)-;1-Propaneboronic acid, 2-methyl-;<em>B</em>-(2-Methylpropyl)boronic acid;Isobutylboric acid;Isobutyl boronic acid;2-Methylpropylboronic acid",
    "duplicated_cas_no": "",
    "SMILES": "C(B(O)O)C(C)C",
    "meta_data": {
        "InChI": "InChI=1S/C4H11BO2/c1-4(2)3-5(6)7/h4,6-7H,3H2,1-2H3",
        "InChIKey": null,
        "Canonical SMILES": "OB(O)CC(C)C",
        "Molecular Formula": "C<sub>4</sub>H<sub>11</sub>BO<sub>2</sub>",
        "Molecular Mass": "101.94",
        "Melting Point": "104 °C"
    }
}