{
    "cas_no": "1647-26-3",
    "key_name": "2-Cyclohexylethyl bromide",
    "cn_name": "2-环己基乙基溴;",
    "alternate_name": "Cyclohexane, (2-bromoethyl)-;(2-Bromoethyl)cyclohexane;2-Cyclohexylethyl bromide;1-Bromo-2-cyclohexylethane;NSC 46808;NSC 6078;[2-[Cyclohexyl]ethyl]bromide",
    "duplicated_cas_no": "",
    "SMILES": "C(CBr)C1CCCCC1",
    "meta_data": {
        "InChI": "InChI=1S/C8H15Br/c9-7-6-8-4-2-1-3-5-8/h8H,1-7H2",
        "InChIKey": null,
        "Canonical SMILES": "BrCCC1CCCCC1",
        "Molecular Formula": "C<sub>8</sub>H<sub>15</sub>Br",
        "Molecular Mass": "191.11",
        "Boiling Point": "212 °C",
        "Melting Point": "-57 °C"
    }
}