{
    "cas_no": "21378-21-2",
    "key_name": "3-Methyl-2-cyclohexen-1-ol",
    "cn_name": "3-甲基-2-环己烯-1-醇;",
    "alternate_name": "2-Cyclohexen-1-ol, 3-methyl-;3-Methyl-2-cyclohexen-1-ol;1-Methyl-1-cyclohexen-3-ol;3-Methyl-2-cyclohexenol;3-Hydroxy-1-methylcyclohexene;Seudenol;(±)-3-Methyl-2-cyclohexen-1-ol;(±)-3-Hydroxy-1-methylcyclohexene;(±)-Seudenol;NSC 174669;1-Methyl-3-hydroxycyclohex-1-ene",
    "duplicated_cas_no": "20053-41-2;54423-21-1",
    "SMILES": "CC1=CC(O)CCC1",
    "meta_data": {
        "InChI": "InChI=1S/C7H12O/c1-6-3-2-4-7(8)5-6/h5,7-8H,2-4H2,1H3",
        "InChIKey": null,
        "Canonical SMILES": "OC1C=C(C)CCC1",
        "Molecular Formula": "C<sub>7</sub>H<sub>12</sub>O",
        "Molecular Mass": "112.17",
        "Boiling Point": "56 °C @ Press: 1 Torr",
        "Density": "0.9463 g/cm³ @ Temp: 423 °C"
    }
}