{
    "cas_no": "5081-42-5",
    "key_name": "Benzoic acid, 3,4,5-trimethoxy-2-nitro-, methyl ester",
    "cn_name": "2-硝基-3,4,5-三甲氧基苯甲酸甲酯;",
    "alternate_name": "Benzoic acid, 3,4,5-trimethoxy-2-nitro-, methyl ester;Methyl 3,4,5-trimethoxy-2-nitrobenzoate;2-Nitro-3,4,5-trimethoxybenzoic acid methyl ester;NSC 20282;Methyl 2-nitro-3,4,5-trimethoxybenzoate;3,4,5-Trimethoxy-2-nitrobenzoic acid methyl ester;3,4,5-Trimethoxy-2-nitro-benzoic acid methyl ester",
    "duplicated_cas_no": "",
    "SMILES": "N(=O)(=O)C1=C(OC)C(OC)=C(OC)C=C1C(OC)=O",
    "meta_data": {
        "InChI": "InChI=1S/C11H13NO7/c1-16-7-5-6(11(13)19-4)8(12(14)15)10(18-3)9(7)17-2/h5H,1-4H3",
        "InChIKey": null,
        "Canonical SMILES": "O=C(OC)C1=CC(OC)=C(OC)C(OC)=C1N(=O)=O",
        "Molecular Formula": "C<sub>11</sub>H<sub>13</sub>NO<sub>7</sub>",
        "Molecular Mass": "271.22",
        "Melting Point": "67 °C"
    }
}