{
    "cas_no": "433-94-3",
    "key_name": "2-Chloro-6-(trifluoromethyl)benzenamine",
    "cn_name": "2-氨基-3-氯三氟甲苯;",
    "alternate_name": "Benzenamine, 2-chloro-6-(trifluoromethyl)-;<em>o</em>-Toluidine, 6-chloro-α,α,α-trifluoro-;2-Chloro-6-(trifluoromethyl)benzenamine;2-Amino-3-chlorobenzotrifluoride;2-Chloro-6-(trifluoromethyl)aniline",
    "duplicated_cas_no": "",
    "SMILES": "C(F)(F)(F)C1=C(N)C(Cl)=CC=C1",
    "meta_data": {
        "InChI": "InChI=1S/C7H5ClF3N/c8-5-3-1-2-4(6(5)12)7(9,10)11/h1-3H,12H2",
        "InChIKey": null,
        "Canonical SMILES": "FC(F)(F)C=1C=CC=C(Cl)C1N",
        "Molecular Formula": "C<sub>7</sub>H<sub>5</sub>ClF<sub>3</sub>N",
        "Molecular Mass": "195.57",
        "Boiling Point": "39-40 °C @ Press: 0.1 Torr"
    }
}