{
    "cas_no": "52-89-1",
    "key_name": "<span class=\"text-smallcaps\">L</span>-(+)-Cysteine hydrochloride",
    "cn_name": "L-半胱氨酸盐酸盐(无水物);",
    "alternate_name": "<span class=\"text-smallcaps\">L</span>-Cysteine, hydrochloride (1:1);Cysteine, hydrochloride, <span class=\"text-smallcaps\">L</span>-;<span class=\"text-smallcaps\">L</span>-Cysteine, hydrochloride;Cysteine chlorohydrate;Cysteine hydrochloride;Cystein chloride;<span class=\"text-smallcaps\">L</span>-(+)-Cysteine hydrochloride;(<em>R</em>)-Cysteine hydrochloride;WR 348;(R)-1-Carboxy-2-mercaptoethanaminium chloride;CSKE 200;(2R)-2-Amino-3-sulfanylpropanoic acid hydrochloride",
    "duplicated_cas_no": "29844-56-2;122641-75-2;122882-13-7;124558-06-1;2583545-87-1",
    "SMILES": "[C@@H](C(O)=O)(CS)N.Cl",
    "meta_data": {
        "InChI": "InChI=1S/C3H7NO2S.ClH/c4-2(1-7)3(5)6;/h2,7H,1,4H2,(H,5,6);1H/t2-;/m0./s1",
        "InChIKey": null,
        "Canonical SMILES": "Cl.O=C(O)C(N)CS",
        "Molecular Formula": "C<sub>3</sub>H<sub>7</sub>NO<sub>2</sub>S.ClH",
        "Molecular Mass": "",
        "Melting Point": "170-178 °C (decomp)"
    }
}