{
    "cas_no": "1671-75-6",
    "key_name": "Heptanophenone",
    "cn_name": "苯庚酮;苯庚酮;庚酰基苯;庚苯酮;庚苯酮, 98+%;正庚苯酮;",
    "alternate_name": "1-Heptanone, 1-phenyl-;Heptanophenone;1-Phenyl-1-heptanone;Enanthophenone;Hexyl phenyl ketone;1-Phenylheptanone;<em>n</em>-Hexyl phenyl ketone;1-Oxo-1-phenylheptane;Phenyl hexanyl ketone",
    "duplicated_cas_no": "",
    "SMILES": "C(CCCCCC)(=O)C1=CC=CC=C1",
    "meta_data": {
        "InChI": "InChI=1S/C13H18O/c1-2-3-4-8-11-13(14)12-9-6-5-7-10-12/h5-7,9-10H,2-4,8,11H2,1H3",
        "InChIKey": null,
        "Canonical SMILES": "O=C(C=1C=CC=CC1)CCCCCC",
        "Molecular Formula": "C<sub>13</sub>H<sub>18</sub>O",
        "Molecular Mass": "190.28",
        "Boiling Point": "283.3 °C",
        "Melting Point": "16.4 °C",
        "Density": "0.9792 g/cm³ @ Temp: 0 °C"
    }
}