{
    "cas_no": "101-32-6",
    "key_name": "2,2′-[(Phenylmethyl)imino]bis[ethanol]",
    "cn_name": "N,N-二(β-氯乙基)苄胺盐酸盐;N,N-二(β-氯乙基)苄胺盐酸盐;",
    "alternate_name": "Ethanol, 2,2′-[(phenylmethyl)imino]bis-;Ethanol, 2,2′-(benzylimino)di-;2,2′-[(Phenylmethyl)imino]bis[ethanol];<em>N</em>,<em>N</em>-Bis(2-hydroxyethyl)benzylamine;<em>N</em>-Benzyldiethanolamine;Benzyldiethanolamine;<em>N</em>-Benzyl-<em>N</em>,<em>N</em>-bis(2-hydroxyethyl)amine;2,2′-(Benzylimino)diethanol;Benzylbis(2-hydroxyethyl)amine;NSC 60297;2-[Benzyl(2-hydroxyethyl)amino]ethanol;<em>N</em>-Benzylbis(2-hydroxyethyl)amine;<em>N</em>-Benzyl-<em>N</em>,<em>N</em>-di(2-hydroxyethyl)amine;2-[Benzyl(2-hydroxyethyl)amino]ethan-1-ol",
    "duplicated_cas_no": "",
    "SMILES": "N(CC1=CC=CC=C1)(CCO)CCO",
    "meta_data": {
        "InChI": "InChI=1S/C11H17NO2/c13-8-6-12(7-9-14)10-11-4-2-1-3-5-11/h1-5,13-14H,6-10H2",
        "InChIKey": null,
        "Canonical SMILES": "OCCN(CC=1C=CC=CC1)CCO",
        "Molecular Formula": "C<sub>11</sub>H<sub>17</sub>NO<sub>2</sub>",
        "Molecular Mass": "195.26",
        "Boiling Point": "176-177 °C @ Press: 6 Torr",
        "Melting Point": "196.5 °C"
    }
}