{
    "cas_no": "59-98-3",
    "key_name": "Tolazoline",
    "cn_name": "托拉佐林;妥拉唑林;2-苯甲基咪唑啉;2-苄基-4,5-二氢-1H-咪唑;",
    "alternate_name": "1<em>H</em>-Imidazole, 4,5-dihydro-2-(phenylmethyl)-;2-Imidazoline, 2-benzyl-;Imidazoline, 2-benzyl-;4,5-Dihydro-2-(phenylmethyl)-1<em>H</em>-imidazole;Artonil;Benzazoline;Benzidazol;2-Benzyl-4,5-imidazoline;2-Benzyl-2-imidazoline;Divascol;Imidalin;Kasimid;Lambril;Olitensol;Peripherine;Phenylmethylimidazoline;Prefaxil;Priscol;Priscoline;Tolazoline;Vasimid;Vasodil;Benzylimidazoline;2-Benzylimidazoline;Benzolin (vasodilator);Benzolin;Dilatol ASI;Tolazolin;Imidaline;2-Benzyl-4,5-dihydro-1<em>H</em>-imidazole;NSC 35110;MeSH ID: D014043",
    "duplicated_cas_no": "",
    "SMILES": "C(C1=CC=CC=C1)C=2NCCN2",
    "meta_data": {
        "InChI": "InChI=1S/C10H12N2/c1-2-4-9(5-3-1)8-10-11-6-7-12-10/h1-5H,6-8H2,(H,11,12)",
        "InChIKey": null,
        "Canonical SMILES": "N1=C(NCC1)CC=2C=CC=CC2",
        "Molecular Formula": "C<sub>10</sub>H<sub>12</sub>N<sub>2</sub>",
        "Molecular Mass": "160.22",
        "Boiling Point": "147 °C @ Press: 9 Torr",
        "Melting Point": "174 °C"
    }
}