{
    "cas_no": "9003-31-0",
    "key_name": "Polyisoprene",
    "cn_name": null,
    "alternate_name": "1,3-Butadiene, 2-methyl-, homopolymer;Isoprene, polymers;Polyisoprene;Isoprene polymer;Betaprene H;Isoprene D;Isoprene oligomer;Poly(2-methyl-1,3-butadiene);Isoprene homopolymer;Poly(2-methylbutadiene);Poly(isopentadiene);PIP (polyisoprene);PIP;JSR-LIR 20000;KM 4K1;TR 301;LIR 15;Revultex Lan 960;LIR 20000;JSR-PIP 2;H 07-119-04;2-Methyl-1,3-butadiene homopolymer;KL 10;Sepolex IR 100H;NMPI 400;SCPI 1K;KPL 436521;A 35126",
    "duplicated_cas_no": "29717-43-9;29896-30-8;54577-96-7;556832-29-2;1073561-94-0;1424894-26-7;1579281-66-5;1644388-77-1;1983944-32-6;2100830-06-4;2126944-33-8;2260719-19-3",
    "SMILES": "C(C=C)(C)=C",
    "meta_data": {
        "InChI": "InChI=1S/C5H8/c1-4-5(2)3/h4H,1-2H2,3H3",
        "InChIKey": null,
        "Canonical SMILES": "C=CC(=C)C",
        "Molecular Formula": "(C<sub>5</sub>H<sub>8</sub>)<sub>x</sub>",
        "Molecular Mass": "",
        "Melting Point": "64 °C",
        "Density": "0.96 g/cm³"
    }
}