{
    "cas_no": "38194-50-2",
    "key_name": "Sulindac",
    "cn_name": "舒林酸;(Z)-5-氟-2-甲基-1-[4-(甲亚硫酰苯基)亚甲基]-1H-茚-3-醋酸;",
    "alternate_name": "1<em>H</em>-Indene-3-acetic acid, 5-fluoro-2-methyl-1-[[4-(methylsulfinyl)phenyl]methylene]-, (1<em>Z</em>)-;1<em>H</em>-Indene-3-acetic acid, 5-fluoro-2-methyl-1-[[4-(methylsulfinyl)phenyl]methylene]-, (<em>Z</em>)-;(1<em>Z</em>)-5-Fluoro-2-methyl-1-[[4-(methylsulfinyl)phenyl]methylene]-1<em>H</em>-indene-3-acetic acid;<em>cis</em>-5-Fluoro-2-methyl-1-[(<em>p</em>-methylsulfinyl)benzylidenyl]indene-3-acetic acid;Sulindac;Clinoril;MK 231;Arthrocine;Mobilin;<em>cis</em>-Sulindac;Sulindac sulfoxide;Clisundac;Artribid;Reumofil;Sulreuma;Algocetil;Citireuma;Sudac;Aflodac;Reumyl;Sulinol;Imbaral;(<em>Z</em>)-5-Fluoro-2-methyl-1-[<em>p</em>-(methylsulfinyl)benzylidene]indene-3-acetic acid;MeSH ID: D013467",
    "duplicated_cas_no": "49627-22-7",
    "SMILES": "C(=C/1\\C=2C(C(CC(O)=O)=C1C)=CC(F)=CC2)\\C3=CC=C(S(C)=O)C=C3",
    "meta_data": {
        "InChI": "InChI=1/C20H17FO3S/c1-12-17(9-13-3-6-15(7-4-13)25(2)24)16-8-5-14(21)10-19(16)18(12)11-20(22)23/h3-10H,11H2,1-2H3,(H,22,23)/b17-9-",
        "InChIKey": null,
        "Canonical SMILES": "O=C(O)CC=1C=2C=C(F)C=CC2C(=CC3=CC=C(C=C3)S(=O)C)C1C",
        "Molecular Formula": "C<sub>20</sub>H<sub>17</sub>FO<sub>3</sub>S",
        "Molecular Mass": "356.41",
        "Melting Point": "183 °C"
    }
}