{
    "cas_no": "19752-61-5",
    "key_name": "5-Bromo-2,4-bis(1,1-dimethylethoxy)pyrimidine",
    "cn_name": "2,4-二叔丁氧基-5-溴嘧啶;5-溴-2,4-二-叔丁氧基嘧啶;5-溴-2,4-二-(叔丁氧基)嘧啶;",
    "alternate_name": "Pyrimidine, 5-bromo-2,4-bis(1,1-dimethylethoxy)-;Pyrimidine, 5-bromo-2,4-di-<em>tert</em>-butoxy-;5-Bromo-2,4-bis(1,1-dimethylethoxy)pyrimidine;5-Bromo-2,4-bis(<em>tert</em>-butoxy)pyrimidine;5-Bromo-2,4-di-<em>tert</em>-butoxypyrimidine",
    "duplicated_cas_no": "",
    "SMILES": "O(C(C)(C)C)C1=NC(OC(C)(C)C)=NC=C1Br",
    "meta_data": {
        "InChI": "InChI=1S/C12H19BrN2O2/c1-11(2,3)16-9-8(13)7-14-10(15-9)17-12(4,5)6/h7H,1-6H3",
        "InChIKey": null,
        "Canonical SMILES": "BrC1=CN=C(N=C1OC(C)(C)C)OC(C)(C)C",
        "Molecular Formula": "C<sub>12</sub>H<sub>19</sub>BrN<sub>2</sub>O<sub>2</sub>",
        "Molecular Mass": "303.20",
        "Melting Point": "61 °C"
    }
}