{
    "cas_no": "1014-81-9",
    "key_name": "3-(Trifluoromethoxy)benzoic acid",
    "cn_name": "3-(三氟甲氧基)苯甲酸;间三氟甲氧基苯甲酸;",
    "alternate_name": "Benzoic acid, 3-(trifluoromethoxy)-;<em>m</em>-Anisic acid, α,α,α-trifluoro-;3-(Trifluoromethoxy)benzoic acid",
    "duplicated_cas_no": "",
    "SMILES": "O(C(F)(F)F)C1=CC(C(O)=O)=CC=C1",
    "meta_data": {
        "InChI": "InChI=1S/C8H5F3O3/c9-8(10,11)14-6-3-1-2-5(4-6)7(12)13/h1-4H,(H,12,13)",
        "InChIKey": null,
        "Canonical SMILES": "O=C(O)C=1C=CC=C(OC(F)(F)F)C1",
        "Molecular Formula": "C<sub>8</sub>H<sub>5</sub>F<sub>3</sub>O<sub>3</sub>",
        "Molecular Mass": "206.12",
        "Melting Point": "91-92 °C"
    }
}