{
    "cas_no": "5380-87-0",
    "key_name": "2-[(2-Oxiranylmethoxy)methyl]furan",
    "cn_name": "缩水甘油糠醚;呋喃甲基缩水甘油醚;",
    "alternate_name": "Furan, 2-[(2-oxiranylmethoxy)methyl]-;Furan, 2-[(2,3-epoxypropoxy)methyl]-;Furan, 2-[(oxiranylmethoxy)methyl]-;2-[(2-Oxiranylmethoxy)methyl]furan;Furfuryl glycidyl ether;2-[(2,3-Epoxypropoxy)methyl]furan;2-((Furan-2-ylmethyl)oxymethyl)oxirane;Glycidyl furfuryl ether;2-(Glycidyloxymethyl)furan;2-Furylmethyl glycidyl ether;2-Oxiranylmethoxymethyl-furan",
    "duplicated_cas_no": "",
    "SMILES": "C(OCC1=CC=CO1)C2CO2",
    "meta_data": {
        "InChI": "InChI=1S/C8H10O3/c1-2-7(10-3-1)4-9-5-8-6-11-8/h1-3,8H,4-6H2",
        "InChIKey": null,
        "Canonical SMILES": "O1C=CC=C1COCC2OC2",
        "Molecular Formula": "C<sub>8</sub>H<sub>10</sub>O<sub>3</sub>",
        "Molecular Mass": "154.16",
        "Boiling Point": "85.5-87 °C @ Press: 1.5 Torr",
        "Density": "1.1452 g/cm³ @ Temp: 20 °C"
    }
}