{
    "cas_no": "5395-04-0",
    "key_name": "Bis(pentamethylene)urea",
    "cn_name": "双五亚甲基尿素;1,1\"-羰基二哌啶;",
    "alternate_name": "Methanone, di-1-piperidinyl-;Piperidine, 1,1′-carbonyldi-;Piperidine, 1,1′-carbonylbis-;Di-1-piperidinylmethanone;<em>N</em>,<em>N</em>′-Carbonylbis(piperidine);1,1′-Carbonyldipiperidine;<em>N</em>,<em>N</em>,<em>N</em>′,<em>N</em>′-Bispentamethyleneurea;<em>N</em>,<em>N</em>,<em>N</em>′,<em>N</em>′-Bis(cyclopentamethylene)urea;Bis(pentamethylene)urea;NSC 3145;Dipiperidin-1-ylmethanone;Bis(1-piperidyl) ketone;4,4′-Carbonyldipiperidine",
    "duplicated_cas_no": "2375010-59-4",
    "SMILES": "C(=O)(N1CCCCC1)N2CCCCC2",
    "meta_data": {
        "InChI": "InChI=1S/C11H20N2O/c14-11(12-7-3-1-4-8-12)13-9-5-2-6-10-13/h1-10H2",
        "InChIKey": null,
        "Canonical SMILES": "O=C(N1CCCCC1)N2CCCCC2",
        "Molecular Formula": "C<sub>11</sub>H<sub>20</sub>N<sub>2</sub>O",
        "Molecular Mass": "196.29",
        "Boiling Point": "102-103 °C @ Press: 1.5 Torr",
        "Melting Point": "42 °C"
    }
}