{
    "cas_no": "2033-30-9",
    "key_name": "1,3-Dihydro-5,6-dimethyl-2<em>H</em>-benzimidazol-2-one",
    "cn_name": null,
    "alternate_name": "2<em>H</em>-Benzimidazol-2-one, 1,3-dihydro-5,6-dimethyl-;2-Benzimidazolinone, 5,6-dimethyl-;1,3-Dihydro-5,6-dimethyl-2<em>H</em>-benzimidazol-2-one;5,6-Dimethyl-2-benzimidazolinone;NSC 163165",
    "duplicated_cas_no": "",
    "SMILES": "CC=1C=C2C(=CC1C)NC(=O)N2",
    "meta_data": {
        "InChI": "InChI=1S/C9H10N2O/c1-5-3-7-8(4-6(5)2)11-9(12)10-7/h3-4H,1-2H3,(H2,10,11,12)",
        "InChIKey": null,
        "Canonical SMILES": "O=C1NC=2C=C(C(=CC2N1)C)C",
        "Molecular Formula": "C<sub>9</sub>H<sub>10</sub>N<sub>2</sub>O",
        "Molecular Mass": "162.19",
        "Melting Point": "&gt;345 °C"
    }
}