{
    "cas_no": "883-99-8",
    "key_name": "2-Naphthalenecarboxylic acid, 3-hydroxy-, methyl ester",
    "cn_name": null,
    "alternate_name": "2-Naphthalenecarboxylic acid, 3-hydroxy-, methyl ester;2-Naphthoic acid, 3-hydroxy-, methyl ester;Methyl 3-hydroxy-2-naphthoate;2-Hydroxy-3-naphthoic acid methyl ester;Methyl 3-hydroxy-2-naphthalenecarboxylate;Methyl 2-hydroxy-3-naphthoate;2-Hydroxynaphthalene-3-carboxylic acid methyl ester;3-(Methoxycarbonyl)-2-naphthol;3-Carbomethoxy-2-naphthol;Methyl 2-hydroxynaphthalene-3-carboxylate;NSC 25175;Methyl 2-hydroxy-3-naphthoic acid;3-Hydroxy-2-naphthoic acid methyl ester;3-Hydroxy-2-naphthalenecarboxylic acid methyl ester",
    "duplicated_cas_no": "",
    "SMILES": "C(OC)(=O)C1=CC2=C(C=C1O)C=CC=C2",
    "meta_data": {
        "InChI": "InChI=1S/C12H10O3/c1-15-12(14)10-6-8-4-2-3-5-9(8)7-11(10)13/h2-7,13H,1H3",
        "InChIKey": null,
        "Canonical SMILES": "O=C(OC)C1=CC=2C=CC=CC2C=C1O",
        "Molecular Formula": "C<sub>12</sub>H<sub>10</sub>O<sub>3</sub>",
        "Molecular Mass": "202.21",
        "Boiling Point": "206 °C",
        "Melting Point": "75.5 °C"
    }
}