{
    "cas_no": "3535-30-6",
    "key_name": "4-Ethoxy-3-methoxybenzoic acid",
    "cn_name": null,
    "alternate_name": "Benzoic acid, 4-ethoxy-3-methoxy-;4-Ethoxy-3-methoxybenzoic acid;Vanillic acid ethyl ether;NSC 243739;3-Methoxy-4-ethoxybenzoic acid",
    "duplicated_cas_no": "",
    "SMILES": "O(C)C1=C(OCC)C=CC(C(O)=O)=C1",
    "meta_data": {
        "InChI": "InChI=1S/C10H12O4/c1-3-14-8-5-4-7(10(11)12)6-9(8)13-2/h4-6H,3H2,1-2H3,(H,11,12)",
        "InChIKey": null,
        "Canonical SMILES": "O=C(O)C1=CC=C(OCC)C(OC)=C1",
        "Molecular Formula": "C<sub>10</sub>H<sub>12</sub>O<sub>4</sub>",
        "Molecular Mass": "196.20",
        "Melting Point": "195-196 °C"
    }
}