{
    "cas_no": "122520-86-9",
    "key_name": "Tyrphostin AG 213",
    "cn_name": null,
    "alternate_name": "2-Propenethioamide, 2-cyano-3-(3,4-dihydroxyphenyl)-, (2<em>E</em>)-;2-Propenethioamide, 2-cyano-3-(3,4-dihydroxyphenyl)-, (<em>E</em>)-;(2<em>E</em>)-2-Cyano-3-(3,4-dihydroxyphenyl)-2-propenethioamide;AG 213;Tyrphostin AG 213",
    "duplicated_cas_no": "",
    "SMILES": "C(=C(/C(N)=S)\\C#N)\\C1=CC(O)=C(O)C=C1",
    "meta_data": {
        "InChI": "InChI=1S/C10H8N2O2S/c11-5-7(10(12)15)3-6-1-2-8(13)9(14)4-6/h1-4,13-14H,(H2,12,15)/b7-3+",
        "InChIKey": null,
        "Canonical SMILES": "N#CC(=CC1=CC=C(O)C(O)=C1)C(=S)N",
        "Molecular Formula": "C<sub>10</sub>H<sub>8</sub>N<sub>2</sub>O<sub>2</sub>S",
        "Molecular Mass": "220.25",
        "Melting Point": "213 °C"
    }
}