{
    "cas_no": "3279-76-3",
    "key_name": "2-Hydroxy-6-methylpyridine",
    "cn_name": "2-羟基-6-甲基吡啶;6-甲基-2-羟基吡啶;",
    "alternate_name": "2(1<em>H</em>)-Pyridinone, 6-methyl-;2(1<em>H</em>)-Pyridone, 6-methyl-;6-Methyl-2(1<em>H</em>)-pyridinone;6-Methyl-2-pyridone;2-Methyl-6-pyridone;6-Methyl-2-hydroxypyridine;6-Methyl-2-pyridinol;6-Methyl-2-pyridinone;2-Hydroxy-6-methylpyridine;6-Methyl-2(1<em>H</em>)-pyridone;2-Methyl-6-hydroxypyridine;6-Hydroxy-α-picoline;6-Hydroxy-2-methylpyridine;NSC 176166;NSC 75619;6-Methyl-1<em>H</em>-pyridin-2-one;6-Methyl-2<em>H</em>-pyridone;6-Hydroxy-2-picoline;6-Methyl-2(1<em>H</em>)-pyridinol",
    "duplicated_cas_no": "129146-51-6",
    "SMILES": "CC=1NC(=O)C=CC1",
    "meta_data": {
        "InChI": "InChI=1S/C6H7NO/c1-5-3-2-4-6(8)7-5/h2-4H,1H3,(H,7,8)",
        "InChIKey": null,
        "Canonical SMILES": "O=C1C=CC=C(N1)C",
        "Molecular Formula": "C<sub>6</sub>H<sub>7</sub>NO",
        "Molecular Mass": "109.13",
        "Boiling Point": "282 °C",
        "Melting Point": "158-159 °C"
    }
}