{
    "cas_no": "547-91-1",
    "key_name": "Ferron",
    "cn_name": "7-碘-8-羟基喹啉-5-磺酸;",
    "alternate_name": "5-Quinolinesulfonic acid, 8-hydroxy-7-iodo-;8-Hydroxy-7-iodo-5-quinolinesulfonic acid;Ferron;Loretin;Meditrene;Quiniophen;Yellon;7-Iodo-8-hydroxylquinoline-5-sulfonic acid;Ferron (analytical reagent);7-Iodo-5-sulfonic acid-8-hydroxyquinoline;7-Iodo-8-hydroxyquinoline-5-sulfonic acid;8-Hydroxy-7-iodoquinoline-5-sulfonic acid;7-Iodo-8-quinolinol-5-sulfonic acid;5-Sulfo-7-iodo-8-hydroxyquinoline;7-Iodooxine-5-sulfonic acid;5-Sulfo-7-iodo-8-quinolinol;NSC 3784",
    "duplicated_cas_no": "",
    "SMILES": "S(=O)(=O)(O)C=1C2=C(C(O)=C(I)C1)N=CC=C2",
    "meta_data": {
        "InChI": "InChI=1S/C9H6INO4S/c10-6-4-7(16(13,14)15)5-2-1-3-11-8(5)9(6)12/h1-4,12H,(H,13,14,15)",
        "InChIKey": null,
        "Canonical SMILES": "O=S(=O)(O)C=1C=C(I)C(O)=C2N=CC=CC21",
        "Molecular Formula": "C<sub>9</sub>H<sub>6</sub>INO<sub>4</sub>S",
        "Molecular Mass": "351.12",
        "Melting Point": "260 °C (decomp)"
    }
}