{
    "cas_no": "2168-13-0",
    "key_name": "2-[(Dimethylamino)methyl]-3-pyridinol",
    "cn_name": "2-(二甲基胺基甲基)-3-羟基吡啶;",
    "alternate_name": "3-Pyridinol, 2-[(dimethylamino)methyl]-;2-[(Dimethylamino)methyl]-3-pyridinol;2-Dimethylaminomethyl-3-hydroxypyridine;NSC 130957;NSC 72095;3-Hydroxy-2-(dimethylaminomethyl)pyridine",
    "duplicated_cas_no": "",
    "SMILES": "C(N(C)C)C1=C(O)C=CC=N1",
    "meta_data": {
        "InChI": "InChI=1S/C8H12N2O/c1-10(2)6-7-8(11)4-3-5-9-7/h3-5,11H,6H2,1-2H3",
        "InChIKey": null,
        "Canonical SMILES": "OC1=CC=CN=C1CN(C)C",
        "Molecular Formula": "C<sub>8</sub>H<sub>12</sub>N<sub>2</sub>O",
        "Molecular Mass": "152.19",
        "Boiling Point": "86-96 °C @ Press: 3.7 Torr",
        "Melting Point": "56-59 °C"
    }
}