{
    "cas_no": "26159-34-2",
    "key_name": "Naproxen sodium",
    "cn_name": null,
    "alternate_name": "2-Naphthaleneacetic acid, 6-methoxy-α-methyl-, sodium salt (1:1), (α<em>S</em>)-;2-Naphthaleneacetic acid, 6-methoxy-α-methyl-, sodium salt, <span class=\"text-smallcaps\">L</span>-(-)-;2-Naphthaleneacetic acid, 6-methoxy-α-methyl-, sodium salt, (<em>S</em>)-;2-Naphthaleneacetic acid, 6-methoxy-α-methyl-, sodium salt, (α<em>S</em>)-;Naproxen sodium;Sodium naproxen;Naprosyn sodium;Sodium naprosyn;Sodium (+)-6-methoxy-2-naphthalenepropionate;Sodium <em>d</em>-2-(6-methoxy-2-naphthyl)propionate;Apranax;Aleve;Xenobid;Anaprox;Anaprox DS;Naprelan;Flanax Forte;Naprogesic;Apraxin;Uniflam;Lefaine;Sutolin;Duk-F;Agilxen;Synflex;Apronax;Licorax;Flanax;Anax;Dafloxen;Narocin;Gynestrel;Axer;Miranax;RS 3560;Primeral;(2<em>S</em>)-2-(6-Methoxy-2-naphthyl)propanoic acid sodium salt;Aflaxen;Synflex Forte;Sunprox;(+)-(<em>S</em>)-Naproxen sodium salt",
    "duplicated_cas_no": "",
    "SMILES": "[C@H](C(O)=O)(C)C1=CC2=C(C=C(OC)C=C2)C=C1.[Na]",
    "meta_data": {
        "InChI": "InChI=1S/C14H14O3.Na/c1-9(14(15)16)10-3-4-12-8-13(17-2)6-5-11(12)7-10;/h3-9H,1-2H3,(H,15,16);/t9-;/m0./s1",
        "InChIKey": null,
        "Canonical SMILES": "[Na].O=C(O)C(C1=CC=C2C=C(OC)C=CC2=C1)C",
        "Molecular Formula": "C<sub>14</sub>H<sub>14</sub>O<sub>3</sub>.Na",
        "Molecular Mass": "",
        "Melting Point": "244-246 °C",
        "Density": "1.2 g/cm³"
    }
}