{
    "cas_no": "24393-53-1",
    "key_name": "2-Propenoic acid, 3-(4-bromophenyl)-, ethyl ester, (2<em>E</em>)-",
    "cn_name": "反式-4-溴肉桂酸乙酯;",
    "alternate_name": "2-Propenoic acid, 3-(4-bromophenyl)-, ethyl ester, (2<em>E</em>)-;Cinnamic acid, <em>p</em>-bromo-, ethyl ester, (<em>E</em>)-;2-Propenoic acid, 3-(4-bromophenyl)-, ethyl ester, (<em>E</em>)-;<em>trans</em>-<em>p</em>-Bromocinnamic acid ethyl ester;Ethyl (<em>E</em>)-4-bromocinnamate;Ethyl <em>trans</em>-4-bromocinnamate;(<em>E</em>)-3-(4-Bromophenyl)acrylic acid ethyl ester;(<em>E</em>)-3-(4-Bromophenyl)-2-propenoic acid ethyl ester;Ethyl (2<em>E</em>)-3-(4-bromophenyl)-2-propenoate;(<em>E</em>)-Ethyl 3-(4-bromophenyl)acrylate;Ethyl (<em>E</em>)-3-(4-bromophenyl)-2-propenoate;(E)-Ethyl 3-(4-bromophenyl)acrylate;Ethyl (2E)-3-(4-bromophenyl)prop-2-enoate;Ethyl (E)-3-(4-Bromophenyl)acrylate",
    "duplicated_cas_no": "",
    "SMILES": "C(=C/C(OCC)=O)\\C1=CC=C(Br)C=C1",
    "meta_data": {
        "InChI": "InChI=1S/C11H11BrO2/c1-2-14-11(13)8-5-9-3-6-10(12)7-4-9/h3-8H,2H2,1H3/b8-5+",
        "InChIKey": null,
        "Canonical SMILES": "O=C(OCC)C=CC1=CC=C(Br)C=C1",
        "Molecular Formula": "C<sub>11</sub>H<sub>11</sub>BrO<sub>2</sub>",
        "Molecular Mass": "255.11",
        "Boiling Point": "158 °C @ Press: 1.5 Torr"
    }
}