{
    "cas_no": "229-87-8",
    "key_name": "Phenanthridine",
    "cn_name": "菲啶;菲啶;苯奈二引;啡啶;3,4-Benzoisoquinoline;5-azaphenanthrene;6-Phenanthridine;9-Azaphenanthrene;",
    "alternate_name": "Phenanthridine;Benzo[<em>c</em>]quinoline;3,4-Benzoquinoline;9-Azaphenanthrene;3,4-Benzoisoquinoline;5-Azaphenanthrene;NSC 338473;NSC 73482;NSC 93336",
    "duplicated_cas_no": "",
    "SMILES": "C12=C3C(=NC=C1C=CC=C2)C=CC=C3",
    "meta_data": {
        "InChI": "InChI=1S/C13H9N/c1-2-6-11-10(5-1)9-14-13-8-4-3-7-12(11)13/h1-9H",
        "InChIKey": null,
        "Canonical SMILES": "N1=CC2=CC=CC=C2C3=CC=CC=C13",
        "Molecular Formula": "C<sub>13</sub>H<sub>9</sub>N",
        "Molecular Mass": "179.22",
        "Boiling Point": "349 °C",
        "Melting Point": "107.4 °C"
    }
}