{
    "cas_no": "92-10-4",
    "key_name": "4-[(2-Chloroethyl)ethylamino]-2-methylbenzaldehyde",
    "cn_name": "4-(N-乙基-N-氯乙基)氨基-2-甲基苯甲醛;N-乙基-N-氯乙基-4-氨基-2-甲基苯甲醛;",
    "alternate_name": "Benzaldehyde, 4-[(2-chloroethyl)ethylamino]-2-methyl-;<em>o</em>-Tolualdehyde, 4-[(2-chloroethyl)ethylamino]-;4-[(2-Chloroethyl)ethylamino]-2-methylbenzaldehyde;4-[(2-Chloroethyl)ethylamino]-<em>o</em>-tolualdehyde",
    "duplicated_cas_no": "",
    "SMILES": "N(CCCl)(CC)C1=CC(C)=C(C=O)C=C1",
    "meta_data": {
        "InChI": "InChI=1S/C12H16ClNO/c1-3-14(7-6-13)12-5-4-11(9-15)10(2)8-12/h4-5,8-9H,3,6-7H2,1-2H3",
        "InChIKey": null,
        "Canonical SMILES": "O=CC1=CC=C(C=C1C)N(CC)CCCl",
        "Molecular Formula": "C<sub>12</sub>H<sub>16</sub>ClNO",
        "Molecular Mass": "225.71",
        "Melting Point": "51-51.5 °C"
    }
}