{
    "cas_no": "877399-52-5",
    "key_name": "Crizotinib",
    "cn_name": null,
    "alternate_name": "2-Pyridinamine, 3-[(1<em>R</em>)-1-(2,6-dichloro-3-fluorophenyl)ethoxy]-5-[1-(4-piperidinyl)-1<em>H</em>-pyrazol-4-yl]-;3-[(1<em>R</em>)-1-(2,6-Dichloro-3-fluorophenyl)ethoxy]-5-[1-(4-piperidinyl)-1<em>H</em>-pyrazol-4-yl]-2-pyridinamine;[3-[[(<em>R</em>)-1-(2,6-Dichloro-3-fluorophenyl)ethyl]oxy]-5-[1-(piperidin-4-yl)-1<em>H</em>-pyrazol-4-yl]pyridin-2-yl]amine;PF 2341066;PF 02341066;Crizotinib;(<em>R</em>)-3-[1-(2,6-Dichloro-3-fluorophenyl)ethoxy]-5-(1-piperidin-4-yl-1<em>H</em>-pyrazol-4-yl)pyridin-2-ylamine;Xalkori;3-((R)-1-(2,6-Dichloro-3-fluorophenyl)ethoxy)-5-(1-(piperidin-4-yl)-1<em>H</em>-pyrazol-4-yl)pyridin-2-amine;(<em>R</em>)-3-[1-(2,6-Dichloro-3-fluorophenyl)ethoxy]-5-[1-(piperidin-4-yl)-1<em>H</em>-pyrazol-4-yl]pyridin-2-amine",
    "duplicated_cas_no": "912279-98-2",
    "SMILES": "O([C@H](C)C1=C(Cl)C(F)=CC=C1Cl)C2=CC(C3=CN(N=C3)C4CCNCC4)=CN=C2N",
    "meta_data": {
        "InChI": "InChI=1S/C21H22Cl2FN5O/c1-12(19-16(22)2-3-17(24)20(19)23)30-18-8-13(9-27-21(18)25)14-10-28-29(11-14)15-4-6-26-7-5-15/h2-3,8-12,15,26H,4-7H2,1H3,(H2,25,27)/t12-/m1/s1",
        "InChIKey": null,
        "Canonical SMILES": "FC1=CC=C(Cl)C(=C1Cl)C(OC=2C=C(C=NC2N)C=3C=NN(C3)C4CCNCC4)C",
        "Molecular Formula": "C<sub>21</sub>H<sub>22</sub>Cl<sub>2</sub>FN<sub>5</sub>O",
        "Molecular Mass": "450.34",
        "Melting Point": "192 °C"
    }
}