{
    "cas_no": "2037-95-8",
    "key_name": "2<em>H</em>-1,3-Benzoxazine-2,4(3<em>H</em>)-dione",
    "cn_name": "2H-1,3-苯并噁嗪-2,4(3H)-二酮;卡沙仑;",
    "alternate_name": "2<em>H</em>-1,3-Benzoxazine-2,4(3<em>H</em>)-dione;Carsalam;4<em>H</em>-1,3-Benzoxazine-2,4(3<em>H</em>)-dione;3,4-Dihydro-1,3-benzoxazine-3,4-dione;3,4-Dihydro-1,3-benzoxazine-2,4-dione;1,3-Benzoxazine-2,4-dione;2,4-Dioxo-3,4-dihydro-2<em>H</em>-1,3-benzoxazine;Beaprine;Ruhmal;Oxophenhydroxazine;Carbonylsalicylamide;CSA;NSC 36166;2<em>H</em>-Benzo[<em>e</em>][1,3]oxazine-2,4(3<em>H</em>)-dione;3,4-Dihydro-2<em>H</em>-1,3-benzoxazine-2,4-dione;Benzo[<em>e</em>][1,3]oxazine-2,4-dione",
    "duplicated_cas_no": "",
    "SMILES": "O=C1C=2C(OC(=O)N1)=CC=CC2",
    "meta_data": {
        "InChI": "InChI=1S/C8H5NO3/c10-7-5-3-1-2-4-6(5)12-8(11)9-7/h1-4H,(H,9,10,11)",
        "InChIKey": null,
        "Canonical SMILES": "O=C1OC=2C=CC=CC2C(=O)N1",
        "Molecular Formula": "C<sub>8</sub>H<sub>5</sub>NO<sub>3</sub>",
        "Molecular Mass": "163.13",
        "Melting Point": "229-230 °C"
    }
}