{
    "cas_no": "15715-41-0",
    "key_name": "Diethyl methylphosphonite",
    "cn_name": "甲基二乙氧基膦;甲基亚膦酸二乙酯;",
    "alternate_name": "Phosphonous acid, <em>P</em>-methyl-, diethyl ester;Phosphonous acid, methyl-, diethyl ester;Diethyl methylphosphonite;Diethoxymethylphosphine;Diethyl methanephosphonite;<em>O</em>,<em>O</em>-Diethyl methylphosphonite;Methyldiethoxyphosphine;Diethoxy(methyl)phosphane",
    "duplicated_cas_no": "",
    "SMILES": "P(OCC)(OCC)C",
    "meta_data": {
        "InChI": "InChI=1S/C5H13O2P/c1-4-6-8(3)7-5-2/h4-5H2,1-3H3",
        "InChIKey": null,
        "Canonical SMILES": "O(P(OCC)C)CC",
        "Molecular Formula": "C<sub>5</sub>H<sub>13</sub>O<sub>2</sub>P",
        "Molecular Mass": "136.13",
        "Boiling Point": "47 °C @ Press: 50 Torr",
        "Density": "0.905 g/cm³ @ Temp: 20 °C"
    }
}