{
    "cas_no": "100-66-3",
    "key_name": "Anisole",
    "cn_name": "苯甲醚;茴香醚;甲氧基苯;",
    "alternate_name": "Benzene, methoxy-;Anisole;Methoxybenzene;Methyl phenyl ether;Phenyl methyl ether;Anisol;Phenoxymethane;NSC 7920;Hichemix MB",
    "duplicated_cas_no": "",
    "SMILES": "O(C)C1=CC=CC=C1",
    "meta_data": {
        "InChI": "InChI=1S/C7H8O/c1-8-7-5-3-2-4-6-7/h2-6H,1H3",
        "InChIKey": null,
        "Canonical SMILES": "O(C=1C=CC=CC1)C",
        "Molecular Formula": "C<sub>7</sub>H<sub>8</sub>O",
        "Molecular Mass": "108.14",
        "Boiling Point": "155.5 °C @ Press: 760 Torr",
        "Melting Point": "-37.3 °C",
        "Density": "0.9956 g/cm³ @ Temp: 18 °C"
    }
}