{
    "cas_no": "6874-60-8",
    "key_name": "Decylphosphonic acid",
    "cn_name": "1-癸基磷酸;1-癸基磷酸;正癸基磷酸;",
    "alternate_name": "Phosphonic acid, <em>P</em>-decyl-;Phosphonic acid, decyl-;<em>P</em>-Decylphosphonic acid;1-Decanephosphonic acid;Decanephosphonic acid;Decylphosphonic acid;<em>n</em>-Decylphosphonic acid;NSC 407850",
    "duplicated_cas_no": "",
    "SMILES": "C(CCCCCCCC)CP(=O)(O)O",
    "meta_data": {
        "InChI": "InChI=1S/C10H23O3P/c1-2-3-4-5-6-7-8-9-10-14(11,12)13/h2-10H2,1H3,(H2,11,12,13)",
        "InChIKey": null,
        "Canonical SMILES": "O=P(O)(O)CCCCCCCCCC",
        "Molecular Formula": "C<sub>10</sub>H<sub>23</sub>O<sub>3</sub>P",
        "Molecular Mass": "222.26",
        "Melting Point": "102-102.5 °C"
    }
}