{
    "cas_no": "150-50-5",
    "key_name": "Merphos",
    "cn_name": "脱叶亚磷;三硫代亚磷酸三丁酯;",
    "alternate_name": "Phosphorotrithious acid, tributyl ester;Butyl phosphorotrithioite;Folex;Merphos;Tributyl phosphorotrithioite;Butyl phosphorotrithioite ((BuS)<sub>3</sub>P);Tributyl trithiophosphite;Tris(butylthio)phosphine;NSC 27720",
    "duplicated_cas_no": "",
    "SMILES": "P(SCCCC)(SCCCC)SCCCC",
    "meta_data": {
        "InChI": "InChI=1S/C12H27PS3/c1-4-7-10-14-13(15-11-8-5-2)16-12-9-6-3/h4-12H2,1-3H3",
        "InChIKey": null,
        "Canonical SMILES": "S(P(SCCCC)SCCCC)CCCC",
        "Molecular Formula": "C<sub>12</sub>H<sub>27</sub>PS<sub>3</sub>",
        "Molecular Mass": "298.51",
        "Boiling Point": "115-134 °C @ Press: 0.08 Torr",
        "Melting Point": "100 °C",
        "Density": "0.99-1.01 g/cm³ @ Temp: 20 °C"
    }
}