{
    "cas_no": "7463-35-6",
    "key_name": "<em>N</em>-(3-Chloro-2-methylphenyl)acetamide",
    "cn_name": "3-氯-2-甲基乙酰苯胺;",
    "alternate_name": "Acetamide, <em>N</em>-(3-chloro-2-methylphenyl)-;<em>o</em>-Acetotoluidide, 3′-chloro-;<em>N</em>-(3-Chloro-2-methylphenyl)acetamide;3′-Chloro-2′-methylacetanilide;2-Methyl-3-chloroacetanilide;NSC 404347;<em>N</em>-Acetyl-3-chloro-2-methylaniline;3-Chloro-2-methyl-<em>N</em>-acetylaniline",
    "duplicated_cas_no": "",
    "SMILES": "N(C(C)=O)C1=C(C)C(Cl)=CC=C1",
    "meta_data": {
        "InChI": "InChI=1S/C9H10ClNO/c1-6-8(10)4-3-5-9(6)11-7(2)12/h3-5H,1-2H3,(H,11,12)",
        "InChIKey": null,
        "Canonical SMILES": "O=C(NC=1C=CC=C(Cl)C1C)C",
        "Molecular Formula": "C<sub>9</sub>H<sub>10</sub>ClNO",
        "Molecular Mass": "183.63",
        "Melting Point": "156 °C"
    }
}