{
    "cas_no": "610-16-2",
    "key_name": "2-(Dimethylamino)benzoic acid",
    "cn_name": "2-二甲基氨基苯甲酸;",
    "alternate_name": "Benzoic acid, 2-(dimethylamino)-;Anthranilic acid, <em>N</em>,<em>N</em>-dimethyl-;2-(Dimethylamino)benzoic acid;<em>N</em>,<em>N</em>-Dimethylanthranilic acid;<em>o</em>-Dimethylaminobenzoic acid;NSC 45790;2-(<em>N</em>,<em>N</em>-Dimethylamino)benzoic acid",
    "duplicated_cas_no": "223460-02-4",
    "SMILES": "C(O)(=O)C1=C(N(C)C)C=CC=C1",
    "meta_data": {
        "InChI": "InChI=1S/C9H11NO2/c1-10(2)8-6-4-3-5-7(8)9(11)12/h3-6H,1-2H3,(H,11,12)",
        "InChIKey": null,
        "Canonical SMILES": "O=C(O)C=1C=CC=CC1N(C)C",
        "Molecular Formula": "C<sub>9</sub>H<sub>11</sub>NO<sub>2</sub>",
        "Molecular Mass": "165.19",
        "Boiling Point": "126 °C @ Press: 1.3 Torr",
        "Melting Point": "72 °C",
        "Density": "0.9772 g/cm³ @ Temp: 17 °C"
    }
}