{
    "cas_no": "89284-39-9",
    "key_name": "4,5-Dichloro-3-pyridinamine",
    "cn_name": null,
    "alternate_name": "3-Pyridinamine, 4,5-dichloro-;Pyridine, 3-amino-4,5-dichloro-;4,5-Dichloro-3-pyridinamine;3-Amino-4,5-dichloropyridine",
    "duplicated_cas_no": "",
    "SMILES": "ClC=1C(Cl)=CN=CC1N",
    "meta_data": {
        "InChI": "InChI=1S/C5H4Cl2N2/c6-3-1-9-2-4(8)5(3)7/h1-2H,8H2",
        "InChIKey": null,
        "Canonical SMILES": "ClC1=CN=CC(N)=C1Cl",
        "Molecular Formula": "C<sub>5</sub>H<sub>4</sub>Cl<sub>2</sub>N<sub>2</sub>",
        "Molecular Mass": "163.00",
        "Melting Point": "108 °C"
    }
}