{
    "cas_no": "98645-43-3",
    "key_name": "2-Chloro-4-methoxy-3-pyridinecarbonitrile",
    "cn_name": "2-氯-4-甲氧基烟腈;",
    "alternate_name": "3-Pyridinecarbonitrile, 2-chloro-4-methoxy-;2-Chloro-4-methoxy-3-pyridinecarbonitrile;2-Chloro-3-cyano-4-methoxypyridine;2-Chloro-4-methoxynicotinonitrile",
    "duplicated_cas_no": "",
    "SMILES": "O(C)C=1C(C#N)=C(Cl)N=CC1",
    "meta_data": {
        "InChI": "InChI=1S/C7H5ClN2O/c1-11-6-2-3-10-7(8)5(6)4-9/h2-3H,1H3",
        "InChIKey": null,
        "Canonical SMILES": "N#CC=1C(Cl)=NC=CC1OC",
        "Molecular Formula": "C<sub>7</sub>H<sub>5</sub>ClN<sub>2</sub>O",
        "Molecular Mass": "168.58",
        "Melting Point": "175-176 °C"
    }
}