{
    "cas_no": "24134-26-7",
    "key_name": "2,9-Dihydro-3<em>H</em>-imidazo[1,2-<em>a</em>]benzimidazole",
    "cn_name": null,
    "alternate_name": "3<em>H</em>-Imidazo[1,2-<em>a</em>]benzimidazole, 2,9-dihydro-;1<em>H</em>-Imidazo[1,2-<em>a</em>]benzimidazole, 2,3-dihydro-;2,9-Dihydro-3<em>H</em>-imidazo[1,2-<em>a</em>]benzimidazole;2,8-Dihydro-3<em>H</em>-1,3a,8-triaza-cyclopenta[<em>a</em>]indene;2,3-Dihydro-1<em>H</em>-benzo[<em>d</em>]imidazo[1,2-<em>a</em>]imidazole;2,4-Dihydro-1<em>H</em>-imidazo[1,2-<em>a</em>]benzimidazole",
    "duplicated_cas_no": "",
    "SMILES": "N12C=3C(NC1=NCC2)=CC=CC3",
    "meta_data": {
        "InChI": "InChI=1S/C9H9N3/c1-2-4-8-7(3-1)11-9-10-5-6-12(8)9/h1-4H,5-6H2,(H,10,11)",
        "InChIKey": null,
        "Canonical SMILES": "N1=C2NC=3C=CC=CC3N2CC1",
        "Molecular Formula": "C<sub>9</sub>H<sub>9</sub>N<sub>3</sub>",
        "Molecular Mass": "159.19",
        "Melting Point": "198-200 °C"
    }
}