{
    "cas_no": "2017-68-7",
    "key_name": "2-Naphthaleneethanamine",
    "cn_name": null,
    "alternate_name": "2-Naphthaleneethanamine;2-Naphthaleneethylamine;β-(2-Naphthyl)ethylamine;2-(2-Naphthyl)ethylamine;2-(2-Aminoethyl)naphthalene;2-Naphthylethylamine;[2-(Naphthalen-2-yl)ethyl]amine;2-(Naphthalen-2-yl)ethan-1-amine;2-Naphthalen-2-ylethanamine",
    "duplicated_cas_no": "",
    "SMILES": "C(CN)C1=CC2=C(C=C1)C=CC=C2",
    "meta_data": {
        "InChI": "InChI=1S/C12H13N/c13-8-7-10-5-6-11-3-1-2-4-12(11)9-10/h1-6,9H,7-8,13H2",
        "InChIKey": null,
        "Canonical SMILES": "NCCC=1C=CC=2C=CC=CC2C1",
        "Molecular Formula": "C<sub>12</sub>H<sub>13</sub>N",
        "Molecular Mass": "171.24",
        "Boiling Point": "160-165 °C @ Press: 15 Torr"
    }
}