{
    "cas_no": "501-30-4",
    "key_name": "Kojic acid",
    "cn_name": "曲酸;5-羟基-2-羟甲基-4-吡喃酮;",
    "alternate_name": "4<em>H</em>-Pyran-4-one, 5-hydroxy-2-(hydroxymethyl)-;5-Hydroxy-2-(hydroxymethyl)-4<em>H</em>-pyran-4-one;Kojic acid;5-Hydroxy-2-hydroxymethyl-4-pyrone;2-(Hydroxymethyl)-5-hydroxy-4<em>H</em>-pyran-4-one;NSC 1942;5-Hydroxy-2-(hydroxymethyl)-4<em>H</em>-pyranone;5-Hydroxy-2-hydroxymethylpyran-4-one;5-Hydroxy-2-hydroxymethyl-1,4-pyrone",
    "duplicated_cas_no": "123712-78-7",
    "SMILES": "C(O)C1=CC(=O)C(O)=CO1",
    "meta_data": {
        "InChI": "InChI=1S/C6H6O4/c7-2-4-1-5(8)6(9)3-10-4/h1,3,7,9H,2H2",
        "InChIKey": null,
        "Canonical SMILES": "O=C1C=C(OC=C1O)CO",
        "Molecular Formula": "C<sub>6</sub>H<sub>6</sub>O<sub>4</sub>",
        "Molecular Mass": "142.11",
        "Melting Point": "153.5 °C"
    }
}