{
    "cas_no": "6211-16-1",
    "key_name": "<span class=\"text-smallcaps\">L</span>-Ornithine, hydrochloride (1:2)",
    "cn_name": "L-鸟氨酸二盐酸盐;",
    "alternate_name": "<span class=\"text-smallcaps\">L</span>-Ornithine, hydrochloride (1:2);Ornithine, dihydrochloride, <span class=\"text-smallcaps\">L</span>-;<span class=\"text-smallcaps\">L</span>-Ornithine, dihydrochloride;Ornithine dihydrochloride;(<em>S</em>)-2,5-Diaminopentanoic acid dihydrochloride",
    "duplicated_cas_no": "",
    "SMILES": "[C@@H](C(O)=O)(CCCN)N.Cl",
    "meta_data": {
        "InChI": "InChI=1S/C5H12N2O2.2ClH/c6-3-1-2-4(7)5(8)9;;/h4H,1-3,6-7H2,(H,8,9);2*1H/t4-;;/m0../s1",
        "InChIKey": null,
        "Canonical SMILES": "Cl.O=C(O)C(N)CCCN",
        "Molecular Formula": "C<sub>5</sub>H<sub>12</sub>N<sub>2</sub>O<sub>2</sub>.2ClH",
        "Molecular Mass": "",
        "Melting Point": "228-232 °C"
    }
}