{
    "cas_no": "20535-83-5",
    "key_name": "<em>O</em><sup>6</sup>-Methylguanine",
    "cn_name": "2-氨基-6-甲氧基嘌呤;6-甲氧基-2-氨基嘌呤;",
    "alternate_name": "9<em>H</em>-Purin-2-amine, 6-methoxy-;Purine, 2-amino-6-methoxy-;1<em>H</em>-Purin-2-amine, 6-methoxy-;6-Methoxy-9<em>H</em>-purin-2-amine;6-Methoxyguanine;<em>O</em><sup>6</sup>-Methylguanine;2-Amino-6-methoxypurine;NSC 37364;6-<em>O</em>-Methylguanine",
    "duplicated_cas_no": "",
    "SMILES": "O(C)C1=C2C(=NC(N)=N1)N=CN2",
    "meta_data": {
        "InChI": "InChI=1S/C6H7N5O/c1-12-5-3-4(9-2-8-3)10-6(7)11-5/h2H,1H3,(H3,7,8,9,10,11)",
        "InChIKey": null,
        "Canonical SMILES": "N1=CNC2=C1N=C(N=C2OC)N",
        "Molecular Formula": "C<sub>6</sub>H<sub>7</sub>N<sub>5</sub>O",
        "Molecular Mass": "165.15",
        "Melting Point": "245-248 °C (decomp)"
    }
}