{
    "cas_no": "2134-29-4",
    "key_name": "Reuterin",
    "cn_name": null,
    "alternate_name": "Propanal, 3-hydroxy-;Hydracrylaldehyde;3-Hydroxypropanal;Hydracrolein;3-Hydroxypropionaldehyde;β-Hydroxypropanal;β-Hydroxypropionaldehyde;Reuterin;3-Oxo-1-propanol",
    "duplicated_cas_no": "118606-97-6",
    "SMILES": "C(CO)C=O",
    "meta_data": {
        "InChI": "InChI=1S/C3H6O2/c4-2-1-3-5/h2,5H,1,3H2",
        "InChIKey": null,
        "Canonical SMILES": "O=CCCO",
        "Molecular Formula": "C<sub>3</sub>H<sub>6</sub>O<sub>2</sub>",
        "Molecular Mass": "74.08",
        "Boiling Point": "90 °C @ Press: 18 Torr"
    }
}