{
    "cas_no": "494-08-6",
    "key_name": "Glucovanillin",
    "cn_name": "4-(BETA-D-葡萄糖基)-3-甲氧基苯甲醛;",
    "alternate_name": "Benzaldehyde, 4-(β-<span class=\"text-smallcaps\">D</span>-glucopyranosyloxy)-3-methoxy-;Avenein;4-(β-<span class=\"text-smallcaps\">D</span>-Glucopyranosyloxy)-3-methoxybenzaldehyde;Glucovanillin;Vanillin β-<span class=\"text-smallcaps\">D</span>-glucopyranoside;Vanilloside;Vanillin glucoside;Vanillin-4-<em>O</em>-β-<span class=\"text-smallcaps\">D</span>-glucopyranoside;Vanillin-<em>O</em>-β-<span class=\"text-smallcaps\">D</span>-glucopyranoside",
    "duplicated_cas_no": "6049-95-2;857657-29-5",
    "SMILES": "O(C1=C(OC)C=C(C=O)C=C1)[C@@H]2O[C@H](CO)[C@@H](O)[C@H](O)[C@H]2O",
    "meta_data": {
        "InChI": "InChI=1S/C14H18O8/c1-20-9-4-7(5-15)2-3-8(9)21-14-13(19)12(18)11(17)10(6-16)22-14/h2-5,10-14,16-19H,6H2,1H3/t10-,11-,12+,13-,14-/m1/s1",
        "InChIKey": null,
        "Canonical SMILES": "O=CC1=CC=C(OC2OC(CO)C(O)C(O)C2O)C(OC)=C1",
        "Molecular Formula": "C<sub>14</sub>H<sub>18</sub>O<sub>8</sub>",
        "Molecular Mass": "314.29",
        "Melting Point": "189 °C"
    }
}