{
    "cas_no": "1700-30-7",
    "key_name": "3-(Phenylmethoxy)benzenemethanol",
    "cn_name": "3-苄氧基苯甲醇;",
    "alternate_name": "Benzenemethanol, 3-(phenylmethoxy)-;Benzyl alcohol, <em>m</em>-(benzyloxy)-;3-(Phenylmethoxy)benzenemethanol;3-(Benzyloxy)benzyl alcohol;3-Benzyloxybenzylic alcohol;(3-Benzyloxyphenyl)methanol;(3-Phenylmethoxyphenyl)methanol",
    "duplicated_cas_no": "",
    "SMILES": "O(CC1=CC=CC=C1)C2=CC(CO)=CC=C2",
    "meta_data": {
        "InChI": "InChI=1S/C14H14O2/c15-10-13-7-4-8-14(9-13)16-11-12-5-2-1-3-6-12/h1-9,15H,10-11H2",
        "InChIKey": null,
        "Canonical SMILES": "OCC=1C=CC=C(OCC=2C=CC=CC2)C1",
        "Molecular Formula": "C<sub>14</sub>H<sub>14</sub>O<sub>2</sub>",
        "Molecular Mass": "214.26",
        "Melting Point": "49 °C"
    }
}