{
    "cas_no": "17281-59-3",
    "key_name": "Pyridinium, 1-(cyanomethyl)-, chloride (1:1)",
    "cn_name": "N-(氰甲基)氯化吡啶;",
    "alternate_name": "Pyridinium, 1-(cyanomethyl)-, chloride (1:1);Pyridinium, 1-(cyanomethyl)-, chloride;1-(Cyanomethyl)pyridinium chloride;Cyanomethylpyridinium chloride;1-(Cyanomethyl)pyridin-1-ium chloride;<em>N</em>-(Cyanomethyl)pyridinium chloride",
    "duplicated_cas_no": "",
    "SMILES": "C(C#N)[N+]=1C=CC=CC1.[Cl-]",
    "meta_data": {
        "InChI": "InChI=1S/C7H7N2.ClH/c8-4-7-9-5-2-1-3-6-9;/h1-3,5-6H,7H2;1H/q+1;/p-1",
        "InChIKey": null,
        "Canonical SMILES": "[Cl-].N#CC[N+]=1C=CC=CC1",
        "Molecular Formula": "C<sub>7</sub>H<sub>7</sub>N<sub>2</sub>.Cl",
        "Molecular Mass": "",
        "Melting Point": "178 °C"
    }
}