{
    "cas_no": "27492-84-8",
    "key_name": "Methyl 4-amino-2-methoxybenzoate",
    "cn_name": "2-甲氧基-4-氨基苯甲酸甲酯;",
    "alternate_name": "Benzoic acid, 4-amino-2-methoxy-, methyl ester;<em>o</em>-Anisic acid, 4-amino-, methyl ester;Methyl 4-amino-2-methoxybenzoate;4-Amino-2-methoxybenzoic acid methyl ester;Methyl <em>p</em>-amino-<em>o</em>-methoxybenzoate;2-Methoxy-4-aminobenzoic acid methyl ester;3-Methoxy-4-(methoxycarbonyl)aniline;Methyl 2-methoxy-4-aminobenzoate;AMG 2520765",
    "duplicated_cas_no": "",
    "SMILES": "C(OC)(=O)C1=C(OC)C=C(N)C=C1",
    "meta_data": {
        "InChI": "InChI=1S/C9H11NO3/c1-12-8-5-6(10)3-4-7(8)9(11)13-2/h3-5H,10H2,1-2H3",
        "InChIKey": null,
        "Canonical SMILES": "O=C(OC)C1=CC=C(N)C=C1OC",
        "Molecular Formula": "C<sub>9</sub>H<sub>11</sub>NO<sub>3</sub>",
        "Molecular Mass": "181.19",
        "Melting Point": "159 °C"
    }
}