{
    "cas_no": "611-15-4",
    "key_name": "2-Methylstyrene",
    "cn_name": null,
    "alternate_name": "Benzene, 1-ethenyl-2-methyl-;Styrene, <em>o</em>-methyl-;1-Ethenyl-2-methylbenzene;2-Methylstyrene;<em>o</em>-Vinyltoluene;<em>o</em>-Methylstyrene;1-Methyl-2-vinylbenzene;2-Vinyltoluene;2-Ethenylmethylbenzene;(2-Methylphenyl)ethene;(2-Tolyl)ethene;1-(2-Methylphenyl)-1-ethene;2-Methyl-1-ethenylbenzene",
    "duplicated_cas_no": "",
    "SMILES": "C(=C)C1=C(C)C=CC=C1",
    "meta_data": {
        "InChI": "InChI=1S/C9H10/c1-3-9-7-5-4-6-8(9)2/h3-7H,1H2,2H3",
        "InChIKey": null,
        "Canonical SMILES": "C=CC=1C=CC=CC1C",
        "Molecular Formula": "C<sub>9</sub>H<sub>10</sub>",
        "Molecular Mass": "118.18",
        "Boiling Point": "170 °C",
        "Melting Point": "-69 °C",
        "Density": "0.91 g/cm³"
    }
}