{
    "cas_no": "873924-08-4",
    "key_name": "1,1-Dimethylethyl 9-oxo-3-azaspiro[5.5]undecane-3-carboxylate",
    "cn_name": null,
    "alternate_name": "3-Azaspiro[5.5]undecane-3-carboxylic acid, 9-oxo-, 1,1-dimethylethyl ester;1,1-Dimethylethyl 9-oxo-3-azaspiro[5.5]undecane-3-carboxylate;<em>tert</em>-Butyl 9-oxo-3-azaspiro[5.5]undecan-3-carboxylate;9-Oxo-3-azaspiro[5.5]undecane-3-carboxylic acid tert-butyl ester;<em>tert</em>-Butyl 9-oxo-3-azaspiro[5.5]undecane-3-carboxylate;1,1-Di(methyl)ethyl 9-oxidanylidene-3-azaspiro[5.5]undecan-3-carboxylate",
    "duplicated_cas_no": "",
    "SMILES": "C(OC(C)(C)C)(=O)N1CCC2(CC1)CCC(=O)CC2",
    "meta_data": {
        "InChI": "InChI=1S/C15H25NO3/c1-14(2,3)19-13(18)16-10-8-15(9-11-16)6-4-12(17)5-7-15/h4-11H2,1-3H3",
        "InChIKey": null,
        "Canonical SMILES": "O=C(OC(C)(C)C)N1CCC2(CCC(=O)CC2)CC1",
        "Molecular Formula": "C<sub>15</sub>H<sub>25</sub>NO<sub>3</sub>",
        "Molecular Mass": "267.36",
        "Boiling Point": "120 °C @ Press: 0.02 Torr",
        "Melting Point": "70-73 °C"
    }
}