{
    "cas_no": "270596-37-7",
    "key_name": "(β<em>S</em>)-2-Chloro-β-[[(9<em>H</em>-fluoren-9-ylmethoxy)carbonyl]amino]benzenebutanoic acid",
    "cn_name": null,
    "alternate_name": "Benzenebutanoic acid, 2-chloro-β-[[(9<em>H</em>-fluoren-9-ylmethoxy)carbonyl]amino]-, (β<em>S</em>)-;(β<em>S</em>)-2-Chloro-β-[[(9<em>H</em>-fluoren-9-ylmethoxy)carbonyl]amino]benzenebutanoic acid",
    "duplicated_cas_no": "",
    "SMILES": "C(OC(N[C@@H](CC1=C(Cl)C=CC=C1)CC(O)=O)=O)C2C=3C(C=4C2=CC=CC4)=CC=CC3",
    "meta_data": {
        "InChI": "InChI=1S/C25H22ClNO4/c26-23-12-6-1-7-16(23)13-17(14-24(28)29)27-25(30)31-15-22-20-10-4-2-8-18(20)19-9-3-5-11-21(19)22/h1-12,17,22H,13-15H2,(H,27,30)(H,28,29)/t17-/m0/s1",
        "InChIKey": null,
        "Canonical SMILES": "O=C(OCC1C=2C=CC=CC2C=3C=CC=CC31)NC(CC(=O)O)CC=4C=CC=CC4Cl",
        "Molecular Formula": "C<sub>25</sub>H<sub>22</sub>ClNO<sub>4</sub>",
        "Molecular Mass": "435.90",
        "Melting Point": "142-143 °C"
    }
}