{
    "cas_no": "102-85-2",
    "key_name": "Tributyl phosphite",
    "cn_name": "亚磷酸三丁酯;",
    "alternate_name": "Phosphorous acid, tributyl ester;1-Butanol, 1,1′,1′′-phosphinidynetri-;Butyl phosphite, (BuO)<sub>3</sub>P;Tributyl phosphite;Tributoxyphosphine;Tri-<em>n</em>-butyl phosphite;JP 304;Phosphorus tributoxide (P(OBu)<sub>3</sub>);NSC 2675",
    "duplicated_cas_no": "",
    "SMILES": "P(OCCCC)(OCCCC)OCCCC",
    "meta_data": {
        "InChI": "InChI=1S/C12H27O3P/c1-4-7-10-13-16(14-11-8-5-2)15-12-9-6-3/h4-12H2,1-3H3",
        "InChIKey": null,
        "Canonical SMILES": "O(P(OCCCC)OCCCC)CCCC",
        "Molecular Formula": "C<sub>12</sub>H<sub>27</sub>O<sub>3</sub>P",
        "Molecular Mass": "250.31",
        "Boiling Point": "122-123 °C @ Press: 12 Torr",
        "Density": "0.92530 g/cm³ @ Temp: 20 °C"
    }
}