{
    "cas_no": "30273-39-3",
    "key_name": "4-Chloro-2-ethylbenzenamine",
    "cn_name": null,
    "alternate_name": "Benzenamine, 4-chloro-2-ethyl-;Aniline, 4-chloro-2-ethyl-;4-Chloro-2-ethylbenzenamine;2-Ethyl-4-chloroaniline;4-Chloro-2-ethylaniline;(4-Chloro-2-ethylphenyl)amine",
    "duplicated_cas_no": "",
    "SMILES": "C(C)C1=C(N)C=CC(Cl)=C1",
    "meta_data": {
        "InChI": "InChI=1S/C8H10ClN/c1-2-6-5-7(9)3-4-8(6)10/h3-5H,2,10H2,1H3",
        "InChIKey": null,
        "Canonical SMILES": "ClC1=CC=C(N)C(=C1)CC",
        "Molecular Formula": "C<sub>8</sub>H<sub>10</sub>ClN",
        "Molecular Mass": "155.62",
        "Boiling Point": "113-114 °C @ Press: 6 Torr"
    }
}