{
    "cas_no": "29882-07-3",
    "key_name": "4-Chloro-1,1-dimethoxybutane",
    "cn_name": "4-氯丁醛缩二甲醇;",
    "alternate_name": "Butane, 4-chloro-1,1-dimethoxy-;Butyraldehyde, 4-chloro-, dimethyl acetal;4-Chloro-1,1-dimethoxybutane;4-Chlorobutyraldehyde dimethyl acetal;4,4-Dimethoxybutyl chloride;1-Chloro-4,4-dimethoxybutane;4-Chlorobutanal dimethyl acetal",
    "duplicated_cas_no": "",
    "SMILES": "C(CCCCl)(OC)OC",
    "meta_data": {
        "InChI": "InChI=1S/C6H13ClO2/c1-8-6(9-2)4-3-5-7/h6H,3-5H2,1-2H3",
        "InChIKey": null,
        "Canonical SMILES": "ClCCCC(OC)OC",
        "Molecular Formula": "C<sub>6</sub>H<sub>13</sub>ClO<sub>2</sub>",
        "Molecular Mass": "152.62",
        "Boiling Point": "88-91 °C @ Press: 8 Torr",
        "Density": "1.14458 g/cm³ @ Temp: 20 °C"
    }
}