{
    "cas_no": "118684-32-5",
    "key_name": "1,1-Dimethylethyl <em>N</em>-[3-(bromomethyl)phenyl]carbamate",
    "cn_name": null,
    "alternate_name": "Carbamic acid, <em>N</em>-[3-(bromomethyl)phenyl]-, 1,1-dimethylethyl ester;Carbamic acid, [3-(bromomethyl)phenyl]-, 1,1-dimethylethyl ester;1,1-Dimethylethyl <em>N</em>-[3-(bromomethyl)phenyl]carbamate;<em>m</em>-(<em>tert</em>-Butoxycarbonylamino)benzyl bromide;3-[(<em>tert</em>-Butoxycarbonyl)amino]benzyl bromide;(3-Bromomethylphenyl)carbamic acid tert-butyl ester;<em>tert</em>-Butyl 3-(bromomethyl)phenylcarbamate",
    "duplicated_cas_no": "",
    "SMILES": "N(C(OC(C)(C)C)=O)C1=CC(CBr)=CC=C1",
    "meta_data": {
        "InChI": "InChI=1S/C12H16BrNO2/c1-12(2,3)16-11(15)14-10-6-4-5-9(7-10)8-13/h4-7H,8H2,1-3H3,(H,14,15)",
        "InChIKey": null,
        "Canonical SMILES": "O=C(OC(C)(C)C)NC1=CC=CC(=C1)CBr",
        "Molecular Formula": "C<sub>12</sub>H<sub>16</sub>BrNO<sub>2</sub>",
        "Molecular Mass": "286.16",
        "Melting Point": "122 °C"
    }
}