{
    "cas_no": "68282-49-5",
    "key_name": "2-Butyl-1<em>H</em>-imidazole-5-carboxaldehyde",
    "cn_name": null,
    "alternate_name": "1<em>H</em>-Imidazole-5-carboxaldehyde, 2-butyl-;1<em>H</em>-Imidazole-4-carboxaldehyde, 2-butyl-;2-Butyl-1<em>H</em>-imidazole-5-carboxaldehyde;2-<em>n</em>-Butyl-4-imidazolecarboxaldehyde;2-Butyl-5-formylimidazole;2-<em>n</em>-Butyl-5-imidazolecarboxaldehyde;2-<em>n</em>-Butyl-4-formylimidazole;2-Butyl-1<em>H</em>-imidazole-4-carboxaldehyde;2-Butyl-4-formylimidazole;2-Butyl-3<em>H</em>-imidazole-4-carboxaldehyde;2-Butyl-1<em>H</em>-imidazole-4-carbaldehyde;2-Butyl-1<em>H</em>-imidazole-5-carbaldehyde",
    "duplicated_cas_no": "",
    "SMILES": "C(CCC)C=1NC(C=O)=CN1",
    "meta_data": {
        "InChI": "InChI=1S/C8H12N2O/c1-2-3-4-8-9-5-7(6-11)10-8/h5-6H,2-4H2,1H3,(H,9,10)",
        "InChIKey": null,
        "Canonical SMILES": "O=CC1=CN=C(N1)CCCC",
        "Molecular Formula": "C<sub>8</sub>H<sub>12</sub>N<sub>2</sub>O",
        "Molecular Mass": "152.19",
        "Melting Point": "118-119 °C"
    }
}