{
    "cas_no": "14394-60-6",
    "key_name": "2-Chloro-6-methyl-4-pyrimidinamine",
    "cn_name": "2-氯-4-氨基-6-甲基嘧啶;",
    "alternate_name": "4-Pyrimidinamine, 2-chloro-6-methyl-;Pyrimidine, 4-amino-2-chloro-6-methyl-;2-Chloro-6-methyl-4-pyrimidinamine;2-Chloro-4-amino-6-methylpyrimidine;4-Amino-2-chloro-6-methylpyrimidine;NSC 222758;2-Chloro-6-methylpyrimidin-4-ylamine;2-Chloro-6-methylpyrimidin-4-amine",
    "duplicated_cas_no": "",
    "SMILES": "CC=1C=C(N)N=C(Cl)N1",
    "meta_data": {
        "InChI": "InChI=1S/C5H6ClN3/c1-3-2-4(7)9-5(6)8-3/h2H,1H3,(H2,7,8,9)",
        "InChIKey": null,
        "Canonical SMILES": "ClC=1N=C(N)C=C(N1)C",
        "Molecular Formula": "C<sub>5</sub>H<sub>6</sub>ClN<sub>3</sub>",
        "Molecular Mass": "143.57",
        "Melting Point": "215 °C"
    }
}