{
    "cas_no": "1443-80-7",
    "key_name": "4-Acetylbenzonitrile",
    "cn_name": "4-乙酰基苯甲腈;",
    "alternate_name": "Benzonitrile, 4-acetyl-;Benzonitrile, <em>p</em>-acetyl-;4-Acetylbenzonitrile;<em>p</em>-Cyanoacetophenone;4-Cyanoacetophenone;4′-Cyanoacetophenone;4-Cyanophenyl methyl ketone;<em>p</em>-Acetylbenzonitrile;Methyl <em>p</em>-cyanophenyl ketone;<em>p</em>-Cyanophenyl methyl ketone;1-(4-Cyanophenyl)ethanone;1-Acetyl-4-benzonitrile;Methyl 4-cyanophenyl ketone",
    "duplicated_cas_no": "",
    "SMILES": "C(C)(=O)C1=CC=C(C#N)C=C1",
    "meta_data": {
        "InChI": "InChI=1S/C9H7NO/c1-7(11)9-4-2-8(6-10)3-5-9/h2-5H,1H3",
        "InChIKey": null,
        "Canonical SMILES": "N#CC1=CC=C(C=C1)C(=O)C",
        "Molecular Formula": "C<sub>9</sub>H<sub>7</sub>NO",
        "Molecular Mass": "145.16",
        "Boiling Point": "117 °C @ Press: 4 Torr",
        "Melting Point": "57-58 °C"
    }
}