{
    "cas_no": "522-17-8",
    "key_name": "Deguelin",
    "cn_name": "魚藤素;",
    "alternate_name": "3<em>H</em>-Bis[1]benzopyrano[3,4-<em>b</em>:6′,5′-<em>e</em>]pyran-7(7a<em>H</em>)-one, 13,13a-dihydro-9,10-dimethoxy-3,3-dimethyl-, (7a<em>S</em>,13a<em>S</em>)-;Deguelin;3<em>H</em>-Bis[1]benzopyrano[3,4-<em>b</em>:6′,5′-<em>e</em>]pyran-7(7a<em>H</em>)-one, 13,13a-dihydro-9,10-dimethoxy-3,3-dimethyl-;3<em>H</em>-Bis[1]benzopyrano[3,4-<em>b</em>:6′,5′-<em>e</em>]pyran-7(7a<em>H</em>)-one, 13,13a-dihydro-9,10-dimethoxy-3,3-dimethyl-, (7a<em>S</em>-<em>cis</em>)-;(7a<em>S</em>,13a<em>S</em>)-13,13a-Dihydro-9,10-dimethoxy-3,3-dimethyl-3<em>H</em>-bis[1]benzopyrano[3,4-<em>b</em>:6′,5′-<em>e</em>]pyran-7(7a<em>H</em>)-one;(-)-<em>cis</em>-Deguelin;(-)-Deguelin",
    "duplicated_cas_no": "22030-11-1",
    "SMILES": "O=C1C=2C(=C3C(=CC2)OC(C)(C)C=C3)O[C@]4([C@@]1(C=5C(OC4)=CC(OC)=C(OC)C5)[H])[H]",
    "meta_data": {
        "InChI": "InChI=1S/C23H22O6/c1-23(2)8-7-12-15(29-23)6-5-13-21(24)20-14-9-17(25-3)18(26-4)10-16(14)27-11-19(20)28-22(12)13/h5-10,19-20H,11H2,1-4H3/t19-,20+/m1/s1",
        "InChIKey": null,
        "Canonical SMILES": "O=C1C2=CC=C3OC(C=CC3=C2OC4COC5=CC(OC)=C(OC)C=C5C14)(C)C",
        "Molecular Formula": "C<sub>23</sub>H<sub>22</sub>O<sub>6</sub>",
        "Molecular Mass": "394.42",
        "Melting Point": "171 °C"
    }
}