{
    "cas_no": "123950-44-7",
    "key_name": "3,5-Difluoro-4-(trifluoromethyl)benzenamine",
    "cn_name": null,
    "alternate_name": "Benzenamine, 3,5-difluoro-4-(trifluoromethyl)-;3,5-Difluoro-4-(trifluoromethyl)benzenamine;2,6-Difluoro-4-aminobenzotrifluoride;3,5-Difluoro-4-trifluoromethylaniline;4-Amino-2,6-difluorobenzotrifluoride;3,5-Difluoro-4-trifluoromethyl-phenylamine",
    "duplicated_cas_no": "",
    "SMILES": "C(F)(F)(F)C1=C(F)C=C(N)C=C1F",
    "meta_data": {
        "InChI": "InChI=1S/C7H4F5N/c8-4-1-3(13)2-5(9)6(4)7(10,11)12/h1-2H,13H2",
        "InChIKey": null,
        "Canonical SMILES": "FC=1C=C(N)C=C(F)C1C(F)(F)F",
        "Molecular Formula": "C<sub>7</sub>H<sub>4</sub>F<sub>5</sub>N",
        "Molecular Mass": "197.11",
        "Melting Point": "62 °C"
    }
}