{
    "cas_no": "556-88-7",
    "key_name": "Nitroguanidine",
    "cn_name": null,
    "alternate_name": "Guanidine, <em>N</em>-nitro-;Guanidine, nitro-;<em>N</em>-Nitroguanidine;Nitroguanidine;α-Nitroguanidine;β-Nitroguanidine;Picrite (propellant);<em>N</em>′′-Nitroguanidine;1-Nitroguanidine;<em>N</em><sup>1</sup>-Nitroguanidine;Picrite;NQ;2-Nitroguanidine;NSC 41036;Lovex D 380",
    "duplicated_cas_no": "2245235-47-4",
    "SMILES": "N(C(=N)N)N(=O)=O",
    "meta_data": {
        "InChI": "InChI=1S/CH4N4O2/c2-1(3)4-5(6)7/h(H4,2,3,4)",
        "InChIKey": null,
        "Canonical SMILES": "O=N(=O)NC(=N)N",
        "Molecular Formula": "CH<sub>4</sub>N<sub>4</sub>O<sub>2</sub>",
        "Molecular Mass": "104.07",
        "Melting Point": "239 °C",
        "Density": "0.91 g/cm³"
    }
}