{
    "cas_no": "1358-75-4",
    "key_name": "(16<em>S</em>,19<em>Z</em>)-Sarpagan-17-ol",
    "cn_name": null,
    "alternate_name": "Sarpagan-17-ol, (16<em>S</em>,19<em>Z</em>)-;Koumidine;(16<em>S</em>,19<em>Z</em>)-Sarpagan-17-ol;(19<em>Z</em>)-16-Epinormacusine B;(16<em>S</em>,19<em>Z</em>)-Normacusine B;(-)-Koumidine",
    "duplicated_cas_no": "",
    "SMILES": "C(O)[C@@H]1[C@]2([N@@]3[C@](C4=C(C=5C(N4)=CC=CC5)C2)(C[C@]1(\\C(=C\\C)\\C3)[H])[H])[H]",
    "meta_data": {
        "InChI": "InChI=1S/C19H22N2O/c1-2-11-9-21-17-8-14-12-5-3-4-6-16(12)20-19(14)18(21)7-13(11)15(17)10-22/h2-6,13,15,17-18,20,22H,7-10H2,1H3/b11-2+/t13-,15-,17-,18-/m0/s1",
        "InChIKey": null,
        "Canonical SMILES": "OCC1C2C(=CC)CN3C(C=4NC=5C=CC=CC5C4CC31)C2",
        "Molecular Formula": "C<sub>19</sub>H<sub>22</sub>N<sub>2</sub>O",
        "Molecular Mass": "",
        "Melting Point": "202-204 °C"
    }
}