{
    "cas_no": "22990-77-8",
    "key_name": "2-Piperidinemethanamine",
    "cn_name": "2-氨甲基哌啶;",
    "alternate_name": "2-Piperidinemethanamine;Piperidine, 2-(aminomethyl)-;2-(Aminomethyl)piperidine;Piperidin-2-ylmethanamine;1-(Piperidin-2-yl)methanamine",
    "duplicated_cas_no": "",
    "SMILES": "C(N)C1CCCCN1",
    "meta_data": {
        "InChI": "InChI=1S/C6H14N2/c7-5-6-3-1-2-4-8-6/h6,8H,1-5,7H2",
        "InChIKey": null,
        "Canonical SMILES": "NCC1NCCCC1",
        "Molecular Formula": "C<sub>6</sub>H<sub>14</sub>N<sub>2</sub>",
        "Molecular Mass": "114.19",
        "Boiling Point": "80-81 °C @ Press: 18 Torr"
    }
}