{
    "cas_no": "537-47-3",
    "key_name": "4-Phenylsemicarbazide",
    "cn_name": "4-苯基氨基脲;苯氨基甲酰肼;4-苯胺脲;",
    "alternate_name": "Hydrazinecarboxamide, <em>N</em>-phenyl-;Semicarbazide, 4-phenyl-;<em>N</em>-Phenylhydrazinecarboxamide;Anilinoformylhydrazine;4-Phenylsemicarbazide;1-Amino-3-phenylurea;Hydrazinecarboxanilide;Phenylsemicarbazide;Anilinocarbonylhydrazine;Phenylaminocarbonylhydrazine;NSC 231527;<em>N</em>-Phenylsemicarbazide;3-Amino-1-phenylurea",
    "duplicated_cas_no": "",
    "SMILES": "N(C(NN)=O)C1=CC=CC=C1",
    "meta_data": {
        "InChI": "InChI=1S/C7H9N3O/c8-10-7(11)9-6-4-2-1-3-5-6/h1-5H,8H2,(H2,9,10,11)",
        "InChIKey": null,
        "Canonical SMILES": "O=C(NN)NC=1C=CC=CC1",
        "Molecular Formula": "C<sub>7</sub>H<sub>9</sub>N<sub>3</sub>O",
        "Molecular Mass": "151.17",
        "Melting Point": "128 °C"
    }
}