{
    "cas_no": "2216-12-8",
    "key_name": "2-Nitrodiphenyl ether",
    "cn_name": "2-硝基联苯基醚;",
    "alternate_name": "Benzene, 1-nitro-2-phenoxy-;Ether, <em>o</em>-nitrophenyl phenyl;1-Nitro-2-phenoxybenzene;Phenyl <em>o</em>-nitrophenyl ether;2-Nitrodiphenyl ether;<em>o</em>-Nitrophenyl phenyl ether;2-Nitrophenyl phenyl ether;2-Phenoxynitrobenzene;<em>o</em>-Nitrodiphenyl ether;NSC 5419;NSC 642583;2-Phenoxy-1-nitrobenzene",
    "duplicated_cas_no": "",
    "SMILES": "O(C1=C(N(=O)=O)C=CC=C1)C2=CC=CC=C2",
    "meta_data": {
        "InChI": "InChI=1S/C12H9NO3/c14-13(15)11-8-4-5-9-12(11)16-10-6-2-1-3-7-10/h1-9H",
        "InChIKey": null,
        "Canonical SMILES": "O=N(=O)C=1C=CC=CC1OC=2C=CC=CC2",
        "Molecular Formula": "C<sub>12</sub>H<sub>9</sub>NO<sub>3</sub>",
        "Molecular Mass": "215.20",
        "Boiling Point": "195-197 °C",
        "Melting Point": "&lt;-20 °C",
        "Density": "1.2539 g/cm³ @ Temp: 21.5 °C"
    }
}