{
    "cas_no": "171596-43-3",
    "key_name": "Methyl (1<em>S</em>,3<em>S</em>)-1-(1,3-benzodioxol-5-yl)-2,3,4,9-tetrahydro-1<em>H</em>-pyrido[3,4-<em>b</em>]indole-3-carboxylate",
    "cn_name": null,
    "alternate_name": "1<em>H</em>-Pyrido[3,4-<em>b</em>]indole-3-carboxylic acid, 1-(1,3-benzodioxol-5-yl)-2,3,4,9-tetrahydro-, methyl ester, (1<em>S</em>,3<em>S</em>)-;1<em>H</em>-Pyrido[3,4-<em>b</em>]indole-3-carboxylic acid, 1-(1,3-benzodioxol-5-yl)-2,3,4,9-tetrahydro-, methyl ester, (1<em>S</em>-<em>cis</em>)-;Methyl (1<em>S</em>,3<em>S</em>)-1-(1,3-benzodioxol-5-yl)-2,3,4,9-tetrahydro-1<em>H</em>-pyrido[3,4-<em>b</em>]indole-3-carboxylate;(1S,3S)-Methyl 1-(benzo[<em>d</em>][1,3]dioxol-5-yl)-2,3,4,9-tetrahydro-1<em>H</em>-pyrido[3,4-<em>b</em>]indole-3-carboxylate",
    "duplicated_cas_no": "",
    "SMILES": "C(OC)(=O)[C@@H]1CC2=C([C@@H](N1)C=3C=C4C(=CC3)OCO4)NC=5C2=CC=CC5",
    "meta_data": {
        "InChI": "InChI=1S/C20H18N2O4/c1-24-20(23)15-9-13-12-4-2-3-5-14(12)21-19(13)18(22-15)11-6-7-16-17(8-11)26-10-25-16/h2-8,15,18,21-22H,9-10H2,1H3/t15-,18-/m0/s1",
        "InChIKey": null,
        "Canonical SMILES": "O=C(OC)C1NC(C2=CC=C3OCOC3=C2)C=4NC=5C=CC=CC5C4C1",
        "Molecular Formula": "C<sub>20</sub>H<sub>18</sub>N<sub>2</sub>O<sub>4</sub>",
        "Molecular Mass": "350.37",
        "Melting Point": "187-189 °C"
    }
}