{
    "cas_no": "129-81-7",
    "key_name": "4-Iodoantipyrine",
    "cn_name": null,
    "alternate_name": "3<em>H</em>-Pyrazol-3-one, 1,2-dihydro-4-iodo-1,5-dimethyl-2-phenyl-;Antipyrine, 4-iodo-;1,2-Dihydro-4-iodo-1,5-dimethyl-2-phenyl-3<em>H</em>-pyrazol-3-one;Antipyrine iodide;Iodoantipyrine;4-Iodoantipyrine;Iodophenazone;Iodopyrine;4-Iodo-2,3-dimethyl-1-phenylpyrazolone;4-Iodo-2,3-dimethyl-1-phenylpyrazol-5-one;Arthripur;Jodantipyrin;Jodopyrin;Iodantipirin;Iodantipyrine",
    "duplicated_cas_no": "",
    "SMILES": "O=C1N(N(C)C(C)=C1I)C2=CC=CC=C2",
    "meta_data": {
        "InChI": "InChI=1S/C11H11IN2O/c1-8-10(12)11(15)14(13(8)2)9-6-4-3-5-7-9/h3-7H,1-2H3",
        "InChIKey": null,
        "Canonical SMILES": "O=C1C(I)=C(N(N1C=2C=CC=CC2)C)C",
        "Molecular Formula": "C<sub>11</sub>H<sub>11</sub>IN<sub>2</sub>O",
        "Molecular Mass": "314.12",
        "Melting Point": "160-161 °C"
    }
}