{
    "cas_no": "70-00-8",
    "key_name": "Trifluridine",
    "cn_name": "曲氟胸苷;曲氟胸甙;三氟胸苷;三氟胸腺嘧啶核苷;三氟甲基尿嘧啶去氧核苷;",
    "alternate_name": "Thymidine, α,α,α-trifluoro-;Uridine, 2′-deoxy-5-(trifluoromethyl)-;α,α,α-Trifluorothymidine;5-(Trifluoromethyl)-2′-deoxyuridine;Trifluorothymidine;2′-Deoxy-5-(trifluoromethyl)uridine;5-(Trifluoromethyl)deoxyuridine;Trifluridine;Viroptic;5-Trifluoromethyl-2′-deoxy-β-uridine;5-Trifluorothymidine;NSC 529182;NSC 75520;MeSH ID: D014271",
    "duplicated_cas_no": "",
    "SMILES": "O=C1N([C@@H]2O[C@H](CO)[C@@H](O)C2)C=C(C(F)(F)F)C(=O)N1",
    "meta_data": {
        "InChI": "InChI=1S/C10H11F3N2O5/c11-10(12,13)4-2-15(9(19)14-8(4)18)7-1-5(17)6(3-16)20-7/h2,5-7,16-17H,1,3H2,(H,14,18,19)/t5-,6+,7+/m0/s1",
        "InChIKey": null,
        "Canonical SMILES": "O=C1NC(=O)N(C=C1C(F)(F)F)C2OC(CO)C(O)C2",
        "Molecular Formula": "C<sub>10</sub>H<sub>11</sub>F<sub>3</sub>N<sub>2</sub>O<sub>5</sub>",
        "Molecular Mass": "296.20",
        "Melting Point": "186-189 °C"
    }
}