{
    "cas_no": "148553-50-8",
    "key_name": "Pregabalin",
    "cn_name": "普瑞巴林;(3S)-3-氨甲基-5-甲基己酸;",
    "alternate_name": "Hexanoic acid, 3-(aminomethyl)-5-methyl-, (3<em>S</em>)-;Hexanoic acid, 3-(aminomethyl)-5-methyl-, (<em>S</em>)-;(3<em>S</em>)-3-(Aminomethyl)-5-methylhexanoic acid;PD 144723;CI 1008;Pregabalin;Lyrica;(<em>S</em>)-Pregabalin;(<em>S</em>)-(+)-3-(Aminomethyl)-5-methylhexanoic acid;(2<em>S</em>)-3-(Aminomethyl)-5-methylhexanoic acid;Gabanext 75;Pregalin 75;Neugaba 75;Maxgalin 75;Mahagaba-75;(<em>S</em>)-3-(Aminomethyl)-5-methylhexanoic acid",
    "duplicated_cas_no": "",
    "SMILES": "[C@H](CC(C)C)(CC(O)=O)CN",
    "meta_data": {
        "InChI": "InChI=1S/C8H17NO2/c1-6(2)3-7(5-9)4-8(10)11/h6-7H,3-5,9H2,1-2H3,(H,10,11)/t7-/m0/s1",
        "InChIKey": null,
        "Canonical SMILES": "O=C(O)CC(CN)CC(C)C",
        "Molecular Formula": "C<sub>8</sub>H<sub>17</sub>NO<sub>2</sub>",
        "Molecular Mass": "159.23",
        "Melting Point": "195 °C (decomp)"
    }
}