{
    "cas_no": "14763-60-1",
    "key_name": "4-(Methylsulfonyl)phenol",
    "cn_name": "4-甲基磺酰苯酚;",
    "alternate_name": "Phenol, 4-(methylsulfonyl)-;Phenol, <em>p</em>-(methylsulfonyl)-;4-(Methylsulfonyl)phenol;4-Hydroxyphenyl methyl sulfone;<em>p</em>-(Methylsulfonyl)phenol;<em>p</em>-Hydroxyphenyl methyl sulfone;4-(Methanesulfonyl)phenol;<em>p</em>-(Methanesulfonyl)phenol",
    "duplicated_cas_no": "",
    "SMILES": "S(C)(=O)(=O)C1=CC=C(O)C=C1",
    "meta_data": {
        "InChI": "InChI=1S/C7H8O3S/c1-11(9,10)7-4-2-6(8)3-5-7/h2-5,8H,1H3",
        "InChIKey": null,
        "Canonical SMILES": "O=S(=O)(C1=CC=C(O)C=C1)C",
        "Molecular Formula": "C<sub>7</sub>H<sub>8</sub>O<sub>3</sub>S",
        "Molecular Mass": "172.20",
        "Melting Point": "93-94 °C"
    }
}