{
    "cas_no": "852-38-0",
    "key_name": "2-(4-Biphenylyl)-5-phenyl-1,3,4-oxadiazole",
    "cn_name": "2-(1,1\"-联苯-4-基)-5-苯基-1,3,4-恶二唑;2-(4-联苯基)-5-苯基恶二唑;",
    "alternate_name": "1,3,4-Oxadiazole, 2-[1,1′-biphenyl]-4-yl-5-phenyl-;1,3,4-Oxadiazole, 2-(4-biphenylyl)-5-phenyl-;2-[1,1′-Biphenyl]-4-yl-5-phenyl-1,3,4-oxadiazole;PBD;Phenyl-2-<em>p</em>-biphenylyl-5-oxadiazole-1,3,4;2-Phenyl-5-(4-biphenylyl)-1,3,4-oxadiazole;2-(4-Biphenyl)-5-phenyl-1,3,4-oxadiazole;2-<em>p</em>-Biphenylyl-5-phenyl-1,3,4-oxadiazole;2-(<em>p</em>-Biphenyl)-5-phenyl-1,3,4-oxadiazole;2-Phenyl-5-<em>p</em>-biphenylyl-1,3,4-oxadiazole;5-(4′-Biphenylyl)-2-phenyl-1,3,4-oxadiazole;2-Phenyl-5-(4′-biphenylyl)-1,3,4-oxadiazole;5-<em>p</em>-Biphenylyl-2-phenyl-1,3,4-oxadiazole;2-(4-Biphenylyl)-5-phenyl-1,3,4-oxadiazole;NSC 24858;2-Phenyl-5-(4-phenylphenyl)-1,3,4-oxadiazole",
    "duplicated_cas_no": "59597-86-3",
    "SMILES": "C=1(OC(=NN1)C2=CC=CC=C2)C3=CC=C(C=C3)C4=CC=CC=C4",
    "meta_data": {
        "InChI": "InChI=1S/C20H14N2O/c1-3-7-15(8-4-1)16-11-13-18(14-12-16)20-22-21-19(23-20)17-9-5-2-6-10-17/h1-14H",
        "InChIKey": null,
        "Canonical SMILES": "N=1N=C(OC1C=2C=CC=CC2)C=3C=CC(=CC3)C=4C=CC=CC4",
        "Molecular Formula": "C<sub>20</sub>H<sub>14</sub>N<sub>2</sub>O",
        "Molecular Mass": "298.34",
        "Melting Point": "166-167 °C"
    }
}