{
    "cas_no": "24209-38-9",
    "key_name": "(6<em>R</em>,7<em>R</em>)-7-Amino-3-[[(1-methyl-1<em>H</em>-tetrazol-5-yl)thio]methyl]-8-oxo-5-thia-1-azabicyclo[4.2.0]oct-2-ene-2-carboxylic acid",
    "cn_name": "7-氨基-3-(1-甲基-1H-四唑-5-硫代甲基)-8-氧代-5-硫杂-1-氮杂双环[4.2.0]辛-2-烯-2-羧酸;",
    "alternate_name": "5-Thia-1-azabicyclo[4.2.0]oct-2-ene-2-carboxylic acid, 7-amino-3-[[(1-methyl-1<em>H</em>-tetrazol-5-yl)thio]methyl]-8-oxo-, (6<em>R</em>,7<em>R</em>)-;5-Thia-1-azabicyclo[4.2.0]oct-2-ene-2-carboxylic acid, 7-amino-3-[[(1-methyl-1<em>H</em>-tetrazol-5-yl)thio]methyl]-8-oxo-;5-Thia-1-azabicyclo[4.2.0]oct-2-ene-2-carboxylic acid, 7-amino-3-[[(1-methyl-1<em>H</em>-tetrazol-5-yl)thio]methyl]-8-oxo-, (6<em>R</em>-<em>trans</em>)-;(6<em>R</em>,7<em>R</em>)-7-Amino-3-[[(1-methyl-1<em>H</em>-tetrazol-5-yl)thio]methyl]-8-oxo-5-thia-1-azabicyclo[4.2.0]oct-2-ene-2-carboxylic acid;7-Amino-3-(1-methyl-5-tetrazolylthio)methyl-3-cephem-4-carboxylic acid;3-(1-Methyltetrazol-5-ylthiomethyl)-7-amino-3-cephem-4-carboxylic acid;7-Amino-3-[[(1-methyl-1<em>H</em>-tetrazol-5-yl)thio]methyl]-3-cephem-4-carboxylic acid;7-AMTCA;7-TMCA",
    "duplicated_cas_no": "26973-83-1;1214229-56-7;1219421-58-5;1236262-95-5;1239855-78-7;1246369-97-0;1252821-07-0;1260684-38-5;1265962-90-0;1284224-25-4;1296311-80-2;1310992-89-2;1312355-74-0;1323280-68-7;1370048-20-6;1372009-39-6;1381759-39-2;1400368-62-8;1524717-15-4;1543295-59-5;1573117-96-0;1792215-08-7",
    "SMILES": "C(O)(=O)C=1N2[C@@]([C@H](N)C2=O)(SCC1CSC=3N(C)N=NN3)[H]",
    "meta_data": {
        "InChI": "InChI=1S/C10H12N6O3S2/c1-15-10(12-13-14-15)21-3-4-2-20-8-5(11)7(17)16(8)6(4)9(18)19/h5,8H,2-3,11H2,1H3,(H,18,19)/t5-,8-/m1/s1",
        "InChIKey": null,
        "Canonical SMILES": "O=C(O)C1=C(CSC2=NN=NN2C)CSC3N1C(=O)C3N",
        "Molecular Formula": "C<sub>10</sub>H<sub>12</sub>N<sub>6</sub>O<sub>3</sub>S<sub>2</sub>",
        "Molecular Mass": "328.37",
        "Melting Point": "224-226 °C"
    }
}