{
    "cas_no": "87546-18-7",
    "key_name": "Flumiclorac-pentyl",
    "cn_name": "利收;氟胺草酯;",
    "alternate_name": "Acetic acid, 2-[2-chloro-4-fluoro-5-(1,3,4,5,6,7-hexahydro-1,3-dioxo-2<em>H</em>-isoindol-2-yl)phenoxy]-, pentyl ester;Acetic acid, [2-chloro-4-fluoro-5-(1,3,4,5,6,7-hexahydro-1,3-dioxo-2<em>H</em>-isoindol-2-yl)phenoxy]-, pentyl ester;S 23031;Flumiclorac-pentyl;Sumiverde;Resource;V 23031;S 2303;Flumiclorac pentyl ester",
    "duplicated_cas_no": "",
    "SMILES": "O=C1N(C(=O)C2=C1CCCC2)C3=CC(OCC(OCCCCC)=O)=C(Cl)C=C3F",
    "meta_data": {
        "InChI": "InChI=1S/C21H23ClFNO5/c1-2-3-6-9-28-19(25)12-29-18-11-17(16(23)10-15(18)22)24-20(26)13-7-4-5-8-14(13)21(24)27/h10-11H,2-9,12H2,1H3",
        "InChIKey": null,
        "Canonical SMILES": "O=C(OCCCCC)COC1=CC(=C(F)C=C1Cl)N2C(=O)C3=C(C2=O)CCCC3",
        "Molecular Formula": "C<sub>21</sub>H<sub>23</sub>ClFNO<sub>5</sub>",
        "Molecular Mass": "423.86",
        "Melting Point": "89 °C"
    }
}