{
    "cas_no": "23159-07-1",
    "key_name": "1-Pyrrolidinepropanamine",
    "cn_name": "N-(3-氨基丙基)吡咯烷;1-(3-氨基丙基)吡咯烷;1-(3-氨丙基)吡咯烷;",
    "alternate_name": "1-Pyrrolidinepropanamine;Pyrrolidine, 1-(3-aminopropyl)-;1-(3-Aminopropyl)pyrrolidine;3-Pyrrolidinopropylamine;3-(1-Pyrrolidinyl)propylamine;<em>N</em>-(3-Aminopropyl)pyrrolidine;NSC 345670;3-Pyrrolidin-1-ylpropan-1-amine;3-Pyrrolidinopropanamine",
    "duplicated_cas_no": "",
    "SMILES": "C(CCN)N1CCCC1",
    "meta_data": {
        "InChI": "InChI=1S/C7H16N2/c8-4-3-7-9-5-1-2-6-9/h1-8H2",
        "InChIKey": null,
        "Canonical SMILES": "NCCCN1CCCC1",
        "Molecular Formula": "C<sub>7</sub>H<sub>16</sub>N<sub>2</sub>",
        "Molecular Mass": "128.22",
        "Boiling Point": "85-87 °C @ Press: 26 Torr",
        "Melting Point": "215-217 °C"
    }
}