{
    "cas_no": "4377-43-9",
    "key_name": "2-(Chloromethyl)-3-methylpyridine",
    "cn_name": null,
    "alternate_name": "Pyridine, 2-(chloromethyl)-3-methyl-;2-(Chloromethyl)-3-methylpyridine",
    "duplicated_cas_no": "",
    "SMILES": "C(Cl)C1=C(C)C=CC=N1",
    "meta_data": {
        "InChI": "InChI=1S/C7H8ClN/c1-6-3-2-4-9-7(6)5-8/h2-4H,5H2,1H3",
        "InChIKey": null,
        "Canonical SMILES": "ClCC1=NC=CC=C1C",
        "Molecular Formula": "C<sub>7</sub>H<sub>8</sub>ClN",
        "Molecular Mass": "141.60",
        "Boiling Point": "59-61 °C @ Press: 1.4 Torr"
    }
}