{
    "cas_no": "15753-50-1",
    "key_name": "<em>cis</em>-1,2-Cyclohexanedimethanol",
    "cn_name": "顺-1,2-环己二甲醇;",
    "alternate_name": "1,2-Cyclohexanedimethanol, (1<em>R</em>,2<em>S</em>)-<em>rel</em>-;1,2-Cyclohexanedimethanol, <em>cis</em>-;<em>rel</em>-(1<em>R</em>,2<em>S</em>)-1,2-Cyclohexanedimethanol;<em>cis</em>-1,2-Cyclohexanedimethanol;<em>cis</em>-1,2-Bis(hydroxymethyl)cyclohexane;1,2-<em>cis</em>-Cyclohexanedimethanol;(1<em>R</em>,2<em>S</em>)-<em>rel</em>-1,2-Cyclohexanedimethanol;<em>cis</em>-[2-(Hydroxymethyl)cyclohexane]methanol;(<em>cis</em>-2-Hydroxymethylcyclohexyl)methanol",
    "duplicated_cas_no": "",
    "SMILES": "C(O)[C@H]1[C@@H](CO)CCCC1",
    "meta_data": {
        "InChI": "InChI=1/C8H16O2/c9-5-7-3-1-2-4-8(7)6-10/h7-10H,1-6H2/t7-,8+",
        "InChIKey": null,
        "Canonical SMILES": "OCC1CCCCC1CO",
        "Molecular Formula": "C<sub>8</sub>H<sub>16</sub>O<sub>2</sub>",
        "Molecular Mass": "144.21",
        "Boiling Point": "134-136 °C @ Press: 3 Torr",
        "Melting Point": "42-43 °C"
    }
}