{
    "cas_no": "3610-02-4",
    "key_name": "4-Hydroxybenzothiophene",
    "cn_name": null,
    "alternate_name": "Benzo[<em>b</em>]thiophene-4-ol;4-Hydroxybenzothiophene;4-Hydroxybenzo[<em>b</em>]thiophene;4-Hydroxy-1-thiaindene;4-Hydroxy-1-benzothiophene;Benzothiophen-4-ol;1-Benzothiophen-4-ol;Benzo[<em>b</em>]thiophen-4-ol",
    "duplicated_cas_no": "",
    "SMILES": "OC1=C2C(=CC=C1)SC=C2",
    "meta_data": {
        "InChI": "InChI=1S/C8H6OS/c9-7-2-1-3-8-6(7)4-5-10-8/h1-5,9H",
        "InChIKey": null,
        "Canonical SMILES": "OC1=CC=CC=2SC=CC12",
        "Molecular Formula": "C<sub>8</sub>H<sub>6</sub>OS",
        "Molecular Mass": "150.20",
        "Melting Point": "79.8 °C"
    }
}