{
    "cas_no": "19805-75-5",
    "key_name": "3-Carbamoyl-2,2,5,5-tetramethyl-3-pyrroline",
    "cn_name": "2,2,5,5-四甲基-3-吡咯啉-3-甲酰胺;",
    "alternate_name": "1<em>H</em>-Pyrrole-3-carboxamide, 2,5-dihydro-2,2,5,5-tetramethyl-;3-Pyrroline-3-carboxamide, 2,2,5,5-tetramethyl-;2,5-Dihydro-2,2,5,5-tetramethyl-1<em>H</em>-pyrrole-3-carboxamide;3-Aminocarbonyl-2,2,5,5-tetramethyl-3-pyrroline;3-Carbamoyl-2,2,5,5-tetramethyl-3-pyrroline;HO 2;2,2,5,5-Tetramethyl-3-pyrroline-3-carboxamide;2,2,5,5-Tetramethyl-1<em>H</em>-pyrrole-3-carboxamide;2,2,5,5-Tetramethyl-2,5-dihydro-1<em>H</em>-pyrrole-3-carboxamide",
    "duplicated_cas_no": "",
    "SMILES": "C(N)(=O)C=1C(C)(C)NC(C)(C)C1",
    "meta_data": {
        "InChI": "InChI=1S/C9H16N2O/c1-8(2)5-6(7(10)12)9(3,4)11-8/h5,11H,1-4H3,(H2,10,12)",
        "InChIKey": null,
        "Canonical SMILES": "O=C(N)C1=CC(NC1(C)C)(C)C",
        "Molecular Formula": "C<sub>9</sub>H<sub>16</sub>N<sub>2</sub>O",
        "Molecular Mass": "168.24",
        "Melting Point": "178-179 °C"
    }
}