{
    "cas_no": "154801-30-6",
    "key_name": "(2<em>S</em>,3<em>S</em>,4<em>R</em>)-2-[(2′<em>R</em>)-2′-hydroxytetracosanoylamino]-1,3,4-octadecanetriol",
    "cn_name": null,
    "alternate_name": "Tetracosanamide, <em>N</em>-[(1<em>S</em>,2<em>S</em>,3<em>R</em>)-2,3-dihydroxy-1-(hydroxymethyl)heptadecyl]-2-hydroxy-, (2<em>R</em>)-;Tetracosanamide, <em>N</em>-[2,3-dihydroxy-1-(hydroxymethyl)heptadecyl]-2-hydroxy-, [1<em>S</em>-[1<em>R</em>*(<em>S</em>*),2<em>R</em>*,3<em>S</em>*]]-;(2<em>R</em>)-<em>N</em>-[(1<em>S</em>,2<em>S</em>,3<em>R</em>)-2,3-Dihydroxy-1-(hydroxymethyl)heptadecyl]-2-hydroxytetracosanamide;(2<em>S</em>,3<em>S</em>,4<em>R</em>)-2-[(2′<em>R</em>)-2′-hydroxytetracosanoylamino]-1,3,4-octadecanetriol;(2<em>S</em>,3<em>S</em>,4<em>R</em>,2′<em>R</em>)-2-(2′-Hydroxytetracosanoylamino)-octadecane-1,3,4-triol;Elasticamide;t18:0-24:0h",
    "duplicated_cas_no": "",
    "SMILES": "[C@@H](NC([C@@H](CCCCCCCCCCCCCCCCCCCCCC)O)=O)([C@@H]([C@@H](CCCCCCCCCCCCCC)O)O)CO",
    "meta_data": {
        "InChI": "InChI=1S/C42H85NO5/c1-3-5-7-9-11-13-15-17-18-19-20-21-22-23-24-26-28-30-32-34-36-40(46)42(48)43-38(37-44)41(47)39(45)35-33-31-29-27-25-16-14-12-10-8-6-4-2/h38-41,44-47H,3-37H2,1-2H3,(H,43,48)/t38-,39+,40+,41-/m0/s1",
        "InChIKey": null,
        "Canonical SMILES": "O=C(NC(CO)C(O)C(O)CCCCCCCCCCCCCC)C(O)CCCCCCCCCCCCCCCCCCCCCC",
        "Molecular Formula": "C<sub>42</sub>H<sub>85</sub>NO<sub>5</sub>",
        "Molecular Mass": "684.13",
        "Melting Point": "140-142 °C"
    }
}