{
    "cas_no": "5442-12-6",
    "key_name": "Hexahydro-4,7-epoxyisobenzofuran-1,3-dione",
    "cn_name": "去甲斑蝥素;7-氧杂二环[2.2.1]庚烷-2,3-二羧酸酐;",
    "alternate_name": "4,7-Epoxyisobenzofuran-1,3-dione, hexahydro-;7-Oxabicyclo[2.2.1]heptane-2,3-dicarboxylic anhydride;Hexahydro-4,7-epoxyisobenzofuran-1,3-dione;NSC 14003;4,10-Dioxatricyclo[5.2.1.0<sup>2,6</sup>]decane-3,5-dione",
    "duplicated_cas_no": "",
    "SMILES": "O=C1C2C(C3OC2CC3)C(=O)O1",
    "meta_data": {
        "InChI": "InChI=1S/C8H8O4/c9-7-5-3-1-2-4(11-3)6(5)8(10)12-7/h3-6H,1-2H2",
        "InChIKey": null,
        "Canonical SMILES": "O=C1OC(=O)C2C3OC(CC3)C12",
        "Molecular Formula": "C<sub>8</sub>H<sub>8</sub>O<sub>4</sub>",
        "Molecular Mass": "168.15",
        "Melting Point": "110 °C"
    }
}