{
    "cas_no": "4009-98-7",
    "key_name": "(Methoxymethyl)triphenylphosphonium chloride",
    "cn_name": "(甲氧基甲基)三苯基氯化鏻;",
    "alternate_name": "Phosphonium, (methoxymethyl)triphenyl-, chloride (1:1);Phosphonium, (methoxymethyl)triphenyl-, chloride;(Methoxymethyl)triphenylphosphonium chloride;Triphenyl(methoxymethyl)phosphonium chloride;NSC 49223;[(Methyloxy)methyl]triphenylphosphonium chloride;(Methoxymethyl)triphenylphosphanium chloride",
    "duplicated_cas_no": "130927-82-1;733747-55-2;1401904-62-8;2376192-44-6",
    "SMILES": "[P+](COC)(C1=CC=CC=C1)(C2=CC=CC=C2)C3=CC=CC=C3.[Cl-]",
    "meta_data": {
        "InChI": "InChI=1S/C20H20OP.ClH/c1-21-17-22(18-11-5-2-6-12-18,19-13-7-3-8-14-19)20-15-9-4-10-16-20;/h2-16H,17H2,1H3;1H/q+1;/p-1",
        "InChIKey": null,
        "Canonical SMILES": "[Cl-].O(C)C[P+](C=1C=CC=CC1)(C=2C=CC=CC2)C=3C=CC=CC3",
        "Molecular Formula": "C<sub>20</sub>H<sub>20</sub>OP.Cl",
        "Molecular Mass": "",
        "Melting Point": "191-193 °C"
    }
}