{
    "cas_no": "38932-80-8",
    "key_name": "Tetrabutylammonium tribromide",
    "cn_name": null,
    "alternate_name": "1-Butanaminium, <em>N</em>,<em>N</em>,<em>N</em>-tributyl-, (tribromide) (1:1);1-Butanaminium, <em>N</em>,<em>N</em>,<em>N</em>-tributyl-, (tribromide);Tetrabutylammonium tribromide;Bromide (Br<sub>3</sub><sup>1-</sup>), <em>N</em>,<em>N</em>,<em>N</em>-tributyl-1-butanaminium;<em>N</em>,<em>N</em>,<em>N</em>,<em>N</em>-Tetrabutylammonium tribromide;Tetra-<em>n</em>-butylammonium tribromide",
    "duplicated_cas_no": "",
    "SMILES": "[Br-](Br)Br.[N+](CCCC)(CCCC)(CCCC)CCCC",
    "meta_data": {
        "InChI": "InChI=1S/C16H36N.Br3/c1-5-9-13-17(14-10-6-2,15-11-7-3)16-12-8-4;1-3-2/h5-16H2,1-4H3;/q+1;-1",
        "InChIKey": null,
        "Canonical SMILES": "Br[Br-]Br.CCCC[N+](CCCC)(CCCC)CCCC",
        "Molecular Formula": "C<sub>16</sub>H<sub>36</sub>N.Br<sub>3</sub>",
        "Molecular Mass": "",
        "Melting Point": "72-73 °C"
    }
}