{
    "cas_no": "496868-77-0",
    "key_name": "Adarotene",
    "cn_name": null,
    "alternate_name": "2-Propenoic acid, 3-(4′-hydroxy-3′-tricyclo[3.3.1.1<sup>3,7</sup>]dec-1-yl[1,1′-biphenyl]-4-yl)-, (2<em>E</em>)-;(2<em>E</em>)-3-(4′-Hydroxy-3′-tricyclo[3.3.1.1<sup>3,7</sup>]dec-1-yl[1,1′-biphenyl]-4-yl)-2-propenoic acid;ST 1926;Adarotene",
    "duplicated_cas_no": "",
    "SMILES": "OC=1C(C23CC4CC(C2)CC(C3)C4)=CC(=CC1)C5=CC=C(/C=C/C(O)=O)C=C5",
    "meta_data": {
        "InChI": "InChI=1S/C25H26O3/c26-23-7-6-21(20-4-1-16(2-5-20)3-8-24(27)28)12-22(23)25-13-17-9-18(14-25)11-19(10-17)15-25/h1-8,12,17-19,26H,9-11,13-15H2,(H,27,28)/b8-3+",
        "InChIKey": null,
        "Canonical SMILES": "O=C(O)C=CC=1C=CC(=CC1)C2=CC=C(O)C(=C2)C34CC5CC(CC(C5)C3)C4",
        "Molecular Formula": "C<sub>25</sub>H<sub>26</sub>O<sub>3</sub>",
        "Molecular Mass": "374.47",
        "Melting Point": "&gt;240 °C"
    }
}