{
    "cas_no": "172732-68-2",
    "key_name": "Varespladib",
    "cn_name": null,
    "alternate_name": "Acetic acid, 2-[[3-(2-amino-2-oxoacetyl)-2-ethyl-1-(phenylmethyl)-1<em>H</em>-indol-4-yl]oxy]-;Acetic acid, [[3-(aminooxoacetyl)-2-ethyl-1-(phenylmethyl)-1<em>H</em>-indol-4-yl]oxy]-;2-[[3-(2-Amino-2-oxoacetyl)-2-ethyl-1-(phenylmethyl)-1<em>H</em>-indol-4-yl]oxy]acetic acid;LY 315920;Varespladib;[[3-(2-Amino-1,2-dioxoethyl)-2-ethyl-1-(phenylmethyl)-1<em>H</em>-indol-4-yl]oxy]acetic acid",
    "duplicated_cas_no": "",
    "SMILES": "C(C(N)=O)(=O)C=1C=2C(N(CC3=CC=CC=C3)C1CC)=CC=CC2OCC(O)=O",
    "meta_data": {
        "InChI": "InChI=1S/C21H20N2O5/c1-2-14-19(20(26)21(22)27)18-15(9-6-10-16(18)28-12-17(24)25)23(14)11-13-7-4-3-5-8-13/h3-10H,2,11-12H2,1H3,(H2,22,27)(H,24,25)",
        "InChIKey": null,
        "Canonical SMILES": "O=C(N)C(=O)C=1C=2C(OCC(=O)O)=CC=CC2N(C1CC)CC=3C=CC=CC3",
        "Molecular Formula": "C<sub>21</sub>H<sub>20</sub>N<sub>2</sub>O<sub>5</sub>",
        "Molecular Mass": "380.39",
        "Melting Point": "230-234 °C"
    }
}