{
    "cas_no": "56073-10-0",
    "key_name": "Brodifacoum",
    "cn_name": "溴鼠灵;溴鼠隆;溴联苯杀鼠萘;3-[3-(4-溴联苯基-4)-1,2,3,4-四氢萘-1-基]-4-羟基香豆素;",
    "alternate_name": "2<em>H</em>-1-Benzopyran-2-one, 3-[3-(4′-bromo[1,1′-biphenyl]-4-yl)-1,2,3,4-tetrahydro-1-naphthalenyl]-4-hydroxy-;3-[3-(4′-Bromo[1,1′-biphenyl]-4-yl)-1,2,3,4-tetrahydro-1-naphthalenyl]-4-hydroxy-2<em>H</em>-1-benzopyran-2-one;BFC;Brodifacoum;WBA 8119;Talon;Volid;Klerat;Brodimat;Talon (rodenticide);Klerat Block;Brodimax Forte Pasta",
    "duplicated_cas_no": "66052-95-7;80449-88-3",
    "SMILES": "OC1=C(C2C=3C(CC(C2)C4=CC=C(C=C4)C5=CC=C(Br)C=C5)=CC=CC3)C(=O)OC=6C1=CC=CC6",
    "meta_data": {
        "InChI": "InChI=1S/C31H23BrO3/c32-24-15-13-20(14-16-24)19-9-11-21(12-10-19)23-17-22-5-1-2-6-25(22)27(18-23)29-30(33)26-7-3-4-8-28(26)35-31(29)34/h1-16,23,27,33H,17-18H2",
        "InChIKey": null,
        "Canonical SMILES": "O=C1OC=2C=CC=CC2C(O)=C1C3C=4C=CC=CC4CC(C5=CC=C(C=C5)C=6C=CC(Br)=CC6)C3",
        "Molecular Formula": "C<sub>31</sub>H<sub>23</sub>BrO<sub>3</sub>",
        "Molecular Mass": "523.42",
        "Melting Point": "201-205 °C (decomp)"
    }
}