{
    "cas_no": "15580-66-2",
    "key_name": "4-Amino-1-methyl-4-piperidinecarboxylic acid",
    "cn_name": null,
    "alternate_name": "4-Piperidinecarboxylic acid, 4-amino-1-methyl-;Isonipecotic acid, 4-amino-1-methyl-;4-Amino-1-methyl-4-piperidinecarboxylic acid;4-Amino-1-methylpiperidine-4-carboxylic acid;NSC 117761",
    "duplicated_cas_no": "",
    "SMILES": "C(O)(=O)C1(N)CCN(C)CC1",
    "meta_data": {
        "InChI": "InChI=1S/C7H14N2O2/c1-9-4-2-7(8,3-5-9)6(10)11/h2-5,8H2,1H3,(H,10,11)",
        "InChIKey": null,
        "Canonical SMILES": "O=C(O)C1(N)CCN(C)CC1",
        "Molecular Formula": "C<sub>7</sub>H<sub>14</sub>N<sub>2</sub>O<sub>2</sub>",
        "Molecular Mass": "158.20",
        "Melting Point": "286 °C (decomp)"
    }
}