{
    "cas_no": "18979-53-8",
    "key_name": "4-(Pentyloxy)phenol",
    "cn_name": "4-戊氧基苯酚;对戊氧基苯酚;对羟基苯戊醚;对苯二酚单戊醚;",
    "alternate_name": "Phenol, 4-(pentyloxy)-;Phenol, <em>p</em>-(pentyloxy)-;4-(Pentyloxy)phenol;<em>p</em>-(Pentyloxy)phenol;Amol;<em>p</em>-(<em>n</em>-Pentyloxy)phenol;4-Pentoxyphenol;<em>p</em>-Pentoxyphenol",
    "duplicated_cas_no": "",
    "SMILES": "O(CCCCC)C1=CC=C(O)C=C1",
    "meta_data": {
        "InChI": "InChI=1S/C11H16O2/c1-2-3-4-9-13-11-7-5-10(12)6-8-11/h5-8,12H,2-4,9H2,1H3",
        "InChIKey": null,
        "Canonical SMILES": "OC1=CC=C(OCCCCC)C=C1",
        "Molecular Formula": "C<sub>11</sub>H<sub>16</sub>O<sub>2</sub>",
        "Molecular Mass": "180.24",
        "Melting Point": "56-57 °C"
    }
}