{
    "cas_no": "32360-05-7",
    "key_name": "Stearyl methacrylate",
    "cn_name": "2-甲基-2-丙烯酸十八烷基酯;甲基丙烯酸十八烷基酯;",
    "alternate_name": "2-Propenoic acid, 2-methyl-, octadecyl ester;Methacrylic acid, octadecyl ester;Stearyl methacrylate;Octadecyl methacrylate;Acryester S;Light Ester S;SR 324;SR 324 (methacrylate);Blemmer SMA;NK Ester S;Rocryl 330;Acryester SMA;<em>n</em>-Octadecyl methacrylate;EM 35;SEM 001;NJLUB CM 18;SR 324NS;Komerate A 189M",
    "duplicated_cas_no": "112-08-3;55778-34-2;59471-20-4;167633-23-0",
    "SMILES": "C(CCCCCCCCCCCCCCCC)COC(C(C)=C)=O",
    "meta_data": {
        "InChI": "InChI=1S/C22H42O2/c1-4-5-6-7-8-9-10-11-12-13-14-15-16-17-18-19-20-24-22(23)21(2)3/h2,4-20H2,1,3H3",
        "InChIKey": null,
        "Canonical SMILES": "O=C(OCCCCCCCCCCCCCCCCCC)C(=C)C",
        "Molecular Formula": "C<sub>22</sub>H<sub>42</sub>O<sub>2</sub>",
        "Molecular Mass": "338.57",
        "Boiling Point": "175 °C @ Press: 0.5 Torr"
    }
}