{
    "cas_no": "22859-36-5",
    "key_name": "Trimethoxy(methoxymethyl)silane",
    "cn_name": null,
    "alternate_name": "Silane, trimethoxy(methoxymethyl)-;Trimethoxy(methoxymethyl)silane;(Methoxymethyl)trimethoxysilane;X 12-1312MS",
    "duplicated_cas_no": "",
    "SMILES": "[Si](COC)(OC)(OC)OC",
    "meta_data": {
        "InChI": "InChI=1S/C5H14O4Si/c1-6-5-10(7-2,8-3)9-4/h5H2,1-4H3",
        "InChIKey": null,
        "Canonical SMILES": "O(C)C[Si](OC)(OC)OC",
        "Molecular Formula": "C<sub>5</sub>H<sub>14</sub>O<sub>4</sub>Si",
        "Molecular Mass": "166.25",
        "Boiling Point": "79-80 °C @ Press: 90 mbar"
    }
}