{
    "cas_no": "20880-92-6",
    "key_name": "2,3:4,5-Di-<em>O</em>-isopropylidene-β-<span class=\"text-smallcaps\">D</span>-fructopyranose",
    "cn_name": "果糖二丙酮;",
    "alternate_name": "β-<span class=\"text-smallcaps\">D</span>-Fructopyranose, 2,3:4,5-bis-<em>O</em>-(1-methylethylidene)-;Fructopyranose, 2,3:4,5-di-<em>O</em>-isopropylidene-, β-<span class=\"text-smallcaps\">D</span>-;5<em>H</em>-Bis[1,3]dioxolo[4,5-<em>b</em>:4′,5′-<em>d</em>]pyran, β-<span class=\"text-smallcaps\">D</span>-fructopyranose deriv.;2,3:4,5-Bis-<em>O</em>-(1-methylethylidene)-β-<span class=\"text-smallcaps\">D</span>-fructopyranose;2,3:4,5-Di-<em>O</em>-isopropylidene-β-<span class=\"text-smallcaps\">D</span>-fructopyranose;NSC 407023;<span class=\"text-smallcaps\">D</span>-Fructopyranose diacetonide",
    "duplicated_cas_no": "1338805-37-0",
    "SMILES": "C(O)[C@]12[C@]([C@]3([C@@](CO1)(OC(C)(C)O3)[H])[H])(OC(C)(C)O2)[H]",
    "meta_data": {
        "InChI": "InChI=1S/C12H20O6/c1-10(2)15-7-5-14-12(6-13)9(8(7)16-10)17-11(3,4)18-12/h7-9,13H,5-6H2,1-4H3/t7-,8-,9+,12+/m1/s1",
        "InChIKey": null,
        "Canonical SMILES": "OCC12OCC3OC(OC3C2OC(O1)(C)C)(C)C",
        "Molecular Formula": "C<sub>12</sub>H<sub>20</sub>O<sub>6</sub>",
        "Molecular Mass": "260.28",
        "Melting Point": "119 °C"
    }
}