{
    "cas_no": "3420-72-2",
    "key_name": "2′-Hydroxy-4,4′,6′-trimethoxychalcone",
    "cn_name": "2-羟基-4,4,6-三甲氧基查尔酮;2\"-羟基-4,4\",6\"-三甲氧基查耳酮;",
    "alternate_name": "2-Propen-1-one, 1-(2-hydroxy-4,6-dimethoxyphenyl)-3-(4-methoxyphenyl)-;Chalcone, 2′-hydroxy-4,4′,6′-trimethoxy-;1-(2-Hydroxy-4,6-dimethoxyphenyl)-3-(4-methoxyphenyl)-2-propen-1-one;2′-Hydroxy-4,4′,6′-trimethoxychalcone;NSC 37445",
    "duplicated_cas_no": "52077-37-9",
    "SMILES": "O(C)C1=C(C(C=CC2=CC=C(OC)C=C2)=O)C(O)=CC(OC)=C1",
    "meta_data": {
        "InChI": "InChI=1S/C18H18O5/c1-21-13-7-4-12(5-8-13)6-9-15(19)18-16(20)10-14(22-2)11-17(18)23-3/h4-11,20H,1-3H3",
        "InChIKey": null,
        "Canonical SMILES": "O=C(C=CC1=CC=C(OC)C=C1)C=2C(O)=CC(OC)=CC2OC",
        "Molecular Formula": "C<sub>18</sub>H<sub>18</sub>O<sub>5</sub>",
        "Molecular Mass": "314.33",
        "Melting Point": "112-114 °C"
    }
}