{
    "cas_no": "13768-86-0",
    "key_name": "Selenium trioxide",
    "cn_name": "三氧化硒;",
    "alternate_name": "Selenium oxide (SeO<sub>3</sub>);Selenium trioxide;Selenium trioxide (SeO<sub>3</sub>)",
    "duplicated_cas_no": "56591-40-3",
    "SMILES": "[Se](=O)(=O)=O",
    "meta_data": {
        "InChI": "InChI=1S/O3Se/c1-4(2)3",
        "InChIKey": null,
        "Canonical SMILES": "O=[Se](=O)=O",
        "Molecular Formula": "O<sub>3</sub>Se",
        "Molecular Mass": "126.96",
        "Melting Point": "118 °C",
        "Density": "3.6 g/cm³"
    }
}