{
    "cas_no": "17865-85-9",
    "key_name": "1,3,5,7,9,11,13,15-Octamethylpentacyclo[9.5.1.1<sup>3,9</sup>.1<sup>5,15</sup>.1<sup>7,13</sup>]octasiloxane",
    "cn_name": "八甲基-POSS; 八甲基八硅倍半氧烷;",
    "alternate_name": "Pentacyclo[9.5.1.1<sup>3,9</sup>.1<sup>5,15</sup>.1<sup>7,13</sup>]octasiloxane, 1,3,5,7,9,11,13,15-octamethyl-;Pentacyclo[9.5.1.1<sup>3,9</sup>.1<sup>5,15</sup>.1<sup>7,13</sup>]octasiloxane, octamethyl-;Octasilsesquioxane, octamethyl-;1,3,5,7,9,11,13,15-Octamethylpentacyclo[9.5.1.1<sup>3,9</sup>.1<sup>5,15</sup>.1<sup>7,13</sup>]octasiloxane;Methyl-T 8;Octamethylpentacyclo[9.5.1.1<sup>3,9</sup>.1<sup>5,15</sup>.1<sup>7,13</sup>]octasiloxane;Molecular Silicas MS 0830;MS 0830;OctaMethyl-POSS;Octa(methylsilsesquioxane)",
    "duplicated_cas_no": "57348-79-5;400003-06-7",
    "SMILES": "C[Si]12O[Si]3(C)O[Si]4(C)O[Si](C)(O1)O[Si]5(C)O[Si](C)(O2)O[Si](C)(O3)O[Si](C)(O4)O5",
    "meta_data": {
        "InChI": "InChI=1S/C8H24O12Si8/c1-21-9-22(2)12-25(5)14-23(3,10-21)16-27(7)17-24(4,11-21)15-26(6,13-22)19-28(8,18-25)20-27/h1-8H3",
        "InChIKey": null,
        "Canonical SMILES": "O1[Si]2(O[Si]3(O[Si]4(O[Si]1(O[Si]5(O[Si](O2)(O[Si](O3)(O[Si](O4)(O5)C)C)C)C)C)C)C)C",
        "Molecular Formula": "C<sub>8</sub>H<sub>24</sub>O<sub>12</sub>Si<sub>8</sub>",
        "Molecular Mass": "536.95",
        "Melting Point": "231-258 °C (sublm)",
        "Density": "1.5 g/cm³"
    }
}