{
    "cas_no": "299-45-6",
    "key_name": "<em>O</em>,<em>O</em>-Diethyl <em>O</em>-(4-methyl-2-oxo-2<em>H</em>-1-benzopyran-7-yl) phosphorothioate",
    "cn_name": "扑打散;O，O-二乙基-O-(4-甲基香豆素基-7)硫代磷酸酯;扑打散;",
    "alternate_name": "Phosphorothioic acid, <em>O</em>,<em>O</em>-diethyl <em>O</em>-(4-methyl-2-oxo-2<em>H</em>-1-benzopyran-7-yl) ester;Coumarin, 7-hydroxy-4-methyl-, <em>O</em>-ester with <em>O</em>,<em>O</em>-diethyl phosphorothioate;Umbelliferone, 4-methyl-, <em>O</em>,<em>O</em>-diethyl phosphorothioate;<em>O</em>,<em>O</em>-Diethyl <em>O</em>-(4-methyl-2-oxo-2<em>H</em>-1-benzopyran-7-yl) phosphorothioate;E 838;<em>O</em>,<em>O</em>-Diethyl <em>O</em>-(2-<em>keto</em>-4-methyl-7-α′,β′-benzo-α′-pyranyl) thiophosphate;<em>O</em>,<em>O</em>-Diethyl <em>O</em>-(4-methyl-7-coumarinyl) phosphorothioate;Diethyl methylcoumarinyl thiophosphate;<em>O</em>,<em>O</em>-Diethyl <em>O</em>-(4-methylumbelliferone) phosphorothioate;Diethyl (4-methylumbelliferyl) thionophosphate;7-Hydroxy-4-methylcoumarin diethoxythiophosphoric acid ester;4-Methyl-7-hydroxycoumarin diethoxythiophosphate;4-Methylumbelliferone <em>O</em>,<em>O</em>-diethyl thiophosphate;Potasan;Potasan-G-liquid",
    "duplicated_cas_no": "",
    "SMILES": "CC=1C=2C(=CC(OP(OCC)(OCC)=S)=CC2)OC(=O)C1",
    "meta_data": {
        "InChI": "InChI=1S/C14H17O5PS/c1-4-16-20(21,17-5-2)19-11-6-7-12-10(3)8-14(15)18-13(12)9-11/h6-9H,4-5H2,1-3H3",
        "InChIKey": null,
        "Canonical SMILES": "O=C1OC=2C=C(OP(=S)(OCC)OCC)C=CC2C(=C1)C",
        "Molecular Formula": "C<sub>14</sub>H<sub>17</sub>O<sub>5</sub>PS",
        "Molecular Mass": "328.32",
        "Boiling Point": "210 °C",
        "Melting Point": "38 °C"
    }
}