{
    "cas_no": "2855-19-8",
    "key_name": "1,2-Epoxydodecane",
    "cn_name": "1,2-环氧十二烷;",
    "alternate_name": "Oxirane, 2-decyl-;Dodecane, 1,2-epoxy-;Oxirane, decyl-;2-Decyloxirane;1,2-Dodecene oxide;1,2-Epoxy-<em>n</em>-dodecane;1,2-Epoxydodecane;Nedox 1200;1-Dodecene oxide;α-Dodecene oxide;Decyloxirane;Vikolox 12;1,2-Dodecylene oxide;1-Dodecene epoxide;(±)-1,2-Epoxydodecane;(±)-Decyloxirane;1,2-Dodecene epoxide;NSC 6785;2-<em>n</em>-Decyloxirane;Dodecylene oxide",
    "duplicated_cas_no": "128900-21-0",
    "SMILES": "C(CCCCCCCCC)C1CO1",
    "meta_data": {
        "InChI": "InChI=1S/C12H24O/c1-2-3-4-5-6-7-8-9-10-12-11-13-12/h12H,2-11H2,1H3",
        "InChIKey": null,
        "Canonical SMILES": "O1CC1CCCCCCCCCC",
        "Molecular Formula": "C<sub>12</sub>H<sub>24</sub>O",
        "Molecular Mass": "184.32",
        "Boiling Point": "124-125 °C @ Press: 15 Torr",
        "Density": "0.8402 g/cm³ @ Temp: 22 °C"
    }
}