{
    "cas_no": "465-65-6",
    "key_name": "Naloxone",
    "cn_name": "纳洛酮;(5alpha)-3,14-二羟基-17-丙-2-烯-1-基-4,5-环氧吗啡烷-6-酮;",
    "alternate_name": "Morphinan-6-one, 4,5-epoxy-3,14-dihydroxy-17-(2-propen-1-yl)-, (5α)-;Morphinan-6-one, 17-allyl-4,5α-epoxy-3,14-dihydroxy-;Morphinan-6-one, 4,5-epoxy-3,14-dihydroxy-17-(2-propenyl)-, (5α)-;Normorphinone, <em>N</em>-allyl-7,8-dihydro-14-hydroxy-;(5α)-4,5-Epoxy-3,14-dihydroxy-17-(2-propen-1-yl)morphinan-6-one;12-Allyl-7,7a,8,9-tetrahydro-3,7a-dihydroxy-4a<em>H</em>-8,9c-iminoethanophenanthro[4,5-<em>bcd</em>]furan-5(6<em>H</em>)-one;Naloxone;<em>l</em>-Naloxone;(-)-Naloxone;NSC 70413;MeSH ID: D009270",
    "duplicated_cas_no": "5592-87-0",
    "SMILES": "O[C@]12[C@@]34C=5C(O[C@]3(C(=O)CC1)[H])=C(O)C=CC5C[C@]2(N(CC=C)CC4)[H]",
    "meta_data": {
        "InChI": "InChI=1S/C19H21NO4/c1-2-8-20-9-7-18-15-11-3-4-12(21)16(15)24-17(18)13(22)5-6-19(18,23)14(20)10-11/h2-4,14,17,21,23H,1,5-10H2/t14-,17+,18+,19-/m1/s1",
        "InChIKey": null,
        "Canonical SMILES": "O=C1CCC2(O)C3N(CC=C)CCC42C5=C(OC14)C(O)=CC=C5C3",
        "Molecular Formula": "C<sub>19</sub>H<sub>21</sub>NO<sub>4</sub>",
        "Molecular Mass": "327.37",
        "Melting Point": "184 °C"
    }
}