{
    "cas_no": "14737-91-8",
    "key_name": "<em>cis</em>-2-Methoxycinnamic acid",
    "cn_name": "顺-2-甲氧基肉桂酸;",
    "alternate_name": "2-Propenoic acid, 3-(2-methoxyphenyl)-, (2<em>Z</em>)-;Cinnamic acid, <em>o</em>-methoxy-, (<em>Z</em>)-;2-Propenoic acid, 3-(2-methoxyphenyl)-, (<em>Z</em>)-;Cinnamic acid, <em>o</em>-methoxy-, <em>cis</em>-;(2<em>Z</em>)-3-(2-Methoxyphenyl)-2-propenoic acid;<em>cis</em>-2-Methoxycinnamic acid;(<em>Z</em>)-3-(2-Methoxyphenyl)-2-propenoic acid",
    "duplicated_cas_no": "",
    "SMILES": "C(=C\\C(O)=O)\\C1=C(OC)C=CC=C1",
    "meta_data": {
        "InChI": "InChI=1S/C10H10O3/c1-13-9-5-3-2-4-8(9)6-7-10(11)12/h2-7H,1H3,(H,11,12)/b7-6-",
        "InChIKey": null,
        "Canonical SMILES": "O=C(O)C=CC=1C=CC=CC1OC",
        "Molecular Formula": "C<sub>10</sub>H<sub>10</sub>O<sub>3</sub>",
        "Molecular Mass": "178.18",
        "Melting Point": "94-96 °C"
    }
}