{
    "cas_no": "1624-02-8",
    "key_name": "Chromic acid (H<sub>2</sub>CrO<sub>4</sub>), bis(triphenylsilyl) ester",
    "cn_name": "铬酸双(三苯甲基硅烷基)酯;",
    "alternate_name": "Chromic acid (H<sub>2</sub>CrO<sub>4</sub>), bis(triphenylsilyl) ester;Silanol, triphenyl-, diester with chromic acid (H<sub>2</sub>CrO<sub>4</sub>);Silanol, triphenyl-, chromate(VI);Bis(triphenylsilyl) chromate",
    "duplicated_cas_no": "",
    "SMILES": "[Si](O[Cr](O[Si](C1=CC=CC=C1)(C2=CC=CC=C2)C3=CC=CC=C3)(=O)=O)(C4=CC=CC=C4)(C5=CC=CC=C5)C6=CC=CC=C6",
    "meta_data": {
        "InChI": "InChI=1S/2C18H15OSi.Cr.2O/c2*19-20(16-10-4-1-5-11-16,17-12-6-2-7-13-17)18-14-8-3-9-15-18;;;/h2*1-15H;;;/q2*-1;+2;;",
        "InChIKey": null,
        "Canonical SMILES": "O=[Cr](=O)(O[Si](C=1C=CC=CC1)(C=2C=CC=CC2)C=3C=CC=CC3)O[Si](C=4C=CC=CC4)(C=5C=CC=CC5)C=6C=CC=CC6",
        "Molecular Formula": "C<sub>36</sub>H<sub>30</sub>CrO<sub>4</sub>Si<sub>2</sub>",
        "Molecular Mass": "",
        "Melting Point": "155-156 °C"
    }
}