{
    "cas_no": "86847-79-2",
    "key_name": "2,2-Dimethyl-<em>N</em>-(6-methyl-2-pyridinyl)propanamide",
    "cn_name": null,
    "alternate_name": "Propanamide, 2,2-dimethyl-<em>N</em>-(6-methyl-2-pyridinyl)-;2,2-Dimethyl-<em>N</em>-(6-methyl-2-pyridinyl)propanamide;2-Methyl-6-pivaloylaminopyridine;2-<em>N</em>-Pivaloylamino-6-methylpyridine;2-Methyl-6-(pivaloylamindo)pyridine;<em>N</em>-(6-Methylpyridin-2-yl)-2,2-dimethylpropionamide;6-Pivaloylamino-2-picoline",
    "duplicated_cas_no": "",
    "SMILES": "N(C(C(C)(C)C)=O)C=1N=C(C)C=CC1",
    "meta_data": {
        "InChI": "InChI=1S/C11H16N2O/c1-8-6-5-7-9(12-8)13-10(14)11(2,3)4/h5-7H,1-4H3,(H,12,13,14)",
        "InChIKey": null,
        "Canonical SMILES": "O=C(NC=1N=C(C=CC1)C)C(C)(C)C",
        "Molecular Formula": "C<sub>11</sub>H<sub>16</sub>N<sub>2</sub>O",
        "Molecular Mass": "192.26",
        "Melting Point": "66-68 °C"
    }
}