{
    "cas_no": "4132-28-9",
    "key_name": "2,3,4,6-Tetrakis-<em>O</em>-(phenylmethyl)-<span class=\"text-smallcaps\">D</span>-glucopyranose",
    "cn_name": "2,3,4,6-四苄基-D-吡喃葡萄糖;2,3,4,6-O-四苄基-D-葡萄糖;",
    "alternate_name": "<span class=\"text-smallcaps\">D</span>-Glucopyranose, 2,3,4,6-tetrakis-<em>O</em>-(phenylmethyl)-;Glucopyranose, 2,3,4,6-tetra-<em>O</em>-benzyl-, <span class=\"text-smallcaps\">D</span>-;Glucopyranose, 2,3,4,6-tetra-<em>O</em>-benzyl-;2,3,4,6-Tetrakis-<em>O</em>-(phenylmethyl)-<span class=\"text-smallcaps\">D</span>-glucopyranose;2,3,4,6-Tetra-<em>O</em>-benzoyl-<span class=\"text-smallcaps\">D</span>-glucopyranose;2,3,4,6-Tetra-<em>O</em>-benzyl-glucopyranose",
    "duplicated_cas_no": "67458-03-1",
    "SMILES": "O(CC1=CC=CC=C1)[C@H]2[C@H](OCC3=CC=CC=C3)[C@@H](COCC4=CC=CC=C4)OC(O)[C@@H]2OCC5=CC=CC=C5",
    "meta_data": {
        "InChI": "InChI=1S/C34H36O6/c35-34-33(39-24-29-19-11-4-12-20-29)32(38-23-28-17-9-3-10-18-28)31(37-22-27-15-7-2-8-16-27)30(40-34)25-36-21-26-13-5-1-6-14-26/h1-20,30-35H,21-25H2/t30-,31-,32+,33-,34?/m1/s1",
        "InChIKey": null,
        "Canonical SMILES": "OC1OC(COCC=2C=CC=CC2)C(OCC=3C=CC=CC3)C(OCC=4C=CC=CC4)C1OCC=5C=CC=CC5",
        "Molecular Formula": "C<sub>34</sub>H<sub>36</sub>O<sub>6</sub>",
        "Molecular Mass": "540.65",
        "Melting Point": "145-149 °C"
    }
}