{
    "cas_no": "480-40-0",
    "key_name": "Chrysin",
    "cn_name": "5,7-二羟黄酮;5,7-二羟基黄酮;",
    "alternate_name": "4<em>H</em>-1-Benzopyran-4-one, 5,7-dihydroxy-2-phenyl-;Chrysin;Flavone, 5,7-dihydroxy-;5,7-Dihydroxy-2-phenyl-4<em>H</em>-1-benzopyran-4-one;5,7-Dihydroxyflavone;NSC 407436;Crysin;5,7-Dihydroxy-2-phenylchromen-4-one;5,7-Dihydroxy-2-phenyl-4<em>H</em>-chromen-4-one",
    "duplicated_cas_no": "",
    "SMILES": "O=C1C=2C(OC(=C1)C3=CC=CC=C3)=CC(O)=CC2O",
    "meta_data": {
        "InChI": "InChI=1S/C15H10O4/c16-10-6-11(17)15-12(18)8-13(19-14(15)7-10)9-4-2-1-3-5-9/h1-8,16-17H",
        "InChIKey": null,
        "Canonical SMILES": "O=C1C=C(OC=2C=C(O)C=C(O)C12)C=3C=CC=CC3",
        "Molecular Formula": "C<sub>15</sub>H<sub>10</sub>O<sub>4</sub>",
        "Molecular Mass": "254.24",
        "Melting Point": "285.5 °C"
    }
}