{
    "cas_no": "460-16-2",
    "key_name": "Ethene, 1-chloro-2-fluoro-",
    "cn_name": null,
    "alternate_name": "Ethene, 1-chloro-2-fluoro-;Ethylene, 1-chloro-2-fluoro-;1-Chloro-2-fluoroethylene;1-Fluoro-2-chloroethene",
    "duplicated_cas_no": "",
    "SMILES": "C(=CF)Cl",
    "meta_data": {
        "InChI": "InChI=1S/C2H2ClF/c3-1-2-4/h1-2H",
        "InChIKey": null,
        "Canonical SMILES": "FC=CCl",
        "Molecular Formula": "C<sub>2</sub>H<sub>2</sub>ClF",
        "Molecular Mass": "80.49",
        "Boiling Point": "10-12 °C"
    }
}