{
    "cas_no": "146426-40-6",
    "key_name": "Alvocidib",
    "cn_name": "2-(2-氯苯基)-5,7-二羟基-8-[(3S,4R)-3-羟基-1-甲基-4-哌啶基]苯并吡喃-4-酮;",
    "alternate_name": "4<em>H</em>-1-Benzopyran-4-one, 2-(2-chlorophenyl)-5,7-dihydroxy-8-[(3<em>S</em>,4<em>R</em>)-3-hydroxy-1-methyl-4-piperidinyl]-;4<em>H</em>-1-Benzopyran-4-one, 2-(2-chlorophenyl)-5,7-dihydroxy-8-(3-hydroxy-1-methyl-4-piperidinyl)-, <em>cis</em>-(-)-;2-(2-Chlorophenyl)-5,7-dihydroxy-8-[(3<em>S</em>,4<em>R</em>)-3-hydroxy-1-methyl-4-piperidinyl]-4<em>H</em>-1-benzopyran-4-one;L 86-8275;Flavopiridol;HMR 1275;Alvocidib;(-)-2-(2-Chlorophenyl)-5,7-dihydroxy-8-[(3<em>S</em>,4<em>R</em>)-3-hydroxy-1-methylpiperidin-4-yl]-4<em>H</em>-1-benzopyran-4-one;HL 275;L 868275;DSP 2033",
    "duplicated_cas_no": "358739-39-6",
    "SMILES": "OC=1C(=C2C(C(=O)C=C(O2)C3=C(Cl)C=CC=C3)=C(O)C1)[C@@H]4[C@H](O)CN(C)CC4",
    "meta_data": {
        "InChI": "InChI=1S/C21H20ClNO5/c1-23-7-6-12(17(27)10-23)19-14(24)8-15(25)20-16(26)9-18(28-21(19)20)11-4-2-3-5-13(11)22/h2-5,8-9,12,17,24-25,27H,6-7,10H2,1H3/t12-,17+/m0/s1",
        "InChIKey": null,
        "Canonical SMILES": "O=C1C=C(OC=2C1=C(O)C=C(O)C2C3CCN(C)CC3O)C=4C=CC=CC4Cl",
        "Molecular Formula": "C<sub>21</sub>H<sub>20</sub>ClNO<sub>5</sub>",
        "Molecular Mass": "401.84",
        "Melting Point": "52.5 °C"
    }
}