{
    "cas_no": "108-97-4",
    "key_name": "4<em>H</em>-Pyran-4-one",
    "cn_name": "4H-吡啶-4-酮;吡喃-4-酮;",
    "alternate_name": "4<em>H</em>-Pyran-4-one;4-Pyrone;4<em>H</em>-Pyran, 4-oxo-;γ-Pyrone;Pyran-4-one",
    "duplicated_cas_no": "",
    "SMILES": "O=C1C=COC=C1",
    "meta_data": {
        "InChI": "InChI=1S/C5H4O2/c6-5-1-3-7-4-2-5/h1-4H",
        "InChIKey": null,
        "Canonical SMILES": "O=C1C=COC=C1",
        "Molecular Formula": "C<sub>5</sub>H<sub>4</sub>O<sub>2</sub>",
        "Molecular Mass": "96.08",
        "Boiling Point": "212.5 °C",
        "Melting Point": "32.5 °C"
    }
}