{
    "cas_no": "319-78-8",
    "key_name": "<span class=\"text-smallcaps\">D</span>-Isoleucine",
    "cn_name": "D-异亮氨酸;(2R,3R)-2-氨基-3-甲基戊酸;",
    "alternate_name": "<span class=\"text-smallcaps\">D</span>-Isoleucine;Isoleucine, <span class=\"text-smallcaps\">D</span>-;(<em>R</em>)-Isoleucine;(2<em>R</em>,3<em>R</em>)-2-Amino-3-methylpentanoic acid;(2R,3R)-2-Amino-3-methylpentanoic acid",
    "duplicated_cas_no": "996-76-9;7274-89-7;1394135-78-4",
    "SMILES": "[C@@H]([C@@H](CC)C)(C(O)=O)N",
    "meta_data": {
        "InChI": "InChI=1S/C6H13NO2/c1-3-4(2)5(7)6(8)9/h4-5H,3,7H2,1-2H3,(H,8,9)/t4-,5-/m1/s1",
        "InChIKey": null,
        "Canonical SMILES": "O=C(O)C(N)C(C)CC",
        "Molecular Formula": "C<sub>6</sub>H<sub>13</sub>NO<sub>2</sub>",
        "Molecular Mass": "131.17",
        "Melting Point": "283-284 °C (decomp)"
    }
}