{
    "cas_no": "4433-40-3",
    "key_name": "5-(Hydroxymethyl)uracil",
    "cn_name": "5-羟甲基脲嘧啶;",
    "alternate_name": "2,4(1<em>H</em>,3<em>H</em>)-Pyrimidinedione, 5-(hydroxymethyl)-;Uracil, 5-(hydroxymethyl)-;5-(Hydroxymethyl)-2,4(1<em>H</em>,3<em>H</em>)-pyrimidinedione;5-(Hydroxymethyl)uracil;α-Hydroxythymine;NSC 20901;5-(Hydroxymethyl)-1,3-dihydropyrimidine-2,4-dione;5-Hydroxymethyl-1<em>H</em>-pyrimidine-2,4-dione;5-(Hydroxymethyl)pyrimidine-2,4-diol",
    "duplicated_cas_no": "",
    "SMILES": "C(O)C=1C(=O)NC(=O)NC1",
    "meta_data": {
        "InChI": "InChI=1S/C5H6N2O3/c8-2-3-1-6-5(10)7-4(3)9/h1,8H,2H2,(H2,6,7,9,10)",
        "InChIKey": null,
        "Canonical SMILES": "O=C1NC=C(C(=O)N1)CO",
        "Molecular Formula": "C<sub>5</sub>H<sub>6</sub>N<sub>2</sub>O<sub>3</sub>",
        "Molecular Mass": "142.11",
        "Melting Point": "195-200 °C"
    }
}