{
    "cas_no": "13411-16-0",
    "key_name": "Nifurpirinol",
    "cn_name": null,
    "alternate_name": "2-Pyridinemethanol, 6-[2-(5-nitro-2-furanyl)ethenyl]-;2-Pyridinemethanol, 6-[2-(5-nitro-2-furyl)vinyl]-;6-[2-(5-Nitro-2-furanyl)ethenyl]-2-pyridinemethanol;6-(Hydroxymethyl)-2-[2-(5-nitro-2-furyl)vinyl]pyridine;Nifurpirinol;P 7138;NF 323;Furanace;Furpyrinol;Furanace 10;Prefuran;Furpirinol",
    "duplicated_cas_no": "",
    "SMILES": "C(=CC=1N=C(CO)C=CC1)C=2OC(N(=O)=O)=CC2",
    "meta_data": {
        "InChI": "InChI=1S/C12H10N2O4/c15-8-10-3-1-2-9(13-10)4-5-11-6-7-12(18-11)14(16)17/h1-7,15H,8H2",
        "InChIKey": null,
        "Canonical SMILES": "O=N(=O)C=1OC(C=CC=2N=C(C=CC2)CO)=CC1",
        "Molecular Formula": "C<sub>12</sub>H<sub>10</sub>N<sub>2</sub>O<sub>4</sub>",
        "Molecular Mass": "246.22",
        "Melting Point": "170-171 °C"
    }
}