{
    "cas_no": "99-67-2",
    "key_name": "2-(2-Propenyl)-4-pentenoic acid",
    "cn_name": null,
    "alternate_name": "4-Pentenoic acid, 2-(2-propen-1-yl)-;4-Pentenoic acid, 2-allyl-;4-Pentenoic acid, 2-(2-propenyl)-;2-(2-Propen-1-yl)-4-pentenoic acid;2-Allyl-4-pentenoic acid;Acetic acid, di-2-propenyl-;Diallylacetic acid;α,α-Diallylacetic acid;2-(2-Propenyl)-4-pentenoic acid;1,6-Heptadiene-4-carboxylic acid;Di-2-propenylacetic acid",
    "duplicated_cas_no": "",
    "SMILES": "C(CC=C)(CC=C)C(O)=O",
    "meta_data": {
        "InChI": "InChI=1S/C8H12O2/c1-3-5-7(6-4-2)8(9)10/h3-4,7H,1-2,5-6H2,(H,9,10)",
        "InChIKey": null,
        "Canonical SMILES": "O=C(O)C(CC=C)CC=C",
        "Molecular Formula": "C<sub>8</sub>H<sub>12</sub>O<sub>2</sub>",
        "Molecular Mass": "140.18",
        "Boiling Point": "75-84 °C @ Press: 2 Torr",
        "Melting Point": "48 °C"
    }
}