{
    "cas_no": "60-25-3",
    "key_name": "Hexamethonium chloride",
    "cn_name": "六甲氯铵;",
    "alternate_name": "1,6-Hexanediaminium, <em>N</em><sup>1</sup>,<em>N</em><sup>1</sup>,<em>N</em><sup>1</sup>,<em>N</em><sup>6</sup>,<em>N</em><sup>6</sup>,<em>N</em><sup>6</sup>-hexamethyl-, chloride (1:2);Ammonium, hexamethylenebis[trimethyl-, dichloride;1,6-Hexanediaminium, <em>N</em>,<em>N</em>,<em>N</em>,<em>N</em>′,<em>N</em>′,<em>N</em>′-hexamethyl-, dichloride;Hexamethylenebis[trimethylammonium chloride];α,ω-Bis[trimethylammonium]hexane dichloride;Bistrium chloride;Chloor-hexaviet;Esomid Chloride;Hestrium chloride;Hexamethonium chloride;Hexamethonium dichloride;Hexameton chloride;Hexon chloride;Hexone chloride;Hiohex Chloride;Methium Chloride;<em>N</em>,<em>N</em>′-Hexamethylenebis(trimethylammonium chloride);Meton",
    "duplicated_cas_no": "4277-80-9",
    "SMILES": "C([N+](C)(C)C)CCCCC[N+](C)(C)C.[Cl-]",
    "meta_data": {
        "InChI": "InChI=1S/C12H30N2.2ClH/c1-13(2,3)11-9-7-8-10-12-14(4,5)6;;/h7-12H2,1-6H3;2*1H/q+2;;/p-2",
        "InChIKey": null,
        "Canonical SMILES": "[Cl-].C[N+](C)(C)CCCCCC[N+](C)(C)C",
        "Molecular Formula": "C<sub>12</sub>H<sub>30</sub>N<sub>2</sub>.2Cl",
        "Molecular Mass": "",
        "Melting Point": "289-292 °C (decomp)"
    }
}