{
    "cas_no": "130-86-9",
    "key_name": "Protopine",
    "cn_name": "原阿片碱;",
    "alternate_name": "Bis[1,3]benzodioxolo[4,5-<em>c</em>:5′,6′-<em>g</em>]azecin-13(5<em>H</em>)-one, 4,6,7,14-tetrahydro-5-methyl-;Protopine;7,13a-Secoberbin-13a-one, 7-methyl-2,3:9,10-bis(methylenedioxy)-;4,6,7,14-Tetrahydro-5-methylbis[1,3]benzodioxolo[4,5-<em>c</em>:5′,6′-<em>g</em>]azecin-13(5<em>H</em>)-one;Biflorine;Fumarine;Macleyine;Corydinine;Protopin;Fumarin",
    "duplicated_cas_no": "",
    "SMILES": "CN1CC=2C3=C(C=CC2CC(=O)C=4C(CC1)=CC5=C(C4)OCO5)OCO3",
    "meta_data": {
        "InChI": "InChI=1S/C20H19NO5/c1-21-5-4-13-7-18-19(25-10-24-18)8-14(13)16(22)6-12-2-3-17-20(15(12)9-21)26-11-23-17/h2-3,7-8H,4-6,9-11H2,1H3",
        "InChIKey": null,
        "Canonical SMILES": "O=C1C2=CC=3OCOC3C=C2CCN(C)CC4=C5OCOC5=CC=C4C1",
        "Molecular Formula": "C<sub>20</sub>H<sub>19</sub>NO<sub>5</sub>",
        "Molecular Mass": "353.37",
        "Melting Point": "208 °C",
        "Density": "1.399 g/cm³"
    }
}