{
    "cas_no": "443305-34-8",
    "key_name": "Pyrimidinium, 2-[(2,5-dioxo-1-pyrrolidinyl)oxy]-3,4,5,6-tetrahydro-1,3-dimethyl-, tetrafluoroborate(1-) (1:1)",
    "cn_name": null,
    "alternate_name": "Pyrimidinium, 2-[(2,5-dioxo-1-pyrrolidinyl)oxy]-3,4,5,6-tetrahydro-1,3-dimethyl-, tetrafluoroborate(1-) (1:1);Pyrimidinium, 2-[(2,5-dioxo-1-pyrrolidinyl)oxy]-3,4,5,6-tetrahydro-1,3-dimethyl-, tetrafluoroborate(1-)",
    "duplicated_cas_no": "",
    "SMILES": "O(N1C(=O)CCC1=O)C2=[N+](C)CCCN2C.[B+3]([F-])([F-])([F-])[F-]",
    "meta_data": {
        "InChI": "InChI=1S/C10H16N3O3.BF4/c1-11-6-3-7-12(2)10(11)16-13-8(14)4-5-9(13)15;2-1(3,4)5/h3-7H2,1-2H3;/q+1;-1",
        "InChIKey": null,
        "Canonical SMILES": "O=C1N(OC=2N(C)CCC[N+]2C)C(=O)CC1.[F-][B+3]([F-])([F-])[F-]",
        "Molecular Formula": "C<sub>10</sub>H<sub>16</sub>N<sub>3</sub>O<sub>3</sub>.BF<sub>4</sub>",
        "Molecular Mass": "",
        "Melting Point": "104-106 °C"
    }
}