{
    "cas_no": "4567-98-0",
    "key_name": "1,11-Dimethyl undecanedioate",
    "cn_name": "十一烷二酸二甲酯;",
    "alternate_name": "Undecanedioic acid, 1,11-dimethyl ester;Undecanedioic acid, dimethyl ester;1,11-Dimethyl undecanedioate;Hendecanedioic acid dimethyl ester;Dimethyl undecanedioate;Dimethyl 1,9-nonanedicarboxylate;NSC 152029",
    "duplicated_cas_no": "",
    "SMILES": "C(CCCCCCCCCC(OC)=O)(OC)=O",
    "meta_data": {
        "InChI": "InChI=1S/C13H24O4/c1-16-12(14)10-8-6-4-3-5-7-9-11-13(15)17-2/h3-11H2,1-2H3",
        "InChIKey": null,
        "Canonical SMILES": "O=C(OC)CCCCCCCCCC(=O)OC",
        "Molecular Formula": "C<sub>13</sub>H<sub>24</sub>O<sub>4</sub>",
        "Molecular Mass": "244.33",
        "Boiling Point": "139-150 °C @ Press: 3 Torr",
        "Melting Point": "21-25 °C"
    }
}