{
    "cas_no": "1188-02-9",
    "key_name": "2-Methylheptanoic acid",
    "cn_name": "2-甲基庚酸;",
    "alternate_name": "Heptanoic acid, 2-methyl-;2-Methylheptanoic acid;α-Methylheptanoic acid;(±)-2-Methylheptanoic acid",
    "duplicated_cas_no": "128441-06-5",
    "SMILES": "C(CCCCC)(C(O)=O)C",
    "meta_data": {
        "InChI": "InChI=1S/C8H16O2/c1-3-4-5-6-7(2)8(9)10/h7H,3-6H2,1-2H3,(H,9,10)",
        "InChIKey": null,
        "Canonical SMILES": "O=C(O)C(C)CCCCC",
        "Molecular Formula": "C<sub>8</sub>H<sub>16</sub>O<sub>2</sub>",
        "Molecular Mass": "144.21",
        "Boiling Point": "121-122 °C @ Press: 13 Torr",
        "Density": "0.9122 g/cm³ @ Temp: 20 °C"
    }
}