{
    "cas_no": "7179-49-9",
    "key_name": "Lincomycin hydrochloride monohydrate",
    "cn_name": null,
    "alternate_name": "<span class=\"text-smallcaps\">D</smallcap>-<em>erythro</em>-α-<smallcap>D</span>-<em>galacto</em>-Octopyranoside, methyl 6,8-dideoxy-6-[[[(2<em>S</em>,4<em>R</em>)-1-methyl-4-propyl-2-pyrrolidinyl]carbonyl]amino]-1-thio-, hydrochloride, hydrate (1:1:1);<span class=\"text-smallcaps\">D</smallcap>-<em>erythro</em>-<smallcap>D</smallcap>-<em>galacto</em>-Octopyranoside, methyl 6,8-dideoxy-6-(1-methyl-4-propyl-<smallcap>L</span>-2-pyrrolidinecarboxamido)-1-thio-, monohydrochloride, monohydrate, <em>trans</em>-α-;<span class=\"text-smallcaps\">D</smallcap>-<em>erythro</em>-α-<smallcap>D</span>-<em>galacto</em>-Octopyranoside, methyl 6,8-dideoxy-6-[[(1-methyl-4-propyl-2-pyrrolidinyl)carbonyl]amino]-1-thio-, monohydrochloride, monohydrate, (2<em>S</em>-<em>trans</em>)-;<span class=\"text-smallcaps\">D</smallcap>-<em>erythro</em>-α-<smallcap>D</span>-<em>galacto</em>-Octopyranoside, methyl 6,8-dideoxy-6-[[[(2<em>S</em>,4<em>R</em>)-1-methyl-4-propyl-2-pyrrolidinyl]carbonyl]amino]-1-thio-, monohydrochloride, monohydrate;Lincomycin hydrochloride monohydrate;Lincomycin hydrochloride hydrate",
    "duplicated_cas_no": "1236362-91-6",
    "SMILES": "[C@@H](NC(=O)[C@@H]1C[C@@H](CCC)CN1C)([C@@H](C)O)[C@]2(O[C@H](SC)[C@H](O)[C@@H](O)[C@H]2O)[H].Cl.O",
    "meta_data": {
        "InChI": "InChI=1S/C18H34N2O6S.ClH.H2O/c1-5-6-10-7-11(20(3)8-10)17(25)19-12(9(2)21)16-14(23)13(22)15(24)18(26-16)27-4;;/h9-16,18,21-24H,5-8H2,1-4H3,(H,19,25);1H;1H2/t9-,10-,11+,12-,13+,14-,15-,16-,18-;;/m1../s1",
        "InChIKey": null,
        "Canonical SMILES": "Cl.O=C(NC(C(O)C)C1OC(SC)C(O)C(O)C1O)C2N(C)CC(CCC)C2.O",
        "Molecular Formula": "C<sub>18</sub>H<sub>34</sub>N<sub>2</sub>O<sub>6</sub>S.ClH.H<sub>2</sub>O",
        "Molecular Mass": "",
        "Melting Point": "145-147 °C"
    }
}