{
    "cas_no": "22149-28-6",
    "key_name": "11-Hydroxytabersonine",
    "cn_name": null,
    "alternate_name": "Aspidospermidine-3-carboxylic acid, 2,3,6,7-tetradehydro-16-hydroxy-, methyl ester, (5α,12<em>R</em>,19α)-;Tabersonine, 11-hydroxy-;Aspidospermidine-3-carboxylic acid, 2,3,6,7-tetradehydro-16-hydroxy-, methyl ester, (5α,12β,19α)-;1<em>H</em>-Indolizino[8,1-<em>cd</em>]carbazole, aspidospermidine-3-carboxylic acid deriv.;16-Hydroxytabersonine;11-Hydroxytabersonine",
    "duplicated_cas_no": "",
    "SMILES": "C(C)[C@@]12[C@]3([C@@]4(C(=C(C(OC)=O)C1)NC=5C4=CC=C(O)C5)CCN3CC=C2)[H]",
    "meta_data": {
        "InChI": "InChI=1S/C21H24N2O3/c1-3-20-7-4-9-23-10-8-21(19(20)23)15-6-5-13(24)11-16(15)22-17(21)14(12-20)18(25)26-2/h4-7,11,19,22,24H,3,8-10,12H2,1-2H3/t19-,20-,21-/m0/s1",
        "InChIKey": null,
        "Canonical SMILES": "O=C(OC)C1=C2NC3=CC(O)=CC=C3C24CCN5CC=CC(C1)(CC)C54",
        "Molecular Formula": "C<sub>21</sub>H<sub>24</sub>N<sub>2</sub>O<sub>3</sub>",
        "Molecular Mass": "352.43",
        "Melting Point": "176 °C"
    }
}