{
    "cas_no": "4524-77-0",
    "key_name": "2-Bromo-4,6-dichlorophenol",
    "cn_name": "2,6-二氯-4-溴酚;2,6-二氯对溴酚；2,6-二氯对溴苯酚；4-溴-2,6-二氯酚；4-溴-2,6-二氯苯酚;",
    "alternate_name": "Phenol, 2-bromo-4,6-dichloro-;2-Bromo-4,6-dichlorophenol;2,4-Dichloro-6-bromophenol;6-Bromo-2,4-dichlorophenol;NSC 99829",
    "duplicated_cas_no": "",
    "SMILES": "OC1=C(Br)C=C(Cl)C=C1Cl",
    "meta_data": {
        "InChI": "InChI=1S/C6H3BrCl2O/c7-4-1-3(8)2-5(9)6(4)10/h1-2,10H",
        "InChIKey": null,
        "Canonical SMILES": "ClC=1C=C(Cl)C(O)=C(Br)C1",
        "Molecular Formula": "C<sub>6</sub>H<sub>3</sub>BrCl<sub>2</sub>O",
        "Molecular Mass": "241.90",
        "Melting Point": "68 °C"
    }
}