{
    "cas_no": "58331-97-8",
    "key_name": "Benzoic acid, 4-chloro-2-cyano-, methyl ester",
    "cn_name": null,
    "alternate_name": "Benzoic acid, 4-chloro-2-cyano-, methyl ester;Methyl 4-chloro-2-cyanobenzoate",
    "duplicated_cas_no": "",
    "SMILES": "C(OC)(=O)C1=C(C#N)C=C(Cl)C=C1",
    "meta_data": {
        "InChI": "InChI=1S/C9H6ClNO2/c1-13-9(12)8-3-2-7(10)4-6(8)5-11/h2-4H,1H3",
        "InChIKey": null,
        "Canonical SMILES": "N#CC1=CC(Cl)=CC=C1C(=O)OC",
        "Molecular Formula": "C<sub>9</sub>H<sub>6</sub>ClNO<sub>2</sub>",
        "Molecular Mass": "195.60",
        "Melting Point": "115-117 °C"
    }
}