{
    "cas_no": "23495-12-7",
    "key_name": "Phenoxyethyl propionate",
    "cn_name": null,
    "alternate_name": "Ethanol, 2-phenoxy-, 1-propanoate;Ethanol, 2-phenoxy-, propionate;Ethanol, 2-phenoxy-, propanoate;2-Phenoxyethyl propionate;Phenoxyethyl propionate;Ethylene glycol monophenyl ether propionate;NSC 6707;2-Phenoxyethyl propanoate",
    "duplicated_cas_no": "",
    "SMILES": "O(CCOC(CC)=O)C1=CC=CC=C1",
    "meta_data": {
        "InChI": "InChI=1S/C11H14O3/c1-2-11(12)14-9-8-13-10-6-4-3-5-7-10/h3-7H,2,8-9H2,1H3",
        "InChIKey": null,
        "Canonical SMILES": "O=C(OCCOC=1C=CC=CC1)CC",
        "Molecular Formula": "C<sub>11</sub>H<sub>14</sub>O<sub>3</sub>",
        "Molecular Mass": "194.23",
        "Boiling Point": "121 °C @ Press: 4 Torr"
    }
}