{
    "cas_no": "132335-44-5",
    "key_name": "(<em>S</em>)-<em>N</em>,<em>N</em>-Dimethyl-3-(2-thienyl)-3-hydroxypropanamine",
    "cn_name": "S-(-)-N,N-二甲基-3-羟基-3-(2-噻吩)丙胺;",
    "alternate_name": "2-Thiophenemethanol, α-[2-(dimethylamino)ethyl]-, (α<em>S</em>)-;2-Thiophenemethanol, α-[2-(dimethylamino)ethyl]-, (<em>S</em>)-;(α<em>S</em>)-α-[2-(Dimethylamino)ethyl]-2-thiophenemethanol;(<em>S</em>)-(-)-<em>N</em>,<em>N</em>-Dimethyl-3-hydroxy-3-(2-thienyl)propanamine;(<em>S</em>)-3-(Dimethylamino)-1-(2-thienyl)-1-propanol;(1<em>S</em>)-3-(Dimethylamino)-1-(2-thienyl)-1-propanol;(<em>S</em>)-<em>N</em>,<em>N</em>-Dimethyl-3-(2-thienyl)-3-hydroxypropanamine;(<em>S</em>)-(-)-3-(Dimethylamino)-1-(thiophen-2-yl)propan-1-ol;(<em>S</em>)-<em>N</em>,<em>N</em>-Dimethyl-3-hydroxy-3-(2-thienyl)-1-propylamine;(<em>S</em>)-α-[2-(Dimethylamino)ethyl]-2-thiophenemethanol;(1S)-3-(Dimethylamino)-1-(thiophen-2-yl)propan-1-ol;(<em>S</em>)-(-)-<em>N</em>,<em>N</em>-Dimethyl-3-hydroxy-3-(2-thienyl)propylamine;(1S)-3-(Dimethylamino)-1-thiophen-2-ylpropan-1-ol",
    "duplicated_cas_no": "",
    "SMILES": "[C@@H](CCN(C)C)(O)C1=CC=CS1",
    "meta_data": {
        "InChI": "InChI=1S/C9H15NOS/c1-10(2)6-5-8(11)9-4-3-7-12-9/h3-4,7-8,11H,5-6H2,1-2H3/t8-/m0/s1",
        "InChIKey": null,
        "Canonical SMILES": "OC(C=1SC=CC1)CCN(C)C",
        "Molecular Formula": "C<sub>9</sub>H<sub>15</sub>NOS",
        "Molecular Mass": "185.29",
        "Melting Point": "78-80 °C"
    }
}