{
    "cas_no": "4316-23-8",
    "key_name": "4-Methylphthalic acid",
    "cn_name": "4-甲基邻苯二甲酸;4-甲基-1,2-苯二羧酸;",
    "alternate_name": "1,2-Benzenedicarboxylic acid, 4-methyl-;Phthalic acid, 4-methyl-;4-Methyl-1,2-benzenedicarboxylic acid;4-Methylphthalic acid;NSC 83573",
    "duplicated_cas_no": "",
    "SMILES": "C(O)(=O)C1=C(C(O)=O)C=C(C)C=C1",
    "meta_data": {
        "InChI": "InChI=1S/C9H8O4/c1-5-2-3-6(8(10)11)7(4-5)9(12)13/h2-4H,1H3,(H,10,11)(H,12,13)",
        "InChIKey": null,
        "Canonical SMILES": "O=C(O)C1=CC=C(C=C1C(=O)O)C",
        "Molecular Formula": "C<sub>9</sub>H<sub>8</sub>O<sub>4</sub>",
        "Molecular Mass": "180.16",
        "Melting Point": "170 °C"
    }
}