{
    "cas_no": "18677-43-5",
    "key_name": "2,4-Dimethoxypyridine",
    "cn_name": "2,4-二甲氧基吡啶;",
    "alternate_name": "Pyridine, 2,4-dimethoxy-;2,4-Dimethoxypyridine",
    "duplicated_cas_no": "",
    "SMILES": "O(C)C=1C=C(OC)N=CC1",
    "meta_data": {
        "InChI": "InChI=1S/C7H9NO2/c1-9-6-3-4-8-7(5-6)10-2/h3-5H,1-2H3",
        "InChIKey": null,
        "Canonical SMILES": "N=1C=CC(OC)=CC1OC",
        "Molecular Formula": "C<sub>7</sub>H<sub>9</sub>NO<sub>2</sub>",
        "Molecular Mass": "139.15",
        "Boiling Point": "200-201 °C"
    }
}