{
    "cas_no": "624-31-7",
    "key_name": "4-Iodotoluene",
    "cn_name": "4-碘甲苯;对碘甲苯;",
    "alternate_name": "Benzene, 1-iodo-4-methyl-;Toluene, <em>p</em>-iodo-;1-Iodo-4-methylbenzene;<em>p</em>-Methyliodobenzene;<em>p</em>-Iodotoluene;<em>p</em>-Tolyl iodide;4-Iodotoluene;1-Methyl-4-iodobenzene;4-Methyliodobenzene;<em>p</em>-Methylphenyl iodide;<em>p</em>-Iodomethylbenzene;4-Methyl-1-iodobenzene;4-Methylphenyl iodide;NSC 3776;4-Iodomethylbenzene",
    "duplicated_cas_no": "",
    "SMILES": "CC1=CC=C(I)C=C1",
    "meta_data": {
        "InChI": "InChI=1S/C7H7I/c1-6-2-4-7(8)5-3-6/h2-5H,1H3",
        "InChIKey": null,
        "Canonical SMILES": "IC1=CC=C(C=C1)C",
        "Molecular Formula": "C<sub>7</sub>H<sub>7</sub>I",
        "Molecular Mass": "218.04",
        "Boiling Point": "211 °C",
        "Melting Point": "36.5 °C"
    }
}