{
    "cas_no": "13470-13-8",
    "key_name": "Tungsten chloride (WCl<sub>4</sub>), (<em>T</em>-4)-",
    "cn_name": "四氯化钨;氯化钨(IV);",
    "alternate_name": "Tungsten chloride (WCl<sub>4</sub>), (<em>T</em>-4)-;Tungsten chloride (WCl<sub>4</sub>);Tungsten tetrachloride;Tungstenyl tetrachloride;Tetrachlorotungsten",
    "duplicated_cas_no": "",
    "SMILES": "[W](Cl)(Cl)(Cl)Cl",
    "meta_data": {
        "InChI": "InChI=1S/4ClH.W/h4*1H;/q;;;;+4/p-4",
        "InChIKey": null,
        "Canonical SMILES": "Cl[W](Cl)(Cl)Cl",
        "Molecular Formula": "Cl<sub>4</sub>W",
        "Molecular Mass": "",
        "Melting Point": "300 °C"
    }
}