{
    "cas_no": "7643-08-5",
    "key_name": "2-(Methylthio)-10<em>H</em>-phenothiazine",
    "cn_name": "2-甲巯基吩噻嗪;",
    "alternate_name": "10<em>H</em>-Phenothiazine, 2-(methylthio)-;Phenothiazine, 2-(methylthio)-;2-(Methylthio)-10<em>H</em>-phenothiazine;3-(Methylthio)phenothiazine;2-(Methylthio)phenothiazine;2-Methylthio-10<em>H</em>-phenothiazine;2-(Methylsulfanyl)-10<em>H</em>-phenothiazine;2-Methylsulfanyl-10<em>H</em>-phenothiazine",
    "duplicated_cas_no": "",
    "SMILES": "S(C)C=1C=C2C(SC=3C(N2)=CC=CC3)=CC1",
    "meta_data": {
        "InChI": "InChI=1S/C13H11NS2/c1-15-9-6-7-13-11(8-9)14-10-4-2-3-5-12(10)16-13/h2-8,14H,1H3",
        "InChIKey": null,
        "Canonical SMILES": "S1C=2C=CC=CC2NC3=CC(SC)=CC=C13",
        "Molecular Formula": "C<sub>13</sub>H<sub>11</sub>NS<sub>2</sub>",
        "Molecular Mass": "245.36",
        "Boiling Point": "190-200 °C @ Press: 0.05 Torr",
        "Melting Point": "137.5-139.5 °C"
    }
}