{
    "cas_no": "4437-51-8",
    "key_name": "3,4-Hexanedione",
    "cn_name": "3,4-己二酮;",
    "alternate_name": "3,4-Hexanedione;Bipropionyl;NSC 23255",
    "duplicated_cas_no": "",
    "SMILES": "C(C(CC)=O)(CC)=O",
    "meta_data": {
        "InChI": "InChI=1S/C6H10O2/c1-3-5(7)6(8)4-2/h3-4H2,1-2H3",
        "InChIKey": null,
        "Canonical SMILES": "O=C(C(=O)CC)CC",
        "Molecular Formula": "C<sub>6</sub>H<sub>10</sub>O<sub>2</sub>",
        "Molecular Mass": "114.14",
        "Boiling Point": "130 °C",
        "Melting Point": "-10 °C",
        "Density": "0.941 g/cm³ @ Temp: 21 °C"
    }
}