{
    "cas_no": "360575-29-7",
    "key_name": "Methyl 4-bromobenzo[<em>b</em>]thiophene-2-carboxylate",
    "cn_name": null,
    "alternate_name": "Benzo[<em>b</em>]thiophene-2-carboxylic acid, 4-bromo-, methyl ester;Methyl 4-bromobenzo[<em>b</em>]thiophene-2-carboxylate;4-Bromobenzo[<em>b</em>]thiophene-2-carboxylic acid methyl ester",
    "duplicated_cas_no": "",
    "SMILES": "BrC1=C2C(SC(C(OC)=O)=C2)=CC=C1",
    "meta_data": {
        "InChI": "InChI=1S/C10H7BrO2S/c1-13-10(12)9-5-6-7(11)3-2-4-8(6)14-9/h2-5H,1H3",
        "InChIKey": null,
        "Canonical SMILES": "O=C(OC)C=1SC=2C=CC=C(Br)C2C1",
        "Molecular Formula": "C<sub>10</sub>H<sub>7</sub>BrO<sub>2</sub>S",
        "Molecular Mass": "271.13",
        "Melting Point": "77-78 °C"
    }
}