{
    "cas_no": "7440-43-9",
    "key_name": "Cadmium",
    "cn_name": "镉;Cd;",
    "alternate_name": "Cadmium;C.I. 77180;MeSH ID: D002104",
    "duplicated_cas_no": "",
    "SMILES": "[Cd]",
    "meta_data": {
        "InChI": "InChI=1S/Cd",
        "InChIKey": null,
        "Canonical SMILES": "[Cd]",
        "Molecular Formula": "Cd",
        "Molecular Mass": "",
        "Boiling Point": "765 °C",
        "Melting Point": "321 °C",
        "Density": "8.65 g/cm³ @ Temp: 25 °C"
    }
}