{
    "cas_no": "1031927-03-3",
    "key_name": "Benzoic acid, 2-bromo-5-cyano-, methyl ester",
    "cn_name": null,
    "alternate_name": "Benzoic acid, 2-bromo-5-cyano-, methyl ester;Methyl 2-bromo-5-cyanobenzoate",
    "duplicated_cas_no": "",
    "SMILES": "C(OC)(=O)C1=CC(C#N)=CC=C1Br",
    "meta_data": {
        "InChI": "InChI=1S/C9H6BrNO2/c1-13-9(12)7-4-6(5-11)2-3-8(7)10/h2-4H,1H3",
        "InChIKey": null,
        "Canonical SMILES": "N#CC1=CC=C(Br)C(=C1)C(=O)OC",
        "Molecular Formula": "C<sub>9</sub>H<sub>6</sub>BrNO<sub>2</sub>",
        "Molecular Mass": "240.05",
        "Melting Point": "10-12 °C"
    }
}