{
    "cas_no": "122-18-9",
    "key_name": "Benzylhexadecyldimethylammonium chloride",
    "cn_name": "N-十六烷基-N,N-二甲基苄基氯化铵;苄基十六烷基二甲基氯化铵;十六烷基苄基二甲基氯化铵;",
    "alternate_name": "Benzenemethanaminium, <em>N</em>-hexadecyl-<em>N</em>,<em>N</em>-dimethyl-, chloride (1:1);Benzylhexadecyldimethylammonium chloride;Ammonium, benzylhexadecyldimethyl-, chloride;Benzenemethanaminium, <em>N</em>-hexadecyl-<em>N</em>,<em>N</em>-dimethyl-, chloride;Ammonyx G;Benzylcetyldimethylammonium chloride;Cetalkonium chloride;Cetol;Cetyldimethylbenzylammonium chloride;Cetylon;Cetyl zephiran;Dimethylbenzylhexadecylammonium chloride;<em>N</em>-Hexadecyl-<em>N</em>-benzyl-<em>N</em>,<em>N</em>-dimethylammonium chloride;Hexadecyldimethylbenzylammonium chloride;<em>n</em>-Hexadecyldimethylbenzylammonium chloride;Pharycidin Concentrate;Tetraseptan;Zettyn chloride;Hexadecylbenzyldimethylammonium chloride;Dimethylbenzylcetylammonium chloride;Acinol;Ammonyx T;Cetylbenzyldimethylammonium chloride;Benzyldimethylhexadecylammonium chloride;DMCBAC;Dehyquart CBB;<em>N</em>-Benzyl-<em>N</em>-cetyldimethylammonium chloride;Baktonium;Win 357;Banicol;Benzaletas;Bicetonium;Bonjela;Spilan;Dehyquart CDB;CDBAC;Benzyldimethylcetylammonium chloride;Querton 16BCL;Sanisol C;Acquat CDAC;Acetoquate CDAC;Zettyn;<em>N</em>-Hexadecyl-<em>N</em>,<em>N</em>-dimethyl-<em>N</em>-benzylammonium chloride;Benzyl-<em>n</em>-hexadecyldimethylammonium chloride;HBAC;<em>N</em>-Benzyl-<em>N</em>,<em>N</em>-dimethyl-<em>N</em>-hexadecylammonium chloride;(Hexadecyl)(dimethyl)(benzyl)amonium chloride",
    "duplicated_cas_no": "52628-07-6;60484-28-8;89004-36-4",
    "SMILES": "C([N+](CCCCCCCCCCCCCCCC)(C)C)C1=CC=CC=C1.[Cl-]",
    "meta_data": {
        "InChI": "InChI=1S/C25H46N.ClH/c1-4-5-6-7-8-9-10-11-12-13-14-15-16-20-23-26(2,3)24-25-21-18-17-19-22-25;/h17-19,21-22H,4-16,20,23-24H2,1-3H3;1H/q+1;/p-1",
        "InChIKey": null,
        "Canonical SMILES": "[Cl-].C=1C=CC(=CC1)C[N+](C)(C)CCCCCCCCCCCCCCCC",
        "Molecular Formula": "C<sub>25</sub>H<sub>46</sub>N.Cl",
        "Molecular Mass": "",
        "Melting Point": "59 °C"
    }
}