{
    "cas_no": "28994-41-4",
    "key_name": "2-Benzylphenol",
    "cn_name": null,
    "alternate_name": "Phenol, 2-(phenylmethyl)-;<em>o</em>-Cresol, α-phenyl-;2-(Phenylmethyl)phenol;<em>o</em>-Benzylphenol;(2-Hydroxydiphenyl)methane;α-Phenyl-<em>o</em>-cresol;Delegol T;<em>o</em>-Hydroxydiphenylmethane;2-Benzylphenol",
    "duplicated_cas_no": "534-83-8",
    "SMILES": "C(C1=C(O)C=CC=C1)C2=CC=CC=C2",
    "meta_data": {
        "InChI": "InChI=1S/C13H12O/c14-13-9-5-4-8-12(13)10-11-6-2-1-3-7-11/h1-9,14H,10H2",
        "InChIKey": null,
        "Canonical SMILES": "OC=1C=CC=CC1CC=2C=CC=CC2",
        "Molecular Formula": "C<sub>13</sub>H<sub>12</sub>O",
        "Molecular Mass": "184.23",
        "Boiling Point": "312 °C",
        "Melting Point": "21 °C",
        "Density": "1.1102 g/cm³ @ Temp: 20 °C"
    }
}