{
    "cas_no": "55107-14-7",
    "key_name": "Methyl 4,4-dimethyl-3-oxopentanoate",
    "cn_name": "新戊酰基乙酸甲酯;特戊酰基乙酸甲酯;",
    "alternate_name": "Pentanoic acid, 4,4-dimethyl-3-oxo-, methyl ester;Methyl pivaloylacetate;Methyl 3-oxo-4,4-dimethylpentanoate;Methyl 4,4-dimethyl-3-oxopentanoate;Methyl 4,4-dimethyl-3-oxovalerate;4,4-Dimethyl-3-oxovaleric acid methyl ester;Pivaloylacetic acid methyl ester;Methyl <em>tert</em>-butylcarbonylacetate;NSC 246205;4,4-Dimethyl-3-oxopentanoic acid methyl ester;1-Methoxy-4,4-dimethyl-1,3-dioxopentane",
    "duplicated_cas_no": "",
    "SMILES": "C(CC(OC)=O)(C(C)(C)C)=O",
    "meta_data": {
        "InChI": "InChI=1S/C8H14O3/c1-8(2,3)6(9)5-7(10)11-4/h5H2,1-4H3",
        "InChIKey": null,
        "Canonical SMILES": "O=C(OC)CC(=O)C(C)(C)C",
        "Molecular Formula": "C<sub>8</sub>H<sub>14</sub>O<sub>3</sub>",
        "Molecular Mass": "158.20",
        "Boiling Point": "67-70 °C @ Press: 13 Torr"
    }
}