{
    "cas_no": "2164-34-3",
    "key_name": "2-(Bromomethyl)-1,4-benzodioxane",
    "cn_name": "2-溴甲基-1，4-苯并二恶烷;2-溴甲基-1,4-苯并二噁烷;",
    "alternate_name": "1,4-Benzodioxin, 2-(bromomethyl)-2,3-dihydro-;1,4-Benzodioxan, 2-(bromomethyl)-;2-(Bromomethyl)-2,3-dihydro-1,4-benzodioxin;2-Bromomethyl-1,4-benzodioxan;2-(Bromomethyl)-1,4-benzodioxane;2-Bromomethyl-2,3-dihydro-1,4-benzodioxin;NSC 106871;2-Bromomethyl-2,3-dihydrobenzo[1,4]dioxine;2-(Bromomethyl)-2,3-dihydrobenzo[<em>b</em>][1,4]dioxine;(2,3-Dihydrobenzo[<em>b</em>][1,4]dioxin-2-yl)methyl bromide",
    "duplicated_cas_no": "",
    "SMILES": "C(Br)C1OC=2C(OC1)=CC=CC2",
    "meta_data": {
        "InChI": "InChI=1S/C9H9BrO2/c10-5-7-6-11-8-3-1-2-4-9(8)12-7/h1-4,7H,5-6H2",
        "InChIKey": null,
        "Canonical SMILES": "BrCC1OC=2C=CC=CC2OC1",
        "Molecular Formula": "C<sub>9</sub>H<sub>9</sub>BrO<sub>2</sub>",
        "Molecular Mass": "229.07",
        "Boiling Point": "126-127 °C @ Press: 0.9 Torr"
    }
}