{
    "cas_no": "2459-09-8",
    "key_name": "Methyl isonicotinate",
    "cn_name": "异烟酸甲酯;",
    "alternate_name": "4-Pyridinecarboxylic acid, methyl ester;Isonicotinic acid, methyl ester;Methyl isonicotinate;Methyl 4-pyridinecarboxylate;4-Methoxycarbonylpyridine;4-Carbomethoxypyridine;NSC 18257",
    "duplicated_cas_no": "",
    "SMILES": "C(OC)(=O)C=1C=CN=CC1",
    "meta_data": {
        "InChI": "InChI=1S/C7H7NO2/c1-10-7(9)6-2-4-8-5-3-6/h2-5H,1H3",
        "InChIKey": null,
        "Canonical SMILES": "O=C(OC)C=1C=CN=CC1",
        "Molecular Formula": "C<sub>7</sub>H<sub>7</sub>NO<sub>2</sub>",
        "Molecular Mass": "137.14",
        "Boiling Point": "208 °C",
        "Melting Point": "16.1 °C"
    }
}