{
    "cas_no": "52665-69-7",
    "key_name": "Calcimycin",
    "cn_name": "离子载体(钙镁盐混合物);",
    "alternate_name": "4-Benzoxazolecarboxylic acid, 5-(methylamino)-2-[[(2<em>R</em>,3<em>R</em>,6<em>S</em>,8<em>S</em>,9<em>R</em>,11<em>R</em>)-3,9,11-trimethyl-8-[(1<em>S</em>)-1-methyl-2-oxo-2-(1<em>H</em>-pyrrol-2-yl)ethyl]-1,7-dioxaspiro[5.5]undec-2-yl]methyl]-;4-Benzoxazolecarboxylic acid, 5-(methylamino)-2-[[3,9,11-trimethyl-8-[1-methyl-2-oxo-2-(1<em>H</em>-pyrrol-2-yl)ethyl]-1,7-dioxaspiro[5.5]undec-2-yl]methyl]-, [6<em>S</em>-[6α(2<em>S</em>*,3<em>S</em>*),8β(<em>R</em>*),9β,11α]]-;1,7-Dioxaspiro[5.5]undecane, 4-benzoxazolecarboxylic acid deriv.;5-(Methylamino)-2-[[(2<em>R</em>,3<em>R</em>,6<em>S</em>,8<em>S</em>,9<em>R</em>,11<em>R</em>)-3,9,11-trimethyl-8-[(1<em>S</em>)-1-methyl-2-oxo-2-(1<em>H</em>-pyrrol-2-yl)ethyl]-1,7-dioxaspiro[5.5]undec-2-yl]methyl]-4-benzoxazolecarboxylic acid;Antibiotic A 23187;A 23187;Calcimycin;[6<em>S</em>-[6α(2<em>S</em>*,3<em>S</em>*),8β(<em>R</em>*),9β,11α]]-5-(Methylamino)-2-[[3,9,11-trimethyl-8-[1-methyl-2-oxo-2-(1<em>H</em>-pyrrol-2-yl)ethyl]-1,7-dioxaspiro[5,5]undec-2-yl]methyl]-4-benzoxazolecarboxylic acid;Ionophore A 23187;Calimycin;Calcium ionophore A 23187;Calcium ionophore III;MeSH ID: D000001",
    "duplicated_cas_no": "37259-87-3;37263-57-3;51257-80-8;51310-65-7;53095-21-9",
    "SMILES": "C[C@H]1[C@]2(O[C@]([C@@H](C(=O)C3=CC=CN3)C)([C@H](C)C1)[H])O[C@H](CC4=NC=5C(O4)=CC=C(NC)C5C(O)=O)[C@H](C)CC2",
    "meta_data": {
        "InChI": "InChI=1S/C29H37N3O6/c1-15-10-11-29(17(3)13-16(2)27(38-29)18(4)26(33)20-7-6-12-31-20)37-22(15)14-23-32-25-21(36-23)9-8-19(30-5)24(25)28(34)35/h6-9,12,15-18,22,27,30-31H,10-11,13-14H2,1-5H3,(H,34,35)/t15-,16-,17-,18-,22-,27+,29+/m1/s1",
        "InChIKey": null,
        "Canonical SMILES": "O=C(O)C1=C2N=C(OC2=CC=C1NC)CC3OC4(OC(C(C(=O)C5=CC=CN5)C)C(C)CC4C)CCC3C",
        "Molecular Formula": "C<sub>29</sub>H<sub>37</sub>N<sub>3</sub>O<sub>6</sub>",
        "Molecular Mass": "523.62",
        "Melting Point": "181.5 °C"
    }
}