{
    "cas_no": "25499-90-5",
    "key_name": "<em>epi</em>-Oleanolic acid",
    "cn_name": "3-表齐墩果酸;",
    "alternate_name": "Olean-12-en-28-oic acid, 3-hydroxy-, (3α)-;Olean-12-en-28-oic acid, 3α-hydroxy-;(3α)-3-Hydroxyolean-12-en-28-oic acid;Epioleanolic acid;3-Epioleanolic acid;3-<em>epi</em>-Oleanolic acid;3α-Hydroxyolean-12-en-28-oic acid;<em>epi</em>-Oleanolic acid",
    "duplicated_cas_no": "",
    "SMILES": "C[C@]12[C@@]3(C)C([C@]4([C@@](C(O)=O)(CC3)CCC(C)(C)C4)[H])=CC[C@@]1([C@]5(C)[C@@](CC2)(C(C)(C)[C@H](O)CC5)[H])[H]",
    "meta_data": {
        "InChI": "InChI=1S/C30H48O3/c1-25(2)14-16-30(24(32)33)17-15-28(6)19(20(30)18-25)8-9-22-27(5)12-11-23(31)26(3,4)21(27)10-13-29(22,28)7/h8,20-23,31H,9-18H2,1-7H3,(H,32,33)/t20-,21-,22+,23+,27-,28+,29+,30-/m0/s1",
        "InChIKey": null,
        "Canonical SMILES": "O=C(O)C12CCC(C)(C)CC2C3=CCC4C5(C)CCC(O)C(C)(C)C5CCC4(C)C3(C)CC1",
        "Molecular Formula": "C<sub>30</sub>H<sub>48</sub>O<sub>3</sub>",
        "Molecular Mass": "456.70",
        "Melting Point": "297-299 °C"
    }
}