{
    "cas_no": "1941-24-8",
    "key_name": "Tetramethylammonium nitrate",
    "cn_name": "硝酸四甲基铵;四甲基硝酸铵;",
    "alternate_name": "Methanaminium, <em>N</em>,<em>N</em>,<em>N</em>-trimethyl-, nitrate (1:1);Ammonium, tetramethyl-, nitrate;Methanaminium, <em>N</em>,<em>N</em>,<em>N</em>-trimethyl-, nitrate;Tetramethylammonium nitrate",
    "duplicated_cas_no": "",
    "SMILES": "N(=O)(=O)[O-].[N+](C)(C)(C)C",
    "meta_data": {
        "InChI": "InChI=1S/C4H12N.NO3/c1-5(2,3)4;2-1(3)4/h1-4H3;/q+1;-1",
        "InChIKey": null,
        "Canonical SMILES": "O=N(=O)[O-].C[N+](C)(C)C",
        "Molecular Formula": "C<sub>4</sub>H<sub>12</sub>N.NO<sub>3</sub>",
        "Molecular Mass": "",
        "Melting Point": "410 °C",
        "Density": "0.70 g/cm³"
    }
}