{
    "cas_no": "1477-55-0",
    "key_name": "<em>m</em>-Xylylenediamine",
    "cn_name": "间苯二甲胺;1,3-苯二甲胺;",
    "alternate_name": "1,3-Benzenedimethanamine;<em>m</em>-Xylene-α,α′-diamine;1,3-Xylylenediamine;α,α′-<em>m</em>-Xylenediamine;<em>m</em>-(α,α′-Diamino)xylene;1,3-Bis(aminomethyl)benzene;α,α′-Diamino-<em>m</em>-xylene;3-(Aminomethyl)benzylamine;1,3-Benzenebis(methylamine);MXDA;Euredur 22;Epilink MX;<em>m</em>-Xylylenediamine;NSC 61568;Shoamine X;Benzene-1,3-diyldimethanamine;<em>m</em>-Xylylene-α,α′-diamine;Aramine 31-487;<em>m</em>-Xylene diamine;Aradur 22;1,3-Phenylenedimethanamine;[3-(Aminomethyl)phenyl]methanamine;ST 12",
    "duplicated_cas_no": "153326-45-5;554432-83-6;1370444-91-9;2138310-14-0",
    "SMILES": "C(N)C1=CC(CN)=CC=C1",
    "meta_data": {
        "InChI": "InChI=1S/C8H12N2/c9-5-7-2-1-3-8(4-7)6-10/h1-4H,5-6,9-10H2",
        "InChIKey": null,
        "Canonical SMILES": "NCC1=CC=CC(=C1)CN",
        "Molecular Formula": "C<sub>8</sub>H<sub>12</sub>N<sub>2</sub>",
        "Molecular Mass": "136.19",
        "Boiling Point": "247 °C",
        "Melting Point": "14.1 °C",
        "Density": "1.05 g/cm³"
    }
}