{
    "cas_no": "824-94-2",
    "key_name": "4-Methoxybenzyl chloride",
    "cn_name": "4-甲氧基氯苄;对甲氧基苄氯;",
    "alternate_name": "Benzene, 1-(chloromethyl)-4-methoxy-;Anisole, <em>p</em>-(chloromethyl)-;1-(Chloromethyl)-4-methoxybenzene;<em>p</em>-Methoxybenzyl chloride;4-Methoxybenzyl chloride;<em>p</em>-Anisyl chloride;<em>p</em>-(Chloromethyl)anisole;α-Chloro-4-methoxytoluene;4-(Chloromethyl)anisole;<em>p</em>-(Chloromethyl)(methoxy)benzene;4-(Chloromethyl)-1-methoxybenzene;NSC 172955;1-(Chloromethyl)-4-(methyloxy)benzene;α-Chloro-<em>p</em>-methoxytoluene;4-(Chloromethyl)phenyl methyl ether;4-Methyloxybenzyl chloride;PBMCl;PMBCl",
    "duplicated_cas_no": "",
    "SMILES": "C(Cl)C1=CC=C(OC)C=C1",
    "meta_data": {
        "InChI": "InChI=1S/C8H9ClO/c1-10-8-4-2-7(6-9)3-5-8/h2-5H,6H2,1H3",
        "InChIKey": null,
        "Canonical SMILES": "ClCC1=CC=C(OC)C=C1",
        "Molecular Formula": "C<sub>8</sub>H<sub>9</sub>ClO",
        "Molecular Mass": "156.61",
        "Boiling Point": "262.5 °C",
        "Melting Point": "24.5 °C",
        "Density": "1.072 g/cm³ @ Temp: 0 °C"
    }
}