{
    "cas_no": "772-46-3",
    "key_name": "α-Ethyl-α-methylbenzeneethanol",
    "cn_name": "2-苄基-2-丁醇;",
    "alternate_name": "Benzeneethanol, α-ethyl-α-methyl-;Phenethyl alcohol, α-ethyl-α-methyl-;α-Ethyl-α-methylbenzeneethanol;2-Benzyl-2-butanol;Benzylethylmethylcarbinol;2-(Phenylmethyl)butan-2-ol;NSC 404644;2-Methyl-1-phenylbutan-2-ol",
    "duplicated_cas_no": "116783-12-1",
    "SMILES": "C(C(CC)(C)O)C1=CC=CC=C1",
    "meta_data": {
        "InChI": "InChI=1S/C11H16O/c1-3-11(2,12)9-10-7-5-4-6-8-10/h4-8,12H,3,9H2,1-2H3",
        "InChIKey": null,
        "Canonical SMILES": "OC(C)(CC=1C=CC=CC1)CC",
        "Molecular Formula": "C<sub>11</sub>H<sub>16</sub>O",
        "Molecular Mass": "164.24",
        "Boiling Point": "115 °C @ Press: 14 Torr",
        "Melting Point": "83.5-84 °C",
        "Density": "0.9746 g/cm³ @ Temp: 19 °C"
    }
}