{
    "cas_no": "151-67-7",
    "key_name": "(±)-Halothane",
    "cn_name": "氟烷;三氟氯溴乙烷;1-溴-1-氯-2,2,2-三氟乙烷;",
    "alternate_name": "Ethane, 2-bromo-2-chloro-1,1,1-trifluoro-;2-Bromo-2-chloro-1,1,1-trifluoroethane;Fluothane;Halothane;Halsan;1,1,1-Trifluoro-2-bromo-2-chloroethane;1,1,1-Trifluoro-2-chloro-2-bromoethane;2,2,2-Trifluoro-1-chloro-1-bromoethane;1-Bromo-1-chloro-2,2,2-trifluoroethane;Narcotane;Narkotan;Fluktan;Narcotan;Anestan;Halan;Freon 123B1;2-Chloro-2-bromo-1,1,1-trifluoroethane;Ftorotan;R 123B1;(±)-Halothane;Alotano;Rhodialothan;NSC 143490;Halothane-Vet;1-Chloro-1-bromo-2,2,2-trifluoroethane;MeSH ID: D006221",
    "duplicated_cas_no": "133098-03-0",
    "SMILES": "C(C(Br)Cl)(F)(F)F",
    "meta_data": {
        "InChI": "InChI=1S/C2HBrClF3/c3-1(4)2(5,6)7/h1H",
        "InChIKey": null,
        "Canonical SMILES": "FC(F)(F)C(Cl)Br",
        "Molecular Formula": "C<sub>2</sub>HBrClF<sub>3</sub>",
        "Molecular Mass": "197.38",
        "Boiling Point": "50.2 °C",
        "Melting Point": "-118 °C",
        "Density": "1.871 g/cm³ @ Temp: 20 °C"
    }
}