{
    "cas_no": "74563-64-7",
    "key_name": "Phytantriol",
    "cn_name": "植三醇;3,7,11,15-四甲基十六烷基-1,2,3-三醇;植醇;3,7,11,15-四甲基-1,2,3-十六烷三醇;3,7,11,15-四甲-2-;",
    "alternate_name": "1,2,3-Hexadecanetriol, 3,7,11,15-tetramethyl-;3,7,11,15-Tetramethyl-1,2,3-hexadecanetriol;Phytanetriol;Phytantriol",
    "duplicated_cas_no": "",
    "SMILES": "C(CCCC(CCCC(CCCC(C)C)C)C)(C(CO)O)(C)O",
    "meta_data": {
        "InChI": "InChI=1S/C20H42O3/c1-16(2)9-6-10-17(3)11-7-12-18(4)13-8-14-20(5,23)19(22)15-21/h16-19,21-23H,6-15H2,1-5H3",
        "InChIKey": null,
        "Canonical SMILES": "OCC(O)C(O)(C)CCCC(C)CCCC(C)CCCC(C)C",
        "Molecular Formula": "C<sub>20</sub>H<sub>42</sub>O<sub>3</sub>",
        "Molecular Mass": "330.55",
        "Boiling Point": "130 °C @ Press: 0.01 Torr"
    }
}