{
    "cas_no": "196597-78-1",
    "key_name": "1,2,6,7-Tetrahydro-8<em>H</em>-indeno[5,4-<em>b</em>]furan-8-one",
    "cn_name": "1,2,6,7-四氢-8H-茚并[5,4-b]呋喃-8-酮;",
    "alternate_name": "8<em>H</em>-Indeno[5,4-<em>b</em>]furan-8-one, 1,2,6,7-tetrahydro-;1,2,6,7-Tetrahydro-8<em>H</em>-indeno[5,4-<em>b</em>]furan-8-one;6,7-Dihydro-1<em>H</em>-indeno[5,4-<em>b</em>]furan-8(2<em>H</em>)-one",
    "duplicated_cas_no": "",
    "SMILES": "O=C1C=2C3=C(C=CC2CC1)OCC3",
    "meta_data": {
        "InChI": "InChI=1S/C11H10O2/c12-9-3-1-7-2-4-10-8(11(7)9)5-6-13-10/h2,4H,1,3,5-6H2",
        "InChIKey": null,
        "Canonical SMILES": "O=C1C=2C(=CC=C3OCCC32)CC1",
        "Molecular Formula": "C<sub>11</sub>H<sub>10</sub>O<sub>2</sub>",
        "Molecular Mass": "174.20",
        "Melting Point": "133-134 °C"
    }
}