{
    "cas_no": "64690-19-3",
    "key_name": "<em>N</em>-Octyl-4-pyridinamine",
    "cn_name": "4-(辛基氨基)吡啶;N-辛基-4-吡啶胺;",
    "alternate_name": "4-Pyridinamine, <em>N</em>-octyl-;<em>N</em>-Octyl-4-pyridinamine;4-(Octylamino)pyridine",
    "duplicated_cas_no": "",
    "SMILES": "N(CCCCCCCC)C=1C=CN=CC1",
    "meta_data": {
        "InChI": "InChI=1S/C13H22N2/c1-2-3-4-5-6-7-10-15-13-8-11-14-12-9-13/h8-9,11-12H,2-7,10H2,1H3,(H,14,15)",
        "InChIKey": null,
        "Canonical SMILES": "N=1C=CC(=CC1)NCCCCCCCC",
        "Molecular Formula": "C<sub>13</sub>H<sub>22</sub>N<sub>2</sub>",
        "Molecular Mass": "206.33",
        "Melting Point": "70-73 °C"
    }
}