{
    "cas_no": "1079-21-6",
    "key_name": "Phenylhydroquinone",
    "cn_name": "2,5-二羟基联苯;",
    "alternate_name": "[1,1′-Biphenyl]-2,5-diol;2,5-Biphenyldiol;Hydroquinone, phenyl-;2,5-Dihydroxybiphenyl;Phenylhydroquinone;1,4-Benzenediol, phenyl-;2-Phenylhydroquinone;2-Phenyl-1,4-benzenediol;2-Phenyl-1,4-dihydroxybenzene;2-Phenyl-1,4-hydroquinone;1,4-Dihydroxy-2-phenylbenzene;Phenyl-<em>p</em>-hydroquinone;NSC 407988;2-Phenyl-4-hydroxyphenol",
    "duplicated_cas_no": "123477-71-4;140627-35-6",
    "SMILES": "OC1=C(C=C(O)C=C1)C2=CC=CC=C2",
    "meta_data": {
        "InChI": "InChI=1S/C12H10O2/c13-10-6-7-12(14)11(8-10)9-4-2-1-3-5-9/h1-8,13-14H",
        "InChIKey": null,
        "Canonical SMILES": "OC=1C=CC(O)=C(C1)C=2C=CC=CC2",
        "Molecular Formula": "C<sub>12</sub>H<sub>10</sub>O<sub>2</sub>",
        "Molecular Mass": "186.21",
        "Melting Point": "97 °C"
    }
}