{
    "cas_no": "16681-67-7",
    "key_name": "4-Bromo-2-methyl-2<em>H</em>-1,2,3-triazole",
    "cn_name": null,
    "alternate_name": "2<em>H</em>-1,2,3-Triazole, 4-bromo-2-methyl-;4-Bromo-2-methyl-2<em>H</em>-1,2,3-triazole",
    "duplicated_cas_no": "",
    "SMILES": "BrC1=NN(C)N=C1",
    "meta_data": {
        "InChI": "InChI=1S/C3H4BrN3/c1-7-5-2-3(4)6-7/h2H,1H3",
        "InChIKey": null,
        "Canonical SMILES": "BrC1=NN(N=C1)C",
        "Molecular Formula": "C<sub>3</sub>H<sub>4</sub>BrN<sub>3</sub>",
        "Molecular Mass": "161.99",
        "Boiling Point": "161-162 °C",
        "Melting Point": "22 °C"
    }
}