{
    "cas_no": "50-55-5",
    "key_name": "(-)-Reserpine",
    "cn_name": "利血平;",
    "alternate_name": "Yohimban-16-carboxylic acid, 11,17-dimethoxy-18-[(3,4,5-trimethoxybenzoyl)oxy]-, methyl ester, (3β,16β,17α,18β,20α)-;3β,20α-Yohimban-16β-carboxylic acid, 18β-hydroxy-11,17α-dimethoxy- methyl ester 3,4,5-trimethoxybenzoate (ester);3β,20α-Yohimban-16β-carboxylic acid, 18β-hydroxy-11,17α-dimethoxy-, methyl ester, 3,4,5-trimethoxybenzoate;Benz[<em>g</em>]indolo[2,3-<em>a</em>]quinolizine, yohimban-16-carboxylic acid deriv.;Anquil;Banasil;Bioserpine;Crystoserpine;Elserpine;Eserpine;Eskaserp;Kitine;Lemiserp;Loweserp;Mayserpine;Reserpic acid methyl ester 3,4,5-trimethoxybenzoate (ester);Methyl reserpate 3,4,5-trimethoxybenzoate (ester);Quiescin;Raucap;Raulen;Raurine;Rau-sed;Rausedil;Rausedyl;Rausingle;Resercen;Reserpamed;Reserpex;Reserpine;Reserpoid;Resine;Respital;Restran;Riserpa;Rivasin;Roxinoid;Sandril;Sedaraupin;Serfin;Serolfia;<em>T</em>-Serp;Serpaloid;Serpanray;Serpasil;Serpate;Serpen;Serpentina;Serpicon;Serpiloid;Sertabs;Sertina;3,4,5-Trimethoxybenzoyl methyl reserpate;Vio-Serpine;Raupasil;Serpine (pharmaceutical);ENT 50146;Serpasil premix;Raunervil;Reserlor;Sedserp;Serpipur;Temposerpine;Serp-AFD;Resercaps;Reserpil;Triserpin;Rauwasedin;Apoplon;Serpasol;Serpine;Carpacil;Hiposerpil;Deserpine;11,17-Dimethoxy-18-[(3,4,5-trimethoxybenzoyl)oxy]yohimban-16-carboxylic acid methyl ester;(-)-Reserpine;Serpasil Serpasol;NSC 237659;NSC 59272;Methyl (1S,2R,3R,4aS,13bR,14aS)-2,11-dimethoxy-3-[(3,4,5-trimethoxybenzoyl)oxy]-1,2,3,4,4a,5,7,8,13,13b,14,14a-dodecahydroindolo[2′,3′:3,4]pyrido[1,2-<em>b</em>]isoquinoline-1-carboxylate;MeSH ID: D012110",
    "duplicated_cas_no": "1407-38-1;8048-25-7;141099-49-2;873409-80-4;909883-12-1;911481-85-1",
    "SMILES": "C(OC)(=O)[C@H]1[C@]2(C[C@@]3(C4=C(C=5C(N4)=CC(OC)=CC5)CCN3C[C@]2(C[C@@H](OC(=O)C6=CC(OC)=C(OC)C(OC)=C6)[C@@H]1OC)[H])[H])[H]",
    "meta_data": {
        "InChI": "InChI=1S/C33H40N2O9/c1-38-19-7-8-20-21-9-10-35-16-18-13-27(44-32(36)17-11-25(39-2)30(41-4)26(12-17)40-3)31(42-5)28(33(37)43-6)22(18)15-24(35)29(21)34-23(20)14-19/h7-8,11-12,14,18,22,24,27-28,31,34H,9-10,13,15-16H2,1-6H3/t18-,22+,24-,27-,28+,31+/m1/s1",
        "InChIKey": null,
        "Canonical SMILES": "O=C(OC1CC2CN3CCC=4C=5C=CC(OC)=CC5NC4C3CC2C(C(=O)OC)C1OC)C6=CC(OC)=C(OC)C(OC)=C6",
        "Molecular Formula": "C<sub>33</sub>H<sub>40</sub>N<sub>2</sub>O<sub>9</sub>",
        "Molecular Mass": "608.68",
        "Melting Point": "264.5 °C"
    }
}