{
    "cas_no": "496-30-0",
    "key_name": "2-Indolinethione",
    "cn_name": null,
    "alternate_name": "2<em>H</em>-Indole-2-thione, 1,3-dihydro-;2-Indolinethione;1,3-Dihydro-2<em>H</em>-indole-2-thione;Indole-2(3<em>H</em>)-thione;Benzazoline-2-thione;2,3-Dihydro-1<em>H</em>-indole-2-thione;1,3-Dihydroindole-2-thione",
    "duplicated_cas_no": "",
    "SMILES": "S=C1CC=2C(N1)=CC=CC2",
    "meta_data": {
        "InChI": "InChI=1S/C8H7NS/c10-8-5-6-3-1-2-4-7(6)9-8/h1-4H,5H2,(H,9,10)",
        "InChIKey": null,
        "Canonical SMILES": "S=C1NC=2C=CC=CC2C1",
        "Molecular Formula": "C<sub>8</sub>H<sub>7</sub>NS",
        "Molecular Mass": "149.21",
        "Melting Point": "33-34 °C"
    }
}