{
    "cas_no": "70458-95-6",
    "key_name": "Pefloxacin mesylate",
    "cn_name": "甲磺酸培氟沙星;1-乙基-6-氟-7-(4-甲基哌嗪基)-4-氧代-1,4-二氢喹啉-3-羧酸甲磺酸盐;",
    "alternate_name": "3-Quinolinecarboxylic acid, 1-ethyl-6-fluoro-1,4-dihydro-7-(4-methyl-1-piperazinyl)-4-oxo-, methanesulfonate (1:1);3-Quinolinecarboxylic acid, 1-ethyl-6-fluoro-1,4-dihydro-7-(4-methyl-1-piperazinyl)-4-oxo-, monomethanesulfonate;Pefloxacin mesylate;Pefloxacin methanesulfonate;41-982RP;Peflacin",
    "duplicated_cas_no": "111037-40-2",
    "SMILES": "C(C)N1C=2C(C(=O)C(C(O)=O)=C1)=CC(F)=C(C2)N3CCN(C)CC3.S(C)(=O)(=O)O",
    "meta_data": {
        "InChI": "InChI=1S/C17H20FN3O3.CH4O3S/c1-3-20-10-12(17(23)24)16(22)11-8-13(18)15(9-14(11)20)21-6-4-19(2)5-7-21;1-5(2,3)4/h8-10H,3-7H2,1-2H3,(H,23,24);1H3,(H,2,3,4)",
        "InChIKey": null,
        "Canonical SMILES": "O=C(O)C1=CN(C2=CC(=C(F)C=C2C1=O)N3CCN(C)CC3)CC.O=S(=O)(O)C",
        "Molecular Formula": "C<sub>17</sub>H<sub>20</sub>FN<sub>3</sub>O<sub>3</sub>.CH<sub>4</sub>O<sub>3</sub>S",
        "Molecular Mass": "",
        "Melting Point": "&gt;250 °C"
    }
}