{
    "cas_no": "3622-35-3",
    "key_name": "6-Benzothiazolecarboxylic acid",
    "cn_name": "苯并噻唑-6-羧酸;1,3-苯并噻唑-6-羧酸;",
    "alternate_name": "6-Benzothiazolecarboxylic acid;1,3-Benzothiazole-6-carboxylic acid;Benzo[<em>d</em>]thiazole-6-carboxylic acid;1: PN: WO2008156676 SEQID: 1 claimed sequence",
    "duplicated_cas_no": "",
    "SMILES": "C(O)(=O)C=1C=C2C(=CC1)N=CS2",
    "meta_data": {
        "InChI": "InChI=1S/C8H5NO2S/c10-8(11)5-1-2-6-7(3-5)12-4-9-6/h1-4H,(H,10,11)",
        "InChIKey": null,
        "Canonical SMILES": "O=C(O)C=1C=CC=2N=CSC2C1",
        "Molecular Formula": "C<sub>8</sub>H<sub>5</sub>NO<sub>2</sub>S",
        "Molecular Mass": "179.20",
        "Melting Point": "245-246 °C"
    }
}