{
    "cas_no": "53185-12-9",
    "key_name": "Fagomine",
    "cn_name": null,
    "alternate_name": "3,4-Piperidinediol, 2-(hydroxymethyl)-, (2<em>R</em>,3<em>R</em>,4<em>R</em>)-;3,4-Piperidinediol, 2-(hydroxymethyl)-, [2<em>R</em>-(2α,3β,4α)]-;(2<em>R</em>,3<em>R</em>,4<em>R</em>)-2-(Hydroxymethyl)-3,4-piperidinediol;Fagomine;1,2,5-Trideoxy-1,5-imino-<span class=\"text-smallcaps\">D</span>-<em>arabino</em>-hexitol;<span class=\"text-smallcaps\">D</span>-Fagomine",
    "duplicated_cas_no": "",
    "SMILES": "C(O)[C@@H]1[C@@H](O)[C@H](O)CCN1",
    "meta_data": {
        "InChI": "InChI=1S/C6H13NO3/c8-3-4-6(10)5(9)1-2-7-4/h4-10H,1-3H2/t4-,5-,6-/m1/s1",
        "InChIKey": null,
        "Canonical SMILES": "OCC1NCCC(O)C1O",
        "Molecular Formula": "C<sub>6</sub>H<sub>13</sub>NO<sub>3</sub>",
        "Molecular Mass": "147.17",
        "Melting Point": "185 °C"
    }
}