{
    "cas_no": "7617-74-5",
    "key_name": "3-(Dodecyloxy)propylamine",
    "cn_name": "3-十二烷氧基丙胺;",
    "alternate_name": "1-Propanamine, 3-(dodecyloxy)-;Propylamine, 3-(dodecyloxy)-;3-(Dodecyloxy)-1-propanamine;3-(Dodecyloxy)propylamine;3-(Lauryloxy)propylamine;3-(Dodecyloxy)propanamine;3-Aminopropyl dodecyl ether;Laurixamine;NSC 166448;Adogen 182;Dodecyl 3-aminopropyl ether;3-Dodecoxypropan-1-amine",
    "duplicated_cas_no": "",
    "SMILES": "C(CCCCCCCC)CCCOCCCN",
    "meta_data": {
        "InChI": "InChI=1S/C15H33NO/c1-2-3-4-5-6-7-8-9-10-11-14-17-15-12-13-16/h2-16H2,1H3",
        "InChIKey": null,
        "Canonical SMILES": "O(CCCN)CCCCCCCCCCCC",
        "Molecular Formula": "C<sub>15</sub>H<sub>33</sub>NO",
        "Molecular Mass": "243.43",
        "Boiling Point": "140 °C @ Press: 3 Torr"
    }
}