{
    "cas_no": "506-24-1",
    "key_name": "9-Octadecynoic acid",
    "cn_name": null,
    "alternate_name": "9-Octadecynoic acid;Stearolic acid;9-Stearolic acid;Octadecanoic acid-9-yne",
    "duplicated_cas_no": "",
    "SMILES": "C(CC#CCCCCCCCC)CCCCCC(O)=O",
    "meta_data": {
        "InChI": "InChI=1S/C18H32O2/c1-2-3-4-5-6-7-8-9-10-11-12-13-14-15-16-17-18(19)20/h2-8,11-17H2,1H3,(H,19,20)",
        "InChIKey": null,
        "Canonical SMILES": "O=C(O)CCCCCCCC#CCCCCCCCC",
        "Molecular Formula": "C<sub>18</sub>H<sub>32</sub>O<sub>2</sub>",
        "Molecular Mass": "280.45",
        "Boiling Point": "189-190 °C @ Press: 1.8 Torr",
        "Melting Point": "48 °C"
    }
}