{
    "cas_no": "510-64-5",
    "key_name": "19-Hydroxyandrostenedione",
    "cn_name": "19-羟基雄甾-4-烯-3,17-二酮;",
    "alternate_name": "Androst-4-ene-3,17-dione, 19-hydroxy-;19-Hydroxyandrost-4-ene-3,17-dione;19-Hydroxyandrostenedione;Androst-4-ene-3,17-dione-19-ol;Androst-4-en-19-ol-3,17-dione;NSC 74233",
    "duplicated_cas_no": "33995-69-6",
    "SMILES": "C(O)[C@@]12[C@@]3([C@]([C@]4([C@](C)(CC3)C(=O)CC4)[H])(CCC1=CC(=O)CC2)[H])[H]",
    "meta_data": {
        "InChI": "InChI=1S/C19H26O3/c1-18-8-7-16-14(15(18)4-5-17(18)22)3-2-12-10-13(21)6-9-19(12,16)11-20/h10,14-16,20H,2-9,11H2,1H3/t14-,15-,16-,18-,19+/m0/s1",
        "InChIKey": null,
        "Canonical SMILES": "O=C1C=C2CCC3C4CCC(=O)C4(C)CCC3C2(CO)CC1",
        "Molecular Formula": "C<sub>19</sub>H<sub>26</sub>O<sub>3</sub>",
        "Molecular Mass": "302.41",
        "Melting Point": "172-173 °C"
    }
}