{
    "cas_no": "152658-17-8",
    "key_name": "2-Propenamide, <em>N</em>-[(5α,6β)-17-(cyclopropylmethyl)-4,5-epoxy-3,14-dihydroxymorphinan-6-yl]-3-(3-furanyl)-<em>N</em>-methyl-, hydrochloride (1:1), (2<em>E</em>)-",
    "cn_name": null,
    "alternate_name": "2-Propenamide, <em>N</em>-[(5α,6β)-17-(cyclopropylmethyl)-4,5-epoxy-3,14-dihydroxymorphinan-6-yl]-3-(3-furanyl)-<em>N</em>-methyl-, hydrochloride (1:1), (2<em>E</em>)-;2-Propenamide, <em>N</em>-[(5α,6β)-17-(cyclopropylmethyl)-4,5-epoxy-3,14-dihydroxymorphinan-6-yl]-3-(3-furanyl)-<em>N</em>-methyl-, monohydrochloride, (<em>E</em>)-;2-Propenamide, <em>N</em>-[(5α,6β)-17-(cyclopropylmethyl)-4,5-epoxy-3,14-dihydroxymorphinan-6-yl]-3-(3-furanyl)-<em>N</em>-methyl-, monohydrochloride, (2<em>E</em>)-;TRK 820;(-)-17-(Cyclopropylmethyl)-3,14β-dihydroxy-4,5α-epoxy-6β-[<em>N</em>-methyl-<em>trans</em>-3-(3-furyl)acrylamido]morphinan hydrochloride;Nalfurafine hydrochloride;Remitch;17-Cyclopropylmethyl-3,14β-dihydroxy-4,5α-epoxy-6β-[<em>N</em>-methyl-<em>trans</em>-3-(3-furyl)acrylamido]morphinan hydrochloride",
    "duplicated_cas_no": "",
    "SMILES": "O[C@]12[C@@]34C=5C(O[C@]3([C@H](N(C(/C=C/C=6C=COC6)=O)C)CC1)[H])=C(O)C=CC5C[C@]2(N(CC7CC7)CC4)[H].Cl",
    "meta_data": {
        "InChI": "InChI=1S/C28H32N2O5.ClH/c1-29(23(32)7-4-18-9-13-34-16-18)20-8-10-28(33)22-14-19-5-6-21(31)25-24(19)27(28,26(20)35-25)11-12-30(22)15-17-2-3-17;/h4-7,9,13,16-17,20,22,26,31,33H,2-3,8,10-12,14-15H2,1H3;1H/b7-4+;/t20-,22-,26+,27+,28-;/m1./s1",
        "InChIKey": null,
        "Canonical SMILES": "Cl.O=C(C=CC1=COC=C1)N(C)C2CCC3(O)C4N(CCC53C6=C(OC25)C(O)=CC=C6C4)CC7CC7",
        "Molecular Formula": "C<sub>28</sub>H<sub>32</sub>N<sub>2</sub>O<sub>5</sub>.ClH",
        "Molecular Mass": "",
        "Melting Point": "207-217 °C"
    }
}