{
    "cas_no": "51-67-2",
    "key_name": "Tyramine",
    "cn_name": "4-羟基苯乙胺;酪胺;",
    "alternate_name": "Phenol, 4-(2-aminoethyl)-;Phenol, <em>p</em>-(2-aminoethyl)-;4-(2-Aminoethyl)phenol;<em>p</em>-β-Aminoethylphenol;<em>p</em>-Hydroxyphenethylamine;4-Hydroxyphenethylamine;α-(4-Hydroxyphenyl)-β-aminoethane;2-(<em>p</em>-Hydroxyphenyl)ethylamine;Systogene;Tocosine;Tyramine;<em>p</em>-Tyramine;Tyrosamine;Uteramine;4-Hydroxyphenylethylamine;Benzeneethanamine, 4-hydroxy-;<em>p</em>-(2-Aminoethyl)phenol;2-(4-Hydroxyphenyl)ethylamine;4-Hydroxy-β-phenylethylamine;<em>p</em>-Hydroxyphenylethylamine;Tyramin;β-(4-Hydroxyphenyl)ethylamine;2-(4′-Hydroxyphenyl)ethylamine;<em>p</em>-Hydroxy-β-phenylethylamine;NSC 249188;2-(4-Hydroxyphenyl)ethanamine;MeSH ID: D014439",
    "duplicated_cas_no": "",
    "SMILES": "C(CN)C1=CC=C(O)C=C1",
    "meta_data": {
        "InChI": "InChI=1S/C8H11NO/c9-6-5-7-1-3-8(10)4-2-7/h1-4,10H,5-6,9H2",
        "InChIKey": null,
        "Canonical SMILES": "OC1=CC=C(C=C1)CCN",
        "Molecular Formula": "C<sub>8</sub>H<sub>11</sub>NO",
        "Molecular Mass": "137.18",
        "Boiling Point": "166 °C @ Press: 2 Torr",
        "Melting Point": "164-165 °C",
        "Density": "0.01510 mol/L"
    }
}