{
    "cas_no": "631-40-3",
    "key_name": "Tetrapropylammonium iodide",
    "cn_name": "四丙基碘化铵;",
    "alternate_name": "1-Propanaminium, <em>N</em>,<em>N</em>,<em>N</em>-tripropyl-, iodide (1:1);Tetrapropylammonium iodide;Ammonium, tetrapropyl-, iodide;1-Propanaminium, <em>N</em>,<em>N</em>,<em>N</em>-tripropyl-, iodide;Tetrapropylammonium iodide (Pr<sub>4</sub>N<sup>+</sup> I<sup>-</sup>)",
    "duplicated_cas_no": "",
    "SMILES": "[N+](CCC)(CCC)(CCC)CCC.[I-]",
    "meta_data": {
        "InChI": "InChI=1S/C12H28N.HI/c1-5-9-13(10-6-2,11-7-3)12-8-4;/h5-12H2,1-4H3;1H/q+1;/p-1",
        "InChIKey": null,
        "Canonical SMILES": "[I-].CCC[N+](CCC)(CCC)CCC",
        "Molecular Formula": "C<sub>12</sub>H<sub>28</sub>N.I",
        "Molecular Mass": "",
        "Melting Point": "280 °C (decomp)"
    }
}