{
    "cas_no": "16606-61-4",
    "key_name": "2,4-Dichlororesorcinol",
    "cn_name": null,
    "alternate_name": "1,3-Benzenediol, 2,4-dichloro-;Resorcinol, 2,4-dichloro-;Resorcinol, 2,6-dichloro-;2,4-Dichloro-1,3-benzenediol;2,4-Dichlororesorcinol",
    "duplicated_cas_no": "",
    "SMILES": "ClC1=C(O)C(Cl)=CC=C1O",
    "meta_data": {
        "InChI": "InChI=1S/C6H4Cl2O2/c7-3-1-2-4(9)5(8)6(3)10/h1-2,9-10H",
        "InChIKey": null,
        "Canonical SMILES": "ClC1=CC=C(O)C(Cl)=C1O",
        "Molecular Formula": "C<sub>6</sub>H<sub>4</sub>Cl<sub>2</sub>O<sub>2</sub>",
        "Molecular Mass": "179.00",
        "Melting Point": "84.5 °C"
    }
}