{
    "cas_no": "1906-82-7",
    "key_name": "Ethyl acetamidoacetate",
    "cn_name": "乙酰甘氨酸乙酯;N-乙酰基甘氨酸乙酯;",
    "alternate_name": "Glycine, <em>N</em>-acetyl-, ethyl ester;Aceturic acid, ethyl ester;<em>N</em>-Acetylglycine ethyl ester;Ethyl <em>N</em>-acetylglycinate;Acetylglycine ethyl ester;Ethyl acetamidoacetate;Ethyl <em>N</em>-acetylglycine;<em>N</em>-Acetylglycine ethyl",
    "duplicated_cas_no": "",
    "SMILES": "C(CNC(C)=O)(OCC)=O",
    "meta_data": {
        "InChI": "InChI=1S/C6H11NO3/c1-3-10-6(9)4-7-5(2)8/h3-4H2,1-2H3,(H,7,8)",
        "InChIKey": null,
        "Canonical SMILES": "O=C(OCC)CNC(=O)C",
        "Molecular Formula": "C<sub>6</sub>H<sub>11</sub>NO<sub>3</sub>",
        "Molecular Mass": "145.16",
        "Boiling Point": "106 °C @ Press: 2 Torr",
        "Melting Point": "48 °C"
    }
}