{
    "cas_no": "2480-26-4",
    "key_name": "<em>N</em>-Methyl-<span class=\"text-smallcaps\">L</span>-serine",
    "cn_name": "N-甲基-L-丝氨酸;",
    "alternate_name": "<span class=\"text-smallcaps\">L</span>-Serine, <em>N</em>-methyl-;Serine, <em>N</em>-methyl-, <span class=\"text-smallcaps\">L</span>-;<em>N</em>-Methyl-<span class=\"text-smallcaps\">L</span>-serine;<em>N</em>-Methylserine;<em>N</em>-Methyl-(<em>S</em>)-serine;(<em>S</em>)-3-Hydroxy-2-methylaminopropionic acid;(<em>S</em>)-3-Hydroxy-2(methylamino)propanoic acid;(2S)-3-Hydroxy-2-(methylamino)propanoic acid",
    "duplicated_cas_no": "",
    "SMILES": "[C@@H](C(O)=O)(CO)NC",
    "meta_data": {
        "InChI": "InChI=1S/C4H9NO3/c1-5-3(2-6)4(7)8/h3,5-6H,2H2,1H3,(H,7,8)/t3-/m0/s1",
        "InChIKey": null,
        "Canonical SMILES": "O=C(O)C(NC)CO",
        "Molecular Formula": "C<sub>4</sub>H<sub>9</sub>NO<sub>3</sub>",
        "Molecular Mass": "119.12",
        "Melting Point": "203-204 °C (decomp)"
    }
}