{
    "cas_no": "19360-67-9",
    "key_name": "4-(Carboxymethoxy)benzoic acid",
    "cn_name": null,
    "alternate_name": "Benzoic acid, 4-(carboxymethoxy)-;<em>p</em>-Anisic acid, α-carboxy-;4-(Carboxymethoxy)benzoic acid;4-Carboxyphenoxyacetic acid;4-Carboxy-1-(carboxymethoxy)benzene;NSC 190728;4-Carboxylphenoxyacetic acid",
    "duplicated_cas_no": "",
    "SMILES": "C(O)(=O)C1=CC=C(OCC(O)=O)C=C1",
    "meta_data": {
        "InChI": "InChI=1S/C9H8O5/c10-8(11)5-14-7-3-1-6(2-4-7)9(12)13/h1-4H,5H2,(H,10,11)(H,12,13)",
        "InChIKey": null,
        "Canonical SMILES": "O=C(O)C1=CC=C(OCC(=O)O)C=C1",
        "Molecular Formula": "C<sub>9</sub>H<sub>8</sub>O<sub>5</sub>",
        "Molecular Mass": "196.16",
        "Melting Point": "280-282 °C"
    }
}