{
    "cas_no": "139110-80-8",
    "key_name": "Zanamivir",
    "cn_name": "扎那米韦(抗流感药);",
    "alternate_name": "<span class=\"text-smallcaps\">D</smallcap>-<em>glycero</em>-<smallcap>D</span>-<em>galacto</em>-Non-2-enonic acid, 5-(acetylamino)-4-[(aminoiminomethyl)amino]-2,6-anhydro-3,4,5-trideoxy-;5-(Acetylamino)-4-[(aminoiminomethyl)amino]-2,6-anhydro-3,4,5-trideoxy-<span class=\"text-smallcaps\">D</smallcap>-<em>glycero</em>-<smallcap>D</span>-<em>galacto</em>-non-2-enonic acid;4-Guanidino-Neu5Ac2en;GG 167;GR 121167X;Zanamivir;GANA;GANA (inhibitor);4-Guanidino-2,4-dideoxy-2,3-dehydro-<em>N</em>-acetylneuraminic acid;Relenza;Zanamir;5-Acetamido-4-guanidino-2,3,4,5-tetradeoxy-<span class=\"text-smallcaps\">D</smallcap>-<em>glycero</em>-<smallcap>D</span>-<em>galacto</em>-non-2-enopyranosonic acid;(2<em>R</em>,3<em>R</em>,4<em>S</em>)-4-Guanidino-3-(prop-1-en-2-ylamino)-2-((1<em>R</em>,2<em>R</em>)-1,2,3-trihydroxypropyl)-3,4-dihydro-2<em>H</em>-pyran-6-carboxylic acid;Zanamvir;Zanamiwei;Dectova;MeSH ID: D053243",
    "duplicated_cas_no": "720666-86-4;851070-78-5;1537183-66-6;2305982-64-1",
    "SMILES": "N(C(C)=O)[C@H]1[C@]([C@@H]([C@@H](CO)O)O)(OC(C(O)=O)=C[C@@H]1NC(=N)N)[H]",
    "meta_data": {
        "InChI": "InChI=1S/C12H20N4O7/c1-4(18)15-8-5(16-12(13)14)2-7(11(21)22)23-10(8)9(20)6(19)3-17/h2,5-6,8-10,17,19-20H,3H2,1H3,(H,15,18)(H,21,22)(H4,13,14,16)/t5-,6+,8+,9+,10+/m0/s1",
        "InChIKey": null,
        "Canonical SMILES": "O=C(O)C=1OC(C(O)C(O)CO)C(NC(=O)C)C(C1)NC(=N)N",
        "Molecular Formula": "C<sub>12</sub>H<sub>20</sub>N<sub>4</sub>O<sub>7</sub>",
        "Molecular Mass": "332.31",
        "Melting Point": "253-255 °C"
    }
}