{
    "cas_no": "3163-07-3",
    "key_name": "4-Nitroresorcinol",
    "cn_name": null,
    "alternate_name": "1,3-Benzenediol, 4-nitro-;Resorcinol, 4-nitro-;4-Nitro-1,3-benzenediol;4-Nitroresorcinol;4-Nitro-3-hydroxyphenol;5-Hydroxy-2-nitrophenol;4-Nitroresorcin",
    "duplicated_cas_no": "",
    "SMILES": "N(=O)(=O)C1=C(O)C=C(O)C=C1",
    "meta_data": {
        "InChI": "InChI=1S/C6H5NO4/c8-4-1-2-5(7(10)11)6(9)3-4/h1-3,8-9H",
        "InChIKey": null,
        "Canonical SMILES": "O=N(=O)C1=CC=C(O)C=C1O",
        "Molecular Formula": "C<sub>6</sub>H<sub>5</sub>NO<sub>4</sub>",
        "Molecular Mass": "155.11",
        "Boiling Point": "178 °C",
        "Melting Point": "122 °C"
    }
}