{
    "cas_no": "6685-76-3",
    "key_name": "Carbonic acid, compd. with <em>N</em>-phenylguanidine (1:1)",
    "cn_name": "苯基胍碳酸盐;",
    "alternate_name": "Carbonic acid, compd. with <em>N</em>-phenylguanidine (1:1);Carbonic acid, compd. with phenylguanidine (1:1);Guanidine, phenyl-, carbonate (1:1);Phenylguanidine bicarbonate;Phenylguanidine hydrogen carbonate;<em>N</em>-Phenylguanidinium carbonate;1-Phenylguanidine carbonate",
    "duplicated_cas_no": "",
    "SMILES": "N(C(=N)N)C1=CC=CC=C1.C(=O)(O)O",
    "meta_data": {
        "InChI": "InChI=1S/C7H9N3.CH2O3/c8-7(9)10-6-4-2-1-3-5-6;2-1(3)4/h1-5H,(H4,8,9,10);(H2,2,3,4)",
        "InChIKey": null,
        "Canonical SMILES": "O=C(O)O.N=C(N)NC=1C=CC=CC1",
        "Molecular Formula": "C<sub>7</sub>H<sub>9</sub>N<sub>3</sub>.CH<sub>2</sub>O<sub>3</sub>",
        "Molecular Mass": "",
        "Melting Point": "220 °C (decomp)"
    }
}