{
    "cas_no": "65001-80-1",
    "key_name": "1-Bromo-2,4-dichloro-5-nitrobenzene",
    "cn_name": null,
    "alternate_name": "Benzene, 1-bromo-2,4-dichloro-5-nitro-;1-Bromo-2,4-dichloro-5-nitrobenzene",
    "duplicated_cas_no": "",
    "SMILES": "N(=O)(=O)C1=C(Cl)C=C(Cl)C(Br)=C1",
    "meta_data": {
        "InChI": "InChI=1S/C6H2BrCl2NO2/c7-3-1-6(10(11)12)5(9)2-4(3)8/h1-2H",
        "InChIKey": null,
        "Canonical SMILES": "O=N(=O)C1=CC(Br)=C(Cl)C=C1Cl",
        "Molecular Formula": "C<sub>6</sub>H<sub>2</sub>BrCl<sub>2</sub>NO<sub>2</sub>",
        "Molecular Mass": "270.90",
        "Melting Point": "69 °C"
    }
}