{
    "cas_no": "2591-76-6",
    "key_name": "<em>N</em>,<em>N</em>-Bis(2-methylpropyl)formamide",
    "cn_name": null,
    "alternate_name": "Formamide, <em>N</em>,<em>N</em>-bis(2-methylpropyl)-;Formamide, <em>N</em>,<em>N</em>-diisobutyl-;<em>N</em>,<em>N</em>-Bis(2-methylpropyl)formamide;<em>N</em>,<em>N</em>-Diisobutylformamide",
    "duplicated_cas_no": "",
    "SMILES": "N(CC(C)C)(CC(C)C)C=O",
    "meta_data": {
        "InChI": "InChI=1S/C9H19NO/c1-8(2)5-10(7-11)6-9(3)4/h7-9H,5-6H2,1-4H3",
        "InChIKey": null,
        "Canonical SMILES": "O=CN(CC(C)C)CC(C)C",
        "Molecular Formula": "C<sub>9</sub>H<sub>19</sub>NO",
        "Molecular Mass": "157.25",
        "Boiling Point": "120 °C @ Press: 20 Torr"
    }
}