{
    "cas_no": "117857-93-9",
    "key_name": "(α<em>S</em>,1<em>S</em>,2<em>S</em>)-α-Amino-2-carboxycyclopropaneacetic acid",
    "cn_name": null,
    "alternate_name": "Cyclopropaneacetic acid, α-amino-2-carboxy-, (α<em>S</em>,1<em>S</em>,2<em>S</em>)-;Cyclopropaneacetic acid, α-amino-2-carboxy-, [1<em>S</em>-[1α(<em>R</em>*),2β]]-;(α<em>S</em>,1<em>S</em>,2<em>S</em>)-α-Amino-2-carboxycyclopropaneacetic acid;(2<em>S</em>,3<em>S</em>,4<em>S</em>)-α-(Carboxycyclopropyl)glycine;(2<em>S</em>,3<em>S</em>,4<em>S</em>)-2-(Carboxycyclopropyl)glycine;<span class=\"text-smallcaps\">L</span>-CCG I;L-CCG-I;(2<em>S</em>,1′<em>S</em>,2′<em>S</em>)-2-(Carboxycyclopropyl)glycine",
    "duplicated_cas_no": "",
    "SMILES": "[C@H](C(O)=O)(N)[C@@]1([C@@H](C(O)=O)C1)[H]",
    "meta_data": {
        "InChI": "InChI=1S/C6H9NO4/c7-4(6(10)11)2-1-3(2)5(8)9/h2-4H,1,7H2,(H,8,9)(H,10,11)/t2-,3-,4-/m0/s1",
        "InChIKey": null,
        "Canonical SMILES": "O=C(O)C(N)C1CC1C(=O)O",
        "Molecular Formula": "C<sub>6</sub>H<sub>9</sub>NO<sub>4</sub>",
        "Molecular Mass": "159.14",
        "Melting Point": "243-245 °C (decomp)"
    }
}