{
    "cas_no": "196929-78-9",
    "key_name": "(R)-2-Methylpropane-2-sulfinamide",
    "cn_name": "(R)-(+)-叔丁基亚磺酰胺;",
    "alternate_name": "2-Propanesulfinamide, 2-methyl-, [<em>S</em>(<em>R</em>)]-;2-Propanesulfinamide, 2-methyl-, (<em>R</em>)-;[<em>S</em>(<em>R</em>)]-2-Methyl-2-propanesulfinamide;(<em>R</em>)-<em>tert</em>-Butanesulfinamide;(<em>R</em>)-(+)-2-Methyl-2-propanesulfinamide;(<em>R</em>)-<em>tert</em>-Butylsulfinamide;(<em>R</em>)-2-Methyl-2-propanesulfinamide;(<em>R</em>)-(+)-<em>tert</em>-Butanesulfinamide;(<em>R</em>)-(+)-<em>tert</em>-Butylsulfinamide;(R)-2-Methylpropane-2-sulfinamide;(R)-(+)-2-Methyl-2-propanesulfinamide;(R)-2-Methylpropan-2-sulfinamide;(R)-<em>tert</em>-Butylsulfinamide;(R)-(+)-<em>tert</em>-Butylsulfinamide;(R)-<em>tert</em>-Butanesulfinamide;(<em>R</em>)-<em>t</em>-Butyl sulfinamide;(<em>R</em>)-<em>tert</em>-Butanesulfinimide",
    "duplicated_cas_no": "1461641-92-8;2138272-72-5",
    "SMILES": "C(S(N)=O)(C)(C)C",
    "meta_data": {
        "InChI": "InChI=1S/C4H11NOS/c1-4(2,3)7(5)6/h5H2,1-3H3/t7-/m1/s1",
        "InChIKey": null,
        "Canonical SMILES": "O=S(N)C(C)(C)C",
        "Molecular Formula": "C<sub>4</sub>H<sub>11</sub>NOS",
        "Molecular Mass": "121.20",
        "Melting Point": "101-102 °C"
    }
}