{
    "cas_no": "3085-30-1",
    "key_name": "Aluminum tributoxide",
    "cn_name": "丁醇铝;",
    "alternate_name": "1-Butanol, aluminum salt (3:1);Aluminum butoxide;Butyl alcohol, aluminum salt;1-Butanol, aluminum salt;Tributoxyaluminum;Aluminum tributoxide;Aluminum butylate;Aluminum tributylate;Tris(butoxy)aluminum;Tributyl aluminate;Aluminum <em>n</em>-butylate;Aluminum <em>n</em>-butoxide;Aluminum tributoxide (Al(OBu)<sub>3</sub>);Aluminum butanolate;AKA 020",
    "duplicated_cas_no": "170153-88-5;478921-84-5;1384481-13-3",
    "SMILES": "C(CC)CO.[Al]",
    "meta_data": {
        "InChI": "InChI=1S/C4H10O.Al/c1-2-3-4-5;/h5H,2-4H2,1H3;",
        "InChIKey": null,
        "Canonical SMILES": "[Al].OCCCC",
        "Molecular Formula": "C<sub>4</sub>H<sub>10</sub>O.<sup>1</sup>/<sub>3</sub>Al",
        "Molecular Mass": "",
        "Boiling Point": "242 °C @ Press: 0.7 Torr",
        "Melting Point": "102 °C"
    }
}