{
    "cas_no": "76-19-7",
    "key_name": "Perfluoropropane",
    "cn_name": "全氟丙烷;八氟丙烷;",
    "alternate_name": "Propane, 1,1,1,2,2,3,3,3-octafluoro-;Propane, octafluoro-;1,1,1,2,2,3,3,3-Octafluoropropane;Octafluoropropane;Freon 218;Perfluoropropane;Genetron 218;R 218;FC 218;FC 218 (refrigerant);HFC 218;FS 069;PFC 218;Perflutren;Definity;Optison;Meforex 218;DMP 115;MRX 115;F 218;MRH 815H;YM 454;Khladon 218",
    "duplicated_cas_no": "300408-51-9;218599-63-4",
    "SMILES": "C(C(F)(F)F)(C(F)(F)F)(F)F",
    "meta_data": {
        "InChI": "InChI=1S/C3F8/c4-1(5,2(6,7)8)3(9,10)11",
        "InChIKey": null,
        "Canonical SMILES": "FC(F)(F)C(F)(F)C(F)(F)F",
        "Molecular Formula": "C<sub>3</sub>F<sub>8</sub>",
        "Molecular Mass": "188.02",
        "Boiling Point": "-36.6 °C",
        "Melting Point": "-147.6 °C",
        "Density": "1.23976 g/cm³ (liquid) @ Temp: 38 °C; Press: 9102.0 Torr"
    }
}