{
    "cas_no": "12262-58-7",
    "key_name": "Cyclohexanone peroxide",
    "cn_name": null,
    "alternate_name": "Cyclohexanone, peroxide;Cyclohexanone peroxide;Cyclonox LNC;Cyclonox LE 50;Luperox CH-S;Cyclonox LE;Interox CHP-HA-M 2;Peroxycyclohexanone;Cyclonox BT 50;Perhexa H;Cyclonox LR;Trigonox 113",
    "duplicated_cas_no": "31094-53-8;86329-08-0",
    "SMILES": "",
    "meta_data": {
        "InChI": "",
        "InChIKey": null,
        "Canonical SMILES": "",
        "Molecular Formula": "Unspecified",
        "Molecular Mass": "",
        "Melting Point": "65-70 °C"
    }
}