{
    "uri": "substance/pt/12262587",
    "rn": "12262-58-7",
    "name": "Cyclohexanone peroxide",
    "images": [],
    "inchi": "",
    "inchiKey": "",
    "smile": "",
    "canonicalSmile": "",
    "molecularFormula": "Unspecified",
    "molecularMass": "",
    "experimentalProperties": [
        {
            "name": "Melting Point",
            "property": "65-70 °C",
            "sourceNumber": 1
        }
    ],
    "propertyCitations": [
        {
            "docUri": "document/pt/document/23088628",
            "sourceNumber": 1,
            "source": "Stoll, M.; Helvetica Chimica Acta, (1930), 13, 142-53, CAplus"
        }
    ],
    "synonyms": [
        "Cyclohexanone, peroxide",
        "Cyclohexanone peroxide",
        "Cyclonox LNC",
        "Cyclonox LE 50",
        "Luperox CH-S",
        "Cyclonox LE",
        "Interox CHP-HA-M 2",
        "Peroxycyclohexanone",
        "Cyclonox BT 50",
        "Perhexa H",
        "Cyclonox LR",
        "Trigonox 113"
    ],
    "replacedRns": [
        "31094-53-8",
        "86329-08-0"
    ],
    "hasMolfile": false,
    "source": "https://commonchemistry.cas.org/detail?cas_rn=12262-58-7"
}