{
    "cas_no": "939-52-6",
    "key_name": "4-Chlorobutyrophenone",
    "cn_name": null,
    "alternate_name": "1-Butanone, 4-chloro-1-phenyl-;Butyrophenone, 4-chloro-;4-Chloro-1-phenyl-1-butanone;γ-Chlorobutyrophenone;4-Chlorobutyrophenone;3-Benzoylpropyl chloride;3-Chloropropyl phenyl ketone;1-Benzoyl-3-chloropropane;NSC 76579",
    "duplicated_cas_no": "",
    "SMILES": "C(CCCCl)(=O)C1=CC=CC=C1",
    "meta_data": {
        "InChI": "InChI=1S/C10H11ClO/c11-8-4-7-10(12)9-5-2-1-3-6-9/h1-3,5-6H,4,7-8H2",
        "InChIKey": null,
        "Canonical SMILES": "O=C(C=1C=CC=CC1)CCCCl",
        "Molecular Formula": "C<sub>10</sub>H<sub>11</sub>ClO",
        "Molecular Mass": "182.65",
        "Boiling Point": "133.5-135 °C @ Press: 11 Torr",
        "Melting Point": "19.5 °C",
        "Density": "1.149 g/cm³ @ Temp: 20 °C"
    }
}