{
    "cas_no": "24654-55-5",
    "key_name": "3-(4-Fluorophenyl)-2-propenal",
    "cn_name": null,
    "alternate_name": "2-Propenal, 3-(4-fluorophenyl)-;Cinnamaldehyde, <em>p</em>-fluoro-;3-(4-Fluorophenyl)-2-propenal;4-Fluorocinnamaldehyde;<em>p</em>-Fluorocinnamaldehyde;3-(4-Fluorophenyl)acrolein",
    "duplicated_cas_no": "",
    "SMILES": "C(=CC=O)C1=CC=C(F)C=C1",
    "meta_data": {
        "InChI": "InChI=1S/C9H7FO/c10-9-5-3-8(4-6-9)2-1-7-11/h1-7H",
        "InChIKey": null,
        "Canonical SMILES": "O=CC=CC1=CC=C(F)C=C1",
        "Molecular Formula": "C<sub>9</sub>H<sub>7</sub>FO",
        "Molecular Mass": "150.15",
        "Boiling Point": "80-95 °C @ Press: 2 Torr"
    }
}