{
    "cas_no": "30235-27-9",
    "key_name": "4-(3-Pyridinyl)-2-thiazolamine",
    "cn_name": null,
    "alternate_name": "2-Thiazolamine, 4-(3-pyridinyl)-;Pyridine, 3-(2-amino-4-thiazolyl)-;4-(3-Pyridinyl)-2-thiazolamine;2-Amino-4-(3-pyridyl)thiazole;4-(3-Pyridyl)-2-thiazolamine;3-(2-Aminothiazol-4-yl)pyridine;4-(3-Pyridyl)-1,3-thiazol-2-amine;4-(Pyridin-3-yl)-2-amino-1,3-thiazole;[4-(Pyridin-3-yl)thiazol-2-yl]amine;4-(Pyridin-3-yl)thiazol-2-amine;4-(Pyridin-3-yl)-1,3-thiazol-2-amine;4-(Pyridin-3-yl)-4,5-dihydrothiazol-2-amine",
    "duplicated_cas_no": "950884-07-8",
    "SMILES": "NC1=NC(=CS1)C=2C=CC=NC2",
    "meta_data": {
        "InChI": "InChI=1S/C8H7N3S/c9-8-11-7(5-12-8)6-2-1-3-10-4-6/h1-5H,(H2,9,11)",
        "InChIKey": null,
        "Canonical SMILES": "N=1C=CC=C(C1)C=2N=C(SC2)N",
        "Molecular Formula": "C<sub>8</sub>H<sub>7</sub>N<sub>3</sub>S",
        "Molecular Mass": "177.23",
        "Melting Point": "213 °C"
    }
}