{
    "cas_no": "2312-23-4",
    "key_name": "Hydrazine, (3-chlorophenyl)-, hydrochloride (1:1)",
    "cn_name": "3-氯苯肼盐酸盐;盐酸间氯苯肼;",
    "alternate_name": "Hydrazine, (3-chlorophenyl)-, hydrochloride (1:1);Hydrazine, (<em>m</em>-chlorophenyl)-, hydrochloride;Hydrazine, (3-chlorophenyl)-, monohydrochloride;3-Chlorophenylhydrazine hydrochloride;<em>m</em>-Chlorophenylhydrazine hydrochloride;<em>N</em>-(3-Chlorophenyl)hydrazine hydrochloride;(3-Chlorophenyl)hydrazine monohydrochloride;2-(3-Chlorophenyl)hydrazinium chloride",
    "duplicated_cas_no": "",
    "SMILES": "N(N)C1=CC(Cl)=CC=C1.Cl",
    "meta_data": {
        "InChI": "InChI=1S/C6H7ClN2.ClH/c7-5-2-1-3-6(4-5)9-8;/h1-4,9H,8H2;1H",
        "InChIKey": null,
        "Canonical SMILES": "Cl.ClC1=CC=CC(=C1)NN",
        "Molecular Formula": "C<sub>6</sub>H<sub>7</sub>ClN<sub>2</sub>.ClH",
        "Molecular Mass": "",
        "Melting Point": "234-235 °C (decomp)"
    }
}