{
    "cas_no": "7440-31-5",
    "key_name": "Tin",
    "cn_name": "锡,粉状;锡,粒状;锡粉;金属锡;锡;锡粉/锡粒;锡箔;锡丸;锡球;锡丸;",
    "alternate_name": "Tin;C.I. 77860;C.I. Pigment Metal 5;Metallic tin;Silver Matt Powder;Tin Flake;Tin Powder;Wang;Tin element;Tin Paste 62-1177;Sn-S 200;SNE 06PB;TEGO 30;TEGO 60;AT-SN;Sn-HWQ;Sn-S-HWQ;PO 1;PO 2;W-Sn;G-Sn;FSn 2;AT-Sn600;Y-Sn100-Q2510;SNE 04PB;AH 302;Lecocel 501-059;ST-M 011-5;Sn99.90AA;Sn-HPN;Tin Powder 325;MeSH ID: D014001;S 212 (tin);S 212",
    "duplicated_cas_no": "",
    "SMILES": "[Sn]",
    "meta_data": {
        "InChI": "InChI=1S/Sn",
        "InChIKey": null,
        "Canonical SMILES": "[Sn]",
        "Molecular Formula": "Sn",
        "Molecular Mass": "",
        "Boiling Point": "2507 °C",
        "Melting Point": "231.9 °C",
        "Density": "7.31 g/cm³"
    }
}