{
    "cas_no": "143062-84-4",
    "key_name": "Cyclopropanamine, 2-fluoro-, (1<em>R</em>,2<em>S</em>)-, 4-methylbenzenesulfonate (1:1)",
    "cn_name": null,
    "alternate_name": "Cyclopropanamine, 2-fluoro-, (1<em>R</em>,2<em>S</em>)-, 4-methylbenzenesulfonate (1:1);Cyclopropanamine, 2-fluoro-, (1<em>R</em>,2<em>S</em>)-, 4-methylbenzenesulfonate;(1<em>R</em>,2<em>S</em>)-2-Fluorocyclopropylamine <em>p</em>-toluenesulfonate;(1<em>R</em>,2<em>S</em>)-2-Fluorocyclopropylamine tosylate;(1<em>R</em>,2<em>S</em>)-2-Fluorocyclopropanamine 4-methylbenzenesulfonate;((1R,2S)-2-Fluorocyclopropyl)amine 4-methylbenzenesulfonate",
    "duplicated_cas_no": "",
    "SMILES": "F[C@@H]1[C@H](N)C1.S(=O)(=O)(O)C1=CC=C(C)C=C1",
    "meta_data": {
        "InChI": "InChI=1S/C7H8O3S.C3H6FN/c1-6-2-4-7(5-3-6)11(8,9)10;4-2-1-3(2)5/h2-5H,1H3,(H,8,9,10);2-3H,1,5H2/t;2-,3+/m.0/s1",
        "InChIKey": null,
        "Canonical SMILES": "O=S(=O)(O)C1=CC=C(C=C1)C.FC1CC1N",
        "Molecular Formula": "C<sub>7</sub>H<sub>8</sub>O<sub>3</sub>S.C<sub>3</sub>H<sub>6</sub>FN",
        "Molecular Mass": "",
        "Melting Point": "169-170 °C"
    }
}