{
    "cas_no": "1904-98-9",
    "key_name": "2,6-Diaminopurine",
    "cn_name": "2,6-二氨基嘌呤;",
    "alternate_name": "9<em>H</em>-Purine-2,6-diamine;Purine, 2,6-diamino-;1<em>H</em>-Purine-2,6-diamine;2,6-Diaminopurine;2-Aminoadenine;SQ 21065;NSC 743",
    "duplicated_cas_no": "1006-52-6;39001-24-6",
    "SMILES": "NC1=C2C(=NC(N)=N1)N=CN2",
    "meta_data": {
        "InChI": "InChI=1S/C5H6N6/c6-3-2-4(9-1-8-2)11-5(7)10-3/h1H,(H5,6,7,8,9,10,11)",
        "InChIKey": null,
        "Canonical SMILES": "N1=CNC2=C1N=C(N=C2N)N",
        "Molecular Formula": "C<sub>5</sub>H<sub>6</sub>N<sub>6</sub>",
        "Molecular Mass": "150.14",
        "Melting Point": "302 °C"
    }
}