{
    "cas_no": "940-31-8",
    "key_name": "<span class=\"text-smallcaps\">DL</span>-2-Phenoxypropionic acid",
    "cn_name": "2-苯氧基丙酸;",
    "alternate_name": "Propanoic acid, 2-phenoxy-;Propionic acid, 2-phenoxy-;2-Phenoxypropanoic acid;2-Phenoxypropionic acid;α-Phenoxypropionic acid;α-Methylphenoxyacetic acid;(±)-2-Phenoxypropionic acid;<span class=\"text-smallcaps\">DL</span>-2-Phenoxypropionic acid;NSC 1866;NSC 404102;2-PPA",
    "duplicated_cas_no": "1912-21-6",
    "SMILES": "O(C(C(O)=O)C)C1=CC=CC=C1",
    "meta_data": {
        "InChI": "InChI=1S/C9H10O3/c1-7(9(10)11)12-8-5-3-2-4-6-8/h2-7H,1H3,(H,10,11)",
        "InChIKey": null,
        "Canonical SMILES": "O=C(O)C(OC=1C=CC=CC1)C",
        "Molecular Formula": "C<sub>9</sub>H<sub>10</sub>O<sub>3</sub>",
        "Molecular Mass": "166.17",
        "Melting Point": "135 °C"
    }
}