{
    "cas_no": "610-37-7",
    "key_name": "5-Hydroxy-2-nitrobenzoic acid",
    "cn_name": "5-羟基-2-硝基苯甲酸;",
    "alternate_name": "Benzoic acid, 5-hydroxy-2-nitro-;5-Hydroxy-2-nitrobenzoic acid;3-Carboxy-4-nitrophenol",
    "duplicated_cas_no": "",
    "SMILES": "N(=O)(=O)C1=C(C(O)=O)C=C(O)C=C1",
    "meta_data": {
        "InChI": "InChI=1S/C7H5NO5/c9-4-1-2-6(8(12)13)5(3-4)7(10)11/h1-3,9H,(H,10,11)",
        "InChIKey": null,
        "Canonical SMILES": "O=C(O)C1=CC(O)=CC=C1N(=O)=O",
        "Molecular Formula": "C<sub>7</sub>H<sub>5</sub>NO<sub>5</sub>",
        "Molecular Mass": "183.12",
        "Melting Point": "171.5-172 °C"
    }
}