{
    "cas_no": "434-16-2",
    "key_name": "7-Dehydrocholesterol",
    "cn_name": "7-去氢胆固醇;3beta-胆甾-5,7-二烯-3-醇;",
    "alternate_name": "Cholesta-5,7-dien-3-ol, (3β)-;Cholesta-5,7-dien-3β-ol;(3β)-Cholesta-5,7-dien-3-ol;Cholesterol, 7-dehydro-;7-Dehydrocholesterol;Provitamin D<sub>3</sub>;Dehydrocholesterol;7-Dehydrocholesterin;7,8-Didehydrocholesterol;Δ<sup>7</sup>-Cholesterol;Δ<sup>5,7</sup>-Cholestadien-3β-ol;NSC 18159",
    "duplicated_cas_no": "2377332-87-9",
    "SMILES": "C[C@@]12[C@](C=3[C@@]([C@]4(C)C(=CC3)C[C@@H](O)CC4)(CC1)[H])(CC[C@@]2([C@@H](CCCC(C)C)C)[H])[H]",
    "meta_data": {
        "InChI": "InChI=1S/C27H44O/c1-18(2)7-6-8-19(3)23-11-12-24-22-10-9-20-17-21(28)13-15-26(20,4)25(22)14-16-27(23,24)5/h9-10,18-19,21,23-25,28H,6-8,11-17H2,1-5H3/t19-,21+,23-,24+,25+,26+,27-/m1/s1",
        "InChIKey": null,
        "Canonical SMILES": "OC1CC2=CC=C3C(CCC4(C)C3CCC4C(C)CCCC(C)C)C2(C)CC1",
        "Molecular Formula": "C<sub>27</sub>H<sub>44</sub>O",
        "Molecular Mass": "384.64",
        "Melting Point": "150.5 °C"
    }
}