{
    "cas_no": "62803-47-8",
    "key_name": "6-Hydroxyindan-1-one",
    "cn_name": "6-羟基-1-茚酮;",
    "alternate_name": "1<em>H</em>-Inden-1-one, 2,3-dihydro-6-hydroxy-;1-Indanone, 6-hydroxy-;2,3-Dihydro-6-hydroxy-1<em>H</em>-inden-1-one;6-Hydroxyindan-1-one;6-Hydroxy-2,3-dihydro-1<em>H</em>-inden-1-one;6-Hydroxy-2,3-dihydroinden-1-one",
    "duplicated_cas_no": "",
    "SMILES": "O=C1C=2C(=CC=C(O)C2)CC1",
    "meta_data": {
        "InChI": "InChI=1S/C9H8O2/c10-7-3-1-6-2-4-9(11)8(6)5-7/h1,3,5,10H,2,4H2",
        "InChIKey": null,
        "Canonical SMILES": "O=C1C2=CC(O)=CC=C2CC1",
        "Molecular Formula": "C<sub>9</sub>H<sub>8</sub>O<sub>2</sub>",
        "Molecular Mass": "148.16",
        "Melting Point": "152 °C"
    }
}