{
    "cas_no": "301692-76-2",
    "key_name": "Polmacoxib",
    "cn_name": null,
    "alternate_name": "Benzenesulfonamide, 4-[3-(3-fluorophenyl)-4,5-dihydro-5,5-dimethyl-4-oxo-2-furanyl]-;4-[3-(3-Fluorophenyl)-4,5-dihydro-5,5-dimethyl-4-oxo-2-furanyl]benzenesulfonamide;CG 100649;Polmacoxib;Acelex;CG 100650",
    "duplicated_cas_no": "1427301-99-2",
    "SMILES": "O=C1C(=C(OC1(C)C)C2=CC=C(S(N)(=O)=O)C=C2)C3=CC(F)=CC=C3",
    "meta_data": {
        "InChI": "InChI=1S/C18H16FNO4S/c1-18(2)17(21)15(12-4-3-5-13(19)10-12)16(24-18)11-6-8-14(9-7-11)25(20,22)23/h3-10H,1-2H3,(H2,20,22,23)",
        "InChIKey": null,
        "Canonical SMILES": "O=C1C(C2=CC=CC(F)=C2)=C(OC1(C)C)C=3C=CC(=CC3)S(=O)(=O)N",
        "Molecular Formula": "C<sub>18</sub>H<sub>16</sub>FNO<sub>4</sub>S",
        "Molecular Mass": "361.39",
        "Melting Point": "155-156 °C"
    }
}