{
    "cas_no": "89-36-1",
    "key_name": "1-(4′-Sulfophenyl)-3-methyl-5-pyrazolone",
    "cn_name": "1-(4-磺酸苯基)-3-甲基-5-吡唑酮;",
    "alternate_name": "Benzenesulfonic acid, 4-(4,5-dihydro-3-methyl-5-oxo-1<em>H</em>-pyrazol-1-yl)-;Benzenesulfonic acid, <em>p</em>-(3-methyl-5-oxo-2-pyrazolin-1-yl)-;4-(4,5-Dihydro-3-methyl-5-oxo-1<em>H</em>-pyrazol-1-yl)benzenesulfonic acid;3-Methyl-1-(<em>p</em>-sulfophenyl)-5-pyrazolone;Pyrazoline G;1-(<em>p</em>-Sulfophenyl)-3-methyl-5-pyrazolone;<em>p</em>-(3-Methyl-5-oxo-2-pyrazolin-1-yl)benzenesulfonic acid;3-Methyl-1-(4-sulfophenyl)-5-pyrazolone;1-(4′-Sulfophenyl)-3-methyl-5-pyrazolone;3-Methyl-1-(<em>p</em>-sulfophenyl)-2-pyrazolin-5-one;1-(4-Sulfophenyl)-3-methyl-5-pyrazolone;1-(<em>p</em>-Sulfophenyl)-3-methylpyrazolin-5-one;3-Methyl-1-phenyl-5-pyrazolone-4′-sulfonic acid;3-Methyl-1-(4-sulfophenyl)pyrazolin-5-one;3-Methyl-1-(4′-sulfophenyl)-5-pyrazolone;NSC 26429;NSC 4752;4-(3-Methyl-5-oxo-4,5-dihydropyrazol-1-yl)benzenesulfonic acid",
    "duplicated_cas_no": "74583-53-2;481668-54-6",
    "SMILES": "O=C1N(N=C(C)C1)C2=CC=C(S(=O)(=O)O)C=C2",
    "meta_data": {
        "InChI": "InChI=1S/C10H10N2O4S/c1-7-6-10(13)12(11-7)8-2-4-9(5-3-8)17(14,15)16/h2-5H,6H2,1H3,(H,14,15,16)",
        "InChIKey": null,
        "Canonical SMILES": "O=C1N(N=C(C)C1)C2=CC=C(C=C2)S(=O)(=O)O",
        "Molecular Formula": "C<sub>10</sub>H<sub>10</sub>N<sub>2</sub>O<sub>4</sub>S",
        "Molecular Mass": "254.26",
        "Melting Point": "306 °C"
    }
}