{
    "cas_no": "49669-14-9",
    "key_name": "2-Bromo-6-(2-methyl-1,3-dioxolan-2-yl)pyridine",
    "cn_name": "2-溴-6-(2-甲基-1,3-二氧戊烷-2-基)吡啶;",
    "alternate_name": "Pyridine, 2-bromo-6-(2-methyl-1,3-dioxolan-2-yl)-;2-Bromo-6-(2-methyl-1,3-dioxolan-2-yl)pyridine",
    "duplicated_cas_no": "",
    "SMILES": "CC1(OCCO1)C=2N=C(Br)C=CC2",
    "meta_data": {
        "InChI": "InChI=1S/C9H10BrNO2/c1-9(12-5-6-13-9)7-3-2-4-8(10)11-7/h2-4H,5-6H2,1H3",
        "InChIKey": null,
        "Canonical SMILES": "BrC=1N=C(C=CC1)C2(OCCO2)C",
        "Molecular Formula": "C<sub>9</sub>H<sub>10</sub>BrNO<sub>2</sub>",
        "Molecular Mass": "244.09",
        "Melting Point": "40-42 °C"
    }
}