{
    "cas_no": "1620-75-3",
    "key_name": "6-Methyl-2-pyridinecarbonitrile",
    "cn_name": "6-甲基-2-吡啶腈;2-氰基-6-甲基吡啶;",
    "alternate_name": "2-Pyridinecarbonitrile, 6-methyl-;Picolinonitrile, 6-methyl-;6-Methyl-2-pyridinecarbonitrile;2-Cyano-6-methylpyridine;6-Methyl-2-cyanopyridine;2-Methyl-6-cyanopyridine;6-Methylpicolinonitrile;6-Cyano-2-methylpyridine;NSC 26022",
    "duplicated_cas_no": "",
    "SMILES": "C(#N)C=1N=C(C)C=CC1",
    "meta_data": {
        "InChI": "InChI=1S/C7H6N2/c1-6-3-2-4-7(5-8)9-6/h2-4H,1H3",
        "InChIKey": null,
        "Canonical SMILES": "N#CC=1N=C(C=CC1)C",
        "Molecular Formula": "C<sub>7</sub>H<sub>6</sub>N<sub>2</sub>",
        "Molecular Mass": "118.14",
        "Melting Point": "72-74 °C"
    }
}