{
    "cas_no": "91085-56-2",
    "key_name": "Benzoic acid, 3,5-dichloro-, ethyl ester",
    "cn_name": "3,5-二氯苯甲酸乙酯;",
    "alternate_name": "Benzoic acid, 3,5-dichloro-, ethyl ester;Ethyl 3,5-dichlorobenzoate;3,5-Dichlorobenzoic acid ethyl ester",
    "duplicated_cas_no": "",
    "SMILES": "C(OCC)(=O)C1=CC(Cl)=CC(Cl)=C1",
    "meta_data": {
        "InChI": "InChI=1S/C9H8Cl2O2/c1-2-13-9(12)6-3-7(10)5-8(11)4-6/h3-5H,2H2,1H3",
        "InChIKey": null,
        "Canonical SMILES": "O=C(OCC)C=1C=C(Cl)C=C(Cl)C1",
        "Molecular Formula": "C<sub>9</sub>H<sub>8</sub>Cl<sub>2</sub>O<sub>2</sub>",
        "Molecular Mass": "219.06",
        "Melting Point": "34-36 °C"
    }
}