{
    "cas_no": "1086378-35-9",
    "key_name": "Methyl 7-benzoxazolecarboxylate",
    "cn_name": null,
    "alternate_name": "7-Benzoxazolecarboxylic acid, methyl ester;Methyl 7-benzoxazolecarboxylate",
    "duplicated_cas_no": "",
    "SMILES": "C(OC)(=O)C1=C2C(=CC=C1)N=CO2",
    "meta_data": {
        "InChI": "InChI=1S/C9H7NO3/c1-12-9(11)6-3-2-4-7-8(6)13-5-10-7/h2-5H,1H3",
        "InChIKey": null,
        "Canonical SMILES": "O=C(OC)C1=CC=CC=2N=COC21",
        "Molecular Formula": "C<sub>9</sub>H<sub>7</sub>NO<sub>3</sub>",
        "Molecular Mass": "177.16",
        "Melting Point": "116-118 °C"
    }
}