{
    "cas_no": "26898-17-9",
    "key_name": "Methylbis(phenylmethyl)benzene",
    "cn_name": "二(苯基甲基)甲苯;",
    "alternate_name": "Benzene, methylbis(phenylmethyl)-;Toluene, <em>ar</em>,<em>ar</em>-dibenzyl-;Methylbis(phenylmethyl)benzene;Bisbenzyltoluene;Dibenzyltoluene;Methyldibenzylbenzene;Neo-SK Oil 1400;Marlotherm S;Jarylec EXP 3;Therm-S 1000;Barrel Therm 400",
    "duplicated_cas_no": "51176-98-8;142615-38-1",
    "SMILES": "",
    "meta_data": {
        "InChI": "",
        "InChIKey": null,
        "Canonical SMILES": "",
        "Molecular Formula": "C<sub>21</sub>H<sub>20</sub>",
        "Molecular Mass": "",
        "Boiling Point": "225-230 °C @ Press: 10 Torr",
        "Density": "1.0482 g/cm³ @ Temp: 20 °C"
    }
}