{
    "cas_no": "328-99-4",
    "key_name": "3-(Trifluoromethyl)benzoyl fluoride",
    "cn_name": "3-(三氟甲基)苯甲酰氟;",
    "alternate_name": "Benzoyl fluoride, 3-(trifluoromethyl)-;<em>m</em>-Toluoyl fluoride, α,α,α-trifluoro-;3-(Trifluoromethyl)benzoyl fluoride;<em>m</em>-(Trifluoromethyl)benzoyl fluoride;NSC 93822",
    "duplicated_cas_no": "",
    "SMILES": "C(F)(F)(F)C1=CC(C(F)=O)=CC=C1",
    "meta_data": {
        "InChI": "InChI=1S/C8H4F4O/c9-7(13)5-2-1-3-6(4-5)8(10,11)12/h1-4H",
        "InChIKey": null,
        "Canonical SMILES": "O=C(F)C1=CC=CC(=C1)C(F)(F)F",
        "Molecular Formula": "C<sub>8</sub>H<sub>4</sub>F<sub>4</sub>O",
        "Molecular Mass": "192.11",
        "Boiling Point": "159-163 °C"
    }
}