{
    "cas_no": "27205-03-4",
    "key_name": "2,2′-[Sulfonylbis(4,1-phenyleneoxy)]bis[ethanol]",
    "cn_name": null,
    "alternate_name": "Ethanol, 2,2′-[sulfonylbis(4,1-phenyleneoxy)]bis-;Ethanol, 2,2′-[sulfonylbis(<em>p</em>-phenyleneoxy)]di-;2,2′-[Sulfonylbis(4,1-phenyleneoxy)]bis[ethanol];Bis[4-(2-hydroxyethoxy)phenyl] sulfone;SEO 2;Bis[4-(β-hydroxyethoxy)phenyl] sulfone;SE 2;SE 2 (sulfone);Bisphenol S bis(2-hydroxyethyl) ether;NSC 15880;Bisphenol S-ethylene oxide 1:2 adduct;2,2′-((Sulfonylbis(4,1-phenylene))bis(oxy))diethanol;2-[4-[4-(2-Hydroxyethoxy)phenyl]sulfonylphenoxy]ethanol",
    "duplicated_cas_no": "137021-29-5;160903-50-4",
    "SMILES": "S(=O)(=O)(C1=CC=C(OCCO)C=C1)C2=CC=C(OCCO)C=C2",
    "meta_data": {
        "InChI": "InChI=1S/C16H18O6S/c17-9-11-21-13-1-5-15(6-2-13)23(19,20)16-7-3-14(4-8-16)22-12-10-18/h1-8,17-18H,9-12H2",
        "InChIKey": null,
        "Canonical SMILES": "O=S(=O)(C1=CC=C(OCCO)C=C1)C2=CC=C(OCCO)C=C2",
        "Molecular Formula": "C<sub>16</sub>H<sub>18</sub>O<sub>6</sub>S",
        "Molecular Mass": "338.38",
        "Melting Point": "184 °C"
    }
}