{
    "cas_no": "3862-73-5",
    "key_name": "2,3,4-Trifluoroaniline",
    "cn_name": "2,3,4-三氟苯胺;",
    "alternate_name": "Benzenamine, 2,3,4-trifluoro-;Aniline, 2,3,4-trifluoro-;2,3,4-Trifluorobenzenamine;2,3,4-Trifluoroaniline;2,3,4-Trifluorophenylamine",
    "duplicated_cas_no": "",
    "SMILES": "FC1=C(F)C(N)=CC=C1F",
    "meta_data": {
        "InChI": "InChI=1S/C6H4F3N/c7-3-1-2-4(10)6(9)5(3)8/h1-2H,10H2",
        "InChIKey": null,
        "Canonical SMILES": "FC1=CC=C(N)C(F)=C1F",
        "Molecular Formula": "C<sub>6</sub>H<sub>4</sub>F<sub>3</sub>N",
        "Molecular Mass": "147.10",
        "Boiling Point": "46 °C @ Press: 5 Torr"
    }
}