{
    "cas_no": "764-60-3",
    "key_name": "2-Hexyn-1-ol",
    "cn_name": "2-己炔-1-醇;",
    "alternate_name": "2-Hexyn-1-ol;2-Hexynol",
    "duplicated_cas_no": "",
    "SMILES": "C(CCC)#CCO",
    "meta_data": {
        "InChI": "InChI=1S/C6H10O/c1-2-3-4-5-6-7/h7H,2-3,6H2,1H3",
        "InChIKey": null,
        "Canonical SMILES": "OCC#CCCC",
        "Molecular Formula": "C<sub>6</sub>H<sub>10</sub>O",
        "Molecular Mass": "98.14",
        "Boiling Point": "87-89 °C @ Press: 58 Torr",
        "Density": "0.8943 g/cm³ @ Temp: 20 °C"
    }
}