{
    "cas_no": "3278-22-6",
    "key_name": "1,1′-[Methylenebis(sulfonyl)]bis[ethene]",
    "cn_name": "双(乙烯砜基)甲烷;",
    "alternate_name": "Ethene, 1,1′-[methylenebis(sulfonyl)]bis-;Methane, bis(vinylsulfonyl)-;1,1′-[Methylenebis(sulfonyl)]bis[ethene];1,1-Bis(vinylsulfonyl)methane;Di(vinylsulfonyl)methane;Bis(vinylsulfonyl)methane;1-(Ethenylsulfonylmethylsulfonyl)ethene;(Ethenesulfonyl)methanesulfonylethene",
    "duplicated_cas_no": "",
    "SMILES": "C(S(C=C)(=O)=O)S(C=C)(=O)=O",
    "meta_data": {
        "InChI": "InChI=1S/C5H8O4S2/c1-3-10(6,7)5-11(8,9)4-2/h3-4H,1-2,5H2",
        "InChIKey": null,
        "Canonical SMILES": "O=S(=O)(C=C)CS(=O)(=O)C=C",
        "Molecular Formula": "C<sub>5</sub>H<sub>8</sub>O<sub>4</sub>S<sub>2</sub>",
        "Molecular Mass": "196.24",
        "Melting Point": "59-61 °C"
    }
}