{
    "cas_no": "479073-79-5",
    "key_name": "Thiosildenafil",
    "cn_name": null,
    "alternate_name": "7<em>H</em>-Pyrazolo[4,3-<em>d</em>]pyrimidine-7-thione, 5-[2-ethoxy-5-[(4-methyl-1-piperazinyl)sulfonyl]phenyl]-1,6-dihydro-1-methyl-3-propyl-;Piperazine, 1-[[3-(4,7-dihydro-1-methyl-3-propyl-7-thioxo-1<em>H</em>-pyrazolo[4,3-<em>d</em>]pyrimidin-5-yl)-4-ethoxyphenyl]sulfonyl]-4-methyl-;5-[2-Ethoxy-5-[(4-methyl-1-piperazinyl)sulfonyl]phenyl]-1,6-dihydro-1-methyl-3-propyl-7<em>H</em>-pyrazolo[4,3-<em>d</em>]pyrimidine-7-thione;Thiosildenafil",
    "duplicated_cas_no": "",
    "SMILES": "O(CC)C1=C(C=C(S(=O)(=O)N2CCN(C)CC2)C=C1)C=3NC4=C(C(=S)N3)N(C)N=C4CCC",
    "meta_data": {
        "InChI": "InChI=1S/C22H30N6O3S2/c1-5-7-17-19-20(27(4)25-17)22(32)24-21(23-19)16-14-15(8-9-18(16)31-6-2)33(29,30)28-12-10-26(3)11-13-28/h8-9,14H,5-7,10-13H2,1-4H3,(H,23,24,32)",
        "InChIKey": null,
        "Canonical SMILES": "O=S(=O)(C=1C=CC(OCC)=C(C1)C2=NC(=S)C3=C(N2)C(=NN3C)CCC)N4CCN(C)CC4",
        "Molecular Formula": "C<sub>22</sub>H<sub>30</sub>N<sub>6</sub>O<sub>3</sub>S<sub>2</sub>",
        "Molecular Mass": "490.64",
        "Melting Point": "172-174 °C"
    }
}