{
    "cas_no": "22282-65-1",
    "key_name": "4-Iodo-2-methylpyridine",
    "cn_name": null,
    "alternate_name": "Pyridine, 4-iodo-2-methyl-;2-Picoline, 4-iodo-;4-Iodo-2-methylpyridine;4-Iodo-2-picoline",
    "duplicated_cas_no": "",
    "SMILES": "IC=1C=C(C)N=CC1",
    "meta_data": {
        "InChI": "InChI=1S/C6H6IN/c1-5-4-6(7)2-3-8-5/h2-4H,1H3",
        "InChIKey": null,
        "Canonical SMILES": "IC=1C=CN=C(C1)C",
        "Molecular Formula": "C<sub>6</sub>H<sub>6</sub>IN",
        "Molecular Mass": "219.02",
        "Boiling Point": "84-86 °C @ Press: 14 Torr",
        "Melting Point": "43 °C"
    }
}