{
    "cas_no": "836-30-6",
    "key_name": "4-Nitrodiphenylamine",
    "cn_name": "4-硝基二苯胺;",
    "alternate_name": "Benzenamine, 4-nitro-<em>N</em>-phenyl-;Diphenylamine, 4-nitro-;4-Nitro-<em>N</em>-phenylbenzenamine;4-Nitrodiphenylamine;<em>p</em>-Nitrodiphenylamine;<em>N</em>-(<em>p</em>-Nitrophenyl)aniline;<em>N</em>-Phenyl-4-nitroaniline;(4-Nitrophenyl)phenylamine;4-Nitro-<em>N</em>-phenylaniline;<em>N</em>-(4-Nitrophenyl)aniline;NSC 33836;<em>N</em>-Phenyl-<em>p</em>-nitroaniline;<em>N</em>-Phenyl-4-nitrobenzenamine;Phenyl(4-nitrophenyl)amine;<em>N</em>-(4-Nitrophenyl)benzenamine",
    "duplicated_cas_no": "",
    "SMILES": "N(C1=CC=C(N(=O)=O)C=C1)C2=CC=CC=C2",
    "meta_data": {
        "InChI": "InChI=1S/C12H10N2O2/c15-14(16)12-8-6-11(7-9-12)13-10-4-2-1-3-5-10/h1-9,13H",
        "InChIKey": null,
        "Canonical SMILES": "O=N(=O)C1=CC=C(C=C1)NC=2C=CC=CC2",
        "Molecular Formula": "C<sub>12</sub>H<sub>10</sub>N<sub>2</sub>O<sub>2</sub>",
        "Molecular Mass": "214.22",
        "Boiling Point": "343 °C",
        "Melting Point": "133.5 °C"
    }
}