{
    "cas_no": "32844-27-2",
    "key_name": "Carbonic dichloride, polymer with 4,4′-(1-methylethylidene)bis[2,6-dibromophenol] and 4,4′-(1-methylethylidene)bis[phenol]",
    "cn_name": "光气与4,4\"-(亚异丙基)二(2,6-二溴酚)和4,4\"-亚异丙基二苯酚的聚合物;",
    "alternate_name": "Carbonic dichloride, polymer with 4,4′-(1-methylethylidene)bis[2,6-dibromophenol] and 4,4′-(1-methylethylidene)bis[phenol];Phosgene, polyester with 4,4′-isopropylidenebis[2,6-dibromophenol] and 4,4′-isopropylidenediphenol;Phenol, 4,4′-isopropylidenebis[2,6-dibromo-, polymer with 4,4′-isopropylidenediphenol and phosgene;Phenol, 4,4′-isopropylidenedi-, polymer with 4,4′-isopropylidenebis[2,6-dibromophenol] and phosgene;Phenol, 4,4′-(1-methylethylidene)bis[2,6-dibromo-, polymer with carbonic dichloride and 4,4′-(1-methylethylidene)bis[phenol];Phenol, 4,4′-(1-methylethylidene)bis-, polymer with carbonic dichloride and 4,4′-(1-methylethylidene)bis[2,6-dibromophenol];Bisphenol A-phosgene-3,3′,5,5′-tetrabromobisphenol A copolymer;Phosgene-bisphenol A-3,3′,5,5′-tetrabromobisphenol A copolymer;Bisphenol A-2,2-(3,3′,5,5′-tetrabromo-4,4′-dihydroxydiphenyl)propane-phosgene copolymer;3,3′,5,5′-Tetrabromobisphenol A-bisphenol A-phosgene polymer;Bisphenol A-phosgene-tetrabromobisphenol A copolymer;2,2-Bis(3,5-dibromo-4-hydroxyphenyl)propane-bisphenol A-phosgene copolymer;Bisphenol A-phosgene-tetrabromobisphenol A polymer;2,2-Bis(4-hydroxyphenyl)propane-phosgene-2,2-(3,5,3′,5′-tetrabromo-4,4′-dihydroxydiphenyl)propane polymer;2,2-Bis(4-hydroxy-3,5-dibromophenyl)propane-2,2-bis(4-hydroxyphenyl)propane-phosgene polymer;2,2-Bis(3,5-dibromo-4-hydroxyphenyl)propane-bisphenol A-phosgene polymer;Bisphenol A-phosgene-3,3′,5,5′-tetrabromobisphenol A polymer;4,4′-Isopropylidenebis(2,6-dibromophenol)-4,4′-isopropylidenediphenol-phosgene polymer;2,2-Bis(4-hydroxyphenyl)propane-2,2-bis(4-hydroxy-3,5-dibromophenyl)propane-phosgene polymer;2,2-Bis(4-hydroxyphenyl)propane-2,2-bis(4-hydroxy-3,5-dibromophenyl)propane-phosgene copolymer;2,2-Bis(4′-hydroxyphenyl)propane-2,2-bis(3′,5′-dibromo-4′-hydroxyphenyl)propane-phosgene copolymer;Bisphenol A-phosgene-2,2-(3,3′,5,5′-tetrabromo-4,4′-dihydroxydiphenyl)propane polymer;2,2-Bis(4-hydroxyphenyl)propane-2,2-bis(3,3′,5,5′-tetrabromo-4,4′-dihydroxydiphenyl)propane-phosgene copolymer;Bisphenol A-2,2-bis(3,5-dibromo-4-hydroxyphenyl)propane-phosgene polymer;2,2-Bis(4-hydroxy-3,5-dibromophenyl)propane-bis(4-hydroxyphenyl)propane-phosgene copolymer;Lexan RL 1624;TB 50;TB 50 (polycarbonate);4,4′-(1-Methylethylidene)bis[2,6-dibromophenol]-4,4′-(1-methylethylidene)bis[phenol]-poly[oxycarbonyloxy-1,4-phenylene(1-methylethylidene)-1,4-phenylene] copolymer;4,4′-(1-Methylethylidene)bis[phenol]-4,4′-(1-methylethylidene)bis[2,6-dibromophenol]-poly[oxycarbonyloxy-1,4-phenylene(1-methylethylidene)-1,4-phenylene] copolymer",
    "duplicated_cas_no": "132853-31-7;54226-97-0",
    "SMILES": "C(C)(C)(C1=CC=C(O)C=C1)C2=CC=C(O)C=C2.C(C)(C)(C1=CC(Br)=C(O)C(Br)=C1)C2=CC(Br)=C(O)C(Br)=C2.C(Cl)(Cl)=O",
    "meta_data": {
        "InChI": "InChI=1S/C15H12Br4O2.C15H16O2.CCl2O/c1-15(2,7-3-9(16)13(20)10(17)4-7)8-5-11(18)14(21)12(19)6-8;1-15(2,11-3-7-13(16)8-4-11)12-5-9-14(17)10-6-12;2-1(3)4/h3-6,20-21H,1-2H3;3-10,16-17H,1-2H3;",
        "InChIKey": null,
        "Canonical SMILES": "O=C(Cl)Cl.BrC=1C=C(C=C(Br)C1O)C(C2=CC(Br)=C(O)C(Br)=C2)(C)C.OC1=CC=C(C=C1)C(C2=CC=C(O)C=C2)(C)C",
        "Molecular Formula": "(C<sub>15</sub>H<sub>16</sub>O<sub>2</sub>.C<sub>15</sub>H<sub>12</sub>Br<sub>4</sub>O<sub>2</sub>.CCl<sub>2</sub>O)<sub>x</sub>",
        "Molecular Mass": "",
        "Melting Point": "140-150 °C",
        "Density": "0.76 g/cm³"
    }
}