{
    "cas_no": "635-10-9",
    "key_name": "Tetramethyl pyromellitate",
    "cn_name": "均苯四甲酸四甲酯;四甲基均苯四甲酸酯;1,2,4,5-苯四甲酸四甲酯;",
    "alternate_name": "1,2,4,5-Benzenetetracarboxylic acid, 1,2,4,5-tetramethyl ester;1,2,4,5-Benzenetetracarboxylic acid, tetramethyl ester;Pyromellitic acid tetramethyl ester;Tetramethyl pyromellitate;Tetramethyl 1,2,4,5-benzenetetracarboxylate;1,2,4,5-Tetrakis(methoxycarbonyl)benzene;NSC 4188;1,2,4,5-Tetramethyl benzene-1,2,4,5-tetracarboxylate",
    "duplicated_cas_no": "37251-57-3",
    "SMILES": "C(OC)(=O)C1=C(C(OC)=O)C=C(C(OC)=O)C(C(OC)=O)=C1",
    "meta_data": {
        "InChI": "InChI=1S/C14H14O8/c1-19-11(15)7-5-9(13(17)21-3)10(14(18)22-4)6-8(7)12(16)20-2/h5-6H,1-4H3",
        "InChIKey": null,
        "Canonical SMILES": "O=C(OC)C=1C=C(C(=O)OC)C(=CC1C(=O)OC)C(=O)OC",
        "Molecular Formula": "C<sub>14</sub>H<sub>14</sub>O<sub>8</sub>",
        "Molecular Mass": "310.26",
        "Melting Point": "144 °C"
    }
}