{
    "cas_no": "93349-99-6",
    "key_name": "3-Pyridinecarboxylic acid, 5-bromo-6-methoxy-, methyl ester",
    "cn_name": null,
    "alternate_name": "3-Pyridinecarboxylic acid, 5-bromo-6-methoxy-, methyl ester;5-Bromo-6-methoxynicotinic acid methyl ester;Methyl 5-bromo-6-methoxynicotinate;Methyl 5-bromo-6-methoxypyridine-3-carboxylate",
    "duplicated_cas_no": "",
    "SMILES": "C(OC)(=O)C=1C=C(Br)C(OC)=NC1",
    "meta_data": {
        "InChI": "InChI=1S/C8H8BrNO3/c1-12-7-6(9)3-5(4-10-7)8(11)13-2/h3-4H,1-2H3",
        "InChIKey": null,
        "Canonical SMILES": "O=C(OC)C1=CN=C(OC)C(Br)=C1",
        "Molecular Formula": "C<sub>8</sub>H<sub>8</sub>BrNO<sub>3</sub>",
        "Molecular Mass": "246.06",
        "Melting Point": "104-105 °C"
    }
}