{
    "cas_no": "25458-45-1",
    "key_name": "1-Bromo-4-(methoxymethoxy)benzene",
    "cn_name": null,
    "alternate_name": "Benzene, 1-bromo-4-(methoxymethoxy)-;Methane, (<em>p</em>-bromophenoxy)methoxy-;1-Bromo-4-(methoxymethoxy)benzene;<em>p</em>-(Methoxymethoxy)bromobenzene;4-(Methoxymethoxy)bromobenzene;<em>p</em>-Bromophenyl methoxymethyl ether;4-Methoxymethoxyphenyl bromide;Bromo-4-(methoxymethoxy)benzene",
    "duplicated_cas_no": "",
    "SMILES": "O(COC)C1=CC=C(Br)C=C1",
    "meta_data": {
        "InChI": "InChI=1S/C8H9BrO2/c1-10-6-11-8-4-2-7(9)3-5-8/h2-5H,6H2,1H3",
        "InChIKey": null,
        "Canonical SMILES": "BrC1=CC=C(OCOC)C=C1",
        "Molecular Formula": "C<sub>8</sub>H<sub>9</sub>BrO<sub>2</sub>",
        "Molecular Mass": "217.06",
        "Boiling Point": "102-103 °C @ Press: 6 Torr"
    }
}