{
    "cas_no": "552-30-7",
    "key_name": "Trimellitic anhydride",
    "cn_name": "偏苯三酸酐;偏苯三甲酸酐;1,2,4-苯三酸酐;偏酐;",
    "alternate_name": "5-Isobenzofurancarboxylic acid, 1,3-dihydro-1,3-dioxo-;1,2,4-Benzenetricarboxylic acid, cyclic 1,2-anhydride;Trimellitic acid anhydride;1,2,4-Benzenetricarboxylic acid, anhydride;1,3-Dihydro-1,3-dioxo-5-isobenzofurancarboxylic acid;Anhydrotrimellitic acid;1,3-Dioxo-5-phthalancarboxylic acid;Trimellitic acid 1,2-anhydride;Trimellitic anhydride;1,2,4-Benzenetricarboxylic anhydride;Trimellitic acid cyclic 1,2-anhydride;4-Carboxyphthalic anhydride;Epon 9150;1,2,4-Benzenetricarboxylic acid 1,2-anhydride;NSC 60252;Benzene-1,3,4-tricarboxylic anhydride;TMA (anhydride);TMA;CE-X 23 Medium;Aradur 3380-1;1,3-Dioxo-1,3-dihydroisobenzofuran-5-carboxylic acid;1,3-Dioxo-1,3-dihydro-2-benzofuran-5-carboxylic acid;SD 009",
    "duplicated_cas_no": "28605-64-3;68864-89-1;70425-46-6;928770-37-0;2088100-85-8",
    "SMILES": "O=C1C=2C(C(=O)O1)=CC=C(C(O)=O)C2",
    "meta_data": {
        "InChI": "InChI=1S/C9H4O5/c10-7(11)4-1-2-5-6(3-4)9(13)14-8(5)12/h1-3H,(H,10,11)",
        "InChIKey": null,
        "Canonical SMILES": "O=C(O)C1=CC=C2C(=O)OC(=O)C2=C1",
        "Molecular Formula": "C<sub>9</sub>H<sub>4</sub>O<sub>5</sub>",
        "Molecular Mass": "192.13",
        "Boiling Point": "390 °C",
        "Melting Point": "161-163.5 °C"
    }
}