{
    "cas_no": "23521-49-5",
    "key_name": "(1<em>Z</em>)-1-Bromo-2-ethoxyethene",
    "cn_name": "顺-1-溴-2-乙氧基乙烯;",
    "alternate_name": "Ethene, 1-bromo-2-ethoxy-, (1<em>Z</em>)-;Ether, 2-bromovinyl ethyl, (<em>Z</em>)-;Ethene, 1-bromo-2-ethoxy-, (<em>Z</em>)-;(1<em>Z</em>)-1-Bromo-2-ethoxyethene;(<em>Z</em>)-1-Bromo-2-ethoxyethylene;<em>cis</em>-1-Bromo-2-ethoxyethylene;<em>cis</em>-1-Bromo-2-ethoxyethene;(<em>Z</em>)-1-Bromo-2-ethoxyethene;(Z)-2-Ethoxy-1-bromoethene;(Z)-1-Bromo-2-ethoxyethene;(<em>Z</em>)-2-Bromo-1-ethoxyethene",
    "duplicated_cas_no": "",
    "SMILES": "C(\\OCC)=C\\Br",
    "meta_data": {
        "InChI": "InChI=1S/C4H7BrO/c1-2-6-4-3-5/h3-4H,2H2,1H3/b4-3-",
        "InChIKey": null,
        "Canonical SMILES": "BrC=COCC",
        "Molecular Formula": "C<sub>4</sub>H<sub>7</sub>BrO",
        "Molecular Mass": "151.00",
        "Boiling Point": "134-137 °C",
        "Density": "1.4302 g/cm³ @ Temp: 20 °C"
    }
}