{
    "cas_no": "7758-98-7",
    "key_name": "Copper sulfate",
    "cn_name": "硫酸铜;",
    "alternate_name": "Sulfuric acid copper(2+) salt (1:1);Copper(2+) sulfate (1:1);Blue stone;Blue vitriol;Cupric sulfate;Cupric sulfate anhydrous;Cupric sulphate;Roman vitriol;Copper sulfate (CuSO<sub>4</sub>);Copper(II) sulfate;Copper sulfate;Copper monosulfate;Copper sulfate (1:1);Copper(2+) sulfate;Blue Copper;Incracide E 51;Incracide 10A;Hylinec;Monocopper sulfate;MAC 570;Cuivrol;Delcup;Bluestone;EarthTec;Sulfuric acid, copper(2+) salt (1:1);Mastercop;Upinorg;Reducer Cu;Baijunling;Black blue stone;Sulfuric acid, monocopper(1+) salt;XWHGS 005;CuPRiX20;MeSH ID: D019327",
    "duplicated_cas_no": "131540-94-8;139939-69-8",
    "SMILES": "S(=O)(=O)(O)O.[Cu]",
    "meta_data": {
        "InChI": "InChI=1S/Cu.H2O4S/c;1-5(2,3)4/h;(H2,1,2,3,4)",
        "InChIKey": null,
        "Canonical SMILES": "[Cu].O=S(=O)(O)O",
        "Molecular Formula": "Cu.H<sub>2</sub>O<sub>4</sub>S",
        "Molecular Mass": "",
        "Melting Point": "590 °C (decomp)",
        "Density": "3.6 g/cm³"
    }
}