{
    "cas_no": "74472-37-0",
    "key_name": "PCB 114",
    "cn_name": null,
    "alternate_name": "1,1′-Biphenyl, 2,3,4,4′,5-pentachloro-;2,3,4,4′,5-Pentachloro-1,1′-biphenyl;2,3,4,4′,5-Pentachlorobiphenyl;4′-Chloro-2,3,4,5-tetrachlorobiphenyl;PCB 114;2,3,4,5,4′-Pentachlorobiphenyl;CB 114",
    "duplicated_cas_no": "",
    "SMILES": "ClC1=C(C=C(Cl)C(Cl)=C1Cl)C2=CC=C(Cl)C=C2",
    "meta_data": {
        "InChI": "InChI=1S/C12H5Cl5/c13-7-3-1-6(2-4-7)8-5-9(14)11(16)12(17)10(8)15/h1-5H",
        "InChIKey": null,
        "Canonical SMILES": "ClC=1C=CC(=CC1)C2=CC(Cl)=C(Cl)C(Cl)=C2Cl",
        "Molecular Formula": "C<sub>12</sub>H<sub>5</sub>Cl<sub>5</sub>",
        "Molecular Mass": "326.43",
        "Melting Point": "98 °C"
    }
}