{
    "cas_no": "439-14-5",
    "key_name": "Diazepam",
    "cn_name": "地西泮;7-氯-1,3-二氢-1-甲基-5-苯基-2H-1,4-苯并二氮卓-2-酮;",
    "alternate_name": "2<em>H</em>-1,4-Benzodiazepin-2-one, 7-chloro-1,3-dihydro-1-methyl-5-phenyl-;7-Chloro-1,3-dihydro-1-methyl-5-phenyl-2<em>H</em>-1,4-benzodiazepin-2-one;Wy 3467;Ro 5-2807;7-Chloro-1-methyl-5-phenyl-3<em>H</em>-1,4-benzodiazepin-2(1<em>H</em>)-one;Diazepam;Methyldiazepinone;Noan;Saromet;Valium;Methyldiazepinone (pharmaceutical);1-Methyl-5-phenyl-7-chloro-1,3-dihydro-1<em>H</em>-1,4-benzodiazepin-2-one;7-Chloro-1-methyl-2-oxo-5-phenyl-3<em>H</em>-1,4-benzodiazepine;Duxen;Seduxen;Cercine;Faustan;1-Methyl-5-phenyl-7-chloro-1,3-dihydro-2<em>H</em>-1,4-benzodiazepin-2-one;7-Chloro-1-methyl-5-phenyl-1,3-dihydro-2<em>H</em>-1,4-benzodiazepin-2-one;LA 111;Apaurin;Apozepam;Atensine;Atilen;Bialzepam;Ceregulart;Eridan;Lembrol;Levium;Morosan;Paxate;Paxel;Relanium;Setonil;Stesolid;Stesolin;Tranimul;Vival;Vivol;Diacepan;Calmpose;Diapam;Calmocitene;Quievita;Ansiolisina;Valeo;Assival;Relaminal;Sibazon;Horizon;Sibazone;An-Ding;Diazemuls;Sonacon;Umbrium;Diazepam-Lipuro;Valrelease;Org 2447;Aliseum;Nellium;Dupin;Diapine;Pomin;Vatran;Notense;Lovium;Amiprol;Simasedan;Jinpanfan;Benzopin;Disopam;Caudel;Doval;Valitran;Armonil;Betapam;Paxum;Desconet;D-Pam;Nixtensyn;Arzepam;Calmod;Ortopsique;Diatran;Trankinon;Novazam;Nivalen;Apo-diazepam;Kratium 2;Dipaz;Drenian;Valaxona;Gubex;Ducene;Zepaxid;Ansiolin;Alboral;Diaquel;Placidox 2;Chuansuan;Propam;Winii;Gewacalm;Baogin;Reliver;Anxionil;Placidox 5;Azedipamin;Parzam;Vazen;Mandro;Desloneg;Anlin;Alupram;Dizac;Trazepam;Diazepin;Tensium;Dialar;Valiquid;Dialag;Diastat;Euphorin P;Tranquirit;Antenex;Placidox 10;Meval;Kratium;Diaceplex;Diapax;Plidan;Gradual;Nerozen;Sipam;Best;Centrazepam;Diazem;Dipezona;Paceum;Mentalium;Radizepam;DZP;Psychopax;Britazepam;Tranquil;Pax;Pacitran;Euphorin;Evacalm;Elcion CR;Neurolytril;Sedapam;Eurosan;Servizepam;Q-Pam;Tranquo-Tablinen;Mandrozep;Dipam;Tranquase;Solis;Unisedil;Lamra;Valium Injectable;Tranquo-Puren;NSC 77518;7-Chloro-1-methyl-5-phenyl-1,3-dihydrobenzo[<em>e</em>][1,4]diazepin-2-one;NSC 169897;Horizon (pharmaceutical);Compaz;7-Chloro-1-methyl-5-phenyl-3<em>H</em>-1,4-benzodiazepin-2-one;Relium;Pamlin;7-Chloro-1-methyl-5-phenyl-1,3-dihydro-1,4-benzodiazepin-2-one;7-Chloro-1-methyl-5-phenyl-1<em>H</em>-1,4-benzodiazepin-2(3<em>H</em>)-one;Apzepam;Hexalid;Stedon;Libervant;Valtoco;MeSH ID: D003975",
    "duplicated_cas_no": "11100-37-1;53320-84-6",
    "SMILES": "CN1C=2C(C(=NCC1=O)C3=CC=CC=C3)=CC(Cl)=CC2",
    "meta_data": {
        "InChI": "InChI=1S/C16H13ClN2O/c1-19-14-8-7-12(17)9-13(14)16(18-10-15(19)20)11-5-3-2-4-6-11/h2-9H,10H2,1H3",
        "InChIKey": null,
        "Canonical SMILES": "O=C1N(C=2C=CC(Cl)=CC2C(=NC1)C=3C=CC=CC3)C",
        "Molecular Formula": "C<sub>16</sub>H<sub>13</sub>ClN<sub>2</sub>O",
        "Molecular Mass": "284.74",
        "Melting Point": "132 °C"
    }
}