{
    "cas_no": "627-04-3",
    "key_name": "2-(Ethylthio)acetic acid",
    "cn_name": "(乙基硫代)乙酸;",
    "alternate_name": "Acetic acid, 2-(ethylthio)-;Acetic acid, (ethylthio)-;2-(Ethylthio)acetic acid;Carboxymethyl ethyl sulfide;<em>S</em>-(Carboxymethyl)ethyl mercaptan;(Ethylmercapto)acetic acid;Ethylthioacetic acid;NSC 75118;Ethylsulfanylacetic acid;2-(Ethylthio)ethanoic acid;2-(Ethylsulfanyl)acetic acid;2-Ethylsulfanylacetic acid",
    "duplicated_cas_no": "",
    "SMILES": "C(C(O)=O)SCC",
    "meta_data": {
        "InChI": "InChI=1S/C4H8O2S/c1-2-7-3-4(5)6/h2-3H2,1H3,(H,5,6)",
        "InChIKey": null,
        "Canonical SMILES": "O=C(O)CSCC",
        "Molecular Formula": "C<sub>4</sub>H<sub>8</sub>O<sub>2</sub>S",
        "Molecular Mass": "120.17",
        "Boiling Point": "118 °C @ Press: 11 Torr",
        "Melting Point": "-8.5 °C"
    }
}