{
    "cas_no": "621-84-1",
    "key_name": "Benzyl carbamate",
    "cn_name": "氨基甲酸苄酯;",
    "alternate_name": "Carbamic acid, phenylmethyl ester;Carbamic acid, benzyl ester;Benzyl carbamate;Carbamyl benzyl ester;Benzyl aminoformate;NSC 25317;<em>O</em>-Benzylcarbamate",
    "duplicated_cas_no": "",
    "SMILES": "C(OC(N)=O)C1=CC=CC=C1",
    "meta_data": {
        "InChI": "InChI=1S/C8H9NO2/c9-8(10)11-6-7-4-2-1-3-5-7/h1-5H,6H2,(H2,9,10)",
        "InChIKey": null,
        "Canonical SMILES": "O=C(OCC=1C=CC=CC1)N",
        "Molecular Formula": "C<sub>8</sub>H<sub>9</sub>NO<sub>2</sub>",
        "Molecular Mass": "151.16",
        "Boiling Point": "130-135 °C @ Press: 0.5 Torr",
        "Melting Point": "88 °C"
    }
}