{
    "cas_no": "63069-48-7",
    "key_name": "4-Chloro-2-iodoaniline",
    "cn_name": null,
    "alternate_name": "Benzenamine, 4-chloro-2-iodo-;Aniline, 4-chloro-2-iodo-;4-Chloro-2-iodobenzenamine;4-Chloro-2-iodoaniline;2-Iodo-4-chloroaniline;(4-Chloro-2-iodophenyl)amine",
    "duplicated_cas_no": "",
    "SMILES": "IC1=C(N)C=CC(Cl)=C1",
    "meta_data": {
        "InChI": "InChI=1S/C6H5ClIN/c7-4-1-2-6(9)5(8)3-4/h1-3H,9H2",
        "InChIKey": null,
        "Canonical SMILES": "ClC1=CC=C(N)C(I)=C1",
        "Molecular Formula": "C<sub>6</sub>H<sub>5</sub>ClIN",
        "Molecular Mass": "253.47",
        "Melting Point": "40-41.0 °C"
    }
}