{
    "cas_no": "75-94-5",
    "key_name": "Vinyltrichlorosilane",
    "cn_name": "乙烯基三氯硅烷;乙烯三氯硅烷;三氯乙烯硅烷;",
    "alternate_name": "Silane, trichloroethenyl-;Silane, trichlorovinyl-;Trichloroethenylsilane;Trichlorovinylsilane;Vinylsilicon trichloride;Vinyltrichlorosilane;VTCS;A 150;Trichlorovinylsilicon;A 150 (silane);KA 1003;Vinylsilyl trichloride;TSL 8303;NSC 93872;Dynasylan VTC;3-Vinyltrichlorosilane;Silquest A 150",
    "duplicated_cas_no": "127290-37-3",
    "SMILES": "[Si](C=C)(Cl)(Cl)Cl",
    "meta_data": {
        "InChI": "InChI=1S/C2H3Cl3Si/c1-2-6(3,4)5/h2H,1H2",
        "InChIKey": null,
        "Canonical SMILES": "Cl[Si](Cl)(Cl)C=C",
        "Molecular Formula": "C<sub>2</sub>H<sub>3</sub>Cl<sub>3</sub>Si",
        "Molecular Mass": "161.49",
        "Boiling Point": "91.5 °C",
        "Melting Point": "-95 °C",
        "Density": "1.2426 g/cm³ @ Temp: 20 °C"
    }
}