{
    "cas_no": "191546-97-1",
    "key_name": "1,3,4,14b-Tetrahydro-2-methylpyrazino[2,1-<em>a</em>]pyrido[2,3-<em>c</em>][2]benzazepin-10(2<em>H</em>)-one",
    "cn_name": null,
    "alternate_name": "Pyrazino[2,1-<em>a</em>]pyrido[2,3-<em>c</em>][2]benzazepin-10(2<em>H</em>)-one, 1,3,4,14b-tetrahydro-2-methyl-;1,3,4,14b-Tetrahydro-2-methylpyrazino[2,1-<em>a</em>]pyrido[2,3-<em>c</em>][2]benzazepin-10(2<em>H</em>)-one",
    "duplicated_cas_no": "",
    "SMILES": "CN1CC2N(C=3C(C(=O)C=4C2=CC=CC4)=CC=CN3)CC1",
    "meta_data": {
        "InChI": "InChI=1S/C17H17N3O/c1-19-9-10-20-15(11-19)12-5-2-3-6-13(12)16(21)14-7-4-8-18-17(14)20/h2-8,15H,9-11H2,1H3",
        "InChIKey": null,
        "Canonical SMILES": "O=C1C2=CC=CN=C2N3CCN(C)CC3C=4C=CC=CC14",
        "Molecular Formula": "C<sub>17</sub>H<sub>17</sub>N<sub>3</sub>O",
        "Molecular Mass": "279.34",
        "Melting Point": "155-156 °C"
    }
}