{
    "cas_no": "64248-63-1",
    "key_name": "3,5-Difluorobenzonitrile",
    "cn_name": "3,5-二氟苯甲腈;3,5-二氟苯腈;",
    "alternate_name": "Benzonitrile, 3,5-difluoro-;3,5-Difluorobenzonitrile;3,5-Difluorobenzenenitrile",
    "duplicated_cas_no": "",
    "SMILES": "C(#N)C1=CC(F)=CC(F)=C1",
    "meta_data": {
        "InChI": "InChI=1S/C7H3F2N/c8-6-1-5(4-10)2-7(9)3-6/h1-3H",
        "InChIKey": null,
        "Canonical SMILES": "N#CC=1C=C(F)C=C(F)C1",
        "Molecular Formula": "C<sub>7</sub>H<sub>3</sub>F<sub>2</sub>N",
        "Molecular Mass": "139.10",
        "Melting Point": "85-86 °C"
    }
}