{
    "cas_no": "38896-30-9",
    "key_name": "Methyl 6-quinolinecarboxylate",
    "cn_name": null,
    "alternate_name": "6-Quinolinecarboxylic acid, methyl ester;Methyl 6-quinolinecarboxylate;6-Carbomethoxyquinoline",
    "duplicated_cas_no": "",
    "SMILES": "C(OC)(=O)C1=CC2=C(C=C1)N=CC=C2",
    "meta_data": {
        "InChI": "InChI=1S/C11H9NO2/c1-14-11(13)9-4-5-10-8(7-9)3-2-6-12-10/h2-7H,1H3",
        "InChIKey": null,
        "Canonical SMILES": "O=C(OC)C1=CC=C2N=CC=CC2=C1",
        "Molecular Formula": "C<sub>11</sub>H<sub>9</sub>NO<sub>2</sub>",
        "Molecular Mass": "187.19",
        "Melting Point": "85-86 °C"
    }
}