{
    "cas_no": "5442-00-2",
    "key_name": "2-Cyclohexyl-1-propanol",
    "cn_name": "&beta;-甲基环己乙醇;",
    "alternate_name": "Cyclohexaneethanol, β-methyl-;β-Methylcyclohexaneethanol;2-Cyclohexyl-1-propanol;2-Cyclohexylpropanol;NSC 20786",
    "duplicated_cas_no": "86990-95-6",
    "SMILES": "C(CO)(C)C1CCCCC1",
    "meta_data": {
        "InChI": "InChI=1S/C9H18O/c1-8(7-10)9-5-3-2-4-6-9/h8-10H,2-7H2,1H3",
        "InChIKey": null,
        "Canonical SMILES": "OCC(C)C1CCCCC1",
        "Molecular Formula": "C<sub>9</sub>H<sub>18</sub>O",
        "Molecular Mass": "142.24",
        "Boiling Point": "97-98 °C @ Press: 13 Torr",
        "Density": "0.9130 g/cm³ @ Temp: 20 °C"
    }
}