{
    "cas_no": "77-86-1",
    "key_name": "Tris(hydroxymethyl)aminomethane",
    "cn_name": "三羟甲基氨基甲烷;三(羟甲基)氨基甲烷;2-氨基-2-羟甲基-1,3-丙二醇;",
    "alternate_name": "1,3-Propanediol, 2-amino-2-(hydroxymethyl)-;2-Amino-2-(hydroxymethyl)-1,3-propanediol;2-Amino-2-(hydroxymethyl)propane-1,3-diol;Aminotris(hydroxymethyl)methane;Talatrol;THAM;Trimethylolaminomethane;Tris;Trisamine;Tris buffer;Tris(hydroxymethyl)methylamine;Trizma;Trometamol;Tromethamine;2-Amino-2-methylol-1,3-propanediol;Tris(hydroxymethyl)aminomethane;Methanamine, 1,1,1-tris(hydroxymethyl)-;Aminotrimethylolmethane;Trometamole;Tromethane;Tris Amino;Tris-steril;Tris(hydroxymethyl)methanamine;Pehanorm;Tutofusin tris;Trisamin;Tromethanmin;Addex-Tham;Trisaminol;Tris (buffering agent);Triladyl;Tris(methylolamino)methane;Trigmo base;TAM;Aminotri(hydroxymethyl)methane;Tris Amino Crystal;TAM (buffering agent);NSC 103026;NSC 6365;NSC 65434;Tri(hydroxymethyl)methylamine;Tri Amino;2-Amino-1,3-dihydroxy-2-(hydroxymethyl)propane;2-Amino-2-hydroxymethylpropan-1,3-diol;[2-Hydroxy-1,1-bis(hydroxymethyl)ethyl]amine;Tris base;Tri(hydroxymethyl)aminomethane;Trizma Base;Ricrolin TE;A 0321;2-Amino-2-(hydroxymethyl)propanediol;1,3-Dihydroxy-2-(hydroxymethyl)propan-2-amine;Tris Amino Ultra PC (J) tromethamine;Tris Amino Ultra;Toris Amino Ultra PC;T 1503;MeSH ID: D014325;SD 01853",
    "duplicated_cas_no": "108195-86-4;119320-15-9;25149-07-9;68755-45-3;83147-39-1;857365-23-2;1158650-64-6",
    "SMILES": "C(CO)(CO)(CO)N",
    "meta_data": {
        "InChI": "InChI=1S/C4H11NO3/c5-4(1-6,2-7)3-8/h6-8H,1-3,5H2",
        "InChIKey": null,
        "Canonical SMILES": "OCC(N)(CO)CO",
        "Molecular Formula": "C<sub>4</sub>H<sub>11</sub>NO<sub>3</sub>",
        "Molecular Mass": "121.14",
        "Boiling Point": "219-220 °C @ Press: 10 Torr",
        "Melting Point": "171-172 °C",
        "Density": "0.6181 g/cm³ @ Temp: 25 °C"
    }
}