{
    "cas_no": "4559-86-8",
    "key_name": "Tetrabutylurea",
    "cn_name": "四丁基脲;1,1,3,3-四丁基脲;",
    "alternate_name": "Urea, <em>N</em>,<em>N</em>,<em>N</em>′,<em>N</em>′-tetrabutyl-;Urea, tetrabutyl-;Urea, 1,1,3,3-tetrabutyl-;<em>N</em>,<em>N</em>,<em>N</em>′,<em>N</em>′-Tetrabutylurea;Tetrabutylurea;1,1,3,3-Tetrabutylurea;NSC 3892",
    "duplicated_cas_no": "",
    "SMILES": "N(C(N(CCCC)CCCC)=O)(CCCC)CCCC",
    "meta_data": {
        "InChI": "InChI=1S/C17H36N2O/c1-5-9-13-18(14-10-6-2)17(20)19(15-11-7-3)16-12-8-4/h5-16H2,1-4H3",
        "InChIKey": null,
        "Canonical SMILES": "O=C(N(CCCC)CCCC)N(CCCC)CCCC",
        "Molecular Formula": "C<sub>17</sub>H<sub>36</sub>N<sub>2</sub>O",
        "Molecular Mass": "284.48",
        "Boiling Point": "125-130 °C @ Press: 1 Torr",
        "Density": "0.8828 g/cm³"
    }
}