{
    "cas_no": "3737-41-5",
    "key_name": "Thiophene, 3,3,4,4-tetrachlorotetrahydro-, 1,1-dioxide",
    "cn_name": "3,3,4,4-四氯环丁砜;3,3,4,4-四氯四氢噻吩1,1-二氧化物;",
    "alternate_name": "Thiophene, 3,3,4,4-tetrachlorotetrahydro-, 1,1-dioxide;DAC 649;3,3,4,4-Tetrachlorotetrahydrothiophene 1,1-dioxide;Slacurb;3,3,4,4-Tetrachlorothiolane 1,1-dioxide;3,3,4,4-Tetrachloro-1λ6-thiolane-1,1-dione",
    "duplicated_cas_no": "",
    "SMILES": "ClC1(Cl)C(Cl)(Cl)CS(=O)(=O)C1",
    "meta_data": {
        "InChI": "InChI=1S/C4H4Cl4O2S/c5-3(6)1-11(9,10)2-4(3,7)8/h1-2H2",
        "InChIKey": null,
        "Canonical SMILES": "O=S1(=O)CC(Cl)(Cl)C(Cl)(Cl)C1",
        "Molecular Formula": "C<sub>4</sub>H<sub>4</sub>Cl<sub>4</sub>O<sub>2</sub>S",
        "Molecular Mass": "257.95",
        "Melting Point": "178.5-179.5 °C"
    }
}