{
    "cas_no": "2443-58-5",
    "key_name": "2-Hydroxyfluorene",
    "cn_name": "2-羟基芴;",
    "alternate_name": "9<em>H</em>-Fluoren-2-ol;Fluoren-2-ol;2-Hydroxyfluorene;2-Hydroxy-9<em>H</em>-fluorene;NSC 26316;NSC 31248",
    "duplicated_cas_no": "",
    "SMILES": "OC=1C=C2C(C=3C(C2)=CC=CC3)=CC1",
    "meta_data": {
        "InChI": "InChI=1S/C13H10O/c14-11-5-6-13-10(8-11)7-9-3-1-2-4-12(9)13/h1-6,8,14H,7H2",
        "InChIKey": null,
        "Canonical SMILES": "OC1=CC=C2C=3C=CC=CC3CC2=C1",
        "Molecular Formula": "C<sub>13</sub>H<sub>10</sub>O",
        "Molecular Mass": "182.22",
        "Boiling Point": "266.3 °C",
        "Melting Point": "168 °C",
        "Density": "0.9982 g/cm³ @ Temp: 20 °C"
    }
}