{
    "cas_no": "78603-91-5",
    "key_name": "α-[(1<em>S</em>)-1-Aminoethyl]-α-phenylbenzenemethanol",
    "cn_name": null,
    "alternate_name": "Benzenemethanol, α-[(1<em>S</em>)-1-aminoethyl]-α-phenyl-;Benzenemethanol, α-(1-aminoethyl)-α-phenyl-, (<em>S</em>)-;α-[(1<em>S</em>)-1-Aminoethyl]-α-phenylbenzenemethanol;(<em>S</em>)-2-Amino-1,1-diphenyl-1-propanol;(<em>S</em>)-β-Hydroxy-α-methyl-β-phenylbenzeneethanamine;(2S)-2-Amino-1,1-diphenylpropan-1-ol;(<em>S</em>)-(-)-2-Amino-1,1-diphenyl-1-propanol",
    "duplicated_cas_no": "",
    "SMILES": "C([C@H](C)N)(O)(C1=CC=CC=C1)C2=CC=CC=C2",
    "meta_data": {
        "InChI": "InChI=1S/C15H17NO/c1-12(16)15(17,13-8-4-2-5-9-13)14-10-6-3-7-11-14/h2-12,17H,16H2,1H3/t12-/m0/s1",
        "InChIKey": null,
        "Canonical SMILES": "OC(C=1C=CC=CC1)(C=2C=CC=CC2)C(N)C",
        "Molecular Formula": "C<sub>15</sub>H<sub>17</sub>NO",
        "Molecular Mass": "227.30",
        "Melting Point": "98-100 °C"
    }
}