{
    "cas_no": "615-54-3",
    "key_name": "1,2,4-Tribromobenzene",
    "cn_name": "1,2,4-三溴苯;",
    "alternate_name": "Benzene, 1,2,4-tribromo-;1,2,4-Tribromobenzene;NSC 62440",
    "duplicated_cas_no": "",
    "SMILES": "BrC1=C(Br)C=CC(Br)=C1",
    "meta_data": {
        "InChI": "InChI=1S/C6H3Br3/c7-4-1-2-5(8)6(9)3-4/h1-3H",
        "InChIKey": null,
        "Canonical SMILES": "BrC1=CC=C(Br)C(Br)=C1",
        "Molecular Formula": "C<sub>6</sub>H<sub>3</sub>Br<sub>3</sub>",
        "Molecular Mass": "314.80",
        "Boiling Point": "275 °C",
        "Melting Point": "44.5 °C"
    }
}