{
    "cas_no": "480-10-4",
    "key_name": "Astragalin",
    "cn_name": "紫云英苷; 紫云英甙; 黄芪苷;",
    "alternate_name": "4<em>H</em>-1-Benzopyran-4-one, 3-(β-<span class=\"text-smallcaps\">D</span>-glucopyranosyloxy)-5,7-dihydroxy-2-(4-hydroxyphenyl)-;Astragalin;3-(β-<span class=\"text-smallcaps\">D</span>-Glucopyranosyloxy)-5,7-dihydroxy-2-(4-hydroxyphenyl)-4<em>H</em>-1-benzopyran-4-one;Astragaline;Kaempferol 3-glucoside;3-Glucosylkaempferol;Kaempferol 3-β-<span class=\"text-smallcaps\">D</span>-glucoside;Kaempferol 3-β-<span class=\"text-smallcaps\">D</span>-glucopyranoside;4′,5,7-Trihydroxyflavone 3-β-<span class=\"text-smallcaps\">D</span>-glucopyranoside;K 5;Kaempferol 3-<em>O</em>-β-<span class=\"text-smallcaps\">D</span>-glucoside;Kaempferol 3-<em>O</em>-β-<span class=\"text-smallcaps\">D</span>-glucopyranoside;Kaempferol 3-<em>O</em>-glucopyranoside;Kaempferol 3-<em>O</em>-β-glucoside;Kaempferol 3-<em>O</em>-glucoside;Kaemferol 3-<em>O</em>-glucopyranoside;Kaempherol 3-<em>O</em>-β-<span class=\"text-smallcaps\">D</span>-glucopyranoside;Kaemferol-3-<em>O</em>-β-<span class=\"text-smallcaps\">D</span>-glucopyranoside",
    "duplicated_cas_no": "100569-53-7;121136-61-6;123474-17-9;136529-58-3;27661-62-7;61247-96-9",
    "SMILES": "O=C1C=2C(OC(=C1O[C@@H]3O[C@H](CO)[C@@H](O)[C@H](O)[C@H]3O)C4=CC=C(O)C=C4)=CC(O)=CC2O",
    "meta_data": {
        "InChI": "InChI=1S/C21H20O11/c22-7-13-15(26)17(28)18(29)21(31-13)32-20-16(27)14-11(25)5-10(24)6-12(14)30-19(20)8-1-3-9(23)4-2-8/h1-6,13,15,17-18,21-26,28-29H,7H2/t13-,15-,17+,18-,21+/m1/s1",
        "InChIKey": null,
        "Canonical SMILES": "O=C1C(OC2OC(CO)C(O)C(O)C2O)=C(OC=3C=C(O)C=C(O)C13)C=4C=CC(O)=CC4",
        "Molecular Formula": "C<sub>21</sub>H<sub>20</sub>O<sub>11</sub>",
        "Molecular Mass": "448.38",
        "Melting Point": "218-220 °C"
    }
}