{
    "cas_no": "458-11-7",
    "key_name": "<em>N</em>-(3,4-Difluorophenyl)acetamide",
    "cn_name": null,
    "alternate_name": "Acetamide, <em>N</em>-(3,4-difluorophenyl)-;<em>N</em>-(3,4-Difluorophenyl)acetamide;3,4-Difluoroacetanilide;NSC 10347",
    "duplicated_cas_no": "",
    "SMILES": "N(C(C)=O)C1=CC(F)=C(F)C=C1",
    "meta_data": {
        "InChI": "InChI=1S/C8H7F2NO/c1-5(12)11-6-2-3-7(9)8(10)4-6/h2-4H,1H3,(H,11,12)",
        "InChIKey": null,
        "Canonical SMILES": "O=C(NC1=CC=C(F)C(F)=C1)C",
        "Molecular Formula": "C<sub>8</sub>H<sub>7</sub>F<sub>2</sub>NO",
        "Molecular Mass": "171.14",
        "Melting Point": "127-127.5 °C"
    }
}