{
    "cas_no": "97322-87-7",
    "key_name": "Troglitazone",
    "cn_name": null,
    "alternate_name": "2,4-Thiazolidinedione, 5-[[4-[(3,4-dihydro-6-hydroxy-2,5,7,8-tetramethyl-2<em>H</em>-1-benzopyran-2-yl)methoxy]phenyl]methyl]-;5-[[4-[(3,4-Dihydro-6-hydroxy-2,5,7,8-tetramethyl-2<em>H</em>-1-benzopyran-2-yl)methoxy]phenyl]methyl]-2,4-thiazolidinedione;CS 045;Troglitazone;Romglizone;GR 92132X;CI 991;Rezulin;Noscal;Depotox",
    "duplicated_cas_no": "259223-65-9",
    "SMILES": "CC1=C2C(CCC(COC3=CC=C(CC4C(=O)NC(=O)S4)C=C3)(C)O2)=C(C)C(O)=C1C",
    "meta_data": {
        "InChI": "InChI=1S/C24H27NO5S/c1-13-14(2)21-18(15(3)20(13)26)9-10-24(4,30-21)12-29-17-7-5-16(6-8-17)11-19-22(27)25-23(28)31-19/h5-8,19,26H,9-12H2,1-4H3,(H,25,27,28)",
        "InChIKey": null,
        "Canonical SMILES": "O=C1SC(C(=O)N1)CC2=CC=C(OCC3(OC=4C(=C(C(O)=C(C4CC3)C)C)C)C)C=C2",
        "Molecular Formula": "C<sub>24</sub>H<sub>27</sub>NO<sub>5</sub>S",
        "Molecular Mass": "441.54",
        "Melting Point": "184-186 °C"
    }
}