{
    "cas_no": "604-80-8",
    "key_name": "Narcissin",
    "cn_name": null,
    "alternate_name": "4<em>H</em>-1-Benzopyran-4-one, 3-[[6-<em>O</em>-(6-deoxy-α-<span class=\"text-smallcaps\">L</smallcap>-mannopyranosyl)-β-<smallcap>D</span>-glucopyranosyl]oxy]-5,7-dihydroxy-2-(4-hydroxy-3-methoxyphenyl)-;Narcissin;3-[[6-<em>O</em>-(6-Deoxy-α-<span class=\"text-smallcaps\">L</smallcap>-mannopyranosyl)-β-<smallcap>D</span>-glucopyranosyl]oxy]-5,7-dihydroxy-2-(4-hydroxy-3-methoxyphenyl)-4<em>H</em>-1-benzopyran-4-one;Isorhamnetin 3-rutinoside;Narcissoside;Isorhamnetin 3-β-<span class=\"text-smallcaps\">D</smallcap>-glucopyranosyl-(6→1)-<smallcap>L</span>-rhamnopyranoside;Isorhamnetin 3β-rutinoside;Isorhamnetol 3-<em>O</em>-rutinoside;Isorhamnetin 3-rhamnoglucoside;Isorhamnetin 3-<em>O</em>-rutinoside;Isorhamnetin 3-<em>O</em>-β-rutinoside;3′-<em>O</em>-Methylquercetin 3-rutinoside;Isorhamnetin-3-<em>O</em>-β-<span class=\"text-smallcaps\">D</span>-rutinoside;Isorhamnetin 3-β-<em>O</em>-rutinoside;Isorhamnetin 3-<em>O</em>-α-<span class=\"text-smallcaps\">L</smallcap>-rhamnosyl(1→6)-β-<smallcap>D</span>-glucopyranoside;Isorhamnetin 3-<em>O</em>-β-<span class=\"text-smallcaps\">D</smallcap>-(6′′-<em>O</em>-α-<smallcap>L</span>-rhamnopyranosyl)glucopyranoside;3-<em>O</em>-Rutinosylisorhamnetin;Isorhamnetin 3-<em>O</em>-β-<span class=\"text-smallcaps\">D</smallcap>-(6-<em>O</em>-α-<smallcap>L</span>-rhamnosyl)glucoside;Isorhamnetin 3-<em>O</em>-α-rhamnopyranosyl-(1→6)-β-glucopyranoside;Quercetin 3′-<em>O</em>-methyl-3-<em>O</em>-α-<span class=\"text-smallcaps\">L</smallcap>-rhamnopyranosyl(1→6)-β-<smallcap>D</span>-glucopyranoside;Isorhamentin 3-<em>O</em>-β-<span class=\"text-smallcaps\">D</span>-rutinoside;Isorhamnetin 3-<em>O</em>-(6′′-<em>O</em>-α-<span class=\"text-smallcaps\">L</smallcap>-rhamnopyransoyl)-β-<smallcap>D</span>-glucopyranoside;Isorhamnetin rutinoside;Rutin 3′-methyl ether",
    "duplicated_cas_no": "31228-20-3;56384-79-3;1251737-21-9",
    "SMILES": "O(C1=C(OC=2C(C1=O)=C(O)C=C(O)C2)C3=CC(OC)=C(O)C=C3)[C@@H]4O[C@H](CO[C@H]5[C@H](O)[C@H](O)[C@@H](O)[C@H](C)O5)[C@@H](O)[C@H](O)[C@H]4O",
    "meta_data": {
        "InChI": "InChI=1S/C28H32O16/c1-9-18(32)21(35)23(37)27(41-9)40-8-16-19(33)22(36)24(38)28(43-16)44-26-20(34)17-13(31)6-11(29)7-15(17)42-25(26)10-3-4-12(30)14(5-10)39-2/h3-7,9,16,18-19,21-24,27-33,35-38H,8H2,1-2H3/t9-,16+,18-,19+,21+,22-,23+,24+,27+,28-/m0/s1",
        "InChIKey": null,
        "Canonical SMILES": "O=C1C(OC2OC(COC3OC(C)C(O)C(O)C3O)C(O)C(O)C2O)=C(OC=4C=C(O)C=C(O)C14)C=5C=CC(O)=C(OC)C5",
        "Molecular Formula": "C<sub>28</sub>H<sub>32</sub>O<sub>16</sub>",
        "Molecular Mass": "624.54",
        "Melting Point": "180 °C"
    }
}