{
    "cas_no": "3349-64-2",
    "key_name": "1(2<em>H</em>)-Naphthalenone, 3,4-dihydro-, oxime",
    "cn_name": null,
    "alternate_name": "1(2<em>H</em>)-Naphthalenone, 3,4-dihydro-, oxime;1-Tetralone oxime;α-Tetralone oxime;Tetralone oxime;3,4-Dihydro-1(2<em>H</em>)-naphthalenone oxime;NSC 27894;4-Dihydro-2<em>H</em>-naphthalen-1-one oxime;<em>N</em>-Hydroxy-3,4-dihydronaphthalen-1(2<em>H</em>)-imine;1-(3,4-Dihydronaphthalen-2-yl)ethanone oxime",
    "duplicated_cas_no": "193267-31-1;2374202-14-7;2768026-90-8;2920106-22-3",
    "SMILES": "N(O)=C1C=2C(CCC1)=CC=CC2",
    "meta_data": {
        "InChI": "InChI=1S/C10H11NO/c12-11-10-7-3-5-8-4-1-2-6-9(8)10/h1-2,4,6,12H,3,5,7H2",
        "InChIKey": null,
        "Canonical SMILES": "ON=C1C=2C=CC=CC2CCC1",
        "Molecular Formula": "C<sub>10</sub>H<sub>11</sub>NO",
        "Molecular Mass": "161.20",
        "Melting Point": "103-104 °C"
    }
}