{
    "cas_no": "1202-34-2",
    "key_name": "2,2′-Dipyridylamine",
    "cn_name": "2,2\"-二吡啶胺;",
    "alternate_name": "2-Pyridinamine, <em>N</em>-2-pyridinyl-;Pyridine, 2,2′-iminodi-;<em>N</em>-2-Pyridinyl-2-pyridinamine;2,2′-Dipyridylamine;Di-2-pyridylamine;2,2′-Bipyridylamine;Di-α-pyridylamine;2,2′-Iminodipyridine;Bis(2-pyridyl)amine;2-(2-Pyridylamino)pyridine;Bis(<em>o</em>-pyridyl)amine;NSC 7494;Bis(pyridin-2-yl)amine;Dipyridin-2-ylamine",
    "duplicated_cas_no": "145611-75-2",
    "SMILES": "N(C1=CC=CC=N1)C2=CC=CC=N2",
    "meta_data": {
        "InChI": "InChI=1S/C10H9N3/c1-3-7-11-9(5-1)13-10-6-2-4-8-12-10/h1-8H,(H,11,12,13)",
        "InChIKey": null,
        "Canonical SMILES": "N=1C=CC=CC1NC2=NC=CC=C2",
        "Molecular Formula": "C<sub>10</sub>H<sub>9</sub>N<sub>3</sub>",
        "Molecular Mass": "171.20",
        "Boiling Point": "307.5 °C",
        "Melting Point": "90.5 °C"
    }
}