{
    "cas_no": "689-12-3",
    "key_name": "Isopropyl acrylate",
    "cn_name": null,
    "alternate_name": "2-Propenoic acid, 1-methylethyl ester;Acrylic acid, isopropyl ester;Isopropyl acrylate;Isopropyl 2-propenoate;NSC 32619",
    "duplicated_cas_no": "",
    "SMILES": "C(OC(C)C)(C=C)=O",
    "meta_data": {
        "InChI": "InChI=1S/C6H10O2/c1-4-6(7)8-5(2)3/h4-5H,1H2,2-3H3",
        "InChIKey": null,
        "Canonical SMILES": "O=C(OC(C)C)C=C",
        "Molecular Formula": "C<sub>6</sub>H<sub>10</sub>O<sub>2</sub>",
        "Molecular Mass": "114.14",
        "Boiling Point": "108-112 °C",
        "Density": "0.8935 g/cm³ @ Temp: 22 °C"
    }
}