{
    "cas_no": "2534-77-2",
    "key_name": "<em>exo</em>-2-Bromonorbornane",
    "cn_name": "EXO-2-溴降莰烷;",
    "alternate_name": "Bicyclo[2.2.1]heptane, 2-bromo-, (1<em>R</em>,2<em>R</em>,4<em>S</em>)-<em>rel</em>-;Norbornane, 2-bromo-, <em>exo</em>-;Bicyclo[2.2.1]heptane, 2-bromo-, <em>exo</em>-;<em>rel</em>-(1<em>R</em>,2<em>R</em>,4<em>S</em>)-2-Bromobicyclo[2.2.1]heptane;<em>exo</em>-2-Bromonorbornane;<em>exo</em>-2-Norbornyl bromide;<em>exo</em>-Norbornyl bromide;(±)-<em>exo</em>-2-Bromonorbornane;2-<em>exo</em>-Bromonorbornane;NSC 91496;<em>exo</em>-2-Bromobicyclo[2.2.1]heptane",
    "duplicated_cas_no": "67815-05-8",
    "SMILES": "Br[C@@H]1[C@@]2(C[C@](C1)(CC2)[H])[H]",
    "meta_data": {
        "InChI": "InChI=1/C7H11Br/c8-7-4-5-1-2-6(7)3-5/h5-7H,1-4H2/t5-,6+,7+/s2",
        "InChIKey": null,
        "Canonical SMILES": "BrC1CC2CCC1C2",
        "Molecular Formula": "C<sub>7</sub>H<sub>11</sub>Br",
        "Molecular Mass": "175.07",
        "Boiling Point": "82 °C",
        "Density": "1.3808 g/cm³ @ Temp: 25 °C"
    }
}