{
    "cas_no": "1300-73-8",
    "key_name": "Xylidine",
    "cn_name": "二甲基苯胺;",
    "alternate_name": "Benzenamine, <em>ar</em>,<em>ar</em>-dimethyl-;Xylidine;<em>ar</em>,<em>ar</em>-Dimethylbenzenamine;Aminodimethylbenzene;<em>ar</em>,<em>ar</em>-Dimethylaniline",
    "duplicated_cas_no": "",
    "SMILES": "",
    "meta_data": {
        "InChI": "",
        "InChIKey": null,
        "Canonical SMILES": "",
        "Molecular Formula": "C<sub>8</sub>H<sub>11</sub>N",
        "Molecular Mass": "",
        "Boiling Point": "213-226 °C",
        "Melting Point": "-36 °C",
        "Density": "0.97-0.99 g/cm³"
    }
}