{
    "cas_no": "28179-47-7",
    "key_name": "1-Methyl 5-amino-1,3-benzenedicarboxylate",
    "cn_name": "5-氨基异酞酸单甲酯;",
    "alternate_name": "1,3-Benzenedicarboxylic acid, 5-amino-, 1-methyl ester;Isophthalic acid, 5-amino-, monomethyl ester;1,3-Benzenedicarboxylic acid, 5-amino-, monomethyl ester;1-Methyl 5-amino-1,3-benzenedicarboxylate;3-Amino-5-methoxycarbonylbenzoic acid;3-Carbomethoxy-5-aminobenzoic acid;5-Aminobenzene-1,3-dicarboxylic acid monomethyl ester;Monomethyl 5-aminoisophthalate",
    "duplicated_cas_no": "",
    "SMILES": "C(OC)(=O)C1=CC(C(O)=O)=CC(N)=C1",
    "meta_data": {
        "InChI": "InChI=1S/C9H9NO4/c1-14-9(13)6-2-5(8(11)12)3-7(10)4-6/h2-4H,10H2,1H3,(H,11,12)",
        "InChIKey": null,
        "Canonical SMILES": "O=C(O)C1=CC(N)=CC(=C1)C(=O)OC",
        "Molecular Formula": "C<sub>9</sub>H<sub>9</sub>NO<sub>4</sub>",
        "Molecular Mass": "195.17",
        "Melting Point": "210-214 °C"
    }
}