{
    "cas_no": "1120-56-5",
    "key_name": "Methylenecyclobutane",
    "cn_name": "亚甲基环丁烷;",
    "alternate_name": "Cyclobutane, methylene-;Methylenecyclobutane;<em>exo</em>-Methylenecyclobutane;NSC 90355",
    "duplicated_cas_no": "",
    "SMILES": "C=C1CCC1",
    "meta_data": {
        "InChI": "InChI=1S/C5H8/c1-5-3-2-4-5/h1-4H2",
        "InChIKey": null,
        "Canonical SMILES": "C=C1CCC1",
        "Molecular Formula": "C<sub>5</sub>H<sub>8</sub>",
        "Molecular Mass": "68.12",
        "Boiling Point": "42.2 °C",
        "Melting Point": "-134.7 °C",
        "Density": "0.7487 g/cm³ @ Temp: 10 °C"
    }
}