{
    "cas_no": "31469-16-6",
    "key_name": "[(1-Ethoxy-2-methyl-1-propen-1-yl)oxy]trimethylsilane",
    "cn_name": null,
    "alternate_name": "Silane, [(1-ethoxy-2-methyl-1-propen-1-yl)oxy]trimethyl-;Silane, [(1-ethoxy-2-methyl-1-propenyl)oxy]trimethyl-;Silane, [(1-ethoxy-2-methylpropenyl)oxy]trimethyl-;[(1-Ethoxy-2-methyl-1-propen-1-yl)oxy]trimethylsilane;1-Ethoxy-2-methyl-1-(trimethylsiloxy)-1-propene;[(1-Ethoxy-2-methyl-1-propenyl)oxy]trimethylsilane;1-Ethoxy-2-methyl-1-trimethylsiloxypropene;1-Ethoxy-2-methyl-1-(trimethylsilyl)oxy-1-propene;1-Ethoxy-2-methyl-1-(trimethylsilyloxy)propene;Ethyl trimethylsilyl dimethylketene acetal;(1-Ethoxy-2-methylprop-1-enoxy)-trimethylsilane",
    "duplicated_cas_no": "",
    "SMILES": "C(O[Si](C)(C)C)(OCC)=C(C)C",
    "meta_data": {
        "InChI": "InChI=1S/C9H20O2Si/c1-7-10-9(8(2)3)11-12(4,5)6/h7H2,1-6H3",
        "InChIKey": null,
        "Canonical SMILES": "O(C(O[Si](C)(C)C)=C(C)C)CC",
        "Molecular Formula": "C<sub>9</sub>H<sub>20</sub>O<sub>2</sub>Si",
        "Molecular Mass": "188.34",
        "Boiling Point": "60 °C @ Press: 20 Torr"
    }
}