{
    "cas_no": "6892-68-8",
    "key_name": "Dithioerythritol",
    "cn_name": "二硫代赤藓醇;1,4-二硫代赤藓醇;1,4-二巯基-2,3-丁二醇;",
    "alternate_name": "2,3-Butanediol, 1,4-dimercapto-, (2<em>R</em>,3<em>S</em>)-<em>rel</em>-;Erythritol, 1,4-dithio-;2,3-Butanediol, 1,4-dimercapto-, (<em>R</em>*,<em>S</em>*)-;<em>rel</em>-(2<em>R</em>,3<em>S</em>)-1,4-Dimercapto-2,3-butanediol;1,4-Dithioerythritol;Dithioerythritol;DTE;<em>erythro</em>-1,4,-Dimercapto-2,3-butanediol;Dithioerythreitol;MeSH ID: D004226",
    "duplicated_cas_no": "1451214-85-9",
    "SMILES": "[C@H]([C@H](CS)O)(CS)O",
    "meta_data": {
        "InChI": "InChI=1/C4H10O2S2/c5-3(1-7)4(6)2-8/h3-8H,1-2H2/t3-,4+",
        "InChIKey": null,
        "Canonical SMILES": "OC(CS)C(O)CS",
        "Molecular Formula": "C<sub>4</sub>H<sub>10</sub>O<sub>2</sub>S<sub>2</sub>",
        "Molecular Mass": "154.25",
        "Melting Point": "83 °C"
    }
}