{
    "cas_no": "7087-68-5",
    "key_name": "Diisopropylethylamine",
    "cn_name": "N,N-二异丙基乙胺;",
    "alternate_name": "2-Propanamine, <em>N</em>-ethyl-<em>N</em>-(1-methylethyl)-;Triethylamine, 1,1′-dimethyl-;<em>N</em>-Ethyl-<em>N</em>-(1-methylethyl)-2-propanamine;<em>N</em>-Ethyldiisopropylamine;Ethyldiisopropylamine;<em>N</em>-Ethyl-<em>N</em>,<em>N</em>-diisopropylamine;<em>N</em>,<em>N</em>-Diisopropylethylamine;Diisopropylethylamine;1,1′-Dimethyltriethylamine;Huenig's base;Hunig's base;DIEA;Hunig's reagent;Bis(1-methylethyl)ethylamine;NSC 147491;Ethyl-<em>N</em>,<em>N</em>-diisopropylamine;<em>N</em>,<em>N</em>-Bis(1-methylethyl)-<em>N</em>-ethylamine;<em>N</em>-Ethyl-<em>N</em>-isopropylpropan-2-amine;DIPEA;<em>N</em>-Ethyl-<em>N</em>-propan-2-ylpropan-2-amine;Ethylbis(propan-2-yl)amine",
    "duplicated_cas_no": "1200454-07-4",
    "SMILES": "N(C(C)C)(C(C)C)CC",
    "meta_data": {
        "InChI": "InChI=1S/C8H19N/c1-6-9(7(2)3)8(4)5/h7-8H,6H2,1-5H3",
        "InChIKey": null,
        "Canonical SMILES": "N(CC)(C(C)C)C(C)C",
        "Molecular Formula": "C<sub>8</sub>H<sub>19</sub>N",
        "Molecular Mass": "129.24",
        "Boiling Point": "126.5 °C",
        "Melting Point": "126-128 °C",
        "Density": "0.76 g/cm³"
    }
}