{
    "cas_no": "39720-27-9",
    "key_name": "4-(Chloromethyl)phenyl acetate",
    "cn_name": null,
    "alternate_name": "Phenol, 4-(chloromethyl)-, 1-acetate;Phenol, 4-(chloromethyl)-, acetate;<em>p</em>-Cresol, α-chloro-, acetate;<em>p</em>-Acetoxybenzyl chloride;<em>p</em>-(Chloromethyl)phenyl acetate;4-(Chloromethyl)phenyl acetate;α-Chloro-<em>p</em>-cresol acetate;4-Acetoxybenzyl chloride",
    "duplicated_cas_no": "",
    "SMILES": "O(C(C)=O)C1=CC=C(CCl)C=C1",
    "meta_data": {
        "InChI": "InChI=1S/C9H9ClO2/c1-7(11)12-9-4-2-8(6-10)3-5-9/h2-5H,6H2,1H3",
        "InChIKey": null,
        "Canonical SMILES": "O=C(OC1=CC=C(C=C1)CCl)C",
        "Molecular Formula": "C<sub>9</sub>H<sub>9</sub>ClO<sub>2</sub>",
        "Molecular Mass": "184.62",
        "Boiling Point": "82 °C @ Press: 0.01 Torr",
        "Melting Point": "31.5 °C"
    }
}