{
    "cas_no": "6021-21-2",
    "key_name": "<em>N</em>-(2-Benzoyl-4-chlorophenyl)-2-chloro-<em>N</em>-methylacetamide",
    "cn_name": null,
    "alternate_name": "Acetamide, <em>N</em>-(2-benzoyl-4-chlorophenyl)-2-chloro-<em>N</em>-methyl-;Acetanilide, 2′-benzoyl-2,4′-dichloro-<em>N</em>-methyl-;<em>N</em>-(2-Benzoyl-4-chlorophenyl)-2-chloro-<em>N</em>-methylacetamide;5-Chloro-2-(2-chloro-<em>N</em>-methylacetamido)benzophenone;<em>N</em>-Methyl-2′-benzoyl-2,4′-dichloroacetanilide",
    "duplicated_cas_no": "",
    "SMILES": "C(=O)(C1=C(N(C(CCl)=O)C)C=CC(Cl)=C1)C2=CC=CC=C2",
    "meta_data": {
        "InChI": "InChI=1S/C16H13Cl2NO2/c1-19(15(20)10-17)14-8-7-12(18)9-13(14)16(21)11-5-3-2-4-6-11/h2-9H,10H2,1H3",
        "InChIKey": null,
        "Canonical SMILES": "O=C(C=1C=CC=CC1)C2=CC(Cl)=CC=C2N(C(=O)CCl)C",
        "Molecular Formula": "C<sub>16</sub>H<sub>13</sub>Cl<sub>2</sub>NO<sub>2</sub>",
        "Molecular Mass": "322.19",
        "Melting Point": "123-124 °C"
    }
}