{
    "cas_no": "101990-69-6",
    "key_name": "2,6-Dichloro-4-pyridinemethanol",
    "cn_name": null,
    "alternate_name": "4-Pyridinemethanol, 2,6-dichloro-;2,6-Dichloro-4-pyridinemethanol;2,6-Dichloropyrid-4-ylcarbinol;(2,6-Dichloropyridin-4-yl)methanol;2,6-Dichloro-4-(hydroxymethyl)pyridine;(2,6-Dichloro-4-pyridyl)methanol",
    "duplicated_cas_no": "",
    "SMILES": "C(O)C=1C=C(Cl)N=C(Cl)C1",
    "meta_data": {
        "InChI": "InChI=1S/C6H5Cl2NO/c7-5-1-4(3-10)2-6(8)9-5/h1-2,10H,3H2",
        "InChIKey": null,
        "Canonical SMILES": "ClC=1N=C(Cl)C=C(C1)CO",
        "Molecular Formula": "C<sub>6</sub>H<sub>5</sub>Cl<sub>2</sub>NO",
        "Molecular Mass": "178.02",
        "Melting Point": "133 °C"
    }
}