{
    "cas_no": "6731-36-8",
    "key_name": "1,1-Bis(<em>tert</em>-butylperoxy)-3,3,5-trimethylcyclohexane",
    "cn_name": "1,1-二叔丁基过氧化-3,3,5-三甲基环己烷;",
    "alternate_name": "Peroxide, 1,1′-(3,3,5-trimethylcyclohexylidene)bis[2-(1,1-dimethylethyl);Peroxide, (3,3,5-trimethylcyclohexylidene)bis[<em>tert</em>-butyl;Peroxide, (3,3,5-trimethylcyclohexylidene)bis[(1,1-dimethylethyl);1,1′-(3,3,5-Trimethylcyclohexylidene)bis[2-(1,1-dimethylethyl) peroxide];1,1-Di-<em>tert</em>-butylperoxy-3,5,5-trimethylcyclohexane;3,3,5-Trimethyl-1,1-bis(<em>tert</em>-butylperoxy)cyclohexane;1,1-Bis(<em>tert</em>-butylperoxy)-3,5,5-trimethylcyclohexane;1,1-Bis(<em>tert</em>-butylperoxy)-3,3,5-trimethylcyclohexane;Trigonox 29B50;Lupersol 231;Trigonox 29/40;1,1-Bis(<em>tert</em>-butyldioxy)-3,3,5-trimethylcyclohexane;<em>gem</em>-Bis(<em>tert</em>-butylperoxy)-3,3,5-trimethylcyclohexane;Luperco 231XL;1,1-Di-<em>tert</em>-butylperoxy-3,3,5-trimethylcyclohexane;Trigonox 29B75;<em>gem</em>-Di-<em>tert</em>-butylperoxy-3,3,5-trimethylcyclohexane;Perhexa 3M;Luperox 231;Luperco 231G;Trigonox 29;Luperco 231XLP;Varox 231XL;Trigonox 29/40MB;1,1-Bis(<em>tert</em>-butyl)-3,3,5-trimethylcyclohexane peroxide;1,1-Di(<em>t</em>-butylperoxy)-3,3,5-trimethylcyclohexane;Perhexa 3M40;Trigonox 29C75;Luperco 231G40;Tx 29;Trigonox 29B90;Lupersol 230XL;Luperox 231-50;Interox TMCH 40IC;Trigonox 29-40B-PD;Luperox 231XL;Lupersol L 231;Trigonox 29A;Sanperox CY 1.1;TX 29B50;Link-Cup TMCH;Luperox 231XL40SP;USP 495D;Varox 231;Varox 231XL40;Luperox 231P75;Perhexa 3M40V;Trigonox 29-40B-GR;TX 29/40;1,1-Bis(<em>tert</em>-butyloxy-oxy)3,3,5-trimethylcyclohexane;Irgacure 335;1,2-<em>tert</em>-Butyl 3,3,5-trimethylcyclohexane peroxide;1,1-Di(di-<em>tert</em>-butyl peroxy)-3,3,5-trimethylcyclohexane;TMCH;1,1-Bis(t-butylperoxy)-3,3,5-trimethylcyclohexane;3M;1,1-Bis(1,1-dimethylethylperoxy)-3,3,5-trimethylcyclohexane;1,1,5-Trimethyl-3,3-bis(<em>tert</em>-butylperoxy)cyclohexane;Trigonox 29E90;Peroxan PK 295V;Trigonox 29-40B-GR-E;TM 40B;TMCH 40;CH 335",
    "duplicated_cas_no": "129510-85-6;12701-77-8;25061-02-3;62534-34-3;86857-22-9;849676-64-8",
    "SMILES": "O(OC(C)(C)C)C1(OOC(C)(C)C)CC(C)(C)CC(C)C1",
    "meta_data": {
        "InChI": "InChI=1S/C17H34O4/c1-13-10-16(8,9)12-17(11-13,20-18-14(2,3)4)21-19-15(5,6)7/h13H,10-12H2,1-9H3",
        "InChIKey": null,
        "Canonical SMILES": "O(OC1(OOC(C)(C)C)CC(C)CC(C)(C)C1)C(C)(C)C",
        "Molecular Formula": "C<sub>17</sub>H<sub>34</sub>O<sub>4</sub>",
        "Molecular Mass": "302.45",
        "Melting Point": "90 °C (decomp)"
    }
}