{
    "cas_no": "1009-61-6",
    "key_name": "1,4-Diacetylbenzene",
    "cn_name": "1,4-二乙酰苯; 对二乙酰基苯;",
    "alternate_name": "Ethanone, 1,1′-(1,4-phenylene)bis-;Benzene, <em>p</em>-diacetyl-;1,1′-(1,4-Phenylene)bis[ethanone];<em>p</em>-Diacetylbenzene;1,4-Diacetylbenzene;<em>p</em>-Acetylacetophenone;4′-Acetylacetophenone;NSC 295548;1,1′-(1,4-Phenylene)bis(ethan-1-one);1,1′-(1,4-Phenylene)diethanone;1-(4-Acetylphenyl)ethanone;1-(4-Acetylphenyl)ethan-1-one",
    "duplicated_cas_no": "",
    "SMILES": "C(C)(=O)C1=CC=C(C(C)=O)C=C1",
    "meta_data": {
        "InChI": "InChI=1S/C10H10O2/c1-7(11)9-3-5-10(6-4-9)8(2)12/h3-6H,1-2H3",
        "InChIKey": null,
        "Canonical SMILES": "O=C(C1=CC=C(C=C1)C(=O)C)C",
        "Molecular Formula": "C<sub>10</sub>H<sub>10</sub>O<sub>2</sub>",
        "Molecular Mass": "162.19",
        "Boiling Point": "115-120 °C @ Press: 2 Torr",
        "Melting Point": "111-113 °C"
    }
}