{
    "cas_no": "593-39-5",
    "key_name": "Petroselinic acid",
    "cn_name": null,
    "alternate_name": "6-Octadecenoic acid, (6<em>Z</em>)-;6-Octadecenoic acid, (<em>Z</em>)-;Petroselinic acid;(6<em>Z</em>)-6-Octadecenoic acid;<em>cis</em>-Δ<sup>6</sup>-Octadecenoic acid;<em>cis</em>-6-Octadecenoic acid;Δ<sup>6</sup>-<em>cis</em>-Octadecenoic acid;(<em>Z</em>)-6-Octadecenoic acid;<em>cis</em>-Petroselinic acid;6(Z)-Octadecenoic acid;Petroselic acid;(6<em>Z</em>)-Octadecenoic acid",
    "duplicated_cas_no": "",
    "SMILES": "C(\\CCCCCCCCCCC)=C\\CCCCC(O)=O",
    "meta_data": {
        "InChI": "InChI=1S/C18H34O2/c1-2-3-4-5-6-7-8-9-10-11-12-13-14-15-16-17-18(19)20/h12-13H,2-11,14-17H2,1H3,(H,19,20)/b13-12-",
        "InChIKey": null,
        "Canonical SMILES": "O=C(O)CCCCC=CCCCCCCCCCCC",
        "Molecular Formula": "C<sub>18</sub>H<sub>34</sub>O<sub>2</sub>",
        "Molecular Mass": "282.46",
        "Boiling Point": "237.5 °C",
        "Melting Point": "29.8 °C",
        "Density": "0.8681 g/cm³ @ Temp: 40 °C"
    }
}