{
    "cas_no": "19757-97-2",
    "key_name": "Methyl 2-hydroxy-2-methoxyacetate",
    "cn_name": "2-羟基-2-甲氧基乙酸甲酯;羟基甲氧基乙酸甲酯;",
    "alternate_name": "Acetic acid, 2-hydroxy-2-methoxy-, methyl ester;Glycolic acid, methoxy-, methyl ester;Acetic acid, hydroxymethoxy-, methyl ester;Glyoxylic acid, methyl ester, methyl hemiacetal;Methyl glyoxylate methyl hemiacetal;Methyl 2-hydroxy-2-methoxyacetate;2-Hydroxy-2-methoxyacetic acid methyl ester;α-Hydroxy-α-methoxyacetic acid;GMHA;Glycolic acid methyl ester-hemiacetal",
    "duplicated_cas_no": "109745-70-2",
    "SMILES": "C(C(OC)=O)(OC)O",
    "meta_data": {
        "InChI": "InChI=1S/C4H8O4/c1-7-3(5)4(6)8-2/h3,5H,1-2H3",
        "InChIKey": null,
        "Canonical SMILES": "O=C(OC)C(O)OC",
        "Molecular Formula": "C<sub>4</sub>H<sub>8</sub>O<sub>4</sub>",
        "Molecular Mass": "120.10",
        "Boiling Point": "117-120 °C @ Press: 760 Torr"
    }
}