{
    "cas_no": "627-18-9",
    "key_name": "3-Bromo-1-propanol",
    "cn_name": "3-溴-1-丙醇;",
    "alternate_name": "1-Propanol, 3-bromo-;3-Bromo-1-propanol;Trimethylene bromohydrin;3-Hydroxypropyl bromide;1-Bromo-3-propanol;1-Bromo-3-hydroxypropane;3-Bromopropyl alcohol;3-Bromopropane-1-ol",
    "duplicated_cas_no": "",
    "SMILES": "C(CBr)CO",
    "meta_data": {
        "InChI": "InChI=1S/C3H7BrO/c4-2-1-3-5/h5H,1-3H2",
        "InChIKey": null,
        "Canonical SMILES": "BrCCCO",
        "Molecular Formula": "C<sub>3</sub>H<sub>7</sub>BrO",
        "Molecular Mass": "138.99",
        "Boiling Point": "105 °C"
    }
}