{
    "cas_no": "2466-42-4",
    "key_name": "(+)-Neolitsine",
    "cn_name": null,
    "alternate_name": "5<em>H</em>-Bis[1,3]benzodioxolo[6,5,4-<em>de</em>:5′,6′-<em>g</em>]quinoline, 6,7,7a,8-tetrahydro-7-methyl-, (7a<em>S</em>)-;6aα-Aporphine, 1,2:9,10-bis(methylenedioxy)-;5<em>H</em>-Bis[1,3]benzodioxolo[6,5,4-<em>de</em>:5′,6′-<em>g</em>]quinoline, 6,7,7a,8-tetrahydro-7-methyl-, (<em>S</em>)-;(7a<em>S</em>)-6,7,7a,8-Tetrahydro-7-methyl-5<em>H</em>-bis[1,3]benzodioxolo[6,5,4-<em>de</em>:5′,6′-<em>g</em>]quinoline;Neolitsine;Neolitsin;(+)-Neolitsine",
    "duplicated_cas_no": "",
    "SMILES": "CN1[C@@]2(C=3C(C=4C(C2)=CC5=C(C4)OCO5)=C6C(=CC3CC1)OCO6)[H]",
    "meta_data": {
        "InChI": "InChI=1S/C19H17NO4/c1-20-3-2-10-5-16-19(24-9-23-16)18-12-7-15-14(21-8-22-15)6-11(12)4-13(20)17(10)18/h5-7,13H,2-4,8-9H2,1H3/t13-/m0/s1",
        "InChIKey": null,
        "Canonical SMILES": "O1C=2C=C3C=4C=5OCOC5C=C6C4C(N(C)CC6)CC3=CC2OC1",
        "Molecular Formula": "C<sub>19</sub>H<sub>17</sub>NO<sub>4</sub>",
        "Molecular Mass": "323.34",
        "Melting Point": "149-150 °C"
    }
}