{
    "cas_no": "126-64-7",
    "key_name": "Linalyl benzoate",
    "cn_name": "3,7-二甲基-1,6-辛二烯-3-醇苯甲酸酯;",
    "alternate_name": "1,6-Octadien-3-ol, 3,7-dimethyl-, 3-benzoate;1,6-Octadien-3-ol, 3,7-dimethyl-, benzoate;Linalool, benzoate;3,7-Dimethyl-1,6-octadien-3-ol benzoate;3,7-Dimethyl-1,6-octadien-3-yl benzoate;Linalyl benzoate;NSC 71926",
    "duplicated_cas_no": "",
    "SMILES": "C(OC(=O)C1=CC=CC=C1)(CCC=C(C)C)(C=C)C",
    "meta_data": {
        "InChI": "InChI=1S/C17H22O2/c1-5-17(4,13-9-10-14(2)3)19-16(18)15-11-7-6-8-12-15/h5-8,10-12H,1,9,13H2,2-4H3",
        "InChIKey": null,
        "Canonical SMILES": "O=C(OC(C=C)(C)CCC=C(C)C)C=1C=CC=CC1",
        "Molecular Formula": "C<sub>17</sub>H<sub>22</sub>O<sub>2</sub>",
        "Molecular Mass": "258.36",
        "Boiling Point": "263 °C"
    }
}