{
    "cas_no": "58196-33-1",
    "key_name": "7-Hydroxy-1,2,3,4-tetrahydroquinoline",
    "cn_name": "7-羟基-1,2,3,4-四氢喹啉;",
    "alternate_name": "7-Quinolinol, 1,2,3,4-tetrahydro-;1,2,3,4-Tetrahydro-7-quinolinol;7-Hydroxy-1,2,3,4-tetrahydroquinoline;1,2,3,4-Tetrahydro-7-hydroxyquinoline",
    "duplicated_cas_no": "",
    "SMILES": "OC=1C=C2C(=CC1)CCCN2",
    "meta_data": {
        "InChI": "InChI=1S/C9H11NO/c11-8-4-3-7-2-1-5-10-9(7)6-8/h3-4,6,10-11H,1-2,5H2",
        "InChIKey": null,
        "Canonical SMILES": "OC1=CC=C2C(=C1)NCCC2",
        "Molecular Formula": "C<sub>9</sub>H<sub>11</sub>NO",
        "Molecular Mass": "149.19",
        "Melting Point": "70-80 °C"
    }
}