{
    "cas_no": "15205-66-0",
    "key_name": "2-(Methylsulfonyl)ethanol",
    "cn_name": null,
    "alternate_name": "Ethanol, 2-(methylsulfonyl)-;2-(Methylsulfonyl)ethanol;2-(Methylsulfonyl)ethyl alcohol;2-Hydroxyethyl methyl sulfone;2-(Methanesulfonyl)ethanol;2-Methanesulfonylethan-1-ol",
    "duplicated_cas_no": "",
    "SMILES": "C(S(C)(=O)=O)CO",
    "meta_data": {
        "InChI": "InChI=1S/C3H8O3S/c1-7(5,6)3-2-4/h4H,2-3H2,1H3",
        "InChIKey": null,
        "Canonical SMILES": "O=S(=O)(C)CCO",
        "Molecular Formula": "C<sub>3</sub>H<sub>8</sub>O<sub>3</sub>S",
        "Molecular Mass": "124.16",
        "Boiling Point": "145 °C",
        "Melting Point": "26-28 °C"
    }
}