{
    "cas_no": "89-39-4",
    "key_name": "1,4-Dimethoxy-2-nitrobenzene",
    "cn_name": null,
    "alternate_name": "Benzene, 1,4-dimethoxy-2-nitro-;1,4-Dimethoxy-2-nitrobenzene;2,5-Dimethoxynitrobenzene;Nitrohydroquinone dimethyl ether;NSC 1321;NSC 37986",
    "duplicated_cas_no": "",
    "SMILES": "N(=O)(=O)C1=C(OC)C=CC(OC)=C1",
    "meta_data": {
        "InChI": "InChI=1S/C8H9NO4/c1-12-6-3-4-8(13-2)7(5-6)9(10)11/h3-5H,1-2H3",
        "InChIKey": null,
        "Canonical SMILES": "O=N(=O)C1=CC(OC)=CC=C1OC",
        "Molecular Formula": "C<sub>8</sub>H<sub>9</sub>NO<sub>4</sub>",
        "Molecular Mass": "183.16",
        "Melting Point": "72.5 °C"
    }
}