{
    "cas_no": "84501-64-4",
    "key_name": "2-Piperazinecarboxamide",
    "cn_name": null,
    "alternate_name": "2-Piperazinecarboxamide;2-Carbamoylpiperazine",
    "duplicated_cas_no": "156834-00-3",
    "SMILES": "C(N)(=O)C1CNCCN1",
    "meta_data": {
        "InChI": "InChI=1S/C5H11N3O/c6-5(9)4-3-7-1-2-8-4/h4,7-8H,1-3H2,(H2,6,9)",
        "InChIKey": null,
        "Canonical SMILES": "O=C(N)C1NCCNC1",
        "Molecular Formula": "C<sub>5</sub>H<sub>11</sub>N<sub>3</sub>O",
        "Molecular Mass": "129.16",
        "Melting Point": "144-145 °C"
    }
}