{
    "cas_no": "14630-42-3",
    "key_name": "(3,3-Dimethyl-1-butyn-1-yl)trimethylsilane",
    "cn_name": "1-三甲基甲硅烷基-3,3-二甲基-1-丁炔;",
    "alternate_name": "Silane, (3,3-dimethyl-1-butyn-1-yl)trimethyl-;Silane, (3,3-dimethyl-1-butynyl)trimethyl-;(3,3-Dimethyl-1-butyn-1-yl)trimethylsilane;<em>tert</em>-Butyl(trimethylsilyl)acetylene;1-(Trimethylsilyl)-3,3-dimethyl-1-butyne;3,3-Dimethyl-1-(trimethylsilyl)-1-butyne;(3,3-Dimethyl-1-butynyl)trimethylsilane;1-(<em>tert</em>-Butyl)-2-(trimethylsilyl)acetylene",
    "duplicated_cas_no": "",
    "SMILES": "C(#C[Si](C)(C)C)C(C)(C)C",
    "meta_data": {
        "InChI": "InChI=1S/C9H18Si/c1-9(2,3)7-8-10(4,5)6/h1-6H3",
        "InChIKey": null,
        "Canonical SMILES": "C(#C[Si](C)(C)C)C(C)(C)C",
        "Molecular Formula": "C<sub>9</sub>H<sub>18</sub>Si",
        "Molecular Mass": "154.32",
        "Boiling Point": "80-81 °C @ Press: 150 Torr"
    }
}