{
    "cas_no": "105-86-2",
    "key_name": "Geranyl formate",
    "cn_name": "甲酸香叶酯;反-3,7-二甲基-2,6-辛二烯-1-醇甲酸酯;",
    "alternate_name": "2,6-Octadien-1-ol, 3,7-dimethyl-, 1-formate, (2<em>E</em>)-;2,6-Octadien-1-ol, 3,7-dimethyl-, formate, (<em>E</em>)-;Geraniol formate;2,6-Octadien-1-ol, 3,7-dimethyl-, formate, (2<em>E</em>)-;<em>trans</em>-3,7-Dimethyl-2,6-octadien-1-yl formate;<em>trans</em>-2,6-Dimethyl-2,6-octadien-8-yl methanoate;Geranyl formate;(<em>E</em>)-3,7-Dimethyl-2,6-octadienyl formate;NSC 21736;(<em>E</em>)-3,7-Dimethyl-2,6-octadien-1-ol formate",
    "duplicated_cas_no": "",
    "SMILES": "C(\\CCC=C(C)C)(=C/COC=O)/C",
    "meta_data": {
        "InChI": "InChI=1S/C11H18O2/c1-10(2)5-4-6-11(3)7-8-13-9-12/h5,7,9H,4,6,8H2,1-3H3/b11-7+",
        "InChIKey": null,
        "Canonical SMILES": "O=COCC=C(C)CCC=C(C)C",
        "Molecular Formula": "C<sub>11</sub>H<sub>18</sub>O<sub>2</sub>",
        "Molecular Mass": "182.26",
        "Boiling Point": "103-105 °C @ Press: 10 Torr",
        "Density": "0.912 g/cm³"
    }
}