{
    "cas_no": "26326-05-6",
    "key_name": "3-Butene-1,2,3-tricarboxylic acid",
    "cn_name": "1-丁烯-2,3,4-三羧酸;1-丁烯-2,3,4-三羧酸;3-丁烯-1,2,3-三羧酸;",
    "alternate_name": "3-Butene-1,2,3-tricarboxylic acid;1-Butene-2,3,4-tricarboxylic acid;Butene-2,3,4-tricarboxylic acid;1-Methylidenepropane-1,2,3-tricarboxylic acid",
    "duplicated_cas_no": "",
    "SMILES": "C(C(C(O)=O)=C)(CC(O)=O)C(O)=O",
    "meta_data": {
        "InChI": "InChI=1S/C7H8O6/c1-3(6(10)11)4(7(12)13)2-5(8)9/h4H,1-2H2,(H,8,9)(H,10,11)(H,12,13)",
        "InChIKey": null,
        "Canonical SMILES": "O=C(O)C(=C)C(C(=O)O)CC(=O)O",
        "Molecular Formula": "C<sub>7</sub>H<sub>8</sub>O<sub>6</sub>",
        "Molecular Mass": "188.13",
        "Boiling Point": "101 °C @ Press: 3 x 10<sup>-3</sup> Torr"
    }
}