{
    "cas_no": "443-72-1",
    "key_name": "<em>N</em><sup>6</sup>-Methyladenine",
    "cn_name": "6-甲基腺素;6-甲基腺素;N6-甲基腺素；6-(甲氨基)嘌呤;",
    "alternate_name": "9<em>H</em>-Purin-6-amine, <em>N</em>-methyl-;Adenine, <em>N</em>-methyl-;1<em>H</em>-Purin-6-amine, <em>N</em>-methyl-;<em>N</em>-Methyl-9<em>H</em>-purin-6-amine;6-MAP;<em>N</em><sup>6</sup>-Methyladenine;6-Methyladenine;<em>N</em><sup>6</sup>-Monomethyladenine;6-Mono(methylamino)purine;6-(Methylamino)purine;<em>N</em>-Methyl-6-aminopurine;6-<em>N</em>-Methyladenine;<em>N</em><sup>6</sup>-Methylaminopurine;6-(<em>N</em>-Methylamino)purine;NSC 11580",
    "duplicated_cas_no": "",
    "SMILES": "N(C)C1=C2C(N=CN2)=NC=N1",
    "meta_data": {
        "InChI": "InChI=1S/C6H7N5/c1-7-5-4-6(10-2-8-4)11-3-9-5/h2-3H,1H3,(H2,7,8,9,10,11)",
        "InChIKey": null,
        "Canonical SMILES": "N1=CN=C(NC)C=2NC=NC12",
        "Molecular Formula": "C<sub>6</sub>H<sub>7</sub>N<sub>5</sub>",
        "Molecular Mass": "149.15",
        "Melting Point": "312-314 °C (decomp)"
    }
}