{
    "cas_no": "288-88-0",
    "key_name": "1<em>H</em>-1,2,4-Triazole",
    "cn_name": "1,2,4-三氮唑;三氮唑;",
    "alternate_name": "1<em>H</em>-1,2,4-Triazole;<em>s</em>-Triazole;4<em>H</em>-1,2,4-Triazole;NSC 83128;3,4-Diazapyrrole",
    "duplicated_cas_no": "116421-29-5;288-89-1;25167-73-1;27236-77-7;1001118-18-8",
    "SMILES": "C=1NC=NN1",
    "meta_data": {
        "InChI": "InChI=1S/C2H3N3/c1-3-2-5-4-1/h1-2H,(H,3,4,5)",
        "InChIKey": null,
        "Canonical SMILES": "N=1N=CNC1",
        "Molecular Formula": "C<sub>2</sub>H<sub>3</sub>N<sub>3</sub>",
        "Molecular Mass": "69.07",
        "Boiling Point": "270-280 °C",
        "Melting Point": "120 °C",
        "Density": "1.1 g/cm³"
    }
}