{
    "cas_no": "71-91-0",
    "key_name": "Tetraethylammonium bromide",
    "cn_name": "四乙基溴化铵;",
    "alternate_name": "Ethanaminium, <em>N</em>,<em>N</em>,<em>N</em>-triethyl-, bromide (1:1);Tetraethylammonium bromide;Ammonium, tetraethyl-, bromide;Ethanaminium, <em>N</em>,<em>N</em>,<em>N</em>-triethyl-, bromide;TMD 10;Beparon;Etambro;Etylon;Sympatektoman;TEAB;TEA bromide;Tetranium;Tetrylammonium bromide;Teamon;Bromethyl;Etamon;Ethylon",
    "duplicated_cas_no": "65129-07-9;65129-11-5",
    "SMILES": "[N+](CC)(CC)(CC)CC.[Br-]",
    "meta_data": {
        "InChI": "InChI=1S/C8H20N.BrH/c1-5-9(6-2,7-3)8-4;/h5-8H2,1-4H3;1H/q+1;/p-1",
        "InChIKey": null,
        "Canonical SMILES": "[Br-].CC[N+](CC)(CC)CC",
        "Molecular Formula": "C<sub>8</sub>H<sub>20</sub>N.Br",
        "Molecular Mass": "",
        "Melting Point": "286 °C (decomp)"
    }
}