{
    "cas_no": "351-32-6",
    "key_name": "<em>N</em>-(4-Fluoro-3-nitrophenyl)acetamide",
    "cn_name": null,
    "alternate_name": "Acetamide, <em>N</em>-(4-fluoro-3-nitrophenyl)-;Acetanilide, 4′-fluoro-3′-nitro-;<em>N</em>-(4-Fluoro-3-nitrophenyl)acetamide;4′-Fluoro-3′-nitroacetanilide;NSC 403008",
    "duplicated_cas_no": "",
    "SMILES": "N(C(C)=O)C1=CC(N(=O)=O)=C(F)C=C1",
    "meta_data": {
        "InChI": "InChI=1S/C8H7FN2O3/c1-5(12)10-6-2-3-7(9)8(4-6)11(13)14/h2-4H,1H3,(H,10,12)",
        "InChIKey": null,
        "Canonical SMILES": "O=C(NC1=CC=C(F)C(=C1)N(=O)=O)C",
        "Molecular Formula": "C<sub>8</sub>H<sub>7</sub>FN<sub>2</sub>O<sub>3</sub>",
        "Molecular Mass": "198.15",
        "Melting Point": "138.5 °C"
    }
}