{
    "cas_no": "685-83-6",
    "key_name": "Chlorobis(diethylamino)phosphine",
    "cn_name": "双(二乙基氨基)氯膦;",
    "alternate_name": "Phosphorodiamidous chloride, <em>N</em>,<em>N</em>,<em>N</em>′,<em>N</em>′-tetraethyl-;Phosphorodiamidous chloride, tetraethyl-;<em>N</em>,<em>N</em>,<em>N</em>′,<em>N</em>′-Tetraethylphosphorodiamidous chloride;Tetraethylphosphorodiamidous chloride;Bis(diethylamino)chlorophosphine;Tetraethyldiamidophosphorous chloride;Chlorobis(diethylamino)phosphine;Tetraethyldiaminochlorophosphite;Bis(<em>N</em>,<em>N</em>-diethylamino)chlorophosphine;Bis(diethylamino)chlorophosphane",
    "duplicated_cas_no": "",
    "SMILES": "P(N(CC)CC)(N(CC)CC)Cl",
    "meta_data": {
        "InChI": "InChI=1S/C8H20ClN2P/c1-5-10(6-2)12(9)11(7-3)8-4/h5-8H2,1-4H3",
        "InChIKey": null,
        "Canonical SMILES": "ClP(N(CC)CC)N(CC)CC",
        "Molecular Formula": "C<sub>8</sub>H<sub>20</sub>ClN<sub>2</sub>P",
        "Molecular Mass": "210.68",
        "Boiling Point": "87-90 °C @ Press: 2 Torr"
    }
}