{
    "cas_no": "302964-24-5",
    "key_name": "2-Amino-<em>N</em>-(2-chloro-6-methylphenyl)-5-thiazolecarboxamide",
    "cn_name": "2-氨基-N-(2-氯-6-甲基苯基)噻唑-5-甲酰胺;",
    "alternate_name": "5-Thiazolecarboxamide, 2-amino-<em>N</em>-(2-chloro-6-methylphenyl)-;2-Amino-<em>N</em>-(2-chloro-6-methylphenyl)-5-thiazolecarboxamide;2-Amino-<em>N</em>-(2-chloro-6-methylphenyl)thiazole-5-carboxamide;2-Amino-<em>N</em>-(2-chloro-6-methylphenyl)-1,3-thiazole-5-carboxamide",
    "duplicated_cas_no": "",
    "SMILES": "N(C(=O)C=1SC(N)=NC1)C2=C(C)C=CC=C2Cl",
    "meta_data": {
        "InChI": "InChI=1S/C11H10ClN3OS/c1-6-3-2-4-7(12)9(6)15-10(16)8-5-14-11(13)17-8/h2-5H,1H3,(H2,13,14)(H,15,16)",
        "InChIKey": null,
        "Canonical SMILES": "O=C(NC=1C(Cl)=CC=CC1C)C=2SC(=NC2)N",
        "Molecular Formula": "C<sub>11</sub>H<sub>10</sub>ClN<sub>3</sub>OS",
        "Molecular Mass": "267.73",
        "Melting Point": "258-262 °C"
    }
}