{
    "cas_no": "5416-93-3",
    "key_name": "4-Methoxyphenyl isocyanate",
    "cn_name": "对甲氧基苯异氰酸酯;",
    "alternate_name": "Benzene, 1-isocyanato-4-methoxy-;Isocyanic acid, <em>p</em>-methoxyphenyl ester;1-Isocyanato-4-methoxybenzene;Anisole, <em>p</em>-isocyanato-;<em>p</em>-Methoxyphenyl isocyanate;<em>p</em>-Anisyl isocyanate;4-Methoxyphenyl isocyanate;4-Anisyl isocyanate;4-Isocyanatoanisole;NSC 7321",
    "duplicated_cas_no": "",
    "SMILES": "N(=C=O)C1=CC=C(OC)C=C1",
    "meta_data": {
        "InChI": "InChI=1S/C8H7NO2/c1-11-8-4-2-7(3-5-8)9-6-10/h2-5H,1H3",
        "InChIKey": null,
        "Canonical SMILES": "O=C=NC1=CC=C(OC)C=C1",
        "Molecular Formula": "C<sub>8</sub>H<sub>7</sub>NO<sub>2</sub>",
        "Molecular Mass": "149.15",
        "Boiling Point": "47.6-47.8 °C @ Press: 9.5 Torr",
        "Melting Point": "101 °C"
    }
}