{
    "cas_no": "13194-48-4",
    "key_name": "Ethoprophos",
    "cn_name": "灭克磷;灭线磷;O-乙基-S,S-二丙基二硫代磷酸酯;",
    "alternate_name": "Phosphorodithioic acid, <em>O</em>-ethyl <em>S</em>,<em>S</em>-dipropyl ester;Ethyl propyl phosphorodithioate ((EtO)(PrS)2PO);<em>O</em>-Ethyl <em>S</em>,<em>S</em>-dipropyl phosphorodithioate;Mocap;VC 9-104;<em>S</em>,<em>S</em>-Dipropyl <em>O</em>-ethyl phosphorodithioate;Prophos (ester);Mocap 10G;Ethoprop;Ethoprophos;Rovokil;<em>O</em>-Ethyl <em>S</em>,<em>S</em>-dipropyl dithiophosphate;Profos;Prophos;ENT 27318;Mocap 6EC;Mobile;Mocap 15G;1-(Ethoxy-propylsulfanylphosphoryl)sulfanylpropane;Mocap EC",
    "duplicated_cas_no": "",
    "SMILES": "P(SCCC)(SCCC)(OCC)=O",
    "meta_data": {
        "InChI": "InChI=1S/C8H19O2PS2/c1-4-7-12-11(9,10-6-3)13-8-5-2/h4-8H2,1-3H3",
        "InChIKey": null,
        "Canonical SMILES": "O=P(OCC)(SCCC)SCCC",
        "Molecular Formula": "C<sub>8</sub>H<sub>19</sub>O<sub>2</sub>PS<sub>2</sub>",
        "Molecular Mass": "242.34",
        "Boiling Point": "86-91 °C @ Press: 0.2 Torr",
        "Melting Point": "-13 °C",
        "Density": "1.094 g/cm³ @ Temp: 20 °C"
    }
}