{
    "cas_no": "2122-70-5",
    "key_name": "Ethyl 1-naphthylacetate",
    "cn_name": "alpha-萘乙酸乙酯;1-萘乙酸乙酯;",
    "alternate_name": "1-Naphthaleneacetic acid, ethyl ester;Naphthaleneacetic acid, ethyl ester;Ethyl 1-naphthylacetate;Ethyl 1-naphthaleneacetate;NAA ethyl ester;NSC 74497;(1-Naphthyl)acetic acid ethyl ester;Ethyl 2-(naphthalen-1-yl)acetate",
    "duplicated_cas_no": "",
    "SMILES": "C(C(OCC)=O)C=1C2=C(C=CC1)C=CC=C2",
    "meta_data": {
        "InChI": "InChI=1S/C14H14O2/c1-2-16-14(15)10-12-8-5-7-11-6-3-4-9-13(11)12/h3-9H,2,10H2,1H3",
        "InChIKey": null,
        "Canonical SMILES": "O=C(OCC)CC1=CC=CC=2C=CC=CC21",
        "Molecular Formula": "C<sub>14</sub>H<sub>14</sub>O<sub>2</sub>",
        "Molecular Mass": "214.26",
        "Boiling Point": "177-179 °C @ Press: 13 Torr",
        "Melting Point": "88.5 °C"
    }
}