{
    "cas_no": "21524-39-0",
    "key_name": "2,3-Difluorobenzonitrile",
    "cn_name": "2,3-二氟苯腈;2,3-二氟苯甲腈;",
    "alternate_name": "Benzonitrile, 2,3-difluoro-;2,3-Difluorobenzonitrile;1,2-Difluoro-3-cyanobenzene",
    "duplicated_cas_no": "",
    "SMILES": "C(#N)C1=C(F)C(F)=CC=C1",
    "meta_data": {
        "InChI": "InChI=1S/C7H3F2N/c8-6-3-1-2-5(4-10)7(6)9/h1-3H",
        "InChIKey": null,
        "Canonical SMILES": "N#CC=1C=CC=C(F)C1F",
        "Molecular Formula": "C<sub>7</sub>H<sub>3</sub>F<sub>2</sub>N",
        "Molecular Mass": "139.10",
        "Boiling Point": "175-177 °C"
    }
}