{
    "cas_no": "1655-07-8",
    "key_name": "Ethyl 2-oxocyclohexanecarboxylate",
    "cn_name": "2-环己酮甲酸乙酯;",
    "alternate_name": "Cyclohexanecarboxylic acid, 2-oxo-, ethyl ester;2-Carbethoxycyclohexanone;2-(Ethoxycarbonyl)cyclohexanone;Ethyl cyclohexanone-2-carboxylate;Ethyl 2-oxocyclohexanecarboxylate;2-Oxocyclohexanecarboxylic acid ethyl ester;Ethyl 2-oxo-1-cyclohexanecarboxylate;Ethyl 1-oxo-2-cyclohexanecarboxylate;2-Carboethoxycyclohexanone;Ethyl 2-cyclohexanone-1-carboxylate;NSC 18744;Ethyl 2-oxocyclohexan-1-carboxylate",
    "duplicated_cas_no": "98263-13-9",
    "SMILES": "C(OCC)(=O)C1C(=O)CCCC1",
    "meta_data": {
        "InChI": "InChI=1S/C9H14O3/c1-2-12-9(11)7-5-3-4-6-8(7)10/h7H,2-6H2,1H3",
        "InChIKey": null,
        "Canonical SMILES": "O=C(OCC)C1C(=O)CCCC1",
        "Molecular Formula": "C<sub>9</sub>H<sub>14</sub>O<sub>3</sub>",
        "Molecular Mass": "170.21",
        "Boiling Point": "106-107 °C",
        "Melting Point": "101 °C",
        "Density": "1.0740 g/cm³ @ Temp: 17.5 °C"
    }
}