{
    "cas_no": "152-53-4",
    "key_name": "Chlorcycloguanil",
    "cn_name": null,
    "alternate_name": "1,3,5-Triazine-2,4-diamine, 1-(4-chlorophenyl)-1,6-dihydro-6,6-dimethyl-, hydrochloride (1:1);<em>s</em>-Triazine, 4,6-diamino-1-(<em>p</em>-chlorophenyl)-1,2-dihydro-2,2-dimethyl-, monohydrochloride;1,3,5-Triazine-2,4-diamine, 1-(4-chlorophenyl)-1,6-dihydro-6,6-dimethyl-, monohydrochloride;<em>s</em>-Triazine, 4,6-diamino-1-(<em>p</em>-chlorophenyl)-1,2-dihydro-2,2-dimethyl-, hydrochloride;NSC 3074;Cycloguanil hydrochloride;Chloroguanide triazine hydrochloride;Chlorcycloguanil;BN 2410;1-(4-Chlorophenyl)-1,6-dihydro-6,6-dimethyl-1,3,5-triazine-2,4-diamine monohydrochloride;1-(4-Chlorophenyl)-6,6-dimethyl-1,6-dihydro-1,3,5-triazine-2,4-diamine hydrochloride",
    "duplicated_cas_no": "",
    "SMILES": "CC1(C)N(C(N)=NC(N)=N1)C2=CC=C(Cl)C=C2.Cl",
    "meta_data": {
        "InChI": "InChI=1S/C11H14ClN5.ClH/c1-11(2)16-9(13)15-10(14)17(11)8-5-3-7(12)4-6-8;/h3-6H,1-2H3,(H4,13,14,15,16);1H",
        "InChIKey": null,
        "Canonical SMILES": "Cl.ClC1=CC=C(C=C1)N2C(=NC(=NC2(C)C)N)N",
        "Molecular Formula": "C<sub>11</sub>H<sub>14</sub>ClN<sub>5</sub>.ClH",
        "Molecular Mass": "",
        "Melting Point": "204-205 °C"
    }
}