{
    "cas_no": "2920-86-7",
    "key_name": "Prednisolone 21-hemisuccinate",
    "cn_name": "泼尼松龙半琥珀酸酯;21-半琥珀酸强的松龙酯;",
    "alternate_name": "Pregna-1,4-diene-3,20-dione, 21-(3-carboxy-1-oxopropoxy)-11,17-dihydroxy-, (11β)-;Pregna-1,4-diene-3,20-dione, 11β,17,21-trihydroxy-, 21-(hydrogen succinate);(11β)-21-(3-Carboxy-1-oxopropoxy)-11,17-dihydroxypregna-1,4-diene-3,20-dione;Δ<sup>1</sup>-Hydrocortisone 21-hemisuccinate;Prednisolone hemisuccinate;Prednisolone 21-hemisuccinate;Prednisolone succinate;Prednisolone bisuccinate;Prednisolone 21-succinate;Prednisolut;Prednisolone 21-<em>O</em>-β-carbonylpropionic acid",
    "duplicated_cas_no": "1783-83-1",
    "SMILES": "C[C@@]12[C@]([C@]3([C@]([C@@H](O)C1)([C@]4(C)C(CC3)=CC(=O)C=C4)[H])[H])(CC[C@@]2(C(COC(CCC(O)=O)=O)=O)O)[H]",
    "meta_data": {
        "InChI": "InChI=1S/C25H32O8/c1-23-9-7-15(26)11-14(23)3-4-16-17-8-10-25(32,24(17,2)12-18(27)22(16)23)19(28)13-33-21(31)6-5-20(29)30/h7,9,11,16-18,22,27,32H,3-6,8,10,12-13H2,1-2H3,(H,29,30)/t16-,17-,18-,22+,23-,24-,25-/m0/s1",
        "InChIKey": null,
        "Canonical SMILES": "O=C1C=CC2(C(=C1)CCC3C4CCC(O)(C(=O)COC(=O)CCC(=O)O)C4(C)CC(O)C32)C",
        "Molecular Formula": "C<sub>25</sub>H<sub>32</sub>O<sub>8</sub>",
        "Molecular Mass": "460.52",
        "Melting Point": "206.5-209.5 °C"
    }
}