{
    "cas_no": "21850-44-2",
    "key_name": "Tetrabromobisphenol A bis(2,3-dibromopropyl ether)",
    "cn_name": "四溴双酚A双(二溴丙基)醚;八溴双酚S醚;八溴醚;",
    "alternate_name": "Benzene, 1,1′-(1-methylethylidene)bis[3,5-dibromo-4-(2,3-dibromopropoxy)-;Propane, 2,2-bis[3,5-dibromo-4-(2,3-dibromopropoxy)phenyl]-;1,1′-(1-Methylethylidene)bis[3,5-dibromo-4-(2,3-dibromopropoxy)benzene];2,2-Bis[4-(2,3-dibromopropyloxy)-3,5-dibromophenyl]propane;2,2-Bis[3,5-dibromo-4-(2,3-dibromopropoxy)phenyl]propane;2,2-Bis[4-(2,3-dibromopropoxy)-3,5-dibromophenyl]propane;1,1′-Isopropylidenebis[3,5-dibromo-4-(2,3-dibromopropoxy)benzene];4,4′-Isopropylidenebis[2,6-dibromo-1-(2,3-dibromopropoxy)benzene];Bromkal 66-8;Bis(2,3-dibromopropoxy)tetrabromobisphenol A;Fire Guard 3100;PE 68;Tetrabromobisphenol A bis(2,3-dibromopropyl ether);D 5532;Tetrabromobisphenol A 2,3-dibromopropyl ether;GX 5532;FG 3100;3,3′,5,5′-Tetrabromobisphenol A bis(2,3-dibromopropyl) ether;2,2-Bis[[3,5-dibromo-4-(2,3-dibromopropyloxy)]phenyl]propane;Flame Cut 121R;PE 68 (fireproofing agent);Flame Cut 121K;Pyroguard SR 720;SR 720;FR 720;Saytex HP 800AG;TBBPA-DBPE;Saytex HP 800A;HP 800A;FCP 680;Fire Cut P 680G;OBE;Pyroguard SR 720N;SR 720N;TexFRon 9001;XZ 6800;Fire Cut P 680;1,3-Dibromo-5-[2-[3,5-dibromo-4-(2,3-dibromopropoxy)phenyl]propan-2-yl]-2-(2,3-dibromopropoxy)benzene;E-R 08N;FCP 680G;SR 800 (flame retardant);SR 800",
    "duplicated_cas_no": "37769-32-7;146908-56-7;178303-24-7;1029536-02-4;1586768-18-4",
    "SMILES": "C(C)(C)(C1=CC(Br)=C(OCC(CBr)Br)C(Br)=C1)C2=CC(Br)=C(OCC(CBr)Br)C(Br)=C2",
    "meta_data": {
        "InChI": "InChI=1S/C21H20Br8O2/c1-21(2,11-3-15(26)19(16(27)4-11)30-9-13(24)7-22)12-5-17(28)20(18(29)6-12)31-10-14(25)8-23/h3-6,13-14H,7-10H2,1-2H3",
        "InChIKey": null,
        "Canonical SMILES": "BrC=1C=C(C=C(Br)C1OCC(Br)CBr)C(C2=CC(Br)=C(OCC(Br)CBr)C(Br)=C2)(C)C",
        "Molecular Formula": "C<sub>21</sub>H<sub>20</sub>Br<sub>8</sub>O<sub>2</sub>",
        "Molecular Mass": "943.61",
        "Melting Point": "85-92 °C"
    }
}