{
    "cas_no": "3453-33-6",
    "key_name": "6-Methoxy-2-naphthaldehyde",
    "cn_name": "6-甲氧基-2-萘甲醛;",
    "alternate_name": "2-Naphthalenecarboxaldehyde, 6-methoxy-;2-Naphthaldehyde, 6-methoxy-;6-Methoxy-2-naphthalenecarboxaldehyde;6-Methoxy-2-naphthaldehyde;MONAL 62;2-Methoxy-6-naphthalenecarboxaldehyde;2-Methoxy-6-naphthaldehyde;2-Formyl-6-methoxynaphthalene",
    "duplicated_cas_no": "",
    "SMILES": "C(=O)C1=CC2=C(C=C(OC)C=C2)C=C1",
    "meta_data": {
        "InChI": "InChI=1S/C12H10O2/c1-14-12-5-4-10-6-9(8-13)2-3-11(10)7-12/h2-8H,1H3",
        "InChIKey": null,
        "Canonical SMILES": "O=CC1=CC=C2C=C(OC)C=CC2=C1",
        "Molecular Formula": "C<sub>12</sub>H<sub>10</sub>O<sub>2</sub>",
        "Molecular Mass": "186.21",
        "Boiling Point": "140-145 °C @ Press: 5 Torr",
        "Melting Point": "80-81 °C"
    }
}