{
    "cas_no": "1193-82-4",
    "key_name": "Methyl phenyl sulfoxide",
    "cn_name": "苯亚砜甲酯;",
    "alternate_name": "Benzene, (methylsulfinyl)-;Sulfoxide, methyl phenyl;(Methylsulfinyl)benzene;Methyl phenyl sulfoxide;Phenyl methyl sulfoxide;Thioanisole <em>S</em>-oxide;Thioanisol sulfoxide;(±)-Methyl phenyl sulfoxide;(±)-(Methylsulfinyl)benzene;(<em>RS</em>)-Methyl phenyl sulfoxide;(±)-Phenyl methyl sulfoxide;NSC 203014",
    "duplicated_cas_no": "20696-08-6",
    "SMILES": "S(C)(=O)C1=CC=CC=C1",
    "meta_data": {
        "InChI": "InChI=1S/C7H8OS/c1-9(8)7-5-3-2-4-6-7/h2-6H,1H3",
        "InChIKey": null,
        "Canonical SMILES": "O=S(C=1C=CC=CC1)C",
        "Molecular Formula": "C<sub>7</sub>H<sub>8</sub>OS",
        "Molecular Mass": "140.20",
        "Boiling Point": "263.5 °C",
        "Melting Point": "32 °C"
    }
}