{
    "cas_no": "94-17-7",
    "key_name": "<em>p</em>-Chlorobenzoyl peroxide",
    "cn_name": null,
    "alternate_name": "Peroxide, bis(4-chlorobenzoyl);Peroxide, bis(<em>p</em>-chlorobenzoyl);Bis(4-chlorobenzoyl) peroxide;Bis(<em>p</em>-chlorobenzoyl) peroxide;<em>p</em>-Chlorobenzoyl peroxide;<em>p</em>,<em>p</em>′-Dichlorobenzoyl peroxide;4-Chlorobenzoyl peroxide;<em>p</em>,<em>p</em>′-Dichlorodibenzoyl peroxide;Cadox PS;Di(<em>p</em>-chlorobenzoyl) peroxide;4,4′-Dichlorobenzoyl peroxide",
    "duplicated_cas_no": "1071717-87-7",
    "SMILES": "C(OOC(=O)C1=CC=C(Cl)C=C1)(=O)C2=CC=C(Cl)C=C2",
    "meta_data": {
        "InChI": "InChI=1S/C14H8Cl2O4/c15-11-5-1-9(2-6-11)13(17)19-20-14(18)10-3-7-12(16)8-4-10/h1-8H",
        "InChIKey": null,
        "Canonical SMILES": "O=C(OOC(=O)C1=CC=C(Cl)C=C1)C2=CC=C(Cl)C=C2",
        "Molecular Formula": "C<sub>14</sub>H<sub>8</sub>Cl<sub>2</sub>O<sub>4</sub>",
        "Molecular Mass": "311.12",
        "Melting Point": "137-138 °C"
    }
}