{
    "cas_no": "2212-32-0",
    "key_name": "2-[[2-(Dimethylamino)ethyl]methylamino]ethanol",
    "cn_name": "N-甲基-N-(N,N-二甲胺基乙基)乙醇胺;",
    "alternate_name": "Ethanol, 2-[[2-(dimethylamino)ethyl]methylamino]-;2-[[2-(Dimethylamino)ethyl]methylamino]ethanol;Dabco T;<em>N</em>,<em>N</em>,<em>N</em>′-Trimethyl-<em>N</em>′-(hydroxyethyl)ethylenediamine;<em>N</em>,<em>N</em>,<em>N</em>′-Trimethylaminoethyl ethanolamine;Toyocat RX 5;RX 5;<em>N</em>-(Dimethylaminoethyl)-<em>N</em>-methylethanolamine;Jeffcat Z 110;<em>N</em>,<em>N</em>,<em>N</em>′-Trimethyl-<em>N</em>′-(2-hydroxyethyl)ethylenediamine;Kaolizer 28;<em>N</em>-(2-Dimethylaminoethyl)-<em>N</em>-methylethanolamine;2-(2-<em>N</em>,<em>N</em>-Dimethylaminoethyl-<em>N</em>-methylamino)ethanol;Z 110;<em>N</em>,<em>N</em>,<em>N</em>′-Trimethyl-<em>N</em>′-(2-hydroxyethyl)-1,2-ethanediamine;Lupragen N 400;2-[[2-(Dimethylamino)ethyl](methyl)amino]ethan-1-ol;Jeffcat ZR 110;Maycat RA 5",
    "duplicated_cas_no": "163759-39-5;205132-49-6",
    "SMILES": "N(CCN(C)C)(CCO)C",
    "meta_data": {
        "InChI": "InChI=1S/C7H18N2O/c1-8(2)4-5-9(3)6-7-10/h10H,4-7H2,1-3H3",
        "InChIKey": null,
        "Canonical SMILES": "OCCN(C)CCN(C)C",
        "Molecular Formula": "C<sub>7</sub>H<sub>18</sub>N<sub>2</sub>O",
        "Molecular Mass": "146.23",
        "Boiling Point": "84 °C @ Press: 10 Torr",
        "Density": "0.9044 g/cm³ @ Temp: 20 °C"
    }
}