{
    "cas_no": "621-44-3",
    "key_name": "Nitrotyrosine",
    "cn_name": "3-硝基-L-酪氨酸;",
    "alternate_name": "<span class=\"text-smallcaps\">L</span>-Tyrosine, 3-nitro-;Tyrosine, 3-nitro-, <span class=\"text-smallcaps\">L</span>-;3-Nitro-<span class=\"text-smallcaps\">L</span>-tyrosine;NSC 37413;3: PN: WO2005055810 PAGE: 59 claimed protein;Nitrotyrosine;(2S)-2-Amino-3-(4-hydroxy-3-nitrophenyl)propanoic acid;(2S)-2-Azaniumyl-3-(4-hydroxy-3-nitrophenyl)propanoate",
    "duplicated_cas_no": "179264-91-6",
    "SMILES": "C([C@@H](C(O)=O)N)C1=CC(N(=O)=O)=C(O)C=C1",
    "meta_data": {
        "InChI": "InChI=1S/C9H10N2O5/c10-6(9(13)14)3-5-1-2-8(12)7(4-5)11(15)16/h1-2,4,6,12H,3,10H2,(H,13,14)/t6-/m0/s1",
        "InChIKey": null,
        "Canonical SMILES": "O=C(O)C(N)CC1=CC=C(O)C(=C1)N(=O)=O",
        "Molecular Formula": "C<sub>9</sub>H<sub>10</sub>N<sub>2</sub>O<sub>5</sub>",
        "Molecular Mass": "226.19",
        "Melting Point": "215-217 °C (decomp)"
    }
}