{
    "cas_no": "3597-91-9",
    "key_name": "[1,1′-Biphenyl]-4-methanol",
    "cn_name": "4-联苯甲醇;",
    "alternate_name": "[1,1′-Biphenyl]-4-methanol;4-Biphenylmethanol;<em>p</em>-Phenylbenzyl alcohol;4-(Hydroxymethyl)biphenyl;4HMB;4-Biphenylylmethanol;4-Phenylbenzyl alcohol;4-Hydroxymethyl-1,1′-biphenyl;NSC 233860;NSC 84169;(4-Phenylphenyl)methanol;(1,1′-Biphenyl-4-yl)methanol;([1,1′-Biphenyl]-4-ylmethyl)alcohol",
    "duplicated_cas_no": "",
    "SMILES": "C(O)C1=CC=C(C=C1)C2=CC=CC=C2",
    "meta_data": {
        "InChI": "InChI=1S/C13H12O/c14-10-11-6-8-13(9-7-11)12-4-2-1-3-5-12/h1-9,14H,10H2",
        "InChIKey": null,
        "Canonical SMILES": "OCC=1C=CC(=CC1)C=2C=CC=CC2",
        "Molecular Formula": "C<sub>13</sub>H<sub>12</sub>O",
        "Molecular Mass": "184.23",
        "Boiling Point": "183-184 °C @ Press: 11 Torr",
        "Melting Point": "101-102 °C"
    }
}