{
    "cas_no": "872-71-9",
    "key_name": "Sodium pyrrolidinedithiocarbamate",
    "cn_name": "1-吡咯烷二硫代甲酸钠盐;吡咯烷二硫代氨基甲酸钠;",
    "alternate_name": "1-Pyrrolidinecarbodithioic acid, sodium salt (1:1);1-Pyrrolidinecarbodithioic acid, sodium salt;Sodium pyrrolidine-<em>N</em>-carbodithioate;Sodium tetramethylenedithiocarbamate;Sodium 1-pyrrolidinedithiocarboxylate;Sodium 1-pyrrolidinecarbodithioate;Sodium <em>N</em>-pyrrolidinedithiocarboxylate;Sodium pyrrolidinedithioformate;Sodium pyrrolidinedithiocarbamate;Sodium pyrrolidinecarbodithioate;Sodium tetrahydropyrrolyldithiocarbamate",
    "duplicated_cas_no": "",
    "SMILES": "C(=S)(S)N1CCCC1.[Na]",
    "meta_data": {
        "InChI": "InChI=1S/C5H9NS2.Na/c7-5(8)6-3-1-2-4-6;/h1-4H2,(H,7,8);",
        "InChIKey": null,
        "Canonical SMILES": "[Na].S=C(S)N1CCCC1",
        "Molecular Formula": "C<sub>5</sub>H<sub>9</sub>NS<sub>2</sub>.Na",
        "Molecular Mass": "",
        "Melting Point": "&gt;300 °C"
    }
}