{
    "cas_no": "3195-24-2",
    "key_name": "Diethyl diallylmalonate",
    "cn_name": "二烯丙基丙二酸二乙酯;二烯丙基丙二酸二乙酯;",
    "alternate_name": "Propanedioic acid, 2,2-di-2-propen-1-yl-, 1,3-diethyl ester;Malonic acid, diallyl-, diethyl ester;Propanedioic acid, di-2-propenyl-, diethyl ester;Diethyl diallylmalonate;Diethyl 2,2-diallylmalonate;Diethyl diallylpropanedioate;Di-2-propenylpropanedioic acid diethyl ester;NSC 30683;NSC 46842;2,2-(Diallyl)malonic acid diethyl ester;Diethyl-2-allyl-2-butenylmalonate",
    "duplicated_cas_no": "",
    "SMILES": "C(C(OCC)=O)(C(OCC)=O)(CC=C)CC=C",
    "meta_data": {
        "InChI": "InChI=1S/C13H20O4/c1-5-9-13(10-6-2,11(14)16-7-3)12(15)17-8-4/h5-6H,1-2,7-10H2,3-4H3",
        "InChIKey": null,
        "Canonical SMILES": "O=C(OCC)C(C(=O)OCC)(CC=C)CC=C",
        "Molecular Formula": "C<sub>13</sub>H<sub>20</sub>O<sub>4</sub>",
        "Molecular Mass": "240.30",
        "Boiling Point": "243.5 °C"
    }
}