{
    "cas_no": "612-58-8",
    "key_name": "3-Methylquinoline",
    "cn_name": "3-甲基喹啉;",
    "alternate_name": "Quinoline, 3-methyl-;3-Methylquinoline;NSC 109149",
    "duplicated_cas_no": "",
    "SMILES": "CC1=CC2=C(N=C1)C=CC=C2",
    "meta_data": {
        "InChI": "InChI=1S/C10H9N/c1-8-6-9-4-2-3-5-10(9)11-7-8/h2-7H,1H3",
        "InChIKey": null,
        "Canonical SMILES": "N=1C=C(C=C2C=CC=CC12)C",
        "Molecular Formula": "C<sub>10</sub>H<sub>9</sub>N",
        "Molecular Mass": "143.19",
        "Boiling Point": "259.8 °C",
        "Melting Point": "16.5 °C",
        "Density": "1.0688 g/cm³ @ Temp: 20 °C"
    }
}