{
    "cas_no": "33529-02-1",
    "key_name": "1-Decylimidazole",
    "cn_name": null,
    "alternate_name": "1<em>H</em>-Imidazole, 1-decyl-;Imidazole, 1-decyl-;1-Decyl-1<em>H</em>-imidazole;<em>N</em>-Decylimidazole;1-Decylimidazole",
    "duplicated_cas_no": "",
    "SMILES": "C(CCCCCCCCC)N1C=CN=C1",
    "meta_data": {
        "InChI": "InChI=1S/C13H24N2/c1-2-3-4-5-6-7-8-9-11-15-12-10-14-13-15/h10,12-13H,2-9,11H2,1H3",
        "InChIKey": null,
        "Canonical SMILES": "N=1C=CN(C1)CCCCCCCCCC",
        "Molecular Formula": "C<sub>13</sub>H<sub>24</sub>N<sub>2</sub>",
        "Molecular Mass": "208.34",
        "Boiling Point": "172-173 °C @ Press: 25 Torr"
    }
}