{
    "cas_no": "75-79-6",
    "key_name": "Trichloromethylsilane",
    "cn_name": "甲基三氯硅烷;",
    "alternate_name": "Silane, trichloromethyl-;Trichloromethylsilane;Methyltrichlorosilane;Methylsilyl trichloride;Trichloromethylsilicon;Methylsilicon trichloride;TSL 8003;LS 40;LS 40 (silane);KA 13;NSC 77069;A 154;A 154 (silane)",
    "duplicated_cas_no": "175446-71-6",
    "SMILES": "[Si](C)(Cl)(Cl)Cl",
    "meta_data": {
        "InChI": "InChI=1S/CH3Cl3Si/c1-5(2,3)4/h1H3",
        "InChIKey": null,
        "Canonical SMILES": "Cl[Si](Cl)(Cl)C",
        "Molecular Formula": "CH<sub>3</sub>Cl<sub>3</sub>Si",
        "Molecular Mass": "149.48",
        "Boiling Point": "66.4 °C",
        "Melting Point": "-90 °C",
        "Density": "1.27 g/cm³ @ Temp: 25 °C"
    }
}