{
    "cas_no": "101-64-4",
    "key_name": "<em>N</em><sup>1</sup>-(4-Methoxyphenyl)-1,4-benzenediamine",
    "cn_name": "4-氨基-4\"-甲氧基二苯胺;",
    "alternate_name": "1,4-Benzenediamine, <em>N</em><sup>1</sup>-(4-methoxyphenyl)-;<em>p</em>-Phenylenediamine, <em>N</em>-(<em>p</em>-methoxyphenyl)-;1,4-Benzenediamine, <em>N</em>-(4-methoxyphenyl)-;<em>N</em><sup>1</sup>-(4-Methoxyphenyl)-1,4-benzenediamine;4-Amino-4′-methoxydiphenylamine;Fast Blue VB Base;4-Methoxy-4′-aminodiphenylamine;<em>N</em>-(<em>p</em>-Methoxyphenyl)-<em>p</em>-phenylenediamine;Naphthoelan Fast Blue BT;Variamine Blue B;Variamine Blue B Base;Diazol Blue O;Variamine Blue base;<em>p</em>-Amino-<em>p</em>′-methoxydiphenylamine;<em>N</em>-(4-Methoxyphenyl)-1,4-phenylenediamine;4′-Amino-4-methoxydiphenylamine;Variamine Blue free base;<em>N</em>-(4-Aminophenyl)-<em>N</em>-(4-methoxyphenyl)amine;<em>N</em>-(4-Aminophenyl)-<em>p</em>-anisidine;4-(4-Methoxyphenylamino)aniline;<em>N</em>-(4-Methoxyphenyl)benzene-1,4-diamine;1-<em>N</em>-(4-Methoxyphenyl)benzene-1,4-diamine",
    "duplicated_cas_no": "",
    "SMILES": "N(C1=CC=C(OC)C=C1)C2=CC=C(N)C=C2",
    "meta_data": {
        "InChI": "InChI=1S/C13H14N2O/c1-16-13-8-6-12(7-9-13)15-11-4-2-10(14)3-5-11/h2-9,15H,14H2,1H3",
        "InChIKey": null,
        "Canonical SMILES": "O(C1=CC=C(C=C1)NC2=CC=C(N)C=C2)C",
        "Molecular Formula": "C<sub>13</sub>H<sub>14</sub>N<sub>2</sub>O",
        "Molecular Mass": "214.26",
        "Boiling Point": "238 °C",
        "Melting Point": "102 °C"
    }
}