{
    "cas_no": "205-82-3",
    "key_name": "Benzo[<em>j</em>]fluoranthene",
    "cn_name": "苯并[j]荧蒽;",
    "alternate_name": "Benzo[<em>j</em>]fluoranthene;10,11-Benzofluoranthene;Dibenzo[<em>a</em>,<em>jk</em>]fluorene;Benzo-12,13-fluoranthene;7,8-Benzfluoranthene",
    "duplicated_cas_no": "",
    "SMILES": "C1=2C(C=3C=4C1=CC=CC4C=CC3)=CC=C5C2C=CC=C5",
    "meta_data": {
        "InChI": "InChI=1S/C20H12/c1-2-8-15-13(5-1)11-12-17-16-9-3-6-14-7-4-10-18(19(14)16)20(15)17/h1-12H",
        "InChIKey": null,
        "Canonical SMILES": "C=1C=CC=2C(C1)=CC=C3C4=CC=CC5=CC=CC(=C54)C23",
        "Molecular Formula": "C<sub>20</sub>H<sub>12</sub>",
        "Molecular Mass": "252.31",
        "Boiling Point": "480 °C",
        "Melting Point": "166 °C"
    }
}