{
    "cas_no": "59562-82-2",
    "key_name": "3,3-Dimethyl-1,2-butanediol",
    "cn_name": "3,3-二甲基-1,2-丁二醇;",
    "alternate_name": "1,2-Butanediol, 3,3-dimethyl-;3,3-Dimethyl-1,2-butanediol;(±)-3,3-Dimethylbutane-1,2-diol",
    "duplicated_cas_no": "91049-44-4",
    "SMILES": "C(C(C)(C)C)(CO)O",
    "meta_data": {
        "InChI": "InChI=1S/C6H14O2/c1-6(2,3)5(8)4-7/h5,7-8H,4H2,1-3H3",
        "InChIKey": null,
        "Canonical SMILES": "OCC(O)C(C)(C)C",
        "Molecular Formula": "C<sub>6</sub>H<sub>14</sub>O<sub>2</sub>",
        "Molecular Mass": "118.17",
        "Boiling Point": "107.5-108.5 °C @ Press: 15 Torr",
        "Melting Point": "45-46 °C"
    }
}