{
    "cas_no": "36315-01-2",
    "key_name": "2-Amino-4,6-dimethoxypyrimidine",
    "cn_name": "2-氨基-4,6-二甲氧基嘧啶;",
    "alternate_name": "2-Pyrimidinamine, 4,6-dimethoxy-;Pyrimidine, 2-amino-4,6-dimethoxy-;4,6-Dimethoxy-2-pyrimidinamine;2-Amino-4,6-dimethoxypyrimidine;4,6-Dimethoxy-2-aminopyrimidine;J 290;AE-F 092944",
    "duplicated_cas_no": "256642-28-1",
    "SMILES": "O(C)C=1C=C(OC)N=C(N)N1",
    "meta_data": {
        "InChI": "InChI=1S/C6H9N3O2/c1-10-4-3-5(11-2)9-6(7)8-4/h3H,1-2H3,(H2,7,8,9)",
        "InChIKey": null,
        "Canonical SMILES": "N=1C(=NC(OC)=CC1OC)N",
        "Molecular Formula": "C<sub>6</sub>H<sub>9</sub>N<sub>3</sub>O<sub>2</sub>",
        "Molecular Mass": "155.15",
        "Boiling Point": "252 °C @ Press: 760 Torr",
        "Melting Point": "95 °C"
    }
}