{
    "cas_no": "1544-68-9",
    "key_name": "4-Fluorophenyl isothiocyanate",
    "cn_name": "4-氟异硫氰酸苯酯;",
    "alternate_name": "Benzene, 1-fluoro-4-isothiocyanato-;Isothiocyanic acid, <em>p</em>-fluorophenyl ester;1-Fluoro-4-isothiocyanatobenzene;<em>p</em>-Fluorophenyl isothiocyanate;4-Fluorophenyl isothiocyanate;NSC 78433;1-Isothiocyanato-4-fluorobenzene;Benzenamine, 4-fluoro-, sulfide",
    "duplicated_cas_no": "1619287-34-1;2124236-48-0;2484718-17-2",
    "SMILES": "N(=C=S)C1=CC=C(F)C=C1",
    "meta_data": {
        "InChI": "InChI=1S/C7H4FNS/c8-6-1-3-7(4-2-6)9-5-10/h1-4H",
        "InChIKey": null,
        "Canonical SMILES": "FC1=CC=C(N=C=S)C=C1",
        "Molecular Formula": "C<sub>7</sub>H<sub>4</sub>FNS",
        "Molecular Mass": "153.18",
        "Boiling Point": "222-226 °C @ Press: 740 Torr",
        "Melting Point": "23.5-25.5 °C"
    }
}