{
    "cas_no": "98593-51-2",
    "key_name": "Benzenemethanamine, 4-(methylsulfonyl)-, hydrochloride (1:1)",
    "cn_name": "4-(甲磺酰基)苄胺盐酸盐;",
    "alternate_name": "Benzenemethanamine, 4-(methylsulfonyl)-, hydrochloride (1:1);Benzylamine, <em>p</em>-(methylsulfonyl)-, hydrochloride;Benzenemethanamine, 4-(methylsulfonyl)-, hydrochloride;4-Methanesulfonylbenzylamine hydrochloride;4-Methylsulfonylbenzylamine hydrochloride;4-(Methylsulfonyl)benzylamine monohydrochloride;(4-Methanesulfonylphenyl)methanamine hydrochloride",
    "duplicated_cas_no": "",
    "SMILES": "S(C)(=O)(=O)C1=CC=C(CN)C=C1.Cl",
    "meta_data": {
        "InChI": "InChI=1S/C8H11NO2S.ClH/c1-12(10,11)8-4-2-7(6-9)3-5-8;/h2-5H,6,9H2,1H3;1H",
        "InChIKey": null,
        "Canonical SMILES": "Cl.O=S(=O)(C1=CC=C(C=C1)CN)C",
        "Molecular Formula": "C<sub>8</sub>H<sub>11</sub>NO<sub>2</sub>S.ClH",
        "Molecular Mass": "",
        "Melting Point": "279-280 °C"
    }
}