{
    "cas_no": "54384-06-4",
    "key_name": "Glycine, <em>N</em>-methyl-, phenylmethyl ester 4-methylbenzenesulfonate (1:1)",
    "cn_name": null,
    "alternate_name": "Glycine, <em>N</em>-methyl-, phenylmethyl ester 4-methylbenzenesulfonate (1:1);Glycine, <em>N</em>-methyl-, phenylmethyl ester, 4-methylbenzenesulfonate;Sarcosine benzyl ester tosylate",
    "duplicated_cas_no": "908589-26-4",
    "SMILES": "C(OC(CNC)=O)C1=CC=CC=C1.S(=O)(=O)(O)C1=CC=C(C)C=C1",
    "meta_data": {
        "InChI": "InChI=1S/C10H13NO2.C7H8O3S/c1-11-7-10(12)13-8-9-5-3-2-4-6-9;1-6-2-4-7(5-3-6)11(8,9)10/h2-6,11H,7-8H2,1H3;2-5H,1H3,(H,8,9,10)",
        "InChIKey": null,
        "Canonical SMILES": "O=C(OCC=1C=CC=CC1)CNC.O=S(=O)(O)C1=CC=C(C=C1)C",
        "Molecular Formula": "C<sub>10</sub>H<sub>13</sub>NO<sub>2</sub>.C<sub>7</sub>H<sub>8</sub>O<sub>3</sub>S",
        "Molecular Mass": "",
        "Melting Point": "99-102 °C"
    }
}