{
    "cas_no": "618-03-1",
    "key_name": "3-Amino-4-methylbenzenesulfonic acid",
    "cn_name": "2-氨基甲苯-4-磺酸;邻氨基甲苯-4-磺酸;",
    "alternate_name": "Benzenesulfonic acid, 3-amino-4-methyl-;<em>p</em>-Toluenesulfonic acid, 3-amino-;3-Amino-4-methylbenzenesulfonic acid;3-Amino-<em>p</em>-toluenesulfonic acid;2-Amino-4-toluenesulfonic acid;1-Amino-2-methyl-5-benzenesulfonic acid;2-Methyl-5-sulfoaniline;NSC 7922;3-Amino-4-methylbenzene-1-sulfonic acid",
    "duplicated_cas_no": "",
    "SMILES": "S(=O)(=O)(O)C1=CC(N)=C(C)C=C1",
    "meta_data": {
        "InChI": "InChI=1S/C7H9NO3S/c1-5-2-3-6(4-7(5)8)12(9,10)11/h2-4H,8H2,1H3,(H,9,10,11)",
        "InChIKey": null,
        "Canonical SMILES": "O=S(=O)(O)C1=CC=C(C(N)=C1)C",
        "Molecular Formula": "C<sub>7</sub>H<sub>9</sub>NO<sub>3</sub>S",
        "Molecular Mass": "187.22",
        "Melting Point": "237-241 °C"
    }
}