{
    "cas_no": "6946-22-1",
    "key_name": "1,2-Benzenedicarboxylic acid, 3-amino-, hydrochloride (1:1)",
    "cn_name": "3-氨基邻苯二甲酸盐酸二水合物;3-氨基邻苯二甲酸盐酸二水合物;",
    "alternate_name": "1,2-Benzenedicarboxylic acid, 3-amino-, hydrochloride (1:1);Phthalic acid, 3-amino-, hydrochloride;1,2-Benzenedicarboxylic acid, 3-amino-, hydrochloride;3-Aminophthalic acid hydrochloride",
    "duplicated_cas_no": "",
    "SMILES": "C(O)(=O)C1=C(C(O)=O)C=CC=C1N.Cl",
    "meta_data": {
        "InChI": "InChI=1S/C8H7NO4.ClH/c9-5-3-1-2-4(7(10)11)6(5)8(12)13;/h1-3H,9H2,(H,10,11)(H,12,13);1H",
        "InChIKey": null,
        "Canonical SMILES": "Cl.O=C(O)C=1C=CC=C(N)C1C(=O)O",
        "Molecular Formula": "C<sub>8</sub>H<sub>7</sub>NO<sub>4</sub>.ClH",
        "Molecular Mass": "",
        "Melting Point": "174-175 °C"
    }
}