{
    "cas_no": "23432-42-0",
    "key_name": "6-Nitro-4-quinolinol",
    "cn_name": null,
    "alternate_name": "4-Quinolinol, 6-nitro-;6-Nitro-4-quinolinol;6-Nitro-4-hydroxyquinoline;NSC 78445",
    "duplicated_cas_no": "",
    "SMILES": "OC=1C2=C(C=CC(N(=O)=O)=C2)N=CC1",
    "meta_data": {
        "InChI": "InChI=1S/C9H6N2O3/c12-9-3-4-10-8-2-1-6(11(13)14)5-7(8)9/h1-5H,(H,10,12)",
        "InChIKey": null,
        "Canonical SMILES": "O=N(=O)C=1C=CC2=NC=CC(O)=C2C1",
        "Molecular Formula": "C<sub>9</sub>H<sub>6</sub>N<sub>2</sub>O<sub>3</sub>",
        "Molecular Mass": "190.16",
        "Melting Point": "325 °C"
    }
}