{
    "cas_no": "623-97-2",
    "key_name": "Ethanol, 2-chloro-, 1,1′-carbonate",
    "cn_name": "乙醇-2-氯碳酸酯;",
    "alternate_name": "Ethanol, 2-chloro-, 1,1′-carbonate;Carbonic acid, bis(2-chloroethyl) ester;Ethanol, 2-chloro-, carbonate (2:1);Bis(2-chloroethyl) carbonate;NSC 6290",
    "duplicated_cas_no": "67522-32-1",
    "SMILES": "C(OCCCl)(OCCCl)=O",
    "meta_data": {
        "InChI": "InChI=1S/C5H8Cl2O3/c6-1-3-9-5(8)10-4-2-7/h1-4H2",
        "InChIKey": null,
        "Canonical SMILES": "O=C(OCCCl)OCCCl",
        "Molecular Formula": "C<sub>5</sub>H<sub>8</sub>Cl<sub>2</sub>O<sub>3</sub>",
        "Molecular Mass": "187.02",
        "Boiling Point": "241 °C",
        "Melting Point": "8 °C",
        "Density": "1.3506 g/cm³ @ Temp: 20 °C"
    }
}