{
    "cas_no": "99-20-7",
    "key_name": "Trehalose",
    "cn_name": "蕈糖;海藻糖;&alpha;-D-吡喃葡糖基-&alpha;-D-吡喃葡糖苷;",
    "alternate_name": "α-<span class=\"text-smallcaps\">D</smallcap>-Glucopyranoside, α-<smallcap>D</span>-glucopyranosyl;Trehalose;α-<span class=\"text-smallcaps\">D</smallcap>-Glucopyranosyl α-<smallcap>D</span>-glucopyranoside;Ergot sugar;Mycose;Natural trehalose;α,α-Trehalose;α-<span class=\"text-smallcaps\">D</span>-Trehalose;<span class=\"text-smallcaps\">D</span>-(+)-Trehalose;α-Trehalose;<span class=\"text-smallcaps\">D</span>-Trehalose;α,α′-<span class=\"text-smallcaps\">D</span>-Trehalose;Trehaose;Treha;NSC 2093;<em>O</em>-<span class=\"text-smallcaps\">D</smallcap>-Glucopyranosyl-(1→1)-<smallcap>D</span>-glucopyranoside;Trehalose P;Thealoz;Cabaletta;Trehalose 100PH;Tremalose;SLS 005;MeSH ID: D014199",
    "duplicated_cas_no": "229966-89-6;1898191-27-9",
    "SMILES": "O([C@H]1O[C@H](CO)[C@@H](O)[C@H](O)[C@H]1O)[C@H]2O[C@H](CO)[C@@H](O)[C@H](O)[C@H]2O",
    "meta_data": {
        "InChI": "InChI=1S/C12H22O11/c13-1-3-5(15)7(17)9(19)11(21-3)23-12-10(20)8(18)6(16)4(2-14)22-12/h3-20H,1-2H2/t3-,4-,5-,6-,7+,8+,9-,10-,11-,12-/m1/s1",
        "InChIKey": null,
        "Canonical SMILES": "OCC1OC(OC2OC(CO)C(O)C(O)C2O)C(O)C(O)C1O",
        "Molecular Formula": "C<sub>12</sub>H<sub>22</sub>O<sub>11</sub>",
        "Molecular Mass": "342.30",
        "Melting Point": "203 °C",
        "Density": "1.53 g/cm³"
    }
}