{
    "cas_no": "16589-24-5",
    "key_name": "Synephrine tartrate",
    "cn_name": null,
    "alternate_name": "Benzenemethanol, 4-hydroxy-α-[(methylamino)methyl]-, (2<em>R</em>,3<em>R</em>)-2,3-dihydroxybutanedioate (2:1);Benzyl alcohol, <em>p</em>-hydroxy-α-[(methylamino)methyl]-, tartrate (2:1) (salt);Benzenemethanol, 4-hydroxy-α-[(methylamino)methyl]-, [<em>R</em>-(<em>R</em>*,<em>R</em>*)]-2,3-dihydroxybutanedioate (2:1) (salt);Benzenemethanol, 4-hydroxy-α-[(methylamino)methyl]-, (2<em>R</em>,3<em>R</em>)-2,3-dihydroxybutanedioate (2:1) (salt);Oxedrine tartrate;Sympathomim;Synephrine tartrate;Corvasymton;(±)-Synephrine tartrate;<em>dl</em>-Synephrine;(±)-Oxedrine tartrate;<span class=\"text-smallcaps\">DL</span>-<em>p</em>-Synephrine;Simpadren",
    "duplicated_cas_no": "67-04-9;40892-31-7",
    "SMILES": "C(CNC)(O)C1=CC=C(O)C=C1.[C@@H]([C@H](C(O)=O)O)(C(O)=O)O",
    "meta_data": {
        "InChI": "InChI=1S/C9H13NO2.C4H6O6/c1-10-6-9(12)7-2-4-8(11)5-3-7;5-1(3(7)8)2(6)4(9)10/h2-5,9-12H,6H2,1H3;1-2,5-6H,(H,7,8)(H,9,10)/t;1-,2-/m.1/s1",
        "InChIKey": null,
        "Canonical SMILES": "O=C(O)C(O)C(O)C(=O)O.OC1=CC=C(C=C1)C(O)CNC",
        "Molecular Formula": "C<sub>9</sub>H<sub>13</sub>NO<sub>2</sub>.<sup>1</sup>/<sub>2</sub>C<sub>4</sub>H<sub>6</sub>O<sub>6</sub>",
        "Molecular Mass": "",
        "Melting Point": "188-190 °C (decomp)"
    }
}