{
    "cas_no": "5356-85-4",
    "key_name": "Vinylmethylbis(trimethylsiloxy)silane",
    "cn_name": "乙烯基甲基双(三甲基硅氧基)硅烷;",
    "alternate_name": "Trisiloxane, 3-ethenyl-1,1,1,3,5,5,5-heptamethyl-;Trisiloxane, 1,1,1,3,5,5,5-heptamethyl-3-vinyl-;3-Ethenyl-1,1,1,3,5,5,5-heptamethyltrisiloxane;Methylbis(trimethylsiloxy)vinylsilane;Bis(trimethylsiloxy)methylvinylsilane;Vinylmethylbis(trimethylsiloxy)silane;Methylbis[(trimethylsilyl)oxy](vinyl)silane;SIV 9082;1,1,1,3,5,5,5-Heptamethyl-3-vinyltrisiloxane;3-Vinylheptamethyltrisiloxane;(Ethenyl)(methyl)bis(trimethylsiloxy)silane",
    "duplicated_cas_no": "",
    "SMILES": "[Si](O[Si](C)(C)C)(O[Si](C)(C)C)(C=C)C",
    "meta_data": {
        "InChI": "InChI=1S/C9H24O2Si3/c1-9-14(8,10-12(2,3)4)11-13(5,6)7/h9H,1H2,2-8H3",
        "InChIKey": null,
        "Canonical SMILES": "O([Si](O[Si](C)(C)C)(C=C)C)[Si](C)(C)C",
        "Molecular Formula": "C<sub>9</sub>H<sub>24</sub>O<sub>2</sub>Si<sub>3</sub>",
        "Molecular Mass": "248.54",
        "Boiling Point": "49 °C @ Press: 8 Torr",
        "Density": "0.836 g/cm³"
    }
}