{
    "cas_no": "31828-71-4",
    "key_name": "Mexiletine",
    "cn_name": "美西律;1-(2,6-二甲基苯氧基)-2-丙胺;",
    "alternate_name": "2-Propanamine, 1-(2,6-dimethylphenoxy)-;Ethylamine, 1-methyl-2-(2,6-xylyloxy)-;1-(2,6-Dimethylphenoxy)-2-propanamine;1-(2′,6′-Dimethylphenoxy)-2-aminopropane;1-Methyl-2-(2,6-xylyloxy)ethylamine;Mexiletine;2-Amino-1-(2,6-dimethylphenoxy)propane;(±)-2-Amino-1-(2′,6′-dimethylphenoxy)propane;(±)-Mexiletine;<em>dl</em>-Mexiletine;(<em>RS</em>)-Mexiletine;[2-[(2,6-Dimethylphenyl)oxy]-1-methylethyl]amine;2-(2-Aminopropoxy)-1,3-dimethylbenzene;MeSH ID: D008801;1,1-Ethanediamine, 2-(2,6-dimethylphenoxy)-",
    "duplicated_cas_no": "61079-93-4;128942-27-8;718619-78-4;2923757-26-8",
    "SMILES": "O(CC(C)N)C1=C(C)C=CC=C1C",
    "meta_data": {
        "InChI": "InChI=1S/C11H17NO/c1-8-5-4-6-9(2)11(8)13-7-10(3)12/h4-6,10H,7,12H2,1-3H3",
        "InChIKey": null,
        "Canonical SMILES": "O(C=1C(=CC=CC1C)C)CC(N)C",
        "Molecular Formula": "C<sub>11</sub>H<sub>17</sub>NO",
        "Molecular Mass": "179.26",
        "Melting Point": "203-205 °C"
    }
}