{
    "cas_no": "6531-38-0",
    "key_name": "1,4-Piperazinediethanamine",
    "cn_name": "1,4-哌嗪二乙胺;N,N\"-二(2-氨乙基)哌嗪;",
    "alternate_name": "1,4-Piperazinediethanamine;Piperazine, 1,4-bis(2-aminoethyl)-;<em>N</em>,<em>N</em>′-Bis(2-aminoethyl)piperazine;1,4-Bis(2-aminoethyl)piperazine;1,4-Piperazinediethylamine;1,4-Bis(2-aminoethyl)-1,4-diazacyclohexane;[2-[4-(2-Aminoethyl)piperazin-1-yl]ethyl]amine;2,2′-(Piperazine-1,4-diyl)diethanamine;2,2′-(1,4-Piperazinediyl)diethanamine;2-[4-(2-Aminoethyl)piperazin-1-yl]ethanamine;2-[4-(2-Aminoethyl)piperazin-1-yl]ethan-1-amine",
    "duplicated_cas_no": "",
    "SMILES": "C(CN)N1CCN(CCN)CC1",
    "meta_data": {
        "InChI": "InChI=1S/C8H20N4/c9-1-3-11-5-7-12(4-2-10)8-6-11/h1-10H2",
        "InChIKey": null,
        "Canonical SMILES": "NCCN1CCN(CCN)CC1",
        "Molecular Formula": "C<sub>8</sub>H<sub>20</sub>N<sub>4</sub>",
        "Molecular Mass": "172.27",
        "Boiling Point": "130 °C @ Press: 12 Torr",
        "Melting Point": "40 °C",
        "Density": "0.9675 g/cm³ @ Temp: 25 °C"
    }
}