{
    "cas_no": "2686-99-9",
    "key_name": "3,4,5-Trimethacarb",
    "cn_name": "混灭威;三甲威;3,4,5-三甲威;N-甲基氨基甲酸混二甲苯酯;3,4,5-三甲基苯基;混二甲苯基甲氨基甲酸酯;混二甲苯;",
    "alternate_name": "Phenol, 3,4,5-trimethyl-, 1-(<em>N</em>-methylcarbamate);Carbamic acid, methyl-, 3,4,5-trimethylphenyl ester;Phenol, 3,4,5-trimethyl-, methylcarbamate;SD 8530;Shell 8530;Shell SD 8530;3,4,5-Trimethylphenyl methylcarbamate;3,4,5-Trimethylphenyl <em>N</em>-methylcarbamate;3,4,5-Landrin;Landrin A;3,4,5-Trimethacarb;Landrin 1",
    "duplicated_cas_no": "",
    "SMILES": "O(C(NC)=O)C1=CC(C)=C(C)C(C)=C1",
    "meta_data": {
        "InChI": "InChI=1S/C11H15NO2/c1-7-5-10(14-11(13)12-4)6-8(2)9(7)3/h5-6H,1-4H3,(H,12,13)",
        "InChIKey": null,
        "Canonical SMILES": "O=C(OC=1C=C(C(=C(C1)C)C)C)NC",
        "Molecular Formula": "C<sub>11</sub>H<sub>15</sub>NO<sub>2</sub>",
        "Molecular Mass": "193.24",
        "Melting Point": "109 °C"
    }
}