{
    "cas_no": "328-73-4",
    "key_name": "1-Iodo-3,5-bis(trifluoromethyl)benzene",
    "cn_name": "3,5-二(三氟甲基)碘苯;1,3-双三氟甲基-5-碘苯;",
    "alternate_name": "Benzene, 1-iodo-3,5-bis(trifluoromethyl)-;Benzene, 5-iodo-1,3-bis(trifluoromethyl)-;1-Iodo-3,5-bis(trifluoromethyl)benzene;3,5-Bis(trifluoromethyl)iodobenzene;3,5-Bis(trifluoromethyl)phenyl iodide;1,3-Bis(trifluoromethyl)-5-iodobenzene;5-Iodo-1,3-bis(trifluoromethyl)benzene;3,5-Bis(trifluoromethyl)-1-iodobenzene",
    "duplicated_cas_no": "",
    "SMILES": "C(F)(F)(F)C1=CC(C(F)(F)F)=CC(I)=C1",
    "meta_data": {
        "InChI": "InChI=1S/C8H3F6I/c9-7(10,11)4-1-5(8(12,13)14)3-6(15)2-4/h1-3H",
        "InChIKey": null,
        "Canonical SMILES": "FC(F)(F)C1=CC(I)=CC(=C1)C(F)(F)F",
        "Molecular Formula": "C<sub>8</sub>H<sub>3</sub>F<sub>6</sub>I",
        "Molecular Mass": "340.00",
        "Boiling Point": "59-61 °C @ Press: 10 Torr"
    }
}