{
    "cas_no": "81-77-6",
    "key_name": "Pigment Blue 60",
    "cn_name": "颜料蓝60;还原蓝4;阴丹士林蓝;蒽醌蓝;颜料蓝GR;6,15-二氢二蒽并哒嗪-5,9,14,18-四酮;",
    "alternate_name": "5,9,14,18-Anthrazinetetrone, 6,15-dihydro-;Indanthrene;6,15-Dihydro-5,9,14,18-anthrazinetetrone;C.I. 69800;Atic Vat Blue XRN;Benzadone Blue RS;Blue O;Blue anthraquinone pigment;Calcoloid Blue RS;Caledon Blue RN;Caledon Blue XRN;Caledon Brilliant Blue RN;Caledon Paper Blue RN;Caledon Printing Blue RN;Caledon Printing Blue XRN;Carbanthrene Blue 2R;Carbanthrene Blue RS;Carbanthrene Blue RSP;Celliton Blue RN;Cibanone Blue FRS;Cibanone Blue FRSN;Cibanone Brilliant Blue FR;C.I. Pigment Blue 60;C.I. Vat Blue 4;<em>N</em>,<em>N</em>′-Dihydro-1,2,1′,2′-anthraquinonazine;Fenan Blue RSN;Fenanthren Blue RS;Graphtol Blue RL;Helianthrene Blue RS;Indanthren Blue GP;Indanthren Blue GPT;Indanthren Blue RPT;Indanthren Blue RS;Indanthren Blue RSN;Indanthren Blue RSP;Indanthren Brilliant Blue R;Indanthrene Blue GP;Indanthrene Blue RP;Indanthrene Blue RS;Indanthrene Blue RSN;Indanthren Printing Blue FRS;Indanthren Printing Blue KRS;Indanthrone;Lake Fast Blue BS;Lake Fast Blue GGS;Latexol Fast Blue SD;Lutetia Fast Blue RS;Medium Blue;Mikethrene Blue RSN;Mikethrene Brilliant Blue R;Monolite Fast Blue 3R;Monolite Fast Blue 3RD;Monolite Fast Blue RV;Navinon Blue RSN;Navinon Blue RSN Reddish Special;Nihonthrene Blue RSN;Nihonthrene Brilliant Blue RP;Ostanthren Blue RS;Ostanthren Blue RSN;Ostanthren Blue RSZ;Ostanthrene Blue RS;Palanthrene Blue GPT;Palanthrene Blue GPZ;Palanthrene Blue RPT;Palanthrene Blue RPZ;Palanthrene Blue RSN;Palanthrene Brilliant Blue R;Palanthrene Printing Blue KRS;Paradone Blue RS;Paradone Brilliant Blue R;Paradone Printing Blue FRS;Pernithrene Blue RS;Polymon Blue 3R;Ponsol Blue GZ;Ponsol Blue RCL;Ponsol Blue RPC;Ponsol Brilliant Blue R;Ponsol RP;Romantrene Blue FRS;Romantrene Blue GGSL;Romantrene Blue RSZ;Romantrene Brilliant Blue R;Romantrene Brilliant Blue FR;Sandothrene Blue NRSC;Sandothrene Blue NRSN;Sanyo Threne Blue IRN;Solanthrene Blue RS;Solanthrene Blue RSN;Solanthrene R for Sugar;Symuler Fast Blue 6011;Tinon Blue RS;Tinon Blue RSN;Tyrian Blue I-RSN;Tyrian Brilliant Blue I-R;Vat Blue O;Vat Fast Blue R;Versal Blue GGSL;Vulcafix Fast Blue SD;Vulcafor Fast Blue 3R;Vulcanosine Fast Blue GG;Vulcol Fast Blue S;Vynamon Blue 3R;Romanthrene Blue FRS;Cromophtal Blue A 3R;Indanthrene Blue;Vat Blue 4;Indanthren Blue;Monolite Fast Blue SRS;Anthraquinone Deep Blue;Pigment Anthraquinone Deep Blue;Pigment Deep Blue Anthraquinone;Pigment Blue Anthraquinone;Anthraquinone blue;Vat Blue OD;Heliogen Blue 6470;Cibanone Blue RS;Lionogen Blue R;Pigment Blue Anthraquinone V;Monolite Blue 3R;Sumikacoat Fast Blue BS;Suprapal Blue 2XS5A760;Indanthrene Blue GZ;KET Blue 101;Paliogen Blue K 6470;Paliogen Blue 6470;Paliogen Blue D 6470;C.I. Food Blue 4;Food Blue 4;Paliogen Blue L 6480;Indanthrone blue;Paliogen Blue L 6482;Indanthrone blue (Chinese);Novatic Blue R;DM Light Blue KT;DM Light Blue KT Crude;Microlith Blue A 3R-K;Paliogen Blue L 6385;Pigment Blue 60;Fastogen Super Blue 6070S;Fastogen Super Blue 6075;Vat Blue RSN;Vat Blue RS;Fastogen Super Blue 6101;Paliogen Blue L 6495F;Fuji AS Blue;Fuji AS Blue 65;Blue A 3R-K;Hostaperm Blue RL 01;Irgazin Blue A 3RN;A 3RN;NSC 47739;NSC 652900;Indanthren Blue IRN;Heliogen Blue K 6330;Reduced Blue RS;Reduced Blue RSN;Reduction Blue RSN;Cibanone Blue RS-PT 9860;SPB 10;Paliogen Blue L 6470;PB 60;Monolite Blue 3RX;Cibanone Blue RSJ;Indanthren Blue A 3R;Palomar Delta Blue 60;Lionogen Blue 6510;Indanthrene-5,9,14,18-tetraone;Paliogen Blau L 6385;Lionol Blue 6510;L 6480;DCC Blue A 3R;Paliogen L 6360;PV Fast Blue L 6472;Blue L 6470;Blue L 6385;Blue L 6495F;MHI Blue PD 289M;Ranbar Blue P 5060P5061;Ranbar Blue P 5060/5061;Indanthrone Blue 60;A 3R-K;Pigment Blue GR;Paliogen Blue L 6360;DTXSID2026280;Lionogen Blue 6520;Monolite Blue 3RH;Blue anthraquinone;Blue anthrone",
    "duplicated_cas_no": "11098-09-2;11129-81-0;39280-72-3;50814-33-0;50926-10-8;67418-33-1;88507-35-1;93050-92-1;111116-33-7;113255-69-9;128281-88-9;192588-24-2;790240-41-4",
    "SMILES": "O=C1C=2C3=C(NC=4C(N3)=CC=C5C4C(=O)C=6C(C5=O)=CC=CC6)C=CC2C(=O)C=7C1=CC=CC7",
    "meta_data": {
        "InChI": "InChI=1S/C28H14N2O4/c31-25-13-5-1-3-7-15(13)27(33)21-17(25)9-11-19-23(21)29-20-12-10-18-22(24(20)30-19)28(34)16-8-4-2-6-14(16)26(18)32/h1-12,29-30H",
        "InChIKey": null,
        "Canonical SMILES": "O=C1C=2C=CC=CC2C(=O)C=3C1=CC=C4NC=5C(=CC=C6C(=O)C=7C=CC=CC7C(=O)C65)NC43",
        "Molecular Formula": "C<sub>28</sub>H<sub>14</sub>N<sub>2</sub>O<sub>4</sub>",
        "Molecular Mass": "442.42",
        "Melting Point": "485 °C (decomp)"
    }
}