{
    "cas_no": "1694-92-4",
    "key_name": "2-Nitrobenzenesulfonyl chloride",
    "cn_name": "邻硝基苯磺酰氯;",
    "alternate_name": "Benzenesulfonyl chloride, 2-nitro-;Benzenesulfonyl chloride, <em>o</em>-nitro-;2-Nitrobenzenesulfonyl chloride;<em>o</em>-Nitrobenzenesulfonyl chloride;<em>o</em>-Nitrophenylsulfonyl chloride;2-Nitrophenylsulfonyl chloride;NSC 12991;2-Nitrobenzene-1-sulfonyl chloride;<em>o</em>-Nosyl chloride;2-Nitro-phenyl-sulphonyl chloride;1-(Chlorosulfonyl)-2-nitrobenzene;2-Nitrobenzenesulphonyl chloride",
    "duplicated_cas_no": "671195-23-6",
    "SMILES": "S(Cl)(=O)(=O)C1=C(N(=O)=O)C=CC=C1",
    "meta_data": {
        "InChI": "InChI=1S/C6H4ClNO4S/c7-13(11,12)6-4-2-1-3-5(6)8(9)10/h1-4H",
        "InChIKey": null,
        "Canonical SMILES": "O=N(=O)C=1C=CC=CC1S(=O)(=O)Cl",
        "Molecular Formula": "C<sub>6</sub>H<sub>4</sub>ClNO<sub>4</sub>S",
        "Molecular Mass": "221.62",
        "Melting Point": "67 °C"
    }
}