{
    "cas_no": "13360-57-1",
    "key_name": "Dimethylsulfamoyl chloride",
    "cn_name": "二甲胺基磺酰氯;二甲基氨磺酰氯;二甲基硫酰氯;",
    "alternate_name": "Sulfamoyl chloride, <em>N</em>,<em>N</em>-dimethyl-;Sulfamoyl chloride, dimethyl-;<em>N</em>,<em>N</em>-Dimethylsulfamoyl chloride;Dimethylsulfamoyl chloride;Dimethylamidosulfonyl chloride;Dimethylaminosulfonyl chloride;<em>N</em>,<em>N</em>-Dimethylsulfamyl chloride;<em>N</em>,<em>N</em>-Dimethylamidosulfonyl chloride;<em>N</em>,<em>N</em>-Dimethylaminosulfonyl chloride;NSC 93875;Dimethylsulphamoyl chloride",
    "duplicated_cas_no": "",
    "SMILES": "S(N(C)C)(Cl)(=O)=O",
    "meta_data": {
        "InChI": "InChI=1S/C2H6ClNO2S/c1-4(2)7(3,5)6/h1-2H3",
        "InChIKey": null,
        "Canonical SMILES": "O=S(=O)(Cl)N(C)C",
        "Molecular Formula": "C<sub>2</sub>H<sub>6</sub>ClNO<sub>2</sub>S",
        "Molecular Mass": "143.59",
        "Boiling Point": "74-76 °C @ Press: 12 Torr"
    }
}