{
    "cas_no": "284493-59-0",
    "key_name": "β-[[(1,1-Dimethylethoxy)carbonyl]amino]-3-fluorobenzenepropanoic acid",
    "cn_name": "3-(Boc-氨基)-3-(3-氟苯基)丙酸;3-NBOC-氨基-3-(3-氟苯基)丙酸;3-(BOC-氨基)-3-(3-氟苯基)丙酸,99%;3-叔丁;",
    "alternate_name": "Benzenepropanoic acid, β-[[(1,1-dimethylethoxy)carbonyl]amino]-3-fluoro-;β-[[(1,1-Dimethylethoxy)carbonyl]amino]-3-fluorobenzenepropanoic acid;3-<em>tert</em>-Butoxycarbonylamino-3-(3-fluoro-phenyl)-propionic acid;3-[[(<em>tert</em>-Butoxy)carbonyl]amino]-3-(3-fluorophenyl)propanoic acid",
    "duplicated_cas_no": "",
    "SMILES": "C(NC(OC(C)(C)C)=O)(CC(O)=O)C1=CC(F)=CC=C1",
    "meta_data": {
        "InChI": "InChI=1S/C14H18FNO4/c1-14(2,3)20-13(19)16-11(8-12(17)18)9-5-4-6-10(15)7-9/h4-7,11H,8H2,1-3H3,(H,16,19)(H,17,18)",
        "InChIKey": null,
        "Canonical SMILES": "O=C(OC(C)(C)C)NC(C=1C=CC=C(F)C1)CC(=O)O",
        "Molecular Formula": "C<sub>14</sub>H<sub>18</sub>FNO<sub>4</sub>",
        "Molecular Mass": "283.30",
        "Melting Point": "111.5-114.2 °C"
    }
}