{
    "cas_no": "108-56-5",
    "key_name": "Diethyl oxalacetate",
    "cn_name": "草酰乙酸二乙酯;丁酮二酸二乙酯;",
    "alternate_name": "Butanedioic acid, 2-oxo-, 1,4-diethyl ester;Oxalacetic acid, diethyl ester;Butanedioic acid, oxo-, diethyl ester;Diethyl oxalacetate;Oxalacetic ester;Diethyl oxaloacetate;2-Oxobutanedioic acid diethyl ester;Diethyl oxobutanedioate;Diethyl oxosuccinate;Diethyl 2-oxosuccinate;NSC 68476;Diethyl 2-oxobutanedioate;1,4-Diethyl 2-oxobutanedioate",
    "duplicated_cas_no": "",
    "SMILES": "C(C(C(OCC)=O)=O)C(OCC)=O",
    "meta_data": {
        "InChI": "InChI=1S/C8H12O5/c1-3-12-7(10)5-6(9)8(11)13-4-2/h3-5H2,1-2H3",
        "InChIKey": null,
        "Canonical SMILES": "O=C(OCC)C(=O)CC(=O)OCC",
        "Molecular Formula": "C<sub>8</sub>H<sub>12</sub>O<sub>5</sub>",
        "Molecular Mass": "188.18",
        "Boiling Point": "132 °C",
        "Melting Point": "&lt;25 °C",
        "Density": "1.1324 g/cm³ @ Temp: 20 °C"
    }
}