{
    "cas_no": "538-58-9",
    "key_name": "Dibenzylideneacetone",
    "cn_name": "二苄叉丙酮;",
    "alternate_name": "1,4-Pentadien-3-one, 1,5-diphenyl-;3-Pentadienone, 1,5-diphenyl-;1,5-Diphenyl-1,4-pentadien-3-one;Dibenzalacetone;Dibenzylideneacetone;Distyryl ketone;Styrol ketone;1,5-Diphenyl-3-pentadienone;Bis(2-phenylvinyl) ketone;Bis(2-phenylethenyl) ketone;1,5-Diphenyl-1,4-pentadienone;NSC 117234;NSC 623642;NSC 8103",
    "duplicated_cas_no": "",
    "SMILES": "C(=CC(C=CC1=CC=CC=C1)=O)C2=CC=CC=C2",
    "meta_data": {
        "InChI": "InChI=1S/C17H14O/c18-17(13-11-15-7-3-1-4-8-15)14-12-16-9-5-2-6-10-16/h1-14H",
        "InChIKey": null,
        "Canonical SMILES": "O=C(C=CC=1C=CC=CC1)C=CC=2C=CC=CC2",
        "Molecular Formula": "C<sub>17</sub>H<sub>14</sub>O",
        "Molecular Mass": "234.29",
        "Melting Point": "113 °C (decomp)"
    }
}