{
    "cas_no": "1561-11-1",
    "key_name": "(±)-4-Methylhexanoic acid",
    "cn_name": "4-甲基乙酸;",
    "alternate_name": "Hexanoic acid, 4-methyl-;Caproic acid, γ-methyl-;4-Methylhexanoic acid;4-Methylcaproic acid;4-Ethylpentanoic acid;(±)-4-Methylhexanoic acid;NSC 249817",
    "duplicated_cas_no": "22160-41-4",
    "SMILES": "C(CCC(O)=O)(CC)C",
    "meta_data": {
        "InChI": "InChI=1S/C7H14O2/c1-3-6(2)4-5-7(8)9/h6H,3-5H2,1-2H3,(H,8,9)",
        "InChIKey": null,
        "Canonical SMILES": "O=C(O)CCC(C)CC",
        "Molecular Formula": "C<sub>7</sub>H<sub>14</sub>O<sub>2</sub>",
        "Molecular Mass": "130.18",
        "Boiling Point": "211-213 °C",
        "Density": "0.9228 g/cm³ @ Temp: 20 °C"
    }
}