{
    "cas_no": "35677-88-4",
    "key_name": "<em>N</em>-[(Phenylmethoxy)carbonyl]-<span class=\"text-smallcaps\">L</span>-homoserine",
    "cn_name": "N-苄氧羰基-L-高丝氨酸;",
    "alternate_name": "<span class=\"text-smallcaps\">L</span>-Homoserine, <em>N</em>-[(phenylmethoxy)carbonyl]-;Butyric acid, 2-carboxyamino-4-hydroxy-, <em>N</em>-benzyl ester;<em>N</em>-[(Phenylmethoxy)carbonyl]-<span class=\"text-smallcaps\">L</span>-homoserine;<em>N</em>-Carbobenzoxy-<span class=\"text-smallcaps\">L</span>-homoserine;<em>N</em>-(Benzyloxycarbonyl)-<span class=\"text-smallcaps\">L</span>-homoserine;Cbz-hse-oh",
    "duplicated_cas_no": "",
    "SMILES": "[C@H](NC(OCC1=CC=CC=C1)=O)(CCO)C(O)=O",
    "meta_data": {
        "InChI": "InChI=1S/C12H15NO5/c14-7-6-10(11(15)16)13-12(17)18-8-9-4-2-1-3-5-9/h1-5,10,14H,6-8H2,(H,13,17)(H,15,16)/t10-/m0/s1",
        "InChIKey": null,
        "Canonical SMILES": "O=C(O)C(NC(=O)OCC=1C=CC=CC1)CCO",
        "Molecular Formula": "C<sub>12</sub>H<sub>15</sub>NO<sub>5</sub>",
        "Molecular Mass": "253.25",
        "Melting Point": "78-81 °C"
    }
}