{
    "cas_no": "6303-21-5",
    "key_name": "Phosphinic acid",
    "cn_name": "次磷酸;卑磷酸;",
    "alternate_name": "Phosphinic acid;Phosphine oxide, hydroxy-;Hypophosphorous acid;Phosphonous acid;Hydroxyphosphine oxide;Dihydroxyphosphine",
    "duplicated_cas_no": "60062-19-3",
    "SMILES": "[PH2](=O)O",
    "meta_data": {
        "InChI": "InChI=1S/H3O2P/c1-3-2/h3H2,(H,1,2)",
        "InChIKey": null,
        "Canonical SMILES": "O=[PH2]O",
        "Molecular Formula": "H<sub>3</sub>O<sub>2</sub>P",
        "Molecular Mass": "",
        "Melting Point": "23-25 °C",
        "Density": "1.479 g/cm³ @ Temp: 20 °C"
    }
}