{
    "cas_no": "37866-45-8",
    "key_name": "Ethanamine, 2-(aminooxy)-, dihydrochloride",
    "cn_name": null,
    "alternate_name": "Ethanamine, 2-(aminooxy)-, dihydrochloride;Ethylamine, 2-(aminooxy)-, dihydrochloride;<em>O</em>-(2-Aminoethyl)hydroxylamine dihydrochloride;2-Aminoethoxyamine dihydrochloride;2-(Aminooxy)ethylamine dihydrochloride;2-(Aminooxy)ethanamine dihydrochloride",
    "duplicated_cas_no": "",
    "SMILES": "C(CN)ON.Cl",
    "meta_data": {
        "InChI": "InChI=1S/C2H8N2O.2ClH/c3-1-2-5-4;;/h1-4H2;2*1H",
        "InChIKey": null,
        "Canonical SMILES": "Cl.O(N)CCN",
        "Molecular Formula": "C<sub>2</sub>H<sub>8</sub>N<sub>2</sub>O.2ClH",
        "Molecular Mass": "",
        "Melting Point": "165-169 °C (decomp)"
    }
}