{
    "cas_no": "763-30-4",
    "key_name": "2-Methyl-1,4-pentadiene",
    "cn_name": "2-甲基-1,4-戊二烯;",
    "alternate_name": "1,4-Pentadiene, 2-methyl-;2-Methyl-1,4-pentadiene",
    "duplicated_cas_no": "",
    "SMILES": "C(C(C)=C)C=C",
    "meta_data": {
        "InChI": "InChI=1S/C6H10/c1-4-5-6(2)3/h4H,1-2,5H2,3H3",
        "InChIKey": null,
        "Canonical SMILES": "C=CCC(=C)C",
        "Molecular Formula": "C<sub>6</sub>H<sub>10</sub>",
        "Molecular Mass": "82.14",
        "Boiling Point": "56 °C",
        "Density": "0.6932 g/cm³ @ Temp: 20 °C"
    }
}