{
    "cas_no": "138-37-4",
    "key_name": "Benzenesulfonamide, 4-(aminomethyl)-, hydrochloride (1:1)",
    "cn_name": "盐酸磺胺米隆;氨苄磺胺盐酸盐;4-氨甲基苯磺酰胺盐酸盐;对氨甲基苯磺酰胺盐酸盐;",
    "alternate_name": "Benzenesulfonamide, 4-(aminomethyl)-, hydrochloride (1:1);<em>p</em>-Toluenesulfonamide, α-amino-, monohydrochloride;Benzenesulfonamide, 4-(aminomethyl)-, monohydrochloride;<em>p</em>-Toluenesulfonamide, α-amino-, hydrochloride;<em>p</em>-(Aminomethyl)benzenesulfonamide hydrochloride;<em>p</em>-Aminomethylphenylsulfonamide hydrochloride;α-Amino-<em>p</em>-toluenesulfonamide hydrochloride;4-Homosulfanilamide hydrochloride;Mafenide hydrochloride;Sulfamylon hydrochloride;Homosulfamine;Marfanil;Homosulfanilamide hydrochloride;Homosulfamine hydrochloride;<em>p</em>-(Aminomethyl)benzenesulfonamide monohydrochloride;4-(Aminomethyl)benzene sulfonamide monohydrochloride;4-Aminosulfonylbenzylamine hydrochloride;(4-Sulfamoylphenyl)methanaminium chloride",
    "duplicated_cas_no": "",
    "SMILES": "S(N)(=O)(=O)C1=CC=C(CN)C=C1.Cl",
    "meta_data": {
        "InChI": "InChI=1S/C7H10N2O2S.ClH/c8-5-6-1-3-7(4-2-6)12(9,10)11;/h1-4H,5,8H2,(H2,9,10,11);1H",
        "InChIKey": null,
        "Canonical SMILES": "Cl.O=S(=O)(N)C1=CC=C(C=C1)CN",
        "Molecular Formula": "C<sub>7</sub>H<sub>10</sub>N<sub>2</sub>O<sub>2</sub>S.ClH",
        "Molecular Mass": "",
        "Melting Point": "256 °C"
    }
}