{
    "cas_no": "24425-40-9",
    "key_name": "5-Aminoindan",
    "cn_name": "5-氨基茚旦;5-氨基茚满;5-氨基二氢茚;",
    "alternate_name": "1<em>H</em>-Inden-5-amine, 2,3-dihydro-;5-Indanamine;2,3-Dihydro-1<em>H</em>-inden-5-amine;5-Aminoindan;5-Aminoindane;5-Indanylamine;6-Aminoindan;(2,3-Dihydro-1<em>H</em>-inden-5-yl)amine;5-Amino-2,3-dihydro-1<em>H</em>-indene",
    "duplicated_cas_no": "",
    "SMILES": "NC=1C=C2C(=CC1)CCC2",
    "meta_data": {
        "InChI": "InChI=1S/C9H11N/c10-9-5-4-7-2-1-3-8(7)6-9/h4-6H,1-3,10H2",
        "InChIKey": null,
        "Canonical SMILES": "NC1=CC=C2C(=C1)CCC2",
        "Molecular Formula": "C<sub>9</sub>H<sub>11</sub>N",
        "Molecular Mass": "133.19",
        "Boiling Point": "248 °C",
        "Melting Point": "37.5 °C"
    }
}