{
    "cas_no": "57728-59-3",
    "key_name": "<em>N</em>-(3-Chlorobenzoyl)glycine",
    "cn_name": null,
    "alternate_name": "Glycine, <em>N</em>-(3-chlorobenzoyl)-;Hippuric acid, <em>m</em>-chloro-;<em>N</em>-(3-Chlorobenzoyl)glycine;<em>m</em>-Chlorohippuric acid;NSC 201882;(3-Chlorobenzoylamino)acetic acid;2-[(3-Chlorophenyl)formamido]acetic acid;2-[(3-Chlorobenzoyl)amino]acetic acid",
    "duplicated_cas_no": "",
    "SMILES": "C(NCC(O)=O)(=O)C1=CC(Cl)=CC=C1",
    "meta_data": {
        "InChI": "InChI=1S/C9H8ClNO3/c10-7-3-1-2-6(4-7)9(14)11-5-8(12)13/h1-4H,5H2,(H,11,14)(H,12,13)",
        "InChIKey": null,
        "Canonical SMILES": "O=C(O)CNC(=O)C=1C=CC=C(Cl)C1",
        "Molecular Formula": "C<sub>9</sub>H<sub>8</sub>ClNO<sub>3</sub>",
        "Molecular Mass": "213.62",
        "Melting Point": "143-144 °C"
    }
}