{
    "cas_no": "400882-07-7",
    "key_name": "Cyflumetofen",
    "cn_name": "丁氟螨酯;丁氟螨酯;",
    "alternate_name": "Benzenepropanoic acid, α-cyano-α-[4-(1,1-dimethylethyl)phenyl]-β-oxo-2-(trifluoromethyl)-, 2-methoxyethyl ester;Cyflumetofen;BAS 92100I",
    "duplicated_cas_no": "",
    "SMILES": "C(C(=O)C1=C(C(F)(F)F)C=CC=C1)(C(OCCOC)=O)(C#N)C2=CC=C(C(C)(C)C)C=C2",
    "meta_data": {
        "InChI": "InChI=1S/C24H24F3NO4/c1-22(2,3)16-9-11-17(12-10-16)23(15-28,21(30)32-14-13-31-4)20(29)18-7-5-6-8-19(18)24(25,26)27/h5-12H,13-14H2,1-4H3",
        "InChIKey": null,
        "Canonical SMILES": "N#CC(C(=O)OCCOC)(C(=O)C=1C=CC=CC1C(F)(F)F)C2=CC=C(C=C2)C(C)(C)C",
        "Molecular Formula": "C<sub>24</sub>H<sub>24</sub>F<sub>3</sub>NO<sub>4</sub>",
        "Molecular Mass": "447.45",
        "Melting Point": "77.3-80.7 °C"
    }
}