{
    "cas_no": "16732-66-4",
    "key_name": "(2-Bromophenyl)hydrazine",
    "cn_name": "2-溴苯肼;",
    "alternate_name": "Hydrazine, (2-bromophenyl)-;Hydrazine, (<em>o</em>-bromophenyl)-;(2-Bromophenyl)hydrazine;(<em>o</em>-Bromophenyl)hydrazine;NSC 157601",
    "duplicated_cas_no": "2171492-21-8",
    "SMILES": "N(N)C1=C(Br)C=CC=C1",
    "meta_data": {
        "InChI": "InChI=1S/C6H7BrN2/c7-5-3-1-2-4-6(5)9-8/h1-4,9H,8H2",
        "InChIKey": null,
        "Canonical SMILES": "BrC=1C=CC=CC1NN",
        "Molecular Formula": "C<sub>6</sub>H<sub>7</sub>BrN<sub>2</sub>",
        "Molecular Mass": "187.04",
        "Melting Point": "46-48 °C"
    }
}