{
    "cas_no": "13472-85-0",
    "key_name": "5-Bromo-2-methoxypyridine",
    "cn_name": "5-溴-2-甲氧基吡啶;",
    "alternate_name": "Pyridine, 5-bromo-2-methoxy-;5-Bromo-2-methoxypyridine;2-Methoxy-5-bromopyridine;3-Bromo-6-methoxypyridine;5-Bromo-2-methyloxypyridine",
    "duplicated_cas_no": "",
    "SMILES": "O(C)C1=CC=C(Br)C=N1",
    "meta_data": {
        "InChI": "InChI=1S/C6H6BrNO/c1-9-6-3-2-5(7)4-8-6/h2-4H,1H3",
        "InChIKey": null,
        "Canonical SMILES": "BrC1=CN=C(OC)C=C1",
        "Molecular Formula": "C<sub>6</sub>H<sub>6</sub>BrNO",
        "Molecular Mass": "188.02",
        "Boiling Point": "65-70 °C @ Press: 3.5 Torr"
    }
}