{
    "cas_no": "86299-47-0",
    "key_name": "(α<em>Z</em>)-2-Amino-α-[[2-(1,1-dimethylethoxy)-1,1-dimethyl-2-oxoethoxy]imino]-4-thiazoleacetic acid",
    "cn_name": null,
    "alternate_name": "4-Thiazoleacetic acid, 2-amino-α-[[2-(1,1-dimethylethoxy)-1,1-dimethyl-2-oxoethoxy]imino]-, (α<em>Z</em>)-;4-Thiazoleacetic acid, 2-amino-α-[[2-(1,1-dimethylethoxy)-1,1-dimethyl-2-oxoethoxy]imino]-, (<em>Z</em>)-;(α<em>Z</em>)-2-Amino-α-[[2-(1,1-dimethylethoxy)-1,1-dimethyl-2-oxoethoxy]imino]-4-thiazoleacetic acid;(<em>Z</em>)-(2-Aminothiazol-4-yl)-2-(2-<em>tert</em>-butoxycarbonyl-2-propoxyimino)acetic acid;(<em>Z</em>)-2-(2-Aminothiazol-4-yl)-2-[(1-<em>tert</em>-butoxycarbonyl-1-methylethoxy)imino]acetic acid",
    "duplicated_cas_no": "",
    "SMILES": "C(=N\\OC(C(OC(C)(C)C)=O)(C)C)(\\C(O)=O)/C1=CSC(N)=N1",
    "meta_data": {
        "InChI": "InChI=1S/C13H19N3O5S/c1-12(2,3)20-10(19)13(4,5)21-16-8(9(17)18)7-6-22-11(14)15-7/h6H,1-5H3,(H2,14,15)(H,17,18)/b16-8-",
        "InChIKey": null,
        "Canonical SMILES": "O=C(O)C(=NOC(C(=O)OC(C)(C)C)(C)C)C=1N=C(SC1)N",
        "Molecular Formula": "C<sub>13</sub>H<sub>19</sub>N<sub>3</sub>O<sub>5</sub>S",
        "Molecular Mass": "329.37",
        "Melting Point": "178-179 °C"
    }
}