{
    "cas_no": "20112-79-2",
    "key_name": "2-(Methylthio)-2-imidazoline",
    "cn_name": null,
    "alternate_name": "1<em>H</em>-Imidazole, 4,5-dihydro-2-(methylthio)-;2-Imidazoline, 2-(methylthio)-;4,5-Dihydro-2-(methylthio)-1<em>H</em>-imidazole;2-Methylmercapto-4,5-dihydroimidazole;2-(Methylmercapto)-2-imidazoline;2-(Methylmercapto)-1-imidazoline;2-(Methylthio)-2-imidazoline;2-(Methylthio)-4,5-dihydroimidazole;2-(Methylthio)-4,5-dihydro-1<em>H</em>-imidazole;2-(Methylsulfanyl)-4,5-dihydro-1<em>H</em>-imidazole",
    "duplicated_cas_no": "",
    "SMILES": "S(C)C=1NCCN1",
    "meta_data": {
        "InChI": "InChI=1S/C4H8N2S/c1-7-4-5-2-3-6-4/h2-3H2,1H3,(H,5,6)",
        "InChIKey": null,
        "Canonical SMILES": "N1=C(SC)NCC1",
        "Molecular Formula": "C<sub>4</sub>H<sub>8</sub>N<sub>2</sub>S",
        "Molecular Mass": "116.18",
        "Melting Point": "100-102 °C"
    }
}