{
    "cas_no": "514-07-8",
    "key_name": "Taraxerone",
    "cn_name": null,
    "alternate_name": "27-Norolean-14-en-3-one, 13-methyl-, (13α)-;Taraxerone;<em>D</em>-Friedoolean-14-en-3-one;(13α)-13-Methyl-27-norolean-14-en-3-one;Skimmione;Taraxer-14-en-3-one;Δ<sup>14</sup>-Taraxen-3-one;Taraxeron;3(2<em>H</em>)-Picenone, 1,4,4a,5,6,6a,8,8a,9,10,11,12,12a,12b,13,14,14a,14b-octadecahydro-4,4,6a,8a,11,11,12b,14b-octamethyl-, [4a<em>R</em>-(4aα,6aβ,8aβ,12aβ,12bα,14aα,14bβ)]-;3(2<em>H</em>)-Picenone, 1,4,4a,5,6,6a,8,8a,9,10,11,12,12a,12b,13,14,14a,14b-octadecahydro-4,4,6a,8a,11,11,12b,14b-octamethyl-, (4a<em>R</em>,6a<em>R</em>,8a<em>R</em>,12a<em>R</em>,12b<em>S</em>,14a<em>R</em>,14b<em>R</em>)-;Taraxer-3-one",
    "duplicated_cas_no": "",
    "SMILES": "C[C@]12C=3[C@](C)([C@]4([C@@](C)(CC3)CCC(C)(C)C4)[H])CC[C@@]1([C@]5(C)[C@@](CC2)(C(C)(C)C(=O)CC5)[H])[H]",
    "meta_data": {
        "InChI": "InChI=1S/C30H48O/c1-25(2)17-18-27(5)13-9-21-29(7)14-10-20-26(3,4)24(31)12-16-28(20,6)22(29)11-15-30(21,8)23(27)19-25/h9,20,22-23H,10-19H2,1-8H3/t20-,22+,23+,27-,28-,29-,30+/m0/s1",
        "InChIKey": null,
        "Canonical SMILES": "O=C1CCC2(C)C(CCC3(C4=CCC5(C)CCC(C)(C)CC5C4(C)CCC32)C)C1(C)C",
        "Molecular Formula": "C<sub>30</sub>H<sub>48</sub>O",
        "Molecular Mass": "424.70",
        "Melting Point": "241-243 °C"
    }
}