{
    "cas_no": "1675-46-3",
    "key_name": "10-(3-Chloropropyl)-2-(trifluoromethyl)-10<em>H</em>-phenothiazine",
    "cn_name": "10-(3-氯丙基)-2-(三氟甲基)-10H-吩噻嗪;",
    "alternate_name": "10<em>H</em>-Phenothiazine, 10-(3-chloropropyl)-2-(trifluoromethyl)-;Phenothiazine, 10-(3-chloropropyl)-2-(trifluoromethyl)-;10-(3-Chloropropyl)-2-(trifluoromethyl)-10<em>H</em>-phenothiazine;2-Trifluoromethyl-10-(3-chloropropyl)phenothiazine;10-(3-Chloropropyl)-2-trifluoromethylphenothiazine;γ-(2-Trifluoromethyl-10-phenothiazinyl)propyl chloride;NSC 217918",
    "duplicated_cas_no": "",
    "SMILES": "C(CCCl)N1C=2C(SC=3C1=CC=CC3)=CC=C(C(F)(F)F)C2",
    "meta_data": {
        "InChI": "InChI=1S/C16H13ClF3NS/c17-8-3-9-21-12-4-1-2-5-14(12)22-15-7-6-11(10-13(15)21)16(18,19)20/h1-2,4-7,10H,3,8-9H2",
        "InChIKey": null,
        "Canonical SMILES": "FC(F)(F)C1=CC=C2SC=3C=CC=CC3N(C2=C1)CCCCl",
        "Molecular Formula": "C<sub>16</sub>H<sub>13</sub>ClF<sub>3</sub>NS",
        "Molecular Mass": "343.79",
        "Boiling Point": "170-172 °C @ Press: 0.4 Torr",
        "Melting Point": "72 °C"
    }
}