{
    "cas_no": "42514-50-1",
    "key_name": "3-Amino-3-methyl-1-butanol",
    "cn_name": "3-氨基-3-甲基丁-1-醇;",
    "alternate_name": "1-Butanol, 3-amino-3-methyl-;3-Amino-3-methyl-1-butanol;3-Amino-3-methylbutanol;3-Methyl-3-aminobutanol;3-Amino-3,3-dimethylpropanol;4-Hydroxy-2-methylbutan-2-amine;3-Methyl-3-amino-1-butanol",
    "duplicated_cas_no": "",
    "SMILES": "C(C(C)(C)N)CO",
    "meta_data": {
        "InChI": "InChI=1S/C5H13NO/c1-5(2,6)3-4-7/h7H,3-4,6H2,1-2H3",
        "InChIKey": null,
        "Canonical SMILES": "OCCC(N)(C)C",
        "Molecular Formula": "C<sub>5</sub>H<sub>13</sub>NO",
        "Molecular Mass": "103.16",
        "Boiling Point": "71 °C @ Press: 9 Torr",
        "Density": "0.8380 g/cm³ @ Temp: 20 °C"
    }
}