{
    "cas_no": "131-91-9",
    "key_name": "1-Nitroso-2-naphthol",
    "cn_name": "1-亚硝基-2-萘酚;",
    "alternate_name": "2-Naphthalenol, 1-nitroso-;2-Naphthol, 1-nitroso-;1-Nitroso-2-naphthalenol;α-Nitroso-β-naphthol;1-Nitroso-2-naphthol;1-Nitroso-2-hydroxynaphthalene;2-Hydroxy-1-nitrosonaphthalene;NSC 4151;NSC 677525",
    "duplicated_cas_no": "",
    "SMILES": "N(=O)C=1C2=C(C=CC1O)C=CC=C2",
    "meta_data": {
        "InChI": "InChI=1S/C10H7NO2/c12-9-6-5-7-3-1-2-4-8(7)10(9)11-13/h1-6,12H",
        "InChIKey": null,
        "Canonical SMILES": "O=NC1=C(O)C=CC=2C=CC=CC21",
        "Molecular Formula": "C<sub>10</sub>H<sub>7</sub>NO<sub>2</sub>",
        "Molecular Mass": "173.17",
        "Melting Point": "109.5 °C"
    }
}