{
    "cas_no": "67915-31-5",
    "key_name": "Terconazole",
    "cn_name": "曲康唑;特康唑;1-[4-[[(2R,4S)-2-(2,4-二氯苯基)-2-(1,2,4-三唑-1-基甲基)-1,3-二氧戊环-4-基]甲氧基]苯基];",
    "alternate_name": "Piperazine, 1-[4-[[(2<em>R</em>,4<em>S</em>)-2-(2,4-dichlorophenyl)-2-(1<em>H</em>-1,2,4-triazol-1-ylmethyl)-1,3-dioxolan-4-yl]methoxy]phenyl]-4-(1-methylethyl)-, <em>rel</em>-;Piperazine, 1-[4-[[2-(2,4-dichlorophenyl)-2-(1<em>H</em>-1,2,4-triazol-1-ylmethyl)-1,3-dioxolan-4-yl]methoxy]phenyl]-4-(1-methylethyl)-, <em>cis</em>-;<em>rel</em>-1-[4-[[(2<em>R</em>,4<em>S</em>)-2-(2,4-Dichlorophenyl)-2-(1<em>H</em>-1,2,4-triazol-1-ylmethyl)-1,3-dioxolan-4-yl]methoxy]phenyl]-4-(1-methylethyl)piperazine;Triaconazole;Terconazole;Gyno-Terazol;Terazol;Terazol Cream &amp; Suppositories;R 42470;Fungistat;Tercospor;NSC 331942;(±)-Terconazole;Termayazole",
    "duplicated_cas_no": "85058-79-3",
    "SMILES": "C([C@]1(O[C@@H](COC2=CC=C(C=C2)N3CCN(C(C)C)CC3)CO1)C4=C(Cl)C=C(Cl)C=C4)N5C=NC=N5",
    "meta_data": {
        "InChI": "InChI=1/C26H31Cl2N5O3/c1-19(2)31-9-11-32(12-10-31)21-4-6-22(7-5-21)34-14-23-15-35-26(36-23,16-33-18-29-17-30-33)24-8-3-20(27)13-25(24)28/h3-8,13,17-19,23H,9-12,14-16H2,1-2H3/t23-,26-/s2",
        "InChIKey": null,
        "Canonical SMILES": "ClC1=CC=C(C(Cl)=C1)C2(OCC(O2)COC3=CC=C(C=C3)N4CCN(CC4)C(C)C)CN5N=CN=C5",
        "Molecular Formula": "C<sub>26</sub>H<sub>31</sub>Cl<sub>2</sub>N<sub>5</sub>O<sub>3</sub>",
        "Molecular Mass": "532.46",
        "Melting Point": "126.3 °C"
    }
}