{
    "cas_no": "61085-60-7",
    "key_name": "4-Piperidinecarboxylic acid, 4-(phenylamino)-1-(phenylmethyl)-, methyl ester",
    "cn_name": null,
    "alternate_name": "4-Piperidinecarboxylic acid, 4-(phenylamino)-1-(phenylmethyl)-, methyl ester;1-Benzyl-4-phenylaminopiperidine-4-carboxylic acid methyl ester;Methyl 1-benzyl-4-(phenylamino)piperidine-4-carboxylate;Methyl 4-phenylamino-1-(phenylmethyl)-4-piperidinecarboxylate",
    "duplicated_cas_no": "",
    "SMILES": "N(C1(C(OC)=O)CCN(CC2=CC=CC=C2)CC1)C3=CC=CC=C3",
    "meta_data": {
        "InChI": "InChI=1S/C20H24N2O2/c1-24-19(23)20(21-18-10-6-3-7-11-18)12-14-22(15-13-20)16-17-8-4-2-5-9-17/h2-11,21H,12-16H2,1H3",
        "InChIKey": null,
        "Canonical SMILES": "O=C(OC)C1(NC=2C=CC=CC2)CCN(CC=3C=CC=CC3)CC1",
        "Molecular Formula": "C<sub>20</sub>H<sub>24</sub>N<sub>2</sub>O<sub>2</sub>",
        "Molecular Mass": "324.42",
        "Melting Point": "80-80.5 °C"
    }
}