{
    "cas_no": "56363-84-9",
    "key_name": "2-Chloro-4-hydroxybenzoic acid",
    "cn_name": "2-氯-4-羟基苯甲酸;",
    "alternate_name": "Benzoic acid, 2-chloro-4-hydroxy-;2-Chloro-4-hydroxybenzoic acid;2-Chloro-4-hydroxybenzoic",
    "duplicated_cas_no": "",
    "SMILES": "C(O)(=O)C1=C(Cl)C=C(O)C=C1",
    "meta_data": {
        "InChI": "InChI=1S/C7H5ClO3/c8-6-3-4(9)1-2-5(6)7(10)11/h1-3,9H,(H,10,11)",
        "InChIKey": null,
        "Canonical SMILES": "O=C(O)C1=CC=C(O)C=C1Cl",
        "Molecular Formula": "C<sub>7</sub>H<sub>5</sub>ClO<sub>3</sub>",
        "Molecular Mass": "172.57",
        "Melting Point": "159 °C"
    }
}