{
    "cas_no": "25804-49-3",
    "key_name": "1,1-Dimethylethyl 4-hydroxybenzoate",
    "cn_name": null,
    "alternate_name": "Benzoic acid, 4-hydroxy-, 1,1-dimethylethyl ester;Benzoic acid, <em>p</em>-hydroxy-, <em>tert</em>-butyl ester;1,1-Dimethylethyl 4-hydroxybenzoate;<em>tert</em>-Butyl 4-hydroxybenzoate;<em>p</em>-Hydroxybenzoic acid <em>tert</em>-butyl ester;4-(<em>tert</em>-Butoxycarbonyl)phenol;<em>tert</em>-Butyl <em>p</em>-hydroxybenzoate;4-Hydroxybenzoic acid <em>tert</em>-butyl ester",
    "duplicated_cas_no": "",
    "SMILES": "C(OC(C)(C)C)(=O)C1=CC=C(O)C=C1",
    "meta_data": {
        "InChI": "InChI=1S/C11H14O3/c1-11(2,3)14-10(13)8-4-6-9(12)7-5-8/h4-7,12H,1-3H3",
        "InChIKey": null,
        "Canonical SMILES": "O=C(OC(C)(C)C)C1=CC=C(O)C=C1",
        "Molecular Formula": "C<sub>11</sub>H<sub>14</sub>O<sub>3</sub>",
        "Molecular Mass": "194.23",
        "Melting Point": "130-132 °C"
    }
}