{
    "cas_no": "760-79-2",
    "key_name": "<em>N</em>,<em>N</em>-Dimethylbutanamide",
    "cn_name": "N,N-二甲基丁酰胺;",
    "alternate_name": "Butanamide, <em>N</em>,<em>N</em>-dimethyl-;Butyramide, <em>N</em>,<em>N</em>-dimethyl-;<em>N</em>,<em>N</em>-Dimethylbutanamide;<em>N</em>,<em>N</em>-Dimethylbutyramide;<em>N</em>,<em>N</em>-Dimethyl-<em>n</em>-butyramide;NSC 54115",
    "duplicated_cas_no": "",
    "SMILES": "C(CCC)(N(C)C)=O",
    "meta_data": {
        "InChI": "InChI=1S/C6H13NO/c1-4-5-6(8)7(2)3/h4-5H2,1-3H3",
        "InChIKey": null,
        "Canonical SMILES": "O=C(N(C)C)CCC",
        "Molecular Formula": "C<sub>6</sub>H<sub>13</sub>NO",
        "Molecular Mass": "115.17",
        "Boiling Point": "186 °C",
        "Melting Point": "-40 °C",
        "Density": "0.9064 g/cm³ @ Temp: 25 °C"
    }
}