{
    "cas_no": "5372-81-6",
    "key_name": "1,4-Benzenedicarboxylic acid, 2-amino-, 1,4-dimethyl ester",
    "cn_name": "2-氨基对苯二甲酸二甲酯;",
    "alternate_name": "1,4-Benzenedicarboxylic acid, 2-amino-, 1,4-dimethyl ester;Terephthalic acid, amino-, dimethyl ester;1,4-Benzenedicarboxylic acid, 2-amino-, dimethyl ester;Dimethyl 3-aminoterephthalate;Dimethyl 2-aminoterephthalate;2-Aminoterephthalic acid dimethyl ester;Dimethyl aminoterephthalate;Dimethyl 2-aminobenzene-1,4-dicarboxylate;Dimethyl <em>o</em>-aminoterephthalate;NSC 20561;Dimethyl 2-aminobenzene-1,4-dioate;Methyl 2-amino-4-carbomethoxybenzoate;1,4-Dimethyl 2-aminobenzene-1,4-dicarboxylate",
    "duplicated_cas_no": "",
    "SMILES": "C(OC)(=O)C1=C(N)C=C(C(OC)=O)C=C1",
    "meta_data": {
        "InChI": "InChI=1S/C10H11NO4/c1-14-9(12)6-3-4-7(8(11)5-6)10(13)15-2/h3-5H,11H2,1-2H3",
        "InChIKey": null,
        "Canonical SMILES": "O=C(OC)C1=CC=C(C(=O)OC)C(N)=C1",
        "Molecular Formula": "C<sub>10</sub>H<sub>11</sub>NO<sub>4</sub>",
        "Molecular Mass": "209.20",
        "Melting Point": "279-280 °C"
    }
}