{
    "cas_no": "1912-32-9",
    "key_name": "Butyl methanesulfonate",
    "cn_name": "甲基磺酸丁酯;甲烷磺酸丁酯；甲基磺酸正丁酯；甲烷磺酸正丁酯;",
    "alternate_name": "Methanesulfonic acid, butyl ester;Butyl methanesulfonate;<em>n</em>-Butyl methanesulfonate;Butyl mesylate;NSC 36060;Methanesulfonic acid <em>n</em>-butyl ester",
    "duplicated_cas_no": "",
    "SMILES": "O(S(C)(=O)=O)CCCC",
    "meta_data": {
        "InChI": "InChI=1S/C5H12O3S/c1-3-4-5-8-9(2,6)7/h3-5H2,1-2H3",
        "InChIKey": null,
        "Canonical SMILES": "O=S(=O)(OCCCC)C",
        "Molecular Formula": "C<sub>5</sub>H<sub>12</sub>O<sub>3</sub>S",
        "Molecular Mass": "152.21",
        "Boiling Point": "105-106 °C",
        "Density": "1.1074 g/cm³ @ Temp: 20 °C"
    }
}