{
    "cas_no": "138-38-5",
    "key_name": "4-Ethylbenzenesulfonamide",
    "cn_name": "4-乙基苯磺酰胺;对乙苯磺酰胺;",
    "alternate_name": "Benzenesulfonamide, 4-ethyl-;Benzenesulfonamide, <em>p</em>-ethyl-;4-Ethylbenzenesulfonamide;<em>p</em>-Ethylbenzenesulfonamide;NSC 9909;EBSA",
    "duplicated_cas_no": "",
    "SMILES": "S(N)(=O)(=O)C1=CC=C(CC)C=C1",
    "meta_data": {
        "InChI": "InChI=1S/C8H11NO2S/c1-2-7-3-5-8(6-4-7)12(9,10)11/h3-6H,2H2,1H3,(H2,9,10,11)",
        "InChIKey": null,
        "Canonical SMILES": "O=S(=O)(N)C1=CC=C(C=C1)CC",
        "Molecular Formula": "C<sub>8</sub>H<sub>11</sub>NO<sub>2</sub>S",
        "Molecular Mass": "185.24",
        "Melting Point": "109-110 °C"
    }
}