{
    "cas_no": "1328893-17-9",
    "key_name": "1<em>H</em>-Pyrazole-3-carboxylic acid, 5-bromo-, methyl ester",
    "cn_name": null,
    "alternate_name": "1<em>H</em>-Pyrazole-3-carboxylic acid, 5-bromo-, methyl ester;Methyl 5-bromo-1<em>H</em>-pyrazole-3-carboxylate;5-Bromo-1<em>H</em>-pyrazole-3-carboxylic acid methyl ester",
    "duplicated_cas_no": "2246373-43-1;2750605-00-4",
    "SMILES": "C(OC)(=O)C=1C=C(Br)NN1",
    "meta_data": {
        "InChI": "InChI=1S/C5H5BrN2O2/c1-10-5(9)3-2-4(6)8-7-3/h2H,1H3,(H,7,8)",
        "InChIKey": null,
        "Canonical SMILES": "O=C(OC)C1=NNC(Br)=C1",
        "Molecular Formula": "C<sub>5</sub>H<sub>5</sub>BrN<sub>2</sub>O<sub>2</sub>",
        "Molecular Mass": "205.01",
        "Melting Point": "94-96 °C"
    }
}