{
    "cas_no": "485-65-4",
    "key_name": "Hydrocinchonine",
    "cn_name": "氢化辛可宁;",
    "alternate_name": "Cinchonan-9-ol, 10,11-dihydro-, (9<em>S</em>)-;Hydrocinchonine;(9<em>S</em>)-10,11-Dihydrocinchonan-9-ol;Cinchonifine;Cinchotine;Pseudocinchonine;Dihydrocinchonine;10,11-Dihydrocinchonine;Cinchonifin;Pseudocinchonin;Hydrocinchonin;Cinchotin;(+)-Dihydrocinchonine;(+)-Hydrocinchonine",
    "duplicated_cas_no": "7322-61-4;28645-73-0;1609572-06-6",
    "SMILES": "[C@@H](O)([C@@]1([N@@]2C[C@H](CC)[C@](C1)(CC2)[H])[H])C=3C4=C(N=CC3)C=CC=C4",
    "meta_data": {
        "InChI": "InChI=1S/C19H24N2O/c1-2-13-12-21-10-8-14(13)11-18(21)19(22)16-7-9-20-17-6-4-3-5-15(16)17/h3-7,9,13-14,18-19,22H,2,8,10-12H2,1H3/t13-,14-,18+,19-/m0/s1",
        "InChIKey": null,
        "Canonical SMILES": "OC(C=1C=CN=C2C=CC=CC21)C3N4CCC(C3)C(C4)CC",
        "Molecular Formula": "C<sub>19</sub>H<sub>24</sub>N<sub>2</sub>O",
        "Molecular Mass": "296.41",
        "Melting Point": "268.5 °C"
    }
}