{
    "cas_no": "152628-02-9",
    "key_name": "2-Propyl-4-methyl-6-(1-methylbenzimidazol-2-yl)benzimidazole",
    "cn_name": "2-正丙基-4-甲基-6-(1\"-甲基苯并咪唑-2-基)苯并咪唑;",
    "alternate_name": "2,5′-Bi-1<em>H</em>-benzimidazole, 1,7′-dimethyl-2′-propyl-;1,7′-Dimethyl-2′-propyl-2,5′-bi-1<em>H</em>-benzimidazole;2-Propyl-4-methyl-6-(1-methylbenzimidazol-2-yl)benzimidazole;4-Methyl-6-(1-methylbenzimidazol-2-yl)-2-propylbenzimidazole;1,7′-Dimethyl-2′-propyl-2,5′-bibenzimidazole;2-Propyl-4-methyl-6-(1-methylbenzimidazole-2-yl)benzimidazole;1,7′-Dimethyl-2′-propyl-1<em>H</em>,1′<em>H</em>-2,5′-bibenzo[<em>d</em>]imidazole;2-<em>n</em>-Propyl-4-methyl-6-(1′-methylbenzimidazole-2-yl)benzimidazole",
    "duplicated_cas_no": "",
    "SMILES": "CN1C(=NC=2C1=CC=CC2)C=3C=C4C(=C(C)C3)N=C(CCC)N4",
    "meta_data": {
        "InChI": "InChI=1S/C19H20N4/c1-4-7-17-20-15-11-13(10-12(2)18(15)22-17)19-21-14-8-5-6-9-16(14)23(19)3/h5-6,8-11H,4,7H2,1-3H3,(H,20,22)",
        "InChIKey": null,
        "Canonical SMILES": "N=1C=2C=CC=CC2N(C1C=3C=C4NC(=NC4=C(C3)C)CCC)C",
        "Molecular Formula": "C<sub>19</sub>H<sub>20</sub>N<sub>4</sub>",
        "Molecular Mass": "304.39",
        "Melting Point": "130-135 °C"
    }
}