{
    "cas_no": "24731-73-5",
    "key_name": "<em>N</em>,<em>N</em>′-1,4-Phenylenebis[3-oxobutanamide]",
    "cn_name": "双乙酰乙酰对苯二胺;",
    "alternate_name": "Butanamide, <em>N</em>,<em>N</em>′-1,4-phenylenebis[3-oxo-;Acetoacetamide, <em>N</em>,<em>N</em>′-<em>p</em>-phenylenebis-;<em>N</em>,<em>N</em>′-1,4-Phenylenebis[3-oxobutanamide];1,4-Bis(acetoacetylamino)benzene;1,4-Bis(acetoacetamido)benzene;NSC 87597;N,N′-(1,4-Phenylene)bis(acetoacetamide);3-Oxo-<em>N</em>-[4-(3-oxobutanoylamino)phenyl]butanamide",
    "duplicated_cas_no": "",
    "SMILES": "N(C(CC(C)=O)=O)C1=CC=C(NC(CC(C)=O)=O)C=C1",
    "meta_data": {
        "InChI": "InChI=1S/C14H16N2O4/c1-9(17)7-13(19)15-11-3-5-12(6-4-11)16-14(20)8-10(2)18/h3-6H,7-8H2,1-2H3,(H,15,19)(H,16,20)",
        "InChIKey": null,
        "Canonical SMILES": "O=C(NC1=CC=C(C=C1)NC(=O)CC(=O)C)CC(=O)C",
        "Molecular Formula": "C<sub>14</sub>H<sub>16</sub>N<sub>2</sub>O<sub>4</sub>",
        "Molecular Mass": "276.29",
        "Melting Point": "355 °C (decomp)"
    }
}