{
    "cas_no": "149-91-7",
    "key_name": "Gallic acid",
    "cn_name": "没食子酸;3,4,5-三羟基苯甲酸;",
    "alternate_name": "Benzoic acid, 3,4,5-trihydroxy-;Gallic acid;3,4,5-Trihydroxybenzoic acid;NSC 20103;NSC 674319;3,4,5-Hydroxybenzoic acid;A 1925-04;MeSH ID: D005707",
    "duplicated_cas_no": "",
    "SMILES": "C(O)(=O)C1=CC(O)=C(O)C(O)=C1",
    "meta_data": {
        "InChI": "InChI=1S/C7H6O5/c8-4-1-3(7(11)12)2-5(9)6(4)10/h1-2,8-10H,(H,11,12)",
        "InChIKey": null,
        "Canonical SMILES": "O=C(O)C1=CC(O)=C(O)C(O)=C1",
        "Molecular Formula": "C<sub>7</sub>H<sub>6</sub>O<sub>5</sub>",
        "Molecular Mass": "170.12",
        "Melting Point": "210 °C",
        "Density": "169 g/cm³ @ Temp: 20 °C"
    }
}