{
    "cas_no": "120068-37-3",
    "key_name": "Fipronil",
    "cn_name": "氟虫腈;5-氨基-1-(2,6-二氯-4-三氟甲苯基)-4-三氟甲基亚磺酰基吡唑-3-腈;",
    "alternate_name": "1<em>H</em>-Pyrazole-3-carbonitrile, 5-amino-1-[2,6-dichloro-4-(trifluoromethyl)phenyl]-4-[(trifluoromethyl)sulfinyl]-;5-Amino-1-[2,6-dichloro-4-(trifluoromethyl)phenyl]-4-[(trifluoromethyl)sulfinyl]-1<em>H</em>-pyrazole-3-carbonitrile;Fipronil;Regent;Termidor 80WG;Termidor;5-Amino-1-(2,6-dichloro-4-trifluoromethylphenyl)-3-cyano-4-trifluoromethylsulfinylpyrazole;Frontline Top Spot;Ascend;Blitz;1-[2,6-Dichloro-4-(trifluoromethyl)phenyl]-3-cyano-4-[(trifluoromethyl)sulfinyl]-5-aminopyrazole;Frontline Spray;Frontline Spot-on;Fluocyanobenpyrazole;Maxforce FC;Cosmos;Cosmos (insecticide);Goliath gel;Agenda;TopChoice;Grenade MC;Granedo MC;Maxforce FC Select Roach Killer Bait Gel;Regent TS;1-(2,6-Dichloro-4-trifluoromethylphenyl)-3-cyano-5-amino-4-(trifluoromethylsulfinyl)pyrazole;(±)-Fipronil;Over'n Out;Agenda SC;Regent 250 FS;Formidor L;Chipco Choice;Regent 200 SC;Taj;Eliminall;Standak 250SC;Standak;Regent 0.3G;Prince;Jump 80WG;Regent 800WG;Termidor (insecticide);Albatross (insecticide);Topline;DEVIGENT PLUS;Bakuda;Prince Flowable;Reagent 800 WG;BRD-A 50675702;Chance Profi VDG;Shans Profi VDG",
    "duplicated_cas_no": "53763-08-9",
    "SMILES": "NC=1N(N=C(C#N)C1S(C(F)(F)F)=O)C2=C(Cl)C=C(C(F)(F)F)C=C2Cl",
    "meta_data": {
        "InChI": "InChI=1S/C12H4Cl2F6N4OS/c13-5-1-4(11(15,16)17)2-6(14)8(5)24-10(22)9(7(3-21)23-24)26(25)12(18,19)20/h1-2H,22H2",
        "InChIKey": null,
        "Canonical SMILES": "N#CC1=NN(C(N)=C1S(=O)C(F)(F)F)C2=C(Cl)C=C(C=C2Cl)C(F)(F)F",
        "Molecular Formula": "C<sub>12</sub>H<sub>4</sub>Cl<sub>2</sub>F<sub>6</sub>N<sub>4</sub>OS",
        "Molecular Mass": "437.15",
        "Melting Point": "200-201 °C",
        "Density": "1.477-1.626 g/cm³ @ Temp: 20 °C"
    }
}