{
    "cas_no": "34281-92-0",
    "key_name": "(+)-<em>trans</em>-2-Phenylcyclohexanol",
    "cn_name": "(1S,2R)-反-2-苯基-1-环己醇;(1S,2R)-反-2-苯基-1-环己醇;(1S,2R)-(+)-反式-2-苯基-1-环己醇;",
    "alternate_name": "Cyclohexanol, 2-phenyl-, (1<em>S</em>,2<em>R</em>)-;Cyclohexanol, 2-phenyl-, (1<em>S</em>-<em>trans</em>)-;Cyclohexanol, 2-phenyl-, (1<em>S</em>,2<em>R</em>)-(+)-;(1<em>S</em>,2<em>R</em>)-2-Phenylcyclohexanol;(+)-<em>trans</em>-2-Phenyl-1-cyclohexanol;(1<em>S</em>,2<em>R</em>)-2-Phenyl-1-cyclohexanol;(1<em>S</em>-<em>trans</em>)-2-Phenylcyclohexanol;(+)-<em>trans</em>-2-Phenylcyclohexanol;<em>trans</em>-(1<em>S</em>,2<em>R</em>)-2-Phenylcyclohexanol;(1<em>S</em>,2<em>R</em>)-(+)-<em>trans</em>-2-Phenyl-1-cyclohexanol",
    "duplicated_cas_no": "",
    "SMILES": "O[C@@H]1[C@@H](C2=CC=CC=C2)CCCC1",
    "meta_data": {
        "InChI": "InChI=1S/C12H16O/c13-12-9-5-4-8-11(12)10-6-2-1-3-7-10/h1-3,6-7,11-13H,4-5,8-9H2/t11-,12+/m1/s1",
        "InChIKey": null,
        "Canonical SMILES": "OC1CCCCC1C=2C=CC=CC2",
        "Molecular Formula": "C<sub>12</sub>H<sub>16</sub>O",
        "Molecular Mass": "176.25",
        "Boiling Point": "141-143 °C @ Press: 3 Torr",
        "Melting Point": "63.5-64.5 °C"
    }
}