{
    "cas_no": "2840-28-0",
    "key_name": "3-Amino-4-chlorobenzoic acid",
    "cn_name": "3-氨基-4-氯苯甲酸;",
    "alternate_name": "Benzoic acid, 3-amino-4-chloro-;3-Amino-4-chlorobenzoic acid;4-Chloro-3-aminobenzoic acid;NSC 211572;4-Chloro-5-aminobenzoic acid",
    "duplicated_cas_no": "",
    "SMILES": "C(O)(=O)C1=CC(N)=C(Cl)C=C1",
    "meta_data": {
        "InChI": "InChI=1S/C7H6ClNO2/c8-5-2-1-4(7(10)11)3-6(5)9/h1-3H,9H2,(H,10,11)",
        "InChIKey": null,
        "Canonical SMILES": "O=C(O)C1=CC=C(Cl)C(N)=C1",
        "Molecular Formula": "C<sub>7</sub>H<sub>6</sub>ClNO<sub>2</sub>",
        "Molecular Mass": "171.58",
        "Melting Point": "214 °C"
    }
}