{
    "cas_no": "6329-26-6",
    "key_name": "Carbamic acid, <em>N</em>-(2-chloroethyl)-, ethyl ester",
    "cn_name": null,
    "alternate_name": "Carbamic acid, <em>N</em>-(2-chloroethyl)-, ethyl ester;Carbamic acid, (2-chloroethyl)-, ethyl ester;<em>N</em>-(2-Chloroethyl)urethane;Ethyl <em>N</em>-(2-chloroethyl)carbamate;Ethyl 2-chloroethylcarbamate;<em>N</em>-2-Chloroethyl <em>O</em>-ethyl carbamate;NSC 43421;[2-Chloroethyl]carbamic acid ethyl ester",
    "duplicated_cas_no": "",
    "SMILES": "C(NCCCl)(OCC)=O",
    "meta_data": {
        "InChI": "InChI=1S/C5H10ClNO2/c1-2-9-5(8)7-4-3-6/h2-4H2,1H3,(H,7,8)",
        "InChIKey": null,
        "Canonical SMILES": "O=C(OCC)NCCCl",
        "Molecular Formula": "C<sub>5</sub>H<sub>10</sub>ClNO<sub>2</sub>",
        "Molecular Mass": "151.59",
        "Boiling Point": "128-130 °C @ Press: 13 Torr",
        "Melting Point": "76 °C",
        "Density": "1.156 g/cm³ @ Temp: 25 °C"
    }
}