{
    "cas_no": "6547-53-1",
    "key_name": "4-Benzyloxyphenylacetic acid",
    "cn_name": "4-苄氧基苯乙酸;",
    "alternate_name": "Benzeneacetic acid, 4-(phenylmethoxy)-;Acetic acid, [<em>p</em>-(benzyloxy)phenyl]-;4-(Phenylmethoxy)benzeneacetic acid;4-Benzyloxyphenylacetic acid;<em>p</em>-Benzyloxyphenylacetic acid;2-(4-Benzyloxyphenyl)acetic acid;NSC 134561;2-(4-Phenylmethoxyphenyl)acetic acid",
    "duplicated_cas_no": "",
    "SMILES": "O(CC1=CC=CC=C1)C2=CC=C(CC(O)=O)C=C2",
    "meta_data": {
        "InChI": "InChI=1S/C15H14O3/c16-15(17)10-12-6-8-14(9-7-12)18-11-13-4-2-1-3-5-13/h1-9H,10-11H2,(H,16,17)",
        "InChIKey": null,
        "Canonical SMILES": "O=C(O)CC1=CC=C(OCC=2C=CC=CC2)C=C1",
        "Molecular Formula": "C<sub>15</sub>H<sub>14</sub>O<sub>3</sub>",
        "Molecular Mass": "242.27",
        "Melting Point": "114 °C"
    }
}