{
    "cas_no": "591-48-0",
    "key_name": "3-Methylcyclohexene",
    "cn_name": "3-甲基-1-环己烯;3-甲基-1-环己烯;",
    "alternate_name": "Cyclohexene, 3-methyl-;3-Methylcyclohexene;3-Methyl-1-cyclohexene;(±)-3-Methylcyclohexene;1-Methylcyclohex-2-ene;NSC 72091",
    "duplicated_cas_no": "56688-75-6",
    "SMILES": "CC1CCCC=C1",
    "meta_data": {
        "InChI": "InChI=1S/C7H12/c1-7-5-3-2-4-6-7/h3,5,7H,2,4,6H2,1H3",
        "InChIKey": null,
        "Canonical SMILES": "C1=CC(C)CCC1",
        "Molecular Formula": "C<sub>7</sub>H<sub>12</sub>",
        "Molecular Mass": "96.17",
        "Boiling Point": "103 °C",
        "Density": "0.8009 g/cm³ @ Temp: 20 °C"
    }
}