{
    "cas_no": "7333-67-7",
    "key_name": "Phosphonium, 1,1′-(1,3-propanediyl)bis[1,1,1-triphenyl-, bromide (1:2)",
    "cn_name": "三亚甲基双(三苯基溴化膦);三亚甲基双(三苯基溴化膦);",
    "alternate_name": "Phosphonium, 1,1′-(1,3-propanediyl)bis[1,1,1-triphenyl-, bromide (1:2);Phosphonium, trimethylenebis[triphenyl-, dibromide;Phosphonium, 1,3-propanediylbis[triphenyl-, dibromide;Trimethylenebis(triphenylphosphonium bromide);1,3-Bis(triphenylphosphonium)propane dibromide;Trimethylene-1,3-bis(triphenylphosphonium) dibromide;Trimethylenebis(triphenylphosphonium) dibromide;1,3-Propanediylbis(triphenylphosphonium) dibromide;NSC 84073",
    "duplicated_cas_no": "343825-52-5;250261-45-1",
    "SMILES": "[P+](CCC[P+](C1=CC=CC=C1)(C2=CC=CC=C2)C3=CC=CC=C3)(C4=CC=CC=C4)(C5=CC=CC=C5)C6=CC=CC=C6.[Br-]",
    "meta_data": {
        "InChI": "InChI=1S/C39H36P2.2BrH/c1-7-20-34(21-8-1)40(35-22-9-2-10-23-35,36-24-11-3-12-25-36)32-19-33-41(37-26-13-4-14-27-37,38-28-15-5-16-29-38)39-30-17-6-18-31-39;;/h1-18,20-31H,19,32-33H2;2*1H/q+2;;/p-2",
        "InChIKey": null,
        "Canonical SMILES": "[Br-].C=1C=CC(=CC1)[P+](C=2C=CC=CC2)(C=3C=CC=CC3)CCC[P+](C=4C=CC=CC4)(C=5C=CC=CC5)C=6C=CC=CC6",
        "Molecular Formula": "C<sub>39</sub>H<sub>36</sub>P<sub>2</sub>.2Br",
        "Molecular Mass": "",
        "Melting Point": "334 °C"
    }
}