{
    "cas_no": "139399-67-0",
    "key_name": "3-Bromo-8-quinolinamine",
    "cn_name": null,
    "alternate_name": "8-Quinolinamine, 3-bromo-;3-Bromo-8-quinolinamine;8-Amino-3-bromoquinoline;3-Bromoquinolin-8-amine;(3-Bromoquinolin-8-yl)amine",
    "duplicated_cas_no": "",
    "SMILES": "NC=1C2=C(C=C(Br)C=N2)C=CC1",
    "meta_data": {
        "InChI": "InChI=1S/C9H7BrN2/c10-7-4-6-2-1-3-8(11)9(6)12-5-7/h1-5H,11H2",
        "InChIKey": null,
        "Canonical SMILES": "BrC1=CN=C2C(N)=CC=CC2=C1",
        "Molecular Formula": "C<sub>9</sub>H<sub>7</sub>BrN<sub>2</sub>",
        "Molecular Mass": "223.07",
        "Melting Point": "106-107 °C"
    }
}