{
    "cas_no": "13335-73-4",
    "key_name": "2-(3,4-Dimethylphenoxy)acetic acid",
    "cn_name": "3,4-二甲基苯氧基乙酸;",
    "alternate_name": "Acetic acid, 2-(3,4-dimethylphenoxy)-;Acetic acid, (3,4-xylyloxy)-;Acetic acid, (3,4-dimethylphenoxy)-;2-(3,4-Dimethylphenoxy)acetic acid;(3,4-Dimethylphenoxy)acetic acid;NSC 408600;[(3,4-Dimethylphenyl)oxy]acetic acid;2-[(3,4-Dimethylphenyl)oxy]acetic acid",
    "duplicated_cas_no": "",
    "SMILES": "O(CC(O)=O)C1=CC(C)=C(C)C=C1",
    "meta_data": {
        "InChI": "InChI=1S/C10H12O3/c1-7-3-4-9(5-8(7)2)13-6-10(11)12/h3-5H,6H2,1-2H3,(H,11,12)",
        "InChIKey": null,
        "Canonical SMILES": "O=C(O)COC1=CC=C(C(=C1)C)C",
        "Molecular Formula": "C<sub>10</sub>H<sub>12</sub>O<sub>3</sub>",
        "Molecular Mass": "180.20",
        "Melting Point": "162.5 °C"
    }
}