{
    "cas_no": "7367-88-6",
    "key_name": "Ethyl <em>trans</em>-2-decenoate",
    "cn_name": "反式-2-癸烯酸乙酯;",
    "alternate_name": "2-Decenoic acid, ethyl ester, (2<em>E</em>)-;2-Decenoic acid, ethyl ester, (<em>E</em>)-;Ethyl 2-(<em>E</em>)-decenoate;Ethyl <em>trans</em>-2-decenoate",
    "duplicated_cas_no": "",
    "SMILES": "C(=C/CCCCCCC)\\C(OCC)=O",
    "meta_data": {
        "InChI": "InChI=1S/C12H22O2/c1-3-5-6-7-8-9-10-11-12(13)14-4-2/h10-11H,3-9H2,1-2H3/b11-10+",
        "InChIKey": null,
        "Canonical SMILES": "O=C(OCC)C=CCCCCCCC",
        "Molecular Formula": "C<sub>12</sub>H<sub>22</sub>O<sub>2</sub>",
        "Molecular Mass": "198.30",
        "Boiling Point": "87-88.5 °C @ Press: 2 Torr"
    }
}