{
    "cas_no": "13838-16-9",
    "key_name": "Enflurane",
    "cn_name": null,
    "alternate_name": "Ethane, 2-chloro-1-(difluoromethoxy)-1,1,2-trifluoro-;Ether, 2-chloro-1,1,2-trifluoroethyl difluoromethyl;2-Chloro-1-(difluoromethoxy)-1,1,2-trifluoroethane;Compound 347;Ethrane;Enflurane;Ohio 347;347;2-Chloro-1,1,2-trifluoroethyl difluoromethyl ether;2-Chloro-1,1,2-trifluoro-1-difluoromethoxyethane;R-E 235ca2;(±)-Enflurane;Methylflurether;Alyrane;Anesthetic Compound No. 347;NSC 115944;Efrane;MeSH ID: D004737",
    "duplicated_cas_no": "132998-91-5",
    "SMILES": "C(OC(F)F)(C(Cl)F)(F)F",
    "meta_data": {
        "InChI": "InChI=1S/C3H2ClF5O/c4-1(5)3(8,9)10-2(6)7/h1-2H",
        "InChIKey": null,
        "Canonical SMILES": "FC(F)OC(F)(F)C(F)Cl",
        "Molecular Formula": "C<sub>3</sub>H<sub>2</sub>ClF<sub>5</sub>O",
        "Molecular Mass": "184.49",
        "Boiling Point": "56.5 °C",
        "Density": "1.52 g/cm³"
    }
}