{
    "cas_no": "17094-34-7",
    "key_name": "Ethyl pivaloylacetate",
    "cn_name": "特戊酰基乙酸乙酯;4,4-二甲基-3-氧代戊酸乙酯;",
    "alternate_name": "Pentanoic acid, 4,4-dimethyl-3-oxo-, ethyl ester;Valeric acid, 4,4-dimethyl-3-oxo-, ethyl ester;Ethyl 4,4-dimethyl-3-oxopentanoate;Ethyl pivaloylacetate;Ethyl (2,2-dimethylpropionyl)acetate;Ethyl 3-oxo-4,4-dimethylpentanoate;Ethyl 4,4-dimethyl-3-oxovalerate;4,4-Dimethyl-3-oxopentanoic acid ethyl ester;4,4-Dimethyl-3-oxovaleric acid ethyl ester;Ethyl pivaloylacetoacetate",
    "duplicated_cas_no": "",
    "SMILES": "C(C(C(C)(C)C)=O)C(OCC)=O",
    "meta_data": {
        "InChI": "InChI=1S/C9H16O3/c1-5-12-8(11)6-7(10)9(2,3)4/h5-6H2,1-4H3",
        "InChIKey": null,
        "Canonical SMILES": "O=C(OCC)CC(=O)C(C)(C)C",
        "Molecular Formula": "C<sub>9</sub>H<sub>16</sub>O<sub>3</sub>",
        "Molecular Mass": "172.22",
        "Boiling Point": "83 °C @ Press: 15 Torr"
    }
}