{
    "cas_no": "80-17-1",
    "key_name": "Benzenesulfonyl hydrazide",
    "cn_name": "苯磺酰肼;",
    "alternate_name": "Benzenesulfonic acid, hydrazide;Benzenesulfonyl hydrazide;Phenylsulfohydrazide;Porofor BSH;Benzenesulfonic hydrazide;Genitron BSH;Benzenesulfohydrazide;Phenylsulfonyl hydrazide;Phenylsulfonylhydrazine;ChKhZ 9;Porofor ChKhZ 9;Benzenesulfonylhydrazine;Benzenesulfonohydrazide;Porofor-BSH-Pulver;Celogen BSH;Nitropore OBSH;Hydrazide BSG;<em>N</em>-Benzenesulfonylhydrazide;BSH;BSH (blowing agent);NSC 643;Unicell BSHTM;B 3809-25G",
    "duplicated_cas_no": "",
    "SMILES": "S(NN)(=O)(=O)C1=CC=CC=C1",
    "meta_data": {
        "InChI": "InChI=1S/C6H8N2O2S/c7-8-11(9,10)6-4-2-1-3-5-6/h1-5,8H,7H2",
        "InChIKey": null,
        "Canonical SMILES": "O=S(=O)(NN)C=1C=CC=CC1",
        "Molecular Formula": "C<sub>6</sub>H<sub>8</sub>N<sub>2</sub>O<sub>2</sub>S",
        "Molecular Mass": "172.20",
        "Melting Point": "102 °C"
    }
}