{
    "cas_no": "765-38-8",
    "key_name": "2-Methylpyrrolidine",
    "cn_name": "2-甲基吡咯烷;2-甲基四氢吡咯;",
    "alternate_name": "Pyrrolidine, 2-methyl-;Pyrrolidine, 2-methyl-, (±)-;2-Methylpyrrolidine;α-Methylpyrrolidine;(±)-2-Methylpyrrolidine",
    "duplicated_cas_no": "79171-53-2",
    "SMILES": "CC1CCCN1",
    "meta_data": {
        "InChI": "InChI=1S/C5H11N/c1-5-3-2-4-6-5/h5-6H,2-4H2,1H3",
        "InChIKey": null,
        "Canonical SMILES": "N1CCCC1C",
        "Molecular Formula": "C<sub>5</sub>H<sub>11</sub>N",
        "Molecular Mass": "85.15",
        "Boiling Point": "100 °C @ Press: 768 Torr",
        "Density": "0.8307 g/cm³ @ Temp: 20 °C"
    }
}