{
    "cas_no": "7647-17-8",
    "key_name": "Cesium chloride",
    "cn_name": "氯化铯;",
    "alternate_name": "Cesium chloride (CsCl);Cesium monochloride;Cesium chloride;NSC 15198",
    "duplicated_cas_no": "12591-09-2;59217-67-3;158152-49-9;186348-98-1",
    "SMILES": "Cl[Cs]",
    "meta_data": {
        "InChI": "InChI=1S/ClH.Cs/h1H;/q;+1/p-1",
        "InChIKey": null,
        "Canonical SMILES": "Cl[Cs]",
        "Molecular Formula": "ClCs",
        "Molecular Mass": "",
        "Melting Point": "646 °C",
        "Density": "3.988 g/cm³"
    }
}