{
    "cas_no": "13031-76-0",
    "key_name": "3-Hydroxysulfolane",
    "cn_name": null,
    "alternate_name": "Thiophene-3-ol, tetrahydro-, 1,1-dioxide;Sulfolan-3-ol;3-Hydroxysulfolane;3-Hydroxythiolane 1,1-dioxide;NSC 147314;1,1-Dioxothiolan-3-ol;3-Hydroxy-1λ6-thiolane-1,1-dione;3-Hydroxytetrahydro-1<em>H</em>-1λ6-thiophene-1,1-dione",
    "duplicated_cas_no": "",
    "SMILES": "O=S1(=O)CC(O)CC1",
    "meta_data": {
        "InChI": "InChI=1S/C4H8O3S/c5-4-1-2-8(6,7)3-4/h4-5H,1-3H2",
        "InChIKey": null,
        "Canonical SMILES": "O=S1(=O)CCC(O)C1",
        "Molecular Formula": "C<sub>4</sub>H<sub>8</sub>O<sub>3</sub>S",
        "Molecular Mass": "136.17",
        "Boiling Point": "140-144 °C",
        "Melting Point": "35 °C"
    }
}