{
    "cas_no": "85-01-8",
    "key_name": "Phenanthrene",
    "cn_name": "菲;",
    "alternate_name": "Phenanthrene;Ravatite;[3]Helicene;NSC 26256",
    "duplicated_cas_no": "",
    "SMILES": "C12=C3C(=CC=C1C=CC=C2)C=CC=C3",
    "meta_data": {
        "InChI": "InChI=1S/C14H10/c1-3-7-13-11(5-1)9-10-12-6-2-4-8-14(12)13/h1-10H",
        "InChIKey": null,
        "Canonical SMILES": "C=1C=CC2=C(C1)C=CC=3C=CC=CC32",
        "Molecular Formula": "C<sub>14</sub>H<sub>10</sub>",
        "Molecular Mass": "178.23",
        "Boiling Point": "340 °C",
        "Melting Point": "101 °C",
        "Density": "0.9800 g/cm³ @ Temp: 4 °C"
    }
}