{
    "cas_no": "615-76-9",
    "key_name": "6-Aza-2-thiothymine",
    "cn_name": "6-氮杂-2-硫代胸腺嘧啶;2-硫代-6-氮胸腺嘧啶;3,4-二氢-6-甲基-3-硫酮基-1,2,4-三嗪-5(2H)-酮;",
    "alternate_name": "1,2,4-Triazin-5(2<em>H</em>)-one, 3,4-dihydro-6-methyl-3-thioxo-;<em>as</em>-Triazine-3,5(2<em>H</em>,4<em>H</em>)-dione, 6-methyl-3-thio-;<em>as</em>-Triazin-5-ol, 3-mercapto-6-methyl-;3,4-Dihydro-6-methyl-3-thioxo-1,2,4-triazin-5(2<em>H</em>)-one;5-Methyl-2-thio-6-azauracil;2-Thio-6-azathymine;3-Mercapto-5-hydroxy-6-methyl-1,2,4-triazine;6-Aza-2-thiothymine;NSC 102906;NSC 1609;NSC 38618;3-Mercapto-6-methyl-1,2,4-triazin-5-ol;3-Mercapto-6-methyl-1,2,4-triazin-5(4<em>H</em>)-one",
    "duplicated_cas_no": "452-87-9;7338-83-2",
    "SMILES": "O=C1C(C)=NNC(=S)N1",
    "meta_data": {
        "InChI": "InChI=1S/C4H5N3OS/c1-2-3(8)5-4(9)7-6-2/h1H3,(H2,5,7,8,9)",
        "InChIKey": null,
        "Canonical SMILES": "O=C1NC(=S)NN=C1C",
        "Molecular Formula": "C<sub>4</sub>H<sub>5</sub>N<sub>3</sub>OS",
        "Molecular Mass": "143.17",
        "Melting Point": "218-219 °C"
    }
}