{
    "cas_no": "375-73-5",
    "key_name": "Perfluorobutanesulfonic acid",
    "cn_name": null,
    "alternate_name": "1-Butanesulfonic acid, 1,1,2,2,3,3,4,4,4-nonafluoro-;1-Butanesulfonic acid, nonafluoro-;1,1,2,2,3,3,4,4,4-Nonafluoro-1-butanesulfonic acid;Perfluorobutanesulfonic acid;Nonafluorobutanesulfonic acid;Nonafluoro-1-butanesulfonic acid;1-Perfluorobutanesulfonic acid;Eftop FBSA;PFBS;<em>n</em>-Nonafluorobutanesulfonic acid;Nonafluorobutan-1-sulfonic acid",
    "duplicated_cas_no": "59933-66-3;749861-23-2",
    "SMILES": "C(C(C(F)(F)F)(F)F)(C(S(=O)(=O)O)(F)F)(F)F",
    "meta_data": {
        "InChI": "InChI=1S/C4HF9O3S/c5-1(6,3(9,10)11)2(7,8)4(12,13)17(14,15)16/h(H,14,15,16)",
        "InChIKey": null,
        "Canonical SMILES": "O=S(=O)(O)C(F)(F)C(F)(F)C(F)(F)C(F)(F)F",
        "Molecular Formula": "C<sub>4</sub>HF<sub>9</sub>O<sub>3</sub>S",
        "Molecular Mass": "300.10",
        "Boiling Point": "211 °C"
    }
}