{
    "cas_no": "24340-76-9",
    "key_name": "5-Amino-3-methylisothiazole",
    "cn_name": null,
    "alternate_name": "5-Isothiazolamine, 3-methyl-;Isothiazole, 5-amino-3-methyl-;3-Methyl-5-isothiazolamine;5-Amino-3-methylisothiazole;3-Methyl-5-isothiazolylamine;5-Amino-2-methylisothiazole;3-Methyl-5-aminoisothiazole;3-Methylisothiazol-5-amine;3-Methyl-1,2-thiazol-5-amine",
    "duplicated_cas_no": "461030-80-8",
    "SMILES": "CC=1C=C(N)SN1",
    "meta_data": {
        "InChI": "InChI=1S/C4H6N2S/c1-3-2-4(5)7-6-3/h2H,5H2,1H3",
        "InChIKey": null,
        "Canonical SMILES": "N=1SC(N)=CC1C",
        "Molecular Formula": "C<sub>4</sub>H<sub>6</sub>N<sub>2</sub>S",
        "Molecular Mass": "114.17",
        "Boiling Point": "190-192 °C @ Press: 0.1 Torr",
        "Melting Point": "52-53 °C",
        "Density": "1.66 g/cm³"
    }
}