{
    "cas_no": "153436-54-5",
    "key_name": "4-(3-Bromophenylamino)-6,7-dimethoxyquinazoline",
    "cn_name": null,
    "alternate_name": "4-Quinazolinamine, <em>N</em>-(3-bromophenyl)-6,7-dimethoxy-;<em>N</em>-(3-Bromophenyl)-6,7-dimethoxy-4-quinazolinamine;PD 153035;4-(3-Bromophenylamino)-6,7-dimethoxyquinazoline;WHI-P 79;AG 1517;SU 5271;4-(3-Bromophenylamino)-6,7-bis(methoxy)quinazoline;NSC 669364;(3-Bromophenyl)(6,7-dimethoxyquinazolin-4-yl)amine;GI 230329A;AG1571;AG 1571",
    "duplicated_cas_no": "430475-82-4;197252-54-3",
    "SMILES": "N(C=1C2=C(C=C(OC)C(OC)=C2)N=CN1)C3=CC(Br)=CC=C3",
    "meta_data": {
        "InChI": "InChI=1S/C16H14BrN3O2/c1-21-14-7-12-13(8-15(14)22-2)18-9-19-16(12)20-11-5-3-4-10(17)6-11/h3-9H,1-2H3,(H,18,19,20)",
        "InChIKey": null,
        "Canonical SMILES": "BrC1=CC=CC(=C1)NC=2N=CN=C3C=C(OC)C(OC)=CC32",
        "Molecular Formula": "C<sub>16</sub>H<sub>14</sub>BrN<sub>3</sub>O<sub>2</sub>",
        "Molecular Mass": "360.21",
        "Melting Point": "189-190 °C"
    }
}