{
    "cas_no": "7661-33-8",
    "key_name": "1-(4-Chlorophenyl)-2-pyrrolidinone",
    "cn_name": "1-(4-氯苯基)-2-吡咯烷酮;1-(4-氯苯基)-2-吡咯烷酮;",
    "alternate_name": "2-Pyrrolidinone, 1-(4-chlorophenyl)-;2-Pyrrolidinone, 1-(<em>p</em>-chlorophenyl)-;1-(4-Chlorophenyl)-2-pyrrolidinone",
    "duplicated_cas_no": "",
    "SMILES": "O=C1N(CCC1)C2=CC=C(Cl)C=C2",
    "meta_data": {
        "InChI": "InChI=1S/C10H10ClNO/c11-8-3-5-9(6-4-8)12-7-1-2-10(12)13/h3-6H,1-2,7H2",
        "InChIKey": null,
        "Canonical SMILES": "O=C1N(C2=CC=C(Cl)C=C2)CCC1",
        "Molecular Formula": "C<sub>10</sub>H<sub>10</sub>ClNO",
        "Molecular Mass": "195.65",
        "Melting Point": "95-97 °C"
    }
}