{
    "cas_no": "3710-31-4",
    "key_name": "1,2-Heptanediol",
    "cn_name": "1,2-庚二醇;1,2-二羟基庚;",
    "alternate_name": "1,2-Heptanediol;(±)-1,2-Heptanediol",
    "duplicated_cas_no": "82571-11-7",
    "SMILES": "C(CCCCC)(CO)O",
    "meta_data": {
        "InChI": "InChI=1S/C7H16O2/c1-2-3-4-5-7(9)6-8/h7-9H,2-6H2,1H3",
        "InChIKey": null,
        "Canonical SMILES": "OCC(O)CCCCC",
        "Molecular Formula": "C<sub>7</sub>H<sub>16</sub>O<sub>2</sub>",
        "Molecular Mass": "132.20",
        "Boiling Point": "90 °C"
    }
}