{
    "cas_no": "765-03-7",
    "key_name": "1-Dodecyne",
    "cn_name": "1-十二炔;",
    "alternate_name": "1-Dodecyne;Decylacetylene;<em>n</em>-Decylacetylene",
    "duplicated_cas_no": "",
    "SMILES": "C(CCCCC#C)CCCCC",
    "meta_data": {
        "InChI": "InChI=1S/C12H22/c1-3-5-7-9-11-12-10-8-6-4-2/h1H,4-12H2,2H3",
        "InChIKey": null,
        "Canonical SMILES": "C#CCCCCCCCCCC",
        "Molecular Formula": "C<sub>12</sub>H<sub>22</sub>",
        "Molecular Mass": "166.30",
        "Boiling Point": "215 °C",
        "Melting Point": "-19 °C"
    }
}