{
    "cas_no": "21635-88-1",
    "key_name": "3-Oxetanamine",
    "cn_name": null,
    "alternate_name": "3-Oxetanamine;3-Aminooxetane;(Oxetan-3-yl)amine;Oxetan-3-amine",
    "duplicated_cas_no": "",
    "SMILES": "NC1COC1",
    "meta_data": {
        "InChI": "InChI=1S/C3H7NO/c4-3-1-5-2-3/h3H,1-2,4H2",
        "InChIKey": null,
        "Canonical SMILES": "O1CC(N)C1",
        "Molecular Formula": "C<sub>3</sub>H<sub>7</sub>NO",
        "Molecular Mass": "73.09",
        "Boiling Point": "50-82 °C @ Press: 60-70 Torr"
    }
}