{
    "cas_no": "52301-88-9",
    "key_name": "2-Chloro-4-nitrobenzenemethanol",
    "cn_name": null,
    "alternate_name": "Benzenemethanol, 2-chloro-4-nitro-;Benzyl alcohol, 2-chloro-4-nitro-;2-Chloro-4-nitrobenzenemethanol;<em>p</em>-Nitro-6-chlorobenzyl alcohol;2-Chloro-4-nitrobenzyl alcohol;(2-Chloro-4-nitrophenyl)methanol",
    "duplicated_cas_no": "",
    "SMILES": "N(=O)(=O)C1=CC(Cl)=C(CO)C=C1",
    "meta_data": {
        "InChI": "InChI=1S/C7H6ClNO3/c8-7-3-6(9(11)12)2-1-5(7)4-10/h1-3,10H,4H2",
        "InChIKey": null,
        "Canonical SMILES": "O=N(=O)C1=CC=C(C(Cl)=C1)CO",
        "Molecular Formula": "C<sub>7</sub>H<sub>6</sub>ClNO<sub>3</sub>",
        "Molecular Mass": "187.58",
        "Melting Point": "83 °C"
    }
}