{
    "cas_no": "17639-93-9",
    "key_name": "Methyl 2-chloropropionate",
    "cn_name": "2-氯丙酸甲酯;",
    "alternate_name": "Propanoic acid, 2-chloro-, methyl ester;Propionic acid, 2-chloro-, methyl ester;Methyl α-chloropropionate;Methyl 2-chloropropionate;2-Chloropropionic acid methyl ester;α-Chloropropionic acid methyl ester;Methyl 2-chloropropanoate;2-Chloropropanoic acid methyl ester;Methyl α-chloropropanoate;Methyl (±)-2-chloropropionate;Methyl <span class=\"text-smallcaps\">D</smallcap><smallcap>L</span>-α-chloropropionate;(±)-Methyl α-chloropropionate;(±)-2-Chloropropionic acid methyl ester;(±)-Methyl 2-chloropropanoate;NSC 70983",
    "duplicated_cas_no": "40705-03-1",
    "SMILES": "C(C(C)Cl)(OC)=O",
    "meta_data": {
        "InChI": "InChI=1S/C4H7ClO2/c1-3(5)4(6)7-2/h3H,1-2H3",
        "InChIKey": null,
        "Canonical SMILES": "O=C(OC)C(Cl)C",
        "Molecular Formula": "C<sub>4</sub>H<sub>7</sub>ClO<sub>2</sub>",
        "Molecular Mass": "122.55",
        "Boiling Point": "132.5 °C",
        "Density": "1.134 g/cm³ @ Temp: 20 °C"
    }
}