{
    "cas_no": "2185-03-7",
    "key_name": "2(3<em>H</em>)-Furanone, 3-aminodihydro-, hydrochloride (1:1), (3<em>S</em>)-",
    "cn_name": "L-高丝氨酸内酯盐酸盐;",
    "alternate_name": "2(3<em>H</em>)-Furanone, 3-aminodihydro-, hydrochloride (1:1), (3<em>S</em>)-;2(3<em>H</em>)-Furanone, 3-aminodihydro-, hydrochloride, (<em>S</em>)-;2(3<em>H</em>)-Furanone, 3-aminodihydro-, hydrochloride, (3<em>S</em>)-;<span class=\"text-smallcaps\">L</span>-Homoserine lactone hydrochloride;(<em>S</em>)-Homoserine lactone hydrochloride;(3<em>S</em>)-3-Aminodihydro-2(3<em>H</em>)-furanone hydrochloride;(<em>S</em>)-3-Aminodihydrofuran-2(3<em>H</em>)-one hydrochloride",
    "duplicated_cas_no": "",
    "SMILES": "N[C@@H]1C(=O)OCC1.Cl",
    "meta_data": {
        "InChI": "InChI=1S/C4H7NO2.ClH/c5-3-1-2-7-4(3)6;/h3H,1-2,5H2;1H/t3-;/m0./s1",
        "InChIKey": null,
        "Canonical SMILES": "Cl.O=C1OCCC1N",
        "Molecular Formula": "C<sub>4</sub>H<sub>7</sub>NO<sub>2</sub>.ClH",
        "Molecular Mass": "",
        "Melting Point": "219 °C"
    }
}