{
    "cas_no": "30030-25-2",
    "key_name": "<em>ar</em>-Vinylbenzyl chloride",
    "cn_name": null,
    "alternate_name": "Benzene, (chloromethyl)ethenyl-;Toluene, α-chlorovinyl-;Styrene, <em>ar</em>-(chloromethyl)-;(Chloromethyl)ethenylbenzene;(Chloromethyl)styrene;<em>ar</em>-Vinylbenzyl chloride;<em>ar</em>-(Chloromethyl)styrene;CMS-AM;CMS-P",
    "duplicated_cas_no": "26446-61-7;29731-85-9;77017-90-4",
    "SMILES": "",
    "meta_data": {
        "InChI": "",
        "InChIKey": null,
        "Canonical SMILES": "",
        "Molecular Formula": "C<sub>9</sub>H<sub>9</sub>Cl",
        "Molecular Mass": "",
        "Boiling Point": "114-115 °C @ Press: 13 Torr"
    }
}