{
    "cas_no": "1192-52-5",
    "key_name": "4,5-Dichloro-1,2-dithiol-3-one",
    "cn_name": "二氯-1,2-二硫环戊烯酮;4,5-二氯-3H-1,2-二硫环戊-4-烯-3-酮;DDCP;",
    "alternate_name": "3<em>H</em>-1,2-Dithiol-3-one, 4,5-dichloro-;1,2-Dithiol-3-one, dichloro-;4,5-Dichloro-3<em>H</em>-1,2-dithiol-3-one;4,5-Dichloro-1,2-dithiacyclopentenone;4,5-Dichloro-1,2-dithiol-3-one;HR 45;NSC 135976;Dithiol;Daracide 7816;RYH 86;RYH 86Ex;Daracide 816-12;Daracide 7802;Microban 86",
    "duplicated_cas_no": "119791-59-2;141788-24-1;79203-63-7;171758-57-9",
    "SMILES": "ClC1=C(Cl)SSC1=O",
    "meta_data": {
        "InChI": "InChI=1S/C3Cl2OS2/c4-1-2(5)7-8-3(1)6",
        "InChIKey": null,
        "Canonical SMILES": "O=C1SSC(Cl)=C1Cl",
        "Molecular Formula": "C<sub>3</sub>Cl<sub>2</sub>OS<sub>2</sub>",
        "Molecular Mass": "187.07",
        "Boiling Point": "125 °C @ Press: 11 Torr",
        "Melting Point": "61 °C"
    }
}