{
    "cas_no": "50687-62-2",
    "key_name": "Benzoic acid, 4-hydroxy-, 4-methoxyphenyl ester",
    "cn_name": "4-甲氧苯基(4-羟基苯甲酸)酯;",
    "alternate_name": "Benzoic acid, 4-hydroxy-, 4-methoxyphenyl ester;4-Methoxyphenyl 4-hydroxybenzoate",
    "duplicated_cas_no": "",
    "SMILES": "C(OC1=CC=C(OC)C=C1)(=O)C2=CC=C(O)C=C2",
    "meta_data": {
        "InChI": "InChI=1S/C14H12O4/c1-17-12-6-8-13(9-7-12)18-14(16)10-2-4-11(15)5-3-10/h2-9,15H,1H3",
        "InChIKey": null,
        "Canonical SMILES": "O=C(OC1=CC=C(OC)C=C1)C2=CC=C(O)C=C2",
        "Molecular Formula": "C<sub>14</sub>H<sub>12</sub>O<sub>4</sub>",
        "Molecular Mass": "244.24",
        "Melting Point": "191-192 °C"
    }
}