{
    "cas_no": "10339-55-6",
    "key_name": "Ethyl linalool",
    "cn_name": null,
    "alternate_name": "1,6-Nonadien-3-ol, 3,7-dimethyl-;3,7-Dimethyl-1,6-nonadien-3-ol;Methyllinalool;Ethyl linalool",
    "duplicated_cas_no": "",
    "SMILES": "C(CCC=C(CC)C)(C=C)(C)O",
    "meta_data": {
        "InChI": "InChI=1S/C11H20O/c1-5-10(3)8-7-9-11(4,12)6-2/h6,8,12H,2,5,7,9H2,1,3-4H3",
        "InChIKey": null,
        "Canonical SMILES": "OC(C=C)(C)CCC=C(C)CC",
        "Molecular Formula": "C<sub>11</sub>H<sub>20</sub>O",
        "Molecular Mass": "168.28",
        "Boiling Point": "132 °C @ Press: 86 Torr"
    }
}