{
    "cas_no": "496-11-7",
    "key_name": "Indane",
    "cn_name": "茚满;二氢茚;2,3-二氢茚;",
    "alternate_name": "1<em>H</em>-Indene, 2,3-dihydro-;Indan;2,3-Dihydro-1<em>H</em>-indene;2,3-Dihydroindene;Hydrindene;1,2-Hydrindene;Hydrindonaphthene;Indane;Benzocyclopentane;NSC 5292",
    "duplicated_cas_no": "",
    "SMILES": "C1=2C(CCC1)=CC=CC2",
    "meta_data": {
        "InChI": "InChI=1S/C9H10/c1-2-5-9-7-3-6-8(9)4-1/h1-2,4-5H,3,6-7H2",
        "InChIKey": null,
        "Canonical SMILES": "C=1C=CC2=C(C1)CCC2",
        "Molecular Formula": "C<sub>9</sub>H<sub>10</sub>",
        "Molecular Mass": "118.18",
        "Boiling Point": "177.9 °C",
        "Melting Point": "-51.4 °C",
        "Density": "0.9645 g/cm³ @ Temp: 20 °C"
    }
}