{
    "cas_no": "54321-79-8",
    "key_name": "4-Amino-3,5-dinitrobenzamide",
    "cn_name": null,
    "alternate_name": "Benzamide, 4-amino-3,5-dinitro-;4-Amino-3,5-dinitrobenzamide;NSC 155951",
    "duplicated_cas_no": "",
    "SMILES": "N(=O)(=O)C1=C(N)C(N(=O)=O)=CC(C(N)=O)=C1",
    "meta_data": {
        "InChI": "InChI=1S/C7H6N4O5/c8-6-4(10(13)14)1-3(7(9)12)2-5(6)11(15)16/h1-2H,8H2,(H2,9,12)",
        "InChIKey": null,
        "Canonical SMILES": "O=C(N)C=1C=C(C(N)=C(C1)N(=O)=O)N(=O)=O",
        "Molecular Formula": "C<sub>7</sub>H<sub>6</sub>N<sub>4</sub>O<sub>5</sub>",
        "Molecular Mass": "226.15",
        "Melting Point": "252 °C"
    }
}