{
    "cas_no": "2110-78-3",
    "key_name": "Methyl 2-hydroxyisobutyrate",
    "cn_name": "2-羟基异丁酸甲酯;",
    "alternate_name": "Propanoic acid, 2-hydroxy-2-methyl-, methyl ester;Lactic acid, 2-methyl-, methyl ester;Methyl α-hydroxyisobutyrate;Methyl 2-methyllactate;Methyl 2-hydroxy-2-methylpropionate;Methyl 2-hydroxyisobutyrate;α-Hydroxyisobutyric acid methyl ester;Methyl 2-methyl-2-hydroxypropionate;Methyl 2-hydroxy-2-methylpropanoate;2-Hydroxyisobutyric acid methyl ester;NSC 7305;NSC 9381;2-Hydroxy-2-methylpropionic acid methyl ester;Methyl 2-hydroxyisobutanoate",
    "duplicated_cas_no": "",
    "SMILES": "C(C(C)(C)O)(OC)=O",
    "meta_data": {
        "InChI": "InChI=1S/C5H10O3/c1-5(2,7)4(6)8-3/h7H,1-3H3",
        "InChIKey": null,
        "Canonical SMILES": "O=C(OC)C(O)(C)C",
        "Molecular Formula": "C<sub>5</sub>H<sub>10</sub>O<sub>3</sub>",
        "Molecular Mass": "118.13",
        "Boiling Point": "137 °C"
    }
}