{
    "cas_no": "35216-11-6",
    "key_name": "7-Tetradecyne",
    "cn_name": "7-十四炔;",
    "alternate_name": "7-Tetradecyne",
    "duplicated_cas_no": "",
    "SMILES": "C(#CCCCCCC)CCCCCC",
    "meta_data": {
        "InChI": "InChI=1S/C14H26/c1-3-5-7-9-11-13-14-12-10-8-6-4-2/h3-12H2,1-2H3",
        "InChIKey": null,
        "Canonical SMILES": "C(#CCCCCCC)CCCCCC",
        "Molecular Formula": "C<sub>14</sub>H<sub>26</sub>",
        "Molecular Mass": "194.36",
        "Boiling Point": "124 °C @ Press: 15 Torr",
        "Density": "0.7991 g/cm³ @ Temp: 25 °C"
    }
}