{
    "cas_no": "17308-02-0",
    "key_name": "Pregn-4-ene-3,20-dione, 17-(acetyloxy)-, (17α)-",
    "cn_name": "17-羟基孕甾-4-烯-3,20-二酮-17-醋酸酯;",
    "alternate_name": "Pregn-4-ene-3,20-dione, 17-(acetyloxy)-, (17α)-;17α-Pregn-4-ene-3,20-dione, 17-hydroxy-, acetate;17-Acetoxyisopregn-4-ene-3,20-dione",
    "duplicated_cas_no": "",
    "SMILES": "O(C(C)=O)[C@]1(C(C)=O)[C@]2(C)[C@@](CC1)([C@]3([C@](CC2)([C@]4(C)C(CC3)=CC(=O)CC4)[H])[H])[H]",
    "meta_data": {
        "InChI": "InChI=1S/C23H32O4/c1-14(24)23(27-15(2)25)12-9-20-18-6-5-16-13-17(26)7-10-21(16,3)19(18)8-11-22(20,23)4/h13,18-20H,5-12H2,1-4H3/t18-,19+,20+,21+,22+,23-/m1/s1",
        "InChIKey": null,
        "Canonical SMILES": "O=C(OC1(C(=O)C)CCC2C3CCC4=CC(=O)CCC4(C)C3CCC21C)C",
        "Molecular Formula": "C<sub>23</sub>H<sub>32</sub>O<sub>4</sub>",
        "Molecular Mass": "372.50",
        "Melting Point": "198 °C"
    }
}