{
    "cas_no": "9003-28-5",
    "key_name": "Poly-1-butene",
    "cn_name": null,
    "alternate_name": "1-Butene, homopolymer;1-Butene, polymer;Poly-1-butene;Poly-α-butylene;Mobil PB 103;α-Butylene polymer;PB 103 (polymer);PB 103;PB 001;PB 003;PB 004;PB 630;Polybutene-1;PB 1200;Witron 1200B;Nitron 100;Poly-α-butene;Witron 6400;WBS 139;PB 1600SA;PB 1710SA;PB 200;M 0400;KHT 712;Duraflex 0110;Duraflex DP 1520;Duraflex DP 1560;MO 400;Witron M 4101;LV 10;Polybutene;Duraflex 8410;Parapol 2200;DP 0110;Duraflex WBS 608;M 8340;WBS 085;P 1404C;M 8310;Shell 0200;MO 200;M 0200;M 0200 (polyolefin);P 4000;Beaulon M 2181;Beaulon M 3080;M 3080;M 2181;BR 200S;Shell DP 0300;Duraflex DP 0300;Witron 4101;Beaulon M 7000;Beaulon M 3110;Beaulon P 5050;Shell 8430;Beaulon P 4000;M 0800;Duraflex DP 0200;DP 1560;L 100 (polybutene);L 100;PB 0200;Tafmer BL 3080;Tafmer M 3080;Beaulon P 5040B;Tafmer BL 2000;BL 7000;PB 015;PB 3;PB 5;PB 3 (polyolefin);PB 5 (polyolefin);Beaulon BL 4000;Beaulon BL 7000;Neopeace;Neopeace F 101;DB 8310;1600SA;BL 3370;Tafmer P 7000;Tafmer BL 7000;Beaulon P 5050N;Emawet 30E;Emawet 10E;P 5050NK;PB 1600AM;PB 1;Polybutene PB 0110M;Poly B 0300M;DPO 401M;Tafmer BL-P 5000;PBDP 9217;Polybutene 3SH;PB 2200;PB 2700;Ylem PB 1;KTAR 05;Emawet 30H;KT-KTAR 05;PB 1600M;PB 10850M;PB 1DP9217M;PB 1DP8911M;Typlex 3050;Mitsui 0850M;DP 9217M;Nissan Polybutene 0N;085M;Indopol 1-14;PB 0100;Emawet 200E;PB 800M;Basell 4237;BL 4000;PB 2161;9217M;0150M;Poly(1-Butylene);Toppyl RC 3000;PB-KTAR 05;PB 300;P 5050N;PB 4260;1050M;Beaulon 5050N;R 509;Indopol PB-L 6;RC 3000;Emawet 3N;GD 025;GD 090;SP 2103C;PB 4235;MR 07;M 4142;PB 0801M;Beaulon PB 5250N;PB 4235-1;PB-A 9081;PB 5050;P 5250 (polyolefin);P 5250;Emawet ON;Emawet O15N;Koattro PB 0801M;KTR 05;D 600 (polyolefin);D 600;Toppyl PB 0110M;PBTYPLEX 2050;Koattro 0801M;Akoalit PB 4267 Grey",
    "duplicated_cas_no": "25038-50-0;172345-47-0;197852-64-5;2092525-54-5",
    "SMILES": "C(C=C)C",
    "meta_data": {
        "InChI": "InChI=1S/C4H8/c1-3-4-2/h3H,1,4H2,2H3",
        "InChIKey": null,
        "Canonical SMILES": "C=CCC",
        "Molecular Formula": "(C<sub>4</sub>H<sub>8</sub>)<sub>x</sub>",
        "Molecular Mass": "",
        "Melting Point": "104 °C",
        "Density": "0.881 g/cm³"
    }
}