{
    "cas_no": "53-86-1",
    "key_name": "Indomethacin",
    "cn_name": "吲哚美辛;1-(4-氯苯甲酰基)-5-甲氧基-2-甲基-1H-吲哚-3-乙酸;",
    "alternate_name": "1<em>H</em>-Indole-3-acetic acid, 1-(4-chlorobenzoyl)-5-methoxy-2-methyl-;Indole-3-acetic acid, 1-(<em>p</em>-chlorobenzoyl)-5-methoxy-2-methyl-;1-(4-Chlorobenzoyl)-5-methoxy-2-methyl-1<em>H</em>-indole-3-acetic acid;Amuno;1-(<em>p</em>-Chlorobenzoyl)-5-methoxy-2-methylindole-3-acetic acid;1-(<em>p</em>-Chlorobenzoyl)-2-methyl-5-methoxyindole-3-acetic acid;α-[1-(<em>p</em>-Chlorobenzoyl)-2-methyl-5-methoxy-3-indolyl]acetic acid;Indocid;Indocin;Indometacin;Indomethacin;Indomethacine;Metindol;<em>N</em>-(<em>p</em>-Chlorobenzoyl)-2-methyl-5-methoxy-3-indolylacetic acid;1-(<em>p</em>-Chlorobenzoyl)-5-methoxy-2-methyl-3-indolylacetic acid;Artrinovo;Artrivia;Confortid;Idomethine;Inacid;Indomed;Indomee;Infrocin;Mezolin;Methazine;Indacin;1-(4-Chlorobenzoyl)-5-methoxy-2-methylindole-3-acetic acid;Indomecol;Metacen;Metartril;Dolovin;Indo-Rectolmin;Reumacide;Sadoreum;1-(4-Chlorobenzoyl)-2-methyl-5-methoxyindole-3-acetic acid;Indometacine;1-(<em>p</em>-Chlorobenzoyl)-2-methyl-5-methoxy-3-indolylacetic acid;Indren;Inteban;Chrono-Indocid 75;Dolcidium PL;Bonidon Gel;Imbrilon;Indomod;Indo-Phlogont;Indo-Tablinen;Dolcidium;Bonidin;Mobilan;Indomethine;Inflazon;Elmetacin;Indoxen;Vonum;Tannex;Durametacin;Indoptic;Argun;Mikametan;Catlep;Indoptol;Chrono-Indicid;Lausit;Rheumacin LA;Inteban SP;Chibro-Amuno;Artracin;Indorektal;Indocid (pharmaceutical);Innamit;Indonol;[1-(4-Chlorobenzoyl)-5-methoxy-2-methyl-1<em>H</em>-indol-3-yl]acetic acid;Vital Vitacid;IndoRich;Flam;Globa;NSC 77541;Indocollyre;Endol;Microcid;Indocine;Aconip;2-[1-(4-Chlorobenzoyl)-5-methoxy-2-methylindol-3-yl]acetic acid;2-[1-(4-Chlorobenzoyl)-5-methoxy-2-methyl-1<em>H</em>-indol-3-yl]acetic acid;IMC;Indocin IV;MeSH ID: D007213",
    "duplicated_cas_no": "37242-43-6;91853-74-6;503560-73-4",
    "SMILES": "C(=O)(N1C=2C(C(CC(O)=O)=C1C)=CC(OC)=CC2)C3=CC=C(Cl)C=C3",
    "meta_data": {
        "InChI": "InChI=1S/C19H16ClNO4/c1-11-15(10-18(22)23)16-9-14(25-2)7-8-17(16)21(11)19(24)12-3-5-13(20)6-4-12/h3-9H,10H2,1-2H3,(H,22,23)",
        "InChIKey": null,
        "Canonical SMILES": "O=C(O)CC=1C=2C=C(OC)C=CC2N(C(=O)C3=CC=C(Cl)C=C3)C1C",
        "Molecular Formula": "C<sub>19</sub>H<sub>16</sub>ClNO<sub>4</sub>",
        "Molecular Mass": "357.79",
        "Melting Point": "158 °C",
        "Density": "1.38 g/cm³"
    }
}