{
    "cas_no": "15183-37-6",
    "key_name": "Estetrol",
    "cn_name": null,
    "alternate_name": "Estra-1,3,5(10)-triene-3,15,16,17-tetrol, (15α,16α,17β)-;Estra-1,3,5(10)-triene-3,15α,16α,17β-tetrol;(15α,16α,17β)-Estra-1,3,5(10)-triene-3,15,16,17-tetrol;15α-Hydroxyestriol;Estetrol;3,15α,16α,17β-Tetrahydroxyestra-1,3,5(10)-triene;Estra-1,3,5(10)-trien-3,15α,16α,17β-tetraol;ENB 39R14VF",
    "duplicated_cas_no": "30653-26-0",
    "SMILES": "C[C@@]12[C@]([C@]3([C@@](C=4C(CC3)=CC(O)=CC4)(CC1)[H])[H])([C@@H](O)[C@@H](O)[C@@H]2O)[H]",
    "meta_data": {
        "InChI": "InChI=1S/C18H24O4/c1-18-7-6-12-11-5-3-10(19)8-9(11)2-4-13(12)14(18)15(20)16(21)17(18)22/h3,5,8,12-17,19-22H,2,4,6-7H2,1H3/t12-,13-,14-,15-,16-,17+,18+/m1/s1",
        "InChIKey": null,
        "Canonical SMILES": "OC1=CC=C2C(=C1)CCC3C2CCC4(C)C(O)C(O)C(O)C34",
        "Molecular Formula": "C<sub>18</sub>H<sub>24</sub>O<sub>4</sub>",
        "Molecular Mass": "304.38",
        "Melting Point": "243.7 °C"
    }
}