{
    "cas_no": "886-86-2",
    "key_name": "Tricaine methanesulfonate",
    "cn_name": "3-氨基苯甲酸乙酯甲基磺酸盐;",
    "alternate_name": "Benzoic acid, 3-amino-, ethyl ester, methanesulfonate (1:1);Benzoic acid, <em>m</em>-amino-, ethyl ester, methanesulfonate;Benzoic acid, 3-amino-, ethyl ester, methanesulfonate;MS 222;Metacaine;Tricaine methanesulfonate;Tricaine;Ethyl <em>m</em>-aminobenzoate methanesulfonate;Finquel;Metacain;TS 222;NSC 93790;Ethyl 3-aminobenzoate methanesulfonate;Tricaine mesylate",
    "duplicated_cas_no": "854747-74-3",
    "SMILES": "C(OCC)(=O)C1=CC(N)=CC=C1.S(C)(=O)(=O)O",
    "meta_data": {
        "InChI": "InChI=1S/C9H11NO2.CH4O3S/c1-2-12-9(11)7-4-3-5-8(10)6-7;1-5(2,3)4/h3-6H,2,10H2,1H3;1H3,(H,2,3,4)",
        "InChIKey": null,
        "Canonical SMILES": "O=C(OCC)C=1C=CC=C(N)C1.O=S(=O)(O)C",
        "Molecular Formula": "C<sub>9</sub>H<sub>11</sub>NO<sub>2</sub>.CH<sub>4</sub>O<sub>3</sub>S",
        "Molecular Mass": "",
        "Melting Point": "149.5 °C"
    }
}