{
    "cas_no": "5580-33-6",
    "key_name": "3,4-Dimethylbenzamide",
    "cn_name": "3,4-二甲基苯甲酰胺;",
    "alternate_name": "Benzamide, 3,4-dimethyl-;3,4-Dimethylbenzamide",
    "duplicated_cas_no": "",
    "SMILES": "C(N)(=O)C1=CC(C)=C(C)C=C1",
    "meta_data": {
        "InChI": "InChI=1S/C9H11NO/c1-6-3-4-8(9(10)11)5-7(6)2/h3-5H,1-2H3,(H2,10,11)",
        "InChIKey": null,
        "Canonical SMILES": "O=C(N)C1=CC=C(C(=C1)C)C",
        "Molecular Formula": "C<sub>9</sub>H<sub>11</sub>NO",
        "Molecular Mass": "149.19",
        "Melting Point": "101-103 °C"
    }
}