{
    "cas_no": "513-08-6",
    "key_name": "Tripropyl phosphate",
    "cn_name": "磷酸三丙酯;",
    "alternate_name": "Phosphoric acid, tripropyl ester;Propyl phosphate ((PrO)<sub>3</sub>PO);Tripropyl phosphate;Tri-<em>n</em>-propyl phosphate",
    "duplicated_cas_no": "",
    "SMILES": "P(OCCC)(OCCC)(OCCC)=O",
    "meta_data": {
        "InChI": "InChI=1S/C9H21O4P/c1-4-7-11-14(10,12-8-5-2)13-9-6-3/h4-9H2,1-3H3",
        "InChIKey": null,
        "Canonical SMILES": "O=P(OCCC)(OCCC)OCCC",
        "Molecular Formula": "C<sub>9</sub>H<sub>21</sub>O<sub>4</sub>P",
        "Molecular Mass": "224.23",
        "Boiling Point": "252 °C",
        "Density": "0.9884 g/cm³ @ Temp: 40 °C"
    }
}