{
    "cas_no": "109-80-8",
    "key_name": "1,3-Propanedithiol",
    "cn_name": "1,3-丙二硫醇;1,3-二巯基丙烷;",
    "alternate_name": "1,3-Propanedithiol;1,3-Dimercaptopropane;Dithiotrimethyleneglycol;Trimethylenedithioglycol;Trimethylenedithiol;Trimethylene dimercaptan;1,3-Propanedimercaptan;1,3-Trimethylenedithiol;3-Mercaptopropanethiol;1,3-Dithiolpropane;Propan-1,3-dithiol;1,3-Dithiopropanol",
    "duplicated_cas_no": "",
    "SMILES": "C(CS)CS",
    "meta_data": {
        "InChI": "InChI=1S/C3H8S2/c4-2-1-3-5/h4-5H,1-3H2",
        "InChIKey": null,
        "Canonical SMILES": "SCCCS",
        "Molecular Formula": "C<sub>3</sub>H<sub>8</sub>S<sub>2</sub>",
        "Molecular Mass": "108.23",
        "Boiling Point": "172.9 °C",
        "Melting Point": "-79 °C",
        "Density": "1.0783 g/cm³ @ Temp: 20 °C"
    }
}