{
    "cas_no": "479-21-0",
    "key_name": "(2,6-Dihydroxy-4-methoxyphenyl)phenylmethanone",
    "cn_name": null,
    "alternate_name": "Methanone, (2,6-dihydroxy-4-methoxyphenyl)phenyl-;Benzophenone, 2,6-dihydroxy-4-methoxy-;(2,6-Dihydroxy-4-methoxyphenyl)phenylmethanone;Cotoin;2,6-Dihydroxy-4-methoxybenzophenone;2-Benzoyl-5-methoxybenzene-1,3-diol",
    "duplicated_cas_no": "",
    "SMILES": "C(=O)(C1=C(O)C=C(OC)C=C1O)C2=CC=CC=C2",
    "meta_data": {
        "InChI": "InChI=1S/C14H12O4/c1-18-10-7-11(15)13(12(16)8-10)14(17)9-5-3-2-4-6-9/h2-8,15-16H,1H3",
        "InChIKey": null,
        "Canonical SMILES": "O=C(C=1C=CC=CC1)C=2C(O)=CC(OC)=CC2O",
        "Molecular Formula": "C<sub>14</sub>H<sub>12</sub>O<sub>4</sub>",
        "Molecular Mass": "244.24",
        "Melting Point": "130.5 °C"
    }
}