{
    "cas_no": "650638-17-8",
    "key_name": "Pyridine, 3-hydrazinyl-, hydrochloride (1:1)",
    "cn_name": null,
    "alternate_name": "Pyridine, 3-hydrazinyl-, hydrochloride (1:1);Pyridine, 3-hydrazino-, monohydrochloride;3-[Hydrazino]pyridine hydrochloride;3-(Hydrazinyl)pyridine hydrochloride",
    "duplicated_cas_no": "",
    "SMILES": "N(N)C=1C=CC=NC1.Cl",
    "meta_data": {
        "InChI": "InChI=1S/C5H7N3.ClH/c6-8-5-2-1-3-7-4-5;/h1-4,8H,6H2;1H",
        "InChIKey": null,
        "Canonical SMILES": "Cl.N=1C=CC=C(C1)NN",
        "Molecular Formula": "C<sub>5</sub>H<sub>7</sub>N<sub>3</sub>.ClH",
        "Molecular Mass": "",
        "Melting Point": "181-183 °C"
    }
}