{
    "cas_no": "524-38-9",
    "key_name": "<em>N</em>-Hydroxyphthalimide",
    "cn_name": null,
    "alternate_name": "1<em>H</em>-Isoindole-1,3(2<em>H</em>)-dione, 2-hydroxy-;Phthalimide, <em>N</em>-hydroxy-;2-Hydroxy-1<em>H</em>-isoindole-1,3(2<em>H</em>)-dione;<em>N</em>-Hydroxyphthalimide;F 802;2-Hydroxyphthalimide;2-Hydroxyisoindole-1,3-dione;<em>N</em>-Hydroxyphthalamide;NSC 770;2-Hydroxyisoindoline-1,3-dione;2-Hydroxy-2,3-dihydro-1<em>H</em>-isoindole-1,3-dione;<em>N</em>-Hydroxyphthalimide ester",
    "duplicated_cas_no": "",
    "SMILES": "O=C1C=2C(C(=O)N1O)=CC=CC2",
    "meta_data": {
        "InChI": "InChI=1S/C8H5NO3/c10-7-5-3-1-2-4-6(5)8(11)9(7)12/h1-4,12H",
        "InChIKey": null,
        "Canonical SMILES": "O=C1C=2C=CC=CC2C(=O)N1O",
        "Molecular Formula": "C<sub>8</sub>H<sub>5</sub>NO<sub>3</sub>",
        "Molecular Mass": "163.13",
        "Melting Point": "233 °C (decomp)",
        "Density": "1.570 g/cm³ @ Temp: 22.4 °C"
    }
}