{
    "cas_no": "86-98-6",
    "key_name": "4,7-Dichloroquinoline",
    "cn_name": "4,7-二氯喹啉;",
    "alternate_name": "Quinoline, 4,7-dichloro-;4,7-Dichloroquinoline;NSC 593",
    "duplicated_cas_no": "",
    "SMILES": "ClC=1C2=C(C=C(Cl)C=C2)N=CC1",
    "meta_data": {
        "InChI": "InChI=1S/C9H5Cl2N/c10-6-1-2-7-8(11)3-4-12-9(7)5-6/h1-5H",
        "InChIKey": null,
        "Canonical SMILES": "ClC=1C=CC2=C(Cl)C=CN=C2C1",
        "Molecular Formula": "C<sub>9</sub>H<sub>5</sub>Cl<sub>2</sub>N",
        "Molecular Mass": "198.05",
        "Boiling Point": "148 °C",
        "Melting Point": "93 °C"
    }
}