{
    "cas_no": "6929-08-4",
    "key_name": "3-Undecanol",
    "cn_name": "3-十一醇,97%;",
    "alternate_name": "3-Undecanol;<em>dl</em>-Undecan-3-ol;(±)-3-Undecanol;NSC 158504",
    "duplicated_cas_no": "79465-94-4",
    "SMILES": "C(CCC(CC)O)CCCCC",
    "meta_data": {
        "InChI": "InChI=1S/C11H24O/c1-3-5-6-7-8-9-10-11(12)4-2/h11-12H,3-10H2,1-2H3",
        "InChIKey": null,
        "Canonical SMILES": "OC(CC)CCCCCCCC",
        "Molecular Formula": "C<sub>11</sub>H<sub>24</sub>O",
        "Molecular Mass": "172.31",
        "Boiling Point": "82-84 °C @ Press: 0.6 Torr"
    }
}