{
    "cas_no": "1866-16-6",
    "key_name": "Butyrylthiocholine iodide",
    "cn_name": "碘化硫代丁酰胆碱;S-正丁酰基硫代碘化胆碱;",
    "alternate_name": "Ethanaminium, <em>N</em>,<em>N</em>,<em>N</em>-trimethyl-2-[(1-oxobutyl)thio]-, iodide (1:1);Ammonium, (2-mercaptoethyl)trimethyl-, iodide, butyrate;Ethanaminium, <em>N</em>,<em>N</em>,<em>N</em>-trimethyl-2-[(1-oxobutyl)thio]-, iodide;(2-Mercaptoethyl)trimethylammonium iodide, butyrate;Butyric acid, thio-, <em>S</em>-ester with (2-mercaptoethyl)trimethylammonium iodide;Butyrylthiocholine iodide;<em>S</em>-Butyrylthiocholine iodide;2-(Butyrylthio)-<em>N</em>,<em>N</em>,<em>N</em>-trimethylethanaminium iodide",
    "duplicated_cas_no": "",
    "SMILES": "C([N+](C)(C)C)CSC(CCC)=O.[I-]",
    "meta_data": {
        "InChI": "InChI=1S/C9H20NOS.HI/c1-5-6-9(11)12-8-7-10(2,3)4;/h5-8H2,1-4H3;1H/q+1;/p-1",
        "InChIKey": null,
        "Canonical SMILES": "[I-].O=C(SCC[N+](C)(C)C)CCC",
        "Molecular Formula": "C<sub>9</sub>H<sub>20</sub>NOS.I",
        "Molecular Mass": "",
        "Melting Point": "173 °C"
    }
}