{
    "cas_no": "87-62-7",
    "key_name": "2,6-Dimethylaniline",
    "cn_name": "2,6-二甲基苯胺;2,6-二甲苯胺;",
    "alternate_name": "Benzenamine, 2,6-dimethyl-;2,6-Xylidine;2,6-Dimethylbenzenamine;2,6-Dimethylaniline;<em>o</em>-Xylidine;2-Amino-1,3-dimethylbenzene;2-Amino-1,3-xylene;2-Amino-<em>m</em>-xylene;1-Amino-2,6-dimethylbenzene;2,6-Xylylamine;2,6-Dimethylphenylamine;NSC 7098;2,6-Dimethylaminobenzene",
    "duplicated_cas_no": "1123533-24-3",
    "SMILES": "NC1=C(C)C=CC=C1C",
    "meta_data": {
        "InChI": "InChI=1S/C8H11N/c1-6-4-3-5-7(2)8(6)9/h3-5H,9H2,1-2H3",
        "InChIKey": null,
        "Canonical SMILES": "NC=1C(=CC=CC1C)C",
        "Molecular Formula": "C<sub>8</sub>H<sub>11</sub>N",
        "Molecular Mass": "121.18",
        "Boiling Point": "216 °C",
        "Melting Point": "11.2 °C",
        "Density": "0.9842 g/cm³ @ Temp: 20 °C"
    }
}