{
    "cas_no": "4744-10-9",
    "key_name": "1,1-Dimethoxypropane",
    "cn_name": null,
    "alternate_name": "Propane, 1,1-dimethoxy-;Propionaldehyde, dimethyl acetal;1,1-Dimethoxypropane;Propanal dimethyl acetal;3-Ethyl-2,4-dioxapentane",
    "duplicated_cas_no": "",
    "SMILES": "C(CC)(OC)OC",
    "meta_data": {
        "InChI": "InChI=1S/C5H12O2/c1-4-5(6-2)7-3/h5H,4H2,1-3H3",
        "InChIKey": null,
        "Canonical SMILES": "O(C)C(OC)CC",
        "Molecular Formula": "C<sub>5</sub>H<sub>12</sub>O<sub>2</sub>",
        "Molecular Mass": "104.15",
        "Boiling Point": "89 °C",
        "Density": "0.849 g/cm³ @ Temp: 21 °C"
    }
}