{
    "cas_no": "22544-07-6",
    "key_name": "2,4′-Dichloro-4-nitrodiphenyl ether",
    "cn_name": "2,4-二氯-4-硝基二苯基醚;",
    "alternate_name": "Benzene, 2-chloro-1-(4-chlorophenoxy)-4-nitro-;Ether, 2-chloro-4-nitrophenyl <em>p</em>-chlorophenyl;2-Chloro-1-(4-chlorophenoxy)-4-nitrobenzene;2,4′-Dichloro-4-nitrodiphenyl ether;2-Chloro-4-nitrophenyl <em>p</em>-chlorophenyl ether",
    "duplicated_cas_no": "",
    "SMILES": "O(C1=C(Cl)C=C(N(=O)=O)C=C1)C2=CC=C(Cl)C=C2",
    "meta_data": {
        "InChI": "InChI=1S/C12H7Cl2NO3/c13-8-1-4-10(5-2-8)18-12-6-3-9(15(16)17)7-11(12)14/h1-7H",
        "InChIKey": null,
        "Canonical SMILES": "O=N(=O)C1=CC=C(OC2=CC=C(Cl)C=C2)C(Cl)=C1",
        "Molecular Formula": "C<sub>12</sub>H<sub>7</sub>Cl<sub>2</sub>NO<sub>3</sub>",
        "Molecular Mass": "284.09",
        "Melting Point": "108-110 °C"
    }
}