{
    "cas_no": "77-36-1",
    "key_name": "Chlorthalidone",
    "cn_name": "氯塞酮;2-氯-5-(2,3-二氢-1-羟基-3-氧代-1H-异吲哚-1-基)苯磺酰胺;",
    "alternate_name": "Benzenesulfonamide, 2-chloro-5-(2,3-dihydro-1-hydroxy-3-oxo-1<em>H</em>-isoindol-1-yl)-;Benzenesulfonamide, 2-chloro-5-(1-hydroxy-3-oxo-1-isoindolinyl)-;2-Chloro-5-(2,3-dihydro-1-hydroxy-3-oxo-1<em>H</em>-isoindol-1-yl)benzenesulfonamide;G 33182;2-Chloro-5-(1-hydroxy-3-oxo-1-isoindolinyl)benzenesulfonamide;3-(4′-Chloro-3′-sulfamoylphenyl)-3-hydroxyphthalimidine;Chlorothalidone;Chlortalidone;Chlorthalidon;Chlorthalidone;3-Hydroxy-3-[4-chloro-3-sulfamylphenyl]phthalimidine;Hygroton;1-Oxo-3-(3-sulfamyl-4-chlorophenyl)-3-hydroxyisoindoline;1-Oxo-3-(3-sulfamyl-4-chlorophenyl)-3-hydroxy-isoindolinum;Phthalamudine;1-<em>keto</em>-3-(3′-Sulfamyl-4′-chlorophenyl)-3-hydroxyisoindoline;2-Chloro-5-(3-hydroxy-1-oxoisoindol-3-yl)benzenesulfonamide;Isoren;Natriuran;Oradil;Renon;Saluretin;Zambesil;Igroton;Oxodolin;(±)-Chlorthalidone;(±)-Hygroton;Racemic chlorthalidone;Thalitone;Demi-Regroton;NSC 69200;Higrotona;Higroton;ZINC 00020253;2-Chloro-5-(1-hydroxy-3-oxo-2,3-dihydro-1<em>H</em>-isoindol-1-yl)benzenesulfonamide;2-Chloro-5-(1-hydroxy-3-oxo-2<em>H</em>-isoindol-1-yl)benzenesulfonamide;MeSH ID: D002752",
    "duplicated_cas_no": "74666-82-3",
    "SMILES": "OC1(C=2C(C(=O)N1)=CC=CC2)C3=CC(S(N)(=O)=O)=C(Cl)C=C3",
    "meta_data": {
        "InChI": "InChI=1S/C14H11ClN2O4S/c15-11-6-5-8(7-12(11)22(16,20)21)14(19)10-4-2-1-3-9(10)13(18)17-14/h1-7,19H,(H,17,18)(H2,16,20,21)",
        "InChIKey": null,
        "Canonical SMILES": "O=C1NC(O)(C2=CC=C(Cl)C(=C2)S(=O)(=O)N)C=3C=CC=CC13",
        "Molecular Formula": "C<sub>14</sub>H<sub>11</sub>ClN<sub>2</sub>O<sub>4</sub>S",
        "Molecular Mass": "338.77",
        "Melting Point": "239 °C"
    }
}