{
    "cas_no": "125401-92-5",
    "key_name": "Bispyribac-sodium",
    "cn_name": "双草醚;2,6-双[(4,6-二甲氧基嘧啶-2-基)氧]苯甲酸钠;",
    "alternate_name": "Benzoic acid, 2,6-bis[(4,6-dimethoxy-2-pyrimidinyl)oxy]-, sodium salt (1:1);Benzoic acid, 2,6-bis[(4,6-dimethoxy-2-pyrimidinyl)oxy]-, sodium salt;KIH 2023;Bispyribac-sodium;V 10029;Nominee;Regiment;Designee;Short-keep;Nominee 400SC;Adora;Nominee KZ",
    "duplicated_cas_no": "",
    "SMILES": "C(O)(=O)C1=C(OC=2N=C(OC)C=C(OC)N2)C=CC=C1OC=3N=C(OC)C=C(OC)N3.[Na]",
    "meta_data": {
        "InChI": "InChI=1S/C19H18N4O8.Na/c1-26-12-8-13(27-2)21-18(20-12)30-10-6-5-7-11(16(10)17(24)25)31-19-22-14(28-3)9-15(23-19)29-4;/h5-9H,1-4H3,(H,24,25);",
        "InChIKey": null,
        "Canonical SMILES": "[Na].O=C(O)C=1C(OC=2N=C(OC)C=C(N2)OC)=CC=CC1OC=3N=C(OC)C=C(N3)OC",
        "Molecular Formula": "C<sub>19</sub>H<sub>18</sub>N<sub>4</sub>O<sub>8</sub>.Na",
        "Molecular Mass": "",
        "Melting Point": "235-237 °C"
    }
}