{
    "cas_no": "7391-66-4",
    "key_name": "1,3-Dimethyl-5-phenyl-2,4,6(1<em>H</em>,3<em>H</em>,5<em>H</em>)-pyrimidinetrione",
    "cn_name": "1,3-二甲基-5-苯基巴比妥酸;1,3-二甲基-5-苯基嘧啶-2,4,6-三酮;",
    "alternate_name": "2,4,6(1<em>H</em>,3<em>H</em>,5<em>H</em>)-Pyrimidinetrione, 1,3-dimethyl-5-phenyl-;Barbituric acid, 1,3-dimethyl-5-phenyl-;1,3-Dimethyl-5-phenyl-2,4,6(1<em>H</em>,3<em>H</em>,5<em>H</em>)-pyrimidinetrione;1,3-Dimethyl-5-phenylbarbituric acid;NSC 125776;NSC 128098;1,3-Dimethyl-5-phenyl-1,3-diazinane-2,4,6-trione;1,3-Dimethyl-5-phenyl-pyrimidine-2,4,6-trione",
    "duplicated_cas_no": "55625-94-0",
    "SMILES": "O=C1C(C(=O)N(C)C(=O)N1C)C2=CC=CC=C2",
    "meta_data": {
        "InChI": "InChI=1S/C12H12N2O3/c1-13-10(15)9(8-6-4-3-5-7-8)11(16)14(2)12(13)17/h3-7,9H,1-2H3",
        "InChIKey": null,
        "Canonical SMILES": "O=C1N(C(=O)C(C=2C=CC=CC2)C(=O)N1C)C",
        "Molecular Formula": "C<sub>12</sub>H<sub>12</sub>N<sub>2</sub>O<sub>3</sub>",
        "Molecular Mass": "232.24",
        "Melting Point": "140.0-140.5 °C"
    }
}