{
    "cas_no": "399-94-0",
    "key_name": "1-Bromo-2,5-difluorobenzene",
    "cn_name": "2,5-二氟溴苯;",
    "alternate_name": "Benzene, 2-bromo-1,4-difluoro-;2-Bromo-1,4-difluorobenzene;1-Bromo-2,5-difluorobenzene;2,5-Difluoro-1-bromobenzene;2,5-Difluorobromobenzene;NSC 10250",
    "duplicated_cas_no": "",
    "SMILES": "BrC1=C(F)C=CC(F)=C1",
    "meta_data": {
        "InChI": "InChI=1S/C6H3BrF2/c7-5-3-4(8)1-2-6(5)9/h1-3H",
        "InChIKey": null,
        "Canonical SMILES": "FC1=CC=C(F)C(Br)=C1",
        "Molecular Formula": "C<sub>6</sub>H<sub>3</sub>BrF<sub>2</sub>",
        "Molecular Mass": "192.99",
        "Boiling Point": "58-58.5 °C @ Press: 20 Torr",
        "Melting Point": "~-31.5 °C (approx)"
    }
}