{
    "cas_no": "25739-41-7",
    "key_name": "Velutin",
    "cn_name": null,
    "alternate_name": "4<em>H</em>-1-Benzopyran-4-one, 5-hydroxy-2-(4-hydroxy-3-methoxyphenyl)-7-methoxy-;Flavone, 4′,5-dihydroxy-3′,7-dimethoxy-;5-Hydroxy-2-(4-hydroxy-3-methoxyphenyl)-7-methoxy-4<em>H</em>-1-benzopyran-4-one;Flavoyadorigenin B;Velutin;4′,5-Dihydroxy-3′,7-dimethoxyflavone;Luteolin 7,3′-dimethyl ether;Chrysoeriol 7-methyl ether;3′,7-Dimethylluteolin;5,4′-Dihydroxy-7,3′-dimethoxyflavone;Luteolin 3′,7-dimethyl ether;7,3′-Di-<em>O</em>-methylluteoline;DR 9606128;3′,7-Dimethoxy-4′,5-dihydroxyflavone",
    "duplicated_cas_no": "",
    "SMILES": "O=C1C=2C(OC(=C1)C3=CC(OC)=C(O)C=C3)=CC(OC)=CC2O",
    "meta_data": {
        "InChI": "InChI=1S/C17H14O6/c1-21-10-6-12(19)17-13(20)8-14(23-16(17)7-10)9-3-4-11(18)15(5-9)22-2/h3-8,18-19H,1-2H3",
        "InChIKey": null,
        "Canonical SMILES": "O=C1C=C(OC=2C=C(OC)C=C(O)C12)C=3C=CC(O)=C(OC)C3",
        "Molecular Formula": "C<sub>17</sub>H<sub>14</sub>O<sub>6</sub>",
        "Molecular Mass": "314.29",
        "Melting Point": "298 °C"
    }
}