{
    "cas_no": "56795-51-8",
    "key_name": "7-(Acetyloxy)-6-methoxy-2<em>H</em>-1-benzopyran-2-one",
    "cn_name": null,
    "alternate_name": "2<em>H</em>-1-Benzopyran-2-one, 7-(acetyloxy)-6-methoxy-;Scopoletin acetate;7-(Acetyloxy)-6-methoxy-2<em>H</em>-1-benzopyran-2-one;Acetylscopoletin;Scopoletin monoacetate;<em>O</em>-Acetyl-Scopoletin",
    "duplicated_cas_no": "",
    "SMILES": "O(C)C=1C=C2C(=CC1OC(C)=O)OC(=O)C=C2",
    "meta_data": {
        "InChI": "InChI=1S/C12H10O5/c1-7(13)16-11-6-9-8(5-10(11)15-2)3-4-12(14)17-9/h3-6H,1-2H3",
        "InChIKey": null,
        "Canonical SMILES": "O=C1OC=2C=C(OC(=O)C)C(OC)=CC2C=C1",
        "Molecular Formula": "C<sub>12</sub>H<sub>10</sub>O<sub>5</sub>",
        "Molecular Mass": "234.20",
        "Melting Point": "177 °C"
    }
}