{
    "cas_no": "20075-26-7",
    "key_name": "1-(Methoxymethyl)-1<em>H</em>-imidazole",
    "cn_name": "1-(甲氧基甲基)-1H-咪唑英文名称：1-(Methoxymethyl)-1H-imidazole;1-(甲氧基甲基)-1H-咪唑;",
    "alternate_name": "1<em>H</em>-Imidazole, 1-(methoxymethyl)-;Imidazole, 1-(methoxymethyl)-;1-(Methoxymethyl)-1<em>H</em>-imidazole;1-(Methoxymethyl)imidazole;<em>N</em>-(Methoxymethyl)imidazole",
    "duplicated_cas_no": "701198-93-8",
    "SMILES": "C(OC)N1C=CN=C1",
    "meta_data": {
        "InChI": "InChI=1S/C5H8N2O/c1-8-5-7-3-2-6-4-7/h2-4H,5H2,1H3",
        "InChIKey": null,
        "Canonical SMILES": "N=1C=CN(C1)COC",
        "Molecular Formula": "C<sub>5</sub>H<sub>8</sub>N<sub>2</sub>O",
        "Molecular Mass": "112.13",
        "Boiling Point": "77-80 °C @ Press: 1 Torr"
    }
}