{
    "cas_no": "23996-55-6",
    "key_name": "1-Cyanoethyl-2-methylimidazole",
    "cn_name": "1-氰乙基-2-甲基咪唑;",
    "alternate_name": "1<em>H</em>-Imidazole-1-propanenitrile, 2-methyl-;Imidazole-1-propionitrile, 2-methyl-;2-Methyl-1<em>H</em>-imidazole-1-propanenitrile;1-(2-Cyanoethyl)-2-methylimidazole;1-(β-Cyanoethyl)-2-methylimidazole;2-Methyl-1-imidazolepropanenitrile;Kalpur PAC;1-Cyanoethyl-2-methylimidazole;2MZ-CN;Curezol 2MZ-CN;CN 25;CN 25 (vulcanizing agent);Curezol 2PN-ON;Curezol 2PN-CN;1-(2-Cynnoethyl)-2-methyl imidazole",
    "duplicated_cas_no": "",
    "SMILES": "C(CC#N)N1C(C)=NC=C1",
    "meta_data": {
        "InChI": "InChI=1S/C7H9N3/c1-7-9-4-6-10(7)5-2-3-8/h4,6H,2,5H2,1H3",
        "InChIKey": null,
        "Canonical SMILES": "N#CCCN1C=CN=C1C",
        "Molecular Formula": "C<sub>7</sub>H<sub>9</sub>N<sub>3</sub>",
        "Molecular Mass": "135.17",
        "Melting Point": "55-56.5 °C"
    }
}