{
    "cas_no": "123653-11-2",
    "key_name": "<em>N</em>-[2-(Cyclohexyloxy)-4-nitrophenyl]methanesulfonamide",
    "cn_name": "抑制剂;N-[2-(环己氧基)-4-硝基苯基]甲烷磺酰胺;",
    "alternate_name": "Methanesulfonamide, <em>N</em>-[2-(cyclohexyloxy)-4-nitrophenyl]-;<em>N</em>-[2-(Cyclohexyloxy)-4-nitrophenyl]methanesulfonamide;NS 398;Taisho NS 398",
    "duplicated_cas_no": "",
    "SMILES": "O(C1=C(NS(C)(=O)=O)C=CC(N(=O)=O)=C1)C2CCCCC2",
    "meta_data": {
        "InChI": "InChI=1S/C13H18N2O5S/c1-21(18,19)14-12-8-7-10(15(16)17)9-13(12)20-11-5-3-2-4-6-11/h7-9,11,14H,2-6H2,1H3",
        "InChIKey": null,
        "Canonical SMILES": "O=N(=O)C1=CC=C(NS(=O)(=O)C)C(OC2CCCCC2)=C1",
        "Molecular Formula": "C<sub>13</sub>H<sub>18</sub>N<sub>2</sub>O<sub>5</sub>S",
        "Molecular Mass": "314.36",
        "Melting Point": "124-126 °C"
    }
}