{
    "cas_no": "329-63-5",
    "key_name": "(±)-Epinephrine hydrochloride",
    "cn_name": "DL-肾上腺素盐酸盐;(±)-肾上腺素盐酸盐;(±)-肾上腺素;",
    "alternate_name": "1,2-Benzenediol, 4-[1-hydroxy-2-(methylamino)ethyl]-, hydrochloride (1:1);Benzyl alcohol, 3,4-dihydroxy-α-[(methylamino)methyl]-, hydrochloride, (±)-;1,2-Benzenediol, 4-[1-hydroxy-2-(methylamino)ethyl]-, hydrochloride, (±)-;1,2-Benzenediol, 4-[1-hydroxy-2-(methylamino)ethyl]-, hydrochloride;<em>dl</em>-Epinephrine hydrochloride;(±)-Adrenaline hydrochloride;<em>dl</em>-Adrenaline hydrochloride;(±)-Epinephrine hydrochloride;Vaponefrin;Asthmanefrin;Racepinephrine hydrochloride",
    "duplicated_cas_no": "99160-99-3",
    "SMILES": "C(CNC)(O)C1=CC(O)=C(O)C=C1.Cl",
    "meta_data": {
        "InChI": "InChI=1S/C9H13NO3.ClH/c1-10-5-9(13)6-2-3-7(11)8(12)4-6;/h2-4,9-13H,5H2,1H3;1H",
        "InChIKey": null,
        "Canonical SMILES": "Cl.OC1=CC=C(C=C1O)C(O)CNC",
        "Molecular Formula": "C<sub>9</sub>H<sub>13</sub>NO<sub>3</sub>.ClH",
        "Molecular Mass": "",
        "Melting Point": "157 °C"
    }
}