{
    "cas_no": "456-47-3",
    "key_name": "3-Fluorobenzyl alcohol",
    "cn_name": "3-氟苄醇;3-氟苯甲醇;",
    "alternate_name": "Benzenemethanol, 3-fluoro-;Benzyl alcohol, <em>m</em>-fluoro-;3-Fluorobenzenemethanol;<em>m</em>-Fluorobenzyl alcohol;3-Fluorobenzyl alcohol;NSC 158273;(3-Fluorophenyl)methanol",
    "duplicated_cas_no": "185532-89-2",
    "SMILES": "C(O)C1=CC(F)=CC=C1",
    "meta_data": {
        "InChI": "InChI=1S/C7H7FO/c8-7-3-1-2-6(4-7)5-9/h1-4,9H,5H2",
        "InChIKey": null,
        "Canonical SMILES": "FC1=CC=CC(=C1)CO",
        "Molecular Formula": "C<sub>7</sub>H<sub>7</sub>FO",
        "Molecular Mass": "126.13",
        "Boiling Point": "201 °C",
        "Melting Point": "115-119 °C"
    }
}