{
    "cas_no": "93-20-9",
    "key_name": "2-(2-Naphthoxy)ethanol",
    "cn_name": "2-(2-萘氧基)乙醇;",
    "alternate_name": "Ethanol, 2-(2-naphthalenyloxy)-;Ethanol, 2-(2-naphthyloxy)-;2-(2-Naphthalenyloxy)ethanol;Anavenol;Ethylene glycol mono-2-naphthyl ether;2-(β-Hydroxyethoxy)naphthalene;β-Hydroxyethyl 2-naphthyl ether;β-Naphthoxyethanol;2-(2-Naphthyloxy)ethanol;2-(2-Hydroxyethoxy)naphthalene;2-(2-Naphthoxy)ethanol;2-(Naphthalen-2-yloxy)ethanol;NSC 37574;2-(2-Naphthyloxy)ethyl alcohol;2-(Naphthalen-2-yloxy)ethan-1-ol",
    "duplicated_cas_no": "",
    "SMILES": "O(CCO)C1=CC2=C(C=C1)C=CC=C2",
    "meta_data": {
        "InChI": "InChI=1S/C12H12O2/c13-7-8-14-12-6-5-10-3-1-2-4-11(10)9-12/h1-6,9,13H,7-8H2",
        "InChIKey": null,
        "Canonical SMILES": "OCCOC=1C=CC=2C=CC=CC2C1",
        "Molecular Formula": "C<sub>12</sub>H<sub>12</sub>O<sub>2</sub>",
        "Molecular Mass": "188.22",
        "Melting Point": "76.7 °C"
    }
}