{
    "cas_no": "1643-20-5",
    "key_name": "Dodecyldimethylamine oxide",
    "cn_name": "N-氧化-N,N-二甲基-1-十二胺;十二烷基二甲基氧化胺;",
    "alternate_name": "1-Dodecanamine, <em>N</em>,<em>N</em>-dimethyl-, <em>N</em>-oxide;Dodecylamine, <em>N</em>,<em>N</em>-dimethyl-, <em>N</em>-oxide;Ammonyx AO;Ammonyx LO;DDNO;Dodecyldimethylamine oxide;<em>n</em>-Dodecyldimethylamine oxide;<em>N</em>,<em>N</em>-Dimethyldodecylamine oxide;Dimethyldodecylamine oxide;<em>N</em>,<em>N</em>-Dimethyl-<em>n</em>-dodecylamine oxide;Dimethyllaurylamine oxide;Lauryldimethylamine <em>N</em>-oxide;Aromox DMCD;Dimethylaurylamine oxide;<em>N</em>-Lauryldimethylamine <em>N</em>-oxide;Lauramine oxide;Conco XAL;Empigen OB;<em>N</em>-Lauryl-<em>N</em>,<em>N</em>-dimethylamine oxide;<em>N</em>,<em>N</em>-Dimethyl-1-dodecanamine oxide;Nissan Unisafe A-LM;Unisafe A-LM;Ninox L;Lauryldimethylamine oxide;Atlas CD 413;<em>N</em>-Dodecyl-<em>N</em>,<em>N</em>-dimethylamine oxide;Cyclomox L;Ammonyx DMCD 40;Amphitol 20N;Emcol L;Emal 20N;Rhodamox LO;Laurylamine oxide;Rhodamox L;Schercamox DML;Rewominox L 408;Emcol LO;Oxidet DM 20;Aromox DM 12D-W;Admox 12;Tomah AO 728;LDAO;Incromine oxide L;Ammonyx C10 Amine Oxide;Oxamin LO;Ninox DMCD 40;Aromox DM 12W;101CG;Aromox DM 12D;Softamine L;Aromox DM 12DW(C);<em>N</em>,<em>N</em>-Dimethyl-1-dodecanamine <em>N</em>-oxide;Dimethyldodecylamine <em>N</em>-oxide;Genaminox LA;DDAO;Barlox 12i;Ammonyx LO-E;AX 22;AX;AX (amine oxide);AX-S;MON 59121;AX-SS;OB 2;OB 2 (surfactant);Genaminox K 12;C 12AX;Amogen AOL;TAO 14;Unisafe A-LMR;<em>n</em>-Dodecyl-<em>N</em>,<em>N</em>-dimethylamine-<em>N</em>-oxide;Macat AO 12;Vicamox 401;<em>N</em>,<em>N</em>-Dimethyldodecylamine <em>N</em>-oxide;Mackamine LO;Wondamine OX 300;CFS 560;Aromox DMA 2DW;<em>N</em>,<em>N</em>-Dimethyl-<em>N</em>-dodecylamine <em>N</em>-oxide;Wondamin OX 300;ColaLux Lo;Lauryldimethylammonium oxide;Mackamine CO-SP;AX-CS;Cadenax DM 12DW;Cadenac DM 12D-W;Unisorb A-LM;Cadenax DM 12DW-S;Cadenax DM 12DW(S);OA 12;Cadenax DM 12DW(C);AX agent;Dodecyldimethylamine-<em>N</em>-oxide;Amiphitol 20N;Dehyton PL;Cadenax DM 12DN;Tainolin LO",
    "duplicated_cas_no": "73502-08-6;135526-66-8;160714-02-3;163221-07-6;177162-47-9;209122-49-6;244235-92-5;311814-25-2;607690-42-6;934560-91-5;1447712-24-4;1616935-99-9;2306325-97-1",
    "SMILES": "C(CCCCCCCCC)CCN(C)(C)=O",
    "meta_data": {
        "InChI": "InChI=1S/C14H31NO/c1-4-5-6-7-8-9-10-11-12-13-14-15(2,3)16/h4-14H2,1-3H3",
        "InChIKey": null,
        "Canonical SMILES": "O=N(C)(C)CCCCCCCCCCCC",
        "Molecular Formula": "C<sub>14</sub>H<sub>31</sub>NO",
        "Molecular Mass": "229.40",
        "Melting Point": "132-133 °C"
    }
}