{
    "cas_no": "514-62-5",
    "key_name": "<em>trans</em>-Ferruginol",
    "cn_name": null,
    "alternate_name": "3-Phenanthrenol, 4b,5,6,7,8,8a,9,10-octahydro-4b,8,8-trimethyl-2-(1-methylethyl)-, (4b<em>S</em>,8a<em>S</em>)-;Podocarpa-8,11,13-trien-12-ol, 13-isopropyl-;3-Phenanthrenol, 4b,5,6,7,8,8a,9,10-octahydro-4b,8,8-trimethyl-2-(1-methylethyl)-, (4b<em>S</em>-<em>trans</em>)-;Ferruginol;(4b<em>S</em>,8a<em>S</em>)-4b,5,6,7,8,8a,9,10-Octahydro-4b,8,8-trimethyl-2-(1-methylethyl)-3-phenanthrenol;Ferruginol (Podocarpus);(+)-Ferruginol;<em>trans</em>-Ferruginol",
    "duplicated_cas_no": "",
    "SMILES": "C[C@@]12C=3C(=CC(C(C)C)=C(O)C3)CC[C@]1(C(C)(C)CCC2)[H]",
    "meta_data": {
        "InChI": "InChI=1S/C20H30O/c1-13(2)15-11-14-7-8-18-19(3,4)9-6-10-20(18,5)16(14)12-17(15)21/h11-13,18,21H,6-10H2,1-5H3/t18-,20+/m0/s1",
        "InChIKey": null,
        "Canonical SMILES": "OC=1C=C2C(=CC1C(C)C)CCC3C2(C)CCCC3(C)C",
        "Molecular Formula": "C<sub>20</sub>H<sub>30</sub>O",
        "Molecular Mass": "286.45",
        "Melting Point": "56-57 °C"
    }
}