{
    "cas_no": "141573-95-7",
    "key_name": "1<em>H</em>-Pyrazole-4-carboxylic acid, 3-(difluoromethyl)-1-methyl-, ethyl ester",
    "cn_name": "3-二氟甲基-1-甲基吡唑-4-甲酸乙酯;3-二氟甲基-1-甲基吡唑-4-甲酸乙酯;",
    "alternate_name": "1<em>H</em>-Pyrazole-4-carboxylic acid, 3-(difluoromethyl)-1-methyl-, ethyl ester;1-Methyl-3-(difluoromethyl)pyrazole-4-carboxylic acid ethyl ester;3-Difluoromethyl-1-methylpyrazole-4-carboxylic acid ethyl ester;Ethyl 3-difluoromethyl-1-methyl-1<em>H</em>-pyrazole-4-carboxylate;Ethyl 1-methyl-3-difluoromethyl-1<em>H</em>-pyrazole-4-carboxylate;Ethyl 1-methyl-3-(difluoromethyl)pyrazole-4-carboxylate;Ethyl 3-(difluoromethyl)-1-methyl-7<em>H</em>-pyrazole-4-carboxylate",
    "duplicated_cas_no": "",
    "SMILES": "C(OCC)(=O)C=1C(C(F)F)=NN(C)C1",
    "meta_data": {
        "InChI": "InChI=1S/C8H10F2N2O2/c1-3-14-8(13)5-4-12(2)11-6(5)7(9)10/h4,7H,3H2,1-2H3",
        "InChIKey": null,
        "Canonical SMILES": "O=C(OCC)C1=CN(N=C1C(F)F)C",
        "Molecular Formula": "C<sub>8</sub>H<sub>10</sub>F<sub>2</sub>N<sub>2</sub>O<sub>2</sub>",
        "Molecular Mass": "204.17",
        "Melting Point": "58-59 °C"
    }
}