{
    "cas_no": "15206-55-0",
    "key_name": "Methyl phenylglyoxylate",
    "cn_name": "苯甲酰甲酸甲酯;",
    "alternate_name": "Benzeneacetic acid, α-oxo-, methyl ester;Glyoxylic acid, phenyl-, methyl ester;Phenylglyoxylic acid methyl ester;Methyl benzoylformate;Methyl oxophenylacetate;Methyl phenylglyoxylate;Methyl phenylglyoxalate;Methyl phenyloxoacetate;Vicure 55;Methyl α-oxobenzeneacetate;α-Oxobenzeneacetic acid methyl ester;Methyl 2-oxo-2-phenylacetate;NSC 171206;NSC 409881;Darocur MBF;Methyl phenyl-α-oxoacetate;Benzoylformic acid methyl ester;Darocur MB;2-Oxo-2-phenylacetic acid methyl ester;Methyl 2-phenyl-2-oxoacetate;Speedcure MBF;Genocure MBF;Methoxycarbonyl phenyl ketone;MBF;Irgacure MBF;JRCure 1055;IHT-PI MBF;Doublecure 200;PI 55;MBF 1055;SB-PI 716;Photoinitiator MBF;Gencure MBF;Omnirad MBF;Micure MBF;Chemcure 55",
    "duplicated_cas_no": "71833-42-6;301543-54-4",
    "SMILES": "C(C(OC)=O)(=O)C1=CC=CC=C1",
    "meta_data": {
        "InChI": "InChI=1S/C9H8O3/c1-12-9(11)8(10)7-5-3-2-4-6-7/h2-6H,1H3",
        "InChIKey": null,
        "Canonical SMILES": "O=C(OC)C(=O)C=1C=CC=CC1",
        "Molecular Formula": "C<sub>9</sub>H<sub>8</sub>O<sub>3</sub>",
        "Molecular Mass": "164.16",
        "Boiling Point": "254.6-255.6 °C @ Press: 756 Torr"
    }
}