{
    "cas_no": "65347-55-9",
    "key_name": "3-(1,2,3,6-Tetrahydro-4-pyridinyl)-1<em>H</em>-indole",
    "cn_name": null,
    "alternate_name": "1<em>H</em>-Indole, 3-(1,2,3,6-tetrahydro-4-pyridinyl)-;3-(1,2,3,6-Tetrahydro-4-pyridinyl)-1<em>H</em>-indole;RU 24441;1,2,3,6-Tetrahydro-4-(3-indolyl)pyridine;3-(1,2,3,6-Tetrahydropyridin-4-yl)-1<em>H</em>-indole;4-(Indol-3-yl)-1,2,3,6-tetrahydropyridine;3-(1,2,3,6-Tetrahydro-4-pyridyl)-1<em>H</em>-indole;3-(1,2,3,6-Tetrahydropyridin-4-yl)indole",
    "duplicated_cas_no": "",
    "SMILES": "C=1(C=2C(NC1)=CC=CC2)C=3CCNCC3",
    "meta_data": {
        "InChI": "InChI=1S/C13H14N2/c1-2-4-13-11(3-1)12(9-15-13)10-5-7-14-8-6-10/h1-5,9,14-15H,6-8H2",
        "InChIKey": null,
        "Canonical SMILES": "C=1C=CC2=C(C1)NC=C2C3=CCNCC3",
        "Molecular Formula": "C<sub>13</sub>H<sub>14</sub>N<sub>2</sub>",
        "Molecular Mass": "198.26",
        "Melting Point": "183-185 °C"
    }
}