{
    "cas_no": "19247-87-1",
    "key_name": "Benzoic acid, 4-(5-formyl-2-furanyl)-, ethyl ester",
    "cn_name": "5-甲酰基-2-呋喃基苯甲酸乙酯;",
    "alternate_name": "Benzoic acid, 4-(5-formyl-2-furanyl)-, ethyl ester;Benzoic acid, <em>p</em>-(5-formyl-2-furyl)-, ethyl ester;5-(4-Carbethoxyphenyl)-2-furaldehyde;4-(5-formyl-2-furanyl)benzoic acid ethyl ester;Ethyl 4-(5-formylfuran-2-yl)benzoate;5-(4-Ethoxycarbonylphenyl)furan-2-carboxaldehyde",
    "duplicated_cas_no": "",
    "SMILES": "C(=O)C=1OC(=CC1)C2=CC=C(C(OCC)=O)C=C2",
    "meta_data": {
        "InChI": "InChI=1S/C14H12O4/c1-2-17-14(16)11-5-3-10(4-6-11)13-8-7-12(9-15)18-13/h3-9H,2H2,1H3",
        "InChIKey": null,
        "Canonical SMILES": "O=CC=1OC(=CC1)C=2C=CC(=CC2)C(=O)OCC",
        "Molecular Formula": "C<sub>14</sub>H<sub>12</sub>O<sub>4</sub>",
        "Molecular Mass": "244.24",
        "Melting Point": "113-115 °C"
    }
}