{
    "cas_no": "2965-16-4",
    "key_name": "1-(2-Chloro-5-fluorophenyl)ethanone",
    "cn_name": null,
    "alternate_name": "Ethanone, 1-(2-chloro-5-fluorophenyl)-;Acetophenone, 2′-chloro-5′-fluoro-;1-(2-Chloro-5-fluorophenyl)ethanone;2-Chloro-5-fluorophenyl methyl ketone;2′-Chloro-5′-fluoroacetophenone",
    "duplicated_cas_no": "",
    "SMILES": "C(C)(=O)C1=C(Cl)C=CC(F)=C1",
    "meta_data": {
        "InChI": "InChI=1S/C8H6ClFO/c1-5(11)7-4-6(10)2-3-8(7)9/h2-4H,1H3",
        "InChIKey": null,
        "Canonical SMILES": "O=C(C1=CC(F)=CC=C1Cl)C",
        "Molecular Formula": "C<sub>8</sub>H<sub>6</sub>ClFO",
        "Molecular Mass": "172.58",
        "Boiling Point": "77-78 °C @ Press: 4 Torr",
        "Density": "1.2884 g/cm³ @ Temp: 23 °C"
    }
}