{
    "cas_no": "6048-29-9",
    "key_name": "Phosphonium, (2-oxo-2-phenylethyl)triphenyl-, bromide (1:1)",
    "cn_name": "(苯甲酰基甲基)三苯基溴化膦;苯甲酰基甲基三苯基溴化膦;C6H5COCH2P(C6H5)3Br;",
    "alternate_name": "Phosphonium, (2-oxo-2-phenylethyl)triphenyl-, bromide (1:1);Phosphonium, phenacyltriphenyl-, bromide;Phosphonium, (2-oxo-2-phenylethyl)triphenyl-, bromide;Phenacyltriphenylphosphonium bromide;(Benzoylmethyl)triphenylphosphonium bromide;Triphenylphenacylphosphonium bromide",
    "duplicated_cas_no": "2810-05-1;55631-93-1;116287-34-4",
    "SMILES": "[P+](CC(=O)C1=CC=CC=C1)(C2=CC=CC=C2)(C3=CC=CC=C3)C4=CC=CC=C4.[Br-]",
    "meta_data": {
        "InChI": "InChI=1S/C26H22OP.BrH/c27-26(22-13-5-1-6-14-22)21-28(23-15-7-2-8-16-23,24-17-9-3-10-18-24)25-19-11-4-12-20-25;/h1-20H,21H2;1H/q+1;/p-1",
        "InChIKey": null,
        "Canonical SMILES": "[Br-].O=C(C=1C=CC=CC1)C[P+](C=2C=CC=CC2)(C=3C=CC=CC3)C=4C=CC=CC4",
        "Molecular Formula": "C<sub>26</sub>H<sub>22</sub>OP.Br",
        "Molecular Mass": "",
        "Melting Point": "271-272 °C"
    }
}