{
    "cas_no": "1780-17-2",
    "key_name": "2-Quinolinemethanol",
    "cn_name": "2-喹啉基甲醇;2-羟甲基喹啉;",
    "alternate_name": "2-Quinolinemethanol;α-Quinaldinol;2-(Hydroxymethyl)quinoline;2-Quinolylmethanol;NSC 6506;Quinolin-2-ylmethanol",
    "duplicated_cas_no": "",
    "SMILES": "C(O)C1=NC2=C(C=C1)C=CC=C2",
    "meta_data": {
        "InChI": "InChI=1S/C10H9NO/c12-7-9-6-5-8-3-1-2-4-10(8)11-9/h1-6,12H,7H2",
        "InChIKey": null,
        "Canonical SMILES": "OCC1=NC=2C=CC=CC2C=C1",
        "Molecular Formula": "C<sub>10</sub>H<sub>9</sub>NO",
        "Molecular Mass": "159.18",
        "Boiling Point": "205 °C @ Press: 15 Torr",
        "Melting Point": "64 °C"
    }
}