{
    "cas_no": "76610-84-9",
    "key_name": "Cefbuperazone",
    "cn_name": null,
    "alternate_name": "5-Thia-1-azabicyclo[4.2.0]oct-2-ene-2-carboxylic acid, 7-[[(2<em>R</em>,3<em>S</em>)-2-[[(4-ethyl-2,3-dioxo-1-piperazinyl)carbonyl]amino]-3-hydroxy-1-oxobutyl]amino]-7-methoxy-3-[[(1-methyl-1<em>H</em>-tetrazol-5-yl)thio]methyl]-8-oxo-, (6<em>R</em>,7<em>S</em>)-;5-Thia-1-azabicyclo[4.2.0]oct-2-ene-2-carboxylic acid, 7-[[2-[[(4-ethyl-2,3-dioxo-1-piperazinyl)carbonyl]amino]-3-hydroxy-1-oxobutyl]amino]-7-methoxy-3-[[(1-methyl-1<em>H</em>-tetrazol-5-yl)thio]methyl]-8-oxo-, [6<em>R</em>-[6α,7α,7(2<em>R</em>*,3<em>S</em>*)]]-;(6<em>R</em>,7<em>S</em>)-7-[[(2<em>R</em>,3<em>S</em>)-2-[[(4-Ethyl-2,3-dioxo-1-piperazinyl)carbonyl]amino]-3-hydroxy-1-oxobutyl]amino]-7-methoxy-3-[[(1-methyl-1<em>H</em>-tetrazol-5-yl)thio]methyl]-8-oxo-5-thia-1-azabicyclo[4.2.0]oct-2-ene-2-carboxylic acid;Cefbuperazone",
    "duplicated_cas_no": "",
    "SMILES": "N(C([C@H](NC(=O)N1C(=O)C(=O)N(CC)CC1)[C@H](C)O)=O)[C@@]2(OC)[C@@]3(N(C2=O)C(C(O)=O)=C(CSC=4N(C)N=NN4)CS3)[H]",
    "meta_data": {
        "InChI": "InChI=1S/C22H29N9O9S2/c1-5-29-6-7-30(16(35)15(29)34)20(39)23-12(10(2)32)14(33)24-22(40-4)18(38)31-13(17(36)37)11(8-41-19(22)31)9-42-21-25-26-27-28(21)3/h10,12,19,32H,5-9H2,1-4H3,(H,23,39)(H,24,33)(H,36,37)/t10-,12+,19+,22-/m0/s1",
        "InChIKey": null,
        "Canonical SMILES": "O=C(O)C1=C(CSC2=NN=NN2C)CSC3N1C(=O)C3(OC)NC(=O)C(NC(=O)N4C(=O)C(=O)N(CC)CC4)C(O)C",
        "Molecular Formula": "C<sub>22</sub>H<sub>29</sub>N<sub>9</sub>O<sub>9</sub>S<sub>2</sub>",
        "Molecular Mass": "627.65",
        "Melting Point": "118-120 °C"
    }
}