{
    "cas_no": "42149-74-6",
    "key_name": "1-(2-Chloroethoxy)propane",
    "cn_name": "2-丙氧基氯乙烷;",
    "alternate_name": "Propane, 1-(2-chloroethoxy)-;Ether, 2-chloroethyl propyl;1-(2-Chloroethoxy)propane;2-Chloroethyl propyl ether",
    "duplicated_cas_no": "1081566-27-9",
    "SMILES": "O(CCC)CCCl",
    "meta_data": {
        "InChI": "InChI=1S/C5H11ClO/c1-2-4-7-5-3-6/h2-5H2,1H3",
        "InChIKey": null,
        "Canonical SMILES": "ClCCOCCC",
        "Molecular Formula": "C<sub>5</sub>H<sub>11</sub>ClO",
        "Molecular Mass": "122.59",
        "Boiling Point": "47.5 °C @ Press: 40 Torr",
        "Density": "0.9322 g/cm³ @ Temp: 20 °C"
    }
}