{
    "cas_no": "74495-70-8",
    "key_name": "Benzeneacetic acid, α,4-dihydroxy-3-(methoxy-<em>d</em><sub>3</sub>)-",
    "cn_name": "4-羟基-3-(甲氧基-D3)扁桃酸;",
    "alternate_name": "Benzeneacetic acid, α,4-dihydroxy-3-(methoxy-<em>d</em><sub>3</sub>)-",
    "duplicated_cas_no": "",
    "SMILES": "C(C(O)=O)(O)C1=CC(OC([2H])([2H])[2H])=C(O)C=C1",
    "meta_data": {
        "InChI": "InChI=1S/C9H10O5/c1-14-7-4-5(2-3-6(7)10)8(11)9(12)13/h2-4,8,10-11H,1H3,(H,12,13)/i1D3",
        "InChIKey": null,
        "Canonical SMILES": "O=C(O)C(O)C1=CC=C(O)C(OC)=C1",
        "Molecular Formula": "C<sub>9</sub>H<sub>7</sub>D<sub>3</sub>O<sub>5</sub>",
        "Molecular Mass": "",
        "Melting Point": "127-129 °C"
    }
}