{
    "cas_no": "996-70-3",
    "key_name": "1,1,2,2-Ethenetetramine, <em>N</em><sup>1</sup>,<em>N</em><sup>1</sup>,<em>N</em><sup>1′</sup>,<em>N</em><sup>1′</sup>,<em>N</em><sup>2</sup>,<em>N</em><sup>2</sup>,<em>N</em><sup>2′</sup>,<em>N</em><sup>2′</sup>-octamethyl-",
    "cn_name": "四(二甲胺基)乙烯;",
    "alternate_name": "1,1,2,2-Ethenetetramine, <em>N</em><sup>1</sup>,<em>N</em><sup>1</sup>,<em>N</em><sup>1′</sup>,<em>N</em><sup>1′</sup>,<em>N</em><sup>2</sup>,<em>N</em><sup>2</sup>,<em>N</em><sup>2′</sup>,<em>N</em><sup>2′</sup>-octamethyl-;Ethenetetramine, octamethyl-;Tetrakis(dimethylamino)ethylene;TMAE;Tetrakis(dimethylamine)ethylene;Tetrakis(dimethylamino)ethene;1,1,2,2-Tetrakis(dimethylamino)ethene;1-<em>N</em>,1-<em>N</em>,1-<em>N</em>′,1-<em>N</em>′,2-<em>N</em>,2-<em>N</em>,2-<em>N</em>′,2-<em>N</em>′-Octamethylethene-1,1,2,2-tetramine",
    "duplicated_cas_no": "",
    "SMILES": "C(=C(N(C)C)N(C)C)(N(C)C)N(C)C",
    "meta_data": {
        "InChI": "InChI=1S/C10H24N4/c1-11(2)9(12(3)4)10(13(5)6)14(7)8/h1-8H3",
        "InChIKey": null,
        "Canonical SMILES": "C(=C(N(C)C)N(C)C)(N(C)C)N(C)C",
        "Molecular Formula": "C<sub>10</sub>H<sub>24</sub>N<sub>4</sub>",
        "Molecular Mass": "200.32",
        "Boiling Point": "59 °C @ Press: 0.9 Torr",
        "Melting Point": "&gt;200 °C (decomp)",
        "Density": "0.8612 g/cm³ @ Temp: 25 °C"
    }
}