{
    "cas_no": "3289-50-7",
    "key_name": "2,6-Dimethoxy-4-pyrimidinamine",
    "cn_name": "4-氨基-2,6-二甲氧基嘧啶;",
    "alternate_name": "4-Pyrimidinamine, 2,6-dimethoxy-;Pyrimidine, 4-amino-2,6-dimethoxy-;2,6-Dimethoxy-4-pyrimidinamine;2,6-Dimethoxy-4-aminopyrimidine;4-Amino-2,6-dimethoxypyrimidine;NSC 166290;(2,6-Dimethoxypyrimidin-4-yl)amine",
    "duplicated_cas_no": "",
    "SMILES": "O(C)C1=NC(OC)=NC(N)=C1",
    "meta_data": {
        "InChI": "InChI=1S/C6H9N3O2/c1-10-5-3-4(7)8-6(9-5)11-2/h3H,1-2H3,(H2,7,8,9)",
        "InChIKey": null,
        "Canonical SMILES": "N=1C(=NC(N)=CC1OC)OC",
        "Molecular Formula": "C<sub>6</sub>H<sub>9</sub>N<sub>3</sub>O<sub>2</sub>",
        "Molecular Mass": "155.15",
        "Melting Point": "110-140 °C"
    }
}