{
    "cas_no": "3279-07-0",
    "key_name": "4-<em>tert</em>-Butyl-2-nitrophenol",
    "cn_name": "邻硝基对叔丁基苯酚;2-硝基-4-叔丁基苯酚;",
    "alternate_name": "Phenol, 4-(1,1-dimethylethyl)-2-nitro-;Phenol, 4-<em>tert</em>-butyl-2-nitro-;4-(1,1-Dimethylethyl)-2-nitrophenol;4-<em>tert</em>-Butyl-2-nitrophenol;2-Nitro-4-<em>tert</em>-butylphenol;NSC 36629",
    "duplicated_cas_no": "",
    "SMILES": "N(=O)(=O)C1=CC(C(C)(C)C)=CC=C1O",
    "meta_data": {
        "InChI": "InChI=1S/C10H13NO3/c1-10(2,3)7-4-5-9(12)8(6-7)11(13)14/h4-6,12H,1-3H3",
        "InChIKey": null,
        "Canonical SMILES": "O=N(=O)C1=CC(=CC=C1O)C(C)(C)C",
        "Molecular Formula": "C<sub>10</sub>H<sub>13</sub>NO<sub>3</sub>",
        "Molecular Mass": "195.22",
        "Boiling Point": "136-138 °C @ Press: 15-16 Torr",
        "Melting Point": "26.0-26.5 °C"
    }
}