{
    "cas_no": "83055-99-6",
    "key_name": "Bensulfuron-methyl",
    "cn_name": "苄嘧磺隆;3-(4,6-二甲氧基嘧啶-2-基)-1-(2-甲氧基甲酰基苄基)磺酰脲;",
    "alternate_name": "Benzoic acid, 2-[[[[[(4,6-dimethoxy-2-pyrimidinyl)amino]carbonyl]amino]sulfonyl]methyl]-, methyl ester;DPX-F 5384;Londax;Bensulfuron-methyl;F 5384;Mariner;DPX 84;Methyl 2-[(4,6-dimethoxypyrimidin-2-yl)ureidosulfonylmethyl]benzoate;Bianmihuanglong;Methyl 2-[[3-(4,6-dimethoxypyrimidin-2-yl)ureido]sulfonylmethyl]benzoate;Methyl α-((4,6-dimethoxypyrimidin-2-yl)ureidosulfonyl)-<em>o</em>-toluate;Methyl α-(4,6-dimethoxy pyrimidine-2-ylcarbamoylsulfamoyl)-<em>O</em>-toluate",
    "duplicated_cas_no": "96081-37-7;104466-83-3;110280-01-8",
    "SMILES": "C(OC)(=O)C1=C(CS(NC(NC=2N=C(OC)C=C(OC)N2)=O)(=O)=O)C=CC=C1",
    "meta_data": {
        "InChI": "InChI=1S/C16H18N4O7S/c1-25-12-8-13(26-2)18-15(17-12)19-16(22)20-28(23,24)9-10-6-4-5-7-11(10)14(21)27-3/h4-8H,9H2,1-3H3,(H2,17,18,19,20,22)",
        "InChIKey": null,
        "Canonical SMILES": "O=C(OC)C=1C=CC=CC1CS(=O)(=O)NC(=O)NC2=NC(OC)=CC(=N2)OC",
        "Molecular Formula": "C<sub>16</sub>H<sub>18</sub>N<sub>4</sub>O<sub>7</sub>S",
        "Molecular Mass": "410.40",
        "Melting Point": "187 °C"
    }
}