{
    "cas_no": "490-82-4",
    "key_name": "3-[(4-Amino-2-methyl-5-pyrimidinyl)methyl]-5-(2-hydroxyethyl)-4-methyl-2(3<em>H</em>)-thiazolone",
    "cn_name": null,
    "alternate_name": "2(3<em>H</em>)-Thiazolone, 3-[(4-amino-2-methyl-5-pyrimidinyl)methyl]-5-(2-hydroxyethyl)-4-methyl-;4-Thiazolin-2-one, 3-[(4-amino-2-methyl-5-pyrimidinyl)methyl]-5-(2-hydroxyethyl)-4-methyl-;3-[(4-Amino-2-methyl-5-pyrimidinyl)methyl]-5-(2-hydroxyethyl)-4-methyl-2(3<em>H</em>)-thiazolone;Thiamin thiazolone",
    "duplicated_cas_no": "",
    "SMILES": "C(N1C(C)=C(CCO)SC1=O)C=2C(N)=NC(C)=NC2",
    "meta_data": {
        "InChI": "InChI=1S/C12H16N4O2S/c1-7-10(3-4-17)19-12(18)16(7)6-9-5-14-8(2)15-11(9)13/h5,17H,3-4,6H2,1-2H3,(H2,13,14,15)",
        "InChIKey": null,
        "Canonical SMILES": "O=C1SC(=C(N1CC2=CN=C(N=C2N)C)C)CCO",
        "Molecular Formula": "C<sub>12</sub>H<sub>16</sub>N<sub>4</sub>O<sub>2</sub>S",
        "Molecular Mass": "280.35",
        "Melting Point": "237 °C"
    }
}