{
    "cas_no": "2307-10-0",
    "key_name": "<em>S</em>-Propyl thioacetate",
    "cn_name": "硫代乙酸S-正丙酯;硫代乙酸丙酯;",
    "alternate_name": "Ethanethioic acid, <em>S</em>-propyl ester;Acetic acid, thio-, <em>S</em>-propyl ester;<em>S</em>-Propyl thioacetate;Propyl thiolacetate;1-(Propylsulfanyl)ethan-1-one",
    "duplicated_cas_no": "",
    "SMILES": "S(C(C)=O)CCC",
    "meta_data": {
        "InChI": "InChI=1S/C5H10OS/c1-3-4-7-5(2)6/h3-4H2,1-2H3",
        "InChIKey": null,
        "Canonical SMILES": "O=C(SCCC)C",
        "Molecular Formula": "C<sub>5</sub>H<sub>10</sub>OS",
        "Molecular Mass": "118.20",
        "Boiling Point": "135 °C @ Press: 750 Torr",
        "Density": "0.9688 g/cm³ @ Temp: 25 °C"
    }
}