{
    "cas_no": "55580-08-0",
    "key_name": "7-Bromo-3,4-dihydro-1-benzoxepin-5(2<em>H</em>)-one",
    "cn_name": null,
    "alternate_name": "1-Benzoxepin-5(2<em>H</em>)-one, 7-bromo-3,4-dihydro-;7-Bromo-3,4-dihydro-1-benzoxepin-5(2<em>H</em>)-one;7-Bromo-3,4-dihydro-2<em>H</em>-benzo[<em>b</em>]oxepin-5-one;7-Bromo-3,4-dihydrobenzo[<em>b</em>]oxepin-5(2<em>H</em>)-one",
    "duplicated_cas_no": "",
    "SMILES": "O=C1C=2C(=CC=C(Br)C2)OCCC1",
    "meta_data": {
        "InChI": "InChI=1S/C10H9BrO2/c11-7-3-4-10-8(6-7)9(12)2-1-5-13-10/h3-4,6H,1-2,5H2",
        "InChIKey": null,
        "Canonical SMILES": "O=C1C2=CC(Br)=CC=C2OCCC1",
        "Molecular Formula": "C<sub>10</sub>H<sub>9</sub>BrO<sub>2</sub>",
        "Molecular Mass": "241.08",
        "Boiling Point": "104-109 °C @ Press: 0.3 Torr"
    }
}