{
    "cas_no": "118-70-7",
    "key_name": "4,5,6-Pyrimidinetriamine",
    "cn_name": "4,5,6-三氨基嘧啶;4,5,6-三氨基嘧啶;",
    "alternate_name": "4,5,6-Pyrimidinetriamine;Pyrimidine, 4,5,6-triamino-;4,5,6-Triaminopyrimidine;NSC 145059",
    "duplicated_cas_no": "42911-05-7",
    "SMILES": "NC=1C(N)=NC=NC1N",
    "meta_data": {
        "InChI": "InChI=1S/C4H7N5/c5-2-3(6)8-1-9-4(2)7/h1H,5H2,(H4,6,7,8,9)",
        "InChIKey": null,
        "Canonical SMILES": "N=1C=NC(N)=C(N)C1N",
        "Molecular Formula": "C<sub>4</sub>H<sub>7</sub>N<sub>5</sub>",
        "Molecular Mass": "125.13",
        "Melting Point": "257 °C (decomp)"
    }
}