{
    "cas_no": "28610-31-3",
    "key_name": "Desmethylicaritin",
    "cn_name": null,
    "alternate_name": "4<em>H</em>-1-Benzopyran-4-one, 3,5,7-trihydroxy-2-(4-hydroxyphenyl)-8-(3-methyl-2-buten-1-yl)-;Flavone, 3,4′,5,7-tetrahydroxy-8-(3-methyl-2-butenyl)-;4<em>H</em>-1-Benzopyran-4-one, 3,5,7-trihydroxy-2-(4-hydroxyphenyl)-8-(3-methyl-2-butenyl)-;3,5,7-Trihydroxy-2-(4-hydroxyphenyl)-8-(3-methyl-2-buten-1-yl)-4<em>H</em>-1-benzopyran-4-one;Noranhydroicaritin;De-<em>O</em>-methylanhydroicaritin;8-Prenylkaempferol;Desmethylicaritin;4′-Desmethylicaritin;8-<em>C</em>-Prenylkaempferol;Desmethylanhydroicaritin;3,5,7-Trihydroxy-2-(4-hydroxyphenyl)-8-(3-methylbut-2-enyl)chromen-4-one",
    "duplicated_cas_no": "",
    "SMILES": "C(C=C(C)C)C1=C2C(C(=O)C(O)=C(O2)C3=CC=C(O)C=C3)=C(O)C=C1O",
    "meta_data": {
        "InChI": "InChI=1S/C20H18O6/c1-10(2)3-8-13-14(22)9-15(23)16-17(24)18(25)19(26-20(13)16)11-4-6-12(21)7-5-11/h3-7,9,21-23,25H,8H2,1-2H3",
        "InChIKey": null,
        "Canonical SMILES": "O=C1C(O)=C(OC=2C1=C(O)C=C(O)C2CC=C(C)C)C=3C=CC(O)=CC3",
        "Molecular Formula": "C<sub>20</sub>H<sub>18</sub>O<sub>6</sub>",
        "Molecular Mass": "354.35",
        "Melting Point": "226 °C"
    }
}