{
    "cas_no": "85006-25-3",
    "key_name": "<em>N</em>,<em>O</em>-Bis(<em>tert</em>-butoxycarbonyl)hydroxylamine",
    "cn_name": "N,O-二-Boc-羟胺;",
    "alternate_name": "Carbonic acid, [[(1,1-dimethylethoxy)carbonyl]azanyl] 1,1-dimethylethyl ester;Carbamic acid, [[(1,1-dimethylethoxy)carbonyl]oxy]-, 1,1-dimethylethyl ester;Carbamic acid, (<em>tert</em>-butoxycarbonyloxy)-, <em>tert</em>-butyl ester;<em>N</em>,<em>O</em>-Bis(<em>tert</em>-butoxycarbonyl)hydroxylamine;<em>tert</em>-Butyl <em>N</em>-(<em>tert</em>-butoxycarbonyloxy)carbamate;<em>tert</em>-Butyl (<em>tert</em>-butoxycarbonyloxy)carbamate;<em>N</em>,<em>O</em>-(<em>tert</em>-Butoxycarbonyl)hydroxylamine;[(<em>tert</em>-Butoxycarbonyl)oxy]carbamic acid <em>tert</em>-butyl ester;2-[[([[(<em>tert</em>-Butoxy)carbonyl]amino]oxy)carbonyl]oxy]-2-methylpropane",
    "duplicated_cas_no": "",
    "SMILES": "O(C(C)(C)C)C(NOC(OC(C)(C)C)=O)=O",
    "meta_data": {
        "InChI": "InChI=1S/C10H19NO5/c1-9(2,3)14-7(12)11-16-8(13)15-10(4,5)6/h1-6H3,(H,11,12)",
        "InChIKey": null,
        "Canonical SMILES": "O=C(ONC(=O)OC(C)(C)C)OC(C)(C)C",
        "Molecular Formula": "C<sub>10</sub>H<sub>19</sub>NO<sub>5</sub>",
        "Molecular Mass": "233.26",
        "Melting Point": "67-69 °C"
    }
}