{
    "cas_no": "2157-39-3",
    "key_name": "5-Chloro-1,3-benzenedicarboxylic acid",
    "cn_name": null,
    "alternate_name": "1,3-Benzenedicarboxylic acid, 5-chloro-;Isophthalic acid, 5-chloro-;5-Chloro-1,3-benzenedicarboxylic acid;5-Chloroisophthalic acid;3-Carboxy-5-chlorobenzoic acid",
    "duplicated_cas_no": "2757338-07-9",
    "SMILES": "C(O)(=O)C1=CC(C(O)=O)=CC(Cl)=C1",
    "meta_data": {
        "InChI": "InChI=1S/C8H5ClO4/c9-6-2-4(7(10)11)1-5(3-6)8(12)13/h1-3H,(H,10,11)(H,12,13)",
        "InChIKey": null,
        "Canonical SMILES": "O=C(O)C1=CC(Cl)=CC(=C1)C(=O)O",
        "Molecular Formula": "C<sub>8</sub>H<sub>5</sub>ClO<sub>4</sub>",
        "Molecular Mass": "200.58",
        "Melting Point": "279-280 °C"
    }
}