{
    "cas_no": "122320-73-4",
    "key_name": "Rosiglitazone",
    "cn_name": "罗格列酮;5-[[4-[2-(甲基-2-吡啶氨基)乙氧基]苯基]甲基]-2,4-噻唑烷二酮;",
    "alternate_name": "2,4-Thiazolidinedione, 5-[[4-[2-(methyl-2-pyridinylamino)ethoxy]phenyl]methyl]-;5-[[4-[2-(Methyl-2-pyridinylamino)ethoxy]phenyl]methyl]-2,4-thiazolidinedione;BRL 49653;Rosiglitazone;5-[4-[2-(<em>N</em>-Methyl-<em>N</em>-(2-pyridyl)amino)ethoxy]benzyl]thiazolidine-2,4-dione;Rosiglizole;5-[[4-[2-[<em>N</em>-Methyl-<em>N</em>-(2-pyridyl)amino]ethoxy]phenyl]methyl]thiazolidine-2,4-dione;TDZ 01;Rezult;Rosvel;Venvia;Nyracta",
    "duplicated_cas_no": "",
    "SMILES": "C(C1SC(=O)NC1=O)C2=CC=C(OCCN(C)C3=CC=CC=N3)C=C2",
    "meta_data": {
        "InChI": "InChI=1S/C18H19N3O3S/c1-21(16-4-2-3-9-19-16)10-11-24-14-7-5-13(6-8-14)12-15-17(22)20-18(23)25-15/h2-9,15H,10-12H2,1H3,(H,20,22,23)",
        "InChIKey": null,
        "Canonical SMILES": "O=C1SC(C(=O)N1)CC2=CC=C(OCCN(C3=NC=CC=C3)C)C=C2",
        "Molecular Formula": "C<sub>18</sub>H<sub>19</sub>N<sub>3</sub>O<sub>3</sub>S",
        "Molecular Mass": "357.43",
        "Melting Point": "151-153 °C"
    }
}