{
    "cas_no": "5108-96-3",
    "key_name": "Ammonium 1-pyrrolidinedithiocarboxylate",
    "cn_name": "吡咯烷二硫代甲酸铵盐;",
    "alternate_name": "1-Pyrrolidinecarbodithioic acid, ammonium salt (1:1);1-Pyrrolidinecarbodithioic acid, ammonium salt;Ammonium 1-pyrrolidinecarbodithioate;Ammonium 1-pyrrolidinedithiocarboxylate;Ammonium pyrrolidinecarbodithioate;Ammonium <em>N</em>,<em>N</em>-tetramethylenedithiocarbamate;Ammonium pyrrolidinedithiocarboxylate;APDC;Ammonium pyrrolidine-1-dithiocarbamate;Ammonium pyrrolidine-<em>N</em>-dithiocarbamate;1-Pyrrolidinedithiocarboxylic acid ammonium salt",
    "duplicated_cas_no": "31097-06-0;33497-70-0;50732-69-9;149765-68-4;74776-29-7",
    "SMILES": "C(=S)(S)N1CCCC1.N",
    "meta_data": {
        "InChI": "InChI=1S/C5H9NS2.H3N/c7-5(8)6-3-1-2-4-6;/h1-4H2,(H,7,8);1H3",
        "InChIKey": null,
        "Canonical SMILES": "S=C(S)N1CCCC1.N",
        "Molecular Formula": "C<sub>5</sub>H<sub>9</sub>NS<sub>2</sub>.H<sub>3</sub>N",
        "Molecular Mass": "",
        "Melting Point": "142-143 °C"
    }
}