{
    "cas_no": "5234-26-4",
    "key_name": "<em>N</em>-(2-Acetylphenyl)acetamide",
    "cn_name": null,
    "alternate_name": "Acetamide, <em>N</em>-(2-acetylphenyl)-;Acetanilide, 2′-acetyl-;<em>N</em>-(2-Acetylphenyl)acetamide;<em>o</em>-Acetamidoacetophenone;2′-Acetylacetanilide;2′-Acetamidoacetophenone;2′-(Acetylamino)acetophenone;NSC 12469;<em>N</em>-(<em>o</em>-Acetylphenyl)acetamide;2′-(<em>N</em>-Acetylamino)acetophenone",
    "duplicated_cas_no": "",
    "SMILES": "C(C)(=O)C1=C(NC(C)=O)C=CC=C1",
    "meta_data": {
        "InChI": "InChI=1S/C10H11NO2/c1-7(12)9-5-3-4-6-10(9)11-8(2)13/h3-6H,1-2H3,(H,11,13)",
        "InChIKey": null,
        "Canonical SMILES": "O=C(NC=1C=CC=CC1C(=O)C)C",
        "Molecular Formula": "C<sub>10</sub>H<sub>11</sub>NO<sub>2</sub>",
        "Molecular Mass": "177.20",
        "Melting Point": "77 °C"
    }
}