{
    "cas_no": "5961-85-3",
    "key_name": "Tris(2-carboxyethyl)phosphine",
    "cn_name": null,
    "alternate_name": "Propanoic acid, 3,3′,3′′-phosphinidynetris-;Propionic acid, 3,3′,3′′-phosphinidynetri-;3,3′,3′′-Phosphinidynetris[propanoic acid];Phosphine, tris(2-carboxyethyl)-;Tris(carboxyethyl)phosphine;Tris(2-carboxyethyl)phosphine;3,3′,3′′-Phosphinidynetripropionic acid;TCEP;3,3′,3′′-Phosphinetriyltripropanoicacid",
    "duplicated_cas_no": "",
    "SMILES": "P(CCC(O)=O)(CCC(O)=O)CCC(O)=O",
    "meta_data": {
        "InChI": "InChI=1S/C9H15O6P/c10-7(11)1-4-16(5-2-8(12)13)6-3-9(14)15/h1-6H2,(H,10,11)(H,12,13)(H,14,15)",
        "InChIKey": null,
        "Canonical SMILES": "O=C(O)CCP(CCC(=O)O)CCC(=O)O",
        "Molecular Formula": "C<sub>9</sub>H<sub>15</sub>O<sub>6</sub>P",
        "Molecular Mass": "250.19",
        "Boiling Point": "193-194 °C @ Press: 1 Torr"
    }
}