{
    "cas_no": "4667-99-6",
    "key_name": "Chlorotriethoxysilane",
    "cn_name": "氯三乙氧基硅烷;",
    "alternate_name": "Silane, chlorotriethoxy-;Chlorotriethoxysilane;Triethoxychlorosilane;Monochlorotriethoxysilane",
    "duplicated_cas_no": "",
    "SMILES": "[Si](OCC)(OCC)(OCC)Cl",
    "meta_data": {
        "InChI": "InChI=1S/C6H15ClO3Si/c1-4-8-11(7,9-5-2)10-6-3/h4-6H2,1-3H3",
        "InChIKey": null,
        "Canonical SMILES": "Cl[Si](OCC)(OCC)OCC",
        "Molecular Formula": "C<sub>6</sub>H<sub>15</sub>ClO<sub>3</sub>Si",
        "Molecular Mass": "198.72",
        "Boiling Point": "156 °C",
        "Melting Point": "-51 °C",
        "Density": "1.012 g/cm³ @ Temp: 25 °C"
    }
}