{
    "cas_no": "4774-14-5",
    "key_name": "2,6-Dichloropyrazine",
    "cn_name": "2,6-二氯吡嗪;",
    "alternate_name": "Pyrazine, 2,6-dichloro-;2,6-Dichloropyrazine;<em>m</em>-Dichloropyrazine",
    "duplicated_cas_no": "1215876-94-0",
    "SMILES": "ClC1=NC(Cl)=CN=C1",
    "meta_data": {
        "InChI": "InChI=1S/C4H2Cl2N2/c5-3-1-7-2-4(6)8-3/h1-2H",
        "InChIKey": null,
        "Canonical SMILES": "ClC=1N=C(Cl)C=NC1",
        "Molecular Formula": "C<sub>4</sub>H<sub>2</sub>Cl<sub>2</sub>N<sub>2</sub>",
        "Molecular Mass": "148.98",
        "Boiling Point": "94-107 °C @ Press: 50 Torr",
        "Melting Point": "55-58 °C"
    }
}