{
    "cas_no": "7719-12-2",
    "key_name": "Phosphorus trichloride",
    "cn_name": "三氯化磷;",
    "alternate_name": "Phosphorous trichloride;Phosphorus chloride (PCl<sub>3</sub>);Phosphorous chloride;Phosphine, trichloro-;Trichlorophosphine;Phosphorus chloride (Cl<sub>6</sub>P<sub>2</sub>);Phosphorus trichloride;Phosphanyl trichloride",
    "duplicated_cas_no": "11082-95-4",
    "SMILES": "P(Cl)(Cl)Cl",
    "meta_data": {
        "InChI": "InChI=1S/Cl3P/c1-4(2)3",
        "InChIKey": null,
        "Canonical SMILES": "ClP(Cl)Cl",
        "Molecular Formula": "Cl<sub>3</sub>P",
        "Molecular Mass": "137.33",
        "Boiling Point": "76 °C",
        "Melting Point": "-112 °C",
        "Density": "1.574 g/cm³ @ Temp: 21 °C"
    }
}