{
    "cas_no": "151-83-7",
    "key_name": "2,4,6(1<em>H</em>,3<em>H</em>,5<em>H</em>)-Pyrimidinetrione, 1-methyl-5-(1-methyl-2-pentynyl)-5-(2-propenyl)-",
    "cn_name": "美索比妥;5-烯丙基-1-甲基-5-(1-甲基-2-戊炔基)巴比妥酸;",
    "alternate_name": "2,4,6(1<em>H</em>,3<em>H</em>,5<em>H</em>)-Pyrimidinetrione, 1-methyl-5-(1-methyl-2-pentyn-1-yl)-5-(2-propen-1-yl)-;Barbituric acid, 5-allyl-1-methyl-5-(1-methyl-2-pentynyl)-;2,4,6(1<em>H</em>,3<em>H</em>,5<em>H</em>)-Pyrimidinetrione, 1-methyl-5-(1-methyl-2-pentynyl)-5-(2-propenyl)-;1-Methyl-5-(1-methyl-2-pentyn-1-yl)-5-(2-propen-1-yl)-2,4,6(1<em>H</em>,3<em>H</em>,5<em>H</em>)-pyrimidinetrione;5-Allyl-5-(3-hexyn-2-yl)-1-methylbarbituric acid;Compound 22451;Compound 25398;Methodrexitone;Methohexital;Methohexitone;Brietal;Brevital;Enallynymall;MeSH ID: D008723",
    "duplicated_cas_no": "115621-33-5;7187-72-6;18652-93-2",
    "SMILES": "C(C#CCC)(C)C1(CC=C)C(=O)N(C)C(=O)NC1=O",
    "meta_data": {
        "InChI": "InChI=1S/C14H18N2O3/c1-5-7-8-10(3)14(9-6-2)11(17)15-13(19)16(4)12(14)18/h6,10H,2,5,9H2,1,3-4H3,(H,15,17,19)",
        "InChIKey": null,
        "Canonical SMILES": "O=C1NC(=O)C(C(=O)N1C)(CC=C)C(C#CCC)C",
        "Molecular Formula": "C<sub>14</sub>H<sub>18</sub>N<sub>2</sub>O<sub>3</sub>",
        "Molecular Mass": "262.30",
        "Melting Point": "96 °C"
    }
}