{
    "cas_no": "13989-82-7",
    "key_name": "4-(Dimethylamino)butanenitrile",
    "cn_name": null,
    "alternate_name": "Butanenitrile, 4-(dimethylamino)-;Butyronitrile, 4-(dimethylamino)-;4-(Dimethylamino)butanenitrile;4-(Dimethylamino)butyronitrile;NSC 163159",
    "duplicated_cas_no": "",
    "SMILES": "C(CCC#N)N(C)C",
    "meta_data": {
        "InChI": "InChI=1S/C6H12N2/c1-8(2)6-4-3-5-7/h3-4,6H2,1-2H3",
        "InChIKey": null,
        "Canonical SMILES": "N#CCCCN(C)C",
        "Molecular Formula": "C<sub>6</sub>H<sub>12</sub>N<sub>2</sub>",
        "Molecular Mass": "112.17",
        "Boiling Point": "187 °C @ Press: 761 Torr",
        "Density": "0.870 g/cm³ @ Temp: 20 °C"
    }
}