{
    "cas_no": "4151-97-7",
    "key_name": "1-Chloro-3-methoxy-2-propanol",
    "cn_name": "1-氯-3-甲氧基-2-丙醇;3-氯-1-甲氧基-2-丙醇;",
    "alternate_name": "2-Propanol, 1-chloro-3-methoxy-;1-Chloro-3-methoxy-2-propanol;3-Methoxy-1-chloro-2-propanol;3-Methoxy-2-hydroxypropyl chloride;2-Hydroxy-3-methoxypropyl chloride;1-Methoxy-2-hydroxy-3-chloropropane;NSC 166627;NSC 65872;3-Chloro-1-methoxy-2-propanol;3-Chloro-2-hydroxypropyl methyl ether",
    "duplicated_cas_no": "98923-36-5;116326-08-0",
    "SMILES": "C(COC)(CCl)O",
    "meta_data": {
        "InChI": "InChI=1S/C4H9ClO2/c1-7-3-4(6)2-5/h4,6H,2-3H2,1H3",
        "InChIKey": null,
        "Canonical SMILES": "ClCC(O)COC",
        "Molecular Formula": "C<sub>4</sub>H<sub>9</sub>ClO<sub>2</sub>",
        "Molecular Mass": "124.57",
        "Boiling Point": "173 °C",
        "Density": "1.1832 g/cm³ @ Temp: 20 °C"
    }
}