{
    "cas_no": "6758-40-3",
    "key_name": "<em>N</em>-(4-Nitrobenzoyl)-<span class=\"text-smallcaps\">L</span>-glutamic acid",
    "cn_name": "N-对硝基苯甲酰谷氨酸;N-(4-硝基苯甲酰)谷氨酸;",
    "alternate_name": "<span class=\"text-smallcaps\">L</span>-Glutamic acid, <em>N</em>-(4-nitrobenzoyl)-;Glutamic acid, <em>N</em>-(<em>p</em>-nitrobenzoyl)-, <span class=\"text-smallcaps\">L</span>-;<em>N</em>-(4-Nitrobenzoyl)-<span class=\"text-smallcaps\">L</span>-glutamic acid;<em>p</em>-Nitrobenzoyl-<span class=\"text-smallcaps\">L</span>-glutamic acid;<em>p</em>-Nitrobenzoylglutamic acid;<em>N</em>-(<em>p</em>-Nitrobenzoyl)-<span class=\"text-smallcaps\">L</span>(+)-glutamic acid;NSC 17156;NSC 83096;(<em>S</em>)-2-(4-Nitrobenzamido)pentanedioic acid;(2S)-2-[(4-Nitrophenyl)formamido]pentanedioic acid",
    "duplicated_cas_no": "",
    "SMILES": "C(N[C@@H](CCC(O)=O)C(O)=O)(=O)C1=CC=C(N(=O)=O)C=C1",
    "meta_data": {
        "InChI": "InChI=1S/C12H12N2O7/c15-10(16)6-5-9(12(18)19)13-11(17)7-1-3-8(4-2-7)14(20)21/h1-4,9H,5-6H2,(H,13,17)(H,15,16)(H,18,19)/t9-/m0/s1",
        "InChIKey": null,
        "Canonical SMILES": "O=C(O)CCC(NC(=O)C1=CC=C(C=C1)N(=O)=O)C(=O)O",
        "Molecular Formula": "C<sub>12</sub>H<sub>12</sub>N<sub>2</sub>O<sub>7</sub>",
        "Molecular Mass": "296.23",
        "Melting Point": "113 °C"
    }
}