{
    "cas_no": "72-33-3",
    "key_name": "Mestranol",
    "cn_name": "美雌醇;炔雌醇甲醚;",
    "alternate_name": "19-Norpregna-1,3,5(10)-trien-20-yn-17-ol, 3-methoxy-, (17α)-;19-Nor-17α-pregna-1,3,5(10)-trien-20-yn-17-ol, 3-methoxy-;(17α)-3-Methoxy-19-norpregna-1,3,5(10)-trien-20-yn-17-ol;33355;Ethynylestradiol 3-methyl ether;17α-Ethynylestradiol 3-methyl ether;17-Ethynyl-3-methoxy-1,3,5(10)-estratrien-17β-o1;17α-Ethynyl-3-methoxy-17β-hydroxy-Δ<sup>1,3,5(10)</sup>-estratriene;Mestranol;3-Methoxy-17α-ethinylestradiol;3-Methoxyethynylestradiol;3-Methoxy-19-nor-17α-pregna-1,3,5(10)-trien-20-yn-17-ol;δ-MVE;3-Methoxy-17α-ethynylestradiol;SC 4725;17α-Ethinylestradiol 3-methyl ether;Ethinylestradiol 3-methyl ether;3-Methoxy-19-nor-17α-pregna-1,3,5(10)-trien-20-yn-17β-ol;17α-Ethynylestradiol methyl ether;17-Ethynylestradiol 3-methyl ether;17-Ethynyl-3-methoxyestra-1,3,5(10)-trien-17β-ol;17α-Ethynyl-3-methoxy-1,3,5(10)-estratrien-17β-ol;Norquen;Ovastol;3-Methylethynylestradiol;Ethynylestradiol methyl ether;3-<em>O</em>-Methylethynylestradiol;8027 C. B.;Devocin;Inostral;Ethynylestradiol 3-monomethyl ether;Menophase;EE 3ME;NSC 84032;3-<em>O</em>-Methyl-17α-ethynylestradiol;(8R,9S,13S,14S,17R)-17-Ethynyl-3-methoxy-13-methyl-7,8,9,11,12,13,14,15,16,17-decahydro-6<em>H</em>-cyclopenta[<em>a</em>]phenanthren-17-ol;MeSH ID: D008656",
    "duplicated_cas_no": "43085-54-7;53445-46-8",
    "SMILES": "C[C@@]12[C@]([C@]3([C@@](C=4C(CC3)=CC(OC)=CC4)(CC1)[H])[H])(CC[C@]2(C#C)O)[H]",
    "meta_data": {
        "InChI": "InChI=1S/C21H26O2/c1-4-21(22)12-10-19-18-7-5-14-13-15(23-3)6-8-16(14)17(18)9-11-20(19,21)2/h1,6,8,13,17-19,22H,5,7,9-12H2,2-3H3/t17-,18-,19+,20+,21+/m1/s1",
        "InChIKey": null,
        "Canonical SMILES": "C#CC1(O)CCC2C3CCC4=CC(OC)=CC=C4C3CCC21C",
        "Molecular Formula": "C<sub>21</sub>H<sub>26</sub>O<sub>2</sub>",
        "Molecular Mass": "310.43",
        "Melting Point": "150-151 °C"
    }
}