{
    "cas_no": "2511-22-0",
    "key_name": "Methyl 3,5-bis(1,1-dimethylethyl)-4-hydroxybenzoate",
    "cn_name": "3,5-二叔丁基-4-羟基苯甲酸甲酯;3,5-二叔丁基-4-羟基苯甲酸甲酯;",
    "alternate_name": "Benzoic acid, 3,5-bis(1,1-dimethylethyl)-4-hydroxy-, methyl ester;Benzoic acid, 3,5-di-<em>tert</em>-butyl-4-hydroxy-, methyl ester;Methyl 3,5-bis(1,1-dimethylethyl)-4-hydroxybenzoate;Methyl 3,5-Di-<em>tert</em>-butyl-4-hydroxybenzoate;3,5-Di-<em>tert</em>-butyl-4-hydroxybenzoic acid methyl ester;4-(Methoxycarbonyl)-2,6-di-<em>tert</em>-butylphenol;2,6-Di-<em>tert</em>-butyl-4-methoxycarbonylphenol",
    "duplicated_cas_no": "",
    "SMILES": "C(C)(C)(C)C1=C(O)C(C(C)(C)C)=CC(C(OC)=O)=C1",
    "meta_data": {
        "InChI": "InChI=1S/C16H24O3/c1-15(2,3)11-8-10(14(18)19-7)9-12(13(11)17)16(4,5)6/h8-9,17H,1-7H3",
        "InChIKey": null,
        "Canonical SMILES": "O=C(OC)C=1C=C(C(O)=C(C1)C(C)(C)C)C(C)(C)C",
        "Molecular Formula": "C<sub>16</sub>H<sub>24</sub>O<sub>3</sub>",
        "Molecular Mass": "264.36",
        "Melting Point": "87-88 °C"
    }
}