{
    "cas_no": "5284-79-7",
    "key_name": "2,6-Bis(4′-azidobenzylidene)-4-methylcyclohexanone",
    "cn_name": "2,6-二[(4-叠氮基苯基)亚甲基]-4-甲基-环己酮;",
    "alternate_name": "Cyclohexanone, 2,6-bis[(4-azidophenyl)methylene]-4-methyl-;Cyclohexanone, 2,6-bis(<em>p</em>-azidobenzylidene)-4-methyl-;2,6-Bis[(4-azidophenyl)methylene]-4-methylcyclohexanone;1,3-Bis(<em>p</em>-azidobenzylidene)-5-methylcyclohexan-2-one;2,6-Bis(4-azidobenzylidene)-4-methylcyclohexanone;2,6-Bis(4′-azidobenzal)-4-methylcyclohexanone;2,6-Bis(<em>p</em>-azidobenzylidene)-4-methylcyclohexanone;2,6-Bis(4-azidobenzal)-4-methylcyclohexanone;2,6-Bis(<em>p</em>-azidobenzal)-4-methylcyclohexanone;2,6-Di(4-azidobenzylidene)-4-methylcyclohexanone;2,6-Bis(4′-azidobenzylidene)-4-methylcyclohexanone;4-Methyl-2,6-bis(4′-azidobenzylidene)cyclohexan-1-one;A 016;BAC-M (light absorber);2,6-Bis(4-azidobenzylidene)-4-methylcyclohexan-1-one",
    "duplicated_cas_no": "",
    "SMILES": "C(=C1C(=O)C(=CC2=CC=C(N=[N+]=[N-])C=C2)CC(C)C1)C3=CC=C(N=[N+]=[N-])C=C3",
    "meta_data": {
        "InChI": "InChI=1S/C21H18N6O/c1-14-10-17(12-15-2-6-19(7-3-15)24-26-22)21(28)18(11-14)13-16-4-8-20(9-5-16)25-27-23/h2-9,12-14H,10-11H2,1H3",
        "InChIKey": null,
        "Canonical SMILES": "[N-]=[N+]=NC1=CC=C(C=C1)C=C2C(=O)C(=CC3=CC=C(N=[N+]=[N-])C=C3)CC(C)C2",
        "Molecular Formula": "C<sub>21</sub>H<sub>18</sub>N<sub>6</sub>O",
        "Molecular Mass": "",
        "Melting Point": "121 °C"
    }
}