{
    "cas_no": "2374-14-3",
    "key_name": "2,4,6-Trimethyl-2,4,6-tris(3,3,3-trifluoropropyl)cyclotrisiloxane",
    "cn_name": "三氟丙基甲基环三硅氧烷;",
    "alternate_name": "Cyclotrisiloxane, 2,4,6-trimethyl-2,4,6-tris(3,3,3-trifluoropropyl)-;2,4,6-Trimethyl-2,4,6-tris(3,3,3-trifluoropropyl)cyclotrisiloxane;1,3,5-Tris(3,3,3-trifluoropropyl)-1,3,5-trimethylcyclotrisiloxane;Tris-3,3,3-trifluoropropyltrimethylcyclotrisiloxane;1,3,5-Trimethyl-1,3,5-tris(3,3,3-trifluoropropyl)cyclotrisiloxane;(3,3,3-Trifluoropropyl)methylsiloxane cyclic trimer;LS 8220;D 3F;2,4,6-Trimethyl-2,4,6-tris(3,3,3-trifluoropropyl)-1,3,5,2,4,6-trioxatrisilinane",
    "duplicated_cas_no": "",
    "SMILES": "C(CC(F)(F)F)[Si]1(C)O[Si](CCC(F)(F)F)(C)O[Si](CCC(F)(F)F)(C)O1",
    "meta_data": {
        "InChI": "InChI=1S/C12H21F9O3Si3/c1-25(7-4-10(13,14)15)22-26(2,8-5-11(16,17)18)24-27(3,23-25)9-6-12(19,20)21/h4-9H2,1-3H3",
        "InChIKey": null,
        "Canonical SMILES": "FC(F)(F)CC[Si]1(O[Si](O[Si](O1)(C)CCC(F)(F)F)(C)CCC(F)(F)F)C",
        "Molecular Formula": "C<sub>12</sub>H<sub>21</sub>F<sub>9</sub>O<sub>3</sub>Si<sub>3</sub>",
        "Molecular Mass": "468.54",
        "Boiling Point": "95 °C @ Press: 3 Torr",
        "Melting Point": "35.2 °C",
        "Density": "1.241 g/cm³ @ Temp: 26 °C"
    }
}