{
    "cas_no": "104759-35-5",
    "key_name": "Ganoderic acid S",
    "cn_name": null,
    "alternate_name": "Lanosta-7,9(11),24-trien-26-oic acid, 3-oxo-, (24<em>E</em>)-;(24<em>E</em>)-3-Oxolanosta-7,9(11),24-trien-26-oic acid;Ganoderic acid S;Ganoderic acid S1",
    "duplicated_cas_no": "",
    "SMILES": "C[C@]12C=3C([C@]4(C)[C@@](CC3)(C(C)(C)C(=O)CC4)[H])=CC[C@]1(C)[C@@]([C@@H](CC/C=C(/C(O)=O)\\C)C)(CC2)[H]",
    "meta_data": {
        "InChI": "InChI=1S/C30H44O3/c1-19(9-8-10-20(2)26(32)33)21-13-17-30(7)23-11-12-24-27(3,4)25(31)15-16-28(24,5)22(23)14-18-29(21,30)6/h10-11,14,19,21,24H,8-9,12-13,15-18H2,1-7H3,(H,32,33)/b20-10+/t19-,21-,24+,28-,29-,30+/m1/s1",
        "InChIKey": null,
        "Canonical SMILES": "O=C(O)C(=CCCC(C)C1CCC2(C3=CCC4C(C(=O)CCC4(C3=CCC12C)C)(C)C)C)C",
        "Molecular Formula": "C<sub>30</sub>H<sub>44</sub>O<sub>3</sub>",
        "Molecular Mass": "452.67",
        "Melting Point": "168-169 °C"
    }
}