{
    "cas_no": "467-69-6",
    "key_name": "Flurenol",
    "cn_name": "9-羟基-9-芴甲酸;",
    "alternate_name": "9<em>H</em>-Fluorene-9-carboxylic acid, 9-hydroxy-;Fluorene-9-carboxylic acid, 9-hydroxy-;9-Hydroxy-9<em>H</em>-fluorene-9-carboxylic acid;9-Hydroxyfluorene-9-carboxylic acid;Flurenol;Flurecol;9-Carboxy-9-hydroxyfluorene;9-Hydroxy-9-carboxyfluorene;NSC 97576",
    "duplicated_cas_no": "",
    "SMILES": "C(O)(=O)C1(O)C=2C(C=3C1=CC=CC3)=CC=CC2",
    "meta_data": {
        "InChI": "InChI=1S/C14H10O3/c15-13(16)14(17)11-7-3-1-5-9(11)10-6-2-4-8-12(10)14/h1-8,17H,(H,15,16)",
        "InChIKey": null,
        "Canonical SMILES": "O=C(O)C1(O)C=2C=CC=CC2C=3C=CC=CC31",
        "Molecular Formula": "C<sub>14</sub>H<sub>10</sub>O<sub>3</sub>",
        "Molecular Mass": "226.23",
        "Melting Point": "165 °C (decomp)"
    }
}