{
    "cas_no": "65646-68-6",
    "key_name": "Fenretinide",
    "cn_name": "维甲酰酚胺;",
    "alternate_name": "Retinamide, <em>N</em>-(4-hydroxyphenyl)-;<em>N</em>-(4-Hydroxyphenyl)retinamide;<em>N</em>-(4-Hydroxyphenyl)-<em>all</em>-<em>trans</em>-retinamide;Retinoic acid <em>p</em>-hydroxyphenylamide;Fenretinide;<em>all</em>-<em>trans</em>-<em>N</em>-(4-Hydroxyphenyl)retinamide;(4-Hydroxyphenyl)retinamide;Ro 22-4667;4-HPR;<em>all</em>-<em>trans</em>-4′-Hydroxyretinanilide;RII retinamide;MK 4016;Retinoic acid <em>p</em>-hydroxyanilide;ST-001 nanoFenretinide;MeSH ID: D017313",
    "duplicated_cas_no": "1006055-28-2;2321387-54-4",
    "SMILES": "C(=C/C(=C/C=C/C(=C/C(NC1=CC=C(O)C=C1)=O)/C)/C)\\C=2C(C)(C)CCCC2C",
    "meta_data": {
        "InChI": "InChI=1S/C26H33NO2/c1-19(11-16-24-21(3)10-7-17-26(24,4)5)8-6-9-20(2)18-25(29)27-22-12-14-23(28)15-13-22/h6,8-9,11-16,18,28H,7,10,17H2,1-5H3,(H,27,29)/b9-6+,16-11+,19-8+,20-18+",
        "InChIKey": null,
        "Canonical SMILES": "O=C(C=C(C=CC=C(C=CC1=C(C)CCCC1(C)C)C)C)NC2=CC=C(O)C=C2",
        "Molecular Formula": "C<sub>26</sub>H<sub>33</sub>NO<sub>2</sub>",
        "Molecular Mass": "391.55",
        "Melting Point": "173-175 °C"
    }
}