{
    "cas_no": "2486-70-6",
    "key_name": "4-Amino-3-methylbenzoic acid",
    "cn_name": "4-氨基-3-甲基苯甲酸;3-甲基-4-氨基苯甲酸;",
    "alternate_name": "Benzoic acid, 4-amino-3-methyl-;<em>m</em>-Toluic acid, 4-amino-;4-Amino-3-methylbenzoic acid;3-Methyl-4-aminobenzoic acid;NSC 227945;BTS 28369;4-Amino-5-methylbenzoic acid",
    "duplicated_cas_no": "134191-25-6",
    "SMILES": "C(O)(=O)C1=CC(C)=C(N)C=C1",
    "meta_data": {
        "InChI": "InChI=1S/C8H9NO2/c1-5-4-6(8(10)11)2-3-7(5)9/h2-4H,9H2,1H3,(H,10,11)",
        "InChIKey": null,
        "Canonical SMILES": "O=C(O)C1=CC=C(N)C(=C1)C",
        "Molecular Formula": "C<sub>8</sub>H<sub>9</sub>NO<sub>2</sub>",
        "Molecular Mass": "151.16",
        "Melting Point": "169-170 °C"
    }
}