{
    "cas_no": "587-23-5",
    "key_name": "Methenamine mandelate",
    "cn_name": null,
    "alternate_name": "Benzeneacetic acid, α-hydroxy-, compd. with 1,3,5,7-tetraazatricyclo[3.3.1.1<sup>3,7</sup>]decane (1:1);Mandelic acid, compd. with hexamethylenetetramine (1:1);Mandelic acid, salt with (CH<sub>2</sub>)<sub>6</sub>N<sub>4</sub>;Hexamethylenetetramine, compd. with mandelic acid;Hexamethylenetetramine, monomandelate;1,3,5,7-Tetraazatricyclo[3.3.1.1<sup>3,7</sup>]decane, mono(α-hydroxybenzeneacetate);Diuramine;Hexamethylenetetramine mandelate;Hexydaline;Mandalay;Mandelamine;Mantropine;Methavin;Penelate;Uromandelin;Uronamin;Hexamethylenetetramine phenylglycolate;Hexamethyleneamine mandelate;Mandurin;Reflux;Renelate;Mandoz;Cedulamin;Uronamine;Mandastat;Mandacon;Uro-Cedulamin;Prov-U-Sep;Mandopan;Mandural;Methenamine mandelate;Mandelic acid methenamine salt;Uroqid;Hexamethylenamine mandelate;Hexamine mandelate;1,3,5,7-Tetraazaadamantane 2-hydroxy-2-phenylacetate",
    "duplicated_cas_no": "19442-87-6",
    "SMILES": "N12CN3CN(C1)CN(C2)C3.C(C(O)=O)(O)C1=CC=CC=C1",
    "meta_data": {
        "InChI": "InChI=1S/C8H8O3.C6H12N4/c9-7(8(10)11)6-4-2-1-3-5-6;1-7-2-9-4-8(1)5-10(3-7)6-9/h1-5,7,9H,(H,10,11);1-6H2",
        "InChIKey": null,
        "Canonical SMILES": "O=C(O)C(O)C=1C=CC=CC1.N12CN3CN(C1)CN(C2)C3",
        "Molecular Formula": "C<sub>8</sub>H<sub>8</sub>O<sub>3</sub>.C<sub>6</sub>H<sub>12</sub>N<sub>4</sub>",
        "Molecular Mass": "",
        "Melting Point": "129.2-129.5 °C"
    }
}