{
    "cas_no": "34052-90-9",
    "key_name": "2,2′-(1,3-Phenylene)bis(2-oxazoline)",
    "cn_name": "2,2\"-(1,3-亚苯基)-二恶唑啉;",
    "alternate_name": "Oxazole, 2,2′-(1,3-phenylene)bis[4,5-dihydro-;2-Oxazoline, 2,2′-<em>m</em>-phenylenebis-;2,2′-(1,3-Phenylene)bis[4,5-dihydrooxazole];1,3-Di(2-oxazolin-2-yl)benzene;1,3-Bis(2-oxazolin-2-yl)benzene;2,2′-<em>m</em>-Phenylenebis(2-oxazoline);2,2′-(1,3-Phenylene)bis(2-oxazoline);1,3-Phenylenebis-2-oxazoline;BOX 210;1,3-PBO;CP Resin A;CP Resin 1,3-PBO;1,3-Bis(4,5-dihydro-2-oxazolyl)benzene;1,3-Phenylenebisoxazoline;2,2′-(1,3-Phenylene)dioxazoline;Nexamite A 99;2-[3-(4,5-Dihydro-1,3-oxazol-2-yl)phenyl]-4,5-dihydro-1,3-oxazole",
    "duplicated_cas_no": "118145-49-6;90044-75-0;144637-44-5",
    "SMILES": "C1(=CC(=CC=C1)C2=NCCO2)C3=NCCO3",
    "meta_data": {
        "InChI": "InChI=1S/C12H12N2O2/c1-2-9(11-13-4-6-15-11)8-10(3-1)12-14-5-7-16-12/h1-3,8H,4-7H2",
        "InChIKey": null,
        "Canonical SMILES": "N1=C(OCC1)C=2C=CC=C(C2)C3=NCCO3",
        "Molecular Formula": "C<sub>12</sub>H<sub>12</sub>N<sub>2</sub>O<sub>2</sub>",
        "Molecular Mass": "216.24",
        "Melting Point": "138.5 °C",
        "Density": "1.32 g/cm³"
    }
}