{
    "cas_no": "767-70-4",
    "key_name": "7-Bromobenzothiazole",
    "cn_name": null,
    "alternate_name": "Benzothiazole, 7-bromo-;7-Bromobenzothiazole;7-Bromobenzo[<em>d</em>]thiazole;7-Bromo-1,3-benzothiazole",
    "duplicated_cas_no": "",
    "SMILES": "BrC1=C2C(=CC=C1)N=CS2",
    "meta_data": {
        "InChI": "InChI=1S/C7H4BrNS/c8-5-2-1-3-6-7(5)10-4-9-6/h1-4H",
        "InChIKey": null,
        "Canonical SMILES": "BrC1=CC=CC=2N=CSC12",
        "Molecular Formula": "C<sub>7</sub>H<sub>4</sub>BrNS",
        "Molecular Mass": "214.08",
        "Melting Point": "82 °C"
    }
}