{
    "cas_no": "2847-30-5",
    "key_name": "2-Methoxy-3-methylpyrazine",
    "cn_name": "2-甲氧基-3-甲基吡嗪;",
    "alternate_name": "Pyrazine, 2-methoxy-3-methyl-;2-Methoxy-3-methylpyrazine;2-Methyl-3-methoxypyrazine;3-Methoxy-2-methylpyrazine",
    "duplicated_cas_no": "",
    "SMILES": "O(C)C=1C(C)=NC=CN1",
    "meta_data": {
        "InChI": "InChI=1S/C6H8N2O/c1-5-6(9-2)8-4-3-7-5/h3-4H,1-2H3",
        "InChIKey": null,
        "Canonical SMILES": "N=1C=CN=C(C1OC)C",
        "Molecular Formula": "C<sub>6</sub>H<sub>8</sub>N<sub>2</sub>O",
        "Molecular Mass": "124.14",
        "Boiling Point": "48-50 °C @ Press: 13 Torr"
    }
}