{
    "cas_no": "4437-22-3",
    "key_name": "Difurfuryl ether",
    "cn_name": null,
    "alternate_name": "Furan, 2,2′-[oxybis(methylene)]bis-;Furan, 2,2′-(oxydimethylene)di-;Furfuryl ether;Furan, 2,2′-oxydimethylenebis-;2,2′-[Oxybis(methylene)]bis[furan];Difurfuryl ether;2,2′-Difurfuryl ether;NSC 97234;2-((Furan-2-ylmethoxy)methyl)furan;2,2′-(Oxybis(methylene))difuran;2,2′-Oxybis(methylene)difuran",
    "duplicated_cas_no": "1801783-78-7",
    "SMILES": "C(OCC1=CC=CO1)C2=CC=CO2",
    "meta_data": {
        "InChI": "InChI=1S/C10H10O3/c1-3-9(12-5-1)7-11-8-10-4-2-6-13-10/h1-6H,7-8H2",
        "InChIKey": null,
        "Canonical SMILES": "O1C=CC=C1COCC=2OC=CC2",
        "Molecular Formula": "C<sub>10</sub>H<sub>10</sub>O<sub>3</sub>",
        "Molecular Mass": "178.18",
        "Boiling Point": "97-100 °C @ Press: 5 Torr",
        "Density": "1.1339 g/cm³ @ Temp: 25 °C"
    }
}