{
    "cas_no": "450-93-1",
    "key_name": "4-Fluoro-2-methoxyphenol",
    "cn_name": "4-氟-2-甲氧基苯酚;",
    "alternate_name": "Phenol, 4-fluoro-2-methoxy-;4-Fluoro-2-methoxyphenol;2-Methoxy-4-fluorophenol",
    "duplicated_cas_no": "",
    "SMILES": "O(C)C1=C(O)C=CC(F)=C1",
    "meta_data": {
        "InChI": "InChI=1S/C7H7FO2/c1-10-7-4-5(8)2-3-6(7)9/h2-4,9H,1H3",
        "InChIKey": null,
        "Canonical SMILES": "FC1=CC=C(O)C(OC)=C1",
        "Molecular Formula": "C<sub>7</sub>H<sub>7</sub>FO<sub>2</sub>",
        "Molecular Mass": "142.13",
        "Boiling Point": "94-95 °C @ Press: 16 Torr"
    }
}