{
    "cas_no": "5303-65-1",
    "key_name": "Ethyl 3-aminobutyrate",
    "cn_name": "3-氨基丁酸乙酯;",
    "alternate_name": "Butanoic acid, 3-amino-, ethyl ester;Butyric acid, 3-amino-, ethyl ester;Ethyl β-aminobutyrate;Ethyl 3-aminobutyrate;3-Methyl-β-alanine ethyl ester;β-Aminobutyric acid ethyl ester;Ethyl 3-aminobutanoate;3-Aminobutanoic acid ethyl ester;[2-(Ethoxycarbonyl)-1-methylethyl]amine;NSC 77084;3-Aminobutyric acid ethyl ester",
    "duplicated_cas_no": "69677-12-9",
    "SMILES": "C(C(OCC)=O)C(C)N",
    "meta_data": {
        "InChI": "InChI=1S/C6H13NO2/c1-3-9-6(8)4-5(2)7/h5H,3-4,7H2,1-2H3",
        "InChIKey": null,
        "Canonical SMILES": "O=C(OCC)CC(N)C",
        "Molecular Formula": "C<sub>6</sub>H<sub>13</sub>NO<sub>2</sub>",
        "Molecular Mass": "131.17",
        "Boiling Point": "82 °C @ Press: 20 Torr"
    }
}