{
    "cas_no": "1613-51-0",
    "key_name": "Tetrahydrothiopyran",
    "cn_name": "硫化环戊烷;硫代环己烷;",
    "alternate_name": "2<em>H</em>-Thiopyran, tetrahydro-;Thiopyran, tetrahydro-;Thiapyran, tetrahydro-;Tetrahydro-2<em>H</em>-thiopyran;Pentamethylene sulfide;Penthiophane;Tetrahydrothiopyran;Thiacyclohexane;Thiane;Tetrahydrothiapyran;NSC 9459",
    "duplicated_cas_no": "",
    "SMILES": "C1CCSCC1",
    "meta_data": {
        "InChI": "InChI=1S/C5H10S/c1-2-4-6-5-3-1/h1-5H2",
        "InChIKey": null,
        "Canonical SMILES": "S1CCCCC1",
        "Molecular Formula": "C<sub>5</sub>H<sub>10</sub>S",
        "Molecular Mass": "102.20",
        "Boiling Point": "141.8 °C",
        "Melting Point": "19 °C",
        "Density": "0.9943 g/cm³ @ Temp: 18 °C"
    }
}