{
    "cas_no": "28075-29-8",
    "key_name": "<em>N</em>-Methyl-γ-phenylbenzenepropanamine",
    "cn_name": "N-甲基-3,3-二苯基丙胺;",
    "alternate_name": "Benzenepropanamine, <em>N</em>-methyl-γ-phenyl-;Propylamine, <em>N</em>-methyl-3,3-diphenyl-;<em>N</em>-Methyl-γ-phenylbenzenepropanamine;<em>N</em>-Methyl-3,3-diphenylpropylamine;(3,3-Diphenylpropyl)methylamine",
    "duplicated_cas_no": "",
    "SMILES": "C(CCNC)(C1=CC=CC=C1)C2=CC=CC=C2",
    "meta_data": {
        "InChI": "InChI=1S/C16H19N/c1-17-13-12-16(14-8-4-2-5-9-14)15-10-6-3-7-11-15/h2-11,16-17H,12-13H2,1H3",
        "InChIKey": null,
        "Canonical SMILES": "C=1C=CC(=CC1)C(C=2C=CC=CC2)CCNC",
        "Molecular Formula": "C<sub>16</sub>H<sub>19</sub>N",
        "Molecular Mass": "225.33",
        "Boiling Point": "178 °C @ Press: 10 Torr"
    }
}