{
    "cas_no": "2252-50-8",
    "key_name": "2-Chloro-5-fluorobenzoic acid",
    "cn_name": "2-氯-5-氟苯甲酸;",
    "alternate_name": "Benzoic acid, 2-chloro-5-fluoro-;2-Chloro-5-fluorobenzoic acid;NSC 190631",
    "duplicated_cas_no": "",
    "SMILES": "C(O)(=O)C1=C(Cl)C=CC(F)=C1",
    "meta_data": {
        "InChI": "InChI=1S/C7H4ClFO2/c8-6-2-1-4(9)3-5(6)7(10)11/h1-3H,(H,10,11)",
        "InChIKey": null,
        "Canonical SMILES": "O=C(O)C1=CC(F)=CC=C1Cl",
        "Molecular Formula": "C<sub>7</sub>H<sub>4</sub>ClFO<sub>2</sub>",
        "Molecular Mass": "174.56",
        "Melting Point": "61 °C"
    }
}