{
    "cas_no": "31024-46-1",
    "key_name": "<em>N</em>-[3-(Trimethoxysilyl)propyl]-2-propen-1-amine",
    "cn_name": "3-(N-烯丙基氨基)丙基三甲氧基硅烷; N-[3-(三甲氧硅)丙基]-2-丙烯-1-胺;",
    "alternate_name": "2-Propen-1-amine, <em>N</em>-[3-(trimethoxysilyl)propyl]-;Allylamine, <em>N</em>-[3-(trimethoxysilyl)propyl]-;<em>N</em>-[3-(Trimethoxysilyl)propyl]-2-propen-1-amine;<em>N</em>-Allyl-γ-aminopropyltrimethoxysilane;X 12-563;3-(<em>N</em>-Allylamino)propyltrimethoxysilane;SIA 0400.0",
    "duplicated_cas_no": "",
    "SMILES": "[Si](CCCNCC=C)(OC)(OC)OC",
    "meta_data": {
        "InChI": "InChI=1S/C9H21NO3Si/c1-5-7-10-8-6-9-14(11-2,12-3)13-4/h5,10H,1,6-9H2,2-4H3",
        "InChIKey": null,
        "Canonical SMILES": "O(C)[Si](OC)(OC)CCCNCC=C",
        "Molecular Formula": "C<sub>9</sub>H<sub>21</sub>NO<sub>3</sub>Si",
        "Molecular Mass": "219.35",
        "Boiling Point": "106-109 °C @ Press: 25 Torr",
        "Density": "0.989 g/cm³ @ Temp: 25 °C"
    }
}