{
    "cas_no": "3006-96-0",
    "key_name": "4-(Hydroxymethyl)benzoic acid",
    "cn_name": "4-羟甲基苯甲酸;对羟甲基苯甲酸;",
    "alternate_name": "Benzoic acid, 4-(hydroxymethyl)-;<em>p</em>-Toluic acid, α-hydroxy-;4-(Hydroxymethyl)benzoic acid;<em>p</em>-(Hydroxymethyl)benzoic acid;α-Hydroxy-<em>p</em>-toluic acid;<em>p</em>-Carboxybenzyl alcohol;4-Carboxybenzyl alcohol",
    "duplicated_cas_no": "",
    "SMILES": "C(O)(=O)C1=CC=C(CO)C=C1",
    "meta_data": {
        "InChI": "InChI=1S/C8H8O3/c9-5-6-1-3-7(4-2-6)8(10)11/h1-4,9H,5H2,(H,10,11)",
        "InChIKey": null,
        "Canonical SMILES": "O=C(O)C1=CC=C(C=C1)CO",
        "Molecular Formula": "C<sub>8</sub>H<sub>8</sub>O<sub>3</sub>",
        "Molecular Mass": "152.15",
        "Boiling Point": "140-150 °C @ Press: 9 Torr",
        "Melting Point": "181-182 °C"
    }
}