{
    "cas_no": "1043-21-6",
    "key_name": "Pirenoxine",
    "cn_name": "吡诺克辛;1-羟基-5-氧-5H-吡啶并-[3,2-a]-吩噁嗪-3-羧酸;",
    "alternate_name": "5<em>H</em>-Pyrido[3,2-<em>a</em>]phenoxazine-3-carboxylic acid, 1-hydroxy-5-oxo-;1-Hydroxy-5-oxo-5<em>H</em>-pyrido[3,2-<em>a</em>]phenoxazine-3-carboxylic acid;1-Hydroxy-3-carboxy-5<em>H</em>-pyrido[3,2-<em>a</em>]phenoxazin-5-one;1-Hydroxy-5<em>H</em>-pyrido[3,2-<em>a</em>]phenoxazin-5-one-3-carboxylic acid;Catalin;Catalin (pharmaceutical);Clarvisan;HPPC;Pirenoxine;Catalin K;Kary-Uni;Pyrphenoxone;Pirfenoxone;1,5-Dioxo-4<em>H</em>-pyrido[3,2-<em>a</em>]phenoxazine-3-carboxylic acid",
    "duplicated_cas_no": "9007-24-3",
    "SMILES": "OC1=C2C=3C(OC=4C(N3)=CC=CC4)=CC(=O)C2=NC(C(O)=O)=C1",
    "meta_data": {
        "InChI": "InChI=1S/C16H8N2O5/c19-9-5-8(16(21)22)18-14-10(20)6-12-15(13(9)14)17-7-3-1-2-4-11(7)23-12/h1-6H,(H,18,19)(H,21,22)",
        "InChIKey": null,
        "Canonical SMILES": "O=C(O)C=1N=C2C(=O)C=C3OC=4C=CC=CC4N=C3C2=C(O)C1",
        "Molecular Formula": "C<sub>16</sub>H<sub>8</sub>N<sub>2</sub>O<sub>5</sub>",
        "Molecular Mass": "308.25",
        "Melting Point": "247 °C (decomp)"
    }
}