{
    "cas_no": "33941-15-0",
    "key_name": "Aza-18-crown-6",
    "cn_name": "氮杂-18-冠醚-6;",
    "alternate_name": "1,4,7,10,13-Pentaoxa-16-azacyclooctadecane;1-Aza-4,7,10,13,16-pentaoxacyclooctadecane;Monoaza-18-crown-6;1-Aza-18-crown-6;Aza-18-crown-6;1-Aza-18-crown-6-ether",
    "duplicated_cas_no": "116119-79-0;118946-55-7",
    "SMILES": "C1COCCOCCOCCOCCOCCN1",
    "meta_data": {
        "InChI": "InChI=1S/C12H25NO5/c1-3-14-5-7-16-9-11-18-12-10-17-8-6-15-4-2-13-1/h13H,1-12H2",
        "InChIKey": null,
        "Canonical SMILES": "O1CCOCCOCCNCCOCCOCC1",
        "Molecular Formula": "C<sub>12</sub>H<sub>25</sub>NO<sub>5</sub>",
        "Molecular Mass": "263.33",
        "Boiling Point": "95-99 °C @ Press: 0.02 Torr",
        "Melting Point": "48 °C"
    }
}