{
    "cas_no": "882-33-7",
    "key_name": "Diphenyl disulfide",
    "cn_name": "二苯二硫醚;二硫化二苯;",
    "alternate_name": "Disulfide, diphenyl;Phenyl disulfide;Diphenyl disulfide;Biphenyl disulfide;Diphenyl disulphide;NSC 2689;DPDS;1,2-Diphenyldisulfane;(Phenyldisulfanyl)benzene;1,1′-Dithiodibenzene",
    "duplicated_cas_no": "1071709-24-4;1195339-75-3",
    "SMILES": "S(SC1=CC=CC=C1)C2=CC=CC=C2",
    "meta_data": {
        "InChI": "InChI=1S/C12H10S2/c1-3-7-11(8-4-1)13-14-12-9-5-2-6-10-12/h1-10H",
        "InChIKey": null,
        "Canonical SMILES": "S(SC=1C=CC=CC1)C=2C=CC=CC2",
        "Molecular Formula": "C<sub>12</sub>H<sub>10</sub>S<sub>2</sub>",
        "Molecular Mass": "218.34",
        "Boiling Point": "310 °C",
        "Melting Point": "62 °C",
        "Density": "1.110 g/cm³ @ Temp: 118.0 °C"
    }
}