{
    "cas_no": "822-55-9",
    "key_name": "1<em>H</em>-Imidazole-5-methanol",
    "cn_name": "4-(羟甲基)咪唑;",
    "alternate_name": "1<em>H</em>-Imidazole-5-methanol;Imidazole-4-methanol;1<em>H</em>-Imidazole-4-methanol;Imidazole-4(<em>or</em> 5)-methanol;4-(Hydroxymethyl)imidazole;4-Methylol-1<em>H</em>-imidazole;4-Imidazolylmethanol;5-(Hydroxymethyl)imidazole;NSC 39016;1<em>H</em>-Imidazol-4-ylmethanol;1<em>H</em>-Imidazol-5-ylmethanol",
    "duplicated_cas_no": "",
    "SMILES": "C(O)C1=CN=CN1",
    "meta_data": {
        "InChI": "InChI=1S/C4H6N2O/c7-2-4-1-5-3-6-4/h1,3,7H,2H2,(H,5,6)",
        "InChIKey": null,
        "Canonical SMILES": "OCC1=CN=CN1",
        "Molecular Formula": "C<sub>4</sub>H<sub>6</sub>N<sub>2</sub>O",
        "Molecular Mass": "98.10",
        "Melting Point": "93 °C"
    }
}