{
    "cas_no": "68274-97-5",
    "key_name": "5-Decyn-1-ol",
    "cn_name": "5-十烯-1-醇;",
    "alternate_name": "5-Decyn-1-ol",
    "duplicated_cas_no": "",
    "SMILES": "C(#CCCCC)CCCCO",
    "meta_data": {
        "InChI": "InChI=1S/C10H18O/c1-2-3-4-5-6-7-8-9-10-11/h11H,2-4,7-10H2,1H3",
        "InChIKey": null,
        "Canonical SMILES": "OCCCCC#CCCCC",
        "Molecular Formula": "C<sub>10</sub>H<sub>18</sub>O",
        "Molecular Mass": "154.25",
        "Boiling Point": "125 °C @ Press: 14 Torr"
    }
}