{
    "cas_no": "63221-88-5",
    "key_name": "1-Ethyl-4-[2-(4-methoxyphenyl)ethynyl]benzene",
    "cn_name": "1-乙烷基-4-[(4-甲氧苯基)乙炔基]苯;",
    "alternate_name": "Benzene, 1-ethyl-4-[2-(4-methoxyphenyl)ethynyl]-;Benzene, 1-ethyl-4-[(4-methoxyphenyl)ethynyl]-;1-Ethyl-4-[2-(4-methoxyphenyl)ethynyl]benzene;<em>p</em>-Methoxy-<em>p</em>′-ethyltolan;4-Methoxy-4′-ethyltolan;PTP 2O1;2-Btb-o1;1-Ethyl-4-[(4-methoxyphenyl)ethynyl]benzene",
    "duplicated_cas_no": "",
    "SMILES": "C(#CC1=CC=C(OC)C=C1)C2=CC=C(CC)C=C2",
    "meta_data": {
        "InChI": "InChI=1S/C17H16O/c1-3-14-4-6-15(7-5-14)8-9-16-10-12-17(18-2)13-11-16/h4-7,10-13H,3H2,1-2H3",
        "InChIKey": null,
        "Canonical SMILES": "C(#CC1=CC=C(C=C1)CC)C2=CC=C(OC)C=C2",
        "Molecular Formula": "C<sub>17</sub>H<sub>16</sub>O",
        "Molecular Mass": "236.31",
        "Melting Point": "116-117 °C"
    }
}