{
    "cas_no": "6373-46-2",
    "key_name": "4-(Phenylmethoxy)benzenamine",
    "cn_name": null,
    "alternate_name": "Benzenamine, 4-(phenylmethoxy)-;Aniline, <em>p</em>-(benzyloxy)-;4-(Phenylmethoxy)benzenamine;<em>p</em>-(Benzyloxy)aniline;4-Aminophenyl benzyl ether;<em>p</em>-Aminophenyl benzyl ether;NSC 59995;4-(Phenylmethoxy)aniline;4-Benzyloxyphenylamine;4-(Benzyloxy)benzenamine;4-(Benzyloxy)aniline",
    "duplicated_cas_no": "",
    "SMILES": "O(CC1=CC=CC=C1)C2=CC=C(N)C=C2",
    "meta_data": {
        "InChI": "InChI=1S/C13H13NO/c14-12-6-8-13(9-7-12)15-10-11-4-2-1-3-5-11/h1-9H,10,14H2",
        "InChIKey": null,
        "Canonical SMILES": "O(C1=CC=C(N)C=C1)CC=2C=CC=CC2",
        "Molecular Formula": "C<sub>13</sub>H<sub>13</sub>NO",
        "Molecular Mass": "199.25",
        "Boiling Point": "161-164 °C @ Press: 0.25 Torr",
        "Melting Point": "54-55 °C"
    }
}