{
    "cas_no": "13862-28-7",
    "key_name": "Borate(1-), trifluoromethyl-, potassium, (<em>T</em>-4)-",
    "cn_name": null,
    "alternate_name": "Borate(1-), trifluoromethyl-, potassium, (<em>T</em>-4)-;Borate(1-), trifluoromethyl-, potassium;Potassium trifluoromethylborate;Potassium methyltrifluoroborate",
    "duplicated_cas_no": "",
    "SMILES": "[B+3]([CH3-])([F-])([F-])[F-].[K+]",
    "meta_data": {
        "InChI": "InChI=1S/CH3BF3.K/c1-2(3,4)5;/h1H3;/q-1;+1",
        "InChIKey": null,
        "Canonical SMILES": "[K+].[F-][B+3]([F-])([F-])[CH3-]",
        "Molecular Formula": "CH<sub>3</sub>BF<sub>3</sub>.K",
        "Molecular Mass": "",
        "Melting Point": "282 °C"
    }
}