{
    "cas_no": "21679-31-2",
    "key_name": "Tris(acetylacetonato)chromium",
    "cn_name": "乙酰丙酮铬;",
    "alternate_name": "Chromium, tris(2,4-pentanedionato-κ<em>O</em><sup>2</sup>,κ<em>O</em><sup>4</sup>)-, (<em>OC</em>-6-11)-;Chromium, tris(2,4-pentanedionato)-;Chromium, tris(2,4-pentanedionato-<em>O</em>,<em>O</em>′)-, (<em>OC</em>-6-11)-;Chromium, tris(2,4-pentanedionato-κ<em>O</em>,κ<em>O</em>′)-, (<em>OC</em>-6-11)-;(<em>OC</em>-6-11)-Tris(2,4-pentanedionato-κ<em>O</em><sup>2</sup>,κ<em>O</em><sup>4</sup>)chromium;Chromium(III) acetylacetonate;Chromium acetylacetonate;Chromium tris(acetylacetonate);Chromium tris(2,4-pentanedionate);Chromium(3+) acetylacetonate;Tris(acetylacetonato)chromium;Tris(acetylacetonato)chromium(III);Chromium triacetylacetonate;Chromic acetylacetonate;Tris(2,4-pentanedionato)chromium;NSC 4654;NSC 52331;Tris(2,4-pentanedionato-κ<sup>2</sup>O,O′)chromium(III)",
    "duplicated_cas_no": "13681-82-8;75042-69-2",
    "SMILES": "CC1=O[Cr+3]23(O=C(C)[CH-]C(C)=O2)(O=C(C)[CH-]C(C)=O3)O=C(C)[CH-]1",
    "meta_data": {
        "InChI": "InChI=1S/3C5H7O2.Cr/c3*1-4(6)3-5(2)7;/h3*3H,1-2H3;/q3*-1;+3",
        "InChIKey": null,
        "Canonical SMILES": "O1=C([CH-]C(=O[Cr+3]123(O=C([CH-]C(=O2)C)C)O=C([CH-]C(=O3)C)C)C)C",
        "Molecular Formula": "C<sub>15</sub>H<sub>21</sub>CrO<sub>6</sub>",
        "Molecular Mass": "",
        "Melting Point": "209-213 °C"
    }
}