{
    "cas_no": "2083-91-2",
    "key_name": "(Dimethylamino)trimethylsilane",
    "cn_name": "N,N-二甲基三甲基硅胺;二甲基氨基三甲基硅烷;",
    "alternate_name": "Silanamine, <em>N</em>,<em>N</em>,1,1,1-pentamethyl-;Silylamine, pentamethyl-;Silanamine, pentamethyl-;<em>N</em>,<em>N</em>,1,1,1-Pentamethylsilanamine;<em>N</em>-(Trimethylsilyl)dimethylamine;(Trimethylsilyl)dimethylamine;Pentamethylsilylamine;(Dimethylamino)trimethylsilane;Trimethyl(dimethylamino)silane;<em>N</em>,<em>N</em>-Dimethyl-<em>N</em>-(trimethylsilyl)amine;Pentamethylsilanamine;<em>N</em>,<em>N</em>-Dimethyl(trimethylsilyl)amine;<em>N</em>-Methyl-<em>N</em>-(trimethylsilyl)methylamine;(<em>N</em>,<em>N</em>-Dimethylamino)trimethylsilane;TSL 8831;T 0591",
    "duplicated_cas_no": "",
    "SMILES": "[Si](N(C)C)(C)(C)C",
    "meta_data": {
        "InChI": "InChI=1S/C5H15NSi/c1-6(2)7(3,4)5/h1-5H3",
        "InChIKey": null,
        "Canonical SMILES": "N(C)(C)[Si](C)(C)C",
        "Molecular Formula": "C<sub>5</sub>H<sub>15</sub>NSi",
        "Molecular Mass": "117.26",
        "Boiling Point": "86 °C",
        "Density": "0.741 g/cm³"
    }
}