{
    "cas_no": "124-28-7",
    "key_name": "Dimethyloctadecylamine",
    "cn_name": "十八烷基二甲基叔胺;",
    "alternate_name": "1-Octadecanamine, <em>N</em>,<em>N</em>-dimethyl-;Octadecylamine, <em>N</em>,<em>N</em>-dimethyl-;<em>N</em>,<em>N</em>-Dimethyl-1-octadecanamine;Dimantine;<em>N</em>,<em>N</em>-Dimethyl-<em>n</em>-octadecylamine;Dymanthine;Octadecyldimethylamine;Stearyldimethylamine;Dimethyloctadecylamine;Dimethyl-<em>n</em>-octadecylamine;Dimethylstearylamine;<em>N</em>,<em>N</em>-Dimethyloctadecylamine;<em>N</em>,<em>N</em>-Dimethylstearylamine;Armeen DM 18D;<em>N</em>,<em>N</em>-Dimethyloctadecanamine;Kemamine 9902D;Adogen 342D;<em>N</em>-Stearyl-<em>N</em>,<em>N</em>-dimethylamine;Farmin DM 80;<em>N</em>-Octadecyl-<em>N</em>,<em>N</em>-dimethylamine;ADMA 18;DM 18D;Farmin DM 8098;Genamin 18R302D;AT 1895A;Tertiary Nissan Amine AB;Nissan Tertiary Amine AB;<em>N</em>-Octadecyldimethylamine;<em>N</em>,<em>N</em>-Dimethyloctadecan-1-amine",
    "duplicated_cas_no": "",
    "SMILES": "C(CCCCCCCCCCCC)CCCCCN(C)C",
    "meta_data": {
        "InChI": "InChI=1S/C20H43N/c1-4-5-6-7-8-9-10-11-12-13-14-15-16-17-18-19-20-21(2)3/h4-20H2,1-3H3",
        "InChIKey": null,
        "Canonical SMILES": "N(C)(C)CCCCCCCCCCCCCCCCCC",
        "Molecular Formula": "C<sub>20</sub>H<sub>43</sub>N",
        "Molecular Mass": "297.56",
        "Boiling Point": "194 °C @ Press: 6 Torr",
        "Melting Point": "22.89 °C"
    }
}