{
    "cas_no": "78560-45-9",
    "key_name": "(Tridecafluoro-1,1,2,2-tetrahydrooctyl)trichlorosilane",
    "cn_name": "1H,1H,2H,2H-全氟辛基三氯硅烷;1H,1H,2H,2H-全氟辛基三氯硅烷;1H,1H,2H,2H-过氟辛基三氯硅烷;",
    "alternate_name": "Silane, trichloro(3,3,4,4,5,5,6,6,7,7,8,8,8-tridecafluorooctyl)-;Trichloro(3,3,4,4,5,5,6,6,7,7,8,8,8-tridecafluorooctyl)silane;(1,1,2,2-Tetrahydroperfluorooctyl)trichlorosilane;[2-(Perfluorohexyl)ethyl]trichlorosilane;Trichloro(tridecafluoro-1,1,2,2-tetrahydrooctyl)silane;Trichloro(1<em>H</em>,1<em>H</em>,2<em>H</em>,2<em>H</em>-tridecafluorooctyl)silane;1<em>H</em>,1<em>H</em>,2<em>H</em>,2<em>H</em>-Perfluorooctyltrichlorosilane;3,3,4,4,5,5,6,6,7,7,8,8,8-Tridecafluorooctyltrichlorosilane;(Tridecafluoro-1,1,2,2-tetrahydrooctyl)trichlorosilane;T 2492;TSL 8256;Perfluoro-1,1,2,2-tetrahydrooctyltrichlorosilane;SIT 8174.0;Dynasylan 8061;(1<em>H</em>,1<em>H</em>,2<em>H</em>,2<em>H</em>-Tridecafluorooctyl)trichlorosilane;Tridecafluoro-1,1,2,2-tetrahydroctyl-1-trichlorosilane;Trichloro(1<em>H</em>,1<em>H</em>,2<em>H</em>,2<em>H</em>-perfluorooctyl)silane;F 13OTCS;FOTS;(3,3,4,4,5,5,6,6,7,7,8,8,8-Tridecafluorooctan-1-yl)trichlorosilane;Trichloro(1<em>H</em>,1<em>H</em>,2<em>H</em>,2<em>H</em>-perfuorooctyl)silane",
    "duplicated_cas_no": "",
    "SMILES": "C(C(C(C(F)(F)F)(F)F)(F)F)(C(C(CC[Si](Cl)(Cl)Cl)(F)F)(F)F)(F)F",
    "meta_data": {
        "InChI": "InChI=1S/C8H4Cl3F13Si/c9-25(10,11)2-1-3(12,13)4(14,15)5(16,17)6(18,19)7(20,21)8(22,23)24/h1-2H2",
        "InChIKey": null,
        "Canonical SMILES": "FC(F)(F)C(F)(F)C(F)(F)C(F)(F)C(F)(F)C(F)(F)CC[Si](Cl)(Cl)Cl",
        "Molecular Formula": "C<sub>8</sub>H<sub>4</sub>Cl<sub>3</sub>F<sub>13</sub>Si",
        "Molecular Mass": "481.54",
        "Boiling Point": "84-85 °C @ Press: 17 Torr",
        "Density": "1.639 g/cm³"
    }
}