{
    "cas_no": "103-83-3",
    "key_name": "<em>N</em>,<em>N</em>-Dimethylbenzylamine",
    "cn_name": "N,N-二甲基苄胺;",
    "alternate_name": "Benzenemethanamine, <em>N</em>,<em>N</em>-dimethyl-;Benzylamine, <em>N</em>,<em>N</em>-dimethyl-;<em>N</em>,<em>N</em>-Dimethylbenzenemethanamine;Benzyldimethylamine;Dimethylbenzylamine;<em>N</em>-Benzyldimethylamine;<em>N</em>,<em>N</em>-Dimethyl-<em>N</em>-benzylamine;BDMA;<em>N</em>-(Phenylmethyl)dimethylamine;Benzyl-<em>N</em>,<em>N</em>-dimethylamine;Araldite Accelerator 062;<em>N</em>-Benzyl-<em>N</em>,<em>N</em>-dimethylamine;Desmorapid DB;<em>N</em>,<em>N</em>-Dimethylbenzylamine;Sumicure BD;Kaolizer 20;Actiron NX 91;Dabco BDMA;[(Dimethylamino)methyl]benzene;NSC 5342;Araldite DY 062;DY 062;Ancamine BDMA;Y 27;4-[(Dimethylamino)methyl]styrene;DY 62;NP 60;KH 30;<em>N</em>,<em>N</em>-Dimethyl-1-phenylmethanamine;LCM 1;LCM 1 (catalyst);Jeffcat BDMA;Addocat DB",
    "duplicated_cas_no": "59125-51-8;1236382-77-6;1338002-71-3",
    "SMILES": "C(N(C)C)C1=CC=CC=C1",
    "meta_data": {
        "InChI": "InChI=1S/C9H13N/c1-10(2)8-9-6-4-3-5-7-9/h3-7H,8H2,1-2H3",
        "InChIKey": null,
        "Canonical SMILES": "C=1C=CC(=CC1)CN(C)C",
        "Molecular Formula": "C<sub>9</sub>H<sub>13</sub>N",
        "Molecular Mass": "135.21",
        "Boiling Point": "180 °C",
        "Melting Point": "-75 °C",
        "Density": "0.9 g/cm³"
    }
}