{
    "cas_no": "3785-32-8",
    "key_name": "Acetic acid, 2-[2-(aminocarbonyl)phenoxy]-, sodium salt (1:1)",
    "cn_name": "(2-氨基甲酰苯氧基)乙酸钠;邻氨基甲酰苯氧乙酸钠;",
    "alternate_name": "Acetic acid, 2-[2-(aminocarbonyl)phenoxy]-, sodium salt (1:1);Acetic acid, (<em>o</em>-carbamoylphenoxy)-, sodium salt;Acetic acid, [2-(aminocarbonyl)phenoxy]-, monosodium salt;Salizell;Sodium orthocarbamylphenoxyacetate;Akistin;Alagamon;Salizell (ampule);Salizell ampules",
    "duplicated_cas_no": "",
    "SMILES": "O(CC(O)=O)C1=C(C(N)=O)C=CC=C1.[Na]",
    "meta_data": {
        "InChI": "InChI=1S/C9H9NO4.Na/c10-9(13)6-3-1-2-4-7(6)14-5-8(11)12;/h1-4H,5H2,(H2,10,13)(H,11,12);",
        "InChIKey": null,
        "Canonical SMILES": "[Na].O=C(O)COC=1C=CC=CC1C(=O)N",
        "Molecular Formula": "C<sub>9</sub>H<sub>9</sub>NO<sub>4</sub>.Na",
        "Molecular Mass": "",
        "Melting Point": "212-215 °C"
    }
}