{
    "cas_no": "709-50-2",
    "key_name": "Methyl β-<span class=\"text-smallcaps\">D</span>-glucopyranoside",
    "cn_name": "甲基-β-D-吡喃葡萄糖苷;",
    "alternate_name": "β-<span class=\"text-smallcaps\">D</span>-Glucopyranoside, methyl;Glucopyranoside, methyl, β-<span class=\"text-smallcaps\">D</span>-;Methyl β-<span class=\"text-smallcaps\">D</span>-glucopyranoside;Methyl β-<span class=\"text-smallcaps\">D</span>-glucoside;NSC 403457;1-<em>O</em>-Methyl-β-<span class=\"text-smallcaps\">D</span>-glucopyranoside;β-Methyl glucoside;Methylglucopyranoside",
    "duplicated_cas_no": "27939-29-3;30326-25-1;75398-85-5",
    "SMILES": "C(O)[C@H]1O[C@@H](OC)[C@H](O)[C@@H](O)[C@@H]1O",
    "meta_data": {
        "InChI": "InChI=1S/C7H14O6/c1-12-7-6(11)5(10)4(9)3(2-8)13-7/h3-11H,2H2,1H3/t3-,4-,5+,6-,7-/m1/s1",
        "InChIKey": null,
        "Canonical SMILES": "OCC1OC(OC)C(O)C(O)C1O",
        "Molecular Formula": "C<sub>7</sub>H<sub>14</sub>O<sub>6</sub>",
        "Molecular Mass": "194.18",
        "Melting Point": "102-104 °C",
        "Density": "1.030670 g/cm³ @ Temp: 20 °C"
    }
}