{
    "cas_no": "140-57-8",
    "key_name": "Aramite",
    "cn_name": "杀螨特;螨灭得；2－4－特丁基苯氧异丙基－2－氯乙基亚硫酸酯;",
    "alternate_name": "Sulfurous acid, 2-chloroethyl 2-[4-(1,1-dimethylethyl)phenoxy]-1-methylethyl ester;Sulfurous acid, 2-(<em>p</em>-<em>tert</em>-butylphenoxy)-1-methylethyl 2-chloroethyl ester;Ethanol, 2-chloro-, 2-(<em>p</em>-<em>tert</em>-butylphenoxy)-1-methylethyl sulfite;88R;Aramite;2-(<em>p</em>-<em>tert</em>-Butylphenoxy)isopropyl 2-chloroethyl sulfite;2-(<em>p</em>-<em>tert</em>-Butylphenoxy)-1-methylethyl 2-chloroethyl sulfite;CES;β-Chloroethyl-β′-(<em>p</em>-<em>tert</em>-butylphenoxy)-α′-methylethyl sulfite;Niagaramite;Ortho-Mite;Aramit;NSC 404155",
    "duplicated_cas_no": "",
    "SMILES": "O(CC(OS(OCCCl)=O)C)C1=CC=C(C(C)(C)C)C=C1",
    "meta_data": {
        "InChI": "InChI=1S/C15H23ClO4S/c1-12(20-21(17)19-10-9-16)11-18-14-7-5-13(6-8-14)15(2,3)4/h5-8,12H,9-11H2,1-4H3",
        "InChIKey": null,
        "Canonical SMILES": "O=S(OCCCl)OC(C)COC1=CC=C(C=C1)C(C)(C)C",
        "Molecular Formula": "C<sub>15</sub>H<sub>23</sub>ClO<sub>4</sub>S",
        "Molecular Mass": "334.86",
        "Boiling Point": "175 °C @ Press: 0.1 Torr",
        "Melting Point": "-31.7 °C",
        "Density": "1.145 g/cm³ @ Temp: 20 °C"
    }
}