{
    "cas_no": "73821-97-3",
    "key_name": "5-Cyclohexyl hydrogen <em>N</em>-[(1,1-dimethylethoxy)carbonyl]-<span class=\"text-smallcaps\">L</span>-glutamate",
    "cn_name": "叔丁氧羰基-L-谷氨酸5-环己酯;",
    "alternate_name": "<span class=\"text-smallcaps\">L</span>-Glutamic acid, <em>N</em>-[(1,1-dimethylethoxy)carbonyl]-, 5-cyclohexyl ester;5-Cyclohexyl hydrogen <em>N</em>-[(1,1-dimethylethoxy)carbonyl]-<span class=\"text-smallcaps\">L</span>-glutamate;<em>N</em>-<em>tert</em>-Butoxycarbonyl-<span class=\"text-smallcaps\">L</span>-glutamic acid γ-cyclohexyl ester;<em>N</em>-<em>tert</em>-Butyloxycarbonyl-<span class=\"text-smallcaps\">L</span>-glutamic acid γ-cyclohexyl ester;Boc-<span class=\"text-smallcaps\">L</span>-Glu(OcHx)-OH;(2S)-5-Cyclohexyloxy-2-[(2-methylpropan-2-yl)oxycarbonylamino]-5-oxopentanoic acid",
    "duplicated_cas_no": "",
    "SMILES": "O(C(CC[C@H](NC(OC(C)(C)C)=O)C(O)=O)=O)C1CCCCC1",
    "meta_data": {
        "InChI": "InChI=1S/C16H27NO6/c1-16(2,3)23-15(21)17-12(14(19)20)9-10-13(18)22-11-7-5-4-6-8-11/h11-12H,4-10H2,1-3H3,(H,17,21)(H,19,20)/t12-/m0/s1",
        "InChIKey": null,
        "Canonical SMILES": "O=C(OC(C)(C)C)NC(C(=O)O)CCC(=O)OC1CCCCC1",
        "Molecular Formula": "C<sub>16</sub>H<sub>27</sub>NO<sub>6</sub>",
        "Molecular Mass": "329.39",
        "Melting Point": "129-132 °C"
    }
}