{
    "cas_no": "10034-81-8",
    "key_name": "Magnesium perchlorate",
    "cn_name": "高氯酸镁,无水;无水高氯酸镁;",
    "alternate_name": "Perchloric acid, magnesium salt (2:1);Magnesium perchlorate;Perchloric acid, magnesium salt;Anhydrone;Anhydrous magnesium perchlorate;Dehydrite;Magnesium perchlorate (Mg(ClO<sub>4</sub>)<sub>2</sub>);Magnesium diperchlorate;KhKM 300;Magnesium(II) perchlorate;Anhydron;XKM 300",
    "duplicated_cas_no": "30298-04-5;74913-43-2;1189671-44-0",
    "SMILES": "Cl(=O)(=O)(=O)O.[Mg]",
    "meta_data": {
        "InChI": "InChI=1S/ClHO4.Mg/c2-1(3,4)5;/h(H,2,3,4,5);",
        "InChIKey": null,
        "Canonical SMILES": "[Mg].O=Cl(=O)(=O)O",
        "Molecular Formula": "ClHO<sub>4</sub>.<sup>1</sup>/<sub>2</sub>Mg",
        "Molecular Mass": "",
        "Melting Point": "250 °C (decomp)",
        "Density": "2.2 g/cm³"
    }
}