{
    "cas_no": "740815-37-6",
    "key_name": "2-[Bis(1,1-dimethylethyl)phosphino]-1-phenyl-1<em>H</em>-indole",
    "cn_name": null,
    "alternate_name": "1<em>H</em>-Indole, 2-[bis(1,1-dimethylethyl)phosphino]-1-phenyl-;2-[Bis(1,1-dimethylethyl)phosphino]-1-phenyl-1<em>H</em>-indole;<em>N</em>-Phenylindol-2-yl-di-<em>tert</em>-butylphosphine;<em>N</em>-Phenyl-2-(di-<em>tert</em>-butylphosphino)indole;2-(Di-<em>tert</em>-butylphosphino)-1-phenylindole",
    "duplicated_cas_no": "",
    "SMILES": "P(C(C)(C)C)(C(C)(C)C)C=1N(C=2C(C1)=CC=CC2)C3=CC=CC=C3",
    "meta_data": {
        "InChI": "InChI=1S/C22H28NP/c1-21(2,3)24(22(4,5)6)20-16-17-12-10-11-15-19(17)23(20)18-13-8-7-9-14-18/h7-16H,1-6H3",
        "InChIKey": null,
        "Canonical SMILES": "C=1C=CC(=CC1)N2C=3C=CC=CC3C=C2P(C(C)(C)C)C(C)(C)C",
        "Molecular Formula": "C<sub>22</sub>H<sub>28</sub>NP",
        "Molecular Mass": "337.44",
        "Melting Point": "90-92 °C"
    }
}