{
    "cas_no": "621-42-1",
    "key_name": "3-Acetamidophenol",
    "cn_name": "间醋氨酚;",
    "alternate_name": "Acetamide, <em>N</em>-(3-hydroxyphenyl)-;Acetanilide, 3′-hydroxy-;<em>N</em>-(3-Hydroxyphenyl)acetamide;<em>m</em>-Hydroxyacetanilide;Metalid;Pedituss;Pyrapap;Rystal;<em>m</em>-Acetamidophenol;3′-Hydroxyacetanilide;3-(Acetylamino)phenol;Metacetamol;<em>N</em>-Acetyl-<em>m</em>-aminophenol;<em>m</em>-(Acetylamino)phenol;BS 479;3-(Acetylamino)-1-hydroxybenzene;3-Acetamidophenol;<em>N</em>-Acetyl-3-hydroxyaniline;BS 749;NSC 3990",
    "duplicated_cas_no": "",
    "SMILES": "N(C(C)=O)C1=CC(O)=CC=C1",
    "meta_data": {
        "InChI": "InChI=1S/C8H9NO2/c1-6(10)9-7-3-2-4-8(11)5-7/h2-5,11H,1H3,(H,9,10)",
        "InChIKey": null,
        "Canonical SMILES": "O=C(NC=1C=CC=C(O)C1)C",
        "Molecular Formula": "C<sub>8</sub>H<sub>9</sub>NO<sub>2</sub>",
        "Molecular Mass": "151.16",
        "Melting Point": "147 °C"
    }
}