{
    "cas_no": "24356-94-3",
    "key_name": "Algestone acetophenide",
    "cn_name": "苯甲孕酮;醋苯阿尔孕酮;阿尔孕酮乙酰苯环缩酮;双羟孕酮缩苯乙酮;16alpha,17alpha-二羟基孕甾-4-烯-3,20-二;",
    "alternate_name": "Pregn-4-ene-3,20-dione, 16,17-[[(1<em>R</em>)-1-phenylethylidene]bis(oxy)]-, (16α)-;Pregn-4-ene-3,20-dione, 16α,17-dihydroxy-, cyclic acetal with acetophenone, (<em>R</em>)-;Pregn-4-ene-3,20-dione, 16,17-[(1-phenylethylidene)bis(oxy)]-, [16α(<em>R</em>)]-;2<em>H</em>-Naphth[1′,2′:6,7]indeno[1,2-<em>d</em>][1,3]dioxole, pregn-4-ene-3,20-dione deriv.;(16α)-16,17-[[(1<em>R</em>)-1-Phenylethylidene]bis(oxy)]pregn-4-ene-3,20-dione;Algestone acetophenide;Alphasone acetophenide;P-DHP;Deladroxone;Droxone;Dihydroxyprogesterone acetophenide;ZK 9349;Neolutin Depositum",
    "duplicated_cas_no": "",
    "SMILES": "C(C)(=O)[C@]12[C@]3(C)[C@@](C[C@]1(O[C@](C)(O2)C4=CC=CC=C4)[H])([C@]5([C@](CC3)([C@]6(C)C(CC5)=CC(=O)CC6)[H])[H])[H]",
    "meta_data": {
        "InChI": "InChI=1S/C29H36O4/c1-18(30)29-25(32-28(4,33-29)19-8-6-5-7-9-19)17-24-22-11-10-20-16-21(31)12-14-26(20,2)23(22)13-15-27(24,29)3/h5-9,16,22-25H,10-15,17H2,1-4H3/t22-,23+,24+,25-,26+,27+,28-,29-/m1/s1",
        "InChIKey": null,
        "Canonical SMILES": "O=C1C=C2CCC3C(CCC4(C)C3CC5OC(OC54C(=O)C)(C=6C=CC=CC6)C)C2(C)CC1",
        "Molecular Formula": "C<sub>29</sub>H<sub>36</sub>O<sub>4</sub>",
        "Molecular Mass": "448.59",
        "Melting Point": "150.5 °C"
    }
}