{
    "cas_no": "2237-30-1",
    "key_name": "3-Aminobenzonitrile",
    "cn_name": "间氨基苯甲腈;3-氨基苯甲腈;",
    "alternate_name": "Benzonitrile, 3-amino-;Benzonitrile, <em>m</em>-amino-;3-Aminobenzonitrile;<em>m</em>-Aminobenzonitrile;3-Cyanoaniline;<em>m</em>-Cyanoaniline;3-Cyanophenylamine;NSC 7626;3ABN",
    "duplicated_cas_no": "",
    "SMILES": "C(#N)C1=CC(N)=CC=C1",
    "meta_data": {
        "InChI": "InChI=1S/C7H6N2/c8-5-6-2-1-3-7(9)4-6/h1-4H,9H2",
        "InChIKey": null,
        "Canonical SMILES": "N#CC1=CC=CC(N)=C1",
        "Molecular Formula": "C<sub>7</sub>H<sub>6</sub>N<sub>2</sub>",
        "Molecular Mass": "118.14",
        "Boiling Point": "289 °C",
        "Melting Point": "54.3 °C"
    }
}