{
    "cas_no": "7770-78-7",
    "key_name": "(-)-Arctigenin",
    "cn_name": "牛蒡子苷元;",
    "alternate_name": "2(3<em>H</em>)-Furanone, 4-[(3,4-dimethoxyphenyl)methyl]dihydro-3-[(4-hydroxy-3-methoxyphenyl)methyl]-, (3<em>R</em>,4<em>R</em>)-;2(3<em>H</em>)-Furanone, 4-[(3,4-dimethoxyphenyl)methyl]dihydro-3-[(4-hydroxy-3-methoxyphenyl)methyl]-, (3<em>R</em>-<em>trans</em>)-;(3<em>R</em>,4<em>R</em>)-4-[(3,4-Dimethoxyphenyl)methyl]dihydro-3-[(4-hydroxy-3-methoxyphenyl)methyl]-2(3<em>H</em>)-furanone;Arctigenin;(-)-Arctigenin;Arctidine",
    "duplicated_cas_no": "26687-78-5;41328-87-4",
    "SMILES": "C([C@@H]1[C@@H](CC2=CC(OC)=C(OC)C=C2)COC1=O)C3=CC(OC)=C(O)C=C3",
    "meta_data": {
        "InChI": "InChI=1S/C21H24O6/c1-24-18-7-5-13(11-20(18)26-3)8-15-12-27-21(23)16(15)9-14-4-6-17(22)19(10-14)25-2/h4-7,10-11,15-16,22H,8-9,12H2,1-3H3/t15-,16+/m0/s1",
        "InChIKey": null,
        "Canonical SMILES": "O=C1OCC(CC2=CC=C(OC)C(OC)=C2)C1CC3=CC=C(O)C(OC)=C3",
        "Molecular Formula": "C<sub>21</sub>H<sub>24</sub>O<sub>6</sub>",
        "Molecular Mass": "372.41",
        "Melting Point": "100-101 °C"
    }
}