{
    "cas_no": "3086-62-2",
    "key_name": "3,4,5-Trimethoxybenzamide",
    "cn_name": "3,4,5-三甲氧基苯甲酰胺;",
    "alternate_name": "Benzamide, 3,4,5-trimethoxy-;3,4,5-Trimethoxybenzamide;NSC 16947",
    "duplicated_cas_no": "",
    "SMILES": "O(C)C1=C(OC)C=C(C(N)=O)C=C1OC",
    "meta_data": {
        "InChI": "InChI=1S/C10H13NO4/c1-13-7-4-6(10(11)12)5-8(14-2)9(7)15-3/h4-5H,1-3H3,(H2,11,12)",
        "InChIKey": null,
        "Canonical SMILES": "O=C(N)C1=CC(OC)=C(OC)C(OC)=C1",
        "Molecular Formula": "C<sub>10</sub>H<sub>13</sub>NO<sub>4</sub>",
        "Molecular Mass": "211.21",
        "Melting Point": "175-177 °C"
    }
}