{
    "cas_no": "3612-18-8",
    "key_name": "1-Ethyl-4-piperidinone",
    "cn_name": "N-乙基-4-哌啶酮;N-乙基哌啶酮;",
    "alternate_name": "4-Piperidinone, 1-ethyl-;4-Piperidone, 1-ethyl-;1-Ethyl-4-piperidinone;1-Ethyl-4-piperidone;<em>N</em>-Ethyl-4-piperidone;1-Ethyl-4-oxopiperidine;1-Ethylpiperidine-4-one",
    "duplicated_cas_no": "",
    "SMILES": "C(C)N1CCC(=O)CC1",
    "meta_data": {
        "InChI": "InChI=1S/C7H13NO/c1-2-8-5-3-7(9)4-6-8/h2-6H2,1H3",
        "InChIKey": null,
        "Canonical SMILES": "O=C1CCN(CC)CC1",
        "Molecular Formula": "C<sub>7</sub>H<sub>13</sub>NO",
        "Molecular Mass": "127.18",
        "Boiling Point": "46-48 °C @ Press: 1 Torr",
        "Melting Point": "45-47 °C",
        "Density": "9.44 x 10⁻⁴ g/cm³ (liquid)"
    }
}