{
    "cas_no": "78238-13-8",
    "key_name": "Benzoic acid, 3-methoxy-5-nitro-, methyl ester",
    "cn_name": null,
    "alternate_name": "Benzoic acid, 3-methoxy-5-nitro-, methyl ester;3-Methoxy-5-nitrobenzoic acid methyl ester;Methyl 3-methoxy-5-nitrobenzoate",
    "duplicated_cas_no": "",
    "SMILES": "C(OC)(=O)C1=CC(N(=O)=O)=CC(OC)=C1",
    "meta_data": {
        "InChI": "InChI=1S/C9H9NO5/c1-14-8-4-6(9(11)15-2)3-7(5-8)10(12)13/h3-5H,1-2H3",
        "InChIKey": null,
        "Canonical SMILES": "O=C(OC)C1=CC(OC)=CC(=C1)N(=O)=O",
        "Molecular Formula": "C<sub>9</sub>H<sub>9</sub>NO<sub>5</sub>",
        "Molecular Mass": "211.17",
        "Melting Point": "88-90 °C"
    }
}