{
    "cas_no": "142720-24-9",
    "key_name": "2-(4-Fluorophenyl)-<em>N</em>,<em>N</em>-dihexyl-1<em>H</em>-indole-3-acetamide",
    "cn_name": "N,N-二己基-2-(4-氟苯)吲哚-3-乙酰胺;",
    "alternate_name": "1<em>H</em>-Indole-3-acetamide, 2-(4-fluorophenyl)-<em>N</em>,<em>N</em>-dihexyl-;2-(4-Fluorophenyl)-<em>N</em>,<em>N</em>-dihexyl-1<em>H</em>-indole-3-acetamide;FGIN 1-27",
    "duplicated_cas_no": "",
    "SMILES": "C(C(N(CCCCCC)CCCCCC)=O)C1=C(NC=2C1=CC=CC2)C3=CC=C(F)C=C3",
    "meta_data": {
        "InChI": "InChI=1S/C28H37FN2O/c1-3-5-7-11-19-31(20-12-8-6-4-2)27(32)21-25-24-13-9-10-14-26(24)30-28(25)22-15-17-23(29)18-16-22/h9-10,13-18,30H,3-8,11-12,19-21H2,1-2H3",
        "InChIKey": null,
        "Canonical SMILES": "O=C(N(CCCCCC)CCCCCC)CC=1C=2C=CC=CC2NC1C=3C=CC(F)=CC3",
        "Molecular Formula": "C<sub>28</sub>H<sub>37</sub>FN<sub>2</sub>O",
        "Molecular Mass": "436.60",
        "Melting Point": "96-97 °C"
    }
}