{
    "cas_no": "109628-27-5",
    "key_name": "<em>N</em>-(6-Methoxy-8-quinolinyl)-4-methylbenzenesulfonamide",
    "cn_name": "N-(6-甲氧基-8-喹啉基)对甲苯磺酰胺;",
    "alternate_name": "Benzenesulfonamide, <em>N</em>-(6-methoxy-8-quinolinyl)-4-methyl-;<em>p</em>-Toluenesulfonamide, <em>N</em>-(6-methoxy-8-quinolyl)-;<em>N</em>-(6-Methoxy-8-quinolinyl)-4-methylbenzenesulfonamide;TSQ;NSC 120213",
    "duplicated_cas_no": "",
    "SMILES": "N(S(=O)(=O)C1=CC=C(C)C=C1)C=2C3=C(C=C(OC)C2)C=CC=N3",
    "meta_data": {
        "InChI": "InChI=1S/C17H16N2O3S/c1-12-5-7-15(8-6-12)23(20,21)19-16-11-14(22-2)10-13-4-3-9-18-17(13)16/h3-11,19H,1-2H3",
        "InChIKey": null,
        "Canonical SMILES": "O=S(=O)(NC1=CC(OC)=CC2=CC=CN=C21)C3=CC=C(C=C3)C",
        "Molecular Formula": "C<sub>17</sub>H<sub>16</sub>N<sub>2</sub>O<sub>3</sub>S",
        "Molecular Mass": "328.39",
        "Melting Point": "131-132 °C"
    }
}