{
    "cas_no": "111-12-6",
    "key_name": "Methyl 2-octynoate",
    "cn_name": "2-辛炔酸甲酯;庚炔碳酸甲酯;",
    "alternate_name": "2-Octynoic acid, methyl ester;Folione;Methyl 2-octynoate;Vert de violette, artificial;Methyl 2-octynate;Methyl pentylacetylenecarboxylate;NSC 72098",
    "duplicated_cas_no": "53073-28-2",
    "SMILES": "C(#CC(OC)=O)CCCCC",
    "meta_data": {
        "InChI": "InChI=1S/C9H14O2/c1-3-4-5-6-7-8-9(10)11-2/h3-6H2,1-2H3",
        "InChIKey": null,
        "Canonical SMILES": "O=C(C#CCCCCC)OC",
        "Molecular Formula": "C<sub>9</sub>H<sub>14</sub>O<sub>2</sub>",
        "Molecular Mass": "154.21",
        "Boiling Point": "78 °C @ Press: 4 Torr"
    }
}