{
    "cas_no": "83121-18-0",
    "key_name": "Teflubenzuron",
    "cn_name": "氟苯脲;1-(3,5-二氯-2,4-二氟苯基)-3-(2,6-二氟苯甲酰基)脲;",
    "alternate_name": "Benzamide, <em>N</em>-[[(3,5-dichloro-2,4-difluorophenyl)amino]carbonyl]-2,6-difluoro-;<em>N</em>-[[(3,5-Dichloro-2,4-difluorophenyl)amino]carbonyl]-2,6-difluorobenzamide;CME 134;CME 134-01;CME 13406;Nomolt;Teflubenzuron;HOE 522;Tefluron;MK 139;OMS 3009;AC 291898;Calicide;Nomolt agro;Ektobann;Telubenzuron",
    "duplicated_cas_no": "99039-56-2;91482-28-9",
    "SMILES": "N(C(NC(=O)C1=C(F)C=CC=C1F)=O)C2=C(F)C(Cl)=C(F)C(Cl)=C2",
    "meta_data": {
        "InChI": "InChI=1S/C14H6Cl2F4N2O2/c15-5-4-8(12(20)10(16)11(5)19)21-14(24)22-13(23)9-6(17)2-1-3-7(9)18/h1-4H,(H2,21,22,23,24)",
        "InChIKey": null,
        "Canonical SMILES": "O=C(NC(=O)C=1C(F)=CC=CC1F)NC2=CC(Cl)=C(F)C(Cl)=C2F",
        "Molecular Formula": "C<sub>14</sub>H<sub>6</sub>Cl<sub>2</sub>F<sub>4</sub>N<sub>2</sub>O<sub>2</sub>",
        "Molecular Mass": "381.11",
        "Melting Point": "222.5 °C"
    }
}