{
    "cas_no": "7148-03-0",
    "key_name": "4′-Methyl[1,1′-biphenyl]-2-carboxylic acid",
    "cn_name": "4\"-甲基联苯-2-羧酸;",
    "alternate_name": "[1,1′-Biphenyl]-2-carboxylic acid, 4′-methyl-;2-Biphenylcarboxylic acid, 4′-methyl-;4′-Methyl[1,1′-biphenyl]-2-carboxylic acid;2-(4-Methylphenyl)benzoic acid;4′-Methyl-2-biphenylcarboxylic acid;2-(<em>p</em>-Tolyl)benzoic acid;4′-Methyl-2-biphenylylcarboxylic acid;NSC 26069;4-Methyl-2′-biphenylcarboxylic acid;2-Carboxy-4′-methylbiphenyl",
    "duplicated_cas_no": "",
    "SMILES": "C(O)(=O)C1=C(C=CC=C1)C2=CC=C(C)C=C2",
    "meta_data": {
        "InChI": "InChI=1S/C14H12O2/c1-10-6-8-11(9-7-10)12-4-2-3-5-13(12)14(15)16/h2-9H,1H3,(H,15,16)",
        "InChIKey": null,
        "Canonical SMILES": "O=C(O)C=1C=CC=CC1C=2C=CC(=CC2)C",
        "Molecular Formula": "C<sub>14</sub>H<sub>12</sub>O<sub>2</sub>",
        "Molecular Mass": "212.24",
        "Melting Point": "169-170 °C"
    }
}