{
    "cas_no": "128196-01-0",
    "key_name": "(+)-Citalopram",
    "cn_name": "依他普仑;1-(3-二甲基氨基丙基)-1-(4-氟苯基)-1,3-二氢异苯并呋喃-5-甲腈;",
    "alternate_name": "5-Isobenzofurancarbonitrile, 1-[3-(dimethylamino)propyl]-1-(4-fluorophenyl)-1,3-dihydro-, (1<em>S</em>)-;5-Isobenzofurancarbonitrile, 1-[3-(dimethylamino)propyl]-1-(4-fluorophenyl)-1,3-dihydro-, (<em>S</em>)-;(1<em>S</em>)-1-[3-(Dimethylamino)propyl]-1-(4-fluorophenyl)-1,3-dihydro-5-isobenzofurancarbonitrile;<em>S</em>-(+)-Citalopram;Escitalopram;(<em>S</em>)-Citalopram;(+)-(<em>S</em>)-1-(3-(Dimethylamino)propyl)-1-(4-fluorophenyl)-1,3-dihydroisobenzofuran-5-carbonitrile;(+)-Citalopram;Seroplex;(+)-(<em>S</em>)-Citalopram;(1S)-1-(3-(Dimethylamino)propyl)-1-(4-fluorophenyl)-1,3-dihydroisobenzofuran-5-carbonitrile;(1S)-1-[3-(Dimethylamino)propyl]-1-(4-fluorophenyl)-3<em>H</em>-2-benzofuran-5-carbonitrile",
    "duplicated_cas_no": "",
    "SMILES": "C(CCN(C)C)[C@@]1(C=2C(CO1)=CC(C#N)=CC2)C3=CC=C(F)C=C3",
    "meta_data": {
        "InChI": "InChI=1S/C20H21FN2O/c1-23(2)11-3-10-20(17-5-7-18(21)8-6-17)19-9-4-15(13-22)12-16(19)14-24-20/h4-9,12H,3,10-11,14H2,1-2H3/t20-/m0/s1",
        "InChIKey": null,
        "Canonical SMILES": "N#CC1=CC=C2C(=C1)COC2(C3=CC=C(F)C=C3)CCCN(C)C",
        "Molecular Formula": "C<sub>20</sub>H<sub>21</sub>FN<sub>2</sub>O",
        "Molecular Mass": "324.39",
        "Melting Point": "144-146 °C"
    }
}