{
    "cas_no": "1533-45-5",
    "key_name": "4,4′-Bis(2-benzoxazolyl)stilbene",
    "cn_name": "荧光增白剂OB-1;2,2-(4,4-二苯乙烯基)双苯并噁唑;",
    "alternate_name": "Benzoxazole, 2,2′-(1,2-ethenediyldi-4,1-phenylene)bis-;Benzoxazole, 2,2′-(vinylenedi-<em>p</em>-phenylene)bis-;2,2′-(1,2-Ethenediyldi-4,1-phenylene)bis[benzoxazole];<em>p</em>,<em>p</em>′-Bis(2-benzoxazolyl)stilbene;2,2′-(Vinylenedi-<em>p</em>-phenylene)bisbenzoxazole;4,4′-Di(benzoxazol-2-yl)stilbene;4,4′-Bis(2-benzoxazolyl)stilbene;Optical Brightener 1;C.I. 40674;Fluorescent Brightener 393;C.I. Fluorescent Brightener 393;Eastobrite OB 1;OB 1;Uvitex OB 1;Uvitex OB-ONE;Eastobrite OB 3;TM;TM (UV stabilizer);Benetex OB 1;2,2′-(1,2-Ethenediyl)bis(4,1-phenylene)bisbenzoxazole;Fluorescent brightener OB 1;1,2-Bis(4-(benzo[<em>d</em>]oxazol-2-yl)phenyl)ethene;2-[4-[2-[4-(1,3-Benzoxazol-2-yl)phenyl]ethenyl]phenyl]-1,3-benzoxazole;Benetex OB 1HP;Rylux OB 1",
    "duplicated_cas_no": "120366-98-5;2252271-38-6",
    "SMILES": "C(=CC1=CC=C(C=C1)C2=NC=3C(O2)=CC=CC3)C4=CC=C(C5=NC=6C(O5)=CC=CC6)C=C4",
    "meta_data": {
        "InChI": "InChI=1S/C28H18N2O2/c1-3-7-25-23(5-1)29-27(31-25)21-15-11-19(12-16-21)9-10-20-13-17-22(18-14-20)28-30-24-6-2-4-8-26(24)32-28/h1-18H",
        "InChIKey": null,
        "Canonical SMILES": "N1=C(OC2=CC=CC=C12)C3=CC=C(C=CC4=CC=C(C=C4)C5=NC6=CC=CC=C6O5)C=C3",
        "Molecular Formula": "C<sub>28</sub>H<sub>18</sub>N<sub>2</sub>O<sub>2</sub>",
        "Molecular Mass": "414.45",
        "Melting Point": "365-368 °C"
    }
}