{
    "cas_no": "10039-32-4",
    "key_name": "Disodium hydrogen phosphate dodecahydrate",
    "cn_name": "磷酸氢二钠;",
    "alternate_name": "Phosphoric acid, sodium salt, hydrate (1:2:12);Phosphoric acid, disodium salt, dodecahydrate;Disodium hydrogen phosphate dodecahydrate;Disodium hydrogen orthophosphate dodecahydrate;Disodium phosphate (Na<sub>2</sub>HPO<sub>4</sub>.12H<sub>2</sub>O);Disodium phosphate dodecahydrate;Disodium orthophosphate dodecahydrate;Phosphoric acid disodium dodecahydrate;Monohydrogen disodium phosphate dodecahydrate;Sodium phosphate (Na<sub>2</sub>HPO<sub>4</sub>) dodecahydrate;Disodium monohydrogen phosphate dodecahydrate;Disodium phosphate (Na<sub>2</sub>HPO<sub>4</sub>) dodecahydrate;Disodium phosphate dodecahydrate (Na<sub>2</sub>HPO<sub>4</sub>.12H<sub>2</sub>O);Monosodium phosphate dodecahydrate;1: PN: LV14347 PAGE: 18 claimed sequence;Sodium phosphate dibasic dodecahydrate;Dibasic sodium phosphate dodecahydrate",
    "duplicated_cas_no": "1374442-72-4;2061941-60-2",
    "SMILES": "P(=O)(O)(O)O.[Na].O",
    "meta_data": {
        "InChI": "InChI=1S/2Na.H3O4P.12H2O/c;;1-5(2,3)4;;;;;;;;;;;;/h;;(H3,1,2,3,4);12*1H2",
        "InChIKey": null,
        "Canonical SMILES": "[Na].O=P(O)(O)O.O",
        "Molecular Formula": "H<sub>3</sub>O<sub>4</sub>P.12H<sub>2</sub>O.2Na",
        "Molecular Mass": "",
        "Melting Point": "35 °C"
    }
}