{
    "cas_no": "104-49-4",
    "key_name": "<em>p</em>-Phenylene diisocyanate",
    "cn_name": "对苯二异氰酸酯;",
    "alternate_name": "Benzene, 1,4-diisocyanato-;Isocyanic acid, <em>p</em>-phenylene ester;Hydroquinone, diisocyanate;1,4-Diisocyanatobenzene;<em>p</em>-Phenylene diisocyanate;<em>p</em>-Phenylene isocyanate;1,4-Phenylene diisocyanate;1,4-Phenylenebis(isocyanate);NSC 94776;PPDI",
    "duplicated_cas_no": "51807-23-9",
    "SMILES": "N(=C=O)C1=CC=C(N=C=O)C=C1",
    "meta_data": {
        "InChI": "InChI=1S/C8H4N2O2/c11-5-9-7-1-2-8(4-3-7)10-6-12/h1-4H",
        "InChIKey": null,
        "Canonical SMILES": "O=C=NC1=CC=C(N=C=O)C=C1",
        "Molecular Formula": "C<sub>8</sub>H<sub>4</sub>N<sub>2</sub>O<sub>2</sub>",
        "Molecular Mass": "160.13",
        "Boiling Point": "124-125 °C @ Press: 10 Torr",
        "Melting Point": "93-94 °C (sublm)"
    }
}