{
    "cas_no": "21145-77-7",
    "key_name": "Tonalide",
    "cn_name": null,
    "alternate_name": "Ethanone, 1-(5,6,7,8-tetrahydro-3,5,5,6,8,8-hexamethyl-2-naphthalenyl)-;2′-Acetonaphthone, 5′,6′,7′,8′-tetrahydro-3′,5′,5′,6′,8′,8′-hexamethyl-;1-(5,6,7,8-Tetrahydro-3,5,5,6,8,8-hexamethyl-2-naphthalenyl)ethanone;Tonalid;Tonalide;AHMT;Musk tonalid;AHTN;AHMT (perfume);7-Acetyl-1,1,3,4,4,6-hexamethyltetralin;Extralide;Tentarome;Fixolide;6-Acetyl-1,1,2,4,4,7-hexamethyltetralin;Tetralide;NSC 19550;7-Acetyl-1,1,3,4,4,6-hexamethyltetraline;6-Acetyl-1,1,2,4,4,7-hexamethyltetraline;Acetylhexamethyltetrahydronaphthalene;7-Acetyl-1,1,3,4,4,6-hexamethyl-1,2,3,4-tetra-hydronaphthalene;1-(3,5,5,6,8,8-Hexamethyl-5,6,7,8-tetrahydronaphthalen-2-yl)ethan-1-one;1-(3,5,5,6,8,8-Hexamethyl-5,6,7,8-tetrahydronaphthalen-2-yl)ethanone;1-(3,5,5,6,8,8-Hexamethyl-6,7-dihydronaphthalen-2-yl)ethanone;1-(3,5,5,6,8,8-Hexamethyl-5,6,7,8-tetrahydro-naphthalen-2-yl)-ethanone",
    "duplicated_cas_no": "131433-13-1",
    "SMILES": "CC1(C)C=2C(=CC(C(C)=O)=C(C)C2)C(C)(C)CC1C",
    "meta_data": {
        "InChI": "InChI=1S/C18H26O/c1-11-8-16-15(9-14(11)13(3)19)17(4,5)10-12(2)18(16,6)7/h8-9,12H,10H2,1-7H3",
        "InChIKey": null,
        "Canonical SMILES": "O=C(C=1C=C2C(=CC1C)C(C)(C)C(C)CC2(C)C)C",
        "Molecular Formula": "C<sub>18</sub>H<sub>26</sub>O",
        "Molecular Mass": "258.40",
        "Boiling Point": "124 °C @ Press: 1 Torr"
    }
}