{
    "cas_no": "94105-90-5",
    "key_name": "3,4-Dihydro-3-(4-hydroxyphenyl)-2<em>H</em>-1-benzopyran-7-ol",
    "cn_name": "(±)-雌马酚;",
    "alternate_name": "2<em>H</em>-1-Benzopyran-7-ol, 3,4-dihydro-3-(4-hydroxyphenyl)-;3,4-Dihydro-3-(4-hydroxyphenyl)-2<em>H</em>-1-benzopyran-7-ol;(±)-Equol;NV 07α;7,4′-Homoisoflavane",
    "duplicated_cas_no": "66036-38-2",
    "SMILES": "OC=1C=C2C(CC(CO2)C3=CC=C(O)C=C3)=CC1",
    "meta_data": {
        "InChI": "InChI=1S/C15H14O3/c16-13-4-1-10(2-5-13)12-7-11-3-6-14(17)8-15(11)18-9-12/h1-6,8,12,16-17H,7,9H2",
        "InChIKey": null,
        "Canonical SMILES": "OC1=CC=C(C=C1)C2COC3=CC(O)=CC=C3C2",
        "Molecular Formula": "C<sub>15</sub>H<sub>14</sub>O<sub>3</sub>",
        "Molecular Mass": "242.27",
        "Melting Point": "158 °C"
    }
}