{
    "cas_no": "66080-45-3",
    "key_name": "2-Methoxy-4-pyridinol",
    "cn_name": null,
    "alternate_name": "4-Pyridinol, 2-methoxy-;2-Methoxy-4-pyridinol;2-Methoxypyridin-4-ol;2-Methoxy-1<em>H</em>-pyridin-4-one",
    "duplicated_cas_no": "",
    "SMILES": "O(C)C1=CC(O)=CC=N1",
    "meta_data": {
        "InChI": "InChI=1S/C6H7NO2/c1-9-6-4-5(8)2-3-7-6/h2-4H,1H3,(H,7,8)",
        "InChIKey": null,
        "Canonical SMILES": "OC=1C=CN=C(OC)C1",
        "Molecular Formula": "C<sub>6</sub>H<sub>7</sub>NO<sub>2</sub>",
        "Molecular Mass": "125.13",
        "Melting Point": "133.5-134.0 °C"
    }
}