{
    "cas_no": "17082-70-1",
    "key_name": "4-[2-(Trichlorosilyl)ethyl]pyridine",
    "cn_name": null,
    "alternate_name": "Pyridine, 4-[2-(trichlorosilyl)ethyl]-;4-[2-(Trichlorosilyl)ethyl]pyridine;2-(4-Pyridyl)-1-(trichlorosilyl)ethane",
    "duplicated_cas_no": "",
    "SMILES": "C(C[Si](Cl)(Cl)Cl)C=1C=CN=CC1",
    "meta_data": {
        "InChI": "InChI=1S/C7H8Cl3NSi/c8-12(9,10)6-3-7-1-4-11-5-2-7/h1-2,4-5H,3,6H2",
        "InChIKey": null,
        "Canonical SMILES": "Cl[Si](Cl)(Cl)CCC=1C=CN=CC1",
        "Molecular Formula": "C<sub>7</sub>H<sub>8</sub>Cl<sub>3</sub>NSi",
        "Molecular Mass": "240.59",
        "Boiling Point": "78-80 °C @ Press: 0.1 Torr",
        "Melting Point": "210 °C",
        "Density": "0.930 g/cm³"
    }
}