{
    "cas_no": "587-90-6",
    "key_name": "4,4′-Dinitrocarbanilide",
    "cn_name": "1,3-二(4-硝基苯)脲;4,4\"-二硝基二苯脲;",
    "alternate_name": "Urea, <em>N</em>,<em>N</em>′-bis(4-nitrophenyl)-;Carbanilide, 4,4′-dinitro-;<em>N</em>,<em>N</em>′-Bis(4-nitrophenyl)urea;4,4′-Dinitrocarbanilide;4,4′-Dinitrodiphenylurea;<em>N</em>,<em>N</em>′-Di(<em>p</em>-nitrophenyl)urea;DNC;<em>N</em>,<em>N</em>′-Bis(<em>p</em>-nitrophenyl)urea;NSC 101086;1,3-Bis(4-nitrophenyl)urea;1,3-Di(4-nitrophenyl)urea;1,3-Bis(<em>p</em>-nitrophenyl)urea",
    "duplicated_cas_no": "",
    "SMILES": "N(C(NC1=CC=C(N(=O)=O)C=C1)=O)C2=CC=C(N(=O)=O)C=C2",
    "meta_data": {
        "InChI": "InChI=1S/C13H10N4O5/c18-13(14-9-1-5-11(6-2-9)16(19)20)15-10-3-7-12(8-4-10)17(21)22/h1-8H,(H2,14,15,18)",
        "InChIKey": null,
        "Canonical SMILES": "O=C(NC1=CC=C(C=C1)N(=O)=O)NC2=CC=C(C=C2)N(=O)=O",
        "Molecular Formula": "C<sub>13</sub>H<sub>10</sub>N<sub>4</sub>O<sub>5</sub>",
        "Molecular Mass": "302.24",
        "Melting Point": "312 °C (decomp)"
    }
}