{
    "cas_no": "2031-62-1",
    "key_name": "Methyldiethoxysilane",
    "cn_name": "甲基二乙氧基硅烷;",
    "alternate_name": "Silane, diethoxymethyl-;Diethoxymethylsilane;Methyldiethoxysilane;NSC 139844;DEMS",
    "duplicated_cas_no": "",
    "SMILES": "[SiH](OCC)(OCC)C",
    "meta_data": {
        "InChI": "InChI=1S/C5H14O2Si/c1-4-6-8(3)7-5-2/h8H,4-5H2,1-3H3",
        "InChIKey": null,
        "Canonical SMILES": "O(CC)[SiH](OCC)C",
        "Molecular Formula": "C<sub>5</sub>H<sub>14</sub>O<sub>2</sub>Si",
        "Molecular Mass": "134.25",
        "Boiling Point": "94-95 °C",
        "Density": "0.829 g/cm³"
    }
}