{
    "cas_no": "98967-40-9",
    "key_name": "Flumetsulam",
    "cn_name": "唑嘧磺草胺;氟唑嘧磺草胺;N-(2,6-二氟苯基)-5-甲基-1,2,4-三唑并[1,5-a]嘧啶-2-磺酰胺;",
    "alternate_name": "[1,2,4]Triazolo[1,5-<em>a</em>]pyrimidine-2-sulfonamide, <em>N</em>-(2,6-difluorophenyl)-5-methyl-;<em>N</em>-(2,6-Difluorophenyl)-5-methyl-[1,2,4]triazolo[1,5-<em>a</em>]pyrimidine-2-sulfonamide;Flumetsulam;DE 498;XRD 498;Broadstrike;Python;Python (pesticide);Scorpion (pesticide);Scorpion",
    "duplicated_cas_no": "",
    "SMILES": "S(NC1=C(F)C=CC=C1F)(=O)(=O)C=2N=C3N(N2)C=CC(C)=N3",
    "meta_data": {
        "InChI": "InChI=1S/C12H9F2N5O2S/c1-7-5-6-19-11(15-7)16-12(17-19)22(20,21)18-10-8(13)3-2-4-9(10)14/h2-6,18H,1H3",
        "InChIKey": null,
        "Canonical SMILES": "O=S(=O)(NC=1C(F)=CC=CC1F)C=2N=C3N=C(C=CN3N2)C",
        "Molecular Formula": "C<sub>12</sub>H<sub>9</sub>F<sub>2</sub>N<sub>5</sub>O<sub>2</sub>S",
        "Molecular Mass": "325.29",
        "Melting Point": "252 °C"
    }
}