{
    "cas_no": "35691-65-7",
    "key_name": "1,2-Dibromo-2,4-dicyanobutane",
    "cn_name": "1,2-二溴-2,4-二氰基丁烷;",
    "alternate_name": "Pentanedinitrile, 2-bromo-2-(bromomethyl)-;2-Bromo-2-(bromomethyl)pentanedinitrile;2-Bromo-2-(bromomethyl)glutaronitrile;1,2-Dibromo-2,4-dicyanobutane;Tektamer 38;Tektamer 38AD;BBMG;1-Bromo-1-(bromomethyl)-1,3-propanedicarbonitrile;Methyldibromoglutaronitrile;Tektamer;MDBGN;Tuopai DM 01;DBDCB;Bromothalonil;Merguard 1105;Cosmoguard",
    "duplicated_cas_no": "",
    "SMILES": "C(CCC#N)(CBr)(C#N)Br",
    "meta_data": {
        "InChI": "InChI=1S/C6H6Br2N2/c7-4-6(8,5-10)2-1-3-9/h1-2,4H2",
        "InChIKey": null,
        "Canonical SMILES": "N#CCCC(Br)(C#N)CBr",
        "Molecular Formula": "C<sub>6</sub>H<sub>6</sub>Br<sub>2</sub>N<sub>2</sub>",
        "Molecular Mass": "265.93",
        "Melting Point": "52 °C"
    }
}