{
    "cas_no": "5051-62-7",
    "key_name": "Guanabenz",
    "cn_name": "胍那苄;氯苄胍;氯压胍;氯苄氨胍;",
    "alternate_name": "Hydrazinecarboximidamide, 2-[(2,6-dichlorophenyl)methylene]-;Guanidine, [(2,6-dichlorobenzylidene)amino]-;2-[(2,6-Dichlorophenyl)methylene]hydrazinecarboximidamide;<em>N</em>-(2,6-Dichlorobenzylidene)-<em>N</em>′-amidinohydrazine;Guanabenz;[(2,6-Dichlorobenzylidene)amino]guanidine;Wy 8678;NSC 68982",
    "duplicated_cas_no": "",
    "SMILES": "C(=NNC(=N)N)C1=C(Cl)C=CC=C1Cl",
    "meta_data": {
        "InChI": "InChI=1S/C8H8Cl2N4/c9-6-2-1-3-7(10)5(6)4-13-14-8(11)12/h1-4H,(H4,11,12,14)",
        "InChIKey": null,
        "Canonical SMILES": "ClC1=CC=CC(Cl)=C1C=NNC(=N)N",
        "Molecular Formula": "C<sub>8</sub>H<sub>8</sub>Cl<sub>2</sub>N<sub>4</sub>",
        "Molecular Mass": "231.08",
        "Melting Point": "228 °C (decomp)"
    }
}