{
    "cas_no": "142-62-1",
    "key_name": "Hexanoic acid",
    "cn_name": "己酸;正己酸;",
    "alternate_name": "Hexanoic acid;Butylacetic acid;Caproic acid;Capronic acid;<em>n</em>-Hexoic acid;<em>n</em>-Hexanoic acid;Pentylformic acid;<em>n</em>-Caproic acid;<em>n</em>-Hexylic acid;1-Pentanecarboxylic acid;Hexoic acid;1-Hexanoic acid;Hexylic acid;NSC 35598;NSC 8266;NAA 60",
    "duplicated_cas_no": "53896-26-7",
    "SMILES": "C(CCCC)C(O)=O",
    "meta_data": {
        "InChI": "InChI=1S/C6H12O2/c1-2-3-4-5-6(7)8/h2-5H2,1H3,(H,7,8)",
        "InChIKey": null,
        "Canonical SMILES": "O=C(O)CCCCC",
        "Molecular Formula": "C<sub>6</sub>H<sub>12</sub>O<sub>2</sub>",
        "Molecular Mass": "116.16",
        "Boiling Point": "205.8 °C",
        "Melting Point": "-3.4 °C",
        "Density": "0.929 g/cm³ @ Temp: 20 °C"
    }
}