{
    "cas_no": "78-34-2",
    "key_name": "Dioxathion",
    "cn_name": "敌恶磷;二恶硫磷;敌杀磷;环氧硫磷;虫满敌;",
    "alternate_name": "Phosphorodithioic acid, <em>S</em><sup>P</sup>,<em>S</em><sup>P′</sup>-1,4-dioxane-2,3-diyl <em>O</em><sup>P</sup>,<em>O</em><sup>P</sup>,<em>O</em><sup>P′</sup>,<em>O</em><sup>P′</sup>-tetraethyl ester;Phosphorodithioic acid, <em>S</em>,<em>S</em>′-<em>p</em>-dioxane-2,3-diyl <em>O</em>,<em>O</em>,<em>O</em>′,<em>O</em>′-tetraethyl ester;Phosphorodithioic acid, <em>S</em>,<em>S</em>′-1,4-dioxane-2,3-diyl <em>O</em>,<em>O</em>,<em>O</em>′,<em>O</em>′-tetraethyl ester;ENT 22,897;1,4-Dioxan-2,3-diyl bis(<em>O</em>,<em>O</em>-diethyl phosphorothiolothionate);2,3-<em>p</em>-Dioxanedithiol <em>S</em>,<em>S</em>-bis(<em>O</em>,<em>O</em>-diethyl phosphorodithioate);Dioxathion;Hercules 528;Kavadel;Navadel;Delnav;Delnatex;AC 528;Dioxation;2,3-Bis(diethoxyphosphinothioylthio)-1,4-dioxane",
    "duplicated_cas_no": "",
    "SMILES": "P(SC1C(SP(OCC)(OCC)=S)OCCO1)(OCC)(OCC)=S",
    "meta_data": {
        "InChI": "InChI=1S/C12H26O6P2S4/c1-5-15-19(21,16-6-2)23-11-12(14-10-9-13-11)24-20(22,17-7-3)18-8-4/h11-12H,5-10H2,1-4H3",
        "InChIKey": null,
        "Canonical SMILES": "S=P(OCC)(OCC)SC1OCCOC1SP(=S)(OCC)OCC",
        "Molecular Formula": "C<sub>12</sub>H<sub>26</sub>O<sub>6</sub>P<sub>2</sub>S<sub>4</sub>",
        "Molecular Mass": "456.54",
        "Melting Point": "-20 °C",
        "Density": "1.257 g/cm³ @ Temp: 26 °C"
    }
}