{
    "cas_no": "14622-13-0",
    "key_name": "Dodecanoic acid, lithium salt (1:1)",
    "cn_name": null,
    "alternate_name": "Dodecanoic acid, lithium salt (1:1);Lauric acid, lithium salt;Dodecanoic acid, lithium salt;Lithium laurate;Lithium dodecanoate;LS 3",
    "duplicated_cas_no": "",
    "SMILES": "C(CCCCCCCC)CCC(O)=O.[Li]",
    "meta_data": {
        "InChI": "InChI=1S/C12H24O2.Li/c1-2-3-4-5-6-7-8-9-10-11-12(13)14;/h2-11H2,1H3,(H,13,14);",
        "InChIKey": null,
        "Canonical SMILES": "[Li].O=C(O)CCCCCCCCCCC",
        "Molecular Formula": "C<sub>12</sub>H<sub>24</sub>O<sub>2</sub>.Li",
        "Molecular Mass": "",
        "Melting Point": "226-227 °C"
    }
}