{
    "cas_no": "54221-96-4",
    "key_name": "6-Methoxy-2-pyridinecarboxaldehyde",
    "cn_name": "6-甲氧基吡啶-2-甲醛;",
    "alternate_name": "2-Pyridinecarboxaldehyde, 6-methoxy-;6-Methoxy-2-pyridinecarboxaldehyde;6-Methoxypyridine-2-carbaldehyde;2-Formyl-6-methoxypyridine;6-Methoxypyridine-2-carboxaldehyde;6-Methoxypyridin-2-carboxaldehyde;2-Methoxy-6-pyridinecarboxaldehyde;6-Methoxypicolinaldehyde",
    "duplicated_cas_no": "",
    "SMILES": "C(=O)C=1N=C(OC)C=CC1",
    "meta_data": {
        "InChI": "InChI=1S/C7H7NO2/c1-10-7-4-2-3-6(5-9)8-7/h2-5H,1H3",
        "InChIKey": null,
        "Canonical SMILES": "O=CC1=NC(OC)=CC=C1",
        "Molecular Formula": "C<sub>7</sub>H<sub>7</sub>NO<sub>2</sub>",
        "Molecular Mass": "137.14",
        "Boiling Point": "103-104 °C @ Press: 20 Torr"
    }
}