{
    "cas_no": "16415-12-6",
    "key_name": "Hexadecyltrimethoxysilane",
    "cn_name": "己烷基三甲氧基硅烷;",
    "alternate_name": "Silane, hexadecyltrimethoxy-;Hexadecyltrimethoxysilane;AY 43-216MC;<em>n</em>-Hexadecyltrimethoxysilane;Dynasylan 9116;Silane 116;Si 116;VP-Si 116;Trimethoxyhexadecylsilane;Cetyltrimethoxysilane;Silane 25013VP;Cetyltrimethylsilane;QX 1613;KH 310;CG 1613;H 1376;SIH 5925.0;Kh 1631;CG 1631;SCA-K 16M;CG-N 1613;Dynasilan 9116",
    "duplicated_cas_no": "",
    "SMILES": "[Si](CCCCCCCCCCCCCCCC)(OC)(OC)OC",
    "meta_data": {
        "InChI": "InChI=1S/C19H42O3Si/c1-5-6-7-8-9-10-11-12-13-14-15-16-17-18-19-23(20-2,21-3)22-4/h5-19H2,1-4H3",
        "InChIKey": null,
        "Canonical SMILES": "O(C)[Si](OC)(OC)CCCCCCCCCCCCCCCC",
        "Molecular Formula": "C<sub>19</sub>H<sub>42</sub>O<sub>3</sub>Si",
        "Molecular Mass": "346.62",
        "Boiling Point": "155 °C @ Press: 0.2 Torr",
        "Melting Point": "-1 °C",
        "Density": "0.890 g/cm³"
    }
}