{
    "cas_no": "4442-85-7",
    "key_name": "Cyclohexaneethanamine",
    "cn_name": "2-环己基乙胺,97%;",
    "alternate_name": "Cyclohexaneethanamine;Cyclohexaneethylamine;2-Cyclohexylethanamine;2-Cyclohexylethylamine;2-Aminoethylcyclohexane;2-Cyclohexane-1-aminoethane;NSC 44879;NSC 59005;2-Cyclohexylethan-1-amine",
    "duplicated_cas_no": "1082680-28-1",
    "SMILES": "C(CN)C1CCCCC1",
    "meta_data": {
        "InChI": "InChI=1S/C8H17N/c9-7-6-8-4-2-1-3-5-8/h8H,1-7,9H2",
        "InChIKey": null,
        "Canonical SMILES": "NCCC1CCCCC1",
        "Molecular Formula": "C<sub>8</sub>H<sub>17</sub>N",
        "Molecular Mass": "127.23",
        "Boiling Point": "188-189 °C",
        "Melting Point": "258 °C",
        "Density": "0.9077 g/cm³ @ Temp: 20 °C"
    }
}