{
    "cas_no": "4088-22-6",
    "key_name": "Dioctadecylmethylamine",
    "cn_name": null,
    "alternate_name": "1-Octadecanamine, <em>N</em>-methyl-<em>N</em>-octadecyl-;Dioctadecylamine, <em>N</em>-methyl-;<em>N</em>-Methyl-<em>N</em>-octadecyl-1-octadecanamine;Distearylmethylamine;<em>N</em>-Methyl-<em>N</em>,<em>N</em>-dioctadecylamine;<em>N</em>-Methyldioctadecylamine;<em>N</em>,<em>N</em>-Dioctadecylmethylamine;Methyldistearylamine;Distearyl-<em>N</em>-methylamine;Methyldioctadecylamine;Dioctadecylmethylamine;Armeen M 2-18;<em>N</em>,<em>N</em>-Dioctadecyl-<em>N</em>-methylamine;Radiamine 6346;Methylbis(octadecyl)amine;Hydrogen ionophore III;Di(<em>n</em>-octadecyl)methylamine",
    "duplicated_cas_no": "",
    "SMILES": "C(N(CCCCCCCCCCCCCCCCCC)C)CCCCCCCCCCCCCCCCC",
    "meta_data": {
        "InChI": "InChI=1S/C37H77N/c1-4-6-8-10-12-14-16-18-20-22-24-26-28-30-32-34-36-38(3)37-35-33-31-29-27-25-23-21-19-17-15-13-11-9-7-5-2/h4-37H2,1-3H3",
        "InChIKey": null,
        "Canonical SMILES": "N(C)(CCCCCCCCCCCCCCCCCC)CCCCCCCCCCCCCCCCCC",
        "Molecular Formula": "C<sub>37</sub>H<sub>77</sub>N",
        "Molecular Mass": "536.01",
        "Boiling Point": "251 °C @ Press: 0.7 Torr"
    }
}