{
    "cas_no": "251085-87-7",
    "key_name": "Methyl 5-bromo-2-chlorobenzoate",
    "cn_name": null,
    "alternate_name": "Benzoic acid, 5-bromo-2-chloro-, methyl ester;Methyl 5-bromo-2-chlorobenzoate;5-Bromo-2-chlorobenzoic acid methyl ester;2-Chloro-5-bromobenzoic acid methyl ester",
    "duplicated_cas_no": "",
    "SMILES": "C(OC)(=O)C1=C(Cl)C=CC(Br)=C1",
    "meta_data": {
        "InChI": "InChI=1S/C8H6BrClO2/c1-12-8(11)6-4-5(9)2-3-7(6)10/h2-4H,1H3",
        "InChIKey": null,
        "Canonical SMILES": "O=C(OC)C1=CC(Br)=CC=C1Cl",
        "Molecular Formula": "C<sub>8</sub>H<sub>6</sub>BrClO<sub>2</sub>",
        "Molecular Mass": "249.49",
        "Melting Point": "43-44 °C"
    }
}