{
    "cas_no": "99281-90-0",
    "key_name": "1,1-Dimethylethyl <em>N</em>-[(1<em>S</em>)-1-cyano-2-phenylethyl]carbamate",
    "cn_name": "Boc-L-苯丙氨腈; (S)-1-氰基-2-苯基乙基氨基甲酸叔丁酯;",
    "alternate_name": "Carbamic acid, <em>N</em>-[(1<em>S</em>)-1-cyano-2-phenylethyl]-, 1,1-dimethylethyl ester;Carbamic acid, (1-cyano-2-phenylethyl)-, 1,1-dimethylethyl ester, (<em>S</em>)-;Carbamic acid, [(1<em>S</em>)-1-cyano-2-phenylethyl]-, 1,1-dimethylethyl ester;1,1-Dimethylethyl <em>N</em>-[(1<em>S</em>)-1-cyano-2-phenylethyl]carbamate",
    "duplicated_cas_no": "944726-83-4;1120367-08-9",
    "SMILES": "[C@@H](CC1=CC=CC=C1)(NC(OC(C)(C)C)=O)C#N",
    "meta_data": {
        "InChI": "InChI=1S/C14H18N2O2/c1-14(2,3)18-13(17)16-12(10-15)9-11-7-5-4-6-8-11/h4-8,12H,9H2,1-3H3,(H,16,17)/t12-/m0/s1",
        "InChIKey": null,
        "Canonical SMILES": "N#CC(NC(=O)OC(C)(C)C)CC=1C=CC=CC1",
        "Molecular Formula": "C<sub>14</sub>H<sub>18</sub>N<sub>2</sub>O<sub>2</sub>",
        "Molecular Mass": "246.30",
        "Melting Point": "114-115 °C"
    }
}