{
    "cas_no": "7556-37-8",
    "key_name": "4-Hydroxy-<em>N</em>-methylindole",
    "cn_name": null,
    "alternate_name": "1<em>H</em>-Indol-4-ol, 1-methyl-;Indol-4-ol, 1-methyl-;1-Methyl-1<em>H</em>-indol-4-ol;4-Hydroxy-1-methylindole;4-Hydroxy-<em>N</em>-methylindole",
    "duplicated_cas_no": "",
    "SMILES": "OC1=C2C(N(C)C=C2)=CC=C1",
    "meta_data": {
        "InChI": "InChI=1S/C9H9NO/c1-10-6-5-7-8(10)3-2-4-9(7)11/h2-6,11H,1H3",
        "InChIKey": null,
        "Canonical SMILES": "OC1=CC=CC2=C1C=CN2C",
        "Molecular Formula": "C<sub>9</sub>H<sub>9</sub>NO",
        "Molecular Mass": "147.17",
        "Melting Point": "90 °C"
    }
}