{
    "cas_no": "4755-77-5",
    "key_name": "Ethyl oxalyl chloride",
    "cn_name": null,
    "alternate_name": "Acetic acid, 2-chloro-2-oxo-, ethyl ester;Acetic acid, chlorooxo-, ethyl ester;Glyoxylic acid, chloro-, ethyl ester;Ethoxalyl chloride;Ethyl 2-chloro-2-oxoacetate;Oxalic acid monoethyl ester chloride;Ethyl chloroglyoxylate;Ethyl oxalyl chloride;Ethyl chlorooxoacetate;Monoethyl oxaloyl chloride;Ethyl (chloroformyl)formate;Monoethyl oxalate monochloride;Oxalic acid monoethyl ester monochloride;Monoethyl oxalate chloride;Ethyl oxaloyl chloride;Oxalic acid ethyl ester chloride;Ethyl (chlorocarbonyl)carboxylate;Ethyl 2-chloro-2-oxoethanoate;Oxalic acid chloride ethyl ester;Chloroglyoxylic acid ethyl ester;NSC 80644;Chlorooxoacetic acid ethyl ester;1-(Chlorocarbonyl)formic acid ethyl ester;Oxalyl chloride ethyl ester;Ethoxyoxalyl chloride;Ethyl chlorooxalate;Ethyl oxalyl monochloride;Ethyl clorooxoacetate;Ethyl oxalochloridate;Ethyl chloroglyoxalate;Ethyl chlorooxacetate",
    "duplicated_cas_no": "",
    "SMILES": "C(OCC)(C(Cl)=O)=O",
    "meta_data": {
        "InChI": "InChI=1S/C4H5ClO3/c1-2-8-4(7)3(5)6/h2H2,1H3",
        "InChIKey": null,
        "Canonical SMILES": "O=C(Cl)C(=O)OCC",
        "Molecular Formula": "C<sub>4</sub>H<sub>5</sub>ClO<sub>3</sub>",
        "Molecular Mass": "136.53",
        "Boiling Point": "137 °C"
    }
}