{
    "cas_no": "137-00-8",
    "key_name": "4-Methyl-5-(2-hydroxyethyl)thiazole",
    "cn_name": "4-甲基-5-羟乙基噻唑;4-甲基-5-(beta-羟乙基)噻唑;",
    "alternate_name": "5-Thiazoleethanol, 4-methyl-;4-Methyl-5-thiazoleethanol;5-(2-Hydroxyethyl)-4-methylthiazole;4-Methyl-5-(β-hydroxyethyl)thiazole;4-Methyl-5-(2-hydroxyethyl)thiazole;MHT;5-(Hydroxyethyl)-4-methylthiazole;2-(4-Methylthiazole-5-yl)ethanol;5-(β-Hydroxyethyl)-4-methylthiazole;Sulfurol;2-(4-Methyl-5-thiazolyl)ethanol;4-Methyl-5-thiazolylethanol;2-(4-Methyl-1,3-thiazol-5-yl)ethanol;NSC 23262;NSC 41831;Hemineurine;4-Methyl-5-(2-thiazoleethanol);2-(4-Methyl-1,3-thiazol-5-yl)ethan-1-ol",
    "duplicated_cas_no": "8042-97-5",
    "SMILES": "C(CO)C1=C(C)N=CS1",
    "meta_data": {
        "InChI": "InChI=1S/C6H9NOS/c1-5-6(2-3-8)9-4-7-5/h4,8H,2-3H2,1H3",
        "InChIKey": null,
        "Canonical SMILES": "OCCC=1SC=NC1C",
        "Molecular Formula": "C<sub>6</sub>H<sub>9</sub>NOS",
        "Molecular Mass": "143.21",
        "Boiling Point": "135 °C",
        "Melting Point": "&lt;25 °C",
        "Density": "1.196 g/cm³ @ Temp: 24 °C"
    }
}