{
    "cas_no": "3099-31-8",
    "key_name": "3-(Chloromethyl)pyridine",
    "cn_name": "3-氯甲基吡啶;3-氯甲基吡啶;",
    "alternate_name": "Pyridine, 3-(chloromethyl)-;3-(Chloromethyl)pyridine;3-Pyridylmethyl chloride;β-Picoline chloride;3-Picolyl chloride;(Pyridin-3-yl)methyl chloride",
    "duplicated_cas_no": "",
    "SMILES": "C(Cl)C=1C=CC=NC1",
    "meta_data": {
        "InChI": "InChI=1S/C6H6ClN/c7-4-6-2-1-3-8-5-6/h1-3,5H,4H2",
        "InChIKey": null,
        "Canonical SMILES": "ClCC=1C=NC=CC1",
        "Molecular Formula": "C<sub>6</sub>H<sub>6</sub>ClN",
        "Molecular Mass": "127.57",
        "Melting Point": "140-143 °C"
    }
}