{
    "cas_no": "23786-14-3",
    "key_name": "Methyl 4-methoxybenzeneacetate",
    "cn_name": "4-甲氧基苯乙酸甲酯;",
    "alternate_name": "Benzeneacetic acid, 4-methoxy-, methyl ester;Acetic acid, (<em>p</em>-methoxyphenyl)-, methyl ester;Methyl 4-methoxybenzeneacetate;Methyl (4-methoxyphenyl)acetate;Methyl (<em>p</em>-methoxyphenyl)acetate;Methyl 2-(<em>p</em>-methoxyphenyl)acetate;(4-Methoxyphenyl)acetic acid methyl ester;Methyl 4-anisoleacetate;4-Methoxybenzeneacetic acid methyl ester;Methyl 2-(4-methoxyphenyl)acetate",
    "duplicated_cas_no": "",
    "SMILES": "C(C(OC)=O)C1=CC=C(OC)C=C1",
    "meta_data": {
        "InChI": "InChI=1S/C10H12O3/c1-12-9-5-3-8(4-6-9)7-10(11)13-2/h3-6H,7H2,1-2H3",
        "InChIKey": null,
        "Canonical SMILES": "O=C(OC)CC1=CC=C(OC)C=C1",
        "Molecular Formula": "C<sub>10</sub>H<sub>12</sub>O<sub>3</sub>",
        "Molecular Mass": "180.20",
        "Boiling Point": "158 °C @ Press: 19 Torr"
    }
}