{
    "cas_no": "123-79-5",
    "key_name": "Dioctyl adipate",
    "cn_name": "己二酸二辛酯;",
    "alternate_name": "Hexanedioic acid, 1,6-dioctyl ester;Adipic acid, dioctyl ester;Hexanedioic acid, dioctyl ester;Dioctyl adipate;Di-<em>n</em>-octyl adipate;Octyl adipate;NSC 16201;Dicaprylyl adipate",
    "duplicated_cas_no": "",
    "SMILES": "C(CCCC(OCCCCCCCC)=O)C(OCCCCCCCC)=O",
    "meta_data": {
        "InChI": "InChI=1S/C22H42O4/c1-3-5-7-9-11-15-19-25-21(23)17-13-14-18-22(24)26-20-16-12-10-8-6-4-2/h3-20H2,1-2H3",
        "InChIKey": null,
        "Canonical SMILES": "O=C(OCCCCCCCC)CCCCC(=O)OCCCCCCCC",
        "Molecular Formula": "C<sub>22</sub>H<sub>42</sub>O<sub>4</sub>",
        "Molecular Mass": "370.57",
        "Boiling Point": "214 °C",
        "Melting Point": "7.49 °C"
    }
}