{
    "cas_no": "520-28-5",
    "key_name": "Tectochrysin",
    "cn_name": null,
    "alternate_name": "4<em>H</em>-1-Benzopyran-4-one, 5-hydroxy-7-methoxy-2-phenyl-;Flavone, 5-hydroxy-7-methoxy-;5-Hydroxy-7-methoxy-2-phenyl-4<em>H</em>-1-benzopyran-4-one;5-Hydroxy-7-methoxyflavone;Tectochrysin;2-Phenyl-5-hydroxy-7-methoxychromone;7-Methoxy-5-hydroxyflavone;Techtochrysine;Techtochrysin;NSC 80687;7-<em>O</em>-Methylchrysin;5-Hydroxy-7-methoxy-2-phenyl-4<em>H</em>-chromen-4-one;7-<em>O</em>-Methoxy Chrysin;5-OH-7-methoxyflavone",
    "duplicated_cas_no": "",
    "SMILES": "O=C1C=2C(OC(=C1)C3=CC=CC=C3)=CC(OC)=CC2O",
    "meta_data": {
        "InChI": "InChI=1S/C16H12O4/c1-19-11-7-12(17)16-13(18)9-14(20-15(16)8-11)10-5-3-2-4-6-10/h2-9,17H,1H3",
        "InChIKey": null,
        "Canonical SMILES": "O=C1C=C(OC=2C=C(OC)C=C(O)C12)C=3C=CC=CC3",
        "Molecular Formula": "C<sub>16</sub>H<sub>12</sub>O<sub>4</sub>",
        "Molecular Mass": "268.26",
        "Melting Point": "165 °C"
    }
}