{
    "cas_no": "7228-47-9",
    "key_name": "1-(2-Naphthyl)ethanol",
    "cn_name": "2-萘乙醇;1-(2-萘基)乙醇;",
    "alternate_name": "2-Naphthalenemethanol, α-methyl-;α-Methyl-2-naphthalenemethanol;2-(1-Hydroxyethyl)naphthalene;1-β-Naphthylethanol;1-(2-Naphthyl)-1-ethanol;Methyl 2-naphthyl carbinol;1-(2-Naphthyl)ethanol;(±)-α-Methyl-2-naphthalenemethanol;(±)-1-(2-Naphthyl)ethanol;1-(2-Naphthalenyl)ethanol;NSC 92277;1-(Naphthalen-2-yl)ethanol;1-(Naphthalen-2-yl)ethan-1-ol",
    "duplicated_cas_no": "40295-80-5",
    "SMILES": "C(C)(O)C1=CC2=C(C=C1)C=CC=C2",
    "meta_data": {
        "InChI": "InChI=1S/C12H12O/c1-9(13)11-7-6-10-4-2-3-5-12(10)8-11/h2-9,13H,1H3",
        "InChIKey": null,
        "Canonical SMILES": "OC(C=1C=CC=2C=CC=CC2C1)C",
        "Molecular Formula": "C<sub>12</sub>H<sub>12</sub>O",
        "Molecular Mass": "172.22",
        "Boiling Point": "145 °C @ Press: 8 Torr",
        "Melting Point": "72 °C"
    }
}