{
    "cas_no": "98-03-3",
    "key_name": "2-Thiophenecarboxaldehyde",
    "cn_name": "2-噻吩甲醛;噻吩-2-甲醛;",
    "alternate_name": "2-Thiophenecarboxaldehyde;α-Thiophenecarboxaldehyde;2-Formylthiophene;2-Thiophenealdehyde;α-Formylthiophene;2-Thienylcarboxaldehyde;2-Thienylaldehyde;Thiophene-2-carbaldehyde;2-Thienaldehyde;2-Formylthiofuran;α-Thiophenaldehyde;NSC 2162;2-Thiofurancarboxaldehyde;Thiophene-<em>o</em>-carboxaldehyde;Thiofurfural;2-Thienylcarbaldehyde;Thiophene-2-carboxaldehyde;2-Thiophenaldehyde;Thiophen-2-carbaldehyde",
    "duplicated_cas_no": "",
    "SMILES": "C(=O)C1=CC=CS1",
    "meta_data": {
        "InChI": "InChI=1S/C5H4OS/c6-4-5-2-1-3-7-5/h1-4H",
        "InChIKey": null,
        "Canonical SMILES": "O=CC=1SC=CC1",
        "Molecular Formula": "C<sub>5</sub>H<sub>4</sub>OS",
        "Molecular Mass": "112.15",
        "Boiling Point": "197 °C",
        "Melting Point": "150-151 °C",
        "Density": "1.2800 g/cm³ @ Temp: 244 °C"
    }
}