{
    "cas_no": "5075-92-3",
    "key_name": "1,5-Dimethyl-2-pyrrolidone",
    "cn_name": "1,5-二甲基-2-吡咯烷酮;",
    "alternate_name": "2-Pyrrolidinone, 1,5-dimethyl-;2-Pyrrolidinone, 1,5-dimethyl-, (±)-;1,5-Dimethyl-2-pyrrolidinone;(±)-1,5-Dimethyl-2-pyrrolidone;5,<em>N</em>-Dimethyl-2-pyrrolidinone;1,5-Dimethyl-2-pyrrolidone;(±)-1,5-Dimethyl-2-pyrrolidinone;NSC 527837;5-Methyl-<em>N</em>-methylpyrrolidin-2-one;<em>N</em>-Methyl-5-methyl-2-pyrrolidone;1,5-Dimethyl-pyrrolidone",
    "duplicated_cas_no": "106692-63-1",
    "SMILES": "CN1C(C)CCC1=O",
    "meta_data": {
        "InChI": "InChI=1S/C6H11NO/c1-5-3-4-6(8)7(5)2/h5H,3-4H2,1-2H3",
        "InChIKey": null,
        "Canonical SMILES": "O=C1N(C)C(C)CC1",
        "Molecular Formula": "C<sub>6</sub>H<sub>11</sub>NO",
        "Molecular Mass": "113.16",
        "Boiling Point": "217 °C"
    }
}