{
    "cas_no": "5348-51-6",
    "key_name": "2(1<em>H</em>)-Pyrimidinone, 6-methyl-, hydrochloride (1:1)",
    "cn_name": "2-羟基-4-甲基嘧啶盐酸盐;",
    "alternate_name": "2(1<em>H</em>)-Pyrimidinone, 6-methyl-, hydrochloride (1:1);2(1<em>H</em>)-Pyrimidinone, 4-methyl-, monohydrochloride;4-Methyl-2-pyrimidinol monohydrochloride;2-Hydroxy-4-methylpyrimidine hydrochloride;4-Methyl-2(1<em>H</em>)-pyrimidinone hydrochloride;4-Methyl-1<em>H</em>-pyrimidin-2-one hydrochloride;4-Methylpyrimidin-2-ol hydrochloride",
    "duplicated_cas_no": "39931-78-7;59630-04-5",
    "SMILES": "CC=1NC(=O)N=CC1.Cl",
    "meta_data": {
        "InChI": "InChI=1S/C5H6N2O.ClH/c1-4-2-3-6-5(8)7-4;/h2-3H,1H3,(H,6,7,8);1H",
        "InChIKey": null,
        "Canonical SMILES": "Cl.O=C1N=CC=C(N1)C",
        "Molecular Formula": "C<sub>5</sub>H<sub>6</sub>N<sub>2</sub>O.ClH",
        "Molecular Mass": "",
        "Melting Point": "246 °C (decomp)"
    }
}