{
    "cas_no": "123-84-2",
    "key_name": "<em>N</em>-(2-Hydroxypropyl)ethylenediamine",
    "cn_name": "N-(2-羟丙基)乙二胺;",
    "alternate_name": "2-Propanol, 1-[(2-aminoethyl)amino]-;1-[(2-Aminoethyl)amino]-2-propanol;<em>N</em>-(β-Hydroxypropyl)ethylenediamine;<em>N</em>-(2-Hydroxypropyl)ethylenediamine;β-Hydroxypropylethylenediamine;Monolene;<em>N</em>-(β-Hydroxypropyl)-1,2-diaminoethane;(2-Hydroxypropylamino)ethylamine;<em>N</em>-(β-Aminoethyl)isopropanolamine;Amino Alcohol PA",
    "duplicated_cas_no": "121565-46-6",
    "SMILES": "C(NCCN)C(C)O",
    "meta_data": {
        "InChI": "InChI=1S/C5H14N2O/c1-5(8)4-7-3-2-6/h5,7-8H,2-4,6H2,1H3",
        "InChIKey": null,
        "Canonical SMILES": "OC(C)CNCCN",
        "Molecular Formula": "C<sub>5</sub>H<sub>14</sub>N<sub>2</sub>O",
        "Molecular Mass": "118.18",
        "Boiling Point": "155 °C",
        "Melting Point": "-50 °C",
        "Density": "0.9810 g/cm³ @ Temp: 28.5 °C"
    }
}