{
    "cas_no": "7686-77-3",
    "key_name": "3-Cyclopentene-1-carboxylic acid",
    "cn_name": "3-环戊烯甲酸;",
    "alternate_name": "3-Cyclopentene-1-carboxylic acid;4-Carboxycyclopentene;3-Cyclopentenecarboxylic acid;Cyclopent-1-ene-4-carboxylic acid;3-Cyclopentenylcarboxylic acid;Cyclopent-3-ene-1-carboxylic acid",
    "duplicated_cas_no": "130762-08-2",
    "SMILES": "C(O)(=O)C1CC=CC1",
    "meta_data": {
        "InChI": "InChI=1S/C6H8O2/c7-6(8)5-3-1-2-4-5/h1-2,5H,3-4H2,(H,7,8)",
        "InChIKey": null,
        "Canonical SMILES": "O=C(O)C1CC=CC1",
        "Molecular Formula": "C<sub>6</sub>H<sub>8</sub>O<sub>2</sub>",
        "Molecular Mass": "112.13",
        "Boiling Point": "67 °C @ Press: 14 Torr"
    }
}