{
    "cas_no": "376-68-1",
    "key_name": "3,3,4,4,5,5-Hexafluorodihydro-2<em>H</em>-pyran-2,6(3<em>H</em>)-dione",
    "cn_name": "六氟戊二酸酐;六氟戊二酸酐;全氟戊二酸酐;全氟戊二酸酐/六氟戊二酸酐;",
    "alternate_name": "2<em>H</em>-Pyran-2,6(3<em>H</em>)-dione, 3,3,4,4,5,5-hexafluorodihydro-;Glutaric anhydride, hexafluoro-;3,3,4,4,5,5-Hexafluorodihydro-2<em>H</em>-pyran-2,6(3<em>H</em>)-dione;Perfluoroglutaric anhydride;Hexafluoroglutaric anhydride;3,3,4,4,5,5-Hexafluorooxane-2,6-dione;2,2,3,3,4,4-Hexafluoropentanedioic anhydride",
    "duplicated_cas_no": "",
    "SMILES": "FC1(F)C(F)(F)C(=O)OC(=O)C1(F)F",
    "meta_data": {
        "InChI": "InChI=1S/C5F6O3/c6-3(7)1(12)14-2(13)4(8,9)5(3,10)11",
        "InChIKey": null,
        "Canonical SMILES": "O=C1OC(=O)C(F)(F)C(F)(F)C1(F)F",
        "Molecular Formula": "C<sub>5</sub>F<sub>6</sub>O<sub>3</sub>",
        "Molecular Mass": "222.04",
        "Boiling Point": "72 °C",
        "Density": "1.7231 g/cm³ @ Temp: 40 °C"
    }
}