{
    "cas_no": "56961-31-0",
    "key_name": "2-Chloro-6-hydroxybenzoic acid",
    "cn_name": null,
    "alternate_name": "Benzoic acid, 2-chloro-6-hydroxy-;Salicylic acid, 6-chloro-;2-Chloro-6-hydroxybenzoic acid;6-Chlorosalicylic acid",
    "duplicated_cas_no": "",
    "SMILES": "C(O)(=O)C1=C(Cl)C=CC=C1O",
    "meta_data": {
        "InChI": "InChI=1S/C7H5ClO3/c8-4-2-1-3-5(9)6(4)7(10)11/h1-3,9H,(H,10,11)",
        "InChIKey": null,
        "Canonical SMILES": "O=C(O)C=1C(Cl)=CC=CC1O",
        "Molecular Formula": "C<sub>7</sub>H<sub>5</sub>ClO<sub>3</sub>",
        "Molecular Mass": "172.57",
        "Melting Point": "171.5-172.5 °C"
    }
}