{
    "cas_no": "7758-95-4",
    "key_name": "Lead chloride",
    "cn_name": "氯化铅;二氯化铅;",
    "alternate_name": "Lead chloride (PbCl<sub>2</sub>);Lead dichloride;Lead(II) chloride;Lead chloride;Plumbous chloride;Lead(2+) chloride",
    "duplicated_cas_no": "",
    "SMILES": "[Pb](Cl)Cl",
    "meta_data": {
        "InChI": "InChI=1S/2ClH.Pb/h2*1H;/q;;+2/p-2",
        "InChIKey": null,
        "Canonical SMILES": "Cl[Pb]Cl",
        "Molecular Formula": "Cl<sub>2</sub>Pb",
        "Molecular Mass": "",
        "Boiling Point": "950 °C",
        "Melting Point": "501 °C",
        "Density": "5.85 g/cm³"
    }
}