{
    "cas_no": "3891-07-4",
    "key_name": "<em>N</em>-(2-Hydroxyethyl)phthalimide",
    "cn_name": "N-羟乙基酞酰亚胺;N-羟乙基邻苯二甲酰亚胺;",
    "alternate_name": "1<em>H</em>-Isoindole-1,3(2<em>H</em>)-dione, 2-(2-hydroxyethyl)-;Phthalimide, <em>N</em>-(2-hydroxyethyl)-;2-(2-Hydroxyethyl)-1<em>H</em>-isoindole-1,3(2<em>H</em>)-dione;<em>N</em>-(2-Hydroxyethyl)phthalimide;2-Phthalimidoethanol;2-(<em>N</em>-Phthalimidyl)ethyl alcohol;NSC 2773;NSC 50624;2-(2-Hydroxyethyl)isoindole-1,3-dione;2-(2-Hydroxyethyl)isoindoline-1,3-dione;<em>N</em>-Hydroxyethylphthalimide;2-(2-Hydroxyethyl)-2,3-dihydro-1<em>H</em>-isoindole-1,3-dione",
    "duplicated_cas_no": "143811-65-8",
    "SMILES": "O=C1C=2C(C(=O)N1CCO)=CC=CC2",
    "meta_data": {
        "InChI": "InChI=1S/C10H9NO3/c12-6-5-11-9(13)7-3-1-2-4-8(7)10(11)14/h1-4,12H,5-6H2",
        "InChIKey": null,
        "Canonical SMILES": "O=C1C=2C=CC=CC2C(=O)N1CCO",
        "Molecular Formula": "C<sub>10</sub>H<sub>9</sub>NO<sub>3</sub>",
        "Molecular Mass": "191.18",
        "Boiling Point": "188 °C @ Press: 6 Torr",
        "Melting Point": "126.5-127.5 °C"
    }
}