{
    "cas_no": "3167-49-5",
    "key_name": "6-Aminonicotinic acid",
    "cn_name": "6-氨基烟酸;6-氨基吡啶-3-羧酸;",
    "alternate_name": "3-Pyridinecarboxylic acid, 6-amino-;Nicotinic acid, 6-amino-;6-Amino-3-pyridinecarboxylic acid;6-Aminonicotinic acid;2-Amino-5-pyridinecarboxylic acid;2-Amino-5-carboxypyridine;6-Aminopyridine-3-carboxylic acid;NSC 229361",
    "duplicated_cas_no": "",
    "SMILES": "C(O)(=O)C=1C=CC(N)=NC1",
    "meta_data": {
        "InChI": "InChI=1S/C6H6N2O2/c7-5-2-1-4(3-8-5)6(9)10/h1-3H,(H2,7,8)(H,9,10)",
        "InChIKey": null,
        "Canonical SMILES": "O=C(O)C1=CN=C(N)C=C1",
        "Molecular Formula": "C<sub>6</sub>H<sub>6</sub>N<sub>2</sub>O<sub>2</sub>",
        "Molecular Mass": "138.12",
        "Melting Point": "312 °C"
    }
}