{
    "cas_no": "133-67-5",
    "key_name": "Trichlormethiazide",
    "cn_name": "三氯噻嗪;三氯噻嗪;",
    "alternate_name": "2<em>H</em>-1,2,4-Benzothiadiazine-7-sulfonamide, 6-chloro-3-(dichloromethyl)-3,4-dihydro-, 1,1-dioxide;6-Chloro-3-(dichloromethyl)-3,4-dihydro-2<em>H</em>-1,2,4-benzothiadiazine-7-sulfonamide 1,1-dioxide;6-Chloro-3-(dichloromethyl)-3,4-dihydro-7-sulfamyl-1,2,4-benzothiadiazine-1,1-dioxide;3-Dichloromethyl-6-chloro-7-sulfamoyl-3,4-dihydro-1,2,4-benzothiadiazine-1,1-dioxide;3-Dichloromethyl-6-chloro-7-sulfamyl-3,4-dihydro-1,2,4-benzothiadiazine 1,1-dioxide;Esmarin;Fluitran;Flutra;Hydrotrichlorothiazide;Metahydrin;Nakva;Naqua;Trichlormetazid;Trichlormethiazide;Trichloromethiazide;Trichlormethiazid;6-Chloro-3-dichloromethyl-3,4-dihydro-7-sulfamoyl-2<em>H</em>-1,2,4-benzothiadiazine 1,1-dioxide;Ciba 7057-Su;Flurese;Gangesol;Diurazida;Diuroral;Tachionin;Anatran;Carvacron;Intromene;Salirom;Naquival;Metatensin;Kubacron;Tolcasone;3-Dichloromethylhydrochlorothiazide;Aponorin;Achletin;Diurese;Triflumen;Naquasone;Anistadin;NSC 61560;MeSH ID: D014237",
    "duplicated_cas_no": "96782-89-7",
    "SMILES": "O=S1(=O)C=2C(NC(C(Cl)Cl)N1)=CC(Cl)=C(S(N)(=O)=O)C2",
    "meta_data": {
        "InChI": "InChI=1S/C8H8Cl3N3O4S2/c9-3-1-4-6(2-5(3)19(12,15)16)20(17,18)14-8(13-4)7(10)11/h1-2,7-8,13-14H,(H2,12,15,16)",
        "InChIKey": null,
        "Canonical SMILES": "O=S(=O)(N)C=1C=C2C(=CC1Cl)NC(NS2(=O)=O)C(Cl)Cl",
        "Molecular Formula": "C<sub>8</sub>H<sub>8</sub>Cl<sub>3</sub>N<sub>3</sub>O<sub>4</sub>S<sub>2</sub>",
        "Molecular Mass": "380.66",
        "Melting Point": "270 °C (decomp)"
    }
}