{
    "cas_no": "19395-41-6",
    "key_name": "2-Piperidineacetic acid, α-phenyl-",
    "cn_name": "alpha-苯基哌啶基-2-乙酸;",
    "alternate_name": "2-Piperidineacetic acid, α-phenyl-;α-Phenyl-2-piperidineacetic acid;Ritalinic acid;Rilatinic acid;2-Phenyl-2-(piperidin-2-yl)acetic acid;2-Phenyl-2-piperidin-2-ylacetic acid",
    "duplicated_cas_no": "",
    "SMILES": "C(C(O)=O)(C1=CC=CC=C1)C2CCCCN2",
    "meta_data": {
        "InChI": "InChI=1S/C13H17NO2/c15-13(16)12(10-6-2-1-3-7-10)11-8-4-5-9-14-11/h1-3,6-7,11-12,14H,4-5,8-9H2,(H,15,16)",
        "InChIKey": null,
        "Canonical SMILES": "O=C(O)C(C=1C=CC=CC1)C2NCCCC2",
        "Molecular Formula": "C<sub>13</sub>H<sub>17</sub>NO<sub>2</sub>",
        "Molecular Mass": "219.28",
        "Melting Point": "248 °C (decomp)"
    }
}