{
    "cas_no": "121-40-4",
    "key_name": "(1<em>R</em>,6<em>S</em>)-3-Hydroxy-4-methyl-7-oxabicyclo[4.1.0]hept-3-ene-2,5-dione",
    "cn_name": "(-)-土曲霉酸;",
    "alternate_name": "7-Oxabicyclo[4.1.0]hept-3-ene-2,5-dione, 3-hydroxy-4-methyl-, (1<em>R</em>,6<em>S</em>)-;Terreic acid;7-Oxabicyclo[4.1.0]hept-3-ene-2,5-dione, 3-hydroxy-4-methyl-, stereoisomer;7-Oxabicyclo[4.1.0]hept-3-ene-2,5-dione, 3-hydroxy-4-methyl-, (1<em>R</em>)-;(1<em>R</em>,6<em>S</em>)-3-Hydroxy-4-methyl-7-oxabicyclo[4.1.0]hept-3-ene-2,5-dione;(-)-Terreic acid",
    "duplicated_cas_no": "18715-99-6",
    "SMILES": "O=C1[C@@]2([C@@](O2)(C(=O)C(O)=C1C)[H])[H]",
    "meta_data": {
        "InChI": "InChI=1S/C7H6O4/c1-2-3(8)5(10)7-6(11-7)4(2)9/h6-8H,1H3/t6-,7+/m1/s1",
        "InChIKey": null,
        "Canonical SMILES": "O=C1C(O)=C(C(=O)C2OC12)C",
        "Molecular Formula": "C<sub>7</sub>H<sub>6</sub>O<sub>4</sub>",
        "Molecular Mass": "154.12",
        "Melting Point": "127 °C"
    }
}