{
    "cas_no": "5698-98-6",
    "key_name": "Magnesium acrylate",
    "cn_name": "丙烯酸镁;",
    "alternate_name": "2-Propenoic acid, magnesium salt (2:1);Acrylic acid, magnesium salt;Magnesium acrylate;2-Propenoic acid, magnesium salt;Magnesium diacrylate;PRO 5903;QM 203;MA 35;MA 90 (salt);MA 90",
    "duplicated_cas_no": "130869-56-6;142605-03-6;72213-53-7;79689-16-0;148337-64-8",
    "SMILES": "C(C=C)(O)=O.[Mg]",
    "meta_data": {
        "InChI": "InChI=1S/C3H4O2.Mg/c1-2-3(4)5;/h2H,1H2,(H,4,5);",
        "InChIKey": null,
        "Canonical SMILES": "[Mg].O=C(O)C=C",
        "Molecular Formula": "C<sub>3</sub>H<sub>4</sub>O<sub>2</sub>.<sup>1</sup>/<sub>2</sub>Mg",
        "Molecular Mass": "",
        "Melting Point": "&gt;220 °C (decomp)"
    }
}