{
    "cas_no": "15862-38-1",
    "key_name": "Pyridine, 3-bromo-2-hydrazinyl-5-nitro-",
    "cn_name": null,
    "alternate_name": "Pyridine, 3-bromo-2-hydrazinyl-5-nitro-;Pyridine, 3-bromo-2-hydrazino-5-nitro-;(3-Bromo-5-nitropyridin-2-yl)hydrazine;3-Bromo-2-hydrazinyl-5-nitropyridine;3-Bromo-2-hydrazino-5-nitropyridine",
    "duplicated_cas_no": "",
    "SMILES": "N(=O)(=O)C=1C=C(Br)C(=NN)NC1",
    "meta_data": {
        "InChI": "InChI=1S/C5H5BrN4O2/c6-4-1-3(10(11)12)2-8-5(4)9-7/h1-2H,7H2,(H,8,9)",
        "InChIKey": null,
        "Canonical SMILES": "O=N(=O)C1=CNC(=NN)C(Br)=C1",
        "Molecular Formula": "C<sub>5</sub>H<sub>5</sub>BrN<sub>4</sub>O<sub>2</sub>",
        "Molecular Mass": "233.02",
        "Melting Point": "170 °C"
    }
}