{
    "cas_no": "7758-87-4",
    "key_name": "Tricalcium phosphate",
    "cn_name": "磷酸钙;",
    "alternate_name": "Phosphoric acid, calcium salt (2:3);Calcium orthophosphate;Calcium phosphate (Ca<sub>3</sub>(PO<sub>4</sub>)<sub>2</sub>);Tricalcium phosphate;Tricalcium diphosphate;Calcium phosphate (3:2);Calcium phosphate;Tricalcium orthophosphate;Calcium tertiary phosphate;Phosphoric acid calcium(2+) salt (2:3);Tertiary calcium phosphate;Bonarka;Synthos;Tricalcium phosphate (Ca<sub>3</sub>(PO<sub>4</sub>)<sub>2</sub>);α-Tricalcium phosphate;β-Tricalcium phosphate;Tribasic calcium phosphate;Synthograft;Posture;TCP;Calcium orthophosphate (Ca<sub>3</sub>(PO<sub>4</sub>)<sub>2</sub>);Posture (calcium supplement);TCP 10;Multifos;β-Whitlockite;β-TCP;Apamicron AP 12C;Ostram;C 13-09SF;Cerasorb;Ceredex;Osferion;TCP 118FG;Allogran-R;Vitoss;Calcium phosphate Ca<sub>0</sub>.<sub>75</sub>(PO<sub>4</sub>)<sub>0</sub>.<sub>5</sub>;C 13-09;Coveg;Calipharm T;Ossaplast;Tricafos P;TCP 10U;DET 10;Osferion G1;Phos Calcium P 24;TricOs;Cerasorb M;Calciresorb;Calcium phosphate (Ca<sub>10.5</sub>(PO<sub>4</sub>)<sub>7</sub>);JAX TCP;Calcium phosphate (Ca<sub>1.5</sub>(PO<sub>4</sub>));Cerasorb Curasan;Versacal MP;SuperPore;Tetrabones;Expandia R;nanoXIM-TCP 201;α-Ca<sub>3</sub>(PO<sub>4</sub>)<sub>2</sub>;EPSolute Instant S;Cafos MF;Tri-Cafos 200-7;Calcium phosphate (Ca<sub>9</sub>(PO<sub>4</sub>)<sub>6</sub>);Mastergraft;β-TCP 100",
    "duplicated_cas_no": "1344-15-6;123211-19-8;915772-79-1;1160697-13-1;1269629-39-1;1314234-39-3;2387806-75-7;2413123-02-9;2485018-63-9;2597038-30-5;2648126-31-0;2750347-62-5",
    "SMILES": "P(=O)(O)(O)O.[Ca]",
    "meta_data": {
        "InChI": "InChI=1S/Ca.H3O4P/c;1-5(2,3)4/h;(H3,1,2,3,4)",
        "InChIKey": null,
        "Canonical SMILES": "[Ca].O=P(O)(O)O",
        "Molecular Formula": "Ca.<sup>2</sup>/<sub>3</sub>H<sub>3</sub>O<sub>4</sub>P",
        "Molecular Mass": "",
        "Melting Point": "1670 °C",
        "Density": "3.14 g/cm³"
    }
}