{
    "cas_no": "19184-65-7",
    "key_name": "2-(Bromomethyl)-2-(hydroxymethyl)-1,3-propanediol",
    "cn_name": "2-(溴甲基)-2-(羟甲基)-1,3-丙二醇;",
    "alternate_name": "1,3-Propanediol, 2-(bromomethyl)-2-(hydroxymethyl)-;2-(Bromomethyl)-2-(hydroxymethyl)-1,3-propanediol;Tris(hydroxymethyl)(bromomethyl)methane;Pentaerythritol monobromohydrin;Monobromoneopentyl triol;Monobromopentaerythritol;Pentaerythritol monobromide;2,2-Bis(hydroxymethyl)-3-hydroxypropyl bromide;NSC 151735",
    "duplicated_cas_no": "",
    "SMILES": "C(CBr)(CO)(CO)CO",
    "meta_data": {
        "InChI": "InChI=1S/C5H11BrO3/c6-1-5(2-7,3-8)4-9/h7-9H,1-4H2",
        "InChIKey": null,
        "Canonical SMILES": "BrCC(CO)(CO)CO",
        "Molecular Formula": "C<sub>5</sub>H<sub>11</sub>BrO<sub>3</sub>",
        "Molecular Mass": "199.04",
        "Melting Point": "75-77 °C"
    }
}