{
    "cas_no": "62850-32-2",
    "key_name": "Fenothiocarb",
    "cn_name": "精恶唑禾草灵;S-4-(苯氧基丁基)-N,N-二甲基硫代氨基甲酸酯;苯硫威;PANOCON(混剂);S-(4-苯氧基丁基)二甲基硫;",
    "alternate_name": "Carbamothioic acid, <em>N</em>,<em>N</em>-dimethyl-, <em>S</em>-(4-phenoxybutyl) ester;Carbamothioic acid, dimethyl-, <em>S</em>-(4-phenoxybutyl) ester;Phenothiocarb;Panocon;Fenothiocarb",
    "duplicated_cas_no": "",
    "SMILES": "O(CCCCSC(N(C)C)=O)C1=CC=CC=C1",
    "meta_data": {
        "InChI": "InChI=1S/C13H19NO2S/c1-14(2)13(15)17-11-7-6-10-16-12-8-4-3-5-9-12/h3-5,8-9H,6-7,10-11H2,1-2H3",
        "InChIKey": null,
        "Canonical SMILES": "O=C(SCCCCOC=1C=CC=CC1)N(C)C",
        "Molecular Formula": "C<sub>13</sub>H<sub>19</sub>NO<sub>2</sub>S",
        "Molecular Mass": "253.36",
        "Boiling Point": "155 °C",
        "Melting Point": "40.5 °C"
    }
}