{
    "cas_no": "31938-11-1",
    "key_name": "<em>O</em>-(Triphenylmethyl)hydroxylamine",
    "cn_name": "O-三苯甲基羟胺;",
    "alternate_name": "Hydroxylamine, <em>O</em>-(triphenylmethyl)-;<em>O</em>-(Triphenylmethyl)hydroxylamine;(Trityloxy)amine;<em>O</em>-Tritylhydroxylamine;(Triphenylmethoxy)amine;[[Triphenylmethyl]oxy]amine;<em>O</em>-Tritylhydroxlamine",
    "duplicated_cas_no": "",
    "SMILES": "C(ON)(C1=CC=CC=C1)(C2=CC=CC=C2)C3=CC=CC=C3",
    "meta_data": {
        "InChI": "InChI=1S/C19H17NO/c20-21-19(16-10-4-1-5-11-16,17-12-6-2-7-13-17)18-14-8-3-9-15-18/h1-15H,20H2",
        "InChIKey": null,
        "Canonical SMILES": "O(N)C(C=1C=CC=CC1)(C=2C=CC=CC2)C=3C=CC=CC3",
        "Molecular Formula": "C<sub>19</sub>H<sub>17</sub>NO",
        "Molecular Mass": "275.34",
        "Melting Point": "83-88 °C"
    }
}