{
    "cas_no": "15962-46-6",
    "key_name": "<em>N</em>-Acetyl-<span class=\"text-smallcaps\">DL</span>-phenylglycine",
    "cn_name": null,
    "alternate_name": "Benzeneacetic acid, α-(acetylamino)-;Glycine, <em>N</em>-acetyl-2-phenyl-, <span class=\"text-smallcaps\">DL</span>-;α-(Acetylamino)benzeneacetic acid;<em>N</em>-Acetyl-<span class=\"text-smallcaps\">DL</span>-phenylglycine;<em>N</em>-Acetyl-<span class=\"text-smallcaps\">DL</span>-2-phenylglycine;<em>N</em>-Acetyl-(<em>RS</em>)-2-phenylglycine;<span class=\"text-smallcaps\">DL</span>-<em>N</em>-Acetyl-2-phenylglycine;<em>N</em>-Acetylphenylglycine;<em>N</em>-Acetyl-2-phenylglycine;<em>N</em>-Acetyl-α-phenylglycine;2-Acetamido-2-phenylacetic acid",
    "duplicated_cas_no": "29633-99-6",
    "SMILES": "C(NC(C)=O)(C(O)=O)C1=CC=CC=C1",
    "meta_data": {
        "InChI": "InChI=1S/C10H11NO3/c1-7(12)11-9(10(13)14)8-5-3-2-4-6-8/h2-6,9H,1H3,(H,11,12)(H,13,14)",
        "InChIKey": null,
        "Canonical SMILES": "O=C(O)C(NC(=O)C)C=1C=CC=CC1",
        "Molecular Formula": "C<sub>10</sub>H<sub>11</sub>NO<sub>3</sub>",
        "Molecular Mass": "193.20",
        "Melting Point": "190 °C"
    }
}