{
    "cas_no": "576-15-8",
    "key_name": "1-(1<em>H</em>-Indol-1-yl)ethanone",
    "cn_name": "1-乙酰吲哚;1-乙酰吲哚;N-乙酰基吲哚;N-乙醯吲哚;",
    "alternate_name": "Ethanone, 1-(1<em>H</em>-indol-1-yl)-;Indole, 1-acetyl-;1<em>H</em>-Indole, 1-acetyl-;1-(1<em>H</em>-Indol-1-yl)ethanone;<em>N</em>-Acetylindole;1-Acetylindole;NSC 521758;1-(1<em>H</em>-Indol-1-yl)ethan-1-one",
    "duplicated_cas_no": "",
    "SMILES": "C(C)(=O)N1C=2C(C=C1)=CC=CC2",
    "meta_data": {
        "InChI": "InChI=1S/C10H9NO/c1-8(12)11-7-6-9-4-2-3-5-10(9)11/h2-7H,1H3",
        "InChIKey": null,
        "Canonical SMILES": "O=C(N1C=CC=2C=CC=CC21)C",
        "Molecular Formula": "C<sub>10</sub>H<sub>9</sub>NO",
        "Molecular Mass": "159.18",
        "Boiling Point": "135 °C @ Press: 6-6.5 Torr",
        "Melting Point": "189 °C",
        "Density": "1.387 g/cm³ @ Temp: 20 °C"
    }
}