{
    "cas_no": "21302-43-2",
    "key_name": "5-Amino-8-hydroxyquinoline dihydrochloride",
    "cn_name": "5-氨基-8-羟基喹啉二盐酸盐;5-氨基-8-羟基二盐酸喹啉;",
    "alternate_name": "8-Quinolinol, 5-amino-, hydrochloride (1:2);8-Quinolinol, 5-amino-, dihydrochloride;5-Amino-8-hydroxyquinoline dihydrochloride;5-Amino-8-quinolinol dihydrochloride",
    "duplicated_cas_no": "",
    "SMILES": "NC=1C2=C(C(O)=CC1)N=CC=C2.Cl",
    "meta_data": {
        "InChI": "InChI=1S/C9H8N2O.2ClH/c10-7-3-4-8(12)9-6(7)2-1-5-11-9;;/h1-5,12H,10H2;2*1H",
        "InChIKey": null,
        "Canonical SMILES": "Cl.OC=1C=CC(N)=C2C=CC=NC12",
        "Molecular Formula": "C<sub>9</sub>H<sub>8</sub>N<sub>2</sub>O.2ClH",
        "Molecular Mass": "",
        "Melting Point": "&gt;280 °C (decomp)"
    }
}