{
    "cas_no": "6952-59-6",
    "key_name": "3-Bromobenzonitrile",
    "cn_name": "间溴苯甲腈;3-溴苯腈;",
    "alternate_name": "Benzonitrile, 3-bromo-;Benzonitrile, <em>m</em>-bromo-;3-Bromobenzonitrile;<em>m</em>-Bromobenzonitrile;1-Bromo-3-cyanobenzene;m-Bromobenzonitrile;3-Cyanophenyl bromide;NSC 59731;3-Cyano-1-bromobenzene",
    "duplicated_cas_no": "",
    "SMILES": "C(#N)C1=CC(Br)=CC=C1",
    "meta_data": {
        "InChI": "InChI=1S/C7H4BrN/c8-7-3-1-2-6(4-7)5-9/h1-4H",
        "InChIKey": null,
        "Canonical SMILES": "N#CC=1C=CC=C(Br)C1",
        "Molecular Formula": "C<sub>7</sub>H<sub>4</sub>BrN",
        "Molecular Mass": "182.02",
        "Boiling Point": "225 °C",
        "Melting Point": "39.5 °C"
    }
}