{
    "cas_no": "766-92-7",
    "key_name": "Benzyl methyl sulfide",
    "cn_name": "苄基甲基硫醚;",
    "alternate_name": "Benzene, [(methylthio)methyl]-;Sulfide, benzyl methyl;[(Methylthio)methyl]benzene;Methyl benzyl sulfide;Benzyl methyl sulfide;1-Phenyl-2-thiapropane;NSC 75125;Benzyl methyl thioether;[(Methylsulfanyl)methyl]benzene",
    "duplicated_cas_no": "",
    "SMILES": "C(SC)C1=CC=CC=C1",
    "meta_data": {
        "InChI": "InChI=1S/C8H10S/c1-9-7-8-5-3-2-4-6-8/h2-6H,7H2,1H3",
        "InChIKey": null,
        "Canonical SMILES": "S(C)CC=1C=CC=CC1",
        "Molecular Formula": "C<sub>8</sub>H<sub>10</sub>S",
        "Molecular Mass": "138.23",
        "Boiling Point": "210 °C",
        "Melting Point": "-30 °C",
        "Density": "1.0274 g/cm³ @ Temp: 20 °C"
    }
}