{
    "cas_no": "486-35-1",
    "key_name": "Daphnetin",
    "cn_name": "瑞香素;瑞香内酯;7,8-二羟基香豆素;",
    "alternate_name": "2<em>H</em>-1-Benzopyran-2-one, 7,8-dihydroxy-;Daphnetin;Coumarin, 7,8-dihydroxy-;7,8-Dihydroxy-2<em>H</em>-1-benzopyran-2-one;Daphnetol;7,8-Dihydroxycoumarin;Ruixiangsu;NSC 633563;7,8-Dihydroxy-2<em>H</em>-chromen-2-one",
    "duplicated_cas_no": "",
    "SMILES": "OC1=C2C(=CC=C1O)C=CC(=O)O2",
    "meta_data": {
        "InChI": "InChI=1S/C9H6O4/c10-6-3-1-5-2-4-7(11)13-9(5)8(6)12/h1-4,10,12H",
        "InChIKey": null,
        "Canonical SMILES": "O=C1OC=2C(O)=C(O)C=CC2C=C1",
        "Molecular Formula": "C<sub>9</sub>H<sub>6</sub>O<sub>4</sub>",
        "Molecular Mass": "178.14",
        "Melting Point": "262 °C"
    }
}