{
    "cas_no": "21678-37-5",
    "key_name": "Dimethylisobutyramide",
    "cn_name": "N,N,2-三甲基丙酰胺;",
    "alternate_name": "Propanamide, <em>N</em>,<em>N</em>,2-trimethyl-;Propionamide, <em>N</em>,<em>N</em>,2-trimethyl-;<em>N</em>,<em>N</em>,2-Trimethylpropanamide;<em>N</em>,<em>N</em>-Dimethylisobutyramide;<em>N</em>,<em>N</em>,2-Trimethylpropionamide;2,<em>N</em>,<em>N</em>-Trimethylpropanamide;Dimethylisobutyramide;NSC 53151;<em>N</em>,<em>N</em>-Dimethyl-2-methylpropionamide;<em>N</em>,<em>N</em>-Dimethyl-2-methylpropanamide;2,<em>N</em>,<em>N</em>-Trimethylpropionamide",
    "duplicated_cas_no": "",
    "SMILES": "C(C(C)C)(N(C)C)=O",
    "meta_data": {
        "InChI": "InChI=1S/C6H13NO/c1-5(2)6(8)7(3)4/h5H,1-4H3",
        "InChIKey": null,
        "Canonical SMILES": "O=C(N(C)C)C(C)C",
        "Molecular Formula": "C<sub>6</sub>H<sub>13</sub>NO",
        "Molecular Mass": "115.17",
        "Boiling Point": "175-176 °C @ Press: 7 Torr"
    }
}