{
    "cas_no": "6970-19-0",
    "key_name": "3,4,5-Triethoxybenzoic acid",
    "cn_name": "3,4,5-三乙氧基苯甲酸;",
    "alternate_name": "Benzoic acid, 3,4,5-triethoxy-;3,4,5-Triethoxybenzoic acid;NSC 66202",
    "duplicated_cas_no": "",
    "SMILES": "O(CC)C1=C(OCC)C=C(C(O)=O)C=C1OCC",
    "meta_data": {
        "InChI": "InChI=1S/C13H18O5/c1-4-16-10-7-9(13(14)15)8-11(17-5-2)12(10)18-6-3/h7-8H,4-6H2,1-3H3,(H,14,15)",
        "InChIKey": null,
        "Canonical SMILES": "O=C(O)C1=CC(OCC)=C(OCC)C(OCC)=C1",
        "Molecular Formula": "C<sub>13</sub>H<sub>18</sub>O<sub>5</sub>",
        "Molecular Mass": "254.28",
        "Melting Point": "108-110 °C"
    }
}