{
    "cas_no": "1286754-14-0",
    "key_name": "Ethyl imidazo[1,2-<em>a</em>]pyrazine-3-carboxylate",
    "cn_name": null,
    "alternate_name": "Imidazo[1,2-<em>a</em>]pyrazine-3-carboxylic acid, ethyl ester;Ethyl imidazo[1,2-<em>a</em>]pyrazine-3-carboxylate",
    "duplicated_cas_no": "",
    "SMILES": "C(OCC)(=O)C=1N2C(=NC1)C=NC=C2",
    "meta_data": {
        "InChI": "InChI=1S/C9H9N3O2/c1-2-14-9(13)7-5-11-8-6-10-3-4-12(7)8/h3-6H,2H2,1H3",
        "InChIKey": null,
        "Canonical SMILES": "O=C(OCC)C1=CN=C2C=NC=CN21",
        "Molecular Formula": "C<sub>9</sub>H<sub>9</sub>N<sub>3</sub>O<sub>2</sub>",
        "Molecular Mass": "191.19",
        "Melting Point": "118-119 °C"
    }
}