{
    "cas_no": "1093-58-9",
    "key_name": "Clostebol",
    "cn_name": "氯司替勃;4-氯睾酮;4-氯-17b-羟基雄甾-4-烯-3-酮;",
    "alternate_name": "Androst-4-en-3-one, 4-chloro-17-hydroxy-, (17β)-;Androst-4-en-3-one, 4-chloro-17β-hydroxy-;Testosterone, 4-chloro-;(17β)-4-Chloro-17-hydroxyandrost-4-en-3-one;4-Chlorotestosterone;Cholostebol;4-Chloro-17β-hydroxyandrost-4-en-3-one;Clostebol;Chlortestosterone;4-Chloro-3-oxo-17β-hydroxyandrost-4-ene;4-Androstene-4-chloro-17β-ol-3-one",
    "duplicated_cas_no": "",
    "SMILES": "C[C@@]12[C@@]3([C@]([C@]4([C@](C)(CC3)[C@@H](O)CC4)[H])(CCC1=C(Cl)C(=O)CC2)[H])[H]",
    "meta_data": {
        "InChI": "InChI=1S/C19H27ClO2/c1-18-10-8-15(21)17(20)14(18)4-3-11-12-5-6-16(22)19(12,2)9-7-13(11)18/h11-13,16,22H,3-10H2,1-2H3/t11-,12-,13-,16-,18+,19-/m0/s1",
        "InChIKey": null,
        "Canonical SMILES": "O=C1C(Cl)=C2CCC3C(CCC4(C)C(O)CCC34)C2(C)CC1",
        "Molecular Formula": "C<sub>19</sub>H<sub>27</sub>ClO<sub>2</sub>",
        "Molecular Mass": "322.87",
        "Melting Point": "189 °C"
    }
}