{
    "cas_no": "4097-49-8",
    "key_name": "4-<em>tert</em>-Butyl-2,6-dinitrophenol",
    "cn_name": "4-叔丁基-2,6-二硝基苯酚;",
    "alternate_name": "Phenol, 4-(1,1-dimethylethyl)-2,6-dinitro-;Phenol, 4-<em>tert</em>-butyl-2,6-dinitro-;4-(1,1-Dimethylethyl)-2,6-dinitrophenol;2,6-Dinitro-<em>p</em>-(<em>tert</em>-butyl)phenol;2,6-Dinitro-4-<em>tert</em>-butylphenol;4-<em>tert</em>-Butyl-2,6-dinitrophenol;NSC 21491",
    "duplicated_cas_no": "",
    "SMILES": "N(=O)(=O)C1=C(O)C(N(=O)=O)=CC(C(C)(C)C)=C1",
    "meta_data": {
        "InChI": "InChI=1S/C10H12N2O5/c1-10(2,3)6-4-7(11(14)15)9(13)8(5-6)12(16)17/h4-5,13H,1-3H3",
        "InChIKey": null,
        "Canonical SMILES": "O=N(=O)C=1C=C(C=C(C1O)N(=O)=O)C(C)(C)C",
        "Molecular Formula": "C<sub>10</sub>H<sub>12</sub>N<sub>2</sub>O<sub>5</sub>",
        "Molecular Mass": "240.21",
        "Melting Point": "94-96 °C"
    }
}