{
    "cas_no": "31807-55-3",
    "key_name": "Isododecane",
    "cn_name": null,
    "alternate_name": "Isododecane;Hyfrane 120;Permethyl 99A;Fancol ID;Permethyl 99;Purolan IDD;Creasil ID-CG;Marukasol R",
    "duplicated_cas_no": "97659-99-9",
    "SMILES": "",
    "meta_data": {
        "InChI": "",
        "InChIKey": null,
        "Canonical SMILES": "",
        "Molecular Formula": "C<sub>12</sub>H<sub>26</sub>",
        "Molecular Mass": "",
        "Boiling Point": "205-230 °C"
    }
}