{
    "cas_no": "1546-95-8",
    "key_name": "2,2,3,3,4,4,5,5,6,6,7,7-Dodecafluoroheptanoic acid",
    "cn_name": "7H-十二氟庚酸;",
    "alternate_name": "Heptanoic acid, 2,2,3,3,4,4,5,5,6,6,7,7-dodecafluoro-;2,2,3,3,4,4,5,5,6,6,7,7-Dodecafluoroheptanoic acid;ω-Monohydroperfluoroheptanoic acid;7<em>H</em>-Dodecafluoroheptanoic acid;ω-Hydroperfluoroenanthic acid;ω-Hydroperfluoroheptanoic acid;7<em>H</em>-Perfluoroheptanoic acid;Dodecafluroheptylic acid",
    "duplicated_cas_no": "",
    "SMILES": "C(C(C(C(F)F)(F)F)(F)F)(C(C(C(O)=O)(F)F)(F)F)(F)F",
    "meta_data": {
        "InChI": "InChI=1S/C7H2F12O2/c8-1(9)3(10,11)5(14,15)7(18,19)6(16,17)4(12,13)2(20)21/h1H,(H,20,21)",
        "InChIKey": null,
        "Canonical SMILES": "O=C(O)C(F)(F)C(F)(F)C(F)(F)C(F)(F)C(F)(F)C(F)F",
        "Molecular Formula": "C<sub>7</sub>H<sub>2</sub>F<sub>12</sub>O<sub>2</sub>",
        "Molecular Mass": "346.07",
        "Boiling Point": "192 °C"
    }
}