{
    "cas_no": "76180-96-6",
    "key_name": "2-Amino-3-methylimidazo[4,5-<em>f</em>]quinoline",
    "cn_name": "IQ[2-氨基-3-甲基咪唑并(4,5-f)喹啉];",
    "alternate_name": "3<em>H</em>-Imidazo[4,5-<em>f</em>]quinolin-2-amine, 3-methyl-;3-Methyl-3<em>H</em>-imidazo[4,5-<em>f</em>]quinolin-2-amine;2-Amino-3-methylimidazo[4,5-<em>f</em>]quinoline;IQ;2-Amino-3-methyl-3<em>H</em>-imidazo[4,5-<em>f</em>]quinoline",
    "duplicated_cas_no": "",
    "SMILES": "CN1C2=C(C=3C(C=C2)=NC=CC3)N=C1N",
    "meta_data": {
        "InChI": "InChI=1S/C11H10N4/c1-15-9-5-4-8-7(3-2-6-13-8)10(9)14-11(15)12/h2-6H,1H3,(H2,12,14)",
        "InChIKey": null,
        "Canonical SMILES": "N1=CC=CC2=C1C=CC3=C2N=C(N)N3C",
        "Molecular Formula": "C<sub>11</sub>H<sub>10</sub>N<sub>4</sub>",
        "Molecular Mass": "198.22",
        "Melting Point": "&gt;300 °C"
    }
}