{
    "cas_no": "133-10-8",
    "key_name": "Sodium <em>p</em>-aminosalicylate",
    "cn_name": "对氨基水杨酸钠;4-氨基-2-羟基苯甲酸钠盐;",
    "alternate_name": "Benzoic acid, 4-amino-2-hydroxy-, sodium salt (1:1);Salicylic acid, 4-amino-, monosodium salt;Benzoic acid, 4-amino-2-hydroxy-, monosodium salt;<em>p</em>-Aminosalicylate sodium;<em>p</em>-Aminosalicylic acid sodium salt;Bactylan;Lepasen;Natri-Pas;Nippas;Pamisyl Sodium;Pasalon-Rakeet;PASNa;Pasnal;Passodico;Salvis;Sanipirol;Sodium PAS;Tubersan;4-Aminosalicylic acid sodium salt;Sodium 4-aminosalicylate;Sodium <em>p</em>-aminosalicylate;Pasade;Sodiopas;Sodium 4-amino-2-hydroxybenzoate;Sodium 2-hydroxy-4-aminobenzoate;Monopas",
    "duplicated_cas_no": "8031-28-5;857363-33-8;1081807-72-8",
    "SMILES": "C(O)(=O)C1=C(O)C=C(N)C=C1.[Na]",
    "meta_data": {
        "InChI": "InChI=1S/C7H7NO3.Na/c8-4-1-2-5(7(10)11)6(9)3-4;/h1-3,9H,8H2,(H,10,11);",
        "InChIKey": null,
        "Canonical SMILES": "[Na].O=C(O)C1=CC=C(N)C=C1O",
        "Molecular Formula": "C<sub>7</sub>H<sub>7</sub>NO<sub>3</sub>.Na",
        "Molecular Mass": "",
        "Melting Point": "265-270 °C"
    }
}