{
    "cas_no": "7488-54-2",
    "key_name": "Rubidium sulfate",
    "cn_name": "硫酸铷;",
    "alternate_name": "Sulfuric acid, rubidium salt (1:2);Sulfuric acid, dirubidium salt;Rubidium sulfate (Rb<sub>2</sub>SO<sub>4</sub>);Dirubidium sulfate;Rubidium sulfate",
    "duplicated_cas_no": "",
    "SMILES": "S(=O)(=O)(O)O.[Rb]",
    "meta_data": {
        "InChI": "InChI=1S/H2O4S.2Rb/c1-5(2,3)4;;/h(H2,1,2,3,4);;",
        "InChIKey": null,
        "Canonical SMILES": "[Rb].O=S(=O)(O)O",
        "Molecular Formula": "H<sub>2</sub>O<sub>4</sub>S.2Rb",
        "Molecular Mass": "",
        "Melting Point": "1074 °C"
    }
}