{
    "cas_no": "1143-82-4",
    "key_name": "5-Methyl-3-phenylisoxazole-4-carboxylic acid ethyl ester",
    "cn_name": "5-甲基-3-苯基异恶唑-4-羧酸乙酯;3-苯基-5-甲基-4-异恶唑甲酸乙酯;5-甲基-3-苯基异噁唑-4-羧酸乙酯;",
    "alternate_name": "4-Isoxazolecarboxylic acid, 5-methyl-3-phenyl-, ethyl ester;5-Methyl-3-phenylisoxazole-4-carboxylic acid ethyl ester",
    "duplicated_cas_no": "",
    "SMILES": "C(OCC)(=O)C=1C(=NOC1C)C2=CC=CC=C2",
    "meta_data": {
        "InChI": "InChI=1S/C13H13NO3/c1-3-16-13(15)11-9(2)17-14-12(11)10-7-5-4-6-8-10/h4-8H,3H2,1-2H3",
        "InChIKey": null,
        "Canonical SMILES": "O=C(OCC)C=1C(=NOC1C)C=2C=CC=CC2",
        "Molecular Formula": "C<sub>13</sub>H<sub>13</sub>NO<sub>3</sub>",
        "Molecular Mass": "231.25",
        "Melting Point": "49 °C"
    }
}