{
    "cas_no": "53749-38-5",
    "key_name": "10-(Carbomethoxy)decyldimethylchlorosilane",
    "cn_name": null,
    "alternate_name": "Undecanoic acid, 11-(chlorodimethylsilyl)-, methyl ester;Methyl 11-(chlorodimethylsilyl)undecanoate;10-(Carbomethoxy)decyldimethylchlorosilane",
    "duplicated_cas_no": "",
    "SMILES": "C(CCCCCCCCC(OC)=O)C[Si](C)(C)Cl",
    "meta_data": {
        "InChI": "InChI=1S/C14H29ClO2Si/c1-17-14(16)12-10-8-6-4-5-7-9-11-13-18(2,3)15/h4-13H2,1-3H3",
        "InChIKey": null,
        "Canonical SMILES": "O=C(OC)CCCCCCCCCC[Si](Cl)(C)C",
        "Molecular Formula": "C<sub>14</sub>H<sub>29</sub>ClO<sub>2</sub>Si",
        "Molecular Mass": "292.92",
        "Boiling Point": "133 °C @ Press: 0.3 Torr",
        "Density": "0.950 g/cm³"
    }
}