{
    "cas_no": "89-69-0",
    "key_name": "2,4,5-Trichloronitrobenzene",
    "cn_name": null,
    "alternate_name": "Benzene, 1,2,4-trichloro-5-nitro-;1,2,4-Trichloro-5-nitrobenzene;2,4,5-Trichloro-1-nitrobenzene;2,4,5-Trichloronitrobenzene;3,4,6-Trichloronitrobenzene;1,4,5-Trichloro-2-nitrobenzene;NSC 50660;NSC 56980;NSC 60975",
    "duplicated_cas_no": "",
    "SMILES": "N(=O)(=O)C1=C(Cl)C=C(Cl)C(Cl)=C1",
    "meta_data": {
        "InChI": "InChI=1S/C6H2Cl3NO2/c7-3-1-5(9)6(10(11)12)2-4(3)8/h1-2H",
        "InChIKey": null,
        "Canonical SMILES": "O=N(=O)C1=CC(Cl)=C(Cl)C=C1Cl",
        "Molecular Formula": "C<sub>6</sub>H<sub>2</sub>Cl<sub>3</sub>NO<sub>2</sub>",
        "Molecular Mass": "226.44",
        "Boiling Point": "288 °C",
        "Melting Point": "57.5 °C",
        "Density": "1.790 g/cm³ @ Temp: 20 °C"
    }
}