{
    "cas_no": "3011-34-5",
    "key_name": "4-Hydroxy-3-nitrobenzaldehyde",
    "cn_name": "4-羟基-3-硝基苯甲醛;",
    "alternate_name": "Benzaldehyde, 4-hydroxy-3-nitro-;4-Hydroxy-3-nitrobenzaldehyde;3-Nitro-4-hydroxybenzaldehyde;4-Formyl-2-nitrophenol;NSC 138267",
    "duplicated_cas_no": "",
    "SMILES": "N(=O)(=O)C1=CC(C=O)=CC=C1O",
    "meta_data": {
        "InChI": "InChI=1S/C7H5NO4/c9-4-5-1-2-7(10)6(3-5)8(11)12/h1-4,10H",
        "InChIKey": null,
        "Canonical SMILES": "O=CC1=CC=C(O)C(=C1)N(=O)=O",
        "Molecular Formula": "C<sub>7</sub>H<sub>5</sub>NO<sub>4</sub>",
        "Molecular Mass": "167.12",
        "Melting Point": "140-142 °C"
    }
}