{
    "cas_no": "118712-89-3",
    "key_name": "Transfluthrin",
    "cn_name": "四氟苯菊酯;2,3,5,6-四氟苄基(1R,3S)-3-(2,2-二氯乙烯基)-2,2-二甲基环丙烷羧酸酯;",
    "alternate_name": "Cyclopropanecarboxylic acid, 3-(2,2-dichloroethenyl)-2,2-dimethyl-, (2,3,5,6-tetrafluorophenyl)methyl ester, (1<em>R</em>,3<em>S</em>)-;Cyclopropanecarboxylic acid, 3-(2,2-dichloroethenyl)-2,2-dimethyl-, (2,3,5,6-tetrafluorophenyl)methyl ester, (1<em>R</em>-<em>trans</em>)-;Benfluthrin;2,3,5,6-Tetrafluorobenzyl (+)-(1<em>R</em>-<em>trans</em>)-2,2-dimethyl-3-(2,2-dichlorovinyl)cyclopropanecarboxylate;Transfluthrin;Bayothrin;(2,3,5,6-Tetrafluorophenyl)methyl (1<em>R</em>)-<em>trans</em>-3-(2,2-dichlorovinyl)-2,2-dimethylcyclopropane-carboxylate;Molestrel;2,3,5,6-Tetrafluorobenzyl (1R,3S)-3-(2,2-dichlorovinyl)-2,2-dimethylcyclopropanecarboxylate",
    "duplicated_cas_no": "148380-75-0",
    "SMILES": "C(=C(Cl)Cl)[C@@H]1[C@@H](C(OCC2=C(F)C(F)=CC(F)=C2F)=O)C1(C)C",
    "meta_data": {
        "InChI": "InChI=1S/C15H12Cl2F4O2/c1-15(2)7(3-10(16)17)11(15)14(22)23-5-6-12(20)8(18)4-9(19)13(6)21/h3-4,7,11H,5H2,1-2H3/t7-,11+/m1/s1",
        "InChIKey": null,
        "Canonical SMILES": "O=C(OCC=1C(F)=C(F)C=C(F)C1F)C2C(C=C(Cl)Cl)C2(C)C",
        "Molecular Formula": "C<sub>15</sub>H<sub>12</sub>Cl<sub>2</sub>F<sub>4</sub>O<sub>2</sub>",
        "Molecular Mass": "371.15",
        "Boiling Point": "135 °C @ Press: 0.15 Torr",
        "Melting Point": "32 °C"
    }
}