{
    "cas_no": "6323-99-5",
    "key_name": "2-Amino-4-phosphonobutanoic acid",
    "cn_name": null,
    "alternate_name": "Butanoic acid, 2-amino-4-phosphono-;Butyric acid, 2-amino-4-phosphono-;2-Amino-4-phosphonobutanoic acid;2-Amino-4-phosphonobutyric acid;3-Amino-3-carboxypropylphosphonic acid;AP 4;<span class=\"text-smallcaps\">DL</span>-2-Amino-4-phosphonobutyric acid;<span class=\"text-smallcaps\">DL</span>-(±)-2-Amino-4-phosphonobutyric acid;(±)-2-Amino-4-phosphonobutyric acid;(±)-2-Amino-4-phosphonobutanoic acid;<span class=\"text-smallcaps\">DL</span>-2-Amino-4-phosphonobutanoic acid;NSC 30079;NSC 354086",
    "duplicated_cas_no": "20263-07-4",
    "SMILES": "C(C(C(O)=O)N)CP(=O)(O)O",
    "meta_data": {
        "InChI": "InChI=1S/C4H10NO5P/c5-3(4(6)7)1-2-11(8,9)10/h3H,1-2,5H2,(H,6,7)(H2,8,9,10)",
        "InChIKey": null,
        "Canonical SMILES": "O=C(O)C(N)CCP(=O)(O)O",
        "Molecular Formula": "C<sub>4</sub>H<sub>10</sub>NO<sub>5</sub>P",
        "Molecular Mass": "183.10",
        "Melting Point": "229-231 °C"
    }
}