{
    "cas_no": "2801-29-8",
    "key_name": "4-Methyl-8-nitroquinoline",
    "cn_name": null,
    "alternate_name": "Quinoline, 4-methyl-8-nitro-;Lepidine, 8-nitro-;4-Methyl-8-nitroquinoline;8-Nitrolepidine;NSC 120755",
    "duplicated_cas_no": "",
    "SMILES": "N(=O)(=O)C=1C2=C(C(C)=CC=N2)C=CC1",
    "meta_data": {
        "InChI": "InChI=1S/C10H8N2O2/c1-7-5-6-11-10-8(7)3-2-4-9(10)12(13)14/h2-6H,1H3",
        "InChIKey": null,
        "Canonical SMILES": "O=N(=O)C1=CC=CC=2C1=NC=CC2C",
        "Molecular Formula": "C<sub>10</sub>H<sub>8</sub>N<sub>2</sub>O<sub>2</sub>",
        "Molecular Mass": "188.18",
        "Melting Point": "125-126 °C"
    }
}