{
    "cas_no": "1138-80-3",
    "key_name": "Benzyloxycarbonylglycine",
    "cn_name": "N-CBZ-L-丙氨酸;苯甲氧羰基-L-甘氨酸;",
    "alternate_name": "Glycine, <em>N</em>-[(phenylmethoxy)carbonyl]-;Glycine, <em>N</em>-carboxy-, <em>N</em>-benzyl ester;<em>N</em>-[(Phenylmethoxy)carbonyl]glycine;<em>N</em>-(Carbobenzyloxy)glycine;Benzyloxycarbonylglycine;<em>N</em>-(Carbobenzoxy)glycine;<em>N</em><sup>α</sup>-(Benzyloxycarbonyl)glycine;<em>N</em>-Carboxyglycine <em>N</em>-benzyl ester;(Carbobenzyloxy)glycine;(Carbobenzoxy)glycine;Z-Gly-OH;<em>N</em>-(α-Carbobenzoxy)glycine;2-(Benzyloxycarbonylamino)acetic acid;<em>N</em>-(Benzyloxycarbonyl)glycine;NSC 2526;[[(Benzyloxy)carbonyl]amino]acetic acid;Z-Glycine;2-(Phenylmethoxycarbonylamino)acetic acid",
    "duplicated_cas_no": "72100-98-2;409108-80-1",
    "SMILES": "C(OC(NCC(O)=O)=O)C1=CC=CC=C1",
    "meta_data": {
        "InChI": "InChI=1S/C10H11NO4/c12-9(13)6-11-10(14)15-7-8-4-2-1-3-5-8/h1-5H,6-7H2,(H,11,14)(H,12,13)",
        "InChIKey": null,
        "Canonical SMILES": "O=C(O)CNC(=O)OCC=1C=CC=CC1",
        "Molecular Formula": "C<sub>10</sub>H<sub>11</sub>NO<sub>4</sub>",
        "Molecular Mass": "209.20",
        "Melting Point": "120 °C"
    }
}