{
    "cas_no": "1187-93-5",
    "key_name": "Perfluoro(methyl vinyl ether)",
    "cn_name": null,
    "alternate_name": "Ethene, 1,1,2-trifluoro-2-(trifluoromethoxy)-;Ether, trifluoromethyl trifluorovinyl;Ethene, trifluoro(trifluoromethoxy)-;1,1,2-Trifluoro-2-(trifluoromethoxy)ethene;Trifluoromethyl trifluorovinyl ether;Trifluoro(trifluoromethoxy)ethylene;Perfluoro(methyl vinyl ether);3-Oxaperfluorobutene;Perfluorovinyl perfluoromethyl ether;Trifluoromethoxytrifluoroethylene;PMVE;(Trifluorovinyl)(trifluoromethyl)ether;Perfluorovinyl trifluoromethyl ether",
    "duplicated_cas_no": "",
    "SMILES": "C(OC(F)(F)F)(=C(F)F)F",
    "meta_data": {
        "InChI": "InChI=1S/C3F6O/c4-1(5)2(6)10-3(7,8)9",
        "InChIKey": null,
        "Canonical SMILES": "FC(F)=C(F)OC(F)(F)F",
        "Molecular Formula": "C<sub>3</sub>F<sub>6</sub>O",
        "Molecular Mass": "166.02",
        "Boiling Point": "-22 °C"
    }
}