{
    "cas_no": "520-03-6",
    "key_name": "<em>N</em>-Phenylphthalimide",
    "cn_name": "N-苯基邻苯二甲酰亚胺;2-苯基-1,3-异吲哚二酮;",
    "alternate_name": "1<em>H</em>-Isoindole-1,3(2<em>H</em>)-dione, 2-phenyl-;Phthalimide, <em>N</em>-phenyl-;2-Phenyl-1<em>H</em>-isoindole-1,3(2<em>H</em>)-dione;<em>N</em>-Phenylphthalimide;Phthalanil;2-Phenyl-1<em>H</em>-isoindole-1,3(2<em>H</em>)dione;2-Phenyl-1,3-isoindolinedione;NSC 2769;2-Phenyl-isoindole-1,3-dione;2-Phenyl-2,3-dihydro-1<em>H</em>-isoindole-1,3-dione;2-Phenylisoindole-1,3-dione",
    "duplicated_cas_no": "",
    "SMILES": "O=C1N(C(=O)C=2C1=CC=CC2)C3=CC=CC=C3",
    "meta_data": {
        "InChI": "InChI=1S/C14H9NO2/c16-13-11-8-4-5-9-12(11)14(17)15(13)10-6-2-1-3-7-10/h1-9H",
        "InChIKey": null,
        "Canonical SMILES": "O=C1C=2C=CC=CC2C(=O)N1C=3C=CC=CC3",
        "Molecular Formula": "C<sub>14</sub>H<sub>9</sub>NO<sub>2</sub>",
        "Molecular Mass": "223.23",
        "Melting Point": "210 °C"
    }
}