{
    "cas_no": "3393-77-9",
    "key_name": "1,1′-Thiobis[4-methoxybenzene]",
    "cn_name": "4,4\"-二甲氧基二苯硫醚;",
    "alternate_name": "Benzene, 1,1′-thiobis[4-methoxy-;Anisole, 4,4′-thiodi-;1,1′-Thiobis[4-methoxybenzene];Bis(<em>p</em>-methoxyphenyl) sulfide;4,4′-Thiodianisole;Bis(4-methoxyphenyl) sulfide;Di(<em>p</em>-methoxyphenyl) sulfide;4,4′-Dimethoxydiphenyl sulfide;4,4′-Thiobis[anisole];Bis(4-methoxyphenyl)sulfane",
    "duplicated_cas_no": "",
    "SMILES": "S(C1=CC=C(OC)C=C1)C2=CC=C(OC)C=C2",
    "meta_data": {
        "InChI": "InChI=1S/C14H14O2S/c1-15-11-3-7-13(8-4-11)17-14-9-5-12(16-2)6-10-14/h3-10H,1-2H3",
        "InChIKey": null,
        "Canonical SMILES": "O(C1=CC=C(SC2=CC=C(OC)C=C2)C=C1)C",
        "Molecular Formula": "C<sub>14</sub>H<sub>14</sub>O<sub>2</sub>S",
        "Molecular Mass": "246.32",
        "Boiling Point": "166-170 °C @ Press: 2 Torr",
        "Melting Point": "43-44 °C"
    }
}