{
    "cas_no": "37318-31-3",
    "key_name": "Sucrose, stearate",
    "cn_name": "蔗糖脂肪酸酯;脂肪酸蔗糖酯；蔗糖酯;",
    "alternate_name": "α-<span class=\"text-smallcaps\">D</smallcap>-Glucopyranoside, β-<smallcap>D</span>-fructofuranosyl, octadecanoate;Sucrose, stearate;Cane sugar stearate;Crodesta F 110;SM 90;Crodesta F 160;Nitto Ester S 370;Ryoto Sugar Ester S 270;Ryoto Sugar Ester S 970;Ryoto Sugar Ester S 370F;Ryoto Sugar Ester S 1170;Sucroester WE 11;Ryoto Sugar Ester S 170;S 1170;S 970;Ryoto Sugar Ester SM 1800;DK 50;DK 160;S 1570;Ryoto Sugar Ester S 1570;S 270;Ryoto Sugar Ester S 70;SM 90 (sugar ester);Ryoto Sugar Ester S 1170F;Ryoto Sugar Ester S 570;S 070;Crodesta F 140;SS 7;SS 15;Surfhope Sepharma J 1811F;Sucrose octadecanoate;S 170;Crodesta F 90;Sisterna SP 50;Ryoto Sugar Ester S 1170S;Ryoto Sugar Ester S 395;S 395;Sefose 1618H;SEFA polystearate;Surfhope SE Cosme C 1816;Cosmelike S 10;DK Ester O 10;DUB-SE 11S;Cosmelike S 110;SE 1570;SE 970;Surfhope C 1816;Rikemal A;Surfhope J 1809;Surfhope J 1815;Ryoto Sugar Ester S 070;Surfhope SE COSME C 1802;Surfhope SE Cosme C 1811;Surfhope SE COSME C 1800;Surfhope SE COSME C 1801;Surfhope J 1811;DKF 10;Ryoto S 1170;Surfhope SE Cosme C 1815;SFE 1815;SP 10C;Ryoto S 170;Sucrose stearate;Saccharose stearate;Tego Care SE 121;Sugar Ester S 570;Emalex C 1611;S 370;Ryoto Sugar Ester S 1170J;Sugar Ester S 170;Surfhope C 1815;S 570;Ryoto Sugar Ester S 370;Ryoto Sugar Ester S 770",
    "duplicated_cas_no": "61090-24-2;62610-60-0;67621-27-6;78810-33-0;103289-04-9;103289-05-0;115469-33-5;178806-69-4;612825-24-8;1166384-97-9;1845748-67-5",
    "SMILES": "O([C@]1(CO)O[C@H](CO)[C@@H](O)[C@@H]1O)[C@H]2O[C@H](CO)[C@@H](O)[C@H](O)[C@H]2O.C(CCCCCCCCCCC)CCCCCC(O)=O",
    "meta_data": {
        "InChI": "InChI=1S/C18H36O2.C12H22O11/c1-2-3-4-5-6-7-8-9-10-11-12-13-14-15-16-17-18(19)20;13-1-4-6(16)8(18)9(19)11(21-4)23-12(3-15)10(20)7(17)5(2-14)22-12/h2-17H2,1H3,(H,19,20);4-11,13-20H,1-3H2/t;4-,5-,6-,7-,8+,9-,10+,11-,12+/m.1/s1",
        "InChIKey": null,
        "Canonical SMILES": "O=C(O)CCCCCCCCCCCCCCCCC.OCC1OC(OC2(OC(CO)C(O)C2O)CO)C(O)C(O)C1O",
        "Molecular Formula": "C<sub>18</sub>H<sub>36</sub>O<sub>2</sub>.xC<sub>12</sub>H<sub>22</sub>O<sub>11</sub>",
        "Molecular Mass": "",
        "Melting Point": "56-60 °C"
    }
}