{
    "cas_no": "122-19-0",
    "key_name": "Stearyldimethylbenzylammonium chloride",
    "cn_name": "十八烷基二甲基苄基氯化铵;苄基二甲基十八烷基氯化铵;",
    "alternate_name": "Benzenemethanaminium, <em>N</em>,<em>N</em>-dimethyl-<em>N</em>-octadecyl-, chloride (1:1);Ammonium, benzyldimethyloctadecyl-, chloride;Benzenemethanaminium, <em>N</em>,<em>N</em>-dimethyl-<em>N</em>-octadecyl-, chloride;Benzyldimethyloctadecylammonium chloride;Ammonyx 4;Benzyldimethylstearylammonium chloride;Benzylstearyldimethylammonium chloride;Dimethylbenzyloctadecylammonium chloride;Dimethyloctadecylbenzylammonium chloride;<em>N</em>-Octadecyl-<em>N</em>-benzyl-<em>N</em>,<em>N</em>-dimethylammonium chloride;Octadecyldimethylbenzylammonium chloride;Quaternol 1;Stearyldimethylbenzylammonium chloride;Stebac;Stedbac;Triton X 400;Octadecylbenzyldimethylammonium chloride;2B (onium compound);Intexsan SB 85;Stearalkonium chloride;Ammonyx 490;Ammonyx 4002;Intexan SB 85;Triton X 40;Benzyloctadecyldimethylammonium chloride;Orthosan MB;Stearylbenzyldimethyl ammonium chloride;Triton CG 500;Triton CG 400;Dimethylstearylbenzylammonium chloride;Maquat SC 18;Nissan Cation S<sub>2</sub>-100;2B;Cation S (surfactant);Larostat HTS 905;Alkaquat DMB-ST;Arquad DM 18B90;Incroquat SDQ 25;Mackernium SDC 25;Varisoft SDC 85;Swanol CA 1485;Mackernium SDC 85;Carsoquat SDQ 85;Carsoquat SDQ 25;SDQ 85;SDQ 25;Algene SC 25;Catinal OB 80E;Dodigen 1828;Varisoft SDC;Cation S 2-100;ODBAC 1827;Incroquat S 85;Pentonium SD 75;DC;Leveling agent 1827;DC (leveling agent);<em>N</em>,<em>N</em>-Dimethyl-<em>N</em>-benzyl-<em>N</em>-octadecylammonium chloride;Tetranyl B 2MTH;Antistatic 1827;Surfactant 1827;Larostat 905;BAC 18",
    "duplicated_cas_no": "37243-60-0;60650-76-2;89004-38-6",
    "SMILES": "C([N+](CCCCCCCCCCCCCCCCCC)(C)C)C1=CC=CC=C1.[Cl-]",
    "meta_data": {
        "InChI": "InChI=1S/C27H50N.ClH/c1-4-5-6-7-8-9-10-11-12-13-14-15-16-17-18-22-25-28(2,3)26-27-23-20-19-21-24-27;/h19-21,23-24H,4-18,22,25-26H2,1-3H3;1H/q+1;/p-1",
        "InChIKey": null,
        "Canonical SMILES": "[Cl-].C=1C=CC(=CC1)C[N+](C)(C)CCCCCCCCCCCCCCCCCC",
        "Molecular Formula": "C<sub>27</sub>H<sub>50</sub>N.Cl",
        "Molecular Mass": "",
        "Melting Point": "57 °C",
        "Density": "0.90 g/cm³ @ Temp: 60 °C"
    }
}