{
    "cas_no": "461-56-3",
    "key_name": "3-Fluoropropanoic acid",
    "cn_name": null,
    "alternate_name": "Propanoic acid, 3-fluoro-;Propionic acid, 3-fluoro-;3-Fluoropropanoic acid;β-Fluoropropionic acid;3-Fluoropropionic acid",
    "duplicated_cas_no": "",
    "SMILES": "C(C(O)=O)CF",
    "meta_data": {
        "InChI": "InChI=1S/C3H5FO2/c4-2-1-3(5)6/h1-2H2,(H,5,6)",
        "InChIKey": null,
        "Canonical SMILES": "O=C(O)CCF",
        "Molecular Formula": "C<sub>3</sub>H<sub>5</sub>FO<sub>2</sub>",
        "Molecular Mass": "92.07",
        "Boiling Point": "78.5-79.5 °C @ Press: 12 Torr",
        "Density": "1.247 g/cm³ @ Temp: 20 °C"
    }
}