{
    "cas_no": "2847-00-9",
    "key_name": "1,2:5,6-Bis-<em>O</em>-(1-methylethylidene)-α-<span class=\"text-smallcaps\">D</span>-<em>ribo</em>-hexofuranos-3-ulose",
    "cn_name": null,
    "alternate_name": "α-<span class=\"text-smallcaps\">D</span>-<em>ribo</em>-Hexofuranos-3-ulose, 1,2:5,6-bis-<em>O</em>-(1-methylethylidene)-;<span class=\"text-smallcaps\">D</span>-<em>ribo</em>-Hexofuranos-3-ulose, 1,2:5,6-di-<em>O</em>-isopropylidene-, α-;<span class=\"text-smallcaps\">D</span>-<em>ribo</em>-Hexofuranos-3-ulose, 1,2:5,6-di-<em>O</em>-isopropylidene-;Furo[2,3-<em>d</em>]-1,3-dioxole, α-<span class=\"text-smallcaps\">D</span>-<em>ribo</em>-hexofuranos-3-ulose deriv.;1,2:5,6-Bis-<em>O</em>-(1-methylethylidene)-α-<span class=\"text-smallcaps\">D</span>-<em>ribo</em>-hexofuranos-3-ulose;1,2:5,6-Di-<em>O</em>-isopropylidene-α-<span class=\"text-smallcaps\">D</span>-<em>ribo</em>-hexofuranos-3-ulose;1,2:5,6-Di-<em>O</em>-isopropylidene-α-<span class=\"text-smallcaps\">D</span>-ribohexofuran-3-ulose",
    "duplicated_cas_no": "63108-79-2;79607-57-1;158173-21-8;267644-73-5;877674-32-3;1257791-31-3",
    "SMILES": "O=C1[C@@]2([C@](O[C@@]1([C@]3(COC(C)(C)O3)[H])[H])(OC(C)(C)O2)[H])[H]",
    "meta_data": {
        "InChI": "InChI=1S/C12H18O6/c1-11(2)14-5-6(16-11)8-7(13)9-10(15-8)18-12(3,4)17-9/h6,8-10H,5H2,1-4H3/t6-,8-,9-,10-/m1/s1",
        "InChIKey": null,
        "Canonical SMILES": "O=C1C(OC2OC(OC12)(C)C)C3OC(OC3)(C)C",
        "Molecular Formula": "C<sub>12</sub>H<sub>18</sub>O<sub>6</sub>",
        "Molecular Mass": "258.27",
        "Boiling Point": "97 °C @ Press: 0.01 Torr",
        "Melting Point": "37-40 °C"
    }
}