{
    "cas_no": "54029-12-8",
    "key_name": "(±)-Albendazole sulfoxide",
    "cn_name": "阿苯达唑亚砜;N-(6-丙基亚硫酰-1H-苯并咪唑-2-基)氨基甲酸甲酯;",
    "alternate_name": "Carbamic acid, <em>N</em>-[6-(propylsulfinyl)-1<em>H</em>-benzimidazol-2-yl]-, methyl ester;Carbamic acid, [5-(propylsulfinyl)-1<em>H</em>-benzimidazol-2-yl]-, methyl ester;Albendazole sulfoxide;RS 8852;Albendazole oxide;Ricobendazole;Rycobendazole;(±)-Albendazole sulfoxide;Methyl [5-(propylsulfinyl)-1<em>H</em>-benzimidazol-2-yl]carbamate",
    "duplicated_cas_no": "122063-18-7",
    "SMILES": "S(CCC)(=O)C=1C=C2C(N=C(NC(OC)=O)N2)=CC1",
    "meta_data": {
        "InChI": "InChI=1S/C12H15N3O3S/c1-3-6-19(17)8-4-5-9-10(7-8)14-11(13-9)15-12(16)18-2/h4-5,7H,3,6H2,1-2H3,(H2,13,14,15,16)",
        "InChIKey": null,
        "Canonical SMILES": "O=C(OC)NC1=NC=2C=CC(=CC2N1)S(=O)CCC",
        "Molecular Formula": "C<sub>12</sub>H<sub>15</sub>N<sub>3</sub>O<sub>3</sub>S",
        "Molecular Mass": "281.33",
        "Melting Point": "218-220 °C"
    }
}