{
    "cas_no": "271-44-3",
    "key_name": "Indazole",
    "cn_name": "吲唑;1,2-二氮杂茚;",
    "alternate_name": "1<em>H</em>-Indazole;Indazole;Isoindazole;2-Azaindole;1,2-Diazaindene;1<em>H</em>-Benzopyrazole;NSC 26336;NSC 90357",
    "duplicated_cas_no": "116421-37-5",
    "SMILES": "C1=2C(NN=C1)=CC=CC2",
    "meta_data": {
        "InChI": "InChI=1S/C7H6N2/c1-2-4-7-6(3-1)5-8-9-7/h1-5H,(H,8,9)",
        "InChIKey": null,
        "Canonical SMILES": "N1=CC=2C=CC=CC2N1",
        "Molecular Formula": "C<sub>7</sub>H<sub>6</sub>N<sub>2</sub>",
        "Molecular Mass": "118.14",
        "Boiling Point": "269 °C",
        "Melting Point": "148 °C"
    }
}