{
    "cas_no": "1002-16-0",
    "key_name": "Amyl nitrate",
    "cn_name": "硝酸戊酯;硝酸戊酯;",
    "alternate_name": "Nitric acid, pentyl ester;Pentyl nitrate;<em>n</em>-Pentyl nitrate;Amyl nitrate;1-Pentyl nitrate",
    "duplicated_cas_no": "8015-63-2",
    "SMILES": "C(ON(=O)=O)CCCC",
    "meta_data": {
        "InChI": "InChI=1S/C5H11NO3/c1-2-3-4-5-9-6(7)8/h2-5H2,1H3",
        "InChIKey": null,
        "Canonical SMILES": "O=N(=O)OCCCCC",
        "Molecular Formula": "C<sub>5</sub>H<sub>11</sub>NO<sub>3</sub>",
        "Molecular Mass": "133.15",
        "Boiling Point": "157 °C",
        "Melting Point": "&lt;0 °C"
    }
}