{
    "cas_no": "74-99-7",
    "key_name": "Propyne",
    "cn_name": "丙炔;",
    "alternate_name": "1-Propyne;Propyne;Methylacetylene;Propine;Allylene",
    "duplicated_cas_no": "369597-38-6",
    "SMILES": "C(C)#C",
    "meta_data": {
        "InChI": "InChI=1S/C3H4/c1-3-2/h1H,2H3",
        "InChIKey": null,
        "Canonical SMILES": "C#CC",
        "Molecular Formula": "C<sub>3</sub>H<sub>4</sub>",
        "Molecular Mass": "40.06",
        "Boiling Point": "-23.2 °C @ Press: 760 Torr",
        "Melting Point": "-102.7 °C",
        "Density": "0.7062 g/cm³ @ Temp: -50 °C"
    }
}