{
    "cas_no": "16260-48-3",
    "key_name": "1,3-Bis(2-hydroxyethylthio)propane",
    "cn_name": null,
    "alternate_name": "Ethanol, 2,2′-[1,3-propanediylbis(thio)]bis-;Ethanol, 2,2′-(trimethylenedithio)di-;2,2′-[1,3-Propanediylbis(thio)]bis[ethanol];3,7-Dithianonane-1,9-diol;NSC 650634;1,3-Bis(2-hydroxyethylthio)propane;1,3-Bis(2-hydroxyethylsulfanyl)propane;2,2′-(Propane-1,3-diylbis(sulfanediyl))diethanol;2-[3-(2-Hydroxyethylsulfanyl)propylsulfanyl]ethanol",
    "duplicated_cas_no": "1637330-70-1",
    "SMILES": "C(CSCCO)CSCCO",
    "meta_data": {
        "InChI": "InChI=1S/C7H16O2S2/c8-2-6-10-4-1-5-11-7-3-9/h8-9H,1-7H2",
        "InChIKey": null,
        "Canonical SMILES": "OCCSCCCSCCO",
        "Molecular Formula": "C<sub>7</sub>H<sub>16</sub>O<sub>2</sub>S<sub>2</sub>",
        "Molecular Mass": "196.33",
        "Boiling Point": "167 °C @ Press: 1.5 Torr"
    }
}