{
    "cas_no": "112-47-0",
    "key_name": "1,10-Decanediol",
    "cn_name": "1,10-癸二醇;",
    "alternate_name": "1,10-Decanediol;Decamethylene glycol;1,10-Decamethylenediol;Decamethylenediol;α,ω-Decanediol;1,10-Dihydroxydecane;NSC 17165;Speziol C 10/2;1,10-Decamethylene glycol;1,10-Decyleneglycol;D 0014",
    "duplicated_cas_no": "",
    "SMILES": "C(CCCCCO)CCCCO",
    "meta_data": {
        "InChI": "InChI=1S/C10H22O2/c11-9-7-5-3-1-2-4-6-8-10-12/h11-12H,1-10H2",
        "InChIKey": null,
        "Canonical SMILES": "OCCCCCCCCCCO",
        "Molecular Formula": "C<sub>10</sub>H<sub>22</sub>O<sub>2</sub>",
        "Molecular Mass": "174.28",
        "Boiling Point": "71.5 °C",
        "Melting Point": "74 °C"
    }
}