{
    "cas_no": "4067-16-7",
    "key_name": "Pentaethylenehexamine",
    "cn_name": "五乙烯六胺;",
    "alternate_name": "3,6,9,12-Tetraazatetradecane-1,14-diamine;Pentaethylenehexamine;Pentaethylenehexaamine;1,4,7,10,13,16-Hexaazahexadecane;3,6,9,12-Tetraazatetradecamethylenediamine;1,2-Bis[[2-[(2-aminoethyl)amino]ethyl]amino]ethane;PEHA;Pentaethylene hexaamine;1,14-Diamino-3,6,9,12-tetraazatetradecane;Aradur 5003",
    "duplicated_cas_no": "778592-37-3",
    "SMILES": "C(CNCCNCCN)NCCNCCN",
    "meta_data": {
        "InChI": "InChI=1S/C10H28N6/c11-1-3-13-5-7-15-9-10-16-8-6-14-4-2-12/h13-16H,1-12H2",
        "InChIKey": null,
        "Canonical SMILES": "NCCNCCNCCNCCNCCN",
        "Molecular Formula": "C<sub>10</sub>H<sub>28</sub>N<sub>6</sub>",
        "Molecular Mass": "232.37",
        "Boiling Point": "380 °C",
        "Density": "1.003 g/cm³"
    }
}