{
    "cas_no": "28249-77-6",
    "key_name": "Thiobencarb",
    "cn_name": "杀草丹;禾草丹;N,N-二乙基硫代氨基甲酸对氯苄酯;",
    "alternate_name": "Carbamothioic acid, <em>N</em>,<em>N</em>-diethyl-, <em>S</em>-[(4-chlorophenyl)methyl] ester;Carbamic acid, diethylthio-, <em>S</em>-(<em>p</em>-chlorobenzyl) ester;Carbamothioic acid, diethyl-, <em>S</em>-[(4-chlorophenyl)methyl] ester;α-Toluenethiol, <em>p</em>-chloro-, diethylcarbamate;Saturn (pesticide);IMC 3950;<em>S</em>-(<em>p</em>-Chlorobenzyl) <em>N</em>,<em>N</em>-diethylthiocarbamate;<em>S</em>-(4-Chlorobenzyl) <em>N</em>,<em>N</em>-diethylthiocarbamate;Saturn;Benthiocarb;<em>S</em>-<em>p</em>-Chlorobenzyl diethylthiocarbamate;<em>S</em>-(<em>p</em>-Chlorobenzyl) <em>N</em>,<em>N</em>-diethylthiolocarbamate;<em>p</em>-Chlorobenzyl <em>N</em>,<em>N</em>-diethylthiolcarbamate;<em>p</em>-Chlorobenzyl diethylthiolcarbamate;B 3015;<em>S</em>-(4-Chlorobenzyl) diethylthiolcarbamate;Thiobencarb;<em>S</em>-4-Chlorobenzyl <em>N</em>,<em>N</em>-diethylthiolcarbamate;<em>S</em>-(4-Chlorobenzyl) diethylthiocarbamate;Bolero;Bolero 8EC;Sadan;B 3015 (pesticide);Bencarb",
    "duplicated_cas_no": "11099-66-4",
    "SMILES": "C(SC(N(CC)CC)=O)C1=CC=C(Cl)C=C1",
    "meta_data": {
        "InChI": "InChI=1S/C12H16ClNOS/c1-3-14(4-2)12(15)16-9-10-5-7-11(13)8-6-10/h5-8H,3-4,9H2,1-2H3",
        "InChIKey": null,
        "Canonical SMILES": "O=C(SCC1=CC=C(Cl)C=C1)N(CC)CC",
        "Molecular Formula": "C<sub>12</sub>H<sub>16</sub>ClNOS",
        "Molecular Mass": "257.78",
        "Boiling Point": "126-129 °C @ Press: 8 x 10<sup>-3</sup> Torr",
        "Melting Point": "3.3 °C",
        "Density": "1.145-1.180 g/cm³ @ Temp: 20 °C"
    }
}