{
    "cas_no": "504-17-6",
    "key_name": "Thiobarbituric acid",
    "cn_name": "4,6-二羟基-2-巯基嘧啶;2-硫代巴比妥酸;",
    "alternate_name": "4,6(1<em>H</em>,5<em>H</em>)-Pyrimidinedione, dihydro-2-thioxo-;Barbituric acid, 2-thio-;Dihydro-2-thioxo-4,6(1<em>H</em>,5<em>H</em>)-pyrimidinedione;2-Thiobarbituric acid;Thiobarbituric acid;2-Mercapto-4,6-dihydroxypyrimidine;2-Thio-4,6-dioxypyrimidine;Bathyran;2-Mercaptobarbituric acid;Austranal;2-Mercaptopyrimidine-4,6-diol;4,6-Dihydroxy-2-mercaptopyrimidine;Hexahydropyrimidine-4,6-dione-2-thione;1,2,3,4,5,6-Hexahydro-4,6-dioxopyrimidine-2-thione;NSC 4733;2-Thiopyrimidine-4,6-diol;2-Thioxodihydropyrimidine-4,6(1<em>H</em>,5<em>H</em>)-dione;2-Thioxo-dihydro-pyrimidine-4,6-dione;2-Thioxopyrimidine-4,6-dione;2-Mercaptopyrimidine-4,6(1<em>H</em>,5<em>H</em>)-dione;2-Sulfanyl-1,4,5,6-tetrahydropyrimidine-4,6-dione;2-Sulfanylidene-1,3-diazinane-4,6-dione",
    "duplicated_cas_no": "5525-79-1;5658-01-5;91759-32-9;118738-55-9;121477-82-5;122508-78-5;124558-04-9;126660-87-5;127726-79-8;136771-68-1;145783-11-5;148021-12-9;157796-99-1;709611-98-3;773866-14-1;863970-61-0;878388-18-2;886365-65-7;924832-30-4;956086-95-6;1049677-34-0;1076199-44-4;1116339-76-4;1228272-12-5;1236029-05-2;1256721-97-7;1262632-60-9;1287678-13-0;1313510-54-1;1356834-57-5;1369625-13-7;1393847-12-5;1423769-56-5;1583284-74-5;1612185-40-6;1622940-33-3;1683524-47-1;1696408-94-2;1773529-72-8;1802859-83-1;1825368-06-6;1850381-77-9;2171459-69-9",
    "SMILES": "O=C1CC(=O)NC(=S)N1",
    "meta_data": {
        "InChI": "InChI=1S/C4H4N2O2S/c7-2-1-3(8)6-4(9)5-2/h1H2,(H2,5,6,7,8,9)",
        "InChIKey": null,
        "Canonical SMILES": "O=C1NC(=S)NC(=O)C1",
        "Molecular Formula": "C<sub>4</sub>H<sub>4</sub>N<sub>2</sub>O<sub>2</sub>S",
        "Molecular Mass": "144.15",
        "Melting Point": "245 °C",
        "Density": "1.661 g/cm³"
    }
}