{
    "cas_no": "27807-84-7",
    "key_name": "4-Chloro-3-oxobutanoic acid",
    "cn_name": null,
    "alternate_name": "Butanoic acid, 4-chloro-3-oxo-;Acetoacetic acid, 4-chloro-;4-Chloro-3-oxobutanoic acid;4-Chloro-3-oxobutyric acid;γ-Chloroacetoacetic acid;4-Chloroacetoacetic acid;4-Chloro-3-oxobutaneoate",
    "duplicated_cas_no": "",
    "SMILES": "C(CC(O)=O)(CCl)=O",
    "meta_data": {
        "InChI": "InChI=1S/C4H5ClO3/c5-2-3(6)1-4(7)8/h1-2H2,(H,7,8)",
        "InChIKey": null,
        "Canonical SMILES": "O=C(O)CC(=O)CCl",
        "Molecular Formula": "C<sub>4</sub>H<sub>5</sub>ClO<sub>3</sub>",
        "Molecular Mass": "136.53",
        "Melting Point": "67-69 °C"
    }
}