{
    "cas_no": "1415566-28-7",
    "key_name": "<em>N</em>-[[(5<em>S</em>)-2-Oxo-3-[4-(3-oxo-4-morpholinyl)phenyl]-5-oxazolidinyl]methyl]-2-thiophenecarboxamide",
    "cn_name": null,
    "alternate_name": "2-Thiophenecarboxamide, <em>N</em>-[[(5<em>S</em>)-2-oxo-3-[4-(3-oxo-4-morpholinyl)phenyl]-5-oxazolidinyl]methyl]-;<em>N</em>-[[(5<em>S</em>)-2-Oxo-3-[4-(3-oxo-4-morpholinyl)phenyl]-5-oxazolidinyl]methyl]-2-thiophenecarboxamide",
    "duplicated_cas_no": "",
    "SMILES": "O=C1N(C[C@H](CNC(=O)C2=CC=CS2)O1)C3=CC=C(C=C3)N4C(=O)COCC4",
    "meta_data": {
        "InChI": "InChI=1S/C19H19N3O5S/c23-17-12-26-8-7-21(17)13-3-5-14(6-4-13)22-11-15(27-19(22)25)10-20-18(24)16-2-1-9-28-16/h1-6,9,15H,7-8,10-12H2,(H,20,24)/t15-/m0/s1",
        "InChIKey": null,
        "Canonical SMILES": "O=C1OC(CNC(=O)C=2SC=CC2)CN1C3=CC=C(C=C3)N4C(=O)COCC4",
        "Molecular Formula": "C<sub>19</sub>H<sub>19</sub>N<sub>3</sub>O<sub>5</sub>S",
        "Molecular Mass": "401.44",
        "Melting Point": "200-203 °C"
    }
}