{
    "cas_no": "121-25-5",
    "key_name": "Amprolium chloride",
    "cn_name": "安普罗林;盐酸氨丙啉;1-[(4-氨基-2-丙基-5-嘧啶基)甲基]-2-甲基吡啶氯化物;",
    "alternate_name": "Pyridinium, 1-[(4-amino-2-propyl-5-pyrimidinyl)methyl]-2-methyl-, chloride (1:1);1-[(4-Amino-2-propyl-5-pyrimidinyl)methyl]-2-picolinium chloride;2-Picolinium, 1-[(4-amino-2-propyl-5-pyrimidinyl)methyl]-, chloride;Pyridinium, 1-[(4-amino-2-propyl-5-pyrimidinyl)methyl]-2-methyl-, chloride;Amprolium;Anticoccid;Amprolium chloride;Amprovine;Amprolium plus;Amprolsol;Ampisol;1-((4-Amino-2-propylpyrimidin-5-yl)methyl)-2-methylpyridin-1-ium chloride;MeSH ID: D000670",
    "duplicated_cas_no": "37338-14-0",
    "SMILES": "C(C=1C(N)=NC(CCC)=NC1)[N+]=2C(C)=CC=CC2.[Cl-]",
    "meta_data": {
        "InChI": "InChI=1S/C14H19N4.ClH/c1-3-6-13-16-9-12(14(15)17-13)10-18-8-5-4-7-11(18)2;/h4-5,7-9H,3,6,10H2,1-2H3,(H2,15,16,17);1H/q+1;/p-1",
        "InChIKey": null,
        "Canonical SMILES": "[Cl-].N=1C=C(C(=NC1CCC)N)C[N+]=2C=CC=CC2C",
        "Molecular Formula": "C<sub>14</sub>H<sub>19</sub>N<sub>4</sub>.Cl",
        "Molecular Mass": "",
        "Melting Point": "246-248 °C (decomp)"
    }
}