{
    "cas_no": "614-60-8",
    "key_name": "<em>trans</em>-2-Hydroxycinnamic acid",
    "cn_name": "邻羟基肉桂酸;反式-2-羟基肉桂酸;",
    "alternate_name": "2-Propenoic acid, 3-(2-hydroxyphenyl)-, (2<em>E</em>)-;Cinnamic acid, <em>o</em>-hydroxy-, (<em>E</em>)-;2-Propenoic acid, 3-(2-hydroxyphenyl)-, (<em>E</em>)-;(2<em>E</em>)-3-(2-Hydroxyphenyl)-2-propenoic acid;<em>trans</em>-<em>o</em>-Coumaric acid;<em>trans</em>-<em>o</em>-Hydroxycinnamic acid;<em>trans</em>-2-Hydroxycinnamic acid;<em>o</em>-Hydroxy-<em>trans</em>-cinnamic acid;(<em>E</em>)-<em>o</em>-Hydroxycinnamic acid;(<em>E</em>)-2-Hydroxycinnamic acid;NSC 32952;(<em>E</em>)-3-(2-Hydroxyphenyl)acrylic acid;Rans-2-hydroxycinnamic acid;(<em>E</em>)-<em>o</em>-Coumaric acid",
    "duplicated_cas_no": "",
    "SMILES": "C(=C/C(O)=O)\\C1=C(O)C=CC=C1",
    "meta_data": {
        "InChI": "InChI=1S/C9H8O3/c10-8-4-2-1-3-7(8)5-6-9(11)12/h1-6,10H,(H,11,12)/b6-5+",
        "InChIKey": null,
        "Canonical SMILES": "O=C(O)C=CC=1C=CC=CC1O",
        "Molecular Formula": "C<sub>9</sub>H<sub>8</sub>O<sub>3</sub>",
        "Molecular Mass": "164.16",
        "Melting Point": "214-215 °C (decomp)"
    }
}