{
    "cas_no": "104-88-1",
    "key_name": "4-Chlorobenzaldehyde",
    "cn_name": "4-氯苯甲醛;对氯苯甲醛;",
    "alternate_name": "Benzaldehyde, 4-chloro-;Benzaldehyde, <em>p</em>-chloro-;4-Chlorobenzaldehyde;<em>p</em>-Chlorobenzaldehyde;<em>p</em>-Chlorobenzenecarboxaldehyde;<em>para</em>-Chlorobenzaldehyde;<em>p</em>-Chlorophenylaldehyde;NSC 2078;4-Formylphenyl chloride;1-Chloro-4-formylbenzene",
    "duplicated_cas_no": "2324860-98-0",
    "SMILES": "C(=O)C1=CC=C(Cl)C=C1",
    "meta_data": {
        "InChI": "InChI=1S/C7H5ClO/c8-7-3-1-6(5-9)2-4-7/h1-5H",
        "InChIKey": null,
        "Canonical SMILES": "O=CC1=CC=C(Cl)C=C1",
        "Molecular Formula": "C<sub>7</sub>H<sub>5</sub>ClO",
        "Molecular Mass": "140.57",
        "Boiling Point": "213.5 °C",
        "Melting Point": "47.5 °C"
    }
}