{
    "cas_no": "4208-49-5",
    "key_name": "2-Propen-1-yl 2-furancarboxylate",
    "cn_name": "2-呋喃羧酸烯丙酯;糠酸烯丙酯;",
    "alternate_name": "2-Furancarboxylic acid, 2-propen-1-yl ester;2-Furoic acid, allyl ester;2-Furancarboxylic acid, 2-propenyl ester;2-Propen-1-yl 2-furancarboxylate;Allyl 2-furoate;Allyl 2-furancarboxylate;NSC 18604;2-Propenyl 2-furancarboxylate",
    "duplicated_cas_no": "",
    "SMILES": "C(OCC=C)(=O)C1=CC=CO1",
    "meta_data": {
        "InChI": "InChI=1S/C8H8O3/c1-2-5-11-8(9)7-4-3-6-10-7/h2-4,6H,1,5H2",
        "InChIKey": null,
        "Canonical SMILES": "O=C(OCC=C)C=1OC=CC1",
        "Molecular Formula": "C<sub>8</sub>H<sub>8</sub>O<sub>3</sub>",
        "Molecular Mass": "152.15",
        "Boiling Point": "207.5 °C",
        "Melting Point": "209 °C",
        "Density": "1.118 g/cm³ @ Temp: 20 °C"
    }
}