{
    "cas_no": "2906-60-7",
    "key_name": "4,4′-Dithiodibutyric acid",
    "cn_name": "3-羧丙基二硫化物;",
    "alternate_name": "Butanoic acid, 4,4′-dithiobis-;Butyric acid, 4,4′-dithiodi-;4,4′-Dithiobis[butanoic acid];γ,γ′-Dithiodibutyric acid;4,4′-Dithiodibutyric acid;3-Carboxypropyl disulfide;4,4′-Dithiodibutanoic acid;Bis(3-carboxypropyl) disulfide;4,4-Disulfanylbutyric acid;4,4′-(Disulfanediyl)dibutanoic acid",
    "duplicated_cas_no": "1547298-48-5",
    "SMILES": "C(CC(O)=O)CSSCCCC(O)=O",
    "meta_data": {
        "InChI": "InChI=1S/C8H14O4S2/c9-7(10)3-1-5-13-14-6-2-4-8(11)12/h1-6H2,(H,9,10)(H,11,12)",
        "InChIKey": null,
        "Canonical SMILES": "O=C(O)CCCSSCCCC(=O)O",
        "Molecular Formula": "C<sub>8</sub>H<sub>14</sub>O<sub>4</sub>S<sub>2</sub>",
        "Molecular Mass": "238.32",
        "Melting Point": "109-110 °C"
    }
}