{
    "cas_no": "23038-36-0",
    "key_name": "1-Bromo-4-(phenylsulfonyl)benzene",
    "cn_name": "1-溴-4-(苯基磺酰基)苯;",
    "alternate_name": "Benzene, 1-bromo-4-(phenylsulfonyl)-;Sulfone, <em>p</em>-bromophenyl phenyl;1-Bromo-4-(phenylsulfonyl)benzene;4-Bromophenyl phenyl sulfone;4-(Phenylsulfonyl)bromobenzene;NSC 220105;<em>p</em>-Bromophenyl phenyl sulfone;1-Benzenesulfonyl-4-bromobenzene;4-Bromodiphenyl sulfone;4-Bromophenylsulfonylbenzene;1-(Phenylsulfonyl)-4-bromobenzene",
    "duplicated_cas_no": "",
    "SMILES": "S(=O)(=O)(C1=CC=C(Br)C=C1)C2=CC=CC=C2",
    "meta_data": {
        "InChI": "InChI=1S/C12H9BrO2S/c13-10-6-8-12(9-7-10)16(14,15)11-4-2-1-3-5-11/h1-9H",
        "InChIKey": null,
        "Canonical SMILES": "O=S(=O)(C=1C=CC=CC1)C2=CC=C(Br)C=C2",
        "Molecular Formula": "C<sub>12</sub>H<sub>9</sub>BrO<sub>2</sub>S",
        "Molecular Mass": "297.17",
        "Melting Point": "108-108.5 °C"
    }
}