{
    "cas_no": "31508-44-8",
    "key_name": "Methyl α-methylbenzeneacetate",
    "cn_name": null,
    "alternate_name": "Benzeneacetic acid, α-methyl-, methyl ester;Hydratropic acid, methyl ester;Methyl α-methylbenzeneacetate;Methyl 2-phenylpropionate;Methyl α-methylphenylacetate;Methyl 2-phenylpropanoate;Methyl α-phenylpropionate;(±)-2-Phenylpropionic acid methyl ester;Methyl (±)-hydratropate;(±)-Methyl 2-phenylpropanoate;α-methylbenzeneacetic acid methyl ester;Methyl 2-methyl-2-phenylacetate;2-Phenylpropanoic acid methyl ester",
    "duplicated_cas_no": "2328-26-9",
    "SMILES": "C(C(OC)=O)(C)C1=CC=CC=C1",
    "meta_data": {
        "InChI": "InChI=1S/C10H12O2/c1-8(10(11)12-2)9-6-4-3-5-7-9/h3-8H,1-2H3",
        "InChIKey": null,
        "Canonical SMILES": "O=C(OC)C(C=1C=CC=CC1)C",
        "Molecular Formula": "C<sub>10</sub>H<sub>12</sub>O<sub>2</sub>",
        "Molecular Mass": "164.20",
        "Boiling Point": "98-100 °C @ Press: 12 Torr"
    }
}