{
    "cas_no": "582-16-1",
    "key_name": "2,7-Dimethylnaphthalene",
    "cn_name": "2,7-二甲基萘;",
    "alternate_name": "Naphthalene, 2,7-dimethyl-;2,7-Dimethylnaphthalene;NSC 36851",
    "duplicated_cas_no": "",
    "SMILES": "CC1=CC2=C(C=CC(C)=C2)C=C1",
    "meta_data": {
        "InChI": "InChI=1S/C12H12/c1-9-3-5-11-6-4-10(2)8-12(11)7-9/h3-8H,1-2H3",
        "InChIKey": null,
        "Canonical SMILES": "C=1C=C(C=C2C=C(C=CC12)C)C",
        "Molecular Formula": "C<sub>12</sub>H<sub>12</sub>",
        "Molecular Mass": "156.22",
        "Boiling Point": "265 °C",
        "Melting Point": "97 °C"
    }
}