{
    "cas_no": "590371-73-6",
    "key_name": "4-Iodo-2-(trifluoromethyl)pyridine",
    "cn_name": "4-碘-2-(三氟甲基)吡啶;",
    "alternate_name": "Pyridine, 4-iodo-2-(trifluoromethyl)-;4-Iodo-2-(trifluoromethyl)pyridine",
    "duplicated_cas_no": "",
    "SMILES": "C(F)(F)(F)C1=CC(I)=CC=N1",
    "meta_data": {
        "InChI": "InChI=1S/C6H3F3IN/c7-6(8,9)5-3-4(10)1-2-11-5/h1-3H",
        "InChIKey": null,
        "Canonical SMILES": "FC(F)(F)C1=NC=CC(I)=C1",
        "Molecular Formula": "C<sub>6</sub>H<sub>3</sub>F<sub>3</sub>IN",
        "Molecular Mass": "272.99",
        "Melting Point": "24-26 °C"
    }
}