{
    "cas_no": "1950-85-2",
    "key_name": "Methanesulfonothioic acid, sodium salt (1:1)",
    "cn_name": null,
    "alternate_name": "Methanesulfonothioic acid, sodium salt (1:1);Methanesulfonic acid, thio-, sodium salt;Methanesulfonothioic acid, sodium salt;Sodium methanethiosulfonate",
    "duplicated_cas_no": "1086822-91-4",
    "SMILES": "S(C)(=O)(=O)S.[Na]",
    "meta_data": {
        "InChI": "InChI=1S/CH4O2S2.Na/c1-5(2,3)4;/h1H3,(H,2,3,4);",
        "InChIKey": null,
        "Canonical SMILES": "[Na].O=S(=O)(S)C",
        "Molecular Formula": "CH<sub>4</sub>O<sub>2</sub>S<sub>2</sub>.Na",
        "Molecular Mass": "",
        "Melting Point": "273-274 °C"
    }
}