{
    "cas_no": "10349-57-2",
    "key_name": "6-Quinolinecarboxylic acid",
    "cn_name": null,
    "alternate_name": "6-Quinolinecarboxylic acid;6-Carboxyquinoline",
    "duplicated_cas_no": "",
    "SMILES": "C(O)(=O)C1=CC2=C(C=C1)N=CC=C2",
    "meta_data": {
        "InChI": "InChI=1S/C10H7NO2/c12-10(13)8-3-4-9-7(6-8)2-1-5-11-9/h1-6H,(H,12,13)",
        "InChIKey": null,
        "Canonical SMILES": "O=C(O)C1=CC=C2N=CC=CC2=C1",
        "Molecular Formula": "C<sub>10</sub>H<sub>7</sub>NO<sub>2</sub>",
        "Molecular Mass": "173.17",
        "Melting Point": "291 °C"
    }
}