{
    "cas_no": "367-93-1",
    "key_name": "Isopropyl β-<span class=\"text-smallcaps\">D</span>-thiogalactopyranoside",
    "cn_name": "异丙基-beta-D-硫代半乳糖吡喃糖苷;异丙基-beta-D-硫代半乳糖吡喃糖甙;异丙基-beta-D-硫代半乳糖苷;",
    "alternate_name": "β-<span class=\"text-smallcaps\">D</span>-Galactopyranoside, 1-methylethyl 1-thio-;Galactopyranoside, isopropyl 1-thio-, β-<span class=\"text-smallcaps\">D</span>-;Galactopyranoside, isopropyl 1-thio-;1-Methylethyl 1-thio-β-<span class=\"text-smallcaps\">D</span>-galactopyranoside;IPTG;Isopropyl β-<span class=\"text-smallcaps\">D</span>-thiogalactopyranoside;Isopropyl β-thiogalactopyranoside;Thioisopropyl β-<span class=\"text-smallcaps\">D</span>-galactopyranoside;Isopropyl thio-β-<span class=\"text-smallcaps\">D</span>-galactoside;Isopropyl 1-thio-β-<span class=\"text-smallcaps\">D</span>-galactoside;Isopropyl β-thiogalactoside;Isopropyl thio-β-<span class=\"text-smallcaps\">D</span>-galactopyranoside;Isopropyl 1-thio-β-<span class=\"text-smallcaps\">D</span>-galactopyranoside;Isopropyl-β-<span class=\"text-smallcaps\">D</span>-1-thiogalactopyranoside;1: PN: CN105175524 PAGE: 2 claimed sequence",
    "duplicated_cas_no": "30323-26-3;1044658-74-3",
    "SMILES": "S(C(C)C)[C@@H]1O[C@H](CO)[C@H](O)[C@H](O)[C@H]1O",
    "meta_data": {
        "InChI": "InChI=1S/C9H18O5S/c1-4(2)15-9-8(13)7(12)6(11)5(3-10)14-9/h4-13H,3H2,1-2H3/t5-,6+,7+,8-,9+/m1/s1",
        "InChIKey": null,
        "Canonical SMILES": "OCC1OC(SC(C)C)C(O)C(O)C1O",
        "Molecular Formula": "C<sub>9</sub>H<sub>18</sub>O<sub>5</sub>S",
        "Molecular Mass": "238.30",
        "Melting Point": "121 °C"
    }
}