{
    "cas_no": "477600-73-0",
    "key_name": "<em>N</em>-Methyl-<em>N</em>-[(3<em>R</em>,4<em>R</em>)-4-methyl-1-(phenylmethyl)-3-piperidinyl]-7<em>H</em>-pyrrolo[2,3-<em>d</em>]pyrimidin-4-amine",
    "cn_name": null,
    "alternate_name": "7<em>H</em>-Pyrrolo[2,3-<em>d</em>]pyrimidin-4-amine, <em>N</em>-methyl-<em>N</em>-[(3<em>R</em>,4<em>R</em>)-4-methyl-1-(phenylmethyl)-3-piperidinyl]-;1<em>H</em>-Pyrrolo[2,3-<em>d</em>]pyrimidin-4-amine, <em>N</em>-methyl-<em>N</em>-[(3<em>R</em>,4<em>R</em>)-4-methyl-1-(phenylmethyl)-3-piperidinyl]-;<em>N</em>-Methyl-<em>N</em>-[(3<em>R</em>,4<em>R</em>)-4-methyl-1-(phenylmethyl)-3-piperidinyl]-7<em>H</em>-pyrrolo[2,3-<em>d</em>]pyrimidin-4-amine",
    "duplicated_cas_no": "",
    "SMILES": "N(C)(C1=C2C(=NC=N1)NC=C2)[C@H]3CN(CC4=CC=CC=C4)CC[C@H]3C",
    "meta_data": {
        "InChI": "InChI=1S/C20H25N5/c1-15-9-11-25(12-16-6-4-3-5-7-16)13-18(15)24(2)20-17-8-10-21-19(17)22-14-23-20/h3-8,10,14-15,18H,9,11-13H2,1-2H3,(H,21,22,23)/t15-,18+/m1/s1",
        "InChIKey": null,
        "Canonical SMILES": "N=1C=NC(=C2C=CNC12)N(C)C3CN(CC=4C=CC=CC4)CCC3C",
        "Molecular Formula": "C<sub>20</sub>H<sub>25</sub>N<sub>5</sub>",
        "Molecular Mass": "335.45",
        "Melting Point": "67-69 °C"
    }
}