{
    "cas_no": "67564-91-4",
    "key_name": "Fenpropimorph",
    "cn_name": "顺-4-叔丁基苯基(-2-甲基丙基)-2,6-二甲基吗啉;",
    "alternate_name": "Morpholine, 4-[3-[4-(1,1-dimethylethyl)phenyl]-2-methylpropyl]-2,6-dimethyl-, (2<em>R</em>,6<em>S</em>)-<em>rel</em>-;Morpholine, 4-[3-[4-(1,1-dimethylethyl)phenyl]-2-methylpropyl]-2,6-dimethyl-, <em>cis</em>-;<em>rel</em>-(2<em>R</em>,6<em>S</em>)-4-[3-[4-(1,1-Dimethylethyl)phenyl]-2-methylpropyl]-2,6-dimethylmorpholine;BAS 42100F;Fenpropimorph;Forbel 750;Mistral;Corbel;<em>cis</em>-4-[3-(4-<em>tert</em>-Butylphenyl)-2-methylpropyl]-2,6-dimethylmorpholine;Volley 88OL",
    "duplicated_cas_no": "74545-06-5;76492-89-2;91269-52-2;95754-31-7;74545-07-6",
    "SMILES": "C(C(CN1C[C@H](C)O[C@H](C)C1)C)C2=CC=C(C(C)(C)C)C=C2",
    "meta_data": {
        "InChI": "InChI=1/C20H33NO/c1-15(12-21-13-16(2)22-17(3)14-21)11-18-7-9-19(10-8-18)20(4,5)6/h7-10,15-17H,11-14H2,1-6H3/t15?,16-,17+",
        "InChIKey": null,
        "Canonical SMILES": "O1C(C)CN(CC1C)CC(C)CC2=CC=C(C=C2)C(C)(C)C",
        "Molecular Formula": "C<sub>20</sub>H<sub>33</sub>NO",
        "Molecular Mass": "303.48",
        "Boiling Point": "&gt;300 °C",
        "Melting Point": "&lt;25 °C"
    }
}