{
    "cas_no": "5736-86-7",
    "key_name": "1-(4-Propoxyphenyl)ethanone",
    "cn_name": null,
    "alternate_name": "Ethanone, 1-(4-propoxyphenyl)-;Acetophenone, 4′-propoxy-;1-(4-Propoxyphenyl)ethanone;<em>p</em>-Propoxyacetophenone;4′-Propoxyacetophenone;NSC 91022;4-Propyloxyacetophenone;1-(4-Propoxyphenyl)ethan-1-one",
    "duplicated_cas_no": "",
    "SMILES": "C(C)(=O)C1=CC=C(OCCC)C=C1",
    "meta_data": {
        "InChI": "InChI=1S/C11H14O2/c1-3-8-13-11-6-4-10(5-7-11)9(2)12/h4-7H,3,8H2,1-2H3",
        "InChIKey": null,
        "Canonical SMILES": "O=C(C1=CC=C(OCCC)C=C1)C",
        "Molecular Formula": "C<sub>11</sub>H<sub>14</sub>O<sub>2</sub>",
        "Molecular Mass": "178.23",
        "Boiling Point": "145-148 °C @ Press: 11 Torr",
        "Melting Point": "21 °C"
    }
}