{
    "cas_no": "379270-37-8",
    "key_name": "Tenofovir alafenamide",
    "cn_name": null,
    "alternate_name": "<span class=\"text-smallcaps\">L</span>-Alanine, <em>N</em>-[(<em>S</em>)-[[(1<em>R</em>)-2-(6-amino-9<em>H</em>-purin-9-yl)-1-methylethoxy]methyl]phenoxyphosphinyl]-, 1-methylethyl ester;GS 7340;Tenofovir alafenamide;4: PN: WO2016077321 SEQID: 4 claimed sequence;Vemlidy",
    "duplicated_cas_no": "377091-31-1",
    "SMILES": "C([C@H](OCP(OC1=CC=CC=C1)(N[C@H](C(OC(C)C)=O)C)=O)C)N2C=3C(N=C2)=C(N)N=CN3",
    "meta_data": {
        "InChI": "InChI=1S/C21H29N6O5P/c1-14(2)31-21(28)16(4)26-33(29,32-17-8-6-5-7-9-17)13-30-15(3)10-27-12-25-18-19(22)23-11-24-20(18)27/h5-9,11-12,14-16H,10,13H2,1-4H3,(H,26,29)(H2,22,23,24)/t15-,16+,33+/m1/s1",
        "InChIKey": null,
        "Canonical SMILES": "O=C(OC(C)C)C(NP(=O)(OC=1C=CC=CC1)COC(C)CN2C=NC=3C(=NC=NC32)N)C",
        "Molecular Formula": "C<sub>21</sub>H<sub>29</sub>N<sub>6</sub>O<sub>5</sub>P",
        "Molecular Mass": "476.47",
        "Melting Point": "117-120 °C"
    }
}