{
    "cas_no": "502-47-6",
    "key_name": "Citronellic acid",
    "cn_name": "3,7-二甲基-6-辛烯酸;",
    "alternate_name": "6-Octenoic acid, 3,7-dimethyl-;Citronellic acid;3,7-Dimethyl-6-octenoic acid;Rhodinic acid",
    "duplicated_cas_no": "57030-77-0",
    "SMILES": "C(CCC=C(C)C)(CC(O)=O)C",
    "meta_data": {
        "InChI": "InChI=1S/C10H18O2/c1-8(2)5-4-6-9(3)7-10(11)12/h5,9H,4,6-7H2,1-3H3,(H,11,12)",
        "InChIKey": null,
        "Canonical SMILES": "O=C(O)CC(C)CCC=C(C)C",
        "Molecular Formula": "C<sub>10</sub>H<sub>18</sub>O<sub>2</sub>",
        "Molecular Mass": "170.25",
        "Boiling Point": "258 °C",
        "Density": "0.9325 g/cm³ @ Temp: 15 °C"
    }
}