{
    "cas_no": "767-05-5",
    "key_name": "Cyclopentanepropanol",
    "cn_name": "3-环戊基-1-丙醇;",
    "alternate_name": "Cyclopentanepropanol;3-Cyclopentylpropanol;γ-Cyclopentylpropanol;3-Cyclopentyl-1-propanol",
    "duplicated_cas_no": "",
    "SMILES": "C(CCO)C1CCCC1",
    "meta_data": {
        "InChI": "InChI=1S/C8H16O/c9-7-3-6-8-4-1-2-5-8/h8-9H,1-7H2",
        "InChIKey": null,
        "Canonical SMILES": "OCCCC1CCCC1",
        "Molecular Formula": "C<sub>8</sub>H<sub>16</sub>O",
        "Molecular Mass": "128.21",
        "Boiling Point": "125-127 °C @ Press: 125 Torr",
        "Density": "0.9137 g/cm³ @ Temp: 20 °C"
    }
}