{
    "cas_no": "490-11-9",
    "key_name": "Cinchomeronic acid",
    "cn_name": "3,4-吡啶二羧酸;",
    "alternate_name": "3,4-Pyridinedicarboxylic acid;Chinchomeronic acid;Cinchomeronic acid;NSC 178",
    "duplicated_cas_no": "",
    "SMILES": "C(O)(=O)C=1C(C(O)=O)=CN=CC1",
    "meta_data": {
        "InChI": "InChI=1S/C7H5NO4/c9-6(10)4-1-2-8-3-5(4)7(11)12/h1-3H,(H,9,10)(H,11,12)",
        "InChIKey": null,
        "Canonical SMILES": "O=C(O)C=1C=NC=CC1C(=O)O",
        "Molecular Formula": "C<sub>7</sub>H<sub>5</sub>NO<sub>4</sub>",
        "Molecular Mass": "167.12",
        "Melting Point": "256 °C"
    }
}