{
    "cas_no": "622-51-5",
    "key_name": "<em>N</em>-(4-Methylphenyl)urea",
    "cn_name": "对甲苯基脲;",
    "alternate_name": "Urea, <em>N</em>-(4-methylphenyl)-;Urea, <em>p</em>-tolyl-;Urea, (4-methylphenyl)-;<em>N</em>-(4-Methylphenyl)urea;<em>p</em>-Tolylcarbamide;4-Methylphenylurea;<em>p</em>-Tolylurea;4-Tolylurea;1-(4-Methylphenyl)urea;<em>p</em>-Methylphenylurea;<em>N</em>-<em>p</em>-Tolylurea;NSC 66557;1-<em>p</em>-Tolylurea",
    "duplicated_cas_no": "",
    "SMILES": "N(C(N)=O)C1=CC=C(C)C=C1",
    "meta_data": {
        "InChI": "InChI=1S/C8H10N2O/c1-6-2-4-7(5-3-6)10-8(9)11/h2-5H,1H3,(H3,9,10,11)",
        "InChIKey": null,
        "Canonical SMILES": "O=C(N)NC1=CC=C(C=C1)C",
        "Molecular Formula": "C<sub>8</sub>H<sub>10</sub>N<sub>2</sub>O",
        "Molecular Mass": "150.18",
        "Melting Point": "176 °C"
    }
}