{
    "cas_no": "27336-23-8",
    "key_name": "1,1-Dibromo-1,2,2,2-tetrafluoroethane",
    "cn_name": "1,1-二溴四氟乙烷;",
    "alternate_name": "Ethane, 1,1-dibromo-1,2,2,2-tetrafluoro-;Ethane, 1,1-dibromotetrafluoro-;1,1-Dibromo-1,2,2,2-tetrafluoroethane;1,1-Dibromotetrafluoroethane;1,1,1,2-Tetrafluoro-2,2-dibromoethane",
    "duplicated_cas_no": "",
    "SMILES": "C(C(F)(F)F)(Br)(Br)F",
    "meta_data": {
        "InChI": "InChI=1S/C2Br2F4/c3-1(4,5)2(6,7)8",
        "InChIKey": null,
        "Canonical SMILES": "FC(F)(F)C(F)(Br)Br",
        "Molecular Formula": "C<sub>2</sub>Br<sub>2</sub>F<sub>4</sub>",
        "Molecular Mass": "259.82",
        "Boiling Point": "47.5 °C",
        "Melting Point": "-111.7 °C",
        "Density": "2.75 g/cm³ @ Temp: -192 °C"
    }
}