{
    "cas_no": "214470-55-0",
    "key_name": "4-Chloro-6,7-dimethoxy-3-quinolinecarbonitrile",
    "cn_name": null,
    "alternate_name": "3-Quinolinecarbonitrile, 4-chloro-6,7-dimethoxy-;4-Chloro-6,7-dimethoxy-3-quinolinecarbonitrile;4-Chloro-3-cyano-6,7-dimethoxyquinoline",
    "duplicated_cas_no": "",
    "SMILES": "ClC=1C2=C(C=C(OC)C(OC)=C2)N=CC1C#N",
    "meta_data": {
        "InChI": "InChI=1S/C12H9ClN2O2/c1-16-10-3-8-9(4-11(10)17-2)15-6-7(5-14)12(8)13/h3-4,6H,1-2H3",
        "InChIKey": null,
        "Canonical SMILES": "N#CC1=CN=C2C=C(OC)C(OC)=CC2=C1Cl",
        "Molecular Formula": "C<sub>12</sub>H<sub>9</sub>ClN<sub>2</sub>O<sub>2</sub>",
        "Molecular Mass": "248.67",
        "Melting Point": "220-223 °C"
    }
}