{
    "cas_no": "615-84-9",
    "key_name": "<em>N</em><sup>1</sup>,<em>N</em><sup>2</sup>-Diethylethanediamide",
    "cn_name": "N,N\"-二乙基草酰胺;对称二乙基草酰胺;",
    "alternate_name": "Ethanediamide, <em>N</em><sup>1</sup>,<em>N</em><sup>2</sup>-diethyl-;Oxamide, <em>N</em>,<em>N</em>′-diethyl-;Ethanediamide, <em>N</em>,<em>N</em>′-diethyl-;<em>N</em><sup>1</sup>,<em>N</em><sup>2</sup>-Diethylethanediamide;<em>N</em>,<em>N</em>′-Diethyloxamide;<em>N</em>,<em>N</em>′-Diethyloxalamide;NSC 243629",
    "duplicated_cas_no": "",
    "SMILES": "C(C(NCC)=O)(NCC)=O",
    "meta_data": {
        "InChI": "InChI=1S/C6H12N2O2/c1-3-7-5(9)6(10)8-4-2/h3-4H2,1-2H3,(H,7,9)(H,8,10)",
        "InChIKey": null,
        "Canonical SMILES": "O=C(NCC)C(=O)NCC",
        "Molecular Formula": "C<sub>6</sub>H<sub>12</sub>N<sub>2</sub>O<sub>2</sub>",
        "Molecular Mass": "144.17",
        "Melting Point": "175 °C"
    }
}