{
    "cas_no": "128173-53-5",
    "key_name": "Butanedioic acid, 2,3-bis[(4-methylbenzoyl)oxy]-, (2<em>S</em>,3<em>S</em>)-, compd. with 4-[(1<em>S</em>)-4-(dimethylamino)-1-(4-fluorophenyl)-1-hydroxybutyl]-3-(hydroxymethyl)benzonitrile (1:2)",
    "cn_name": "D-DTTA盐;(-)-4-[4-二甲氨基-1-(4-氟苯基)-1-羟基丁基]-3-羟甲基苯腈D-(+)-二对甲苯甲酰酒石酸盐(2:1);",
    "alternate_name": "Butanedioic acid, 2,3-bis[(4-methylbenzoyl)oxy]-, (2<em>S</em>,3<em>S</em>)-, compd. with 4-[(1<em>S</em>)-4-(dimethylamino)-1-(4-fluorophenyl)-1-hydroxybutyl]-3-(hydroxymethyl)benzonitrile (1:2);Benzonitrile, 4-[4-(dimethylamino)-1-(4-fluorophenyl)-1-hydroxybutyl]-3-(hydroxymethyl)-, (<em>S</em>)-, (2<em>S</em>,3<em>S</em>)-2,3-bis[(4-methylbenzoyl)oxy]butanedioate (2:1) (salt);(1S)-4-[4-(Dimethylamino)-1-(4-fluorophenyl)-1-hydroxybutyl]-3-(hydroxymethyl)benzonitrile hemi-(+)-di(<em>p</em>-toluoyl)tartrate",
    "duplicated_cas_no": "2173060-39-2",
    "SMILES": "[C@@](CCCN(C)C)(O)(C1=C(CO)C=C(C#N)C=C1)C2=CC=C(F)C=C2.[C@@H]([C@H](OC(=O)C1=CC=C(C)C=C1)C(O)=O)(OC(=O)C2=CC=C(C)C=C2)C(O)=O",
    "meta_data": {
        "InChI": "InChI=1S/C20H23FN2O2.C20H18O8/c1-23(2)11-3-10-20(25,17-5-7-18(21)8-6-17)19-9-4-15(13-22)12-16(19)14-24;1-11-3-7-13(8-4-11)19(25)27-15(17(21)22)16(18(23)24)28-20(26)14-9-5-12(2)6-10-14/h4-9,12,24-25H,3,10-11,14H2,1-2H3;3-10,15-16H,1-2H3,(H,21,22)(H,23,24)/t20-;15-,16-/m00/s1",
        "InChIKey": null,
        "Canonical SMILES": "N#CC1=CC=C(C(=C1)CO)C(O)(C2=CC=C(F)C=C2)CCCN(C)C.O=C(O)C(OC(=O)C1=CC=C(C=C1)C)C(OC(=O)C2=CC=C(C=C2)C)C(=O)O",
        "Molecular Formula": "C<sub>20</sub>H<sub>23</sub>FN<sub>2</sub>O<sub>2</sub>.<sup>1</sup>/<sub>2</sub>C<sub>20</sub>H<sub>18</sub>O<sub>8</sub>",
        "Molecular Mass": "",
        "Melting Point": "134-135 °C"
    }
}