{
    "cas_no": "431-49-2",
    "key_name": "2-Bromo-1,1,3,3,3-pentafluoro-1-propene",
    "cn_name": null,
    "alternate_name": "1-Propene, 2-bromo-1,1,3,3,3-pentafluoro-;2-Bromo-1,1,3,3,3-pentafluoro-1-propene;2-Bromoperfluoropropene;2-Bromopentafluoropropene",
    "duplicated_cas_no": "",
    "SMILES": "C(C(F)(F)F)(=C(F)F)Br",
    "meta_data": {
        "InChI": "InChI=1S/C3BrF5/c4-1(2(5)6)3(7,8)9",
        "InChIKey": null,
        "Canonical SMILES": "FC(F)=C(Br)C(F)(F)F",
        "Molecular Formula": "C<sub>3</sub>BrF<sub>5</sub>",
        "Molecular Mass": "210.93",
        "Boiling Point": "26-28 °C @ Press: 760 Torr"
    }
}