{
    "cas_no": "130-49-4",
    "key_name": "Adenosine 2′-phosphate",
    "cn_name": "腺苷酸2(3)-磷酸;",
    "alternate_name": "2′-Adenylic acid;2′-AMP;Adenosine 2′-phosphate;Adenosine 2′-monophosphate;Adenosine 2′-(dihydrogen phosphate)",
    "duplicated_cas_no": "27082-34-4;293738-05-3",
    "SMILES": "O(P(=O)(O)O)[C@H]1[C@@H](O[C@H](CO)[C@H]1O)N2C=3C(N=C2)=C(N)N=CN3",
    "meta_data": {
        "InChI": "InChI=1S/C10H14N5O7P/c11-8-5-9(13-2-12-8)15(3-14-5)10-7(22-23(18,19)20)6(17)4(1-16)21-10/h2-4,6-7,10,16-17H,1H2,(H2,11,12,13)(H2,18,19,20)/t4-,6-,7-,10-/m1/s1",
        "InChIKey": null,
        "Canonical SMILES": "O=P(O)(O)OC1C(O)C(OC1N2C=NC=3C(=NC=NC32)N)CO",
        "Molecular Formula": "C<sub>10</sub>H<sub>14</sub>N<sub>5</sub>O<sub>7</sub>P",
        "Molecular Mass": "347.22",
        "Melting Point": "183 °C"
    }
}