{
    "cas_no": "694-83-7",
    "key_name": "1,2-Diaminocyclohexane",
    "cn_name": "1,2-二氨基环己烷;1,2-环己二胺;",
    "alternate_name": "1,2-Cyclohexanediamine;1,2-Diaminocyclohexane;Dytek DCH 99;DHC 99;DCH 99;Resoltech 1805;1,2-Cyclohexanediamine, (1<em>R</em>)-",
    "duplicated_cas_no": "1363165-88-1;1370087-37-8;1375963-84-0;1379448-80-2;1426155-73-8;1562666-14-1;2102731-79-1;2508236-44-8;2925366-84-1",
    "SMILES": "NC1C(N)CCCC1",
    "meta_data": {
        "InChI": "InChI=1S/C6H14N2/c7-5-3-1-2-4-6(5)8/h5-6H,1-4,7-8H2",
        "InChIKey": null,
        "Canonical SMILES": "NC1CCCCC1N",
        "Molecular Formula": "C<sub>6</sub>H<sub>14</sub>N<sub>2</sub>",
        "Molecular Mass": "114.19",
        "Boiling Point": "79-81 °C @ Press: 15 Torr",
        "Density": "0.931 g/cm³ @ Temp: 25 °C"
    }
}