{
    "cas_no": "7473-38-3",
    "key_name": "Phenylmethyl β-<span class=\"text-smallcaps\">L</span>-arabinopyranoside",
    "cn_name": null,
    "alternate_name": "β-<span class=\"text-smallcaps\">L</span>-Arabinopyranoside, phenylmethyl;Arabinopyranoside, benzyl, β-<span class=\"text-smallcaps\">L</span>-;Phenylmethyl β-<span class=\"text-smallcaps\">L</span>-arabinopyranoside;Benzyl β-<span class=\"text-smallcaps\">L</span>-arabinopyranoside;NSC 400277",
    "duplicated_cas_no": "",
    "SMILES": "O(CC1=CC=CC=C1)[C@@H]2[C@H](O)[C@@H](O)[C@@H](O)CO2",
    "meta_data": {
        "InChI": "InChI=1S/C12H16O5/c13-9-7-17-12(11(15)10(9)14)16-6-8-4-2-1-3-5-8/h1-5,9-15H,6-7H2/t9-,10-,11+,12-/m0/s1",
        "InChIKey": null,
        "Canonical SMILES": "OC1COC(OCC=2C=CC=CC2)C(O)C1O",
        "Molecular Formula": "C<sub>12</sub>H<sub>16</sub>O<sub>5</sub>",
        "Molecular Mass": "240.25",
        "Melting Point": "172-173 °C"
    }
}