{
    "cas_no": "56-24-6",
    "key_name": "Stannane, hydroxytrimethyl-",
    "cn_name": "三甲基氢氧化锡;",
    "alternate_name": "Stannane, hydroxytrimethyl-;Trimethyltin hydroxide;Tin, hydroxytrimethyl-;Hydroxytrimethyltin;Hydroxytrimethylstannane;Trimethylstannanol;Trimethylhydroxytin;Trimethylstannyl hydroxide",
    "duplicated_cas_no": "12347-73-8",
    "SMILES": "[Sn](C)(C)(C)O",
    "meta_data": {
        "InChI": "InChI=1S/3CH3.H2O.Sn/h3*1H3;1H2;/q;;;;+1/p-1",
        "InChIKey": null,
        "Canonical SMILES": "O[Sn](C)(C)C",
        "Molecular Formula": "C<sub>3</sub>H<sub>10</sub>OSn",
        "Molecular Mass": "180.82",
        "Melting Point": "118 °C (sublm)"
    }
}