{
    "cas_no": "2627-97-6",
    "key_name": "1,3-Diethenyl-1,3-dimethyl-1,3-diphenyldisiloxane",
    "cn_name": null,
    "alternate_name": "Disiloxane, 1,3-diethenyl-1,3-dimethyl-1,3-diphenyl-;Disiloxane, 1,3-dimethyl-1,3-diphenyl-1,3-divinyl-;1,3-Diethenyl-1,3-dimethyl-1,3-diphenyldisiloxane;1,3-Divinyl-1,3-diphenyl-1,3-dimethyldisiloxane;1,3-Divinyl-1,3-diphenyldimethyldisiloxane;1,3-Dimethyl-1,3-diphenyl-1,3-divinyldisiloxane;1,3-Divinyl-1,3-dimethyl-1,3-diphenyldisiloxane",
    "duplicated_cas_no": "",
    "SMILES": "[Si](O[Si](C=C)(C)C1=CC=CC=C1)(C=C)(C)C2=CC=CC=C2",
    "meta_data": {
        "InChI": "InChI=1S/C18H22OSi2/c1-5-20(3,17-13-9-7-10-14-17)19-21(4,6-2)18-15-11-8-12-16-18/h5-16H,1-2H2,3-4H3",
        "InChIKey": null,
        "Canonical SMILES": "O([Si](C=C)(C=1C=CC=CC1)C)[Si](C=C)(C=2C=CC=CC2)C",
        "Molecular Formula": "C<sub>18</sub>H<sub>22</sub>OSi<sub>2</sub>",
        "Molecular Mass": "310.54",
        "Boiling Point": "160 °C @ Press: 6 Torr",
        "Density": "0.995 g/cm³ @ Temp: 25 °C"
    }
}