{
    "cas_no": "595-40-4",
    "key_name": "Isovaline",
    "cn_name": "L-异缬氨酸;(S)-2-氨基-2-甲基丁酸;",
    "alternate_name": "<span class=\"text-smallcaps\">L</span>-Isovaline;Isovaline, <span class=\"text-smallcaps\">L</span>-;Butanoic acid, 2-amino-2-methyl-, (<em>S</em>)-;Isovaline;α-Methyl-<span class=\"text-smallcaps\">L</span>-α-aminobutyric acid;(<em>S</em>)-2-Amino-2-methylbutanoic acid;(+)-Isovaline;NSC 1019;(2S)-2-Amino-2-methylbutanoic acid",
    "duplicated_cas_no": "",
    "SMILES": "[C@@](C(O)=O)(CC)(C)N",
    "meta_data": {
        "InChI": "InChI=1S/C5H11NO2/c1-3-5(2,6)4(7)8/h3,6H2,1-2H3,(H,7,8)/t5-/m0/s1",
        "InChIKey": null,
        "Canonical SMILES": "O=C(O)C(N)(C)CC",
        "Molecular Formula": "C<sub>5</sub>H<sub>11</sub>NO<sub>2</sub>",
        "Molecular Mass": "117.15",
        "Melting Point": "&gt;260 °C"
    }
}