{
    "cas_no": "1522-46-9",
    "key_name": "Butanoic acid, 2-acetyl-3-methyl-, ethyl ester",
    "cn_name": "2-异丙基乙酰乙酸乙酯;2-乙酰基-3-甲基丁酸乙酯;",
    "alternate_name": "Butanoic acid, 2-acetyl-3-methyl-, ethyl ester;Acetoacetic acid, 2-isopropyl-, ethyl ester;Isovaleric acid, α-acetyl-, Et ester;Ethyl α-isopropylacetoacetate;Ethyl 2-isopropylacetoacetate;Ethyl 2-acetyl-3-methylbutanoate;NSC 18754;NSC 25315;NSC 54978;2-Isopropyl-3-oxobutanoic acid ethyl ester;2-Acetyl-3-methylbutyric acid ethyl ester;2-Isopropyl-3-oxo-butyric acid ethyl ester",
    "duplicated_cas_no": "152548-74-8",
    "SMILES": "C(C(OCC)=O)(C(C)C)C(C)=O",
    "meta_data": {
        "InChI": "InChI=1S/C9H16O3/c1-5-12-9(11)8(6(2)3)7(4)10/h6,8H,5H2,1-4H3",
        "InChIKey": null,
        "Canonical SMILES": "O=C(OCC)C(C(=O)C)C(C)C",
        "Molecular Formula": "C<sub>9</sub>H<sub>16</sub>O<sub>3</sub>",
        "Molecular Mass": "172.22",
        "Boiling Point": "201 °C"
    }
}