{
    "cas_no": "1072-84-0",
    "key_name": "1<em>H</em>-Imidazole-5-carboxylic acid",
    "cn_name": "1H-咪唑-4-甲酸;",
    "alternate_name": "1<em>H</em>-Imidazole-5-carboxylic acid;Imidazole-4-carboxylic acid;1<em>H</em>-Imidazole-4-carboxylic acid;Imidazole-4(<em>or</em> 5)-carboxylic acid;4-Carboxyimidazole;Imidazole-5-carboxylic acid;NSC 32340;1<em>H</em>-Imidazol-3-ium-4-carboxylate",
    "duplicated_cas_no": "",
    "SMILES": "C(O)(=O)C1=CN=CN1",
    "meta_data": {
        "InChI": "InChI=1S/C4H4N2O2/c7-4(8)3-1-5-2-6-3/h1-2H,(H,5,6)(H,7,8)",
        "InChIKey": null,
        "Canonical SMILES": "O=C(O)C1=CN=CN1",
        "Molecular Formula": "C<sub>4</sub>H<sub>4</sub>N<sub>2</sub>O<sub>2</sub>",
        "Molecular Mass": "112.09",
        "Melting Point": "275 °C"
    }
}