{
    "cas_no": "75-09-2",
    "key_name": "Dichloromethane",
    "cn_name": "二氯甲烷;",
    "alternate_name": "Methane, dichloro-;Dichloromethane;Methylene chloride;Methylene dichloride;Solaesthin;Aerothene MM;Freon 30;Narkotil;Solmethine;R 30 (refrigerant);Methane dichloride;R 30;HCC 30;Khladon 30;Soleana VDA;F 30;F 30 (chlorocarbon);Metaclen;NSC 406122;DCM;Methaclean U;A 3000;MeSH ID: D008752",
    "duplicated_cas_no": "1173020-57-9",
    "SMILES": "C(Cl)Cl",
    "meta_data": {
        "InChI": "InChI=1S/CH2Cl2/c2-1-3/h1H2",
        "InChIKey": null,
        "Canonical SMILES": "ClCCl",
        "Molecular Formula": "CH<sub>2</sub>Cl<sub>2</sub>",
        "Molecular Mass": "84.93",
        "Boiling Point": "39.75 °C @ Press: 760 Torr",
        "Melting Point": "-95 °C",
        "Density": "1.3255 g/cm³ @ Temp: 20 °C"
    }
}