{
    "cas_no": "6195-20-6",
    "key_name": "Benzoic acid, 3-amino-4-chloro-, dodecyl ester",
    "cn_name": "3-氨基-4-氯苯甲酸十二烷酯;",
    "alternate_name": "Benzoic acid, 3-amino-4-chloro-, dodecyl ester;Dodecyl 3-amino-4-chlorobenzoate;2-Chloro-5-(dodecyloxycarbonyl)aniline;3-Amino-4-chlorobenzoic acid dodecyl ester",
    "duplicated_cas_no": "",
    "SMILES": "C(OCCCCCCCCCCCC)(=O)C1=CC(N)=C(Cl)C=C1",
    "meta_data": {
        "InChI": "InChI=1S/C19H30ClNO2/c1-2-3-4-5-6-7-8-9-10-11-14-23-19(22)16-12-13-17(20)18(21)15-16/h12-13,15H,2-11,14,21H2,1H3",
        "InChIKey": null,
        "Canonical SMILES": "O=C(OCCCCCCCCCCCC)C1=CC=C(Cl)C(N)=C1",
        "Molecular Formula": "C<sub>19</sub>H<sub>30</sub>ClNO<sub>2</sub>",
        "Molecular Mass": "339.90",
        "Melting Point": "60-62 °C"
    }
}