{
    "cas_no": "2627-35-2",
    "key_name": "Monolauryl phosphate",
    "cn_name": null,
    "alternate_name": "Phosphoric acid, monododecyl ester;Dodecyl phosphate ((C<sub>12</sub>H<sub>25</sub>O)(HO)<sub>2</sub>PO);Dodecyl acid phosphate;Monolauryl phosphate;Monododecyl phosphate;Dihydrogen monolauryl phosphate;Dodecyl dihydrogen phosphate;Phosphoric acid monolauryl ester;Mono-<em>n</em>-dodecyl phosphate;<em>n</em>-Dodecyl phosphate;Lauryl dihydrogen phosphate;LauP;<em>n</em>-Dodecanyl phosphate;Miphos ML;NSC 41919;Ethfac 102;Nikkol Phosten HLP;Phosten HLP;FAP 12",
    "duplicated_cas_no": "",
    "SMILES": "C(CCCCCCCCCC)COP(=O)(O)O",
    "meta_data": {
        "InChI": "InChI=1S/C12H27O4P/c1-2-3-4-5-6-7-8-9-10-11-12-16-17(13,14)15/h2-12H2,1H3,(H2,13,14,15)",
        "InChIKey": null,
        "Canonical SMILES": "O=P(O)(O)OCCCCCCCCCCCC",
        "Molecular Formula": "C<sub>12</sub>H<sub>27</sub>O<sub>4</sub>P",
        "Molecular Mass": "266.31",
        "Melting Point": "68-70 °C"
    }
}