{
    "cas_no": "81-83-4",
    "key_name": "Naphthalimide",
    "cn_name": "萘亚胺;1,8-萘二甲酰亚胺;",
    "alternate_name": "1<em>H</em>-Benz[<em>de</em>]isoquinoline-1,3(2<em>H</em>)-dione;Naphthalimide;1,8-Naphthalenedicarboximide;1,8-Naphthalenedicarboxylic acid imide;1,8-Naphthalimide;NSC 11011;1,8-Naphthaleneimide;Benzo[<em>de</em>]isoquinoline-1,3-dione",
    "duplicated_cas_no": "",
    "SMILES": "O=C1C=2C=3C(C(=O)N1)=CC=CC3C=CC2",
    "meta_data": {
        "InChI": "InChI=1S/C12H7NO2/c14-11-8-5-1-3-7-4-2-6-9(10(7)8)12(15)13-11/h1-6H,(H,13,14,15)",
        "InChIKey": null,
        "Canonical SMILES": "O=C1NC(=O)C2=CC=CC3=CC=CC1=C32",
        "Molecular Formula": "C<sub>12</sub>H<sub>7</sub>NO<sub>2</sub>",
        "Molecular Mass": "197.19",
        "Melting Point": "287 °C"
    }
}