{
    "cas_no": "28822-58-4",
    "key_name": "3-Isobutyl-1-methylxanthine",
    "cn_name": "3-异丁基-1-甲基黄嘌呤;IBMX, 3-异丁基-1-甲基黄嘌呤;3-异丁基-1-甲基黄嘌呤;1-甲基-3-异丁基黄嘌呤;",
    "alternate_name": "1<em>H</em>-Purine-2,6-dione, 3,9-dihydro-1-methyl-3-(2-methylpropyl)-;Xanthine, 3-isobutyl-1-methyl-;1<em>H</em>-Purine-2,6-dione, 3,7-dihydro-1-methyl-3-(2-methylpropyl)-;3,9-Dihydro-1-methyl-3-(2-methylpropyl)-1<em>H</em>-purine-2,6-dione;1-Methyl-3-isobutylxanthine;3-Isobutyl-1-methylxanthine;Isobutylmethylxanthine;SC 2964;IBMX;Methylisobutylxanthine;IMX;NSC 165960;1-Methyl-3-(2-methylpropyl)-2,3,6,9-tetrahydro-1<em>H</em>-purine-2,6-dione;3-Isobutyl-1-methyl-1<em>H</em>-purine-2,6(3<em>H</em>,7<em>H</em>)-dione;3-Isobutyl-1-methyl-3,7-dihydro-1<em>H</em>-purine-2,6-dione;MeSH ID: D015056",
    "duplicated_cas_no": "",
    "SMILES": "C(C(C)C)N1C2=C(C(=O)N(C)C1=O)NC=N2",
    "meta_data": {
        "InChI": "InChI=1S/C10H14N4O2/c1-6(2)4-14-8-7(11-5-12-8)9(15)13(3)10(14)16/h5-6H,4H2,1-3H3,(H,11,12)",
        "InChIKey": null,
        "Canonical SMILES": "O=C1C=2NC=NC2N(C(=O)N1C)CC(C)C",
        "Molecular Formula": "C<sub>10</sub>H<sub>14</sub>N<sub>4</sub>O<sub>2</sub>",
        "Molecular Mass": "222.24",
        "Melting Point": "200-201 °C"
    }
}