{
    "cas_no": "60207-31-0",
    "key_name": "Azaconazole",
    "cn_name": "氧环唑;戊环唑;1-[[2-(2,4-二氯苯基)-1,3-二氧环戊-2-基]甲基]-1,2,4-三唑;",
    "alternate_name": "1<em>H</em>-1,2,4-Triazole, 1-[[2-(2,4-dichlorophenyl)-1,3-dioxolan-2-yl]methyl]-;1-[[2-(2,4-Dichlorophenyl)-1,3-dioxolan-2-yl]methyl]-1<em>H</em>-1,2,4-triazole;Azoconazole;Azaconazole;Madurox;R 28644;Rodewod",
    "duplicated_cas_no": "58694-48-7;1135441-32-5",
    "SMILES": "C(C1(OCCO1)C2=C(Cl)C=C(Cl)C=C2)N3C=NC=N3",
    "meta_data": {
        "InChI": "InChI=1S/C12H11Cl2N3O2/c13-9-1-2-10(11(14)5-9)12(18-3-4-19-12)6-17-8-15-7-16-17/h1-2,5,7-8H,3-4,6H2",
        "InChIKey": null,
        "Canonical SMILES": "ClC1=CC=C(C(Cl)=C1)C2(OCCO2)CN3N=CN=C3",
        "Molecular Formula": "C<sub>12</sub>H<sub>11</sub>Cl<sub>2</sub>N<sub>3</sub>O<sub>2</sub>",
        "Molecular Mass": "300.14",
        "Melting Point": "112.6 °C"
    }
}