{
    "cas_no": "619-41-0",
    "key_name": "4-Methylphenacyl bromide",
    "cn_name": "2-溴-4\"-甲基苯乙酮;",
    "alternate_name": "Ethanone, 2-bromo-1-(4-methylphenyl)-;Acetophenone, 2-bromo-4′-methyl-;2-Bromo-1-(4-methylphenyl)ethanone;2-Bromo-4′-methylacetophenone;4-Methylphenacyl bromide;<em>p</em>-Methylphenacyl bromide;2-Bromo-<em>p</em>-methylacetophenone;<em>p</em>-Methyl-ω-bromoacetophenone;α-Bromo-<em>p</em>-methylacetophenone;<em>p</em>-Methyl-α-bromoacetophenone;ω-Bromo-<em>p</em>-methylacetophenone;α-Bromo-4′-methylacetophenone;4′-Methyl-2-bromoacetophenone;Bromomethyl <em>p</em>-tolyl ketone;4-Methyl-α-bromoacetophenone;2-Bromo-1-(4-tolyl)ethanone;2-Bromo-1-(4-methylphenyl)ethan-1-one;NSC 63192;Bromomethyl 4-methylphenyl ketone;2-Bromo-1-(<em>p</em>-tolyl)ethanone;2-Bromo-1-(<em>p</em>-methylphenyl)ethanone;2-Bromo-1-(<em>p</em>-tolyl)ethan-1-one",
    "duplicated_cas_no": "",
    "SMILES": "C(CBr)(=O)C1=CC=C(C)C=C1",
    "meta_data": {
        "InChI": "InChI=1S/C9H9BrO/c1-7-2-4-8(5-3-7)9(11)6-10/h2-5H,6H2,1H3",
        "InChIKey": null,
        "Canonical SMILES": "O=C(C1=CC=C(C=C1)C)CBr",
        "Molecular Formula": "C<sub>9</sub>H<sub>9</sub>BrO",
        "Molecular Mass": "213.07",
        "Boiling Point": "105 °C @ Press: 0.1 Torr",
        "Melting Point": "51 °C"
    }
}