{
    "cas_no": "327-98-0",
    "key_name": "Trichloronate",
    "cn_name": null,
    "alternate_name": "Phosphonothioic acid, ethyl-, <em>O</em>-ethyl <em>O</em>-(2,4,5-trichlorophenyl) ester;S 4400;5082A;BAY 37289;Bayer S 4400;Chemagro 37289;<em>O</em>-Ethyl <em>O</em>-2,4,5-trichlorophenyl ethylphosphonothioate;Trichloronate;Trichloronat;Agritox;Bayer 37289;Bayer 5081;ENT-25712;Fitosol;Phytosol;Richloronate;(±)-Trichloronate",
    "duplicated_cas_no": "",
    "SMILES": "O(P(OCC)(CC)=S)C1=C(Cl)C=C(Cl)C(Cl)=C1",
    "meta_data": {
        "InChI": "InChI=1S/C10H12Cl3O2PS/c1-3-14-16(17,4-2)15-10-6-8(12)7(11)5-9(10)13/h5-6H,3-4H2,1-2H3",
        "InChIKey": null,
        "Canonical SMILES": "S=P(OC1=CC(Cl)=C(Cl)C=C1Cl)(OCC)CC",
        "Molecular Formula": "C<sub>10</sub>H<sub>12</sub>Cl<sub>3</sub>O<sub>2</sub>PS",
        "Molecular Mass": "333.60",
        "Boiling Point": "108 °C @ Press: 0.01 Torr",
        "Density": "1.365 g/cm³ @ Temp: 20 °C"
    }
}