{
    "cas_no": "13248-54-9",
    "key_name": "Cyclohexyl carbonochloridate",
    "cn_name": "氯甲酸环己酯;",
    "alternate_name": "Carbonochloridic acid, cyclohexyl ester;Formic acid, chloro-, cyclohexyl ester;Cyclohexyl carbonochloridate;Chloroformic acid cyclohexyl ester;Cyclohexyl chloroformate;(Cyclohexyloxy)carbonyl chloride",
    "duplicated_cas_no": "",
    "SMILES": "O(C(Cl)=O)C1CCCCC1",
    "meta_data": {
        "InChI": "InChI=1S/C7H11ClO2/c8-7(9)10-6-4-2-1-3-5-6/h6H,1-5H2",
        "InChIKey": null,
        "Canonical SMILES": "O=C(Cl)OC1CCCCC1",
        "Molecular Formula": "C<sub>7</sub>H<sub>11</sub>ClO<sub>2</sub>",
        "Molecular Mass": "162.61",
        "Boiling Point": "78-83 °C @ Press: 12 Torr"
    }
}