{
    "cas_no": "39741-91-8",
    "key_name": "Methanaminium, 1-iodo-<em>N</em>,<em>N</em>,<em>N</em>-trimethyl-, iodide (1:1)",
    "cn_name": "(碘甲基)三甲基碘化铵;",
    "alternate_name": "Methanaminium, 1-iodo-<em>N</em>,<em>N</em>,<em>N</em>-trimethyl-, iodide (1:1);Methanaminium, 1-iodo-<em>N</em>,<em>N</em>,<em>N</em>-trimethyl-, iodide;(Iodomethyl)trimethylammonium iodide",
    "duplicated_cas_no": "",
    "SMILES": "[N+](CI)(C)(C)C.[I-]",
    "meta_data": {
        "InChI": "InChI=1S/C4H11IN.HI/c1-6(2,3)4-5;/h4H2,1-3H3;1H/q+1;/p-1",
        "InChIKey": null,
        "Canonical SMILES": "[I-].IC[N+](C)(C)C",
        "Molecular Formula": "C<sub>4</sub>H<sub>11</sub>IN.I",
        "Molecular Mass": "",
        "Melting Point": "228-229 °C (decomp)"
    }
}