{
    "cas_no": "935-44-4",
    "key_name": "1-Phenylcyclopropanecarbonitrile",
    "cn_name": "1-苯基-1-环丙烷腈;1-苯基环丙基甲腈;",
    "alternate_name": "Cyclopropanecarbonitrile, 1-phenyl-;1-Phenylcyclopropanecarbonitrile;1-Phenylcyclopropanenitrile;1-Phenyl-1-cyclopropanecarbonitrile;1-Phenylcyclopropyl cyanide;1-Cyano-1-phenylcyclopropane;NSC 126430",
    "duplicated_cas_no": "",
    "SMILES": "C(#N)C1(CC1)C2=CC=CC=C2",
    "meta_data": {
        "InChI": "InChI=1S/C10H9N/c11-8-10(6-7-10)9-4-2-1-3-5-9/h1-5H,6-7H2",
        "InChIKey": null,
        "Canonical SMILES": "N#CC1(C=2C=CC=CC2)CC1",
        "Molecular Formula": "C<sub>10</sub>H<sub>9</sub>N",
        "Molecular Mass": "143.19",
        "Boiling Point": "98-100 °C @ Press: 1 Torr",
        "Density": "1.0156 g/cm³ @ Temp: 4 °C"
    }
}