{
    "cas_no": "5346-38-3",
    "key_name": "2-Pyridinecarbothioamide",
    "cn_name": "吡啶-2-羧硫酸胺;吡啶-2-羧硫酸胺;",
    "alternate_name": "2-Pyridinecarbothioamide;Picolinamide, thio-;Picolinic acid thioamide;Picolinothioamide;Thiopicolinamide;Thio-2-pyridinecarboxamide;2-Thiocarbamoylpyridine;2-Thiopicolinamide;Pyridine-2-thioamide;NSC 1606;Pyridine-2-thiocarboxamide;Pyridine-2-carbothioic acid amide",
    "duplicated_cas_no": "",
    "SMILES": "C(N)(=S)C1=CC=CC=N1",
    "meta_data": {
        "InChI": "InChI=1S/C6H6N2S/c7-6(9)5-3-1-2-4-8-5/h1-4H,(H2,7,9)",
        "InChIKey": null,
        "Canonical SMILES": "S=C(N)C1=NC=CC=C1",
        "Molecular Formula": "C<sub>6</sub>H<sub>6</sub>N<sub>2</sub>S",
        "Molecular Mass": "138.19",
        "Melting Point": "137 °C"
    }
}