{
    "cas_no": "88149-94-4",
    "key_name": "5-Bromo-2-(4-fluorophenyl)-3-[4-(methylsulfonyl)phenyl]thiophene",
    "cn_name": null,
    "alternate_name": "Thiophene, 5-bromo-2-(4-fluorophenyl)-3-[4-(methylsulfonyl)phenyl]-;5-Bromo-2-(4-fluorophenyl)-3-[4-(methylsulfonyl)phenyl]thiophene;DuP 697",
    "duplicated_cas_no": "",
    "SMILES": "BrC1=CC(=C(S1)C2=CC=C(F)C=C2)C3=CC=C(S(C)(=O)=O)C=C3",
    "meta_data": {
        "InChI": "InChI=1S/C17H12BrFO2S2/c1-23(20,21)14-8-4-11(5-9-14)15-10-16(18)22-17(15)12-2-6-13(19)7-3-12/h2-10H,1H3",
        "InChIKey": null,
        "Canonical SMILES": "O=S(=O)(C1=CC=C(C=C1)C=2C=C(Br)SC2C=3C=CC(F)=CC3)C",
        "Molecular Formula": "C<sub>17</sub>H<sub>12</sub>BrFO<sub>2</sub>S<sub>2</sub>",
        "Molecular Mass": "411.31",
        "Melting Point": "129-131 °C"
    }
}