{
    "cas_no": "85-91-6",
    "key_name": "Methyl <em>N</em>-methylanthranilate",
    "cn_name": "2-(甲氨基)苯甲酸甲酯;N-甲基邻氨基苯甲酸甲酯;邻甲氨基苯甲酸甲酯;",
    "alternate_name": "Benzoic acid, 2-(methylamino)-, methyl ester;Anthranilic acid, <em>N</em>-methyl-, methyl ester;Methyl methylanthranilate;Methyl methanthranilate;Methyl <em>N</em>-methylanthranilate;<em>N</em>-Methylanthranilic acid methyl ester;Methyl <em>o</em>-(methylamino)benzoate;Methyl 2-(methylamino)benzoate;2-(Methylamino)benzoic acid methyl ester;NSC 9406;Dimethyl anthranilate",
    "duplicated_cas_no": "",
    "SMILES": "C(OC)(=O)C1=C(NC)C=CC=C1",
    "meta_data": {
        "InChI": "InChI=1S/C9H11NO2/c1-10-8-6-4-3-5-7(8)9(11)12-2/h3-6,10H,1-2H3",
        "InChIKey": null,
        "Canonical SMILES": "O=C(OC)C=1C=CC=CC1NC",
        "Molecular Formula": "C<sub>9</sub>H<sub>11</sub>NO<sub>2</sub>",
        "Molecular Mass": "165.19",
        "Boiling Point": "256 °C @ Press: 760 Torr",
        "Melting Point": "18.5-19.5 °C",
        "Density": "1.120 g/cm³ @ Temp: 15 °C"
    }
}