{
    "cas_no": "6337-43-5",
    "key_name": "1,1′,3,3′-Tetraethyl 2,2′-(1,4-phenylenedimethylidyne)bis[propanedioate]",
    "cn_name": null,
    "alternate_name": "Propanedioic acid, 2,2′-(1,4-phenylenedimethylidyne)bis-, 1,1′,3,3′-tetraethyl ester;Malonic acid, (<em>p</em>-phenylenedimethylidyne)di-, tetraethyl ester;Propanedioic acid, 2,2′-(1,4-phenylenedimethylidyne)bis-, tetraethyl ester;1,1′,3,3′-Tetraethyl 2,2′-(1,4-phenylenedimethylidyne)bis[propanedioate];<em>p</em>-Phenylenebis(methylenemalonic acid) tetraethyl ester;NSC 38065;Hostavin B-CAP;B-CAP;Eversorb 320",
    "duplicated_cas_no": "877214-55-6",
    "SMILES": "C(=CC1=CC=C(C=C(C(OCC)=O)C(OCC)=O)C=C1)(C(OCC)=O)C(OCC)=O",
    "meta_data": {
        "InChI": "InChI=1S/C22H26O8/c1-5-27-19(23)17(20(24)28-6-2)13-15-9-11-16(12-10-15)14-18(21(25)29-7-3)22(26)30-8-4/h9-14H,5-8H2,1-4H3",
        "InChIKey": null,
        "Canonical SMILES": "O=C(OCC)C(=CC1=CC=C(C=C1)C=C(C(=O)OCC)C(=O)OCC)C(=O)OCC",
        "Molecular Formula": "C<sub>22</sub>H<sub>26</sub>O<sub>8</sub>",
        "Molecular Mass": "418.44",
        "Melting Point": "136-137 °C"
    }
}