{
    "cas_no": "68189-23-1",
    "key_name": "4-(Diethylamino)benzaldehyde 2,2-diphenylhydrazone",
    "cn_name": null,
    "alternate_name": "Benzaldehyde, 4-(diethylamino)-, 2,2-diphenylhydrazone;Benzaldehyde, 4-(diethylamino)-, diphenylhydrazone;4-(Diethylamino)benzaldehyde 2,2-diphenylhydrazone;DEH;<em>p</em>-(Diethylamino)benzaldehyde 1,1-diphenylhydrazone;<em>p</em>-(Diethylamino)benzaldehyde diphenylhydrazone;4-(Diethylamino)benzaldehyde diphenylhydrazone;ABPH;CTC 236;4-(Diethylamino)benzaldehyde <em>N</em>,<em>N</em>-diphenylhydrazone;4-(Diethylamino)phenyl <em>N</em>,<em>N</em>-diphenylhydrazone",
    "duplicated_cas_no": "98084-67-4;115803-69-5",
    "SMILES": "N(N=CC1=CC=C(N(CC)CC)C=C1)(C2=CC=CC=C2)C3=CC=CC=C3",
    "meta_data": {
        "InChI": "InChI=1S/C23H25N3/c1-3-25(4-2)21-17-15-20(16-18-21)19-24-26(22-11-7-5-8-12-22)23-13-9-6-10-14-23/h5-19H,3-4H2,1-2H3",
        "InChIKey": null,
        "Canonical SMILES": "N(=CC1=CC=C(C=C1)N(CC)CC)N(C=2C=CC=CC2)C=3C=CC=CC3",
        "Molecular Formula": "C<sub>23</sub>H<sub>25</sub>N<sub>3</sub>",
        "Molecular Mass": "343.46",
        "Melting Point": "94 °C"
    }
}