{
    "cas_no": "1314-62-1",
    "key_name": "Vanadium oxide (V<sub>2</sub>O<sub>5</sub>)",
    "cn_name": "五氧化二钒;",
    "alternate_name": "Vanadium oxide (V<sub>2</sub>O<sub>5</sub>);C.I. 77938;Vanadic anhydride;Vanadium pentoxide;Divanadium pentoxide;Divanadium pentaoxide;Vanadium oxide;Vanadia;Pentaoxodivanadium;Vanadium(V) oxide;Vanadium oxide (V<sub>4</sub>O<sub>10</sub>);VT 1;VT 1 (colorant);Vanadium oxide (VO<sub>2.5</sub>);Red vanadium",
    "duplicated_cas_no": "12503-98-9;56870-07-6;87854-55-5;87854-56-6;166165-37-3;172928-47-1;184892-22-6;200577-85-1;203812-34-4;251927-12-5;410546-90-6;581075-33-4;828264-64-8;854372-97-7;857777-38-9;863639-26-3;934750-46-6;1408062-28-1;2142684-30-6",
    "SMILES": "",
    "meta_data": {
        "InChI": "",
        "InChIKey": null,
        "Canonical SMILES": "",
        "Molecular Formula": "O<sub>5</sub>V<sub>2</sub>",
        "Molecular Mass": "",
        "Melting Point": "690 °C",
        "Density": "3.357 g/cm³ @ Temp: 18 °C"
    }
}