{
    "uri": "substance/pt/1314621",
    "rn": "1314-62-1",
    "name": "Vanadium oxide (V<sub>2</sub>O<sub>5</sub>)",
    "images": [],
    "inchi": "",
    "inchiKey": "",
    "smile": "",
    "canonicalSmile": "",
    "molecularFormula": "O<sub>5</sub>V<sub>2</sub>",
    "molecularMass": "",
    "experimentalProperties": [
        {
            "name": "Melting Point",
            "property": "690 °C",
            "sourceNumber": 1
        },
        {
            "name": "Density",
            "property": "3.357 g/cm³ @ Temp: 18 °C",
            "sourceNumber": 1
        }
    ],
    "propertyCitations": [
        {
            "docUri": "",
            "sourceNumber": 1,
            "source": "Hazardous Substances Data Bank data were obtained from the National Library of Medicine (US)"
        }
    ],
    "synonyms": [
        "Vanadium oxide (V<sub>2</sub>O<sub>5</sub>)",
        "C.I. 77938",
        "Vanadic anhydride",
        "Vanadium pentoxide",
        "Divanadium pentoxide",
        "Divanadium pentaoxide",
        "Vanadium oxide",
        "Vanadia",
        "Pentaoxodivanadium",
        "Vanadium(V) oxide",
        "Vanadium oxide (V<sub>4</sub>O<sub>10</sub>)",
        "VT 1",
        "VT 1 (colorant)",
        "Vanadium oxide (VO<sub>2.5</sub>)",
        "Red vanadium"
    ],
    "replacedRns": [
        "12503-98-9",
        "56870-07-6",
        "87854-55-5",
        "87854-56-6",
        "166165-37-3",
        "172928-47-1",
        "184892-22-6",
        "200577-85-1",
        "203812-34-4",
        "251927-12-5",
        "410546-90-6",
        "581075-33-4",
        "828264-64-8",
        "854372-97-7",
        "857777-38-9",
        "863639-26-3",
        "934750-46-6",
        "1408062-28-1",
        "2142684-30-6"
    ],
    "hasMolfile": false,
    "source": "https://commonchemistry.cas.org/detail?cas_rn=1314-62-1"
}