{
    "cas_no": "10315-03-4",
    "key_name": "4-Acetyl-4-phenylpiperidine hydrochloride",
    "cn_name": "4-乙酰-4-苯基哌啶盐酸盐;4-乙酰基-4-苯基哌啶盐酸盐;",
    "alternate_name": "Ethanone, 1-(4-phenyl-4-piperidinyl)-, hydrochloride (1:1);Ketone, methyl 4-phenyl-4-piperidyl, hydrochloride;Ethanone, 1-(4-phenyl-4-piperidinyl)-, hydrochloride;4-Acetyl-4-phenylpiperidine hydrochloride;1-(4-Phenylpiperidin-4-yl)ethan-1-one hydrochloride;1-(4-Phenyl-4-piperidinyl)ethanone hydrochloride;1-(4-Phenyl-4-piperidyl)ethanone hydrochloride",
    "duplicated_cas_no": "92039-98-0",
    "SMILES": "C(C)(=O)C1(CCNCC1)C2=CC=CC=C2.Cl",
    "meta_data": {
        "InChI": "InChI=1S/C13H17NO.ClH/c1-11(15)13(7-9-14-10-8-13)12-5-3-2-4-6-12;/h2-6,14H,7-10H2,1H3;1H",
        "InChIKey": null,
        "Canonical SMILES": "Cl.O=C(C)C1(C=2C=CC=CC2)CCNCC1",
        "Molecular Formula": "C<sub>13</sub>H<sub>17</sub>NO.ClH",
        "Molecular Mass": "",
        "Melting Point": "238-241 °C"
    }
}