{
    "cas_no": "630-06-8",
    "key_name": "Hexatriacontane",
    "cn_name": "正三十六烷;三十六烷;正三十六烷;",
    "alternate_name": "Hexatriacontane;<em>n</em>-Hexatriacontane;NSC 407536",
    "duplicated_cas_no": "2040-92-8",
    "SMILES": "C(CCCCCCCCCCCCCCCCCC)CCCCCCCCCCCCCCCCC",
    "meta_data": {
        "InChI": "InChI=1S/C36H74/c1-3-5-7-9-11-13-15-17-19-21-23-25-27-29-31-33-35-36-34-32-30-28-26-24-22-20-18-16-14-12-10-8-6-4-2/h3-36H2,1-2H3",
        "InChIKey": null,
        "Canonical SMILES": "CCCCCCCCCCCCCCCCCCCCCCCCCCCCCCCCCCCC",
        "Molecular Formula": "C<sub>36</sub>H<sub>74</sub>",
        "Molecular Mass": "506.97",
        "Boiling Point": "298.4 °C",
        "Melting Point": "76.5 °C",
        "Density": "0.7819 g/cm³"
    }
}