{
    "cas_no": "64603-90-3",
    "key_name": "Isoguvacine",
    "cn_name": null,
    "alternate_name": "4-Pyridinecarboxylic acid, 1,2,3,6-tetrahydro-;1,2,3,6-Tetrahydro-4-pyridinecarboxylic acid;Isoguvacine;1,2,3,6-Tetrahydropyridine-4-carboxylic acid",
    "duplicated_cas_no": "",
    "SMILES": "C(O)(=O)C=1CCNCC1",
    "meta_data": {
        "InChI": "InChI=1S/C6H9NO2/c8-6(9)5-1-3-7-4-2-5/h1,7H,2-4H2,(H,8,9)",
        "InChIKey": null,
        "Canonical SMILES": "O=C(O)C1=CCNCC1",
        "Molecular Formula": "C<sub>6</sub>H<sub>9</sub>NO<sub>2</sub>",
        "Molecular Mass": "127.14",
        "Melting Point": "220 °C"
    }
}