{
    "cas_no": "96-18-4",
    "key_name": "1,2,3-Trichloropropane",
    "cn_name": "1,2,3-三氯丙烷;",
    "alternate_name": "Propane, 1,2,3-trichloro-;1,2,3-Trichloropropane;Allyl trichloride;Glycerol trichlorohydrin;Glyceryl trichlorohydrin;Trichlorohydrin;NSC 35403;HCC 260DA",
    "duplicated_cas_no": "",
    "SMILES": "C(CCl)(CCl)Cl",
    "meta_data": {
        "InChI": "InChI=1S/C3H5Cl3/c4-1-3(6)2-5/h3H,1-2H2",
        "InChIKey": null,
        "Canonical SMILES": "ClCC(Cl)CCl",
        "Molecular Formula": "C<sub>3</sub>H<sub>5</sub>Cl<sub>3</sub>",
        "Molecular Mass": "147.43",
        "Boiling Point": "156.85 °C",
        "Melting Point": "-14.7 °C",
        "Density": "1.3889 g/cm³ @ Temp: 20 °C"
    }
}