{
    "cas_no": "89694-48-4",
    "key_name": "5-Chloro-2-methoxyphenylboronic acid",
    "cn_name": "5-氯-2-甲氧基苯硼酸;",
    "alternate_name": "Boronic acid, <em>B</em>-(5-chloro-2-methoxyphenyl)-;Benzeneboronic acid, 5-chloro-2-methoxy-;Boronic acid, (5-chloro-2-methoxyphenyl)-;<em>B</em>-(5-Chloro-2-methoxyphenyl)boronic acid;5-Chloro-2-methoxyphenylboronic acid;2-Methoxy-5-chlorophenylboronic acid;3-Chloro-6-methoxyphenylboronic acid;[5-Chloro-2-(methyloxy)phenyl]boronic acid",
    "duplicated_cas_no": "",
    "SMILES": "B(O)(O)C1=C(OC)C=CC(Cl)=C1",
    "meta_data": {
        "InChI": "InChI=1S/C7H8BClO3/c1-12-7-3-2-5(9)4-6(7)8(10)11/h2-4,10-11H,1H3",
        "InChIKey": null,
        "Canonical SMILES": "ClC1=CC=C(OC)C(=C1)B(O)O",
        "Molecular Formula": "C<sub>7</sub>H<sub>8</sub>BClO<sub>3</sub>",
        "Molecular Mass": "186.40",
        "Melting Point": "141-142 °C"
    }
}