{
    "cas_no": "13435-12-6",
    "key_name": "Trimethylsilylacetamide",
    "cn_name": "N-三甲基硅基乙酰胺;",
    "alternate_name": "Acetamide, <em>N</em>-(trimethylsilyl)-;<em>N</em>-(Trimethylsilyl)acetamide;(Acetylamino)trimethylsilane;NSC 139859;Trimethylsilylacetamide",
    "duplicated_cas_no": "",
    "SMILES": "N([Si](C)(C)C)C(C)=O",
    "meta_data": {
        "InChI": "InChI=1S/C5H13NOSi/c1-5(7)6-8(2,3)4/h1-4H3,(H,6,7)",
        "InChIKey": null,
        "Canonical SMILES": "O=C(N[Si](C)(C)C)C",
        "Molecular Formula": "C<sub>5</sub>H<sub>13</sub>NOSi",
        "Molecular Mass": "131.25",
        "Boiling Point": "104 °C @ Press: 35 Torr",
        "Melting Point": "46-49 °C"
    }
}