{
    "cas_no": "94022-99-8",
    "key_name": "2-(Trifluoromethyl)benzenepropanoic acid",
    "cn_name": "3-[2-(三氟甲基)苯基]丙酸;",
    "alternate_name": "Benzenepropanoic acid, 2-(trifluoromethyl)-;2-(Trifluoromethyl)benzenepropanoic acid;3-[2-(Trifluoromethyl)phenyl]propionic acid;3-(2-Trifluoromethylphenyl)propanoic acid",
    "duplicated_cas_no": "",
    "SMILES": "C(F)(F)(F)C1=C(CCC(O)=O)C=CC=C1",
    "meta_data": {
        "InChI": "InChI=1S/C10H9F3O2/c11-10(12,13)8-4-2-1-3-7(8)5-6-9(14)15/h1-4H,5-6H2,(H,14,15)",
        "InChIKey": null,
        "Canonical SMILES": "O=C(O)CCC=1C=CC=CC1C(F)(F)F",
        "Molecular Formula": "C<sub>10</sub>H<sub>9</sub>F<sub>3</sub>O<sub>2</sub>",
        "Molecular Mass": "218.17",
        "Melting Point": "63-65 °C"
    }
}