{
    "cas_no": "20439-47-8",
    "key_name": "(-)-<em>trans</em>-1,2-Diaminocyclohexane",
    "cn_name": null,
    "alternate_name": "1,2-Cyclohexanediamine, (1<em>R</em>,2<em>R</em>)-;1,2-Cyclohexanediamine, (1<em>R</em>-<em>trans</em>)-;(1<em>R</em>,2<em>R</em>)-1,2-Cyclohexanediamine;<em>trans</em>-(-)-1,2-Cyclohexanediamine;<em>l</em>-<em>trans</em>-1,2-Diaminocyclohexane;<em>trans</em>-(-)-1,2-Diaminocyclohexane;(1<em>R</em>,2<em>R</em>)-(-)-1,2-Diaminocyclohexane;(-)-(1<em>R</em>,2<em>R</em>)-Diaminocyclohexane;(<em>R</em>,<em>R</em>)-<em>trans</em>-1,2-Diaminocyclohexane;(<em>R</em>,<em>R</em>)-(-)-1,2-Cyclohexanediamine;<em>trans</em>-(<em>R</em>,<em>R</em>)-1,2-Cyclohexanediamine;<em>trans</em>-<em>l</em>-1,2-Diaminocyclohexane;(-)-<em>trans</em>-1,2-Diaminocyclohexane;<em>trans</em>-(<em>R</em>,<em>R</em>)-1,2-Diaminocyclohexane;(<em>R</em>,<em>R</em>)-(-)-<em>trans</em>-1,2-Diaminocyclohexane;(1<em>R</em>-<em>trans</em>)-1,2-Cyclohexanediamine;<em>trans</em>-1<em>R</em>,2<em>R</em>-Diaminocyclohexane;(1<em>R</em>,2<em>R</em>)-1,2-Diaminocyclohexane;(<em>R</em>,<em>R</em>)-1,2-Diaminocyclohexane;(1<em>R</em>,2<em>R</em>)-<em>trans</em>-1,2-Diaminocyclohexane;(1<em>R</em>,2<em>R</em>)-Diaminocyclohexane;<em>trans</em>-l-1,2-Cyclohexanediamine;(<em>R</em>,<em>R</em>)-(-)-1,2-Diaminocyclohexane;(1<em>R</em>,2<em>R</em>)-(-)-1,2-Cyclohexanediamine;(-)-<em>trans</em>-1,2-Cyclohexanediamine;(1<em>R</em>,2<em>R</em>)-Cyclohexanediamine;(-)-(1<em>R</em>,2<em>R</em>)Cyclohexanediamine;(-)-(1<em>R</em>,2<em>R</em>)-1,2-Cyclohexanediamine;(1<em>R</em>,2<em>R</em>)-(-)-Diaminocyclohexane;<em>trans</em>-(1<em>R</em>,2<em>R</em>)-1,2-Diaminocyclohexane;(<em>R</em>,<em>R</em>)-<em>trans</em>-1,2-Cyclohexanediamine;(<em>R</em>,<em>R</em>)-1,2-Cyclohexanediamine;1<em>R</em>,2<em>R</em>-<em>trans</em>-Cyclohexanediamine;(1<em>R</em>,2<em>R</em>)-<em>trans</em>-Cyclohexane-1,2-diamine;(R,R)-Dach;(1<em>R</em>,2<em>R</em>)-2-Aminocyclohexylamine;(1R,2R)-1,2-<em>trans</em>-Cyclohexanediamine;(1<em>R</em>,2<em>R</em>)-(+)-1,2-Diaminocyclohexane;(<em>R</em>,<em>R</em>)-DACH;(1<em>R</em>,2<em>R</em>)-1,2-Cyclohexyldiamine;(1R,2R)-Cyclohexan-1,2-diamine;DACH;1,2-(<em>R</em>,<em>R</em>)-Diaminocyclohexane",
    "duplicated_cas_no": "1217520-73-4",
    "SMILES": "N[C@H]1[C@H](N)CCCC1",
    "meta_data": {
        "InChI": "InChI=1S/C6H14N2/c7-5-3-1-2-4-6(5)8/h5-6H,1-4,7-8H2/t5-,6-/m1/s1",
        "InChIKey": null,
        "Canonical SMILES": "NC1CCCCC1N",
        "Molecular Formula": "C<sub>6</sub>H<sub>14</sub>N<sub>2</sub>",
        "Molecular Mass": "114.19",
        "Melting Point": "43-45 °C"
    }
}