{
    "cas_no": "1005-93-2",
    "key_name": "Trimethylolpropane phosphate",
    "cn_name": null,
    "alternate_name": "2,6,7-Trioxa-1-phosphabicyclo[2.2.2]octane, 4-ethyl-, 1-oxide;1,3-Propanediol, 2-ethyl-2-(hydroxymethyl)-, cyclic phosphate (1:1);1,3-Propanediol, 2-ethyl-2-(hydroxymethyl)-, cyclic phosphate;4-Ethyl-1-phospha-2,6,7-trioxabicyclo[2.2.2]octane 1-oxide;Trimethylolpropane phosphate;4-Ethyl-2,6,7-trioxa-1-phosphabicyclo[2.2.2]octane 1-oxide;Etbicuphat",
    "duplicated_cas_no": "",
    "SMILES": "C(C)C12COP(=O)(OC1)OC2",
    "meta_data": {
        "InChI": "InChI=1S/C6H11O4P/c1-2-6-3-8-11(7,9-4-6)10-5-6/h2-5H2,1H3",
        "InChIKey": null,
        "Canonical SMILES": "O=P12OCC(CO1)(CO2)CC",
        "Molecular Formula": "C<sub>6</sub>H<sub>11</sub>O<sub>4</sub>P",
        "Molecular Mass": "178.12",
        "Melting Point": "202 °C"
    }
}