{
    "cas_no": "261-31-4",
    "key_name": "Thioxanthene",
    "cn_name": null,
    "alternate_name": "9<em>H</em>-Thioxanthene;Thioxanthene;Dibenzothiapyran;Thiaxanthene;Thioxanthen",
    "duplicated_cas_no": "",
    "SMILES": "C1=2C(SC=3C(C1)=CC=CC3)=CC=CC2",
    "meta_data": {
        "InChI": "InChI=1S/C13H10S/c1-3-7-12-10(5-1)9-11-6-2-4-8-13(11)14-12/h1-8H,9H2",
        "InChIKey": null,
        "Canonical SMILES": "S1C=2C=CC=CC2CC=3C=CC=CC13",
        "Molecular Formula": "C<sub>13</sub>H<sub>10</sub>S",
        "Molecular Mass": "198.28",
        "Boiling Point": "341 °C",
        "Melting Point": "128.5 °C"
    }
}