{
    "cas_no": "64741-65-7",
    "key_name": "Naphtha (petroleum), heavy alkylate",
    "cn_name": null,
    "alternate_name": "Naphtha (petroleum), heavy alkylate;Heavy alkylate naphtha (petroleum)",
    "duplicated_cas_no": "",
    "SMILES": "",
    "meta_data": {
        "InChI": "",
        "InChIKey": null,
        "Canonical SMILES": "",
        "Molecular Formula": "Unspecified",
        "Molecular Mass": "",
        "Boiling Point": "172-215 °C",
        "Melting Point": "-30 °C",
        "Density": "0.75-0.79 g/cm³"
    }
}