{
    "uri": "substance/pt/64741657",
    "rn": "64741-65-7",
    "name": "Naphtha (petroleum), heavy alkylate",
    "images": [],
    "inchi": "",
    "inchiKey": "",
    "smile": "",
    "canonicalSmile": "",
    "molecularFormula": "Unspecified",
    "molecularMass": "",
    "experimentalProperties": [
        {
            "name": "Boiling Point",
            "property": "172-215 °C",
            "sourceNumber": 1
        },
        {
            "name": "Melting Point",
            "property": "-30 °C",
            "sourceNumber": 1
        },
        {
            "name": "Density",
            "property": "0.75-0.79 g/cm³",
            "sourceNumber": 1
        }
    ],
    "propertyCitations": [
        {
            "docUri": "",
            "sourceNumber": 1,
            "source": "International Chemical Safety Cards data were obtained from the National Institute for Occupational Safety and Health (US)"
        }
    ],
    "synonyms": [
        "Naphtha (petroleum), heavy alkylate",
        "Heavy alkylate naphtha (petroleum)"
    ],
    "replacedRns": [],
    "hasMolfile": false,
    "source": "https://commonchemistry.cas.org/detail?cas_rn=64741-65-7"
}