{
    "cas_no": "5858-18-4",
    "key_name": "2,5-Dichlorobenzenethiol",
    "cn_name": "2,5-二氯苯硫酚;",
    "alternate_name": "Benzenethiol, 2,5-dichloro-;2,5-Dichlorobenzenethiol;2,5-Dichlorothiophenol;NSC 49350;2,5-Dichlorobenzene-1-thiol",
    "duplicated_cas_no": "",
    "SMILES": "SC1=C(Cl)C=CC(Cl)=C1",
    "meta_data": {
        "InChI": "InChI=1S/C6H4Cl2S/c7-4-1-2-5(8)6(9)3-4/h1-3,9H",
        "InChIKey": null,
        "Canonical SMILES": "ClC1=CC=C(Cl)C(S)=C1",
        "Molecular Formula": "C<sub>6</sub>H<sub>4</sub>Cl<sub>2</sub>S",
        "Molecular Mass": "179.07",
        "Boiling Point": "132 °C @ Press: 29 Torr",
        "Melting Point": "28 °C"
    }
}