{
    "cas_no": "696-71-9",
    "key_name": "Cyclooctanol",
    "cn_name": "环辛醇;",
    "alternate_name": "Cyclooctanol;NSC 60162;Cyclooctyl alcohol",
    "duplicated_cas_no": "",
    "SMILES": "OC1CCCCCCC1",
    "meta_data": {
        "InChI": "InChI=1S/C8H16O/c9-8-6-4-2-1-3-5-7-8/h8-9H,1-7H2",
        "InChIKey": null,
        "Canonical SMILES": "OC1CCCCCCC1",
        "Molecular Formula": "C<sub>8</sub>H<sub>16</sub>O",
        "Molecular Mass": "128.21",
        "Boiling Point": "106-108 °C @ Press: 22 Torr",
        "Melting Point": "25.1 °C",
        "Density": "0.9663 g/cm³ @ Temp: 17 °C"
    }
}