{
    "cas_no": "65039-08-9",
    "key_name": "1-Ethyl-3-methylimidazolium bromide",
    "cn_name": "1-乙基-3-甲基溴化咪唑;1-乙基-3-甲基咪唑溴盐;",
    "alternate_name": "1<em>H</em>-Imidazolium, 3-ethyl-1-methyl-, bromide (1:1);1<em>H</em>-Imidazolium, 1-ethyl-3-methyl-, bromide;1-Ethyl-3-methylimidazolium bromide;1-Methyl-3-ethylimidazolium bromide;1-Ethyl-3-methyl-1<em>H</em>-imidazolium bromide;3-Ethyl-1-methyl-3<em>H</em>-imidazol-1-ium bromide;3-Ethyl-1-methylimidazolium bromide;1-Ethyl-3-methylmidazolium bromide;[C<sub>2</sub>Mim<sup>+</sup>][Br<sup>-</sup>];1-Ethyl-3-methyl-1<em>H</em>-imidazol-3-ium bromide",
    "duplicated_cas_no": "",
    "SMILES": "C(C)[N+]1=CN(C)C=C1.[Br-]",
    "meta_data": {
        "InChI": "InChI=1S/C6H11N2.BrH/c1-3-8-5-4-7(2)6-8;/h4-6H,3H2,1-2H3;1H/q+1;/p-1",
        "InChIKey": null,
        "Canonical SMILES": "[Br-].C1=C[N+](=CN1C)CC",
        "Molecular Formula": "C<sub>6</sub>H<sub>11</sub>N<sub>2</sub>.Br",
        "Molecular Mass": "",
        "Melting Point": "76.9 °C",
        "Density": "1.37504 g/cm³ (liquid) @ Temp: 85.020 °C; Press: 750 Torr"
    }
}