{
    "cas_no": "111-06-8",
    "key_name": "Butyl palmitate",
    "cn_name": null,
    "alternate_name": "Hexadecanoic acid, butyl ester;Palmitic acid, butyl ester;<em>n</em>-Butyl hexadecanoate;Butyl palmitate;<em>n</em>-Butyl palmitate;Butyl hexadecanoate;NSC 4815;Palmitic acid <em>n</em>-butyl ester",
    "duplicated_cas_no": "",
    "SMILES": "C(CC(OCCCC)=O)CCCCCCCCCCCCC",
    "meta_data": {
        "InChI": "InChI=1S/C20H40O2/c1-3-5-7-8-9-10-11-12-13-14-15-16-17-18-20(21)22-19-6-4-2/h3-19H2,1-2H3",
        "InChIKey": null,
        "Canonical SMILES": "O=C(OCCCC)CCCCCCCCCCCCCCC",
        "Molecular Formula": "C<sub>20</sub>H<sub>40</sub>O<sub>2</sub>",
        "Molecular Mass": "312.53",
        "Melting Point": "16.9 °C"
    }
}