{
    "cas_no": "13925-03-6",
    "key_name": "2-Ethyl-6-methylpyrazine",
    "cn_name": null,
    "alternate_name": "Pyrazine, 2-ethyl-6-methyl-;2-Ethyl-6-methylpyrazine;2-Methyl-6-ethylpyrazine;6-Methyl-2-ethylpyrazine",
    "duplicated_cas_no": "",
    "SMILES": "C(C)C1=NC(C)=CN=C1",
    "meta_data": {
        "InChI": "InChI=1S/C7H10N2/c1-3-7-5-8-4-6(2)9-7/h4-5H,3H2,1-2H3",
        "InChIKey": null,
        "Canonical SMILES": "N=1C=C(N=C(C1)CC)C",
        "Molecular Formula": "C<sub>7</sub>H<sub>10</sub>N<sub>2</sub>",
        "Molecular Mass": "122.17",
        "Boiling Point": "54-57 °C @ Press: 11 Torr",
        "Melting Point": "57-63 °C"
    }
}