{
    "cas_no": "3016-76-0",
    "key_name": "4,4′-[2,2,2-Trifluoro-1-(trifluoromethyl)ethylidene]bis[1,2-benzenedicarboxylic acid]",
    "cn_name": "4,4\"-(2,2,2-三氟-1-三氟甲基)亚乙基双(1,2-苯二甲酸);",
    "alternate_name": "1,2-Benzenedicarboxylic acid, 4,4′-[2,2,2-trifluoro-1-(trifluoromethyl)ethylidene]bis-;Phthalic acid, 4,4′-[trifluoro-1-(trifluoromethyl)ethylidene]di-;Phthalic acid, 4,4′-[2,2,2-trifluoro-1-(trifluoromethyl)ethylidene]di-;4,4′-[2,2,2-Trifluoro-1-(trifluoromethyl)ethylidene]bis[1,2-benzenedicarboxylic acid];2,2-Bis(3,4-dicarboxyphenyl)hexafluoropropane;4,4′-Hexafluoroisopropylidenebis(phthalic acid);4,4′-[2,2,2-Trifluoro-1-(trifluoromethyl)ethylidene]bis(1,2-benzenedicarboxylic dianhydride);2,2-Bis(3,4-dicarboxyphenyl)perfluoropropane;4,4′-[2,2,2-Trifluoro-1-(trifluoromethyl)ethylidene]bis[phthalic acid];4,4′-(Hexafluoroisopropylidene)diphthalic acid;3,3′,4,4′-(1,1′-Hexafluoroisopropylidenebiphenyl)tetracarboxylic acid;2,2′-Bis(3,4-dicarboxyphenyl)hexafluoropropane",
    "duplicated_cas_no": "",
    "SMILES": "C(C(F)(F)F)(C(F)(F)F)(C1=CC(C(O)=O)=C(C(O)=O)C=C1)C2=CC(C(O)=O)=C(C(O)=O)C=C2",
    "meta_data": {
        "InChI": "InChI=1S/C19H10F6O8/c20-18(21,22)17(19(23,24)25,7-1-3-9(13(26)27)11(5-7)15(30)31)8-2-4-10(14(28)29)12(6-8)16(32)33/h1-6H,(H,26,27)(H,28,29)(H,30,31)(H,32,33)",
        "InChIKey": null,
        "Canonical SMILES": "O=C(O)C1=CC=C(C=C1C(=O)O)C(C2=CC=C(C(=O)O)C(=C2)C(=O)O)(C(F)(F)F)C(F)(F)F",
        "Molecular Formula": "C<sub>19</sub>H<sub>10</sub>F<sub>6</sub>O<sub>8</sub>",
        "Molecular Mass": "480.27",
        "Melting Point": "225 °C"
    }
}