{
    "cas_no": "481-06-1",
    "key_name": "(-)-Santonin",
    "cn_name": "驱蛔素;",
    "alternate_name": "Naphtho[1,2-<em>b</em>]furan-2,8(3<em>H</em>,4<em>H</em>)-dione, 3a,5,5a,9b-tetrahydro-3,5a,9-trimethyl-, (3<em>S</em>,3a<em>S</em>,5a<em>S</em>,9b<em>S</em>)-;Eudesma-1,4-dien-12-oic acid, 6α-hydroxy-3-oxo-, γ-lactone, (11<em>S</em>)-;Naphtho[1,2-<em>b</em>]furan-2,8(3<em>H</em>,4<em>H</em>)-dione, 3a,5,5a,9b-tetrahydro-3,5a,9-trimethyl-, [3<em>S</em>-(3α,3aα,5aβ,9bβ)]-;(3<em>S</em>,3a<em>S</em>,5a<em>S</em>,9b<em>S</em>)-3a,5,5a,9b-Tetrahydro-3,5a,9-trimethylnaphtho[1,2-<em>b</em>]furan-2,8(3<em>H</em>,4<em>H</em>)-dione;α-Santonin;Santonin;(-)-α-Santonin;1,2,3,4,4a,7-Hexahydro-1-hydroxy-α,4a,8-trimethyl-7-oxo-2-naphthaleneacetic acid γ-lactone;(-)-Santonin;Semenen;NSC 4900;alpha-Santonin;MeSH ID: D012500",
    "duplicated_cas_no": "881738-49-4",
    "SMILES": "C[C@]12C([C@@]3([C@@](CC1)([C@H](C)C(=O)O3)[H])[H])=C(C)C(=O)C=C2",
    "meta_data": {
        "InChI": "InChI=1S/C15H18O3/c1-8-10-4-6-15(3)7-5-11(16)9(2)12(15)13(10)18-14(8)17/h5,7-8,10,13H,4,6H2,1-3H3/t8-,10-,13-,15-/m0/s1",
        "InChIKey": null,
        "Canonical SMILES": "O=C1C=CC2(C(=C1C)C3OC(=O)C(C)C3CC2)C",
        "Molecular Formula": "C<sub>15</sub>H<sub>18</sub>O<sub>3</sub>",
        "Molecular Mass": "246.30",
        "Melting Point": "175 °C"
    }
}