{
    "cas_no": "529-20-4",
    "key_name": "2-Methylbenzaldehyde",
    "cn_name": "2-甲基苯甲醛;邻甲基苯甲醛;",
    "alternate_name": "Benzaldehyde, 2-methyl-;<em>o</em>-Tolualdehyde;2-Methylbenzaldehyde;<em>o</em>-Methylbenzaldehyde;<em>o</em>-Toluic aldehyde;<em>o</em>-Tolylaldehyde;2-Tolualdehyde;2-Formyltoluene;NSC 103152",
    "duplicated_cas_no": "",
    "SMILES": "C(=O)C1=C(C)C=CC=C1",
    "meta_data": {
        "InChI": "InChI=1S/C8H8O/c1-7-4-2-3-5-8(7)6-9/h2-6H,1H3",
        "InChIKey": null,
        "Canonical SMILES": "O=CC=1C=CC=CC1C",
        "Molecular Formula": "C<sub>8</sub>H<sub>8</sub>O",
        "Molecular Mass": "120.15",
        "Boiling Point": "200 °C",
        "Melting Point": "&lt;25 °C",
        "Density": "1.0342 g/cm³ @ Temp: 20 °C"
    }
}