{
    "cas_no": "162607-26-3",
    "key_name": "<em>B</em>-(3-Bromo-2-thienyl)boronic acid",
    "cn_name": null,
    "alternate_name": "Boronic acid, <em>B</em>-(3-bromo-2-thienyl)-;Boronic acid, (3-bromo-2-thienyl)-;<em>B</em>-(3-Bromo-2-thienyl)boronic acid;(3-Bromo-2-thiophenyl)boronic acid;(3-Bromothiophen-2-yl)boronic acid;3-Bromothiophene-2-boronic acid",
    "duplicated_cas_no": "",
    "SMILES": "B(O)(O)C1=C(Br)C=CS1",
    "meta_data": {
        "InChI": "InChI=1S/C4H4BBrO2S/c6-3-1-2-9-4(3)5(7)8/h1-2,7-8H",
        "InChIKey": null,
        "Canonical SMILES": "BrC=1C=CSC1B(O)O",
        "Molecular Formula": "C<sub>4</sub>H<sub>4</sub>BBrO<sub>2</sub>S",
        "Molecular Mass": "206.85",
        "Melting Point": "201-203 °C"
    }
}