{
    "cas_no": "135-57-9",
    "key_name": "<em>N</em>,<em>N</em>′-(Dithiodi-2,1-phenylene)bis[benzamide]",
    "cn_name": "2,2\"-二苯甲酰氨基二苯二硫;",
    "alternate_name": "Benzamide, <em>N</em>,<em>N</em>′-(dithiodi-2,1-phenylene)bis-;Benzanilide, 2′,2′′′-dithiobis-;<em>N</em>,<em>N</em>′-(Dithiodi-2,1-phenylene)bis[benzamide];Bis(2-benzamidophenyl) disulfide;<em>o</em>,<em>o</em>′-Dibenzamidodiphenyl disulfide;2,2′-Dibenzoylaminodiphenyl disulfide;Bis(<em>o</em>-benzamidophenyl) disulfide;Pepton 22;2′,2′′′-Dithiodibenzanilide;Di-<em>o</em>-benzamidophenyl disulfide;Peptazin BAFD;<em>o</em>-(Benzoylamino)phenyl disulfide;Peptisant 10;2,2′-Dibenzamidodiphenyl disulfide;Pepton 3S;Noctizer SS;Bis(2-benzoylaminophenyl)disulfide;Renazit 11;Bisbenzamide;Vuchtazin RV/G-M;SS;K 202;Vuchtazin RV/G-S;3S;SL 6010;DBD;Zincolet 89NT;Renacit 11",
    "duplicated_cas_no": "207621-22-5",
    "SMILES": "S(SC1=C(NC(=O)C2=CC=CC=C2)C=CC=C1)C3=C(NC(=O)C4=CC=CC=C4)C=CC=C3",
    "meta_data": {
        "InChI": "InChI=1S/C26H20N2O2S2/c29-25(19-11-3-1-4-12-19)27-21-15-7-9-17-23(21)31-32-24-18-10-8-16-22(24)28-26(30)20-13-5-2-6-14-20/h1-18H,(H,27,29)(H,28,30)",
        "InChIKey": null,
        "Canonical SMILES": "O=C(NC=1C=CC=CC1SSC=2C=CC=CC2NC(=O)C=3C=CC=CC3)C=4C=CC=CC4",
        "Molecular Formula": "C<sub>26</sub>H<sub>20</sub>N<sub>2</sub>O<sub>2</sub>S<sub>2</sub>",
        "Molecular Mass": "456.58",
        "Melting Point": "143-144.5 °C"
    }
}