{
    "cas_no": "3115-49-9",
    "key_name": "4-Nonylphenoxyacetic acid",
    "cn_name": "(4-壬基苯氧基)乙酸;",
    "alternate_name": "Acetic acid, 2-(4-nonylphenoxy)-;Acetic acid, (<em>p</em>-nonylphenoxy)-;Acetic acid, (4-nonylphenoxy)-;2-(4-Nonylphenoxy)acetic acid;(<em>p</em>-Nonylphenoxy)acetic acid;4-Nonylphenoxyacetic acid",
    "duplicated_cas_no": "",
    "SMILES": "O(CC(O)=O)C1=CC=C(CCCCCCCCC)C=C1",
    "meta_data": {
        "InChI": "InChI=1S/C17H26O3/c1-2-3-4-5-6-7-8-9-15-10-12-16(13-11-15)20-14-17(18)19/h10-13H,2-9,14H2,1H3,(H,18,19)",
        "InChIKey": null,
        "Canonical SMILES": "O=C(O)COC1=CC=C(C=C1)CCCCCCCCC",
        "Molecular Formula": "C<sub>17</sub>H<sub>26</sub>O<sub>3</sub>",
        "Molecular Mass": "278.39",
        "Melting Point": "&lt;25 °C"
    }
}