{
    "cas_no": "4112-03-2",
    "key_name": "Methylsulfamic acid",
    "cn_name": "甲基磺胺酸;甲基磺胺酸;",
    "alternate_name": "Sulfamic acid, <em>N</em>-methyl-;Sulfamic acid, methyl-;<em>N</em>-Methylsulfamic acid;Methylsulfamic acid;NSC 54922",
    "duplicated_cas_no": "",
    "SMILES": "S(NC)(=O)(=O)O",
    "meta_data": {
        "InChI": "InChI=1S/CH5NO3S/c1-2-6(3,4)5/h2H,1H3,(H,3,4,5)",
        "InChIKey": null,
        "Canonical SMILES": "O=S(=O)(O)NC",
        "Molecular Formula": "CH<sub>5</sub>NO<sub>3</sub>S",
        "Molecular Mass": "111.12",
        "Melting Point": "179 °C",
        "Density": "1.65 g/cm³"
    }
}