{
    "cas_no": "27996-87-8",
    "key_name": "2-Fluoro-5-nitrobenzaldehyde",
    "cn_name": "2-氟-5-硝基苯甲醛;",
    "alternate_name": "Benzaldehyde, 2-fluoro-5-nitro-;2-Fluoro-5-nitrobenzaldehyde",
    "duplicated_cas_no": "",
    "SMILES": "C(=O)C1=CC(N(=O)=O)=CC=C1F",
    "meta_data": {
        "InChI": "InChI=1S/C7H4FNO3/c8-7-2-1-6(9(11)12)3-5(7)4-10/h1-4H",
        "InChIKey": null,
        "Canonical SMILES": "O=CC1=CC(=CC=C1F)N(=O)=O",
        "Molecular Formula": "C<sub>7</sub>H<sub>4</sub>FNO<sub>3</sub>",
        "Molecular Mass": "169.11",
        "Melting Point": "58-59 °C"
    }
}