{
    "cas_no": "1130-32-1",
    "key_name": "3-Azaspiro[5.5]undecane-2,4-dione",
    "cn_name": "3,3-环戊烷戊二酰亚胺;",
    "alternate_name": "3-Azaspiro[5.5]undecane-2,4-dione;1,1-Cyclohexanediacetimide;NSC 400093;2,4-Dioxo-3-azaspiro[5.5]undecane;3,3-Cyclopentane glutarimide",
    "duplicated_cas_no": "",
    "SMILES": "O=C1CC2(CC(=O)N1)CCCCC2",
    "meta_data": {
        "InChI": "InChI=1S/C10H15NO2/c12-8-6-10(7-9(13)11-8)4-2-1-3-5-10/h1-7H2,(H,11,12,13)",
        "InChIKey": null,
        "Canonical SMILES": "O=C1NC(=O)CC2(C1)CCCCC2",
        "Molecular Formula": "C<sub>10</sub>H<sub>15</sub>NO<sub>2</sub>",
        "Molecular Mass": "181.23",
        "Melting Point": "168 °C"
    }
}