{
    "cas_no": "506-38-7",
    "key_name": "Pentacosanoic acid",
    "cn_name": "二十五烷酸;二十五碳酸Pentacosanoicacid;",
    "alternate_name": "Pentacosanoic acid;Hyenic acid;<em>n</em>-Pentacosanoic acid;NSC 89289;Pentacosylic acid",
    "duplicated_cas_no": "",
    "SMILES": "C(CCCCCCCCCCCCCCCCC)CCCCCCC(O)=O",
    "meta_data": {
        "InChI": "InChI=1S/C25H50O2/c1-2-3-4-5-6-7-8-9-10-11-12-13-14-15-16-17-18-19-20-21-22-23-24-25(26)27/h2-24H2,1H3,(H,26,27)",
        "InChIKey": null,
        "Canonical SMILES": "O=C(O)CCCCCCCCCCCCCCCCCCCCCCCC",
        "Molecular Formula": "C<sub>25</sub>H<sub>50</sub>O<sub>2</sub>",
        "Molecular Mass": "382.66",
        "Melting Point": "84-85 °C"
    }
}