{
    "cas_no": "2345-17-7",
    "key_name": "Irisolidone",
    "cn_name": null,
    "alternate_name": "4<em>H</em>-1-Benzopyran-4-one, 5,7-dihydroxy-6-methoxy-3-(4-methoxyphenyl)-;Isoflavone, 5,7-dihydroxy-4′,6-dimethoxy-;5,7-Dihydroxy-6-methoxy-3-(4-methoxyphenyl)-4<em>H</em>-1-benzopyran-4-one;Irisolidone;4′-Methoxytectorigenin;4′-<em>O</em>-Methyltectorigenin",
    "duplicated_cas_no": "",
    "SMILES": "O=C1C=2C(OC=C1C3=CC=C(OC)C=C3)=CC(O)=C(OC)C2O",
    "meta_data": {
        "InChI": "InChI=1S/C17H14O6/c1-21-10-5-3-9(4-6-10)11-8-23-13-7-12(18)17(22-2)16(20)14(13)15(11)19/h3-8,18,20H,1-2H3",
        "InChIKey": null,
        "Canonical SMILES": "O=C1C(=COC2=CC(O)=C(OC)C(O)=C12)C=3C=CC(OC)=CC3",
        "Molecular Formula": "C<sub>17</sub>H<sub>14</sub>O<sub>6</sub>",
        "Molecular Mass": "314.29",
        "Melting Point": "190-191 °C"
    }
}