{
    "cas_no": "22532-62-3",
    "key_name": "4-Bromo-2-hydroxybenzaldehyde",
    "cn_name": "4-溴-2-羟基苯甲醛;",
    "alternate_name": "Benzaldehyde, 4-bromo-2-hydroxy-;Salicylaldehyde, 4-bromo-;4-Bromo-2-hydroxybenzaldehyde;4-Bromosalicylaldehyde;2-Hydroxy-4-bromobenzaldehyde",
    "duplicated_cas_no": "",
    "SMILES": "C(=O)C1=C(O)C=C(Br)C=C1",
    "meta_data": {
        "InChI": "InChI=1S/C7H5BrO2/c8-6-2-1-5(4-9)7(10)3-6/h1-4,10H",
        "InChIKey": null,
        "Canonical SMILES": "O=CC1=CC=C(Br)C=C1O",
        "Molecular Formula": "C<sub>7</sub>H<sub>5</sub>BrO<sub>2</sub>",
        "Molecular Mass": "201.02",
        "Boiling Point": "48-52 °C @ Press: 0.04 Torr",
        "Melting Point": "52 °C"
    }
}