{
    "cas_no": "23680-31-1",
    "key_name": "<em>N</em>-<em>tert</em>-Butoxycarbonyl-<em>O</em>-benzylserine",
    "cn_name": "N-BOC-O-苄基-L-丝氨酸;N-叔丁氧羰基-O-苄基-L-丝氨酸;",
    "alternate_name": "<span class=\"text-smallcaps\">L</span>-Serine, <em>N</em>-[(1,1-dimethylethoxy)carbonyl]-<em>O</em>-(phenylmethyl)-;Alanine, 3-(benzyloxy)-<em>N</em>-carboxy-, <em>N</em>-<em>tert</em>-butyl ester, <span class=\"text-smallcaps\">L</span>-;<em>N</em>-[(1,1-Dimethylethoxy)carbonyl]-<em>O</em>-(phenylmethyl)-<span class=\"text-smallcaps\">L</span>-serine;O-Benzyl-N-tert-butoxycarbonyl-L-serine;<em>tert</em>-Butoxycarbonyl-<em>O</em>-benzyl-<span class=\"text-smallcaps\">L</span>-serine;<em>O</em>-Benzyl-<em>N</em>-(<em>tert</em>-butyloxycarbonyl)serine;<em>N</em>-<em>tert</em>-Butoxycarbonyl-<em>O</em>-benzylserine;<em>N</em>-<em>tert</em>-Butoxycarbonyl-<em>O</em>-benzyl-<span class=\"text-smallcaps\">L</span>-serine;<em>tert</em>-Butoxycarbonyl-<em>O</em>-benzylserine;<em>N</em>-<em>tert</em>-Butyloxycarbonyl-<em>O</em>-benzyl-<span class=\"text-smallcaps\">L</span>-serine;<em>N</em>-(<em>tert</em>-Butoxycarbonyl)serine benzyl ether;BOC-<em>O</em>-benzylserine;NSC 334364;(2<em>S</em>)-3-(Benzyloxy)-2-[(<em>tert</em>-butoxycarbonyl)amino]propanoic acid;(<em>S</em>)-3-[(Benzyl)oxy]-2-[(<em>tert</em>-butoxycarbonyl)amino]propionic acid;(<em>S</em>)-3-(Benzyloxy)-2-(<em>tert</em>-butoxycarbonylamino)propanoic acid;<em>O</em>-Benzyl-<em>N</em>-(<em>tert</em>-butoxycarbonyl)-<span class=\"text-smallcaps\">L</span>-serine;Boc-<span class=\"text-smallcaps\">L</span>-Ser(Bn)OH;(2S)-3-(Benzyloxy)-2-[[(<em>tert</em>-butoxy)carbonyl]amino]propanoic acid;(2S)-2-[(2-Methylpropan-2-yl)oxycarbonylamino]-3-phenylmethoxypropanoic acid;(2S)-3-Benzyloxy-2-(<em>tert</em>-butoxycarbonylamino)propanoic acid",
    "duplicated_cas_no": "54784-64-4;62472-61-1;94347-12-3;115155-67-4;133464-29-6;161422-48-6;2761691-75-0",
    "SMILES": "C(OC[C@H](NC(OC(C)(C)C)=O)C(O)=O)C1=CC=CC=C1",
    "meta_data": {
        "InChI": "InChI=1S/C15H21NO5/c1-15(2,3)21-14(19)16-12(13(17)18)10-20-9-11-7-5-4-6-8-11/h4-8,12H,9-10H2,1-3H3,(H,16,19)(H,17,18)/t12-/m0/s1",
        "InChIKey": null,
        "Canonical SMILES": "O=C(OC(C)(C)C)NC(C(=O)O)COCC=1C=CC=CC1",
        "Molecular Formula": "C<sub>15</sub>H<sub>21</sub>NO<sub>5</sub>",
        "Molecular Mass": "295.33",
        "Melting Point": "79 °C"
    }
}