{
    "cas_no": "701-44-0",
    "key_name": "<em>N</em><sup>1</sup>-Methyl-2-pyridone-5-carboxamide",
    "cn_name": null,
    "alternate_name": "3-Pyridinecarboxamide, 1,6-dihydro-1-methyl-6-oxo-;Nicotinamide, 1,6-dihydro-1-methyl-6-oxo-;Nudifloramide;1,6-Dihydro-1-methyl-6-oxo-3-pyridinecarboxamide;3-Carbamoyl-1-methyl-6-pyridone;1,6-Dihydro-1-methyl-6-oxonicotinamide;1-Methyl-3-carboxamide-6-pyridone;1-Methyl-6-oxo-1,6-dihydronicotinamide;<em>N</em><sup>1</sup>-Methyl-2-pyridone-5-carboxamide;<em>N</em>-Methyl-2-pyridone-5-carboxamide;<em>N</em>-Methyl-2-pyridinone-5-carboxamide;N<sup>1</sup>-Methyl-2-pyridone-5-carboxamide;<em>N</em>-Methyl-5-carboxamide-2-pyridone;5-Aminocarbonyl-1-methyl-2(1<em>H</em>)-pyridone;1-Methyl-6-pyridone-3-carboxylamide;<em>N</em><sup>1</sup>-Methyl-2-pyridone-5-carboxyamide;1-Methyl-6-oxopyridine-3-carboxamide;1-Methyl-6-oxo-1,6-dihydropyridine-3-carboxamide",
    "duplicated_cas_no": "",
    "SMILES": "C(N)(=O)C1=CN(C)C(=O)C=C1",
    "meta_data": {
        "InChI": "InChI=1S/C7H8N2O2/c1-9-4-5(7(8)11)2-3-6(9)10/h2-4H,1H3,(H2,8,11)",
        "InChIKey": null,
        "Canonical SMILES": "O=C(N)C=1C=CC(=O)N(C1)C",
        "Molecular Formula": "C<sub>7</sub>H<sub>8</sub>N<sub>2</sub>O<sub>2</sub>",
        "Molecular Mass": "152.15",
        "Melting Point": "210-210.5 °C"
    }
}