{
    "cas_no": "933-88-0",
    "key_name": "2-Methylbenzoyl chloride",
    "cn_name": "邻甲基苯甲酰氯;2-甲基苯甲酰氯;",
    "alternate_name": "Benzoyl chloride, 2-methyl-;<em>o</em>-Toluoyl chloride;2-Methylbenzoyl chloride;<em>o</em>-Methylbenzoyl chloride;2-Toluoyl chloride;<em>o</em>-Toluic acid chloride;2-Methylbenzoic acid chloride",
    "duplicated_cas_no": "",
    "SMILES": "C(Cl)(=O)C1=C(C)C=CC=C1",
    "meta_data": {
        "InChI": "InChI=1S/C8H7ClO/c1-6-4-2-3-5-7(6)8(9)10/h2-5H,1H3",
        "InChIKey": null,
        "Canonical SMILES": "O=C(Cl)C=1C=CC=CC1C",
        "Molecular Formula": "C<sub>8</sub>H<sub>7</sub>ClO",
        "Molecular Mass": "154.59",
        "Boiling Point": "213.5 °C",
        "Melting Point": "159.5-160.9 °C"
    }
}