{
    "cas_no": "27018-76-4",
    "key_name": "1-(Phenylmethyl)-1<em>H</em>-indole-3-carboxylic acid",
    "cn_name": null,
    "alternate_name": "1<em>H</em>-Indole-3-carboxylic acid, 1-(phenylmethyl)-;Indole-3-carboxylic acid, 1-benzyl-;1-(Phenylmethyl)-1<em>H</em>-indole-3-carboxylic acid;1-Benzylindole-3-carboxylic acid;1-Benzyl-1<em>H</em>-indole-3-carboxylic acid",
    "duplicated_cas_no": "",
    "SMILES": "C(N1C=2C(C(C(O)=O)=C1)=CC=CC2)C3=CC=CC=C3",
    "meta_data": {
        "InChI": "InChI=1S/C16H13NO2/c18-16(19)14-11-17(10-12-6-2-1-3-7-12)15-9-5-4-8-13(14)15/h1-9,11H,10H2,(H,18,19)",
        "InChIKey": null,
        "Canonical SMILES": "O=C(O)C1=CN(C=2C=CC=CC12)CC=3C=CC=CC3",
        "Molecular Formula": "C<sub>16</sub>H<sub>13</sub>NO<sub>2</sub>",
        "Molecular Mass": "251.28",
        "Melting Point": "195-196 °C"
    }
}