{
    "cas_no": "4100-14-5",
    "key_name": "Ethyl 1,2,3-thiadiazole-5-carboxylate",
    "cn_name": null,
    "alternate_name": "1,2,3-Thiadiazole-5-carboxylic acid, ethyl ester;Ethyl 1,2,3-thiadiazole-5-carboxylate",
    "duplicated_cas_no": "",
    "SMILES": "C(OCC)(=O)C1=CN=NS1",
    "meta_data": {
        "InChI": "InChI=1S/C5H6N2O2S/c1-2-9-5(8)4-3-6-7-10-4/h3H,2H2,1H3",
        "InChIKey": null,
        "Canonical SMILES": "O=C(OCC)C=1SN=NC1",
        "Molecular Formula": "C<sub>5</sub>H<sub>6</sub>N<sub>2</sub>O<sub>2</sub>S",
        "Molecular Mass": "158.18",
        "Boiling Point": "103-105 °C @ Press: 14 Torr"
    }
}