{
    "cas_no": "87-05-8",
    "key_name": "7-Ethoxy-4-methylcoumarin",
    "cn_name": "7-乙氧基-4-甲基香豆素;",
    "alternate_name": "2<em>H</em>-1-Benzopyran-2-one, 7-ethoxy-4-methyl-;Coumarin, 7-ethoxy-4-methyl-;7-Ethoxy-4-methyl-2<em>H</em>-1-benzopyran-2-one;7-Ethoxy-4-methylcoumarin;4-Methylumbelliferone ethyl ether;4-Methyl-7-ethoxycoumarin;NSC 60561;7-Ethoxy-4-methyl-2<em>H</em>-chromen-2-one",
    "duplicated_cas_no": "",
    "SMILES": "CC=1C=2C(=CC(OCC)=CC2)OC(=O)C1",
    "meta_data": {
        "InChI": "InChI=1S/C12H12O3/c1-3-14-9-4-5-10-8(2)6-12(13)15-11(10)7-9/h4-7H,3H2,1-2H3",
        "InChIKey": null,
        "Canonical SMILES": "O=C1OC=2C=C(OCC)C=CC2C(=C1)C",
        "Molecular Formula": "C<sub>12</sub>H<sub>12</sub>O<sub>3</sub>",
        "Molecular Mass": "204.22",
        "Melting Point": "106-108 °C"
    }
}