{
    "cas_no": "387-44-0",
    "key_name": "7-Fluoro-1<em>H</em>-indole",
    "cn_name": "7-氟吲哚;",
    "alternate_name": "1<em>H</em>-Indole, 7-fluoro-;Indole, 7-fluoro-;7-Fluoro-1<em>H</em>-indole;7-Fluoroindole",
    "duplicated_cas_no": "",
    "SMILES": "FC1=C2C(=CC=C1)C=CN2",
    "meta_data": {
        "InChI": "InChI=1S/C8H6FN/c9-7-3-1-2-6-4-5-10-8(6)7/h1-5,10H",
        "InChIKey": null,
        "Canonical SMILES": "FC1=CC=CC=2C=CNC12",
        "Molecular Formula": "C<sub>8</sub>H<sub>6</sub>FN",
        "Molecular Mass": "135.14",
        "Melting Point": "61-62 °C"
    }
}