{
    "cas_no": "16588-75-3",
    "key_name": "Benzene, 2-isocyanato-1-methoxy-4-(trifluoromethyl)-",
    "cn_name": null,
    "alternate_name": "Benzene, 2-isocyanato-1-methoxy-4-(trifluoromethyl)-;Isocyanic acid, α,α,α-trifluoro-6-methoxy-<em>m</em>-tolyl ester;2-Methoxy-5-(trifluoromethyl)phenyl isocyanate;2-Isocyanato-1-methoxy-4-trifluoromethylbenzene",
    "duplicated_cas_no": "",
    "SMILES": "N(=C=O)C1=C(OC)C=CC(C(F)(F)F)=C1",
    "meta_data": {
        "InChI": "InChI=1S/C9H6F3NO2/c1-15-8-3-2-6(9(10,11)12)4-7(8)13-5-14/h2-4H,1H3",
        "InChIKey": null,
        "Canonical SMILES": "O=C=NC1=CC(=CC=C1OC)C(F)(F)F",
        "Molecular Formula": "C<sub>9</sub>H<sub>6</sub>F<sub>3</sub>NO<sub>2</sub>",
        "Molecular Mass": "217.14",
        "Boiling Point": "100-103 °C @ Press: 10 Torr"
    }
}