{
    "cas_no": "13423-48-8",
    "key_name": "Phosphonium, heptyltriphenyl-, bromide (1:1)",
    "cn_name": "正庚基三苯基溴化磷;(1-庚基)三苯基溴化磷;",
    "alternate_name": "Phosphonium, heptyltriphenyl-, bromide (1:1);Phosphonium, heptyltriphenyl-, bromide;Heptyltriphenylphosphonium bromide;<em>n</em>-Heptyltriphenylphosphonium bromide;Triphenylheptylphosphonium bromide;Bromo(heptyl)triphenylphosphorane;H 0545",
    "duplicated_cas_no": "59724-99-1",
    "SMILES": "[P+](CCCCCCC)(C1=CC=CC=C1)(C2=CC=CC=C2)C3=CC=CC=C3.[Br-]",
    "meta_data": {
        "InChI": "InChI=1S/C25H30P.BrH/c1-2-3-4-5-15-22-26(23-16-9-6-10-17-23,24-18-11-7-12-19-24)25-20-13-8-14-21-25;/h6-14,16-21H,2-5,15,22H2,1H3;1H/q+1;/p-1",
        "InChIKey": null,
        "Canonical SMILES": "[Br-].C=1C=CC(=CC1)[P+](C=2C=CC=CC2)(C=3C=CC=CC3)CCCCCCC",
        "Molecular Formula": "C<sub>25</sub>H<sub>30</sub>P.Br",
        "Molecular Mass": "",
        "Melting Point": "170 °C"
    }
}