{
    "cas_no": "25038-54-4",
    "key_name": "Nylon 6",
    "cn_name": "尼龙-6;聚己内酰胺;聚己内酰胺切片;锦纶-6;",
    "alternate_name": "Poly[imino(1-oxo-1,6-hexanediyl)];Poly(iminocarbonylpentamethylene);Polycaproamide;Polycaprolactam;Kapron;Poly(ε-caprolactam);Kaprolon;Kapron B;Itamid;Capron;Poly(ε-aminocaproic acid);Polyamide 6;Amilan CM 1011;Caprolactam polymer;Itamid 25;Itamid 35;Maranyl F 124;Nylon CM 1031;PKA (polyamide);Plaskon 201;Plaskon 8201HS;ε-Caprolactam polymer;Nylon 6;Tarlon XB;Tarnamid T 27;Plaskon 8201;Relon P;Tarlon X-A;Vidlon;Stylon;Caprolactam oligomer;Grilon;Poly(ε-caproamide);Nylon X 1051;Amilan CM 1031;Capran 77C;Capran 80;Caproamide polymer;CM 1001;CM 1011;CM 1031;Amilan CM 1041;Durethan BK 30S;Durethan BKV 30H;Durethan BKV 55H;Maranyl F 114;Maranyl F 500;Orgamide;PA 6;Spencer 401;Spencer 601;Zytel 211;Kapromin;Caprolon B;Extron 6N;PK 4;Ultramid B 3;Renyl MV;Kaprolit;Polyamide PK 4;Miramid H 2;Ultramid B 5;Plaskon 8252;Widlon;Dull 704;A 1030;PA 6 (polyamide);Plaskon 8205;Capron PK 4;Durethan BK;2<em>H</em>-Azepin-2-one, hexahydro-, homopolymer;Plaskon 8207;Plaskon XP 607;Ultramid B 4;Kaprolit B;P 6 (polyamide);P 6;Miramid WM 55;ATM 2 (nylon);Ube 1022B;Ertalon 6SA;Itamid 250;A 1030NO;Metamid;Danamid;Itamid 250G;Itamid 350;Bonamid;Alkamid;Capron B;Ultramid BMK;Chemlon;Akulon M 2W;TNK 2G5;Perlon;SIPAS 60;KS 30P;Tarnamid T;Amilan CM 1001;Tarnamid T 2;Capron 8256;Itamid S;Capron 8250;Capron 8252;Capron 8253;Capron GR 8256;Capron GR 8257;Capron GR 8258;Caprolon V;Kapron A;Plaskon 8202C;Torayca N 6;Plaskon 8200;Steelon;Stilon;Amilan CM 1001C;Amilan CM 1001G;Kaprolon V-G 5;Miramid VE 30;Sniavitrid A-Sn 27/250I;Polan GWS;Kaprolit RM;Durethan BK 31F;Kapron KS 30/9;Kaprolon V;Itamid 253;ATM 2;T 45;Tarnamid T 30;T 30z;T 45 (polyamide);Grilon R 50;Orgamide RMNOCD;Novamid 1020;Spolamid;Plaskon 8206;1013B;Grilon PV 3H;Grilon PK 5H;Grilon A 286M;1022B;Novamid 1010C;Novamid 1010;Tarnamid 25;Novamid 1030;Amilan CM 1007;A 1022;Platilon CF;CM 1017;Filmon BX;Filmon CS;Amilan CM 1021L;Tarnamid T 25;PK 4 (polymer);Tarnamid T 45;Renyl CNC 30;PKA 6 (polyamide);PAS 60;Renyl C;Sniamid ADS 50CC;Itamid I 35;KR 1313;Tarnamid P;Amilan 1025c;Akulon 6;Silamid;Ultramid B 3K;Amilan CM 1021;Maranyl F 104;Tarnamid T 25X;Duramid;Plaskon 8202;6-Hexanelactam homopolymer, SRU;Zytel 6;Caprolactam homopolymer;Hexanoic acid, 6-amino-, homopolymer;Renyl CNV 30;CBC 40;Ultramid B 3G;Nylon T 802;Renyl CBC 40;Itamid 25G;Poly(ω-aminocaproic acid);Poly(6-aminocaproic acid);6-Aminocaproic acid polymer, SRU;Akulon K 2ZG340;Amilan CM 1021XF;Ultramid B 40F;Durethan B;Durethan B 56;Ultramid B;Akulon M 2ZG;Grilon A 28;Capran ER 20;Itamid 25M;Miramid H;XPN 1132;A 1030BRL;Vidamid;1030B;Itamid S 2;Novamid 1010J;Durethan B 40SK;Capron 1030;Amilan CM 1017;Novamid 1015J;Rayfan;Maranyl F 400;Ultramid B 3WG7;Amilan CM 1021T;Durethan BKV 30N1;N 40FM;Nylon T 422;Supronyl N;Ube Nylon 1013B;Amilan CM 1001N;BCI 637;Durethan BKV 30;Akulon B 2-66;A 1030GFL;Sorbamid;Lilion SN 1A;Technyl C 216;Capron Xtrabond 100F;Vekton;Grilon A 28NY;Grilon A 23G;Grilon A 28DZ;Grilon A 28NX;Grilon A 23GM;Grilon A 28GM;Grilon A 28VO;Grilon R 40N38;Grilon R 40GM;Grilon TR 27;Grilon R 40;Grilon F 40;Grilon F 47;Grilon F 50;EP Grilon W 5239;Grilon PVN 3H;Durethan B 40E;Amilan CM 1046;Silamid 30SV13;1013NB;Relon A;Itamid 353;Novamid 1020CA;Amilan 1021XF;Miramid II 3;Miramid II 3C;Miramid 3H;Novamid 1040;P 6VSU;Nylon T 102;Rayfan T 1401;T 803;Nylon T 803;P 1011F;MC 102;MC 112;MC 100L;MC 120;Orgasol 1002D;Amilan CM 1020XF;Custom 615I;PA 6-120-321;Ube Nylon 1022B;Silamid 6;Capron 8207;A 1025BRL;Amilan 1021;Capron 8204;Tarnamid T 27WS;Orgasol 1002DNAT;MC 112L;1011FB;Durethan BK 31;Amilan CM 1010;Akulon K 123;Toplamid 1021BR;Fosta 512;Miramid DI 30C;Amilan CM 1017C;LM 102 (polyamide);LM 102;Kaprol;Ultramid KR 4411;22LH-N;Grilon R 70;Sniamid ADS 50;Ultramid B 35KG22;TKX 20;Miramid VE 30C;Miramid FI 20;Ultramid B 3G3;Ultramid B 3G6;CM 1041;Capron 820L;TC-A (polymer);TC-A;Fosta 446;Akulon M 258;Renyl MV/A;Renyl MV/E;Bonyl S;A 1030BRF;Ultramid B 3S;Capron 8209F;Sniamid ASN 27S;Ube 1013B;Ube 1022;Sniamid ASN 27T;Itamid 58;Amilan 1007;Leona Bright;Novamid 1030CA;1030U;Sniamid ASN 27/33AV;Durethan BM 240;Durethan KU 2-2412;FL 1 (polyamide);FL 1;PA 6-110;Stilamid;Durethan B 40FY;Nycoa 471;Capron 8200HS;Capron 8200;Capron XPN 1250;Amilan CM 1011G30;A 1030SR;1018I;XPN 1586;F 4NL5;Akulon N 223D;Novamid 1020J;Nycoa 525;Durethan B 30S;1011F;1015J;SP 1000 (polyamide);SP 1000;Amilan CM 1006;Gujlon;Sniamid ASN 27;Orgasol 1002;Nylon CM 1017;Ultramid BS 700;Nydur KU 2-2412;Capron 8260;M 258;Amilan 1017;Novamid ST 220;PA 6-130KS;Akulon 135;P 6-130KS;PA 6-210KS;Sydanil;Fosta 578;Capron 8207F;Durethan BM 230;Sniamid AES 34;Ube 1033;Sniamid ADS 40;Amilan CM 1046K4;Amilan CM 1056R-X3;Amilan 1016K;Capron 8202;Amilan CH 1017;Ube 1013;Emblem CN;Leona 2300;Akulon M 244H;Ube Nylon 1011GC6;1011GC6;6N4395SB;2N8365SB;A 1022LP;Silamid 13.01E-SV30;CM 1011G30;Nivionplast E 333F;NH 8001;Durethan B 38F;A 1020BRL;Capran 77A;A 1030BRT;Capron 8202NL;Capron 8202C;Miramid SH 3;CM 1021XF;Grilon CF 62;Novamid EN 107J;Grilon A 25;Ube Nylon P 1011F;1015B;Torayfan 1401;Grilon W 5744;6-Aminocaproic acid polymer;Perlon L;W 5744;Nycoa 589;CM 1010;Durethan B 31F;VPA 6;A 1025;Amilan 1017B;PA 6-120/34;NH 8101;A 8030A;XPN 1033;Maranyl B 3;T 400;Sunylon YB 6N;A 1022S;Ultramid B 4R;Toray CM 1017;Amilan CM 1026;UBE 1030B;1024FD;1013U;Itamid 58A;Itamid 58D;1013A;A 1050 (nylon);PA 6-210-310;A 1050;Spolamid ZP;P 1030;Ternil B 27;Tufnyl S 13XX;Novamid 1010C2;Durethan BKV 130H;Amilan M 1017;A 1022HR;Nylaflo;CM 1046;Danamid FE;Danamid FGF 30;Danamid FE-S 21;Danamid FE-LO;Danamid FET 30;Nivionplast 273MR;Nivionplast 303HV;XPN 1034;A 1030A;A 1120BRL;A 1020A;Nivionplast 333HV;Nydur B 40SK;Durethan B 35F;Novamid 1022;A 28GM;A 23FC;Amilan CM 1001A;CM 1021;Ultramid BS 400S;Capron 8280HS;1018FB;1020B;ADS 40;KR 4411;T 802;1013NW8;P 1010F;Capron 8224HS;Amilan CM 1021XFS;A 1030HRS;A 1030HR;A 3050;A 1030GF;A 1030GFL45;A 1030XO;EX 1020GO;S 1020 (nylon);S 1040 (nylon);A 1030GFNO;Amilan CM 1016K;S 1020;S 1040;Policapram;Ultramid B 35W;MC 160;Ultramid B 3F;Durethan B 25T;MC-nylon;KN 111;1031B;Itamid 58B;Itamid 58C;UBE 1012C;SH 3;Durethan B 40;1012C;ASN 27/33;Stilamid S 27BL;Sniamid ASN 27/33;Durethan B 38FKS;Akulon K 124;Novamid 1022CK2;Novamid 1013J;A 103;CM 1021T;Zytel 726;Toplamid 1021;Ultramid B 35;Capron 8202HS;Akulon K 136;Akulon M 223D;PAS 60 (polymer);1013BK;CM 1007;Radilon 6;T 842;Amilan CM 1097;A 1030JR;A 28;F 50;MC 100LY;Gelon A 100-1100;Toplamid 1011;Capran 77;Capron XPN 1546;1023FD;1002D-NAT;1011W;Amilan C 1017;Nylon 1023FD;Ultramid 85;Polyamides, nylon 6;B5;Ube Nylon 1013NB;Sunylon 6N;D-L-INT;UBE Nylon 6;Capron 8209;Orgamide B 3;Durethan B 31;RESNO TL;Tufnyl SB 3000;1024B;MC 161;Orgamide R;MC 140;Ultramid SB 700F;Capron XA 1767;T 850;Poly(6-aminohexanoic acid);BS 700A;Ube Nylon 1024B;A 1020;Durethan B 31SK;Selar PA 3508;Ultramid XR 4418;Ultramid KR 4407;Kanebo Nylon MC 112L;AR 1025;ε-Caprolactam homopolymer;MC 100;Amilan CM 1010T;MC 100 (nylon);Nylon A 1030BRL;Grilon F 34;Ultramid KR 4405;Amilan CM 1056;Amilan CM 1011G45;Amilan CM 1046K6B;Grilon PVZ 3H;Grilon PVS 5H;EX 1222;1024FD1;1018B;T 310 (nylon);T 310;Capron 8207FNL;1015GC3;1015GC9;1021FS;Orgasol 1002D-NAT1;Novamid 1015;Ube Nylon 1015B;Ultramid B 3WG6;Capron 8350;Akulon MEX-RP 15;H 244;BRL;8202NL-NP;Capron 8233G;Ube Nylon 1024FD1;1015C2;Novamid 1013C;1020J;Petromid 9200B;SF 1022A;Ultramid KR 4450;Ultramid KR 4455;Ultramid KR 4460;1030BRL;Novamid 1030J;T 814;Santonyl SNR;Novamid 1012C2;Durethan BG 30X;Durethan RM-KU 2-2501;MC 110;MC 110 (nylon);Vac-Pak HS 6262CO-EX;Santonyl SG;Santonyl SN;XA 1767;8209FNP;Amilan CM 1061Y;Akulon K 120;UBE 1024FD1;Capron 8267;Capron 8233G-HS;Capron 8230G-HS;Capron 8231G-HS;Capron 8232G-HS;Capron 8235G-HS;Nypel 2360;Akulon F 223D;Ultramid BS 700E;CM 1026;Emblem ON 15;1030B18;Gujlon E 35;Akulon K 224G6;Radilon 27;G 1018;Amilan PA 6;Ultramid B 25;Ube Nylon 1030B;Armamid PA-SV 20ZAP;Novamid 1035GTX;1001-15A;Poticon NT 18N;240MI;Ube Nylon 1013BK;CM 4061;Amilan CM 4061;Toplamid 1033T;Zytel 211NC10;C 316;Maranyl B 114;C 316 (nylon);Novamid 1020A;1020A;P 1011;Emblem ON 1500;P 1011 (polyamide);A 1080BRL;Ultramid B 36;Kanebo Nylon MC 112;SF 1013A;T 800;B 3K;Akulon F 124;Orgasol 1002ES4;Nyltech 2169;Durethan B 35FKA;MicroPan 777;1002FD23;Ube Nylon 1024;Ube 1024;1013BK1;Ultramid BS 700F;RV 67;Ultramid B 6W;Ultramid KR 4465G4;Ultramid B 3EG6;Akulon J 7/33;Capron 8233;Ube Nylon 1024FDX41;1024FDX41;Ultramid KR 4407F;Ultramid B 6WG4;Ultramid 6EL;ASN 275;Ultramid B 4F;T 310B;Grilon A 23;A 1030J;1010J;CM 1021FX;Durethan B 29;B 29;1011BK;M 2350;1022FD;Ube Nylon 1022FD;M 2350 (nylon);Ube Nylon 1011FB;SD 1130;Ultramid BO;Tarnamid 27;MC 110L;Elepron;Amilan CM 6246;Ultramid KR 4423/2;CM 1023;Emblem ONP;ONP;Ultramid BV 400N;MC 164;P 1010;1022GX1;Capron 9340;Miramid H 3CK;Novamid 1008;KPA 3;Kanebo Nylon KPA 3;CM 1016G30;CM 1016G45;P 1010 (polyamide);Amilan CM 1016G30;Stilamid S;Novamid 1022C6;BM 1042;P 1013 (polyamide);B 30S;P 1013;1011FD-M;CM 1011G15;Novamid 1022CK6;Capron 1250;Capron 8224HSL;Stilamid S 27;S 27;1010C2;KN 171;Ultramid B 2;Novamid 1030CA4;Ashlene 829L;Systemer FE 24001;Relon 6;A 1020 (nylon);ASN 27S;Novamid 1013GH30-1;NY 1015;Ductel B 102F;Ultramid BS 416;BS 416;Novamid 1040C4;Stilamid S 25;Novamid 1015GH35;Sniamid AES 34F;Capron B 100WP;T 810;Zytel 73G15L;A 1031BRL;Akulon F 138C;Sniamid 130CP;Radilon S 38FL1 Nat.;Nylon 1030B;N 4142;N 5342;T 27;Harden N 1102;N 1102;Akulon F 235C;K 120;Akulon K 122;6A1025;6A1022GFL60;Bonyl SC;Ashlene 830-25;Capron 8234G-HS;Capron TG 7S;Caprolan B 135WP;Novamid 1007J;Uniaslon HP 7000;600A-HS Natural A;Atron 601B;Novamid 1022CAS;Nycoa 2169;Akulon F 132E;Akulon F 135C;Akulon F 136E;Durethan B 40F;A 1030LP;Durethan KU 2-2140;M 1041LD;A 1030GFL10;Emblem ON;Grilon R 47WNZ;Rayfan 1401;Novamid X 1030;Ube Nylon 1011;Ube 1011;Capron B 135WP;1007J;UX 75;Ultramid B 3EG5;UX-M 1;UX-M 12;Rayfan NO 1401;Novamid 1020CA2;Novatec 1020CA2;Ultramid B 36F;SNP 613N;Vydyne M 344-01;MC 122;YH 500C;PA 6-211DS;Armamid PA-SV 30-3M;Technyl C 502;Akulon C 225;Domamid 27;Ube Nylon 61015GC950;Ube 61015GC950;Gujlon M 28RC;1030J;Durethan B 26;1022FDX10;Kaprolin V;Capron B 73ZP;Grilon FE 5269;A 1030QW;F 34L;B 135TP;Amilan U 121;Nylodur;Radilon S 40E100NAT;Zytel 73G30;EMS A 28GM;B 135WP;Radilon S 27;Plastron PA 6GF60-01;Kanebo Nylon MC 161;Capron HMG 10;Capron HMG 13;HMG 10;HMG 13;Ube Nylon SF 1018A;SF 1018A;Capron C 1250;Amilan CM 1001P;T 840;T 803 (nylon);Sunylon G 688;Ube Nylon 1011FK;1011FK;B 73ZP;B 5W;Ultramid B 5W;K 123GL;1022U;1013P;Zytel 7301;Specialamid PA 6;Amidroll;Technyl ASN 27/32-35LC;Schulamid PA 6GF30;Schulamid PA 6MV14;Schulamid PA 6GF15;Ultramid B 3L;Novamid 1020A7;Durethan B 35;Zytel 7300NC010;P 840;NF 8020;Capron XA 2744;M 1021T;Zytel 7331F;Honnytop T 706M;Technyl C 206;QNC 4162;Ube 1018I;Ube Nylon 1018I;Grilon R 47HWNZ;PA 20BN;Akulon K 222D;BAC;BAC (nylon);Novamid 1022CK7;Nylene 2010;Ube Nylon 1030J;Ube 1030J;Ube Nylon 1022FDX23;1022FDX23;Capron 8333GHI;Capron 8202G;DSM-M 223D;M 223D;TLP 1146;Ube Nylon 1022U;Capron XA 2935;Novamid 1010F;Nycoa 578;Durethan B 30F;Sniamid ASN 32-35;Sustavacu;Ultramid BS 3300;Ultramid BS 400N;BS 400N;BS 3300;P 1030 (nylon);A 1015;1003NW8;Ubesta PA 6;Diamiron C-Z;Ultramid B 4D;Amilan CM 1021FS;SF 1080A;1024JI;CM 1001G20;YG 10006;Z 73G30BK261;Z 73G30THSL;Zytel 73G45NC10;Z 73G50BK264;Zytel 73G30NC10;Ultramid B 6;Ultramid B 15;Dilamid 6;Novamid 1015G33;Amilan CM 1021FS4;Hylon N 2000L;1020C;Akulon F 130C;Ganpla N 6G-M;Technyl 1021;BKV 30;C 218V30;Capron 8208;Capron B 135TP;Grilon XE 3361;M 1041;Zytel 73G33L;Grilon XE 3534;1015GU6;M 1041 (nylon);MB 4020-00;Durethan B 38FKA;Durethan KU 2-2601;Capron B 205;B 205;Diamiron C;Emblem ON 25;Novamid 1007;K 122;Zytel ST 118;RMB 4020-00;Capron B 135MP;Ube 1015B;Ube 1015C2;Ube Nylon 1030B2;Ube 1030B2;PA 1011;Frianyl B 63E;B 100MP;Zytel 7301NC010;Akulon PA 6;Capron B 73WP;A 1045;Mifil PA 0.2;Mifil PA 0.1;PA 0.2;PA 0.1;Capron B 135ZP;Durethan KU 2-2142;KR 4423;B 4F;Ube Nylon 1024FD15;1024FD15;M 3350;1022BLK;Akulon F-x 9025;Durethan 30S;Akulon K 123GL;Nevimid 6MLD;Amilan CM 1107;CM 1107;Ultramid BS 400;S 1013NW8;1015GU9;Grilon Z 6504;Grilon Z 6505;Grilon Z 6506;Grilon Z 6507;Grilon Z 6508;Grilon Z 6509;Grilon Z 6510;HY 3200;M 52800;CM 1016G;Amilan CM 1201;CM 1201;Ultramid BS 700D;B 3S;Kanebo Nylon MC 100L;Novamid ES 111J;ES 111J;1022C5;Sepolsion PA 200;GL 1030;Grilon XE 3690;Unilon G 100;NRR 132;F-x 9025;F 833 (nylon);F 833;829LSW;Ultramid B 35F;G 100;PA 6/20BN;B 35F;Capron 1767;K 226G6;T 200MN;MC 901;Capran 100K;MC 901 (nylon);Danamid E;Durethan A 40E;Novamid 1022-1;AFC 2002;AFC 2001;AFC 3003;Zytel 73G30HSL-BK031;Akulon K 2-2D;Zytel 7335F;SH 6;SH 6 (polymer);FP 62E43;Novamid 1013G301;Ultramid BX 3WQ622;B 73QP;Ube Nylon 1015GU6;MC 151 (nylon);MC 151;Amilan CM 1061;CM 1061;B 120 (nylon);B 120;1022CK7;Bergamid B 90;Nylodur NT 2700;Capron 8200NL;CM 1003G30;ON 25;Novamid 1009J;1013GH30-1;MBM;BHS;MBM (nylon);BHS (nylon);Akulon XP 36E;Capron 8270HS;Ubesta 1030B;Ultramid 8202;Technyl ASN 26S-NAT;Akulon K 122D;K 222D;RTP 299AX3130A;Latamid 6B-G30;Latamid 6;RTP 299A-X98284A;Ultramid BS 403N;HY 080;Capron 8333GHS;CM 1021FS;M 23400;Radipol A 24S;Nylatron GSM;Ertalon LFX;Nylatron NSM;Teramid;Bonyl RX;Grilon BFZ 3;RTP 0200A;Tepex Dynalite 102;Tepex Dynalite 202;Akulon K 123D;Novamid 1005J;Nylon T 840;Gelon B 28N;M 22800;HK 5000;B 100QP;TP 4208;Ube 1023FD;Novamid 1013;Ube 10181;Ube Nylon 10181;F 223D;Emblem ONBC;B 135QP;Akulon K 134;Grodnamid;Ube 5015;Gujlon M 40RC;B 73WP;LPDU 601-204;Capron 8333GHIHS;Zytel 73G30HSL;Torayca 1001T15A-B11;CM 1001G15;Rodalon;Nanonylon 5/2;Nanonylon 3;PB 145;61011FB;Ube Nylon 61011FB;Capron 9233;Novamid 6Ny;EN 300;Kolon 171;Ube Nylon 1022BF;1022BF;Capron B 85QP;B 85QP;Tanagin 6 Nylon TN 100;Tanagin TN 100;NX 4512;Nylene NX 4512;Technyl HSN 27/32-35LC Natural;Perlamid;Ultramid B 35FN;B 35FN;EN 500;EN 500 (nylon);A 1015P;Capron B 135QP;Alcromid B 33;PA 6FL34;K 123;Nylon T 814;PA 6C;KN 170;Ube Nylon 6S1013NW8;6S1013NW8;Frianyl B 83H;Frianyl B 63VN;Akulon F 236C;Durethan TP 142-007;1022FD20;Domamid D 24;Akulon F 1326;TLP 1046;Toray 1001T15;YG 1000;299A-X83130A;Ultramid B 40;B 3SQ661;Ube 1007FP;Ultramid B 3Z;BASF B 40;B 40;B 100WP;Amilan M 1041T;QISHSL 301200;Akulon F 136;Technyl HSN 27;Domamid 32;Novamid 1011CH5;Novamid 1020C;B 400 (nylon);B 400;Capron B 135W;Nylene 401;Ultramid B 3NC010;M 1030DH;Nanocon M 1030D;M 1030D;Ponamid BS 300;Technyl ASAN 27/32-35LC;RD 963;M 1040;Minlon 73M30;Minlon 73M40;Isoplasmid I 27;Akulon F 232D;Santonyl SN 15;BS 400;YH 800;Restamid;1301B;Bionyl 608;Bionyl 613;Ube Nylon 1022FDX04;1022FDX04;Zytel 73G30L;Akulon K 222KGV4;Akulon 123;B 4OLN01;Technyl C 216V15;Mazmid B 370;1022FDX99;Teklamid 6;Kepamid 1700;Chemlon 212;N 350;Ube 1030U2;1030U2;Novamid 1040J;Ultramid B 40-01;M 28RC;Ube 1010X1;M 2800;Zytel 7331JNC;Zytel 21A-NC010;NH 8005;UPA 6/15;UPA 6/30;UPA 6/15AF;UPA 6/30AF;Stilamid S 24;M 32400;Ube 1020B;Ube Nylon 5021T;Radilon S 30EN;Ube 5021T;Grilon F 40NL;T 100L;Kopa 136;Capron 135;Ubesta 1011F;Capron 8202L;CM 1031T;1911FB;Novamid 1008J;Miramid ZH 3;Ultramid B 40LN;6NV12;Durethan BKV 30EF;Durethan BKV 30XF;Durethan BKV 50EF;Durethan DP-BKV 60EF;Durethan BKV 30H2.0;Durethan BKV 60EFH2.0;F 34;RTP 200A;P 1022;RX;Ultramid B 2715;B 101;Caprolone;Radilon S 40EN;B 101 (nylon);G 151;Durethan B 40FA;Schulamid 6MV13F;Accurel XP 700;Ube Nylon 1030;Ube 1030;Thermocomp HSG-P 1100A;NO 1401;Ultramid B 24N;Ube 1200FDX04;Ultramid BS 3301;Amilan CM 1017K;M 1040-207B29;M 28RG;CM 1017K;Akulon F 132E1;ON;Bergamid B 700-20;T 820;Gerstamid R 200S;Radilon S 24E100;Khimvolokno;M 32800;Bergamid B 70G30;YH 900;Technyl S 27BL;Radilon S 35-100NAT;Ultramid B 50L01;Domamid 24;Ultramid B 50L;ltramid B 50L01;A 1015LP;Ube 1011FB;Orgasol 1002D-NAT-COS;Technyl S 40;Ultramid B 2745;S 40;8202NL;Akulon F 136DH;Cress Alon NF 3040;Cress Alon NF 3020;200A;B 32;Volgamid;Technyl S 27;Ultramid B 27E;Ultramid B 33L;M 33400;Ubesta 1013B;F 132E;Ultramid B 27;F 223DH;Akulon K 224HG6;K 224HG6;T 3450;T 3150;Akulon F 223D-BK223;Akulon F 223DH;T 840SF;Ultramid B 3EG7;PA 6GF50-01;Ultramid BS 703;Ube Nylon 1015GC6;1015GC6;Technyl C 302;Novamid 1007PJ;Ultramid B 40LN01;Technyl C 502XT;C 502XT;L 211/311;Grodnomid L 211/311;Grodnomid PA6-L 211/311;Ultramid B 32E;M 1021;Ultramid B 27E01;YH 3400;PA-M 1030E;PA-M 3460N;TP 4210;M 1021 (polyamide);Aegis H 100QP;Novamid 1028EN;Sansho Nylonshot;Capron 1200;T 250;Heramid S 233 Black;Heramid S 233;T 250 (fiber);Zisamide TP 6603;Amilan 1041;Bergamid 70;F 138E;Creamon B 3H2M6;1022C6;M 104 (polyamide);M 104;Cress Alon A-NE 2740;Pamide RV 3.0;Amilan CM 1041LO;TP 4308;Technyl B 400;Technyl 97519;Zytel 7331J-NC010;Akulon Ultraflow K-FPG 8;Akulon K 224PG8;ONBC;Novamid GH 10;GH 10;Novamid 1022BLMJ;Sustamid 6;Aegis H 8202NLB;Aquamid AQ 500;MD 1020D;Dilamid 6 Naturel;M 3400;M 3400 (nylon);Novamid 1013GH20;211DS;EN 200;T 20;Grilon TSG 35/4W;T 20 (polyamide);Zytel 7304NC010;Ertanol 6SA;Technyl C 402M;Durethan B 24;NF 3040;Ultramid B 36LN01;Akulon F 130;Zisamide TP 4407;Novamid 1005PJ;Ultramid B 3201;1024FD31;KN 120;Nylon T 860;Nylon T 800;T 860;M 25001;1011BRT;Akulon F 130B;PA 6GF30;M 12400;TP 4025;Fuerkamid B-SK 1;PA 1030B;UBE Nylon 6 1015B;Ube Nylon 1013A;Grilon FG 40NL;Sniamid C 548B;FG 40;M 1021TM;A 1012;Technyl C 548B;Technyl C 536XT;Pamide 2.8;Ubesta 1024B;Bergamid B 65 Nature TP;NE 2740;Ultramid B 3SK;Radilon S;Akulon F 136C;Schulamid 6MV13;Ultramid B 32;MC 102 (polyamide);H 135QP;Zisamide TP 4208;Akulon F 138E;Ultramid B 33LN01;B 27;Durethan BKV 35CX-H2.0;Grilon BS 23;Grodnoamid LT-SV 30P;Zisamide HP 1101;A 1030BRL1;Akulon F 236;Stilamid S 26;Capron BR 30HS;Ube 1013E;Ultramid B 3S-HP;Grilon BRZ 247W;Bionyl 650;Bionyl 615;Filmon CXS 18;Grilon F 34 Natur 6030;H 100QP;BS 2;Akulon F 223D/BK223/55B;Celstran PA 6GF50;Celstran PA 6GF60;Mazmid B 260;Akulon K 125;B 40L;Akulon F 223;Technyl XCell S 218V30XL31N;Technyl C 406;Ultramid B 40L;T 100;T 100 (polyamide);Ultramid B 24N03;Ultramid B 24;Novamid 1015C;CM 101T;Armamid PA-SV 30-1;Ultramid 27ND15;KN 190-1;KN 181D;BL 1340H;Mazmid C 380;Accurel MP 700;Ultramid B 36LN;Akulon F 232;Aegis H 100MP;M 40RC;Durethan BC 700HTS;Durethan BC 304H3.0;H 8202NLB;Durethan BKV 25H3.0;Aegis H 135QP;KN 177N;Tebenyl 6-3100;Nylonshot B 600;Silamid E;Zellamid 250;Nylon 6BRT;T 720;M 2400;BS 700;M 1013B;Durethan DPBC 600HTS;Tepex Dynalite 102RG600;Durethan BKV 325Z-H2.0;Durethan BKV 315Z-H2.0;NE 2750;NE 2730;CM 1041LO;Ube 1010;Zotek N-B 50;M 52500;A 1022GFL;Akulon F 133C2;Novamid 1030CA6;Ultramid B 33;Ultramid BS 2702;Grilon BA 310;BKV 35H2.0;BKV 35H2.0EF;Ultramid B 24N01;Capran 980;K 222KGV4A;CDFH-NSIX 20K;Volgamid 27;YH 700;Domamide 28;AQ 40;B 300 (polyamide);B 300;Ube Nylon P 1011U;P 1011U;MV 14;M 32600;Aquamid AQ 24000;Aquamid AQ 27000;Aquamid AQ 34000;Aquamid AQ 40000;Nylon BRL;PA-T 4208;Technyl C 301;UN 1020;Mapex NT 0110GN;Durethan B 40FAM;Ultramid 8270HS;BASF 400N;Lumid GP 1300AP;Scanamid PA 6B140;Scancomp PA 6B140A6;Amilan CM 1014;1015BK;Nylon 1015BK;Filmon BXS;A 1030FP;Ube Nylon 1015BK;Heramid S-Neg 233;BK 223HG6;BF 223D;S 35NAT;A 1030BRF-BA;TP 4407;TR 2;A 1030FR;XC 030;Volgamid 24;Volgamid 25;Nylon 61030B;Tecomid NB 50NL-IT;PA 4208;PA 4407;Aegis H 73QP;Ultramid 8202HS;Aegis H 35ZI;H 35ZI;Grilon A 26;PK 4A (polyamide);H 35ZI-GYL;BG 25;M 2500;Glamide T 860;B 24N03;Ultramid B 26HM01;C 206F;Nycoa 1637;XC 050;Akulon F 136C1;Armamid PA-SV 30-3MUP;Armamid PA-SV 30-4MUP;Akulon K 226;Ube Nylon 1013;TNEG 5C;Ultramid 8200HS;M 2000;1022SAX1;M 2000 (polyamide);M 1010;M 2500I;M 2800I;YH 3200;CM 1001G30;T 777-02;Glamide T 777-02;Ube PA 1023FD;Ube 1018FD;Ube 1015FD;Ube Nylon 1010X1;TR 1;Radipol S 24HA;A 1020LP;B 36;BL 3280;Ube 1018A;Nycoa 568;HVF;A 1030SD;1010X1;B 500F;Aegis H 135ZP;Ultramid B 24N02;F 136E2;Griltex D 1894A;BL 2340H;Ultramid B 35G3;B 3U;B 35G3;1012C5;Kopa KN 136;A 1030GFL20;M 1030DG;A 1012LP60;Chemlon 212H;UBE Nylon 102213;1022FD37;Ube Nylon 1022FD37;Alphalon 24;Alphalon 25;Alphalon 27;Alphalon 27C;Alphalon 27D;Alphalon 32;Alphalon 33;Alphalon 36;Alphalon 40;Alphalon 40H;Technyl C 206F;Technyl 206F;Grilon F 26;Tecamid 6;A 1030GT;M 22403;Aegis H 73ZP;Aegis H 100ZP;H 100ZP;H 73ZP;H 135ZP;PA 1030;PB 1006LM-BN70745;Glamide T 800;XS 1352BL;B 27E;Ultramid B 36-01;YHF 650;H 8202NL;Amilan CM 1001G30;Schulamid 6NV12;A 1025NO;YH 3000;V 32412;M 53200;Badamid B 70;SNP Powder 13;Amilan CM 1011G15;NC 101;UBE Nylon 6 1013B;Glamide T 810;Ashlene 851;Ube Nylon 1011B;NG 320HSL;Ultramid BS 24N03;1011B;KN 138;Filmon BXH;PA 6GF10M20;Ultramid B 3WG10;Ultramid B 3WG10LF;NI 36-007;CM 1016RV;F 128;B 27PA6;MF 800;Ube 1022FD17;Ube Nylon 1022FD17;1031BRT;NY 1018A;Tecomid NB 40NL-E;Estamid 6E NAT;Ultramid B 3EG3;Ultramid B 3G8;PSB 280;RV 2.7;B 33L;Technyl C 216V30;BL 3280H;BRT;PA 210/310;A 2500;Glamide TY 791G60;Aegis H 85NP;Aegis H 50LN;YH 402SD;TP 6603;KN 126;Nylem 6;Vampamid PA 6;Celstran CFT;Radilon S 40F;Kopa KN 173HI;A 1015N;Zytel 73G30L-NC010;Belamid PA 6;M 23000;Durethan B 40FKA;Luvofilm 9706;IMNC 101;Durethan DP-BKV 60H2.0EF;Aegis H 35NP;Volgamid 32;Unitika A 1030BRT;CF-SS-PA 6-3KT2A;Tepex Dynalite 102FG290;Grilon FG 34NL;YH 400;Aegis H 95ZI;1022P;F 126C;DSM 1010C1;TLP 1066;Amilan CM 1017A;Ube Nylon 1015GU9;Castermid;BL 2340;Domamid PA 6;1017K;TebeNyl 3100;Amilan 1011G30;Eplamid 6NC-P;Aquamid 6AF;1021BRT;Alphaion 27;Emblem 25;Bazamid PA 6;BE 3340;M 2400I;Zytel 73G30HSL-BK416;Ultramid B 29HM01;B 3EG6;Grilamid TR 30LS;Toplan 1101;PA 6-210-311;PA 6-211-15;PA 6-211-17;Kopa KN 111;Akulon F 126;Ultratape B 3EC12UD01;F 136E1;Capran 75;Ube Nylon 1011FX;Ube 1011FX;B 3WG3;Badamid LA 70K;B 3ICF40;Zytel ST 7301NC;A 1030CP;GH 011-1;Ultramid B 22;AP 6;73G20L;Volgamid 34;S 133;YH 300;YH 500;Ultramid 633L;Amilan CM 1021TM;Ultramid BU 501;KN 173HI;Plastron PA 6CF40-01;Sunylon 2NBR;PA 6LG50;7333F;XCO 032;Rowalid PA 19583;6MV13;E 28 (polyamide);RPM 450;Grilon F 50 nat 6368;BN 50G10HS-BK;PA 6M2000;TPS-N 6NC;Zytel 7331J;PA 6M200;Grilon F 34NL;PA 8202;Radilon S 35NAT;Kopa KN 177N;AK 270;Radilon S 24-100NAT;Plastron PA 6GF30-01;B 29HM01;Poly(hexylene-adipamide);T 402;Toyobo Nylon T 402;Torayca TLP 1040;Nanocon M 1030DH(N);DGK 25MS;Ravamid R 200S;Nerolit A 4060;Nerolit A 3070IM;Caplon;Cetex GA-UD;Tepex 102FG290;Tepex 102RG600;Radipol S 24;Ultramid 8233G-HS-BK 106;Grilon TSG 35/4;PA 6LT-SV15PW;Ultramid 8333GHI;Aquamid 24401;J 2500;BL 1340;BG 33;XH 400;Shuperen 35N-LL;Glamide T 802;B 3109;KN 136;1022UM;Tecamid 6GF30;Sinterline XP 1537A;A 23G;Akulon PA 6C;Betamid BT 2PA6GRNS;1034B;1027BRT;Domamid AQ 500;H 95ZIT;MXD-PA;Akulon F 136E1;Zytel 7335FA-NC010;CM 1006;J 2000;Ube 1015;Ube 1034B;Celstran PA 6CF60-01;Radipol S 100-004;KA 15-1140;XC 040;SC 28;SM 33;B 248;Ultramid B 50L00;Novamid 1013GH30;Glamide T 402;Technyl C 230;T 30MCS;Tecomid NB 40NL;BL 2280;Altech A 1000/107;F 132C;BST 425;Vestamid SX 8001;8exe-U;Cast PA 6;PA 6MD15;PA 6MG55;Glamide T 803;Ube 1020;B 40LN01;B 3WG7;Evolite XS 1480;Plastron PA 6CF40;HY 2800A;Radilon S 35F100NT;HY 2500A;B 3M6;B 3EG5;1030B2;Aegis H 155ZP;MF 500;Taulman 645;EP 811;Zytel 7331;Orbimid B 27;Amilan S 133;Aquamid AQL 40;F 136C1;1014B;JG 28300;TF 2450I1;Grivory F 47 HNL-NAT6020;XC 010;XC 020;B 36LN;Ertalon 6XAU;Zytel ST 7301NC010;Nylene RD 928;J 2400;J 2800F;KT 610;Durethan BKV 60;Novamid 1010PJ;Promyde B 30P-MID;EN 400;LX 275;B 3L;8231GHS;Ultramid 8231GHS;2701BR;Glamide T 840;Kopa KN 133HBRR;Grilon BZ 3/2;Orgalloy LT 5050;TPS-N 6;PA 24000;M 2500N4;Emblem ON 5;T 28;Technyl C 246;Saxamid 126;Saxamid 126F;Sinterline XP 1501F;Ultramid B 27-01;RV 2.3;Grilon BGZ 35FC;Domamide 24;Domamid H 24;HY 2000A;Ultramid TG 7S;TG 7S;B 35EG3;YH 2800;MF 700;1022FDX32;AM 306010;Ultramid 8202C;Novamid ID 1070;Tecomid NB 40;Zisamide TP 6802;B 3601;Amilan CM 1011G30B2;BL 3240;Grilon P 300;Tepex Dynalite 202C200;V 01;Aegis MBM;C 100NC154;NB 40NLE;Novamid 1013G30;Tramid 4110G15;TK 3001;EN 350;H 2500Y;TK 2451;M 2400H;NY Bonyl ON 25;B 195UP;Lush 1;Betamid BT 1PA6GRNS;Complet LCF 30PA6-1005NAT;Genestar GC 61010;Taulman 230;Nylon 230;Akulon F 30B;BASF B 4;HY 2800;Radilon S 32E;Evolite HF-XS 1480;Amilan TR 1;CLM 200-001;Nylene 615NP;BL 3200H;BH 1800;A 7632T;Volgamide 27;Ultramid 27000;Tepex 202;Ultramid B 25M01;Econamid FL 6H1;Ultramid BE 27E;1022FDR3;F 9182;F-X 9182;Ultramid B 3WG Black;Domamid 6AV;A 24B;CL 200-001;AM 306300;Y 800;Akromid B 3ICF40;HY 2700;B 3EG7;Ultrasint PA 6;CF 2245PA60402;B 3W10;Ube Nylon 1010X;MF 200 (polyamide);MF 200;8202C;Alyamid C 2122GF30;73G20HSILBK;Akulon F 230C;Durethan BCF 30H2.0EF900111;PA 6-2100;Rugopa M 60-100NC00;EcoLon MRGF 1616BK;Ecolon 4300N;BL 40H;Anulon 114;Durethan BKV 30H3.0;J 2700;GCL 3H;Ultramid B 72;Ultramid BS 27E;BRL (polymer);A 3130;A 3130 (polyamide);Akromid B 3ICF15;Akromid B 3GF30;Akromid B 3GF60;Akromid B 3ICF20-1L;Akromid B 3GF45-1-3851;SHT-N 6NC;Domamid 33;2800A;Domamid 22;1010N2;BL 2000 (nylon);BL 2000;PA 6YH800;B 280A;HYG 2700E;GFZ 2400B;1022B22;HY 3500;Akulon PA 6HC10UD;B 3WG10;A 1015LP20;Akromid B 3GF40;HiKinlon 3816BR;Technyl XP 1501F Natural;LX 245;Domamid 6LVG50H2BK;FG 7301;BASF 8200;Akulon K 223HGM24;Ube 1122B;HF 1128L;NA 601 (polyamide);NA 601;EX 6240;M 1030DHSZ;D 3K;Durethan B 35FA;Celanese Nylfor B 2GF30;Sinterline 3400HT110 Natural;SF 1013;J 2800;Ultramid B 40N;Ube Nylon 1018SE;Reamide RA 6G00;RA 6G00 (Complete trade name is Reamide RA 6G00 from Refinverse.);Domamid PW 6FC-NC;TLP 1040;Pryme N 100L;RA 6G00;Polymide PA 6CF;Ultrasint PA 6LM Black;ON 15;GF 2245PA60402;Volgamide IM-NC 102;Akulon K-X 08581;Akulon K 112;poly(hexano-6-lactam);Sollamid B 2700;NGN 04D3;73G15HSL;CM 011G30;BL 5400H;Polimid B-AV-HF;Domamid H 22;Domamid H 1220AEG101;HY 3200A;HY 2200A;Ultramid B 35R03;Ube Nylon 1022D;Ube 1022D;1011SD;X 028 Black;J 3200 (polyamide);J 3200;Onyx FR;Ultramid B 3EG6NC;HY 2500I;UBE Nylon 1013NW8;SF 1013B;Huaflon 1040D;Tecomid NB 60NL;Domamid 6NC01;F 136DH;Ube Nylon SF 1013A;HF 1024;Tepex flowcore 102RGR2400;MF 220;NRKP 8310;Chemlon MD 82;HY 3400A;EN 350AA;HPN 9362;CL 115E2;B 3EG3;B 3WG6;Harden Film N 1102;Akulon N 22D;N 22D;Durethan BKV 25;Grilon C-CR 9;Mazmid B 153;Celstran CFR-TP-PA 6GF60-03;Dynamide CF;Dynamide GF;B 3UM6",
    "duplicated_cas_no": "9011-41-0;9011-56-7;9012-24-2;9012-86-6;9037-05-2;9044-67-1;9050-63-9;9050-92-4;9051-07-4;9051-10-9;9081-61-2;9084-77-9;11099-94-8;11111-62-9;11111-63-0;11132-75-5;26617-19-6;28156-01-6;37229-27-9;37340-00-4;37340-27-5;39291-17-3;39373-66-5;39373-85-8;50809-29-5;50922-44-6;50934-80-0;51022-83-4;51273-92-8;51281-45-9;51374-42-6;51910-34-0;53529-15-0;54242-04-5;54242-05-6;54242-06-7;54242-07-8;54242-08-9;54242-09-0;54650-52-1;56257-61-5;58391-58-5;58516-11-3;59678-60-3;60156-66-3;60408-11-9;60408-12-0;61287-61-4;61585-19-1;62046-56-4;62494-03-5;63310-21-4;67016-36-8;67255-49-6;68856-73-5;69523-39-3;69553-12-4;69553-13-5;69553-14-6;70431-27-5;70431-28-6;72994-38-8;74239-08-0;74695-72-0;75285-01-7;78449-46-4;81628-13-9;82601-29-4;87609-54-9;88233-03-8;88233-08-3;88620-10-4;88651-10-9;88652-06-6;94336-21-7;100358-60-9;100630-72-6;101040-78-2;101802-49-7;102087-80-9;104382-12-9;104625-30-1;104841-38-5;106097-29-4;106282-84-2;106282-95-5;110494-25-2;121940-14-5;122636-27-5;126902-77-0;134376-77-5;136626-11-4;137262-47-6;142902-06-5;142902-07-6;142986-06-9;145379-16-4;146090-66-6;146586-08-5;151821-11-3;156858-82-1;158707-65-4;162535-01-5;165245-55-6;168214-29-7;170137-46-9;173833-13-1;177729-55-4;177729-56-5;178668-61-6;180063-96-1;183076-03-1;183868-90-8;187758-45-8;194554-38-6;202075-85-2;206010-23-3;209343-41-9;211565-20-7;212134-17-3;253199-32-5;275800-61-8;296244-12-7;309270-08-4;327023-31-4;391604-54-9;471277-86-8;471277-87-9;557103-86-3;565470-27-1;634612-36-5;666215-81-2;666215-82-3;675840-08-1;798555-28-9;847986-86-1;862202-13-9;936620-20-1;936620-22-3;1015235-34-3;1174667-43-6;1254705-03-7;1331959-97-7;1375469-29-6;1375471-33-2;1426142-45-1;1644622-89-8;1648784-02-4;1809738-72-4;1894994-21-8;2041236-31-9;2162918-78-5;2206724-39-0;2246416-48-6;2247739-77-9;2374813-40-6;2375499-88-8;2641130-14-3;2694775-18-1;2725726-39-4;2741885-14-1;2851989-88-1;3027162-25-7",
    "SMILES": "",
    "meta_data": {
        "InChI": "",
        "InChIKey": null,
        "Canonical SMILES": "",
        "Molecular Formula": "(C<sub>6</sub>H<sub>11</sub>NO)<sub>n</sub>",
        "Molecular Mass": "",
        "Boiling Point": "226 °C @ Press: 750 Torr",
        "Melting Point": "215 °C",
        "Density": "0.8247 g/cm³ @ Temp: 20 °C"
    }
}