{
    "cas_no": "7251-53-8",
    "key_name": "Ethyl 2,3-dihydro-3-oxo-1<em>H</em>-pyrazole-4-carboxylate",
    "cn_name": null,
    "alternate_name": "1<em>H</em>-Pyrazole-4-carboxylic acid, 2,3-dihydro-3-oxo-, ethyl ester;Ethyl 2,3-dihydro-3-oxo-1<em>H</em>-pyrazole-4-carboxylate;4-Ethoxycarbonyl-5-hydroxypyrazole;4-Ethoxycarbonyl-Δ<sup>3</sup>-pyrazol-5-one;Ethyl 3-hydroxy-1<em>H</em>-pyrazole-4-carboxylate;NSC 43546;3-Oxo-2,3-dihydro-1H-pyrazole-4-carboxylic acid ethyl ester;3-Oxo-2,3-dihydro-1<em>H</em>-pyrazole-4-carboxylic acid ethyl ester;3-Hydroxypyrazole-4-carboxylic acid ethyl ester;Ethyl 3-oxo-1,2-dihydropyrazole-4-carboxylate;Ethyl 3-oxo-2,3-dihydro-1<em>H</em>-pyrazole-4-carboxylate",
    "duplicated_cas_no": "36161-83-8;43212-78-8;61330-69-6;80744-50-9;1119391-53-5",
    "SMILES": "C(OCC)(=O)C=1C(=O)NNC1",
    "meta_data": {
        "InChI": "InChI=1S/C6H8N2O3/c1-2-11-6(10)4-3-7-8-5(4)9/h3H,2H2,1H3,(H2,7,8,9)",
        "InChIKey": null,
        "Canonical SMILES": "O=C(OCC)C1=CNNC1=O",
        "Molecular Formula": "C<sub>6</sub>H<sub>8</sub>N<sub>2</sub>O<sub>3</sub>",
        "Molecular Mass": "156.14",
        "Melting Point": "140-142 °C"
    }
}