{
    "cas_no": "82-34-8",
    "key_name": "1-Nitroanthraquinone",
    "cn_name": "1-硝基蒽醌;&alpha;-硝基蒽醌;",
    "alternate_name": "9,10-Anthracenedione, 1-nitro-;Anthraquinone, 1-nitro-;1-Nitro-9,10-anthracenedione;1-Nitroanthraquinone;α-Nitroanthraquinone;1-Nitro-9,10-anthraquinone;NSC 12125;1-Nitro-9,10-dihydroanthracene-9,10-dione",
    "duplicated_cas_no": "",
    "SMILES": "O=C1C=2C(C(=O)C=3C1=CC=CC3)=CC=CC2N(=O)=O",
    "meta_data": {
        "InChI": "InChI=1S/C14H7NO4/c16-13-8-4-1-2-5-9(8)14(17)12-10(13)6-3-7-11(12)15(18)19/h1-7H",
        "InChIKey": null,
        "Canonical SMILES": "O=C1C=2C=CC=CC2C(=O)C=3C1=CC=CC3N(=O)=O",
        "Molecular Formula": "C<sub>14</sub>H<sub>7</sub>NO<sub>4</sub>",
        "Molecular Mass": "253.21",
        "Boiling Point": "270 °C",
        "Melting Point": "231.5 °C"
    }
}