{
    "cas_no": "94-13-3",
    "key_name": "Propylparaben",
    "cn_name": "尼泊金丙酯;对羟基苯甲酸丙酯;",
    "alternate_name": "Benzoic acid, 4-hydroxy-, propyl ester;Benzoic acid, <em>p</em>-hydroxy-, propyl ester;Aseptoform P;Bonomold OP;<em>p</em>-Hydroxybenzoic acid propyl ester;Nipasol;Paseptol;Preserval P;Propyl Chemosept;Nipasol M;Propylparaben;Propylparasept;Tegosept P;<em>n</em>-Propyl 4-hydroxybenzoate;Propyl 4-hydroxybenzoate;Pulvis conservans;<em>p</em>-Hydroxybenzoic propyl ester;4-Hydroxybenzoic acid propyl ester;Chemocide PK;Propagin;Propyl Butex;Solbrol P;Nipazol;Nipagin P;Nipasol P;Propyl <em>p</em>-hydroxybenzoate;<em>n</em>-Propylparaben;Mekkings P;NSC 23515;NSC 8511;propyl <em>p</em>-oxybenzoate;Paraben P;Tegasept P;Paratexin P;Trisept P",
    "duplicated_cas_no": "58339-85-8;59593-07-6",
    "SMILES": "C(OCCC)(=O)C1=CC=C(O)C=C1",
    "meta_data": {
        "InChI": "InChI=1S/C10H12O3/c1-2-7-13-10(12)8-3-5-9(11)6-4-8/h3-6,11H,2,7H2,1H3",
        "InChIKey": null,
        "Canonical SMILES": "O=C(OCCC)C1=CC=C(O)C=C1",
        "Molecular Formula": "C<sub>10</sub>H<sub>12</sub>O<sub>3</sub>",
        "Molecular Mass": "180.20",
        "Boiling Point": "294 °C",
        "Melting Point": "96-97 °C",
        "Density": "1.0630 g/cm³ @ Temp: 102 °C"
    }
}