{
    "cas_no": "69610-41-9",
    "key_name": "1,1-Dimethylethyl (2<em>S</em>)-2-formyl-1-pyrrolidinecarboxylate",
    "cn_name": "N-BOC-L-脯氨醛;(S)-2-甲醛基吡咯烷-1-甲酸叔丁酯;",
    "alternate_name": "1-Pyrrolidinecarboxylic acid, 2-formyl-, 1,1-dimethylethyl ester, (2<em>S</em>)-;1-Pyrrolidinecarboxylic acid, 2-formyl-, 1,1-dimethylethyl ester, (<em>S</em>)-;1,1-Dimethylethyl (2<em>S</em>)-2-formyl-1-pyrrolidinecarboxylate;<em>N</em>-<em>tert</em>-Butoxycarbonyl-(<em>S</em>)-prolinal;<em>tert</em>-Butoxycarbonyl-<span class=\"text-smallcaps\">L</span>-prolinal;<em>N</em>-(<em>tert</em>-Butoxycarbonyl)prolinal;<em>N</em>-(<em>tert</em>-Butoxycarbonyl)-<span class=\"text-smallcaps\">L</span>-prolinal;<em>N</em>-(<em>tert</em>-Butyloxycarbonyl)-(<em>S</em>)-prolinal;(<em>S</em>)-1-<em>tert</em>-Butoxycarbonylpyrrolidine-2-carboxaldehyde;Boc-prolinal;<em>N</em>-Boc-<span class=\"text-smallcaps\">L</span>-prolinal;<em>tert</em>-Butyl (2S)-2-formylpyrrolidine-1-carboxylate;<em>tert</em>-Butyl (2<em>S</em>)-2-formyl-1-pyrrolidinecarboxylate;(<em>S</em>)-2-Formylpyrrolidine-1-carboxylic acid tert-butyl ester;(<em>S</em>)-1-Boc-2-formylpyrrolidine;Boc-<span class=\"text-smallcaps\">L</span>-prolinal;<em>tert</em>-Butyl (<em>S</em>)-2-formylpyrrolidine-1-carboxylate;(<em>S</em>)-<em>tert</em>-Butyl 2-formylpyrrolidine-1-carboxylate;1-Pyrrolidinecarboxylic acid 2-formyl-, 1,1-dimethylethyl ester (2S)-",
    "duplicated_cas_no": "2376619-64-4",
    "SMILES": "C(OC(C)(C)C)(=O)N1[C@H](C=O)CCC1",
    "meta_data": {
        "InChI": "InChI=1S/C10H17NO3/c1-10(2,3)14-9(13)11-6-4-5-8(11)7-12/h7-8H,4-6H2,1-3H3/t8-/m0/s1",
        "InChIKey": null,
        "Canonical SMILES": "O=CC1N(C(=O)OC(C)(C)C)CCC1",
        "Molecular Formula": "C<sub>10</sub>H<sub>17</sub>NO<sub>3</sub>",
        "Molecular Mass": "199.25",
        "Boiling Point": "165 °C @ Press: 0.6 Torr"
    }
}