{
    "cas_no": "617-86-7",
    "key_name": "Triethylsilane",
    "cn_name": "三乙基硅烷;",
    "alternate_name": "Silane, triethyl-;Triethylsilane;Triethylsilicon hydride;Triethylhydrosilane;NSC 93579;LS 1320;SIT 8330.0",
    "duplicated_cas_no": "",
    "SMILES": "[SiH](CC)(CC)CC",
    "meta_data": {
        "InChI": "InChI=1S/C6H16Si/c1-4-7(5-2)6-3/h7H,4-6H2,1-3H3",
        "InChIKey": null,
        "Canonical SMILES": "CC[SiH](CC)CC",
        "Molecular Formula": "C<sub>6</sub>H<sub>16</sub>Si",
        "Molecular Mass": "116.28",
        "Boiling Point": "109 °C",
        "Melting Point": "-157 °C",
        "Density": "0.730 g/cm³"
    }
}