{
    "cas_no": "20605-41-8",
    "key_name": "Acetic acid, 2-methoxy-, hydrazide",
    "cn_name": null,
    "alternate_name": "Acetic acid, 2-methoxy-, hydrazide;Acetic acid, methoxy-, hydrazide;Methoxyacetic acid hydrazide;2-Methoxyacetic acid hydrazide;Methoxyacetylhydrazine;Methoxyacetic hydrazide;Methoxyacetyl hydrazide;<em>N</em>-(2-Methoxyacetyl)hydrazide;Methoxyacetohydrazide;2-Methoxyacetohydrazide",
    "duplicated_cas_no": "",
    "SMILES": "C(COC)(NN)=O",
    "meta_data": {
        "InChI": "InChI=1S/C3H8N2O2/c1-7-2-3(6)5-4/h2,4H2,1H3,(H,5,6)",
        "InChIKey": null,
        "Canonical SMILES": "O=C(NN)COC",
        "Molecular Formula": "C<sub>3</sub>H<sub>8</sub>N<sub>2</sub>O<sub>2</sub>",
        "Molecular Mass": "104.11",
        "Melting Point": "58-59 °C"
    }
}