{
    "cas_no": "15733-83-2",
    "key_name": "4-Methoxy-2-quinolinecarboxylic acid",
    "cn_name": "4-甲氧基-2-羧酸喹啉;4-甲氧基-2-羧酸喹啉;4-甲氧基-2-喹啉羧酸;4-甲氧基-2-喹啉羧酸, 97+%;",
    "alternate_name": "2-Quinolinecarboxylic acid, 4-methoxy-;Quinaldic acid, 4-methoxy-;4-Methoxy-2-quinolinecarboxylic acid;2-Carboxy-4-methoxyquinoline",
    "duplicated_cas_no": "",
    "SMILES": "O(C)C=1C2=C(N=C(C(O)=O)C1)C=CC=C2",
    "meta_data": {
        "InChI": "InChI=1S/C11H9NO3/c1-15-10-6-9(11(13)14)12-8-5-3-2-4-7(8)10/h2-6H,1H3,(H,13,14)",
        "InChIKey": null,
        "Canonical SMILES": "O=C(O)C1=NC=2C=CC=CC2C(OC)=C1",
        "Molecular Formula": "C<sub>11</sub>H<sub>9</sub>NO<sub>3</sub>",
        "Molecular Mass": "203.19",
        "Melting Point": "196-197 °C"
    }
}