{
    "cas_no": "1117-52-8",
    "key_name": "Farnesylacetone",
    "cn_name": "法尼基丙酮;(5E,9E)-6,10,14-三甲基十五碳-5,9,13-三烯-2-酮;",
    "alternate_name": "5,9,13-Pentadecatrien-2-one, 6,10,14-trimethyl-, (5<em>E</em>,9<em>E</em>)-;5,9,13-Pentadecatrien-2-one, 6,10,14-trimethyl-, (<em>E</em>,<em>E</em>)-;(5<em>E</em>,9<em>E</em>)-6,10,14-Trimethyl-5,9,13-pentadecatrien-2-one;Farnesylacetone;<em>E</em>,<em>E</em>-Farnesylacetone;<em>trans</em>,<em>trans</em>-Farnesylacetone;(E,E)-6,10,14-Trimethyl-5,9,13-pentadecatrien-2-one;(<em>E</em>,<em>E</em>)-6,10,14-Trimethyl-5,9,13-pentadecatrien-2-one;(5<em>E</em>,9<em>E</em>)-6,10,14-Trimethyl-5,9,13-pentadecatriene-2-one;Farnesylacetone A;(5E,9E)-6,10,14-Trimethylpentadeca-5,9,13-trien-2-one;(5<em>E</em>,9<em>E</em>)-Farnesylacetone",
    "duplicated_cas_no": "",
    "SMILES": "C(=C/CC/C(=C/CCC(C)=O)/C)(\\CCC=C(C)C)/C",
    "meta_data": {
        "InChI": "InChI=1S/C18H30O/c1-15(2)9-6-10-16(3)11-7-12-17(4)13-8-14-18(5)19/h9,11,13H,6-8,10,12,14H2,1-5H3/b16-11+,17-13+",
        "InChIKey": null,
        "Canonical SMILES": "O=C(C)CCC=C(C)CCC=C(C)CCC=C(C)C",
        "Molecular Formula": "C<sub>18</sub>H<sub>30</sub>O",
        "Molecular Mass": "262.43",
        "Boiling Point": "147-148 °C @ Press: 0.5 Torr",
        "Density": "0.8900 g/cm³ @ Temp: 20 °C"
    }
}