{
    "cas_no": "368-66-1",
    "key_name": "2,4,6-Tris(trifluoromethyl)-1,3,5-triazine",
    "cn_name": "2,4,6-三(三氟甲基)-1,3,5-三嗪;",
    "alternate_name": "1,3,5-Triazine, 2,4,6-tris(trifluoromethyl)-;<em>s</em>-Triazine, 2,4,6-tris(trifluoromethyl)-;2,4,6-Tris(trifluoromethyl)-1,3,5-triazine;2,4,6-Tris(trifluoromethyl)-<em>s</em>-triazine",
    "duplicated_cas_no": "",
    "SMILES": "C(F)(F)(F)C=1N=C(C(F)(F)F)N=C(C(F)(F)F)N1",
    "meta_data": {
        "InChI": "InChI=1S/C6F9N3/c7-4(8,9)1-16-2(5(10,11)12)18-3(17-1)6(13,14)15",
        "InChIKey": null,
        "Canonical SMILES": "FC(F)(F)C=1N=C(N=C(N1)C(F)(F)F)C(F)(F)F",
        "Molecular Formula": "C<sub>6</sub>F<sub>9</sub>N<sub>3</sub>",
        "Molecular Mass": "285.07",
        "Boiling Point": "95.5 °C",
        "Melting Point": "-24.8 °C",
        "Density": "1.5857 g/cm³ @ Temp: 26 °C"
    }
}