{
    "cas_no": "2724-69-8",
    "key_name": "<em>N</em>-Methyl-<em>N</em>′-phenylthiourea",
    "cn_name": "1-甲基-3-苯基硫脲;N-甲基-N\"-苯基硫脲;",
    "alternate_name": "Thiourea, <em>N</em>-methyl-<em>N</em>′-phenyl-;Urea, 1-methyl-3-phenyl-2-thio-;<em>N</em>-Methyl-<em>N</em>′-phenylthiourea;1-Methyl-3-phenyl-2-thiourea;1-Methyl-3-phenylthiourea;1-Methyl-3-phenylthiocarbamide;1-Phenyl-3-methylthiourea;<em>N</em>-Phenyl-<em>N</em>′-methylthiourea;N<sup>1</sup>-Methyl-N<sup>2</sup>-phenylthiourea;NSC 3736;3-Methyl-1-phenylthiourea",
    "duplicated_cas_no": "",
    "SMILES": "N(C(NC)=S)C1=CC=CC=C1",
    "meta_data": {
        "InChI": "InChI=1S/C8H10N2S/c1-9-8(11)10-7-5-3-2-4-6-7/h2-6H,1H3,(H2,9,10,11)",
        "InChIKey": null,
        "Canonical SMILES": "S=C(NC=1C=CC=CC1)NC",
        "Molecular Formula": "C<sub>8</sub>H<sub>10</sub>N<sub>2</sub>S",
        "Molecular Mass": "166.24",
        "Melting Point": "111-113 °C"
    }
}