{
    "cas_no": "3115-66-0",
    "key_name": "Phosphonium, tetrabutyl-, iodide (1:1)",
    "cn_name": "四丁基碘化膦;",
    "alternate_name": "Phosphonium, tetrabutyl-, iodide (1:1);Phosphonium, tetrabutyl-, iodide;Tetrabutylphosphonium iodide;NSC 104836",
    "duplicated_cas_no": "713543-16-9;197774-49-5",
    "SMILES": "[P+](CCCC)(CCCC)(CCCC)CCCC.[I-]",
    "meta_data": {
        "InChI": "InChI=1S/C16H36P.HI/c1-5-9-13-17(14-10-6-2,15-11-7-3)16-12-8-4;/h5-16H2,1-4H3;1H/q+1;/p-1",
        "InChIKey": null,
        "Canonical SMILES": "[I-].CCCC[P+](CCCC)(CCCC)CCCC",
        "Molecular Formula": "C<sub>16</sub>H<sub>36</sub>P.I",
        "Molecular Mass": "",
        "Melting Point": "95-96 °C"
    }
}