{
    "cas_no": "1694-29-7",
    "key_name": "3-Chloro-2,4-pentanedione",
    "cn_name": "3-氯乙酰丙酮;3-氯-2,4-戊二酮;3-氯乙酰丙酮;",
    "alternate_name": "2,4-Pentanedione, 3-chloro-;3-Chloro-2,4-pentanedione;3-Chloroacetylacetone;1-Acetyl-1-chloroacetone;3-Chloro-2,4-dioxopentane;α-Chloroacetylacetone;3-Chloro-2,4-pentadione;3-Chloropentan-2,4-dione",
    "duplicated_cas_no": "",
    "SMILES": "C(C(C)=O)(C(C)=O)Cl",
    "meta_data": {
        "InChI": "InChI=1S/C5H7ClO2/c1-3(7)5(6)4(2)8/h5H,1-2H3",
        "InChIKey": null,
        "Canonical SMILES": "O=C(C)C(Cl)C(=O)C",
        "Molecular Formula": "C<sub>5</sub>H<sub>7</sub>ClO<sub>2</sub>",
        "Molecular Mass": "134.56",
        "Boiling Point": "152 °C @ Press: 708 Torr",
        "Melting Point": "41-44.5 °C"
    }
}