{
    "cas_no": "13465-10-6",
    "key_name": "Indium chloride (InCl)",
    "cn_name": null,
    "alternate_name": "Indium chloride (InCl);Indium monochloride;Indium(1+) chloride;Indium(I) chloride",
    "duplicated_cas_no": "",
    "SMILES": "Cl[In]",
    "meta_data": {
        "InChI": "InChI=1S/ClH.In/h1H;/q;+1/p-1",
        "InChIKey": null,
        "Canonical SMILES": "Cl[In]",
        "Molecular Formula": "ClIn",
        "Molecular Mass": "",
        "Melting Point": "216 °C"
    }
}