{
    "cas_no": "540-18-1",
    "key_name": "Amyl butyrate",
    "cn_name": "丁酸戊酯;",
    "alternate_name": "Butanoic acid, pentyl ester;Butyric acid, pentyl ester;Amyl butyrate;<em>n</em>-Amyl butyrate;Pentyl butyrate;<em>n</em>-Pentyl <em>n</em>-butyrate;Pentyl butanoate;1-Pentyl butyrate;<em>n</em>-Pentyl butyrate;NSC 7935;<em>n</em>-Pentyl butanoate",
    "duplicated_cas_no": "",
    "SMILES": "C(OCCCCC)(CCC)=O",
    "meta_data": {
        "InChI": "InChI=1S/C9H18O2/c1-3-5-6-8-11-9(10)7-4-2/h3-8H2,1-2H3",
        "InChIKey": null,
        "Canonical SMILES": "O=C(OCCCCC)CCC",
        "Molecular Formula": "C<sub>9</sub>H<sub>18</sub>O<sub>2</sub>",
        "Molecular Mass": "158.24",
        "Boiling Point": "186.4 °C",
        "Melting Point": "-73.2 °C",
        "Density": "0.8823 g/cm³ @ Temp: 0 °C"
    }
}