{
    "cas_no": "103765-01-1",
    "key_name": "UCB-L 060",
    "cn_name": null,
    "alternate_name": "1-Pyrrolidineacetamide, α-ethyl-2-oxo-, (α<em>R</em>)-;1-Pyrrolidineacetamide, α-ethyl-2-oxo-, (<em>R</em>)-;(α<em>R</em>)-α-Ethyl-2-oxo-1-pyrrolidineacetamide;UCB-L 060;(2R)-2-(2-Oxopyrrolidin-1-yl)butanamide;(<em>R</em>)-Etiracetam;(R)-2-(2-Oxopyrrolidin-1-yl)butanamide",
    "duplicated_cas_no": "",
    "SMILES": "[C@H](C(N)=O)(CC)N1C(=O)CCC1",
    "meta_data": {
        "InChI": "InChI=1S/C8H14N2O2/c1-2-6(8(9)12)10-5-3-4-7(10)11/h6H,2-5H2,1H3,(H2,9,12)/t6-/m1/s1",
        "InChIKey": null,
        "Canonical SMILES": "O=C(N)C(N1C(=O)CCC1)CC",
        "Molecular Formula": "C<sub>8</sub>H<sub>14</sub>N<sub>2</sub>O<sub>2</sub>",
        "Molecular Mass": "170.21",
        "Melting Point": "114-116 °C"
    }
}