{
    "cas_no": "24922-02-9",
    "key_name": "Ethyl 3-cyclopropyl-3-oxopropanoate",
    "cn_name": "3-环丙基-3-氧代丙酸乙酯;",
    "alternate_name": "Cyclopropanepropanoic acid, β-oxo-, ethyl ester;Cyclopropanepropionic acid, β-oxo-, ethyl ester;Carbethoxymethyl cyclopropyl ketone;Ethyl 3-cyclopropyl-3-oxopropionate;Ethyl β-cyclopropyl-β-ketopropionate;Ethyl 3-cyclopropyl-3-oxopropanoate;NSC 97121",
    "duplicated_cas_no": "",
    "SMILES": "C(CC(OCC)=O)(=O)C1CC1",
    "meta_data": {
        "InChI": "InChI=1S/C8H12O3/c1-2-11-8(10)5-7(9)6-3-4-6/h6H,2-5H2,1H3",
        "InChIKey": null,
        "Canonical SMILES": "O=C(OCC)CC(=O)C1CC1",
        "Molecular Formula": "C<sub>8</sub>H<sub>12</sub>O<sub>3</sub>",
        "Molecular Mass": "156.18",
        "Boiling Point": "99-101 °C @ Press: 11 Torr"
    }
}