{
    "cas_no": "2235-01-0",
    "key_name": "1,1′-(Dimethoxymethylene)bis[benzene]",
    "cn_name": "苯甲酮二甲基缩酮;",
    "alternate_name": "Benzene, 1,1′-(dimethoxymethylene)bis-;Benzophenone, dimethyl acetal;Methane, dimethoxydiphenyl-;1,1′-(Dimethoxymethylene)bis[benzene];Dimethoxydiphenylmethane;Diphenyldimethoxymethane;Benzophenone dimethyl ketal;NSC 82332;Diphenyl ketone dimethyl acetal;[Dimethoxy(phenyl)methyl]benzene",
    "duplicated_cas_no": "",
    "SMILES": "C(OC)(OC)(C1=CC=CC=C1)C2=CC=CC=C2",
    "meta_data": {
        "InChI": "InChI=1S/C15H16O2/c1-16-15(17-2,13-9-5-3-6-10-13)14-11-7-4-8-12-14/h3-12H,1-2H3",
        "InChIKey": null,
        "Canonical SMILES": "O(C)C(OC)(C=1C=CC=CC1)C=2C=CC=CC2",
        "Molecular Formula": "C<sub>15</sub>H<sub>16</sub>O<sub>2</sub>",
        "Molecular Mass": "228.29",
        "Boiling Point": "102-105 °C @ Press: 1 Torr",
        "Melting Point": "107 °C"
    }
}