{
    "cas_no": "2380-86-1",
    "key_name": "6-Hydroxyindole",
    "cn_name": "6-羟基吲哚;",
    "alternate_name": "1<em>H</em>-Indol-6-ol;Indol-6-ol;6-Hydroxyindole",
    "duplicated_cas_no": "",
    "SMILES": "OC=1C=C2C(=CC1)C=CN2",
    "meta_data": {
        "InChI": "InChI=1S/C8H7NO/c10-7-2-1-6-3-4-9-8(6)5-7/h1-5,9-10H",
        "InChIKey": null,
        "Canonical SMILES": "OC=1C=CC=2C=CNC2C1",
        "Molecular Formula": "C<sub>8</sub>H<sub>7</sub>NO",
        "Molecular Mass": "133.15",
        "Melting Point": "125.5 °C"
    }
}