{
    "cas_no": "544-76-3",
    "key_name": "Hexadecane",
    "cn_name": "十六烷;正十六烷;",
    "alternate_name": "Hexadecane;Cetane;<em>n</em>-Hexadecane;<em>n</em>-Cetane;NSC 7334;S 6 (alkane);TS Paraffin TS 6;TS 6;MPCM 18D",
    "duplicated_cas_no": "",
    "SMILES": "C(CCCCCCCC)CCCCCCC",
    "meta_data": {
        "InChI": "InChI=1S/C16H34/c1-3-5-7-9-11-13-15-16-14-12-10-8-6-4-2/h3-16H2,1-2H3",
        "InChIKey": null,
        "Canonical SMILES": "CCCCCCCCCCCCCCCC",
        "Molecular Formula": "C<sub>16</sub>H<sub>34</sub>",
        "Molecular Mass": "226.44",
        "Boiling Point": "286.5 °C",
        "Melting Point": "18.14 °C",
        "Density": "0.77335 g/cm³ @ Temp: 20 °C"
    }
}