{
    "cas_no": "1102-19-8",
    "key_name": "4,4′-Bipyridinium, 1,1′-bis(phenylmethyl)-, chloride (1:2)",
    "cn_name": "1,1-二苄基-4,4-二吡啶二氯化物;1,1\"-二卞-4,4\"-二吡啶二氯化物;",
    "alternate_name": "4,4′-Bipyridinium, 1,1′-bis(phenylmethyl)-, chloride (1:2);4,4′-Bipyridinium, 1,1′-dibenzyl-, dichloride;4,4′-Bipyridinium, 1,1′-bis(phenylmethyl)-, dichloride;1,1′-Dibenzyl-4,4′-bipyridinium dichloride;1,1′-Dibenzyl-4,4′-dipyridinium dichloride;Benzylviologen chloride;<em>N</em>,<em>N</em>′-Dibenzyl-4,4′-dipyridinium dichloride;Benzylviologen dichloride;<em>N</em>,<em>N</em>′-Dibenzyl-4,4′-bipyridinium dichloride;Dibenzylviologen dichloride",
    "duplicated_cas_no": "",
    "SMILES": "C([N+]=1C=CC(=CC1)C=2C=C[N+](CC3=CC=CC=C3)=CC2)C4=CC=CC=C4.[Cl-]",
    "meta_data": {
        "InChI": "InChI=1S/C24H22N2.2ClH/c1-3-7-21(8-4-1)19-25-15-11-23(12-16-25)24-13-17-26(18-14-24)20-22-9-5-2-6-10-22;;/h1-18H,19-20H2;2*1H/q+2;;/p-2",
        "InChIKey": null,
        "Canonical SMILES": "[Cl-].C=1C=CC(=CC1)C[N+]2=CC=C(C=C2)C=3C=C[N+](=CC3)CC=4C=CC=CC4",
        "Molecular Formula": "C<sub>24</sub>H<sub>22</sub>N<sub>2</sub>.2Cl",
        "Molecular Mass": "",
        "Melting Point": "238 °C (decomp)"
    }
}