{
    "cas_no": "94125-34-5",
    "key_name": "Prosulfuron",
    "cn_name": "氟磺隆;1-(4-甲氧基-6-甲基-1,3,5-三嗪-2-基)-3-[2-(3,3,3-三氟丙基)苯磺酰]脲;",
    "alternate_name": "Benzenesulfonamide, <em>N</em>-[[(4-methoxy-6-methyl-1,3,5-triazin-2-yl)amino]carbonyl]-2-(3,3,3-trifluoropropyl)-;<em>N</em>-[[(4-Methoxy-6-methyl-1,3,5-triazin-2-yl)amino]carbonyl]-2-(3,3,3-trifluoropropyl)benzenesulfonamide;CGA 152005;<em>N</em>-(4-Methoxy-6-methyl-1,3,5-triazin-2-yl)-<em>N</em>′-[2-(3,3,3-trifluoroprop-1-yl)benzenesulfonyl]urea;Prosulfuron;Peak 57WG;Peak;Pik",
    "duplicated_cas_no": "",
    "SMILES": "C(CC(F)(F)F)C1=C(S(NC(NC=2N=C(OC)N=C(C)N2)=O)(=O)=O)C=CC=C1",
    "meta_data": {
        "InChI": "InChI=1S/C15H16F3N5O4S/c1-9-19-12(22-14(20-9)27-2)21-13(24)23-28(25,26)11-6-4-3-5-10(11)7-8-15(16,17)18/h3-6H,7-8H2,1-2H3,(H2,19,20,21,22,23,24)",
        "InChIKey": null,
        "Canonical SMILES": "O=C(NC1=NC(=NC(=N1)C)OC)NS(=O)(=O)C=2C=CC=CC2CCC(F)(F)F",
        "Molecular Formula": "C<sub>15</sub>H<sub>16</sub>F<sub>3</sub>N<sub>5</sub>O<sub>4</sub>S",
        "Molecular Mass": "419.38",
        "Melting Point": "155 °C (decomp)"
    }
}