{
    "cas_no": "2049-96-9",
    "key_name": "Pentyl benzoate",
    "cn_name": "苯甲酸正戊酯;",
    "alternate_name": "Benzoic acid, pentyl ester;Amyl benzoate;Pentyl benzoate;<em>n</em>-Pentyl benzoate;<em>n</em>-Amyl benzoate",
    "duplicated_cas_no": "",
    "SMILES": "C(OCCCCC)(=O)C1=CC=CC=C1",
    "meta_data": {
        "InChI": "InChI=1S/C12H16O2/c1-2-3-7-10-14-12(13)11-8-5-4-6-9-11/h4-6,8-9H,2-3,7,10H2,1H3",
        "InChIKey": null,
        "Canonical SMILES": "O=C(OCCCCC)C=1C=CC=CC1",
        "Molecular Formula": "C<sub>12</sub>H<sub>16</sub>O<sub>2</sub>",
        "Molecular Mass": "192.25",
        "Boiling Point": "137-138 °C @ Press: 15 Torr",
        "Density": "0.9520 g/cm³ @ Temp: 22 °C"
    }
}