{
    "cas_no": "608-68-4",
    "key_name": "1,4-Dimethyl 2,3-dihydroxy- (2<em>R</em>,3<em>R</em>)butanedioate",
    "cn_name": "L-(+)-酒石酸二甲酯;",
    "alternate_name": "Butanedioic acid, 2,3-dihydroxy- (2<em>R</em>,3<em>R</em>)-, 1,4-dimethyl ester;Butanedioic acid, 2,3-dihydroxy- [<em>R</em>-(<em>R</em>*,<em>R</em>*)]-, dimethyl ester;Tartaric acid, dimethyl ester, (+)-;Butanedioic acid, 2,3-dihydroxy- (2<em>R</em>,3<em>R</em>)-, dimethyl ester;1,4-Dimethyl 2,3-dihydroxy- (2<em>R</em>,3<em>R</em>)butanedioate;Dimethyl <em>d</em>-tartrate;Dimethyl tartrate;Dimethyl (+)-tartrate;Dimethyl <span class=\"text-smallcaps\">L</span>-tartrate;(2<em>R</em>,3<em>R</em>)-(+)-Dimethyl tartrate;Dimethyl (+)-<span class=\"text-smallcaps\">L</span>-tartrate;(2<em>R</em>,3<em>R</em>)-Dimethyl tartrate;<span class=\"text-smallcaps\">L</span>-Tartaric acid dimethyl ester;(+)-Tartaric acid dimethyl ester;<span class=\"text-smallcaps\">L</span>-(+)-Dimethyl tartrate;Dimethyl <span class=\"text-smallcaps\">L</span>-(+)-tartrate;Dimethyl (<em>R</em>,<em>R</em>)-tartrate;Dimethyl <span class=\"text-smallcaps\">L</span>-tartarate;NSC 517;(+)-Dimethyl L-tartarate;(+)-Dimethyl L-tartrate",
    "duplicated_cas_no": "117356-23-7;72718-98-0;89599-43-9",
    "SMILES": "[C@@H]([C@H](C(OC)=O)O)(C(OC)=O)O",
    "meta_data": {
        "InChI": "InChI=1S/C6H10O6/c1-11-5(9)3(7)4(8)6(10)12-2/h3-4,7-8H,1-2H3/t3-,4-/m1/s1",
        "InChIKey": null,
        "Canonical SMILES": "O=C(OC)C(O)C(O)C(=O)OC",
        "Molecular Formula": "C<sub>6</sub>H<sub>10</sub>O<sub>6</sub>",
        "Molecular Mass": "178.14",
        "Boiling Point": "137 °C @ Press: 16 Torr",
        "Melting Point": "58 °C (decomp)",
        "Density": "1.2306 g/cm³ @ Temp: 27 °C"
    }
}