{
    "cas_no": "76-29-9",
    "key_name": "3-Bromocamphor",
    "cn_name": "3-溴樟脑;3-溴莰酮;3-溴-1,7,7-三甲基二环[2.2.1]庚烷-2-酮;",
    "alternate_name": "Bicyclo[2.2.1]heptan-2-one, 3-bromo-1,7,7-trimethyl-;2-Bornanone, 3-bromo-;Camphor, 3-bromo-;3-Bromo-1,7,7-trimethylbicyclo[2.2.1]heptan-2-one;3-Bromocamphor;Camphor bromide;NSC 26355",
    "duplicated_cas_no": "5405-11-8",
    "SMILES": "CC12C(C)(C)C(C(Br)C1=O)CC2",
    "meta_data": {
        "InChI": "InChI=1S/C10H15BrO/c1-9(2)6-4-5-10(9,3)8(12)7(6)11/h6-7H,4-5H2,1-3H3",
        "InChIKey": null,
        "Canonical SMILES": "O=C1C(Br)C2CCC1(C)C2(C)C",
        "Molecular Formula": "C<sub>10</sub>H<sub>15</sub>BrO",
        "Molecular Mass": "231.13",
        "Boiling Point": "274 °C",
        "Melting Point": "77 °C",
        "Density": "1.484 g/cm³ @ Temp: 14 °C"
    }
}