{
    "cas_no": "5389-87-7",
    "key_name": "Geranyl chloride",
    "cn_name": "香叶基氯;",
    "alternate_name": "2,6-Octadiene, 1-chloro-3,7-dimethyl-, (2<em>E</em>)-;2,6-Octadiene, 1-chloro-3,7-dimethyl-, (<em>E</em>)-;(2<em>E</em>)-1-Chloro-3,7-dimethyl-2,6-octadiene;Geranyl chloride;<em>trans</em>-1-Chloro-3,7-dimethyl-2,6-octadiene;(<em>E</em>)-1-Chloro-3,7-dimethyl-2,6-octadiene;(<em>E</em>)-8-Chloro-2,6-dimethyl-2,6-octadiene;NSC 177220;(2<em>E</em>)-3,7-Dimethylocta-2,6-dien-1-yl chloride",
    "duplicated_cas_no": "",
    "SMILES": "C(\\CCC=C(C)C)(=C/CCl)/C",
    "meta_data": {
        "InChI": "InChI=1S/C10H17Cl/c1-9(2)5-4-6-10(3)7-8-11/h5,7H,4,6,8H2,1-3H3/b10-7+",
        "InChIKey": null,
        "Canonical SMILES": "ClCC=C(C)CCC=C(C)C",
        "Molecular Formula": "C<sub>10</sub>H<sub>17</sub>Cl",
        "Molecular Mass": "172.70",
        "Boiling Point": "103 °C @ Press: 14 Torr",
        "Density": "0.9435 g/cm³ @ Temp: 16 °C"
    }
}