{
    "cas_no": "1119-60-4",
    "key_name": "6-Heptenoic acid",
    "cn_name": "6-庚酸;6-庚酸;",
    "alternate_name": "6-Heptenoic acid;6-Heptanoic acid",
    "duplicated_cas_no": "",
    "SMILES": "C(CC(O)=O)CCC=C",
    "meta_data": {
        "InChI": "InChI=1S/C7H12O2/c1-2-3-4-5-6-7(8)9/h2H,1,3-6H2,(H,8,9)",
        "InChIKey": null,
        "Canonical SMILES": "O=C(O)CCCCC=C",
        "Molecular Formula": "C<sub>7</sub>H<sub>12</sub>O<sub>2</sub>",
        "Molecular Mass": "128.17",
        "Boiling Point": "226 °C",
        "Melting Point": "-6.5 °C",
        "Density": "0.9515 g/cm³ @ Temp: 14.9 °C"
    }
}