{
    "cas_no": "4203-50-3",
    "key_name": "Tetrahydro-2-phenoxy-2<em>H</em>-pyran",
    "cn_name": "2-苯氧基四氢吡喃;",
    "alternate_name": "2<em>H</em>-Pyran, tetrahydro-2-phenoxy-;Pyran, tetrahydro-2-phenoxy-;Tetrahydro-2-phenoxy-2<em>H</em>-pyran;2-Phenoxytetrahydropyran;Tetrahydropyran-2-yl phenyl ether;2-Phenoxytetrahydro-2<em>H</em>-pyran;Phenyl tetrahydropyranyl ether;Phenyl 2-tetrahydropyranyl ether;Tetrahydropyranyl phenyl ether;Phenyl THP ether;2-Phenoxyoxane",
    "duplicated_cas_no": "157735-42-7",
    "SMILES": "O(C1=CC=CC=C1)C2CCCCO2",
    "meta_data": {
        "InChI": "InChI=1S/C11H14O2/c1-2-6-10(7-3-1)13-11-8-4-5-9-12-11/h1-3,6-7,11H,4-5,8-9H2",
        "InChIKey": null,
        "Canonical SMILES": "O(C=1C=CC=CC1)C2OCCCC2",
        "Molecular Formula": "C<sub>11</sub>H<sub>14</sub>O<sub>2</sub>",
        "Molecular Mass": "178.23",
        "Boiling Point": "103 °C @ Press: 4 Torr"
    }
}