{
    "cas_no": "616-42-2",
    "key_name": "Dimethyl sulfite",
    "cn_name": "亚硫酸二甲酯;",
    "alternate_name": "Sulfurous acid, dimethyl ester;Methyl sulfite;Dimethyl sulfite;Dimethoxy sulfoxide;NSC 41902",
    "duplicated_cas_no": "",
    "SMILES": "S(OC)(OC)=O",
    "meta_data": {
        "InChI": "InChI=1S/C2H6O3S/c1-4-6(3)5-2/h1-2H3",
        "InChIKey": null,
        "Canonical SMILES": "O=S(OC)OC",
        "Molecular Formula": "C<sub>2</sub>H<sub>6</sub>O<sub>3</sub>S",
        "Molecular Mass": "110.13",
        "Boiling Point": "126 °C",
        "Density": "1.242 g/cm³ @ Temp: 0 °C"
    }
}