{
    "cas_no": "26248-42-0",
    "key_name": "Tridecanol",
    "cn_name": null,
    "alternate_name": "Tridecanol",
    "duplicated_cas_no": "",
    "SMILES": "",
    "meta_data": {
        "InChI": "",
        "InChIKey": null,
        "Canonical SMILES": "",
        "Molecular Formula": "C<sub>13</sub>H<sub>28</sub>O",
        "Molecular Mass": "",
        "Boiling Point": "152 °C @ Press: 14 Torr",
        "Melting Point": "30.5 °C"
    }
}