{
    "cas_no": "10361-79-2",
    "key_name": "Praseodymium chloride",
    "cn_name": "氯化镨;超干氯化镨(III);氯化镨(III);",
    "alternate_name": "Praseodymium chloride (PrCl<sub>3</sub>);Praseodymium(III) chloride;Praseodymium chloride;Praseodymium trichloride;Praseodymium(3+) chloride;NSC 621598;NSC 84276",
    "duplicated_cas_no": "",
    "SMILES": "[Pr](Cl)(Cl)Cl",
    "meta_data": {
        "InChI": "InChI=1S/3ClH.Pr/h3*1H;/q;;;+3/p-3",
        "InChIKey": null,
        "Canonical SMILES": "Cl[Pr](Cl)Cl",
        "Molecular Formula": "Cl<sub>3</sub>Pr",
        "Molecular Mass": "",
        "Melting Point": "785 °C"
    }
}