{
    "cas_no": "27333-47-7",
    "key_name": "1,3-Dihydro-1,3,3-trimethylspiro[2<em>H</em>-indole-2,3′-[3<em>H</em>]naphth[2,1-<em>b</em>][1,4]oxazine]",
    "cn_name": "1,3,3-三甲基吲哚-奈谔嗪;",
    "alternate_name": "Spiro[2<em>H</em>-indole-2,3′-[3<em>H</em>]naphth[2,1-<em>b</em>][1,4]oxazine], 1,3-dihydro-1,3,3-trimethyl-;Spiro[indoline-2,3′-[3<em>H</em>]naphth[2,1-<em>b</em>][1,4]oxazine], 1,3,3-trimethyl-;1,3-Dihydro-1,3,3-trimethylspiro[2<em>H</em>-indole-2,3′-[3<em>H</em>]naphth[2,1-<em>b</em>][1,4]oxazine];1,3,3-Trimethylspiro[indoline-2,3′-[3<em>H</em>]naphth[2,1-<em>b</em>][1,4]oxazine];Variacrol Blue A;Photorom I;Photorome I;1,3-Dihydro-1,3,3-trimethylspiro[2<em>H</em>-indole-2,3′-[3<em>H</em>]naphth[2,1-<em>h</em>][1,4]oxazine];T 1259;1,3,3-Trimethylindolinonaphthospirooxazine;1,3,3-Trimethylindolinospironaphthooxazine;1,3,3-Trimethylindolinonaphthospiroxazine;Photopia AQ Ink Blue;1′,3′,3′-Trimethylspiro[benzo[<em>f</em>][1,4]benzoxazine-3,2′-indole];1,3,3-Trimethyl-1,3-dihydrospiro[indole-2,3′-naphtho[2,1-<em>b</em>][1,4]oxazine]",
    "duplicated_cas_no": "120026-33-7;138780-10-6;199195-44-3;960373-06-2;1225595-26-5",
    "SMILES": "CC1(C)C2(N(C)C=3C1=CC=CC3)OC=4C(N=C2)=C5C(=CC4)C=CC=C5",
    "meta_data": {
        "InChI": "InChI=1S/C22H20N2O/c1-21(2)17-10-6-7-11-18(17)24(3)22(21)14-23-20-16-9-5-4-8-15(16)12-13-19(20)25-22/h4-14H,1-3H3",
        "InChIKey": null,
        "Canonical SMILES": "N1=CC2(OC3=CC=C4C=CC=CC4=C13)N(C=5C=CC=CC5C2(C)C)C",
        "Molecular Formula": "C<sub>22</sub>H<sub>20</sub>N<sub>2</sub>O",
        "Molecular Mass": "328.41",
        "Melting Point": "128 °C"
    }
}