{
    "cas_no": "1365-19-1",
    "key_name": "Linalool, oxide",
    "cn_name": "氧化芳樟醇;2-甲基-2-乙烯基-5-(alpha-羟基异丙基)四氢呋喃;",
    "alternate_name": "Linalool oxide;Linalool, epoxydihydro-;Linalool, oxide;Epoxylinalool",
    "duplicated_cas_no": "11063-76-6",
    "SMILES": "",
    "meta_data": {
        "InChI": "",
        "InChIKey": null,
        "Canonical SMILES": "",
        "Molecular Formula": "C<sub>10</sub>H<sub>18</sub>O<sub>2</sub>",
        "Molecular Mass": "",
        "Boiling Point": "68 °C @ Press: 8 Torr",
        "Density": "0.9440 g/cm³ @ Temp: 20 °C"
    }
}