{
    "uri": "substance/pt/1365191",
    "rn": "1365-19-1",
    "name": "Linalool, oxide",
    "images": [],
    "inchi": "",
    "inchiKey": "",
    "smile": "",
    "canonicalSmile": "",
    "molecularFormula": "C<sub>10</sub>H<sub>18</sub>O<sub>2</sub>",
    "molecularMass": "",
    "experimentalProperties": [
        {
            "name": "Boiling Point",
            "property": "68 °C @ Press: 8 Torr",
            "sourceNumber": 1
        },
        {
            "name": "Density",
            "property": "0.9440 g/cm³ @ Temp: 20 °C",
            "sourceNumber": 1
        }
    ],
    "propertyCitations": [
        {
            "docUri": "document/pt/document/18005553",
            "sourceNumber": 1,
            "source": "Pigulevskii, G. V.; Doklady Akademii Nauk SSSR, (1948), 63, 677-80, CAplus"
        }
    ],
    "synonyms": [
        "Linalool oxide",
        "Linalool, epoxydihydro-",
        "Linalool, oxide",
        "Epoxylinalool"
    ],
    "replacedRns": [
        "11063-76-6"
    ],
    "hasMolfile": false,
    "source": "https://commonchemistry.cas.org/detail?cas_rn=1365-19-1"
}