{
    "cas_no": "7783-28-0",
    "key_name": "Diammonium hydrogen phosphate",
    "cn_name": "磷酸氢二铵;",
    "alternate_name": "Phosphoric acid, ammonium salt (1:2);Phosphoric acid, diammonium salt;Ammonium phosphate dibasic;Diammonium hydrogen phosphate;Diammonium phosphate;Secondary ammonium phosphate;Dibasic ammonium phosphate;Ammonium monohydrogen orthophosphate;Diammonium monohydrogen phosphate;Ammonium hydrogen phosphate;Diammonium orthophosphate;Diammonium acid phosphate;Ammonium dibasic phosphate;Diammonium hydrogen orthophosphate;Ammonium hydrogen phosphate ((NH<sub>4</sub>)<sub>2</sub>HPO<sub>4</sub>);Pelor;Phos-Chek 202A;Hydrogen diammonium phosphate;Coaltrol LPA 445;Akoustan A;K 2 (phosphate);K 2;Ammonium orthophosphate dibasic;Diammonium hydrogen phosphate ((NH<sub>4</sub>)HPO<sub>4</sub>);Ammonium monohydrogen phosphate;Ammonium phosphate ((NH<sub>4</sub>)<sub>2</sub>(HPO<sub>4</sub>));Spartan AR 295;DAP;Pyrozyl WAR",
    "duplicated_cas_no": "1801523-64-7;2250073-86-8",
    "SMILES": "P(=O)(O)(O)O.N",
    "meta_data": {
        "InChI": "InChI=1S/2H3N.H3O4P/c;;1-5(2,3)4/h2*1H3;(H3,1,2,3,4)",
        "InChIKey": null,
        "Canonical SMILES": "O=P(O)(O)O.N",
        "Molecular Formula": "H<sub>3</sub>N.<sup>1</sup>/<sub>2</sub>H<sub>3</sub>O<sub>4</sub>P",
        "Molecular Mass": "",
        "Melting Point": "155 °C (decomp)",
        "Density": "1.619 g/cm³"
    }
}