{
    "cas_no": "592-77-8",
    "key_name": "2-Heptene",
    "cn_name": "2-庚烯;",
    "alternate_name": "2-Heptene",
    "duplicated_cas_no": "",
    "SMILES": "C(CCC)C=CC",
    "meta_data": {
        "InChI": "InChI=1S/C7H14/c1-3-5-7-6-4-2/h3,5H,4,6-7H2,1-2H3",
        "InChIKey": null,
        "Canonical SMILES": "C(=CCCCC)C",
        "Molecular Formula": "C<sub>7</sub>H<sub>14</sub>",
        "Molecular Mass": "98.19",
        "Boiling Point": "106-108 °C"
    }
}