{
    "cas_no": "14816-18-3",
    "key_name": "Phoxim",
    "cn_name": null,
    "alternate_name": "Phosphorothioic acid, <em>O</em>-[(cyanophenylmethylene)azanyl] <em>O</em>,<em>O</em>-diethyl ester;Glyoxylonitrile, phenyl-, oxime <em>O</em>,<em>O</em>-diethyl phosphorothioate;3,5-Dioxa-6-aza-4-phosphaoct-6-ene-8-nitrile, 4-ethoxy-7-phenyl-, 4-sulfide;Phosphorothioic acid, <em>O</em>,<em>O</em>-diethyl ester, <em>O</em>-[(α-cyanobenzylidene)amino] deriv.;BAY 77488;Bayer 77488;Phenylglyoxylonitrile oxime <em>O</em>,<em>O</em>-diethyl phosphorothioate;B 77488;Phoxim;Baythion;Benzoyl cyanide <em>O</em>-(diethoxyphosphinothioyl)oxime;Valexon;Volaton;BAY 5621;Bayer 5621;<em>O</em>,<em>O</em>-Diethyl <em>O</em>-(α-cyanobenzylideneamino) phosphorothioate;Folaton;Volaton bjdse 20;Tomiguard PE 50;Basileum SI;Basileum SI 84EC;Xylasan VL;Basileum SI 84;Sebacil;Toyothion;Jiubaojing",
    "duplicated_cas_no": "29556-99-8;35915-13-0;1195303-43-5",
    "SMILES": "P(ON=C(C#N)C1=CC=CC=C1)(OCC)(OCC)=S",
    "meta_data": {
        "InChI": "InChI=1S/C12H15N2O3PS/c1-3-15-18(19,16-4-2)17-14-12(10-13)11-8-6-5-7-9-11/h5-9H,3-4H2,1-2H3",
        "InChIKey": null,
        "Canonical SMILES": "N#CC(=NOP(=S)(OCC)OCC)C=1C=CC=CC1",
        "Molecular Formula": "C<sub>12</sub>H<sub>15</sub>N<sub>2</sub>O<sub>3</sub>PS",
        "Molecular Mass": "298.30",
        "Boiling Point": "102 °C",
        "Melting Point": "6.1 °C",
        "Density": "1.76 g/cm³ @ Temp: 20 °C"
    }
}