{
    "cas_no": "13179-98-1",
    "key_name": "1,6-Dimethoxyhexane",
    "cn_name": "1,6-二甲氧基己烷;",
    "alternate_name": "Hexane, 1,6-dimethoxy-;1,6-Dimethoxyhexane;1,6-Hexanediol 1,6-dimethyl ether",
    "duplicated_cas_no": "",
    "SMILES": "C(CCCOC)CCOC",
    "meta_data": {
        "InChI": "InChI=1S/C8H18O2/c1-9-7-5-3-4-6-8-10-2/h3-8H2,1-2H3",
        "InChIKey": null,
        "Canonical SMILES": "O(C)CCCCCCOC",
        "Molecular Formula": "C<sub>8</sub>H<sub>18</sub>O<sub>2</sub>",
        "Molecular Mass": "146.23",
        "Boiling Point": "74-74.5 °C @ Press: 30 mmHg"
    }
}