{
    "cas_no": "2116-65-6",
    "key_name": "4-Benzylpyridine",
    "cn_name": "4-苄基吡啶;4-苯甲基吡啶;",
    "alternate_name": "Pyridine, 4-(phenylmethyl)-;Pyridine, 4-benzyl-;4-(Phenylmethyl)pyridine;4-Benzylpyridine;Ba 33216;γ-Benzylpyridine;CDD 3513;NSC 8075",
    "duplicated_cas_no": "",
    "SMILES": "C(C1=CC=CC=C1)C=2C=CN=CC2",
    "meta_data": {
        "InChI": "InChI=1S/C12H11N/c1-2-4-11(5-3-1)10-12-6-8-13-9-7-12/h1-9H,10H2",
        "InChIKey": null,
        "Canonical SMILES": "N=1C=CC(=CC1)CC=2C=CC=CC2",
        "Molecular Formula": "C<sub>12</sub>H<sub>11</sub>N",
        "Molecular Mass": "169.22",
        "Boiling Point": "288 °C",
        "Melting Point": "12.4 °C",
        "Density": "1.062 g/cm³ @ Temp: 20 °C"
    }
}