{
    "cas_no": "18186-97-5",
    "key_name": "Dimethyltetramethoxydisiloxane",
    "cn_name": "1,1,3,3-四甲氧基-1,3-二甲基二硅氧烷;",
    "alternate_name": "Disiloxane, 1,1,3,3-tetramethoxy-1,3-dimethyl-;1,1,3,3-Tetramethoxy-1,3-dimethyldisiloxane;Dimethyltetramethoxydisiloxane;1,1,3,3-Tetramethoxydimethyldisiloxane;1,3-Dimethyltetramethoxydisiloxane;[Dimethoxy(methyl)silyl]oxy-dimethoxy-methylsilane",
    "duplicated_cas_no": "",
    "SMILES": "O([Si](OC)(OC)C)[Si](OC)(OC)C",
    "meta_data": {
        "InChI": "InChI=1S/C6H18O5Si2/c1-7-12(5,8-2)11-13(6,9-3)10-4/h1-6H3",
        "InChIKey": null,
        "Canonical SMILES": "O(C)[Si](OC)(O[Si](OC)(OC)C)C",
        "Molecular Formula": "C<sub>6</sub>H<sub>18</sub>O<sub>5</sub>Si<sub>2</sub>",
        "Molecular Mass": "226.38",
        "Boiling Point": "165 °C",
        "Density": "1.010 g/cm³"
    }
}