{
    "cas_no": "2451-84-5",
    "key_name": "Dibenzyl adipate",
    "cn_name": null,
    "alternate_name": "Hexanedioic acid, 1,6-bis(phenylmethyl) ester;Adipic acid, dibenzyl ester;Hexanedioic acid, bis(phenylmethyl) ester;Dibenzyl adipate",
    "duplicated_cas_no": "",
    "SMILES": "C(OC(CCCCC(OCC1=CC=CC=C1)=O)=O)C2=CC=CC=C2",
    "meta_data": {
        "InChI": "InChI=1S/C20H22O4/c21-19(23-15-17-9-3-1-4-10-17)13-7-8-14-20(22)24-16-18-11-5-2-6-12-18/h1-6,9-12H,7-8,13-16H2",
        "InChIKey": null,
        "Canonical SMILES": "O=C(OCC=1C=CC=CC1)CCCCC(=O)OCC=2C=CC=CC2",
        "Molecular Formula": "C<sub>20</sub>H<sub>22</sub>O<sub>4</sub>",
        "Molecular Mass": "326.39",
        "Boiling Point": "202-208 °C @ Press: 0.3 Torr",
        "Melting Point": "38.5-39.5 °C",
        "Density": "1.0903 g/cm³ @ Temp: 20 °C"
    }
}