{
    "cas_no": "14957-38-1",
    "key_name": "(+)-Marmin",
    "cn_name": null,
    "alternate_name": "2<em>H</em>-1-Benzopyran-2-one, 7-[[(2<em>E</em>,6<em>R</em>)-6,7-dihydroxy-3,7-dimethyl-2-octen-1-yl]oxy]-;Coumarin, 7-[(6,7-dihydroxy-3,7-dimethyl-2-octenyl)oxy]-;2<em>H</em>-1-Benzopyran-2-one, 7-[(6,7-dihydroxy-3,7-dimethyl-2-octenyl)oxy]-, [<em>R</em>-(<em>E</em>)]-;Marmin;2<em>H</em>-1-Benzopyran-2-one, 7-[[(2<em>E</em>,6<em>R</em>)-6,7-dihydroxy-3,7-dimethyl-2-octenyl]oxy]-;7-[[(2<em>E</em>,6<em>R</em>)-6,7-Dihydroxy-3,7-dimethyl-2-octen-1-yl]oxy]-2<em>H</em>-1-benzopyran-2-one;(+)-Marmin",
    "duplicated_cas_no": "15447-94-6",
    "SMILES": "O(C/C=C(/CC[C@H](C(C)(C)O)O)\\C)C=1C=C2C(=CC1)C=CC(=O)O2",
    "meta_data": {
        "InChI": "InChI=1S/C19H24O5/c1-13(4-8-17(20)19(2,3)22)10-11-23-15-7-5-14-6-9-18(21)24-16(14)12-15/h5-7,9-10,12,17,20,22H,4,8,11H2,1-3H3/b13-10+/t17-/m1/s1",
        "InChIKey": null,
        "Canonical SMILES": "O=C1OC=2C=C(OCC=C(C)CCC(O)C(O)(C)C)C=CC2C=C1",
        "Molecular Formula": "C<sub>19</sub>H<sub>24</sub>O<sub>5</sub>",
        "Molecular Mass": "332.39",
        "Melting Point": "123-124 °C"
    }
}