{
    "cas_no": "5096-73-1",
    "key_name": "6-Chloro-3-pyridazinecarboxylic acid",
    "cn_name": "6-氯哒嗪-3-羧酸;6-氯哒嗪-3-甲酸;",
    "alternate_name": "3-Pyridazinecarboxylic acid, 6-chloro-;6-Chloro-3-pyridazinecarboxylic acid;3-Chloropyridazine-6-carboxylic acid;6-Chloropyridazine-3-formic acid",
    "duplicated_cas_no": "",
    "SMILES": "C(O)(=O)C1=CC=C(Cl)N=N1",
    "meta_data": {
        "InChI": "InChI=1S/C5H3ClN2O2/c6-4-2-1-3(5(9)10)7-8-4/h1-2H,(H,9,10)",
        "InChIKey": null,
        "Canonical SMILES": "O=C(O)C1=NN=C(Cl)C=C1",
        "Molecular Formula": "C<sub>5</sub>H<sub>3</sub>ClN<sub>2</sub>O<sub>2</sub>",
        "Molecular Mass": "158.54",
        "Melting Point": "146 °C"
    }
}