{
    "cas_no": "288-47-1",
    "key_name": "Thiazole",
    "cn_name": "噻唑;",
    "alternate_name": "Thiazole;3-Azathiophene",
    "duplicated_cas_no": "857224-45-4",
    "SMILES": "C1=CSC=N1",
    "meta_data": {
        "InChI": "InChI=1S/C3H3NS/c1-2-5-3-4-1/h1-3H",
        "InChIKey": null,
        "Canonical SMILES": "N1=CSC=C1",
        "Molecular Formula": "C<sub>3</sub>H<sub>3</sub>NS",
        "Molecular Mass": "85.13",
        "Boiling Point": "118 °C",
        "Density": "1.2002 g/cm³ @ Temp: 20 °C"
    }
}