{
    "cas_no": "52068-30-1",
    "key_name": "Hydrazine, [4-(phenylmethoxy)phenyl]-, hydrochloride (1:1)",
    "cn_name": "4-苄氧基苯肼盐酸盐;",
    "alternate_name": "Hydrazine, [4-(phenylmethoxy)phenyl]-, hydrochloride (1:1);Hydrazine, [4-(phenylmethoxy)phenyl]-, monohydrochloride;Hydrazine, [<em>p</em>-(benzyloxy)phenyl]-, hydrochloride;(<em>p</em>-Benzyloxyphenyl)hydrazine hydrochloride;(4-Phenylmethoxyphenyl)hydrazine hydrochloride;(4-Benzyloxyphenyl)hydrazine hydrochloride;(4-Benzyloxyphenyl)hydrazine hydrochloride salt",
    "duplicated_cas_no": "",
    "SMILES": "O(CC1=CC=CC=C1)C2=CC=C(NN)C=C2.Cl",
    "meta_data": {
        "InChI": "InChI=1S/C13H14N2O.ClH/c14-15-12-6-8-13(9-7-12)16-10-11-4-2-1-3-5-11;/h1-9,15H,10,14H2;1H",
        "InChIKey": null,
        "Canonical SMILES": "Cl.O(C1=CC=C(C=C1)NN)CC=2C=CC=CC2",
        "Molecular Formula": "C<sub>13</sub>H<sub>14</sub>N<sub>2</sub>O.ClH",
        "Molecular Mass": "",
        "Melting Point": "185-189 °C"
    }
}