{
    "cas_no": "99208-50-1",
    "key_name": "2-(6-Oxido-6<em>H</em>-dibenz[<em>c</em>,<em>e</em>][1,2]oxaphosphorin-6-yl)-1,4-benzenediol",
    "cn_name": null,
    "alternate_name": "1,4-Benzenediol, 2-(6-oxido-6<em>H</em>-dibenz[<em>c</em>,<em>e</em>][1,2]oxaphosphorin-6-yl)-;1,4-Benzenediol, 2-(6<em>H</em>-dibenz[<em>c</em>,<em>e</em>][1,2]oxaphosphorin-6-yl)-, <em>P</em>-oxide;6<em>H</em>-Dibenz[<em>c</em>,<em>e</em>][1,2]oxaphosphorin, 1,4-benzenediol deriv.;2-(6-Oxido-6<em>H</em>-dibenz[<em>c</em>,<em>e</em>][1,2]oxaphosphorin-6-yl)-1,4-benzenediol;HCA-HQ;10-(2′,5′-Dihydroxyphenyl)-9,10-dihydro-9-oxa-10-phosphaphenanthrene 10-oxide;PHQ;10-(2,5-Dihydroxyphenyl)-9,10-dihydro-9-oxa-10-phosphaphenanthrene 10-oxide;Sanko HCA-HQ;DOPO-HQ;ODOPB;10-(2,5-Dihydroxyphenyl)-10<em>H</em>-9-oxa-10-phosphaphenanthren-10-oxide;HCA-HQ-HS;DOPO-BQ;10-(2,5-Dihydroxyphenyl)-10<em>H</em>-9-oxa-10-phosphaphenanthrene 10-oxide;10-(2,5-Dihydroxyphenyl)-9-oxa-10-phosphaphenanthrene 10-oxide;10-(2,5-Dihydroxylphenyl)-9,10-dihydro-9-oxa-10-phosphaphenanthrene 10-oxide;10-(2,5-Dihydroxyphenyl)-10-hydro-9-oxa-10-phosphaphenanthrene-10-oxide;10-(2,5-Dihydroxyphenyl)-9,10-dihydro-9-oxa-10-phenanthrene-10-oxide;HCA-HQ-HST;2-(6-Oxobenzo[<em>c</em>][2,1]benzoxaphosphinin-6-yl)benzene-1,4-diol;9,10-Dihydro-10-(2,5-dihydroxyphenyl)-9-oxa-10-phosphaphenanthrene-10-oxide",
    "duplicated_cas_no": "",
    "SMILES": "O=P1(C=2C(C=3C(O1)=CC=CC3)=CC=CC2)C4=C(O)C=CC(O)=C4",
    "meta_data": {
        "InChI": "InChI=1S/C18H13O4P/c19-12-9-10-15(20)18(11-12)23(21)17-8-4-2-6-14(17)13-5-1-3-7-16(13)22-23/h1-11,19-20H",
        "InChIKey": null,
        "Canonical SMILES": "O=P1(OC=2C=CC=CC2C=3C=CC=CC31)C4=CC(O)=CC=C4O",
        "Molecular Formula": "C<sub>18</sub>H<sub>13</sub>O<sub>4</sub>P",
        "Molecular Mass": "324.27",
        "Melting Point": "244-245 °C"
    }
}