{
    "cas_no": "29676-71-9",
    "key_name": "2-Amino-4-thiazoleacetic acid",
    "cn_name": "2-氨基噻唑-4-乙酸;",
    "alternate_name": "4-Thiazoleacetic acid, 2-amino-;2-Amino-4-thiazoleacetic acid;2-Aminothiazole-4-acetic acid;2-Amino-4-thiazolylacetic acid;SQ 272;(2-Amino-4-thiazoyl)acetic acid;2-(2-Amino-4-thiazolyl)acetic acid;(2-Amino-1,3-thiazol-4-yl)acetic acid;2-Aminothiazol-4-acetic acid;2-(2-Amino-4-thiazole)acetic acid;2-(2-Amino-1,3-thiazol-4-yl)acetic acid;2-(2-Azaniumyl-1,3-thiazol-4-yl)acetate",
    "duplicated_cas_no": "63417-46-9",
    "SMILES": "C(C(O)=O)C=1N=C(N)SC1",
    "meta_data": {
        "InChI": "InChI=1S/C5H6N2O2S/c6-5-7-3(2-10-5)1-4(8)9/h2H,1H2,(H2,6,7)(H,8,9)",
        "InChIKey": null,
        "Canonical SMILES": "O=C(O)CC=1N=C(SC1)N",
        "Molecular Formula": "C<sub>5</sub>H<sub>6</sub>N<sub>2</sub>O<sub>2</sub>S",
        "Molecular Mass": "158.18",
        "Melting Point": "131-132 °C"
    }
}