{
    "cas_no": "1908-11-8",
    "key_name": "Cholesteryl laurate",
    "cn_name": "胆固醇月桂酸酯;",
    "alternate_name": "Cholest-5-en-3-ol (3β)-, 3-dodecanoate;Cholesterol, laurate;Cholest-5-en-3-ol (3β)-, dodecanoate;Lauric acid, cholesteryl ester;Cholesteryl laurate;Cholesteryl dodecanoate;Dodecanoic acid cholesteryl ester;NSC 80701;Cholest-5-en-3β-ol laurate;5-Cholesten-3β-ol laurate;Cholesterol dodecanoate;CE(12:0)",
    "duplicated_cas_no": "137170-90-2",
    "SMILES": "C[C@@]12[C@@]3([C@]([C@]4([C@](C)(CC3)[C@@]([C@@H](CCCC(C)C)C)(CC4)[H])[H])(CC=C1C[C@@H](OC(CCCCCCCCCCC)=O)CC2)[H])[H]",
    "meta_data": {
        "InChI": "InChI=1S/C39H68O2/c1-7-8-9-10-11-12-13-14-15-19-37(40)41-32-24-26-38(5)31(28-32)20-21-33-35-23-22-34(30(4)18-16-17-29(2)3)39(35,6)27-25-36(33)38/h20,29-30,32-36H,7-19,21-28H2,1-6H3/t30-,32+,33+,34-,35+,36+,38+,39-/m1/s1",
        "InChIKey": null,
        "Canonical SMILES": "O=C(OC1CC2=CCC3C(CCC4(C)C(CCC34)C(C)CCCC(C)C)C2(C)CC1)CCCCCCCCCCC",
        "Molecular Formula": "C<sub>39</sub>H<sub>68</sub>O<sub>2</sub>",
        "Molecular Mass": "568.96",
        "Melting Point": "91-92 °C"
    }
}