{
    "cas_no": "119-26-6",
    "key_name": "(2,4-Dinitrophenyl)hydrazine",
    "cn_name": "2,4-二硝基苯肼;",
    "alternate_name": "Hydrazine, (2,4-dinitrophenyl)-;(2,4-Dinitrophenyl)hydrazine;1-Hydrazino-2,4-dinitrobenzene;DNPH;NSC 5709;1-(2,4-Dinitrophenyl)hydrazine;2,4-Dinitrobenzenehydrazine;2,4-Dinitrophenylhydrazine chromogenic assay;DNPH chromogenic assay;2,4-Dinitrophenylhydrazine",
    "duplicated_cas_no": "",
    "SMILES": "N(=O)(=O)C1=C(NN)C=CC(N(=O)=O)=C1",
    "meta_data": {
        "InChI": "InChI=1S/C6H6N4O4/c7-8-5-2-1-4(9(11)12)3-6(5)10(13)14/h1-3,8H,7H2",
        "InChIKey": null,
        "Canonical SMILES": "O=N(=O)C1=CC=C(NN)C(=C1)N(=O)=O",
        "Molecular Formula": "C<sub>6</sub>H<sub>6</sub>N<sub>4</sub>O<sub>4</sub>",
        "Molecular Mass": "198.14",
        "Melting Point": "194 °C"
    }
}