{
    "cas_no": "577-68-4",
    "key_name": "4,5-Dimethoxyphthalic acid",
    "cn_name": null,
    "alternate_name": "1,2-Benzenedicarboxylic acid, 4,5-dimethoxy-;Phthalic acid, 4,5-dimethoxy-;4,5-Dimethoxy-1,2-benzenedicarboxylic acid;<em>m</em>-Hemipinic acid;<em>m</em>-Hemipic acid;4,5-Dimethoxyphthalic acid;NSC 155484",
    "duplicated_cas_no": "",
    "SMILES": "C(O)(=O)C1=C(C(O)=O)C=C(OC)C(OC)=C1",
    "meta_data": {
        "InChI": "InChI=1S/C10H10O6/c1-15-7-3-5(9(11)12)6(10(13)14)4-8(7)16-2/h3-4H,1-2H3,(H,11,12)(H,13,14)",
        "InChIKey": null,
        "Canonical SMILES": "O=C(O)C1=CC(OC)=C(OC)C=C1C(=O)O",
        "Molecular Formula": "C<sub>10</sub>H<sub>10</sub>O<sub>6</sub>",
        "Molecular Mass": "226.18",
        "Melting Point": "179 °C"
    }
}