{
    "cas_no": "553-26-4",
    "key_name": "4,4′-Bipyridine",
    "cn_name": "4,4\"-联吡啶;",
    "alternate_name": "4,4′-Bipyridine;γ,γ′-Bipyridyl;4,4′-Dipyridyl;4,4′-Bipyridyl;4,4′-Dipyridine;4-(4-Pyridyl)pyridine;IK 12;γ,γ′-Dipyridyl;NSC 404423;SERS 420;[4,4′]Bipyridinyl",
    "duplicated_cas_no": "",
    "SMILES": "C=1(C=CN=CC1)C=2C=CN=CC2",
    "meta_data": {
        "InChI": "InChI=1S/C10H8N2/c1-5-11-6-2-9(1)10-3-7-12-8-4-10/h1-8H",
        "InChIKey": null,
        "Canonical SMILES": "N=1C=CC(=CC1)C=2C=CN=CC2",
        "Molecular Formula": "C<sub>10</sub>H<sub>8</sub>N<sub>2</sub>",
        "Molecular Mass": "156.18",
        "Boiling Point": "305 °C",
        "Melting Point": "111 °C",
        "Density": "1.23 g/cm³"
    }
}