{
    "cas_no": "1024-99-3",
    "key_name": "5-Iodouridine",
    "cn_name": "5-碘尿苷;",
    "alternate_name": "Uridine, 5-iodo-;5-Iodouridine;NSC 523375",
    "duplicated_cas_no": "25331-41-3",
    "SMILES": "O[C@H]1[C@@H](O[C@H](CO)[C@H]1O)N2C(=O)NC(=O)C(I)=C2",
    "meta_data": {
        "InChI": "InChI=1S/C9H11IN2O6/c10-3-1-12(9(17)11-7(3)16)8-6(15)5(14)4(2-13)18-8/h1,4-6,8,13-15H,2H2,(H,11,16,17)/t4-,5-,6-,8-/m1/s1",
        "InChIKey": null,
        "Canonical SMILES": "O=C1NC(=O)N(C=C1I)C2OC(CO)C(O)C2O",
        "Molecular Formula": "C<sub>9</sub>H<sub>11</sub>IN<sub>2</sub>O<sub>6</sub>",
        "Molecular Mass": "370.10",
        "Melting Point": "205-210 °C (decomp)"
    }
}