{
    "cas_no": "5470-18-8",
    "key_name": "2-Chloro-3-nitropyridine",
    "cn_name": "2-氯-3-硝基吡啶;",
    "alternate_name": "Pyridine, 2-chloro-3-nitro-;2-Chloro-3-nitropyridine;3-Nitro-2-chloropyridine;NSC 26279",
    "duplicated_cas_no": "",
    "SMILES": "N(=O)(=O)C1=C(Cl)N=CC=C1",
    "meta_data": {
        "InChI": "InChI=1S/C5H3ClN2O2/c6-5-4(8(9)10)2-1-3-7-5/h1-3H",
        "InChIKey": null,
        "Canonical SMILES": "O=N(=O)C1=CC=CN=C1Cl",
        "Molecular Formula": "C<sub>5</sub>H<sub>3</sub>ClN<sub>2</sub>O<sub>2</sub>",
        "Molecular Mass": "158.54",
        "Melting Point": "108-109 °C"
    }
}