{
    "cas_no": "110-59-8",
    "key_name": "Valeronitrile",
    "cn_name": "戊腈;正戊腈;1-氰基丁烷;",
    "alternate_name": "Pentanenitrile;Valeronitrile;Butane, 1-cyano-;Butyl cyanide;1-Cyanobutane;1-Butyl cyanide;<em>n</em>-Valeronitrile;<em>n</em>-Pentanenitrile;<em>n</em>-Butyl cyanide",
    "duplicated_cas_no": "",
    "SMILES": "C(CC#N)CC",
    "meta_data": {
        "InChI": "InChI=1S/C5H9N/c1-2-3-4-5-6/h2-4H2,1H3",
        "InChIKey": null,
        "Canonical SMILES": "N#CCCCC",
        "Molecular Formula": "C<sub>5</sub>H<sub>9</sub>N",
        "Molecular Mass": "83.13",
        "Boiling Point": "141.3 °C",
        "Melting Point": "-96.2 °C",
        "Density": "0.80361 g/cm³ @ Temp: 15 °C"
    }
}