{
    "cas_no": "609-65-4",
    "key_name": "2-Chlorobenzoyl chloride",
    "cn_name": "邻氯苯甲酰氯;2-氯苯甲酰氯;",
    "alternate_name": "Benzoyl chloride, 2-chloro-;Benzoyl chloride, <em>o</em>-chloro-;2-Chlorobenzoyl chloride;<em>o</em>-Chlorobenzoyl chloride;NSC 93897",
    "duplicated_cas_no": "",
    "SMILES": "C(Cl)(=O)C1=C(Cl)C=CC=C1",
    "meta_data": {
        "InChI": "InChI=1S/C7H4Cl2O/c8-6-4-2-1-3-5(6)7(9)10/h1-4H",
        "InChIKey": null,
        "Canonical SMILES": "O=C(Cl)C=1C=CC=CC1Cl",
        "Molecular Formula": "C<sub>7</sub>H<sub>4</sub>Cl<sub>2</sub>O",
        "Molecular Mass": "175.01",
        "Boiling Point": "238 °C",
        "Melting Point": "-4 °C"
    }
}