{
    "cas_no": "1271-28-9",
    "key_name": "Nickelocene",
    "cn_name": "双(环戊二烯)镍;二茂镍;",
    "alternate_name": "Nickelocene;Nickel, di-π-cyclopentadienyl-;Nickel, dicyclopentadienyl-;Di-π-Cyclopentadienylnickel;Dicyclopentadienylnickel;Nickel, bis(η<sup>5</sup>-2,4-cyclopentadien-1-yl)-;Bis(η<sup>5</sup>-2,4-cyclopentadien-1-yl)nickel;Bis(cyclopentadienyl)nickel(II);Bis(η<sup>5</sup>-cyclopentadienyl)nickel;Ni(cyclopentadienyl)<sub>2</sub>",
    "duplicated_cas_no": "51269-44-4;1080518-91-7",
    "SMILES": "[Ni+2]12345678([CH]=9[CH]1=[CH]2[CH-]3[CH]49)[CH]=%10[CH]5=[CH]6[CH-]7[CH]8%10",
    "meta_data": {
        "InChI": "InChI=1S/2C5H5.Ni/c2*1-2-4-5-3-1;/h2*1-5H;/q2*-1;+2",
        "InChIKey": null,
        "Canonical SMILES": "[CH]=12[CH]3=[CH]4[CH-]5[CH]1[Ni+2]23678945[CH]=%10[CH]9=[CH]8[CH-]7[CH]%106",
        "Molecular Formula": "C<sub>10</sub>H<sub>10</sub>Ni",
        "Molecular Mass": "",
        "Melting Point": "172-173 °C (decomp)"
    }
}