{
    "cas_no": "6326-27-8",
    "key_name": "Benzenecarboximidamide, 4-methyl-, hydrochloride (1:1)",
    "cn_name": "4-甲基苄脒盐酸盐;4-甲基苯甲脒盐酸盐;",
    "alternate_name": "Benzenecarboximidamide, 4-methyl-, hydrochloride (1:1);<em>p</em>-Toluamidine, monohydrochloride;Benzenecarboximidamide, 4-methyl-, monohydrochloride;4-Toluamidine hydrochloride;4-Methylbenzamidine hydrochloride;<em>p</em>-Methylbenzamidine hydrochloride",
    "duplicated_cas_no": "39800-79-8",
    "SMILES": "C(=N)(N)C1=CC=C(C)C=C1.Cl",
    "meta_data": {
        "InChI": "InChI=1S/C8H10N2.ClH/c1-6-2-4-7(5-3-6)8(9)10;/h2-5H,1H3,(H3,9,10);1H",
        "InChIKey": null,
        "Canonical SMILES": "Cl.N=C(N)C1=CC=C(C=C1)C",
        "Molecular Formula": "C<sub>8</sub>H<sub>10</sub>N<sub>2</sub>.ClH",
        "Molecular Mass": "",
        "Melting Point": "210-213 °C"
    }
}