{
    "cas_no": "929-17-9",
    "key_name": "7-Aminoheptanoic acid",
    "cn_name": "7-氨基庚酸;",
    "alternate_name": "Heptanoic acid, 7-amino-;7-Aminoheptanoic acid;ω-Aminoheptanoic acid;7-Aminoenanthic acid;ω-Aminoenanthic acid;ζ-Aminoenanthic acid;NSC 59008",
    "duplicated_cas_no": "857145-08-5",
    "SMILES": "C(CCCCN)CC(O)=O",
    "meta_data": {
        "InChI": "InChI=1S/C7H15NO2/c8-6-4-2-1-3-5-7(9)10/h1-6,8H2,(H,9,10)",
        "InChIKey": null,
        "Canonical SMILES": "O=C(O)CCCCCCN",
        "Molecular Formula": "C<sub>7</sub>H<sub>15</sub>NO<sub>2</sub>",
        "Molecular Mass": "145.20",
        "Melting Point": "186-187 °C"
    }
}