{
    "cas_no": "69876-37-5",
    "key_name": "<em>N</em>-[(Phenylmethoxy)carbonyl]-<span class=\"text-smallcaps\">L</span>-tryptophan phenylmethyl ester",
    "cn_name": null,
    "alternate_name": "<span class=\"text-smallcaps\">L</span>-Tryptophan, <em>N</em>-[(phenylmethoxy)carbonyl]-, phenylmethyl ester;<em>N</em>-[(Phenylmethoxy)carbonyl]-<span class=\"text-smallcaps\">L</span>-tryptophan phenylmethyl ester;Benzyl (<em>S</em>)-2-(benzyloxycarbonylamino)-3-(1<em>H</em>-indol-3-yl)propanoate",
    "duplicated_cas_no": "",
    "SMILES": "C([C@@H](C(OCC1=CC=CC=C1)=O)NC(OCC2=CC=CC=C2)=O)C=3C=4C(NC3)=CC=CC4",
    "meta_data": {
        "InChI": "InChI=1S/C26H24N2O4/c29-25(31-17-19-9-3-1-4-10-19)24(15-21-16-27-23-14-8-7-13-22(21)23)28-26(30)32-18-20-11-5-2-6-12-20/h1-14,16,24,27H,15,17-18H2,(H,28,30)/t24-/m0/s1",
        "InChIKey": null,
        "Canonical SMILES": "O=C(OCC=1C=CC=CC1)NC(C(=O)OCC=2C=CC=CC2)CC3=CNC=4C=CC=CC43",
        "Molecular Formula": "C<sub>26</sub>H<sub>24</sub>N<sub>2</sub>O<sub>4</sub>",
        "Molecular Mass": "428.48",
        "Melting Point": "105-108 °C"
    }
}