{
    "cas_no": "13777-23-6",
    "key_name": "Hafnium iodide (HfI<sub>4</sub>)",
    "cn_name": "碘化铪;",
    "alternate_name": "Hafnium iodide (HfI<sub>4</sub>);Hafnium tetraiodide",
    "duplicated_cas_no": "",
    "SMILES": "[Hf](I)(I)(I)I",
    "meta_data": {
        "InChI": "InChI=1S/Hf.4HI/h;4*1H/q+4;;;;/p-4",
        "InChIKey": null,
        "Canonical SMILES": "I[Hf](I)(I)I",
        "Molecular Formula": "HfI<sub>4</sub>",
        "Molecular Mass": "",
        "Boiling Point": "400 °C",
        "Density": "5.663 g/cm³"
    }
}