{
    "cas_no": "80082-65-1",
    "key_name": "(2<em>S</em>,3<em>S</em>)-3-Amino-2-methyl-4-oxo-1-azetidinesulfonic acid",
    "cn_name": "(3S-反式)-3-氨基-4-甲基-2-氧代-1-氮杂环丁烷磺酸;氨曲南主环;",
    "alternate_name": "1-Azetidinesulfonic acid, 3-amino-2-methyl-4-oxo-, (2<em>S</em>,3<em>S</em>)-;1-Azetidinesulfonic acid, 3-amino-2-methyl-4-oxo-, (2<em>S</em>-<em>trans</em>)-;(2<em>S</em>,3<em>S</em>)-3-Amino-2-methyl-4-oxo-1-azetidinesulfonic acid",
    "duplicated_cas_no": "",
    "SMILES": "S(=O)(=O)(O)N1[C@@H](C)[C@H](N)C1=O",
    "meta_data": {
        "InChI": "InChI=1S/C4H8N2O4S/c1-2-3(5)4(7)6(2)11(8,9)10/h2-3H,5H2,1H3,(H,8,9,10)/t2-,3-/m0/s1",
        "InChIKey": null,
        "Canonical SMILES": "O=C1N(C(C)C1N)S(=O)(=O)O",
        "Molecular Formula": "C<sub>4</sub>H<sub>8</sub>N<sub>2</sub>O<sub>4</sub>S",
        "Molecular Mass": "180.18",
        "Melting Point": "&gt;230 °C (decomp)"
    }
}