{
    "cas_no": "1109230-25-2",
    "key_name": "5-Bromo-3,4-dihydro-1(2<em>H</em>)-isoquinolinone",
    "cn_name": null,
    "alternate_name": "1(2<em>H</em>)-Isoquinolinone, 5-bromo-3,4-dihydro-;5-Bromo-3,4-dihydro-1(2<em>H</em>)-isoquinolinone;5-Bromo-3,4-dihydroisoquinolin-1(2<em>H</em>)-one;5-Bromo-1,2,3,4-tetrahydroisoquinolin-1-one",
    "duplicated_cas_no": "",
    "SMILES": "BrC1=C2C(C(=O)NCC2)=CC=C1",
    "meta_data": {
        "InChI": "InChI=1S/C9H8BrNO/c10-8-3-1-2-7-6(8)4-5-11-9(7)12/h1-3H,4-5H2,(H,11,12)",
        "InChIKey": null,
        "Canonical SMILES": "O=C1NCCC=2C(Br)=CC=CC12",
        "Molecular Formula": "C<sub>9</sub>H<sub>8</sub>BrNO",
        "Molecular Mass": "226.07",
        "Melting Point": "180-182.5 °C"
    }
}