{
    "cas_no": "10545-99-0",
    "key_name": "Sulfur dichloride",
    "cn_name": "二氯化硫;",
    "alternate_name": "Sulfur chloride (SCl<sub>2</sub>);Sulfur dichloride;Monosulfur dichloride;Sulfur chloride;Dichlorosulfane;Chlorine sulfide (Cl<sub>2</sub>S);Sulfur dichloride (SCl<sub>2</sub>);Dichlorosulfur",
    "duplicated_cas_no": "39461-36-4",
    "SMILES": "S(Cl)Cl",
    "meta_data": {
        "InChI": "InChI=1S/Cl2S/c1-3-2",
        "InChIKey": null,
        "Canonical SMILES": "ClSCl",
        "Molecular Formula": "Cl<sub>2</sub>S",
        "Molecular Mass": "102.97",
        "Boiling Point": "59-59.5 °C",
        "Melting Point": "-78 °C",
        "Density": "1.621 g/cm³ @ Temp: 15 °C"
    }
}