{
    "cas_no": "23099-21-0",
    "key_name": "3-(Aminomethyl)piperidine",
    "cn_name": "3-氨甲基哌啶;",
    "alternate_name": "3-Piperidinemethanamine;Piperidine, 3-(aminomethyl)-;3-(Aminomethyl)piperidine;(3-Piperidinylmethyl)amine;1-(Piperidin-3-yl)methanamine;(Piperidin-3-yl)methanamine",
    "duplicated_cas_no": "",
    "SMILES": "C(N)C1CCCNC1",
    "meta_data": {
        "InChI": "InChI=1S/C6H14N2/c7-4-6-2-1-3-8-5-6/h6,8H,1-5,7H2",
        "InChIKey": null,
        "Canonical SMILES": "NCC1CNCCC1",
        "Molecular Formula": "C<sub>6</sub>H<sub>14</sub>N<sub>2</sub>",
        "Molecular Mass": "114.19",
        "Boiling Point": "89 °C @ Press: 18 Torr"
    }
}