{
    "cas_no": "2122-61-4",
    "key_name": "4-Amino-3,5-diiodobenzoic acid",
    "cn_name": "4-氨基-3,5-二碘苯甲酸;",
    "alternate_name": "Benzoic acid, 4-amino-3,5-diiodo-;4-Amino-3,5-diiodobenzoic acid;3,5-Diiodo-4-aminobenzoic acid;NSC 57118",
    "duplicated_cas_no": "",
    "SMILES": "C(O)(=O)C1=CC(I)=C(N)C(I)=C1",
    "meta_data": {
        "InChI": "InChI=1S/C7H5I2NO2/c8-4-1-3(7(11)12)2-5(9)6(4)10/h1-2H,10H2,(H,11,12)",
        "InChIKey": null,
        "Canonical SMILES": "O=C(O)C1=CC(I)=C(N)C(I)=C1",
        "Molecular Formula": "C<sub>7</sub>H<sub>5</sub>I<sub>2</sub>NO<sub>2</sub>",
        "Molecular Mass": "388.93",
        "Melting Point": "&gt;310 °C"
    }
}