{
    "cas_no": "4027-54-7",
    "key_name": "3-Phenyl-5-(trifluoromethyl)-1<em>H</em>-pyrazole",
    "cn_name": "5-苯基-3-(三氟甲基)吡唑;",
    "alternate_name": "1<em>H</em>-Pyrazole, 3-phenyl-5-(trifluoromethyl)-;Pyrazole, 3-phenyl-5-(trifluoromethyl)-;Pyrazole, 3(<em>or</em> 5)-phenyl-5(<em>or</em> 3)-(trifluoromethyl)-;3-Phenyl-5-(trifluoromethyl)-1<em>H</em>-pyrazole;5-Phenyl-3-(trifluoromethyl)pyrazole",
    "duplicated_cas_no": "145574-08-9;171000-76-3;192578-22-6;198348-87-7;204130-96-1;851645-56-2;948293-66-1;1456594-02-7;2104659-28-9;2408885-85-6;2803116-18-7",
    "SMILES": "C(F)(F)(F)C1=CC(=NN1)C2=CC=CC=C2",
    "meta_data": {
        "InChI": "InChI=1S/C10H7F3N2/c11-10(12,13)9-6-8(14-15-9)7-4-2-1-3-5-7/h1-6H,(H,14,15)",
        "InChIKey": null,
        "Canonical SMILES": "FC(F)(F)C1=CC(=NN1)C=2C=CC=CC2",
        "Molecular Formula": "C<sub>10</sub>H<sub>7</sub>F<sub>3</sub>N<sub>2</sub>",
        "Molecular Mass": "212.17",
        "Melting Point": "123-124 °C"
    }
}