{
    "cas_no": "2445-07-0",
    "key_name": "Bis(dimethylthiocarbamylthio)methyl arsine",
    "cn_name": "福美甲胂;双二甲基二硫代氨基甲酸甲胂;",
    "alternate_name": "Carbamodithioic acid, <em>N</em>,<em>N</em>-dimethyl-, <em>C</em>,<em>C</em>′-bis(anhydrosulfide) with <em>As</em>-methylarsonodithious acid;Carbamic acid, dimethyldithio-, bis(anhydrosulfide) with dithiomethanearsonous acid;Carbamodithioic acid, dimethyl-, bis(anhydrosulfide) with methylarsonodithious acid;Bis(dimethylthiocarbamylthio)methyl arsine;Methyl arsine-bis(dimethyldithiocarbamate);Methylbis(dimethylthiocarbamoylthio)arsine;Urbacid;Urbacide",
    "duplicated_cas_no": "",
    "SMILES": "[As](SC(N(C)C)=S)(SC(N(C)C)=S)C",
    "meta_data": {
        "InChI": "InChI=1S/C7H15AsN2S4/c1-8(13-6(11)9(2)3)14-7(12)10(4)5/h1-5H3",
        "InChIKey": null,
        "Canonical SMILES": "S=C(S[As](SC(=S)N(C)C)C)N(C)C",
        "Molecular Formula": "C<sub>7</sub>H<sub>15</sub>AsN<sub>2</sub>S<sub>4</sub>",
        "Molecular Mass": "330.39",
        "Melting Point": "144 °C"
    }
}