{
    "cas_no": "122537-60-4",
    "key_name": "(3<em>S</em>,4a<em>S</em>,6a<em>S</em>,7a<em>R</em>,10a<em>S</em>,11a<em>S</em>,11b<em>R</em>,11c<em>R</em>)-3-(Acetyloxy)-1,2,3,4,4a,5,6,11a,11b,11c-decahydro-4,4,8,11c-tetramethylbisoxireno[1,10a:3,4]phenanthro[3,2-<em>b</em>]furan-9(7a<em>H</em>)-one",
    "cn_name": null,
    "alternate_name": "Bisoxireno[1,10a:3,4]phenanthro[3,2-<em>b</em>]furan-9(7a<em>H</em>)-one, 3-(acetyloxy)-1,2,3,4,4a,5,6,11a,11b,11c-decahydro-4,4,8,11c-tetramethyl-, (3<em>S</em>,4a<em>S</em>,6a<em>S</em>,7a<em>R</em>,10a<em>S</em>,11a<em>S</em>,11b<em>R</em>,11c<em>R</em>)-;Bisoxireno[1,10a:3,4]phenanthro[3,2-<em>b</em>]furan-9(7a<em>H</em>)-one, 3-(acetyloxy)-1,2,3,4,4a,5,6,11a,11b,11c-decahydro-4,4,8,11c-tetramethyl-, [3<em>S</em>-(3α,4aα,6a<em>R</em>*,7aβ,10a<em>R</em>*,11aα,11bα,11cβ)]-;(3<em>S</em>,4a<em>S</em>,6a<em>S</em>,7a<em>R</em>,10a<em>S</em>,11a<em>S</em>,11b<em>R</em>,11c<em>R</em>)-3-(Acetyloxy)-1,2,3,4,4a,5,6,11a,11b,11c-decahydro-4,4,8,11c-tetramethylbisoxireno[1,10a:3,4]phenanthro[3,2-<em>b</em>]furan-9(7a<em>H</em>)-one;Gelomulide B",
    "duplicated_cas_no": "",
    "SMILES": "C[C@]12[C@]3([C@]4([C@](O4)(C=5[C@@]6([C@]3(O6)[H])OC(=O)C5C)[H])CC[C@@]1(C(C)(C)[C@@H](OC(C)=O)CC2)[H])[H]",
    "meta_data": {
        "InChI": "InChI=1S/C22H28O6/c1-10-14-16-21(26-16)9-6-12-19(3,4)13(25-11(2)23)7-8-20(12,5)15(21)17-22(14,27-17)28-18(10)24/h12-13,15-17H,6-9H2,1-5H3/t12-,13+,15+,16-,17+,20-,21+,22+/m1/s1",
        "InChIKey": null,
        "Canonical SMILES": "O=C1OC23OC3C4C5(OC5C2=C1C)CCC6C(C)(C)C(OC(=O)C)CCC64C",
        "Molecular Formula": "C<sub>22</sub>H<sub>28</sub>O<sub>6</sub>",
        "Molecular Mass": "388.45",
        "Melting Point": "252 °C"
    }
}