{
    "cas_no": "6670-13-9",
    "key_name": "4,5-Diphenyl-2(3<em>H</em>)-oxazolethione",
    "cn_name": null,
    "alternate_name": "2(3<em>H</em>)-Oxazolethione, 4,5-diphenyl-;4-Oxazoline-2-thione, 4,5-diphenyl-;4,5-Diphenyl-2(3<em>H</em>)-oxazolethione;4,5-Diphenyl-Δ<sup>4</sup>-oxazoline-2-thione;4,5-Diphenyl-4-oxazoline-2-thione;4,5-Diphenyl-2-mercaptooxazole;4,5-Diphenyl-1,3-isoxazole-2-thiol;2-Mercapto-4,5-diphenyloxazole",
    "duplicated_cas_no": "10090-94-5",
    "SMILES": "S=C1NC(=C(O1)C2=CC=CC=C2)C3=CC=CC=C3",
    "meta_data": {
        "InChI": "InChI=1S/C15H11NOS/c18-15-16-13(11-7-3-1-4-8-11)14(17-15)12-9-5-2-6-10-12/h1-10H,(H,16,18)",
        "InChIKey": null,
        "Canonical SMILES": "S=C1OC(C=2C=CC=CC2)=C(N1)C=3C=CC=CC3",
        "Molecular Formula": "C<sub>15</sub>H<sub>11</sub>NOS",
        "Molecular Mass": "253.32",
        "Melting Point": "260 °C"
    }
}