{
    "cas_no": "3956-07-8",
    "key_name": "4-Iodobenzamide",
    "cn_name": null,
    "alternate_name": "Benzamide, 4-iodo-;Benzamide, <em>p</em>-iodo-;4-Iodobenzamide;<em>p</em>-Iodobenzamide;NSC 136972",
    "duplicated_cas_no": "",
    "SMILES": "C(N)(=O)C1=CC=C(I)C=C1",
    "meta_data": {
        "InChI": "InChI=1S/C7H6INO/c8-6-3-1-5(2-4-6)7(9)10/h1-4H,(H2,9,10)",
        "InChIKey": null,
        "Canonical SMILES": "O=C(N)C1=CC=C(I)C=C1",
        "Molecular Formula": "C<sub>7</sub>H<sub>6</sub>INO",
        "Molecular Mass": "247.03",
        "Melting Point": "213-216 °C"
    }
}