{
    "cas_no": "3934-84-7",
    "key_name": "3-<em>O</em>-Methylgallic acid",
    "cn_name": "3-O-甲基没食子酸;",
    "alternate_name": "Benzoic acid, 3,4-dihydroxy-5-methoxy-;Protocatechuic acid, 5-methoxy-;3,4-Dihydroxy-5-methoxybenzoic acid;3-Methoxygallic acid;4,5-Dihydroxy-<em>m</em>-anisic acid;3-<em>O</em>-Methylgallic acid;4,5-Dihydroxy-3-methoxybenzoic acid;3-Methoxy-4,5-dihydroxybenzoic acid;5-Methoxygallic acid;5-Hydroxyvanillic acid;Gallic acid 3-methyl ether",
    "duplicated_cas_no": "",
    "SMILES": "O(C)C1=CC(C(O)=O)=CC(O)=C1O",
    "meta_data": {
        "InChI": "InChI=1S/C8H8O5/c1-13-6-3-4(8(11)12)2-5(9)7(6)10/h2-3,9-10H,1H3,(H,11,12)",
        "InChIKey": null,
        "Canonical SMILES": "O=C(O)C1=CC(O)=C(O)C(OC)=C1",
        "Molecular Formula": "C<sub>8</sub>H<sub>8</sub>O<sub>5</sub>",
        "Molecular Mass": "184.15",
        "Melting Point": "220 °C"
    }
}