{
    "cas_no": "21744-84-3",
    "key_name": "4-Methyl-2<em>H</em>-1,4-benzoxazin-3(4<em>H</em>)-one",
    "cn_name": "4-甲基-2H-1,4-苯并恶嗪-3(4H)-酮;",
    "alternate_name": "2<em>H</em>-1,4-Benzoxazin-3(4<em>H</em>)-one, 4-methyl-;4-Methyl-2<em>H</em>-1,4-benzoxazin-3(4<em>H</em>)-one",
    "duplicated_cas_no": "",
    "SMILES": "CN1C=2C(OCC1=O)=CC=CC2",
    "meta_data": {
        "InChI": "InChI=1S/C9H9NO2/c1-10-7-4-2-3-5-8(7)12-6-9(10)11/h2-5H,6H2,1H3",
        "InChIKey": null,
        "Canonical SMILES": "O=C1N(C=2C=CC=CC2OC1)C",
        "Molecular Formula": "C<sub>9</sub>H<sub>9</sub>NO<sub>2</sub>",
        "Molecular Mass": "163.17",
        "Melting Point": "57-58 °C"
    }
}