{
    "cas_no": "3430-26-0",
    "key_name": "2,5-Dibromo-4-methylpyridine",
    "cn_name": "2,5-二溴-4-甲基吡啶;",
    "alternate_name": "Pyridine, 2,5-dibromo-4-methyl-;4-Picoline, 2,5-dibromo-;2,5-Dibromo-4-methylpyridine;2,5-Dibromo-4-picoline",
    "duplicated_cas_no": "",
    "SMILES": "CC=1C(Br)=CN=C(Br)C1",
    "meta_data": {
        "InChI": "InChI=1S/C6H5Br2N/c1-4-2-6(8)9-3-5(4)7/h2-3H,1H3",
        "InChIKey": null,
        "Canonical SMILES": "BrC1=NC=C(Br)C(=C1)C",
        "Molecular Formula": "C<sub>6</sub>H<sub>5</sub>Br<sub>2</sub>N",
        "Molecular Mass": "250.92",
        "Melting Point": "37-38 °C"
    }
}