{
    "cas_no": "870281-86-0",
    "key_name": "2-[(1<em>S</em>)-1-Aminopropyl]-5-fluoro-3-phenyl-4(3<em>H</em>)-quinazolinone",
    "cn_name": null,
    "alternate_name": "4(3<em>H</em>)-Quinazolinone, 2-[(1<em>S</em>)-1-aminopropyl]-5-fluoro-3-phenyl-;2-[(1<em>S</em>)-1-Aminopropyl]-5-fluoro-3-phenyl-4(3<em>H</em>)-quinazolinone;(<em>S</em>)-2-(1-Aminopropyl)-5-fluoro-3-phenylquinazolin-4(3<em>H</em>)-one;(<em>S</em>)-1-(5-Fluoro-4-oxo-3-phenyl-3,4-dihydroquinazolin-2-yl)propan-1-amine;2-[(1S)-1-Aminopropyl]-5-fluoro-3-phenylquinazolin-4-one",
    "duplicated_cas_no": "",
    "SMILES": "[C@@H](CC)(N)C=1N(C(=O)C=2C(N1)=CC=CC2F)C3=CC=CC=C3",
    "meta_data": {
        "InChI": "InChI=1S/C17H16FN3O/c1-2-13(19)16-20-14-10-6-9-12(18)15(14)17(22)21(16)11-7-4-3-5-8-11/h3-10,13H,2,19H2,1H3/t13-/m0/s1",
        "InChIKey": null,
        "Canonical SMILES": "O=C1C=2C(F)=CC=CC2N=C(N1C=3C=CC=CC3)C(N)CC",
        "Molecular Formula": "C<sub>17</sub>H<sub>16</sub>FN<sub>3</sub>O",
        "Molecular Mass": "297.33",
        "Melting Point": "166-167 °C"
    }
}