{
    "cas_no": "1897-43-4",
    "key_name": "2,5-Dichloro-1,4-benzenedicarbonitrile",
    "cn_name": "2,5-二氯对苯二腈;",
    "alternate_name": "1,4-Benzenedicarbonitrile, 2,5-dichloro-;Terephthalonitrile, 2,5-dichloro-;2,5-Dichloro-1,4-benzenedicarbonitrile;2,5-Dichloroterephthalonitrile;2,5-Dichloro-1,4-benzodinitrile",
    "duplicated_cas_no": "",
    "SMILES": "C(#N)C1=C(Cl)C=C(C#N)C(Cl)=C1",
    "meta_data": {
        "InChI": "InChI=1S/C8H2Cl2N2/c9-7-1-5(3-11)8(10)2-6(7)4-12/h1-2H",
        "InChIKey": null,
        "Canonical SMILES": "N#CC1=CC(Cl)=C(C#N)C=C1Cl",
        "Molecular Formula": "C<sub>8</sub>H<sub>2</sub>Cl<sub>2</sub>N<sub>2</sub>",
        "Molecular Mass": "197.02",
        "Melting Point": "214-215 °C"
    }
}