{
    "cas_no": "3770-82-9",
    "key_name": "1,3-Dibenzoylbenzene",
    "cn_name": "1,3-联苯甲酰基苯;1,3-联苯甲酰基苯;",
    "alternate_name": "Methanone, 1,1′-(1,3-phenylene)bis[1-phenyl-;Benzene, <em>m</em>-dibenzoyl-;Methanone, 1,3-phenylenebis[phenyl-;1,1′-(1,3-Phenylene)bis[1-phenylmethanone];<em>m</em>-Benzoylbenzophenone;<em>m</em>-Dibenzoylbenzene;1,3-Dibenzoylbenzene;3-Benzoylbenzophenone;NSC 43091;NSC 631642;1,3-Phenylenebis(phenylmethanone);(3-Benzoylphenyl)-phenylmethanone",
    "duplicated_cas_no": "",
    "SMILES": "C(=O)(C1=CC(C(=O)C2=CC=CC=C2)=CC=C1)C3=CC=CC=C3",
    "meta_data": {
        "InChI": "InChI=1S/C20H14O2/c21-19(15-8-3-1-4-9-15)17-12-7-13-18(14-17)20(22)16-10-5-2-6-11-16/h1-14H",
        "InChIKey": null,
        "Canonical SMILES": "O=C(C=1C=CC=CC1)C2=CC=CC(=C2)C(=O)C=3C=CC=CC3",
        "Molecular Formula": "C<sub>20</sub>H<sub>14</sub>O<sub>2</sub>",
        "Molecular Mass": "286.32",
        "Melting Point": "98 °C"
    }
}