{
    "cas_no": "541-69-5",
    "key_name": "<em>m</em>-Phenylenediamine hydrochloride",
    "cn_name": "1,3-苯二胺盐酸盐;间苯二胺盐酸盐;",
    "alternate_name": "1,3-Benzenediamine, hydrochloride (1:2);<em>m</em>-Phenylenediamine, dihydrochloride;1,3-Benzenediamine, dihydrochloride;1,3-Diaminobenzene dihydrochloride;<em>m</em>-Phenylenediamine hydrochloride;<em>m</em>-Phenylenediammonium dichloride;1,3-Phenylenediamine dihydrochloride",
    "duplicated_cas_no": "58180-28-2",
    "SMILES": "NC1=CC(N)=CC=C1.Cl",
    "meta_data": {
        "InChI": "InChI=1S/C6H8N2.2ClH/c7-5-2-1-3-6(8)4-5;;/h1-4H,7-8H2;2*1H",
        "InChIKey": null,
        "Canonical SMILES": "Cl.NC1=CC=CC(N)=C1",
        "Molecular Formula": "C<sub>6</sub>H<sub>8</sub>N<sub>2</sub>.2ClH",
        "Molecular Mass": "",
        "Melting Point": "171 °C (decomp)"
    }
}