{
    "cas_no": "595-77-7",
    "key_name": "Algestone",
    "cn_name": "双羟孕酮;",
    "alternate_name": "Pregn-4-ene-3,20-dione, 16,17-dihydroxy-, (16α)-;Pregn-4-ene-3,20-dione, 16α,17-dihydroxy-;(16α)-16,17-Dihydroxypregn-4-ene-3,20-dione;Alfasone;16α,17α-Dihydroxyprogesterone;Alphasone;Algestone;4-Pregnen-16α,17α-diol-3,20-dione;16α,17-Dihydroxyprogesterone;16α,17α-Dihydroxypregn-4-ene-3,20-dione;MeSH ID: D000523",
    "duplicated_cas_no": "22945-39-7",
    "SMILES": "C[C@@]12[C@]([C@]3([C@](CC1)([C@]4(C)C(CC3)=CC(=O)CC4)[H])[H])(C[C@@H](O)[C@@]2(C(C)=O)O)[H]",
    "meta_data": {
        "InChI": "InChI=1S/C21H30O4/c1-12(22)21(25)18(24)11-17-15-5-4-13-10-14(23)6-8-19(13,2)16(15)7-9-20(17,21)3/h10,15-18,24-25H,4-9,11H2,1-3H3/t15-,16+,17+,18-,19+,20+,21-/m1/s1",
        "InChIKey": null,
        "Canonical SMILES": "O=C1C=C2CCC3C(CCC4(C)C3CC(O)C4(O)C(=O)C)C2(C)CC1",
        "Molecular Formula": "C<sub>21</sub>H<sub>30</sub>O<sub>4</sub>",
        "Molecular Mass": "346.46",
        "Melting Point": "225 °C"
    }
}