{
    "cas_no": "7493-95-0",
    "key_name": "<em>p</em>-Nitrophenyl α-<span class=\"text-smallcaps\">D</span>-galactopyranoside",
    "cn_name": "4-硝基苯基-α-D-吡喃半乳糖苷;",
    "alternate_name": "α-<span class=\"text-smallcaps\">D</span>-Galactopyranoside, 4-nitrophenyl;Galactopyranoside, <em>p</em>-nitrophenyl, α-<span class=\"text-smallcaps\">D</span>-;4-Nitrophenyl α-<span class=\"text-smallcaps\">D</span>-galactopyranoside;<em>p</em>-Nitrophenyl α-<span class=\"text-smallcaps\">D</span>-galactoside;<em>p</em>-Nitrophenyl α-<span class=\"text-smallcaps\">D</span>-galactopyranoside;<em>p</em>-Nitrophenyl α-galactoside;<em>p</em>-Nitrophenyl α-galactopyranoside;4-Nitrophenyl α-<span class=\"text-smallcaps\">D</span>-galactoside;NSC 89286;PNPG",
    "duplicated_cas_no": "68509-80-8;1429744-53-5",
    "SMILES": "O([C@@H]1[C@H](O)[C@@H](O)[C@@H](O)[C@@H](CO)O1)C2=CC=C(N(=O)=O)C=C2",
    "meta_data": {
        "InChI": "InChI=1S/C12H15NO8/c14-5-8-9(15)10(16)11(17)12(21-8)20-7-3-1-6(2-4-7)13(18)19/h1-4,8-12,14-17H,5H2/t8-,9+,10+,11-,12+/m1/s1",
        "InChIKey": null,
        "Canonical SMILES": "O=N(=O)C1=CC=C(OC2OC(CO)C(O)C(O)C2O)C=C1",
        "Molecular Formula": "C<sub>12</sub>H<sub>15</sub>NO<sub>8</sub>",
        "Molecular Mass": "301.25",
        "Melting Point": "136-140 °C"
    }
}