{
    "cas_no": "196597-17-8",
    "key_name": "<em>N</em>-[2-(1,6,7,8-Tetrahydro-2<em>H</em>-indeno[5,4-<em>b</em>]furan-8-yl)ethyl]propanamide",
    "cn_name": null,
    "alternate_name": "Propanamide, <em>N</em>-[2-(1,6,7,8-tetrahydro-2<em>H</em>-indeno[5,4-<em>b</em>]furan-8-yl)ethyl]-;<em>N</em>-[2-(1,6,7,8-Tetrahydro-2<em>H</em>-indeno[5,4-<em>b</em>]furan-8-yl)ethyl]propanamide",
    "duplicated_cas_no": "",
    "SMILES": "C(CNC(CC)=O)C1C=2C3=C(C=CC2CC1)OCC3",
    "meta_data": {
        "InChI": "InChI=1S/C16H21NO2/c1-2-15(18)17-9-7-12-4-3-11-5-6-14-13(16(11)12)8-10-19-14/h5-6,12H,2-4,7-10H2,1H3,(H,17,18)",
        "InChIKey": null,
        "Canonical SMILES": "O=C(NCCC1C=2C(=CC=C3OCCC32)CC1)CC",
        "Molecular Formula": "C<sub>16</sub>H<sub>21</sub>NO<sub>2</sub>",
        "Molecular Mass": "259.34",
        "Melting Point": "102-104 °C"
    }
}