{
    "cas_no": "1193-12-0",
    "key_name": "3,3-Dimethylpiperidine",
    "cn_name": "3,3-二甲基哌啶;",
    "alternate_name": "Piperidine, 3,3-dimethyl-;3,3-Dimethylpiperidine",
    "duplicated_cas_no": "",
    "SMILES": "CC1(C)CCCNC1",
    "meta_data": {
        "InChI": "InChI=1S/C7H15N/c1-7(2)4-3-5-8-6-7/h8H,3-6H2,1-2H3",
        "InChIKey": null,
        "Canonical SMILES": "N1CCCC(C)(C)C1",
        "Molecular Formula": "C<sub>7</sub>H<sub>15</sub>N",
        "Molecular Mass": "113.20",
        "Boiling Point": "137 °C"
    }
}