{
    "cas_no": "25606-41-1",
    "key_name": "Propamocarb hydrochloride",
    "cn_name": "霜霉威盐酸盐;",
    "alternate_name": "Carbamic acid, <em>N</em>-[3-(dimethylamino)propyl]-, propyl ester, hydrochloride (1:1);Carbamic acid, [3-(dimethylamino)propyl]-, propyl ester, monohydrochloride;SN 66752;Propamocarb hydrochloride;Previcur N;Propyl 3-(dimethylamino)propylcarbamate monohydrochloride;Previcur Flex;Gentracur",
    "duplicated_cas_no": "70323-53-4;1135443-14-9",
    "SMILES": "N(C(OCCC)=O)CCCN(C)C.Cl",
    "meta_data": {
        "InChI": "InChI=1S/C9H20N2O2.ClH/c1-4-8-13-9(12)10-6-5-7-11(2)3;/h4-8H2,1-3H3,(H,10,12);1H",
        "InChIKey": null,
        "Canonical SMILES": "Cl.O=C(OCCC)NCCCN(C)C",
        "Molecular Formula": "C<sub>9</sub>H<sub>20</sub>N<sub>2</sub>O<sub>2</sub>.ClH",
        "Molecular Mass": "",
        "Melting Point": "50 °C"
    }
}