{
    "cas_no": "3654-49-7",
    "key_name": "1,5-Bis(4-hydroxyphenyl)-1,4-pentadien-3-one",
    "cn_name": "1,5-二对羟苯基-1,4-戊二烯-3-酮;",
    "alternate_name": "1,4-Pentadien-3-one, 1,5-bis(4-hydroxyphenyl)-;1,4-Pentadien-3-one, 1,5-bis(<em>p</em>-hydroxyphenyl)-;1,5-Bis(4-hydroxyphenyl)-1,4-pentadien-3-one;1,3-Bis(<em>p</em>-hydroxybenzylidene)acetone;1,5-Bis(<em>p</em>-hydroxyphenyl)-1,4-pentadien-3-one;1,5-Bis(4-hydroxyphenyl)penta-1,4-dien-3-one;1,3-Bis(4-hydroxybenzylidene)acetone",
    "duplicated_cas_no": "1071721-56-6",
    "SMILES": "C(=CC(C=CC1=CC=C(O)C=C1)=O)C2=CC=C(O)C=C2",
    "meta_data": {
        "InChI": "InChI=1S/C17H14O3/c18-15-7-1-13(2-8-15)5-11-17(20)12-6-14-3-9-16(19)10-4-14/h1-12,18-19H",
        "InChIKey": null,
        "Canonical SMILES": "O=C(C=CC1=CC=C(O)C=C1)C=CC2=CC=C(O)C=C2",
        "Molecular Formula": "C<sub>17</sub>H<sub>14</sub>O<sub>3</sub>",
        "Molecular Mass": "266.29",
        "Melting Point": "237-238 °C"
    }
}