{
    "cas_no": "19438-10-9",
    "key_name": "Methyl 3-hydroxybenzoate",
    "cn_name": "3-羟基苯甲酸甲酯;",
    "alternate_name": "Benzoic acid, 3-hydroxy-, methyl ester;Benzoic acid, <em>m</em>-hydroxy-, methyl ester;3-Hydroxybenzoic acid methyl ester;Methyl <em>m</em>-hydroxybenzoate;Methyl 3-hydroxybenzoate;<em>m</em>-Hydroxybenzoic acid methyl ester;<em>m</em>-Carbomethoxyphenol;3-Carbomethoxyphenol;3-(Methoxycarbonyl)phenol;NSC 40536",
    "duplicated_cas_no": "",
    "SMILES": "C(OC)(=O)C1=CC(O)=CC=C1",
    "meta_data": {
        "InChI": "InChI=1S/C8H8O3/c1-11-8(10)6-3-2-4-7(9)5-6/h2-5,9H,1H3",
        "InChIKey": null,
        "Canonical SMILES": "O=C(OC)C=1C=CC=C(O)C1",
        "Molecular Formula": "C<sub>8</sub>H<sub>8</sub>O<sub>3</sub>",
        "Molecular Mass": "152.15",
        "Boiling Point": "281 °C",
        "Melting Point": "73 °C",
        "Density": "1.23 g/cm³ (crystalline) @ Temp: 25.000 °C; Press: 750 Torr"
    }
}