{
    "cas_no": "295-64-7",
    "key_name": "1,4,7,10,13-Pentaazacyclopentadecane",
    "cn_name": null,
    "alternate_name": "1,4,7,10,13-Pentaazacyclopentadecane;Pentacyclen;1,4,7,10,13-Pentazacyclopentadecane",
    "duplicated_cas_no": "",
    "SMILES": "C1CNCCNCCNCCNCCN1",
    "meta_data": {
        "InChI": "InChI=1S/C10H25N5/c1-2-12-5-6-14-9-10-15-8-7-13-4-3-11-1/h11-15H,1-10H2",
        "InChIKey": null,
        "Canonical SMILES": "N1CCNCCNCCNCCNCC1",
        "Molecular Formula": "C<sub>10</sub>H<sub>25</sub>N<sub>5</sub>",
        "Molecular Mass": "215.34",
        "Melting Point": "100-102 °C"
    }
}