{
    "cas_no": "52449-43-1",
    "key_name": "Benzeneacetic acid, 4-chloro-, methyl ester",
    "cn_name": "4-氯苯乙酸甲酯;",
    "alternate_name": "Benzeneacetic acid, 4-chloro-, methyl ester;Acetic acid, (<em>p</em>-chlorophenyl)-, methyl ester;Methyl 4-chlorobenzeneacetate;Methyl (4-chlorophenyl)acetate;Methyl (<em>p</em>-chlorophenyl)acetate;(4-Chlorophenyl)acetic acid methyl ester;Methyl 2-(4-chlorophenyl)acetate",
    "duplicated_cas_no": "",
    "SMILES": "C(C(OC)=O)C1=CC=C(Cl)C=C1",
    "meta_data": {
        "InChI": "InChI=1S/C9H9ClO2/c1-12-9(11)6-7-2-4-8(10)5-3-7/h2-5H,6H2,1H3",
        "InChIKey": null,
        "Canonical SMILES": "O=C(OC)CC1=CC=C(Cl)C=C1",
        "Molecular Formula": "C<sub>9</sub>H<sub>9</sub>ClO<sub>2</sub>",
        "Molecular Mass": "184.62",
        "Boiling Point": "102-103 °C @ Press: 1.2-1.3 Torr"
    }
}