{
    "cas_no": "1341-49-7",
    "key_name": "Ammonium bifluoride",
    "cn_name": "氟氢化铵;氟化氢铵;",
    "alternate_name": "Ammonium fluoride ((NH<sub>4</sub>)(HF<sub>2</sub>));Ammonium bifluoride;Acid ammonium fluoride;Ammonium hydrogen fluoride;Ammonium fluoride compd. with hydrogen fluoride (1:1);Ammonium hydrogen bifluoride;Ammonium difluoride;Ammonium bifluoride (NH<sub>5</sub>F<sub>2</sub>);Ammonium hydrogen difluoride;Ammonium hydrofluoride (NH<sub>4</sub>HF<sub>2</sub>);Ammonium hydrofluoride (NH<sub>5</sub>F<sub>2</sub>);Ammonium bifluoride (NH<sub>4</sub>HF<sub>2</sub>);Ammonium hydrogen difluoride (NH<sub>4</sub>(HF<sub>2</sub>));Ammonium difluoride (NH<sub>4</sub>HF<sub>2</sub>);Ammonium hydrogen fluoride ((NH<sub>4</sub>)(HF<sub>2</sub>));Ammonium monohydrogen difluoride;Flammon;Hydrofluoric acid compd. with ammonium fluoride (NH<sub>4</sub>)F (1:1);Ammonium fluoride hydrofluoride;Chemfos AFL",
    "duplicated_cas_no": "7790-15-0;14055-61-9;16941-26-7;19121-60-9;52697-21-9;96740-33-9;120144-37-8;127026-25-9;135446-53-6;159431-44-4;1257076-06-4;1628788-89-5",
    "SMILES": "[H+]([F-])[F-].[NH4+]",
    "meta_data": {
        "InChI": "InChI=1S/F2H.H3N/c1-3-2;/h;1H3/q-1;/p+1",
        "InChIKey": null,
        "Canonical SMILES": "[F-][H+][F-].[NH4+]",
        "Molecular Formula": "F<sub>2</sub>H.H<sub>4</sub>N",
        "Molecular Mass": "",
        "Boiling Point": "240 °C",
        "Melting Point": "125.6 °C",
        "Density": "1.50 g/cm³"
    }
}