{
    "uri": "substance/pt/1341497",
    "rn": "1341-49-7",
    "name": "Ammonium bifluoride",
    "images": [],
    "inchi": "InChI=1S/F2H.H3N/c1-3-2;/h;1H3/q-1;/p+1",
    "inchiKey": "InChIKey=XIONBZYFLSJNBW-UHFFFAOYSA-O",
    "smile": "[H+]([F-])[F-].[NH4+]",
    "canonicalSmile": "[F-][H+][F-].[NH4+]",
    "molecularFormula": "F<sub>2</sub>H.H<sub>4</sub>N",
    "molecularMass": "",
    "experimentalProperties": [
        {
            "name": "Boiling Point",
            "property": "240 °C",
            "sourceNumber": 1
        },
        {
            "name": "Melting Point",
            "property": "125.6 °C",
            "sourceNumber": 2
        },
        {
            "name": "Density",
            "property": "1.50 g/cm³",
            "sourceNumber": 2
        }
    ],
    "propertyCitations": [
        {
            "docUri": "document/pt/document/30524743",
            "sourceNumber": 1,
            "source": "Belieres, Jean-Philippe; Journal of Physical Chemistry B, (2007), 111(18), 4926-4937, CAplus"
        },
        {
            "docUri": "",
            "sourceNumber": 2,
            "source": "Hazardous Substances Data Bank data were obtained from the National Library of Medicine (US)"
        }
    ],
    "synonyms": [
        "Ammonium fluoride ((NH<sub>4</sub>)(HF<sub>2</sub>))",
        "Ammonium bifluoride",
        "Acid ammonium fluoride",
        "Ammonium hydrogen fluoride",
        "Ammonium fluoride compd. with hydrogen fluoride (1:1)",
        "Ammonium hydrogen bifluoride",
        "Ammonium difluoride",
        "Ammonium bifluoride (NH<sub>5</sub>F<sub>2</sub>)",
        "Ammonium hydrogen difluoride",
        "Ammonium hydrofluoride (NH<sub>4</sub>HF<sub>2</sub>)",
        "Ammonium hydrofluoride (NH<sub>5</sub>F<sub>2</sub>)",
        "Ammonium bifluoride (NH<sub>4</sub>HF<sub>2</sub>)",
        "Ammonium hydrogen difluoride (NH<sub>4</sub>(HF<sub>2</sub>))",
        "Ammonium difluoride (NH<sub>4</sub>HF<sub>2</sub>)",
        "Ammonium hydrogen fluoride ((NH<sub>4</sub>)(HF<sub>2</sub>))",
        "Ammonium monohydrogen difluoride",
        "Flammon",
        "Hydrofluoric acid compd. with ammonium fluoride (NH<sub>4</sub>)F (1:1)",
        "Ammonium fluoride hydrofluoride",
        "Chemfos AFL"
    ],
    "replacedRns": [
        "7790-15-0",
        "14055-61-9",
        "16941-26-7",
        "19121-60-9",
        "52697-21-9",
        "96740-33-9",
        "120144-37-8",
        "127026-25-9",
        "135446-53-6",
        "159431-44-4",
        "1257076-06-4",
        "1628788-89-5"
    ],
    "hasMolfile": true,
    "source": "https://commonchemistry.cas.org/detail?cas_rn=1341-49-7"
}