{
    "cas_no": "1003-29-8",
    "key_name": "Pyrrole-2-carboxaldehyde",
    "cn_name": "2-吡咯甲醛;",
    "alternate_name": "1<em>H</em>-Pyrrole-2-carboxaldehyde;Pyrrole-2-carboxaldehyde;2-Formylpyrrole;Pyrrole-2-aldehyde;2-Pyrrolylcarboxaldehyde;2-Pyrrolecarbaldehyde;2-Pyrrolaldehyde;NSC 112885;NSC 66394;Pyrrole-2-formaldehyde;2-Pyrrolecarboxaldehyde;1<em>H</em>-Pyrrole-2-carbaldehyde;Pyrrol-2-carbaldehyde;Pyrrole-2-carboxyaldehyde;2-Formyl-1<em>H</em>-pyrrole",
    "duplicated_cas_no": "129006-63-9;1610718-04-1",
    "SMILES": "C(=O)C1=CC=CN1",
    "meta_data": {
        "InChI": "InChI=1S/C5H5NO/c7-4-5-2-1-3-6-5/h1-4,6H",
        "InChIKey": null,
        "Canonical SMILES": "O=CC1=CC=CN1",
        "Molecular Formula": "C<sub>5</sub>H<sub>5</sub>NO",
        "Molecular Mass": "95.10",
        "Boiling Point": "218 °C",
        "Melting Point": "46.5 °C"
    }
}