{
    "cas_no": "695-98-7",
    "key_name": "2,3,5-Trimethylpyridine",
    "cn_name": null,
    "alternate_name": "Pyridine, 2,3,5-trimethyl-;2,3,5-Trimethylpyridine;2,3,5-Collidine",
    "duplicated_cas_no": "",
    "SMILES": "CC1=C(C)N=CC(C)=C1",
    "meta_data": {
        "InChI": "InChI=1S/C8H11N/c1-6-4-7(2)8(3)9-5-6/h4-5H,1-3H3",
        "InChIKey": null,
        "Canonical SMILES": "N=1C=C(C=C(C1C)C)C",
        "Molecular Formula": "C<sub>8</sub>H<sub>11</sub>N",
        "Molecular Mass": "121.18",
        "Boiling Point": "184 °C",
        "Melting Point": "183 °C",
        "Density": "0.9485 g/cm³ @ Temp: 0 °C"
    }
}