{
    "cas_no": "19090-04-1",
    "key_name": "2<em>H</em>-1-Benzopyran-3(4<em>H</em>)-one",
    "cn_name": "苯并二氢吡喃-3-酮;",
    "alternate_name": "2<em>H</em>-1-Benzopyran-3(4<em>H</em>)-one;3-Chromanone;3,4-Dihydro-2<em>H</em>-1-benzopyran-3-one",
    "duplicated_cas_no": "",
    "SMILES": "O=C1CC=2C(OC1)=CC=CC2",
    "meta_data": {
        "InChI": "InChI=1S/C9H8O2/c10-8-5-7-3-1-2-4-9(7)11-6-8/h1-4H,5-6H2",
        "InChIKey": null,
        "Canonical SMILES": "O=C1COC=2C=CC=CC2C1",
        "Molecular Formula": "C<sub>9</sub>H<sub>8</sub>O<sub>2</sub>",
        "Molecular Mass": "148.16",
        "Boiling Point": "195-205 °C @ Press: 0.1-0.25 Torr"
    }
}