{
    "cas_no": "16865-11-5",
    "key_name": "2,5,6-Trichloro-1<em>H</em>-benzimidazole",
    "cn_name": null,
    "alternate_name": "1<em>H</em>-Benzimidazole, 2,5,6-trichloro-;Benzimidazole, 2,5,6-trichloro-;2,5,6-Trichloro-1<em>H</em>-benzimidazole;2,5,6-Trichlorobenzimidazole;NSC 143683;2,5,6-Trichloro-1<em>H</em>-1,3-benzodiazole;2,5,6-Trichloro-1<em>H</em>-benzo[<em>d</em>]imidazole",
    "duplicated_cas_no": "",
    "SMILES": "ClC=1C=C2C(=CC1Cl)N=C(Cl)N2",
    "meta_data": {
        "InChI": "InChI=1S/C7H3Cl3N2/c8-3-1-5-6(2-4(3)9)12-7(10)11-5/h1-2H,(H,11,12)",
        "InChIKey": null,
        "Canonical SMILES": "ClC1=NC=2C=C(Cl)C(Cl)=CC2N1",
        "Molecular Formula": "C<sub>7</sub>H<sub>3</sub>Cl<sub>3</sub>N<sub>2</sub>",
        "Molecular Mass": "221.47",
        "Melting Point": "218.1-219.9 °C"
    }
}