{
    "cas_no": "1986-89-6",
    "key_name": "1-(Octylsulfinyl)octane",
    "cn_name": "二正辛基亚砜;二正辛基亚砜;",
    "alternate_name": "Octane, 1-(octylsulfinyl)-;Octyl sulfoxide;Octane, 1,1′-sulfinylbis-;1-(Octylsulfinyl)octane;Dioctyl sulfoxide;Di-<em>n</em>-octyl sulfoxide;Bis(1-octyl) sulfoxide;NSC 65460;1-(Octane-1-sulfinyl)-octane",
    "duplicated_cas_no": "",
    "SMILES": "S(CCCCCCCC)(CCCCCCCC)=O",
    "meta_data": {
        "InChI": "InChI=1S/C16H34OS/c1-3-5-7-9-11-13-15-18(17)16-14-12-10-8-6-4-2/h3-16H2,1-2H3",
        "InChIKey": null,
        "Canonical SMILES": "O=S(CCCCCCCC)CCCCCCCC",
        "Molecular Formula": "C<sub>16</sub>H<sub>34</sub>OS",
        "Molecular Mass": "274.51",
        "Melting Point": "71-72 °C"
    }
}