{
    "cas_no": "103890-78-4",
    "key_name": "Lacidipine",
    "cn_name": "拉西地平;(E)-4-[2-[3-(1,1-二甲基乙氧基)-3-氧代-1-丙烯基]苯基]-1,4-二氢-2,6-二甲基-3,5-吡啶二羧酸二乙;",
    "alternate_name": "3,5-Pyridinedicarboxylic acid, 4-[2-[(1<em>E</em>)-3-(1,1-dimethylethoxy)-3-oxo-1-propen-1-yl]phenyl]-1,4-dihydro-2,6-dimethyl-, 3,5-diethyl ester;3,5-Pyridinedicarboxylic acid, 4-[2-[3-(1,1-dimethylethoxy)-3-oxo-1-propenyl]phenyl]-1,4-dihydro-2,6-dimethyl-, diethyl ester, (<em>E</em>)-;3,5-Pyridinedicarboxylic acid, 4-[2-[(1<em>E</em>)-3-(1,1-dimethylethoxy)-3-oxo-1-propenyl]phenyl]-1,4-dihydro-2,6-dimethyl-, diethyl ester;Lacidipine;GR 43659X;Caldine;Lacirex;Motens;Lacipil;GX 1048;Lacimen;Midotens;SML 0946;Prestw 1297",
    "duplicated_cas_no": "141910-84-1",
    "SMILES": "C(OCC)(=O)C=1C(C(C(OCC)=O)=C(C)NC1C)C2=C(/C=C/C(OC(C)(C)C)=O)C=CC=C2",
    "meta_data": {
        "InChI": "InChI=1S/C26H33NO6/c1-8-31-24(29)21-16(3)27-17(4)22(25(30)32-9-2)23(21)19-13-11-10-12-18(19)14-15-20(28)33-26(5,6)7/h10-15,23,27H,8-9H2,1-7H3/b15-14+",
        "InChIKey": null,
        "Canonical SMILES": "O=C(OC(C)(C)C)C=CC=1C=CC=CC1C2C(C(=O)OCC)=C(NC(=C2C(=O)OCC)C)C",
        "Molecular Formula": "C<sub>26</sub>H<sub>33</sub>NO<sub>6</sub>",
        "Molecular Mass": "455.54",
        "Melting Point": "174-175 °C"
    }
}