{
    "cas_no": "2527-96-0",
    "key_name": "Methyl 5-methyl-2-furancarboxylate",
    "cn_name": "5-甲基-2-糠酸甲酯;5-甲基呋喃-2-甲酸甲酯;5-甲基-2-糠酸甲酯;",
    "alternate_name": "2-Furancarboxylic acid, 5-methyl-, methyl ester;2-Furoic acid, 5-methyl-, methyl ester;Methyl 5-methyl-2-furancarboxylate;Methyl 5-methyl-2-furoate;5-Methyl-2-furoic acid methyl ester",
    "duplicated_cas_no": "",
    "SMILES": "C(OC)(=O)C=1OC(C)=CC1",
    "meta_data": {
        "InChI": "InChI=1S/C7H8O3/c1-5-3-4-6(10-5)7(8)9-2/h3-4H,1-2H3",
        "InChIKey": null,
        "Canonical SMILES": "O=C(OC)C=1OC(=CC1)C",
        "Molecular Formula": "C<sub>7</sub>H<sub>8</sub>O<sub>3</sub>",
        "Molecular Mass": "140.14",
        "Boiling Point": "205 °C @ Press: 760 Torr"
    }
}