{
    "cas_no": "19545-26-7",
    "key_name": "Wortmannin",
    "cn_name": "渥曼青霉素;",
    "alternate_name": "3<em>H</em>-Furo[4,3,2-<em>de</em>]indeno[4,5-<em>h</em>]-2-benzopyran-3,6,9-trione, 11-(acetyloxy)-1,6b,7,8,9a,10,11,11b-octahydro-1-(methoxymethyl)-9a,11b-dimethyl-, (1<em>S</em>,6b<em>R</em>,9a<em>S</em>,11<em>R</em>,11b<em>R</em>)-;3<em>H</em>-Furo[4,3,2-<em>de</em>]indeno[4,5-<em>h</em>]-2-benzopyran-3,6,9-trione, 11-(acetyloxy)-1,6b,7,8,9a,10,11,11b-octahydro-1-(methoxymethyl)-9a,11b-dimethyl-, [1<em>S</em>-(1α,6bα,9aβ,11α,11bβ)]-;(1<em>S</em>,6b<em>R</em>,9a<em>S</em>,11<em>R</em>,11b<em>R</em>)-11-(Acetyloxy)-1,6b,7,8,9a,10,11,11b-octahydro-1-(methoxymethyl)-9a,11b-dimethyl-3<em>H</em>-furo[4,3,2-<em>de</em>]indeno[4,5-<em>h</em>]-2-benzopyran-3,6,9-trione;Wortmannin;KY 12420;(+)-Wortmannin",
    "duplicated_cas_no": "1405-03-4",
    "SMILES": "C[C@@]12C3=C([C@]4([C@](C)(C[C@H]3OC(C)=O)C(=O)CC4)[H])C(=O)C5=C1C(C(=O)O[C@@H]2COC)=CO5",
    "meta_data": {
        "InChI": "InChI=1S/C23H24O8/c1-10(24)30-13-7-22(2)12(5-6-14(22)25)16-18(13)23(3)15(9-28-4)31-21(27)11-8-29-20(17(11)23)19(16)26/h8,12-13,15H,5-7,9H2,1-4H3/t12-,13+,15+,22-,23-/m0/s1",
        "InChIKey": null,
        "Canonical SMILES": "O=C1OC(COC)C2(C3=C(OC=C13)C(=O)C4=C2C(OC(=O)C)CC5(C(=O)CCC45)C)C",
        "Molecular Formula": "C<sub>23</sub>H<sub>24</sub>O<sub>8</sub>",
        "Molecular Mass": "428.43",
        "Melting Point": "240 °C"
    }
}