{
    "cas_no": "14315-16-3",
    "key_name": "3-Amino-<em>N</em>-phenylbenzamide",
    "cn_name": null,
    "alternate_name": "Benzamide, 3-amino-<em>N</em>-phenyl-;Benzanilide, 3-amino-;3-Amino-<em>N</em>-phenylbenzamide;<em>m</em>-Aminobenzanilide;3-Aminobenzanilide;3-Aminobenzoic acid anilide",
    "duplicated_cas_no": "",
    "SMILES": "C(NC1=CC=CC=C1)(=O)C2=CC(N)=CC=C2",
    "meta_data": {
        "InChI": "InChI=1S/C13H12N2O/c14-11-6-4-5-10(9-11)13(16)15-12-7-2-1-3-8-12/h1-9H,14H2,(H,15,16)",
        "InChIKey": null,
        "Canonical SMILES": "O=C(NC=1C=CC=CC1)C=2C=CC=C(N)C2",
        "Molecular Formula": "C<sub>13</sub>H<sub>12</sub>N<sub>2</sub>O",
        "Molecular Mass": "212.25",
        "Melting Point": "123-124 °C"
    }
}