{
    "cas_no": "58198-49-5",
    "key_name": "1-[(4-Nitrophenyl)methyl]piperazine",
    "cn_name": null,
    "alternate_name": "Piperazine, 1-[(4-nitrophenyl)methyl]-;1-[(4-Nitrophenyl)methyl]piperazine;1-(4-Nitrobenzyl)piperazine;4-((Piperazin-1-yl)methyl)nitrobenzene",
    "duplicated_cas_no": "",
    "SMILES": "C(C1=CC=C(N(=O)=O)C=C1)N2CCNCC2",
    "meta_data": {
        "InChI": "InChI=1S/C11H15N3O2/c15-14(16)11-3-1-10(2-4-11)9-13-7-5-12-6-8-13/h1-4,12H,5-9H2",
        "InChIKey": null,
        "Canonical SMILES": "O=N(=O)C1=CC=C(C=C1)CN2CCNCC2",
        "Molecular Formula": "C<sub>11</sub>H<sub>15</sub>N<sub>3</sub>O<sub>2</sub>",
        "Molecular Mass": "221.26",
        "Melting Point": "122-123 °C"
    }
}