{
    "cas_no": "191732-72-6",
    "key_name": "Lenalidomide",
    "cn_name": "来那度胺;3-(7-氨基-3-氧代-1H-异吲哚-2-基)哌啶-2,6-二酮;",
    "alternate_name": "2,6-Piperidinedione, 3-(4-amino-1,3-dihydro-1-oxo-2<em>H</em>-isoindol-2-yl)-;3-(4-Amino-1,3-dihydro-1-oxo-2<em>H</em>-isoindol-2-yl)-2,6-piperidinedione;3-(4-Amino-1-oxoisoindolin-2-yl)piperidine-2,6-dione;Revimid;CC 5013;CDC 501;Lenalidomide;Revlimid;1-Oxo-4-amino-2-(2,6-dioxopiperidin-3-yl)isoindole;3-(4-Amino-1-oxoisoindolin-2-yl)piperidin-2,6-dione;ENMD 0997;IMiD 3;revlMiD;R-Revlimid;3-(4-Amino-1-oxo-isoindolin-2-yl) piperidine-2, 6-dione",
    "duplicated_cas_no": "346670-73-3;443912-14-9;824975-68-0",
    "SMILES": "O=C1N(CC=2C1=CC=CC2N)C3C(=O)NC(=O)CC3",
    "meta_data": {
        "InChI": "InChI=1S/C13H13N3O3/c14-9-3-1-2-7-8(9)6-16(13(7)19)10-4-5-11(17)15-12(10)18/h1-3,10H,4-6,14H2,(H,15,17,18)",
        "InChIKey": null,
        "Canonical SMILES": "O=C1NC(=O)C(N2C(=O)C=3C=CC=C(N)C3C2)CC1",
        "Molecular Formula": "C<sub>13</sub>H<sub>13</sub>N<sub>3</sub>O<sub>3</sub>",
        "Molecular Mass": "259.26",
        "Melting Point": "265-267 °C"
    }
}