{
    "cas_no": "127-56-0",
    "key_name": "Sodium sulfacetamide",
    "cn_name": "磺胺乙酰钠;磺胺醋酰钠;N-[(4-氨基苯基)-磺酰基]-乙酰胺钠;",
    "alternate_name": "Acetamide, <em>N</em>-[(4-aminophenyl)sulfonyl]-, sodium salt (1:1);Acetamide, <em>N</em>-sulfanilyl-, monosodium salt;Acetamide, <em>N</em>-[(4-aminophenyl)sulfonyl]-, monosodium salt;Sodium, (<em>N</em><sup>1</sup>-acetylsulfanilamido)-;Acetamide, <em>N</em>-sulfanilyl-, sodium deriv.;Bleph 10;<em>N</em><sup>1</sup>-Acetylsulfanilamide sodium;<em>N</em><sup>1</sup>-Acetylsulfanilamide sodium salt;Albucid soluble;Oc-U-Mid;Sodium sulfacetamide;Sodium sulfacyl;Sodium sulfanilylacetamide;Sodium <em>N</em>-sulfanilylacetamide;Sulamyd sodium;Sulfacetamide sodium;Sulfacetamide sodium salt;Sulfacyl sol;Sulfacyl soluble;Soluble sulfacyl;Sulfacyl sodium;Sodium albucid;Albucide;<em>N</em>-Sulfanilylacetamide sodium;Soluble sulfacetamide;Beocid-Isoptal;Supracid;Locula;Sulphacetamide sodium;Farmamid;Galseptil;Almocetamide;Antebor;Prontamid;Octsetan;Sulfacyl sodium salt;<em>N</em>-Acetylsulfanilamide sodium salt;Klaron;Andremide",
    "duplicated_cas_no": "",
    "SMILES": "S(NC(C)=O)(=O)(=O)C1=CC=C(N)C=C1.[Na]",
    "meta_data": {
        "InChI": "InChI=1S/C8H10N2O3S.Na/c1-6(11)10-14(12,13)8-4-2-7(9)3-5-8;/h2-5H,9H2,1H3,(H,10,11);",
        "InChIKey": null,
        "Canonical SMILES": "[Na].O=C(NS(=O)(=O)C1=CC=C(N)C=C1)C",
        "Molecular Formula": "C<sub>8</sub>H<sub>10</sub>N<sub>2</sub>O<sub>3</sub>S.Na",
        "Molecular Mass": "",
        "Melting Point": "257 °C"
    }
}