{
    "cas_no": "454-31-9",
    "key_name": "Ethyl difluoroacetate",
    "cn_name": "二氟乙酸乙酯;",
    "alternate_name": "Acetic acid, 2,2-difluoro-, ethyl ester;Acetic acid, difluoro-, ethyl ester;Ethyl difluoroacetate;Difluoroacetic acid ethyl ester;Ethyl 2,2-difluoroacetate;2,2-Difluoroacetic acid ethyl ester;α,α-Difluoroacetic acid ethyl ester",
    "duplicated_cas_no": "",
    "SMILES": "C(OCC)(C(F)F)=O",
    "meta_data": {
        "InChI": "InChI=1S/C4H6F2O2/c1-2-8-4(7)3(5)6/h3H,2H2,1H3",
        "InChIKey": null,
        "Canonical SMILES": "O=C(OCC)C(F)F",
        "Molecular Formula": "C<sub>4</sub>H<sub>6</sub>F<sub>2</sub>O<sub>2</sub>",
        "Molecular Mass": "124.09",
        "Boiling Point": "100 °C",
        "Density": "1.244 g/cm³ @ Temp: 20 °C"
    }
}