{
    "cas_no": "17106-13-7",
    "key_name": "2,4-Dimethyl-1<em>H</em>-pyrrole-3-carboxylic acid",
    "cn_name": null,
    "alternate_name": "1<em>H</em>-Pyrrole-3-carboxylic acid, 2,4-dimethyl-;Pyrrole-3-carboxylic acid, 2,4-dimethyl-;2,4-Dimethyl-1<em>H</em>-pyrrole-3-carboxylic acid",
    "duplicated_cas_no": "",
    "SMILES": "C(O)(=O)C=1C(C)=CNC1C",
    "meta_data": {
        "InChI": "InChI=1S/C7H9NO2/c1-4-3-8-5(2)6(4)7(9)10/h3,8H,1-2H3,(H,9,10)",
        "InChIKey": null,
        "Canonical SMILES": "O=C(O)C=1C(=CNC1C)C",
        "Molecular Formula": "C<sub>7</sub>H<sub>9</sub>NO<sub>2</sub>",
        "Molecular Mass": "139.15",
        "Melting Point": "75-76 °C"
    }
}