{
    "cas_no": "2004-04-8",
    "key_name": "4′,5′-Didehydro-1′-<em>C</em>-(hydroxymethyl)adenosine",
    "cn_name": "德夸菌素;",
    "alternate_name": "Adenosine, 4′,5′-didehydro-1′-<em>C</em>-(hydroxymethyl)-;Adenine, 9-(6-deoxy-β-<span class=\"text-smallcaps\">D</span>-<em>erythro</em>-hex-5-enulofuranosyl)-;9<em>H</em>-Purin-6-amine, 9-(6-deoxy-β-<span class=\"text-smallcaps\">D</span>-<em>erythro</em>-hex-5-en-2-ulofuranosyl)-;Decoyinin;Angustomycin A;4′,5′-Didehydro-1′-<em>C</em>-(hydroxymethyl)adenosine;Antibiotic A 14;Angustmycin A;Decoyinine;5,6-Psicofuranosenyladenine;Wugufengsu;Wugufengin;Guvermectin",
    "duplicated_cas_no": "1373-27-9;21735-70-6",
    "SMILES": "C(O)[C@@]1([C@H](O)[C@H](O)C(=C)O1)N2C=3C(N=C2)=C(N)N=CN3",
    "meta_data": {
        "InChI": "InChI=1S/C11H13N5O4/c1-5-7(18)8(19)11(2-17,20-5)16-4-15-6-9(12)13-3-14-10(6)16/h3-4,7-8,17-19H,1-2H2,(H2,12,13,14)/t7-,8-,11-/m1/s1",
        "InChIKey": null,
        "Canonical SMILES": "OCC1(OC(=C)C(O)C1O)N2C=NC=3C(=NC=NC32)N",
        "Molecular Formula": "C<sub>11</sub>H<sub>13</sub>N<sub>5</sub>O<sub>4</sub>",
        "Molecular Mass": "279.25",
        "Melting Point": "160-162 °C"
    }
}