{
    "cas_no": "1139-30-6",
    "key_name": "Caryophyllene oxide",
    "cn_name": "氧化石竹烯;[1R-(1R*,4R*,6R*,10S*)]-4,12,12-三甲基-9-亚甲基-5-氧杂三环[8.2.0.04,6]十二烷;",
    "alternate_name": "5-Oxatricyclo[8.2.0.0<sup>4,6</sup>]dodecane, 4,12,12-trimethyl-9-methylene-, (1<em>R</em>,4<em>R</em>,6<em>R</em>,10<em>S</em>)-;5-Oxatricyclo[8.2.0.0<sup>4,6</sup>]dodecane, 4,12,12-trimethyl-9-methylene-, [1<em>R</em>-(1<em>R</em>*,4<em>R</em>*,6<em>R</em>*,10<em>S</em>*)]-;Caryophyllene oxide;Caryophyllene, epoxide;(1<em>R</em>,4<em>R</em>,6<em>R</em>,10<em>S</em>)-4,12,12-Trimethyl-9-methylene-5-oxatricyclo[8.2.0.0<sup>4,6</sup>]dodecane;(-)-β-Caryophyllene epoxide;β-Caryophyllene oxide;β-Caryophyllene epoxide;(-)-Epoxydihydrocaryophyllene;(-)-β-Caryophyllene oxide;4β,5α-Epoxycaryophyllene;(-)-Caryophyllene oxide;<em>trans</em>-Caryophyllene oxide;Caryophyllene 4β,5α-oxide;6,7-Epoxy-3(15)-caryophyllene;Caryophyllene 4β,5α-epoxide",
    "duplicated_cas_no": "105120-46-5;11023-55-5;32095-03-7;52209-95-7",
    "SMILES": "C[C@@]12[C@](O1)(CCC(=C)[C@@]3([C@@](CC2)(C(C)(C)C3)[H])[H])[H]",
    "meta_data": {
        "InChI": "InChI=1S/C15H24O/c1-10-5-6-13-15(4,16-13)8-7-12-11(10)9-14(12,2)3/h11-13H,1,5-9H2,2-4H3/t11-,12-,13-,15-/m1/s1",
        "InChIKey": null,
        "Canonical SMILES": "O1C2CCC(=C)C3CC(C)(C)C3CCC12C",
        "Molecular Formula": "C<sub>15</sub>H<sub>24</sub>O",
        "Molecular Mass": "220.35",
        "Boiling Point": "138-141 °C @ Press: 10 Torr",
        "Melting Point": "64 °C",
        "Density": "0.9488 g/cm³ @ Temp: 20 °C"
    }
}