{
    "cas_no": "18691-97-9",
    "key_name": "Methabenzthiazuron",
    "cn_name": "甲基苯噻隆;噻唑隆;N-2-苯并噻唑基-N,N\"-二甲基脲;",
    "alternate_name": "Urea, <em>N</em>-2-benzothiazolyl-<em>N</em>,<em>N</em>′-dimethyl-;Urea, 1-(2-benzothiazolyl)-1,3-dimethyl-;<em>N</em>-2-Benzothiazolyl-<em>N</em>,<em>N</em>′-dimethylurea;1-(2-Benzothiazolyl)-1,3-dimethylurea;Methabenzthiazuron;Methbenzthiazuron;Preparation 5633;Tribunil;5633;Bayer 5653;Metabenzthiazuron;Bayer 74283;BAY 5653;1,3-Dimethyl-3-(2-benzothiazolyl)urea;Methibenzuron",
    "duplicated_cas_no": "",
    "SMILES": "N(C(NC)=O)(C)C1=NC=2C(S1)=CC=CC2",
    "meta_data": {
        "InChI": "InChI=1S/C10H11N3OS/c1-11-9(14)13(2)10-12-7-5-3-4-6-8(7)15-10/h3-6H,1-2H3,(H,11,14)",
        "InChIKey": null,
        "Canonical SMILES": "O=C(NC)N(C1=NC=2C=CC=CC2S1)C",
        "Molecular Formula": "C<sub>10</sub>H<sub>11</sub>N<sub>3</sub>OS",
        "Molecular Mass": "221.28",
        "Melting Point": "120 °C"
    }
}