{
    "cas_no": "600-25-9",
    "key_name": "1-Chloro-1-nitropropane",
    "cn_name": "1-硝基-1-氯丙烷;1-氯-1-硝基丙烷;",
    "alternate_name": "Propane, 1-chloro-1-nitro-;1-Chloro-1-nitropropane;NSC 8409",
    "duplicated_cas_no": "",
    "SMILES": "C(N(=O)=O)(CC)Cl",
    "meta_data": {
        "InChI": "InChI=1S/C3H6ClNO2/c1-2-3(4)5(6)7/h3H,2H2,1H3",
        "InChIKey": null,
        "Canonical SMILES": "O=N(=O)C(Cl)CC",
        "Molecular Formula": "C<sub>3</sub>H<sub>6</sub>ClNO<sub>2</sub>",
        "Molecular Mass": "123.54",
        "Boiling Point": "142 °C",
        "Density": "1.209 g/cm³ @ Temp: 20 °C"
    }
}