{
    "cas_no": "101-86-0",
    "key_name": "α-Hexylcinnamaldehyde",
    "cn_name": "alpha-己基肉桂醛;",
    "alternate_name": "Octanal, 2-(phenylmethylene)-;Cinnamaldehyde, α-hexyl-;2-(Phenylmethylene)octanal;α-Hexylcinnamaldehyde;Hexyl cinnamic aldehyde;α-<em>n</em>-Hexyl-β-phenylacrolein;α-Hexylcinnamic aldehyde;2-Hexyl-3-phenyl-2-propenal;2-Hexylcinnamaldehyde;α-Hexylcinnamyl aldehyde;α-<em>n</em>-Hexylcinnamaldehyde;NSC 406799;NSC 46150;2-Benzylideneoctanal;Hexyl cinnamal",
    "duplicated_cas_no": "",
    "SMILES": "C(=C(CCCCCC)C=O)C1=CC=CC=C1",
    "meta_data": {
        "InChI": "InChI=1S/C15H20O/c1-2-3-4-6-11-15(13-16)12-14-9-7-5-8-10-14/h5,7-10,12-13H,2-4,6,11H2,1H3",
        "InChIKey": null,
        "Canonical SMILES": "O=CC(=CC=1C=CC=CC1)CCCCCC",
        "Molecular Formula": "C<sub>15</sub>H<sub>20</sub>O",
        "Molecular Mass": "216.32",
        "Boiling Point": "305 °C"
    }
}