{
    "cas_no": "1738-77-8",
    "key_name": "<span class=\"text-smallcaps\">L</span>-Leucine, phenylmethyl ester, 4-methylbenzenesulfonate (1:1)",
    "cn_name": "L-亮氨酸苄酯对甲苯磺酸盐;",
    "alternate_name": "<span class=\"text-smallcaps\">L</span>-Leucine, phenylmethyl ester, 4-methylbenzenesulfonate (1:1);Leucine, benzyl ester, <em>p</em>-toluenesulfonate, <span class=\"text-smallcaps\">L</span>-;<span class=\"text-smallcaps\">L</span>-Leucine, phenylmethyl ester, 4-methylbenzenesulfonate;Leucine, benzyl ester, <em>p</em>-toluenesulfonate;<span class=\"text-smallcaps\">L</span>-Leucine benzyl ester <em>p</em>-toluenesulfonate;<span class=\"text-smallcaps\">L</span>-Leucine benzyl ester tosylate;(<em>S</em>)-Leucine benzyl ester tosylate;Leucine benzyl ester 4-toluenesulfonic acid salt;Benzyl <span class=\"text-smallcaps\">L</span>-leucinate <em>p</em>-toluenesulfonate;Benzyl <span class=\"text-smallcaps\">L</span>-leucinate tosylate;H-Leu-OBzl <em>p</em>-toluenesulfonate;(<em>S</em>)-Benzyl 2-amino-4-methylpentanoate 4-methylbenzenesulfonate",
    "duplicated_cas_no": "1802065-70-8",
    "SMILES": "C(OC([C@H](CC(C)C)N)=O)C1=CC=CC=C1.S(=O)(=O)(O)C1=CC=C(C)C=C1",
    "meta_data": {
        "InChI": "InChI=1S/C13H19NO2.C7H8O3S/c1-10(2)8-12(14)13(15)16-9-11-6-4-3-5-7-11;1-6-2-4-7(5-3-6)11(8,9)10/h3-7,10,12H,8-9,14H2,1-2H3;2-5H,1H3,(H,8,9,10)/t12-;/m0./s1",
        "InChIKey": null,
        "Canonical SMILES": "O=C(OCC=1C=CC=CC1)C(N)CC(C)C.O=S(=O)(O)C1=CC=C(C=C1)C",
        "Molecular Formula": "C<sub>13</sub>H<sub>19</sub>NO<sub>2</sub>.C<sub>7</sub>H<sub>8</sub>O<sub>3</sub>S",
        "Molecular Mass": "",
        "Melting Point": "158.5-160 °C"
    }
}