{
    "cas_no": "825-44-5",
    "key_name": "Benzothiophene 1,1-dioxide",
    "cn_name": "苯并噻吩砜;",
    "alternate_name": "Benzo[<em>b</em>]thiophene, 1,1-dioxide;Thianaphthene 1,1-dioxide;Benzothiophene 1,1-dioxide;Thionaphthene 1,1-dioxide;Benzothiophene sulfone;Benzo[<em>b</em>]thiophene <em>S</em>,<em>S</em>-dioxide;NSC 82162;Benzothiophene <em>S</em>,<em>S</em>-dioxide;1-Benzothiophene 1,1-dioxide;1<em>H</em>-1λ6-Benzo[<em>b</em>]thiophene-1,1-dione",
    "duplicated_cas_no": "",
    "SMILES": "O=S1(=O)C=2C(C=C1)=CC=CC2",
    "meta_data": {
        "InChI": "InChI=1S/C8H6O2S/c9-11(10)6-5-7-3-1-2-4-8(7)11/h1-6H",
        "InChIKey": null,
        "Canonical SMILES": "O=S1(=O)C=CC=2C=CC=CC21",
        "Molecular Formula": "C<sub>8</sub>H<sub>6</sub>O<sub>2</sub>S",
        "Molecular Mass": "166.20",
        "Melting Point": "142-143 °C"
    }
}