{
    "cas_no": "2235-00-9",
    "key_name": "Vinylcaprolactam",
    "cn_name": "N-乙烯基己内酰胺;",
    "alternate_name": "2<em>H</em>-Azepin-2-one, 1-ethenylhexahydro-;2<em>H</em>-Azepin-2-one, hexahydro-1-vinyl-;1-Ethenylhexahydro-2<em>H</em>-azepin-2-one;<em>N</em>-Vinylcaprolactam;Vinylcaprolactam;<em>N</em>-Vinyl-ε-caprolactam;1-Vinylcaprolactam;<em>N</em>-Vinylazepan-2-one;V-CAP;V-Cap RC;NVC;1-Vinyl-2-azepanone;1-Ethenylazepan-2-one;1-Vinylazepan-2-one;415464-100G",
    "duplicated_cas_no": "146876-34-8;266309-50-6",
    "SMILES": "C(=C)N1C(=O)CCCCC1",
    "meta_data": {
        "InChI": "InChI=1S/C8H13NO/c1-2-9-7-5-3-4-6-8(9)10/h2H,1,3-7H2",
        "InChIKey": null,
        "Canonical SMILES": "O=C1N(C=C)CCCCC1",
        "Molecular Formula": "C<sub>8</sub>H<sub>13</sub>NO",
        "Molecular Mass": "139.19",
        "Boiling Point": "104.0-105.5 °C @ Press: 7.0-7.5 Torr",
        "Melting Point": "34-35 °C",
        "Density": "1.0084 g/cm³ @ Temp: 40 °C"
    }
}