{
    "cas_no": "1516-17-2",
    "key_name": "2,4-Hexadien-1-ol, 1-acetate",
    "cn_name": "反,反-2,4-己二烯醛醋酸酯;反,反-2,4-己二烯醛醋酸酯;",
    "alternate_name": "2,4-Hexadien-1-ol, 1-acetate;2,4-Hexadien-1-ol, acetate;2,4-Hexadienyl acetate;1-Acetoxy-2,4-hexadiene;2,4-Hexadien-1-yl acetate",
    "duplicated_cas_no": "",
    "SMILES": "C(C=CC=CC)OC(C)=O",
    "meta_data": {
        "InChI": "InChI=1S/C8H12O2/c1-3-4-5-6-7-10-8(2)9/h3-6H,7H2,1-2H3",
        "InChIKey": null,
        "Canonical SMILES": "O=C(OCC=CC=CC)C",
        "Molecular Formula": "C<sub>8</sub>H<sub>12</sub>O<sub>2</sub>",
        "Molecular Mass": "140.18",
        "Boiling Point": "94-95 °C @ Press: 31 Torr",
        "Density": "0.9106 g/cm³ @ Temp: 20 °C"
    }
}