{
    "cas_no": "25456-86-4",
    "key_name": "<span class=\"text-smallcaps\">L</span>-Asparagine, 1,1-dimethylethyl ester",
    "cn_name": "L-天冬酰胺叔丁酯;",
    "alternate_name": "<span class=\"text-smallcaps\">L</span>-Asparagine, 1,1-dimethylethyl ester;Asparagine, <em>tert</em>-butyl ester, <span class=\"text-smallcaps\">L</span>-;<span class=\"text-smallcaps\">L</span>-Asparagine <em>tert</em>-butyl ester;Asparagine <em>tert</em>-butyl ester;NSC 186917;<em>tert</em>-Butyl (<em>S</em>)-2,4-diamino-4-oxobutanoate;<span class=\"text-smallcaps\">L</span>-Asn-OtBu",
    "duplicated_cas_no": "45082-34-6",
    "SMILES": "C([C@H](CC(N)=O)N)(OC(C)(C)C)=O",
    "meta_data": {
        "InChI": "InChI=1S/C8H16N2O3/c1-8(2,3)13-7(12)5(9)4-6(10)11/h5H,4,9H2,1-3H3,(H2,10,11)/t5-/m0/s1",
        "InChIKey": null,
        "Canonical SMILES": "O=C(OC(C)(C)C)C(N)CC(=O)N",
        "Molecular Formula": "C<sub>8</sub>H<sub>16</sub>N<sub>2</sub>O<sub>3</sub>",
        "Molecular Mass": "188.22",
        "Melting Point": "72-74 °C"
    }
}