{
    "cas_no": "24437-41-0",
    "key_name": "1-Methyl-1<em>H</em>-pyrrole-2-acetonitrile",
    "cn_name": "(1-甲基-2-吡咯基)乙腈;1-甲基-1H-吡咯-2-乙腈;",
    "alternate_name": "1<em>H</em>-Pyrrole-2-acetonitrile, 1-methyl-;Pyrrole-2-acetonitrile, 1-methyl-;1-Methyl-1<em>H</em>-pyrrole-2-acetonitrile;1-Methylpyrrole-2-acetonitrile;2-(1-Methyl-pyrrol-2-yl)acetonitrile;2-(1-Methyl-1<em>H</em>-pyrrol-2-yl)acetonitrile",
    "duplicated_cas_no": "",
    "SMILES": "C(C#N)C=1N(C)C=CC1",
    "meta_data": {
        "InChI": "InChI=1S/C7H8N2/c1-9-6-2-3-7(9)4-5-8/h2-3,6H,4H2,1H3",
        "InChIKey": null,
        "Canonical SMILES": "N#CCC1=CC=CN1C",
        "Molecular Formula": "C<sub>7</sub>H<sub>8</sub>N<sub>2</sub>",
        "Molecular Mass": "120.15",
        "Boiling Point": "90-92 °C @ Press: 1 Torr",
        "Melting Point": "28-29 °C"
    }
}