{
    "cas_no": "1437-15-6",
    "key_name": "2,2′-(1,2-Ethenediyl)bis[pyridine]",
    "cn_name": "1,2-双吡啶基乙烯;1,2-双吡啶基乙烯;",
    "alternate_name": "Pyridine, 2,2′-(1,2-ethenediyl)bis-;Pyridine, 2,2′-vinylenedi-;2,2′-(1,2-Ethenediyl)bis[pyridine];1,2-Bis(2-pyridyl)ethylene;1,2-Bis(2-pyridyl)ethene;1,2-Di-2-pyridylethene;NSC 9489",
    "duplicated_cas_no": "24950-43-4",
    "SMILES": "C(=CC1=CC=CC=N1)C2=CC=CC=N2",
    "meta_data": {
        "InChI": "InChI=1S/C12H10N2/c1-3-9-13-11(5-1)7-8-12-6-2-4-10-14-12/h1-10H",
        "InChIKey": null,
        "Canonical SMILES": "N=1C=CC=CC1C=CC2=NC=CC=C2",
        "Molecular Formula": "C<sub>12</sub>H<sub>10</sub>N<sub>2</sub>",
        "Molecular Mass": "182.22",
        "Boiling Point": "150-160 °C",
        "Melting Point": "118-119 °C"
    }
}