{
    "cas_no": "61-56-3",
    "key_name": "Sulthiame",
    "cn_name": null,
    "alternate_name": "Benzenesulfonamide, 4-(tetrahydro-1,1-dioxido-2<em>H</em>-1,2-thiazin-2-yl)-;Benzenesulfonamide, <em>p</em>-(tetrahydro-2<em>H</em>-1,2-thiazin-2-yl)-, <em>S</em>,<em>S</em>-dioxide;Benzenesulfonamide, 4-(tetrahydro-2<em>H</em>-1,2-thiazin-2-yl)-, <em>S</em>,<em>S</em>-dioxide;Benzenesulfonamide, <em>p</em>-(tetrahydro-2<em>H</em>-1,2-thiazin-2-yl)-, dioxide;2<em>H</em>-1,2-Thiazine, benzenesulfonamide deriv.;2<em>H</em>-1,2-Thiazine, tetrahydro-2-<em>p</em>-sulfamoylphenyl-, 1,1-dioxide;4-(Tetrahydro-1,1-dioxido-2<em>H</em>-1,2-thiazin-2-yl)benzenesulfonamide;Riker 594;Conadil;Contravul;Ospolot;2-(<em>p</em>-Sulfamoylphenyl)-tetrahydro-2<em>H</em>-1,2-thiazine 1,1-dioxide;Sulphenyltame;Sulthiam;Sulthiame;Sulthiamine;Trolone;A 168;Elisal;<em>p</em>-(Tetrahydro-2<em>H</em>-1,2-thiazin-2-yl)benzenesulfonamide dioxide;2<em>H</em>-1,2-Thiazine, 2-[4-(aminosulfonyl)phenyl]tetrahydro-, 1,1-dioxide;Sultiame;Sulphthiame;Sulphenytame;Bayer A 168;Sultiam;A 168 (anticonvulsant)",
    "duplicated_cas_no": "",
    "SMILES": "O=S1(=O)N(C2=CC=C(S(N)(=O)=O)C=C2)CCCC1",
    "meta_data": {
        "InChI": "InChI=1S/C10H14N2O4S2/c11-18(15,16)10-5-3-9(4-6-10)12-7-1-2-8-17(12,13)14/h3-6H,1-2,7-8H2,(H2,11,15,16)",
        "InChIKey": null,
        "Canonical SMILES": "O=S(=O)(N)C1=CC=C(C=C1)N2CCCCS2(=O)=O",
        "Molecular Formula": "C<sub>10</sub>H<sub>14</sub>N<sub>2</sub>O<sub>4</sub>S<sub>2</sub>",
        "Molecular Mass": "290.36",
        "Melting Point": "181 °C"
    }
}