{
    "cas_no": "13241-33-3",
    "key_name": "Neohesperidin",
    "cn_name": "新橙皮苷;",
    "alternate_name": "4<em>H</em>-1-Benzopyran-4-one, 7-[[2-<em>O</em>-(6-deoxy-α-<span class=\"text-smallcaps\">L</smallcap>-mannopyranosyl)-β-<smallcap>D</span>-glucopyranosyl]oxy]-2,3-dihydro-5-hydroxy-2-(3-hydroxy-4-methoxyphenyl)-, (2<em>S</em>)-;Neohesperidin;4<em>H</em>-1-Benzopyran-4-one, 7-[[2-<em>O</em>-(6-deoxy-α-<span class=\"text-smallcaps\">L</smallcap>-mannopyranosyl)-β-<smallcap>D</span>-glucopyranosyl]oxy]-2,3-dihydro-5-hydroxy-2-(3-hydroxy-4-methoxyphenyl)-, (<em>S</em>)-;Flavanone, 3′,5,7-trihydroxy-4′-methoxy-, 7-(2-<em>O</em>-α-<span class=\"text-smallcaps\">L</smallcap>-rhamnopyranosyl-β-<smallcap>D</span>-glucopyranoside);(2<em>S</em>)-7-[[2-<em>O</em>-(6-Deoxy-α-<span class=\"text-smallcaps\">L</smallcap>-mannopyranosyl)-β-<smallcap>D</span>-glucopyranosyl]oxy]-2,3-dihydro-5-hydroxy-2-(3-hydroxy-4-methoxyphenyl)-4<em>H</em>-1-benzopyran-4-one;Hesperetin 7-neohesperidoside;NSC 31048;(2<em>S</em>)-Neohesperidin;Hesperetin 7-<em>O</em>-neohesperidoside;Neohespirin",
    "duplicated_cas_no": "6319-43-3;906320-93-2",
    "SMILES": "O=C1C=2C(O[C@@H](C1)C3=CC(O)=C(OC)C=C3)=CC(O[C@H]4[C@H](O[C@H]5[C@H](O)[C@H](O)[C@@H](O)[C@H](C)O5)[C@@H](O)[C@H](O)[C@@H](CO)O4)=CC2O",
    "meta_data": {
        "InChI": "InChI=1S/C28H34O15/c1-10-21(33)23(35)25(37)27(39-10)43-26-24(36)22(34)19(9-29)42-28(26)40-12-6-14(31)20-15(32)8-17(41-18(20)7-12)11-3-4-16(38-2)13(30)5-11/h3-7,10,17,19,21-31,33-37H,8-9H2,1-2H3/t10-,17-,19+,21-,22+,23+,24-,25+,26+,27-,28+/m0/s1",
        "InChIKey": null,
        "Canonical SMILES": "O=C1C2=C(O)C=C(OC3OC(CO)C(O)C(O)C3OC4OC(C)C(O)C(O)C4O)C=C2OC(C5=CC=C(OC)C(O)=C5)C1",
        "Molecular Formula": "C<sub>28</sub>H<sub>34</sub>O<sub>15</sub>",
        "Molecular Mass": "610.56",
        "Melting Point": "244 °C"
    }
}