{
    "cas_no": "171058-21-2",
    "key_name": "1-Tetradecyl-3-methylimidazolium chloride",
    "cn_name": "1-十四烷-3-甲基氯化咪唑翁;",
    "alternate_name": "1<em>H</em>-Imidazolium, 1-methyl-3-tetradecyl-, chloride (1:1);1<em>H</em>-Imidazolium, 1-methyl-3-tetradecyl-, chloride;1-Tetradecyl-3-methylimidazolium chloride;1-Methyl-3-tetradecylimidazolium chloride",
    "duplicated_cas_no": "",
    "SMILES": "C(CCCCCCCCCCCCC)[N+]=1C=CN(C)C1.[Cl-]",
    "meta_data": {
        "InChI": "InChI=1S/C18H35N2.ClH/c1-3-4-5-6-7-8-9-10-11-12-13-14-15-20-17-16-19(2)18-20;/h16-18H,3-15H2,1-2H3;1H/q+1;/p-1",
        "InChIKey": null,
        "Canonical SMILES": "[Cl-].C1=C[N+](=CN1C)CCCCCCCCCCCCCC",
        "Molecular Formula": "C<sub>18</sub>H<sub>35</sub>N<sub>2</sub>.Cl",
        "Molecular Mass": "",
        "Melting Point": "51-52 °C"
    }
}