{
    "cas_no": "393-37-3",
    "key_name": "5-Bromo-2-fluorobenzotrifluoride",
    "cn_name": "5-溴-2-氟三氟甲苯;2-氟-5-溴三氟甲苯;",
    "alternate_name": "Benzene, 4-bromo-1-fluoro-2-(trifluoromethyl)-;Toluene, 5-bromo-α,α,α,2-tetrafluoro-;4-Bromo-1-fluoro-2-(trifluoromethyl)benzene;5-Bromo-2-fluorobenzotrifluoride;5-Bromo-2-fluoro-1-trifluoromethylbenzene;1-Bromo-4-fluoro-3-trifluoromethylbenzene;4-Fluoro-3-(trifluoromethyl)bromobenzene;2-Fluoro-5-bromobenzotrifluoride",
    "duplicated_cas_no": "",
    "SMILES": "C(F)(F)(F)C1=C(F)C=CC(Br)=C1",
    "meta_data": {
        "InChI": "InChI=1S/C7H3BrF4/c8-4-1-2-6(9)5(3-4)7(10,11)12/h1-3H",
        "InChIKey": null,
        "Canonical SMILES": "FC1=CC=C(Br)C=C1C(F)(F)F",
        "Molecular Formula": "C<sub>7</sub>H<sub>3</sub>BrF<sub>4</sub>",
        "Molecular Mass": "243.00",
        "Boiling Point": "78-83 °C @ Press: 50 Torr",
        "Melting Point": "203 °C",
        "Density": "1.720 g/cm³ @ Temp: 25 °C"
    }
}