{
    "cas_no": "4277-34-3",
    "key_name": "4-Cycloocten-1-ol",
    "cn_name": null,
    "alternate_name": "4-Cycloocten-1-ol;5-Hydroxycyclooctene;4-Cyclooctenol;NSC 119487;5-Hydroxy-1-cyclooctene;1-Hydroxy-4-cyclooctene;1-Hydroxy-5-cyclooctene;5-Hydroxycycloctene;Cycloocten-5-ol;Cyclooct-4-enol",
    "duplicated_cas_no": "31598-74-0;39638-01-2;1403266-22-7;1443665-41-5",
    "SMILES": "OC1CCCC=CCC1",
    "meta_data": {
        "InChI": "InChI=1S/C8H14O/c9-8-6-4-2-1-3-5-7-8/h1-2,8-9H,3-7H2",
        "InChIKey": null,
        "Canonical SMILES": "OC1CCC=CCCC1",
        "Molecular Formula": "C<sub>8</sub>H<sub>14</sub>O",
        "Molecular Mass": "126.20",
        "Boiling Point": "87.5-90 °C @ Press: 10 Torr"
    }
}