{
    "cas_no": "67329-11-7",
    "key_name": "3-Chloro-2-(chloromethyl)-2-methylpropanoic acid",
    "cn_name": null,
    "alternate_name": "Propanoic acid, 3-chloro-2-(chloromethyl)-2-methyl-;Propionic acid, 2,2-bis(chloromethyl)-;3-Chloro-2-(chloromethyl)-2-methylpropanoic acid;β,β′-Dichloropivalic acid;2,2-Bis(chloromethyl)propionic acid;3,3′-Dichloropivalic acid;2,2-Bis(chloromethyl)propanoic acid",
    "duplicated_cas_no": "",
    "SMILES": "C(C(O)=O)(CCl)(CCl)C",
    "meta_data": {
        "InChI": "InChI=1S/C5H8Cl2O2/c1-5(2-6,3-7)4(8)9/h2-3H2,1H3,(H,8,9)",
        "InChIKey": null,
        "Canonical SMILES": "O=C(O)C(C)(CCl)CCl",
        "Molecular Formula": "C<sub>5</sub>H<sub>8</sub>Cl<sub>2</sub>O<sub>2</sub>",
        "Molecular Mass": "171.02",
        "Melting Point": "71 °C"
    }
}