{
    "cas_no": "31482-56-1",
    "key_name": "Disperse Orange 25",
    "cn_name": "分散橙25;4-[N-(2-氰乙基)-N-乙基氨基]-4\"-硝基偶氮苯;",
    "alternate_name": "Propanenitrile, 3-[ethyl[4-[2-(4-nitrophenyl)diazenyl]phenyl]amino]-;Propionitrile, 3-[<em>N</em>-ethyl-<em>p</em>-[(<em>p</em>-nitrophenyl)azo]anilino]-;Propanenitrile, 3-[ethyl[4-[(4-nitrophenyl)azo]phenyl]amino]-;3-[Ethyl[4-[2-(4-nitrophenyl)diazenyl]phenyl]amino]propanenitrile;4-[<em>N</em>-(2-Cyanoethyl)-<em>N</em>-ethylamino]-4′-nitroazobenzene;C.I. Disperse Orange 25;Artisil Brilliant Orange RL;Eastman Polyester Brilliant Orange 2RL;Serilene Orange 2RL;Tersetile Orange RCL;Latyl Orange NST;Foron Brilliant Orange E-RL;Resiren Orange TR;Disperse Orange 25;Transetile Orange P-RCL;Disperse Polyester Orange;Fantagen Orange 2RL;Disperse Brilliant Orange RL;Dispersol Orange B 2R;C.I. Solvent Orange 105;Solvent Orange 105;Synten Orange P-RL;Resolin Orange F 3R200;Dispersol Orange B 2R200;Serilene Orange 2RL200;Foron Brilliant Orange E-RLI;Serene Disperse Orange 25;Disperse Orange 2K;Orange RL;Disperse Orange P/E;Foron Brilliant Orange RL;Seriplas Orange 2RL-TP;C.I. Disperse Orange 36;Disperse Orange 36;Interatherm Orange P 367;3-[<em>N</em>-Ethyl-4-(4-nitrophenylazo)phenylamino]propionitrile;Riaplas orange 2RL-TP",
    "duplicated_cas_no": "12223-19-7;12223-22-2;58128-99-7;69866-31-5;71343-63-0;73299-44-2",
    "SMILES": "N(CCC#N)(CC)C1=CC=C(N=NC2=CC=C(N(=O)=O)C=C2)C=C1",
    "meta_data": {
        "InChI": "InChI=1S/C17H17N5O2/c1-2-21(13-3-12-18)16-8-4-14(5-9-16)19-20-15-6-10-17(11-7-15)22(23)24/h4-11H,2-3,13H2,1H3",
        "InChIKey": null,
        "Canonical SMILES": "N#CCCN(C1=CC=C(N=NC2=CC=C(C=C2)N(=O)=O)C=C1)CC",
        "Molecular Formula": "C<sub>17</sub>H<sub>17</sub>N<sub>5</sub>O<sub>2</sub>",
        "Molecular Mass": "323.35",
        "Melting Point": "160-161 °C"
    }
}