{
    "cas_no": "368-54-7",
    "key_name": "2,3-Dihydro-2-thioxo-6-(trifluoromethyl)-4(1<em>H</em>)-pyrimidinone",
    "cn_name": "4-羟基-6-三氟甲基嘧啶-2-硫醇;4-羟基-6-(三氟甲基)嘧啶-2-硫醇;4-羟基-6-(三氟甲基)嘧啶-2-硫醇, 97+%;",
    "alternate_name": "4(1<em>H</em>)-Pyrimidinone, 2,3-dihydro-2-thioxo-6-(trifluoromethyl)-;Uracil, 2-thio-6-(trifluoromethyl)-;2,3-Dihydro-2-thioxo-6-(trifluoromethyl)-4(1<em>H</em>)-pyrimidinone;6-Trifluoromethyl-2-thiouracil;NSC 400847;4-Hydroxy-6-(trifluoromethyl)pyrimidine-2-thiol;2-Sulfanylidene-6-(trifluoromethyl)-1,2,3,4-tetrahydropyrimidin-4-one;2-Sulfanyl-6-(trifluoromethyl)-3,4-dihydropyrimidin-4-one;2-Thioxo-6-trifluoromethyl-2,3-dihydro-1<em>H</em>-pyrimidin-4-one;2-Sulfanyl-6-(trifluoromethyl)pyrimidin-4-ol;2-Sulfanylidene-6-(trifluoromethyl)-1<em>H</em>-pyrimidin-4-one;2-Mercapto-6-trifluoromethyl-3<em>H</em>-pyrimidin-4-one;2-Sulfanyl-6-(trifluoromethyl)-1,4-dihydropyrimidin-4-one;2-Mercapto-6-(trifluoromethyl)pyrimidin-4-ol",
    "duplicated_cas_no": "",
    "SMILES": "C(F)(F)(F)C1=CC(=O)NC(=S)N1",
    "meta_data": {
        "InChI": "InChI=1S/C5H3F3N2OS/c6-5(7,8)2-1-3(11)10-4(12)9-2/h1H,(H2,9,10,11,12)",
        "InChIKey": null,
        "Canonical SMILES": "O=C1C=C(NC(=S)N1)C(F)(F)F",
        "Molecular Formula": "C<sub>5</sub>H<sub>3</sub>F<sub>3</sub>N<sub>2</sub>OS",
        "Molecular Mass": "196.15",
        "Melting Point": "247-249 °C"
    }
}