{
    "cas_no": "7499-56-1",
    "key_name": "3-(2-Bromophenyl)-2-propenoic acid",
    "cn_name": "2-溴肉桂酸;2-溴苯丙烯酸;",
    "alternate_name": "2-Propenoic acid, 3-(2-bromophenyl)-;Cinnamic acid, <em>o</em>-bromo-;3-(2-Bromophenyl)-2-propenoic acid;<em>o</em>-Bromocinnamic acid;2-Bromocinnamic acid;NSC 407679;3-(2-Bromophenyl)acrylic acid",
    "duplicated_cas_no": "",
    "SMILES": "C(=CC(O)=O)C1=C(Br)C=CC=C1",
    "meta_data": {
        "InChI": "InChI=1S/C9H7BrO2/c10-8-4-2-1-3-7(8)5-6-9(11)12/h1-6H,(H,11,12)",
        "InChIKey": null,
        "Canonical SMILES": "O=C(O)C=CC=1C=CC=CC1Br",
        "Molecular Formula": "C<sub>9</sub>H<sub>7</sub>BrO<sub>2</sub>",
        "Molecular Mass": "227.05",
        "Melting Point": "84-86 °C"
    }
}