{
    "cas_no": "3256-88-0",
    "key_name": "2-Methyl-5-phenylpyridine",
    "cn_name": "2-甲基-5-苯基吡啶;",
    "alternate_name": "Pyridine, 2-methyl-5-phenyl-;2-Picoline, 5-phenyl-;2-Methyl-5-phenylpyridine;3-Phenyl-6-methylpyridine",
    "duplicated_cas_no": "",
    "SMILES": "CC=1C=CC(=CN1)C2=CC=CC=C2",
    "meta_data": {
        "InChI": "InChI=1S/C12H11N/c1-10-7-8-12(9-13-10)11-5-3-2-4-6-11/h2-9H,1H3",
        "InChIKey": null,
        "Canonical SMILES": "N1=CC(=CC=C1C)C2=CC=CC=C2",
        "Molecular Formula": "C<sub>12</sub>H<sub>11</sub>N",
        "Molecular Mass": "169.22",
        "Boiling Point": "141-145 °C @ Press: 12 Torr"
    }
}