{
    "cas_no": "429-06-1",
    "key_name": "Tetraethylammonium tetrafluoroborate",
    "cn_name": "四乙基四氟硼酸铵;",
    "alternate_name": "Ethanaminium, <em>N</em>,<em>N</em>,<em>N</em>-triethyl-, tetrafluoroborate(1-) (1:1);Ammonium, tetraethyl-, tetrafluoroborate(1-);Ethanaminium, <em>N</em>,<em>N</em>,<em>N</em>-triethyl-, tetrafluoroborate(1-);Tetraethylammonium tetrafluoroborate;Borate(1-), tetrafluoro-, tetraethylammonium;Borate(1-), tetrafluoro-, <em>N</em>,<em>N</em>,<em>N</em>-triethylethanaminium;Tetraethylammonium tetrafluoroborate(1-);NSC 231537;Merck Supercapacitor Electrolyte LES 100;LES 100;Digirena;Lipaste P/EAFIN;Lipaste AN/EAF 1",
    "duplicated_cas_no": "",
    "SMILES": "[B+3]([F-])([F-])([F-])[F-].[N+](CC)(CC)(CC)CC",
    "meta_data": {
        "InChI": "InChI=1S/C8H20N.BF4/c1-5-9(6-2,7-3)8-4;2-1(3,4)5/h5-8H2,1-4H3;/q+1;-1",
        "InChIKey": null,
        "Canonical SMILES": "[F-][B+3]([F-])([F-])[F-].CC[N+](CC)(CC)CC",
        "Molecular Formula": "C<sub>8</sub>H<sub>20</sub>N.BF<sub>4</sub>",
        "Molecular Mass": "",
        "Melting Point": "365-368 °C",
        "Density": "1.132 g/cm³"
    }
}