{
    "cas_no": "7774-73-4",
    "key_name": "3-Thiophenethiol",
    "cn_name": null,
    "alternate_name": "3-Thiophenethiol;3-Thienyl mercaptan;3-Mercaptothiophene;3-Thienylthiol",
    "duplicated_cas_no": "",
    "SMILES": "SC=1C=CSC1",
    "meta_data": {
        "InChI": "InChI=1S/C4H4S2/c5-4-1-2-6-3-4/h1-3,5H",
        "InChIKey": null,
        "Canonical SMILES": "SC1=CSC=C1",
        "Molecular Formula": "C<sub>4</sub>H<sub>4</sub>S<sub>2</sub>",
        "Molecular Mass": "116.20",
        "Boiling Point": "171 °C",
        "Density": "1.251 g/cm³ @ Temp: 25 °C"
    }
}