{
    "cas_no": "609806-40-8",
    "key_name": "Ethyl 4-[8-chloro-5,6-dihydro-4-(hydroxymethyl)-11<em>H</em>-benzo[5,6]cyclohepta[1,2-<em>b</em>]pyridin-11-ylidene]-1-piperidinecarboxylate",
    "cn_name": null,
    "alternate_name": "1-Piperidinecarboxylic acid, 4-[8-chloro-5,6-dihydro-4-(hydroxymethyl)-11<em>H</em>-benzo[5,6]cyclohepta[1,2-<em>b</em>]pyridin-11-ylidene]-, ethyl ester;Ethyl 4-[8-chloro-5,6-dihydro-4-(hydroxymethyl)-11<em>H</em>-benzo[5,6]cyclohepta[1,2-<em>b</em>]pyridin-11-ylidene]-1-piperidinecarboxylate",
    "duplicated_cas_no": "",
    "SMILES": "C(O)C1=C2C(C(C=3C(CC2)=CC(Cl)=CC3)=C4CCN(C(OCC)=O)CC4)=NC=C1",
    "meta_data": {
        "InChI": "InChI=1S/C23H25ClN2O3/c1-2-29-23(28)26-11-8-15(9-12-26)21-19-6-4-18(24)13-16(19)3-5-20-17(14-27)7-10-25-22(20)21/h4,6-7,10,13,27H,2-3,5,8-9,11-12,14H2,1H3",
        "InChIKey": null,
        "Canonical SMILES": "O=C(OCC)N1CCC(=C2C=3N=CC=C(C3CCC=4C=C(Cl)C=CC24)CO)CC1",
        "Molecular Formula": "C<sub>23</sub>H<sub>25</sub>ClN<sub>2</sub>O<sub>3</sub>",
        "Molecular Mass": "412.91",
        "Melting Point": "83-85 °C"
    }
}