{
    "cas_no": "52829-98-8",
    "key_name": "1-Cyclopentylethanol",
    "cn_name": "1-环戊基乙醇;",
    "alternate_name": "Cyclopentanemethanol, α-methyl-;α-Methylcyclopentanemethanol;1-Cyclopentylethanol;NSC 9473;1-Cyclopentylethan-1-ol",
    "duplicated_cas_no": "138381-74-5",
    "SMILES": "C(C)(O)C1CCCC1",
    "meta_data": {
        "InChI": "InChI=1S/C7H14O/c1-6(8)7-4-2-3-5-7/h6-8H,2-5H2,1H3",
        "InChIKey": null,
        "Canonical SMILES": "OC(C)C1CCCC1",
        "Molecular Formula": "C<sub>7</sub>H<sub>14</sub>O",
        "Molecular Mass": "114.19",
        "Boiling Point": "96.5-97 °C @ Press: 24 Torr",
        "Density": "0.9180 g/cm³ @ Temp: 20 °C"
    }
}