{
    "cas_no": "1726-23-4",
    "key_name": "1,2,4-Tributyl 1,2,4-benzenetricarboxylate",
    "cn_name": "三丁基偏苯三甲酸酯;偏苯三酸三-正丁基酯;",
    "alternate_name": "1,2,4-Benzenetricarboxylic acid, 1,2,4-tributyl ester;1,2,4-Benzenetricarboxylic acid, tributyl ester;Trimellitic acid, tributyl ester;1,2,4-Tributyl 1,2,4-benzenetricarboxylate;Tri-<em>n</em>-butyl trimellitate;Tributyl trimellitate;Trimellitic acid tri-<em>n</em>-butyl ester;Monocizer TBTM",
    "duplicated_cas_no": "",
    "SMILES": "C(OCCCC)(=O)C1=C(C(OCCCC)=O)C=CC(C(OCCCC)=O)=C1",
    "meta_data": {
        "InChI": "InChI=1S/C21H30O6/c1-4-7-12-25-19(22)16-10-11-17(20(23)26-13-8-5-2)18(15-16)21(24)27-14-9-6-3/h10-11,15H,4-9,12-14H2,1-3H3",
        "InChIKey": null,
        "Canonical SMILES": "O=C(OCCCC)C1=CC=C(C(=O)OCCCC)C(=C1)C(=O)OCCCC",
        "Molecular Formula": "C<sub>21</sub>H<sub>30</sub>O<sub>6</sub>",
        "Molecular Mass": "378.46",
        "Boiling Point": "230-233 °C @ Press: 4 Torr"
    }
}