{
    "cas_no": "4659-45-4",
    "key_name": "2,6-Dichlorobenzoyl chloride",
    "cn_name": "2,6-二氯苯甲酰氯;",
    "alternate_name": "Benzoyl chloride, 2,6-dichloro-;2,6-Dichlorobenzoyl chloride",
    "duplicated_cas_no": "",
    "SMILES": "C(Cl)(=O)C1=C(Cl)C=CC=C1Cl",
    "meta_data": {
        "InChI": "InChI=1S/C7H3Cl3O/c8-4-2-1-3-5(9)6(4)7(10)11/h1-3H",
        "InChIKey": null,
        "Canonical SMILES": "O=C(Cl)C=1C(Cl)=CC=CC1Cl",
        "Molecular Formula": "C<sub>7</sub>H<sub>3</sub>Cl<sub>3</sub>O",
        "Molecular Mass": "209.46",
        "Boiling Point": "92-103 °C @ Press: 0.7 Torr",
        "Melting Point": "208-210 °C"
    }
}