{
    "cas_no": "6269-89-2",
    "key_name": "1-(4-Nitrophenyl)piperazine",
    "cn_name": "1-(4-硝基苯基)哌嗪;",
    "alternate_name": "Piperazine, 1-(4-nitrophenyl)-;Piperazine, 1-(<em>p</em>-nitrophenyl)-;1-(4-Nitrophenyl)piperazine;1-(<em>p</em>-Nitrophenyl)piperazine;<em>N</em>-(4-Nitrophenyl)piperazine;NSC 148473;NSC 33874;<em>N</em>-(<em>p</em>-Nitrophenyl)piperazine;1-(4-Nitrophenyl)piperiazine;4-(Piperazin-1-yl)-nitrobenzene",
    "duplicated_cas_no": "",
    "SMILES": "N(=O)(=O)C1=CC=C(C=C1)N2CCNCC2",
    "meta_data": {
        "InChI": "InChI=1S/C10H13N3O2/c14-13(15)10-3-1-9(2-4-10)12-7-5-11-6-8-12/h1-4,11H,5-8H2",
        "InChIKey": null,
        "Canonical SMILES": "O=N(=O)C1=CC=C(C=C1)N2CCNCC2",
        "Molecular Formula": "C<sub>10</sub>H<sub>13</sub>N<sub>3</sub>O<sub>2</sub>",
        "Molecular Mass": "207.23",
        "Melting Point": "135 °C"
    }
}