{
    "cas_no": "12024-24-7",
    "key_name": "Gallium selenide (Ga<sub>2</sub>Se<sub>3</sub>)",
    "cn_name": null,
    "alternate_name": "Gallium selenide (Ga<sub>2</sub>Se<sub>3</sub>);Digallium triselenide;Gallium sesquiselenide;Gallium(3+) selenide",
    "duplicated_cas_no": "",
    "SMILES": "[Se].[Ga]",
    "meta_data": {
        "InChI": "InChI=1S/Ga.Se",
        "InChIKey": null,
        "Canonical SMILES": "[Ga].[Se]",
        "Molecular Formula": "Ga.Se",
        "Molecular Mass": "",
        "Melting Point": "1020 °C",
        "Density": "4.83 g/cm³"
    }
}