{
    "uri": "substance/pt/12024247",
    "rn": "12024-24-7",
    "name": "Gallium selenide (Ga<sub>2</sub>Se<sub>3</sub>)",
    "images": [],
    "inchi": "InChI=1S/Ga.Se",
    "inchiKey": "InChIKey=QNWMNMIVDYETIG-UHFFFAOYSA-N",
    "smile": "[Se].[Ga]",
    "canonicalSmile": "[Ga].[Se]",
    "molecularFormula": "Ga.Se",
    "molecularMass": "",
    "experimentalProperties": [
        {
            "name": "Melting Point",
            "property": "1020 °C",
            "sourceNumber": 1
        },
        {
            "name": "Density",
            "property": "4.83 g/cm³",
            "sourceNumber": 1
        }
    ],
    "propertyCitations": [
        {
            "docUri": "document/pt/document/11877810",
            "sourceNumber": 1,
            "source": "Efendiev, G. Kh.; Izvestiya Akademii Nauk SSSR, Seriya Fizicheskaya, (1964), 28(6), 1103-6, CAplus"
        }
    ],
    "synonyms": [
        "Gallium selenide (Ga<sub>2</sub>Se<sub>3</sub>)",
        "Digallium triselenide",
        "Gallium sesquiselenide",
        "Gallium(3+) selenide"
    ],
    "replacedRns": [],
    "hasMolfile": true,
    "source": "https://commonchemistry.cas.org/detail?cas_rn=12024-24-7"
}