{
    "cas_no": "6921-27-3",
    "key_name": "3,3′-Oxybis[1-propyne]",
    "cn_name": "二丙炔基醚;二丙炔基醚;",
    "alternate_name": "1-Propyne, 3,3′-oxybis-;2-Propynyl ether;3,3′-Oxybis[1-propyne];Propargyl ether;Dipropargyl ether;Dipropargyl oxide;3-[(Prop-2-ynyl)oxy]propyne;4-Oxa-1,6-heptadiyne;Bis(2-propynyl) ether;3-Prop-2-ynoxyprop-1-yne",
    "duplicated_cas_no": "",
    "SMILES": "O(CC#C)CC#C",
    "meta_data": {
        "InChI": "InChI=1S/C6H6O/c1-3-5-7-6-4-2/h1-2H,5-6H2",
        "InChIKey": null,
        "Canonical SMILES": "C#CCOCC#C",
        "Molecular Formula": "C<sub>6</sub>H<sub>6</sub>O",
        "Molecular Mass": "94.11",
        "Boiling Point": "119-120 °C",
        "Density": "0.9266 g/cm³ @ Temp: 20 °C"
    }
}