{
    "cas_no": "83-24-9",
    "key_name": "2,5-Dimethyl-1-phenylpyrrole",
    "cn_name": "2,5-二甲基-1-苯基吡咯;1-苯基-2,5-二甲基吡咯;",
    "alternate_name": "1<em>H</em>-Pyrrole, 2,5-dimethyl-1-phenyl-;Pyrrole, 2,5-dimethyl-1-phenyl-;2,5-Dimethyl-1-phenyl-1<em>H</em>-pyrrole;2,5-Dimethyl-1-phenylpyrrole;1-Phenyl-2,5-dimethylpyrrole;<em>N</em>-Phenyl-2,5-dimethylpyrrole;NSC 163170;2,5-Dimethyl-<em>N</em>-phenylpyrrole",
    "duplicated_cas_no": "",
    "SMILES": "CC=1N(C(C)=CC1)C2=CC=CC=C2",
    "meta_data": {
        "InChI": "InChI=1S/C12H13N/c1-10-8-9-11(2)13(10)12-6-4-3-5-7-12/h3-9H,1-2H3",
        "InChIKey": null,
        "Canonical SMILES": "C=1C=CC(=CC1)N2C(=CC=C2C)C",
        "Molecular Formula": "C<sub>12</sub>H<sub>13</sub>N",
        "Molecular Mass": "171.24",
        "Boiling Point": "60-61 °C @ Press: 0.05 Torr",
        "Melting Point": "51-52 °C"
    }
}