{
    "cas_no": "27298-99-3",
    "key_name": "(+)-1-(4-Chlorophenyl)ethylamine",
    "cn_name": "(R)-1-(4-氯苯基)乙胺;",
    "alternate_name": "Benzenemethanamine, 4-chloro-α-methyl-, (α<em>R</em>)-;Benzylamine, <em>p</em>-chloro-α-methyl-, (<em>R</em>)-(+)-;Benzenemethanamine, 4-chloro-α-methyl-, (<em>R</em>)-;(α<em>R</em>)-4-Chloro-α-methylbenzenemethanamine;(<em>R</em>)-1-(4-Chlorophenyl)ethylamine;(<em>R</em>)-4-Chloro-α-methylbenzenemethanamine;(+)-α-(<em>p</em>-Chlorophenyl)ethylamine;(+)-1-(4-Chlorophenyl)ethylamine;(1<em>R</em>)-1-(4-Chlorophenyl)ethanamine;(<em>R</em>)-1-(4-Chlorophenyl)ethanamine;(<em>R</em>)-(+)-1-(4-Chlorophenyl)ethylamine;(R)-4-Chloro-α-methylbenzylamine;(<em>R</em>)-(+)-4-Chloro-α-methylbenzylamine;(R)-1-(4-Chlorophenyl)ethan-1-amine;(R)-(+)-1-(4-Chlorophenyl)ethylamine;(1R)-1-(4-Chlorophenyl)ethanamine;(1R)-1-(4-Chlorophenyl)ethan-1-amine",
    "duplicated_cas_no": "",
    "SMILES": "[C@H](C)(N)C1=CC=C(Cl)C=C1",
    "meta_data": {
        "InChI": "InChI=1S/C8H10ClN/c1-6(10)7-2-4-8(9)5-3-7/h2-6H,10H2,1H3/t6-/m1/s1",
        "InChIKey": null,
        "Canonical SMILES": "ClC1=CC=C(C=C1)C(N)C",
        "Molecular Formula": "C<sub>8</sub>H<sub>10</sub>ClN",
        "Molecular Mass": "155.62",
        "Melting Point": "222-224 °C",
        "Density": "1.10688 g/cm³ @ Temp: 25.00 °C"
    }
}