{
    "cas_no": "7785-87-7",
    "key_name": "Manganese sulfate",
    "cn_name": "硫酸锰;",
    "alternate_name": "Sulfuric acid, manganese(2+) salt (1:1);Manganese sulfate;Manganese sulfate (MnSO<sub>4</sub>);Manganese sulphate;Manganous sulfate;Manganese(II) sulfate;Manganese sulfate (1:1);Sulfuric acid manganese salt (1:1);Manganese(2+) sulfate (1:1);Manganese(2+) sulfate (MnSO<sub>4</sub>);Sorba-Spray Mn;Man-Gro;Manganese(2+) sulfate;Manganese monosulfate",
    "duplicated_cas_no": "139939-61-0;7487-89-0;32916-06-6;36474-32-5",
    "SMILES": "S(=O)(=O)(O)O.[Mn]",
    "meta_data": {
        "InChI": "InChI=1S/Mn.H2O4S/c;1-5(2,3)4/h;(H2,1,2,3,4)",
        "InChIKey": null,
        "Canonical SMILES": "[Mn].O=S(=O)(O)O",
        "Molecular Formula": "H<sub>2</sub>O<sub>4</sub>S.Mn",
        "Molecular Mass": "",
        "Melting Point": "700 °C",
        "Density": "3.25 g/cm³"
    }
}