{
    "cas_no": "114369-43-6",
    "key_name": "Fenbuconazole",
    "cn_name": "唑菌腈;腈苯唑；4-(4-氯苯基)-2-苯基o-2-(1H-1，2，4-三唑-1-基甲基)丁腈;",
    "alternate_name": "1<em>H</em>-1,2,4-Triazole-1-propanenitrile, α-[2-(4-chlorophenyl)ethyl]-α-phenyl-;α-[2-(4-Chlorophenyl)ethyl]-α-phenyl-1<em>H</em>-1,2,4-triazole-1-propanenitrile;Fenethanil;Indar 5;Fenbuconazole;RH 7592;AG 4452;4-(4-Chlorophenyl)-2-phenyl-2-(1<em>H</em>-1,2,4-triazol-1-ylmethyl)butyronitrile;Indar",
    "duplicated_cas_no": "119611-00-6;205862-65-3;1135441-06-3",
    "SMILES": "C(CN1C=NC=N1)(CCC2=CC=C(Cl)C=C2)(C#N)C3=CC=CC=C3",
    "meta_data": {
        "InChI": "InChI=1S/C19H17ClN4/c20-18-8-6-16(7-9-18)10-11-19(12-21,13-24-15-22-14-23-24)17-4-2-1-3-5-17/h1-9,14-15H,10-11,13H2",
        "InChIKey": null,
        "Canonical SMILES": "N#CC(C=1C=CC=CC1)(CN2N=CN=C2)CCC3=CC=C(Cl)C=C3",
        "Molecular Formula": "C<sub>19</sub>H<sub>17</sub>ClN<sub>4</sub>",
        "Molecular Mass": "336.82",
        "Melting Point": "125 °C"
    }
}