{
    "cas_no": "2827-56-7",
    "key_name": "1-Aminohydantoin hydrochloride",
    "cn_name": "1-氨基海因盐酸盐;",
    "alternate_name": "2,4-Imidazolidinedione, 1-amino-, hydrochloride (1:1);Hydantoin, 1-amino-, hydrochloride;2,4-Imidazolidinedione, 1-amino-, monohydrochloride;1-Aminohydantoin hydrochloride;1-Amino-2,4-imidazolidinedione monohydrochloride;1-Aminoimidazolidine-2,4-dione hydrochloride",
    "duplicated_cas_no": "",
    "SMILES": "O=C1N(N)CC(=O)N1.Cl",
    "meta_data": {
        "InChI": "InChI=1S/C3H5N3O2.ClH/c4-6-1-2(7)5-3(6)8;/h1,4H2,(H,5,7,8);1H",
        "InChIKey": null,
        "Canonical SMILES": "Cl.O=C1NC(=O)CN1N",
        "Molecular Formula": "C<sub>3</sub>H<sub>5</sub>N<sub>3</sub>O<sub>2</sub>.ClH",
        "Molecular Mass": "",
        "Melting Point": "202-203 °C"
    }
}