{
    "cas_no": "17216-62-5",
    "key_name": "Propanedioic acid, 2-(2-cyanoethyl)-, 1,3-diethyl ester",
    "cn_name": "2-(2-氰乙基)丙二酸二乙酯;二乙基 2-(2-氰基乙基)丙二酸;(1-氰基乙基)丙二酸二乙酯;氰乙基丙二酸二乙酯;",
    "alternate_name": "Propanedioic acid, 2-(2-cyanoethyl)-, 1,3-diethyl ester;Malonic acid, (2-cyanoethyl)-, diethyl ester;Propanedioic acid, (2-cyanoethyl)-, diethyl ester;3-Cyano-1,1-propanedicarboxylic acid diethyl ester;Diethyl (2-cyanoethyl)malonate;Diethyl 2-(2-cyanoethyl)propanedioate;Diethyl 2-(2-cyanoethyl)malonate;1,3-Diethyl 2-(2-cyanoethyl)propanedioate",
    "duplicated_cas_no": "55406-10-5",
    "SMILES": "C(C(OCC)=O)(C(OCC)=O)CCC#N",
    "meta_data": {
        "InChI": "InChI=1S/C10H15NO4/c1-3-14-9(12)8(6-5-7-11)10(13)15-4-2/h8H,3-6H2,1-2H3",
        "InChIKey": null,
        "Canonical SMILES": "N#CCCC(C(=O)OCC)C(=O)OCC",
        "Molecular Formula": "C<sub>10</sub>H<sub>15</sub>NO<sub>4</sub>",
        "Molecular Mass": "213.23",
        "Boiling Point": "175-180 °C @ Press: 25 Torr",
        "Density": "1.0881 g/cm³ @ Temp: 20 °C"
    }
}