{
    "cas_no": "10476-95-6",
    "key_name": "2-Propene-1,1-diol, 2-methyl-, 1,1-diacetate",
    "cn_name": "甲丙烯醛二乙酰基缩醛;2-甲基-2-丙烯-1 ；二醇二乙酸；二乙酰氧基-2-甲基-1-丙烯；甲亚烯丙基二乙酸;",
    "alternate_name": "2-Propene-1,1-diol, 2-methyl-, 1,1-diacetate;2-Propene-1,1-diol, 2-methyl-, diacetate;Methacrolein diacetate;NSC 46577;3,3-Diacetoxy-2-methylpropene;2-Methylallylidene diacetate;2-Methyl-2-propene-1,1-diol diacetate;2-Methyl-2-propenylidene diacetate;3,3-Diacetoxy-2-methyl-1-propene;1,1-Diacetoxy-2-methyl-2-propene;1-(Acetyloxy)-2-methylprop-2-en-1-yl acetate;2-Methylprop-2-ene-1,1-diyl diacetate",
    "duplicated_cas_no": "",
    "SMILES": "C(OC(C)=O)(OC(C)=O)C(C)=C",
    "meta_data": {
        "InChI": "InChI=1S/C8H12O4/c1-5(2)8(11-6(3)9)12-7(4)10/h8H,1H2,2-4H3",
        "InChIKey": null,
        "Canonical SMILES": "O=C(OC(OC(=O)C)C(=C)C)C",
        "Molecular Formula": "C<sub>8</sub>H<sub>12</sub>O<sub>4</sub>",
        "Molecular Mass": "172.18",
        "Boiling Point": "191 °C",
        "Density": "1.051 g/cm³ @ Temp: 20 °C"
    }
}