{
    "cas_no": "80-57-9",
    "key_name": "(±)-Verbenone",
    "cn_name": null,
    "alternate_name": "Bicyclo[3.1.1]hept-3-en-2-one, 4,6,6-trimethyl-;2-Pinen-4-one;4,6,6-Trimethylbicyclo[3.1.1]hept-3-en-2-one;Verbenone;(±)-Verbenone;(<em>RS</em>)-Verbenone;NSC 6832;2,6,6-Trimethylbicyclo[3.1.1]hept-2-en-4-one",
    "duplicated_cas_no": "5480-12-6;29789-40-0",
    "SMILES": "CC1(C)C2CC1C(=O)C=C2C",
    "meta_data": {
        "InChI": "InChI=1S/C10H14O/c1-6-4-9(11)8-5-7(6)10(8,2)3/h4,7-8H,5H2,1-3H3",
        "InChIKey": null,
        "Canonical SMILES": "O=C1C=C(C)C2CC1C2(C)C",
        "Molecular Formula": "C<sub>10</sub>H<sub>14</sub>O",
        "Molecular Mass": "150.22",
        "Boiling Point": "100 °C @ Press: 16 Torr",
        "Melting Point": "6.5 °C",
        "Density": "0.981 g/cm³ @ Temp: 15 °C"
    }
}