{
    "cas_no": "452-06-2",
    "key_name": "2-Aminopurine",
    "cn_name": "2-氨基嘌呤;",
    "alternate_name": "9<em>H</em>-Purin-2-amine;Purine, 2-amino-;1<em>H</em>-Purin-2-amine;2-Aminopurine;SQ 22451;NSC 24129;Isoadenine;(9<em>H</em>-Purin-2-yl)amine;MeSH ID: D015075",
    "duplicated_cas_no": "553-81-1;15041-92-6;42911-31-9;42911-32-0",
    "SMILES": "NC=1N=C2C(=CN1)NC=N2",
    "meta_data": {
        "InChI": "InChI=1S/C5H5N5/c6-5-7-1-3-4(10-5)9-2-8-3/h1-2H,(H3,6,7,8,9,10)",
        "InChIKey": null,
        "Canonical SMILES": "N1=CNC=2C=NC(=NC12)N",
        "Molecular Formula": "C<sub>5</sub>H<sub>5</sub>N<sub>5</sub>",
        "Molecular Mass": "135.13",
        "Melting Point": "275-282 °C"
    }
}