{
    "cas_no": "6166-86-5",
    "key_name": "Pentamethylcyclopentasiloxane",
    "cn_name": "2,4,6,8,10-环五硅氧烷;",
    "alternate_name": "Cyclopentasiloxane, 2,4,6,8,10-pentamethyl-;2,4,6,8,10-Pentamethylcyclopentasiloxane;1,3,5,7,9-Pentamethylcyclopentasiloxane;LS 8990;Pentamethylcyclopentasiloxane;D 5H;2,4,6,8,10-Pentamethyl-1,3,5,7,9,2,4,6,8,10-pentaoxapentasilecane",
    "duplicated_cas_no": "",
    "SMILES": "C[SiH]1O[SiH](C)O[SiH](C)O[SiH](C)O[SiH](C)O1",
    "meta_data": {
        "InChI": "InChI=1S/C5H20O5Si5/c1-11-6-12(2)8-14(4)10-15(5)9-13(3)7-11/h11-15H,1-5H3",
        "InChIKey": null,
        "Canonical SMILES": "O1[SiH](O[SiH](O[SiH](O[SiH](O[SiH]1C)C)C)C)C",
        "Molecular Formula": "C<sub>5</sub>H<sub>20</sub>O<sub>5</sub>Si<sub>5</sub>",
        "Molecular Mass": "300.64",
        "Boiling Point": "169 °C",
        "Melting Point": "-108 °C",
        "Density": "0.998 g/cm³"
    }
}