{
    "cas_no": "15803-02-8",
    "key_name": "4-Bromo-1-methyl-1<em>H</em>-pyrazole",
    "cn_name": "1-甲基-4-溴吡唑;4-溴-1-甲基-1H-吡唑;",
    "alternate_name": "1<em>H</em>-Pyrazole, 4-bromo-1-methyl-;Pyrazole, 4-bromo-1-methyl-;4-Bromo-1-methyl-1<em>H</em>-pyrazole;4-Bromo-1-methylpyrazole;1-Methyl-4-bromopyrazole",
    "duplicated_cas_no": "",
    "SMILES": "BrC1=CN(C)N=C1",
    "meta_data": {
        "InChI": "InChI=1S/C4H5BrN2/c1-7-3-4(5)2-6-7/h2-3H,1H3",
        "InChIKey": null,
        "Canonical SMILES": "BrC=1C=NN(C1)C",
        "Molecular Formula": "C<sub>4</sub>H<sub>5</sub>BrN<sub>2</sub>",
        "Molecular Mass": "161.00",
        "Boiling Point": "76-78 °C @ Press: 18 Torr"
    }
}