{
    "cas_no": "52334-81-3",
    "key_name": "2-Chloro-5-(trifluoromethyl)pyridine",
    "cn_name": "2-氯-5-三氟甲基吡啶;",
    "alternate_name": "Pyridine, 2-chloro-5-(trifluoromethyl)-;2-Chloro-5-(trifluoromethyl)pyridine;5-Trifluoromethyl-2-chloropyridine",
    "duplicated_cas_no": "",
    "SMILES": "C(F)(F)(F)C=1C=CC(Cl)=NC1",
    "meta_data": {
        "InChI": "InChI=1S/C6H3ClF3N/c7-5-2-1-4(3-11-5)6(8,9)10/h1-3H",
        "InChIKey": null,
        "Canonical SMILES": "FC(F)(F)C1=CN=C(Cl)C=C1",
        "Molecular Formula": "C<sub>6</sub>H<sub>3</sub>ClF<sub>3</sub>N",
        "Molecular Mass": "181.54",
        "Boiling Point": "153 °C",
        "Melting Point": "33 °C"
    }
}