{
    "cas_no": "3147-62-4",
    "key_name": "3,5-Dihydroxybenzamide",
    "cn_name": "3,5-二羟基苯甲酰胺;",
    "alternate_name": "Benzamide, 3,5-dihydroxy-;α-Resorcylamide;3,5-Dihydroxybenzamide;3,5-Dihydroxybenzoic acid amide;NSC 60729",
    "duplicated_cas_no": "",
    "SMILES": "C(N)(=O)C1=CC(O)=CC(O)=C1",
    "meta_data": {
        "InChI": "InChI=1S/C7H7NO3/c8-7(11)4-1-5(9)3-6(10)2-4/h1-3,9-10H,(H2,8,11)",
        "InChIKey": null,
        "Canonical SMILES": "O=C(N)C=1C=C(O)C=C(O)C1",
        "Molecular Formula": "C<sub>7</sub>H<sub>7</sub>NO<sub>3</sub>",
        "Molecular Mass": "153.14",
        "Melting Point": "279 °C (decomp)"
    }
}