{
    "cas_no": "6280-87-1",
    "key_name": "5-Chloropentanenitrile",
    "cn_name": "5-氯戊腈;",
    "alternate_name": "Pentanenitrile, 5-chloro-;Valeronitrile, 5-chloro-;5-Chloropentanenitrile;δ-Chlorovaleronitrile;5-Chlorovaleronitrile;1-Chloro-4-cyanobutane;4-Chloro-1-cyanobutane;NSC 6156",
    "duplicated_cas_no": "",
    "SMILES": "C(CCCl)CC#N",
    "meta_data": {
        "InChI": "InChI=1S/C5H8ClN/c6-4-2-1-3-5-7/h1-4H2",
        "InChIKey": null,
        "Canonical SMILES": "N#CCCCCCl",
        "Molecular Formula": "C<sub>5</sub>H<sub>8</sub>ClN",
        "Molecular Mass": "117.58",
        "Boiling Point": "101-102 °C @ Press: 16-17 Torr",
        "Density": "1.061 g/cm³ @ Temp: 25 °C"
    }
}