{
    "cas_no": "15862-19-8",
    "key_name": "5-Bromo-2,2′-bipyridine",
    "cn_name": null,
    "alternate_name": "2,2′-Bipyridine, 5-bromo-;5-Bromo-2,2′-bipyridine;2-(2-Pyridyl)-5-bromopyridine;5-Bromo-2,2′-bipyridyl",
    "duplicated_cas_no": "",
    "SMILES": "BrC1=CC=C(N=C1)C2=CC=CC=N2",
    "meta_data": {
        "InChI": "InChI=1S/C10H7BrN2/c11-8-4-5-10(13-7-8)9-3-1-2-6-12-9/h1-7H",
        "InChIKey": null,
        "Canonical SMILES": "BrC=1C=NC(=CC1)C2=NC=CC=C2",
        "Molecular Formula": "C<sub>10</sub>H<sub>7</sub>BrN<sub>2</sub>",
        "Molecular Mass": "235.08",
        "Melting Point": "73 °C"
    }
}