{
    "cas_no": "20099-89-2",
    "key_name": "4-Cyanophenacyl bromide",
    "cn_name": "4-溴乙酰基苯腈;",
    "alternate_name": "Benzonitrile, 4-(2-bromoacetyl)-;Benzonitrile, <em>p</em>-(bromoacetyl)-;Benzonitrile, 4-(bromoacetyl)-;4-(2-Bromoacetyl)benzonitrile;α-Bromo-4-cyanoacetophenone;<em>p</em>-Cyanophenacyl bromide;<em>p</em>-Cyano-α-bromoacetophenone;<em>p</em>-Cyano-ω-bromoacetophenone;4-(Bromoacetyl)benzonitrile;4-Cyanophenacyl bromide;2-Bromo-4′-cyanoacetophenone;2-Bromo-<em>p</em>-cyanoacetophenone;4-(2′-Bromoacetyl)benzonitrile;NSC 157569;2-Bromo-1-(4-cyanophenyl)ethanone",
    "duplicated_cas_no": "",
    "SMILES": "C(CBr)(=O)C1=CC=C(C#N)C=C1",
    "meta_data": {
        "InChI": "InChI=1S/C9H6BrNO/c10-5-9(12)8-3-1-7(6-11)2-4-8/h1-4H,5H2",
        "InChIKey": null,
        "Canonical SMILES": "N#CC1=CC=C(C=C1)C(=O)CBr",
        "Molecular Formula": "C<sub>9</sub>H<sub>6</sub>BrNO",
        "Molecular Mass": "224.05",
        "Melting Point": "92-94 °C"
    }
}