{
    "cas_no": "55066-56-3",
    "key_name": "<em>p</em>-Cresyl isovalerate",
    "cn_name": "异戊酸对甲酚酯;3-甲基丁酸-4-甲苯酯;",
    "alternate_name": "Butanoic acid, 3-methyl-, 4-methylphenyl ester;Isovaleric acid, <em>p</em>-tolyl ester;<em>p</em>-Cresyl isovalerate;3-Methylbutanoic acid 4-methylphenyl ester;NSC 32511;(4-Methylphenyl) 3-methylbutanoate",
    "duplicated_cas_no": "",
    "SMILES": "O(C(CC(C)C)=O)C1=CC=C(C)C=C1",
    "meta_data": {
        "InChI": "InChI=1S/C12H16O2/c1-9(2)8-12(13)14-11-6-4-10(3)5-7-11/h4-7,9H,8H2,1-3H3",
        "InChIKey": null,
        "Canonical SMILES": "O=C(OC1=CC=C(C=C1)C)CC(C)C",
        "Molecular Formula": "C<sub>12</sub>H<sub>16</sub>O<sub>2</sub>",
        "Molecular Mass": "192.25",
        "Boiling Point": "255-257 °C",
        "Density": "0.9884 g/cm³ @ Temp: 15 °C"
    }
}