{
    "cas_no": "320-98-9",
    "key_name": "5-Fluoro-2-nitrobenzoic acid",
    "cn_name": "5-氟-2-硝基苯甲酸;",
    "alternate_name": "Benzoic acid, 5-fluoro-2-nitro-;5-Fluoro-2-nitrobenzoic acid;2-Nitro-5-fluorobenzoic acid;5-Fluoro-2-nitrobenzenecarboxylic acid;3-Fluoro-6-nitrobenzoic acid",
    "duplicated_cas_no": "",
    "SMILES": "N(=O)(=O)C1=C(C(O)=O)C=C(F)C=C1",
    "meta_data": {
        "InChI": "InChI=1S/C7H4FNO4/c8-4-1-2-6(9(12)13)5(3-4)7(10)11/h1-3H,(H,10,11)",
        "InChIKey": null,
        "Canonical SMILES": "O=C(O)C1=CC(F)=CC=C1N(=O)=O",
        "Molecular Formula": "C<sub>7</sub>H<sub>4</sub>FNO<sub>4</sub>",
        "Molecular Mass": "185.11",
        "Melting Point": "134.5 °C"
    }
}