{
    "cas_no": "9005-49-6",
    "key_name": "Heparin",
    "cn_name": null,
    "alternate_name": "Heparin;Sublingula;Heparinic acid;α-Heparin;Heparin sulfate;Vetren;Vitrum AB;Novoheparin;CY 216;FR 860;CY 222;Pabyrn;Fraxiparin;Sandoparin;Parvoparin;KB 101;Fragmin A;Fragmin B;Fluxum;Parnaparin;Clivarin;OP 386;OP 622;Reviparin;Clivarine;Dalteparin;Bemiparin;Certoparin;Multiparin;Heparin subcutan;Tinzaparin;Leparan;Arteven;Nadroparin;Clevarin;Mono-embolex;Ardeparin;Livaracine;Hapacarin;H 9399;H 5284;Triofiban;Centaxarin;Gammaparin;Subeparin;Nadroparine;Deligoparin;Octaparin;M 118REH;F 202;LipoHep Forte;AVE 5026;Semuloparin;M 118;Adomiparin;M 402;M 402 (heparin);Tafoxiparin;Necuparanib;Heparins",
    "duplicated_cas_no": "9075-96-1;11078-24-3;11129-39-8;37324-73-5;91449-79-5;104521-37-1;1108625-99-5;1108626-06-7;1512870-53-9",
    "SMILES": "",
    "meta_data": {
        "InChI": "",
        "InChIKey": null,
        "Canonical SMILES": "",
        "Molecular Formula": "Unspecified",
        "Molecular Mass": "",
        "Melting Point": "250 °C (decomp)"
    }
}