{
    "uri": "substance/pt/9005496",
    "rn": "9005-49-6",
    "name": "Heparin",
    "images": [],
    "inchi": "",
    "inchiKey": "",
    "smile": "",
    "canonicalSmile": "",
    "molecularFormula": "Unspecified",
    "molecularMass": "",
    "experimentalProperties": [
        {
            "name": "Melting Point",
            "property": "250 °C (decomp)",
            "sourceNumber": 1
        }
    ],
    "propertyCitations": [
        {
            "docUri": "document/pt/document/22881676",
            "sourceNumber": 1,
            "source": "Schmitz, Adolf; Z. physiol. Chem., (1933), 216, 264-73, CAplus"
        }
    ],
    "synonyms": [
        "Heparin",
        "Sublingula",
        "Heparinic acid",
        "α-Heparin",
        "Heparin sulfate",
        "Vetren",
        "Vitrum AB",
        "Novoheparin",
        "CY 216",
        "FR 860",
        "CY 222",
        "Pabyrn",
        "Fraxiparin",
        "Sandoparin",
        "Parvoparin",
        "KB 101",
        "Fragmin A",
        "Fragmin B",
        "Fluxum",
        "Parnaparin",
        "Clivarin",
        "OP 386",
        "OP 622",
        "Reviparin",
        "Clivarine",
        "Dalteparin",
        "Bemiparin",
        "Certoparin",
        "Multiparin",
        "Heparin subcutan",
        "Tinzaparin",
        "Leparan",
        "Arteven",
        "Nadroparin",
        "Clevarin",
        "Mono-embolex",
        "Ardeparin",
        "Livaracine",
        "Hapacarin",
        "H 9399",
        "H 5284",
        "Triofiban",
        "Centaxarin",
        "Gammaparin",
        "Subeparin",
        "Nadroparine",
        "Deligoparin",
        "Octaparin",
        "M 118REH",
        "F 202",
        "LipoHep Forte",
        "AVE 5026",
        "Semuloparin",
        "M 118",
        "Adomiparin",
        "M 402",
        "M 402 (heparin)",
        "Tafoxiparin",
        "Necuparanib",
        "Heparins"
    ],
    "replacedRns": [
        "9075-96-1",
        "11078-24-3",
        "11129-39-8",
        "37324-73-5",
        "91449-79-5",
        "104521-37-1",
        "1108625-99-5",
        "1108626-06-7",
        "1512870-53-9"
    ],
    "hasMolfile": false,
    "source": "https://commonchemistry.cas.org/detail?cas_rn=9005-49-6"
}