{
    "cas_no": "122-28-1",
    "key_name": "<em>N</em>-(3-Nitrophenyl)acetamide",
    "cn_name": "3-硝基乙酰苯胺;间硝基乙酰替苯胺;间硝基乙酰苯胺;",
    "alternate_name": "Acetamide, <em>N</em>-(3-nitrophenyl)-;Acetanilide, 3′-nitro-;Acetanilide, <em>m</em>-nitro-;<em>N</em>-(3-Nitrophenyl)acetamide;<em>N</em>-Acetyl-<em>m</em>-nitroaniline;3′-Nitroacetanilide;3-Nitro-<em>N</em>-acetylaniline;<em>m</em>-Nitroacetanilide;NSC 1314;NSC 99339;1-(Acetylamino)-3-nitrobenzene",
    "duplicated_cas_no": "",
    "SMILES": "N(C(C)=O)C1=CC(N(=O)=O)=CC=C1",
    "meta_data": {
        "InChI": "InChI=1S/C8H8N2O3/c1-6(11)9-7-3-2-4-8(5-7)10(12)13/h2-5H,1H3,(H,9,11)",
        "InChIKey": null,
        "Canonical SMILES": "O=C(NC1=CC=CC(=C1)N(=O)=O)C",
        "Molecular Formula": "C<sub>8</sub>H<sub>8</sub>N<sub>2</sub>O<sub>3</sub>",
        "Molecular Mass": "180.16",
        "Boiling Point": "100 °C",
        "Melting Point": "155 °C"
    }
}