{
    "cas_no": "117-96-4",
    "key_name": "Diatrizoate",
    "cn_name": "泛影酸;3,5-双(乙酰胺基)-2,4,6-三碘苯甲酸;",
    "alternate_name": "Benzoic acid, 3,5-bis(acetylamino)-2,4,6-triiodo-;Benzoic acid, 3,5-diacetamido-2,4,6-triiodo-;3,5-Bis(acetylamino)-2,4,6-triiodobenzoic acid;Amidotrizoic acid;Diatrizoate;Diatrizoic acid;2,4,6-Triiodo-3,5-diacetamidobenzoic acid;Odiston;Urografin acid;Urotrast;3,5-Diacetamido-2,4,6-triiodobenzoic acid;Urogranoic acid;NSC 262168;MeSH ID: D003973",
    "duplicated_cas_no": "",
    "SMILES": "N(C(C)=O)C1=C(I)C(C(O)=O)=C(I)C(NC(C)=O)=C1I",
    "meta_data": {
        "InChI": "InChI=1S/C11H9I3N2O4/c1-3(17)15-9-6(12)5(11(19)20)7(13)10(8(9)14)16-4(2)18/h1-2H3,(H,15,17)(H,16,18)(H,19,20)",
        "InChIKey": null,
        "Canonical SMILES": "O=C(O)C=1C(I)=C(NC(=O)C)C(I)=C(NC(=O)C)C1I",
        "Molecular Formula": "C<sub>11</sub>H<sub>9</sub>I<sub>3</sub>N<sub>2</sub>O<sub>4</sub>",
        "Molecular Mass": "613.91",
        "Melting Point": "&gt;300 °C"
    }
}