{
    "cas_no": "2426-87-1",
    "key_name": "4-(Benzyloxy)-3-methoxybenzaldehyde",
    "cn_name": "4-苄氧基-3-甲氧基苯甲醛;",
    "alternate_name": "Benzaldehyde, 3-methoxy-4-(phenylmethoxy)-;Benzaldehyde, 4-(benzyloxy)-3-methoxy-;3-Methoxy-4-(phenylmethoxy)benzaldehyde;Vanillin benzyl ether;4-(Benzyloxy)-3-methoxybenzaldehyde;<em>O</em>-Benzylvanillin;4-<em>O</em>-Benzylvanillin;3-Methoxy-4-(benzyloxy)benzaldehyde;Benzylvanillin;NSC 208757;NSC 22599;NSC 44876",
    "duplicated_cas_no": "847896-89-3",
    "SMILES": "O(CC1=CC=CC=C1)C2=C(OC)C=C(C=O)C=C2",
    "meta_data": {
        "InChI": "InChI=1S/C15H14O3/c1-17-15-9-13(10-16)7-8-14(15)18-11-12-5-3-2-4-6-12/h2-10H,11H2,1H3",
        "InChIKey": null,
        "Canonical SMILES": "O=CC1=CC=C(OCC=2C=CC=CC2)C(OC)=C1",
        "Molecular Formula": "C<sub>15</sub>H<sub>14</sub>O<sub>3</sub>",
        "Molecular Mass": "242.27",
        "Boiling Point": "185 °C @ Press: 2 Torr",
        "Melting Point": "67 °C"
    }
}