{
    "cas_no": "489-33-8",
    "key_name": "Limocitrin",
    "cn_name": null,
    "alternate_name": "4<em>H</em>-1-Benzopyran-4-one, 3,5,7-trihydroxy-2-(4-hydroxy-3-methoxyphenyl)-8-methoxy-;Flavone, 3,4′,5,7-tetrahydroxy-3′,8-dimethoxy-;Limocitrin;3,5,7-Trihydroxy-2-(4-hydroxy-3-methoxyphenyl)-8-methoxy-4<em>H</em>-1-benzopyran-4-one;8-Methoxyisorhamnetin;Sedoflorigenin;Gossypetin 8,3′-dimethyl ether;3,5,7-Trihydroxy-2-(4-hydroxy-3-methoxyphenyl)-8-methoxychromen-4-one",
    "duplicated_cas_no": "",
    "SMILES": "O(C)C1=C2C(C(=O)C(O)=C(O2)C3=CC(OC)=C(O)C=C3)=C(O)C=C1O",
    "meta_data": {
        "InChI": "InChI=1S/C17H14O8/c1-23-11-5-7(3-4-8(11)18)15-14(22)13(21)12-9(19)6-10(20)16(24-2)17(12)25-15/h3-6,18-20,22H,1-2H3",
        "InChIKey": null,
        "Canonical SMILES": "O=C1C(O)=C(OC=2C(OC)=C(O)C=C(O)C12)C=3C=CC(O)=C(OC)C3",
        "Molecular Formula": "C<sub>17</sub>H<sub>14</sub>O<sub>8</sub>",
        "Molecular Mass": "346.29",
        "Melting Point": "271-275 °C"
    }
}