{
    "cas_no": "112-33-4",
    "key_name": "2-[2-(3-Aminopropoxy)ethoxy]ethanol",
    "cn_name": null,
    "alternate_name": "Ethanol, 2-[2-(3-aminopropoxy)ethoxy]-;2-[2-(3-Aminopropoxy)ethoxy]ethanol;Polyglycolamine H 163;Diethylene glycol mono(3-aminopropyl) ether;H 163;3-[2-(2-Hydroxyethoxy)ethoxy]propylamine;Polyglycolamine 163;2-[2-(3-Aminopropoxy)ethoxy]ethan-1-ol",
    "duplicated_cas_no": "",
    "SMILES": "C(COCCO)OCCCN",
    "meta_data": {
        "InChI": "InChI=1S/C7H17NO3/c8-2-1-4-10-6-7-11-5-3-9/h9H,1-8H2",
        "InChIKey": null,
        "Canonical SMILES": "OCCOCCOCCCN",
        "Molecular Formula": "C<sub>7</sub>H<sub>17</sub>NO<sub>3</sub>",
        "Molecular Mass": "163.21",
        "Boiling Point": "123 °C @ Press: 3 Torr"
    }
}