{
    "cas_no": "513-44-0",
    "key_name": "2-Methyl-1-propanethiol",
    "cn_name": "异丁硫醇;",
    "alternate_name": "1-Propanethiol, 2-methyl-;2-Methyl-1-propanethiol;Isobutyl mercaptan;1-Isobutanethiol;Isobutyl thiol;NSC 203271;2-Methylpropyl mercaptan",
    "duplicated_cas_no": "",
    "SMILES": "C(CS)(C)C",
    "meta_data": {
        "InChI": "InChI=1S/C4H10S/c1-4(2)3-5/h4-5H,3H2,1-2H3",
        "InChIKey": null,
        "Canonical SMILES": "SCC(C)C",
        "Molecular Formula": "C<sub>4</sub>H<sub>10</sub>S",
        "Molecular Mass": "90.19",
        "Boiling Point": "88.5 °C",
        "Melting Point": "&lt;-70 °C",
        "Density": "0.8338 g/cm³ @ Temp: 20 °C"
    }
}