{
    "cas_no": "6575-11-7",
    "key_name": "2-Amino-6-chlorobenzonitrile",
    "cn_name": "2-氨基-6-氯苯甲腈;",
    "alternate_name": "Benzonitrile, 2-amino-6-chloro-;Anthranilonitrile, 6-chloro-;2-Amino-6-chlorobenzonitrile;6-Amino-2-chlorobenzonitrile;6-Chloroanthranilonitrile;NSC 129936;3-Chloro-2-cyanoaniline",
    "duplicated_cas_no": "",
    "SMILES": "C(#N)C1=C(Cl)C=CC=C1N",
    "meta_data": {
        "InChI": "InChI=1S/C7H5ClN2/c8-6-2-1-3-7(10)5(6)4-9/h1-3H,10H2",
        "InChIKey": null,
        "Canonical SMILES": "N#CC=1C(Cl)=CC=CC1N",
        "Molecular Formula": "C<sub>7</sub>H<sub>5</sub>ClN<sub>2</sub>",
        "Molecular Mass": "152.58",
        "Melting Point": "136-137 °C"
    }
}