{
    "cas_no": "556-27-4",
    "key_name": "Alliin",
    "cn_name": "蒜氨酸;(S)-3-(烯丙基亚磺酰)-L-丙氨酸;",
    "alternate_name": "<span class=\"text-smallcaps\">L</span>-Cysteine, <em>S</em>-2-propen-1-yl-, <em>S</em>-oxide, [<em>S</em>(<em>S</em>)]-;Alanine, 3-(allylsulfinyl)-, (<em>S</em>)-<span class=\"text-smallcaps\">L</span>-;<span class=\"text-smallcaps\">L</span>-Alanine, 3-(2-propenylsulfinyl)-, (<em>S</em>)-;Alanine, 3-(allylsulfinyl)-;<span class=\"text-smallcaps\">L</span>-Alanine, 3-[(<em>S</em>)-2-propenylsulfinyl]-;Alliin;<em>S</em>-Allyl-<span class=\"text-smallcaps\">L</span>-cysteine-(+)-sulfoxide;(+)-<span class=\"text-smallcaps\">L</span>-Alliin",
    "duplicated_cas_no": "23358-38-5",
    "SMILES": "S(C[C@@H](C(O)=O)N)(CC=C)=O",
    "meta_data": {
        "InChI": "InChI=1S/C6H11NO3S/c1-2-3-11(10)4-5(7)6(8)9/h2,5H,1,3-4,7H2,(H,8,9)/t5-,11-/m0/s1",
        "InChIKey": null,
        "Canonical SMILES": "O=C(O)C(N)CS(=O)CC=C",
        "Molecular Formula": "C<sub>6</sub>H<sub>11</sub>NO<sub>3</sub>S",
        "Molecular Mass": "177.22",
        "Melting Point": "165 °C"
    }
}