{
    "cas_no": "2138-48-9",
    "key_name": "3-(1-Methylethyl)-1,2-benzenediol",
    "cn_name": "3-异丙基邻苯二酚;3-异丙基邻苯二酚;",
    "alternate_name": "1,2-Benzenediol, 3-(1-methylethyl)-;Pyrocatechol, 3-isopropyl-;3-(1-Methylethyl)-1,2-benzenediol;3-Isopropylcatechol;3-Isopropylpyrocatechol;3-Isopropyl-1,2-dihydroxybenzene;1,2-Dihydroxy-3-isopropylbenzene;3-Isopropylbenzene-1,2-diol;NSC 62675;3-Propan-2-ylbenzene-1,2-diol;Isopropyl catechol",
    "duplicated_cas_no": "",
    "SMILES": "C(C)(C)C1=C(O)C(O)=CC=C1",
    "meta_data": {
        "InChI": "InChI=1S/C9H12O2/c1-6(2)7-4-3-5-8(10)9(7)11/h3-6,10-11H,1-2H3",
        "InChIKey": null,
        "Canonical SMILES": "OC1=CC=CC(=C1O)C(C)C",
        "Molecular Formula": "C<sub>9</sub>H<sub>12</sub>O<sub>2</sub>",
        "Molecular Mass": "152.19",
        "Boiling Point": "155-156.5 °C @ Press: 30 Torr"
    }
}