{
    "cas_no": "3544-94-3",
    "key_name": "Chloramphenicol succinate",
    "cn_name": "琥珀酸氯霉素;氯霉素半琥珀酸酯;4-[2-[(2,2-二氯乙酰)氨基]-3-羟基-3-(4-硝基苯基)丙氧基]-4-氧代丁酸;",
    "alternate_name": "Butanedioic acid, mono[(2<em>R</em>,3<em>R</em>)-2-[(dichloroacetyl)amino]-3-hydroxy-3-(4-nitrophenyl)propyl] ester;Succinic acid, α-monoester with <span class=\"text-smallcaps\">D</span>-<em>threo</em>-(-)-2,2-dichloro-<em>N</em>-[β-hydroxy-α-(hydroxymethyl)-<em>p</em>-nitrophenethyl]acetamide;Butanedioic acid, mono[2-[(dichloroacetyl)amino]-3-hydroxy-3-(4-nitrophenyl)propyl] ester, [<em>R</em>-(<em>R</em>*,<em>R</em>*)]-;Succinic acid, ester with chloramphenicol;Acetamide, 2,2-dichloro-<em>N</em>-[β-hydroxy-α-(hydroxymethyl)-<em>p</em>-nitrophenethyl]-, α-(hydrogen succinate), <span class=\"text-smallcaps\">D</span>-(-)-<em>threo</em>-;Chloramphenicol hemisuccinate;Chloramphenicol hydrogen succinate;Chloramphenicol succinate;Chloromycetin succinate;Kemicetine succinate;Levomycetin hemisuccinate;Chloramphenicol acid succinate;Chloramphenicol monosuccinate;Levomycetin succinate;Paraxin succinate;Chronicin foam;Chloramphenicol 3-monosuccinate",
    "duplicated_cas_no": "53906-65-3",
    "SMILES": "[C@@H]([C@H](O)C1=CC=C(N(=O)=O)C=C1)(NC(C(Cl)Cl)=O)COC(CCC(O)=O)=O",
    "meta_data": {
        "InChI": "InChI=1S/C15H16Cl2N2O8/c16-14(17)15(24)18-10(7-27-12(22)6-5-11(20)21)13(23)8-1-3-9(4-2-8)19(25)26/h1-4,10,13-14,23H,5-7H2,(H,18,24)(H,20,21)/t10-,13-/m1/s1",
        "InChIKey": null,
        "Canonical SMILES": "O=C(O)CCC(=O)OCC(NC(=O)C(Cl)Cl)C(O)C1=CC=C(C=C1)N(=O)=O",
        "Molecular Formula": "C<sub>15</sub>H<sub>16</sub>Cl<sub>2</sub>N<sub>2</sub>O<sub>8</sub>",
        "Molecular Mass": "423.20",
        "Melting Point": "127 °C"
    }
}