{
    "cas_no": "20053-88-7",
    "key_name": "Hotrienol",
    "cn_name": "脱氢芳樟醇;反式-3,7-二甲基-1,5,7-辛三烯-3-醇;",
    "alternate_name": "1,5,7-Octatrien-3-ol, 3,7-dimethyl-, (3<em>R</em>,5<em>E</em>)-;1,5,7-Octatrien-3-ol, 3,7-dimethyl-, (<em>E</em>)-(<em>R</em>)-(-)-;1,5,7-Octatrien-3-ol, 3,7-dimethyl-, [<em>R</em>-(<em>E</em>)]-;(3<em>R</em>,5<em>E</em>)-3,7-Dimethyl-1,5,7-octatrien-3-ol;Hotrienol, <em>trans</em>-(-)-;(-)-<em>trans</em>-Khotrienol;Hotrienol;<em>trans</em>-(-)-Hotrienol",
    "duplicated_cas_no": "",
    "SMILES": "[C@@](C/C=C/C(C)=C)(C=C)(C)O",
    "meta_data": {
        "InChI": "InChI=1S/C10H16O/c1-5-10(4,11)8-6-7-9(2)3/h5-7,11H,1-2,8H2,3-4H3/b7-6+/t10-/m0/s1",
        "InChIKey": null,
        "Canonical SMILES": "OC(C=C)(C)CC=CC(=C)C",
        "Molecular Formula": "C<sub>10</sub>H<sub>16</sub>O",
        "Molecular Mass": "152.23",
        "Boiling Point": "80-84 °C @ Press: 15 Torr"
    }
}