{
    "cas_no": "10017-11-5",
    "key_name": "2-Propen-1-amine, hydrochloride (1:1)",
    "cn_name": "烯丙胺盐酸盐;",
    "alternate_name": "2-Propen-1-amine, hydrochloride (1:1);Allylamine, hydrochloride;2-Propen-1-amine, hydrochloride;Allylammonium chloride;2-Propenylamine hydrochloride",
    "duplicated_cas_no": "185799-43-3;204075-67-2;2376650-97-2",
    "SMILES": "C(CN)=C.Cl",
    "meta_data": {
        "InChI": "InChI=1S/C3H7N.ClH/c1-2-3-4;/h2H,1,3-4H2;1H",
        "InChIKey": null,
        "Canonical SMILES": "Cl.C=CCN",
        "Molecular Formula": "C<sub>3</sub>H<sub>7</sub>N.ClH",
        "Molecular Mass": "",
        "Melting Point": "96-97 °C"
    }
}