{
    "cas_no": "1227-45-8",
    "key_name": "<em>N</em>,<em>N</em>′-Bis(4-methoxyphenyl)thiourea",
    "cn_name": null,
    "alternate_name": "Thiourea, <em>N</em>,<em>N</em>′-bis(4-methoxyphenyl)-;Carbanilide, 4,4′-dimethoxythio-;<em>N</em>,<em>N</em>′-Bis(4-methoxyphenyl)thiourea;Urea, 1,3-bis(<em>p</em>-methoxyphenyl)-2-thio-;1,3-Bis(4-methoxyphenyl)thiourea;NSC 164990;<em>sym</em>-Bis(4-methoxyphenyl)thiourea",
    "duplicated_cas_no": "",
    "SMILES": "N(C(NC1=CC=C(OC)C=C1)=S)C2=CC=C(OC)C=C2",
    "meta_data": {
        "InChI": "InChI=1S/C15H16N2O2S/c1-18-13-7-3-11(4-8-13)16-15(20)17-12-5-9-14(19-2)10-6-12/h3-10H,1-2H3,(H2,16,17,20)",
        "InChIKey": null,
        "Canonical SMILES": "S=C(NC1=CC=C(OC)C=C1)NC2=CC=C(OC)C=C2",
        "Molecular Formula": "C<sub>15</sub>H<sub>16</sub>N<sub>2</sub>O<sub>2</sub>S",
        "Molecular Mass": "288.36",
        "Melting Point": "192 °C"
    }
}