{
    "cas_no": "16588-16-2",
    "key_name": "Benzoic acid, 4-chloro-3-nitro-, ethyl ester",
    "cn_name": "4-氯-3-硝基苯甲酸乙酯;",
    "alternate_name": "Benzoic acid, 4-chloro-3-nitro-, ethyl ester;Ethyl 4-chloro-3-nitrobenzoate;4-Chloro-3-nitrobenzoic acid ethyl ester",
    "duplicated_cas_no": "",
    "SMILES": "N(=O)(=O)C1=CC(C(OCC)=O)=CC=C1Cl",
    "meta_data": {
        "InChI": "InChI=1S/C9H8ClNO4/c1-2-15-9(12)6-3-4-7(10)8(5-6)11(13)14/h3-5H,2H2,1H3",
        "InChIKey": null,
        "Canonical SMILES": "O=C(OCC)C1=CC=C(Cl)C(=C1)N(=O)=O",
        "Molecular Formula": "C<sub>9</sub>H<sub>8</sub>ClNO<sub>4</sub>",
        "Molecular Mass": "229.62",
        "Melting Point": "60-61 °C"
    }
}