{
    "cas_no": "3204-68-0",
    "key_name": "Benzenemethanaminium, <em>N</em>,<em>N</em>-dimethyl-<em>N</em>-phenyl-, chloride (1:1)",
    "cn_name": "苄基二甲基苯基氯化铵;",
    "alternate_name": "Benzenemethanaminium, <em>N</em>,<em>N</em>-dimethyl-<em>N</em>-phenyl-, chloride (1:1);Ammonium, benzyldimethylphenyl-, chloride;Benzenemethanaminium, <em>N</em>,<em>N</em>-dimethyl-<em>N</em>-phenyl-, chloride;Benzyldimethylphenylammonium chloride;Phenyldimethylbenzylammonium chloride;Dimethylphenylbenzylammonium chloride;<em>N</em>-Benzyl-<em>N</em>,<em>N</em>-dimethylanilinium chloride;Dimethylbenzylanilinium chloride;Leucotrope O;Leukotrope;Benzyldimethylanilinium chloride",
    "duplicated_cas_no": "",
    "SMILES": "C([N+](C)(C)C1=CC=CC=C1)C2=CC=CC=C2.[Cl-]",
    "meta_data": {
        "InChI": "InChI=1S/C15H18N.ClH/c1-16(2,15-11-7-4-8-12-15)13-14-9-5-3-6-10-14;/h3-12H,13H2,1-2H3;1H/q+1;/p-1",
        "InChIKey": null,
        "Canonical SMILES": "[Cl-].C=1C=CC(=CC1)C[N+](C=2C=CC=CC2)(C)C",
        "Molecular Formula": "C<sub>15</sub>H<sub>18</sub>N.Cl",
        "Molecular Mass": "",
        "Melting Point": "108-110 °C"
    }
}