{
    "cas_no": "2398-96-1",
    "key_name": "2-Naphthyl <em>N</em>-methyl-<em>N</em>-(3-tolyl)thiocarbamate",
    "cn_name": "托萘酯;N-甲基-N-(3-甲基苯基)硫代氨基甲酸-2-萘酯;",
    "alternate_name": "Carbamothioic acid, <em>N</em>-methyl-<em>N</em>-(3-methylphenyl)-, <em>O</em>-2-naphthalenyl ester;Carbanilic acid, <em>m</em>,<em>N</em>-dimethylthio-, <em>O</em>-2-naphthyl ester;Carbamothioic acid, methyl(3-methylphenyl)-, <em>O</em>-2-naphthalenyl ester;Naphthiomate T;<em>O</em>-2-Naphthyl <em>m</em>,<em>N</em>-dimethylthiocarbanilate;2-Naphthyl <em>N</em>-methyl-<em>N</em>-(3-tolyl)thionocarbamate;Tinactin;Tolnaftate;2-Naphthyl <em>N</em>-methyl-<em>N</em>-<em>m</em>-tolylthiocarbamate;2-Naphthyl <em>N</em>-methyl-<em>N</em>-(3-tolyl)thiocarbamate;Tonoftal;Dermoxin;Focusan;Pitrex;Sporiline;Tinaderm;Tolsanil;Tolnaphthate;Phytoderm;Timoped;Hi-Alarzin;Dr. Scholl's Athlete's Foot Spray;Dungistop;Tniaderm;Sch 10144;Tritin;Aftate;Chinofungin;NSC 233648;Tineacure",
    "duplicated_cas_no": "94256-64-1",
    "SMILES": "O(C(N(C)C1=CC(C)=CC=C1)=S)C2=CC3=C(C=C2)C=CC=C3",
    "meta_data": {
        "InChI": "InChI=1S/C19H17NOS/c1-14-6-5-9-17(12-14)20(2)19(22)21-18-11-10-15-7-3-4-8-16(15)13-18/h3-13H,1-2H3",
        "InChIKey": null,
        "Canonical SMILES": "S=C(OC=1C=CC=2C=CC=CC2C1)N(C3=CC=CC(=C3)C)C",
        "Molecular Formula": "C<sub>19</sub>H<sub>17</sub>NOS",
        "Molecular Mass": "307.41",
        "Melting Point": "111 °C"
    }
}