{
    "cas_no": "17408-16-1",
    "key_name": "1-(3-Nitrophenyl)-1-propanone",
    "cn_name": "3-硝基苯丙酮;",
    "alternate_name": "1-Propanone, 1-(3-nitrophenyl)-;Propiophenone, 3′-nitro-;1-(3-Nitrophenyl)-1-propanone;3′-Nitropropiophenone;<em>m</em>-Nitropropiophenone;NSC 142328",
    "duplicated_cas_no": "",
    "SMILES": "C(CC)(=O)C1=CC(N(=O)=O)=CC=C1",
    "meta_data": {
        "InChI": "InChI=1S/C9H9NO3/c1-2-9(11)7-4-3-5-8(6-7)10(12)13/h3-6H,2H2,1H3",
        "InChIKey": null,
        "Canonical SMILES": "O=C(C1=CC=CC(=C1)N(=O)=O)CC",
        "Molecular Formula": "C<sub>9</sub>H<sub>9</sub>NO<sub>3</sub>",
        "Molecular Mass": "179.17",
        "Melting Point": "100-101 °C"
    }
}