{
    "cas_no": "536-69-6",
    "key_name": "Fusaric acid",
    "cn_name": "5-丁基吡啶-2-羧酸;",
    "alternate_name": "2-Pyridinecarboxylic acid, 5-butyl-;Fusaric acid;Picolinic acid, 5-butyl-;5-Butyl-2-pyridinecarboxylic acid;5-Butylpicolinic acid;5-<em>n</em>-Butylpyridine-2-carboxylic acid;5-Butyl-2-picolinic acid;NSC 135043;NSC 19870;MeSH ID: D005669",
    "duplicated_cas_no": "",
    "SMILES": "C(O)(=O)C1=CC=C(CCCC)C=N1",
    "meta_data": {
        "InChI": "InChI=1S/C10H13NO2/c1-2-3-4-8-5-6-9(10(12)13)11-7-8/h5-7H,2-4H2,1H3,(H,12,13)",
        "InChIKey": null,
        "Canonical SMILES": "O=C(O)C1=NC=C(C=C1)CCCC",
        "Molecular Formula": "C<sub>10</sub>H<sub>13</sub>NO<sub>2</sub>",
        "Molecular Mass": "179.22",
        "Melting Point": "96-98 °C"
    }
}