{
    "cas_no": "5317-66-8",
    "key_name": "Ethyl α,α-dichlorobenzeneacetate",
    "cn_name": null,
    "alternate_name": "Benzeneacetic acid, α,α-dichloro-, ethyl ester;Acetic acid, dichlorophenyl-, ethyl ester;Ethyl α,α-dichlorobenzeneacetate;Ethyl 2,2-dichloro-2-phenylacetate",
    "duplicated_cas_no": "",
    "SMILES": "C(C(OCC)=O)(Cl)(Cl)C1=CC=CC=C1",
    "meta_data": {
        "InChI": "InChI=1S/C10H10Cl2O2/c1-2-14-9(13)10(11,12)8-6-4-3-5-7-8/h3-7H,2H2,1H3",
        "InChIKey": null,
        "Canonical SMILES": "O=C(OCC)C(Cl)(Cl)C=1C=CC=CC1",
        "Molecular Formula": "C<sub>10</sub>H<sub>10</sub>Cl<sub>2</sub>O<sub>2</sub>",
        "Molecular Mass": "233.09",
        "Boiling Point": "156 °C @ Press: 24 Torr"
    }
}