{
    "cas_no": "33325-40-5",
    "key_name": "3-(Acetylthio)-2-methylpropanoic acid",
    "cn_name": "3-乙酰硫基-2-甲基丙酸;3-巯基-2-甲基丙酸乙酸酯;",
    "alternate_name": "Propanoic acid, 3-(acetylthio)-2-methyl-;Propionic acid, 3-mercapto-2-methyl-, acetate;3-(Acetylthio)-2-methylpropanoic acid;3-(Acetylthio)-2-methylpropionic acid;2-(Acetylthiomethyl)propanoic acid;3-Mercapto-2-methylpropionic acid acetate;(±)-3-Acetylthio-2-methylpropionic acid;(<em>RS</em>)-3-Acetylthio-2-methylpropionic acid;3-Acetylsulfanyl-2-methylpropionic acid",
    "duplicated_cas_no": "74407-69-5",
    "SMILES": "C(CSC(C)=O)(C(O)=O)C",
    "meta_data": {
        "InChI": "InChI=1S/C6H10O3S/c1-4(6(8)9)3-10-5(2)7/h4H,3H2,1-2H3,(H,8,9)",
        "InChIKey": null,
        "Canonical SMILES": "O=C(SCC(C(=O)O)C)C",
        "Molecular Formula": "C<sub>6</sub>H<sub>10</sub>O<sub>3</sub>S",
        "Molecular Mass": "162.21",
        "Melting Point": "40-40.5 °C"
    }
}