{
    "cas_no": "18916-17-1",
    "key_name": "Naringin dihydrochalcone",
    "cn_name": "柚皮苷二氢查尔酮;柚皮甙二氢查尔酮;",
    "alternate_name": "1-Propanone, 1-[4-[[2-<em>O</em>-(6-deoxy-α-<span class=\"text-smallcaps\">L</smallcap>-mannopyranosyl)-β-<smallcap>D</span>-glucopyranosyl]oxy]-2,6-dihydroxyphenyl]-3-(4-hydroxyphenyl)-;Glucopyranoside, 3,5-dihydroxy-4-(<em>p</em>-hydroxyhydrocinnamoyl)phenyl 2-<em>O</em>-(6-deoxy-α-<span class=\"text-smallcaps\">L</smallcap>-mannopyranosyl)-, β-<smallcap>D</span>-;Phloretin, 4′-(2-<em>O</em>-α-<span class=\"text-smallcaps\">L</smallcap>-rhamno-β-<smallcap>D</span>-glucopyranoside);1-[4-[[2-<em>O</em>-(6-Deoxy-α-<span class=\"text-smallcaps\">L</smallcap>-mannopyranosyl)-β-<smallcap>D</span>-glucopyranosyl]oxy]-2,6-dihydroxyphenyl]-3-(4-hydroxyphenyl)-1-propanone;Naringin dihydrochalcone",
    "duplicated_cas_no": "",
    "SMILES": "O([C@H]1[C@H](O[C@H]2[C@H](O)[C@H](O)[C@@H](O)[C@H](C)O2)[C@@H](O)[C@H](O)[C@@H](CO)O1)C3=CC(O)=C(C(CCC4=CC=C(O)C=C4)=O)C(O)=C3",
    "meta_data": {
        "InChI": "InChI=1S/C27H34O14/c1-11-20(33)22(35)24(37)26(38-11)41-25-23(36)21(34)18(10-28)40-27(25)39-14-8-16(31)19(17(32)9-14)15(30)7-4-12-2-5-13(29)6-3-12/h2-3,5-6,8-9,11,18,20-29,31-37H,4,7,10H2,1H3/t11-,18+,20-,21+,22+,23-,24+,25+,26-,27+/m0/s1",
        "InChIKey": null,
        "Canonical SMILES": "O=C(C1=C(O)C=C(OC2OC(CO)C(O)C(O)C2OC3OC(C)C(O)C(O)C3O)C=C1O)CCC4=CC=C(O)C=C4",
        "Molecular Formula": "C<sub>27</sub>H<sub>34</sub>O<sub>14</sub>",
        "Molecular Mass": "582.55",
        "Melting Point": "168-169 °C"
    }
}