{
    "cas_no": "123-95-5",
    "key_name": "Butyl stearate",
    "cn_name": "硬脂酸丁酯;十八酸正丁酯;",
    "alternate_name": "Octadecanoic acid, butyl ester;Stearic acid, butyl ester;Apex 4;<em>n</em>-Butyl octadecanoate;Butyl stearate;Kesscoflex BS;Polycizer 332;RC Plasticizer B 17;<em>n</em>-Butyl stearate;Witcizer 200;Witcizer 201;Butyl octadecanoate;Emerest 2325;Groco 5810;Tegester Butyl Stearate;Wickenol 122;Kessco BSC;Starfol BS 100;Uniflex BYS-Code C;NJLUB BS;Exceparl BS;Loxiol G 31;Kemester 5510;Crodamol BS;Nissan Unister M 476;Emerest 2326;Nikkol BS;NSC 4820;Kessco BS-COS;DL 100;BST-COS;B 875938;Fuji Additive AS 15",
    "duplicated_cas_no": "8047-75-4",
    "SMILES": "C(CC(OCCCC)=O)CCCCCCCCCCCCCCC",
    "meta_data": {
        "InChI": "InChI=1S/C22H44O2/c1-3-5-7-8-9-10-11-12-13-14-15-16-17-18-19-20-22(23)24-21-6-4-2/h3-21H2,1-2H3",
        "InChIKey": null,
        "Canonical SMILES": "O=C(OCCCC)CCCCCCCCCCCCCCCCC",
        "Molecular Formula": "C<sub>22</sub>H<sub>44</sub>O<sub>2</sub>",
        "Molecular Mass": "340.58",
        "Boiling Point": "343 °C",
        "Melting Point": "27 °C",
        "Density": "0.854 g/cm³ @ Temp: 25 °C"
    }
}