{
    "cas_no": "54965-24-1",
    "key_name": "Tamoxifen citrate",
    "cn_name": "枸橼酸他莫昔芬;(Z)-N,N-二甲基-2-[4-(1,2-二苯基-1-丁烯基)苯氧基]-乙胺枸橼酸盐;",
    "alternate_name": "Ethanamine, 2-[4-[(1<em>Z</em>)-1,2-diphenyl-1-buten-1-yl]phenoxy]-<em>N</em>,<em>N</em>-dimethyl-, 2-hydroxy-1,2,3-propanetricarboxylate (1:1);Ethanamine, 2-[4-(1,2-diphenyl-1-butenyl)phenoxy]-<em>N</em>,<em>N</em>-dimethyl-, (<em>Z</em>)-, 2-hydroxy-1,2,3-propanetricarboxylate (1:1);Ethanamine, 2-[4-[(1<em>Z</em>)-1,2-diphenyl-1-butenyl]phenoxy]-<em>N</em>,<em>N</em>-dimethyl-, 2-hydroxy-1,2,3-propanetricarboxylate (1:1);Tamoxifen citrate;Nolvadex;ICI 46474;Tamoplex;<em>Z</em>-Tamoxifen citrate;Tamox-Puren;Zemide;Kessar;Tamofen;TMX;Tomaxasta;Noltam;Nourytam;I.C.I.46474 citrate;Istubal;Valodex;Soltamox;Genox",
    "duplicated_cas_no": "7244-97-5",
    "SMILES": "C(=C(/CC)\\C1=CC=CC=C1)(\\C2=CC=C(OCCN(C)C)C=C2)/C3=CC=CC=C3.C(CC(O)=O)(CC(O)=O)(C(O)=O)O",
    "meta_data": {
        "InChI": "InChI=1S/C26H29NO.C6H8O7/c1-4-25(21-11-7-5-8-12-21)26(22-13-9-6-10-14-22)23-15-17-24(18-16-23)28-20-19-27(2)3;7-3(8)1-6(13,5(11)12)2-4(9)10/h5-18H,4,19-20H2,1-3H3;13H,1-2H2,(H,7,8)(H,9,10)(H,11,12)/b26-25-;",
        "InChIKey": null,
        "Canonical SMILES": "O=C(O)CC(O)(C(=O)O)CC(=O)O.O(C1=CC=C(C=C1)C(C=2C=CC=CC2)=C(C=3C=CC=CC3)CC)CCN(C)C",
        "Molecular Formula": "C<sub>26</sub>H<sub>29</sub>NO.C<sub>6</sub>H<sub>8</sub>O<sub>7</sub>",
        "Molecular Mass": "",
        "Melting Point": "140-142 °C"
    }
}