{
    "cas_no": "10599-59-4",
    "key_name": "2-(1-Methylethyl)furan",
    "cn_name": "2-异丙基呋喃;",
    "alternate_name": "Furan, 2-(1-methylethyl)-;Furan, 2-isopropyl-;2-(1-Methylethyl)furan;2-Isopropylfuran;2-Propan-2-ylfuran",
    "duplicated_cas_no": "",
    "SMILES": "C(C)(C)C1=CC=CO1",
    "meta_data": {
        "InChI": "InChI=1S/C7H10O/c1-6(2)7-4-3-5-8-7/h3-6H,1-2H3",
        "InChIKey": null,
        "Canonical SMILES": "O1C=CC=C1C(C)C",
        "Molecular Formula": "C<sub>7</sub>H<sub>10</sub>O",
        "Molecular Mass": "110.15",
        "Boiling Point": "40 °C @ Press: 60 Torr",
        "Density": "0.8771 g/cm³ @ Temp: 25 °C"
    }
}