{
    "cas_no": "108-12-3",
    "key_name": "Isovaleryl chloride",
    "cn_name": "异戊酰氯;",
    "alternate_name": "Butanoyl chloride, 3-methyl-;Isovaleryl chloride;3-Methylbutanoyl chloride;Isovaleric chloride;Isovaleroyl chloride;Isopentanoyl chloride;Isovaleric acid chloride;3-Methylbutyryl chloride",
    "duplicated_cas_no": "2137901-53-0",
    "SMILES": "C(C(C)C)C(Cl)=O",
    "meta_data": {
        "InChI": "InChI=1S/C5H9ClO/c1-4(2)3-5(6)7/h4H,3H2,1-2H3",
        "InChIKey": null,
        "Canonical SMILES": "O=C(Cl)CC(C)C",
        "Molecular Formula": "C<sub>5</sub>H<sub>9</sub>ClO",
        "Molecular Mass": "120.58",
        "Boiling Point": "114 °C"
    }
}