{
    "cas_no": "505-47-5",
    "key_name": "<em>N</em>-(2-Carboxyethyl)-β-alanine",
    "cn_name": null,
    "alternate_name": "β-Alanine, <em>N</em>-(2-carboxyethyl)-;Propionic acid, 3,3′-iminodi-;<em>N</em>-(2-Carboxyethyl)-β-alanine;Propanoic acid, 3,3′-iminobis-;Bis(carboxyethyl)amine;3,3′-Iminodipropanoic acid;3,3′-Iminodipropionic acid;β,β′-Aminodipropionic acid;3,3′-Iminobis(propionic acid);NSC 41820",
    "duplicated_cas_no": "",
    "SMILES": "C(CC(O)=O)NCCC(O)=O",
    "meta_data": {
        "InChI": "InChI=1S/C6H11NO4/c8-5(9)1-3-7-4-2-6(10)11/h7H,1-4H2,(H,8,9)(H,10,11)",
        "InChIKey": null,
        "Canonical SMILES": "O=C(O)CCNCCC(=O)O",
        "Molecular Formula": "C<sub>6</sub>H<sub>11</sub>NO<sub>4</sub>",
        "Molecular Mass": "161.16",
        "Melting Point": "235-236 °C (decomp)"
    }
}