{
    "cas_no": "652-12-0",
    "key_name": "Tetrafluorophthalic anhydride",
    "cn_name": "3,4,5,6-四氟苯酐;四氟邻苯二甲酸酐;",
    "alternate_name": "1,3-Isobenzofurandione, 4,5,6,7-tetrafluoro-;Phthalic anhydride, tetrafluoro-;4,5,6,7-Tetrafluoro-1,3-isobenzofurandione;Tetrafluorophthalic anhydride;3,4,5,6-Tetrafluorophthalic anhydride",
    "duplicated_cas_no": "",
    "SMILES": "FC1=C2C(=C(F)C(F)=C1F)C(=O)OC2=O",
    "meta_data": {
        "InChI": "InChI=1S/C8F4O3/c9-3-1-2(8(14)15-7(1)13)4(10)6(12)5(3)11",
        "InChIKey": null,
        "Canonical SMILES": "O=C1OC(=O)C=2C(F)=C(F)C(F)=C(F)C12",
        "Molecular Formula": "C<sub>8</sub>F<sub>4</sub>O<sub>3</sub>",
        "Molecular Mass": "220.08",
        "Melting Point": "95 °C"
    }
}