{
    "cas_no": "5146-66-7",
    "key_name": "Geranyl nitrile",
    "cn_name": "3,7-二甲基-2,6-辛二烯腈;柠檬腈;",
    "alternate_name": "2,6-Octadienenitrile, 3,7-dimethyl-;3,7-Dimethyl-2,6-octadienenitrile;Citralva;Geranyl nitrile;Citronitrile;(<em>E</em>/<em>Z</em>)-Geranonitrile",
    "duplicated_cas_no": "80655-58-9;80748-12-5",
    "SMILES": "C(CCC=C(C)C)(=CC#N)C",
    "meta_data": {
        "InChI": "InChI=1S/C10H15N/c1-9(2)5-4-6-10(3)7-8-11/h5,7H,4,6H2,1-3H3",
        "InChIKey": null,
        "Canonical SMILES": "N#CC=C(C)CCC=C(C)C",
        "Molecular Formula": "C<sub>10</sub>H<sub>15</sub>N",
        "Molecular Mass": "149.23",
        "Boiling Point": "78-78.5 °C @ Press: 2 Torr",
        "Density": "0.8737 g/cm³ @ Temp: 20 °C"
    }
}