{
    "cas_no": "3674-18-8",
    "key_name": "<em>N</em>-[(1,1-Dimethylethoxy)carbonyl]-<span class=\"text-smallcaps\">D</span>-phenylalanine 2,5-dioxo-1-pyrrolidinyl ester",
    "cn_name": null,
    "alternate_name": "<span class=\"text-smallcaps\">D</span>-Phenylalanine, <em>N</em>-[(1,1-dimethylethoxy)carbonyl]-, 2,5-dioxo-1-pyrrolidinyl ester;Succinimide, <em>N</em>-[(<em>N</em>-carboxy-3-phenyl-<span class=\"text-smallcaps\">D</span>-alanyl)oxy]-, <em>tert</em>-butyl ester;Carbamic acid, [2-[(2,5-dioxo-1-pyrrolidinyl)oxy]-2-oxo-1-(phenylmethyl)ethyl]-, 1,1-dimethylethyl ester, (<em>R</em>)-;Carbamic acid, [(1<em>R</em>)-2-[(2,5-dioxo-1-pyrrolidinyl)oxy]-2-oxo-1-(phenylmethyl)ethyl]-, 1,1-dimethylethyl ester;<em>N</em>-[(1,1-Dimethylethoxy)carbonyl]-<span class=\"text-smallcaps\">D</span>-phenylalanine 2,5-dioxo-1-pyrrolidinyl ester;<em>tert</em>-Butyloxycarbonyl-(<em>R</em>)-phenylalanine <em>N</em>-hydroxysuccinimide ester;Boc-<span class=\"text-smallcaps\">D</span>-Phe-OSu",
    "duplicated_cas_no": "",
    "SMILES": "O(C([C@@H](CC1=CC=CC=C1)NC(OC(C)(C)C)=O)=O)N2C(=O)CCC2=O",
    "meta_data": {
        "InChI": "InChI=1S/C18H22N2O6/c1-18(2,3)25-17(24)19-13(11-12-7-5-4-6-8-12)16(23)26-20-14(21)9-10-15(20)22/h4-8,13H,9-11H2,1-3H3,(H,19,24)/t13-/m1/s1",
        "InChIKey": null,
        "Canonical SMILES": "O=C(OC(C)(C)C)NC(C(=O)ON1C(=O)CCC1=O)CC=2C=CC=CC2",
        "Molecular Formula": "C<sub>18</sub>H<sub>22</sub>N<sub>2</sub>O<sub>6</sub>",
        "Molecular Mass": "362.38",
        "Melting Point": "152-153 °C"
    }
}