{
    "cas_no": "1558-33-4",
    "key_name": "Dichloro(chloromethyl)methylsilane",
    "cn_name": "(氯甲基)甲基二氯硅烷;",
    "alternate_name": "Silane, dichloro(chloromethyl)methyl-;Dichloro(chloromethyl)methylsilane;Methyl(chloromethyl)dichlorosilane;(Chloromethyl)dichloromethylsilane;(Chloromethyl)methyldichlorosilane;Methyldichloro(chloromethyl)silane;LS 110",
    "duplicated_cas_no": "1081781-00-1",
    "SMILES": "[Si](CCl)(C)(Cl)Cl",
    "meta_data": {
        "InChI": "InChI=1S/C2H5Cl3Si/c1-6(4,5)2-3/h2H2,1H3",
        "InChIKey": null,
        "Canonical SMILES": "ClC[Si](Cl)(Cl)C",
        "Molecular Formula": "C<sub>2</sub>H<sub>5</sub>Cl<sub>3</sub>Si",
        "Molecular Mass": "163.51",
        "Boiling Point": "121.5 °C",
        "Melting Point": "120.5-121.5 °C",
        "Density": "1.285 g/cm³"
    }
}