{
    "cas_no": "9004-54-0",
    "key_name": "Dextran",
    "cn_name": null,
    "alternate_name": "Dextran;Dextrans;Dextran 40;Dextran 45;Dextran 70;Dextran 75;Dextran 110;Dextran 150;Dextranen;Dextran PVD;Dextran RMI;Dextraven;Expandex;Gentran;Intrader;Macrose;Onkotin;Plavolex;Rheotran;Polyglucin;Dextran 60;Dextran 10;Infucoll;Macrodex;Rheomacrodex;Dextran D 10;Dextran 15;Plasmodex;Hemodex;Rheopolyglucine;α-Dextran;Dextran T 150;Dextran 500;LMD;LMWD;LVD;Eudextran;Rheodextran;Dextran T 10;Intradex;Rheoisodex;Plasmafusin;T 70;Dextran 1000;Dextran T 500;Dextran T 110;Dextran 2000;Rheopolyglucin;Dextran B1355;Dextran T 2000;Hyskon;Promit;Ultradex;LU 122;Dextran T 70;Dextran 3000;Rondex;Rondex (polysaccharide);Rheorondex;Polyglusol;Dextran T 20;T 150;T 500;T 10 (carbohydrate);T 500 (carbohydrate);T 10;T 20;T 110;T 250;T 20 (carbohydrate);T 110 (carbohydrate);Dextran B 512;Dextran PT 25;Dextran 1.5;T 40 (polysaccharide);T 40;DEX 500;Dextran PL 1S;PL 1S;Dextran 250;Serva G;Hyscon;T 250 (polysaccharide);T 70 (carbohydrate);Longasteril 70;Oncovertin N;G 75;Dextran 40000;Dextran 10000;Dextran 20000;T 4 (polysaccharide);T 5 (polysaccharide);T 4;T 5;Dextran T 40;Dextran T 100;Gentran 40;Detrax 40;T 6;R-gel;D 9260;D 1390;Dextran D 9260;Dextran D 1390;D 5376;Dextran 6000;MeSH ID: D003911;Ultradex 531;Ultradex 530",
    "duplicated_cas_no": "9013-80-3;9044-66-0;11104-36-2;11121-03-2;12626-85-6;37224-17-2;60454-72-0;86280-85-5;128635-03-0;911319-01-2;1307300-43-1;1415795-13-9",
    "SMILES": "",
    "meta_data": {
        "InChI": "",
        "InChIKey": null,
        "Canonical SMILES": "",
        "Molecular Formula": "Unspecified",
        "Molecular Mass": "",
        "Melting Point": "80 °C (decomp)",
        "Density": "1.042 g/cm³"
    }
}