{
    "cas_no": "4441-30-9",
    "key_name": "3-Morpholino-1-propanol",
    "cn_name": "3-(4-吗啉)-1-丙醇;4-(3-羟丙基)吗啉;",
    "alternate_name": "4-Morpholinepropanol;3-Morpholinopropanol;3-Morpholino-1-propanol;3-(4-Morpholinyl)-1-propanol;4-(3-Hydroxypropyl)morpholine;<em>N</em>-(3-Hydroxypropyl)morpholine;3-(Morpholin-4-yl)propanol;3-(4-Morpholinyl)propanol;3-(4-Morpholinyl)propan-1-ol",
    "duplicated_cas_no": "850360-42-8",
    "SMILES": "C(CCO)N1CCOCC1",
    "meta_data": {
        "InChI": "InChI=1S/C7H15NO2/c9-5-1-2-8-3-6-10-7-4-8/h9H,1-7H2",
        "InChIKey": null,
        "Canonical SMILES": "OCCCN1CCOCC1",
        "Molecular Formula": "C<sub>7</sub>H<sub>15</sub>NO<sub>2</sub>",
        "Molecular Mass": "145.20",
        "Boiling Point": "134-136 °C @ Press: 24 Torr",
        "Melting Point": "110-111.5 °C",
        "Density": "1.0452 g/cm³ @ Temp: 25 °C"
    }
}