{
    "cas_no": "125224-62-6",
    "key_name": "2,5-Diazabicyclo[2.2.1]heptane, 2-methyl-, hydrobromide (1:2), (1<em>S</em>,4<em>S</em>)-",
    "cn_name": null,
    "alternate_name": "2,5-Diazabicyclo[2.2.1]heptane, 2-methyl-, hydrobromide (1:2), (1<em>S</em>,4<em>S</em>)-;2,5-Diazabicyclo[2.2.1]heptane, 2-methyl-, dihydrobromide, (1<em>S</em>)-;2,5-Diazabicyclo[2.2.1]heptane, 2-methyl-, dihydrobromide, (1<em>S</em>,4<em>S</em>)-;(1<em>S</em>,4<em>S</em>)-2-Methyl-2,5-diazabicyclo[2.2.1]heptane dihydrobromide;(1S,4S)-2-Methyl-2,5-diazabicyclo[2.2.1]heptane dihydrobromide",
    "duplicated_cas_no": "",
    "SMILES": "CN1[C@]2(C[C@@](C1)(NC2)[H])[H].Br",
    "meta_data": {
        "InChI": "InChI=1S/C6H12N2.2BrH/c1-8-4-5-2-6(8)3-7-5;;/h5-7H,2-4H2,1H3;2*1H/t5-,6-;;/m0../s1",
        "InChIKey": null,
        "Canonical SMILES": "Br.N1CC2N(C)CC1C2",
        "Molecular Formula": "C<sub>6</sub>H<sub>12</sub>N<sub>2</sub>.2BrH",
        "Molecular Mass": "",
        "Melting Point": "258-259 °C"
    }
}