{
    "cas_no": "116714-46-6",
    "key_name": "Novaluron",
    "cn_name": "双苯氟脲;N-[[3-氯-4-[1,1,2-三氟-2-(三氟甲氧基)乙氧基]苯基]氨基甲酰基]-2,6-双氟苯甲酰胺;",
    "alternate_name": "Benzamide, <em>N</em>-[[[3-chloro-4-[1,1,2-trifluoro-2-(trifluoromethoxy)ethoxy]phenyl]amino]carbonyl]-2,6-difluoro-;<em>N</em>-[[[3-Chloro-4-[1,1,2-trifluoro-2-(trifluoromethoxy)ethoxy]phenyl]amino]carbonyl]-2,6-difluorobenzamide;Novaluron;Rimon;Diamond (insecticide);Pedestal;Difluorobenzamide;Oscar Super;Oscar 10CE;Rimon 0.83EC",
    "duplicated_cas_no": "",
    "SMILES": "C(NC(NC1=CC(Cl)=C(OC(C(OC(F)(F)F)F)(F)F)C=C1)=O)(=O)C2=C(F)C=CC=C2F",
    "meta_data": {
        "InChI": "InChI=1S/C17H9ClF8N2O4/c18-8-6-7(4-5-11(8)31-16(22,23)14(21)32-17(24,25)26)27-15(30)28-13(29)12-9(19)2-1-3-10(12)20/h1-6,14H,(H2,27,28,29,30)",
        "InChIKey": null,
        "Canonical SMILES": "O=C(NC(=O)C=1C(F)=CC=CC1F)NC2=CC=C(OC(F)(F)C(F)OC(F)(F)F)C(Cl)=C2",
        "Molecular Formula": "C<sub>17</sub>H<sub>9</sub>ClF<sub>8</sub>N<sub>2</sub>O<sub>4</sub>",
        "Molecular Mass": "492.70",
        "Melting Point": "176-179 °C",
        "Density": "1.66 g/cm³"
    }
}