{
    "cas_no": "767-92-0",
    "key_name": "<em>rel</em>-(4a<em>R</em>,8a<em>S</em>)-Decahydroquinoline",
    "cn_name": "反式十氢喹啉;",
    "alternate_name": "Quinoline, decahydro-, (4a<em>R</em>,8a<em>S</em>)-<em>rel</em>-;Quinoline, decahydro-, <em>trans</em>-;<em>rel</em>-(4a<em>R</em>,8a<em>S</em>)-Decahydroquinoline;<em>trans</em>-Decahydroquinoline",
    "duplicated_cas_no": "105728-23-2",
    "SMILES": "[C@]12([C@](CCCC1)(NCCC2)[H])[H]",
    "meta_data": {
        "InChI": "InChI=1/C9H17N/c1-2-6-9-8(4-1)5-3-7-10-9/h8-10H,1-7H2/t8-,9+/s2",
        "InChIKey": null,
        "Canonical SMILES": "N1CCCC2CCCCC12",
        "Molecular Formula": "C<sub>9</sub>H<sub>17</sub>N",
        "Molecular Mass": "139.24",
        "Boiling Point": "203 °C @ Press: 735 Torr",
        "Melting Point": "48 °C",
        "Density": "0.9021 g/cm³ @ Temp: 56.5 °C"
    }
}