{
    "cas_no": "2339-78-8",
    "key_name": "1,2-Dichloro-4-fluoro-5-nitrobenzene",
    "cn_name": "1,2-二氯-4-氟-5-硝基苯;",
    "alternate_name": "Benzene, 1,2-dichloro-4-fluoro-5-nitro-;1,2-Dichloro-4-fluoro-5-nitrobenzene;2-Fluoro-4,5-dichloronitrobenzene;4,5-Dichloro-2-fluoronitrobenzene;3,4-Dichloro-6-fluoro-1-nitrobenzene;4,5-Dichloro-2-fluoro-1-nitrobenzene;4,5-Dichloro-1-fluoro-2-nitrobenzene;2-Fluoro-4,5-dichloro-1-nitrobenzene",
    "duplicated_cas_no": "",
    "SMILES": "N(=O)(=O)C1=C(F)C=C(Cl)C(Cl)=C1",
    "meta_data": {
        "InChI": "InChI=1S/C6H2Cl2FNO2/c7-3-1-5(9)6(10(11)12)2-4(3)8/h1-2H",
        "InChIKey": null,
        "Canonical SMILES": "O=N(=O)C=1C=C(Cl)C(Cl)=CC1F",
        "Molecular Formula": "C<sub>6</sub>H<sub>2</sub>Cl<sub>2</sub>FNO<sub>2</sub>",
        "Molecular Mass": "209.99",
        "Boiling Point": "247 °C",
        "Melting Point": "17 °C"
    }
}