{
    "cas_no": "654-62-6",
    "key_name": "4-Amino-6-(trifluoromethyl)-1,3-benzenedisulfonamide",
    "cn_name": "4-氨基-6-(三氟甲基)苯-1,3-二磺酰胺;",
    "alternate_name": "1,3-Benzenedisulfonamide, 4-amino-6-(trifluoromethyl)-;Toluene-2,4-disulfonamide, 5-amino-α,α,α-trifluoro-;4-Amino-6-(trifluoromethyl)-1,3-benzenedisulfonamide;5-Trifluoromethyl-2,4-disulfamoylaniline;2,4-Disulfamoyl-5-trifluoromethylaniline;NSC 44625",
    "duplicated_cas_no": "",
    "SMILES": "C(F)(F)(F)C1=C(S(N)(=O)=O)C=C(S(N)(=O)=O)C(N)=C1",
    "meta_data": {
        "InChI": "InChI=1S/C7H8F3N3O4S2/c8-7(9,10)3-1-4(11)6(19(13,16)17)2-5(3)18(12,14)15/h1-2H,11H2,(H2,12,14,15)(H2,13,16,17)",
        "InChIKey": null,
        "Canonical SMILES": "O=S(=O)(N)C=1C=C(C(=CC1N)C(F)(F)F)S(=O)(=O)N",
        "Molecular Formula": "C<sub>7</sub>H<sub>8</sub>F<sub>3</sub>N<sub>3</sub>O<sub>4</sub>S<sub>2</sub>",
        "Molecular Mass": "319.28",
        "Melting Point": "239.5-241.5 °C"
    }
}