{
    "cas_no": "347-93-3",
    "key_name": "3-Chloro-4′-fluoropropiophenone",
    "cn_name": "3-氯-4-氟-苯丙酮;3-氯-4\"-氟苯丙酮;",
    "alternate_name": "1-Propanone, 3-chloro-1-(4-fluorophenyl)-;Propiophenone, 3-chloro-4′-fluoro-;3-Chloro-1-(4-fluorophenyl)-1-propanone;2-Chloroethyl <em>p</em>-fluorophenyl ketone;3-Chloro-4′-fluoropropiophenone;2-(<em>p</em>-Fluorobenzoyl)ethyl chloride;β-Chloro-4′-fluoropropiophenone;1-(3-Chloropropanoyl)-4-fluorobenzene;2-Chloroethyl 4-fluorophenyl ketone;NSC 36072",
    "duplicated_cas_no": "",
    "SMILES": "C(CCCl)(=O)C1=CC=C(F)C=C1",
    "meta_data": {
        "InChI": "InChI=1S/C9H8ClFO/c10-6-5-9(12)7-1-3-8(11)4-2-7/h1-4H,5-6H2",
        "InChIKey": null,
        "Canonical SMILES": "O=C(C1=CC=C(F)C=C1)CCCl",
        "Molecular Formula": "C<sub>9</sub>H<sub>8</sub>ClFO",
        "Molecular Mass": "186.61",
        "Boiling Point": "100-103 °C @ Press: 3 Torr",
        "Melting Point": "49-50 °C"
    }
}