{
    "cas_no": "1482-62-8",
    "key_name": "<em>N</em>-(4-Chlorophenyl)-<em>N</em>′-cyanoguanidine",
    "cn_name": "N-对氯苯基-Nˊ-氰基胍;N-对氯苯基双氰胺；对氯苯氰胍;",
    "alternate_name": "Guanidine, <em>N</em>-(4-chlorophenyl)-<em>N</em>′-cyano-;Guanidine, 1-(<em>p</em>-chlorophenyl)-3-cyano-;<em>N</em>-(4-Chlorophenyl)-<em>N</em>′-cyanoguanidine;<em>N</em>-(<em>p</em>-Chlorophenyl)dicyandiamide;<em>p</em>-Chlorophenyldicyandiamide;<em>p</em>-Chlorophenylcyanoguanidine;<em>N</em><sup>1</sup>-(4-Chlorophenyl)-<em>N</em><sup>3</sup>-cyanoguanidine;1-Cyano-3-(4-chlorophenyl)guanidine;NSC 74463;1-(<em>p</em>-Chlorophenyl)-3-cyanoguanidine;2-(4-Chlorophenyl)-1-cyanoguanidine",
    "duplicated_cas_no": "",
    "SMILES": "N(C(NC#N)=N)C1=CC=C(Cl)C=C1",
    "meta_data": {
        "InChI": "InChI=1S/C8H7ClN4/c9-6-1-3-7(4-2-6)13-8(11)12-5-10/h1-4H,(H3,11,12,13)",
        "InChIKey": null,
        "Canonical SMILES": "N#CNC(=N)NC1=CC=C(Cl)C=C1",
        "Molecular Formula": "C<sub>8</sub>H<sub>7</sub>ClN<sub>4</sub>",
        "Molecular Mass": "194.62",
        "Melting Point": "202-204 °C"
    }
}