{
    "cas_no": "606-58-6",
    "key_name": "Toyocamycin",
    "cn_name": null,
    "alternate_name": "7<em>H</em>-Pyrrolo[2,3-<em>d</em>]pyrimidine-5-carbonitrile, 4-amino-7-β-<span class=\"text-smallcaps\">D</span>-ribofuranosyl-;Toyocamycin;4-Amino-7-β-<span class=\"text-smallcaps\">D</span>-ribofuranosyl-7<em>H</em>-pyrrolo[2,3-<em>d</em>]pyrimidine-5-carbonitrile;Antibiotic 1037;Toyocamycin nucleoside;Unamycin B;Vengicide;Antibiotic E 212;4-Amino-5-cyano-7-(β-<span class=\"text-smallcaps\">D</span>-ribofuranosyl)pyrrolo[2,3-<em>d</em>]pyrimidine;Toyokamycin;7-Cyano-7-deazaadenosine;MT 1155;NSC 63701;NSC 99843;SIPI 763-1;MeSH ID: D014127",
    "duplicated_cas_no": "",
    "SMILES": "O[C@H]1[C@H](N2C=3C(C(C#N)=C2)=C(N)N=CN3)O[C@H](CO)[C@H]1O",
    "meta_data": {
        "InChI": "InChI=1S/C12H13N5O4/c13-1-5-2-17(11-7(5)10(14)15-4-16-11)12-9(20)8(19)6(3-18)21-12/h2,4,6,8-9,12,18-20H,3H2,(H2,14,15,16)/t6-,8-,9-,12-/m1/s1",
        "InChIKey": null,
        "Canonical SMILES": "N#CC1=CN(C=2N=CN=C(N)C12)C3OC(CO)C(O)C3O",
        "Molecular Formula": "C<sub>12</sub>H<sub>13</sub>N<sub>5</sub>O<sub>4</sub>",
        "Molecular Mass": "291.26",
        "Melting Point": "243 °C"
    }
}