{
    "cas_no": "4756-75-6",
    "key_name": "Triphenylstibine oxide",
    "cn_name": "三苯基氧化锑;",
    "alternate_name": "Stibine oxide, triphenyl-;Triphenylstibine oxide;Triphenylantimony oxide;NSC 99161",
    "duplicated_cas_no": "",
    "SMILES": "[Sb](=O)(C1=CC=CC=C1)(C2=CC=CC=C2)C3=CC=CC=C3",
    "meta_data": {
        "InChI": "InChI=1S/3C6H5.O.Sb/c3*1-2-4-6-5-3-1;;/h3*1-5H;;",
        "InChIKey": null,
        "Canonical SMILES": "O=[Sb](C=1C=CC=CC1)(C=2C=CC=CC2)C=3C=CC=CC3",
        "Molecular Formula": "C<sub>18</sub>H<sub>15</sub>OSb",
        "Molecular Mass": "",
        "Melting Point": "209 °C"
    }
}