{
    "cas_no": "122341-38-2",
    "key_name": "mTHPC",
    "cn_name": "替莫卟吩;",
    "alternate_name": "Phenol, 3,3′,3′′,3′′′-(7,8-dihydro-21<em>H</em>,23<em>H</em>-porphine-5,10,15,20-tetrayl)tetrakis-;3,3′,3′′,3′′′-(7,8-Dihydro-21<em>H</em>,23<em>H</em>-porphine-5,10,15,20-tetrayl)tetrakis[phenol];5,10,15,20-Tetra(<em>m</em>-hydroxyphenyl)chlorin;Temoporfin;3,3′,3′′,3′′′-(7,8-Dihydroporphyrin-5,10,15,20-tetrayl)tetraphenol;mTHPC;EF 9;5,10,15,20-Tetrakis(m-hydroxyphenyl)chlorin;Foscan;8-Dihydroporphyrin-5;Fosgel;Foslip;Fospeg;Foslipos;<em>m</em>-Tetrahydroxyphenylchlorin;SML 1707",
    "duplicated_cas_no": "851449-56-4;1430406-65-7",
    "SMILES": "OC=1C=C(C=2C=3NC(=CC3)C(=C4N=C(C=C4)C(=C5NC(=C(C6=NC2CC6)C7=CC(O)=CC=C7)C=C5)C8=CC(O)=CC=C8)C9=CC(O)=CC=C9)C=CC1",
    "meta_data": {
        "InChI": "InChI=1S/C44H32N4O4/c49-29-9-1-5-25(21-29)41-33-13-15-35(45-33)42(26-6-2-10-30(50)22-26)37-17-19-39(47-37)44(28-8-4-12-32(52)24-28)40-20-18-38(48-40)43(36-16-14-34(41)46-36)27-7-3-11-31(51)23-27/h1-17,19,21-24,46-47,49-52H,18,20H2/b41-33-,41-34?,42-35?,42-37-,43-36?,43-38-,44-39-,44-40?",
        "InChIKey": null,
        "Canonical SMILES": "OC1=CC=CC(=C1)C2=C3N=C(C=C3)C(C=4C=CC=C(O)C4)=C5C=CC(N5)=C(C=6C=CC=C(O)C6)C7=NC(=C(C=8C=CC=C(O)C8)C9=CC=C2N9)CC7",
        "Molecular Formula": "C<sub>44</sub>H<sub>32</sub>N<sub>4</sub>O<sub>4</sub>",
        "Molecular Mass": "680.75",
        "Melting Point": "&gt;250 °C"
    }
}