{
    "cas_no": "1530-04-7",
    "key_name": "1,1′-Hexylidenebis[benzene]",
    "cn_name": "1,1-联苯基己烷;",
    "alternate_name": "Benzene, 1,1′-hexylidenebis-;Hexane, 1,1-diphenyl-;1,1′-Hexylidenebis[benzene];1,1-Diphenylhexane;1-Phenylhexylbenzene",
    "duplicated_cas_no": "",
    "SMILES": "C(CCCCC)(C1=CC=CC=C1)C2=CC=CC=C2",
    "meta_data": {
        "InChI": "InChI=1S/C18H22/c1-2-3-6-15-18(16-11-7-4-8-12-16)17-13-9-5-10-14-17/h4-5,7-14,18H,2-3,6,15H2,1H3",
        "InChIKey": null,
        "Canonical SMILES": "C=1C=CC(=CC1)C(C=2C=CC=CC2)CCCCC",
        "Molecular Formula": "C<sub>18</sub>H<sub>22</sub>",
        "Molecular Mass": "238.37",
        "Boiling Point": "321.03 °C @ Press: 760 Torr",
        "Melting Point": "-11.76 °C",
        "Density": "0.95639 g/cm³ @ Temp: 20 °C"
    }
}