{
    "cas_no": "25013-15-4",
    "key_name": "Vinyltoluene",
    "cn_name": "乙烯基甲基苯;烯丙基苯;乙烯基甲苯;",
    "alternate_name": "Benzene, ethenylmethyl-;Styrene, <em>ar</em>-methyl-;Ethenylmethylbenzene;Vinyltoluene;Methylstyrene;Tolylethylene;Methyl vinyl benzene",
    "duplicated_cas_no": "1321-45-5;1202865-10-8;1216569-45-7",
    "SMILES": "",
    "meta_data": {
        "InChI": "",
        "InChIKey": null,
        "Canonical SMILES": "",
        "Molecular Formula": "C<sub>9</sub>H<sub>10</sub>",
        "Molecular Mass": "",
        "Boiling Point": "168 °C",
        "Melting Point": "-77 °C",
        "Density": "0.90-0.92 g/cm³"
    }
}