{
    "cas_no": "89778-27-8",
    "key_name": "Toremifene citrate",
    "cn_name": "枸橼酸托瑞米芬;2[4-(4-氯-1,2-二苯基-1-丁烯基)苯氧基-N,N-二甲基乙胺枸橼酸盐;",
    "alternate_name": "Ethanamine, 2-[4-[(1<em>Z</em>)-4-chloro-1,2-diphenyl-1-buten-1-yl]phenoxy]-<em>N</em>,<em>N</em>-dimethyl-, 2-hydroxy-1,2,3-propanetricarboxylate (1:1);Ethanamine, 2-[4-(4-chloro-1,2-diphenyl-1-butenyl)phenoxy]-<em>N</em>,<em>N</em>-dimethyl-, (<em>Z</em>)-, 2-hydroxy-1,2,3-propanetricarboxylate (1:1);Ethanamine, 2-[4-[(1<em>Z</em>)-4-chloro-1,2-diphenyl-1-butenyl]phenoxy]-<em>N</em>,<em>N</em>-dimethyl-, 2-hydroxy-1,2,3-propanetricarboxylate (1:1);FC 1157a;Toremifene citrate;NK 622;Fareston;NSC 613680;Acapodene;<em>Z</em>-Toremifene;GTx 006",
    "duplicated_cas_no": "",
    "SMILES": "C(=C(/CCCl)\\C1=CC=CC=C1)(\\C2=CC=C(OCCN(C)C)C=C2)/C3=CC=CC=C3.C(CC(O)=O)(CC(O)=O)(C(O)=O)O",
    "meta_data": {
        "InChI": "InChI=1S/C26H28ClNO.C6H8O7/c1-28(2)19-20-29-24-15-13-23(14-16-24)26(22-11-7-4-8-12-22)25(17-18-27)21-9-5-3-6-10-21;7-3(8)1-6(13,5(11)12)2-4(9)10/h3-16H,17-20H2,1-2H3;13H,1-2H2,(H,7,8)(H,9,10)(H,11,12)/b26-25-;",
        "InChIKey": null,
        "Canonical SMILES": "O=C(O)CC(O)(C(=O)O)CC(=O)O.ClCCC(C=1C=CC=CC1)=C(C=2C=CC=CC2)C3=CC=C(OCCN(C)C)C=C3",
        "Molecular Formula": "C<sub>26</sub>H<sub>28</sub>ClNO.C<sub>6</sub>H<sub>8</sub>O<sub>7</sub>",
        "Molecular Mass": "",
        "Melting Point": "160-162 °C"
    }
}