{
    "cas_no": "6363-53-7",
    "key_name": "Maltose, monohydrate",
    "cn_name": "麦芽糖一水合物;",
    "alternate_name": "<span class=\"text-smallcaps\">D</smallcap>-Glucose, 4-<em>O</em>-α-<smallcap>D</span>-glucopyranosyl-, hydrate (1:1);<span class=\"text-smallcaps\">D</smallcap>-Glucose, 4-<em>O</em>-α-<smallcap>D</span>-glucopyranosyl-, monohydrate;Maltose, monohydrate;Maltose monohydrate;<span class=\"text-smallcaps\">D</span>-(+)-Maltose monohydrate",
    "duplicated_cas_no": "1082728-06-0;1195516-90-5",
    "SMILES": "O([C@@H]([C@@H]([C@H](C=O)O)O)[C@@H](CO)O)[C@H]1O[C@H](CO)[C@@H](O)[C@H](O)[C@H]1O.O",
    "meta_data": {
        "InChI": "InChI=1S/C12H22O11.H2O/c13-1-4(16)7(18)11(5(17)2-14)23-12-10(21)9(20)8(19)6(3-15)22-12;/h1,4-12,14-21H,2-3H2;1H2/t4-,5+,6+,7+,8+,9-,10+,11+,12+;/m0./s1",
        "InChIKey": null,
        "Canonical SMILES": "O=CC(O)C(O)C(OC1OC(CO)C(O)C(O)C1O)C(O)CO.O",
        "Molecular Formula": "C<sub>12</sub>H<sub>22</sub>O<sub>11</sub>.H<sub>2</sub>O",
        "Molecular Mass": "",
        "Melting Point": "106.15 °C"
    }
}