{
    "cas_no": "764-67-0",
    "key_name": "2-Hydroxyhexadecanoic acid",
    "cn_name": null,
    "alternate_name": "Hexadecanoic acid, 2-hydroxy-;2-Hydroxyhexadecanoic acid;α-Hydroxypalmitic acid;2-Hydroxypalmitic acid;α-Hydroxyhexadecanoic acid;(±)-α-Hydroxypalmitic acid;<span class=\"text-smallcaps\">DL</span>-2-Hydroxypalmitic acid;(±)-2-Hydroxyhexadecanoic acid;<span class=\"text-smallcaps\">DL</span>-2-Hydroxyhexadecanoic acid;NSC 2097",
    "duplicated_cas_no": "10067-06-8",
    "SMILES": "C(CCCCCCCCCCCC)CC(C(O)=O)O",
    "meta_data": {
        "InChI": "InChI=1S/C16H32O3/c1-2-3-4-5-6-7-8-9-10-11-12-13-14-15(17)16(18)19/h15,17H,2-14H2,1H3,(H,18,19)",
        "InChIKey": null,
        "Canonical SMILES": "O=C(O)C(O)CCCCCCCCCCCCCC",
        "Molecular Formula": "C<sub>16</sub>H<sub>32</sub>O<sub>3</sub>",
        "Molecular Mass": "272.42",
        "Melting Point": "93.5 °C"
    }
}