{
    "cas_no": "134-96-3",
    "key_name": "Syringaldehyde",
    "cn_name": "丁香醛;3,5-二甲氧基-4-羟基苯甲醛;",
    "alternate_name": "Benzaldehyde, 4-hydroxy-3,5-dimethoxy-;4-Hydroxy-3,5-dimethoxybenzaldehyde;3,5-Dimethoxy-4-hydroxybenzaldehyde;4-Formyl-2,6-dimethoxyphenol;Gallaldehyde 3,5-dimethyl ether;Syringaldehyde;Syringic aldehyde;Cedar aldehyde;2,6-Dimethoxy-4-formylphenol;NSC 41153;SM 707;VND 3207;4-Formylsyringol;3,5-Bis(methyloxy)-4-hydroxybenzaldehyde",
    "duplicated_cas_no": "",
    "SMILES": "O(C)C1=C(O)C(OC)=CC(C=O)=C1",
    "meta_data": {
        "InChI": "InChI=1S/C9H10O4/c1-12-7-3-6(5-10)4-8(13-2)9(7)11/h3-5,11H,1-2H3",
        "InChIKey": null,
        "Canonical SMILES": "O=CC1=CC(OC)=C(O)C(OC)=C1",
        "Molecular Formula": "C<sub>9</sub>H<sub>10</sub>O<sub>4</sub>",
        "Molecular Mass": "182.17",
        "Melting Point": "113 °C"
    }
}