{
    "cas_no": "15199-41-4",
    "key_name": "1,2-Cyclododecanediol",
    "cn_name": "1,2-环十二烷二醇;",
    "alternate_name": "1,2-Cyclododecanediol",
    "duplicated_cas_no": "",
    "SMILES": "OC1C(O)CCCCCCCCCC1",
    "meta_data": {
        "InChI": "InChI=1S/C12H24O2/c13-11-9-7-5-3-1-2-4-6-8-10-12(11)14/h11-14H,1-10H2",
        "InChIKey": null,
        "Canonical SMILES": "OC1CCCCCCCCCCC1O",
        "Molecular Formula": "C<sub>12</sub>H<sub>24</sub>O<sub>2</sub>",
        "Molecular Mass": "200.32",
        "Melting Point": "161.5-162.5 °C"
    }
}