{
    "cas_no": "616-13-7",
    "key_name": "1-Chloro-2-methylbutane",
    "cn_name": "1-氯-2-甲基丁烷;",
    "alternate_name": "Butane, 1-chloro-2-methyl-;1-Chloro-2-methylbutane;2-Methylbutyl chloride;(±)-1-Chloro-2-methylbutane",
    "duplicated_cas_no": "114180-21-1",
    "SMILES": "C(CC)(CCl)C",
    "meta_data": {
        "InChI": "InChI=1S/C5H11Cl/c1-3-5(2)4-6/h5H,3-4H2,1-2H3",
        "InChIKey": null,
        "Canonical SMILES": "ClCC(C)CC",
        "Molecular Formula": "C<sub>5</sub>H<sub>11</sub>Cl",
        "Molecular Mass": "106.59",
        "Boiling Point": "96-99 °C",
        "Density": "0.8818 g/cm³ @ Temp: 15 °C"
    }
}