{
    "cas_no": "90-01-7",
    "key_name": "2-Hydroxybenzyl alcohol",
    "cn_name": "水杨醇;2-羟基苯甲醇;邻羟基苯甲醇;",
    "alternate_name": "Benzenemethanol, 2-hydroxy-;Benzyl alcohol, <em>o</em>-hydroxy-;2-Hydroxybenzenemethanol;<em>o</em>-Hydroxybenzyl alcohol;Salicyl alcohol;Saligenin;Saligenol;<em>o</em>-Methylolphenol;2-Methylolphenol;2-Hydroxymethylphenol;2-Hydroxybenzyl alcohol;α-Hydroxy-<em>o</em>-cresol;α,2-Dihydroxytoluene;Diathesin;<em>o</em>-(Hydroxymethyl)phenol;1-(<em>o</em>-Hydroxyphenyl)methanol;Salicylic alcohol;Salicain;NSC 3814",
    "duplicated_cas_no": "",
    "SMILES": "C(O)C1=C(O)C=CC=C1",
    "meta_data": {
        "InChI": "InChI=1S/C7H8O2/c8-5-6-3-1-2-4-7(6)9/h1-4,8-9H,5H2",
        "InChIKey": null,
        "Canonical SMILES": "OC=1C=CC=CC1CO",
        "Molecular Formula": "C<sub>7</sub>H<sub>8</sub>O<sub>2</sub>",
        "Molecular Mass": "124.14",
        "Melting Point": "87 °C",
        "Density": "1.16 g/cm³"
    }
}