{
    "cas_no": "106-24-1",
    "key_name": "Geraniol",
    "cn_name": "香叶醇;(E)-3,7-二甲基-2,6-辛二烯-1-醇;",
    "alternate_name": "2,6-Octadien-1-ol, 3,7-dimethyl-, (2<em>E</em>)-;2,6-Octadien-1-ol, 3,7-dimethyl-, (<em>E</em>)-;(2<em>E</em>)-3,7-Dimethyl-2,6-octadien-1-ol;Geraniol;Geranyl alcohol;Lemonol;<em>trans</em>-3,7-Dimethyl-2,6-octadien-1-ol;<em>trans</em>-Geraniol;β-Geraniol;(<em>E</em>)-Geraniol;(<em>E</em>)-Nerol;(<em>E</em>)-3,7-Dimethyl-2,6-octadien-1-ol;NSC 9279;MosquitoSafe;3,7-Dimethyl-<em>trans</em>-2,6-octadien-1-ol;(<em>E</em>)-3,7-Dimethyl-2,6-octadienol;Geraniol BJ;Geraniol 60;Geraniol 980;<em>trans</em>-1-Hydroxy-3,7-dimethyl-2,6-octadiene;TT 4228;TT 4302;Geraniol super;(E)-3,7-Dimethyl-2,6-octadien-1-ol;Geraniol Supra;ZIF-77;Nerol 800",
    "duplicated_cas_no": "8007-13-4;491611-08-6",
    "SMILES": "C(\\CCC=C(C)C)(=C/CO)/C",
    "meta_data": {
        "InChI": "InChI=1S/C10H18O/c1-9(2)5-4-6-10(3)7-8-11/h5,7,11H,4,6,8H2,1-3H3/b10-7+",
        "InChIKey": null,
        "Canonical SMILES": "OCC=C(C)CCC=C(C)C",
        "Molecular Formula": "C<sub>10</sub>H<sub>18</sub>O",
        "Molecular Mass": "154.25",
        "Boiling Point": "230 °C @ Press: 760 Torr",
        "Melting Point": "&lt;-15 °C",
        "Density": "0.8894 g/cm³ @ Temp: 20 °C"
    }
}