{
    "cas_no": "28211-04-3",
    "key_name": "ε-Poly-<span class=\"text-smallcaps\">L</span>-lysine",
    "cn_name": null,
    "alternate_name": "Poly[imino[(2<em>S</em>)-2-amino-1-oxo-1,6-hexanediyl]];Poly[imino(2-amino-1-oxo-1,6-hexanediyl)], (<em>S</em>)-;Poly(ε-lysine), SRU;ε-Polylysine;Poly[iminocarbonyl(1-aminopentamethylene)];Poly[imino(2-amino-1-oxo-1,6-hexanediyl)];Poly[imino(5-amino-6-oxo-1,6-hexanediyl)];ε-Poly-<span class=\"text-smallcaps\">L</span>-lysine;ε-<span class=\"text-smallcaps\">L</span>-Polylysine;Sankeeper 381;Polyε-lysine",
    "duplicated_cas_no": "32195-73-6;77260-73-2;80433-04-1;81669-98-9;87228-00-0;88562-56-5;90751-06-7;107981-98-6;923593-35-5;2050231-95-1",
    "SMILES": "",
    "meta_data": {
        "InChI": "",
        "InChIKey": null,
        "Canonical SMILES": "",
        "Molecular Formula": "(C<sub>6</sub>H<sub>12</sub>N<sub>2</sub>O)<sub>n</sub>",
        "Molecular Mass": "",
        "Melting Point": "172 °C"
    }
}