{
    "cas_no": "59944-75-1",
    "key_name": "Thieno[2,3-<em>b</em>]pyrazin-7-amine",
    "cn_name": null,
    "alternate_name": "Thieno[2,3-<em>b</em>]pyrazin-7-amine",
    "duplicated_cas_no": "",
    "SMILES": "NC=1C=2C(=NC=CN2)SC1",
    "meta_data": {
        "InChI": "InChI=1S/C6H5N3S/c7-4-3-10-6-5(4)8-1-2-9-6/h1-3H,7H2",
        "InChIKey": null,
        "Canonical SMILES": "N1=CC=NC2=C1SC=C2N",
        "Molecular Formula": "C<sub>6</sub>H<sub>5</sub>N<sub>3</sub>S",
        "Molecular Mass": "151.19",
        "Melting Point": "81-82 °C"
    }
}