{
    "cas_no": "50298-90-3",
    "key_name": "Dihydrocucurbitacin F",
    "cn_name": null,
    "alternate_name": "19-Norlanost-5-ene-11,22-dione, 2,3,16,20,25-pentahydroxy-9-methyl-, (2β,3α,9β,10α,16α)-;(2β,3α,9β,10α,16α)-2,3,16,20,25-Pentahydroxy-9-methyl-19-norlanost-5-ene-11,22-dione;23,24-Dihydrocucurbitacin F;Cucurbitacin II<sub>b</sub>;Dihydrocucurbitacin F;Hemslecin B",
    "duplicated_cas_no": "129357-89-7;881024-53-9",
    "SMILES": "C[C@]12[C@@](C)([C@@]([C@@](C(CCC(C)(C)O)=O)(C)O)([C@H](O)C1)[H])CC(=O)[C@]3(C)[C@]2(CC=C4[C@]3(C[C@H](O)[C@@H](O)C4(C)C)[H])[H]",
    "meta_data": {
        "InChI": "InChI=1S/C30H48O7/c1-25(2,36)12-11-21(33)30(8,37)23-19(32)14-27(5)20-10-9-16-17(13-18(31)24(35)26(16,3)4)29(20,7)22(34)15-28(23,27)6/h9,17-20,23-24,31-32,35-37H,10-15H2,1-8H3/t17-,18+,19-,20+,23+,24-,27+,28-,29+,30+/m1/s1",
        "InChIKey": null,
        "Canonical SMILES": "O=C(CCC(O)(C)C)C(O)(C)C1C(O)CC2(C)C3CC=C4C(CC(O)C(O)C4(C)C)C3(C(=O)CC12C)C",
        "Molecular Formula": "C<sub>30</sub>H<sub>48</sub>O<sub>7</sub>",
        "Molecular Mass": "520.70",
        "Melting Point": "155-156 °C"
    }
}