{
    "cas_no": "153-78-6",
    "key_name": "2-Aminofluorene",
    "cn_name": "2-氨基芴;",
    "alternate_name": "9<em>H</em>-Fluoren-2-amine;Fluoren-2-amine;2-Aminofluorene;2-Fluorenylamine;<em>N</em>-2-Fluorenylamine;NSC 12274;NSC 26328;2-Amino-9<em>H</em>-fluorene",
    "duplicated_cas_no": "",
    "SMILES": "NC=1C=C2C(C=3C(C2)=CC=CC3)=CC1",
    "meta_data": {
        "InChI": "InChI=1S/C13H11N/c14-11-5-6-13-10(8-11)7-9-3-1-2-4-12(9)13/h1-6,8H,7,14H2",
        "InChIKey": null,
        "Canonical SMILES": "NC1=CC=C2C=3C=CC=CC3CC2=C1",
        "Molecular Formula": "C<sub>13</sub>H<sub>11</sub>N",
        "Molecular Mass": "181.23",
        "Melting Point": "131-132 °C"
    }
}