{
    "cas_no": "7598-80-3",
    "key_name": "α-Phenyl[1,1′-biphenyl]-4-methanol",
    "cn_name": null,
    "alternate_name": "[1,1′-Biphenyl]-4-methanol, α-phenyl-;Benzhydrol, 4-phenyl-;α-Phenyl[1,1′-biphenyl]-4-methanol;4-Phenylbenzhydrol;α-Phenyl-4-biphenylmethanol;<em>p</em>-Phenylbenzhydrol;4-Biphenylylphenylcarbinol;NSC 16333;Biphenyl-4-yl phenyl methanol;[1,1′-Biphenyl]-4-yl(phenyl)methanol",
    "duplicated_cas_no": "13860-20-3;162824-31-9",
    "SMILES": "C(O)(C1=CC=C(C=C1)C2=CC=CC=C2)C3=CC=CC=C3",
    "meta_data": {
        "InChI": "InChI=1S/C19H16O/c20-19(17-9-5-2-6-10-17)18-13-11-16(12-14-18)15-7-3-1-4-8-15/h1-14,19-20H",
        "InChIKey": null,
        "Canonical SMILES": "OC(C=1C=CC=CC1)C=2C=CC(=CC2)C=3C=CC=CC3",
        "Molecular Formula": "C<sub>19</sub>H<sub>16</sub>O",
        "Molecular Mass": "260.33",
        "Boiling Point": "258-260 °C @ Press: 17 Torr",
        "Melting Point": "95-96 °C"
    }
}