{
    "cas_no": "32862-97-8",
    "key_name": "3-(3-Bromophenyl)-2-propenoic acid",
    "cn_name": null,
    "alternate_name": "2-Propenoic acid, 3-(3-bromophenyl)-;Cinnamic acid, <em>m</em>-bromo-;3-(3-Bromophenyl)-2-propenoic acid;<em>m</em>-Bromocinnamic acid;3-Bromocinnamic acid;NSC 102779;3-(3-Bromophenyl)acrylic acid",
    "duplicated_cas_no": "",
    "SMILES": "C(=CC(O)=O)C1=CC(Br)=CC=C1",
    "meta_data": {
        "InChI": "InChI=1S/C9H7BrO2/c10-8-3-1-2-7(6-8)4-5-9(11)12/h1-6H,(H,11,12)",
        "InChIKey": null,
        "Canonical SMILES": "O=C(O)C=CC=1C=CC=C(Br)C1",
        "Molecular Formula": "C<sub>9</sub>H<sub>7</sub>BrO<sub>2</sub>",
        "Molecular Mass": "227.05",
        "Melting Point": "177-179 °C"
    }
}