{
    "cas_no": "3182-93-2",
    "key_name": "Phenylalanine ethyl ester hydrochloride",
    "cn_name": "L-苯丙氨酸乙酯盐酸盐;",
    "alternate_name": "<span class=\"text-smallcaps\">L</span>-Phenylalanine, ethyl ester, hydrochloride (1:1);Alanine, phenyl-, ethyl ester, hydrochloride, <span class=\"text-smallcaps\">L</span>-(-)-;<span class=\"text-smallcaps\">L</span>-Phenylalanine, ethyl ester, hydrochloride;(<em>S</em>)-Phenylalanine ethyl ester hydrochloride;Ethyl <span class=\"text-smallcaps\">L</span>-phenylalaninate hydrochloride;Phenylalanine ethyl ester hydrochloride;<span class=\"text-smallcaps\">L</span>-Phenylalanine ether ester hydrochloride;<span class=\"text-smallcaps\">L</span>-Ethyl phenylalanine hydrochloride",
    "duplicated_cas_no": "69808-69-1;1403677-12-2",
    "SMILES": "C([C@@H](C(OCC)=O)N)C1=CC=CC=C1.Cl",
    "meta_data": {
        "InChI": "InChI=1S/C11H15NO2.ClH/c1-2-14-11(13)10(12)8-9-6-4-3-5-7-9;/h3-7,10H,2,8,12H2,1H3;1H/t10-;/m0./s1",
        "InChIKey": null,
        "Canonical SMILES": "Cl.O=C(OCC)C(N)CC=1C=CC=CC1",
        "Molecular Formula": "C<sub>11</sub>H<sub>15</sub>NO<sub>2</sub>.ClH",
        "Molecular Mass": "",
        "Melting Point": "126-127 °C"
    }
}