{
    "cas_no": "148-86-7",
    "key_name": "[1,1′-Biphenyl]-4-ol, 4-acetate",
    "cn_name": null,
    "alternate_name": "[1,1′-Biphenyl]-4-ol, 4-acetate;4-Biphenylol, acetate;[1,1′-Biphenyl]-4-ol, acetate;Phenol, <em>p</em>-phenyl-, acetate;<em>p</em>-Phenylphenyl acetate;4-Acetoxybiphenyl;4-Biphenylyl acetate;<em>p</em>-Biphenol acetate;[1,1′-Biphenyl]-4-yl acetate;<em>p</em>-Phenylphenol acetate;NSC 404087;4-Acetoxy-1,1′-biphenyl;(4-Phenylphenyl) acetate",
    "duplicated_cas_no": "",
    "SMILES": "O(C(C)=O)C1=CC=C(C=C1)C2=CC=CC=C2",
    "meta_data": {
        "InChI": "InChI=1S/C14H12O2/c1-11(15)16-14-9-7-13(8-10-14)12-5-3-2-4-6-12/h2-10H,1H3",
        "InChIKey": null,
        "Canonical SMILES": "O=C(OC=1C=CC(=CC1)C=2C=CC=CC2)C",
        "Molecular Formula": "C<sub>14</sub>H<sub>12</sub>O<sub>2</sub>",
        "Molecular Mass": "212.24",
        "Melting Point": "89 °C"
    }
}