{
    "cas_no": "5921-73-3",
    "key_name": "2-Nonyn-1-ol",
    "cn_name": "2-壬炔-1-醇;",
    "alternate_name": "2-Nonyn-1-ol;1-Hydroxy-2-nonyne",
    "duplicated_cas_no": "",
    "SMILES": "C(CC#CCO)CCCC",
    "meta_data": {
        "InChI": "InChI=1S/C9H16O/c1-2-3-4-5-6-7-8-9-10/h10H,2-6,9H2,1H3",
        "InChIKey": null,
        "Canonical SMILES": "OCC#CCCCCCC",
        "Molecular Formula": "C<sub>9</sub>H<sub>16</sub>O",
        "Molecular Mass": "140.22",
        "Boiling Point": "109-111 °C @ Press: 11 Torr",
        "Density": "0.878 g/cm³ @ Temp: 16 °C"
    }
}