{
    "cas_no": "2526-62-7",
    "key_name": "Cyanoethyltrimethoxysilane",
    "cn_name": "3-(三甲氧基甲硅烷基)丙酰腈;(2-氰基乙基)三甲氧基硅烷;",
    "alternate_name": "Propanenitrile, 3-(trimethoxysilyl)-;Propionitrile, 3-(trimethoxysilyl)-;3-(Trimethoxysilyl)propanenitrile;2-Cyanoethyltrimethoxysilane;Cyanoethyltrimethoxysilane;3-(Trimethoxysilyl)propionitrile;SIC 2445.0",
    "duplicated_cas_no": "",
    "SMILES": "[Si](CCC#N)(OC)(OC)OC",
    "meta_data": {
        "InChI": "InChI=1S/C6H13NO3Si/c1-8-11(9-2,10-3)6-4-5-7/h4,6H2,1-3H3",
        "InChIKey": null,
        "Canonical SMILES": "N#CCC[Si](OC)(OC)OC",
        "Molecular Formula": "C<sub>6</sub>H<sub>13</sub>NO<sub>3</sub>Si",
        "Molecular Mass": "175.26",
        "Boiling Point": "112 °C @ Press: 15 Torr",
        "Density": "1.079 g/cm³"
    }
}