{
    "cas_no": "27074-03-9",
    "key_name": "1,2-Dihydro-6-hydroxy-1,4-dimethyl-2-oxo-3-pyridinecarbonitrile",
    "cn_name": "1,4-二甲基-3-氰基-6-羟基-2-吡啶酮;1,2-二氢-6-羟基-1,4-二甲基-2-氧代-3-吡啶腈;",
    "alternate_name": "3-Pyridinecarbonitrile, 1,2-dihydro-6-hydroxy-1,4-dimethyl-2-oxo-;Nicotinonitrile, 1,2-dihydro-6-hydroxy-1,4-dimethyl-2-oxo-;1,2-Dihydro-6-hydroxy-1,4-dimethyl-2-oxo-3-pyridinecarbonitrile;1,4-Dimethyl-3-cyano-6-hydroxypyridone;1,4-Dimethyl-3-cyano-6-hydroxy-2-pyridone;3-Cyano-6-hydroxy-1,4-dimethyl-2-pyridone;3-Cyano-1,4-dimethyl-6-hydroxy-2-pyridone;2-Hydroxy-1,4-dimethyl-5-cyano-6-pyridinone;1,4-Dimethyl-6-hydroxy-3-cyano-2-pyridone;<em>N</em>-Methyl-3-cyano-6-hydroxy-4-methyl-2-pyridone",
    "duplicated_cas_no": "",
    "SMILES": "C(#N)C=1C(=O)N(C)C(O)=CC1C",
    "meta_data": {
        "InChI": "InChI=1S/C8H8N2O2/c1-5-3-7(11)10(2)8(12)6(5)4-9/h3,11H,1-2H3",
        "InChIKey": null,
        "Canonical SMILES": "N#CC=1C(=O)N(C(O)=CC1C)C",
        "Molecular Formula": "C<sub>8</sub>H<sub>8</sub>N<sub>2</sub>O<sub>2</sub>",
        "Molecular Mass": "164.16",
        "Melting Point": "275-277 °C"
    }
}