{
    "cas_no": "571188-82-4",
    "key_name": "<em>tert</em>-Butyl 4-[6-(6-bromo-8-cyclopentyl-5-methyl-7-oxo-7,8-dihydro-pyrido[2,3-<em>d</em>]pyrimidin-2-ylamino)-pyridin-3-yl]-piperazine-1-carboxylate",
    "cn_name": null,
    "alternate_name": "1-Piperazinecarboxylic acid, 4-[6-[(6-bromo-8-cyclopentyl-7,8-dihydro-5-methyl-7-oxopyrido[2,3-<em>d</em>]pyrimidin-2-yl)amino]-3-pyridinyl]-, 1,1-dimethylethyl ester;<em>tert</em>-Butyl 4-[6-(6-bromo-8-cyclopentyl-5-methyl-7-oxo-7,8-dihydro-pyrido[2,3-<em>d</em>]pyrimidin-2-ylamino)-pyridin-3-yl]-piperazine-1-carboxylate",
    "duplicated_cas_no": "",
    "SMILES": "O=C1N(C=2C(C(C)=C1Br)=CN=C(NC3=CC=C(C=N3)N4CCN(C(OC(C)(C)C)=O)CC4)N2)C5CCCC5",
    "meta_data": {
        "InChI": "InChI=1S/C27H34BrN7O3/c1-17-20-16-30-25(32-23(20)35(24(36)22(17)28)18-7-5-6-8-18)31-21-10-9-19(15-29-21)33-11-13-34(14-12-33)26(37)38-27(2,3)4/h9-10,15-16,18H,5-8,11-14H2,1-4H3,(H,29,30,31,32)",
        "InChIKey": null,
        "Canonical SMILES": "O=C(OC(C)(C)C)N1CCN(C2=CN=C(C=C2)NC=3N=CC4=C(N3)N(C(=O)C(Br)=C4C)C5CCCC5)CC1",
        "Molecular Formula": "C<sub>27</sub>H<sub>34</sub>BrN<sub>7</sub>O<sub>3</sub>",
        "Molecular Mass": "584.51",
        "Melting Point": "&gt;250 °C"
    }
}