{
    "cas_no": "10496-75-0",
    "key_name": "2-Methoxy-5-nitrobenzonitrile",
    "cn_name": null,
    "alternate_name": "Benzonitrile, 2-methoxy-5-nitro-;<em>o</em>-Anisonitrile, 5-nitro-;2-Methoxy-5-nitrobenzonitrile;2-Cyano-4-nitroanisole;3-Cyano-4-methoxy-1-nitrobenzene",
    "duplicated_cas_no": "",
    "SMILES": "C(#N)C1=C(OC)C=CC(N(=O)=O)=C1",
    "meta_data": {
        "InChI": "InChI=1S/C8H6N2O3/c1-13-8-3-2-7(10(11)12)4-6(8)5-9/h2-4H,1H3",
        "InChIKey": null,
        "Canonical SMILES": "N#CC1=CC(=CC=C1OC)N(=O)=O",
        "Molecular Formula": "C<sub>8</sub>H<sub>6</sub>N<sub>2</sub>O<sub>3</sub>",
        "Molecular Mass": "178.14",
        "Melting Point": "126 °C"
    }
}