{
    "cas_no": "24807-56-5",
    "key_name": "5-Bromo-3-nitro-1<em>H</em>-1,2,4-triazole",
    "cn_name": "3-溴-5-硝基-1,2,4-三唑;",
    "alternate_name": "1<em>H</em>-1,2,4-Triazole, 5-bromo-3-nitro-;<em>s</em>-Triazole, 3-bromo-5-nitro-;1<em>H</em>-1,2,4-Triazole, 3-bromo-5-nitro-;5-Bromo-3-nitro-1<em>H</em>-1,2,4-triazole;3-Bromo-5-nitro-1,2,4-triazole;5-Bromo-3-nitro-1,2,4-triazole;3-Nitro-5-bromo-1,2,4-triazole;NSC 370385;3-Bromo-5-nitro-4<em>H</em>-1,2,4-triazole",
    "duplicated_cas_no": "42297-36-9",
    "SMILES": "N(=O)(=O)C=1NC(Br)=NN1",
    "meta_data": {
        "InChI": "InChI=1S/C2HBrN4O2/c3-1-4-2(6-5-1)7(8)9/h(H,4,5,6)",
        "InChIKey": null,
        "Canonical SMILES": "O=N(=O)C1=NN=C(Br)N1",
        "Molecular Formula": "C<sub>2</sub>HBrN<sub>4</sub>O<sub>2</sub>",
        "Molecular Mass": "192.96",
        "Melting Point": "153-154 °C"
    }
}