{
    "cas_no": "33089-61-1",
    "key_name": "Amitraz",
    "cn_name": "双甲眯;阿米曲;双虫脒;N,N-双(2,4-二甲基苯基亚氨基甲基)甲胺;",
    "alternate_name": "Methanimidamide, <em>N</em>′-(2,4-dimethylphenyl)-<em>N</em>-[[(2,4-dimethylphenyl)imino]methyl]-<em>N</em>-methyl-;Formamidine, <em>N</em>-methyl-<em>N</em>′-2,4-xylyl-<em>N</em>-(<em>N</em>-2,4-xylylformimidoyl)-;<em>N</em>′-(2,4-Dimethylphenyl)-<em>N</em>-[[(2,4-dimethylphenyl)imino]methyl]-<em>N</em>-methylmethanimidamide;U 36059;BTS 27419;Azaform;Amitraz;Triazid;BAAM;1,5-Di(2,4-dimethylphenyl)-3-methyl-1,3,5-triazapenta-1,4-diene;Taktic;Edrizar;Mitac;Fumilat A;Mitaban;BAAM (pesticide);TCL;Varamit;Ovasyn;Bovitraz;Ektodex;Acarac;ENT 27967;NSC 324552;Parsec;Amigard;<em>N</em>′-(2,4-Dimethylphenyl)-<em>N</em>-[(2,4-dimethylphenyl)imino]methyl-<em>N</em>-methylimidoformamide;Apivar ND;ApiVar;Preventic;Triatox",
    "duplicated_cas_no": "51847-94-0",
    "SMILES": "N(=CN(C=NC1=C(C)C=C(C)C=C1)C)C2=C(C)C=C(C)C=C2",
    "meta_data": {
        "InChI": "InChI=1S/C19H23N3/c1-14-6-8-18(16(3)10-14)20-12-22(5)13-21-19-9-7-15(2)11-17(19)4/h6-13H,1-5H3",
        "InChIKey": null,
        "Canonical SMILES": "N(=CN(C=NC1=CC=C(C=C1C)C)C)C2=CC=C(C=C2C)C",
        "Molecular Formula": "C<sub>19</sub>H<sub>23</sub>N<sub>3</sub>",
        "Molecular Mass": "293.41",
        "Melting Point": "86-87 °C",
        "Density": "1.1 g/cm³"
    }
}