{
    "cas_no": "3259-03-8",
    "key_name": "1-(2-Bromoethoxy)-2-ethoxybenzene",
    "cn_name": "2-(2-乙氧基苯氧基)溴乙烷;",
    "alternate_name": "Benzene, 1-(2-bromoethoxy)-2-ethoxy-;1-(2-Bromoethoxy)-2-ethoxybenzene;2-(<em>o</em>-Ethoxyphenoxy)ethyl bromide",
    "duplicated_cas_no": "",
    "SMILES": "O(CCBr)C1=C(OCC)C=CC=C1",
    "meta_data": {
        "InChI": "InChI=1S/C10H13BrO2/c1-2-12-9-5-3-4-6-10(9)13-8-7-11/h3-6H,2,7-8H2,1H3",
        "InChIKey": null,
        "Canonical SMILES": "BrCCOC=1C=CC=CC1OCC",
        "Molecular Formula": "C<sub>10</sub>H<sub>13</sub>BrO<sub>2</sub>",
        "Molecular Mass": "245.11",
        "Boiling Point": "142-145 °C @ Press: 11 Torr"
    }
}