{
    "cas_no": "32431-84-8",
    "key_name": "3-Fluoro-2-thiophenecarboxylic acid",
    "cn_name": null,
    "alternate_name": "2-Thiophenecarboxylic acid, 3-fluoro-;3-Fluoro-2-thiophenecarboxylic acid",
    "duplicated_cas_no": "",
    "SMILES": "C(O)(=O)C1=C(F)C=CS1",
    "meta_data": {
        "InChI": "InChI=1S/C5H3FO2S/c6-3-1-2-9-4(3)5(7)8/h1-2H,(H,7,8)",
        "InChIKey": null,
        "Canonical SMILES": "O=C(O)C=1SC=CC1F",
        "Molecular Formula": "C<sub>5</sub>H<sub>3</sub>FO<sub>2</sub>S",
        "Molecular Mass": "146.14",
        "Melting Point": "157-158 °C"
    }
}