{
    "cas_no": "62780-89-6",
    "key_name": "1-(3-Chloropropyl)-1,3-dihydro-2<em>H</em>-benzimidazol-2-one",
    "cn_name": null,
    "alternate_name": "2<em>H</em>-Benzimidazol-2-one, 1-(3-chloropropyl)-1,3-dihydro-;1-(3-Chloropropyl)-1,3-dihydro-2<em>H</em>-benzimidazol-2-one;1-(3-Chloropropyl)-1,3-dihydrobenzimidazol-2-one;1-(3-Chloropropyl)-2,3-dihydro-1<em>H</em>-1,3-benzodiazol-2-one",
    "duplicated_cas_no": "",
    "SMILES": "C(CCCl)N1C=2C(NC1=O)=CC=CC2",
    "meta_data": {
        "InChI": "InChI=1S/C10H11ClN2O/c11-6-3-7-13-9-5-2-1-4-8(9)12-10(13)14/h1-2,4-5H,3,6-7H2,(H,12,14)",
        "InChIKey": null,
        "Canonical SMILES": "O=C1NC=2C=CC=CC2N1CCCCl",
        "Molecular Formula": "C<sub>10</sub>H<sub>11</sub>ClN<sub>2</sub>O",
        "Molecular Mass": "210.66",
        "Melting Point": "118-120 °C"
    }
}