{
    "cas_no": "816-94-4",
    "key_name": "1,2-Distearoyl-sn-<em>glycero</em>-3-phosphocholine",
    "cn_name": null,
    "alternate_name": "3,5,9-Trioxa-4-phosphaheptacosan-1-aminium, 4-hydroxy-<em>N</em>,<em>N</em>,<em>N</em>-trimethyl-10-oxo-7-[(1-oxooctadecyl)oxy]-, inner salt, 4-oxide, (7<em>R</em>)-;Choline, hydroxide, dihydrogen phosphate, inner salt, ester with 1,2-distearin, <span class=\"text-smallcaps\">L</span>-;3,5,9-Trioxa-4-phosphaheptacosan-1-aminium, 4-hydroxy-<em>N</em>,<em>N</em>,<em>N</em>-trimethyl-10-oxo-7-[(1-oxooctadecyl)oxy]-, hydroxide, inner salt, 4-oxide, (<em>R</em>)-;Choline phosphate, 3-ester with <span class=\"text-smallcaps\">L</span>-1,2-distearin;Distearoyl-<span class=\"text-smallcaps\">L</span>-α-lecithin;1,2-Distearoyl-<em>sn</em>-<em>glycero</em>-3-phosphorylcholine;Dioctadecanoyl-<span class=\"text-smallcaps\">L</span>-α-glycerophosphorylcholine;<span class=\"text-smallcaps\">L</span>-α-Distearoylphosphatidylcholine;1,2-<span class=\"text-smallcaps\">L</span>-α-Distearoylphosphatidylcholine;β,γ-Distearoyl <span class=\"text-smallcaps\">L</span>-α-phosphatidylcholine;1,2-Distearoyl-<em>sn</em>-<em>glycero</em>-3-phosphocholine;1,2-Distearoyl-<span class=\"text-smallcaps\">L</span>-α-glycerophosphocholine;1,2-Distearoyl-3-<em>sn</em>-phosphatidylcholine;<span class=\"text-smallcaps\">L</span>-β,γ-Distearoyl-α-lecithin;Distearoyl-<span class=\"text-smallcaps\">L</span>-α-phosphatidylcholine;<span class=\"text-smallcaps\">L</span>-Distearoyllecithin;Distearoyl-<span class=\"text-smallcaps\">L</span>-α-glycerophosphocholine;<span class=\"text-smallcaps\">L</span>-β,γ-Distearoyl-α-phosphatidylcholine;Distearoyl <em>sn</em>-3-phosphatidylcholine;1,2-Distearoyl-<em>sn</em>-3-phosphocholine;1,2-Distearoyl-<em>sn</em>-glycerophosphocholine;DSPC;1,2-Distearoyl-<em>sn</em>-glycero-3-phosphocholine;1,2-Bis(stearoyl)-<em>sn</em>-glycero-3-phosphocholine;3,5,9-Trioxa-4-phosphaheptacosan-1-aminium, 4-hydroxy-<em>N</em>,<em>N</em>,<em>N</em>-trimethyl-10-oxo-7-[(1-oxooctadecyl)oxy]-, inner salt, 4-oxide, (<em>R</em>)-;Distearoylphosphatidylcholine;1,2-Dioctadecanoyl-<em>sn</em>-<em>glycero</em>-3-phosphocholine;Distearoyl-<em>sn</em>-<em>glycero</em>-3-phosphocholine;Coatsome MC 8080;1,2-Distearoyl-<em>sn</em>-<em>glycero</em>-3-phosphatidylcholine;1,2-Dioctadecanoyl-sn-<em>glycero</em>-3-phosphocholine;1,2-Distearoyl-sn-<em>glycero</em>-3-phosphocholine;<span class=\"text-smallcaps\">L</span>-DSPC;[(2R)-2,3-Di(octadecanoyloxy)propyl] 2-(trimethylazaniumyl)ethyl phosphate;1,2-Distearoyl-sn-<em>glycero</em>-3-phosphoinositol, ammonium salt;1,2-Distearoyl-sn-glycero-3-phosphatidylcholine",
    "duplicated_cas_no": "18603-43-5;81534-16-9;82617-24-1",
    "SMILES": "[C@H](OC(CCCCCCCCCCCCCCCCC)=O)(COP(OCC[N+](C)(C)C)(=O)[O-])COC(CCCCCCCCCCCCCCCCC)=O",
    "meta_data": {
        "InChI": "InChI=1S/C44H88NO8P/c1-6-8-10-12-14-16-18-20-22-24-26-28-30-32-34-36-43(46)50-40-42(41-52-54(48,49)51-39-38-45(3,4)5)53-44(47)37-35-33-31-29-27-25-23-21-19-17-15-13-11-9-7-2/h42H,6-41H2,1-5H3/t42-/m1/s1",
        "InChIKey": null,
        "Canonical SMILES": "O=C(OCC(OC(=O)CCCCCCCCCCCCCCCCC)COP(=O)([O-])OCC[N+](C)(C)C)CCCCCCCCCCCCCCCCC",
        "Molecular Formula": "C<sub>44</sub>H<sub>88</sub>NO<sub>8</sub>P",
        "Molecular Mass": "",
        "Melting Point": "230.5-231.5 °C",
        "Density": "1.03 g/cm³ @ Temp: 55 °C"
    }
}