{
    "cas_no": "6314-43-8",
    "key_name": "Benzo[<em>b</em>]thiophene-2-methanamine",
    "cn_name": null,
    "alternate_name": "Benzo[<em>b</em>]thiophene-2-methanamine;[(Benzo[<em>b</em>]thiophen-2-yl)methyl]amine;((Benzothien-2-yl)methyl)amine;NSC 40287;2-(Aminomethyl)benzothiophene;1-(1-Benzothien-2-yl)methanamine;1-Benzothiophen-2-ylmethanamine;(1-Benzothiophen-2-yl)methanamine;1-Benzothiophen-2-ylmethylamine",
    "duplicated_cas_no": "",
    "SMILES": "C(N)C1=CC=2C(S1)=CC=CC2",
    "meta_data": {
        "InChI": "InChI=1S/C9H9NS/c10-6-8-5-7-3-1-2-4-9(7)11-8/h1-5H,6,10H2",
        "InChIKey": null,
        "Canonical SMILES": "S1C=2C=CC=CC2C=C1CN",
        "Molecular Formula": "C<sub>9</sub>H<sub>9</sub>NS",
        "Molecular Mass": "163.24",
        "Melting Point": "58-59 °C"
    }
}