{
    "cas_no": "24195-07-1",
    "key_name": "2-Methyl 2,3-pyridinedicarboxylate",
    "cn_name": null,
    "alternate_name": "2,3-Pyridinedicarboxylic acid, 2-methyl ester;2-Methyl 2,3-pyridinedicarboxylate;2-(Methoxycarbonyl)pyridine-3-carboxylic acid;Methyl 3-carboxypyridine-2-carboxylate;Quinolinic acid α-methyl ester;2-Carbomethoxynicotinic acid;Quinolinic acid 2-methyl ester;NSC 154834;2-(Methoxycarbonyl)nicotinic acid",
    "duplicated_cas_no": "",
    "SMILES": "C(OC)(=O)C1=C(C(O)=O)C=CC=N1",
    "meta_data": {
        "InChI": "InChI=1S/C8H7NO4/c1-13-8(12)6-5(7(10)11)3-2-4-9-6/h2-4H,1H3,(H,10,11)",
        "InChIKey": null,
        "Canonical SMILES": "O=C(O)C1=CC=CN=C1C(=O)OC",
        "Molecular Formula": "C<sub>8</sub>H<sub>7</sub>NO<sub>4</sub>",
        "Molecular Mass": "181.15",
        "Melting Point": "54-55 °C"
    }
}