{
    "cas_no": "41302-05-0",
    "key_name": "2-(4-Chlorobutoxy)tetrahydro-2<em>H</em>-pyran",
    "cn_name": "2-(4-氯丁氧基)四氢-2H-吡喃;",
    "alternate_name": "2<em>H</em>-Pyran, 2-(4-chlorobutoxy)tetrahydro-;Pyran, 2-(4-chlorobutoxy)tetrahydro-;2-(4-Chlorobutoxy)tetrahydro-2<em>H</em>-pyran;4-Chloro-1-(tetrahydropyranyloxy)butane;2-(4-Chlorobutoxy)tetrahydropyran;1-Chloro-4-(tetrahydropyranyloxy)butane;4-Chlorobutyl tetrahydropyranyl ether;4-Chlorobutanol tetrahydropyranyl ether;4-(Tetrahydro-2-pyranyloxy)-1-chlorobutane;4-Chloro-1-butanol tetrahydropyranyl ether;2-(4-Chlorobutyloxy)tetrahydropyran;2-(4-Chlorobutoxy)oxane",
    "duplicated_cas_no": "114862-04-3;122800-83-3",
    "SMILES": "O(CCCCCl)C1CCCCO1",
    "meta_data": {
        "InChI": "InChI=1S/C9H17ClO2/c10-6-2-4-8-12-9-5-1-3-7-11-9/h9H,1-8H2",
        "InChIKey": null,
        "Canonical SMILES": "ClCCCCOC1OCCCC1",
        "Molecular Formula": "C<sub>9</sub>H<sub>17</sub>ClO<sub>2</sub>",
        "Molecular Mass": "192.68",
        "Boiling Point": "105 °C @ Press: 10 Torr",
        "Density": "1.0648 g/cm³ @ Temp: 24 °C"
    }
}