{
    "cas_no": "26153-38-8",
    "key_name": "3,5-Dihydroxybenzaldehyde",
    "cn_name": null,
    "alternate_name": "Benzaldehyde, 3,5-dihydroxy-;α-Resorcylaldehyde;3,5-Dihydroxybenzaldehyde",
    "duplicated_cas_no": "",
    "SMILES": "C(=O)C1=CC(O)=CC(O)=C1",
    "meta_data": {
        "InChI": "InChI=1S/C7H6O3/c8-4-5-1-6(9)3-7(10)2-5/h1-4,9-10H",
        "InChIKey": null,
        "Canonical SMILES": "O=CC=1C=C(O)C=C(O)C1",
        "Molecular Formula": "C<sub>7</sub>H<sub>6</sub>O<sub>3</sub>",
        "Molecular Mass": "138.12",
        "Melting Point": "145-146 °C"
    }
}