{
    "cas_no": "433-19-2",
    "key_name": "1,4-Bis(trifluoromethyl)benzene",
    "cn_name": "对二三氟甲苯;",
    "alternate_name": "Benzene, 1,4-bis(trifluoromethyl)-;<em>p</em>-Xylene, α,α,α,α′,α′,α′-hexafluoro-;1,4-Bis(trifluoromethyl)benzene;α,α,α,α′,α′,α′-Hexafluoro-<em>p</em>-xylene;<em>p</em>-Bis(trifluoromethyl)benzene;<em>p</em>-Trifluoromethylbenzotrifluoride;1,4-Di(trifluoromethyl)benzene;NSC 61992;<em>p</em>-Xylene hexafluoride;PTF-TFM",
    "duplicated_cas_no": "",
    "SMILES": "C(F)(F)(F)C1=CC=C(C(F)(F)F)C=C1",
    "meta_data": {
        "InChI": "InChI=1S/C8H4F6/c9-7(10,11)5-1-2-6(4-3-5)8(12,13)14/h1-4H",
        "InChIKey": null,
        "Canonical SMILES": "FC(F)(F)C1=CC=C(C=C1)C(F)(F)F",
        "Molecular Formula": "C<sub>8</sub>H<sub>4</sub>F<sub>6</sub>",
        "Molecular Mass": "214.11",
        "Boiling Point": "116 °C"
    }
}