{
    "cas_no": "7529-22-8",
    "key_name": "N-methylmorpholine N-oxide",
    "cn_name": "N-甲基-N-氧化吗啉;N-甲基吗啉氧化物;",
    "alternate_name": "Morpholine, 4-methyl-, 4-oxide;<em>N</em>-Methylmorpholine oxide;<em>N</em>-Methylmorpholine <em>N</em>-oxide;4-Methylmorpholine <em>N</em>-oxide;4-Methylmorpholine oxide;4-Methylmorpholine 4-oxide;NMO;NMMO;N-methylmorpholine N-oxide;NSC 73198;NSC 82153;ANG 05911",
    "duplicated_cas_no": "1644045-05-5",
    "SMILES": "CN1(=O)CCOCC1",
    "meta_data": {
        "InChI": "InChI=1S/C5H11NO2/c1-6(7)2-4-8-5-3-6/h2-5H2,1H3",
        "InChIKey": null,
        "Canonical SMILES": "O=N1(C)CCOCC1",
        "Molecular Formula": "C<sub>5</sub>H<sub>11</sub>NO<sub>2</sub>",
        "Molecular Mass": "117.15",
        "Melting Point": "74-76 °C"
    }
}