{
    "cas_no": "5089-70-3",
    "key_name": "(3-Chloropropyl)triethoxysilane",
    "cn_name": "3-氯丙基三乙氧基硅烷;",
    "alternate_name": "Silane, (3-chloropropyl)triethoxy-;(3-Chloropropyl)triethoxysilane;Triethoxy(γ-chloropropyl)silane;(γ-Chloropropyl)triethoxysilane;Si 230;3-(Triethoxysilyl)propyl chloride;Si 223;3-(Triethoxysilyl)-1-chloropropane;NSC 252156;KH 230;Dynasylan CPTEO;DB 230;3-Chloropropropyltriethoxysilane;Z 6376;KBE 703",
    "duplicated_cas_no": "1604842-30-9;2098694-49-4",
    "SMILES": "[Si](CCCCl)(OCC)(OCC)OCC",
    "meta_data": {
        "InChI": "InChI=1S/C9H21ClO3Si/c1-4-11-14(12-5-2,13-6-3)9-7-8-10/h4-9H2,1-3H3",
        "InChIKey": null,
        "Canonical SMILES": "ClCCC[Si](OCC)(OCC)OCC",
        "Molecular Formula": "C<sub>9</sub>H<sub>21</sub>ClO<sub>3</sub>Si",
        "Molecular Mass": "240.80",
        "Boiling Point": "100-102 °C @ Press: 10 Torr",
        "Density": "1.009 g/cm³"
    }
}