{
    "cas_no": "34036-80-1",
    "key_name": "Phenyltris(butanoxime)silane",
    "cn_name": "苯基三丁酮肟基硅烷;苯基三丁酮肟基硅烷;",
    "alternate_name": "2-Butanone, 2,2′,2′′-[<em>O</em>,<em>O</em>′,<em>O</em>′′-(phenylsilylidyne)trioxime];2-Butanone, <em>O</em>,<em>O</em>′,<em>O</em>′′-(phenylsilylidyne)trioxime;Phenyltris(1-methylpropylideneaminooxy)silane;Phenyltri(methyl ethyl ketoxime)silane;Phenyltris(butanoxime)silane;Phenyltris(methyl ethyl ketoxime)silane;Phenyl tris(methyl ethyl ketoximino)silane;D 36",
    "duplicated_cas_no": "",
    "SMILES": "[Si](ON=C(CC)C)(ON=C(CC)C)(ON=C(CC)C)C1=CC=CC=C1",
    "meta_data": {
        "InChI": "InChI=1S/C18H29N3O3Si/c1-7-15(4)19-22-25(23-20-16(5)8-2,24-21-17(6)9-3)18-13-11-10-12-14-18/h10-14H,7-9H2,1-6H3",
        "InChIKey": null,
        "Canonical SMILES": "N(O[Si](ON=C(C)CC)(ON=C(C)CC)C=1C=CC=CC1)=C(C)CC",
        "Molecular Formula": "C<sub>18</sub>H<sub>29</sub>N<sub>3</sub>O<sub>3</sub>Si",
        "Molecular Mass": "363.53",
        "Boiling Point": "60-65 °C @ Press: 3 Torr",
        "Density": "0.995 g/cm³"
    }
}