{
    "cas_no": "1190-73-4",
    "key_name": "Acetylcysteamine",
    "cn_name": "N-乙酰基半胱胺;",
    "alternate_name": "Acetamide, <em>N</em>-(2-mercaptoethyl)-;<em>N</em>-(2-Mercaptoethyl)acetamide;<em>N</em>-Acetylcysteamine;Acetylcysteamine;2-Acetamidoethanethiol;<em>N</em>-Acetylmercaptoethylamine;<em>N</em>-Acetyl-β-mercaptoethylamine;<em>N</em>-(β-Mercaptoethyl)acetamide;NSC 38835;<em>N</em>-Acetyl-2-mercaptoethylamine;<em>N</em>-(2-Sulfanylethyl)acetamide",
    "duplicated_cas_no": "",
    "SMILES": "N(C(C)=O)CCS",
    "meta_data": {
        "InChI": "InChI=1S/C4H9NOS/c1-4(6)5-2-3-7/h7H,2-3H2,1H3,(H,5,6)",
        "InChIKey": null,
        "Canonical SMILES": "O=C(NCCS)C",
        "Molecular Formula": "C<sub>4</sub>H<sub>9</sub>NOS",
        "Molecular Mass": "119.19",
        "Boiling Point": "138-140 °C @ Press: 7 Torr",
        "Melting Point": "~86 °C (approx)"
    }
}