{
    "cas_no": "7782-39-0",
    "key_name": "Deuterium",
    "cn_name": "氘;重氢;",
    "alternate_name": "Deuterium;Diplogen;Hydrogen-2;Deuterium molecule;Hydrogen, isotope of mass 2;Hydrogen-<em>d</em><sub>2</sub>;Deuterium (D<sub>2</sub>);Dideuterium;Deuterium mol.;<sup>2</sup>H;MeSH ID: D003903",
    "duplicated_cas_no": "",
    "SMILES": "[2H][2H]",
    "meta_data": {
        "InChI": "InChI=1S/H2/h1H/i1+1D",
        "InChIKey": null,
        "Canonical SMILES": "[H][H]",
        "Molecular Formula": "D<sub>2</sub>",
        "Molecular Mass": "",
        "Boiling Point": "-249.49 °C",
        "Density": "0.2059 g/cm³ @ Temp: -269.0 °C"
    }
}