{
    "cas_no": "497-04-1",
    "key_name": "2-Chloro-1,3-propanediol",
    "cn_name": null,
    "alternate_name": "1,3-Propanediol, 2-chloro-;2-Chloro-1,3-propanediol;Glycerol β-chlorohydrin;2-Chloro-1,3-dihydroxypropane",
    "duplicated_cas_no": "",
    "SMILES": "C(CO)(CO)Cl",
    "meta_data": {
        "InChI": "InChI=1S/C3H7ClO2/c4-3(1-5)2-6/h3,5-6H,1-2H2",
        "InChIKey": null,
        "Canonical SMILES": "ClC(CO)CO",
        "Molecular Formula": "C<sub>3</sub>H<sub>7</sub>ClO<sub>2</sub>",
        "Molecular Mass": "110.54",
        "Boiling Point": "122.5-123.5 °C @ Press: 13.5 Torr",
        "Density": "1.3241 g/cm³ @ Temp: 20 °C"
    }
}