{
    "cas_no": "83734-43-4",
    "key_name": "1,2-Dihydro-2-oxo-5-quinolinecarboxylic acid",
    "cn_name": null,
    "alternate_name": "5-Quinolinecarboxylic acid, 1,2-dihydro-2-oxo-;1,2-Dihydro-2-oxo-5-quinolinecarboxylic acid;5-Carboxycarbostyril;1,2-Dihydro-2-oxoquinoline-5-carboxylic acid;2-Hydroxyquinoline-5-carboxylic acid;2-Oxo-1<em>H</em>-quinoline-5-carboxylic acid;2-Oxo-1,2-dihydroquinoline-5-carboxylic acid",
    "duplicated_cas_no": "",
    "SMILES": "C(O)(=O)C1=C2C(NC(=O)C=C2)=CC=C1",
    "meta_data": {
        "InChI": "InChI=1S/C10H7NO3/c12-9-5-4-6-7(10(13)14)2-1-3-8(6)11-9/h1-5H,(H,11,12)(H,13,14)",
        "InChIKey": null,
        "Canonical SMILES": "O=C(O)C=1C=CC=C2NC(=O)C=CC21",
        "Molecular Formula": "C<sub>10</sub>H<sub>7</sub>NO<sub>3</sub>",
        "Molecular Mass": "189.17",
        "Melting Point": "214-215 °C (decomp)"
    }
}