{
    "cas_no": "3755-83-7",
    "key_name": "2-Methyl-4,5-diphenylthiazole",
    "cn_name": "2-甲基-4,5-二苯噻唑;",
    "alternate_name": "Thiazole, 2-methyl-4,5-diphenyl-;2-Methyl-4,5-diphenylthiazole;4,5-Diphenyl-2-methylthiazole;NSC 59791;2-Methyl-4,5-diphenyl-1,3-thiazole",
    "duplicated_cas_no": "",
    "SMILES": "CC1=NC(=C(S1)C2=CC=CC=C2)C3=CC=CC=C3",
    "meta_data": {
        "InChI": "InChI=1S/C16H13NS/c1-12-17-15(13-8-4-2-5-9-13)16(18-12)14-10-6-3-7-11-14/h2-11H,1H3",
        "InChIKey": null,
        "Canonical SMILES": "N1=C(SC(C=2C=CC=CC2)=C1C=3C=CC=CC3)C",
        "Molecular Formula": "C<sub>16</sub>H<sub>13</sub>NS",
        "Molecular Mass": "251.35",
        "Boiling Point": "132 °C @ Press: 0.15 Torr",
        "Melting Point": "51-52 °C"
    }
}