{
    "cas_no": "4182-80-3",
    "key_name": "<em>N</em><sup>1</sup>,<em>N</em><sup>1</sup>,<em>N</em><sup>4</sup>,<em>N</em><sup>4</sup>-Tetrakis[4-(dibutylamino)phenyl]-1,4-benzenediamine",
    "cn_name": "N,N,N\",N\"-四(4-二丁基氨基苯基)-1,4-苯二胺;",
    "alternate_name": "1,4-Benzenediamine, <em>N</em><sup>1</sup>,<em>N</em><sup>1</sup>,<em>N</em><sup>4</sup>,<em>N</em><sup>4</sup>-tetrakis[4-(dibutylamino)phenyl]-;<em>p</em>-Phenylenediamine, <em>N</em>,<em>N</em>,<em>N</em>′,<em>N</em>′-tetrakis[<em>p</em>-(dibutylamino)phenyl]-;1,4-Benzenediamine, <em>N</em>,<em>N</em>,<em>N</em>′,<em>N</em>′-tetrakis[4-(dibutylamino)phenyl]-;<em>N</em><sup>1</sup>,<em>N</em><sup>1</sup>,<em>N</em><sup>4</sup>,<em>N</em><sup>4</sup>-Tetrakis[4-(dibutylamino)phenyl]-1,4-benzenediamine;NIR-AM 1;<em>N</em>,<em>N</em>,<em>N</em>′,<em>N</em>′-Tetrakis[<em>p</em>-(dibutylamino)phenyl]-<em>p</em>-phenylenediamine;<em>N</em>,<em>N</em>,<em>N</em>′,<em>N</em>′-Tetrakis[<em>p</em>-(dibutylamino)phenyl]-1,4-phenylenediamine;<em>N</em>,<em>N</em>,<em>N</em>′,<em>N</em>′-Tetrakis(4-dibutylaminophenyl)-<em>p</em>-phenylenediamine;1-<em>N</em>,1-<em>N</em>-Dibutyl-4-<em>N</em>-[4-[4-(dibutylamino)-<em>N</em>-[4-(dibutylamino)phenyl]anilino]phenyl]-4-<em>N</em>-[4-(dibutylamino)phenyl]benzene-1,4-diamine;1,4-Benzenediamine N1,N1,N4,N4-tetrakis[4-(dibutylamino)phenyl]-;<em>N</em>,<em>N</em>,<em>N</em>′,<em>N</em>′-Tetrakis[4-(dibutylamino)phenyl]-1,4-phenylenediamine",
    "duplicated_cas_no": "171903-72-3",
    "SMILES": "N(C1=CC=C(N(C2=CC=C(N(CCCC)CCCC)C=C2)C3=CC=C(N(CCCC)CCCC)C=C3)C=C1)(C4=CC=C(N(CCCC)CCCC)C=C4)C5=CC=C(N(CCCC)CCCC)C=C5",
    "meta_data": {
        "InChI": "InChI=1S/C62H92N6/c1-9-17-45-63(46-18-10-2)53-25-33-57(34-26-53)67(58-35-27-54(28-36-58)64(47-19-11-3)48-20-12-4)61-41-43-62(44-42-61)68(59-37-29-55(30-38-59)65(49-21-13-5)50-22-14-6)60-39-31-56(32-40-60)66(51-23-15-7)52-24-16-8/h25-44H,9-24,45-52H2,1-8H3",
        "InChIKey": null,
        "Canonical SMILES": "C=1C=C(C=CC1N(C2=CC=C(C=C2)N(CCCC)CCCC)C3=CC=C(C=C3)N(CCCC)CCCC)N(C4=CC=C(C=C4)N(CCCC)CCCC)C5=CC=C(C=C5)N(CCCC)CCCC",
        "Molecular Formula": "C<sub>62</sub>H<sub>92</sub>N<sub>6</sub>",
        "Molecular Mass": "921.43",
        "Melting Point": "92-94 °C"
    }
}