{
    "cas_no": "405-79-8",
    "key_name": "4-Fluorophenoxyacetic acid",
    "cn_name": "4-氟苯氧乙酸;对氟苯氧乙酸;",
    "alternate_name": "Acetic acid, 2-(4-fluorophenoxy)-;Acetic acid, (<em>p</em>-fluorophenoxy)-;Acetic acid, (4-fluorophenoxy)-;2-(4-Fluorophenoxy)acetic acid;4-Fluorophenoxyacetic acid;<em>p</em>-Fluorophenoxyacetic acid;NSC 49589;2-(4-Fluorophenoxy)ethanoic acid",
    "duplicated_cas_no": "",
    "SMILES": "O(CC(O)=O)C1=CC=C(F)C=C1",
    "meta_data": {
        "InChI": "InChI=1S/C8H7FO3/c9-6-1-3-7(4-2-6)12-5-8(10)11/h1-4H,5H2,(H,10,11)",
        "InChIKey": null,
        "Canonical SMILES": "O=C(O)COC1=CC=C(F)C=C1",
        "Molecular Formula": "C<sub>8</sub>H<sub>7</sub>FO<sub>3</sub>",
        "Molecular Mass": "170.14",
        "Melting Point": "104.25 °C"
    }
}