{
    "cas_no": "106-00-3",
    "key_name": "1,6-Bis(2-methoxyethyl) hexanedioate",
    "cn_name": null,
    "alternate_name": "Hexanedioic acid, 1,6-bis(2-methoxyethyl) ester;Adipic acid, bis(2-methoxyethyl) ester;Hexanedioic acid, bis(2-methoxyethyl) ester;Ethanol, 2-methoxy-, adipate (2:1);1,6-Bis(2-methoxyethyl) hexanedioate;Bis(2-methoxyethyl) adipate;Di(2-methoxyethyl) adipate;NSC 7329",
    "duplicated_cas_no": "",
    "SMILES": "C(CCCCC(OCCOC)=O)(OCCOC)=O",
    "meta_data": {
        "InChI": "InChI=1S/C12H22O6/c1-15-7-9-17-11(13)5-3-4-6-12(14)18-10-8-16-2/h3-10H2,1-2H3",
        "InChIKey": null,
        "Canonical SMILES": "O=C(OCCOC)CCCCC(=O)OCCOC",
        "Molecular Formula": "C<sub>12</sub>H<sub>22</sub>O<sub>6</sub>",
        "Molecular Mass": "262.30",
        "Boiling Point": "182-185 °C @ Press: 9 Torr",
        "Density": "1.045 g/cm³ @ Temp: 25 °C"
    }
}