{
    "cas_no": "5683-41-0",
    "key_name": "2,5,6-Trimethylbenzothiazole",
    "cn_name": "2,5,6-三甲基苯并噻唑;",
    "alternate_name": "Benzothiazole, 2,5,6-trimethyl-;2,5,6-Trimethylbenzothiazole;2,5,6-Trimethyl-1,3-benzothiazole;2,5,6-Trimethylbenzo[<em>d</em>]thiazole",
    "duplicated_cas_no": "",
    "SMILES": "CC=1C=C2C(=CC1C)SC(C)=N2",
    "meta_data": {
        "InChI": "InChI=1S/C10H11NS/c1-6-4-9-10(5-7(6)2)12-8(3)11-9/h4-5H,1-3H3",
        "InChIKey": null,
        "Canonical SMILES": "N=1C=2C=C(C(=CC2SC1C)C)C",
        "Molecular Formula": "C<sub>10</sub>H<sub>11</sub>NS",
        "Molecular Mass": "177.27",
        "Boiling Point": "130-143 °C @ Press: 7 Torr",
        "Melting Point": "85-86 °C"
    }
}