{
    "cas_no": "534-13-4",
    "key_name": "<em>N</em>,<em>N</em>′-Dimethylthiourea",
    "cn_name": "N,N-二甲基硫脲;",
    "alternate_name": "Thiourea, <em>N</em>,<em>N</em>′-dimethyl-;Urea, 1,3-dimethyl-2-thio-;<em>N</em>,<em>N</em>′-Dimethylthiourea;Dimethylthiocarbamide;<em>sym</em>-Dimethylthiourea;1,3-Dimethylthiourea;1,3-Dimethyl-2-thiourea;1,3-Dimethylisothiourea;NSC 8727",
    "duplicated_cas_no": "88001-91-6",
    "SMILES": "C(NC)(NC)=S",
    "meta_data": {
        "InChI": "InChI=1S/C3H8N2S/c1-4-3(6)5-2/h1-2H3,(H2,4,5,6)",
        "InChIKey": null,
        "Canonical SMILES": "S=C(NC)NC",
        "Molecular Formula": "C<sub>3</sub>H<sub>8</sub>N<sub>2</sub>S",
        "Molecular Mass": "104.17",
        "Boiling Point": "155 °C @ Press: 0.9 Torr",
        "Melting Point": "62 °C"
    }
}