{
    "cas_no": "565-68-4",
    "key_name": "4-Methyl-1-pentyn-3-ol",
    "cn_name": "4-甲基-1-戊炔-3-醇;4-甲基-3-羟基-1-戊炔;",
    "alternate_name": "1-Pentyn-3-ol, 4-methyl-;4-Methyl-1-pentyn-3-ol;1-Isopropylpropargyl alcohol;3-Hydroxy-4-methyl-1-pentyne;NSC 96446;2-Methyl-4-pentyn-3-ol;4-Methylpentyn-3-ol",
    "duplicated_cas_no": "73262-61-0",
    "SMILES": "C(C(C)C)(C#C)O",
    "meta_data": {
        "InChI": "InChI=1S/C6H10O/c1-4-6(7)5(2)3/h1,5-7H,2-3H3",
        "InChIKey": null,
        "Canonical SMILES": "C#CC(O)C(C)C",
        "Molecular Formula": "C<sub>6</sub>H<sub>10</sub>O",
        "Molecular Mass": "98.14",
        "Boiling Point": "131-133 °C",
        "Density": "0.8779 g/cm³ @ Temp: 20 °C"
    }
}