{
    "cas_no": "634-90-2",
    "key_name": "1,2,3,5-Tetrachlorobenzene",
    "cn_name": "1,2,3,5-四氯苯;",
    "alternate_name": "Benzene, 1,2,3,5-tetrachloro-;1,2,3,5-Tetrachlorobenzene;1,2,4,6-Tetrachlorobenzene;NSC 78934",
    "duplicated_cas_no": "",
    "SMILES": "ClC1=C(Cl)C=C(Cl)C=C1Cl",
    "meta_data": {
        "InChI": "InChI=1S/C6H2Cl4/c7-3-1-4(8)6(10)5(9)2-3/h1-2H",
        "InChIKey": null,
        "Canonical SMILES": "ClC=1C=C(Cl)C(Cl)=C(Cl)C1",
        "Molecular Formula": "C<sub>6</sub>H<sub>2</sub>Cl<sub>4</sub>",
        "Molecular Mass": "215.89",
        "Boiling Point": "246 °C",
        "Melting Point": "51 °C"
    }
}