{
    "cas_no": "18780-67-1",
    "key_name": "4-[(Ethoxycarbonyl)oxy]-3,5-dimethoxybenzoic acid",
    "cn_name": "4-乙氧基羰氧基-3,5-二甲氧基苯甲酸;",
    "alternate_name": "Benzoic acid, 4-[(ethoxycarbonyl)oxy]-3,5-dimethoxy-;Carbonic acid, ethyl ester, ester with 4-hydroxy-3,5-dimethoxybenzoic acid;Benzoic acid, 4-hydroxy-3,5-dimethoxy-, ethyl carbonate;4-[(Ethoxycarbonyl)oxy]-3,5-dimethoxybenzoic acid",
    "duplicated_cas_no": "",
    "SMILES": "O(C(OCC)=O)C1=C(OC)C=C(C(O)=O)C=C1OC",
    "meta_data": {
        "InChI": "InChI=1S/C12H14O7/c1-4-18-12(15)19-10-8(16-2)5-7(11(13)14)6-9(10)17-3/h5-6H,4H2,1-3H3,(H,13,14)",
        "InChIKey": null,
        "Canonical SMILES": "O=C(OC1=C(OC)C=C(C=C1OC)C(=O)O)OCC",
        "Molecular Formula": "C<sub>12</sub>H<sub>14</sub>O<sub>7</sub>",
        "Molecular Mass": "270.24",
        "Melting Point": "181-183 °C"
    }
}