{
    "cas_no": "1125-40-2",
    "key_name": "3-Methyl-1<em>H</em>-indol-5-ol",
    "cn_name": null,
    "alternate_name": "1<em>H</em>-Indol-5-ol, 3-methyl-;Indol-5-ol, 3-methyl-;3-Methyl-1<em>H</em>-indol-5-ol;Lumogen no. 1;5-Hydroxyskatole;5-Hydroxy-3-methylindole;3-Methyl-5-hydroxyindole",
    "duplicated_cas_no": "",
    "SMILES": "CC=1C=2C(=CC=C(O)C2)NC1",
    "meta_data": {
        "InChI": "InChI=1S/C9H9NO/c1-6-5-10-9-3-2-7(11)4-8(6)9/h2-5,10-11H,1H3",
        "InChIKey": null,
        "Canonical SMILES": "OC=1C=CC=2NC=C(C2C1)C",
        "Molecular Formula": "C<sub>9</sub>H<sub>9</sub>NO",
        "Molecular Mass": "147.17",
        "Melting Point": "108-109 °C"
    }
}