{
    "cas_no": "115-84-4",
    "key_name": "2-Butyl-2-ethyl-1,3-propanediol",
    "cn_name": "2-丁基-2-乙基-1,3-丙二醇;",
    "alternate_name": "1,3-Propanediol, 2-butyl-2-ethyl-;2-Butyl-2-ethyl-1,3-propanediol;BEP;3,3-Bis(hydroxymethyl)heptane;DMH;2-Ethyl-2-butyl-1,3-propanediol;Nexcoat 700;2-Butyl-2-ethylpropanediol;BEPD;NSC 406603;2-Butyl-2-ethyl-1,3-propandiol;2-Butyl 1-2-ethyl-1,3-propanediol",
    "duplicated_cas_no": "29855-01-4",
    "SMILES": "C(CCCC)(CC)(CO)CO",
    "meta_data": {
        "InChI": "InChI=1S/C9H20O2/c1-3-5-6-9(4-2,7-10)8-11/h10-11H,3-8H2,1-2H3",
        "InChIKey": null,
        "Canonical SMILES": "OCC(CO)(CC)CCCC",
        "Molecular Formula": "C<sub>9</sub>H<sub>20</sub>O<sub>2</sub>",
        "Molecular Mass": "160.25",
        "Boiling Point": "262 °C",
        "Melting Point": "43.8 °C"
    }
}