{
    "cas_no": "1003-78-7",
    "key_name": "2,4-Dimethylsulfolane",
    "cn_name": "2,4-二甲基环丁砜;2,4-二甲基噻吩烷;二甲基环丁硫砜;",
    "alternate_name": "Thiophene, tetrahydro-2,4-dimethyl-, 1,1-dioxide;2,4-Dimethylsulfolane;2,4-Dimethyltetramethylene sulfone;NSC 60703;2,4-Dimethyl-tetrahydro-thiophene 1,1-dioxide;2,4-Dimethyl-1λ6-thiolane-1,1-dione;2,4-Dimethylthiolane 1,1-dioxide",
    "duplicated_cas_no": "",
    "SMILES": "O=S1(=O)C(C)CC(C)C1",
    "meta_data": {
        "InChI": "InChI=1S/C6H12O2S/c1-5-3-6(2)9(7,8)4-5/h5-6H,3-4H2,1-2H3",
        "InChIKey": null,
        "Canonical SMILES": "O=S1(=O)CC(C)CC1C",
        "Molecular Formula": "C<sub>6</sub>H<sub>12</sub>O<sub>2</sub>S",
        "Molecular Mass": "148.22",
        "Boiling Point": "281 °C",
        "Melting Point": "-3 °C",
        "Density": "1.1362 g/cm³ @ Temp: 20 °C"
    }
}