{
    "cas_no": "646-24-2",
    "key_name": "1,9-Nonanediamine",
    "cn_name": "1,9-二氨基壬烷;1,9-壬烷二胺;伸壬基二胺;",
    "alternate_name": "1,9-Nonanediamine;Nonamethylenediamine;1,9-Diaminononane;1,9-Nonamethylenediamine",
    "duplicated_cas_no": "95931-00-3",
    "SMILES": "C(CCCCN)CCCCN",
    "meta_data": {
        "InChI": "InChI=1S/C9H22N2/c10-8-6-4-2-1-3-5-7-9-11/h1-11H2",
        "InChIKey": null,
        "Canonical SMILES": "NCCCCCCCCCN",
        "Molecular Formula": "C<sub>9</sub>H<sub>22</sub>N<sub>2</sub>",
        "Molecular Mass": "158.28",
        "Boiling Point": "125 °C @ Press: 4 Torr",
        "Melting Point": "35-37 °C"
    }
}