{
    "cas_no": "1585-06-4",
    "key_name": "4-Ethoxyethylbenzene",
    "cn_name": "4-乙基乙氧基苯;",
    "alternate_name": "Benzene, 1-ethoxy-4-ethyl-;Phenetole, <em>p</em>-ethyl-;1-Ethoxy-4-ethylbenzene;<em>p</em>-Ethoxyethylbenzene;4-Ethoxyethylbenzene",
    "duplicated_cas_no": "",
    "SMILES": "O(CC)C1=CC=C(CC)C=C1",
    "meta_data": {
        "InChI": "InChI=1S/C10H14O/c1-3-9-5-7-10(8-6-9)11-4-2/h5-8H,3-4H2,1-2H3",
        "InChIKey": null,
        "Canonical SMILES": "O(C1=CC=C(C=C1)CC)CC",
        "Molecular Formula": "C<sub>10</sub>H<sub>14</sub>O",
        "Molecular Mass": "150.22",
        "Boiling Point": "210 °C"
    }
}