{
    "cas_no": "4711-68-6",
    "key_name": "<em>N</em>-(4-Ethoxyphenyl)-3-hydroxy-2-naphthalenecarboxamide",
    "cn_name": "N-(4-乙氧基苯基)-3-羟基-2-萘甲酰胺;色酚AS-VL;",
    "alternate_name": "2-Naphthalenecarboxamide, <em>N</em>-(4-ethoxyphenyl)-3-hydroxy-;2-Naphtho-<em>p</em>-phenetidide, 3-hydroxy-;<em>N</em>-(4-Ethoxyphenyl)-3-hydroxy-2-naphthalenecarboxamide;C.I. 37559;Cibanaphthol RPH;C.I. Azoic Coupling Component 30;C.I. Azoic Coupling Component 46;Naphthol AS-VL;3-Hydroxy-2-naphtho-<em>p</em>-phenetidide;4′-Ethoxy-3-hydroxy-2-naphthanilide;NSC 50690;Dycosthol AS-VL",
    "duplicated_cas_no": "",
    "SMILES": "C(NC1=CC=C(OCC)C=C1)(=O)C2=CC3=C(C=C2O)C=CC=C3",
    "meta_data": {
        "InChI": "InChI=1S/C19H17NO3/c1-2-23-16-9-7-15(8-10-16)20-19(22)17-11-13-5-3-4-6-14(13)12-18(17)21/h3-12,21H,2H2,1H3,(H,20,22)",
        "InChIKey": null,
        "Canonical SMILES": "O=C(NC1=CC=C(OCC)C=C1)C2=CC=3C=CC=CC3C=C2O",
        "Molecular Formula": "C<sub>19</sub>H<sub>17</sub>NO<sub>3</sub>",
        "Molecular Mass": "307.34",
        "Melting Point": "221-224 °C"
    }
}