{
    "cas_no": "583-70-0",
    "key_name": "1-Bromo-2,4-dimethylbenzene",
    "cn_name": "2,4-二甲基溴苯;",
    "alternate_name": "Benzene, 1-bromo-2,4-dimethyl-;<em>m</em>-Xylene, 4-bromo-;1-Bromo-2,4-dimethylbenzene;1,3-Dimethyl-4-bromobenzene;2,4-Dimethylbromobenzene;4-Bromo-<em>m</em>-xylene;1-Bromo-2,4-xylene;2,4-Dimethylphenyl bromide;4-Bromo-1,3-dimethylbenzene;4-Bromo-1,3-xylene;2-Bromo-5-methyltoluene;NSC 64734;2,4-Dimethyl-1-bromobenzene",
    "duplicated_cas_no": "",
    "SMILES": "CC1=C(Br)C=CC(C)=C1",
    "meta_data": {
        "InChI": "InChI=1S/C8H9Br/c1-6-3-4-8(9)7(2)5-6/h3-5H,1-2H3",
        "InChIKey": null,
        "Canonical SMILES": "BrC1=CC=C(C=C1C)C",
        "Molecular Formula": "C<sub>8</sub>H<sub>9</sub>Br",
        "Molecular Mass": "185.06",
        "Boiling Point": "205 °C",
        "Melting Point": "-17 °C",
        "Density": "1.361 g/cm³ @ Temp: 20 °C"
    }
}