{
    "cas_no": "576-23-8",
    "key_name": "1-Bromo-2,3-dimethylbenzene",
    "cn_name": "2,3-二甲基溴苯;3-溴邻二甲苯;",
    "alternate_name": "Benzene, 1-bromo-2,3-dimethyl-;<em>o</em>-Xylene, 3-bromo-;1-Bromo-2,3-dimethylbenzene;2,3-Dimethylbromobenzene;3-Bromo-<em>o</em>-xylene;3-Bromo-1,2-xylene;3-Bromo-1,2-dimethylbenzene;NSC 76561",
    "duplicated_cas_no": "",
    "SMILES": "CC1=C(Br)C=CC=C1C",
    "meta_data": {
        "InChI": "InChI=1S/C8H9Br/c1-6-4-3-5-8(9)7(6)2/h3-5H,1-2H3",
        "InChIKey": null,
        "Canonical SMILES": "BrC1=CC=CC(=C1C)C",
        "Molecular Formula": "C<sub>8</sub>H<sub>9</sub>Br",
        "Molecular Mass": "185.06",
        "Boiling Point": "214 °C",
        "Density": "1.366 g/cm³ @ Temp: 15 °C"
    }
}