{
    "cas_no": "95-49-8",
    "key_name": "2-Chlorotoluene",
    "cn_name": "2-氯甲苯;邻氯甲苯;",
    "alternate_name": "Benzene, 1-chloro-2-methyl-;Toluene, <em>o</em>-chloro-;1-Chloro-2-methylbenzene;2-Chloro-1-methylbenzene;<em>o</em>-Chlorotoluene;2-Chlorotoluene;1-Methyl-2-chlorobenzene;<em>o</em>-Tolyl chloride;2-Methylchlorobenzene;<em>o</em>-Methylchlorobenzene;2-Methylphenyl chloride;NSC 8766;2-Tolyl chloride;2-Methyl-1-chlorobenzene",
    "duplicated_cas_no": "",
    "SMILES": "CC1=C(Cl)C=CC=C1",
    "meta_data": {
        "InChI": "InChI=1S/C7H7Cl/c1-6-4-2-3-5-7(6)8/h2-5H,1H3",
        "InChIKey": null,
        "Canonical SMILES": "ClC=1C=CC=CC1C",
        "Molecular Formula": "C<sub>7</sub>H<sub>7</sub>Cl",
        "Molecular Mass": "126.58",
        "Boiling Point": "158.97 °C",
        "Melting Point": "-35.59 °C",
        "Density": "1.0826 g/cm³ @ Temp: 20 °C"
    }
}