{
    "cas_no": "99-35-4",
    "key_name": "1,3,5-Trinitrobenzene",
    "cn_name": "1,3,5-三硝基苯[干的或含水<30%];",
    "alternate_name": "Benzene, 1,3,5-trinitro-;1,3,5-Trinitrobenzene;<em>s</em>-Trinitrobenzene;2,4,6-Trinitrobenzene;Trinitrobenzene;TNB;<em>sym</em>-Trinitrobenzene;TNB (nitro compound);NSC 36931",
    "duplicated_cas_no": "856948-61-3",
    "SMILES": "N(=O)(=O)C1=CC(N(=O)=O)=CC(N(=O)=O)=C1",
    "meta_data": {
        "InChI": "InChI=1S/C6H3N3O6/c10-7(11)4-1-5(8(12)13)3-6(2-4)9(14)15/h1-3H",
        "InChIKey": null,
        "Canonical SMILES": "O=N(=O)C=1C=C(C=C(C1)N(=O)=O)N(=O)=O",
        "Molecular Formula": "C<sub>6</sub>H<sub>3</sub>N<sub>3</sub>O<sub>6</sub>",
        "Molecular Mass": "213.10",
        "Boiling Point": "315 °C @ Press: 760 Torr",
        "Melting Point": "122.5 °C",
        "Density": "1.76 g/cm³ @ Temp: 20 °C"
    }
}