{
    "cas_no": "74389-68-7",
    "key_name": "Platelet-activating factor",
    "cn_name": null,
    "alternate_name": "3,5,9-Trioxa-4-phosphapentacosan-1-aminium, 7-(acetyloxy)-4-hydroxy-<em>N</em>,<em>N</em>,<em>N</em>-trimethyl-, inner salt, 4-oxide, (7<em>R</em>)-;3,5,9-Trioxa-4-phosphapentacosan-1-aminium, 7-(acetyloxy)-4-hydroxy-<em>N</em>,<em>N</em>,<em>N</em>-trimethyl-, inner salt, 4-oxide, (<em>R</em>)-;1-<em>O</em>-Hexadecyl-2-<em>O</em>-acetyl-<em>sn</em>-<em>glycero</em>-3-phosphocholine;1-<em>O</em>-Hexadecyl-2-<em>O</em>-acetyl-<em>sn</em>-glyceryl-3-phosphorylcholine;PAF acether;Blood platelet-activating factor acether;Platelet-activating factor acether;Platelet-activating factor;Blood platelet-activating factor;1-<em>O</em>-Hexadecyl-2-acetyl-<em>sn</em>-<em>glycero</em>-3-phosphocholine;C<sub>16</sub>-PAF acether;1-Hexadecyl-2-acetyl-<em>sn</em>-<em>glycero</em>-3-phosphocholine;1-<em>O</em>-Hexadecyl-2-acetyl-<em>sn</em>-glycerophosphocholine;C<sub>16</sub>-PAF;1-<em>O</em>-Hexadecyl-platelet-activating factor;PAF;1-<em>O</em>-Hexadecyl-2-acetyl-<em>sn</em>-glyceryl-3-phosphorylcholine;PAF 16;Platelet-activating factor (1-O-hexadecyl);PAF C 16",
    "duplicated_cas_no": "",
    "SMILES": "[C@H](COP(OCC[N+](C)(C)C)(=O)[O-])(COCCCCCCCCCCCCCCCC)OC(C)=O",
    "meta_data": {
        "InChI": "InChI=1S/C26H54NO7P/c1-6-7-8-9-10-11-12-13-14-15-16-17-18-19-21-31-23-26(34-25(2)28)24-33-35(29,30)32-22-20-27(3,4)5/h26H,6-24H2,1-5H3/t26-/m1/s1",
        "InChIKey": null,
        "Canonical SMILES": "O=C(OC(COCCCCCCCCCCCCCCCC)COP(=O)([O-])OCC[N+](C)(C)C)C",
        "Molecular Formula": "C<sub>26</sub>H<sub>54</sub>NO<sub>7</sub>P",
        "Molecular Mass": "",
        "Melting Point": "247 °C"
    }
}