{
    "cas_no": "55-98-1",
    "key_name": "Busulfan",
    "cn_name": "白消安;",
    "alternate_name": "1,4-Butanediol, 1,4-dimethanesulfonate;1,4-Butanediol, dimethanesulfonate;Methanesulfonic acid, tetramethylene ester;GT 41;NSC 750;CB 2041;1,4-Bis(methanesulfonoxy)butane;Busulphan;1,4-Dimethanesulfonoxybutane;1,4-Dimethylsulfonyloxybutane;Mablin;Mitostan;Myelosan;Myleran;Tetramethylene bis[methanesulfonate];Busulfan;Misulban;Mielosan;Mileran;Milecitan;Sulfabutin;1,4-Bis(methanesulfonyloxy)butane;Leucosulfan;Mylecytan;Mielucin;1,4-Butanediol dimesylate;Glyzophrol;Butane-1,4-diyl bis(methanesulfonate);1,4-Dibutanediol dimethanesulfonate;Busulfex;GT 2041;Myeloleukon;X 149;Sulphabutin;2041CB;AN 33501;Mielevcin;NCI C01592;Citosulfan;Busilvex;Myran;4-Methylsulfonyloxybutyl methanesulfonate;MeSH ID: D002066",
    "duplicated_cas_no": "",
    "SMILES": "O(S(C)(=O)=O)CCCCOS(C)(=O)=O",
    "meta_data": {
        "InChI": "InChI=1S/C6H14O6S2/c1-13(7,8)11-5-3-4-6-12-14(2,9)10/h3-6H2,1-2H3",
        "InChIKey": null,
        "Canonical SMILES": "O=S(=O)(OCCCCOS(=O)(=O)C)C",
        "Molecular Formula": "C<sub>6</sub>H<sub>14</sub>O<sub>6</sub>S<sub>2</sub>",
        "Molecular Mass": "246.30",
        "Melting Point": "114-118 °C",
        "Density": "1.56 g/cm³"
    }
}