{
    "cas_no": "25905-14-0",
    "key_name": "5-Methyl-2-(1-methylethenyl)-4-hexen-1-yl acetate",
    "cn_name": null,
    "alternate_name": "4-Hexen-1-ol, 5-methyl-2-(1-methylethenyl)-, 1-acetate;4-Hexen-1-ol, 2-isopropenyl-5-methyl-, acetate;4-Hexen-1-ol, 5-methyl-2-(1-methylethenyl)-, acetate;5-Methyl-2-(1-methylethenyl)-4-hexen-1-yl acetate;3-Acetoxymethyl-2,6-dimethyl-1,5-heptadiene;(±)-Lavandulol acetate;(±)-Lavandulyl acetate;5-Methyl-2-(1-methylethenyl)-4-hexylene-1-ol acetate;(±)-2-Isopropenyl-5-methyl-4-hexen-1-yl acetate;2-Isopropenyl-5-methyl-4-hexen-1-yl acetate",
    "duplicated_cas_no": "50373-59-6",
    "SMILES": "C(CC=C(C)C)(COC(C)=O)C(C)=C",
    "meta_data": {
        "InChI": "InChI=1S/C12H20O2/c1-9(2)6-7-12(10(3)4)8-14-11(5)13/h6,12H,3,7-8H2,1-2,4-5H3",
        "InChIKey": null,
        "Canonical SMILES": "O=C(OCC(C(=C)C)CC=C(C)C)C",
        "Molecular Formula": "C<sub>12</sub>H<sub>20</sub>O<sub>2</sub>",
        "Molecular Mass": "196.29",
        "Boiling Point": "106-107 °C @ Press: 13 Torr",
        "Density": "0.9122 g/cm³ @ Temp: 17 °C"
    }
}