{
    "cas_no": "22280-56-4",
    "key_name": "2-Chloro-3-methyl-5-nitropyridine",
    "cn_name": "2-氯-3-甲基-5-硝基吡啶;",
    "alternate_name": "Pyridine, 2-chloro-3-methyl-5-nitro-;3-Picoline, 2-chloro-5-nitro-;2-Chloro-3-methyl-5-nitropyridine;2-Chloro-5-nitro-3-picoline;NSC 63887;6-Chloro-5-methyl-3-nitropyridine",
    "duplicated_cas_no": "2662573-44-4",
    "SMILES": "N(=O)(=O)C=1C=C(C)C(Cl)=NC1",
    "meta_data": {
        "InChI": "InChI=1S/C6H5ClN2O2/c1-4-2-5(9(10)11)3-8-6(4)7/h2-3H,1H3",
        "InChIKey": null,
        "Canonical SMILES": "O=N(=O)C1=CN=C(Cl)C(=C1)C",
        "Molecular Formula": "C<sub>6</sub>H<sub>5</sub>ClN<sub>2</sub>O<sub>2</sub>",
        "Molecular Mass": "172.57",
        "Boiling Point": "145.5 °C @ Press: 18 Torr",
        "Melting Point": "47-48 °C"
    }
}