{
    "cas_no": "32943-25-2",
    "key_name": "3-Chloroiminodibenzyl",
    "cn_name": "3-氯亚氨基二苄;3-氯-二苯并[b,f]氮杂卓;",
    "alternate_name": "5<em>H</em>-Dibenz[<em>b</em>,<em>f</em>]azepine, 3-chloro-10,11-dihydro-;3-Chloro-10,11-dihydro-5<em>H</em>-dibenz[<em>b</em>,<em>f</em>]azepine;3-Chloroiminodibenzyl;3-Chloro-10,11-dihydro-5<em>H</em>-dibenzo[<em>b</em>,<em>f</em>]azepine",
    "duplicated_cas_no": "",
    "SMILES": "ClC=1C=C2C(CCC=3C(N2)=CC=CC3)=CC1",
    "meta_data": {
        "InChI": "InChI=1S/C14H12ClN/c15-12-8-7-11-6-5-10-3-1-2-4-13(10)16-14(11)9-12/h1-4,7-9,16H,5-6H2",
        "InChIKey": null,
        "Canonical SMILES": "ClC1=CC=C2C(=C1)NC=3C=CC=CC3CC2",
        "Molecular Formula": "C<sub>14</sub>H<sub>12</sub>ClN",
        "Molecular Mass": "229.70",
        "Boiling Point": "116-121 °C @ Press: 0.09 Torr",
        "Melting Point": "87-89 °C"
    }
}