{
    "cas_no": "6281-42-1",
    "key_name": "1-(2-Aminoethyl)-2-imidazolidinone",
    "cn_name": "1-(2-氨基乙基)-2-咪唑啉酮;1-(2-氨基乙基)-2-咪唑烷酮;1-(2-氨乙基)咪唑啉-2-酮;",
    "alternate_name": "2-Imidazolidinone, 1-(2-aminoethyl)-;1-(2-Aminoethyl)-2-imidazolidinone;1-(β-Aminoethyl)-2-imidazolidone;1-(2-Aminoethyl)-2-imidazolidone;1-(2-Aminoethyl)imidazolidinone;<em>N</em>-(2-Aminoethyl)ethyleneurea;<em>N</em>-(β-Aminoethyl)-<em>N</em>,<em>N</em>′-ethyleneurea;<em>N</em>-(2-Aminoethyl)imidazolidinone;2-(2-Oxoimidazolidin-1-yl)ethylamine;3-(2-Aminoethyl)-2-imidazolidinone;[2-(2-Oxoimidazolidino)ethyl]amine;NSC 5776;3-(2-Aminoethyl)-2-imidazolidone;<em>N</em>-(2-Aminoethyl)imidazolidin-2-one;<em>N</em>-(2-Aminoethyl)imidazolidone;Reverlink U;1-(2-Aminoethyl)imidazolidone",
    "duplicated_cas_no": "",
    "SMILES": "C(CN)N1C(=O)NCC1",
    "meta_data": {
        "InChI": "InChI=1S/C5H11N3O/c6-1-3-8-4-2-7-5(8)9/h1-4,6H2,(H,7,9)",
        "InChIKey": null,
        "Canonical SMILES": "O=C1NCCN1CCN",
        "Molecular Formula": "C<sub>5</sub>H<sub>11</sub>N<sub>3</sub>O",
        "Molecular Mass": "129.16",
        "Boiling Point": "155-163 °C @ Press: 1 Torr"
    }
}