{
    "cas_no": "25161-41-5",
    "key_name": "Acevaltrate",
    "cn_name": "醋戊曲酯;",
    "alternate_name": "Butanoic acid, 3-(acetyloxy)-3-methyl-, (1<em>S</em>,2′<em>R</em>,6<em>S</em>,7a<em>S</em>)-4-[(acetyloxy)methyl]-6,7a-dihydro-1-(3-methyl-1-oxobutoxy)spiro[cyclopenta[<em>c</em>]pyran-7(1<em>H</em>),2′-oxiran]-6-yl ester;Butanoic acid, 3-(acetyloxy)-3-methyl-, 4-[(acetyloxy)methyl]-6,7a-dihydro-1-(3-methyl-1-oxobutoxy)spiro[cyclopenta[<em>c</em>]pyran-7(1<em>H</em>),2′-oxiran]-6-yl ester, [1<em>S</em>-(1α,6α,7β,7aα)]-;Spiro[cyclopenta[<em>c</em>]pyran-7(1<em>H</em>),2′-oxirane], butanoic acid deriv.;Acevaltrate;Acevaltratum;(Acetyloxy)valepotriate;Acetoxyvaltrate;Acetovaltrate",
    "duplicated_cas_no": "23067-35-8;28325-58-8;30584-21-5;31244-57-2",
    "SMILES": "O(C(CC(OC(C)=O)(C)C)=O)[C@@H]1[C@@]2([C@@]3(C(=C1)C(COC(C)=O)=CO[C@H]3OC(CC(C)C)=O)[H])CO2",
    "meta_data": {
        "InChI": "InChI=1S/C24H32O10/c1-13(2)7-19(27)33-22-21-17(16(11-30-22)10-29-14(3)25)8-18(24(21)12-31-24)32-20(28)9-23(5,6)34-15(4)26/h8,11,13,18,21-22H,7,9-10,12H2,1-6H3/t18-,21+,22-,24+/m0/s1",
        "InChIKey": null,
        "Canonical SMILES": "O=C(OCC1=COC(OC(=O)CC(C)C)C2C1=CC(OC(=O)CC(OC(=O)C)(C)C)C32OC3)C",
        "Molecular Formula": "C<sub>24</sub>H<sub>32</sub>O<sub>10</sub>",
        "Molecular Mass": "480.50",
        "Melting Point": "80-81 °C"
    }
}