{
    "cas_no": "2389-48-2",
    "key_name": "<span class=\"text-smallcaps\">L</span>-Lysine, <em>N</em><sup>6</sup>-[(1,1-dimethylethoxy)carbonyl]-, methyl ester, hydrochloride (1:1)",
    "cn_name": "N-Boc-L-赖氨酸甲酯盐酸盐;N(e)-叔丁氧羰基-L-赖氨酸甲酯盐酸盐;",
    "alternate_name": "<span class=\"text-smallcaps\">L</span>-Lysine, <em>N</em><sup>6</sup>-[(1,1-dimethylethoxy)carbonyl]-, methyl ester, hydrochloride (1:1);Lysine, <em>N</em><sup>6</sup>-carboxy-, <em>N</em>-<em>tert</em>-butyl methyl ester, monohydrochloride, <span class=\"text-smallcaps\">L</span>-;<span class=\"text-smallcaps\">L</span>-Lysine, <em>N</em><sup>6</sup>-[(1,1-dimethylethoxy)carbonyl]-, methyl ester, monohydrochloride;<em>N</em><sup>ε</sup>-<em>tert</em>-Butoxycarbonyllysine methyl ester hydrochloride;<em>N</em><sup>ε</sup>-BOC-<span class=\"text-smallcaps\">L</span>-lysine methyl ester hydrochloride;Methyl (2<em>S</em>)-2-amino-6-[(<em>tert</em>-butoxycarbonyl)amino]hexanoate hydrochloride",
    "duplicated_cas_no": "2719755-29-8",
    "SMILES": "C(NCCCC[C@@H](C(OC)=O)N)(OC(C)(C)C)=O.Cl",
    "meta_data": {
        "InChI": "InChI=1S/C12H24N2O4.ClH/c1-12(2,3)18-11(16)14-8-6-5-7-9(13)10(15)17-4;/h9H,5-8,13H2,1-4H3,(H,14,16);1H/t9-;/m0./s1",
        "InChIKey": null,
        "Canonical SMILES": "Cl.O=C(OC(C)(C)C)NCCCCC(N)C(=O)OC",
        "Molecular Formula": "C<sub>12</sub>H<sub>24</sub>N<sub>2</sub>O<sub>4</sub>.ClH",
        "Molecular Mass": "",
        "Melting Point": "158-159 °C"
    }
}