{
    "cas_no": "2276-90-6",
    "key_name": "Iothalamic acid",
    "cn_name": "碘他拉酸;3-乙酰氨基-2,4,6-三碘-5-(甲基氨基甲酰)苯甲酸;",
    "alternate_name": "Benzoic acid, 3-(acetylamino)-2,4,6-triiodo-5-[(methylamino)carbonyl]-;Isophthalamic acid, 5-acetamido-2,4,6-triiodo-<em>N</em>-methyl-;3-(Acetylamino)-2,4,6-triiodo-5-[(methylamino)carbonyl]benzoic acid;MI 216;5-Acetamido-2,4,6-triiodo-<em>N</em>-methylisophthalamic acid;5-Acetylamino-2,4,6-triiodo-<em>N</em>-methyl-3-isophthalamic acid;Iothalamic acid;Methalamic acid;Iotalamic acid;Cysto Conray II;3-Acetamido-2,4,6-triiodo-5-(methylcarbamoyl)benzoic acid;MeSH ID: D007483",
    "duplicated_cas_no": "5551-54-2",
    "SMILES": "C(NC)(=O)C1=C(I)C(C(O)=O)=C(I)C(NC(C)=O)=C1I",
    "meta_data": {
        "InChI": "InChI=1S/C11H9I3N2O4/c1-3(17)16-9-7(13)4(10(18)15-2)6(12)5(8(9)14)11(19)20/h1-2H3,(H,15,18)(H,16,17)(H,19,20)",
        "InChIKey": null,
        "Canonical SMILES": "O=C(O)C1=C(I)C(NC(=O)C)=C(I)C(C(=O)NC)=C1I",
        "Molecular Formula": "C<sub>11</sub>H<sub>9</sub>I<sub>3</sub>N<sub>2</sub>O<sub>4</sub>",
        "Molecular Mass": "613.91",
        "Melting Point": "&gt;300 °C (decomp)"
    }
}