{
    "cas_no": "552-41-0",
    "key_name": "Paeonol",
    "cn_name": "丹皮酚;2-羟基-4-甲氧基苯乙酮;",
    "alternate_name": "Ethanone, 1-(2-hydroxy-4-methoxyphenyl)-;Peonol;Acetophenone, 2′-hydroxy-4′-methoxy-;1-(2-Hydroxy-4-methoxyphenyl)ethanone;4-<em>O</em>-Methylresacetophenone;Paeonol;2′-Hydroxy-4′-methoxyacetophenone;Resacetophenone 4-<em>O</em>-methyl ether;2-Acetyl-5-methoxyphenol;4′-Methoxy-2′-hydroxyacetophenone;2-Hydroxy-4-methoxyphenyl methyl ketone;NSC 401442;1-(4-Methoxy-2-hydroxyphenyl)ethanone;1-(2-Hydroxy-4-methoxyphenyl)ethan-1-one;Paeonolum;Paconol;4-Methoxy-2-hydroxyacetophenone",
    "duplicated_cas_no": "",
    "SMILES": "C(C)(=O)C1=C(O)C=C(OC)C=C1",
    "meta_data": {
        "InChI": "InChI=1S/C9H10O3/c1-6(10)8-4-3-7(12-2)5-9(8)11/h3-5,11H,1-2H3",
        "InChIKey": null,
        "Canonical SMILES": "O=C(C1=CC=C(OC)C=C1O)C",
        "Molecular Formula": "C<sub>9</sub>H<sub>10</sub>O<sub>3</sub>",
        "Molecular Mass": "166.17",
        "Boiling Point": "145-147 °C @ Press: 5 Torr",
        "Melting Point": "52.5 °C"
    }
}