{
    "cas_no": "89-65-6",
    "key_name": "Erythorbic acid",
    "cn_name": "异抗坏血酸;赤藻糖酸;异维生素C;D-2,3,5,6-四羟基-2-己烯酸-γ-内酯;D-(-)-异抗坏血酸;",
    "alternate_name": "<span class=\"text-smallcaps\">D</span>-<em>erythro</em>-Hex-2-enonic acid, γ-lactone;Erythorbic acid;<span class=\"text-smallcaps\">D</span>-<em>erythro</em>-Hexonic acid, 3-<em>keto</em>-, γ-lactone;Erycorbin;Glucosaccharonic acid;Isoascorbic acid;Isovitamin C;Mercate 5;Saccharosonic acid;<span class=\"text-smallcaps\">D</span>-Araboascorbic acid;Araboascorbic acid, <span class=\"text-smallcaps\">D</span>-;<span class=\"text-smallcaps\">D</span>-(-)-Isoascorbic acid;Araboascorbic acid;<span class=\"text-smallcaps\">D</span>-Isoascorbic acid;Neo-Cebicure;<span class=\"text-smallcaps\">D</span>-Erythorbic acid;<span class=\"text-smallcaps\">D</span>-<em>arabino</em>-Ascorbic acid;NSC 8117;E 315",
    "duplicated_cas_no": "98966-42-8;74242-57-2",
    "SMILES": "[C@H](CO)(O)[C@@]1(C(O)=C(O)C(=O)O1)[H]",
    "meta_data": {
        "InChI": "InChI=1S/C6H8O6/c7-1-2(8)5-3(9)4(10)6(11)12-5/h2,5,7-10H,1H2/t2-,5-/m1/s1",
        "InChIKey": null,
        "Canonical SMILES": "O=C1OC(C(O)=C1O)C(O)CO",
        "Molecular Formula": "C<sub>6</sub>H<sub>8</sub>O<sub>6</sub>",
        "Molecular Mass": "176.12",
        "Melting Point": "174 °C (decomp)",
        "Density": "1.654 g/cm³"
    }
}