{
    "cas_no": "2224-00-2",
    "key_name": "2-Ethoxy-1-naphthalenecarboxylic acid",
    "cn_name": "2-乙氧基-1-萘甲酸;2-乙氧基萘甲酸;1-戊烯-3-炔;",
    "alternate_name": "1-Naphthalenecarboxylic acid, 2-ethoxy-;1-Naphthoic acid, 2-ethoxy-;2-Ethoxy-1-naphthalenecarboxylic acid;2-Ethoxy-1-naphthoic acid;2-Ethoxynaphthalene-1-carboxylic acid",
    "duplicated_cas_no": "",
    "SMILES": "C(O)(=O)C=1C2=C(C=CC1OCC)C=CC=C2",
    "meta_data": {
        "InChI": "InChI=1S/C13H12O3/c1-2-16-11-8-7-9-5-3-4-6-10(9)12(11)13(14)15/h3-8H,2H2,1H3,(H,14,15)",
        "InChIKey": null,
        "Canonical SMILES": "O=C(O)C1=C(OCC)C=CC=2C=CC=CC21",
        "Molecular Formula": "C<sub>13</sub>H<sub>12</sub>O<sub>3</sub>",
        "Molecular Mass": "216.23",
        "Melting Point": "147 °C"
    }
}