{
    "cas_no": "510758-28-8",
    "key_name": "Tris[(1-benzyl-1H-1,2,3-triazol-4-yl)methyl]amine",
    "cn_name": null,
    "alternate_name": "1<em>H</em>-1,2,3-Triazole-4-methanamine, 1-(phenylmethyl)-<em>N</em>,<em>N</em>-bis[[1-(phenylmethyl)-1<em>H</em>-1,2,3-triazol-4-yl]methyl]-;1-(Phenylmethyl)-<em>N</em>,<em>N</em>-bis[[1-(phenylmethyl)-1<em>H</em>-1,2,3-triazol-4-yl]methyl]-1<em>H</em>-1,2,3-triazole-4-methanamine;<em>N</em>,<em>N</em>,<em>N</em>-Tris[(1-benzyl-1<em>H</em>-1,2,3-triazol-4-yl)methyl]amine;Tris[(1-benzyl-1<em>H</em>-1,2,3-triazol-4-yl)methyl]amine;TBTA;1-(1-Benzyltriazol-4-yl)-<em>N</em>,<em>N</em>-bis[(1-benzyltriazol-4-yl)methyl]methanamine;Tris[(1-benzyl-1H-1,2,3-triazol-4-yl)methyl]amine;Tris-(benzyltriazolylmethyl)amine;1-(1-Benzyl-1<em>H</em>-1,2,3-triazol-4-yl)-<em>N</em>,<em>N</em>-bis[(1-benzyl-1<em>H</em>-1,2,3-triazol-4-yl)methyl]methanamine",
    "duplicated_cas_no": "1168107-40-1;1513643-20-3",
    "SMILES": "N(CC1=CN(CC2=CC=CC=C2)N=N1)(CC3=CN(CC4=CC=CC=C4)N=N3)CC5=CN(CC6=CC=CC=C6)N=N5",
    "meta_data": {
        "InChI": "InChI=1S/C30H30N10/c1-4-10-25(11-5-1)16-38-22-28(31-34-38)19-37(20-29-23-39(35-32-29)17-26-12-6-2-7-13-26)21-30-24-40(36-33-30)18-27-14-8-3-9-15-27/h1-15,22-24H,16-21H2",
        "InChIKey": null,
        "Canonical SMILES": "N1=NN(C=C1CN(CC=2N=NN(C2)CC=3C=CC=CC3)CC=4N=NN(C4)CC=5C=CC=CC5)CC=6C=CC=CC6",
        "Molecular Formula": "C<sub>30</sub>H<sub>30</sub>N<sub>10</sub>",
        "Molecular Mass": "530.63",
        "Melting Point": "146-148 °C"
    }
}