{
    "cas_no": "18263-25-7",
    "key_name": "2-Bromohexadecanoic acid",
    "cn_name": "2-溴十六烷酸;2-溴十酸;",
    "alternate_name": "Hexadecanoic acid, 2-bromo-;2-Bromohexadecanoic acid;2-Bromopalmitic acid;α-Bromopalmitic acid;1-Bromopentadecanecarboxylic acid;2-Bromo-<em>n</em>-hexadecanoic acid;<span class=\"text-smallcaps\">DL</span>-2-Bromopalmitate;NSC 58378",
    "duplicated_cas_no": "40305-76-8",
    "SMILES": "C(CCCCCCCCCCCC)CC(C(O)=O)Br",
    "meta_data": {
        "InChI": "InChI=1S/C16H31BrO2/c1-2-3-4-5-6-7-8-9-10-11-12-13-14-15(17)16(18)19/h15H,2-14H2,1H3,(H,18,19)",
        "InChIKey": null,
        "Canonical SMILES": "O=C(O)C(Br)CCCCCCCCCCCCCC",
        "Molecular Formula": "C<sub>16</sub>H<sub>31</sub>BrO<sub>2</sub>",
        "Molecular Mass": "335.32",
        "Melting Point": "53-53.5 °C"
    }
}