{
    "cas_no": "2947-61-7",
    "key_name": "4-Methylphenylacetonitrile",
    "cn_name": "对甲基苯乙腈;",
    "alternate_name": "Benzeneacetonitrile, 4-methyl-;Acetonitrile, <em>p</em>-tolyl-;4-Methylbenzeneacetonitrile;<em>p</em>-Methylbenzyl cyanide;(<em>p</em>-Methylphenyl)acetonitrile;<em>p</em>-Tolylacetonitrile;4-Methylbenzyl cyanide;4-Methylphenylacetonitrile;4-Methylbenzylnitrile;2-(<em>p</em>-Tolyl)acetonitrile;2-(4-Methylphenyl)acetonitrile;4-Methylbenzyl isocyanide",
    "duplicated_cas_no": "",
    "SMILES": "C(C#N)C1=CC=C(C)C=C1",
    "meta_data": {
        "InChI": "InChI=1S/C9H9N/c1-8-2-4-9(5-3-8)6-7-10/h2-5H,6H2,1H3",
        "InChIKey": null,
        "Canonical SMILES": "N#CCC1=CC=C(C=C1)C",
        "Molecular Formula": "C<sub>9</sub>H<sub>9</sub>N",
        "Molecular Mass": "131.17",
        "Boiling Point": "242.5 °C",
        "Melting Point": "18 °C"
    }
}