{
    "cas_no": "28783-41-7",
    "key_name": "Thieno[3,2-<em>c</em>]pyridine, 4,5,6,7-tetrahydro-, hydrochloride (1:1)",
    "cn_name": "4,5,6,7-四氢噻吩[3,2-c]吡啶盐酸盐;",
    "alternate_name": "Thieno[3,2-<em>c</em>]pyridine, 4,5,6,7-tetrahydro-, hydrochloride (1:1);Thieno[3,2-<em>c</em>]pyridine, 4,5,6,7-tetrahydro-, hydrochloride;4,5,6,7-Tetrahydrothieno[3,2-<em>c</em>]pyridine hydrochloride",
    "duplicated_cas_no": "",
    "SMILES": "C12=C(SC=C1)CCNC2.Cl",
    "meta_data": {
        "InChI": "InChI=1S/C7H9NS.ClH/c1-3-8-5-6-2-4-9-7(1)6;/h2,4,8H,1,3,5H2;1H",
        "InChIKey": null,
        "Canonical SMILES": "Cl.S1C=CC2=C1CCNC2",
        "Molecular Formula": "C<sub>7</sub>H<sub>9</sub>NS.ClH",
        "Molecular Mass": "",
        "Melting Point": "220-230 °C"
    }
}