{
    "cas_no": "39178-35-3",
    "key_name": "Isonicotinoyl chloride hydrochloride",
    "cn_name": null,
    "alternate_name": "4-Pyridinecarbonyl chloride, hydrochloride (1:1);4-Pyridinecarbonyl chloride, hydrochloride;Isonicotinoyl chloride, hydrochloride;Isonicotinyl chloride hydrochloride;Isonicotinic acid chloride hydrochloride;4-Pyridinecarboxylic acid chloride hydrochloride;4-Nicotinoyl chloride hydrochloride;4-(Chloroformyl)pyridinium hydrochloride;(Chlorocarbonyl)-4-(pyridinyl) monohydrochloride;Isonicotinoyl chloride hydrochloride",
    "duplicated_cas_no": "1258517-82-6",
    "SMILES": "C(Cl)(=O)C=1C=CN=CC1.Cl",
    "meta_data": {
        "InChI": "InChI=1S/C6H4ClNO.ClH/c7-6(9)5-1-3-8-4-2-5;/h1-4H;1H",
        "InChIKey": null,
        "Canonical SMILES": "Cl.O=C(Cl)C=1C=CN=CC1",
        "Molecular Formula": "C<sub>6</sub>H<sub>4</sub>ClNO.ClH",
        "Molecular Mass": "",
        "Melting Point": "148-152 °C"
    }
}