{
    "cas_no": "539-32-2",
    "key_name": "3-Butylpyridine",
    "cn_name": null,
    "alternate_name": "Pyridine, 3-butyl-;3-Butylpyridine;3-<em>n</em>-Butylpyridine;1-(3-Pyridyl)butane",
    "duplicated_cas_no": "",
    "SMILES": "C(CCC)C=1C=CC=NC1",
    "meta_data": {
        "InChI": "InChI=1S/C9H13N/c1-2-3-5-9-6-4-7-10-8-9/h4,6-8H,2-3,5H2,1H3",
        "InChIKey": null,
        "Canonical SMILES": "N=1C=CC=C(C1)CCCC",
        "Molecular Formula": "C<sub>9</sub>H<sub>13</sub>N",
        "Molecular Mass": "135.21",
        "Boiling Point": "205-208 °C",
        "Density": "0.9797 g/cm³ @ Temp: 20 °C"
    }
}