{
    "cas_no": "555-31-7",
    "key_name": "Aluminum isopropoxide",
    "cn_name": "异丙醇铝;三异丙氧基铝;",
    "alternate_name": "2-Propanol, aluminum salt (3:1);2-Propanol, aluminum salt;Isopropyl alcohol, aluminum salt;Aluminum isopropoxide;Aluminum isopropylate;Aluminum triisopropoxide;Triisopropoxyaluminum;Aluminum triisopropylate;Aliso;Aluminum isopropanolate;Aluminium isopropoxide;Aluminum <em>sec</em>-propanolate;Isopropanol aluminum salt;Aluminum tris(<em>sec</em>-propoxide);Triisopropyloxyaluminum;Tris(isopropoxy)aluminum;Aluminum 2-propoxide;Aluminum isopropoxide (1:3);Aluminum tris(isopropoxide);Aluminum isopropylate (Al(OC<sub>3</sub>H<sub>7</sub>)<sub>3</sub>);AIPD;Aluminum(3+) isopropoxide;Aluminum tris(<em>iso</em>-propoxide);Manalox 130;Triisopropyl aluminate;PADM;Aluminum tris(isopropylate);Aluminum isopropioate;Tris(isopropanolato)aluminum;SYM-AL 04;A 1010;Aluminium trisopropoxide;Aluminum, tris(2-propanolato)-;Manalox 360",
    "duplicated_cas_no": "12343-27-0;51796-09-9;78423-41-3;95797-38-9;188398-62-1;245654-30-2;301192-92-7;358732-16-8;365494-41-3;856761-21-2;1514907-01-7;1621347-64-5;1884272-31-4;2091912-80-8;2364366-09-4;2677740-34-8;3025983-10-9",
    "SMILES": "C(C)(C)O.[Al]",
    "meta_data": {
        "InChI": "InChI=1S/C3H8O.Al/c1-3(2)4;/h3-4H,1-2H3;",
        "InChIKey": null,
        "Canonical SMILES": "[Al].OC(C)C",
        "Molecular Formula": "C<sub>3</sub>H<sub>8</sub>O.<sup>1</sup>/<sub>3</sub>Al",
        "Molecular Mass": "",
        "Boiling Point": "94 °C @ Press: 0.5 Torr",
        "Melting Point": "119 °C",
        "Density": "1.025 g/cm³ @ Temp: 20 °C"
    }
}