{
    "cas_no": "1029684-37-4",
    "key_name": "1-(Tetrahydro-2<em>H</em>-pyran-2-yl)-5-(4,4,5,5-tetramethyl-1,3,2-dioxaborolan-2-yl)-1<em>H</em>-imidazole",
    "cn_name": null,
    "alternate_name": "1<em>H</em>-Imidazole, 1-(tetrahydro-2<em>H</em>-pyran-2-yl)-5-(4,4,5,5-tetramethyl-1,3,2-dioxaborolan-2-yl)-;1-(Tetrahydro-2<em>H</em>-pyran-2-yl)-5-(4,4,5,5-tetramethyl-1,3,2-dioxaborolan-2-yl)-1<em>H</em>-imidazole;1-(Tetrahydro-2<em>H</em>-pyran-2-yl)-1<em>H</em>-imidazole-5-boronic acid pinacol ester;1-(Oxan-2-yl)-5-(4,4,5,5-tetramethyl-1,3,2-dioxaborolan-2-yl)imidazole",
    "duplicated_cas_no": "",
    "SMILES": "CC1(C)OB(OC1(C)C)C=2N(C=NC2)C3CCCCO3",
    "meta_data": {
        "InChI": "InChI=1S/C14H23BN2O3/c1-13(2)14(3,4)20-15(19-13)11-9-16-10-17(11)12-7-5-6-8-18-12/h9-10,12H,5-8H2,1-4H3",
        "InChIKey": null,
        "Canonical SMILES": "N=1C=C(B2OC(C)(C)C(O2)(C)C)N(C1)C3OCCCC3",
        "Molecular Formula": "C<sub>14</sub>H<sub>23</sub>BN<sub>2</sub>O<sub>3</sub>",
        "Molecular Mass": "278.15",
        "Melting Point": "132 °C"
    }
}