{
    "cas_no": "140-95-4",
    "key_name": "Dimethylolurea",
    "cn_name": "1\"3-双羟甲基脲;",
    "alternate_name": "Urea, <em>N</em>,<em>N</em>′-bis(hydroxymethyl)-;Urea, 1,3-bis(hydroxymethyl)-;<em>N</em>,<em>N</em>′-Bis(hydroxymethyl)urea;<em>N</em>,<em>N</em>′-(Dihydroxymethyl)urea;Methural;Dimethylolurea;1,3-Dimethylolurea;Dimethanol urea;<em>N</em>,<em>N</em>′-Dimethylolurea;Protesine DMU;1,3-Bis(hydroxymethyl)urea;Oxymethurea;CSI Paste;Ureol P;Finish EN;Permafresh 477;Metural;DMU;Knittex ASL;Papirol J 001;NSC 41819;Texapret R-S",
    "duplicated_cas_no": "",
    "SMILES": "C(NCO)(NCO)=O",
    "meta_data": {
        "InChI": "InChI=1S/C3H8N2O3/c6-1-4-3(8)5-2-7/h6-7H,1-2H2,(H2,4,5,8)",
        "InChIKey": null,
        "Canonical SMILES": "O=C(NCO)NCO",
        "Molecular Formula": "C<sub>3</sub>H<sub>8</sub>N<sub>2</sub>O<sub>3</sub>",
        "Molecular Mass": "120.11",
        "Melting Point": "126 °C",
        "Density": "1.184 g/cm³ (solid)"
    }
}