{
    "cas_no": "69-74-9",
    "key_name": "Cytarabine hydrochloride",
    "cn_name": "盐酸阿糖胞苷;阿糖胞苷盐酸盐;1-beta-D-阿拉伯呋喃糖基-4-氨基-2(1H)-嘧啶酮盐酸盐;",
    "alternate_name": "2(1<em>H</em>)-Pyrimidinone, 4-amino-1-β-<span class=\"text-smallcaps\">D</span>-arabinofuranosyl-, hydrochloride (1:1);Cytosine, 1-β-<span class=\"text-smallcaps\">D</span>-arabinofuranosyl-, monohydrochloride;2(1<em>H</em>)-Pyrimidinone, 4-amino-1-β-<span class=\"text-smallcaps\">D</span>-arabinofuranosyl-, monohydrochloride;U 19920A;1-β-<span class=\"text-smallcaps\">D</span>-Arabinofuranosylcytosine hydrochloride;Cytarabine hydrochloride;Cytosine arabinoside hydrochloride;Aracytidine hydrochloride;1-β-<span class=\"text-smallcaps\">D</span>-Arabinofuranosylcytosine monohydrochloride;Arabinofuranosylcytosine hydrochloride;Arabinosylcytosine hydrochloride;Spongocytidine-hydrochloride",
    "duplicated_cas_no": "",
    "SMILES": "O[C@@H]1[C@@H](O[C@H](CO)[C@H]1O)N2C(=O)N=C(N)C=C2.Cl",
    "meta_data": {
        "InChI": "InChI=1S/C9H13N3O5.ClH/c10-5-1-2-12(9(16)11-5)8-7(15)6(14)4(3-13)17-8;/h1-2,4,6-8,13-15H,3H2,(H2,10,11,16);1H/t4-,6-,7+,8-;/m1./s1",
        "InChIKey": null,
        "Canonical SMILES": "Cl.O=C1N=C(N)C=CN1C2OC(CO)C(O)C2O",
        "Molecular Formula": "C<sub>9</sub>H<sub>13</sub>N<sub>3</sub>O<sub>5</sub>.ClH",
        "Molecular Mass": "",
        "Melting Point": "186-188 °C"
    }
}