{
    "cas_no": "82626-48-0",
    "key_name": "Zolpidem",
    "cn_name": "唑吡坦;N,N,6-三甲基-2-(4-甲基苯基)咪唑并[1,2-a]吡啶-3-乙酰胺;",
    "alternate_name": "Imidazo[1,2-<em>a</em>]pyridine-3-acetamide, <em>N</em>,<em>N</em>,6-trimethyl-2-(4-methylphenyl)-;<em>N</em>,<em>N</em>,6-Trimethyl-2-(4-methylphenyl)imidazo[1,2-<em>a</em>]pyridine-3-acetamide;Zolpidem;SL 80-0750;SL 800750;Edluar;Zoldem;Zolnod;Nytamel",
    "duplicated_cas_no": "",
    "SMILES": "C(C(N(C)C)=O)C1=C(N=C2N1C=C(C)C=C2)C3=CC=C(C)C=C3",
    "meta_data": {
        "InChI": "InChI=1S/C19H21N3O/c1-13-5-8-15(9-6-13)19-16(11-18(23)21(3)4)22-12-14(2)7-10-17(22)20-19/h5-10,12H,11H2,1-4H3",
        "InChIKey": null,
        "Canonical SMILES": "O=C(N(C)C)CC1=C(N=C2C=CC(=CN21)C)C3=CC=C(C=C3)C",
        "Molecular Formula": "C<sub>19</sub>H<sub>21</sub>N<sub>3</sub>O",
        "Molecular Mass": "307.39",
        "Melting Point": "196 °C"
    }
}