{
    "cas_no": "2378-02-1",
    "key_name": "Perfluoro-<em>tert</em>-butanol",
    "cn_name": "全氟叔丁醇;高氟叔丁醇;1,1,1,3,3,3-六氟-2-三氟甲基-2-丙醇;",
    "alternate_name": "2-Propanol, 1,1,1,3,3,3-hexafluoro-2-(trifluoromethyl)-;1,1,1,3,3,3-Hexafluoro-2-(trifluoromethyl)-2-propanol;Perfluoro-<em>tert</em>-butanol;Perfluoro-<em>tert</em>-butyl alcohol;2-(Trifluoromethyl)-1,1,1,3,3,3-hexafluoro-2-propanol;Nonafluoro-<em>tert</em>-butanol;Nonafluoro-<em>tert</em>-butyl alcohol;2,2,2-Trifluoro-1,1-bis(trifluoromethyl)ethanol;Perfluoro(2-methyl-2-propanol);Perfluoro-<em>t</em>-butanol;Tris(trifluoromethyl)methanol;TBOL;1,1-Bis(trifluoromethyl)-2,2,2-trifluoroethanol;1,1-Di(trifluoromethyl)-2,2,2-trifluoroethanol",
    "duplicated_cas_no": "1809986-51-3",
    "SMILES": "C(C(F)(F)F)(C(F)(F)F)(C(F)(F)F)O",
    "meta_data": {
        "InChI": "InChI=1S/C4HF9O/c5-2(6,7)1(14,3(8,9)10)4(11,12)13/h14H",
        "InChIKey": null,
        "Canonical SMILES": "FC(F)(F)C(O)(C(F)(F)F)C(F)(F)F",
        "Molecular Formula": "C<sub>4</sub>HF<sub>9</sub>O",
        "Molecular Mass": "236.04",
        "Boiling Point": "45 °C",
        "Melting Point": "-15 °C",
        "Density": "1.693 g/cm³ @ Temp: 20 °C"
    }
}