{
    "cas_no": "6440-58-0",
    "key_name": "DMDM Hydantoin",
    "cn_name": "1,3-二羟甲基-5,5-二甲基海因;",
    "alternate_name": "2,4-Imidazolidinedione, 1,3-bis(hydroxymethyl)-5,5-dimethyl-;Hydantoin, 1,3-bis(hydroxymethyl)-5,5-dimethyl-;1,3-Bis(hydroxymethyl)-5,5-dimethyl-2,4-imidazolidinedione;1,3-Bis(hydroxymethyl)-5,5-dimethylhydantoin;Dimethylol-5,5-dimethylhydantoin;<em>N</em>,<em>N</em>′-Dimethylol-5,5-dimethylhydantoin;DMDMH;DMDM Hydantoin;Dantoin DMDMH 55;1,3-Dimethylol-5,5-dimethylhydantoin;DMDMH 55;Glydant;Glydant XL 1000;Dantogard 2000;1,3-Dihydroxymethyl-5,5-dimethylhydantoin;Gidol;Dantogard;Surcide DMH;Mackstat DM;Nipaguard DMDMH;Dekafald;1,3-Bis(hydroxymethyl)-5,5-dimethylimidazolidine-2,4-dione;Glydant LTD;Mergal 395;K 2000;K 2000 (preservative)",
    "duplicated_cas_no": "",
    "SMILES": "CC1(C)N(CO)C(=O)N(CO)C1=O",
    "meta_data": {
        "InChI": "InChI=1S/C7H12N2O4/c1-7(2)5(12)8(3-10)6(13)9(7)4-11/h10-11H,3-4H2,1-2H3",
        "InChIKey": null,
        "Canonical SMILES": "O=C1N(C(=O)C(N1CO)(C)C)CO",
        "Molecular Formula": "C<sub>7</sub>H<sub>12</sub>N<sub>2</sub>O<sub>4</sub>",
        "Molecular Mass": "188.18",
        "Melting Point": "1.00-2.5 °C"
    }
}