{
    "cas_no": "21643-42-5",
    "key_name": "Tetradecyl acrylate",
    "cn_name": "丙烯酸十四酯;2-丙烯酸十四烷酯;",
    "alternate_name": "2-Propenoic acid, tetradecyl ester;Acrylic acid, tetradecyl ester;1-Tetradecanol, acrylate;Tetradecyl acrylate;<em>n</em>-Tetradecyl acrylate;Myristyl acrylate",
    "duplicated_cas_no": "",
    "SMILES": "C(CCCCCCCCCCC)CCOC(C=C)=O",
    "meta_data": {
        "InChI": "InChI=1S/C17H32O2/c1-3-5-6-7-8-9-10-11-12-13-14-15-16-19-17(18)4-2/h4H,2-3,5-16H2,1H3",
        "InChIKey": null,
        "Canonical SMILES": "O=C(OCCCCCCCCCCCCCC)C=C",
        "Molecular Formula": "C<sub>17</sub>H<sub>32</sub>O<sub>2</sub>",
        "Molecular Mass": "268.43",
        "Boiling Point": "138 °C @ Press: 0.4 Torr",
        "Melting Point": "14 °C",
        "Density": "0.8700 g/cm³ @ Temp: 20 °C"
    }
}