{
    "cas_no": "5961-59-1",
    "key_name": "4-Methoxy-<em>N</em>-methylbenzenamine",
    "cn_name": "N-甲基-4-氨基苯甲醚; 4-甲氧基-N-甲基苯胺;",
    "alternate_name": "Benzenamine, 4-methoxy-<em>N</em>-methyl-;<em>p</em>-Anisidine, <em>N</em>-methyl-;4-Methoxy-<em>N</em>-methylbenzenamine;<em>N</em>-Methyl-<em>p</em>-anisidine;<em>p</em>-Methoxy-<em>N</em>-methylaniline;4-Methoxy-<em>N</em>-methylaniline;<em>N</em>-Methyl-4-methoxyaniline;<em>p</em>-Methoxy-<em>N</em>-methylaminobenzene;<em>N</em>-Methyl-4-anisidine;<em>N</em>-Methyl-<em>p</em>-methoxyaniline;<em>N</em>-Methyl-4-methoxybenzenamine;4-(Methylamino)anisole;<em>N</em>-(4-Methoxyphenyl)-<em>N</em>-methylamine;NSC 159085;<em>N</em>-(4-Methoxyphenyl)methylamine;<em>N</em>-Methyl-<em>N</em>-(4-methoxyphenyl)amine;<em>N</em>-Methylp-anisidine",
    "duplicated_cas_no": "",
    "SMILES": "N(C)C1=CC=C(OC)C=C1",
    "meta_data": {
        "InChI": "InChI=1S/C8H11NO/c1-9-7-3-5-8(10-2)6-4-7/h3-6,9H,1-2H3",
        "InChIKey": null,
        "Canonical SMILES": "O(C1=CC=C(C=C1)NC)C",
        "Molecular Formula": "C<sub>8</sub>H<sub>11</sub>NO",
        "Molecular Mass": "137.18",
        "Boiling Point": "111-113 °C @ Press: 9 Torr",
        "Melting Point": "37 °C"
    }
}