{
    "cas_no": "5411-14-3",
    "key_name": "1,2-Phenylenedioxydiacetic acid",
    "cn_name": "1,2-亚苯基二氧二乙酸;邻苯二酚-O,O\"-二乙酸;",
    "alternate_name": "Acetic acid, 2,2′-[1,2-phenylenebis(oxy)]bis-;Acetic acid, (<em>o</em>-phenylenedioxy)di-;2,2′-[1,2-Phenylenebis(oxy)]bis[acetic acid];1,2-Phenylenedioxydiacetic acid;Benzene-1,2-dioxyacetic acid;NSC 10926;2-[2-(2-Hydroxy-2-oxoethoxy)phenoxy]acetic Acid;2-[2-(Carboxymethoxy)phenoxy]acetic acid",
    "duplicated_cas_no": "",
    "SMILES": "O(CC(O)=O)C1=C(OCC(O)=O)C=CC=C1",
    "meta_data": {
        "InChI": "InChI=1S/C10H10O6/c11-9(12)5-15-7-3-1-2-4-8(7)16-6-10(13)14/h1-4H,5-6H2,(H,11,12)(H,13,14)",
        "InChIKey": null,
        "Canonical SMILES": "O=C(O)COC=1C=CC=CC1OCC(=O)O",
        "Molecular Formula": "C<sub>10</sub>H<sub>10</sub>O<sub>6</sub>",
        "Molecular Mass": "226.18",
        "Melting Point": "173-174 °C"
    }
}