{
    "cas_no": "73250-68-7",
    "key_name": "2-(2-Benzothiazolyloxy)-<em>N</em>-methyl-<em>N</em>-phenylacetamide",
    "cn_name": "苯噻草胺;苯噻酰草胺;2-(1,3-苯并噻唑-2-基氧)-N-甲基-N-苯基乙酰胺;",
    "alternate_name": "Acetamide, 2-(2-benzothiazolyloxy)-<em>N</em>-methyl-<em>N</em>-phenyl-;2-(2-Benzothiazolyloxy)-<em>N</em>-methyl-<em>N</em>-phenylacetamide;FOE 1976;Mefenacet;NTN 801;Rancho;BTMPA;2-(Benzo[<em>d</em>]thiazol-2-yloxy)-<em>N</em>-methyl-<em>N</em>-phenylacetamide",
    "duplicated_cas_no": "97094-69-4;210883-93-5",
    "SMILES": "O(CC(N(C)C1=CC=CC=C1)=O)C2=NC=3C(S2)=CC=CC3",
    "meta_data": {
        "InChI": "InChI=1S/C16H14N2O2S/c1-18(12-7-3-2-4-8-12)15(19)11-20-16-17-13-9-5-6-10-14(13)21-16/h2-10H,11H2,1H3",
        "InChIKey": null,
        "Canonical SMILES": "O=C(N(C=1C=CC=CC1)C)COC2=NC=3C=CC=CC3S2",
        "Molecular Formula": "C<sub>16</sub>H<sub>14</sub>N<sub>2</sub>O<sub>2</sub>S",
        "Molecular Mass": "298.36",
        "Melting Point": "134.8 °C"
    }
}