{
    "cas_no": "112-57-2",
    "key_name": "Tetraethylenepentamine",
    "cn_name": "四乙烯五胺;四亚乙基五胺;三缩四乙二胺;",
    "alternate_name": "1,2-Ethanediamine, <em>N</em><sup>1</sup>-(2-aminoethyl)-<em>N</em><sup>2</sup>-[2-[(2-aminoethyl)amino]ethyl]-;Tetraethylenepentamine;1,2-Ethanediamine, <em>N</em>-(2-aminoethyl)-<em>N</em>′-[2-[(2-aminoethyl)amino]ethyl]-;<em>N</em><sup>1</sup>-(2-Aminoethyl)-<em>N</em><sup>2</sup>-[2-[(2-aminoethyl)amino]ethyl]-1,2-ethanediamine;3,6,9-Triazaundecane-1,11-diamine;1,11-Diamino-3,6,9-triazaundecane;Tetren;TEP;1,4,7,10,13-Pentaazatridecane;Tetraethylpentylamine;DEH 26;3,6,9-Triaza-1,11-diaminoundecane;Ancamine TEPA;TEPA;NSC 88603;<em>N</em>-(2-Aminoethyl)-<em>N</em>′-(2-((2-aminoethyl)amino)ethyl)-1,2-ethanediamine;T 11509;Bis[2-(2-aminoethylamino)ethyl]amine;AFR-AN 6;TH 160;Insulcure 9;Epikure 927;Epikure Curing Agent 927;Tetraethylene pentaamine;KCA 7700",
    "duplicated_cas_no": "115254-44-9;675120-38-4;778611-86-2;916431-34-0;107324-82-3;951317-92-3;1061621-16-6;1151794-16-9",
    "SMILES": "N(CCNCCN)CCNCCN",
    "meta_data": {
        "InChI": "InChI=1S/C8H23N5/c9-1-3-11-5-7-13-8-6-12-4-2-10/h11-13H,1-10H2",
        "InChIKey": null,
        "Canonical SMILES": "NCCNCCNCCNCCN",
        "Molecular Formula": "C<sub>8</sub>H<sub>23</sub>N<sub>5</sub>",
        "Molecular Mass": "189.30",
        "Boiling Point": "340.30 °C @ Press: 760 Torr",
        "Melting Point": "-30 °C",
        "Density": "0.9980 g/cm³ @ Temp: 20 °C"
    }
}