{
    "cas_no": "250726-93-3",
    "key_name": "2,3-Dihydro-5-(4,4,5,5-tetramethyl-1,3,2-dioxaborolan-2-yl)thieno[3,4-<em>b</em>]-1,4-dioxin",
    "cn_name": null,
    "alternate_name": "Thieno[3,4-<em>b</em>]-1,4-dioxin, 2,3-dihydro-5-(4,4,5,5-tetramethyl-1,3,2-dioxaborolan-2-yl)-;2,3-Dihydro-5-(4,4,5,5-tetramethyl-1,3,2-dioxaborolan-2-yl)thieno[3,4-<em>b</em>]-1,4-dioxin;5-(4,4,5,5-Tetramethyl-1,3,2-dioxaborolan-2-yl)-2,3-dihydrothieno[3,4-<em>b</em>][1,4]dioxine;2-(2,3-Dihydrothieno[3,4-<em>b</em>][1,4]dioxin-5-yl)-4,4,5,5-tetramethyl-1,3,2-dioxaborolane",
    "duplicated_cas_no": "1392406-86-8",
    "SMILES": "CC1(C)OB(C2=C3C(=CS2)OCCO3)OC1(C)C",
    "meta_data": {
        "InChI": "InChI=1S/C12H17BO4S/c1-11(2)12(3,4)17-13(16-11)10-9-8(7-18-10)14-5-6-15-9/h7H,5-6H2,1-4H3",
        "InChIKey": null,
        "Canonical SMILES": "O1B(OC(C)(C)C1(C)C)C=2SC=C3OCCOC32",
        "Molecular Formula": "C<sub>12</sub>H<sub>17</sub>BO<sub>4</sub>S",
        "Molecular Mass": "268.14",
        "Melting Point": "92 °C"
    }
}