{
    "cas_no": "6609-64-9",
    "key_name": "2-Chloro-2-oxo-1,3,2-dioxaphospholane",
    "cn_name": "2-氯-2-氧-1,3,2-二氧磷杂环戊烷;",
    "alternate_name": "1,3,2-Dioxaphospholane, 2-chloro-, 2-oxide;Phosphorochloridic acid, cyclic ethylene ester;Ethylene phosphorochloridate;2-Chloro-2-oxo-1,3,2-dioxaphospholane;Cyclic ethylene phosphorochloridate;Ethylene chlorophosphate;2-Chloro-1,3,2-dioxaphospholane 2-oxide;2-Chloro-2-oxido-1,3,2-dioxaphospholane;2-Chloro-1,3,2λ5-dioxaphospholan-2-one",
    "duplicated_cas_no": "",
    "SMILES": "ClP1(=O)OCCO1",
    "meta_data": {
        "InChI": "InChI=1S/C2H4ClO3P/c3-7(4)5-1-2-6-7/h1-2H2",
        "InChIKey": null,
        "Canonical SMILES": "O=P1(Cl)OCCO1",
        "Molecular Formula": "C<sub>2</sub>H<sub>4</sub>ClO<sub>3</sub>P",
        "Molecular Mass": "142.48",
        "Boiling Point": "89-91 °C @ Press: 0.8 Torr"
    }
}