{
    "cas_no": "2550-04-1",
    "key_name": "Allyltriethoxysilane",
    "cn_name": "烯丙基三乙氧基硅烷;三乙氧基-2-丙烯基硅烷;",
    "alternate_name": "Silane, triethoxy-2-propen-1-yl-;Silane, allyltriethoxy-;Silane, triethoxy-2-propenyl-;Triethoxy-2-propen-1-ylsilane;Allyltriethoxysilane;Triethoxyallylsilane;A 0564 (coupling agent);A 0564;3-(Triethoxysilyl)propene;2-Propenyltriethoxysilane;NSC 89735;LS 2920;SIA 0525.0",
    "duplicated_cas_no": "",
    "SMILES": "[Si](CC=C)(OCC)(OCC)OCC",
    "meta_data": {
        "InChI": "InChI=1S/C9H20O3Si/c1-5-9-13(10-6-2,11-7-3)12-8-4/h5H,1,6-9H2,2-4H3",
        "InChIKey": null,
        "Canonical SMILES": "O(CC)[Si](OCC)(OCC)CC=C",
        "Molecular Formula": "C<sub>9</sub>H<sub>20</sub>O<sub>3</sub>Si",
        "Molecular Mass": "204.34",
        "Boiling Point": "176 °C",
        "Density": "0.903 g/cm³"
    }
}