{
    "cas_no": "1674-33-5",
    "key_name": "1,2-Dichloropentane",
    "cn_name": null,
    "alternate_name": "Pentane, 1,2-dichloro-;1,2-Dichloropentane;1,2-Dichloro-<em>n</em>-pentane",
    "duplicated_cas_no": "",
    "SMILES": "C(CCC)(CCl)Cl",
    "meta_data": {
        "InChI": "InChI=1S/C5H10Cl2/c1-2-3-5(7)4-6/h5H,2-4H2,1H3",
        "InChIKey": null,
        "Canonical SMILES": "ClCC(Cl)CCC",
        "Molecular Formula": "C<sub>5</sub>H<sub>10</sub>Cl<sub>2</sub>",
        "Molecular Mass": "141.04",
        "Boiling Point": "148.3 °C",
        "Density": "1.0767 g/cm³ @ Temp: 25 °C"
    }
}