{
    "cas_no": "1333-07-9",
    "key_name": "Toluenesulfonamide",
    "cn_name": null,
    "alternate_name": "Benzenesulfonamide, <em>ar</em>-methyl-;<em>ar</em>-Toluenesulfonamide;Toluenesulfonamide;<em>ar</em>-Methylbenzenesulfonamide;Ketjenflex 3;Ketjenflex 7;Ketjenflex 15",
    "duplicated_cas_no": "",
    "SMILES": "",
    "meta_data": {
        "InChI": "",
        "InChIKey": null,
        "Canonical SMILES": "",
        "Molecular Formula": "C<sub>7</sub>H<sub>9</sub>NO<sub>2</sub>S",
        "Molecular Mass": "",
        "Melting Point": "193 °C"
    }
}