{
    "cas_no": "10500-57-9",
    "key_name": "5,6,7,8-Tetrahydroquinoline",
    "cn_name": "5,6,7,8-四氢喹啉;2,3-环己并吡啶;",
    "alternate_name": "Quinoline, 5,6,7,8-tetrahydro-;5,6,7,8-Tetrahydroquinoline;2,3-Cyclohexenopyridine;NSC 241127",
    "duplicated_cas_no": "",
    "SMILES": "C1=2C(CCCC1)=NC=CC2",
    "meta_data": {
        "InChI": "InChI=1S/C9H11N/c1-2-6-9-8(4-1)5-3-7-10-9/h3,5,7H,1-2,4,6H2",
        "InChIKey": null,
        "Canonical SMILES": "N=1C=CC=C2C1CCCC2",
        "Molecular Formula": "C<sub>9</sub>H<sub>11</sub>N",
        "Molecular Mass": "133.19",
        "Boiling Point": "222 °C",
        "Density": "1.025 g/cm³ @ Temp: 22 °C"
    }
}