{
    "cas_no": "175135-62-3",
    "key_name": "2-(2,4-Difluorophenoxy)-3-nitropyridine",
    "cn_name": null,
    "alternate_name": "Pyridine, 2-(2,4-difluorophenoxy)-3-nitro-;2-(2,4-Difluorophenoxy)-3-nitropyridine",
    "duplicated_cas_no": "",
    "SMILES": "O(C1=C(N(=O)=O)C=CC=N1)C2=C(F)C=C(F)C=C2",
    "meta_data": {
        "InChI": "InChI=1S/C11H6F2N2O3/c12-7-3-4-10(8(13)6-7)18-11-9(15(16)17)2-1-5-14-11/h1-6H",
        "InChIKey": null,
        "Canonical SMILES": "O=N(=O)C1=CC=CN=C1OC2=CC=C(F)C=C2F",
        "Molecular Formula": "C<sub>11</sub>H<sub>6</sub>F<sub>2</sub>N<sub>2</sub>O<sub>3</sub>",
        "Molecular Mass": "252.17",
        "Melting Point": "53-54 °C"
    }
}