{
    "cas_no": "122-03-2",
    "key_name": "Cuminaldehyde",
    "cn_name": "4-异丙基苯甲醛;对异丙基苯甲醛;枯茗醛;",
    "alternate_name": "Benzaldehyde, 4-(1-methylethyl)-;Benzaldehyde, <em>p</em>-isopropyl-;4-(1-Methylethyl)benzaldehyde;Cumaldehyde;Cumic aldehyde;Cuminal;Cuminic aldehyde;<em>p</em>-Isopropylbenzaldehyde;Cuminaldehyde;4-Isopropylbenzaldehyde;Cuminyl aldehyde;<em>p</em>-Cumic aldehyde;<em>p</em>-Isopropylbenzenecarboxaldehyde;NSC 4886;4-Isopropylphenylcarboxaldehyde;4-(Propan-2-yl)benzaldehyde;4-i-Propylbenzaldehyde",
    "duplicated_cas_no": "",
    "SMILES": "C(C)(C)C1=CC=C(C=O)C=C1",
    "meta_data": {
        "InChI": "InChI=1S/C10H12O/c1-8(2)10-5-3-9(7-11)4-6-10/h3-8H,1-2H3",
        "InChIKey": null,
        "Canonical SMILES": "O=CC1=CC=C(C=C1)C(C)C",
        "Molecular Formula": "C<sub>10</sub>H<sub>12</sub>O",
        "Molecular Mass": "148.20",
        "Boiling Point": "235.5 °C",
        "Melting Point": "97 °C",
        "Density": "0.9799 g/cm³ @ Temp: 30 °C"
    }
}