{
    "cas_no": "70627-52-0",
    "key_name": "4-Fluoro-<em>N</em>-[[4-(phenylmethoxy)phenyl]methylene]benzenamine",
    "cn_name": null,
    "alternate_name": "Benzenamine, 4-fluoro-<em>N</em>-[[4-(phenylmethoxy)phenyl]methylene]-;4-Fluoro-<em>N</em>-[[4-(phenylmethoxy)phenyl]methylene]benzenamine;4-Benzyloxybenzylidene 4-fluoroaniline;<em>N</em>-(4-(Benzyloxy)benzylidene)-4-fluoroaniline;1-(4-(Benzyloxy)phenyl)-<em>N</em>-(4-fluorophenyl)methanimine",
    "duplicated_cas_no": "688001-15-2",
    "SMILES": "C(=NC1=CC=C(F)C=C1)C2=CC=C(OCC3=CC=CC=C3)C=C2",
    "meta_data": {
        "InChI": "InChI=1S/C20H16FNO/c21-18-8-10-19(11-9-18)22-14-16-6-12-20(13-7-16)23-15-17-4-2-1-3-5-17/h1-14H,15H2",
        "InChIKey": null,
        "Canonical SMILES": "FC1=CC=C(N=CC2=CC=C(OCC=3C=CC=CC3)C=C2)C=C1",
        "Molecular Formula": "C<sub>20</sub>H<sub>16</sub>FNO",
        "Molecular Mass": "305.35",
        "Melting Point": "132-133 °C"
    }
}