{
    "cas_no": "7439-89-6",
    "key_name": "Iron",
    "cn_name": "铁;铁粉;还原铁粉;",
    "alternate_name": "Iron;Iron element;Loha;Armco iron;EO 5A;SUY-B 2;Ferrovac E;PZhO;3ZhP;Carbonyl iron;GS 6;EFV 250/400;Ancor EN 80/150;Atomet 28;EF 1000;TS 200R;ST 200R;EFV;EFV 250;EF 250;HF 2;EFV 200/300;MCK 1000;Atomiron 44MR;DSP 135;Metalet;DSP 128B;Atomel 300M200;KIP 300A;Atomiron AFP 25;Atomiron 5M;Atomiron AFP 5;Raney iron;KIP 270M;KG 200;DH;DSP 135C;Sicopur FF 4068;Hoeganaes EH;V 3 (iron);V 3;NEPY;R 100 (metal);R 100;KIP 300AS;RD 1;Hoeganaes ATW 230;ATW 230;ATW 432;Copy Powder CS 105-175;ISP-CIP-R 1470;FT 3;Sicopur SE 0667;FT 3 (element);DSP 138;OM Carbonyl Fe powder;S 3700;Micropowder R 2430;Micropowder S 1640;QMP Atomet 95G;SUYB 1;HF 2 (element);Ancor B;A 227;300A;RKH;Atomel 500M;F 60;F 60 (metal);HL (iron);HS (iron);SM;SU (iron);ISP 3700;SCM-A 220;HS 4849;KIP 300R;PZh 40M;Atomet 95;HQ (metal);HQ;TSV 40;TSV 50;KIP 255MC;DSP 1000;BASF-EW;KIP-MG 270H;KIP 304A;Carbon 0.17, iron 99.83 (atomic);AQ 80;RDL 300;Atomet 95G;Armco 80;CM (iron);HL;CM;HS;R 842 (iron);DM 96 (iron);R 842;ES (iron);KIP 240M;DM 96;ES;FEE;S 1641;NC 200;DKP;DKP (metal);ASC 300;Ferronyl;A 131;AC 325;Atomet 95SP;Electrolytic iron;RSI 325;ASC 300 (metal);Ancor Image 100;KIP 300;DNK 2R;MT 212;Atomet 67;Carbonyl iron powder HQ;Carbonyl iron powder SU;R 2430;FTF 4;PZhV 5;P 100;RDH 3M;S 1281;S 1281 (metal);R 10;Mairon SHP;Mairon UHP;A 227 (iron);R 1470;MA-FN 200;H 200;NF 325;NFX 325;EF 1000 (metal);EW 1;ISP-S 3700;Ferricon;KIP-K 100T;EQ;MV 144;Carbonyl iron powder SM;FEE 13PB;DT 50 (metal);Ferrotech Agratil Aust;RNIP 10DP;RNIP-M 2;MPS-MRF 35;NRD 3K;Fe(HQ);CS;RDL 300A;FE 223409;Actino-iron;LDT 20;Fe-S 350;S 52C;FTF 1;ML 35N;FTF 1 (iron);EW 10;E 200;CF Grade;Ferrovit;XD 800;Softgrade SM;FA-SCM 440LC;SP 3B;JIP 240M;Carbonyl Iron Powder ES;Carbonyl Iron Powder CS;BASF CS;S 100;FEE 12PB;DKP 100;ZVI-H 200 Plus;RDL 500;MH 23D;DSP 317;DAE 1K;Nanofer 25N;TEC-BALL;Ferox-Flow ZVI;H 150 (metal);CI-CS;MH 28N;Stapa IL Ferricon Resist 200;JIP 303A60;CIP EW;CIP SQ;JIP 270M;CIP-CM;R 20;PDR-CM;LDT 503;HYFE 300;P 10;CIP CC;LDXB 100;MONDI;Mairon PM 250;UFPI;9A4II;Carbonyl iron powder SQ-I;Fe 400;S1640;JIP K 100T;HD-R 1;R 1521;I 116363;P 20;PMZh 33;CIP 3189;PT-F 40;PT-F 30;KS 22A;AM-Fe 005-2;Somaloy 500H;HD-R 5;JCF 1-3;BNWFI 6;RKH 3;JIP 300A120;MeSH ID: D007501;YX 5-5;YW 3",
    "duplicated_cas_no": "8011-79-8;8053-60-9;39344-71-3;70884-35-4;73135-38-3;129048-51-7;161135-39-3;190454-13-8;195161-83-2;199281-22-6;443783-52-6;490018-39-8;675141-17-0;1867181-06-3;2230894-10-5",
    "SMILES": "[Fe]",
    "meta_data": {
        "InChI": "InChI=1S/Fe",
        "InChIKey": null,
        "Canonical SMILES": "[Fe]",
        "Molecular Formula": "Fe",
        "Molecular Mass": "",
        "Boiling Point": "3000 °C",
        "Melting Point": "1535 °C",
        "Density": "7.86 g/cm³"
    }
}