{
    "cas_no": "19398-06-2",
    "key_name": "Hydrazine, (2-ethylphenyl)-, hydrochloride (1:1)",
    "cn_name": "2-乙基苯肼单盐酸盐;邻乙基苯肼单盐酸盐;",
    "alternate_name": "Hydrazine, (2-ethylphenyl)-, hydrochloride (1:1);Hydrazine, (<em>o</em>-ethylphenyl)-, monohydrochloride;Hydrazine, (2-ethylphenyl)-, monohydrochloride;Hydrazine, (<em>o</em>-ethylphenyl)-, hydrochloride;1-(2-Ethylphenyl)hydrazine hydrochloride;2-Ethyl Phenyl Hydrazine Hydrochloride",
    "duplicated_cas_no": "",
    "SMILES": "C(C)C1=C(NN)C=CC=C1.Cl",
    "meta_data": {
        "InChI": "InChI=1S/C8H12N2.ClH/c1-2-7-5-3-4-6-8(7)10-9;/h3-6,10H,2,9H2,1H3;1H",
        "InChIKey": null,
        "Canonical SMILES": "Cl.NNC=1C=CC=CC1CC",
        "Molecular Formula": "C<sub>8</sub>H<sub>12</sub>N<sub>2</sub>.ClH",
        "Molecular Mass": "",
        "Melting Point": "177-181 °C"
    }
}