{
    "cas_no": "6312-87-4",
    "key_name": "<em>N</em>-(4-Phenoxyphenyl)acetamide",
    "cn_name": null,
    "alternate_name": "Acetamide, <em>N</em>-(4-phenoxyphenyl)-;Acetanilide, 4′-phenoxy-;<em>N</em>-(4-Phenoxyphenyl)acetamide;4′-Phenoxyacetanilide;4-Acetylaminodiphenyl ether;4-(Acetylamino)-1,1′-diphenyl ether;NSC 40576;<em>N</em>-Acetyl-4-phenoxyaniline",
    "duplicated_cas_no": "",
    "SMILES": "O(C1=CC=C(NC(C)=O)C=C1)C2=CC=CC=C2",
    "meta_data": {
        "InChI": "InChI=1S/C14H13NO2/c1-11(16)15-12-7-9-14(10-8-12)17-13-5-3-2-4-6-13/h2-10H,1H3,(H,15,16)",
        "InChIKey": null,
        "Canonical SMILES": "O=C(NC1=CC=C(OC=2C=CC=CC2)C=C1)C",
        "Molecular Formula": "C<sub>14</sub>H<sub>13</sub>NO<sub>2</sub>",
        "Molecular Mass": "227.26",
        "Melting Point": "130 °C"
    }
}