{
    "cas_no": "102-97-6",
    "key_name": "Isopropylbenzylamine",
    "cn_name": "N-苄基异丙胺;",
    "alternate_name": "Benzenemethanamine, <em>N</em>-(1-methylethyl)-;Benzylamine, <em>N</em>-isopropyl-;<em>N</em>-(1-Methylethyl)benzenemethanamine;<em>N</em>-Isopropylbenzylamine;Benzylisopropylamine;<em>N</em>-Benzyl-<em>N</em>-isopropylamine;<em>N</em>-Benzylisopropylamine;Isopropylbenzylamine;NSC 60295;<em>N</em>-Benzylpropan-2-amine;<em>N</em>-Isopropyl-<em>N</em>-benzylamine;(1-Methylethyl)(phenylmethyl)amine",
    "duplicated_cas_no": "",
    "SMILES": "C(NC(C)C)C1=CC=CC=C1",
    "meta_data": {
        "InChI": "InChI=1S/C10H15N/c1-9(2)11-8-10-6-4-3-5-7-10/h3-7,9,11H,8H2,1-2H3",
        "InChIKey": null,
        "Canonical SMILES": "C=1C=CC(=CC1)CNC(C)C",
        "Molecular Formula": "C<sub>10</sub>H<sub>15</sub>N",
        "Molecular Mass": "149.23",
        "Boiling Point": "200 °C",
        "Melting Point": "103-104 °C"
    }
}