{
    "cas_no": "57524-89-7",
    "key_name": "Hydrocortisone valerate",
    "cn_name": "氢化可的松戊酸酯;氢化可的松-17-戊酸酯;",
    "alternate_name": "Pregn-4-ene-3,20-dione, 11,21-dihydroxy-17-[(1-oxopentyl)oxy]-, (11β)-;Cortisol, 17-valerate;(11β)-11,21-Dihydroxy-17-[(1-oxopentyl)oxy]pregn-4-ene-3,20-dione;Hydrocortisone valerate;Hydrocortisone 17-valerate;11β,21-Dihydroxy-17α-valeryloxy-4-pregnene-3,20-dione;Hydrocortisone pentanoate;Westcort;HydroVal",
    "duplicated_cas_no": "",
    "SMILES": "O(C(CCCC)=O)[C@@]1(C(CO)=O)[C@]2(C)[C@@](CC1)([C@]3([C@]([C@@H](O)C2)([C@]4(C)C(CC3)=CC(=O)CC4)[H])[H])[H]",
    "meta_data": {
        "InChI": "InChI=1S/C26H38O6/c1-4-5-6-22(31)32-26(21(30)15-27)12-10-19-18-8-7-16-13-17(28)9-11-24(16,2)23(18)20(29)14-25(19,26)3/h13,18-20,23,27,29H,4-12,14-15H2,1-3H3/t18-,19-,20-,23+,24-,25-,26-/m0/s1",
        "InChIKey": null,
        "Canonical SMILES": "O=C(OC1(C(=O)CO)CCC2C3CCC4=CC(=O)CCC4(C)C3C(O)CC21C)CCCC",
        "Molecular Formula": "C<sub>26</sub>H<sub>38</sub>O<sub>6</sub>",
        "Molecular Mass": "446.58",
        "Melting Point": "217-220 °C"
    }
}