{
    "cas_no": "104-97-2",
    "key_name": "Cyclopentanepropanoyl chloride",
    "cn_name": "3-环戊基丙酰氯;",
    "alternate_name": "Cyclopentanepropanoyl chloride;Cyclopentanepropionyl chloride;3-Cyclopentylpropionyl chloride;3-Cyclopentanepropionyl chloride;3-Cyclopentylpropanoyl chloride;3-Cyclopentylpropionic acid chloride",
    "duplicated_cas_no": "",
    "SMILES": "C(CC(Cl)=O)C1CCCC1",
    "meta_data": {
        "InChI": "InChI=1S/C8H13ClO/c9-8(10)6-5-7-3-1-2-4-7/h7H,1-6H2",
        "InChIKey": null,
        "Canonical SMILES": "O=C(Cl)CCC1CCCC1",
        "Molecular Formula": "C<sub>8</sub>H<sub>13</sub>ClO",
        "Molecular Mass": "160.64",
        "Boiling Point": "66 °C @ Press: 1.5 Torr"
    }
}