{
    "cas_no": "73576-33-7",
    "key_name": "4-Chloro-6-(1-methylethyl)-2-pyrimidinamine",
    "cn_name": "2-氨基-4-异丙基-6-氯嘧啶;",
    "alternate_name": "2-Pyrimidinamine, 4-chloro-6-(1-methylethyl)-;4-Chloro-6-(1-methylethyl)-2-pyrimidinamine;2-Amino-4-chloro-6-isopropylpyrimidine;4-Chloro-6-isopropylpyrimidin-2-amine",
    "duplicated_cas_no": "",
    "SMILES": "C(C)(C)C=1C=C(Cl)N=C(N)N1",
    "meta_data": {
        "InChI": "InChI=1S/C7H10ClN3/c1-4(2)5-3-6(8)11-7(9)10-5/h3-4H,1-2H3,(H2,9,10,11)",
        "InChIKey": null,
        "Canonical SMILES": "ClC=1N=C(N=C(C1)C(C)C)N",
        "Molecular Formula": "C<sub>7</sub>H<sub>10</sub>ClN<sub>3</sub>",
        "Molecular Mass": "171.63",
        "Melting Point": "99-102 °C"
    }
}