{
    "cas_no": "528-45-0",
    "key_name": "3,4-Dinitrobenzoic acid",
    "cn_name": "3,4-二硝基苯甲酸;",
    "alternate_name": "Benzoic acid, 3,4-dinitro-;3,4-Dinitrobenzoic acid;NSC 60713",
    "duplicated_cas_no": "",
    "SMILES": "N(=O)(=O)C1=C(N(=O)=O)C=CC(C(O)=O)=C1",
    "meta_data": {
        "InChI": "InChI=1S/C7H4N2O6/c10-7(11)4-1-2-5(8(12)13)6(3-4)9(14)15/h1-3H,(H,10,11)",
        "InChIKey": null,
        "Canonical SMILES": "O=C(O)C1=CC=C(C(=C1)N(=O)=O)N(=O)=O",
        "Molecular Formula": "C<sub>7</sub>H<sub>4</sub>N<sub>2</sub>O<sub>6</sub>",
        "Molecular Mass": "212.12",
        "Melting Point": "166 °C"
    }
}