{
    "cas_no": "33641-15-5",
    "key_name": "1-Methyl-1<em>H</em>-pyrazol-5-ol",
    "cn_name": null,
    "alternate_name": "1<em>H</em>-Pyrazol-5-ol, 1-methyl-;Pyrazol-5-ol, 1-methyl-;1-Methyl-1<em>H</em>-pyrazol-5-ol;5-Hydroxy-1-methylpyrazole;1-Methyl-5-hydroxypyrazole;5-Hydroxy-1-methyl-5-pyrazole;1-Methyl-5-hydroxy-1<em>H</em>-pyrazole;2-Methyl-2<em>H</em>-pyrazol-3-ol",
    "duplicated_cas_no": "",
    "SMILES": "OC=1N(C)N=CC1",
    "meta_data": {
        "InChI": "InChI=1S/C4H6N2O/c1-6-4(7)2-3-5-6/h2-3,7H,1H3",
        "InChIKey": null,
        "Canonical SMILES": "OC1=CC=NN1C",
        "Molecular Formula": "C<sub>4</sub>H<sub>6</sub>N<sub>2</sub>O",
        "Molecular Mass": "98.10",
        "Melting Point": "70-110 °C"
    }
}