{
    "cas_no": "38116-61-9",
    "key_name": "2-Hydroxy-6-methylnicotinic acid",
    "cn_name": "2-羟基-6-甲基烟酸;2-羟基-6-甲基吡啶-3-羧酸;",
    "alternate_name": "3-Pyridinecarboxylic acid, 1,2-dihydro-6-methyl-2-oxo-;Nicotinic acid, 1,2-dihydro-6-methyl-2-oxo-;Nicotinic acid, 2-hydroxy-6-methyl-;1,2-Dihydro-6-methyl-2-oxo-3-pyridinecarboxylic acid;2-Hydroxy-6-methylnicotinic acid;2-Hydroxy-6-methylpyridine-3-carboxylic acid;1,2-Dihydro-6-methyl-2-oxonicotinic acid;6-Methyl-2-pyridone-3-carboxylic acid;NSC 10728;6-Methyl-2-oxo-1,2-dihydropyridine-3-carboxylic acid",
    "duplicated_cas_no": "",
    "SMILES": "C(O)(=O)C=1C(=O)NC(C)=CC1",
    "meta_data": {
        "InChI": "InChI=1S/C7H7NO3/c1-4-2-3-5(7(10)11)6(9)8-4/h2-3H,1H3,(H,8,9)(H,10,11)",
        "InChIKey": null,
        "Canonical SMILES": "O=C(O)C1=CC=C(NC1=O)C",
        "Molecular Formula": "C<sub>7</sub>H<sub>7</sub>NO<sub>3</sub>",
        "Molecular Mass": "153.14",
        "Melting Point": "227 °C (decomp)"
    }
}