{
    "cas_no": "94695-48-4",
    "key_name": "2,3,4,5-Tetrafluorobenzoyl chloride",
    "cn_name": "四氟苯甲酰氯;2,3,4,5-四氟苯甲酰氯;",
    "alternate_name": "Benzoyl chloride, 2,3,4,5-tetrafluoro-;2,3,4,5-Tetrafluorobenzoyl chloride;2,3,4,5-Tetrafluorobenzoic acid chloride",
    "duplicated_cas_no": "",
    "SMILES": "C(Cl)(=O)C1=C(F)C(F)=C(F)C(F)=C1",
    "meta_data": {
        "InChI": "InChI=1S/C7HClF4O/c8-7(13)2-1-3(9)5(11)6(12)4(2)10/h1H",
        "InChIKey": null,
        "Canonical SMILES": "O=C(Cl)C1=CC(F)=C(F)C(F)=C1F",
        "Molecular Formula": "C<sub>7</sub>HClF<sub>4</sub>O",
        "Molecular Mass": "212.53",
        "Boiling Point": "65-70 °C @ Press: 15 Torr"
    }
}