{
    "cas_no": "2136-72-3",
    "key_name": "2-(Octadecyloxy)ethanol",
    "cn_name": "2-(OCTADECYLOXY)ETHANOL;",
    "alternate_name": "Ethanol, 2-(octadecyloxy)-;2-(Octadecyloxy)ethanol;2-Octadecoxyethanol;Ethylene glycol monooctadecyl ether;Hydroxyethyl stearyl ether;3-Oxa-1-heneicosanol;Ethylene glycol monostearyl ether;2-Octadecyloxy-1-ethanol",
    "duplicated_cas_no": "",
    "SMILES": "C(CCCCCCCOCCO)CCCCCCCCCC",
    "meta_data": {
        "InChI": "InChI=1S/C20H42O2/c1-2-3-4-5-6-7-8-9-10-11-12-13-14-15-16-17-19-22-20-18-21/h21H,2-20H2,1H3",
        "InChIKey": null,
        "Canonical SMILES": "OCCOCCCCCCCCCCCCCCCCCC",
        "Molecular Formula": "C<sub>20</sub>H<sub>42</sub>O<sub>2</sub>",
        "Molecular Mass": "314.55",
        "Melting Point": "49-50 °C"
    }
}