{
    "cas_no": "4314-22-1",
    "key_name": "1<em>H</em>-1,2,3-Triazole-1-acetic acid",
    "cn_name": null,
    "alternate_name": "1<em>H</em>-1,2,3-Triazole-1-acetic acid;2-(1,2,3-Triazol-1-yl)acetic acid;2-(1<em>H</em>-1,2,3-Triazol-1-yl)acetic acid;(1<em>H</em>-[1,2,3]Triazol-1-yl)acetic acid;(1,2,3-Triazol-1-yl)acetic acid;2-(Triazol-1-yl)acetic acid",
    "duplicated_cas_no": "",
    "SMILES": "C(C(O)=O)N1C=CN=N1",
    "meta_data": {
        "InChI": "InChI=1S/C4H5N3O2/c8-4(9)3-7-2-1-5-6-7/h1-2H,3H2,(H,8,9)",
        "InChIKey": null,
        "Canonical SMILES": "O=C(O)CN1N=NC=C1",
        "Molecular Formula": "C<sub>4</sub>H<sub>5</sub>N<sub>3</sub>O<sub>2</sub>",
        "Molecular Mass": "127.10",
        "Melting Point": "209 °C (decomp)"
    }
}