{
    "cas_no": "13122-91-3",
    "key_name": "<em>N</em>-[(Phenylmethoxy)carbonyl]-<span class=\"text-smallcaps\">L</smallcap>-phenylalanyl-<smallcap>L</span>-phenylalanine",
    "cn_name": "N-苄氧羰基-L-苯内氨酰基-L-半胱氨酸;3-苯基-N-[3-苯基-N-[(苯基甲氧基)羰基]-L-丙氨酰]-L-丙氨酸;",
    "alternate_name": "<span class=\"text-smallcaps\">L</smallcap>-Phenylalanine, <em>N</em>-[(phenylmethoxy)carbonyl]-<smallcap>L</span>-phenylalanyl-;Alanine, <em>N</em>-(<em>N</em>-carboxy-3-phenyl-<span class=\"text-smallcaps\">L</smallcap>-alanyl)-3-phenyl-, <em>N</em>-benzyl ester, <smallcap>L</span>-;<span class=\"text-smallcaps\">L</smallcap>-Phenylalanine, <em>N</em>-[<em>N</em>-[(phenylmethoxy)carbonyl]-<smallcap>L</span>-phenylalanyl]-;<em>N</em>-[(Phenylmethoxy)carbonyl]-<span class=\"text-smallcaps\">L</smallcap>-phenylalanyl-<smallcap>L</span>-phenylalanine;<em>N</em>-Benzyloxycarbonyl-<span class=\"text-smallcaps\">L</smallcap>-phenylalanyl-<smallcap>L</span>-phenylalanine;Cbz-Phe-Phe-OH",
    "duplicated_cas_no": "",
    "SMILES": "[C@H](CC1=CC=CC=C1)(C(N[C@@H](CC2=CC=CC=C2)C(O)=O)=O)NC(OCC3=CC=CC=C3)=O",
    "meta_data": {
        "InChI": "InChI=1S/C26H26N2O5/c29-24(27-23(25(30)31)17-20-12-6-2-7-13-20)22(16-19-10-4-1-5-11-19)28-26(32)33-18-21-14-8-3-9-15-21/h1-15,22-23H,16-18H2,(H,27,29)(H,28,32)(H,30,31)/t22-,23-/m0/s1",
        "InChIKey": null,
        "Canonical SMILES": "O=C(OCC=1C=CC=CC1)NC(C(=O)NC(C(=O)O)CC=2C=CC=CC2)CC=3C=CC=CC3",
        "Molecular Formula": "C<sub>26</sub>H<sub>26</sub>N<sub>2</sub>O<sub>5</sub>",
        "Molecular Mass": "446.49",
        "Melting Point": "155-156 °C"
    }
}