{
    "cas_no": "628-20-6",
    "key_name": "4-Chlorobutyronitrile",
    "cn_name": "4-氯丁腈;4-氯正丁腈;",
    "alternate_name": "Butanenitrile, 4-chloro-;Butyronitrile, 4-chloro-;4-Chlorobutanenitrile;4-Chlorobutyronitrile;γ-Chlorobutyronitrile;NSC 8410",
    "duplicated_cas_no": "",
    "SMILES": "C(CC#N)CCl",
    "meta_data": {
        "InChI": "InChI=1S/C4H6ClN/c5-3-1-2-4-6/h1-3H2",
        "InChIKey": null,
        "Canonical SMILES": "N#CCCCCl",
        "Molecular Formula": "C<sub>4</sub>H<sub>6</sub>ClN",
        "Molecular Mass": "103.55",
        "Boiling Point": "192 °C",
        "Density": "1.07910-1.07917 g/cm³ @ Temp: 30 °C"
    }
}