{
    "cas_no": "84-64-0",
    "key_name": "Butyl cyclohexyl phthalate",
    "cn_name": null,
    "alternate_name": "1,2-Benzenedicarboxylic acid, 1-butyl 2-cyclohexyl ester;Phthalic acid, butyl cyclohexyl ester;1,2-Benzenedicarboxylic acid, butyl cyclohexyl ester;Butyl cyclohexyl phthalate;Cyclohexyl butyl phthalate;Elastex 50B;NSC 69994",
    "duplicated_cas_no": "",
    "SMILES": "C(OC1CCCCC1)(=O)C2=C(C(OCCCC)=O)C=CC=C2",
    "meta_data": {
        "InChI": "InChI=1S/C18H24O4/c1-2-3-13-21-17(19)15-11-7-8-12-16(15)18(20)22-14-9-5-4-6-10-14/h7-8,11-12,14H,2-6,9-10,13H2,1H3",
        "InChIKey": null,
        "Canonical SMILES": "O=C(OCCCC)C=1C=CC=CC1C(=O)OC2CCCCC2",
        "Molecular Formula": "C<sub>18</sub>H<sub>24</sub>O<sub>4</sub>",
        "Molecular Mass": "304.38",
        "Boiling Point": "189-222 °C @ Press: 5 Torr",
        "Melting Point": "&lt;25 °C",
        "Density": "1.076 g/cm³ @ Temp: 25 °C"
    }
}