{
    "cas_no": "873-94-9",
    "key_name": "3,3,5-Trimethylcyclohexanone",
    "cn_name": "3,3,5-三甲基环己酮;",
    "alternate_name": "Cyclohexanone, 3,3,5-trimethyl-;3,3,5-Trimethylcyclohexanone;Dihydroisophorone;3,3,5-Trimethyl-1-cyclohexanone;(±)-3,3,5-Trimethylcyclohexanone;(±)-Dihydroisophorone",
    "duplicated_cas_no": "33496-91-2",
    "SMILES": "CC1(C)CC(C)CC(=O)C1",
    "meta_data": {
        "InChI": "InChI=1S/C9H16O/c1-7-4-8(10)6-9(2,3)5-7/h7H,4-6H2,1-3H3",
        "InChIKey": null,
        "Canonical SMILES": "O=C1CC(C)CC(C)(C)C1",
        "Molecular Formula": "C<sub>9</sub>H<sub>16</sub>O",
        "Molecular Mass": "140.22",
        "Boiling Point": "189 °C",
        "Melting Point": "180 °C",
        "Density": "0.9223 g/cm³ @ Temp: 19 °C"
    }
}