{
    "cas_no": "536-89-0",
    "key_name": "(3-Methylphenyl)hydrazine",
    "cn_name": "3-甲苯肼;3-甲基苯肼;间甲苯肼;",
    "alternate_name": "Hydrazine, (3-methylphenyl)-;Hydrazine, <em>m</em>-tolyl-;(3-Methylphenyl)hydrazine;<em>m</em>-Tolylhydrazine;(<em>m</em>-Methylphenyl)hydrazine;<em>N</em>-(<em>m</em>-Tolyl)hydrazine",
    "duplicated_cas_no": "",
    "SMILES": "N(N)C1=CC(C)=CC=C1",
    "meta_data": {
        "InChI": "InChI=1S/C7H10N2/c1-6-3-2-4-7(5-6)9-8/h2-5,9H,8H2,1H3",
        "InChIKey": null,
        "Canonical SMILES": "NNC1=CC=CC(=C1)C",
        "Molecular Formula": "C<sub>7</sub>H<sub>10</sub>N<sub>2</sub>",
        "Molecular Mass": "122.17",
        "Boiling Point": "135-137 °C @ Press: 20 Torr",
        "Melting Point": "192-193 °C (decomp)"
    }
}