{
    "cas_no": "100-58-3",
    "key_name": "Phenylmagnesium bromide",
    "cn_name": "苯基溴化镁;溴化苯基镁;",
    "alternate_name": "Magnesium, bromophenyl-;Phenylmagnesium bromide;Bromophenylmagnesium;Bromomagnesiobenzene",
    "duplicated_cas_no": "26185-68-2;191084-03-4",
    "SMILES": "[Mg](Br)C1=CC=CC=C1",
    "meta_data": {
        "InChI": "InChI=1S/C6H5.BrH.Mg/c1-2-4-6-5-3-1;;/h1-5H;1H;/q;;+1/p-1",
        "InChIKey": null,
        "Canonical SMILES": "Br[Mg]C=1C=CC=CC1",
        "Molecular Formula": "C<sub>6</sub>H<sub>5</sub>BrMg",
        "Molecular Mass": "",
        "Melting Point": "153-154 °C"
    }
}