{
    "cas_no": "33228-44-3",
    "key_name": "4-Pentylaniline",
    "cn_name": "4-戊基苯胺;",
    "alternate_name": "Benzenamine, 4-pentyl-;Aniline, <em>p</em>-pentyl-;4-Pentylbenzenamine;<em>p</em>-<em>n</em>-Pentylaniline;<em>p</em>-Pentylaniline;<em>p</em>-Amylaniline;4-Pentylaniline;4-<em>n</em>-Pentylaniline;4-Pentylphenylamine",
    "duplicated_cas_no": "",
    "SMILES": "C(CCCC)C1=CC=C(N)C=C1",
    "meta_data": {
        "InChI": "InChI=1S/C11H17N/c1-2-3-4-5-10-6-8-11(12)9-7-10/h6-9H,2-5,12H2,1H3",
        "InChIKey": null,
        "Canonical SMILES": "NC1=CC=C(C=C1)CCCCC",
        "Molecular Formula": "C<sub>11</sub>H<sub>17</sub>N",
        "Molecular Mass": "163.26",
        "Boiling Point": "130 °C @ Press: 16 Torr",
        "Density": "0.950 g/cm³ @ Temp: 20 °C"
    }
}