{
    "cas_no": "4981-63-9",
    "key_name": "1-(4-Chlorophenyl)-1-butanone",
    "cn_name": null,
    "alternate_name": "1-Butanone, 1-(4-chlorophenyl)-;Butyrophenone, 4′-chloro-;1-(4-Chlorophenyl)-1-butanone;<em>p</em>-Chlorobutyrophenone;4′-Chlorobutyrophenone;4-Chlorophenyl propyl ketone;<em>p</em>-Chlorophenyl propyl ketone;Propyl 4-chlorophenyl ketone",
    "duplicated_cas_no": "",
    "SMILES": "C(CCC)(=O)C1=CC=C(Cl)C=C1",
    "meta_data": {
        "InChI": "InChI=1S/C10H11ClO/c1-2-3-10(12)8-4-6-9(11)7-5-8/h4-7H,2-3H2,1H3",
        "InChIKey": null,
        "Canonical SMILES": "O=C(C1=CC=C(Cl)C=C1)CCC",
        "Molecular Formula": "C<sub>10</sub>H<sub>11</sub>ClO",
        "Molecular Mass": "182.65",
        "Boiling Point": "136-138 °C @ Press: 22 Torr",
        "Melting Point": "36 °C"
    }
}