{
    "cas_no": "32884-36-9",
    "key_name": "Cajanin",
    "cn_name": null,
    "alternate_name": "4<em>H</em>-1-Benzopyran-4-one, 3-(2,4-dihydroxyphenyl)-5-hydroxy-7-methoxy-;Isoflavone, 2′,4′,5-trihydroxy-7-methoxy-;3-(2,4-Dihydroxyphenyl)-5-hydroxy-7-methoxy-4<em>H</em>-1-benzopyran-4-one;Cajanin",
    "duplicated_cas_no": "",
    "SMILES": "O=C1C=2C(=CC(OC)=CC2O)OC=C1C3=C(O)C=C(O)C=C3",
    "meta_data": {
        "InChI": "InChI=1S/C16H12O6/c1-21-9-5-13(19)15-14(6-9)22-7-11(16(15)20)10-3-2-8(17)4-12(10)18/h2-7,17-19H,1H3",
        "InChIKey": null,
        "Canonical SMILES": "O=C1C(=COC2=CC(OC)=CC(O)=C12)C=3C=CC(O)=CC3O",
        "Molecular Formula": "C<sub>16</sub>H<sub>12</sub>O<sub>6</sub>",
        "Molecular Mass": "300.26",
        "Melting Point": "208-210 °C"
    }
}