{
    "cas_no": "921-03-9",
    "key_name": "1,1,3-Trichloroacetone",
    "cn_name": "1,1,3-三氯丙酮;",
    "alternate_name": "2-Propanone, 1,1,3-trichloro-;1,1,3-Trichloro-2-propanone;α,α′,α′-Trichloroacetone;1,1,3-Trichloroacetone;1,1,2-Trichloroacetone",
    "duplicated_cas_no": "",
    "SMILES": "C(C(Cl)Cl)(CCl)=O",
    "meta_data": {
        "InChI": "InChI=1S/C3H3Cl3O/c4-1-2(7)3(5)6/h3H,1H2",
        "InChIKey": null,
        "Canonical SMILES": "O=C(CCl)C(Cl)Cl",
        "Molecular Formula": "C<sub>3</sub>H<sub>3</sub>Cl<sub>3</sub>O",
        "Molecular Mass": "161.41",
        "Boiling Point": "172 °C"
    }
}