{
    "cas_no": "117-21-5",
    "key_name": "3-Chlorophthalic anhydride",
    "cn_name": "3-氯代苯酐;氯代苯酐;",
    "alternate_name": "1,3-Isobenzofurandione, 4-chloro-;Phthalic anhydride, 3-chloro-;4-Chloro-1,3-isobenzofurandione;3-Chlorophthalic anhydride;3-Chlorophthalic acid anhydride;NSC 122937;4-Chloroisobenzofuran-1,3-dione",
    "duplicated_cas_no": "",
    "SMILES": "ClC1=C2C(C(=O)OC2=O)=CC=C1",
    "meta_data": {
        "InChI": "InChI=1S/C8H3ClO3/c9-5-3-1-2-4-6(5)8(11)12-7(4)10/h1-3H",
        "InChIKey": null,
        "Canonical SMILES": "O=C1OC(=O)C=2C(Cl)=CC=CC12",
        "Molecular Formula": "C<sub>8</sub>H<sub>3</sub>ClO<sub>3</sub>",
        "Molecular Mass": "182.56",
        "Melting Point": "124.80 °C"
    }
}