{
    "cas_no": "26673-31-4",
    "key_name": "6-Chloro-1-tetralone",
    "cn_name": "6-氯-3,4-二氢-2H-1-萘酮;6-氯-1-四氢萘酮;",
    "alternate_name": "1(2<em>H</em>)-Naphthalenone, 6-chloro-3,4-dihydro-;6-Chloro-3,4-dihydro-1(2<em>H</em>)-naphthalenone;6-Chloro-1-tetralone;6-Chloro-α-tetralone;6-Chloro-3,4-dihydro-2<em>H</em>-naphthalen-1-one;6-Chloro-1,2,3,4-tetrahydronaphthalen-1-one",
    "duplicated_cas_no": "",
    "SMILES": "O=C1C=2C(=CC(Cl)=CC2)CCC1",
    "meta_data": {
        "InChI": "InChI=1S/C10H9ClO/c11-8-4-5-9-7(6-8)2-1-3-10(9)12/h4-6H,1-3H2",
        "InChIKey": null,
        "Canonical SMILES": "O=C1C2=CC=C(Cl)C=C2CCC1",
        "Molecular Formula": "C<sub>10</sub>H<sub>9</sub>ClO",
        "Molecular Mass": "180.63",
        "Boiling Point": "167-169 °C @ Press: 18 Torr",
        "Melting Point": "53 °C"
    }
}