{
    "cas_no": "1208-65-7",
    "key_name": "4-<em>tert</em>-Butylcinnamic acid",
    "cn_name": null,
    "alternate_name": "2-Propenoic acid, 3-[4-(1,1-dimethylethyl)phenyl]-;Cinnamic acid, <em>p</em>-<em>tert</em>-butyl-;3-[4-(1,1-Dimethylethyl)phenyl]-2-propenoic acid;<em>p</em>-<em>tert</em>-Butylcinnamic acid;4-<em>tert</em>-Butylcinnamic acid;3-(4-<em>tert</em>-Butylphenyl)acrylic acid",
    "duplicated_cas_no": "",
    "SMILES": "C(C)(C)(C)C1=CC=C(C=CC(O)=O)C=C1",
    "meta_data": {
        "InChI": "InChI=1S/C13H16O2/c1-13(2,3)11-7-4-10(5-8-11)6-9-12(14)15/h4-9H,1-3H3,(H,14,15)",
        "InChIKey": null,
        "Canonical SMILES": "O=C(O)C=CC1=CC=C(C=C1)C(C)(C)C",
        "Molecular Formula": "C<sub>13</sub>H<sub>16</sub>O<sub>2</sub>",
        "Molecular Mass": "204.26",
        "Melting Point": "195-197 °C"
    }
}