{
    "cas_no": "36556-47-5",
    "key_name": "1-Chloro-2,3-difluorobenzene",
    "cn_name": "2,3-二氟氯苯;",
    "alternate_name": "Benzene, 1-chloro-2,3-difluoro-;1-Chloro-2,3-difluorobenzene;2,3-Difluorochlorobenzene;3-Chloro-1,2-difluorobenzene",
    "duplicated_cas_no": "",
    "SMILES": "FC1=C(Cl)C=CC=C1F",
    "meta_data": {
        "InChI": "InChI=1S/C6H3ClF2/c7-4-2-1-3-5(8)6(4)9/h1-3H",
        "InChIKey": null,
        "Canonical SMILES": "FC1=CC=CC(Cl)=C1F",
        "Molecular Formula": "C<sub>6</sub>H<sub>3</sub>ClF<sub>2</sub>",
        "Molecular Mass": "148.54",
        "Boiling Point": "138.5 °C @ Press: 760 Torr"
    }
}