{
    "cas_no": "24358-62-1",
    "key_name": "1-(4-Bromophenyl)ethylamine",
    "cn_name": null,
    "alternate_name": "Benzenemethanamine, 4-bromo-α-methyl-;Benzylamine, <em>p</em>-bromo-α-methyl-;4-Bromo-α-methylbenzenemethanamine;1-(4′-Bromophenyl)ethylamine;1-(<em>p</em>-Bromophenyl)ethylamine;1-(4-Bromophenyl)ethylamine;(±)-<em>p</em>-Bromo-α-methylbenzylamine;(<em>RS</em>)-1-(<em>p</em>-Bromophenyl)ethylamine;α-(<em>p</em>-Bromophenyl)ethylamine;α-Methyl-4-bromobenzenemethanamine;4-(1-Aminoethyl)-1-bromobenzene;(±)-1-(4-Bromophenyl)ethylamine;4-Bromo-1-(1-aminoethyl)benzene;(4-Bromo-α-methylbenzyl)amine;1-(4-Bromophenyl)ethanamine;α-Methyl-<em>p</em>-bromobenzylamine;1-(4-Bromophenyl)ethaneamine;1-(4-Bromophenyl)ethan-1-amine",
    "duplicated_cas_no": "64313-06-0",
    "SMILES": "C(C)(N)C1=CC=C(Br)C=C1",
    "meta_data": {
        "InChI": "InChI=1S/C8H10BrN/c1-6(10)7-2-4-8(9)5-3-7/h2-6H,10H2,1H3",
        "InChIKey": null,
        "Canonical SMILES": "BrC1=CC=C(C=C1)C(N)C",
        "Molecular Formula": "C<sub>8</sub>H<sub>10</sub>BrN",
        "Molecular Mass": "200.08",
        "Boiling Point": "95 °C @ Press: 4 Torr"
    }
}