{
    "cas_no": "89269-64-7",
    "key_name": "Ferimzone",
    "cn_name": "嘧菌腙;(Z)-2\"甲基乙酰苯4，6-二甲基嘧啶-2-基腙;",
    "alternate_name": "Ethanone, 1-(2-methylphenyl)-, 2-(4,6-dimethyl-2-pyrimidinyl)hydrazone, (1<em>Z</em>)-;2(1<em>H</em>)-Pyrimidinone, 4,6-dimethyl-, [1-(2-methylphenyl)ethylidene]hydrazone, (<em>Z</em>)-;2(1<em>H</em>)-Pyrimidinone, 4,6-dimethyl-, (2<em>Z</em>)-[1-(2-methylphenyl)ethylidene]hydrazone;Meferimzone;Ferimzone;TF 164;(<em>Z</em>)-Ferimzone",
    "duplicated_cas_no": "77359-19-4;1135442-58-8",
    "SMILES": "C(=N/NC=1N=C(C)C=C(C)N1)(\\C)/C2=C(C)C=CC=C2",
    "meta_data": {
        "InChI": "InChI=1S/C15H18N4/c1-10-7-5-6-8-14(10)13(4)18-19-15-16-11(2)9-12(3)17-15/h5-9H,1-4H3,(H,16,17,19)/b18-13-",
        "InChIKey": null,
        "Canonical SMILES": "N(NC=1N=C(C=C(N1)C)C)=C(C=2C=CC=CC2C)C",
        "Molecular Formula": "C<sub>15</sub>H<sub>18</sub>N<sub>4</sub>",
        "Molecular Mass": "254.33",
        "Melting Point": "175.5 °C"
    }
}