{
    "cas_no": "19600-63-6",
    "key_name": "2-(5-Hexen-1-yl)oxirane",
    "cn_name": "1,2-环氧基-7-辛烯;1,2-环氧-7-辛烯;",
    "alternate_name": "Oxirane, 2-(5-hexen-1-yl)-;1-Octene, 7,8-epoxy-;Oxirane, 5-hexenyl-;2-(5-Hexen-1-yl)oxirane;7,8-Epoxy-1-octene;1,2-Epoxy-7-octene;5-Hexenyloxirane;(±)-1,2-Epoxyoct-7-ene;(±)-5-Hexenyloxirane;ω-Hexenyl oxirane;(5-Hexen-1-yl)oxirane;2-Hex-5-enyloxirane",
    "duplicated_cas_no": "126872-17-1",
    "SMILES": "C(CCCC=C)C1CO1",
    "meta_data": {
        "InChI": "InChI=1S/C8H14O/c1-2-3-4-5-6-8-7-9-8/h2,8H,1,3-7H2",
        "InChIKey": null,
        "Canonical SMILES": "O1CC1CCCCC=C",
        "Molecular Formula": "C<sub>8</sub>H<sub>14</sub>O",
        "Molecular Mass": "126.20",
        "Boiling Point": "65 °C @ Press: 10 Torr"
    }
}