{
    "cas_no": "53222-92-7",
    "key_name": "3-Amino-2-methylphenol",
    "cn_name": "2-甲基-3-氨基苯酚;3-氨基邻甲酚;",
    "alternate_name": "Phenol, 3-amino-2-methyl-;<em>o</em>-Cresol, 3-amino-;3-Amino-2-methylphenol;2-Methyl-3-aminophenol;3-Amino-<em>o</em>-cresol;2-Amino-6-hydroxytoluene;3-Hydroxy-2-methylaniline;3-Amino-2-cresol",
    "duplicated_cas_no": "",
    "SMILES": "CC1=C(N)C=CC=C1O",
    "meta_data": {
        "InChI": "InChI=1S/C7H9NO/c1-5-6(8)3-2-4-7(5)9/h2-4,9H,8H2,1H3",
        "InChIKey": null,
        "Canonical SMILES": "OC1=CC=CC(N)=C1C",
        "Molecular Formula": "C<sub>7</sub>H<sub>9</sub>NO",
        "Molecular Mass": "123.15",
        "Melting Point": "124-129 °C"
    }
}