{
    "cas_no": "625-58-1",
    "key_name": "Ethyl nitrate",
    "cn_name": "硝酸乙酯;硝酸乙酯;",
    "alternate_name": "Nitric acid, ethyl ester;Ethyl nitrate;NSC 8826",
    "duplicated_cas_no": "",
    "SMILES": "O(N(=O)=O)CC",
    "meta_data": {
        "InChI": "InChI=1S/C2H5NO3/c1-2-6-3(4)5/h2H2,1H3",
        "InChIKey": null,
        "Canonical SMILES": "O=N(=O)OCC",
        "Molecular Formula": "C<sub>2</sub>H<sub>5</sub>NO<sub>3</sub>",
        "Molecular Mass": "91.07",
        "Boiling Point": "87.2 °C @ Press: 762 Torr",
        "Melting Point": "-94.6 °C",
        "Density": "1.1084 g/cm³ @ Temp: 20 °C"
    }
}