{
    "cas_no": "6342-63-8",
    "key_name": "1-(2-Bromo-5-methoxyphenyl)ethanone",
    "cn_name": null,
    "alternate_name": "Ethanone, 1-(2-bromo-5-methoxyphenyl)-;Acetophenone, 2′-bromo-5′-methoxy-;1-(2-Bromo-5-methoxyphenyl)ethanone;6′-Bromo-3′-methoxyacetophenone;2-Bromo-5-methoxyacetophenone;NSC 46628;1-(2-Bromo-5-methoxyphenyl)ethan-1-one;2′-Bromo-5′-methoxyacetophenone",
    "duplicated_cas_no": "",
    "SMILES": "C(C)(=O)C1=CC(OC)=CC=C1Br",
    "meta_data": {
        "InChI": "InChI=1S/C9H9BrO2/c1-6(11)8-5-7(12-2)3-4-9(8)10/h3-5H,1-2H3",
        "InChIKey": null,
        "Canonical SMILES": "O=C(C1=CC(OC)=CC=C1Br)C",
        "Molecular Formula": "C<sub>9</sub>H<sub>9</sub>BrO<sub>2</sub>",
        "Molecular Mass": "229.07",
        "Boiling Point": "102 °C @ Press: 0.4 Torr"
    }
}