{
    "cas_no": "141-97-9",
    "key_name": "Ethyl acetoacetate",
    "cn_name": "乙酰乙酸乙酯;",
    "alternate_name": "Butanoic acid, 3-oxo-, ethyl ester;Acetoacetic acid, ethyl ester;EAA;Ethyl acetoacetate;Ethyl 3-oxobutanoate;Ethyl 3-oxobutyrate;Ethyl acetylacetate;1-Ethoxybutane-1,3-dione;Ethyl acetonecarboxylate;3-Oxobutanoic acid ethyl ester;Ethyl 3-ketobutyrate;NSC 37390;NSC 8657;Ethyl 2-acetoacetate;3-Oxobutyric acid ethyl ester;Acetylacetic acid ethyl ester;Ethyl 2-methyl-3-oxopropionate",
    "duplicated_cas_no": "",
    "SMILES": "C(C(OCC)=O)C(C)=O",
    "meta_data": {
        "InChI": "InChI=1S/C6H10O3/c1-3-9-6(8)4-5(2)7/h3-4H2,1-2H3",
        "InChIKey": null,
        "Canonical SMILES": "O=C(OCC)CC(=O)C",
        "Molecular Formula": "C<sub>6</sub>H<sub>10</sub>O<sub>3</sub>",
        "Molecular Mass": "130.14",
        "Boiling Point": "180.8 °C @ Press: 760 Torr",
        "Melting Point": "-45 °C",
        "Density": "1.0282 g/cm³ @ Temp: 20 °C"
    }
}