{
    "cas_no": "1210-05-5",
    "key_name": "[1,1′-Biphenyl]-2,2′-dicarboxaldehyde",
    "cn_name": "二苯基-2,2`-二甲醛;",
    "alternate_name": "[1,1′-Biphenyl]-2,2′-dicarboxaldehyde;Diphenaldehyde;2,2′-Biphenyldicarboxaldehyde;2,2′-Biphenyldicarbaldehyde;Biphenyl-2,2′-dialdehyde;2,2′-Diformylbiphenyl;NSC 314066;2-(2-Formylphenyl)benzaldehyde",
    "duplicated_cas_no": "",
    "SMILES": "C(=O)C1=C(C=CC=C1)C2=C(C=O)C=CC=C2",
    "meta_data": {
        "InChI": "InChI=1S/C14H10O2/c15-9-11-5-1-3-7-13(11)14-8-4-2-6-12(14)10-16/h1-10H",
        "InChIKey": null,
        "Canonical SMILES": "O=CC=1C=CC=CC1C=2C=CC=CC2C=O",
        "Molecular Formula": "C<sub>14</sub>H<sub>10</sub>O<sub>2</sub>",
        "Molecular Mass": "210.23",
        "Boiling Point": "169 °C @ Press: 2.5 Torr",
        "Melting Point": "62 °C"
    }
}