{
    "cas_no": "2993-22-8",
    "key_name": "(<em>OC</em>-6-21)-(3-Aminophenyl)pentafluorosulfur",
    "cn_name": "五氟化(3-氨苯基)硫;",
    "alternate_name": "Sulfur, (3-aminophenyl)pentafluoro-, (<em>OC</em>-6-21)-;Sulfur, (3-aminophenyl)pentafluoro-;Aniline, <em>m</em>-pentafluorosulfur deriv.;(<em>m</em>-Aminophenyl)sulfur pentafluoride;(<em>OC</em>-6-21)-(3-Aminophenyl)pentafluorosulfur;3-(Aminophenyl)sulfur pentafluoride;3-(Pentafluorosulfanyl)aniline;3-Amino(pentafluorosulfanyl)benzene;3-(Pentafluorosulfanyl)phenylamine;3-Aminophenylsulphur pentafluoride",
    "duplicated_cas_no": "",
    "SMILES": "S(F)(F)(F)(F)(F)C1=CC(N)=CC=C1",
    "meta_data": {
        "InChI": "InChI=1S/C6H6F5NS/c7-13(8,9,10,11)6-3-1-2-5(12)4-6/h1-4H,12H2",
        "InChIKey": null,
        "Canonical SMILES": "FS(F)(F)(F)(F)C=1C=CC=C(N)C1",
        "Molecular Formula": "C<sub>6</sub>H<sub>6</sub>F<sub>5</sub>NS",
        "Molecular Mass": "219.18",
        "Boiling Point": "86.5 °C @ Press: 3.2 Torr",
        "Melting Point": "37 °C"
    }
}