{
    "cas_no": "4453-82-1",
    "key_name": "Dicyclohexylmethanol",
    "cn_name": "二环己基甲醇;",
    "alternate_name": "Cyclohexanemethanol, α-cyclohexyl-;Methanol, dicyclohexyl-;α-Cyclohexylcyclohexanemethanol;Dodecahydrobenzhydrol;Dicyclohexylmethanol;Dicyclohexylcarbinol;NSC 60010",
    "duplicated_cas_no": "",
    "SMILES": "C(O)(C1CCCCC1)C2CCCCC2",
    "meta_data": {
        "InChI": "InChI=1S/C13H24O/c14-13(11-7-3-1-4-8-11)12-9-5-2-6-10-12/h11-14H,1-10H2",
        "InChIKey": null,
        "Canonical SMILES": "OC(C1CCCCC1)C2CCCCC2",
        "Molecular Formula": "C<sub>13</sub>H<sub>24</sub>O",
        "Molecular Mass": "196.33",
        "Boiling Point": "158-161 °C @ Press: 14 Torr",
        "Melting Point": "63 °C",
        "Density": "1.070 g/cm³ @ Temp: 22 °C"
    }
}