{
    "cas_no": "60-46-8",
    "key_name": "Aminopentamide",
    "cn_name": "胃胺;地美戊胺;胃安;4-二甲氨基-2,2二苯戊酰胺;",
    "alternate_name": "Benzeneacetamide, α-[2-(dimethylamino)propyl]-α-phenyl-;Valeramide, 4-(dimethylamino)-2,2-diphenyl-;α-[2-(Dimethylamino)propyl]-α-phenylbenzeneacetamide;Aminopentamide;Dimevamide;α,α-Diphenyl-γ-dimethylaminovaleramide;Valeramide-OM;Centrine;<em>dl</em>-Aminopentamide;BL 139",
    "duplicated_cas_no": "5985-87-5",
    "SMILES": "C(CC(N(C)C)C)(C(N)=O)(C1=CC=CC=C1)C2=CC=CC=C2",
    "meta_data": {
        "InChI": "InChI=1S/C19H24N2O/c1-15(21(2)3)14-19(18(20)22,16-10-6-4-7-11-16)17-12-8-5-9-13-17/h4-13,15H,14H2,1-3H3,(H2,20,22)",
        "InChIKey": null,
        "Canonical SMILES": "O=C(N)C(C=1C=CC=CC1)(C=2C=CC=CC2)CC(N(C)C)C",
        "Molecular Formula": "C<sub>19</sub>H<sub>24</sub>N<sub>2</sub>O",
        "Molecular Mass": "296.41",
        "Melting Point": "137 °C"
    }
}