{
    "cas_no": "373-74-0",
    "key_name": "Trifluoromethylsilane",
    "cn_name": null,
    "alternate_name": "Silane, trifluoromethyl-;Trifluoromethylsilane;Methyltrifluorosilane;Silicon carbide fluoride hydride (SiCF<sub>3</sub>H<sub>3</sub>)",
    "duplicated_cas_no": "",
    "SMILES": "[Si](C)(F)(F)F",
    "meta_data": {
        "InChI": "InChI=1S/CH3F3Si/c1-5(2,3)4/h1H3",
        "InChIKey": null,
        "Canonical SMILES": "F[Si](F)(F)C",
        "Molecular Formula": "CH<sub>3</sub>F<sub>3</sub>Si",
        "Molecular Mass": "100.12",
        "Boiling Point": "-30 °C",
        "Melting Point": "-73 °C"
    }
}