{
    "cas_no": "4760-34-3",
    "key_name": "<em>N</em>-Methyl-1,2-phenylenediamine",
    "cn_name": null,
    "alternate_name": "1,2-Benzenediamine, <em>N</em><sup>1</sup>-methyl-;<em>o</em>-Phenylenediamine, <em>N</em>-methyl-;1,2-Benzenediamine, <em>N</em>-methyl-;<em>N</em><sup>1</sup>-Methyl-1,2-benzenediamine;<em>N</em>-Methyl-1,2-phenylenediamine;<em>N</em>-Methyl-1,2-benzenediamine;<em>N</em>-Methyl-<em>o</em>-phenylenediamine;2-Amino-<em>N</em>-methylaniline;2-(Methylamino)aniline;<em>N</em>-Methyl-<em>o</em>-diaminobenzene;<em>N</em>-Methyl-1,2-diaminobenzene;1-<em>N</em>-Methylbenzene-1,2-diamine;2-<em>N</em>-Methylbenzene-1,2-diamine",
    "duplicated_cas_no": "",
    "SMILES": "N(C)C1=C(N)C=CC=C1",
    "meta_data": {
        "InChI": "InChI=1S/C7H10N2/c1-9-7-5-3-2-4-6(7)8/h2-5,9H,8H2,1H3",
        "InChIKey": null,
        "Canonical SMILES": "NC=1C=CC=CC1NC",
        "Molecular Formula": "C<sub>7</sub>H<sub>10</sub>N<sub>2</sub>",
        "Molecular Mass": "122.17",
        "Boiling Point": "118-120 °C @ Press: 8 Torr",
        "Melting Point": "180 °C"
    }
}