{
    "cas_no": "3740-92-9",
    "key_name": "Fenclorim",
    "cn_name": "解草啶;4,6-二氯-2-苯基嘧啶;",
    "alternate_name": "Pyrimidine, 4,6-dichloro-2-phenyl-;4,6-Dichloro-2-phenylpyrimidine;2-Phenyl-4,6-dichloropyrimidine;CGA 123407;Fenclorim;NSC 27713",
    "duplicated_cas_no": "",
    "SMILES": "ClC1=NC(=NC(Cl)=C1)C2=CC=CC=C2",
    "meta_data": {
        "InChI": "InChI=1S/C10H6Cl2N2/c11-8-6-9(12)14-10(13-8)7-4-2-1-3-5-7/h1-6H",
        "InChIKey": null,
        "Canonical SMILES": "ClC=1N=C(N=C(Cl)C1)C=2C=CC=CC2",
        "Molecular Formula": "C<sub>10</sub>H<sub>6</sub>Cl<sub>2</sub>N<sub>2</sub>",
        "Molecular Mass": "225.07",
        "Melting Point": "96.9 °C"
    }
}