{
    "cas_no": "36016-39-4",
    "key_name": "[(1,1-Dimethylethoxy)carbonyl]azanyl 2,4,6-trimethylbenzenesulfonate",
    "cn_name": null,
    "alternate_name": "Benzenesulfonic acid, 2,4,6-trimethyl-, [(1,1-dimethylethoxy)carbonyl]azanyl ester;Carbamic acid, [[(2,4,6-trimethylphenyl)sulfonyl]oxy]-, 1,1-dimethylethyl ester;Carbamic acid, hydroxy-, <em>tert</em>-butyl ester, 2-mesitylenesulfonate;[(1,1-Dimethylethoxy)carbonyl]azanyl 2,4,6-trimethylbenzenesulfonate;<em>N</em>-<em>tert</em>-Butoxycarbonyl-<em>O</em>-(mesitylsulfonyl)hydroxylamine;NSC 620029;1,1-Dimethylethyl [[(2,4,6-trimethylphenyl)sulfonyl]oxy]carbamate;<em>tert</em>-Butyl (((mesityl)sulfonyl)oxy)carbamate;[(2-Methylpropan-2-yl)oxycarbonylamino] 2,4,6-trimethylbenzenesulfonate;<em>tert</em>-Butyl-<em>N</em>-[(2,4,6-trimethylbenzenesulfonyl)oxy)carbamate;<em>tert</em>-Butoxycarbonylamino 2,4,6-trimethylbenzenesulfonate",
    "duplicated_cas_no": "",
    "SMILES": "S(ONC(OC(C)(C)C)=O)(=O)(=O)C1=C(C)C=C(C)C=C1C",
    "meta_data": {
        "InChI": "InChI=1S/C14H21NO5S/c1-9-7-10(2)12(11(3)8-9)21(17,18)20-15-13(16)19-14(4,5)6/h7-8H,1-6H3,(H,15,16)",
        "InChIKey": null,
        "Canonical SMILES": "O=C(OC(C)(C)C)NOS(=O)(=O)C=1C(=CC(=CC1C)C)C",
        "Molecular Formula": "C<sub>14</sub>H<sub>21</sub>NO<sub>5</sub>S",
        "Molecular Mass": "315.39",
        "Melting Point": "104-105.5 °C"
    }
}