{
    "cas_no": "13477-53-7",
    "key_name": "4-Amino-2-hydroxybutanoic acid",
    "cn_name": null,
    "alternate_name": "Butanoic acid, 4-amino-2-hydroxy-;Butyric acid, 4-amino-2-hydroxy-;4-Amino-2-hydroxybutanoic acid;HABA;2-Hydroxy-γ-aminobutyric acid;4-Amino-2-hydroxybutyric acid;γ-Amino-α-hydroxybutyric acid;<span class=\"text-smallcaps\">DL</span>-4-Amino-2-hydroxybutanoic acid;(<em>RS</em>)-2-Hydroxy-γ-aminobutyric acid;<span class=\"text-smallcaps\">DL</span>-4-Amino-2-hydroxybutyric acid;(<em>RS</em>)-2-Hydroxy-GABA;α-Hydroxy-γ-aminobutyric acid",
    "duplicated_cas_no": "3938-83-8",
    "SMILES": "C(CCN)(C(O)=O)O",
    "meta_data": {
        "InChI": "InChI=1S/C4H9NO3/c5-2-1-3(6)4(7)8/h3,6H,1-2,5H2,(H,7,8)",
        "InChIKey": null,
        "Canonical SMILES": "O=C(O)C(O)CCN",
        "Molecular Formula": "C<sub>4</sub>H<sub>9</sub>NO<sub>3</sub>",
        "Molecular Mass": "119.12",
        "Melting Point": "191-192 °C"
    }
}