{
    "cas_no": "69-23-8",
    "key_name": "Fluphenazine",
    "cn_name": "氟奋乃静;氟吩嗪;羟哌氟丙嗪;",
    "alternate_name": "1-Piperazineethanol, 4-[3-[2-(trifluoromethyl)-10<em>H</em>-phenothiazin-10-yl]propyl]-;1-Piperazineethanol, 4-[3-[2-(trifluoromethyl)phenothiazin-10-yl]propyl]-;4-[3-[2-(Trifluoromethyl)-10<em>H</em>-phenothiazin-10-yl]propyl]-1-piperazineethanol;Fluphenazine;10-[3-(2-Hydroxyethyl)piperazinopropyl]-2-(trifluoromethyl)phenothiazine;Pacinol;Triflumethazine;4-[3-(2-Trifluoromethyl-10-phenothiazyl)-propyl]-1-piperazineethanol;Fluorfenazine;Vespazine;4-[3-[2-(Trifluoromethyl)phenothiazin-10-yl]propyl]-1-piperazine ethanol;1-(2-Hydroxyethyl)-4-[3-(trifluoromethyl-10-phenothiazinyl)propyl]piperazine;S 94;SQ 4918;Elinol;Siqualine;Siqualon;Fluorophenazine;Fluorphenazine;Ftorphenazine;Phthorphenazine;2-[4-[3-[2-(Trifluoromethyl)phenothiazin-10-yl]propyl]piperazin-1-yl]ethanol;2-(4-(3-(2-(Trifluoromethyl)-10<em>H</em>-phenothiazin-10-yl)propyl)piperazin-1-yl)ethanol;2-[4-[3-(2-Trifluoromethyl-phenothiazin-10-yl)-propyl]-piperazin-1-yl]-ethanol;MeSH ID: D005476",
    "duplicated_cas_no": "47646-09-3",
    "SMILES": "C(CCN1CCN(CCO)CC1)N2C=3C(SC=4C2=CC=CC4)=CC=C(C(F)(F)F)C3",
    "meta_data": {
        "InChI": "InChI=1S/C22H26F3N3OS/c23-22(24,25)17-6-7-21-19(16-17)28(18-4-1-2-5-20(18)30-21)9-3-8-26-10-12-27(13-11-26)14-15-29/h1-2,4-7,16,29H,3,8-15H2",
        "InChIKey": null,
        "Canonical SMILES": "FC(F)(F)C1=CC=C2SC=3C=CC=CC3N(C2=C1)CCCN4CCN(CCO)CC4",
        "Molecular Formula": "C<sub>22</sub>H<sub>26</sub>F<sub>3</sub>N<sub>3</sub>OS",
        "Molecular Mass": "437.52",
        "Boiling Point": "268-274 °C @ Press: 0.5 Torr",
        "Melting Point": "&lt;25 °C"
    }
}