{
    "cas_no": "29274-23-5",
    "key_name": "Pyrazolo[1,5-<em>a</em>]pyrimidin-7(4<em>H</em>)-one",
    "cn_name": null,
    "alternate_name": "Pyrazolo[1,5-<em>a</em>]pyrimidin-7(4<em>H</em>)-one;Pyrazolo[1,5-<em>a</em>]pyrimidin-7-one",
    "duplicated_cas_no": "",
    "SMILES": "O=C1N2C(NC=C1)=CC=N2",
    "meta_data": {
        "InChI": "InChI=1S/C6H5N3O/c10-6-2-3-7-5-1-4-8-9(5)6/h1-4,7H",
        "InChIKey": null,
        "Canonical SMILES": "O=C1C=CNC2=CC=NN12",
        "Molecular Formula": "C<sub>6</sub>H<sub>5</sub>N<sub>3</sub>O",
        "Molecular Mass": "135.12",
        "Melting Point": "340 °C"
    }
}