{
    "cas_no": "541-05-9",
    "key_name": "Hexamethylcyclotrisiloxane",
    "cn_name": "六甲基环三硅氧烷;1,1,3,3,5,5-六甲基环三硅氮烷;环三聚二甲基硅氧烷;",
    "alternate_name": "Cyclotrisiloxane, 2,2,4,4,6,6-hexamethyl-;Cyclotrisiloxane, hexamethyl-;2,2,4,4,6,6-Hexamethylcyclotrisiloxane;Dimethylsiloxane cyclic trimer;Hexamethylcyclotrisiloxane;SDK 10;LS 8120;D 3;A 13455;SIH 6105.1",
    "duplicated_cas_no": "1569492-97-2",
    "SMILES": "C[Si]1(C)O[Si](C)(C)O[Si](C)(C)O1",
    "meta_data": {
        "InChI": "InChI=1S/C6H18O3Si3/c1-10(2)7-11(3,4)9-12(5,6)8-10/h1-6H3",
        "InChIKey": null,
        "Canonical SMILES": "O1[Si](O[Si](O[Si]1(C)C)(C)C)(C)C",
        "Molecular Formula": "C<sub>6</sub>H<sub>18</sub>O<sub>3</sub>Si<sub>3</sub>",
        "Molecular Mass": "222.46",
        "Boiling Point": "134 °C",
        "Melting Point": "64.5 °C",
        "Density": "1.020 g/cm³"
    }
}