{
    "cas_no": "321-60-8",
    "key_name": "2-Fluorobiphenyl",
    "cn_name": "2-氟联苯;",
    "alternate_name": "1,1′-Biphenyl, 2-fluoro-;Biphenyl, 2-fluoro-;2-Fluoro-1,1′-biphenyl;2-Fluorobiphenyl;<em>o</em>-Fluorodiphenyl;NSC 10366;1-Fluoro-2-phenylbenzene",
    "duplicated_cas_no": "",
    "SMILES": "FC1=C(C2=CC=CC=C2)C=CC=C1",
    "meta_data": {
        "InChI": "InChI=1S/C12H9F/c13-12-9-5-4-8-11(12)10-6-2-1-3-7-10/h1-9H",
        "InChIKey": null,
        "Canonical SMILES": "FC=1C=CC=CC1C=2C=CC=CC2",
        "Molecular Formula": "C<sub>12</sub>H<sub>9</sub>F",
        "Molecular Mass": "172.20",
        "Boiling Point": "248 °C",
        "Melting Point": "73.5 °C"
    }
}