{
    "cas_no": "7783-20-2",
    "key_name": "Ammonium sulfate",
    "cn_name": "硫酸铵;",
    "alternate_name": "Sulfuric acid ammonium salt (1:2);Sulfuric acid diammonium salt;Ammonium sulfate (2:1);Ammonium sulfate;Dolamin;Ammonium sulfate ((NH<sub>4</sub>)<sub>2</sub>SO<sub>4</sub>);Diammonium sulfate;Diammonium sulphate;Ammonium sulphate;Coaltrol LPA 40;Sulfuric acid, diammonium salt;Para-Go;Nonnen R 999-10;Actimaster AMS;Tasker Clear;Busan 1215;Oxamine 6150;MeSH ID: D000645",
    "duplicated_cas_no": "122364-22-1;122393-13-9;44071-93-4;57973-73-6;64006-53-7;82168-61-4;428816-32-4",
    "SMILES": "S(=O)(=O)(O)O.N",
    "meta_data": {
        "InChI": "InChI=1S/2H3N.H2O4S/c;;1-5(2,3)4/h2*1H3;(H2,1,2,3,4)",
        "InChIKey": null,
        "Canonical SMILES": "O=S(=O)(O)O.N",
        "Molecular Formula": "H<sub>3</sub>N.<sup>1</sup>/<sub>2</sub>H<sub>2</sub>O<sub>4</sub>S",
        "Molecular Mass": "",
        "Melting Point": "336-339 °C (decomp)",
        "Density": "1.769 g/cm³ @ Temp: 50 °C"
    }
}