{
    "cas_no": "59080-45-4",
    "key_name": "Hexyl β-<span class=\"text-smallcaps\">D</span>-glucopyranoside",
    "cn_name": "己基β-D-吡喃葡萄糖苷;",
    "alternate_name": "β-<span class=\"text-smallcaps\">D</span>-Glucopyranoside, hexyl;Hexyl β-<span class=\"text-smallcaps\">D</span>-glucopyranoside;Hexyl glucoside;<em>n</em>-Hexyl-β-<span class=\"text-smallcaps\">D</span>-glucoside;<em>n</em>-Hexyl β-<span class=\"text-smallcaps\">D</span>-glucopyranoside;1-Hexyl β-<span class=\"text-smallcaps\">D</span>-glucoside;APG 06;Sucraph AG 6206;Triton CG 6",
    "duplicated_cas_no": "",
    "SMILES": "O(CCCCCC)[C@@H]1O[C@H](CO)[C@@H](O)[C@H](O)[C@H]1O",
    "meta_data": {
        "InChI": "InChI=1S/C12H24O6/c1-2-3-4-5-6-17-12-11(16)10(15)9(14)8(7-13)18-12/h8-16H,2-7H2,1H3/t8-,9-,10+,11-,12-/m1/s1",
        "InChIKey": null,
        "Canonical SMILES": "OCC1OC(OCCCCCC)C(O)C(O)C1O",
        "Molecular Formula": "C<sub>12</sub>H<sub>24</sub>O<sub>6</sub>",
        "Molecular Mass": "264.32",
        "Melting Point": "88-91 °C"
    }
}