{
    "cas_no": "63799-11-1",
    "key_name": "4′-[(2<em>S</em>)-2-Methylbutyl][1,1′-biphenyl]-4-carbonitrile",
    "cn_name": null,
    "alternate_name": "[1,1′-Biphenyl]-4-carbonitrile, 4′-[(2<em>S</em>)-2-methylbutyl]-;[1,1′-Biphenyl]-4-carbonitrile, 4′-(2-methylbutyl)-, (<em>S</em>)-;4′-[(2<em>S</em>)-2-Methylbutyl][1,1′-biphenyl]-4-carbonitrile;CB 15;(<em>S</em>)-1-Cyano-4′-(2-methylbutyl)biphenyl;(+)-<em>p</em>-(2-Methylbutyl)-<em>p</em>′-cyanobiphenyl;Merck CB 15;4-(<em>S</em>)-2-Methylbutyl-4′-cyanobiphenyl;(<em>S</em>)-4-(2-Methylbutyl)-4′-cyanobiphenyl;(<em>S</em>)-4′-(2-Methylbutyl)-[1,1′-biphenyl]-4-carbonitrile;CB 15 (liq. crystal)",
    "duplicated_cas_no": "59137-36-9",
    "SMILES": "C([C@H](CC)C)C1=CC=C(C=C1)C2=CC=C(C#N)C=C2",
    "meta_data": {
        "InChI": "InChI=1S/C18H19N/c1-3-14(2)12-15-4-8-17(9-5-15)18-10-6-16(13-19)7-11-18/h4-11,14H,3,12H2,1-2H3/t14-/m0/s1",
        "InChIKey": null,
        "Canonical SMILES": "N#CC=1C=CC(=CC1)C2=CC=C(C=C2)CC(C)CC",
        "Molecular Formula": "C<sub>18</sub>H<sub>19</sub>N",
        "Molecular Mass": "249.35",
        "Melting Point": "6.5 °C"
    }
}