{
    "cas_no": "138-89-6",
    "key_name": "<em>N</em>,<em>N</em>-Dimethyl-4-nitrosoaniline",
    "cn_name": "对亚硝基二甲苯胺;N,N-二甲基-4-亚硝基苯胺;N,N-二甲基-对-亚硝基苯胺;对亚硝基二甲替苯胺;",
    "alternate_name": "Benzenamine, <em>N</em>,<em>N</em>-dimethyl-4-nitroso-;Aniline, <em>N</em>,<em>N</em>-dimethyl-<em>p</em>-nitroso-;<em>N</em>,<em>N</em>-Dimethyl-4-nitrosobenzenamine;Accelerine;NDMA;<em>p</em>-Nitroso-<em>N</em>,<em>N</em>-dimethylaniline;Ultra Brilliant Blue P;<em>N</em>,<em>N</em>-Dimethyl-4-nitrosoaniline;<em>p</em>-(Dimethylamino)nitrosobenzene;4-Nitroso-<em>N</em>,<em>N</em>-dimethylaniline;4-(Dimethylamino)nitrosobenzene;<em>p</em>-(<em>N</em>,<em>N</em>-Dimethylamino)nitrosobenzene;1-(Dimethylamino)-4-nitrosobenzene;<em>N</em>,<em>N</em>-Dimethyl-<em>p</em>-nitrosoaniline;<em>p</em>-NDMA;4-Nitroso-<em>N</em>,<em>N</em>-dimethylaminobenzene;NSC 2775",
    "duplicated_cas_no": "",
    "SMILES": "N(C)(C)C1=CC=C(N=O)C=C1",
    "meta_data": {
        "InChI": "InChI=1S/C8H10N2O/c1-10(2)8-5-3-7(9-11)4-6-8/h3-6H,1-2H3",
        "InChIKey": null,
        "Canonical SMILES": "O=NC1=CC=C(C=C1)N(C)C",
        "Molecular Formula": "C<sub>8</sub>H<sub>10</sub>N<sub>2</sub>O",
        "Molecular Mass": "150.18",
        "Melting Point": "92.5-93.5 °C",
        "Density": "1.145 g/cm³ @ Temp: 20 °C"
    }
}