{
    "cas_no": "75-36-5",
    "key_name": "Acetyl chloride",
    "cn_name": "乙酰氯;氯化乙酰;",
    "alternate_name": "Acetyl chloride;Ethanoyl chloride;Acetic chloride;Acetic acid chloride",
    "duplicated_cas_no": "",
    "SMILES": "C(C)(Cl)=O",
    "meta_data": {
        "InChI": "InChI=1S/C2H3ClO/c1-2(3)4/h1H3",
        "InChIKey": null,
        "Canonical SMILES": "O=C(Cl)C",
        "Molecular Formula": "C<sub>2</sub>H<sub>3</sub>ClO",
        "Molecular Mass": "78.50",
        "Boiling Point": "52 °C",
        "Melting Point": "-112 °C",
        "Density": "1.1051 g/cm³ @ Temp: 20 °C"
    }
}