{
    "cas_no": "74805-92-8",
    "key_name": "Methylophiopogonanone A",
    "cn_name": null,
    "alternate_name": "4<em>H</em>-1-Benzopyran-4-one, 3-(1,3-benzodioxol-5-ylmethyl)-2,3-dihydro-5,7-dihydroxy-6,8-dimethyl-, (3<em>R</em>)-;(3<em>R</em>)-3-(1,3-Benzodioxol-5-ylmethyl)-2,3-dihydro-5,7-dihydroxy-6,8-dimethyl-4<em>H</em>-1-benzopyran-4-one;Methylophiopogonanone A;NE-III;<em>R</em>-Methylophiopogonanone A",
    "duplicated_cas_no": "",
    "SMILES": "O=C1C=2C(=C(C)C(O)=C(C)C2O)OC[C@H]1CC=3C=C4C(=CC3)OCO4",
    "meta_data": {
        "InChI": "InChI=1S/C19H18O6/c1-9-16(20)10(2)19-15(17(9)21)18(22)12(7-23-19)5-11-3-4-13-14(6-11)25-8-24-13/h3-4,6,12,20-21H,5,7-8H2,1-2H3/t12-/m1/s1",
        "InChIKey": null,
        "Canonical SMILES": "O=C1C=2C(O)=C(C(O)=C(C2OCC1CC3=CC=C4OCOC4=C3)C)C",
        "Molecular Formula": "C<sub>19</sub>H<sub>18</sub>O<sub>6</sub>",
        "Molecular Mass": "342.34",
        "Melting Point": "142-143 °C"
    }
}