{
    "cas_no": "57-43-2",
    "key_name": "Amobarbital",
    "cn_name": "异戊巴比妥;5-乙基-5-(3-甲基丁基)巴比妥酸;5-乙基-5-(3-甲基丁基)-2,4,6-(1H,3H,5H)-嘧啶三酮;",
    "alternate_name": "2,4,6(1<em>H</em>,3<em>H</em>,5<em>H</em>)-Pyrimidinetrione, 5-ethyl-5-(3-methylbutyl)-;Barbituric acid, 5-ethyl-5-isopentyl-;5-Ethyl-5-(3-methylbutyl)-2,4,6(1<em>H</em>,3<em>H</em>,5<em>H</em>)-pyrimidinetrione;Amobarbital;Amospan;Amylobarbitone;Amytal;Binoctal;Dormytal;5-Ethyl-5-isoamylbarbituric acid;5-Ethyl-5-isopentylbarbituric acid;5-Ethyl-5-(3-methylbutyl)barbituric acid;Eunoctal;Isoamylethylbarbituric acid;5-Isoamyl-5-ethylbarbituric acid;Isomytal;Pentymal;Schiwanox;Somnal;Stadadorm;Amylobarbital;Amylbarbitone;Pentymalum;Dorlotyn;Amal;Mylodorm;Sednotic;Amasust;Amobarbitone;Barbamyl acid;Sumital;Robarb;Amybal;Ethylisopentylbarbituric acid;Amital;Isomyl;Isopentobarbital;NSC 10815;NSC 120800;NSC 32406;MeSH ID: D000654",
    "duplicated_cas_no": "",
    "SMILES": "C(CC(C)C)C1(CC)C(=O)NC(=O)NC1=O",
    "meta_data": {
        "InChI": "InChI=1S/C11H18N2O3/c1-4-11(6-5-7(2)3)8(14)12-10(16)13-9(11)15/h7H,4-6H2,1-3H3,(H2,12,13,14,15,16)",
        "InChIKey": null,
        "Canonical SMILES": "O=C1NC(=O)C(C(=O)N1)(CC)CCC(C)C",
        "Molecular Formula": "C<sub>11</sub>H<sub>18</sub>N<sub>2</sub>O<sub>3</sub>",
        "Molecular Mass": "226.27",
        "Melting Point": "156-158 °C"
    }
}