{
    "cas_no": "1937-62-8",
    "key_name": "Methyl elaidate",
    "cn_name": null,
    "alternate_name": "9-Octadecenoic acid, methyl ester, (9<em>E</em>)-;Elaidic acid, methyl ester;9-Octadecenoic acid, methyl ester, (<em>E</em>)-;Methyl elaidate;Methyl <em>trans</em>-9-octadecenoate;Methyl 9(E)-octadecenoate;9(E)-Octadecenoic acid methyl ester;<em>trans</em>-Oleic acid methyl ester",
    "duplicated_cas_no": "",
    "SMILES": "C(CC/C=C/CCCCCCCC)CCCCC(OC)=O",
    "meta_data": {
        "InChI": "InChI=1S/C19H36O2/c1-3-4-5-6-7-8-9-10-11-12-13-14-15-16-17-18-19(20)21-2/h10-11H,3-9,12-18H2,1-2H3/b11-10+",
        "InChIKey": null,
        "Canonical SMILES": "O=C(OC)CCCCCCCC=CCCCCCCCC",
        "Molecular Formula": "C<sub>19</sub>H<sub>36</sub>O<sub>2</sub>",
        "Molecular Mass": "296.49",
        "Boiling Point": "164-165 °C @ Press: 0.5 Torr",
        "Melting Point": "10.75 °C",
        "Density": "0.8790 g/cm³ @ Temp: 16 °C"
    }
}