{
    "cas_no": "2813-95-8",
    "key_name": "Dinoseb acetate",
    "cn_name": "地乐酯;2-(1-甲基丙基)-4,6-二硝基苯基醋酸酯;",
    "alternate_name": "Phenol, 2-(1-methylpropyl)-4,6-dinitro-, 1-acetate;Phenol, 2-<em>sec</em>-butyl-4,6-dinitro-, acetate (ester);Phenol, 2-(1-methylpropyl)-4,6-dinitro-, acetate (ester);Phenol, 2-<em>sec</em>-butyl-4,6-dinitro-, acetate;4,6-Dinitro-2-<em>sec</em>-butylphenyl acetate;2-(1-Methylpropyl)-4,6-dinitrophenyl acetate;Aretit;Dinoseb acetate;4,6-Dinitro-2-<em>sec</em>-butyl-phenolacetate;2,4-Dinitro-6-<em>sec</em>-butylphenyl acetate;2-<em>sec</em>-Butyl-4,6-dinitrophenyl acetate;Ivosit",
    "duplicated_cas_no": "",
    "SMILES": "O(C(C)=O)C1=C(C(CC)C)C=C(N(=O)=O)C=C1N(=O)=O",
    "meta_data": {
        "InChI": "InChI=1S/C12H14N2O6/c1-4-7(2)10-5-9(13(16)17)6-11(14(18)19)12(10)20-8(3)15/h5-7H,4H2,1-3H3",
        "InChIKey": null,
        "Canonical SMILES": "O=C(OC=1C(=CC(=CC1C(C)CC)N(=O)=O)N(=O)=O)C",
        "Molecular Formula": "C<sub>12</sub>H<sub>14</sub>N<sub>2</sub>O<sub>6</sub>",
        "Molecular Mass": "282.25",
        "Boiling Point": "170 °C @ Press: 4.0 Torr",
        "Melting Point": "26 °C"
    }
}