{
    "cas_no": "23541-50-6",
    "key_name": "Daunorubicin hydrochloride",
    "cn_name": "盐酸佐柔比星;盐酸正定霉素;盐酸红比霉素;(8S-cis)-8-乙酰基-10-[(3-氨基-2,3,6-三去氧-a-L-来苏己吡喃基)-;",
    "alternate_name": "5,12-Naphthacenedione, 8-acetyl-10-[(3-amino-2,3,6-trideoxy-α-<span class=\"text-smallcaps\">L</span>-<em>lyxo</em>-hexopyranosyl)oxy]-7,8,9,10-tetrahydro-6,8,11-trihydroxy-1-methoxy-, hydrochloride (1:1), (8<em>S</em>,10<em>S</em>)-;Daunomycin, hydrochloride;5,12-Naphthacenedione, 8-acetyl-10-[(3-amino-2,3,6-trideoxy-α-<span class=\"text-smallcaps\">L</span>-<em>lyxo</em>-hexopyranosyl)oxy]-7,8,9,10-tetrahydro-6,8,11-trihydroxy-1-methoxy-, hydrochloride, (8<em>S</em>-<em>cis</em>)-;5,12-Naphthacenedione, 8-acetyl-10-[(3-amino-2,3,6-trideoxy-α-<span class=\"text-smallcaps\">L</span>-<em>lyxo</em>-hexopyranosyl)oxy]-7,8,9,10-tetrahydro-6,8,11-trihydroxy-1-methoxy-, hydrochloride, (8<em>S</em>,10<em>S</em>)-;Daunorubicin hydrochloride;Daunomycin chlorohydrate;Daunoblastin;Ondena;Cerubidine;Rubidomycin hydrochloride;NDC 0082-4155;RP 13057 hydrochloride",
    "duplicated_cas_no": "52471-42-8;1087700-63-7",
    "SMILES": "OC=1C2=C([C@@H](O[C@H]3C[C@H](N)[C@H](O)[C@H](C)O3)C[C@@](C(C)=O)(O)C2)C(O)=C4C1C(=O)C=5C(C4=O)=C(OC)C=CC5.Cl",
    "meta_data": {
        "InChI": "InChI=1S/C27H29NO10.ClH/c1-10-22(30)14(28)7-17(37-10)38-16-9-27(35,11(2)29)8-13-19(16)26(34)21-20(24(13)32)23(31)12-5-4-6-15(36-3)18(12)25(21)33;/h4-6,10,14,16-17,22,30,32,34-35H,7-9,28H2,1-3H3;1H/t10-,14-,16-,17-,22+,27-;/m0./s1",
        "InChIKey": null,
        "Canonical SMILES": "Cl.O=C1C=2C=CC=C(OC)C2C(=O)C=3C(O)=C4C(=C(O)C13)CC(O)(C(=O)C)CC4OC5OC(C)C(O)C(N)C5",
        "Molecular Formula": "C<sub>27</sub>H<sub>29</sub>NO<sub>10</sub>.ClH",
        "Molecular Mass": "",
        "Melting Point": "188-190 °C (decomp)"
    }
}