{
    "cas_no": "65-23-6",
    "key_name": "Pyridoxine",
    "cn_name": "吡多素;吡哆醇;维生素B6;2-甲基-3-羟基-4,5-二羟甲基吡啶;",
    "alternate_name": "3,4-Pyridinedimethanol, 5-hydroxy-6-methyl-;Pyridoxol;5-Hydroxy-6-methyl-3,4-pyridinedimethanol;2-Methyl-4,5-bis(hydroxymethyl)-3-hydroxypyridine;2-Methyl-3-hydroxy-4,5-di(hydroxymethyl)pyridine;Pyridoxin;Pyridoxine;Adermin;Bezatin;Pirivitol;3-Hydroxy-4,5-bis(hydroxymethyl)-2-methylpyridine;MeSH ID: D011736",
    "duplicated_cas_no": "2087491-32-3",
    "SMILES": "C(O)C=1C(CO)=CN=C(C)C1O",
    "meta_data": {
        "InChI": "InChI=1S/C8H11NO3/c1-5-8(12)7(4-11)6(3-10)2-9-5/h2,10-12H,3-4H2,1H3",
        "InChIKey": null,
        "Canonical SMILES": "OC=1C(=NC=C(C1CO)CO)C",
        "Molecular Formula": "C<sub>8</sub>H<sub>11</sub>NO<sub>3</sub>",
        "Molecular Mass": "169.18",
        "Melting Point": "159-162 °C"
    }
}