{
    "cas_no": "66232-56-2",
    "key_name": "2-Amino-6-ethylbenzoic acid",
    "cn_name": null,
    "alternate_name": "Benzoic acid, 2-amino-6-ethyl-;2-Amino-6-ethylbenzoic acid;6-Ethylanthranilic acid",
    "duplicated_cas_no": "675575-36-7",
    "SMILES": "C(O)(=O)C1=C(CC)C=CC=C1N",
    "meta_data": {
        "InChI": "InChI=1S/C9H11NO2/c1-2-6-4-3-5-7(10)8(6)9(11)12/h3-5H,2,10H2,1H3,(H,11,12)",
        "InChIKey": null,
        "Canonical SMILES": "O=C(O)C=1C(N)=CC=CC1CC",
        "Molecular Formula": "C<sub>9</sub>H<sub>11</sub>NO<sub>2</sub>",
        "Molecular Mass": "165.19",
        "Melting Point": "97-99 °C (decomp)"
    }
}