{
    "cas_no": "4441-63-8",
    "key_name": "Cyclohexanebutanoic acid",
    "cn_name": "环己烷丁酸;",
    "alternate_name": "Cyclohexanebutanoic acid;Cyclohexanebutyric acid;4-Cyclohexylbutyric acid;4-Cyclohexylbutanoic acid;NSC 2158;NSC 406925",
    "duplicated_cas_no": "",
    "SMILES": "C(CCC(O)=O)C1CCCCC1",
    "meta_data": {
        "InChI": "InChI=1S/C10H18O2/c11-10(12)8-4-7-9-5-2-1-3-6-9/h9H,1-8H2,(H,11,12)",
        "InChIKey": null,
        "Canonical SMILES": "O=C(O)CCCC1CCCCC1",
        "Molecular Formula": "C<sub>10</sub>H<sub>18</sub>O<sub>2</sub>",
        "Molecular Mass": "170.25",
        "Boiling Point": "132-134 °C @ Press: 3 Torr",
        "Melting Point": "29-30 °C",
        "Density": "0.9693 g/cm³ @ Temp: 38 °C"
    }
}