{
    "cas_no": "7783-49-5",
    "key_name": "Zinc fluoride",
    "cn_name": "氟化锌;",
    "alternate_name": "Zinc fluoride (ZnF<sub>2</sub>);Zinc fluoride;Zinc difluoride;Zinc difluoride (ZnF<sub>2</sub>)",
    "duplicated_cas_no": "",
    "SMILES": "[Zn](F)F",
    "meta_data": {
        "InChI": "InChI=1S/2FH.Zn/h2*1H;/q;;+2/p-2",
        "InChIKey": null,
        "Canonical SMILES": "F[Zn]F",
        "Molecular Formula": "F<sub>2</sub>Zn",
        "Molecular Mass": "",
        "Boiling Point": "1500 °C",
        "Melting Point": "872 °C",
        "Density": "4.9 g/cm³"
    }
}