{
    "cas_no": "17890-56-1",
    "key_name": "Benzo[<em>b</em>]thiophene-2-methanol",
    "cn_name": "苯[b]噻吩-2-甲醇;",
    "alternate_name": "Benzo[<em>b</em>]thiophene-2-methanol;2-(Hydroxymethyl)benzo[<em>b</em>]thiophene;Benzothiophene-2-methanol;2-(Hydroxymethyl)benzothiophene;Benzo[<em>b</em>]thiophen-2-ylmethanol;1-Benzothien-2-ylmethanol;1-(Benzo[<em>b</em>]thien-2-yl)methanol;(Benzothiophen-2-yl)methanol;Benz[<em>b</em>]thiophen-2-ylmethanol;1-(Benzothiophen-2-yl)methanol",
    "duplicated_cas_no": "",
    "SMILES": "C(O)C1=CC=2C(S1)=CC=CC2",
    "meta_data": {
        "InChI": "InChI=1S/C9H8OS/c10-6-8-5-7-3-1-2-4-9(7)11-8/h1-5,10H,6H2",
        "InChIKey": null,
        "Canonical SMILES": "OCC=1SC=2C=CC=CC2C1",
        "Molecular Formula": "C<sub>9</sub>H<sub>8</sub>OS",
        "Molecular Mass": "164.22",
        "Boiling Point": "108-110 °C @ Press: 4 Torr",
        "Melting Point": "151-153 °C"
    }
}