{
    "cas_no": "2550-73-4",
    "key_name": "Benzo[1,2-<em>c</em>:4,5-<em>c</em>′]dipyrrole-1,3,5,7(2<em>H</em>,6<em>H</em>)-tetrone",
    "cn_name": null,
    "alternate_name": "Benzo[1,2-<em>c</em>:4,5-<em>c</em>′]dipyrrole-1,3,5,7(2<em>H</em>,6<em>H</em>)-tetrone;1,2,4,5-Benzenetetracarboxylic 1,2:4,5-diimide;Pyromellitimide;Pyromellitic diimide;Pyromellitic acid diimide;1,2,4,5-Benzenetetracarboxylic acid diimide;NSC 55160",
    "duplicated_cas_no": "",
    "SMILES": "O=C1C=2C(=CC3=C(C2)C(=O)NC3=O)C(=O)N1",
    "meta_data": {
        "InChI": "InChI=1S/C10H4N2O4/c13-7-3-1-4-6(10(16)12-8(4)14)2-5(3)9(15)11-7/h1-2H,(H,11,13,15)(H,12,14,16)",
        "InChIKey": null,
        "Canonical SMILES": "O=C1NC(=O)C=2C=C3C(=O)NC(=O)C3=CC12",
        "Molecular Formula": "C<sub>10</sub>H<sub>4</sub>N<sub>2</sub>O<sub>4</sub>",
        "Molecular Mass": "216.15",
        "Melting Point": "440 °C (decomp)",
        "Density": "1.64 g/cm³"
    }
}