{
    "cas_no": "576-24-9",
    "key_name": "2,3-Dichlorophenol",
    "cn_name": "2,3-二氯苯酚;",
    "alternate_name": "Phenol, 2,3-dichloro-;2,3-Dichlorophenol;NSC 60646",
    "duplicated_cas_no": "",
    "SMILES": "ClC1=C(Cl)C=CC=C1O",
    "meta_data": {
        "InChI": "InChI=1S/C6H4Cl2O/c7-4-2-1-3-5(9)6(4)8/h1-3,9H",
        "InChIKey": null,
        "Canonical SMILES": "ClC1=CC=CC(O)=C1Cl",
        "Molecular Formula": "C<sub>6</sub>H<sub>4</sub>Cl<sub>2</sub>O",
        "Molecular Mass": "163.00",
        "Boiling Point": "206 °C",
        "Melting Point": "58 °C"
    }
}