{
    "cas_no": "3377-86-4",
    "key_name": "2-Bromohexane",
    "cn_name": null,
    "alternate_name": "Hexane, 2-bromo-;2-Bromohexane;2-Hexyl bromide;(±)-2-Bromohexane;1-Methylpentan-1-yl bromide",
    "duplicated_cas_no": "141126-38-7",
    "SMILES": "C(C(Br)C)CCC",
    "meta_data": {
        "InChI": "InChI=1S/C6H13Br/c1-3-4-5-6(2)7/h6H,3-5H2,1-2H3",
        "InChIKey": null,
        "Canonical SMILES": "BrC(C)CCCC",
        "Molecular Formula": "C<sub>6</sub>H<sub>13</sub>Br",
        "Molecular Mass": "165.07",
        "Boiling Point": "144 °C",
        "Density": "1.1564 g/cm³ @ Temp: 20 °C"
    }
}