{
    "cas_no": "556-71-8",
    "key_name": "Octadecamethylcyclononasiloxane",
    "cn_name": null,
    "alternate_name": "Cyclononasiloxane, 2,2,4,4,6,6,8,8,10,10,12,12,14,14,16,16,18,18-octadecamethyl-;Cyclononasiloxane, octadecamethyl-;2,2,4,4,6,6,8,8,10,10,12,12,14,14,16,16,18,18-Octadecamethylcyclononasiloxane;Octadecamethylcyclononasiloxane;Octamethylcyclononasiloxane",
    "duplicated_cas_no": "",
    "SMILES": "C[Si]1(C)O[Si](C)(C)O[Si](C)(C)O[Si](C)(C)O[Si](C)(C)O[Si](C)(C)O[Si](C)(C)O[Si](C)(C)O[Si](C)(C)O1",
    "meta_data": {
        "InChI": "InChI=1S/C18H54O9Si9/c1-28(2)19-29(3,4)21-31(7,8)23-33(11,12)25-35(15,16)27-36(17,18)26-34(13,14)24-32(9,10)22-30(5,6)20-28/h1-18H3",
        "InChIKey": null,
        "Canonical SMILES": "O1[Si](O[Si](O[Si](O[Si](O[Si](O[Si](O[Si](O[Si](O[Si]1(C)C)(C)C)(C)C)(C)C)(C)C)(C)C)(C)C)(C)C)(C)C",
        "Molecular Formula": "C<sub>18</sub>H<sub>54</sub>O<sub>9</sub>Si<sub>9</sub>",
        "Molecular Mass": "667.39",
        "Boiling Point": "188 °C"
    }
}