{
    "cas_no": "85342-62-7",
    "key_name": "<em>N</em>-Hydroxynaphthalimide triflate",
    "cn_name": "N-羟基萘酰亚胺三氟甲磺酸;",
    "alternate_name": "Methanesulfonic acid, 1,1,1-trifluoro-, 1,3-dioxo-1<em>H</em>-benz[<em>de</em>]isoquinolin-2(3<em>H</em>)-yl ester;1<em>H</em>-Benz[<em>de</em>]isoquinoline-1,3(2<em>H</em>)-dione, 2-[[(trifluoromethyl)sulfonyl]oxy]-;NAI 105;<em>N</em>-(Trifluoromethylsulfonyloxy)-1,8-naphthalimide;<em>N</em>-Hydroxynaphthalimide triflate;<em>N</em>-Hydroxynaphthalimide trifluoromethanesulfonate;Adeka Optomer SP 082;SP 082;(1,3-Dioxobenzo[<em>de</em>]isoquinolin-2-yl) trifluoromethanesulfonate;NIT PAG;<em>N</em>-[(Trifluoromethylsulfonyl)oxy]-1<em>H</em>-benz[<em>de</em>]isoquinoline-1,3(2<em>H</em>)-dione;<em>N</em>-(Trifluoromethanesulfonyloxy)-1,8-naphthalimide;H 1136",
    "duplicated_cas_no": "380384-01-0;1001670-86-5;1612185-08-6;1663470-91-4;1808156-13-9",
    "SMILES": "O=C1C=2C=3C(C(=O)N1OS(C(F)(F)F)(=O)=O)=CC=CC3C=CC2",
    "meta_data": {
        "InChI": "InChI=1S/C13H6F3NO5S/c14-13(15,16)23(20,21)22-17-11(18)8-5-1-3-7-4-2-6-9(10(7)8)12(17)19/h1-6H",
        "InChIKey": null,
        "Canonical SMILES": "O=C1C=2C=CC=C3C=CC=C(C(=O)N1OS(=O)(=O)C(F)(F)F)C32",
        "Molecular Formula": "C<sub>13</sub>H<sub>6</sub>F<sub>3</sub>NO<sub>5</sub>S",
        "Molecular Mass": "345.25",
        "Melting Point": "217 °C"
    }
}