{
    "cas_no": "818-57-5",
    "key_name": "Methyl 4-pentenoate",
    "cn_name": null,
    "alternate_name": "4-Pentenoic acid, methyl ester;Methyl 4-pentenoate;Methyl allylacetate;Allylacetic acid methyl ester",
    "duplicated_cas_no": "",
    "SMILES": "C(CCC=C)(OC)=O",
    "meta_data": {
        "InChI": "InChI=1S/C6H10O2/c1-3-4-5-6(7)8-2/h3H,1,4-5H2,2H3",
        "InChIKey": null,
        "Canonical SMILES": "O=C(OC)CCC=C",
        "Molecular Formula": "C<sub>6</sub>H<sub>10</sub>O<sub>2</sub>",
        "Molecular Mass": "114.14",
        "Boiling Point": "125-126 °C"
    }
}