{
    "cas_no": "458-35-5",
    "key_name": "Coniferyl alcohol",
    "cn_name": "松酒;3- (4-羟基-3-甲氧)-2-丙烯-1-醇;4-羟基-3-甲氧基肉桂醇;HOC6H3(OCH3)CH=CHCH2OH;",
    "alternate_name": "Phenol, 4-(3-hydroxy-1-propen-1-yl)-2-methoxy-;Coniferyl alcohol;2-Propen-1-ol, 3-(4-hydroxy-3-methoxyphenyl)-;Phenol, 4-(3-hydroxy-1-propenyl)-2-methoxy-;4-(3-Hydroxy-1-propen-1-yl)-2-methoxyphenol;γ-Hydroxyisoeugenol;3-(4-Hydroxy-3-methoxyphenyl)-2-propen-1-ol;3-(<em>p</em>-Hydroxy-<em>m</em>-methoxyphenyl)-2-propen-1-ol;Coniferol;<em>p</em>-Hydroxy-<em>m</em>-methoxycinnamyl alcohol;3-(4-Hydroxy-3-methoxyphenyl)allyl alcohol;4-(3-Hydroxy-1-propenyl)-2-methoxyphenol;4-Hydroxy-3-methoxycinnamyl alcohol;3-(4-Hydroxy-3-methoxyphenyl)-2-propenol",
    "duplicated_cas_no": "",
    "SMILES": "C(=CCO)C1=CC(OC)=C(O)C=C1",
    "meta_data": {
        "InChI": "InChI=1S/C10H12O3/c1-13-10-7-8(3-2-6-11)4-5-9(10)12/h2-5,7,11-12H,6H2,1H3",
        "InChIKey": null,
        "Canonical SMILES": "OC1=CC=C(C=CCO)C=C1OC",
        "Molecular Formula": "C<sub>10</sub>H<sub>12</sub>O<sub>3</sub>",
        "Molecular Mass": "180.20",
        "Boiling Point": "164 °C",
        "Melting Point": "74 °C"
    }
}