{
    "cas_no": "81161-17-3",
    "key_name": "Esmolol hydrochloride",
    "cn_name": "盐酸艾司洛尔;4-{[3-(1-甲基乙基氨基)-2-羟基]丙氧基}苯丙酸甲酯盐酸盐;",
    "alternate_name": "Benzenepropanoic acid, 4-[2-hydroxy-3-[(1-methylethyl)amino]propoxy]-, methyl ester, hydrochloride (1:1);Benzenepropanoic acid, 4-[2-hydroxy-3-[(1-methylethyl)amino]propoxy]-, methyl ester, hydrochloride;ASL 8052;Esmolol hydrochloride;Brevibloc;Clol",
    "duplicated_cas_no": "",
    "SMILES": "O(CC(CNC(C)C)O)C1=CC=C(CCC(OC)=O)C=C1.Cl",
    "meta_data": {
        "InChI": "InChI=1S/C16H25NO4.ClH/c1-12(2)17-10-14(18)11-21-15-7-4-13(5-8-15)6-9-16(19)20-3;/h4-5,7-8,12,14,17-18H,6,9-11H2,1-3H3;1H",
        "InChIKey": null,
        "Canonical SMILES": "Cl.O=C(OC)CCC1=CC=C(OCC(O)CNC(C)C)C=C1",
        "Molecular Formula": "C<sub>16</sub>H<sub>25</sub>NO<sub>4</sub>.ClH",
        "Molecular Mass": "",
        "Melting Point": "85-86 °C"
    }
}