{
    "cas_no": "999-81-5",
    "key_name": "Chlormequat chloride",
    "cn_name": "矮壮素;氯化矮壮素;2-氯乙基三甲基氯化铵;",
    "alternate_name": "Ethanaminium, 2-chloro-<em>N</em>,<em>N</em>,<em>N</em>-trimethyl-, chloride (1:1);(2-Chloroethyl)trimethylammonium chloride;Ammonium, (2-chloroethyl)trimethyl-, chloride;Ethanaminium, 2-chloro-<em>N</em>,<em>N</em>,<em>N</em>-trimethyl-, chloride;Chlorocholine chloride;Cycocel;Trimethyl-β-chloroethylammonium chloride;CCC;Chlorcholine chloride;Chlormequat chloride;TUR;(β-Chloroethyl)trimethylammonium chloride;Stabilan;60CS16;Retacel;Antywylegacz;WR 62;Zar;Lihocin;Halloween;Microcil;Barleyquat B;New ′5c' Cycocel;Cycocel Extra;New 5C Cycocel;Bercema CCC;Cycogan;Cysocel;Antywylegacz Plynny;Tuval;Antywylegacz plynny 675SL;C5 SUN;(2-Chloroethyl)trimethylazanium chloride;2-Chloro-<em>N</em>,<em>N</em>,<em>N</em>-trimethylethanaminium chloride",
    "duplicated_cas_no": "8073-20-9;39394-21-3;360577-25-9",
    "SMILES": "C([N+](C)(C)C)CCl.[Cl-]",
    "meta_data": {
        "InChI": "InChI=1S/C5H13ClN.ClH/c1-7(2,3)5-4-6;/h4-5H2,1-3H3;1H/q+1;/p-1",
        "InChIKey": null,
        "Canonical SMILES": "[Cl-].ClCC[N+](C)(C)C",
        "Molecular Formula": "C<sub>5</sub>H<sub>13</sub>ClN.Cl",
        "Molecular Mass": "",
        "Melting Point": "245 °C (decomp)"
    }
}