{
    "cas_no": "15727-65-8",
    "key_name": "1-Ethynylnaphthalene",
    "cn_name": "1-乙炔基萘;",
    "alternate_name": "Naphthalene, 1-ethynyl-;1-Ethynylnaphthalene;α-Naphthylacetylene;α-Ethynylnaphthalene;1-Naphthylacetylene;1-Naphthylethyne",
    "duplicated_cas_no": "",
    "SMILES": "C(#C)C=1C2=C(C=CC1)C=CC=C2",
    "meta_data": {
        "InChI": "InChI=1S/C12H8/c1-2-10-7-5-8-11-6-3-4-9-12(10)11/h1,3-9H",
        "InChIKey": null,
        "Canonical SMILES": "C#CC1=CC=CC=2C=CC=CC12",
        "Molecular Formula": "C<sub>12</sub>H<sub>8</sub>",
        "Molecular Mass": "152.19",
        "Boiling Point": "92 °C @ Press: 4 Torr",
        "Melting Point": "1-2 °C",
        "Density": "1.0513 g/cm³ @ Temp: 20 °C"
    }
}