{
    "cas_no": "18105-31-2",
    "key_name": "1,6-Bis(trimethylsilyl) hexanedioate",
    "cn_name": null,
    "alternate_name": "Hexanedioic acid, 1,6-bis(trimethylsilyl) ester;Adipic acid, bis(trimethylsilyl) ester;Hexanedioic acid, bis(trimethylsilyl) ester;1,6-Bis(trimethylsilyl) hexanedioate;Bis(trimethylsilyl) adipate",
    "duplicated_cas_no": "",
    "SMILES": "O([Si](C)(C)C)C(CCCCC(O[Si](C)(C)C)=O)=O",
    "meta_data": {
        "InChI": "InChI=1S/C12H26O4Si2/c1-17(2,3)15-11(13)9-7-8-10-12(14)16-18(4,5)6/h7-10H2,1-6H3",
        "InChIKey": null,
        "Canonical SMILES": "O=C(O[Si](C)(C)C)CCCCC(=O)O[Si](C)(C)C",
        "Molecular Formula": "C<sub>12</sub>H<sub>26</sub>O<sub>4</sub>Si<sub>2</sub>",
        "Molecular Mass": "290.50",
        "Boiling Point": "134-136 °C @ Press: 12 Torr",
        "Density": "0.948 g/cm³"
    }
}