{
    "cas_no": "20315-68-8",
    "key_name": "Pinoline",
    "cn_name": "2,3,4,9-四氢-6-甲氧基-1H-吡咯[3,4-B]吲哚;",
    "alternate_name": "1<em>H</em>-Pyrido[3,4-<em>b</em>]indole, 2,3,4,9-tetrahydro-6-methoxy-;2,3,4,9-Tetrahydro-6-methoxy-1<em>H</em>-pyrido[3,4-<em>b</em>]indole;6-Methoxy-1,2,3,4-tetrahydro-β-carboline;6-Methoxytetrahydro-β-carboline;6-Methoxytryptoline;Pinoline;6-Methoxy-THBC;6-Methoxy-1,2,3,4-tetrahydro-9<em>H</em>-pyrido[3,4-<em>b</em>]indole;6-Methoxy-2,3,4,9-tetrahydro-1<em>H</em>-pyrido[3,4-<em>b</em>]indole",
    "duplicated_cas_no": "166438-08-0",
    "SMILES": "O(C)C=1C=C2C3=C(NC2=CC1)CNCC3",
    "meta_data": {
        "InChI": "InChI=1S/C12H14N2O/c1-15-8-2-3-11-10(6-8)9-4-5-13-7-12(9)14-11/h2-3,6,13-14H,4-5,7H2,1H3",
        "InChIKey": null,
        "Canonical SMILES": "O(C=1C=CC=2NC3=C(C2C1)CCNC3)C",
        "Molecular Formula": "C<sub>12</sub>H<sub>14</sub>N<sub>2</sub>O",
        "Molecular Mass": "202.25",
        "Boiling Point": "&lt;170 °C",
        "Melting Point": "220-223 °C"
    }
}