{
    "cas_no": "527-69-5",
    "key_name": "2-Furancarbonyl chloride",
    "cn_name": "呋喃甲酰氯;糠酰氯;",
    "alternate_name": "2-Furancarbonyl chloride;2-Furoyl chloride;α-Furoic chloride;Pyromucyl chloride;2-(Chlorocarbonyl)furan;2-Furancarboxylic acid chloride;2-(Chloroformyl)furan;2-Furoic acid chloride;Furan-2-carboxylic chloride;2-Furanoyl chloride;2-Furylcarbonyl chloride;2-Furoic chloride;2-Furanylcarbonyl chloride;2-Furanoic acid chloride;Furan-2-carbonyl chloride",
    "duplicated_cas_no": "",
    "SMILES": "C(Cl)(=O)C1=CC=CO1",
    "meta_data": {
        "InChI": "InChI=1S/C5H3ClO2/c6-5(7)4-2-1-3-8-4/h1-3H",
        "InChIKey": null,
        "Canonical SMILES": "O=C(Cl)C=1OC=CC1",
        "Molecular Formula": "C<sub>5</sub>H<sub>3</sub>ClO<sub>2</sub>",
        "Molecular Mass": "130.53",
        "Boiling Point": "173 °C",
        "Melting Point": "-2 °C",
        "Density": "1.3227 g/cm³ @ Temp: 20 °C"
    }
}