{
    "cas_no": "22651-87-2",
    "key_name": "Cyclohexanecarboxylic anhydride",
    "cn_name": null,
    "alternate_name": "Cyclohexanecarboxylic acid, 1,1′-anhydride;Cyclohexanecarboxylic anhydride;Cyclohexanecarboxylic acid, anhydride;NSC 75109",
    "duplicated_cas_no": "",
    "SMILES": "C(OC(=O)C1CCCCC1)(=O)C2CCCCC2",
    "meta_data": {
        "InChI": "InChI=1S/C14H22O3/c15-13(11-7-3-1-4-8-11)17-14(16)12-9-5-2-6-10-12/h11-12H,1-10H2",
        "InChIKey": null,
        "Canonical SMILES": "O=C(OC(=O)C1CCCCC1)C2CCCCC2",
        "Molecular Formula": "C<sub>14</sub>H<sub>22</sub>O<sub>3</sub>",
        "Molecular Mass": "238.32",
        "Boiling Point": "160-162 °C",
        "Melting Point": "25 °C"
    }
}