{
    "cas_no": "627-64-5",
    "key_name": "Fumaramide",
    "cn_name": null,
    "alternate_name": "2-Butenediamide, (2<em>E</em>)-;Fumaramide;2-Butenediamide, (<em>E</em>)-;(2<em>E</em>)-2-Butenediamide;Fumaric diamide;Fumaric acid diamide;NSC 16608",
    "duplicated_cas_no": "",
    "SMILES": "C(=C/C(N)=O)\\C(N)=O",
    "meta_data": {
        "InChI": "InChI=1S/C4H6N2O2/c5-3(7)1-2-4(6)8/h1-2H,(H2,5,7)(H2,6,8)/b2-1+",
        "InChIKey": null,
        "Canonical SMILES": "O=C(N)C=CC(=O)N",
        "Molecular Formula": "C<sub>4</sub>H<sub>6</sub>N<sub>2</sub>O<sub>2</sub>",
        "Molecular Mass": "114.10",
        "Melting Point": "267 °C"
    }
}