{
    "cas_no": "1013405-25-8",
    "key_name": "9,9′-(3,5-Pyridinediyldi-3,1-phenylene)bis[9<em>H</em>-carbazole]",
    "cn_name": null,
    "alternate_name": "9<em>H</em>-Carbazole, 9,9′-(3,5-pyridinediyldi-3,1-phenylene)bis-;9,9′-(3,5-Pyridinediyldi-3,1-phenylene)bis[9<em>H</em>-carbazole];3,5-Bis[3-(9<em>H</em>-carbazol-9-yl)phenyl]pyridine",
    "duplicated_cas_no": "2154401-41-7",
    "SMILES": "N1(C=2C(C=3C1=CC=CC3)=CC=CC2)C4=CC(=CC=C4)C=5C=C(C=NC5)C6=CC(=CC=C6)N7C=8C(C=9C7=CC=CC9)=CC=CC8",
    "meta_data": {
        "InChI": "InChI=1S/C41H27N3/c1-5-19-38-34(15-1)35-16-2-6-20-39(35)43(38)32-13-9-11-28(24-32)30-23-31(27-42-26-30)29-12-10-14-33(25-29)44-40-21-7-3-17-36(40)37-18-4-8-22-41(37)44/h1-27H",
        "InChIKey": null,
        "Canonical SMILES": "N=1C=C(C=C(C1)C2=CC=CC(=C2)N3C=4C=CC=CC4C=5C=CC=CC53)C6=CC=CC(=C6)N7C=8C=CC=CC8C=9C=CC=CC97",
        "Molecular Formula": "C<sub>41</sub>H<sub>27</sub>N<sub>3</sub>",
        "Molecular Mass": "561.67",
        "Melting Point": "237 °C"
    }
}