{
    "cas_no": "616-25-1",
    "key_name": "1-Penten-3-ol",
    "cn_name": "1-戊烯-3-醇;乙基乙烯基甲醇;",
    "alternate_name": "1-Penten-3-ol;Ethyl vinyl carbinol;α-Ethylallyl alcohol;1-Ethylallyl alcohol;3-Hydroxy-1-pentene;(±)-1-Penten-3-ol;NSC 65446",
    "duplicated_cas_no": "67928-92-1",
    "SMILES": "C(CC)(C=C)O",
    "meta_data": {
        "InChI": "InChI=1S/C5H10O/c1-3-5(6)4-2/h3,5-6H,1,4H2,2H3",
        "InChIKey": null,
        "Canonical SMILES": "OC(C=C)CC",
        "Molecular Formula": "C<sub>5</sub>H<sub>10</sub>O",
        "Molecular Mass": "86.13",
        "Boiling Point": "115 °C",
        "Density": "0.839 g/cm³ @ Temp: 22 °C"
    }
}