{
    "cas_no": "350-57-2",
    "key_name": "(1,1,2,2-Tetrafluoroethoxy)benzene",
    "cn_name": "1,1,2,2-四氟乙基苯基醚;",
    "alternate_name": "Benzene, (1,1,2,2-tetrafluoroethoxy)-;Phenetole, α,α,β,β-tetrafluoro-;(1,1,2,2-Tetrafluoroethoxy)benzene;1,1,2,2-Tetrafluoroethyl phenyl ether;Phenyl α,α,β,β-tetrafluoroethyl ether;4-(1,1,2,2-Tetrafluoroethoxy)benzene",
    "duplicated_cas_no": "130977-58-1",
    "SMILES": "O(C(C(F)F)(F)F)C1=CC=CC=C1",
    "meta_data": {
        "InChI": "InChI=1S/C8H6F4O/c9-7(10)8(11,12)13-6-4-2-1-3-5-6/h1-5,7H",
        "InChIKey": null,
        "Canonical SMILES": "FC(F)C(F)(F)OC=1C=CC=CC1",
        "Molecular Formula": "C<sub>8</sub>H<sub>6</sub>F<sub>4</sub>O",
        "Molecular Mass": "194.13",
        "Boiling Point": "102 °C @ Press: 100 Torr"
    }
}