{
    "cas_no": "1567-89-1",
    "key_name": "2-Propanone, 2-(2,4-dinitrophenyl)hydrazone",
    "cn_name": "丙酮2,4-二硝基苯腙;",
    "alternate_name": "2-Propanone, 2-(2,4-dinitrophenyl)hydrazone;Acetone, (2,4-dinitrophenyl)hydrazone;2-Propanone, (2,4-dinitrophenyl)hydrazone;NSC 131450;NSC 6120;1-(2,4-Dinitrophenyl)-2-(propan-2-ylidene)hydrazine;2,4-Dinitro-<em>N</em>-(propan-2-ylideneamino)aniline",
    "duplicated_cas_no": "",
    "SMILES": "N(=O)(=O)C1=C(NN=C(C)C)C=CC(N(=O)=O)=C1",
    "meta_data": {
        "InChI": "InChI=1S/C9H10N4O4/c1-6(2)10-11-8-4-3-7(12(14)15)5-9(8)13(16)17/h3-5,11H,1-2H3",
        "InChIKey": null,
        "Canonical SMILES": "O=N(=O)C1=CC=C(NN=C(C)C)C(=C1)N(=O)=O",
        "Molecular Formula": "C<sub>9</sub>H<sub>10</sub>N<sub>4</sub>O<sub>4</sub>",
        "Molecular Mass": "238.20",
        "Melting Point": "126-127 °C"
    }
}