{
    "cas_no": "2683-90-1",
    "key_name": "3,6-Dihydro-7<em>H</em>-1,2,3-triazolo[4,5-<em>d</em>]pyrimidin-7-one",
    "cn_name": "阿扎次黄嘌呤;阿扎次黄嘌呤;",
    "alternate_name": "7<em>H</em>-1,2,3-Triazolo[4,5-<em>d</em>]pyrimidin-7-one, 3,6-dihydro-;7<em>H</em>-<em>v</em>-Triazolo[4,5-<em>d</em>]pyrimidin-7-one, 1,6-dihydro-;7<em>H</em>-1,2,3-Triazolo[4,5-<em>d</em>]pyrimidin-7-one, 1,4-dihydro-;3,6-Dihydro-7<em>H</em>-1,2,3-triazolo[4,5-<em>d</em>]pyrimidin-7-one;8-Azahypoxanthine;1<em>H</em>-<em>v</em>-Triazolo[4,5-<em>d</em>]pyrimidin-7-ol;1<em>H</em>-1,2,3-Triazolo[4,5-<em>d</em>]pyrimidin-7-ol;7-Hydroxy-<em>v</em>-triazolo[<em>d</em>]pyrimidine;7-Hydroxy-1,2,3,4,6-pentaazaindene;NSC 22709;1<em>H</em>,4<em>H</em>,7<em>H</em>-[1,2,3]Triazolo[4,5-<em>d</em>]pyrimidin-7-one;2,3-Dihydrotriazolo[4,5-<em>d</em>]pyrimidin-7-one",
    "duplicated_cas_no": "10555-30-3;39455-91-9;57364-77-9",
    "SMILES": "O=C1C2=C(NC=N1)N=NN2",
    "meta_data": {
        "InChI": "InChI=1S/C4H3N5O/c10-4-2-3(5-1-6-4)8-9-7-2/h1H,(H2,5,6,7,8,9,10)",
        "InChIKey": null,
        "Canonical SMILES": "O=C1N=CNC=2N=NNC12",
        "Molecular Formula": "C<sub>4</sub>H<sub>3</sub>N<sub>5</sub>O",
        "Molecular Mass": "137.10",
        "Melting Point": "332 °C (decomp)"
    }
}