{
    "cas_no": "3208-16-0",
    "key_name": "2-Ethylfuran",
    "cn_name": "2-乙基呋喃;",
    "alternate_name": "Furan, 2-ethyl-;2-Ethylfuran;α-Ethylfuran",
    "duplicated_cas_no": "",
    "SMILES": "C(C)C1=CC=CO1",
    "meta_data": {
        "InChI": "InChI=1S/C6H8O/c1-2-6-4-3-5-7-6/h3-5H,2H2,1H3",
        "InChIKey": null,
        "Canonical SMILES": "O1C=CC=C1CC",
        "Molecular Formula": "C<sub>6</sub>H<sub>8</sub>O",
        "Molecular Mass": "96.13",
        "Boiling Point": "92 °C",
        "Density": "0.912 g/cm³ @ Temp: 13 °C"
    }
}