{
    "cas_no": "42823-46-1",
    "key_name": "4-Guanidinobenzoic acid hydrochloride",
    "cn_name": "4-胍基苯甲酸盐酸盐;对胍基苯甲酸盐酸盐;",
    "alternate_name": "Benzoic acid, 4-[(aminoiminomethyl)amino]-, hydrochloride (1:1);Benzoic acid, 4-[(aminoiminomethyl)amino]-, monohydrochloride;Benzoic acid, <em>p</em>-guanidino-, hydrochloride;<em>p</em>-Guanidinobenzoic acid hydrochloride;4-Guanidinobenzoic acid monohydrochloride;4-Guanidinobenzoic acid hydrochloride;4-[[Amino(imino)methyl]amino]benzoic acid hydrochloride",
    "duplicated_cas_no": "",
    "SMILES": "N(C(=N)N)C1=CC=C(C(O)=O)C=C1.Cl",
    "meta_data": {
        "InChI": "InChI=1S/C8H9N3O2.ClH/c9-8(10)11-6-3-1-5(2-4-6)7(12)13;/h1-4H,(H,12,13)(H4,9,10,11);1H",
        "InChIKey": null,
        "Canonical SMILES": "Cl.O=C(O)C1=CC=C(C=C1)NC(=N)N",
        "Molecular Formula": "C<sub>8</sub>H<sub>9</sub>N<sub>3</sub>O<sub>2</sub>.ClH",
        "Molecular Mass": "",
        "Melting Point": "268 °C (decomp)"
    }
}