{
    "cas_no": "6654-36-0",
    "key_name": "Methyl 6-oxohexanoate",
    "cn_name": null,
    "alternate_name": "Hexanoic acid, 6-oxo-, methyl ester;Adipaldehydic acid, methyl ester;Methyl 6-oxohexanoate;Methyl adipaldehydate;Methyl 5-formylpentanoate;5-Formylvaleric acid, methyl ester;5-Formylpentanoic acid, methyl ester;Methyl 5-formylvalerate;5-Carbomethoxy-1-pentanal;Adipic acid semialdehyde methyl ester;Methyl 6-oxocaproate;6-Oxohexanoic acid methyl ester",
    "duplicated_cas_no": "",
    "SMILES": "C(CCCCC=O)(OC)=O",
    "meta_data": {
        "InChI": "InChI=1S/C7H12O3/c1-10-7(9)5-3-2-4-6-8/h6H,2-5H2,1H3",
        "InChIKey": null,
        "Canonical SMILES": "O=CCCCCC(=O)OC",
        "Molecular Formula": "C<sub>7</sub>H<sub>12</sub>O<sub>3</sub>",
        "Molecular Mass": "144.17",
        "Boiling Point": "103 °C @ Press: 0.13 Torr",
        "Density": "1.0388 g/cm³"
    }
}