{
    "cas_no": "17965-80-9",
    "key_name": "1,5-Naphthyridin-2-amine",
    "cn_name": null,
    "alternate_name": "1,5-Naphthyridin-2-amine;1,5-Naphthyridine, 2-amino-;2-Amino-1,5-naphthyridine",
    "duplicated_cas_no": "",
    "SMILES": "NC1=NC2=C(C=C1)N=CC=C2",
    "meta_data": {
        "InChI": "InChI=1S/C8H7N3/c9-8-4-3-6-7(11-8)2-1-5-10-6/h1-5H,(H2,9,11)",
        "InChIKey": null,
        "Canonical SMILES": "N=1C=CC=C2N=C(N)C=CC12",
        "Molecular Formula": "C<sub>8</sub>H<sub>7</sub>N<sub>3</sub>",
        "Molecular Mass": "145.16",
        "Melting Point": "204-205 °C"
    }
}