{
    "cas_no": "27918-19-0",
    "key_name": "Benzenesulfonamide, 4-hydrazinyl-, hydrochloride (1:?)",
    "cn_name": null,
    "alternate_name": "Benzenesulfonamide, 4-hydrazinyl-, hydrochloride (1:?);Benzenesulfonamide, <em>p</em>-hydrazino-, hydrochloride;Benzenesulfonamide, 4-hydrazino-, hydrochloride;Phenylhydrazine-4-sulfonamide hydrochloride;4-Sulfonamidophenylhydrazine hydrochloride;(4-Sulfamylphenyl)hydrazine hydrochloride;4-Hydrazinobenzenesulfonamide hydrochloride",
    "duplicated_cas_no": "",
    "SMILES": "S(N)(=O)(=O)C1=CC=C(NN)C=C1.Cl",
    "meta_data": {
        "InChI": "InChI=1S/C6H9N3O2S.ClH/c7-9-5-1-3-6(4-2-5)12(8,10)11;/h1-4,9H,7H2,(H2,8,10,11);1H",
        "InChIKey": null,
        "Canonical SMILES": "Cl.O=S(=O)(N)C1=CC=C(C=C1)NN",
        "Molecular Formula": "C<sub>6</sub>H<sub>9</sub>N<sub>3</sub>O<sub>2</sub>S.xClH",
        "Molecular Mass": "",
        "Melting Point": "205-211 °C (decomp)"
    }
}