{
    "cas_no": "4206-75-1",
    "key_name": "(Chlorosilyl)benzene",
    "cn_name": "氯苯基硅烷;苯基氯硅烷;",
    "alternate_name": "Benzene, (chlorosilyl)-;Silane, chlorophenyl-;(Chlorosilyl)benzene;Chlorophenylsilane;Phenylchlorosilane",
    "duplicated_cas_no": "",
    "SMILES": "[SiH2](Cl)C1=CC=CC=C1",
    "meta_data": {
        "InChI": "InChI=1S/C6H7ClSi/c7-8-6-4-2-1-3-5-6/h1-5H,8H2",
        "InChIKey": null,
        "Canonical SMILES": "Cl[SiH2]C=1C=CC=CC1",
        "Molecular Formula": "C<sub>6</sub>H<sub>7</sub>ClSi",
        "Molecular Mass": "142.66",
        "Boiling Point": "162.5 °C",
        "Melting Point": "156 °C"
    }
}