{
    "cas_no": "1313-96-8",
    "key_name": "Niobium pentoxide",
    "cn_name": "五氧化二铌;",
    "alternate_name": "Niobium oxide (Nb<sub>2</sub>O<sub>5</sub>);Niobium pentoxide;Diniobium pentaoxide;Diniobium pentoxide;Niobium pentaoxide;Niobium(V) oxide;Niobium oxide;Niobia;Niobium(5+) oxide;Niobium oxide (Nb<sub>10</sub>O<sub>25</sub>);Cerac N 1117;Optolake 17;Nd-AC 25E;Biral Nb-X 10;HY 340;HY 340 (metal oxide);Biral Nb-G 6000;Nb-X 10;Nb-G 6000;Biral Nb-G 6600;Nb-G 6600;Biral Nb 6000",
    "duplicated_cas_no": "144439-99-6",
    "SMILES": "",
    "meta_data": {
        "InChI": "",
        "InChIKey": null,
        "Canonical SMILES": "",
        "Molecular Formula": "Nb<sub>2</sub>O<sub>5</sub>",
        "Molecular Mass": "",
        "Melting Point": "1485 °C",
        "Density": "4.36 g/cm³"
    }
}