{
    "uri": "substance/pt/1313968",
    "rn": "1313-96-8",
    "name": "Niobium pentoxide",
    "images": [],
    "inchi": "",
    "inchiKey": "",
    "smile": "",
    "canonicalSmile": "",
    "molecularFormula": "Nb<sub>2</sub>O<sub>5</sub>",
    "molecularMass": "",
    "experimentalProperties": [
        {
            "name": "Melting Point",
            "property": "1485 °C",
            "sourceNumber": 1
        },
        {
            "name": "Density",
            "property": "4.36 g/cm³",
            "sourceNumber": 2
        }
    ],
    "propertyCitations": [
        {
            "docUri": "document/pt/document/11582521",
            "sourceNumber": 1,
            "source": "Roth, R. S.; Journal of Research of the National Bureau of Standards, Section A:  Physics and Chemistry, (1966), 70(4), 281-803, CAplus"
        },
        {
            "docUri": "document/pt/document/4014845",
            "sourceNumber": 2,
            "source": "Devi, D. Rama; Journal of the Electrochemical Society of India, (1989), 38(4), 291-2, CAplus"
        }
    ],
    "synonyms": [
        "Niobium oxide (Nb<sub>2</sub>O<sub>5</sub>)",
        "Niobium pentoxide",
        "Diniobium pentaoxide",
        "Diniobium pentoxide",
        "Niobium pentaoxide",
        "Niobium(V) oxide",
        "Niobium oxide",
        "Niobia",
        "Niobium(5+) oxide",
        "Niobium oxide (Nb<sub>10</sub>O<sub>25</sub>)",
        "Cerac N 1117",
        "Optolake 17",
        "Nd-AC 25E",
        "Biral Nb-X 10",
        "HY 340",
        "HY 340 (metal oxide)",
        "Biral Nb-G 6000",
        "Nb-X 10",
        "Nb-G 6000",
        "Biral Nb-G 6600",
        "Nb-G 6600",
        "Biral Nb 6000"
    ],
    "replacedRns": [
        "144439-99-6"
    ],
    "hasMolfile": false,
    "source": "https://commonchemistry.cas.org/detail?cas_rn=1313-96-8"
}