{
    "cas_no": "56-17-7",
    "key_name": "Cystamine dihydrochloride",
    "cn_name": "胱胺二盐酸盐;二盐酸胱胺;",
    "alternate_name": "Ethanamine, 2,2′-dithiobis-, hydrochloride (1:2);Ethylamine, 2,2′-dithiobis-, dihydrochloride;Ethanamine, 2,2′-dithiobis-, dihydrochloride;Cystamine dihydrochloride;Bis(2-aminoethyl) disulfide dihydrochloride;2,2′-Dithiobis[ethylamine] dihydrochloride;Cystamine hydrochloride;Cystamine dichlorohydrate;WR 352;2-(2-Aminoethyldisulfanyl)ethanamine dihydrochloride",
    "duplicated_cas_no": "111625-30-0",
    "SMILES": "S(SCCN)CCN.Cl",
    "meta_data": {
        "InChI": "InChI=1S/C4H12N2S2.2ClH/c5-1-3-7-8-4-2-6;;/h1-6H2;2*1H",
        "InChIKey": null,
        "Canonical SMILES": "Cl.S(SCCN)CCN",
        "Molecular Formula": "C<sub>4</sub>H<sub>12</sub>N<sub>2</sub>S<sub>2</sub>.2ClH",
        "Molecular Mass": "",
        "Melting Point": "212-212.5 °C"
    }
}