{
    "cas_no": "344-03-6",
    "key_name": "1,4-Dibromo-2,3,5,6-tetrafluorobenzene",
    "cn_name": "1,4-二溴四氟苯;",
    "alternate_name": "Benzene, 1,4-dibromo-2,3,5,6-tetrafluoro-;Benzene, 1,4-dibromotetrafluoro-;1,4-Dibromo-2,3,5,6-tetrafluorobenzene;1,4-Dibromotetrafluorobenzene;<em>p</em>-Dibromotetrafluorobenzene;NSC 97061;1,4-Dibromoperfluorobenzene;2,3,5,6-Tetrafluoro-1,4-dibromobenzene",
    "duplicated_cas_no": "",
    "SMILES": "BrC1=C(F)C(F)=C(Br)C(F)=C1F",
    "meta_data": {
        "InChI": "InChI=1S/C6Br2F4/c7-1-3(9)5(11)2(8)6(12)4(1)10",
        "InChIKey": null,
        "Canonical SMILES": "FC=1C(F)=C(Br)C(F)=C(F)C1Br",
        "Molecular Formula": "C<sub>6</sub>Br<sub>2</sub>F<sub>4</sub>",
        "Molecular Mass": "307.87",
        "Melting Point": "78-81 °C"
    }
}