{
    "cas_no": "3063-05-6",
    "key_name": "<span class=\"text-smallcaps\">L</smallcap>-Leucyl-<smallcap>L</span>-phenylalanine",
    "cn_name": null,
    "alternate_name": "<span class=\"text-smallcaps\">L</smallcap>-Phenylalanine, <smallcap>L</span>-leucyl-;Alanine, <em>N</em>-<span class=\"text-smallcaps\">L</smallcap>-leucyl-3-phenyl-, <smallcap>L</span>-;<span class=\"text-smallcaps\">L</smallcap>-Phenylalanine, <em>N</em>-<smallcap>L</span>-leucyl-;Alanine, <em>N</em>-<span class=\"text-smallcaps\">L</span>-leucyl-3-phenyl-;Alanine, <em>N</em>-leucyl-3-phenyl-;<span class=\"text-smallcaps\">L</smallcap>-Leucyl-<smallcap>L</span>-phenylalanine;Leucylphenylalanine;NSC 89191;218: PN: EP2161028 PAGE: 11 claimed protein;165: PN: WO2010045512 SEQID: 174 unclaimed protein;326: PN: WO2010059829 SEQID: 354 unclaimed protein;301: PN: WO2014145242 PAGE: 31 claimed protein;45: PN: WO2020097235 SEQID: 274 claimed protein",
    "duplicated_cas_no": "",
    "SMILES": "C([C@H](NC([C@H](CC(C)C)N)=O)C(O)=O)C1=CC=CC=C1",
    "meta_data": {
        "InChI": "InChI=1S/C15H22N2O3/c1-10(2)8-12(16)14(18)17-13(15(19)20)9-11-6-4-3-5-7-11/h3-7,10,12-13H,8-9,16H2,1-2H3,(H,17,18)(H,19,20)/t12-,13-/m0/s1",
        "InChIKey": null,
        "Canonical SMILES": "O=C(O)C(NC(=O)C(N)CC(C)C)CC=1C=CC=CC1",
        "Molecular Formula": "C<sub>15</sub>H<sub>22</sub>N<sub>2</sub>O<sub>3</sub>",
        "Molecular Mass": "278.35",
        "Melting Point": "218-220 °C"
    }
}