{
    "cas_no": "62266-82-4",
    "key_name": "6-Bromo-2-benzothiazolinone",
    "cn_name": "6-溴-2-苯并噻唑啉酮;",
    "alternate_name": "2(3<em>H</em>)-Benzothiazolone, 6-bromo-;2-Benzothiazolol, 6-bromo-;6-Bromo-2(3<em>H</em>)-benzothiazolone;6-Bromo-2-hydroxybenzothiazole;6-Bromo-2-benzothiazolinone;6-Bromo-3<em>H</em>-benzothiazol-2-one;6-Bromo-1,3-benzothiazol-2(3<em>H</em>)-one;6-Bromo-2-oxo-2,3-dihydro-1,3-benzothiazole;6-Bromo-3<em>H</em>-1,3-benzothiazol-2-one",
    "duplicated_cas_no": "",
    "SMILES": "O=C1NC=2C(S1)=CC(Br)=CC2",
    "meta_data": {
        "InChI": "InChI=1S/C7H4BrNOS/c8-4-1-2-5-6(3-4)11-7(10)9-5/h1-3H,(H,9,10)",
        "InChIKey": null,
        "Canonical SMILES": "O=C1SC2=CC(Br)=CC=C2N1",
        "Molecular Formula": "C<sub>7</sub>H<sub>4</sub>BrNOS",
        "Molecular Mass": "230.08",
        "Melting Point": "226 °C"
    }
}