{
    "cas_no": "79200-56-9",
    "key_name": "(-)-2-Azabicyclo[2.2.1]hept-5-en-3-one",
    "cn_name": null,
    "alternate_name": "2-Azabicyclo[2.2.1]hept-5-en-3-one, (1<em>R</em>,4<em>S</em>)-;2-Azabicyclo[2.2.1]hept-5-en-3-one, (1<em>R</em>)-;(1<em>R</em>,4<em>S</em>)-2-Azabicyclo[2.2.1]hept-5-en-3-one;(-)-2-Azabicyclo[2.2.1]hept-5-en-3-one;(1<em>R</em>)-(-)-2-Azabicyclo[2.2.1]hept-5-en-3-one;(1<em>R</em>,4<em>S</em>)-(-)-2-Azabicyclo[2.2.1]hept-5-en-3-one;(-)-Vince lactam;(1R,4S)-2-Azabicyclo[2.2.1]hept-5-en-3-one",
    "duplicated_cas_no": "1315057-26-1;1933691-52-1;2088056-75-9;2310326-30-6;2643307-04-2",
    "SMILES": "O=C1[C@]2(C[C@@](N1)(C=C2)[H])[H]",
    "meta_data": {
        "InChI": "InChI=1S/C6H7NO/c8-6-4-1-2-5(3-4)7-6/h1-2,4-5H,3H2,(H,7,8)/t4-,5+/m1/s1",
        "InChIKey": null,
        "Canonical SMILES": "O=C1NC2C=CC1C2",
        "Molecular Formula": "C<sub>6</sub>H<sub>7</sub>NO",
        "Molecular Mass": "109.13",
        "Melting Point": "94-95 °C"
    }
}