{
    "cas_no": "15686-51-8",
    "key_name": "Clemastine",
    "cn_name": "克敏停;克立马丁;富马酸氯马斯丁;克立马丁;克敏停;氯马斯丁;",
    "alternate_name": "Pyrrolidine, 2-[2-[(1<em>R</em>)-1-(4-chlorophenyl)-1-phenylethoxy]ethyl]-1-methyl-, (2<em>R</em>)-;Pyrrolidine, 2-[2-[(<em>p</em>-chloro-α-methyl-α-phenylbenzyl)oxy]ethyl]-1-methyl-, (+)-;Pyrrolidine, 2-[2-[1-(4-chlorophenyl)-1-phenylethoxy]ethyl]-1-methyl-, [<em>R</em>-(<em>R</em>*,<em>R</em>*)]-;(2<em>R</em>)-2-[2-[(1<em>R</em>)-1-(4-Chlorophenyl)-1-phenylethoxy]ethyl]-1-methylpyrrolidine;Clemastine;Meclastine;(+)-Clemastine;MeSH ID: D002974",
    "duplicated_cas_no": "",
    "SMILES": "[C@@](OCC[C@@H]1N(C)CCC1)(C)(C2=CC=C(Cl)C=C2)C3=CC=CC=C3",
    "meta_data": {
        "InChI": "InChI=1S/C21H26ClNO/c1-21(17-7-4-3-5-8-17,18-10-12-19(22)13-11-18)24-16-14-20-9-6-15-23(20)2/h3-5,7-8,10-13,20H,6,9,14-16H2,1-2H3/t20-,21-/m1/s1",
        "InChIKey": null,
        "Canonical SMILES": "ClC1=CC=C(C=C1)C(OCCC2N(C)CCC2)(C=3C=CC=CC3)C",
        "Molecular Formula": "C<sub>21</sub>H<sub>26</sub>ClNO",
        "Molecular Mass": "343.89",
        "Boiling Point": "154 °C @ Press: 0.02 Torr"
    }
}