{
    "cas_no": "1576-67-6",
    "key_name": "3,6-Dimethylphenanthrene",
    "cn_name": "3,6-二甲基菲;",
    "alternate_name": "Phenanthrene, 3,6-dimethyl-;3,6-Dimethylphenanthrene;NSC 60070",
    "duplicated_cas_no": "",
    "SMILES": "CC1=CC2=C3C(=CC=C2C=C1)C=CC(C)=C3",
    "meta_data": {
        "InChI": "InChI=1S/C16H14/c1-11-3-5-13-7-8-14-6-4-12(2)10-16(14)15(13)9-11/h3-10H,1-2H3",
        "InChIKey": null,
        "Canonical SMILES": "C1=CC2=CC=C(C=C2C3=CC(=CC=C13)C)C",
        "Molecular Formula": "C<sub>16</sub>H<sub>14</sub>",
        "Molecular Mass": "206.28",
        "Melting Point": "144-146 °C"
    }
}