{
    "cas_no": "13765-24-7",
    "key_name": "Samarium fluoride",
    "cn_name": "氟化钐;无水氟化钐;",
    "alternate_name": "Samarium fluoride (SmF<sub>3</sub>);Samarium trifluoride;Samarium fluoride",
    "duplicated_cas_no": "",
    "SMILES": "[Sm](F)(F)F",
    "meta_data": {
        "InChI": "InChI=1S/3FH.Sm/h3*1H;/q;;;+3/p-3",
        "InChIKey": null,
        "Canonical SMILES": "F[Sm](F)F",
        "Molecular Formula": "F<sub>3</sub>Sm",
        "Molecular Mass": "",
        "Melting Point": "1397 °C"
    }
}