{
    "cas_no": "103-17-3",
    "key_name": "Chlorbenside",
    "cn_name": "氯杀螨;",
    "alternate_name": "Benzene, 1-chloro-4-[[(4-chlorophenyl)methyl]thio]-;Sulfide, <em>p</em>-chlorobenzyl <em>p</em>-chlorophenyl;1-Chloro-4-[[(4-chlorophenyl)methyl]thio]benzene;Chlorbenside;<em>p</em>-Chlorobenzyl <em>p</em>-chlorophenyl sulfide;<em>p</em>-Chlorobenzyl <em>p</em>-chlorophenyl sulphide;4-Chlorobenzyl 4-chlorophenyl sulphide;Chlorparacide;Chlorsulphacide;Mitox;Chlorbensid;Chloracide;CP 20;4-Chlorobenzyl 4-chlorophenyl sulfide;NSC 33078;1-Chloro-4-[(4-chlorophenyl)sulfanylmethyl]benzene",
    "duplicated_cas_no": "",
    "SMILES": "C(SC1=CC=C(Cl)C=C1)C2=CC=C(Cl)C=C2",
    "meta_data": {
        "InChI": "InChI=1S/C13H10Cl2S/c14-11-3-1-10(2-4-11)9-16-13-7-5-12(15)6-8-13/h1-8H,9H2",
        "InChIKey": null,
        "Canonical SMILES": "ClC1=CC=C(SCC2=CC=C(Cl)C=C2)C=C1",
        "Molecular Formula": "C<sub>13</sub>H<sub>10</sub>Cl<sub>2</sub>S",
        "Molecular Mass": "269.19",
        "Boiling Point": "83-84 °C @ Press: 2.4 x 10<sup>-3</sup> Torr",
        "Melting Point": "75-76 °C",
        "Density": "1.4210 g/cm³ @ Temp: 25 °C"
    }
}