{
    "cas_no": "75-86-5",
    "key_name": "Acetone cyanohydrin",
    "cn_name": "丙酮氰醇;2-羟基异丁腈;",
    "alternate_name": "Propanenitrile, 2-hydroxy-2-methyl-;Lactonitrile, 2-methyl-;2-Hydroxy-2-methylpropanenitrile;α-Hydroxyisobutyronitrile;2-Methyllactonitrile;Acetone cyanohydrin;2-Hydroxyisobutyronitrile;2-Hydroxy-2-methylpropionitrile;2-Cyano-2-propanol;2-Cyano-2-hydroxypropane;2-Hydroxy-2-cyanopropane;2-Methyl-2-hydroxypropionitrile;2-Propanone, cyanohydrin;Dimethyl ketone cyanohydrin;NSC 131093;NSC 7080;NSC 977;2-Methyl-2-hydroxypropanenitrile",
    "duplicated_cas_no": "59182-86-4",
    "SMILES": "C(C#N)(C)(C)O",
    "meta_data": {
        "InChI": "InChI=1S/C4H7NO/c1-4(2,6)3-5/h6H,1-2H3",
        "InChIKey": null,
        "Canonical SMILES": "N#CC(O)(C)C",
        "Molecular Formula": "C<sub>4</sub>H<sub>7</sub>NO",
        "Molecular Mass": "85.10",
        "Boiling Point": "95 °C @ Press: 760 Torr",
        "Melting Point": "-19 °C",
        "Density": "0.9267 g/cm³ @ Temp: 25 °C"
    }
}