{
    "cas_no": "1498-51-7",
    "key_name": "Ethyl phosphorodichloridate",
    "cn_name": "二氯磷酸乙酯;",
    "alternate_name": "Phosphorodichloridic acid, ethyl ester;Ethyl phosphorodichloridate;Ethyl chlorophosphate, (EtO)Cl<sub>2</sub>PO;Ethylphosphoric acid dichloride;Dichloroethoxyphosphine oxide;Ethyl dichlorophosphinate;Ethyl dichlorophosphate;Ethyl phosphoryl dichloride;Ethoxyphosphoryl dichloride;NSC 87531;1-Dichlorophosphoryloxyethane",
    "duplicated_cas_no": "",
    "SMILES": "O(P(Cl)(Cl)=O)CC",
    "meta_data": {
        "InChI": "InChI=1S/C2H5Cl2O2P/c1-2-6-7(3,4)5/h2H2,1H3",
        "InChIKey": null,
        "Canonical SMILES": "O=P(Cl)(Cl)OCC",
        "Molecular Formula": "C<sub>2</sub>H<sub>5</sub>Cl<sub>2</sub>O<sub>2</sub>P",
        "Molecular Mass": "162.94",
        "Boiling Point": "96-104 °C @ Press: 0.2-0.8 Torr",
        "Melting Point": "-42.5 °C",
        "Density": "1.35 g/cm³ @ Temp: 19 °C"
    }
}