{
    "cas_no": "3687-45-4",
    "key_name": "Oleyl oleate",
    "cn_name": null,
    "alternate_name": "9-Octadecenoic acid (9<em>Z</em>)-, (9<em>Z</em>)-9-octadecen-1-yl ester;9-Octadecenoic acid (<em>Z</em>)-, 9-octadecenyl ester, (<em>Z</em>)-;Oleic acid, (<em>Z</em>)-9-octadecenyl ester;Oleic acid, <em>cis</em>-9-octadecenyl ester;Oleic acid, 9-octadecenyl ester;9-Octadecenoic acid (9<em>Z</em>)-, (9<em>Z</em>)-9-octadecenyl ester;9-Octadecen-1-ol, oleate, (<em>Z</em>)-;Cetiol;Oleyl oleate;Oleic acid oleyl ester;Cosmol liquid;Exceparl OL-OL;Crodamol OO-V;Schercemol OLO",
    "duplicated_cas_no": "8033-30-5;8038-91-3",
    "SMILES": "O(C(CCCCCCC/C=C\\CCCCCCCC)=O)CCCCCCCC/C=C\\CCCCCCCC",
    "meta_data": {
        "InChI": "InChI=1S/C36H68O2/c1-3-5-7-9-11-13-15-17-19-21-23-25-27-29-31-33-35-38-36(37)34-32-30-28-26-24-22-20-18-16-14-12-10-8-6-4-2/h17-20H,3-16,21-35H2,1-2H3/b19-17-,20-18-",
        "InChIKey": null,
        "Canonical SMILES": "O=C(OCCCCCCCCC=CCCCCCCCC)CCCCCCCC=CCCCCCCCC",
        "Molecular Formula": "C<sub>36</sub>H<sub>68</sub>O<sub>2</sub>",
        "Molecular Mass": "532.92",
        "Melting Point": "-7.1 °C",
        "Density": "0.8600 g/cm³ @ Temp: 30 °C"
    }
}