{
    "cas_no": "50593-73-2",
    "key_name": "4-Chloro-6-methoxy-2-methylquinoline",
    "cn_name": null,
    "alternate_name": "Quinoline, 4-chloro-6-methoxy-2-methyl-;Quinaldine, 4-chloro-6-methoxy-;4-Chloro-6-methoxy-2-methylquinoline",
    "duplicated_cas_no": "",
    "SMILES": "ClC=1C2=C(N=C(C)C1)C=CC(OC)=C2",
    "meta_data": {
        "InChI": "InChI=1S/C11H10ClNO/c1-7-5-10(12)9-6-8(14-2)3-4-11(9)13-7/h3-6H,1-2H3",
        "InChIKey": null,
        "Canonical SMILES": "ClC1=CC(=NC=2C=CC(OC)=CC12)C",
        "Molecular Formula": "C<sub>11</sub>H<sub>10</sub>ClNO",
        "Molecular Mass": "207.66",
        "Melting Point": "92-93 °C"
    }
}