{
    "cas_no": "560-09-8",
    "key_name": "(1<em>S</em>,3<em>R</em>)-1,2,2-Trimethyl-1,3-cyclopentanedicarboxylic acid",
    "cn_name": null,
    "alternate_name": "1,3-Cyclopentanedicarboxylic acid, 1,2,2-trimethyl-, (1<em>S</em>,3<em>R</em>)-;Camphoric acid, <em>cis</em>-(-)-;1,3-Cyclopentanedicarboxylic acid, 1,2,2-trimethyl-, (1<em>S</em>-<em>cis</em>)-;(1<em>S</em>,3<em>R</em>)-1,2,2-Trimethyl-1,3-cyclopentanedicarboxylic acid;(-)-<em>cis</em>-Camphoric acid;(-)-Camphoric acid;(1<em>S</em>,3<em>R</em>)-(-)-Camphoric acid;(1<em>S</em>,3<em>R</em>)-Camphoric acid;<span class=\"text-smallcaps\">L</span>-Camphoric acid;<em>l</em>-Camphoric acid;(1S,3R)-1,2,2-Trimethylcyclopentane-1,3-dicarboxylic acid",
    "duplicated_cas_no": "",
    "SMILES": "C(O)(=O)[C@]1(C)C(C)(C)[C@H](C(O)=O)CC1",
    "meta_data": {
        "InChI": "InChI=1S/C10H16O4/c1-9(2)6(7(11)12)4-5-10(9,3)8(13)14/h6H,4-5H2,1-3H3,(H,11,12)(H,13,14)/t6-,10+/m0/s1",
        "InChIKey": null,
        "Canonical SMILES": "O=C(O)C1CCC(C(=O)O)(C)C1(C)C",
        "Molecular Formula": "C<sub>10</sub>H<sub>16</sub>O<sub>4</sub>",
        "Molecular Mass": "200.23",
        "Melting Point": "181-182 °C"
    }
}