{
    "cas_no": "594-61-6",
    "key_name": "2-Hydroxyisobutyric acid",
    "cn_name": "2-甲基-2-羟基丙酸;2-羟基异丁酸;",
    "alternate_name": "Propanoic acid, 2-hydroxy-2-methyl-;Lactic acid, 2-methyl-;Isobutyric acid, α-hydroxy-;2-Hydroxy-2-methylpropanoic acid;α-Hydroxyisobutyric acid;2-Hydroxyisobutyric acid;2-Hydroxy-2-methylpropionic acid;2-Methyllactic acid;Hydroxydimethylacetic acid;Acetonic acid;α-Hydroxyisobutanoic acid;α-Hydroxy-α-methylpropanoic acid;α-HIB;NSC 402158;NSC 4505;2,2-Dimethylglycolic acid;Alpha-hydroxyisobutanoic acid;2-Hydroxyisobutanoic acid",
    "duplicated_cas_no": "27909-95-1",
    "SMILES": "C(C(O)=O)(C)(C)O",
    "meta_data": {
        "InChI": "InChI=1S/C4H8O3/c1-4(2,7)3(5)6/h7H,1-2H3,(H,5,6)",
        "InChIKey": null,
        "Canonical SMILES": "O=C(O)C(O)(C)C",
        "Molecular Formula": "C<sub>4</sub>H<sub>8</sub>O<sub>3</sub>",
        "Molecular Mass": "104.10",
        "Boiling Point": "212 °C",
        "Melting Point": "82.5 °C"
    }
}