{
    "cas_no": "88-11-9",
    "key_name": "Diethylthiocarbamoyl chloride",
    "cn_name": "二乙基硫代氨基甲酰氯;",
    "alternate_name": "Carbamothioic chloride, <em>N</em>,<em>N</em>-diethyl-;Carbamoyl chloride, diethylthio-;Carbamothioic chloride, diethyl-;<em>N</em>,<em>N</em>-Diethylcarbamothioic chloride;Diethylthiocarbamoyl chloride;Diethylthiocarbamyl chloride;<em>N</em>,<em>N</em>-Diethylthiocarbamoyl chloride;Diethylcarbamothioyl chloride;NSC 379476;(Chloromethanethioyl)diethylamine",
    "duplicated_cas_no": "",
    "SMILES": "N(C(Cl)=S)(CC)CC",
    "meta_data": {
        "InChI": "InChI=1S/C5H10ClNS/c1-3-7(4-2)5(6)8/h3-4H2,1-2H3",
        "InChIKey": null,
        "Canonical SMILES": "S=C(Cl)N(CC)CC",
        "Molecular Formula": "C<sub>5</sub>H<sub>10</sub>ClNS",
        "Molecular Mass": "151.66",
        "Boiling Point": "113 °C @ Press: 10 Torr",
        "Melting Point": "47-49 °C"
    }
}