{
    "cas_no": "23680-84-4",
    "key_name": "4-Amino-2-chloro-6,7-dimethoxyquinazoline",
    "cn_name": "2-氯-4-氨基-6,7-二甲氧基喹唑啉;",
    "alternate_name": "4-Quinazolinamine, 2-chloro-6,7-dimethoxy-;Quinazoline, 4-amino-2-chloro-6,7-dimethoxy-;2-Chloro-6,7-dimethoxy-4-quinazolinamine;4-Amino-2-chloro-6,7-dimethoxyquinazoline;2-Chloro-4-amino-6,7-dimethoxyquinazoline;2-Chloro-6,7-dimethoxy-quinazolin-4-ylamine",
    "duplicated_cas_no": "",
    "SMILES": "NC=1C2=C(C=C(OC)C(OC)=C2)N=C(Cl)N1",
    "meta_data": {
        "InChI": "InChI=1S/C10H10ClN3O2/c1-15-7-3-5-6(4-8(7)16-2)13-10(11)14-9(5)12/h3-4H,1-2H3,(H2,12,13,14)",
        "InChIKey": null,
        "Canonical SMILES": "ClC=1N=C(N)C=2C=C(OC)C(OC)=CC2N1",
        "Molecular Formula": "C<sub>10</sub>H<sub>10</sub>ClN<sub>3</sub>O<sub>2</sub>",
        "Molecular Mass": "239.66",
        "Melting Point": "300 °C (decomp)"
    }
}