{
    "cas_no": "4746-97-8",
    "key_name": "1,4-Dioxaspiro[4.5]decan-8-one",
    "cn_name": "1,4-环己二酮单乙二醇缩酮;1,4-二氧杂螺[4.5]癸烷-8-酮;",
    "alternate_name": "1,4-Dioxaspiro[4.5]decan-8-one;1,4-Cyclohexanedione, cyclic 1,2-ethanediyl acetal;4,4-(Ethylenedioxy)cyclohexanone;1,4-Cyclohexanedione cyclic ethylene monoketal;8-Oxo-1,4-dioxaspiro[4.5]decane;1,4-Cyclohexanedione monoethylene acetal;Cyclohexane-1,4-dione mono(ethylene glycol ketal);1,4-Cyclohexanedione mono(ethylene ketal);4-(Ethylenedioxy)cyclohexanone;1,4-Dioxaspiro[4.5]decane-8-one;1,4-Cyclohexanedione ethylene monoketal;Cyclohexan-1,4-dione monoethylene ketal",
    "duplicated_cas_no": "1257108-67-0",
    "SMILES": "O=C1CCC2(CC1)OCCO2",
    "meta_data": {
        "InChI": "InChI=1S/C8H12O3/c9-7-1-3-8(4-2-7)10-5-6-11-8/h1-6H2",
        "InChIKey": null,
        "Canonical SMILES": "O=C1CCC2(OCCO2)CC1",
        "Molecular Formula": "C<sub>8</sub>H<sub>12</sub>O<sub>3</sub>",
        "Molecular Mass": "156.18",
        "Boiling Point": "125-128 °C @ Press: 12 Torr",
        "Melting Point": "73.5-74.5 °C"
    }
}