{
    "cas_no": "10229-10-4",
    "key_name": "3-Pentyn-1-ol",
    "cn_name": "3-戊炔-1-醇;",
    "alternate_name": "3-Pentyn-1-ol;1-Hydroxy-3-pentyne",
    "duplicated_cas_no": "",
    "SMILES": "C(CCO)#CC",
    "meta_data": {
        "InChI": "InChI=1S/C5H8O/c1-2-3-4-5-6/h6H,4-5H2,1H3",
        "InChIKey": null,
        "Canonical SMILES": "OCCC#CC",
        "Molecular Formula": "C<sub>5</sub>H<sub>8</sub>O",
        "Molecular Mass": "84.12",
        "Boiling Point": "154 °C",
        "Density": "0.9002 g/cm³ @ Temp: 20 °C"
    }
}