{
    "cas_no": "7450-69-3",
    "key_name": "Phenyl phosphorodiamidate",
    "cn_name": "苯基磷二酰胺;",
    "alternate_name": "Phosphorodiamidic acid, phenyl ester;Phenyl phosphorodiamidate;Diamidophosphoric acid phenyl ester;Phenyl diamidophosphate;Phenyl phosphate diamide;Phosphoric acid phenyl ester diamide;[(Diaminophosphoryl)oxy]benzene",
    "duplicated_cas_no": "",
    "SMILES": "O(P(N)(N)=O)C1=CC=CC=C1",
    "meta_data": {
        "InChI": "InChI=1S/C6H9N2O2P/c7-11(8,9)10-6-4-2-1-3-5-6/h1-5H,(H4,7,8,9)",
        "InChIKey": null,
        "Canonical SMILES": "O=P(OC=1C=CC=CC1)(N)N",
        "Molecular Formula": "C<sub>6</sub>H<sub>9</sub>N<sub>2</sub>O<sub>2</sub>P",
        "Molecular Mass": "172.12",
        "Melting Point": "185 °C"
    }
}