{
    "cas_no": "13397-24-5",
    "key_name": "Gypsum (Ca(SO<sub>4</sub>).2H<sub>2</sub>O)",
    "cn_name": null,
    "alternate_name": "Gypsum (Ca(SO<sub>4</sub>).2H<sub>2</sub>O);Gypsum;Gypsite;Landplaster;Gips;Crystacal R;G 75 (mineral);G 75;Duracal Cement;CoCoat T;Hydrocal;G 16 (gypsum);Tiger Kencoat;G 16;SK;SK (mineral);PE 20A;G 6;G 6 (refractory);Primoplast;G 7A;Hydroperm;New Diastone;B-YN Plaster;G 2 (gypsum);B 13 (gypsum);B 13;B-YNN Plaster;G 40;Soil-Saver;FT 2;FT 2 (mineral);J 5;J 5 (mineral);PE 20A (gypsum);G 7;G 10;Gypstone L;G 5;G 5 (mineral);Gypsum Fibrosum;Densite HL-GP;IAEA 434;New Fujirock;GC Fujirock EP;G 5BP;P 52A;Gemstone N 1000;Q 140422;DLJ 02;DLJ 01;B 80;ZY 001;ZY 021;Hydrocal C-Base;YS 100G;Gypsum fibrosum",
    "duplicated_cas_no": "70513-70-1;77030-59-2;860619-11-0",
    "SMILES": "S(=O)(=O)(O)O.[Ca].O",
    "meta_data": {
        "InChI": "InChI=1S/Ca.H2O4S.2H2O/c;1-5(2,3)4;;/h;(H2,1,2,3,4);2*1H2",
        "InChIKey": null,
        "Canonical SMILES": "[Ca].O=S(=O)(O)O.O",
        "Molecular Formula": "Ca.H<sub>2</sub>O<sub>4</sub>S.2H<sub>2</sub>O",
        "Molecular Mass": "",
        "Melting Point": "100 °C",
        "Density": "2.3 g/cm³"
    }
}