{
    "cas_no": "93778-15-5",
    "key_name": "Benzoic acid, 4-hydroxy-, 2,3-dihydroxypropyl ester",
    "cn_name": null,
    "alternate_name": "Benzoic acid, 4-hydroxy-, 2,3-dihydroxypropyl ester;Benzoic acid, <em>p</em>-hydroxy-, 2,3-dihydroxypropyl ester;D 11706;2,3-Dihydroxypropyl 4-hydroxybenzoate",
    "duplicated_cas_no": "",
    "SMILES": "C(OCC(CO)O)(=O)C1=CC=C(O)C=C1",
    "meta_data": {
        "InChI": "InChI=1S/C10H12O5/c11-5-9(13)6-15-10(14)7-1-3-8(12)4-2-7/h1-4,9,11-13H,5-6H2",
        "InChIKey": null,
        "Canonical SMILES": "O=C(OCC(O)CO)C1=CC=C(O)C=C1",
        "Molecular Formula": "C<sub>10</sub>H<sub>12</sub>O<sub>5</sub>",
        "Molecular Mass": "212.20",
        "Melting Point": "154 °C"
    }
}