{
    "cas_no": "1676-75-1",
    "key_name": "<em>O</em>-(1,1-Dimethylethyl)-<em>N</em>-[(phenylmethoxy)carbonyl]-<span class=\"text-smallcaps\">L</span>-serine",
    "cn_name": "N-苄氧羰基-O-叔丁基-L-丝氨酸;",
    "alternate_name": "<span class=\"text-smallcaps\">L</span>-Serine, <em>O</em>-(1,1-dimethylethyl)-<em>N</em>-[(phenylmethoxy)carbonyl]-;Alanine, 3-<em>tert</em>-butoxy-<em>N</em>-carboxy-, <em>N</em>-benzyl ester, <span class=\"text-smallcaps\">L</span>-;Alanine, 3-<em>tert</em>-butoxy-<em>N</em>-carboxy-, <em>N</em>-benzyl ester;<em>O</em>-(1,1-Dimethylethyl)-<em>N</em>-[(phenylmethoxy)carbonyl]-<span class=\"text-smallcaps\">L</span>-serine;<em>N</em>-Carbobenzoxy-<em>O</em>-<em>tert</em>-butyl-<span class=\"text-smallcaps\">L</span>-serine;<em>N</em>-Benzyloxycarbonyl-<em>O</em>-<em>tert</em>-butyl-<span class=\"text-smallcaps\">L</span>-serine;<em>N</em>-Benzyloxycarbonyl-<em>O</em>-<em>tert</em>-butylserine;(2<em>S</em>)-2-{[(Benzyloxy)carbonyl]amino}-3-<em>tert</em>-butoxypropanoic acid;(<em>S</em>)-2-[(Benzyloxycarbonyl)amino]-3-<em>tert</em>-butoxypropionic acid;(2S)-3-[(2-Methylpropan-2-yl)oxy]-2-(phenylmethoxycarbonylamino)propanoic acid",
    "duplicated_cas_no": "",
    "SMILES": "C(OC(N[C@@H](COC(C)(C)C)C(O)=O)=O)C1=CC=CC=C1",
    "meta_data": {
        "InChI": "InChI=1S/C15H21NO5/c1-15(2,3)21-10-12(13(17)18)16-14(19)20-9-11-7-5-4-6-8-11/h4-8,12H,9-10H2,1-3H3,(H,16,19)(H,17,18)/t12-/m0/s1",
        "InChIKey": null,
        "Canonical SMILES": "O=C(OCC=1C=CC=CC1)NC(C(=O)O)COC(C)(C)C",
        "Molecular Formula": "C<sub>15</sub>H<sub>21</sub>NO<sub>5</sub>",
        "Molecular Mass": "295.33",
        "Melting Point": "83.5-85.0 °C"
    }
}