{
    "cas_no": "7472-43-7",
    "key_name": "ζ-Oxobenzeneheptanoic acid",
    "cn_name": "6-苯酰己酸;",
    "alternate_name": "Benzeneheptanoic acid, ζ-oxo-;Hexanoic acid, 6-benzoyl-;ζ-Oxobenzeneheptanoic acid;7-Oxo-7-phenylheptanoic acid;7-Phenyl-7-oxoheptanoic acid;6-Benzoylhexanoic acid;NSC 401949",
    "duplicated_cas_no": "",
    "SMILES": "C(CCCCCC(O)=O)(=O)C1=CC=CC=C1",
    "meta_data": {
        "InChI": "InChI=1S/C13H16O3/c14-12(11-7-3-1-4-8-11)9-5-2-6-10-13(15)16/h1,3-4,7-8H,2,5-6,9-10H2,(H,15,16)",
        "InChIKey": null,
        "Canonical SMILES": "O=C(O)CCCCCC(=O)C=1C=CC=CC1",
        "Molecular Formula": "C<sub>13</sub>H<sub>16</sub>O<sub>3</sub>",
        "Molecular Mass": "220.26",
        "Melting Point": "82-83 °C"
    }
}