{
    "cas_no": "474510-57-1",
    "key_name": "Irgacure 127",
    "cn_name": null,
    "alternate_name": "1-Propanone, 1,1′-(methylene-di-4,1-phenylene)bis[2-hydroxy-2-methyl-;1,1′-(Methylene-di-4,1-phenylene)bis[2-hydroxy-2-methyl-1-propanone];Bis[4-(2-hydroxy-2-methylpropionyl)phenyl]methane;Irgacure 127;2-Hydroxy-1-[4-[4-(2-hydroxy-2-methylpropionyl)benzyl]phenyl]-2-methylpropan-1-one;BASF 127;Photoinitiator 127;2-Hydroxy-1-[4-[4-(2-hydroxy-2-methyl-propionyl)-benzyl]-phenyl]-2-methyl-1-propan-1-one;Omnirad 127;IGM 127;Omnirad 127D",
    "duplicated_cas_no": "1233234-05-3;2306255-73-0;2639262-48-7",
    "SMILES": "C(C(C)(C)O)(=O)C1=CC=C(CC2=CC=C(C(C(C)(C)O)=O)C=C2)C=C1",
    "meta_data": {
        "InChI": "InChI=1S/C21H24O4/c1-20(2,24)18(22)16-9-5-14(6-10-16)13-15-7-11-17(12-8-15)19(23)21(3,4)25/h5-12,24-25H,13H2,1-4H3",
        "InChIKey": null,
        "Canonical SMILES": "O=C(C1=CC=C(C=C1)CC2=CC=C(C=C2)C(=O)C(O)(C)C)C(O)(C)C",
        "Molecular Formula": "C<sub>21</sub>H<sub>24</sub>O<sub>4</sub>",
        "Molecular Mass": "340.41",
        "Melting Point": "91.3-92.0 °C"
    }
}