{
    "cas_no": "10300-22-8",
    "key_name": "3′-<em>O</em>-Methyladenosine",
    "cn_name": null,
    "alternate_name": "Adenosine, 3′-<em>O</em>-methyl-;3′-<em>O</em>-Methyladenosine;NSC 103062",
    "duplicated_cas_no": "",
    "SMILES": "O[C@H]1[C@H](N2C=3C(N=C2)=C(N)N=CN3)O[C@H](CO)[C@H]1OC",
    "meta_data": {
        "InChI": "InChI=1S/C11H15N5O4/c1-19-8-5(2-17)20-11(7(8)18)16-4-15-6-9(12)13-3-14-10(6)16/h3-5,7-8,11,17-18H,2H2,1H3,(H2,12,13,14)/t5-,7-,8-,11-/m1/s1",
        "InChIKey": null,
        "Canonical SMILES": "OCC1OC(N2C=NC=3C(=NC=NC32)N)C(O)C1OC",
        "Molecular Formula": "C<sub>11</sub>H<sub>15</sub>N<sub>5</sub>O<sub>4</sub>",
        "Molecular Mass": "281.27",
        "Melting Point": "177-178 °C"
    }
}