{
    "cas_no": "119-84-6",
    "key_name": "Dihydrocoumarin",
    "cn_name": "二氢香豆素;二羟基香豆素;苯并二氢吡喃酮;1,2-苯并二氢吡喃酮;二氢色满酮;氢化肉桂酸内酯;",
    "alternate_name": "2<em>H</em>-1-Benzopyran-2-one, 3,4-dihydro-;Hydrocoumarin;3,4-Dihydro-2<em>H</em>-1-benzopyran-2-one;Hydrocinnamic acid, <em>o</em>-hydroxy-, δ-lactone;2-Chromanone;Melilotin (coumarin);Melilotol;Dihydrocoumarin;3,4-Dihydrocoumarin;Melilotin;3,4-Dihydro-1<em>H</em>-benzopyran-2-one;D 1223;DHC;3,4-Dihydrochromen-2-one",
    "duplicated_cas_no": "1341-36-2",
    "SMILES": "O=C1OC=2C(CC1)=CC=CC2",
    "meta_data": {
        "InChI": "InChI=1S/C9H8O2/c10-9-6-5-7-3-1-2-4-8(7)11-9/h1-4H,5-6H2",
        "InChIKey": null,
        "Canonical SMILES": "O=C1OC=2C=CC=CC2CC1",
        "Molecular Formula": "C<sub>9</sub>H<sub>8</sub>O<sub>2</sub>",
        "Molecular Mass": "148.16",
        "Boiling Point": "272 °C",
        "Melting Point": "25 °C",
        "Density": "1.169 g/cm³ @ Temp: 18 °C"
    }
}