{
    "cas_no": "394-31-0",
    "key_name": "5-Hydroxyanthranilic acid",
    "cn_name": "5-羟基-2-氨基苯甲酸;2-氨基-5-羟基苯甲酸;",
    "alternate_name": "Benzoic acid, 2-amino-5-hydroxy-;Anthranilic acid, 5-hydroxy-;2-Amino-5-hydroxybenzoic acid;5-Hydroxyanthranilic acid;Diabeton;Glyklaside",
    "duplicated_cas_no": "",
    "SMILES": "C(O)(=O)C1=C(N)C=CC(O)=C1",
    "meta_data": {
        "InChI": "InChI=1S/C7H7NO3/c8-6-2-1-4(9)3-5(6)7(10)11/h1-3,9H,8H2,(H,10,11)",
        "InChIKey": null,
        "Canonical SMILES": "O=C(O)C1=CC(O)=CC=C1N",
        "Molecular Formula": "C<sub>7</sub>H<sub>7</sub>NO<sub>3</sub>",
        "Molecular Mass": "153.14",
        "Melting Point": "231 °C"
    }
}