{
    "cas_no": "92-30-8",
    "key_name": "2-(Trifluoromethyl)-10<em>H</em>-phenothiazine",
    "cn_name": "2-三氟甲基吩噻嗪;",
    "alternate_name": "10<em>H</em>-Phenothiazine, 2-(trifluoromethyl)-;Phenothiazine, 2-(trifluoromethyl)-;2-(Trifluoromethyl)-10<em>H</em>-phenothiazine;2-(Trifluoromethyl)phenothiazine;NSC 50438",
    "duplicated_cas_no": "",
    "SMILES": "C(F)(F)(F)C=1C=C2C(SC=3C(N2)=CC=CC3)=CC1",
    "meta_data": {
        "InChI": "InChI=1S/C13H8F3NS/c14-13(15,16)8-5-6-12-10(7-8)17-9-3-1-2-4-11(9)18-12/h1-7,17H",
        "InChIKey": null,
        "Canonical SMILES": "FC(F)(F)C1=CC=C2SC=3C=CC=CC3NC2=C1",
        "Molecular Formula": "C<sub>13</sub>H<sub>8</sub>F<sub>3</sub>NS",
        "Molecular Mass": "267.27",
        "Melting Point": "188-189 °C"
    }
}