{
    "cas_no": "1569-50-2",
    "key_name": "(±)-3-Penten-2-ol",
    "cn_name": null,
    "alternate_name": "3-Penten-2-ol;α,γ-Dimethylallyl alcohol;Methyl propenyl carbinol;4-Hydroxy-2-pentene;2-Hydroxy-3-pentene;(±)-2-Penten-4-ol;(±)-3-Penten-2-ol;2-Penten-4-ol",
    "duplicated_cas_no": "42569-16-4",
    "SMILES": "C(C(C)O)=CC",
    "meta_data": {
        "InChI": "InChI=1S/C5H10O/c1-3-4-5(2)6/h3-6H,1-2H3",
        "InChIKey": null,
        "Canonical SMILES": "OC(C=CC)C",
        "Molecular Formula": "C<sub>5</sub>H<sub>10</sub>O",
        "Molecular Mass": "86.13",
        "Boiling Point": "122 °C",
        "Density": "0.8382 g/cm³ @ Temp: 17.95 °C"
    }
}