{
    "cas_no": "66108-95-0",
    "key_name": "Iohexol",
    "cn_name": "碘海醇;N,N\"-双(2,3-二羟基丙基)-5-[N-(2,3-二羟基丙基)乙酰胺基]-2,4,6-三碘代异酞酰胺;",
    "alternate_name": "1,3-Benzenedicarboxamide, 5-[acetyl(2,3-dihydroxypropyl)amino]-<em>N</em><sup>1</sup>,<em>N</em><sup>3</sup>-bis(2,3-dihydroxypropyl)-2,4,6-triiodo-;1,3-Benzenedicarboxamide, 5-[acetyl(2,3-dihydroxypropyl)amino]-<em>N</em>,<em>N</em>′-bis(2,3-dihydroxypropyl)-2,4,6-triiodo-;5-[Acetyl(2,3-dihydroxypropyl)amino]-<em>N</em><sup>1</sup>,<em>N</em><sup>3</sup>-bis(2,3-dihydroxypropyl)-2,4,6-triiodo-1,3-benzenedicarboxamide;Iohexol;Exypaque;Nycodenz;Omnipaque;Omnipaque 240;Omnipaque 140;Omnipaque 350;Omnipaque 300;Omnipaque R;Accudenz;5-(<em>N</em>-2,3-Dihydroxypropylacetamido)-2,4,6-triiodo-<em>N</em>,<em>N</em>′-bis(2,3-dihydroxypropyl)isophthalamide.;Histodenz;Accupaque 300;Iopaque 240;Iopaque 300;Ioverin 350;Iobrix 300;MeSH ID: D007472",
    "duplicated_cas_no": "1445001-72-8",
    "SMILES": "N(CC(CO)O)(C(C)=O)C1=C(I)C(C(NCC(CO)O)=O)=C(I)C(C(NCC(CO)O)=O)=C1I",
    "meta_data": {
        "InChI": "InChI=1S/C19H26I3N3O9/c1-8(29)25(4-11(32)7-28)17-15(21)12(18(33)23-2-9(30)5-26)14(20)13(16(17)22)19(34)24-3-10(31)6-27/h9-11,26-28,30-32H,2-7H2,1H3,(H,23,33)(H,24,34)",
        "InChIKey": null,
        "Canonical SMILES": "O=C(NCC(O)CO)C=1C(I)=C(C(=O)NCC(O)CO)C(I)=C(C1I)N(C(=O)C)CC(O)CO",
        "Molecular Formula": "C<sub>19</sub>H<sub>26</sub>I<sub>3</sub>N<sub>3</sub>O<sub>9</sub>",
        "Molecular Mass": "821.14",
        "Melting Point": "174-180 °C"
    }
}