{
    "cas_no": "482-91-7",
    "key_name": "(-)-Aricine",
    "cn_name": null,
    "alternate_name": "Oxayohimban-16-carboxylic acid, 16,17-didehydro-10-methoxy-19-methyl-, methyl ester, (19α,20α)-;Aricine;Cinchovatine;Heterophylline (Rauwolfia);Heterophylline;(-)-Aricine;Cinchovatin;Aricin;Alkaloid D from <em>Cinchona</em><em>ledgeriana</em>;10-Methoxytetrahydroalstonine;4<em>H</em>-Indolo[2,3-<em>a</em>]pyrano[3,4-<em>g</em>]quinolizine-1-carboxylic acid, 4a,5,7,8,13,13b,14,14a-octahydro-10-methoxy-4-methyl-, methyl ester, (4<em>S</em>,4a<em>S</em>,13b<em>S</em>,14a<em>S</em>)-;NSC 72136",
    "duplicated_cas_no": "14883-84-2",
    "SMILES": "C(OC)(=O)C=1[C@]2(C[C@]3(C4=C(C=5C(N4)=CC=C(OC)C5)CCN3C[C@]2([C@H](C)OC1)[H])[H])[H]",
    "meta_data": {
        "InChI": "InChI=1S/C22H26N2O4/c1-12-17-10-24-7-6-14-16-8-13(26-2)4-5-19(16)23-21(14)20(24)9-15(17)18(11-28-12)22(25)27-3/h4-5,8,11-12,15,17,20,23H,6-7,9-10H2,1-3H3/t12-,15-,17-,20-/m0/s1",
        "InChIKey": null,
        "Canonical SMILES": "O=C(OC)C1=COC(C)C2CN3CCC=4C=5C=C(OC)C=CC5NC4C3CC12",
        "Molecular Formula": "C<sub>22</sub>H<sub>26</sub>N<sub>2</sub>O<sub>4</sub>",
        "Molecular Mass": "382.45",
        "Melting Point": "189-190 °C"
    }
}