{
    "cas_no": "14897-78-0",
    "key_name": "4-Hydroxy-3,5-dimethoxybenzenepropanoic acid",
    "cn_name": null,
    "alternate_name": "Benzenepropanoic acid, 4-hydroxy-3,5-dimethoxy-;Hydrocinnamic acid, 4-hydroxy-3,5-dimethoxy-;4-Hydroxy-3,5-dimethoxybenzenepropanoic acid;Dihydrosinapic acid;3-(4-Hydroxy-3,5-dimethoxyphenyl)propionic acid;4-Hydroxy-3,5-dimethoxyhydrocinnamic acid;3-(4-Hydroxy-3,5-dimethoxyphenyl)propanoic acid",
    "duplicated_cas_no": "",
    "SMILES": "O(C)C1=C(O)C(OC)=CC(CCC(O)=O)=C1",
    "meta_data": {
        "InChI": "InChI=1S/C11H14O5/c1-15-8-5-7(3-4-10(12)13)6-9(16-2)11(8)14/h5-6,14H,3-4H2,1-2H3,(H,12,13)",
        "InChIKey": null,
        "Canonical SMILES": "O=C(O)CCC1=CC(OC)=C(O)C(OC)=C1",
        "Molecular Formula": "C<sub>11</sub>H<sub>14</sub>O<sub>5</sub>",
        "Molecular Mass": "226.23",
        "Melting Point": "102-103 °C"
    }
}