{
    "cas_no": "6028-61-1",
    "key_name": "Dipropyl trisulfide",
    "cn_name": "二丙基三硫醚;",
    "alternate_name": "Trisulfide, dipropyl;Propyl trisulfide;Dipropyl trisulfide;Di-<em>n</em>-propyl trisulfide;1,3-Dipropyltrisulfane;1-Propyltrithiopropane;1-(Propyltrisulfanyl)propane",
    "duplicated_cas_no": "58973-40-3",
    "SMILES": "S(SCCC)SCCC",
    "meta_data": {
        "InChI": "InChI=1S/C6H14S3/c1-3-5-7-9-8-6-4-2/h3-6H2,1-2H3",
        "InChIKey": null,
        "Canonical SMILES": "S(SCCC)SCCC",
        "Molecular Formula": "C<sub>6</sub>H<sub>14</sub>S<sub>3</sub>",
        "Molecular Mass": "182.37",
        "Boiling Point": "69-72 °C @ Press: 1.6 Torr"
    }
}