{
    "cas_no": "108-30-5",
    "key_name": "Succinic anhydride",
    "cn_name": "丁二酸酐;",
    "alternate_name": "2,5-Furandione, dihydro-;Succinic anhydride;Dihydro-2,5-furandione;Butanedioic anhydride;2,5-Diketotetrahydrofuran;Succinic acid anhydride;Succinyl oxide;Tetrahydro-2,5-dioxofuran;Succinyl anhydride;Tetrahydro-2,5-furandione;Rikacid SA;NSC 8518;Oxolane-2,5-dione;Rikacid;Rikacid SA 25",
    "duplicated_cas_no": "1123596-58-6",
    "SMILES": "O=C1OC(=O)CC1",
    "meta_data": {
        "InChI": "InChI=1S/C4H4O3/c5-3-1-2-4(6)7-3/h1-2H2",
        "InChIKey": null,
        "Canonical SMILES": "O=C1OC(=O)CC1",
        "Molecular Formula": "C<sub>4</sub>H<sub>4</sub>O<sub>3</sub>",
        "Molecular Mass": "100.07",
        "Boiling Point": "261 °C @ Press: 760 Torr",
        "Melting Point": "119.6 °C",
        "Density": "1.503 g/cm³"
    }
}