{
    "cas_no": "53760-19-3",
    "key_name": "Cytochalasin H",
    "cn_name": "细胞松驰素 H;",
    "alternate_name": "1<em>H</em>-Cycloundec[<em>d</em>]isoindol-1-one, 15-(acetyloxy)-2,3,3a,4,5,6,6a,9,10,11,12,15-dodecahydro-6,12-dihydroxy-4,10,12-trimethyl-5-methylene-3-(phenylmethyl)-, (3<em>S</em>,3a<em>R</em>,4<em>S</em>,6<em>S</em>,6a<em>R</em>,7<em>E</em>,10<em>S</em>,12<em>R</em>,13<em>E</em>,15<em>R</em>,15a<em>R</em>)-;[11]Cytochalasa-6(12),13,19-trien-1-one, 21-(acetyloxy)-7,18-dihydroxy-16,18-dimethyl-10-phenyl-, (7<em>S</em>,13<em>E</em>,16<em>S</em>,18<em>R</em>,19<em>E</em>,21<em>R</em>)-;(3<em>S</em>,3a<em>R</em>,4<em>S</em>,6<em>S</em>,6a<em>R</em>,7<em>E</em>,10<em>S</em>,12<em>R</em>,13<em>E</em>,15<em>R</em>,15a<em>R</em>)-15-(Acetyloxy)-2,3,3a,4,5,6,6a,9,10,11,12,15-dodecahydro-6,12-dihydroxy-4,10,12-trimethyl-5-methylene-3-(phenylmethyl)-1<em>H</em>-cycloundec[<em>d</em>]isoindol-1-one;Kodocytochalasin 1;Cytochalasin H;Paspalin P I;1<em>H</em>-Cycloundec[<em>d</em>]isoindol-1-one, 15-(acetyloxy)-2,3,3a,4,5,6,6a,9,10,11,12,15-dodecahydro-6,12-dihydroxy-4,10,12-trimethyl-5-methylene-3-(phenylmethyl)-, [3<em>S</em>-(3<em>R</em>*,3a<em>S</em>*,4<em>R</em>*,6<em>R</em>*,6a<em>S</em>*,7<em>E</em>,10<em>R</em>*,12<em>S</em>*,13<em>E</em>,15<em>S</em>*,15a<em>S</em>*)]-;Cytochalasin O",
    "duplicated_cas_no": "",
    "SMILES": "",
    "meta_data": {
        "InChI": "",
        "InChIKey": null,
        "Canonical SMILES": "",
        "Molecular Formula": "C<sub>30</sub>H<sub>39</sub>NO<sub>5</sub>",
        "Molecular Mass": "493.63",
        "Melting Point": "250-251 °C"
    }
}