{
    "cas_no": "60-35-5",
    "key_name": "Acetamide",
    "cn_name": "乙酰胺;",
    "alternate_name": "Acetamide;Acetic acid amide;Ethanamide;Methanecarboxamide;Acetimidic acid;Ethanimidic acid;NSC 25945",
    "duplicated_cas_no": "",
    "SMILES": "C(C)(N)=O",
    "meta_data": {
        "InChI": "InChI=1S/C2H5NO/c1-2(3)4/h1H3,(H2,3,4)",
        "InChIKey": null,
        "Canonical SMILES": "O=C(N)C",
        "Molecular Formula": "C<sub>2</sub>H<sub>5</sub>NO",
        "Molecular Mass": "59.07",
        "Boiling Point": "222 °C @ Press: 760 Torr",
        "Melting Point": "81 °C",
        "Density": "1.159 g/cm³ @ Temp: 20 °C"
    }
}