{
    "cas_no": "51322-75-9",
    "key_name": "Tizanidine",
    "cn_name": "替扎尼定;5-氯-4-(4,5-二氢-1H-咪唑-2-基)-2,1,3-苯并噻二唑-4-胺;",
    "alternate_name": "2,1,3-Benzothiadiazol-4-amine, 5-chloro-<em>N</em>-(4,5-dihydro-1<em>H</em>-imidazol-2-yl)-;5-Chloro-<em>N</em>-(4,5-dihydro-1<em>H</em>-imidazol-2-yl)-2,1,3-benzothiadiazol-4-amine;Tizanidine;Tizalud;(5-Chloro-benzo[1,2,5]thiadiazol-4-yl)-(4,5-dihydro-1<em>H</em>-imidazol-2-yl)-amine",
    "duplicated_cas_no": "",
    "SMILES": "N(C=1C=2C(C=CC1Cl)=NSN2)C=3NCCN3",
    "meta_data": {
        "InChI": "InChI=1S/C9H8ClN5S/c10-5-1-2-6-8(15-16-14-6)7(5)13-9-11-3-4-12-9/h1-2H,3-4H2,(H2,11,12,13)",
        "InChIKey": null,
        "Canonical SMILES": "ClC=1C=CC2=NSN=C2C1NC3=NCCN3",
        "Molecular Formula": "C<sub>9</sub>H<sub>8</sub>ClN<sub>5</sub>S",
        "Molecular Mass": "253.71",
        "Melting Point": "221-223 °C"
    }
}