{
    "cas_no": "7433-56-9",
    "key_name": "(5<em>E</em>)-5-Decene",
    "cn_name": "反-5-癸烯;",
    "alternate_name": "5-Decene, (5<em>E</em>)-;5-Decene, (<em>E</em>)-;(5<em>E</em>)-5-Decene;<em>trans</em>-5-Decene;(<em>E</em>)-5-Decene;ε-<em>trans</em>-Decene;5-<em>trans</em>-Decene;NSC 95430;(E)-Dec-5-ene",
    "duplicated_cas_no": "",
    "SMILES": "C(=C/CCCC)\\CCCC",
    "meta_data": {
        "InChI": "InChI=1S/C10H20/c1-3-5-7-9-10-8-6-4-2/h9-10H,3-8H2,1-2H3/b10-9+",
        "InChIKey": null,
        "Canonical SMILES": "C(=CCCCC)CCCC",
        "Molecular Formula": "C<sub>10</sub>H<sub>20</sub>",
        "Molecular Mass": "140.27",
        "Boiling Point": "171 °C",
        "Melting Point": "-73 °C",
        "Density": "0.73626 g/cm³ @ Temp: 25 °C"
    }
}