{
    "cas_no": "6250-23-3",
    "key_name": "Disperse Yellow 23",
    "cn_name": "分散金黄E-3RL;分散黄RGFL;分散黄E-RGFL;托拉西金黄R;分散黄RGFL;",
    "alternate_name": "Phenol, 4-[2-[4-(2-phenyldiazenyl)phenyl]diazenyl]-;C.I. Disperse Yellow 23;Phenol, 4-[[4-(phenylazo)phenyl]azo]-;Phenol, <em>p</em>-[[<em>p</em>-(phenylazo)phenyl]azo]-;4-[2-[4-(2-Phenyldiazenyl)phenyl]diazenyl]phenol;C.I. 26070;Acetoquinone Light Yellow 3RLLZ;Calcophen Yellow 4RL;Celliton Fast Yellow 4RL-CF;Cibacet Yellow 2RG;Dianix Yellow 5R;Esteroquinone Light Yellow 3RLL;Fenacet Fast Yellow 4R;Foron Yellow RGFL;Foron Yellow RGFL ultra-dispersed;Latyl Yellow 4RL;Nyloquinone Yellow 3R;Setacyl Yellow P 3RL;Setacyl Yellow 3RN;SRA Fast Golden Yellow XIII;Terasil Yellow 2RG;Artisil Yellow RGFL;<em>p</em>-Hydroxy-<em>p</em>-bis(azobenzene);Disperse Yellow 23;Terasil Golden Yellow R;Ostacet Yellow E-L 5R;Foron Yellow E-RGF 2;Foron G;Foron Yellow E-RGFL;Fantagen Yellow 3RL;DTNW 20;Disperse Yellow RGFL;Intrasil Yellow 5R;NSC 45565;Yohao Disperse Yellow E-R",
    "duplicated_cas_no": "154213-95-3",
    "SMILES": "N(=NC1=CC=C(O)C=C1)C2=CC=C(N=NC3=CC=CC=C3)C=C2",
    "meta_data": {
        "InChI": "InChI=1S/C18H14N4O/c23-18-12-10-17(11-13-18)22-21-16-8-6-15(7-9-16)20-19-14-4-2-1-3-5-14/h1-13,23H",
        "InChIKey": null,
        "Canonical SMILES": "OC1=CC=C(N=NC2=CC=C(N=NC=3C=CC=CC3)C=C2)C=C1",
        "Molecular Formula": "C<sub>18</sub>H<sub>14</sub>N<sub>4</sub>O",
        "Molecular Mass": "302.33",
        "Melting Point": "179-181 °C"
    }
}