{
    "cas_no": "56525-42-9",
    "key_name": "Methyl Propyl carbonate",
    "cn_name": "碳酸甲丙酯;MPC;",
    "alternate_name": "Carbonic acid, methyl propyl ester;Methyl Propyl carbonate",
    "duplicated_cas_no": "",
    "SMILES": "C(OCCC)(OC)=O",
    "meta_data": {
        "InChI": "InChI=1S/C5H10O3/c1-3-4-8-5(6)7-2/h3-4H2,1-2H3",
        "InChIKey": null,
        "Canonical SMILES": "O=C(OC)OCCC",
        "Molecular Formula": "C<sub>5</sub>H<sub>10</sub>O<sub>3</sub>",
        "Molecular Mass": "118.13",
        "Boiling Point": "125 °C @ Press: 630 Torr",
        "Density": "0.98 g/cm³ @ Temp: 25 °C"
    }
}