{
    "cas_no": "459-46-1",
    "key_name": "4-Fluorobenzyl bromide",
    "cn_name": "4-氟溴苄;",
    "alternate_name": "Benzene, 1-(bromomethyl)-4-fluoro-;Toluene, α-bromo-<em>p</em>-fluoro-;1-(Bromomethyl)-4-fluorobenzene;4-Fluorobenzyl bromide;<em>p</em>-Fluorobenzyl bromide;α-Bromo-<em>p</em>-fluorotoluene;α-Bromo-4-fluorotoluene;1-Fluoro-4-(bromomethyl)benzene",
    "duplicated_cas_no": "",
    "SMILES": "C(Br)C1=CC=C(F)C=C1",
    "meta_data": {
        "InChI": "InChI=1S/C7H6BrF/c8-5-6-1-3-7(9)4-2-6/h1-4H,5H2",
        "InChIKey": null,
        "Canonical SMILES": "FC1=CC=C(C=C1)CBr",
        "Molecular Formula": "C<sub>7</sub>H<sub>6</sub>BrF",
        "Molecular Mass": "189.02",
        "Boiling Point": "85 °C @ Press: 16 Torr"
    }
}