{
    "cas_no": "51997-51-4",
    "key_name": "4-(2,3-Epoxypropoxy)carbazole",
    "cn_name": "4-环氧丙烷氧基咔唑;",
    "alternate_name": "9<em>H</em>-Carbazole, 4-(2-oxiranylmethoxy)-;9<em>H</em>-Carbazole, 4-(oxiranylmethoxy)-;4-(2-Oxiranylmethoxy)-9<em>H</em>-carbazole;4-(2,3-Epoxypropoxy)carbazole;4-Oxiranylmethoxy-9<em>H</em>-carbazole;4-(Glycidyloxy)carbazole",
    "duplicated_cas_no": "",
    "SMILES": "O(CC1CO1)C2=C3C=4C(NC3=CC=C2)=CC=CC4",
    "meta_data": {
        "InChI": "InChI=1S/C15H13NO2/c1-2-5-12-11(4-1)15-13(16-12)6-3-7-14(15)18-9-10-8-17-10/h1-7,10,16H,8-9H2",
        "InChIKey": null,
        "Canonical SMILES": "O(C1=CC=CC=2NC=3C=CC=CC3C12)CC4OC4",
        "Molecular Formula": "C<sub>15</sub>H<sub>13</sub>NO<sub>2</sub>",
        "Molecular Mass": "239.27",
        "Melting Point": "121-126 °C"
    }
}