{
    "cas_no": "645-36-3",
    "key_name": "Aminoacetaldehyde diethyl acetal",
    "cn_name": "氨基乙醛缩二乙醇;",
    "alternate_name": "Ethanamine, 2,2-diethoxy-;Acetaldehyde, amino-, diethyl acetal;2,2-Diethoxyethanamine;2,2-Diethoxyethylamine;Glycinaldehyde diethyl acetal;Aminoacetaldehyde diethyl acetal;2-Aminoacetaldehyde diethyl acetal;α-Aminoacetaldehyde diethyl acetal;1-Amino-2,2-diethoxyethane;β,β-Diethoxyethylamine;1,1-Diethoxy-2-aminoethane;NSC 19501;2,2-Bis(ethyloxy)ethanamine;2,2-Diethoxyethan-1-amine",
    "duplicated_cas_no": "",
    "SMILES": "C(OCC)(OCC)CN",
    "meta_data": {
        "InChI": "InChI=1S/C6H15NO2/c1-3-8-6(5-7)9-4-2/h6H,3-5,7H2,1-2H3",
        "InChIKey": null,
        "Canonical SMILES": "O(CC)C(OCC)CN",
        "Molecular Formula": "C<sub>6</sub>H<sub>15</sub>NO<sub>2</sub>",
        "Molecular Mass": "133.19",
        "Boiling Point": "163 °C",
        "Melting Point": "-78 °C",
        "Density": "0.9152 g/cm³ @ Temp: 25 °C"
    }
}