{
    "cas_no": "102029-44-7",
    "key_name": "(<em>R</em>)-4-Benzyl-2-oxazolidinone",
    "cn_name": "(R)-4-苄基-2-噁唑烷酮;",
    "alternate_name": "2-Oxazolidinone, 4-(phenylmethyl)-, (4<em>R</em>)-;2-Oxazolidinone, 4-(phenylmethyl)-, (<em>R</em>)-;(4<em>R</em>)-4-(Phenylmethyl)-2-oxazolidinone;(<em>R</em>)-4-(Phenylmethyl)-2-oxazolidinone;(<em>R</em>)-4-Benzyl-2-oxazolidinone;(<em>R</em>)-(+)-4-Benzyl-2-oxazolidinone;(4<em>R</em>)-4-Benzyl-2-oxazolidinone;(+)-4-Benzyl-2-oxazolidinone;(<em>R</em>)-4-Benzyl-1,3-oxazolidin-2-one;4(<em>R</em>)-Benzyloxazolidin-2-one;(<em>R</em>)-4-Benzyl-2-oxooxazolidine;(<em>R</em>)-(+)-4-Benzyl-2-oxazolidone;(4<em>R</em>)-4-Benzyl-1,3-oxazolidin-2-one;(<em>R</em>)-4-Benzyloxazolidin-2-one;(4<em>R</em>)-4-(Phenylmethyl)-1,3-oxazolidin-2-one;(R)-(+)-4-Benzyl-2-oxazolidinone;(R)-4-Benzyloxazolidin-2-one;(4R)-4-Benzyloxazolidin-2-one",
    "duplicated_cas_no": "167102-31-0",
    "SMILES": "C([C@@H]1COC(=O)N1)C2=CC=CC=C2",
    "meta_data": {
        "InChI": "InChI=1S/C10H11NO2/c12-10-11-9(7-13-10)6-8-4-2-1-3-5-8/h1-5,9H,6-7H2,(H,11,12)/t9-/m1/s1",
        "InChIKey": null,
        "Canonical SMILES": "O=C1OCC(N1)CC=2C=CC=CC2",
        "Molecular Formula": "C<sub>10</sub>H<sub>11</sub>NO<sub>2</sub>",
        "Molecular Mass": "177.20",
        "Boiling Point": "150-160 °C @ Press: 0.5 Torr",
        "Melting Point": "86 °C"
    }
}