{
    "cas_no": "1693-37-4",
    "key_name": "<em>N</em>-(4-Hydroxyphenyl)propanamide",
    "cn_name": "对丙胺酚;对丙胺酚;",
    "alternate_name": "Propanamide, <em>N</em>-(4-hydroxyphenyl)-;Propionanilide, 4′-hydroxy-;<em>N</em>-(4-Hydroxyphenyl)propanamide;4′-Hydroxypropionanilid;Parapropamol;Parapropanol;<em>p</em>-Propionamidophenol;<em>N</em>-(<em>p</em>-Hydroxyphenyl)propionamide;4′-Hydroxypropionanilide;4-Propionamidophenol;<em>p</em>-Hydroxypropionanilide;Solvodol;4-(Propionylamino)phenol;<em>N</em>-(4-Hydroxyphenyl)propionamide",
    "duplicated_cas_no": "",
    "SMILES": "N(C(CC)=O)C1=CC=C(O)C=C1",
    "meta_data": {
        "InChI": "InChI=1S/C9H11NO2/c1-2-9(12)10-7-3-5-8(11)6-4-7/h3-6,11H,2H2,1H3,(H,10,12)",
        "InChIKey": null,
        "Canonical SMILES": "O=C(NC1=CC=C(O)C=C1)CC",
        "Molecular Formula": "C<sub>9</sub>H<sub>11</sub>NO<sub>2</sub>",
        "Molecular Mass": "165.19",
        "Melting Point": "173 °C"
    }
}