{
    "cas_no": "500-92-5",
    "key_name": "Proguanil",
    "cn_name": null,
    "alternate_name": "Imidodicarbonimidic diamide, <em>N</em>-(4-chlorophenyl)-<em>N</em>′-(1-methylethyl)-;Biguanide, 1-(<em>p</em>-chlorophenyl)-5-isopropyl-;<em>N</em>-(4-Chlorophenyl)-<em>N</em>′-(1-methylethyl)imidodicarbonimidic diamide;Chlorguanide;Chloroguanide;1-(<em>p</em>-Chlorophenyl)-5-isopropylbiguanide;Proguanil;Bigumal;1-Isopropyl-5-(4-chlorophenyl)biguanide;Paludrin;Chlorguanid;<em>N</em><sup>1</sup>-<em>p</em>-Chlorophenyl-N<sup>5</sup>-isopropylbiguanide;IPS 07004",
    "duplicated_cas_no": "46920-30-3",
    "SMILES": "N(C(NC(NC(C)C)=N)=N)C1=CC=C(Cl)C=C1",
    "meta_data": {
        "InChI": "InChI=1S/C11H16ClN5/c1-7(2)15-10(13)17-11(14)16-9-5-3-8(12)4-6-9/h3-7H,1-2H3,(H5,13,14,15,16,17)",
        "InChIKey": null,
        "Canonical SMILES": "ClC1=CC=C(C=C1)NC(=N)NC(=N)NC(C)C",
        "Molecular Formula": "C<sub>11</sub>H<sub>16</sub>ClN<sub>5</sub>",
        "Molecular Mass": "253.73",
        "Melting Point": "129 °C"
    }
}