{
    "cas_no": "125-15-5",
    "key_name": "Vomicine",
    "cn_name": null,
    "alternate_name": "12<em>H</em>-6a,4-(Ethaniminomethano)indolo[3,2,1-<em>ij</em>]oxepino[2,3,4-<em>de</em>]quinoline-6,12(2<em>H</em>)-dione, 4a,5,13,13a,13b,13c-hexahydro-10-hydroxy-16-methyl-, (4a<em>R</em>,6a<em>S</em>,13a<em>S</em>,13b<em>R</em>,13c<em>S</em>)-;Vomicine;16,19-Secostrychnidine-10,16-dione, 4-hydroxy-19-methyl-;(4a<em>R</em>,6a<em>S</em>,13a<em>S</em>,13b<em>R</em>,13c<em>S</em>)-4a,5,13,13a,13b,13c-Hexahydro-10-hydroxy-16-methyl-12<em>H</em>-6a,4-(ethaniminomethano)indolo[3,2,1-<em>ij</em>]oxepino[2,3,4-<em>de</em>]quinoline-6,12(2<em>H</em>)-dione;Vomicin;Strychnicine;12<em>H</em>-6a,4-(Ethaniminomethano)indolo[3,2,1-<em>ij</em>]oxepino[2,3,4-<em>de</em>]quinoline-6,12(2<em>H</em>)-dione, 4a,5,13,13a,13b,13c-hexahydro-10-hydroxy-16-methyl-, [4a<em>R</em>-(4a<em>R</em>*,6a<em>S</em>*,13a<em>S</em>*,13b<em>R</em>*,13c<em>S</em>*)]-;12-Hydroxyicajine",
    "duplicated_cas_no": "1393-36-8;28596-09-0",
    "SMILES": "O=C1[C@@]23[C@@]4([C@]5([C@@](C1)(C(CN(C)CC2)=CCO[C@]5(CC(=O)N4C=6C3=CC=CC6O)[H])[H])[H])[H]",
    "meta_data": {
        "InChI": "InChI=1S/C22H24N2O4/c1-23-7-6-22-14-3-2-4-15(25)20(14)24-18(27)10-16-19(21(22)24)13(9-17(22)26)12(11-23)5-8-28-16/h2-5,13,16,19,21,25H,6-11H2,1H3/t13-,16-,19-,21-,22+/m0/s1",
        "InChIKey": null,
        "Canonical SMILES": "O=C1N2C=3C(O)=CC=CC3C45C(=O)CC6C(=CCOC(C1)C6C24)CN(C)CC5",
        "Molecular Formula": "C<sub>22</sub>H<sub>24</sub>N<sub>2</sub>O<sub>4</sub>",
        "Molecular Mass": "380.44",
        "Melting Point": "282 °C"
    }
}