{
    "cas_no": "151-05-3",
    "key_name": "Dimethylbenzylcarbinyl acetate",
    "cn_name": "乙酸二甲基苄基原酯;",
    "alternate_name": "Benzeneethanol, α,α-dimethyl-, 1-acetate;Phenethyl alcohol, α,α-dimethyl-, acetate;Benzeneethanol, α,α-dimethyl-, acetate;Benzyldimethylcarbinyl acetate;Dimethylbenzylcarbinyl acetate;α,α-Dimethylphenethyl acetate;DMBCA;Dimethylbenzylcarbinol acetate;Benzyldimethylcarbinol acetate;1,1-Dimethyl-2-phenylethyl acetate;2-Methyl-1-phenylpropan-2-yl acetate;NSC 46123;2-Methyl-1-phenyl-2-propyl acetate;Dimethylbenzylcarbonyl acetate;Acetic acid 1,1-Dimethyl-2-phenylethyl ester",
    "duplicated_cas_no": "",
    "SMILES": "C(C(OC(C)=O)(C)C)C1=CC=CC=C1",
    "meta_data": {
        "InChI": "InChI=1S/C12H16O2/c1-10(13)14-12(2,3)9-11-7-5-4-6-8-11/h4-8H,9H2,1-3H3",
        "InChIKey": null,
        "Canonical SMILES": "O=C(OC(C)(C)CC=1C=CC=CC1)C",
        "Molecular Formula": "C<sub>12</sub>H<sub>16</sub>O<sub>2</sub>",
        "Molecular Mass": "192.25",
        "Boiling Point": "101-105 °C @ Press: 10 Torr"
    }
}