{
    "cas_no": "19249-03-7",
    "key_name": "Triethylene glycol ditosylate",
    "cn_name": "三乙烯基二醇;",
    "alternate_name": "Ethanol, 2,2′-[1,2-ethanediylbis(oxy)]bis-, 1,1′-bis(4-methylbenzenesulfonate);Triethylene glycol, di-<em>p</em>-toluenesulfonate;Ethanol, 2,2′-[1,2-ethanediylbis(oxy)]bis-, bis(4-methylbenzenesulfonate);Triethylene glycol ditosylate;Triethylene glycol di-4-toluenesulfonate;Triethylene glycol ditoluenesulfonate;3,6-Dioxaoctane-1,8-diol ditosylate;Triethylene glycol bis(4-toluenesulfonate);1,8-Bis(<em>p</em>-tolylsulfonyloxy)-3,6-dioxaoctane;Triethylene glycol bis(<em>p</em>-toluenesulfonate);Triethyleneglycol bis(toluenesulfonate);1,8-Bis(tosyloxy)-3,6-dioxaoctane;Triethylene glycol di-<em>p</em>-tosylate;Triethylene glycol bis(<em>p</em>-tosylate);NSC 244980;2-[2-[2-[[(4-Methylphenyl)sulfonyl]oxy]ethoxy]ethoxy]ethyl 4-methylbenzenesulfonate;1,2-Ethanediylbis(oxy-2,1-ethanediyl) bis(4-methylbenzenesulfonate);(3,6-Dioxaoctane-1,8-diyl)bis(4-methyl-benzenesulfonate);2-[2-[2-[(4-Methylphenylsulfonyl)oxy]ethoxy]ethoxy]ethyl 4-methylbenzene-1-sulfonate",
    "duplicated_cas_no": "99700-32-0;2591319-61-6",
    "SMILES": "S(OCCOCCOCCOS(=O)(=O)C1=CC=C(C)C=C1)(=O)(=O)C2=CC=C(C)C=C2",
    "meta_data": {
        "InChI": "InChI=1S/C20H26O8S2/c1-17-3-7-19(8-4-17)29(21,22)27-15-13-25-11-12-26-14-16-28-30(23,24)20-9-5-18(2)6-10-20/h3-10H,11-16H2,1-2H3",
        "InChIKey": null,
        "Canonical SMILES": "O=S(=O)(OCCOCCOCCOS(=O)(=O)C1=CC=C(C=C1)C)C2=CC=C(C=C2)C",
        "Molecular Formula": "C<sub>20</sub>H<sub>26</sub>O<sub>8</sub>S<sub>2</sub>",
        "Molecular Mass": "458.55",
        "Melting Point": "80-81 °C"
    }
}