{
    "cas_no": "23047-25-8",
    "key_name": "Lofepramine",
    "cn_name": null,
    "alternate_name": "Ethanone, 1-(4-chlorophenyl)-2-[[3-(10,11-dihydro-5<em>H</em>-dibenz[<em>b</em>,<em>f</em>]azepin-5-yl)propyl]methylamino]-;Acetophenone, 4′-chloro-2-[[3-(10,11-dihydro-5<em>H</em>-dibenz[<em>b</em>,<em>f</em>]azepin-5-yl)propyl]methylamino]-;1-(4-Chlorophenyl)-2-[[3-(10,11-dihydro-5<em>H</em>-dibenz[<em>b</em>,<em>f</em>]azepin-5-yl)propyl]methylamino]ethanone;Leo 640;5-[3-[<em>N</em>-Methyl-<em>N</em>-(<em>p</em>-chlorophenacyl)amino]propyl]-10,11-dihydro-5<em>H</em>-dibenz[<em>b</em>,<em>f</em>]azepine;Lofepramine;Lopramine;Amplit;Lomont",
    "duplicated_cas_no": "",
    "SMILES": "C(CCN(CC(=O)C1=CC=C(Cl)C=C1)C)N2C=3C(CCC=4C2=CC=CC4)=CC=CC3",
    "meta_data": {
        "InChI": "InChI=1S/C26H27ClN2O/c1-28(19-26(30)22-13-15-23(27)16-14-22)17-6-18-29-24-9-4-2-7-20(24)11-12-21-8-3-5-10-25(21)29/h2-5,7-10,13-16H,6,11-12,17-19H2,1H3",
        "InChIKey": null,
        "Canonical SMILES": "O=C(C1=CC=C(Cl)C=C1)CN(C)CCCN2C=3C=CC=CC3CCC=4C=CC=CC42",
        "Molecular Formula": "C<sub>26</sub>H<sub>27</sub>ClN<sub>2</sub>O",
        "Molecular Mass": "418.96",
        "Melting Point": "104-406 °C"
    }
}