{
    "cas_no": "583-61-9",
    "key_name": "2,3-Lutidine",
    "cn_name": "2,3-二甲基吡啶;",
    "alternate_name": "Pyridine, 2,3-dimethyl-;2,3-Lutidine;2,3-Dimethylpyridine;NSC 2157",
    "duplicated_cas_no": "",
    "SMILES": "CC1=C(C)N=CC=C1",
    "meta_data": {
        "InChI": "InChI=1S/C7H9N/c1-6-4-3-5-8-7(6)2/h3-5H,1-2H3",
        "InChIKey": null,
        "Canonical SMILES": "N=1C=CC=C(C1C)C",
        "Molecular Formula": "C<sub>7</sub>H<sub>9</sub>N",
        "Molecular Mass": "107.15",
        "Boiling Point": "161.2 °C",
        "Melting Point": "183-184 °C",
        "Density": "0.9419 g/cm³ @ Temp: 26 °C"
    }
}