{
    "cas_no": "1310-53-8",
    "key_name": "Germanium oxide (GeO<sub>2</sub>)",
    "cn_name": "二氧化锗;",
    "alternate_name": "Germanium oxide (GeO<sub>2</sub>);Germanium dioxide (GeO<sub>2</sub>);Germanium oxide;Germania;Germania (GeO<sub>2</sub>);Germanium(IV) oxide;NSC 294212;J 005 (oxide);J 005;Germanium dioxide",
    "duplicated_cas_no": "12687-69-3;1971950-71-6",
    "SMILES": "[Ge](=O)=O",
    "meta_data": {
        "InChI": "InChI=1S/GeO2/c2-1-3",
        "InChIKey": null,
        "Canonical SMILES": "O=[Ge]=O",
        "Molecular Formula": "GeO<sub>2</sub>",
        "Molecular Mass": "104.64",
        "Melting Point": "1115.0 °C",
        "Density": "4.228 g/cm³ @ Temp: 25 °C"
    }
}