{
    "cas_no": "87-28-5",
    "key_name": "Glycol salicylate",
    "cn_name": "乙二醇水杨酸酯;",
    "alternate_name": "Benzoic acid, 2-hydroxy-, 2-hydroxyethyl ester;Salicylic acid, 2-hydroxyethyl ester;Ethylene glycol, monosalicylate;GL 7;Ethylene glycol salicylate;Glycol monosalicylate;Glycol salicylate;Glysal;2-Hydroxyethyl salicylate;Monoglycol salicylate;Spirosal;β-Hydroxyethyl salicylate;Espirosal;Rheumacyl;Sarocol;2-Hydroxyethyl 2-hydroxybenzoate;Norgesic;Saliment",
    "duplicated_cas_no": "",
    "SMILES": "C(OCCO)(=O)C1=C(O)C=CC=C1",
    "meta_data": {
        "InChI": "InChI=1S/C9H10O4/c10-5-6-13-9(12)7-3-1-2-4-8(7)11/h1-4,10-11H,5-6H2",
        "InChIKey": null,
        "Canonical SMILES": "O=C(OCCO)C=1C=CC=CC1O",
        "Molecular Formula": "C<sub>9</sub>H<sub>10</sub>O<sub>4</sub>",
        "Molecular Mass": "182.17",
        "Boiling Point": "169-172 °C @ Press: 12 Torr",
        "Melting Point": "37 °C",
        "Density": "1.2563 g/cm³ @ Temp: 20 °C"
    }
}