{
    "cas_no": "2161-86-6",
    "key_name": "2,4-Diacetylphloroglucinol",
    "cn_name": "2,4-二乙酰基间苯三酚;2,4-二乙酰基间苯三酚;",
    "alternate_name": "Ethanone, 1,1′-(2,4,6-trihydroxy-1,3-phenylene)bis-;Phloroglucinol, diacetyl-;1,1′-(2,4,6-Trihydroxy-1,3-phenylene)bis[ethanone];2,4-Diacetylphloroglucinol;K<sub>2</sub> (pharmaceutical);K<sub>2</sub>;2,4,6-Trihydroxy-1,3-diacetylbenzene;5-Acetyl-2,4,6-trihydroxyacetophenone;2,4-Diacetyl-1,3,5-benzenetriol;1,3-Diacetyl-2,4,6-trihydroxybenzene;IPO 15474FS;1-(3-Acetyl-2,4,6-trihydroxyphenyl)ethanone;1-(3-Acetyl-2,4,6-trihydroxyphenyl)ethan-1-one;DAPG",
    "duplicated_cas_no": "111318-32-2",
    "SMILES": "OC1=C(C(C)=O)C(O)=CC(O)=C1C(C)=O",
    "meta_data": {
        "InChI": "InChI=1S/C10H10O5/c1-4(11)8-6(13)3-7(14)9(5(2)12)10(8)15/h3,13-15H,1-2H3",
        "InChIKey": null,
        "Canonical SMILES": "O=C(C1=C(O)C=C(O)C(=C1O)C(=O)C)C",
        "Molecular Formula": "C<sub>10</sub>H<sub>10</sub>O<sub>5</sub>",
        "Molecular Mass": "210.18",
        "Melting Point": "154 °C"
    }
}