{
    "cas_no": "60835-73-6",
    "key_name": "4′-Formylbenzo-15-crown-5",
    "cn_name": "4-甲酰苯基-15-冠醚;4-甲酰-15-冠-5;",
    "alternate_name": "1,4,7,10,13-Benzopentaoxacyclopentadecin-15-carboxaldehyde, 2,3,5,6,8,9,11,12-octahydro-;2,3,5,6,8,9,11,12-Octahydro-1,4,7,10,13-benzopentaoxacyclopentadecin-15-carboxaldehyde;4′-Formylbenzo-15-crown-5;15-Formylbenzo[15-crown-5];4-Formylbenzo-15-crown-5;15-Formyl-2,3,5,6,8,9,11,12-octahydro-1,4,7,10,13-benzopentaoxacyclopentadecine;NSC 288923;4′-Formylbenzo-15-crown-5 ether",
    "duplicated_cas_no": "2639334-12-4",
    "SMILES": "C(=O)C=1C=C2C(=CC1)OCCOCCOCCOCCO2",
    "meta_data": {
        "InChI": "InChI=1S/C15H20O6/c16-12-13-1-2-14-15(11-13)21-10-8-19-6-4-17-3-5-18-7-9-20-14/h1-2,11-12H,3-10H2",
        "InChIKey": null,
        "Canonical SMILES": "O=CC1=CC=C2OCCOCCOCCOCCOC2=C1",
        "Molecular Formula": "C<sub>15</sub>H<sub>20</sub>O<sub>6</sub>",
        "Molecular Mass": "296.32",
        "Melting Point": "70-72 °C"
    }
}