{
    "cas_no": "65-04-3",
    "key_name": "Methyl-1-testosterone",
    "cn_name": "17alpha-甲基异睾酮;17beta-羟基-17alpha-甲基-5alpha-雄甾-1-烯-3-酮;",
    "alternate_name": "Androst-1-en-3-one, 17-hydroxy-17-methyl-, (5α,17β)-;5α-Androst-1-en-3-one, 17β-hydroxy-17-methyl-;(5α,17β)-17-Hydroxy-17-methylandrost-1-en-3-one;SC 11195;17α-Methyl-17β-hydroxy-5α-androst-1-en-3-one;17β-Hydroxy-17α-methyl-5α-androst-1-en-3-one;17α-Methyl-17β-hydroxy-Δ<sup>1</sup>-5α-androsten-3-one;17β-Hydroxy-17-methyl-5α-androst-1-en-3-one;17-Methyl-1-testosterone;Methyl-1-testosterone;17β-Hydroxy-17α-methyl-5α-androstan-1-en-3-one;17α-Methyl-1-testosterone",
    "duplicated_cas_no": "",
    "SMILES": "C[C@@]12[C@@]3([C@]([C@]4([C@](C)(CC3)[C@@](C)(O)CC4)[H])(CC[C@]1(CC(=O)C=C2)[H])[H])[H]",
    "meta_data": {
        "InChI": "InChI=1S/C20H30O2/c1-18-9-6-14(21)12-13(18)4-5-15-16(18)7-10-19(2)17(15)8-11-20(19,3)22/h6,9,13,15-17,22H,4-5,7-8,10-12H2,1-3H3/t13-,15+,16-,17-,18-,19-,20-/m0/s1",
        "InChIKey": null,
        "Canonical SMILES": "O=C1C=CC2(C)C(C1)CCC3C2CCC4(C)C3CCC4(O)C",
        "Molecular Formula": "C<sub>20</sub>H<sub>30</sub>O<sub>2</sub>",
        "Molecular Mass": "302.45",
        "Melting Point": "147-149 °C"
    }
}