{
    "cas_no": "86-81-7",
    "key_name": "3,4,5-Trimethoxybenzaldehyde",
    "cn_name": "3,4,5-三甲氧基苯甲醛;",
    "alternate_name": "Benzaldehyde, 3,4,5-trimethoxy-;3,4,5-Trimethoxybenzaldehyde;NSC 16692",
    "duplicated_cas_no": "",
    "SMILES": "O(C)C1=C(OC)C=C(C=O)C=C1OC",
    "meta_data": {
        "InChI": "InChI=1S/C10H12O4/c1-12-8-4-7(6-11)5-9(13-2)10(8)14-3/h4-6H,1-3H3",
        "InChIKey": null,
        "Canonical SMILES": "O=CC1=CC(OC)=C(OC)C(OC)=C1",
        "Molecular Formula": "C<sub>10</sub>H<sub>12</sub>O<sub>4</sub>",
        "Molecular Mass": "196.20",
        "Boiling Point": "143-146 °C @ Press: 0.4 Torr",
        "Melting Point": "74-75 °C"
    }
}