{
    "cas_no": "58523-30-1",
    "key_name": "Pseurotin A",
    "cn_name": null,
    "alternate_name": "1-Oxa-7-azaspiro[4.4]non-2-ene-4,6-dione, 8-benzoyl-2-[(1<em>S</em>,2<em>S</em>,3<em>Z</em>)-1,2-dihydroxy-3-hexen-1-yl]-9-hydroxy-8-methoxy-3-methyl-, (5<em>S</em>,8<em>S</em>,9<em>R</em>)-;1-Oxa-7-azaspiro[4.4]non-2-ene-4,6-dione, 8-benzoyl-2-(1,2-dihydroxy-3-hexenyl)-9-hydroxy-8-methoxy-3-methyl-, [5<em>S</em>-[2(1<em>R</em>*,2<em>R</em>*,3<em>Z</em>),5α,8β,9β]]-;1-Oxa-7-azaspiro[4.4]non-2-ene-4,6-dione, 8-benzoyl-2-[(1<em>S</em>,2<em>S</em>,3<em>Z</em>)-1,2-dihydroxy-3-hexenyl]-9-hydroxy-8-methoxy-3-methyl-, (5<em>S</em>,8<em>S</em>,9<em>R</em>)-;(5<em>S</em>,8<em>S</em>,9<em>R</em>)-8-Benzoyl-2-[(1<em>S</em>,2<em>S</em>,3<em>Z</em>)-1,2-dihydroxy-3-hexen-1-yl]-9-hydroxy-8-methoxy-3-methyl-1-oxa-7-azaspiro[4.4]non-2-ene-4,6-dione;Pseurotin A;Pseurotin;NSC 348694",
    "duplicated_cas_no": "",
    "SMILES": "O[C@@H]1[C@@]2(OC([C@H]([C@H](/C=C\\CC)O)O)=C(C)C2=O)C(=O)N[C@]1(C(=O)C3=CC=CC=C3)OC",
    "meta_data": {
        "InChI": "InChI=1S/C22H25NO8/c1-4-5-11-14(24)15(25)16-12(2)17(26)21(31-16)19(28)22(30-3,23-20(21)29)18(27)13-9-7-6-8-10-13/h5-11,14-15,19,24-25,28H,4H2,1-3H3,(H,23,29)/b11-5-/t14-,15-,19+,21+,22+/m0/s1",
        "InChIKey": null,
        "Canonical SMILES": "O=C1NC(OC)(C(=O)C=2C=CC=CC2)C(O)C31OC(=C(C3=O)C)C(O)C(O)C=CCC",
        "Molecular Formula": "C<sub>22</sub>H<sub>25</sub>NO<sub>8</sub>",
        "Molecular Mass": "431.44",
        "Melting Point": "126.0-126.9 °C"
    }
}