{
    "cas_no": "5407-87-4",
    "key_name": "2-Amino-4,6-dimethylpyridine",
    "cn_name": "2-氨基-4,6-二甲基吡啶;",
    "alternate_name": "2-Pyridinamine, 4,6-dimethyl-;2,4-Lutidine, 6-amino-;4,6-Dimethyl-2-pyridinamine;6-Amino-2,4-lutidine;2-Amino-4,6-dimethylpyridine;4,6-Dimethyl-2-aminopyridine;(4,6-Dimethylpyridin-2-yl)amine;NSC 10731;NSC 176164;BYK 205516",
    "duplicated_cas_no": "",
    "SMILES": "CC=1C=C(C)N=C(N)C1",
    "meta_data": {
        "InChI": "InChI=1S/C7H10N2/c1-5-3-6(2)9-7(8)4-5/h3-4H,1-2H3,(H2,8,9)",
        "InChIKey": null,
        "Canonical SMILES": "N=1C(N)=CC(=CC1C)C",
        "Molecular Formula": "C<sub>7</sub>H<sub>10</sub>N<sub>2</sub>",
        "Molecular Mass": "122.17",
        "Melting Point": "60-62 °C"
    }
}