{
    "cas_no": "930-36-9",
    "key_name": "1-Methyl-1<em>H</em>-pyrazole",
    "cn_name": "1-甲基吡唑;",
    "alternate_name": "1<em>H</em>-Pyrazole, 1-methyl-;Pyrazole, 1-methyl-;1-Methyl-1<em>H</em>-pyrazole;1-Methylpyrazole",
    "duplicated_cas_no": "",
    "SMILES": "CN1C=CC=N1",
    "meta_data": {
        "InChI": "InChI=1S/C4H6N2/c1-6-4-2-3-5-6/h2-4H,1H3",
        "InChIKey": null,
        "Canonical SMILES": "N1=CC=CN1C",
        "Molecular Formula": "C<sub>4</sub>H<sub>6</sub>N<sub>2</sub>",
        "Molecular Mass": "82.10",
        "Boiling Point": "127 °C",
        "Density": "0.985 g/cm³ @ Temp: 20 °C"
    }
}