{
    "cas_no": "327-62-8",
    "key_name": "Potassium propionate",
    "cn_name": "丙酸钾;丙酸盐钾;丙酸钾;丙酸鉀;",
    "alternate_name": "Propanoic acid, potassium salt;Propionic acid, potassium salt;Potassium propanoate;Potassium propionate",
    "duplicated_cas_no": "714274-55-2",
    "SMILES": "C(CC)(O)=O.[K]",
    "meta_data": {
        "InChI": "InChI=1S/C3H6O2.K/c1-2-3(4)5;/h2H2,1H3,(H,4,5);",
        "InChIKey": null,
        "Canonical SMILES": "[K].O=C(O)CC",
        "Molecular Formula": "C<sub>3</sub>H<sub>6</sub>O<sub>2</sub>.K",
        "Molecular Mass": "",
        "Melting Point": "157 °C"
    }
}