{
    "cas_no": "2277-23-8",
    "key_name": "1-Decanoylglycerol",
    "cn_name": "一癸酸甘油酯;一癸酸甘油酯;",
    "alternate_name": "Decanoic acid, 2,3-dihydroxypropyl ester;Decanoin, 1-mono-;Glycerol 1-monodecanoate;1-Monocaprin;Decanoic acid 1-monoglyceride;Capryl monoglyceride;α-Monocaprin;Capric acid α-monoglyceride;Decanoic acid α-monoglyceride;1-Monodecanoylglycerol;1-Decanoylglycerol;(±)-Glyceryl 1-monodecanoate;(±)-1-Monodecanoin;2,3-Dihydroxypropyl decanoate;1-Glyceryl caprate",
    "duplicated_cas_no": "19670-50-9",
    "SMILES": "C(OCC(CO)O)(CCCCCCCCC)=O",
    "meta_data": {
        "InChI": "InChI=1S/C13H26O4/c1-2-3-4-5-6-7-8-9-13(16)17-11-12(15)10-14/h12,14-15H,2-11H2,1H3",
        "InChIKey": null,
        "Canonical SMILES": "O=C(OCC(O)CO)CCCCCCCCC",
        "Molecular Formula": "C<sub>13</sub>H<sub>26</sub>O<sub>4</sub>",
        "Molecular Mass": "246.34",
        "Melting Point": "51.4 °C"
    }
}