{
    "cas_no": "7477-67-0",
    "key_name": "4,4′-Bis(1-phenyl-3-methyl-5-pyrazolone)",
    "cn_name": "2,2\"4,4\"-四氢-5,5\"-二甲基-2,2\"-二苯基-[4,4\"-双-3H-吡唑]-3,3\"-二酮;双(1-苯基-3-甲基-5-吡唑酮);",
    "alternate_name": "[4,4′-Bi-3<em>H</em>-pyrazole]-3,3′-dione, 2,2′,4,4′-tetrahydro-5,5′-dimethyl-2,2′-diphenyl-;[4,4′-Bi-2-pyrazoline]-5,5′-dione, 3,3′-dimethyl-1,1′-diphenyl-;2,2′,4,4′-Tetrahydro-5,5′-dimethyl-2,2′-diphenyl[4,4′-bi-3<em>H</em>-pyrazole]-3,3′-dione;4,4′-Bis(1-phenyl-3-methyl-5-pyrazolone);NSC 37393;NSC 401001;3-Methyl-4-(3-methyl-5-oxo-1-phenyl-4,5-dihydro-1<em>H</em>-pyrazol-4-yl)-1-phenyl-4,5-dihydro-1<em>H</em>-pyrazol-5-one",
    "duplicated_cas_no": "",
    "SMILES": "O=C1C(C(C)=NN1C2=CC=CC=C2)C3C(=O)N(N=C3C)C4=CC=CC=C4",
    "meta_data": {
        "InChI": "InChI=1S/C20H18N4O2/c1-13-17(19(25)23(21-13)15-9-5-3-6-10-15)18-14(2)22-24(20(18)26)16-11-7-4-8-12-16/h3-12,17-18H,1-2H3",
        "InChIKey": null,
        "Canonical SMILES": "O=C1N(N=C(C)C1C2C(=O)N(N=C2C)C=3C=CC=CC3)C=4C=CC=CC4",
        "Molecular Formula": "C<sub>20</sub>H<sub>18</sub>N<sub>4</sub>O<sub>2</sub>",
        "Molecular Mass": "346.38",
        "Melting Point": "&gt;320 °C"
    }
}