{
    "cas_no": "15950-66-0",
    "key_name": "2,3,4-Trichlorophenol",
    "cn_name": "2,3,4-三氯苯酚溶液;2,3,4-三氯酚;2,3,4-三氯苯酚;",
    "alternate_name": "Phenol, 2,3,4-trichloro-;2,3,4-Trichlorophenol",
    "duplicated_cas_no": "",
    "SMILES": "ClC1=C(Cl)C(O)=CC=C1Cl",
    "meta_data": {
        "InChI": "InChI=1S/C6H3Cl3O/c7-3-1-2-4(10)6(9)5(3)8/h1-2,10H",
        "InChIKey": null,
        "Canonical SMILES": "ClC1=CC=C(O)C(Cl)=C1Cl",
        "Molecular Formula": "C<sub>6</sub>H<sub>3</sub>Cl<sub>3</sub>O",
        "Molecular Mass": "197.45",
        "Melting Point": "83.5 °C"
    }
}