{
    "cas_no": "1271-42-7",
    "key_name": "Ferrocenemonocarboxylic acid",
    "cn_name": "二茂铁甲酸;",
    "alternate_name": "Ferrocene, carboxy-;Ferrocenecarboxylic acid;Iron, (carboxycyclopentadienyl)cyclopentadienyl-;Cyclopentadienecarboxylic acid, cyclopentadienyliron deriv.;Ferrocenoic acid;Ferrocenemonocarboxylic acid;Carboxyferrocene;Carboxylferrocene;Ferrocenylcarboxylic acid;NSC 97552",
    "duplicated_cas_no": "119390-45-3",
    "SMILES": "C(O)(=O)[C-]12[Fe+2]3456789([CH]1=[CH]3[CH]4=[CH]52)[CH-]%10[CH]6=[CH]7[CH]8=[CH]9%10",
    "meta_data": {
        "InChI": "InChI=1S/C6H5O2.C5H5.Fe/c7-6(8)5-3-1-2-4-5;1-2-4-5-3-1;/h1-4H,(H,7,8);1-5H;/q2*-1;+2",
        "InChIKey": null,
        "Canonical SMILES": "O=C(O)[C-]12[CH]3=[CH]4[CH]5=[CH]1[Fe+2]67894532[CH]=%10[CH]9=[CH]8[CH-]7[CH]%106",
        "Molecular Formula": "C<sub>11</sub>H<sub>10</sub>FeO<sub>2</sub>",
        "Molecular Mass": "",
        "Melting Point": "&gt;200 °C"
    }
}