{
    "cas_no": "621-79-4",
    "key_name": "Cinnamamide",
    "cn_name": "肉桂酰胺;苯丙烯酰胺;",
    "alternate_name": "2-Propenamide, 3-phenyl-;Cinnamamide;3-Phenyl-2-propenamide;2-Benzylideneacetamide;3-Phenylpropenamide;3-Phenylacrylamide;Cinnamic acid amide;NSC 32953;AG 835;Coumaramide",
    "duplicated_cas_no": "",
    "SMILES": "C(=CC(N)=O)C1=CC=CC=C1",
    "meta_data": {
        "InChI": "InChI=1S/C9H9NO/c10-9(11)7-6-8-4-2-1-3-5-8/h1-7H,(H2,10,11)",
        "InChIKey": null,
        "Canonical SMILES": "O=C(N)C=CC=1C=CC=CC1",
        "Molecular Formula": "C<sub>9</sub>H<sub>9</sub>NO",
        "Molecular Mass": "147.17",
        "Melting Point": "149 °C"
    }
}