{
    "cas_no": "40061-55-0",
    "key_name": "Benzeneacetic acid, 3-methyl-, ethyl ester",
    "cn_name": "3-甲基苯基乙酸乙酯;间甲苯基乙酸乙酯;",
    "alternate_name": "Benzeneacetic acid, 3-methyl-, ethyl ester;Acetic acid, <em>m</em>-tolyl-, ethyl ester;Ethyl (3-methylphenyl)acetate;Ethyl 3-methylbenzeneacetate;Ethyl <em>m</em>-tolylacetate;<em>m</em>-Tolylacetic acid ethyl ester;NSC 80677;(3-Methylphenyl)acetic acid ethyl ester;Ethyl 2-(3-methylphenyl)acetate;Ethyl 2-(<em>m</em>-tolyl)acetate",
    "duplicated_cas_no": "",
    "SMILES": "C(C(OCC)=O)C1=CC(C)=CC=C1",
    "meta_data": {
        "InChI": "InChI=1S/C11H14O2/c1-3-13-11(12)8-10-6-4-5-9(2)7-10/h4-7H,3,8H2,1-2H3",
        "InChIKey": null,
        "Canonical SMILES": "O=C(OCC)CC=1C=CC=C(C1)C",
        "Molecular Formula": "C<sub>11</sub>H<sub>14</sub>O<sub>2</sub>",
        "Molecular Mass": "178.23",
        "Boiling Point": "155-156 °C @ Press: 15 Torr"
    }
}