{
    "cas_no": "60-92-4",
    "key_name": "cAMP",
    "cn_name": "腺苷环磷酸酯;腺甙环磷酸酯;环磷腺苷;腺苷-3\"-5\"-环磷酸;",
    "alternate_name": "Adenosine, cyclic 3′,5′-(hydrogen phosphate);Adenosine 3′,5′-cyclic phosphate;4<em>H</em>-Furo[3,2-<em>d</em>]-1,3,2-dioxaphosphorin, adenosine deriv.;3′,5′-AMP;Adenosine cyclic 3′,5′-monophosphate;Adenosine 3′,5′-cyclophosphate;Adenosine 3′,5′-monophosphate;Adenosine 3′,5′-phosphate;Cyclic adenosine 3′,5′-phosphate;Cyclic 3′,5′-adenylic acid;Cyclic 3′,5′-monophosphate adenosine;Cyclic-3′,5′-phosphate adenosine;Cyclic AMP;Cyclic adenosine 3′,5′-monophosphate;Cyclic 3′,5′-AMP;cAMP;Adenosine cyclic monophosphate;NSC 143670;NSC 94017;NQZ-026",
    "duplicated_cas_no": "11002-78-1",
    "SMILES": "O[C@H]1[C@H](N2C=3C(N=C2)=C(N)N=CN3)O[C@]4([C@]1(OP(=O)(O)OC4)[H])[H]",
    "meta_data": {
        "InChI": "InChI=1S/C10H12N5O6P/c11-8-5-9(13-2-12-8)15(3-14-5)10-6(16)7-4(20-10)1-19-22(17,18)21-7/h2-4,6-7,10,16H,1H2,(H,17,18)(H2,11,12,13)/t4-,6-,7-,10-/m1/s1",
        "InChIKey": null,
        "Canonical SMILES": "O=P1(O)OCC2OC(N3C=NC=4C(=NC=NC43)N)C(O)C2O1",
        "Molecular Formula": "C<sub>10</sub>H<sub>12</sub>N<sub>5</sub>O<sub>6</sub>P",
        "Molecular Mass": "329.21",
        "Melting Point": "219-220 °C"
    }
}