{
    "cas_no": "592-01-8",
    "key_name": "Calcium cyanide",
    "cn_name": "氰熔体;",
    "alternate_name": "Calcium cyanide (Ca(CN)<sub>2</sub>);Calcium cyanide;Cyanogas;Calcid;Calcyan;NSC 74784",
    "duplicated_cas_no": "18724-70-4",
    "SMILES": "[Ca](C#N)C#N",
    "meta_data": {
        "InChI": "InChI=1S/2CN.Ca/c2*1-2;",
        "InChIKey": null,
        "Canonical SMILES": "N#C[Ca]C#N",
        "Molecular Formula": "C<sub>2</sub>CaN<sub>2</sub>",
        "Molecular Mass": "",
        "Melting Point": "1300 °C (sublm)",
        "Density": "1.8 g/cm³"
    }
}