{
    "cas_no": "7360-09-0",
    "key_name": "<span class=\"text-smallcaps\">L</span>-Tryptophanylglycine",
    "cn_name": null,
    "alternate_name": "Glycine, <span class=\"text-smallcaps\">L</span>-tryptophyl-;Glycine, <em>N</em>-<span class=\"text-smallcaps\">L</span>-tryptophyl-;<span class=\"text-smallcaps\">L</span>-Tryptophylglycine;<span class=\"text-smallcaps\">L</span>-Tryptophanylglycine;NSC 97945;473: PN: EP2161028 TABLE: 5 claimed protein;24: PN: WO2014063098 TABLE: 5 claimed protein;121: PN: US20130123467 SEQID: 145 claimed protein;8: PN: JP2014079213 TABLE: 2 claimed sequence;1: PN: CN109627344 SEQID: 5 claimed sequence;(<em>S</em>)-2-(2-Amino-3-(1<em>H</em>-indol-3-yl)propanamido)acetic acid;11: PN: WO2019231175 SEQID: 17 claimed protein;2-[[(2S)-2-Azaniumyl-3-(1<em>H</em>-indol-3-yl)propanoyl]amino]acetate;2-[(2S)-2-Amino-3-(1<em>H</em>-indol-3-yl)propanamido]acetic acid;42: PN: WO2020097235 SEQID: 271 claimed protein",
    "duplicated_cas_no": "",
    "SMILES": "C([C@@H](C(NCC(O)=O)=O)N)C=1C=2C(NC1)=CC=CC2",
    "meta_data": {
        "InChI": "InChI=1S/C13H15N3O3/c14-10(13(19)16-7-12(17)18)5-8-6-15-11-4-2-1-3-9(8)11/h1-4,6,10,15H,5,7,14H2,(H,16,19)(H,17,18)/t10-/m0/s1",
        "InChIKey": null,
        "Canonical SMILES": "O=C(O)CNC(=O)C(N)CC1=CNC=2C=CC=CC21",
        "Molecular Formula": "C<sub>13</sub>H<sub>15</sub>N<sub>3</sub>O<sub>3</sub>",
        "Molecular Mass": "261.28",
        "Melting Point": "176-178 °C"
    }
}