{
    "cas_no": "4731-53-7",
    "key_name": "Trioctylphosphine",
    "cn_name": "三辛基膦;",
    "alternate_name": "Phosphine, trioctyl-;Trioctylphosphine;Tri-<em>n</em>-octylphosphine;TOP;NSC 102529;Hishicolin P 8",
    "duplicated_cas_no": "",
    "SMILES": "P(CCCCCCCC)(CCCCCCCC)CCCCCCCC",
    "meta_data": {
        "InChI": "InChI=1S/C24H51P/c1-4-7-10-13-16-19-22-25(23-20-17-14-11-8-5-2)24-21-18-15-12-9-6-3/h4-24H2,1-3H3",
        "InChIKey": null,
        "Canonical SMILES": "P(CCCCCCCC)(CCCCCCCC)CCCCCCCC",
        "Molecular Formula": "C<sub>24</sub>H<sub>51</sub>P",
        "Molecular Mass": "370.64",
        "Boiling Point": "291 °C",
        "Melting Point": "30 °C"
    }
}