{
    "cas_no": "17745-45-8",
    "key_name": "<em>B</em>-Propylboronic acid",
    "cn_name": "正丙基硼酸;",
    "alternate_name": "Boronic acid, <em>B</em>-propyl-;1-Propaneboronic acid;Boronic acid, propyl-;<em>B</em>-Propylboronic acid;Propylboronic acid;Dihydroxy(propyl)boron;Dihydroxypropylborane;NSC 518339;<em>n</em>-Propylboronic acid;Propan-1-ylboronic acid;1-Propylboronic acid",
    "duplicated_cas_no": "65727-28-8",
    "SMILES": "C(B(O)O)CC",
    "meta_data": {
        "InChI": "InChI=1S/C3H9BO2/c1-2-3-4(5)6/h5-6H,2-3H2,1H3",
        "InChIKey": null,
        "Canonical SMILES": "OB(O)CCC",
        "Molecular Formula": "C<sub>3</sub>H<sub>9</sub>BO<sub>2</sub>",
        "Molecular Mass": "87.91",
        "Melting Point": "107 °C"
    }
}