{
    "cas_no": "2131-18-2",
    "key_name": "Pentadecylbenzene",
    "cn_name": "1-苯基十五烷;",
    "alternate_name": "Benzene, pentadecyl-;Pentadecane, 1-phenyl-;Pentadecylbenzene;<em>n</em>-Pentadecylbenzene;1-Phenylpentadecane;1-Phenyl-<em>n</em>-pentadecane;Pentadecylbenzol;NSC 88949",
    "duplicated_cas_no": "",
    "SMILES": "C(CCCCCCCCCCCCCC)C1=CC=CC=C1",
    "meta_data": {
        "InChI": "InChI=1S/C21H36/c1-2-3-4-5-6-7-8-9-10-11-12-13-15-18-21-19-16-14-17-20-21/h14,16-17,19-20H,2-13,15,18H2,1H3",
        "InChIKey": null,
        "Canonical SMILES": "C=1C=CC(=CC1)CCCCCCCCCCCCCCC",
        "Molecular Formula": "C<sub>21</sub>H<sub>36</sub>",
        "Molecular Mass": "288.51",
        "Boiling Point": "373 °C",
        "Melting Point": "22 °C",
        "Density": "0.8548 g/cm³ @ Temp: 20 °C"
    }
}