{
    "cas_no": "7789-23-3",
    "key_name": "Potassium fluoride",
    "cn_name": "氟化钾;",
    "alternate_name": "Potassium fluoride (KF);Potassium fluoride;Potassium monofluoride;Clocat F;Potassium monofluoride (KF)",
    "duplicated_cas_no": "59217-74-2;165892-23-9;2018280-07-2",
    "SMILES": "F[K]",
    "meta_data": {
        "InChI": "InChI=1S/FH.K/h1H;/q;+1/p-1",
        "InChIKey": null,
        "Canonical SMILES": "F[K]",
        "Molecular Formula": "FK",
        "Molecular Mass": "",
        "Melting Point": "856 °C",
        "Density": "1.93 g/cm³ @ Temp: 827 °C"
    }
}