{
    "cas_no": "13018-10-5",
    "key_name": "Torilin",
    "cn_name": null,
    "alternate_name": "2-Butenoic acid, 2-methyl-, (5<em>S</em>,6<em>R</em>,8<em>S</em>,8a<em>R</em>)-5-[1-(acetyloxy)-1-methylethyl]-1,2,4,5,6,7,8,8a-octahydro-3,8-dimethyl-2-oxo-6-azulenyl ester, (2<em>Z</em>)-;Torilin;1β-Guai-4-en-3-one, 8β,11-dihydroxy-, 11-acetate 2-methylcrotonate, (<em>Z</em>)-;2-Butenoic acid, 2-methyl-, 5-[1-(acetyloxy)-1-methylethyl]-1,2,4,5,6,7,8,8a-octahydro-3,8-dimethyl-2-oxo-6-azulenyl ester, [5<em>S</em>-[5α,6α(<em>Z</em>),8α,8aα]]-",
    "duplicated_cas_no": "1411-16-1;26296-53-7",
    "SMILES": "[C@@](OC(C)=O)(C)(C)[C@@H]1[C@H](OC(/C(=C\\C)/C)=O)C[C@H](C)[C@@]2(C(C1)=C(C)C(=O)C2)[H]",
    "meta_data": {
        "InChI": "InChI=1S/C22H32O5/c1-8-12(2)21(25)26-20-9-13(3)16-11-19(24)14(4)17(16)10-18(20)22(6,7)27-15(5)23/h8,13,16,18,20H,9-11H2,1-7H3/b12-8-/t13-,16+,18-,20+/m0/s1",
        "InChIKey": null,
        "Canonical SMILES": "O=C(OC1CC(C)C2C(=C(C(=O)C2)C)CC1C(OC(=O)C)(C)C)C(=CC)C",
        "Molecular Formula": "C<sub>22</sub>H<sub>32</sub>O<sub>5</sub>",
        "Molecular Mass": "376.49",
        "Melting Point": "77-78 °C"
    }
}