{
    "cas_no": "88-12-0",
    "key_name": "<em>N</em>-Vinyl-2-pyrrolidone",
    "cn_name": "N-乙烯基吡咯烷酮;",
    "alternate_name": "2-Pyrrolidinone, 1-ethenyl-;2-Pyrrolidinone, 1-vinyl-;1-Ethenyl-2-pyrrolidinone;<em>N</em>-Vinyl-2-pyrrolidinone;1-Vinyl-2-pyrrolidinone;Vinylpyrrolidone;<em>N</em>-Vinyl-2-pyrrolidone;<em>N</em>-Vinylpyrrolidone;1-Vinyl-2-pyrrolidone;Vinylpyrrolidinone;1-Vinylpyrrolidinone;Vinylbutyrolactam;V-Pyrol;Aronix M 150;<em>N</em>-Vinylpyrrolin-2-one;V-Pyrol RC;N-VP;NSC 10222;NSC 683040;NVP 300;N-V 2RC;V-Pyro 4RC;Vinyl-2-pyrrolidone;MAK 706;NVP",
    "duplicated_cas_no": "94800-10-9;153631-60-8;1229193-78-5",
    "SMILES": "C(=C)N1C(=O)CCC1",
    "meta_data": {
        "InChI": "InChI=1S/C6H9NO/c1-2-7-5-3-4-6(7)8/h2H,1,3-5H2",
        "InChIKey": null,
        "Canonical SMILES": "O=C1N(C=C)CCC1",
        "Molecular Formula": "C<sub>6</sub>H<sub>9</sub>NO",
        "Molecular Mass": "111.14",
        "Boiling Point": "193 °C @ Press: 400 Torr",
        "Melting Point": "13.5 °C",
        "Density": "1.04 g/cm³ @ Temp: 24 °C"
    }
}