{
    "cas_no": "5965-53-7",
    "key_name": "1,5-Diethyl 2-oxopentanedioate",
    "cn_name": null,
    "alternate_name": "Pentanedioic acid, 2-oxo-, 1,5-diethyl ester;Glutaric acid, 2-oxo-, diethyl ester;Pentanedioic acid, 2-oxo-, diethyl ester;1,5-Diethyl 2-oxopentanedioate;α-Ketoglutaric acid diethyl ester;Ethyl ethoxalylpropionate;Diethyl 2-oxoglutarate;2-Oxopentanedioic acid diethyl ester;Diethyl oxalopropionate;Diethyl α-ketoglutarate;NSC 111179;Diethyl 2-oxopentanedioate",
    "duplicated_cas_no": "",
    "SMILES": "C(C(C(OCC)=O)=O)CC(OCC)=O",
    "meta_data": {
        "InChI": "InChI=1S/C9H14O5/c1-3-13-8(11)6-5-7(10)9(12)14-4-2/h3-6H2,1-2H3",
        "InChIKey": null,
        "Canonical SMILES": "O=C(OCC)C(=O)CCC(=O)OCC",
        "Molecular Formula": "C<sub>9</sub>H<sub>14</sub>O<sub>5</sub>",
        "Molecular Mass": "202.20",
        "Boiling Point": "118-122 °C @ Press: 5 Torr",
        "Melting Point": "206-209 °C (decomp)"
    }
}