{
    "cas_no": "2398-34-7",
    "key_name": "3-Hydroxyhexadecanoic acid",
    "cn_name": null,
    "alternate_name": "Hexadecanoic acid, 3-hydroxy-;3-Hydroxyhexadecanoic acid;3-Hydroxypalmitic acid;β-Hydroxypalmitic acid;β-Hydroxyhexadecanoic acid;<span class=\"text-smallcaps\">DL</span>-3-Hydroxyhexadecanoic acid;<span class=\"text-smallcaps\">DL</span>-3-Hydroxypalmitic acid;(3<em>RS</em>)-3-Hydroxyhexadecanoic acid;C16:0 3-OH",
    "duplicated_cas_no": "928-17-6;1111092-41-1",
    "SMILES": "C(CCCCCCCCCCCC)C(CC(O)=O)O",
    "meta_data": {
        "InChI": "InChI=1S/C16H32O3/c1-2-3-4-5-6-7-8-9-10-11-12-13-15(17)14-16(18)19/h15,17H,2-14H2,1H3,(H,18,19)",
        "InChIKey": null,
        "Canonical SMILES": "O=C(O)CC(O)CCCCCCCCCCCCC",
        "Molecular Formula": "C<sub>16</sub>H<sub>32</sub>O<sub>3</sub>",
        "Molecular Mass": "272.42",
        "Melting Point": "78-79 °C"
    }
}