{
    "cas_no": "50698-76-5",
    "key_name": "<em>S</em>-(Carboxymethyl)-<span class=\"text-smallcaps\">D</span>-cysteine",
    "cn_name": null,
    "alternate_name": "<span class=\"text-smallcaps\">D</span>-Cysteine, <em>S</em>-(carboxymethyl)-;<em>S</em>-(Carboxymethyl)-<span class=\"text-smallcaps\">D</span>-cysteine;<em>S</em>-Carboxymethyl-<span class=\"text-smallcaps\">D</span>-cysteine",
    "duplicated_cas_no": "",
    "SMILES": "C([C@H](C(O)=O)N)SCC(O)=O",
    "meta_data": {
        "InChI": "InChI=1S/C5H9NO4S/c6-3(5(9)10)1-11-2-4(7)8/h3H,1-2,6H2,(H,7,8)(H,9,10)/t3-/m1/s1",
        "InChIKey": null,
        "Canonical SMILES": "O=C(O)CSCC(N)C(=O)O",
        "Molecular Formula": "C<sub>5</sub>H<sub>9</sub>NO<sub>4</sub>S",
        "Molecular Mass": "179.19",
        "Melting Point": "197-203 °C (decomp)"
    }
}