{
    "cas_no": "1013-22-5",
    "key_name": "1-(2,3-Dimethylphenyl)piperazine",
    "cn_name": "1-(2,3-二甲基苯基)哌啶;",
    "alternate_name": "Piperazine, 1-(2,3-dimethylphenyl)-;Piperazine, 1-(2,3-xylyl)-;1-(2,3-Dimethylphenyl)piperazine;<em>N</em>-(2,3-Dimethylphenyl)piperazine;4-(2,3-Dimethylphenyl)piperazine;1-(2,3-Xylyl)piperazine",
    "duplicated_cas_no": "",
    "SMILES": "CC1=C(C=CC=C1C)N2CCNCC2",
    "meta_data": {
        "InChI": "InChI=1S/C12H18N2/c1-10-4-3-5-12(11(10)2)14-8-6-13-7-9-14/h3-5,13H,6-9H2,1-2H3",
        "InChIKey": null,
        "Canonical SMILES": "C=1C=C(C(=C(C1)C)C)N2CCNCC2",
        "Molecular Formula": "C<sub>12</sub>H<sub>18</sub>N<sub>2</sub>",
        "Molecular Mass": "190.28",
        "Boiling Point": "110-113 °C @ Press: 1 Torr"
    }
}