{
    "cas_no": "23184-66-9",
    "key_name": "Butachlor",
    "cn_name": "丁草胺;N-丁氧甲基-alpha-氯代乙酰替-2,6-二乙基苯胺;",
    "alternate_name": "Acetamide, <em>N</em>-(butoxymethyl)-2-chloro-<em>N</em>-(2,6-diethylphenyl)-;Acetanilide, <em>N</em>-(butoxymethyl)-2-chloro-2′,6′-diethyl-;<em>N</em>-(Butoxymethyl)-2-chloro-<em>N</em>-(2,6-diethylphenyl)acetamide;CP 53619;2′,6′-Diethyl-<em>N</em>-butoxymethyl-2-chloroacetanilide;2′,6′-Diethyl-<em>N</em>-butoxymethyl-α-chloroacetanilide;2-Chloro-2′,6′-diethyl-<em>N</em>-(butoxymethyl)acetanilide;Butachlor;Machete;Machete (herbicide);<em>N</em>-(Butoxymethyl)-2-chloro-2′,6′-diethylacetanilide;Machette;2-Chloro-2′,6′-diethyl-<em>N</em>-(butoxymethyl)acetoanilide;Butaclor;Hiltachlor;Delchlor;Delchlor 5G;Bilchlor;NSC 221683;Machet;Dingcaoan",
    "duplicated_cas_no": "130661-11-9",
    "SMILES": "N(COCCCC)(C(CCl)=O)C1=C(CC)C=CC=C1CC",
    "meta_data": {
        "InChI": "InChI=1S/C17H26ClNO2/c1-4-7-11-21-13-19(16(20)12-18)17-14(5-2)9-8-10-15(17)6-3/h8-10H,4-7,11-13H2,1-3H3",
        "InChIKey": null,
        "Canonical SMILES": "O=C(N(C=1C(=CC=CC1CC)CC)COCCCC)CCl",
        "Molecular Formula": "C<sub>17</sub>H<sub>26</sub>ClNO<sub>2</sub>",
        "Molecular Mass": "311.85",
        "Boiling Point": "156 °C @ Press: 0.5 Torr",
        "Melting Point": "&lt;-5 °C",
        "Density": "1.070 g/cm³ @ Temp: 25 °C"
    }
}