{
    "cas_no": "3100-04-7",
    "key_name": "1-Methylcyclopropene",
    "cn_name": "1-甲基环丙烯;",
    "alternate_name": "Cyclopropene, 1-methyl-;1-Methylcyclopropene;EthylBloc;1-MCP;SmartFresh;AFXRD 038;AFXRD 020;Fitomag",
    "duplicated_cas_no": "",
    "SMILES": "CC=1CC1",
    "meta_data": {
        "InChI": "InChI=1S/C4H6/c1-4-2-3-4/h2H,3H2,1H3",
        "InChIKey": null,
        "Canonical SMILES": "C1=C(C)C1",
        "Molecular Formula": "C<sub>4</sub>H<sub>6</sub>",
        "Molecular Mass": "54.09",
        "Boiling Point": "8 °C"
    }
}