{
    "cas_no": "2255-80-3",
    "key_name": "4-Bromo-7-methyl-2,1,3-benzothiadiazole",
    "cn_name": null,
    "alternate_name": "2,1,3-Benzothiadiazole, 4-bromo-7-methyl-;4-Bromo-7-methyl-2,1,3-benzothiadiazole;7-Bromo-4-methyl-2,1,3-benzothiadiazole;4-Bromo-7-methylbenzo[1,2,5]thiadiazole",
    "duplicated_cas_no": "",
    "SMILES": "BrC=1C=2C(C(C)=CC1)=NSN2",
    "meta_data": {
        "InChI": "InChI=1S/C7H5BrN2S/c1-4-2-3-5(8)7-6(4)9-11-10-7/h2-3H,1H3",
        "InChIKey": null,
        "Canonical SMILES": "BrC1=CC=C(C2=NSN=C12)C",
        "Molecular Formula": "C<sub>7</sub>H<sub>5</sub>BrN<sub>2</sub>S",
        "Molecular Mass": "229.10",
        "Melting Point": "139.3-140.3 °C"
    }
}