{
    "cas_no": "81335-77-5",
    "key_name": "Imazethapyr",
    "cn_name": "咪草烟;2-[4,5-二氢-4-甲基-4-(1-甲基乙基)-5-氧代-1H-咪唑-2-基]-5-乙基-3-吡啶羧酸;",
    "alternate_name": "3-Pyridinecarboxylic acid, 2-[4,5-dihydro-4-methyl-4-(1-methylethyl)-5-oxo-1<em>H</em>-imidazol-2-yl]-5-ethyl-;2-[4,5-Dihydro-4-methyl-4-(1-methylethyl)-5-oxo-1<em>H</em>-imidazol-2-yl]-5-ethyl-3-pyridinecarboxylic acid;AC 263499;Imazethapyr;Pursuit;Pivot;CL 263499;(±)-Imazethapyr;5-Ethyl-2-(4-isopropyl-4-methyl-5-oxo-2-imidazolin-2-yl) nicotinic acid;Fabian;(±)-5-Ethyl-2-(4-isopropyl-4-methyl-5-oxo-4,5-dihydro-1<em>H</em>-imidazol-2-yl)nicotinic acid;Pursuit 10",
    "duplicated_cas_no": "143914-59-4",
    "SMILES": "C(O)(=O)C1=C(N=CC(CC)=C1)C=2NC(C(C)C)(C)C(=O)N2",
    "meta_data": {
        "InChI": "InChI=1S/C15H19N3O3/c1-5-9-6-10(13(19)20)11(16-7-9)12-17-14(21)15(4,18-12)8(2)3/h6-8H,5H2,1-4H3,(H,19,20)(H,17,18,21)",
        "InChIKey": null,
        "Canonical SMILES": "O=C(O)C=1C=C(C=NC1C2=NC(=O)C(N2)(C)C(C)C)CC",
        "Molecular Formula": "C<sub>15</sub>H<sub>19</sub>N<sub>3</sub>O<sub>3</sub>",
        "Molecular Mass": "289.33",
        "Melting Point": "172-175 °C"
    }
}