{
    "cas_no": "50606-58-1",
    "key_name": "1-Benzyl-3-piperidone hydrochloride",
    "cn_name": "1-苄基-3-哌啶酮盐酸盐;",
    "alternate_name": "3-Piperidinone, 1-(phenylmethyl)-, hydrochloride (1:1);3-Piperidinone, 1-(phenylmethyl)-, hydrochloride;1-Benzyl-3-piperidone hydrochloride;1-Benzyl-3-piperidinone hydrochloride;<em>N</em>-Benzyl-3-piperidinone hydrochloride;<em>N</em>-Benzyl-3-piperidone hydrochloride;<em>N</em>-Benzylpiperidine-3-one hydrochloride;Monohydrochloride 1-benzylpiperidin-3-one;1-Benzylpiperidin-3-one monohydrochloride",
    "duplicated_cas_no": "",
    "SMILES": "C(N1CC(=O)CCC1)C2=CC=CC=C2.Cl",
    "meta_data": {
        "InChI": "InChI=1S/C12H15NO.ClH/c14-12-7-4-8-13(10-12)9-11-5-2-1-3-6-11;/h1-3,5-6H,4,7-10H2;1H",
        "InChIKey": null,
        "Canonical SMILES": "Cl.O=C1CN(CC=2C=CC=CC2)CCC1",
        "Molecular Formula": "C<sub>12</sub>H<sub>15</sub>NO.ClH",
        "Molecular Mass": "",
        "Melting Point": "168-170 °C"
    }
}