{
    "cas_no": "69839-83-4",
    "key_name": "<em>N</em>,3,4-Trihydroxybenzamide",
    "cn_name": null,
    "alternate_name": "Benzamide, <em>N</em>,3,4-trihydroxy-;<em>N</em>,3,4-Trihydroxybenzamide;3,4-Dihydroxybenzohydroxamic acid;3,4-Dihydroxyphenylhydroxamic acid;VF 147;Didox;NSC 324360",
    "duplicated_cas_no": "106573-41-5",
    "SMILES": "C(NO)(=O)C1=CC(O)=C(O)C=C1",
    "meta_data": {
        "InChI": "InChI=1S/C7H7NO4/c9-5-2-1-4(3-6(5)10)7(11)8-12/h1-3,9-10,12H,(H,8,11)",
        "InChIKey": null,
        "Canonical SMILES": "O=C(NO)C1=CC=C(O)C(O)=C1",
        "Molecular Formula": "C<sub>7</sub>H<sub>7</sub>NO<sub>4</sub>",
        "Molecular Mass": "169.13",
        "Melting Point": "207 °C"
    }
}