{
    "cas_no": "22483-09-6",
    "key_name": "Aminoacetaldehyde dimethyl acetal",
    "cn_name": null,
    "alternate_name": "Ethanamine, 2,2-dimethoxy-;Acetaldehyde, amino-, dimethyl acetal;Ethylamine, 2,2-dimethoxy-;2,2-Dimethoxyethanamine;2,2-Dimethoxyethylamine;Aminoacetaldehyde dimethyl acetal;DEA;2-Aminoacetaldehyde dimethyl acetal;Glycinal dimethyl acetal;1-Amino-2,2-dimethoxyethane;NSC 73701;Aminoacetaldehyde dimethylacetal;2,2-Dimethoxyethan-1-amine;1-Amino-2,2-dimethyloxyethane;<em>N</em>-(2,2-Dimethoxyethyl)amine",
    "duplicated_cas_no": "1005473-07-3",
    "SMILES": "C(CN)(OC)OC",
    "meta_data": {
        "InChI": "InChI=1S/C4H11NO2/c1-6-4(3-5)7-2/h4H,3,5H2,1-2H3",
        "InChIKey": null,
        "Canonical SMILES": "O(C)C(OC)CN",
        "Molecular Formula": "C<sub>4</sub>H<sub>11</sub>NO<sub>2</sub>",
        "Molecular Mass": "105.14",
        "Boiling Point": "137-139 °C",
        "Density": "0.9676 g/cm³ @ Temp: 25 °C"
    }
}