{
    "cas_no": "767-00-0",
    "key_name": "4-Cyanophenol",
    "cn_name": "4-羟基苯甲腈;对羟基苯甲腈;",
    "alternate_name": "Benzonitrile, 4-hydroxy-;Benzonitrile, <em>p</em>-hydroxy-;4-Hydroxybenzonitrile;<em>p</em>-Cyanophenol;<em>p</em>-Hydroxybenzonitrile;4-Cyanophenol;NSC 400524;4-Hydroxycyanobenzene",
    "duplicated_cas_no": "",
    "SMILES": "C(#N)C1=CC=C(O)C=C1",
    "meta_data": {
        "InChI": "InChI=1S/C7H5NO/c8-5-6-1-3-7(9)4-2-6/h1-4,9H",
        "InChIKey": null,
        "Canonical SMILES": "N#CC1=CC=C(O)C=C1",
        "Molecular Formula": "C<sub>7</sub>H<sub>5</sub>NO",
        "Molecular Mass": "119.12",
        "Boiling Point": "148 °C @ Press: 1 Torr",
        "Melting Point": "110-113 °C"
    }
}