{
    "cas_no": "24197-34-0",
    "key_name": "4,4′-Thiobis[2-methylphenol]",
    "cn_name": null,
    "alternate_name": "Phenol, 4,4′-thiobis[2-methyl-;<em>o</em>-Cresol, 4,4′-thiodi-;4,4′-Thiobis[2-methylphenol];2,2′-Dimethyl-4,4′-thiodiphenol;Bis(4-hydroxy-3-methylphenyl) sulfide;4,4′-Thiodi-<em>o</em>-cresol;Bis(3-methyl-4-hydroxyphenyl) sulfide",
    "duplicated_cas_no": "",
    "SMILES": "S(C1=CC(C)=C(O)C=C1)C2=CC(C)=C(O)C=C2",
    "meta_data": {
        "InChI": "InChI=1S/C14H14O2S/c1-9-7-11(3-5-13(9)15)17-12-4-6-14(16)10(2)8-12/h3-8,15-16H,1-2H3",
        "InChIKey": null,
        "Canonical SMILES": "OC1=CC=C(SC2=CC=C(O)C(=C2)C)C=C1C",
        "Molecular Formula": "C<sub>14</sub>H<sub>14</sub>O<sub>2</sub>S",
        "Molecular Mass": "246.32",
        "Melting Point": "120-121 °C"
    }
}