{
    "cas_no": "50573-74-5",
    "key_name": "2-Amino-6-nitrobenzoic acid",
    "cn_name": "2-氨基-6-硝基苯甲酸;",
    "alternate_name": "Benzoic acid, 2-amino-6-nitro-;Anthranilic acid, 6-nitro-;2-Amino-6-nitrobenzoic acid;6-Nitroanthranilic acid;NSC 36953;6-Nitro-2-aminobenzoic acid",
    "duplicated_cas_no": "",
    "SMILES": "C(O)(=O)C1=C(N(=O)=O)C=CC=C1N",
    "meta_data": {
        "InChI": "InChI=1S/C7H6N2O4/c8-4-2-1-3-5(9(12)13)6(4)7(10)11/h1-3H,8H2,(H,10,11)",
        "InChIKey": null,
        "Canonical SMILES": "O=C(O)C=1C(N)=CC=CC1N(=O)=O",
        "Molecular Formula": "C<sub>7</sub>H<sub>6</sub>N<sub>2</sub>O<sub>4</sub>",
        "Molecular Mass": "182.13",
        "Melting Point": "189 °C (decomp)"
    }
}