{
    "cas_no": "471-54-5",
    "key_name": "(1<em>R</em>,4<em>S</em>,4a<em>S</em>,6a<em>R</em>,9<em>R</em>,10a<em>R</em>,10b<em>R</em>)-9-(3-Furanyl)-1,4,4a,5,6,6a,9,10,10a,10b-decahydro-4-hydroxy-4a,10a-dimethyl-1,4-etheno-3<em>H</em>,7<em>H</em>-benzo[1,2-<em>c</em>:3,4-<em>c</em>′]dipyran-3,7-dione",
    "cn_name": "异古伦宾;",
    "alternate_name": "1,4-Etheno-3<em>H</em>,7<em>H</em>-benzo[1,2-<em>c</em>:3,4-<em>c</em>′]dipyran-3,7-dione, 9-(3-furanyl)-1,4,4a,5,6,6a,9,10,10a,10b-decahydro-4-hydroxy-4a,10a-dimethyl-, (1<em>R</em>,4<em>S</em>,4a<em>S</em>,6a<em>R</em>,9<em>R</em>,10a<em>R</em>,10b<em>R</em>)-;1,4-Etheno-3<em>H</em>,7<em>H</em>-benzo[1,2-<em>c</em>:3,4-<em>c</em>′]dipyran-3,7-dione, 9-(3-furanyl)-1,4,4a,5,6,6a,9,10,10a,10b-decahydro-4-hydroxy-4a,10a-dimethyl-, [1<em>R</em>-(1α,4β,4aα,6aα,9β,10aβ,10bα)]-;Isocolumbin;(1<em>R</em>,4<em>S</em>,4a<em>S</em>,6a<em>R</em>,9<em>R</em>,10a<em>R</em>,10b<em>R</em>)-9-(3-Furanyl)-1,4,4a,5,6,6a,9,10,10a,10b-decahydro-4-hydroxy-4a,10a-dimethyl-1,4-etheno-3<em>H</em>,7<em>H</em>-benzo[1,2-<em>c</em>:3,4-<em>c</em>′]dipyran-3,7-dione",
    "duplicated_cas_no": "",
    "SMILES": "C[C@@]12[C@@]([C@]3(C)[C@@](CC1)(C(=O)O[C@H](C3)C=4C=COC4)[H])([C@]5(OC(=O)[C@]2(O)C=C5)[H])[H]",
    "meta_data": {
        "InChI": "InChI=1S/C20H22O6/c1-18-9-14(11-5-8-24-10-11)25-16(21)12(18)3-6-19(2)15(18)13-4-7-20(19,23)17(22)26-13/h4-5,7-8,10,12-15,23H,3,6,9H2,1-2H3/t12-,13-,14+,15+,18-,19-,20+/m0/s1",
        "InChIKey": null,
        "Canonical SMILES": "O=C1OC(C2=COC=C2)CC3(C)C1CCC4(C)C3C5OC(=O)C4(O)C=C5",
        "Molecular Formula": "C<sub>20</sub>H<sub>22</sub>O<sub>6</sub>",
        "Molecular Mass": "358.39",
        "Melting Point": "183-187 °C (decomp)"
    }
}