{
    "cas_no": "17920-88-6",
    "key_name": "2,2′-(1-Methylethylidene)bis[furan]",
    "cn_name": "2,2-二(2-呋喃基)丙烷;",
    "alternate_name": "Furan, 2,2′-(1-methylethylidene)bis-;Furan, 2,2′-isopropylidenedi-;2,2′-(1-Methylethylidene)bis[furan];2,2-Di-2-furylpropane;2,2-Di(2-furan)propane;2,2-Bis(2-furyl)propane;2-[2-(Furan-2-yl)propan-2-yl]furan",
    "duplicated_cas_no": "",
    "SMILES": "C(C)(C)(C1=CC=CO1)C2=CC=CO2",
    "meta_data": {
        "InChI": "InChI=1S/C11H12O2/c1-11(2,9-5-3-7-12-9)10-6-4-8-13-10/h3-8H,1-2H3",
        "InChIKey": null,
        "Canonical SMILES": "O1C=CC=C1C(C=2OC=CC2)(C)C",
        "Molecular Formula": "C<sub>11</sub>H<sub>12</sub>O<sub>2</sub>",
        "Molecular Mass": "176.21",
        "Boiling Point": "85-90 °C @ Press: 13 Torr",
        "Melting Point": "-12 °C",
        "Density": "1.043 g/cm³ @ Temp: 20 °C"
    }
}