{
    "cas_no": "1484-85-1",
    "key_name": "1,3-Benzodioxole-5-ethanamine",
    "cn_name": "胡椒乙胺;高胡椒乙胺;3,4-亚甲二氧苯乙胺;",
    "alternate_name": "1,3-Benzodioxole-5-ethanamine;Phenethylamine, 3,4-(methylenedioxy)-;Homopiperonylamine;3,4-(Methylenedioxy)phenethylamine;3,4-(Methylenedioxy)-β-phenethylamine;2-(3,4-Methylenedioxyphenyl)ethylamine;3,4-(Methylenedioxy)phenylethylamine;[2-(Benzodioxol-5-yl)ethyl]amine;2-Benzo[1,3]dioxol-5-yl-ethylamine;2-Benzo[1,3]dioxol-5-ylethanamine;5-(2-Aminoethyl)benzodioxole;2-(Benzo[<em>d</em>][1,3]dioxol-5-yl)ethanamine;5-(2-Aminoethyl)-1,3-benzodioxole;2-(2<em>H</em>-1,3-Benzodioxol-5-yl)ethan-1-amine;2-(1,3-Dioxaindan-5-yl)ethan-1-amine",
    "duplicated_cas_no": "",
    "SMILES": "C(CN)C=1C=C2C(=CC1)OCO2",
    "meta_data": {
        "InChI": "InChI=1S/C9H11NO2/c10-4-3-7-1-2-8-9(5-7)12-6-11-8/h1-2,5H,3-4,6,10H2",
        "InChIKey": null,
        "Canonical SMILES": "O1C2=CC=C(C=C2OC1)CCN",
        "Molecular Formula": "C<sub>9</sub>H<sub>11</sub>NO<sub>2</sub>",
        "Molecular Mass": "165.19",
        "Boiling Point": "166 °C @ Press: 20 Torr",
        "Melting Point": "114 °C"
    }
}