{
    "cas_no": "6574-15-8",
    "key_name": "1-(4-Nitrophenyl)piperidine",
    "cn_name": "1-(4-硝基苯基)哌啶;",
    "alternate_name": "Piperidine, 1-(4-nitrophenyl)-;Piperidine, 1-(<em>p</em>-nitrophenyl)-;1-(4-Nitrophenyl)piperidine;<em>N</em>-(<em>p</em>-Nitrophenyl)piperidine;<em>p</em>-(1-Piperidinyl)nitrobenzene;<em>p</em>-Nitropiperidinobenzene;4-Piperidinonitrobenzene;<em>N</em>-(4-Nitrophenyl)piperidine;1-(<em>p</em>-Nitrophenyl)piperidine;NSC 15441",
    "duplicated_cas_no": "",
    "SMILES": "N(=O)(=O)C1=CC=C(C=C1)N2CCCCC2",
    "meta_data": {
        "InChI": "InChI=1S/C11H14N2O2/c14-13(15)11-6-4-10(5-7-11)12-8-2-1-3-9-12/h4-7H,1-3,8-9H2",
        "InChIKey": null,
        "Canonical SMILES": "O=N(=O)C1=CC=C(C=C1)N2CCCCC2",
        "Molecular Formula": "C<sub>11</sub>H<sub>14</sub>N<sub>2</sub>O<sub>2</sub>",
        "Molecular Mass": "206.24",
        "Melting Point": "114 °C"
    }
}