{
    "cas_no": "97-56-3",
    "key_name": "<em>o</em>-Aminoazotoluene",
    "cn_name": null,
    "alternate_name": "Benzenamine, 2-methyl-4-[2-(2-methylphenyl)diazenyl]-;C.I. Solvent Yellow 3;Benzenamine, 2-methyl-4-[(2-methylphenyl)azo]-;<em>o</em>-Toluidine, 4-<em>o</em>-tolylazo-;2-Methyl-4-[2-(2-methylphenyl)diazenyl]benzenamine;C.I. 11160;C.I. 11160B;<em>o</em>-AT;Brasilazina Oil Yellow R;2′,3-Dimethyl-4-aminoazobenzene;Fast Yellow AT;Fat Yellow B;Hidaco Oil Yellow;OAAT;Oil Yellow 21;Oil Yellow I;Oil Yellow C;Oil Yellow 2R;Oil Yellow 2681;Oil Yellow AT;Organol Yellow 2T;Somalia Yellow R;<em>o</em>-Aminoazotoluene;4-(<em>o</em>-Tolylazo)-<em>o</em>-toluidine;4-Amino-2′,3-dimethylazobenzene;2-Methyl-4-[(<em>o</em>-tolyl)azo]aniline;NSC 1797;NSC 26821;2,3′-Dimethyl-4′-aminoazobenzene;Solvent Yellow 3;Fast Garnet GBC Base;2-Methyl-4-[(2-methylphenyl)diazenyl]amine;2-Aminoazotoluene",
    "duplicated_cas_no": "28676-13-3",
    "SMILES": "N(=NC1=CC(C)=C(N)C=C1)C2=C(C)C=CC=C2",
    "meta_data": {
        "InChI": "InChI=1S/C14H15N3/c1-10-5-3-4-6-14(10)17-16-12-7-8-13(15)11(2)9-12/h3-9H,15H2,1-2H3",
        "InChIKey": null,
        "Canonical SMILES": "N(=NC=1C=CC=CC1C)C2=CC=C(N)C(=C2)C",
        "Molecular Formula": "C<sub>14</sub>H<sub>15</sub>N<sub>3</sub>",
        "Molecular Mass": "225.29",
        "Melting Point": "101-102 °C"
    }
}