{
    "cas_no": "1866-39-3",
    "key_name": "4-Methylcinnamic acid",
    "cn_name": "对甲基肉桂酸;4-甲基肉桂酸;",
    "alternate_name": "2-Propenoic acid, 3-(4-methylphenyl)-;Cinnamic acid, <em>p</em>-methyl-;3-(4-Methylphenyl)-2-propenoic acid;<em>p</em>-Methylcinnamic acid;4-Methylcinnamic acid;3-(<em>p</em>-Tolyl)acrylic acid;3-(4-Methylphenyl)propenoic acid;3-(4-Tolyl)acrylic acid;NSC 66272;3-(4-Methylphenyl)acrylic acid",
    "duplicated_cas_no": "",
    "SMILES": "C(=CC(O)=O)C1=CC=C(C)C=C1",
    "meta_data": {
        "InChI": "InChI=1S/C10H10O2/c1-8-2-4-9(5-3-8)6-7-10(11)12/h2-7H,1H3,(H,11,12)",
        "InChIKey": null,
        "Canonical SMILES": "O=C(O)C=CC1=CC=C(C=C1)C",
        "Molecular Formula": "C<sub>10</sub>H<sub>10</sub>O<sub>2</sub>",
        "Molecular Mass": "162.19",
        "Melting Point": "198-199 °C"
    }
}