{
    "cas_no": "41019-44-7",
    "key_name": "5-(3-Chlorophenyl)-2-furancarboxylic acid",
    "cn_name": null,
    "alternate_name": "2-Furancarboxylic acid, 5-(3-chlorophenyl)-;5-(3-Chlorophenyl)-2-furancarboxylic acid;5-(<em>m</em>-Chlorophenyl)-2-furancarboxylic acid;5-(3-Chlorophenyl)-2-furoic acid",
    "duplicated_cas_no": "",
    "SMILES": "C(O)(=O)C=1OC(=CC1)C2=CC(Cl)=CC=C2",
    "meta_data": {
        "InChI": "InChI=1S/C11H7ClO3/c12-8-3-1-2-7(6-8)9-4-5-10(15-9)11(13)14/h1-6H,(H,13,14)",
        "InChIKey": null,
        "Canonical SMILES": "O=C(O)C=1OC(=CC1)C=2C=CC=C(Cl)C2",
        "Molecular Formula": "C<sub>11</sub>H<sub>7</sub>ClO<sub>3</sub>",
        "Molecular Mass": "222.62",
        "Melting Point": "168-170 °C"
    }
}