{
    "cas_no": "75507-25-4",
    "key_name": "2-Hydroxymethyl-15-crown-5",
    "cn_name": null,
    "alternate_name": "1,4,7,10,13-Pentaoxacyclopentadecane-2-methanol;2-Hydroxymethyl-15-crown-5;1,4,7,10,13-Pentaoxacyclopentadecan-2-ylmethanol;1,4,7,10,13-Pentaoxacyclopentadec-2-ylmethanol",
    "duplicated_cas_no": "156038-47-0",
    "SMILES": "C(O)C1COCCOCCOCCOCCO1",
    "meta_data": {
        "InChI": "InChI=1S/C11H22O6/c12-9-11-10-16-6-5-14-2-1-13-3-4-15-7-8-17-11/h11-12H,1-10H2",
        "InChIKey": null,
        "Canonical SMILES": "OCC1OCCOCCOCCOCCOC1",
        "Molecular Formula": "C<sub>11</sub>H<sub>22</sub>O<sub>6</sub>",
        "Molecular Mass": "250.29",
        "Boiling Point": "113 °C @ Press: 0.01 Torr"
    }
}