{
    "cas_no": "1083-48-3",
    "key_name": "4-(4-Nitrobenzyl)pyridine",
    "cn_name": "4-(4-硝基苄基)吡啶;4-(4-硝基苯甲基)吡啶;",
    "alternate_name": "Pyridine, 4-[(4-nitrophenyl)methyl]-;Pyridine, 4-(<em>p</em>-nitrobenzyl)-;4-[(4-Nitrophenyl)methyl]pyridine;γ-(<em>p</em>-Nitrobenzyl)pyridine;4-(<em>p</em>-Nitrobenzyl)pyridine;4-(4-Nitrobenzyl)pyridine;γ-(4-Nitrobenzyl)pyridine;4-(4′-Nitrobenzyl)pyridine;NSC 83591",
    "duplicated_cas_no": "",
    "SMILES": "C(C1=CC=C(N(=O)=O)C=C1)C=2C=CN=CC2",
    "meta_data": {
        "InChI": "InChI=1S/C12H10N2O2/c15-14(16)12-3-1-10(2-4-12)9-11-5-7-13-8-6-11/h1-8H,9H2",
        "InChIKey": null,
        "Canonical SMILES": "O=N(=O)C1=CC=C(C=C1)CC=2C=CN=CC2",
        "Molecular Formula": "C<sub>12</sub>H<sub>10</sub>N<sub>2</sub>O<sub>2</sub>",
        "Molecular Mass": "214.22",
        "Melting Point": "70-72 °C"
    }
}