{
    "cas_no": "34985-37-0",
    "key_name": "(<em>S</em>)-(-)-2-Methylbutylamine",
    "cn_name": "S(-)-2-甲基-1-丙胺;(S)-(-)-2-甲基丁胺;",
    "alternate_name": "1-Butanamine, 2-methyl-, (2<em>S</em>)-;1-Butanamine, 2-methyl-, (<em>S</em>)-;(2<em>S</em>)-2-Methyl-1-butanamine;(<em>S</em>)-(-)-2-Methylbutylamine;(<em>S</em>)-2-Methyl-1-butanamine;(<em>S</em>)-1-Amino-2-methylbutane;(<em>S</em>)-2-Methylbutylamine;(2<em>S</em>)-2-Methylbutylamine;(<em>S</em>)-2-Methyl-1-butylamine;(<em>S</em>)-(-)-2-Methyl-1-butylamine;(2S)-2-Methylbutan-1-amine",
    "duplicated_cas_no": "20626-52-2",
    "SMILES": "[C@H](CC)(CN)C",
    "meta_data": {
        "InChI": "InChI=1S/C5H13N/c1-3-5(2)4-6/h5H,3-4,6H2,1-2H3/t5-/m0/s1",
        "InChIKey": null,
        "Canonical SMILES": "NCC(C)CC",
        "Molecular Formula": "C<sub>5</sub>H<sub>13</sub>N",
        "Molecular Mass": "87.16",
        "Boiling Point": "95 °C",
        "Density": "0.7490 g/cm³"
    }
}