{
    "cas_no": "543-29-3",
    "key_name": "Isobutyl nitrate",
    "cn_name": "硝酸异丁酯;硝酸异丁酯;",
    "alternate_name": "Nitric acid, 2-methylpropyl ester;Nitric acid, isobutyl ester;Isobutyl nitrate;2-Methyl-1-propyl nitrate;2-Methylpropyl nitrate",
    "duplicated_cas_no": "",
    "SMILES": "C(ON(=O)=O)C(C)C",
    "meta_data": {
        "InChI": "InChI=1S/C4H9NO3/c1-4(2)3-8-5(6)7/h4H,3H2,1-2H3",
        "InChIKey": null,
        "Canonical SMILES": "O=N(=O)OCC(C)C",
        "Molecular Formula": "C<sub>4</sub>H<sub>9</sub>NO<sub>3</sub>",
        "Molecular Mass": "119.12",
        "Boiling Point": "123.4 °C",
        "Melting Point": "&lt;0 °C"
    }
}