{
    "cas_no": "10442-39-4",
    "key_name": "Tetrabutylammonium cyanide",
    "cn_name": null,
    "alternate_name": "1-Butanaminium, <em>N</em>,<em>N</em>,<em>N</em>-tributyl-, cyanide (1:1);Ammonium, tetrabutyl-, cyanide;1-Butanaminium, <em>N</em>,<em>N</em>,<em>N</em>-tributyl-, cyanide;Tetrabutylammonium cyanide",
    "duplicated_cas_no": "71887-25-7",
    "SMILES": "[N+](CCCC)(CCCC)(CCCC)CCCC.[C-]#N",
    "meta_data": {
        "InChI": "InChI=1S/C16H36N.CN/c1-5-9-13-17(14-10-6-2,15-11-7-3)16-12-8-4;1-2/h5-16H2,1-4H3;/q+1;-1",
        "InChIKey": null,
        "Canonical SMILES": "[C-]#N.CCCC[N+](CCCC)(CCCC)CCCC",
        "Molecular Formula": "C<sub>16</sub>H<sub>36</sub>N.CN",
        "Molecular Mass": "",
        "Melting Point": "188 °C"
    }
}