{
    "cas_no": "139481-59-7",
    "key_name": "Candesartan",
    "cn_name": "坎地沙坦;2-乙氧基-3-[[4-[2-(1H-四唑-5-基)苯基]苯基]甲基]-3H-苯并咪唑-4-羧酸;",
    "alternate_name": "1<em>H</em>-Benzimidazole-7-carboxylic acid, 2-ethoxy-1-[[2′-(2<em>H</em>-tetrazol-5-yl)[1,1′-biphenyl]-4-yl]methyl]-;1<em>H</em>-Benzimidazole-7-carboxylic acid, 2-ethoxy-1-[[2′-(1<em>H</em>-tetrazol-5-yl)[1,1′-biphenyl]-4-yl]methyl]-;2-Ethoxy-1-[[2′-(2<em>H</em>-tetrazol-5-yl)[1,1′-biphenyl]-4-yl]methyl]-1<em>H</em>-benzimidazole-7-carboxylic acid;CV 11974;Candesartan;Candesartan M1;2-Ethoxy-1-[[2′-(1<em>H</em>-tetrazol-5-yl)biphenyl-4-yl]methyl]-1<em>H</em>-benzimidazole-7-carboxylic acid;2-Ethoxy-1-[[2′-(1<em>H</em>-tetrazol-5-yl)-1,1′-biphenyl-4-yl]methyl]-7-benzimidazolecarboxylic acid;2-Ethoxy-1-[[2′-(1<em>H</em>-tetrazol-5-yl)biphenyl-4-yl]methyl]benzimidazole-7-carboxylic acid;3-[[2′-(1<em>H</em>-Tetrazol-5-yl)biphenyl-4-yl]methyl]-2-ethoxy-3<em>H</em>-benzimidazole-4-carboxylic acid;1-((2′-(1<em>H</em>-Tetrazol-5-yl)-[1,1′-biphenyl]-4-yl)methyl)-2-ethoxy-1<em>H</em>-benzo[<em>d</em>]imidazole-7-carboxylic acid;2-Ethoxy-1-([4-[2-(1<em>H</em>-1,2,3,4-tetrazol-5-yl)phenyl]phenyl]methyl)-1<em>H</em>-1,3-benzodiazole-7-carboxylic acid",
    "duplicated_cas_no": "875515-04-1",
    "SMILES": "C(N1C=2C(N=C1OCC)=CC=CC2C(O)=O)C3=CC=C(C=C3)C4=C(C=CC=C4)C=5NN=NN5",
    "meta_data": {
        "InChI": "InChI=1S/C24H20N6O3/c1-2-33-24-25-20-9-5-8-19(23(31)32)21(20)30(24)14-15-10-12-16(13-11-15)17-6-3-4-7-18(17)22-26-28-29-27-22/h3-13H,2,14H2,1H3,(H,31,32)(H,26,27,28,29)",
        "InChIKey": null,
        "Canonical SMILES": "O=C(O)C1=CC=CC=2N=C(OCC)N(C21)CC=3C=CC(=CC3)C=4C=CC=CC4C5=NN=NN5",
        "Molecular Formula": "C<sub>24</sub>H<sub>20</sub>N<sub>6</sub>O<sub>3</sub>",
        "Molecular Mass": "440.45",
        "Melting Point": "183-185 °C"
    }
}