{
    "cas_no": "51384-51-1",
    "key_name": "Metoprolol",
    "cn_name": "美托洛尔;1-[4-(2-甲氧基乙基)苯氧基]-3-(异丙基氨基)-2-丙醇;",
    "alternate_name": "2-Propanol, 1-[4-(2-methoxyethyl)phenoxy]-3-[(1-methylethyl)amino]-;1-[4-(2-Methoxyethyl)phenoxy]-3-[(1-methylethyl)amino]-2-propanol;1-Isopropylamino-3-[4-(2-methoxyethyl)phenoxy]-2-propanol;Metoprolol;CGP 2175;(±)-Metoprolol;<em>dl</em>-Metoprolol;(<em>RS</em>)-Metoprolol;Spesicor;Beatrolol;Seroken;Meijoprolol;Toprol;Metocard;Vazocardin;[2-Hydroxy-3-[4-(2-methoxyethyl)phenoxy]propyl](propan-2-yl)amine;1-[4-(2-Methoxyethyl)phenoxy]-3-(propan-2-ylamino)propan-2-ol;MeSH ID: D008790",
    "duplicated_cas_no": "37350-58-6;54163-88-1",
    "SMILES": "O(CC(CNC(C)C)O)C1=CC=C(CCOC)C=C1",
    "meta_data": {
        "InChI": "InChI=1S/C15H25NO3/c1-12(2)16-10-14(17)11-19-15-6-4-13(5-7-15)8-9-18-3/h4-7,12,14,16-17H,8-11H2,1-3H3",
        "InChIKey": null,
        "Canonical SMILES": "OC(COC1=CC=C(C=C1)CCOC)CNC(C)C",
        "Molecular Formula": "C<sub>15</sub>H<sub>25</sub>NO<sub>3</sub>",
        "Molecular Mass": "267.36",
        "Melting Point": "35 °C"
    }
}