{
    "cas_no": "17672-21-8",
    "key_name": "Benzoic acid, 2-amino-3-hydroxy-, methyl ester",
    "cn_name": null,
    "alternate_name": "Benzoic acid, 2-amino-3-hydroxy-, methyl ester;Anthranilic acid, 3-hydroxy-, methyl ester;Methyl 3-hydroxyanthranilate;Methyl 2-amino-3-hydroxybenzoate;2-Amino-3-hydroxybenzoic acid methyl ester",
    "duplicated_cas_no": "",
    "SMILES": "C(OC)(=O)C1=C(N)C(O)=CC=C1",
    "meta_data": {
        "InChI": "InChI=1S/C8H9NO3/c1-12-8(11)5-3-2-4-6(10)7(5)9/h2-4,10H,9H2,1H3",
        "InChIKey": null,
        "Canonical SMILES": "O=C(OC)C=1C=CC=C(O)C1N",
        "Molecular Formula": "C<sub>8</sub>H<sub>9</sub>NO<sub>3</sub>",
        "Molecular Mass": "167.16",
        "Melting Point": "93 °C"
    }
}