{
    "cas_no": "133-32-4",
    "key_name": "Indole-3-butyric acid",
    "cn_name": "3-吲哚丁酸;",
    "alternate_name": "1<em>H</em>-Indole-3-butanoic acid;Indole-3-butyric acid;IBA;γ-(Indol-3-yl)butyric acid;3-Indolylbutyric acid;3-Indolyl-γ-butyric acid;4-(Indol-3-yl)butyric acid;γ-(Indole-3)-butyric acid;Indolebutyric acid;1<em>H</em>-Indole-3-butyric acid;Indole-3-butanoic acid;Hormodin;Seradix;β-IBA;β-Indolebutyric acid;Seradix 2;Hormex;β-Indolylbutyric acid;Seradix B 3;Seradix B 2;Seradix 3;4-(3-Indolyl)butanoic acid;Oxyberon;[3-(3-Indolyl)propyl]carboxylic acid;Stim-Root;4-(1<em>H</em>-Indol-3-yl)butanoic acid;4-(1<em>H</em>-Indol-3-yl)butyric acid;NSC 3130;Clonex (rooting hormone);Clonex;Rootex;Kornevin",
    "duplicated_cas_no": "111150-79-9;65216-51-5",
    "SMILES": "C(CCC(O)=O)C=1C=2C(NC1)=CC=CC2",
    "meta_data": {
        "InChI": "InChI=1S/C12H13NO2/c14-12(15)7-3-4-9-8-13-11-6-2-1-5-10(9)11/h1-2,5-6,8,13H,3-4,7H2,(H,14,15)",
        "InChIKey": null,
        "Canonical SMILES": "O=C(O)CCCC1=CNC=2C=CC=CC21",
        "Molecular Formula": "C<sub>12</sub>H<sub>13</sub>NO<sub>2</sub>",
        "Molecular Mass": "203.24",
        "Melting Point": "124.5 °C"
    }
}