{
    "cas_no": "23046-03-9",
    "key_name": "5,6-Dimethoxybenzo[<em>b</em>]thiophene-2-carboxylic acid",
    "cn_name": null,
    "alternate_name": "Benzo[<em>b</em>]thiophene-2-carboxylic acid, 5,6-dimethoxy-;5,6-Dimethoxybenzo[<em>b</em>]thiophene-2-carboxylic acid;NSC 108922",
    "duplicated_cas_no": "",
    "SMILES": "O(C)C=1C=C2C(=CC1OC)SC(C(O)=O)=C2",
    "meta_data": {
        "InChI": "InChI=1S/C11H10O4S/c1-14-7-3-6-4-10(11(12)13)16-9(6)5-8(7)15-2/h3-5H,1-2H3,(H,12,13)",
        "InChIKey": null,
        "Canonical SMILES": "O=C(O)C=1SC=2C=C(OC)C(OC)=CC2C1",
        "Molecular Formula": "C<sub>11</sub>H<sub>10</sub>O<sub>4</sub>S",
        "Molecular Mass": "238.26",
        "Melting Point": "255-257 °C"
    }
}