{
    "cas_no": "56658-04-9",
    "key_name": "2-Bromo-5-methoxybenzoyl chloride",
    "cn_name": "2-溴-5-甲氧基苯-1-甲酰氯;",
    "alternate_name": "Benzoyl chloride, 2-bromo-5-methoxy-;2-Bromo-5-methoxybenzoyl chloride;2-Bromo-5-methoxybenzene-1-carbonyl chloride",
    "duplicated_cas_no": "",
    "SMILES": "C(Cl)(=O)C1=CC(OC)=CC=C1Br",
    "meta_data": {
        "InChI": "InChI=1S/C8H6BrClO2/c1-12-5-2-3-7(9)6(4-5)8(10)11/h2-4H,1H3",
        "InChIKey": null,
        "Canonical SMILES": "O=C(Cl)C1=CC(OC)=CC=C1Br",
        "Molecular Formula": "C<sub>8</sub>H<sub>6</sub>BrClO<sub>2</sub>",
        "Molecular Mass": "249.49",
        "Boiling Point": "156-158 °C @ Press: 13 Torr"
    }
}