{
    "cas_no": "1081-75-0",
    "key_name": "1,3-Diphenylpropane",
    "cn_name": "1,3-二苯丙烷;",
    "alternate_name": "Benzene, 1,1′-(1,3-propanediyl)bis-;Propane, 1,3-diphenyl-;1,1′-(1,3-Propanediyl)bis[benzene];1,3-Diphenylpropane;NSC 54371;3-Phenyl-propyl-benzene;3-Phenylpropylbenzene",
    "duplicated_cas_no": "",
    "SMILES": "C(CCC1=CC=CC=C1)C2=CC=CC=C2",
    "meta_data": {
        "InChI": "InChI=1S/C15H16/c1-3-8-14(9-4-1)12-7-13-15-10-5-2-6-11-15/h1-6,8-11H,7,12-13H2",
        "InChIKey": null,
        "Canonical SMILES": "C=1C=CC(=CC1)CCCC=2C=CC=CC2",
        "Molecular Formula": "C<sub>15</sub>H<sub>16</sub>",
        "Molecular Mass": "196.29",
        "Boiling Point": "300.3 °C",
        "Melting Point": "6 °C",
        "Density": "0.9982 g/cm³ @ Temp: 17.6 °C"
    }
}