{
    "cas_no": "76-63-1",
    "key_name": "Triphenyl-2-propen-1-ylstannane",
    "cn_name": "丙烯基三苯基锡;",
    "alternate_name": "Stannane, triphenyl-2-propen-1-yl-;Stannane, allyltriphenyl-;Stannane, triphenyl-2-propenyl-;Tin, allyltriphenyl-;Triphenyl-2-propen-1-ylstannane;Dowco 187;Allyltriphenyltin;ENT 50909;Allyltriphenylstannane;3-(Triphenylstannyl)-1-propene;NSC 227360;NSC 99168;Triphenyl(2-propenyl)stannane",
    "duplicated_cas_no": "",
    "SMILES": "[Sn](CC=C)(C1=CC=CC=C1)(C2=CC=CC=C2)C3=CC=CC=C3",
    "meta_data": {
        "InChI": "InChI=1S/3C6H5.C3H5.Sn/c3*1-2-4-6-5-3-1;1-3-2;/h3*1-5H;3H,1-2H2;",
        "InChIKey": null,
        "Canonical SMILES": "C=CC[Sn](C=1C=CC=CC1)(C=2C=CC=CC2)C=3C=CC=CC3",
        "Molecular Formula": "C<sub>21</sub>H<sub>20</sub>Sn",
        "Molecular Mass": "391.09",
        "Melting Point": "71-73 °C"
    }
}