{
    "cas_no": "765-01-5",
    "key_name": "10-Hydroxy-2-decenoic acid",
    "cn_name": "10-羟基-2-癸烯酸;",
    "alternate_name": "2-Decenoic acid, 10-hydroxy-;10-Hydroxy-2-decenoic acid;10-Hydroxy-Δ<sup>2</sup>-decenoic acid",
    "duplicated_cas_no": "",
    "SMILES": "C(CCCCCO)CC=CC(O)=O",
    "meta_data": {
        "InChI": "InChI=1S/C10H18O3/c11-9-7-5-3-1-2-4-6-8-10(12)13/h6,8,11H,1-5,7,9H2,(H,12,13)",
        "InChIKey": null,
        "Canonical SMILES": "O=C(O)C=CCCCCCCCO",
        "Molecular Formula": "C<sub>10</sub>H<sub>18</sub>O<sub>3</sub>",
        "Molecular Mass": "186.25",
        "Melting Point": "55 °C"
    }
}