{
    "cas_no": "68124-04-9",
    "key_name": "Paris VII",
    "cn_name": null,
    "alternate_name": "β-<span class=\"text-smallcaps\">D</smallcap>-Glucopyranoside, (3β,25<em>R</em>)-17-hydroxyspirost-5-en-3-yl <em>O</em>-6-deoxy-α-<smallcap>L</smallcap>-mannopyranosyl-(1→2)-<em>O</em>-[<em>O</em>-6-deoxy-α-<smallcap>L</smallcap>-mannopyranosyl-(1→4)-6-deoxy-α-<smallcap>L</span>-mannopyranosyl-(1→4)]-;Spirostan, β-<span class=\"text-smallcaps\">D</span>-glucopyranoside deriv.;Spiro[8<em>H</em>-naphth[2′,1′:4,5]indeno[2,1-<em>b</em>]furan-8,2′-[2<em>H</em>]pyran], β-<span class=\"text-smallcaps\">D</span>-glucopyranoside deriv.;(3β,25<em>R</em>)-17-Hydroxyspirost-5-en-3-yl <em>O</em>-6-deoxy-α-<span class=\"text-smallcaps\">L</smallcap>-mannopyranosyl-(1→2)-<em>O</em>-[<em>O</em>-6-deoxy-α-<smallcap>L</smallcap>-mannopyranosyl-(1→4)-6-deoxy-α-<smallcap>L</smallcap>-mannopyranosyl-(1→4)]-β-<smallcap>D</span>-glucopyranoside;Pennogenin 3-<em>O</em>-rhamnosylchacotrioside;Pennogenin 3-<em>O</em>-α-<span class=\"text-smallcaps\">L</smallcap>-rhamnopyranosyl-(1→4)-α-<smallcap>L</smallcap>-rhamnopyranosyl-(1→4)-[α-<smallcap>L</smallcap>-rhamnopyranosyl-(1→2)]-β-<smallcap>D</span>-glucopyranoside;Dioscinin;Paris VII;Saponin Tg;Pennogenin 3-<em>O</em>-α-<span class=\"text-smallcaps\">L</smallcap>-rhamnopyranosyl-(1→2)-[α-<smallcap>L</smallcap>-rhamnopyranosyl-(1→4)-α-<smallcap>L</smallcap>-rhamnopyranosyl-(1→4)]-β-<smallcap>D</span>-glucopyranoside;Chonglouoside VII;17-Hydroxyparis II;Paris saponin VII;(25<em>R</em>)-17α-Hydroxyspirost-5-en-3β-yl <em>O</em>-α-<span class=\"text-smallcaps\">L</smallcap>-rhamnopyranosyl-(1→2)-<em>O</em>-[<em>O</em>-α-<smallcap>L</smallcap>-rhamnopyranosyl-(1→4)-α-<smallcap>L</smallcap>-rhamnopyranosyl-(1→4)-β-<smallcap>D</span>-glucopyranoside;Pennogenin-3-<em>O</em>-α-<span class=\"text-smallcaps\">L</smallcap>-rhamnopyranosyl-(1→4)-<em>O</em>-α-<smallcap>L</smallcap>-rhamnopyranosyl-(1→4)-<em>O</em>-[α-<smallcap>L</smallcap>-rhamnopyranosyl-(1→2)]-<em>O</em>-β-<smallcap>D</span>-glucopyranoside;Pennogenin-3-<em>O</em>-α-<span class=\"text-smallcaps\">L</smallcap>-rhamnopyranosyl(1→4)-α-<smallcap>L</smallcap>-rhamnopyranosyl(1→4)-[α-<smallcap>L</smallcap>-rhamnopyranosyl(1→2)]-β-<smallcap>D</span>-glucoside",
    "duplicated_cas_no": "11048-77-4;55916-45-5;1427449-46-4",
    "SMILES": "O[C@@]12[C@]3(C)[C@@](C[C@@]1(O[C@@]4([C@H]2C)CC[C@@H](C)CO4)[H])([C@]5([C@](CC3)([C@]6(C)C(=CC5)C[C@@H](O[C@H]7[C@H](O[C@H]8[C@H](O)[C@H](O)[C@@H](O)[C@H](C)O8)[C@@H](O)[C@H](O[C@H]9[C@H](O)[C@H](O)[C@@H](O[C@H]%10[C@H](O)[C@H](O)[C@@H](O)[C@H](C)O%10)[C@H](C)O9)[C@@H](CO)O7)CC6)[H])[H])[H]",
    "meta_data": {
        "InChI": "InChI=1S/C51H82O21/c1-20-10-15-50(63-19-20)24(5)51(62)31(72-50)17-29-27-9-8-25-16-26(11-13-48(25,6)28(27)12-14-49(29,51)7)67-47-43(71-45-38(59)35(56)33(54)22(3)65-45)40(61)42(30(18-52)68-47)70-46-39(60)36(57)41(23(4)66-46)69-44-37(58)34(55)32(53)21(2)64-44/h8,20-24,26-47,52-62H,9-19H2,1-7H3/t20-,21+,22+,23+,24-,26+,27-,28+,29+,30-,31+,32+,33+,34-,35-,36+,37-,38-,39-,40+,41+,42-,43-,44+,45+,46+,47-,48+,49+,50-,51-/m1/s1",
        "InChIKey": null,
        "Canonical SMILES": "OCC1OC(OC2CC3=CCC4C(CCC5(C)C4CC6OC7(OCC(C)CC7)C(C)C65O)C3(C)CC2)C(OC8OC(C)C(O)C(O)C8O)C(O)C1OC9OC(C)C(OC%10OC(C)C(O)C(O)C%10O)C(O)C9O",
        "Molecular Formula": "C<sub>51</sub>H<sub>82</sub>O<sub>21</sub>",
        "Molecular Mass": "1031.18",
        "Melting Point": "243-245 °C (decomp)"
    }
}