{
    "cas_no": "26100-51-6",
    "key_name": "(±)-Poly(lactic acid)",
    "cn_name": null,
    "alternate_name": "Propanoic acid, 2-hydroxy-, homopolymer;Lactic acid, polymers;Lactic acid, polyesters;Poly(lactic acid);Lactic acid polymer;Lactic acid homopolymer;(±)-Lactic acid homopolymer;(±)-2-Hydroxypropanoic acid homopolymer;Poly(<span class=\"text-smallcaps\">D</smallcap><smallcap>L</span>-lactic acid);Poly(<em>dl</em>-lactate);(±)-Poly(lactic acid);<span class=\"text-smallcaps\">DL</span>-Polylactic acid;Poly(<em>dl</em>-lactic acid);<span class=\"text-smallcaps\">D</smallcap><smallcap>L</span>-Lactic acid polymer;<span class=\"text-smallcaps\">DL</span>-Lactic acid homopolymer;Polylactic acid;NeoOrtho;D,L-polylactic acid;2-Hydroxypropanoic acid homopolymer;Polylactate;Lactates, polylactates;Polylactates;PLA",
    "duplicated_cas_no": "31587-11-8;947236-64-8;1104201-86-6;1148011-07-7;1384255-85-9",
    "SMILES": "C(C(O)=O)(C)O",
    "meta_data": {
        "InChI": "InChI=1S/C3H6O3/c1-2(4)3(5)6/h2,4H,1H3,(H,5,6)",
        "InChIKey": null,
        "Canonical SMILES": "O=C(O)C(O)C",
        "Molecular Formula": "(C<sub>3</sub>H<sub>6</sub>O<sub>3</sub>)<sub>x</sub>",
        "Molecular Mass": "",
        "Melting Point": "173 °C",
        "Density": "1.21 g/cm³"
    }
}