{
    "cas_no": "5272-86-6",
    "key_name": "3,5-Dimethyl-1<em>H</em>-pyrazol-4-amine",
    "cn_name": null,
    "alternate_name": "1<em>H</em>-Pyrazol-4-amine, 3,5-dimethyl-;Pyrazole, 4-amino-3,5-dimethyl-;3,5-Dimethyl-1<em>H</em>-pyrazol-4-amine;4-Amino-3,5-dimethylpyrazole;3,5-Dimethyl-4-aminopyrazole;3,5-Dimethyl-4-pyrazolamine;4-Amino-3,5-dimethyl-1<em>H</em>-pyrazole;3,5-Dimethyl-1<em>H</em>-pyrazol-4-ylamine",
    "duplicated_cas_no": "",
    "SMILES": "NC=1C(C)=NNC1C",
    "meta_data": {
        "InChI": "InChI=1S/C5H9N3/c1-3-5(6)4(2)8-7-3/h6H2,1-2H3,(H,7,8)",
        "InChIKey": null,
        "Canonical SMILES": "N=1NC(=C(N)C1C)C",
        "Molecular Formula": "C<sub>5</sub>H<sub>9</sub>N<sub>3</sub>",
        "Molecular Mass": "111.15",
        "Melting Point": "204-205 °C"
    }
}