{
    "cas_no": "19692-45-6",
    "key_name": "4-<em>tert</em>-Butylbenzyl chloride",
    "cn_name": "对叔丁基氯苄;对叔丁基氯化苄;",
    "alternate_name": "Benzene, 1-(chloromethyl)-4-(1,1-dimethylethyl)-;Toluene, <em>p</em>-<em>tert</em>-butyl-α-chloro-;1-(Chloromethyl)-4-(1,1-dimethylethyl)benzene;4-<em>tert</em>-Butylbenzyl chloride;<em>p</em>-<em>tert</em>-Butylbenzyl chloride;4-(1,1-Dimethylethyl)benzyl chloride;1-Chloromethyl-4-<em>tert</em>-butylbenzene;1-(1,1-Dimethylethyl)-4-chloromethylbenzene;4-<em>t</em>-Butylbenzyl chloride;<em>p</em>-(Chloromethyl)-<em>tert</em>-butylbenzene;1-<em>tert</em>-Butyl-4-(chloromethyl)benzene",
    "duplicated_cas_no": "",
    "SMILES": "C(C)(C)(C)C1=CC=C(CCl)C=C1",
    "meta_data": {
        "InChI": "InChI=1S/C11H15Cl/c1-11(2,3)10-6-4-9(8-12)5-7-10/h4-7H,8H2,1-3H3",
        "InChIKey": null,
        "Canonical SMILES": "ClCC1=CC=C(C=C1)C(C)(C)C",
        "Molecular Formula": "C<sub>11</sub>H<sub>15</sub>Cl",
        "Molecular Mass": "182.69",
        "Boiling Point": "115 °C @ Press: 16 Torr",
        "Melting Point": "-18 °C"
    }
}