{
    "cas_no": "6065-82-3",
    "key_name": "Ethyl diethoxyacetate",
    "cn_name": "2,2-二乙氧基乙酸乙酯;",
    "alternate_name": "Acetic acid, 2,2-diethoxy-, ethyl ester;Glyoxylic acid, ethyl ester, 2-(diethyl acetal);Glyoxylic acid, ethyl ester, diethyl acetal;Acetic acid, diethoxy-, ethyl ester;Ethyl 2,2-diethoxyacetate;Ethyl diethoxyacetate;Ethyl 2,2-bis(ethyloxy)acetate;2,2-Di(ethoxy)acetic acid ethyl ester",
    "duplicated_cas_no": "",
    "SMILES": "C(C(OCC)=O)(OCC)OCC",
    "meta_data": {
        "InChI": "InChI=1S/C8H16O4/c1-4-10-7(9)8(11-5-2)12-6-3/h8H,4-6H2,1-3H3",
        "InChIKey": null,
        "Canonical SMILES": "O=C(OCC)C(OCC)OCC",
        "Molecular Formula": "C<sub>8</sub>H<sub>16</sub>O<sub>4</sub>",
        "Molecular Mass": "176.21",
        "Boiling Point": "199 °C"
    }
}