{
    "cas_no": "1806-23-1",
    "key_name": "(2-Chlorophenyl)(4-fluorophenyl)methanone",
    "cn_name": "2-氯-4\"-氟二苯甲酮;",
    "alternate_name": "Methanone, (2-chlorophenyl)(4-fluorophenyl)-;Benzophenone, 2-chloro-4′-fluoro-;(2-Chlorophenyl)(4-fluorophenyl)methanone;2-Chloro-4′-fluorobenzophenone;2-Chlorophenyl 4-fluorophenyl ketone;NSC 141026",
    "duplicated_cas_no": "",
    "SMILES": "C(=O)(C1=C(Cl)C=CC=C1)C2=CC=C(F)C=C2",
    "meta_data": {
        "InChI": "InChI=1S/C13H8ClFO/c14-12-4-2-1-3-11(12)13(16)9-5-7-10(15)8-6-9/h1-8H",
        "InChIKey": null,
        "Canonical SMILES": "O=C(C1=CC=C(F)C=C1)C=2C=CC=CC2Cl",
        "Molecular Formula": "C<sub>13</sub>H<sub>8</sub>ClFO",
        "Molecular Mass": "234.65",
        "Melting Point": "58-59 °C"
    }
}