{
    "cas_no": "89466-17-1",
    "key_name": "6-Bromo-5-methyl-2-pyridinamine",
    "cn_name": null,
    "alternate_name": "2-Pyridinamine, 6-bromo-5-methyl-;3-Picoline, 6-amino-2-bromo-;6-Bromo-5-methyl-2-pyridinamine",
    "duplicated_cas_no": "",
    "SMILES": "BrC1=C(C)C=CC(N)=N1",
    "meta_data": {
        "InChI": "InChI=1S/C6H7BrN2/c1-4-2-3-5(8)9-6(4)7/h2-3H,1H3,(H2,8,9)",
        "InChIKey": null,
        "Canonical SMILES": "BrC=1N=C(N)C=CC1C",
        "Molecular Formula": "C<sub>6</sub>H<sub>7</sub>BrN<sub>2</sub>",
        "Molecular Mass": "187.04",
        "Melting Point": "96-98 °C"
    }
}