{
    "cas_no": "85-46-1",
    "key_name": "1-Naphthalenesulfonyl chloride",
    "cn_name": "1-萘磺酰氯;萘-1-磺酰氯;",
    "alternate_name": "1-Naphthalenesulfonyl chloride;α-Naphthalenesulfochloride;α-Naphthalenesulfonyl chloride;1-Naphthylsulfonyl chloride;1-Chlorosulfonylnaphthalene;NSC 74636;Naphthyl-sulphonyl chloride;Naphthalen-1-sulfonyl chloride",
    "duplicated_cas_no": "",
    "SMILES": "S(Cl)(=O)(=O)C=1C2=C(C=CC1)C=CC=C2",
    "meta_data": {
        "InChI": "InChI=1S/C10H7ClO2S/c11-14(12,13)10-7-3-5-8-4-1-2-6-9(8)10/h1-7H",
        "InChIKey": null,
        "Canonical SMILES": "O=S(=O)(Cl)C1=CC=CC=2C=CC=CC21",
        "Molecular Formula": "C<sub>10</sub>H<sub>7</sub>ClO<sub>2</sub>S",
        "Molecular Mass": "226.68",
        "Melting Point": "68 °C"
    }
}