{
    "cas_no": "13826-83-0",
    "key_name": "Ammonium tetrafluoroborate",
    "cn_name": null,
    "alternate_name": "Borate(1-), tetrafluoro-, ammonium (1:1);Borate(1-), tetrafluoro-, ammonium;Ammonium fluoborate;Ammonium tetrafluoroborate;Ammonium fluoroborate;Ammonium tetrafluoroborate(1-);Ammonium fluoroborate (NH<sub>4</sub>BF<sub>4</sub>);Ammonium tetrafluoroborate (NH<sub>4</sub>BF<sub>4</sub>);Ammonium borofluoride (NH<sub>4</sub>BF<sub>4</sub>)",
    "duplicated_cas_no": "42590-03-4;954128-25-7",
    "SMILES": "[B+3]([F-])([F-])([F-])[F-].[NH4+]",
    "meta_data": {
        "InChI": "InChI=1S/BF4.H3N/c2-1(3,4)5;/h;1H3/q-1;/p+1",
        "InChIKey": null,
        "Canonical SMILES": "[F-][B+3]([F-])([F-])[F-].[NH4+]",
        "Molecular Formula": "BF<sub>4</sub>.H<sub>4</sub>N",
        "Molecular Mass": "",
        "Melting Point": "230 °C",
        "Density": "1.871 g/cm³ @ Temp: 15 °C"
    }
}