{
    "cas_no": "55686-94-7",
    "key_name": "2-Chloro-7-nitroquinoxaline",
    "cn_name": null,
    "alternate_name": "Quinoxaline, 2-chloro-7-nitro-;2-Chloro-7-nitroquinoxaline",
    "duplicated_cas_no": "",
    "SMILES": "N(=O)(=O)C1=CC2=C(C=C1)N=CC(Cl)=N2",
    "meta_data": {
        "InChI": "InChI=1S/C8H4ClN3O2/c9-8-4-10-6-2-1-5(12(13)14)3-7(6)11-8/h1-4H",
        "InChIKey": null,
        "Canonical SMILES": "O=N(=O)C1=CC=C2N=CC(Cl)=NC2=C1",
        "Molecular Formula": "C<sub>8</sub>H<sub>4</sub>ClN<sub>3</sub>O<sub>2</sub>",
        "Molecular Mass": "209.59",
        "Melting Point": "188 °C"
    }
}