{
    "cas_no": "1121-58-0",
    "key_name": "4-(Methylamino)pyridine",
    "cn_name": "4-甲氨基吡啶;",
    "alternate_name": "4-Pyridinamine, <em>N</em>-methyl-;Pyridine, 4-(methylamino)-;<em>N</em>-Methyl-4-pyridinamine;4-(Methylamino)pyridine;4-(<em>N</em>-Methylamino)pyridine;<em>N</em>-Methyl-4-aminopyridine;<em>N</em>-(Pyridin-4-yl)-<em>N</em>-methylamine;<em>N</em>-Methylpyridin-4-amine;(Methyl)(pyridin-4-yl)amine",
    "duplicated_cas_no": "",
    "SMILES": "N(C)C=1C=CN=CC1",
    "meta_data": {
        "InChI": "InChI=1S/C6H8N2/c1-7-6-2-4-8-5-3-6/h2-5H,1H3,(H,7,8)",
        "InChIKey": null,
        "Canonical SMILES": "N=1C=CC(=CC1)NC",
        "Molecular Formula": "C<sub>6</sub>H<sub>8</sub>N<sub>2</sub>",
        "Molecular Mass": "108.14",
        "Boiling Point": "103 °C @ Press: 11 Torr",
        "Melting Point": "115-118 °C"
    }
}