{
    "cas_no": "6267-34-1",
    "key_name": "2-Bromo-5-methoxy-1,3-dimethylbenzene",
    "cn_name": "4-溴-3,5-二甲基苯甲醚;",
    "alternate_name": "Benzene, 2-bromo-5-methoxy-1,3-dimethyl-;Anisole, 4-bromo-3,5-dimethyl-;2-Bromo-5-methoxy-1,3-dimethylbenzene;4-Bromo-3,5-dimethylanisole;3,5-Dimethyl-4-bromoanisole;4-Methoxy-2,6-dimethylbromobenzene;NSC 37991;4-Bromo-1-methoxy-3,5-dimethylbenzene",
    "duplicated_cas_no": "",
    "SMILES": "O(C)C1=CC(C)=C(Br)C(C)=C1",
    "meta_data": {
        "InChI": "InChI=1S/C9H11BrO/c1-6-4-8(11-3)5-7(2)9(6)10/h4-5H,1-3H3",
        "InChIKey": null,
        "Canonical SMILES": "BrC=1C(=CC(OC)=CC1C)C",
        "Molecular Formula": "C<sub>9</sub>H<sub>11</sub>BrO",
        "Molecular Mass": "215.09",
        "Boiling Point": "137-139 °C @ Press: 20 Torr",
        "Melting Point": "24-25 °C"
    }
}