{
    "cas_no": "2789-92-6",
    "key_name": "3,5-Dichloroanthranilic acid",
    "cn_name": "2-氨基-3,5-二氯苯甲酸;",
    "alternate_name": "Benzoic acid, 2-amino-3,5-dichloro-;Anthranilic acid, 3,5-dichloro-;2-Amino-3,5-dichlorobenzoic acid;3,5-Dichloroanthranilic acid;3,5-Dichloro-2-aminobenzoic acid;NSC 1116",
    "duplicated_cas_no": "",
    "SMILES": "C(O)(=O)C1=C(N)C(Cl)=CC(Cl)=C1",
    "meta_data": {
        "InChI": "InChI=1S/C7H5Cl2NO2/c8-3-1-4(7(11)12)6(10)5(9)2-3/h1-2H,10H2,(H,11,12)",
        "InChIKey": null,
        "Canonical SMILES": "O=C(O)C=1C=C(Cl)C=C(Cl)C1N",
        "Molecular Formula": "C<sub>7</sub>H<sub>5</sub>Cl<sub>2</sub>NO<sub>2</sub>",
        "Molecular Mass": "206.03",
        "Melting Point": "223 °C"
    }
}