{
    "cas_no": "640-57-3",
    "key_name": "1-Methyl-4-(phenylsulfonyl)benzene",
    "cn_name": "苯基对甲苯磺酸;",
    "alternate_name": "Benzene, 1-methyl-4-(phenylsulfonyl)-;Sulfone, phenyl <em>p</em>-tolyl;1-Methyl-4-(phenylsulfonyl)benzene;4-Methyldiphenyl sulfone;Phenyl <em>p</em>-tolyl sulfone;<em>p</em>-Tolyl phenyl sulfone;4-Methylphenyl phenyl sulfone;4-(Phenylsulfonyl)toluene;<em>p</em>-Methyldiphenyl sulfone;NSC 2724;NSC 633012;NSC 91059;<em>p</em>-Methylphenyl phenyl sulfone;1-(Benzenesulfonyl)-4-methylbenzene;1-Benzenesulfonyl-4-methyl-benzene",
    "duplicated_cas_no": "",
    "SMILES": "S(=O)(=O)(C1=CC=C(C)C=C1)C2=CC=CC=C2",
    "meta_data": {
        "InChI": "InChI=1S/C13H12O2S/c1-11-7-9-13(10-8-11)16(14,15)12-5-3-2-4-6-12/h2-10H,1H3",
        "InChIKey": null,
        "Canonical SMILES": "O=S(=O)(C=1C=CC=CC1)C2=CC=C(C=C2)C",
        "Molecular Formula": "C<sub>13</sub>H<sub>12</sub>O<sub>2</sub>S",
        "Molecular Mass": "232.30",
        "Melting Point": "125-125.5 °C"
    }
}