{
    "cas_no": "646-07-1",
    "key_name": "Isocaproic acid",
    "cn_name": "4-甲基戊酸;异己酸;",
    "alternate_name": "Pentanoic acid, 4-methyl-;Valeric acid, 4-methyl-;4-Methylpentanoic acid;Isocaproic acid;4-Methylvaleric acid;4,4-Dimethylbutanoic acid;Isobutylacetic acid;Isohexanoic acid;Isohexoic acid;NSC 4126",
    "duplicated_cas_no": "1331-16-4;1866-94-0;38784-67-7",
    "SMILES": "C(CC(O)=O)C(C)C",
    "meta_data": {
        "InChI": "InChI=1S/C6H12O2/c1-5(2)3-4-6(7)8/h5H,3-4H2,1-2H3,(H,7,8)",
        "InChIKey": null,
        "Canonical SMILES": "O=C(O)CCC(C)C",
        "Molecular Formula": "C<sub>6</sub>H<sub>12</sub>O<sub>2</sub>",
        "Molecular Mass": "116.16",
        "Boiling Point": "200.5 °C",
        "Melting Point": "-33 °C",
        "Density": "0.9392 g/cm³ @ Temp: 0 °C"
    }
}