{
    "cas_no": "822-13-9",
    "key_name": "1-Chlorotridecane",
    "cn_name": "1-氯十三烷;",
    "alternate_name": "Tridecane, 1-chloro-;1-Chlorotridecane;Tridecyl chloride",
    "duplicated_cas_no": "",
    "SMILES": "C(CCCCCCCl)CCCCCC",
    "meta_data": {
        "InChI": "InChI=1S/C13H27Cl/c1-2-3-4-5-6-7-8-9-10-11-12-13-14/h2-13H2,1H3",
        "InChIKey": null,
        "Canonical SMILES": "ClCCCCCCCCCCCCC",
        "Molecular Formula": "C<sub>13</sub>H<sub>27</sub>Cl",
        "Molecular Mass": "218.81",
        "Boiling Point": "148-149 °C @ Press: 9.5 Torr",
        "Melting Point": "6 °C"
    }
}