{
    "cas_no": "98081-84-6",
    "key_name": "1<em>H</em>-Indole-2-carboxylic acid, 6-chloro-, methyl ester",
    "cn_name": null,
    "alternate_name": "1<em>H</em>-Indole-2-carboxylic acid, 6-chloro-, methyl ester;6-Chloro-2-methoxycarbonylindole;Methyl 6-chloroindole-2-carboxylate;Methyl 6-chloro-1<em>H</em>-indole-2-carboxylate",
    "duplicated_cas_no": "",
    "SMILES": "C(OC)(=O)C1=CC=2C(N1)=CC(Cl)=CC2",
    "meta_data": {
        "InChI": "InChI=1S/C10H8ClNO2/c1-14-10(13)9-4-6-2-3-7(11)5-8(6)12-9/h2-5,12H,1H3",
        "InChIKey": null,
        "Canonical SMILES": "O=C(OC)C1=CC=2C=CC(Cl)=CC2N1",
        "Molecular Formula": "C<sub>10</sub>H<sub>8</sub>ClNO<sub>2</sub>",
        "Molecular Mass": "209.63",
        "Melting Point": "176.8-178.5 °C"
    }
}