{
    "cas_no": "61434-67-1",
    "key_name": "<em>cis</em>-Resveratrol",
    "cn_name": null,
    "alternate_name": "1,3-Benzenediol, 5-[(1<em>Z</em>)-2-(4-hydroxyphenyl)ethenyl]-;1,3-Benzenediol, 5-[2-(4-hydroxyphenyl)ethenyl]-, (<em>Z</em>)-;5-[(1<em>Z</em>)-2-(4-Hydroxyphenyl)ethenyl]-1,3-benzenediol;<em>cis</em>-Resveratrol;(<em>Z</em>)-Resveratrol",
    "duplicated_cas_no": "",
    "SMILES": "C(=C\\C1=CC=C(O)C=C1)\\C2=CC(O)=CC(O)=C2",
    "meta_data": {
        "InChI": "InChI=1S/C14H12O3/c15-12-5-3-10(4-6-12)1-2-11-7-13(16)9-14(17)8-11/h1-9,15-17H/b2-1-",
        "InChIKey": null,
        "Canonical SMILES": "OC1=CC=C(C=C1)C=CC=2C=C(O)C=C(O)C2",
        "Molecular Formula": "C<sub>14</sub>H<sub>12</sub>O<sub>3</sub>",
        "Molecular Mass": "228.24",
        "Melting Point": "172-174 °C"
    }
}