{
    "cas_no": "5409-45-0",
    "key_name": "Methyl 2-(acetylamino)-5-nitrobenzoate",
    "cn_name": "2-乙酰氨基-5-硝基苯甲酸甲酯;",
    "alternate_name": "Benzoic acid, 2-(acetylamino)-5-nitro-, methyl ester;Anthranilic acid, <em>N</em>-acetyl-5-nitro-, methyl ester;Methyl 2-(acetylamino)-5-nitrobenzoate;NSC 12468;2-Acetylamino-5-nitrobenzoic acid methyl ester",
    "duplicated_cas_no": "",
    "SMILES": "N(C(C)=O)C1=C(C(OC)=O)C=C(N(=O)=O)C=C1",
    "meta_data": {
        "InChI": "InChI=1S/C10H10N2O5/c1-6(13)11-9-4-3-7(12(15)16)5-8(9)10(14)17-2/h3-5H,1-2H3,(H,11,13)",
        "InChIKey": null,
        "Canonical SMILES": "O=C(OC)C1=CC(=CC=C1NC(=O)C)N(=O)=O",
        "Molecular Formula": "C<sub>10</sub>H<sub>10</sub>N<sub>2</sub>O<sub>5</sub>",
        "Molecular Mass": "238.20",
        "Melting Point": "174-176 °C"
    }
}