{
    "cas_no": "36635-56-0",
    "key_name": "<em>N</em>-[[(4-Methylphenyl)sulfonyl]methyl]formamide",
    "cn_name": "N-对甲苯磺酰甲基甲酰胺;",
    "alternate_name": "Formamide, <em>N</em>-[[(4-methylphenyl)sulfonyl]methyl]-;<em>N</em>-[[(4-Methylphenyl)sulfonyl]methyl]formamide;<em>N</em>-(Tosylmethyl)formamide;<em>N</em>-(<em>p</em>-Toluenesulfonylmethyl)formamide;<em>N</em>-(4-Methylbenzenesulfonylmethyl)-formamide",
    "duplicated_cas_no": "",
    "SMILES": "S(CNC=O)(=O)(=O)C1=CC=C(C)C=C1",
    "meta_data": {
        "InChI": "InChI=1S/C9H11NO3S/c1-8-2-4-9(5-3-8)14(12,13)7-10-6-11/h2-6H,7H2,1H3,(H,10,11)",
        "InChIKey": null,
        "Canonical SMILES": "O=CNCS(=O)(=O)C1=CC=C(C=C1)C",
        "Molecular Formula": "C<sub>9</sub>H<sub>11</sub>NO<sub>3</sub>S",
        "Molecular Mass": "213.25",
        "Melting Point": "109-111 °C"
    }
}