{
    "cas_no": "1753-49-7",
    "key_name": "1,2-Dihydro-2-oxo-5-pyrimidinecarbonitrile",
    "cn_name": null,
    "alternate_name": "5-Pyrimidinecarbonitrile, 1,2-dihydro-2-oxo-;5-Pyrimidinecarbonitrile, 2-hydroxy-;1,2-Dihydro-2-oxo-5-pyrimidinecarbonitrile;2-Hydroxypyrimidine-5-carbonitrile;2-Oxo-1<em>H</em>-pyrimidine-5-carbonitrile;2-Oxo-1,2-dihydropyrimidine-5-carbonitrile",
    "duplicated_cas_no": "",
    "SMILES": "C(#N)C1=CNC(=O)N=C1",
    "meta_data": {
        "InChI": "InChI=1S/C5H3N3O/c6-1-4-2-7-5(9)8-3-4/h2-3H,(H,7,8,9)",
        "InChIKey": null,
        "Canonical SMILES": "N#CC=1C=NC(=O)NC1",
        "Molecular Formula": "C<sub>5</sub>H<sub>3</sub>N<sub>3</sub>O",
        "Molecular Mass": "121.10",
        "Melting Point": "266-268 °C"
    }
}