{
    "cas_no": "93982-96-8",
    "key_name": "<em>N</em>,<em>N</em>′-Diphenylguanidine hydrobromide",
    "cn_name": "二苯胍氢溴酸盐;",
    "alternate_name": "Guanidine, <em>N</em>,<em>N</em>′-diphenyl-, hydrobromide (1:1);Guanidine, <em>N</em>,<em>N</em>′-diphenyl-, monohydrobromide;<em>N</em>,<em>N</em>′-Diphenylguanidine hydrobromide",
    "duplicated_cas_no": "",
    "SMILES": "N(C(NC1=CC=CC=C1)=N)C2=CC=CC=C2.Br",
    "meta_data": {
        "InChI": "InChI=1S/C13H13N3.BrH/c14-13(15-11-7-3-1-4-8-11)16-12-9-5-2-6-10-12;/h1-10H,(H3,14,15,16);1H",
        "InChIKey": null,
        "Canonical SMILES": "Br.N=C(NC=1C=CC=CC1)NC=2C=CC=CC2",
        "Molecular Formula": "C<sub>13</sub>H<sub>13</sub>N<sub>3</sub>.BrH",
        "Molecular Mass": "",
        "Melting Point": "158-160 °C"
    }
}