{
    "cas_no": "20834-59-7",
    "key_name": "α,α,4-Trimethylbenzeneethanol",
    "cn_name": "1,1-二甲基-2-(4-甲苯基)-乙醇;",
    "alternate_name": "Benzeneethanol, α,α,4-trimethyl-;Phenethyl alcohol, <em>p</em>,α,α-trimethyl-;α,α,4-Trimethylbenzeneethanol;1,1-Dimethyl-2-(4-methylphenyl)ethanol;2-Methyl-1-<em>p</em>-tolylpropan-2-ol;2-Methyl-1-(4-methylphenyl)propan-2-ol;2-<em>p</em>-Methylbenzyl-2-propanol",
    "duplicated_cas_no": "",
    "SMILES": "C(C(C)(C)O)C1=CC=C(C)C=C1",
    "meta_data": {
        "InChI": "InChI=1S/C11H16O/c1-9-4-6-10(7-5-9)8-11(2,3)12/h4-7,12H,8H2,1-3H3",
        "InChIKey": null,
        "Canonical SMILES": "OC(C)(C)CC1=CC=C(C=C1)C",
        "Molecular Formula": "C<sub>11</sub>H<sub>16</sub>O",
        "Molecular Mass": "164.24",
        "Boiling Point": "102 °C @ Press: 8 Torr",
        "Melting Point": "40-41 °C"
    }
}