{
    "cas_no": "493-02-7",
    "key_name": "<em>trans</em>-Decalin",
    "cn_name": null,
    "alternate_name": "Naphthalene, decahydro-, <em>trans</em>-;<em>trans</em>-Decahydronaphthalene;<em>trans</em>-Decalin;<em>trans</em>-Bicyclo[4.4.0]decane;<em>trans</em>-Perhydronaphthalene;t-decalin",
    "duplicated_cas_no": "38113-45-0",
    "SMILES": "[C@]12([C@](CCCC1)(CCCC2)[H])[H]",
    "meta_data": {
        "InChI": "InChI=1/C10H18/c1-2-6-10-8-4-3-7-9(10)5-1/h9-10H,1-8H2/t9-,10-",
        "InChIKey": null,
        "Canonical SMILES": "C1CCC2CCCCC2C1",
        "Molecular Formula": "C<sub>10</sub>H<sub>18</sub>",
        "Molecular Mass": "138.25",
        "Boiling Point": "187.3 °C",
        "Melting Point": "-30.3 °C",
        "Density": "0.8952 g/cm³ @ Temp: 20 °C"
    }
}