{
    "cas_no": "89226-50-6",
    "key_name": "Manidipine",
    "cn_name": "马尼地平;2-(4-(二苯基甲基)-1-哌嗪基)乙基甲基2,6-二甲基-4-(3-硝基苯基)-1,4-二氢吡啶-3,5-二羧酸酯;",
    "alternate_name": "3,5-Pyridinedicarboxylic acid, 1,4-dihydro-2,6-dimethyl-4-(3-nitrophenyl)-, 3-[2-[4-(diphenylmethyl)-1-piperazinyl]ethyl] 5-methyl ester;3,5-Pyridinedicarboxylic acid, 1,4-dihydro-2,6-dimethyl-4-(3-nitrophenyl)-, 2-[4-(diphenylmethyl)-1-piperazinyl]ethyl methyl ester;Manidipine;Franidipine;(±)-Manidipine;Manidipine 6300;2,6-Dimethyl-4-(3-nitro-phenyl)-1,4-dihydro-pyridine-3,5-dicarboxylic acid 3-[2-(4-benzhydryl-piperazin-1-yl)-ethyl] ester 5-methyl ester",
    "duplicated_cas_no": "120092-68-4",
    "SMILES": "C(OCCN1CCN(C(C2=CC=CC=C2)C3=CC=CC=C3)CC1)(=O)C=4C(C(C(OC)=O)=C(C)NC4C)C5=CC(N(=O)=O)=CC=C5",
    "meta_data": {
        "InChI": "InChI=1S/C35H38N4O6/c1-24-30(34(40)44-3)32(28-15-10-16-29(23-28)39(42)43)31(25(2)36-24)35(41)45-22-21-37-17-19-38(20-18-37)33(26-11-6-4-7-12-26)27-13-8-5-9-14-27/h4-16,23,32-33,36H,17-22H2,1-3H3",
        "InChIKey": null,
        "Canonical SMILES": "O=C(OC)C1=C(NC(=C(C(=O)OCCN2CCN(CC2)C(C=3C=CC=CC3)C=4C=CC=CC4)C1C=5C=CC=C(C5)N(=O)=O)C)C",
        "Molecular Formula": "C<sub>35</sub>H<sub>38</sub>N<sub>4</sub>O<sub>6</sub>",
        "Molecular Mass": "610.70",
        "Melting Point": "125-128 °C"
    }
}