{
    "cas_no": "2687-12-9",
    "key_name": "Cinnamyl chloride",
    "cn_name": "肉桂基氯;3-苯基丙烯基氯;3-氯-1-苯基-1-丙烯;",
    "alternate_name": "Benzene, (3-chloro-1-propen-1-yl)-;Benzene, (3-chloropropenyl)-;Benzene, (3-chloro-1-propenyl)-;Benzene, (γ-chloropropenyl)-;(3-Chloro-1-propen-1-yl)benzene;Cinnamyl chloride;1-Propene, 3-chloro-1-phenyl-;1-Chloro-3-phenyl-2-propene;3-Chloro-1-phenylpropene;3-Phenyl-2-propenyl chloride;β-Chloromethylstyrene;3-Phenyl-2-propen-1-yl chloride;(3-Chloro-1-propenyl)benzene;3-Chloro-1-phenyl-1-propene;3-Phenylallyl chloride;NSC 5599;3-Chloroprop-1-en-1-ylbenzene",
    "duplicated_cas_no": "",
    "SMILES": "C(=CCCl)C1=CC=CC=C1",
    "meta_data": {
        "InChI": "InChI=1S/C9H9Cl/c10-8-4-7-9-5-2-1-3-6-9/h1-7H,8H2",
        "InChIKey": null,
        "Canonical SMILES": "ClCC=CC=1C=CC=CC1",
        "Molecular Formula": "C<sub>9</sub>H<sub>9</sub>Cl",
        "Molecular Mass": "152.62",
        "Boiling Point": "121-122 °C @ Press: 14 Torr",
        "Melting Point": "35 °C"
    }
}