{
    "cas_no": "12185-10-3",
    "key_name": "Tetraphosphorus",
    "cn_name": "黄磷;",
    "alternate_name": "Phosphorus, mol. (P<sub>4</sub>);Phosphorus molecule (P<sub>4</sub>);Phosphorus (P<sub>4</sub>);Molecular phosphorus (P<sub>4</sub>);Tetraatomic phosphorus;Phosphorus tetraatomic molecule;Tetrameric phosphorus;Tetraphosphorus;White phosphorus;Yellow phosphorus;Phosphorus tetramer;P<sub>4</sub>",
    "duplicated_cas_no": "51273-58-6",
    "SMILES": "",
    "meta_data": {
        "InChI": "",
        "InChIKey": null,
        "Canonical SMILES": "",
        "Molecular Formula": "P<sub>4</sub>",
        "Molecular Mass": "",
        "Boiling Point": "280 °C",
        "Melting Point": "44.77 °C",
        "Density": "1.831 g/cm³"
    }
}