{
    "uri": "substance/pt/12185103",
    "rn": "12185-10-3",
    "name": "Tetraphosphorus",
    "images": [],
    "inchi": "",
    "inchiKey": "",
    "smile": "",
    "canonicalSmile": "",
    "molecularFormula": "P<sub>4</sub>",
    "molecularMass": "",
    "experimentalProperties": [
        {
            "name": "Boiling Point",
            "property": "280 °C",
            "sourceNumber": 1
        },
        {
            "name": "Melting Point",
            "property": "44.77 °C",
            "sourceNumber": 2
        },
        {
            "name": "Density",
            "property": "1.831 g/cm³",
            "sourceNumber": 2
        }
    ],
    "propertyCitations": [
        {
            "docUri": "document/pt/document/26946753",
            "sourceNumber": 1,
            "source": "Hou, Hongwei; Chemistry Letters, (2004), 33(10), 1272-1273, CAplus"
        },
        {
            "docUri": "document/pt/document/23495167",
            "sourceNumber": 2,
            "source": "Boeseken, J.; Recueil des Travaux Chimiques des Pays-Bas et de la Belgique, (1908), 26, 289, CAplus"
        }
    ],
    "synonyms": [
        "Phosphorus, mol. (P<sub>4</sub>)",
        "Phosphorus molecule (P<sub>4</sub>)",
        "Phosphorus (P<sub>4</sub>)",
        "Molecular phosphorus (P<sub>4</sub>)",
        "Tetraatomic phosphorus",
        "Phosphorus tetraatomic molecule",
        "Tetrameric phosphorus",
        "Tetraphosphorus",
        "White phosphorus",
        "Yellow phosphorus",
        "Phosphorus tetramer",
        "P<sub>4</sub>"
    ],
    "replacedRns": [
        "51273-58-6"
    ],
    "hasMolfile": false,
    "source": "https://commonchemistry.cas.org/detail?cas_rn=12185-10-3"
}