{
    "cas_no": "107-21-1",
    "key_name": "Ethylene glycol",
    "cn_name": "乙二醇;",
    "alternate_name": "1,2-Ethanediol;Glycol;Ethylene glycol;Ethylene alcohol;Ethylene dihydrate;Glycol alcohol;Macrogol 400 BPC;Monoethylene glycol;Tescol;1,2-Dihydroxyethane;Ramp;2-Hydroxyethanol;Fridex;Ucar 17;Dowtherm SR 1;Norkool;Zerex;1,2-Ethylene glycol;146AR;Union Carbide XL 54 Type I De-icing Fluid;MEG 100;NSC 93876;Glysil GS;E 600;E 600 (glycol);SR 01;E 0105;Glysantin G 34;MeSH ID: D019855",
    "duplicated_cas_no": "37221-95-7;71767-64-1;1371582-33-0;2088100-90-5",
    "SMILES": "C(CO)O",
    "meta_data": {
        "InChI": "InChI=1S/C2H6O2/c3-1-2-4/h3-4H,1-2H2",
        "InChIKey": null,
        "Canonical SMILES": "OCCO",
        "Molecular Formula": "C<sub>2</sub>H<sub>6</sub>O<sub>2</sub>",
        "Molecular Mass": "62.07",
        "Boiling Point": "197.3 °C",
        "Melting Point": "-13 °C",
        "Density": "1.1135 g/cm³ @ Temp: 20 °C"
    }
}