{
    "cas_no": "127-07-1",
    "key_name": "Hydroxyurea",
    "cn_name": "羟基脲;",
    "alternate_name": "Urea, <em>N</em>-hydroxy-;Urea, hydroxy-;<em>N</em>-Hydroxyurea;SQ 1089;NSC 32065;Carbamohydroxamic acid;HU;Hydrea;Hydroxycarbamide;Hydroxylurea;Hydroxyurea;Hydroxylamine, <em>N</em>-(aminocarbonyl)-;Carbamoyl oxime;Carbamohydroximic acid;Hydroxycarbamine;Litaler;Oxyurea;Hidrix;Hydreia;Hydura;Litalir;Onco-Carbide;Biosupressin;NCI C04831;<em>N</em>-Carbamoylhydroxylamine;Hydurea;SK 22591;Oxyrea;Droxia;Cytodrox;Siklos;Mylocel;1-Hydroxyurea;Xromi;MeSH ID: D006918",
    "duplicated_cas_no": "",
    "SMILES": "C(NO)(N)=O",
    "meta_data": {
        "InChI": "InChI=1S/CH4N2O2/c2-1(4)3-5/h5H,(H3,2,3,4)",
        "InChIKey": null,
        "Canonical SMILES": "O=C(N)NO",
        "Molecular Formula": "CH<sub>4</sub>N<sub>2</sub>O<sub>2</sub>",
        "Molecular Mass": "76.05",
        "Melting Point": "141 °C"
    }
}