{
    "cas_no": "1843-03-4",
    "key_name": "Tris(2-methyl-4-hydroxy-5-<em>tert</em>-butylphenyl)butane",
    "cn_name": null,
    "alternate_name": "Phenol, 4,4′,4′′-(1-methyl-1-propanyl-3-ylidene)tris[2-(1,1-dimethylethyl)-5-methyl-;<em>m</em>-Cresol, 4,4′,4′′-(1-methyl-1-propanyl-3-ylidene)tris[6-<em>tert</em>-butyl-;4,4′,4′′-(1-Methyl-1-propanyl-3-ylidene)tris[2-(1,1-dimethylethyl)-5-methylphenol];1,1,3-Tris(2-methyl-5-<em>tert</em>-butyl-4-hydroxyphenyl)butane;1,1,3-Tris(2-methyl-4-hydroxy-5-<em>tert</em>-butylphenyl)butane;1,1,3-Tris(5-<em>tert</em>-butyl-4-hydroxy-2-methylphenyl)butane;Topanol CA;Tris(2-methyl-4-hydroxy-5-<em>tert</em>-butylphenyl)butane;1,1,3-Tris(2′-methyl-4′-hydroxy-5′-<em>tert</em>-butylphenyl)butane;Tris(5-<em>tert</em>-butyl-4-hydroxy-2-methylphenyl)butane;Trisalkofen BMB;TPNC;GSY 930;Mark AO 30;1,1,3-Tris(3-<em>tert</em>-butyl-4-hydroxy-6-methylphenyl)butane;1,1,3-Tri(3-<em>tert</em>-butyl-4-hydroxy-6-methylphenyl)butane;Mixxim AO 30;1,1,3-Tris-(2-methyl-4-hydroxy-5-tertiary butylphenyl)butane;ARKLS-DH 37;ADK Stab AO 30;1,1,3-Tri(4-hydroxy-2-methyl-5-<em>tert</em>-butylphenyl)butane;ADK-ARKLS DH 37;AO 30;Lowinox CA 22;1,1,3-Tris-(2′-methyl-4′-hydroxy-5′-<em>t</em>-butylphenyl)butane;Adeka ARKLS DH 37;TCA;Seenox 336;OS 930;Antioxidant CA;CA;ADK-AO 30;1,1,3-Tris (2-methyl-4-hydroxy-<em>5</em>-<em>tert</em>-butylphenyl) butane;Adeka Stab AO 30",
    "duplicated_cas_no": "27322-35-6;82278-68-0;111214-48-3;125052-71-3;134685-22-6;134707-88-3;2764913-47-3",
    "SMILES": "C(CC(C)C1=CC(C(C)(C)C)=C(O)C=C1C)(C2=CC(C(C)(C)C)=C(O)C=C2C)C3=CC(C(C)(C)C)=C(O)C=C3C",
    "meta_data": {
        "InChI": "InChI=1S/C37H52O3/c1-21(25-18-29(35(5,6)7)32(38)15-22(25)2)14-28(26-19-30(36(8,9)10)33(39)16-23(26)3)27-20-31(37(11,12)13)34(40)17-24(27)4/h15-21,28,38-40H,14H2,1-13H3",
        "InChIKey": null,
        "Canonical SMILES": "OC=1C=C(C(=CC1C(C)(C)C)C(C2=CC(=C(O)C=C2C)C(C)(C)C)CC(C3=CC(=C(O)C=C3C)C(C)(C)C)C)C",
        "Molecular Formula": "C<sub>37</sub>H<sub>52</sub>O<sub>3</sub>",
        "Molecular Mass": "544.81",
        "Melting Point": "201 °C"
    }
}