{
    "cas_no": "41108-81-0",
    "key_name": "1,1-Dimethylethyl 2-(trimethylsilyl)acetate",
    "cn_name": null,
    "alternate_name": "Acetic acid, 2-(trimethylsilyl)-, 1,1-dimethylethyl ester;Acetic acid, (trimethylsilyl)-, 1,1-dimethylethyl ester;1,1-Dimethylethyl 2-(trimethylsilyl)acetate;<em>tert</em>-Butyl (trimethylsilyl)acetate;1,1-Dimethylethyl (trimethylsilyl)acetate;<em>tert</em>-Butyl 2-(trimethylsilyl)acetate;<em>tert</em>-Butyl α-(trimethylsilyl)acetate;NSC 237636",
    "duplicated_cas_no": "",
    "SMILES": "C([Si](C)(C)C)C(OC(C)(C)C)=O",
    "meta_data": {
        "InChI": "InChI=1S/C9H20O2Si/c1-9(2,3)11-8(10)7-12(4,5)6/h7H2,1-6H3",
        "InChIKey": null,
        "Canonical SMILES": "O=C(OC(C)(C)C)C[Si](C)(C)C",
        "Molecular Formula": "C<sub>9</sub>H<sub>20</sub>O<sub>2</sub>Si",
        "Molecular Mass": "188.34",
        "Boiling Point": "172-173 °C @ Press: 760 Torr"
    }
}