{
    "cas_no": "2236-01-3",
    "key_name": "Phosphonium, (2-oxopropyl)triphenyl-, bromide (1:1)",
    "cn_name": "丙酮基三苯基溴化膦;",
    "alternate_name": "Phosphonium, (2-oxopropyl)triphenyl-, bromide (1:1);Phosphonium, acetonyltriphenyl-, bromide;Phosphonium, (2-oxopropyl)triphenyl-, bromide;Acetonyltriphenylphosphonium bromide;(2-Oxopropyl)triphenylphosphonium bromide",
    "duplicated_cas_no": "1092062-02-6",
    "SMILES": "[P+](CC(C)=O)(C1=CC=CC=C1)(C2=CC=CC=C2)C3=CC=CC=C3.[Br-]",
    "meta_data": {
        "InChI": "InChI=1S/C21H20OP.BrH/c1-18(22)17-23(19-11-5-2-6-12-19,20-13-7-3-8-14-20)21-15-9-4-10-16-21;/h2-16H,17H2,1H3;1H/q+1;/p-1",
        "InChIKey": null,
        "Canonical SMILES": "[Br-].O=C(C)C[P+](C=1C=CC=CC1)(C=2C=CC=CC2)C=3C=CC=CC3",
        "Molecular Formula": "C<sub>21</sub>H<sub>20</sub>OP.Br",
        "Molecular Mass": "",
        "Melting Point": "221 °C"
    }
}