{
    "cas_no": "239-35-0",
    "key_name": "Benzo[<em>b</em>]naphtho[2,1-<em>d</em>]thiophene",
    "cn_name": "地托咪定;",
    "alternate_name": "Benzo[<em>b</em>]naphtho[2,1-<em>d</em>]thiophene;1,2-Benzo-9-thiafluorene;Naphtho[1,2-<em>b</em>]thianaphthene;NSC 89259",
    "duplicated_cas_no": "",
    "SMILES": "C1=2C(C=3C(S1)=CC=CC3)=CC=C4C2C=CC=C4",
    "meta_data": {
        "InChI": "InChI=1S/C16H10S/c1-2-6-12-11(5-1)9-10-14-13-7-3-4-8-15(13)17-16(12)14/h1-10H",
        "InChIKey": null,
        "Canonical SMILES": "S1C=2C=CC=CC2C=3C=CC=4C=CC=CC4C13",
        "Molecular Formula": "C<sub>16</sub>H<sub>10</sub>S",
        "Molecular Mass": "234.32",
        "Melting Point": "189 °C"
    }
}