{
    "cas_no": "316-68-7",
    "key_name": "1-Acetyl-4-fluoronaphthalene",
    "cn_name": "4-氟-1-萘乙酮;4-氟-1-萘乙酮;",
    "alternate_name": "Ethanone, 1-(4-fluoro-1-naphthalenyl)-;1′-Acetonaphthone, 4′-fluoro-;1-(4-Fluoro-1-naphthalenyl)ethanone;1-Acetyl-4-fluoronaphthalene;4-Fluoro-1-acetonaphthone;1-(4-Fluoronaphthalen-1-yl)ethanone;1-(4-Fluoronaphthalen-1-yl)ethan-1-one",
    "duplicated_cas_no": "",
    "SMILES": "C(C)(=O)C=1C2=C(C(F)=CC1)C=CC=C2",
    "meta_data": {
        "InChI": "InChI=1S/C12H9FO/c1-8(14)9-6-7-12(13)11-5-3-2-4-10(9)11/h2-7H,1H3",
        "InChIKey": null,
        "Canonical SMILES": "O=C(C1=CC=C(F)C=2C=CC=CC21)C",
        "Molecular Formula": "C<sub>12</sub>H<sub>9</sub>FO",
        "Molecular Mass": "188.20",
        "Boiling Point": "138-140 °C @ Press: 4.5 Torr",
        "Melting Point": "38-39 °C",
        "Density": "1.1952 g/cm³ @ Temp: 14 °C"
    }
}