{
    "cas_no": "516-91-6",
    "key_name": "Cholesteryl bromide",
    "cn_name": "胆固醇溴;(3β)-3-溴胆甾-5-烯;胆甾烯基溴;3β-Bromo-5-cholestene;",
    "alternate_name": "Cholest-5-ene, 3-bromo-, (3β)-;Cholest-5-ene, 3β-bromo-;(3β)-3-Bromocholest-5-ene;3β-Bromocholest-5-ene;Cholesteryl bromide",
    "duplicated_cas_no": "",
    "SMILES": "C[C@@]12[C@]([C@]3([C@@]([C@]4(C)C(=CC3)C[C@@H](Br)CC4)(CC1)[H])[H])(CC[C@@]2([C@@H](CCCC(C)C)C)[H])[H]",
    "meta_data": {
        "InChI": "InChI=1S/C27H45Br/c1-18(2)7-6-8-19(3)23-11-12-24-22-10-9-20-17-21(28)13-15-26(20,4)25(22)14-16-27(23,24)5/h9,18-19,21-25H,6-8,10-17H2,1-5H3/t19-,21+,22+,23-,24+,25+,26+,27-/m1/s1",
        "InChIKey": null,
        "Canonical SMILES": "BrC1CC2=CCC3C(CCC4(C)C(CCC34)C(C)CCCC(C)C)C2(C)CC1",
        "Molecular Formula": "C<sub>27</sub>H<sub>45</sub>Br",
        "Molecular Mass": "449.55",
        "Melting Point": "98 °C"
    }
}