{
    "cas_no": "374-35-6",
    "key_name": "3,3,3-Trifluoro-2-hydroxy-2-methylpropanoic acid",
    "cn_name": null,
    "alternate_name": "Propanoic acid, 3,3,3-trifluoro-2-hydroxy-2-methyl-;3,3,3-Trifluoro-2-hydroxy-2-methylpropanoic acid;3,3,3-Trifluoro-2-hydroxy-2-methylpropionic acid;2-Hydroxy-2-(trifluoromethyl)propanoic acid;2-Trifluoromethyl-2-hydroxypropionic acid;α-Methyl-3,3,3-trifluorolactic acid;2-Hydroxy-2-(trifluoromethyl)propionic acid;α-(Trifluoromethyl)lactic acid;2-(Trifluoromethyl)-2-hydroxypropanoic acid;2-Hydroxy-2-methyl-3,3,3-trifluoropropanoic acid",
    "duplicated_cas_no": "114715-77-4",
    "SMILES": "C(C(F)(F)F)(C(O)=O)(C)O",
    "meta_data": {
        "InChI": "InChI=1S/C4H5F3O3/c1-3(10,2(8)9)4(5,6)7/h10H,1H3,(H,8,9)",
        "InChIKey": null,
        "Canonical SMILES": "O=C(O)C(O)(C)C(F)(F)F",
        "Molecular Formula": "C<sub>4</sub>H<sub>5</sub>F<sub>3</sub>O<sub>3</sub>",
        "Molecular Mass": "158.08",
        "Boiling Point": "189 °C",
        "Melting Point": "88 °C"
    }
}