{
    "cas_no": "38462-22-5",
    "key_name": "<em>p</em>-Mentha-8-thiol-3-one",
    "cn_name": null,
    "alternate_name": "Cyclohexanone, 2-(1-mercapto-1-methylethyl)-5-methyl-;2-(1-Mercapto-1-methylethyl)-5-methylcyclohexanone;Mangone;<em>p</em>-Mentha-8-thiol-3-one;5-Methyl-2-(2-sulfanylpropan-2-yl)cyclohexan-1-one;2-(2-Mercaptopropan-2-yl)-5-methylcyclohexan-1-one;2-(2-Mercaptopropan-2-yl)-5-methylcyclohexanone;8-Mercaptomenthone",
    "duplicated_cas_no": "",
    "SMILES": "C(C)(C)(S)C1C(=O)CC(C)CC1",
    "meta_data": {
        "InChI": "InChI=1S/C10H18OS/c1-7-4-5-8(9(11)6-7)10(2,3)12/h7-8,12H,4-6H2,1-3H3",
        "InChIKey": null,
        "Canonical SMILES": "O=C1CC(C)CCC1C(S)(C)C",
        "Molecular Formula": "C<sub>10</sub>H<sub>18</sub>OS",
        "Molecular Mass": "186.31",
        "Boiling Point": "120 °C @ Press: 10 Torr"
    }
}