{
    "cas_no": "24197-95-3",
    "key_name": "4-[2-(Dimethylamino)ethoxy]benzonitrile",
    "cn_name": null,
    "alternate_name": "Benzonitrile, 4-[2-(dimethylamino)ethoxy]-;Benzonitrile, <em>p</em>-[2-(dimethylamino)ethoxy]-;4-[2-(Dimethylamino)ethoxy]benzonitrile",
    "duplicated_cas_no": "",
    "SMILES": "O(CCN(C)C)C1=CC=C(C#N)C=C1",
    "meta_data": {
        "InChI": "InChI=1S/C11H14N2O/c1-13(2)7-8-14-11-5-3-10(9-12)4-6-11/h3-6H,7-8H2,1-2H3",
        "InChIKey": null,
        "Canonical SMILES": "N#CC1=CC=C(OCCN(C)C)C=C1",
        "Molecular Formula": "C<sub>11</sub>H<sub>14</sub>N<sub>2</sub>O",
        "Molecular Mass": "190.24",
        "Boiling Point": "135-150 °C @ Press: 1.0-1.5 Torr"
    }
}