{
    "cas_no": "79822-46-1",
    "key_name": "4-(1,1-Dimethylethyl)-3-methoxybenzoic acid",
    "cn_name": "3-甲氧基-4-叔丁基苯甲酸;",
    "alternate_name": "Benzoic acid, 4-(1,1-dimethylethyl)-3-methoxy-;<em>m</em>-Anisic acid, 4-<em>tert</em>-butyl-;4-(1,1-Dimethylethyl)-3-methoxybenzoic acid;4-<em>tert</em>-Butyl-3-methoxybenzoic acid;3-Methoxy-<em>4</em>-<em>t</em>-butylbenzoic acid;3-Methoxy-4-<em>tert</em>-butyl-Benzoic acid;3-Methoxy-4-<em>tert</em>-butylbenzoicacid",
    "duplicated_cas_no": "",
    "SMILES": "O(C)C1=C(C(C)(C)C)C=CC(C(O)=O)=C1",
    "meta_data": {
        "InChI": "InChI=1S/C12H16O3/c1-12(2,3)9-6-5-8(11(13)14)7-10(9)15-4/h5-7H,1-4H3,(H,13,14)",
        "InChIKey": null,
        "Canonical SMILES": "O=C(O)C1=CC=C(C(OC)=C1)C(C)(C)C",
        "Molecular Formula": "C<sub>12</sub>H<sub>16</sub>O<sub>3</sub>",
        "Molecular Mass": "208.25",
        "Melting Point": "150-151 °C"
    }
}