{
    "cas_no": "2807-30-9",
    "key_name": "Glycol monopropyl ether",
    "cn_name": "2-正丙氧基乙醇;乙二醇单丙醚;",
    "alternate_name": "Ethanol, 2-propoxy-;2-Propoxyethanol;Ethylene glycol monopropyl ether;Ethylene glycol mono-<em>n</em>-propyl ether;Propyl cellosolve;Propoxyethanol;Propyl glycol;2-(Propyloxy)ethanol;Ethylene glycol propyl ether;Ektasolve EP;2-Propoxy-1-ethanol;Glycol monopropyl ether;2-Hydroxyethyl propyl ether",
    "duplicated_cas_no": "83855-85-0",
    "SMILES": "O(CCC)CCO",
    "meta_data": {
        "InChI": "InChI=1S/C5H12O2/c1-2-4-7-5-3-6/h6H,2-5H2,1H3",
        "InChIKey": null,
        "Canonical SMILES": "OCCOCCC",
        "Molecular Formula": "C<sub>5</sub>H<sub>12</sub>O<sub>2</sub>",
        "Molecular Mass": "104.15",
        "Boiling Point": "150-152 °C @ Press: 760 Torr",
        "Melting Point": "-90 °C",
        "Density": "0.9112 g/cm³ @ Temp: 20 °C"
    }
}