{
    "cas_no": "5941-55-9",
    "key_name": "Ethyl (2<em>E</em>)-3-ethoxy-2-propenoate",
    "cn_name": null,
    "alternate_name": "2-Propenoic acid, 3-ethoxy-, ethyl ester, (2<em>E</em>)-;2-Propenoic acid, 3-ethoxy-, ethyl ester, (<em>E</em>)-;Ethyl (2<em>E</em>)-3-ethoxy-2-propenoate;Ethyl (<em>E</em>)-3-ethoxy-2-propenoate;Ethyl trans-3-ethoxyacrylate;(E)-Ethyl 3-ethoxyacrylate;Ethyl (E)-3-ethoxyprop-2-enoate;Ethyl (2E)-3-ethoxyprop-2-enoate;Ethyl (E)-3-ethoxyacrylate;(<em>E</em>)-Ethyl 3-ethoxyacrylate",
    "duplicated_cas_no": "",
    "SMILES": "C(\\C(OCC)=O)=C/OCC",
    "meta_data": {
        "InChI": "InChI=1S/C7H12O3/c1-3-9-6-5-7(8)10-4-2/h5-6H,3-4H2,1-2H3/b6-5+",
        "InChIKey": null,
        "Canonical SMILES": "O=C(OCC)C=COCC",
        "Molecular Formula": "C<sub>7</sub>H<sub>12</sub>O<sub>3</sub>",
        "Molecular Mass": "144.17",
        "Boiling Point": "60 °C @ Press: 1.8 Torr",
        "Density": "0.9973 g/cm³ @ Temp: 20 °C"
    }
}