{
    "cas_no": "613-14-9",
    "key_name": "2-Hydroxyanthracene",
    "cn_name": null,
    "alternate_name": "2-Anthracenol;2-Anthrol;2-Hydroxyanthracene;β-Hydroxyanthracene;NSC 229384",
    "duplicated_cas_no": "",
    "SMILES": "OC1=CC2=C(C=C3C(=C2)C=CC=C3)C=C1",
    "meta_data": {
        "InChI": "InChI=1S/C14H10O/c15-14-6-5-12-7-10-3-1-2-4-11(10)8-13(12)9-14/h1-9,15H",
        "InChIKey": null,
        "Canonical SMILES": "OC=1C=CC2=CC=3C=CC=CC3C=C2C1",
        "Molecular Formula": "C<sub>14</sub>H<sub>10</sub>O",
        "Molecular Mass": "194.23",
        "Melting Point": "166 °C"
    }
}