{
    "cas_no": "98-47-5",
    "key_name": "3-Nitrobenzenesulfonic acid",
    "cn_name": "3-硝基苯磺酸;",
    "alternate_name": "Benzenesulfonic acid, 3-nitro-;Benzenesulfonic acid, <em>m</em>-nitro-;3-Nitrobenzenesulfonic acid;3-Nitrophenylsulfonic acid;1-Nitro-3-benzenesulfonic acid;<em>m</em>-Nitrobenzenesulfonic acid;m-Nitrobenzenesulfonic acid;<em>m</em>-Nitrophenylsulfonic acid;NSC 166284;3-Nitrobenzene-1-sulfonic acid",
    "duplicated_cas_no": "",
    "SMILES": "S(=O)(=O)(O)C1=CC(N(=O)=O)=CC=C1",
    "meta_data": {
        "InChI": "InChI=1S/C6H5NO5S/c8-7(9)5-2-1-3-6(4-5)13(10,11)12/h1-4H,(H,10,11,12)",
        "InChIKey": null,
        "Canonical SMILES": "O=N(=O)C1=CC=CC(=C1)S(=O)(=O)O",
        "Molecular Formula": "C<sub>6</sub>H<sub>5</sub>NO<sub>5</sub>S",
        "Molecular Mass": "203.17",
        "Melting Point": "103-104 °C"
    }
}