{
    "cas_no": "1003-67-4",
    "key_name": "Pyridine, 4-methyl-, 1-oxide",
    "cn_name": "4-甲基吡啶氧化物;",
    "alternate_name": "Pyridine, 4-methyl-, 1-oxide;4-Picoline, 1-oxide;4-Methylpyridine <em>N</em>-oxide;γ-Picoline <em>N</em>-oxide;4-Picoline <em>N</em>-oxide;4-Methylpyridine 1-oxide;4-Picoline oxide;4-Methylpyridine oxide;γ-Picoline 1-oxide;γ-Picoline oxide;NSC 5086",
    "duplicated_cas_no": "117889-41-5;344242-54-2;1084930-90-4;1197996-56-7",
    "SMILES": "CC=1C=CN(=O)=CC1",
    "meta_data": {
        "InChI": "InChI=1S/C6H7NO/c1-6-2-4-7(8)5-3-6/h2-5H,1H3",
        "InChIKey": null,
        "Canonical SMILES": "O=N1=CC=C(C=C1)C",
        "Molecular Formula": "C<sub>6</sub>H<sub>7</sub>NO",
        "Molecular Mass": "109.13",
        "Boiling Point": "150 °C",
        "Melting Point": "181 °C"
    }
}