{
    "cas_no": "98-87-3",
    "key_name": "Benzal chloride",
    "cn_name": "二氯甲苯;苄叉二氯;二氯化苄;氯化亚苄基;亚苄基二氯;二氯苄;二氯甲(基)苯;苯亚甲基,亚苄基;",
    "alternate_name": "Benzene, (dichloromethyl)-;Toluene, α,α-dichloro-;(Dichloromethyl)benzene;Benzal chloride;Benzyl dichloride;Benzylene chloride;Benzylidene chloride;α,α-Dichlorotoluene;Dichlorophenylmethane;NSC 7915",
    "duplicated_cas_no": "",
    "SMILES": "C(Cl)(Cl)C1=CC=CC=C1",
    "meta_data": {
        "InChI": "InChI=1S/C7H6Cl2/c8-7(9)6-4-2-1-3-5-6/h1-5,7H",
        "InChIKey": null,
        "Canonical SMILES": "ClC(Cl)C=1C=CC=CC1",
        "Molecular Formula": "C<sub>7</sub>H<sub>6</sub>Cl<sub>2</sub>",
        "Molecular Mass": "161.03",
        "Boiling Point": "205 °C",
        "Melting Point": "-16.4 °C",
        "Density": "1.26 g/cm³"
    }
}