{
    "cas_no": "872-35-5",
    "key_name": "2-Mercaptoimidazole",
    "cn_name": null,
    "alternate_name": "2<em>H</em>-Imidazole-2-thione, 1,3-dihydro-;Imidazole-2-thiol;4-Imidazoline-2-thione;2-Imidazolemercaptan;1,3-Dihydro-2<em>H</em>-imidazole-2-thione;2-Mercaptoimidazole;1<em>H</em>-Imidazole-2-thiol;2-Thioxo-2,3-dihydroimidazole;1,3-Vinylenethiourea;2-Mercapto-1<em>H</em>-imidazole;1,3-Dihydroimidazole-2-thione;NSC 112715;2-Thioimidazole;1-Imidazole-2(3<em>H</em>)-thione",
    "duplicated_cas_no": "4708-60-5;55107-84-1",
    "SMILES": "S=C1NC=CN1",
    "meta_data": {
        "InChI": "InChI=1S/C3H4N2S/c6-3-4-1-2-5-3/h1-2H,(H2,4,5,6)",
        "InChIKey": null,
        "Canonical SMILES": "S=C1NC=CN1",
        "Molecular Formula": "C<sub>3</sub>H<sub>4</sub>N<sub>2</sub>S",
        "Molecular Mass": "100.14",
        "Melting Point": "225-227 °C"
    }
}