{
    "cas_no": "6764-13-2",
    "key_name": "Benzenamine, 2-(phenylthio)-, hydrochloride (1:1)",
    "cn_name": null,
    "alternate_name": "Benzenamine, 2-(phenylthio)-, hydrochloride (1:1);Aniline, <em>o</em>-(phenylthio)-, hydrochloride;Benzenamine, 2-(phenylthio)-, hydrochloride;NSC 633006",
    "duplicated_cas_no": "",
    "SMILES": "S(C1=C(N)C=CC=C1)C2=CC=CC=C2.Cl",
    "meta_data": {
        "InChI": "InChI=1S/C12H11NS.ClH/c13-11-8-4-5-9-12(11)14-10-6-2-1-3-7-10;/h1-9H,13H2;1H",
        "InChIKey": null,
        "Canonical SMILES": "Cl.S(C=1C=CC=CC1)C=2C=CC=CC2N",
        "Molecular Formula": "C<sub>12</sub>H<sub>11</sub>NS.ClH",
        "Molecular Mass": "",
        "Melting Point": "36 °C"
    }
}