{
    "cas_no": "3736-77-4",
    "key_name": "2,2′-Anhydrouridine",
    "cn_name": "2,2\"-脱水尿苷;2,2\"-脱水尿甙;2,2-环尿苷;",
    "alternate_name": "6<em>H</em>-Furo[2′,3′:4,5]oxazolo[3,2-<em>a</em>]pyrimidin-6-one, 2,3,3a,9a-tetrahydro-3-hydroxy-2-(hydroxymethyl)-, (2<em>R</em>,3<em>R</em>,3a<em>S</em>,9a<em>R</em>)-;6<em>H</em>-Furo[2′,3′:4,5]oxazolo[3,2-<em>a</em>]pyrimidin-6-one, 2,3,3a,9a-tetrahydro-3-hydroxy-2-(hydroxymethyl)-, [2<em>R</em>-(2α,3β,3aβ,9aβ)]-;6<em>H</em>-Furo[2′,3′:4,5]oxazolo[3,2-<em>a</em>]pyrimidin-6-one, 2,3,3a,9a-tetrahydro-3-hydroxy-2-(hydroxymethyl)-, stereoisomer;6<em>H</em>-Furo[2′,3′:4,5]oxazolo[3,2-<em>a</em>]pyrimidin-6-one, 2,3,3a,9a-tetrahydro-3-hydroxy-2-(hydroxymethyl)-;(2<em>R</em>,3<em>R</em>,3a<em>S</em>,9a<em>R</em>)-2,3,3a,9a-Tetrahydro-3-hydroxy-2-(hydroxymethyl)-6<em>H</em>-furo[2′,3′:4,5]oxazolo[3,2-<em>a</em>]pyrimidin-6-one;<em>O</em><sup>2</sup>,2′-Cyclouridine;2,2′-<em>O</em>-Cyclouridine;2,2′-Anhydro-1-β-<span class=\"text-smallcaps\">D</span>-<em>arabino</em>-furanosyluracil;2,2′-Anhydrouridine;2,2′-Anhydro-<em>N</em><sup>1</sup>-(β-<span class=\"text-smallcaps\">D</span>-arabinofuranosyl)uracil;2,2′-Anhydro(1-β-<span class=\"text-smallcaps\">D</span>-arabinofuranosyl)uracil;β-<span class=\"text-smallcaps\">D</span>-2′,2-<em>O</em>-Cycloarabinouridine;<em>O</em><sup>2</sup>,2′-Anhydrouridine;NSC 157148",
    "duplicated_cas_no": "3249-95-4;6160-57-2;10111-80-5;29724-20-7;71934-24-2;736076-34-9;2390200-32-3",
    "SMILES": "O[C@H]1[C@]2([C@](N3C(O2)=NC(=O)C=C3)(O[C@@H]1CO)[H])[H]",
    "meta_data": {
        "InChI": "InChI=1S/C9H10N2O5/c12-3-4-6(14)7-8(15-4)11-2-1-5(13)10-9(11)16-7/h1-2,4,6-8,12,14H,3H2/t4-,6-,7+,8-/m1/s1",
        "InChIKey": null,
        "Canonical SMILES": "O=C1N=C2OC3C(O)C(OC3N2C=C1)CO",
        "Molecular Formula": "C<sub>9</sub>H<sub>10</sub>N<sub>2</sub>O<sub>5</sub>",
        "Molecular Mass": "226.19",
        "Melting Point": "234-235 °C"
    }
}