{
    "cas_no": "82113-65-3",
    "key_name": "Bis(trifluoromethanesulfonyl)imide",
    "cn_name": null,
    "alternate_name": "Methanesulfonamide, 1,1,1-trifluoro-<em>N</em>-[(trifluoromethyl)sulfonyl]-;1,1,1-Trifluoro-<em>N</em>-[(trifluoromethyl)sulfonyl]methanesulfonamide;Bis(trifluoromethylsulfonyl)amine;Bis(trifluoromethylsulfonyl)imide;Bis(trifluoromethanesulfonyl)imide;Bis(trifluoromethanesulfonyl)amine;Triflimide;Triflic imide;1,1,1-Trifluoro-<em>N</em>-[(trifluoromethyl)sulfonyl]methanesulfonimide;Trifluoromethanesulfonimide;Bis(trifluoromethanesulfonyl)amide;Bis(trifluoromethane)sulfonimide;Bis(trifluormethylsulfonyl)imide;1,1,1-Trifluoro-<em>N</em>-trifluoromethanesulfonylmethanesulfonamide;Trifluoromethane sulfonylimide;HNTf<sub>2</sub>;Bistriflimide",
    "duplicated_cas_no": "858717-00-7;1122747-93-6;1189948-54-6;2486006-04-4",
    "SMILES": "S(NS(C(F)(F)F)(=O)=O)(C(F)(F)F)(=O)=O",
    "meta_data": {
        "InChI": "InChI=1S/C2HF6NO4S2/c3-1(4,5)14(10,11)9-15(12,13)2(6,7)8/h9H",
        "InChIKey": null,
        "Canonical SMILES": "O=S(=O)(NS(=O)(=O)C(F)(F)F)C(F)(F)F",
        "Molecular Formula": "C<sub>2</sub>HF<sub>6</sub>NO<sub>4</sub>S<sub>2</sub>",
        "Molecular Mass": "281.15",
        "Boiling Point": "90 °C @ Press: 2 x 10<sup>-3</sup> Torr",
        "Melting Point": "56 °C",
        "Density": "1.5-1.6 g/cm³"
    }
}