{
    "cas_no": "55-68-5",
    "key_name": "(Nitrato-κ<em>O</em>)phenylmercury",
    "cn_name": "硝酸苯汞;硝酸苯汞;碱式硝酸苯汞;",
    "alternate_name": "Mercury, (nitrato-κ<em>O</em>)phenyl-;Mercury, nitratophenyl-;Mercury, (nitrato-<em>O</em>)phenyl-;Phenylmercury nitrate;(Nitrato-κ<em>O</em>)phenylmercury;Merphenyl nitrate;Mersolite 7;Phe-Mer-Nite;Phenalco;Phenitol;Phenmerzyl nitrate;Phenylmercuric nitrate;Phenylmercurinitrate;Nitratophenylmercury;Phenylmercury (II) nitrate;NSC 4772",
    "duplicated_cas_no": "",
    "SMILES": "[Hg](ON(=O)=O)C1=CC=CC=C1",
    "meta_data": {
        "InChI": "InChI=1S/C6H5.Hg.NO3/c1-2-4-6-5-3-1;;2-1(3)4/h1-5H;;/q;+1;-1",
        "InChIKey": null,
        "Canonical SMILES": "O=N(=O)O[Hg]C=1C=CC=CC1",
        "Molecular Formula": "C<sub>6</sub>H<sub>5</sub>HgNO<sub>3</sub>",
        "Molecular Mass": "",
        "Melting Point": "176-186 °C"
    }
}