{
    "cas_no": "111-33-1",
    "key_name": "<em>N</em>,<em>N</em>′-Dimethyl-1,3-propanediamine",
    "cn_name": "N,N\"-二甲基-1,3-丙二胺;",
    "alternate_name": "1,3-Propanediamine, <em>N</em><sup>1</sup>,<em>N</em><sup>3</sup>-dimethyl-;1,3-Propanediamine, <em>N</em>,<em>N</em>′-dimethyl-;<em>N</em><sup>1</sup>,<em>N</em><sup>3</sup>-Dimethyl-1,3-propanediamine;<em>N</em>,<em>N</em>′-Dimethyl-1,3-diaminopropane;<em>N</em>,<em>N</em>′-Dimethyl-1,3-propanediamine;<em>N</em>,<em>N</em>′-Dimethyl-1,3-propylenediamine;<em>N</em>,<em>N</em>′-Dimethyltrimethylenediamine;1,3-Bis(methylamino)propane;<em>N</em>,<em>N</em>′-Dimethylpropylenediamine;<em>N</em>,<em>N</em>′-Dimethylpropanediamine;N1,N3-Dimethylpropane-1,3-diamine",
    "duplicated_cas_no": "",
    "SMILES": "C(CNC)CNC",
    "meta_data": {
        "InChI": "InChI=1S/C5H14N2/c1-6-4-3-5-7-2/h6-7H,3-5H2,1-2H3",
        "InChIKey": null,
        "Canonical SMILES": "N(C)CCCNC",
        "Molecular Formula": "C<sub>5</sub>H<sub>14</sub>N<sub>2</sub>",
        "Molecular Mass": "102.18",
        "Boiling Point": "36 °C @ Press: 10 Torr",
        "Melting Point": "193-195 °C"
    }
}