{
    "cas_no": "193-39-5",
    "key_name": "Indeno[1,2,3-<em>cd</em>]pyrene",
    "cn_name": "茚并(1,2,3-cd)芘;茚并(1,2,3-CD)芘;茚并(1,2,3-cd)芘;2,3-(邻亚苯基)芘;茚并(1,2,3-CD)嵌二萘;",
    "alternate_name": "Indeno[1,2,3-<em>cd</em>]pyrene;1,10-(<em>o</em>-Phenylene)pyrene;1,10-(1,2-Phenylene)pyrene",
    "duplicated_cas_no": "348085-46-1",
    "SMILES": "C12=C3C=4C=5C=C1C=6C(C2=CC=C3C=CC4C=CC5)=CC=CC6",
    "meta_data": {
        "InChI": "InChI=1S/C22H12/c1-2-7-17-16(6-1)18-11-10-14-9-8-13-4-3-5-15-12-19(17)22(18)21(14)20(13)15/h1-12H",
        "InChIKey": null,
        "Canonical SMILES": "C1=CC=C2C(=C1)C3=CC=C4C=CC5=CC=CC=6C=C2C3=C4C56",
        "Molecular Formula": "C<sub>22</sub>H<sub>12</sub>",
        "Molecular Mass": "276.33",
        "Boiling Point": "536 °C",
        "Melting Point": "163.6 °C"
    }
}