{
    "cas_no": "1010-93-1",
    "key_name": "2-Methyl-5-nitroimidazole-1-acetic acid",
    "cn_name": null,
    "alternate_name": "1<em>H</em>-Imidazole-1-acetic acid, 2-methyl-5-nitro-;Imidazole-1-acetic acid, 2-methyl-5-nitro-;2-Methyl-5-nitro-1<em>H</em>-imidazole-1-acetic acid;2-Methyl-5-nitroimidazol-1-ylacetic acid;2-Methyl-5-nitroimidazole-1-acetic acid;Metronidazoleacetic acid;1-De(2-hydroxyethyl)metronidazole-1-acetic acid;2-(2-Methyl-5-nitro-1<em>H</em>-imidazol-1-yl)acetic acid",
    "duplicated_cas_no": "109031-91-6",
    "SMILES": "C(C(O)=O)N1C(N(=O)=O)=CN=C1C",
    "meta_data": {
        "InChI": "InChI=1S/C6H7N3O4/c1-4-7-2-5(9(12)13)8(4)3-6(10)11/h2H,3H2,1H3,(H,10,11)",
        "InChIKey": null,
        "Canonical SMILES": "O=C(O)CN1C(=CN=C1C)N(=O)=O",
        "Molecular Formula": "C<sub>6</sub>H<sub>7</sub>N<sub>3</sub>O<sub>4</sub>",
        "Molecular Mass": "185.14",
        "Melting Point": "176-178 °C"
    }
}