{
    "cas_no": "1936-96-5",
    "key_name": "Thiocyanic acid, 3-methyl-2-buten-1-yl ester",
    "cn_name": null,
    "alternate_name": "Thiocyanic acid, 3-methyl-2-buten-1-yl ester;Thiocyanic acid, 3-methyl-2-butenyl ester;3-Methyl-2-buten-1-yl thiocyanate;1-Thiocyanato-3-methyl-2-butene",
    "duplicated_cas_no": "",
    "SMILES": "C(CSC#N)=C(C)C",
    "meta_data": {
        "InChI": "InChI=1S/C6H9NS/c1-6(2)3-4-8-5-7/h3H,4H2,1-2H3",
        "InChIKey": null,
        "Canonical SMILES": "N#CSCC=C(C)C",
        "Molecular Formula": "C<sub>6</sub>H<sub>9</sub>NS",
        "Molecular Mass": "127.21",
        "Boiling Point": "30-32 °C @ Press: 0.1 Torr"
    }
}