{
    "cas_no": "3034-19-3",
    "key_name": "(2-Nitrophenyl)hydrazine",
    "cn_name": "2-硝基苯肼;邻硝基苯肼;2-硝基苯基肼;2-硝基苯基肼,97%;",
    "alternate_name": "Hydrazine, (2-nitrophenyl)-;Hydrazine, (<em>o</em>-nitrophenyl)-;(2-Nitrophenyl)hydrazine;(<em>o</em>-Nitrophenyl)hydrazine;<em>o</em>-(Hydrazino)nitrobenzene;1-Hydrazino-2-nitrobenzene;2-Hydrazino-1-nitrobenzene;1-(2-Nitrophenyl)hydrazine",
    "duplicated_cas_no": "",
    "SMILES": "N(N)C1=C(N(=O)=O)C=CC=C1",
    "meta_data": {
        "InChI": "InChI=1S/C6H7N3O2/c7-8-5-3-1-2-4-6(5)9(10)11/h1-4,8H,7H2",
        "InChIKey": null,
        "Canonical SMILES": "O=N(=O)C=1C=CC=CC1NN",
        "Molecular Formula": "C<sub>6</sub>H<sub>7</sub>N<sub>3</sub>O<sub>2</sub>",
        "Molecular Mass": "153.14",
        "Melting Point": "90 °C"
    }
}