{
    "cas_no": "879-37-8",
    "key_name": "Indole-3-acetamide",
    "cn_name": "3-吲哚乙酰胺;",
    "alternate_name": "1<em>H</em>-Indole-3-acetamide;Indole-3-acetamide;3-Indolylacetamide;2-(1<em>H</em>-Indol-3-yl)acetamide;NSC 1969;2-(3-Indolyl)acetamide",
    "duplicated_cas_no": "",
    "SMILES": "C(C(N)=O)C=1C=2C(NC1)=CC=CC2",
    "meta_data": {
        "InChI": "InChI=1S/C10H10N2O/c11-10(13)5-7-6-12-9-4-2-1-3-8(7)9/h1-4,6,12H,5H2,(H2,11,13)",
        "InChIKey": null,
        "Canonical SMILES": "O=C(N)CC1=CNC=2C=CC=CC21",
        "Molecular Formula": "C<sub>10</sub>H<sub>10</sub>N<sub>2</sub>O",
        "Molecular Mass": "174.20",
        "Melting Point": "150-151 °C"
    }
}