{
    "cas_no": "92-91-1",
    "key_name": "4-Acetylbiphenyl",
    "cn_name": "联苯单乙酮;4-乙酰基联苯;4-苯基苯乙酮;4-联苯乙酮;",
    "alternate_name": "Ethanone, 1-[1,1′-biphenyl]-4-yl-;Acetophenone, 4′-phenyl-;Acetophenone, <em>p</em>-phenyl-;1-[1,1′-Biphenyl]-4-ylethanone;4-Acetylbiphenyl;<em>p</em>-Phenylacetophenone;Methyl 4-biphenylyl ketone;4′-Phenylacetophenone;4-Biphenylyl methyl ketone;<em>p</em>-Acetylbiphenyl;1-Acetyl-4-phenylbenzene;1,1′-Biphenyl-4-yl methyl ketone;1-(4-Phenylphenyl)ethanone;4-Acetyl-1,1′-biphenyl;1-Biphenyl-4-ylethanone;NSC 1875;4-Ethanoylbiphenyl;<em>p</em>-Acetylphenyl benzene;1-([1,1′-Biphenyl]-4-yl)ethan-1-one;1-(4-Phenylphenyl)ethan-1-one",
    "duplicated_cas_no": "",
    "SMILES": "C(C)(=O)C1=CC=C(C=C1)C2=CC=CC=C2",
    "meta_data": {
        "InChI": "InChI=1S/C14H12O/c1-11(15)12-7-9-14(10-8-12)13-5-3-2-4-6-13/h2-10H,1H3",
        "InChIKey": null,
        "Canonical SMILES": "O=C(C=1C=CC(=CC1)C=2C=CC=CC2)C",
        "Molecular Formula": "C<sub>14</sub>H<sub>12</sub>O",
        "Molecular Mass": "196.24",
        "Boiling Point": "326 °C",
        "Melting Point": "121 °C"
    }
}