{
    "cas_no": "1006-21-9",
    "key_name": "Furo[3,4-<em>c</em>]pyridin-7-ol, 1,3-dihydro-6-methyl-, hydrochloride (1:1)",
    "cn_name": null,
    "alternate_name": "Furo[3,4-<em>c</em>]pyridin-7-ol, 1,3-dihydro-6-methyl-, hydrochloride (1:1);Furo[3,4-<em>c</em>]pyridin-7-ol, 1,3-dihydro-6-methyl-, hydrochloride;1,3-Dihydro-6-methylfuro[3,4-<em>c</em>]pyridin-7-ol hydrochloride",
    "duplicated_cas_no": "1195175-43-9",
    "SMILES": "OC1=C2C(=CN=C1C)COC2.Cl",
    "meta_data": {
        "InChI": "InChI=1S/C8H9NO2.ClH/c1-5-8(10)7-4-11-3-6(7)2-9-5;/h2,10H,3-4H2,1H3;1H",
        "InChIKey": null,
        "Canonical SMILES": "Cl.OC=1C(=NC=C2C1COC2)C",
        "Molecular Formula": "C<sub>8</sub>H<sub>9</sub>NO<sub>2</sub>.ClH",
        "Molecular Mass": "",
        "Melting Point": "239-240 °C (decomp)"
    }
}