{
    "cas_no": "65666-07-1",
    "key_name": "Silymarin",
    "cn_name": "水飞蓟素;2-(2,3-二氢-2-(4-羟基-3-甲氧基苯基)-3-羟甲基-1,4-苯并二恶烷-6-基)-2,3-二氢-3,5,7-三羟基-4H-;",
    "alternate_name": "Silymarin;Legalon 70;Legalon;Flavobion;Pluropon;Silirex;Silmar;Silarin;Apihepar;Silymarin Group;Silepar;Laragon;Karsilin;Silistrong;Silystrong;Darsil;Silybon;MeSH ID: D012838",
    "duplicated_cas_no": "",
    "SMILES": "",
    "meta_data": {
        "InChI": "",
        "InChIKey": null,
        "Canonical SMILES": "",
        "Molecular Formula": "Unspecified",
        "Molecular Mass": "",
        "Melting Point": "158 °C"
    }
}