{
    "uri": "substance/pt/65666071",
    "rn": "65666-07-1",
    "name": "Silymarin",
    "images": [],
    "inchi": "",
    "inchiKey": "",
    "smile": "",
    "canonicalSmile": "",
    "molecularFormula": "Unspecified",
    "molecularMass": "",
    "experimentalProperties": [
        {
            "name": "Melting Point",
            "property": "158 °C",
            "sourceNumber": 1
        }
    ],
    "propertyCitations": [
        {
            "docUri": "",
            "sourceNumber": 1,
            "source": "Drugs - Synonyms and Properties data were obtained from Ashgate Publishing Co. (US)"
        }
    ],
    "synonyms": [
        "Silymarin",
        "Legalon 70",
        "Legalon",
        "Flavobion",
        "Pluropon",
        "Silirex",
        "Silmar",
        "Silarin",
        "Apihepar",
        "Silymarin Group",
        "Silepar",
        "Laragon",
        "Karsilin",
        "Silistrong",
        "Silystrong",
        "Darsil",
        "Silybon",
        "MeSH ID: D012838"
    ],
    "replacedRns": [],
    "hasMolfile": false,
    "source": "https://commonchemistry.cas.org/detail?cas_rn=65666-07-1"
}