{
    "cas_no": "21149-38-2",
    "key_name": "<em>N</em>,<em>N</em>-Bis(trimethylsilyl)trifluoroacetamide",
    "cn_name": null,
    "alternate_name": "Acetamide, 2,2,2-trifluoro-<em>N</em>,<em>N</em>-bis(trimethylsilyl)-;2,2,2-Trifluoro-<em>N</em>,<em>N</em>-bis(trimethylsilyl)acetamide;<em>N</em>,<em>N</em>-Bis(trimethylsilyl)trifluoroacetamide",
    "duplicated_cas_no": "",
    "SMILES": "N(C(C(F)(F)F)=O)([Si](C)(C)C)[Si](C)(C)C",
    "meta_data": {
        "InChI": "InChI=1S/C8H18F3NOSi2/c1-14(2,3)12(15(4,5)6)7(13)8(9,10)11/h1-6H3",
        "InChIKey": null,
        "Canonical SMILES": "O=C(N([Si](C)(C)C)[Si](C)(C)C)C(F)(F)F",
        "Molecular Formula": "C<sub>8</sub>H<sub>18</sub>F<sub>3</sub>NOSi<sub>2</sub>",
        "Molecular Mass": "257.40",
        "Boiling Point": "47 °C @ Press: 27 Torr"
    }
}