{
    "cas_no": "298-14-6",
    "key_name": "Potassium bicarbonate",
    "cn_name": "碳酸氢钾;重碳酸钾;酸式碳酸钾;",
    "alternate_name": "Carbonic acid, potassium salt (1:1);Carbonic acid, monopotassium salt;Potassium acid carbonate;Potassium bicarbonate;Monopotassium carbonate;Potassium carbonate (KHCO<sub>3</sub>);Potassium hydrogen carbonate;Potassium bicarbonate (KHCO<sub>3</sub>);Purple K;Potassium hydrogen carbonate (KHCO<sub>3</sub>);Hydrogen potassium carbonate;Kaligreen;Armicarb;K-Lyte;Kafylox;Potassium hydrocarbonate;Milstop;EcoMate Armicarb &quot;O&quot;;EcoCarb",
    "duplicated_cas_no": "1182403-47-9",
    "SMILES": "C(=O)(O)O.[K]",
    "meta_data": {
        "InChI": "InChI=1S/CH2O3.K/c2-1(3)4;/h(H2,2,3,4);",
        "InChIKey": null,
        "Canonical SMILES": "[K].O=C(O)O",
        "Molecular Formula": "CH<sub>2</sub>O<sub>3</sub>.K",
        "Molecular Mass": "",
        "Melting Point": "100 °C"
    }
}