{
    "cas_no": "6921-29-5",
    "key_name": "Tripropargylamine",
    "cn_name": null,
    "alternate_name": "2-Propyn-1-amine, <em>N</em>,<em>N</em>-di-2-propyn-1-yl-;Tri-2-propynylamine;2-Propyn-1-amine, <em>N</em>,<em>N</em>-di-2-propynyl-;<em>N</em>,<em>N</em>-Di-2-propyn-1-yl-2-propyn-1-amine;Tripropargylamine;NSC 76089;Tri(prop-2-yn-1-yl)amine",
    "duplicated_cas_no": "2418616-41-6",
    "SMILES": "N(CC#C)(CC#C)CC#C",
    "meta_data": {
        "InChI": "InChI=1S/C9H9N/c1-4-7-10(8-5-2)9-6-3/h1-3H,7-9H2",
        "InChIKey": null,
        "Canonical SMILES": "C#CCN(CC#C)CC#C",
        "Molecular Formula": "C<sub>9</sub>H<sub>9</sub>N",
        "Molecular Mass": "131.17",
        "Boiling Point": "79-85 °C",
        "Density": "0.922 g/cm³ @ Temp: 16 °C"
    }
}