{
    "cas_no": "2455-24-5",
    "key_name": "Tetrahydrofurfuryl methacrylate",
    "cn_name": "甲基丙烯酸四氢糠基酯;2-甲基-2-丙烯酸(四氢-2-呋喃基)甲酯;",
    "alternate_name": "2-Propenoic acid, 2-methyl-, (tetrahydro-2-furanyl)methyl ester;Methacrylic acid, tetrahydrofurfuryl ester;Furfuryl alcohol, tetrahydro-, methacrylate;Sartomer SR 203;Tetrahydrofurfuryl methacrylate;SR 203;Acryester THF;NSC 32634;THFMA;FA-THFM;Sarbio 6100;(Tetrahydrofuran-2-yl)methyl methacrylate;(Oxolan-2-yl)methyl 2-methylprop-2-enoate;M 151;THF 1000;Light Ester THF;Visiomer THFMA;EM 314",
    "duplicated_cas_no": "125166-24-7;64461-15-0;160211-89-2",
    "SMILES": "C(OC(C(C)=C)=O)C1CCCO1",
    "meta_data": {
        "InChI": "InChI=1S/C9H14O3/c1-7(2)9(10)12-6-8-4-3-5-11-8/h8H,1,3-6H2,2H3",
        "InChIKey": null,
        "Canonical SMILES": "O=C(OCC1OCCC1)C(=C)C",
        "Molecular Formula": "C<sub>9</sub>H<sub>14</sub>O<sub>3</sub>",
        "Molecular Mass": "170.21",
        "Boiling Point": "59-62 °C @ Press: 0.60 Torr"
    }
}