{
    "cas_no": "949-90-6",
    "key_name": "Phenylmethyl <em>N</em>-(2-amino-2-oxoethyl)carbamate",
    "cn_name": null,
    "alternate_name": "Carbamic acid, <em>N</em>-(2-amino-2-oxoethyl)-, phenylmethyl ester;Carbamic acid, (carbamoylmethyl)-, benzyl ester;Carbamic acid, (2-amino-2-oxoethyl)-, phenylmethyl ester;Phenylmethyl <em>N</em>-(2-amino-2-oxoethyl)carbamate;Carbobenzoxyglycinamide;<em>N</em>-Benzyloxycarbonylglycinamide;Benzyloxycarbonylglycinamide;<em>N</em>-Benzyloxycarbonylglycine amide;NSC 88477;Cbz-glycinamide;Benzyl (2-amino-2-oxoethyl)carbamate",
    "duplicated_cas_no": "",
    "SMILES": "C(OC(NCC(N)=O)=O)C1=CC=CC=C1",
    "meta_data": {
        "InChI": "InChI=1S/C10H12N2O3/c11-9(13)6-12-10(14)15-7-8-4-2-1-3-5-8/h1-5H,6-7H2,(H2,11,13)(H,12,14)",
        "InChIKey": null,
        "Canonical SMILES": "O=C(OCC=1C=CC=CC1)NCC(=O)N",
        "Molecular Formula": "C<sub>10</sub>H<sub>12</sub>N<sub>2</sub>O<sub>3</sub>",
        "Molecular Mass": "208.21",
        "Melting Point": "144 °C"
    }
}