{
    "cas_no": "63547-13-7",
    "key_name": "Adrafinil",
    "cn_name": "艾捉非尼;2-[(二苯甲基)亚砜基]乙酰氧肟酸;",
    "alternate_name": "Acetamide, 2-[(diphenylmethyl)sulfinyl]-<em>N</em>-hydroxy-;2-[(Diphenylmethyl)sulfinyl]-<em>N</em>-hydroxyacetamide;CRL 40028;Adrafinil;Olmifon;2-Benzhydrylsulfinyl-<em>N</em>-hydroxyacetamide",
    "duplicated_cas_no": "",
    "SMILES": "C(S(CC(NO)=O)=O)(C1=CC=CC=C1)C2=CC=CC=C2",
    "meta_data": {
        "InChI": "InChI=1S/C15H15NO3S/c17-14(16-18)11-20(19)15(12-7-3-1-4-8-12)13-9-5-2-6-10-13/h1-10,15,18H,11H2,(H,16,17)",
        "InChIKey": null,
        "Canonical SMILES": "O=C(NO)CS(=O)C(C=1C=CC=CC1)C=2C=CC=CC2",
        "Molecular Formula": "C<sub>15</sub>H<sub>15</sub>NO<sub>3</sub>S",
        "Molecular Mass": "289.35",
        "Melting Point": "159-160 °C"
    }
}