{
    "cas_no": "59702-31-7",
    "key_name": "1-Ethyl-2,3-piperazinedione",
    "cn_name": "N-乙基-2,3-二酮哌嗪;N-乙基双氧哌嗪;双酮乙哌;",
    "alternate_name": "2,3-Piperazinedione, 1-ethyl-;1-Ethyl-2,3-piperazinedione;1-Ethyl-2,3-dioxopiperazine;T 1982C;<em>N</em>-Ethylpiperazine-2,3-dione;<em>N</em>-Ethyl-2,3-dioxopiperazine",
    "duplicated_cas_no": "",
    "SMILES": "C(C)N1C(=O)C(=O)NCC1",
    "meta_data": {
        "InChI": "InChI=1S/C6H10N2O2/c1-2-8-4-3-7-5(9)6(8)10/h2-4H2,1H3,(H,7,9)",
        "InChIKey": null,
        "Canonical SMILES": "O=C1NCCN(C1=O)CC",
        "Molecular Formula": "C<sub>6</sub>H<sub>10</sub>N<sub>2</sub>O<sub>2</sub>",
        "Molecular Mass": "142.16",
        "Melting Point": "143-145 °C"
    }
}