{
    "cas_no": "4534-73-0",
    "key_name": "1,2,3,4-Butanetetracarboxylic dianhydride",
    "cn_name": "1,2,3,4-丁烷四羧酸二酐;",
    "alternate_name": "[3,3′-Bifuran]-2,2′,5,5′-tetrone, tetrahydro-;1,2,3,4-Butanetetracarboxylic 1,2:3,4-dianhydride;Tetrahydro[3,3′-bifuran]-2,2′,5,5′-tetrone;1,2,3,4-Butanetetracarboxylic acid dianhydride;1,2,3,4-Butanetetracarboxylic dianhydride;Rikacid BT 100;BT 100;Tetrahydro-[3,3′-bifuran]-2,2′,5,5′-tetraone",
    "duplicated_cas_no": "171090-74-7",
    "SMILES": "O=C1C(CC(=O)O1)C2CC(=O)OC2=O",
    "meta_data": {
        "InChI": "InChI=1S/C8H6O6/c9-5-1-3(7(11)13-5)4-2-6(10)14-8(4)12/h3-4H,1-2H2",
        "InChIKey": null,
        "Canonical SMILES": "O=C1OC(=O)C(C1)C2C(=O)OC(=O)C2",
        "Molecular Formula": "C<sub>8</sub>H<sub>6</sub>O<sub>6</sub>",
        "Molecular Mass": "198.13",
        "Melting Point": "242-243.5 °C"
    }
}