{
    "cas_no": "18607-90-4",
    "key_name": "Kakuol",
    "cn_name": null,
    "alternate_name": "1-Propanone, 1-(6-hydroxy-1,3-benzodioxol-5-yl)-;Propiophenone, 2′-hydroxy-4′,5′-(methylenedioxy)-;1-(6-Hydroxy-1,3-benzodioxol-5-yl)-1-propanone;Kakuol;2-Hydroxy-4,5-methylenedioxypropiophenone",
    "duplicated_cas_no": "",
    "SMILES": "C(CC)(=O)C=1C=C2C(=CC1O)OCO2",
    "meta_data": {
        "InChI": "InChI=1S/C10H10O4/c1-2-7(11)6-3-9-10(4-8(6)12)14-5-13-9/h3-4,12H,2,5H2,1H3",
        "InChIKey": null,
        "Canonical SMILES": "O=C(C=1C=C2OCOC2=CC1O)CC",
        "Molecular Formula": "C<sub>10</sub>H<sub>10</sub>O<sub>4</sub>",
        "Molecular Mass": "194.18",
        "Melting Point": "110 °C"
    }
}