{
    "cas_no": "77112-53-9",
    "key_name": "Imidazo[1,2-<em>a</em>]pyrazine-2-carboxylic acid",
    "cn_name": null,
    "alternate_name": "Imidazo[1,2-<em>a</em>]pyrazine-2-carboxylic acid",
    "duplicated_cas_no": "",
    "SMILES": "C(O)(=O)C=1N=C2N(C1)C=CN=C2",
    "meta_data": {
        "InChI": "InChI=1S/C7H5N3O2/c11-7(12)5-4-10-2-1-8-3-6(10)9-5/h1-4H,(H,11,12)",
        "InChIKey": null,
        "Canonical SMILES": "O=C(O)C=1N=C2C=NC=CN2C1",
        "Molecular Formula": "C<sub>7</sub>H<sub>5</sub>N<sub>3</sub>O<sub>2</sub>",
        "Molecular Mass": "163.13",
        "Melting Point": "280 °C (decomp)"
    }
}