{
    "cas_no": "915095-86-2",
    "key_name": "(2-Chloro-5-iodophenyl)(4-fluorophenyl)methanone",
    "cn_name": null,
    "alternate_name": "Methanone, (2-chloro-5-iodophenyl)(4-fluorophenyl)-;(2-Chloro-5-iodophenyl)(4-fluorophenyl)methanone",
    "duplicated_cas_no": "",
    "SMILES": "C(=O)(C1=C(Cl)C=CC(I)=C1)C2=CC=C(F)C=C2",
    "meta_data": {
        "InChI": "InChI=1S/C13H7ClFIO/c14-12-6-5-10(16)7-11(12)13(17)8-1-3-9(15)4-2-8/h1-7H",
        "InChIKey": null,
        "Canonical SMILES": "O=C(C1=CC=C(F)C=C1)C2=CC(I)=CC=C2Cl",
        "Molecular Formula": "C<sub>13</sub>H<sub>7</sub>ClFIO",
        "Molecular Mass": "360.55",
        "Melting Point": "69-70 °C"
    }
}