{
    "cas_no": "162648-54-6",
    "key_name": "1-[(Fmoc)amino]cyclohexanecarboxylic acid",
    "cn_name": "1-(FMOC-氨基)环己羧酸;",
    "alternate_name": "Cyclohexanecarboxylic acid, 1-[[(9<em>H</em>-fluoren-9-ylmethoxy)carbonyl]amino]-;1-[[(9<em>H</em>-Fluoren-9-ylmethoxy)carbonyl]amino]cyclohexanecarboxylic acid;1-[(Fmoc)amino]cyclohexanecarboxylic acid;1-([[(9<em>H</em>-Fluoren-9-yl)methoxy]carbonyl]amino)cyclohexane-1-carboxylic acid;1-[[(9<em>H</em>-Fluoren-9-ylmethoxy)carbonyl]amino]cyclohexane-1-carboxylic acid;Fmoc-cLeu-OH",
    "duplicated_cas_no": "",
    "SMILES": "C(OC(NC1(C(O)=O)CCCCC1)=O)C2C=3C(C=4C2=CC=CC4)=CC=CC3",
    "meta_data": {
        "InChI": "InChI=1S/C22H23NO4/c24-20(25)22(12-6-1-7-13-22)23-21(26)27-14-19-17-10-4-2-8-15(17)16-9-3-5-11-18(16)19/h2-5,8-11,19H,1,6-7,12-14H2,(H,23,26)(H,24,25)",
        "InChIKey": null,
        "Canonical SMILES": "O=C(OCC1C=2C=CC=CC2C=3C=CC=CC31)NC4(C(=O)O)CCCCC4",
        "Molecular Formula": "C<sub>22</sub>H<sub>23</sub>NO<sub>4</sub>",
        "Molecular Mass": "365.42",
        "Melting Point": "171-172 °C"
    }
}