{
    "cas_no": "4551-72-8",
    "key_name": "Pyrrole-2-carboxamide",
    "cn_name": null,
    "alternate_name": "1<em>H</em>-Pyrrole-2-carboxamide;Pyrrole-2-carboxamide",
    "duplicated_cas_no": "",
    "SMILES": "C(N)(=O)C1=CC=CN1",
    "meta_data": {
        "InChI": "InChI=1S/C5H6N2O/c6-5(8)4-2-1-3-7-4/h1-3,7H,(H2,6,8)",
        "InChIKey": null,
        "Canonical SMILES": "O=C(N)C1=CC=CN1",
        "Molecular Formula": "C<sub>5</sub>H<sub>6</sub>N<sub>2</sub>O",
        "Molecular Mass": "110.11",
        "Melting Point": "174 °C"
    }
}