{
    "cas_no": "7439-93-2",
    "key_name": "Lithium",
    "cn_name": "锂;金属锂;",
    "alternate_name": "Lithium;Lithium element;Lithium atom;Lectro Max Powder 150;NP 03;LectroMax 100;MeSH ID: D008094",
    "duplicated_cas_no": "",
    "SMILES": "[Li]",
    "meta_data": {
        "InChI": "InChI=1S/Li",
        "InChIKey": null,
        "Canonical SMILES": "[Li]",
        "Molecular Formula": "Li",
        "Molecular Mass": "",
        "Boiling Point": "1342 °C",
        "Melting Point": "180.54 °C",
        "Density": "0.534 g/cm³ @ Temp: 20 °C"
    }
}