{
    "cas_no": "142-73-4",
    "key_name": "Iminodiacetic acid",
    "cn_name": "亚氨基二乙酸;",
    "alternate_name": "Glycine, <em>N</em>-(carboxymethyl)-;Acetic acid, iminodi-;<em>N</em>-(Carboxymethyl)glycine;Aminodiacetic acid;Diglycine;IDA;Iminobis(acetic acid);Iminodiacetic acid;Iminodiethanoic acid;Acetic acid, 2,2′-iminobis-;Diglycin;Diglycocoll;IDA (chelating agent);α-Iminodiacetic acid;IMDA;((Carboxymethyl)amino)acetic acid;NSC 18467;2,2′-Azanediyldiacetic acid;2-[(Carboxymethyl)amino]acetic acid;2-(Carboxymethylamino)acetic acid",
    "duplicated_cas_no": "57759-17-8;1404190-36-8",
    "SMILES": "N(CC(O)=O)CC(O)=O",
    "meta_data": {
        "InChI": "InChI=1S/C4H7NO4/c6-3(7)1-5-2-4(8)9/h5H,1-2H2,(H,6,7)(H,8,9)",
        "InChIKey": null,
        "Canonical SMILES": "O=C(O)CNCC(=O)O",
        "Molecular Formula": "C<sub>4</sub>H<sub>7</sub>NO<sub>4</sub>",
        "Molecular Mass": "133.10",
        "Boiling Point": "126-127 °C @ Press: 13.5 Torr",
        "Melting Point": "247.5 °C"
    }
}