{
    "cas_no": "13569-65-8",
    "key_name": "Rhodium trichloride trihydrate",
    "cn_name": "三水合三氯化銠;",
    "alternate_name": "Rhodium chloride (RhCl<sub>3</sub>), trihydrate;Rhodium trichloride trihydrate;Rhodium(III) chloride trihydrate;Trichlororhodium trihydrate;Rhodium(3+) trichloride trihydrate;Rhodium chloride trihydrate",
    "duplicated_cas_no": "",
    "SMILES": "[Rh](Cl)(Cl)Cl.O",
    "meta_data": {
        "InChI": "InChI=1S/3ClH.3H2O.Rh/h3*1H;3*1H2;/q;;;;;;+3/p-3",
        "InChIKey": null,
        "Canonical SMILES": "Cl[Rh](Cl)Cl.O",
        "Molecular Formula": "Cl<sub>3</sub>Rh.3H<sub>2</sub>O",
        "Molecular Mass": "",
        "Melting Point": "100 °C (decomp)",
        "Density": "1 g/cm³"
    }
}