{
    "cas_no": "110238-91-0",
    "key_name": "2<em>H</em>-Pyran-4-carboxylic acid, tetrahydro-, methyl ester",
    "cn_name": "四氢吡喃-4-羧酸甲酯;",
    "alternate_name": "2<em>H</em>-Pyran-4-carboxylic acid, tetrahydro-, methyl ester;Methyl tetrahydropyran-4-carboxylate;Tetrahydropyran-4-carboxylic acid methyl ester;Methyl tetrahydro-2<em>H</em>-pyran-4-carboxylate;4-(Methoxycarbonyl)tetrahydropyran;Tetrahydro-2<em>H</em>-pyran-4-carboxylic acid methyl ester",
    "duplicated_cas_no": "",
    "SMILES": "C(OC)(=O)C1CCOCC1",
    "meta_data": {
        "InChI": "InChI=1S/C7H12O3/c1-9-7(8)6-2-4-10-5-3-6/h6H,2-5H2,1H3",
        "InChIKey": null,
        "Canonical SMILES": "O=C(OC)C1CCOCC1",
        "Molecular Formula": "C<sub>7</sub>H<sub>12</sub>O<sub>3</sub>",
        "Molecular Mass": "144.17",
        "Boiling Point": "80.5-81 °C @ Press: 16 Torr",
        "Melting Point": "78 °C"
    }
}