{
    "cas_no": "487-51-4",
    "key_name": "Ethyl 2-methyl-4-oxo-2-cyclohexene-1-carboxylate",
    "cn_name": "2-甲基-4-羰基-2-环己烯-1-羧酸乙酯;",
    "alternate_name": "2-Cyclohexene-1-carboxylic acid, 2-methyl-4-oxo-, ethyl ester;Ethyl 2-methyl-4-oxo-2-cyclohexene-1-carboxylate;Hagemann's ester;Ethyl 2-methyl-4-oxo-2-cyclohexenecarboxylate;4-Carbethoxy-3-methyl-2-cyclohexen-1-one;2-Methyl-4-oxo-2-cyclohexene-1-carboxylic acid ethyl ester;4-Ethoxycarbonyl-3-methyl-2-cyclohexen-1-one;Ethyl 4-oxo-2-methyl-2-cyclohexenecarboxylate;NSC 60294",
    "duplicated_cas_no": "59323-55-6;1190366-81-4",
    "SMILES": "C(OCC)(=O)C1C(C)=CC(=O)CC1",
    "meta_data": {
        "InChI": "InChI=1S/C10H14O3/c1-3-13-10(12)9-5-4-8(11)6-7(9)2/h6,9H,3-5H2,1-2H3",
        "InChIKey": null,
        "Canonical SMILES": "O=C(OCC)C1C(=CC(=O)CC1)C",
        "Molecular Formula": "C<sub>10</sub>H<sub>14</sub>O<sub>3</sub>",
        "Molecular Mass": "182.22",
        "Boiling Point": "135-136 °C @ Press: 9 Torr",
        "Density": "1.0702 g/cm³ @ Temp: 20 °C"
    }
}