{
    "cas_no": "2133-40-6",
    "key_name": "<span class=\"text-smallcaps\">L</span>-Proline, methyl ester, hydrochloride (1:1)",
    "cn_name": "L-脯氨酸甲酯盐酸盐;",
    "alternate_name": "<span class=\"text-smallcaps\">L</span>-Proline, methyl ester, hydrochloride (1:1);<span class=\"text-smallcaps\">L</span>-Proline, methyl ester, hydrochloride;Proline, methyl ester, hydrochloride, <span class=\"text-smallcaps\">L</span>-;Methyl prolinate hydrochloride;(<em>S</em>)-Proline methyl ester hydrochloride;Methyl <span class=\"text-smallcaps\">L</span>-prolinate hydrochloride;Methyl proline hydrochloride;<span class=\"text-smallcaps\">L</span>-Proline methyl ester monohydrochloride;(2<em>S</em>)-(Methoxycarbonyl)pyrrolidine hydrochloride;(<em>S</em>)-Methyl pyrrolidine-2-carboxylate hydrochloride;(<em>S</em>)-Pyrrolidine-2-carboxylic acid methyl ester hydrochloride;<span class=\"text-smallcaps\">L</span>-Pro-OMe hydrochloride;Methyl L-prolinate hydrochloride;Methyl <span class=\"text-smallcaps\">L</span>-prolinate hydrochloric acid salt;Methyl (2S)-pyrrolidine-2-carboxylate hydrochloride;2-Pyrrolidineacetic acid, α-oxo-, methyl ester, hydrochloride (1:1), (2<em>S</em>)-",
    "duplicated_cas_no": "190017-88-0;2909533-24-8",
    "SMILES": "C(OC)(=O)[C@@H]1CCCN1.Cl",
    "meta_data": {
        "InChI": "InChI=1S/C6H11NO2.ClH/c1-9-6(8)5-3-2-4-7-5;/h5,7H,2-4H2,1H3;1H/t5-;/m0./s1",
        "InChIKey": null,
        "Canonical SMILES": "Cl.O=C(OC)C1NCCC1",
        "Molecular Formula": "C<sub>6</sub>H<sub>11</sub>NO<sub>2</sub>.ClH",
        "Molecular Mass": "",
        "Melting Point": "71 °C"
    }
}