{
    "cas_no": "1592-70-7",
    "key_name": "Isokaempferide",
    "cn_name": null,
    "alternate_name": "4<em>H</em>-1-Benzopyran-4-one, 5,7-dihydroxy-2-(4-hydroxyphenyl)-3-methoxy-;Flavone, 4′,5,7-trihydroxy-3-methoxy-;5,7-Dihydroxy-2-(4-hydroxyphenyl)-3-methoxy-4<em>H</em>-1-benzopyran-4-one;3-Methylkaempferol;Isokaempferide;3-<em>O</em>-Methylkaempferol;Kaempferol 3-methyl ether;Apigenin 3-<em>O</em>-methyl ether;Kaempferol 3-monomethyl ether;5,7,4′-Trihydroxy-3-methoxyflavone;Kaempferol 3-<em>O</em>-methyl ether;3-<em>O</em>-Methylgalangine",
    "duplicated_cas_no": "",
    "SMILES": "O=C1C=2C(OC(=C1OC)C3=CC=C(O)C=C3)=CC(O)=CC2O",
    "meta_data": {
        "InChI": "InChI=1S/C16H12O6/c1-21-16-14(20)13-11(19)6-10(18)7-12(13)22-15(16)8-2-4-9(17)5-3-8/h2-7,17-19H,1H3",
        "InChIKey": null,
        "Canonical SMILES": "O=C1C(OC)=C(OC=2C=C(O)C=C(O)C12)C=3C=CC(O)=CC3",
        "Molecular Formula": "C<sub>16</sub>H<sub>12</sub>O<sub>6</sub>",
        "Molecular Mass": "300.26",
        "Melting Point": "270-272 °C"
    }
}