{
    "cas_no": "10441-27-7",
    "key_name": "3-Acetyl-7-hydroxy-2<em>H</em>-1-benzopyran-2-one",
    "cn_name": null,
    "alternate_name": "2<em>H</em>-1-Benzopyran-2-one, 3-acetyl-7-hydroxy-;Coumarin, 3-acetyl-7-hydroxy-;Umbelliferone, 3-acetyl-;3-Acetyl-7-hydroxy-2<em>H</em>-1-benzopyran-2-one;3-Acetyl-7-hydroxycoumarin;7-Hydroxy-3-acetylcoumarin;3-Acetylumbelliferone;3-Acetyl-7-hydroxychromen-2-one;3-Acetyl-7-hydroxy-2<em>H</em>-chromen-2-one",
    "duplicated_cas_no": "",
    "SMILES": "O=C1OC=2C(C=C1C(C)=O)=CC=C(O)C2",
    "meta_data": {
        "InChI": "InChI=1S/C11H8O4/c1-6(12)9-4-7-2-3-8(13)5-10(7)15-11(9)14/h2-5,13H,1H3",
        "InChIKey": null,
        "Canonical SMILES": "O=C1OC=2C=C(O)C=CC2C=C1C(=O)C",
        "Molecular Formula": "C<sub>11</sub>H<sub>8</sub>O<sub>4</sub>",
        "Molecular Mass": "204.18",
        "Melting Point": "236 °C"
    }
}