{
    "cas_no": "2831-66-5",
    "key_name": "Dichloro-<em>s</em>-triazine",
    "cn_name": "2,4-二氯-1,3,5-三嗪;2,4-二氯-1,3,5-三嗪;",
    "alternate_name": "1,3,5-Triazine, 2,4-dichloro-;<em>s</em>-Triazine, 2,4-dichloro-;2,4-Dichloro-1,3,5-triazine;Dichloro-<em>s</em>-triazine;2,4-Dichloro-<em>sym</em>-triazine;4,6-Dichloro-<em>s</em>-triazine;2,6-Dichloro-1,3,5-triazine;2,4-Dichloro-<em>s</em>-triazine;2,4-Dichlorotriazine;Eco-Ever 6;Ekoeba 6",
    "duplicated_cas_no": "873446-28-7",
    "SMILES": "ClC=1N=C(Cl)N=CN1",
    "meta_data": {
        "InChI": "InChI=1S/C3HCl2N3/c4-2-6-1-7-3(5)8-2/h1H",
        "InChIKey": null,
        "Canonical SMILES": "ClC1=NC=NC(Cl)=N1",
        "Molecular Formula": "C<sub>3</sub>HCl<sub>2</sub>N<sub>3</sub>",
        "Molecular Mass": "149.97",
        "Boiling Point": "80-90 °C @ Press: 40 Torr",
        "Melting Point": "50-52 °C"
    }
}