{
    "cas_no": "7803-68-1",
    "key_name": "Telluric acid (H<sub>6</sub>TeO<sub>6</sub>)",
    "cn_name": "碲酸;碲酸;",
    "alternate_name": "Telluric acid (H<sub>6</sub>TeO<sub>6</sub>);Telluric(VI) acid (H<sub>6</sub>TeO<sub>6</sub>);Orthotelluric acid;Tellurium hexahydroxide;Tellurium hydroxide (Te(OH)<sub>6</sub>);Hydrogen tellurate (H<sub>6</sub>TeO<sub>6</sub>)",
    "duplicated_cas_no": "112667-95-5;75492-45-4;86381-95-5;761447-58-9",
    "SMILES": "[Te](O)(O)(O)(O)(O)O",
    "meta_data": {
        "InChI": "InChI=1S/H6O6Te/c1-7(2,3,4,5)6/h1-6H",
        "InChIKey": null,
        "Canonical SMILES": "O[Te](O)(O)(O)(O)O",
        "Molecular Formula": "H<sub>6</sub>O<sub>6</sub>Te",
        "Molecular Mass": "",
        "Boiling Point": "0 °C"
    }
}