{
    "cas_no": "157212-55-0",
    "key_name": "Bosentan monohydrate",
    "cn_name": "波生坦(水合物);N-[6-(2-羟基乙氧基)-5-(2-甲氧基苯氧基)-2-嘧啶-2-基-嘧啶-4-基]-4-叔丁基苯磺酰胺水合物;",
    "alternate_name": "Benzenesulfonamide, 4-(1,1-dimethylethyl)-<em>N</em>-[6-(2-hydroxyethoxy)-5-(2-methoxyphenoxy)[2,2′-bipyrimidin]-4-yl]-, hydrate (1:1);Benzenesulfonamide, 4-(1,1-dimethylethyl)-<em>N</em>-[6-(2-hydroxyethoxy)-5-(2-methoxyphenoxy)[2,2′-bipyrimidin]-4-yl]-, monohydrate;Bosentan hydrate;Bosentan monohydrate;Stayveer",
    "duplicated_cas_no": "",
    "SMILES": "O(C=1C(NS(=O)(=O)C2=CC=C(C(C)(C)C)C=C2)=NC(=NC1OCCO)C=3N=CC=CN3)C4=C(OC)C=CC=C4.O",
    "meta_data": {
        "InChI": "InChI=1S/C27H29N5O6S.H2O/c1-27(2,3)18-10-12-19(13-11-18)39(34,35)32-23-22(38-21-9-6-5-8-20(21)36-4)26(37-17-16-33)31-25(30-23)24-28-14-7-15-29-24;/h5-15,33H,16-17H2,1-4H3,(H,30,31,32);1H2",
        "InChIKey": null,
        "Canonical SMILES": "O=S(=O)(NC=1N=C(N=C(OCCO)C1OC=2C=CC=CC2OC)C3=NC=CC=N3)C4=CC=C(C=C4)C(C)(C)C.O",
        "Molecular Formula": "C<sub>27</sub>H<sub>29</sub>N<sub>5</sub>O<sub>6</sub>S.H<sub>2</sub>O",
        "Molecular Mass": "",
        "Melting Point": "114-118 °C"
    }
}