{
    "cas_no": "17573-92-1",
    "key_name": "3-Methoxythiophene",
    "cn_name": "3-甲氧基噻吩;",
    "alternate_name": "Thiophene, 3-methoxy-;3-Methoxythiophene;Methyl 3-thienyl ether;3-Methoxythiofuran",
    "duplicated_cas_no": "",
    "SMILES": "O(C)C=1C=CSC1",
    "meta_data": {
        "InChI": "InChI=1S/C5H6OS/c1-6-5-2-3-7-4-5/h2-4H,1H3",
        "InChIKey": null,
        "Canonical SMILES": "O(C1=CSC=C1)C",
        "Molecular Formula": "C<sub>5</sub>H<sub>6</sub>OS",
        "Molecular Mass": "114.17",
        "Boiling Point": "80-82 °C @ Press: 65 Torr",
        "Melting Point": "49-50 °C"
    }
}