{
    "cas_no": "199666-03-0",
    "key_name": "3,4-Dimethoxy-<em>N</em>-[4-(3-nitrophenyl)-2-thiazolyl]benzenesulfonamide",
    "cn_name": null,
    "alternate_name": "Benzenesulfonamide, 3,4-dimethoxy-<em>N</em>-[4-(3-nitrophenyl)-2-thiazolyl]-;3,4-Dimethoxy-<em>N</em>-[4-(3-nitrophenyl)-2-thiazolyl]benzenesulfonamide;Ro 61-8048;3,4-Dimethoxy-<em>N</em>-[4-(3-nitrophenyl)-1,3-thiazol-2-yl]benzenesulfonamide",
    "duplicated_cas_no": "",
    "SMILES": "N(S(=O)(=O)C1=CC(OC)=C(OC)C=C1)C2=NC(=CS2)C3=CC(N(=O)=O)=CC=C3",
    "meta_data": {
        "InChI": "InChI=1S/C17H15N3O6S2/c1-25-15-7-6-13(9-16(15)26-2)28(23,24)19-17-18-14(10-27-17)11-4-3-5-12(8-11)20(21)22/h3-10H,1-2H3,(H,18,19)",
        "InChIKey": null,
        "Canonical SMILES": "O=N(=O)C1=CC=CC(=C1)C=2N=C(SC2)NS(=O)(=O)C3=CC=C(OC)C(OC)=C3",
        "Molecular Formula": "C<sub>17</sub>H<sub>15</sub>N<sub>3</sub>O<sub>6</sub>S<sub>2</sub>",
        "Molecular Mass": "421.45",
        "Melting Point": "185 °C"
    }
}