{
    "cas_no": "15448-99-4",
    "key_name": "<em>N</em>-Methylsaccharin",
    "cn_name": "N-甲基糖精;",
    "alternate_name": "1,2-Benzisothiazol-3(2<em>H</em>)-one, 2-methyl-, 1,1-dioxide;1,2-Benzisothiazolin-3-one, 2-methyl-, 1,1-dioxide;<em>N</em>-Methylsaccharin;2-Methyl-1,2-benzisothiazolin-3-one 1,1-dioxide;<em>N</em>-Methylbenzoic sulfimide;NSC 39120;2-Methyl-1,2-benzisothiazol-3-one 1,1-dioxide;2-Methylbenzo[<em>d</em>]isothiazol-3(2<em>H</em>)-one 1,1-dioxide;2-Methyl-1,1-dioxo-1,2-dihydro-1λ*6*-benzo[<em>d</em>]isothiazol-3-one;2-Methylbenzo[<em>d</em>]isothiazol-3(2<em>H</em>)-one1,1-dioxide;2-Methyl-1,1-dioxo-1,2-benzothiazol-3-one;2-Methyl-2,3-dihydro-1λ6,2-benzothiazole-1,1,3-trione",
    "duplicated_cas_no": "",
    "SMILES": "O=C1C=2C(S(=O)(=O)N1C)=CC=CC2",
    "meta_data": {
        "InChI": "InChI=1S/C8H7NO3S/c1-9-8(10)6-4-2-3-5-7(6)13(9,11)12/h2-5H,1H3",
        "InChIKey": null,
        "Canonical SMILES": "O=C1C=2C=CC=CC2S(=O)(=O)N1C",
        "Molecular Formula": "C<sub>8</sub>H<sub>7</sub>NO<sub>3</sub>S",
        "Molecular Mass": "197.21",
        "Melting Point": "130 °C"
    }
}