{
    "cas_no": "3200-06-4",
    "key_name": "Naftidrofuryl oxalate",
    "cn_name": "草酸萘呋胺;萘呋胺酯草酸盐;alpha-(1-萘甲基)-2-四氢呋喃丙酸二乙胺基乙基酯草酸盐;",
    "alternate_name": "2-Furanpropanoic acid, tetrahydro-α-(1-naphthalenylmethyl)-, 2-(diethylamino)ethyl ester, ethanedioate (1:1);2-Furanpropionic acid, tetrahydro-α-(1-naphthylmethyl)-, 2-(diethylamino)ethyl ester oxalate (1:1);Nafronyl oxalate;Naftidrofuryl oxalate;Praxilene;LS 121;Dusodril;Dubimax;EU 1806;Iridus;Naphtidrofuryl oxalate;Di-Actane;Citoxid;Nafronyl acid oxalate;NSC 225233",
    "duplicated_cas_no": "26263-44-5",
    "SMILES": "C(C(CC1CCCO1)C(OCCN(CC)CC)=O)C=2C3=C(C=CC2)C=CC=C3.C(C(O)=O)(O)=O",
    "meta_data": {
        "InChI": "InChI=1S/C24H33NO3.C2H2O4/c1-3-25(4-2)14-16-28-24(26)21(18-22-12-8-15-27-22)17-20-11-7-10-19-9-5-6-13-23(19)20;3-1(4)2(5)6/h5-7,9-11,13,21-22H,3-4,8,12,14-18H2,1-2H3;(H,3,4)(H,5,6)",
        "InChIKey": null,
        "Canonical SMILES": "O=C(O)C(=O)O.O=C(OCCN(CC)CC)C(CC1=CC=CC=2C=CC=CC21)CC3OCCC3",
        "Molecular Formula": "C<sub>24</sub>H<sub>33</sub>NO<sub>3</sub>.C<sub>2</sub>H<sub>2</sub>O<sub>4</sub>",
        "Molecular Mass": "",
        "Melting Point": "110-111 °C"
    }
}