{
    "cas_no": "1571-75-1",
    "key_name": "1,1-Bis(4-hydroxyphenyl)-1-phenylethane",
    "cn_name": "4,4\"-(1-苯乙基)双酚；双酚AP;",
    "alternate_name": "Phenol, 4,4′-(1-phenylethylidene)bis-;Phenol, 4,4′-(α-methylbenzylidene)di-;4,4′-(1-Phenylethylidene)bis[phenol];1,1-Bis(4-hydroxyphenyl)-1-phenylethane;4,4′-(α-Methylbenzylidene)diphenol;Bis(4-hydroxyphenyl)methylphenylmethane;Bisphenol ACP;4,4′-(1-Phenylethylidene)diphenol;Bisphenol AP;Bisp-Ap;NK-AP;α,α-Bis(4-hydroxyphenyl)ethylbenzene;1-Phenyl-1,1-bis(4-hydroxyphenyl)ethane;4,4′-(α-Methylbenzylidene)bisphenol",
    "duplicated_cas_no": "",
    "SMILES": "C(C)(C1=CC=C(O)C=C1)(C2=CC=C(O)C=C2)C3=CC=CC=C3",
    "meta_data": {
        "InChI": "InChI=1S/C20H18O2/c1-20(15-5-3-2-4-6-15,16-7-11-18(21)12-8-16)17-9-13-19(22)14-10-17/h2-14,21-22H,1H3",
        "InChIKey": null,
        "Canonical SMILES": "OC1=CC=C(C=C1)C(C=2C=CC=CC2)(C3=CC=C(O)C=C3)C",
        "Molecular Formula": "C<sub>20</sub>H<sub>18</sub>O<sub>2</sub>",
        "Molecular Mass": "290.36",
        "Melting Point": "175 °C"
    }
}