{
    "cas_no": "152044-53-6",
    "key_name": "Epothilone A",
    "cn_name": null,
    "alternate_name": "4,17-Dioxabicyclo[14.1.0]heptadecane-5,9-dione, 7,11-dihydroxy-8,8,10,12-tetramethyl-3-[(1<em>E</em>)-1-methyl-2-(2-methyl-4-thiazolyl)ethenyl]-, (1<em>S</em>,3<em>S</em>,7<em>S</em>,10<em>R</em>,11<em>S</em>,12<em>S</em>,16<em>R</em>)-;4,17-Dioxabicyclo[14.1.0]heptadecane-5,9-dione, 7,11-dihydroxy-8,8,10,12-tetramethyl-3-[1-methyl-2-(2-methyl-4-thiazolyl)ethenyl]-, [1<em>R</em>*,3<em>R</em>*(<em>E</em>),7<em>R</em>*,10<em>S</em>*,11<em>R</em>*,12<em>R</em>*,16<em>S</em>*]-;(1<em>S</em>,3<em>S</em>,7<em>S</em>,10<em>R</em>,11<em>S</em>,12<em>S</em>,16<em>R</em>)-7,11-Dihydroxy-8,8,10,12-tetramethyl-3-[(1<em>E</em>)-1-methyl-2-(2-methyl-4-thiazolyl)ethenyl]-4,17-dioxabicyclo[14.1.0]heptadecane-5,9-dione;Epothilone A;(-)-Epothilone A;Epo A",
    "duplicated_cas_no": "186692-57-9",
    "SMILES": "C(=C\\C=1N=C(C)SC1)(\\C)/[C@@H]2C[C@]3([C@](O3)(CCC[C@H](C)[C@H](O)[C@@H](C)C(=O)C(C)(C)[C@@H](O)CC(=O)O2)[H])[H]",
    "meta_data": {
        "InChI": "InChI=1S/C26H39NO6S/c1-14-8-7-9-19-21(32-19)11-20(15(2)10-18-13-34-17(4)27-18)33-23(29)12-22(28)26(5,6)25(31)16(3)24(14)30/h10,13-14,16,19-22,24,28,30H,7-9,11-12H2,1-6H3/b15-10+/t14-,16+,19+,20-,21-,22-,24-/m0/s1",
        "InChIKey": null,
        "Canonical SMILES": "O=C1OC(C(=CC=2N=C(SC2)C)C)CC3OC3CCCC(C)C(O)C(C(=O)C(C)(C)C(O)C1)C",
        "Molecular Formula": "C<sub>26</sub>H<sub>39</sub>NO<sub>6</sub>S",
        "Molecular Mass": "493.66",
        "Melting Point": "95 °C"
    }
}