{
    "cas_no": "123-12-6",
    "key_name": "<em>N</em>,<em>N</em>,<em>N</em>′′,<em>N</em>′′-Tetraethyldiethylenetriamine",
    "cn_name": "N,N,N,N-四乙基二乙烯三胺;",
    "alternate_name": "1,2-Ethanediamine, <em>N</em><sup>2</sup>-[2-(diethylamino)ethyl]-<em>N</em><sup>1</sup>,<em>N</em><sup>1</sup>-diethyl-;Diethylenetriamine, 1,1,7,7-tetraethyl-;1,2-Ethanediamine, <em>N</em>′-[2-(diethylamino)ethyl]-<em>N</em>,<em>N</em>-diethyl-;<em>N</em><sup>2</sup>-[2-(Diethylamino)ethyl]-<em>N</em><sup>1</sup>,<em>N</em><sup>1</sup>-diethyl-1,2-ethanediamine;3,9-Diethyl-3,6,9-triazaundecane;Bis[2-(diethylamino)ethyl]amine;1,1,7,7-Tetraethyldiethylenetriamine;<em>N</em>,<em>N</em>,<em>N</em>′,<em>N</em>′-Tetraethyldiethylenetriamine;<em>N</em>,<em>N</em>,<em>N</em>′′,<em>N</em>′′-Tetraethylbis(2-aminoethyl)amine;NSC 21238;<em>N</em>-[2-(Diethylamino)ethyl]-<em>N</em>′,<em>N</em>′-diethylethane-1,2-diamine;Di[2-(diethylamino)ethyl]amine;<em>N</em>,<em>N</em>,<em>N</em>′′,<em>N</em>′′-Tetraethyldiethylenetriamine;1,2-Ethanediamine N2-[2-(diethylamino)ethyl]-N1,N1-diethyl-;(2-[[2-(Diethylamino)ethyl]amino]ethyl)diethylamine",
    "duplicated_cas_no": "",
    "SMILES": "N(CCNCCN(CC)CC)(CC)CC",
    "meta_data": {
        "InChI": "InChI=1S/C12H29N3/c1-5-14(6-2)11-9-13-10-12-15(7-3)8-4/h13H,5-12H2,1-4H3",
        "InChIKey": null,
        "Canonical SMILES": "N(CCN(CC)CC)CCN(CC)CC",
        "Molecular Formula": "C<sub>12</sub>H<sub>29</sub>N<sub>3</sub>",
        "Molecular Mass": "215.38",
        "Boiling Point": "155-157 °C @ Press: 50 Torr"
    }
}