{
    "cas_no": "3724-26-3",
    "key_name": "1<em>H</em>-Imidazole-2-methanol",
    "cn_name": null,
    "alternate_name": "1<em>H</em>-Imidazole-2-methanol;Imidazole-2-methanol;2-(Hydroxymethyl)imidazole;1<em>H</em>-Imidazol-2-ylmethanol;2-Hydroxymethyl-1<em>H</em>-imidazole",
    "duplicated_cas_no": "",
    "SMILES": "C(O)C=1NC=CN1",
    "meta_data": {
        "InChI": "InChI=1S/C4H6N2O/c7-3-4-5-1-2-6-4/h1-2,7H,3H2,(H,5,6)",
        "InChIKey": null,
        "Canonical SMILES": "OCC1=NC=CN1",
        "Molecular Formula": "C<sub>4</sub>H<sub>6</sub>N<sub>2</sub>O",
        "Molecular Mass": "98.10",
        "Melting Point": "&gt;160 °C (decomp)"
    }
}