{
    "cas_no": "107-87-9",
    "key_name": "2-Pentanone",
    "cn_name": "2-戊酮;甲基丙基甲酮;",
    "alternate_name": "2-Pentanone;Methyl propyl ketone;Methyl <em>n</em>-propyl ketone;Ethylacetone;Propyl methyl ketone;4-Methyl-2-butanone;NSC 5350",
    "duplicated_cas_no": "",
    "SMILES": "C(C(C)=O)CC",
    "meta_data": {
        "InChI": "InChI=1S/C5H10O/c1-3-4-5(2)6/h3-4H2,1-2H3",
        "InChIKey": null,
        "Canonical SMILES": "O=C(C)CCC",
        "Molecular Formula": "C<sub>5</sub>H<sub>10</sub>O",
        "Molecular Mass": "86.13",
        "Boiling Point": "101.7 °C",
        "Melting Point": "-78 °C",
        "Density": "0.809 g/cm³ @ Temp: 20 °C"
    }
}