{
    "cas_no": "4093-35-0",
    "key_name": "Bromopride",
    "cn_name": "溴灭吐灵;",
    "alternate_name": "Benzamide, 4-amino-5-bromo-<em>N</em>-[2-(diethylamino)ethyl]-2-methoxy-;<em>o</em>-Anisamide, 4-amino-5-bromo-<em>N</em>-[2-(diethylamino)ethyl]-;4-Amino-5-bromo-<em>N</em>-[2-(diethylamino)ethyl]-2-methoxybenzamide;<em>N</em>-Diethylaminoethyl-2-methoxy-4-amino-5-bromobenzamide;2-Methoxy-4-amino-5-bromo-<em>N</em>,<em>N</em>-diethylaminoethylbenzamide;Bromopride;Viadil;Emepride;Emoril",
    "duplicated_cas_no": "",
    "SMILES": "C(NCCN(CC)CC)(=O)C1=C(OC)C=C(N)C(Br)=C1",
    "meta_data": {
        "InChI": "InChI=1S/C14H22BrN3O2/c1-4-18(5-2)7-6-17-14(19)10-8-11(15)12(16)9-13(10)20-3/h8-9H,4-7,16H2,1-3H3,(H,17,19)",
        "InChIKey": null,
        "Canonical SMILES": "O=C(NCCN(CC)CC)C=1C=C(Br)C(N)=CC1OC",
        "Molecular Formula": "C<sub>14</sub>H<sub>22</sub>BrN<sub>3</sub>O<sub>2</sub>",
        "Molecular Mass": "344.25",
        "Melting Point": "149 °C"
    }
}