{
    "cas_no": "108-39-4",
    "key_name": "<em>m</em>-Cresol",
    "cn_name": "间甲酚;3-甲酚;",
    "alternate_name": "Phenol, 3-methyl-;<em>m</em>-Cresol;3-Methylphenol;<em>m</em>-Cresylic acid;<em>m</em>-Kresol;<em>m</em>-Oxytoluene;1-Hydroxy-3-methylbenzene;3-Cresol;3-Hydroxytoluene;<em>m</em>-Toluol;<em>m</em>-Methylphenol;<em>m</em>-Hydroxytoluene;<em>meta</em>-Cresol;NSC 8768",
    "duplicated_cas_no": "",
    "SMILES": "CC1=CC(O)=CC=C1",
    "meta_data": {
        "InChI": "InChI=1S/C7H8O/c1-6-3-2-4-7(8)5-6/h2-5,8H,1H3",
        "InChIKey": null,
        "Canonical SMILES": "OC1=CC=CC(=C1)C",
        "Molecular Formula": "C<sub>7</sub>H<sub>8</sub>O",
        "Molecular Mass": "108.14",
        "Boiling Point": "202 °C",
        "Melting Point": "11-12 °C",
        "Density": "1.034 g/cm³ @ Temp: 20 °C"
    }
}