{
    "cas_no": "981-34-0",
    "key_name": "Betamethasone 9,11-epoxide",
    "cn_name": "倍他米松环氧物;DB11;9b,11b-环氧-16b-甲基孕甾-1,4-二烯-17a,21-二醇-3,20-二酮;",
    "alternate_name": "Pregna-1,4-diene-3,20-dione, 9,11-epoxy-17,21-dihydroxy-16-methyl-, (9β,11β,16β)-;9β-Pregna-1,4-diene-3,20-dione, 9,11β-epoxy-17,21-dihydroxy-16β-methyl-;9,11-Epoxy-9<em>H</em>-cyclopenta[<em>a</em>]phenanthrene, pregna-1,4-diene-3,20-dione deriv.;(9β,11β,16β)-9,11-Epoxy-17,21-dihydroxy-16-methylpregna-1,4-diene-3,20-dione;9,11β-Epoxy-17,21-dihydroxy-16β-methyl-9β-pregna-1,4-diene-3,20-dione;Betamethasone 9,11-epoxide",
    "duplicated_cas_no": "",
    "SMILES": "C[C@@]12[C@@]34[C@]([C@]5([C@](C)(C[C@@]3(O4)[H])[C@](C(CO)=O)(O)[C@@H](C)C5)[H])(CCC1=CC(=O)C=C2)[H]",
    "meta_data": {
        "InChI": "InChI=1S/C22H28O5/c1-12-8-16-15-5-4-13-9-14(24)6-7-19(13,2)22(15)18(27-22)10-20(16,3)21(12,26)17(25)11-23/h6-7,9,12,15-16,18,23,26H,4-5,8,10-11H2,1-3H3/t12-,15-,16-,18-,19-,20-,21-,22+/m0/s1",
        "InChIKey": null,
        "Canonical SMILES": "O=C1C=CC2(C(=C1)CCC3C4CC(C)C(O)(C(=O)CO)C4(C)CC5OC532)C",
        "Molecular Formula": "C<sub>22</sub>H<sub>28</sub>O<sub>5</sub>",
        "Molecular Mass": "372.45",
        "Melting Point": "210-220 °C"
    }
}