{
    "cas_no": "13462-90-3",
    "key_name": "Nickel iodide (NiI<sub>2</sub>)",
    "cn_name": "碘化镍;碘化亚镍;无水碘化镍(II);",
    "alternate_name": "Nickel iodide (NiI<sub>2</sub>);Nickelous iodide;Nickel diiodide;Nickel(2+) iodide;Nickel iodide",
    "duplicated_cas_no": "",
    "SMILES": "[Ni](I)I",
    "meta_data": {
        "InChI": "InChI=1S/2HI.Ni/h2*1H;/q;;+2/p-2",
        "InChIKey": null,
        "Canonical SMILES": "I[Ni]I",
        "Molecular Formula": "I<sub>2</sub>Ni",
        "Molecular Mass": "",
        "Melting Point": "780 °C",
        "Density": "5.834 g/cm³"
    }
}