{
    "cas_no": "25103-12-2",
    "key_name": "Phosphorous acid, triisooctyl ester",
    "cn_name": "三异辛基亚磷酸酯;亚磷酸三异辛基酯;偏苯三酸三辛酯;",
    "alternate_name": "Phosphorous acid, triisooctyl ester;Isooctyl phosphite;Triisooctyl phosphite;Isooctyl phosphite ((C<sub>8</sub>H<sub>17</sub>O)<sub>3</sub>P)",
    "duplicated_cas_no": "51845-93-3",
    "SMILES": "",
    "meta_data": {
        "InChI": "",
        "InChIKey": null,
        "Canonical SMILES": "",
        "Molecular Formula": "C<sub>24</sub>H<sub>51</sub>O<sub>3</sub>P",
        "Molecular Mass": "",
        "Boiling Point": "120 °C @ Press: 4 Torr",
        "Density": "0.891 g/cm³"
    }
}