{
    "cas_no": "2730-43-0",
    "key_name": "1-Chloro-3,3,3-trifluoropropene",
    "cn_name": null,
    "alternate_name": "1-Propene, 1-chloro-3,3,3-trifluoro-;Propene, 1-chloro-3,3,3-trifluoro-;1-Chloro-3,3,3-trifluoro-1-propene;3,3,3-Trifluoro-1-chloro-1-propene;3-Chloro-1,1,1-trifluoro-2-propene;1-Chloro-3,3,3-trifluoropropene;HFCO 1233zd;1,1,1-Trifluoro-3-chloro-2-propene;HCFC 1233zd;HCFO 1233zd;HFO 1233zd;R 1233zd;HCFO-LBA 2;3,3,3-Trifluoro-1-chloropropene;HCFE 1233zd",
    "duplicated_cas_no": "",
    "SMILES": "C(C(F)(F)F)=CCl",
    "meta_data": {
        "InChI": "InChI=1S/C3H2ClF3/c4-2-1-3(5,6)7/h1-2H",
        "InChIKey": null,
        "Canonical SMILES": "FC(F)(F)C=CCl",
        "Molecular Formula": "C<sub>3</sub>H<sub>2</sub>ClF<sub>3</sub>",
        "Molecular Mass": "130.50",
        "Boiling Point": "21 °C",
        "Density": "1.27380 g/cm³ (liquid) @ Temp: 35 °C"
    }
}