{
    "cas_no": "695-96-5",
    "key_name": "2-Bromo-4-chlorophenol",
    "cn_name": null,
    "alternate_name": "Phenol, 2-bromo-4-chloro-;2-Bromo-4-chlorophenol;NSC 59695",
    "duplicated_cas_no": "",
    "SMILES": "BrC1=C(O)C=CC(Cl)=C1",
    "meta_data": {
        "InChI": "InChI=1S/C6H4BrClO/c7-5-3-4(8)1-2-6(5)9/h1-3,9H",
        "InChIKey": null,
        "Canonical SMILES": "ClC1=CC=C(O)C(Br)=C1",
        "Molecular Formula": "C<sub>6</sub>H<sub>4</sub>BrClO",
        "Molecular Mass": "207.45",
        "Boiling Point": "228-235 °C",
        "Melting Point": "31 °C"
    }
}