{
    "cas_no": "32760-80-8",
    "key_name": "Iron(1+), (η<sup>5</sup>-2,4-cyclopentadien-1-yl)[(1,2,3,4,5,6-η)-(1-methylethyl)benzene]-, hexafluorophosphate(1-) (1:1)",
    "cn_name": null,
    "alternate_name": "Iron(1+), (η<sup>5</sup>-2,4-cyclopentadien-1-yl)[(1,2,3,4,5,6-η)-(1-methylethyl)benzene]-, hexafluorophosphate(1-) (1:1);Iron(1+), (cumene)-π-cyclopentadienyl-, hexafluorophosphate(1-);Iron(1+), (η<sup>5</sup>-2,4-cyclopentadien-1-yl)[(1,2,3,4,5,6-η)-(1-methylethyl)benzene]-, hexafluorophosphate(1-);Phosphate(1-), hexafluoro-, (η<sup>5</sup>-2,4-cyclopentadien-1-yl)[(1,2,3,4,5,6-η)-(1-methylethyl)benzene]iron(1+);Benzene, (1-methylethyl)-, iron complex;Irgacure CG 24-61;Irgacure 261;CG 24-61;(η<sup>6</sup>-Cumene)(η<sup>5</sup>-cyclopentadienyl)iron(II) hexafluorophosphate;CG 261;(η<sup>5</sup>-2,4-Cyclopentadien-1-yl)[(1,2,3,4,5,6-η)-(1-methylethyl)benzene]iron(1+) hexafluorophosphate;(η<sup>5</sup>-2,4-Cyclopentadien-1-yl)[(1,2,3,4,5,6-η)-(1-methylethyl)benzene]iron(1+) hexafluorophosphate(1-);(η<sup>5</sup>-Cyclopentadienyl)(η<sup>6</sup>-isopropylbenzene)iron(1+) hexafluorophosphate;I 261;Cyclopentadienylcumeniron hexafluorophosphate;R-Gen 261;UV 261;(Cumene)cyclopentadienyliron(II) hexafluorophosphate;Photoinitiator 261",
    "duplicated_cas_no": "114558-86-0;133832-04-9;34978-88-6",
    "SMILES": "C(C)(C)C1=2[Fe+2]3456789%10([CH]1=[CH]3[CH]4=[CH]5[CH]62)[CH-]%11[CH]7=[CH]8[CH]9=[CH]%10%11.[P+5]([F-])([F-])([F-])([F-])([F-])[F-]",
    "meta_data": {
        "InChI": "InChI=1S/C9H12.C5H5.F6P.Fe/c1-8(2)9-6-4-3-5-7-9;1-2-4-5-3-1;1-7(2,3,4,5)6;/h3-8H,1-2H3;1-5H;;/q;2*-1;+2",
        "InChIKey": null,
        "Canonical SMILES": "[F-][P+5]([F-])([F-])([F-])([F-])[F-].CC(C)C=12[CH]3=[CH]4[CH]5=[CH]6[CH]1[Fe+2]5789%104632[CH]=%11[CH]%10=[CH]9[CH-]8[CH]%117",
        "Molecular Formula": "C<sub>14</sub>H<sub>17</sub>Fe.F<sub>6</sub>P",
        "Molecular Mass": "",
        "Melting Point": "269 °C"
    }
}