{
    "cas_no": "25023-01-2",
    "key_name": "9,9-Dichlorofluorene",
    "cn_name": null,
    "alternate_name": "9<em>H</em>-Fluorene, 9,9-dichloro-;Fluorene, 9,9-dichloro-;9,9-Dichloro-9<em>H</em>-fluorene;9,9-Dichlorofluorene;NSC 111101",
    "duplicated_cas_no": "",
    "SMILES": "ClC1(Cl)C=2C(C=3C1=CC=CC3)=CC=CC2",
    "meta_data": {
        "InChI": "InChI=1S/C13H8Cl2/c14-13(15)11-7-3-1-5-9(11)10-6-2-4-8-12(10)13/h1-8H",
        "InChIKey": null,
        "Canonical SMILES": "ClC1(Cl)C=2C=CC=CC2C=3C=CC=CC31",
        "Molecular Formula": "C<sub>13</sub>H<sub>8</sub>Cl<sub>2</sub>",
        "Molecular Mass": "235.11",
        "Boiling Point": "98 °C @ Press: 5 Torr",
        "Melting Point": "99 °C"
    }
}