{
    "cas_no": "490-23-3",
    "key_name": "β-Tocotrienol",
    "cn_name": "生育三烯酚;",
    "alternate_name": "2<em>H</em>-1-Benzopyran-6-ol, 3,4-dihydro-2,5,8-trimethyl-2-[(3<em>E</em>,7<em>E</em>)-4,8,12-trimethyl-3,7,11-tridecatrien-1-yl]-, (2<em>R</em>)-;6-Chromanol, 2,5,8-trimethyl-2-(4,8,12-trimethyl-3,7,11-tridecatrienyl)-;2<em>H</em>-1-Benzopyran-6-ol, 3,4-dihydro-2,5,8-trimethyl-2-(4,8,12-trimethyl-3,7,11-tridecatrienyl)-, [<em>R</em>-(<em>E</em>,<em>E</em>)]-;2<em>H</em>-1-Benzopyran-6-ol, 3,4-dihydro-2,5,8-trimethyl-2-[(3<em>E</em>,7<em>E</em>)-4,8,12-trimethyl-3,7,11-tridecatrienyl]-, (2<em>R</em>)-;(2<em>R</em>)-3,4-Dihydro-2,5,8-trimethyl-2-[(3<em>E</em>,7<em>E</em>)-4,8,12-trimethyl-3,7,11-tridecatrien-1-yl]-2<em>H</em>-1-benzopyran-6-ol;ε-Tocopherol;β-Tocotrienol;ε-Tokoferol;<span class=\"text-smallcaps\">D</span>-β-Tocotrienol;5,8-Dimethyltocotrienol",
    "duplicated_cas_no": "134931-97-8;14101-69-0",
    "SMILES": "CC1=C2C(CC[C@](CC/C=C(/CC/C=C(/CCC=C(C)C)\\C)\\C)(C)O2)=C(C)C(O)=C1",
    "meta_data": {
        "InChI": "InChI=1S/C28H42O2/c1-20(2)11-8-12-21(3)13-9-14-22(4)15-10-17-28(7)18-16-25-24(6)26(29)19-23(5)27(25)30-28/h11,13,15,19,29H,8-10,12,14,16-18H2,1-7H3/b21-13+,22-15+/t28-/m1/s1",
        "InChIKey": null,
        "Canonical SMILES": "OC=1C=C(C=2OC(C)(CCC=C(C)CCC=C(C)CCC=C(C)C)CCC2C1C)C",
        "Molecular Formula": "C<sub>28</sub>H<sub>42</sub>O<sub>2</sub>",
        "Molecular Mass": "410.63",
        "Melting Point": "&lt;25 °C"
    }
}