{
    "cas_no": "100-12-9",
    "key_name": "1-Ethyl-4-nitrobenzene",
    "cn_name": "对乙基硝基苯;4-硝基乙苯;1-乙基-4-硝基苯;",
    "alternate_name": "Benzene, 1-ethyl-4-nitro-;1-Ethyl-4-nitrobenzene;<em>p</em>-Nitroethylbenzene;<em>p</em>-Ethylnitrobenzene;<em>p</em>-Nitrophenylethane;4-Ethylnitrobenzene;4-Ethyl-1-nitrobenzene;NSC 858;4-Nitro-1-ethylbenzene",
    "duplicated_cas_no": "",
    "SMILES": "N(=O)(=O)C1=CC=C(CC)C=C1",
    "meta_data": {
        "InChI": "InChI=1S/C8H9NO2/c1-2-7-3-5-8(6-4-7)9(10)11/h3-6H,2H2,1H3",
        "InChIKey": null,
        "Canonical SMILES": "O=N(=O)C1=CC=C(C=C1)CC",
        "Molecular Formula": "C<sub>8</sub>H<sub>9</sub>NO<sub>2</sub>",
        "Molecular Mass": "151.16",
        "Boiling Point": "245.5 °C",
        "Melting Point": "-12.3 °C",
        "Density": "1.1226 g/cm³ @ Temp: 20 °C"
    }
}