{
    "cas_no": "66787-70-0",
    "key_name": "Ethyl 1-methyl-1<em>H</em>-imidazole-5-carboxylate",
    "cn_name": null,
    "alternate_name": "1<em>H</em>-Imidazole-5-carboxylic acid, 1-methyl-, ethyl ester;Imidazole-5-carboxylic acid, 1-methyl-, ethyl ester;Ethyl 1-methyl-1<em>H</em>-imidazole-5-carboxylate;Ro 31-0886;Ethyl 1-methyl-5-imidazolecarboxylate;3-Methyl-3<em>H</em>-imidazole-4-carboxylic acid ethyl ester",
    "duplicated_cas_no": "",
    "SMILES": "C(OCC)(=O)C=1N(C)C=NC1",
    "meta_data": {
        "InChI": "InChI=1S/C7H10N2O2/c1-3-11-7(10)6-4-8-5-9(6)2/h4-5H,3H2,1-2H3",
        "InChIKey": null,
        "Canonical SMILES": "O=C(OCC)C1=CN=CN1C",
        "Molecular Formula": "C<sub>7</sub>H<sub>10</sub>N<sub>2</sub>O<sub>2</sub>",
        "Molecular Mass": "154.17",
        "Melting Point": "112-114 °C"
    }
}