{
    "cas_no": "5323-87-5",
    "key_name": "3-Ethoxy-2-cyclohexen-1-one",
    "cn_name": "3-乙氧基-2-环己烯-1-酮;3-乙氧基-2-环己烯-1-酮;",
    "alternate_name": "2-Cyclohexen-1-one, 3-ethoxy-;3-Ethoxy-2-cyclohexen-1-one;3-Ethoxy-2-cyclohexenone;3-Ethoxy-2-cyclohexene-1-one;NSC 2826;1-Ethoxy-2-cyclohexen-3-one",
    "duplicated_cas_no": "78877-13-1",
    "SMILES": "O(CC)C1=CC(=O)CCC1",
    "meta_data": {
        "InChI": "InChI=1S/C8H12O2/c1-2-10-8-5-3-4-7(9)6-8/h6H,2-5H2,1H3",
        "InChIKey": null,
        "Canonical SMILES": "O=C1C=C(OCC)CCC1",
        "Molecular Formula": "C<sub>8</sub>H<sub>12</sub>O<sub>2</sub>",
        "Molecular Mass": "140.18",
        "Boiling Point": "104-106 °C @ Press: 6 Torr"
    }
}