{
    "cas_no": "1125-99-1",
    "key_name": "1-(1-Cyclohexen-1-yl)pyrrolidine",
    "cn_name": "1-吡咯烷-1-环己烯;1-(1-吡咯烷)环己烯;",
    "alternate_name": "Pyrrolidine, 1-(1-cyclohexen-1-yl)-;1-(1-Cyclohexen-1-yl)pyrrolidine;1-Pyrrolidinocyclohexene;Cyclohexanone pyrrolidine enamine;1-(1-Pyrrolidinyl)cyclohexene;1-(1-Pyrrolidino)-1-cyclohexene;1-Pyrrolidino-1-cyclohexene;<em>N</em>-(1-Cyclohexenyl)pyrrolidine;<em>N</em>-(1-Cyclohexen-1-yl)pyrrolidine;1-(1-Cyclohexenyl)pyrrolidine;1-(Pyrrolidine-1-yl)-1-cyclohexene;NSC 29652",
    "duplicated_cas_no": "",
    "SMILES": "N1(CCCC1)C=2CCCCC2",
    "meta_data": {
        "InChI": "InChI=1S/C10H17N/c1-2-6-10(7-3-1)11-8-4-5-9-11/h6H,1-5,7-9H2",
        "InChIKey": null,
        "Canonical SMILES": "C1=C(N2CCCC2)CCCC1",
        "Molecular Formula": "C<sub>10</sub>H<sub>17</sub>N",
        "Molecular Mass": "151.25",
        "Boiling Point": "107-114 °C @ Press: 12 Torr",
        "Melting Point": "113 °C"
    }
}