{
    "cas_no": "22884-31-7",
    "key_name": "1,5-Pentanediylbis(triphenylphosphonium) dibromide, 1,1′-(1,5-pentanediyl)bis[1,1,1-triphenyl-, bromide (1:2)",
    "cn_name": null,
    "alternate_name": "1,5-Pentanediylbis(triphenylphosphonium) dibromide, 1,1′-(1,5-pentanediyl)bis[1,1,1-triphenyl-, bromide (1:2);Phosphonium, pentamethylenebis[triphenyl-, dibromide;Phosphonium, 1,5-pentanediylbis[triphenyl-, dibromide;Pentamethylenebis(triphenylphosphonium bromide);1,5-Pentanediylbis(triphenylphosphonium) dibromide",
    "duplicated_cas_no": "344749-99-1",
    "SMILES": "[P+](CCCCC[P+](C1=CC=CC=C1)(C2=CC=CC=C2)C3=CC=CC=C3)(C4=CC=CC=C4)(C5=CC=CC=C5)C6=CC=CC=C6.[Br-]",
    "meta_data": {
        "InChI": "InChI=1S/C41H40P2.2BrH/c1-8-22-36(23-9-1)42(37-24-10-2-11-25-37,38-26-12-3-13-27-38)34-20-7-21-35-43(39-28-14-4-15-29-39,40-30-16-5-17-31-40)41-32-18-6-19-33-41;;/h1-6,8-19,22-33H,7,20-21,34-35H2;2*1H/q+2;;/p-2",
        "InChIKey": null,
        "Canonical SMILES": "[Br-].C=1C=CC(=CC1)[P+](C=2C=CC=CC2)(C=3C=CC=CC3)CCCCC[P+](C=4C=CC=CC4)(C=5C=CC=CC5)C=6C=CC=CC6",
        "Molecular Formula": "C<sub>41</sub>H<sub>40</sub>P<sub>2</sub>.2Br",
        "Molecular Mass": "",
        "Melting Point": "262 °C"
    }
}