{
    "cas_no": "10025-76-0",
    "key_name": "Europium trichloride",
    "cn_name": "超干氯化铕(III);氯化铕(Ⅲ);三氯化铕；氯化高铕;",
    "alternate_name": "Europium chloride (EuCl<sub>3</sub>);Europic chloride;Europium trichloride;Europium chloride;Europium(III) chloride;NSC 281265;NSC 621597",
    "duplicated_cas_no": "12314-12-4",
    "SMILES": "[Eu](Cl)(Cl)Cl",
    "meta_data": {
        "InChI": "InChI=1S/3ClH.Eu/h3*1H;/q;;;+3/p-3",
        "InChIKey": null,
        "Canonical SMILES": "Cl[Eu](Cl)Cl",
        "Molecular Formula": "Cl<sub>3</sub>Eu",
        "Molecular Mass": "",
        "Melting Point": "623 °C"
    }
}