{
    "cas_no": "602-07-3",
    "key_name": "Taspine",
    "cn_name": null,
    "alternate_name": "[1]Benzopyrano[5,4,3-<em>cde</em>][1]benzopyran-5,10-dione, 1-[2-(dimethylamino)ethyl]-3,8-dimethoxy-;Thaspine;1-[2-(Dimethylamino)ethyl]-3,8-dimethoxy[1]benzopyrano[5,4,3-<em>cde</em>][1]benzopyran-5,10-dione;Taspine;Taspin;NSC 688259",
    "duplicated_cas_no": "",
    "SMILES": "C(CN(C)C)C1=C2C=3C4=C(C(OC)=CC=C4C(=O)OC3C(OC)=C1)OC2=O",
    "meta_data": {
        "InChI": "InChI=1S/C20H19NO6/c1-21(2)8-7-10-9-13(25-4)18-16-14(10)20(23)27-17-12(24-3)6-5-11(15(16)17)19(22)26-18/h5-6,9H,7-8H2,1-4H3",
        "InChIKey": null,
        "Canonical SMILES": "O=C1OC2=C(OC)C=C(C=3C(=O)OC=4C(OC)=CC=C1C4C23)CCN(C)C",
        "Molecular Formula": "C<sub>20</sub>H<sub>19</sub>NO<sub>6</sub>",
        "Molecular Mass": "369.37",
        "Melting Point": "372-374 °C (decomp)"
    }
}