{
    "cas_no": "17231-94-6",
    "key_name": "3,5-Dichlorobenzenethiol",
    "cn_name": "3,5-二氯苯硫酚;",
    "alternate_name": "Benzenethiol, 3,5-dichloro-;3,5-Dichlorobenzenethiol;3,5-Dichlorothiophenol;3,5-Dichlorobenzene-1-thiol",
    "duplicated_cas_no": "",
    "SMILES": "ClC1=CC(Cl)=CC(S)=C1",
    "meta_data": {
        "InChI": "InChI=1S/C6H4Cl2S/c7-4-1-5(8)3-6(9)2-4/h1-3,9H",
        "InChIKey": null,
        "Canonical SMILES": "ClC=1C=C(Cl)C=C(S)C1",
        "Molecular Formula": "C<sub>6</sub>H<sub>4</sub>Cl<sub>2</sub>S",
        "Molecular Mass": "179.07",
        "Boiling Point": "114 °C @ Press: 8 Torr",
        "Melting Point": "63.5 °C"
    }
}