{
    "cas_no": "6294-17-3",
    "key_name": "1-Bromo-6-chlorohexane",
    "cn_name": "1-溴-6-氯己烷;",
    "alternate_name": "Hexane, 1-bromo-6-chloro-;1-Bromo-6-chlorohexane;6-Chlorohexyl bromide;1-Chloro-6-bromohexane;6-Bromohexyl chloride;NSC 9249",
    "duplicated_cas_no": "",
    "SMILES": "C(CCCCl)CCBr",
    "meta_data": {
        "InChI": "InChI=1S/C6H12BrCl/c7-5-3-1-2-4-6-8/h1-6H2",
        "InChIKey": null,
        "Canonical SMILES": "ClCCCCCCBr",
        "Molecular Formula": "C<sub>6</sub>H<sub>12</sub>BrCl",
        "Molecular Mass": "199.52",
        "Boiling Point": "109-110 °C @ Press: 2 Torr"
    }
}