{
    "cas_no": "537-91-7",
    "key_name": "Bis(3-nitrophenyl) disulfide",
    "cn_name": "3,3\"-二硝基二苯二硫醚;二间硝基苯基二硫醚;",
    "alternate_name": "Disulfide, bis(3-nitrophenyl);Disulfide, bis(<em>m</em>-nitrophenyl);Bis(3-nitrophenyl) disulfide;<em>m</em>,<em>m</em>′-Dinitrodiphenyl disulfide;Megasul;Nitrophenide;NP;Bis(<em>m</em>-nitrophenyl) disulfide;Hinagen;3,3′-Dinitrodiphenyl disulfide;NSC 677441;NSC 42172;NSC 655043;NSC 66160;1-Nitro-3-[(3-nitrophenyl)disulfanyl]benzene",
    "duplicated_cas_no": "8052-96-8",
    "SMILES": "S(SC1=CC(N(=O)=O)=CC=C1)C2=CC(N(=O)=O)=CC=C2",
    "meta_data": {
        "InChI": "InChI=1S/C12H8N2O4S2/c15-13(16)9-3-1-5-11(7-9)19-20-12-6-2-4-10(8-12)14(17)18/h1-8H",
        "InChIKey": null,
        "Canonical SMILES": "O=N(=O)C=1C=CC=C(SSC2=CC=CC(=C2)N(=O)=O)C1",
        "Molecular Formula": "C<sub>12</sub>H<sub>8</sub>N<sub>2</sub>O<sub>4</sub>S<sub>2</sub>",
        "Molecular Mass": "308.33",
        "Melting Point": "84 °C"
    }
}