{
    "cas_no": "81925-81-7",
    "key_name": "5-Methyl-2-hepten-4-one",
    "cn_name": "5-甲基-2-庚烯-4-酮;",
    "alternate_name": "2-Hepten-4-one, 5-methyl-;5-Methyl-2-hepten-4-one",
    "duplicated_cas_no": "",
    "SMILES": "C(C(CC)C)(C=CC)=O",
    "meta_data": {
        "InChI": "InChI=1S/C8H14O/c1-4-6-8(9)7(3)5-2/h4,6-7H,5H2,1-3H3",
        "InChIKey": null,
        "Canonical SMILES": "O=C(C=CC)C(C)CC",
        "Molecular Formula": "C<sub>8</sub>H<sub>14</sub>O",
        "Molecular Mass": "126.20",
        "Boiling Point": "170 °C",
        "Density": "0.848 g/cm³ @ Temp: 20 °C"
    }
}