{
    "cas_no": "843663-66-1",
    "key_name": "Bedaquiline",
    "cn_name": null,
    "alternate_name": "3-Quinolineethanol, 6-bromo-α-[2-(dimethylamino)ethyl]-2-methoxy-α-1-naphthalenyl-β-phenyl-, (α<em>S</em>,β<em>R</em>)-;(α<em>S</em>,β<em>R</em>)-6-Bromo-α-[2-(dimethylamino)ethyl]-2-methoxy-α-1-naphthalenyl-β-phenyl-3-quinolineethanol;R 207910;TMC 207;Bedaquiline;Sirturo",
    "duplicated_cas_no": "",
    "SMILES": "[C@]([C@@H](C=1C(OC)=NC2=C(C1)C=C(Br)C=C2)C3=CC=CC=C3)(CCN(C)C)(O)C=4C5=C(C=CC4)C=CC=C5",
    "meta_data": {
        "InChI": "InChI=1S/C32H31BrN2O2/c1-35(2)19-18-32(36,28-15-9-13-22-10-7-8-14-26(22)28)30(23-11-5-4-6-12-23)27-21-24-20-25(33)16-17-29(24)34-31(27)37-3/h4-17,20-21,30,36H,18-19H2,1-3H3/t30-,32-/m1/s1",
        "InChIKey": null,
        "Canonical SMILES": "BrC=1C=CC2=NC(OC)=C(C=C2C1)C(C=3C=CC=CC3)C(O)(C4=CC=CC=5C=CC=CC54)CCN(C)C",
        "Molecular Formula": "C<sub>32</sub>H<sub>31</sub>BrN<sub>2</sub>O<sub>2</sub>",
        "Molecular Mass": "555.50",
        "Melting Point": "104 °C"
    }
}