{
    "cas_no": "261-96-1",
    "key_name": "10<em>H</em>-Pyrido[3,2-<em>b</em>][1,4]benzothiazine",
    "cn_name": null,
    "alternate_name": "10<em>H</em>-Pyrido[3,2-<em>b</em>][1,4]benzothiazine;1<em>H</em>-Pyrido[3,2-<em>b</em>][1,4]benzothiazine;1-Azaphenothiazine;NSC 277720",
    "duplicated_cas_no": "",
    "SMILES": "C1=2C(SC=3C(N1)=NC=CC3)=CC=CC2",
    "meta_data": {
        "InChI": "InChI=1S/C11H8N2S/c1-2-5-9-8(4-1)13-11-10(14-9)6-3-7-12-11/h1-7H,(H,12,13)",
        "InChIKey": null,
        "Canonical SMILES": "N=1C=CC=C2SC=3C=CC=CC3NC12",
        "Molecular Formula": "C<sub>11</sub>H<sub>8</sub>N<sub>2</sub>S",
        "Molecular Mass": "200.26",
        "Boiling Point": "178-184 °C @ Press: 3 Torr",
        "Melting Point": "115 °C"
    }
}