{
    "cas_no": "2581-34-2",
    "key_name": "3-Methyl-4-nitrophenol",
    "cn_name": "4-硝基间甲苯酚;3-甲基-4-硝基苯酚;对硝基间甲酚;",
    "alternate_name": "Phenol, 3-methyl-4-nitro-;<em>m</em>-Cresol, 4-nitro-;3-Methyl-4-nitrophenol;<em>p</em>-Nitro-<em>m</em>-cresol;4-Nitro-<em>m</em>-cresol;2-Nitro-5-hydroxytoluene;5-Hydroxy-2-nitrotoluene;4-Nitro-3-methylphenol;4-Nitro-5-methylphenol;5-Methyl-4-nitrophenol;<em>p</em>-Nitro-<em>m</em>-methylphenol;NSC 69190",
    "duplicated_cas_no": "",
    "SMILES": "N(=O)(=O)C1=C(C)C=C(O)C=C1",
    "meta_data": {
        "InChI": "InChI=1S/C7H7NO3/c1-5-4-6(9)2-3-7(5)8(10)11/h2-4,9H,1H3",
        "InChIKey": null,
        "Canonical SMILES": "O=N(=O)C1=CC=C(O)C=C1C",
        "Molecular Formula": "C<sub>7</sub>H<sub>7</sub>NO<sub>3</sub>",
        "Molecular Mass": "153.14",
        "Melting Point": "127-129 °C"
    }
}