{
    "cas_no": "80866-91-7",
    "key_name": "Pyridine, 2-bromo-, 1-oxide, hydrochloride (1:1)",
    "cn_name": "2-溴吡啶N-氧化物盐酸盐;",
    "alternate_name": "Pyridine, 2-bromo-, 1-oxide, hydrochloride (1:1);Pyridine, 2-bromo-, 1-oxide, hydrochloride;Pyridine, 2-bromo-, 1-oxide, compd. with hydrochloric acid;2-Bromopyridine <em>N</em>-oxide hydrochloride;2-Bromopyridine 1-oxide hydrochloride",
    "duplicated_cas_no": "",
    "SMILES": "BrC=1N(=O)=CC=CC1.Cl",
    "meta_data": {
        "InChI": "InChI=1S/C5H4BrNO.ClH/c6-5-3-1-2-4-7(5)8;/h1-4H;1H",
        "InChIKey": null,
        "Canonical SMILES": "Cl.O=N=1C=CC=CC1Br",
        "Molecular Formula": "C<sub>5</sub>H<sub>4</sub>BrNO.ClH",
        "Molecular Mass": "",
        "Melting Point": "135-136 °C"
    }
}