{
    "cas_no": "723-46-6",
    "key_name": "Sulfamethoxazole",
    "cn_name": "磺胺甲恶唑;磺胺甲基异恶唑;4-氨基-N-(5-甲基-3-异恶唑基)苯磺酰胺;",
    "alternate_name": "Benzenesulfonamide, 4-amino-<em>N</em>-(5-methyl-3-isoxazolyl)-;Sulfanilamide, <em>N</em><sup>1</sup>-(5-methyl-3-isoxazolyl)-;4-Amino-<em>N</em>-(5-methyl-3-isoxazolyl)benzenesulfonamide;MS 53;Ro 4-2130;Gantanol;<em>N</em><sup>1</sup>-(5-Methyl-3-isoxazolyl)sulfanilamide;5-Methyl-3-sulfanilamidoisoxazole;Sinomin;Sulfamethalazole;Sulfamethoxazole;3-Sulfanilamido-5-methylisoxazole;Sulfisomezole;Sulphamethoxazole;Radonil;Sulfamethoxazol;4-Amino-<em>N</em>-(5-methyl-3-isoxazolyl)benzensulfonamide;NSC 147832;STX 608;3-(<em>p</em>-Aminobenzenesulfonamido)-5-methylisoxazole;<em>N</em>-(5-Methylisoxazol-3-yl)-4-aminobenzenesulfonamide;MeSH ID: D013420",
    "duplicated_cas_no": "129378-89-8",
    "SMILES": "S(NC=1C=C(C)ON1)(=O)(=O)C2=CC=C(N)C=C2",
    "meta_data": {
        "InChI": "InChI=1S/C10H11N3O3S/c1-7-6-10(12-16-7)13-17(14,15)9-4-2-8(11)3-5-9/h2-6H,11H2,1H3,(H,12,13)",
        "InChIKey": null,
        "Canonical SMILES": "O=S(=O)(NC1=NOC(=C1)C)C2=CC=C(N)C=C2",
        "Molecular Formula": "C<sub>10</sub>H<sub>11</sub>N<sub>3</sub>O<sub>3</sub>S",
        "Molecular Mass": "253.28",
        "Melting Point": "167 °C",
        "Density": "1.4895 g/cm³"
    }
}