{
    "cas_no": "1185-53-1",
    "key_name": "Tris(hydroxymethyl)aminomethane hydrochloride",
    "cn_name": "2-氨基-2-羟甲基-1,3-丙二醇盐酸盐;三羟甲基氨基甲烷盐酸盐;",
    "alternate_name": "1,3-Propanediol, 2-amino-2-(hydroxymethyl)-, hydrochloride (1:1);1,3-Propanediol, 2-amino-2-(hydroxymethyl)-, hydrochloride;Tris chloride;Tris hydrochloride;Tris(hydroxymethyl)aminomethane hydrochloride;Tromethamine hydrochloride;Trizma hydrochloride;2-Amino-2-(hydroxymethyl)-1,3-propanediol hydrochloride;Tri(hydroxymethyl)aminomethane hydrochloride;T 6666;Tris-hydrochloric acid;Tris-HCl;T 105289;Orthocarbamic acid, methyl-, hydrochloride;Methanetriol, 1-(methylamino)-, hydrochloride (1:1);T 6044",
    "duplicated_cas_no": "10527-44-3;35087-75-3;150551-82-9;2650582-32-2",
    "SMILES": "C(CO)(CO)(CO)N.Cl",
    "meta_data": {
        "InChI": "InChI=1S/C4H11NO3.ClH/c5-4(1-6,2-7)3-8;/h6-8H,1-3,5H2;1H",
        "InChIKey": null,
        "Canonical SMILES": "Cl.OCC(N)(CO)CO",
        "Molecular Formula": "C<sub>4</sub>H<sub>11</sub>NO<sub>3</sub>.ClH",
        "Molecular Mass": "",
        "Melting Point": "150.0-150.8 °C"
    }
}