{
    "cas_no": "95-65-8",
    "key_name": "3,4-Dimethylphenol",
    "cn_name": "2,3-二甲基苯酚;3,4-二甲酚;",
    "alternate_name": "Phenol, 3,4-dimethyl-;3,4-Xylenol;3,4-Dimethylphenol;4,5-Dimethylphenol;4-Hydroxy-1,2-dimethylbenzene;1,3,4-Xylenol;1-Hydroxy-3,4-dimethylbenzene;NSC 1549;3,4-DMP",
    "duplicated_cas_no": "",
    "SMILES": "CC1=C(C)C=CC(O)=C1",
    "meta_data": {
        "InChI": "InChI=1S/C8H10O/c1-6-3-4-8(9)5-7(6)2/h3-5,9H,1-2H3",
        "InChIKey": null,
        "Canonical SMILES": "OC1=CC=C(C(=C1)C)C",
        "Molecular Formula": "C<sub>8</sub>H<sub>10</sub>O",
        "Molecular Mass": "122.16",
        "Boiling Point": "225 °C",
        "Melting Point": "62.5 °C",
        "Density": "0.983 g/cm³ @ Temp: 20 °C"
    }
}