{
    "cas_no": "42924-53-8",
    "key_name": "Nabumetone",
    "cn_name": "萘丁美酮;萘普酮;4-(6-甲氧基-2-萘基)丁-2-酮;",
    "alternate_name": "2-Butanone, 4-(6-methoxy-2-naphthalenyl)-;4-(6-Methoxy-2-naphthalenyl)-2-butanone;4-(6-Methoxy-2-naphthyl)-2-butanone;Nabumetone;BRL 14777;Relafen;Nabumeton;1-(2′-Methoxynaphth-6′-yl)butan-3-one;Arthaxan;Relifex;Nabuser;Balmox;Consolan;Relifen;Nabugesic 500;Gambaran;Coxalgan;Nabucox;Nabuton VP;Rodanol;Relif",
    "duplicated_cas_no": "",
    "SMILES": "C(CC(C)=O)C1=CC2=C(C=C(OC)C=C2)C=C1",
    "meta_data": {
        "InChI": "InChI=1S/C15H16O2/c1-11(16)3-4-12-5-6-14-10-15(17-2)8-7-13(14)9-12/h5-10H,3-4H2,1-2H3",
        "InChIKey": null,
        "Canonical SMILES": "O=C(C)CCC1=CC=C2C=C(OC)C=CC2=C1",
        "Molecular Formula": "C<sub>15</sub>H<sub>16</sub>O<sub>2</sub>",
        "Molecular Mass": "228.29",
        "Melting Point": "80 °C"
    }
}