{
    "cas_no": "34825-99-5",
    "key_name": "2-(Diphenylphosphino)benzonitrile",
    "cn_name": null,
    "alternate_name": "Benzonitrile, 2-(diphenylphosphino)-;2-(Diphenylphosphino)benzonitrile;(2-Cyanophenyl)diphenylphosphine;2-Diphenylphosphanylbenzonitrile",
    "duplicated_cas_no": "",
    "SMILES": "P(C1=C(C#N)C=CC=C1)(C2=CC=CC=C2)C3=CC=CC=C3",
    "meta_data": {
        "InChI": "InChI=1S/C19H14NP/c20-15-16-9-7-8-14-19(16)21(17-10-3-1-4-11-17)18-12-5-2-6-13-18/h1-14H",
        "InChIKey": null,
        "Canonical SMILES": "N#CC=1C=CC=CC1P(C=2C=CC=CC2)C=3C=CC=CC3",
        "Molecular Formula": "C<sub>19</sub>H<sub>14</sub>NP",
        "Molecular Mass": "287.29",
        "Melting Point": "146-147 °C"
    }
}