{
    "cas_no": "145525-41-3",
    "key_name": "Mitiglinide calcium",
    "cn_name": "米格列奈钙;双(2S)-2-苄基-3-(顺式全氢异吲哚-2-羰基)丙酸单钙盐;",
    "alternate_name": "2<em>H</em>-Isoindole-2-butanoic acid, octahydro-γ-oxo-α-(phenylmethyl)-, calcium salt (2:1), (α<em>S</em>,3a<em>R</em>,7a<em>S</em>)-;2<em>H</em>-Isoindole-2-butanoic acid, octahydro-γ-oxo-α-(phenylmethyl)-, calcium salt, [2(<em>S</em>)-<em>cis</em>]-;2<em>H</em>-Isoindole-2-butanoic acid, octahydro-γ-oxo-α-(phenylmethyl)-, calcium salt, (α<em>S</em>,3a<em>R</em>,7a<em>S</em>)-;KAD 1229;S 21403;(<em>S</em>)-2-Benzyl-4-oxo-4-(<em>cis</em>-perhydroisoindol-2-yl)butyric acid calcium salt;Glufast;Mitiglinide calcium",
    "duplicated_cas_no": "1536121-38-6",
    "SMILES": "C(C[C@H](CC1=CC=CC=C1)C(O)=O)(=O)N2C[C@]3([C@@](C2)(CCCC3)[H])[H].[Ca]",
    "meta_data": {
        "InChI": "InChI=1S/C19H25NO3.Ca/c21-18(20-12-15-8-4-5-9-16(15)13-20)11-17(19(22)23)10-14-6-2-1-3-7-14;/h1-3,6-7,15-17H,4-5,8-13H2,(H,22,23);/t15-,16+,17-;/m0./s1",
        "InChIKey": null,
        "Canonical SMILES": "[Ca].O=C(O)C(CC=1C=CC=CC1)CC(=O)N2CC3CCCCC3C2",
        "Molecular Formula": "C<sub>19</sub>H<sub>25</sub>NO<sub>3</sub>.<sup>1</sup>/<sub>2</sub>Ca",
        "Molecular Mass": "",
        "Melting Point": "175-183 °C"
    }
}