{
    "cas_no": "455-15-2",
    "key_name": "4-Fluorophenyl methyl sulfone",
    "cn_name": "对氟苯甲砜;",
    "alternate_name": "Benzene, 1-fluoro-4-(methylsulfonyl)-;Sulfone, <em>p</em>-fluorophenyl methyl;1-Fluoro-4-(methylsulfonyl)benzene;4-(Methylsulfonyl)fluorobenzene;Methyl 4-fluorophenyl sulfone;1-Fluoro-4-methylsulfonylbenzene;4-Fluorophenyl methyl sulfone;<em>p</em>-Fluorophenyl methyl sulfone;4-Methylsulfonyl-1-fluorobenzene;NSC 226256;1-Fluoro-4-methanesulfonylbenzene;4-Fluoro-1-(methylsulfonyl)benzene",
    "duplicated_cas_no": "",
    "SMILES": "S(C)(=O)(=O)C1=CC=C(F)C=C1",
    "meta_data": {
        "InChI": "InChI=1S/C7H7FO2S/c1-11(9,10)7-4-2-6(8)3-5-7/h2-5H,1H3",
        "InChIKey": null,
        "Canonical SMILES": "O=S(=O)(C1=CC=C(F)C=C1)C",
        "Molecular Formula": "C<sub>7</sub>H<sub>7</sub>FO<sub>2</sub>S",
        "Molecular Mass": "174.19",
        "Melting Point": "77-78 °C"
    }
}