{
    "cas_no": "615-37-2",
    "key_name": "2-Iodotoluene",
    "cn_name": "2-碘代甲苯;邻碘甲苯;",
    "alternate_name": "Benzene, 1-iodo-2-methyl-;Toluene, <em>o</em>-iodo-;1-Iodo-2-methylbenzene;<em>o</em>-Methyliodobenzene;<em>o</em>-Iodotoluene;2-Iodotoluene;<em>o</em>-Tolyl iodide;2-Methyl-1-iodobenzene;2-Methyliodobenzene;2-Methylphenyl iodide;<em>o</em>-Methylphenyl iodide;NSC 3774;2-Tolyl iodide;Iodo-2-methylbenzene",
    "duplicated_cas_no": "",
    "SMILES": "CC1=C(I)C=CC=C1",
    "meta_data": {
        "InChI": "InChI=1S/C7H7I/c1-6-4-2-3-5-7(6)8/h2-5H,1H3",
        "InChIKey": null,
        "Canonical SMILES": "IC=1C=CC=CC1C",
        "Molecular Formula": "C<sub>7</sub>H<sub>7</sub>I",
        "Molecular Mass": "218.04",
        "Boiling Point": "211.5 °C",
        "Melting Point": "162 °C",
        "Density": "1.7090 g/cm³ @ Temp: 20 °C"
    }
}