{
    "cas_no": "24973-22-6",
    "key_name": "3-Methoxy-4-methylbenzaldehyde",
    "cn_name": null,
    "alternate_name": "Benzaldehyde, 3-methoxy-4-methyl-;<em>m</em>-Anisaldehyde, 4-methyl-;3-Methoxy-4-methylbenzaldehyde;3-Methoxy-<em>p</em>-tolualdehyde",
    "duplicated_cas_no": "",
    "SMILES": "O(C)C1=CC(C=O)=CC=C1C",
    "meta_data": {
        "InChI": "InChI=1S/C9H10O2/c1-7-3-4-8(6-10)5-9(7)11-2/h3-6H,1-2H3",
        "InChIKey": null,
        "Canonical SMILES": "O=CC1=CC=C(C(OC)=C1)C",
        "Molecular Formula": "C<sub>9</sub>H<sub>10</sub>O<sub>2</sub>",
        "Molecular Mass": "150.17",
        "Melting Point": "45-46 °C"
    }
}