{
    "cas_no": "89402-44-8",
    "key_name": "5-Bromo-2,3-difluoropyridine",
    "cn_name": null,
    "alternate_name": "Pyridine, 5-bromo-2,3-difluoro-;5-Bromo-2,3-difluoropyridine",
    "duplicated_cas_no": "",
    "SMILES": "FC1=C(F)N=CC(Br)=C1",
    "meta_data": {
        "InChI": "InChI=1S/C5H2BrF2N/c6-3-1-4(7)5(8)9-2-3/h1-2H",
        "InChIKey": null,
        "Canonical SMILES": "FC1=NC=C(Br)C=C1F",
        "Molecular Formula": "C<sub>5</sub>H<sub>2</sub>BrF<sub>2</sub>N",
        "Molecular Mass": "193.98",
        "Boiling Point": "175 °C @ Press: 760 Torr"
    }
}