{
    "cas_no": "16081-45-1",
    "key_name": "2,3-Dihydro-1,4-benzodioxin-5-amine",
    "cn_name": "5-氨基-1,4-苯并二恶烷;",
    "alternate_name": "1,4-Benzodioxin-5-amine, 2,3-dihydro-;1,4-Benzodioxan-5-amine;2,3-Dihydro-1,4-benzodioxin-5-amine;5-Amino-1,4-benzodioxan;5-Amino-1,4-benzodioxane;2,3-Ethylenedioxyaniline;5-Amino-2,3-dihydro-1,4-benzodioxin;(2,3-Dihydrobenzo-1,4-dioxin-5-yl)amine;2,3-Dihydrobenzo[<em>b</em>]-1,4-dioxin-5-amine",
    "duplicated_cas_no": "",
    "SMILES": "NC1=C2C(=CC=C1)OCCO2",
    "meta_data": {
        "InChI": "InChI=1S/C8H9NO2/c9-6-2-1-3-7-8(6)11-5-4-10-7/h1-3H,4-5,9H2",
        "InChIKey": null,
        "Canonical SMILES": "O1C2=CC=CC(N)=C2OCC1",
        "Molecular Formula": "C<sub>8</sub>H<sub>9</sub>NO<sub>2</sub>",
        "Molecular Mass": "151.16",
        "Boiling Point": "205-207 °C @ Press: 7 Torr"
    }
}