{
    "cas_no": "1679-64-7",
    "key_name": "Monomethyl terephthalate",
    "cn_name": "对苯二甲酸单甲酯;",
    "alternate_name": "1,4-Benzenedicarboxylic acid, 1-methyl ester;1,4-Benzenedicarboxylic acid, monomethyl ester;Terephthalic acid, monomethyl ester;Hydrogen methyl terephthalate;Methyl hydrogen terephthalate;Monomethyl terephthalate;4-(Methoxycarbonyl)benzoic acid;4-(Carbomethoxy)benzoic acid;<em>p</em>-Carbomethoxybenzoic acid;<em>p</em>-(Methoxycarbonyl)benzoic acid;Methyl <em>p</em>-carboxybenzoate;Methyl <em>p</em>-phthalate;Methyl 4-carboxybenzoate;NSC 210838;4-[(Methyloxy)carbonyl]benzoic acid",
    "duplicated_cas_no": "2764684-51-5",
    "SMILES": "C(OC)(=O)C1=CC=C(C(O)=O)C=C1",
    "meta_data": {
        "InChI": "InChI=1S/C9H8O4/c1-13-9(12)7-4-2-6(3-5-7)8(10)11/h2-5H,1H3,(H,10,11)",
        "InChIKey": null,
        "Canonical SMILES": "O=C(O)C1=CC=C(C=C1)C(=O)OC",
        "Molecular Formula": "C<sub>9</sub>H<sub>8</sub>O<sub>4</sub>",
        "Molecular Mass": "180.16",
        "Melting Point": "239 °C"
    }
}