{
    "cas_no": "585-88-6",
    "key_name": "Maltitol",
    "cn_name": "麦芽糖醇;4-O-alpha-吡喃葡萄糖基-D-山梨糖醇;",
    "alternate_name": "<span class=\"text-smallcaps\">D</smallcap>-Glucitol, 4-<em>O</em>-α-<smallcap>D</span>-glucopyranosyl-;Glucitol, 4-<em>O</em>-α-<span class=\"text-smallcaps\">D</smallcap>-glucopyranosyl-, <smallcap>D</span>-;Maltitol;4-<em>O</em>-α-<span class=\"text-smallcaps\">D</smallcap>-Glucopyranosyl-<smallcap>D</span>-glucitol;Maltit;Malti MR;<span class=\"text-smallcaps\">D</span>-Maltitol;Amalty Syrup;Mabit;Maltisorb;Amalty MR 100;Malbit CH;Maltidex 100;Amalty MR 20;Malbit CR;Amalty;Amalty MR 50;Malbit CH 16385;Lesys;Amalty P;Amalty MR;Maltisorb P 90;Maltisorb P 200;Maltisorb P 35;Maltisweet 3145;Cerestar 16303;Sweet G 2;Maltisweet;Maltidex H 16330;Lycasin HBC;Maltidex M 16313;Maltitol G 3;Mabit 50M;Maltisorb 75/77;Maltidex;Maltidex CH 16385;SweetPearl;SweetPearl P 200;Maltilite P 200;Maltilite 5575;Maltilite 7575;SweetPearl P 35;Maltilol;Malti-MR 100;Lycasin 75/77;Sweetpearl P 90;Malti-MR 50;Amalty Syrup 70/85;Sweet G 3",
    "duplicated_cas_no": "97906-38-2",
    "SMILES": "O([C@@H]([C@@H]([C@H](CO)O)O)[C@@H](CO)O)[C@H]1O[C@H](CO)[C@@H](O)[C@H](O)[C@H]1O",
    "meta_data": {
        "InChI": "InChI=1S/C12H24O11/c13-1-4(16)7(18)11(5(17)2-14)23-12-10(21)9(20)8(19)6(3-15)22-12/h4-21H,1-3H2/t4-,5+,6+,7+,8+,9-,10+,11+,12+/m0/s1",
        "InChIKey": null,
        "Canonical SMILES": "OCC(O)C(O)C(OC1OC(CO)C(O)C(O)C1O)C(O)CO",
        "Molecular Formula": "C<sub>12</sub>H<sub>24</sub>O<sub>11</sub>",
        "Molecular Mass": "344.31",
        "Melting Point": "145 °C",
        "Density": "1.10286 g/cm³ @ Temp: 20.000 °C; Press: 750 Torr"
    }
}