{
    "cas_no": "285-67-6",
    "key_name": "Cyclopentene, oxide",
    "cn_name": "1,2-环氧环戊烷;1,2-环氧化环戊烷;",
    "alternate_name": "6-Oxabicyclo[3.1.0]hexane;Cyclopentane, 1,2-epoxy-;Cyclopentene oxide;Epoxycyclopentane;Cyclopentene, oxide;Cyclopentene epoxide;Cyclopentane oxide;1,2-Epoxycyclopentane;<em>cis</em>-1,2-Epoxycyclopentane;(±)-6-Oxabicyclo[3.1.0]hexane;NSC 148216;NSC 196230",
    "duplicated_cas_no": "117193-12-1;149827-17-8;2890830-74-5",
    "SMILES": "C12C(O1)CCC2",
    "meta_data": {
        "InChI": "InChI=1S/C5H8O/c1-2-4-5(3-1)6-4/h4-5H,1-3H2",
        "InChIKey": null,
        "Canonical SMILES": "O1C2CCCC12",
        "Molecular Formula": "C<sub>5</sub>H<sub>8</sub>O",
        "Molecular Mass": "84.12",
        "Boiling Point": "102 °C",
        "Density": "0.9670 g/cm³ @ Temp: 23 °C"
    }
}