{
    "cas_no": "523-80-8",
    "key_name": "Apiole",
    "cn_name": "洋芹?;洋芹?;",
    "alternate_name": "1,3-Benzodioxole, 4,7-dimethoxy-5-(2-propen-1-yl)-;Apiole;Benzene, 1-allyl-2,5-dimethoxy-3,4-(methylenedioxy)-;1,3-Benzodioxole, 4,7-dimethoxy-5-(2-propenyl)-;4,7-Dimethoxy-5-(2-propen-1-yl)-1,3-benzodioxole;1-Allyl-2,5-dimethoxy-3,4-methylenedioxybenzene;Parsley camphor;Apiol;Parsley apiole;1,2-Methylenedioxy-3,6-dimethoxy-4-allylbenzene;Apioline;5-Allyl-4,7-dimethoxy-1,3-benzodioxole;Petersilienapiol;NSC 9070;4,7-Dimethoxy-5-(2-propenyl)-1,3-benzodioxole",
    "duplicated_cas_no": "83382-66-5",
    "SMILES": "O(C)C1=C2C(=C(OC)C=C1CC=C)OCO2",
    "meta_data": {
        "InChI": "InChI=1S/C12H14O4/c1-4-5-8-6-9(13-2)11-12(10(8)14-3)16-7-15-11/h4,6H,1,5,7H2,2-3H3",
        "InChIKey": null,
        "Canonical SMILES": "O(C=1C=C(C(OC)=C2OCOC12)CC=C)C",
        "Molecular Formula": "C<sub>12</sub>H<sub>14</sub>O<sub>4</sub>",
        "Molecular Mass": "222.24",
        "Boiling Point": "294 °C",
        "Melting Point": "29.5 °C",
        "Density": "1.176 g/cm³ @ Temp: 14 °C"
    }
}