{
    "cas_no": "5725-91-7",
    "key_name": "7-Ethoxyresorufin",
    "cn_name": "7-羟基吩噁嗪酮乙醚;",
    "alternate_name": "3<em>H</em>-Phenoxazin-3-one, 7-ethoxy-;7-Ethoxy-3<em>H</em>-phenoxazin-3-one;Resorufin ethyl ether;7-Ethoxyphenoxazin-3-one;<em>O</em>-Ethylresorufin;7-Ethoxyresorufin;7-Ethoxyphenoxazone",
    "duplicated_cas_no": "",
    "SMILES": "O(CC)C=1C=C2C(N=C3C(O2)=CC(=O)C=C3)=CC1",
    "meta_data": {
        "InChI": "InChI=1S/C14H11NO3/c1-2-17-10-4-6-12-14(8-10)18-13-7-9(16)3-5-11(13)15-12/h3-8H,2H2,1H3",
        "InChIKey": null,
        "Canonical SMILES": "O=C1C=CC2=NC=3C=CC(OCC)=CC3OC2=C1",
        "Molecular Formula": "C<sub>14</sub>H<sub>11</sub>NO<sub>3</sub>",
        "Molecular Mass": "241.24",
        "Melting Point": "235-236 °C"
    }
}