{
    "cas_no": "108-85-0",
    "key_name": "Bromocyclohexane",
    "cn_name": "溴代环己烷;环己基溴;",
    "alternate_name": "Cyclohexane, bromo-;Bromocyclohexane;Cyclohexyl bromide;1-Bromocyclohexane;NSC 11207",
    "duplicated_cas_no": "",
    "SMILES": "BrC1CCCCC1",
    "meta_data": {
        "InChI": "InChI=1S/C6H11Br/c7-6-4-2-1-3-5-6/h6H,1-5H2",
        "InChIKey": null,
        "Canonical SMILES": "BrC1CCCCC1",
        "Molecular Formula": "C<sub>6</sub>H<sub>11</sub>Br",
        "Molecular Mass": "163.06",
        "Boiling Point": "166.2 °C",
        "Melting Point": "-56.5 °C",
        "Density": "1.3332 g/cm³ @ Temp: 20.1 °C"
    }
}