{
    "cas_no": "4394-85-8",
    "key_name": "<em>N</em>-Formylmorpholine",
    "cn_name": "N-甲酰吗啉;4-吗啉甲醛;N-甲醛基吗啉;",
    "alternate_name": "4-Morpholinecarboxaldehyde;Morpholine, 4-formyl-;4-Formylmorpholine;<em>N</em>-Formylmorpholine;1-Formylmorpholine;<em>N</em>-Morpholinecarboxaldehyde;NSC 14833;Morpholine-4-carboxaldehyde",
    "duplicated_cas_no": "",
    "SMILES": "C(=O)N1CCOCC1",
    "meta_data": {
        "InChI": "InChI=1S/C5H9NO2/c7-5-6-1-3-8-4-2-6/h5H,1-4H2",
        "InChIKey": null,
        "Canonical SMILES": "O=CN1CCOCC1",
        "Molecular Formula": "C<sub>5</sub>H<sub>9</sub>NO<sub>2</sub>",
        "Molecular Mass": "115.13",
        "Boiling Point": "239 °C",
        "Melting Point": "21 °C",
        "Density": "1.145 g/cm³ @ Temp: 26 °C"
    }
}