{
    "cas_no": "20662-84-4",
    "key_name": "Trimethyloxazole",
    "cn_name": "2,4,5-三甲基唑;",
    "alternate_name": "Oxazole, 2,4,5-trimethyl-;Oxazole, trimethyl-;2,4,5-Trimethyloxazole;Trimethyloxazole;2,4,5-Trimethyl-1,3-oxazole",
    "duplicated_cas_no": "",
    "SMILES": "CC1=C(C)OC(C)=N1",
    "meta_data": {
        "InChI": "InChI=1S/C6H9NO/c1-4-5(2)8-6(3)7-4/h1-3H3",
        "InChIKey": null,
        "Canonical SMILES": "N1=C(OC(=C1C)C)C",
        "Molecular Formula": "C<sub>6</sub>H<sub>9</sub>NO",
        "Molecular Mass": "111.14",
        "Boiling Point": "134 °C",
        "Density": "0.9566 g/cm³ @ Temp: 25 °C"
    }
}