{
    "cas_no": "6923-22-4",
    "key_name": "Monocrotophos",
    "cn_name": "久效磷;O,O-二甲基-2-甲基氨基甲酰基-1-甲基乙烯基磷酸酯;",
    "alternate_name": "Phosphoric acid, dimethyl (1<em>E</em>)-1-methyl-3-(methylamino)-3-oxo-1-propen-1-yl ester;Phosphoric acid, dimethyl ester, ester with 3-hydroxy-<em>N</em>-methylcrotonamide, (<em>E</em>)-;Phosphoric acid, dimethyl 1-methyl-3-(methylamino)-3-oxo-1-propenyl ester, (<em>E</em>)-;Phosphoric acid, dimethyl (1<em>E</em>)-1-methyl-3-(methylamino)-3-oxo-1-propenyl ester;C 1414;Azodrin;Nuvacron;SD 9129;Monocrotophos;Monochrotophos;3-Hydroxy-<em>N</em>-methyl-<em>cis</em>-crotonamide dimethyl phosphate;Nuvacron 20;Monocil 40;Corophos;Croton 36;Monocil;Monicil;Monostar;Monocron;Azodrin 60;Parryfos;Apadrin;Monocos;Nuvacron 36SL;Azodrin 202R;Kadett 36;Kadett;Monokrotofos;Sufos;Monodhan;Devi;Phytofos;Jiuxiaolin;MeSH ID: D008999",
    "duplicated_cas_no": "83857-41-4",
    "SMILES": "P(O/C(=C/C(NC)=O)/C)(OC)(OC)=O",
    "meta_data": {
        "InChI": "InChI=1S/C7H14NO5P/c1-6(5-7(9)8-2)13-14(10,11-3)12-4/h5H,1-4H3,(H,8,9)/b6-5+",
        "InChIKey": null,
        "Canonical SMILES": "O=C(C=C(OP(=O)(OC)OC)C)NC",
        "Molecular Formula": "C<sub>7</sub>H<sub>14</sub>NO<sub>5</sub>P",
        "Molecular Mass": "223.16",
        "Boiling Point": "125 °C @ Press: 760 Torr",
        "Melting Point": "54-55 °C",
        "Density": "122 g/cm³ @ Temp: 20 °C"
    }
}