{
    "cas_no": "513-81-5",
    "key_name": "2,3-Dimethyl-1,3-butadiene",
    "cn_name": null,
    "alternate_name": "1,3-Butadiene, 2,3-dimethyl-;2,3-Dimethyl-1,3-butadiene;Biisopropenyl;Diisopropenyl;2,3-Dimethylbutadiene;2,3-Dimethylenebutane;NSC 8656;2,3-Dimethylbuta-1,2-diene;2,3-Dimethyl-1,3-butdiene",
    "duplicated_cas_no": "",
    "SMILES": "C(C(C)=C)(C)=C",
    "meta_data": {
        "InChI": "InChI=1S/C6H10/c1-5(2)6(3)4/h1,3H2,2,4H3",
        "InChIKey": null,
        "Canonical SMILES": "C=C(C(=C)C)C",
        "Molecular Formula": "C<sub>6</sub>H<sub>10</sub>",
        "Molecular Mass": "82.14",
        "Boiling Point": "68.8 °C",
        "Melting Point": "-76 °C",
        "Density": "0.7304 g/cm³ @ Temp: 16.5 °C"
    }
}