{
    "cas_no": "20474-93-5",
    "key_name": "2-Propen-1-yl 2-butenoate",
    "cn_name": "2-丁烯酸烯丙酯;巴豆酸烯丙酯;But-2-enoic Acid Allyl Ester;Allyl 2-butenoate;Crotonic acid allyl ester;",
    "alternate_name": "2-Butenoic acid, 2-propen-1-yl ester;Crotonic acid, allyl ester;2-Butenoic acid, 2-propenyl ester;2-Propen-1-yl 2-butenoate;Allyl crotonate;NSC 18598;Allyl 2-butenoate",
    "duplicated_cas_no": "",
    "SMILES": "C(OCC=C)(C=CC)=O",
    "meta_data": {
        "InChI": "InChI=1S/C7H10O2/c1-3-5-7(8)9-6-4-2/h3-5H,2,6H2,1H3",
        "InChIKey": null,
        "Canonical SMILES": "O=C(OCC=C)C=CC",
        "Molecular Formula": "C<sub>7</sub>H<sub>10</sub>O<sub>2</sub>",
        "Molecular Mass": "126.15",
        "Boiling Point": "88-89 °C @ Press: 70 Torr",
        "Density": "0.9440 g/cm³ @ Temp: 20 °C"
    }
}