{
    "cas_no": "3084-53-5",
    "key_name": "Sulfonium, trimethyl-, bromide (1:1)",
    "cn_name": "三甲基溴化锍;",
    "alternate_name": "Sulfonium, trimethyl-, bromide (1:1);Sulfonium, trimethyl-, bromide;Trimethylsulfonium bromide",
    "duplicated_cas_no": "",
    "SMILES": "[S+](C)(C)C.[Br-]",
    "meta_data": {
        "InChI": "InChI=1S/C3H9S.BrH/c1-4(2)3;/h1-3H3;1H/q+1;/p-1",
        "InChIKey": null,
        "Canonical SMILES": "[Br-].[S+](C)(C)C",
        "Molecular Formula": "C<sub>3</sub>H<sub>9</sub>S.Br",
        "Molecular Mass": "",
        "Melting Point": "172 °C (decomp)"
    }
}