{
    "cas_no": "37592-72-6",
    "key_name": "1-(4-Hexylphenyl)ethanone",
    "cn_name": "对己基苯乙酮;4-正己基苯乙酮;",
    "alternate_name": "Ethanone, 1-(4-hexylphenyl)-;1-(4-Hexylphenyl)ethanone;<em>p</em>-<em>n</em>-Hexylacetophenone;4′-Hexylacetophenone;<em>p</em>-Hexylacetophenone;1-(4-Hexylphenyl)ethan-1-one",
    "duplicated_cas_no": "",
    "SMILES": "C(C)(=O)C1=CC=C(CCCCCC)C=C1",
    "meta_data": {
        "InChI": "InChI=1S/C14H20O/c1-3-4-5-6-7-13-8-10-14(11-9-13)12(2)15/h8-11H,3-7H2,1-2H3",
        "InChIKey": null,
        "Canonical SMILES": "O=C(C1=CC=C(C=C1)CCCCCC)C",
        "Molecular Formula": "C<sub>14</sub>H<sub>20</sub>O",
        "Molecular Mass": "204.31",
        "Boiling Point": "171-172 °C"
    }
}