{
    "cas_no": "4003-94-5",
    "key_name": "4-Nitrostilbene",
    "cn_name": "4-硝基均二苯代乙烯;",
    "alternate_name": "Benzene, 1-nitro-4-(2-phenylethenyl)-;Stilbene, 4-nitro-;1-Nitro-4-(2-phenylethenyl)benzene;<em>p</em>-Nitrostilbene;4-Nitrostilbene;NSC 141579;1-Phenyl-2-(4-nitrophenyl)ethene;β-(4-Nitrophenyl)styrene;1-Nitro-4-styrylbenzene;1-(4-Nitrophenyl)-2-phenylethene",
    "duplicated_cas_no": "",
    "SMILES": "C(=CC1=CC=CC=C1)C2=CC=C(N(=O)=O)C=C2",
    "meta_data": {
        "InChI": "InChI=1S/C14H11NO2/c16-15(17)14-10-8-13(9-11-14)7-6-12-4-2-1-3-5-12/h1-11H",
        "InChIKey": null,
        "Canonical SMILES": "O=N(=O)C1=CC=C(C=CC=2C=CC=CC2)C=C1",
        "Molecular Formula": "C<sub>14</sub>H<sub>11</sub>NO<sub>2</sub>",
        "Molecular Mass": "225.24",
        "Boiling Point": "170 °C @ Press: 9 Torr",
        "Melting Point": "155 °C"
    }
}