{
    "cas_no": "1849-29-2",
    "key_name": "Methan-<em>d</em><sub>3</sub>-ol",
    "cn_name": "甲醇-d3;甲醇-D3;",
    "alternate_name": "Methan-<em>d</em><sub>3</sub>-ol;Methyl-<em>d</em><sub>3</sub> alcohol;Trideuteriomethanol;Methanol-<em>1</em>,<em>1</em>,<em>1</em>-<em>d</em><sub>3</sub>;Methanol (CD<sub>3</sub>OH);Methanol-<em>d</em><sub>3</sub>",
    "duplicated_cas_no": "",
    "SMILES": "C(O)([2H])([2H])[2H]",
    "meta_data": {
        "InChI": "InChI=1S/CH4O/c1-2/h2H,1H3/i1D3",
        "InChIKey": null,
        "Canonical SMILES": "OC",
        "Molecular Formula": "CHD<sub>3</sub>O",
        "Molecular Mass": "",
        "Boiling Point": "58.0-64.4 °C"
    }
}