{
    "cas_no": "52462-29-0",
    "key_name": "Bis(dichloro(η<sup>6</sup>-<em>p</em>-cymene)ruthenium)",
    "cn_name": "二氯双(4-甲基异丙基苯基)钌(II);",
    "alternate_name": "Ruthenium, di-μ-chlorodichlorobis[(1,2,3,4,5,6-η)-1-methyl-4-(1-methylethyl)benzene]di-;Benzene, 1-methyl-4-(1-methylethyl)-, ruthenium complex;Di-μ-chlorodichlorobis[(1,2,3,4,5,6-η)-1-methyl-4-(1-methylethyl)benzene]diruthenium;Bis(4-isopropyltoluene)tetrachlorodiruthenium;Tetrachlorobis(<em>p</em>-cymene)diruthenium;Bis(dichloro(η<sup>6</sup>-4-isopropyltoluene)ruthenium);(<em>p</em>-Cymene)ruthenium dichloride dimer;Bis(dichloro(<em>p</em>-η<sup>6</sup>-isopropyltoluene)ruthenium);Bis(dichloro(η<sup>6</sup>-<em>p</em>-cymene)ruthenium);(<em>p</em>-Cymene)ruthenium(II) chloride dimer;Bis((μ-chloro)chloro(η<sup>6</sup>-1-isopropyl-4-methylbenzene)ruthenium);Bis((μ-chloro)chloro(η<sup>6</sup>-4-isopropyltoluene)ruthenium);Bis(chloro(μ-chloro)(η<sup>6</sup>-<em>p</em>-isopropyl(methyl)benzene)ruthenium);Bis(dichloro(η<sup>6</sup>-<em>p</em>-isopropyltoluene)ruthenium);Bis(chloro(μ-chloro)(η<sup>6</sup>-<em>p</em>-isopropyltoluene)ruthenium);Bis(chloro(μ-chloro)(η<sup>6</sup>-<em>p</em>-cymene)ruthenium);Tetrachlorobis(4-isopropyltoluene)diruthenium;Bis((dichloro(η<sup>6</sup>-<em>p</em>-isopropyl(methyl)benzene)ruthenium));Dichloro(<em>p</em>-cymene)ruthenium dimer;Bis(((η<sup>6</sup>-4-isopropyltoluene)(chloro)(μ-chloro)ruthenium));Dichlorodi-μ-chlorobis(η<sup>6</sup>-4-isopropyltoluene)diruthenium;Bis(η<sup>6</sup>-<em>p</em>-Cymene)tetrachlorodiruthenium;Di-μ-chlorobis(chloro(η<sup>6</sup>-4-isopropyltoluene)ruthenium);Bis[(η<sup>6</sup>-<em>p</em>-isopropyltoluene)dichlororuthenium];Di-μ-chlorobis[(<em>p</em>-cymene)chlororuthenium];Di-μ-chlorobis(chloro(η<sup>6</sup>-4-cymene)ruthenium);Bis(μ-chlorochloro(η<sup>6</sup>-4-cymene)ruthenium);Bis((η<sup>6</sup>-<em>p</em>-cymene)dichlororuthenium);Bis[dichloro(1-isopropyl-4-methylbenzene)ruthenium];Di-μ-chlorobis(chloro(η<sup>6</sup>-<em>p</em>-cymene)ruthenium);Tetrachlorobis(η<sup>6</sup>-<em>p</em>-cymene)diruthenium;Bis[dichloro(<em>p</em>-cymene)ruthenium];Bis[dichloro(η<sup>6</sup>-1-isopropyl-4-methylbenzene)ruthenium];Tetrachlorobis(η<sub>6</sub>-cymene)diruthenium;Tetrachlorobis(4-cymene)diruthenium;Dichloro(<em>p</em>-cymene)ruthenium(II) dimer;Bis[(η<sup>6</sup>-1-isopropyl-4-methylbenzene)dichlororuthenium];Di-μ-chlorodichlorobis(η<sup>6</sup>-p-cymene)diruthenium;Di-μ-chlorodichlorobis(η<sup>6</sup>-<em>p</em>-cymene)diruthenium;Di-μ-chlorodichlorobis(η<sup>5</sup>-1-isopropyl-4-methylbenzene)diruthenium;[Ru(<em>p</em>-cymene)Cl<sub>2</sub>]<sub>2</sub>;Bis[dichlorido(cym) ruthenium(II)];[RuCl<sub>2</sub>(η<sup>2</sup>-<em>p</em>-cymene)]<sub>2</sub>;(Cymene)ruthenium dichloride dimer;Bis(dichloro(η<sup>6</sup>-p-cymene)ruthenium)",
    "duplicated_cas_no": "168206-14-2;251456-14-1;265324-00-3;318295-59-9;2768230-47-1",
    "SMILES": "[Cl-][Ru+2]123456(C=7(C(C)C)[CH]1=[CH]2C3(C)=[CH]4[CH]57)[Cl-][Ru+2]89%10%11%12([Cl-])([Cl-]6)C=%13(C(C)C)[CH]8=[CH]9C%10(C)=[CH]%11[CH]%12%13",
    "meta_data": {
        "InChI": "InChI=1S/2C10H14.4ClH.2Ru/c2*1-8(2)10-6-4-9(3)5-7-10;;;;;;/h2*4-8H,1-3H3;4*1H;;/q;;;;;;2*+2/p-4",
        "InChIKey": null,
        "Canonical SMILES": "[Cl-][Ru+2]123456([Cl-][Ru+2]789%10%11([Cl-])([Cl-]1)[CH]=%12[CH]%11=C%10(C(C)C)[CH]9=[CH]8C%127C)[CH]=%13[CH]6=C5(C(C)C)[CH]4=[CH]3C%132C",
        "Molecular Formula": "C<sub>20</sub>H<sub>28</sub>Cl<sub>4</sub>Ru<sub>2</sub>",
        "Molecular Mass": "",
        "Boiling Point": "125 °C",
        "Melting Point": "&gt;100 °C (decomp)"
    }
}