{
    "cas_no": "2036-41-1",
    "key_name": "5-Methylpyrimidine",
    "cn_name": "5-甲基嘧啶;5-甲基嘧啶;",
    "alternate_name": "Pyrimidine, 5-methyl-;5-Methylpyrimidine;5-Methyl-1,3-diazine",
    "duplicated_cas_no": "",
    "SMILES": "CC=1C=NC=NC1",
    "meta_data": {
        "InChI": "InChI=1S/C5H6N2/c1-5-2-6-4-7-3-5/h2-4H,1H3",
        "InChIKey": null,
        "Canonical SMILES": "N=1C=NC=C(C1)C",
        "Molecular Formula": "C<sub>5</sub>H<sub>6</sub>N<sub>2</sub>",
        "Molecular Mass": "94.11",
        "Boiling Point": "153 °C",
        "Melting Point": "30.5 °C"
    }
}