{
    "cas_no": "109-93-3",
    "key_name": "Vinyl ether",
    "cn_name": null,
    "alternate_name": "Ethene, 1,1′-oxybis-;Vinyl ether;Divinyl ether;Divinyl oxide;Vinesthene;Vinydan;Vinethene;Vinesthesin;Vinethen;Vinidyl;Vinether;1,1′-Oxybisethene;(Ethenyloxy)ethene",
    "duplicated_cas_no": "",
    "SMILES": "O(C=C)C=C",
    "meta_data": {
        "InChI": "InChI=1S/C4H6O/c1-3-5-4-2/h3-4H,1-2H2",
        "InChIKey": null,
        "Canonical SMILES": "O(C=C)C=C",
        "Molecular Formula": "C<sub>4</sub>H<sub>6</sub>O",
        "Molecular Mass": "70.09",
        "Boiling Point": "28.3 °C",
        "Melting Point": "-101 °C",
        "Density": "0.8791 g/cm³ @ Temp: 15 °C"
    }
}