{
    "cas_no": "5534-09-8",
    "key_name": "Beclomethasone dipropionate",
    "cn_name": "丙酸倍氯米松;倍氯米松双丙酸酯;",
    "alternate_name": "Pregna-1,4-diene-3,20-dione, 9-chloro-11-hydroxy-16-methyl-17,21-bis(1-oxopropoxy)-, (11β,16β)-;Pregna-1,4-diene-3,20-dione, 9-chloro-11β,17,21-trihydroxy-16β-methyl-, 17,21-dipropionate;(11β,16β)-9-Chloro-11-hydroxy-16-methyl-17,21-bis(1-oxopropoxy)pregna-1,4-diene-3,20-dione;Beclometasone dipropionate;9α-Chloro-16β-methylprednisolone 17,21-dipropionate;Propaderm;Beclomethasone 17,21-dipropionate;Sanasthmyl;Becotide;Vanceril;Beclometasone 17,21-dipropionate;Propaderm Forte;Beclomethasone 17α,21-dipropionate;Beclomet;Beclovent;Vancenase;Beconase;Beclazone 50;Beclazone 250;Beclazone;Beclotide;Beclotide 100;Vanceril DS;Beconase AQ;Vancenase AQ;Aerobec;QVAR;Beclomethasone dipropionate;Beclate;Aldecin AQ nasal;Belchlorhinol;Anceron;Viarex;Beclacin;Andion;Sch 8020W;Sanasthmax;Sanasthymyl;Aldecin;Becodisks;Viarox;Inalone O;Inalone R;Entyderma;Clenil A;Belcoforte;Becloval;Korbutone;Rino-Clenil;Beclovent Inhaler;Belcomet;Ventolair;Qvar 50;orBec;Topster;Nasobec;Clenil;Becloneb",
    "duplicated_cas_no": "34135-07-4",
    "SMILES": "C(COC(CC)=O)(=O)[C@]1(OC(CC)=O)[C@]2(C)[C@@](C[C@@H]1C)([C@]3([C@](Cl)([C@@H](O)C2)[C@]4(C)C(CC3)=CC(=O)C=C4)[H])[H]",
    "meta_data": {
        "InChI": "InChI=1S/C28H37ClO7/c1-6-23(33)35-15-22(32)28(36-24(34)7-2)16(3)12-20-19-9-8-17-13-18(30)10-11-25(17,4)27(19,29)21(31)14-26(20,28)5/h10-11,13,16,19-21,31H,6-9,12,14-15H2,1-5H3/t16-,19-,20-,21-,25-,26-,27-,28-/m0/s1",
        "InChIKey": null,
        "Canonical SMILES": "O=C1C=CC2(C(=C1)CCC3C4CC(C)C(OC(=O)CC)(C(=O)COC(=O)CC)C4(C)CC(O)C32Cl)C",
        "Molecular Formula": "C<sub>28</sub>H<sub>37</sub>ClO<sub>7</sub>",
        "Molecular Mass": "521.04",
        "Melting Point": "117-120 °C"
    }
}