{
    "cas_no": "2498-66-0",
    "key_name": "Benz[<em>a</em>]anthracene-7,12-dione",
    "cn_name": "苯并[a]蒽-7,12-二酮;",
    "alternate_name": "Benz[<em>a</em>]anthracene-7,12-dione;C.I. 59000;1,2-Benzanthraquinone;1,2-Benzoanthraquinone;Sirius Yellow G;Benzanthracene-7,12-dione;Benz[<em>a</em>]anthra-7,12-quinone;Benzanthraquinone;Benz[<em>a</em>]anthracene-7,12-quinone;1,2-Benzo-9,10-anthraquinone;NSC 7961;Benzo[<em>a</em>]anthracene-7,12-dione;Tetraphene-7,12-dione",
    "duplicated_cas_no": "129243-38-5;138424-87-0",
    "SMILES": "O=C1C2=C(C(=O)C=3C1=CC=CC3)C=CC=4C2=CC=CC4",
    "meta_data": {
        "InChI": "InChI=1S/C18H10O2/c19-17-13-7-3-4-8-14(13)18(20)16-12-6-2-1-5-11(12)9-10-15(16)17/h1-10H",
        "InChIKey": null,
        "Canonical SMILES": "O=C1C=2C=CC=CC2C(=O)C=3C=4C=CC=CC4C=CC13",
        "Molecular Formula": "C<sub>18</sub>H<sub>10</sub>O<sub>2</sub>",
        "Molecular Mass": "258.27",
        "Boiling Point": "135-155 °C @ Press: 1 Torr",
        "Melting Point": "169-171 °C",
        "Density": "1.398 g/cm³"
    }
}