{
    "cas_no": "7440-33-7",
    "key_name": "Tungsten",
    "cn_name": "钨;钨粉;",
    "alternate_name": "Tungsten;Wolfram;VA (tungsten);VA;BIO (metal);BIO;Tungsten element;D 20 (metal);D 20;Ventron 00620;W 3N8;GE-U 10-4795;C 50H;5N-W;B 10;D 100;D 100 (metal);B 10 (metal);W 3KD;SG 50W;RST-U;WT;WL;WL 100;D 100W;AW 3105;FW 1-150;PF 17W;Osram M-37;C 6-649;WS 139;C 5-531;S-Tan;WWE 06PB;WWE 08PB;W 4kD;C 50;W 1kD;W 461107;YFM 08N50;74MR0001;NP-W-2;WD 1-60;W 5 (metal);W 2KD;MeSH ID: D014414;DK-W 005",
    "duplicated_cas_no": "37374-90-6",
    "SMILES": "[W]",
    "meta_data": {
        "InChI": "InChI=1S/W",
        "InChIKey": null,
        "Canonical SMILES": "[W]",
        "Molecular Formula": "W",
        "Molecular Mass": "",
        "Boiling Point": "5900 °C @ Press: 760 Torr",
        "Melting Point": "3410 °C",
        "Density": "18.7-19.3 g/cm³ @ Temp: 20 °C"
    }
}