{
    "cas_no": "80181-31-3",
    "key_name": "3-Hydroxybutyric acid-3-hydroxyvaleric acid copolymer",
    "cn_name": null,
    "alternate_name": "Pentanoic acid, 3-hydroxy-, polymer with 3-hydroxybutanoic acid;Butanoic acid, 3-hydroxy-, polymer with 3-hydroxypentanoic acid;β-Hydroxybutyric acid-β-hydroxyvaleric acid copolymer;β-Hydroxybutanoic acid-β-hydroxyvaleric acid copolymer;β-Hydroxybutyrate-β-hydroxyvalerate copolymer;Biopol 530;3-Hydroxybutyrate-3-hydroxyvalerate copolymer;Biopol D 410G;3-Hydroxybutanoic acid-3-hydroxypentanoic acid copolymer;3-Hydroxypentanoic acid-3-hydroxybutanoic acid copolymer;Poly(3-hydroxybutyrate-3-hydroxyvalerate);Biopol PHBV;Biopol P(3HB-3HV);Biopol D 600;Biopol D 400;Biopol D 411G;3-Hydroxybutyric acid-3-hydroxyvaleric acid copolymer;Biopol D 611G;D 300P;Biopol D 400P;Biopol D 331G;Biopol D 600G;Biopol XB 407;Biopol G 4112D;Biopol D 411GWT;Biopol P 600G;Biopol D 400G;3-Hydroxybutanoic acid-3-hydroxyvaleric acid copolymer;NSC 179698;Biopol D 411GN;ElasmoPOB;3-Hydroxybutyric acid-3-hydroxypentanoic acid copolymer;Biopol PHBV 12;ElastoPOB;3-Hydroxybutyric acid-valeric acid copolymer;Biocycle 2000;Bioplastotan;ElastoPHB 3D;Poly(3-hydroxybutanoic acid-3-hydroxyvaleric acid);Hydroxybutyrate-hydroxyvalerate copolymer;Biopol D 600GN;3-Hydroxyvalerate-3-hydroxybutyrate copolymer;3-Hydroxyvaleric acid-3-hydroxybutyric acid copolymer;Biopol 6L600N19;Poly(3-hydroxybutyrate-co-3-hydroxyvalerate);Poly(hydroxybutyrate-co-hydroxyvalerate);PHBV;3-Hydroxybutyrate-hydroxyvalerate copolymer;6L600N19;Mirel MZ 100;Biopol 3000;Poly-(3-hydroxybutyrate-co-3-hydroxyvalerate);Biocycle L 110;FN 000HA;β-Hydroxybutanoic acid-β-hydroxypentanoic acid copolymer;Ecomann 10020EM;Biocycle 1000;Hydroxybutyric acid-β-hydroxyvaleric acid copolymer;[3-Hydroxybutyrate-<em>co</em>-3-hydroxyvalerate] copolymer;Maj Eco FN 000HA;PHB88/PHV12;PHI 003;Biocycle L 112;PHI 001;Polyhydroxybutyratevalerate",
    "duplicated_cas_no": "106768-91-6;133644-68-5;141655-80-3;141813-48-1;151768-60-4;152665-53-7;172672-07-0;172672-08-1;1167421-48-8;1178978-19-2;1203469-70-8;1210501-96-4;1310532-79-6;1493807-42-3;1809275-84-0;2260564-88-1",
    "SMILES": "C(CC(O)=O)(CC)O.C(C(C)O)C(O)=O",
    "meta_data": {
        "InChI": "InChI=1S/C5H10O3.C4H8O3/c1-2-4(6)3-5(7)8;1-3(5)2-4(6)7/h4,6H,2-3H2,1H3,(H,7,8);3,5H,2H2,1H3,(H,6,7)",
        "InChIKey": null,
        "Canonical SMILES": "O=C(O)CC(O)C.O=C(O)CC(O)CC",
        "Molecular Formula": "(C<sub>5</sub>H<sub>10</sub>O<sub>3</sub>.C<sub>4</sub>H<sub>8</sub>O<sub>3</sub>)<sub>x</sub>",
        "Molecular Mass": "",
        "Melting Point": "150 °C",
        "Density": "0.068 g/cm³"
    }
}