{
    "cas_no": "104-03-0",
    "key_name": "(4-Nitrophenyl)acetic acid",
    "cn_name": "对硝基苯乙酸;",
    "alternate_name": "Benzeneacetic acid, 4-nitro-;Acetic acid, (<em>p</em>-nitrophenyl)-;4-Nitrobenzeneacetic acid;(<em>p</em>-Nitrophenyl)acetic acid;<em>p</em>-Nitro-α-toluic acid;2-(<em>p</em>-Nitrophenyl)acetic acid;(4-Nitrophenyl)acetic acid;NSC 5398;2-(4-Nitrophenyl)acetic acid",
    "duplicated_cas_no": "",
    "SMILES": "C(C(O)=O)C1=CC=C(N(=O)=O)C=C1",
    "meta_data": {
        "InChI": "InChI=1S/C8H7NO4/c10-8(11)5-6-1-3-7(4-2-6)9(12)13/h1-4H,5H2,(H,10,11)",
        "InChIKey": null,
        "Canonical SMILES": "O=C(O)CC1=CC=C(C=C1)N(=O)=O",
        "Molecular Formula": "C<sub>8</sub>H<sub>7</sub>NO<sub>4</sub>",
        "Molecular Mass": "181.15",
        "Melting Point": "154 °C"
    }
}