{
    "cas_no": "60079-22-3",
    "key_name": "<span class=\"text-smallcaps\">L</smallcap>-β-Aspartyl-<smallcap>L</span>-aspartic acid",
    "cn_name": null,
    "alternate_name": "<span class=\"text-smallcaps\">L</smallcap>-Aspartic acid, <smallcap>L</span>-β-aspartyl-;<span class=\"text-smallcaps\">L</smallcap>-Aspartic acid, <em>N</em>-<smallcap>L</span>-β-aspartyl-;<span class=\"text-smallcaps\">L</smallcap>-β-Aspartyl-<smallcap>L</span>-aspartic acid;β-Aspartyl aspartic acid;NSC 120024",
    "duplicated_cas_no": "",
    "SMILES": "[C@H](NC(C[C@@H](C(O)=O)N)=O)(CC(O)=O)C(O)=O",
    "meta_data": {
        "InChI": "InChI=1S/C8H12N2O7/c9-3(7(14)15)1-5(11)10-4(8(16)17)2-6(12)13/h3-4H,1-2,9H2,(H,10,11)(H,12,13)(H,14,15)(H,16,17)/t3-,4-/m0/s1",
        "InChIKey": null,
        "Canonical SMILES": "O=C(O)CC(NC(=O)CC(N)C(=O)O)C(=O)O",
        "Molecular Formula": "C<sub>8</sub>H<sub>12</sub>N<sub>2</sub>O<sub>7</sub>",
        "Molecular Mass": "248.19",
        "Melting Point": "152-153 °C"
    }
}