{
    "cas_no": "28608-75-5",
    "key_name": "Orientin",
    "cn_name": null,
    "alternate_name": "4<em>H</em>-1-Benzopyran-4-one, 2-(3,4-dihydroxyphenyl)-8-β-<span class=\"text-smallcaps\">D</span>-glucopyranosyl-5,7-dihydroxy-;Orientin;2-(3,4-Dihydroxyphenyl)-8-β-<span class=\"text-smallcaps\">D</span>-glucopyranosyl-5,7-dihydroxy-4<em>H</em>-1-benzopyran-4-one;Luteolin 8-<em>C</em>-β-<span class=\"text-smallcaps\">D</span>-glucopyranoside;Luteolin 8-<em>C</em>-glucoside;Lutexin;Orientin (flavone);8-β-<span class=\"text-smallcaps\">D</span>-Glucopyranosyl-3′,4′,5,7-tetrahydroxyflavone;Luteolin-8-glucoside;Luteolin 8-<em>C</em>-β-glucopyranoside;Luteolin-8-<em>C</em>-glucoside;Luteolin 8-C-glucoside",
    "duplicated_cas_no": "4261-41-0;6934-21-0;30106-70-8;1235237-57-6",
    "SMILES": "OC=1C(=C2C(C(=O)C=C(O2)C3=CC(O)=C(O)C=C3)=C(O)C1)[C@@H]4O[C@H](CO)[C@@H](O)[C@H](O)[C@H]4O",
    "meta_data": {
        "InChI": "InChI=1S/C21H20O11/c22-6-14-17(28)18(29)19(30)21(32-14)16-11(26)4-10(25)15-12(27)5-13(31-20(15)16)7-1-2-8(23)9(24)3-7/h1-5,14,17-19,21-26,28-30H,6H2/t14-,17-,18+,19-,21+/m1/s1",
        "InChIKey": null,
        "Canonical SMILES": "O=C1C=C(OC=2C1=C(O)C=C(O)C2C3OC(CO)C(O)C(O)C3O)C=4C=CC(O)=C(O)C4",
        "Molecular Formula": "C<sub>21</sub>H<sub>20</sub>O<sub>11</sub>",
        "Molecular Mass": "448.38",
        "Melting Point": "283 °C (decomp)"
    }
}