{
    "cas_no": "108-74-7",
    "key_name": "1,3,5-Trimethylhexahydro-1,3,5-triazine",
    "cn_name": null,
    "alternate_name": "1,3,5-Triazine, hexahydro-1,3,5-trimethyl-;<em>s</em>-Triazine, hexahydro-1,3,5-trimethyl-;Hexahydro-1,3,5-trimethyl-1,3,5-triazine;1,3,5-Trimethylhexahydro-<em>s</em>-triazine;1,3,5-Trimethylhexahydro-1,3,5-triazine;Hexahydro-1,3,5-trimethyl-<em>s</em>-triazine;F 7771;1,3,5-Trimethyltrimethylenetriamine;<em>N</em>,<em>N</em>′,<em>N</em>′′-Trimethyl-1,3,5-triazacyclohexane;NSC 166326;1,3,5-Trimethyl-1,3,5-triazacyclohexane;1,3,5-Trimethylhexahydrotriazine;1,3,5-Trimethyl-1,3,5-triazinane",
    "duplicated_cas_no": "",
    "SMILES": "CN1CN(C)CN(C)C1",
    "meta_data": {
        "InChI": "InChI=1S/C6H15N3/c1-7-4-8(2)6-9(3)5-7/h4-6H2,1-3H3",
        "InChIKey": null,
        "Canonical SMILES": "N1(C)CN(C)CN(C)C1",
        "Molecular Formula": "C<sub>6</sub>H<sub>15</sub>N<sub>3</sub>",
        "Molecular Mass": "129.20",
        "Boiling Point": "155-160 °C"
    }
}