{
    "cas_no": "1711-02-0",
    "key_name": "4-Iodobenzoyl chloride",
    "cn_name": "4-碘苯甲酰氯;",
    "alternate_name": "Benzoyl chloride, 4-iodo-;Benzoyl chloride, <em>p</em>-iodo-;4-Iodobenzoyl chloride;<em>p</em>-Iodobenzoyl chloride;4-Iodobenzenecarbonyl chloride;4-Iodobenzoic acid chloride;NSC 97335",
    "duplicated_cas_no": "",
    "SMILES": "C(Cl)(=O)C1=CC=C(I)C=C1",
    "meta_data": {
        "InChI": "InChI=1S/C7H4ClIO/c8-7(10)5-1-3-6(9)4-2-5/h1-4H",
        "InChIKey": null,
        "Canonical SMILES": "O=C(Cl)C1=CC=C(I)C=C1",
        "Molecular Formula": "C<sub>7</sub>H<sub>4</sub>ClIO",
        "Molecular Mass": "266.46",
        "Boiling Point": "155-157 °C @ Press: 26 Torr",
        "Melting Point": "63-65 °C"
    }
}