{
    "cas_no": "19009-56-4",
    "key_name": "2-Methyldecanal",
    "cn_name": "2-甲基癸醇;",
    "alternate_name": "Decanal, 2-methyl-;2-Methyldecanal;α-Methyldecanal;Methyloctylacetaldehyde",
    "duplicated_cas_no": "120892-77-5",
    "SMILES": "C(CCC(C=O)C)CCCCC",
    "meta_data": {
        "InChI": "InChI=1S/C11H22O/c1-3-4-5-6-7-8-9-11(2)10-12/h10-11H,3-9H2,1-2H3",
        "InChIKey": null,
        "Canonical SMILES": "O=CC(C)CCCCCCCC",
        "Molecular Formula": "C<sub>11</sub>H<sub>22</sub>O",
        "Molecular Mass": "170.29",
        "Boiling Point": "85-88 °C @ Press: 3 Torr",
        "Density": "0.8265 g/cm³ @ Temp: 20 °C"
    }
}