{
    "cas_no": "1032231-28-9",
    "key_name": "5-Bromo-2-cyanobenzoic acid",
    "cn_name": null,
    "alternate_name": "Benzoic acid, 5-bromo-2-cyano-;5-Bromo-2-cyanobenzoic acid;4-Bromo-2-carboxybenzonitrile",
    "duplicated_cas_no": "",
    "SMILES": "C(O)(=O)C1=C(C#N)C=CC(Br)=C1",
    "meta_data": {
        "InChI": "InChI=1S/C8H4BrNO2/c9-6-2-1-5(4-10)7(3-6)8(11)12/h1-3H,(H,11,12)",
        "InChIKey": null,
        "Canonical SMILES": "N#CC1=CC=C(Br)C=C1C(=O)O",
        "Molecular Formula": "C<sub>8</sub>H<sub>4</sub>BrNO<sub>2</sub>",
        "Molecular Mass": "226.03",
        "Melting Point": "169-171 °C (decomp)"
    }
}