{
    "cas_no": "627-91-8",
    "key_name": "Monomethyl adipate",
    "cn_name": "己二酸单甲酯;",
    "alternate_name": "Hexanedioic acid, 1-methyl ester;Adipic acid, monomethyl ester;Hexanedioic acid, monomethyl ester;Adipic acid, methyl ester;Monomethyl adipate;Methyl adipate;Methyl hydrogen adipate;Methyl hemiadipate;Methyl 5-carboxypentanoate;Monomethyl 1,6-hexanedioate;5-Carbomethoxypentanoic acid;NSC 55113;NSC 9389;6-Methoxy-6-oxohexanoic acid",
    "duplicated_cas_no": "",
    "SMILES": "C(CCCC(O)=O)C(OC)=O",
    "meta_data": {
        "InChI": "InChI=1S/C7H12O4/c1-11-7(10)5-3-2-4-6(8)9/h2-5H2,1H3,(H,8,9)",
        "InChIKey": null,
        "Canonical SMILES": "O=C(O)CCCCC(=O)OC",
        "Molecular Formula": "C<sub>7</sub>H<sub>12</sub>O<sub>4</sub>",
        "Molecular Mass": "160.17",
        "Boiling Point": "70-75 °C @ Press: 3 Torr",
        "Melting Point": "9 °C",
        "Density": "1.1270 g/cm³ @ Temp: 20 °C"
    }
}