{
    "cas_no": "21835-01-8",
    "key_name": "3-Ethyl-2-hydroxy-2-cyclopenten-1-one",
    "cn_name": "乙基环戊烯醇酮;3-乙基-2-羟基-2-环戊烯-1-酮;",
    "alternate_name": "2-Cyclopenten-1-one, 3-ethyl-2-hydroxy-;3-Ethyl-2-hydroxy-2-cyclopenten-1-one;Ethylcyclotene;3-Ethyl-2-cyclopenten-2-ol-1-one;2-Hydroxy-3-ethyl-2-cyclopentenone;2-Hydroxy-3-ethyl-2-cyclopenten-1-one",
    "duplicated_cas_no": "",
    "SMILES": "C(C)C1=C(O)C(=O)CC1",
    "meta_data": {
        "InChI": "InChI=1S/C7H10O2/c1-2-5-3-4-6(8)7(5)9/h9H,2-4H2,1H3",
        "InChIKey": null,
        "Canonical SMILES": "O=C1C(O)=C(CC)CC1",
        "Molecular Formula": "C<sub>7</sub>H<sub>10</sub>O<sub>2</sub>",
        "Molecular Mass": "126.15",
        "Boiling Point": "78-80 °C @ Press: 4 Torr",
        "Melting Point": "38-40 °C"
    }
}