{
    "cas_no": "4860-03-1",
    "key_name": "1-Chlorohexadecane",
    "cn_name": "氯代十六烷;",
    "alternate_name": "Hexadecane, 1-chloro-;1-Chlorohexadecane;Cetyl chloride;Hexadecyl chloride;Palmityl chloride;1-Hexadecyl chloride;NSC 43727;NSC 57106;<em>n</em>-Hexadecyl chloride",
    "duplicated_cas_no": "",
    "SMILES": "C(CCCCCCCC)CCCCCCCCl",
    "meta_data": {
        "InChI": "InChI=1S/C16H33Cl/c1-2-3-4-5-6-7-8-9-10-11-12-13-14-15-16-17/h2-16H2,1H3",
        "InChIKey": null,
        "Canonical SMILES": "ClCCCCCCCCCCCCCCCC",
        "Molecular Formula": "C<sub>16</sub>H<sub>33</sub>Cl",
        "Molecular Mass": "260.89",
        "Boiling Point": "322 °C",
        "Melting Point": "17.9 °C",
        "Density": "0.8384 g/cm³ @ Temp: 20 °C"
    }
}