{
    "cas_no": "77191-36-7",
    "key_name": "Nefiracetam",
    "cn_name": "奈非西坦;N-(2,6-二甲基苯基)-2-氧代-1-吡咯烷乙酰胺;",
    "alternate_name": "1-Pyrrolidineacetamide, <em>N</em>-(2,6-dimethylphenyl)-2-oxo-;<em>N</em>-(2,6-Dimethylphenyl)-2-oxo-1-pyrrolidineacetamide;DM 9384;DMPPA;Nefiracetam;2-(2-Oxo-1-pyrrolidinyl)-<em>N</em>-(2,6-dimethylphenyl)acetamide;<em>N</em>-(2,6-Dimethylphenyl)-2-(2-oxo-1-pyrrolidinyl)acetamide;Translon;DZL 221;DMMPA",
    "duplicated_cas_no": "",
    "SMILES": "N(C(CN1C(=O)CCC1)=O)C2=C(C)C=CC=C2C",
    "meta_data": {
        "InChI": "InChI=1S/C14H18N2O2/c1-10-5-3-6-11(2)14(10)15-12(17)9-16-8-4-7-13(16)18/h3,5-6H,4,7-9H2,1-2H3,(H,15,17)",
        "InChIKey": null,
        "Canonical SMILES": "O=C(NC=1C(=CC=CC1C)C)CN2C(=O)CCC2",
        "Molecular Formula": "C<sub>14</sub>H<sub>18</sub>N<sub>2</sub>O<sub>2</sub>",
        "Molecular Mass": "246.30",
        "Melting Point": "153 °C"
    }
}