{
    "cas_no": "24480-45-3",
    "key_name": "Bryonolic acid",
    "cn_name": null,
    "alternate_name": "26-Norolean-8-en-29-oic acid, 3-hydroxy-13-methyl-, (3β,13α,14β,20β)-;Bryonolic acid;<em>D</em>:<em>C</em>-Friedoolean-8-en-29-oic acid, 3β-hydroxy-;<em>D</em>:<em>C</em>-Friedoolean-8-en-29-oic acid, 3-hydroxy-, (3β,20β)-;(3β,13α,14β,20β)-3-Hydroxy-13-methyl-26-norolean-8-en-29-oic acid;[2<em>S</em>-(2α,4aα,6aα,8aβ,10α,12aα,14aβ,14bα)]-1,2,3,4,4a,5,6,6a,7,8,8a,9,10,11,12,12a,13,14,14a,14b-Eicosahydro-10-hydroxy-2,4a,6a,9,9,12a,14a-heptamethyl-2-picenecarboxylic acid;2-Picenecarboxylic acid, 1,2,3,4,4a,5,6,6a,7,8,8a,9,10,11,12,12a,13,14,14a,14b-eicosahydro-10-hydroxy-2,4a,6a,9,9,12a,14a-heptamethyl-, (2<em>S</em>,4a<em>S</em>,6a<em>S</em>,8a<em>R</em>,10<em>S</em>,12a<em>S</em>,14a<em>S</em>,14b<em>R</em>)-",
    "duplicated_cas_no": "5957-43-7",
    "SMILES": "C[C@@]12[C@](C)([C@]3([C@@](C)(CC1)CC[C@@](C(O)=O)(C)C3)[H])CCC4=C2CC[C@@]5([C@]4(C)CC[C@H](O)C5(C)C)[H]",
    "meta_data": {
        "InChI": "InChI=1S/C30H48O3/c1-25(2)21-9-8-20-19(28(21,5)12-11-23(25)31)10-13-30(7)22-18-27(4,24(32)33)15-14-26(22,3)16-17-29(20,30)6/h21-23,31H,8-18H2,1-7H3,(H,32,33)/t21-,22+,23-,26+,27-,28+,29+,30-/m0/s1",
        "InChIKey": null,
        "Canonical SMILES": "O=C(O)C1(C)CCC2(C)CCC3(C4=C(CCC3(C)C2C1)C5(C)CCC(O)C(C)(C)C5CC4)C",
        "Molecular Formula": "C<sub>30</sub>H<sub>48</sub>O<sub>3</sub>",
        "Molecular Mass": "456.70",
        "Melting Point": "303.5 °C"
    }
}