{
    "cas_no": "14599-48-5",
    "key_name": "Cycloart-23-ene-3β,25-diol",
    "cn_name": null,
    "alternate_name": "9,19-Cyclolanost-23-ene-3,25-diol, (3β)-;9,19-Cyclo-9β-lanost-23-ene-3β,25-diol;(3β)-9,19-Cyclolanost-23-ene-3,25-diol;Cycloart-23-ene-3β,25-diol;23-Dehydro-3β,25-dihydroxycycloartane;9,19-Cyclolanost-23-ene-3β,25-diol;NSC 695835",
    "duplicated_cas_no": "",
    "SMILES": "C[C@]12[C@]3([C@]4([C@]5(C4)[C@](C(C)(C)[C@@H](O)CC5)(CC3)[H])CC[C@]1(C)[C@@]([C@@H](CC=CC(C)(C)O)C)(CC2)[H])[H]",
    "meta_data": {
        "InChI": "InChI=1S/C30H50O2/c1-20(9-8-14-25(2,3)32)21-12-15-28(7)23-11-10-22-26(4,5)24(31)13-16-29(22)19-30(23,29)18-17-27(21,28)6/h8,14,20-24,31-32H,9-13,15-19H2,1-7H3/t20-,21-,22+,23+,24+,27-,28+,29-,30+/m1/s1",
        "InChIKey": null,
        "Canonical SMILES": "OC1CCC23CC43CCC5(C)C(CCC5(C)C4CCC2C1(C)C)C(C)CC=CC(O)(C)C",
        "Molecular Formula": "C<sub>30</sub>H<sub>50</sub>O<sub>2</sub>",
        "Molecular Mass": "442.72",
        "Melting Point": "20-24 °C"
    }
}