{
    "cas_no": "12070-08-5",
    "key_name": "Titanium carbide (TiC)",
    "cn_name": "碳化钛;",
    "alternate_name": "Titanium carbide (TiC);Titanium monocarbide;Titanium carbide;Titanium monocarbide (TiC);TiC-HP;TiC 01;TIC 007;OR 07;Titanium carbide (Ti<sub>0.5</sub>C<sub>0.5</sub>);STD 250;FTiC 1",
    "duplicated_cas_no": "11130-15-7;11130-16-8;56780-56-4;122727-54-2;149424-32-8;165390-90-9;1150312-85-8;1207975-93-6;2488630-70-0;2722687-70-7",
    "SMILES": "",
    "meta_data": {
        "InChI": "",
        "InChIKey": null,
        "Canonical SMILES": "",
        "Molecular Formula": "CTi",
        "Molecular Mass": "",
        "Boiling Point": "4820 °C",
        "Melting Point": "3140 °C",
        "Density": "4.9 g/cm³"
    }
}