{
    "uri": "substance/pt/12070085",
    "rn": "12070-08-5",
    "name": "Titanium carbide (TiC)",
    "images": [],
    "inchi": "",
    "inchiKey": "",
    "smile": "",
    "canonicalSmile": "",
    "molecularFormula": "CTi",
    "molecularMass": "",
    "experimentalProperties": [
        {
            "name": "Boiling Point",
            "property": "4820 °C",
            "sourceNumber": 1
        },
        {
            "name": "Melting Point",
            "property": "3140 °C",
            "sourceNumber": 1
        },
        {
            "name": "Density",
            "property": "4.9 g/cm³",
            "sourceNumber": 1
        }
    ],
    "propertyCitations": [
        {
            "docUri": "",
            "sourceNumber": 1,
            "source": "International Chemical Safety Cards data were obtained from the National Institute for Occupational Safety and Health (US)"
        }
    ],
    "synonyms": [
        "Titanium carbide (TiC)",
        "Titanium monocarbide",
        "Titanium carbide",
        "Titanium monocarbide (TiC)",
        "TiC-HP",
        "TiC 01",
        "TIC 007",
        "OR 07",
        "Titanium carbide (Ti<sub>0.5</sub>C<sub>0.5</sub>)",
        "STD 250",
        "FTiC 1"
    ],
    "replacedRns": [
        "11130-15-7",
        "11130-16-8",
        "56780-56-4",
        "122727-54-2",
        "149424-32-8",
        "165390-90-9",
        "1150312-85-8",
        "1207975-93-6",
        "2488630-70-0",
        "2722687-70-7"
    ],
    "hasMolfile": false,
    "source": "https://commonchemistry.cas.org/detail?cas_rn=12070-08-5"
}