{
    "cas_no": "17518-43-3",
    "key_name": "Ethanaminium, 2-(benzoyloxy)-<em>N</em>,<em>N</em>,<em>N</em>-trimethyl-, iodide (1:1)",
    "cn_name": "碘化苯甲酰胆碱;碘代苯酰维生素B;",
    "alternate_name": "Ethanaminium, 2-(benzoyloxy)-<em>N</em>,<em>N</em>,<em>N</em>-trimethyl-, iodide (1:1);Choline, iodide, benzoate;Ethanaminium, 2-(benzoyloxy)-<em>N</em>,<em>N</em>,<em>N</em>-trimethyl-, iodide;Benzoylcholine iodide;2-(Trimethylammonio)ethyl benzoate iodide;2-(Benzoyloxy)-<em>N</em>,<em>N</em>,<em>N</em>-trimethylethanaminium iodide",
    "duplicated_cas_no": "",
    "SMILES": "C(OCC[N+](C)(C)C)(=O)C1=CC=CC=C1.[I-]",
    "meta_data": {
        "InChI": "InChI=1S/C12H18NO2.HI/c1-13(2,3)9-10-15-12(14)11-7-5-4-6-8-11;/h4-8H,9-10H2,1-3H3;1H/q+1;/p-1",
        "InChIKey": null,
        "Canonical SMILES": "[I-].O=C(OCC[N+](C)(C)C)C=1C=CC=CC1",
        "Molecular Formula": "C<sub>12</sub>H<sub>18</sub>NO<sub>2</sub>.I",
        "Molecular Mass": "",
        "Melting Point": "243-244 °C (decomp)"
    }
}