{
    "cas_no": "569-42-6",
    "key_name": "1,8-Dihydroxynaphthalene",
    "cn_name": null,
    "alternate_name": "1,8-Naphthalenediol;1,8-Dihydroxynaphthalene",
    "duplicated_cas_no": "",
    "SMILES": "OC=1C2=C(C=CC=C2O)C=CC1",
    "meta_data": {
        "InChI": "InChI=1S/C10H8O2/c11-8-5-1-3-7-4-2-6-9(12)10(7)8/h1-6,11-12H",
        "InChIKey": null,
        "Canonical SMILES": "OC1=CC=CC=2C=CC=C(O)C12",
        "Molecular Formula": "C<sub>10</sub>H<sub>8</sub>O<sub>2</sub>",
        "Molecular Mass": "160.17",
        "Boiling Point": "140 °C @ Press: 10 Torr",
        "Melting Point": "154 °C"
    }
}