{
    "cas_no": "49539-88-0",
    "key_name": "Phenethyltrimethoxysilane",
    "cn_name": "三甲氧基(2-苯基乙基)硅烷;",
    "alternate_name": "Benzene, [2-(trimethoxysilyl)ethyl]-;Silane, trimethoxy(2-phenylethyl)-;[2-(Trimethoxysilyl)ethyl]benzene;β-(Trimethoxysilyl)ethylbenzene;P 113 (silane derivative);P 113;Trimethoxy(2-phenylethyl)silane;(2-Phenylethyl)trimethoxysilane;Phenethyltrimethoxysilane;SIP 6722.6;T 2869;Phenylethyltrimethoxysilane",
    "duplicated_cas_no": "",
    "SMILES": "[Si](CCC1=CC=CC=C1)(OC)(OC)OC",
    "meta_data": {
        "InChI": "InChI=1S/C11H18O3Si/c1-12-15(13-2,14-3)10-9-11-7-5-4-6-8-11/h4-8H,9-10H2,1-3H3",
        "InChIKey": null,
        "Canonical SMILES": "O(C)[Si](OC)(OC)CCC=1C=CC=CC1",
        "Molecular Formula": "C<sub>11</sub>H<sub>18</sub>O<sub>3</sub>Si",
        "Molecular Mass": "226.34",
        "Boiling Point": "95-96 °C @ Press: 2 Torr",
        "Density": "1.037 g/cm³"
    }
}