{
    "cas_no": "5255-75-4",
    "key_name": "2-[(4-Nitrophenoxy)methyl]oxirane",
    "cn_name": "1,2-环氧-3-(对硝基苯氧基)丙烷;",
    "alternate_name": "Oxirane, 2-[(4-nitrophenoxy)methyl]-;Propane, 1,2-epoxy-3-(<em>p</em>-nitrophenoxy)-;Oxirane, [(4-nitrophenoxy)methyl]-;2-[(4-Nitrophenoxy)methyl]oxirane;<em>p</em>-Nitrophenyl glycidyl ether;Glycidyl 4-nitrophenyl ether;1-(<em>p</em>-Nitrophenoxy)-2,3-epoxypropane;2,3-Epoxy-1-(<em>p</em>-nitrophenoxy)propane;Glycidyl <em>p</em>-nitrophenyl ether;1-(4-Nitrophenoxy)-2,3-propylene oxide;4-Nitrophenyl glycidyl ether;1,2-Epoxy-3-(4′-nitrophenoxy)propane;1,2-Epoxy-3-(<em>p</em>-nitrophenoxy)propane;1-(Glycidyloxy)-4-nitrobenzene;[(4-Nitrophenoxy)methyl]oxirane;1-(4-Nitrophenoxy)-2,3-epoxypropane;4-(2,3-Epoxypropoxy)nitrobenzene;NSC 1733;1,2-Epoxy-3-(4-nitrophenoxy)propane",
    "duplicated_cas_no": "125228-75-3",
    "SMILES": "N(=O)(=O)C1=CC=C(OCC2CO2)C=C1",
    "meta_data": {
        "InChI": "InChI=1S/C9H9NO4/c11-10(12)7-1-3-8(4-2-7)13-5-9-6-14-9/h1-4,9H,5-6H2",
        "InChIKey": null,
        "Canonical SMILES": "O=N(=O)C1=CC=C(OCC2OC2)C=C1",
        "Molecular Formula": "C<sub>9</sub>H<sub>9</sub>NO<sub>4</sub>",
        "Molecular Mass": "195.17",
        "Boiling Point": "148-150 °C @ Press: 1.5 Torr",
        "Melting Point": "69 °C"
    }
}