{
    "cas_no": "30515-28-7",
    "key_name": "7-Bromoheptanoic acid",
    "cn_name": "7-溴庚酸;",
    "alternate_name": "Heptanoic acid, 7-bromo-;Enanthic acid, ζ-bromo-;7-Bromoheptanoic acid;ω-Bromoheptanoic acid",
    "duplicated_cas_no": "",
    "SMILES": "C(CCCCBr)CC(O)=O",
    "meta_data": {
        "InChI": "InChI=1S/C7H13BrO2/c8-6-4-2-1-3-5-7(9)10/h1-6H2,(H,9,10)",
        "InChIKey": null,
        "Canonical SMILES": "O=C(O)CCCCCCBr",
        "Molecular Formula": "C<sub>7</sub>H<sub>13</sub>BrO<sub>2</sub>",
        "Molecular Mass": "209.08",
        "Boiling Point": "280 °C",
        "Melting Point": "31 °C"
    }
}