{
    "cas_no": "520-12-7",
    "key_name": "Pectolinarigenin",
    "cn_name": null,
    "alternate_name": "4<em>H</em>-1-Benzopyran-4-one, 5,7-dihydroxy-6-methoxy-2-(4-methoxyphenyl)-;Flavone, 5,7-dihydroxy-4′,6-dimethoxy-;Pectolinarigenin;5,7-Dihydroxy-6-methoxy-2-(4-methoxyphenyl)-4<em>H</em>-1-benzopyran-4-one;5,7-Dihydroxy-6,4′-dimethoxyflavone;5,7-Dihydroxy-4′,6-dimethoxyflavone;Pectolinaringenin;6-Methoxy-4′-<em>O</em>-methylapigenin;Scutellarein 6,4′-dimethyl ether;4′-<em>O</em>-Methylcapillarisin;6-Methoxyacacetin;6-Methoxyapigenin 4′-methyl ether;Hortensin;Pectolinariogenin;Pectolarigenin;Pectolinargenin;NSC 106403;Scutellarein 4′,6-dimethyl ether;Capillarisin 4′-methyl ether;6,4′-Di-<em>O</em>-methylscutellarein;Pectolinangenin",
    "duplicated_cas_no": "123442-39-7",
    "SMILES": "OC1=C2C(OC(=CC2=O)C3=CC=C(OC)C=C3)=CC(O)=C1OC",
    "meta_data": {
        "InChI": "InChI=1S/C17H14O6/c1-21-10-5-3-9(4-6-10)13-7-11(18)15-14(23-13)8-12(19)17(22-2)16(15)20/h3-8,19-20H,1-2H3",
        "InChIKey": null,
        "Canonical SMILES": "O=C1C=C(OC2=CC(O)=C(OC)C(O)=C12)C=3C=CC(OC)=CC3",
        "Molecular Formula": "C<sub>17</sub>H<sub>14</sub>O<sub>6</sub>",
        "Molecular Mass": "314.29",
        "Melting Point": "221 °C"
    }
}