{
    "cas_no": "659-28-9",
    "key_name": "4-(Trifluoromethoxy)benzaldehyde",
    "cn_name": "对三氟甲氧基苯甲醛;4-三氟甲氧基苯甲醛;",
    "alternate_name": "Benzaldehyde, 4-(trifluoromethoxy)-;<em>p</em>-Anisaldehyde, α,α,α-trifluoro-;4-(Trifluoromethoxy)benzaldehyde;<em>p</em>-(Trifluoromethoxy)benzaldehyde;4-(Trifluoromethoxy)benzaldelhyde",
    "duplicated_cas_no": "",
    "SMILES": "O(C(F)(F)F)C1=CC=C(C=O)C=C1",
    "meta_data": {
        "InChI": "InChI=1S/C8H5F3O2/c9-8(10,11)13-7-3-1-6(5-12)2-4-7/h1-5H",
        "InChIKey": null,
        "Canonical SMILES": "O=CC1=CC=C(OC(F)(F)F)C=C1",
        "Molecular Formula": "C<sub>8</sub>H<sub>5</sub>F<sub>3</sub>O<sub>2</sub>",
        "Molecular Mass": "190.12",
        "Boiling Point": "93 °C @ Press: 27 Torr",
        "Density": "1.3157 g/cm³ @ Temp: 20 °C"
    }
}