{
    "cas_no": "830-81-9",
    "key_name": "1-Naphthyl acetate",
    "cn_name": "乙酸-1-萘酯;",
    "alternate_name": "1-Naphthalenol, 1-acetate;1-Naphthol, acetate;1-Naphthalenol, acetate;α-Naphthyl acetate;1-Naphthyl acetate;1-Acetoxynaphthalene;α-Naphthol acetate;α-Acetoxynaphthalene;Acetic acid 1-naphthyl ester;NSC 9846;Naphthalen-1-yl acetate;1-Naphthalen-1-yl acetate",
    "duplicated_cas_no": "",
    "SMILES": "O(C(C)=O)C=1C2=C(C=CC1)C=CC=C2",
    "meta_data": {
        "InChI": "InChI=1S/C12H10O2/c1-9(13)14-12-8-4-6-10-5-2-3-7-11(10)12/h2-8H,1H3",
        "InChIKey": null,
        "Canonical SMILES": "O=C(OC1=CC=CC=2C=CC=CC12)C",
        "Molecular Formula": "C<sub>12</sub>H<sub>10</sub>O<sub>2</sub>",
        "Molecular Mass": "186.21",
        "Melting Point": "44.5 °C"
    }
}