{
    "cas_no": "78-92-2",
    "key_name": "(±)-2-Butanol",
    "cn_name": "仲丁醇;2-丁醇;2-甲基丙醇;",
    "alternate_name": "2-Butanol;<em>sec</em>-Butyl alcohol;CCS 301;<em>sec</em>-Butanol;Ethylmethyl carbinol;2-Hydroxybutane;Methylethylcarbinol;3-Butanol;1-Methyl-1-propanol;1-Methylpropyl alcohol;<em>s</em>-Butanol;<em>s</em>-Butyl alcohol;<em>dl</em>-<em>sec</em>-Butanol;<em>dl</em>-Methylethylcarbinol;<span class=\"text-smallcaps\">DL</span>-Butan-2-ol;(±)-2-Butanol;Racemic-2-butanol;NSC 25499",
    "duplicated_cas_no": "15892-23-6",
    "SMILES": "C(CC)(C)O",
    "meta_data": {
        "InChI": "InChI=1S/C4H10O/c1-3-4(2)5/h4-5H,3H2,1-2H3",
        "InChIKey": null,
        "Canonical SMILES": "OC(C)CC",
        "Molecular Formula": "C<sub>4</sub>H<sub>10</sub>O",
        "Molecular Mass": "74.12",
        "Boiling Point": "99.5 °C",
        "Melting Point": "-114 °C",
        "Density": "0.8063 g/cm³ @ Temp: 20 °C"
    }
}