{
    "cas_no": "126-68-1",
    "key_name": "<em>O</em>,<em>O</em>′,<em>O</em>′′-Triethyl phosphorothioate",
    "cn_name": "O,O,O-三乙基硫代磷酸酯;三乙基硫代磷酸酯;",
    "alternate_name": "Phosphorothioic acid, <em>O</em>,<em>O</em>,<em>O</em>-triethyl ester;Ethyl phosphorothioate, (EtO)<sub>3</sub>PS;Ethyl thiophosphate, (EtO)<sub>3</sub>PS;<em>O</em>,<em>O</em>,<em>O</em>-Triethyl thiophosphate;<em>O</em>,<em>O</em>,<em>O</em>-Triethyl phosphorothioate;Triethyl thiophosphate;<em>O</em>,<em>O</em>′,<em>O</em>′′-Triethyl phosphorothioate;Thiophosphoric acid tri-<em>O</em>-ethyl ester;Triethyl phosphorothionate;Triethoxyphosphine sulfide;Triethyl phosphorothioate;<em>O</em>,<em>O</em>,<em>O</em>-TEPT;NSC 2650",
    "duplicated_cas_no": "",
    "SMILES": "P(OCC)(OCC)(OCC)=S",
    "meta_data": {
        "InChI": "InChI=1S/C6H15O3PS/c1-4-7-10(11,8-5-2)9-6-3/h4-6H2,1-3H3",
        "InChIKey": null,
        "Canonical SMILES": "S=P(OCC)(OCC)OCC",
        "Molecular Formula": "C<sub>6</sub>H<sub>15</sub>O<sub>3</sub>PS",
        "Molecular Mass": "198.22",
        "Boiling Point": "214 °C @ Press: 745 Torr",
        "Melting Point": "&gt;280 °C (decomp)",
        "Density": "1.0725 g/cm³ @ Temp: 0 °C"
    }
}