{
    "cas_no": "6018-48-0",
    "key_name": "Cytidine, sulfate (2:1) (salt)",
    "cn_name": null,
    "alternate_name": "Cytidine, sulfate (2:1) (salt);Cytidine hemisulfate;Cytidine sulfate;Cytidinium sulfate (2:1)",
    "duplicated_cas_no": "4108-46-7",
    "SMILES": "S(=O)(=O)(O)O.O[C@H]1[C@@H](O[C@H](CO)[C@H]1O)N2C(=O)N=C(N)C=C2",
    "meta_data": {
        "InChI": "InChI=1S/C9H13N3O5.H2O4S/c10-5-1-2-12(9(16)11-5)8-7(15)6(14)4(3-13)17-8;1-5(2,3)4/h1-2,4,6-8,13-15H,3H2,(H2,10,11,16);(H2,1,2,3,4)/t4-,6-,7-,8-;/m1./s1",
        "InChIKey": null,
        "Canonical SMILES": "O=C1N=C(N)C=CN1C2OC(CO)C(O)C2O.O=S(=O)(O)O",
        "Molecular Formula": "C<sub>9</sub>H<sub>13</sub>N<sub>3</sub>O<sub>5</sub>.<sup>1</sup>/<sub>2</sub>H<sub>2</sub>O<sub>4</sub>S",
        "Molecular Mass": "",
        "Melting Point": "222-223 °C"
    }
}