{
    "cas_no": "20348-09-8",
    "key_name": "2<em>H</em>-Pyrido[3,2-<em>b</em>]-1,4-oxazin-3(4<em>H</em>)-one",
    "cn_name": "2H-吡啶并[3,2-b][1,4]恶嗪-3(4H)-酮;",
    "alternate_name": "2<em>H</em>-Pyrido[3,2-<em>b</em>]-1,4-oxazin-3(4<em>H</em>)-one;2<em>H</em>-Pyrido[3,2-<em>b</em>][1,4]oxazin-3-one;NSC 122276;4<em>H</em>-Pyrido[3,2-<em>b</em>][1,4]oxazin-3-one;2<em>H</em>,3<em>H</em>,4<em>H</em>-Pyrido[3,2-<em>b</em>][1,4]oxazin-3-one",
    "duplicated_cas_no": "1338727-71-1",
    "SMILES": "O=C1NC=2C(OC1)=CC=CN2",
    "meta_data": {
        "InChI": "InChI=1S/C7H6N2O2/c10-6-4-11-5-2-1-3-8-7(5)9-6/h1-3H,4H2,(H,8,9,10)",
        "InChIKey": null,
        "Canonical SMILES": "O=C1NC2=NC=CC=C2OC1",
        "Molecular Formula": "C<sub>7</sub>H<sub>6</sub>N<sub>2</sub>O<sub>2</sub>",
        "Molecular Mass": "150.13",
        "Melting Point": "190-192 °C"
    }
}