{
    "cas_no": "121-14-2",
    "key_name": "2,4-Dinitrotoluene",
    "cn_name": "2,4-二硝基甲苯;",
    "alternate_name": "Benzene, 1-methyl-2,4-dinitro-;Toluene, 2,4-dinitro-;1-Methyl-2,4-dinitrobenzene;2,4-DNT;2,4-Dinitrotoluene;4-Methyl-1,3-dinitrobenzene;6-Methyl-1,3-dinitrobenzene;NSC 7194",
    "duplicated_cas_no": "",
    "SMILES": "N(=O)(=O)C1=CC(N(=O)=O)=CC=C1C",
    "meta_data": {
        "InChI": "InChI=1S/C7H6N2O4/c1-5-2-3-6(8(10)11)4-7(5)9(12)13/h2-4H,1H3",
        "InChIKey": null,
        "Canonical SMILES": "O=N(=O)C1=CC=C(C(=C1)N(=O)=O)C",
        "Molecular Formula": "C<sub>7</sub>H<sub>6</sub>N<sub>2</sub>O<sub>4</sub>",
        "Molecular Mass": "182.13",
        "Boiling Point": "300 °C",
        "Melting Point": "71 °C",
        "Density": "1.3208 g/cm³ @ Temp: 71 °C"
    }
}