{
    "cas_no": "22802-39-7",
    "key_name": "2-Bromo-4,5-dimethylphenol",
    "cn_name": null,
    "alternate_name": "Phenol, 2-bromo-4,5-dimethyl-;3,4-Xylenol, 6-bromo-;2-Bromo-4,5-dimethylphenol;6-Bromo-3,4-dimethylphenol;NSC 96970",
    "duplicated_cas_no": "",
    "SMILES": "BrC1=C(O)C=C(C)C(C)=C1",
    "meta_data": {
        "InChI": "InChI=1S/C8H9BrO/c1-5-3-7(9)8(10)4-6(5)2/h3-4,10H,1-2H3",
        "InChIKey": null,
        "Canonical SMILES": "BrC=1C=C(C(=CC1O)C)C",
        "Molecular Formula": "C<sub>8</sub>H<sub>9</sub>BrO",
        "Molecular Mass": "201.06",
        "Melting Point": "80 °C"
    }
}