{
    "cas_no": "5570-78-5",
    "key_name": "1-Isopropylpiperidin-4-ol",
    "cn_name": null,
    "alternate_name": "4-Piperidinol, 1-(1-methylethyl)-;4-Piperidinol, 1-isopropyl-;1-(1-Methylethyl)-4-piperidinol;1-Isopropylpiperidin-4-ol;1-(1-Methylethyl)piperidin-4-ol;1-(Propan-2-yl)piperidin-4-ol;1-Propan-2-ylpiperidin-4-ol",
    "duplicated_cas_no": "",
    "SMILES": "C(C)(C)N1CCC(O)CC1",
    "meta_data": {
        "InChI": "InChI=1S/C8H17NO/c1-7(2)9-5-3-8(10)4-6-9/h7-8,10H,3-6H2,1-2H3",
        "InChIKey": null,
        "Canonical SMILES": "OC1CCN(CC1)C(C)C",
        "Molecular Formula": "C<sub>8</sub>H<sub>17</sub>NO",
        "Molecular Mass": "143.23",
        "Boiling Point": "113-114 °C @ Press: 23 Torr",
        "Density": "0.9529 g/cm³ @ Temp: 25 °C"
    }
}