{
    "cas_no": "3468-11-9",
    "key_name": "1-Imino-1<em>H</em>-isoindol-3-amine",
    "cn_name": "1,3-二亚胺基异吲哚啉;",
    "alternate_name": "1<em>H</em>-Isoindol-3-amine, 1-imino-;Isoindoline, 1,3-diimino-;1<em>H</em>-Isoindole, 3-amino-1-imino-;1-Imino-1<em>H</em>-isoindol-3-amine;Fastogen Blue 5040;Fastogen Blue FP-3100;Fastogen Blue SH-100;Phthalimidimide;Phthalocyanine Blue 01216;1-Amino-3-iminoisoindolenine;1,3-Diiminoisoindoline;3-Amino-1-imino-1<em>H</em>-isoindole;3-Amino-1<em>H</em>-isoindol-1-imine;1,3-Diiminoisoindolenine;3-Iminoisoindolenin-1-amine;NSC 516222;Bis(diiminoisoindoline);2,3-Dihydro-1<em>H</em>-isoindole-1,3-diimine;3-Iminoisoindol-1-amine",
    "duplicated_cas_no": "124638-98-8;3169-24-2",
    "SMILES": "NC=1C=2C(C(=N)N1)=CC=CC2",
    "meta_data": {
        "InChI": "InChI=1S/C8H7N3/c9-7-5-3-1-2-4-6(5)8(10)11-7/h1-4H,(H3,9,10,11)",
        "InChIKey": null,
        "Canonical SMILES": "N=C1N=C(N)C=2C=CC=CC12",
        "Molecular Formula": "C<sub>8</sub>H<sub>7</sub>N<sub>3</sub>",
        "Molecular Mass": "145.16",
        "Melting Point": "~200 °C (approx)"
    }
}