{
    "cas_no": "3521-62-8",
    "key_name": "Erythromycin estolate",
    "cn_name": null,
    "alternate_name": "Erythromycin, 2′-propanoate, dodecyl sulfate (1:1);Erythromycin, 2′-propionate, dodecyl sulfate (salt);Erythromycin, 2′-propanoate, dodecyl sulfate (salt);Erythromycin, propionate, compd. with dodecyl sulfate;Propionic acid, 2′-ester with erythromycin, dodecyl sulfate salt;Sulfuric acid, monododecyl ester, compd. with erythromycin 2′-propionate (1:1);Oxacyclotetradecane, erythromycin deriv.;Sulfuric acid, monododecyl ester, compd. with erythromycin 2′-propanoate (1:1);Erythromycin estolate;Erythromycin propionate lauryl sulfate;Ilosone;Lauryl sulfate propionyl erythromycin ester;Propionylerythromycin lauryl sulfate;Eriscel;Estomicina;Erytrarco;Eromycin;Marcoeritrex;Lauromicina;Neo-Erycinum;PELS;Roxomicina;Stellamicina;Erythromycin, monopropanoate (ester), dodecyl sulfate (salt);Erythromycin, monopropionate (ester), compd. with monododecyl sulfate (1:1);Lubomycine B;Propiocine Enfant;Eritroger;Eupragin;Togiren;NSC 263364;Eltocin DS;MeSH ID: D004918",
    "duplicated_cas_no": "12167-63-4;28375-06-6;31261-46-8",
    "SMILES": "C(CCCCCCCCCC)COS(=O)(=O)O.O([C@H]1[C@H](OC(CC)=O)[C@@H](N(C)C)C[C@@H](C)O1)[C@@H]2[C@@H](C)[C@H](O[C@H]3C[C@](OC)(C)[C@@H](O)[C@H](C)O3)[C@@H](C)C(=O)O[C@H](CC)[C@@](C)(O)[C@H](O)[C@@H](C)C(=O)[C@H](C)C[C@@]2(C)O",
    "meta_data": {
        "InChI": "InChI=1S/C40H71NO14.C12H26O4S/c1-15-27-40(11,48)33(44)22(5)30(43)20(3)18-38(9,47)35(55-37-32(53-28(42)16-2)26(41(12)13)17-21(4)50-37)23(6)31(24(7)36(46)52-27)54-29-19-39(10,49-14)34(45)25(8)51-29;1-2-3-4-5-6-7-8-9-10-11-12-16-17(13,14)15/h20-27,29,31-35,37,44-45,47-48H,15-19H2,1-14H3;2-12H2,1H3,(H,13,14,15)/t20-,21-,22+,23+,24-,25+,26+,27-,29+,31+,32-,33-,34+,35-,37+,38-,39-,40-;/m1./s1",
        "InChIKey": null,
        "Canonical SMILES": "O=C(OC1C(OC(C)CC1N(C)C)OC2C(C)C(OC3OC(C)C(O)C(OC)(C)C3)C(C(=O)OC(CC)C(O)(C)C(O)C(C(=O)C(C)CC2(O)C)C)C)CC.O=S(=O)(O)OCCCCCCCCCCCC",
        "Molecular Formula": "C<sub>40</sub>H<sub>71</sub>NO<sub>14</sub>.C<sub>12</sub>H<sub>26</sub>O<sub>4</sub>S",
        "Molecular Mass": "",
        "Melting Point": "137 °C (decomp)"
    }
}