{
    "cas_no": "93457-69-3",
    "key_name": "1-Butyl-1-methylpyrrolidinium bromide",
    "cn_name": null,
    "alternate_name": "Pyrrolidinium, 1-butyl-1-methyl-, bromide (1:1);1-Butyl-1-methylpyrrolidinium bromide;Pyrrolidinium, 1-butyl-1-methyl-, bromide;<em>N</em>-Butyl-<em>N</em>-methylpyrrolidinium bromide;<em>N</em>-Methyl-<em>N</em>-butylpyrrolidinium bromide;1-Butyl-1-methylpyrrolidin-1-ium bromide",
    "duplicated_cas_no": "",
    "SMILES": "C(CCC)[N+]1(C)CCCC1.[Br-]",
    "meta_data": {
        "InChI": "InChI=1S/C9H20N.BrH/c1-3-4-7-10(2)8-5-6-9-10;/h3-9H2,1-2H3;1H/q+1;/p-1",
        "InChIKey": null,
        "Canonical SMILES": "[Br-].CCCC[N+]1(C)CCCC1",
        "Molecular Formula": "C<sub>9</sub>H<sub>20</sub>N.Br",
        "Molecular Mass": "",
        "Melting Point": "215 °C",
        "Density": "1.4341 g/cm³ (solid) @ Temp: 25 °C"
    }
}