{
    "cas_no": "4549-31-9",
    "key_name": "1,7-Dibromoheptane",
    "cn_name": "1,7-二溴庚烷;溴化七亚甲基;",
    "alternate_name": "Heptane, 1,7-dibromo-;1,7-Dibromoheptane;Heptamethylene dibromide;NSC 56149",
    "duplicated_cas_no": "",
    "SMILES": "C(CCCBr)CCCBr",
    "meta_data": {
        "InChI": "InChI=1S/C7H14Br2/c8-6-4-2-1-3-5-7-9/h1-7H2",
        "InChIKey": null,
        "Canonical SMILES": "BrCCCCCCCBr",
        "Molecular Formula": "C<sub>7</sub>H<sub>14</sub>Br<sub>2</sub>",
        "Molecular Mass": "257.99",
        "Boiling Point": "263 °C",
        "Melting Point": "41.7 °C",
        "Density": "1.5306 g/cm³ @ Temp: 20 °C"
    }
}