{
    "cas_no": "635-51-8",
    "key_name": "Phenylsuccinic acid",
    "cn_name": "苯基丁二酸;苯基琥珀酸;",
    "alternate_name": "Butanedioic acid, 2-phenyl-;Succinic acid, phenyl-;Butanedioic acid, phenyl-;2-Phenylbutanedioic acid;Phenylsuccinic acid;2-Phenylsuccinic acid;α-Phenylsuccinic acid;<span class=\"text-smallcaps\">DL</span>-Phenylsuccinic acid;(<em>RS</em>)-Phenylsuccinic acid;(±)-2-Phenylsuccinic acid;NSC 11342;NSC 16635;(±)-Phenylsuccinic acid",
    "duplicated_cas_no": "10424-29-0",
    "SMILES": "C(CC(O)=O)(C(O)=O)C1=CC=CC=C1",
    "meta_data": {
        "InChI": "InChI=1S/C10H10O4/c11-9(12)6-8(10(13)14)7-4-2-1-3-5-7/h1-5,8H,6H2,(H,11,12)(H,13,14)",
        "InChIKey": null,
        "Canonical SMILES": "O=C(O)CC(C(=O)O)C=1C=CC=CC1",
        "Molecular Formula": "C<sub>10</sub>H<sub>10</sub>O<sub>4</sub>",
        "Molecular Mass": "194.18",
        "Boiling Point": "151-153 °C @ Press: 1 Torr",
        "Melting Point": "167 °C",
        "Density": "1.1277 g/cm³ @ Temp: 20 °C"
    }
}