{
    "cas_no": "1515-14-6",
    "key_name": "1,1,1,3,3,3-Hexafluoro-2-methyl-2-propanol",
    "cn_name": null,
    "alternate_name": "2-Propanol, 1,1,1,3,3,3-hexafluoro-2-methyl-;1,1,1,3,3,3-Hexafluoro-2-methyl-2-propanol;2-Methylhexafluoro-2-propanol;Hexafluoro-<em>tert</em>-butanol;1,1-Bis(trifluoromethyl)ethanol;1,1,1,3,3,3-Hexafluoro-2-hydroxy-2-methylpropane;Hexafluoro-<em>tert</em>-butyl alcohol;1,1,1-Trifluoro-2-trifluoromethyl-2-propanol",
    "duplicated_cas_no": "",
    "SMILES": "C(C(F)(F)F)(C(F)(F)F)(C)O",
    "meta_data": {
        "InChI": "InChI=1S/C4H4F6O/c1-2(11,3(5,6)7)4(8,9)10/h11H,1H3",
        "InChIKey": null,
        "Canonical SMILES": "FC(F)(F)C(O)(C)C(F)(F)F",
        "Molecular Formula": "C<sub>4</sub>H<sub>4</sub>F<sub>6</sub>O",
        "Molecular Mass": "182.06",
        "Boiling Point": "60.5-61.5 °C",
        "Density": "1.4840 g/cm³ @ Temp: 20 °C"
    }
}