{
    "cas_no": "2532-58-3",
    "key_name": "<em>cis</em>-1,3-Dimethylcyclopentane",
    "cn_name": null,
    "alternate_name": "Cyclopentane, 1,3-dimethyl-, (1<em>R</em>,3<em>S</em>)-<em>rel</em>-;Cyclopentane, 1,3-dimethyl-, <em>cis</em>-;<em>rel</em>-(1<em>R</em>,3<em>S</em>)-1,3-Dimethylcyclopentane;<em>cis</em>-1,3-Dimethylcyclopentane;1-<em>cis</em>-3-Dimethylcyclopentane;(<em>Z</em>)-1,3-Dimethylcyclopentane",
    "duplicated_cas_no": "",
    "SMILES": "C[C@H]1C[C@@H](C)CC1",
    "meta_data": {
        "InChI": "InChI=1/C7H14/c1-6-3-4-7(2)5-6/h6-7H,3-5H2,1-2H3/t6-,7+",
        "InChIKey": null,
        "Canonical SMILES": "CC1CCC(C)C1",
        "Molecular Formula": "C<sub>7</sub>H<sub>14</sub>",
        "Molecular Mass": "98.19",
        "Boiling Point": "90.8 °C",
        "Melting Point": "-133.7 °C",
        "Density": "0.759 g/cm³ @ Temp: 25 °C"
    }
}