{
    "cas_no": "7803-52-3",
    "key_name": "Stibine",
    "cn_name": null,
    "alternate_name": "Stibine;Antimony hydride;Hydrogen antimonide;Antimony hydride (SbH<sub>3</sub>);Antimony trihydride;Stibine (SbH<sub>3</sub>)",
    "duplicated_cas_no": "",
    "SMILES": "[SbH3]",
    "meta_data": {
        "InChI": "InChI=1S/Sb.3H",
        "InChIKey": null,
        "Canonical SMILES": "[SbH3]",
        "Molecular Formula": "H<sub>3</sub>Sb",
        "Molecular Mass": "",
        "Boiling Point": "-18.4 °C",
        "Melting Point": "-88 °C",
        "Density": "2.26 g/cm³ @ Temp: -25 °C"
    }
}