{
    "cas_no": "53-85-0",
    "key_name": "5,6-Dichloro-1-(β-<span class=\"text-smallcaps\">D</span>-ribofuranosyl)benzimidazole",
    "cn_name": null,
    "alternate_name": "1<em>H</em>-Benzimidazole, 5,6-dichloro-1-β-<span class=\"text-smallcaps\">D</span>-ribofuranosyl-;Benzimidazole, 5,6-dichloro-1-β-<span class=\"text-smallcaps\">D</span>-ribofuranosyl-;Benzimidazole, 5,6-dichloro-1-<span class=\"text-smallcaps\">D</span>-ribofuranosyl-;5,6-Dichloro-1-β-<span class=\"text-smallcaps\">D</span>-ribofuranosyl-1<em>H</em>-benzimidazole;5,6-Dichloro-1-(β-<span class=\"text-smallcaps\">D</span>-ribofuranosyl)benzimidazole;1-β-<span class=\"text-smallcaps\">D</span>-Ribofuranosyl-5,6-dichlorobenzimidazole;DRB;NSC 401575;5,6-Dichlorobenzimidazole 1-β-<span class=\"text-smallcaps\">D</span>-ribofuranoside;5,6-Dichlororibofuranosylbenzimidazole;NQZ-002",
    "duplicated_cas_no": "909276-76-2;1821045-35-5",
    "SMILES": "O[C@H]1[C@H](N2C=3C(N=C2)=CC(Cl)=C(Cl)C3)O[C@H](CO)[C@H]1O",
    "meta_data": {
        "InChI": "InChI=1S/C12H12Cl2N2O4/c13-5-1-7-8(2-6(5)14)16(4-15-7)12-11(19)10(18)9(3-17)20-12/h1-2,4,9-12,17-19H,3H2/t9-,10-,11-,12-/m1/s1",
        "InChIKey": null,
        "Canonical SMILES": "ClC1=CC=2N=CN(C2C=C1Cl)C3OC(CO)C(O)C3O",
        "Molecular Formula": "C<sub>12</sub>H<sub>12</sub>Cl<sub>2</sub>N<sub>2</sub>O<sub>4</sub>",
        "Molecular Mass": "319.14",
        "Melting Point": "215-216 °C"
    }
}