{
    "cas_no": "395-81-3",
    "key_name": "5-Fluoro-2-nitrobenzaldehyde",
    "cn_name": "5-氟-2-硝基苯甲醛;2-硝基-5-氟苯甲醛;",
    "alternate_name": "Benzaldehyde, 5-fluoro-2-nitro-;5-Fluoro-2-nitrobenzaldehyde;3-Fluoro-6-nitrobenzaldehyde;2-Nitro-5-fluorobenzaldehyde",
    "duplicated_cas_no": "",
    "SMILES": "C(=O)C1=C(N(=O)=O)C=CC(F)=C1",
    "meta_data": {
        "InChI": "InChI=1S/C7H4FNO3/c8-6-1-2-7(9(11)12)5(3-6)4-10/h1-4H",
        "InChIKey": null,
        "Canonical SMILES": "O=CC1=CC(F)=CC=C1N(=O)=O",
        "Molecular Formula": "C<sub>7</sub>H<sub>4</sub>FNO<sub>3</sub>",
        "Molecular Mass": "169.11",
        "Melting Point": "94-95 °C"
    }
}