{
    "cas_no": "31428-61-2",
    "key_name": "Tiamenidine",
    "cn_name": null,
    "alternate_name": "1<em>H</em>-Imidazol-2-amine, <em>N</em>-(2-chloro-4-methyl-3-thienyl)-4,5-dihydro-;2-Imidazoline, 2-[(2-chloro-4-methyl-3-thienyl)amino]-;<em>N</em>-(2-Chloro-4-methyl-3-thienyl)-4,5-dihydro-1<em>H</em>-imidazol-2-amine;Tiamenidine;Symcor Base TTS;Thiamendidine;NSC 351524",
    "duplicated_cas_no": "102088-55-1",
    "SMILES": "N(C=1C(C)=CSC1Cl)C=2NCCN2",
    "meta_data": {
        "InChI": "InChI=1S/C8H10ClN3S/c1-5-4-13-7(9)6(5)12-8-10-2-3-11-8/h4H,2-3H2,1H3,(H2,10,11,12)",
        "InChIKey": null,
        "Canonical SMILES": "ClC=1SC=C(C1NC2=NCCN2)C",
        "Molecular Formula": "C<sub>8</sub>H<sub>10</sub>ClN<sub>3</sub>S",
        "Molecular Mass": "215.70",
        "Melting Point": "152 °C"
    }
}