{
    "cas_no": "446-30-0",
    "key_name": "4-Chloro-2-fluorobenzoic acid",
    "cn_name": "4-氯-2-氟苯甲酸;",
    "alternate_name": "Benzoic acid, 4-chloro-2-fluoro-;4-Chloro-2-fluorobenzoic acid;NSC 190363;2-Fluoro-4-chlorobenzoic acid",
    "duplicated_cas_no": "",
    "SMILES": "C(O)(=O)C1=C(F)C=C(Cl)C=C1",
    "meta_data": {
        "InChI": "InChI=1S/C7H4ClFO2/c8-4-1-2-5(7(10)11)6(9)3-4/h1-3H,(H,10,11)",
        "InChIKey": null,
        "Canonical SMILES": "O=C(O)C1=CC=C(Cl)C=C1F",
        "Molecular Formula": "C<sub>7</sub>H<sub>4</sub>ClFO<sub>2</sub>",
        "Molecular Mass": "174.56",
        "Melting Point": "205 °C"
    }
}