{
    "cas_no": "4295-99-2",
    "key_name": "Tetrahydro-2<em>H</em>-pyran-4-carbonitrile",
    "cn_name": "4-氰基四氢吡喃;",
    "alternate_name": "2<em>H</em>-Pyran-4-carbonitrile, tetrahydro-;Tetrahydro-2<em>H</em>-pyran-4-carbonitrile;4-Cyanotetrahydropyran;Tetrahydropyran-4-carbonitrile;Oxane-4-carbonitrile;4-Cyanotetrahydro-4<em>H</em>-pyran",
    "duplicated_cas_no": "",
    "SMILES": "C(#N)C1CCOCC1",
    "meta_data": {
        "InChI": "InChI=1S/C6H9NO/c7-5-6-1-3-8-4-2-6/h6H,1-4H2",
        "InChIKey": null,
        "Canonical SMILES": "N#CC1CCOCC1",
        "Molecular Formula": "C<sub>6</sub>H<sub>9</sub>NO",
        "Molecular Mass": "111.14",
        "Boiling Point": "82-83 °C @ Press: 10 Torr",
        "Density": "1.0343 g/cm³ @ Temp: 20 °C"
    }
}