{
    "cas_no": "21725-46-2",
    "key_name": "Cyanazine",
    "cn_name": "草净津;百得斯;2-(4-氯-6-乙氨基-1,3,5-三嗪-2-基氨基)-2-甲基丙腈;",
    "alternate_name": "Propanenitrile, 2-[[4-chloro-6-(ethylamino)-1,3,5-triazin-2-yl]amino]-2-methyl-;Propionitrile, 2-[[4-chloro-6-(ethylamino)-<em>s</em>-triazin-2-yl]amino]-2-methyl-;2-[[4-Chloro-6-(ethylamino)-1,3,5-triazin-2-yl]amino]-2-methylpropanenitrile;SD 15418;WL 19805;2-(4-Chloro-6-ethylamino-<em>s</em>-triazin-2-ylamino)-2-methylpropionitrile;2-Chloro-4-ethylamino-6-(1-methyl-1-cyanoethylamino)-<em>s</em>-triazine;DW 3418;2-Chloro-4-ethylamino-6-(α,α-dimethylcyanomethyl)amino-1,3,5-triazine;Bladex;Cyanazine;Bladex 80WP;2-[[4-Chloro-6-(ethylamino)-1,3,5-triazin-2-yl]amino]-2-methylpropionitrile;Fortrol;Cyanazin;Bladex 50WP;Gramex",
    "duplicated_cas_no": "11096-88-1;12679-53-7",
    "SMILES": "N(C(C#N)(C)C)C=1N=C(NCC)N=C(Cl)N1",
    "meta_data": {
        "InChI": "InChI=1S/C9H13ClN6/c1-4-12-7-13-6(10)14-8(15-7)16-9(2,3)5-11/h4H2,1-3H3,(H2,12,13,14,15,16)",
        "InChIKey": null,
        "Canonical SMILES": "N#CC(NC=1N=C(Cl)N=C(N1)NCC)(C)C",
        "Molecular Formula": "C<sub>9</sub>H<sub>13</sub>ClN<sub>6</sub>",
        "Molecular Mass": "240.69",
        "Melting Point": "167.5-169 °C",
        "Density": "129 g/cm³ @ Temp: 20 °C"
    }
}