{
    "cas_no": "152460-10-1",
    "key_name": "6-Methyl-<em>N</em>-[4-(pyridin-3-yl)pyrimidin-2-yl]benzene-1,3-diamine",
    "cn_name": "N-(5-氨基-2-甲基苯基)-4-(3-吡啶基)-2-氨基嘧啶;",
    "alternate_name": "1,3-Benzenediamine, 4-methyl-<em>N</em><sup>3</sup>-[4-(3-pyridinyl)-2-pyrimidinyl]-;4-Methyl-<em>N</em><sup>3</sup>-[4-(3-pyridinyl)-2-pyrimidinyl]-1,3-benzenediamine;<em>N</em>-(5-Amino-2-methylphenyl)-4-(3-pyridyl)-2-pyrimidineamine;4-Methyl-3-[4-(3-pyridyl)pyrimidin-2-ylamino]aniline;4-Methyl-<em>N</em>′-[4-(pyridin-3-yl)pyrimidin-2-yl]benzene-1,3-diamine;<em>N</em>-(5-Amino-2-methylphenyl)-4-(pyridin-3-yl)pyrimidin-2-ylamine;6-Methyl-<em>N</em>-[4-(pyridin-3-yl)pyrimidin-2-yl]benzene-1,3-diamine;<em>N</em>-(5-Amino-2-methylphenyl)-6-(pyridin-3-yl)-2-pyrimidinamine;4-Methyl-<em>N</em><sup>3</sup>-[4-(pyridin-3-yl)pyrimidin-2-yl]-1,3-benzenediamine;<em>N</em>-(5-Amino-2-methylphenyl)-<em>N</em>-[4-(3-pyridyl)pyrimidin-2-yl]amine;<em>N</em>-(5-Amino-2-methylphenyl)[4-(3-pyridyl)-2-pyrimidinyl]amine;<em>N</em>-(5-Amino-2-methylphenyl)-4-(3-pyridyl)pyrimidin-2-amine;4-Methyl-3-[4-(3-pyridinyl)pyrimidin-2-ylamino]aniline;<em>N</em>-(2-Methyl-5-aminophenyl)-4-(pyridin-3-yl)pyrimidin-2-amine;1,3-Benzenediamine 4-methyl-N3-[4-(3-pyridinyl)-2-pyrimidinyl]-;4-Methyl-N3-[4-(3-pyridinyl)-2-pyrimidin-yl]-1,3-benzenediamine",
    "duplicated_cas_no": "",
    "SMILES": "N(C=1N=C(C=CN1)C=2C=CC=NC2)C3=C(C)C=CC(N)=C3",
    "meta_data": {
        "InChI": "InChI=1S/C16H15N5/c1-11-4-5-13(17)9-15(11)21-16-19-8-6-14(20-16)12-3-2-7-18-10-12/h2-10H,17H2,1H3,(H,19,20,21)",
        "InChIKey": null,
        "Canonical SMILES": "N1=CC=CC(=C1)C=2N=C(N=CC2)NC3=CC(N)=CC=C3C",
        "Molecular Formula": "C<sub>16</sub>H<sub>15</sub>N<sub>5</sub>",
        "Molecular Mass": "277.32",
        "Melting Point": "137-139 °C"
    }
}