{
    "cas_no": "73069-28-0",
    "key_name": "Praeruptorin B",
    "cn_name": null,
    "alternate_name": "2-Butenoic acid, 2-methyl-, (9<em>S</em>,10<em>S</em>)-9,10-dihydro-8,8-dimethyl-2-oxo-2<em>H</em>,8<em>H</em>-benzo[1,2-<em>b</em>:3,4-<em>b</em>′]dipyran-9,10-diyl ester, (2<em>Z</em>,2′<em>Z</em>)-;2-Butenoic acid, 2-methyl-, 9,10-dihydro-8,8-dimethyl-2-oxo-2<em>H</em>,8<em>H</em>-benzo[1,2-<em>b</em>:3,4-<em>b</em>′]dipyran-9,10-diyl ester, [9<em>S</em>-[9α(<em>Z</em>),10α(<em>Z</em>)]]-;2<em>H</em>,8<em>H</em>-Benzo[1,2-<em>b</em>:3,4-<em>b</em>′]dipyran, 2-butenoic acid deriv.;Praeruptorin B;(+)-Praeruptorin B;(+)-Anomalin;Pd II;(+) Pareruptorin B;Praeruptorin D",
    "duplicated_cas_no": "20107-14-6;81740-07-0",
    "SMILES": "O(C(/C(=C\\C)/C)=O)[C@H]1C=2C3=C(C=CC2OC(C)(C)[C@H]1OC(/C(=C\\C)/C)=O)C=CC(=O)O3",
    "meta_data": {
        "InChI": "InChI=1S/C24H26O7/c1-7-13(3)22(26)29-20-18-16(11-9-15-10-12-17(25)28-19(15)18)31-24(5,6)21(20)30-23(27)14(4)8-2/h7-12,20-21H,1-6H3/b13-7-,14-8-/t20-,21-/m0/s1",
        "InChIKey": null,
        "Canonical SMILES": "O=C1OC2=C(C=C1)C=CC=3OC(C)(C)C(OC(=O)C(=CC)C)C(OC(=O)C(=CC)C)C32",
        "Molecular Formula": "C<sub>24</sub>H<sub>26</sub>O<sub>7</sub>",
        "Molecular Mass": "426.46",
        "Melting Point": "166-168 °C"
    }
}