{
    "cas_no": "19685-09-7",
    "key_name": "Hydroxycamptothecin",
    "cn_name": "(S)-10-羟基喜树碱;",
    "alternate_name": "1<em>H</em>-Pyrano[3′,4′:6,7]indolizino[1,2-<em>b</em>]quinoline-3,14(4<em>H</em>,12<em>H</em>)-dione, 4-ethyl-4,9-dihydroxy-, (4<em>S</em>)-;Camptothecine, 10-hydroxy-;1<em>H</em>-Pyrano[3′,4′:6,7]indolizino[1,2-<em>b</em>]quinoline-3,14(4<em>H</em>,12<em>H</em>)-dione, 4-ethyl-4,9-dihydroxy-, (<em>S</em>)-;(4<em>S</em>)-4-Ethyl-4,9-dihydroxy-1<em>H</em>-pyrano[3′,4′:6,7]indolizino[1,2-<em>b</em>]quinoline-3,14(4<em>H</em>,12<em>H</em>)-dione;10-Hydroxycamptothecine;Hydroxycamptothecin;10-Hydroxycamptothecin;(<em>S</em>)-10-Hydroxycamptothecin;NSC 107124;(+)-10-Hydroxycamptothecin;ChEMBL 273862;10-HCPT",
    "duplicated_cas_no": "104155-90-0;157405-42-0",
    "SMILES": "O=C1N2C(C=3C(C2)=CC=4C(N3)=CC=C(O)C4)=CC5=C1COC(=O)[C@@]5(CC)O",
    "meta_data": {
        "InChI": "InChI=1S/C20H16N2O5/c1-2-20(26)14-7-16-17-11(5-10-6-12(23)3-4-15(10)21-17)8-22(16)18(24)13(14)9-27-19(20)25/h3-7,23,26H,2,8-9H2,1H3/t20-/m0/s1",
        "InChIKey": null,
        "Canonical SMILES": "O=C1OCC=2C(=O)N3C(=CC2C1(O)CC)C=4N=C5C=CC(O)=CC5=CC4C3",
        "Molecular Formula": "C<sub>20</sub>H<sub>16</sub>N<sub>2</sub>O<sub>5</sub>",
        "Molecular Mass": "364.35",
        "Melting Point": "268-270 °C"
    }
}