{
    "cas_no": "34205-21-5",
    "key_name": "Dimefuron",
    "cn_name": "恶唑隆;恶唑隆Dimefuron;",
    "alternate_name": "Urea, <em>N</em>′-[3-chloro-4-[5-(1,1-dimethylethyl)-2-oxo-1,3,4-oxadiazol-3(2<em>H</em>)-yl]phenyl]-<em>N</em>,<em>N</em>-dimethyl-;Urea, 3-[4-(2-<em>tert</em>-butyl-5-oxo-Δ<sup>2</sup>-1,3,4-oxadiazolin-4-yl)-3-chlorophenyl]-1,1-dimethyl-;<em>N</em>′-[3-Chloro-4-[5-(1,1-dimethylethyl)-2-oxo-1,3,4-oxadiazol-3(2<em>H</em>)-yl]phenyl]-<em>N</em>,<em>N</em>-dimethylurea;3-[2-Chloro-4-(3,3-dimethylureido)phenyl]-5-<em>tert</em>-butyl-1,3,4-oxadiazolinone;RP 23465;Dimefuron;Vt 2809;Pradone TS",
    "duplicated_cas_no": "51161-61-6;63952-19-2",
    "SMILES": "O=C1N(N=C(C(C)(C)C)O1)C2=C(Cl)C=C(NC(N(C)C)=O)C=C2",
    "meta_data": {
        "InChI": "InChI=1S/C15H19ClN4O3/c1-15(2,3)12-18-20(14(22)23-12)11-7-6-9(8-10(11)16)17-13(21)19(4)5/h6-8H,1-5H3,(H,17,21)",
        "InChIKey": null,
        "Canonical SMILES": "O=C1OC(=NN1C2=CC=C(C=C2Cl)NC(=O)N(C)C)C(C)(C)C",
        "Molecular Formula": "C<sub>15</sub>H<sub>19</sub>ClN<sub>4</sub>O<sub>3</sub>",
        "Molecular Mass": "338.79",
        "Melting Point": "193 °C"
    }
}