{
    "cas_no": "542-52-9",
    "key_name": "Dibutyl carbonate",
    "cn_name": null,
    "alternate_name": "Carbonic acid, dibutyl ester;<em>n</em>-Butyl carbonate;Dibutyl carbonate;Di-<em>n</em>-butyl carbonate;NSC 8462;Jeffsol AG 1560",
    "duplicated_cas_no": "",
    "SMILES": "O(C(OCCCC)=O)CCCC",
    "meta_data": {
        "InChI": "InChI=1S/C9H18O3/c1-3-5-7-11-9(10)12-8-6-4-2/h3-8H2,1-2H3",
        "InChIKey": null,
        "Canonical SMILES": "O=C(OCCCC)OCCCC",
        "Molecular Formula": "C<sub>9</sub>H<sub>18</sub>O<sub>3</sub>",
        "Molecular Mass": "174.24",
        "Boiling Point": "170 °C",
        "Melting Point": "&lt;25 °C",
        "Density": "0.9237 g/cm³ @ Temp: 20 °C"
    }
}