{
    "cas_no": "56643-86-8",
    "key_name": "2-Methyl-1-[(4-nitrophenyl)methyl]-1<em>H</em>-imidazole",
    "cn_name": null,
    "alternate_name": "1<em>H</em>-Imidazole, 2-methyl-1-[(4-nitrophenyl)methyl]-;2-Methyl-1-[(4-nitrophenyl)methyl]-1<em>H</em>-imidazole;2-Methyl-4-(4-nitrobenzyl)imidazole;2-Methyl-1-(4-nitrobenzyl)-1<em>H</em>-imidazole;2-Methyl-1-[(4-nitrophenyl)methyl]imidazole",
    "duplicated_cas_no": "",
    "SMILES": "C(N1C(C)=NC=C1)C2=CC=C(N(=O)=O)C=C2",
    "meta_data": {
        "InChI": "InChI=1S/C11H11N3O2/c1-9-12-6-7-13(9)8-10-2-4-11(5-3-10)14(15)16/h2-7H,8H2,1H3",
        "InChIKey": null,
        "Canonical SMILES": "O=N(=O)C1=CC=C(C=C1)CN2C=CN=C2C",
        "Molecular Formula": "C<sub>11</sub>H<sub>11</sub>N<sub>3</sub>O<sub>2</sub>",
        "Molecular Mass": "217.22",
        "Melting Point": "96 °C"
    }
}