{
    "cas_no": "90035-08-8",
    "key_name": "Flocoumafen",
    "cn_name": null,
    "alternate_name": "2<em>H</em>-1-Benzopyran-2-one, 4-hydroxy-3-[1,2,3,4-tetrahydro-3-[4-[[4-(trifluoromethyl)phenyl]methoxy]phenyl]-1-naphthalenyl]-;4-Hydroxy-3-[1,2,3,4-tetrahydro-3-[4-[[4-(trifluoromethyl)phenyl]methoxy]phenyl]-1-naphthalenyl]-2<em>H</em>-1-benzopyran-2-one;WL 108366;Flocoumafen;Storm;Storm (rodenticide)",
    "duplicated_cas_no": "",
    "SMILES": "OC1=C(C2C=3C(CC(C2)C4=CC=C(OCC5=CC=C(C(F)(F)F)C=C5)C=C4)=CC=CC3)C(=O)OC=6C1=CC=CC6",
    "meta_data": {
        "InChI": "InChI=1S/C33H25F3O4/c34-33(35,36)24-13-9-20(10-14-24)19-39-25-15-11-21(12-16-25)23-17-22-5-1-2-6-26(22)28(18-23)30-31(37)27-7-3-4-8-29(27)40-32(30)38/h1-16,23,28,37H,17-19H2",
        "InChIKey": null,
        "Canonical SMILES": "O=C1OC=2C=CC=CC2C(O)=C1C3C=4C=CC=CC4CC(C5=CC=C(OCC6=CC=C(C=C6)C(F)(F)F)C=C5)C3",
        "Molecular Formula": "C<sub>33</sub>H<sub>25</sub>F<sub>3</sub>O<sub>4</sub>",
        "Molecular Mass": "542.54",
        "Melting Point": "181 °C",
        "Density": "1.2 g/cm³"
    }
}