{
    "cas_no": "74291-57-9",
    "key_name": "2-(Trifluoroacetyl)-1,2,3,4-tetrahydroisoquinoline-7-sulfonyl chloride",
    "cn_name": "1,2,3,4-四氢-2-(三氟乙酰基)异喹啉-7-磺酰氯;",
    "alternate_name": "7-Isoquinolinesulfonyl chloride, 1,2,3,4-tetrahydro-2-(2,2,2-trifluoroacetyl)-;7-Isoquinolinesulfonyl chloride, 1,2,3,4-tetrahydro-2-(trifluoroacetyl)-;1,2,3,4-Tetrahydro-2-(2,2,2-trifluoroacetyl)-7-isoquinolinesulfonyl chloride;<em>N</em>-Trifluoroacetyl-1,2,3,4-tetrahydroisoquinoline-7-sulfonyl chloride;1,2,3,4-Tetrahydro-2-(trifluoroacetyl)isoquinoline-7-sulfonyl chloride;2-(2,2,2-Trifluoroacetyl)-1,2,3,4-tetrahydroisoquinoline-7-sulfonyl chloride;2-(Trifluoroacetyl)-1,2,3,4-tetrahydroisoquinoline-7-sulfonyl chloride;2-Trifluoroacetyl-1,2,3,4-tetrahydro-7-quinolinesulfonyl chloride;2-(2,2,2-Trifluoroacetyl)-3,4-dihydro-1<em>H</em>-isoquinoline-7-sulfonyl chloride",
    "duplicated_cas_no": "606969-20-4",
    "SMILES": "C(C(F)(F)F)(=O)N1CC=2C(=CC=C(S(Cl)(=O)=O)C2)CC1",
    "meta_data": {
        "InChI": "InChI=1S/C11H9ClF3NO3S/c12-20(18,19)9-2-1-7-3-4-16(6-8(7)5-9)10(17)11(13,14)15/h1-2,5H,3-4,6H2",
        "InChIKey": null,
        "Canonical SMILES": "O=C(N1CC2=CC(=CC=C2CC1)S(=O)(=O)Cl)C(F)(F)F",
        "Molecular Formula": "C<sub>11</sub>H<sub>9</sub>ClF<sub>3</sub>NO<sub>3</sub>S",
        "Molecular Mass": "327.71",
        "Melting Point": "108-109 °C"
    }
}