{
    "cas_no": "318-98-9",
    "key_name": "Propranolol hydrochloride",
    "cn_name": "盐酸普萘洛尔;1-异丙氨基-3-(1-萘氧基)-2-丙醇盐酸盐;",
    "alternate_name": "2-Propanol, 1-[(1-methylethyl)amino]-3-(1-naphthalenyloxy)-, hydrochloride (1:1);2-Propanol, 1-(isopropylamino)-3-(1-naphthyloxy)-, hydrochloride;2-Propanol, 1-[(1-methylethyl)amino]-3-(1-naphthalenyloxy)-, hydrochloride;Dociton;1-(Isopropylamino)-3-(1-naphthyloxy)propan-2-ol hydrochloride;1-(1-Naphthyloxy)-2-hydroxy-3-isopropylaminopropane hydrochloride;Propranolol hydrochloride;ICI 45520;Naprilin;Anapriline;1-(1-Naphthoxy)-2-hydroxy-3-isopropylaminopropane hydrochloride;Propranolol chloride;1-(1-Naphthyloxy)-3-(isopropylamino)-2-propanol hydrochloride;Anaprilin;Obsidan;Avlocardyl;Inderal LA;Propraratiopharm;1-(Isopropylamino)-3-(1-naphthoxy)-2-propanol hydrochloride;<em>dl</em>-Propranolol hydrochloride;(±)-Propranolol hydrochloride;Inderal;<span class=\"text-smallcaps\">D</smallcap><smallcap>L</span>-Anapriline;Docitan;<span class=\"text-smallcaps\">D</smallcap><smallcap>L</span>-Propranolol hydrochloride;Duranol;(<em>R</em>,<em>S</em>)-Propranolol hydrochloride;Angilol;Beta-Tablinen;Servanolol;Oposim;Prano-Puren;Kemi S;Elbol;Bedranol;NSC 91523;Prophylux;Pylapron;Berkolol;Cardinol;Apsolol;Tesnol;Beta-Neg;Frekven;Beta-Timelets;Rapynogen;Sumial;Beprane;Sloprolol;Deralin;Propranur;Sagittol;Caridolol;Efektolol;Indobloc;Intermigran;(<em>RS</em>)-Propranolol hydrochloride;Inderalici;Monoprolol;Ciplar;Betacap;1-Isopropylamino-3-naphthalen-1-yloxypropan-2-ol monohydrochloride;1-(Naphthalen-1-yloxy)-3-[(propan-2-yl)amino]propan-2-ol hydrochloride;1-(Isopropylamino)-3-(naphthalen-1-yloxy)propan-2-ol hydrochloride;Hemangiol;Hemangeol",
    "duplicated_cas_no": "3506-09-0;146874-86-4",
    "SMILES": "O(CC(CNC(C)C)O)C=1C2=C(C=CC1)C=CC=C2.Cl",
    "meta_data": {
        "InChI": "InChI=1S/C16H21NO2.ClH/c1-12(2)17-10-14(18)11-19-16-9-5-7-13-6-3-4-8-15(13)16;/h3-9,12,14,17-18H,10-11H2,1-2H3;1H",
        "InChIKey": null,
        "Canonical SMILES": "Cl.OC(COC1=CC=CC=2C=CC=CC12)CNC(C)C",
        "Molecular Formula": "C<sub>16</sub>H<sub>21</sub>NO<sub>2</sub>.ClH",
        "Molecular Mass": "",
        "Melting Point": "163-164 °C"
    }
}