{
    "cas_no": "707-99-3",
    "key_name": "9-(2-Hydroxyethyl)adenine",
    "cn_name": "9-(2-羟乙基)腺嘌呤;",
    "alternate_name": "9<em>H</em>-Purine-9-ethanol, 6-amino-;6-Amino-9<em>H</em>-purine-9-ethanol;9-(2-Hydroxyethyl)adenine;9-(β-Hydroxyethyl)adenine;NSC 51467;2-(6-Amino-9<em>H</em>-purin-9-yl)ethanol;2-(6-Amino-9<em>H</em>-purin-9-yl)ethan-1-ol;2-(6-Aminopurin-9-yl)ethanol",
    "duplicated_cas_no": "",
    "SMILES": "C(CO)N1C=2C(=C(N)N=CN2)N=C1",
    "meta_data": {
        "InChI": "InChI=1S/C7H9N5O/c8-6-5-7(10-3-9-6)12(1-2-13)4-11-5/h3-4,13H,1-2H2,(H2,8,9,10)",
        "InChIKey": null,
        "Canonical SMILES": "OCCN1C=NC=2C(=NC=NC21)N",
        "Molecular Formula": "C<sub>7</sub>H<sub>9</sub>N<sub>5</sub>O",
        "Molecular Mass": "179.18",
        "Melting Point": "238-239 °C"
    }
}