{
    "cas_no": "80-40-0",
    "key_name": "Ethyl <em>p</em>-toluenesulfonate",
    "cn_name": "对甲苯磺酸乙酯;",
    "alternate_name": "Benzenesulfonic acid, 4-methyl-, ethyl ester;<em>p</em>-Toluenesulfonic acid, ethyl ester;Ethyl <em>p</em>-methylbenzenesulfonate;Ethyl <em>p</em>-toluenesulfonate;Ethyl tosylate;Ethyl <em>p</em>-tosylate;Ethyl toluenesulfonate;Ethyl 4-toluenesulfonate;Ethyl 4-methylbenzenesulfonate;Toluene-4-sulfonic acid ethyl ester;NSC 8887;Aldrich 104256",
    "duplicated_cas_no": "1195611-43-8",
    "SMILES": "S(OCC)(=O)(=O)C1=CC=C(C)C=C1",
    "meta_data": {
        "InChI": "InChI=1S/C9H12O3S/c1-3-12-13(10,11)9-6-4-8(2)5-7-9/h4-7H,3H2,1-2H3",
        "InChIKey": null,
        "Canonical SMILES": "O=S(=O)(OCC)C1=CC=C(C=C1)C",
        "Molecular Formula": "C<sub>9</sub>H<sub>12</sub>O<sub>3</sub>S",
        "Molecular Mass": "200.25",
        "Boiling Point": "173 °C @ Press: 15 Torr",
        "Melting Point": "33 °C",
        "Density": "1.17 g/cm³"
    }
}