{
    "cas_no": "103475-41-8",
    "key_name": "Tepoxalin",
    "cn_name": "替泊沙林;",
    "alternate_name": "1<em>H</em>-Pyrazole-3-propanamide, 5-(4-chlorophenyl)-<em>N</em>-hydroxy-1-(4-methoxyphenyl)-<em>N</em>-methyl-;5-(4-Chlorophenyl)-<em>N</em>-hydroxy-1-(4-methoxyphenyl)-<em>N</em>-methyl-1<em>H</em>-pyrazole-3-propanamide;Tepoxalin;ORF 20485;RWJ 20485;Zubrin",
    "duplicated_cas_no": "",
    "SMILES": "C(CC(N(C)O)=O)C1=NN(C(=C1)C2=CC=C(Cl)C=C2)C3=CC=C(OC)C=C3",
    "meta_data": {
        "InChI": "InChI=1S/C20H20ClN3O3/c1-23(26)20(25)12-7-16-13-19(14-3-5-15(21)6-4-14)24(22-16)17-8-10-18(27-2)11-9-17/h3-6,8-11,13,26H,7,12H2,1-2H3",
        "InChIKey": null,
        "Canonical SMILES": "O=C(N(O)C)CCC1=NN(C2=CC=C(OC)C=C2)C(=C1)C=3C=CC(Cl)=CC3",
        "Molecular Formula": "C<sub>20</sub>H<sub>20</sub>ClN<sub>3</sub>O<sub>3</sub>",
        "Molecular Mass": "385.84",
        "Melting Point": "125-126 °C"
    }
}