{
    "cas_no": "79277-27-3",
    "key_name": "Thifensulfuron methyl",
    "cn_name": "噻吩黄隆;噻吩磺隆;3-(4-甲氧基-6-甲基-1,3,5-三嗪-2-基)-1-(2-甲氧基甲酰基噻吩-3-基)-磺酰脲;",
    "alternate_name": "2-Thiophenecarboxylic acid, 3-[[[[(4-methoxy-6-methyl-1,3,5-triazin-2-yl)amino]carbonyl]amino]sulfonyl]-, methyl ester;DPX-M 6316;Harmony;Thiameturon-methyl;Thifensulfuron methyl ester;Harmony 75DF;Thifensulfuron methyl;Pinnacle;Refine;Refine DF;Pinnacle 25DF;Harmony GT-XP;Harmony GT;Harmony SX",
    "duplicated_cas_no": "",
    "SMILES": "C(OC)(=O)C1=C(S(NC(NC=2N=C(OC)N=C(C)N2)=O)(=O)=O)C=CS1",
    "meta_data": {
        "InChI": "InChI=1S/C12H13N5O6S2/c1-6-13-10(16-12(14-6)23-3)15-11(19)17-25(20,21)7-4-5-24-8(7)9(18)22-2/h4-5H,1-3H3,(H2,13,14,15,16,17,19)",
        "InChIKey": null,
        "Canonical SMILES": "O=C(OC)C=1SC=CC1S(=O)(=O)NC(=O)NC2=NC(=NC(=N2)C)OC",
        "Molecular Formula": "C<sub>12</sub>H<sub>13</sub>N<sub>5</sub>O<sub>6</sub>S<sub>2</sub>",
        "Molecular Mass": "387.39",
        "Melting Point": "176 °C"
    }
}