{
    "cas_no": "70052-12-9",
    "key_name": "Eflornithine",
    "cn_name": "DL-α-二氟甲基鸟氨酸盐酸盐;依氟鸟氨酸碱盐酸盐;",
    "alternate_name": "Ornithine, 2-(difluoromethyl)-;2-(Difluoromethyl)ornithine;α-(Difluoromethyl)ornithine;α,δ-Diamino-α-(difluoromethyl)valeric acid;DFMO;<span class=\"text-smallcaps\">DL</span>-α-(Difluoromethyl)ornithine;RMI 71782;<span class=\"text-smallcaps\">DL</span>-2-(Difluoromethyl)ornithine;2-(Difluoromethyl)-<span class=\"text-smallcaps\">DL</span>-ornithine;Eflornithine;MDL 71782;Ornidyl;α-(Difluoromethyl)-<span class=\"text-smallcaps\">DL</span>-ornithine;DFMO (growth regulator);MDL 71782A;RFI 71782;Elfornithine;Difluromethylornithine;2,5-Diamino-2-(difluoromethyl)pentanoic acid;MeSH ID: D000518",
    "duplicated_cas_no": "67037-37-0",
    "SMILES": "C(CCCN)(C(F)F)(C(O)=O)N",
    "meta_data": {
        "InChI": "InChI=1S/C6H12F2N2O2/c7-4(8)6(10,5(11)12)2-1-3-9/h4H,1-3,9-10H2,(H,11,12)",
        "InChIKey": null,
        "Canonical SMILES": "O=C(O)C(N)(CCCN)C(F)F",
        "Molecular Formula": "C<sub>6</sub>H<sub>12</sub>F<sub>2</sub>N<sub>2</sub>O<sub>2</sub>",
        "Molecular Mass": "182.17",
        "Melting Point": "138 °C"
    }
}