{
    "cas_no": "555-75-9",
    "key_name": "Aluminum ethoxide",
    "cn_name": "三乙醇铝;",
    "alternate_name": "Ethanol, aluminum salt (3:1);Aluminum ethoxide;Ethyl alcohol, aluminum salt;Ethanol, aluminum salt;Aluminum ethylate;Triethoxyaluminum;Aluminum triethoxide;Aluminum triethylate;Tris(ethanolato)aluminum;Aluminum ethanolate;Aluminum, triethoxy-",
    "duplicated_cas_no": "2835-42-9;82948-46-7;112388-36-0;139984-22-8;858823-96-8;1091602-92-4;2042146-96-1;2421253-43-0;2649783-88-8",
    "SMILES": "C(C)O.[Al]",
    "meta_data": {
        "InChI": "InChI=1S/C2H6O.Al/c1-2-3;/h3H,2H2,1H3;",
        "InChIKey": null,
        "Canonical SMILES": "[Al].OCC",
        "Molecular Formula": "C<sub>2</sub>H<sub>6</sub>O.<sup>1</sup>/<sub>3</sub>Al",
        "Molecular Mass": "",
        "Boiling Point": "175-180 °C @ Press: 3 Torr",
        "Melting Point": "157-159 °C",
        "Density": "1.142 g/cm³ @ Temp: 20 °C"
    }
}