{
    "cas_no": "22318-10-1",
    "key_name": "Evodol",
    "cn_name": null,
    "alternate_name": "11<em>H</em>,13<em>H</em>-Oxireno[<em>d</em>]pyrano[4′,3′:3,3a]isobenzofuro[5,4-<em>f</em>][2]benzopyran-4,6,13(2<em>H</em>,5a<em>H</em>)-trione, 8-(3-furanyl)-4a,8,8a,9,10,10a,14,14a-octahydro-3-hydroxy-2,2,4a,8a-tetramethyl-, (4a<em>R</em>,4b<em>R</em>,5a<em>S</em>,8<em>S</em>,8a<em>S</em>,10a<em>R</em>,10b<em>R</em>,14a<em>S</em>)-;Limonoic acid, 5,6-didehydro-6-hydroxy-, di-δ-lactone;Evodol;Limonin diosphenol;(4a<em>R</em>,4b<em>R</em>,5a<em>S</em>,8<em>S</em>,8a<em>S</em>,10a<em>R</em>,10b<em>R</em>,14a<em>S</em>)-8-(3-Furanyl)-4a,8,8a,9,10,10a,14,14a-octahydro-3-hydroxy-2,2,4a,8a-tetramethyl-11<em>H</em>,13<em>H</em>-oxireno[<em>d</em>]pyrano[4′,3′:3,3a]isobenzofuro[5,4-<em>f</em>][2]benzopyran-4,6,13(2<em>H</em>,5a<em>H</em>)-trione;11<em>H</em>,13<em>H</em>-Oxireno[<em>d</em>]pyrano[4′,3′:3,3a]isobenzofuro[5,4-<em>f</em>][2]benzopyran-4,6,13(2<em>H</em>,5a<em>H</em>)-trione, 8-(3-furanyl)-4a,8,8a,9,10,10a,14,14a-octahydro-3-hydroxy-2,2,4a,8a-tetramethyl-, [4a<em>R</em>-(4aα,4b<em>R</em>*,5aβ,8β,8aβ,10aβ,10b<em>R</em>*,14aβ)]-;Glaucin C;NSC 314322",
    "duplicated_cas_no": "128242-19-3;989-95-7",
    "SMILES": "C[C@]12[C@]34[C@](C)([C@@H](OC(=O)[C@]3(O4)[H])C=5C=COC5)CC[C@@]1([C@]67C(=C(O)C2=O)C(C)(C)O[C@]6(CC(=O)OC7)[H])[H]",
    "meta_data": {
        "InChI": "InChI=1S/C26H28O9/c1-22(2)17-16(28)18(29)24(4)13(25(17)11-32-15(27)9-14(25)34-22)5-7-23(3)19(12-6-8-31-10-12)33-21(30)20-26(23,24)35-20/h6,8,10,13-14,19-20,28H,5,7,9,11H2,1-4H3/t13-,14-,19-,20+,23-,24-,25-,26+/m0/s1",
        "InChIKey": null,
        "Canonical SMILES": "O=C1OCC23C(=C(O)C(=O)C4(C)C2CCC5(C)C(OC(=O)C6OC645)C7=COC=C7)C(OC3C1)(C)C",
        "Molecular Formula": "C<sub>26</sub>H<sub>28</sub>O<sub>9</sub>",
        "Molecular Mass": "484.50",
        "Melting Point": "281 °C"
    }
}