{
    "cas_no": "616-38-6",
    "key_name": "Dimethyl carbonate",
    "cn_name": "碳酸二甲酯;",
    "alternate_name": "Carbonic acid, dimethyl ester;Dimethyl carbonate;Methyl carbonate ((MeO)<sub>2</sub>CO);NSC 9371;AK 100;AK 100 (carbonate);S 100 (carbonate);S 100",
    "duplicated_cas_no": "",
    "SMILES": "C(OC)(OC)=O",
    "meta_data": {
        "InChI": "InChI=1S/C3H6O3/c1-5-3(4)6-2/h1-2H3",
        "InChIKey": null,
        "Canonical SMILES": "O=C(OC)OC",
        "Molecular Formula": "C<sub>3</sub>H<sub>6</sub>O<sub>3</sub>",
        "Molecular Mass": "90.08",
        "Boiling Point": "90-91 °C",
        "Melting Point": "0.5 °C",
        "Density": "1.0636 g/cm³ @ Temp: 25 °C"
    }
}