{
    "cas_no": "366-70-1",
    "key_name": "Procarbazine hydrochloride",
    "cn_name": "盐酸甲基苄肼;甲基苄肼盐酸盐;N-异丙基-4-((2-甲基肼)甲基)苯甲酰胺盐酸盐;",
    "alternate_name": "Benzamide, <em>N</em>-(1-methylethyl)-4-[(2-methylhydrazinyl)methyl]-, hydrochloride (1:1);<em>p</em>-Toluamide, <em>N</em>-isopropyl-α-(2-methylhydrazino)-, monohydrochloride;Benzamide, <em>N</em>-(1-methylethyl)-4-[(2-methylhydrazino)methyl]-, monohydrochloride;NSC 77213;Ibenzmethyzine hydrochloride;Ibenzmethyzin hydrochloride;IBZ;2-[<em>p</em>-(Isopropylcarbamoyl)benzyl]-1-methylhydrazine hydrochloride;<em>N</em>-Isopropyl-<em>p</em>-(2-methylhydrazinomethyl)benzamide hydrochloride;<em>N</em>-Isopropyl-α-(2-methylhydrazino)-<em>p</em>-toluamide hydrochloride;MBH;1-Methyl-2-[<em>p</em>-(isopropylcarbamoyl)benzyl]hydrazine hydrochloride;Natulan;Natulan hydrochloride;Procarbazine hydrochloride;Ro 4-6467;Matulane;Natulanar;MIH hydrochloride;Ro 4 6467/1;NCI-C 01810;Nathulane;PCB hydrochloride;Indicarb",
    "duplicated_cas_no": "",
    "SMILES": "C(NC(C)C)(=O)C1=CC=C(CNNC)C=C1.Cl",
    "meta_data": {
        "InChI": "InChI=1S/C12H19N3O.ClH/c1-9(2)15-12(16)11-6-4-10(5-7-11)8-14-13-3;/h4-7,9,13-14H,8H2,1-3H3,(H,15,16);1H",
        "InChIKey": null,
        "Canonical SMILES": "Cl.O=C(NC(C)C)C1=CC=C(C=C1)CNNC",
        "Molecular Formula": "C<sub>12</sub>H<sub>19</sub>N<sub>3</sub>O.ClH",
        "Molecular Mass": "",
        "Melting Point": "223-226 °C",
        "Density": "8.3 g/cm³"
    }
}