{
    "cas_no": "21887-01-4",
    "key_name": "Horminone",
    "cn_name": null,
    "alternate_name": "1,4-Phenanthrenedione, 4b,5,6,7,8,8a,9,10-octahydro-3,10-dihydroxy-4b,8,8-trimethyl-2-(1-methylethyl)-, (4b<em>S</em>,8a<em>S</em>,10<em>R</em>)-;Podocarpa-8,12-diene-11,14-dione, 7α,12-dihydroxy-13-isopropyl-;Horminone;1,4-Phenanthrenedione, 4b,5,6,7,8,8a,9,10-octahydro-3,10-dihydroxy-4b,8,8-trimethyl-2-(1-methylethyl)-, [4b<em>S</em>-(4bα,8aβ,10β)]-;(4b<em>S</em>,8a<em>S</em>,10<em>R</em>)-4b,5,6,7,8,8a,9,10-Octahydro-3,10-dihydroxy-4b,8,8-trimethyl-2-(1-methylethyl)-1,4-phenanthrenedione;7α-Hydroxyroyleanone;NSC 294577",
    "duplicated_cas_no": "11021-28-6",
    "SMILES": "C[C@@]12C3=C(C(=O)C(C(C)C)=C(O)C3=O)[C@H](O)C[C@]1(C(C)(C)CCC2)[H]",
    "meta_data": {
        "InChI": "InChI=1S/C20H28O4/c1-10(2)13-16(22)14-11(21)9-12-19(3,4)7-6-8-20(12,5)15(14)18(24)17(13)23/h10-12,21,23H,6-9H2,1-5H3/t11-,12+,20+/m1/s1",
        "InChIKey": null,
        "Canonical SMILES": "O=C1C(=C(O)C(=O)C2=C1C(O)CC3C2(C)CCCC3(C)C)C(C)C",
        "Molecular Formula": "C<sub>20</sub>H<sub>28</sub>O<sub>4</sub>",
        "Molecular Mass": "332.43",
        "Melting Point": "178 °C"
    }
}