{
    "cas_no": "527-84-4",
    "key_name": "<em>o</em>-Cymene",
    "cn_name": "邻异丙基甲苯;邻-异丙基苯;O-异丙基甲苯;1-甲基-2-异丙基苯;1-异丙基-2-甲基苯;",
    "alternate_name": "Benzene, 1-methyl-2-(1-methylethyl)-;<em>o</em>-Cymene;1-Methyl-2-(1-methylethyl)benzene;<em>o</em>-Cymol;<em>o</em>-Isopropyltoluene;1-Methyl-2-isopropylbenzene;1-Isopropyl-2-methylbenzene;2-Isopropyltoluene;NSC 73976;1-Methyl-2-cumene;α-Cymene;1-Methyl-2-propan-2-ylbenzene;1-Methyl-2-(propan-2-yl)benzene",
    "duplicated_cas_no": "",
    "SMILES": "C(C)(C)C1=C(C)C=CC=C1",
    "meta_data": {
        "InChI": "InChI=1S/C10H14/c1-8(2)10-7-5-4-6-9(10)3/h4-8H,1-3H3",
        "InChIKey": null,
        "Canonical SMILES": "C=1C=CC(=C(C1)C)C(C)C",
        "Molecular Formula": "C<sub>10</sub>H<sub>14</sub>",
        "Molecular Mass": "134.22",
        "Boiling Point": "178.1 °C",
        "Melting Point": "-71.5 °C",
        "Density": "0.8766 g/cm³ @ Temp: 20 °C"
    }
}