{
    "cas_no": "22353-38-4",
    "key_name": "3-Chloro-5-nitro-2(1<em>H</em>)-pyridinone",
    "cn_name": null,
    "alternate_name": "2(1<em>H</em>)-Pyridinone, 3-chloro-5-nitro-;2-Pyridinol, 3-chloro-5-nitro-;3-Chloro-5-nitro-2(1<em>H</em>)-pyridinone;3-Chloro-2-hydroxy-5-nitropyridine;3-Chloro-5-nitro-2-hydroxypyridine;NSC 349953;3-Chloro-5-nitro-2-pyridinol;3-Chloro-5-nitropyridin-2-ol;2-Hydroxy-3-chloro-5-nitropyridine;3-Chloro-5-nitro-1<em>H</em>-pyridin-2-one;3-Chloro-5-nitro-1,2-dihydropyridin-2-one",
    "duplicated_cas_no": "",
    "SMILES": "N(=O)(=O)C=1C=C(Cl)C(=O)NC1",
    "meta_data": {
        "InChI": "InChI=1S/C5H3ClN2O3/c6-4-1-3(8(10)11)2-7-5(4)9/h1-2H,(H,7,9)",
        "InChIKey": null,
        "Canonical SMILES": "O=C1NC=C(C=C1Cl)N(=O)=O",
        "Molecular Formula": "C<sub>5</sub>H<sub>3</sub>ClN<sub>2</sub>O<sub>3</sub>",
        "Molecular Mass": "174.54",
        "Melting Point": "165-167 °C"
    }
}