{
    "cas_no": "1562-00-1",
    "key_name": "Sodium isethionate",
    "cn_name": "羟乙基磺酸钠;2-羟基乙二磺酸钠;",
    "alternate_name": "Ethanesulfonic acid, 2-hydroxy-, sodium salt (1:1);Ethanesulfonic acid, 2-hydroxy-, monosodium salt;Isethionic acid sodium salt;Ethanesulfonic acid, 2-hydroxy-, sodium salt;Sodium isethionate;Sodium 2-hydroxyethanesulfonate;Sodium 2-hydroxyethylsulfonate;Sodium β-hydroxyethanesulfonate;2-Hydroxyethanesulfonic acid sodium salt;Sodium hydroxyethylsulfonate;Sodium 2-hydroxy-1-ethanesulfonate;Sodium 1-hydroxy-2-ethanesulfonate;Adeka Tec HES;Sodium hydroxyethanesulfonate;Hostapon SI;Isethionic acid sodium;MW 148",
    "duplicated_cas_no": "52117-27-8;78858-24-9",
    "SMILES": "C(S(=O)(=O)O)CO.[Na]",
    "meta_data": {
        "InChI": "InChI=1S/C2H6O4S.Na/c3-1-2-7(4,5)6;/h3H,1-2H2,(H,4,5,6);",
        "InChIKey": null,
        "Canonical SMILES": "[Na].O=S(=O)(O)CCO",
        "Molecular Formula": "C<sub>2</sub>H<sub>6</sub>O<sub>4</sub>S.Na",
        "Molecular Mass": "",
        "Melting Point": "192-194 °C"
    }
}