{
    "cas_no": "96-97-9",
    "key_name": "5-Nitrosalicylic acid",
    "cn_name": "5-硝基水杨酸;2-羟基-5-硝基苯甲酸;",
    "alternate_name": "Benzoic acid, 2-hydroxy-5-nitro-;Salicylic acid, 5-nitro-;2-Hydroxy-5-nitrobenzoic acid;Anilotic acid;5-Nitro-2-hydroxybenzoic acid;5-Nitrosalicylic acid;NSC 175998;NSC 183",
    "duplicated_cas_no": "",
    "SMILES": "C(O)(=O)C1=CC(N(=O)=O)=CC=C1O",
    "meta_data": {
        "InChI": "InChI=1S/C7H5NO5/c9-6-2-1-4(8(12)13)3-5(6)7(10)11/h1-3,9H,(H,10,11)",
        "InChIKey": null,
        "Canonical SMILES": "O=C(O)C1=CC(=CC=C1O)N(=O)=O",
        "Molecular Formula": "C<sub>7</sub>H<sub>5</sub>NO<sub>5</sub>",
        "Molecular Mass": "183.12",
        "Melting Point": "229.5 °C",
        "Density": "1.654 g/cm³ @ Temp: 13.5 °C"
    }
}