{
    "cas_no": "1120-97-4",
    "key_name": "4-Methyl-1,3-dioxane",
    "cn_name": "4-甲基-1,3-二氧己环;",
    "alternate_name": "1,3-Dioxane, 4-methyl-;<em>m</em>-Dioxane, 4-methyl-;4-Methyl-1,3-dioxane;4-Methyl-<em>m</em>-dioxane;NSC 292",
    "duplicated_cas_no": "140388-03-0",
    "SMILES": "CC1CCOCO1",
    "meta_data": {
        "InChI": "InChI=1S/C5H10O2/c1-5-2-3-6-4-7-5/h5H,2-4H2,1H3",
        "InChIKey": null,
        "Canonical SMILES": "O1COC(C)CC1",
        "Molecular Formula": "C<sub>5</sub>H<sub>10</sub>O<sub>2</sub>",
        "Molecular Mass": "102.13",
        "Boiling Point": "114 °C",
        "Melting Point": "-44.5 °C",
        "Density": "0.9758 g/cm³ @ Temp: 20 °C"
    }
}