{
    "cas_no": "1613-86-1",
    "key_name": "4-Nitrobenzamidoxime",
    "cn_name": null,
    "alternate_name": "Benzenecarboximidamide, <em>N</em>-hydroxy-4-nitro-;Benzamidoxime, <em>p</em>-nitro-;<em>N</em>-Hydroxy-4-nitrobenzenecarboximidamide;Benzamide, <em>p</em>-nitro-, oxime;<em>p</em>-Nitrobenzamidoxime;<em>p</em>-Nitrobenzamide oxime;4-Nitrobenzamidoxime;<em>N</em>-Hydroxy-4-nitrobenzamidine;<em>N</em>′-Hydroxy-4-nitrobenzene-1-carboximidamide;4-Nitrobenzamide oxime",
    "duplicated_cas_no": "",
    "SMILES": "C(NO)(=N)C1=CC=C(N(=O)=O)C=C1",
    "meta_data": {
        "InChI": "InChI=1S/C7H7N3O3/c8-7(9-11)5-1-3-6(4-2-5)10(12)13/h1-4,11H,(H2,8,9)",
        "InChIKey": null,
        "Canonical SMILES": "O=N(=O)C1=CC=C(C=C1)C(=N)NO",
        "Molecular Formula": "C<sub>7</sub>H<sub>7</sub>N<sub>3</sub>O<sub>3</sub>",
        "Molecular Mass": "181.15",
        "Melting Point": "180 °C"
    }
}