{
    "cas_no": "421-06-7",
    "key_name": "2-Bromo-1,1,1-trifluoroethane",
    "cn_name": "一溴三氟乙烷;",
    "alternate_name": "Ethane, 2-bromo-1,1,1-trifluoro-;2-Bromo-1,1,1-trifluoroethane;1-Bromo-2,2,2-trifluoroethane;1,1,1-Trifluoro-2-bromoethane;2,2,2-Trifluoroethyl bromide;HBFC 133aB1;2-Bromo-trifluoroethane",
    "duplicated_cas_no": "",
    "SMILES": "C(CBr)(F)(F)F",
    "meta_data": {
        "InChI": "InChI=1S/C2H2BrF3/c3-1-2(4,5)6/h1H2",
        "InChIKey": null,
        "Canonical SMILES": "FC(F)(F)CBr",
        "Molecular Formula": "C<sub>2</sub>H<sub>2</sub>BrF<sub>3</sub>",
        "Molecular Mass": "162.94",
        "Boiling Point": "26 °C",
        "Melting Point": "-93.9 °C",
        "Density": "1.8383 g/cm³ @ Temp: 17.5 °C"
    }
}