{
    "cas_no": "22644-28-6",
    "key_name": "(2<em>R</em>)-2-Methyl-1,4-butanediol",
    "cn_name": null,
    "alternate_name": "1,4-Butanediol, 2-methyl-, (2<em>R</em>)-;1,4-Butanediol, 2-methyl-, (<em>R</em>)-(+)-;1,4-Butanediol, 2-methyl-, (<em>R</em>)-;(2<em>R</em>)-2-Methyl-1,4-butanediol;(<em>R</em>)-2-Methyl-1,4-butanediol;(R)-2-Methylbutane-1,4-diol;(R)-2-Methylbutan-1,4-diol;(2R)-2-Methylbutane-1,4-diol",
    "duplicated_cas_no": "",
    "SMILES": "[C@@H](CCO)(CO)C",
    "meta_data": {
        "InChI": "InChI=1S/C5H12O2/c1-5(4-7)2-3-6/h5-7H,2-4H2,1H3/t5-/m1/s1",
        "InChIKey": null,
        "Canonical SMILES": "OCCC(C)CO",
        "Molecular Formula": "C<sub>5</sub>H<sub>12</sub>O<sub>2</sub>",
        "Molecular Mass": "104.15",
        "Boiling Point": "131-132 °C @ Press: 18 Torr"
    }
}