{
    "cas_no": "354-58-5",
    "key_name": "1,1,1-Trichloro-2,2,2-trifluoroethane",
    "cn_name": "1,1,1-三氯-2,2,2-三氟乙烷;",
    "alternate_name": "Ethane, 1,1,1-trichloro-2,2,2-trifluoro-;1,1,1-Trichloro-2,2,2-trifluoroethane;Freon FT;1,1,1-Trifluoro-2,2,2-trichloroethane;1,1,1-Trichlorotrifluoroethane;1,1,1-Trifluorotrichloroethane;FC 113a;F 113a;CFC 113a;R 113a;Freon 113a",
    "duplicated_cas_no": "",
    "SMILES": "C(C(F)(F)F)(Cl)(Cl)Cl",
    "meta_data": {
        "InChI": "InChI=1S/C2Cl3F3/c3-1(4,5)2(6,7)8",
        "InChIKey": null,
        "Canonical SMILES": "FC(F)(F)C(Cl)(Cl)Cl",
        "Molecular Formula": "C<sub>2</sub>Cl<sub>3</sub>F<sub>3</sub>",
        "Molecular Mass": "187.38",
        "Boiling Point": "46.1 °C",
        "Melting Point": "14.2 °C",
        "Density": "1.5790 g/cm³ @ Temp: 20 °C"
    }
}