{
    "cas_no": "132539-06-1",
    "key_name": "Olanzapine",
    "cn_name": "奥氮平;2-甲基-4-(4-甲基-1-哌嗪基)-10H-噻吩并[2,3-b][1,5]苯并二氮杂;",
    "alternate_name": "10<em>H</em>-Thieno[2,3-<em>b</em>][1,5]benzodiazepine, 2-methyl-4-(4-methyl-1-piperazinyl)-;2-Methyl-4-(4-methyl-1-piperazinyl)-10<em>H</em>-thieno[2,3-<em>b</em>][1,5]benzodiazepine;Olanzapine;LY 170053;Zyprexa;Lanzac;Oleanz;Oltal;Oliza;Integrol;Olenz;Olimelt;Olanz;Zyprexa-Velotab;Oferta;Zolafren Flas;Arenbil;Zolafren;ADAMED;Zyprobiox;Rexapin;Prexal;2-Methyl-10-(4-methyl-piperazin-1-yl)-4<em>H</em>-3-thia-4,9-diaza-benzo[<em>f</em>]azulene;Olazax Disperzi;Olazax;Olansek;Zalasta",
    "duplicated_cas_no": "1034315-19-9",
    "SMILES": "CC1=CC=2C(=NC=3C(NC2S1)=CC=CC3)N4CCN(C)CC4",
    "meta_data": {
        "InChI": "InChI=1S/C17H20N4S/c1-12-11-13-16(21-9-7-20(2)8-10-21)18-14-5-3-4-6-15(14)19-17(13)22-12/h3-6,11,19H,7-10H2,1-2H3",
        "InChIKey": null,
        "Canonical SMILES": "N=1C=2C=CC=CC2NC=3SC(=CC3C1N4CCN(C)CC4)C",
        "Molecular Formula": "C<sub>17</sub>H<sub>20</sub>N<sub>4</sub>S",
        "Molecular Mass": "312.43",
        "Melting Point": "195 °C",
        "Density": "1.300 g/cm³"
    }
}