{
    "cas_no": "459-04-1",
    "key_name": "2-(4-Fluorophenyl)acetyl chloride",
    "cn_name": "对氟苯乙酰氯;4-氟苯乙酰氯;",
    "alternate_name": "Benzeneacetyl chloride, 4-fluoro-;Acetyl chloride, (<em>p</em>-fluorophenyl)-;4-Fluorobenzeneacetyl chloride;(<em>p</em>-Fluorophenyl)acetyl chloride;4-Fluorophenylacetyl chloride;2-(4-Fluorophenyl)acetyl chloride",
    "duplicated_cas_no": "",
    "SMILES": "C(C(Cl)=O)C1=CC=C(F)C=C1",
    "meta_data": {
        "InChI": "InChI=1S/C8H6ClFO/c9-8(11)5-6-1-3-7(10)4-2-6/h1-4H,5H2",
        "InChIKey": null,
        "Canonical SMILES": "O=C(Cl)CC1=CC=C(F)C=C1",
        "Molecular Formula": "C<sub>8</sub>H<sub>6</sub>ClFO",
        "Molecular Mass": "172.58",
        "Boiling Point": "102-104 °C @ Press: 12 Torr"
    }
}