{
    "cas_no": "14694-95-2",
    "key_name": "(<em>SP</em>-4-2)-Chlorotris(triphenylphosphine)rhodium",
    "cn_name": "三苯基膦氯化铑;三苯基膦氯铑;",
    "alternate_name": "Rhodium, chlorotris(triphenylphosphine)-, (<em>SP</em>-4-2)-;Rhodium, chlorotris(triphenylphosphine)-;(<em>SP</em>-4-2)-Chlorotris(triphenylphosphine)rhodium;Tris(triphenylphosphine)chlororhodium;Chlorotris(triphenylphosphine)rhodium;Chlorotris(triphenylphosphine)rhodium(I);Tris(triphenylphosphine)chlororhodium(I);Tris(triphenylphosphine)rhodium(I) chloride;Tris(triphenylphosphine)rhodium monochloride;Rhodium tris(triphenylphosphine) chloride;Wilkinson's catalyst;Tris(triphenylphosphine)rhodium chloride;Wilkinson's complex;NSC 124140",
    "duplicated_cas_no": "27813-17-8;35933-45-0;63478-44-4",
    "SMILES": "[Rh+]([P](C1=CC=CC=C1)(C2=CC=CC=C2)C3=CC=CC=C3)([P](C4=CC=CC=C4)(C5=CC=CC=C5)C6=CC=CC=C6)([P](C7=CC=CC=C7)(C8=CC=CC=C8)C9=CC=CC=C9)[Cl-]",
    "meta_data": {
        "InChI": "InChI=1S/3C18H15P.ClH.Rh/c3*1-4-10-16(11-5-1)19(17-12-6-2-7-13-17)18-14-8-3-9-15-18;;/h3*1-15H;1H;/q;;;;+1/p-1",
        "InChIKey": null,
        "Canonical SMILES": "[Cl-][Rh+]([P](C=1C=CC=CC1)(C=2C=CC=CC2)C=3C=CC=CC3)([P](C=4C=CC=CC4)(C=5C=CC=CC5)C=6C=CC=CC6)[P](C=7C=CC=CC7)(C=8C=CC=CC8)C=9C=CC=CC9",
        "Molecular Formula": "C<sub>54</sub>H<sub>45</sub>ClP<sub>3</sub>Rh",
        "Molecular Mass": "",
        "Melting Point": "223 °C",
        "Density": "1.363 g/cm³"
    }
}