{
    "cas_no": "1798-06-7",
    "key_name": "4-Iodophenylacetic acid",
    "cn_name": null,
    "alternate_name": "Benzeneacetic acid, 4-iodo-;Acetic acid, (<em>p</em>-iodophenyl)-;4-Iodobenzeneacetic acid;(<em>p</em>-Iodophenyl)acetic acid;4-Iodophenylacetic acid;NSC 4614;2-(4-Iodophenyl)acetic acid",
    "duplicated_cas_no": "2375204-43-4",
    "SMILES": "C(C(O)=O)C1=CC=C(I)C=C1",
    "meta_data": {
        "InChI": "InChI=1S/C8H7IO2/c9-7-3-1-6(2-4-7)5-8(10)11/h1-4H,5H2,(H,10,11)",
        "InChIKey": null,
        "Canonical SMILES": "O=C(O)CC1=CC=C(I)C=C1",
        "Molecular Formula": "C<sub>8</sub>H<sub>7</sub>IO<sub>2</sub>",
        "Molecular Mass": "262.04",
        "Melting Point": "135-136 °C"
    }
}