{
    "cas_no": "107667-60-7",
    "key_name": "Polaprezinc",
    "cn_name": "L-肌肽锌;",
    "alternate_name": "Zinc, [β-alanyl-κ<em>N</em>-<span class=\"text-smallcaps\">L</span>-histidinato(2-)-κ<em>N</em>,κ<em>O</em>]-;Zinc, [<em>N</em>-β-alanyl-<span class=\"text-smallcaps\">L</span>-histidinato(2-)-<em>N</em>,<em>N</em><sup>N</sup>,<em>O</em><sup>α</sup>]-;<span class=\"text-smallcaps\">L</span>-Histidine, <em>N</em>-β-alanyl-, zinc complex;Z 103;Zinc <span class=\"text-smallcaps\">L</span>-carnosine;Polaprezinc;β-Alanyl-<span class=\"text-smallcaps\">L</span>-histidinato zinc;Promac;Promac (antiulcer agent)",
    "duplicated_cas_no": "120520-26-5;132613-07-1",
    "SMILES": "C([C@@H]1[N-]2[Zn+2]([O-]C1=O)[NH2]CCC2=O)C3=CN=CN3",
    "meta_data": {
        "InChI": "InChI=1S/C9H14N4O3.Zn/c10-2-1-8(14)13-7(9(15)16)3-6-4-11-5-12-6;/h4-5,7H,1-3,10H2,(H3,11,12,13,14,15,16);/q;+2/p-2/t7-;/m0./s1",
        "InChIKey": null,
        "Canonical SMILES": "O=C1[O-][Zn+2]2[N-](C(=O)CC[NH2]2)C1CC3=CN=CN3",
        "Molecular Formula": "C<sub>9</sub>H<sub>12</sub>N<sub>4</sub>O<sub>3</sub>Zn",
        "Molecular Mass": "",
        "Melting Point": "&gt;300 °C"
    }
}