{
    "cas_no": "4829-04-3",
    "key_name": "1,3-Dithiolane",
    "cn_name": "1,3-二硫代坊;",
    "alternate_name": "1,3-Dithiolane;1,3-Dithiacyclopentane;Dithiolane;NSC 193357",
    "duplicated_cas_no": "",
    "SMILES": "C1CSCS1",
    "meta_data": {
        "InChI": "InChI=1S/C3H6S2/c1-2-5-3-4-1/h1-3H2",
        "InChIKey": null,
        "Canonical SMILES": "S1CSCC1",
        "Molecular Formula": "C<sub>3</sub>H<sub>6</sub>S<sub>2</sub>",
        "Molecular Mass": "106.21",
        "Boiling Point": "175 °C",
        "Melting Point": "-50 °C",
        "Density": "1.259 g/cm³ @ Temp: 17 °C"
    }
}