{
    "cas_no": "537-33-7",
    "key_name": "Sinapyl alcohol",
    "cn_name": null,
    "alternate_name": "Phenol, 4-(3-hydroxy-1-propen-1-yl)-2,6-dimethoxy-;2-Propen-1-ol, 3-(4-hydroxy-3,5-dimethoxyphenyl)-;Sinapyl alcohol;Phenol, 4-(3-hydroxy-1-propenyl)-2,6-dimethoxy-;4-(3-Hydroxy-1-propen-1-yl)-2,6-dimethoxyphenol;<em>p</em>-Hydroxy-<em>m</em>,<em>m</em>′-dimethoxycinnamyl alcohol;Sinapic alcohol;3-(4-Hydroxy-3,5-dimethoxyphenyl)-2-propen-1-ol",
    "duplicated_cas_no": "460053-92-3",
    "SMILES": "C(=CCO)C1=CC(OC)=C(O)C(OC)=C1",
    "meta_data": {
        "InChI": "InChI=1S/C11H14O4/c1-14-9-6-8(4-3-5-12)7-10(15-2)11(9)13/h3-4,6-7,12-13H,5H2,1-2H3",
        "InChIKey": null,
        "Canonical SMILES": "OC=1C(OC)=CC(C=CCO)=CC1OC",
        "Molecular Formula": "C<sub>11</sub>H<sub>14</sub>O<sub>4</sub>",
        "Molecular Mass": "210.23",
        "Melting Point": "63-64 °C"
    }
}