{
    "cas_no": "43020-38-8",
    "key_name": "2,3,4-Trimethoxybenzonitrile",
    "cn_name": "2,3,4-三甲氧基苯甲腈;",
    "alternate_name": "Benzonitrile, 2,3,4-trimethoxy-;2,3,4-Trimethoxybenzonitrile",
    "duplicated_cas_no": "",
    "SMILES": "O(C)C1=C(OC)C(OC)=CC=C1C#N",
    "meta_data": {
        "InChI": "InChI=1S/C10H11NO3/c1-12-8-5-4-7(6-11)9(13-2)10(8)14-3/h4-5H,1-3H3",
        "InChIKey": null,
        "Canonical SMILES": "N#CC1=CC=C(OC)C(OC)=C1OC",
        "Molecular Formula": "C<sub>10</sub>H<sub>11</sub>NO<sub>3</sub>",
        "Molecular Mass": "193.20",
        "Boiling Point": "164-167 °C @ Press: 8 Torr",
        "Melting Point": "58 °C"
    }
}