{
    "cas_no": "2491-36-3",
    "key_name": "2-Bromo-1-(2-hydroxyphenyl)ethanone",
    "cn_name": "2-溴-2\"-羟基苯乙酮;",
    "alternate_name": "Ethanone, 2-bromo-1-(2-hydroxyphenyl)-;Acetophenone, 2-bromo-2′-hydroxy-;2-Bromo-1-(2-hydroxyphenyl)ethanone;2-Bromo-2′-hydroxyacetophenone;ω-Bromo-<em>o</em>-hydroxyacetophenone;α-Bromo-2-hydroxyacetophenone;2′-Hydroxy-2-bromoacetophenone;2-Hydroxyphenacyl bromide;Bromomethyl 2-hydroxyphenyl ketone;2-Bromo-1-(2-hydroxyphenyl)ethan-1-one",
    "duplicated_cas_no": "",
    "SMILES": "C(CBr)(=O)C1=C(O)C=CC=C1",
    "meta_data": {
        "InChI": "InChI=1S/C8H7BrO2/c9-5-8(11)6-3-1-2-4-7(6)10/h1-4,10H,5H2",
        "InChIKey": null,
        "Canonical SMILES": "O=C(C=1C=CC=CC1O)CBr",
        "Molecular Formula": "C<sub>8</sub>H<sub>7</sub>BrO<sub>2</sub>",
        "Molecular Mass": "215.04",
        "Boiling Point": "152-158 °C @ Press: 18 Torr",
        "Melting Point": "70-71 °C"
    }
}