{
    "cas_no": "99-30-9",
    "key_name": "2,6-Dichloro-4-nitroaniline",
    "cn_name": "2,6-二氯-4-硝基苯胺;",
    "alternate_name": "Benzenamine, 2,6-dichloro-4-nitro-;Aniline, 2,6-dichloro-4-nitro-;2,6-Dichloro-4-nitrobenzenamine;AL 50;U-2069;Botran;DCNA (fungicide);2,6-Dichloro-4-nitroaniline;Ditranil;Allisan;Bortran;Dicloran;1-Amino-2,6-dichloro-4-nitrobenzene;Dichloran;CNA;Dichloran (amine fungicide);DCNA;4-Nitro-2,6-dichloroaniline;Botran 75W;Resisan;2,6-Dichloro-<em>p</em>-nitroaniline;Batran;Botran 75B;NSC 218;2,6-Dichloro-4-nitro-phenylamine",
    "duplicated_cas_no": "58916-70-4;1135443-69-4",
    "SMILES": "N(=O)(=O)C1=CC(Cl)=C(N)C(Cl)=C1",
    "meta_data": {
        "InChI": "InChI=1S/C6H4Cl2N2O2/c7-4-1-3(10(11)12)2-5(8)6(4)9/h1-2H,9H2",
        "InChIKey": null,
        "Canonical SMILES": "O=N(=O)C1=CC(Cl)=C(N)C(Cl)=C1",
        "Molecular Formula": "C<sub>6</sub>H<sub>4</sub>Cl<sub>2</sub>N<sub>2</sub>O<sub>2</sub>",
        "Molecular Mass": "207.01",
        "Boiling Point": "130 °C @ Press: 2.0 Torr",
        "Melting Point": "191 °C",
        "Density": "1.624 g/cm³"
    }
}