{
    "cas_no": "29684-56-8",
    "key_name": "Ethanaminium, <em>N</em>,<em>N</em>-diethyl-<em>N</em>-[[(methoxycarbonyl)amino]sulfonyl]-, inner salt",
    "cn_name": "伯吉斯试剂;N-(三乙基铵磺酰)氨基甲酸甲酯;",
    "alternate_name": "Ethanaminium, <em>N</em>,<em>N</em>-diethyl-<em>N</em>-[[(methoxycarbonyl)amino]sulfonyl]-, inner salt;Ammonium, (carboxysulfamoyl)triethyl-, hydroxide, inner salt, methyl ester;Burgess' reagent;Reagents, Burgess';3,3,3-Triethyl-1-(methoxycarbonyl)diazathian-3-ium-1-ide 2,2-dioxide;Methoxycarbonyl-(triethylammonio)sulfonylazanide",
    "duplicated_cas_no": "51373-37-6",
    "SMILES": "[N+](S([N-]C(OC)=O)(=O)=O)(CC)(CC)CC",
    "meta_data": {
        "InChI": "InChI=1S/C8H18N2O4S/c1-5-10(6-2,7-3)15(12,13)9-8(11)14-4/h5-7H2,1-4H3",
        "InChIKey": null,
        "Canonical SMILES": "O=C([N-]S(=O)(=O)[N+](CC)(CC)CC)OC",
        "Molecular Formula": "C<sub>8</sub>H<sub>18</sub>N<sub>2</sub>O<sub>4</sub>S",
        "Molecular Mass": "",
        "Melting Point": "71-73 °C"
    }
}