{
    "cas_no": "4551-15-9",
    "key_name": "[(Trimethylsilyl)thio]benzene",
    "cn_name": "(苯硫基)三甲基硅烷;",
    "alternate_name": "Benzene, [(trimethylsilyl)thio]-;Silane, trimethyl(phenylthio)-;[(Trimethylsilyl)thio]benzene;Trimethyl(phenylthio)silane;Phenyl trimethylsilyl sulfide;Trimethylsilyl phenyl sulfide;Phenylthiotrimethylsilane;Trimethyl(phenylthiolato)silicon",
    "duplicated_cas_no": "",
    "SMILES": "S([Si](C)(C)C)C1=CC=CC=C1",
    "meta_data": {
        "InChI": "InChI=1S/C9H14SSi/c1-11(2,3)10-9-7-5-4-6-8-9/h4-8H,1-3H3",
        "InChIKey": null,
        "Canonical SMILES": "S(C=1C=CC=CC1)[Si](C)(C)C",
        "Molecular Formula": "C<sub>9</sub>H<sub>14</sub>SSi",
        "Molecular Mass": "182.36",
        "Boiling Point": "72 °C @ Press: 8 Torr",
        "Density": "0.963 g/cm³"
    }
}