{
    "cas_no": "1592-12-7",
    "key_name": "Benzenemethanol, 4-ethenyl-, 1-acetate",
    "cn_name": "4-乙烯苄基乙酸酯;",
    "alternate_name": "Benzenemethanol, 4-ethenyl-, 1-acetate;Benzyl alcohol, <em>p</em>-vinyl-, acetate;Benzenemethanol, 4-ethenyl-, acetate;<em>p</em>-Vinylbenzyl acetate;<em>p</em>-(Acetoxymethyl)styrene;4-(Acetoxymethyl)styrene;4-Vinylbenzyl acetate;(4-Ethenylphenyl)methyl acetate",
    "duplicated_cas_no": "",
    "SMILES": "C(OC(C)=O)C1=CC=C(C=C)C=C1",
    "meta_data": {
        "InChI": "InChI=1S/C11H12O2/c1-3-10-4-6-11(7-5-10)8-13-9(2)12/h3-7H,1,8H2,2H3",
        "InChIKey": null,
        "Canonical SMILES": "O=C(OCC1=CC=C(C=C)C=C1)C",
        "Molecular Formula": "C<sub>11</sub>H<sub>12</sub>O<sub>2</sub>",
        "Molecular Mass": "176.21",
        "Boiling Point": "136-139 °C @ Press: 15 Torr",
        "Density": "1.051 g/cm³ @ Temp: 25 °C"
    }
}