{
    "cas_no": "64195-85-3",
    "key_name": "Ethyl 5-methyl-2,4-dioxohexanoate",
    "cn_name": "2,4-二氧代-5-甲基-己酸乙酯;",
    "alternate_name": "Hexanoic acid, 5-methyl-2,4-dioxo-, ethyl ester;Ethyl 5-methyl-2,4-dioxohexanoate;Ethyl isobutyrylpyruvate;5-Methyl-2,4-dioxohexanoic acid ethyl ester;Ethyl 2,4-dioxo-5-methylhexanoate",
    "duplicated_cas_no": "",
    "SMILES": "C(CC(C(C)C)=O)(C(OCC)=O)=O",
    "meta_data": {
        "InChI": "InChI=1S/C9H14O4/c1-4-13-9(12)8(11)5-7(10)6(2)3/h6H,4-5H2,1-3H3",
        "InChIKey": null,
        "Canonical SMILES": "O=C(OCC)C(=O)CC(=O)C(C)C",
        "Molecular Formula": "C<sub>9</sub>H<sub>14</sub>O<sub>4</sub>",
        "Molecular Mass": "186.21",
        "Boiling Point": "113-116 °C @ Press: 5 Torr"
    }
}