{
    "cas_no": "871362-31-1",
    "key_name": "2-Chloro-4-[2-[2,5-dimethyl-1-[4-(trifluoromethoxy)phenyl]-1<em>H</em>-imidazol-4-yl]ethynyl]pyridine",
    "cn_name": null,
    "alternate_name": "Pyridine, 2-chloro-4-[2-[2,5-dimethyl-1-[4-(trifluoromethoxy)phenyl]-1<em>H</em>-imidazol-4-yl]ethynyl]-;Pyridine, 2-chloro-4-[[2,5-dimethyl-1-[4-(trifluoromethoxy)phenyl]-1<em>H</em>-imidazol-4-yl]ethynyl]-;2-Chloro-4-[2-[2,5-dimethyl-1-[4-(trifluoromethoxy)phenyl]-1<em>H</em>-imidazol-4-yl]ethynyl]pyridine;2-Chloro-4-[2-[2,5-dimethyl-1-[4-(trifluoromethoxy)phenyl]imidazol-4-yl]ethynyl]pyridine",
    "duplicated_cas_no": "",
    "SMILES": "CC=1N(C(C)=NC1C#CC=2C=C(Cl)N=CC2)C3=CC=C(OC(F)(F)F)C=C3",
    "meta_data": {
        "InChI": "InChI=1S/C19H13ClF3N3O/c1-12-17(8-3-14-9-10-24-18(20)11-14)25-13(2)26(12)15-4-6-16(7-5-15)27-19(21,22)23/h4-7,9-11H,1-2H3",
        "InChIKey": null,
        "Canonical SMILES": "FC(F)(F)OC1=CC=C(C=C1)N2C(=NC(C#CC=3C=CN=C(Cl)C3)=C2C)C",
        "Molecular Formula": "C<sub>19</sub>H<sub>13</sub>ClF<sub>3</sub>N<sub>3</sub>O",
        "Molecular Mass": "391.77",
        "Melting Point": "119-120 °C"
    }
}