{
    "cas_no": "5588-84-1",
    "key_name": "Vanadyl triisopropoxide",
    "cn_name": "三异丙醇氧钒;三异丙醇氧钒(V);",
    "alternate_name": "Vanadium, oxotris(2-propanolato)-, (<em>T</em>-4)-;Vanadic acid (H<sub>3</sub>VO<sub>4</sub>), triisopropyl ester;Isopropyl vanadate(V);(<em>T</em>-4)-Oxotris(2-propanolato)vanadium;Triisopropyl orthovanadate;Isopropyl orthovanadate;(Triisopropoxy)oxovanadium;Vanadyl triisopropoxide;Vanadyl isopropylate;Vanadium triisopropoxide oxide;Tris(isopropoxo)oxovanadium;Vanadium oxide triisopropoxide;Triisopropoxyvanadium oxide;Tri(isopropanolato)oxovanadium;Triisopropyl vanadate;Tris(isopropanolato)oxo vanadium;Vanadium(V) tris(isopropoxide) oxide;Oxovanadium triisopropoxide;Vanadium(V) oxoisopropoxide;Vanadium(V) oxytriisopropoxide;Oxovanadium(V) triisopropoxide;Vanadium oxytriisopropoxide;Vanadyloxytriisopropoxide",
    "duplicated_cas_no": "863098-64-0",
    "SMILES": "[V](OC(C)C)(OC(C)C)(OC(C)C)=O",
    "meta_data": {
        "InChI": "InChI=1S/3C3H7O.O.V/c3*1-3(2)4;;/h3*3H,1-2H3;;/q3*-1;;+3",
        "InChIKey": null,
        "Canonical SMILES": "O=[V](OC(C)C)(OC(C)C)OC(C)C",
        "Molecular Formula": "C<sub>9</sub>H<sub>21</sub>O<sub>4</sub>V",
        "Molecular Mass": "",
        "Boiling Point": "80-82 °C @ Press: 2 Torr",
        "Melting Point": "-14--11 °C",
        "Density": "1.029 g/cm³"
    }
}