{
    "cas_no": "12427-38-2",
    "key_name": "Maneb",
    "cn_name": null,
    "alternate_name": "Manganese, [<em>N</em>-[2-[(dithiocarboxy)amino]ethyl]carbamodithioato(2-)-κ<em>S</em>,κ<em>S</em>′]-;Manganese, [ethylenebis[dithiocarbamato]]-;Manganese, [[1,2-ethanediylbis[carbamodithioato]](2-)]-;Manganese, [[2-[(dithiocarboxy)amino]ethyl]carbamodithioato(2-)-κ<em>S</em>,κ<em>S</em>′]-;Carbamodithioic acid, 1,2-ethanediylbis-, manganese complex;[<em>N</em>-[2-[(Dithiocarboxy)amino]ethyl]carbamodithioato(2-)-κ<em>S</em>,κ<em>S</em>′]manganese;Dithane M 22;Maneb;Manzate;F 10;Manzate D;Polyram M;Nereb;Manesan;Trimangol;Carbamodithioic acid, 1,2-ethanediylbis-, manganese(2+) salt (1:1);1,2-Ethylenediylbis(carbamodithioato)manganese;Rhodianebe;Trimangol 80;AAmangan;F 10 (pesticide);Ethylenebis[dithiocarbamic acid] manganous salt;Manganous ethylenebis[dithiocarbamate];Maneb 80;Nespor;Plantifog 160M;Manex;Agrox flowable;Tritogol M;Agrox N-M;Manebgan;NM Drill Box;ZZ-Maneb Col;Graneor;Saneb M 22;MeSH ID: D008344",
    "duplicated_cas_no": "133317-06-3;301-03-1;11004-49-2;12125-33-6;20316-06-7;28355-56-8;1135443-02-5",
    "SMILES": "N(CCNC(=S)[S-])C=1[S-][Mn+2][S]1",
    "meta_data": {
        "InChI": "InChI=1S/C4H8N2S4.Mn/c7-3(8)5-1-2-6-4(9)10;/h1-2H2,(H2,5,7,8)(H2,6,9,10);/q;+2/p-2",
        "InChIKey": null,
        "Canonical SMILES": "S=C([S-])NCCNC1=[S][Mn+2][S-]1",
        "Molecular Formula": "C<sub>4</sub>H<sub>6</sub>MnN<sub>2</sub>S<sub>4</sub>",
        "Molecular Mass": "",
        "Melting Point": "192-204 °C (decomp)",
        "Density": "1.92 g/cm³ @ Temp: 25 °C"
    }
}