{
    "cas_no": "189-55-9",
    "key_name": "Dibenzo[<em>a</em>,<em>i</em>]pyrene",
    "cn_name": null,
    "alternate_name": "Benzo[<em>rst</em>]pentaphene;Benzo[<em>rst</em>]pentacene;Dibenzo[<em>a</em>,<em>i</em>]pyrene;3,4:9,10-Dibenzopyrene;Dibenzo[<em>b</em>,<em>h</em>]pyrene;1,2:7,8-Dibenzpyrene;NSC 87521",
    "duplicated_cas_no": "112307-73-0",
    "SMILES": "C12=C3C=4C=5C(C=C3C=CC1=CC=6C(C2=CC4)=CC=CC6)=CC=CC5",
    "meta_data": {
        "InChI": "InChI=1S/C24H14/c1-3-7-19-15(5-1)13-17-9-10-18-14-16-6-2-4-8-20(16)22-12-11-21(19)23(17)24(18)22/h1-14H",
        "InChIKey": null,
        "Canonical SMILES": "C=1C=CC2=C(C1)C=C3C=CC4=CC=5C=CC=CC5C=6C=CC2=C3C46",
        "Molecular Formula": "C<sub>24</sub>H<sub>14</sub>",
        "Molecular Mass": "302.37",
        "Boiling Point": "275 °C @ Press: 0.05 Torr",
        "Melting Point": "280 °C"
    }
}