{
    "cas_no": "87269-97-4",
    "key_name": "Ramiprilat",
    "cn_name": "雷米普利;(2S,3aS,6aS)-1-((S)-N-((S)-1-羧基-3-苯基丙基)丙氨酰)四氢环戊并[b]吡咯-2-羧酸;",
    "alternate_name": "Cyclopenta[<em>b</em>]pyrrole-2-carboxylic acid, 1-[(2<em>S</em>)-2-[[(1<em>S</em>)-1-carboxy-3-phenylpropyl]amino]-1-oxopropyl]octahydro-, (2<em>S</em>,3a<em>S</em>,6a<em>S</em>)-;Cyclopenta[<em>b</em>]pyrrole-2-carboxylic acid, 1-[2-[(1-carboxy-3-phenylpropyl)amino]-1-oxopropyl]octahydro-, [2<em>S</em>-[1[<em>R</em>*(<em>R</em>*)],2α,3aβ,6aβ]]-;(2<em>S</em>,3a<em>S</em>,6a<em>S</em>)-1-[(2<em>S</em>)-2-[[(1<em>S</em>)-1-Carboxy-3-phenylpropyl]amino]-1-oxopropyl]octahydrocyclopenta[<em>b</em>]pyrrole-2-carboxylic acid;HOE 498 diacid;Ramipril diacid;Ramiprilat;Ramiprilate",
    "duplicated_cas_no": "",
    "SMILES": "C([C@@H](N[C@@H](CCC1=CC=CC=C1)C(O)=O)C)(=O)N2[C@@]3([C@](C[C@H]2C(O)=O)(CCC3)[H])[H]",
    "meta_data": {
        "InChI": "InChI=1S/C21H28N2O5/c1-13(22-16(20(25)26)11-10-14-6-3-2-4-7-14)19(24)23-17-9-5-8-15(17)12-18(23)21(27)28/h2-4,6-7,13,15-18,22H,5,8-12H2,1H3,(H,25,26)(H,27,28)/t13-,15-,16-,17-,18-/m0/s1",
        "InChIKey": null,
        "Canonical SMILES": "O=C(O)C(NC(C(=O)N1C(C(=O)O)CC2CCCC12)C)CCC=3C=CC=CC3",
        "Molecular Formula": "C<sub>21</sub>H<sub>28</sub>N<sub>2</sub>O<sub>5</sub>",
        "Molecular Mass": "388.46",
        "Melting Point": "109 °C"
    }
}