{
    "cas_no": "20859-10-3",
    "key_name": "(3<em>E</em>)-6-Methyl-3-hepten-2-one",
    "cn_name": null,
    "alternate_name": "3-Hepten-2-one, 6-methyl-, (3<em>E</em>)-;3-Hepten-2-one, 6-methyl-, (<em>E</em>)-;(3<em>E</em>)-6-Methyl-3-hepten-2-one;(3<em>E</em>)-6-Methylhept-3-en-2-one;(<em>E</em>)-6-Methylhept-3-en-2-one",
    "duplicated_cas_no": "",
    "SMILES": "C(\\CC(C)C)=C/C(C)=O",
    "meta_data": {
        "InChI": "InChI=1S/C8H14O/c1-7(2)5-4-6-8(3)9/h4,6-7H,5H2,1-3H3/b6-4+",
        "InChIKey": null,
        "Canonical SMILES": "O=C(C=CCC(C)C)C",
        "Molecular Formula": "C<sub>8</sub>H<sub>14</sub>O",
        "Molecular Mass": "126.20",
        "Boiling Point": "69-70 °C @ Press: 18 Torr",
        "Density": "0.8450 g/cm³ @ Temp: 13 °C"
    }
}