{
    "cas_no": "6164-47-2",
    "key_name": "Bis[1,3]benzodioxolo[4,5-<em>c</em>:5′,6′-<em>g</em>]azecin-13(5<em>H</em>)-one, 4,6,7,14-tetrahydro-5-methyl-, hydrochloride (1:1)",
    "cn_name": null,
    "alternate_name": "Bis[1,3]benzodioxolo[4,5-<em>c</em>:5′,6′-<em>g</em>]azecin-13(5<em>H</em>)-one, 4,6,7,14-tetrahydro-5-methyl-, hydrochloride (1:1);7,13a-Secoberbin-13a-one, 7-methyl-2,3:9,10-bis(methylenedioxy)-, hydrochloride;Bis[1,3]benzodioxolo[4,5-<em>c</em>:5′,6′-<em>g</em>]azecin-13(5<em>H</em>)-one, 4,6,7,14-tetrahydro-5-methyl-, hydrochloride;Protopine hydrochloride",
    "duplicated_cas_no": "",
    "SMILES": "CN1CC=2C3=C(C=CC2CC(=O)C=4C(CC1)=CC5=C(C4)OCO5)OCO3.Cl",
    "meta_data": {
        "InChI": "InChI=1S/C20H19NO5.ClH/c1-21-5-4-13-7-18-19(25-10-24-18)8-14(13)16(22)6-12-2-3-17-20(15(12)9-21)26-11-23-17;/h2-3,7-8H,4-6,9-11H2,1H3;1H",
        "InChIKey": null,
        "Canonical SMILES": "Cl.O=C1C2=CC=3OCOC3C=C2CCN(C)CC4=C5OCOC5=CC=C4C1",
        "Molecular Formula": "C<sub>20</sub>H<sub>19</sub>NO<sub>5</sub>.ClH",
        "Molecular Mass": "",
        "Melting Point": "274 °C"
    }
}