{
    "cas_no": "462-08-8",
    "key_name": "3-Aminopyridine",
    "cn_name": "3-氨基吡啶;",
    "alternate_name": "3-Pyridinamine;Pyridine, 3-amino-;3-Aminopyridine;β-Aminopyridine;3-Pyridylamine;<em>m</em>-Aminopyridine;3-Pyridinylamine;NSC 15040",
    "duplicated_cas_no": "2376813-18-0",
    "SMILES": "NC=1C=CC=NC1",
    "meta_data": {
        "InChI": "InChI=1S/C5H6N2/c6-5-2-1-3-7-4-5/h1-4H,6H2",
        "InChIKey": null,
        "Canonical SMILES": "N=1C=CC=C(N)C1",
        "Molecular Formula": "C<sub>5</sub>H<sub>6</sub>N<sub>2</sub>",
        "Molecular Mass": "94.11",
        "Boiling Point": "252 °C",
        "Melting Point": "64.5 °C"
    }
}