{
    "cas_no": "1123-25-7",
    "key_name": "1-Methylcyclohexanecarboxylic acid",
    "cn_name": null,
    "alternate_name": "Cyclohexanecarboxylic acid, 1-methyl-;1-Methylcyclohexanecarboxylic acid;1-Methyl-1-cyclohexanecarboxylic acid;1-Methylcyclohexylcarboxylic acid;1-Methylcyclohexan-1-carboxylic acid",
    "duplicated_cas_no": "",
    "SMILES": "C(O)(=O)C1(C)CCCCC1",
    "meta_data": {
        "InChI": "InChI=1S/C8H14O2/c1-8(7(9)10)5-3-2-4-6-8/h2-6H2,1H3,(H,9,10)",
        "InChIKey": null,
        "Canonical SMILES": "O=C(O)C1(C)CCCCC1",
        "Molecular Formula": "C<sub>8</sub>H<sub>14</sub>O<sub>2</sub>",
        "Molecular Mass": "142.20",
        "Boiling Point": "127-128 °C @ Press: 13 Torr",
        "Melting Point": "39 °C",
        "Density": "1.0220 g/cm³ @ Temp: 20 °C"
    }
}