{
    "cas_no": "13389-42-9",
    "key_name": "<em>trans</em>-2-Octene",
    "cn_name": null,
    "alternate_name": "2-Octene, (2<em>E</em>)-;2-Octene, (<em>E</em>)-;2-Octene, <em>trans</em>-;(2<em>E</em>)-2-Octene;<em>trans</em>-2-Octene;(<em>E</em>)-2-Octene;β-<em>trans</em>-Octene;NSC 97522",
    "duplicated_cas_no": "",
    "SMILES": "C(C/C=C/C)CCC",
    "meta_data": {
        "InChI": "InChI=1S/C8H16/c1-3-5-7-8-6-4-2/h3,5H,4,6-8H2,1-2H3/b5-3+",
        "InChIKey": null,
        "Canonical SMILES": "C(=CCCCCC)C",
        "Molecular Formula": "C<sub>8</sub>H<sub>16</sub>",
        "Molecular Mass": "112.21",
        "Boiling Point": "125 °C",
        "Melting Point": "-87.7 °C",
        "Density": "0.741 g/cm³ @ Temp: 0 °C"
    }
}