{
    "cas_no": "58786-99-5",
    "key_name": "Butorphanol tartrate",
    "cn_name": null,
    "alternate_name": "Morphinan-3,14-diol, 17-(cyclobutylmethyl)-, (2<em>S</em>,3<em>S</em>)-2,3-dihydroxybutanedioate (1:1);Morphinan-3,14-diol, 17-(cyclobutylmethyl)-, [<em>S</em>-(<em>R</em>*,<em>R</em>*)]-2,3-dihydroxybutanedioate (1:1) (salt);Morphinan-3,14-diol, 17-(cyclobutylmethyl)-, (2<em>S</em>,3<em>S</em>)-2,3-dihydroxybutanedioate (1:1) (salt);Butorphanol tartrate;Stadol;<em>l</em>-Butorphanol tartrate;NIH 10275;Moradol;Levo-BC 2627 tartrate;Torate;Torbugesic;Butorphic",
    "duplicated_cas_no": "54244-71-2;54965-23-0;61005-22-9",
    "SMILES": "O[C@@]12[C@@]3(C=4C(C[C@]1(N(CC5CCC5)CC3)[H])=CC=C(O)C4)CCCC2.[C@H]([C@@H](C(O)=O)O)(C(O)=O)O",
    "meta_data": {
        "InChI": "InChI=1S/C21H29NO2.C4H6O6/c23-17-7-6-16-12-19-21(24)9-2-1-8-20(21,18(16)13-17)10-11-22(19)14-15-4-3-5-15;5-1(3(7)8)2(6)4(9)10/h6-7,13,15,19,23-24H,1-5,8-12,14H2;1-2,5-6H,(H,7,8)(H,9,10)/t19-,20+,21-;1-,2-/m10/s1",
        "InChIKey": null,
        "Canonical SMILES": "O=C(O)C(O)C(O)C(=O)O.OC1=CC=C2C(=C1)C34CCN(CC5CCC5)C(C2)C4(O)CCCC3",
        "Molecular Formula": "C<sub>21</sub>H<sub>29</sub>NO<sub>2</sub>.C<sub>4</sub>H<sub>6</sub>O<sub>6</sub>",
        "Molecular Mass": "",
        "Melting Point": "217-219 °C"
    }
}