{
    "cas_no": "87-88-7",
    "key_name": "Chloranilic acid",
    "cn_name": "氯醌酸;2,5-二羟基-3,6-二氯苯醌;",
    "alternate_name": "2,5-Cyclohexadiene-1,4-dione, 2,5-dichloro-3,6-dihydroxy-;<em>p</em>-Benzoquinone, 2,5-dichloro-3,6-dihydroxy-;Quinone, 2,5-dichloro-3,6-dihydroxy-;2,5-Dichloro-3,6-dihydroxy-2,5-cyclohexadiene-1,4-dione;Chloranilic acid;2,5-Dichloro-3,6-dihydroxy-<em>p</em>-benzoquinone;2,5-Dichloro-3,6-dihydroxy-1,4-quinone;2,5-Dihydroxy-3,6-dichloro-1,4-benzoquinone;2,5-Dihydroxy-3,6-dichlorobenzoquinone;3,6-Dichloro-2,5-dihydroxy-1,4-benzoquinone;2,5-Dichloro-3,6-dihydroxy-1,4-benzoquinone;<em>p</em>-Chloranilic acid;NSC 6108;NSC 97383;3,6-Dichloro-2,5-dihydroxybenzoquinone",
    "duplicated_cas_no": "260353-37-5",
    "SMILES": "ClC=1C(=O)C(O)=C(Cl)C(=O)C1O",
    "meta_data": {
        "InChI": "InChI=1S/C6H2Cl2O4/c7-1-3(9)5(11)2(8)6(12)4(1)10/h9,12H",
        "InChIKey": null,
        "Canonical SMILES": "O=C1C(Cl)=C(O)C(=O)C(Cl)=C1O",
        "Molecular Formula": "C<sub>6</sub>H<sub>2</sub>Cl<sub>2</sub>O<sub>4</sub>",
        "Molecular Mass": "208.98",
        "Melting Point": "283.5 °C",
        "Density": "1.957 g/cm³"
    }
}