{
    "cas_no": "6358-53-8",
    "key_name": "C.I. Solvent Red 80",
    "cn_name": "橘红2号;C.I.可溶性红80号;柑桔红2;",
    "alternate_name": "2-Naphthalenol, 1-[2-(2,5-dimethoxyphenyl)diazenyl]-;C.I. Solvent Red 80;2-Naphthalenol, 1-[(2,5-dimethoxyphenyl)azo]-;2-Naphthol, 1-(2,5-dimethoxyphenylazo)-;1-[2-(2,5-Dimethoxyphenyl)diazenyl]-2-naphthalenol;C.I. 12156;Citrus Red No. 2;1-(2,5-Dimethoxyphenylazo)-2-naphthol;Citrus Red 2;1-[1-(2,5-Dimethoxyphenyl)azo]-2-naphthol;2,5-Dimethoxybenzeneazo-β-naphthol;E 121;Solvent Red 80;1-((2,5-Dimethoxyphenyl)diazenyl)naphthalen-2-ol",
    "duplicated_cas_no": "",
    "SMILES": "N(=NC1=C(OC)C=CC(OC)=C1)C=2C3=C(C=CC2O)C=CC=C3",
    "meta_data": {
        "InChI": "InChI=1S/C18H16N2O3/c1-22-13-8-10-17(23-2)15(11-13)19-20-18-14-6-4-3-5-12(14)7-9-16(18)21/h3-11,21H,1-2H3",
        "InChIKey": null,
        "Canonical SMILES": "OC=1C=CC=2C=CC=CC2C1N=NC3=CC(OC)=CC=C3OC",
        "Molecular Formula": "C<sub>18</sub>H<sub>16</sub>N<sub>2</sub>O<sub>3</sub>",
        "Molecular Mass": "308.33",
        "Melting Point": "155-157 °C"
    }
}