{
    "cas_no": "1123172-88-2",
    "key_name": "3,5-Difluoro-4-nitrobenzonitrile",
    "cn_name": null,
    "alternate_name": "Benzonitrile, 3,5-difluoro-4-nitro-;3,5-Difluoro-4-nitrobenzonitrile",
    "duplicated_cas_no": "",
    "SMILES": "N(=O)(=O)C1=C(F)C=C(C#N)C=C1F",
    "meta_data": {
        "InChI": "InChI=1S/C7H2F2N2O2/c8-5-1-4(3-10)2-6(9)7(5)11(12)13/h1-2H",
        "InChIKey": null,
        "Canonical SMILES": "N#CC1=CC(F)=C(C(F)=C1)N(=O)=O",
        "Molecular Formula": "C<sub>7</sub>H<sub>2</sub>F<sub>2</sub>N<sub>2</sub>O<sub>2</sub>",
        "Molecular Mass": "184.10",
        "Melting Point": "88-89 °C"
    }
}