{
    "cas_no": "2958-87-4",
    "key_name": "2,3,6-Trichloroquinoxaline",
    "cn_name": "2,3,6-三氯喹喔啉;2,3,6-三氯喹喔啉;",
    "alternate_name": "Quinoxaline, 2,3,6-trichloro-;2,3,6-Trichloroquinoxaline;NSC 203052",
    "duplicated_cas_no": "",
    "SMILES": "ClC1=NC2=C(N=C1Cl)C=CC(Cl)=C2",
    "meta_data": {
        "InChI": "InChI=1S/C8H3Cl3N2/c9-4-1-2-5-6(3-4)13-8(11)7(10)12-5/h1-3H",
        "InChIKey": null,
        "Canonical SMILES": "ClC=1C=CC2=NC(Cl)=C(Cl)N=C2C1",
        "Molecular Formula": "C<sub>8</sub>H<sub>3</sub>Cl<sub>3</sub>N<sub>2</sub>",
        "Molecular Mass": "233.48",
        "Melting Point": "143-144 °C"
    }
}