{
    "cas_no": "107-84-6",
    "key_name": "1-Chloro-3-methylbutane",
    "cn_name": "氯代异戊烷;1-氯-3-甲基丁烷;异戊基氯;",
    "alternate_name": "Butane, 1-chloro-3-methyl-;1-Chloro-3-methylbutane;4-Chloro-2-methylbutane;Isoamyl chloride;Isopentyl chloride;1-Chloro-3,3-dimethylpropane;3-Methylbutyl chloride;3-Methyl-1-chlorobutane;NSC 6528",
    "duplicated_cas_no": "",
    "SMILES": "C(C(C)C)CCl",
    "meta_data": {
        "InChI": "InChI=1S/C5H11Cl/c1-5(2)3-4-6/h5H,3-4H2,1-2H3",
        "InChIKey": null,
        "Canonical SMILES": "ClCCC(C)C",
        "Molecular Formula": "C<sub>5</sub>H<sub>11</sub>Cl",
        "Molecular Mass": "106.59",
        "Boiling Point": "98.9 °C",
        "Melting Point": "-104.4 °C",
        "Density": "0.8692 g/cm³ @ Temp: 15 °C"
    }
}