{
    "cas_no": "22924-15-8",
    "key_name": "3-Ethoxybenzaldehyde",
    "cn_name": "3-乙氧基苯甲醛;",
    "alternate_name": "Benzaldehyde, 3-ethoxy-;Benzaldehyde, <em>m</em>-ethoxy-;3-Ethoxybenzaldehyde;<em>m</em>-Ethoxybenzaldehyde",
    "duplicated_cas_no": "",
    "SMILES": "O(CC)C1=CC(C=O)=CC=C1",
    "meta_data": {
        "InChI": "InChI=1S/C9H10O2/c1-2-11-9-5-3-4-8(6-9)7-10/h3-7H,2H2,1H3",
        "InChIKey": null,
        "Canonical SMILES": "O=CC=1C=CC=C(OCC)C1",
        "Molecular Formula": "C<sub>9</sub>H<sub>10</sub>O<sub>2</sub>",
        "Molecular Mass": "150.17",
        "Boiling Point": "245.5 °C",
        "Melting Point": "177 °C"
    }
}