{
    "cas_no": "81-15-2",
    "key_name": "Musk Xylene",
    "cn_name": "二甲苯麝香;2,4,6-三硝基-1,3-二甲基-5-叔丁基苯;",
    "alternate_name": "Benzene, 1-(1,1-dimethylethyl)-3,5-dimethyl-2,4,6-trinitro-;<em>m</em>-Xylene, 5-<em>tert</em>-butyl-2,4,6-trinitro-;1-(1,1-Dimethylethyl)-3,5-dimethyl-2,4,6-trinitrobenzene;1-<em>tert</em>-Butyl-3,5-dimethyl-2,4,6-trinitrobenzene;5-<em>tert</em>-Butyl-2,4,6-trinitro-<em>m</em>-xylene;Musk xylol;2,4,6-Trinitro-5-<em>tert</em>-butyl-<em>m</em>-xylene;Xylene musk;2,4,6-Trinitro-1,3-dimethyl-5-<em>tert</em>-butylbenzene;Musk Xylene;2,4,6-Trinitro-3,5-dimethyl-<em>tert</em>-butylbenzene;Moschus xylol;NSC 59844",
    "duplicated_cas_no": "",
    "SMILES": "C(C)(C)(C)C1=C(N(=O)=O)C(C)=C(N(=O)=O)C(C)=C1N(=O)=O",
    "meta_data": {
        "InChI": "InChI=1S/C12H15N3O6/c1-6-9(13(16)17)7(2)11(15(20)21)8(12(3,4)5)10(6)14(18)19/h1-5H3",
        "InChIKey": null,
        "Canonical SMILES": "O=N(=O)C=1C(=C(C(=C(C1C)N(=O)=O)C(C)(C)C)N(=O)=O)C",
        "Molecular Formula": "C<sub>12</sub>H<sub>15</sub>N<sub>3</sub>O<sub>6</sub>",
        "Molecular Mass": "297.26",
        "Boiling Point": "392.3 °C",
        "Melting Point": "110 °C"
    }
}