{
    "cas_no": "2523-37-7",
    "key_name": "9-Methylfluorene",
    "cn_name": "9-甲基芴;9-甲基芴;",
    "alternate_name": "9<em>H</em>-Fluorene, 9-methyl-;Fluorene, 9-methyl-;9-Methyl-9<em>H</em>-fluorene;9-Methylfluorene;NSC 10161",
    "duplicated_cas_no": "",
    "SMILES": "CC1C=2C(C=3C1=CC=CC3)=CC=CC2",
    "meta_data": {
        "InChI": "InChI=1S/C14H12/c1-10-11-6-2-4-8-13(11)14-9-5-3-7-12(10)14/h2-10H,1H3",
        "InChIKey": null,
        "Canonical SMILES": "C=1C=CC2=C(C1)C=3C=CC=CC3C2C",
        "Molecular Formula": "C<sub>14</sub>H<sub>12</sub>",
        "Molecular Mass": "180.25",
        "Boiling Point": "154-156 °C",
        "Melting Point": "46.5 °C"
    }
}