{
    "cas_no": "562-49-2",
    "key_name": "3,3-Dimethylpentane",
    "cn_name": "3,3-二甲基戊烷;2，2-二乙基丙烷；二乙基二甲基甲烷;",
    "alternate_name": "Pentane, 3,3-dimethyl-;3,3-Dimethylpentane;NSC 74150",
    "duplicated_cas_no": "",
    "SMILES": "C(CC)(CC)(C)C",
    "meta_data": {
        "InChI": "InChI=1S/C7H16/c1-5-7(3,4)6-2/h5-6H2,1-4H3",
        "InChIKey": null,
        "Canonical SMILES": "CCC(C)(C)CC",
        "Molecular Formula": "C<sub>7</sub>H<sub>16</sub>",
        "Molecular Mass": "100.20",
        "Boiling Point": "86 °C",
        "Melting Point": "-134.9 °C",
        "Density": "0.6952 g/cm³ @ Temp: 20 °C"
    }
}