{
    "cas_no": "2016-42-4",
    "key_name": "Tetradecylamine",
    "cn_name": "十四胺;肉豆蔻胺;",
    "alternate_name": "1-Tetradecanamine;Tetradecylamine;Myristylamine;<em>n</em>-Tetradecylamine;Tetradecanamine;1-Aminotetradecane;Armeen 14;1-Tetradecylamine;Monotetradecylamine;Alamine 5D;Farmin 40D;Nissan Amine MB;NSC 66437;Armeen 14D;Fentamine A 14",
    "duplicated_cas_no": "258340-53-3",
    "SMILES": "C(CCCCCCC)CCCCCCN",
    "meta_data": {
        "InChI": "InChI=1S/C14H31N/c1-2-3-4-5-6-7-8-9-10-11-12-13-14-15/h2-15H2,1H3",
        "InChIKey": null,
        "Canonical SMILES": "NCCCCCCCCCCCCCC",
        "Molecular Formula": "C<sub>14</sub>H<sub>31</sub>N",
        "Molecular Mass": "213.40",
        "Boiling Point": "291.2 °C",
        "Melting Point": "83.1 °C"
    }
}