{
    "cas_no": "95-63-6",
    "key_name": "1,2,4-Trimethylbenzene",
    "cn_name": null,
    "alternate_name": "Benzene, 1,2,4-trimethyl-;1,2,4-Trimethylbenzene;ψ-Cumene;Pseudocumene;Pseudocumol;1,3,4-Trimethylbenzene;1,2,5-Trimethylbenzene;Methyl-<em>p</em>-xylene;NSC 65600;<em>pseudo</em>-Cumene;3,4-Dimethyltoluene",
    "duplicated_cas_no": "",
    "SMILES": "CC1=C(C)C=CC(C)=C1",
    "meta_data": {
        "InChI": "InChI=1S/C9H12/c1-7-4-5-8(2)9(3)6-7/h4-6H,1-3H3",
        "InChIKey": null,
        "Canonical SMILES": "C=1C=C(C(=CC1C)C)C",
        "Molecular Formula": "C<sub>9</sub>H<sub>12</sub>",
        "Molecular Mass": "120.19",
        "Boiling Point": "168.89 °C",
        "Melting Point": "-43.8 °C",
        "Density": "0.8761 g/cm³ @ Temp: 20 °C"
    }
}