{
    "cas_no": "7568-92-5",
    "key_name": "Phenylglycinol",
    "cn_name": "DL-苯甘氨醇;",
    "alternate_name": "Benzeneethanol, β-amino-;Phenethyl alcohol, β-amino-;β-Aminobenzeneethanol;2-Amino-2-phenylethanol;2-Phenyl-2-aminoethanol;Phenylglycinol;2-Hydroxy-1-phenylethylamine;β-Aminophenethyl alcohol;α-(Hydroxymethyl)benzylamine;2-Phenylglycinol;(±)-2-Amino-2-phenylethanol;(±)-Phenylglycinol;<span class=\"text-smallcaps\">DL</span>-α-Phenylglycinol;(<em>RS</em>)-Phenylglycinol;2-Hydroxy-1-phenylethanamine;2-Amino-2-phenylethan-1-ol",
    "duplicated_cas_no": "71006-16-1",
    "SMILES": "C(CO)(N)C1=CC=CC=C1",
    "meta_data": {
        "InChI": "InChI=1S/C8H11NO/c9-8(6-10)7-4-2-1-3-5-7/h1-5,8,10H,6,9H2",
        "InChIKey": null,
        "Canonical SMILES": "OCC(N)C=1C=CC=CC1",
        "Molecular Formula": "C<sub>8</sub>H<sub>11</sub>NO",
        "Molecular Mass": "137.18",
        "Boiling Point": "115-126 °C @ Press: 3 Torr",
        "Melting Point": "47-49 °C"
    }
}