{
    "cas_no": "7440-63-3",
    "key_name": "Xenon",
    "cn_name": "氙气;氙;",
    "alternate_name": "Xenon;Xenon atom;MeSH ID: D014978;NBXT 001 TBD",
    "duplicated_cas_no": "",
    "SMILES": "[Xe]",
    "meta_data": {
        "InChI": "InChI=1S/Xe",
        "InChIKey": null,
        "Canonical SMILES": "[Xe]",
        "Molecular Formula": "Xe",
        "Molecular Mass": "",
        "Boiling Point": "-108 °C",
        "Melting Point": "-112 °C",
        "Density": "&gt;9.5 g/cm³"
    }
}