{
    "cas_no": "4176-97-0",
    "key_name": "Deoxyandrographolide",
    "cn_name": null,
    "alternate_name": "2(5<em>H</em>)-Furanone, 3-[2-[(1<em>R</em>,4a<em>S</em>,5<em>R</em>,6<em>R</em>,8a<em>S</em>)-decahydro-6-hydroxy-5-(hydroxymethyl)-5,8a-dimethyl-2-methylene-1-naphthalenyl]ethyl]-;5β,9β<span class=\"text-smallcaps\">H</span>,10α-Labda-8(20),13-dien-16-oic acid, 3α,15,18-trihydroxy-, γ-lactone;2(5<em>H</em>)-Furanone, 3-[2-[decahydro-6-hydroxy-5-(hydroxymethyl)-5,8a-dimethyl-2-methylene-1-naphthalenyl]ethyl]-, [1<em>R</em>-(1α,4aβ,5α,6α,8aα)]-;3-[2-[(1<em>R</em>,4a<em>S</em>,5<em>R</em>,6<em>R</em>,8a<em>S</em>)-Decahydro-6-hydroxy-5-(hydroxymethyl)-5,8a-dimethyl-2-methylene-1-naphthalenyl]ethyl]-2(5<em>H</em>)-furanone;Deoxyandrographolide;14-Deoxyandrographolide;NP 011179;AD 04130-4;12,13-Dehydro,14-deoxyandrographolide",
    "duplicated_cas_no": "42895-59-0;871126-71-5;1107661-53-9",
    "SMILES": "C[C@]12[C@@]([C@@](CO)(C)[C@H](O)CC1)(CCC(=C)[C@H]2CCC=3C(=O)OCC3)[H]",
    "meta_data": {
        "InChI": "InChI=1S/C20H30O4/c1-13-4-7-16-19(2,10-8-17(22)20(16,3)12-21)15(13)6-5-14-9-11-24-18(14)23/h9,15-17,21-22H,1,4-8,10-12H2,2-3H3/t15-,16+,17-,19+,20+/m1/s1",
        "InChIKey": null,
        "Canonical SMILES": "O=C1OCC=C1CCC2C(=C)CCC3C(C)(CO)C(O)CCC23C",
        "Molecular Formula": "C<sub>20</sub>H<sub>30</sub>O<sub>4</sub>",
        "Molecular Mass": "334.45",
        "Melting Point": "170-172 °C"
    }
}