{
    "cas_no": "72903-27-6",
    "key_name": "Diethyl 1,4-cyclohexanedicarboxylate",
    "cn_name": null,
    "alternate_name": "1,4-Cyclohexanedicarboxylic acid, 1,4-diethyl ester;1,4-Cyclohexanedicarboxylic acid, diethyl ester;Diethyl 1,4-cyclohexanedicarboxylate;NSC 78975;Fructalate;1,4-Cyclohexane dicarboxylic diethyl ester;Fructalate 943871",
    "duplicated_cas_no": "",
    "SMILES": "C(OCC)(=O)C1CCC(C(OCC)=O)CC1",
    "meta_data": {
        "InChI": "InChI=1S/C12H20O4/c1-3-15-11(13)9-5-7-10(8-6-9)12(14)16-4-2/h9-10H,3-8H2,1-2H3",
        "InChIKey": null,
        "Canonical SMILES": "O=C(OCC)C1CCC(C(=O)OCC)CC1",
        "Molecular Formula": "C<sub>12</sub>H<sub>20</sub>O<sub>4</sub>",
        "Molecular Mass": "228.28",
        "Boiling Point": "108-110 °C @ Press: 1.2 Torr",
        "Density": "1.0521 g/cm³ @ Temp: 20 °C"
    }
}