{
    "cas_no": "1779-48-2",
    "key_name": "Phenylphosphinic acid",
    "cn_name": "苯膦酸;",
    "alternate_name": "Phosphinic acid, <em>P</em>-phenyl-;Phosphinic acid, phenyl-;<em>P</em>-Phenylphosphinic acid;Benzenephosphinic acid;Phenylphosphinic acid;Phenylphosphonous acid;Benzenephosphonous acid;Hydroxyphenylphosphine oxide;NSC 2670",
    "duplicated_cas_no": "",
    "SMILES": "P(=O)(O)C1=CC=CC=C1",
    "meta_data": {
        "InChI": "InChI=1S/C6H7O2P/c7-9(8)6-4-2-1-3-5-6/h1-5,9H,(H,7,8)",
        "InChIKey": null,
        "Canonical SMILES": "O=P(O)C=1C=CC=CC1",
        "Molecular Formula": "C<sub>6</sub>H<sub>7</sub>O<sub>2</sub>P",
        "Molecular Mass": "142.09",
        "Melting Point": "84 °C"
    }
}