{
    "cas_no": "62778-16-9",
    "key_name": "Diethyl <em>P</em>-[(2-methylphenyl)methyl]phosphonate",
    "cn_name": "邻甲基苄基膦酸二乙酯;",
    "alternate_name": "Phosphonic acid, <em>P</em>-[(2-methylphenyl)methyl]-, diethyl ester;Phosphonic acid, [(2-methylphenyl)methyl]-, diethyl ester;Diethyl <em>P</em>-[(2-methylphenyl)methyl]phosphonate;Diethyl 2-methylbenzylphosphonate;1-(Diethoxyphosphorylmethyl)-2-methylbenzene",
    "duplicated_cas_no": "",
    "SMILES": "P(CC1=C(C)C=CC=C1)(OCC)(OCC)=O",
    "meta_data": {
        "InChI": "InChI=1S/C12H19O3P/c1-4-14-16(13,15-5-2)10-12-9-7-6-8-11(12)3/h6-9H,4-5,10H2,1-3H3",
        "InChIKey": null,
        "Canonical SMILES": "O=P(OCC)(OCC)CC=1C=CC=CC1C",
        "Molecular Formula": "C<sub>12</sub>H<sub>19</sub>O<sub>3</sub>P",
        "Molecular Mass": "242.25",
        "Boiling Point": "115 °C @ Press: 3 Torr"
    }
}