{
    "cas_no": "20098-14-0",
    "key_name": "5-Hydroxy-2-adamantanone",
    "cn_name": null,
    "alternate_name": "Tricyclo[3.3.1.1<sup>3,7</sup>]decan-2-one, 5-hydroxy-;2-Adamantanone, 5-hydroxy-;Tricyclo[3.3.1.1<sup>3,7</sup>]decanone, 5-hydroxy-;5-Hydroxytricyclo[3.3.1.1<sup>3,7</sup>]decan-2-one;5-Hydroxy-2-adamantanone;4-Oxo-1-adamantanol;5-Hydroxyadamantanone;1-Hydroxy-4-adamantanone;1-Hydroxy-4-ketoadamantane;Kemantane;Idramantone;Kemantan",
    "duplicated_cas_no": "137012-25-0",
    "SMILES": "OC12CC3C(=O)C(C1)CC(C2)C3",
    "meta_data": {
        "InChI": "InChI=1S/C10H14O2/c11-9-7-1-6-2-8(9)5-10(12,3-6)4-7/h6-8,12H,1-5H2",
        "InChIKey": null,
        "Canonical SMILES": "O=C1C2CC3CC1CC(O)(C2)C3",
        "Molecular Formula": "C<sub>10</sub>H<sub>14</sub>O<sub>2</sub>",
        "Molecular Mass": "166.22",
        "Melting Point": "318 °C"
    }
}