{
    "cas_no": "50428-14-3",
    "key_name": "Dehydronitrosonifedipine",
    "cn_name": null,
    "alternate_name": "3,5-Pyridinedicarboxylic acid, 2,6-dimethyl-4-(2-nitrosophenyl)-, 3,5-dimethyl ester;3,5-Pyridinedicarboxylic acid, 2,6-dimethyl-4-(2-nitrosophenyl)-, dimethyl ester;2,6-Dimethyl-3,5-dicarbomethoxy-4-(2-nitrosophenyl)pyridine;4-(2-Nitrosophenyl)-2,6-dimethyl-3,5-dimethoxycarbonylpyridine;Dehydronitrosonifedipine;Nitrosonifedipine",
    "duplicated_cas_no": "",
    "SMILES": "C(OC)(=O)C=1C(=C(C(OC)=O)C(C)=NC1C)C2=C(N=O)C=CC=C2",
    "meta_data": {
        "InChI": "InChI=1S/C17H16N2O5/c1-9-13(16(20)23-3)15(11-7-5-6-8-12(11)19-22)14(10(2)18-9)17(21)24-4/h5-8H,1-4H3",
        "InChIKey": null,
        "Canonical SMILES": "O=NC=1C=CC=CC1C=2C(C(=O)OC)=C(N=C(C2C(=O)OC)C)C",
        "Molecular Formula": "C<sub>17</sub>H<sub>16</sub>N<sub>2</sub>O<sub>5</sub>",
        "Molecular Mass": "328.32",
        "Melting Point": "93 °C"
    }
}