{
    "cas_no": "3080-30-6",
    "key_name": "Ribofuranose, 1-acetate 2,3,5-tribenzoate",
    "cn_name": null,
    "alternate_name": "β-<span class=\"text-smallcaps\">L</span>-Ribofuranose, 1-acetate 2,3,5-tribenzoate;Ribofuranose, 1-acetate 2,3,5-tribenzoate, β-<span class=\"text-smallcaps\">L</span>-;Ribofuranose, 1-acetate 2,3,5-tribenzoate;NSC 87674;1-<em>O</em>-Acetyl-2,3,5-tri-<em>O</em>-benzoyl-β-<span class=\"text-smallcaps\">L</span>-ribofuranose",
    "duplicated_cas_no": "1236285-63-4",
    "SMILES": "O(C(=O)C1=CC=CC=C1)[C@@H]2[C@H](OC(=O)C3=CC=CC=C3)[C@@H](OC(C)=O)O[C@H]2COC(=O)C4=CC=CC=C4",
    "meta_data": {
        "InChI": "InChI=1S/C28H24O9/c1-18(29)34-28-24(37-27(32)21-15-9-4-10-16-21)23(36-26(31)20-13-7-3-8-14-20)22(35-28)17-33-25(30)19-11-5-2-6-12-19/h2-16,22-24,28H,17H2,1H3/t22-,23-,24-,28-/m0/s1",
        "InChIKey": null,
        "Canonical SMILES": "O=C(OCC1OC(OC(=O)C)C(OC(=O)C=2C=CC=CC2)C1OC(=O)C=3C=CC=CC3)C=4C=CC=CC4",
        "Molecular Formula": "C<sub>28</sub>H<sub>24</sub>O<sub>9</sub>",
        "Molecular Mass": "504.48",
        "Melting Point": "124-125 °C"
    }
}