{
    "cas_no": "71026-66-9",
    "key_name": "<em>tert</em>-Butyl (4-aminophenyl)carbamate",
    "cn_name": null,
    "alternate_name": "Carbamic acid, <em>N</em>-(4-aminophenyl)-, 1,1-dimethylethyl ester;Carbamic acid, (4-aminophenyl)-, 1,1-dimethylethyl ester;<em>O</em>-(1,1-Dimethylethyl) <em>N</em>-(4-aminophenyl)carbamate;<em>tert</em>-Butyl (4-aminophenyl)carbamate;4-(<em>tert</em>-Butoxycarbonylamino)aniline;<em>N</em>-(<em>tert</em>-Butoxycarbonyl)-1,4-phenylenediamine;<em>N</em>-(<em>t</em>-Butoxycarbonyl)-4-aminoaniline;(4-Aminophenyl)carbamic acid <em>tert</em>-butyl ester;(4-Aminophenyl)carbamic acid 1,1-dimethylethyl ester;<em>N</em>-(4-Aminophenyl)carbamic acid 1,1-dimethylethyl ester;<em>tert</em>-Butyl <em>N</em>-(4-anilino)carbamate;4-<em>t</em>-Butoxycarbonylaminoaniline;4-<em>tert</em>-Butoxycarbonylaminophenylamine;1,1-Dimethylethyl (4-aminophenyl)carbamate;<em>N</em>-(<em>tert</em>-Butoxycarbonyl)-<em>p</em>-phenylenediamine;4-Amino-<em>N</em>-<em>tert</em>-butoxycarbonylaniline",
    "duplicated_cas_no": "",
    "SMILES": "N(C(OC(C)(C)C)=O)C1=CC=C(N)C=C1",
    "meta_data": {
        "InChI": "InChI=1S/C11H16N2O2/c1-11(2,3)15-10(14)13-9-6-4-8(12)5-7-9/h4-7H,12H2,1-3H3,(H,13,14)",
        "InChIKey": null,
        "Canonical SMILES": "O=C(OC(C)(C)C)NC1=CC=C(N)C=C1",
        "Molecular Formula": "C<sub>11</sub>H<sub>16</sub>N<sub>2</sub>O<sub>2</sub>",
        "Molecular Mass": "208.26",
        "Melting Point": "112-114 °C"
    }
}