{
    "cas_no": "451-79-6",
    "key_name": "Benzaldehyde, 2-fluoro-, oxime",
    "cn_name": null,
    "alternate_name": "Benzaldehyde, 2-fluoro-, oxime;<em>o</em>-Fluorobenzaldoxime;2-Fluorobenzaldoxime;2-Fluorobenzaldehyde oxime",
    "duplicated_cas_no": "",
    "SMILES": "C(=NO)C1=C(F)C=CC=C1",
    "meta_data": {
        "InChI": "InChI=1S/C7H6FNO/c8-7-4-2-1-3-6(7)5-9-10/h1-5,10H",
        "InChIKey": null,
        "Canonical SMILES": "FC=1C=CC=CC1C=NO",
        "Molecular Formula": "C<sub>7</sub>H<sub>6</sub>FNO",
        "Molecular Mass": "139.13",
        "Melting Point": "64.5-65 °C"
    }
}