{
    "cas_no": "1784-04-9",
    "key_name": "<span class=\"text-smallcaps\">L</span>-Arginine, <em>N</em><sup>2</sup>-benzoyl-, methyl ester, hydrochloride (1:1)",
    "cn_name": "Nα-苯甲酰-L-精氨酸甲酯盐酸盐;Nα-苯甲酰-L-精氨酸甲酯盐酸盐;BAME;",
    "alternate_name": "<span class=\"text-smallcaps\">L</span>-Arginine, <em>N</em><sup>2</sup>-benzoyl-, methyl ester, hydrochloride (1:1);Arginine, <em>N</em><sup>2</sup>-benzoyl-, methyl ester, monohydrochloride, <span class=\"text-smallcaps\">L</span>-;<span class=\"text-smallcaps\">L</span>-Arginine, <em>N</em><sup>2</sup>-benzoyl-, methyl ester, monohydrochloride",
    "duplicated_cas_no": "404357-08-0",
    "SMILES": "C(N[C@@H](CCCNC(=N)N)C(OC)=O)(=O)C1=CC=CC=C1.Cl",
    "meta_data": {
        "InChI": "InChI=1S/C14H20N4O3.ClH/c1-21-13(20)11(8-5-9-17-14(15)16)18-12(19)10-6-3-2-4-7-10;/h2-4,6-7,11H,5,8-9H2,1H3,(H,18,19)(H4,15,16,17);1H/t11-;/m0./s1",
        "InChIKey": null,
        "Canonical SMILES": "Cl.O=C(OC)C(NC(=O)C=1C=CC=CC1)CCCNC(=N)N",
        "Molecular Formula": "C<sub>14</sub>H<sub>20</sub>N<sub>4</sub>O<sub>3</sub>.ClH",
        "Molecular Mass": "",
        "Melting Point": "87-89 °C"
    }
}