{
    "cas_no": "615-90-7",
    "key_name": "2,5-Dimethylhydroquinone",
    "cn_name": null,
    "alternate_name": "1,4-Benzenediol, 2,5-dimethyl-;Hydroquinone, 2,5-dimethyl-;2,5-Dimethyl-1,4-benzenediol;<em>p</em>-Xylene-2,5-diol;Hydrophloron;2,5-Dimethylhydroquinone;2,5-Xylohydroquinone;2,5-Dimethyl-1,4-hydroquinone;2,5-Dimethyl-<em>p</em>-hydroquinone;2,5-Dimethyl-<em>p</em>-benzohydroquinone;2,5-Dimethylbenzene-1,4-diol;2,5-Dimethyl-<em>p</em>-benzenediol;DMBQ(H);NSC 401090;1,4-Dihydroxy-2,5-dimethylbenzene;2,5-Dimethyl-1,4-dihydroxybenzene",
    "duplicated_cas_no": "",
    "SMILES": "CC1=C(O)C=C(C)C(O)=C1",
    "meta_data": {
        "InChI": "InChI=1S/C8H10O2/c1-5-3-8(10)6(2)4-7(5)9/h3-4,9-10H,1-2H3",
        "InChIKey": null,
        "Canonical SMILES": "OC=1C=C(C(O)=CC1C)C",
        "Molecular Formula": "C<sub>8</sub>H<sub>10</sub>O<sub>2</sub>",
        "Molecular Mass": "138.16",
        "Melting Point": "212-215 °C"
    }
}