{
    "cas_no": "3173-72-6",
    "key_name": "1,5-Naphthalene diisocyanate",
    "cn_name": "1,5-萘二异氰酸酯;萘二异氰酸酯;",
    "alternate_name": "Naphthalene, 1,5-diisocyanato-;Isocyanic acid, 1,5-naphthylene ester;1,5-Naphthalenediol, diisocyanate;1,5-Diisocyanatonaphthalene;1,5-Naphthalene diisocyanate;1,5-Naphthylene diisocyanate;1,5-Naphthyl diisocyanate;NSC 240728;NDI;1,5-NDI;Naphthalene-1,5-diyl diisocyanate",
    "duplicated_cas_no": "",
    "SMILES": "N(=C=O)C=1C2=C(C(N=C=O)=CC=C2)C=CC1",
    "meta_data": {
        "InChI": "InChI=1S/C12H6N2O2/c15-7-13-11-5-1-3-9-10(11)4-2-6-12(9)14-8-16/h1-6H",
        "InChIKey": null,
        "Canonical SMILES": "O=C=NC1=CC=CC=2C(N=C=O)=CC=CC12",
        "Molecular Formula": "C<sub>12</sub>H<sub>6</sub>N<sub>2</sub>O<sub>2</sub>",
        "Molecular Mass": "210.19",
        "Boiling Point": "167 °C @ Press: 5 Torr",
        "Melting Point": "130 °C",
        "Density": "1.42 g/cm³"
    }
}