{
    "cas_no": "7423-55-4",
    "key_name": "3-Maleimidopropionic acid",
    "cn_name": "3-马来酰亚胺基丙酸;",
    "alternate_name": "1<em>H</em>-Pyrrole-1-propanoic acid, 2,5-dihydro-2,5-dioxo-;3-Pyrroline-1-propionic acid, 2,5-dioxo-;2,5-Dihydro-2,5-dioxo-1<em>H</em>-pyrrole-1-propanoic acid;<em>N</em>-(2-Carboxyethyl)maleimide;3-Maleimidopropionic acid;β-Maleimidopropionic acid;<em>N</em>-Maleoyl-β-alanine;3-(Maleimido)propanoic acid;3-(2,5-Dioxo-2,5-dihydro-pyrrol-1-yl)-propionic acid;BMPA;BMPA (imide);3-(2,5-Dioxo-2<em>H</em>-pyrrol-1(5<em>H</em>)-yl)propanoic acid;2,5-Dioxopyrrole-1-propanoic acid",
    "duplicated_cas_no": "",
    "SMILES": "C(CC(O)=O)N1C(=O)C=CC1=O",
    "meta_data": {
        "InChI": "InChI=1S/C7H7NO4/c9-5-1-2-6(10)8(5)4-3-7(11)12/h1-2H,3-4H2,(H,11,12)",
        "InChIKey": null,
        "Canonical SMILES": "O=C1C=CC(=O)N1CCC(=O)O",
        "Molecular Formula": "C<sub>7</sub>H<sub>7</sub>NO<sub>4</sub>",
        "Molecular Mass": "169.13",
        "Melting Point": "103-106 °C"
    }
}