{
    "cas_no": "41743-73-1",
    "key_name": "Irisflorentin",
    "cn_name": "次野鸢尾黄素;",
    "alternate_name": "8<em>H</em>-1,3-Dioxolo[4,5-<em>g</em>][1]benzopyran-8-one, 9-methoxy-7-(3,4,5-trimethoxyphenyl)-;9-Methoxy-7-(3,4,5-trimethoxyphenyl)-8<em>H</em>-1,3-dioxolo[4,5-<em>g</em>][1]benzopyran-8-one;Irisflorentin;Irisflorentine",
    "duplicated_cas_no": "",
    "SMILES": "O(C)C=1C2=C(C=C3C1OCO3)OC=C(C2=O)C4=CC(OC)=C(OC)C(OC)=C4",
    "meta_data": {
        "InChI": "InChI=1S/C20H18O8/c1-22-13-5-10(6-14(23-2)18(13)24-3)11-8-26-12-7-15-19(28-9-27-15)20(25-4)16(12)17(11)21/h5-8H,9H2,1-4H3",
        "InChIKey": null,
        "Canonical SMILES": "O=C1C(=COC=2C=C3OCOC3=C(OC)C12)C=4C=C(OC)C(OC)=C(OC)C4",
        "Molecular Formula": "C<sub>20</sub>H<sub>18</sub>O<sub>8</sub>",
        "Molecular Mass": "386.35",
        "Melting Point": "165-167 °C"
    }
}