{
    "cas_no": "7647-19-0",
    "key_name": "Pentafluorophosphorane",
    "cn_name": null,
    "alternate_name": "Phosphorane, pentafluoro-;Phosphorus fluoride (PF<sub>5</sub>);Pentafluorophosphorane;Phosphorus pentafluoride;Pentafluorophosphorus",
    "duplicated_cas_no": "137038-30-3",
    "SMILES": "P(F)(F)(F)(F)F",
    "meta_data": {
        "InChI": "InChI=1S/F5P/c1-6(2,3,4)5",
        "InChIKey": null,
        "Canonical SMILES": "FP(F)(F)(F)F",
        "Molecular Formula": "F<sub>5</sub>P",
        "Molecular Mass": "125.97",
        "Boiling Point": "-84.6 °C",
        "Melting Point": "-93.8 °C"
    }
}