{
    "cas_no": "90-39-1",
    "key_name": "Sparteine",
    "cn_name": "司巴丁;金雀花碱;无页豆碱;鹰爪豆碱;(-)-鹰爪豆碱;",
    "alternate_name": "7,14-Methano-2<em>H</em>,6<em>H</em>-dipyrido[1,2-<em>a</em>:1′,2′-<em>e</em>][1,5]diazocine, dodecahydro-, (7<em>S</em>,7a<em>R</em>,14<em>S</em>,14a<em>S</em>)-;Sparteine;7,14-Methano-2<em>H</em>,6<em>H</em>-dipyrido[1,2-<em>a</em>:1′,2′-<em>e</em>][1,5]diazocine, dodecahydro-, [7<em>S</em>-(7α,7aα,14α,14aβ)]-;(7<em>S</em>,7a<em>R</em>,14<em>S</em>,14a<em>S</em>)-Dodecahydro-7,14-methano-2<em>H</em>,6<em>H</em>-dipyrido[1,2-<em>a</em>:1′,2′-<em>e</em>][1,5]diazocine;(-)-Sparteine;<em>l</em>-Sparteine;6β,7α,9α,11α-Pachycarpine;Spartein;Lupinidine;Lupinidin;<span class=\"text-smallcaps\">L</span>-(-)-Sparteine;<span class=\"text-smallcaps\">L</span>-Sparteine;MeSH ID: D013034",
    "duplicated_cas_no": "21156-83-2",
    "SMILES": "[C@@]12([C@]3(N(C[C@](C1)([C@@]4(N(C2)CCCC4)[H])[H])CCCC3)[H])[H]",
    "meta_data": {
        "InChI": "InChI=1S/C15H26N2/c1-3-7-16-11-13-9-12(14(16)5-1)10-17-8-4-2-6-15(13)17/h12-15H,1-11H2/t12-,13-,14-,15+/m0/s1",
        "InChIKey": null,
        "Canonical SMILES": "N12CCCCC1C3CN4CCCCC4C(C2)C3",
        "Molecular Formula": "C<sub>15</sub>H<sub>26</sub>N<sub>2</sub>",
        "Molecular Mass": "234.38",
        "Boiling Point": "325 °C",
        "Melting Point": "30.5 °C"
    }
}