{
    "cas_no": "920-46-7",
    "key_name": "Methacryloyl chloride",
    "cn_name": "甲基丙烯酰氯;",
    "alternate_name": "2-Propenoyl chloride, 2-methyl-;Methacryloyl chloride;2-Methyl-2-propenoyl chloride;Methacrylyl chloride;Methacrylic acid chloride;Methacrylic chloride;α-Methylacryloyl chloride;2-Methylpropenoic acid chloride;2-Methylacryloyl chloride",
    "duplicated_cas_no": "",
    "SMILES": "C(C(Cl)=O)(C)=C",
    "meta_data": {
        "InChI": "InChI=1S/C4H5ClO/c1-3(2)4(5)6/h1H2,2H3",
        "InChIKey": null,
        "Canonical SMILES": "O=C(Cl)C(=C)C",
        "Molecular Formula": "C<sub>4</sub>H<sub>5</sub>ClO",
        "Molecular Mass": "104.53",
        "Boiling Point": "96 °C",
        "Melting Point": "-60 °C",
        "Density": "1.0871 g/cm³ @ Temp: 20 °C"
    }
}