{
    "cas_no": "71808-65-6",
    "key_name": "Octadecyldimethylmethoxysilane",
    "cn_name": "二甲基甲氧基正十八硅烷;十八烷基二甲基甲氧基硅烷;",
    "alternate_name": "Silane, methoxydimethyloctadecyl-;Methoxydimethyloctadecylsilane;Dimethyl(octadecyl)methoxysilane;Octadecyldimethylmethoxysilane;Dimethyl(methoxy)octadecylsilane;<em>n</em>-Octadecyldimethylmethoxysilane",
    "duplicated_cas_no": "",
    "SMILES": "C(CCCCCCCCCCCCCCC)CC[Si](OC)(C)C",
    "meta_data": {
        "InChI": "InChI=1S/C21H46OSi/c1-5-6-7-8-9-10-11-12-13-14-15-16-17-18-19-20-21-23(3,4)22-2/h5-21H2,1-4H3",
        "InChIKey": null,
        "Canonical SMILES": "O(C)[Si](C)(C)CCCCCCCCCCCCCCCCCC",
        "Molecular Formula": "C<sub>21</sub>H<sub>46</sub>OSi",
        "Molecular Mass": "342.67",
        "Boiling Point": "184-186 °C @ Press: 0.2 Torr",
        "Density": "0.830 g/cm³ @ Temp: 25 °C"
    }
}