{
    "cas_no": "3251-56-7",
    "key_name": "2-Methoxy-4-nitrophenol",
    "cn_name": "4-硝基愈创木酚;4-硝基-2-甲氧基苯酚;",
    "alternate_name": "Phenol, 2-methoxy-4-nitro-;Guaiacol, 4-nitro-;2-Methoxy-4-nitrophenol;4-Hydroxy-3-methoxynitrobenzene;4-Nitroguaiacol;3-Nitro-6-hydroxyanisole;3-Methoxy-4-hydroxynitrobenzene;NSC 26149;4-Nitro-2-methoxyphenol",
    "duplicated_cas_no": "",
    "SMILES": "O(C)C1=CC(N(=O)=O)=CC=C1O",
    "meta_data": {
        "InChI": "InChI=1S/C7H7NO4/c1-12-7-4-5(8(10)11)2-3-6(7)9/h2-4,9H,1H3",
        "InChIKey": null,
        "Canonical SMILES": "O=N(=O)C1=CC=C(O)C(OC)=C1",
        "Molecular Formula": "C<sub>7</sub>H<sub>7</sub>NO<sub>4</sub>",
        "Molecular Mass": "169.13",
        "Melting Point": "99-100 °C"
    }
}