{
    "cas_no": "55-56-1",
    "key_name": "Chlorhexidine",
    "cn_name": null,
    "alternate_name": "2,4,11,13-Tetraazatetradecanediimidamide, <em>N</em><sup>1</sup>,<em>N</em><sup>14</sup>-bis(4-chlorophenyl)-3,12-diimino-;Biguanide, 1,1′-hexamethylenebis[5-(<em>p</em>-chlorophenyl)-;2,4,11,13-Tetraazatetradecanediimidamide, <em>N</em>,<em>N</em>′′-bis(4-chlorophenyl)-3,12-diimino-;<em>N</em><sup>1</sup>,<em>N</em><sup>14</sup>-Bis(4-chlorophenyl)-3,12-diimino-2,4,11,13-tetraazatetradecanediimidamide;1,6-Bis[5-(<em>p</em>-chlorophenyl)biguanidino]hexane;Chlorhexidine;Nolvasan;1,1′-Hexamethylenebis[5-(<em>p</em>-chlorophenyl)biguanide];Soretol;Chlorohex;Fimeil;Hexadol;Chlorohexidine;Tubulicid;1,6-Di(<em>N</em>-<em>p</em>-chlorophenylbiguanidino)hexane;Promax;Eburos;Hexident;Chlorhexamed forte;Consepsis;Dezin;Periogard;Dentosan;Chlorohexidene;Prevora;MeSH ID: D002710",
    "duplicated_cas_no": "111883-36-4;328933-19-3;1520991-69-8",
    "SMILES": "N(C(NC(NCCCCCCNC(NC(NC1=CC=C(Cl)C=C1)=N)=N)=N)=N)C2=CC=C(Cl)C=C2",
    "meta_data": {
        "InChI": "InChI=1S/C22H30Cl2N10/c23-15-5-9-17(10-6-15)31-21(27)33-19(25)29-13-3-1-2-4-14-30-20(26)34-22(28)32-18-11-7-16(24)8-12-18/h5-12H,1-4,13-14H2,(H5,25,27,29,31,33)(H5,26,28,30,32,34)",
        "InChIKey": null,
        "Canonical SMILES": "ClC1=CC=C(C=C1)NC(=N)NC(=N)NCCCCCCNC(=N)NC(=N)NC2=CC=C(Cl)C=C2",
        "Molecular Formula": "C<sub>22</sub>H<sub>30</sub>Cl<sub>2</sub>N<sub>10</sub>",
        "Molecular Mass": "505.45",
        "Melting Point": "134 °C"
    }
}