{
    "cas_no": "818-88-2",
    "key_name": "Monomethyl sebacate",
    "cn_name": "癸二酸单甲酯;",
    "alternate_name": "Decanedioic acid, 1-methyl ester;Sebacic acid, monomethyl ester;Decanedioic acid, monomethyl ester;Sebacic acid, methyl ester;Decanedioic acid methyl hydrogen ester;Monomethyl sebacate;9-(Carbomethoxy)nonanoic acid;Monomethyl decanedioate;Methyl hydrogen sebacate;Methyl 9-carboxynonanoate;9-(Methoxycarbonyl)nonanoic acid;10-Methoxy-10-oxodecanoic acid",
    "duplicated_cas_no": "",
    "SMILES": "C(CCCCCCCCC(O)=O)(OC)=O",
    "meta_data": {
        "InChI": "InChI=1S/C11H20O4/c1-15-11(14)9-7-5-3-2-4-6-8-10(12)13/h2-9H2,1H3,(H,12,13)",
        "InChIKey": null,
        "Canonical SMILES": "O=C(O)CCCCCCCCC(=O)OC",
        "Molecular Formula": "C<sub>11</sub>H<sub>20</sub>O<sub>4</sub>",
        "Molecular Mass": "216.27",
        "Boiling Point": "150 °C @ Press: 0.8 Torr",
        "Melting Point": "35-40 °C"
    }
}