{
    "cas_no": "4465-44-5",
    "key_name": "<em>N</em>-(Triphenylmethyl)-<span class=\"text-smallcaps\">L</span>-serine methyl ester",
    "cn_name": "N-三苯甲基-L-丝氨酸甲酯;",
    "alternate_name": "<span class=\"text-smallcaps\">L</span>-Serine, <em>N</em>-(triphenylmethyl)-, methyl ester;Serine, <em>N</em>-trityl-, methyl ester, <span class=\"text-smallcaps\">L</span>-;<em>N</em>-(Triphenylmethyl)-<span class=\"text-smallcaps\">L</span>-serine methyl ester;<em>N</em>-Tritylserine methyl ester;<em>N</em>-Trityl-<span class=\"text-smallcaps\">L</span>-serine methyl ester;Methyl (2S)-3-hydroxy-2-(tritylamino)propanoate;Methyl Trityl-<span class=\"text-smallcaps\">L</span>-serinate",
    "duplicated_cas_no": "350810-77-4",
    "SMILES": "C(N[C@H](C(OC)=O)CO)(C1=CC=CC=C1)(C2=CC=CC=C2)C3=CC=CC=C3",
    "meta_data": {
        "InChI": "InChI=1S/C23H23NO3/c1-27-22(26)21(17-25)24-23(18-11-5-2-6-12-18,19-13-7-3-8-14-19)20-15-9-4-10-16-20/h2-16,21,24-25H,17H2,1H3/t21-/m0/s1",
        "InChIKey": null,
        "Canonical SMILES": "O=C(OC)C(NC(C=1C=CC=CC1)(C=2C=CC=CC2)C=3C=CC=CC3)CO",
        "Molecular Formula": "C<sub>23</sub>H<sub>23</sub>NO<sub>3</sub>",
        "Molecular Mass": "361.43",
        "Melting Point": "125-131 °C"
    }
}