{
    "cas_no": "85-99-4",
    "key_name": "2′-Benzoylacetanilide",
    "cn_name": "α-苯酰乙酰苯胺;",
    "alternate_name": "Acetamide, <em>N</em>-(2-benzoylphenyl)-;Acetanilide, 2′-benzoyl-;<em>N</em>-(2-Benzoylphenyl)acetamide;2′-Benzoylacetanilide;2-Acetamidobenzophenone;2-Acetylaminobenzophenone;NSC 126369;<em>N</em>-(<em>o</em>-Benzoylphenyl)acetamide",
    "duplicated_cas_no": "",
    "SMILES": "C(=O)(C1=C(NC(C)=O)C=CC=C1)C2=CC=CC=C2",
    "meta_data": {
        "InChI": "InChI=1S/C15H13NO2/c1-11(17)16-14-10-6-5-9-13(14)15(18)12-7-3-2-4-8-12/h2-10H,1H3,(H,16,17)",
        "InChIKey": null,
        "Canonical SMILES": "O=C(C=1C=CC=CC1)C=2C=CC=CC2NC(=O)C",
        "Molecular Formula": "C<sub>15</sub>H<sub>13</sub>NO<sub>2</sub>",
        "Molecular Mass": "239.27",
        "Melting Point": "71-73 °C"
    }
}