{
    "cas_no": "28936-94-9",
    "key_name": "8-(Phenylmethyl)-1,3,8-triazaspiro[4.5]decane-2,4-dione",
    "cn_name": null,
    "alternate_name": "1,3,8-Triazaspiro[4.5]decane-2,4-dione, 8-(phenylmethyl)-;1,3,8-Triazaspiro[4.5]decane-2,4-dione, 8-benzyl-;8-(Phenylmethyl)-1,3,8-triazaspiro[4.5]decane-2,4-dione;8-Benzyl-1,3,8-triazaspiro[4.5]decane-2,4-dione;NSC 167706;8-Benzyl-1,3,8-triazaspiro[4.5]decan-2,4-dione",
    "duplicated_cas_no": "",
    "SMILES": "O=C1C2(CCN(CC3=CC=CC=C3)CC2)NC(=O)N1",
    "meta_data": {
        "InChI": "InChI=1S/C14H17N3O2/c18-12-14(16-13(19)15-12)6-8-17(9-7-14)10-11-4-2-1-3-5-11/h1-5H,6-10H2,(H2,15,16,18,19)",
        "InChIKey": null,
        "Canonical SMILES": "O=C1NC(=O)C2(N1)CCN(CC=3C=CC=CC3)CC2",
        "Molecular Formula": "C<sub>14</sub>H<sub>17</sub>N<sub>3</sub>O<sub>2</sub>",
        "Molecular Mass": "259.30",
        "Melting Point": "259-261 °C"
    }
}