{
    "cas_no": "20780-53-4",
    "key_name": "(+)-Styrene oxide",
    "cn_name": "(R)-环氧苯乙烷;",
    "alternate_name": "Oxirane, 2-phenyl-, (2<em>R</em>)-;Benzene, (epoxyethyl)-, (<em>R</em>)-(+)-;Oxirane, phenyl-, (<em>R</em>)-;Oxirane, phenyl-, (2<em>R</em>)-;(2<em>R</em>)-2-Phenyloxirane;(+)-(<em>R</em>)-Styrene oxide;(+)-Styrene oxide;(<em>R</em>)-(+)-Phenyloxirane;(<em>R</em>)-Phenylethylene oxide;(<em>R</em>)-Styrene 7,8-oxide;(+)-Phenyloxirane;(<em>R</em>)-(+)-Styrene oxide;(<em>R</em>)-Epoxystyrene;(<em>R</em>)-Phenyloxirane;(2<em>R</em>)-Phenyloxirane;(<em>R</em>)-Styrene oxide;(<em>R</em>)-(+)-Styrene epoxide;(<em>R</em>)-2-Phenyloxirane;(R)-2-Phenyloxirane",
    "duplicated_cas_no": "",
    "SMILES": "[C@H]1(CO1)C2=CC=CC=C2",
    "meta_data": {
        "InChI": "InChI=1S/C8H8O/c1-2-4-7(5-3-1)8-6-9-8/h1-5,8H,6H2/t8-/m0/s1",
        "InChIKey": null,
        "Canonical SMILES": "O1CC1C=2C=CC=CC2",
        "Molecular Formula": "C<sub>8</sub>H<sub>8</sub>O",
        "Molecular Mass": "120.15",
        "Boiling Point": "85-120 °C @ Press: 24 Torr",
        "Melting Point": "120-123 °C"
    }
}