{
    "cas_no": "10034-85-2",
    "key_name": "Hydrogen iodide",
    "cn_name": "碘化氢;氢碘酸;",
    "alternate_name": "Hydriodic acid;Anhydrous hydriodic acid;Hydrogen iodide;Hydrogen iodide (HI);Hydrogen monoiodide;Hydroiodic acid",
    "duplicated_cas_no": "8014-90-2;8052-26-4;39445-43-7;2487183-44-6",
    "SMILES": "I",
    "meta_data": {
        "InChI": "InChI=1S/HI/h1H",
        "InChIKey": null,
        "Canonical SMILES": "I",
        "Molecular Formula": "HI",
        "Molecular Mass": "",
        "Boiling Point": "-35.5 °C",
        "Melting Point": "-51 °C",
        "Density": "1.7 g/cm³"
    }
}