{
    "cas_no": "6158-45-8",
    "key_name": "1-(1-Methylethyl)naphthalene",
    "cn_name": "1-异丙基萘;",
    "alternate_name": "Naphthalene, 1-(1-methylethyl)-;Naphthalene, 1-isopropyl-;1-(1-Methylethyl)naphthalene;α-Isopropylnaphthalene;1-Isopropylnaphthalene;NSC 141329;1-Propan-2-ylnaphthalene;1-(Propan-2-yl)naphthalene",
    "duplicated_cas_no": "",
    "SMILES": "C(C)(C)C=1C2=C(C=CC1)C=CC=C2",
    "meta_data": {
        "InChI": "InChI=1S/C13H14/c1-10(2)12-9-5-7-11-6-3-4-8-13(11)12/h3-10H,1-2H3",
        "InChIKey": null,
        "Canonical SMILES": "C=1C=CC2=C(C1)C=CC=C2C(C)C",
        "Molecular Formula": "C<sub>13</sub>H<sub>14</sub>",
        "Molecular Mass": "170.25",
        "Boiling Point": "268 °C",
        "Melting Point": "-16 °C",
        "Density": "0.90075 g/cm³ @ Temp: 15 °C"
    }
}