{
    "cas_no": "618-62-2",
    "key_name": "3,5-Dichloronitrobenzene",
    "cn_name": "3,5-二氯硝基苯;",
    "alternate_name": "Benzene, 1,3-dichloro-5-nitro-;1,3-Dichloro-5-nitrobenzene;3,5-Dichloro-1-nitrobenzene;3,5-Dichloronitrobenzene;NSC 53841;NSC 60642",
    "duplicated_cas_no": "33150-95-7",
    "SMILES": "N(=O)(=O)C1=CC(Cl)=CC(Cl)=C1",
    "meta_data": {
        "InChI": "InChI=1S/C6H3Cl2NO2/c7-4-1-5(8)3-6(2-4)9(10)11/h1-3H",
        "InChIKey": null,
        "Canonical SMILES": "O=N(=O)C=1C=C(Cl)C=C(Cl)C1",
        "Molecular Formula": "C<sub>6</sub>H<sub>3</sub>Cl<sub>2</sub>NO<sub>2</sub>",
        "Molecular Mass": "192.00",
        "Melting Point": "64.5 °C",
        "Density": "1.692 g/cm³"
    }
}