{
    "cas_no": "104054-27-5",
    "key_name": "Atipamezole",
    "cn_name": "阿替美唑;4-(2-乙基-2-茚满)咪唑;",
    "alternate_name": "1<em>H</em>-Imidazole, 5-(2-ethyl-2,3-dihydro-1<em>H</em>-inden-2-yl)-;1<em>H</em>-Imidazole, 4-(2-ethyl-2,3-dihydro-1<em>H</em>-inden-2-yl)-;5-(2-Ethyl-2,3-dihydro-1<em>H</em>-inden-2-yl)-1<em>H</em>-imidazole;MPV 1248;Atipamezole",
    "duplicated_cas_no": "",
    "SMILES": "C(C)C1(CC=2C(C1)=CC=CC2)C3=CN=CN3",
    "meta_data": {
        "InChI": "InChI=1S/C14H16N2/c1-2-14(13-9-15-10-16-13)7-11-5-3-4-6-12(11)8-14/h3-6,9-10H,2,7-8H2,1H3,(H,15,16)",
        "InChIKey": null,
        "Canonical SMILES": "N1=CNC(=C1)C2(CC=3C=CC=CC3C2)CC",
        "Molecular Formula": "C<sub>14</sub>H<sub>16</sub>N<sub>2</sub>",
        "Molecular Mass": "212.29",
        "Melting Point": "210-214 °C"
    }
}