{
    "cas_no": "4372-46-7",
    "key_name": "Pyridoxine tripalmitate",
    "cn_name": null,
    "alternate_name": "Hexadecanoic acid, 1,1′-[[6-methyl-5-[(1-oxohexadecyl)oxy]-3,4-pyridinediyl]bis(methylene)] ester;Palmitic acid, triester with pyridoxol;Hexadecanoic acid, [6-methyl-5-[(1-oxohexadecyl)oxy]-3,4-pyridinediyl]bis(methylene) ester;Pyridoxine tripalmitate;Vitamin B<sub>6</sub> tripalmitate",
    "duplicated_cas_no": "50892-79-0",
    "SMILES": "C(OC(CCCCCCCCCCCCCCC)=O)C=1C(OC(CCCCCCCCCCCCCCC)=O)=C(C)N=CC1COC(CCCCCCCCCCCCCCC)=O",
    "meta_data": {
        "InChI": "InChI=1S/C56H101NO6/c1-5-8-11-14-17-20-23-26-29-32-35-38-41-44-53(58)61-48-51-47-57-50(4)56(63-55(60)46-43-40-37-34-31-28-25-22-19-16-13-10-7-3)52(51)49-62-54(59)45-42-39-36-33-30-27-24-21-18-15-12-9-6-2/h47H,5-46,48-49H2,1-4H3",
        "InChIKey": null,
        "Canonical SMILES": "O=C(OC=1C(=NC=C(C1COC(=O)CCCCCCCCCCCCCCC)COC(=O)CCCCCCCCCCCCCCC)C)CCCCCCCCCCCCCCC",
        "Molecular Formula": "C<sub>56</sub>H<sub>101</sub>NO<sub>6</sub>",
        "Molecular Mass": "884.40",
        "Melting Point": "72-73 °C"
    }
}