{
    "cas_no": "579-74-8",
    "key_name": "2′-Methoxyacetophenone",
    "cn_name": "2\"-甲氧基苯乙酮;邻甲氧基苯乙酮;",
    "alternate_name": "Ethanone, 1-(2-methoxyphenyl)-;Acetophenone, 2′-methoxy-;Acetophenone, <em>o</em>-methoxy-;1-(2-Methoxyphenyl)ethanone;<em>o</em>-Methoxyacetophenone;2′-Methoxyacetophenone;<em>o</em>-Acetylanisole;Methyl <em>o</em>-methoxyphenyl ketone;Methyl 2-methoxyphenyl ketone;2-Methoxyphenyl methyl ketone;2-Acetylanisole;NSC 23387;NSC 26912;2-Methoxy-1-acetylbenzene;1-(2-Methoxyphenyl)ethan-1-one",
    "duplicated_cas_no": "",
    "SMILES": "O(C)C1=C(C(C)=O)C=CC=C1",
    "meta_data": {
        "InChI": "InChI=1S/C9H10O2/c1-7(10)8-5-3-4-6-9(8)11-2/h3-6H,1-2H3",
        "InChIKey": null,
        "Canonical SMILES": "O=C(C=1C=CC=CC1OC)C",
        "Molecular Formula": "C<sub>9</sub>H<sub>10</sub>O<sub>2</sub>",
        "Molecular Mass": "150.17",
        "Boiling Point": "100-110 °C @ Press: 6 Torr",
        "Melting Point": "33-34 °C"
    }
}