{
    "cas_no": "24259-59-4",
    "key_name": "<span class=\"text-smallcaps\">L</span>-Ribose",
    "cn_name": "L-核糖;",
    "alternate_name": "<span class=\"text-smallcaps\">L</span>-Ribose;Ribose, <span class=\"text-smallcaps\">L</span>-;<span class=\"text-smallcaps\">L</span>-(+)-Ribose",
    "duplicated_cas_no": "",
    "SMILES": "[C@H]([C@H](CO)O)([C@@H](C=O)O)O",
    "meta_data": {
        "InChI": "InChI=1S/C5H10O5/c6-1-3(8)5(10)4(9)2-7/h1,3-5,7-10H,2H2/t3-,4+,5-/m1/s1",
        "InChIKey": null,
        "Canonical SMILES": "O=CC(O)C(O)C(O)CO",
        "Molecular Formula": "C<sub>5</sub>H<sub>10</sub>O<sub>5</sub>",
        "Molecular Mass": "150.13",
        "Melting Point": "87 °C"
    }
}