{
    "cas_no": "393-75-9",
    "key_name": "4-Chloro-3,5-dinitrobenzotrifluoride",
    "cn_name": "4-氯-3,5-二硝基三氟甲苯;",
    "alternate_name": "Benzene, 2-chloro-1,3-dinitro-5-(trifluoromethyl)-;Toluene, 4-chloro-α,α,α-trifluoro-3,5-dinitro-;2-Chloro-1,3-dinitro-5-(trifluoromethyl)benzene;4-Chloro-3,5-dinitrobenzotrifluoride;2,6-Dinitro-4-(trifluoromethyl)chlorobenzene;3,5-Dinitro-4-chlorobenzotrifluoride;4-Chloro-3,5-dinitro-α,α,α-trifluorotoluene;4-(Trifluoromethyl)-2,6-dinitrochlorobenzene;1-Chloro-2,6-dinitro-4-(trifluoromethyl)benzene;4-Chloro-α,α,α-trifluoro-3,5-dinitrotoluene;1,3-Dinitro-2-chloro-5-(trifluoromethyl)benzene;Chloralin;NSC 88274;3,5-Dinitro-4-chlorotrifluoromethylbenzene",
    "duplicated_cas_no": "",
    "SMILES": "N(=O)(=O)C1=C(Cl)C(N(=O)=O)=CC(C(F)(F)F)=C1",
    "meta_data": {
        "InChI": "InChI=1S/C7H2ClF3N2O4/c8-6-4(12(14)15)1-3(7(9,10)11)2-5(6)13(16)17/h1-2H",
        "InChIKey": null,
        "Canonical SMILES": "O=N(=O)C1=CC(=CC(=C1Cl)N(=O)=O)C(F)(F)F",
        "Molecular Formula": "C<sub>7</sub>H<sub>2</sub>ClF<sub>3</sub>N<sub>2</sub>O<sub>4</sub>",
        "Molecular Mass": "270.55",
        "Melting Point": "57 °C"
    }
}