{
    "cas_no": "13851-11-1",
    "key_name": "Fenchyl acetate",
    "cn_name": null,
    "alternate_name": "Bicyclo[2.2.1]heptan-2-ol, 1,3,3-trimethyl-, 2-acetate;2-Norbornanol, 1,3,3-trimethyl-, acetate;Bicyclo[2.2.1]heptan-2-ol, 1,3,3-trimethyl-, acetate;Fenchyl acetate;NSC 404295;1,3,3-Trimethylbicyclo[2.2.1]heptan-2-yl acetate;1,3,3-Trimethyl-2-norbornanyl acetate",
    "duplicated_cas_no": "",
    "SMILES": "CC12C(OC(C)=O)C(C)(C)C(C1)CC2",
    "meta_data": {
        "InChI": "InChI=1S/C12H20O2/c1-8(13)14-10-11(2,3)9-5-6-12(10,4)7-9/h9-10H,5-7H2,1-4H3",
        "InChIKey": null,
        "Canonical SMILES": "O=C(OC1C(C)(C)C2CCC1(C)C2)C",
        "Molecular Formula": "C<sub>12</sub>H<sub>20</sub>O<sub>2</sub>",
        "Molecular Mass": "196.29",
        "Boiling Point": "87 °C @ Press: 10 Torr"
    }
}