{
    "cas_no": "6264-66-0",
    "key_name": "4-(4-Aminophenoxy)-1,2-benzenediamine",
    "cn_name": "3,4,4-三氨基二苯醚;",
    "alternate_name": "1,2-Benzenediamine, 4-(4-aminophenoxy)-;<em>o</em>-Phenylenediamine, 4-(<em>p</em>-aminophenoxy)-;4-(4-Aminophenoxy)-1,2-benzenediamine;3,4,4′-Triaminodiphenyl ether;3,4,4′-Triaminodiphenyl oxide;4-(4-Aminophenoxy)-<em>o</em>-phenylenediamine",
    "duplicated_cas_no": "",
    "SMILES": "O(C1=CC(N)=C(N)C=C1)C2=CC=C(N)C=C2",
    "meta_data": {
        "InChI": "InChI=1S/C12H13N3O/c13-8-1-3-9(4-2-8)16-10-5-6-11(14)12(15)7-10/h1-7H,13-15H2",
        "InChIKey": null,
        "Canonical SMILES": "O(C1=CC=C(N)C=C1)C2=CC=C(N)C(N)=C2",
        "Molecular Formula": "C<sub>12</sub>H<sub>13</sub>N<sub>3</sub>O",
        "Molecular Mass": "215.25",
        "Melting Point": "150-152 °C"
    }
}