{
    "cas_no": "2963-66-8",
    "key_name": "2-(2′-Hydroxyphenyl)benzimidazole",
    "cn_name": null,
    "alternate_name": "Phenol, 2-(1<em>H</em>-benzimidazol-2-yl)-;Phenol, <em>o</em>-2-benzimidazolyl-;2-(1<em>H</em>-Benzimidazol-2-yl)phenol;2-(2-Hydroxyphenyl)benzimidazole;2-(2′-Hydroxyphenyl)benzimidazole;2-(2-Benzimidazolyl)phenol;2-(<em>o</em>-Hydroxyphenyl)benzimidazole;HBI;2-(2-Hydroxyphenyl)-1<em>H</em>-benzimidazole;NSC 32819;2-(2-Hydroxyphenyl)-3<em>H</em>-benzimidazole;6-(1<em>H</em>-Benzimidazol-2-yl)-2,3,5-cyclohexatrien-1-ol;2-(1<em>H</em>-Benzo[<em>d</em>]imidazol-2-yl)phenol;2-(1<em>H</em>-1,3-Benzodiazol-2-yl)phenol",
    "duplicated_cas_no": "890093-04-6",
    "SMILES": "OC1=C(C=2NC=3C(N2)=CC=CC3)C=CC=C1",
    "meta_data": {
        "InChI": "InChI=1S/C13H10N2O/c16-12-8-4-1-5-9(12)13-14-10-6-2-3-7-11(10)15-13/h1-8,16H,(H,14,15)",
        "InChIKey": null,
        "Canonical SMILES": "OC=1C=CC=CC1C2=NC=3C=CC=CC3N2",
        "Molecular Formula": "C<sub>13</sub>H<sub>10</sub>N<sub>2</sub>O",
        "Molecular Mass": "210.23",
        "Melting Point": "242 °C"
    }
}