{
    "cas_no": "703-23-1",
    "key_name": "1-(2-Hydroxy-6-methoxyphenyl)ethanone",
    "cn_name": "2-羟基-6-甲氧基苯乙酮;2\"-羟基-6\"-甲氧基苯乙酮;",
    "alternate_name": "Ethanone, 1-(2-hydroxy-6-methoxyphenyl)-;Acetophenone, 2′-hydroxy-6′-methoxy-;1-(2-Hydroxy-6-methoxyphenyl)ethanone;2′-Hydroxy-6′-methoxyacetophenone;6′-Hydroxy-2′-methoxyacetophenone;6-Methoxy-2-hydroxyacetophenone;2-Hydroxy-6-methoxyacetophenone;1-(2-Hydroxy-6-methoxyphenyl)ethan-1-one",
    "duplicated_cas_no": "1039416-16-4",
    "SMILES": "C(C)(=O)C1=C(OC)C=CC=C1O",
    "meta_data": {
        "InChI": "InChI=1S/C9H10O3/c1-6(10)9-7(11)4-3-5-8(9)12-2/h3-5,11H,1-2H3",
        "InChIKey": null,
        "Canonical SMILES": "O=C(C=1C(O)=CC=CC1OC)C",
        "Molecular Formula": "C<sub>9</sub>H<sub>10</sub>O<sub>3</sub>",
        "Molecular Mass": "166.17",
        "Melting Point": "60 °C"
    }
}