{
    "cas_no": "1435-51-4",
    "key_name": "1,3-Dibromo-5-fluorobenzene",
    "cn_name": "1,3-二溴-5-氟苯;",
    "alternate_name": "Benzene, 1,3-dibromo-5-fluoro-;1,3-Dibromo-5-fluorobenzene;3,5-Dibromofluorobenzene;3,5-Dibromo-1-fluorobenzene;1-Fluoro-3,5-dibromobenzene",
    "duplicated_cas_no": "",
    "SMILES": "BrC1=CC(Br)=CC(F)=C1",
    "meta_data": {
        "InChI": "InChI=1S/C6H3Br2F/c7-4-1-5(8)3-6(9)2-4/h1-3H",
        "InChIKey": null,
        "Canonical SMILES": "FC=1C=C(Br)C=C(Br)C1",
        "Molecular Formula": "C<sub>6</sub>H<sub>3</sub>Br<sub>2</sub>F",
        "Molecular Mass": "253.89",
        "Boiling Point": "204-206 °C"
    }
}