{
    "cas_no": "6408-78-2",
    "key_name": "Acid Blue 25",
    "cn_name": "弱酸性蓝AS;酸性蒽醌蓝;酸性蒽醌艳蓝;酸性蒽醌蓝A;弱酸蓝AS;酸性蒽醌绿GL;弱酸绿GS;弱酸艳绿GS;酸性媒介绿G;",
    "alternate_name": "2-Anthracenesulfonic acid, 1-amino-9,10-dihydro-9,10-dioxo-4-(phenylamino)-, sodium salt (1:1);2-Anthracenesulfonic acid, 1-amino-4-anilino-9,10-dihydro-9,10-dioxo-, monosodium salt;2-Anthracenesulfonic acid, 1-amino-9,10-dihydro-9,10-dioxo-4-(phenylamino)-, monosodium salt;2-Anthraquinonesulfonic acid, 1-amino-4-anilino-, sodium salt;C.I. 62055;Acid Alizarine Blue A;Acilan Direct Blue A;Alizarine Blue A;Alizarine Fast Blue CL;Alizarine Fast Blue RB;Alizarine Fast Printing Blue RB;Alizarine Light Blue AA;Alizarine Sapphirol A;Alizarine Straight Blue ARG;Alizarine Straight Blue ART;Alizarine Supra Blue B;Alizarine Supra Blue A-CF;Anthraquinone Blue SWF;Bucacid Alizarine Fast Blue R;C.I. Acid Blue 25;Erio Anthracene Brilliant Blue 2GC;Erio Anthracene Brilliant Blue GRL;Erio Fast Blue GRL;Fenazo Light Blue AT;Merpacyl Blue SW;Mitsui Nylon Fast Blue G;Solway Ultra Blue B;Telon Blue ANL;Acid Blue 25;Sodium 1-amino-4-anilinoanthraquinone-2-sulfonate;C.I. Acid Blue 25 sodium salt;Lissamine Blue RB;Alizarine Fast Blue A;C.I. Acid Blue 77;Wofacid Blue A;Nylomine Blue A-G;1-Amino-4-anilinoanthraquinone-2-sulfonic acid sodium salt;Telon Light Blue AN;Apollo Nylon Fast Blue A 2G;Diacid Light Blue 2A;Wofasol Fast Blue L;Acid Light Blue A;Sandolan Blue E 2AL;Aminyl Blue E-GSL;Alizarine Supra Blue A;Sodium 1-amino-4-(phenylamino)-2-anthraquinonesulfonate;Acid Anthraquinone Blue;Best Acid Blue AGL;Naphthazine Blue B;Elbenyl Blue A-GN;Best Acid Sky Blue B;Dinacid Blue ABR;Dycosacid Brilliant Blue PB;Fur Blue KB;Rifa Leather Blue BT;Triacid Light Blue A;Hispalon Blue C-AGN;Concorde Acid Blue A-GL;Apollo Nylon Fast Blue A;Colocid Fast Blue A;Anadurm Blue A-RT;Ambinyl Blue LC;Acid Brilliant Blue PB;Blue for Furs R;Formo Acid Blue 25;Acid Naphthol Blue;Derma Fur Blue BT 200;Suracid Blue BL;Acid Blue GRL;Sellacid Blue PF;Acid Blue AS;Kenamide Blue G 2B;Vicoacid Blue 25;Simacid Light Blue;Rifa Acid Blue BR;Atul Acid Blue ARB;Sellanyl Blue E-ANL;Daedo Acid Blue RA;Egacid Blue K;Covanyl Blue LG;Acid Blue 2AL241;Lerui Acid Blue 2AL;Acid Blue 2AL;Conacid Blue BE;Dyacid Blue AG;Acid Blue AL;Nylosan Blue 25",
    "duplicated_cas_no": "37218-11-4;1007599-96-3",
    "SMILES": "N(C1=C2C(C(=O)C=3C(C2=O)=CC=CC3)=C(N)C(S(=O)(=O)O)=C1)C4=CC=CC=C4.[Na]",
    "meta_data": {
        "InChI": "InChI=1S/C20H14N2O5S.Na/c21-18-15(28(25,26)27)10-14(22-11-6-2-1-3-7-11)16-17(18)20(24)13-9-5-4-8-12(13)19(16)23;/h1-10,22H,21H2,(H,25,26,27);",
        "InChIKey": null,
        "Canonical SMILES": "[Na].O=C1C=2C=CC=CC2C(=O)C3=C(C=C(C(N)=C13)S(=O)(=O)O)NC=4C=CC=CC4",
        "Molecular Formula": "C<sub>20</sub>H<sub>14</sub>N<sub>2</sub>O<sub>5</sub>S.Na",
        "Molecular Mass": "",
        "Melting Point": "&gt;300 °C"
    }
}