{
    "cas_no": "614-57-3",
    "key_name": "1,5-Diphenyl-2,4-pentadien-1-one",
    "cn_name": "肉桂基亚苯乙酮;亚桂皮基苯乙酮;",
    "alternate_name": "2,4-Pentadien-1-one, 1,5-diphenyl-;2,4-Pentadienophenone, 5-phenyl-;1,5-Diphenyl-2,4-pentadien-1-one;Cinnamylideneacetophenone;Cinnamalacetophenone;1,5-Diphenyl-1,3-pentadien-5-one;NSC 1991;NSC 29119;NSC 406761;SP 35",
    "duplicated_cas_no": "",
    "SMILES": "C(C=CC=CC1=CC=CC=C1)(=O)C2=CC=CC=C2",
    "meta_data": {
        "InChI": "InChI=1S/C17H14O/c18-17(16-12-5-2-6-13-16)14-8-7-11-15-9-3-1-4-10-15/h1-14H",
        "InChIKey": null,
        "Canonical SMILES": "O=C(C=CC=CC=1C=CC=CC1)C=2C=CC=CC2",
        "Molecular Formula": "C<sub>17</sub>H<sub>14</sub>O",
        "Molecular Mass": "234.29",
        "Melting Point": "102-103 °C",
        "Density": "1.0608 g/cm³"
    }
}