{
    "cas_no": "556-82-1",
    "key_name": "3-Methyl-2-buten-1-ol",
    "cn_name": "3-甲基-2-丁烯-1-醇;",
    "alternate_name": "2-Buten-1-ol, 3-methyl-;3-Methyl-2-buten-1-ol;Prenol;γ,γ-Dimethylallyl alcohol;3-Methyl-2-butene-1-ol;3-Methyl-2-butenyl alcohol;3,3-Dimethylallyl alcohol;Prenyl alcohol;3-Methyl-2-butenol;Dimethylallyl alcohol;3-Methylcrotyl alcohol;2-Methyl-2-buten-4-ol;NSC 158709;Isopent-2-en-1-ol;Isopentenol",
    "duplicated_cas_no": "135146-66-6",
    "SMILES": "C(=C(C)C)CO",
    "meta_data": {
        "InChI": "InChI=1S/C5H10O/c1-5(2)3-4-6/h3,6H,4H2,1-2H3",
        "InChIKey": null,
        "Canonical SMILES": "OCC=C(C)C",
        "Molecular Formula": "C<sub>5</sub>H<sub>10</sub>O",
        "Molecular Mass": "86.13",
        "Boiling Point": "140 °C",
        "Melting Point": "59-60 °C",
        "Density": "0.8689 g/cm³ @ Temp: 21 °C"
    }
}