{
    "cas_no": "4355-11-7",
    "key_name": "1,1-Cyclohexanediacetic acid",
    "cn_name": "1,1-环己基二乙酸;",
    "alternate_name": "1,1-Cyclohexanediacetic acid;NSC 169443;NSC 39839;1,1-Bis(carboxymethyl)cyclohexane;(1-Carboxymethyl-cyclohexyl)-acetic acid;2,2′-(Cyclohexane-1,1-diyl)diacetic acid;2-[1-(Carboxymethyl)cyclohexyl]acetic acid",
    "duplicated_cas_no": "",
    "SMILES": "C(C(O)=O)C1(CC(O)=O)CCCCC1",
    "meta_data": {
        "InChI": "InChI=1S/C10H16O4/c11-8(12)6-10(7-9(13)14)4-2-1-3-5-10/h1-7H2,(H,11,12)(H,13,14)",
        "InChIKey": null,
        "Canonical SMILES": "O=C(O)CC1(CC(=O)O)CCCCC1",
        "Molecular Formula": "C<sub>10</sub>H<sub>16</sub>O<sub>4</sub>",
        "Molecular Mass": "200.23",
        "Boiling Point": "115-133 °C @ Press: 1.5 Torr",
        "Melting Point": "181 °C"
    }
}