{
    "cas_no": "12263-85-3",
    "key_name": "Tribromotrimethyldialuminum",
    "cn_name": "三溴化三甲基二铝;",
    "alternate_name": "Aluminum, tribromotrimethyldi-;Tribromotrimethyldialuminum;Methylaluminum sesquibromide",
    "duplicated_cas_no": "",
    "SMILES": "",
    "meta_data": {
        "InChI": "",
        "InChIKey": null,
        "Canonical SMILES": "",
        "Molecular Formula": "C<sub>3</sub>H<sub>9</sub>Al<sub>2</sub>Br<sub>3</sub>",
        "Molecular Mass": "",
        "Boiling Point": "166 °C",
        "Density": "1.514 g/cm³ @ Temp: 25 °C"
    }
}