{
    "uri": "substance/pt/12263853",
    "rn": "12263-85-3",
    "name": "Tribromotrimethyldialuminum",
    "images": [],
    "inchi": "",
    "inchiKey": "",
    "smile": "",
    "canonicalSmile": "",
    "molecularFormula": "C<sub>3</sub>H<sub>9</sub>Al<sub>2</sub>Br<sub>3</sub>",
    "molecularMass": "",
    "experimentalProperties": [
        {
            "name": "Boiling Point",
            "property": "166 °C",
            "sourceNumber": 1
        },
        {
            "name": "Density",
            "property": "1.514 g/cm³ @ Temp: 25 °C",
            "sourceNumber": 1
        }
    ],
    "propertyCitations": [
        {
            "docUri": "",
            "sourceNumber": 1,
            "source": "Hazardous Substances Data Bank data were obtained from the National Library of Medicine (US)"
        }
    ],
    "synonyms": [
        "Aluminum, tribromotrimethyldi-",
        "Tribromotrimethyldialuminum",
        "Methylaluminum sesquibromide"
    ],
    "replacedRns": [],
    "hasMolfile": false,
    "source": "https://commonchemistry.cas.org/detail?cas_rn=12263-85-3"
}