{
    "cas_no": "16156-53-9",
    "key_name": "Methanesulfonic acid, 2-methylpropyl ester",
    "cn_name": null,
    "alternate_name": "Methanesulfonic acid, 2-methylpropyl ester;Methanesulfonic acid, isobutyl ester;Isobutyl methanesulfonate;2-Methylpropyl methanesulfonate;2-Methyl-1-propyl methanesulfonate",
    "duplicated_cas_no": "1195563-47-3",
    "SMILES": "O(S(C)(=O)=O)CC(C)C",
    "meta_data": {
        "InChI": "InChI=1S/C5H12O3S/c1-5(2)4-8-9(3,6)7/h5H,4H2,1-3H3",
        "InChIKey": null,
        "Canonical SMILES": "O=S(=O)(OCC(C)C)C",
        "Molecular Formula": "C<sub>5</sub>H<sub>12</sub>O<sub>3</sub>S",
        "Molecular Mass": "152.21",
        "Boiling Point": "99-101 °C @ Press: 11.6 Torr"
    }
}