{
    "cas_no": "70516-41-5",
    "key_name": "6′-[Ethyl(3-methylbutyl)amino]-3′-methyl-2′-(phenylamino)spiro[isobenzofuran-1(3<em>H</em>),9′-[9<em>H</em>]xanthen]-3-one",
    "cn_name": "S-205;6\"-[乙基(3-甲基丁基)氨基]-3\"-甲基-2\"-(苯基氨基)-螺[异苯并呋喃-1(3H),9\"-[9H]占吨]-3-酮;",
    "alternate_name": "Spiro[isobenzofuran-1(3<em>H</em>),9′-[9<em>H</em>]xanthen]-3-one, 6′-[ethyl(3-methylbutyl)amino]-3′-methyl-2′-(phenylamino)-;6′-[Ethyl(3-methylbutyl)amino]-3′-methyl-2′-(phenylamino)spiro[isobenzofuran-1(3<em>H</em>),9′-[9<em>H</em>]xanthen]-3-one;3-(<em>N</em>-Ethyl-<em>N</em>-isoamylamino)-6-methyl-7-anilinofluoran;6′-(<em>N</em>-Isoamyl-<em>N</em>-ethylamino)-3′-methyl-2′-phenylaminofluoran;3′-(<em>N</em>-Ethyl-<em>N</em>-isoamylamino)-6′-methyl-7′-(phenylamino)fluoran;3′-(<em>N</em>-Ethyl-<em>N</em>-isoamylamino)-6′-methyl-7′-anilinofluoran;S 205;S 205 (dye);3-(<em>N</em>-Ethyl-<em>N</em>-isoamylamino)-6-methyl-7-phenylaminofluoran;3-(<em>N</em>-Isoamyl-<em>N</em>-ethylamino)-6-methyl-7-anilinofluoran;3-(<em>N</em>-Ethyl-<em>N</em>-isopentylamino)-6-methyl-7-anilinofluoran;3-(<em>N</em>-Isopentyl-<em>N</em>-ethylamino)-6-methyl-7-anilinofluoran;2-Anilino-3-methyl-6-(<em>N</em>-ethyl-<em>N</em>-isoamylamino)fluoran;S 205 Black;Yamada S 205;6-(<em>N</em>-Iso-amyl-<em>N</em>-ethylamino)-3-methyl-2-anilinofluoran;Wincon 205;2′-Anilino-6′-[ethyl(3-methylbutyl)amino]-3′-methylspiro[2-benzofuran-3,9′-xanthene]-1-one;R 401;R 401 (dye)",
    "duplicated_cas_no": "95918-47-1;117787-79-8;140679-14-7",
    "SMILES": "O=C1OC2(C=3C(OC=4C2=CC=C(N(CCC(C)C)CC)C4)=CC(C)=C(NC5=CC=CC=C5)C3)C=6C1=CC=CC6",
    "meta_data": {
        "InChI": "InChI=1S/C34H34N2O3/c1-5-36(18-17-22(2)3)25-15-16-28-32(20-25)38-31-19-23(4)30(35-24-11-7-6-8-12-24)21-29(31)34(28)27-14-10-9-13-26(27)33(37)39-34/h6-16,19-22,35H,5,17-18H2,1-4H3",
        "InChIKey": null,
        "Canonical SMILES": "O=C1OC2(C3=CC=C(C=C3OC=4C=C(C(=CC42)NC=5C=CC=CC5)C)N(CC)CCC(C)C)C=6C=CC=CC16",
        "Molecular Formula": "C<sub>34</sub>H<sub>34</sub>N<sub>2</sub>O<sub>3</sub>",
        "Molecular Mass": "518.65",
        "Melting Point": "166-168 °C"
    }
}