{
    "cas_no": "20901-53-5",
    "key_name": "Methyl 2,3-dihydro-2-oxo-1<em>H</em>-imidazole-4-carboxylate",
    "cn_name": null,
    "alternate_name": "1<em>H</em>-Imidazole-4-carboxylic acid, 2,3-dihydro-2-oxo-, methyl ester;4-Imidazoline-4-carboxylic acid, 2-oxo-, methyl ester;Methyl 2,3-dihydro-2-oxo-1<em>H</em>-imidazole-4-carboxylate",
    "duplicated_cas_no": "",
    "SMILES": "C(OC)(=O)C=1NC(=O)NC1",
    "meta_data": {
        "InChI": "InChI=1S/C5H6N2O3/c1-10-4(8)3-2-6-5(9)7-3/h2H,1H3,(H2,6,7,9)",
        "InChIKey": null,
        "Canonical SMILES": "O=C(OC)C1=CNC(=O)N1",
        "Molecular Formula": "C<sub>5</sub>H<sub>6</sub>N<sub>2</sub>O<sub>3</sub>",
        "Molecular Mass": "142.11",
        "Melting Point": "280 °C"
    }
}