{
    "cas_no": "13021-15-3",
    "key_name": "<em>N</em>,<em>N</em>,2,4,6-Pentamethylbenzenamine",
    "cn_name": "N,N,2,4,6-五甲基苯胺;",
    "alternate_name": "Benzenamine, <em>N</em>,<em>N</em>,2,4,6-pentamethyl-;Aniline, <em>N</em>,<em>N</em>,2,4,6-pentamethyl-;<em>N</em>,<em>N</em>,2,4,6-Pentamethylbenzenamine;<em>N</em>,<em>N</em>-Dimethylmesidine;<em>N</em>,<em>N</em>,2,4,6-Pentamethylaniline;2,4,6,<em>N</em>,<em>N</em>-Pentamethylaniline;2-(Dimethylamino)mesitylene;NSC 243164",
    "duplicated_cas_no": "",
    "SMILES": "N(C)(C)C1=C(C)C=C(C)C=C1C",
    "meta_data": {
        "InChI": "InChI=1S/C11H17N/c1-8-6-9(2)11(12(4)5)10(3)7-8/h6-7H,1-5H3",
        "InChIKey": null,
        "Canonical SMILES": "C=1C(=CC(=C(C1C)N(C)C)C)C",
        "Molecular Formula": "C<sub>11</sub>H<sub>17</sub>N",
        "Molecular Mass": "163.26",
        "Boiling Point": "214 °C"
    }
}