{
    "cas_no": "33580-59-5",
    "key_name": "Trimethoxy(3-methoxypropyl)silane",
    "cn_name": "三甲氧基(3-甲氧基丙基)硅烷;",
    "alternate_name": "Silane, trimethoxy(3-methoxypropyl)-;Trimethoxy(3-methoxypropyl)silane;δ-Methoxypropyltrimethoxysilane;(3-Methoxypropyl)trimethoxysilane;SIM 6493.0",
    "duplicated_cas_no": "",
    "SMILES": "[Si](CCCOC)(OC)(OC)OC",
    "meta_data": {
        "InChI": "InChI=1S/C7H18O4Si/c1-8-6-5-7-12(9-2,10-3)11-4/h5-7H2,1-4H3",
        "InChIKey": null,
        "Canonical SMILES": "O(C)CCC[Si](OC)(OC)OC",
        "Molecular Formula": "C<sub>7</sub>H<sub>18</sub>O<sub>4</sub>Si",
        "Molecular Mass": "194.30",
        "Boiling Point": "98-99 °C @ Press: 40 Torr",
        "Density": "0.995 g/cm³"
    }
}