{
    "cas_no": "16498-20-7",
    "key_name": "2,3-Dihydro-6-nitro-1,4-benzodioxin",
    "cn_name": "6-硝基-1,4-苯并二氧杂环;",
    "alternate_name": "1,4-Benzodioxin, 2,3-dihydro-6-nitro-;1,4-Benzodioxan, 6-nitro-;2,3-Dihydro-6-nitro-1,4-benzodioxin;6-Nitro-1,4-benzodioxan",
    "duplicated_cas_no": "",
    "SMILES": "N(=O)(=O)C=1C=C2C(=CC1)OCCO2",
    "meta_data": {
        "InChI": "InChI=1S/C8H7NO4/c10-9(11)6-1-2-7-8(5-6)13-4-3-12-7/h1-2,5H,3-4H2",
        "InChIKey": null,
        "Canonical SMILES": "O=N(=O)C1=CC=C2OCCOC2=C1",
        "Molecular Formula": "C<sub>8</sub>H<sub>7</sub>NO<sub>4</sub>",
        "Molecular Mass": "181.15",
        "Melting Point": "121-122 °C"
    }
}