{
    "cas_no": "299-27-4",
    "key_name": "Potassium gluconate",
    "cn_name": "葡萄糖酸钾;",
    "alternate_name": "<span class=\"text-smallcaps\">D</span>-Gluconic acid, potassium salt (1:1);Gluconic acid, monopotassium salt, <span class=\"text-smallcaps\">D</span>-;<span class=\"text-smallcaps\">D</span>-Gluconic acid, monopotassium salt;Potassium gluconate;Katorin;Gluconic acid potassium salt;Potasoral;Potassuril;K-IAO;Potassium <span class=\"text-smallcaps\">D</span>-gluconate;Kalium-Beta;Sirokal;Potalium;Gluconsan K;Katrin;Kalimozan;Tumil K;Kaon;Helshas K",
    "duplicated_cas_no": "8059-85-6",
    "SMILES": "[C@H]([C@@H]([C@@H](CO)O)O)([C@H](C(O)=O)O)O.[K]",
    "meta_data": {
        "InChI": "InChI=1S/C6H12O7.K/c7-1-2(8)3(9)4(10)5(11)6(12)13;/h2-5,7-11H,1H2,(H,12,13);/t2-,3-,4+,5-;/m1./s1",
        "InChIKey": null,
        "Canonical SMILES": "[K].O=C(O)C(O)C(O)C(O)C(O)CO",
        "Molecular Formula": "C<sub>6</sub>H<sub>12</sub>O<sub>7</sub>.K",
        "Molecular Mass": "",
        "Melting Point": "106 °C (decomp)"
    }
}