{
    "cas_no": "50-36-2",
    "key_name": "Cocaine",
    "cn_name": "薄片;片材;薄片刨花;",
    "alternate_name": "8-Azabicyclo[3.2.1]octane-2-carboxylic acid, 3-(benzoyloxy)-8-methyl-, methyl ester, (1<em>R</em>,2<em>R</em>,3<em>S</em>,5<em>S</em>)-;1α<span class=\"text-smallcaps\">H</smallcap>,5α<smallcap>H</span>-Tropane-2β-carboxylic acid, 3β-hydroxy-, methyl ester, benzoate (ester);8-Azabicyclo[3.2.1]octane-2-carboxylic acid, 3-(benzoyloxy)-8-methyl-, methyl ester, [1<em>R</em>-(<em>exo</em>,<em>exo</em>)]-;Benzoylmethylecgonine;2β-Carbomethoxy-3β-(benzoyloxy)tropane;Cocaine;<em>l</em>-Cocaine;Ecgonine methyl ester benzoate (ester);3β-Hydroxy-2β-tropanecarboxylic acid methyl ester benzoate (ester);(-)-Cocaine;Neurocaine;Cocain;<span class=\"text-smallcaps\">L</span>-Cocaine;(<em>R</em>)-Cocaine;(<em>R</em>)-(-)-Cocaine;MeSH ID: D003042",
    "duplicated_cas_no": "60269-50-3",
    "SMILES": "C(OC)(=O)[C@@H]1[C@@]2(N(C)[C@](C[C@@H]1OC(=O)C3=CC=CC=C3)(CC2)[H])[H]",
    "meta_data": {
        "InChI": "InChI=1S/C17H21NO4/c1-18-12-8-9-13(18)15(17(20)21-2)14(10-12)22-16(19)11-6-4-3-5-7-11/h3-7,12-15H,8-10H2,1-2H3/t12-,13+,14-,15+/m0/s1",
        "InChIKey": null,
        "Canonical SMILES": "O=C(OC1CC2N(C)C(CC2)C1C(=O)OC)C=3C=CC=CC3",
        "Molecular Formula": "C<sub>17</sub>H<sub>21</sub>NO<sub>4</sub>",
        "Molecular Mass": "303.35",
        "Boiling Point": "187 °C @ Press: 0.1 Torr",
        "Melting Point": "98 °C"
    }
}