{
    "cas_no": "77481-82-4",
    "key_name": "Cinchonanium, 9-hydroxy-6′-methoxy-1-(phenylmethyl)-, chloride (1:1), (9<em>S</em>)-",
    "cn_name": "N-苄基氯化喹啶嗡;N-苄基普鲁卡因胺氯;",
    "alternate_name": "Cinchonanium, 9-hydroxy-6′-methoxy-1-(phenylmethyl)-, chloride (1:1), (9<em>S</em>)-;Cinchonanium, 9-hydroxy-6′-methoxy-1-(phenylmethyl)-, chloride, (9<em>S</em>)-;1-Benzylquinidinium chloride;<em>N</em>-Benzylquinidinium chloride",
    "duplicated_cas_no": "",
    "SMILES": "C([N@@+]12[C@@]([C@@H](O)C=3C4=C(C=CC(OC)=C4)N=CC3)(C[C@@]([C@@H](C=C)C1)(CC2)[H])[H])C5=CC=CC=C5.[Cl-]",
    "meta_data": {
        "InChI": "InChI=1S/C27H31N2O2.ClH/c1-3-20-18-29(17-19-7-5-4-6-8-19)14-12-21(20)15-26(29)27(30)23-11-13-28-25-10-9-22(31-2)16-24(23)25;/h3-11,13,16,20-21,26-27,30H,1,12,14-15,17-18H2,2H3;1H/q+1;/p-1/t20-,21-,26+,27-,29+;/m0./s1",
        "InChIKey": null,
        "Canonical SMILES": "[Cl-].OC(C=1C=CN=C2C=CC(OC)=CC21)C3CC4CC[N+]3(CC=5C=CC=CC5)CC4C=C",
        "Molecular Formula": "C<sub>27</sub>H<sub>31</sub>N<sub>2</sub>O<sub>2</sub>.Cl",
        "Molecular Mass": "",
        "Melting Point": "178 °C"
    }
}