{
    "cas_no": "3130-75-4",
    "key_name": "4-Phthalimidobutyric acid",
    "cn_name": null,
    "alternate_name": "2<em>H</em>-Isoindole-2-butanoic acid, 1,3-dihydro-1,3-dioxo-;2-Isoindolinebutyric acid, 1,3-dioxo-;1,3-Dihydro-1,3-dioxo-2<em>H</em>-isoindole-2-butanoic acid;<em>N</em>-Phthalyl-γ-aminobutyric acid;4-Phthalimidobutyric acid;4-Phthalimidobutanoic acid;γ-Phthalimidobutyric acid;NSC 119133;4-(1,3-Dioxo-1,3-dihydro-2<em>H</em>-isoindol-2-yl)butanoic acid;4-(1,3-Dioxo-1,3-dihydroisoindol-2-yl)butyric Acid;Phthaloyl γ-aminobutyric acid;4-Phthalimidoylbutyric acid;4-(1,3-Dioxoisoindolin-2-yl)butanoic acid",
    "duplicated_cas_no": "",
    "SMILES": "O=C1C=2C(C(=O)N1CCCC(O)=O)=CC=CC2",
    "meta_data": {
        "InChI": "InChI=1S/C12H11NO4/c14-10(15)6-3-7-13-11(16)8-4-1-2-5-9(8)12(13)17/h1-2,4-5H,3,6-7H2,(H,14,15)",
        "InChIKey": null,
        "Canonical SMILES": "O=C(O)CCCN1C(=O)C=2C=CC=CC2C1=O",
        "Molecular Formula": "C<sub>12</sub>H<sub>11</sub>NO<sub>4</sub>",
        "Molecular Mass": "233.22",
        "Melting Point": "117-118 °C"
    }
}