{
    "cas_no": "1601-18-9",
    "key_name": "Methyl 1-(4-chlorobenzoyl)-5-methoxy-2-methyl-1<em>H</em>-indole-3-acetate",
    "cn_name": "1-(4-氯苯甲酰基)-5-甲氧基-2-甲基-1H-吲哚-3-乙酸甲酯;",
    "alternate_name": "1<em>H</em>-Indole-3-acetic acid, 1-(4-chlorobenzoyl)-5-methoxy-2-methyl-, methyl ester;Indole-3-acetic acid, 1-(<em>p</em>-chlorobenzoyl)-5-methoxy-2-methyl-, methyl ester;Methyl 1-(4-chlorobenzoyl)-5-methoxy-2-methyl-1<em>H</em>-indole-3-acetate;Methyl <em>N</em>-(<em>p</em>-chlorobenzoyl)-2-methyl-5-methoxy-3-indolylacetate;Methyl 1-(4-chlorobenzoyl)-5-methoxy-2-methylindole-3-acetate;Indomethacin methyl ester;L 588983;Methyl 2-(1-(4-Chlorobenzoyl)-5-methoxy-2-methyl-1<em>H</em>-indol-3-yl)acetate;Indometacin methylester",
    "duplicated_cas_no": "",
    "SMILES": "C(=O)(N1C=2C(C(CC(OC)=O)=C1C)=CC(OC)=CC2)C3=CC=C(Cl)C=C3",
    "meta_data": {
        "InChI": "InChI=1S/C20H18ClNO4/c1-12-16(11-19(23)26-3)17-10-15(25-2)8-9-18(17)22(12)20(24)13-4-6-14(21)7-5-13/h4-10H,11H2,1-3H3",
        "InChIKey": null,
        "Canonical SMILES": "O=C(OC)CC=1C=2C=C(OC)C=CC2N(C(=O)C3=CC=C(Cl)C=C3)C1C",
        "Molecular Formula": "C<sub>20</sub>H<sub>18</sub>ClNO<sub>4</sub>",
        "Molecular Mass": "371.81",
        "Melting Point": "99-100 °C"
    }
}