{
    "cas_no": "75-27-4",
    "key_name": "Bromodichloromethane",
    "cn_name": null,
    "alternate_name": "Methane, bromodichloro-;Bromodichloromethane;Dichlorobromomethane;Monobromodichloromethane;Dichloromonobromomethane;NSC 8018;BDCM",
    "duplicated_cas_no": "",
    "SMILES": "C(Br)(Cl)Cl",
    "meta_data": {
        "InChI": "InChI=1S/CHBrCl2/c2-1(3)4/h1H",
        "InChIKey": null,
        "Canonical SMILES": "ClC(Cl)Br",
        "Molecular Formula": "CHBrCl<sub>2</sub>",
        "Molecular Mass": "163.83",
        "Boiling Point": "90 °C",
        "Melting Point": "-57 °C",
        "Density": "1.980 g/cm³ @ Temp: 20 °C"
    }
}