{
    "cas_no": "1820-80-0",
    "key_name": "1<em>H</em>-Pyrazol-3-amine",
    "cn_name": "3-氨基吡唑;",
    "alternate_name": "1<em>H</em>-Pyrazol-3-amine;Pyrazole, 3-amino-;Pyrazole, 3(<em>or</em> 5)-amino-;3-Aminopyrazole;5-Aminopyrazole;3(5)-Aminopyrazole;5-Pyrazolamine;1<em>H</em>-Pyrazol-5-amine;3-Amino-1<em>H</em>-pyrazole;(5-1<em>H</em>-Pyrazolyl)amine;1<em>H</em>-Pyrazol-3-ylamine;NSC 76122;1<em>H</em>-Pyrazole-3-amine;3-AP;3-Amino-2<em>H</em>-pyrazole;2<em>H</em>-Pyrazol-3-ylamine",
    "duplicated_cas_no": "1003-06-1;29212-72-4;56112-97-1;72194-26-4;73616-30-5;77640-23-4;99759-78-1;103060-65-7;104035-20-3;112106-77-1;141665-25-0;145370-87-2;148291-51-4;188997-99-1;223391-36-4;244127-24-0;337913-21-0;371249-00-2;412350-93-7;475108-92-0;493038-81-6;749216-49-7;827587-65-5;846601-87-4;868702-42-5;916420-28-5;1022928-58-0;1028842-80-9;1048925-27-4;1061704-85-5;1887749-07-6",
    "SMILES": "NC=1C=CNN1",
    "meta_data": {
        "InChI": "InChI=1S/C3H5N3/c4-3-1-2-5-6-3/h1-2H,(H3,4,5,6)",
        "InChIKey": null,
        "Canonical SMILES": "N=1NC=CC1N",
        "Molecular Formula": "C<sub>3</sub>H<sub>5</sub>N<sub>3</sub>",
        "Molecular Mass": "83.09",
        "Boiling Point": "146-148 °C @ Press: 11 Torr",
        "Melting Point": "36-38 °C"
    }
}