{
    "cas_no": "13734-36-6",
    "key_name": "[(<em>tert</em>-Butoxycarbonyl)(methyl)amino]acetic acid",
    "cn_name": "Boc-肌氨酸;N-Boc-肌氨酸;",
    "alternate_name": "Glycine, <em>N</em>-[(1,1-dimethylethoxy)carbonyl]-<em>N</em>-methyl-;Sarcosine, <em>N</em>-carboxy-, <em>N</em>-<em>tert</em>-butyl ester;<em>N</em>-[(1,1-Dimethylethoxy)carbonyl]-<em>N</em>-methylglycine;<em>N</em>-(<em>tert</em>-Butoxycarbonyl)sarcosine;<em>N</em>-(<em>tert</em>-Butyloxycarbonyl)sarcosine;(<em>tert</em>-Butyloxycarbonyl)sarcosine;(<em>tert</em>-Butoxycarbonyl)sarcosine;(<em>t</em>-Butoxycarbonyl)sarcosine;[<em>N</em>-(<em>tert</em>-Butoxycarbonyl)-<em>N</em>-methylamino]acetic acid;2-[(<em>tert</em>-Butoxycarbonyl)(methyl)amino]acetic acid;[(<em>tert</em>-Butoxycarbonyl)(methyl)amino]acetic acid;<em>N</em>-(<em>tert</em>-Butoxycarbonyl)-<em>N</em>-methylglycine;Boc-sarcosine;2-((t-Butoxycarbonyl)(methyl)amino)acetic acid;<em>N</em>-Methyl-<em>N</em>-Boc-glycine;Boc-N-Me-Gly-OH;2-[Methyl-[(2-methylpropan-2-yl)oxycarbonyl]amino]acetic acid;<em>N</em>-Methyl-2-(<em>tert</em>-butoxycarbonylamino)acetic acid;Ethyl-2-[[[<em>tert</em>-butoxy)carbonyl](methyl)amino]acetic acid",
    "duplicated_cas_no": "",
    "SMILES": "C(N(CC(O)=O)C)(OC(C)(C)C)=O",
    "meta_data": {
        "InChI": "InChI=1S/C8H15NO4/c1-8(2,3)13-7(12)9(4)5-6(10)11/h5H2,1-4H3,(H,10,11)",
        "InChIKey": null,
        "Canonical SMILES": "O=C(OC(C)(C)C)N(C)CC(=O)O",
        "Molecular Formula": "C<sub>8</sub>H<sub>15</sub>NO<sub>4</sub>",
        "Molecular Mass": "189.21",
        "Melting Point": "88-90 °C"
    }
}