{
    "cas_no": "1035-69-4",
    "key_name": "Androsta-4,9(11)-diene-3,17-dione",
    "cn_name": null,
    "alternate_name": "Androsta-4,9(11)-diene-3,17-dione;9(11)-Dehydroandrostenedione;NSC 44826;9-Dehydroandrostenedione",
    "duplicated_cas_no": "",
    "SMILES": "C[C@@]12C=3[C@]([C@]4([C@](C)(CC3)C(=O)CC4)[H])(CCC1=CC(=O)CC2)[H]",
    "meta_data": {
        "InChI": "InChI=1S/C19H24O2/c1-18-9-7-13(20)11-12(18)3-4-14-15-5-6-17(21)19(15,2)10-8-16(14)18/h8,11,14-15H,3-7,9-10H2,1-2H3/t14-,15-,18-,19-/m0/s1",
        "InChIKey": null,
        "Canonical SMILES": "O=C1C=C2CCC3C(=CCC4(C(=O)CCC34)C)C2(C)CC1",
        "Molecular Formula": "C<sub>19</sub>H<sub>24</sub>O<sub>2</sub>",
        "Molecular Mass": "284.39",
        "Melting Point": "202-204 °C"
    }
}