{
    "cas_no": "4871-97-0",
    "key_name": "(-)-Curcumol",
    "cn_name": "莪术醇;姜黄醇;",
    "alternate_name": "6<em>H</em>-3a,6-Epoxyazulen-6-ol, octahydro-3-methyl-8-methylene-5-(1-methylethyl)-, (3<em>S</em>,3a<em>S</em>,5<em>S</em>,6<em>R</em>,8a<em>S</em>)-;5β-Guai-10(14)-en-8-ol, 5,8-epoxy-, (-)-;6<em>H</em>-3a,6-Epoxyazulen-6-ol, octahydro-3-methyl-8-methylene-5-(1-methylethyl)-, [3<em>S</em>-(3α,3aα,5β,6β,8aβ)]-;6<em>H</em>-3a,6-Epoxyazulen-6-ol, octahydro-5-isopropyl-3-methyl-8-methylene-;(3<em>S</em>,3a<em>S</em>,5<em>S</em>,6<em>R</em>,8a<em>S</em>)-Octahydro-3-methyl-8-methylene-5-(1-methylethyl)-6<em>H</em>-3a,6-epoxyazulen-6-ol;Curcumol;(-)-Curcumol;8α-Hydroxy-1α,4α,7β<em>H</em>-guai-10(15)-en-5β,8β-endoxide",
    "duplicated_cas_no": "",
    "SMILES": "C[C@@H]1[C@@]23[C@](C(=C)C[C@@](O)(O2)[C@H]([C@@H](C)C)C3)(CC1)[H]",
    "meta_data": {
        "InChI": "InChI=1S/C15H24O2/c1-9(2)13-8-14-11(4)5-6-12(14)10(3)7-15(13,16)17-14/h9,11-13,16H,3,5-8H2,1-2,4H3/t11-,12-,13-,14-,15+/m0/s1",
        "InChIKey": null,
        "Canonical SMILES": "OC12OC3(CC1C(C)C)C(C(=C)C2)CCC3C",
        "Molecular Formula": "C<sub>15</sub>H<sub>24</sub>O<sub>2</sub>",
        "Molecular Mass": "236.35",
        "Melting Point": "141-142 °C"
    }
}