{
    "cas_no": "23470-00-0",
    "key_name": "2-Palmitoylglycerol",
    "cn_name": null,
    "alternate_name": "Hexadecanoic acid, 2-hydroxy-1-(hydroxymethyl)ethyl ester;Palmitin, 2-mono-;2-Hexadecanoyl glycerol;2-Monopalmitin;2-Monopalmitoyl-<em>sn</em>-glycerol;Palmitic acid β-monoglyceride;2-Palmitoylglycerol;2-Monopalmitoylglycerol;β-Monopalmitin;2-Monohexadecanoylglycerol;Glycerol-β-palmitate;1,3-Dihydroxypropan-2-yl palmitate;2-Palmitoyl-rac-glycerol;2-Glyceryl palmitate",
    "duplicated_cas_no": "1118-74-7;75656-12-1",
    "SMILES": "O(C(CO)CO)C(CCCCCCCCCCCCCCC)=O",
    "meta_data": {
        "InChI": "InChI=1S/C19H38O4/c1-2-3-4-5-6-7-8-9-10-11-12-13-14-15-19(22)23-18(16-20)17-21/h18,20-21H,2-17H2,1H3",
        "InChIKey": null,
        "Canonical SMILES": "O=C(OC(CO)CO)CCCCCCCCCCCCCCC",
        "Molecular Formula": "C<sub>19</sub>H<sub>38</sub>O<sub>4</sub>",
        "Molecular Mass": "330.50",
        "Melting Point": "74 °C"
    }
}