{
    "cas_no": "7558-63-6",
    "key_name": "Ammonium glutamate",
    "cn_name": "L-谷氨酸-铵;谷氨酸铵;",
    "alternate_name": "<span class=\"text-smallcaps\">L</span>-Glutamic acid, ammonium salt (1:1);Glutamic acid, monoammonium salt, <span class=\"text-smallcaps\">L</span>-;<span class=\"text-smallcaps\">L</span>-Glutamic acid, monoammonium salt;Monoammonium glutamate;Ammonium glutamate;Glutamic acid monoammonium salt;Monoammonium <span class=\"text-smallcaps\">L</span>-glutamate;E 624",
    "duplicated_cas_no": "17140-86-2",
    "SMILES": "[C@H](CCC(O)=O)(C(O)=O)N.N",
    "meta_data": {
        "InChI": "InChI=1S/C5H9NO4.H3N/c6-3(5(9)10)1-2-4(7)8;/h3H,1-2,6H2,(H,7,8)(H,9,10);1H3/t3-;/m0./s1",
        "InChIKey": null,
        "Canonical SMILES": "O=C(O)CCC(N)C(=O)O.N",
        "Molecular Formula": "C<sub>5</sub>H<sub>9</sub>NO<sub>4</sub>.H<sub>3</sub>N",
        "Molecular Mass": "",
        "Melting Point": "61-64 °C"
    }
}