{
    "cas_no": "52709-84-9",
    "key_name": "8CB",
    "cn_name": "4\"-正辛基-4-氰基联苯;",
    "alternate_name": "[1,1′-Biphenyl]-4-carbonitrile, 4′-octyl-;4′-Octyl[1,1′-biphenyl]-4-carbonitrile;4-Cyano-4′-octyl-1,1′-biphenyl;4-Cyano-4′-octylbiphenyl;<em>p</em>-Cyano-<em>p</em>′-octylbiphenyl;4′-<em>n</em>-Octyl-4-cyanobiphenyl;4′-Octyl-4-biphenylcarbonitrile;4-Octyl-4′-cyanobiphenyl;4-Cyano-4′-<em>n</em>-octylbiphenyl;4′-Octyl-4-cyanobiphenyl;4-<em>n</em>-Octyl-4′-cyanobiphenyl;<em>p</em>-Octyl-<em>p</em>′-cyanobiphenyl;CB 8 (liquid crystal);K 24 (liquid crystal);K 24;80BF;8CB;<em>p</em>-<em>n</em>-Octyl-<em>p</em>′-cyanobiphenyl;OCBP;8TsB;CB 8;FR 2221;8CB (liq. crystal)",
    "duplicated_cas_no": "121479-48-9",
    "SMILES": "C(CCCCCCC)C1=CC=C(C=C1)C2=CC=C(C#N)C=C2",
    "meta_data": {
        "InChI": "InChI=1S/C21H25N/c1-2-3-4-5-6-7-8-18-9-13-20(14-10-18)21-15-11-19(17-22)12-16-21/h9-16H,2-8H2,1H3",
        "InChIKey": null,
        "Canonical SMILES": "N#CC=1C=CC(=CC1)C2=CC=C(C=C2)CCCCCCCC",
        "Molecular Formula": "C<sub>21</sub>H<sub>25</sub>N",
        "Molecular Mass": "291.43",
        "Boiling Point": "215-218 °C @ Press: 2 Torr",
        "Density": "0.99 g/cm³ @ Temp: 25 °C"
    }
}