{
    "cas_no": "57681-59-1",
    "key_name": "1-(4,5-Dichloro-2-thienyl)ethanone",
    "cn_name": null,
    "alternate_name": "Ethanone, 1-(4,5-dichloro-2-thienyl)-;Ketone, 4,5-dichloro-2-thienyl methyl;1-(4,5-Dichloro-2-thienyl)ethanone;2-Acetyl-4,5-dichlorothiophene;4,5-Dichloro-2-acetylthiophene;1-(4,5-Dichlorothiophen-2-yl)ethanone",
    "duplicated_cas_no": "",
    "SMILES": "C(C)(=O)C1=CC(Cl)=C(Cl)S1",
    "meta_data": {
        "InChI": "InChI=1S/C6H4Cl2OS/c1-3(9)5-2-4(7)6(8)10-5/h2H,1H3",
        "InChIKey": null,
        "Canonical SMILES": "O=C(C=1SC(Cl)=C(Cl)C1)C",
        "Molecular Formula": "C<sub>6</sub>H<sub>4</sub>Cl<sub>2</sub>OS",
        "Molecular Mass": "195.07",
        "Melting Point": "68 °C"
    }
}