{
    "cas_no": "65948-19-8",
    "key_name": "6-Phenoxy-2-benzothiazolamine",
    "cn_name": null,
    "alternate_name": "2-Benzothiazolamine, 6-phenoxy-;6-Phenoxy-2-benzothiazolamine;2-Amino-6-phenoxybenzothiazole;SKA 32;6-Phenoxybenzo[<em>d</em>]thiazol-2-amine",
    "duplicated_cas_no": "",
    "SMILES": "O(C=1C=C2C(=CC1)N=C(N)S2)C3=CC=CC=C3",
    "meta_data": {
        "InChI": "InChI=1S/C13H10N2OS/c14-13-15-11-7-6-10(8-12(11)17-13)16-9-4-2-1-3-5-9/h1-8H,(H2,14,15)",
        "InChIKey": null,
        "Canonical SMILES": "N1=C(SC=2C=C(OC=3C=CC=CC3)C=CC12)N",
        "Molecular Formula": "C<sub>13</sub>H<sub>10</sub>N<sub>2</sub>OS",
        "Molecular Mass": "242.30",
        "Melting Point": "173-174 °C"
    }
}