{
    "cas_no": "19793-20-5",
    "key_name": "Bolandiol",
    "cn_name": "19-去甲基-4-雄烯二醇;",
    "alternate_name": "Estr-4-ene-3,17-diol, (3β,17β)-;Estr-4-ene-3β,17β-diol;(3β,17β)-Estr-4-ene-3,17-diol;Δ<sup>4</sup>-Estrene-3β,17β-diol;Bolandiol;19-Nor-4-androstene-3β,17β-diol;Norandrodiol Select 300;19-Norandrostenediol;19-Nor-4-androstenediol",
    "duplicated_cas_no": "",
    "SMILES": "C[C@@]12[C@]([C@]3([C@@]([C@@]4(C(CC3)=C[C@@H](O)CC4)[H])(CC1)[H])[H])(CC[C@@H]2O)[H]",
    "meta_data": {
        "InChI": "InChI=1S/C18H28O2/c1-18-9-8-14-13-5-3-12(19)10-11(13)2-4-15(14)16(18)6-7-17(18)20/h10,12-17,19-20H,2-9H2,1H3/t12-,13-,14+,15+,16-,17-,18-/m0/s1",
        "InChIKey": null,
        "Canonical SMILES": "OC1C=C2CCC3C(CCC4(C)C(O)CCC34)C2CC1",
        "Molecular Formula": "C<sub>18</sub>H<sub>28</sub>O<sub>2</sub>",
        "Molecular Mass": "276.41",
        "Melting Point": "169-172 °C"
    }
}