{
    "cas_no": "592542-51-3",
    "key_name": "2-[[(4-Methoxy-3-nitrophenyl)methyl]sulfonyl]acetic acid",
    "cn_name": "3-硝基-4-甲氧基苄基磺酰基乙酸;",
    "alternate_name": "Acetic acid, 2-[[(4-methoxy-3-nitrophenyl)methyl]sulfonyl]-;Acetic acid, [[(4-methoxy-3-nitrophenyl)methyl]sulfonyl]-;2-[[(4-Methoxy-3-nitrophenyl)methyl]sulfonyl]acetic acid;4-Methoxy-3-nitrobenzylsulfonylacetic acid;2-(4-Methoxy-3-nitrobenzylsulfonyl)acetic acid;(4-Methoxy-2-nitrobenzylsulfonyl)acetic acid;2-[(4-Methoxy-3-nitrophenyl)methanesulfonyl]acetic acid",
    "duplicated_cas_no": "911294-95-6",
    "SMILES": "N(=O)(=O)C1=C(OC)C=CC(CS(CC(O)=O)(=O)=O)=C1",
    "meta_data": {
        "InChI": "InChI=1S/C10H11NO7S/c1-18-9-3-2-7(4-8(9)11(14)15)5-19(16,17)6-10(12)13/h2-4H,5-6H2,1H3,(H,12,13)",
        "InChIKey": null,
        "Canonical SMILES": "O=C(O)CS(=O)(=O)CC1=CC=C(OC)C(=C1)N(=O)=O",
        "Molecular Formula": "C<sub>10</sub>H<sub>11</sub>NO<sub>7</sub>S",
        "Molecular Mass": "289.26",
        "Melting Point": "137-139 °C"
    }
}