{
    "cas_no": "84-83-3",
    "key_name": "2-(Formylmethylene)-1,3,3-trimethylindoline",
    "cn_name": "费舍尔氏醛;w醛;",
    "alternate_name": "Acetaldehyde, 2-(1,3-dihydro-1,3,3-trimethyl-2<em>H</em>-indol-2-ylidene)-;Acetaldehyde, (1,3-dihydro-1,3,3-trimethyl-2<em>H</em>-indol-2-ylidene)-;Δ<sup>2,α</sup>-Indolineacetaldehyde, 1,3,3-trimethyl-;Δ<sup>2,α</sup>-Indolinacetaldehyde, 1,3,3-trimethyl-;2-(1,3-Dihydro-1,3,3-trimethyl-2<em>H</em>-indol-2-ylidene)acetaldehyde;1,3,3-Trimethyl-Δ<sup>2,α</sup>-indolineacetaldehyde;1,3,3-Trimethyl-2-(formylmethylene)indoline;2-(Formylmethylene)-1,3,3-trimethylindoline;1,3,3-Trimethyl-2-methyleneindoline-ω-aldehyde;1,3,3-Trimethyl-2-(formylmethylene)-2,3-dihydroindole;(1,3,3-Trimethylindolin-2-ylidene)acetaldehyde;Fischer's aldehyde;2-(Formylmethylene)-2,3-dihydro-1,3,3-trimethylindole;NSC 68048;(1,3-Dihydro-1,3,3-trimethyl-2<em>H</em>-indol-2-ylidene)acetaldehyde;2-(2,3-Dihydro-1,3,3-trimethyl-1<em>H</em>-indol-2-ylidene)acetaldehyde;2-(1,3,3-Trimethylindolin-2-ylidene)acetaldehyde;2-(1,3,3-Trimethyl-2,3-dihydro-1<em>H</em>-indol-2-ylidene)acetaldehyde;2-(1,3,3-Trimethylindol-2-ylidene)acetaldehyde",
    "duplicated_cas_no": "",
    "SMILES": "CN1C=2C(C(C)(C)C1=CC=O)=CC=CC2",
    "meta_data": {
        "InChI": "InChI=1S/C13H15NO/c1-13(2)10-6-4-5-7-11(10)14(3)12(13)8-9-15/h4-9H,1-3H3",
        "InChIKey": null,
        "Canonical SMILES": "O=CC=C1N(C=2C=CC=CC2C1(C)C)C",
        "Molecular Formula": "C<sub>13</sub>H<sub>15</sub>NO",
        "Molecular Mass": "201.26",
        "Boiling Point": "170-172 °C @ Press: 2 Torr",
        "Melting Point": "117-118 °C"
    }
}