{
    "cas_no": "13509-52-9",
    "key_name": "1,3,6-Trimethyl-2,4(1<em>H</em>,3<em>H</em>)-pyrimidinedione",
    "cn_name": null,
    "alternate_name": "2,4(1<em>H</em>,3<em>H</em>)-Pyrimidinedione, 1,3,6-trimethyl-;Uracil, 1,3,6-trimethyl-;1,3,6-Trimethyl-2,4(1<em>H</em>,3<em>H</em>)-pyrimidinedione;1,3,4-Trimethyluracil;1,3,6-Trimethyluracil;1,3,6-Trimethyl-1<em>H</em>,3<em>H</em>-pyrimidine-2,4-dione;1,3,6-Trimethylpyrimidine-2,4-dione",
    "duplicated_cas_no": "",
    "SMILES": "CN1C(=O)N(C)C(=O)C=C1C",
    "meta_data": {
        "InChI": "InChI=1S/C7H10N2O2/c1-5-4-6(10)9(3)7(11)8(5)2/h4H,1-3H3",
        "InChIKey": null,
        "Canonical SMILES": "O=C1C=C(N(C(=O)N1C)C)C",
        "Molecular Formula": "C<sub>7</sub>H<sub>10</sub>N<sub>2</sub>O<sub>2</sub>",
        "Molecular Mass": "154.17",
        "Boiling Point": "40-60 °C",
        "Melting Point": "109 °C"
    }
}