{
    "cas_no": "10527-16-9",
    "key_name": "10-Chloro-9-anthracenecarboxaldehyde",
    "cn_name": "10-氯-9-蒽甲醛;10-氯-9-蒽甲醛;",
    "alternate_name": "9-Anthracenecarboxaldehyde, 10-chloro-;9-Anthraldehyde, 10-chloro-;10-Chloro-9-anthracenecarboxaldehyde;10-Chloro-9-anthraldehyde;9-Chloro-10-formylanthracene;10-Chloro-9-anthracenecarbaldehyde",
    "duplicated_cas_no": "1001099-85-9",
    "SMILES": "C(=O)C=1C2=C(C(Cl)=C3C1C=CC=C3)C=CC=C2",
    "meta_data": {
        "InChI": "InChI=1S/C15H9ClO/c16-15-12-7-3-1-5-10(12)14(9-17)11-6-2-4-8-13(11)15/h1-9H",
        "InChIKey": null,
        "Canonical SMILES": "O=CC=1C=2C=CC=CC2C(Cl)=C3C=CC=CC13",
        "Molecular Formula": "C<sub>15</sub>H<sub>9</sub>ClO",
        "Molecular Mass": "240.68",
        "Melting Point": "216 °C"
    }
}