{
    "cas_no": "589-16-2",
    "key_name": "4-Ethylaniline",
    "cn_name": "4-乙基苯胺;",
    "alternate_name": "Benzenamine, 4-ethyl-;Aniline, <em>p</em>-ethyl-;4-Ethylbenzenamine;<em>p</em>-Ethylaniline;4-Ethylaniline;4-Aminoethylbenzene;4-Ethylphenylamine;<em>p</em>-Ethylaminobenzene;NSC 62015",
    "duplicated_cas_no": "",
    "SMILES": "C(C)C1=CC=C(N)C=C1",
    "meta_data": {
        "InChI": "InChI=1S/C8H11N/c1-2-7-3-5-8(9)6-4-7/h3-6H,2,9H2,1H3",
        "InChIKey": null,
        "Canonical SMILES": "NC1=CC=C(C=C1)CC",
        "Molecular Formula": "C<sub>8</sub>H<sub>11</sub>N",
        "Molecular Mass": "121.18",
        "Boiling Point": "217.5 °C",
        "Melting Point": "-4.8 °C",
        "Density": "0.9690 g/cm³ @ Temp: 20 °C"
    }
}