{
    "cas_no": "179688-52-9",
    "key_name": "6-Hydroxy-7-methoxy-4(3<em>H</em>)-quinazolinone",
    "cn_name": "6-羟基-7-甲氧基-3H-喹唑啉-4-酮;",
    "alternate_name": "4(3<em>H</em>)-Quinazolinone, 6-hydroxy-7-methoxy-;4(1<em>H</em>)-Quinazolinone, 6-hydroxy-7-methoxy-;6-Hydroxy-7-methoxy-4(3<em>H</em>)-quinazolinone;6-Hydroxy-7-methoxy-3,4-dihydroquinazolin-4-one;7-Methoxyquinazoline-4,6-diol;6-Hydroxy-7-methoxyquinazolin-4(3<em>H</em>)-one",
    "duplicated_cas_no": "",
    "SMILES": "O=C1C=2C(=CC(OC)=C(O)C2)NC=N1",
    "meta_data": {
        "InChI": "InChI=1S/C9H8N2O3/c1-14-8-3-6-5(2-7(8)12)9(13)11-4-10-6/h2-4,12H,1H3,(H,10,11,13)",
        "InChIKey": null,
        "Canonical SMILES": "O=C1N=CNC2=CC(OC)=C(O)C=C12",
        "Molecular Formula": "C<sub>9</sub>H<sub>8</sub>N<sub>2</sub>O<sub>3</sub>",
        "Molecular Mass": "192.17",
        "Melting Point": "293 °C"
    }
}