{
    "cas_no": "498-95-3",
    "key_name": "Nipecotic acid",
    "cn_name": "3-哌啶甲酸;",
    "alternate_name": "3-Piperidinecarboxylic acid;Nipecotic acid;Hexahydronicotinic acid;3-Carboxypiperidine;(±)-Nipecotic acid;(±)-β-Homoproline;<span class=\"text-smallcaps\">D</smallcap><smallcap>L</span>-Nipecotic acid",
    "duplicated_cas_no": "60252-41-7",
    "SMILES": "C(O)(=O)C1CCCNC1",
    "meta_data": {
        "InChI": "InChI=1S/C6H11NO2/c8-6(9)5-2-1-3-7-4-5/h5,7H,1-4H2,(H,8,9)",
        "InChIKey": null,
        "Canonical SMILES": "O=C(O)C1CNCCC1",
        "Molecular Formula": "C<sub>6</sub>H<sub>11</sub>NO<sub>2</sub>",
        "Molecular Mass": "129.16",
        "Melting Point": "261 °C (decomp)"
    }
}