{
    "cas_no": "23886-71-7",
    "key_name": "4-Methoxy-4′-methylbenzophenone",
    "cn_name": null,
    "alternate_name": "Methanone, (4-methoxyphenyl)(4-methylphenyl)-;Benzophenone, 4-methoxy-4′-methyl-;(4-Methoxyphenyl)(4-methylphenyl)methanone;4-Methoxy-4′-methylbenzophenone;4-Methyl-4′-methoxybenzophenone;4-Methoxyphenyl 4-methylphenyl ketone;(4-Methoxyphenyl)(4-tolyl)methanone;NSC 163357;(4-Methoxyphenyl)(<em>p</em>-tolyl)methanone",
    "duplicated_cas_no": "",
    "SMILES": "C(=O)(C1=CC=C(OC)C=C1)C2=CC=C(C)C=C2",
    "meta_data": {
        "InChI": "InChI=1S/C15H14O2/c1-11-3-5-12(6-4-11)15(16)13-7-9-14(17-2)10-8-13/h3-10H,1-2H3",
        "InChIKey": null,
        "Canonical SMILES": "O=C(C1=CC=C(OC)C=C1)C2=CC=C(C=C2)C",
        "Molecular Formula": "C<sub>15</sub>H<sub>14</sub>O<sub>2</sub>",
        "Molecular Mass": "226.27",
        "Melting Point": "92 °C"
    }
}