{
    "cas_no": "1617-17-0",
    "key_name": "Propanenitrile, 2-chloro-",
    "cn_name": "2-氯丙腈;",
    "alternate_name": "Propanenitrile, 2-chloro-;Propionitrile, 2-chloro-;2-Chloropropionitrile;α-Chloropropionitrile;2-Chloropropanenitrile;(±)-2-Chloropropionitrile",
    "duplicated_cas_no": "130232-50-7",
    "SMILES": "C(C#N)(C)Cl",
    "meta_data": {
        "InChI": "InChI=1S/C3H4ClN/c1-3(4)2-5/h3H,1H3",
        "InChIKey": null,
        "Canonical SMILES": "N#CC(Cl)C",
        "Molecular Formula": "C<sub>3</sub>H<sub>4</sub>ClN",
        "Molecular Mass": "89.52",
        "Boiling Point": "121 °C",
        "Melting Point": "54-55 °C"
    }
}