{
    "cas_no": "78560-44-8",
    "key_name": "1<em>H</em>,1<em>H</em>,2<em>H</em>,2<em>H</em>-Perfluorodecyltrichlorosilane",
    "cn_name": "1H,1H,2H,2H-全氟癸基三氯硅烷;全氟十二烷基三氯硅烷;1H,1H,2H,2H-全氟癸基三氯硅烷;",
    "alternate_name": "Silane, trichloro(3,3,4,4,5,5,6,6,7,7,8,8,9,9,10,10,10-heptadecafluorodecyl)-;Trichloro(3,3,4,4,5,5,6,6,7,7,8,8,9,9,10,10,10-heptadecafluorodecyl)silane;[2-(Perfluorooctyl)ethyl]trichlorosilane;(Perfluorooctylethyl)trichlorosilane;TSL 8232;3,3,4,4,5,5,6,6,7,7,8,8,9,9,10,10,10-Heptadecafluorodecyltrichlorosilane;(1,1,2,2-Tetrahydroperfluorodecyl)trichlorosilane;1<em>H</em>,1<em>H</em>,2<em>H</em>,2<em>H</em>-Perfluorodecyltrichlorosilane;HFTCS;(Heptadecafluoro-1,1,2,2-tetrahydrodecyl)trichlorosilane;Heptadecafluoro-1,1,2,2-tetrahydrooctyltrichlorosilane;(1<em>H</em>,1<em>H</em>,2<em>H</em>,2<em>H</em>-Heptadecafluorodecyl)trichlorosilane;SIH 5841.0;KS 3175;Gelest SIH 5841.0;(Heptadecafluoro-1,1,2,2-tetrahydradecyl)trichlorosilane;FC 10;Trichloro(1<em>H</em>,1<em>H</em>,2<em>H</em>,2<em>H</em>-perfluorodecyl)silane;SG-Si 191;FDTS",
    "duplicated_cas_no": "",
    "SMILES": "C(C(C(C(C(F)(F)F)(F)F)(F)F)(F)F)(C(C(C(CC[Si](Cl)(Cl)Cl)(F)F)(F)F)(F)F)(F)F",
    "meta_data": {
        "InChI": "InChI=1S/C10H4Cl3F17Si/c11-31(12,13)2-1-3(14,15)4(16,17)5(18,19)6(20,21)7(22,23)8(24,25)9(26,27)10(28,29)30/h1-2H2",
        "InChIKey": null,
        "Canonical SMILES": "FC(F)(F)C(F)(F)C(F)(F)C(F)(F)C(F)(F)C(F)(F)C(F)(F)C(F)(F)CC[Si](Cl)(Cl)Cl",
        "Molecular Formula": "C<sub>10</sub>H<sub>4</sub>Cl<sub>3</sub>F<sub>17</sub>Si",
        "Molecular Mass": "581.56",
        "Boiling Point": "216-218 °C",
        "Density": "1.703 g/cm³"
    }
}