{
    "cas_no": "927-62-8",
    "key_name": "1-(<em>N</em>,<em>N</em>-Dimethylamino)butane",
    "cn_name": "N,N-二甲基丁胺;",
    "alternate_name": "1-Butanamine, <em>N</em>,<em>N</em>-dimethyl-;Butylamine, <em>N</em>,<em>N</em>-dimethyl-;<em>N</em>,<em>N</em>-Dimethyl-1-butanamine;<em>N</em>,<em>N</em>-Dimethylbutylamine;Butyldimethylamine;1-(<em>N</em>,<em>N</em>-Dimethylamino)butane;<em>N</em>-Butyldimethylamine;Dimethyl(<em>n</em>-butyl)amine;<em>N</em>-<em>n</em>-Butyldimethylamine;D 1506",
    "duplicated_cas_no": "",
    "SMILES": "C(N(C)C)CCC",
    "meta_data": {
        "InChI": "InChI=1S/C6H15N/c1-4-5-6-7(2)3/h4-6H2,1-3H3",
        "InChIKey": null,
        "Canonical SMILES": "N(C)(C)CCCC",
        "Molecular Formula": "C<sub>6</sub>H<sub>15</sub>N",
        "Molecular Mass": "101.19",
        "Boiling Point": "95 °C",
        "Density": "1.0601 g/cm³ @ Temp: 20 °C"
    }
}