{
    "cas_no": "6202-23-9",
    "key_name": "Cyclobenzaprine hydrochloride",
    "cn_name": "盐酸环苯扎林;5-(3-二甲氨基丙烯)二苯并[a,e]环庚三烯盐酸盐;",
    "alternate_name": "1-Propanamine, 3-(5<em>H</em>-dibenzo[<em>a</em>,<em>d</em>]cyclohepten-5-ylidene)-<em>N</em>,<em>N</em>-dimethyl-, hydrochloride (1:1);5<em>H</em>-Dibenzo[<em>a</em>,<em>d</em>]cycloheptene-Δ<sup>5,γ</sup>-propylamine, <em>N</em>,<em>N</em>-dimethyl-, hydrochloride;1-Propanamine, 3-(5<em>H</em>-dibenzo[<em>a</em>,<em>d</em>]cyclohepten-5-ylidene)-<em>N</em>,<em>N</em>-dimethyl-, hydrochloride;Proheptatriene hydrochloride;MK 130 hydrochloride;10,11δ-Amitriptyline hydrochloride;Cyclobenzaprine hydrochloride;Lisseril;Flexeril;Tensodox;Yurelax;Benzamin;Flexiban;Miosan;Multi-Relax;Tonmya;TNX-102 SL",
    "duplicated_cas_no": "",
    "SMILES": "C(CCN(C)C)=C1C=2C(C=CC=3C1=CC=CC3)=CC=CC2.Cl",
    "meta_data": {
        "InChI": "InChI=1S/C20H21N.ClH/c1-21(2)15-7-12-20-18-10-5-3-8-16(18)13-14-17-9-4-6-11-19(17)20;/h3-6,8-14H,7,15H2,1-2H3;1H",
        "InChIKey": null,
        "Canonical SMILES": "Cl.C=1C=CC2=C(C1)C=CC=3C=CC=CC3C2=CCCN(C)C",
        "Molecular Formula": "C<sub>20</sub>H<sub>21</sub>N.ClH",
        "Molecular Mass": "",
        "Melting Point": "216-218 °C"
    }
}