{
    "cas_no": "2215-89-6",
    "key_name": "4,4′-Oxybis[benzoic acid]",
    "cn_name": "4,4\"-二苯醚二甲酸;4,4\"-二羧酸二苯醚;",
    "alternate_name": "Benzoic acid, 4,4′-oxybis-;Benzoic acid, 4,4′-oxydi-;Benzoic acid, <em>p</em>,<em>p</em>′-oxydi-;Benzoic acid, <em>p</em>,<em>p</em>′-oxybis-;4,4′-Oxybis[benzoic acid];4,4′-Dicarboxydiphenyl oxide;4,4′-Oxydibenzoic acid;4,4′-Dicarboxydiphenyl ether;4-(4-Carboxyphenoxy)benzoic acid;4,4′-Oxydiphenylenedicarboxylic acid;Diphenyl ether-4,4′-dicarboxylic acid;BAS 85763;NSC 39046;4,4′-Biphenyl ether dicarboxylic acid;Di(4-carboxyphenyl) ether;4,4′-Dicarboxy biphenyl ether",
    "duplicated_cas_no": "1352443-82-3",
    "SMILES": "O(C1=CC=C(C(O)=O)C=C1)C2=CC=C(C(O)=O)C=C2",
    "meta_data": {
        "InChI": "InChI=1S/C14H10O5/c15-13(16)9-1-5-11(6-2-9)19-12-7-3-10(4-8-12)14(17)18/h1-8H,(H,15,16)(H,17,18)",
        "InChIKey": null,
        "Canonical SMILES": "O=C(O)C1=CC=C(OC2=CC=C(C=C2)C(=O)O)C=C1",
        "Molecular Formula": "C<sub>14</sub>H<sub>10</sub>O<sub>5</sub>",
        "Molecular Mass": "258.23",
        "Melting Point": "&gt;285 °C"
    }
}