{
    "cas_no": "73183-34-3",
    "key_name": "Bis(pinacolato)diborane",
    "cn_name": "联硼酸频那醇酯;双联频哪醇硼酸酯;频哪醇二硼;",
    "alternate_name": "2,2′-Bi-1,3,2-dioxaborolane, 4,4,4′,4′,5,5,5′,5′-octamethyl-;1,3,2-Dioxaborolane, bimol. deriv.;4,4,4′,4′,5,5,5′,5′-Octamethyl-2,2′-bi-1,3,2-dioxaborolane;Bis(pinacolato)diborane;B<sub>2</sub>Pin<sub>2</sub>;Bis(pinacolato)diborane(4);4,4,5,5,4′,4′,5′,5′-Octamethyl-[2,2′]bi[[1,3,2]dioxaborolanyl];Diboron pinacol ester;Pinacol diborane;4,4,5,5-Tetramethyl-2-(4,4,5,5-tetramethyl-1,3,2-dioxaborolan-2-yl)-1,3,2-dioxaborolane;2-(4,4,5,5-Tetramethyl-1,3,2-dioxaborolan-2-yl)-4,4,5,5-tetramethyl-1,3,2-dioxaborolane;4,4,4′,4′,5,5,5′,5′-Octamethyl-2,2′-bi-1,3,2-dioxaborolan;Bis(pinacolate)diboron;Bis(pinacolato) diborate;4,4′,5,5′-Octamethyl-2,2′-bi-1,3,2-dioxaborolane;Dipinacoldiboron;4,4,4′,4′,5,5,5′,5′-Octamethyl-2,2′-bis(1,3,2-dioxaborolane);4,4,5,5,4′,4′,5′,5′-Octamethyl-2,2′-bis(1,3,2-dioxaborolane);Bis-pinacoldiboron;4,4,5,5-Tetramethyl-2-(tetramethyl-1,3,2-dioxaborolan-2-yl)-1,3,2-dioxaborolane;Bis(4,4,5,5-tetramethyl-[1,3]dioxolan-2-yl)borane;4,4,4′,4′,5,5,5′,5′-Octamethyl-2,2′-bi-1,3,2-dioxaborolane [B<sub>2</sub>(pin)<sub>2</sub>];4,4,5,5-Tetramethyl-1,3,2-dioxaborane;4,4,5,5,4′,4′,5′,5′-octamethyl-2,2′-bi(1,3,2-dioxaborolane);Bis(pinanolato)diboron;4,4,5,5-Tetramethyl-2-(tetramethyl-1,3,2-dioxaborolan-2-yl)-1,3,2-dioxaborolan;Octamethyl-2,2′-bi(1,3,2-dioxaborolane);Bispinacol;4,4,4′,4′,5,5,5′,5′-Octamethyl-2,2′-bi(1,3,2-dioxaborolane);Borane pinacolate",
    "duplicated_cas_no": "1106313-74-9",
    "SMILES": "CC1(C)OB(OC1(C)C)B2OC(C)(C)C(C)(C)O2",
    "meta_data": {
        "InChI": "InChI=1S/C12H24B2O4/c1-9(2)10(3,4)16-13(15-9)14-17-11(5,6)12(7,8)18-14/h1-8H3",
        "InChIKey": null,
        "Canonical SMILES": "O1B(OC(C)(C)C1(C)C)B2OC(C)(C)C(O2)(C)C",
        "Molecular Formula": "C<sub>12</sub>H<sub>24</sub>B<sub>2</sub>O<sub>4</sub>",
        "Molecular Mass": "253.94",
        "Melting Point": "115-117 °C"
    }
}