{
    "cas_no": "760-78-1",
    "key_name": "(±)-Norvaline",
    "cn_name": "DL-正缬氨酸;DL-2-氨基正戊酸;",
    "alternate_name": "Norvaline;Norvaline, <span class=\"text-smallcaps\">DL</span>-;<span class=\"text-smallcaps\">DL</span>-Norvaline;<span class=\"text-smallcaps\">DL</span>-α-Aminovaleric acid;<span class=\"text-smallcaps\">DL</span>-2-Aminovaleric acid;α-<span class=\"text-smallcaps\">DL</span>-Aminopentanoic acid;(±)-Norvaline;(±)-2-Aminopentanoic acid;NSC 7904;20: PN: WO2005055994 PAGE: 50 claimed protein;2-Amino-pentanoic acid;2-Aminopentanoic acid",
    "duplicated_cas_no": "",
    "SMILES": "C(CCC)(C(O)=O)N",
    "meta_data": {
        "InChI": "InChI=1S/C5H11NO2/c1-2-3-4(6)5(7)8/h4H,2-3,6H2,1H3,(H,7,8)",
        "InChIKey": null,
        "Canonical SMILES": "O=C(O)C(N)CCC",
        "Molecular Formula": "C<sub>5</sub>H<sub>11</sub>NO<sub>2</sub>",
        "Molecular Mass": "117.15",
        "Melting Point": "303 °C"
    }
}