{
    "cas_no": "2642-71-9",
    "key_name": "Azinphos-ethyl",
    "cn_name": null,
    "alternate_name": "Phosphorodithioic acid, <em>O</em>,<em>O</em>-diethyl <em>S</em>-[(4-oxo-1,2,3-benzotriazin-3(4<em>H</em>)-yl)methyl] ester;Phosphorodithioic acid, <em>O</em>,<em>O</em>-diethyl ester, <em>S</em>-ester with 3-(mercaptomethyl)-1,2,3-benzotriazin-4(3<em>H</em>)-one;1,2,3-Benzotriazine, phosphorodithioic acid deriv.;R 1513;Bayer 16259;<em>O</em>,<em>O</em>-Diethyl <em>S</em>-(4-oxo-3<em>H</em>-1,2,3-benzotriazine-3-methyl) phosphorodithioate;<em>O</em>,<em>O</em>-Diethyl <em>S</em>-(4-oxobenzotriazino-3-methyl) phosphorodithioate;<em>O</em>,<em>O</em>-Diethyl <em>S</em>-[4-oxo-1,2,3-benzotriazin-3(4<em>H</em>)-ylmethyl] phosphorodithioate;<em>O</em>,<em>O</em>-Diethyl phosphorodithioate S-ester with 3-(mercaptomethyl)-1,2,3-benzotriazin-4-(3<em>H</em>)-one;<em>S</em>-(3,4-Dihydro-4-oxo-1,2,3-benzotriazin-3-ylmethyl) O,<em>O</em>-diethyl phosphorodithioate;Ethyl Guthion;Azinphos-ethyl;Gusathion A;Gusathion ethyl;Ethyl azinphos;<em>S</em>-(3,4-Dihydro-4-oxobenzo[<em>d</em>]-1,2,3-triazin-3-ylmethyl)diethyl phosphorothiolothionate;Guthion ethyl;Ethyl Gusathion;Gusathion H;Gusathion K;Cotnion-ethyl;Gusathion K forte;Azinphos A;Triazothion",
    "duplicated_cas_no": "",
    "SMILES": "O=C1C=2C(N=NN1CSP(OCC)(OCC)=S)=CC=CC2",
    "meta_data": {
        "InChI": "InChI=1S/C12H16N3O3PS2/c1-3-17-19(20,18-4-2)21-9-15-12(16)10-7-5-6-8-11(10)13-14-15/h5-8H,3-4,9H2,1-2H3",
        "InChIKey": null,
        "Canonical SMILES": "O=C1C=2C=CC=CC2N=NN1CSP(=S)(OCC)OCC",
        "Molecular Formula": "C<sub>12</sub>H<sub>16</sub>N<sub>3</sub>O<sub>3</sub>PS<sub>2</sub>",
        "Molecular Mass": "345.38",
        "Boiling Point": "111 °C @ Press: 1 x 10<sup>-3</sup> Torr",
        "Melting Point": "53 °C",
        "Density": "1.284 g/cm³ @ Temp: 20 °C"
    }
}