{
    "cas_no": "1770-80-5",
    "key_name": "Dibutyl chlorendate",
    "cn_name": "二丁基氯菌酸酯;氯菌酸二丁酯;",
    "alternate_name": "Bicyclo[2.2.1]hept-5-ene-2,3-dicarboxylic acid, 1,4,5,6,7,7-hexachloro-, 2,3-dibutyl ester;5-Norbornene-2,3-dicarboxylic acid, 1,4,5,6,7,7-hexachloro-, dibutyl ester;Bicyclo[2.2.1]hept-5-ene-2,3-dicarboxylic acid, 1,4,5,6,7,7-hexachloro-, dibutyl ester;Chlorendic acid dibutyl ester;Dibutyl chlorendate;NSC 5261",
    "duplicated_cas_no": "",
    "SMILES": "ClC12C(C(OCCCC)=O)C(C(OCCCC)=O)C(Cl)(C1(Cl)Cl)C(Cl)=C2Cl",
    "meta_data": {
        "InChI": "InChI=1S/C17H20Cl6O4/c1-3-5-7-26-13(24)9-10(14(25)27-8-6-4-2)16(21)12(19)11(18)15(9,20)17(16,22)23/h9-10H,3-8H2,1-2H3",
        "InChIKey": null,
        "Canonical SMILES": "O=C(OCCCC)C1C(C(=O)OCCCC)C2(Cl)C(Cl)=C(Cl)C1(Cl)C2(Cl)Cl",
        "Molecular Formula": "C<sub>17</sub>H<sub>20</sub>Cl<sub>6</sub>O<sub>4</sub>",
        "Molecular Mass": "501.06",
        "Boiling Point": "218 °C @ Press: 4 Torr"
    }
}