{
    "cas_no": "312-40-3",
    "key_name": "1,1′-(Difluorosilylene)bis[benzene]",
    "cn_name": null,
    "alternate_name": "Benzene, 1,1′-(difluorosilylene)bis-;Silane, difluorodiphenyl-;1,1′-(Difluorosilylene)bis[benzene];Diphenyldifluorosilane;Difluorodiphenylsilane;Diphenylsilane difluoride;NSC 136542",
    "duplicated_cas_no": "",
    "SMILES": "[Si](F)(F)(C1=CC=CC=C1)C2=CC=CC=C2",
    "meta_data": {
        "InChI": "InChI=1S/C12H10F2Si/c13-15(14,11-7-3-1-4-8-11)12-9-5-2-6-10-12/h1-10H",
        "InChIKey": null,
        "Canonical SMILES": "F[Si](F)(C=1C=CC=CC1)C=2C=CC=CC2",
        "Molecular Formula": "C<sub>12</sub>H<sub>10</sub>F<sub>2</sub>Si",
        "Molecular Mass": "220.29",
        "Boiling Point": "156 °C @ Press: 50 Torr",
        "Melting Point": "135 °C",
        "Density": "1.145 g/cm³ @ Temp: 17 °C"
    }
}