{
    "cas_no": "27354-18-3",
    "key_name": "Solvent Red 169",
    "cn_name": "溶剂红169;",
    "alternate_name": "9,10-Anthracenedione, 1-[(1-methylethyl)amino]-;Anthraquinone, 1-(isopropylamino)-;1-[(1-Methylethyl)amino]-9,10-anthracenedione;1-(Isopropylamino)anthraquinone;1-Isopropylamino-9,10-anthracenedione;Solvent Red 169;C.I. 605060;C.I. Solvent Red 169;Amaplast Red PC",
    "duplicated_cas_no": "86835-91-8",
    "SMILES": "N(C(C)C)C1=C2C(C(=O)C=3C(C2=O)=CC=CC3)=CC=C1",
    "meta_data": {
        "InChI": "InChI=1S/C17H15NO2/c1-10(2)18-14-9-5-8-13-15(14)17(20)12-7-4-3-6-11(12)16(13)19/h3-10,18H,1-2H3",
        "InChIKey": null,
        "Canonical SMILES": "O=C1C=2C=CC=CC2C(=O)C=3C(=CC=CC13)NC(C)C",
        "Molecular Formula": "C<sub>17</sub>H<sub>15</sub>NO<sub>2</sub>",
        "Molecular Mass": "265.31",
        "Melting Point": "187-189 °C"
    }
}