{
    "cas_no": "91-22-5",
    "key_name": "Quinoline",
    "cn_name": "喹啉;苯并吡啶;氮杂萘;",
    "alternate_name": "Quinoline;1-Azanaphthalene;1-Benzazine;Benzo[<em>b</em>]pyridine;Leucol;Leukol;Benzopyridine;Quinolin;B 500;Leucoline;NSC 3396",
    "duplicated_cas_no": "20214-07-7",
    "SMILES": "C12=C(C=CC=C1)N=CC=C2",
    "meta_data": {
        "InChI": "InChI=1S/C9H7N/c1-2-6-9-8(4-1)5-3-7-10-9/h1-7H",
        "InChIKey": null,
        "Canonical SMILES": "N=1C=CC=C2C=CC=CC12",
        "Molecular Formula": "C<sub>9</sub>H<sub>7</sub>N",
        "Molecular Mass": "129.16",
        "Boiling Point": "237.7 °C @ Press: 760 Torr",
        "Melting Point": "-14.78 °C",
        "Density": "1.0900 g/cm³ @ Temp: 25 °C"
    }
}