{
    "cas_no": "34732-09-7",
    "key_name": "2,3,4-Trichlorobenzenesulfonyl chloride",
    "cn_name": "2,3,4-三氯苯磺酰氯;",
    "alternate_name": "Benzenesulfonyl chloride, 2,3,4-trichloro-;2,3,4-Trichlorobenzenesulfonyl chloride;2,3,4-Trichlorophenylsulfonyl chloride;2,3,4-Trichlorobenzene-1-sulfonyl chloride",
    "duplicated_cas_no": "",
    "SMILES": "S(Cl)(=O)(=O)C1=C(Cl)C(Cl)=C(Cl)C=C1",
    "meta_data": {
        "InChI": "InChI=1S/C6H2Cl4O2S/c7-3-1-2-4(13(10,11)12)6(9)5(3)8/h1-2H",
        "InChIKey": null,
        "Canonical SMILES": "O=S(=O)(Cl)C1=CC=C(Cl)C(Cl)=C1Cl",
        "Molecular Formula": "C<sub>6</sub>H<sub>2</sub>Cl<sub>4</sub>O<sub>2</sub>S",
        "Molecular Mass": "279.96",
        "Melting Point": "65-66 °C"
    }
}