{
    "cas_no": "152-47-6",
    "key_name": "Sulfalene",
    "cn_name": "磺胺林;磺胺甲氧吡嗪;2-(对氨基苯磺酰氨基)-3-甲氧基吡嗪;",
    "alternate_name": "Benzenesulfonamide, 4-amino-<em>N</em>-(3-methoxy-2-pyrazinyl)-;Sulfanilamide, <em>N</em><sup>1</sup>-(3-methoxypyrazinyl)-;Benzenesulfonamide, 4-amino-<em>N</em>-(3-methoxypyrazinyl)-;4-Amino-<em>N</em>-(3-methoxy-2-pyrazinyl)benzenesulfonamide;F.I. 5978;AS 18908;Kelfizin;Kelfizina;3-Methoxypyrazine sulfanilamide;N<sup>1</sup>-(3-Methoxy-2-pyrazinyl)sulfanilamide;3-Methoxy-2-sulfapyrazine;SMP<sub>2</sub>;Sulfalene;Sulfamethopyrazine;Sulfamethoxypyrazine;Sulfametopyrazine;2-Sulfanilamido-3-methoxypyrazine;Sulfapyrazinemethoxine;Sulfapyrazinemethoxyne;Polycidal;3-Methoxy-2-sulfanilamidopyrazine;Sulfapyrazinemethoxyine;2-Methoxy-3-sulfanilamidopyrazine;Kelfizine W;Longum;Farmitalia 204/122;Policydal;Dalysep;NSC 110433;Vetkelfizina;MeSH ID: D013415",
    "duplicated_cas_no": "",
    "SMILES": "S(NC=1C(OC)=NC=CN1)(=O)(=O)C2=CC=C(N)C=C2",
    "meta_data": {
        "InChI": "InChI=1S/C11H12N4O3S/c1-18-11-10(13-6-7-14-11)15-19(16,17)9-4-2-8(12)3-5-9/h2-7H,12H2,1H3,(H,13,15)",
        "InChIKey": null,
        "Canonical SMILES": "O=S(=O)(NC1=NC=CN=C1OC)C2=CC=C(N)C=C2",
        "Molecular Formula": "C<sub>11</sub>H<sub>12</sub>N<sub>4</sub>O<sub>3</sub>S",
        "Molecular Mass": "280.30",
        "Melting Point": "176 °C"
    }
}