{
    "cas_no": "7558-80-7",
    "key_name": "Monosodium phosphate",
    "cn_name": "磷酸二氢钠;",
    "alternate_name": "Phosphoric acid, sodium salt (1:1);Phosphoric acid, monosodium salt;Monosodium phosphate;Sodium phosphate (Na(H<sub>2</sub>PO<sub>4</sub>));Monobasic sodium phosphate;Dihydrogen sodium phosphate;Sodium dihydrogen orthophosphate;Sodium phosphate, monobasic;Sodium dihydrogen monophosphate;Monosodium dihydrogen orthophosphate;Sodium monobasic phosphate (NaH<sub>2</sub>PO<sub>4</sub>);Sodium primary phosphate;Monosodium hydrogen phosphate;Sodium dihydrogen phosphate (NaH<sub>2</sub>PO<sub>4</sub>);Sodium dihydrogen phosphate;Sodium hydrogen phosphate (NaH<sub>2</sub>PO<sub>4</sub>);Monobasic sodium phosphate (NaH<sub>2</sub>PO<sub>4</sub>);Dihydrogen monosodium phosphate;Sodium orthophosphate monobasic;Sodium monobasic phosphate;S 3139;MSP 2040",
    "duplicated_cas_no": "1333-80-8;89140-32-9;943540-07-6",
    "SMILES": "P(=O)(O)(O)O.[Na]",
    "meta_data": {
        "InChI": "InChI=1S/Na.H3O4P/c;1-5(2,3)4/h;(H3,1,2,3,4)",
        "InChIKey": null,
        "Canonical SMILES": "[Na].O=P(O)(O)O",
        "Molecular Formula": "H<sub>3</sub>O<sub>4</sub>P.Na",
        "Molecular Mass": "",
        "Melting Point": "60 °C"
    }
}