{
    "cas_no": "105779-78-0",
    "key_name": "Pyrimidifen",
    "cn_name": "嘧螨醚;5-氯-N-[2-[4-(2-乙氧基乙基)-2,3-二甲基苯氧]乙基]-6-乙基嘧啶-4-胺;",
    "alternate_name": "4-Pyrimidinamine, 5-chloro-<em>N</em>-[2-[4-(2-ethoxyethyl)-2,3-dimethylphenoxy]ethyl]-6-ethyl-;5-Chloro-<em>N</em>-[2-[4-(2-ethoxyethyl)-2,3-dimethylphenoxy]ethyl]-6-ethyl-4-pyrimidinamine;Pyrimidifen;Miteclean",
    "duplicated_cas_no": "1163378-32-2;1163378-33-3;1163378-34-4;1163378-35-5;1163378-36-6;1163378-37-7;1163378-38-8",
    "SMILES": "O(CCNC=1C(Cl)=C(CC)N=CN1)C2=C(C)C(C)=C(CCOCC)C=C2",
    "meta_data": {
        "InChI": "InChI=1S/C20H28ClN3O2/c1-5-17-19(21)20(24-13-23-17)22-10-12-26-18-8-7-16(9-11-25-6-2)14(3)15(18)4/h7-8,13H,5-6,9-12H2,1-4H3,(H,22,23,24)",
        "InChIKey": null,
        "Canonical SMILES": "ClC=1C(=NC=NC1CC)NCCOC2=CC=C(C(=C2C)C)CCOCC",
        "Molecular Formula": "C<sub>20</sub>H<sub>28</sub>ClN<sub>3</sub>O<sub>2</sub>",
        "Molecular Mass": "377.91",
        "Melting Point": "70 °C"
    }
}