{
    "cas_no": "86404-63-9",
    "key_name": "1-(2,4-Difluorophenyl)-2-(1<em>H</em>-1,2,4-triazol-1-yl)ethanone",
    "cn_name": "2\"4\"-二氟-2-[1-(1H-1,2,4-三唑基)]苯乙酮;2-(1H-1,2,4-三氮唑)-2,4-二氟苯乙酮;",
    "alternate_name": "Ethanone, 1-(2,4-difluorophenyl)-2-(1<em>H</em>-1,2,4-triazol-1-yl)-;1-(2,4-Difluorophenyl)-2-(1<em>H</em>-1,2,4-triazol-1-yl)ethanone;2′,4′-Difluoro-2-(1,2,4-triazol-1-yl)acetophenone;1-(2,4-Difluorophenyl)-2-(1<em>H</em>-1,2,4-triazol-1-yl)-1-ethanone;UK 51060;2′,4′-Difluoro-2-(1<em>H</em>-1,2,4-triazol-1-yl)acetophenone;1-(2,4-Difluorophenyl)-2-(4<em>H</em>-1,3,4-triazol-4-yl)ethan-1-one;1-(2,4-Difluorophenyl)-2-(1,2,4-triazol-1-yl)ethanone",
    "duplicated_cas_no": "201999-21-5",
    "SMILES": "C(CN1C=NC=N1)(=O)C2=C(F)C=C(F)C=C2",
    "meta_data": {
        "InChI": "InChI=1S/C10H7F2N3O/c11-7-1-2-8(9(12)3-7)10(16)4-15-6-13-5-14-15/h1-3,5-6H,4H2",
        "InChIKey": null,
        "Canonical SMILES": "O=C(C1=CC=C(F)C=C1F)CN2N=CN=C2",
        "Molecular Formula": "C<sub>10</sub>H<sub>7</sub>F<sub>2</sub>N<sub>3</sub>O",
        "Molecular Mass": "223.18",
        "Melting Point": "94-96 °C"
    }
}