{
    "cas_no": "2315-20-0",
    "key_name": "Hydrazinecarboximidamide, 2-[3-(5-nitro-2-furanyl)-1-[2-(5-nitro-2-furanyl)ethenyl]-2-propen-1-ylidene]-, hydrochloride (1:1)",
    "cn_name": "硝呋烯腙盐酸盐;1,5-双(5-硝基-2-呋喃基)-1,4-戊二烯-3-氨基腙盐酸盐;",
    "alternate_name": "Hydrazinecarboximidamide, 2-[3-(5-nitro-2-furanyl)-1-[2-(5-nitro-2-furanyl)ethenyl]-2-propen-1-ylidene]-, hydrochloride (1:1);Guanidine, [[3-(5-nitro-2-furyl)-1-[2-(5-nitro-2-furyl)vinyl]allylidene]amino]-, monohydrochloride;Hydrazinecarboximidamide, 2-[3-(5-nitro-2-furanyl)-1-[2-(5-nitro-2-furanyl)ethenyl]-2-propenylidene]-, monohydrochloride;Payzone;1,5-Bis(5-nitro-2-furyl)penta-1,4-dien-3-one amidinohydrazone hydrochloride;Panazon;IF 326;Payzone 250",
    "duplicated_cas_no": "",
    "SMILES": "C(=CC(C=CC=1OC(N(=O)=O)=CC1)=NNC(=N)N)C=2OC(N(=O)=O)=CC2.Cl",
    "meta_data": {
        "InChI": "InChI=1S/C14H12N6O6.ClH/c15-14(16)18-17-9(1-3-10-5-7-12(25-10)19(21)22)2-4-11-6-8-13(26-11)20(23)24;/h1-8H,(H4,15,16,18);1H",
        "InChIKey": null,
        "Canonical SMILES": "Cl.O=N(=O)C=1OC(C=CC(=NNC(=N)N)C=CC=2OC(=CC2)N(=O)=O)=CC1",
        "Molecular Formula": "C<sub>14</sub>H<sub>12</sub>N<sub>6</sub>O<sub>6</sub>.ClH",
        "Molecular Mass": "",
        "Melting Point": "280 °C (decomp)"
    }
}