{
    "cas_no": "2346-81-8",
    "key_name": "3-Chlorohexane",
    "cn_name": "3-氯己烷;3-氯(正)己烷;",
    "alternate_name": "Hexane, 3-chloro-;3-Chlorohexane;3(<em>RS</em>)-Chlorohexane;(±)-3-Chlorohexane",
    "duplicated_cas_no": "128399-27-9",
    "SMILES": "C(CCC)(CC)Cl",
    "meta_data": {
        "InChI": "InChI=1S/C6H13Cl/c1-3-5-6(7)4-2/h6H,3-5H2,1-2H3",
        "InChIKey": null,
        "Canonical SMILES": "ClC(CC)CCC",
        "Molecular Formula": "C<sub>6</sub>H<sub>13</sub>Cl",
        "Molecular Mass": "120.62",
        "Boiling Point": "123 °C",
        "Density": "0.870 g/cm³ @ Temp: 20 °C"
    }
}