{
    "cas_no": "5006-22-4",
    "key_name": "Cyclobutanecarbonyl chloride",
    "cn_name": "环丁基甲酰氯;",
    "alternate_name": "Cyclobutanecarbonyl chloride;Cyclobutanecarboxylic acid chloride;Cyclobutanoyl chloride;Cyclobutylcarbonyl chloride;Cyclobutylcarboxylic acid chloride;NSC 93778;Cyclobutanecarboxylic chloride",
    "duplicated_cas_no": "2137039-56-4",
    "SMILES": "C(Cl)(=O)C1CCC1",
    "meta_data": {
        "InChI": "InChI=1S/C5H7ClO/c6-5(7)4-2-1-3-4/h4H,1-3H2",
        "InChIKey": null,
        "Canonical SMILES": "O=C(Cl)C1CCC1",
        "Molecular Formula": "C<sub>5</sub>H<sub>7</sub>ClO",
        "Molecular Mass": "118.56",
        "Boiling Point": "137 °C @ Press: 750 Torr"
    }
}