{
    "cas_no": "3543-73-5",
    "key_name": "Ethyl 5-amino-1-methyl-1<em>H</em>-benzimidazole-2-butanoate",
    "cn_name": null,
    "alternate_name": "1<em>H</em>-Benzimidazole-2-butanoic acid, 5-amino-1-methyl-, ethyl ester;2-Benzimidazolebutyric acid, 5-amino-1-methyl-, ethyl ester;Ethyl 5-amino-1-methyl-1<em>H</em>-benzimidazole-2-butanoate;4-[5-Amino-1-methylbenzimidazol-2-yl]butanoic acid ethyl ester;Ethyl 1-methyl-5-amino-1<em>H</em>-benzimidazole-2-butanoate",
    "duplicated_cas_no": "",
    "SMILES": "CN1C=2C(N=C1CCCC(OCC)=O)=CC(N)=CC2",
    "meta_data": {
        "InChI": "InChI=1S/C14H19N3O2/c1-3-19-14(18)6-4-5-13-16-11-9-10(15)7-8-12(11)17(13)2/h7-9H,3-6,15H2,1-2H3",
        "InChIKey": null,
        "Canonical SMILES": "O=C(OCC)CCCC1=NC=2C=C(N)C=CC2N1C",
        "Molecular Formula": "C<sub>14</sub>H<sub>19</sub>N<sub>3</sub>O<sub>2</sub>",
        "Molecular Mass": "261.32",
        "Melting Point": "130.5-132.0 °C"
    }
}