{
    "cas_no": "2033-76-3",
    "key_name": "1-(2-Bromoethoxy)-4-chlorobenzene",
    "cn_name": "1-(2-溴乙氧基)-4-氯苯;",
    "alternate_name": "Benzene, 1-(2-bromoethoxy)-4-chloro-;Phenetole, β-bromo-<em>p</em>-chloro-;1-(2-Bromoethoxy)-4-chlorobenzene;β-Bromo-<em>p</em>-chlorophenetole;2-(<em>p</em>-Chlorophenoxy)ethyl bromide;4-Chlorophenoxyethyl bromide;1-Bromo-2-(4-chlorophenoxy)ethane;2-(4-Chlorophenoxy)ethyl bromide;4-(2-Bromoethoxy)-1-chlorobenzene;NSC 404198;2-Bromoethyl 4-chlorophenyl ether;4-Chlorophenyl 2-bromoethyl ether",
    "duplicated_cas_no": "",
    "SMILES": "O(CCBr)C1=CC=C(Cl)C=C1",
    "meta_data": {
        "InChI": "InChI=1S/C8H8BrClO/c9-5-6-11-8-3-1-7(10)2-4-8/h1-4H,5-6H2",
        "InChIKey": null,
        "Canonical SMILES": "ClC1=CC=C(OCCBr)C=C1",
        "Molecular Formula": "C<sub>8</sub>H<sub>8</sub>BrClO",
        "Molecular Mass": "235.51",
        "Boiling Point": "165-168 °C @ Press: 20 Torr",
        "Melting Point": "40-41 °C"
    }
}