{
    "cas_no": "515-98-0",
    "key_name": "Ammonium lactate",
    "cn_name": "乳酸铵;",
    "alternate_name": "Propanoic acid, 2-hydroxy-, ammonium salt (1:1);Ammonium lactate;Lactic acid, monoammonium salt;Propanoic acid, 2-hydroxy-, monoammonium salt;Ammonium 2-hydroxypropionate;W 1001-10;Lac-Hydrin;BMS 186091;(±)-Ammonium lactate",
    "duplicated_cas_no": "2501-35-1;52003-58-4;302911-81-5;890090-79-6",
    "SMILES": "C(C(O)=O)(C)O.N",
    "meta_data": {
        "InChI": "InChI=1S/C3H6O3.H3N/c1-2(4)3(5)6;/h2,4H,1H3,(H,5,6);1H3",
        "InChIKey": null,
        "Canonical SMILES": "O=C(O)C(O)C.N",
        "Molecular Formula": "C<sub>3</sub>H<sub>6</sub>O<sub>3</sub>.H<sub>3</sub>N",
        "Molecular Mass": "",
        "Boiling Point": "74 °C @ Press: 0.14 Torr",
        "Melting Point": "91-94 °C"
    }
}