{
    "cas_no": "590-17-0",
    "key_name": "Bromoacetonitrile",
    "cn_name": "溴乙腈;",
    "alternate_name": "Acetonitrile, 2-bromo-;Acetonitrile, bromo-;2-Bromoacetonitrile;Bromoacetonitrile;Bromomethyl cyanide;Cyanomethyl bromide",
    "duplicated_cas_no": "31074-85-8",
    "SMILES": "C(C#N)Br",
    "meta_data": {
        "InChI": "InChI=1S/C2H2BrN/c3-1-2-4/h1H2",
        "InChIKey": null,
        "Canonical SMILES": "N#CCBr",
        "Molecular Formula": "C<sub>2</sub>H<sub>2</sub>BrN",
        "Molecular Mass": "119.95",
        "Boiling Point": "60-62 °C @ Press: 24 Torr"
    }
}