{
    "cas_no": "636-97-5",
    "key_name": "4-Nitrobenzoic acid hydrazide",
    "cn_name": "4-硝基苯肼;",
    "alternate_name": "Benzoic acid, 4-nitro-, hydrazide;Benzoic acid, <em>p</em>-nitro-, hydrazide;<em>p</em>-Nitrobenzhydrazide;(<em>p</em>-Nitrobenzoyl)hydrazine;<em>p</em>-Nitrobenzohydrazide;4-Nitrobenzohydrazide;4-Nitrobenzoyl hydrazide;4-Nitrobenzoylhydrazine;<em>p</em>-Nitrobenzoic hydrazide;<em>p</em>-Nitrobenzoyl hydrazide;4-Nitrobenzoic acid hydrazide;4-Nitrobenzenecarboxylic acid hydrazide;<em>p</em>-Nitrobenzoic acid hydrazide;4-Nitrobenzoic hydrazide;NSC 9804;4-Nitrobenzhydrazide;INHd 18;4-Nitrobenzocarboxyhydrazide",
    "duplicated_cas_no": "",
    "SMILES": "C(NN)(=O)C1=CC=C(N(=O)=O)C=C1",
    "meta_data": {
        "InChI": "InChI=1S/C7H7N3O3/c8-9-7(11)5-1-3-6(4-2-5)10(12)13/h1-4H,8H2,(H,9,11)",
        "InChIKey": null,
        "Canonical SMILES": "O=C(NN)C1=CC=C(C=C1)N(=O)=O",
        "Molecular Formula": "C<sub>7</sub>H<sub>7</sub>N<sub>3</sub>O<sub>3</sub>",
        "Molecular Mass": "181.15",
        "Melting Point": "218 °C (decomp)"
    }
}