{
    "cas_no": "89331-94-2",
    "key_name": "6′-(Dibutylamino)-3′-methyl-2′-(phenylamino)spiro[isobenzofuran-1(3<em>H</em>),9′-[9<em>H</em>]xanthen]-3-one",
    "cn_name": "2-苯氨基-3-甲基-6-二丁氨基荧烷;黑色素-2;ODB-2;CK-68;",
    "alternate_name": "Spiro[isobenzofuran-1(3<em>H</em>),9′-[9<em>H</em>]xanthen]-3-one, 6′-(dibutylamino)-3′-methyl-2′-(phenylamino)-;6′-(Dibutylamino)-3′-methyl-2′-(phenylamino)spiro[isobenzofuran-1(3<em>H</em>),9′-[9<em>H</em>]xanthen]-3-one;3-Di-<em>n</em>-butylamino-6-methyl-7-anilinofluoran;3′-(Dibutylamino)-6′-methyl-7′-anilinofluoran;7′-Anilino-3′-(dibutylamino)-6′-methylfluoran;ODB 2;7-Anilino-3-(dibutylamino)-6-methylfluoran;3-Dibutylamino-6-methyl-7-phenylaminofluoran;2-Anilino-3-methyl-6-(di-<em>n</em>-butylamino)fluoran;3-Dibutylamino-6-methyl-7-anilinofluoran;2-Anilino-6-di-<em>n</em>-butylamino-3-methylfluoran;H 638;2-Anilino-6-dibutylamino-3-methylfluoran;2-Anilino-3-methyl-6-(dibutylamino)fluoran;Copikem 34 Black;Copikem 34;2′-Anilino-3′-methyl-6′-(dibutylamino)fluoran;H 272;BK 400;Pergascript Black 2C;2-Phenylamino-3-methyl-6-(di-<em>n</em>-butylamino)fluorane;Wincon 2;Black 400;CK 68;Chameleon Black 2;2′-Anilino-6′-(dibutylamino)-3′-methylspiro[2-benzofuran-3,9′-xanthene]-1-one;3-(<em>N</em>,<em>N</em>-Dibutylamino)-6-methyl-7-anilinofluoran",
    "duplicated_cas_no": "141262-19-3;379224-91-6",
    "SMILES": "O=C1OC2(C=3C(OC=4C2=CC=C(N(CCCC)CCCC)C4)=CC(C)=C(NC5=CC=CC=C5)C3)C=6C1=CC=CC6",
    "meta_data": {
        "InChI": "InChI=1S/C35H36N2O3/c1-4-6-19-37(20-7-5-2)26-17-18-29-33(22-26)39-32-21-24(3)31(36-25-13-9-8-10-14-25)23-30(32)35(29)28-16-12-11-15-27(28)34(38)40-35/h8-18,21-23,36H,4-7,19-20H2,1-3H3",
        "InChIKey": null,
        "Canonical SMILES": "O=C1OC2(C3=CC=C(C=C3OC=4C=C(C(=CC42)NC=5C=CC=CC5)C)N(CCCC)CCCC)C=6C=CC=CC16",
        "Molecular Formula": "C<sub>35</sub>H<sub>36</sub>N<sub>2</sub>O<sub>3</sub>",
        "Molecular Mass": "532.67",
        "Melting Point": "181.5-183.5 °C"
    }
}