{
    "cas_no": "1361110-64-6",
    "key_name": "3,4-Dihydro-7-(4,4,5,5-tetramethyl-1,3,2-dioxaborolan-2-yl)-2<em>H</em>-1,4-benzoxazine",
    "cn_name": null,
    "alternate_name": "2<em>H</em>-1,4-Benzoxazine, 3,4-dihydro-7-(4,4,5,5-tetramethyl-1,3,2-dioxaborolan-2-yl)-;3,4-Dihydro-7-(4,4,5,5-tetramethyl-1,3,2-dioxaborolan-2-yl)-2<em>H</em>-1,4-benzoxazine",
    "duplicated_cas_no": "",
    "SMILES": "CC1(C)OB(OC1(C)C)C=2C=C3C(=CC2)NCCO3",
    "meta_data": {
        "InChI": "InChI=1S/C14H20BNO3/c1-13(2)14(3,4)19-15(18-13)10-5-6-11-12(9-10)17-8-7-16-11/h5-6,9,16H,7-8H2,1-4H3",
        "InChIKey": null,
        "Canonical SMILES": "O1B(OC(C)(C)C1(C)C)C2=CC=C3NCCOC3=C2",
        "Molecular Formula": "C<sub>14</sub>H<sub>20</sub>BNO<sub>3</sub>",
        "Molecular Mass": "261.12",
        "Melting Point": "120 °C"
    }
}