{
    "cas_no": "36748-89-7",
    "key_name": "2-Iodobenzothiophene",
    "cn_name": null,
    "alternate_name": "Benzo[<em>b</em>]thiophene, 2-iodo-;2-Iodobenzo[<em>b</em>]thiophene;2-Iodo-1-benzothiophene;2-Iodobenzothiophene;2-Iodobenzo(b)thiophene",
    "duplicated_cas_no": "",
    "SMILES": "IC1=CC=2C(S1)=CC=CC2",
    "meta_data": {
        "InChI": "InChI=1S/C8H5IS/c9-8-5-6-3-1-2-4-7(6)10-8/h1-5H",
        "InChIKey": null,
        "Canonical SMILES": "IC=1SC=2C=CC=CC2C1",
        "Molecular Formula": "C<sub>8</sub>H<sub>5</sub>IS",
        "Molecular Mass": "260.09",
        "Boiling Point": "119-120 °C @ Press: 1.6 Torr",
        "Melting Point": "59-62 °C"
    }
}