{
    "cas_no": "2403-89-6",
    "key_name": "1,2,2,6,6-Pentamethyl-4-piperidinol",
    "cn_name": "五甲基哌啶醇;1,2,2,6,6-五甲基哌啶醇;",
    "alternate_name": "4-Piperidinol, 1,2,2,6,6-pentamethyl-;1,2,2,6,6-Pentamethyl-4-piperidinol;1,2,2,6,6-Pentamethyl-4-hydroxypiperidine;4-Hydroxy-1,2,2,6,6-pentamethylpiperidine;HOPEMP;NSC 364075;<em>N</em>-Methyl-4-hydroxy-2,2,6,6-tetramethylpiperidine",
    "duplicated_cas_no": "",
    "SMILES": "CN1C(C)(C)CC(O)CC1(C)C",
    "meta_data": {
        "InChI": "InChI=1S/C10H21NO/c1-9(2)6-8(12)7-10(3,4)11(9)5/h8,12H,6-7H2,1-5H3",
        "InChIKey": null,
        "Canonical SMILES": "OC1CC(N(C)C(C)(C)C1)(C)C",
        "Molecular Formula": "C<sub>10</sub>H<sub>21</sub>NO",
        "Molecular Mass": "171.28",
        "Boiling Point": "122-125 °C @ Press: 12 Torr",
        "Melting Point": "70-72 °C"
    }
}