{
    "cas_no": "15903-94-3",
    "key_name": "6-(Phenylmethoxy)-1<em>H</em>-indole",
    "cn_name": "6-苄氧基吲哚;",
    "alternate_name": "1<em>H</em>-Indole, 6-(phenylmethoxy)-;Indole, 6-(benzyloxy)-;6-(Phenylmethoxy)-1<em>H</em>-indole;6-(Benzyloxy)indole;6-(Benzyloxy)-1<em>H</em>-indole;NSC 92538",
    "duplicated_cas_no": "",
    "SMILES": "O(CC1=CC=CC=C1)C=2C=C3C(=CC2)C=CN3",
    "meta_data": {
        "InChI": "InChI=1S/C15H13NO/c1-2-4-12(5-3-1)11-17-14-7-6-13-8-9-16-15(13)10-14/h1-10,16H,11H2",
        "InChIKey": null,
        "Canonical SMILES": "O(C=1C=CC=2C=CNC2C1)CC=3C=CC=CC3",
        "Molecular Formula": "C<sub>15</sub>H<sub>13</sub>NO",
        "Molecular Mass": "223.27",
        "Melting Point": "111-112 °C"
    }
}