{
    "cas_no": "34334-69-5",
    "key_name": "Cirsiliol",
    "cn_name": null,
    "alternate_name": "4<em>H</em>-1-Benzopyran-4-one, 2-(3,4-dihydroxyphenyl)-5-hydroxy-6,7-dimethoxy-;Flavone, 3′,4′,5-trihydroxy-6,7-dimethoxy-;2-(3,4-Dihydroxyphenyl)-5-hydroxy-6,7-dimethoxy-4<em>H</em>-1-benzopyran-4-one;6-Methoxyluteolin 7-methyl ether;Cirsiliol;5,3′,4′-Trihydroxy-6,7-dimethoxyflavone;6,7-Dimethoxy-5,3′,4′-trihydroxyflavone;6-Hydroxyluteolin-6,7-dimethyl ether;Crisiliol;3′,4′,5-Trihydroxy-6,7-dimethoxyflavone;SML 0953;2-(3,4-Dihydroxyphenyl)-5-hydroxy-6,7-dimethoxychromen-4-one",
    "duplicated_cas_no": "1640243-16-8",
    "SMILES": "OC1=C2C(OC(=CC2=O)C3=CC(O)=C(O)C=C3)=CC(OC)=C1OC",
    "meta_data": {
        "InChI": "InChI=1S/C17H14O7/c1-22-14-7-13-15(16(21)17(14)23-2)11(20)6-12(24-13)8-3-4-9(18)10(19)5-8/h3-7,18-19,21H,1-2H3",
        "InChIKey": null,
        "Canonical SMILES": "O=C1C=C(OC=2C=C(OC)C(OC)=C(O)C12)C=3C=CC(O)=C(O)C3",
        "Molecular Formula": "C<sub>17</sub>H<sub>14</sub>O<sub>7</sub>",
        "Molecular Mass": "330.29",
        "Melting Point": "280-281.5 °C"
    }
}