{
    "cas_no": "554-94-9",
    "key_name": "Glycyl-<span class=\"text-smallcaps\">L</span>-methionine",
    "cn_name": null,
    "alternate_name": "<span class=\"text-smallcaps\">L</span>-Methionine, glycyl-;Methionine, <em>N</em>-glycyl-, <span class=\"text-smallcaps\">L</span>-;<span class=\"text-smallcaps\">L</span>-Methionine, <em>N</em>-glycyl-;Glycyl-<span class=\"text-smallcaps\">L</span>-methionine;Glycylmethionine;<em>N</em>-Glycylmethionine;NSC 88866;202: PN: EP2161028 PAGE: 11 claimed protein;6: PN: WO2017095140 PAGE: 4 claimed sequence;(2S)-2-[(2-Azaniumylacetyl)amino]-4-methylsulfanylbutanoate;(2S)-2-(2-Aminoacetamido)-4-(methylsulfanyl)butanoic acid;43: PN: WO2020097235 SEQID: 272 claimed protein;6: PN: WO2022093718 PAGE: 104 claimed sequence;469: PN: WO2022125673 SEQID: 469 claimed protein;113: PN: WO2023161197 SEQID: 115 claimed sequence",
    "duplicated_cas_no": "",
    "SMILES": "[C@H](NC(CN)=O)(CCSC)C(O)=O",
    "meta_data": {
        "InChI": "InChI=1S/C7H14N2O3S/c1-13-3-2-5(7(11)12)9-6(10)4-8/h5H,2-4,8H2,1H3,(H,9,10)(H,11,12)/t5-/m0/s1",
        "InChIKey": null,
        "Canonical SMILES": "O=C(O)C(NC(=O)CN)CCSC",
        "Molecular Formula": "C<sub>7</sub>H<sub>14</sub>N<sub>2</sub>O<sub>3</sub>S",
        "Molecular Mass": "206.26",
        "Melting Point": "140-145 °C"
    }
}