{
    "cas_no": "6659-45-6",
    "key_name": "(2<em>R</em>,6a<em>S</em>,12a<em>S</em>)-1,2,12,12a-Tetrahydro-8,9-dimethoxy-2-(1-methylethyl)[1]benzopyrano[3,4-<em>b</em>]furo[2,3-<em>h</em>][1]benzopyran-6(6a<em>H</em>)-one",
    "cn_name": null,
    "alternate_name": "[1]Benzopyrano[3,4-<em>b</em>]furo[2,3-<em>h</em>][1]benzopyran-6(6a<em>H</em>)-one, 1,2,12,12a-tetrahydro-8,9-dimethoxy-2-(1-methylethyl)-, (2<em>R</em>,6a<em>S</em>,12a<em>S</em>)-;[1]Benzopyrano[3,4-<em>b</em>]furo[2,3-<em>h</em>][1]benzopyran-6(6aα<em>H</em>)-one, 1,2,12,12aα-tetrahydro-2α-isopropyl-8,9-dimethoxy-;[1]Benzopyrano[3,4-<em>b</em>]furo[2,3-<em>h</em>][1]benzopyran-6(6a<em>H</em>)-one, 1,2,12,12a-tetrahydro-8,9-dimethoxy-2-(1-methylethyl)-, [2<em>R</em>-(2α,6aα,12aα)]-;(2<em>R</em>,6a<em>S</em>,12a<em>S</em>)-1,2,12,12a-Tetrahydro-8,9-dimethoxy-2-(1-methylethyl)[1]benzopyrano[3,4-<em>b</em>]furo[2,3-<em>h</em>][1]benzopyran-6(6a<em>H</em>)-one;Dihydrorotenone;1′,2′-Dihydrorotenone;NSC 351138;NSC 53866",
    "duplicated_cas_no": "12379-65-6",
    "SMILES": "O=C1C=2C(=C3C(O[C@@H](C(C)C)C3)=CC2)O[C@]4([C@@]1(C=5C(OC4)=CC(OC)=C(OC)C5)[H])[H]",
    "meta_data": {
        "InChI": "InChI=1S/C23H24O6/c1-11(2)16-8-14-15(28-16)6-5-12-22(24)21-13-7-18(25-3)19(26-4)9-17(13)27-10-20(21)29-23(12)14/h5-7,9,11,16,20-21H,8,10H2,1-4H3/t16-,20-,21+/m1/s1",
        "InChIKey": null,
        "Canonical SMILES": "O=C1C2=CC=C3OC(CC3=C2OC4COC5=CC(OC)=C(OC)C=C5C14)C(C)C",
        "Molecular Formula": "C<sub>23</sub>H<sub>24</sub>O<sub>6</sub>",
        "Molecular Mass": "396.43",
        "Melting Point": "216 °C"
    }
}