{
    "cas_no": "825-52-5",
    "key_name": "2-(Hydroxyimino)-2-phenylacetonitrile",
    "cn_name": "2-羟亚胺基-2-苯乙腈;",
    "alternate_name": "Benzeneacetonitrile, α-(hydroxyimino)-;Glyoxylonitrile, phenyl-, oxime;α-(Hydroxyimino)benzeneacetonitrile;2-Phenylglyoxylonitrile 2-oxime;2-(Hydroxyimino)-2-phenylacetonitrile;Oximinophenylacetonitrile;Benzoyl cyanide oxime",
    "duplicated_cas_no": "",
    "SMILES": "C(C#N)(=NO)C1=CC=CC=C1",
    "meta_data": {
        "InChI": "InChI=1S/C8H6N2O/c9-6-8(10-11)7-4-2-1-3-5-7/h1-5,11H",
        "InChIKey": null,
        "Canonical SMILES": "N#CC(=NO)C=1C=CC=CC1",
        "Molecular Formula": "C<sub>8</sub>H<sub>6</sub>N<sub>2</sub>O",
        "Molecular Mass": "146.15",
        "Melting Point": "129 °C"
    }
}