{
    "cas_no": "2643-07-4",
    "key_name": "4-[(2-Chloroethyl)ethylamino]benzaldehyde",
    "cn_name": "N-乙基-N-氯乙基-4-氨基苯甲醛;",
    "alternate_name": "Benzaldehyde, 4-[(2-chloroethyl)ethylamino]-;Benzaldehyde, <em>p</em>-[(2-chloroethyl)ethylamino]-;4-[(2-Chloroethyl)ethylamino]benzaldehyde;NSC 73020",
    "duplicated_cas_no": "",
    "SMILES": "N(CCCl)(CC)C1=CC=C(C=O)C=C1",
    "meta_data": {
        "InChI": "InChI=1S/C11H14ClNO/c1-2-13(8-7-12)11-5-3-10(9-14)4-6-11/h3-6,9H,2,7-8H2,1H3",
        "InChIKey": null,
        "Canonical SMILES": "O=CC1=CC=C(C=C1)N(CC)CCCl",
        "Molecular Formula": "C<sub>11</sub>H<sub>14</sub>ClNO",
        "Molecular Mass": "211.69",
        "Boiling Point": "162 °C @ Press: 0.02 Torr"
    }
}