{
    "cas_no": "29528-30-1",
    "key_name": "2-(2-Pyridinyl)benzenamine",
    "cn_name": null,
    "alternate_name": "Benzenamine, 2-(2-pyridinyl)-;Pyridine, 2-(<em>o</em>-aminophenyl)-;2-(2-Pyridinyl)benzenamine;2-(2-Pyridyl)aniline;2-(2-Aminophenyl)pyridine;2-(2-Pyridinyl)aniline",
    "duplicated_cas_no": "",
    "SMILES": "NC1=C(C2=CC=CC=N2)C=CC=C1",
    "meta_data": {
        "InChI": "InChI=1S/C11H10N2/c12-10-6-2-1-5-9(10)11-7-3-4-8-13-11/h1-8H,12H2",
        "InChIKey": null,
        "Canonical SMILES": "N=1C=CC=CC1C=2C=CC=CC2N",
        "Molecular Formula": "C<sub>11</sub>H<sub>10</sub>N<sub>2</sub>",
        "Molecular Mass": "170.21",
        "Melting Point": "77-78 °C"
    }
}