{
    "cas_no": "112068-01-6",
    "key_name": "α,α-Diphenyl-<span class=\"text-smallcaps\">L</span>-prolinol",
    "cn_name": "(S)-(+)-alpha,alpha-二苯基脯氨醇;",
    "alternate_name": "2-Pyrrolidinemethanol, α,α-diphenyl-, (2<em>S</em>)-;2-Pyrrolidinemethanol, α,α-diphenyl-, (<em>S</em>)-;(2<em>S</em>)-α,α-Diphenyl-2-pyrrolidinemethanol;(<em>S</em>)-(-)-2-(Diphenylhydroxymethyl)pyrrolidine;(<em>S</em>)-α,α-Diphenyl-2-pyrrolidinemethanol;(-)-2-(Diphenylhydroxymethyl)pyrrolidine;(<em>S</em>)-α,α-Diphenylprolinol;(-)-α,α-Diphenylprolinol;(<em>S</em>)-(-)-α,α-Diphenyl-2-pyrrolidinemethanol;(<em>S</em>)-2-(Diphenylhydroxymethyl)pyrrolidine;(-)-α,α-Diphenyl-2-pyrrolidinemethanol;(<em>S</em>)-α,α-Diphenylpyrrolidin-2-ylmethanol;(<em>S</em>)-2-(Hydroxydiphenylmethyl)pyrrolidine;(<em>S</em>)-Diphenyl(pyrrolidin-2-yl)methanol;α,α-Diphenyl-<span class=\"text-smallcaps\">L</span>-prolinol;(<em>S</em>)-α,α-Diphenylpyrrolidinemethanol;(<em>S</em>)-(-)-α,α-Diphenylprolinol",
    "duplicated_cas_no": "1609983-09-6",
    "SMILES": "C(O)([C@@H]1CCCN1)(C2=CC=CC=C2)C3=CC=CC=C3",
    "meta_data": {
        "InChI": "InChI=1S/C17H19NO/c19-17(16-12-7-13-18-16,14-8-3-1-4-9-14)15-10-5-2-6-11-15/h1-6,8-11,16,18-19H,7,12-13H2/t16-/m0/s1",
        "InChIKey": null,
        "Canonical SMILES": "OC(C=1C=CC=CC1)(C=2C=CC=CC2)C3NCCC3",
        "Molecular Formula": "C<sub>17</sub>H<sub>19</sub>NO",
        "Molecular Mass": "253.34",
        "Melting Point": "73-75 °C"
    }
}