{
    "cas_no": "63245-38-5",
    "key_name": "CDA 6",
    "cn_name": null,
    "alternate_name": "Dodecanedioic acid, 1,12-bis[2-(2-hydroxybenzoyl)hydrazide];Dodecanedioic acid, bis[2-(2-hydroxybenzoyl)hydrazide];Decamethylenedicarboxylic acid disalicyloylhydrazide;CDA 6;Mark CDA 6;Disalicyloylhydrazide decamethylenedicarboxylate;ADK Stab CDA 6;Adeka CDA 6;Decanedicarboxylic acid disalicyloylhydrazine;Dodecanedioic acid bis[N2-(2-hydroxybenzoyl)hydrazide];ADK Stab CDA 6S",
    "duplicated_cas_no": "179809-56-4",
    "SMILES": "C(NNC(CCCCCCCCCCC(NNC(=O)C1=C(O)C=CC=C1)=O)=O)(=O)C2=C(O)C=CC=C2",
    "meta_data": {
        "InChI": "InChI=1S/C26H34N4O6/c31-21-15-11-9-13-19(21)25(35)29-27-23(33)17-7-5-3-1-2-4-6-8-18-24(34)28-30-26(36)20-14-10-12-16-22(20)32/h9-16,31-32H,1-8,17-18H2,(H,27,33)(H,28,34)(H,29,35)(H,30,36)",
        "InChIKey": null,
        "Canonical SMILES": "O=C(NNC(=O)CCCCCCCCCCC(=O)NNC(=O)C=1C=CC=CC1O)C=2C=CC=CC2O",
        "Molecular Formula": "C<sub>26</sub>H<sub>34</sub>N<sub>4</sub>O<sub>6</sub>",
        "Molecular Mass": "498.57",
        "Melting Point": "212 °C"
    }
}