{
    "cas_no": "83-55-6",
    "key_name": "5-Amino-1-naphthol",
    "cn_name": "1-氨基-5-萘酚;",
    "alternate_name": "1-Naphthalenol, 5-amino-;1-Naphthol, 5-amino-;5-Amino-1-naphthalenol;C.I. 76650;5-Amino-1-naphthol;1-Amino-5-naphthol;5-Hydroxy-1-naphthylamine;1-Amino-5-hydroxynaphthalene;5-Amino-α-naphthol;NSC 1499;5-Hydroxy-1-naphthalenamine",
    "duplicated_cas_no": "",
    "SMILES": "NC=1C2=C(C(O)=CC=C2)C=CC1",
    "meta_data": {
        "InChI": "InChI=1S/C10H9NO/c11-9-5-1-4-8-7(9)3-2-6-10(8)12/h1-6,12H,11H2",
        "InChIKey": null,
        "Canonical SMILES": "OC1=CC=CC=2C(N)=CC=CC12",
        "Molecular Formula": "C<sub>10</sub>H<sub>9</sub>NO",
        "Molecular Mass": "159.18",
        "Melting Point": "192 °C"
    }
}