{
    "cas_no": "152044-54-7",
    "key_name": "Epothilone B",
    "cn_name": "帕土匹龙;埃坡霉素B;(1S,3S,7S,10R,11S,12S,16R)-7,11-二羟基-8,8,10,12,16-五甲基-3-[(1E)-1-甲基-2-(2-甲;",
    "alternate_name": "4,17-Dioxabicyclo[14.1.0]heptadecane-5,9-dione, 7,11-dihydroxy-8,8,10,12,16-pentamethyl-3-[(1<em>E</em>)-1-methyl-2-(2-methyl-4-thiazolyl)ethenyl]-, (1<em>S</em>,3<em>S</em>,7<em>S</em>,10<em>R</em>,11<em>S</em>,12<em>S</em>,16<em>R</em>)-;4,17-Dioxabicyclo[14.1.0]heptadecane-5,9-dione, 7,11-dihydroxy-8,8,10,12,16-pentamethyl-3-[1-methyl-2-(2-methyl-4-thiazolyl)ethenyl]-, [1<em>S</em>-[1<em>R</em>*,3<em>R</em>*(<em>E</em>),7<em>R</em>*,10<em>S</em>*,11<em>R</em>*,12<em>R</em>*,16<em>S</em>*]]-;(1<em>S</em>,3<em>S</em>,7<em>S</em>,10<em>R</em>,11<em>S</em>,12<em>S</em>,16<em>R</em>)-7,11-Dihydroxy-8,8,10,12,16-pentamethyl-3-[(1<em>E</em>)-1-methyl-2-(2-methyl-4-thiazolyl)ethenyl]-4,17-dioxabicyclo[14.1.0]heptadecane-5,9-dione;Epothilone B;(-)-Epothilone B;EPO 906;Patupilone;EPO 906A;Epo B;(1S,3S,7S,10R,11S,12S,16R)-7,11-Dihydroxy-8,8,10,12,16-pentamethyl-3-[(E)-1-(2-methylthiazol-4-yl)prop-1-en-2-yl]-4,17-dioxabicyclo[14.1.0]heptadecane-5,9-dione",
    "duplicated_cas_no": "681125-91-7",
    "SMILES": "C[C@@]12[C@@](O1)(C[C@@H](\\C(=C\\C=3N=C(C)SC3)\\C)OC(=O)C[C@H](O)C(C)(C)C(=O)[C@H](C)[C@@H](O)[C@@H](C)CCC2)[H]",
    "meta_data": {
        "InChI": "InChI=1S/C27H41NO6S/c1-15-9-8-10-27(7)22(34-27)12-20(16(2)11-19-14-35-18(4)28-19)33-23(30)13-21(29)26(5,6)25(32)17(3)24(15)31/h11,14-15,17,20-22,24,29,31H,8-10,12-13H2,1-7H3/b16-11+/t15-,17+,20-,21-,22-,24-,27+/m0/s1",
        "InChIKey": null,
        "Canonical SMILES": "O=C1OC(C(=CC=2N=C(SC2)C)C)CC3OC3(C)CCCC(C)C(O)C(C(=O)C(C)(C)C(O)C1)C",
        "Molecular Formula": "C<sub>27</sub>H<sub>41</sub>NO<sub>6</sub>S",
        "Molecular Mass": "507.68",
        "Melting Point": "117-118 °C"
    }
}