{
    "cas_no": "37940-57-1",
    "key_name": "1-[1,1′-Biphenyl]-4-yl-1-propanone",
    "cn_name": "对苯基苯乙酮;",
    "alternate_name": "1-Propanone, 1-[1,1′-biphenyl]-4-yl-;Propiophenone, 4′-phenyl-;1-[1,1′-Biphenyl]-4-yl-1-propanone;4′-Phenylpropiophenone;<em>p</em>-Phenylpropiophenone;4-Propionylbiphenyl;4-Phenylpropiophenone;1-(1,1′-Biphenyl-4-yl)propan-1-one;NSC 24800;4-Propanoylbiphenyl;1-(Biphenyl-4-yl)propan-1-one",
    "duplicated_cas_no": "",
    "SMILES": "C(CC)(=O)C1=CC=C(C=C1)C2=CC=CC=C2",
    "meta_data": {
        "InChI": "InChI=1S/C15H14O/c1-2-15(16)14-10-8-13(9-11-14)12-6-4-3-5-7-12/h3-11H,2H2,1H3",
        "InChIKey": null,
        "Canonical SMILES": "O=C(C=1C=CC(=CC1)C=2C=CC=CC2)CC",
        "Molecular Formula": "C<sub>15</sub>H<sub>14</sub>O",
        "Molecular Mass": "210.27",
        "Boiling Point": "280-300 °C @ Press: 18 Torr",
        "Melting Point": "97 °C"
    }
}