{
    "cas_no": "19179-31-8",
    "key_name": "3,5-Dimethoxybenzonitrile",
    "cn_name": "3,5-二甲氧基苯腈;3,5-二甲氧基苯甲腈;",
    "alternate_name": "Benzonitrile, 3,5-dimethoxy-;3,5-Dimethoxybenzonitrile;NSC 73710;1-(Cyanomethyl)-3,5-dimethoxybenzene",
    "duplicated_cas_no": "",
    "SMILES": "C(#N)C1=CC(OC)=CC(OC)=C1",
    "meta_data": {
        "InChI": "InChI=1S/C9H9NO2/c1-11-8-3-7(6-10)4-9(5-8)12-2/h3-5H,1-2H3",
        "InChIKey": null,
        "Canonical SMILES": "N#CC=1C=C(OC)C=C(OC)C1",
        "Molecular Formula": "C<sub>9</sub>H<sub>9</sub>NO<sub>2</sub>",
        "Molecular Mass": "163.17",
        "Melting Point": "87-88 °C"
    }
}