{
    "cas_no": "64910-46-9",
    "key_name": "3-Amino-4-(methylamino)benzonitrile",
    "cn_name": "3-氨基-4-(甲胺基)苯腈;",
    "alternate_name": "Benzonitrile, 3-amino-4-(methylamino)-;3-Amino-4-(methylamino)benzonitrile;4-Methylamino-3-aminobenzonitrile",
    "duplicated_cas_no": "",
    "SMILES": "C(#N)C1=CC(N)=C(NC)C=C1",
    "meta_data": {
        "InChI": "InChI=1S/C8H9N3/c1-11-8-3-2-6(5-9)4-7(8)10/h2-4,11H,10H2,1H3",
        "InChIKey": null,
        "Canonical SMILES": "N#CC1=CC=C(NC)C(N)=C1",
        "Molecular Formula": "C<sub>8</sub>H<sub>9</sub>N<sub>3</sub>",
        "Molecular Mass": "147.18",
        "Melting Point": "140-141 °C"
    }
}