{
    "cas_no": "82846-18-2",
    "key_name": "4-Fluoro-3-methoxybenzoic acid",
    "cn_name": "4-氟-3-甲氧基苯甲酸;",
    "alternate_name": "Benzoic acid, 4-fluoro-3-methoxy-;4-Fluoro-3-methoxybenzoic acid",
    "duplicated_cas_no": "",
    "SMILES": "O(C)C1=CC(C(O)=O)=CC=C1F",
    "meta_data": {
        "InChI": "InChI=1S/C8H7FO3/c1-12-7-4-5(8(10)11)2-3-6(7)9/h2-4H,1H3,(H,10,11)",
        "InChIKey": null,
        "Canonical SMILES": "O=C(O)C1=CC=C(F)C(OC)=C1",
        "Molecular Formula": "C<sub>8</sub>H<sub>7</sub>FO<sub>3</sub>",
        "Molecular Mass": "170.14",
        "Melting Point": "207.5 °C"
    }
}