{
    "cas_no": "78-90-0",
    "key_name": "Propylenediamine",
    "cn_name": "1,2-丙二胺;",
    "alternate_name": "1,2-Propanediamine;1,2-Diaminopropane;Propylenediamine;1,2-Propylenediamine;2,3-Diaminopropane;1-Methyl-1,2-diaminoethane;<em>dl</em>-1,2-Propylenediamine;<span class=\"text-smallcaps\">DL</span>-1,2-Propanediamine;(±)-1,2-Diaminopropane;(<em>RS</em>)-1,2-Propanediamine;NSC 175731;<em>N</em>,<em>N</em>′-Dimethyl-1,2-diaminopropane",
    "duplicated_cas_no": "10424-38-1;68928-99-4",
    "SMILES": "C(CN)(C)N",
    "meta_data": {
        "InChI": "InChI=1S/C3H10N2/c1-3(5)2-4/h3H,2,4-5H2,1H3",
        "InChIKey": null,
        "Canonical SMILES": "NCC(N)C",
        "Molecular Formula": "C<sub>3</sub>H<sub>10</sub>N<sub>2</sub>",
        "Molecular Mass": "74.12",
        "Boiling Point": "117 °C",
        "Melting Point": "-17 °C",
        "Density": "0.9 g/cm³"
    }
}