{
    "cas_no": "50919-08-9",
    "key_name": "3,4-Dimethoxy-α-methylbenzenemethanamine",
    "cn_name": null,
    "alternate_name": "Benzenemethanamine, 3,4-dimethoxy-α-methyl-;Veratrylamine, α-methyl-;3,4-Dimethoxy-α-methylbenzenemethanamine;1-Amino-1-(3,4-dimethoxyphenyl)ethane;α-Methylveratrylamine;(±)-1-(3,4-Dimethoxyphenyl)ethylamine;1-(3,4-Dimethoxyphenyl)ethanamine;1-(3,4-Dimethoxyphenyl)ethylamine;1-(3,4-Dimethoxyphenyl)ethan-1-amine",
    "duplicated_cas_no": "65431-67-6",
    "SMILES": "O(C)C1=C(OC)C=CC(C(C)N)=C1",
    "meta_data": {
        "InChI": "InChI=1S/C10H15NO2/c1-7(11)8-4-5-9(12-2)10(6-8)13-3/h4-7H,11H2,1-3H3",
        "InChIKey": null,
        "Canonical SMILES": "O(C1=CC=C(C=C1OC)C(N)C)C",
        "Molecular Formula": "C<sub>10</sub>H<sub>15</sub>NO<sub>2</sub>",
        "Molecular Mass": "181.23",
        "Boiling Point": "120-125 °C @ Press: 5 Torr"
    }
}