{
    "cas_no": "1850-14-2",
    "key_name": "Tetramethyl orthocarbonate",
    "cn_name": "原碳酸四甲酯;",
    "alternate_name": "Methane, tetramethoxy-;Orthocarbonic acid, tetramethyl ester;Tetramethoxymethane;Tetramethyl orthocarbonate;Dimethoxymethylal;NSC 359558",
    "duplicated_cas_no": "",
    "SMILES": "C(OC)(OC)(OC)OC",
    "meta_data": {
        "InChI": "InChI=1S/C5H12O4/c1-6-5(7-2,8-3)9-4/h1-4H3",
        "InChIKey": null,
        "Canonical SMILES": "O(C)C(OC)(OC)OC",
        "Molecular Formula": "C<sub>5</sub>H<sub>12</sub>O<sub>4</sub>",
        "Molecular Mass": "136.15",
        "Boiling Point": "114 °C",
        "Melting Point": "-5 °C",
        "Density": "1.020 g/cm³ @ Temp: 20 °C"
    }
}