{
    "cas_no": "32231-50-8",
    "key_name": "(-)-2-Methylbutanoic acid",
    "cn_name": null,
    "alternate_name": "Butanoic acid, 2-methyl-, (2<em>R</em>)-;Butyric acid, 2-methyl-, (-)-;Butanoic acid, 2-methyl-, (<em>R</em>)-;(2<em>R</em>)-2-Methylbutanoic acid;(<em>R</em>)-2-Methylbutanoic acid;(<em>R</em>)-2-Methylbutyric acid;(-)-2-Methylbutyric acid;(<em>R</em>)-(-)-2-Methylbutanoic acid;(-)-2-Methylbutanoic acid;(-)-α-Methylbutyric acid;(<em>R</em>)-(-)-2-Methylbutyric acid;(2R)-2-Methylbutanoic acid",
    "duplicated_cas_no": "",
    "SMILES": "[C@H](C(O)=O)(CC)C",
    "meta_data": {
        "InChI": "InChI=1S/C5H10O2/c1-3-4(2)5(6)7/h4H,3H2,1-2H3,(H,6,7)/t4-/m1/s1",
        "InChIKey": null,
        "Canonical SMILES": "O=C(O)C(C)CC",
        "Molecular Formula": "C<sub>5</sub>H<sub>10</sub>O<sub>2</sub>",
        "Molecular Mass": "102.13",
        "Boiling Point": "50 °C @ Press: 0.07 Torr",
        "Density": "0.9313 g/cm³ @ Temp: 25 °C"
    }
}