{
    "cas_no": "1591-95-3",
    "key_name": "Pentafluorophenyl isocyanate",
    "cn_name": "五氟苯基异氰酸酯;",
    "alternate_name": "Benzene, 1,2,3,4,5-pentafluoro-6-isocyanato-;Isocyanic acid, pentafluorophenyl ester;Benzene, pentafluoroisocyanato-;1,2,3,4,5-Pentafluoro-6-isocyanatobenzene;Perfluorophenyl isocyanate;Pentafluorophenyl isocyanate;Pentafluoroisocyanatobenzene;2,3,4,5,6-PentafluoroPhenyl isocyanate",
    "duplicated_cas_no": "",
    "SMILES": "N(=C=O)C1=C(F)C(F)=C(F)C(F)=C1F",
    "meta_data": {
        "InChI": "InChI=1S/C7F5NO/c8-2-3(9)5(11)7(13-1-14)6(12)4(2)10",
        "InChIKey": null,
        "Canonical SMILES": "O=C=NC=1C(F)=C(F)C(F)=C(F)C1F",
        "Molecular Formula": "C<sub>7</sub>F<sub>5</sub>NO",
        "Molecular Mass": "209.07",
        "Boiling Point": "58-59 °C @ Press: 25 Torr"
    }
}