{
    "cas_no": "15128-90-2",
    "key_name": "3-Hydroxy-6-methyl-2-nitropyridine",
    "cn_name": "3-羟基-6-甲基-2-硝基吡啶;3-羟基-6-甲基-2-硝基吡啶;3-羟基-6-甲基-2-硝基吡啶,99%;",
    "alternate_name": "3-Pyridinol, 6-methyl-2-nitro-;6-Methyl-2-nitro-3-pyridinol;3-Hydroxy-6-methyl-2-nitropyridine;NSC 102501",
    "duplicated_cas_no": "",
    "SMILES": "N(=O)(=O)C1=C(O)C=CC(C)=N1",
    "meta_data": {
        "InChI": "InChI=1S/C6H6N2O3/c1-4-2-3-5(9)6(7-4)8(10)11/h2-3,9H,1H3",
        "InChIKey": null,
        "Canonical SMILES": "O=N(=O)C1=NC(=CC=C1O)C",
        "Molecular Formula": "C<sub>6</sub>H<sub>6</sub>N<sub>2</sub>O<sub>3</sub>",
        "Molecular Mass": "154.12",
        "Melting Point": "105-106 °C"
    }
}