{
    "cas_no": "652-29-9",
    "key_name": "1-(2,3,4,5,6-Pentafluorophenyl)ethanone",
    "cn_name": "五氟苯乙酮;2\",3\",4\",5\",6\"-五氟苯乙酮;",
    "alternate_name": "Ethanone, 1-(2,3,4,5,6-pentafluorophenyl)-;Acetophenone, 2′,3′,4′,5′,6′-pentafluoro-;Ethanone, 1-(pentafluorophenyl)-;1-(2,3,4,5,6-Pentafluorophenyl)ethanone;2′,3′,4′,5′,6′-Pentafluoroacetophenone;2,3,4,5,6-Pentafluoroacetophenone;Pentafluoroacetophenone;Pentafluorophenyl methyl ketone;Acetylpentafluorobenzene;Methyl pentafluorophenyl ketone;1-Pentafluorophenylethanone;1-(Pentafluorophenyl)ethan-1-one;1-(Perfluorophenyl)ethan-1-one",
    "duplicated_cas_no": "",
    "SMILES": "C(C)(=O)C1=C(F)C(F)=C(F)C(F)=C1F",
    "meta_data": {
        "InChI": "InChI=1S/C8H3F5O/c1-2(14)3-4(9)6(11)8(13)7(12)5(3)10/h1H3",
        "InChIKey": null,
        "Canonical SMILES": "O=C(C=1C(F)=C(F)C(F)=C(F)C1F)C",
        "Molecular Formula": "C<sub>8</sub>H<sub>3</sub>F<sub>5</sub>O",
        "Molecular Mass": "210.10",
        "Boiling Point": "130-131 °C",
        "Melting Point": "130.5 °C"
    }
}