{
    "cas_no": "58-20-8",
    "key_name": "Testosterone cypionate",
    "cn_name": "环戊丙酸睾酮;",
    "alternate_name": "Androst-4-en-3-one, 17-(3-cyclopentyl-1-oxopropoxy)-, (17β)-;Testosterone, cyclopentanepropionate;Cyclopentanepropionic acid, ester with testosterone;(17β)-17-(3-Cyclopentyl-1-oxopropoxy)androst-4-en-3-one;Depo-testosterone;Depovirin;17β-Hydroxyandrost-4-en-3-one cyclopentanepropionate;Pertestis;Testodrin prolongatum;Testosterone 17β-cyclopentanepropionate;Testosterone cyclopentylpropionate;Testosterone cypionate;Testosterone 17β-cyclopentylpropionate;Testosterone 17β-cypionate;17β-Hydroxyandrost-4-en-3-one cyclopentylpropionate;Testosterone, 3-cyclopentanepropionate;Virilon;DepAndro 200;DepAndro 100;Depotest;Depo;NSC 9157;Testex Leo;Deposteron;4-Androstene-17β-ol-3-one cypionate;Cipionato;Testosterone ciclopentilpropionato",
    "duplicated_cas_no": "",
    "SMILES": "C[C@@]12[C@@]3([C@]([C@]4([C@](C)(CC3)[C@@H](OC(CCC5CCCC5)=O)CC4)[H])(CCC1=CC(=O)CC2)[H])[H]",
    "meta_data": {
        "InChI": "InChI=1S/C27H40O3/c1-26-15-13-20(28)17-19(26)8-9-21-22-10-11-24(27(22,2)16-14-23(21)26)30-25(29)12-7-18-5-3-4-6-18/h17-18,21-24H,3-16H2,1-2H3/t21-,22-,23-,24-,26-,27-/m0/s1",
        "InChIKey": null,
        "Canonical SMILES": "O=C(OC1CCC2C3CCC4=CC(=O)CCC4(C)C3CCC12C)CCC5CCCC5",
        "Molecular Formula": "C<sub>27</sub>H<sub>40</sub>O<sub>3</sub>",
        "Molecular Mass": "412.60",
        "Melting Point": "101-102 °C"
    }
}