{
    "cas_no": "55112-42-0",
    "key_name": "1-Piperazinecarbonyl chloride, 4-methyl-, hydrochloride (1:1)",
    "cn_name": "4-甲基哌嗪-1-甲酰氯盐酸盐;",
    "alternate_name": "1-Piperazinecarbonyl chloride, 4-methyl-, hydrochloride (1:1);1-Piperazinecarbonyl chloride, 4-methyl-, monohydrochloride;1-Piperazinecarbonyl chloride, 4-methyl-, hydrochloride;4-Methyl-1-piperazinecarbonyl chloride hydrochloride;1-Chlorocarbonyl-4-methylpiperazine hydrochloride;4-Methylpiperazinecarbonyl chloride hydrochloride;1-Methylpiperazine-4-carbonyl chloride hydrochloride",
    "duplicated_cas_no": "",
    "SMILES": "C(Cl)(=O)N1CCN(C)CC1.Cl",
    "meta_data": {
        "InChI": "InChI=1S/C6H11ClN2O.ClH/c1-8-2-4-9(5-3-8)6(7)10;/h2-5H2,1H3;1H",
        "InChIKey": null,
        "Canonical SMILES": "Cl.O=C(Cl)N1CCN(C)CC1",
        "Molecular Formula": "C<sub>6</sub>H<sub>11</sub>ClN<sub>2</sub>O.ClH",
        "Molecular Mass": "",
        "Boiling Point": "94-96 °C @ Press: 10 Torr",
        "Melting Point": "218-225 °C (decomp)"
    }
}