{
    "cas_no": "1000-82-4",
    "key_name": "(Hydroxymethyl)urea",
    "cn_name": "羟甲基脲;",
    "alternate_name": "Urea, <em>N</em>-(hydroxymethyl)-;Urea, (hydroxymethyl)-;<em>N</em>-(Hydroxymethyl)urea;Methylolurea;<em>N</em>-Methylolurea;(Hydroxymethyl)urea;1-(Hydroxymethyl)urea;Mono(hydroxymethyl)urea;Monomethylolurea;NSC 13181",
    "duplicated_cas_no": "",
    "SMILES": "N(C(N)=O)CO",
    "meta_data": {
        "InChI": "InChI=1S/C2H6N2O2/c3-2(6)4-1-5/h5H,1H2,(H3,3,4,6)",
        "InChIKey": null,
        "Canonical SMILES": "O=C(N)NCO",
        "Molecular Formula": "C<sub>2</sub>H<sub>6</sub>N<sub>2</sub>O<sub>2</sub>",
        "Molecular Mass": "90.08",
        "Melting Point": "111 °C"
    }
}