{
    "cas_no": "1822-51-1",
    "key_name": "4-Picolyl chloride hydrochloride",
    "cn_name": "4-氯甲基吡啶盐酸盐;",
    "alternate_name": "Pyridine, 4-(chloromethyl)-, hydrochloride (1:1);Pyridine, 4-(chloromethyl)-, hydrochloride;4-Picolyl chloride hydrochloride;4-(Chloromethyl)pyridine hydrochloride;4-(Chloromethyl)pyridinium chloride;4-Pyridylmethyl chloride hydrochloride;4-Chloromethylpyridine hydrochloride salt",
    "duplicated_cas_no": "",
    "SMILES": "C(Cl)C=1C=CN=CC1.Cl",
    "meta_data": {
        "InChI": "InChI=1S/C6H6ClN.ClH/c7-5-6-1-3-8-4-2-6;/h1-4H,5H2;1H",
        "InChIKey": null,
        "Canonical SMILES": "Cl.ClCC=1C=CN=CC1",
        "Molecular Formula": "C<sub>6</sub>H<sub>6</sub>ClN.ClH",
        "Molecular Mass": "",
        "Melting Point": "165-166 °C"
    }
}