{
    "cas_no": "1137-77-5",
    "key_name": "4-Amino-4′-methoxybiphenyl",
    "cn_name": null,
    "alternate_name": "[1,1′-Biphenyl]-4-amine, 4′-methoxy-;4-Biphenylamine, 4′-methoxy-;4′-Methoxy[1,1′-biphenyl]-4-amine;4′-Methoxy-4-biphenylamine;4-Amino-4′-methoxybiphenyl;(4′-Methoxybiphenyl-4-yl)amine;4-Methoxy-1,1′-biphenyl-4′-amine;4-(4-Methoxyphenyl)aniline;4-(<em>p</em>-Methoxyphenyl)aniline",
    "duplicated_cas_no": "",
    "SMILES": "O(C)C1=CC=C(C=C1)C2=CC=C(N)C=C2",
    "meta_data": {
        "InChI": "InChI=1S/C13H13NO/c1-15-13-8-4-11(5-9-13)10-2-6-12(14)7-3-10/h2-9H,14H2,1H3",
        "InChIKey": null,
        "Canonical SMILES": "O(C=1C=CC(=CC1)C2=CC=C(N)C=C2)C",
        "Molecular Formula": "C<sub>13</sub>H<sub>13</sub>NO",
        "Molecular Mass": "199.25",
        "Melting Point": "146.5-147 °C"
    }
}