{
    "cas_no": "7693-13-2",
    "key_name": "Calcium citrate",
    "cn_name": "柠檬酸钙;",
    "alternate_name": "1,2,3-Propanetricarboxylic acid, 2-hydroxy-, calcium salt (1:?);Citric acid, calcium salt;Calcium citrate;1,2,3-Propanetricarboxylic acid, 2-hydroxy-, calcium salt;Citramar;E 333;Calcit;Calcitrat;MeSH ID: D019355",
    "duplicated_cas_no": "",
    "SMILES": "C(CC(O)=O)(CC(O)=O)(C(O)=O)O.[Ca]",
    "meta_data": {
        "InChI": "InChI=1S/C6H8O7.Ca/c7-3(8)1-6(13,5(11)12)2-4(9)10;/h13H,1-2H2,(H,7,8)(H,9,10)(H,11,12);",
        "InChIKey": null,
        "Canonical SMILES": "[Ca].O=C(O)CC(O)(C(=O)O)CC(=O)O",
        "Molecular Formula": "C<sub>6</sub>H<sub>8</sub>O<sub>7</sub>.xCa",
        "Molecular Mass": "",
        "Melting Point": "100 °C (decomp)"
    }
}