{
    "cas_no": "2554-75-8",
    "key_name": "<em>N</em>,<em>N</em>-Dimethyl-5-nitro-2-pyridinamine",
    "cn_name": null,
    "alternate_name": "2-Pyridinamine, <em>N</em>,<em>N</em>-dimethyl-5-nitro-;Pyridine, 2-(dimethylamino)-5-nitro-;<em>N</em>,<em>N</em>-Dimethyl-5-nitro-2-pyridinamine;2-(Dimethylamino)-5-nitropyridine;NSC 93901;<em>N</em>,<em>N</em>-Dimethyl-<em>N</em>-(5-nitropyridin-2-yl)amine",
    "duplicated_cas_no": "",
    "SMILES": "N(=O)(=O)C=1C=CC(N(C)C)=NC1",
    "meta_data": {
        "InChI": "InChI=1S/C7H9N3O2/c1-9(2)7-4-3-6(5-8-7)10(11)12/h3-5H,1-2H3",
        "InChIKey": null,
        "Canonical SMILES": "O=N(=O)C1=CN=C(C=C1)N(C)C",
        "Molecular Formula": "C<sub>7</sub>H<sub>9</sub>N<sub>3</sub>O<sub>2</sub>",
        "Molecular Mass": "167.17",
        "Melting Point": "154-155 °C"
    }
}