{
    "cas_no": "50533-97-6",
    "key_name": "4-(Dimethylamino)piperidine",
    "cn_name": "4-二甲氨基哌啶;",
    "alternate_name": "4-Piperidinamine, <em>N</em>,<em>N</em>-dimethyl-;Piperidine, 4-(dimethylamino)-;<em>N</em>,<em>N</em>-Dimethyl-4-piperidinamine;4-(Dimethylamino)piperidine;4-(<em>N</em>,<em>N</em>-Dimethylamino)piperidine;<em>N</em>,<em>N</em>-Dimethyl-<em>N</em>-(4-piperidinyl)amine;Dimethyl(piperidin-4-yl)amine;<em>N</em>,<em>N</em>-Dimethylpiperidin-4-amine",
    "duplicated_cas_no": "",
    "SMILES": "N(C)(C)C1CCNCC1",
    "meta_data": {
        "InChI": "InChI=1S/C7H16N2/c1-9(2)7-3-5-8-6-4-7/h7-8H,3-6H2,1-2H3",
        "InChIKey": null,
        "Canonical SMILES": "N1CCC(N(C)C)CC1",
        "Molecular Formula": "C<sub>7</sub>H<sub>16</sub>N<sub>2</sub>",
        "Molecular Mass": "128.22",
        "Boiling Point": "182-187 °C"
    }
}