{
    "cas_no": "3389-21-7",
    "key_name": "3-(2-Bromoethyl)indole",
    "cn_name": null,
    "alternate_name": "1<em>H</em>-Indole, 3-(2-bromoethyl)-;Indole, 3-(2-bromoethyl)-;3-(2-Bromoethyl)-1<em>H</em>-indole;3-(2-Bromoethyl)indole;3-(Bromoethyl)-1<em>H</em>-indole;2-(3-Indolyl)ethyl bromide;1-Bromo-2-(3-indolyl)ethane",
    "duplicated_cas_no": "",
    "SMILES": "C(CBr)C=1C=2C(NC1)=CC=CC2",
    "meta_data": {
        "InChI": "InChI=1S/C10H10BrN/c11-6-5-8-7-12-10-4-2-1-3-9(8)10/h1-4,7,12H,5-6H2",
        "InChIKey": null,
        "Canonical SMILES": "BrCCC1=CNC=2C=CC=CC21",
        "Molecular Formula": "C<sub>10</sub>H<sub>10</sub>BrN",
        "Molecular Mass": "224.10",
        "Melting Point": "96-97 °C"
    }
}