{
    "cas_no": "382-34-3",
    "key_name": "1,1,2,3,3,3-Hexafluoropropyl methyl ether",
    "cn_name": "1,1,2,3,3,3-六氟丙基甲醚;1,1,1,2,3,3-六氟-3-甲氧基丙烷;1,1,2,3,3-六氟丙基甲醚;",
    "alternate_name": "Propane, 1,1,1,2,3,3-hexafluoro-3-methoxy-;Ether, 1,1,2,3,3,3-hexafluoropropyl methyl;1,1,1,2,3,3-Hexafluoro-3-methoxypropane;1,1,2,3,3,3-Hexafluoropropyl methyl ether;HFC-E 356;356mecEγδ;HFE 356mec;Methyl 1,1,2,3,3,3-hexafluoropropyl ether",
    "duplicated_cas_no": "",
    "SMILES": "C(C(OC)(F)F)(C(F)(F)F)F",
    "meta_data": {
        "InChI": "InChI=1S/C4H4F6O/c1-11-4(9,10)2(5)3(6,7)8/h2H,1H3",
        "InChIKey": null,
        "Canonical SMILES": "FC(C(F)(F)F)C(F)(F)OC",
        "Molecular Formula": "C<sub>4</sub>H<sub>4</sub>F<sub>6</sub>O",
        "Molecular Mass": "182.06",
        "Boiling Point": "54-55 °C",
        "Density": "1.429 g/cm³ @ Temp: 10 °C"
    }
}