{
    "cas_no": "16676-96-3",
    "key_name": "(<em>Z</em>)-5-Dodecenyl acetate",
    "cn_name": "乙酸(Z)-5-十二烯醇酯;",
    "alternate_name": "5-Dodecen-1-ol, 1-acetate, (5<em>Z</em>)-;5-Dodecen-1-ol, acetate, (<em>Z</em>)-;5-Dodecen-1-ol, acetate, (5<em>Z</em>)-;<em>cis</em>-5-Dodecenyl acetate;<em>cis</em>-5-Dodecen-1-yl acetate;(<em>Z</em>)-5-Dodecen-1-ol acetate;<em>cis</em>-5-Dodecen-1-ol acetate;5(<em>Z</em>)-Dodecenyl acetate;(<em>Z</em>)-5-Dodecenyl acetate",
    "duplicated_cas_no": "",
    "SMILES": "C(/C=C\\CCCCCC)CCCOC(C)=O",
    "meta_data": {
        "InChI": "InChI=1S/C14H26O2/c1-3-4-5-6-7-8-9-10-11-12-13-16-14(2)15/h8-9H,3-7,10-13H2,1-2H3/b9-8-",
        "InChIKey": null,
        "Canonical SMILES": "O=C(OCCCCC=CCCCCCC)C",
        "Molecular Formula": "C<sub>14</sub>H<sub>26</sub>O<sub>2</sub>",
        "Molecular Mass": "226.35",
        "Boiling Point": "90-91 °C @ Press: 0.02 Torr"
    }
}