{
    "cas_no": "50-80-6",
    "key_name": "2-Acetyl-4-aminophenol",
    "cn_name": "5\"-氨基-2\"-羟基苯乙酮;",
    "alternate_name": "Ethanone, 1-(5-amino-2-hydroxyphenyl)-;Acetophenone, 5′-amino-2′-hydroxy-;1-(5-Amino-2-hydroxyphenyl)ethanone;2-Acetyl-4-aminophenol;3-Acetyl-4-hydroxyaniline;5′-Amino-2′-hydroxyacetophenone;RG 14381;1-(5-Amino-2-hydroxyphenyl)ethan-1-one",
    "duplicated_cas_no": "",
    "SMILES": "C(C)(=O)C1=C(O)C=CC(N)=C1",
    "meta_data": {
        "InChI": "InChI=1S/C8H9NO2/c1-5(10)7-4-6(9)2-3-8(7)11/h2-4,11H,9H2,1H3",
        "InChIKey": null,
        "Canonical SMILES": "O=C(C1=CC(N)=CC=C1O)C",
        "Molecular Formula": "C<sub>8</sub>H<sub>9</sub>NO<sub>2</sub>",
        "Molecular Mass": "151.16",
        "Melting Point": "110 °C"
    }
}