{
    "cas_no": "2104-64-5",
    "key_name": "<em>O</em>-Ethyl <em>O</em>-(4-nitrophenyl) phenylphosphonothioate",
    "cn_name": "苯硫磷;O-乙基-O-对-硝基苯基苯基硫逐膦酸酯；EPN-300；ENTl7798；EPH；伊皮恩;",
    "alternate_name": "Phosphonothioic acid, <em>P</em>-phenyl-, <em>O</em>-ethyl <em>O</em>-(4-nitrophenyl) ester;Phosphonothioic acid, phenyl-, <em>O</em>-ethyl <em>O</em>-(<em>p</em>-nitrophenyl) ester;Phosphonothioic acid, phenyl-, <em>O</em>-ethyl <em>O</em>-(4-nitrophenyl) ester;Phosphonothioic acid, phenyl-, ethyl <em>p</em>-nitrophenyl ester;EPN 300;EPN;<em>O</em>-Ethyl <em>O</em>-(4-nitrophenyl) benzenethionophosphonate;<em>O</em>-Ethyl <em>O</em>-<em>p</em>-nitrophenyl benzenethiophosphonate;<em>O</em>-Ethyl <em>O</em>-(4-nitrophenyl) phenylphosphonothioate;<em>O</em>-Ethyl <em>O</em>-(<em>p</em>-nitrophenyl) phenylphosphonothioate;Santox;NSC 404840;NSC 8943;O-ETHYL O-(P-NITROPHENYL) PHENYLPHOSPHONOTHIOATE",
    "duplicated_cas_no": "65580-81-6",
    "SMILES": "P(OC1=CC=C(N(=O)=O)C=C1)(OCC)(=S)C2=CC=CC=C2",
    "meta_data": {
        "InChI": "InChI=1S/C14H14NO4PS/c1-2-18-20(21,14-6-4-3-5-7-14)19-13-10-8-12(9-11-13)15(16)17/h3-11H,2H2,1H3",
        "InChIKey": null,
        "Canonical SMILES": "O=N(=O)C1=CC=C(OP(=S)(OCC)C=2C=CC=CC2)C=C1",
        "Molecular Formula": "C<sub>14</sub>H<sub>14</sub>NO<sub>4</sub>PS",
        "Molecular Mass": "323.30",
        "Boiling Point": "215 °C @ Press: 5 Torr",
        "Melting Point": "36 °C",
        "Density": "1.270 g/cm³ @ Temp: 25 °C"
    }
}