{
    "cas_no": "1048-08-4",
    "key_name": "1,1′,1′′,1′′′-Silanetetrayltetrakis[benzene]",
    "cn_name": "四苯基硅烷;",
    "alternate_name": "Benzene, 1,1′,1′′,1′′′-silanetetrayltetrakis-;Silane, tetraphenyl-;1,1′,1′′,1′′′-Silanetetrayltetrakis[benzene];Tetraphenylsilane;Tetraphenylsilicon;NSC 33014",
    "duplicated_cas_no": "",
    "SMILES": "[Si](C1=CC=CC=C1)(C2=CC=CC=C2)(C3=CC=CC=C3)C4=CC=CC=C4",
    "meta_data": {
        "InChI": "InChI=1S/C24H20Si/c1-5-13-21(14-6-1)25(22-15-7-2-8-16-22,23-17-9-3-10-18-23)24-19-11-4-12-20-24/h1-20H",
        "InChIKey": null,
        "Canonical SMILES": "C=1C=CC(=CC1)[Si](C=2C=CC=CC2)(C=3C=CC=CC3)C=4C=CC=CC4",
        "Molecular Formula": "C<sub>24</sub>H<sub>20</sub>Si",
        "Molecular Mass": "336.50",
        "Boiling Point": "228 °C @ Press: 3 Torr",
        "Melting Point": "236.5 °C",
        "Density": "1.078 g/cm³"
    }
}