{
    "cas_no": "32953-14-3",
    "key_name": "<em>N</em>-Ethyl-1,3-benzodioxol-5-amine",
    "cn_name": "N-乙基胡椒胺;N-乙基-3,4-亚甲二氧基苯胺;",
    "alternate_name": "1,3-Benzodioxol-5-amine, <em>N</em>-ethyl-;Aniline, <em>N</em>-ethyl-3,4-(methylenedioxy)-;<em>N</em>-Ethyl-1,3-benzodioxol-5-amine;3,4-Methylenedioxy-<em>N</em>-ethylaniline;<em>N</em>-Ethyl-3,4-(methylenedioxy)aniline;<em>N</em>-(1,3-Benzodioxol-5-yl)ethylamine",
    "duplicated_cas_no": "81329-91-1",
    "SMILES": "N(CC)C=1C=C2C(=CC1)OCO2",
    "meta_data": {
        "InChI": "InChI=1S/C9H11NO2/c1-2-10-7-3-4-8-9(5-7)12-6-11-8/h3-5,10H,2,6H2,1H3",
        "InChIKey": null,
        "Canonical SMILES": "O1C2=CC=C(C=C2OC1)NCC",
        "Molecular Formula": "C<sub>9</sub>H<sub>11</sub>NO<sub>2</sub>",
        "Molecular Mass": "165.19",
        "Boiling Point": "104 °C @ Press: 2 Torr"
    }
}