{
    "cas_no": "21617-15-2",
    "key_name": "7-Chloro-2,3-dihydro-4(1<em>H</em>)-quinolinone",
    "cn_name": null,
    "alternate_name": "4(1<em>H</em>)-Quinolinone, 7-chloro-2,3-dihydro-;4(1<em>H</em>)-Quinolone, 7-chloro-2,3-dihydro-;7-Chloro-2,3-dihydro-4(1<em>H</em>)-quinolinone;7-Chloro-1,2,3,4-tetrahydro-4-quinolinone;7-Chloro-2,3-dihydro-1<em>H</em>-quinolin-4-one;NSC 147653",
    "duplicated_cas_no": "126829-62-7",
    "SMILES": "O=C1C=2C(=CC(Cl)=CC2)NCC1",
    "meta_data": {
        "InChI": "InChI=1S/C9H8ClNO/c10-6-1-2-7-8(5-6)11-4-3-9(7)12/h1-2,5,11H,3-4H2",
        "InChIKey": null,
        "Canonical SMILES": "O=C1C2=CC=C(Cl)C=C2NCC1",
        "Molecular Formula": "C<sub>9</sub>H<sub>8</sub>ClNO",
        "Molecular Mass": "181.62",
        "Melting Point": "130-132 °C"
    }
}