{
    "cas_no": "1083-30-3",
    "key_name": "Dihydrochalcone",
    "cn_name": "二氢查耳酮;1,3-二苯基-1-丙酮;ω-苄基苯乙酮;β-苯基苯丙酮;~-苯基苄基酮;苄乙醯苯;~-苯基苄基酮;二氢查耳;",
    "alternate_name": "1-Propanone, 1,3-diphenyl-;Propiophenone, 3-phenyl-;Propiophenone, β-phenyl-;1,3-Diphenyl-1-propanone;Dihydrochalcone;Hydrochalcone;Hydrocinnamophenone;2-Phenethyl phenyl ketone;1,3-Diphenyl-1-oxopropane;Phenethyl phenyl ketone;β-Phenylpropiophenone;ω-Benzylacetophenone;Benzylacetophenone;Phenyl phenethyl ketone;3-Phenylpropiophenone;2-Benzylacetophenone;Phenylethyl phenyl ketone;1-Benzoyl-2-phenylethane;2,3-Dihydrobenzalacetophenone;NSC 12245",
    "duplicated_cas_no": "",
    "SMILES": "C(CCC1=CC=CC=C1)(=O)C2=CC=CC=C2",
    "meta_data": {
        "InChI": "InChI=1S/C15H14O/c16-15(14-9-5-2-6-10-14)12-11-13-7-3-1-4-8-13/h1-10H,11-12H2",
        "InChIKey": null,
        "Canonical SMILES": "O=C(C=1C=CC=CC1)CCC=2C=CC=CC2",
        "Molecular Formula": "C<sub>15</sub>H<sub>14</sub>O",
        "Molecular Mass": "210.27",
        "Boiling Point": "145-150 °C @ Press: 7 Torr",
        "Melting Point": "72 °C",
        "Density": "1.0614 g/cm³ @ Temp: 23 °C"
    }
}