{
    "cas_no": "16624-64-9",
    "key_name": "<em>N</em>-[(Phenylmethoxy)carbonyl]-<span class=\"text-smallcaps\">L</span>-tryptophan 4-nitrophenyl ester",
    "cn_name": null,
    "alternate_name": "<span class=\"text-smallcaps\">L</span>-Tryptophan, <em>N</em>-[(phenylmethoxy)carbonyl]-, 4-nitrophenyl ester;Tryptophan, <em>N</em>-carboxy-, <em>N</em>-benzyl <em>p</em>-nitrophenyl ester, <span class=\"text-smallcaps\">L</span>-;<em>N</em>-[(Phenylmethoxy)carbonyl]-<span class=\"text-smallcaps\">L</span>-tryptophan 4-nitrophenyl ester;4-Nitrophenyl <em>N</em>-(benzyloxycarbonyl)-<span class=\"text-smallcaps\">L</span>-tryptophanate;<em>N</em>-(Benzyloxycarbonyl)-<span class=\"text-smallcaps\">L</span>-tryptophan <em>p</em>-nitrophenyl ester;<em>N</em>-α-Carbobenzoxy-<span class=\"text-smallcaps\">L</span>-tryptophan <em>p</em>-nitrophenyl ester;(4-Nitrophenyl) (2S)-3-(1<em>H</em>-indol-3-yl)-2-(phenylmethoxycarbonylamino)propanoate",
    "duplicated_cas_no": "",
    "SMILES": "C([C@@H](C(OC1=CC=C(N(=O)=O)C=C1)=O)NC(OCC2=CC=CC=C2)=O)C=3C=4C(NC3)=CC=CC4",
    "meta_data": {
        "InChI": "InChI=1S/C25H21N3O6/c29-24(34-20-12-10-19(11-13-20)28(31)32)23(14-18-15-26-22-9-5-4-8-21(18)22)27-25(30)33-16-17-6-2-1-3-7-17/h1-13,15,23,26H,14,16H2,(H,27,30)/t23-/m0/s1",
        "InChIKey": null,
        "Canonical SMILES": "O=C(OCC=1C=CC=CC1)NC(C(=O)OC2=CC=C(C=C2)N(=O)=O)CC3=CNC=4C=CC=CC43",
        "Molecular Formula": "C<sub>25</sub>H<sub>21</sub>N<sub>3</sub>O<sub>6</sub>",
        "Molecular Mass": "459.45",
        "Melting Point": "105 °C"
    }
}