{
    "cas_no": "53-43-0",
    "key_name": "Dehydroepiandrosterone",
    "cn_name": "去氢表雄酮;脱氢表雄甾酮;",
    "alternate_name": "Androst-5-en-17-one, 3-hydroxy-, (3β)-;Androst-5-en-17-one, 3β-hydroxy-;(3β)-3-Hydroxyandrost-5-en-17-one;17-Chetovis;<em>trans</em>-Dehydroandrosterone;Dehydroepiandrosterone;Dehydroisoandrosterone;DHA;DHEA;17-Hormoforin;3β-Hydroxyandrost-5-ene-17-one;3β-Hydroxy-Δ<sup>5</sup>-androsten-17-one;3β-Hydroxyandrost-5-en-17-one;Androstenolone;Androst-5-ene-3β-ol-17-one;5-Androsten-3β-ol-17-one;5-Dehydroepiandrosterone;5,6-Dehydroisoandrosterone;5,6-Didehydroisoandrosterone;Prasterone;Psicosterone;Diandron;Diandrone;Dehydro-<em>epi</em>-androsterone;Δ<sup>5</sup>-Androsten-3β-ol-17-one;IM 28;GL 701;Astenile;Deandros;Siscelar plus;NSC 9896;Androst-5-ene-17-one-3β-ol;Immunor;Intrarosa;EM 760;MeSH ID: D003687",
    "duplicated_cas_no": "9013-35-8;105597-37-3;108673-53-6;2581198-59-4",
    "SMILES": "C[C@@]12[C@@]3([C@]([C@]4([C@](C)(CC3)C(=O)CC4)[H])(CC=C1C[C@@H](O)CC2)[H])[H]",
    "meta_data": {
        "InChI": "InChI=1S/C19H28O2/c1-18-9-7-13(20)11-12(18)3-4-14-15-5-6-17(21)19(15,2)10-8-16(14)18/h3,13-16,20H,4-11H2,1-2H3/t13-,14-,15-,16-,18-,19-/m0/s1",
        "InChIKey": null,
        "Canonical SMILES": "O=C1CCC2C3CC=C4CC(O)CCC4(C)C3CCC12C",
        "Molecular Formula": "C<sub>19</sub>H<sub>28</sub>O<sub>2</sub>",
        "Molecular Mass": "288.42",
        "Melting Point": "140-141 °C"
    }
}