{
    "cas_no": "66722-44-9",
    "key_name": "Bisoprolol",
    "cn_name": "比索洛尔;1-[4-[[2-(1-甲基乙氧基)乙氧基]甲基]苯氧基]-3-[(1-甲基乙基)氨基]-2-丙醇;",
    "alternate_name": "2-Propanol, 1-[4-[[2-(1-methylethoxy)ethoxy]methyl]phenoxy]-3-[(1-methylethyl)amino]-;1-[4-[[2-(1-Methylethoxy)ethoxy]methyl]phenoxy]-3-[(1-methylethyl)amino]-2-propanol;1-(<em>p</em>-2-Isopropoxyethoxymethylphenoxy)-3-isopropylaminopropan-2-ol;Bisoprolol;(±)-Bisoprolol;Racemic Bisoprolol;Konkor;Cardensiel;TY 0201;1-(Propan-2-ylamino)-3-[4-(2-propan-2-yloxyethoxymethyl)phenoxy]propan-2-ol;1-[4-(2-Isopropoxy-ethoxymethyl)-phenoxy]-3-isopropylamino-propan-2-ol;MeSH ID: D017298",
    "duplicated_cas_no": "103419-23-4",
    "SMILES": "O(CC(CNC(C)C)O)C1=CC=C(COCCOC(C)C)C=C1",
    "meta_data": {
        "InChI": "InChI=1S/C18H31NO4/c1-14(2)19-11-17(20)13-23-18-7-5-16(6-8-18)12-21-9-10-22-15(3)4/h5-8,14-15,17,19-20H,9-13H2,1-4H3",
        "InChIKey": null,
        "Canonical SMILES": "OC(COC1=CC=C(C=C1)COCCOC(C)C)CNC(C)C",
        "Molecular Formula": "C<sub>18</sub>H<sub>31</sub>NO<sub>4</sub>",
        "Molecular Mass": "325.44",
        "Melting Point": "100 °C"
    }
}