{
    "cas_no": "17090-79-8",
    "key_name": "Monensin",
    "cn_name": null,
    "alternate_name": "Monensin;1,6-Dioxaspiro[4.5]decane-7-butyric acid, 2-[5-ethyltetrahydro-5-[tetrahydro-3-methyl-5-[tetrahydro-6-hydroxy-6-(hydroxymethyl)-3,5-dimethyl-2<em>H</em>-pyran-2-yl]-2-furyl]-2-furyl]-9-hydroxy-β-methoxy-α,γ,2,8-tetramethyl-;1,6-Dioxaspiro[4.5]decane, monensin deriv.;Monensic acid;Monensin A;Elancoban;Monelan;Stereoisomer of 2-[2-ethyloctahydro-3′-methyl-5′-[tetrahydro-6-hydroxy-6-(hydroxymethyl)-3,5-dimethyl-2<em>H</em>-pyran-2-yl][2,2′-bifuran]-5-yl]-9-hydroxy-β-methoxy-α,γ,2,8-tetramethyl-1,6-dioxaspiro[4.5]decane-7-butanoic acid;A 3823A;Rumensin CRC;Rumensin 90;MeSH ID: D008985",
    "duplicated_cas_no": "1392-52-5;802902-12-1;1174269-36-3;1192273-30-5;2232232-61-8",
    "SMILES": "C[C@@]1(O[C@]2(O[C@]([C@H]([C@H]([C@@H](C(O)=O)C)OC)C)([C@H](C)[C@@H](O)C2)[H])CC1)[C@@]3(O[C@@](CC)(CC3)[C@@]4(O[C@](C[C@@H]4C)([C@]5(O[C@](CO)(O)[C@H](C)C[C@@H]5C)[H])[H])[H])[H]",
    "meta_data": {
        "InChI": "InChI=1S/C36H62O11/c1-10-34(31-20(3)16-26(43-31)28-19(2)15-21(4)36(41,18-37)46-28)12-11-27(44-34)33(8)13-14-35(47-33)17-25(38)22(5)30(45-35)23(6)29(42-9)24(7)32(39)40/h19-31,37-38,41H,10-18H2,1-9H3,(H,39,40)/t19-,20-,21+,22+,23-,24-,25-,26+,27+,28-,29+,30-,31+,33-,34-,35+,36-/m0/s1",
        "InChIKey": null,
        "Canonical SMILES": "O=C(O)C(C)C(OC)C(C)C1OC2(OC(C)(CC2)C3OC(CC)(CC3)C4OC(CC4C)C5OC(O)(CO)C(C)CC5C)CC(O)C1C",
        "Molecular Formula": "C<sub>36</sub>H<sub>62</sub>O<sub>11</sub>",
        "Molecular Mass": "670.87",
        "Melting Point": "103-105 °C"
    }
}