{
    "cas_no": "586-89-0",
    "key_name": "4-Acetylbenzoic acid",
    "cn_name": "4-乙酰基苯甲酸;对乙酰基苯甲酸;",
    "alternate_name": "Benzoic acid, 4-acetyl-;Benzoic acid, <em>p</em>-acetyl-;4-Acetylbenzoic acid;<em>p</em>-Acetylbenzoic acid;<em>p</em>-Carboxyacetophenone;4-Carboxyacetophenone;4-(1-Oxoethyl)benzoic acid;NSC 16644",
    "duplicated_cas_no": "2764684-50-4",
    "SMILES": "C(C)(=O)C1=CC=C(C(O)=O)C=C1",
    "meta_data": {
        "InChI": "InChI=1S/C9H8O3/c1-6(10)7-2-4-8(5-3-7)9(11)12/h2-5H,1H3,(H,11,12)",
        "InChIKey": null,
        "Canonical SMILES": "O=C(O)C1=CC=C(C=C1)C(=O)C",
        "Molecular Formula": "C<sub>9</sub>H<sub>8</sub>O<sub>3</sub>",
        "Molecular Mass": "164.16",
        "Melting Point": "208 °C"
    }
}