{
    "cas_no": "145-41-5",
    "key_name": "Sodium dehydrocholate",
    "cn_name": "去氢胆酸钠;",
    "alternate_name": "Cholan-24-oic acid, 3,7,12-trioxo-, sodium salt, (5β)-;5β-Cholan-24-oic acid, 3,7,12-trioxo-, sodium salt;Dehydrocholic acid sodium salt;Biliton;Carachol;Decholin sodium;Decholin sodium salt;Dehydrocholate sodium;Dilabil sodium;Dycholium;Sodium dehydrocholate;Sodium 3,7,12-triketocholanate;Sodium 3,7,12-trioxo-5β-cholanate;Suprachol;Biliron",
    "duplicated_cas_no": "1510-17-4",
    "SMILES": "O=C1[C@]2([C@]3([C@@](C)([C@@]([C@@H](CCC(O)=O)C)(CC3)[H])C(=O)C[C@@]2([C@]4(C)[C@](C1)(CC(=O)CC4)[H])[H])[H])[H].[Na]",
    "meta_data": {
        "InChI": "InChI=1S/C24H34O5.Na/c1-13(4-7-21(28)29)16-5-6-17-22-18(12-20(27)24(16,17)3)23(2)9-8-15(25)10-14(23)11-19(22)26;/h13-14,16-18,22H,4-12H2,1-3H3,(H,28,29);/t13-,14+,16-,17+,18+,22+,23+,24-;/m1./s1",
        "InChIKey": null,
        "Canonical SMILES": "[Na].O=C(O)CCC(C)C1CCC2C3C(=O)CC4CC(=O)CCC4(C)C3CC(=O)C21C",
        "Molecular Formula": "C<sub>24</sub>H<sub>34</sub>O<sub>5</sub>.Na",
        "Molecular Mass": "",
        "Melting Point": "237.5-238.5 °C"
    }
}