{
    "cas_no": "6161-65-5",
    "key_name": "2-Methoxy-6-methylbenzoic acid",
    "cn_name": "2-甲氧基-6-甲基苯甲酸;",
    "alternate_name": "Benzoic acid, 2-methoxy-6-methyl-;<em>o</em>-Anisic acid, 6-methyl-;2-Methoxy-6-methylbenzoic acid;NSC 118167",
    "duplicated_cas_no": "",
    "SMILES": "C(O)(=O)C1=C(OC)C=CC=C1C",
    "meta_data": {
        "InChI": "InChI=1S/C9H10O3/c1-6-4-3-5-7(12-2)8(6)9(10)11/h3-5H,1-2H3,(H,10,11)",
        "InChIKey": null,
        "Canonical SMILES": "O=C(O)C=1C(OC)=CC=CC1C",
        "Molecular Formula": "C<sub>9</sub>H<sub>10</sub>O<sub>3</sub>",
        "Molecular Mass": "166.17",
        "Boiling Point": "140 °C @ Press: 18 Torr",
        "Melting Point": "137-138 °C"
    }
}