{
    "cas_no": "101012-12-8",
    "key_name": "2-Chloro-5-thiazolecarboxylic acid",
    "cn_name": null,
    "alternate_name": "5-Thiazolecarboxylic acid, 2-chloro-;2-Chloro-5-thiazolecarboxylic acid;2-Chlorothiazole-5-carboxylic acid;2-Chloro-1,3-thiazole-5-carboxylic acid",
    "duplicated_cas_no": "",
    "SMILES": "C(O)(=O)C=1SC(Cl)=NC1",
    "meta_data": {
        "InChI": "InChI=1S/C4H2ClNO2S/c5-4-6-1-2(9-4)3(7)8/h1H,(H,7,8)",
        "InChIKey": null,
        "Canonical SMILES": "O=C(O)C=1SC(Cl)=NC1",
        "Molecular Formula": "C<sub>4</sub>H<sub>2</sub>ClNO<sub>2</sub>S",
        "Molecular Mass": "163.58",
        "Melting Point": "165 °C"
    }
}