{
    "cas_no": "16874-81-0",
    "key_name": "Histidylphenylalanine",
    "cn_name": null,
    "alternate_name": "<span class=\"text-smallcaps\">L</smallcap>-Phenylalanine, <smallcap>L</span>-histidyl-;Alanine, <em>N</em>-<span class=\"text-smallcaps\">L</smallcap>-histidyl-3-phenyl-, <smallcap>L</span>-;<span class=\"text-smallcaps\">L</smallcap>-Phenylalanine, <em>N</em>-<smallcap>L</span>-histidyl-;Alanine, <em>N</em>-<span class=\"text-smallcaps\">L</span>-histidyl-3-phenyl-;Alanine, <em>N</em>-histidyl-3-phenyl-;<span class=\"text-smallcaps\">L</smallcap>-Histidyl-<smallcap>L</span>-phenylalanine;Histidylphenylalanine;36: PN: WO2009143133 PAGE: 62 claimed protein;182: PN: EP2161028 PAGE: 10 claimed protein;81: PN: WO2020097235 SEQID: 311 claimed protein",
    "duplicated_cas_no": "",
    "SMILES": "C([C@H](NC([C@H](CC1=CN=CN1)N)=O)C(O)=O)C2=CC=CC=C2",
    "meta_data": {
        "InChI": "InChI=1S/C15H18N4O3/c16-12(7-11-8-17-9-18-11)14(20)19-13(15(21)22)6-10-4-2-1-3-5-10/h1-5,8-9,12-13H,6-7,16H2,(H,17,18)(H,19,20)(H,21,22)/t12-,13-/m0/s1",
        "InChIKey": null,
        "Canonical SMILES": "O=C(O)C(NC(=O)C(N)CC1=CN=CN1)CC=2C=CC=CC2",
        "Molecular Formula": "C<sub>15</sub>H<sub>18</sub>N<sub>4</sub>O<sub>3</sub>",
        "Molecular Mass": "302.33",
        "Melting Point": "255-258 °C (decomp)"
    }
}