{
    "cas_no": "22535-49-5",
    "key_name": "4-(Acryloyloxy)benzophenone",
    "cn_name": "4-丙烯酰氧基二苯甲酮; 4-苯甲酰苯基 2-丙烯酸酯;",
    "alternate_name": "2-Propenoic acid, 4-benzoylphenyl ester;Acrylic acid, ester with 4-hydroxybenzophenone;Benzophenone, 4-hydroxy-, acrylate;<em>p</em>-Acryloxybenzophenone;4-Acryloxybenzophenone;4-Benzoylphenyl acrylate;4-(Acryloyloxy)benzophenone;4-Acryloylbenzophenone",
    "duplicated_cas_no": "",
    "SMILES": "C(=O)(C1=CC=C(OC(C=C)=O)C=C1)C2=CC=CC=C2",
    "meta_data": {
        "InChI": "InChI=1S/C16H12O3/c1-2-15(17)19-14-10-8-13(9-11-14)16(18)12-6-4-3-5-7-12/h2-11H,1H2",
        "InChIKey": null,
        "Canonical SMILES": "O=C(OC1=CC=C(C=C1)C(=O)C=2C=CC=CC2)C=C",
        "Molecular Formula": "C<sub>16</sub>H<sub>12</sub>O<sub>3</sub>",
        "Molecular Mass": "252.26",
        "Melting Point": "48.5 °C"
    }
}