{
    "cas_no": "96-23-1",
    "key_name": "1,3-Dichloro-2-propanol",
    "cn_name": "1,3-二氯丙醇;1,3-二氯-2-丙醇;二氯甘油;",
    "alternate_name": "2-Propanol, 1,3-dichloro-;1,3-Dichloro-2-propanol;<em>sym</em>-Dichloroisopropyl alcohol;Glycerol α,γ-dichlorohydrin;<em>sym</em>-Glycerol dichlorohydrin;α,γ-Dichlorohydrin;1,3-Dichloro-2-hydroxypropane;Glycerol 1,3-dichlorohydrin;α-Dichlorohydrin;1,3-Dichloroisopropanol;Propylene dichlorohydrin;1,3-Dichloroisopropyl alcohol;1,3-Dichlorohydrin;2-Chloro-1-(chloromethyl)ethanol;Bis(chloromethyl)methanol;NSC 70982",
    "duplicated_cas_no": "148584-48-9",
    "SMILES": "C(CCl)(CCl)O",
    "meta_data": {
        "InChI": "InChI=1S/C3H6Cl2O/c4-1-3(6)2-5/h3,6H,1-2H2",
        "InChIKey": null,
        "Canonical SMILES": "ClCC(O)CCl",
        "Molecular Formula": "C<sub>3</sub>H<sub>6</sub>Cl<sub>2</sub>O",
        "Molecular Mass": "128.99",
        "Boiling Point": "174.3 °C @ Press: 760 Torr",
        "Melting Point": "-4 °C",
        "Density": "1.3506 g/cm³ @ Temp: 17 °C"
    }
}