{
    "cas_no": "32018-88-5",
    "key_name": "5-Amino-1-naphthalenecarboxylic acid",
    "cn_name": null,
    "alternate_name": "1-Naphthalenecarboxylic acid, 5-amino-;1-Naphthoic acid, 5-amino-;5-Amino-1-naphthalenecarboxylic acid;5-Amino-1-naphthoic acid;1-Aminonaphthalene-5-carboxylic acid",
    "duplicated_cas_no": "",
    "SMILES": "C(O)(=O)C=1C2=C(C(N)=CC=C2)C=CC1",
    "meta_data": {
        "InChI": "InChI=1S/C11H9NO2/c12-10-6-2-3-7-8(10)4-1-5-9(7)11(13)14/h1-6H,12H2,(H,13,14)",
        "InChIKey": null,
        "Canonical SMILES": "O=C(O)C1=CC=CC=2C(N)=CC=CC12",
        "Molecular Formula": "C<sub>11</sub>H<sub>9</sub>NO<sub>2</sub>",
        "Molecular Mass": "187.19",
        "Melting Point": "201-202 °C"
    }
}