{
    "cas_no": "360-97-4",
    "key_name": "5-Aminoimidazole-4-carboxamide",
    "cn_name": "4-氨基-5-咪唑甲酰胺;",
    "alternate_name": "1<em>H</em>-Imidazole-4-carboxamide, 5-amino-;Imidazole-4-carboxamide, 5-amino-;5-Amino-1<em>H</em>-imidazole-4-carboxamide;AIC;4-Aminoimidazole-5-carboxamide;5-Aminoimidazole-4-carboxamide;AICA;Ba 2756;4-Carboxamido-5-aminoimidazole;4-Carbamoyl-5-aminoimidazole;5-Amino-4-carbamoylimidazole;NSC 7784;4-Amino-5-carbamoylimidazole;5-Amino-1<em>H</em>-imidazole-4-carboxylic acid amide;5-Amino-3<em>H</em>-imidazole-4-carboxamide;4-Amino-1<em>H</em>-imidazole-5-carboxamide",
    "duplicated_cas_no": "932-15-0",
    "SMILES": "C(N)(=O)C1=C(N)N=CN1",
    "meta_data": {
        "InChI": "InChI=1S/C4H6N4O/c5-3-2(4(6)9)7-1-8-3/h1H,5H2,(H2,6,9)(H,7,8)",
        "InChIKey": null,
        "Canonical SMILES": "O=C(N)C=1NC=NC1N",
        "Molecular Formula": "C<sub>4</sub>H<sub>6</sub>N<sub>4</sub>O",
        "Molecular Mass": "126.12",
        "Melting Point": "255-256 °C (decomp)"
    }
}