{
    "cas_no": "79416-27-6",
    "key_name": "Pentanoic acid, 5-amino-4-oxo-, methyl ester, hydrochloride (1:1)",
    "cn_name": "5-氨基酮戊酸甲酯盐酸盐;",
    "alternate_name": "Pentanoic acid, 5-amino-4-oxo-, methyl ester, hydrochloride (1:1);Pentanoic acid, 5-amino-4-oxo-, methyl ester, hydrochloride;Methyl 5-aminolevulinate hydrochloride;Methyl 5-amino-4-oxopentanoate hydrochloride;P 1202;Methyl aminolevulinate hydrochloride;Metvix;5-Amino-4-oxopentanoic acid methyl ester hydrochloride;δ-Aminolevulinic acid methyl ester hydrochloride;5-Aminolevulinic acid methyl ester hydrochloride;Methyl ALA ester hydrochloride",
    "duplicated_cas_no": "",
    "SMILES": "C(CCC(OC)=O)(CN)=O.Cl",
    "meta_data": {
        "InChI": "InChI=1S/C6H11NO3.ClH/c1-10-6(9)3-2-5(8)4-7;/h2-4,7H2,1H3;1H",
        "InChIKey": null,
        "Canonical SMILES": "Cl.O=C(OC)CCC(=O)CN",
        "Molecular Formula": "C<sub>6</sub>H<sub>11</sub>NO<sub>3</sub>.ClH",
        "Molecular Mass": "",
        "Melting Point": "119.0-121.0 °C"
    }
}