{
    "cas_no": "2444-46-4",
    "key_name": "Nonivamide",
    "cn_name": "辣椒素;合成辣椒碱;壬酸香草酰胺;N-(4-羟基-3-甲氧基苄基)壬酰胺;",
    "alternate_name": "Nonanamide, <em>N</em>-[(4-hydroxy-3-methoxyphenyl)methyl]-;Nonanamide, <em>N</em>-vanillyl-;<em>N</em>-[(4-Hydroxy-3-methoxyphenyl)methyl]nonanamide;Nonanoic acid vanillylamide;Pelargonic acid vanillylamide;<em>N</em>-Vanillylnonanamide;<em>N</em>-Vanillylpelargonamide;Vanillyl <em>n</em>-nonylamide;Vanillyl pelargonic amide;<em>N</em>-Vanillylnonamide;Nonylic acid vanillylamide;Nonylic vanillylamide;Nonivamide;AH 23491X;Pseudocapsaicin;<em>N</em>-(4-Hydroxy-3-methoxybenzyl)nonamide;Nonanoylvanillyl amide;8-Nordihydrocapsaicin;NSC 172795",
    "duplicated_cas_no": "618-92-8;60806-29-3;497080-86-1",
    "SMILES": "C(NC(CCCCCCCC)=O)C1=CC(OC)=C(O)C=C1",
    "meta_data": {
        "InChI": "InChI=1S/C17H27NO3/c1-3-4-5-6-7-8-9-17(20)18-13-14-10-11-15(19)16(12-14)21-2/h10-12,19H,3-9,13H2,1-2H3,(H,18,20)",
        "InChIKey": null,
        "Canonical SMILES": "O=C(NCC1=CC=C(O)C(OC)=C1)CCCCCCCC",
        "Molecular Formula": "C<sub>17</sub>H<sub>27</sub>NO<sub>3</sub>",
        "Molecular Mass": "293.40",
        "Boiling Point": "200-210 °C @ Press: 0.05 Torr",
        "Melting Point": "57-59 °C"
    }
}