{
    "cas_no": "1571-08-0",
    "key_name": "Methyl 4-formylbenzoate",
    "cn_name": "对甲酰基苯甲酸甲酯;",
    "alternate_name": "Benzoic acid, 4-formyl-, methyl ester;Terephthalaldehydic acid, methyl ester;Methyl <em>p</em>-formylbenzoate;<em>p</em>-Formylbenzoic acid methyl ester;Methyl 4-formylbenzoate;4-(Methoxycarbonyl)benzaldehyde;4-Carbomethoxybenzaldehyde;Methyl benzaldehyde-4-carboxylate;4-Carboxybenzaldehyde methyl ester;<em>p</em>-Carbomethoxybenzaldehyde;<em>p</em>-(Methoxycarbonyl)benzaldehyde;Methyl terephthalaldehydate;4-Formylbenzoic acid methyl ester;Para(methoxycarbonyl)benzaldehyde;4-Formylbenzoic methyl ester;NSC 28459",
    "duplicated_cas_no": "1365387-11-6",
    "SMILES": "C(OC)(=O)C1=CC=C(C=O)C=C1",
    "meta_data": {
        "InChI": "InChI=1S/C9H8O3/c1-12-9(11)8-4-2-7(6-10)3-5-8/h2-6H,1H3",
        "InChIKey": null,
        "Canonical SMILES": "O=CC1=CC=C(C=C1)C(=O)OC",
        "Molecular Formula": "C<sub>9</sub>H<sub>8</sub>O<sub>3</sub>",
        "Molecular Mass": "164.16",
        "Boiling Point": "135 °C @ Press: 12 Torr",
        "Melting Point": "62-63 °C"
    }
}