{
    "cas_no": "35761-27-4",
    "key_name": "<span class=\"text-smallcaps\">L</span>-Alanine, 3-amino-<em>N</em>-[(phenylmethoxy)carbonyl]-, methyl ester, hydrochloride (1:1)",
    "cn_name": null,
    "alternate_name": "<span class=\"text-smallcaps\">L</span>-Alanine, 3-amino-<em>N</em>-[(phenylmethoxy)carbonyl]-, methyl ester, hydrochloride (1:1);<span class=\"text-smallcaps\">L</span>-Alanine, 3-amino-<em>N</em>-[(phenylmethoxy)carbonyl]-, methyl ester, monohydrochloride;(<em>S</em>)-Methyl 3-amino-2-(benzyloxycarbonylamino)propionate hydrochloride;3-Amino-<em>N</em>-(benzyloxycarbonyl)-<span class=\"text-smallcaps\">L</span>-alanine methyl ester hydrochloride;(2S)-2-[[(Benzyloxy)carbonyl]amino]-3-methoxy-3-oxopropan-1-aminium chloride;(<em>S</em>)-Methyl 3-amino-2-(benzyloxycarbonylamino)propanoate hydrochloride;Methyl (2S)-3-amino-2-[(benzyloxycarbonyl)amino]propanoate hydrochloride",
    "duplicated_cas_no": "",
    "SMILES": "C(OC(N[C@H](C(OC)=O)CN)=O)C1=CC=CC=C1.Cl",
    "meta_data": {
        "InChI": "InChI=1S/C12H16N2O4.ClH/c1-17-11(15)10(7-13)14-12(16)18-8-9-5-3-2-4-6-9;/h2-6,10H,7-8,13H2,1H3,(H,14,16);1H/t10-;/m0./s1",
        "InChIKey": null,
        "Canonical SMILES": "Cl.O=C(OCC=1C=CC=CC1)NC(C(=O)OC)CN",
        "Molecular Formula": "C<sub>12</sub>H<sub>16</sub>N<sub>2</sub>O<sub>4</sub>.ClH",
        "Molecular Mass": "",
        "Melting Point": "156-157 °C"
    }
}