{
    "cas_no": "35794-11-7",
    "key_name": "3,5-Dimethylpiperidine",
    "cn_name": "3,5-二甲基哌啶;",
    "alternate_name": "Piperidine, 3,5-dimethyl-;3,5-Lupetidine;3,5-Dimethylpiperidine",
    "duplicated_cas_no": "",
    "SMILES": "CC1CC(C)CNC1",
    "meta_data": {
        "InChI": "InChI=1S/C7H15N/c1-6-3-7(2)5-8-4-6/h6-8H,3-5H2,1-2H3",
        "InChIKey": null,
        "Canonical SMILES": "N1CC(C)CC(C)C1",
        "Molecular Formula": "C<sub>7</sub>H<sub>15</sub>N",
        "Molecular Mass": "113.20",
        "Boiling Point": "144 °C",
        "Density": "0.8532 g/cm³ @ Temp: 20 °C"
    }
}