{
    "cas_no": "64443-05-6",
    "key_name": "Tetrakis(acetonitrile)copper(1+) hexafluorophosphate",
    "cn_name": null,
    "alternate_name": "Copper(1+), tetrakis(acetonitrile)-, (<em>T</em>-4)-, hexafluorophosphate(1-) (1:1);Copper(1+), tetrakis(acetonitrile)-, (<em>T</em>-4)-, hexafluorophosphate(1-);Phosphate(1-), hexafluoro-, (<em>T</em>-4)-tetrakis(acetonitrile)copper(1+);Tetrakis(acetonitrile)copper(1+) hexafluorophosphate(1-);Tetrakis(acetonitrile)copper(1+) hexafluorophosphate;Tetrakis(acetonitrile)copper(I) hexafluorophosphate;Tetrakis(acetonitrile)copper hexafluorophosphate;Tetra(acetonitrile)copper(1+) hexafluorophosphate;Cuprous tetrakis(acetonitrile) hexafluorophosphate;Copper(I) tetrakis(acetonitrile) hexafluorophosphate",
    "duplicated_cas_no": "",
    "SMILES": "[P+5]([F-])([F-])([F-])([F-])([F-])[F-].[Cu+]([N]#CC)([N]#CC)([N]#CC)[N]#CC",
    "meta_data": {
        "InChI": "InChI=1S/4C2H3N.Cu.F6P/c4*1-2-3;;1-7(2,3,4,5)6/h4*1H3;;/q;;;;+1;-1",
        "InChIKey": null,
        "Canonical SMILES": "[F-][P+5]([F-])([F-])([F-])([F-])[F-].C(#[N][Cu+]([N]#CC)([N]#CC)[N]#CC)C",
        "Molecular Formula": "C<sub>8</sub>H<sub>12</sub>CuN<sub>4</sub>.F<sub>6</sub>P",
        "Molecular Mass": "",
        "Melting Point": "147-152 °C (decomp)"
    }
}