{
    "cas_no": "3808-87-5",
    "key_name": "Bis(2,4,5-trichlorophenyl) disulfide",
    "cn_name": null,
    "alternate_name": "Disulfide, bis(2,4,5-trichlorophenyl);Bis(2,4,5-trichlorophenyl) disulfide;NSC 238936;NSC 677440;1,2,4-Trichloro-5-[(2,4,5-trichlorophenyl)disulfanyl]benzene;2,4,5-Trichlorophenyl disulfide",
    "duplicated_cas_no": "",
    "SMILES": "S(SC1=C(Cl)C=C(Cl)C(Cl)=C1)C2=C(Cl)C=C(Cl)C(Cl)=C2",
    "meta_data": {
        "InChI": "InChI=1S/C12H4Cl6S2/c13-5-1-9(17)11(3-7(5)15)19-20-12-4-8(16)6(14)2-10(12)18/h1-4H",
        "InChIKey": null,
        "Canonical SMILES": "ClC=1C=C(Cl)C(SSC2=CC(Cl)=C(Cl)C=C2Cl)=CC1Cl",
        "Molecular Formula": "C<sub>12</sub>H<sub>4</sub>Cl<sub>6</sub>S<sub>2</sub>",
        "Molecular Mass": "425.01",
        "Melting Point": "148 °C"
    }
}