{
    "cas_no": "469-21-6",
    "key_name": "(±)-Doxylamine",
    "cn_name": null,
    "alternate_name": "Ethanamine, <em>N</em>,<em>N</em>-dimethyl-2-[1-phenyl-1-(2-pyridinyl)ethoxy]-;Pyridine, 2-[α-[2-(dimethylamino)ethoxy]-α-methylbenzyl]-;<em>N</em>,<em>N</em>-Dimethyl-2-[1-phenyl-1-(2-pyridinyl)ethoxy]ethanamine;Doxylamine;2-[α-[2-(Dimethylamino)ethoxy]-α-methylbenzyl]pyridine;(±)-Doxylamine;LS 127;MeSH ID: D004319",
    "duplicated_cas_no": "102737-83-7",
    "SMILES": "C(OCCN(C)C)(C)(C1=CC=CC=C1)C2=CC=CC=N2",
    "meta_data": {
        "InChI": "InChI=1S/C17H22N2O/c1-17(20-14-13-19(2)3,15-9-5-4-6-10-15)16-11-7-8-12-18-16/h4-12H,13-14H2,1-3H3",
        "InChIKey": null,
        "Canonical SMILES": "N=1C=CC=CC1C(OCCN(C)C)(C=2C=CC=CC2)C",
        "Molecular Formula": "C<sub>17</sub>H<sub>22</sub>N<sub>2</sub>O",
        "Molecular Mass": "270.37",
        "Boiling Point": "137-141 °C @ Press: 0.5 Torr",
        "Melting Point": "&lt;25 °C"
    }
}