{
    "cas_no": "588-53-4",
    "key_name": "4-(Benzylideneamino)phenol",
    "cn_name": "对苄亚甲基氨基苯酚;4-苄烯氨基苯酚;N-亚苄对羟苯胺;",
    "alternate_name": "Phenol, 4-[(phenylmethylene)amino]-;Phenol, <em>p</em>-(benzylideneamino)-;4-[(Phenylmethylene)amino]phenol;<em>p</em>-Benzalaminophenol;Benzylidene-<em>p</em>-hydroxyaniline;<em>p</em>-(Benzylideneamino)phenol;<em>N</em>-Benzylidene-<em>p</em>-hydroxyaniline;<em>N</em>-Benzylidene-4-hydroxyaniline;4-Hydroxy-<em>N</em>-benzylideneaniline;Benzylidene-4-hydroxyaniline;4-(Benzylideneamino)phenol;NSC 1565;<em>N</em>-(4-Hydroxyphenyl)benzylideneimine",
    "duplicated_cas_no": "",
    "SMILES": "N(=CC1=CC=CC=C1)C2=CC=C(O)C=C2",
    "meta_data": {
        "InChI": "InChI=1S/C13H11NO/c15-13-8-6-12(7-9-13)14-10-11-4-2-1-3-5-11/h1-10,15H",
        "InChIKey": null,
        "Canonical SMILES": "OC1=CC=C(N=CC=2C=CC=CC2)C=C1",
        "Molecular Formula": "C<sub>13</sub>H<sub>11</sub>NO",
        "Molecular Mass": "197.23",
        "Melting Point": "181 °C"
    }
}