{
    "cas_no": "14073-97-3",
    "key_name": "(-)-Menthone",
    "cn_name": null,
    "alternate_name": "Cyclohexanone, 5-methyl-2-(1-methylethyl)-, (2<em>S</em>,5<em>R</em>)-;<em>p</em>-Menthan-3-one, (1<em>R</em>,4<em>S</em>)-(-)-;Cyclohexanone, 5-methyl-2-(1-methylethyl)-, (2<em>S</em>-<em>trans</em>)-;(2<em>S</em>,5<em>R</em>)-5-Methyl-2-(1-methylethyl)cyclohexanone;(-)-Menthone;<span class=\"text-smallcaps\">L</span>-Menthone;<em>trans</em>-(-)-<em>p</em>-Menthan-3-one;(1<em>R</em>,4<em>S</em>)-Menthone;<em>l</em>-Menthone;(1<em>R</em>,4<em>S</em>)-<em>p</em>-Menthan-3-one;(1<em>R</em>,4<em>S</em>)-<em>p</em>-Menth-3-one;(2<em>S</em>,5<em>R</em>)-2-Isopropyl-5-methylcyclohexanone;(2<em>S</em>,5<em>R</em>)-(-)-Menthone;(2<em>S</em>,5<em>R</em>)-2-Isopropyl-5-methylcyclohexan-1-one;(2S,5R)-2-Isopropyl-5-methylcyclohexanone;(-)-<span class=\"text-smallcaps\">L</span>-Menthone",
    "duplicated_cas_no": "21060-23-1",
    "SMILES": "[C@H](C)(C)[C@H]1C(=O)C[C@H](C)CC1",
    "meta_data": {
        "InChI": "InChI=1S/C10H18O/c1-7(2)9-5-4-8(3)6-10(9)11/h7-9H,4-6H2,1-3H3/t8-,9+/m1/s1",
        "InChIKey": null,
        "Canonical SMILES": "O=C1CC(C)CCC1C(C)C",
        "Molecular Formula": "C<sub>10</sub>H<sub>18</sub>O",
        "Molecular Mass": "154.25",
        "Boiling Point": "207 °C",
        "Melting Point": "-6 °C",
        "Density": "0.8955 g/cm³ @ Temp: 20 °C"
    }
}