{
    "cas_no": "29515-99-9",
    "key_name": "5-Methylthio-1<em>H</em>-tetrazole",
    "cn_name": "5-甲硫基四氮唑;",
    "alternate_name": "2<em>H</em>-Tetrazole, 5-(methylthio)-;1<em>H</em>-Tetrazole, 5-(methylthio)-;Tetrazole, 5-(methylthio)-;5-(Methylthio)-2<em>H</em>-tetrazole;5-(Methylthio)tetrazole;5-Methylthio-1<em>H</em>-tetrazole;NSC 141852;5-Methylsulfanyl-1<em>H</em>-tetrazole",
    "duplicated_cas_no": "29914-17-8;872354-91-1",
    "SMILES": "S(C)C=1NN=NN1",
    "meta_data": {
        "InChI": "InChI=1S/C2H4N4S/c1-7-2-3-5-6-4-2/h1H3,(H,3,4,5,6)",
        "InChIKey": null,
        "Canonical SMILES": "N1=NNC(=N1)SC",
        "Molecular Formula": "C<sub>2</sub>H<sub>4</sub>N<sub>4</sub>S",
        "Molecular Mass": "116.14",
        "Melting Point": "150-151 °C"
    }
}