{
    "cas_no": "10009-20-8",
    "key_name": "<em>N</em><sup>6</sup>-(2,2,2-Trifluoroacetyl)-<span class=\"text-smallcaps\">L</span>-lysine",
    "cn_name": "三氟乙酰赖氨酸;N6-三氟乙酰基-L-赖氨酸;",
    "alternate_name": "<span class=\"text-smallcaps\">L</span>-Lysine, <em>N</em><sup>6</sup>-(2,2,2-trifluoroacetyl)-;Lysine, <em>N</em><sup>6</sup>-(trifluoroacetyl)-, <span class=\"text-smallcaps\">L</span>-;<span class=\"text-smallcaps\">L</span>-Lysine, <em>N</em><sup>6</sup>-(trifluoroacetyl)-;<em>N</em><sup>6</sup>-(2,2,2-Trifluoroacetyl)-<span class=\"text-smallcaps\">L</span>-lysine;<em>N</em><sup>6</sup>-(Trifluoroacetyl)-<span class=\"text-smallcaps\">L</span>-lysine;<em>N</em><sup>6</sup>-(Trifluoroacetyl)lysine;<em>N</em><sup>ε</sup>-Trifluoroacetyl-<span class=\"text-smallcaps\">L</span>-lysine;<em>N</em><sup>ω</sup>-(Trifluoroacetyl)-<span class=\"text-smallcaps\">L</span>-lysine;(<em>S</em>)-6-(Trifluoroacetylamino)-2-aminohexanoic acid",
    "duplicated_cas_no": "400-62-4",
    "SMILES": "C(NCCCC[C@@H](C(O)=O)N)(C(F)(F)F)=O",
    "meta_data": {
        "InChI": "InChI=1S/C8H13F3N2O3/c9-8(10,11)7(16)13-4-2-1-3-5(12)6(14)15/h5H,1-4,12H2,(H,13,16)(H,14,15)/t5-/m0/s1",
        "InChIKey": null,
        "Canonical SMILES": "O=C(O)C(N)CCCCNC(=O)C(F)(F)F",
        "Molecular Formula": "C<sub>8</sub>H<sub>13</sub>F<sub>3</sub>N<sub>2</sub>O<sub>3</sub>",
        "Molecular Mass": "242.20",
        "Melting Point": "252-254 °C (decomp)"
    }
}