{
    "cas_no": "78-59-1",
    "key_name": "Isophorone",
    "cn_name": "异佛尔酮;3,5,5-三甲基环己-2-烯酮;",
    "alternate_name": "2-Cyclohexen-1-one, 3,5,5-trimethyl-;3,5,5-Trimethyl-2-cyclohexen-1-one;Isoacetophorone;Isophorone;1,1,3-Trimethyl-3-cyclohexene-5-one;3,5,5-Trimethyl-2-cyclohexene-1-one;Isoforon;Isophoron;α-Isophoron;3,5,5-Trimethyl-2-cyclohexenone;α-Isophorone;1-Cyclohexen-3-one, 1,5,5-trimethyl-;1,5,5-Trimethyl-3-oxocyclohexene;NSC 403657;NSC 4881",
    "duplicated_cas_no": "",
    "SMILES": "CC1(C)CC(C)=CC(=O)C1",
    "meta_data": {
        "InChI": "InChI=1S/C9H14O/c1-7-4-8(10)6-9(2,3)5-7/h4H,5-6H2,1-3H3",
        "InChIKey": null,
        "Canonical SMILES": "O=C1C=C(C)CC(C)(C)C1",
        "Molecular Formula": "C<sub>9</sub>H<sub>14</sub>O",
        "Molecular Mass": "138.21",
        "Boiling Point": "215.32 °C",
        "Melting Point": "-8.1 °C",
        "Density": "0.9255 g/cm³ @ Temp: 20 °C"
    }
}