{
    "cas_no": "28752-82-1",
    "key_name": "2-(Allyloxy)benzaldehyde",
    "cn_name": "邻丙烯基氧基苯甲醛;2-(2-丙烯基氧基)苯甲醛;",
    "alternate_name": "Benzaldehyde, 2-(2-propen-1-yloxy)-;Benzaldehyde, <em>o</em>-(allyloxy)-;Benzaldehyde, 2-(2-propenyloxy)-;2-(2-Propen-1-yloxy)benzaldehyde;2-(Allyloxy)benzaldehyde;<em>o</em>-(Allyloxy)benzaldehyde;2-(2-Propenyloxy)benzaldehyde;<em>O</em>-Allylsalicylaldehyde;NSC 406724;Allyl <em>o</em>-formylphenyl ether;2-Prop-2-enoxybenzaldehyde",
    "duplicated_cas_no": "",
    "SMILES": "O(CC=C)C1=C(C=O)C=CC=C1",
    "meta_data": {
        "InChI": "InChI=1S/C10H10O2/c1-2-7-12-10-6-4-3-5-9(10)8-11/h2-6,8H,1,7H2",
        "InChIKey": null,
        "Canonical SMILES": "O=CC=1C=CC=CC1OCC=C",
        "Molecular Formula": "C<sub>10</sub>H<sub>10</sub>O<sub>2</sub>",
        "Molecular Mass": "162.19",
        "Boiling Point": "130 °C @ Press: 10 Torr",
        "Density": "1.0938 g/cm³ @ Temp: 20 °C"
    }
}