{
    "cas_no": "10075-62-4",
    "key_name": "1,4-Dimethoxynaphthalene",
    "cn_name": "1,4-二甲氧基萘;",
    "alternate_name": "Naphthalene, 1,4-dimethoxy-;1,4-Dimethoxynaphthalene;NSC 221272",
    "duplicated_cas_no": "",
    "SMILES": "O(C)C=1C2=C(C(OC)=CC1)C=CC=C2",
    "meta_data": {
        "InChI": "InChI=1S/C12H12O2/c1-13-11-7-8-12(14-2)10-6-4-3-5-9(10)11/h3-8H,1-2H3",
        "InChIKey": null,
        "Canonical SMILES": "O(C1=CC=C(OC)C=2C=CC=CC12)C",
        "Molecular Formula": "C<sub>12</sub>H<sub>12</sub>O<sub>2</sub>",
        "Molecular Mass": "188.22",
        "Melting Point": "83-84 °C"
    }
}