{
    "cas_no": "354-76-7",
    "key_name": "2,2,3,3,3-Pentafluoropropanamide",
    "cn_name": "五氟丙胺;五氟丙胺;2,2,3,3,3-五氟丙酰胺;",
    "alternate_name": "Propanamide, 2,2,3,3,3-pentafluoro-;Propionamide, 2,2,3,3,3-pentafluoro-;2,2,3,3,3-Pentafluoropropanamide;Pentafluoropropionamide;2,2,3,3,3-Pentafluoropropionamide;Pentafluoropropionylamide",
    "duplicated_cas_no": "",
    "SMILES": "C(C(F)(F)F)(C(N)=O)(F)F",
    "meta_data": {
        "InChI": "InChI=1S/C3H2F5NO/c4-2(5,1(9)10)3(6,7)8/h(H2,9,10)",
        "InChIKey": null,
        "Canonical SMILES": "O=C(N)C(F)(F)C(F)(F)F",
        "Molecular Formula": "C<sub>3</sub>H<sub>2</sub>F<sub>5</sub>NO",
        "Molecular Mass": "163.05",
        "Melting Point": "95-96 °C"
    }
}