{
    "cas_no": "42245-42-1",
    "key_name": "Methyl 3-(4-methoxyphenyl)-2-oxiranecarboxylate",
    "cn_name": "3-(4-甲氧基苯基)环氧乙烷-2-甲酸甲酯;",
    "alternate_name": "2-Oxiranecarboxylic acid, 3-(4-methoxyphenyl)-, methyl ester;Oxiranecarboxylic acid, 3-(4-methoxyphenyl)-, methyl ester;Glycidic acid, 3-(<em>p</em>-methoxyphenyl)-, methyl ester;Methyl 3-(4-methoxyphenyl)-2-oxiranecarboxylate;Methyl 3-(4-methoxyphenyl)glycidate;Methyl 2,3-epoxy-3-(4-methoxyphenyl)propionate;3-(4-Methoxyphenyl)oxirane-2-carboxylic acid methyl ester",
    "duplicated_cas_no": "",
    "SMILES": "C(OC)(=O)C1C(O1)C2=CC=C(OC)C=C2",
    "meta_data": {
        "InChI": "InChI=1S/C11H12O4/c1-13-8-5-3-7(4-6-8)9-10(15-9)11(12)14-2/h3-6,9-10H,1-2H3",
        "InChIKey": null,
        "Canonical SMILES": "O=C(OC)C1OC1C2=CC=C(OC)C=C2",
        "Molecular Formula": "C<sub>11</sub>H<sub>12</sub>O<sub>4</sub>",
        "Molecular Mass": "208.21",
        "Boiling Point": "145 °C @ Press: 0.7 Torr",
        "Melting Point": "60-62 °C"
    }
}