{
    "cas_no": "1631-26-1",
    "key_name": "Benzylmaleimide",
    "cn_name": "N-苄基马来酰亚胺;",
    "alternate_name": "1<em>H</em>-Pyrrole-2,5-dione, 1-(phenylmethyl)-;Maleimide, <em>N</em>-benzyl-;1-(Phenylmethyl)-1<em>H</em>-pyrrole-2,5-dione;<em>N</em>-Benzylmaleimide;1-Benzyl-1<em>H</em>-pyrrole-2,5-dione;1-Benzyl-2,5-pyrroledione;NSC 12802;Benzylmaleimide;1-Benzyl-pyrrole-2,5-dione;<em>N</em>-Benzylpyrrole-2,5-dione;1-Benzyl-2,5-dihydro-1<em>H</em>-pyrrole-2,5-dione",
    "duplicated_cas_no": "207504-03-8",
    "SMILES": "C(N1C(=O)C=CC1=O)C2=CC=CC=C2",
    "meta_data": {
        "InChI": "InChI=1S/C11H9NO2/c13-10-6-7-11(14)12(10)8-9-4-2-1-3-5-9/h1-7H,8H2",
        "InChIKey": null,
        "Canonical SMILES": "O=C1C=CC(=O)N1CC=2C=CC=CC2",
        "Molecular Formula": "C<sub>11</sub>H<sub>9</sub>NO<sub>2</sub>",
        "Molecular Mass": "187.19",
        "Boiling Point": "177 °C @ Press: 20 Torr",
        "Melting Point": "68-69 °C"
    }
}