{
    "cas_no": "4521-61-3",
    "key_name": "3,4,5-Trimethoxybenzoyl chloride",
    "cn_name": "3,4,5-三甲氧基苯甲酰氯;",
    "alternate_name": "Benzoyl chloride, 3,4,5-trimethoxy-;3,4,5-Trimethoxybenzoyl chloride;Trimethylgalloyl chloride;Tri-<em>O</em>-methylgalloyl chloride;3,4,5-Trimethoxybenzoic acid chloride;NSC 91023",
    "duplicated_cas_no": "",
    "SMILES": "O(C)C1=C(OC)C=C(C(Cl)=O)C=C1OC",
    "meta_data": {
        "InChI": "InChI=1S/C10H11ClO4/c1-13-7-4-6(10(11)12)5-8(14-2)9(7)15-3/h4-5H,1-3H3",
        "InChIKey": null,
        "Canonical SMILES": "O=C(Cl)C1=CC(OC)=C(OC)C(OC)=C1",
        "Molecular Formula": "C<sub>10</sub>H<sub>11</sub>ClO<sub>4</sub>",
        "Molecular Mass": "230.64",
        "Boiling Point": "178-180 °C @ Press: 10 Torr",
        "Melting Point": "77-78 °C"
    }
}