{
    "cas_no": "1336-36-3",
    "key_name": "1,1′-Biphenyl, chloro derivs.",
    "cn_name": null,
    "alternate_name": "1,1′-Biphenyl, chloro derivs.",
    "duplicated_cas_no": "",
    "SMILES": "",
    "meta_data": {
        "InChI": "",
        "InChIKey": null,
        "Canonical SMILES": "",
        "Molecular Formula": "Unspecified",
        "Molecular Mass": "",
        "Melting Point": "340-375 °C",
        "Density": "1.44 g/cm³ @ Temp: 30 °C"
    }
}