{
    "uri": "substance/pt/1336363",
    "rn": "1336-36-3",
    "name": "1,1′-Biphenyl, chloro derivs.",
    "images": [],
    "inchi": "",
    "inchiKey": "",
    "smile": "",
    "canonicalSmile": "",
    "molecularFormula": "Unspecified",
    "molecularMass": "",
    "experimentalProperties": [
        {
            "name": "Melting Point",
            "property": "340-375 °C",
            "sourceNumber": 1
        },
        {
            "name": "Density",
            "property": "1.44 g/cm³ @ Temp: 30 °C",
            "sourceNumber": 1
        }
    ],
    "propertyCitations": [
        {
            "docUri": "",
            "sourceNumber": 1,
            "source": "Hazardous Substances Data Bank data were obtained from the National Library of Medicine (US)"
        }
    ],
    "synonyms": [
        "1,1′-Biphenyl, chloro derivs."
    ],
    "replacedRns": [],
    "hasMolfile": false,
    "source": "https://commonchemistry.cas.org/detail?cas_rn=1336-36-3"
}