{
    "cas_no": "581-50-0",
    "key_name": "2,3′-Bipyridine",
    "cn_name": "2,3\"-联吡啶;",
    "alternate_name": "2,3′-Bipyridine;2,3′-Dipyridyl;α,β-Bipyridine;2,3′-Bipyridyl;α,β-Dipyridyl;2,3′-Dipyridine;Isonicoteine;2-(3-Pyridyl)pyridine;2-(3-Pyridinyl)pyridine;3-(2-Pyridyl)pyridine",
    "duplicated_cas_no": "",
    "SMILES": "C=1(C=CC=NC1)C2=CC=CC=N2",
    "meta_data": {
        "InChI": "InChI=1S/C10H8N2/c1-2-7-12-10(5-1)9-4-3-6-11-8-9/h1-8H",
        "InChIKey": null,
        "Canonical SMILES": "N1=CC=CC(=C1)C=2N=CC=CC2",
        "Molecular Formula": "C<sub>10</sub>H<sub>8</sub>N<sub>2</sub>",
        "Molecular Mass": "156.18",
        "Boiling Point": "295.5 °C",
        "Melting Point": "30-32 °C",
        "Density": "1.0984 g/cm³ @ Temp: 20 °C"
    }
}