{
    "cas_no": "95-24-9",
    "key_name": "2-Amino-6-chlorobenzothiazole",
    "cn_name": "2-氨基-6-氯苯并噻唑;",
    "alternate_name": "2-Benzothiazolamine, 6-chloro-;Benzothiazole, 2-amino-6-chloro-;6-Chloro-2-benzothiazolamine;2-Amino-6-chlorobenzothiazole;6-Chloro-2-benzothiazolylamine;6-Chloro-1,3-benzothiazol-2-ylamine;6-Chloro-2-aminobenzothiazole;6-Chloro-1,3-benzothiazol-2-amine;SKA 3;6-Chlorobenzo[<em>d</em>]thiazol-2-amine;2-Amino-6-chloro-1,3-benzothiazole",
    "duplicated_cas_no": "",
    "SMILES": "NC1=NC=2C(S1)=CC(Cl)=CC2",
    "meta_data": {
        "InChI": "InChI=1S/C7H5ClN2S/c8-4-1-2-5-6(3-4)11-7(9)10-5/h1-3H,(H2,9,10)",
        "InChIKey": null,
        "Canonical SMILES": "ClC=1C=CC=2N=C(SC2C1)N",
        "Molecular Formula": "C<sub>7</sub>H<sub>5</sub>ClN<sub>2</sub>S",
        "Molecular Mass": "184.65",
        "Melting Point": "198 °C"
    }
}