{
    "cas_no": "563-46-2",
    "key_name": "2-Methyl-1-butene",
    "cn_name": "2-甲基-1-丁烯;2-甲-1-丁烯;2-甲基-1-丁烯;2-甲基丁烯;1-甲-1-乙基乙烯;2-甲基-1-丁烯,98%;",
    "alternate_name": "1-Butene, 2-methyl-;2-Methyl-1-butene;γ-Isoamylene;1-Isoamylene;NSC 72414;2-Methyl-1-butylene",
    "duplicated_cas_no": "",
    "SMILES": "C(CC)(C)=C",
    "meta_data": {
        "InChI": "InChI=1S/C5H10/c1-4-5(2)3/h2,4H2,1,3H3",
        "InChIKey": null,
        "Canonical SMILES": "C=C(C)CC",
        "Molecular Formula": "C<sub>5</sub>H<sub>10</sub>",
        "Molecular Mass": "70.13",
        "Boiling Point": "31.2 °C",
        "Melting Point": "-137.5 °C",
        "Density": "0.6504 g/cm³ @ Temp: 20 °C"
    }
}