{
    "cas_no": "623-71-2",
    "key_name": "Propanoic acid, 3-chloro-, ethyl ester",
    "cn_name": "3-氯丙酸乙酯;",
    "alternate_name": "Propanoic acid, 3-chloro-, ethyl ester;Propionic acid, 3-chloro-, ethyl ester;Ethyl 3-chloropropionate;Ethyl 3-chloropropanoate;Ethyl β-chloropropionate;3-Chloropropionic acid ethyl ester;NSC 8845",
    "duplicated_cas_no": "",
    "SMILES": "C(CCCl)(OCC)=O",
    "meta_data": {
        "InChI": "InChI=1S/C5H9ClO2/c1-2-8-5(7)3-4-6/h2-4H2,1H3",
        "InChIKey": null,
        "Canonical SMILES": "O=C(OCC)CCCl",
        "Molecular Formula": "C<sub>5</sub>H<sub>9</sub>ClO<sub>2</sub>",
        "Molecular Mass": "136.58",
        "Boiling Point": "162 °C",
        "Density": "1.1141 g/cm³ @ Temp: 15 °C"
    }
}