{
    "cas_no": "5508-58-7",
    "key_name": "Andrographolide",
    "cn_name": "穿心莲内酯;",
    "alternate_name": "2(3<em>H</em>)-Furanone, 3-[2-[(1<em>R</em>,4a<em>S</em>,5<em>R</em>,6<em>R</em>,8a<em>S</em>)-decahydro-6-hydroxy-5-(hydroxymethyl)-5,8a-dimethyl-2-methylene-1-naphthalenyl]ethylidene]dihydro-4-hydroxy-, (3<em>E</em>,4<em>S</em>)-;5β,9β<span class=\"text-smallcaps\">H</span>,10α-Labda-8(20),12-dien-16-oic acid, 3α,14,15,18-tetrahydroxy-, γ-lactone;2(3<em>H</em>)-Furanone, 3-[2-[decahydro-6-hydroxy-5-(hydroxymethyl)-5,8a-dimethyl-2-methylene-1-naphthalenyl]ethylidene]dihydro-4-hydroxy-, [1<em>R</em>-[1α[<em>E</em>(<em>S</em>*)],4aβ,5α,6α,8aα]]-;Andrographis;(3<em>E</em>,4<em>S</em>)-3-[2-[(1<em>R</em>,4a<em>S</em>,5<em>R</em>,6<em>R</em>,8a<em>S</em>)-Decahydro-6-hydroxy-5-(hydroxymethyl)-5,8a-dimethyl-2-methylene-1-naphthalenyl]ethylidene]dihydro-4-hydroxy-2(3<em>H</em>)-furanone;Andrographolide;Andrographolid;3-dehydroandrographolide or 19-dehydroandrographolide? p. 1388;Andrographiside aglycon",
    "duplicated_cas_no": "101060-34-8;5953-53-7",
    "SMILES": "C[C@]12[C@@]([C@@](CO)(C)[C@H](O)CC1)(CCC(=C)[C@H]2C/C=C/3\\[C@H](O)COC3=O)[H]",
    "meta_data": {
        "InChI": "InChI=1S/C20H30O5/c1-12-4-7-16-19(2,9-8-17(23)20(16,3)11-21)14(12)6-5-13-15(22)10-25-18(13)24/h5,14-17,21-23H,1,4,6-11H2,2-3H3/b13-5+/t14-,15-,16+,17-,19+,20+/m1/s1",
        "InChIKey": null,
        "Canonical SMILES": "O=C1OCC(O)C1=CCC2C(=C)CCC3C(C)(CO)C(O)CCC23C",
        "Molecular Formula": "C<sub>20</sub>H<sub>30</sub>O<sub>5</sub>",
        "Molecular Mass": "350.45",
        "Melting Point": "218 °C (decomp)",
        "Density": "1.2317 g/cm³ @ Temp: 21 °C"
    }
}