{
    "cas_no": "643-65-2",
    "key_name": "3-Methylbenzophenone",
    "cn_name": "3-甲基二苯甲酮;",
    "alternate_name": "Methanone, (3-methylphenyl)phenyl-;Benzophenone, 3-methyl-;(3-Methylphenyl)phenylmethanone;3-Methylbenzophenone;<em>m</em>-Methylbenzophenone;Phenyl <em>m</em>-tolyl ketone;3-Benzoyltoluene;Phenyl 3-tolyl ketone;Phenyl(<em>m</em>-tolyl)methanone",
    "duplicated_cas_no": "",
    "SMILES": "C(=O)(C1=CC(C)=CC=C1)C2=CC=CC=C2",
    "meta_data": {
        "InChI": "InChI=1S/C14H12O/c1-11-6-5-9-13(10-11)14(15)12-7-3-2-4-8-12/h2-10H,1H3",
        "InChIKey": null,
        "Canonical SMILES": "O=C(C=1C=CC=CC1)C2=CC=CC(=C2)C",
        "Molecular Formula": "C<sub>14</sub>H<sub>12</sub>O",
        "Molecular Mass": "196.24",
        "Boiling Point": "317 °C",
        "Melting Point": "159-160 °C",
        "Density": "1.095 g/cm³ @ Temp: 20 °C"
    }
}