{
    "cas_no": "700-16-3",
    "key_name": "Pentafluoropyridine",
    "cn_name": "五氟吡啶;2,3,4,5,6-五氟吡啶;",
    "alternate_name": "Pyridine, 2,3,4,5,6-pentafluoro-;Pyridine, pentafluoro-;2,3,4,5,6-Pentafluoropyridine;Pentafluoropyridine;Perfluoropyridine",
    "duplicated_cas_no": "",
    "SMILES": "FC=1C(F)=C(F)C(F)=NC1F",
    "meta_data": {
        "InChI": "InChI=1S/C5F5N/c6-1-2(7)4(9)11-5(10)3(1)8",
        "InChIKey": null,
        "Canonical SMILES": "FC=1N=C(F)C(F)=C(F)C1F",
        "Molecular Formula": "C<sub>5</sub>F<sub>5</sub>N",
        "Molecular Mass": "169.05",
        "Boiling Point": "83.5 °C",
        "Melting Point": "-42 °C"
    }
}