{
    "cas_no": "5736-03-8",
    "key_name": "2,2-Dimethyl-1,3-dioxolane-4-carboxaldehyde",
    "cn_name": "2,2-二甲基-1,3-二氧戊环-4-甲醛;",
    "alternate_name": "1,3-Dioxolane-4-carboxaldehyde, 2,2-dimethyl-;2,2-Dimethyl-1,3-dioxolane-4-carboxaldehyde;Acetone, cyclic formylethylene acetal;Glyceraldehyde, cyclic acetal with acetone;2,3-<em>O</em>-Isopropylideneglyceraldehyde;Racemic-solketyl aldehyde;2,2-Dimethyl-1,3-dioxolane-4-carbaldehyde",
    "duplicated_cas_no": "66183-63-9",
    "SMILES": "C(=O)C1OC(C)(C)OC1",
    "meta_data": {
        "InChI": "InChI=1S/C6H10O3/c1-6(2)8-4-5(3-7)9-6/h3,5H,4H2,1-2H3",
        "InChIKey": null,
        "Canonical SMILES": "O=CC1OC(OC1)(C)C",
        "Molecular Formula": "C<sub>6</sub>H<sub>10</sub>O<sub>3</sub>",
        "Molecular Mass": "130.14",
        "Boiling Point": "100 °C",
        "Melting Point": "105-110 °C"
    }
}