{
    "cas_no": "382-31-0",
    "key_name": "2,2,3,4,4,4-Hexafluoro-1-butanol",
    "cn_name": "六氟丁醇;2,2,3,4,4,4-六氟-1-丁醇;2,2,3,4,4,4-六氟-1-丁醇;",
    "alternate_name": "1-Butanol, 2,2,3,4,4,4-hexafluoro-;2,2,3,4,4,4-Hexafluoro-1-butanol;2,2,3,4,4,4-Hexafluorobutanol;2,2,3,4,4,4-Hexafluoro-1-butyl alcohol;H 0649;1<em>H</em>,1<em>H</em>,3<em>H</em>-Hexafluorobutanol;2,3,4,4,4-Hexafluorobutan-1-ol",
    "duplicated_cas_no": "",
    "SMILES": "C(C(CO)(F)F)(C(F)(F)F)F",
    "meta_data": {
        "InChI": "InChI=1S/C4H4F6O/c5-2(4(8,9)10)3(6,7)1-11/h2,11H,1H2",
        "InChIKey": null,
        "Canonical SMILES": "FC(C(F)(F)F)C(F)(F)CO",
        "Molecular Formula": "C<sub>4</sub>H<sub>4</sub>F<sub>6</sub>O",
        "Molecular Mass": "182.06",
        "Boiling Point": "117 °C"
    }
}