{
    "cas_no": "107-19-7",
    "key_name": "Propargyl alcohol",
    "cn_name": "2-丙炔-1-醇;炔丙醇;",
    "alternate_name": "2-Propyn-1-ol;Propargyl alcohol;1-Propyn-3-ol;Propynyl alcohol;1-Hydroxy-2-propyne;3-Hydroxy-1-propyne;2-Propynol;2-Propynyl alcohol;Ethynylcarbinol;3-Propynol;1-Propyn-3-yl alcohol;Hydroxymethylacetylene;NSC 8804;3-Hydroxypropyne;Propiolic alcohol",
    "duplicated_cas_no": "",
    "SMILES": "C(CO)#C",
    "meta_data": {
        "InChI": "InChI=1S/C3H4O/c1-2-3-4/h1,4H,3H2",
        "InChIKey": null,
        "Canonical SMILES": "C#CCO",
        "Molecular Formula": "C<sub>3</sub>H<sub>4</sub>O",
        "Molecular Mass": "56.06",
        "Boiling Point": "20 °C @ Press: 11.6 Torr",
        "Melting Point": "-52--48 °C",
        "Density": "0.9715 g/cm³ @ Temp: 20 °C"
    }
}