{
    "cas_no": "1067-87-4",
    "key_name": "Diethyl <em>P</em>-2-propen-1-ylphosphonate",
    "cn_name": "烯丙基磷酸二乙酯;",
    "alternate_name": "Phosphonic acid, <em>P</em>-2-propen-1-yl-, diethyl ester;Phosphonic acid, allyl-, diethyl ester;Phosphonic acid, 2-propenyl-, diethyl ester;Diethyl <em>P</em>-2-propen-1-ylphosphonate;Diethyl allylphosphonate;Diethyl α-allylphosphonate;Diethyl prop-2-enylphosphonate;3-Diethoxyphosphorylprop-1-ene",
    "duplicated_cas_no": "",
    "SMILES": "P(CC=C)(OCC)(OCC)=O",
    "meta_data": {
        "InChI": "InChI=1S/C7H15O3P/c1-4-7-11(8,9-5-2)10-6-3/h4H,1,5-7H2,2-3H3",
        "InChIKey": null,
        "Canonical SMILES": "O=P(OCC)(OCC)CC=C",
        "Molecular Formula": "C<sub>7</sub>H<sub>15</sub>O<sub>3</sub>P",
        "Molecular Mass": "178.17",
        "Boiling Point": "96.5-97.0 °C @ Press: 11 Torr",
        "Density": "1.0362 g/cm³ @ Temp: 17 °C"
    }
}