{
    "cas_no": "7783-18-8",
    "key_name": "Ammonium thiosulfate",
    "cn_name": "硫代硫酸铵;硫代硫酸铵;",
    "alternate_name": "Thiosulfuric acid (H<sub>2</sub>S<sub>2</sub>O<sub>3</sub>), ammonium salt (1:2);Ammonium thiosulfate ((NH<sub>4</sub>)<sub>2</sub>S<sub>2</sub>O<sub>3</sub>);Thiosulfuric acid, diammonium salt;Thiosulfuric acid (H<sub>2</sub>S<sub>2</sub>O<sub>3</sub>), diammonium salt;Ammonium hyposulfite;Diammonium thiosulfate;Thio-Sul;Ammonium thiosulfate",
    "duplicated_cas_no": "15824-31-4",
    "SMILES": "S(=O)(=O)(O)S.N",
    "meta_data": {
        "InChI": "InChI=1S/2H3N.H2O3S2/c;;1-5(2,3)4/h2*1H3;(H2,1,2,3,4)",
        "InChIKey": null,
        "Canonical SMILES": "O=S(=O)(O)S.N",
        "Molecular Formula": "H<sub>3</sub>N.<sup>1</sup>/<sub>2</sub>H<sub>2</sub>O<sub>3</sub>S<sub>2</sub>",
        "Molecular Mass": "",
        "Melting Point": "150 °C (decomp)",
        "Density": "1.679 g/cm³"
    }
}