{
    "cas_no": "590-97-6",
    "key_name": "Bromomethyl acetate",
    "cn_name": "溴甲基乙酸酯;",
    "alternate_name": "Methanol, 1-bromo-, 1-acetate;Methanol, bromo-, acetate;Bromomethyl acetate;Acetoxymethyl bromide;Acetyloxymethyl bromide",
    "duplicated_cas_no": "",
    "SMILES": "O(C(C)=O)CBr",
    "meta_data": {
        "InChI": "InChI=1S/C3H5BrO2/c1-3(5)6-2-4/h2H2,1H3",
        "InChIKey": null,
        "Canonical SMILES": "O=C(OCBr)C",
        "Molecular Formula": "C<sub>3</sub>H<sub>5</sub>BrO<sub>2</sub>",
        "Molecular Mass": "152.97",
        "Boiling Point": "130-133 °C @ Press: 750 Torr",
        "Density": "1.635 g/cm³ @ Temp: 20 °C"
    }
}