{
    "cas_no": "443642-29-3",
    "key_name": "7-Deaza-2′-<em>C</em>-methyladenosine",
    "cn_name": null,
    "alternate_name": "7<em>H</em>-Pyrrolo[2,3-<em>d</em>]pyrimidin-4-amine, 7-(2-<em>C</em>-methyl-β-<span class=\"text-smallcaps\">D</span>-ribofuranosyl)-;7-(2-<em>C</em>-Methyl-β-<span class=\"text-smallcaps\">D</span>-ribofuranosyl)-7<em>H</em>-pyrrolo[2,3-<em>d</em>]pyrimidin-4-amine;7-Deaza-2′-<em>C</em>-methyladenosine;MK 0608",
    "duplicated_cas_no": "1001913-41-2",
    "SMILES": "C[C@]1(O)[C@@H](O[C@H](CO)[C@H]1O)N2C=3C(C=C2)=C(N)N=CN3",
    "meta_data": {
        "InChI": "InChI=1S/C12H16N4O4/c1-12(19)8(18)7(4-17)20-11(12)16-3-2-6-9(13)14-5-15-10(6)16/h2-3,5,7-8,11,17-19H,4H2,1H3,(H2,13,14,15)/t7-,8-,11-,12-/m1/s1",
        "InChIKey": null,
        "Canonical SMILES": "OCC1OC(N2C=CC=3C(=NC=NC32)N)C(O)(C)C1O",
        "Molecular Formula": "C<sub>12</sub>H<sub>16</sub>N<sub>4</sub>O<sub>4</sub>",
        "Molecular Mass": "280.28",
        "Melting Point": "222 °C"
    }
}