{
    "cas_no": "6310-21-0",
    "key_name": "2-<em>tert</em>-Butylaniline",
    "cn_name": "2-叔丁基苯胺;2-特丁基苯胺;",
    "alternate_name": "Benzenamine, 2-(1,1-dimethylethyl)-;Aniline, <em>o</em>-<em>tert</em>-butyl-;2-(1,1-Dimethylethyl)benzenamine;1-Amino-2-<em>tert</em>-butylbenzene;2-<em>tert</em>-Butylaniline;<em>o</em>-<em>tert</em>-Butylaniline;NSC 43044;2-(1,1-Dimethylethyl)aniline;2-<em>tert</em>-Butylphenylamine",
    "duplicated_cas_no": "",
    "SMILES": "C(C)(C)(C)C1=C(N)C=CC=C1",
    "meta_data": {
        "InChI": "InChI=1S/C10H15N/c1-10(2,3)8-6-4-5-7-9(8)11/h4-7H,11H2,1-3H3",
        "InChIKey": null,
        "Canonical SMILES": "NC=1C=CC=CC1C(C)(C)C",
        "Molecular Formula": "C<sub>10</sub>H<sub>15</sub>N",
        "Molecular Mass": "149.23",
        "Boiling Point": "234 °C",
        "Melting Point": "158-161 °C",
        "Density": "0.9572 g/cm³ @ Temp: 25 °C"
    }
}