{
    "cas_no": "4638-92-0",
    "key_name": "(+)-<em>trans</em>-Chrysanthemic acid",
    "cn_name": "(+)-反式-菊酸; (1R-trans)-2,2-二甲基-3-(2-甲基丙-1-烯基)环丙烷羧酸;",
    "alternate_name": "Cyclopropanecarboxylic acid, 2,2-dimethyl-3-(2-methyl-1-propen-1-yl)-, (1<em>R</em>,3<em>R</em>)-;Cyclopropanecarboxylic acid, 2,2-dimethyl-3-(2-methylpropenyl)-, (1<em>R</em>,3<em>R</em>)-(+)-;Cyclopropanecarboxylic acid, 2,2-dimethyl-3-(2-methyl-1-propenyl)-, (1<em>R</em>-<em>trans</em>)-;Cyclopropanecarboxylic acid, 2,2-dimethyl-3-(2-methyl-1-propenyl)-, (1<em>R</em>,3<em>R</em>)-;(1<em>R</em>,3<em>R</em>)-2,2-Dimethyl-3-(2-methyl-1-propen-1-yl)cyclopropanecarboxylic acid;<em>d</em>-<em>trans</em>-Chrysanthemumic acid;<em>d</em>-<em>trans</em>-Chrysanthemummonocarboxylic acid;<em>d</em>-<em>trans</em>-Chrysanthemic acid;(+)-<em>trans</em>-Chrysanthemic acid;<em>trans</em>-(+)-Chrysanthemic acid;(+)-<em>trans</em>-Chrysanthemumic acid;<em>1R</em>,<em>3R</em>-(+)-<em>trans</em>-Chrysanthemic acid;(+)-<em>trans</em>-2,2-Dimethyl-3-isobutenyl-1-cyclopropanecarboxylic acid;(1<em>R</em>-<em>trans</em>)-Chrysanthemic acid;(1<em>R</em>,3<em>R</em>)-Chrysanthemic acid;(1R)-<em>trans</em>-3-(2-Methyl-1-propenyl)-2,2-dimethylcyclopropanecarboxylic acid;(1<em>R</em>)-<em>trans</em>-3-(2-Methyl-1-propenyl)-2,2-dimethylcyclopropanecarboxylic acid",
    "duplicated_cas_no": "",
    "SMILES": "C(O)(=O)[C@@H]1[C@@H](C=C(C)C)C1(C)C",
    "meta_data": {
        "InChI": "InChI=1S/C10H16O2/c1-6(2)5-7-8(9(11)12)10(7,3)4/h5,7-8H,1-4H3,(H,11,12)/t7-,8+/m1/s1",
        "InChIKey": null,
        "Canonical SMILES": "O=C(O)C1C(C=C(C)C)C1(C)C",
        "Molecular Formula": "C<sub>10</sub>H<sub>16</sub>O<sub>2</sub>",
        "Molecular Mass": "168.23",
        "Melting Point": "17 °C"
    }
}