{
    "cas_no": "188-94-3",
    "key_name": "Diindeno[1,2,3-<em>cd</em>:1′,2′,3′-<em>lm</em>]perylene",
    "cn_name": null,
    "alternate_name": "Diindeno[1,2,3-<em>cd</em>:1′,2′,3′-<em>lm</em>]perylene;Periflanthene;Periflanthen;NSC 87529",
    "duplicated_cas_no": "179414-64-3;2762222-54-6",
    "SMILES": "C12=C3C=4C=5C(C3=CC=C1C=6C=7C(C2=CC4)=CC=C8C7C(=CC6)C=9C8=CC=CC9)=CC=CC5",
    "meta_data": {
        "InChI": "InChI=1S/C32H16/c1-2-6-18-17(5-1)21-9-13-25-27-15-11-23-19-7-3-4-8-20(19)24-12-16-28(32(27)30(23)24)26-14-10-22(18)29(21)31(25)26/h1-16H",
        "InChIKey": null,
        "Canonical SMILES": "C=1C=CC=2C(C1)=C3C=CC4=C5C=CC6=C7C=CC=CC7=C8C=CC(=C9C=CC2C3=C49)C5=C68",
        "Molecular Formula": "C<sub>32</sub>H<sub>16</sub>",
        "Molecular Mass": "400.47",
        "Melting Point": "&gt;400 °C",
        "Density": "1.29 g/cm³ (crystal)"
    }
}