{
    "cas_no": "27519-02-4",
    "key_name": "(<em>Z</em>)-9-Tricosene",
    "cn_name": "顺式-9-二十三烯;诱虫烯;",
    "alternate_name": "9-Tricosene, (9<em>Z</em>)-;9-Tricosene, (<em>Z</em>)-;(9<em>Z</em>)-9-Tricosene;<em>cis</em>-9-Tricosene;Muscalure;(<em>Z</em>)-9-Tricosene;9Z-Tricosene;Muscamone",
    "duplicated_cas_no": "69319-46-6",
    "SMILES": "C(CCCCCCCCCCC)C/C=C\\CCCCCCCC",
    "meta_data": {
        "InChI": "InChI=1S/C23H46/c1-3-5-7-9-11-13-15-17-19-21-23-22-20-18-16-14-12-10-8-6-4-2/h17,19H,3-16,18,20-23H2,1-2H3/b19-17-",
        "InChIKey": null,
        "Canonical SMILES": "C(=CCCCCCCCCCCCCC)CCCCCCCC",
        "Molecular Formula": "C<sub>23</sub>H<sub>46</sub>",
        "Molecular Mass": "322.61",
        "Boiling Point": "378 °C",
        "Melting Point": "&lt;0 °C"
    }
}