{
    "cas_no": "3326-71-4",
    "key_name": "2-Furancarboxylic acid, hydrazide",
    "cn_name": "2-呋喃甲酰肼;糠酰肼;",
    "alternate_name": "2-Furancarboxylic acid, hydrazide;2-Furoic acid, hydrazide;2-Furancarboxylic acid hydrazide;2-Furancarbohydrazonic acid;2-Furylcarboxylic acid hydrazide;2-Furylcarbonylhydrazide;2-Furoic hydrazide;2-Furancarbohydrazide;2-Furoylhydrazine;2-Furancarbonyl hydrazide;Pyromucic acid hydrazide;NSC 11957;NSC 35574;Furan-2-carboxylic hydrazide;Idv 90;2-(Hydrazinocarbonyl)furan;2-Furanoylhydrazide",
    "duplicated_cas_no": "69584-34-5",
    "SMILES": "C(NN)(=O)C1=CC=CO1",
    "meta_data": {
        "InChI": "InChI=1S/C5H6N2O2/c6-7-5(8)4-2-1-3-9-4/h1-3H,6H2,(H,7,8)",
        "InChIKey": null,
        "Canonical SMILES": "O=C(NN)C=1OC=CC1",
        "Molecular Formula": "C<sub>5</sub>H<sub>6</sub>N<sub>2</sub>O<sub>2</sub>",
        "Molecular Mass": "126.11",
        "Boiling Point": "159-159.5 °C",
        "Melting Point": "77 °C",
        "Density": "1.365 g/cm³ @ Press: 7 x 10⁷ Torr"
    }
}