{
    "cas_no": "288-16-4",
    "key_name": "Isothiazole",
    "cn_name": "异噻唑;",
    "alternate_name": "Isothiazole;1,2-Thiazole;2-Azathiophene",
    "duplicated_cas_no": "",
    "SMILES": "C=1C=NSC1",
    "meta_data": {
        "InChI": "InChI=1S/C3H3NS/c1-2-4-5-3-1/h1-3H",
        "InChIKey": null,
        "Canonical SMILES": "N=1SC=CC1",
        "Molecular Formula": "C<sub>3</sub>H<sub>3</sub>NS",
        "Molecular Mass": "85.13",
        "Boiling Point": "113 °C @ Press: 770 Torr",
        "Melting Point": "176 °C (decomp)",
        "Density": "1.1706 g/cm³ @ Temp: 20 °C"
    }
}