{
    "cas_no": "27208-80-6",
    "key_name": "Polydatin",
    "cn_name": "虎杖甙;云杉新甙;白藜芦醇苷;白藜芦醇甙;",
    "alternate_name": "β-<span class=\"text-smallcaps\">D</span>-Glucopyranoside, 3-hydroxy-5-[(1<em>E</em>)-2-(4-hydroxyphenyl)ethenyl]phenyl;Piceid;β-<span class=\"text-smallcaps\">D</span>-Glucopyranoside, 3-hydroxy-5-[2-(4-hydroxyphenyl)ethenyl]phenyl, (<em>E</em>)-;3-Hydroxy-5-[(1<em>E</em>)-2-(4-hydroxyphenyl)ethenyl]phenyl β-<span class=\"text-smallcaps\">D</span>-glucopyranoside;Polydatin;(<em>E</em>)-Polydatin;<em>trans</em>-Piceid;<em>trans</em>-Polydatin;3-Hydroxy-5-(<em>p</em>-hydroxystyryl)phenyl β-<span class=\"text-smallcaps\">D</span>-glucoside;(<em>E</em>)-Piceid;Resveratrol 3-<em>O</em>-β-glucopyranoside;(<em>E</em>)-Resveratrol 3-<em>O</em>-β-<span class=\"text-smallcaps\">D</span>-glucopyranoside;Pieceid;Polydotin peceid;Resveratrol 3-<em>O</em>-β-<span class=\"text-smallcaps\">D</span>-glucoside;(-)-<em>trans</em>-Resveratrol 13-<em>O</em>-β-<span class=\"text-smallcaps\">D</span>-glucopyranoside;<em>trans</em>-Resveratrol 3-glucoside;Resveratrol glucoside;Resveratrol β-<span class=\"text-smallcaps\">D</span>-glucoside;Resveratrol β-glucoside;3-<em>O</em>-Glucosyl-resveratrol;Resveratrol 3-<em>O</em>-glucoside",
    "duplicated_cas_no": "28759-35-5;31156-78-2;32095-27-5;53520-91-5;58462-72-9;2003209-25-2",
    "SMILES": "O([C@@H]1O[C@H](CO)[C@@H](O)[C@H](O)[C@H]1O)C2=CC(/C=C/C3=CC=C(O)C=C3)=CC(O)=C2",
    "meta_data": {
        "InChI": "InChI=1S/C20H22O8/c21-10-16-17(24)18(25)19(26)20(28-16)27-15-8-12(7-14(23)9-15)2-1-11-3-5-13(22)6-4-11/h1-9,16-26H,10H2/b2-1+/t16-,17-,18+,19-,20-/m1/s1",
        "InChIKey": null,
        "Canonical SMILES": "OC1=CC=C(C=C1)C=CC=2C=C(O)C=C(OC3OC(CO)C(O)C(O)C3O)C2",
        "Molecular Formula": "C<sub>20</sub>H<sub>22</sub>O<sub>8</sub>",
        "Molecular Mass": "390.38",
        "Melting Point": "225-226 °C"
    }
}