{
    "cas_no": "1693-28-3",
    "key_name": "2-(Trifluoromethyl)-9<em>H</em>-thioxanthen-9-one",
    "cn_name": "2-三氟甲基噻吨酮;",
    "alternate_name": "9<em>H</em>-Thioxanthen-9-one, 2-(trifluoromethyl)-;Thioxanthen-9-one, 2-(trifluoromethyl)-;2-(Trifluoromethyl)-9<em>H</em>-thioxanthen-9-one;2-Trifluoromethylthioxanthone;2-(Trifluoromethyl)thioxanthen-9-one;2-Trifluoromethyl-9-thioxanthone",
    "duplicated_cas_no": "",
    "SMILES": "O=C1C=2C(SC=3C1=CC=CC3)=CC=C(C(F)(F)F)C2",
    "meta_data": {
        "InChI": "InChI=1S/C14H7F3OS/c15-14(16,17)8-5-6-12-10(7-8)13(18)9-3-1-2-4-11(9)19-12/h1-7H",
        "InChIKey": null,
        "Canonical SMILES": "O=C1C=2C=CC=CC2SC3=CC=C(C=C13)C(F)(F)F",
        "Molecular Formula": "C<sub>14</sub>H<sub>7</sub>F<sub>3</sub>OS",
        "Molecular Mass": "280.27",
        "Melting Point": "147-148 °C"
    }
}