{
    "cas_no": "55-63-0",
    "key_name": "Nitroglycerin",
    "cn_name": "硝化甘油;三硝酸甘油酯;",
    "alternate_name": "1,2,3-Propanetriol, 1,2,3-trinitrate;Nitroglycerin;1,2,3-Propanetriol, trinitrate;Anginine;Blasting oil;Glonoin;Glyceryl nitrate;Glyceryl trinitrate;GTN;NG;Niglycon;Nitrine-TDC;Nitroglycerine;Nitroglycerol;Nitroglyn;Nitrolingual;Nitrolowe;Nitro-Span;NTG;Perglottal;1,2,3-Propanetriyl nitrate;Trinitrin;Trinitroglycerin;Trinitroglycerol;Glycerol trinitrate;Propanetriol trinitrate;Angibid;Angiolingual;Angorin;Cardamist;Lenitral;Myoglycerin;Nitromel;Nitrong;Nitrorectal;Nitroretard;Nitrolan;Nitro-lent;Nitrozell retard;Nitrostat;Trinalgon;Klavikordal;Nysconitrine;Vasoglyn;Glycerin trinitrate;S.N.G.;Gilucor nitro;Nitora;Trinitrol;Nitrostabilin;Temponitrin;Nitroletten;Niglin;Nitrol;Nitrol (pharmaceutical);Nitrin;Nitrine;NK 843;Nitro-Dur;Nitroderm;Chitamite;Nitropercuten;Penobel 2;Perlinganit;Epinitril;Deponit;Nitro-Bid;Transderm-Nitro;Nitrocardin;Triniplas;Minitran;Minitran (nitroglycerin);Tridil;SDM 71;SDM 75;Nitrogard;SDM 77;Millisrol;Nitronal;Nitrolar;SDM 78;SDM 79;Nitrodisc;Transderm-Nitro TTS;Trinitrosan;Nitrolande;Aquo-Trinitrosan;Diafusor;SDM 74;Glycerol nitric acid triester;Nitroglin;Nitro Mack;Adesitrin;Nitro-PRN;Sustac;Sutonit;Niong;Nitrosigma;SDM 7;Nitrofortin;Coro-Nitro;Percutol;Corditrine;Suscard;Transiderm-Nitro;Reminitrol;Nitro-Gesani;Nitrol Ointment;Lentonitrina;Cordipatch;SDM 17;SDM 20;SDM 26;SDM 27;Discotrine;SDM 36;SDM 47;Susadrin;Gilucor;Nitroderm TTS;GTN (explosive);Myovin;Solinitrina;Nitropohl;MQX 503;Vasolator;Deponit 10;Dorocontin;Nitromist;Nitro-Time;Trinitrine;MeSH ID: D005996",
    "duplicated_cas_no": "100292-13-5;105469-31-6;8013-23-8;9010-02-0;80066-48-4",
    "SMILES": "C(CON(=O)=O)(CON(=O)=O)ON(=O)=O",
    "meta_data": {
        "InChI": "InChI=1S/C3H5N3O9/c7-4(8)13-1-3(15-6(11)12)2-14-5(9)10/h3H,1-2H2",
        "InChIKey": null,
        "Canonical SMILES": "O=N(=O)OCC(ON(=O)=O)CON(=O)=O",
        "Molecular Formula": "C<sub>3</sub>H<sub>5</sub>N<sub>3</sub>O<sub>9</sub>",
        "Molecular Mass": "227.09",
        "Boiling Point": "250 °C",
        "Melting Point": "13 °C",
        "Density": "1.6009 g/cm³ @ Temp: 15 °C"
    }
}