{
    "cas_no": "23876-15-5",
    "key_name": "2-Methyl-3-nitrobenzeneacetic acid",
    "cn_name": "2-甲基-3-硝基苯乙酸;",
    "alternate_name": "Benzeneacetic acid, 2-methyl-3-nitro-;Acetic acid, (3-nitro-<em>o</em>-tolyl)-;2-Methyl-3-nitrobenzeneacetic acid;2-(2-Methyl-3-nitrophenyl)acetic acid;2-Methyl-3-nitrophenylacetic acid",
    "duplicated_cas_no": "",
    "SMILES": "N(=O)(=O)C1=C(C)C(CC(O)=O)=CC=C1",
    "meta_data": {
        "InChI": "InChI=1S/C9H9NO4/c1-6-7(5-9(11)12)3-2-4-8(6)10(13)14/h2-4H,5H2,1H3,(H,11,12)",
        "InChIKey": null,
        "Canonical SMILES": "O=C(O)CC=1C=CC=C(C1C)N(=O)=O",
        "Molecular Formula": "C<sub>9</sub>H<sub>9</sub>NO<sub>4</sub>",
        "Molecular Mass": "195.17",
        "Melting Point": "118 °C"
    }
}