{
    "cas_no": "166170-15-6",
    "key_name": "(<em>R</em>)-Boc-2-methylproline",
    "cn_name": null,
    "alternate_name": "1,2-Pyrrolidinedicarboxylic acid, 2-methyl-, 1-(1,1-dimethylethyl) ester, (2<em>R</em>)-;1,2-Pyrrolidinedicarboxylic acid, 2-methyl-, 1-(1,1-dimethylethyl) ester, (<em>R</em>)-;(<em>R</em>)-Boc-2-methylproline;(R)-1-(<em>tert</em>-Butoxycarbonyl)-2-methylpyrrolidine-2-carboxylic acid;(R)-<em>N</em>-Boc-2-MethyL proline;(2R)-1-[(<em>tert</em>-Butoxy)carbonyl]-2-methylpyrrolidine-2-carboxylic acid",
    "duplicated_cas_no": "",
    "SMILES": "C(OC(C)(C)C)(=O)N1[C@](C(O)=O)(C)CCC1",
    "meta_data": {
        "InChI": "InChI=1S/C11H19NO4/c1-10(2,3)16-9(15)12-7-5-6-11(12,4)8(13)14/h5-7H2,1-4H3,(H,13,14)/t11-/m1/s1",
        "InChIKey": null,
        "Canonical SMILES": "O=C(OC(C)(C)C)N1CCCC1(C(=O)O)C",
        "Molecular Formula": "C<sub>11</sub>H<sub>19</sub>NO<sub>4</sub>",
        "Molecular Mass": "229.27",
        "Melting Point": "127-129 °C"
    }
}