{
    "cas_no": "30899-19-5",
    "key_name": "Pentanol",
    "cn_name": null,
    "alternate_name": "Pentanol",
    "duplicated_cas_no": "51152-16-0",
    "SMILES": "",
    "meta_data": {
        "InChI": "",
        "InChIKey": null,
        "Canonical SMILES": "",
        "Molecular Formula": "C<sub>5</sub>H<sub>12</sub>O",
        "Molecular Mass": "",
        "Boiling Point": "138.0 °C",
        "Density": "0.81 g/cm³"
    }
}