{
    "cas_no": "1821-39-2",
    "key_name": "2-Propylaniline",
    "cn_name": "2-丙基苯胺;",
    "alternate_name": "Benzenamine, 2-propyl-;Aniline, <em>o</em>-propyl-;2-Propylbenzenamine;<em>o</em>-Propylaniline;2-Propylaniline;<em>o</em>-Aminopropylbenzene;2-(<em>n</em>-Propyl)aniline;(2-Propylphenyl)amine",
    "duplicated_cas_no": "",
    "SMILES": "C(CC)C1=C(N)C=CC=C1",
    "meta_data": {
        "InChI": "InChI=1S/C9H13N/c1-2-5-8-6-3-4-7-9(8)10/h3-4,6-7H,2,5,10H2,1H3",
        "InChIKey": null,
        "Canonical SMILES": "NC=1C=CC=CC1CCC",
        "Molecular Formula": "C<sub>9</sub>H<sub>13</sub>N",
        "Molecular Mass": "135.21",
        "Boiling Point": "226 °C"
    }
}