{
    "cas_no": "15861-36-6",
    "key_name": "1<em>H</em>-Indole-6-carbonitrile",
    "cn_name": "6-氰基吲哚;",
    "alternate_name": "1<em>H</em>-Indole-6-carbonitrile;Indole-6-carbonitrile;6-Cyanoindole;6-Cyano-1<em>H</em>-indole;1<em>H</em>-Indole-6-carbonitrile, hydrate (1:2);1<em>H</em>-Indole-6-carbonitrile, hydrate (1:1)",
    "duplicated_cas_no": "3027515-84-7;3027515-85-8",
    "SMILES": "C(#N)C=1C=C2C(=CC1)C=CN2",
    "meta_data": {
        "InChI": "InChI=1S/C9H6N2/c10-6-7-1-2-8-3-4-11-9(8)5-7/h1-5,11H",
        "InChIKey": null,
        "Canonical SMILES": "N#CC=1C=CC=2C=CNC2C1",
        "Molecular Formula": "C<sub>9</sub>H<sub>6</sub>N<sub>2</sub>",
        "Molecular Mass": "142.16",
        "Melting Point": "129-130 °C"
    }
}