{
    "cas_no": "96-69-5",
    "key_name": "4,4′-Thiobis(3-methyl-6-tert-butylphenol)",
    "cn_name": "4,4\"-硫代双(6-特丁基间甲酚);抗氧剂300;",
    "alternate_name": "Phenol, 4,4′-thiobis[2-(1,1-dimethylethyl)-5-methyl-;<em>m</em>-Cresol, 4,4′-thiobis[6-<em>tert</em>-butyl-;4,4′-Thiobis[2-(1,1-dimethylethyl)-5-methylphenol];Bis(3-<em>tert</em>-butyl-4-hydroxy-6-methylphenyl) sulfide;Bis(4-hydroxy-5-<em>tert</em>-butyl-2-methylphenyl) sulfide;Disperse MB 61;Santonox;Santowhite Crystals;4,4′-Thiobis[6-<em>tert</em>-butyl-3-methylphenol];1,1′-Thiobis(2-methyl-4-hydroxy-5-<em>tert</em>-butyl)benzene;Bis(2-methyl-4-hydroxy-5-<em>tert</em>-butylphenyl) sulfide;4,4′-Thiobis[2-<em>tert</em>-butyl-5-methylphenol];Bis(2-methyl-5-<em>tert</em>-butyl-4-hydroxyphenyl) sulfide;Thioalkofen BMCh;2,2′-Di-<em>tert</em>-butyl-5,5′-dimethyl-4,4′-thiodiphenol;Thioalkofen BM;Thioalkofen MBCh;Bis(5-<em>tert</em>-butyl-4-hydroxy-2-methylphenyl) sulfide;Thioalkofen BM 4;Sumilizer WX;4,4′-Bis(6-<em>tert</em>-butyl-<em>m</em>-cresol) sulfide;Santonox BM;Yoshinox SR;4,4′-Thiobis[6-<em>tert</em>-butyl-<em>m</em>-cresol];Sumilizer WX-R;Santonox R;Yoshinox S;Nocrac 300;Nonflex BPS;AO 4;Antioxidant TMB 6;Sumilizer WX-RC;Antage Crystal;Nonflex BPS-R;ZBX 1R;4,4′-Thiobis[3-methyl-6-<em>tert</em>-butylphenol];N 300;Seenox BCS;Lowinox TBM 6;Irganox 415;Antigene WX-R;Lowinox 44S36;Keminox 236T;Santonox TBMC;Ultranox 236;NSC 35388;Antioxidant 300;Durad AX 16;4,4′-Thiobis(6-<em>t</em>-butyl-m-cresol);Lowinox TBM 6P;AO 1081;Irganox 300;4,4′-Thiobis(3-methyl-6-tert-butylphenol);TBM 6;Antioxidant B 102;Antioxidant BPS;4,4′-Thiobis(6-tert-butyl-<em>m</em>-cresol);AO 300;Chinox 300;K 300;Lowinox Rosin 6;AO-TBM 6;2-<em>tert</em>-Butyl-4-(5-<em>tert</em>-butyl-4-hydroxy-2-methylphenyl)sulfanyl-5-methylphenol;PKG 906",
    "duplicated_cas_no": "12671-70-4;52012-53-0;60318-32-3;76996-60-6;126340-60-1;188253-47-6;381726-02-9;914648-51-4",
    "SMILES": "C(C)(C)(C)C1=CC(SC2=CC(C(C)(C)C)=C(O)C=C2C)=C(C)C=C1O",
    "meta_data": {
        "InChI": "InChI=1S/C22H30O2S/c1-13-9-17(23)15(21(3,4)5)11-19(13)25-20-12-16(22(6,7)8)18(24)10-14(20)2/h9-12,23-24H,1-8H3",
        "InChIKey": null,
        "Canonical SMILES": "OC=1C=C(C(SC2=CC(=C(O)C=C2C)C(C)(C)C)=CC1C(C)(C)C)C",
        "Molecular Formula": "C<sub>22</sub>H<sub>30</sub>O<sub>2</sub>S",
        "Molecular Mass": "358.54",
        "Melting Point": "150 °C"
    }
}