{
    "cas_no": "349-76-8",
    "key_name": "3′-(Trifluoromethyl)acetophenone",
    "cn_name": "间三氟甲基苯乙酮;3-三氟甲基苯乙酮;",
    "alternate_name": "Ethanone, 1-[3-(trifluoromethyl)phenyl]-;Acetophenone, 3′-(trifluoromethyl)-;1-[3-(Trifluoromethyl)phenyl]ethanone;3′-(Trifluoromethyl)acetophenone;<em>m</em>-(Trifluoromethyl)acetophenone;1-[3-(Trifluoromethyl)phenyl]-1-ethanone;<em>m</em>-Trifluoromethylphenyl methyl ketone;NSC 59177;NSC 81888;1-[5-(Trifluoromethyl)phenyl]ethanone;3-Trifluoromethylphenyl methyl ketone;3-Trifluoromethyl-1-acetylbenzene;Methyl 3-trifluoromethylphenyl ketone;3-Acetylbenzotrifluoride",
    "duplicated_cas_no": "",
    "SMILES": "C(F)(F)(F)C1=CC(C(C)=O)=CC=C1",
    "meta_data": {
        "InChI": "InChI=1S/C9H7F3O/c1-6(13)7-3-2-4-8(5-7)9(10,11)12/h2-5H,1H3",
        "InChIKey": null,
        "Canonical SMILES": "O=C(C1=CC=CC(=C1)C(F)(F)F)C",
        "Molecular Formula": "C<sub>9</sub>H<sub>7</sub>F<sub>3</sub>O",
        "Molecular Mass": "188.15",
        "Boiling Point": "199 °C"
    }
}