{
    "cas_no": "26638-43-7",
    "key_name": "Benzoic acid, 2-(chlorosulfonyl)-, methyl ester",
    "cn_name": "2-(氯磺酰基)苯甲酸甲酯;邻氯磺酰基苯甲酸甲酯;",
    "alternate_name": "Benzoic acid, 2-(chlorosulfonyl)-, methyl ester;Benzoic acid, <em>o</em>-(chlorosulfonyl)-, methyl ester;<em>o</em>-(Methoxycarbonyl)benzenesulfonyl chloride;<em>o</em>-(Carbomethoxy)benzenesulfonyl chloride;Methyl <em>o</em>-(chlorosulfonyl)benzoate;2-(Methoxycarbonyl)benzenesulfonyl chloride;Methyl 2-(chlorosulfonyl)benzoate;2-(Carbomethoxy)benzenesulfonyl chloride;2-Chlorosulfonylbenzoic acid methyl ester",
    "duplicated_cas_no": "",
    "SMILES": "C(OC)(=O)C1=C(S(Cl)(=O)=O)C=CC=C1",
    "meta_data": {
        "InChI": "InChI=1S/C8H7ClO4S/c1-13-8(10)6-4-2-3-5-7(6)14(9,11)12/h2-5H,1H3",
        "InChIKey": null,
        "Canonical SMILES": "O=C(OC)C=1C=CC=CC1S(=O)(=O)Cl",
        "Molecular Formula": "C<sub>8</sub>H<sub>7</sub>ClO<sub>4</sub>S",
        "Molecular Mass": "234.66",
        "Melting Point": "118-120 °C"
    }
}