{
    "cas_no": "79559-97-0",
    "key_name": "Sertraline hydrochloride",
    "cn_name": "盐酸舍曲林;(1S-顺式)-4-(3,4-二氯苯基)-1,2,3,4-四氢-N-甲基-1-萘胺盐酸盐;",
    "alternate_name": "1-Naphthalenamine, 4-(3,4-dichlorophenyl)-1,2,3,4-tetrahydro-<em>N</em>-methyl-, hydrochloride (1:1), (1<em>S</em>,4<em>S</em>)-;1-Naphthalenamine, 4-(3,4-dichlorophenyl)-1,2,3,4-tetrahydro-<em>N</em>-methyl-, hydrochloride, (1<em>S</em>-<em>cis</em>)-;1-Naphthalenamine, 4-(3,4-dichlorophenyl)-1,2,3,4-tetrahydro-<em>N</em>-methyl-, hydrochloride, (1<em>S</em>,4<em>S</em>)-;Sertraline hydrochloride;Zoloft;Atruline;Altruline;Lesefer;Lustral;Sosser;Zolof;Dominum;Gladem;Cp 51974-1;(1S,4S)-4-(3,4-Dichlorophenyl)-1,2,3,4-tetrahydro-<em>N</em>-methyl-1-naphthaleneamine hydrochloride;(1<em>S</em>,4<em>S</em>)-4-(3,4-Dichlorophenyl)-1,2,3,4-tetrahydro-<em>N</em>-methyl-1-naphthalenamine hydrochloride;Aremis;Selectra;(1S,4S)-<em>N</em>-Methyl-4-(3,4-dichlorophenyl)-1,2,3,4-tetrahydro-1-naphthalenamine hydrochloride;(1<em>S</em>,4S)-4-(3,4-Dichlorophenyl)-1,2,3,4-tetrahydro-<em>N</em>-methyl-1-naphthalenamine hydrochloride;Stimuloton;Seserine;Serlift;Sirto;Jzoloft",
    "duplicated_cas_no": "140456-74-2",
    "SMILES": "N(C)[C@@H]1C=2C([C@@H](CC1)C3=CC(Cl)=C(Cl)C=C3)=CC=CC2.Cl",
    "meta_data": {
        "InChI": "InChI=1S/C17H17Cl2N.ClH/c1-20-17-9-7-12(13-4-2-3-5-14(13)17)11-6-8-15(18)16(19)10-11;/h2-6,8,10,12,17,20H,7,9H2,1H3;1H/t12-,17-;/m0./s1",
        "InChIKey": null,
        "Canonical SMILES": "Cl.ClC1=CC=C(C=C1Cl)C2C=3C=CC=CC3C(NC)CC2",
        "Molecular Formula": "C<sub>17</sub>H<sub>17</sub>Cl<sub>2</sub>N.ClH",
        "Molecular Mass": "",
        "Melting Point": "243-245 °C"
    }
}