{
    "cas_no": "10226-28-5",
    "key_name": "Ethyl 3,4-dihydro-6-methyl-2<em>H</em>-pyran-5-carboxylate",
    "cn_name": "5,6-二氢-3-乙氧羰基-2-甲基-4H-吡喃;3,4-二氢-6-甲基-2H-吡喃-5-羧酸乙酯;3-Ethoxycarbonyl-2-methyl-5,6-;",
    "alternate_name": "2<em>H</em>-Pyran-5-carboxylic acid, 3,4-dihydro-6-methyl-, ethyl ester;Ethyl 3,4-dihydro-6-methyl-2<em>H</em>-pyran-5-carboxylate;2-Methyl-3-carbethoxy-5,6-dihydropyran;NSC 30277;Ethyl 6-methyl-3,4-dihydro-2<em>H</em>-pyran-5-carboxylate;3,4-Dihydro-6-methyl-2<em>H</em>-Pyran-5-carboxylic acid ethyl ester",
    "duplicated_cas_no": "",
    "SMILES": "C(OCC)(=O)C1=C(C)OCCC1",
    "meta_data": {
        "InChI": "InChI=1S/C9H14O3/c1-3-11-9(10)8-5-4-6-12-7(8)2/h3-6H2,1-2H3",
        "InChIKey": null,
        "Canonical SMILES": "O=C(OCC)C1=C(OCCC1)C",
        "Molecular Formula": "C<sub>9</sub>H<sub>14</sub>O<sub>3</sub>",
        "Molecular Mass": "170.21",
        "Boiling Point": "104-105 °C @ Press: 10 Torr",
        "Density": "1.0564 g/cm³ @ Temp: 20 °C"
    }
}