{
    "cas_no": "1929-88-0",
    "key_name": "Benzthiazuron",
    "cn_name": "苯噻隆;噻草隆；Bay60618；522012;",
    "alternate_name": "Urea, <em>N</em>-2-benzothiazolyl-<em>N</em>′-methyl-;Urea, 1-(2-benzothiazolyl)-3-methyl-;<em>N</em>-2-Benzothiazolyl-<em>N</em>′-methylurea;Gatnon;1-Methyl-3-(2-benzothiazolyl)urea;Benzthiazuron;1-(2-Benzothiazolyl)-3-methylurea;Bayer 60618;<em>N</em>-Methyl-<em>N</em>′-(2-benzothiazolyl)urea;1-(1,3-Benzothiazol-2-yl)-3-methyl urea;NSC 202513;1-(Benzo[<em>d</em>]thiazol-2-yl)-3-methylurea",
    "duplicated_cas_no": "",
    "SMILES": "N(C(NC)=O)C1=NC=2C(S1)=CC=CC2",
    "meta_data": {
        "InChI": "InChI=1S/C9H9N3OS/c1-10-8(13)12-9-11-6-4-2-3-5-7(6)14-9/h2-5H,1H3,(H2,10,11,12,13)",
        "InChIKey": null,
        "Canonical SMILES": "O=C(NC1=NC=2C=CC=CC2S1)NC",
        "Molecular Formula": "C<sub>9</sub>H<sub>9</sub>N<sub>3</sub>OS",
        "Molecular Mass": "207.25",
        "Melting Point": "265 °C"
    }
}