{
    "cas_no": "71283-80-2",
    "key_name": "Fenoxaprop P-ethyl",
    "cn_name": "精恶唑禾草灵;(R)-2-[4-(6-氯-1,3-苯并噁唑-2-氧基)苯氧基]丙酸乙酯;",
    "alternate_name": "Propanoic acid, 2-[4-[(6-chloro-2-benzoxazolyl)oxy]phenoxy]-, ethyl ester, (2<em>R</em>)-;Propanoic acid, 2-[4-[(6-chloro-2-benzoxazolyl)oxy]phenoxy]-, ethyl ester, (<em>R</em>)-;Fenoxaprop-P ethyl ester;HOE 046360;Fenoxaprop P-ethyl;Furore Super;(<em>R</em>)-Ethyl fenoxaprop;Isomero;Cheetah;Whip Super;Ricestar;Whip S;Ethyl (2R)-2-[4-(6-chloro-2-benzoxazolyloxy)phenoxy]propionate;Super Whip;Option Super;Exel Super;Aclaim;Acclaim Extra;Proper Energy;Ralon super;Whip 360;XL 71AG;Primera Super;(+)-(<em>R</em>)-Fenoxaprop-ethyl;Pujing;AEF 046360;AEF 04-6360;Imaspro;Puma;Puma (herbicide)",
    "duplicated_cas_no": "1223013-63-5",
    "SMILES": "O(C1=NC=2C(O1)=CC(Cl)=CC2)C3=CC=C(O[C@@H](C(OCC)=O)C)C=C3",
    "meta_data": {
        "InChI": "InChI=1S/C18H16ClNO5/c1-3-22-17(21)11(2)23-13-5-7-14(8-6-13)24-18-20-15-9-4-12(19)10-16(15)25-18/h4-11H,3H2,1-2H3/t11-/m1/s1",
        "InChIKey": null,
        "Canonical SMILES": "O=C(OCC)C(OC1=CC=C(OC2=NC=3C=CC(Cl)=CC3O2)C=C1)C",
        "Molecular Formula": "C<sub>18</sub>H<sub>16</sub>ClNO<sub>5</sub>",
        "Molecular Mass": "361.78",
        "Boiling Point": "&gt;300 °C",
        "Melting Point": "90 °C"
    }
}