{
    "cas_no": "123-77-3",
    "key_name": "Azodicarbonamide",
    "cn_name": "偶氮二甲酰胺;偶氮甲酰胺;",
    "alternate_name": "1,2-Diazenedicarboxamide;Formamide, 1,1′-azobis-;Diazenedicarboxamide;Azobiscarbonamide;Azobiscarboxamide;Azodicarbonamide;Azodicarboxamide;Azodiformamide;Δ<sup>1,1′</sup>-Biurea;Celogen AZ;Lucel ADA;Porofor 505;Porofor ChKhZ 21;Kempore R 125;ChKhZ 21;Genitron AC;Genitron AC 4;Genitron AC 2;1,1′-Azobis[formamide];Unifoam AZ;Azodicarbamide;Azodicarboxylic acid diamide;Porofor ChKhZ 21r;ChKhZ 21r;Kempore 125;1,1′-Azobiscarbamide;Pinhole AK 2;Ficel EP-A;Celogen AZ 130;Celogen AZ 199;1,1′-Azodiformamide;ABFA;Pinhole ACR 3;Genitron EPC;Unifoam AZH 25;Cellmic C 217;Azocel;Ficel AC;Kempore;Porofor ADC;Genitron AC 3;Cellmic CAP 500;Poramid K 1;Paramid K 1;Cellmic 223;Unifoam AZ-L;Kempore 60/40;Azoplastone;Cellmic CE;Evipor;Vinyfor AC 50S;Nortech MF 1062FA;AZM 2S;Vinyfor AC 3;Unifoam AZH-M;Unifoam AZH;Kempore 200;ADC;Cellmic C;Cellmic CAP;Azoform A;Vinyfor AC 3M;Cellmic C 22;ADCA;Vinyfor AC 1;AW 9;Vinyfor AW 9;Genitron ACSP 4;Vinyfor SW 7;AC 3;Rhenogran ADC/K 50;Azobis CA;Azobis CA 51C;Azobis CA 110B;Vinyfor SW 9;Vinifor AC 3A;Vinifor AC-T;Vinyfor SE 30;Cellmic C 2;Azobis 50C;Cellmic MB 3013;ADK Stab OF 14;Unifoam AZM;Cellmic C 191;AC 1L;AZ-H;Unifoam AZS;Vinylol AC;Vinyfor FE 788;S 643;DP 45/1;Cellmic MB 1031A;SO 20;Vinyfor DW 6;AC 1;Porofor KA 9149;Fascom AZ 4ED;Unifoam SOL;AZ-HM;Unifoam AZ 40;Vinyfor AC 3C;AA 110S;Azobul;Vinyfor AC-LQ;DP 18/47;AC 1C;Unifoam Z;Unicell D 200;AZ 605;Vinyfor AC 1C;Cellmic C 121;BX 81;Celogen AZ 3990;BX 81 (blowing agent);Vinyfor AC 3M-K2;Daiblow AC 2040L;AZ 199;Unifoam AZSO 20;Celogen AZ 120;D 200;AZ 120;Cellmic C 1;Vinyfor AC;Vinyfor AC 1L;AC;AC (foaming agent);Cellborn DW 6;A 9660;AZ 130;Unifoam AZ-V 45;Porofor ADC/S-C 2;Porofor ADC/M-C 1;Daiblow AC;Unifoam AZ Ultra 3220;Unifoam AZ-L 25;AZ-L 25;Unicell D 400;Unicell D 1500;D 400;D 1500;Luvopor 9241;Supercell AZ 2D;Supercell K-D;Supercell L-D;Supercell V-D;ADC 21;Vinyfor FZ 80;AC-LQ;AZH 25;NSC 41038;NSC 674447;Vinyfor AC 3C-K2;Vinyfor AC 2F;Excellar S 10;Unifoam AZ 50;Unicell D;FE 788;AC-R;Vinyfor AC-R;AZ Ultra 3050;Emarcell BA;Unifoam 1100;Unifoam AZ-T 8;Lagocell 20;AZO AZ 130;CS 4M;Celogen 765A;AC 3C2;Ferrocell AZC 13R;Cellcom A;HM 80A;Cellmic M 257;Celogen 125FF;AC-K-F 3;AZ-VI 8;Cellmic CA 500;CA 500;SOL;Luvopor ABF 70P-FF;AC 2F-K3;AC 3000;AC-EFS;AC-K 3;Unicell D 200A;Unifoam AZ-MFE 583;Tracel DB 201/50PE;Porofor ADC/L-C 2;Porofor ADC/E-C 2;Celogen 725B;1500TID;AC 1000 (blowing agent);AC 1000;FBH 30;Unicell DK 9;Celogen AZ 150;AC 3K2;Unifoam AZ Ultra 3050I;AZ 3050I;D 300LN;AC 170;MB 31;SO-G 3;SO-G 3 (foamer);Azobul B;Unifoam AZ-VI 50;Cellmic 523;Vinyfor AC 3K2;Vinfom AA 100;Vinfom AA 250H;Vinyfor ST 70;Microfine ADC 4075;Cel-Span 693K;Cellmic RUB;AZ-VI 25;AC 150P;FB 800;Uquifoam L;AK 2;Vinyfor AC 3K7;AC 5000;AC 5000 (blowing agent);GMA 401;Cellcom AC 7000DB;Uniform AZ Ultra 1035;Unifoam AZ Ultra 7043;AC 3000H;VP 600;AC 902;Tracel DB 170;AC 135;Porofor M-C 1;Unifoam AZ-VI 25;Unifoam AZ-M 3;DN 6;AC 100;AC 220;Unicell D 300L;Unicell DL 75N;T 8I;Daiblow AC 2040C;Cellmic MB 5575;Hydrocerol 232A;Hydrocell 232;Cellmic EP 50;Actafoam 780;Celogen AZ 780;Azofoam VC 30;Azofoam VI 30;ADCA 3;Rhenoslab AZ 130-75;KN 20040;Unifoam Ultra 1035;ACP-W;JTR/M 5;AC 3000F;DF 507;DF 505;Hydrocerol CF 40T;ADC 6000;SA 1000;SA 1000 (blowing agent);Cellcom AC 300F;ADC 3000H;ADC 6000H;Porofor ADSC/M-C 1;Unicell D 300K;Unifoam AZ-L 8;AC 6000;DN 10;DN 10 (blowing agent);Vinyfor AC-R-K 3;DN 4;Cellcom AC 9000;AC 9000;Unifoam AZ Ultra 1067-1;AC 1600;Luvomaxx AZ-C 1;AC 2002;MSV 206;Unifoam SO-G 3IST;DN 8;Daiburo AC.2040(C);AC 2040C;Vinyfor AC-K 3;AC 6000H;Luvomaxx AZ;Blowing Agent AC;AC 2000;Tracel PP 3215;Azofoam TC 181;TC 181;Binifo AC 3K7;TA 880;TA 600;BW 110;DF 1500;Unifoam AZ Ultra 1035I;AD;D 600 (blowing agent);AK 9005;1305I;3245I;DX 74;Blowing agent ADC;Vinyfor AC 4K8;Unifoam AZ-VI 40;BI 0340;AC 6000HG;PFM 13691;Celogen 760A;ST 309;ST 309 (blowing agent);Blowing Agent AD;VI 50ST;AC 6000F;Unicell D 300;SA 3000;SA 5000;SA 3000 (blowing agent);Jinglang S 15;S 15;AC 93;EM 804A;Hydrocerol 2224;PL 05;Vinyfor AC-K 3TA;ACP-H;Vinyfor AC 93;H 7350;Unifoam TC 181;AC-K 3TA;AC 9000F;AC 3W;Vinyfor AC 3W;AG 250 (blowing agent);AG 250;Cellcom JTR-M 50N2;AC 7000 (filler);Luvobatch BA 5332;AC 7000 (blowing agent);JTR-TL;Unifoam AZ Ultra 3170N-I;Aceox AC 3000;Unifoam AZ-VI 50ST;Unifoam AZ-C 12I;Unifoam AZ-HJ;Unifoam AZ 1035;AC-H 802A;Unifoam AZ-MFE 600;AY 220;Vinyfor AC 6K6;ADC 107;Celogen AZ 760A;AZ 760A;1L-K3;Supercell 7155M1-300;DX 74M;7000DB;RC 720;Mikrofine ADC;Unifoam AZ Ultra 3245I;SA 5000D;H 700 (blowing agent);H 700;SL-ACF 10;Cellcom AC 7001;ADC 110",
    "duplicated_cas_no": "52737-71-0;62494-61-5;62494-62-6;62494-85-3;65098-86-4;65098-87-5;72514-45-5;73247-42-4;73905-77-8;81774-20-1;89073-35-8;97707-96-5;131715-26-9;183256-78-2;218433-14-8;221272-72-6;882507-89-3;882523-85-5;885108-45-2;935747-42-5;1006730-14-8;1242528-98-8;1349861-61-5;1394903-25-3;2136579-27-4;2250070-22-3;2702980-09-2",
    "SMILES": "N(=NC(N)=O)C(N)=O",
    "meta_data": {
        "InChI": "InChI=1S/C2H4N4O2/c3-1(7)5-6-2(4)8/h(H2,3,7)(H2,4,8)",
        "InChIKey": null,
        "Canonical SMILES": "O=C(N=NC(=O)N)N",
        "Molecular Formula": "C<sub>2</sub>H<sub>4</sub>N<sub>4</sub>O<sub>2</sub>",
        "Molecular Mass": "116.08",
        "Melting Point": "225 °C (decomp)",
        "Density": "1.65 g/cm³ @ Temp: 20 °C"
    }
}