{
    "cas_no": "2510-95-4",
    "key_name": "α-Cyanostilbene",
    "cn_name": "α-苯基肉桂腈;",
    "alternate_name": "Benzeneacetonitrile, α-(phenylmethylene)-;Acrylonitrile, 2,3-diphenyl-;Acrylonitrile, α,β-diphenyl-;α-(Phenylmethylene)benzeneacetonitrile;α-Stilbenecarbonitrile;α-Cyanostilbene;Benzylidene(phenyl)acetonitrile;α-Phenylcinnamonitrile;2,3-Diphenylacrylonitrile;1-Cyano-1,2-diphenylethene;2,3-Diphenylpropenonitrile;NSC 12489;NSC 2018",
    "duplicated_cas_no": "127074-43-5",
    "SMILES": "C(=CC1=CC=CC=C1)(C#N)C2=CC=CC=C2",
    "meta_data": {
        "InChI": "InChI=1S/C15H11N/c16-12-15(14-9-5-2-6-10-14)11-13-7-3-1-4-8-13/h1-11H",
        "InChIKey": null,
        "Canonical SMILES": "N#CC(=CC=1C=CC=CC1)C=2C=CC=CC2",
        "Molecular Formula": "C<sub>15</sub>H<sub>11</sub>N",
        "Molecular Mass": "205.25",
        "Boiling Point": "120-125 °C @ Press: 0.5 Torr",
        "Melting Point": "86 °C"
    }
}