{
    "cas_no": "5909-24-0",
    "key_name": "Ethyl 4-chloro-2-(methylthio)-5-pyrimidinecarboxylate",
    "cn_name": null,
    "alternate_name": "5-Pyrimidinecarboxylic acid, 4-chloro-2-(methylthio)-, ethyl ester;Ethyl 4-chloro-2-(methylthio)-5-pyrimidinecarboxylate;4-Chloro-5-carbethoxy-2-methylthiopyrimidine;4-Chloro-2-methanethiopyrimidine-5-carboxylic acid ethyl ester;4-Chloro-2-methanesulfanylpyrimidine-5-carboxylic acid ethyl ester;4-Chloro-5-ethoxycarbonyl-2-methylthiopyrimidine;NSC 123534;4-Chloro-2-methylsulfanylpyrimidine-5-carboxylic acid ethyl ester;2-Methylthio-4-chloro-5-ethoxycarbonylpyrimidine;Ethyl 4-chloro-2-methylsulfanyl-5-pyrimidinecarboxylate;4-Chloro-2-(methylthio)-5-pyrimidinecarboxylic acid ethyl ester;4-Chloro-2-methylthio-5-carbethoxypyrimidine;4-Chloro-2-(methylthio)pyrimidin-5-carboxylic acid ethyl ester",
    "duplicated_cas_no": "",
    "SMILES": "C(OCC)(=O)C=1C(Cl)=NC(SC)=NC1",
    "meta_data": {
        "InChI": "InChI=1S/C8H9ClN2O2S/c1-3-13-7(12)5-4-10-8(14-2)11-6(5)9/h4H,3H2,1-2H3",
        "InChIKey": null,
        "Canonical SMILES": "O=C(OCC)C1=CN=C(N=C1Cl)SC",
        "Molecular Formula": "C<sub>8</sub>H<sub>9</sub>ClN<sub>2</sub>O<sub>2</sub>S",
        "Molecular Mass": "232.69",
        "Boiling Point": "143 °C @ Press: 0.8 Torr",
        "Melting Point": "59-61 °C"
    }
}