{
    "cas_no": "4773-96-0",
    "key_name": "Mangiferin",
    "cn_name": null,
    "alternate_name": "9<em>H</em>-Xanthen-9-one, 2-β-<span class=\"text-smallcaps\">D</span>-glucopyranosyl-1,3,6,7-tetrahydroxy-;Mangiferin;2-β-<span class=\"text-smallcaps\">D</span>-Glucopyranosyl-1,3,6,7-tetrahydroxy-9<em>H</em>-xanthen-9-one;Hedysarid;Aphloiol;1,3,6,7-Tetrahydroxyxanthone-<em>C</em><sub>2</sub>-β-<span class=\"text-smallcaps\">D</span>-glucoside;Chinomin;2-<em>C</em>-β-<span class=\"text-smallcaps\">D</span>-Glucopyranosyl-1,3,6,7-tetrahydroxyxanthone;Alpizarine;Alpizarin;Chinonin;NSC 248870;Shamimin",
    "duplicated_cas_no": "491-63-4;69959-35-9;99331-60-9;173070-82-1;233599-15-0;478483-43-1;906328-94-7",
    "SMILES": "OC1=C2C(OC=3C(C2=O)=CC(O)=C(O)C3)=CC(O)=C1[C@@H]4O[C@H](CO)[C@@H](O)[C@H](O)[C@H]4O",
    "meta_data": {
        "InChI": "InChI=1S/C19H18O11/c20-4-11-15(25)17(27)18(28)19(30-11)12-8(23)3-10-13(16(12)26)14(24)5-1-6(21)7(22)2-9(5)29-10/h1-3,11,15,17-23,25-28H,4H2/t11-,15-,17+,18-,19+/m1/s1",
        "InChIKey": null,
        "Canonical SMILES": "O=C1C2=CC(O)=C(O)C=C2OC3=CC(O)=C(C(O)=C13)C4OC(CO)C(O)C(O)C4O",
        "Molecular Formula": "C<sub>19</sub>H<sub>18</sub>O<sub>11</sub>",
        "Molecular Mass": "422.34",
        "Melting Point": "322 °C"
    }
}