{
    "cas_no": "130-17-6",
    "key_name": "2-(4-Aminophenyl)-6-methyl-7-benzothiazolesulfonic acid",
    "cn_name": "2-(4-氨基苯基)-6-甲基苯并噻唑-7-磺酸;",
    "alternate_name": "7-Benzothiazolesulfonic acid, 2-(4-aminophenyl)-6-methyl-;7-Benzothiazolesulfonic acid, 2-(<em>p</em>-aminophenyl)-6-methyl-;2-(4-Aminophenyl)-6-methyl-7-benzothiazolesulfonic acid;2-(<em>p</em>-Aminophenyl)-6-methyl-7-benzothiazolesulfonic acid;Dehydrothio-<em>p</em>-toluidinesulfonic acid;<em>p</em>-(6-Methyl-7-sulfobenzothiazole)aniline;2-(4′-Aminophenyl)-6-methylbenzothiazole-7-sulfonic acid;NSC 203387;NSC 44566;2-(4-Aminophenyl)-6-methylbenzothiazolesulfonic acid;2-(4-Aminophenyl)-6-methylbenzothiazole-7-sulphonic acid;2-(4-Aminophenyl)-6-methyl-1,3-benzothiazole-7-sulfonic acid",
    "duplicated_cas_no": "",
    "SMILES": "S(=O)(=O)(O)C1=C2C(N=C(S2)C3=CC=C(N)C=C3)=CC=C1C",
    "meta_data": {
        "InChI": "InChI=1S/C14H12N2O3S2/c1-8-2-7-11-12(13(8)21(17,18)19)20-14(16-11)9-3-5-10(15)6-4-9/h2-7H,15H2,1H3,(H,17,18,19)",
        "InChIKey": null,
        "Canonical SMILES": "O=S(=O)(O)C=1C=2SC(=NC2C=CC1C)C3=CC=C(N)C=C3",
        "Molecular Formula": "C<sub>14</sub>H<sub>12</sub>N<sub>2</sub>O<sub>3</sub>S<sub>2</sub>",
        "Molecular Mass": "320.39",
        "Melting Point": "319 °C"
    }
}