{
    "cas_no": "57017-95-5",
    "key_name": "Methyl 3-chloro-4-hydroxybenzeneacetate",
    "cn_name": null,
    "alternate_name": "Benzeneacetic acid, 3-chloro-4-hydroxy-, methyl ester;Methyl 3-chloro-4-hydroxybenzeneacetate;Methyl 4-hydroxy-3-chlorobenzeneacetate;Methyl 3-chloro-4-hydroxyphenylacetate;Methyl 2-(3-chloro-4-hydroxyphenyl)acetate;(3-Chloro-4-hydroxyphenyl)acetic acid methyl ester;3-Chloro-4-hydroxybenzeneacetic acid methyl ester",
    "duplicated_cas_no": "",
    "SMILES": "C(C(OC)=O)C1=CC(Cl)=C(O)C=C1",
    "meta_data": {
        "InChI": "InChI=1S/C9H9ClO3/c1-13-9(12)5-6-2-3-8(11)7(10)4-6/h2-4,11H,5H2,1H3",
        "InChIKey": null,
        "Canonical SMILES": "O=C(OC)CC1=CC=C(O)C(Cl)=C1",
        "Molecular Formula": "C<sub>9</sub>H<sub>9</sub>ClO<sub>3</sub>",
        "Molecular Mass": "200.62",
        "Boiling Point": "175 °C @ Press: 4 Torr"
    }
}