{
    "cas_no": "86541-74-4",
    "key_name": "Benazepril hydrochloride",
    "cn_name": "盐酸贝那普利;盐酸苯那普利;{(3S)-3-[(1S)-1-乙氧羰基-3-苯基丙基氨基]-2,3,4,5-四氢-2-氧-1H-1-苯并氮杂卓;",
    "alternate_name": "1<em>H</em>-1-Benzazepine-1-acetic acid, 3-[[(1<em>S</em>)-1-(ethoxycarbonyl)-3-phenylpropyl]amino]-2,3,4,5-tetrahydro-2-oxo-, hydrochloride (1:1), (3<em>S</em>)-;1<em>H</em>-1-Benzazepine-1-acetic acid, 3-[[1-(ethoxycarbonyl)-3-phenylpropyl]amino]-2,3,4,5-tetrahydro-2-oxo-, monohydrochloride, [<em>S</em>-(<em>R</em>*,<em>R</em>*)]-;1<em>H</em>-1-Benzazepine-1-acetic acid, 3-[[(1<em>S</em>)-1-(ethoxycarbonyl)-3-phenylpropyl]amino]-2,3,4,5-tetrahydro-2-oxo-, monohydrochloride, (3<em>S</em>)-;Benazepril hydrochloride;CGS 14824A;Lotensin;Lotension;CGS 14824A HCl;Unitense",
    "duplicated_cas_no": "211307-81-2",
    "SMILES": "C(C(O)=O)N1C=2C(CC[C@H](N[C@@H](CCC3=CC=CC=C3)C(OCC)=O)C1=O)=CC=CC2.Cl",
    "meta_data": {
        "InChI": "InChI=1S/C24H28N2O5.ClH/c1-2-31-24(30)20(14-12-17-8-4-3-5-9-17)25-19-15-13-18-10-6-7-11-21(18)26(23(19)29)16-22(27)28;/h3-11,19-20,25H,2,12-16H2,1H3,(H,27,28);1H/t19-,20-;/m0./s1",
        "InChIKey": null,
        "Canonical SMILES": "Cl.O=C(O)CN1C(=O)C(NC(C(=O)OCC)CCC=2C=CC=CC2)CCC=3C=CC=CC31",
        "Molecular Formula": "C<sub>24</sub>H<sub>28</sub>N<sub>2</sub>O<sub>5</sub>.ClH",
        "Molecular Mass": "",
        "Melting Point": "188-190 °C"
    }
}