{
    "cas_no": "29387-86-8",
    "key_name": "Propylene glycol butyl ether",
    "cn_name": "丙二醇丁醚;",
    "alternate_name": "Propanol, 1(<em>or</em> 2)-butoxy-;Propanol, butoxy-;1(<em>or</em> 2)-Butoxypropanol;Propylene glycol monobutyl ether;Propylene glycol butoxy ether;Propasol B;Butoxypropanol;Dowanol PnB;Propylene glycol butyl ether;Butyl Propasol;Propylene glycol <em>n</em>-butyl ether;Arcosolv PNB;Acrosolv PnB;1,2-Propanediol monobutyl ether;BFDG;DBG;Dowclene 1601;PNB",
    "duplicated_cas_no": "36495-80-4;39332-54-2;114663-40-0;250345-46-1;1146633-40-0",
    "SMILES": "",
    "meta_data": {
        "InChI": "",
        "InChIKey": null,
        "Canonical SMILES": "",
        "Molecular Formula": "C<sub>7</sub>H<sub>16</sub>O<sub>2</sub>",
        "Molecular Mass": "",
        "Melting Point": "&gt;360 °C",
        "Density": "8.7463 x 10<sup>-7</sup> g/cm³ @ Temp: 25.00 °C"
    }
}