{
    "cas_no": "32619-42-4",
    "key_name": "Oleuropein",
    "cn_name": "橄榄苦甙;橄榄苦苷;油橄榄叶提取物;",
    "alternate_name": "2<em>H</em>-Pyran-4-acetic acid, 3-ethylidene-2-(β-<span class=\"text-smallcaps\">D</span>-glucopyranosyloxy)-3,4-dihydro-5-(methoxycarbonyl)-, 2-(3,4-dihydroxyphenyl)ethyl ester, (2<em>S</em>,3<em>E</em>,4<em>S</em>)-;2<em>H</em>-Pyran-4-acetic acid, 3-ethylidene-2-(β-<span class=\"text-smallcaps\">D</span>-glucopyranosyloxy)-3,4-dihydro-5-(methoxycarbonyl)-, 2-(3,4-dihydroxyphenyl)ethyl ester, [2<em>S</em>-(2α,3<em>E</em>,4β)]-;Oleuropein;2<em>H</em>-Pyran-4-acetic acid, 5-carboxy-3-ethylidene-2-(β-<span class=\"text-smallcaps\">D</span>-glucosyloxy)-3,4-dihydro-, 3,4-dihydroxyphenethyl 5-methyl ester;Oleoeuropeine;Oleuropeine;Oleoeuropein;Opiace",
    "duplicated_cas_no": "1392-73-0;4809-64-7;30675-34-4;37341-33-6;163436-64-4",
    "SMILES": "C(C(OCCC1=CC(O)=C(O)C=C1)=O)[C@H]2/C(=C\\C)/[C@H](O[C@@H]3O[C@H](CO)[C@@H](O)[C@H](O)[C@H]3O)OC=C2C(OC)=O",
    "meta_data": {
        "InChI": "InChI=1S/C25H32O13/c1-3-13-14(9-19(29)35-7-6-12-4-5-16(27)17(28)8-12)15(23(33)34-2)11-36-24(13)38-25-22(32)21(31)20(30)18(10-26)37-25/h3-5,8,11,14,18,20-22,24-28,30-32H,6-7,9-10H2,1-2H3/b13-3+/t14-,18+,20+,21-,22+,24-,25-/m0/s1",
        "InChIKey": null,
        "Canonical SMILES": "O=C(OC)C1=COC(OC2OC(CO)C(O)C(O)C2O)C(=CC)C1CC(=O)OCCC3=CC=C(O)C(O)=C3",
        "Molecular Formula": "C<sub>25</sub>H<sub>32</sub>O<sub>13</sub>",
        "Molecular Mass": "540.51",
        "Melting Point": "88 °C"
    }
}