{
    "cas_no": "3979-51-9",
    "key_name": "2-Propanol-<em>d</em>",
    "cn_name": null,
    "alternate_name": "2-Propanol-<em>d</em>;Isopropyl alcohol-<em>d</em>;Isopropanol-<em>d</em>;2-Propanol-<em>O</em>-<em>d</em><sub>1</sub>;<em>i</em>-Propanol-<em>d</em>;2-Deuteriooxypropane",
    "duplicated_cas_no": "",
    "SMILES": "C(C)(C)O[2H]",
    "meta_data": {
        "InChI": "InChI=1S/C3H8O/c1-3(2)4/h3-4H,1-2H3/i4D",
        "InChIKey": null,
        "Canonical SMILES": "OC(C)C",
        "Molecular Formula": "C<sub>3</sub>H<sub>7</sub>DO",
        "Molecular Mass": "",
        "Boiling Point": "83.2 °C @ Press: 760 Torr"
    }
}