{
    "cas_no": "613-69-4",
    "key_name": "2-Ethoxybenzaldehyde",
    "cn_name": "2-乙氧基苯甲醛;邻乙氧基苯甲醛;",
    "alternate_name": "Benzaldehyde, 2-ethoxy-;Benzaldehyde, <em>o</em>-ethoxy-;2-Ethoxybenzaldehyde;<em>o</em>-Ethoxybenzaldehyde;NSC 1783",
    "duplicated_cas_no": "",
    "SMILES": "O(CC)C1=C(C=O)C=CC=C1",
    "meta_data": {
        "InChI": "InChI=1S/C9H10O2/c1-2-11-9-6-4-3-5-8(9)7-10/h3-7H,2H2,1H3",
        "InChIKey": null,
        "Canonical SMILES": "O=CC=1C=CC=CC1OCC",
        "Molecular Formula": "C<sub>9</sub>H<sub>10</sub>O<sub>2</sub>",
        "Molecular Mass": "150.17",
        "Boiling Point": "248 °C",
        "Melting Point": "21 °C"
    }
}