{
    "cas_no": "23674-86-4",
    "key_name": "Epitopic",
    "cn_name": "二氟孕甾丁酯;",
    "alternate_name": "Pregna-1,4-diene-3,20-dione, 21-(acetyloxy)-6,9-difluoro-11-hydroxy-17-(1-oxobutoxy)-, (6α,11β)-;Pregna-1,4-diene-3,20-dione, 6α,9-difluoro-11β,17,21-trihydroxy-, 21-acetate 17-butyrate;Butyric acid, 17-ester with 6α,9-difluoro-11β,17,21-trihydroxypregna-1,4-diene-3,20-dione 21-acetate;(6α,11β)-21-(Acetyloxy)-6,9-difluoro-11-hydroxy-17-(1-oxobutoxy)pregna-1,4-diene-3,20-dione;Difluprednate;6α,9α-Difluoroprednisolone 21-acetate 17-butyrate;6a,9-Difluoro-11β,17,21-trihydroxypregna-1,4-diene-3,20-dione 21-acetate 17-butyrate;W 6309;6α,9-Difluoroprednisolone 21-acetate 17-butyrate;Myser;Epitopic;CM 9155;Durezol;6-Alpha,9α-difluoroprednisolone 21-acetate 17-butyrate",
    "duplicated_cas_no": "",
    "SMILES": "C(COC(C)=O)(=O)[C@]1(OC(CCC)=O)[C@]2(C)[C@@](CC1)([C@]3([C@](F)([C@@H](O)C2)[C@]4(C)C([C@@H](F)C3)=CC(=O)C=C4)[H])[H]",
    "meta_data": {
        "InChI": "InChI=1S/C27H34F2O7/c1-5-6-23(34)36-26(22(33)14-35-15(2)30)10-8-17-18-12-20(28)19-11-16(31)7-9-24(19,3)27(18,29)21(32)13-25(17,26)4/h7,9,11,17-18,20-21,32H,5-6,8,10,12-14H2,1-4H3/t17-,18-,20-,21-,24-,25-,26-,27-/m0/s1",
        "InChIKey": null,
        "Canonical SMILES": "O=C1C=CC2(C(=C1)C(F)CC3C4CCC(OC(=O)CCC)(C(=O)COC(=O)C)C4(C)CC(O)C32F)C",
        "Molecular Formula": "C<sub>27</sub>H<sub>34</sub>F<sub>2</sub>O<sub>7</sub>",
        "Molecular Mass": "508.55",
        "Melting Point": "191-194 °C"
    }
}