{
    "cas_no": "5202-86-8",
    "key_name": "<em>N</em>-(4-Chloro-2-methylphenyl)acetamide",
    "cn_name": "4-氯-2-甲基乙酰苯胺;",
    "alternate_name": "Acetamide, <em>N</em>-(4-chloro-2-methylphenyl)-;<em>o</em>-Acetotoluidide, 4′-chloro-;<em>N</em>-(4-Chloro-2-methylphenyl)acetamide;4-Chloro-2-methylacetanilide;<em>N</em>-Acetyl-4-chloro-2-methylaniline",
    "duplicated_cas_no": "",
    "SMILES": "N(C(C)=O)C1=C(C)C=C(Cl)C=C1",
    "meta_data": {
        "InChI": "InChI=1S/C9H10ClNO/c1-6-5-8(10)3-4-9(6)11-7(2)12/h3-5H,1-2H3,(H,11,12)",
        "InChIKey": null,
        "Canonical SMILES": "O=C(NC1=CC=C(Cl)C=C1C)C",
        "Molecular Formula": "C<sub>9</sub>H<sub>10</sub>ClNO",
        "Molecular Mass": "183.63",
        "Melting Point": "139 °C"
    }
}