{
    "cas_no": "692-29-5",
    "key_name": "4-Oxobutanoic acid",
    "cn_name": "琥珀半醛;",
    "alternate_name": "Butanoic acid, 4-oxo-;Succinaldehydic acid;4-Oxobutanoic acid;Succinic semialdehyde;Succinic acid semialdehyde;Propanoic acid, 3-formyl-;Butyraldehydic acid;β-Formylpropionic acid;3-Formylpropionic acid;γ-Oxybutyric acid;3-Formylpropanoic acid;4-Oxobutyric acid;Butanoic acid, 4-oxo-",
    "duplicated_cas_no": "",
    "SMILES": "C(C(O)=O)CC=O",
    "meta_data": {
        "InChI": "InChI=1S/C4H6O3/c5-3-1-2-4(6)7/h3H,1-2H2,(H,6,7)",
        "InChIKey": null,
        "Canonical SMILES": "O=CCCC(=O)O",
        "Molecular Formula": "C<sub>4</sub>H<sub>6</sub>O<sub>3</sub>",
        "Molecular Mass": "102.09",
        "Boiling Point": "142-143 °C @ Press: 13 Torr",
        "Melting Point": "202-203 °C",
        "Density": "1.163 g/cm³ @ Temp: 19 °C"
    }
}