{
    "cas_no": "7425-49-2",
    "key_name": "Butanoic acid, 3-bromo-, ethyl ester",
    "cn_name": null,
    "alternate_name": "Butanoic acid, 3-bromo-, ethyl ester;Butyric acid, 3-bromo-, ethyl ester;β-Bromobutyric acid ethyl ester;Ethyl 3-bromobutyrate;Ethyl 3-bromobutanoate;NSC 8856",
    "duplicated_cas_no": "",
    "SMILES": "C(C(OCC)=O)C(Br)C",
    "meta_data": {
        "InChI": "InChI=1S/C6H11BrO2/c1-3-9-6(8)4-5(2)7/h5H,3-4H2,1-2H3",
        "InChIKey": null,
        "Canonical SMILES": "O=C(OCC)CC(Br)C",
        "Molecular Formula": "C<sub>6</sub>H<sub>11</sub>BrO<sub>2</sub>",
        "Molecular Mass": "195.05",
        "Boiling Point": "41-42 °C @ Press: 2 Torr",
        "Density": "1.3103 g/cm³ @ Temp: 25 °C"
    }
}