{
    "cas_no": "819-79-4",
    "key_name": "2-Propanamine, <em>N</em>-(1-methylethyl)-, hydrochloride (1:1)",
    "cn_name": "盐酸二异丙胺;",
    "alternate_name": "2-Propanamine, <em>N</em>-(1-methylethyl)-, hydrochloride (1:1);Diisopropylamine, hydrochloride;2-Propanamine, <em>N</em>-(1-methylethyl)-, hydrochloride;Diethylamine, dimethyl-, hydrochloride;Diisopropylammonium chloride;Bis(isopropyl)ammonium chloride",
    "duplicated_cas_no": "",
    "SMILES": "N(C(C)C)C(C)C.Cl",
    "meta_data": {
        "InChI": "InChI=1S/C6H15N.ClH/c1-5(2)7-6(3)4;/h5-7H,1-4H3;1H",
        "InChIKey": null,
        "Canonical SMILES": "Cl.N(C(C)C)C(C)C",
        "Molecular Formula": "C<sub>6</sub>H<sub>15</sub>N.ClH",
        "Molecular Mass": "",
        "Melting Point": "210.5-213 °C"
    }
}