{
    "cas_no": "3167-50-8",
    "key_name": "2-Amino-5-pyrimidinecarboxylic acid",
    "cn_name": "2-氨基嘧啶-5-羧酸;",
    "alternate_name": "5-Pyrimidinecarboxylic acid, 2-amino-;2-Amino-5-pyrimidinecarboxylic acid;2-Amino-5-carboxypyrimidine",
    "duplicated_cas_no": "",
    "SMILES": "C(O)(=O)C=1C=NC(N)=NC1",
    "meta_data": {
        "InChI": "InChI=1S/C5H5N3O2/c6-5-7-1-3(2-8-5)4(9)10/h1-2H,(H,9,10)(H2,6,7,8)",
        "InChIKey": null,
        "Canonical SMILES": "O=C(O)C1=CN=C(N=C1)N",
        "Molecular Formula": "C<sub>5</sub>H<sub>5</sub>N<sub>3</sub>O<sub>2</sub>",
        "Molecular Mass": "139.11",
        "Melting Point": "&gt;300 °C"
    }
}