{
    "cas_no": "1207181-62-1",
    "key_name": "Scutebarbatine F",
    "cn_name": null,
    "alternate_name": "3-Pyridinecarboxylic acid, (3<em>S</em>,4′a<em>R</em>,5′<em>S</em>,6′<em>R</em>,6′a<em>R</em>,10′<em>R</em>,10′a<em>S</em>,10′b<em>R</em>)-5′,6′-bis(acetyloxy)-1′,2′,4,4′a,5,5′,6′,6′a,9′,10′,10′a,10′b-dodecahydro-4′a,6′a,7′,10′b-tetramethyl-5-oxospiro[furan-3(2<em>H</em>),3′-[3<em>H</em>]naphtho[2,1-<em>b</em>]pyran]-10′-yl ester;Scutebata F;Scutebarbatine F;Barbatine C",
    "duplicated_cas_no": "910099-78-4;1202356-56-6",
    "SMILES": "C[C@@]12[C@@]3([C@@](C)([C@@H](OC(C)=O)[C@H](OC(C)=O)[C@]1(C)O[C@]4(CC2)COC(=O)C4)C(C)=CC[C@H]3OC(=O)C=5C=CC=NC5)[H]",
    "meta_data": {
        "InChI": "InChI=1S/C30H37NO9/c1-17-9-10-21(39-26(35)20-8-7-13-31-15-20)23-27(4)11-12-30(14-22(34)36-16-30)40-29(27,6)25(38-19(3)33)24(28(17,23)5)37-18(2)32/h7-9,13,15,21,23-25H,10-12,14,16H2,1-6H3/t21-,23-,24+,25+,27-,28+,29+,30+/m1/s1",
        "InChIKey": null,
        "Canonical SMILES": "O=C(OC1CC=C(C)C2(C)C(OC(=O)C)C(OC(=O)C)C3(OC4(COC(=O)C4)CCC3(C)C12)C)C=5C=NC=CC5",
        "Molecular Formula": "C<sub>30</sub>H<sub>37</sub>NO<sub>9</sub>",
        "Molecular Mass": "555.62",
        "Melting Point": "130-132 °C"
    }
}