{
    "cas_no": "56390-09-1",
    "key_name": "Epirubicin hydrochloride",
    "cn_name": "盐酸表柔比星;盐酸表阿霉素;(8S,10S)-10-[(3\"-氨基-2\",3\",6\"-三脱氧-alpha-L-阿拉伯吡喃糖基)-O-]-6,8,11-;",
    "alternate_name": "5,12-Naphthacenedione, 10-[(3-amino-2,3,6-trideoxy-α-<span class=\"text-smallcaps\">L</span>-<em>arabino</em>-hexopyranosyl)oxy]-7,8,9,10-tetrahydro-6,8,11-trihydroxy-8-(2-hydroxyacetyl)-1-methoxy-, hydrochloride (1:1), (8<em>S</em>,10<em>S</em>)-;5,12-Naphthacenedione, 10-[(3-amino-2,3,6-trideoxy-α-<span class=\"text-smallcaps\">L</span>-<em>arabino</em>-hexopyranosyl)oxy]-7,8,9,10-tetrahydro-6,8,11-trihydroxy-8-(hydroxyacetyl)-1-methoxy-, hydrochloride, (8<em>S</em>-<em>cis</em>)-;5,12-Naphthacenedione, 10-[(3-amino-2,3,6-trideoxy-α-<span class=\"text-smallcaps\">L</span>-<em>arabino</em>-hexopyranosyl)oxy]-7,8,9,10-tetrahydro-6,8,11-trihydroxy-8-(hydroxyacetyl)-1-methoxy-, hydrochloride, (8<em>S</em>,10<em>S</em>)-;4′-<em>epi</em>-Adriamycin hydrochloride;4′-Epidoxorubicin hydrochloride;Epirubicin hydrochloride;Farmorubicin;Pharmorubicin;Epidoxorubicin hydrochloride;Ellence",
    "duplicated_cas_no": "",
    "SMILES": "OC=1C2=C([C@@H](O[C@H]3C[C@H](N)[C@@H](O)[C@H](C)O3)C[C@@](C(CO)=O)(O)C2)C(O)=C4C1C(=O)C=5C(C4=O)=C(OC)C=CC5.Cl",
    "meta_data": {
        "InChI": "InChI=1S/C27H29NO11.ClH/c1-10-22(31)13(28)6-17(38-10)39-15-8-27(36,16(30)9-29)7-12-19(15)26(35)21-20(24(12)33)23(32)11-4-3-5-14(37-2)18(11)25(21)34;/h3-5,10,13,15,17,22,29,31,33,35-36H,6-9,28H2,1-2H3;1H/t10-,13-,15-,17-,22-,27-;/m0./s1",
        "InChIKey": null,
        "Canonical SMILES": "Cl.O=C1C=2C=CC=C(OC)C2C(=O)C=3C(O)=C4C(=C(O)C13)CC(O)(C(=O)CO)CC4OC5OC(C)C(O)C(N)C5",
        "Molecular Formula": "C<sub>27</sub>H<sub>29</sub>NO<sub>11</sub>.ClH",
        "Molecular Mass": "",
        "Melting Point": "185 °C (decomp)"
    }
}