{
    "cas_no": "2782-91-4",
    "key_name": "Tetramethylthiourea",
    "cn_name": "四甲基硫脲;1,1,3,3-四甲基硫脲;",
    "alternate_name": "Thiourea, <em>N</em>,<em>N</em>,<em>N</em>′,<em>N</em>′-tetramethyl-;Urea, 1,1,3,3-tetramethyl-2-thio-;Thiourea, tetramethyl-;<em>N</em>,<em>N</em>,<em>N</em>′,<em>N</em>′-Tetramethylthiourea;Tetramethylthiourea;1,1,3,3-Tetramethyl-2-thiourea;Basthioryl;NSC 102499;NA 101",
    "duplicated_cas_no": "",
    "SMILES": "C(N(C)C)(N(C)C)=S",
    "meta_data": {
        "InChI": "InChI=1S/C5H12N2S/c1-6(2)5(8)7(3)4/h1-4H3",
        "InChIKey": null,
        "Canonical SMILES": "S=C(N(C)C)N(C)C",
        "Molecular Formula": "C<sub>5</sub>H<sub>12</sub>N<sub>2</sub>S",
        "Molecular Mass": "132.23",
        "Boiling Point": "245 °C",
        "Melting Point": "9-78 °C"
    }
}