{
    "cas_no": "1314-28-9",
    "key_name": "Rhenium oxide (ReO<sub>3</sub>)",
    "cn_name": null,
    "alternate_name": "Rhenium oxide (ReO<sub>3</sub>);Rhenic anhydride;Rhenium trioxide;Rhenium trioxide (ReO<sub>3</sub>);Rhenium(VI) oxide;Rhenium oxide (Re<sub>2</sub>O<sub>6</sub>)",
    "duplicated_cas_no": "12594-72-8",
    "SMILES": "[Re](=O)(=O)=O",
    "meta_data": {
        "InChI": "InChI=1S/3O.Re",
        "InChIKey": null,
        "Canonical SMILES": "O=[Re](=O)=O",
        "Molecular Formula": "O<sub>3</sub>Re",
        "Molecular Mass": "",
        "Boiling Point": "614 °C",
        "Density": "7.2 g/cm³"
    }
}