{
    "cas_no": "4160-51-4",
    "key_name": "1-(4-Methoxyphenyl)-1-butanone",
    "cn_name": "4\"-甲氧基苯丁酮;对甲氧基苯丁酮;",
    "alternate_name": "1-Butanone, 1-(4-methoxyphenyl)-;Butyrophenone, 4′-methoxy-;1-(4-Methoxyphenyl)-1-butanone;<em>p</em>-Methoxybutyrophenone;4-Methoxybutyrophenone;4′-Methoxybutyrophenone;4-Butanoylanisole;Propyl <em>p</em>-anisyl ketone;Propyl 4-methoxyphenyl ketone;NSC 5615;1-Butyryl-4-methoxybenzene",
    "duplicated_cas_no": "",
    "SMILES": "C(CCC)(=O)C1=CC=C(OC)C=C1",
    "meta_data": {
        "InChI": "InChI=1S/C11H14O2/c1-3-4-11(12)9-5-7-10(13-2)8-6-9/h5-8H,3-4H2,1-2H3",
        "InChIKey": null,
        "Canonical SMILES": "O=C(C1=CC=C(OC)C=C1)CCC",
        "Molecular Formula": "C<sub>11</sub>H<sub>14</sub>O<sub>2</sub>",
        "Molecular Mass": "178.23",
        "Boiling Point": "158-159 °C @ Press: 19 Torr",
        "Melting Point": "21-22 °C",
        "Density": "1.0339 g/cm³ @ Temp: 40 °C"
    }
}