{
    "cas_no": "160885-98-3",
    "key_name": "9<em>H</em>-Fluoren-9-ylmethyl <em>N</em>-[(1<em>S</em>)-1-(hydroxymethyl)-2-methylpropyl]carbamate",
    "cn_name": "N-Fmoc-L-缬氨醇;",
    "alternate_name": "Carbamic acid, <em>N</em>-[(1<em>S</em>)-1-(hydroxymethyl)-2-methylpropyl]-, 9<em>H</em>-fluoren-9-ylmethyl ester;Carbamic acid, [1-(hydroxymethyl)-2-methylpropyl]-, 9<em>H</em>-fluoren-9-ylmethyl ester, (<em>S</em>)-;Carbamic acid, [(1<em>S</em>)-1-(hydroxymethyl)-2-methylpropyl]-, 9<em>H</em>-fluoren-9-ylmethyl ester;9<em>H</em>-Fluoren-9-ylmethyl <em>N</em>-[(1<em>S</em>)-1-(hydroxymethyl)-2-methylpropyl]carbamate",
    "duplicated_cas_no": "",
    "SMILES": "C(OC(N[C@@H](C(C)C)CO)=O)C1C=2C(C=3C1=CC=CC3)=CC=CC2",
    "meta_data": {
        "InChI": "InChI=1S/C20H23NO3/c1-13(2)19(11-22)21-20(23)24-12-18-16-9-5-3-7-14(16)15-8-4-6-10-17(15)18/h3-10,13,18-19,22H,11-12H2,1-2H3,(H,21,23)/t19-/m1/s1",
        "InChIKey": null,
        "Canonical SMILES": "O=C(OCC1C=2C=CC=CC2C=3C=CC=CC31)NC(CO)C(C)C",
        "Molecular Formula": "C<sub>20</sub>H<sub>23</sub>NO<sub>3</sub>",
        "Molecular Mass": "325.40",
        "Melting Point": "107-108 °C"
    }
}