{
    "cas_no": "28177-48-2",
    "key_name": "2,6-Difluorophenol",
    "cn_name": "2,6-二氟苯酚;",
    "alternate_name": "Phenol, 2,6-difluoro-;2,6-Difluorophenol",
    "duplicated_cas_no": "2713-32-8",
    "SMILES": "OC1=C(F)C=CC=C1F",
    "meta_data": {
        "InChI": "InChI=1S/C6H4F2O/c7-4-2-1-3-5(8)6(4)9/h1-3,9H",
        "InChIKey": null,
        "Canonical SMILES": "FC1=CC=CC(F)=C1O",
        "Molecular Formula": "C<sub>6</sub>H<sub>4</sub>F<sub>2</sub>O",
        "Molecular Mass": "130.09",
        "Boiling Point": "59-61 °C",
        "Melting Point": "38-41 °C"
    }
}