{
    "cas_no": "19386-06-2",
    "key_name": "Ethyl 3-(adamant-1-yl)-3-oxopropionate",
    "cn_name": "3-(1-金刚烷基)-3-羰基丙酸盐;",
    "alternate_name": "Tricyclo[3.3.1.1<sup>3,7</sup>]decane-1-propanoic acid, β-oxo-, ethyl ester;1-Adamantanepropionic acid, β-oxo-, ethyl ester;Ethyl 3-(adamant-1-yl)-3-oxopropionate;3-Adamantan-1-yl-3-oxo-propionic acid ethyl ester",
    "duplicated_cas_no": "",
    "SMILES": "C(CC(OCC)=O)(=O)C12CC3CC(C1)CC(C2)C3",
    "meta_data": {
        "InChI": "InChI=1S/C15H22O3/c1-2-18-14(17)6-13(16)15-7-10-3-11(8-15)5-12(4-10)9-15/h10-12H,2-9H2,1H3",
        "InChIKey": null,
        "Canonical SMILES": "O=C(OCC)CC(=O)C12CC3CC(CC(C3)C1)C2",
        "Molecular Formula": "C<sub>15</sub>H<sub>22</sub>O<sub>3</sub>",
        "Molecular Mass": "250.33",
        "Boiling Point": "108-110 °C @ Press: 0.06 Torr",
        "Melting Point": "108-110 °C"
    }
}