{
    "cas_no": "2386-47-2",
    "key_name": "Butanesulfonic acid",
    "cn_name": "1-丁磺酸;丁基磺酸;",
    "alternate_name": "1-Butanesulfonic acid;Butanesulfonic acid",
    "duplicated_cas_no": "",
    "SMILES": "C(S(=O)(=O)O)CCC",
    "meta_data": {
        "InChI": "InChI=1S/C4H10O3S/c1-2-3-4-8(5,6)7/h2-4H2,1H3,(H,5,6,7)",
        "InChIKey": null,
        "Canonical SMILES": "O=S(=O)(O)CCCC",
        "Molecular Formula": "C<sub>4</sub>H<sub>10</sub>O<sub>3</sub>S",
        "Molecular Mass": "138.19",
        "Boiling Point": "147 °C",
        "Melting Point": "-15.2 °C",
        "Density": "1.227 g/cm³ @ Temp: 25 °C"
    }
}