{
    "cas_no": "99-62-7",
    "key_name": "1,3-Diisopropylbenzene",
    "cn_name": "1,3-二异丙苯;",
    "alternate_name": "Benzene, 1,3-bis(1-methylethyl)-;Benzene, <em>m</em>-diisopropyl-;1,3-Bis(1-methylethyl)benzene;1,3-Diisopropylbenzene;<em>m</em>-Di-<em>iso</em>-propylbenzene;<em>m</em>-Diisopropylbenzene;m-Diisopropylbenzene;3,5-Diisopropylbenzene;1,3-Di(propan-2-yl)benzene;1,3-Bis(propan-2-yl)benzene",
    "duplicated_cas_no": "",
    "SMILES": "C(C)(C)C1=CC(C(C)C)=CC=C1",
    "meta_data": {
        "InChI": "InChI=1S/C12H18/c1-9(2)11-6-5-7-12(8-11)10(3)4/h5-10H,1-4H3",
        "InChIKey": null,
        "Canonical SMILES": "C=1C=C(C=C(C1)C(C)C)C(C)C",
        "Molecular Formula": "C<sub>12</sub>H<sub>18</sub>",
        "Molecular Mass": "162.27",
        "Boiling Point": "203.2 °C @ Press: 760 Torr",
        "Melting Point": "-61 °C",
        "Density": "0.8559 g/cm³ @ Temp: 20 °C"
    }
}