{
    "cas_no": "74896-66-5",
    "key_name": "Methyl 3,5-dibromo-4-methylbenzoate",
    "cn_name": "3,5-二溴-4-甲基苯甲酸甲酯;",
    "alternate_name": "Benzoic acid, 3,5-dibromo-4-methyl-, methyl ester;<em>p</em>-Toluic acid, 3,5-dibromo-, methyl ester;Methyl 3,5-dibromo-4-methylbenzoate;3,5-Dibromo-4-methyl-benzoic acid methyl ester",
    "duplicated_cas_no": "",
    "SMILES": "C(OC)(=O)C1=CC(Br)=C(C)C(Br)=C1",
    "meta_data": {
        "InChI": "InChI=1S/C9H8Br2O2/c1-5-7(10)3-6(4-8(5)11)9(12)13-2/h3-4H,1-2H3",
        "InChIKey": null,
        "Canonical SMILES": "O=C(OC)C1=CC(Br)=C(C(Br)=C1)C",
        "Molecular Formula": "C<sub>9</sub>H<sub>8</sub>Br<sub>2</sub>O<sub>2</sub>",
        "Molecular Mass": "307.97",
        "Melting Point": "86-88 °C"
    }
}