{
    "cas_no": "578-95-0",
    "key_name": "Acridone",
    "cn_name": "9-吖啶酮;氮蒽酮;茚酮;",
    "alternate_name": "9(10<em>H</em>)-Acridinone;9-Acridanone;Acridone;Acridine, 9,10-dihydro-9-oxo-;Acridanone;9-Acridone;9(10<em>H</em>)-Acridone;Acridin-9-one;CK 103;CK 103 (heterocycle);NSC 408196;NSC 7664;10<em>H</em>-Acridin-9-one;9(10<em>H</em>)-Acridanone",
    "duplicated_cas_no": "790240-54-9",
    "SMILES": "O=C1C=2C(NC=3C1=CC=CC3)=CC=CC2",
    "meta_data": {
        "InChI": "InChI=1S/C13H9NO/c15-13-9-5-1-3-7-11(9)14-12-8-4-2-6-10(12)13/h1-8H,(H,14,15)",
        "InChIKey": null,
        "Canonical SMILES": "O=C1C=2C=CC=CC2NC=3C=CC=CC13",
        "Molecular Formula": "C<sub>13</sub>H<sub>9</sub>NO",
        "Molecular Mass": "195.22",
        "Melting Point": "348 °C"
    }
}