{
    "cas_no": "1825-61-2",
    "key_name": "Methoxytrimethylsilane",
    "cn_name": "甲氧基三甲基硅烷;三甲基甲氧基硅;简称TMSOME;甲氧基三甲基硅烷, 97+%;三甲基甲氧基硅烷;",
    "alternate_name": "Silane, methoxytrimethyl-;Methoxytrimethylsilane;Trimethylmethoxysilane;Methyl trimethylsilyl ether;Trimethylsilyl methyl ether;TSL 8111;SS 2010;NSC 139858;LS 510;Z 6013;CG 3101;Dowsil Z 6013 Silane",
    "duplicated_cas_no": "138069-47-3",
    "SMILES": "[Si](OC)(C)(C)C",
    "meta_data": {
        "InChI": "InChI=1S/C4H12OSi/c1-5-6(2,3)4/h1-4H3",
        "InChIKey": null,
        "Canonical SMILES": "O(C)[Si](C)(C)C",
        "Molecular Formula": "C<sub>4</sub>H<sub>12</sub>OSi",
        "Molecular Mass": "104.22",
        "Boiling Point": "57-58 °C",
        "Melting Point": "99-100 °C",
        "Density": "0.756 g/cm³"
    }
}