{
    "cas_no": "1345-04-6",
    "key_name": "Antimony sulfide (Sb<sub>2</sub>S<sub>3</sub>)",
    "cn_name": "硫化锑;",
    "alternate_name": "Antimony sulfide (Sb<sub>2</sub>S<sub>3</sub>);C.I. 77060;Antimonous sulfide;Antimony Orange;Antimony Vermilion;C.I. Pigment Red 107;Crimson Antimony Sulphide;Needle antimony;Antimony trisulfide;Diantimony trisulfide;Antimony sesquisulfide;Antimony(3+) sulfide;Antimony sulfide (Sb<sub>4</sub>S<sub>6</sub>);Antimony(III) sulfide;Frixsta",
    "duplicated_cas_no": "28767-59-1;64553-20-4;73912-61-5;2379331-66-3",
    "SMILES": "",
    "meta_data": {
        "InChI": "",
        "InChIKey": null,
        "Canonical SMILES": "",
        "Molecular Formula": "S<sub>3</sub>Sb<sub>2</sub>",
        "Molecular Mass": "",
        "Boiling Point": "1013 °C",
        "Melting Point": "550 °C",
        "Density": "4.562 g/cm³"
    }
}