{
    "uri": "substance/pt/1345046",
    "rn": "1345-04-6",
    "name": "Antimony sulfide (Sb<sub>2</sub>S<sub>3</sub>)",
    "images": [],
    "inchi": "",
    "inchiKey": "",
    "smile": "",
    "canonicalSmile": "",
    "molecularFormula": "S<sub>3</sub>Sb<sub>2</sub>",
    "molecularMass": "",
    "experimentalProperties": [
        {
            "name": "Boiling Point",
            "property": "1013 °C",
            "sourceNumber": 1
        },
        {
            "name": "Melting Point",
            "property": "550 °C",
            "sourceNumber": 2
        },
        {
            "name": "Density",
            "property": "4.562 g/cm³",
            "sourceNumber": 2
        }
    ],
    "propertyCitations": [
        {
            "docUri": "document/pt/document/21172827",
            "sourceNumber": 1,
            "source": "Ustyugov, G. P.; Izvestiya Akademii Nauk SSSR, Neorganicheskie Materialy, (1969), 5(3), 589-90, CAplus"
        },
        {
            "docUri": "",
            "sourceNumber": 2,
            "source": "Hazardous Substances Data Bank data were obtained from the National Library of Medicine (US)"
        }
    ],
    "synonyms": [
        "Antimony sulfide (Sb<sub>2</sub>S<sub>3</sub>)",
        "C.I. 77060",
        "Antimonous sulfide",
        "Antimony Orange",
        "Antimony Vermilion",
        "C.I. Pigment Red 107",
        "Crimson Antimony Sulphide",
        "Needle antimony",
        "Antimony trisulfide",
        "Diantimony trisulfide",
        "Antimony sesquisulfide",
        "Antimony(3+) sulfide",
        "Antimony sulfide (Sb<sub>4</sub>S<sub>6</sub>)",
        "Antimony(III) sulfide",
        "Frixsta"
    ],
    "replacedRns": [
        "28767-59-1",
        "64553-20-4",
        "73912-61-5",
        "2379331-66-3"
    ],
    "hasMolfile": false,
    "source": "https://commonchemistry.cas.org/detail?cas_rn=1345-04-6"
}