{
    "cas_no": "480-81-9",
    "key_name": "Seneciphylline",
    "cn_name": null,
    "alternate_name": "[1,6]Dioxacyclododecino[2,3,4-<em>gh</em>]pyrrolizine-2,7-dione, 3-ethylidene-3,4,5,6,9,11,13,14,14a,14b-decahydro-6-hydroxy-6-methyl-5-methylene-, (3<em>Z</em>,6<em>R</em>,14a<em>R</em>,14b<em>R</em>)-;Seneciphylline;Senecionan-11,16-dione, 13,19-didehydro-12-hydroxy-;(3<em>Z</em>,6<em>R</em>,14a<em>R</em>,14b<em>R</em>)-3-Ethylidene-3,4,5,6,9,11,13,14,14a,14b-decahydro-6-hydroxy-6-methyl-5-methylene[1,6]dioxacyclododecino[2,3,4-<em>gh</em>]pyrrolizine-2,7-dione;Jacodine;[1,6]Dioxacyclododecino[2,3,4-<em>gh</em>]pyrrolizine-2,7-dione, 3-ethylidene-3,4,5,6,9,11,13,14,14a,14b-decahydro-6-hydroxy-6-methyl-5-methylene-, [6<em>R</em>-(3<em>Z</em>,6<em>R</em>*,14a<em>R</em>*,14b<em>R</em>*)]-;Seneciphyllin;Seneciophylline;α-Longilobine;NSC 30622",
    "duplicated_cas_no": "",
    "SMILES": "O=C/1O[C@]2([C@@]3(N(CC2)CC=C3COC(=O)[C@](C)(O)C(=C)C\\C1=C\\C)[H])[H]",
    "meta_data": {
        "InChI": "InChI=1S/C18H23NO5/c1-4-12-9-11(2)18(3,22)17(21)23-10-13-5-7-19-8-6-14(15(13)19)24-16(12)20/h4-5,14-15,22H,2,6-10H2,1,3H3/b12-4-/t14-,15-,18-/m1/s1",
        "InChIKey": null,
        "Canonical SMILES": "O=C1OC2CCN3CC=C(COC(=O)C(O)(C(=C)CC1=CC)C)C32",
        "Molecular Formula": "C<sub>18</sub>H<sub>23</sub>NO<sub>5</sub>",
        "Molecular Mass": "333.38",
        "Melting Point": "-218-217 °C"
    }
}