{
    "cas_no": "24938-37-2",
    "key_name": "Adipic acid-ethylene glycol copolymer",
    "cn_name": null,
    "alternate_name": "Hexanedioic acid, polymer with 1,2-ethanediol;Adipic acid, polyester with ethylene glycol;Ethylene glycol, ester (poly-), with adipic acid;Ethylene glycol, polyester with adipic acid;1,2-Ethanediol, polymer with hexanedioic acid;Ethylene glycol-adipic acid polyester;Adipic acid-ethylene glycol polyester;Poly(ethylene glycol adipate);Ethylene glycol-adipic acid copolymer;Adipic acid-ethylene glycol polymer;Ethylene glycol-adipic acid polymer;Adipic acid-ethylene glycol copolymer;Ethylene glycol adipate polymer;Poly(ethylene adipate);Ethylene glycol-hexanedioic acid copolymer;PEGA;Ethylene glycol-1,4-butanedicarboxylic acid copolymer;Hexanedioic acid-ethylene glycol copolymer;1,2-Ethanediol-adipic acid copolymer;Adipic acid-1,2-ethanediol copolymer",
    "duplicated_cas_no": "69067-80-7;89468-83-7;331745-58-5;2254675-04-0",
    "SMILES": "C(CCC(O)=O)CC(O)=O.C(CO)O",
    "meta_data": {
        "InChI": "InChI=1S/C6H10O4.C2H6O2/c7-5(8)3-1-2-4-6(9)10;3-1-2-4/h1-4H2,(H,7,8)(H,9,10);3-4H,1-2H2",
        "InChIKey": null,
        "Canonical SMILES": "O=C(O)CCCCC(=O)O.OCCO",
        "Molecular Formula": "(C<sub>6</sub>H<sub>10</sub>O<sub>4</sub>.C<sub>2</sub>H<sub>6</sub>O<sub>2</sub>)<sub>x</sub>",
        "Molecular Mass": "",
        "Melting Point": "48 °C"
    }
}