{
    "cas_no": "1736-71-6",
    "key_name": "<em>N</em>-[2-(Trifluoromethyl)phenyl]thiourea",
    "cn_name": "2-(三氟甲基)苯基硫脲;",
    "alternate_name": "Thiourea, <em>N</em>-[2-(trifluoromethyl)phenyl]-;Urea, 2-thio-1-(α,α,α-trifluoro-<em>o</em>-tolyl)-;Thiourea, [2-(trifluoromethyl)phenyl]-;<em>N</em>-[2-(Trifluoromethyl)phenyl]thiourea;<em>o</em>-(Trifluoromethyl)phenylthiourea;[2-(Trifluoromethyl)phenyl]thiourea;1-[2-(Trifluoromethyl)phenyl]-2-thiourea",
    "duplicated_cas_no": "",
    "SMILES": "C(F)(F)(F)C1=C(NC(N)=S)C=CC=C1",
    "meta_data": {
        "InChI": "InChI=1S/C8H7F3N2S/c9-8(10,11)5-3-1-2-4-6(5)13-7(12)14/h1-4H,(H3,12,13,14)",
        "InChIKey": null,
        "Canonical SMILES": "FC(F)(F)C=1C=CC=CC1NC(=S)N",
        "Molecular Formula": "C<sub>8</sub>H<sub>7</sub>F<sub>3</sub>N<sub>2</sub>S",
        "Molecular Mass": "220.21",
        "Melting Point": "170 °C"
    }
}