{
    "cas_no": "88485-37-4",
    "key_name": "Fluxofenim",
    "cn_name": null,
    "alternate_name": "Ethanone, 1-(4-chlorophenyl)-2,2,2-trifluoro-, <em>O</em>-(1,3-dioxolan-2-ylmethyl)oxime;CGA 133205;Fluxofenim;Concep III;SorPro;SorPro 940 ES",
    "duplicated_cas_no": "",
    "SMILES": "C(=NOCC1OCCO1)(C(F)(F)F)C2=CC=C(Cl)C=C2",
    "meta_data": {
        "InChI": "InChI=1S/C12H11ClF3NO3/c13-9-3-1-8(2-4-9)11(12(14,15)16)17-20-7-10-18-5-6-19-10/h1-4,10H,5-7H2",
        "InChIKey": null,
        "Canonical SMILES": "FC(F)(F)C(=NOCC1OCCO1)C2=CC=C(Cl)C=C2",
        "Molecular Formula": "C<sub>12</sub>H<sub>11</sub>ClF<sub>3</sub>NO<sub>3</sub>",
        "Molecular Mass": "309.67",
        "Boiling Point": "94 °C",
        "Melting Point": "&lt;25 °C"
    }
}