{
    "cas_no": "138-52-3",
    "key_name": "Salicin",
    "cn_name": "水杨苷;水杨甙;",
    "alternate_name": "β-<span class=\"text-smallcaps\">D</span>-Glucopyranoside, 2-(hydroxymethyl)phenyl;Salicin;2-(Hydroxymethyl)phenyl β-<span class=\"text-smallcaps\">D</span>-glucopyranoside;<em>o</em>-(Hydroxymethyl)phenyl β-<span class=\"text-smallcaps\">D</span>-glucopyranoside;Salicine;Salicoside;Salicyl alcohol glucoside;Saligenin β-<span class=\"text-smallcaps\">D</span>-glucopyranoside;1-β-<span class=\"text-smallcaps\">D</span>-Glucosyloxy-2-hydroxymethylbenzene;<span class=\"text-smallcaps\">D</span>-Salicin;NSC 5751",
    "duplicated_cas_no": "30370-90-2",
    "SMILES": "O([C@@H]1O[C@H](CO)[C@@H](O)[C@H](O)[C@H]1O)C2=C(CO)C=CC=C2",
    "meta_data": {
        "InChI": "InChI=1S/C13H18O7/c14-5-7-3-1-2-4-8(7)19-13-12(18)11(17)10(16)9(6-15)20-13/h1-4,9-18H,5-6H2/t9-,10-,11+,12-,13-/m1/s1",
        "InChIKey": null,
        "Canonical SMILES": "OCC=1C=CC=CC1OC2OC(CO)C(O)C(O)C2O",
        "Molecular Formula": "C<sub>13</sub>H<sub>18</sub>O<sub>7</sub>",
        "Molecular Mass": "286.28",
        "Melting Point": "207 °C"
    }
}