{
    "cas_no": "941-37-7",
    "key_name": "1-Bromo-3,5-dimethyladamantane",
    "cn_name": "1-溴-3,5-二甲基金刚烷;",
    "alternate_name": "Tricyclo[3.3.1.1<sup>3,7</sup>]decane, 1-bromo-3,5-dimethyl-;Adamantane, 1-bromo-3,5-dimethyl-;1-Bromo-3,5-dimethyltricyclo[3.3.1.1<sup>3,7</sup>]decane;3,5-Dimethyl-1-bromoadamantane;1,3-Dimethyl-5-bromoadamantane;1-Bromo-3,5-dimethyladamantane;NSC 102293",
    "duplicated_cas_no": "1204184-77-9",
    "SMILES": "BrC12CC3(C)CC(C)(C1)CC(C2)C3",
    "meta_data": {
        "InChI": "InChI=1S/C12H19Br/c1-10-3-9-4-11(2,6-10)8-12(13,5-9)7-10/h9H,3-8H2,1-2H3",
        "InChIKey": null,
        "Canonical SMILES": "BrC12CC3CC(C)(C1)CC(C)(C3)C2",
        "Molecular Formula": "C<sub>12</sub>H<sub>19</sub>Br",
        "Molecular Mass": "243.18",
        "Boiling Point": "67-69 °C @ Press: 0.03 Torr"
    }
}