{
    "cas_no": "5042-30-8",
    "key_name": "(2,2,2-Trifluoroethyl)hydrazine",
    "cn_name": "2,2,2-三氟乙基肼;",
    "alternate_name": "Hydrazine, (2,2,2-trifluoroethyl)-;(2,2,2-Trifluoroethyl)hydrazine;Trifluoroethylhydrazine;1-(2,2,2-Trifluoroethyl)hydrazine;NSC 111156",
    "duplicated_cas_no": "29381-98-4",
    "SMILES": "C(C(F)(F)F)NN",
    "meta_data": {
        "InChI": "InChI=1S/C2H5F3N2/c3-2(4,5)1-7-6/h7H,1,6H2",
        "InChIKey": null,
        "Canonical SMILES": "FC(F)(F)CNN",
        "Molecular Formula": "C<sub>2</sub>H<sub>5</sub>F<sub>3</sub>N<sub>2</sub>",
        "Molecular Mass": "114.07",
        "Boiling Point": "101-107 °C @ Press: 760 Torr"
    }
}