{
    "cas_no": "1125-21-9",
    "key_name": "Ketoisophorone",
    "cn_name": "2,6,6-三甲基-2-环己烯-1,4-二酮;",
    "alternate_name": "2-Cyclohexene-1,4-dione, 2,6,6-trimethyl-;2,6,6-Trimethyl-2-cyclohexene-1,4-dione;3,5,5-Trimethyl-2-cyclohexene-1,4-dione;4-Oxoisophorone;2,6,6-Trimethylcyclohex-2-ene-1,4-dione;Oxophorone;Ketoisophorone;6-Oxoisophorone;Oxopholone;2,6,6-Trimethyl-2-cyclohexen-1,4-dione;4-Ketoisophorone;4-Oxo-α-isophorone;<em>keto</em>-Isophorone;Oxoisophorone",
    "duplicated_cas_no": "",
    "SMILES": "O=C1C(C)(C)CC(=O)C=C1C",
    "meta_data": {
        "InChI": "InChI=1S/C9H12O2/c1-6-4-7(10)5-9(2,3)8(6)11/h4H,5H2,1-3H3",
        "InChIKey": null,
        "Canonical SMILES": "O=C1C=C(C(=O)C(C)(C)C1)C",
        "Molecular Formula": "C<sub>9</sub>H<sub>12</sub>O<sub>2</sub>",
        "Molecular Mass": "152.19",
        "Boiling Point": "92-94 °C @ Press: 11 Torr",
        "Melting Point": "15-16 °C"
    }
}