{
    "cas_no": "41873-65-8",
    "key_name": "2-(2-Hydroxyphenyl)acetic acid ethyl ester",
    "cn_name": null,
    "alternate_name": "Benzeneacetic acid, 2-hydroxy-, ethyl ester;Ethyl (2-hydroxyphenyl)acetate;2-(2-Hydroxyphenyl)acetic acid ethyl ester;Ethyl 2-hydroxybenzeneacetate",
    "duplicated_cas_no": "",
    "SMILES": "C(C(OCC)=O)C1=C(O)C=CC=C1",
    "meta_data": {
        "InChI": "InChI=1S/C10H12O3/c1-2-13-10(12)7-8-5-3-4-6-9(8)11/h3-6,11H,2,7H2,1H3",
        "InChIKey": null,
        "Canonical SMILES": "O=C(OCC)CC=1C=CC=CC1O",
        "Molecular Formula": "C<sub>10</sub>H<sub>12</sub>O<sub>3</sub>",
        "Molecular Mass": "180.20",
        "Melting Point": "67-68 °C"
    }
}