{
    "cas_no": "13290-96-5",
    "key_name": "Dimethyl 5-nitroisophthalate",
    "cn_name": "5-硝基间苯二甲酸二甲酯;5-硝基异酞酸二甲酯;",
    "alternate_name": "1,3-Benzenedicarboxylic acid, 5-nitro-, 1,3-dimethyl ester;Isophthalic acid, 5-nitro-, dimethyl ester;1,3-Benzenedicarboxylic acid, 5-nitro-, dimethyl ester;Dimethyl 5-nitroisophthalate;5-Nitroisophthalic acid dimethyl ester;Dimethyl 5-nitrobenzene-1,3-dicarboxylate;5-Nitrobenzene-1,3-dicarboxylic acid dimethyl ester;NSC 93786",
    "duplicated_cas_no": "",
    "SMILES": "C(OC)(=O)C1=CC(C(OC)=O)=CC(N(=O)=O)=C1",
    "meta_data": {
        "InChI": "InChI=1S/C10H9NO6/c1-16-9(12)6-3-7(10(13)17-2)5-8(4-6)11(14)15/h3-5H,1-2H3",
        "InChIKey": null,
        "Canonical SMILES": "O=C(OC)C=1C=C(C=C(C1)N(=O)=O)C(=O)OC",
        "Molecular Formula": "C<sub>10</sub>H<sub>9</sub>NO<sub>6</sub>",
        "Molecular Mass": "239.18",
        "Melting Point": "118-121 °C"
    }
}