{
    "cas_no": "1590-87-0",
    "key_name": "Disilane",
    "cn_name": null,
    "alternate_name": "Disilane;Disilicane;Disilicoethane;Disilicon hexahydride;Silicoethane;Disilane (Si<sub>2</sub>H<sub>6</sub>);Silicon hydride (Si<sub>2</sub>H<sub>6</sub>)",
    "duplicated_cas_no": "",
    "SMILES": "[SiH3][SiH3]",
    "meta_data": {
        "InChI": "InChI=1S/H6Si2/c1-2/h1-2H3",
        "InChIKey": null,
        "Canonical SMILES": "[SiH3][SiH3]",
        "Molecular Formula": "H<sub>6</sub>Si<sub>2</sub>",
        "Molecular Mass": "62.22",
        "Boiling Point": "-14.5 °C",
        "Melting Point": "-132 °C",
        "Density": "0.686 g/cm³ @ Temp: -25 °C"
    }
}