{
    "cas_no": "14002-51-8",
    "key_name": "[1,1′-Biphenyl]-4-carbonyl chloride",
    "cn_name": "联苯-4-甲酰氯;4-联苯基甲酰氯;",
    "alternate_name": "[1,1′-Biphenyl]-4-carbonyl chloride;4-Biphenylcarbonyl chloride;4-Phenylbenzoyl chloride;Diphenyl-4-carboxylic acid chloride;<em>p</em>-Phenylbenzoyl chloride;<em>p</em>-Biphenylcarbonyl chloride;4-Biphenylylformyl chloride;4-(Phen-4-yl)benzoyl chloride",
    "duplicated_cas_no": "",
    "SMILES": "C(Cl)(=O)C1=CC=C(C=C1)C2=CC=CC=C2",
    "meta_data": {
        "InChI": "InChI=1S/C13H9ClO/c14-13(15)12-8-6-11(7-9-12)10-4-2-1-3-5-10/h1-9H",
        "InChIKey": null,
        "Canonical SMILES": "O=C(Cl)C=1C=CC(=CC1)C=2C=CC=CC2",
        "Molecular Formula": "C<sub>13</sub>H<sub>9</sub>ClO",
        "Molecular Mass": "216.66",
        "Melting Point": "113 °C"
    }
}