{
    "cas_no": "146-22-5",
    "key_name": "Nitrazepam",
    "cn_name": "硝西泮;5-苯基-7-硝基-1,3-二氢-2H-1,4-苯并二氮卓-2-酮;",
    "alternate_name": "2<em>H</em>-1,4-Benzodiazepin-2-one, 1,3-dihydro-7-nitro-5-phenyl-;1,3-Dihydro-7-nitro-5-phenyl-2<em>H</em>-1,4-benzodiazepin-2-one;LA 1;Ro 4-5360;Ro 5-3059;Mogadon;Mogadone;Nitrazepam;7-Nitro-5-phenyl-2,3-dihydro-1<em>H</em>-1,4-benzodiazepin-2-one;Benzalin;Eunoctin;1,3-Dihydro-7-nitro-5-phenyl-2<em>H</em>-1,4-benzodiazepine-2-one;7-Nitro-5-phenyl-1,3-dihydro-2<em>H</em>-1,4-benzodiazepin-2-one;2,3-Dihydro-7-nitro-5-phenyl-1<em>H</em>-1,4-benzodiazepin-2-one;Mogadan;Epibenzalin;Epinelbon;Hipnax;Hipsal;Sonebon;Neozepam;Radedorm;Somitran;Paxisyn;Pelson;Sonnolin;Calsmin;Megadon;Nelbon;Nitrenpax;Relact;Nitravet;Dormicum;Dormin 5;<em>N</em>-Desmethylnimetazepam;Dormicum (anticonvulsant);Remnos;Nitrados;Ipersed;Insomin;Somnased;Eatan;Surem;NSC 58775;Noctesed;Somnibel;Somnite;Neuchlonic;Unisomnia;Imeson;Xiaoxipan;Nitrosun;Nipam;7-Nitro-5-phenyl-1<em>H</em>-1,4-benzodiazepin-2(3<em>H</em>)-one;MeSH ID: D009567",
    "duplicated_cas_no": "",
    "SMILES": "N(=O)(=O)C=1C=C2C(=NCC(=O)NC2=CC1)C3=CC=CC=C3",
    "meta_data": {
        "InChI": "InChI=1S/C15H11N3O3/c19-14-9-16-15(10-4-2-1-3-5-10)12-8-11(18(20)21)6-7-13(12)17-14/h1-8H,9H2,(H,17,19)",
        "InChIKey": null,
        "Canonical SMILES": "O=C1NC=2C=CC(=CC2C(=NC1)C=3C=CC=CC3)N(=O)=O",
        "Molecular Formula": "C<sub>15</sub>H<sub>11</sub>N<sub>3</sub>O<sub>3</sub>",
        "Molecular Mass": "281.27",
        "Melting Point": "225 °C"
    }
}