{
    "cas_no": "13252-14-7",
    "key_name": "2,3,3,3-Tetrafluoro-2-[1,1,2,3,3,3-hexafluoro-2-(1,1,2,2,3,3,3-heptafluoropropoxy)propoxy]propanoic acid",
    "cn_name": "全氟-2,5-二甲基-3,6-二氧杂壬酸;",
    "alternate_name": "Propanoic acid, 2,3,3,3-tetrafluoro-2-[1,1,2,3,3,3-hexafluoro-2-(1,1,2,2,3,3,3-heptafluoropropoxy)propoxy]-;Propionic acid, 2,3,3,3-tetrafluoro-2-[1,1,2,3,3,3-hexafluoro-2-(heptafluoropropoxy)propoxy]-;Propanoic acid, 2,3,3,3-tetrafluoro-2-[1,1,2,3,3,3-hexafluoro-2-(heptafluoropropoxy)propoxy]-;2,3,3,3-Tetrafluoro-2-[1,1,2,3,3,3-hexafluoro-2-(1,1,2,2,3,3,3-heptafluoropropoxy)propoxy]propanoic acid;X 70-540-3;2,3,3,3-Tetrafluoro-2-[1,1,2,3,3,3-hexafluoro-2-(1,1,2,2,3,3,3-heptafluoropropoxy)propoxy]-1-propanoic acid;Perfluoro-2,5-dimethyl-3,6-dioxa-nonanoic acid",
    "duplicated_cas_no": "",
    "SMILES": "C(C(OC(C(F)(F)F)(C(O)=O)F)(F)F)(OC(C(C(F)(F)F)(F)F)(F)F)(C(F)(F)F)F",
    "meta_data": {
        "InChI": "InChI=1S/C9HF17O4/c10-2(1(27)28,5(14,15)16)29-9(25,26)4(13,7(20,21)22)30-8(23,24)3(11,12)6(17,18)19/h(H,27,28)",
        "InChIKey": null,
        "Canonical SMILES": "O=C(O)C(F)(OC(F)(F)C(F)(OC(F)(F)C(F)(F)C(F)(F)F)C(F)(F)F)C(F)(F)F",
        "Molecular Formula": "C<sub>9</sub>HF<sub>17</sub>O<sub>4</sub>",
        "Molecular Mass": "496.07",
        "Boiling Point": "80 °C @ Press: 3 mmHg"
    }
}