{
    "cas_no": "4418-61-5",
    "key_name": "Aminotetrazole",
    "cn_name": "5-氨基四氮唑;",
    "alternate_name": "2<em>H</em>-Tetrazol-5-amine;1<em>H</em>-Tetrazole, 5-amino-;1<em>H</em>-Tetrazol-5-amine;Tetrazole, 5-amino-;1,2,3,4-Tetrazole, 5-amino-;Aminotetrazole;5-Aminotetrazole;5-Amino-1<em>H</em>-tetrazole;5-Amino-1,2,3,4-tetrazole;Thiolite HAT 1;1<em>H</em>-Tetrazol-5-ylamine;NSC 3004;5-Amino-2<em>H</em>-tetrazole;B 6030;HAT;Tetrazol-5-amine;1<em>H</em>-1,2,3,4-Tetrazol-5-amine;1<em>H</em>-Tetraazol-5-amine;Tetrazolamine",
    "duplicated_cas_no": "29212-86-0;29212-87-1;76720-24-6;144914-14-7;167101-82-8;174423-13-3;174423-14-4;688301-53-3;1071928-45-4",
    "SMILES": "NC=1NN=NN1",
    "meta_data": {
        "InChI": "InChI=1S/CH3N5/c2-1-3-5-6-4-1/h(H3,2,3,4,5,6)",
        "InChIKey": null,
        "Canonical SMILES": "N1=NNC(=N1)N",
        "Molecular Formula": "CH<sub>3</sub>N<sub>5</sub>",
        "Molecular Mass": "85.07",
        "Melting Point": "202 °C (decomp)",
        "Density": "1.50 g/cm³"
    }
}