{
    "cas_no": "21810-34-4",
    "key_name": "Hexanoic acid, 6-hydroxy-, potassium salt (1:1)",
    "cn_name": null,
    "alternate_name": "Hexanoic acid, 6-hydroxy-, potassium salt (1:1);Hexanoic acid, 6-hydroxy-, monopotassium salt;Potassium 6-Hydroxyhexanoic acid",
    "duplicated_cas_no": "",
    "SMILES": "C(CC(O)=O)CCCO.[K]",
    "meta_data": {
        "InChI": "InChI=1S/C6H12O3.K/c7-5-3-1-2-4-6(8)9;/h7H,1-5H2,(H,8,9);",
        "InChIKey": null,
        "Canonical SMILES": "[K].O=C(O)CCCCCO",
        "Molecular Formula": "C<sub>6</sub>H<sub>12</sub>O<sub>3</sub>.K",
        "Molecular Mass": "",
        "Melting Point": "203-205 °C"
    }
}