{
    "cas_no": "14010-23-2",
    "key_name": "Ethyl heptadecanoate",
    "cn_name": "十七酸乙酯;十七烷酸乙酯;珠光脂酸乙酯;十七碳酸乙酯;",
    "alternate_name": "Heptadecanoic acid, ethyl ester;Ethyl heptadecanoate;Ethyl <em>n</em>-heptadecanoate;Ethyl margarate;NSC 137831;Margaric acid ethyl ester",
    "duplicated_cas_no": "",
    "SMILES": "C(CCCCCCCCCCCCCC)CC(OCC)=O",
    "meta_data": {
        "InChI": "InChI=1S/C19H38O2/c1-3-5-6-7-8-9-10-11-12-13-14-15-16-17-18-19(20)21-4-2/h3-18H2,1-2H3",
        "InChIKey": null,
        "Canonical SMILES": "O=C(OCC)CCCCCCCCCCCCCCCC",
        "Molecular Formula": "C<sub>19</sub>H<sub>38</sub>O<sub>2</sub>",
        "Molecular Mass": "298.50",
        "Melting Point": "28 °C"
    }
}