{
    "cas_no": "3035-94-7",
    "key_name": "4-[2-(4-Bromophenyl)diazenyl]phenol",
    "cn_name": null,
    "alternate_name": "Phenol, 4-[2-(4-bromophenyl)diazenyl]-;Phenol, <em>p</em>-[(<em>p</em>-bromophenyl)azo]-;Phenol, 4-[(4-bromophenyl)azo]-;4-[2-(4-Bromophenyl)diazenyl]phenol;4-Bromo-4′-hydroxyazobenzene;4-(<em>p</em>-Bromophenylazo)phenol",
    "duplicated_cas_no": "",
    "SMILES": "N(=NC1=CC=C(O)C=C1)C2=CC=C(Br)C=C2",
    "meta_data": {
        "InChI": "InChI=1S/C12H9BrN2O/c13-9-1-3-10(4-2-9)14-15-11-5-7-12(16)8-6-11/h1-8,16H",
        "InChIKey": null,
        "Canonical SMILES": "BrC1=CC=C(N=NC2=CC=C(O)C=C2)C=C1",
        "Molecular Formula": "C<sub>12</sub>H<sub>9</sub>BrN<sub>2</sub>O",
        "Molecular Mass": "277.12",
        "Melting Point": "156 °C"
    }
}