{
    "cas_no": "22398-80-7",
    "key_name": "Indium phosphide",
    "cn_name": "磷化铟;磷化铟晶体INP;",
    "alternate_name": "Indium phosphide (InP);Indium monophosphide;Indium phosphide;Indium alloy, base, In 79,P 21,Ga 0.1;Phosphorus alloy, nonbase, In 79,P 21,Ga 0.1",
    "duplicated_cas_no": "1312-40-9;99658-38-5;120865-27-2;312691-22-8;664330-95-4;1018852-66-8;2168551-95-7;2395838-81-8",
    "SMILES": "[In]#P",
    "meta_data": {
        "InChI": "InChI=1S/In.P",
        "InChIKey": null,
        "Canonical SMILES": "P#[In]",
        "Molecular Formula": "InP",
        "Molecular Mass": "",
        "Melting Point": "1070 °C",
        "Density": "4.81 g/cm³"
    }
}