{
    "cas_no": "2067-33-6",
    "key_name": "5-Bromopentanoic acid",
    "cn_name": "5-溴戊酸;",
    "alternate_name": "Pentanoic acid, 5-bromo-;Valeric acid, 5-bromo-;5-Bromopentanoic acid;δ-Bromovaleric acid;5-Bromovaleric acid;1-Bromo-4-carboxybutane;NSC 53507;5-Bromo-1-pentanoic acid",
    "duplicated_cas_no": "",
    "SMILES": "C(CCCBr)C(O)=O",
    "meta_data": {
        "InChI": "InChI=1S/C5H9BrO2/c6-4-2-1-3-5(7)8/h1-4H2,(H,7,8)",
        "InChIKey": null,
        "Canonical SMILES": "O=C(O)CCCCBr",
        "Molecular Formula": "C<sub>5</sub>H<sub>9</sub>BrO<sub>2</sub>",
        "Molecular Mass": "181.03",
        "Boiling Point": "142-145 °C @ Press: 15 Torr",
        "Melting Point": "38-40 °C"
    }
}