{
    "cas_no": "16523-54-9",
    "key_name": "Chlorodicyclohexylphosphine",
    "cn_name": null,
    "alternate_name": "Phosphinous chloride, <em>P</em>,<em>P</em>-dicyclohexyl-;Phosphinous chloride, dicyclohexyl-;<em>P</em>,<em>P</em>-Dicyclohexylphosphinous chloride;Chlorodicyclohexylphosphine;Dicyclohexylchlorophosphine;Dicyclohexylphosphinous chloride;Dicyclohexylphosphorus chloride;Dicyclohexylphosphine chloride",
    "duplicated_cas_no": "",
    "SMILES": "P(Cl)(C1CCCCC1)C2CCCCC2",
    "meta_data": {
        "InChI": "InChI=1S/C12H22ClP/c13-14(11-7-3-1-4-8-11)12-9-5-2-6-10-12/h11-12H,1-10H2",
        "InChIKey": null,
        "Canonical SMILES": "ClP(C1CCCCC1)C2CCCCC2",
        "Molecular Formula": "C<sub>12</sub>H<sub>22</sub>ClP",
        "Molecular Mass": "232.73",
        "Boiling Point": "182-183 °C @ Press: 23 Torr",
        "Melting Point": "126-128 °C",
        "Density": "1.0923 g/cm³ @ Temp: 20 °C"
    }
}