{
    "cas_no": "7158-32-9",
    "key_name": "4,4′-Oxydibenzoyl chloride",
    "cn_name": "4,4\"-二酰氯二苯醚;",
    "alternate_name": "Benzoyl chloride, 4,4′-oxybis-;Benzoyl chloride, 4,4′-oxydi-;4,4′-Oxybis[benzoyl chloride];Oxydi-<em>p</em>-phenylenedicarbonyl chloride;4,4′-Oxydibenzoyl chloride;Diphenyl oxide 4,4′-dicarbonyl chloride;4-(Chlorocarbonyl)phenyl ether;4,4′-Oxybisbenzoyl chloride;<em>p</em>-(Chlorocarbonyl)phenyl oxide;4,4′-Di(chloroformyl)diphenyl oxide;4,4′-Bis(chlorocarbonyl)diphenyl ether;Diphenyl ether 4,4′-dicarbonyl dichloride;4,4′-Diphenyl ether dicarboxylic acid dichloride;4,4′-Oxybisbenzoic acid dichloride;4,4′-Oxybisbenzoic dichloride;4,4′-Dicarboxydiphenyl ether dichloride;Diphenyl ether-4,4′-dicarboxylic chloride;Benzoic acid dichloride;4,4′-Diphenyl ether dicarboxylic acid chloride",
    "duplicated_cas_no": "",
    "SMILES": "O(C1=CC=C(C(Cl)=O)C=C1)C2=CC=C(C(Cl)=O)C=C2",
    "meta_data": {
        "InChI": "InChI=1S/C14H8Cl2O3/c15-13(17)9-1-5-11(6-2-9)19-12-7-3-10(4-8-12)14(16)18/h1-8H",
        "InChIKey": null,
        "Canonical SMILES": "O=C(Cl)C1=CC=C(OC2=CC=C(C=C2)C(=O)Cl)C=C1",
        "Molecular Formula": "C<sub>14</sub>H<sub>8</sub>Cl<sub>2</sub>O<sub>3</sub>",
        "Molecular Mass": "295.12",
        "Boiling Point": "186-187 °C @ Press: 14 Torr",
        "Melting Point": "22-23 °C"
    }
}