{
    "cas_no": "14259-46-2",
    "key_name": "Narirutin",
    "cn_name": null,
    "alternate_name": "4<em>H</em>-1-Benzopyran-4-one, 7-[[6-<em>O</em>-(6-deoxy-α-<span class=\"text-smallcaps\">L</smallcap>-mannopyranosyl)-β-<smallcap>D</span>-glucopyranosyl]oxy]-2,3-dihydro-5-hydroxy-2-(4-hydroxyphenyl)-, (2<em>S</em>)-;Narirutin;4<em>H</em>-1-Benzopyran-4-one, 7-[[6-<em>O</em>-(6-deoxy-α-<span class=\"text-smallcaps\">L</smallcap>-mannopyranosyl)-β-<smallcap>D</span>-glucopyranosyl]oxy]-2,3-dihydro-5-hydroxy-2-(4-hydroxyphenyl)-, (<em>S</em>)-;Flavanone, 4′,5,7-trihydroxy-, 7β-rutinoside;(2<em>S</em>)-7-[[6-<em>O</em>-(6-Deoxy-α-<span class=\"text-smallcaps\">L</smallcap>-mannopyranosyl)-β-<smallcap>D</span>-glucopyranosyl]oxy]-2,3-dihydro-5-hydroxy-2-(4-hydroxyphenyl)-4<em>H</em>-1-benzopyran-4-one;Naringenin 7-rutinoside;Isonaringenin;Isonaringin;Naringenin 7β-rutinoside;(2<em>S</em>)-Narirutin;Naringenin 7-<em>O</em>-rutinoside",
    "duplicated_cas_no": "4493-40-7;26264-36-8;32737-62-5",
    "SMILES": "O=C1C=2C(O[C@@H](C1)C3=CC=C(O)C=C3)=CC(O[C@@H]4O[C@H](CO[C@H]5[C@H](O)[C@H](O)[C@@H](O)[C@H](C)O5)[C@@H](O)[C@H](O)[C@H]4O)=CC2O",
    "meta_data": {
        "InChI": "InChI=1S/C27H32O14/c1-10-20(31)22(33)24(35)26(38-10)37-9-18-21(32)23(34)25(36)27(41-18)39-13-6-14(29)19-15(30)8-16(40-17(19)7-13)11-2-4-12(28)5-3-11/h2-7,10,16,18,20-29,31-36H,8-9H2,1H3/t10-,16-,18+,20-,21+,22+,23-,24+,25+,26+,27+/m0/s1",
        "InChIKey": null,
        "Canonical SMILES": "O=C1C2=C(O)C=C(OC3OC(COC4OC(C)C(O)C(O)C4O)C(O)C(O)C3O)C=C2OC(C5=CC=C(O)C=C5)C1",
        "Molecular Formula": "C<sub>27</sub>H<sub>32</sub>O<sub>14</sub>",
        "Molecular Mass": "580.53",
        "Melting Point": "180 °C"
    }
}