{
    "cas_no": "16091-26-2",
    "key_name": "<em>N</em>-(3-Aminophenyl)benzamide",
    "cn_name": "N-(3-氨基苯基)苯甲酰胺;N-(间氨基苯基)苯甲酰胺;",
    "alternate_name": "Benzamide, <em>N</em>-(3-aminophenyl)-;Benzanilide, 3′-amino-;<em>N</em>-(3-Aminophenyl)benzamide;3-Benzamidoaniline;3′-Aminobenzanilide;<em>m</em>-(Benzoylamino)aniline;<em>N</em>-Benzoyl-<em>m</em>-phenylenediamine;3-(Benzoylamino)aniline",
    "duplicated_cas_no": "",
    "SMILES": "C(NC1=CC(N)=CC=C1)(=O)C2=CC=CC=C2",
    "meta_data": {
        "InChI": "InChI=1S/C13H12N2O/c14-11-7-4-8-12(9-11)15-13(16)10-5-2-1-3-6-10/h1-9H,14H2,(H,15,16)",
        "InChIKey": null,
        "Canonical SMILES": "O=C(NC=1C=CC=C(N)C1)C=2C=CC=CC2",
        "Molecular Formula": "C<sub>13</sub>H<sub>12</sub>N<sub>2</sub>O",
        "Molecular Mass": "212.25",
        "Melting Point": "123 °C"
    }
}