{
    "cas_no": "5382-16-1",
    "key_name": "4-Hydroxypiperidine",
    "cn_name": "4-羟基哌啶;4-哌啶醇;",
    "alternate_name": "4-Piperidinol;4-Hydroxypiperidine;4-Hydroxyhexahydropyridine;4-Piperidinol, (±)-;NSC 62083",
    "duplicated_cas_no": "131269-40-4",
    "SMILES": "OC1CCNCC1",
    "meta_data": {
        "InChI": "InChI=1S/C5H11NO/c7-5-1-3-6-4-2-5/h5-7H,1-4H2",
        "InChIKey": null,
        "Canonical SMILES": "OC1CCNCC1",
        "Molecular Formula": "C<sub>5</sub>H<sub>11</sub>NO",
        "Molecular Mass": "101.15",
        "Boiling Point": "211-212 °C @ Press: 745 Torr",
        "Melting Point": "86 °C"
    }
}