{
    "cas_no": "23284-18-6",
    "key_name": "Peltatoside",
    "cn_name": null,
    "alternate_name": "4<em>H</em>-1-Benzopyran-4-one, 3-[(6-<em>O</em>-α-<span class=\"text-smallcaps\">L</smallcap>-arabinopyranosyl-β-<smallcap>D</span>-glucopyranosyl)oxy]-2-(3,4-dihydroxyphenyl)-5,7-dihydroxy-;Flavone, 3,3′,4′,5,7-pentahydroxy-, 3-(6-<em>O</em>-α-<span class=\"text-smallcaps\">L</smallcap>-arabinopyranosyl-β-<smallcap>D</span>-glucopyranoside);3-[(6-<em>O</em>-α-<span class=\"text-smallcaps\">L</smallcap>-Arabinopyranosyl-β-<smallcap>D</span>-glucopyranosyl)oxy]-2-(3,4-dihydroxyphenyl)-5,7-dihydroxy-4<em>H</em>-1-benzopyran-4-one;Peltatoside;3-Arabinoglucosylquercetin;Quercetin 3-vicianoside;Quercetin 3-<em>O</em>-α-arabinopyranosyl-(1→6)-β-glucopyranoside;Quercetin 3-<em>O</em>-vicianoside",
    "duplicated_cas_no": "862251-59-0",
    "SMILES": "O(C1=C(OC=2C(C1=O)=C(O)C=C(O)C2)C3=CC(O)=C(O)C=C3)[C@@H]4O[C@H](CO[C@H]5[C@H](O)[C@@H](O)[C@@H](O)CO5)[C@@H](O)[C@H](O)[C@H]4O",
    "meta_data": {
        "InChI": "InChI=1S/C26H28O16/c27-9-4-12(30)16-14(5-9)40-23(8-1-2-10(28)11(29)3-8)24(19(16)34)42-26-22(37)20(35)18(33)15(41-26)7-39-25-21(36)17(32)13(31)6-38-25/h1-5,13,15,17-18,20-22,25-33,35-37H,6-7H2/t13-,15+,17-,18+,20-,21+,22+,25-,26-/m0/s1",
        "InChIKey": null,
        "Canonical SMILES": "O=C1C(OC2OC(COC3OCC(O)C(O)C3O)C(O)C(O)C2O)=C(OC=4C=C(O)C=C(O)C14)C=5C=CC(O)=C(O)C5",
        "Molecular Formula": "C<sub>26</sub>H<sub>28</sub>O<sub>16</sub>",
        "Molecular Mass": "596.49",
        "Melting Point": "210 °C"
    }
}