{
    "cas_no": "120-88-7",
    "key_name": "<em>N</em><sup>1</sup>,<em>N</em><sup>2</sup>-Didodecylethanedithioamide",
    "cn_name": "双十二烷基二硫代乙二酰胺;双十二烷基二硫代乙二酰胺;",
    "alternate_name": "Ethanedithioamide, <em>N</em><sup>1</sup>,<em>N</em><sup>2</sup>-didodecyl-;Oxamide, <em>N</em>,<em>N</em>′-didodecyldithio-;Ethanedithioamide, <em>N</em>,<em>N</em>′-didodecyl-;<em>N</em><sup>1</sup>,<em>N</em><sup>2</sup>-Didodecylethanedithioamide;<em>N</em>,<em>N</em>′-Didodecyldithiooxamide;<em>N</em>,<em>N</em>′-Bis(dodecyl)dithiooxamide;<em>N</em>,<em>N</em>′-Didodecyldithioxamide;<em>N</em>,<em>N</em>′-Didodecylethanedithioamide;NSC 44699",
    "duplicated_cas_no": "",
    "SMILES": "C(C(NCCCCCCCCCCCC)=S)(NCCCCCCCCCCCC)=S",
    "meta_data": {
        "InChI": "InChI=1S/C26H52N2S2/c1-3-5-7-9-11-13-15-17-19-21-23-27-25(29)26(30)28-24-22-20-18-16-14-12-10-8-6-4-2/h3-24H2,1-2H3,(H,27,29)(H,28,30)",
        "InChIKey": null,
        "Canonical SMILES": "S=C(NCCCCCCCCCCCC)C(=S)NCCCCCCCCCCCC",
        "Molecular Formula": "C<sub>26</sub>H<sub>52</sub>N<sub>2</sub>S<sub>2</sub>",
        "Molecular Mass": "456.83",
        "Melting Point": "52-53 °C"
    }
}