{
    "cas_no": "5157-75-5",
    "key_name": "Octadecylmethyldichlorosilane",
    "cn_name": "甲基十八烷基二氯化硅烷;",
    "alternate_name": "Silane, dichloromethyloctadecyl-;Dichloromethyloctadecylsilane;Stearylmethyldichlorosilane;Methyloctadecyldichlorosilane;Octadecyldichloromethylsilane;Octadecylmethyldichlorosilane;NSC 96645;Dichloromethylstearylsilane",
    "duplicated_cas_no": "",
    "SMILES": "C(CCCCCCCCCCCCCCC)CC[Si](C)(Cl)Cl",
    "meta_data": {
        "InChI": "InChI=1S/C19H40Cl2Si/c1-3-4-5-6-7-8-9-10-11-12-13-14-15-16-17-18-19-22(2,20)21/h3-19H2,1-2H3",
        "InChIKey": null,
        "Canonical SMILES": "Cl[Si](Cl)(C)CCCCCCCCCCCCCCCCCC",
        "Molecular Formula": "C<sub>19</sub>H<sub>40</sub>Cl<sub>2</sub>Si",
        "Molecular Mass": "367.51",
        "Boiling Point": "185 °C @ Press: 2.5 Torr",
        "Melting Point": "24-26 °C",
        "Density": "0.930 g/cm³"
    }
}