{
    "cas_no": "930-37-0",
    "key_name": "Methyl glycidyl ether",
    "cn_name": "2,3-环氧丙烷甲基醚;(甲氧基甲基)环氧乙烷;甲基缩水甘油醚;",
    "alternate_name": "Oxirane, 2-(methoxymethyl)-;Propane, 1,2-epoxy-3-methoxy-;Oxirane, (methoxymethyl)-;2-(Methoxymethyl)oxirane;Methyl glycidyl ether;Glycidyl methyl ether;Glycidol methyl ether;1,2-Epoxy-3-methoxypropane;3-Methoxypropylene oxide;3-Methoxy-1,2-epoxypropane;Denacol EX 131;Epiol M;(Methoxymethyl)oxirane;(±)-Glycidyl methyl ether;NSC 86950;2,3-Epoxypropyl methyl ether;(Rac) glycidyl methyl ether",
    "duplicated_cas_no": "126872-18-2",
    "SMILES": "C(OC)C1CO1",
    "meta_data": {
        "InChI": "InChI=1S/C4H8O2/c1-5-2-4-3-6-4/h4H,2-3H2,1H3",
        "InChIKey": null,
        "Canonical SMILES": "O(C)CC1OC1",
        "Molecular Formula": "C<sub>4</sub>H<sub>8</sub>O<sub>2</sub>",
        "Molecular Mass": "88.11",
        "Boiling Point": "113 °C",
        "Density": "0.9798 g/cm³ @ Temp: 25 °C"
    }
}