{
    "cas_no": "10024-93-8",
    "key_name": "Neodymium trichloride",
    "cn_name": "氯化钕;",
    "alternate_name": "Neodymium chloride (NdCl<sub>3</sub>);Neodymium trichloride;Neodymium chloride;Neodymium(3+) chloride;Neodymium(III) chloride;NSC 174325",
    "duplicated_cas_no": "",
    "SMILES": "[Nd](Cl)(Cl)Cl",
    "meta_data": {
        "InChI": "InChI=1S/3ClH.Nd/h3*1H;/q;;;+3/p-3",
        "InChIKey": null,
        "Canonical SMILES": "Cl[Nd](Cl)Cl",
        "Molecular Formula": "Cl<sub>3</sub>Nd",
        "Molecular Mass": "",
        "Melting Point": "784 °C"
    }
}