{
    "cas_no": "488-48-2",
    "key_name": "Bromanil",
    "cn_name": "四溴对苯醌;",
    "alternate_name": "2,5-Cyclohexadiene-1,4-dione, 2,3,5,6-tetrabromo-;<em>p</em>-Benzoquinone, 2,3,5,6-tetrabromo-;<em>p</em>-Benzoquinone, tetrabromo-;Quinone, tetrabromo-;2,3,5,6-Tetrabromo-2,5-cyclohexadiene-1,4-dione;Bromanil;<em>p</em>-Bromanil;Tetrabromo-<em>p</em>-benzoquinone;Tetrabromoquinone;Tetrabromo-1,4-benzoquinone;2,3,5,6-Tetrabromo-1,4-benzoquinone;2,3,5,6-Tetrabromo-<em>p</em>-benzoquinone;Tetrabromo-<em>p</em>-quinone;Tetrabromobenzoquinone;<em>p</em>-Bromoanil;3,4,5,6-Tetrabromocyclohexadiene-1,2-dione;NSC 36927",
    "duplicated_cas_no": "",
    "SMILES": "BrC1=C(Br)C(=O)C(Br)=C(Br)C1=O",
    "meta_data": {
        "InChI": "InChI=1S/C6Br4O2/c7-1-2(8)6(12)4(10)3(9)5(1)11",
        "InChIKey": null,
        "Canonical SMILES": "O=C1C(Br)=C(Br)C(=O)C(Br)=C1Br",
        "Molecular Formula": "C<sub>6</sub>Br<sub>4</sub>O<sub>2</sub>",
        "Molecular Mass": "423.68",
        "Melting Point": "300 °C"
    }
}