{
    "cas_no": "126-58-9",
    "key_name": "Dipentaerythritol",
    "cn_name": "双季戊四醇;",
    "alternate_name": "1,3-Propanediol, 2,2′-[oxybis(methylene)]bis[2-(hydroxymethyl)-;Dipentaerythritol;2,2′-[Oxybis(methylene)]bis[2-(hydroxymethyl)-1,3-propanediol];Bis(pentaerythritol);Dipentek;Dipentalide;Dipentarit SP;Di-Pentarit 300;NSC 65881;Di-Pentarit;Charmor DP 15;Charmor DP 40;Di-Penta 93;2,2,6,6-Tetrakis(hydroxymethyl)-4-oxaheptane-1,7-diol;Neulizer N;Holtac D;LK 48952;DPER-HY;D 806414;2,2′-(Oxybis(methylene))bis(2-(hydroxymethyl)propane-1,3-diol);Dipenta 85;Dipenta 90;2,2,2′,2′-Tetrakis(hydroxymethyl)-3,3′-oxydipropan-1-ol;2-[[3-Hydroxy-2,2-bis(hydroxymethyl)propoxy]methyl]-2-(hydroxymethyl)propane-1,3-diol;DPER AR;JLS Dipenta;Voxtar D 40;HWG 18565",
    "duplicated_cas_no": "106496-91-7;110369-41-0;115986-73-7;165075-04-7",
    "SMILES": "C(COCC(CO)(CO)CO)(CO)(CO)CO",
    "meta_data": {
        "InChI": "InChI=1S/C10H22O7/c11-1-9(2-12,3-13)7-17-8-10(4-14,5-15)6-16/h11-16H,1-8H2",
        "InChIKey": null,
        "Canonical SMILES": "OCC(CO)(CO)COCC(CO)(CO)CO",
        "Molecular Formula": "C<sub>10</sub>H<sub>22</sub>O<sub>7</sub>",
        "Molecular Mass": "254.28",
        "Melting Point": "212-220 °C",
        "Density": "1.33 g/cm³ @ Temp: 25 °C"
    }
}