{
    "cas_no": "22065-85-6",
    "key_name": "1-(Phenylmethyl)-4-piperidinecarboxaldehyde",
    "cn_name": "1-苄基-4-哌啶甲醛;",
    "alternate_name": "4-Piperidinecarboxaldehyde, 1-(phenylmethyl)-;Isonipecotaldehyde, 1-benzyl-;1-(Phenylmethyl)-4-piperidinecarboxaldehyde;1-Benzyl-4-formylpiperidine;4-Formyl-1-benzylpiperidine;1-Benzyl-4-piperidinecarboxaldehyde;<em>N</em>-Benzyl-4-piperidinecarbaldehyde;<em>N</em>-(Phenylmethyl)piperidine-4-carboxaldehyde;4-Formyl-1-(phenylmethyl)piperidine;<em>N</em>-Benzyl-4-formylpiperidine;1-Benzyl-piperidine-4-carbaldehyde;1-Benzylpiperidine-4-carbaldehyde;<em>N</em>-Benzylpiperidine-4-carboxaldehyde",
    "duplicated_cas_no": "",
    "SMILES": "C(N1CCC(C=O)CC1)C2=CC=CC=C2",
    "meta_data": {
        "InChI": "InChI=1S/C13H17NO/c15-11-13-6-8-14(9-7-13)10-12-4-2-1-3-5-12/h1-5,11,13H,6-10H2",
        "InChIKey": null,
        "Canonical SMILES": "O=CC1CCN(CC=2C=CC=CC2)CC1",
        "Molecular Formula": "C<sub>13</sub>H<sub>17</sub>NO",
        "Molecular Mass": "203.28",
        "Melting Point": "145-149 °C"
    }
}