{
    "cas_no": "420-12-2",
    "key_name": "Thiirane",
    "cn_name": "环硫乙烷;环硫乙烷;環硫乙烷;硫化伸乙基;噻丙烷;噻喃;",
    "alternate_name": "Thiirane;Ethylene sulfide;Thiacyclopropane;Thiirene, 2,3-dihydro-;Ethylene episulfide;NSC 89690",
    "duplicated_cas_no": "",
    "SMILES": "C1CS1",
    "meta_data": {
        "InChI": "InChI=1S/C2H4S/c1-2-3-1/h1-2H2",
        "InChIKey": null,
        "Canonical SMILES": "S1CC1",
        "Molecular Formula": "C<sub>2</sub>H<sub>4</sub>S",
        "Molecular Mass": "60.12",
        "Boiling Point": "55-56 °C",
        "Density": "1.0368 g/cm³ @ Temp: 0 °C"
    }
}