{
    "cas_no": "6306-39-4",
    "key_name": "1,2-Dichloro-4,5-dinitrobenzene",
    "cn_name": "1,2-二氯-4,5-二硝基苯;",
    "alternate_name": "Benzene, 1,2-dichloro-4,5-dinitro-;1,2-Dichloro-4,5-dinitrobenzene;4,5-Dichloro-1,2-dinitrobenzene;1,2-Dinitro-4,5-dichlorobenzene;NSC 22945",
    "duplicated_cas_no": "",
    "SMILES": "N(=O)(=O)C1=C(N(=O)=O)C=C(Cl)C(Cl)=C1",
    "meta_data": {
        "InChI": "InChI=1S/C6H2Cl2N2O4/c7-3-1-5(9(11)12)6(10(13)14)2-4(3)8/h1-2H",
        "InChIKey": null,
        "Canonical SMILES": "O=N(=O)C1=CC(Cl)=C(Cl)C=C1N(=O)=O",
        "Molecular Formula": "C<sub>6</sub>H<sub>2</sub>Cl<sub>2</sub>N<sub>2</sub>O<sub>4</sub>",
        "Molecular Mass": "237.00",
        "Melting Point": "109-110 °C"
    }
}