{
    "cas_no": "72626-61-0",
    "key_name": "4-Methylumbelliferyl β-cellobioside",
    "cn_name": "4-甲基伞形酮-β-D-纤维素二糖苷;",
    "alternate_name": "2<em>H</em>-1-Benzopyran-2-one, 7-[(4-<em>O</em>-β-<span class=\"text-smallcaps\">D</smallcap>-glucopyranosyl-β-<smallcap>D</span>-glucopyranosyl)oxy]-4-methyl-;Coumarin, 7-(β-cellobiosyloxy)-4-methyl-;7-[(4-<em>O</em>-β-<span class=\"text-smallcaps\">D</smallcap>-Glucopyranosyl-β-<smallcap>D</span>-glucopyranosyl)oxy]-4-methyl-2<em>H</em>-1-benzopyran-2-one;4-Methylumbelliferyl cellobiopyranoside;4-Methylumbelliferyl β-cellobioside",
    "duplicated_cas_no": "",
    "SMILES": "CC=1C=2C(=CC(O[C@@H]3O[C@H](CO)[C@@H](O[C@@H]4O[C@H](CO)[C@@H](O)[C@H](O)[C@H]4O)[C@H](O)[C@H]3O)=CC2)OC(=O)C1",
    "meta_data": {
        "InChI": "InChI=1S/C22H28O13/c1-8-4-14(25)32-11-5-9(2-3-10(8)11)31-21-19(30)17(28)20(13(7-24)34-21)35-22-18(29)16(27)15(26)12(6-23)33-22/h2-5,12-13,15-24,26-30H,6-7H2,1H3/t12-,13-,15-,16+,17-,18-,19-,20-,21-,22+/m1/s1",
        "InChIKey": null,
        "Canonical SMILES": "O=C1OC=2C=C(OC3OC(CO)C(OC4OC(CO)C(O)C(O)C4O)C(O)C3O)C=CC2C(=C1)C",
        "Molecular Formula": "C<sub>22</sub>H<sub>28</sub>O<sub>13</sub>",
        "Molecular Mass": "500.45",
        "Melting Point": "101-102 °C"
    }
}