{
    "cas_no": "87-79-6",
    "key_name": "<span class=\"text-smallcaps\">L</span>-(-)-Sorbose",
    "cn_name": "L-山梨糖;花楸糖;清凉茶糖;2-己烯基丁二酸酐;",
    "alternate_name": "<span class=\"text-smallcaps\">L</span>-Sorbose;Sorbose, <span class=\"text-smallcaps\">L</span>-;Sorbose;<span class=\"text-smallcaps\">L</span>-(-)-Sorbose;<span class=\"text-smallcaps\">L</span>-<em>xylo</em>-2-Hexulose;<span class=\"text-smallcaps\">L</span>-1,3,4,5,6-Pentahydroxyhexan-2-one;Esorben;<span class=\"text-smallcaps\">L</span>-Sorbinose;NSC 97195",
    "duplicated_cas_no": "10597-69-0;97806-30-9",
    "SMILES": "[C@H]([C@@H](C(CO)=O)O)([C@H](CO)O)O",
    "meta_data": {
        "InChI": "InChI=1S/C6H12O6/c7-1-3(9)5(11)6(12)4(10)2-8/h3,5-9,11-12H,1-2H2/t3-,5+,6+/m0/s1",
        "InChIKey": null,
        "Canonical SMILES": "O=C(CO)C(O)C(O)C(O)CO",
        "Molecular Formula": "C<sub>6</sub>H<sub>12</sub>O<sub>6</sub>",
        "Molecular Mass": "180.16",
        "Melting Point": "165 °C",
        "Density": "1.65 g/cm³ @ Temp: 15 °C"
    }
}