{
    "cas_no": "60758-86-3",
    "key_name": "3-Ethoxy-4-methoxybenzonitrile",
    "cn_name": null,
    "alternate_name": "Benzonitrile, 3-ethoxy-4-methoxy-;3-Ethoxy-4-methoxybenzonitrile",
    "duplicated_cas_no": "",
    "SMILES": "O(CC)C1=C(OC)C=CC(C#N)=C1",
    "meta_data": {
        "InChI": "InChI=1S/C10H11NO2/c1-3-13-10-6-8(7-11)4-5-9(10)12-2/h4-6H,3H2,1-2H3",
        "InChIKey": null,
        "Canonical SMILES": "N#CC1=CC=C(OC)C(OCC)=C1",
        "Molecular Formula": "C<sub>10</sub>H<sub>11</sub>NO<sub>2</sub>",
        "Molecular Mass": "177.20",
        "Melting Point": "70 °C"
    }
}