{
    "cas_no": "6320-02-1",
    "key_name": "2-Bromothiophenol",
    "cn_name": "邻溴苯硫酚;",
    "alternate_name": "Benzenethiol, 2-bromo-;Benzenethiol, <em>o</em>-bromo-;2-Bromobenzenethiol;<em>o</em>-Bromobenzenethiol;<em>o</em>-Bromothiophenol;2-Bromothiophenol;NSC 32016;2-Bromophenylthiol;2-Bromobenzene-1-thiol",
    "duplicated_cas_no": "",
    "SMILES": "BrC1=C(S)C=CC=C1",
    "meta_data": {
        "InChI": "InChI=1S/C6H5BrS/c7-5-3-1-2-4-6(5)8/h1-4,8H",
        "InChIKey": null,
        "Canonical SMILES": "BrC=1C=CC=CC1S",
        "Molecular Formula": "C<sub>6</sub>H<sub>5</sub>BrS",
        "Molecular Mass": "189.07",
        "Boiling Point": "95-96 °C @ Press: 11 Torr",
        "Melting Point": "220-222 °C"
    }
}