{
    "cas_no": "124-58-3",
    "key_name": "Methylarsonic acid",
    "cn_name": null,
    "alternate_name": "Arsonic acid, methyl-;Methanearsonic acid;Methylarsonic acid;MAA;Monomethylarsonic acid;NSC 71150;NSC 71151;NSC 71153;NSC 71154",
    "duplicated_cas_no": "",
    "SMILES": "[As](C)(=O)(O)O",
    "meta_data": {
        "InChI": "InChI=1S/CH5AsO3/c1-2(3,4)5/h1H3,(H2,3,4,5)",
        "InChIKey": null,
        "Canonical SMILES": "O=[As](O)(O)C",
        "Molecular Formula": "CH<sub>5</sub>AsO<sub>3</sub>",
        "Molecular Mass": "139.97",
        "Melting Point": "160.5 °C"
    }
}