{
    "cas_no": "102-52-3",
    "key_name": "Tetramethoxypropane",
    "cn_name": "1,1,3,3-四甲氧基丙烷;",
    "alternate_name": "Propane, 1,1,3,3-tetramethoxy-;Malonaldehyde, bis(dimethyl acetal);1,1,3,3-Tetramethoxypropane;Tetramethoxypropane;Malonaldehyde tetramethyl acetal;Malondialdehyde tetramethyl acetal;NSC 27794;1,1,3,3-Tetrakis(methyloxy)propane",
    "duplicated_cas_no": "",
    "SMILES": "C(CC(OC)OC)(OC)OC",
    "meta_data": {
        "InChI": "InChI=1S/C7H16O4/c1-8-6(9-2)5-7(10-3)11-4/h6-7H,5H2,1-4H3",
        "InChIKey": null,
        "Canonical SMILES": "O(C)C(OC)CC(OC)OC",
        "Molecular Formula": "C<sub>7</sub>H<sub>16</sub>O<sub>4</sub>",
        "Molecular Mass": "164.20",
        "Boiling Point": "183 °C",
        "Density": "0.9895 g/cm³ @ Temp: 20 °C"
    }
}