{
    "cas_no": "1245-15-4",
    "key_name": "5-Hydroxy-3,7,3′,4′-tetramethoxyflavone",
    "cn_name": "栎精-3,7,3,4-四甲醚;栎精-3,7,3,4-四甲醚;",
    "alternate_name": "4<em>H</em>-1-Benzopyran-4-one, 2-(3,4-dimethoxyphenyl)-5-hydroxy-3,7-dimethoxy-;Flavone, 5-hydroxy-3,3′,4′,7-tetramethoxy-;2-(3,4-Dimethoxyphenyl)-5-hydroxy-3,7-dimethoxy-4<em>H</em>-1-benzopyran-4-one;Retusin (Ariocarpus);Retusine;Quercetin 3,7,3′,4′-tetramethyl ether;Retusin;3,3′,4′,7-Tetramethylquercetin;5-Hydroxy-3,3′,4′,7-tetramethoxyflavone;5-Hydroxy-3,7,3′,4′-tetramethoxyflavone;NSC 61837;NSC 618937;Quercetin 3,3′,4′,7-<em>O</em>-tetramethyl ether;3,3′,4′,7-Tetra-<em>O</em>-methylquercetin;2-(3,4-Dimethoxyphenyl)-5-hydroxy-3,7-dimethoxy-4<em>H</em>-chromen-4-one",
    "duplicated_cas_no": "",
    "SMILES": "O(C)C1=C(OC=2C(C1=O)=C(O)C=C(OC)C2)C3=CC(OC)=C(OC)C=C3",
    "meta_data": {
        "InChI": "InChI=1S/C19H18O7/c1-22-11-8-12(20)16-15(9-11)26-18(19(25-4)17(16)21)10-5-6-13(23-2)14(7-10)24-3/h5-9,20H,1-4H3",
        "InChIKey": null,
        "Canonical SMILES": "O=C1C(OC)=C(OC=2C=C(OC)C=C(O)C12)C=3C=CC(OC)=C(OC)C3",
        "Molecular Formula": "C<sub>19</sub>H<sub>18</sub>O<sub>7</sub>",
        "Molecular Mass": "358.34",
        "Melting Point": "159-160 °C"
    }
}