{
    "cas_no": "314771-76-1",
    "key_name": "<em>N</em><sup>4</sup>-(3-Chloro-4-fluorophenyl)-7-[[(3<em>S</em>)-tetrahydro-3-furanyl]oxy]-4,6-quinazolinediamine",
    "cn_name": null,
    "alternate_name": "4,6-Quinazolinediamine, <em>N</em><sup>4</sup>-(3-chloro-4-fluorophenyl)-7-[[(3<em>S</em>)-tetrahydro-3-furanyl]oxy]-;<em>N</em><sup>4</sup>-(3-Chloro-4-fluorophenyl)-7-[[(3<em>S</em>)-tetrahydro-3-furanyl]oxy]-4,6-quinazolinediamine;6-Amino-4-[(3-chloro-4-fluorophenyl)amino]-7-[(<em>S</em>)-(tetrahydrofuran-3-yl)oxy]quinazoline;(<em>S</em>)-N4-(3-Chloro-4-fluorophenyl)-7-((tetrahydrofuran-3-yl)oxy)quinazoline-4,6-diamine",
    "duplicated_cas_no": "2493105-06-7",
    "SMILES": "N(C=1C2=C(C=C(O[C@H]3CCOC3)C(N)=C2)N=CN1)C4=CC(Cl)=C(F)C=C4",
    "meta_data": {
        "InChI": "InChI=1S/C18H16ClFN4O2/c19-13-5-10(1-2-14(13)20)24-18-12-6-15(21)17(7-16(12)22-9-23-18)26-11-3-4-25-8-11/h1-2,5-7,9,11H,3-4,8,21H2,(H,22,23,24)/t11-/m0/s1",
        "InChIKey": null,
        "Canonical SMILES": "FC1=CC=C(C=C1Cl)NC=2N=CN=C3C=C(OC4COCC4)C(N)=CC32",
        "Molecular Formula": "C<sub>18</sub>H<sub>16</sub>ClFN<sub>4</sub>O<sub>2</sub>",
        "Molecular Mass": "374.80",
        "Melting Point": "139.1-140.1 °C"
    }
}