{
    "cas_no": "23202-85-9",
    "key_name": "Matairesinoside",
    "cn_name": null,
    "alternate_name": "2(3<em>H</em>)-Furanone, 3-[[4-(β-<span class=\"text-smallcaps\">D</span>-glucopyranosyloxy)-3-methoxyphenyl]methyl]dihydro-4-[(4-hydroxy-3-methoxyphenyl)methyl]-, (3<em>R</em>,4<em>R</em>)-;2(3<em>H</em>)-Furanone, 3-[[4-(β-<span class=\"text-smallcaps\">D</span>-glucopyranosyloxy)-3-methoxyphenyl]methyl]dihydro-4-[(4-hydroxy-3-methoxyphenyl)methyl]-, (3<em>R</em>-<em>trans</em>)-;Matairesinoside;(3<em>R</em>,4<em>R</em>)-3-[[4-(β-<span class=\"text-smallcaps\">D</span>-Glucopyranosyloxy)-3-methoxyphenyl]methyl]dihydro-4-[(4-hydroxy-3-methoxyphenyl)methyl]-2(3<em>H</em>)-furanone;(-)-Matairesinol 4-<em>O</em>-glucoside",
    "duplicated_cas_no": "34315-22-5",
    "SMILES": "C([C@@H]1[C@@H](CC2=CC(OC)=C(O[C@@H]3O[C@H](CO)[C@@H](O)[C@H](O)[C@H]3O)C=C2)C(=O)OC1)C4=CC(OC)=C(O)C=C4",
    "meta_data": {
        "InChI": "InChI=1S/C26H32O11/c1-33-19-9-13(3-5-17(19)28)7-15-12-35-25(32)16(15)8-14-4-6-18(20(10-14)34-2)36-26-24(31)23(30)22(29)21(11-27)37-26/h3-6,9-10,15-16,21-24,26-31H,7-8,11-12H2,1-2H3/t15-,16+,21+,22+,23-,24+,26+/m0/s1",
        "InChIKey": null,
        "Canonical SMILES": "O=C1OCC(CC2=CC=C(O)C(OC)=C2)C1CC3=CC=C(OC4OC(CO)C(O)C(O)C4O)C(OC)=C3",
        "Molecular Formula": "C<sub>26</sub>H<sub>32</sub>O<sub>11</sub>",
        "Molecular Mass": "520.53",
        "Melting Point": "93-96 °C"
    }
}