{
    "cas_no": "1141-88-4",
    "key_name": "Bis(2-aminophenyl) disulfide",
    "cn_name": "双(2-氨基苯基)二硫;2,2\"-二氨基二苯二硫醚;",
    "alternate_name": "Benzenamine, 2,2′-dithiobis-;Aniline, 2,2′-dithiodi-;2,2′-Dithiobis[benzenamine];Bis(<em>o</em>-aminophenyl) disulfide;Intramine;2,2′-Dithiodianiline;Disulfide, bis(2-aminophenyl);2,2′-Diaminodiphenyl disulfide;Bis(2-aminophenyl) disulfide;<em>o</em>,<em>o</em>′-Diaminodiphenyl disulfide;2,2′-Dithiobis[aniline];NSC 8186;Di(2-aminophenyl) disulfide;1,1′-Dithiobis(2-aminobenzene);Di(<em>o</em>-aminophenyl) disulfide;NSC 54509;NSC 677450;D 1246;2,2′-Disulfidediyldianiline;Thulium ionophore I;2,2′-Disulfanediyldianiline;[2-[(2-Aminophenyl)dithio]phenyl]amine;2,2′-Dianilino disulfide;2-[(2-Aminophenyl)disulfanyl]aniline",
    "duplicated_cas_no": "",
    "SMILES": "S(SC1=C(N)C=CC=C1)C2=C(N)C=CC=C2",
    "meta_data": {
        "InChI": "InChI=1S/C12H12N2S2/c13-9-5-1-3-7-11(9)15-16-12-8-4-2-6-10(12)14/h1-8H,13-14H2",
        "InChIKey": null,
        "Canonical SMILES": "S(SC=1C=CC=CC1N)C=2C=CC=CC2N",
        "Molecular Formula": "C<sub>12</sub>H<sub>12</sub>N<sub>2</sub>S<sub>2</sub>",
        "Molecular Mass": "248.37",
        "Melting Point": "89-91 °C",
        "Density": "1.34 g/cm³ @ Press: 750 Torr"
    }
}