{
    "cas_no": "6990-43-8",
    "key_name": "(<em>T</em>-4)-Bis(<em>O</em>,<em>O</em>-dibutyl phosphorodithioato-κ<em>S</em>,κ<em>S</em>′)zinc",
    "cn_name": null,
    "alternate_name": "Zinc, bis(<em>O</em>,<em>O</em>-dibutyl phosphorodithioato-κ<em>S</em>,κ<em>S</em>′)-, (<em>T</em>-4)-;Phosphorodithioic acid, <em>O</em>,<em>O</em>-dibutyl ester, zinc salt;Butyl zinc phosphorodithioate (Zn[(BuO)<sub>2</sub>(S)PS]<sub>2</sub>);Zinc, bis(<em>O</em>,<em>O</em>-dibutyl phosphorodithioato-<em>S</em>,<em>S</em>′)-, (<em>T</em>-4)-;Phosphorodithioic acid, <em>O</em>,<em>O</em>-dibutyl ester, zinc complex;(<em>T</em>-4)-Bis(<em>O</em>,<em>O</em>-dibutyl phosphorodithioato-κ<em>S</em>,κ<em>S</em>′)zinc;Zinc bis(<em>O</em>,<em>O</em>-dibutyl dithiophosphate);Zinc dibutyl dithiophosphate;Zinc <em>O</em>,<em>O</em>-dibutyl dithiophosphate;Zinc bis(<em>O</em>,<em>O</em>-dibutylphosphorodithioate);Zinc <em>O</em>,<em>O</em>′-dibutylphosphorodithioate;Zinc dibutyl phosphorodithioate;Rhenocure TP;Rhenocure TP/S;Vocol;Vocol 5;Zinc <em>O</em>,<em>O</em>-dibutyl phosphorodithioate;Zinc bis(dibutyl dithiophosphate);Meraphos P;Vocol S 75;S 75;Vocol ZBPD;Vocol S;Rhenogran TP 50;ZBPD;TP/S;ZBPD 50GE;ZBPD 75;TP 50;Zinc <em>O</em>,<em>O</em>-di-<em>n</em>-butyl phosphorodithioate;ZBPD 50",
    "duplicated_cas_no": "137545-59-6;37953-03-0;55620-89-8;577750-32-4;203120-69-8",
    "SMILES": "O(CCCC)P=1(OCCCC)[S-][Zn+2]2([S-]P(OCCCC)(OCCCC)=[S]2)[S]1",
    "meta_data": {
        "InChI": "InChI=1S/2C8H19O2PS2.Zn/c2*1-3-5-7-9-11(12,13)10-8-6-4-2;/h2*3-8H2,1-2H3,(H,12,13);/q;;+2/p-2",
        "InChIKey": null,
        "Canonical SMILES": "O(CCCC)P1(OCCCC)=[S][Zn+2]2([S]=P(OCCCC)(OCCCC)[S-]2)[S-]1",
        "Molecular Formula": "C<sub>16</sub>H<sub>36</sub>O<sub>4</sub>P<sub>2</sub>S<sub>4</sub>Zn",
        "Molecular Mass": "",
        "Melting Point": "36.8 °C"
    }
}