{
    "cas_no": "16078-34-5",
    "key_name": "1-(2,3-Dihydro-1<em>H</em>-indol-5-yl)ethanone",
    "cn_name": null,
    "alternate_name": "Ethanone, 1-(2,3-dihydro-1<em>H</em>-indol-5-yl)-;Ketone, 5-indolinyl methyl;1-(2,3-Dihydro-1<em>H</em>-indol-5-yl)ethanone;5-Acetylindoline;5-Acetyl-2,3-dihydroindole;NSC 75568;1-(Indolin-5-yl)ethanone;1-(2,3-Dihydro-1<em>H</em>-indol-5-yl)ethan-1-one",
    "duplicated_cas_no": "",
    "SMILES": "C(C)(=O)C=1C=C2C(=CC1)NCC2",
    "meta_data": {
        "InChI": "InChI=1S/C10H11NO/c1-7(12)8-2-3-10-9(6-8)4-5-11-10/h2-3,6,11H,4-5H2,1H3",
        "InChIKey": null,
        "Canonical SMILES": "O=C(C1=CC=C2NCCC2=C1)C",
        "Molecular Formula": "C<sub>10</sub>H<sub>11</sub>NO",
        "Molecular Mass": "161.20",
        "Melting Point": "70.5-71 °C"
    }
}