{
    "cas_no": "14167-59-0",
    "key_name": "Tetratriacontane",
    "cn_name": "正三十四烷;三十四烷;Tetratriacontane;",
    "alternate_name": "Tetratriacontane;<em>n</em>-Tetratriacontane;NSC 2998",
    "duplicated_cas_no": "",
    "SMILES": "C(CCCCCCCCCCCCCCCCC)CCCCCCCCCCCCCCCC",
    "meta_data": {
        "InChI": "InChI=1S/C34H70/c1-3-5-7-9-11-13-15-17-19-21-23-25-27-29-31-33-34-32-30-28-26-24-22-20-18-16-14-12-10-8-6-4-2/h3-34H2,1-2H3",
        "InChIKey": null,
        "Canonical SMILES": "CCCCCCCCCCCCCCCCCCCCCCCCCCCCCCCCCC",
        "Molecular Formula": "C<sub>34</sub>H<sub>70</sub>",
        "Molecular Mass": "478.92",
        "Boiling Point": "483 °C",
        "Melting Point": "72.6 °C"
    }
}