{
    "cas_no": "93-37-8",
    "key_name": "2,7-Dimethylquinoline",
    "cn_name": "2,7-二甲基喹啉;2,7-甲基喹哪啶;",
    "alternate_name": "Quinoline, 2,7-dimethyl-;2,7-Dimethylquinoline;<em>m</em>-Toluquinaldine;NSC 5240",
    "duplicated_cas_no": "",
    "SMILES": "CC1=CC2=C(C=CC(C)=N2)C=C1",
    "meta_data": {
        "InChI": "InChI=1S/C11H11N/c1-8-3-5-10-6-4-9(2)12-11(10)7-8/h3-7H,1-2H3",
        "InChIKey": null,
        "Canonical SMILES": "N=1C=2C=C(C=CC2C=CC1C)C",
        "Molecular Formula": "C<sub>11</sub>H<sub>11</sub>N",
        "Molecular Mass": "157.21",
        "Boiling Point": "264.5 °C",
        "Melting Point": "61 °C"
    }
}