{
    "cas_no": "1606-85-5",
    "key_name": "1,4-Bis(2-hydroxyethoxy)-2-butyne",
    "cn_name": "丁炔二醇乙氧基化物;二乙氧基丁炔二醇;BEO;",
    "alternate_name": "Ethanol, 2,2′-[2-butyne-1,4-diylbis(oxy)]bis-;Ethanol, 2,2′-(2-butynylenedioxy)di-;2,2′-[2-Butyne-1,4-diylbis(oxy)]bis[ethanol];1,4-Bis(β-hydroxyethoxy)-2-butyne;1,4-Di(β-hydroxyethoxy)-2-butyne;2,2′-(2-Butyne-1,4-diyldioxy)diethanol;2-Butyne-1,4-diol, bis(β-hydroxyethyl) ether;1,4-Bis(2-hydroxyethoxy)-2-butyne;NSC 73709;Ferasine;2-Butyne-1,4-diol bis(2-hydroxyethyl ether);Butoxyne 497;2-[4-(2-Hydroxyethoxy)but-2-ynoxy]ethanol",
    "duplicated_cas_no": "1242079-30-6",
    "SMILES": "C(#CCOCCO)COCCO",
    "meta_data": {
        "InChI": "InChI=1S/C8H14O4/c9-3-7-11-5-1-2-6-12-8-4-10/h9-10H,3-8H2",
        "InChIKey": null,
        "Canonical SMILES": "OCCOCC#CCOCCO",
        "Molecular Formula": "C<sub>8</sub>H<sub>14</sub>O<sub>4</sub>",
        "Molecular Mass": "174.19",
        "Boiling Point": "71-72 °C @ Press: 1 Torr",
        "Density": "1.1415 g/cm³ @ Temp: 20 °C"
    }
}