{
    "cas_no": "96187-53-0",
    "key_name": "Brequinar",
    "cn_name": null,
    "alternate_name": "4-Quinolinecarboxylic acid, 6-fluoro-2-(2′-fluoro[1,1′-biphenyl]-4-yl)-3-methyl-;6-Fluoro-2-(2′-fluoro[1,1′-biphenyl]-4-yl)-3-methyl-4-quinolinecarboxylic acid;Brequinar;Biphenquinate;BPQ",
    "duplicated_cas_no": "",
    "SMILES": "CC=1C(=NC2=C(C1C(O)=O)C=C(F)C=C2)C3=CC=C(C=C3)C4=C(F)C=CC=C4",
    "meta_data": {
        "InChI": "InChI=1S/C23H15F2NO2/c1-13-21(23(27)28)18-12-16(24)10-11-20(18)26-22(13)15-8-6-14(7-9-15)17-4-2-3-5-19(17)25/h2-12H,1H3,(H,27,28)",
        "InChIKey": null,
        "Canonical SMILES": "O=C(O)C=1C=2C=C(F)C=CC2N=C(C=3C=CC(=CC3)C=4C=CC=CC4F)C1C",
        "Molecular Formula": "C<sub>23</sub>H<sub>15</sub>F<sub>2</sub>NO<sub>2</sub>",
        "Molecular Mass": "375.37",
        "Melting Point": "315-317 °C"
    }
}