{
    "cas_no": "14239-68-0",
    "key_name": "Cadmium diethyldithiocarbamate",
    "cn_name": "二乙基二硫代氨基甲酸镉;橡胶促进剂CED;",
    "alternate_name": "Cadmium, bis(<em>N</em>,<em>N</em>-diethylcarbamodithioato-κ<em>S</em>,κ<em>S</em>′)-, (<em>T</em>-4)-;Cadmium, bis(diethyldithiocarbamato)-;Cadmium, bis(diethylcarbamodithioato-<em>S</em>,<em>S</em>′)-, (<em>T</em>-4)-;Cadmium, bis(diethylcarbamodithioato-κ<em>S</em>,κ<em>S</em>′)-, (<em>T</em>-4)-;(<em>T</em>-4)-Bis(<em>N</em>,<em>N</em>-diethylcarbamodithioato-κ<em>S</em>,κ<em>S</em>′)cadmium;Bis(diethyldithiocarbamato)cadmium;Cadmium diethyldithiocarbamate;Cadmium di(diethyldithiocarbamate);Cadmium bis(<em>N</em>,<em>N</em>-diethyldithiocarbamate);Cadmate;Cadmium bis(diethyldithiocarbamate);Cd diethyldithiocarbamate;NSC 154470;Accelerator CED;CED;Cadmium(II)-bisdithiocarbamate",
    "duplicated_cas_no": "7346-68-1;2010950-84-0",
    "SMILES": "N(CC)(CC)C=1[S-][Cd+2]2([S-]C(N(CC)CC)=[S]2)[S]1",
    "meta_data": {
        "InChI": "InChI=1S/2C5H11NS2.Cd/c2*1-3-6(4-2)5(7)8;/h2*3-4H2,1-2H3,(H,7,8);/q;;+2/p-2",
        "InChIKey": null,
        "Canonical SMILES": "[S]1=C([S-][Cd+2]12[S]=C([S-]2)N(CC)CC)N(CC)CC",
        "Molecular Formula": "C<sub>10</sub>H<sub>20</sub>CdN<sub>2</sub>S<sub>4</sub>",
        "Molecular Mass": "",
        "Melting Point": "68-76 °C",
        "Density": "1.39 g/cm³"
    }
}