{
    "cas_no": "51-66-1",
    "key_name": "<em>N</em>-(4-Methoxyphenyl)acetamide",
    "cn_name": "4\"-甲氧基乙酰苯胺;对甲氧基乙酰苯胺;",
    "alternate_name": "Acetamide, <em>N</em>-(4-methoxyphenyl)-;<em>p</em>-Acetanisidide;<em>p</em>-Acetaniside;<em>N</em>-(4-Methoxyphenyl)acetamide;<em>p</em>-Acetanisidine;Acetyl-<em>p</em>-anisidine;Metacetin;Methacetin;<em>p</em>-Methoxyacetanilide;Aceto-<em>p</em>-anisidide;4-Methoxyacetanilide;4′-Methoxyacetanilide;<em>N</em>-Acetyl-<em>p</em>-methoxyaniline;<em>N</em>-Acetyl-<em>p</em>-anisidine;<em>N</em>-(<em>p</em>-Methoxyphenyl)acetamide;4-(Acetylamino)anisole;4-Acetamidophenyl methyl ether;NSC 4687;4-Acetamidoanisole;4-Methoxyanilino methyl ketone;<em>N</em>-Acetyl-4-methoxyaniline",
    "duplicated_cas_no": "",
    "SMILES": "N(C(C)=O)C1=CC=C(OC)C=C1",
    "meta_data": {
        "InChI": "InChI=1S/C9H11NO2/c1-7(11)10-8-3-5-9(12-2)6-4-8/h3-6H,1-2H3,(H,10,11)",
        "InChIKey": null,
        "Canonical SMILES": "O=C(NC1=CC=C(OC)C=C1)C",
        "Molecular Formula": "C<sub>9</sub>H<sub>11</sub>NO<sub>2</sub>",
        "Molecular Mass": "165.19",
        "Boiling Point": "335 °C",
        "Melting Point": "131 °C"
    }
}