{
    "cas_no": "84-61-7",
    "key_name": "Dicyclohexyl phthalate",
    "cn_name": "邻苯二甲酸二环己酯;",
    "alternate_name": "1,2-Benzenedicarboxylic acid, 1,2-dicyclohexyl ester;Phthalic acid, dicyclohexyl ester;1,2-Benzenedicarboxylic acid, dicyclohexyl ester;HF 191;Dicyclohexyl phthalate;Ergoplast FDC;Unimoll 66;Howflex CP;Morflex 150;Edenol DCHP;DCHP;NSC 6101;Uniplex 250",
    "duplicated_cas_no": "55819-02-8;169741-16-6",
    "SMILES": "C(OC1CCCCC1)(=O)C2=C(C(OC3CCCCC3)=O)C=CC=C2",
    "meta_data": {
        "InChI": "InChI=1S/C20H26O4/c21-19(23-15-9-3-1-4-10-15)17-13-7-8-14-18(17)20(22)24-16-11-5-2-6-12-16/h7-8,13-16H,1-6,9-12H2",
        "InChIKey": null,
        "Canonical SMILES": "O=C(OC1CCCCC1)C=2C=CC=CC2C(=O)OC3CCCCC3",
        "Molecular Formula": "C<sub>20</sub>H<sub>26</sub>O<sub>4</sub>",
        "Molecular Mass": "330.42",
        "Boiling Point": "222-228 °C @ Press: 4 Torr",
        "Melting Point": "66 °C",
        "Density": "1.383 g/cm³ @ Temp: 20 °C"
    }
}