{
    "cas_no": "433-06-7",
    "key_name": "2,2,2-Trifluoroethyl <em>p</em>-toluenesulfonate",
    "cn_name": "2,2,2-三氟对甲苯磺酸乙酯;2,2,2-三氟乙基对甲苯磺酸酯;",
    "alternate_name": "Ethanol, 2,2,2-trifluoro-, 1-(4-methylbenzenesulfonate);Ethanol, 2,2,2-trifluoro-, <em>p</em>-toluenesulfonate;Ethanol, 2,2,2-trifluoro-, 4-methylbenzenesulfonate;2,2,2-Trifluoroethyl tosylate;2,2,2-Trifluoroethyl <em>p</em>-toluenesulfonate;2,2,2-Trifluoroethyl 4-toluenesulfonate;NSC 77401;<em>p</em>-Toluenesulfonic acid 2,2,2-trifluoroethyl ester;Toluene-4-sulfonic acid 2,2,2-trifluoroethyl ester;2,2,2-Trifluoroethyl 4-methylbenzenesulfonate;2,2,2-Trifluoroethanol 4-methylbenzenesulfonate;2,2,2-Trifluoroethyl <em>p</em>-methylbenzenesulfonate",
    "duplicated_cas_no": "",
    "SMILES": "S(OCC(F)(F)F)(=O)(=O)C1=CC=C(C)C=C1",
    "meta_data": {
        "InChI": "InChI=1S/C9H9F3O3S/c1-7-2-4-8(5-3-7)16(13,14)15-6-9(10,11)12/h2-5H,6H2,1H3",
        "InChIKey": null,
        "Canonical SMILES": "O=S(=O)(OCC(F)(F)F)C1=CC=C(C=C1)C",
        "Molecular Formula": "C<sub>9</sub>H<sub>9</sub>F<sub>3</sub>O<sub>3</sub>S",
        "Molecular Mass": "254.23",
        "Boiling Point": "87-92 °C @ Press: 0.1 Torr",
        "Melting Point": "41 °C"
    }
}