{
    "cas_no": "627-06-5",
    "key_name": "Propylurea",
    "cn_name": "丙脲;丙基脲;",
    "alternate_name": "Urea, <em>N</em>-propyl-;Urea, propyl-;<em>N</em>-Propylurea;Propylurea;1-Propylurea;NSC 73471",
    "duplicated_cas_no": "",
    "SMILES": "N(C(N)=O)CCC",
    "meta_data": {
        "InChI": "InChI=1S/C4H10N2O/c1-2-3-6-4(5)7/h2-3H2,1H3,(H3,5,6,7)",
        "InChIKey": null,
        "Canonical SMILES": "O=C(N)NCCC",
        "Molecular Formula": "C<sub>4</sub>H<sub>10</sub>N<sub>2</sub>O",
        "Molecular Mass": "102.14",
        "Melting Point": "107 °C",
        "Density": "1.1412 g/cm³"
    }
}