{
    "cas_no": "1611-83-2",
    "key_name": "<em>N</em>-Phenylmethacrylamide",
    "cn_name": "N-苯基甲基丙烯酰胺;",
    "alternate_name": "2-Propenamide, 2-methyl-<em>N</em>-phenyl-;Methacrylanilide;2-Methyl-<em>N</em>-phenyl-2-propenamide;2-Methylacrylanilide;<em>N</em>-Phenylmethacrylamide;α-Methylacrylanilide;NSC 32640;2-Methyl-<em>N</em>-phenylacrylamide",
    "duplicated_cas_no": "",
    "SMILES": "N(C(C(C)=C)=O)C1=CC=CC=C1",
    "meta_data": {
        "InChI": "InChI=1S/C10H11NO/c1-8(2)10(12)11-9-6-4-3-5-7-9/h3-7H,1H2,2H3,(H,11,12)",
        "InChIKey": null,
        "Canonical SMILES": "O=C(NC=1C=CC=CC1)C(=C)C",
        "Molecular Formula": "C<sub>10</sub>H<sub>11</sub>NO",
        "Molecular Mass": "161.20",
        "Melting Point": "84-85 °C"
    }
}