{
    "cas_no": "65169-38-2",
    "key_name": "2-Chloro-4-methyl-3-pyridinecarbonitrile",
    "cn_name": "2-氯-3-氰基-4-甲基吡啶;",
    "alternate_name": "3-Pyridinecarbonitrile, 2-chloro-4-methyl-;2-Chloro-4-methyl-3-pyridinecarbonitrile;2-Chloro-4-methylnicotinotrile;4-Methyl-2-chloronicotinonitrile;2-Chloro-3-cyano-4-methylpyridine;2-Chloro-4-methyl-nicotinonitrile",
    "duplicated_cas_no": "",
    "SMILES": "C(#N)C=1C(C)=CC=NC1Cl",
    "meta_data": {
        "InChI": "InChI=1S/C7H5ClN2/c1-5-2-3-10-7(8)6(5)4-9/h2-3H,1H3",
        "InChIKey": null,
        "Canonical SMILES": "N#CC=1C(Cl)=NC=CC1C",
        "Molecular Formula": "C<sub>7</sub>H<sub>5</sub>ClN<sub>2</sub>",
        "Molecular Mass": "152.58",
        "Melting Point": "105-108 °C"
    }
}