{
    "cas_no": "1034-49-7",
    "key_name": "Phosphonium, (bromomethyl)triphenyl-, bromide (1:1)",
    "cn_name": "(溴甲基)三苯基溴化磷;溴甲基三苯基溴化磷;",
    "alternate_name": "Phosphonium, (bromomethyl)triphenyl-, bromide (1:1);Phosphonium, (bromomethyl)triphenyl-, bromide;Bromomethyltriphenylphosphonium bromide;NSC 193751",
    "duplicated_cas_no": "39752-24-4;171283-45-7",
    "SMILES": "[P+](CBr)(C1=CC=CC=C1)(C2=CC=CC=C2)C3=CC=CC=C3.[Br-]",
    "meta_data": {
        "InChI": "InChI=1S/C19H17BrP.BrH/c20-16-21(17-10-4-1-5-11-17,18-12-6-2-7-13-18)19-14-8-3-9-15-19;/h1-15H,16H2;1H/q+1;/p-1",
        "InChIKey": null,
        "Canonical SMILES": "[Br-].BrC[P+](C=1C=CC=CC1)(C=2C=CC=CC2)C=3C=CC=CC3",
        "Molecular Formula": "C<sub>19</sub>H<sub>17</sub>BrP.Br",
        "Molecular Mass": "",
        "Melting Point": "195-225 °C"
    }
}