{
    "cas_no": "2049-94-7",
    "key_name": "Isopentylbenzene",
    "cn_name": "异戊基苯;",
    "alternate_name": "Benzene, (3-methylbutyl)-;Benzene, isopentyl-;Benzene, isoamyl-;(3-Methylbutyl)benzene;Isopentylbenzene;2-Methyl-4-phenylbutane;3-Methyl-1-phenylbutane;Isoamylbenzene;1-Phenyl-3-methylbutane;NSC 62142;1-Isopentylbenzene",
    "duplicated_cas_no": "",
    "SMILES": "C(CC(C)C)C1=CC=CC=C1",
    "meta_data": {
        "InChI": "InChI=1S/C11H16/c1-10(2)8-9-11-6-4-3-5-7-11/h3-7,10H,8-9H2,1-2H3",
        "InChIKey": null,
        "Canonical SMILES": "C=1C=CC(=CC1)CCC(C)C",
        "Molecular Formula": "C<sub>11</sub>H<sub>16</sub>",
        "Molecular Mass": "148.24",
        "Boiling Point": "195 °C",
        "Density": "0.855 g/cm³ @ Temp: 20 °C"
    }
}