{
    "cas_no": "5044-22-4",
    "key_name": "2,5-Dimethyl-1-(4-nitrophenyl)-1<em>H</em>-pyrrole",
    "cn_name": "2,5-二甲基-1-(4-硝基苯基)-1H-吡咯;",
    "alternate_name": "1<em>H</em>-Pyrrole, 2,5-dimethyl-1-(4-nitrophenyl)-;Pyrrole, 2,5-dimethyl-1-(<em>p</em>-nitrophenyl)-;2,5-Dimethyl-1-(4-nitrophenyl)-1<em>H</em>-pyrrole;2,5-Dimethyl-1-(4-nitrophenyl)pyrrole;<em>N</em>-(<em>p</em>-Nitrophenyl)-2,5-dimethylpyrrole",
    "duplicated_cas_no": "",
    "SMILES": "CC=1N(C2=CC=C(N(=O)=O)C=C2)C(C)=CC1",
    "meta_data": {
        "InChI": "InChI=1S/C12H12N2O2/c1-9-3-4-10(2)13(9)11-5-7-12(8-6-11)14(15)16/h3-8H,1-2H3",
        "InChIKey": null,
        "Canonical SMILES": "O=N(=O)C1=CC=C(C=C1)N2C(=CC=C2C)C",
        "Molecular Formula": "C<sub>12</sub>H<sub>12</sub>N<sub>2</sub>O<sub>2</sub>",
        "Molecular Mass": "216.24",
        "Melting Point": "145 °C"
    }
}