{
    "cas_no": "25304-14-7",
    "key_name": "1-(3,3-Dimethylcyclohexyl)ethanone",
    "cn_name": "药草酮;1-(3,3-二甲基环己基)乙酮;",
    "alternate_name": "Ethanone, 1-(3,3-dimethylcyclohexyl)-;Ketone, 3,3-dimethylcyclohexyl methyl;1-(3,3-Dimethylcyclohexyl)ethanone;3,3-Dimethylcyclohexyl methyl ketone;1-Acetyl-3,3-dimethylcyclohexane;Herbac;1-(3,3-Dimethylcyclohexyl)ethan-1-one",
    "duplicated_cas_no": "",
    "SMILES": "C(C)(=O)C1CC(C)(C)CCC1",
    "meta_data": {
        "InChI": "InChI=1S/C10H18O/c1-8(11)9-5-4-6-10(2,3)7-9/h9H,4-7H2,1-3H3",
        "InChIKey": null,
        "Canonical SMILES": "O=C(C)C1CCCC(C)(C)C1",
        "Molecular Formula": "C<sub>10</sub>H<sub>18</sub>O",
        "Molecular Mass": "154.25",
        "Boiling Point": "89 °C @ Press: 14 Torr"
    }
}