{
    "cas_no": "613-94-5",
    "key_name": "Benzoylhydrazine",
    "cn_name": "苯甲酰肼;",
    "alternate_name": "Benzoic acid, hydrazide;Benzhydrazide;Hydrazine, benzoyl-;Benzoylhydrazine;Benzoic hydrazide;Benzohydrazide;NSC 644;Benzenecarboxylic acid hydrazide;<em>N</em>-Benzoylhydrazine;INHd 14",
    "duplicated_cas_no": "",
    "SMILES": "C(NN)(=O)C1=CC=CC=C1",
    "meta_data": {
        "InChI": "InChI=1S/C7H8N2O/c8-9-7(10)6-4-2-1-3-5-6/h1-5H,8H2,(H,9,10)",
        "InChIKey": null,
        "Canonical SMILES": "O=C(NN)C=1C=CC=CC1",
        "Molecular Formula": "C<sub>7</sub>H<sub>8</sub>N<sub>2</sub>O",
        "Molecular Mass": "136.15",
        "Melting Point": "115 °C"
    }
}