{
    "cas_no": "372-47-4",
    "key_name": "3-Fluoropyridine",
    "cn_name": "3-氟吡啶;间氟吡啶;",
    "alternate_name": "Pyridine, 3-fluoro-;3-Fluoropyridine;NSC 5078",
    "duplicated_cas_no": "",
    "SMILES": "FC=1C=CC=NC1",
    "meta_data": {
        "InChI": "InChI=1S/C5H4FN/c6-5-2-1-3-7-4-5/h1-4H",
        "InChIKey": null,
        "Canonical SMILES": "FC=1C=NC=CC1",
        "Molecular Formula": "C<sub>5</sub>H<sub>4</sub>FN",
        "Molecular Mass": "97.09",
        "Boiling Point": "107.5 °C"
    }
}