{
    "cas_no": "87394-55-6",
    "key_name": "1-(3-Chloro-2-pyridinyl)piperazine",
    "cn_name": "1-(3-氯-2-吡啶基)哌嗪;",
    "alternate_name": "Piperazine, 1-(3-chloro-2-pyridinyl)-;1-(3-Chloro-2-pyridinyl)piperazine;<em>N</em>-(3-Chloropyridin-2-yl)piperazine;1-(3-Chloropyridin-2-yl)piperazine;4-(3-Chloropyridin-2-yl)piperazine;1-(3-Chloro-2-pyridyl)piperazine",
    "duplicated_cas_no": "",
    "SMILES": "ClC1=C(N2CCNCC2)N=CC=C1",
    "meta_data": {
        "InChI": "InChI=1S/C9H12ClN3/c10-8-2-1-3-12-9(8)13-6-4-11-5-7-13/h1-3,11H,4-7H2",
        "InChIKey": null,
        "Canonical SMILES": "ClC1=CC=CN=C1N2CCNCC2",
        "Molecular Formula": "C<sub>9</sub>H<sub>12</sub>ClN<sub>3</sub>",
        "Molecular Mass": "197.66",
        "Melting Point": "142-144 °C"
    }
}