{
    "cas_no": "83-67-0",
    "key_name": "Theobromine",
    "cn_name": "可可碱;咖啡碱;柯柯豆碱;3,7-二氢-3,7-二甲基-1H-嘌呤-2,6-二酮;",
    "alternate_name": "1<em>H</em>-Purine-2,6-dione, 3,7-dihydro-3,7-dimethyl-;Theobromine;3,7-Dihydro-3,7-dimethyl-1<em>H</em>-purine-2,6-dione;3,7-Dimethylxanthine;SC 15090;Teobromin;Diurobromine;Santheose;Theosalvose;Theostene;Thesal;3,7-Dimethyl-3,7-dihydro-1<em>H</em>-purine-2,6-dione;NSC 5039;3,7-Dimethyl-3,7-dihydro-purine-2,6-dione;3,7-Dimethyl-2,3,6,7-tetrahydro-1<em>H</em>-purine-2,6-dione;3,7-Dimethylpurine-2,6-dione;MeSH ID: D013805",
    "duplicated_cas_no": "",
    "SMILES": "CN1C2=C(C(=O)NC1=O)N(C)C=N2",
    "meta_data": {
        "InChI": "InChI=1S/C7H8N4O2/c1-10-3-8-5-4(10)6(12)9-7(13)11(5)2/h3H,1-2H3,(H,9,12,13)",
        "InChIKey": null,
        "Canonical SMILES": "O=C1NC(=O)N(C=2N=CN(C12)C)C",
        "Molecular Formula": "C<sub>7</sub>H<sub>8</sub>N<sub>4</sub>O<sub>2</sub>",
        "Molecular Mass": "180.16",
        "Melting Point": "357 °C"
    }
}