{
    "cas_no": "7570-47-0",
    "key_name": "2-Methyl-5-nitroindole",
    "cn_name": null,
    "alternate_name": "1<em>H</em>-Indole, 2-methyl-5-nitro-;Indole, 2-methyl-5-nitro-;2-Methyl-5-nitro-1<em>H</em>-indole;2-Methyl-5-nitroindole;NSC 131898",
    "duplicated_cas_no": "78208-77-2",
    "SMILES": "N(=O)(=O)C=1C=C2C(=CC1)NC(C)=C2",
    "meta_data": {
        "InChI": "InChI=1S/C9H8N2O2/c1-6-4-7-5-8(11(12)13)2-3-9(7)10-6/h2-5,10H,1H3",
        "InChIKey": null,
        "Canonical SMILES": "O=N(=O)C=1C=CC=2NC(=CC2C1)C",
        "Molecular Formula": "C<sub>9</sub>H<sub>8</sub>N<sub>2</sub>O<sub>2</sub>",
        "Molecular Mass": "176.17",
        "Melting Point": "171.5-172.5 °C"
    }
}