{
    "cas_no": "41604-19-7",
    "key_name": "4-Bromo-2-fluoro-1,1′-biphenyl",
    "cn_name": "4-溴-2-氟联苯;",
    "alternate_name": "1,1′-Biphenyl, 4-bromo-2-fluoro-;4-Bromo-2-fluoro-1,1′-biphenyl;4-Bromo-2-fluorobiphenyl;2-Fluoro-4-bromobiphenyl;4-Bromo-4-biphenylylacetone;4′-Bromo-2′-fluorobiphenyl",
    "duplicated_cas_no": "",
    "SMILES": "FC1=C(C2=CC=CC=C2)C=CC(Br)=C1",
    "meta_data": {
        "InChI": "InChI=1S/C12H8BrF/c13-10-6-7-11(12(14)8-10)9-4-2-1-3-5-9/h1-8H",
        "InChIKey": null,
        "Canonical SMILES": "FC=1C=C(Br)C=CC1C=2C=CC=CC2",
        "Molecular Formula": "C<sub>12</sub>H<sub>8</sub>BrF",
        "Molecular Mass": "251.09",
        "Melting Point": "36.5-37 °C"
    }
}