{
    "cas_no": "122-95-2",
    "key_name": "1,4-Diethoxybenzene",
    "cn_name": "对二乙氧基苯;1,4-二乙氧基苯;",
    "alternate_name": "Benzene, 1,4-diethoxy-;Benzene, <em>p</em>-diethoxy-;1,4-Diethoxybenzene;<em>p</em>-Diethoxybenzene;Hydroquinone diethyl ether;NSC 2113;NSC 68808;1,4-Diethyloxybenzene",
    "duplicated_cas_no": "",
    "SMILES": "O(CC)C1=CC=C(OCC)C=C1",
    "meta_data": {
        "InChI": "InChI=1S/C10H14O2/c1-3-11-9-5-7-10(8-6-9)12-4-2/h5-8H,3-4H2,1-2H3",
        "InChIKey": null,
        "Canonical SMILES": "O(C1=CC=C(OCC)C=C1)CC",
        "Molecular Formula": "C<sub>10</sub>H<sub>14</sub>O<sub>2</sub>",
        "Molecular Mass": "166.22",
        "Boiling Point": "246 °C",
        "Melting Point": "72 °C"
    }
}