{
    "cas_no": "18293-54-4",
    "key_name": "1-Trimethylsilyl-1,2,4-triazole",
    "cn_name": "1-三甲基硅基-1,2,4-三唑;1-(三甲硅基)-1H-1,2,4-三唑;1-三甲基甲硅烷基-1,2,4-三唑;1-(三甲基硅基)-1,2,4-;",
    "alternate_name": "1<em>H</em>-1,2,4-Triazole, 1-(trimethylsilyl)-;1-(Trimethylsilyl)-1<em>H</em>-1,2,4-triazole;1-Trimethylsilyl-1,2,4-triazole;<em>N</em>-(Trimethylsilyl)triazole;1-(Trimethylsilyl)triazole;1-Trimethylsilyl-1<em>H</em>-1,2,4-triazole",
    "duplicated_cas_no": "",
    "SMILES": "[Si](C)(C)(C)N1C=NC=N1",
    "meta_data": {
        "InChI": "InChI=1S/C5H11N3Si/c1-9(2,3)8-5-6-4-7-8/h4-5H,1-3H3",
        "InChIKey": null,
        "Canonical SMILES": "N=1C=NN(C1)[Si](C)(C)C",
        "Molecular Formula": "C<sub>5</sub>H<sub>11</sub>N<sub>3</sub>Si",
        "Molecular Mass": "141.25",
        "Boiling Point": "74 °C @ Press: 12 Torr",
        "Density": "0.989 g/cm³"
    }
}