{
    "cas_no": "5570-77-4",
    "key_name": "4-Chloro-1-methylpiperidine",
    "cn_name": "N-甲基-4-氯哌啶;1-甲基-4-氯哌啶;",
    "alternate_name": "Piperidine, 4-chloro-1-methyl-;4-Chloro-1-methylpiperidine;4-Chloro-<em>N</em>-methylpiperidine;<em>N</em>-Methyl-4-chloropiperidine;1-Methyl-4-piperidyl chloride;1-Methyl-4-chloropiperidine;1-Methyl-4-piperidinyl chloride",
    "duplicated_cas_no": "",
    "SMILES": "ClC1CCN(C)CC1",
    "meta_data": {
        "InChI": "InChI=1S/C6H12ClN/c1-8-4-2-6(7)3-5-8/h6H,2-5H2,1H3",
        "InChIKey": null,
        "Canonical SMILES": "ClC1CCN(C)CC1",
        "Molecular Formula": "C<sub>6</sub>H<sub>12</sub>ClN",
        "Molecular Mass": "133.62",
        "Boiling Point": "160-162 °C @ Press: 733 Torr"
    }
}