{
    "cas_no": "79-11-8",
    "key_name": "Chloroacetic acid",
    "cn_name": "氯乙酸;",
    "alternate_name": "Acetic acid, 2-chloro-;Acetic acid, chloro-;2-Chloroacetic acid;Chloracetic acid;Chloroacetic acid;Chloroethanoic acid;α-Chloroacetic acid;Monochloroacetic acid;Monochloroethanoic acid;MKhUK;MCA;NSC 142;NSC 42970;MCAA",
    "duplicated_cas_no": "",
    "SMILES": "C(CCl)(O)=O",
    "meta_data": {
        "InChI": "InChI=1S/C2H3ClO2/c3-1-2(4)5/h1H2,(H,4,5)",
        "InChIKey": null,
        "Canonical SMILES": "O=C(O)CCl",
        "Molecular Formula": "C<sub>2</sub>H<sub>3</sub>ClO<sub>2</sub>",
        "Molecular Mass": "94.50",
        "Boiling Point": "189 °C",
        "Melting Point": "63 °C",
        "Density": "1.4043 g/cm³ @ Temp: 40 °C"
    }
}