{
    "cas_no": "630-25-1",
    "key_name": "1,2-Dibromo-1,1,2,2-tetrachloroethane",
    "cn_name": "1,2-二溴四氯乙烷;二溴四氯乙烷;",
    "alternate_name": "Ethane, 1,2-dibromo-1,1,2,2-tetrachloro-;1,2-Dibromo-1,1,2,2-tetrachloroethane;DBTCE;1,2-Dibromotetrachloroethane;<em>sym</em>-Dibromotetrachloroethane",
    "duplicated_cas_no": "",
    "SMILES": "C(C(Br)(Cl)Cl)(Br)(Cl)Cl",
    "meta_data": {
        "InChI": "InChI=1S/C2Br2Cl4/c3-1(5,6)2(4,7)8",
        "InChIKey": null,
        "Canonical SMILES": "ClC(Cl)(Br)C(Cl)(Cl)Br",
        "Molecular Formula": "C<sub>2</sub>Br<sub>2</sub>Cl<sub>4</sub>",
        "Molecular Mass": "325.64",
        "Melting Point": "202.5 °C"
    }
}