{
    "cas_no": "40059-53-8",
    "key_name": "Ethyl 4-hydroxy-2-oxo-1,2-dihydroquinoline-3-carboxylate",
    "cn_name": null,
    "alternate_name": "3-Quinolinecarboxylic acid, 1,2-dihydro-4-hydroxy-2-oxo-, ethyl ester;3-Ethoxycarbonyl-2,4-dihydroxyquinoline;Ethyl 4-hydroxy-2-oxo-1,2-dihydroquinoline-3-carboxylate;3-Carbethoxy-4-hydroxy-2-quinolone",
    "duplicated_cas_no": "",
    "SMILES": "OC=1C=2C(NC(=O)C1C(OCC)=O)=CC=CC2",
    "meta_data": {
        "InChI": "InChI=1S/C12H11NO4/c1-2-17-12(16)9-10(14)7-5-3-4-6-8(7)13-11(9)15/h3-6H,2H2,1H3,(H2,13,14,15)",
        "InChIKey": null,
        "Canonical SMILES": "O=C(OCC)C=1C(=O)NC=2C=CC=CC2C1O",
        "Molecular Formula": "C<sub>12</sub>H<sub>11</sub>NO<sub>4</sub>",
        "Molecular Mass": "233.22",
        "Melting Point": "208 °C"
    }
}