{
    "cas_no": "2795-39-3",
    "key_name": "Potassium perfluorooctanesulfonate",
    "cn_name": null,
    "alternate_name": "1-Octanesulfonic acid, 1,1,2,2,3,3,4,4,5,5,6,6,7,7,8,8,8-heptadecafluoro-, potassium salt (1:1);1-Octanesulfonic acid, 1,1,2,2,3,3,4,4,5,5,6,6,7,7,8,8,8-heptadecafluoro-, potassium salt;1-Octanesulfonic acid, heptadecafluoro-, potassium salt;Potassium perfluorooctanesulfonate;Heptadecafluorooctanesulfonic acid potassium salt;Potassium heptadecafluorooctane-1-sulfonate;FC 95;Fluorad FC 95;Potassium perfluorooctylsulfonate;Megafac F 110;Perfluorooctanesulfonic acid potassium salt;Megafac F 116;F 110;Fluortensid FT 800;Eftop EF 102;F 116;Fluorad 95;EF 102;Potassium heptadecafluorooctanesulfonate;LE 003;Potassium heptadecafluorooctan-1-sulfonate;FC 80;FC 95 surfactant;YF 95",
    "duplicated_cas_no": "59112-13-9;62010-27-9;69458-54-4;111274-79-4;117925-64-1;1621005-32-0;2378519-40-3",
    "SMILES": "C(C(C(C(C(F)(F)F)(F)F)(F)F)(F)F)(C(C(C(S(=O)(=O)O)(F)F)(F)F)(F)F)(F)F.[K]",
    "meta_data": {
        "InChI": "InChI=1S/C8HF17O3S.K/c9-1(10,3(13,14)5(17,18)7(21,22)23)2(11,12)4(15,16)6(19,20)8(24,25)29(26,27)28;/h(H,26,27,28);",
        "InChIKey": null,
        "Canonical SMILES": "[K].O=S(=O)(O)C(F)(F)C(F)(F)C(F)(F)C(F)(F)C(F)(F)C(F)(F)C(F)(F)C(F)(F)F",
        "Molecular Formula": "C<sub>8</sub>HF<sub>17</sub>O<sub>3</sub>S.K",
        "Molecular Mass": "",
        "Melting Point": "277-280 °C"
    }
}