{
    "cas_no": "27724-96-5",
    "key_name": "Cetraxate hydrochloride",
    "cn_name": null,
    "alternate_name": "Benzenepropanoic acid, 4-[[[<em>trans</em>-4-(aminomethyl)cyclohexyl]carbonyl]oxy]-, hydrochloride (1:1);Hydrocinnamic acid, <em>p</em>-hydroxy-, 4-(aminomethyl)cyclohexanecarboxylate hydrochloride, <em>trans</em>-;Benzenepropanoic acid, 4-[[[4-(aminomethyl)cyclohexyl]carbonyl]oxy]-, hydrochloride, <em>trans</em>-;Benzenepropanoic acid, 4-[[[<em>trans</em>-4-(aminomethyl)cyclohexyl]carbonyl]oxy]-, hydrochloride;Cyclohexanecarboxylic acid, 4-(aminomethyl)-, ester with <em>p</em>-hydroxyhydrocinnamic acid, hydrochloride, <em>trans</em>-;4-(2-Carboxyethyl)phenyl <em>trans</em>-4-aminomethylcyclohexanecarboxylate hydrochloride;DV 1006;Cetraxate hydrochloride;Neuer S;Neuer",
    "duplicated_cas_no": "",
    "SMILES": "C(OC1=CC=C(CCC(O)=O)C=C1)(=O)[C@H]2CC[C@H](CN)CC2.Cl",
    "meta_data": {
        "InChI": "InChI=1/C17H23NO4.ClH/c18-11-13-1-6-14(7-2-13)17(21)22-15-8-3-12(4-9-15)5-10-16(19)20;/h3-4,8-9,13-14H,1-2,5-7,10-11,18H2,(H,19,20);1H/t13-,14-;",
        "InChIKey": null,
        "Canonical SMILES": "Cl.O=C(O)CCC1=CC=C(OC(=O)C2CCC(CN)CC2)C=C1",
        "Molecular Formula": "C<sub>17</sub>H<sub>23</sub>NO<sub>4</sub>.ClH",
        "Molecular Mass": "",
        "Melting Point": "238-240 °C"
    }
}