{
    "cas_no": "35182-51-5",
    "key_name": "4-(1-Ethylpropyl)pyridine",
    "cn_name": "4-(3-戊基)吡啶;4-(1-乙基丙基)吡啶;4-(1-ethylpropyl)-pyridin;",
    "alternate_name": "Pyridine, 4-(1-ethylpropyl)-;4-(1-Ethylpropyl)pyridine;4-(3-Pentyl)pyridine;NSC 405218;4-(Pentan-3-yl)pyridine",
    "duplicated_cas_no": "",
    "SMILES": "C(CC)(CC)C=1C=CN=CC1",
    "meta_data": {
        "InChI": "InChI=1S/C10H15N/c1-3-9(4-2)10-5-7-11-8-6-10/h5-9H,3-4H2,1-2H3",
        "InChIKey": null,
        "Canonical SMILES": "N=1C=CC(=CC1)C(CC)CC",
        "Molecular Formula": "C<sub>10</sub>H<sub>15</sub>N",
        "Molecular Mass": "149.23",
        "Boiling Point": "217 °C",
        "Melting Point": "125.5 °C"
    }
}