{
    "cas_no": "21643-38-9",
    "key_name": "4-Hexylbenzoic acid",
    "cn_name": "4-己基苯甲酸;",
    "alternate_name": "Benzoic acid, 4-hexyl-;Benzoic acid, <em>p</em>-hexyl-;4-Hexylbenzoic acid;<em>p</em>-Hexylbenzoic acid;4-<em>n</em>-Hexylbenzoic acid;<em>p</em>-<em>n</em>-Hexylbenzoic acid;NSC 172887",
    "duplicated_cas_no": "",
    "SMILES": "C(O)(=O)C1=CC=C(CCCCCC)C=C1",
    "meta_data": {
        "InChI": "InChI=1S/C13H18O2/c1-2-3-4-5-6-11-7-9-12(10-8-11)13(14)15/h7-10H,2-6H2,1H3,(H,14,15)",
        "InChIKey": null,
        "Canonical SMILES": "O=C(O)C1=CC=C(C=C1)CCCCCC",
        "Molecular Formula": "C<sub>13</sub>H<sub>18</sub>O<sub>2</sub>",
        "Molecular Mass": "206.28",
        "Melting Point": "97 °C"
    }
}