{
    "cas_no": "87-32-1",
    "key_name": "<em>N</em>-Acetyl-<span class=\"text-smallcaps\">DL</span>-tryptophan",
    "cn_name": "N-乙酰-DL-色氨酸;",
    "alternate_name": "Tryptophan, <em>N</em>-acetyl-;Tryptophan, <em>N</em>-acetyl-, <span class=\"text-smallcaps\">DL</span>-;<span class=\"text-smallcaps\">DL</span>-Tryptophan, <em>N</em>-acetyl-;<em>N</em>-Acetyltryptophan;<em>dl</em>-α-Acetylamino-3-indolepropionic acid;<em>N</em>-Acetyl-<span class=\"text-smallcaps\">DL</span>-tryptophan;<span class=\"text-smallcaps\">DL</span>-Acetyltryptophan;<span class=\"text-smallcaps\">DL</span>-<em>N</em>-Acetyltryptophan;Acetyl-<span class=\"text-smallcaps\">DL</span>-tryptophan;(<em>RS</em>)-<em>N</em>-Acetyltryptophan;NSC 49124;2-Acetamido-3-(1<em>H</em>-indol-3-yl)propanoic acid;Ac-<em>x</em>-trp-oh",
    "duplicated_cas_no": "10385-85-0",
    "SMILES": "C(C(NC(C)=O)C(O)=O)C=1C=2C(NC1)=CC=CC2",
    "meta_data": {
        "InChI": "InChI=1S/C13H14N2O3/c1-8(16)15-12(13(17)18)6-9-7-14-11-5-3-2-4-10(9)11/h2-5,7,12,14H,6H2,1H3,(H,15,16)(H,17,18)",
        "InChIKey": null,
        "Canonical SMILES": "O=C(O)C(NC(=O)C)CC1=CNC=2C=CC=CC21",
        "Molecular Formula": "C<sub>13</sub>H<sub>14</sub>N<sub>2</sub>O<sub>3</sub>",
        "Molecular Mass": "246.26",
        "Melting Point": "205-206 °C"
    }
}