{
    "cas_no": "684-93-5",
    "key_name": "<em>N</em>-Methyl-<em>N</em>-nitrosourea",
    "cn_name": "N-甲基-N-亚硝基脲;1-甲基-1-亚硝基脲;",
    "alternate_name": "Urea, <em>N</em>-methyl-<em>N</em>-nitroso-;Urea, 1-methyl-1-nitroso-;<em>N</em>-Methyl-<em>N</em>-nitrosourea;<em>N</em>-Nitroso-<em>N</em>-methylurea;Methylnitrosourea;1-Methyl-1-nitrosourea;1-Nitroso-1-methylurea;NSC 23909;<em>N</em>-Nitroso-<em>N</em>-methylcarbamide;MNU;Nitrosomethylurea;NMM;NMU;NMH",
    "duplicated_cas_no": "126742-50-5;820-60-0",
    "SMILES": "N(C(N)=O)(N=O)C",
    "meta_data": {
        "InChI": "InChI=1S/C2H5N3O2/c1-5(4-7)2(3)6/h1H3,(H2,3,6)",
        "InChIKey": null,
        "Canonical SMILES": "O=NN(C(=O)N)C",
        "Molecular Formula": "C<sub>2</sub>H<sub>5</sub>N<sub>3</sub>O<sub>2</sub>",
        "Molecular Mass": "103.08",
        "Melting Point": "124 °C (decomp)"
    }
}