{
    "cas_no": "17194-00-2",
    "key_name": "Barium hydroxide",
    "cn_name": null,
    "alternate_name": "Barium hydroxide (Ba(OH)<sub>2</sub>);Barium hydroxide;Caustic baryta;Barium dihydroxide",
    "duplicated_cas_no": "1304-17-2",
    "SMILES": "[Ba](O)O",
    "meta_data": {
        "InChI": "InChI=1S/Ba.2H2O/h;2*1H2/q+2;;/p-2",
        "InChIKey": null,
        "Canonical SMILES": "O[Ba]O",
        "Molecular Formula": "BaH<sub>2</sub>O<sub>2</sub>",
        "Molecular Mass": "",
        "Melting Point": "408 °C",
        "Density": "1.025 g/cm³"
    }
}