{
    "cas_no": "33522-95-1",
    "key_name": "(-)-Noroxymorphone",
    "cn_name": null,
    "alternate_name": "Morphinan-6-one, 4,5-epoxy-3,14-dihydroxy-, (5α)-;Morphinan-6-one, 4,5α-epoxy-3,14-dihydroxy-;Normorphinone, 7,8-dihydro-14-hydroxy-;(5α)-4,5-Epoxy-3,14-dihydroxymorphinan-6-one;7,8-Dihydro-14-hydroxynormorphinone;14-Hydroxydihydronormorphinone;Noroxymorphone;EN 3169;(-)-Noroxymorphone",
    "duplicated_cas_no": "",
    "SMILES": "O[C@]12[C@@]34C=5C(O[C@]3(C(=O)CC1)[H])=C(O)C=CC5C[C@]2(NCC4)[H]",
    "meta_data": {
        "InChI": "InChI=1S/C16H17NO4/c18-9-2-1-8-7-11-16(20)4-3-10(19)14-15(16,5-6-17-11)12(8)13(9)21-14/h1-2,11,14,17-18,20H,3-7H2/t11-,14+,15+,16-/m1/s1",
        "InChIKey": null,
        "Canonical SMILES": "O=C1CCC2(O)C3NCCC42C5=C(OC14)C(O)=CC=C5C3",
        "Molecular Formula": "C<sub>16</sub>H<sub>17</sub>NO<sub>4</sub>",
        "Molecular Mass": "287.31",
        "Melting Point": "310-313 °C (decomp)"
    }
}