{
    "cas_no": "1210-34-0",
    "key_name": "Dibenzosuberol",
    "cn_name": "二苯并噻唑;二苯环庚醇;",
    "alternate_name": "5<em>H</em>-Dibenzo[<em>a</em>,<em>d</em>]cyclohepten-5-ol, 10,11-dihydro-;10,11-Dihydro-5<em>H</em>-dibenzo[<em>a</em>,<em>d</em>]cyclohepten-5-ol;5-Hydroxy-10,11-dihydro-5<em>H</em>-dibenzo[<em>a</em>,<em>d</em>]cycloheptene;Dibenzosuberol;NSC 86157",
    "duplicated_cas_no": "",
    "SMILES": "OC1C=2C(CCC=3C1=CC=CC3)=CC=CC2",
    "meta_data": {
        "InChI": "InChI=1S/C15H14O/c16-15-13-7-3-1-5-11(13)9-10-12-6-2-4-8-14(12)15/h1-8,15-16H,9-10H2",
        "InChIKey": null,
        "Canonical SMILES": "OC1C=2C=CC=CC2CCC=3C=CC=CC31",
        "Molecular Formula": "C<sub>15</sub>H<sub>14</sub>O",
        "Molecular Mass": "210.27",
        "Melting Point": "93 °C"
    }
}