{
    "cas_no": "2253-73-8",
    "key_name": "Isopropyl isothiocyanate",
    "cn_name": "异硫氰酸异丙酯;",
    "alternate_name": "Propane, 2-isothiocyanato-;Isothiocyanic acid, isopropyl ester;2-Isothiocyanatopropane;Isopropyl isothiocyanate;2-Propyl isothiocyanate;Putranjivin;Putranjivine;Isopropyl thioisocyanate",
    "duplicated_cas_no": "",
    "SMILES": "N(C(C)C)=C=S",
    "meta_data": {
        "InChI": "InChI=1S/C4H7NS/c1-4(2)5-3-6/h4H,1-2H3",
        "InChIKey": null,
        "Canonical SMILES": "S=C=NC(C)C",
        "Molecular Formula": "C<sub>4</sub>H<sub>7</sub>NS",
        "Molecular Mass": "101.17",
        "Boiling Point": "138 °C",
        "Density": "0.9475 g/cm³ @ Temp: 20 °C"
    }
}