{
    "cas_no": "35543-24-9",
    "key_name": "Buflomedil hydrochloride",
    "cn_name": "盐酸丁咯地尔;4-(1-吡咯烷基)-1-(2,4,6-三甲氧基苯基)-1-丁酮盐酸盐;",
    "alternate_name": "1-Butanone, 4-(1-pyrrolidinyl)-1-(2,4,6-trimethoxyphenyl)-, hydrochloride (1:1);1-Butanone, 4-(1-pyrrolidinyl)-1-(2,4,6-trimethoxyphenyl)-, hydrochloride;LL 1656;Buflomedil hydrochloride;Irrodan R;Fonzylane;Buflocit;Lofton;Buflan;Provas;Loftyl;Bufedil;Irrodan;Buflonat;1-[3-(2,4,6-Trimethoxybenzoyl)Propyl]PyrrolidiniumChloride",
    "duplicated_cas_no": "",
    "SMILES": "C(CCCN1CCCC1)(=O)C2=C(OC)C=C(OC)C=C2OC.Cl",
    "meta_data": {
        "InChI": "InChI=1S/C17H25NO4.ClH/c1-20-13-11-15(21-2)17(16(12-13)22-3)14(19)7-6-10-18-8-4-5-9-18;/h11-12H,4-10H2,1-3H3;1H",
        "InChIKey": null,
        "Canonical SMILES": "Cl.O=C(C=1C(OC)=CC(OC)=CC1OC)CCCN2CCCC2",
        "Molecular Formula": "C<sub>17</sub>H<sub>25</sub>NO<sub>4</sub>.ClH",
        "Molecular Mass": "",
        "Melting Point": "192-193 °C"
    }
}