{
    "cas_no": "126-86-3",
    "key_name": "2,4,7,9-Tetramethyl-5-decyne-4,7-diol",
    "cn_name": "2,4,7,9-四甲基-5-癸炔-4,7-二醇;",
    "alternate_name": "5-Decyne-4,7-diol, 2,4,7,9-tetramethyl-;2,4,7,9-Tetramethyl-5-decyne-4,7-diol;Surfynol 104;Surfynol 104A;Surfynol 104E;1,4-Diisobutyl-1,4-dimethylbutynediol;Surfynol TG;Surfynol 104H;Surfynol 104PA;Olfine STG-E;Surfynol CT 111;Surfynol 104BC;NSC 5630;Olfine AK 02;2,4,7,9-Tetramethyl-5-decyn-4,7-diol;Acetylenol E 00;Olfine PD 301;PD 301;104E;Zetasperse 1200;Surfynol PG 50;LA-W 1092;Olfine PD 001;104H;Surfadol 541;TMDDO;TMDD;GS 850PA;Tuyile FS 204;Surfynol DF 104E;PD 001;104BC;Surfadol 541DPM;DF 104E;TMDD-BG 52",
    "duplicated_cas_no": "8043-35-4;37211-43-1;61879-19-4;149079-55-0;166737-17-3;170006-53-8;171023-04-4;504414-59-9;845642-79-7;867273-13-0;872345-61-4;2414315-97-0",
    "SMILES": "C(C#CC(CC(C)C)(C)O)(CC(C)C)(C)O",
    "meta_data": {
        "InChI": "InChI=1S/C14H26O2/c1-11(2)9-13(5,15)7-8-14(6,16)10-12(3)4/h11-12,15-16H,9-10H2,1-6H3",
        "InChIKey": null,
        "Canonical SMILES": "OC(C#CC(O)(C)CC(C)C)(C)CC(C)C",
        "Molecular Formula": "C<sub>14</sub>H<sub>26</sub>O<sub>2</sub>",
        "Molecular Mass": "226.35",
        "Boiling Point": "153-157 °C @ Press: 20 Torr",
        "Melting Point": "56-60 °C"
    }
}