{
    "cas_no": "533-58-4",
    "key_name": "2-Iodophenol",
    "cn_name": "2-碘苯酚;邻碘苯酚;",
    "alternate_name": "Phenol, 2-iodo-;Phenol, <em>o</em>-iodo-;2-Iodophenol;<em>o</em>-Iodophenol;NSC 9245;2-Hydroxyiodobenzene;1-Iodo-2-hydroxybenzene",
    "duplicated_cas_no": "",
    "SMILES": "IC1=C(O)C=CC=C1",
    "meta_data": {
        "InChI": "InChI=1S/C6H5IO/c7-5-3-1-2-4-6(5)8/h1-4,8H",
        "InChIKey": null,
        "Canonical SMILES": "IC=1C=CC=CC1O",
        "Molecular Formula": "C<sub>6</sub>H<sub>5</sub>IO",
        "Molecular Mass": "220.01",
        "Boiling Point": "186-187 °C",
        "Melting Point": "43 °C",
        "Density": "1.8757 g/cm³ @ Temp: 30 °C"
    }
}