{
    "cas_no": "100-53-8",
    "key_name": "Benzyl mercaptan",
    "cn_name": "苄硫醇;苄基硫醇;",
    "alternate_name": "Benzenemethanethiol;α-Toluenethiol;Benzyl mercaptan;Benzylthiol;Thiobenzyl alcohol;Phenylmethanethiol;α-Mercaptotoluene;(Mercaptomethyl)benzene;Phenylmethyl mercaptan;α-Toluolthiol;α-Tolyl mercaptan;NSC 41897;GMP 800;Benzyl hydrosulfide",
    "duplicated_cas_no": "1429189-88-7",
    "SMILES": "C(S)C1=CC=CC=C1",
    "meta_data": {
        "InChI": "InChI=1S/C7H8S/c8-6-7-4-2-1-3-5-7/h1-5,8H,6H2",
        "InChIKey": null,
        "Canonical SMILES": "SCC=1C=CC=CC1",
        "Molecular Formula": "C<sub>7</sub>H<sub>8</sub>S",
        "Molecular Mass": "124.20",
        "Boiling Point": "194-195 °C",
        "Melting Point": "-30 °C",
        "Density": "1.05 g/cm³"
    }
}