{
    "cas_no": "1877-73-2",
    "key_name": "3-Nitrophenylacetic acid",
    "cn_name": "3-硝基苯乙酸;间硝基苯乙酸;",
    "alternate_name": "Benzeneacetic acid, 3-nitro-;Acetic acid, (<em>m</em>-nitrophenyl)-;3-Nitrobenzeneacetic acid;3-Nitrophenylacetic acid;(<em>m</em>-Nitrophenyl)acetic acid;2-(3-Nitrophenyl)acetic acid;NSC 93911",
    "duplicated_cas_no": "",
    "SMILES": "C(C(O)=O)C1=CC(N(=O)=O)=CC=C1",
    "meta_data": {
        "InChI": "InChI=1S/C8H7NO4/c10-8(11)5-6-2-1-3-7(4-6)9(12)13/h1-4H,5H2,(H,10,11)",
        "InChIKey": null,
        "Canonical SMILES": "O=C(O)CC=1C=CC=C(C1)N(=O)=O",
        "Molecular Formula": "C<sub>8</sub>H<sub>7</sub>NO<sub>4</sub>",
        "Molecular Mass": "181.15",
        "Melting Point": "117-120 °C"
    }
}