{
    "cas_no": "16889-10-4",
    "key_name": "2-[2-[4-[(2-Cyanoethyl)ethylamino]phenyl]diazenyl]-5-nitrobenzonitrile",
    "cn_name": null,
    "alternate_name": "Benzonitrile, 2-[2-[4-[(2-cyanoethyl)ethylamino]phenyl]diazenyl]-5-nitro-;Benzonitrile, 2-[[<em>p</em>-[(2-cyanoethyl)ethylamino]phenyl]azo]-5-nitro-;Benzonitrile, 2-[[4-[(2-cyanoethyl)ethylamino]phenyl]azo]-5-nitro-;2-[2-[4-[(2-Cyanoethyl)ethylamino]phenyl]diazenyl]-5-nitrobenzonitrile;2-Cyano-4-nitro-4′-(ethyl-2-cyanoethylamino)azobenzene;Celliton Red GFL;C.I. Disperse Red 73;Palanil Rubine FL;Foron Rubine SE-GFL;Artisil Rubine GFL;Disperse Red 73;Tersetile Rubine RL;Ostacet Rubine SE-LB;Fantagen Rubine RL;Dianix Rubine FG-SE;Sumikaron Rubine SE-GL;Kayalon Polyester Rubine GL-SE;Synten Rubine P-GL;Disperse Rubine GFL;Miketon Polyester Rubine GL;Kayalon Polyester Rubine GL-SE 200;Disperse Red SE-GFL;Disperse Red SE 4RB;Cbene Rubine GFL;Disperse Ruby Red GFL;Disperse Rubine SE-GFL;Rubine GFL;Samaron Red HBL 150;Samaron Red HBL;Foron Rubine RD-GFL;Disperse Scarlet SE-GFL;Disperse Rubine SE-GFL 200;Rubine SE/GFL",
    "duplicated_cas_no": "12270-46-1;62996-36-5;67426-80-6;162163-77-1;1188540-31-9;1352573-57-9;1498991-95-9",
    "SMILES": "N(=NC1=CC=C(N(CCC#N)CC)C=C1)C2=C(C#N)C=C(N(=O)=O)C=C2",
    "meta_data": {
        "InChI": "InChI=1S/C18H16N6O2/c1-2-23(11-3-10-19)16-6-4-15(5-7-16)21-22-18-9-8-17(24(25)26)12-14(18)13-20/h4-9,12H,2-3,11H2,1H3",
        "InChIKey": null,
        "Canonical SMILES": "N#CC1=CC(=CC=C1N=NC2=CC=C(C=C2)N(CC)CCC#N)N(=O)=O",
        "Molecular Formula": "C<sub>18</sub>H<sub>16</sub>N<sub>6</sub>O<sub>2</sub>",
        "Molecular Mass": "348.36",
        "Melting Point": "149-150 °C"
    }
}