{
    "cas_no": "4002-83-9",
    "key_name": "1-Methyl-1<em>H</em>-indazole-3-carboxaldehyde",
    "cn_name": "1-甲基-1H-吲唑-3-甲醛;1-甲基-1H-吲唑-3-甲醛;",
    "alternate_name": "1<em>H</em>-Indazole-3-carboxaldehyde, 1-methyl-;1-Methyl-1<em>H</em>-indazole-3-carboxaldehyde;3-Formyl-1-methylindazole;1-Methyl-1<em>H</em>-indazole-3-carbaldehyde",
    "duplicated_cas_no": "",
    "SMILES": "C(=O)C=1C=2C(N(C)N1)=CC=CC2",
    "meta_data": {
        "InChI": "InChI=1S/C9H8N2O/c1-11-9-5-3-2-4-7(9)8(6-12)10-11/h2-6H,1H3",
        "InChIKey": null,
        "Canonical SMILES": "O=CC1=NN(C=2C=CC=CC12)C",
        "Molecular Formula": "C<sub>9</sub>H<sub>8</sub>N<sub>2</sub>O",
        "Molecular Mass": "160.17",
        "Melting Point": "47-48 °C"
    }
}