{
    "cas_no": "52808-36-3",
    "key_name": "1-(2-Chloroethoxy)-2-methoxyethane",
    "cn_name": "1-(2-氯乙氧基)-2-甲氧基乙烷;甲氧乙基氯乙基醚;",
    "alternate_name": "Ethane, 1-(2-chloroethoxy)-2-methoxy-;1-(2-Chloroethoxy)-2-methoxyethane;2-(2-Methoxyethoxy)ethyl chloride;2-Chloroethyl 2-methoxyethyl ether;1-Chloro-3,6-dioxaheptane;2-(2-Chloroethoxy)ethyl methyl ether;3,6-Dioxaheptyl chloride;1-Chloro-2-(2-methoxyethoxy)ethane;NSC 9056;Ethylene glycol 2-chloroethyl ether methyl ether",
    "duplicated_cas_no": "",
    "SMILES": "C(OCCCl)COC",
    "meta_data": {
        "InChI": "InChI=1S/C5H11ClO2/c1-7-4-5-8-3-2-6/h2-5H2,1H3",
        "InChIKey": null,
        "Canonical SMILES": "ClCCOCCOC",
        "Molecular Formula": "C<sub>5</sub>H<sub>11</sub>ClO<sub>2</sub>",
        "Molecular Mass": "138.59",
        "Boiling Point": "169 °C @ Press: 744 Torr",
        "Density": "1.0562 g/cm³ @ Temp: 16 °C"
    }
}