{
    "cas_no": "507-70-0",
    "key_name": "<em>endo</em>-Borneol",
    "cn_name": "2-茨醇;冰片;龙胆;",
    "alternate_name": "Bicyclo[2.2.1]heptan-2-ol, 1,7,7-trimethyl-, (1<em>R</em>,2<em>S</em>,4<em>R</em>)-<em>rel</em>-;Borneol;Bicyclo[2.2.1]heptan-2-ol, 1,7,7-trimethyl-, <em>endo</em>-;<em>rel</em>-(1<em>R</em>,2<em>S</em>,4<em>R</em>)-1,7,7-Trimethylbicyclo[2.2.1]heptan-2-ol;Camphol;<em>endo</em>-Borneol;<em>endo</em>-2-Hydroxy-1,7,7-trimethylnorbornane;2-Borneol;2-<em>endo</em>-Bornyl alcohol;<em>dl</em>-Borneol;(±)-Borneol;<em>endo</em>-(±)-Bornan-2-ol;NSC 60223;<em>rel</em>-(1<em>S</em>,2<em>R</em>,4<em>S</em>)-1,7,7-Trimethylbicyclo[2.2.1]heptan-2-ol",
    "duplicated_cas_no": "6627-72-1;778604-05-0;880145-24-4",
    "SMILES": "C[C@@]12C(C)(C)[C@@](C[C@@H]1O)(CC2)[H]",
    "meta_data": {
        "InChI": "InChI=1/C10H18O/c1-9(2)7-4-5-10(9,3)8(11)6-7/h7-8,11H,4-6H2,1-3H3/t7-,8+,10+/s2",
        "InChIKey": null,
        "Canonical SMILES": "OC1CC2CCC1(C)C2(C)C",
        "Molecular Formula": "C<sub>10</sub>H<sub>18</sub>O",
        "Molecular Mass": "154.25",
        "Boiling Point": "213.2 °C",
        "Melting Point": "204 °C",
        "Density": "0.9864 g/cm³ @ Temp: 20 °C"
    }
}