{
    "cas_no": "111-21-7",
    "key_name": "1,8-Diacetoxy-3,6-dioxaoctane",
    "cn_name": null,
    "alternate_name": "Ethanol, 2,2′-[1,2-ethanediylbis(oxy)]bis-, 1,1′-diacetate;Triethylene glycol, diacetate;Ethanol, 2,2′-[1,2-ethanediylbis(oxy)]bis-, diacetate;Triglycol diacetate;Estol 1593;NSC 2591;1,8-Diacetoxy-3,6-dioxaoctane;Clextral BC 21;2-[2-(2-Acetyloxyethoxy)ethoxy]ethyl acetate",
    "duplicated_cas_no": "",
    "SMILES": "C(OC(C)=O)COCCOCCOC(C)=O",
    "meta_data": {
        "InChI": "InChI=1S/C10H18O6/c1-9(11)15-7-5-13-3-4-14-6-8-16-10(2)12/h3-8H2,1-2H3",
        "InChIKey": null,
        "Canonical SMILES": "O=C(OCCOCCOCCOC(=O)C)C",
        "Molecular Formula": "C<sub>10</sub>H<sub>18</sub>O<sub>6</sub>",
        "Molecular Mass": "234.25",
        "Boiling Point": "286 °C",
        "Melting Point": "-50 °C",
        "Density": "1.112 g/cm³ @ Temp: 25 °C"
    }
}