{
    "cas_no": "42831-50-5",
    "key_name": "5-Methylisoxazole-4-carboxylic acid",
    "cn_name": "5-甲基异恶唑-4-甲酸;5-甲基异噁唑-4-甲酸;",
    "alternate_name": "4-Isoxazolecarboxylic acid, 5-methyl-;5-Methyl-4-isoxazolecarboxylic acid;5-Methylisoxazole-4-carboxylic acid;5-Methyl-1,2-oxazole-4-carboxylic acid",
    "duplicated_cas_no": "",
    "SMILES": "C(O)(=O)C1=C(C)ON=C1",
    "meta_data": {
        "InChI": "InChI=1S/C5H5NO3/c1-3-4(5(7)8)2-6-9-3/h2H,1H3,(H,7,8)",
        "InChIKey": null,
        "Canonical SMILES": "O=C(O)C=1C=NOC1C",
        "Molecular Formula": "C<sub>5</sub>H<sub>5</sub>NO<sub>3</sub>",
        "Molecular Mass": "127.10",
        "Melting Point": "146-147 °C"
    }
}