{
    "cas_no": "10596-22-2",
    "key_name": "Phosphonic acid, (dichloromethylene)bis-, tetrakis(1-methylethyl) ester",
    "cn_name": null,
    "alternate_name": "Phosphonic acid, (dichloromethylene)bis-, tetrakis(1-methylethyl) ester;Phosphonic acid, (dichloromethylene)di-, tetraisopropyl ester;Tetraisopropyl (dichloromethylene)diphosphonate;Tetraisopropyl (dichloromethylene)bisphosphonate;Dichloromethylenebisphosphonate tetraisopropyl ester;2-[[Dichloro-di(propan-2-yloxy)phosphorylmethyl]-propan-2-yloxyphosphoryl]oxypropane",
    "duplicated_cas_no": "1087402-20-7",
    "SMILES": "C(P(OC(C)C)(OC(C)C)=O)(P(OC(C)C)(OC(C)C)=O)(Cl)Cl",
    "meta_data": {
        "InChI": "InChI=1S/C13H28Cl2O6P2/c1-9(2)18-22(16,19-10(3)4)13(14,15)23(17,20-11(5)6)21-12(7)8/h9-12H,1-8H3",
        "InChIKey": null,
        "Canonical SMILES": "O=P(OC(C)C)(OC(C)C)C(Cl)(Cl)P(=O)(OC(C)C)OC(C)C",
        "Molecular Formula": "C<sub>13</sub>H<sub>28</sub>Cl<sub>2</sub>O<sub>6</sub>P<sub>2</sub>",
        "Molecular Mass": "413.21",
        "Melting Point": "49.8-51.0 °C"
    }
}