{
    "cas_no": "62234-37-1",
    "key_name": "3-Amino-<em>N</em>-[(phenylmethoxy)carbonyl]-<span class=\"text-smallcaps\">D</span>-alanine",
    "cn_name": "N(α)-Z-D-2,3-二氨基丙酸;",
    "alternate_name": "<span class=\"text-smallcaps\">D</span>-Alanine, 3-amino-<em>N</em>-[(phenylmethoxy)carbonyl]-;3-Amino-<em>N</em>-[(phenylmethoxy)carbonyl]-<span class=\"text-smallcaps\">D</span>-alanine;(<em>R</em>)-3-Amino-2-benzyloxycarbonylaminopropanoic acid;(2R)-3-Amino-2-(phenylmethoxycarbonylamino)propanoic acid;(R)-3-Amino-2-(((benzyloxy)carbonyl)amino)propanoic acid",
    "duplicated_cas_no": "",
    "SMILES": "C(OC(N[C@@H](C(O)=O)CN)=O)C1=CC=CC=C1",
    "meta_data": {
        "InChI": "InChI=1S/C11H14N2O4/c12-6-9(10(14)15)13-11(16)17-7-8-4-2-1-3-5-8/h1-5,9H,6-7,12H2,(H,13,16)(H,14,15)/t9-/m1/s1",
        "InChIKey": null,
        "Canonical SMILES": "O=C(OCC=1C=CC=CC1)NC(C(=O)O)CN",
        "Molecular Formula": "C<sub>11</sub>H<sub>14</sub>N<sub>2</sub>O<sub>4</sub>",
        "Molecular Mass": "238.24",
        "Melting Point": "205-208 °C"
    }
}