{
    "cas_no": "943-14-6",
    "key_name": "2-Bromo-5-nitrobenzoic acid",
    "cn_name": "2-溴-5-硝基苯甲酸;",
    "alternate_name": "Benzoic acid, 2-bromo-5-nitro-;2-Bromo-5-nitrobenzoic acid;NSC 52211",
    "duplicated_cas_no": "",
    "SMILES": "C(O)(=O)C1=CC(N(=O)=O)=CC=C1Br",
    "meta_data": {
        "InChI": "InChI=1S/C7H4BrNO4/c8-6-2-1-4(9(12)13)3-5(6)7(10)11/h1-3H,(H,10,11)",
        "InChIKey": null,
        "Canonical SMILES": "O=C(O)C1=CC(=CC=C1Br)N(=O)=O",
        "Molecular Formula": "C<sub>7</sub>H<sub>4</sub>BrNO<sub>4</sub>",
        "Molecular Mass": "246.01",
        "Melting Point": "180-181 °C"
    }
}