{
    "cas_no": "460746-47-8",
    "key_name": "4′-Hydroxy-3′-iodo[1,1′-biphenyl]-4-carbonitrile",
    "cn_name": null,
    "alternate_name": "[1,1′-Biphenyl]-4-carbonitrile, 4′-hydroxy-3′-iodo-;4′-Hydroxy-3′-iodo[1,1′-biphenyl]-4-carbonitrile;4′-Hydroxy-3′-iodobiphenyl-4-carbonitrile",
    "duplicated_cas_no": "",
    "SMILES": "IC=1C=C(C2=CC=C(C#N)C=C2)C=CC1O",
    "meta_data": {
        "InChI": "InChI=1S/C13H8INO/c14-12-7-11(5-6-13(12)16)10-3-1-9(8-15)2-4-10/h1-7,16H",
        "InChIKey": null,
        "Canonical SMILES": "N#CC=1C=CC(=CC1)C2=CC=C(O)C(I)=C2",
        "Molecular Formula": "C<sub>13</sub>H<sub>8</sub>INO",
        "Molecular Mass": "321.11",
        "Melting Point": "166-167 °C"
    }
}