{
    "cas_no": "2799-21-5",
    "key_name": "(-)-3-Pyrrolidinol",
    "cn_name": "(R)-3-吡咯烷醇;(R)-3-羟基吡咯烷;",
    "alternate_name": "3-Pyrrolidinol, (3<em>R</em>)-;3-Pyrrolidinol, (<em>R</em>)-;(3<em>R</em>)-3-Pyrrolidinol;(<em>R</em>)-3-Pyrrolidinol;(<em>R</em>)-3-Hydroxypyrrolidine;3-(<em>R</em>)-Pyrrolidinol;(3<em>R</em>)-3-Hydroxypyrrolidine;3-(<em>R</em>)-Hydroxypyrrolidine;(3<em>R</em>)-Pyrrolidin-3-ol;(3R)-3-Pyrrolidinol;(<em>R</em>)-(-)-3-Pyrrolidinol;(-)-3-Pyrrolidinol",
    "duplicated_cas_no": "",
    "SMILES": "O[C@@H]1CCNC1",
    "meta_data": {
        "InChI": "InChI=1S/C4H9NO/c6-4-1-2-5-3-4/h4-6H,1-3H2/t4-/m1/s1",
        "InChIKey": null,
        "Canonical SMILES": "OC1CNCC1",
        "Molecular Formula": "C<sub>4</sub>H<sub>9</sub>NO",
        "Molecular Mass": "87.12",
        "Boiling Point": "108-110 °C @ Press: 8 Torr"
    }
}