{
    "cas_no": "608-25-3",
    "key_name": "2-Methylresorcinol",
    "cn_name": "2,6-二羟基甲苯;2-甲基间苯二酚;",
    "alternate_name": "1,3-Benzenediol, 2-methyl-;Resorcinol, 2-methyl-;2-Methyl-1,3-benzenediol;Toluene-2,6-diol;2-Methylresorcinol;2-Methylresorcin;1,3-Dihydroxy-2-methylbenzene;2,6-Dihydroxytoluene;2-Methyl-1,3-dihydroxybenzene;NSC 66524;Rodol MRP",
    "duplicated_cas_no": "",
    "SMILES": "CC1=C(O)C=CC=C1O",
    "meta_data": {
        "InChI": "InChI=1S/C7H8O2/c1-5-6(8)3-2-4-7(5)9/h2-4,8-9H,1H3",
        "InChIKey": null,
        "Canonical SMILES": "OC1=CC=CC(O)=C1C",
        "Molecular Formula": "C<sub>7</sub>H<sub>8</sub>O<sub>2</sub>",
        "Molecular Mass": "124.14",
        "Boiling Point": "264 °C",
        "Melting Point": "120 °C",
        "Density": "2.32 g/cm³"
    }
}