{
    "cas_no": "21516-68-7",
    "key_name": "Monascin",
    "cn_name": null,
    "alternate_name": "2<em>H</em>-Furo[3,2-<em>g</em>][2]benzopyran-2,9(3<em>H</em>)-dione, 3a,4,8,9a-tetrahydro-9a-methyl-3-(1-oxohexyl)-6-(1<em>E</em>)-1-propen-1-yl-, (3<em>S</em>,3a<em>R</em>,9a<em>R</em>)-;2<em>H</em>-Furo[3,2-<em>g</em>][2]benzopyran-2,9(3<em>H</em>)-dione, 3-hexanoyl-3a,4,8,9a-tetrahydro-9a-methyl-6-propenyl-;Monascin;2<em>H</em>-Furo[3,2-<em>g</em>][2]benzopyran-2,9(3<em>H</em>)-dione, 3a,4,8,9a-tetrahydro-9a-methyl-3-(1-oxohexyl)-6-(1-propenyl)-, [3<em>S</em>-[3α,3aα,6(<em>E</em>),9aβ]]-;2<em>H</em>-Furo[3,2-<em>g</em>][2]benzopyran-2,9(3<em>H</em>)-dione, 3a,4,8,9a-tetrahydro-9a-methyl-3-(1-oxohexyl)-6-(1<em>E</em>)-1-propenyl-, (3<em>S</em>,3a<em>R</em>,9a<em>R</em>)-;(3<em>S</em>,3a<em>R</em>,9a<em>R</em>)-3a,4,8,9a-Tetrahydro-9a-methyl-3-(1-oxohexyl)-6-(1<em>E</em>)-1-propen-1-yl-2<em>H</em>-furo[3,2-<em>g</em>][2]benzopyran-2,9(3<em>H</em>)-dione;Monascoflavin;Monascoflavine",
    "duplicated_cas_no": "26939-54-8",
    "SMILES": "C[C@]12[C@@]([C@@H](C(CCCCC)=O)C(=O)O1)(CC3=C(C2=O)COC(/C=C/C)=C3)[H]",
    "meta_data": {
        "InChI": "InChI=1S/C21H26O5/c1-4-6-7-9-17(22)18-16-11-13-10-14(8-5-2)25-12-15(13)19(23)21(16,3)26-20(18)24/h5,8,10,16,18H,4,6-7,9,11-12H2,1-3H3/b8-5+/t16-,18+,21-/m1/s1",
        "InChIKey": null,
        "Canonical SMILES": "O=C1OC2(C(=O)C3=C(C=C(OC3)C=CC)CC2C1C(=O)CCCCC)C",
        "Molecular Formula": "C<sub>21</sub>H<sub>26</sub>O<sub>5</sub>",
        "Molecular Mass": "358.43",
        "Melting Point": "145 °C"
    }
}