{
    "cas_no": "2835-98-5",
    "key_name": "2-Amino-5-methylphenol",
    "cn_name": "6-氨基间甲酚;4-氨基间甲酚;3-甲基-6-氨基苯酚;2-氨基-5-甲基苯酚;",
    "alternate_name": "Phenol, 2-amino-5-methyl-;<em>m</em>-Cresol, 6-amino-;2-Amino-5-methylphenol;6-Amino-<em>m</em>-cresol;2-Hydroxy-<em>p</em>-toluidine;6-Amino-3-methylphenol;6-Amino-3-cresol;5-Methyl-2-aminophenol;2-Hydroxy-4-methylaniline;NSC 322874",
    "duplicated_cas_no": "",
    "SMILES": "OC1=C(N)C=CC(C)=C1",
    "meta_data": {
        "InChI": "InChI=1S/C7H9NO/c1-5-2-3-6(8)7(9)4-5/h2-4,9H,8H2,1H3",
        "InChIKey": null,
        "Canonical SMILES": "OC1=CC(=CC=C1N)C",
        "Molecular Formula": "C<sub>7</sub>H<sub>9</sub>NO",
        "Molecular Mass": "123.15",
        "Melting Point": "162 °C (decomp)"
    }
}