{
    "cas_no": "148-53-8",
    "key_name": "<em>o</em>-Vanillin",
    "cn_name": "邻香草醛;邻香兰素;2-羟基-3-甲氧基苯甲醛;",
    "alternate_name": "Benzaldehyde, 2-hydroxy-3-methoxy-;<em>m</em>-Anisaldehyde, 2-hydroxy-;<em>o</em>-Vanillin;2-Hydroxy-3-methoxybenzaldehyde;6-Formylguaiacol;3-Methoxy-2-hydroxybenzaldehyde;3-Methoxysalicylaldehyde;6-Formyl-2-methoxyphenol;2-Hydroxy-<em>m</em>-anisaldehyde;NC 005;2-Vanillin;NSC 2150;2-Hydroxyl-3-methoxybenzaldehyde;<em>o</em>-Vaniline",
    "duplicated_cas_no": "",
    "SMILES": "C(=O)C1=C(O)C(OC)=CC=C1",
    "meta_data": {
        "InChI": "InChI=1S/C8H8O3/c1-11-7-4-2-3-6(5-9)8(7)10/h2-5,10H,1H3",
        "InChIKey": null,
        "Canonical SMILES": "O=CC=1C=CC=C(OC)C1O",
        "Molecular Formula": "C<sub>8</sub>H<sub>8</sub>O<sub>3</sub>",
        "Molecular Mass": "152.15",
        "Boiling Point": "265.5 °C",
        "Melting Point": "44.5 °C",
        "Density": "1.2065 g/cm³ @ Temp: 50.6 °C"
    }
}