{
    "cas_no": "133-49-3",
    "key_name": "Pentachlorothiophenol",
    "cn_name": "五氯苯硫酚;塑解剂PCTP;五氯硫酚;",
    "alternate_name": "Benzenethiol, 2,3,4,5,6-pentachloro-;Benzenethiol, pentachloro-;2,3,4,5,6-Pentachlorobenzenethiol;Pentachlorobenzenethiol;RPA 6;Pentachlorothiophenol;AP;Struktol A 95;NSC 5578",
    "duplicated_cas_no": "",
    "SMILES": "ClC1=C(Cl)C(Cl)=C(S)C(Cl)=C1Cl",
    "meta_data": {
        "InChI": "InChI=1S/C6HCl5S/c7-1-2(8)4(10)6(12)5(11)3(1)9/h12H",
        "InChIKey": null,
        "Canonical SMILES": "ClC=1C(Cl)=C(Cl)C(S)=C(Cl)C1Cl",
        "Molecular Formula": "C<sub>6</sub>HCl<sub>5</sub>S",
        "Molecular Mass": "282.40",
        "Melting Point": "240 °C"
    }
}