{
    "cas_no": "465-16-7",
    "key_name": "Oleandrin",
    "cn_name": null,
    "alternate_name": "Card-20(22)-enolide, 16-(acetyloxy)-3-[(2,6-dideoxy-3-<em>O</em>-methyl-α-<span class=\"text-smallcaps\">L</span>-<em>arabino</em>-hexopyranosyl)oxy]-14-hydroxy-, (3β,5β,16β)-;Oleandrin;(3β,5β,16β)-16-(Acetyloxy)-3-[(2,6-dideoxy-3-<em>O</em>-methyl-α-<span class=\"text-smallcaps\">L</span>-<em>arabino</em>-hexopyranosyl)oxy]-14-hydroxycard-20(22)-enolide;Corrigen;Foliandrin;Folinerin;Oleandrine;Neriol;Neriostene;Neriolin;Oleandrigenin 3-<em>O</em>-α-<span class=\"text-smallcaps\">L</span>-oleandroside",
    "duplicated_cas_no": "28933-01-9;53177-88-1;53812-90-1",
    "SMILES": "O[C@@]12[C@@](C)([C@H]([C@@H](OC(C)=O)C1)C3=CC(=O)OC3)CC[C@]4([C@]2(CC[C@]5([C@]4(C)CC[C@H](O[C@H]6C[C@H](OC)[C@@H](O)[C@H](C)O6)C5)[H])[H])[H]",
    "meta_data": {
        "InChI": "InChI=1S/C32H48O9/c1-17-29(35)24(37-5)14-27(39-17)41-21-8-10-30(3)20(13-21)6-7-23-22(30)9-11-31(4)28(19-12-26(34)38-16-19)25(40-18(2)33)15-32(23,31)36/h12,17,20-25,27-29,35-36H,6-11,13-16H2,1-5H3/t17-,20+,21-,22-,23+,24-,25-,27-,28-,29-,30-,31+,32-/m0/s1",
        "InChIKey": null,
        "Canonical SMILES": "O=C1OCC(=C1)C2C(OC(=O)C)CC3(O)C4CCC5CC(OC6OC(C)C(O)C(OC)C6)CCC5(C)C4CCC23C",
        "Molecular Formula": "C<sub>32</sub>H<sub>48</sub>O<sub>9</sub>",
        "Molecular Mass": "576.72",
        "Melting Point": "250 °C"
    }
}