{
    "cas_no": "150281-47-3",
    "key_name": "4-(3-Pyrrolidinyl)pyridine",
    "cn_name": null,
    "alternate_name": "Pyridine, 4-(3-pyrrolidinyl)-;4-(3-Pyrrolidinyl)pyridine;3-(4-Pyridyl)pyrrolidine;4-(Pyrrolidin-3-yl)pyridine;3-(Pyridin-4-yl)pyrrolidine",
    "duplicated_cas_no": "",
    "SMILES": "C1(CCNC1)C=2C=CN=CC2",
    "meta_data": {
        "InChI": "InChI=1S/C9H12N2/c1-4-10-5-2-8(1)9-3-6-11-7-9/h1-2,4-5,9,11H,3,6-7H2",
        "InChIKey": null,
        "Canonical SMILES": "N=1C=CC(=CC1)C2CNCC2",
        "Molecular Formula": "C<sub>9</sub>H<sub>12</sub>N<sub>2</sub>",
        "Molecular Mass": "148.21",
        "Boiling Point": "112 °C @ Press: 2 Torr"
    }
}