{
    "cas_no": "27417-40-9",
    "key_name": "DMPD",
    "cn_name": "橡胶防老剂DTPD;N,N\"-二甲苯基对苯二胺;防老剂DTPD;",
    "alternate_name": "1,4-Benzenediamine, <em>N</em><sup>1</sup>,<em>N</em><sup>4</sup>-bis(methylphenyl)-;<em>p</em>-Phenylenediamine, <em>N</em>,<em>N</em>′-ditolyl-;1,4-Benzenediamine, <em>N</em>,<em>N</em>′-bis(methylphenyl)-;<em>N</em><sup>1</sup>,<em>N</em><sup>4</sup>-Bis(methylphenyl)-1,4-benzenediamine;<em>N</em>,<em>N</em>′-Ditolyl-<em>p</em>-phenylenediamine;<em>N</em>,<em>N</em>′-Ditolyl-1,4-phenylenediamine;<em>N</em>,<em>N</em>′-Bis(methylphenyl)-<em>p</em>-phenylenediamine;DMPD;<em>N</em>,<em>N</em>′-Di(monomethylphenyl)-<em>p</em>-phenylenediamine;<em>N</em>,<em>N</em>′-Bis(methylphenyl)-1,4-benzenediamine;DTPD",
    "duplicated_cas_no": "",
    "SMILES": "",
    "meta_data": {
        "InChI": "",
        "InChIKey": null,
        "Canonical SMILES": "",
        "Molecular Formula": "C<sub>20</sub>H<sub>20</sub>N<sub>2</sub>",
        "Molecular Mass": "",
        "Melting Point": "183.5-185.5 °C"
    }
}