{
    "cas_no": "4837-88-1",
    "key_name": "1-Methoxy-2-methyl-3-nitrobenzene",
    "cn_name": "2-甲基-3-硝基苯甲醚;",
    "alternate_name": "Benzene, 1-methoxy-2-methyl-3-nitro-;Anisole, 2-methyl-3-nitro-;1-Methoxy-2-methyl-3-nitrobenzene;2-Methoxy-6-nitrotoluene;2-Methyl-3-nitroanisole;6-Methoxy-2-nitrotoluene;3-Methoxy-2-methyl-1-nitrobenzene;3-Methoxy-2-methylnitrobenzene;3-Methoxyl-2-methyl-1-nitrobenzene",
    "duplicated_cas_no": "",
    "SMILES": "N(=O)(=O)C1=C(C)C(OC)=CC=C1",
    "meta_data": {
        "InChI": "InChI=1S/C8H9NO3/c1-6-7(9(10)11)4-3-5-8(6)12-2/h3-5H,1-2H3",
        "InChIKey": null,
        "Canonical SMILES": "O=N(=O)C=1C=CC=C(OC)C1C",
        "Molecular Formula": "C<sub>8</sub>H<sub>9</sub>NO<sub>3</sub>",
        "Molecular Mass": "167.16",
        "Melting Point": "54-56 °C"
    }
}