{
    "cas_no": "13078-82-5",
    "key_name": "Benzeneethanamine, 4-amino-, hydrochloride (1:2)",
    "cn_name": null,
    "alternate_name": "Benzeneethanamine, 4-amino-, hydrochloride (1:2);Phenethylamine, <em>p</em>-amino-, dihydrochloride;Benzeneethanamine, 4-amino-, dihydrochloride;4-(2-Aminoethyl)aniline dihydrochloride;4-Aminobenzeneethanamine dihydrochloride;4-Aminophenethylamine dihydrochloride;2-(4-Aminophenyl)ethylamine Dihydrochloride",
    "duplicated_cas_no": "",
    "SMILES": "C(CN)C1=CC=C(N)C=C1.Cl",
    "meta_data": {
        "InChI": "InChI=1S/C8H12N2.2ClH/c9-6-5-7-1-3-8(10)4-2-7;;/h1-4H,5-6,9-10H2;2*1H",
        "InChIKey": null,
        "Canonical SMILES": "Cl.NC1=CC=C(C=C1)CCN",
        "Molecular Formula": "C<sub>8</sub>H<sub>12</sub>N<sub>2</sub>.2ClH",
        "Molecular Mass": "",
        "Melting Point": "296 °C (decomp)"
    }
}