{
    "cas_no": "40835-96-9",
    "key_name": "1<em>H</em>-Perimidin-2-amine, hydrobromide (1:1)",
    "cn_name": "2-胺基萘嵌间二氮(杂)苯氯化氢;",
    "alternate_name": "1<em>H</em>-Perimidin-2-amine, hydrobromide (1:1);1<em>H</em>-Perimidin-2-amine, monohydrobromide;Perimidylammonium bromide;2-Aminoperimidine hydrobromide;2-Perimidylammonium bromide;2-Aminoperimidinium bromide;1<em>H</em>-Perimidin-2-amine hydrobromide",
    "duplicated_cas_no": "",
    "SMILES": "NC=1NC=2C=3C(N1)=CC=CC3C=CC2.Br",
    "meta_data": {
        "InChI": "InChI=1S/C11H9N3.BrH/c12-11-13-8-5-1-3-7-4-2-6-9(14-11)10(7)8;/h1-6H,(H3,12,13,14);1H",
        "InChIKey": null,
        "Canonical SMILES": "Br.N1=C(N)NC2=CC=CC3=CC=CC1=C32",
        "Molecular Formula": "C<sub>11</sub>H<sub>9</sub>N<sub>3</sub>.BrH",
        "Molecular Mass": "",
        "Melting Point": "265 °C"
    }
}