{
    "cas_no": "25057-89-0",
    "key_name": "Bentazon",
    "cn_name": "灭草松;排草丹;苯达松;噻草平;百草克;本达隆;3-异丙基-(1H)-苯骈-2,1,3-噻二嗪-4-酮-2,2-二氧化物;",
    "alternate_name": "1<em>H</em>-2,1,3-Benzothiadiazin-4(3<em>H</em>)-one, 3-(1-methylethyl)-, 2,2-dioxide;1<em>H</em>-2,1,3-Benzothiadiazin-4(3<em>H</em>)-one, 3-isopropyl-, 2,2-dioxide;3-Isopropyl-2,1,3-benzothiadiazin-4-one 2,2-dioxide;3-Isopropyl-4-oxo-2,1,3-benzothiadiazine 2,2-dioxide;BAS 3510H;Basagran;Bentazon;BAS 351H;BAS 3510;BAS 3512H;3-Isopropyl-2,1,3-benzothiadiazine-4-one 2,2-dioxide;3,4-Dihydro-3-isopropyl-1<em>H</em>-2,1,3-benzothiadiazin-4-one 2,2-dioxide;3-Isopropyl-2,1,3-benzothiadiazinon-(4)-2,2-dioxide;3,4-Dihydro-3-isopropyl-4-oxo-1<em>H</em>-2,1,3-benzothiadiazine 2,2-dioxide;3-Isopropyl-1<em>H</em>-2,1,3-benzothiadiazin-4(3<em>H</em>)-one <em>S</em>,<em>S</em>-dioxide;3-Isopropyl-1<em>H</em>-2,1,3-benzothiadiazin-4(3<em>H</em>)-one 2,2-dioxide;3-Isopropyl-1<em>H</em>-2,1,3-benzothiadiazine-4(3<em>H</em>)-one 2,2-dioxide;3-Isopropyl-2,1,3-benzothiodiazin-4-one 2,2-dioxide;Bentazone;BAS 351-07H;BAS 3517H;Bendioxide;Basagran 480;Leader;Corsar;Basamais;Bazargan;Basagran 480SL;Miecaosong",
    "duplicated_cas_no": "12705-05-4;21723-40-0;58856-82-9",
    "SMILES": "O=C1C=2C(NS(=O)(=O)N1C(C)C)=CC=CC2",
    "meta_data": {
        "InChI": "InChI=1S/C10H12N2O3S/c1-7(2)12-10(13)8-5-3-4-6-9(8)11-16(12,14)15/h3-7,11H,1-2H3",
        "InChIKey": null,
        "Canonical SMILES": "O=C1C=2C=CC=CC2NS(=O)(=O)N1C(C)C",
        "Molecular Formula": "C<sub>10</sub>H<sub>12</sub>N<sub>2</sub>O<sub>3</sub>S",
        "Molecular Mass": "240.28",
        "Melting Point": "139.4-141 °C",
        "Density": "1.41 g/cm³ @ Temp: 20 °C"
    }
}