{
    "cas_no": "429-07-2",
    "key_name": "Tetraethylammonium hexafluorophosphate",
    "cn_name": "四乙基六氟磷酸铵;六氟磷酸四乙铵;",
    "alternate_name": "Ethanaminium, <em>N</em>,<em>N</em>,<em>N</em>-triethyl-, hexafluorophosphate(1-) (1:1);Ammonium, tetraethyl-, hexafluorophosphate(1-);Ethanaminium, <em>N</em>,<em>N</em>,<em>N</em>-triethyl-, hexafluorophosphate(1-);Tetraethylammonium hexafluorophosphate;Phosphate(1-), hexafluoro-, <em>N</em>,<em>N</em>,<em>N</em>-triethylethanaminium;Tetraethylammonium hexafluorophosphate(1-);NSC 404041;[Et4N][PF6]",
    "duplicated_cas_no": "879655-61-5",
    "SMILES": "[P+5]([F-])([F-])([F-])([F-])([F-])[F-].[N+](CC)(CC)(CC)CC",
    "meta_data": {
        "InChI": "InChI=1S/C8H20N.F6P/c1-5-9(6-2,7-3)8-4;1-7(2,3,4,5)6/h5-8H2,1-4H3;/q+1;-1",
        "InChIKey": null,
        "Canonical SMILES": "[F-][P+5]([F-])([F-])([F-])([F-])[F-].CC[N+](CC)(CC)CC",
        "Molecular Formula": "C<sub>8</sub>H<sub>20</sub>N.F<sub>6</sub>P",
        "Molecular Mass": "",
        "Melting Point": "&gt;250 °C",
        "Density": "1.074 g/cm³"
    }
}