{
    "cas_no": "28920-43-6",
    "key_name": "9-Fluorenylmethyl chloroformate",
    "cn_name": "氯甲酸-9-芴基甲酯;9-芴甲氧羰酰氯;",
    "alternate_name": "Carbonochloridic acid, 9<em>H</em>-fluoren-9-ylmethyl ester;Formic acid, chloro-, fluoren-9-ylmethyl ester;Fluorene-9-methanol, chloroformate;9-Fluorenylmethoxycarbonyl chloride;9-Fluorenylmethyl chloroformate;AminoTag;9-Fluorenylmethyl chlorocarbonate;9<em>H</em>-Fluoren-9-ylmethyl chloroformate;FMOC chloride;Fluorenylmethyl chloroformate;FmocCl;(9<em>H</em>-Fluoren-9-ylmethoxy)carbonyl chloride;9<em>H</em>-Fluoren-9-ylmethyl carbonochloridate;Chloroformic acid 9-fluorenylmethyl ester",
    "duplicated_cas_no": "86088-58-6;1489258-40-3",
    "SMILES": "C(OC(Cl)=O)C1C=2C(C=3C1=CC=CC3)=CC=CC2",
    "meta_data": {
        "InChI": "InChI=1S/C15H11ClO2/c16-15(17)18-9-14-12-7-3-1-5-10(12)11-6-2-4-8-13(11)14/h1-8,14H,9H2",
        "InChIKey": null,
        "Canonical SMILES": "O=C(Cl)OCC1C=2C=CC=CC2C=3C=CC=CC31",
        "Molecular Formula": "C<sub>15</sub>H<sub>11</sub>ClO<sub>2</sub>",
        "Molecular Mass": "258.70",
        "Melting Point": "62-63 °C"
    }
}