{
    "cas_no": "92-99-9",
    "key_name": "<em>N</em>,<em>N</em>,2-Trimethyl-6-quinolinamine",
    "cn_name": "1,2-环己二酮二肟;环己二酮二肟；环己烷-1,2二酮二肟;",
    "alternate_name": "6-Quinolinamine, <em>N</em>,<em>N</em>,2-trimethyl-;Quinaldine, 6-(dimethylamino)-;<em>N</em>,<em>N</em>,2-Trimethyl-6-quinolinamine;6-(Dimethylamino)quinaldine;6-Dimethylamino-2-methylquinoline;NSC 9357",
    "duplicated_cas_no": "",
    "SMILES": "N(C)(C)C1=CC2=C(N=C(C)C=C2)C=C1",
    "meta_data": {
        "InChI": "InChI=1S/C12H14N2/c1-9-4-5-10-8-11(14(2)3)6-7-12(10)13-9/h4-8H,1-3H3",
        "InChIKey": null,
        "Canonical SMILES": "N=1C=2C=CC(=CC2C=CC1C)N(C)C",
        "Molecular Formula": "C<sub>12</sub>H<sub>14</sub>N<sub>2</sub>",
        "Molecular Mass": "186.25",
        "Boiling Point": "319 °C",
        "Melting Point": "101 °C"
    }
}