{
    "cas_no": "17369-59-4",
    "key_name": "Propylidenephthalide",
    "cn_name": "3-丙亚基-1-异苯并呋喃酮;",
    "alternate_name": "1(3<em>H</em>)-Isobenzofuranone, 3-propylidene-;Phthalide, 3-propylidene-;3-Propylidene-1(3<em>H</em>)-isobenzofuranone;3-Propylidenephthalide;Propylidenephthalide;Celeriax",
    "duplicated_cas_no": "",
    "SMILES": "C(CC)=C1C=2C(C(=O)O1)=CC=CC2",
    "meta_data": {
        "InChI": "InChI=1S/C11H10O2/c1-2-5-10-8-6-3-4-7-9(8)11(12)13-10/h3-7H,2H2,1H3",
        "InChIKey": null,
        "Canonical SMILES": "O=C1OC(=CCC)C=2C=CC=CC12",
        "Molecular Formula": "C<sub>11</sub>H<sub>10</sub>O<sub>2</sub>",
        "Molecular Mass": "174.20",
        "Boiling Point": "170 °C @ Press: 12 Torr",
        "Melting Point": "5 °C"
    }
}