{
    "cas_no": "598-92-5",
    "key_name": "1-Chloro-1-nitroethane",
    "cn_name": "1-氯-1-硝基乙烷;1-氯-1-硝基乙烷;",
    "alternate_name": "Ethane, 1-chloro-1-nitro-;1-Chloro-1-nitroethane;1-Chloronitroethane;NSC 6154",
    "duplicated_cas_no": "",
    "SMILES": "C(N(=O)=O)(C)Cl",
    "meta_data": {
        "InChI": "InChI=1S/C2H4ClNO2/c1-2(3)4(5)6/h2H,1H3",
        "InChIKey": null,
        "Canonical SMILES": "O=N(=O)C(Cl)C",
        "Molecular Formula": "C<sub>2</sub>H<sub>4</sub>ClNO<sub>2</sub>",
        "Molecular Mass": "109.51",
        "Boiling Point": "124.5 °C",
        "Density": "1.2722 g/cm³ @ Temp: 25 °C"
    }
}