{
    "cas_no": "4488-22-6",
    "key_name": "(±)-1,1′-Binaphthyl-2,2′-diamine",
    "cn_name": null,
    "alternate_name": "[1,1′-Binaphthalene]-2,2′-diamine;1,1′-Bi[2-naphthylamine];1,1′-Bi[2-naphthalenylamine];2,2′-Diamino-1,1′-dinaphthyl;2,2′-Diamino-1,1′-binaphthalene;2,2′-Diamino-1,1′-binaphthyl;2,2′-Diamino-1,1′-binaphthylene;(±)-1,1′-Binaphthyl-2,2′-diamine;(<em>RS</em>)-1,1′-Binaphthalene-2,2′-diamine;NSC 519704;BINAM;1,1′-Binaphthyl-2,2′-diamine;<em>rac</em>-BINAM;(±)-2,2′-Diamino-1,1′-binaphthyl;(±)-2,2′-Diamino-1,1′-binaphthalene",
    "duplicated_cas_no": "79082-81-8",
    "SMILES": "NC1=C(C2=C(C=C1)C=CC=C2)C=3C4=C(C=CC3N)C=CC=C4",
    "meta_data": {
        "InChI": "InChI=1S/C20H16N2/c21-17-11-9-13-5-1-3-7-15(13)19(17)20-16-8-4-2-6-14(16)10-12-18(20)22/h1-12H,21-22H2",
        "InChIKey": null,
        "Canonical SMILES": "NC=1C=CC=2C=CC=CC2C1C3=C(N)C=CC=4C=CC=CC43",
        "Molecular Formula": "C<sub>20</sub>H<sub>16</sub>N<sub>2</sub>",
        "Molecular Mass": "284.35",
        "Melting Point": "189 °C"
    }
}