{
    "cas_no": "139399-63-6",
    "key_name": "4-Bromo-8-quinolinol",
    "cn_name": null,
    "alternate_name": "8-Quinolinol, 4-bromo-;4-Bromo-8-quinolinol;NSC 673456",
    "duplicated_cas_no": "",
    "SMILES": "BrC=1C2=C(C(O)=CC=C2)N=CC1",
    "meta_data": {
        "InChI": "InChI=1S/C9H6BrNO/c10-7-4-5-11-9-6(7)2-1-3-8(9)12/h1-5,12H",
        "InChIKey": null,
        "Canonical SMILES": "BrC=1C=CN=C2C(O)=CC=CC12",
        "Molecular Formula": "C<sub>9</sub>H<sub>6</sub>BrNO",
        "Molecular Mass": "224.05",
        "Melting Point": "134-135 °C"
    }
}