{
    "cas_no": "629-30-1",
    "key_name": "1,7-Heptanediol",
    "cn_name": "1,7-庚二醇;",
    "alternate_name": "1,7-Heptanediol;1,7-Dihydroxyheptane;α,ω-Heptanediol;ω-Heptanediol;NSC 3821;Heptmethylene glycol;Heptamethylene glycol",
    "duplicated_cas_no": "",
    "SMILES": "C(CCCO)CCCO",
    "meta_data": {
        "InChI": "InChI=1S/C7H16O2/c8-6-4-2-1-3-5-7-9/h8-9H,1-7H2",
        "InChIKey": null,
        "Canonical SMILES": "OCCCCCCCO",
        "Molecular Formula": "C<sub>7</sub>H<sub>16</sub>O<sub>2</sub>",
        "Molecular Mass": "132.20",
        "Boiling Point": "262 °C",
        "Melting Point": "22.5 °C",
        "Density": "0.9569 g/cm³ @ Temp: 25 °C"
    }
}