{
    "cas_no": "5323-27-3",
    "key_name": "5α-Androst-1-ene-3β,17β-diol",
    "cn_name": "5alpha-雄甾-1-烯-3beta,17beta-二醇;",
    "alternate_name": "Androst-1-ene-3,17-diol, (3β,5α,17β)-;5α-Androst-1-ene-3β,17β-diol;(3β,5α,17β)-Androst-1-ene-3,17-diol",
    "duplicated_cas_no": "",
    "SMILES": "C[C@@]12[C@@]3([C@]([C@]4([C@](C)(CC3)[C@@H](O)CC4)[H])(CC[C@]1(C[C@@H](O)C=C2)[H])[H])[H]",
    "meta_data": {
        "InChI": "InChI=1S/C19H30O2/c1-18-9-7-13(20)11-12(18)3-4-14-15-5-6-17(21)19(15,2)10-8-16(14)18/h7,9,12-17,20-21H,3-6,8,10-11H2,1-2H3/t12-,13-,14-,15-,16-,17-,18-,19-/m0/s1",
        "InChIKey": null,
        "Canonical SMILES": "OC1C=CC2(C)C(CCC3C2CCC4(C)C(O)CCC34)C1",
        "Molecular Formula": "C<sub>19</sub>H<sub>30</sub>O<sub>2</sub>",
        "Molecular Mass": "290.44",
        "Melting Point": "154-156 °C"
    }
}