{
    "cas_no": "1761-71-3",
    "key_name": "4,4′-Diaminodicyclohexylmethane",
    "cn_name": "4,4\"-二氨基二环己基甲烷;",
    "alternate_name": "Cyclohexanamine, 4,4′-methylenebis-;Cyclohexylamine, 4,4′-methylenebis-;Cyclohexylamine, 4,4-methylenebis-;4,4′-Methylenebis[cyclohexanamine];Bis(<em>p</em>-aminocyclohexyl)methane;4,4′-Methylenebis(cyclohexylamine);<em>p</em>,<em>p</em>′-Diaminodicyclohexylmethane;Bis(4-aminocyclohexyl)methane;4,4′-Methylenedicyclohexylamine;4,4′-Diaminodicyclohexylmethane;4,4′-Methylenebis(aminocyclohexane);Methylenebis(4-aminocyclohexane);HLR 4219;HLR 4448;PACM 20;Di(<em>p</em>-aminocyclohexyl)methane;4,4′-Methylenedicyclohexanamine;Amicure PACM;Dicyclohexylmethane-4,4′-diamine;Wondamine HM;PACM;Methylenebis(4-cyclohexylamine);Amicure PACM 20;S 509361;4-(4-Aminocyclohexylmethyl)cyclohexanamine;Dicyan;4,4′-Methylenedicyclohexyldiamine;4-(4-Aminocyclohexylmethyl)-1-cyclohexylamine;4,4′-Diaminocyclohexylmethane;Bis(<em>p</em>-aminocyclohexane)methane;Vestamin PACM;DDCM;Resoltech 1084;BACM;4,4′-(Methylene)di(cyclohexan-1-amine);Dicykan;Wanamine H12MDA;Lunacure PACM 20",
    "duplicated_cas_no": "123203-35-0;1809080-89-4",
    "SMILES": "C(C1CCC(N)CC1)C2CCC(N)CC2",
    "meta_data": {
        "InChI": "InChI=1S/C13H26N2/c14-12-5-1-10(2-6-12)9-11-3-7-13(15)8-4-11/h10-13H,1-9,14-15H2",
        "InChIKey": null,
        "Canonical SMILES": "NC1CCC(CC1)CC2CCC(N)CC2",
        "Molecular Formula": "C<sub>13</sub>H<sub>26</sub>N<sub>2</sub>",
        "Molecular Mass": "210.36",
        "Boiling Point": "320 °C",
        "Melting Point": "~41 °C (approx)",
        "Density": "0.9608 g/cm³ @ Temp: 25 °C"
    }
}