{
    "cas_no": "137-18-8",
    "key_name": "2,5-Dimethyl-<em>p</em>-benzoquinone",
    "cn_name": "对二甲基醌;2,5-DIMETHYLBENZOQUINONE；2,5-二甲基-对苯醌;",
    "alternate_name": "2,5-Cyclohexadiene-1,4-dione, 2,5-dimethyl-;<em>p</em>-Benzoquinone, 2,5-dimethyl-;2,5-Dimethyl-2,5-cyclohexadiene-1,4-dione;Phlorone;<em>p</em>-Xyloquinone;2,5-Dimethyl-<em>p</em>-benzoquinone;2,5-Dimethyl-1,4-benzoquinone;2,5-Dimethylbenzoquinone;3,6-Dimethyl-<em>p</em>-benzoquinone;2,5-Xyloquinone;2,5-Dimethyl-<em>p</em>-quinone;DMBQ;NSC 15309;NCI 15309;NSC 36547;NSC 37558",
    "duplicated_cas_no": "",
    "SMILES": "CC=1C(=O)C=C(C)C(=O)C1",
    "meta_data": {
        "InChI": "InChI=1S/C8H8O2/c1-5-3-8(10)6(2)4-7(5)9/h3-4H,1-2H3",
        "InChIKey": null,
        "Canonical SMILES": "O=C1C=C(C(=O)C=C1C)C",
        "Molecular Formula": "C<sub>8</sub>H<sub>8</sub>O<sub>2</sub>",
        "Molecular Mass": "136.15",
        "Melting Point": "123.5-125 °C"
    }
}