{
    "cas_no": "10031-87-5",
    "key_name": "2-Ethylbutyl acetate",
    "cn_name": "乙酸-2-乙基丁酯;",
    "alternate_name": "Acetic acid, 2-ethylbutyl ester;1-Butanol, 2-ethyl-, acetate;2-Ethylbutyl acetate",
    "duplicated_cas_no": "",
    "SMILES": "C(COC(C)=O)(CC)CC",
    "meta_data": {
        "InChI": "InChI=1S/C8H16O2/c1-4-8(5-2)6-10-7(3)9/h8H,4-6H2,1-3H3",
        "InChIKey": null,
        "Canonical SMILES": "O=C(OCC(CC)CC)C",
        "Molecular Formula": "C<sub>8</sub>H<sub>16</sub>O<sub>2</sub>",
        "Molecular Mass": "144.21",
        "Boiling Point": "162.5 °C",
        "Melting Point": "&lt;-100 °C",
        "Density": "0.884 g/cm³ @ Temp: 17 °C"
    }
}