{
    "cas_no": "5536-17-4",
    "key_name": "Vidarabine",
    "cn_name": "阿糖腺苷;9-beta-D-阿拉伯呋喃糖基腺嘌呤;",
    "alternate_name": "9<em>H</em>-Purin-6-amine, 9-β-<span class=\"text-smallcaps\">D</span>-arabinofuranosyl-;Adenine, 9-β-<span class=\"text-smallcaps\">D</span>-arabinofuranosyl-;9-β-<span class=\"text-smallcaps\">D</span>-Arabinofuranosyl-9<em>H</em>-purin-6-amine;Arabinosyladenine;9-β-<span class=\"text-smallcaps\">D</span>-Arabinofuranosyladenine;Adenine arabinoside;β-<span class=\"text-smallcaps\">D</span>-Arabinosyladenine;9-Arabinosyladenine;Vidarabine;Ara-A;CI-673;Vidarabin;Adenine β-<span class=\"text-smallcaps\">D</span>-arabinofuranoside;NSC 404241;Araadenosine;Spongoadenosine;9-β-<span class=\"text-smallcaps\">D</span>-Arabinoadenosine;6-Amino-9-β-<span class=\"text-smallcaps\">D</span>-arabinofuranosylpurine;9-β-<span class=\"text-smallcaps\">D</span>-Arabinosyladenine;Adenine 9-β-<span class=\"text-smallcaps\">D</span>-arabinofuranoside;β-<span class=\"text-smallcaps\">D</span>-Arabinofuranosyladenine;β-Ara-A;Vira-A;Arasena-A;Vidarabine anhydrous;NSC 247519;NQZ-071;MeSH ID: D014740",
    "duplicated_cas_no": "",
    "SMILES": "O[C@@H]1[C@H](N2C=3C(N=C2)=C(N)N=CN3)O[C@H](CO)[C@H]1O",
    "meta_data": {
        "InChI": "InChI=1S/C10H13N5O4/c11-8-5-9(13-2-12-8)15(3-14-5)10-7(18)6(17)4(1-16)19-10/h2-4,6-7,10,16-18H,1H2,(H2,11,12,13)/t4-,6-,7+,10-/m1/s1",
        "InChIKey": null,
        "Canonical SMILES": "OCC1OC(N2C=NC=3C(=NC=NC32)N)C(O)C1O",
        "Molecular Formula": "C<sub>10</sub>H<sub>13</sub>N<sub>5</sub>O<sub>4</sub>",
        "Molecular Mass": "267.24",
        "Melting Point": "257-257.5 °C"
    }
}