{
    "cas_no": "90-13-1",
    "key_name": "1-Chloronaphthalene",
    "cn_name": "1-氯萘;氯萘;1-氯代萘;",
    "alternate_name": "Naphthalene, 1-chloro-;1-Chloronaphthalene;α-Chloronaphthalene;1-Naphthyl chloride;α-Naphthyl chloride;1-Naphthalenyl chloride;PCN 1;NSC 6166;1-Chloronaphthaline",
    "duplicated_cas_no": "",
    "SMILES": "ClC=1C2=C(C=CC1)C=CC=C2",
    "meta_data": {
        "InChI": "InChI=1S/C10H7Cl/c11-10-7-3-5-8-4-1-2-6-9(8)10/h1-7H",
        "InChIKey": null,
        "Canonical SMILES": "ClC1=CC=CC=2C=CC=CC12",
        "Molecular Formula": "C<sub>10</sub>H<sub>7</sub>Cl",
        "Molecular Mass": "162.62",
        "Boiling Point": "259.3 °C @ Press: 760 Torr",
        "Melting Point": "-2.5 °C",
        "Density": "1.19382 g/cm³ @ Temp: 20 °C"
    }
}