{
    "cas_no": "1273-84-3",
    "key_name": "Cyanoferrocene",
    "cn_name": null,
    "alternate_name": "Ferrocene, cyano-;Ferrocenecarbonitrile;Iron, (cyanocyclopentadienyl)cyclopentadienyl-;Cyanoferrocene;Cyclopentadienecarbonitrile, cyclopentadienyliron deriv.;1-Cyanoferrocene;Ferrocenyl cyanide;Ferrocenylnitrile",
    "duplicated_cas_no": "",
    "SMILES": "C(#N)[C-]12[Fe+2]3456789([CH]1=[CH]3[CH]4=[CH]52)[CH-]%10[CH]6=[CH]7[CH]8=[CH]9%10",
    "meta_data": {
        "InChI": "InChI=1S/C6H4N.C5H5.Fe/c7-5-6-3-1-2-4-6;1-2-4-5-3-1;/h1-4H;1-5H;/q2*-1;+2",
        "InChIKey": null,
        "Canonical SMILES": "N#C[C-]12[CH]3=[CH]4[CH]5=[CH]1[Fe+2]67894532[CH]=%10[CH]9=[CH]8[CH-]7[CH]%106",
        "Molecular Formula": "C<sub>11</sub>H<sub>9</sub>FeN",
        "Molecular Mass": "",
        "Melting Point": "105.5-106.5 °C"
    }
}