{
    "cas_no": "766-17-6",
    "key_name": "<em>rel</em>-(2<em>R</em>,6<em>S</em>)-2,6-Dimethylpiperidine",
    "cn_name": null,
    "alternate_name": "Piperidine, 2,6-dimethyl-, (2<em>R</em>,6<em>S</em>)-<em>rel</em>-;2,6-Lupetidine, <em>cis</em>-;Piperidine, 2,6-dimethyl-, <em>cis</em>-;<em>rel</em>-(2<em>R</em>,6<em>S</em>)-2,6-Dimethylpiperidine;<em>cis</em>-2,6-Dimethylpiperidine;<em>cis</em>-2,6-Lupetidine;(2<em>R</em>,6<em>S</em>)-2,6-Dimethylpiperidine;<em>meso</em>-2,6-Lupetidine",
    "duplicated_cas_no": "191470-43-6;558479-12-2;866317-99-9;1218906-26-3;1400912-75-5;1684450-73-4;1808171-77-8;2364365-99-9;2446955-93-5;2896748-24-4;3025762-62-0",
    "SMILES": "C[C@H]1N[C@@H](C)CCC1",
    "meta_data": {
        "InChI": "InChI=1/C7H15N/c1-6-4-3-5-7(2)8-6/h6-8H,3-5H2,1-2H3/t6-,7+",
        "InChIKey": null,
        "Canonical SMILES": "N1C(C)CCCC1C",
        "Molecular Formula": "C<sub>7</sub>H<sub>15</sub>N",
        "Molecular Mass": "113.20",
        "Boiling Point": "127 °C"
    }
}