{
    "cas_no": "434935-69-0",
    "key_name": "2-Methyl-6-nitrobenzoic anhydride",
    "cn_name": "2-甲基-6-硝基苯甲酸酐;",
    "alternate_name": "Benzoic acid, 2-methyl-6-nitro-, 1,1′-anhydride;Benzoic acid, 2-methyl-6-nitro-, anhydride;2-Methyl-6-nitrobenzoic anhydride;MNBA;2-Methyl-6-nitrobenzoic acid anhydride;(2-Methyl-6-nitrobenzoyl) 2-methyl-6-nitrobenzoate",
    "duplicated_cas_no": "",
    "SMILES": "C(OC(=O)C1=C(N(=O)=O)C=CC=C1C)(=O)C2=C(N(=O)=O)C=CC=C2C",
    "meta_data": {
        "InChI": "InChI=1S/C16H12N2O7/c1-9-5-3-7-11(17(21)22)13(9)15(19)25-16(20)14-10(2)6-4-8-12(14)18(23)24/h3-8H,1-2H3",
        "InChIKey": null,
        "Canonical SMILES": "O=C(OC(=O)C=1C(=CC=CC1C)N(=O)=O)C=2C(=CC=CC2C)N(=O)=O",
        "Molecular Formula": "C<sub>16</sub>H<sub>12</sub>N<sub>2</sub>O<sub>7</sub>",
        "Molecular Mass": "344.28",
        "Melting Point": "178-180 °C"
    }
}