{
    "cas_no": "1006-59-3",
    "key_name": "2,6-Diethylphenol",
    "cn_name": "2,6-二乙基苯酚;",
    "alternate_name": "Phenol, 2,6-diethyl-;2,6-Diethylphenol",
    "duplicated_cas_no": "",
    "SMILES": "C(C)C1=C(O)C(CC)=CC=C1",
    "meta_data": {
        "InChI": "InChI=1S/C10H14O/c1-3-8-6-5-7-9(4-2)10(8)11/h5-7,11H,3-4H2,1-2H3",
        "InChIKey": null,
        "Canonical SMILES": "OC=1C(=CC=CC1CC)CC",
        "Molecular Formula": "C<sub>10</sub>H<sub>14</sub>O",
        "Molecular Mass": "150.22",
        "Boiling Point": "219 °C",
        "Melting Point": "37-38 °C"
    }
}