{
    "cas_no": "10512-86-4",
    "key_name": "<em>N</em>-Formylalanine",
    "cn_name": null,
    "alternate_name": "<span class=\"text-smallcaps\">L</span>-Alanine, <em>N</em>-formyl-;Alanine, <em>N</em>-formyl-, <span class=\"text-smallcaps\">L</span>-;<em>N</em>-Formyl-<span class=\"text-smallcaps\">L</span>-alanine;<em>N</em>-Formylalanine;<span class=\"text-smallcaps\">L</span>-<em>N</em>-Formylalanine;(2S)-2-Formamidopropanoic acid",
    "duplicated_cas_no": "13200-99-2",
    "SMILES": "[C@@H](NC=O)(C(O)=O)C",
    "meta_data": {
        "InChI": "InChI=1S/C4H7NO3/c1-3(4(7)8)5-2-6/h2-3H,1H3,(H,5,6)(H,7,8)/t3-/m0/s1",
        "InChIKey": null,
        "Canonical SMILES": "O=CNC(C(=O)O)C",
        "Molecular Formula": "C<sub>4</sub>H<sub>7</sub>NO<sub>3</sub>",
        "Molecular Mass": "117.10",
        "Boiling Point": "83-86 °C @ Press: 29 Torr",
        "Melting Point": "147-148 °C"
    }
}