{
    "cas_no": "517-66-8",
    "key_name": "(+)-Dicentrine",
    "cn_name": null,
    "alternate_name": "5<em>H</em>-Benzo[<em>g</em>]-1,3-benzodioxolo[6,5,4-<em>de</em>]quinoline, 6,7,7a,8-tetrahydro-10,11-dimethoxy-7-methyl-, (7a<em>S</em>)-;6aα-Aporphine, 9,10-dimethoxy-1,2-(methylenedioxy)-;Dicentrine;5<em>H</em>-Benzo[<em>g</em>]-1,3-benzodioxolo[6,5,4-<em>de</em>]quinoline, 6,7,7a,8-tetrahydro-10,11-dimethoxy-7-methyl-, (<em>S</em>)-;(7a<em>S</em>)-6,7,7a,8-Tetrahydro-10,11-dimethoxy-7-methyl-5<em>H</em>-benzo[<em>g</em>]-1,3-benzodioxolo[6,5,4-<em>de</em>]quinoline;Eximine;9,10-Dimethoxy-1,2-(methylenedioxy)-6aα-aporphine;1,2-(Methylenedioxy)-9,10-dimethoxy-6aα-aporphine;<em>O</em>,<em>N</em>-Dimethyllitseferine;(+)-Dicentrine;<em>d</em>-Dicentrine;<em>S</em>-(+)-Dicentrine",
    "duplicated_cas_no": "",
    "SMILES": "CN1[C@@]2(C=3C(C=4C(C2)=CC(OC)=C(OC)C4)=C5C(=CC3CC1)OCO5)[H]",
    "meta_data": {
        "InChI": "InChI=1S/C20H21NO4/c1-21-5-4-11-7-17-20(25-10-24-17)19-13-9-16(23-3)15(22-2)8-12(13)6-14(21)18(11)19/h7-9,14H,4-6,10H2,1-3H3/t14-/m0/s1",
        "InChIKey": null,
        "Canonical SMILES": "O(C=1C=C2C=3C=4OCOC4C=C5C3C(N(C)CC5)CC2=CC1OC)C",
        "Molecular Formula": "C<sub>20</sub>H<sub>21</sub>NO<sub>4</sub>",
        "Molecular Mass": "339.39",
        "Melting Point": "168-169 °C"
    }
}