{
    "cas_no": "2506-41-4",
    "key_name": "2-(Chloromethyl)naphthalene",
    "cn_name": "2-(氯甲基)萘;2-(氯甲基)萘;",
    "alternate_name": "Naphthalene, 2-(chloromethyl)-;2-(Chloromethyl)naphthalene;2-Menaphthyl chloride;2-Naphthylmethyl chloride;β-Chloromethylnaphthalene;β-Naphthylmethyl chloride;NSC 408896;Naphthalen-2-ylmethyl chloride",
    "duplicated_cas_no": "",
    "SMILES": "C(Cl)C1=CC2=C(C=C1)C=CC=C2",
    "meta_data": {
        "InChI": "InChI=1S/C11H9Cl/c12-8-9-5-6-10-3-1-2-4-11(10)7-9/h1-7H,8H2",
        "InChIKey": null,
        "Canonical SMILES": "ClCC=1C=CC=2C=CC=CC2C1",
        "Molecular Formula": "C<sub>11</sub>H<sub>9</sub>Cl",
        "Molecular Mass": "176.64",
        "Boiling Point": "162 °C @ Press: 15 Torr",
        "Melting Point": "48.5 °C"
    }
}