{
    "cas_no": "6317-49-3",
    "key_name": "Heptanedioic acid, 4-oxo-, 1,7-diethyl ester",
    "cn_name": "4-氧代庚二酸二乙酯;",
    "alternate_name": "Heptanedioic acid, 4-oxo-, 1,7-diethyl ester;Heptanedioic acid, 4-oxo-, diethyl ester;Diethyl γ-ketopimelate;Diethyl 4-ketopimelate;γ-Oxopimelic acid diethyl ester;Diethyl 4-oxopimelate;Diethyl 4-oxoheptanedioate;Diethyl γ-oxopimelate;4-Oxopimelic acid diethyl ester;NSC 39476;1,7-Diethyl 4-oxoheptanedioate",
    "duplicated_cas_no": "",
    "SMILES": "C(CCC(OCC)=O)(CCC(OCC)=O)=O",
    "meta_data": {
        "InChI": "InChI=1S/C11H18O5/c1-3-15-10(13)7-5-9(12)6-8-11(14)16-4-2/h3-8H2,1-2H3",
        "InChIKey": null,
        "Canonical SMILES": "O=C(OCC)CCC(=O)CCC(=O)OCC",
        "Molecular Formula": "C<sub>11</sub>H<sub>18</sub>O<sub>5</sub>",
        "Molecular Mass": "230.26",
        "Boiling Point": "182 °C @ Press: 20 Torr",
        "Melting Point": "58 °C",
        "Density": "1.0855 g/cm³ @ Temp: 20 °C"
    }
}