{
    "cas_no": "325142-84-5",
    "key_name": "2-(3-Methoxyphenyl)-4,4,5,5-tetramethyl-1,3,2-dioxaborolane",
    "cn_name": null,
    "alternate_name": "1,3,2-Dioxaborolane, 2-(3-methoxyphenyl)-4,4,5,5-tetramethyl-;2-(3-Methoxyphenyl)-4,4,5,5-tetramethyl-1,3,2-dioxaborolane;<em>m</em>-(Pinacolboryl)anisole;3-Methoxy-1-(4,4,5,5-tetramethyl-1,3,2-dioxaborolan-2-yl)benzene;(3-Methoxyphenyl)boronic acid pinacol ester;3-(4,4,5,5-Tetramethyl-1,3,2-dioxaborolan-2-yl)anisole",
    "duplicated_cas_no": "",
    "SMILES": "CC1(C)OB(OC1(C)C)C2=CC(OC)=CC=C2",
    "meta_data": {
        "InChI": "InChI=1S/C13H19BO3/c1-12(2)13(3,4)17-14(16-12)10-7-6-8-11(9-10)15-5/h6-9H,1-5H3",
        "InChIKey": null,
        "Canonical SMILES": "O(C1=CC=CC(=C1)B2OC(C)(C)C(O2)(C)C)C",
        "Molecular Formula": "C<sub>13</sub>H<sub>19</sub>BO<sub>3</sub>",
        "Molecular Mass": "234.10",
        "Melting Point": "106-107 °C"
    }
}