{
    "cas_no": "52-62-0",
    "key_name": "Pentolinium bitartrate",
    "cn_name": "3-溴-4-氟甲苯;酒石酸戊双吡铵;",
    "alternate_name": "Pyrrolidinium, 1,1′-(1,5-pentanediyl)bis[1-methyl-, (2<em>R</em>,3<em>R</em>)-2,3-dihydroxybutanedioate (1:2);Pyrrolidinium, 1,1′-pentamethylenebis[1-methyl-, tartrate (1:2);1,1′-Pentamethylenebis[1-methylpyrrolidinium hydrogen tartrate];Pyrrolidinium, 1,1′-(1,5-pentanediyl)bis[1-methyl-, salt with [<em>R</em>-(<em>R</em>*,<em>R</em>*)]-2,3-dihydroxybutanedioic acid (1:2);Pyrrolidinium, 1,1′-(1,5-pentanediyl)bis[1-methyl-, salt with (2<em>R</em>,3<em>R</em>)-2,3-dihydroxybutanedioic acid (1:2);Tartaric acid, ion(1-), 1,1′-pentamethylenebis[1-methylpyrrolidinium] (2:1);Butanedioic acid, 2,3-dihydroxy-[<em>R</em>-(<em>R</em>*,<em>R</em>*)]-, ion(1-), 1,1′-(1,5-pentanediyl)bis[1-methylpyrrolidinium] (2:1);Butanedioic acid, 2,3-dihydroxy- (2<em>R</em>,3<em>R</em>)-, ion(1-), 1,1′-(1,5-pentanediyl)bis[1-methylpyrrolidinium] (2:1);Ansolysen;Ansolysen bitartrate;Ansolysen tartrate;1,1′-Pentamethylenebis(1-methylpyrrolidinium tartrate);Pentapyrrolidium bitartrate;Pentilium;Pentolinium bitartrate;Pentolinium tartrate;Recuryl;Tensilest;Pendine;Pentolonium tartrate;Pentapyrrolidinium bitartrate;M and B 2050A;MeSH ID: D010425",
    "duplicated_cas_no": "56614-93-8",
    "SMILES": "[C@@H]([C@H](C(O)=O)O)(C([O-])=O)O.C(CCCC[N+]1(C)CCCC1)[N+]2(C)CCCC2",
    "meta_data": {
        "InChI": "InChI=1S/C15H32N2.C4H6O6/c1-16(12-6-7-13-16)10-4-3-5-11-17(2)14-8-9-15-17;5-1(3(7)8)2(6)4(9)10/h3-15H2,1-2H3;1-2,5-6H,(H,7,8)(H,9,10)/q+2;/p-1/t;1-,2-/m.1/s1",
        "InChIKey": null,
        "Canonical SMILES": "O=C([O-])C(O)C(O)C(=O)O.C[N+]1(CCCCC[N+]2(C)CCCC2)CCCC1",
        "Molecular Formula": "C<sub>15</sub>H<sub>32</sub>N<sub>2</sub>.2C<sub>4</sub>H<sub>5</sub>O<sub>6</sub>",
        "Molecular Mass": "",
        "Melting Point": "203 °C (decomp)"
    }
}