{
    "cas_no": "77879-90-4",
    "key_name": "Gilvocarcin V",
    "cn_name": null,
    "alternate_name": "6<em>H</em>-Benzo[<em>d</em>]naphtho[1,2-<em>b</em>]pyran-6-one, 4-(6-deoxy-α-<span class=\"text-smallcaps\">D</span>-galactofuranosyl)-8-ethenyl-1-hydroxy-10,12-dimethoxy-;4-(6-Deoxy-α-<span class=\"text-smallcaps\">D</span>-galactofuranosyl)-8-ethenyl-1-hydroxy-10,12-dimethoxy-6<em>H</em>-benzo[<em>d</em>]naphtho[1,2-<em>b</em>]pyran-6-one;Gilvocarcin V;Antibiotic 1072B;NSC 338943;NSC 348115",
    "duplicated_cas_no": "84236-01-1",
    "SMILES": "O(C)C1=C2C(=C3C(C=4C(C(=O)O3)=CC(C=C)=CC4OC)=C1)C(=CC=C2O)[C@H]5O[C@@]([C@@H](C)O)([C@H](O)[C@H]5O)[H]",
    "meta_data": {
        "InChI": "InChI=1S/C27H26O9/c1-5-12-8-15-19(17(9-12)33-3)14-10-18(34-4)21-16(29)7-6-13(20(21)25(14)36-27(15)32)26-23(31)22(30)24(35-26)11(2)28/h5-11,22-24,26,28-31H,1H2,2-4H3/t11-,22-,23-,24+,26-/m1/s1",
        "InChIKey": null,
        "Canonical SMILES": "O=C1OC2=C(C=C(OC)C=3C(O)=CC=C(C23)C4OC(C(O)C)C(O)C4O)C=5C(OC)=CC(C=C)=CC15",
        "Molecular Formula": "C<sub>27</sub>H<sub>26</sub>O<sub>9</sub>",
        "Molecular Mass": "494.49",
        "Melting Point": "230-233 °C"
    }
}