{
    "cas_no": "50638-47-6",
    "key_name": "4-Bromo-2-chloroanisole",
    "cn_name": null,
    "alternate_name": "Benzene, 4-bromo-2-chloro-1-methoxy-;4-Bromo-2-chloro-1-methoxybenzene;1-Bromo-3-chloro-4-methoxybenzene;2-Chloro-4-bromoanisole;4-Bromo-2-chloroanisole;3-Chloro-4-methoxyphenyl bromide",
    "duplicated_cas_no": "",
    "SMILES": "O(C)C1=C(Cl)C=C(Br)C=C1",
    "meta_data": {
        "InChI": "InChI=1S/C7H6BrClO/c1-10-7-3-2-5(8)4-6(7)9/h2-4H,1H3",
        "InChIKey": null,
        "Canonical SMILES": "ClC1=CC(Br)=CC=C1OC",
        "Molecular Formula": "C<sub>7</sub>H<sub>6</sub>BrClO",
        "Molecular Mass": "221.48",
        "Boiling Point": "241-248 °C @ Press: 748 Torr",
        "Melting Point": "70 °C"
    }
}