{
    "cas_no": "626-22-2",
    "key_name": "1,3-Benzenediacetonitrile",
    "cn_name": "1,3-苯二乙腈;间苯二乙腈;",
    "alternate_name": "1,3-Benzenediacetonitrile;<em>m</em>-Benzenediacetonitrile;<em>m</em>-Phenylenediacetonitrile;<em>m</em>-Bis(cyanomethyl)benzene;<em>m</em>-Phenylenebisacetonitrile;1,3-Phenylenediacetonitrile;NSC 77095;<em>m</em>-Xylylene dicyanide;1,3-Bis-(cyanomethyl)-benzene;2-[3-(Cyanomethyl)phenyl]acetonitrile",
    "duplicated_cas_no": "",
    "SMILES": "C(C#N)C1=CC(CC#N)=CC=C1",
    "meta_data": {
        "InChI": "InChI=1S/C10H8N2/c11-6-4-9-2-1-3-10(8-9)5-7-12/h1-3,8H,4-5H2",
        "InChIKey": null,
        "Canonical SMILES": "N#CCC1=CC=CC(=C1)CC#N",
        "Molecular Formula": "C<sub>10</sub>H<sub>8</sub>N<sub>2</sub>",
        "Molecular Mass": "156.18",
        "Melting Point": "27 °C"
    }
}