{
    "cas_no": "74-89-5",
    "key_name": "Methylamine",
    "cn_name": "甲胺;氨基甲烷;混甲胺;一甲胺;伯胺;",
    "alternate_name": "Methanamine;Methylamine;Aminomethane;Carbinamine;Monomethylamine;MMA;R 630;MeSH ID: D008744",
    "duplicated_cas_no": "42939-70-8;85404-17-7;119775-09-6;1391413-98-1;2421217-09-4",
    "SMILES": "CN",
    "meta_data": {
        "InChI": "InChI=1S/CH5N/c1-2/h2H2,1H3",
        "InChIKey": null,
        "Canonical SMILES": "NC",
        "Molecular Formula": "CH<sub>5</sub>N",
        "Molecular Mass": "31.06",
        "Boiling Point": "-6.3 °C @ Press: 760 Torr",
        "Melting Point": "-93.5 °C",
        "Density": "0.6624 g/cm³ @ Temp: 25 °C"
    }
}