{
    "cas_no": "17057-91-9",
    "key_name": "1,3,8-Trimethylnaphthalene",
    "cn_name": "2,4,5-三甲基萘;",
    "alternate_name": "Naphthalene, 1,3,8-trimethyl-;1,3,8-Trimethylnaphthalene;2,4,5-Trimethylnaphthalene",
    "duplicated_cas_no": "",
    "SMILES": "CC=1C2=C(C=C(C)C1)C=CC=C2C",
    "meta_data": {
        "InChI": "InChI=1S/C13H14/c1-9-7-11(3)13-10(2)5-4-6-12(13)8-9/h4-8H,1-3H3",
        "InChIKey": null,
        "Canonical SMILES": "C=1C=C2C=C(C=C(C2=C(C1)C)C)C",
        "Molecular Formula": "C<sub>13</sub>H<sub>14</sub>",
        "Molecular Mass": "170.25",
        "Boiling Point": "140-144 °C @ Press: 18 Torr",
        "Melting Point": "48 °C"
    }
}