{
    "cas_no": "4998-07-6",
    "key_name": "4,5-Dimethoxy-2-nitrobenzoic acid",
    "cn_name": "6-硝基藜芦酸;2-硝基-4,5-二甲氧基苯甲酸;",
    "alternate_name": "Benzoic acid, 4,5-dimethoxy-2-nitro-;Veratric acid, 6-nitro-;4,5-Dimethoxy-2-nitrobenzoic acid;6-Nitroveratric acid;2-Nitro-4,5-dimethoxybenzoic acid;3,4-Dimethoxy-6-nitrobenzoic acid",
    "duplicated_cas_no": "114875-04-6",
    "SMILES": "C(O)(=O)C1=C(N(=O)=O)C=C(OC)C(OC)=C1",
    "meta_data": {
        "InChI": "InChI=1S/C9H9NO6/c1-15-7-3-5(9(11)12)6(10(13)14)4-8(7)16-2/h3-4H,1-2H3,(H,11,12)",
        "InChIKey": null,
        "Canonical SMILES": "O=C(O)C1=CC(OC)=C(OC)C=C1N(=O)=O",
        "Molecular Formula": "C<sub>9</sub>H<sub>9</sub>NO<sub>6</sub>",
        "Molecular Mass": "227.17",
        "Melting Point": "187-188 °C"
    }
}