{
    "cas_no": "628-68-2",
    "key_name": "Diethylene glycol, diacetate",
    "cn_name": "二乙二醇二乙酸酯;",
    "alternate_name": "Ethanol, 2,2′-oxybis-, 1,1′-diacetate;Diethylene glycol, diacetate;Ethanol, 2,2′-oxybis-, diacetate;Oxydiethylene acetate;NSC 6310;Bis(2-acetoxyethyl) ether;2-(2-Acetyloxyethoxy)ethyl acetate",
    "duplicated_cas_no": "",
    "SMILES": "C(OC(C)=O)COCCOC(C)=O",
    "meta_data": {
        "InChI": "InChI=1S/C8H14O5/c1-7(9)12-5-3-11-4-6-13-8(2)10/h3-6H2,1-2H3",
        "InChIKey": null,
        "Canonical SMILES": "O=C(OCCOCCOC(=O)C)C",
        "Molecular Formula": "C<sub>8</sub>H<sub>14</sub>O<sub>5</sub>",
        "Molecular Mass": "190.19",
        "Boiling Point": "200 °C",
        "Melting Point": "18 °C",
        "Density": "1.1078 g/cm³ @ Temp: 15 °C"
    }
}