{
    "cas_no": "531-91-9",
    "key_name": "Diphenylbenzidine",
    "cn_name": "N,N\"-二苯基联苯二胺;N,N\"-二苯基联苯胺;N,N\"-二苯对氨基联苯;",
    "alternate_name": "[1,1′-Biphenyl]-4,4′-diamine, <em>N</em><sup>4</sup>,<em>N</em><sup>4′</sup>-diphenyl-;Benzidine, <em>N</em>,<em>N</em>′-diphenyl-;[1,1′-Biphenyl]-4,4′-diamine, <em>N</em>,<em>N</em>′-diphenyl-;<em>N</em>,<em>N</em>′-Diphenylbenzidine;Diphenylbenzidine;<em>N</em>,<em>N</em>′-Diphenyl-[1,1′-biphenyl]-4,4′-diamine;<em>N</em>,<em>N</em>′-Diphenyl-<em>p</em>,<em>p</em>′-biphenylenediamine;NSC 4310;4,4′-Bis(phenylamino)-1,1′-biphenyl;4,4′-Bis(phenylamino)biphenyl;<em>N</em><sup>4</sup>,<em>N</em><sup>4′</sup>-Diphenyl-[1,1′-biphenyl]-4,4′-diamine",
    "duplicated_cas_no": "",
    "SMILES": "N(C1=CC=C(C=C1)C2=CC=C(NC3=CC=CC=C3)C=C2)C4=CC=CC=C4",
    "meta_data": {
        "InChI": "InChI=1S/C24H20N2/c1-3-7-21(8-4-1)25-23-15-11-19(12-16-23)20-13-17-24(18-14-20)26-22-9-5-2-6-10-22/h1-18,25-26H",
        "InChIKey": null,
        "Canonical SMILES": "C=1C=CC(=CC1)NC=2C=CC(=CC2)C3=CC=C(C=C3)NC=4C=CC=CC4",
        "Molecular Formula": "C<sub>24</sub>H<sub>20</sub>N<sub>2</sub>",
        "Molecular Mass": "336.43",
        "Melting Point": "247 °C"
    }
}