{
    "cas_no": "955-83-9",
    "key_name": "2,5-Diphenylfuran",
    "cn_name": "2,5-二苯基呋喃;2,5-二苯呋喃;",
    "alternate_name": "Furan, 2,5-diphenyl-;2,5-Diphenylfuran;PPF;NSC 97358",
    "duplicated_cas_no": "60605-33-6",
    "SMILES": "C=1(OC(=CC1)C2=CC=CC=C2)C3=CC=CC=C3",
    "meta_data": {
        "InChI": "InChI=1S/C16H12O/c1-3-7-13(8-4-1)15-11-12-16(17-15)14-9-5-2-6-10-14/h1-12H",
        "InChIKey": null,
        "Canonical SMILES": "O1C(=CC=C1C=2C=CC=CC2)C=3C=CC=CC3",
        "Molecular Formula": "C<sub>16</sub>H<sub>12</sub>O",
        "Molecular Mass": "220.27",
        "Boiling Point": "344 °C",
        "Melting Point": "91 °C"
    }
}