{
    "cas_no": "19522-67-9",
    "key_name": "<em>N</em>-Isopropylethylenediamine",
    "cn_name": "N-异丙基乙二胺;",
    "alternate_name": "1,2-Ethanediamine, <em>N</em><sup>1</sup>-(1-methylethyl)-;Ethylenediamine, <em>N</em>-isopropyl-;1,2-Ethanediamine, <em>N</em>-(1-methylethyl)-;<em>N</em><sup>1</sup>-(1-Methylethyl)-1,2-ethanediamine;2-(Isopropylamino)ethylamine;<em>N</em>-Isopropylethylenediamine;<em>N</em>-Isopropylethane-1,2-diamine;NSC 84230;1-Isopropylethylenediamine;<em>N</em>-Isopropyl-1,2-diaminoethane;<em>N</em>-(Propan-2-yl)ethane-1,2-diamine;(2-Aminoethyl)(propan-2-yl)amine",
    "duplicated_cas_no": "",
    "SMILES": "N(C(C)C)CCN",
    "meta_data": {
        "InChI": "InChI=1S/C5H14N2/c1-5(2)7-4-3-6/h5,7H,3-4,6H2,1-2H3",
        "InChIKey": null,
        "Canonical SMILES": "NCCNC(C)C",
        "Molecular Formula": "C<sub>5</sub>H<sub>14</sub>N<sub>2</sub>",
        "Molecular Mass": "102.18",
        "Boiling Point": "135.5-137.5 °C @ Press: 767 Torr",
        "Density": "0.8232 g/cm³ @ Temp: 25 °C"
    }
}