{
    "cas_no": "66085-59-4",
    "key_name": "Nimodipine",
    "cn_name": "尼莫地平;(+/-)-4-(3-硝基苯基)-2,6-二甲基-1,4-二氢吡啶-3,5-二羧酸甲氧基乙基酯异丙酯;",
    "alternate_name": "3,5-Pyridinedicarboxylic acid, 1,4-dihydro-2,6-dimethyl-4-(3-nitrophenyl)-, 3-(2-methoxyethyl) 5-(1-methylethyl) ester;3,5-Pyridinedicarboxylic acid, 1,4-dihydro-2,6-dimethyl-4-(3-nitrophenyl)-, 2-methoxyethyl 1-methylethyl ester;Nimodipine;BAY-e 9736;Nimotop;(±)-Nimodipine;Nimodipine AP;Periplum;Admon;Nemotan;3-<em>O</em>-(2-Methoxyethyl) 5-<em>O</em>-propan-2-yl 2,6-dimethyl-4-(3-nitrophenyl)-1,4-dihydropyridine-3,5-dicarboxylate;NMP;MeSH ID: D009553",
    "duplicated_cas_no": "82219-46-3;155861-30-6;1301253-68-8",
    "SMILES": "C(OCCOC)(=O)C=1C(C(C(OC(C)C)=O)=C(C)NC1C)C2=CC(N(=O)=O)=CC=C2",
    "meta_data": {
        "InChI": "InChI=1S/C21H26N2O7/c1-12(2)30-21(25)18-14(4)22-13(3)17(20(24)29-10-9-28-5)19(18)15-7-6-8-16(11-15)23(26)27/h6-8,11-12,19,22H,9-10H2,1-5H3",
        "InChIKey": null,
        "Canonical SMILES": "O=C(OCCOC)C1=C(NC(=C(C(=O)OC(C)C)C1C=2C=CC=C(C2)N(=O)=O)C)C",
        "Molecular Formula": "C<sub>21</sub>H<sub>26</sub>N<sub>2</sub>O<sub>7</sub>",
        "Molecular Mass": "418.44",
        "Melting Point": "125 °C"
    }
}