{
    "cas_no": "5510-99-6",
    "key_name": "2,6-Di-<em>sec</em>-butylphenol",
    "cn_name": "1,6-二仲丁基苯酚;双邻仲丁基酚;",
    "alternate_name": "Phenol, 2,6-bis(1-methylpropyl)-;Phenol, 2,6-di-<em>sec</em>-butyl-;2,6-Bis(1-methylpropyl)phenol;2,6-Di-<em>sec</em>-butylphenol;2,6-Bis(<em>sec</em>-butyl)phenol;2,6-Di(butan-2-yl)phenol;2,6-Bis(butan-2-yl)phenol",
    "duplicated_cas_no": "",
    "SMILES": "C(CC)(C)C1=C(O)C(C(CC)C)=CC=C1",
    "meta_data": {
        "InChI": "InChI=1S/C14H22O/c1-5-10(3)12-8-7-9-13(14(12)15)11(4)6-2/h7-11,15H,5-6H2,1-4H3",
        "InChIKey": null,
        "Canonical SMILES": "OC=1C(=CC=CC1C(C)CC)C(C)CC",
        "Molecular Formula": "C<sub>14</sub>H<sub>22</sub>O",
        "Molecular Mass": "206.32",
        "Boiling Point": "257.5 °C",
        "Melting Point": "-42 °C",
        "Density": "0.9386 g/cm³ @ Temp: 20 °C"
    }
}