{
    "cas_no": "105108-20-1",
    "key_name": "Ligucyperonol",
    "cn_name": null,
    "alternate_name": "2(3<em>H</em>)-Naphthalenone, 4,4a,5,6,7,8-hexahydro-4-hydroxy-1,4a-dimethyl-7-(1-methylethenyl)-, (4<em>R</em>,4a<em>R</em>,7<em>R</em>)-;2(3<em>H</em>)-Naphthalenone, 4,4a,5,6,7,8-hexahydro-4-hydroxy-1,4a-dimethyl-7-(1-methylethenyl)-, [4<em>R</em>-(4α,4aα,7α)]-;(4<em>R</em>,4a<em>R</em>,7<em>R</em>)-4,4a,5,6,7,8-Hexahydro-4-hydroxy-1,4a-dimethyl-7-(1-methylethenyl)-2(3<em>H</em>)-naphthalenone;Ligucyperonol;1β-Hydroxy-α-cyperone",
    "duplicated_cas_no": "",
    "SMILES": "C[C@]12C(C[C@H](C(C)=C)CC1)=C(C)C(=O)C[C@H]2O",
    "meta_data": {
        "InChI": "InChI=1S/C15H22O2/c1-9(2)11-5-6-15(4)12(7-11)10(3)13(16)8-14(15)17/h11,14,17H,1,5-8H2,2-4H3/t11-,14-,15-/m1/s1",
        "InChIKey": null,
        "Canonical SMILES": "O=C1C(=C2CC(C(=C)C)CCC2(C)C(O)C1)C",
        "Molecular Formula": "C<sub>15</sub>H<sub>22</sub>O<sub>2</sub>",
        "Molecular Mass": "234.33",
        "Melting Point": "123.5-124.5 °C"
    }
}