{
    "cas_no": "628-46-6",
    "key_name": "5-Methylhexanoic acid",
    "cn_name": "5-甲基己酸;异庚酸;异戊基乙酸;",
    "alternate_name": "Hexanoic acid, 5-methyl-;Caproic acid, δ-methyl-;5-Methylhexanoic acid;Isoenanthic acid;5-Methylhexylic acid;5-Methylcaproic acid;NSC 1075",
    "duplicated_cas_no": "",
    "SMILES": "C(CC(C)C)CC(O)=O",
    "meta_data": {
        "InChI": "InChI=1S/C7H14O2/c1-6(2)4-3-5-7(8)9/h6H,3-5H2,1-2H3,(H,8,9)",
        "InChIKey": null,
        "Canonical SMILES": "O=C(O)CCCC(C)C",
        "Molecular Formula": "C<sub>7</sub>H<sub>14</sub>O<sub>2</sub>",
        "Molecular Mass": "130.18",
        "Boiling Point": "216 °C",
        "Melting Point": "&lt;-25 °C",
        "Density": "0.9140 g/cm³ @ Temp: 20 °C"
    }
}