{
    "cas_no": "1116-76-3",
    "key_name": "Trioctylamine",
    "cn_name": "三辛胺;三正辛胺;",
    "alternate_name": "1-Octanamine, <em>N</em>,<em>N</em>-dioctyl-;Trioctylamine;<em>N</em>,<em>N</em>-Dioctyl-1-octanamine;Tricaprylylamine;Tri-<em>n</em>-octylamine;Tri-<em>n</em>-caprylylamine;Farmin 08;TOA;TOA (amine);Farmin T 08;NSC 11034;<em>N</em>,<em>N</em>,<em>N</em>-Trioctylamine",
    "duplicated_cas_no": "11120-27-7;12612-15-6;51569-02-9;57176-40-6",
    "SMILES": "N(CCCCCCCC)(CCCCCCCC)CCCCCCCC",
    "meta_data": {
        "InChI": "InChI=1S/C24H51N/c1-4-7-10-13-16-19-22-25(23-20-17-14-11-8-5-2)24-21-18-15-12-9-6-3/h4-24H2,1-3H3",
        "InChIKey": null,
        "Canonical SMILES": "N(CCCCCCCC)(CCCCCCCC)CCCCCCCC",
        "Molecular Formula": "C<sub>24</sub>H<sub>51</sub>N",
        "Molecular Mass": "353.67",
        "Boiling Point": "366 °C",
        "Melting Point": "-34.6 °C",
        "Density": "0.80746 g/cm³ @ Temp: 25.00 °C"
    }
}