{
    "cas_no": "597-82-0",
    "key_name": "Triphenyl phosphorothionate",
    "cn_name": "O,O,O-三苯基硫代磷酸酯;",
    "alternate_name": "Phosphorothioic acid, <em>O</em>,<em>O</em>,<em>O</em>-triphenyl ester;Phenyl phosphorothioate ((PhO)<sub>3</sub>PS);Triphenyl phosphorothioate;<em>O</em>,<em>O</em>,<em>O</em>-Triphenyl thiophosphate;Thiophosphoric acid triphenyl ester;Triphenyl phosphorothionate;Triphenyl thiophosphate;Triphenoxyphosphine sulfide;<em>O</em>,<em>O</em>,<em>O</em>-Triphenyl phosphorothioate;NSC 57867;T 309;T 309 (antiwear additive)",
    "duplicated_cas_no": "325726-84-9",
    "SMILES": "P(OC1=CC=CC=C1)(OC2=CC=CC=C2)(OC3=CC=CC=C3)=S",
    "meta_data": {
        "InChI": "InChI=1S/C18H15O3PS/c23-22(19-16-10-4-1-5-11-16,20-17-12-6-2-7-13-17)21-18-14-8-3-9-15-18/h1-15H",
        "InChIKey": null,
        "Canonical SMILES": "S=P(OC=1C=CC=CC1)(OC=2C=CC=CC2)OC=3C=CC=CC3",
        "Molecular Formula": "C<sub>18</sub>H<sub>15</sub>O<sub>3</sub>PS",
        "Molecular Mass": "342.35",
        "Boiling Point": "148-150 °C @ Press: 0.1 Torr",
        "Melting Point": "48 °C"
    }
}