{
    "cas_no": "13132-23-5",
    "key_name": "Magnesium, chloro(2,2-dimethylpropyl)-",
    "cn_name": "氯化新戊基镁;2,2-二甲基丙基氯化镁溶液;",
    "alternate_name": "Magnesium, chloro(2,2-dimethylpropyl)-;Magnesium, chloroneopentyl-;Neopentylmagnesium chloride;Pivalylmagnesium chloride;(2,2-Dimethylpropyl)magnesium chloride;Chloroneopentylmagnesium;Chloro(2,2-dimethylpropyl)magnesium",
    "duplicated_cas_no": "",
    "SMILES": "C(C(C)(C)C)[Mg]Cl",
    "meta_data": {
        "InChI": "InChI=1S/C5H11.ClH.Mg/c1-5(2,3)4;;/h1H2,2-4H3;1H;/q;;+1/p-1",
        "InChIKey": null,
        "Canonical SMILES": "Cl[Mg]CC(C)(C)C",
        "Molecular Formula": "C<sub>5</sub>H<sub>11</sub>ClMg",
        "Molecular Mass": "",
        "Boiling Point": "118-120 °C @ Press: 12 Torr"
    }
}