{
    "cas_no": "41483-43-6",
    "key_name": "Bupirimate",
    "cn_name": "布瑞莫;乙嘧酚磺酸酯;5-丁基-2-乙基氨基-6-甲基嘧啶-4-基二甲基氨基磺酸酯;",
    "alternate_name": "Sulfamic acid, <em>N</em>,<em>N</em>-dimethyl-, 5-butyl-2-(ethylamino)-6-methyl-4-pyrimidinyl ester;Sulfamic acid, dimethyl-, 5-butyl-2-(ethylamino)-6-methyl-4-pyrimidinyl ester;Bupirimate;Nimrod;PP 588;Buprimate",
    "duplicated_cas_no": "54659-88-0;58694-46-5;1135442-56-6",
    "SMILES": "C(CCC)C=1C(OS(N(C)C)(=O)=O)=NC(NCC)=NC1C",
    "meta_data": {
        "InChI": "InChI=1S/C13H24N4O3S/c1-6-8-9-11-10(3)15-13(14-7-2)16-12(11)20-21(18,19)17(4)5/h6-9H2,1-5H3,(H,14,15,16)",
        "InChIKey": null,
        "Canonical SMILES": "O=S(=O)(OC1=NC(=NC(=C1CCCC)C)NCC)N(C)C",
        "Molecular Formula": "C<sub>13</sub>H<sub>24</sub>N<sub>4</sub>O<sub>3</sub>S",
        "Molecular Mass": "316.42",
        "Melting Point": "50-51 °C"
    }
}