{
    "cas_no": "74222-97-2",
    "key_name": "Sulfometuron-methyl",
    "cn_name": "甲嘧磺隆;",
    "alternate_name": "Benzoic acid, 2-[[[[(4,6-dimethyl-2-pyrimidinyl)amino]carbonyl]amino]sulfonyl]-, methyl ester;DPX 5648;Oust;Sulfometuron-methyl;Sulfomethuron-methyl;SMM;Curavial;Oust XP",
    "duplicated_cas_no": "78794-09-9",
    "SMILES": "S(NC(NC=1N=C(C)C=C(C)N1)=O)(=O)(=O)C2=C(C(OC)=O)C=CC=C2",
    "meta_data": {
        "InChI": "InChI=1S/C15H16N4O5S/c1-9-8-10(2)17-14(16-9)18-15(21)19-25(22,23)12-7-5-4-6-11(12)13(20)24-3/h4-8H,1-3H3,(H2,16,17,18,19,21)",
        "InChIKey": null,
        "Canonical SMILES": "O=C(OC)C=1C=CC=CC1S(=O)(=O)NC(=O)NC=2N=C(C=C(N2)C)C",
        "Molecular Formula": "C<sub>15</sub>H<sub>16</sub>N<sub>4</sub>O<sub>5</sub>S",
        "Molecular Mass": "364.38",
        "Melting Point": "204 °C"
    }
}