{
    "cas_no": "6290-49-9",
    "key_name": "Methyl methoxyacetate",
    "cn_name": "甲氧基乙酸甲酯;",
    "alternate_name": "Acetic acid, 2-methoxy-, methyl ester;Acetic acid, methoxy-, methyl ester;Methyl methoxyacetate;Methyl 2-methoxyacetate;Methyl α-methoxyacetate;Methoxyacetic acid methyl ester;NSC 61447;NSC 6701",
    "duplicated_cas_no": "",
    "SMILES": "C(COC)(OC)=O",
    "meta_data": {
        "InChI": "InChI=1S/C4H8O3/c1-6-3-4(5)7-2/h3H2,1-2H3",
        "InChIKey": null,
        "Canonical SMILES": "O=C(OC)COC",
        "Molecular Formula": "C<sub>4</sub>H<sub>8</sub>O<sub>3</sub>",
        "Molecular Mass": "104.10",
        "Boiling Point": "131 °C",
        "Density": "1.0579 g/cm³ @ Temp: 15 °C"
    }
}