{
    "cas_no": "4263-87-0",
    "key_name": "Dehydrodiconiferyl alcohol",
    "cn_name": null,
    "alternate_name": "3-Benzofuranmethanol, 2,3-dihydro-2-(4-hydroxy-3-methoxyphenyl)-5-(3-hydroxy-1-propen-1-yl)-7-methoxy-;3-Benzofuranmethanol, 2,3-dihydro-2-(4-hydroxy-3-methoxyphenyl)-5-(3-hydroxypropenyl)-7-methoxy-;3-Benzofuranmethanol, 2,3-dihydro-2-(4-hydroxy-3-methoxyphenyl)-5-(3-hydroxy-1-propenyl)-7-methoxy-;2,3-Dihydro-2-(4-hydroxy-3-methoxyphenyl)-5-(3-hydroxy-1-propen-1-yl)-7-methoxy-3-benzofuranmethanol;Coniferyl alcohol, dehydrodi-;Diconiferyl alcohol, dehydro-;Dehydrodiconiferyl alcohol",
    "duplicated_cas_no": "",
    "SMILES": "C(O)C1C=2C(OC1C3=CC(OC)=C(O)C=C3)=C(OC)C=C(C=CCO)C2",
    "meta_data": {
        "InChI": "InChI=1S/C20H22O6/c1-24-17-10-13(5-6-16(17)23)19-15(11-22)14-8-12(4-3-7-21)9-18(25-2)20(14)26-19/h3-6,8-10,15,19,21-23H,7,11H2,1-2H3",
        "InChIKey": null,
        "Canonical SMILES": "OC1=CC=C(C=C1OC)C2OC=3C(OC)=CC(C=CCO)=CC3C2CO",
        "Molecular Formula": "C<sub>20</sub>H<sub>22</sub>O<sub>6</sub>",
        "Molecular Mass": "358.39",
        "Melting Point": "157.5-158.5 °C"
    }
}