{
    "cas_no": "22572-40-3",
    "key_name": "1-[3-(Dimethylamino)propyl]-3-ethylcarbodiimide methiodide",
    "cn_name": null,
    "alternate_name": "1-Propanaminium, 3-[(ethylcarbonimidoyl)amino]-<em>N</em>,<em>N</em>,<em>N</em>-trimethyl-, iodide (1:1);Ammonium, [3-[(ethylimidocarbonyl)amino]propyl]trimethyl-, iodide;1-Propanaminium, 3-[(ethylcarbonimidoyl)amino]-<em>N</em>,<em>N</em>,<em>N</em>-trimethyl-, iodide;[3-[(Ethylimidocarbonyl)amino]propyl]trimethylammonium iodide;1-Ethyl-3-[3-(trimethylammonio)propyl]carbodiimide iodide;1-Ethyl-3-(3-dimethylaminopropyl)carbodiimide methiodide;1-[3-(Dimethylamino)propyl]-3-ethylcarbodiimide methiodide;<em>N</em>-[3-(Dimethylamino)propyl]-<em>N</em>′-ethylcarbodiimide methiodide;(3-[[(Ethylimino)methylidene]amino]propyl)trimethylazanium iodide;(Dimethylaminopropyl)-3-ethylcarbodiimide methiodide",
    "duplicated_cas_no": "294181-67-2;640291-39-0",
    "SMILES": "C(CCN=C=NCC)[N+](C)(C)C.[I-]",
    "meta_data": {
        "InChI": "InChI=1S/C9H20N3.HI/c1-5-10-9-11-7-6-8-12(2,3)4;/h5-8H2,1-4H3;1H/q+1;/p-1",
        "InChIKey": null,
        "Canonical SMILES": "[I-].C(=NCC)=NCCC[N+](C)(C)C",
        "Molecular Formula": "C<sub>9</sub>H<sub>20</sub>N<sub>3</sub>.I",
        "Molecular Mass": "",
        "Melting Point": "106 °C"
    }
}