{
    "cas_no": "4619-20-9",
    "key_name": "4-Methyl-γ-oxobenzenebutanoic acid",
    "cn_name": "3-(4-甲基苯甲酰)丙酸;",
    "alternate_name": "Benzenebutanoic acid, 4-methyl-γ-oxo-;Propionic acid, 3-<em>p</em>-toluoyl-;4-Methyl-γ-oxobenzenebutanoic acid;β-<em>p</em>-Toluoylpropionic acid;3-(<em>p</em>-Methylbenzoyl)propionic acid;β-(4-Methylbenzoyl)propionic acid;3-(4-Methylbenzoyl)propanoic acid;4-Oxo-4-(4-methylphenyl)butanoic acid;3-(4-Methylbenzoyl)propionic acid;3-<em>p</em>-Toluoylpropionic acid;4-(4-Methylphenyl)-4-oxobutyric acid;β-(4-Methylphenyl)propionic acid;NSC 54788;4-(4-Methylphenyl)-4-oxobutanoic acid;4-Oxo-4-(<em>p</em>-tolyl)butanoic acid",
    "duplicated_cas_no": "",
    "SMILES": "C(CCC(O)=O)(=O)C1=CC=C(C)C=C1",
    "meta_data": {
        "InChI": "InChI=1S/C11H12O3/c1-8-2-4-9(5-3-8)10(12)6-7-11(13)14/h2-5H,6-7H2,1H3,(H,13,14)",
        "InChIKey": null,
        "Canonical SMILES": "O=C(O)CCC(=O)C1=CC=C(C=C1)C",
        "Molecular Formula": "C<sub>11</sub>H<sub>12</sub>O<sub>3</sub>",
        "Molecular Mass": "192.21",
        "Melting Point": "94 °C"
    }
}