{
    "cas_no": "974-23-2",
    "key_name": "16α,17α-Epoxypregnenolone",
    "cn_name": "16,17-环氧孕烯醇酮;16a,17a-环氧-3b-羟基孕甾-5-烯-20-酮;",
    "alternate_name": "Pregn-5-en-20-one, 16,17-epoxy-3-hydroxy-, (3β,16α)-;Pregn-5-en-20-one, 16α,17-epoxy-3β-hydroxy-;16,17-Epoxy-17<em>H</em>-cyclopenta[<em>a</em>]phenanthrene, pregn-5-en-20-one deriv.;(3β,16α)-16,17-Epoxy-3-hydroxypregn-5-en-20-one;16α,17α-Oxidopregnenolone;16α,17α-Epoxypregnenolone;3β-Hydroxy-16α,17α-epoxy-5-pregnen-20-one;16α,17-Epoxy-3β-hydroxypregn-5-en-20-one;16α,17α-Epoxy-3β-hydroxy-5-pregnen-20-one;5-Pregnen-16α,17α-epoxy-3β-ol-20-one;NSC 122401;16,17α-Epoxypregnenolone;16α,17α-Epoxypregn-5-en-3β-ol-20-one;16a,17-Epoxy-3b-hydroxypregn-5-en-20-one",
    "duplicated_cas_no": "478614-11-8",
    "SMILES": "C(C)(=O)[C@]12[C@]3(C)[C@@](C[C@]1(O2)[H])([C@]4([C@](CC3)([C@]5(C)C(=CC4)C[C@@H](O)CC5)[H])[H])[H]",
    "meta_data": {
        "InChI": "InChI=1S/C21H30O3/c1-12(22)21-18(24-21)11-17-15-5-4-13-10-14(23)6-8-19(13,2)16(15)7-9-20(17,21)3/h4,14-18,23H,5-11H2,1-3H3/t14-,15+,16-,17-,18+,19-,20-,21+/m0/s1",
        "InChIKey": null,
        "Canonical SMILES": "O=C(C)C12OC2CC3C4CC=C5CC(O)CCC5(C)C4CCC31C",
        "Molecular Formula": "C<sub>21</sub>H<sub>30</sub>O<sub>3</sub>",
        "Molecular Mass": "330.46",
        "Melting Point": "185-188 °C"
    }
}