{
    "cas_no": "1461-25-2",
    "key_name": "Tetrabutyltin",
    "cn_name": "四丁基锡;",
    "alternate_name": "Stannane, tetrabutyl-;Tetrabutylstannane;Tetra-<em>n</em>-butyltin;Tetrabutyltin;Tetra-<em>n</em>-butylstannane;Tetrabutyltin(IV);NSC 22330;NSC 28131;NSC 65524",
    "duplicated_cas_no": "",
    "SMILES": "[Sn](CCCC)(CCCC)(CCCC)CCCC",
    "meta_data": {
        "InChI": "InChI=1S/4C4H9.Sn/c4*1-3-4-2;/h4*1,3-4H2,2H3;",
        "InChIKey": null,
        "Canonical SMILES": "CCCC[Sn](CCCC)(CCCC)CCCC",
        "Molecular Formula": "C<sub>16</sub>H<sub>36</sub>Sn",
        "Molecular Mass": "347.17",
        "Boiling Point": "145 °C @ Press: 10 Torr",
        "Melting Point": "-97 °C",
        "Density": "1.054 g/cm³ @ Temp: 20 °C"
    }
}