{
    "cas_no": "62821-89-0",
    "key_name": "3,5-Dimethyl-1<em>H</em>-pyrazole-1-propanamine",
    "cn_name": null,
    "alternate_name": "1<em>H</em>-Pyrazole-1-propanamine, 3,5-dimethyl-;Pyrazole, 1-(3-aminopropyl)-3,5-dimethyl-;3,5-Dimethyl-1<em>H</em>-pyrazole-1-propanamine;1-(3-Aminopropyl)-3,5-dimethylpyrazole;3-(3,5-Dimethyl-1<em>H</em>-pyrazol-1-yl)propylamine",
    "duplicated_cas_no": "",
    "SMILES": "C(CCN)N1N=C(C)C=C1C",
    "meta_data": {
        "InChI": "InChI=1S/C8H15N3/c1-7-6-8(2)11(10-7)5-3-4-9/h6H,3-5,9H2,1-2H3",
        "InChIKey": null,
        "Canonical SMILES": "N1=C(C=C(N1CCCN)C)C",
        "Molecular Formula": "C<sub>8</sub>H<sub>15</sub>N<sub>3</sub>",
        "Molecular Mass": "153.22",
        "Boiling Point": "130-131 °C @ Press: 15 Torr",
        "Density": "0.9991 g/cm³ @ Temp: 20 °C"
    }
}