{
    "cas_no": "2999-46-4",
    "key_name": "Ethyl isocyanoacetate",
    "cn_name": "异氰基乙酸乙酯;异氰乙酸乙酯;",
    "alternate_name": "Acetic acid, 2-isocyano-, ethyl ester;Acetic acid, isocyano-, ethyl ester;(Ethoxycarbonyl)methyl isonitrile;Ethyl isocyanoacetate;Isocyanoacetic acid ethyl ester;α-Isocyanoacetic acid ethyl ester;Ethyl α-isocyanoacetate;Ethyl 2-isocyanoacetate;Ethoxycarbonylmethyl isocyanide;2-Ethoxy-2-oxoethyl isocyanide;2-Ethyloxycarbonylmethyl isocyanide",
    "duplicated_cas_no": "89463-88-7",
    "SMILES": "C(C[N+]#[C-])(OCC)=O",
    "meta_data": {
        "InChI": "InChI=1S/C5H7NO2/c1-3-8-5(7)4-6-2/h3-4H2,1H3",
        "InChIKey": null,
        "Canonical SMILES": "[C-]#[N+]CC(=O)OCC",
        "Molecular Formula": "C<sub>5</sub>H<sub>7</sub>NO<sub>2</sub>",
        "Molecular Mass": "",
        "Boiling Point": "30-40 °C @ Press: 15 Torr"
    }
}