{
    "cas_no": "56621-48-8",
    "key_name": "1-(4-Hydroxyphenyl)piperazine",
    "cn_name": "4-(1-哌嗪基)苯酚;1-(4-羟基苯基)哌嗪;",
    "alternate_name": "Phenol, 4-(1-piperazinyl)-;4-(1-Piperazinyl)phenol;1-(4-Hydroxyphenyl)piperazine;<em>N</em>-(4-Hydroxyphenyl)piperazine;4-(4-Hydroxyphenyl)piperazine;4-Piperazinophenol",
    "duplicated_cas_no": "",
    "SMILES": "OC1=CC=C(C=C1)N2CCNCC2",
    "meta_data": {
        "InChI": "InChI=1S/C10H14N2O/c13-10-3-1-9(2-4-10)12-7-5-11-6-8-12/h1-4,11,13H,5-8H2",
        "InChIKey": null,
        "Canonical SMILES": "OC1=CC=C(C=C1)N2CCNCC2",
        "Molecular Formula": "C<sub>10</sub>H<sub>14</sub>N<sub>2</sub>O",
        "Molecular Mass": "178.23",
        "Melting Point": "218-220 °C"
    }
}