{
    "cas_no": "33998-26-4",
    "key_name": "Cholesteryl phenylacetate",
    "cn_name": "胆固醇苯乙酸酯;胆甾醇苯乙酸酯;胆固醇乙酸苯酯;",
    "alternate_name": "Cholest-5-en-3-ol (3β)-, 3-benzeneacetate;Cholest-5-en-3-ol (3β)-, benzeneacetate;Cholesterol, phenylacetate;Cholesteryl phenylacetate",
    "duplicated_cas_no": "364605-45-8",
    "SMILES": "C[C@@]12[C@@]3([C@]([C@]4([C@](C)(CC3)[C@@]([C@@H](CCCC(C)C)C)(CC4)[H])[H])(CC=C1C[C@@H](OC(CC5=CC=CC=C5)=O)CC2)[H])[H]",
    "meta_data": {
        "InChI": "InChI=1S/C35H52O2/c1-24(2)10-9-11-25(3)30-16-17-31-29-15-14-27-23-28(37-33(36)22-26-12-7-6-8-13-26)18-20-34(27,4)32(29)19-21-35(30,31)5/h6-8,12-14,24-25,28-32H,9-11,15-23H2,1-5H3/t25-,28+,29+,30-,31+,32+,34+,35-/m1/s1",
        "InChIKey": null,
        "Canonical SMILES": "O=C(OC1CC2=CCC3C(CCC4(C)C(CCC34)C(C)CCCC(C)C)C2(C)CC1)CC=5C=CC=CC5",
        "Molecular Formula": "C<sub>35</sub>H<sub>52</sub>O<sub>2</sub>",
        "Molecular Mass": "504.79",
        "Melting Point": "119-120 °C"
    }
}