{
    "cas_no": "606-04-2",
    "key_name": "Pamabrom",
    "cn_name": "帕马溴;2-氨基-2-甲基丙醇8-溴胆茶碱;",
    "alternate_name": "1<em>H</em>-Purine-2,6-dione, 8-bromo-3,9-dihydro-1,3-dimethyl-, compd. with 2-amino-2-methyl-1-propanol (1:1);Theophylline, 8-bromo-, compd. with 2-amino-2-methyl-1-propanol (1:1);1<em>H</em>-Purine-2,6-dione, 8-bromo-3,7-dihydro-1,3-dimethyl-, compd. with 2-amino-2-methyl-1-propanol (1:1);1-Propanol, 2-amino-2-methyl-, compd. with 8-bromotheophylline (1:1);1-Propanol, 2-amino-2-methyl-, compd. with 8-bromo-3,7-dihydro-1,3-dimethyl-1<em>H</em>-purine-2,6-dione (1:1);2-Amino-2-methyl-1-propanol 8-bromotheophyllinate;Pamabrom;Predema;Sunril;Premsyn PMS",
    "duplicated_cas_no": "",
    "SMILES": "O=C1C2=C(N(C)C(=O)N1C)N=C(Br)N2.C(CO)(C)(C)N",
    "meta_data": {
        "InChI": "InChI=1S/C7H7BrN4O2.C4H11NO/c1-11-4-3(9-6(8)10-4)5(13)12(2)7(11)14;1-4(2,5)3-6/h1-2H3,(H,9,10);6H,3,5H2,1-2H3",
        "InChIKey": null,
        "Canonical SMILES": "O=C1C=2NC(Br)=NC2N(C(=O)N1C)C.OCC(N)(C)C",
        "Molecular Formula": "C<sub>7</sub>H<sub>7</sub>BrN<sub>4</sub>O<sub>2</sub>.C<sub>4</sub>H<sub>11</sub>NO",
        "Molecular Mass": "",
        "Melting Point": "300 °C (decomp)"
    }
}