{
    "cas_no": "1190321-86-8",
    "key_name": "4-Methyl-1<em>H</em>-pyrrolo[2,3-<em>c</em>]pyridine",
    "cn_name": null,
    "alternate_name": "1<em>H</em>-Pyrrolo[2,3-<em>c</em>]pyridine, 4-methyl-;4-Methyl-1<em>H</em>-pyrrolo[2,3-<em>c</em>]pyridine",
    "duplicated_cas_no": "",
    "SMILES": "CC1=C2C(=CN=C1)NC=C2",
    "meta_data": {
        "InChI": "InChI=1S/C8H8N2/c1-6-4-9-5-8-7(6)2-3-10-8/h2-5,10H,1H3",
        "InChIKey": null,
        "Canonical SMILES": "N=1C=C2NC=CC2=C(C1)C",
        "Molecular Formula": "C<sub>8</sub>H<sub>8</sub>N<sub>2</sub>",
        "Molecular Mass": "132.16",
        "Melting Point": "205-206 °C"
    }
}