{
    "cas_no": "15686-83-6",
    "key_name": "Pyrantel",
    "cn_name": "噻嘧啶;驱虫宁;噻吩嘧啶;噻嘧啶;吡喃呔;反式-1,4,,5,6-四氢-1-甲基-2-(2-(2-噻唑)乙烯基)嘧啶;噻吩乙烯四氢;",
    "alternate_name": "Pyrimidine, 1,4,5,6-tetrahydro-1-methyl-2-[(1<em>E</em>)-2-(2-thienyl)ethenyl]-;Pyrimidine, 1,4,5,6-tetrahydro-1-methyl-2-[2-(2-thienyl)vinyl]-, (<em>E</em>)-;Pyrimidine, 1,4,5,6-tetrahydro-1-methyl-2-[2-(2-thienyl)ethenyl]-, (<em>E</em>)-;1,4,5,6-Tetrahydro-1-methyl-2-[(1<em>E</em>)-2-(2-thienyl)ethenyl]pyrimidine;Pyrantel;1,4,5,6-Tetrahydro-1-methyl-2-[<em>trans</em>-2-(2-thienyl)vinyl]pyrimidine;Pyrequan;Ascarel",
    "duplicated_cas_no": "",
    "SMILES": "C(=C/C1=CC=CS1)\\C=2N(C)CCCN2",
    "meta_data": {
        "InChI": "InChI=1S/C11H14N2S/c1-13-8-3-7-12-11(13)6-5-10-4-2-9-14-10/h2,4-6,9H,3,7-8H2,1H3/b6-5+",
        "InChIKey": null,
        "Canonical SMILES": "N1=C(C=CC=2SC=CC2)N(C)CCC1",
        "Molecular Formula": "C<sub>11</sub>H<sub>14</sub>N<sub>2</sub>S",
        "Molecular Mass": "206.31",
        "Melting Point": "178-179 °C"
    }
}