{
    "cas_no": "104206-82-8",
    "key_name": "Mesotrione",
    "cn_name": "甲基磺草酮;2-(4-甲磺酰基-2-硝基苯甲酰基)环已烷-1,3-二酮;",
    "alternate_name": "1,3-Cyclohexanedione, 2-[4-(methylsulfonyl)-2-nitrobenzoyl]-;2-[4-(Methylsulfonyl)-2-nitrobenzoyl]-1,3-cyclohexanedione;Mesotrione;ZA 1296;Callisto;Tenacity (herbicide);Tenacity;Xiaohuangcaotong;Calisto",
    "duplicated_cas_no": "435270-61-4;207996-81-4",
    "SMILES": "C(=O)(C1=C(N(=O)=O)C=C(S(C)(=O)=O)C=C1)C2C(=O)CCCC2=O",
    "meta_data": {
        "InChI": "InChI=1S/C14H13NO7S/c1-23(21,22)8-5-6-9(10(7-8)15(19)20)14(18)13-11(16)3-2-4-12(13)17/h5-7,13H,2-4H2,1H3",
        "InChIKey": null,
        "Canonical SMILES": "O=C(C1=CC=C(C=C1N(=O)=O)S(=O)(=O)C)C2C(=O)CCCC2=O",
        "Molecular Formula": "C<sub>14</sub>H<sub>13</sub>NO<sub>7</sub>S",
        "Molecular Mass": "339.32",
        "Melting Point": "157-159 °C"
    }
}