{
    "cas_no": "173676-60-3",
    "key_name": "(α<em>S</em>)-5-Chloro-α-(2-cyclopropylethynyl)-2-[[(4-methoxyphenyl)methyl]amino]-α-(trifluoromethyl)benzenemethanol",
    "cn_name": null,
    "alternate_name": "Benzenemethanol, 5-chloro-α-(2-cyclopropylethynyl)-2-[[(4-methoxyphenyl)methyl]amino]-α-(trifluoromethyl)-, (α<em>S</em>)-;Benzenemethanol, 5-chloro-α-(cyclopropylethynyl)-2-[[(4-methoxyphenyl)methyl]amino]-α-(trifluoromethyl)-, (<em>S</em>)-;Benzenemethanol, 5-chloro-α-(cyclopropylethynyl)-2-[[(4-methoxyphenyl)methyl]amino]-α-(trifluoromethyl)-, (α<em>S</em>)-;(α<em>S</em>)-5-Chloro-α-(2-cyclopropylethynyl)-2-[[(4-methoxyphenyl)methyl]amino]-α-(trifluoromethyl)benzenemethanol;SD 572;(2S)-2-[5-Chloro-2-[(4-methoxyphenyl)methylamino]phenyl]-4-cyclopropyl-1,1,1-trifluorobut-3-yn-2-ol",
    "duplicated_cas_no": "",
    "SMILES": "[C@](C#CC1CC1)([C@@](F)(F)F)(O)C2=C(NCC3=CC=C(OC)C=C3)C=CC(Cl)=C2",
    "meta_data": {
        "InChI": "InChI=1S/C21H19ClF3NO2/c1-28-17-7-4-15(5-8-17)13-26-19-9-6-16(22)12-18(19)20(27,21(23,24)25)11-10-14-2-3-14/h4-9,12,14,26-27H,2-3,13H2,1H3/t20-/m0/s1",
        "InChIKey": null,
        "Canonical SMILES": "FC(F)(F)C(O)(C#CC1CC1)C2=CC(Cl)=CC=C2NCC3=CC=C(OC)C=C3",
        "Molecular Formula": "C<sub>21</sub>H<sub>19</sub>ClF<sub>3</sub>NO<sub>2</sub>",
        "Molecular Mass": "409.83",
        "Melting Point": "154-156 °C"
    }
}