{
    "cas_no": "451-80-9",
    "key_name": "1-Ethoxy-2-fluorobenzene",
    "cn_name": "2-氟代苯乙醚;",
    "alternate_name": "Benzene, 1-ethoxy-2-fluoro-;Phenetole, <em>o</em>-fluoro-;1-Ethoxy-2-fluorobenzene;<em>o</em>-Fluorophenetole;2-Fluorophenetole;2-Fluoro-1-ethoxybenzene;2-Ethoxyfluorobenzene;NSC 89718",
    "duplicated_cas_no": "",
    "SMILES": "O(CC)C1=C(F)C=CC=C1",
    "meta_data": {
        "InChI": "InChI=1S/C8H9FO/c1-2-10-8-6-4-3-5-7(8)9/h3-6H,2H2,1H3",
        "InChIKey": null,
        "Canonical SMILES": "FC=1C=CC=CC1OCC",
        "Molecular Formula": "C<sub>8</sub>H<sub>9</sub>FO",
        "Molecular Mass": "140.15",
        "Boiling Point": "171.4 °C",
        "Melting Point": "-16.7 °C"
    }
}