{
    "cas_no": "4792-30-7",
    "key_name": "3-Methylphthalic anhydride",
    "cn_name": "3-甲基邻苯二甲酸酐;",
    "alternate_name": "1,3-Isobenzofurandione, 4-methyl-;Phthalic anhydride, 3-methyl-;4-Methyl-1,3-isobenzofurandione;2,3-Toluenedicarboxylic anhydride;3-Methylphthalic anhydride;NSC 61875;3-Methylphthalicacidanhydride",
    "duplicated_cas_no": "",
    "SMILES": "CC1=C2C(C(=O)OC2=O)=CC=C1",
    "meta_data": {
        "InChI": "InChI=1S/C9H6O3/c1-5-3-2-4-6-7(5)9(11)12-8(6)10/h2-4H,1H3",
        "InChIKey": null,
        "Canonical SMILES": "O=C1OC(=O)C=2C1=CC=CC2C",
        "Molecular Formula": "C<sub>9</sub>H<sub>6</sub>O<sub>3</sub>",
        "Molecular Mass": "162.14",
        "Boiling Point": "125 °C @ Press: 0.4 Torr",
        "Melting Point": "114.5-117 °C"
    }
}