{
    "cas_no": "19012-02-3",
    "key_name": "1-(1-Methyl-1<em>H</em>-indol-3-yl)ethanone",
    "cn_name": null,
    "alternate_name": "Ethanone, 1-(1-methyl-1<em>H</em>-indol-3-yl)-;Ketone, methyl 1-methylindol-3-yl;1-(1-Methyl-1<em>H</em>-indol-3-yl)ethanone;<em>N</em>-Methyl-3-acetylindole;1-Methyl-3-acetylindole;3-Acetyl-1-methylindole;1-(1-Methyl-1<em>H</em>-indol-3-yl)-1-ethanone;3-Acetyl-1-methyl-1<em>H</em>-indole;1-(1-Methylindol-3-yl)ethanone",
    "duplicated_cas_no": "",
    "SMILES": "C(C)(=O)C=1C=2C(N(C)C1)=CC=CC2",
    "meta_data": {
        "InChI": "InChI=1S/C11H11NO/c1-8(13)10-7-12(2)11-6-4-3-5-9(10)11/h3-7H,1-2H3",
        "InChIKey": null,
        "Canonical SMILES": "O=C(C1=CN(C=2C=CC=CC12)C)C",
        "Molecular Formula": "C<sub>11</sub>H<sub>11</sub>NO",
        "Molecular Mass": "173.21",
        "Boiling Point": "130-140 °C @ Press: 0.01 Torr",
        "Melting Point": "95 °C"
    }
}