{
    "cas_no": "3774-53-6",
    "key_name": "Thiocyanic acid, 4-hydroxy-3-methylphenyl ester",
    "cn_name": "2-甲基-4-硫氰基苯酚; 4-羟基-3-甲基苯基硫氰酸酯;",
    "alternate_name": "Thiocyanic acid, 4-hydroxy-3-methylphenyl ester;Thiocyanic acid, 4-hydroxy-<em>m</em>-tolyl ester;<em>o</em>-Cresol, 4-thiocyanato-;3-Methyl-4-hydroxyphenyl thiocyanate;4-Hydroxy-3-methylphenyl thiocyanate;4-Hydroxy-<em>m</em>-tolyl thiocyanate;4-Thiocyanato-<em>o</em>-cresol;2-Methyl-4-(thiocyano)phenol;NSC 31040;NSC 4470;NSC 7392;2-Methyl-4-thiocyanatophenol",
    "duplicated_cas_no": "",
    "SMILES": "S(C#N)C1=CC(C)=C(O)C=C1",
    "meta_data": {
        "InChI": "InChI=1S/C8H7NOS/c1-6-4-7(11-5-9)2-3-8(6)10/h2-4,10H,1H3",
        "InChIKey": null,
        "Canonical SMILES": "N#CSC1=CC=C(O)C(=C1)C",
        "Molecular Formula": "C<sub>8</sub>H<sub>7</sub>NOS",
        "Molecular Mass": "165.21",
        "Melting Point": "61 °C"
    }
}