{
    "cas_no": "3397-33-9",
    "key_name": "1,2-Pyrrolidinedicarboxylic acid, 2-(2,5-dioxo-1-pyrrolidinyl) 1-(phenylmethyl) ester, (2<em>S</em>)-",
    "cn_name": null,
    "alternate_name": "1,2-Pyrrolidinedicarboxylic acid, 2-(2,5-dioxo-1-pyrrolidinyl) 1-(phenylmethyl) ester, (2<em>S</em>)-;Succinimide, <em>N</em>-[(1-carboxy-<span class=\"text-smallcaps\">L</span>-prolyl)oxy]-, benzyl ester;1-Pyrrolidinecarboxylic acid, 2-[[(2,5-dioxo-1-pyrrolidinyl)oxy]carbonyl]-, phenylmethyl ester, (<em>S</em>)-;1-Pyrrolidinecarboxylic acid, 2-[[(2,5-dioxo-1-pyrrolidinyl)oxy]carbonyl]-, phenylmethyl ester, (2<em>S</em>)-;1,2-Pyrrolidinedicarboxylic acid, 1-benzyl ester, succinimido deriv., <span class=\"text-smallcaps\">L</span>-;<span class=\"text-smallcaps\">L</span>-Proline, 1-pyrrolidinecarboxylic acid deriv.;Benzyloxycarbonyl-<span class=\"text-smallcaps\">L</span>-proline ester with <em>N</em>-hydroxysuccinimide;1-<em>O</em>-Benzyl 2-<em>O</em>-(2,5-dioxopyrrolidin-1-yl) (2S)-pyrrolidine-1,2-dicarboxylate",
    "duplicated_cas_no": "103478-83-7",
    "SMILES": "C(ON1C(=O)CCC1=O)(=O)[C@H]2N(C(OCC3=CC=CC=C3)=O)CCC2",
    "meta_data": {
        "InChI": "InChI=1S/C17H18N2O6/c20-14-8-9-15(21)19(14)25-16(22)13-7-4-10-18(13)17(23)24-11-12-5-2-1-3-6-12/h1-3,5-6,13H,4,7-11H2/t13-/m0/s1",
        "InChIKey": null,
        "Canonical SMILES": "O=C(OCC=1C=CC=CC1)N2CCCC2C(=O)ON3C(=O)CCC3=O",
        "Molecular Formula": "C<sub>17</sub>H<sub>18</sub>N<sub>2</sub>O<sub>6</sub>",
        "Molecular Mass": "346.33",
        "Melting Point": "90 °C"
    }
}