{
    "cas_no": "1022-22-6",
    "key_name": "<em>p</em>,<em>p</em>′-DDMU",
    "cn_name": "4,4-DDMU;",
    "alternate_name": "Benzene, 1,1′-(2-chloroethenylidene)bis[4-chloro-;Ethylene, 2-chloro-1,1-bis(<em>p</em>-chlorophenyl)-;Benzene, 1,1′-(chloroethenylidene)bis[4-chloro-;1,1′-(2-Chloroethenylidene)bis[4-chlorobenzene];1,1-Bis(<em>p</em>-chlorophenyl)-2-chloroethylene;DDMU;<em>p</em>,<em>p</em>′-DME;TDEE;<em>p</em>,<em>p</em>′-TDE olefin;1-Chloro-2,2-bis(<em>p</em>-chlorophenyl)ethylene;<em>p</em>,<em>p</em>′-DDMU;<em>p</em>,<em>p</em>′-DDD olefin;<em>p</em>,<em>p</em>′-DDM;1,1-Bis(<em>p</em>-chlorophenyl)-2-chloroethene;<em>p</em>,<em>p</em>′-TDEE;2,2-Bis(4-chlorophenyl)-1-chloroethylene;2,2-Bis(<em>p</em>-chlorophenyl)-1-chloroethylene;1,1-Bis(4-chlorophenyl)-2-chloroethylene;2-Chloro-1,1-bis(4-chlorophenyl)ethylene;1-Chloro-2,2-bis(4-chlorophenyl)ethylene;p,p′-DDMU;<em>p</em>,<em>p</em>′-1-Chloro-2,2′-bis(4-chlorophenyl)ethene;NSC 46465;1,1′-(Chlorovinylidene)bis[4-chlorobenzene];1,1-Bis(4-chlorophenyl)-2-chloroethene;1-Chloro-4-[2-chloro-1-(4-chlorophenyl)vinyl]benzene;4,4′-DDMU",
    "duplicated_cas_no": "",
    "SMILES": "C(=CCl)(C1=CC=C(Cl)C=C1)C2=CC=C(Cl)C=C2",
    "meta_data": {
        "InChI": "InChI=1S/C14H9Cl3/c15-9-14(10-1-5-12(16)6-2-10)11-3-7-13(17)8-4-11/h1-9H",
        "InChIKey": null,
        "Canonical SMILES": "ClC=C(C1=CC=C(Cl)C=C1)C2=CC=C(Cl)C=C2",
        "Molecular Formula": "C<sub>14</sub>H<sub>9</sub>Cl<sub>3</sub>",
        "Molecular Mass": "283.58",
        "Melting Point": "68-69 °C"
    }
}