{
    "cas_no": "41994-51-8",
    "key_name": "3-Isoquinolinecarboxylic acid, 1,2,3,4-tetrahydro-, hydrochloride (1:1)",
    "cn_name": "1,2,3,4-四氢-3-异喹啉羧酸盐酸盐;",
    "alternate_name": "3-Isoquinolinecarboxylic acid, 1,2,3,4-tetrahydro-, hydrochloride (1:1);3-Isoquinolinecarboxylic acid, 1,2,3,4-tetrahydro-, hydrochloride;1,2,3,4-Tetrahydro-3-isoquinolinecarboxylic acid hydrochloride;3-Carboxy-1,2,3,4-tetrahydroisoquinoline hydrochloride",
    "duplicated_cas_no": "100486-32-6",
    "SMILES": "C(O)(=O)C1CC=2C(CN1)=CC=CC2.Cl",
    "meta_data": {
        "InChI": "InChI=1S/C10H11NO2.ClH/c12-10(13)9-5-7-3-1-2-4-8(7)6-11-9;/h1-4,9,11H,5-6H2,(H,12,13);1H",
        "InChIKey": null,
        "Canonical SMILES": "Cl.O=C(O)C1NCC=2C=CC=CC2C1",
        "Molecular Formula": "C<sub>10</sub>H<sub>11</sub>NO<sub>2</sub>.ClH",
        "Molecular Mass": "",
        "Melting Point": "305 °C (decomp)"
    }
}