{
    "cas_no": "13689-20-8",
    "key_name": "Cyclohexyldiphenylphosphine oxide",
    "cn_name": "环己基双苯膦氧化物;环己基二苯膦氧化物;",
    "alternate_name": "Phosphine oxide, cyclohexyldiphenyl-;Cyclohexyldiphenylphosphine oxide;Diphenylcyclohexylphosphine oxide;[Cyclohexyl(phenyl)phosphoryl]benzene",
    "duplicated_cas_no": "",
    "SMILES": "P(=O)(C1CCCCC1)(C2=CC=CC=C2)C3=CC=CC=C3",
    "meta_data": {
        "InChI": "InChI=1S/C18H21OP/c19-20(16-10-4-1-5-11-16,17-12-6-2-7-13-17)18-14-8-3-9-15-18/h1-2,4-7,10-13,18H,3,8-9,14-15H2",
        "InChIKey": null,
        "Canonical SMILES": "O=P(C=1C=CC=CC1)(C=2C=CC=CC2)C3CCCCC3",
        "Molecular Formula": "C<sub>18</sub>H<sub>21</sub>OP",
        "Molecular Mass": "284.33",
        "Melting Point": "165-166 °C"
    }
}