{
    "cas_no": "930-28-9",
    "key_name": "Chlorocyclopentane",
    "cn_name": "氯化环戊烷;",
    "alternate_name": "Cyclopentane, chloro-;Chlorocyclopentane;Cyclopentyl chloride;NSC 16930",
    "duplicated_cas_no": "",
    "SMILES": "ClC1CCCC1",
    "meta_data": {
        "InChI": "InChI=1S/C5H9Cl/c6-5-3-1-2-4-5/h5H,1-4H2",
        "InChIKey": null,
        "Canonical SMILES": "ClC1CCCC1",
        "Molecular Formula": "C<sub>5</sub>H<sub>9</sub>Cl",
        "Molecular Mass": "104.58",
        "Boiling Point": "114 °C",
        "Density": "1.0051 g/cm³ @ Temp: 20 °C"
    }
}