{
    "cas_no": "6575-13-9",
    "key_name": "2,6-Dimethylbenzonitrile",
    "cn_name": "2,6-二甲基苯甲腈;",
    "alternate_name": "Benzonitrile, 2,6-dimethyl-;2,6-Dimethylbenzonitrile;2-Cyano-1,3-dimethylbenzene;NSC 98304",
    "duplicated_cas_no": "",
    "SMILES": "C(#N)C1=C(C)C=CC=C1C",
    "meta_data": {
        "InChI": "InChI=1S/C9H9N/c1-7-4-3-5-8(2)9(7)6-10/h3-5H,1-2H3",
        "InChIKey": null,
        "Canonical SMILES": "N#CC=1C(=CC=CC1C)C",
        "Molecular Formula": "C<sub>9</sub>H<sub>9</sub>N",
        "Molecular Mass": "131.17",
        "Boiling Point": "70-75 °C @ Press: 0.03 Torr",
        "Melting Point": "89-90 °C"
    }
}