{
    "cas_no": "354-28-9",
    "key_name": "Chlorodifluoroacetamide",
    "cn_name": "2-氯-2,2-二氟乙酰胺;",
    "alternate_name": "Acetamide, 2-chloro-2,2-difluoro-;2-Chloro-2,2-difluoroacetamide;Chlorodifluoroacetamide;NSC 9448",
    "duplicated_cas_no": "",
    "SMILES": "C(C(N)=O)(Cl)(F)F",
    "meta_data": {
        "InChI": "InChI=1S/C2H2ClF2NO/c3-2(4,5)1(6)7/h(H2,6,7)",
        "InChIKey": null,
        "Canonical SMILES": "O=C(N)C(F)(F)Cl",
        "Molecular Formula": "C<sub>2</sub>H<sub>2</sub>ClF<sub>2</sub>NO",
        "Molecular Mass": "129.49",
        "Boiling Point": "93 °C @ Press: 18 Torr",
        "Melting Point": "78.5 °C"
    }
}