{
    "cas_no": "118-52-5",
    "key_name": "1,3-Dichloro-5,5-dimethylhydantoin",
    "cn_name": "1,3-二氯-5,5-二甲基海因;",
    "alternate_name": "2,4-Imidazolidinedione, 1,3-dichloro-5,5-dimethyl-;Hydantoin, 1,3-dichloro-5,5-dimethyl-;1,3-Dichloro-5,5-dimethyl-2,4-imidazolidinedione;Dactin;Dantoin;Dichlorodimethylhydantoin;1,3-Dichloro-5,5-dimethylhydantoin;Halane;Hydan (antiseptic);Dichlorantin;Daktin;Hydan;<em>N</em>,<em>N</em>′-Dichloro-5,5-dimethylhydantoin;<em>N</em>,<em>N</em>′-Dichlorodimethylhydantoin;Dantochlor RW;DCDMH;NSC 33307;NSC 38630;2,4-Dichloro-5,5-dimethylhydantoin;Sulfochlorantin D",
    "duplicated_cas_no": "",
    "SMILES": "CC1(C)C(=O)N(Cl)C(=O)N1Cl",
    "meta_data": {
        "InChI": "InChI=1S/C5H6Cl2N2O2/c1-5(2)3(10)8(6)4(11)9(5)7/h1-2H3",
        "InChIKey": null,
        "Canonical SMILES": "O=C1N(Cl)C(=O)C(N1Cl)(C)C",
        "Molecular Formula": "C<sub>5</sub>H<sub>6</sub>Cl<sub>2</sub>N<sub>2</sub>O<sub>2</sub>",
        "Molecular Mass": "197.02",
        "Melting Point": "132 °C",
        "Density": "1.5 g/cm³ @ Temp: 20 °C"
    }
}