{
    "cas_no": "3638-04-8",
    "key_name": "2,4-Dichloro-6-methoxy-1,3,5-triazine",
    "cn_name": "2,4-二氯-6-甲氧基-1,3,5-三嗪;",
    "alternate_name": "1,3,5-Triazine, 2,4-dichloro-6-methoxy-;<em>s</em>-Triazine, 2,4-dichloro-6-methoxy-;2,4-Dichloro-6-methoxy-1,3,5-triazine;2,4-Dichloro-6-methoxy-<em>s</em>-triazine;2-Methoxy-4,6-dichloro-<em>s</em>-triazine;4,6-Dichloro-2-methoxy-<em>s</em>-triazine;Dichloromethoxy-<em>s</em>-triazine;2-Methoxy-4,6-dichloro-1,3,5-triazine;6-Methoxy-2,4-dichloro-<em>s</em>-triazine;Methoxydichloro-<em>s</em>-triazine;NSC 50574;Dichloromethoxytriazine",
    "duplicated_cas_no": "",
    "SMILES": "O(C)C=1N=C(Cl)N=C(Cl)N1",
    "meta_data": {
        "InChI": "InChI=1S/C4H3Cl2N3O/c1-10-4-8-2(5)7-3(6)9-4/h1H3",
        "InChIKey": null,
        "Canonical SMILES": "ClC=1N=C(Cl)N=C(N1)OC",
        "Molecular Formula": "C<sub>4</sub>H<sub>3</sub>Cl<sub>2</sub>N<sub>3</sub>O",
        "Molecular Mass": "179.99",
        "Melting Point": "88-90 °C"
    }
}