{
    "cas_no": "22037-28-1",
    "key_name": "3-Bromofuran",
    "cn_name": "3-溴呋喃;",
    "alternate_name": "Furan, 3-bromo-;3-Bromofuran;β-Bromofuran;3-Furyl bromide",
    "duplicated_cas_no": "",
    "SMILES": "BrC=1C=COC1",
    "meta_data": {
        "InChI": "InChI=1S/C4H3BrO/c5-4-1-2-6-3-4/h1-3H",
        "InChIKey": null,
        "Canonical SMILES": "BrC1=COC=C1",
        "Molecular Formula": "C<sub>4</sub>H<sub>3</sub>BrO",
        "Molecular Mass": "146.97",
        "Boiling Point": "103 °C",
        "Density": "1.6606 g/cm³ @ Temp: 20 °C"
    }
}