{
    "cas_no": "103-53-7",
    "key_name": "Phenethyl cinnamate",
    "cn_name": "肉桂酸苯乙酯;",
    "alternate_name": "2-Propenoic acid, 3-phenyl-, 2-phenylethyl ester;Cinnamic acid, phenethyl ester;Benzylcarbinyl cinnamate;Phenethyl cinnamate;β-Phenylethyl cinnamate;β-Phenethyl cinnamate;2-Phenylethyl cinnamate;NSC 16962;2-Phenylethyl 3-phenyl-2-propenoate",
    "duplicated_cas_no": "",
    "SMILES": "C(=CC(OCCC1=CC=CC=C1)=O)C2=CC=CC=C2",
    "meta_data": {
        "InChI": "InChI=1S/C17H16O2/c18-17(12-11-15-7-3-1-4-8-15)19-14-13-16-9-5-2-6-10-16/h1-12H,13-14H2",
        "InChIKey": null,
        "Canonical SMILES": "O=C(OCCC=1C=CC=CC1)C=CC=2C=CC=CC2",
        "Molecular Formula": "C<sub>17</sub>H<sub>16</sub>O<sub>2</sub>",
        "Molecular Mass": "252.31",
        "Melting Point": "54 °C"
    }
}