{
    "cas_no": "5362-56-1",
    "key_name": "4-Methyl-2-pentenal",
    "cn_name": null,
    "alternate_name": "2-Pentenal, 4-methyl-;4-Methyl-2-pentenal;4-Methylpent-2-enal;NSC 23382",
    "duplicated_cas_no": "",
    "SMILES": "C(C(C)C)=CC=O",
    "meta_data": {
        "InChI": "InChI=1S/C6H10O/c1-6(2)4-3-5-7/h3-6H,1-2H3",
        "InChIKey": null,
        "Canonical SMILES": "O=CC=CC(C)C",
        "Molecular Formula": "C<sub>6</sub>H<sub>10</sub>O",
        "Molecular Mass": "98.14",
        "Boiling Point": "100-120 °C"
    }
}