{
    "cas_no": "32811-40-8",
    "key_name": "<em>trans</em>-Coniferyl alcohol",
    "cn_name": null,
    "alternate_name": "Phenol, 4-[(1<em>E</em>)-3-hydroxy-1-propen-1-yl]-2-methoxy-;Phenol, 4-(3-hydroxy-1-propenyl)-2-methoxy-, (<em>E</em>)-;2-Propen-1-ol, 3-(4-hydroxy-3-methoxyphenyl)-, (<em>E</em>)-;Phenol, 4-[(1<em>E</em>)-3-hydroxy-1-propenyl]-2-methoxy-;4-[(1<em>E</em>)-3-Hydroxy-1-propen-1-yl]-2-methoxyphenol;<em>trans</em>-3-(4-Hydroxy-3-methoxyphenyl)-2-propen-1-ol;<em>trans</em>-Coniferyl alcohol;(<em>E</em>)-Coniferyl alcohol;(<em>E</em>)-Coniferol;4-[(E)-3-Hydroxy-1-propenyl]-2-methoxyphenol;4-[(1<em>E</em>)-3-Hydroxy-1-propenyl]-2-methoxyphenol;(<em>E</em>)-4-(3-Hydroxyprop-1-en-1-yl)-2-methoxyphenol",
    "duplicated_cas_no": "",
    "SMILES": "C(=C/CO)\\C1=CC(OC)=C(O)C=C1",
    "meta_data": {
        "InChI": "InChI=1S/C10H12O3/c1-13-10-7-8(3-2-6-11)4-5-9(10)12/h2-5,7,11-12H,6H2,1H3/b3-2+",
        "InChIKey": null,
        "Canonical SMILES": "OC1=CC=C(C=CCO)C=C1OC",
        "Molecular Formula": "C<sub>10</sub>H<sub>12</sub>O<sub>3</sub>",
        "Molecular Mass": "180.20",
        "Melting Point": "170-171 °C"
    }
}