{
    "cas_no": "7789-92-6",
    "key_name": "1,1,3-Triethoxypropane",
    "cn_name": "1,1,3-三乙氧基丙烷;1,3,3-三乙氧基丙烷；1,1,3-三乙氧基丙烷;",
    "alternate_name": "Propane, 1,1,3-triethoxy-;Propionaldehyde, 3-ethoxy-, diethyl acetal;1,1,3-Triethoxypropane;β-Ethoxypropionaldehyde diethyl acetal;3-Ethoxypropionaldehyde diethyl acetal;NSC 71868",
    "duplicated_cas_no": "",
    "SMILES": "C(CCOCC)(OCC)OCC",
    "meta_data": {
        "InChI": "InChI=1S/C9H20O3/c1-4-10-8-7-9(11-5-2)12-6-3/h9H,4-8H2,1-3H3",
        "InChIKey": null,
        "Canonical SMILES": "O(CC)CCC(OCC)OCC",
        "Molecular Formula": "C<sub>9</sub>H<sub>20</sub>O<sub>3</sub>",
        "Molecular Mass": "176.25",
        "Boiling Point": "70 °C @ Press: 13 Torr"
    }
}