{
    "cas_no": "76035-62-6",
    "key_name": "Epikatonic acid",
    "cn_name": null,
    "alternate_name": "Olean-12-en-29-oic acid, 3-hydroxy-, (3β,20α)-;(3β,20α)-3-Hydroxyolean-12-en-29-oic acid;3-Epikatonic acid;Epikatonic acid",
    "duplicated_cas_no": "",
    "SMILES": "C[C@]12[C@@]([C@]3(C)[C@@](CC1)(C(C)(C)[C@@H](O)CC3)[H])(CC=C4[C@@]2(C)CC[C@]5(C)[C@]4(C[C@@](C(O)=O)(C)CC5)[H])[H]",
    "meta_data": {
        "InChI": "InChI=1S/C30H48O3/c1-25(2)21-10-13-30(7)22(28(21,5)12-11-23(25)31)9-8-19-20-18-27(4,24(32)33)15-14-26(20,3)16-17-29(19,30)6/h8,20-23,31H,9-18H2,1-7H3,(H,32,33)/t20-,21-,22+,23-,26+,27+,28-,29+,30+/m0/s1",
        "InChIKey": null,
        "Canonical SMILES": "O=C(O)C1(C)CCC2(C)CCC3(C(=CCC4C5(C)CCC(O)C(C)(C)C5CCC43C)C2C1)C",
        "Molecular Formula": "C<sub>30</sub>H<sub>48</sub>O<sub>3</sub>",
        "Molecular Mass": "456.70",
        "Melting Point": "284-286 °C"
    }
}