{
    "cas_no": "29118-70-5",
    "key_name": "<em>rel</em>-(1<em>R</em>,2<em>S</em>,5<em>E</em>,9<em>Z</em>)-5,9-Cyclododecadiene-1,2-diol",
    "cn_name": "顺,反-5,9-环十二烷二烯-顺-1,2-二醇;",
    "alternate_name": "5,9-Cyclododecadiene-1,2-diol, (1<em>R</em>,2<em>S</em>,5<em>E</em>,9<em>Z</em>)-<em>rel</em>-;5,9-Cyclododecadiene-1,2-diol, (<em>E</em>,<em>Z</em>)-<em>cis</em>-;5,9-Cyclododecadiene-1,2-diol, (1<em>R</em>*,2<em>S</em>*,5<em>Z</em>,9<em>E</em>)-;<em>rel</em>-(1<em>R</em>,2<em>S</em>,5<em>E</em>,9<em>Z</em>)-5,9-Cyclododecadiene-1,2-diol",
    "duplicated_cas_no": "",
    "SMILES": "",
    "meta_data": {
        "InChI": "",
        "InChIKey": null,
        "Canonical SMILES": "",
        "Molecular Formula": "C<sub>12</sub>H<sub>20</sub>O<sub>2</sub>",
        "Molecular Mass": "196.29",
        "Melting Point": "168-169 °C"
    }
}