{
    "cas_no": "544-35-4",
    "key_name": "Ethyl linoleate",
    "cn_name": "(Z,Z)-9,12-十八烷二烯酸乙酯;亚油酸乙酯;十八碳-6,9-二烯酸乙酯;十八碳二烯-[9,12]-酸乙酯;十八碳-9,12-二;",
    "alternate_name": "9,12-Octadecadienoic acid (9<em>Z</em>,12<em>Z</em>)-, ethyl ester;Linoleic acid, ethyl ester;9,12-Octadecadienoic acid (<em>Z</em>,<em>Z</em>)-, ethyl ester;Ethyl linoleate;Ethyl <em>cis</em>,<em>cis</em>-9,12-octadecadienoate;Mandenol;Ethyl linolate;Ethyl (<em>Z</em>,<em>Z</em>)-9,12-octadecadienoate;Nikkol VF-E",
    "duplicated_cas_no": "",
    "SMILES": "C(CCCCC/C=C\\C/C=C\\CCCCC)CC(OCC)=O",
    "meta_data": {
        "InChI": "InChI=1S/C20H36O2/c1-3-5-6-7-8-9-10-11-12-13-14-15-16-17-18-19-20(21)22-4-2/h8-9,11-12H,3-7,10,13-19H2,1-2H3/b9-8-,12-11-",
        "InChIKey": null,
        "Canonical SMILES": "O=C(OCC)CCCCCCCC=CCC=CCCCCC",
        "Molecular Formula": "C<sub>20</sub>H<sub>36</sub>O<sub>2</sub>",
        "Molecular Mass": "308.50",
        "Boiling Point": "122-124.5 °C @ Press: 0.02-0.03 Torr",
        "Melting Point": "&lt;25 °C"
    }
}