{
    "cas_no": "6068-72-0",
    "key_name": "4-Cyanobenzoyl chloride",
    "cn_name": "对氰基苯甲酰氯;4-氰基苯甲酰氯;",
    "alternate_name": "Benzoyl chloride, 4-cyano-;Benzoyl chloride, <em>p</em>-cyano-;4-Cyanobenzoyl chloride;<em>p</em>-Cyanobenzoyl chloride;4-Cyanobenzoic acid chloride",
    "duplicated_cas_no": "",
    "SMILES": "C(Cl)(=O)C1=CC=C(C#N)C=C1",
    "meta_data": {
        "InChI": "InChI=1S/C8H4ClNO/c9-8(11)7-3-1-6(5-10)2-4-7/h1-4H",
        "InChIKey": null,
        "Canonical SMILES": "N#CC1=CC=C(C=C1)C(=O)Cl",
        "Molecular Formula": "C<sub>8</sub>H<sub>4</sub>ClNO",
        "Molecular Mass": "165.58",
        "Boiling Point": "160-161 °C @ Press: 25 Torr",
        "Melting Point": "65 °C"
    }
}