{
    "cas_no": "7423-31-6",
    "key_name": "Stains-all",
    "cn_name": null,
    "alternate_name": "Naphtho[1,2-<em>d</em>]thiazolium, 1-ethyl-2-[3-(1-ethylnaphtho[1,2-<em>d</em>]thiazol-2(1<em>H</em>)-ylidene)-2-methyl-1-propen-1-yl]-, bromide (1:1);Naphtho[1,2-<em>d</em>]thiazolium, 1-ethyl-2-[3-(1-ethylnaphtho[1,2-<em>d</em>]thiazolin-2-ylidene)-2-methylpropenyl]-, bromide;Naphtho[1,2-<em>d</em>]thiazolium, 1-ethyl-2-[3-(1-ethylnaphtho[1,2-<em>d</em>]thiazol-2(1<em>H</em>)-ylidene)-2-methyl-1-propenyl]-, bromide;1-Ethyl-2-[3-(1-ethylnaphtho[1,2-<em>d</em>]thiazolin-2-ylidene)-2-methylpropenyl]naphtho[1,2-<em>d</em>]thiazolium bromide;4,5,4′,5′-Dibenzothiacarbocyanine bromide, 3,3′-diethyl-9-methyl-;3,3′-Diethyl-9-methyl-4,5,4′,5′-dibenzothiacarbocyanine bromide;Stains-all;Carbocyanin DBTC;DBTC;4,5,4′,5′-Dibenzo-3,3′-diethyl-9-methylthiacarbocyanine bromide;3,3′-Diethyl-9-methyl-4,5,4′,5′-naphthothiacarbocyanine bromide;1-Ethyl-2-(3-(1-ethylnaphtho[1,2-<em>d</em>]thiazol-2(1<em>H</em>)-ylidene)-2-methylprop-1-en-1-yl)naphtho[1,2-<em>d</em>]thiazol-1-ium bromide",
    "duplicated_cas_no": "126168-62-5;134664-99-6;275358-11-7",
    "SMILES": "C(C)N1C=2C=3C(C=CC2SC1=CC(=CC4=[N+](CC)C5=C(S4)C=CC=6C5=CC=CC6)C)=CC=CC3.[Br-]",
    "meta_data": {
        "InChI": "InChI=1S/C30H27N2S2.BrH/c1-4-31-27(33-25-16-14-21-10-6-8-12-23(21)29(25)31)18-20(3)19-28-32(5-2)30-24-13-9-7-11-22(24)15-17-26(30)34-28;/h6-19H,4-5H2,1-3H3;1H/q+1;/p-1",
        "InChIKey": null,
        "Canonical SMILES": "[Br-].S1C=2C=CC=3C=CC=CC3C2N(C1=CC(=CC=4SC5=CC=C6C=CC=CC6=C5[N+]4CC)C)CC",
        "Molecular Formula": "C<sub>30</sub>H<sub>27</sub>N<sub>2</sub>S<sub>2</sub>.Br",
        "Molecular Mass": "",
        "Melting Point": "236-238 °C"
    }
}