{
    "cas_no": "7784-26-1",
    "key_name": "Aluminum ammonium sulfate dodecahydrate",
    "cn_name": "硫酸铝铵十二水;",
    "alternate_name": "Sulfuric acid, aluminum ammonium salt, hydrate (2:1:1:12);Sulfuric acid, aluminum ammonium salt (2:1:1), dodecahydrate;Ammonium aluminum sulfate hydrate;Ammonium alum;Monoaluminum monoammonium disulfate dodecahydrate;Ammonia alum;Ammonium aluminum sulfate dodecahydrate;Aluminum ammonium disulfate dodecahydrate;Aluminum ammonium sulfate (Al(NH<sub>4</sub>)(SO<sub>4</sub>)<sub>2</sub>) dodecahydrate;Aluminum ammonium bis(sulfate) dodecahydrate;Ammonium alum (NH<sub>4</sub>Al(SO<sub>4</sub>)<sub>2</sub>.12H<sub>2</sub>O);Ammonium aluminum disulfate dodecahydrate;Aluminum ammonium sulfate dodecahydrate",
    "duplicated_cas_no": "15671-97-3;19511-55-8",
    "SMILES": "S(=O)(=O)(O)O.[Al].N.O",
    "meta_data": {
        "InChI": "InChI=1S/Al.H3N.H2O4S.6H2O/c;;1-5(2,3)4;;;;;;/h;1H3;(H2,1,2,3,4);6*1H2",
        "InChIKey": null,
        "Canonical SMILES": "[Al].O=S(=O)(O)O.O.N",
        "Molecular Formula": "Al.H<sub>3</sub>N.2H<sub>2</sub>O<sub>4</sub>S.12H<sub>2</sub>O",
        "Molecular Mass": "",
        "Melting Point": "90 °C",
        "Density": "1.640 g/cm³"
    }
}