{
    "cas_no": "31872-64-7",
    "key_name": "3-Chloro-5-nitro-4-pyridinol",
    "cn_name": null,
    "alternate_name": "4-Pyridinol, 3-chloro-5-nitro-;3-Chloro-5-nitro-4-pyridinol;5-Chloro-3-nitro-4-pyridinol;3-Chloro-4-hydroxy-5-nitropyridine;3-Chloro-5-nitro-1<em>H</em>-pyridin-4-one",
    "duplicated_cas_no": "",
    "SMILES": "N(=O)(=O)C=1C(O)=C(Cl)C=NC1",
    "meta_data": {
        "InChI": "InChI=1S/C5H3ClN2O3/c6-3-1-7-2-4(5(3)9)8(10)11/h1-2H,(H,7,9)",
        "InChIKey": null,
        "Canonical SMILES": "O=N(=O)C=1C=NC=C(Cl)C1O",
        "Molecular Formula": "C<sub>5</sub>H<sub>3</sub>ClN<sub>2</sub>O<sub>3</sub>",
        "Molecular Mass": "174.54",
        "Melting Point": "263 °C"
    }
}