{
    "cas_no": "6224-63-1",
    "key_name": "Tri-<em>m</em>-tolylphosphine",
    "cn_name": "三(间甲苯)膦;",
    "alternate_name": "Phosphine, tris(3-methylphenyl)-;Phosphine, tri-<em>m</em>-tolyl-;Tris(3-methylphenyl)phosphine;Tri-<em>m</em>-tolylphosphine;Tris(<em>m</em>-methylphenyl)phosphine;Tris(<em>m</em>-tolyl)phosphine;Tris(3-tolyl)phosphine;Tris(3-toluene)phosphine;TMTP",
    "duplicated_cas_no": "",
    "SMILES": "P(C1=CC(C)=CC=C1)(C2=CC(C)=CC=C2)C3=CC(C)=CC=C3",
    "meta_data": {
        "InChI": "InChI=1S/C21H21P/c1-16-7-4-10-19(13-16)22(20-11-5-8-17(2)14-20)21-12-6-9-18(3)15-21/h4-15H,1-3H3",
        "InChIKey": null,
        "Canonical SMILES": "C=1C=C(C=C(C1)C)P(C2=CC=CC(=C2)C)C3=CC=CC(=C3)C",
        "Molecular Formula": "C<sub>21</sub>H<sub>21</sub>P",
        "Molecular Mass": "304.37",
        "Melting Point": "100 °C"
    }
}