{
    "cas_no": "6577-41-9",
    "key_name": "Oxapium iodide",
    "cn_name": "奥沙碘铵;1-(2-环己基-2-苯基-1,3-二氧戊环-4-基-甲基)-1-甲基哌啶碘化物;",
    "alternate_name": "Piperidinium, 1-[(2-cyclohexyl-2-phenyl-1,3-dioxolan-4-yl)methyl]-1-methyl-, iodide (1:1);Piperidinium, 1-[(2-cyclohexyl-2-phenyl-1,3-dioxolan-4-yl)methyl]-1-methyl-, iodide;1-[(2-Cyclohexyl-2-phenyl-1,3-dioxolan-4-yl)methyl]-1-methylpiperidinium iodide;1-(2-Phenyl-2-cyclohexyl-1,3-dioxolan-4-ylmethyl)-1-methylpiperidinium iodide;SH 100;Cyclonium iodide;Esperan;Ciclonium iodide;Oxapium iodide;ANC 113",
    "duplicated_cas_no": "",
    "SMILES": "C(C1OC(OC1)(C2CCCCC2)C3=CC=CC=C3)[N+]4(C)CCCCC4.[I-]",
    "meta_data": {
        "InChI": "InChI=1S/C22H34NO2.HI/c1-23(15-9-4-10-16-23)17-21-18-24-22(25-21,19-11-5-2-6-12-19)20-13-7-3-8-14-20;/h2,5-6,11-12,20-21H,3-4,7-10,13-18H2,1H3;1H/q+1;/p-1",
        "InChIKey": null,
        "Canonical SMILES": "[I-].O1CC(OC1(C=2C=CC=CC2)C3CCCCC3)C[N+]4(C)CCCCC4",
        "Molecular Formula": "C<sub>22</sub>H<sub>34</sub>NO<sub>2</sub>.I",
        "Molecular Mass": "",
        "Melting Point": "150-151 °C"
    }
}