{
    "cas_no": "490-78-8",
    "key_name": "2′,5′-Dihydroxyacetophenone",
    "cn_name": "2,5-二羟基苯乙酮;",
    "alternate_name": "Ethanone, 1-(2,5-dihydroxyphenyl)-;Acetophenone, 2′,5′-dihydroxy-;1-(2,5-Dihydroxyphenyl)ethanone;Quinacetophenone;2-Acetylhydroquinone;2′,5′-Dihydroxyacetophenone;1-Acetyl-2,5-dihydroxybenzene;2,5-Dihydroxy-1-acetylbenzene;2-Acetyl-1,4-benzenediol;NSC 3759;1-(2,5-Dihydroxyphenyl)ethan-1-one",
    "duplicated_cas_no": "",
    "SMILES": "C(C)(=O)C1=C(O)C=CC(O)=C1",
    "meta_data": {
        "InChI": "InChI=1S/C8H8O3/c1-5(9)7-4-6(10)2-3-8(7)11/h2-4,10-11H,1H3",
        "InChIKey": null,
        "Canonical SMILES": "O=C(C1=CC(O)=CC=C1O)C",
        "Molecular Formula": "C<sub>8</sub>H<sub>8</sub>O<sub>3</sub>",
        "Molecular Mass": "152.15",
        "Boiling Point": "86 °C @ Press: 0.01 Torr",
        "Melting Point": "202 °C"
    }
}