{
    "cas_no": "616-21-7",
    "key_name": "1,2-Dichlorobutane",
    "cn_name": "1,2-二氯丁烷;",
    "alternate_name": "Butane, 1,2-dichloro-;1,2-Dichlorobutane;<em>dl</em>-1,2-Dichlorobutane;(±)-1,2-Dichlorobutane;NSC 93880",
    "duplicated_cas_no": "35346-39-5",
    "SMILES": "C(CC)(CCl)Cl",
    "meta_data": {
        "InChI": "InChI=1S/C4H8Cl2/c1-2-4(6)3-5/h4H,2-3H2,1H3",
        "InChIKey": null,
        "Canonical SMILES": "ClCC(Cl)CC",
        "Molecular Formula": "C<sub>4</sub>H<sub>8</sub>Cl<sub>2</sub>",
        "Molecular Mass": "127.01",
        "Boiling Point": "124.1 °C",
        "Density": "1.1116 g/cm³ @ Temp: 25 °C"
    }
}