{
    "cas_no": "646-31-1",
    "key_name": "Tetracosane",
    "cn_name": "二十四烷;正二十四烷;",
    "alternate_name": "Tetracosane;<em>n</em>-Tetracosane;NSC 2984",
    "duplicated_cas_no": "",
    "SMILES": "C(CCCCCCCCCCCC)CCCCCCCCCCC",
    "meta_data": {
        "InChI": "InChI=1S/C24H50/c1-3-5-7-9-11-13-15-17-19-21-23-24-22-20-18-16-14-12-10-8-6-4-2/h3-24H2,1-2H3",
        "InChIKey": null,
        "Canonical SMILES": "CCCCCCCCCCCCCCCCCCCCCCCC",
        "Molecular Formula": "C<sub>24</sub>H<sub>50</sub>",
        "Molecular Mass": "338.65",
        "Boiling Point": "391.3 °C",
        "Melting Point": "54 °C",
        "Density": "0.77 g/cm³ (liquid)"
    }
}