{
    "cas_no": "497-19-8",
    "key_name": "Sodium carbonate",
    "cn_name": "碳酸钠;纯碱;",
    "alternate_name": "Carbonic acid sodium salt (1:2);Carbonic acid disodium salt;Sodium carbonate;Sodium carbonate (2:1);Soda ash;Soda;Sodium carbonate (Na<sub>2</sub>(CO<sub>3</sub>));Disodium carbonate;Disodium carbonate (Na<sub>2</sub>CO<sub>3</sub>);Bisodium carbonate;Carbonic acid sodium salt;Soda, calcined;Calcined soda;Sodium carbonate, anhydrous;Carbonic acid, disodium salt;Na-X;Snowlite 1;V Soda;V 20N;Soda Ash Light 4P;Dynamar L 13890;Suprapur 6395;Light Ash;Dense Ash;Soda Ash Dense;Dynamar RC 5251Q;Soda Light;Lime ash;Soda Ash Light;Dynamar 5251Q;S 24152",
    "duplicated_cas_no": "1332-57-6;1314087-39-2;1977561-09-3;2683064-49-3",
    "SMILES": "C(=O)(O)O.[Na]",
    "meta_data": {
        "InChI": "InChI=1S/CH2O3.2Na/c2-1(3)4;;/h(H2,2,3,4);;",
        "InChIKey": null,
        "Canonical SMILES": "[Na].O=C(O)O",
        "Molecular Formula": "CH<sub>2</sub>O<sub>3</sub>.2Na",
        "Molecular Mass": "",
        "Melting Point": "851 °C",
        "Density": "2.53 g/cm³"
    }
}