{
    "cas_no": "151096-09-2",
    "key_name": "Moxifloxacin",
    "cn_name": "莫西沙星;莫西沙星;1-环丙基-7-(S,S-2,8-二氮杂双环[4.3.0]壬烷-8-基)-6-氟-8-甲氧-4-氧代-1,4-二氢-3-喹啉;",
    "alternate_name": "3-Quinolinecarboxylic acid, 1-cyclopropyl-6-fluoro-1,4-dihydro-8-methoxy-7-[(4a<em>S</em>,7a<em>S</em>)-octahydro-6<em>H</em>-pyrrolo[3,4-<em>b</em>]pyridin-6-yl]-4-oxo-;3-Quinolinecarboxylic acid, 1-cyclopropyl-6-fluoro-1,4-dihydro-8-methoxy-7-(octahydro-6<em>H</em>-pyrrolo[3,4-<em>b</em>]pyridin-6-yl)-4-oxo-, (4a<em>S</em>-<em>cis</em>)-;6<em>H</em>-Pyrrolo[3,4-<em>b</em>]pyridine, 3-quinolinecarboxylic acid deriv.;1-Cyclopropyl-6-fluoro-1,4-dihydro-8-methoxy-7-[(4a<em>S</em>,7a<em>S</em>)-octahydro-6<em>H</em>-pyrrolo[3,4-<em>b</em>]pyridin-6-yl]-4-oxo-3-quinolinecarboxylic acid;Moxifloxacin;Vigamox;Izilox;Moxifloxacine;Avolex;Moxeza;Rapiflox;Moxicip;Oxaquin;Fotiflox;Xefecta;Moxifo",
    "duplicated_cas_no": "195154-07-5",
    "SMILES": "O(C)C1=C2N(C=C(C(O)=O)C(=O)C2=CC(F)=C1N3C[C@]4([C@@](C3)(NCCC4)[H])[H])C5CC5",
    "meta_data": {
        "InChI": "InChI=1S/C21H24FN3O4/c1-29-20-17-13(19(26)14(21(27)28)9-25(17)12-4-5-12)7-15(22)18(20)24-8-11-3-2-6-23-16(11)10-24/h7,9,11-12,16,23H,2-6,8,10H2,1H3,(H,27,28)/t11-,16+/m0/s1",
        "InChIKey": null,
        "Canonical SMILES": "O=C(O)C1=CN(C2=C(OC)C(=C(F)C=C2C1=O)N3CC4NCCCC4C3)C5CC5",
        "Molecular Formula": "C<sub>21</sub>H<sub>24</sub>FN<sub>3</sub>O<sub>4</sub>",
        "Molecular Mass": "401.43",
        "Melting Point": "240 °C"
    }
}