{
    "cas_no": "140-75-0",
    "key_name": "4-Fluorobenzylamine",
    "cn_name": "对氟苄胺;对氟苯甲胺;4-氟苯甲胺;",
    "alternate_name": "Benzenemethanamine, 4-fluoro-;Benzylamine, <em>p</em>-fluoro-;4-Fluorobenzenemethanamine;<em>p</em>-Fluorobenzylamine;4-Fluorobenzylamine;[(4-Fluorophenyl)methyl]amine;(4-Fluorophenyl)methanamine;NSC 158269;1-(4-Fluorophenyl)methanamine",
    "duplicated_cas_no": "",
    "SMILES": "C(N)C1=CC=C(F)C=C1",
    "meta_data": {
        "InChI": "InChI=1S/C7H8FN/c8-7-3-1-6(5-9)2-4-7/h1-4H,5,9H2",
        "InChIKey": null,
        "Canonical SMILES": "FC1=CC=C(C=C1)CN",
        "Molecular Formula": "C<sub>7</sub>H<sub>8</sub>FN",
        "Molecular Mass": "125.14",
        "Boiling Point": "75-80 °C @ Press: 35 Torr",
        "Melting Point": "183 °C"
    }
}