{
    "cas_no": "2905-62-6",
    "key_name": "3,5-Dichlorobenzoyl chloride",
    "cn_name": "3,5-二氯苯甲酰氯;",
    "alternate_name": "Benzoyl chloride, 3,5-dichloro-;3,5-Dichlorobenzoyl chloride",
    "duplicated_cas_no": "",
    "SMILES": "C(Cl)(=O)C1=CC(Cl)=CC(Cl)=C1",
    "meta_data": {
        "InChI": "InChI=1S/C7H3Cl3O/c8-5-1-4(7(10)11)2-6(9)3-5/h1-3H",
        "InChIKey": null,
        "Canonical SMILES": "O=C(Cl)C=1C=C(Cl)C=C(Cl)C1",
        "Molecular Formula": "C<sub>7</sub>H<sub>3</sub>Cl<sub>3</sub>O",
        "Molecular Mass": "209.46",
        "Boiling Point": "71-75 °C @ Press: 1 Torr"
    }
}