{
    "cas_no": "111-57-9",
    "key_name": "<em>N</em>-Stearoylethanolamine",
    "cn_name": "硬脂酰胺MEA;硬脂酰胺MEA;",
    "alternate_name": "Octadecanamide, <em>N</em>-(2-hydroxyethyl)-;<em>N</em>-(2-Hydroxyethyl)octadecanamide;Stearic ethylolamide;Stearoylmonoethanolamide;Stearic acid monoethanolamide;Stearic ethanolamide;<em>N</em>-(2-Hydroxyethyl)stearamide;Stearic monoethanolamide;Loramine S 280;Marlamid M 18;Clindrol 200MS;Cycloamide SM;Stearic monoethanolamine;Onyx Wax EL;Stearamide MEA;<em>N</em>-Stearoylethanolamine;Comperlan HS;Emcol 70;Amisol SME;Witcamide 70;Rewomid S 280;<em>N</em>-Octadecanoylethanolamine;Monoethanolstearamide;Ceramid;Monamid S;AM 1105;Alkamide S 280;S 280;Lubsize K 12;Mackamide SMA;Profan SME;NSC 3377;NSC 52619;Abriflo 65;Stearamide monoethanolamine;Monamid 972;Aminon SM;Stearoylethanolamide;Stearic acid ethanolamide",
    "duplicated_cas_no": "8038-89-9",
    "SMILES": "C(CCCCCCCCCCCCCCC)CC(NCCO)=O",
    "meta_data": {
        "InChI": "InChI=1S/C20H41NO2/c1-2-3-4-5-6-7-8-9-10-11-12-13-14-15-16-17-20(23)21-18-19-22/h22H,2-19H2,1H3,(H,21,23)",
        "InChIKey": null,
        "Canonical SMILES": "O=C(NCCO)CCCCCCCCCCCCCCCCC",
        "Molecular Formula": "C<sub>20</sub>H<sub>41</sub>NO<sub>2</sub>",
        "Molecular Mass": "327.55",
        "Melting Point": "103-104 °C"
    }
}