{
    "cas_no": "492-08-0",
    "key_name": "(+)-Sparteine",
    "cn_name": null,
    "alternate_name": "7,14-Methano-2<em>H</em>,6<em>H</em>-dipyrido[1,2-<em>a</em>:1′,2′-<em>e</em>][1,5]diazocine, dodecahydro-, (7<em>R</em>,7a<em>R</em>,14<em>R</em>,14a<em>S</em>)-;Pachycarpine;7,14-Methano-2<em>H</em>,6<em>H</em>-dipyrido[1,2-<em>a</em>:1′,2′-<em>e</em>][1,5]diazocine, dodecahydro-, [7<em>R</em>-(7α,7aα,14α,14aβ)]-;(7<em>R</em>,7a<em>R</em>,14<em>R</em>,14a<em>S</em>)-Dodecahydro-7,14-methano-2<em>H</em>,6<em>H</em>-dipyrido[1,2-<em>a</em>:1′,2′-<em>e</em>][1,5]diazocine;6α,7β,9β,11β-Sparteine;(+)-Sparteine;<em>d</em>-Sparteine;<span class=\"text-smallcaps\">D</span>-Sparteine;<span class=\"text-smallcaps\">D</span>-(+)-Sparteine",
    "duplicated_cas_no": "",
    "SMILES": "[C@]12([C@@]3(N(C[C@@](C1)([C@]4(N(C2)CCCC4)[H])[H])CCCC3)[H])[H]",
    "meta_data": {
        "InChI": "InChI=1S/C15H26N2/c1-3-7-16-11-13-9-12(14(16)5-1)10-17-8-4-2-6-15(13)17/h12-15H,1-11H2/t12-,13-,14-,15+/m1/s1",
        "InChIKey": null,
        "Canonical SMILES": "N12CCCCC1C3CN4CCCCC4C(C2)C3",
        "Molecular Formula": "C<sub>15</sub>H<sub>26</sub>N<sub>2</sub>",
        "Molecular Mass": "234.38",
        "Boiling Point": "133-135 °C @ Press: 1 Torr",
        "Melting Point": "201 °C"
    }
}