{
    "cas_no": "66892-34-0",
    "key_name": "6-Fluoro-2,3-dihydro-4<em>H</em>-1-benzopyran-4-one",
    "cn_name": "6-氟-4-二氢色原酮;6-氟苯并二氢吡喃-4-酮;",
    "alternate_name": "4<em>H</em>-1-Benzopyran-4-one, 6-fluoro-2,3-dihydro-;6-Fluoro-2,3-dihydro-4<em>H</em>-1-benzopyran-4-one;6-Fluoro-4-chromanone;6-Fluorochromanone;6-Fluoro-2,3-dihydrochromen-4-one;6-Fluoro-3,4-dihydro-2<em>H</em>-1-benzopyran-4-one;6-Fluorodihydrobenzopyran-4-one",
    "duplicated_cas_no": "",
    "SMILES": "O=C1C=2C(=CC=C(F)C2)OCC1",
    "meta_data": {
        "InChI": "InChI=1S/C9H7FO2/c10-6-1-2-9-7(5-6)8(11)3-4-12-9/h1-2,5H,3-4H2",
        "InChIKey": null,
        "Canonical SMILES": "O=C1C2=CC(F)=CC=C2OCC1",
        "Molecular Formula": "C<sub>9</sub>H<sub>7</sub>FO<sub>2</sub>",
        "Molecular Mass": "166.15",
        "Melting Point": "111-115 °C"
    }
}