{
    "cas_no": "70-53-1",
    "key_name": "Lysine, hydrochloride (1:1)",
    "cn_name": "DL-赖氨酸盐酸盐;",
    "alternate_name": "Lysine, hydrochloride (1:1);Lysine, monohydrochloride, <span class=\"text-smallcaps\">DL</span>-;<span class=\"text-smallcaps\">DL</span>-Lysine, monohydrochloride;Lysine, monohydrochloride;<span class=\"text-smallcaps\">DL</span>-Lysine hydrochloride;NSC 46705;2,6-Diaminohexanoic acid hydrochloride",
    "duplicated_cas_no": "52377-94-3",
    "SMILES": "C(CCCCN)(C(O)=O)N.Cl",
    "meta_data": {
        "InChI": "InChI=1S/C6H14N2O2.ClH/c7-4-2-1-3-5(8)6(9)10;/h5H,1-4,7-8H2,(H,9,10);1H",
        "InChIKey": null,
        "Canonical SMILES": "Cl.O=C(O)C(N)CCCCN",
        "Molecular Formula": "C<sub>6</sub>H<sub>14</sub>N<sub>2</sub>O<sub>2</sub>.ClH",
        "Molecular Mass": "",
        "Melting Point": "235-236 °C"
    }
}