{
    "cas_no": "7721-62-2",
    "key_name": "4,5-Dimethoxy-2-methylbenzaldehyde",
    "cn_name": null,
    "alternate_name": "Benzaldehyde, 4,5-dimethoxy-2-methyl-;Veratraldehyde, 6-methyl-;4,5-Dimethoxy-2-methylbenzaldehyde;2-Methyl-4,5-dimethoxybenzaldehyde;6-Methylveratraldehyde;NSC 109346",
    "duplicated_cas_no": "",
    "SMILES": "O(C)C1=C(OC)C=C(C)C(C=O)=C1",
    "meta_data": {
        "InChI": "InChI=1S/C10H12O3/c1-7-4-9(12-2)10(13-3)5-8(7)6-11/h4-6H,1-3H3",
        "InChIKey": null,
        "Canonical SMILES": "O=CC1=CC(OC)=C(OC)C=C1C",
        "Molecular Formula": "C<sub>10</sub>H<sub>12</sub>O<sub>3</sub>",
        "Molecular Mass": "180.20",
        "Boiling Point": "110-111 °C @ Press: 0.2 Torr",
        "Melting Point": "76 °C"
    }
}