{
    "cas_no": "33245-39-5",
    "key_name": "Fluchloralin",
    "cn_name": "氯乙氟灵;",
    "alternate_name": "Benzenamine, <em>N</em>-(2-chloroethyl)-2,6-dinitro-<em>N</em>-propyl-4-(trifluoromethyl)-;<em>p</em>-Toluidine, <em>N</em>-(2-chloroethyl)-α,α,α-trifluoro-2,6-dinitro-<em>N</em>-propyl-;<em>N</em>-(2-Chloroethyl)-2,6-dinitro-<em>N</em>-propyl-4-(trifluoromethyl)benzenamine;<em>N</em>-Propyl-<em>N</em>-β-chloroethyl-2,6-dinitro-4-trifluoromethylaniline;<em>N</em>-Propyl-<em>N</em>-β-chloroethyl-4-trifluoromethyl-2,6-dinitroaniline;BAS 3921;<em>N</em>-Propyl-<em>N</em>-(2-chloroethyl)-2,6-dinitro-4-trifluoromethylaniline;BAS 3921H;Fluchloralin;Basalin;BAS 392H;BAS 3924H;<em>N</em>-Propyl-<em>N</em>-(2′-chloroethyl)-2,6-dinitro-4-trifluoromethylaniline",
    "duplicated_cas_no": "39324-83-9",
    "SMILES": "N(CCC)(CCCl)C1=C(N(=O)=O)C=C(C(F)(F)F)C=C1N(=O)=O",
    "meta_data": {
        "InChI": "InChI=1S/C12H13ClF3N3O4/c1-2-4-17(5-3-13)11-9(18(20)21)6-8(12(14,15)16)7-10(11)19(22)23/h6-7H,2-5H2,1H3",
        "InChIKey": null,
        "Canonical SMILES": "O=N(=O)C=1C=C(C=C(C1N(CCCl)CCC)N(=O)=O)C(F)(F)F",
        "Molecular Formula": "C<sub>12</sub>H<sub>13</sub>ClF<sub>3</sub>N<sub>3</sub>O<sub>4</sub>",
        "Molecular Mass": "355.70",
        "Melting Point": "42-43 °C"
    }
}