{
    "cas_no": "608-30-0",
    "key_name": "2,6-Dibromoaniline",
    "cn_name": "2,6-二溴苯胺;",
    "alternate_name": "Benzenamine, 2,6-dibromo-;Aniline, 2,6-dibromo-;2,6-Dibromobenzenamine;2,6-Dibromoaniline;NSC 305",
    "duplicated_cas_no": "",
    "SMILES": "NC1=C(Br)C=CC=C1Br",
    "meta_data": {
        "InChI": "InChI=1S/C6H5Br2N/c7-4-2-1-3-5(8)6(4)9/h1-3H,9H2",
        "InChIKey": null,
        "Canonical SMILES": "BrC1=CC=CC(Br)=C1N",
        "Molecular Formula": "C<sub>6</sub>H<sub>5</sub>Br<sub>2</sub>N",
        "Molecular Mass": "250.92",
        "Boiling Point": "263 °C",
        "Melting Point": "87.5 °C",
        "Density": "1.76 g/cm³"
    }
}