{
    "cas_no": "4977-62-2",
    "key_name": "Ethyl 2-(acetylamino)-2-cyanoacetate",
    "cn_name": "N-乙酰基-2-氰基甘氨酸乙酯;",
    "alternate_name": "Acetic acid, 2-(acetylamino)-2-cyano-, ethyl ester;Glycine, <em>N</em>-acetyl-2-cyano-, ethyl ester;Acetic acid, (acetylamino)cyano-, ethyl ester;Ethyl 2-(acetylamino)-2-cyanoacetate;Ethyl acetamidocyanoacetate;Ethyl 2-acetamido-2-cyanoacetate;NSC 49313;NSC 8691;2-(Acetylamino)-2-cyanoacetic acid ethyl ester;2-Acetamido-2-cyanoacetic acid ethyl ester",
    "duplicated_cas_no": "90877-70-6",
    "SMILES": "C(C(OCC)=O)(NC(C)=O)C#N",
    "meta_data": {
        "InChI": "InChI=1S/C7H10N2O3/c1-3-12-7(11)6(4-8)9-5(2)10/h6H,3H2,1-2H3,(H,9,10)",
        "InChIKey": null,
        "Canonical SMILES": "N#CC(NC(=O)C)C(=O)OCC",
        "Molecular Formula": "C<sub>7</sub>H<sub>10</sub>N<sub>2</sub>O<sub>3</sub>",
        "Molecular Mass": "170.17",
        "Melting Point": "129 °C"
    }
}