{
    "cas_no": "87135-01-1",
    "key_name": "1,6-Bis(trimethoxysilyl)hexane",
    "cn_name": "1,6-双三甲氧基硅基己烷;",
    "alternate_name": "2,11-Dioxa-3,10-disiladodecane, 3,3,10,10-tetramethoxy-;3,3,10,10-Tetramethoxy-2,11-dioxa-3,10-disiladodecane;1,6-Bis(trimethoxysilyl)hexane;B 2495.7;Z 6830;KBE 6830;KBM 3066;SIB 1832.7;Dowsil Z 6162",
    "duplicated_cas_no": "",
    "SMILES": "[Si](CCCCCC[Si](OC)(OC)OC)(OC)(OC)OC",
    "meta_data": {
        "InChI": "InChI=1S/C12H30O6Si2/c1-13-19(14-2,15-3)11-9-7-8-10-12-20(16-4,17-5)18-6/h7-12H2,1-6H3",
        "InChIKey": null,
        "Canonical SMILES": "O(C)[Si](OC)(OC)CCCCCC[Si](OC)(OC)OC",
        "Molecular Formula": "C<sub>12</sub>H<sub>30</sub>O<sub>6</sub>Si<sub>2</sub>",
        "Molecular Mass": "326.53",
        "Boiling Point": "161 °C @ Press: 2 Torr",
        "Density": "1.014 g/cm³"
    }
}