{
    "cas_no": "21443-96-9",
    "key_name": "1<em>H</em>-Indazol-7-amine",
    "cn_name": "7-氨基吲唑;",
    "alternate_name": "1<em>H</em>-Indazol-7-amine;1<em>H</em>-Indazole, 7-amino-;7-Aminoindazole;7-Amino-1<em>H</em>-indazole;NSC 170661;NSC 44675;1<em>H</em>-Indazol-7-ylamine",
    "duplicated_cas_no": "",
    "SMILES": "NC1=C2C(=CC=C1)C=NN2",
    "meta_data": {
        "InChI": "InChI=1S/C7H7N3/c8-6-3-1-2-5-4-9-10-7(5)6/h1-4H,8H2,(H,9,10)",
        "InChIKey": null,
        "Canonical SMILES": "N1=CC=2C=CC=C(N)C2N1",
        "Molecular Formula": "C<sub>7</sub>H<sub>7</sub>N<sub>3</sub>",
        "Molecular Mass": "133.15",
        "Melting Point": "159 °C"
    }
}