{
    "cas_no": "1701-19-5",
    "key_name": "8-Methyl-2-(trifluoromethyl)-4-quinolinol",
    "cn_name": "4-羟基-8-甲基-2-(三氟甲基)喹啉;4-羟基-8-甲基-2-三氟甲基喹啉;",
    "alternate_name": "4-Quinolinol, 8-methyl-2-(trifluoromethyl)-;8-Methyl-2-(trifluoromethyl)-4-quinolinol",
    "duplicated_cas_no": "",
    "SMILES": "CC=1C2=C(C(O)=CC(C(F)(F)F)=N2)C=CC1",
    "meta_data": {
        "InChI": "InChI=1S/C11H8F3NO/c1-6-3-2-4-7-8(16)5-9(11(12,13)14)15-10(6)7/h2-5H,1H3,(H,15,16)",
        "InChIKey": null,
        "Canonical SMILES": "FC(F)(F)C1=NC2=C(C=CC=C2C)C(O)=C1",
        "Molecular Formula": "C<sub>11</sub>H<sub>8</sub>F<sub>3</sub>NO",
        "Molecular Mass": "227.18",
        "Melting Point": "130-132 °C"
    }
}