{
    "cas_no": "21142-29-0",
    "key_name": "Methacryloxypropyltriethoxysilane",
    "cn_name": "甲基丙烯酰氧基丙基三乙氧基硅烷;3-(三乙氧基硅基)丙基甲基丙烯酸酯;",
    "alternate_name": "2-Propenoic acid, 2-methyl-, 3-(triethoxysilyl)propyl ester;Methacrylic acid, 3-(triethoxysilyl)propyl ester;1-Propanol, 3-(triethoxysilyl)-, methacrylate;(γ-Methacryloxypropyl)triethoxysilane;(3-Methacryloxypropyl)triethoxysilane;(γ-Methacryloyloxypropyl)triethoxysilane;[3-(Methacryloyloxy)propyl]triethoxysilane;KBE 503;γ-(Triethoxysilyl)propyl methacrylate;Y 9936;3-MPTES;3-(Triethoxysilyl)propyl methacrylate;Y 11878;2-Methyl-2-propenoic acid 3-(triethoxysilyl)propyl ester;WD 70;Z 6036;SZ 6036;Methacryloxypropyltriethoxysilane;KH 572;DB 572;Triethoxysilylpropyl methacrylate;Silquest Y 9936;KH 570A;VPS-MEEO;Gelest 6487;Triethoxy(3-methacryloyloxypropyl)silane;SCA-R 74E;3-Triethoxysilylpropyl 2-methylprop-2-enoate;T 2676;AC 636;JH 0174",
    "duplicated_cas_no": "",
    "SMILES": "[Si](CCCOC(C(C)=C)=O)(OCC)(OCC)OCC",
    "meta_data": {
        "InChI": "InChI=1S/C13H26O5Si/c1-6-16-19(17-7-2,18-8-3)11-9-10-15-13(14)12(4)5/h4,6-11H2,1-3,5H3",
        "InChIKey": null,
        "Canonical SMILES": "O=C(OCCC[Si](OCC)(OCC)OCC)C(=C)C",
        "Molecular Formula": "C<sub>13</sub>H<sub>26</sub>O<sub>5</sub>Si",
        "Molecular Mass": "290.43",
        "Boiling Point": "130 °C @ Press: 4 Torr",
        "Density": "0.985 g/cm³"
    }
}