{
    "cas_no": "2146-07-8",
    "key_name": "Benzenamine, 4-fluoro-, hydrochloride (1:1)",
    "cn_name": null,
    "alternate_name": "Benzenamine, 4-fluoro-, hydrochloride (1:1);Aniline, <em>p</em>-fluoro-, hydrochloride;Benzenamine, 4-fluoro-, hydrochloride;<em>p</em>-Fluoroaniline hydrochloride;4-Fluorobenzenamine hydrochloride;4-Fluoroaniline hydrochloride;4-Fluoroanilinium chloride",
    "duplicated_cas_no": "",
    "SMILES": "FC1=CC=C(N)C=C1.Cl",
    "meta_data": {
        "InChI": "InChI=1S/C6H6FN.ClH/c7-5-1-3-6(8)4-2-5;/h1-4H,8H2;1H",
        "InChIKey": null,
        "Canonical SMILES": "Cl.FC1=CC=C(N)C=C1",
        "Molecular Formula": "C<sub>6</sub>H<sub>6</sub>FN.ClH",
        "Molecular Mass": "",
        "Melting Point": "&gt;200 °C"
    }
}