{
    "cas_no": "31543-75-6",
    "key_name": "2,4-Dibromo-1-methylbenzene",
    "cn_name": "2,4-二溴甲苯;",
    "alternate_name": "Benzene, 2,4-dibromo-1-methyl-;Toluene, 2,4-dibromo-;2,4-Dibromo-1-methylbenzene;<em>o</em>,<em>p</em>-Dibromotoluene;2,4-Dibromotoluene;NSC 139877",
    "duplicated_cas_no": "",
    "SMILES": "BrC1=C(C)C=CC(Br)=C1",
    "meta_data": {
        "InChI": "InChI=1S/C7H6Br2/c1-5-2-3-6(8)4-7(5)9/h2-4H,1H3",
        "InChIKey": null,
        "Canonical SMILES": "BrC1=CC=C(C(Br)=C1)C",
        "Molecular Formula": "C<sub>7</sub>H<sub>6</sub>Br<sub>2</sub>",
        "Molecular Mass": "249.93",
        "Boiling Point": "103-104 °C @ Press: 11 Torr",
        "Melting Point": "-9.7 °C",
        "Density": "1.8176 g/cm³ @ Temp: 25 °C"
    }
}