{
    "cas_no": "3742-34-5",
    "key_name": "Vinylcyclopentane",
    "cn_name": "乙烯基环戊烷;",
    "alternate_name": "Cyclopentane, ethenyl-;Cyclopentane, vinyl-;Ethenylcyclopentane;Vinylcyclopentane;NSC 73919;Ethylenecyclopentane;Cyclopentylethylene",
    "duplicated_cas_no": "",
    "SMILES": "C(=C)C1CCCC1",
    "meta_data": {
        "InChI": "InChI=1S/C7H12/c1-2-7-5-3-4-6-7/h2,7H,1,3-6H2",
        "InChIKey": null,
        "Canonical SMILES": "C=CC1CCCC1",
        "Molecular Formula": "C<sub>7</sub>H<sub>12</sub>",
        "Molecular Mass": "96.17",
        "Boiling Point": "98.2-98.5 °C @ Press: 750 Torr",
        "Density": "0.7796 g/cm³ @ Temp: 20 °C"
    }
}