{
    "cas_no": "313-13-3",
    "key_name": "2,6-Bis(trifluoromethyl)benzenamine",
    "cn_name": null,
    "alternate_name": "Benzenamine, 2,6-bis(trifluoromethyl)-;2,6-Xylidine, α,α,α,α′,α′,α′-hexafluoro-;2,6-Bis(trifluoromethyl)benzenamine;2,6-Bis(trifluoromethyl)aniline",
    "duplicated_cas_no": "",
    "SMILES": "C(F)(F)(F)C1=C(N)C(C(F)(F)F)=CC=C1",
    "meta_data": {
        "InChI": "InChI=1S/C8H5F6N/c9-7(10,11)4-2-1-3-5(6(4)15)8(12,13)14/h1-3H,15H2",
        "InChIKey": null,
        "Canonical SMILES": "FC(F)(F)C1=CC=CC(=C1N)C(F)(F)F",
        "Molecular Formula": "C<sub>8</sub>H<sub>5</sub>F<sub>6</sub>N",
        "Molecular Mass": "229.12",
        "Boiling Point": "37 °C @ Press: 0.2 Torr",
        "Density": "1.4645 g/cm³ @ Temp: 28 °C"
    }
}