{
    "cas_no": "124728-90-1",
    "key_name": "2,3-Difluoro-1,4-benzenediol",
    "cn_name": null,
    "alternate_name": "1,4-Benzenediol, 2,3-difluoro-;2,3-Difluoro-1,4-benzenediol;2,3-Difluoro-4-hydroxyphenol;2,3-Difluorobenzene-1,4-diol;2,3-Difluoro-1,4-dihydroquinone",
    "duplicated_cas_no": "",
    "SMILES": "FC1=C(F)C(O)=CC=C1O",
    "meta_data": {
        "InChI": "InChI=1S/C6H4F2O2/c7-5-3(9)1-2-4(10)6(5)8/h1-2,9-10H",
        "InChIKey": null,
        "Canonical SMILES": "FC1=C(F)C(O)=CC=C1O",
        "Molecular Formula": "C<sub>6</sub>H<sub>4</sub>F<sub>2</sub>O<sub>2</sub>",
        "Molecular Mass": "146.09",
        "Melting Point": "124-126 °C"
    }
}