{
    "cas_no": "4187-56-8",
    "key_name": "(-)-1-(4-Chlorophenyl)ethylamine",
    "cn_name": null,
    "alternate_name": "Benzenemethanamine, 4-chloro-α-methyl-, (α<em>S</em>)-;Benzylamine, <em>p</em>-chloro-α-methyl-, (-)-;Benzenemethanamine, 4-chloro-α-methyl-, (<em>S</em>)-;(α<em>S</em>)-4-Chloro-α-methylbenzenemethanamine;(<em>S</em>)-4-Chloro-α-methylbenzenemethanamine;(-)-<em>p</em>-Chloro-α-methylbenzylamine;(-)-α-(<em>p</em>-Chlorophenyl)ethylamine;(<em>S</em>)-1-(4-Chlorophenyl)ethylamine;(<em>S</em>)-1-(<em>p</em>-Chlorophenyl)ethylamine;(1<em>S</em>)-1-(4-Chlorophenyl)ethanamine;(<em>S</em>)-(-)-1-(4-Chlorophenyl)ethylamine;(<em>S</em>)-4-Chloro-α-methylbenzylamine;(-)-1-(4-Chlorophenyl)ethylamine;(<em>S</em>)-1-(4-Chlorophenyl)ethanamine;(<em>S</em>)-4-Chlorophenylethylamine;(<em>S</em>)-(-)-4-Chloro-α-methylbenzylamine;(1S)-1-(4-Chlorophenyl)ethan-1-amine;(<em>S</em>)-1-(4-Chlorophenyl]ethan-1-amine",
    "duplicated_cas_no": "",
    "SMILES": "[C@@H](C)(N)C1=CC=C(Cl)C=C1",
    "meta_data": {
        "InChI": "InChI=1S/C8H10ClN/c1-6(10)7-2-4-8(9)5-3-7/h2-6H,10H2,1H3/t6-/m0/s1",
        "InChIKey": null,
        "Canonical SMILES": "ClC1=CC=C(C=C1)C(N)C",
        "Molecular Formula": "C<sub>8</sub>H<sub>10</sub>ClN",
        "Molecular Mass": "155.62",
        "Melting Point": "136-137 °C",
        "Density": "1.10686 g/cm³ @ Temp: 25.00 °C"
    }
}