{
    "cas_no": "315-30-0",
    "key_name": "Allopurinol",
    "cn_name": "别嘌醇;4-羟基吡唑并[3,4-d]嘧啶;1H-吡唑并[3,4-d]嘧啶-4-醇;",
    "alternate_name": "4<em>H</em>-Pyrazolo[3,4-<em>d</em>]pyrimidin-4-one, 1,5-dihydro-;1,5-Dihydro-4<em>H</em>-pyrazolo[3,4-<em>d</em>]pyrimidin-4-one;BW 56-158;Allopurinol;HPP;Zyloprim;Zyloric;4-Hydroxypyrazolo[3,4-<em>d</em>]pyrimidine;Allopurinol(I);Milurit;1<em>H</em>-Pyrazolo[3,4-<em>d</em>]pyrimidin-4-ol;4-Hydroxy-1<em>H</em>-pyrazolo[3,4-<em>d</em>]pyrimidine;Bloxanth;Foligan;Epidropal;Uricemil;Urosin;Allopur;Uriprim;Atisuril;Gotax;Gichtex;4-Oxopyrazolo[3,4-<em>d</em>]pyrimidine;Sllo-puren;Cellidrin;Cosuric;Caplenal;Ketanrift;Monarch;BW 15658;Riball;Anoprolin;Alositol;Urtias;NSC 1390;Bleminol;Ketobun A;Suspendol;Hexanurat;Uripurinol;Takanarumin;Lysuron;Urobenyl;Nektrohan;Urbol;Allurtal;Xanturat;Geapur;Lopurin;Dabroson;Anzief;Miniplanor;Apurol;Sigapurol;Apurin;Remid;Allozym;Hamarin;Aloral;Ledopur;Embarin;Adenock;Apulonga;NSC 101655;1,5-Dihydro-1<em>H</em>-pyrazolo[3,4-<em>d</em>]pyrimidin-4-one;Aloprim;Alopurinol;1<em>H</em>,4<em>H</em>,7<em>H</em>-Pyrazolo[3,4-<em>d</em>]pyrimidin-4-one;1<em>H</em>,4<em>H</em>,5<em>H</em>-Pyrazolo[3,4-<em>d</em>]pyrimidin-4-one;1<em>H</em>-Pyrazolo[3,4-<em>d</em>]pyrimidin-4(5<em>H</em>)-one;MeSH ID: D000493",
    "duplicated_cas_no": "22767-92-6;39464-14-7;184856-42-6",
    "SMILES": "O=C1C2=C(NC=N1)NN=C2",
    "meta_data": {
        "InChI": "InChI=1S/C5H4N4O/c10-5-3-1-8-9-4(3)6-2-7-5/h1-2H,(H2,6,7,8,9,10)",
        "InChIKey": null,
        "Canonical SMILES": "O=C1N=CNC=2NN=CC12",
        "Molecular Formula": "C<sub>5</sub>H<sub>4</sub>N<sub>4</sub>O",
        "Molecular Mass": "136.11",
        "Melting Point": "&gt;350 °C"
    }
}