{
    "cas_no": "15099-85-1",
    "key_name": "β-Aminobenzenebutanoic acid",
    "cn_name": "L-苯丙氨酸;",
    "alternate_name": "Benzenebutanoic acid, β-amino-;β-Aminobenzenebutanoic acid;3-Benzyl-β-alanine;NSC 127002;NSC 127018;3-Amino-4-phenylbutanoic acid",
    "duplicated_cas_no": "131725-48-9",
    "SMILES": "C(C(CC(O)=O)N)C1=CC=CC=C1",
    "meta_data": {
        "InChI": "InChI=1S/C10H13NO2/c11-9(7-10(12)13)6-8-4-2-1-3-5-8/h1-5,9H,6-7,11H2,(H,12,13)",
        "InChIKey": null,
        "Canonical SMILES": "O=C(O)CC(N)CC=1C=CC=CC1",
        "Molecular Formula": "C<sub>10</sub>H<sub>13</sub>NO<sub>2</sub>",
        "Molecular Mass": "179.22",
        "Melting Point": "226 °C"
    }
}