{
    "cas_no": "4984-82-1",
    "key_name": "Sodium, 2,4-cyclopentadien-1-yl-",
    "cn_name": "环戊二烯化钠;环戊二烯基钠溶液;",
    "alternate_name": "Sodium, 2,4-cyclopentadien-1-yl-;Sodium, cyclopentadienyl-;2,4-Cyclopentadien-1-yl sodium;Sodium cyclopentadienide;Sodium cyclopentadienylide;Cyclopentadienylsodium;1,3-Cyclopentadiene, sodium salt (1:1)",
    "duplicated_cas_no": "27081-05-6;28260-50-6;36683-96-2;38785-12-5;38841-18-8;63936-05-0;73500-89-7;152846-23-6;223905-48-4;1207872-61-4;2411061-83-9",
    "SMILES": "[Na]C1C=CC=C1",
    "meta_data": {
        "InChI": "InChI=1S/C5H5.Na/c1-2-4-5-3-1;/h1-5H;",
        "InChIKey": null,
        "Canonical SMILES": "[Na]C1C=CC=C1",
        "Molecular Formula": "C<sub>5</sub>H<sub>5</sub>Na",
        "Molecular Mass": "",
        "Melting Point": "172 °C"
    }
}