{
    "cas_no": "2224-33-1",
    "key_name": "Vinyltris(methylethylketoxime)silane",
    "cn_name": "乙烯基三丁酮肟基硅烷;",
    "alternate_name": "2-Butanone, 2,2′,2′′-[<em>O</em>,<em>O</em>′,<em>O</em>′′-(ethenylsilylidyne)trioxime];2-Butanone, <em>O</em>,<em>O</em>′,<em>O</em>′′-(ethenylsilylidyne)trioxime;2-Butanone, <em>O</em>,<em>O</em>′,<em>O</em>′′-(vinylsilylidyne)trioxime;Silane, tris[(<em>sec</em>-butylideneamino)oxy]vinyl-;Vinyltris[(2-butylidene)aminooxy]silane;Tris(<em>sec</em>-butylideneaminooxy)vinylsilane;Vinyltris(methylethylketoxime)silane;Tris(ethylmethylketoximato)vinylsilane;Vinyltris(2-butanoneoximato)silane;Vinyltris(methylethylketoximato)silane;Vinyltri(methylethylketoximo)silane;Vinyltrisbutanoximesilane;Vinyltri(methyl ethyl ketoximino)silane;Vinyltri(methylethylketoxime)silane;Vinyltris(methyl ethyl ketoximino)silane;OX 20;OX 20 (oxime);SIV 9280.0;Vinyltris(ethylmethylketoxime)silane;D 90;VTO(VOS);Xinlantian D 91;D 91;Product 119-54;BCA 100",
    "duplicated_cas_no": "123525-82-6;123948-72-1;132850-42-1",
    "SMILES": "[Si](ON=C(CC)C)(ON=C(CC)C)(ON=C(CC)C)C=C",
    "meta_data": {
        "InChI": "InChI=1S/C14H27N3O3Si/c1-8-12(5)15-18-21(11-4,19-16-13(6)9-2)20-17-14(7)10-3/h11H,4,8-10H2,1-3,5-7H3",
        "InChIKey": null,
        "Canonical SMILES": "N(O[Si](ON=C(C)CC)(ON=C(C)CC)C=C)=C(C)CC",
        "Molecular Formula": "C<sub>14</sub>H<sub>27</sub>N<sub>3</sub>O<sub>3</sub>Si",
        "Molecular Mass": "313.47",
        "Boiling Point": "113 °C @ Press: 0.1 Torr",
        "Melting Point": "-22 °C",
        "Density": "0.982 g/cm³ @ Temp: 25 °C"
    }
}