{
    "cas_no": "25895-60-7",
    "key_name": "Sodium cyanoborohydride",
    "cn_name": "氰基硼氢化钠;",
    "alternate_name": "Borate(1-), (cyano-κ<em>C</em>)trihydro-, sodium (1:1), (<em>T</em>-4)-;Borate(1-), cyanotrihydro-, sodium;Borate(1-), (cyano-<em>C</em>)trihydro-, sodium, (<em>T</em>-4)-;Borate(1-), (cyano-κ<em>C</em>)trihydro-, sodium, (<em>T</em>-4)-;Sodium cyanoborohydride;Sodium borocyanohydride;Sodium cyanotrihydroborate;Sodium cyanotrihydroborate(1-);Sodium cyanoboronhydride;Sodium cyanoboranuide",
    "duplicated_cas_no": "1448962-82-0;1469314-33-7",
    "SMILES": "[B+3]([C-]#N)([H-])([H-])[H-].[Na+]",
    "meta_data": {
        "InChI": "InChI=1S/CH3BN.Na/c2-1-3;/h2H3;/q-1;+1",
        "InChIKey": null,
        "Canonical SMILES": "[Na+].[H-][B+3]([H-])([H-])[C-]#N",
        "Molecular Formula": "CH<sub>3</sub>BN.Na",
        "Molecular Mass": "",
        "Melting Point": "185 °C"
    }
}