{
    "cas_no": "1679-51-2",
    "key_name": "3-Cyclohexene-1-methanol",
    "cn_name": "3-环己烯-1-甲醇;",
    "alternate_name": "3-Cyclohexene-1-methanol;3-Cyclohexene-1-carbinol;4-(Hydroxymethyl)-1-cyclohexene;1-(Hydroxymethyl)-3-cyclohexene;Cyclohex-3-en-1-ylmethanol;1,2,3,6-Tetrahydrobenzyl alcohol;1,2,5,6-Tetrahydrobenzyl alcohol;Cyclohexen-4-ylmethanol;(Cyclohex-1-en-4-yl)methanol;NSC 158554;3,4-Cyclohexenylmethanol;Cyclohex-1-ene-4-methanol;(Cyclohex-3-enyl)methanol;THBA",
    "duplicated_cas_no": "72581-32-9",
    "SMILES": "C(O)C1CCC=CC1",
    "meta_data": {
        "InChI": "InChI=1S/C7H12O/c8-6-7-4-2-1-3-5-7/h1-2,7-8H,3-6H2",
        "InChIKey": null,
        "Canonical SMILES": "OCC1CC=CCC1",
        "Molecular Formula": "C<sub>7</sub>H<sub>12</sub>O",
        "Molecular Mass": "112.17",
        "Boiling Point": "82 °C @ Press: 12 Torr"
    }
}