{
    "cas_no": "488-47-1",
    "key_name": "3,4,5,6-Tetrabromo-1,2-benzenediol",
    "cn_name": "四溴儿茶酚;四溴邻苯二酚;",
    "alternate_name": "1,2-Benzenediol, 3,4,5,6-tetrabromo-;Pyrocatechol, tetrabromo-;3,4,5,6-Tetrabromo-1,2-benzenediol;Tetrabromocatechol;Tetrabromopyrocatechol;3,4,5,6-Tetrabromocatechol;Tetrabromo-1,2-dihydroxybenzene;3,4,5,6-Tetrabromobenzenediol;3,4,5,6-Tetrabromopyrocatechol;NSC 36929;NSC 66414",
    "duplicated_cas_no": "1081766-12-2;1422391-11-4",
    "SMILES": "BrC1=C(Br)C(Br)=C(O)C(O)=C1Br",
    "meta_data": {
        "InChI": "InChI=1S/C6H2Br4O2/c7-1-2(8)4(10)6(12)5(11)3(1)9/h11-12H",
        "InChIKey": null,
        "Canonical SMILES": "BrC=1C(Br)=C(Br)C(O)=C(O)C1Br",
        "Molecular Formula": "C<sub>6</sub>H<sub>2</sub>Br<sub>4</sub>O<sub>2</sub>",
        "Molecular Mass": "425.69",
        "Melting Point": "190-191 °C"
    }
}