{
    "cas_no": "7139-02-8",
    "key_name": "2,6-Dichloro-4,8-di-1-piperidinylpyrimido[5,4-<em>d</em>]pyrimidine",
    "cn_name": "2,6-二氯-4,8-二哌啶子基嘧啶并[5,4-D]嘧啶;2,6-二氯-4,8-二哌啶子基嘧啶并[5,4-D]嘧啶;",
    "alternate_name": "Pyrimido[5,4-<em>d</em>]pyrimidine, 2,6-dichloro-4,8-di-1-piperidinyl-;Pyrimido[5,4-<em>d</em>]pyrimidine, 2,6-dichloro-4,8-dipiperidino-;2,6-Dichloro-4,8-di-1-piperidinylpyrimido[5,4-<em>d</em>]pyrimidine",
    "duplicated_cas_no": "",
    "SMILES": "ClC1=NC2=C(C(=N1)N3CCCCC3)N=C(Cl)N=C2N4CCCCC4",
    "meta_data": {
        "InChI": "InChI=1S/C16H20Cl2N6/c17-15-20-12-11(13(21-15)23-7-3-1-4-8-23)19-16(18)22-14(12)24-9-5-2-6-10-24/h1-10H2",
        "InChIKey": null,
        "Canonical SMILES": "ClC=1N=C2C(N=C(Cl)N=C2N3CCCCC3)=C(N1)N4CCCCC4",
        "Molecular Formula": "C<sub>16</sub>H<sub>20</sub>Cl<sub>2</sub>N<sub>6</sub>",
        "Molecular Mass": "367.28",
        "Melting Point": "245-246 °C"
    }
}