{
    "cas_no": "67967-14-0",
    "key_name": "5-Bromo-1,7-naphthyridin-8(7<em>H</em>)-one",
    "cn_name": null,
    "alternate_name": "1,7-Naphthyridin-8(7<em>H</em>)-one, 5-bromo-;5-Bromo-1,7-naphthyridin-8(7<em>H</em>)-one;5-Bromo-8-hydroxy-1,7-naphthyridine",
    "duplicated_cas_no": "",
    "SMILES": "BrC=1C=2C(C(=O)NC1)=NC=CC2",
    "meta_data": {
        "InChI": "InChI=1S/C8H5BrN2O/c9-6-4-11-8(12)7-5(6)2-1-3-10-7/h1-4H,(H,11,12)",
        "InChIKey": null,
        "Canonical SMILES": "O=C1NC=C(Br)C=2C=CC=NC12",
        "Molecular Formula": "C<sub>8</sub>H<sub>5</sub>BrN<sub>2</sub>O",
        "Molecular Mass": "225.04",
        "Melting Point": "333-335 °C"
    }
}