{
    "cas_no": "5511-18-2",
    "key_name": "Tricyclo[3.3.1.1<sup>3,7</sup>]decane-1-carboxamide",
    "cn_name": "1-金刚烷甲酰胺;1-金刚烷基羰酰胺;",
    "alternate_name": "Tricyclo[3.3.1.1<sup>3,7</sup>]decane-1-carboxamide;1-Adamantanecarboxamide;Adamantan-1-carboxamide",
    "duplicated_cas_no": "53263-88-0",
    "SMILES": "C(N)(=O)C12CC3CC(C1)CC(C2)C3",
    "meta_data": {
        "InChI": "InChI=1S/C11H17NO/c12-10(13)11-4-7-1-8(5-11)3-9(2-7)6-11/h7-9H,1-6H2,(H2,12,13)",
        "InChIKey": null,
        "Canonical SMILES": "O=C(N)C12CC3CC(CC(C3)C1)C2",
        "Molecular Formula": "C<sub>11</sub>H<sub>17</sub>NO",
        "Molecular Mass": "179.26",
        "Melting Point": "119-120 °C"
    }
}