{
    "cas_no": "213261-59-7",
    "key_name": "5,5′-(2,5-Furandiyl)bis[2-thiophenemethanol]",
    "cn_name": null,
    "alternate_name": "2-Thiophenemethanol, 5,5′-(2,5-furandiyl)bis-;5,5′-(2,5-Furandiyl)bis[2-thiophenemethanol];NSC 652287;RITA;[Furan-2,5-diylbis(thiene-5,2-diyl)]dimethanol;[5-[5-[5-(Hydroxymethyl)thiophen-2-yl]furan-2-yl]thiophen-2-yl]methanol;2,5-Bis[5-hydroxymethyl-2-thienyl]furan;Broad ID:BRD-K00317371",
    "duplicated_cas_no": "2477021-17-1",
    "SMILES": "C(O)C=1SC(C=2OC(=CC2)C=3SC(CO)=CC3)=CC1",
    "meta_data": {
        "InChI": "InChI=1S/C14H12O3S2/c15-7-9-1-5-13(18-9)11-3-4-12(17-11)14-6-2-10(8-16)19-14/h1-6,15-16H,7-8H2",
        "InChIKey": null,
        "Canonical SMILES": "OCC=1SC(=CC1)C=2OC(=CC2)C=3SC(=CC3)CO",
        "Molecular Formula": "C<sub>14</sub>H<sub>12</sub>O<sub>3</sub>S<sub>2</sub>",
        "Molecular Mass": "292.37",
        "Melting Point": "158-160 °C"
    }
}