{
    "cas_no": "74-83-9",
    "key_name": "Methyl bromide",
    "cn_name": "溴甲烷;甲基溴;",
    "alternate_name": "Methane, bromo-;Bromomethane;Embafume;Iscobrome;Methyl bromide;Monobromomethane;Terabol;Haltox;Halon 1001;Curafume;R 40B1;1-Bromomethane;Brom-O-Gas;Methybrom;F 40B1",
    "duplicated_cas_no": "1361252-19-8;1519044-64-4;2692599-21-4",
    "SMILES": "BrC",
    "meta_data": {
        "InChI": "InChI=1S/CH3Br/c1-2/h1H3",
        "InChIKey": null,
        "Canonical SMILES": "BrC",
        "Molecular Formula": "CH<sub>3</sub>Br",
        "Molecular Mass": "94.94",
        "Boiling Point": "3.5 °C",
        "Melting Point": "-93.66 °C",
        "Density": "1.7 g/cm³"
    }
}