{
    "cas_no": "103429-90-9",
    "key_name": "1-Butanol, 3-methoxy-3-methyl-, 1-acetate",
    "cn_name": "3-甲氧基-3-甲基醋酸丁酯;乙酸-3-甲氧基-3-甲基丁酯;",
    "alternate_name": "1-Butanol, 3-methoxy-3-methyl-, 1-acetate;1-Butanol, 3-methoxy-3-methyl-, acetate;3-Methyl-3-methoxybutyl acetate;3-Methoxy-3-methylbutyl acetate;1-Acetoxy-3-methoxy-3-methylbutane;3-Methyl-3-methoxy-1-butyl acetate;Solfit AC;3-Methoxy-3-methyl-1-butanol acetate;3-Methoxy-3-methyl-1-butyl acetate",
    "duplicated_cas_no": "",
    "SMILES": "C(CCOC(C)=O)(OC)(C)C",
    "meta_data": {
        "InChI": "InChI=1S/C8H16O3/c1-7(9)11-6-5-8(2,3)10-4/h5-6H2,1-4H3",
        "InChIKey": null,
        "Canonical SMILES": "O=C(OCCC(OC)(C)C)C",
        "Molecular Formula": "C<sub>8</sub>H<sub>16</sub>O<sub>3</sub>",
        "Molecular Mass": "160.21",
        "Boiling Point": "188 °C"
    }
}