{
    "cas_no": "41838-46-4",
    "key_name": "4-Amino-1-methylpiperidine",
    "cn_name": "4-氨基-1-甲基哌啶;N-甲基-4-氨基哌啶;",
    "alternate_name": "4-Piperidinamine, 1-methyl-;Piperidine, 4-amino-1-methyl-;1-Methyl-4-piperidinamine;4-Amino-1-methylpiperidine;1-Methyl-4-aminopiperidine;1-Methylpiperidin-4-ylamine;<em>N</em>-Methyl-4-aminopiperidine",
    "duplicated_cas_no": "",
    "SMILES": "NC1CCN(C)CC1",
    "meta_data": {
        "InChI": "InChI=1S/C6H14N2/c1-8-4-2-6(7)3-5-8/h6H,2-5,7H2,1H3",
        "InChIKey": null,
        "Canonical SMILES": "NC1CCN(C)CC1",
        "Molecular Formula": "C<sub>6</sub>H<sub>14</sub>N<sub>2</sub>",
        "Molecular Mass": "114.19",
        "Boiling Point": "83 °C @ Press: 48 Torr",
        "Melting Point": "237-239 °C"
    }
}