{
    "cas_no": "16817-43-9",
    "key_name": "5-Bromo-2-chloroanisole",
    "cn_name": null,
    "alternate_name": "Benzene, 4-bromo-1-chloro-2-methoxy-;Anisole, 5-bromo-2-chloro-;4-Bromo-1-chloro-2-methoxybenzene;2-Chloro-5-bromoanisole;5-Bromo-2-chloroanisole;4-Chloro-3-methoxybromobenzene;5-Bromo-2-chloro-1-methoxybenzene;3-Bromo-6-chloroanisole;1-Bromo-4-chloro-3-methoxybenzene",
    "duplicated_cas_no": "",
    "SMILES": "O(C)C1=C(Cl)C=CC(Br)=C1",
    "meta_data": {
        "InChI": "InChI=1S/C7H6BrClO/c1-10-7-4-5(8)2-3-6(7)9/h2-4H,1H3",
        "InChIKey": null,
        "Canonical SMILES": "ClC1=CC=C(Br)C=C1OC",
        "Molecular Formula": "C<sub>7</sub>H<sub>6</sub>BrClO",
        "Molecular Mass": "221.48",
        "Boiling Point": "114 °C @ Press: 9 Torr",
        "Melting Point": "27-28 °C"
    }
}