{
    "cas_no": "7440-52-0",
    "key_name": "Erbium",
    "cn_name": "铒ER;",
    "alternate_name": "Erbium;MeSH ID: D004871",
    "duplicated_cas_no": "110424-79-8",
    "SMILES": "[Er]",
    "meta_data": {
        "InChI": "InChI=1S/Er",
        "InChIKey": null,
        "Canonical SMILES": "[Er]",
        "Molecular Formula": "Er",
        "Molecular Mass": "",
        "Melting Point": "153 °C",
        "Density": "9.07 g/cm³ (liquid) @ Temp: 1529 °C"
    }
}