{
    "cas_no": "16984-48-8",
    "key_name": "Fluoride",
    "cn_name": null,
    "alternate_name": "Fluoride;Fluorine, ion;Perfluoride;Fluoride ion;Hydrofluoric acid, ion(1-);Fluorine ion(1-);Fluoride(1-);Fluoride ion (F<sup>-</sup>);Fluorine ion(F<sup>1-</sup>);Fluoride ion(1-)",
    "duplicated_cas_no": "405267-45-0",
    "SMILES": "[F-]",
    "meta_data": {
        "InChI": "InChI=1S/FH/h1H/p-1",
        "InChIKey": null,
        "Canonical SMILES": "[F-]",
        "Molecular Formula": "F",
        "Molecular Mass": "",
        "Melting Point": "103-104 °C"
    }
}