{
    "cas_no": "76-93-7",
    "key_name": "Benzilic acid",
    "cn_name": "二苯基乙醇酸;2,2-二苯基-2-羟基乙酸;二苯羟乙酸;",
    "alternate_name": "Benzeneacetic acid, α-hydroxy-α-phenyl-;Benzilic acid;α-Hydroxy-α-phenylbenzeneacetic acid;Diphenylglycolic acid;Diphenylhydroxyacetic acid;α-Hydroxy-2,2-diphenylacetic acid;α,α-Diphenyl-α-hydroxyacetic acid;Hydroxydiphenylacetic acid;α,α-Diphenylglycolic acid;2-Hydroxy-2,2-diphenylacetic acid;2,2-Diphenyl-2-hydroxyacetic acid;α-Hydroxydiphenylacetic acid;NSC 2830;2,2-Diphenylglycolic acid;2,2-Diphenyl-2-hydroxyethanoic acid;Benzilate;Benzilates",
    "duplicated_cas_no": "",
    "SMILES": "C(C(O)=O)(O)(C1=CC=CC=C1)C2=CC=CC=C2",
    "meta_data": {
        "InChI": "InChI=1S/C14H12O3/c15-13(16)14(17,11-7-3-1-4-8-11)12-9-5-2-6-10-12/h1-10,17H,(H,15,16)",
        "InChIKey": null,
        "Canonical SMILES": "O=C(O)C(O)(C=1C=CC=CC1)C=2C=CC=CC2",
        "Molecular Formula": "C<sub>14</sub>H<sub>12</sub>O<sub>3</sub>",
        "Molecular Mass": "228.24",
        "Boiling Point": "187 °C",
        "Melting Point": "151 °C"
    }
}