{
    "cas_no": "423-50-7",
    "key_name": "1,1,2,2,3,3,4,4,5,5,6,6,6-Tridecafluoro-1-hexanesulfonyl fluoride",
    "cn_name": "全氟己基磺酰氟;",
    "alternate_name": "1-Hexanesulfonyl fluoride, 1,1,2,2,3,3,4,4,5,5,6,6,6-tridecafluoro-;1-Hexanesulfonyl fluoride, tridecafluoro-;1,1,2,2,3,3,4,4,5,5,6,6,6-Tridecafluoro-1-hexanesulfonyl fluoride;Perfluorohexylsulfonyl fluoride;Perfluorohexanesulfonyl fluoride;Perfluoro-1-hexanesulfonyl fluoride;Tridecafluorohexanesulfonyl fluoride;1,1,2,2,3,3,4,4,5,5,6,6,6-Tridecafluorohexane-1-sulfonyl fluoride",
    "duplicated_cas_no": "",
    "SMILES": "C(C(C(C(F)(F)F)(F)F)(F)F)(C(C(S(F)(=O)=O)(F)F)(F)F)(F)F",
    "meta_data": {
        "InChI": "InChI=1S/C6F14O2S/c7-1(8,3(11,12)5(15,16)17)2(9,10)4(13,14)6(18,19)23(20,21)22",
        "InChIKey": null,
        "Canonical SMILES": "O=S(=O)(F)C(F)(F)C(F)(F)C(F)(F)C(F)(F)C(F)(F)C(F)(F)F",
        "Molecular Formula": "C<sub>6</sub>F<sub>14</sub>O<sub>2</sub>S",
        "Molecular Mass": "402.11",
        "Boiling Point": "114-115 °C"
    }
}