{
    "cas_no": "1455-77-2",
    "key_name": "3,5-Diamino-1,2,4-triazole",
    "cn_name": "3,5-二氨基-1,2,4-三氮唑;",
    "alternate_name": "1<em>H</em>-1,2,4-Triazole-3,5-diamine;Guanazole;3,5-Diamino-1,2,4-triazole;3,5-Diamino-<em>s</em>-triazole;NSC 1895;3,5-Diamino-1<em>H</em>-1,2,4-triazole;NSC 166592;NSC 167391;NSC 167392",
    "duplicated_cas_no": "503-88-8",
    "SMILES": "NC=1NC(N)=NN1",
    "meta_data": {
        "InChI": "InChI=1S/C2H5N5/c3-1-5-2(4)7-6-1/h(H5,3,4,5,6,7)",
        "InChIKey": null,
        "Canonical SMILES": "N=1N=C(N)NC1N",
        "Molecular Formula": "C<sub>2</sub>H<sub>5</sub>N<sub>5</sub>",
        "Molecular Mass": "99.09",
        "Melting Point": "205 °C (decomp)"
    }
}