{
    "cas_no": "643-79-8",
    "key_name": "Phthalaldehyde",
    "cn_name": "邻苯二甲醛;OPA;",
    "alternate_name": "1,2-Benzenedicarboxaldehyde;Phthalaldehyde;<em>o</em>-Phthalaldehyde;<em>o</em>-Phthaldialdehyde;Phthalic aldehyde;Phthalic dialdehyde;Phthalyldicarboxaldehyde;2-Formylbenzaldehyde;Benzene-1,2-dicarbaldehyde;<em>o</em>-Phthalic dialdehyde;1,2-Diformylbenzene;<em>o</em>-Diformylbenzene;CIDEX OPA;OP 100S;OP 100SF;1,2-Phthalaldehyde;<em>o</em>-Benzenedicarbaldehyde;NSC 13394;Phtharal;2-Phthalaldehyde;1,2-Formylbenzene",
    "duplicated_cas_no": "",
    "SMILES": "C(=O)C1=C(C=O)C=CC=C1",
    "meta_data": {
        "InChI": "InChI=1S/C8H6O2/c9-5-7-3-1-2-4-8(7)6-10/h1-6H",
        "InChIKey": null,
        "Canonical SMILES": "O=CC=1C=CC=CC1C=O",
        "Molecular Formula": "C<sub>8</sub>H<sub>6</sub>O<sub>2</sub>",
        "Molecular Mass": "134.13",
        "Melting Point": "55-56 °C"
    }
}