{
    "cas_no": "69-79-4",
    "key_name": "Maltose",
    "cn_name": "麦芽糖;4-O-alpha-D-吡喃葡糖基-D-葡萄糖;",
    "alternate_name": "<span class=\"text-smallcaps\">D</smallcap>-Glucose, 4-<em>O</em>-α-<smallcap>D</span>-glucopyranosyl-;Maltose;4-<em>O</em>-α-<span class=\"text-smallcaps\">D</smallcap>-Glucopyranosyl-<smallcap>D</span>-glucose;Maltobiose;Malt sugar;<span class=\"text-smallcaps\">D</span>-Maltose;Maltodiose;<span class=\"text-smallcaps\">D</span>-(+)-Maltose;Finetose;Sunmalt;Sunmalt S;Advantose 100;Finetose F;Maltose HH;Maltose HHH;Flolys D 5780;Maltose OM;MP 21;Sunmalt Midori;Maxisal;High Maltose 70n;MR 70;Maltose PH;Hi-Maltose M 70-75C;MeSH ID: D008320",
    "duplicated_cas_no": "73824-72-3;77072-48-1;47297-42-7;1083048-13-8",
    "SMILES": "O([C@@H]([C@@H]([C@H](C=O)O)O)[C@@H](CO)O)[C@H]1O[C@H](CO)[C@@H](O)[C@H](O)[C@H]1O",
    "meta_data": {
        "InChI": "InChI=1S/C12H22O11/c13-1-4(16)7(18)11(5(17)2-14)23-12-10(21)9(20)8(19)6(3-15)22-12/h1,4-12,14-21H,2-3H2/t4-,5+,6+,7+,8+,9-,10+,11+,12+/m0/s1",
        "InChIKey": null,
        "Canonical SMILES": "O=CC(O)C(O)C(OC1OC(CO)C(O)C(O)C1O)C(O)CO",
        "Molecular Formula": "C<sub>12</sub>H<sub>22</sub>O<sub>11</sub>",
        "Molecular Mass": "342.30",
        "Melting Point": "102-103 °C",
        "Density": "1.009 g/cm³ @ Temp: 25.00 °C"
    }
}