{
    "cas_no": "691-64-5",
    "key_name": "1,2-Bis(1,1-dimethylethyl) ethanedioate",
    "cn_name": "二叔丁基草酸酯;",
    "alternate_name": "Ethanedioic acid, 1,2-bis(1,1-dimethylethyl) ester;Oxalic acid, di-<em>tert</em>-butyl ester;Ethanedioic acid, bis(1,1-dimethylethyl) ester;1,2-Bis(1,1-dimethylethyl) ethanedioate;Di-<em>tert</em>-butyl oxalate;Bis(1,1-dimethylethyl) oxalate",
    "duplicated_cas_no": "",
    "SMILES": "O(C(C(OC(C)(C)C)=O)=O)C(C)(C)C",
    "meta_data": {
        "InChI": "InChI=1S/C10H18O4/c1-9(2,3)13-7(11)8(12)14-10(4,5)6/h1-6H3",
        "InChIKey": null,
        "Canonical SMILES": "O=C(OC(C)(C)C)C(=O)OC(C)(C)C",
        "Molecular Formula": "C<sub>10</sub>H<sub>18</sub>O<sub>4</sub>",
        "Molecular Mass": "202.25",
        "Boiling Point": "229 °C",
        "Melting Point": "71 °C"
    }
}