{
    "cas_no": "969-99-3",
    "key_name": "Chlorpromazine sulfoxide",
    "cn_name": "氧氯丙嗪;氧氯丙嗪;",
    "alternate_name": "10<em>H</em>-Phenothiazine-10-propanamine, 2-chloro-<em>N</em>,<em>N</em>-dimethyl-, 5-oxide;Phenothiazine, 2-chloro-10-[3-(dimethylamino)propyl]-, 5-oxide;Chlorpromazine sulfoxide;Chlorpromazine sulphoxide;Ba 2835;Chlorpromazine <em>S</em>-oxide;Opromazine;Chlorpromazine 5-oxide;Chlorpromazine 5-sulfoxide;Aminazin sulfoxide;NSC 170990",
    "duplicated_cas_no": "",
    "SMILES": "C(CCN(C)C)N1C=2C(S(=O)C=3C1=CC=CC3)=CC=C(Cl)C2",
    "meta_data": {
        "InChI": "InChI=1S/C17H19ClN2OS/c1-19(2)10-5-11-20-14-6-3-4-7-16(14)22(21)17-9-8-13(18)12-15(17)20/h3-4,6-9,12H,5,10-11H2,1-2H3",
        "InChIKey": null,
        "Canonical SMILES": "O=S1C=2C=CC=CC2N(C3=CC(Cl)=CC=C31)CCCN(C)C",
        "Molecular Formula": "C<sub>17</sub>H<sub>19</sub>ClN<sub>2</sub>OS",
        "Molecular Mass": "334.86",
        "Melting Point": "115 °C"
    }
}