{
    "cas_no": "592-95-0",
    "key_name": "Sulforaphene",
    "cn_name": "莱菔素;(E)-4-异硫氰酸基-1-(甲基亚磺酰基)-1-丁烯;",
    "alternate_name": "1-Butene, 4-isothiocyanato-1-(methylsulfinyl)-;Isothiocyanic acid, 4-(methylsulfinyl)-3-butenyl ester;Sulforaphen;4-Isothiocyanato-1-(methylsulfinyl)-1-butene;Sulforaphene;Raphanin;4-Methylsulfinylbut-3-enyl isothiocyanate;4-Methylsulfinyl-3-butenyl isothiocyanate;LFS 01",
    "duplicated_cas_no": "1393-06-2",
    "SMILES": "C(CCN=C=S)=CS(C)=O",
    "meta_data": {
        "InChI": "InChI=1S/C6H9NOS2/c1-10(8)5-3-2-4-7-6-9/h3,5H,2,4H2,1H3",
        "InChIKey": null,
        "Canonical SMILES": "O=S(C=CCCN=C=S)C",
        "Molecular Formula": "C<sub>6</sub>H<sub>9</sub>NOS<sub>2</sub>",
        "Molecular Mass": "175.27",
        "Boiling Point": "135 °C"
    }
}