{
    "cas_no": "62435-72-7",
    "key_name": "Methyl 2,5-dihydro-2,5-dimethoxy-2-furancarboxylate",
    "cn_name": "甲基2,5-二氢-2,5-二甲氧基-2-呋喃羧酸;",
    "alternate_name": "2-Furancarboxylic acid, 2,5-dihydro-2,5-dimethoxy-, methyl ester;2-Furoic acid, 2,5-dihydro-2,5-dimethoxy-, methyl ester;Methyl 2,5-dihydro-2,5-dimethoxy-2-furancarboxylate;2,5-Dimethoxy-2,5-dihydrofuran-2-carboxylic acid methyl ester;Methyl 2,5-dihydro-2,5-dimethoxy-2-furoate;Methyl 2,5-dimethoxy-2,5-dihydrofuran-2-carboxylate",
    "duplicated_cas_no": "",
    "SMILES": "C(OC)(=O)C1(OC)OC(OC)C=C1",
    "meta_data": {
        "InChI": "InChI=1S/C8H12O5/c1-10-6-4-5-8(12-3,13-6)7(9)11-2/h4-6H,1-3H3",
        "InChIKey": null,
        "Canonical SMILES": "O=C(OC)C1(OC)OC(OC)C=C1",
        "Molecular Formula": "C<sub>8</sub>H<sub>12</sub>O<sub>5</sub>",
        "Molecular Mass": "188.18",
        "Boiling Point": "127-131 °C @ Press: 18 Torr"
    }
}