{
    "cas_no": "35150-07-3",
    "key_name": "1,1-Dimethylethyl (2<em>S</em>)-2-(aminocarbonyl)-1-pyrrolidinecarboxylate",
    "cn_name": "(2R)-2-氨甲酰基吡咯烷-1-甲酸叔丁酯;",
    "alternate_name": "1-Pyrrolidinecarboxylic acid, 2-(aminocarbonyl)-, 1,1-dimethylethyl ester, (2<em>S</em>)-;1-Pyrrolidinecarboxylic acid, 2-(aminocarbonyl)-, 1,1-dimethylethyl ester, (<em>S</em>)-;1,1-Dimethylethyl (2<em>S</em>)-2-(aminocarbonyl)-1-pyrrolidinecarboxylate;<em>N</em>-(<em>tert</em>-Butoxycarbonyl)proline amide;<em>N</em>-<em>tert</em>-Butoxycarbonyl-<span class=\"text-smallcaps\">L</span>-proline amide;<em>tert</em>-Butyl (<em>S</em>)-2-carbamoylpyrrolidine-1-carboxylate;(<em>S</em>)-<em>tert</em>-Butyl 2-carbamoylpyrrolidine-1-carboxylate",
    "duplicated_cas_no": "",
    "SMILES": "C(OC(C)(C)C)(=O)N1[C@H](C(N)=O)CCC1",
    "meta_data": {
        "InChI": "InChI=1S/C10H18N2O3/c1-10(2,3)15-9(14)12-6-4-5-7(12)8(11)13/h7H,4-6H2,1-3H3,(H2,11,13)/t7-/m0/s1",
        "InChIKey": null,
        "Canonical SMILES": "O=C(OC(C)(C)C)N1CCCC1C(=O)N",
        "Molecular Formula": "C<sub>10</sub>H<sub>18</sub>N<sub>2</sub>O<sub>3</sub>",
        "Molecular Mass": "214.26",
        "Melting Point": "108-110 °C"
    }
}