{
    "cas_no": "7440-28-0",
    "key_name": "Thallium",
    "cn_name": "棒;铊；金属铊;",
    "alternate_name": "Thallium;Ramor;Thallium element;MeSH ID: D013793",
    "duplicated_cas_no": "113835-49-7;82870-81-3;623903-27-5",
    "SMILES": "[Tl]",
    "meta_data": {
        "InChI": "InChI=1S/Tl",
        "InChIKey": null,
        "Canonical SMILES": "[Tl]",
        "Molecular Formula": "Tl",
        "Molecular Mass": "",
        "Boiling Point": "1473 °C",
        "Melting Point": "304 °C",
        "Density": "11.8 g/cm³"
    }
}