{
    "cas_no": "1912-24-9",
    "key_name": "Atrazine",
    "cn_name": "阿特拉津;6-氯-N2-乙基-N4-异丙基-1,3,5-三嗪-2,4-二胺;",
    "alternate_name": "1,3,5-Triazine-2,4-diamine, 6-chloro-<em>N</em><sup>2</sup>-ethyl-<em>N</em><sup>4</sup>-(1-methylethyl)-;<em>s</em>-Triazine, 2-chloro-4-(ethylamino)-6-(isopropylamino)-;1,3,5-Triazine-2,4-diamine, 6-chloro-<em>N</em>-ethyl-<em>N</em>′-(1-methylethyl)-;6-Chloro-<em>N</em><sup>2</sup>-ethyl-<em>N</em><sup>4</sup>-(1-methylethyl)-1,3,5-triazine-2,4-diamine;A 361;G 30027;Aktinit A;Atrazine;2-Chloro-4-ethylamineisopropylamine-<em>s</em>-triazine;2-Chloro-4-ethylamino-6-isopropylamino-1,3,5-triazine;1-Chloro-3-ethylamino-5-isopropylamino-2,4,6-triazine;Hungazin PK;Triazine A 1294;Gesaprim;Zeazin;2-Ethylamino-4-isopropylamino-6-chloro-<em>s</em>-triazine;Hungazin;2-Chloro-4-(ethylamino)-6-(isopropylamino)-<em>s</em>-triazine;Argezin;Aktikon;Aktikon PK;Atrazin;2-Chloro-4-(ethylamino)-6-(2-propylamino)-<em>s</em>-triazine;Aktinit PK;Cyazin;Wonuk;Primatol A;2-Chloro-4-(ethylamino)-6-(isopropylamino)triazine;Oleogesaprim;Zeazine;Chromozin;Radazin;Gesaprim 50;Akticon;Atrataf;Zeapos;CET;Oleogesaprim 200;Gesaprim 500;Herbatoxol;ATZ;Zeopos;6-Chloro-4-(ethylamino)-2-(isopropylamino)-<em>s</em>-triazine;Gesaprim L;Azoprim;Azoprim 50;AAtrex Nine-O;AAtrex 4L;AAtrex;Gesamprim;Zealin L;Atranex;Atranex 80WP;Nu-Trazine;Aatrex 4LC;Radazin T;NSC 163046;Primoleo;Atraphyt;Atragranz;Farmozine;6-Chloro-<em>N</em>-Ethyl-<em>N</em>′-(1-methylethyl)-1,3,5-triazine-2,4-diamine;Atrasan;Aatrex L;Nortox 500SC;2-Ethylamino-4-isopropylamino-6-chloro-1,3,5-triazine;Atrazerba FL;Atradex;Aatrax;Atanor 50 SC;2-Chloro-6-ethylamino-4-isopropylamino-1,3,5-triazine;Proof;MeSH ID: D001280;Maizal Surcos;Maizal",
    "duplicated_cas_no": "11121-31-6;12040-45-8;12797-72-7;39400-72-1;69771-31-9;93616-39-8",
    "SMILES": "N(C(C)C)C=1N=C(NCC)N=C(Cl)N1",
    "meta_data": {
        "InChI": "InChI=1S/C8H14ClN5/c1-4-10-7-12-6(9)13-8(14-7)11-5(2)3/h5H,4H2,1-3H3,(H2,10,11,12,13,14)",
        "InChIKey": null,
        "Canonical SMILES": "ClC=1N=C(N=C(N1)NC(C)C)NCC",
        "Molecular Formula": "C<sub>8</sub>H<sub>14</sub>ClN<sub>5</sub>",
        "Molecular Mass": "215.68",
        "Melting Point": "175-177 °C",
        "Density": "1.23 g/cm³ @ Temp: 22 °C"
    }
}