{
    "cas_no": "7082-71-5",
    "key_name": "4-Pyridinecarboxylic acid, anhydride with 4-pyridinecarboxylic acid",
    "cn_name": "异烟酸酐;異菸鹼[酸]酐;异烟酸酐;",
    "alternate_name": "4-Pyridinecarboxylic acid, anhydride with 4-pyridinecarboxylic acid;Isonicotinic anhydride;4-Pyridinecarboxylic acid, anhydride;Isonicotinic acid anhydride;NSC 139658",
    "duplicated_cas_no": "",
    "SMILES": "C(OC(=O)C=1C=CN=CC1)(=O)C=2C=CN=CC2",
    "meta_data": {
        "InChI": "InChI=1S/C12H8N2O3/c15-11(9-1-5-13-6-2-9)17-12(16)10-3-7-14-8-4-10/h1-8H",
        "InChIKey": null,
        "Canonical SMILES": "O=C(OC(=O)C=1C=CN=CC1)C=2C=CN=CC2",
        "Molecular Formula": "C<sub>12</sub>H<sub>8</sub>N<sub>2</sub>O<sub>3</sub>",
        "Molecular Mass": "228.20",
        "Melting Point": "103-104 °C"
    }
}