{
    "cas_no": "3913-71-1",
    "key_name": "2-Decenal",
    "cn_name": null,
    "alternate_name": "2-Decenal;NSC 20747",
    "duplicated_cas_no": "",
    "SMILES": "C(CCCCC)CC=CC=O",
    "meta_data": {
        "InChI": "InChI=1S/C10H18O/c1-2-3-4-5-6-7-8-9-10-11/h8-10H,2-7H2,1H3",
        "InChIKey": null,
        "Canonical SMILES": "O=CC=CCCCCCCC",
        "Molecular Formula": "C<sub>10</sub>H<sub>18</sub>O",
        "Molecular Mass": "154.25",
        "Boiling Point": "230 °C",
        "Density": "0.846 g/cm³ @ Temp: 19 °C"
    }
}