{
    "cas_no": "116649-85-5",
    "key_name": "Ramatroban",
    "cn_name": "雷马曲班;3R-(4-氟苯磺酰氨基)-1,2,3,4-四氢化-9H-咔唑-9-丙酸;",
    "alternate_name": "9<em>H</em>-Carbazole-9-propanoic acid, 3-[[(4-fluorophenyl)sulfonyl]amino]-1,2,3,4-tetrahydro-, (3<em>R</em>)-;9<em>H</em>-Carbazole-9-propanoic acid, 3-[[(4-fluorophenyl)sulfonyl]amino]-1,2,3,4-tetrahydro-, (<em>R</em>)-;(3<em>R</em>)-3-[[(4-Fluorophenyl)sulfonyl]amino]-1,2,3,4-tetrahydro-9<em>H</em>-carbazole-9-propanoic acid;BAY-u 3405;Ramatroban;Baynas;3-[(3R)-3-[(4-Fluorophenyl)sulfonylamino]-1,2,3,4-tetrahydrocarbazol-9-yl]propanoic acid",
    "duplicated_cas_no": "",
    "SMILES": "C(CC(O)=O)N1C2=C(C=3C1=CC=CC3)C[C@H](NS(=O)(=O)C4=CC=C(F)C=C4)CC2",
    "meta_data": {
        "InChI": "InChI=1S/C21H21FN2O4S/c22-14-5-8-16(9-6-14)29(27,28)23-15-7-10-20-18(13-15)17-3-1-2-4-19(17)24(20)12-11-21(25)26/h1-6,8-9,15,23H,7,10-13H2,(H,25,26)/t15-/m1/s1",
        "InChIKey": null,
        "Canonical SMILES": "O=C(O)CCN1C=2C=CC=CC2C3=C1CCC(NS(=O)(=O)C4=CC=C(F)C=C4)C3",
        "Molecular Formula": "C<sub>21</sub>H<sub>21</sub>FN<sub>2</sub>O<sub>4</sub>S",
        "Molecular Mass": "416.47",
        "Melting Point": "135-137 °C"
    }
}