{
    "cas_no": "1520-70-3",
    "key_name": "Ethanesulfonamide",
    "cn_name": "乙基磺酰胺;",
    "alternate_name": "Ethanesulfonamide;NSC 87899",
    "duplicated_cas_no": "",
    "SMILES": "S(CC)(N)(=O)=O",
    "meta_data": {
        "InChI": "InChI=1S/C2H7NO2S/c1-2-6(3,4)5/h2H2,1H3,(H2,3,4,5)",
        "InChIKey": null,
        "Canonical SMILES": "O=S(=O)(N)CC",
        "Molecular Formula": "C<sub>2</sub>H<sub>7</sub>NO<sub>2</sub>S",
        "Molecular Mass": "109.15",
        "Melting Point": "58.8 °C"
    }
}