{
    "cas_no": "14917-55-6",
    "key_name": "Methyl α-<span class=\"text-smallcaps\">L</span>-rhamnopyranoside",
    "cn_name": "甲基-α-D-吡喃鼠李糖苷;",
    "alternate_name": "α-<span class=\"text-smallcaps\">L</span>-Mannopyranoside, methyl 6-deoxy-;Mannopyranoside, methyl 6-deoxy-, α-<span class=\"text-smallcaps\">L</span>-;Rhamnopyranoside, methyl, α-<span class=\"text-smallcaps\">L</span>-;Methyl 6-deoxy-α-<span class=\"text-smallcaps\">L</span>-mannopyranoside;Methyl α-<span class=\"text-smallcaps\">L</span>-rhamnopyranoside;Methyl α-<span class=\"text-smallcaps\">L</span>-rhamnoside;Methyl rhamnoside;NSC 287051",
    "duplicated_cas_no": "42300-78-7",
    "SMILES": "O(C)[C@H]1[C@H](O)[C@H](O)[C@@H](O)[C@H](C)O1",
    "meta_data": {
        "InChI": "InChI=1S/C7H14O5/c1-3-4(8)5(9)6(10)7(11-2)12-3/h3-10H,1-2H3/t3-,4-,5+,6+,7+/m0/s1",
        "InChIKey": null,
        "Canonical SMILES": "OC1C(O)C(OC)OC(C)C1O",
        "Molecular Formula": "C<sub>7</sub>H<sub>14</sub>O<sub>5</sub>",
        "Molecular Mass": "178.18",
        "Melting Point": "108-109 °C"
    }
}