{
    "cas_no": "4209-91-0",
    "key_name": "3,5-Dimethyl-3-hexanol",
    "cn_name": "3,5-二甲基-3-己醇;3-羟基-3,5-二甲基己烷;",
    "alternate_name": "3-Hexanol, 3,5-dimethyl-;3,5-Dimethyl-3-hexanol;NSC 95422",
    "duplicated_cas_no": "19113-78-1",
    "SMILES": "C(C(CC)(C)O)C(C)C",
    "meta_data": {
        "InChI": "InChI=1S/C8H18O/c1-5-8(4,9)6-7(2)3/h7,9H,5-6H2,1-4H3",
        "InChIKey": null,
        "Canonical SMILES": "OC(C)(CC)CC(C)C",
        "Molecular Formula": "C<sub>8</sub>H<sub>18</sub>O",
        "Molecular Mass": "130.23",
        "Boiling Point": "151 °C @ Press: 768 Torr",
        "Density": "0.830 g/cm³ @ Temp: 15 °C"
    }
}