{
    "cas_no": "3566-10-7",
    "key_name": "Amobam",
    "cn_name": "代森铵;1,2-亚乙基双二硫代氨基甲酸二铵盐;亚乙基双(二硫代氨基甲酸铵);代森铵水溶液;亚乙基双二硫代氨基甲;",
    "alternate_name": "Carbamodithioic acid, <em>N</em>,<em>N</em>′-1,2-ethanediylbis-, ammonium salt (1:2);Carbamic acid, ethylenebis[dithio-, diammonium salt;Carbamodithioic acid, 1,2-ethanediylbis-, diammonium salt;Amobam;Ammonium ethylenebis(dithiocarbamate);Diammonium ethylenebis[dithiocarbamate];Dithane stainless;Ambis;Ethylene-1,2-bis(ammonium dithiocarbamate);Ammonium 1,2-ethanebis(dithiocarbamate);Ambam",
    "duplicated_cas_no": "",
    "SMILES": "C(CNC(=S)S)NC(=S)S.N",
    "meta_data": {
        "InChI": "InChI=1S/C4H8N2S4.2H3N/c7-3(8)5-1-2-6-4(9)10;;/h1-2H2,(H2,5,7,8)(H2,6,9,10);2*1H3",
        "InChIKey": null,
        "Canonical SMILES": "S=C(S)NCCNC(=S)S.N",
        "Molecular Formula": "C<sub>4</sub>H<sub>8</sub>N<sub>2</sub>S<sub>4</sub>.2H<sub>3</sub>N",
        "Molecular Mass": "",
        "Melting Point": "185 °C"
    }
}