{
    "cas_no": "10045-86-0",
    "key_name": "Ferric phosphate",
    "cn_name": "磷酸高铁;",
    "alternate_name": "Phosphoric acid, iron(3+) salt (1:1);Iron phosphate (FePO<sub>4</sub>);Ferric phosphate;Ferric orthophosphate;Iron phosphate;Iron(III) phosphate;Escargo!;Sluggo;Iron orthophosphate;Ferramol",
    "duplicated_cas_no": "58782-48-2;150070-02-3",
    "SMILES": "P(=O)(O)(O)O.[Fe]",
    "meta_data": {
        "InChI": "InChI=1S/Fe.H3O4P/c;1-5(2,3)4/h;(H3,1,2,3,4)",
        "InChIKey": null,
        "Canonical SMILES": "[Fe].O=P(O)(O)O",
        "Molecular Formula": "Fe.H<sub>3</sub>O<sub>4</sub>P",
        "Molecular Mass": "",
        "Melting Point": "1000 °C"
    }
}