{
    "cas_no": "624-72-6",
    "key_name": "1,2-Difluoroethane",
    "cn_name": null,
    "alternate_name": "Ethane, 1,2-difluoro-;Freon 152;1,2-Difluoroethane;HFC 152;R 152 (refrigerant);R 152;HCFC 152",
    "duplicated_cas_no": "",
    "SMILES": "C(CF)F",
    "meta_data": {
        "InChI": "InChI=1S/C2H4F2/c3-1-2-4/h1-2H2",
        "InChIKey": null,
        "Canonical SMILES": "FCCF",
        "Molecular Formula": "C<sub>2</sub>H<sub>4</sub>F<sub>2</sub>",
        "Molecular Mass": "66.05",
        "Boiling Point": "30.7 °C",
        "Density": "1.024 g/cm³ @ Temp: 10 °C"
    }
}