{
    "cas_no": "34040-64-7",
    "key_name": "Methyl 4-(chloromethyl)benzoate",
    "cn_name": "4-氯甲基苯甲酸甲酯;",
    "alternate_name": "Benzoic acid, 4-(chloromethyl)-, methyl ester;<em>p</em>-Toluic acid, α-chloro-, methyl ester;<em>p</em>-(Methoxycarbonyl)benzyl chloride;Methyl 4-(chloromethyl)benzoate;Methyl <em>p</em>-(chloromethyl)benzoate;Methyl α-chloro-<em>p</em>-toluate;4-(Chloromethyl)benzoic acid methyl ester;<em>p</em>-Carbomethoxybenzyl chloride;4-Methoxycarbonylbenzyl chloride",
    "duplicated_cas_no": "",
    "SMILES": "C(OC)(=O)C1=CC=C(CCl)C=C1",
    "meta_data": {
        "InChI": "InChI=1S/C9H9ClO2/c1-12-9(11)8-4-2-7(6-10)3-5-8/h2-5H,6H2,1H3",
        "InChIKey": null,
        "Canonical SMILES": "O=C(OC)C1=CC=C(C=C1)CCl",
        "Molecular Formula": "C<sub>9</sub>H<sub>9</sub>ClO<sub>2</sub>",
        "Molecular Mass": "184.62",
        "Boiling Point": "160-165 °C @ Press: 30 Torr",
        "Melting Point": "39-40 °C"
    }
}