{
    "cas_no": "15805-10-4",
    "key_name": "6,6′-Methylenebis[1<em>H</em>-benzotriazole]",
    "cn_name": "5,5\"-亚甲基双(1H-苯并三唑);",
    "alternate_name": "1<em>H</em>-Benzotriazole, 6,6′-methylenebis-;1<em>H</em>-Benzotriazole, 5,5′-methylenebis-;6,6′-Methylenebis[1<em>H</em>-benzotriazole];5,5′-Methylenebis(benzotriazole)",
    "duplicated_cas_no": "",
    "SMILES": "C(C=1C=C2C(=CC1)NN=N2)C=3C=C4C(=CC3)N=NN4",
    "meta_data": {
        "InChI": "InChI=1S/C13H10N6/c1-3-10-12(16-18-14-10)6-8(1)5-9-2-4-11-13(7-9)17-19-15-11/h1-4,6-7H,5H2,(H,14,16,18)(H,15,17,19)",
        "InChIKey": null,
        "Canonical SMILES": "N1=NC=2C=CC(=CC2N1)CC=3C=CC=4NN=NC4C3",
        "Molecular Formula": "C<sub>13</sub>H<sub>10</sub>N<sub>6</sub>",
        "Molecular Mass": "250.26",
        "Melting Point": "238-240 °C"
    }
}