{
    "cas_no": "7089-68-1",
    "key_name": "2-Chloro-1,10-phenanthroline",
    "cn_name": "2-氯-1,10-菲咯啉;2-氯-1,10-菲罗啉;",
    "alternate_name": "1,10-Phenanthroline, 2-chloro-;2-Chloro-1,10-phenanthroline;2-Chloro-1,10-diazaphenanthrene;VUF 7730",
    "duplicated_cas_no": "",
    "SMILES": "ClC1=NC2=C3C(=CC=C2C=C1)C=CC=N3",
    "meta_data": {
        "InChI": "InChI=1S/C12H7ClN2/c13-10-6-5-9-4-3-8-2-1-7-14-11(8)12(9)15-10/h1-7H",
        "InChIKey": null,
        "Canonical SMILES": "ClC1=NC2=C(C=C1)C=CC3=CC=CN=C32",
        "Molecular Formula": "C<sub>12</sub>H<sub>7</sub>ClN<sub>2</sub>",
        "Molecular Mass": "214.65",
        "Melting Point": "151 °C"
    }
}