{
    "cas_no": "140-89-6",
    "key_name": "Potassium ethylxanthate",
    "cn_name": "乙基黄原酸钾;O-乙基二硫代碳酸酯钾盐;",
    "alternate_name": "Carbonodithioic acid, <em>O</em>-ethyl ester, potassium salt (1:1);Carbonic acid, dithio-, <em>O</em>-ethyl ester, potassium salt;Carbonodithioic acid, <em>O</em>-ethyl ester, potassium salt;Z 3;Ethylxanthic acid potassium salt;Potassium ethylxanthate;Potassium ethylxanthogenate;Ethyl potassium xanthogenate;Potassium <em>O</em>-ethyl dithiocarbonate;Potassium xanthogenate;Ethyl potassium xanthate;Potassium xanthate;Z 3 (pesticide);<em>O</em>-Ethyl potassium dithiocarbonate;(<em>O</em>-Ethyl dithiocarbonato)potassium;<em>O</em>-Ethyl dithiocarbonate potassium salt;Potassium <em>O</em>-ethyl carbonodithioate;KEX;Dithiocarbonic acid <em>O</em>-ethyl ester potassium salt;BKs;BKs (flotation agent);Ethoxymethanedithioic acid potassium",
    "duplicated_cas_no": "108915-13-5;1117818-50-4;2407556-66-3",
    "SMILES": "O(C(=S)S)CC.[K]",
    "meta_data": {
        "InChI": "InChI=1S/C3H6OS2.K/c1-2-4-3(5)6;/h2H2,1H3,(H,5,6);",
        "InChIKey": null,
        "Canonical SMILES": "[K].S=C(S)OCC",
        "Molecular Formula": "C<sub>3</sub>H<sub>6</sub>OS<sub>2</sub>.K",
        "Molecular Mass": "",
        "Melting Point": "210 °C (decomp)"
    }
}