{
    "cas_no": "67446-07-5",
    "key_name": "(<em>Z</em>)-5-Decenyl acetate",
    "cn_name": null,
    "alternate_name": "5-Decen-1-ol, 1-acetate, (5<em>Z</em>)-;5-Decen-1-ol, acetate, (<em>Z</em>)-;5-Decen-1-ol, acetate, (5<em>Z</em>)-;(<em>Z</em>)-5-Decenyl acetate;<em>cis</em>-5-Decenyl acetate;(<em>Z</em>)-5-Decen-1-ol acetate;<em>cis</em>-5-Decen-1-ol acetate;(<em>Z</em>)-5-Decen-1-yl acetate;(5<em>Z</em>)-5-Decen-1-ol acetate",
    "duplicated_cas_no": "90678-35-6",
    "SMILES": "C(CC/C=C\\CCCC)COC(C)=O",
    "meta_data": {
        "InChI": "InChI=1S/C12H22O2/c1-3-4-5-6-7-8-9-10-11-14-12(2)13/h6-7H,3-5,8-11H2,1-2H3/b7-6-",
        "InChIKey": null,
        "Canonical SMILES": "O=C(OCCCCC=CCCCC)C",
        "Molecular Formula": "C<sub>12</sub>H<sub>22</sub>O<sub>2</sub>",
        "Molecular Mass": "198.30",
        "Boiling Point": "100-101 °C @ Press: 7 Torr"
    }
}