{
    "cas_no": "97-63-2",
    "key_name": "Ethyl methacrylate",
    "cn_name": "甲基丙烯酸乙酯;",
    "alternate_name": "2-Propenoic acid, 2-methyl-, ethyl ester;Methacrylic acid, ethyl ester;Ethyl methacrylate;Ethyl 2-methylacrylate;Ethyl 2-methyl-2-propenoate;Ethyl 2-methylpropenoate;Ethyl α-methylacrylate;Acryester E;NSC 24152;2-Methylacrylic acid ethyl ester;EMA;Light Ester E;8845MBL",
    "duplicated_cas_no": "",
    "SMILES": "C(OCC)(C(C)=C)=O",
    "meta_data": {
        "InChI": "InChI=1S/C6H10O2/c1-4-8-6(7)5(2)3/h2,4H2,1,3H3",
        "InChIKey": null,
        "Canonical SMILES": "O=C(OCC)C(=C)C",
        "Molecular Formula": "C<sub>6</sub>H<sub>10</sub>O<sub>2</sub>",
        "Molecular Mass": "114.14",
        "Boiling Point": "117 °C @ Press: 760 Torr",
        "Melting Point": "&gt;-75 °C",
        "Density": "0.9135 g/cm³ @ Temp: 20 °C"
    }
}