{
    "cas_no": "3970-13-6",
    "key_name": "[[(Chloromethyl)thio]methyl]benzene",
    "cn_name": "苄氯甲基硫醚;",
    "alternate_name": "Benzene, [[(chloromethyl)thio]methyl]-;Sulfide, benzyl chloromethyl;[[(Chloromethyl)thio]methyl]benzene;Benzyl chloromethyl sulfide;Chloromethyl benzyl sulfide;Benzylthiomethyl chloride;NSC 266050",
    "duplicated_cas_no": "",
    "SMILES": "C(SCCl)C1=CC=CC=C1",
    "meta_data": {
        "InChI": "InChI=1S/C8H9ClS/c9-7-10-6-8-4-2-1-3-5-8/h1-5H,6-7H2",
        "InChIKey": null,
        "Canonical SMILES": "ClCSCC=1C=CC=CC1",
        "Molecular Formula": "C<sub>8</sub>H<sub>9</sub>ClS",
        "Molecular Mass": "172.68",
        "Boiling Point": "136-139 °C @ Press: 25 Torr",
        "Density": "1.1907 g/cm³ @ Temp: 20 °C"
    }
}