{
    "cas_no": "119-43-7",
    "key_name": "Ethyl α-ethylbenzeneacetate",
    "cn_name": "2-乙基-苯乙酸乙酯;",
    "alternate_name": "Benzeneacetic acid, α-ethyl-, ethyl ester;Butyric acid, 2-phenyl-, ethyl ester;Ethyl α-ethylbenzeneacetate;Ethyl 2-phenylbutyrate;Ethyl α-phenylbutyrate;Ethyl 2-phenylbutanoate;(±)-Ethyl 2-phenylbutanoate;NSC 30680",
    "duplicated_cas_no": "88197-27-7",
    "SMILES": "C(C(OCC)=O)(CC)C1=CC=CC=C1",
    "meta_data": {
        "InChI": "InChI=1S/C12H16O2/c1-3-11(12(13)14-4-2)10-8-6-5-7-9-10/h5-9,11H,3-4H2,1-2H3",
        "InChIKey": null,
        "Canonical SMILES": "O=C(OCC)C(C=1C=CC=CC1)CC",
        "Molecular Formula": "C<sub>12</sub>H<sub>16</sub>O<sub>2</sub>",
        "Molecular Mass": "192.25",
        "Boiling Point": "111 °C @ Press: 4 Torr",
        "Density": "0.996 g/cm³ @ Temp: 45 °C"
    }
}