{
    "cas_no": "103-14-0",
    "key_name": "4-(Benzylamino)phenol",
    "cn_name": "4-(苯甲基氨基)苯酚;对苄氨基苯酚;",
    "alternate_name": "Phenol, 4-[(phenylmethyl)amino]-;Phenol, <em>p</em>-(benzylamino)-;4-[(Phenylmethyl)amino]phenol;<em>N</em>-Benzyl-<em>p</em>-aminophenol;<em>p</em>-(Benzylamino)phenol;4-(Benzylamino)phenol;4-<em>N</em>-Benzylaminophenol;<em>N</em>-Benzyl-4-hydroxyaniline;<em>N</em>-Benzyl-4-aminophenol;<em>N</em>-(4-Hydroxyphenyl)benzylamine;<em>p</em>-(<em>N</em>-benzylamino)phenol;Benzyl(4-hydroxyphenyl)amine",
    "duplicated_cas_no": "",
    "SMILES": "N(CC1=CC=CC=C1)C2=CC=C(O)C=C2",
    "meta_data": {
        "InChI": "InChI=1S/C13H13NO/c15-13-8-6-12(7-9-13)14-10-11-4-2-1-3-5-11/h1-9,14-15H,10H2",
        "InChIKey": null,
        "Canonical SMILES": "OC1=CC=C(C=C1)NCC=2C=CC=CC2",
        "Molecular Formula": "C<sub>13</sub>H<sub>13</sub>NO",
        "Molecular Mass": "199.25",
        "Melting Point": "91-93 °C (decomp)"
    }
}