{
    "cas_no": "1018-71-9",
    "key_name": "Pyrrolnitrin",
    "cn_name": "硝吡咯菌素;硝吡咯菌素;",
    "alternate_name": "1<em>H</em>-Pyrrole, 3-chloro-4-(3-chloro-2-nitrophenyl)-;Pyrrole, 3-chloro-4-(3-chloro-2-nitrophenyl)-;3-Chloro-4-(3-chloro-2-nitrophenyl)-1<em>H</em>-pyrrole;3-Chloro-4-(3-chloro-2-nitrophenyl)pyrrole;Pyrrolnitrin;Pyrrolnitrine;Pyroace;NSC 107654;PN;NSC 637277;3-Chloro-4-(3′-chloro-2′-nitrophenyl)pyrrole",
    "duplicated_cas_no": "",
    "SMILES": "N(=O)(=O)C1=C(C=CC=C1Cl)C=2C(Cl)=CNC2",
    "meta_data": {
        "InChI": "InChI=1S/C10H6Cl2N2O2/c11-8-3-1-2-6(10(8)14(15)16)7-4-13-5-9(7)12/h1-5,13H",
        "InChIKey": null,
        "Canonical SMILES": "O=N(=O)C=1C(Cl)=CC=CC1C2=CNC=C2Cl",
        "Molecular Formula": "C<sub>10</sub>H<sub>6</sub>Cl<sub>2</sub>N<sub>2</sub>O<sub>2</sub>",
        "Molecular Mass": "257.07",
        "Melting Point": "124.5 °C"
    }
}