{
    "cas_no": "535-15-9",
    "key_name": "Ethyl dichloroacetate",
    "cn_name": "二氯乙酸乙酯;二氯醋酸乙酯;",
    "alternate_name": "Acetic acid, 2,2-dichloro-, ethyl ester;Acetic acid, dichloro-, ethyl ester;Ethyl dichloroacetate;Dichloroacetic acid ethyl ester;Ethyl 2,2-dichloroacetate;NSC 27788;NSC 6748",
    "duplicated_cas_no": "",
    "SMILES": "C(OCC)(C(Cl)Cl)=O",
    "meta_data": {
        "InChI": "InChI=1S/C4H6Cl2O2/c1-2-8-4(7)3(5)6/h3H,2H2,1H3",
        "InChIKey": null,
        "Canonical SMILES": "O=C(OCC)C(Cl)Cl",
        "Molecular Formula": "C<sub>4</sub>H<sub>6</sub>Cl<sub>2</sub>O<sub>2</sub>",
        "Molecular Mass": "157.00",
        "Boiling Point": "155 °C",
        "Density": "1.238 g/cm³ @ Temp: 21 °C"
    }
}