{
    "cas_no": "80-46-6",
    "key_name": "4-<em>tert</em>-Pentylphenol",
    "cn_name": "对叔戊基苯酚;",
    "alternate_name": "Phenol, 4-(1,1-dimethylpropyl)-;Phenol, <em>p</em>-<em>tert</em>-pentyl-;Phenol, <em>p</em>-(1,1-dimethylpropyl)-;4-(1,1-Dimethylpropyl)phenol;Amilfenol;<em>p</em>-<em>tert</em>-Amylphenol;4-<em>tert</em>-Amylphenol;<em>p</em>-(α,α-Dimethylpropyl)phenol;<em>p</em>-<em>tert</em>-Pentylphenol;4-<em>tert</em>-Pentylphenol;4-<em>t</em>-Amylphenol;<em>p</em>-(1,1-Dimethylpropyl)phenol;4-<em>t</em>-Pentylphenol;NSC 403672;NSC 4965;BirexSE;4-(2-Methylbutan-2-yl)phenol;4-Tertamyl phenol",
    "duplicated_cas_no": "",
    "SMILES": "C(CC)(C)(C)C1=CC=C(O)C=C1",
    "meta_data": {
        "InChI": "InChI=1S/C11H16O/c1-4-11(2,3)9-5-7-10(12)8-6-9/h5-8,12H,4H2,1-3H3",
        "InChIKey": null,
        "Canonical SMILES": "OC1=CC=C(C=C1)C(C)(C)CC",
        "Molecular Formula": "C<sub>11</sub>H<sub>16</sub>O",
        "Molecular Mass": "164.24",
        "Boiling Point": "262.5 °C",
        "Melting Point": "94-95 °C",
        "Density": "0.962 g/cm³ @ Temp: 20 °C"
    }
}