{
    "cas_no": "564-94-3",
    "key_name": "(±)-Myrtenal",
    "cn_name": null,
    "alternate_name": "Bicyclo[3.1.1]hept-2-ene-2-carboxaldehyde, 6,6-dimethyl-;2-Norpinene-2-carboxaldehyde, 6,6-dimethyl-;6,6-Dimethylbicyclo[3.1.1]hept-2-ene-2-carboxaldehyde;Myrtenal;(±)-Myrtenal;NSC 54384;6,6-Dimethyl-2-norpinene-2-carboxaldehyde;Benihinal",
    "duplicated_cas_no": "57526-63-3",
    "SMILES": "CC1(C)C2C(C=O)=CCC1C2",
    "meta_data": {
        "InChI": "InChI=1S/C10H14O/c1-10(2)8-4-3-7(6-11)9(10)5-8/h3,6,8-9H,4-5H2,1-2H3",
        "InChIKey": null,
        "Canonical SMILES": "O=CC1=CCC2CC1C2(C)C",
        "Molecular Formula": "C<sub>10</sub>H<sub>14</sub>O",
        "Molecular Mass": "150.22",
        "Boiling Point": "220.5 °C",
        "Melting Point": "53-54 °C",
        "Density": "0.9969 g/cm³ @ Temp: 0 °C"
    }
}