{
    "cas_no": "67990-66-3",
    "key_name": "<em>N</em>-(2-Amino-4-chlorophenyl)anthranilic acid",
    "cn_name": null,
    "alternate_name": "Benzoic acid, 2-[(2-amino-4-chlorophenyl)amino]-;Anthranilic acid, <em>N</em>-(2-amino-4-chlorophenyl)-;2-[(2-Amino-4-chlorophenyl)amino]benzoic acid;<em>N</em>-(2-Amino-4-chlorophenyl)anthranilic acid;2-(2-Amino-4-chloroanilino)benzoic acid",
    "duplicated_cas_no": "",
    "SMILES": "N(C1=C(C(O)=O)C=CC=C1)C2=C(N)C=C(Cl)C=C2",
    "meta_data": {
        "InChI": "InChI=1S/C13H11ClN2O2/c14-8-5-6-12(10(15)7-8)16-11-4-2-1-3-9(11)13(17)18/h1-7,16H,15H2,(H,17,18)",
        "InChIKey": null,
        "Canonical SMILES": "O=C(O)C=1C=CC=CC1NC2=CC=C(Cl)C=C2N",
        "Molecular Formula": "C<sub>13</sub>H<sub>11</sub>ClN<sub>2</sub>O<sub>2</sub>",
        "Molecular Mass": "262.69",
        "Melting Point": "190-195 °C"
    }
}