{
    "cas_no": "145038-53-5",
    "key_name": "4-Methyl hydrogen <em>N</em>-[(9<em>H</em>-fluoren-9-ylmethoxy)carbonyl]-<span class=\"text-smallcaps\">L</span>-aspartate",
    "cn_name": null,
    "alternate_name": "<span class=\"text-smallcaps\">L</span>-Aspartic acid, <em>N</em>-[(9<em>H</em>-fluoren-9-ylmethoxy)carbonyl]-, 4-methyl ester;4-Methyl hydrogen <em>N</em>-[(9<em>H</em>-fluoren-9-ylmethoxy)carbonyl]-<span class=\"text-smallcaps\">L</span>-aspartate;<em>N</em>-9-Fluorenylmethoxycarbonylaspartic acid β-methyl ester;(<em>S</em>)-2-((((9<em>H</em>-Fluoren-9-yl)methoxy)carbonyl)amino]-4-methoxy-4-oxobutanoic acid;(2S)-2-([[(9<em>H</em>-Fluoren-9-yl)methoxy]carbonyl]amino)-4-methoxy-4-oxobutanoic acid;(2S)-2-[[(9<em>H</em>-Fluoren-9-ylmethoxy)carbonyl]amino]-4-methoxy-4-oxobutanoic acid",
    "duplicated_cas_no": "",
    "SMILES": "C(OC(N[C@@H](CC(OC)=O)C(O)=O)=O)C1C=2C(C=3C1=CC=CC3)=CC=CC2",
    "meta_data": {
        "InChI": "InChI=1S/C20H19NO6/c1-26-18(22)10-17(19(23)24)21-20(25)27-11-16-14-8-4-2-6-12(14)13-7-3-5-9-15(13)16/h2-9,16-17H,10-11H2,1H3,(H,21,25)(H,23,24)/t17-/m0/s1",
        "InChIKey": null,
        "Canonical SMILES": "O=C(OCC1C=2C=CC=CC2C=3C=CC=CC31)NC(C(=O)O)CC(=O)OC",
        "Molecular Formula": "C<sub>20</sub>H<sub>19</sub>NO<sub>6</sub>",
        "Molecular Mass": "369.37",
        "Melting Point": "122-125 °C"
    }
}