{
    "cas_no": "20577-27-9",
    "key_name": "3-Cyano-2-pyridone",
    "cn_name": null,
    "alternate_name": "3-Pyridinecarbonitrile, 1,2-dihydro-2-oxo-;Nicotinonitrile, 1,2-dihydro-2-oxo-;1,2-Dihydro-2-oxo-3-pyridinecarbonitrile;2-Hydroxy-3-cyanopyridine;3-Cyano-2-pyridone;3-Cyano-2-pyridinol;2-Hydroxynicotinonitrile;3-Cyano-2-hydroxypyridine;2-Oxo-1,2-dihydro-3-pyridinecarbonitrile;2-Hydroxypyridine-3-carbonitrile;3-Cyano-2(1<em>H</em>)-pyridinone;2-Oxo-1<em>H</em>-pyridine-3-carbonitrile",
    "duplicated_cas_no": "5657-63-6",
    "SMILES": "C(#N)C=1C(=O)NC=CC1",
    "meta_data": {
        "InChI": "InChI=1S/C6H4N2O/c7-4-5-2-1-3-8-6(5)9/h1-3H,(H,8,9)",
        "InChIKey": null,
        "Canonical SMILES": "N#CC1=CC=CNC1=O",
        "Molecular Formula": "C<sub>6</sub>H<sub>4</sub>N<sub>2</sub>O",
        "Molecular Mass": "120.11",
        "Melting Point": "225-226 °C"
    }
}