{
    "cas_no": "3044-06-2",
    "key_name": "1,3-Diethyl 2-(1-ethoxyethylidene)propanedioate",
    "cn_name": null,
    "alternate_name": "Propanedioic acid, 2-(1-ethoxyethylidene)-, 1,3-diethyl ester;Malonic acid, (1-ethoxyethylidene)-, diethyl ester;Propanedioic acid, (1-ethoxyethylidene)-, diethyl ester;1,3-Diethyl 2-(1-ethoxyethylidene)propanedioate;Diethyl (1-ethoxyethylidene)malonate;NSC 233875;(1-Ethoxyethylidene)propanedioic acid diethyl ester;Diethyl 2-(1-ethoxyethylidene)malonate;3-Ethoxy-2-ethoxycarbonyl-2-butenoic acid ethyl ester",
    "duplicated_cas_no": "",
    "SMILES": "C(=C(OCC)C)(C(OCC)=O)C(OCC)=O",
    "meta_data": {
        "InChI": "InChI=1S/C11H18O5/c1-5-14-8(4)9(10(12)15-6-2)11(13)16-7-3/h5-7H2,1-4H3",
        "InChIKey": null,
        "Canonical SMILES": "O=C(OCC)C(C(=O)OCC)=C(OCC)C",
        "Molecular Formula": "C<sub>11</sub>H<sub>18</sub>O<sub>5</sub>",
        "Molecular Mass": "230.26",
        "Boiling Point": "123-128 °C @ Press: 3 Torr",
        "Melting Point": "26-27 °C",
        "Density": "1.068 g/cm³ @ Temp: 25 °C"
    }
}