{
    "cas_no": "18984-21-9",
    "key_name": "2,4-Dichloro-1-(2-nitroethenyl)benzene",
    "cn_name": "腺苷酸;腺苷一磷酸;2,4-二氯-BETA-硝基苯乙烯;",
    "alternate_name": "Benzene, 2,4-dichloro-1-(2-nitroethenyl)-;Styrene, 2,4-dichloro-β-nitro-;2,4-Dichloro-1-(2-nitroethenyl)benzene;2,4-Dichloro-β-nitrostyrene;NSC 81882;2,4-Dichloro-1-(2-nitrovinyl)benzene;1,3-Dichloro-4-(2-nitroethenyl)benzene",
    "duplicated_cas_no": "",
    "SMILES": "C(=CN(=O)=O)C1=C(Cl)C=C(Cl)C=C1",
    "meta_data": {
        "InChI": "InChI=1S/C8H5Cl2NO2/c9-7-2-1-6(8(10)5-7)3-4-11(12)13/h1-5H",
        "InChIKey": null,
        "Canonical SMILES": "O=N(=O)C=CC1=CC=C(Cl)C=C1Cl",
        "Molecular Formula": "C<sub>8</sub>H<sub>5</sub>Cl<sub>2</sub>NO<sub>2</sub>",
        "Molecular Mass": "218.04",
        "Melting Point": "110 °C"
    }
}