{
    "cas_no": "57-94-3",
    "key_name": "Tubocurarine",
    "cn_name": "氯化管箭毒碱;氯化筒箭毒碱;D-筒箭毒碱氯化物;氯化D-筒箭毒碱;氯化箭毒块茎碱;氯化南美防已碱;氢氯化吐巴口;",
    "alternate_name": "13<em>H</em>-4,6:21,24-Dietheno-8,12-metheno-1<em>H</em>-pyrido[3′,2′:14,15][1,11]dioxacycloeicosino[2,3,4-<em>ij</em>]isoquinolinium, 2,3,13a,14,15,16,25,25a-octahydro-9,19-dihydroxy-18,29-dimethoxy-1,14,14-trimethyl-, chloride, hydrochloride (1:1:1), (13a<em>R</em>,25a<em>S</em>)-;Tubocurarine, chloride, hydrochloride, (+)-;Tubocuraranium, 7′,12′-dihydroxy-6,6′-dimethoxy-2,2′,2′-trimethyl-, chloride, hydrochloride;13<em>H</em>-4,6:21,24-Dietheno-8,12-metheno-1<em>H</em>-pyrido[3′,2′:14,15][1,11]dioxacycloeicosino[2,3,4-<em>ij</em>]isoquinolinium, 2,3,13a,14,15,16,25,25a-octahydro-9,19-dihydroxy-18,29-dimethoxy-1,14,14-trimethyl-, chloride, hydrochloride, (13a<em>R</em>,25a<em>S</em>)-;13<em>H</em>-4,6:21,24-Dietheno-8,12-metheno-1<em>H</em>-pyrido[3′,2′:14,15][1,11]dioxacycloeicosino[2,3,4-<em>ij</em>]isoquinoline, tubocuraranium deriv.;Amerizol;<em>d</em>-Paracurarine chloride;Tubarine;(+)-Tubocurarine chloride;<em>d</em>-Tubocurarine chloride;<em>d</em>-Tubocurarine dichloride;Delacurarine;Tubadil;Tubocurarine chloride;Dextrotubocurarine chloride;<em>d</em>-Tubocurarine hydrochloride;Tubocurarine hydrochloride;(+)-Tubocurarine hydrochloride;Tubocurarine;Intocostrine T;Amelizol;(+)-Tubocurarine dichloride;<em>d</em>-Tubocurarine;<span class=\"text-smallcaps\">D</span>-Tubocurarine;13<em>H</em>-4,6:21,24-Dietheno-8,12-metheno-1<em>H</em>-pyrido[3′,2′:14,15][1,11]dioxacycloeicosino[2,3,4-<em>ij</em>]isoquinolinium, 2,3,13a,14,15,16,25,25a-octahydro-9,19-dihydroxy-18,29-dimethoxy-1,14,14-trimethyl-, chloride, hydrochloride, [13a<em>R</em>-(13a<em>R</em>*,25a<em>S</em>*)]-;<em>d</em>-(+)-Tubocurarine chloride;Curarin HAF;Introcostrin",
    "duplicated_cas_no": "303-11-7;1406-69-5;29132-50-1;64780-74-1",
    "SMILES": "OC1=C2C=3[C@@](CC=4C=C(OC=5C=C6[C@](CC=7C=CC(O2)=CC7)(N(C)CCC6=CC5OC)[H])C(O)=CC4)([N+](C)(C)CCC3C=C1OC)[H].[Cl-].Cl",
    "meta_data": {
        "InChI": "InChI=1S/C37H40N2O6.2ClH/c1-38-14-12-24-19-32(42-4)33-21-27(24)28(38)16-22-6-9-26(10-7-22)44-37-35-25(20-34(43-5)36(37)41)13-15-39(2,3)29(35)17-23-8-11-30(40)31(18-23)45-33;;/h6-11,18-21,28-29H,12-17H2,1-5H3,(H-,40,41);2*1H/t28-,29+;;/m0../s1",
        "InChIKey": null,
        "Canonical SMILES": "[Cl-].Cl.OC1=CC=C2C=C1OC=3C=C4C(=CC3OC)CCN(C)C4CC5=CC=C(OC=6C(O)=C(OC)C=C7C6C(C2)[N+](C)(C)CC7)C=C5",
        "Molecular Formula": "C<sub>37</sub>H<sub>41</sub>N<sub>2</sub>O<sub>6</sub>.ClH.Cl",
        "Molecular Mass": "",
        "Melting Point": "270 °C (decomp)"
    }
}