{
    "cas_no": "369-35-7",
    "key_name": "2-Fluoro-4-nitrobenzenamine",
    "cn_name": "2-氟-4-硝基苯胺;邻氟对硝基苯胺;",
    "alternate_name": "Benzenamine, 2-fluoro-4-nitro-;Aniline, 2-fluoro-4-nitro-;2-Fluoro-4-nitrobenzenamine;2-Fluoro-4-nitroaniline;NSC 402982;(2-Fluoro-4-nitrophenyl)amine;4-Nitro-2-fluoroaniline",
    "duplicated_cas_no": "",
    "SMILES": "N(=O)(=O)C1=CC(F)=C(N)C=C1",
    "meta_data": {
        "InChI": "InChI=1S/C6H5FN2O2/c7-5-3-4(9(10)11)1-2-6(5)8/h1-3H,8H2",
        "InChIKey": null,
        "Canonical SMILES": "O=N(=O)C1=CC=C(N)C(F)=C1",
        "Molecular Formula": "C<sub>6</sub>H<sub>5</sub>FN<sub>2</sub>O<sub>2</sub>",
        "Molecular Mass": "156.11",
        "Melting Point": "135-136 °C"
    }
}