{
    "cas_no": "68-95-1",
    "key_name": "<em>N</em>-Acetyl-<span class=\"text-smallcaps\">L</span>-proline",
    "cn_name": "N-乙酰-L-脯氨酸;",
    "alternate_name": "<span class=\"text-smallcaps\">L</span>-Proline, 1-acetyl-;Proline, 1-acetyl-, <span class=\"text-smallcaps\">L</span>-;1-Acetyl-<span class=\"text-smallcaps\">L</span>-proline;1-Acetylproline;<em>N</em>-Acetylproline;<em>N</em>-Acetyl-<span class=\"text-smallcaps\">L</span>-proline;<span class=\"text-smallcaps\">L</span>-<em>N</em>-Acetylproline;(<em>S</em>)-<em>N</em>-Acetylproline;(<em>S</em>)-(-)-<em>N</em>-Acetylproline;NSC 280718;(<em>S</em>)-1-Acetylpyrrolidine-2-carboxylic acid;(2S)-1-Acetylpyrrolidine-2-carboxylic acid;(<em>S</em>)-AcetyLproline",
    "duplicated_cas_no": "",
    "SMILES": "C(O)(=O)[C@H]1N(C(C)=O)CCC1",
    "meta_data": {
        "InChI": "InChI=1S/C7H11NO3/c1-5(9)8-4-2-3-6(8)7(10)11/h6H,2-4H2,1H3,(H,10,11)/t6-/m0/s1",
        "InChIKey": null,
        "Canonical SMILES": "O=C(O)C1N(C(=O)C)CCC1",
        "Molecular Formula": "C<sub>7</sub>H<sub>11</sub>NO<sub>3</sub>",
        "Molecular Mass": "157.17",
        "Melting Point": "106 °C"
    }
}