{
    "cas_no": "17153-21-8",
    "key_name": "3-Methyl-5-phenylisoxazole-4-carboxylic acid",
    "cn_name": null,
    "alternate_name": "4-Isoxazolecarboxylic acid, 3-methyl-5-phenyl-;3-Methyl-5-phenyl-4-isoxazolecarboxylic acid;3-Methyl-5-phenylisoxazole-4-carboxylic acid;3-Methyl-5-phenyl-1,2-oxazole-4-carboxylic acid",
    "duplicated_cas_no": "",
    "SMILES": "C(O)(=O)C1=C(ON=C1C)C2=CC=CC=C2",
    "meta_data": {
        "InChI": "InChI=1S/C11H9NO3/c1-7-9(11(13)14)10(15-12-7)8-5-3-2-4-6-8/h2-6H,1H3,(H,13,14)",
        "InChIKey": null,
        "Canonical SMILES": "O=C(O)C1=C(ON=C1C)C=2C=CC=CC2",
        "Molecular Formula": "C<sub>11</sub>H<sub>9</sub>NO<sub>3</sub>",
        "Molecular Mass": "203.19",
        "Melting Point": "49-50 °C"
    }
}