{
    "cas_no": "90357-53-2",
    "key_name": "<em>N</em>-[4-Cyano-3-(trifluoromethyl)phenyl]-2-methylacrylamide",
    "cn_name": null,
    "alternate_name": "2-Propenamide, <em>N</em>-[4-cyano-3-(trifluoromethyl)phenyl]-2-methyl-;<em>N</em>-[4-Cyano-3-(trifluoromethyl)phenyl]-2-methyl-2-propenamide;<em>N</em>-[4-Cyano-3-(trifluoromethyl)phenyl]-2-methylacrylamide",
    "duplicated_cas_no": "",
    "SMILES": "C(F)(F)(F)C1=C(C#N)C=CC(NC(C(C)=C)=O)=C1",
    "meta_data": {
        "InChI": "InChI=1S/C12H9F3N2O/c1-7(2)11(18)17-9-4-3-8(6-16)10(5-9)12(13,14)15/h3-5H,1H2,2H3,(H,17,18)",
        "InChIKey": null,
        "Canonical SMILES": "N#CC1=CC=C(C=C1C(F)(F)F)NC(=O)C(=C)C",
        "Molecular Formula": "C<sub>12</sub>H<sub>9</sub>F<sub>3</sub>N<sub>2</sub>O",
        "Molecular Mass": "254.21",
        "Melting Point": "137-139 °C"
    }
}