{
    "cas_no": "5335-05-7",
    "key_name": "Methanol, 1-chloro-, 1-benzoate",
    "cn_name": "苯甲酸氯甲基;",
    "alternate_name": "Methanol, 1-chloro-, 1-benzoate;Methanol, chloro-, benzoate;Benzoic acid chloromethyl ester;Chloromethyl benzoate;Benzoyloxymethyl chloride;(Benzoyloxy)chloromethane;NSC 2876",
    "duplicated_cas_no": "",
    "SMILES": "C(OCCl)(=O)C1=CC=CC=C1",
    "meta_data": {
        "InChI": "InChI=1S/C8H7ClO2/c9-6-11-8(10)7-4-2-1-3-5-7/h1-5H,6H2",
        "InChIKey": null,
        "Canonical SMILES": "O=C(OCCl)C=1C=CC=CC1",
        "Molecular Formula": "C<sub>8</sub>H<sub>7</sub>ClO<sub>2</sub>",
        "Molecular Mass": "170.59",
        "Boiling Point": "114-115 °C @ Press: 8 Torr"
    }
}