{
    "cas_no": "1303-96-4",
    "key_name": "Borax (B<sub>4</sub>Na<sub>2</sub>O<sub>7</sub>.10H<sub>2</sub>O)",
    "cn_name": "硼砂;四硼酸钠(十水);",
    "alternate_name": "Borax (B<sub>4</sub>Na<sub>2</sub>O<sub>7</sub>.10H<sub>2</sub>O);Borax;Borascu;Borax decahydrate;Boricin;Gerstley borate;Sodium biborate decahydrate;Sodium pyroborate decahydrate;Sodium tetraborate decahydrate;Boric acid (H<sub>2</sub>B<sub>4</sub>O<sub>7</sub>), disodium salt, decahydrate;Disodium tetraborate decahydrate;Solubor;Bura;Boron sodium oxide (B<sub>4</sub>Na<sub>2</sub>O<sub>7</sub>), decahydrate;Sodium borate (Na<sub>2</sub>B<sub>4</sub>O<sub>7</sub>), decahydrate;Three Elephant;Tincal;Solubor DF;Sodium pyroborate;20 Mule Team Borax;20 Mule Team Borax Tech 4/200 Mesh;BR 100;BR 100 (borate);M 9358;Terro PCO;Dominant;Fullbor W6364",
    "duplicated_cas_no": "1344-90-7;12322-85-9;12447-40-4;61028-24-8;71377-02-1;910783-71-0;950582-60-2;1242163-03-6;1443500-22-8;1820039-99-3",
    "SMILES": "",
    "meta_data": {
        "InChI": "",
        "InChIKey": null,
        "Canonical SMILES": "",
        "Molecular Formula": "B<sub>4</sub>Na<sub>2</sub>O<sub>7</sub>.10H<sub>2</sub>O",
        "Molecular Mass": "",
        "Boiling Point": "320 °C",
        "Melting Point": "75 °C",
        "Density": "1.73 g/cm³"
    }
}