{
    "uri": "substance/pt/1303964",
    "rn": "1303-96-4",
    "name": "Borax (B<sub>4</sub>Na<sub>2</sub>O<sub>7</sub>.10H<sub>2</sub>O)",
    "images": [],
    "inchi": "",
    "inchiKey": "",
    "smile": "",
    "canonicalSmile": "",
    "molecularFormula": "B<sub>4</sub>Na<sub>2</sub>O<sub>7</sub>.10H<sub>2</sub>O",
    "molecularMass": "",
    "experimentalProperties": [
        {
            "name": "Boiling Point",
            "property": "320 °C",
            "sourceNumber": 1
        },
        {
            "name": "Melting Point",
            "property": "75 °C",
            "sourceNumber": 1
        },
        {
            "name": "Density",
            "property": "1.73 g/cm³",
            "sourceNumber": 2
        }
    ],
    "propertyCitations": [
        {
            "docUri": "",
            "sourceNumber": 1,
            "source": "International Chemical Safety Cards data were obtained from the National Institute for Occupational Safety and Health (US)"
        },
        {
            "docUri": "",
            "sourceNumber": 2,
            "source": "Hazardous Substances Data Bank data were obtained from the National Library of Medicine (US)"
        }
    ],
    "synonyms": [
        "Borax (B<sub>4</sub>Na<sub>2</sub>O<sub>7</sub>.10H<sub>2</sub>O)",
        "Borax",
        "Borascu",
        "Borax decahydrate",
        "Boricin",
        "Gerstley borate",
        "Sodium biborate decahydrate",
        "Sodium pyroborate decahydrate",
        "Sodium tetraborate decahydrate",
        "Boric acid (H<sub>2</sub>B<sub>4</sub>O<sub>7</sub>), disodium salt, decahydrate",
        "Disodium tetraborate decahydrate",
        "Solubor",
        "Bura",
        "Boron sodium oxide (B<sub>4</sub>Na<sub>2</sub>O<sub>7</sub>), decahydrate",
        "Sodium borate (Na<sub>2</sub>B<sub>4</sub>O<sub>7</sub>), decahydrate",
        "Three Elephant",
        "Tincal",
        "Solubor DF",
        "Sodium pyroborate",
        "20 Mule Team Borax",
        "20 Mule Team Borax Tech 4/200 Mesh",
        "BR 100",
        "BR 100 (borate)",
        "M 9358",
        "Terro PCO",
        "Dominant",
        "Fullbor W6364"
    ],
    "replacedRns": [
        "1344-90-7",
        "12322-85-9",
        "12447-40-4",
        "61028-24-8",
        "71377-02-1",
        "910783-71-0",
        "950582-60-2",
        "1242163-03-6",
        "1443500-22-8",
        "1820039-99-3"
    ],
    "hasMolfile": false,
    "source": "https://commonchemistry.cas.org/detail?cas_rn=1303-96-4"
}