{
    "cas_no": "365-26-4",
    "key_name": "(±)-Hydroxyephedrine",
    "cn_name": null,
    "alternate_name": "Benzenemethanol, 4-hydroxy-α-[(1<em>R</em>)-1-(methylamino)ethyl]-, (α<em>S</em>)-<em>rel</em>-;Benzyl alcohol, <em>p</em>-hydroxy-α-[1-(methylamino)ethyl]-;Benzenemethanol, 4-hydroxy-α-[1-(methylamino)ethyl]-, (<em>R</em>*,<em>S</em>*)-;Ephedrine, <em>p</em>-hydroxy-;<em>rel</em>-(α<em>S</em>)-4-Hydroxy-α-[(1<em>R</em>)-1-(methylamino)ethyl]benzenemethanol;<em>p</em>-Hydroxyephedrine;Methylsympatol;Suprifen;4-Hydroxyephedrine;Hydroxyephedrine;1-(4-Hydroxyphenyl)-1-hydroxy-2-methylaminopropane;Oxyephedrine;Supriphen;Oxilofrine;<em>dl</em>-<em>p</em>-Hydroxyephedrine;(±)-Hydroxyephedrine;(±)-<em>p</em>-Hydroxyephedrine;(±)-p-hydroxyephedrine;Methylsynephrine",
    "duplicated_cas_no": "33987-39-2;34597-44-9",
    "SMILES": "[C@H]([C@H](NC)C)(O)C1=CC=C(O)C=C1",
    "meta_data": {
        "InChI": "InChI=1/C10H15NO2/c1-7(11-2)10(13)8-3-5-9(12)6-4-8/h3-7,10-13H,1-2H3/t7-,10-/s2",
        "InChIKey": null,
        "Canonical SMILES": "OC1=CC=C(C=C1)C(O)C(NC)C",
        "Molecular Formula": "C<sub>10</sub>H<sub>15</sub>NO<sub>2</sub>",
        "Molecular Mass": "181.23",
        "Melting Point": "153 °C"
    }
}