{
    "cas_no": "53233-89-9",
    "key_name": "5-Chloro-2,3-dihydroxypyridine",
    "cn_name": "5-氯-2,3-二羟基吡啶;5-氯-2,3-吡啶二醇;",
    "alternate_name": "2(1<em>H</em>)-Pyridinone, 5-chloro-3-hydroxy-;5-Chloro-3-hydroxy-2(1<em>H</em>)-pyridinone;5-Chloro-2,3-dihydroxypyridine;5-Chloro-2,3-pyridinediol;NSC 137836",
    "duplicated_cas_no": "",
    "SMILES": "OC=1C(=O)NC=C(Cl)C1",
    "meta_data": {
        "InChI": "InChI=1S/C5H4ClNO2/c6-3-1-4(8)5(9)7-2-3/h1-2,8H,(H,7,9)",
        "InChIKey": null,
        "Canonical SMILES": "O=C1NC=C(Cl)C=C1O",
        "Molecular Formula": "C<sub>5</sub>H<sub>4</sub>ClNO<sub>2</sub>",
        "Molecular Mass": "145.54",
        "Melting Point": "290-295 °C"
    }
}