{
    "cas_no": "759-24-0",
    "key_name": "1,3-Diethyl 2-(1,1-dimethylethyl)propanedioate",
    "cn_name": "叔丁基丙二酸二乙酯;",
    "alternate_name": "Propanedioic acid, 2-(1,1-dimethylethyl)-, 1,3-diethyl ester;Malonic acid, <em>tert</em>-butyl-, diethyl ester;Propanedioic acid, (1,1-dimethylethyl)-, diethyl ester;1,3-Diethyl 2-(1,1-dimethylethyl)propanedioate;Diethyl (1,1-dimethylethyl)propanedioate;<em>tert</em>-Butylmalonic acid diethyl ester;Diethyl <em>tert</em>-butylmalonate;Diethyl tert-butylmalonate;NSC 5178;1,3-Diethyl 2-<em>tert</em>-butylpropanedioate",
    "duplicated_cas_no": "",
    "SMILES": "C(C(OCC)=O)(C(OCC)=O)C(C)(C)C",
    "meta_data": {
        "InChI": "InChI=1S/C11H20O4/c1-6-14-9(12)8(11(3,4)5)10(13)15-7-2/h8H,6-7H2,1-5H3",
        "InChIKey": null,
        "Canonical SMILES": "O=C(OCC)C(C(=O)OCC)C(C)(C)C",
        "Molecular Formula": "C<sub>11</sub>H<sub>20</sub>O<sub>4</sub>",
        "Molecular Mass": "216.27",
        "Boiling Point": "102-104 °C @ Press: 11 Torr"
    }
}