{
    "cas_no": "18402-22-7",
    "key_name": "Trichlorotetradecylsilane",
    "cn_name": "正十四烷基三氯硅烷;十四烷基三氯硅烷;N-十四烷基三氯硅烷;正十四烷基三氯硅烷,97%;",
    "alternate_name": "Silane, trichlorotetradecyl-;Trichlorotetradecylsilane;Tetradecyltrichlorosilane;NSC 136541;<em>n</em>-Tetradecyltrichlorosilane",
    "duplicated_cas_no": "",
    "SMILES": "C(CCCCCCCCCCC)CC[Si](Cl)(Cl)Cl",
    "meta_data": {
        "InChI": "InChI=1S/C14H29Cl3Si/c1-2-3-4-5-6-7-8-9-10-11-12-13-14-18(15,16)17/h2-14H2,1H3",
        "InChIKey": null,
        "Canonical SMILES": "Cl[Si](Cl)(Cl)CCCCCCCCCCCCCC",
        "Molecular Formula": "C<sub>14</sub>H<sub>29</sub>Cl<sub>3</sub>Si",
        "Molecular Mass": "331.82",
        "Boiling Point": "156 °C @ Press: 3 Torr"
    }
}