{
    "cas_no": "119170-52-4",
    "key_name": "Cassiaside C",
    "cn_name": null,
    "alternate_name": "1<em>H</em>-Naphtho[2,3-<em>c</em>]pyran-1-one, 9-[(6-<em>O</em>-β-<span class=\"text-smallcaps\">D</smallcap>-glucopyranosyl-β-<smallcap>D</span>-glucopyranosyl)oxy]-10-hydroxy-7-methoxy-3-methyl-;9-[(6-<em>O</em>-β-<span class=\"text-smallcaps\">D</smallcap>-Glucopyranosyl-β-<smallcap>D</span>-glucopyranosyl)oxy]-10-hydroxy-7-methoxy-3-methyl-1<em>H</em>-naphtho[2,3-<em>c</em>]pyran-1-one;Cassiaside C;Toralactone gentiobioside;Toralactone 9-<em>O</em>-β-<span class=\"text-smallcaps\">D</span>-gentiobioside;Toralactone-9-<em>O</em>-gentiobioside",
    "duplicated_cas_no": "",
    "SMILES": "O(C=1C2=C(C=C3C(=C2O)C(=O)OC(C)=C3)C=C(OC)C1)[C@@H]4O[C@H](CO[C@@H]5O[C@H](CO)[C@@H](O)[C@H](O)[C@H]5O)[C@@H](O)[C@H](O)[C@H]4O",
    "meta_data": {
        "InChI": "InChI=1S/C27H32O15/c1-9-3-10-4-11-5-12(37-2)6-13(16(11)20(31)17(10)25(36)39-9)40-27-24(35)22(33)19(30)15(42-27)8-38-26-23(34)21(32)18(29)14(7-28)41-26/h3-6,14-15,18-19,21-24,26-35H,7-8H2,1-2H3/t14-,15-,18-,19-,21+,22+,23-,24-,26-,27-/m1/s1",
        "InChIKey": null,
        "Canonical SMILES": "O=C1OC(=CC=2C=C3C=C(OC)C=C(OC4OC(COC5OC(CO)C(O)C(O)C5O)C(O)C(O)C4O)C3=C(O)C12)C",
        "Molecular Formula": "C<sub>27</sub>H<sub>32</sub>O<sub>15</sub>",
        "Molecular Mass": "596.53",
        "Melting Point": "235-237 °C"
    }
}