{
    "cas_no": "6940-49-4",
    "key_name": "3-Bromophthalide",
    "cn_name": "3-溴苯酞;",
    "alternate_name": "1(3<em>H</em>)-Isobenzofuranone, 3-bromo-;Phthalide, 3-bromo-;1(3<em>H</em>)-Isobenzofuranone, 3-bromo-, (±)-;3-Bromo-1(3<em>H</em>)-isobenzofuranone;Phthalidyl bromide;3-Bromophthalide;(±)-3-Bromophthalide;(±)-3-Bromo-1(3<em>H</em>)-isobenzofuranone;NSC 60137;3-Bromo-3<em>H</em>-isobenzofuran-1-one;3-Bromo-3<em>H</em>-2-benzofuran-1-one;3-Bromo-1,3-dihydro-2-benzofuran-1-one",
    "duplicated_cas_no": "75289-01-9",
    "SMILES": "BrC1C=2C(C(=O)O1)=CC=CC2",
    "meta_data": {
        "InChI": "InChI=1S/C8H5BrO2/c9-7-5-3-1-2-4-6(5)8(10)11-7/h1-4,7H",
        "InChIKey": null,
        "Canonical SMILES": "O=C1OC(Br)C=2C=CC=CC12",
        "Molecular Formula": "C<sub>8</sub>H<sub>5</sub>BrO<sub>2</sub>",
        "Molecular Mass": "213.03",
        "Boiling Point": "114-116 °C @ Press: 0.3 Torr",
        "Melting Point": "78 °C"
    }
}