{
    "cas_no": "912545-86-9",
    "key_name": "3-Chloro-<em>N</em>-[<em>trans</em>-4-(methylamino)cyclohexyl]-<em>N</em>-[[3-(4-pyridinyl)phenyl]methyl]benzo[<em>b</em>]thiophene-2-carboxamide",
    "cn_name": null,
    "alternate_name": "Benzo[<em>b</em>]thiophene-2-carboxamide, 3-chloro-<em>N</em>-[<em>trans</em>-4-(methylamino)cyclohexyl]-<em>N</em>-[[3-(4-pyridinyl)phenyl]methyl]-;3-Chloro-<em>N</em>-[<em>trans</em>-4-(methylamino)cyclohexyl]-<em>N</em>-[[3-(4-pyridinyl)phenyl]methyl]benzo[<em>b</em>]thiophene-2-carboxamide;SAG;SAG (cyclopamine antagonist);SAG (Smo agonist);Smoothened Agonist",
    "duplicated_cas_no": "",
    "SMILES": "N(C(=O)C1=C(Cl)C=2C(S1)=CC=CC2)(CC3=CC(=CC=C3)C=4C=CN=CC4)[C@@H]5CC[C@@H](NC)CC5",
    "meta_data": {
        "InChI": "InChI=1/C28H28ClN3OS/c1-30-22-9-11-23(12-10-22)32(28(33)27-26(29)24-7-2-3-8-25(24)34-27)18-19-5-4-6-21(17-19)20-13-15-31-16-14-20/h2-8,13-17,22-23,30H,9-12,18H2,1H3/t22-,23-",
        "InChIKey": null,
        "Canonical SMILES": "O=C(C=1SC=2C=CC=CC2C1Cl)N(CC3=CC=CC(=C3)C=4C=CN=CC4)C5CCC(NC)CC5",
        "Molecular Formula": "C<sub>28</sub>H<sub>28</sub>ClN<sub>3</sub>OS",
        "Molecular Mass": "490.06",
        "Melting Point": "109-111 °C"
    }
}