{
    "cas_no": "5551-11-1",
    "key_name": "4-Chloro-2-nitrobenzaldehyde",
    "cn_name": "4-氯-2-硝基苯甲醛;",
    "alternate_name": "Benzaldehyde, 4-chloro-2-nitro-;4-Chloro-2-nitrobenzaldehyde;2-Nitro-4-chlorobenzaldehyde",
    "duplicated_cas_no": "2130991-58-9",
    "SMILES": "N(=O)(=O)C1=C(C=O)C=CC(Cl)=C1",
    "meta_data": {
        "InChI": "InChI=1S/C7H4ClNO3/c8-6-2-1-5(4-10)7(3-6)9(11)12/h1-4H",
        "InChIKey": null,
        "Canonical SMILES": "O=CC1=CC=C(Cl)C=C1N(=O)=O",
        "Molecular Formula": "C<sub>7</sub>H<sub>4</sub>ClNO<sub>3</sub>",
        "Molecular Mass": "185.56",
        "Melting Point": "67-68 °C"
    }
}