{
    "cas_no": "81112-08-5",
    "key_name": "<em>N</em>-[4-(2-Chloro-1-oxopropyl)phenyl]acetamide",
    "cn_name": null,
    "alternate_name": "Acetamide, <em>N</em>-[4-(2-chloro-1-oxopropyl)phenyl]-;<em>N</em>-[4-(2-Chloro-1-oxopropyl)phenyl]acetamide;4-Acetamidophenyl 1-chloroethyl ketone;4-Acetamido-α-chloropropiophenone;1-(4-Acetamidophenyl)-2-chloro-1-propanone;NSC 281614;<em>N</em>-[4-(2-Chloropropanoyl)phenyl]acetamide",
    "duplicated_cas_no": "",
    "SMILES": "C(C(C)Cl)(=O)C1=CC=C(NC(C)=O)C=C1",
    "meta_data": {
        "InChI": "InChI=1S/C11H12ClNO2/c1-7(12)11(15)9-3-5-10(6-4-9)13-8(2)14/h3-7H,1-2H3,(H,13,14)",
        "InChIKey": null,
        "Canonical SMILES": "O=C(NC1=CC=C(C=C1)C(=O)C(Cl)C)C",
        "Molecular Formula": "C<sub>11</sub>H<sub>12</sub>ClNO<sub>2</sub>",
        "Molecular Mass": "225.67",
        "Melting Point": "119-120 °C"
    }
}