{
    "cas_no": "21416-43-3",
    "key_name": "(α<em>S</em>)-α-Amino-3,4-dihydro-2,4-dioxo-1(2<em>H</em>)-pyrimidinepropanoic acid",
    "cn_name": null,
    "alternate_name": "1(2<em>H</em>)-Pyrimidinepropanoic acid, α-amino-3,4-dihydro-2,4-dioxo-, (α<em>S</em>)-;1(2<em>H</em>)-Pyrimidinepropionic acid, α-amino-3,4-dihydro-2,4-dioxo-, (<em>S</em>)-;1(2<em>H</em>)-Pyrimidinepropanoic acid, α-amino-3,4-dihydro-2,4-dioxo-, (<em>S</em>)-;<span class=\"text-smallcaps\">L</span>-Willardiine;(α<em>S</em>)-α-Amino-3,4-dihydro-2,4-dioxo-1(2<em>H</em>)-pyrimidinepropanoic acid;Willardiine, (-)-;(-)-Willardiine;(<em>S</em>)-Willardiine;(2S)-2-Amino-3-(2,4-dioxo-1,2,3,4-tetrahydropyrimidin-1-yl)propanoic acid",
    "duplicated_cas_no": "532-39-8;3054-57-7;21664-44-8",
    "SMILES": "C([C@@H](C(O)=O)N)N1C(=O)NC(=O)C=C1",
    "meta_data": {
        "InChI": "InChI=1S/C7H9N3O4/c8-4(6(12)13)3-10-2-1-5(11)9-7(10)14/h1-2,4H,3,8H2,(H,12,13)(H,9,11,14)/t4-/m0/s1",
        "InChIKey": null,
        "Canonical SMILES": "O=C1C=CN(C(=O)N1)CC(N)C(=O)O",
        "Molecular Formula": "C<sub>7</sub>H<sub>9</sub>N<sub>3</sub>O<sub>4</sub>",
        "Molecular Mass": "199.16",
        "Melting Point": "204-205 °C"
    }
}