{
    "cas_no": "610-91-3",
    "key_name": "1,2,4-Trimethyl-5-nitrobenzene",
    "cn_name": "5-硝-1,2,4-三甲苯;",
    "alternate_name": "Benzene, 1,2,4-trimethyl-5-nitro-;1,2,4-Trimethyl-5-nitrobenzene;5-Nitro-1,2,4-trimethylbenzene;2,4,5-Trimethylnitrobenzene;1-Nitro-2,4,5-trimethylbenzene;2,4,5-Trimethyl-1-nitrobenzene;5-Nitropseudocumene;NSC 10997",
    "duplicated_cas_no": "",
    "SMILES": "N(=O)(=O)C1=C(C)C=C(C)C(C)=C1",
    "meta_data": {
        "InChI": "InChI=1S/C9H11NO2/c1-6-4-8(3)9(10(11)12)5-7(6)2/h4-5H,1-3H3",
        "InChIKey": null,
        "Canonical SMILES": "O=N(=O)C=1C=C(C(=CC1C)C)C",
        "Molecular Formula": "C<sub>9</sub>H<sub>11</sub>NO<sub>2</sub>",
        "Molecular Mass": "165.19",
        "Boiling Point": "265 °C",
        "Melting Point": "71 °C"
    }
}