{
    "cas_no": "568577-88-8",
    "key_name": "4-[4-(4,4,5,5-Tetramethyl-1,3,2-dioxaborolan-2-yl)phenyl]morpholine",
    "cn_name": null,
    "alternate_name": "Morpholine, 4-[4-(4,4,5,5-tetramethyl-1,3,2-dioxaborolan-2-yl)phenyl]-;4-[4-(4,4,5,5-Tetramethyl-1,3,2-dioxaborolan-2-yl)phenyl]morpholine;<em>N</em>-[4-(4,4,5,5-Tetramethyl-[1,3,2]dioxaborolan-2-yl)phenyl]morpholine",
    "duplicated_cas_no": "",
    "SMILES": "CC1(C)OB(OC1(C)C)C2=CC=C(C=C2)N3CCOCC3",
    "meta_data": {
        "InChI": "InChI=1S/C16H24BNO3/c1-15(2)16(3,4)21-17(20-15)13-5-7-14(8-6-13)18-9-11-19-12-10-18/h5-8H,9-12H2,1-4H3",
        "InChIKey": null,
        "Canonical SMILES": "O1B(OC(C)(C)C1(C)C)C2=CC=C(C=C2)N3CCOCC3",
        "Molecular Formula": "C<sub>16</sub>H<sub>24</sub>BNO<sub>3</sub>",
        "Molecular Mass": "289.18",
        "Melting Point": "98.6-99.0 °C"
    }
}