{
    "cas_no": "67929-86-6",
    "key_name": "1<em>H</em>-Indole-2-carboxylic acid, 5-methoxy-, methyl ester",
    "cn_name": "5-甲氧基吲哚-2-羧酸甲酯;",
    "alternate_name": "1<em>H</em>-Indole-2-carboxylic acid, 5-methoxy-, methyl ester;Methyl 5-methoxy-1<em>H</em>-indole-2-carboxylate;Methyl 5-methoxy-2-indolecarboxylate;5-Methoxy-1<em>H</em>-indole-2-carboxylic acid methyl ester",
    "duplicated_cas_no": "",
    "SMILES": "C(OC)(=O)C1=CC=2C(N1)=CC=C(OC)C2",
    "meta_data": {
        "InChI": "InChI=1S/C11H11NO3/c1-14-8-3-4-9-7(5-8)6-10(12-9)11(13)15-2/h3-6,12H,1-2H3",
        "InChIKey": null,
        "Canonical SMILES": "O=C(OC)C1=CC=2C=C(OC)C=CC2N1",
        "Molecular Formula": "C<sub>11</sub>H<sub>11</sub>NO<sub>3</sub>",
        "Molecular Mass": "205.21",
        "Melting Point": "177 °C"
    }
}