{
    "cas_no": "336-07-2",
    "key_name": "1,1,2,2,3,3,4,4,5,5,6,6-Dodecafluorohexane",
    "cn_name": null,
    "alternate_name": "Hexane, 1,1,2,2,3,3,4,4,5,5,6,6-dodecafluoro-;1,1,2,2,3,3,4,4,5,5,6,6-Dodecafluorohexane;1<em>H</em>,6<em>H</em>-Perfluorohexane;α,ω-Dihydroperfluorohexane;1<em>H</em>,6<em>H</em>-Dodecafluorohexane",
    "duplicated_cas_no": "",
    "SMILES": "C(C(C(C(F)F)(F)F)(F)F)(C(C(F)F)(F)F)(F)F",
    "meta_data": {
        "InChI": "InChI=1S/C6H2F12/c7-1(8)3(11,12)5(15,16)6(17,18)4(13,14)2(9)10/h1-2H",
        "InChIKey": null,
        "Canonical SMILES": "FC(F)C(F)(F)C(F)(F)C(F)(F)C(F)(F)C(F)F",
        "Molecular Formula": "C<sub>6</sub>H<sub>2</sub>F<sub>12</sub>",
        "Molecular Mass": "302.06",
        "Boiling Point": "85 °C"
    }
}