{
    "cas_no": "99-14-9",
    "key_name": "1,2,3-Propanetricarboxylic acid",
    "cn_name": "丙三羧酸;1,2,3-丙三甲酸;均丙三羧酸;",
    "alternate_name": "1,2,3-Propanetricarboxylic acid;Tricarballylic acid;Carballylic acid;β-Carboxyglutaric acid;1,2,3-Tricarboxypropane;3-Carboxyglutaric acid;NSC 2347;AI-942/42301799;Rikacid TCR 100",
    "duplicated_cas_no": "850848-65-6;854811-52-2",
    "SMILES": "C(CC(O)=O)(CC(O)=O)C(O)=O",
    "meta_data": {
        "InChI": "InChI=1S/C6H8O6/c7-4(8)1-3(6(11)12)2-5(9)10/h3H,1-2H2,(H,7,8)(H,9,10)(H,11,12)",
        "InChIKey": null,
        "Canonical SMILES": "O=C(O)CC(C(=O)O)CC(=O)O",
        "Molecular Formula": "C<sub>6</sub>H<sub>8</sub>O<sub>6</sub>",
        "Molecular Mass": "176.12",
        "Melting Point": "166 °C"
    }
}