{
    "cas_no": "5460-29-7",
    "key_name": "<em>N</em>-(3-Bromopropyl)phthalimide",
    "cn_name": "N-(3-溴丙基)苯二胺;N-溴代丙基邻苯二甲酰胺;",
    "alternate_name": "1<em>H</em>-Isoindole-1,3(2<em>H</em>)-dione, 2-(3-bromopropyl)-;Phthalimide, <em>N</em>-(3-bromopropyl)-;2-(3-Bromopropyl)-1<em>H</em>-isoindole-1,3(2<em>H</em>)-dione;(γ-Bromopropyl)phthalimide;(3-Bromopropyl)phthalimide;<em>N</em>-(3-Bromopropyl)phthalimide;1-Phthalimido-3-bromopropane;3-Bromo-<em>N</em>-phthaloylpropylamine;2-(3-Bromopropyl)isoindole-1,3-dione;NSC 24937;NSC 25170;2-(3-Bromopropyl)isoindoline-1,3-dione;3-(Phthalimido)propyl bromide;2-(3-Bromopropyl)-1<em>H</em>-isoindol-1,3(2<em>H</em>)-dione;2-(3-Bromopropyl)-2,3-dihydro-1<em>H</em>-isoindol-1,3-dione;2-(3-Bromopropyl)-2,3-dihydro-1<em>H</em>-isoindole-1,3-dione;<em>N</em>-(Bromopropyl)phthalimide",
    "duplicated_cas_no": "",
    "SMILES": "O=C1C=2C(C(=O)N1CCCBr)=CC=CC2",
    "meta_data": {
        "InChI": "InChI=1S/C11H10BrNO2/c12-6-3-7-13-10(14)8-4-1-2-5-9(8)11(13)15/h1-2,4-5H,3,6-7H2",
        "InChIKey": null,
        "Canonical SMILES": "O=C1C=2C=CC=CC2C(=O)N1CCCBr",
        "Molecular Formula": "C<sub>11</sub>H<sub>10</sub>BrNO<sub>2</sub>",
        "Molecular Mass": "268.11",
        "Melting Point": "74-76 °C",
        "Density": "1.051 g/cm³"
    }
}