{
    "cas_no": "77278-63-8",
    "key_name": "1,1-Dimethylethyl 4-phenyl-1-piperazinecarboxylate",
    "cn_name": null,
    "alternate_name": "1-Piperazinecarboxylic acid, 4-phenyl-, 1,1-dimethylethyl ester;1,1-Dimethylethyl 4-phenyl-1-piperazinecarboxylate;<em>N</em>-(<em>tert</em>-Butoxycarbonyl)-<em>N</em>′-phenylpiperazine;4-Phenylpiperazine-1-carboxylic acid tert-butyl ester;1-Boc-4-Phenylpiperazine;<em>tert</em>-Butyl 4-phenylpiperazine-1-carboxylate",
    "duplicated_cas_no": "",
    "SMILES": "C(OC(C)(C)C)(=O)N1CCN(CC1)C2=CC=CC=C2",
    "meta_data": {
        "InChI": "InChI=1S/C15H22N2O2/c1-15(2,3)19-14(18)17-11-9-16(10-12-17)13-7-5-4-6-8-13/h4-8H,9-12H2,1-3H3",
        "InChIKey": null,
        "Canonical SMILES": "O=C(OC(C)(C)C)N1CCN(C=2C=CC=CC2)CC1",
        "Molecular Formula": "C<sub>15</sub>H<sub>22</sub>N<sub>2</sub>O<sub>2</sub>",
        "Molecular Mass": "262.35",
        "Melting Point": "70-71 °C"
    }
}