{
    "cas_no": "103-49-1",
    "key_name": "Dibenzylamine",
    "cn_name": "二苄胺;",
    "alternate_name": "Benzenemethanamine, <em>N</em>-(phenylmethyl)-;Dibenzylamine;<em>N</em>-(Phenylmethyl)benzenemethanamine;DBA;<em>N</em>-Benzylbenzylamine;<em>N</em>,<em>N</em>-Dibenzylamine;(<em>N</em>-Benzylaminomethyl)benzene;Bibenzylamine;NSC 4811;Bisbenzylamine;<em>N</em>-Benzyl-1-phenylmethanamine",
    "duplicated_cas_no": "306991-23-1",
    "SMILES": "C(NCC1=CC=CC=C1)C2=CC=CC=C2",
    "meta_data": {
        "InChI": "InChI=1S/C14H15N/c1-3-7-13(8-4-1)11-15-12-14-9-5-2-6-10-14/h1-10,15H,11-12H2",
        "InChIKey": null,
        "Canonical SMILES": "C=1C=CC(=CC1)CNCC=2C=CC=CC2",
        "Molecular Formula": "C<sub>14</sub>H<sub>15</sub>N",
        "Molecular Mass": "197.28",
        "Boiling Point": "270 °C",
        "Melting Point": "-26 °C",
        "Density": "1.0343 g/cm³ (liquid) @ Temp: 175.00 °C; Press: ≈750 Torr"
    }
}