{
    "cas_no": "228266-40-8",
    "key_name": "<em>N</em>,β,β-Trimethyl-<span class=\"text-smallcaps\">L</smallcap>-phenylalanyl-<em>N</em>-[(1<em>S</em>,2<em>E</em>)-3-carboxy-1-(1-methylethyl)-2-buten-1-yl]-<em>N</em>,3-dimethyl-<smallcap>L</span>-valinamide",
    "cn_name": "Taltobulin;N,beta,beta-三甲基-L-苯基丙氨酰基-N-[(1S,2E)-3-羧基-1-(1-甲基乙基)-2-丁烯基]-N,3-二甲基-L;",
    "alternate_name": "<span class=\"text-smallcaps\">L</smallcap>-Valinamide, <em>N</em>,β,β-trimethyl-<smallcap>L</span>-phenylalanyl-<em>N</em>-[(1<em>S</em>,2<em>E</em>)-3-carboxy-1-(1-methylethyl)-2-buten-1-yl]-<em>N</em>,3-dimethyl-;<span class=\"text-smallcaps\">L</smallcap>-Valinamide, <em>N</em>,β,β-trimethyl-<smallcap>L</span>-phenylalanyl-<em>N</em>-[(1<em>S</em>,2<em>E</em>)-3-carboxy-1-(1-methylethyl)-2-butenyl]-<em>N</em>,3-dimethyl-;<em>N</em>,β,β-Trimethyl-<span class=\"text-smallcaps\">L</smallcap>-phenylalanyl-<em>N</em>-[(1<em>S</em>,2<em>E</em>)-3-carboxy-1-(1-methylethyl)-2-buten-1-yl]-<em>N</em>,3-dimethyl-<smallcap>L</span>-valinamide;SPA 110;HTI 286;Taltobulin",
    "duplicated_cas_no": "",
    "SMILES": "[C@H](C(C)(C)C1=CC=CC=C1)(C(N[C@H](C(N([C@H](/C=C(/C(O)=O)\\C)C(C)C)C)=O)[C@@](C)(C)C)=O)NC",
    "meta_data": {
        "InChI": "InChI=1S/C27H43N3O4/c1-17(2)20(16-18(3)25(33)34)30(10)24(32)22(26(4,5)6)29-23(31)21(28-9)27(7,8)19-14-12-11-13-15-19/h11-17,20-22,28H,1-10H3,(H,29,31)(H,33,34)/b18-16+/t20-,21-,22-/m1/s1",
        "InChIKey": null,
        "Canonical SMILES": "O=C(O)C(=CC(N(C(=O)C(NC(=O)C(NC)C(C=1C=CC=CC1)(C)C)C(C)(C)C)C)C(C)C)C",
        "Molecular Formula": "C<sub>27</sub>H<sub>43</sub>N<sub>3</sub>O<sub>4</sub>",
        "Molecular Mass": "473.65",
        "Melting Point": "135-137 °C"
    }
}