{
    "cas_no": "575-61-1",
    "key_name": "Benzylidenephthalide",
    "cn_name": null,
    "alternate_name": "1(3<em>H</em>)-Isobenzofuranone, 3-(phenylmethylene)-;Phthalide, 3-benzylidene-;3-(Phenylmethylene)-1(3<em>H</em>)-isobenzofuranone;3-Benzylidenephthalide;3-Benzalphthalide;Benzalphthalide;Benzylidenephthalide;Escalol 547;NSC 2824;3-Benzylidene-2-benzofuran-1-one",
    "duplicated_cas_no": "104559-05-9",
    "SMILES": "C(=C1C=2C(C(=O)O1)=CC=CC2)C3=CC=CC=C3",
    "meta_data": {
        "InChI": "InChI=1S/C15H10O2/c16-15-13-9-5-4-8-12(13)14(17-15)10-11-6-2-1-3-7-11/h1-10H",
        "InChIKey": null,
        "Canonical SMILES": "O=C1OC(=CC=2C=CC=CC2)C=3C=CC=CC13",
        "Molecular Formula": "C<sub>15</sub>H<sub>10</sub>O<sub>2</sub>",
        "Molecular Mass": "222.24",
        "Boiling Point": "198-205 °C @ Press: 4 Torr",
        "Melting Point": "108 °C"
    }
}