{
    "cas_no": "103-80-0",
    "key_name": "Phenylacetyl chloride",
    "cn_name": "苯乙酰氯;",
    "alternate_name": "Benzeneacetyl chloride;Acetyl chloride, phenyl-;Phenylacetyl chloride;Phenacetyl chloride;Phenylacetic acid chloride;α-Phenylacetyl chloride;Phenylacetic chloride;2-Phenylacetyl chloride;2-Phenylethanoyl chloride;2-Phenylacetic acid chloride",
    "duplicated_cas_no": "",
    "SMILES": "C(C(Cl)=O)C1=CC=CC=C1",
    "meta_data": {
        "InChI": "InChI=1S/C8H7ClO/c9-8(10)6-7-4-2-1-3-5-7/h1-5H,6H2",
        "InChIKey": null,
        "Canonical SMILES": "O=C(Cl)CC=1C=CC=CC1",
        "Molecular Formula": "C<sub>8</sub>H<sub>7</sub>ClO",
        "Molecular Mass": "154.59",
        "Boiling Point": "170 °C",
        "Melting Point": "264-266 °C"
    }
}