{
    "cas_no": "13949-67-2",
    "key_name": "2-(1-Naphthalenyloxy)propanoic acid",
    "cn_name": null,
    "alternate_name": "Propanoic acid, 2-(1-naphthalenyloxy)-;Propionic acid, 2-(1-naphthyloxy)-;2-(1-Naphthalenyloxy)propanoic acid;NSC 523899;2-(1-Naphthyloxy)propanoic acid",
    "duplicated_cas_no": "23849-10-7",
    "SMILES": "O(C(C(O)=O)C)C=1C2=C(C=CC1)C=CC=C2",
    "meta_data": {
        "InChI": "InChI=1S/C13H12O3/c1-9(13(14)15)16-12-8-4-6-10-5-2-3-7-11(10)12/h2-9H,1H3,(H,14,15)",
        "InChIKey": null,
        "Canonical SMILES": "O=C(O)C(OC1=CC=CC=2C=CC=CC12)C",
        "Molecular Formula": "C<sub>13</sub>H<sub>12</sub>O<sub>3</sub>",
        "Molecular Mass": "216.23",
        "Melting Point": "148-149 °C"
    }
}