{
    "cas_no": "23378-88-3",
    "key_name": "3,5-Dichloro-2-hydroxybenzenesulfonyl chloride",
    "cn_name": "3,5-二氯-2-羟基苯磺酰氯;",
    "alternate_name": "Benzenesulfonyl chloride, 3,5-dichloro-2-hydroxy-;3,5-Dichloro-2-hydroxybenzenesulfonyl chloride;2-Hydroxy-3,5-dichlorophenylsulfonyl chloride;2-Hydroxy-3,5-dichlorobenzenesulfonyl chloride;3,5-Dichloro-2-hydroxyphenylsulfonyl chloride;3,5-Dichloro-6-hydroxybenzenesulfonyl chloride;3,5-Dichloro-2-hydroxybenzene-1-sulfonyl chloride",
    "duplicated_cas_no": "66327-86-4",
    "SMILES": "S(Cl)(=O)(=O)C1=C(O)C(Cl)=CC(Cl)=C1",
    "meta_data": {
        "InChI": "InChI=1S/C6H3Cl3O3S/c7-3-1-4(8)6(10)5(2-3)13(9,11)12/h1-2,10H",
        "InChIKey": null,
        "Canonical SMILES": "O=S(=O)(Cl)C=1C=C(Cl)C=C(Cl)C1O",
        "Molecular Formula": "C<sub>6</sub>H<sub>3</sub>Cl<sub>3</sub>O<sub>3</sub>S",
        "Molecular Mass": "261.51",
        "Melting Point": "107.4 °C"
    }
}