{
    "cas_no": "89642-50-2",
    "key_name": "5-Bromo-2-nitrobenzonitrile",
    "cn_name": null,
    "alternate_name": "Benzonitrile, 5-bromo-2-nitro-;5-Bromo-2-nitrobenzonitrile;NSC 263787",
    "duplicated_cas_no": "",
    "SMILES": "C(#N)C1=C(N(=O)=O)C=CC(Br)=C1",
    "meta_data": {
        "InChI": "InChI=1S/C7H3BrN2O2/c8-6-1-2-7(10(11)12)5(3-6)4-9/h1-3H",
        "InChIKey": null,
        "Canonical SMILES": "N#CC1=CC(Br)=CC=C1N(=O)=O",
        "Molecular Formula": "C<sub>7</sub>H<sub>3</sub>BrN<sub>2</sub>O<sub>2</sub>",
        "Molecular Mass": "227.01",
        "Melting Point": "115-117 °C"
    }
}