{
    "cas_no": "2998-04-1",
    "key_name": "1,6-Di-2-propen-1-yl hexanedioate",
    "cn_name": null,
    "alternate_name": "Hexanedioic acid, 1,6-di-2-propen-1-yl ester;Adipic acid, diallyl ester;Hexanedioic acid, di-2-propenyl ester;1,6-Di-2-propen-1-yl hexanedioate;Diallyl adipate;Allyl adipate;NSC 20973;Diallyl hexanedioate",
    "duplicated_cas_no": "109298-40-0;159134-14-2",
    "SMILES": "C(CCCCC(OCC=C)=O)(OCC=C)=O",
    "meta_data": {
        "InChI": "InChI=1S/C12H18O4/c1-3-9-15-11(13)7-5-6-8-12(14)16-10-4-2/h3-4H,1-2,5-10H2",
        "InChIKey": null,
        "Canonical SMILES": "O=C(OCC=C)CCCCC(=O)OCC=C",
        "Molecular Formula": "C<sub>12</sub>H<sub>18</sub>O<sub>4</sub>",
        "Molecular Mass": "226.27",
        "Boiling Point": "125-126 °C",
        "Density": "1.0235 g/cm³ @ Temp: 20 °C"
    }
}