{
    "cas_no": "23261-20-3",
    "key_name": "Dianhydrogalactitol",
    "cn_name": null,
    "alternate_name": "Galactitol, 1,2:5,6-dianhydro-;1,2:5,6-Dianhydrogalactitol;1,2:5,6-Dianhydrodulcitol;1,2:5,6-Diepoxydulcitol;Dulcitol diepoxide;NSC 132313;Dianhydrodulcitol;Dianhydrogalactitol;VAL 083",
    "duplicated_cas_no": "20978-29-4;457899-38-6",
    "SMILES": "[C@@H]([C@@H](O)[C@]1(CO1)[H])(O)[C@@]2(CO2)[H]",
    "meta_data": {
        "InChI": "InChI=1/C6H10O4/c7-5(3-1-9-3)6(8)4-2-10-4/h3-8H,1-2H2/t3-,4+,5+,6-",
        "InChIKey": null,
        "Canonical SMILES": "OC(C(O)C1OC1)C2OC2",
        "Molecular Formula": "C<sub>6</sub>H<sub>10</sub>O<sub>4</sub>",
        "Molecular Mass": "146.14",
        "Melting Point": "96.5-98.5 °C"
    }
}