{
    "cas_no": "931-71-5",
    "key_name": "<em>cis</em>-1,4-Cyclohexanediol",
    "cn_name": null,
    "alternate_name": "1,4-Cyclohexanediol, <em>cis</em>-;<em>cis</em>-1,4-Cyclohexanediol;<em>cis</em>-1,4-Dihydroxycyclohexane",
    "duplicated_cas_no": "",
    "SMILES": "O[C@H]1CC[C@@H](O)CC1",
    "meta_data": {
        "InChI": "InChI=1/C6H12O2/c7-5-1-2-6(8)4-3-5/h5-8H,1-4H2/t5-,6+",
        "InChIKey": null,
        "Canonical SMILES": "OC1CCC(O)CC1",
        "Molecular Formula": "C<sub>6</sub>H<sub>12</sub>O<sub>2</sub>",
        "Molecular Mass": "116.16",
        "Melting Point": "100-102 °C"
    }
}