{
    "cas_no": "3510-66-5",
    "key_name": "2-Bromo-5-methylpyridine",
    "cn_name": "2-溴-5-甲基吡啶;",
    "alternate_name": "Pyridine, 2-bromo-5-methyl-;3-Picoline, 6-bromo-;2-Bromo-5-methylpyridine;5-Methyl-2-bromopyridine;2-Bromo-5-picoline;6-Bromo-3-picoline",
    "duplicated_cas_no": "",
    "SMILES": "CC=1C=CC(Br)=NC1",
    "meta_data": {
        "InChI": "InChI=1S/C6H6BrN/c1-5-2-3-6(7)8-4-5/h2-4H,1H3",
        "InChIKey": null,
        "Canonical SMILES": "BrC1=NC=C(C=C1)C",
        "Molecular Formula": "C<sub>6</sub>H<sub>6</sub>BrN",
        "Molecular Mass": "172.02",
        "Boiling Point": "80 °C @ Press: 7 Torr",
        "Melting Point": "49-50 °C"
    }
}