{
    "cas_no": "13808-64-5",
    "key_name": "4-Bromo-3-methyl-1<em>H</em>-pyrazole",
    "cn_name": "4-溴-3-甲基吡唑;",
    "alternate_name": "1<em>H</em>-Pyrazole, 4-bromo-3-methyl-;Pyrazole, 4-bromo-3-methyl-;4-Bromo-3-methyl-1<em>H</em>-pyrazole;4-Bromo-3-methylpyrazole;3-Methyl-4-bromopyrazole;NSC 50563",
    "duplicated_cas_no": "114906-07-9;1076223-98-7;1808957-58-5",
    "SMILES": "BrC=1C(C)=NNC1",
    "meta_data": {
        "InChI": "InChI=1S/C4H5BrN2/c1-3-4(5)2-6-7-3/h2H,1H3,(H,6,7)",
        "InChIKey": null,
        "Canonical SMILES": "BrC1=CNN=C1C",
        "Molecular Formula": "C<sub>4</sub>H<sub>5</sub>BrN<sub>2</sub>",
        "Molecular Mass": "161.00",
        "Melting Point": "76.5 °C"
    }
}