{
    "cas_no": "2190-21-8",
    "key_name": "1,2-Dilinoleoyl-3-oleoyl-rac-glycerol",
    "cn_name": null,
    "alternate_name": "9,12-Octadecadienoic acid (9<em>Z</em>,12<em>Z</em>)-, 1,1′-[1-[[[(9<em>Z</em>)-1-oxo-9-octadecen-1-yl]oxy]methyl]-1,2-ethanediyl] ester;Linolein, 3-oleo-1,2-di-;9,12-Octadecadienoic acid (<em>Z</em>,<em>Z</em>)-, 1-[[(1-oxo-9-octadecenyl)oxy]methyl]-1,2-ethanediyl ester, (<em>Z</em>)-;9,12-Octadecadienoic acid (9<em>Z</em>,12<em>Z</em>)-, 1-[[[(9<em>Z</em>)-1-oxo-9-octadecenyl]oxy]methyl]-1,2-ethanediyl ester;Glyceryl 2,3-dilinoleate-1-oleate;2,3-Dilinoleo-1-olein;3-Oleo-1,2-dilinolein;1-Oleo-2,3-dilinolein;1,2-Dilinoleoyl-3-olein;1,2-Dilinoleoyl-3-oleoyl-rac-glycerol",
    "duplicated_cas_no": "145986-52-3;1195720-65-0",
    "SMILES": "C(OC(CCCCCCC/C=C\\C/C=C\\CCCCC)=O)(COC(CCCCCCC/C=C\\CCCCCCCC)=O)COC(CCCCCCC/C=C\\C/C=C\\CCCCC)=O",
    "meta_data": {
        "InChI": "InChI=1/C57H100O6/c1-4-7-10-13-16-19-22-25-28-31-34-37-40-43-46-49-55(58)61-52-54(63-57(60)51-48-45-42-39-36-33-30-27-24-21-18-15-12-9-6-3)53-62-56(59)50-47-44-41-38-35-32-29-26-23-20-17-14-11-8-5-2/h16,18-19,21,25-30,54H,4-15,17,20,22-24,31-53H2,1-3H3/b19-16-,21-18-,28-25-,29-26-,30-27-",
        "InChIKey": null,
        "Canonical SMILES": "O=C(OCC(OC(=O)CCCCCCCC=CCC=CCCCCC)COC(=O)CCCCCCCC=CCCCCCCCC)CCCCCCCC=CCC=CCCCCC",
        "Molecular Formula": "C<sub>57</sub>H<sub>100</sub>O<sub>6</sub>",
        "Molecular Mass": "881.40",
        "Melting Point": "-14.5--13.2 °C",
        "Density": "0.9281 g/cm³ @ Temp: 20 °C"
    }
}