{
    "cas_no": "37674-72-9",
    "key_name": "6-Chloro-2,3-dihydro-4<em>H</em>-1-benzopyran-4-one",
    "cn_name": "6-氯苯并二氢吡喃-4-酮;6-氯-4-二氢色原酮;",
    "alternate_name": "4<em>H</em>-1-Benzopyran-4-one, 6-chloro-2,3-dihydro-;4-Chromanone, 6-chloro-;6-Chloro-2,3-dihydro-4<em>H</em>-1-benzopyran-4-one;6-Chloro-4-chromanone;6-chloro-2,3-dihydro-4<em>H</em>-1-Benzopyran-4-one;NSC 26783",
    "duplicated_cas_no": "",
    "SMILES": "O=C1C=2C(=CC=C(Cl)C2)OCC1",
    "meta_data": {
        "InChI": "InChI=1S/C9H7ClO2/c10-6-1-2-9-7(5-6)8(11)3-4-12-9/h1-2,5H,3-4H2",
        "InChIKey": null,
        "Canonical SMILES": "O=C1C2=CC(Cl)=CC=C2OCC1",
        "Molecular Formula": "C<sub>9</sub>H<sub>7</sub>ClO<sub>2</sub>",
        "Molecular Mass": "182.60",
        "Melting Point": "99-101 °C"
    }
}