{
    "cas_no": "42816-53-5",
    "key_name": "5-Aminoisatin",
    "cn_name": null,
    "alternate_name": "1<em>H</em>-Indole-2,3-dione, 5-amino-;Isatin, 5-amino-;5-Amino-1<em>H</em>-indole-2,3-dione;5-Aminoisatin",
    "duplicated_cas_no": "",
    "SMILES": "O=C1C=2C(NC1=O)=CC=C(N)C2",
    "meta_data": {
        "InChI": "InChI=1S/C8H6N2O2/c9-4-1-2-6-5(3-4)7(11)8(12)10-6/h1-3H,9H2,(H,10,11,12)",
        "InChIKey": null,
        "Canonical SMILES": "O=C1NC2=CC=C(N)C=C2C1=O",
        "Molecular Formula": "C<sub>8</sub>H<sub>6</sub>N<sub>2</sub>O<sub>2</sub>",
        "Molecular Mass": "162.15",
        "Melting Point": "&gt;360 °C"
    }
}