{
    "cas_no": "7768-28-7",
    "key_name": "2-(2-Hydroxyethyl)phenol",
    "cn_name": "邻羟基苯乙醇;",
    "alternate_name": "Benzeneethanol, 2-hydroxy-;Phenethyl alcohol, <em>o</em>-hydroxy-;2-Hydroxybenzeneethanol;2-(<em>o</em>-Hydroxyphenyl)ethanol;β-(<em>o</em>-Hydroxyphenyl)ethanol;<em>o</em>-Hydroxyphenethyl alcohol;2-(2-Hydroxyphenyl)ethanol;<em>o</em>-(2-Hydroxyethyl)phenol;2-(2-Hydroxyethyl)phenol;2-Hydroxyphenethyl alcohol;1,2-Tyrosol;2-(2-Hydroxyphenyl)ethyl alcohol;NSC 101845;6-(2-Hydroxyethyl)phenol",
    "duplicated_cas_no": "",
    "SMILES": "C(CO)C1=C(O)C=CC=C1",
    "meta_data": {
        "InChI": "InChI=1S/C8H10O2/c9-6-5-7-3-1-2-4-8(7)10/h1-4,9-10H,5-6H2",
        "InChIKey": null,
        "Canonical SMILES": "OC=1C=CC=CC1CCO",
        "Molecular Formula": "C<sub>8</sub>H<sub>10</sub>O<sub>2</sub>",
        "Molecular Mass": "138.16",
        "Boiling Point": "110 °C @ Press: 0.55 Torr"
    }
}