{
    "cas_no": "14287-61-7",
    "key_name": "2,3-Dimethylbutanoic acid",
    "cn_name": null,
    "alternate_name": "Butanoic acid, 2,3-dimethyl-;Butyric acid, 2,3-dimethyl-;Butyric acid, α,β-dimethyl-;2,3-Dimethylbutanoic acid;2,3-Dimethylbutyric acid;(±)-2,3-Dimethylbutyric acid;(±)-2,3-Dimethylbutanoic acid;2,3,3-Trimethylpropionic acid",
    "duplicated_cas_no": "22160-11-8",
    "SMILES": "C(C(C)C)(C(O)=O)C",
    "meta_data": {
        "InChI": "InChI=1S/C6H12O2/c1-4(2)5(3)6(7)8/h4-5H,1-3H3,(H,7,8)",
        "InChIKey": null,
        "Canonical SMILES": "O=C(O)C(C)C(C)C",
        "Molecular Formula": "C<sub>6</sub>H<sub>12</sub>O<sub>2</sub>",
        "Molecular Mass": "116.16",
        "Boiling Point": "191.7 °C",
        "Melting Point": "-1.5 °C",
        "Density": "0.9275 g/cm³ @ Temp: 20 °C"
    }
}