{
    "cas_no": "4025-75-6",
    "key_name": "4-Nitrobenzenemethanesulfonyl chloride",
    "cn_name": "(4-硝基苯基)甲磺酰氯;1-(4-硝基苄基磺酰基)氯;",
    "alternate_name": "Benzenemethanesulfonyl chloride, 4-nitro-;α-Toluenesulfonyl chloride, <em>p</em>-nitro-;4-Nitrobenzenemethanesulfonyl chloride;(<em>p</em>-Nitrophenyl)methanesulfonyl chloride;<em>p</em>-Nitrobenzylsulfonyl chloride;(4-Nitrophenyl)methanesulfonyl chloride;<em>p</em>-Nitro-α-toluenesulfonyl chloride;4-Nitrobenzylsulfonyl chloride",
    "duplicated_cas_no": "",
    "SMILES": "C(S(Cl)(=O)=O)C1=CC=C(N(=O)=O)C=C1",
    "meta_data": {
        "InChI": "InChI=1S/C7H6ClNO4S/c8-14(12,13)5-6-1-3-7(4-2-6)9(10)11/h1-4H,5H2",
        "InChIKey": null,
        "Canonical SMILES": "O=N(=O)C1=CC=C(C=C1)CS(=O)(=O)Cl",
        "Molecular Formula": "C<sub>7</sub>H<sub>6</sub>ClNO<sub>4</sub>S",
        "Molecular Mass": "235.64",
        "Melting Point": "92-93 °C"
    }
}