{
    "cas_no": "5847-57-4",
    "key_name": "2,5-Dichloro-4-nitrophenol",
    "cn_name": null,
    "alternate_name": "Phenol, 2,5-dichloro-4-nitro-;2,5-Dichloro-4-nitrophenol",
    "duplicated_cas_no": "",
    "SMILES": "N(=O)(=O)C1=C(Cl)C=C(O)C(Cl)=C1",
    "meta_data": {
        "InChI": "InChI=1S/C6H3Cl2NO3/c7-3-2-6(10)4(8)1-5(3)9(11)12/h1-2,10H",
        "InChIKey": null,
        "Canonical SMILES": "O=N(=O)C=1C=C(Cl)C(O)=CC1Cl",
        "Molecular Formula": "C<sub>6</sub>H<sub>3</sub>Cl<sub>2</sub>NO<sub>3</sub>",
        "Molecular Mass": "208.00",
        "Melting Point": "117 °C"
    }
}