{
    "cas_no": "1200-14-2",
    "key_name": "4-Butylbenzaldehyde",
    "cn_name": "4-正丁基苯甲醛;",
    "alternate_name": "Benzaldehyde, 4-butyl-;Benzaldehyde, <em>p</em>-butyl-;4-Butylbenzaldehyde;<em>p</em>-Butylbenzaldehyde;4-<em>n</em>-Butylbenzaldehyde;<em>p</em>-<em>n</em>-Butylbenzaldehyde;NBBAL",
    "duplicated_cas_no": "",
    "SMILES": "C(CCC)C1=CC=C(C=O)C=C1",
    "meta_data": {
        "InChI": "InChI=1S/C11H14O/c1-2-3-4-10-5-7-11(9-12)8-6-10/h5-9H,2-4H2,1H3",
        "InChIKey": null,
        "Canonical SMILES": "O=CC1=CC=C(C=C1)CCCC",
        "Molecular Formula": "C<sub>11</sub>H<sub>14</sub>O",
        "Molecular Mass": "162.23",
        "Boiling Point": "125-130 °C @ Press: 19 Torr",
        "Melting Point": "43 °C"
    }
}