{
    "cas_no": "82799-44-8",
    "key_name": "2,4-Diethylthioxanthone",
    "cn_name": "2,4-二乙基噻唑酮;",
    "alternate_name": "9<em>H</em>-Thioxanthen-9-one, 2,4-diethyl-;2,4-Diethyl-9<em>H</em>-thioxanthen-9-one;2,4-Diethylthioxanthone;Kayacure DETX;Kayacure DETX-S;DETX-S;Speedcure DETX;Genocure DETX;Esacure DETX;JRCure DETX;DETX;Daido UV-Cure DETX;Chemcure JETX;2,4-Diethylthioxanthen-9-one;Chivacure DETX;Chemcure DETX;Irgacure DETX;Photoinitiator DETX;Gencure DETX;Omnirad DETX;Doublecure DETX;Chemark DETX",
    "duplicated_cas_no": "153859-04-2;162774-73-4;676327-59-6;1070654-65-7",
    "SMILES": "C(C)C1=C2C(C(=O)C=3C(S2)=CC=CC3)=CC(CC)=C1",
    "meta_data": {
        "InChI": "InChI=1S/C17H16OS/c1-3-11-9-12(4-2)17-14(10-11)16(18)13-7-5-6-8-15(13)19-17/h5-10H,3-4H2,1-2H3",
        "InChIKey": null,
        "Canonical SMILES": "O=C1C=2C=CC=CC2SC=3C1=CC(=CC3CC)CC",
        "Molecular Formula": "C<sub>17</sub>H<sub>16</sub>OS",
        "Molecular Mass": "268.37",
        "Melting Point": "55-57 °C"
    }
}