{
    "cas_no": "2973-76-4",
    "key_name": "5-Bromovanillin",
    "cn_name": "5-溴香兰素;5-溴香草醛;3-溴-4-羟基-5-甲氧基苯甲醛;",
    "alternate_name": "Benzaldehyde, 3-bromo-4-hydroxy-5-methoxy-;Vanillin, 5-bromo-;3-Bromo-4-hydroxy-5-methoxybenzaldehyde;5-Bromovanillin;5-Bromo-4-hydroxy-3-methoxybenzaldehyde;5-Bromo-4-hydroxy-3-anisaldehyde;5-Bromo-3-methoxy-4-hydroxybenzaldehyde;6-Bromo-4-formyl-2-methoxyphenol;NSC 10073;NSC 29037;3-Methoxy-4-hydroxy-5-bromobenzaldehyde;3-Bromo-5-methoxy-4-hydroxybenzaldehyde",
    "duplicated_cas_no": "",
    "SMILES": "O(C)C1=C(O)C(Br)=CC(C=O)=C1",
    "meta_data": {
        "InChI": "InChI=1S/C8H7BrO3/c1-12-7-3-5(4-10)2-6(9)8(7)11/h2-4,11H,1H3",
        "InChIKey": null,
        "Canonical SMILES": "O=CC1=CC(Br)=C(O)C(OC)=C1",
        "Molecular Formula": "C<sub>8</sub>H<sub>7</sub>BrO<sub>3</sub>",
        "Molecular Mass": "231.04",
        "Melting Point": "166-169 °C"
    }
}