{
    "cas_no": "116026-95-0",
    "key_name": "1,1-Dimethylethyl <em>N</em>-(4-formyl-3-pyridinyl)carbamate",
    "cn_name": null,
    "alternate_name": "Carbamic acid, <em>N</em>-(4-formyl-3-pyridinyl)-, 1,1-dimethylethyl ester;Carbamic acid, (4-formyl-3-pyridinyl)-, 1,1-dimethylethyl ester;1,1-Dimethylethyl <em>N</em>-(4-formyl-3-pyridinyl)carbamate;<em>tert</em>-Butyl (4-formylpyridin-3-yl)carbamate;(4-Formyl-pyridin-3-yl)-carbamic acid tert-butyl ester",
    "duplicated_cas_no": "",
    "SMILES": "N(C(OC(C)(C)C)=O)C=1C(C=O)=CC=NC1",
    "meta_data": {
        "InChI": "InChI=1S/C11H14N2O3/c1-11(2,3)16-10(15)13-9-6-12-5-4-8(9)7-14/h4-7H,1-3H3,(H,13,15)",
        "InChIKey": null,
        "Canonical SMILES": "O=CC=1C=CN=CC1NC(=O)OC(C)(C)C",
        "Molecular Formula": "C<sub>11</sub>H<sub>14</sub>N<sub>2</sub>O<sub>3</sub>",
        "Molecular Mass": "222.24",
        "Melting Point": "52-53 °C"
    }
}