{
    "cas_no": "12013-56-8",
    "key_name": "Calcium silicide (CaSi<sub>2</sub>)",
    "cn_name": "硅钙合金;",
    "alternate_name": "Calcium silicide (CaSi<sub>2</sub>);Calcium disilicide;Calcium disilicide (CaSi<sub>2</sub>);CaSi<sub>2</sub>;Calcium silicide (Ca<sub>0.5</sub>Si)",
    "duplicated_cas_no": "2366151-28-0;2624061-20-5",
    "SMILES": "",
    "meta_data": {
        "InChI": "",
        "InChIKey": null,
        "Canonical SMILES": "",
        "Molecular Formula": "CaSi<sub>2</sub>",
        "Molecular Mass": "",
        "Melting Point": "1033 °C"
    }
}