{
    "cas_no": "506-21-8",
    "key_name": "Linolelaidic acid",
    "cn_name": null,
    "alternate_name": "9,12-Octadecadienoic acid, (9<em>E</em>,12<em>E</em>)-;Linolelaidic acid;9,12-Octadecadienoic acid, (<em>E</em>,<em>E</em>)-;(9<em>E</em>,12<em>E</em>)-9,12-Octadecadienoic acid;<em>trans</em>,<em>trans</em>-Linoleic acid;Linelaidic acid;<em>trans</em>-9-<em>trans</em>-12-Linoleic acid;Linoelaidic acid;<em>trans</em>,<em>trans</em>-9,12-Octadecadienoic acid;9-<em>trans</em>-12-<em>trans</em>-Octadecadienoic acid;<em>trans</em>-Δ<sup>9,12</sup>-Octadecadienoic acid;9-<em>trans</em>-12-<em>trans</em>-Linoleic acid;C18:2n-6(t9,t12)",
    "duplicated_cas_no": "",
    "SMILES": "C(C/C=C/C/C=C/CCCCC)CCCCCC(O)=O",
    "meta_data": {
        "InChI": "InChI=1S/C18H32O2/c1-2-3-4-5-6-7-8-9-10-11-12-13-14-15-16-17-18(19)20/h6-7,9-10H,2-5,8,11-17H2,1H3,(H,19,20)/b7-6+,10-9+",
        "InChIKey": null,
        "Canonical SMILES": "O=C(O)CCCCCCCC=CCC=CCCCCC",
        "Molecular Formula": "C<sub>18</sub>H<sub>32</sub>O<sub>2</sub>",
        "Molecular Mass": "280.45",
        "Melting Point": "28-29 °C"
    }
}