{
    "cas_no": "5623-45-0",
    "key_name": "Dimesityl ketone",
    "cn_name": "2,2\",4,4\",6,6\"-六甲基二苯甲酮;",
    "alternate_name": "Methanone, bis(2,4,6-trimethylphenyl)-;Benzophenone, 2,2′,4,4′,6,6′-hexamethyl-;Bis(2,4,6-trimethylphenyl)methanone;Dimesityl ketone;Mesityl ketone;2,2′,4,4′,6,6′-Hexamethylbenzophenone;2,4,6,2′,4′,6′-Hexamethylbenzophenone;Bis(2,4,6-trimethylphenyl) ketone",
    "duplicated_cas_no": "",
    "SMILES": "C(=O)(C1=C(C)C=C(C)C=C1C)C2=C(C)C=C(C)C=C2C",
    "meta_data": {
        "InChI": "InChI=1S/C19H22O/c1-11-7-13(3)17(14(4)8-11)19(20)18-15(5)9-12(2)10-16(18)6/h7-10H,1-6H3",
        "InChIKey": null,
        "Canonical SMILES": "O=C(C=1C(=CC(=CC1C)C)C)C=2C(=CC(=CC2C)C)C",
        "Molecular Formula": "C<sub>19</sub>H<sub>22</sub>O",
        "Molecular Mass": "266.38",
        "Boiling Point": "200 °C",
        "Melting Point": "136-137 °C"
    }
}