{
    "cas_no": "7550-45-0",
    "key_name": "Titanium tetrachloride",
    "cn_name": "四氯化钛;",
    "alternate_name": "Titanium chloride (TiCl<sub>4</sub>) (<em>T</em>-4)-;Titanium chloride (TiCl<sub>4</sub>);Titanium tetrachloride;Tetrachlorotitanium;Titanium chloride;Titanium(IV) chloride;TC 36",
    "duplicated_cas_no": "8011-53-8;15612-71-2;44246-22-2",
    "SMILES": "[Ti](Cl)(Cl)(Cl)Cl",
    "meta_data": {
        "InChI": "InChI=1S/4ClH.Ti/h4*1H;/q;;;;+4/p-4",
        "InChIKey": null,
        "Canonical SMILES": "Cl[Ti](Cl)(Cl)Cl",
        "Molecular Formula": "Cl<sub>4</sub>Ti",
        "Molecular Mass": "",
        "Boiling Point": "136.4 °C",
        "Melting Point": "-24.1 °C",
        "Density": "1.726 g/cm³"
    }
}