{
    "cas_no": "6268-05-9",
    "key_name": "4-Benzoylamino-2,5-dimethoxyaniline",
    "cn_name": null,
    "alternate_name": "Benzamide, <em>N</em>-(4-amino-2,5-dimethoxyphenyl)-;Benzanilide, 4′-amino-2′,5′-dimethoxy-;<em>N</em>-(4-Amino-2,5-dimethoxyphenyl)benzamide;Azoene Fast Blue RR Base;Azoene Fast Blue RR Salt;Blue Salt NRR;Daito Blue Base RR;Daito Blue Salt RR;Fast Blue MR Base;Fast Blue RR Base;Fast Blue Salt RR;Fast Navy DR;Hiltonil Fast Blue RR Base;Mitsui Blue RR Salt;Neutrosel Blue R;Sanyo Fast Blue RR Base;Sanyo Fast Blue Salt RR;4′-Amino-2′,5′-dimethoxybenzanilide;5-Amino-2-(benzoylamino)-1,4-dimethoxybenzene;4-Amino-1-(benzoylamino)-3,6-dimethoxybenzene;2,5-Dimethoxy-4-(benzoylamino)aniline;4-Benzoylamino-2,5-dimethoxyaniline;NSC 37139;NSC 50201",
    "duplicated_cas_no": "",
    "SMILES": "N(C(=O)C1=CC=CC=C1)C2=C(OC)C=C(N)C(OC)=C2",
    "meta_data": {
        "InChI": "InChI=1S/C15H16N2O3/c1-19-13-9-12(14(20-2)8-11(13)16)17-15(18)10-6-4-3-5-7-10/h3-9H,16H2,1-2H3,(H,17,18)",
        "InChIKey": null,
        "Canonical SMILES": "O=C(NC=1C=C(OC)C(N)=CC1OC)C=2C=CC=CC2",
        "Molecular Formula": "C<sub>15</sub>H<sub>16</sub>N<sub>2</sub>O<sub>3</sub>",
        "Molecular Mass": "272.30",
        "Melting Point": "168 °C"
    }
}