{
    "cas_no": "7306-68-5",
    "key_name": "6-Chloro-9-(tetrahydro-2<em>H</em>-pyran-2-yl)-9<em>H</em>-purine",
    "cn_name": "6-氯-9-(四氢-2-吡喃基)嘌呤;",
    "alternate_name": "9<em>H</em>-Purine, 6-chloro-9-(tetrahydro-2<em>H</em>-pyran-2-yl)-;9<em>H</em>-Purine, 6-chloro-9-(tetrahydropyran-2-yl)-;6-Chloro-9-(tetrahydro-2<em>H</em>-pyran-2-yl)-9<em>H</em>-purine;6-Chloro-9-(tetrahydropyran-2-yl)purine;NSC 33187;6-Chloro-9-(tetrahydropyran-2-yl)-9<em>H</em>-purine;9-(Tetrahydropyran-2-yl)-6-chloropurine;6-chloro-9-(tetrahydro-2H-pyran-2-yl)-9H-purine",
    "duplicated_cas_no": "",
    "SMILES": "ClC1=C2C(N(C=N2)C3CCCCO3)=NC=N1",
    "meta_data": {
        "InChI": "InChI=1S/C10H11ClN4O/c11-9-8-10(13-5-12-9)15(6-14-8)7-3-1-2-4-16-7/h5-7H,1-4H2",
        "InChIKey": null,
        "Canonical SMILES": "ClC1=NC=NC2=C1N=CN2C3OCCCC3",
        "Molecular Formula": "C<sub>10</sub>H<sub>11</sub>ClN<sub>4</sub>O",
        "Molecular Mass": "238.67",
        "Melting Point": "69-71 °C"
    }
}