{
    "cas_no": "450412-28-9",
    "key_name": "1-Bromo-3-chloro-2-iodobenzene",
    "cn_name": null,
    "alternate_name": "Benzene, 1-bromo-3-chloro-2-iodo-;1-Bromo-3-chloro-2-iodobenzene;3-Chloro-2-iodo-1-bromobenzene",
    "duplicated_cas_no": "",
    "SMILES": "IC1=C(Br)C=CC=C1Cl",
    "meta_data": {
        "InChI": "InChI=1S/C6H3BrClI/c7-4-2-1-3-5(8)6(4)9/h1-3H",
        "InChIKey": null,
        "Canonical SMILES": "ClC1=CC=CC(Br)=C1I",
        "Molecular Formula": "C<sub>6</sub>H<sub>3</sub>BrClI",
        "Molecular Mass": "317.35",
        "Melting Point": "75-76 °C"
    }
}