{
    "cas_no": "15232-76-5",
    "key_name": "3-Octyne",
    "cn_name": "3-辛炔;3-辛炔;乙基丁基乙炔;3-辛炔, 98+%;",
    "alternate_name": "3-Octyne;1-Ethyl-2-butylacetylene;Ethylbutyl acetylene;Butylethylacetylene",
    "duplicated_cas_no": "",
    "SMILES": "C(C#CCC)CCC",
    "meta_data": {
        "InChI": "InChI=1S/C8H14/c1-3-5-7-8-6-4-2/h3-5,7H2,1-2H3",
        "InChIKey": null,
        "Canonical SMILES": "C(#CCCCC)CC",
        "Molecular Formula": "C<sub>8</sub>H<sub>14</sub>",
        "Molecular Mass": "110.20",
        "Boiling Point": "133.1 °C",
        "Melting Point": "-103.9 °C",
        "Density": "0.7529 g/cm³ @ Temp: 20 °C"
    }
}