{
    "cas_no": "478-08-0",
    "key_name": "Lucidin",
    "cn_name": null,
    "alternate_name": "9,10-Anthracenedione, 1,3-dihydroxy-2-(hydroxymethyl)-;Anthraquinone, 1,3-dihydroxy-2-(hydroxymethyl)-;1,3-Dihydroxy-2-(hydroxymethyl)-9,10-anthracenedione;Henine;Lucidin;Lucidin (quinone);1,3-Dihydroxy-2-(hydroxymethyl)anthraquinone;NSC 30546",
    "duplicated_cas_no": "",
    "SMILES": "O=C1C=2C(C(=O)C=3C1=CC=CC3)=CC(O)=C(CO)C2O",
    "meta_data": {
        "InChI": "InChI=1S/C15H10O5/c16-6-10-11(17)5-9-12(15(10)20)14(19)8-4-2-1-3-7(8)13(9)18/h1-5,16-17,20H,6H2",
        "InChIKey": null,
        "Canonical SMILES": "O=C1C=2C=CC=CC2C(=O)C3=C(O)C(=C(O)C=C13)CO",
        "Molecular Formula": "C<sub>15</sub>H<sub>10</sub>O<sub>5</sub>",
        "Molecular Mass": "270.24",
        "Melting Point": "330 °C"
    }
}