{
    "cas_no": "15676-16-1",
    "key_name": "(±)-Sulpiride",
    "cn_name": "舒必利;N-[(1-乙基-2-吡咯烷基)甲基]-2-甲氧基-5-氨基磺酰基-苯甲酰胺;",
    "alternate_name": "Benzamide, 5-(aminosulfonyl)-<em>N</em>-[(1-ethyl-2-pyrrolidinyl)methyl]-2-methoxy-;<em>o</em>-Anisamide, <em>N</em>-[(1-ethyl-2-pyrrolidinyl)methyl]-5-sulfamoyl-;5-(Aminosulfonyl)-<em>N</em>-[(1-ethyl-2-pyrrolidinyl)methyl]-2-methoxybenzamide;<em>N</em>-[(1-Ethyl-2-pyrrolidinyl)methyl]-2-methoxy-5-sulfamoylbenzamide;Sulpiride;<em>N</em>-[(1-Ethyl-2-pyrrolidinyl)methyl]-5-sulfamoyl-<em>o</em>-anisamide;<em>N</em>-(1-Ethyl-2-pyrrolidinylmethyl)-2-methoxy-5-sulfamidobenzamide;Dogmatil;Sulpirid;Aiglonyl;Dogmatyl;Eglonyl;RD 1403;Sulpyrid;Abilit;Dobren;(±)-Sulpiride;<em>dl</em>-Sulpiride;<span class=\"text-smallcaps\">DL</span>-Sulpiride;Coolspan;Omperan;Meresa;Guastil;Pyrikappl;Misulvan;Dolmatil;Synedil;Miradol;Sursumid;Trilan;Sernevin;Splotin;Sulpitil;Neogama;Mirbanil;<em>N</em>-(1-Ethylpyrrolidin-2-ylmethyl)-2-methoxy-5-sulfamoylbenzamide;Dogmil;MeSH ID: D013469",
    "duplicated_cas_no": "95204-38-9;23672-06-2;51061-74-6",
    "SMILES": "C(NCC1N(CC)CCC1)(=O)C2=C(OC)C=CC(S(N)(=O)=O)=C2",
    "meta_data": {
        "InChI": "InChI=1S/C15H23N3O4S/c1-3-18-8-4-5-11(18)10-17-15(19)13-9-12(23(16,20)21)6-7-14(13)22-2/h6-7,9,11H,3-5,8,10H2,1-2H3,(H,17,19)(H2,16,20,21)",
        "InChIKey": null,
        "Canonical SMILES": "O=C(NCC1N(CC)CCC1)C2=CC(=CC=C2OC)S(=O)(=O)N",
        "Molecular Formula": "C<sub>15</sub>H<sub>23</sub>N<sub>3</sub>O<sub>4</sub>S",
        "Molecular Mass": "341.43",
        "Melting Point": "178 °C (decomp)",
        "Density": "1.34 g/cm³"
    }
}