{
    "cas_no": "482-27-9",
    "key_name": "Isopimpinellin",
    "cn_name": "异茴芹灵;异茴芹灵;",
    "alternate_name": "7<em>H</em>-Furo[3,2-<em>g</em>][1]benzopyran-7-one, 4,9-dimethoxy-;Isopimpinellin;4,9-Dimethoxy-7<em>H</em>-furo[3,2-<em>g</em>][1]benzopyran-7-one;5,8-Dimethoxypsoralen;5,8-Dimethoxy-6,7-furanocoumarin;NSC 217988;NSC 401288;Isoimpinellin;8-Methoxybergapten;5-Methoxyxanthotoxin;4,9-Dimethoxy-7<em>H</em>-furo[3,2-<em>g</em>]chromen-7-one",
    "duplicated_cas_no": "",
    "SMILES": "O(C)C=1C2=C(C(OC)=C3C1OC=C3)C=CC(=O)O2",
    "meta_data": {
        "InChI": "InChI=1S/C13H10O5/c1-15-10-7-3-4-9(14)18-12(7)13(16-2)11-8(10)5-6-17-11/h3-6H,1-2H3",
        "InChIKey": null,
        "Canonical SMILES": "O=C1OC=2C(OC)=C3OC=CC3=C(OC)C2C=C1",
        "Molecular Formula": "C<sub>13</sub>H<sub>10</sub>O<sub>5</sub>",
        "Molecular Mass": "246.22",
        "Melting Point": "151 °C"
    }
}