{
    "cas_no": "793-24-8",
    "key_name": "Antioxidant 4020",
    "cn_name": "N-(1,3-二甲基丁基)-N\"-苯基对苯二胺;橡胶防老剂4020;橡胶防老剂6PPD;",
    "alternate_name": "1,4-Benzenediamine, <em>N</em><sup>1</sup>-(1,3-dimethylbutyl)-<em>N</em><sup>4</sup>-phenyl-;<em>p</em>-Phenylenediamine, <em>N</em>-(1,3-dimethylbutyl)-<em>N</em>′-phenyl-;1,4-Benzenediamine, <em>N</em>-(1,3-dimethylbutyl)-<em>N</em>′-phenyl-;<em>N</em><sup>1</sup>-(1,3-Dimethylbutyl)-<em>N</em><sup>4</sup>-phenyl-1,4-benzenediamine;<em>N</em>-(4-Methyl-2-pentyl)-<em>N</em>′-phenyl-<em>p</em>-phenylenediamine;Santoflex 13;<em>N</em>-(1,3-Dimethylbutyl)-<em>N</em>′-phenyl-<em>p</em>-phenylenediamine;Antioxidant 4020;<em>N</em>-Phenyl-<em>N</em>′-(1,3-dimethylbutyl)-<em>p</em>-phenylenediamine;Permanax 120;Wingstay 300;Diafen 13;Vulkanox 4020;Nocrac 6C;<em>N</em>-(1,3-Dimethylbutyl)-<em>N</em>′-phenyl-1,4-phenylenediamine;Flexzone 7L;Santoflex 13F;Antozite 67;Antozite 67F;Flexzone 7F;DBDA;UOP 562;UOP 588;Permanax 6PPD;DMBPD;CD 13;Dusantox 6PPD;Antioxidant CD 13;Antage 6C;Forte 6C;Diafen FDMB;<em>N</em>-Phenyl-<em>N</em>′-(1,3-dimethylbutyl)-1,4-phenylenediamine;Santoflex 6PPD;6PPD;Flexzone 7P;Vulkanox 4020LG;Pilflex 13;Accinox ZC;<em>N</em>-(1,3-Dimethylbutyl)-<em>N</em>′-phenyl-1,4-benzenediamine;4-(1,3-Dimethylbutylamino)diphenylamine;Ozonone 6C;CI;Luvomaxx 6PPD;Antigene 6C;Nocceler 6C;Antioxidant 6C;Kumanox 13;Antioxidant PD 2;PD 2;1-<em>N</em>-(4-Methylpentan-2-yl)-4-<em>N</em>-phenylbenzene-1,4-diamine;Kumanox 13C;Sunsine 6PPD;Stangard 6PPD",
    "duplicated_cas_no": "50809-58-0;76600-84-5",
    "SMILES": "N(C1=CC=C(NC(CC(C)C)C)C=C1)C2=CC=CC=C2",
    "meta_data": {
        "InChI": "InChI=1S/C18H24N2/c1-14(2)13-15(3)19-17-9-11-18(12-10-17)20-16-7-5-4-6-8-16/h4-12,14-15,19-20H,13H2,1-3H3",
        "InChIKey": null,
        "Canonical SMILES": "C=1C=CC(=CC1)NC2=CC=C(C=C2)NC(C)CC(C)C",
        "Molecular Formula": "C<sub>18</sub>H<sub>24</sub>N<sub>2</sub>",
        "Molecular Mass": "268.40",
        "Melting Point": "50 °C",
        "Density": "1.07 g/cm³"
    }
}