{
    "uri": "substance/pt/1319466",
    "rn": "1319-46-6",
    "name": "White lead",
    "images": [],
    "inchi": "InChI=1S/CH2O3.H2O.Pb/c2-1(3)4;;/h(H2,2,3,4);1H2;/p-3",
    "inchiKey": "InChIKey=FKRDCRZYTCMHEM-UHFFFAOYSA-K",
    "smile": "[OH-].[Pb].C(=O)([O-])[O-]",
    "canonicalSmile": "[Pb].[OH-].O=C([O-])[O-]",
    "molecularFormula": "CO<sub>3</sub>.HO.Pb",
    "molecularMass": "",
    "experimentalProperties": [
        {
            "name": "Melting Point",
            "property": "400 °C (decomp)",
            "sourceNumber": 1
        },
        {
            "name": "Density",
            "property": "6.14 g/cm³",
            "sourceNumber": 1
        }
    ],
    "propertyCitations": [
        {
            "docUri": "",
            "sourceNumber": 1,
            "source": "Hazardous Substances Data Bank data were obtained from the National Library of Medicine (US)"
        }
    ],
    "synonyms": [
        "Lead carbonate hydroxide (Pb<sub>3</sub>(CO<sub>3</sub>)<sub>2</sub>(OH)<sub>2</sub>)",
        "Lead, bis(carbonato)dihydroxytri-",
        "Lead carbonate hydroxide (2PbCO<sub>3</sub>.Pb(OH)<sub>2</sub>)",
        "Lead carbonate (2PbCO<sub>3</sub>.Pb(OH)<sub>2</sub>)",
        "Lead, bis[carbonato(2-)]dihydroxytri-",
        "Lead carbonate hydroxide (Pb<sub>3</sub>(OH)<sub>2</sub>(CO<sub>3</sub>)<sub>2</sub>)",
        "Basic lead carbonate (2PbCO<sub>3</sub>.Pb(OH)<sub>2</sub>)",
        "Lead hydroxide carbonate [2PbCO<sub>3</sub>.Pb(OH)<sub>2</sub>]",
        "White lead",
        "Carbonic acid, lead salt, basic",
        "Berlin White",
        "Silver White",
        "Basic lead carbonate",
        "C.I. 77597",
        "Basic carbonate white lead",
        "C.I. Pigment White 1",
        "Dutch White Lead",
        "Flake White",
        "Krems White",
        "Novade",
        "Slate White",
        "Venetian White",
        "White Lead Wartburg",
        "Lead subcarbonate",
        "Lead carbonate oxide (Pb<sub>3</sub>O(CO<sub>3</sub>)<sub>2</sub>), monohydrate",
        "Lead white",
        "Rolite lead",
        "Stabilisator 5012NS",
        "Almex",
        "Enpaku",
        "Cremnitz White",
        "Tricarbonatodihydroxytrilead"
    ],
    "replacedRns": [
        "1344-36-1",
        "11120-55-1",
        "13009-77-3",
        "37185-13-0",
        "37316-84-0",
        "37361-76-5",
        "886883-98-3",
        "1145660-51-0",
        "1160353-52-5",
        "1951408-54-0"
    ],
    "hasMolfile": true,
    "source": "https://commonchemistry.cas.org/detail?cas_rn=1319-46-6"
}