{
    "cas_no": "121-51-7",
    "key_name": "3-Nitrobenzenesulfonyl chloride",
    "cn_name": "3-硝基苯磺酰氯;间硝基苯磺酰氯;",
    "alternate_name": "Benzenesulfonyl chloride, 3-nitro-;Benzenesulfonyl chloride, <em>m</em>-nitro-;3-Nitrobenzenesulfonyl chloride;<em>m</em>-Nitrobenzenesulfonyl chloride;<em>m</em>-Nitrophenylsulfonyl chloride;3-Nitrophenylsulfonyl chloride;NSC 9806;<em>m</em>-Nosyl chloride;3-(Chlorosulfonyl)nitrobenzene;3-Nitrobenzene-1-sulfonyl chloride;(3-Nitro)-phenyl-sulphonyl chloride",
    "duplicated_cas_no": "",
    "SMILES": "S(Cl)(=O)(=O)C1=CC(N(=O)=O)=CC=C1",
    "meta_data": {
        "InChI": "InChI=1S/C6H4ClNO4S/c7-13(11,12)6-3-1-2-5(4-6)8(9)10/h1-4H",
        "InChIKey": null,
        "Canonical SMILES": "O=N(=O)C1=CC=CC(=C1)S(=O)(=O)Cl",
        "Molecular Formula": "C<sub>6</sub>H<sub>4</sub>ClNO<sub>4</sub>S",
        "Molecular Mass": "221.62",
        "Melting Point": "61 °C"
    }
}