{
    "cas_no": "60-01-5",
    "key_name": "Tributyrin",
    "cn_name": "甘油三丁酸酯;三丁酸甘油酯;丁酸-1,2,3-三丙酯;",
    "alternate_name": "Butanoic acid, 1,2,3-propanetriyl ester;Butyrin, tri-;Butyrin;Butyryl triglyceride;Glycerol tributyrate;Glyceryl tributyrate;Tributyrin;Tributyroin;Tri-<em>n</em>-butyrin;Glycerol tributanoate;Tributin;Tributyryl glyceride;Glycerin tributyrate;Glyceroltributyrin;Tributyrylglycerol;Glyceryl tributanoate;NSC 661583;Tributanoin;2,3-Di(butanoyloxy)propyl butanoate",
    "duplicated_cas_no": "",
    "SMILES": "C(COC(CCC)=O)(COC(CCC)=O)OC(CCC)=O",
    "meta_data": {
        "InChI": "InChI=1S/C15H26O6/c1-4-7-13(16)19-10-12(21-15(18)9-6-3)11-20-14(17)8-5-2/h12H,4-11H2,1-3H3",
        "InChIKey": null,
        "Canonical SMILES": "O=C(OCC(OC(=O)CCC)COC(=O)CCC)CCC",
        "Molecular Formula": "C<sub>15</sub>H<sub>26</sub>O<sub>6</sub>",
        "Molecular Mass": "302.36",
        "Boiling Point": "305-310 °C",
        "Melting Point": "-75 °C",
        "Density": "1.0350 g/cm³ @ Temp: 20 °C"
    }
}