{
    "cas_no": "55505-28-7",
    "key_name": "9-Methyl-1-decanol",
    "cn_name": null,
    "alternate_name": "1-Decanol, 9-methyl-;9-Methyl-1-decanol",
    "duplicated_cas_no": "",
    "SMILES": "C(CCCCCO)CCC(C)C",
    "meta_data": {
        "InChI": "InChI=1S/C11H24O/c1-11(2)9-7-5-3-4-6-8-10-12/h11-12H,3-10H2,1-2H3",
        "InChIKey": null,
        "Canonical SMILES": "OCCCCCCCCC(C)C",
        "Molecular Formula": "C<sub>11</sub>H<sub>24</sub>O",
        "Molecular Mass": "172.31",
        "Boiling Point": "119-120 °C @ Press: 10 Torr"
    }
}