{
    "cas_no": "5765-44-6",
    "key_name": "5-Methylisoxazole",
    "cn_name": "5-甲基异恶唑;5-甲基异噁唑;",
    "alternate_name": "Isoxazole, 5-methyl-;5-Methylisoxazole;NSC 52269",
    "duplicated_cas_no": "264871-06-9",
    "SMILES": "CC1=CC=NO1",
    "meta_data": {
        "InChI": "InChI=1S/C4H5NO/c1-4-2-3-5-6-4/h2-3H,1H3",
        "InChIKey": null,
        "Canonical SMILES": "N=1OC(=CC1)C",
        "Molecular Formula": "C<sub>4</sub>H<sub>5</sub>NO",
        "Molecular Mass": "83.09",
        "Boiling Point": "122 °C",
        "Density": "1.0206 g/cm³ @ Temp: 420 °C"
    }
}