{
    "cas_no": "120511-73-1",
    "key_name": "Anastrozole",
    "cn_name": "阿那曲唑;四甲基-5-(1H-1,2,4-三唑-1-基甲基)-1,3-苯二乙腈;",
    "alternate_name": "1,3-Benzenediacetonitrile, α<sup>1</sup>,α<sup>1</sup>,α<sup>3</sup>,α<sup>3</sup>-tetramethyl-5-(1<em>H</em>-1,2,4-triazol-1-ylmethyl)-;1,3-Benzenediacetonitrile, α,α,α′,α′-tetramethyl-5-(1<em>H</em>-1,2,4-triazol-1-ylmethyl)-;α<sup>1</sup>,α<sup>1</sup>,α<sup>3</sup>,α<sup>3</sup>-Tetramethyl-5-(1<em>H</em>-1,2,4-triazol-1-ylmethyl)-1,3-benzenediacetonitrile;Anastrozole;ZD 1033;Arimidex;ICI-D 1033;Anastrol;2-[3-(2-Cyano-2-propyl)-5-(1,2,4-triazol-1-ylmethyl)phenyl]-2-methylpropiononitrile;2,2′-[5-(1<em>H</em>-1,2,4-triazol-1-ylmethyl)-1,3-phenylene]di(2-methylpropionitrile);Anastrazole;2-[3-(2-Cyanopropan-2-yl)-5-(1,2,4-triazol-1-ylmethyl)phenyl]-2-methylpropanenitrile;2-[3-(1-Cyano-1-methylethyl)-5-[(1<em>H</em>-1,2,4-triazol-1-yl)methyl]phenyl]-2-methylpropanenitrile",
    "duplicated_cas_no": "",
    "SMILES": "C(C#N)(C)(C)C1=CC(C(C#N)(C)C)=CC(CN2C=NC=N2)=C1",
    "meta_data": {
        "InChI": "InChI=1S/C17H19N5/c1-16(2,9-18)14-5-13(8-22-12-20-11-21-22)6-15(7-14)17(3,4)10-19/h5-7,11-12H,8H2,1-4H3",
        "InChIKey": null,
        "Canonical SMILES": "N#CC(C1=CC(=CC(=C1)C(C#N)(C)C)CN2N=CN=C2)(C)C",
        "Molecular Formula": "C<sub>17</sub>H<sub>19</sub>N<sub>5</sub>",
        "Molecular Mass": "293.37",
        "Melting Point": "81-82 °C"
    }
}