{
    "cas_no": "3219-63-4",
    "key_name": "1-(Trimethylsilyl)methanol",
    "cn_name": "1-三甲基甲硅烷基甲醇;三甲基硅基甲醇;1-三甲基甲硅烷基甲醇;",
    "alternate_name": "Methanol, 1-(trimethylsilyl)-;Methanol, (trimethylsilyl)-;1-(Trimethylsilyl)methanol;(Trimethylsilyl)methanol;Hydroxymethyltrimethylsilane;NSC 96777",
    "duplicated_cas_no": "",
    "SMILES": "[Si](CO)(C)(C)C",
    "meta_data": {
        "InChI": "InChI=1S/C4H12OSi/c1-6(2,3)4-5/h5H,4H2,1-3H3",
        "InChIKey": null,
        "Canonical SMILES": "OC[Si](C)(C)C",
        "Molecular Formula": "C<sub>4</sub>H<sub>12</sub>OSi",
        "Molecular Mass": "104.22",
        "Boiling Point": "121-122 °C",
        "Density": "0.826 g/cm³ @ Temp: 25 °C"
    }
}