{
    "cas_no": "83-13-6",
    "key_name": "Diethyl phenylmalonate",
    "cn_name": "苯基丙二酸二乙酯;",
    "alternate_name": "Propanedioic acid, 2-phenyl-, 1,3-diethyl ester;Malonic acid, phenyl-, diethyl ester;Propanedioic acid, phenyl-, diethyl ester;Diethyl phenylmalonate;Phenylmalonic acid diethyl ester;Diethyl α-phenylmalonate;Diethyl 2-phenylmalonate;Ethyl phenylmalonate;(Phenyl)propanedioic acid diethyl ester;NSC 53560;NSC 8126;1,3-Diethyl 2-phenylpropanedioate",
    "duplicated_cas_no": "",
    "SMILES": "C(C(OCC)=O)(C(OCC)=O)C1=CC=CC=C1",
    "meta_data": {
        "InChI": "InChI=1S/C13H16O4/c1-3-16-12(14)11(13(15)17-4-2)10-8-6-5-7-9-10/h5-9,11H,3-4H2,1-2H3",
        "InChIKey": null,
        "Canonical SMILES": "O=C(OCC)C(C(=O)OCC)C=1C=CC=CC1",
        "Molecular Formula": "C<sub>13</sub>H<sub>16</sub>O<sub>4</sub>",
        "Molecular Mass": "236.26",
        "Boiling Point": "171 °C @ Press: 21 Torr",
        "Melting Point": "16.5 °C",
        "Density": "1.101 g/cm³ @ Temp: 15 °C"
    }
}