{
    "cas_no": "7470-14-6",
    "key_name": "3-Phenanthrenecarboxylic acid",
    "cn_name": null,
    "alternate_name": "3-Phenanthrenecarboxylic acid;NSC 402374",
    "duplicated_cas_no": "",
    "SMILES": "C(O)(=O)C1=CC2=C3C(=CC=C2C=C1)C=CC=C3",
    "meta_data": {
        "InChI": "InChI=1S/C15H10O2/c16-15(17)12-8-7-11-6-5-10-3-1-2-4-13(10)14(11)9-12/h1-9H,(H,16,17)",
        "InChIKey": null,
        "Canonical SMILES": "O=C(O)C=1C=CC=2C=CC=3C=CC=CC3C2C1",
        "Molecular Formula": "C<sub>15</sub>H<sub>10</sub>O<sub>2</sub>",
        "Molecular Mass": "222.24",
        "Melting Point": "270 °C"
    }
}