{
    "cas_no": "1611-56-9",
    "key_name": "11-Bromo-1-undecanol",
    "cn_name": "11-溴-1-十一醇;11-溴-1-十一烷醇;",
    "alternate_name": "1-Undecanol, 11-bromo-;11-Bromo-1-undecanol;11-Bromoundecanyl alcohol;11-Bromoundecan-1-ol;11-Bromo-1-hydroxyundecane;1-Bromo-11-hydroxyundecane;ω-Bromoundecyl alcohol;1-Bromo-11-undecanol;NSC 4029;11-Bromoundecanol",
    "duplicated_cas_no": "",
    "SMILES": "C(CCCCCBr)CCCCCO",
    "meta_data": {
        "InChI": "InChI=1S/C11H23BrO/c12-10-8-6-4-2-1-3-5-7-9-11-13/h13H,1-11H2",
        "InChIKey": null,
        "Canonical SMILES": "BrCCCCCCCCCCCO",
        "Molecular Formula": "C<sub>11</sub>H<sub>23</sub>BrO",
        "Molecular Mass": "251.20",
        "Boiling Point": "134-136 °C @ Press: 0.3 Torr",
        "Melting Point": "44-46 °C"
    }
}