{
    "cas_no": "108102-49-4",
    "key_name": "<em>rel</em>-(2<em>R</em>,3<em>R</em>)-2-Amino-1,3-butanediol",
    "cn_name": null,
    "alternate_name": "1,3-Butanediol, 2-amino-, (2<em>R</em>,3<em>R</em>)-<em>rel</em>-;1,3-Butanediol, 2-amino-, (<em>R</em>*,<em>R</em>*)-(±)-;<em>rel</em>-(2<em>R</em>,3<em>R</em>)-2-Amino-1,3-butanediol;<span class=\"text-smallcaps\">DL</span>-Threoninol;1,3-Butanediol, 2-amino-, (<em>R</em>*,<em>R</em>*)-;Threoninol",
    "duplicated_cas_no": "515-93-5",
    "SMILES": "[C@H]([C@@H](C)O)(CO)N",
    "meta_data": {
        "InChI": "InChI=1/C4H11NO2/c1-3(7)4(5)2-6/h3-4,6-7H,2,5H2,1H3/t3-,4-/s2",
        "InChIKey": null,
        "Canonical SMILES": "OCC(N)C(O)C",
        "Molecular Formula": "C<sub>4</sub>H<sub>11</sub>NO<sub>2</sub>",
        "Molecular Mass": "105.14",
        "Melting Point": "122 °C"
    }
}