{
    "cas_no": "62596-35-4",
    "key_name": "Neocyclomorusin",
    "cn_name": null,
    "alternate_name": "3<em>H</em>,7<em>H</em>-Pyrano[2′,3′:7,8][1]benzopyrano[3,2-<em>d</em>][1]benzoxepin-7-one, 8,9-dihydro-6,12-dihydroxy-9-(1-hydroxy-1-methylethyl)-3,3-dimethyl-;8,9-Dihydro-6,12-dihydroxy-9-(1-hydroxy-1-methylethyl)-3,3-dimethyl-3<em>H</em>,7<em>H</em>-pyrano[2′,3′:7,8][1]benzopyrano[3,2-<em>d</em>][1]benzoxepin-7-one;Neocyclomorusin",
    "duplicated_cas_no": "67492-58-4",
    "SMILES": "O=C1C=2C(=C3C(=CC2O)OC(C)(C)C=C3)OC4=C1CC(C(C)(C)O)OC=5C4=CC=C(O)C5",
    "meta_data": {
        "InChI": "InChI=1S/C25H24O7/c1-24(2)8-7-14-18(32-24)11-16(27)20-21(28)15-10-19(25(3,4)29)30-17-9-12(26)5-6-13(17)22(15)31-23(14)20/h5-9,11,19,26-27,29H,10H2,1-4H3",
        "InChIKey": null,
        "Canonical SMILES": "O=C1C2=C(O)C=C3OC(C=CC3=C2OC=4C=5C=CC(O)=CC5OC(CC14)C(O)(C)C)(C)C",
        "Molecular Formula": "C<sub>25</sub>H<sub>24</sub>O<sub>7</sub>",
        "Molecular Mass": "436.45",
        "Melting Point": "261-264 °C"
    }
}