{
    "cas_no": "25054-06-2",
    "key_name": "Cyclohexanone-formaldehyde copolymer",
    "cn_name": null,
    "alternate_name": "Formaldehyde, polymer with cyclohexanone;Cyclohexanone, polymer with formaldehyde;ChS-Keto 95;Formaldehyde-cyclohexanone resin;Cyclohexanone-formaldehyde resin;Formaldehyde-cyclohexanone copolymer;Cyclohexanone-formaldehyde copolymer;Cyclohexanone-formaldehyde polymer;Bakelite Polyketone Resin 250;Cyclohexanone-formaldehyde condensate;Ketone A;Polyketone A;MR 85;MR 85D;MR 85H;Krumbhaar K 1717B;MR 60;L<sub>2</sub> Resin;L 2;L 2 (formaldehyde polymer);K 90 (ketone resin);K 90;Ketone Resin K 90;Resin N;Ketone resin N;K 211;Laropal K 80;Hilac 111;MR 60 (polymer);K 1717B;KR 80F;KR 120;KR 120W;KR 130;Hairakku 111;Cyclohexanone-formaldehyde condensation polymer;KTR 100",
    "duplicated_cas_no": "7779-15-9;37294-40-9;52504-06-0;62769-42-0;66174-06-9;84135-74-0;108334-37-8;1919864-04-2",
    "SMILES": "O=C1CCCCC1.C=O",
    "meta_data": {
        "InChI": "InChI=1S/C6H10O.CH2O/c7-6-4-2-1-3-5-6;1-2/h1-5H2;1H2",
        "InChIKey": null,
        "Canonical SMILES": "O=C.O=C1CCCCC1",
        "Molecular Formula": "(C<sub>6</sub>H<sub>10</sub>O.CH<sub>2</sub>O)<sub>x</sub>",
        "Molecular Mass": "",
        "Melting Point": "105 °C"
    }
}