{
    "cas_no": "3048-65-5",
    "key_name": "3a,4,7,7a-Tetrahydroindene",
    "cn_name": "3a,4,7,7a-四羟基茚;四氢茚;",
    "alternate_name": "1<em>H</em>-Indene, 3a,4,7,7a-tetrahydro-;Indene, 3a,4,7,7a-tetrahydro-;3a,4,7,7a-Tetrahydro-1<em>H</em>-indene;4,7,8,9-Tetrahydroindene;Bicyclo[4.3.0]nona-3,7-diene;3a,4,7,7a-Tetrahydroindene",
    "duplicated_cas_no": "",
    "SMILES": "C12C(C=CC1)CC=CC2",
    "meta_data": {
        "InChI": "InChI=1S/C9H12/c1-2-5-9-7-3-6-8(9)4-1/h1-3,6,8-9H,4-5,7H2",
        "InChIKey": null,
        "Canonical SMILES": "C1=CCC2CC=CC2C1",
        "Molecular Formula": "C<sub>9</sub>H<sub>12</sub>",
        "Molecular Mass": "120.19",
        "Boiling Point": "76-78 °C @ Press: 50 Torr"
    }
}