{
    "cas_no": "33065-61-1",
    "key_name": "6-Bromoindene",
    "cn_name": null,
    "alternate_name": "1<em>H</em>-Indene, 6-bromo-;Indene, 6-bromo-;6-Bromo-1<em>H</em>-indene;6-Bromoindene",
    "duplicated_cas_no": "",
    "SMILES": "BrC=1C=C2C(=CC1)C=CC2",
    "meta_data": {
        "InChI": "InChI=1S/C9H7Br/c10-9-5-4-7-2-1-3-8(7)6-9/h1-2,4-6H,3H2",
        "InChIKey": null,
        "Canonical SMILES": "BrC=1C=CC=2C=CCC2C1",
        "Molecular Formula": "C<sub>9</sub>H<sub>7</sub>Br",
        "Molecular Mass": "195.06",
        "Boiling Point": "75 °C @ Press: 1 Torr"
    }
}