{
    "cas_no": "18113-04-7",
    "key_name": "2-Chloro-5-methoxyphenol",
    "cn_name": null,
    "alternate_name": "Phenol, 2-chloro-5-methoxy-;2-Chloro-5-methoxyphenol;6-Chloro-3-methoxyphenol",
    "duplicated_cas_no": "",
    "SMILES": "O(C)C1=CC(O)=C(Cl)C=C1",
    "meta_data": {
        "InChI": "InChI=1S/C7H7ClO2/c1-10-5-2-3-6(8)7(9)4-5/h2-4,9H,1H3",
        "InChIKey": null,
        "Canonical SMILES": "ClC1=CC=C(OC)C=C1O",
        "Molecular Formula": "C<sub>7</sub>H<sub>7</sub>ClO<sub>2</sub>",
        "Molecular Mass": "158.58",
        "Boiling Point": "120-127 °C @ Press: 17 Torr"
    }
}