{
    "cas_no": "15433-79-1",
    "key_name": "5-(Dimethylaminomethyl)furfuryl alcohol",
    "cn_name": "5-(二甲氨基)甲基-2-呋喃甲醇;",
    "alternate_name": "2-Furanmethanol, 5-[(dimethylamino)methyl]-;Furfuryl alcohol, 5-[(dimethylamino)methyl]-;5-[(Dimethylamino)methyl]-2-furanmethanol;5-(Hydroxymethyl)-2-furfuryldimethylamine;5-(Dimethylaminomethyl)furfuryl alcohol;5-(Dimethylaminomethyl)-2-furanylmethanol;2-(Dimethylaminomethyl)-5-(hydroxymethyl)furan;5-(Dimethylaminomethyl)-2-(hydroxymethyl)furan",
    "duplicated_cas_no": "",
    "SMILES": "C(N(C)C)C=1OC(CO)=CC1",
    "meta_data": {
        "InChI": "InChI=1S/C8H13NO2/c1-9(2)5-7-3-4-8(6-10)11-7/h3-4,10H,5-6H2,1-2H3",
        "InChIKey": null,
        "Canonical SMILES": "OCC=1OC(=CC1)CN(C)C",
        "Molecular Formula": "C<sub>8</sub>H<sub>13</sub>NO<sub>2</sub>",
        "Molecular Mass": "155.19",
        "Boiling Point": "110-111 °C @ Press: 3 Torr",
        "Density": "1.07 g/cm³ @ Temp: 25 °C"
    }
}