{
    "cas_no": "13709-31-4",
    "key_name": "Vanadium, trifluorooxo-, (<em>T</em>-4)-",
    "cn_name": "三氟代氧化钒(V);三氟代氧化钒;三氟化氧钒;Vanadium(V) oxytrifluoride;Vanadyl trifluoride;",
    "alternate_name": "Vanadium, trifluorooxo-, (<em>T</em>-4)-;Vanadium fluoride oxide (VOF<sub>3</sub>);Vanadyl fluoride (VOF<sub>3</sub>);Vanadium, trifluorooxo-;Vanadium oxyfluoride (VOF<sub>3</sub>);Vanadium oxytrifluoride;Vanadium oxofluoride (VOF<sub>3</sub>);Vanadyl trifluoride;Vanadium oxide fluoride (VOF<sub>3</sub>);Vanadium fluoride oxide (VF<sub>3</sub>O);Vanadium trifluoride monoxide",
    "duplicated_cas_no": "",
    "SMILES": "[V](F)(F)(F)=O",
    "meta_data": {
        "InChI": "InChI=1S/3FH.O.V/h3*1H;;/q;;;;+3/p-3",
        "InChIKey": null,
        "Canonical SMILES": "O=[V](F)(F)F",
        "Molecular Formula": "F<sub>3</sub>OV",
        "Molecular Mass": "",
        "Boiling Point": "480 °C",
        "Melting Point": "300 °C",
        "Density": "2.4591 g/cm³ @ Temp: 20.5 °C"
    }
}