{
    "cas_no": "101140-06-1",
    "key_name": "Biapigenin",
    "cn_name": null,
    "alternate_name": "[3,8′-Bi-4<em>H</em>-1-benzopyran]-4,4′-dione, 5,5′,7,7′-tetrahydroxy-2,2′-bis(4-hydroxyphenyl)-;5,5′,7,7′-Tetrahydroxy-2,2′-bis(4-hydroxyphenyl)[3,8′-bi-4<em>H</em>-1-benzopyran]-4,4′-dione;I<sup>3</sup>,II<sup>8</sup>-Biapigenin;3,8′′-Biapigenin;8,3′′-Biapigenin;Biapigenin",
    "duplicated_cas_no": "",
    "SMILES": "O=C1C(=C(OC=2C1=C(O)C=C(O)C2)C3=CC=C(O)C=C3)C4=C5C(C(=O)C=C(O5)C6=CC=C(O)C=C6)=C(O)C=C4O",
    "meta_data": {
        "InChI": "InChI=1S/C30H18O10/c31-15-5-1-13(2-6-15)22-12-21(37)24-19(35)11-20(36)26(30(24)39-22)27-28(38)25-18(34)9-17(33)10-23(25)40-29(27)14-3-7-16(32)8-4-14/h1-12,31-36H",
        "InChIKey": null,
        "Canonical SMILES": "O=C1C=C(OC2=C1C(O)=CC(O)=C2C=3C(=O)C=4C(O)=CC(O)=CC4OC3C=5C=CC(O)=CC5)C=6C=CC(O)=CC6",
        "Molecular Formula": "C<sub>30</sub>H<sub>18</sub>O<sub>10</sub>",
        "Molecular Mass": "538.46",
        "Melting Point": "258-260 °C"
    }
}