{
    "cas_no": "329-01-1",
    "key_name": "3-(Trifluoromethyl)phenyl isocyanate",
    "cn_name": "3-(三氟甲基)异氰酸苯酯;3-三氟甲苯基异氰酸酯;",
    "alternate_name": "Benzene, 1-isocyanato-3-(trifluoromethyl)-;Isocyanic acid, α,α,α-trifluoro-<em>m</em>-tolyl ester;1-Isocyanato-3-(trifluoromethyl)benzene;<em>m</em>-(Trifluoromethyl)phenyl isocyanate;3-(Trifluoromethyl)phenyl isocyanate;α,α,α-Trifluoro-3-tolyl isocyanate;α,α,α-Trifluoro-<em>m</em>-tolyl isocyanate;1-(Trifluoromethyl)-3-[isocyanato]benzene",
    "duplicated_cas_no": "",
    "SMILES": "C(F)(F)(F)C1=CC(N=C=O)=CC=C1",
    "meta_data": {
        "InChI": "InChI=1S/C8H4F3NO/c9-8(10,11)6-2-1-3-7(4-6)12-5-13/h1-4H",
        "InChIKey": null,
        "Canonical SMILES": "O=C=NC1=CC=CC(=C1)C(F)(F)F",
        "Molecular Formula": "C<sub>8</sub>H<sub>4</sub>F<sub>3</sub>NO",
        "Molecular Mass": "187.12",
        "Boiling Point": "54 °C @ Press: 11 Torr",
        "Density": "1.3455 g/cm³ @ Temp: 20 °C"
    }
}