{
    "cas_no": "31080-39-4",
    "key_name": "2-Propylheptanoic acid",
    "cn_name": null,
    "alternate_name": "Heptanoic acid, 2-propyl-;2-Propylheptanoic acid;Isocarb 10",
    "duplicated_cas_no": "161089-79-8",
    "SMILES": "C(CCCCC)(CCC)C(O)=O",
    "meta_data": {
        "InChI": "InChI=1S/C10H20O2/c1-3-5-6-8-9(7-4-2)10(11)12/h9H,3-8H2,1-2H3,(H,11,12)",
        "InChIKey": null,
        "Canonical SMILES": "O=C(O)C(CCC)CCCCC",
        "Molecular Formula": "C<sub>10</sub>H<sub>20</sub>O<sub>2</sub>",
        "Molecular Mass": "172.26",
        "Boiling Point": "145 °C @ Press: 14 Torr"
    }
}