{
    "cas_no": "7732-18-5",
    "key_name": "Water",
    "cn_name": "水;蒸馏水;去离子水;",
    "alternate_name": "Water;R 718;Hydrogen oxide (H<sub>2</sub>O);Distilled water;NSC 147337;Aquafina;Ultrex II Ultrapure;Milli-Q water;Dihydrogen oxide;MeSH ID: D014867;285: PN: WO2023172967 SEQID: 285 claimed sequence;597: PN: WO2023172654 SEQID: 600 claimed sequence",
    "duplicated_cas_no": "558440-22-5;558440-53-2;652133-48-7;1202864-49-0;1371582-34-1;2886715-16-6",
    "SMILES": "O",
    "meta_data": {
        "InChI": "InChI=1S/H2O/h1H2",
        "InChIKey": null,
        "Canonical SMILES": "O",
        "Molecular Formula": "H<sub>2</sub>O",
        "Molecular Mass": "",
        "Boiling Point": "100 °C",
        "Melting Point": "0 °C",
        "Density": "1.00293 g/cm³ @ Temp: 25 °C"
    }
}