{
    "cas_no": "1487-49-6",
    "key_name": "Methyl 3-hydroxybutyrate",
    "cn_name": null,
    "alternate_name": "Butanoic acid, 3-hydroxy-, methyl ester;Butyric acid, 3-hydroxy-, methyl ester;3-Hydroxybutyric acid methyl ester;Methyl β-hydroxybutyrate;Methyl 3-hydroxybutyrate;Methyl 3-hydroxybutanoate;Methyl (<em>RS</em>)-3-hydroxybutyrate;(±)-Methyl 3-hydroxybutanoate",
    "duplicated_cas_no": "95404-54-9",
    "SMILES": "C(CC(C)O)(OC)=O",
    "meta_data": {
        "InChI": "InChI=1S/C5H10O3/c1-4(6)3-5(7)8-2/h4,6H,3H2,1-2H3",
        "InChIKey": null,
        "Canonical SMILES": "O=C(OC)CC(O)C",
        "Molecular Formula": "C<sub>5</sub>H<sub>10</sub>O<sub>3</sub>",
        "Molecular Mass": "118.13",
        "Boiling Point": "76-77 °C @ Press: 20 Torr",
        "Melting Point": "173-177 °C",
        "Density": "0.90 g/cm³ (liquid) @ Temp: 25 °C"
    }
}