{
    "cas_no": "7440-17-7",
    "key_name": "Rubidium",
    "cn_name": null,
    "alternate_name": "Rubidium;MeSH ID: D012413",
    "duplicated_cas_no": "",
    "SMILES": "[Rb]",
    "meta_data": {
        "InChI": "InChI=1S/Rb",
        "InChIKey": null,
        "Canonical SMILES": "[Rb]",
        "Molecular Formula": "Rb",
        "Molecular Mass": "",
        "Boiling Point": "688 °C",
        "Melting Point": "39 °C",
        "Density": "1.532 g/cm³"
    }
}