{
    "cas_no": "83729-01-5",
    "key_name": "Salvinorin",
    "cn_name": null,
    "alternate_name": "2<em>H</em>-Naphtho[2,1-<em>c</em>]pyran-7-carboxylic acid, 9-(acetyloxy)-2-(3-furanyl)dodecahydro-6a,10b-dimethyl-4,10-dioxo-, methyl ester, (2<em>S</em>,4a<em>R</em>,6a<em>R</em>,7<em>R</em>,9<em>S</em>,10a<em>S</em>,10b<em>R</em>)-;2<em>H</em>-Naphtho[2,1-<em>c</em>]pyran-7-carboxylic acid, 9-(acetyloxy)-2-(3-furanyl)dodecahydro-6a,10b-dimethyl-4,10-dioxo-, methyl ester, [2<em>S</em>-(2α,4aα,6aβ,7β,9β,10aα,10bβ)]-;Salvinorin;Divinorin A;Salvinorin A;(-)-Salvinorin A",
    "duplicated_cas_no": "",
    "SMILES": "C[C@@]12[C@@]3([C@](C)([C@H](C(OC)=O)C[C@H](OC(C)=O)C3=O)CC[C@]1(C(=O)O[C@@H](C2)C=4C=COC4)[H])[H]",
    "meta_data": {
        "InChI": "InChI=1S/C23H28O8/c1-12(24)30-16-9-15(20(26)28-4)22(2)7-5-14-21(27)31-17(13-6-8-29-11-13)10-23(14,3)19(22)18(16)25/h6,8,11,14-17,19H,5,7,9-10H2,1-4H3/t14-,15-,16-,17-,19-,22-,23-/m0/s1",
        "InChIKey": null,
        "Canonical SMILES": "O=C(OC1C(=O)C2C(C)(CCC3C(=O)OC(C4=COC=C4)CC32C)C(C(=O)OC)C1)C",
        "Molecular Formula": "C<sub>23</sub>H<sub>28</sub>O<sub>8</sub>",
        "Molecular Mass": "432.46",
        "Melting Point": "235-238 °C"
    }
}