{
    "cas_no": "19433-84-2",
    "key_name": "2,3-Dichloropropanamide",
    "cn_name": "2,3二氯丙酸酯;",
    "alternate_name": "Propanamide, 2,3-dichloro-;Propionamide, 2,3-dichloro-;2,3-Dichloropropanamide;α,β-Dichloropropionamide;2,3-Dichloropropionamide;NSC 406576",
    "duplicated_cas_no": "",
    "SMILES": "C(C(N)=O)(CCl)Cl",
    "meta_data": {
        "InChI": "InChI=1S/C3H5Cl2NO/c4-1-2(5)3(6)7/h2H,1H2,(H2,6,7)",
        "InChIKey": null,
        "Canonical SMILES": "O=C(N)C(Cl)CCl",
        "Molecular Formula": "C<sub>3</sub>H<sub>5</sub>Cl<sub>2</sub>NO",
        "Molecular Mass": "141.98",
        "Melting Point": "103 °C"
    }
}