{
    "cas_no": "41283-72-1",
    "key_name": "Ethyl α-methyl-4-(2-methylpropyl)benzeneacetate",
    "cn_name": null,
    "alternate_name": "Benzeneacetic acid, α-methyl-4-(2-methylpropyl)-, ethyl ester;Hydratropic acid, <em>p</em>-isobutyl-, ethyl ester;Ethyl α-methyl-4-(2-methylpropyl)benzeneacetate;Ethyl 2-(<em>p</em>-isobutylphenyl)propionate;2-(4-Isobutylphenyl)propionic acid ethyl ester;Ethyl 4-isobutyl-α-methylphenylacetate;Ethyl 2-(4-isobutylphenyl)propionate;Ibuprofen ethyl ester",
    "duplicated_cas_no": "123247-43-8",
    "SMILES": "C(C(OCC)=O)(C)C1=CC=C(CC(C)C)C=C1",
    "meta_data": {
        "InChI": "InChI=1S/C15H22O2/c1-5-17-15(16)12(4)14-8-6-13(7-9-14)10-11(2)3/h6-9,11-12H,5,10H2,1-4H3",
        "InChIKey": null,
        "Canonical SMILES": "O=C(OCC)C(C1=CC=C(C=C1)CC(C)C)C",
        "Molecular Formula": "C<sub>15</sub>H<sub>22</sub>O<sub>2</sub>",
        "Molecular Mass": "234.33",
        "Boiling Point": "260-262 °C"
    }
}