{
    "cas_no": "133-13-1",
    "key_name": "1,3-Diethyl 2-ethylpropanedioate",
    "cn_name": "乙基丙二酸二乙酯;",
    "alternate_name": "Propanedioic acid, 2-ethyl-, 1,3-diethyl ester;Malonic acid, ethyl-, diethyl ester;Propanedioic acid, ethyl-, diethyl ester;1,3-Diethyl 2-ethylpropanedioate;Diethyl ethylmalonate;Diethyl 2-ethylmalonate;Diethyl α-ethylmalonate;Ethylpropanedioic acid diethyl ester;NSC 8706;2-Ethylmalonic acid diethyl ester",
    "duplicated_cas_no": "93264-17-6;581796-72-7",
    "SMILES": "C(C(OCC)=O)(C(OCC)=O)CC",
    "meta_data": {
        "InChI": "InChI=1S/C9H16O4/c1-4-7(8(10)12-5-2)9(11)13-6-3/h7H,4-6H2,1-3H3",
        "InChIKey": null,
        "Canonical SMILES": "O=C(OCC)C(C(=O)OCC)CC",
        "Molecular Formula": "C<sub>9</sub>H<sub>16</sub>O<sub>4</sub>",
        "Molecular Mass": "188.22",
        "Boiling Point": "208 °C",
        "Melting Point": "202 °C",
        "Density": "1.004 g/cm³ @ Temp: 20 °C"
    }
}