{
    "cas_no": "3592-25-4",
    "key_name": "1,5-Dichloro-3-pentanone",
    "cn_name": null,
    "alternate_name": "3-Pentanone, 1,5-dichloro-;1,5-Dichloro-3-pentanone;Bis(2-chloroethyl) ketone",
    "duplicated_cas_no": "",
    "SMILES": "C(CCCl)(CCCl)=O",
    "meta_data": {
        "InChI": "InChI=1S/C5H8Cl2O/c6-3-1-5(8)2-4-7/h1-4H2",
        "InChIKey": null,
        "Canonical SMILES": "O=C(CCCl)CCCl",
        "Molecular Formula": "C<sub>5</sub>H<sub>8</sub>Cl<sub>2</sub>O",
        "Molecular Mass": "155.02",
        "Boiling Point": "74 °C @ Press: 0.8 Torr"
    }
}