{
    "cas_no": "36265-41-5",
    "key_name": "3,5-Didodecyl 1,4-dihydro-2,6-dimethyl-3,5-pyridinedicarboxylate",
    "cn_name": "1,4-二氢-2,6-二甲基-3,5-吡啶二羧酸双十二烷酯;",
    "alternate_name": "3,5-Pyridinedicarboxylic acid, 1,4-dihydro-2,6-dimethyl-, 3,5-didodecyl ester;3,5-Pyridinedicarboxylic acid, 1,4-dihydro-2,6-dimethyl-, didodecyl ester;3,5-Didodecyl 1,4-dihydro-2,6-dimethyl-3,5-pyridinedicarboxylate;Dilauryl 1,4-dihydro-2,6-dimethyl-3,5-pyridinedicarboxylate;Didodecyl 1,4-dihydro-2,6-dimethylpyridine-3,5-dicarboxylate;2,6-Dimethyl-3,5-didodecyloxycarbonyl-1,4-dihydropyridine;2,6-Dimethyl-3,5-dilauryloxycarbonyl-1,4-dihydropyridine;Stavinor D 507",
    "duplicated_cas_no": "",
    "SMILES": "C(OCCCCCCCCCCCC)(=O)C=1CC(C(OCCCCCCCCCCCC)=O)=C(C)NC1C",
    "meta_data": {
        "InChI": "InChI=1S/C33H59NO4/c1-5-7-9-11-13-15-17-19-21-23-25-37-32(35)30-27-31(29(4)34-28(30)3)33(36)38-26-24-22-20-18-16-14-12-10-8-6-2/h34H,5-27H2,1-4H3",
        "InChIKey": null,
        "Canonical SMILES": "O=C(OCCCCCCCCCCCC)C1=C(NC(=C(C(=O)OCCCCCCCCCCCC)C1)C)C",
        "Molecular Formula": "C<sub>33</sub>H<sub>59</sub>NO<sub>4</sub>",
        "Molecular Mass": "533.83",
        "Melting Point": "93-94 °C"
    }
}