{
    "cas_no": "6110-53-8",
    "key_name": "(9<em>Z</em>)-1-Bromo-9-octadecene",
    "cn_name": null,
    "alternate_name": "9-Octadecene, 1-bromo-, (9<em>Z</em>)-;9-Octadecene, 1-bromo-, (<em>Z</em>)-;(9<em>Z</em>)-1-Bromo-9-octadecene;Oleyl bromide;(<em>Z</em>)-1-Bromo-9-octadecene;(Z)-1-Bromooctadec-9-ene",
    "duplicated_cas_no": "1192430-70-8",
    "SMILES": "C(\\CCCCCCCCBr)=C\\CCCCCCCC",
    "meta_data": {
        "InChI": "InChI=1S/C18H35Br/c1-2-3-4-5-6-7-8-9-10-11-12-13-14-15-16-17-18-19/h9-10H,2-8,11-18H2,1H3/b10-9-",
        "InChIKey": null,
        "Canonical SMILES": "BrCCCCCCCCC=CCCCCCCCC",
        "Molecular Formula": "C<sub>18</sub>H<sub>35</sub>Br",
        "Molecular Mass": "331.37",
        "Boiling Point": "160-175 °C @ Press: 0.2 Torr"
    }
}