{
    "cas_no": "335-76-2",
    "key_name": "Perfluorodecanoic acid",
    "cn_name": "十九氟癸酸;",
    "alternate_name": "Decanoic acid, 2,2,3,3,4,4,5,5,6,6,7,7,8,8,9,9,10,10,10-nonadecafluoro-;Decanoic acid, nonadecafluoro-;2,2,3,3,4,4,5,5,6,6,7,7,8,8,9,9,10,10,10-Nonadecafluorodecanoic acid;Perfluorodecanoic acid;Nonadecafluorodecanoic acid;Perfluoro-<em>n</em>-decanoic acid;Nonadecafluoro-<em>n</em>-decanoic acid;Perfluorocapric acid;Perfluoro-1-nonanecarboxylic acid;PFDA",
    "duplicated_cas_no": "",
    "SMILES": "C(C(C(C(C(C(O)=O)(F)F)(F)F)(F)F)(F)F)(C(C(C(C(F)(F)F)(F)F)(F)F)(F)F)(F)F",
    "meta_data": {
        "InChI": "InChI=1S/C10HF19O2/c11-2(12,1(30)31)3(13,14)4(15,16)5(17,18)6(19,20)7(21,22)8(23,24)9(25,26)10(27,28)29/h(H,30,31)",
        "InChIKey": null,
        "Canonical SMILES": "O=C(O)C(F)(F)C(F)(F)C(F)(F)C(F)(F)C(F)(F)C(F)(F)C(F)(F)C(F)(F)C(F)(F)F",
        "Molecular Formula": "C<sub>10</sub>HF<sub>19</sub>O<sub>2</sub>",
        "Molecular Mass": "514.08",
        "Boiling Point": "144-170 °C @ Press: 130-158 Torr",
        "Melting Point": "67-72 °C"
    }
}