{
    "cas_no": "42346-68-9",
    "key_name": "1-Methyl-4-carboxy-2-pyrrolidone",
    "cn_name": null,
    "alternate_name": "3-Pyrrolidinecarboxylic acid, 1-methyl-5-oxo-;1-Methyl-5-oxo-3-pyrrolidinecarboxylic acid;<em>N</em>-Methyl-2-pyrrolidone-4-carboxylic acid;1-Methyl-4-carboxy-2-pyrrolidone;1-Methyl-2-oxo-4-pyrrolidinecarboxylic acid",
    "duplicated_cas_no": "",
    "SMILES": "C(O)(=O)C1CC(=O)N(C)C1",
    "meta_data": {
        "InChI": "InChI=1S/C6H9NO3/c1-7-3-4(6(9)10)2-5(7)8/h4H,2-3H2,1H3,(H,9,10)",
        "InChIKey": null,
        "Canonical SMILES": "O=C(O)C1CC(=O)N(C)C1",
        "Molecular Formula": "C<sub>6</sub>H<sub>9</sub>NO<sub>3</sub>",
        "Molecular Mass": "143.14",
        "Melting Point": "152 °C"
    }
}