{
    "cas_no": "3319-99-1",
    "key_name": "2-(2-Thienyl)pyridine",
    "cn_name": "2-(2-噻吩)吡啶;2-(2-噻吩基)吡啶;",
    "alternate_name": "Pyridine, 2-(2-thienyl)-;2-(2-Thienyl)pyridine;2-(2′-Thienyl)pyridine;2-(2-Pyridinyl)thiophene;2-(2-Pyridyl)thiophene;2-Thiophen-2-ylpyridine;2-(Thiophen-2-yl)pyridine",
    "duplicated_cas_no": "",
    "SMILES": "C1(=CC=CS1)C2=CC=CC=N2",
    "meta_data": {
        "InChI": "InChI=1S/C9H7NS/c1-2-6-10-8(4-1)9-5-3-7-11-9/h1-7H",
        "InChIKey": null,
        "Canonical SMILES": "N1=CC=CC=C1C=2SC=CC2",
        "Molecular Formula": "C<sub>9</sub>H<sub>7</sub>NS",
        "Molecular Mass": "161.22",
        "Boiling Point": "103-106 °C @ Press: 1 Torr",
        "Melting Point": "61.5 °C"
    }
}