{
    "cas_no": "638-59-5",
    "key_name": "Tetradecyl acetate",
    "cn_name": null,
    "alternate_name": "1-Tetradecanol, 1-acetate;1-Tetradecanol, acetate;Tetradecyl acetate;1-Tetradecyl acetate;Tetradecanol acetate;Myristyl acetate;<em>n</em>-Tetradecyl acetate;Acetic acid tetradecan-1-yl ester",
    "duplicated_cas_no": "",
    "SMILES": "C(CCCCCCCCCC)CCCOC(C)=O",
    "meta_data": {
        "InChI": "InChI=1S/C16H32O2/c1-3-4-5-6-7-8-9-10-11-12-13-14-15-18-16(2)17/h3-15H2,1-2H3",
        "InChIKey": null,
        "Canonical SMILES": "O=C(OCCCCCCCCCCCCCC)C",
        "Molecular Formula": "C<sub>16</sub>H<sub>32</sub>O<sub>2</sub>",
        "Molecular Mass": "256.42",
        "Boiling Point": "130-132 °C @ Press: 1 mmHg"
    }
}