{
    "cas_no": "13630-19-8",
    "key_name": "1-Methyl-2-(trifluoromethyl)benzene",
    "cn_name": "邻甲基三氟甲苯;2-甲基三氟甲基苯;",
    "alternate_name": "Benzene, 1-methyl-2-(trifluoromethyl)-;<em>o</em>-Xylene, α,α,α-trifluoro-;1-Methyl-2-(trifluoromethyl)benzene;2-(Trifluoromethyl)toluene;<em>o</em>-(Trifluoromethyl)toluene;2-Methyl-1-(trifluoromethyl)benzene",
    "duplicated_cas_no": "",
    "SMILES": "C(F)(F)(F)C1=C(C)C=CC=C1",
    "meta_data": {
        "InChI": "InChI=1S/C8H7F3/c1-6-4-2-3-5-7(6)8(9,10)11/h2-5H,1H3",
        "InChIKey": null,
        "Canonical SMILES": "FC(F)(F)C=1C=CC=CC1C",
        "Molecular Formula": "C<sub>8</sub>H<sub>7</sub>F<sub>3</sub>",
        "Molecular Mass": "160.14",
        "Boiling Point": "125-126 °C",
        "Density": "1.1740 g/cm³ @ Temp: 19 °C"
    }
}