{
    "cas_no": "103201-78-1",
    "key_name": "(4<em>S</em>)-4-Cyclohexyl-<span class=\"text-smallcaps\">L</span>-proline",
    "cn_name": "反式-4-环己基-L-脯氨酸;",
    "alternate_name": "<span class=\"text-smallcaps\">L</span>-Proline, 4-cyclohexyl-, (4<em>S</em>)-;<span class=\"text-smallcaps\">L</span>-Proline, 4-cyclohexyl-, <em>trans</em>-;(4<em>S</em>)-4-Cyclohexyl-<span class=\"text-smallcaps\">L</span>-proline;(2<em>S</em>,4<em>S</em>)-4-Cyclohexylpyrrolidine-2-carboxylic acid",
    "duplicated_cas_no": "120273-34-9",
    "SMILES": "C(O)(=O)[C@@H]1C[C@H](CN1)[C@@H]2CCCCC2",
    "meta_data": {
        "InChI": "InChI=1S/C11H19NO2/c13-11(14)10-6-9(7-12-10)8-4-2-1-3-5-8/h8-10,12H,1-7H2,(H,13,14)/t9-,10+/m1/s1",
        "InChIKey": null,
        "Canonical SMILES": "O=C(O)C1NCC(C1)C2CCCCC2",
        "Molecular Formula": "C<sub>11</sub>H<sub>19</sub>NO<sub>2</sub>",
        "Molecular Mass": "197.27",
        "Melting Point": "249-252 °C"
    }
}