{
    "cas_no": "538-71-6",
    "key_name": "Domiphen bromide",
    "cn_name": "度米芬;十二烷基-二甲基-2-苯氧基-乙基溴化铵;",
    "alternate_name": "1-Dodecanaminium, <em>N</em>,<em>N</em>-dimethyl-<em>N</em>-(2-phenoxyethyl)-, bromide (1:1);Ammonium, dodecyldimethyl(2-phenoxyethyl)-, bromide;1-Dodecanaminium, <em>N</em>,<em>N</em>-dimethyl-<em>N</em>-(2-phenoxyethyl)-, bromide;Dodecyldimethyl(2-phenoxyethyl)ammonium bromide;Bradosol;Bradosol bromide;Domiphen bromide;PDDB;Phenododecinium bromide;(β-Phenoxyethyl)dimethyldodecylammonium bromide;<em>N</em>-Dodecyl-<em>N</em>-(2-phenoxyethyl)dimethylammonium bromide;Bradonit;Bradoral;Oradol;Fungitex R;Fungitex;Modicare;NSC 39415;Neo-Bradoral",
    "duplicated_cas_no": "138846-42-1;2702-99-0;12040-53-8",
    "SMILES": "O(CC[N+](CCCCCCCCCCCC)(C)C)C1=CC=CC=C1.[Br-]",
    "meta_data": {
        "InChI": "InChI=1S/C22H40NO.BrH/c1-4-5-6-7-8-9-10-11-12-16-19-23(2,3)20-21-24-22-17-14-13-15-18-22;/h13-15,17-18H,4-12,16,19-21H2,1-3H3;1H/q+1;/p-1",
        "InChIKey": null,
        "Canonical SMILES": "[Br-].O(C=1C=CC=CC1)CC[N+](C)(C)CCCCCCCCCCCC",
        "Molecular Formula": "C<sub>22</sub>H<sub>40</sub>NO.Br",
        "Molecular Mass": "",
        "Melting Point": "112-113 °C"
    }
}