{
    "cas_no": "51-05-8",
    "key_name": "Procaine hydrochloride",
    "cn_name": "盐酸普鲁卡因;对氨基苯甲酸-2-二乙胺基乙酯盐酸盐;",
    "alternate_name": "Benzoic acid, 4-amino-, 2-(diethylamino)ethyl ester, hydrochloride (1:1);Benzoic acid, <em>p</em>-amino-, 2-(diethylamino)ethyl ester, monohydrochloride;Benzoic acid, 4-amino-, 2-(diethylamino)ethyl ester, monohydrochloride;Anadolor;Anesthesol;Anestil;Atoxicocaine;Cetain;Chlorocaine;Diethylaminoethanol 4-aminobenzoate hydrochloride;2-Diethylaminoethyl <em>p</em>-aminobenzoate hydrochloride;Ethocaine;Irocaine;Isocaine-Heisler;Juvocaine;Kerocaine;Lactocaine;Neocaine;Novocaine hydrochloride;Planocaine;Procaine hydrochloride;Naucaine;Paracain;Sevicaine;Syncaine;Topokain;Westocaine;Novocaine;Procaine monohydrochloride;Neotonocaine;Novocain;Polocaine;Scurocaine;Allocaine;Bernacaine;Aminocaine;Eugerase;Ethocain;Herocaine;Naucain;Geriocaine;Gerovital H<sub>3</sub>;Isocaine;Isocain;Omnicain;Medaject;Gero;Syntocain;Enpro;Rocain;Jenacaine;Gerovital;2-(Diethylamino)ethyl 4-aminobenzoate hydrochloride",
    "duplicated_cas_no": "138481-13-7;8023-03-8;12663-50-2;41585-82-4",
    "SMILES": "C(OCCN(CC)CC)(=O)C1=CC=C(N)C=C1.Cl",
    "meta_data": {
        "InChI": "InChI=1S/C13H20N2O2.ClH/c1-3-15(4-2)9-10-17-13(16)11-5-7-12(14)8-6-11;/h5-8H,3-4,9-10,14H2,1-2H3;1H",
        "InChIKey": null,
        "Canonical SMILES": "Cl.O=C(OCCN(CC)CC)C1=CC=C(N)C=C1",
        "Molecular Formula": "C<sub>13</sub>H<sub>20</sub>N<sub>2</sub>O<sub>2</sub>.ClH",
        "Molecular Mass": "",
        "Melting Point": "155.5 °C",
        "Density": "1.235 g/cm³"
    }
}