{
    "cas_no": "2897-60-1",
    "key_name": "γ-Glycidoxypropylmethyldiethoxysilane",
    "cn_name": "3-缩水甘油醚氧基丙基甲基二乙氧基硅烷;",
    "alternate_name": "Oxirane, 2-[[3-(diethoxymethylsilyl)propoxy]methyl]-;Silane, [3-(2,3-epoxypropoxy)propyl]diethoxymethyl-;Silane, diethoxymethyl[3-(oxiranylmethoxy)propyl]-;2-[[3-(Diethoxymethylsilyl)propoxy]methyl]oxirane;3-(Methyldiethoxysilyl)propyl glycidyl ether;Diethoxy[3-(glycidyloxy)propyl]methylsilane;3-(Glycidoxy)propyldiethoxymethylsilane;γ-Glycidyloxypropylmethyldiethoxysilane;γ-Glycidoxypropylmethyldiethoxysilane;Diethoxy-3-glycidoxypropylmethylsilane;KBE 402;SS 1390;G 6710;[3-(Glycidyloxy)propyl]methyldiethoxysilane;Silquest Y 11012;γ-Glycidoxypropylmethyldiethoxsilane;Z 6042;3-GPMDES;Silquest Wetlink 78;Silquest Y 15078;NSC 252159;Wetlink 78;3-(Glycidoxypropyl)methyldiethoxysilane;Geniosil GF 84;(3-Glycidyloxy)propyldiethoxymethylsilane;CoatOSil A 2287;KH 578;Deolink Epoxy DE 100;KH 563;Si 563;KH 7180;DB 562;CoatOSil 2287;CoatOSil C 2287;Link 78;KH 613;Glycidoxypropyl methyl diethoxy silane;B 92",
    "duplicated_cas_no": "335446-97-4;1225195-35-6",
    "SMILES": "[Si](CCCOCC1CO1)(OCC)(OCC)C",
    "meta_data": {
        "InChI": "InChI=1S/C11H24O4Si/c1-4-14-16(3,15-5-2)8-6-7-12-9-11-10-13-11/h11H,4-10H2,1-3H3",
        "InChIKey": null,
        "Canonical SMILES": "O(CCC[Si](OCC)(OCC)C)CC1OC1",
        "Molecular Formula": "C<sub>11</sub>H<sub>24</sub>O<sub>4</sub>Si",
        "Molecular Mass": "248.39",
        "Boiling Point": "122-126 °C @ Press: 5 Torr",
        "Density": "0.978 g/cm³ @ Temp: 25 °C"
    }
}