{
    "cas_no": "5870-93-9",
    "key_name": "Heptyl butyrate",
    "cn_name": "丁酸庚酯;",
    "alternate_name": "Butanoic acid, heptyl ester;Butyric acid, heptyl ester;Heptyl butyrate;Heptyl butanoate",
    "duplicated_cas_no": "",
    "SMILES": "C(OCCCCCCC)(CCC)=O",
    "meta_data": {
        "InChI": "InChI=1S/C11H22O2/c1-3-5-6-7-8-10-13-11(12)9-4-2/h3-10H2,1-2H3",
        "InChIKey": null,
        "Canonical SMILES": "O=C(OCCCCCCC)CCC",
        "Molecular Formula": "C<sub>11</sub>H<sub>22</sub>O<sub>2</sub>",
        "Molecular Mass": "186.29",
        "Boiling Point": "225.8 °C",
        "Melting Point": "-57.5 °C",
        "Density": "0.8827 g/cm³"
    }
}