{
    "cas_no": "88-13-1",
    "key_name": "3-Thiophenecarboxylic acid",
    "cn_name": "3-噻吩甲酸;",
    "alternate_name": "3-Thiophenecarboxylic acid;3-Thenoic acid;β-Thiophenecarboxylic acid;β-Thiophenic acid;3-Thienylcarboxylic acid;3-Carboxythiophene;NSC 66314;Thiophene-3-carboxylic acid",
    "duplicated_cas_no": "2244576-84-7",
    "SMILES": "C(O)(=O)C=1C=CSC1",
    "meta_data": {
        "InChI": "InChI=1S/C5H4O2S/c6-5(7)4-1-2-8-3-4/h1-3H,(H,6,7)",
        "InChIKey": null,
        "Canonical SMILES": "O=C(O)C1=CSC=C1",
        "Molecular Formula": "C<sub>5</sub>H<sub>4</sub>O<sub>2</sub>S",
        "Molecular Mass": "128.15",
        "Melting Point": "138 °C"
    }
}