{
    "cas_no": "610-17-3",
    "key_name": "<em>N</em>,<em>N</em>-Dimethyl-2-nitrobenzenamine",
    "cn_name": "N,N-二甲基对硝基苯胺;4-硝基-N,N-二甲基苯胺;N,N-二甲基-4-硝基苯胺;",
    "alternate_name": "Benzenamine, <em>N</em>,<em>N</em>-dimethyl-2-nitro-;Aniline, <em>N</em>,<em>N</em>-dimethyl-<em>o</em>-nitro-;<em>N</em>,<em>N</em>-Dimethyl-2-nitrobenzenamine;<em>N</em>,<em>N</em>-Dimethyl-<em>o</em>-nitroaniline;<em>N</em>,<em>N</em>-Dimethyl-2-nitroaniline;<em>o</em>-Nitro-<em>N</em>,<em>N</em>-dimethylaniline;<em>o</em>-(Dimethylamino)nitrobenzene;2-Nitro-<em>N</em>,<em>N</em>-dimethylaniline",
    "duplicated_cas_no": "",
    "SMILES": "N(C)(C)C1=C(N(=O)=O)C=CC=C1",
    "meta_data": {
        "InChI": "InChI=1S/C8H10N2O2/c1-9(2)7-5-3-4-6-8(7)10(11)12/h3-6H,1-2H3",
        "InChIKey": null,
        "Canonical SMILES": "O=N(=O)C=1C=CC=CC1N(C)C",
        "Molecular Formula": "C<sub>8</sub>H<sub>10</sub>N<sub>2</sub>O<sub>2</sub>",
        "Molecular Mass": "166.18",
        "Boiling Point": "154 °C @ Press: 24 Torr",
        "Melting Point": "-20 °C",
        "Density": "1.1794 g/cm³"
    }
}