{
    "cas_no": "588-43-2",
    "key_name": "1,1′,1′′-[Methylidynetris(oxy)]tris[butane]",
    "cn_name": "原甲酸三正丁基酯;",
    "alternate_name": "Butane, 1,1′,1′′-[methylidynetris(oxy)]tris-;Orthoformic acid, tributyl ester;1,1′,1′′-[Methylidynetris(oxy)]tris[butane];Tributyl orthoformate;Tri-<em>n</em>-butyl orthoformate;Tri(<em>n</em>-butoxy)methane;Tributoxymethane;NSC 8488;1-(Dibutoxymethoxy)butane",
    "duplicated_cas_no": "",
    "SMILES": "C(OCCCC)(OCCCC)OCCCC",
    "meta_data": {
        "InChI": "InChI=1S/C13H28O3/c1-4-7-10-14-13(15-11-8-5-2)16-12-9-6-3/h13H,4-12H2,1-3H3",
        "InChIKey": null,
        "Canonical SMILES": "O(CCCC)C(OCCCC)OCCCC",
        "Molecular Formula": "C<sub>13</sub>H<sub>28</sub>O<sub>3</sub>",
        "Molecular Mass": "232.36",
        "Boiling Point": "245-247 °C",
        "Density": "0.8687 g/cm³ @ Temp: 25 °C"
    }
}