{
    "cas_no": "481-42-5",
    "key_name": "Plumbagin",
    "cn_name": "1,4-二氨基-2,3-二氯蒽醌;2,3-二氯-1,4-二氨基蒽醌;",
    "alternate_name": "1,4-Naphthalenedione, 5-hydroxy-2-methyl-;Plumbagin;1,4-Naphthoquinone, 5-hydroxy-2-methyl-;5-Hydroxy-2-methyl-1,4-naphthalenedione;5-Hydroxy-2-methyl-1,4-naphthoquinone;2-Methyl-5-hydroxy-1,4-naphthoquinone;Plumbagine;Plumbagone;2-Methyljuglone;NSC 236613;NSC 688284;2-Methyl-5-hydroxy-1,4-naphthalenedione",
    "duplicated_cas_no": "",
    "SMILES": "O=C1C=2C(C(=O)C=C1C)=C(O)C=CC2",
    "meta_data": {
        "InChI": "InChI=1S/C11H8O3/c1-6-5-9(13)10-7(11(6)14)3-2-4-8(10)12/h2-5,12H,1H3",
        "InChIKey": null,
        "Canonical SMILES": "O=C1C=C(C(=O)C=2C=CC=C(O)C12)C",
        "Molecular Formula": "C<sub>11</sub>H<sub>8</sub>O<sub>3</sub>",
        "Molecular Mass": "188.18",
        "Boiling Point": "70-90 °C",
        "Melting Point": "78.5 °C",
        "Density": "1.380 g/cm³"
    }
}