{
    "cas_no": "147444-03-9",
    "key_name": "Pyripyropene A",
    "cn_name": null,
    "alternate_name": "2<em>H</em>,11<em>H</em>-Naphtho[2,1-<em>b</em>]pyrano[3,4-<em>e</em>]pyran-11-one, 3,6-bis(acetyloxy)-4-[(acetyloxy)methyl]-1,3,4,4a,5,6,6a,12,12a,12b-decahydro-12-hydroxy-4,6a,12b-trimethyl-9-(3-pyridinyl)-, (3<em>S</em>,4<em>R</em>,4a<em>R</em>,6<em>S</em>,6a<em>S</em>,12<em>R</em>,12a<em>S</em>,12b<em>S</em>)-;2<em>H</em>,11<em>H</em>-Naphtho[2,1-<em>b</em>]pyrano[3,4-<em>e</em>]pyran-11-one, 3,6-bis(acetyloxy)-4-[(acetyloxy)methyl]-1,3,4,4a,5,6,6a,12,12a,12b-decahydro-12-hydroxy-4,6a,12b-trimethyl-9-(3-pyridinyl)-, [3<em>S</em>-(3α,4β,4aβ,6α,6aα,12α,12aβ,12bα)]-;(3<em>S</em>,4<em>R</em>,4a<em>R</em>,6<em>S</em>,6a<em>S</em>,12<em>R</em>,12a<em>S</em>,12b<em>S</em>)-3,6-Bis(acetyloxy)-4-[(acetyloxy)methyl]-1,3,4,4a,5,6,6a,12,12a,12b-decahydro-12-hydroxy-4,6a,12b-trimethyl-9-(3-pyridinyl)-2<em>H</em>,11<em>H</em>-naphtho[2,1-<em>b</em>]pyrano[3,4-<em>e</em>]pyran-11-one;FO 1289A;Pyripyropene A;(+)-Pyripyropene A",
    "duplicated_cas_no": "167897-54-3",
    "SMILES": "C[C@@]12[C@@]3([C@@](C)([C@@H](OC(C)=O)C[C@]1([C@@](COC(C)=O)(C)[C@@H](OC(C)=O)CC2)[H])OC4=C([C@@H]3O)C(=O)OC(=C4)C=5C=CC=NC5)[H]",
    "meta_data": {
        "InChI": "InChI=1S/C31H37NO10/c1-16(33)38-15-30(5)22-13-24(40-18(3)35)31(6)27(29(22,4)10-9-23(30)39-17(2)34)26(36)25-21(42-31)12-20(41-28(25)37)19-8-7-11-32-14-19/h7-8,11-12,14,22-24,26-27,36H,9-10,13,15H2,1-6H3/t22-,23+,24+,26+,27-,29+,30+,31-/m1/s1",
        "InChIKey": null,
        "Canonical SMILES": "O=C1OC(=CC=2OC3(C)C(OC(=O)C)CC4C(C)(COC(=O)C)C(OC(=O)C)CCC4(C)C3C(O)C12)C=5C=NC=CC5",
        "Molecular Formula": "C<sub>31</sub>H<sub>37</sub>NO<sub>10</sub>",
        "Molecular Mass": "583.63",
        "Melting Point": "152-153 °C"
    }
}