{
    "cas_no": "42908-86-1",
    "key_name": "2-(Chloromethyl)benzoyl chloride",
    "cn_name": "2-(氯甲基)苯甲酰氯;",
    "alternate_name": "Benzoyl chloride, 2-(chloromethyl)-;<em>o</em>-Toluoyl chloride, α-chloro-;2-(Chloromethyl)benzoyl chloride;<em>o</em>-Chloromethylbenzoyl chloride;2-(Chloromethyl)benzoic acid chloride",
    "duplicated_cas_no": "",
    "SMILES": "C(Cl)C1=C(C(Cl)=O)C=CC=C1",
    "meta_data": {
        "InChI": "InChI=1S/C8H6Cl2O/c9-5-6-3-1-2-4-7(6)8(10)11/h1-4H,5H2",
        "InChIKey": null,
        "Canonical SMILES": "O=C(Cl)C=1C=CC=CC1CCl",
        "Molecular Formula": "C<sub>8</sub>H<sub>6</sub>Cl<sub>2</sub>O",
        "Molecular Mass": "189.04",
        "Boiling Point": "135 °C @ Press: 14 Torr"
    }
}