{
    "cas_no": "92-52-4",
    "key_name": "Biphenyl",
    "cn_name": "联苯;苯基苯;联二苯;",
    "alternate_name": "1,1′-Biphenyl;Biphenyl;Diphenyl;Phenylbenzene;Bibenzene;1,1′-Diphenyl;Tetrosin LY;Carolid AL;NSC 14916",
    "duplicated_cas_no": "56481-93-7;72931-46-5;1135443-72-9",
    "SMILES": "C1(=CC=CC=C1)C2=CC=CC=C2",
    "meta_data": {
        "InChI": "InChI=1S/C12H10/c1-3-7-11(8-4-1)12-9-5-2-6-10-12/h1-10H",
        "InChIKey": null,
        "Canonical SMILES": "C=1C=CC(=CC1)C=2C=CC=CC2",
        "Molecular Formula": "C<sub>12</sub>H<sub>10</sub>",
        "Molecular Mass": "154.21",
        "Boiling Point": "254-255 °C",
        "Melting Point": "69-71 °C",
        "Density": "1.041 g/cm³ @ Temp: 20 °C"
    }
}