{
    "cas_no": "859833-22-0",
    "key_name": "1-[[4-(4,4,5,5-Tetramethyl-1,3,2-dioxaborolan-2-yl)phenyl]methyl]piperidine",
    "cn_name": null,
    "alternate_name": "Piperidine, 1-[[4-(4,4,5,5-tetramethyl-1,3,2-dioxaborolan-2-yl)phenyl]methyl]-;1-[[4-(4,4,5,5-Tetramethyl-1,3,2-dioxaborolan-2-yl)phenyl]methyl]piperidine;[4-(Piperidinomethyl)phenyl]boronic acid pinacol ester;1-[[4-(Tetramethyl-1,3,2-dioxaborolan-2-yl)phenyl]methyl]piperidine",
    "duplicated_cas_no": "",
    "SMILES": "CC1(C)OB(OC1(C)C)C2=CC=C(CN3CCCCC3)C=C2",
    "meta_data": {
        "InChI": "InChI=1S/C18H28BNO2/c1-17(2)18(3,4)22-19(21-17)16-10-8-15(9-11-16)14-20-12-6-5-7-13-20/h8-11H,5-7,12-14H2,1-4H3",
        "InChIKey": null,
        "Canonical SMILES": "O1B(OC(C)(C)C1(C)C)C2=CC=C(C=C2)CN3CCCCC3",
        "Molecular Formula": "C<sub>18</sub>H<sub>28</sub>BNO<sub>2</sub>",
        "Molecular Mass": "301.23",
        "Melting Point": "97-99 °C"
    }
}