{
    "cas_no": "2483-57-0",
    "key_name": "Methyl 2-nitroacetate",
    "cn_name": "硝基乙酸甲酯;",
    "alternate_name": "Acetic acid, 2-nitro-, methyl ester;Acetic acid, nitro-, methyl ester;Methyl 2-nitroacetate;Methyl nitroacetate;Nitroacetic acid methyl ester;Methyl α-nitroacetate;NSC 16153",
    "duplicated_cas_no": "",
    "SMILES": "C(CN(=O)=O)(OC)=O",
    "meta_data": {
        "InChI": "InChI=1S/C3H5NO4/c1-8-3(5)2-4(6)7/h2H2,1H3",
        "InChIKey": null,
        "Canonical SMILES": "O=C(OC)CN(=O)=O",
        "Molecular Formula": "C<sub>3</sub>H<sub>5</sub>NO<sub>4</sub>",
        "Molecular Mass": "119.08",
        "Boiling Point": "68 °C @ Press: 2.0 Torr",
        "Density": "1.3072 g/cm³ @ Temp: 20 °C"
    }
}