{
    "cas_no": "154-42-7",
    "key_name": "Thioguanine",
    "cn_name": "6-硫鸟嘌呤;2-氨基嘌呤-6(1H)-硫酮;",
    "alternate_name": "6<em>H</em>-Purine-6-thione, 2-amino-1,9-dihydro-;6<em>H</em>-Purine-6-thione, 2-amino-1,7-dihydro-;Purine-6(1<em>H</em>)-thione, 2-amino-;Purine-6(1<em>H</em>)-thione, 2,3-dihydro-2-imino-;Purine-6-thiol, 2-amino-;2-Amino-1,9-dihydro-6<em>H</em>-purine-6-thione;NSC 752;Tabloid;6-Thioguanine;Guanine, thio-;Thioguanine;2-Amino-6-mercaptopurine;6-Mercaptoguanine;2-Aminopurine-6-thiol;Tioguanin;6-TG;Tioguanine;2-Amino-9<em>H</em>-purine-6(1<em>H</em>)-thione;NSC 76504;Lanvis;2-Amino-9<em>H</em>-purine-6-thiol;Thioguanine Tabloid;2-Amino-3,7-dihydropurine-6-thione;2-Amino-1<em>H</em>-purine-6(7<em>H</em>)-thione;2-Amino-1,9-dihydro-purine-6-thione;2-Amino-7<em>H</em>-purine-6-thiol;MeSH ID: D013866",
    "duplicated_cas_no": "611-67-6;1125-65-1;1832-72-0;5632-51-9;153981-50-1;158476-00-7",
    "SMILES": "S=C1C2=C(NC(N)=N1)N=CN2",
    "meta_data": {
        "InChI": "InChI=1S/C5H5N5S/c6-5-9-3-2(4(11)10-5)7-1-8-3/h1H,(H4,6,7,8,9,10,11)",
        "InChIKey": null,
        "Canonical SMILES": "S=C1N=C(N)NC=2N=CNC12",
        "Molecular Formula": "C<sub>5</sub>H<sub>5</sub>N<sub>5</sub>S",
        "Molecular Mass": "167.19",
        "Melting Point": "&gt;360 °C"
    }
}