{
    "cas_no": "58442-17-4",
    "key_name": "1<em>H</em>-Benzimidazole-6-carboxaldehyde",
    "cn_name": null,
    "alternate_name": "1<em>H</em>-Benzimidazole-6-carboxaldehyde;1<em>H</em>-Benzimidazole-5-carboxaldehyde;Benzimidazole-6-carboxaldehyde;Benzimidazole-5-carboxaldehyde;1<em>H</em>-Benzo[<em>d</em>]imidazole-5-carbaldehyde;1<em>H</em>-1,3-Benzodiazole-6-carbaldehyde;1<em>H</em>-1,3-Benzodiazole-5-carbaldehyde",
    "duplicated_cas_no": "",
    "SMILES": "C(=O)C=1C=C2C(=CC1)N=CN2",
    "meta_data": {
        "InChI": "InChI=1S/C8H6N2O/c11-4-6-1-2-7-8(3-6)10-5-9-7/h1-5H,(H,9,10)",
        "InChIKey": null,
        "Canonical SMILES": "O=CC=1C=CC=2N=CNC2C1",
        "Molecular Formula": "C<sub>8</sub>H<sub>6</sub>N<sub>2</sub>O",
        "Molecular Mass": "146.15",
        "Melting Point": "163-165 °C"
    }
}