{
    "cas_no": "51-75-2",
    "key_name": "Mechlorethamine",
    "cn_name": null,
    "alternate_name": "Ethanamine, 2-chloro-<em>N</em>-(2-chloroethyl)-<em>N</em>-methyl-;Diethylamine, 2,2′-dichloro-<em>N</em>-methyl-;2-Chloro-<em>N</em>-(2-chloroethyl)-<em>N</em>-methylethanamine;<em>N</em>,<em>N</em>-Bis(2-chloroethyl)methylamine;Bis(β-chloroethyl)methylamine;Bis(2-chloroethyl)methylamine;Chlormethine;Di(2-chloroethyl)methylamine;2,2′-Dichloro-<em>N</em>-methyldiethylamine;HN<sub>2</sub> (amine);MBA;Mechlorethamine;Methylbis(β-chloroethyl)amine;<em>N</em>-Methyl-2,2′-dichlorodiethylamine;Methyldi(2-chloroethyl)amine;Mustargen;Mustine;<em>N</em>-Methylbis(2-chloroethyl)amine;Methylbis(2-chloroethyl)amine;<em>N</em>-Methylbis(β-chloroethyl)amine;<em>N</em>,<em>N</em>-Di(chloroethyl)methylamine;Cloramin;Chlorethazine;HN<sub>2</sub>;Methyl-β,β-dichlorodiethylamine;Mustine Note;Nitrogen mustard (HN 2);NSC 128663;Valchlor;Ledaga;MeSH ID: D008466",
    "duplicated_cas_no": "",
    "SMILES": "N(CCCl)(CCCl)C",
    "meta_data": {
        "InChI": "InChI=1S/C5H11Cl2N/c1-8(4-2-6)5-3-7/h2-5H2,1H3",
        "InChIKey": null,
        "Canonical SMILES": "ClCCN(C)CCCl",
        "Molecular Formula": "C<sub>5</sub>H<sub>11</sub>Cl<sub>2</sub>N",
        "Molecular Mass": "156.05",
        "Boiling Point": "87 °C @ Press: 18 Torr",
        "Melting Point": "-60 °C",
        "Density": "1.118 g/cm³ @ Temp: 25 °C"
    }
}