{
    "cas_no": "43056-63-9",
    "key_name": "AMOZ",
    "cn_name": "硝基呋喃代谢物;硝基呋喃代谢物AMOZ;",
    "alternate_name": "2-Oxazolidinone, 3-amino-5-(4-morpholinylmethyl)-;2-Oxazolidinone, 3-amino-5-(morpholinomethyl)-;3-Amino-5-(4-morpholinylmethyl)-2-oxazolidinone;AMOZ;3-Amino-5-morpholinomethyl-2-oxazolidone;3-Amino-5-morpholinomethyl-2-oxazolidinone;3-Amino-5-(morpholin-4-ylmethyl)-1,3-oxazolidin-2-one;3-Amino-5-[(morpholin-4-yl)methyl]-1,3-oxazolidin-2-one",
    "duplicated_cas_no": "",
    "SMILES": "C(C1CN(N)C(=O)O1)N2CCOCC2",
    "meta_data": {
        "InChI": "InChI=1S/C8H15N3O3/c9-11-6-7(14-8(11)12)5-10-1-3-13-4-2-10/h7H,1-6,9H2",
        "InChIKey": null,
        "Canonical SMILES": "O=C1OC(CN1N)CN2CCOCC2",
        "Molecular Formula": "C<sub>8</sub>H<sub>15</sub>N<sub>3</sub>O<sub>3</sub>",
        "Molecular Mass": "201.22",
        "Melting Point": "120 °C"
    }
}