{
    "cas_no": "54-60-4",
    "key_name": "2-[(4-Fluorophenyl)amino]benzoic acid",
    "cn_name": null,
    "alternate_name": "Benzoic acid, 2-[(4-fluorophenyl)amino]-;Anthranilic acid, <em>N</em>-(<em>p</em>-fluorophenyl)-;2-[(4-Fluorophenyl)amino]benzoic acid;<em>N</em>-(<em>p</em>-Fluorophenyl)anthranilic acid;<em>N</em>-(4-Fluorophenyl)anthranilic acid;2-(4-Fluorophenylamino)benzoic acid;2-(4-Fluoroanilino)benzoic acid",
    "duplicated_cas_no": "",
    "SMILES": "N(C1=C(C(O)=O)C=CC=C1)C2=CC=C(F)C=C2",
    "meta_data": {
        "InChI": "InChI=1S/C13H10FNO2/c14-9-5-7-10(8-6-9)15-12-4-2-1-3-11(12)13(16)17/h1-8,15H,(H,16,17)",
        "InChIKey": null,
        "Canonical SMILES": "O=C(O)C=1C=CC=CC1NC2=CC=C(F)C=C2",
        "Molecular Formula": "C<sub>13</sub>H<sub>10</sub>FNO<sub>2</sub>",
        "Molecular Mass": "231.22",
        "Melting Point": "200 °C"
    }
}