{
    "cas_no": "622-79-7",
    "key_name": "Benzyl azide",
    "cn_name": "苄基叠氮;",
    "alternate_name": "Benzene, (azidomethyl)-;Toluene, α-azido-;(Azidomethyl)benzene;Benzyl azide;α-Azidotoluene;NSC 26304",
    "duplicated_cas_no": "2137913-41-6",
    "SMILES": "C(N=[N+]=[N-])C1=CC=CC=C1",
    "meta_data": {
        "InChI": "InChI=1S/C7H7N3/c8-10-9-6-7-4-2-1-3-5-7/h1-5H,6H2",
        "InChIKey": null,
        "Canonical SMILES": "[N-]=[N+]=NCC=1C=CC=CC1",
        "Molecular Formula": "C<sub>7</sub>H<sub>7</sub>N<sub>3</sub>",
        "Molecular Mass": "",
        "Boiling Point": "82.5 °C @ Press: 16.5 Torr",
        "Melting Point": "157 °C (decomp)",
        "Density": "1.0321 g/cm³ @ Temp: 25 °C"
    }
}