{
    "cas_no": "9003-49-0",
    "key_name": "Poly(butyl acrylate)",
    "cn_name": null,
    "alternate_name": "2-Propenoic acid, butyl ester, homopolymer;Acrylic acid butyl ester, polymers;Butyl acrylate polymer;<em>n</em>-Butyl acrylate polymer;Plexigum D;Poly(butyl acrylate);Poly(<em>n</em>-butyl acrylate);Acronal 4L;PA 4 (polyacrylate);Butyl acrylate resin;Acrylic acid butyl ester polymer;Acronal 4F;Rhoplex N 580;Polysol A 612;Rhoplex LC 67;Plexisol D 592;PA 4;Plextol D 360;Primal LC 67;Rhoplex N 580S;Voncoat R 3310;Primal N 580S;Butyl acrylate homopolymer;Acrylic acid, butyl ester, homopolymer;Acrybase MS 2003-1;CH 5967;Acronal LR 8820;Acronal 3433;MS 2003-1;Diaaid AD 9002;Primal N 580;Acronal A 150F;Acronal 102;Seracryl 995;Plextol DV 544;<em>n</em>-Butyl acrylate homopolymer;KK 1-1;Plex 4124D;Plextol X 4324;AR 2600;Arufon UP 1021;S-Dine 7450;Lenteks B 160;B 160;Paracron SN 50DR;SN 50DR;Triethylene tetramine-butyl acrylate-epichlorohydrin copolymer;Nanhai 588;Butyl acrylate-methyl 2-(dimethylstibanyl)-2-methylpropionate telomer;Butyl acrylate-diethyl-2,5-dibromoadipate copolymer;P 9984A-nBuANH2;Butyl acrylate-acetonitrile copolymer;Micryl 105;2-Propenoic acid, butyl ester, polymer with gypsum;Gypsum, polymer with butyl 2-propenoate;HCA 101;M 35;M 35 (acrylic polymer);RC 300;PSS-TBA 290k;UP 1021;2-Propenoic acid, butyl ester, polymer with 3-(dimethoxymethylsilyl)-1-propanethiol;1-Propanethiol, 3-(dimethoxymethylsilyl)-, polymer with butyl 2-propenoate",
    "duplicated_cas_no": "56257-66-0;60194-51-6;62362-39-4;71343-67-4;81989-46-0;86090-89-3;110083-43-7;110866-53-0;112790-39-3;164251-78-9;171022-03-0;171022-04-1;615584-07-1;646508-36-3;700365-04-4;892396-49-5;1204745-47-0;1307225-99-5;1352291-39-4;1357306-53-6;1582254-48-5;2093331-53-2;2093331-73-6;2588391-50-6",
    "SMILES": "C(OCCCC)(C=C)=O",
    "meta_data": {
        "InChI": "InChI=1S/C7H12O2/c1-3-5-6-9-7(8)4-2/h4H,2-3,5-6H2,1H3",
        "InChIKey": null,
        "Canonical SMILES": "O=C(OCCCC)C=C",
        "Molecular Formula": "(C<sub>7</sub>H<sub>12</sub>O<sub>2</sub>)<sub>x</sub>",
        "Molecular Mass": "",
        "Melting Point": "81-83 °C",
        "Density": "1.026 g/cm³"
    }
}