{
    "cas_no": "120258-69-7",
    "key_name": "2,8-Dichloroquinoxaline",
    "cn_name": null,
    "alternate_name": "Quinoxaline, 2,8-dichloro-;2,8-Dichloroquinoxaline",
    "duplicated_cas_no": "",
    "SMILES": "ClC=1C2=C(N=CC(Cl)=N2)C=CC1",
    "meta_data": {
        "InChI": "InChI=1S/C8H4Cl2N2/c9-5-2-1-3-6-8(5)12-7(10)4-11-6/h1-4H",
        "InChIKey": null,
        "Canonical SMILES": "ClC1=NC2=C(Cl)C=CC=C2N=C1",
        "Molecular Formula": "C<sub>8</sub>H<sub>4</sub>Cl<sub>2</sub>N<sub>2</sub>",
        "Molecular Mass": "199.04",
        "Melting Point": "190-195 °C"
    }
}