{
    "cas_no": "475-80-9",
    "key_name": "Aristolochic acid II",
    "cn_name": null,
    "alternate_name": "Phenanthro[3,4-<em>d</em>]-1,3-dioxole-5-carboxylic acid, 6-nitro-;Aristolochic acid II;6-Nitrophenanthro[3,4-<em>d</em>]-1,3-dioxole-5-carboxylic acid;3,4-(Methylenedioxy)-10-nitrophenanthrene-1-carboxylic acid;Aristolochic acid B",
    "duplicated_cas_no": "79468-63-6",
    "SMILES": "C(O)(=O)C1=C2C(=C3C(=C1)OCO3)C=4C(C=C2N(=O)=O)=CC=CC4",
    "meta_data": {
        "InChI": "InChI=1S/C16H9NO6/c18-16(19)10-6-12-15(23-7-22-12)14-9-4-2-1-3-8(9)5-11(13(10)14)17(20)21/h1-6H,7H2,(H,18,19)",
        "InChIKey": null,
        "Canonical SMILES": "O=C(O)C1=CC=2OCOC2C=3C=4C=CC=CC4C=C(C13)N(=O)=O",
        "Molecular Formula": "C<sub>16</sub>H<sub>9</sub>NO<sub>6</sub>",
        "Molecular Mass": "311.25",
        "Melting Point": "269-271 °C (decomp)"
    }
}