{
    "cas_no": "15891-50-6",
    "key_name": "<em>N</em>-Acetyl-<span class=\"text-smallcaps\">L</span>-norvaline",
    "cn_name": null,
    "alternate_name": "<span class=\"text-smallcaps\">L</span>-Norvaline, <em>N</em>-acetyl-;Norvaline, <em>N</em>-acetyl-, <span class=\"text-smallcaps\">L</span>-;<em>N</em>-Acetyl-<span class=\"text-smallcaps\">L</span>-norvaline;Acetyl-<span class=\"text-smallcaps\">L</span>-norvaline;(<em>S</em>)-2-Acetamidopentanoic acid;(2S)-2-Acetamidopentanoic acid",
    "duplicated_cas_no": "55682-60-5",
    "SMILES": "[C@H](NC(C)=O)(CCC)C(O)=O",
    "meta_data": {
        "InChI": "InChI=1S/C7H13NO3/c1-3-4-6(7(10)11)8-5(2)9/h6H,3-4H2,1-2H3,(H,8,9)(H,10,11)/t6-/m0/s1",
        "InChIKey": null,
        "Canonical SMILES": "O=C(NC(C(=O)O)CCC)C",
        "Molecular Formula": "C<sub>7</sub>H<sub>13</sub>NO<sub>3</sub>",
        "Molecular Mass": "159.18",
        "Melting Point": "116-117 °C"
    }
}