{
    "cas_no": "141-76-4",
    "key_name": "3-Iodopropionic acid",
    "cn_name": "3-碘丙酸;3-碘丙酸,99%;",
    "alternate_name": "Propanoic acid, 3-iodo-;Propionic acid, 3-iodo-;3-Iodopropanoic acid;3-Iodopropionic acid;β-Iodopropionic acid;NSC 2124",
    "duplicated_cas_no": "",
    "SMILES": "C(C(O)=O)CI",
    "meta_data": {
        "InChI": "InChI=1S/C3H5IO2/c4-2-1-3(5)6/h1-2H2,(H,5,6)",
        "InChIKey": null,
        "Canonical SMILES": "O=C(O)CCI",
        "Molecular Formula": "C<sub>3</sub>H<sub>5</sub>IO<sub>2</sub>",
        "Molecular Mass": "199.98",
        "Melting Point": "81.5 °C"
    }
}