{
    "cas_no": "6988-21-2",
    "key_name": "Dioxacarb",
    "cn_name": "二氧威;2-(1，3-二氧戊环-2-基)苯基氨基甲酸甲酯;",
    "alternate_name": "Phenol, 2-(1,3-dioxolan-2-yl)-, 1-(<em>N</em>-methylcarbamate);Carbamic acid, methyl-, <em>o</em>-1,3-dioxolan-2-ylphenyl ester;Phenol, 2-(1,3-dioxolan-2-yl)-, methylcarbamate;C 8353;CIBA 8353;2-(1,3-Dioxolane-2-yl)-phenyl <em>N</em>-methylcarbamate;<em>o</em>-(1,3-Dioxolan-2-yl)phenyl methylcarbamate;CIBA C 8353;Dioxacarb;Famid;Du Pont 1519;2-(1,3-Dioxolan-2-yl)phenyl <em>N</em>-methylcarbamate;Elocron;Elocron 50WP;MCDP;Elocron 8353;2-(1,3-Dioxolan-2-yl)phenyl methylcarbamate;Rovlinka",
    "duplicated_cas_no": "",
    "SMILES": "O(C(NC)=O)C1=C(C=CC=C1)C2OCCO2",
    "meta_data": {
        "InChI": "InChI=1S/C11H13NO4/c1-12-11(13)16-9-5-3-2-4-8(9)10-14-6-7-15-10/h2-5,10H,6-7H2,1H3,(H,12,13)",
        "InChIKey": null,
        "Canonical SMILES": "O=C(OC=1C=CC=CC1C2OCCO2)NC",
        "Molecular Formula": "C<sub>11</sub>H<sub>13</sub>NO<sub>4</sub>",
        "Molecular Mass": "223.23",
        "Melting Point": "114.5 °C"
    }
}