{
    "cas_no": "2052-15-5",
    "key_name": "Butyl levulinate",
    "cn_name": "乙酰丙酸丁酯;",
    "alternate_name": "Pentanoic acid, 4-oxo-, butyl ester;Levulinic acid, butyl ester;Butyl levulinate;<em>n</em>-Butyl levulinate;4-Ketopentanoic acid butyl ester;Butyl 4-oxopentanoate;NSC 78451;NXT Solv 200;NS 200",
    "duplicated_cas_no": "",
    "SMILES": "C(CCC(C)=O)(OCCCC)=O",
    "meta_data": {
        "InChI": "InChI=1S/C9H16O3/c1-3-4-7-12-9(11)6-5-8(2)10/h3-7H2,1-2H3",
        "InChIKey": null,
        "Canonical SMILES": "O=C(OCCCC)CCC(=O)C",
        "Molecular Formula": "C<sub>9</sub>H<sub>16</sub>O<sub>3</sub>",
        "Molecular Mass": "172.22",
        "Boiling Point": "237.5 °C",
        "Density": "0.97452 g/cm³ @ Temp: 20 °C"
    }
}