{
    "cas_no": "1436-34-6",
    "key_name": "2-Butyloxirane",
    "cn_name": "1,2-环氧己烷;丁基环氧乙烷;",
    "alternate_name": "Oxirane, 2-butyl-;Hexane, 1,2-epoxy-;Oxirane, butyl-;2-Butyloxirane;1,2-Hexene oxide;1,2-Epoxyhexane;1-Hexene epoxide;1-Hexene oxide;Butyloxirane;(±)-1,2-Epoxyhexane;(±)-Butyloxirane;NSC 24268",
    "duplicated_cas_no": "122922-40-1;56158-38-4",
    "SMILES": "C(CCC)C1CO1",
    "meta_data": {
        "InChI": "InChI=1S/C6H12O/c1-2-3-4-6-5-7-6/h6H,2-5H2,1H3",
        "InChIKey": null,
        "Canonical SMILES": "O1CC1CCCC",
        "Molecular Formula": "C<sub>6</sub>H<sub>12</sub>O",
        "Molecular Mass": "100.16",
        "Boiling Point": "109-110 °C",
        "Melting Point": "93-95 °C",
        "Density": "0.8456 g/cm³ @ Temp: 19.5 °C"
    }
}