{
    "cas_no": "5811-87-0",
    "key_name": "8-Formyl-1-naphthalenecarboxylic acid",
    "cn_name": "1,8-萘酚醛酸;",
    "alternate_name": "1-Naphthalenecarboxylic acid, 8-formyl-;Naphthalaldehydic acid;8-Formyl-1-naphthalenecarboxylic acid;<em>peri</em>-Naphthalaldehydic acid;Naphthaldehydic acid;1,8-Naphthaldehydic acid;NSC 100959",
    "duplicated_cas_no": "",
    "SMILES": "C(O)(=O)C=1C2=C(C=CC1)C=CC=C2C=O",
    "meta_data": {
        "InChI": "InChI=1S/C12H8O3/c13-7-9-5-1-3-8-4-2-6-10(11(8)9)12(14)15/h1-7H,(H,14,15)",
        "InChIKey": null,
        "Canonical SMILES": "O=CC1=CC=CC=2C=CC=C(C(=O)O)C12",
        "Molecular Formula": "C<sub>12</sub>H<sub>8</sub>O<sub>3</sub>",
        "Molecular Mass": "200.19",
        "Melting Point": "169-171 °C (decomp)"
    }
}