{
    "cas_no": "55435-71-7",
    "key_name": "4-(2-Chloro-4-nitrophenyl)morpholine",
    "cn_name": null,
    "alternate_name": "Morpholine, 4-(2-chloro-4-nitrophenyl)-;4-(2-Chloro-4-nitrophenyl)morpholine;3-Chloro-4-morpholino-1-nitrobenzene",
    "duplicated_cas_no": "",
    "SMILES": "ClC1=C(C=CC(N(=O)=O)=C1)N2CCOCC2",
    "meta_data": {
        "InChI": "InChI=1S/C10H11ClN2O3/c11-9-7-8(13(14)15)1-2-10(9)12-3-5-16-6-4-12/h1-2,7H,3-6H2",
        "InChIKey": null,
        "Canonical SMILES": "O=N(=O)C1=CC=C(C(Cl)=C1)N2CCOCC2",
        "Molecular Formula": "C<sub>10</sub>H<sub>11</sub>ClN<sub>2</sub>O<sub>3</sub>",
        "Molecular Mass": "242.66",
        "Melting Point": "130 °C"
    }
}