{
    "cas_no": "2315-86-8",
    "key_name": "3-Bromo-4-hydroxybenzonitrile",
    "cn_name": "3-溴-4-羟基苯甲腈;3-溴-4-羟基氰苯;",
    "alternate_name": "Benzonitrile, 3-bromo-4-hydroxy-;3-Bromo-4-hydroxybenzonitrile;2-Bromo-4-cyanophenol",
    "duplicated_cas_no": "",
    "SMILES": "C(#N)C1=CC(Br)=C(O)C=C1",
    "meta_data": {
        "InChI": "InChI=1S/C7H4BrNO/c8-6-3-5(4-9)1-2-7(6)10/h1-3,10H",
        "InChIKey": null,
        "Canonical SMILES": "N#CC1=CC=C(O)C(Br)=C1",
        "Molecular Formula": "C<sub>7</sub>H<sub>4</sub>BrNO",
        "Molecular Mass": "198.02",
        "Melting Point": "153-154 °C"
    }
}