{
    "cas_no": "212631-67-9",
    "key_name": "5-Bromo-2-[(2-chloro-4-iodophenyl)amino]-<em>N</em>-(cyclopropylmethoxy)-3,4-difluorobenzamide",
    "cn_name": null,
    "alternate_name": "Benzamide, 5-bromo-2-[(2-chloro-4-iodophenyl)amino]-<em>N</em>-(cyclopropylmethoxy)-3,4-difluoro-;5-Bromo-2-[(2-chloro-4-iodophenyl)amino]-<em>N</em>-(cyclopropylmethoxy)-3,4-difluorobenzamide;5-Bromo-2-(2-chloro-4-iodophenylamino)-<em>N</em>-cyclopropylmethoxy-3,4-difluorobenzamide;PD 184161",
    "duplicated_cas_no": "",
    "SMILES": "N(C1=C(C(NOCC2CC2)=O)C=C(Br)C(F)=C1F)C3=C(Cl)C=C(I)C=C3",
    "meta_data": {
        "InChI": "InChI=1S/C17H13BrClF2IN2O2/c18-11-6-10(17(25)24-26-7-8-1-2-8)16(15(21)14(11)20)23-13-4-3-9(22)5-12(13)19/h3-6,8,23H,1-2,7H2,(H,24,25)",
        "InChIKey": null,
        "Canonical SMILES": "O=C(NOCC1CC1)C2=CC(Br)=C(F)C(F)=C2NC3=CC=C(I)C=C3Cl",
        "Molecular Formula": "C<sub>17</sub>H<sub>13</sub>BrClF<sub>2</sub>IN<sub>2</sub>O<sub>2</sub>",
        "Molecular Mass": "557.56",
        "Melting Point": "174-175 °C"
    }
}