{
    "cas_no": "591-35-5",
    "key_name": "3,5-Dichlorophenol",
    "cn_name": "3,5-二氯苯酚;",
    "alternate_name": "Phenol, 3,5-dichloro-;3,5-Dichlorophenol;NSC 60649",
    "duplicated_cas_no": "",
    "SMILES": "ClC1=CC(Cl)=CC(O)=C1",
    "meta_data": {
        "InChI": "InChI=1S/C6H4Cl2O/c7-4-1-5(8)3-6(9)2-4/h1-3,9H",
        "InChIKey": null,
        "Canonical SMILES": "ClC=1C=C(Cl)C=C(O)C1",
        "Molecular Formula": "C<sub>6</sub>H<sub>4</sub>Cl<sub>2</sub>O",
        "Molecular Mass": "163.00",
        "Boiling Point": "233 °C @ Press: 757 Torr",
        "Melting Point": "68 °C"
    }
}