{
    "cas_no": "14088-98-3",
    "key_name": "1-(3-Chlorophenyl)-2-imidazolidinone",
    "cn_name": "1-(3-氯苯基)-2-咪唑啉酮;N-(3-氯苯基)-2-咪唑烷酮;",
    "alternate_name": "2-Imidazolidinone, 1-(3-chlorophenyl)-;2-Imidazolidinone, 1-(<em>m</em>-chlorophenyl)-;1-(3-Chlorophenyl)-2-imidazolidinone;1-(<em>m</em>-Chlorophenyl)-2-imidazolidinone",
    "duplicated_cas_no": "71501-47-8",
    "SMILES": "O=C1N(C2=CC(Cl)=CC=C2)CCN1",
    "meta_data": {
        "InChI": "InChI=1S/C9H9ClN2O/c10-7-2-1-3-8(6-7)12-5-4-11-9(12)13/h1-3,6H,4-5H2,(H,11,13)",
        "InChIKey": null,
        "Canonical SMILES": "O=C1NCCN1C=2C=CC=C(Cl)C2",
        "Molecular Formula": "C<sub>9</sub>H<sub>9</sub>ClN<sub>2</sub>O",
        "Molecular Mass": "196.63",
        "Melting Point": "121 °C"
    }
}