{
    "cas_no": "39765-80-5",
    "key_name": "<em>trans</em>-Nonachlor",
    "cn_name": null,
    "alternate_name": "4,7-Methano-1<em>H</em>-indene, 1,2,3,4,5,6,7,8,8-nonachloro-2,3,3a,4,7,7a-hexahydro-, (1α,2β,3α,3aα,4β,7β,7aα)-;(1α,2β,3α,3aα,4β,7β,7aα)-1,2,3,4,5,6,7,8,8-Nonachloro-2,3,3a,4,7,7a-hexahydro-4,7-methano-1<em>H</em>-indene;Nonachlor, <em>trans</em>-;<em>trans</em>-Nonachlor;t-Nonachlor;<em>trans</em>-Nonachlordane",
    "duplicated_cas_no": "24143-69-9;29555-44-0",
    "SMILES": "Cl[C@@]12[C@]3([C@@]([C@@](Cl)(C1(Cl)Cl)C(Cl)=C2Cl)([C@H](Cl)[C@@H](Cl)[C@@H]3Cl)[H])[H]",
    "meta_data": {
        "InChI": "InChI=1/C10H5Cl9/c11-3-1-2(4(12)5(3)13)9(17)7(15)6(14)8(1,16)10(9,18)19/h1-5H/t1-,2+,3+,4-,5-,8+,9-",
        "InChIKey": null,
        "Canonical SMILES": "ClC1=C(Cl)C2(Cl)C3C(Cl)C(Cl)C(Cl)C3C1(Cl)C2(Cl)Cl",
        "Molecular Formula": "C<sub>10</sub>H<sub>5</sub>Cl<sub>9</sub>",
        "Molecular Mass": "444.22",
        "Melting Point": "148 °C"
    }
}