{
    "cas_no": "784-38-3",
    "key_name": "2-Amino-5-chloro-2′-fluorobenzophenone",
    "cn_name": "2-氨基-5-氯-2\"-氟二苯甲酮;",
    "alternate_name": "Methanone, (2-amino-5-chlorophenyl)(2-fluorophenyl)-;Benzophenone, 2-amino-5-chloro-2′-fluoro-;(2-Amino-5-chlorophenyl)(2-fluorophenyl)methanone;2-Amino-5-chloro-2′-fluorobenzophenone",
    "duplicated_cas_no": "",
    "SMILES": "C(=O)(C1=C(N)C=CC(Cl)=C1)C2=C(F)C=CC=C2",
    "meta_data": {
        "InChI": "InChI=1S/C13H9ClFNO/c14-8-5-6-12(16)10(7-8)13(17)9-3-1-2-4-11(9)15/h1-7H,16H2",
        "InChIKey": null,
        "Canonical SMILES": "O=C(C=1C=CC=CC1F)C2=CC(Cl)=CC=C2N",
        "Molecular Formula": "C<sub>13</sub>H<sub>9</sub>ClFNO",
        "Molecular Mass": "249.67",
        "Melting Point": "94-95 °C"
    }
}