{
    "cas_no": "3178-22-1",
    "key_name": "<em>tert</em>-Butylcyclohexane",
    "cn_name": "叔丁基环己烷;特丁基环己烷;环己基叔丁烷;",
    "alternate_name": "Cyclohexane, (1,1-dimethylethyl)-;Cyclohexane, <em>tert</em>-butyl-;(1,1-Dimethylethyl)cyclohexane;<em>tert</em>-Butylcyclohexane;NSC 73719;4-<em>tert</em>-Butylcyclohexane",
    "duplicated_cas_no": "",
    "SMILES": "C(C)(C)(C)C1CCCCC1",
    "meta_data": {
        "InChI": "InChI=1S/C10H20/c1-10(2,3)9-7-5-4-6-8-9/h9H,4-8H2,1-3H3",
        "InChIKey": null,
        "Canonical SMILES": "CC(C)(C)C1CCCCC1",
        "Molecular Formula": "C<sub>10</sub>H<sub>20</sub>",
        "Molecular Mass": "140.27",
        "Boiling Point": "171.5 °C",
        "Melting Point": "-41.2 °C",
        "Density": "0.8305 g/cm³ @ Temp: 16 °C"
    }
}