{
    "cas_no": "1317-60-8",
    "key_name": "Hematite (Fe<sub>2</sub>O<sub>3</sub>)",
    "cn_name": "赤铁矿;",
    "alternate_name": "Hematite (Fe<sub>2</sub>O<sub>3</sub>);Hematite;Iron, specular;Oligist;Specularite;Raphisiderite;Haematite;Miox;γ-Hematite;Hi-Dense 3;MR 270E;Natural red iron oxide;Natural iron red;Miox DB;Miox SF;Miox AS;RO 8097FF;RO 4097FF;DP 80 (carrier);DP 80;ED 100;Miox (mineral);Portafer AP;Hi-Dense 4;Bengara MR 270E;Miox Micro 40;Miox SG;Miox Micro 30;Feomica;Miox HL;Morishita Color MR 320A;Hematite, natural;Natural hematite;MRM 400;Miox Micro 10",
    "duplicated_cas_no": "",
    "SMILES": "[O].[Fe]",
    "meta_data": {
        "InChI": "InChI=1S/Fe.O",
        "InChIKey": null,
        "Canonical SMILES": "[O].[Fe]",
        "Molecular Formula": "Fe.O",
        "Molecular Mass": "",
        "Melting Point": "1565 °C",
        "Density": "5.24 g/cm³"
    }
}