{
    "uri": "substance/pt/1317608",
    "rn": "1317-60-8",
    "name": "Hematite (Fe<sub>2</sub>O<sub>3</sub>)",
    "images": [],
    "inchi": "InChI=1S/Fe.O",
    "inchiKey": "InChIKey=UQSXHKLRYXJYBZ-UHFFFAOYSA-N",
    "smile": "[O].[Fe]",
    "canonicalSmile": "[O].[Fe]",
    "molecularFormula": "Fe.O",
    "molecularMass": "",
    "experimentalProperties": [
        {
            "name": "Melting Point",
            "property": "1565 °C",
            "sourceNumber": 1
        },
        {
            "name": "Density",
            "property": "5.24 g/cm³",
            "sourceNumber": 1
        }
    ],
    "propertyCitations": [
        {
            "docUri": "",
            "sourceNumber": 1,
            "source": "Hazardous Substances Data Bank data were obtained from the National Library of Medicine (US)"
        }
    ],
    "synonyms": [
        "Hematite (Fe<sub>2</sub>O<sub>3</sub>)",
        "Hematite",
        "Iron, specular",
        "Oligist",
        "Specularite",
        "Raphisiderite",
        "Haematite",
        "Miox",
        "γ-Hematite",
        "Hi-Dense 3",
        "MR 270E",
        "Natural red iron oxide",
        "Natural iron red",
        "Miox DB",
        "Miox SF",
        "Miox AS",
        "RO 8097FF",
        "RO 4097FF",
        "DP 80 (carrier)",
        "DP 80",
        "ED 100",
        "Miox (mineral)",
        "Portafer AP",
        "Hi-Dense 4",
        "Bengara MR 270E",
        "Miox Micro 40",
        "Miox SG",
        "Miox Micro 30",
        "Feomica",
        "Miox HL",
        "Morishita Color MR 320A",
        "Hematite, natural",
        "Natural hematite",
        "MRM 400",
        "Miox Micro 10"
    ],
    "replacedRns": [],
    "hasMolfile": true,
    "source": "https://commonchemistry.cas.org/detail?cas_rn=1317-60-8"
}