{
    "cas_no": "2284-20-0",
    "key_name": "4-Methoxyphenyl isothiocyanate",
    "cn_name": "对甲氧异硫氰酸苯酯;4-甲氧基苯基硫代异氰酸酯;",
    "alternate_name": "Benzene, 1-isothiocyanato-4-methoxy-;Isothiocyanic acid, <em>p</em>-methoxyphenyl ester;1-Isothiocyanato-4-methoxybenzene;<em>p</em>-Anisyl isothiocyanate;4-Methoxyphenyl isothiocyanate;4-Anisyl isothiocyanate;<em>p</em>-Methoxyphenyl isothiocyanate;4-(Isothiocyanato)anisole;NSC 77713;4-Isothiocyanato-1-methoxybenzene;1-Methoxy-4-isothiocyanatobenzene",
    "duplicated_cas_no": "2124236-47-9",
    "SMILES": "N(=C=S)C1=CC=C(OC)C=C1",
    "meta_data": {
        "InChI": "InChI=1S/C8H7NOS/c1-10-8-4-2-7(3-5-8)9-6-11/h2-5H,1H3",
        "InChIKey": null,
        "Canonical SMILES": "S=C=NC1=CC=C(OC)C=C1",
        "Molecular Formula": "C<sub>8</sub>H<sub>7</sub>NOS",
        "Molecular Mass": "165.21",
        "Boiling Point": "280.5 °C",
        "Melting Point": "18 °C"
    }
}