{
    "cas_no": "62257-16-3",
    "key_name": "3-Amino-4-fluorophenol",
    "cn_name": "3-氨基-4-氟苯酚;",
    "alternate_name": "Phenol, 3-amino-4-fluoro-;3-Amino-4-fluorophenol;2-Fluoro-5-hydroxyaniline;2-Fluoro-5-hydroxylaniline",
    "duplicated_cas_no": "",
    "SMILES": "NC1=C(F)C=CC(O)=C1",
    "meta_data": {
        "InChI": "InChI=1S/C6H6FNO/c7-5-2-1-4(9)3-6(5)8/h1-3,9H,8H2",
        "InChIKey": null,
        "Canonical SMILES": "FC1=CC=C(O)C=C1N",
        "Molecular Formula": "C<sub>6</sub>H<sub>6</sub>FNO",
        "Molecular Mass": "127.12",
        "Melting Point": "141-143 °C"
    }
}