{
    "cas_no": "2150-58-5",
    "key_name": "4-[[4-(Dimethylamino)phenyl]imino]-2,5-cyclohexadien-1-one",
    "cn_name": "苯酚盐;",
    "alternate_name": "2,5-Cyclohexadien-1-one, 4-[[4-(dimethylamino)phenyl]imino]-;Indoaniline, <em>N</em>,<em>N</em>-dimethyl-;Phenol blue;4-[[4-(Dimethylamino)phenyl]imino]-2,5-cyclohexadien-1-one;<em>N</em>,<em>N</em>-Dimethylindoaniline;NSC 400538;NSC 402443",
    "duplicated_cas_no": "",
    "SMILES": "N(C1=CC=C(N(C)C)C=C1)=C2C=CC(=O)C=C2",
    "meta_data": {
        "InChI": "InChI=1S/C14H14N2O/c1-16(2)13-7-3-11(4-8-13)15-12-5-9-14(17)10-6-12/h3-10H,1-2H3",
        "InChIKey": null,
        "Canonical SMILES": "O=C1C=CC(=NC2=CC=C(C=C2)N(C)C)C=C1",
        "Molecular Formula": "C<sub>14</sub>H<sub>14</sub>N<sub>2</sub>O",
        "Molecular Mass": "226.27",
        "Melting Point": "146-148 °C"
    }
}