{
    "cas_no": "33279-57-1",
    "key_name": "<em>k</em>-Strophanthoside",
    "cn_name": "K-毒毛旋花子甙;",
    "alternate_name": "Card-20(22)-enolide, 3-[(<em>O</em>-β-<span class=\"text-smallcaps\">D</smallcap>-glucopyranosyl-(1→6)-<em>O</em>-β-<smallcap>D</smallcap>-glucopyranosyl-(1→4)-2,6-dideoxy-3-<em>O</em>-methyl-β-<smallcap>D</span>-<em>ribo</em>-hexopyranosyl)oxy]-5,14-dihydroxy-19-oxo-, (3β,5β)-;(3β,5β)-3-[(<em>O</em>-β-<span class=\"text-smallcaps\">D</smallcap>-Glucopyranosyl-(1→6)-<em>O</em>-β-<smallcap>D</smallcap>-glucopyranosyl-(1→4)-2,6-dideoxy-3-<em>O</em>-methyl-β-<smallcap>D</span>-<em>ribo</em>-hexopyranosyl)oxy]-5,14-dihydroxy-19-oxocard-20(22)-enolide;<em>k</em>-Strophanthoside;NSC 7530",
    "duplicated_cas_no": "12627-24-6;12773-28-3;29008-41-1",
    "SMILES": "C(=O)[C@@]12[C@@]3([C@]([C@]4(O)[C@](C)(CC3)[C@H](CC4)C=5COC(=O)C5)(CC[C@]1(O)C[C@@H](O[C@H]6C[C@H](OC)[C@H](O[C@@H]7O[C@H](CO[C@@H]8O[C@H](CO)[C@@H](O)[C@H](O)[C@H]8O)[C@@H](O)[C@H](O)[C@H]7O)[C@@H](C)O6)CC2)[H])[H]",
    "meta_data": {
        "InChI": "InChI=1S/C42H64O19/c1-19-36(61-38-35(51)33(49)31(47)27(60-38)17-56-37-34(50)32(48)30(46)26(15-43)59-37)25(54-3)13-29(57-19)58-21-4-9-40(18-44)23-5-8-39(2)22(20-12-28(45)55-16-20)7-11-42(39,53)24(23)6-10-41(40,52)14-21/h12,18-19,21-27,29-38,43,46-53H,4-11,13-17H2,1-3H3/t19-,21+,22-,23+,24-,25+,26-,27-,29+,30-,31-,32+,33+,34-,35-,36-,37-,38+,39-,40+,41+,42+/m1/s1",
        "InChIKey": null,
        "Canonical SMILES": "O=CC12CCC(OC3OC(C)C(OC4OC(COC5OC(CO)C(O)C(O)C5O)C(O)C(O)C4O)C(OC)C3)CC2(O)CCC6C1CCC7(C)C(C8=CC(=O)OC8)CCC67O",
        "Molecular Formula": "C<sub>42</sub>H<sub>64</sub>O<sub>19</sub>",
        "Molecular Mass": "872.95",
        "Melting Point": "198-200 °C"
    }
}