{
    "cas_no": "41979-39-9",
    "key_name": "4-Piperidone hydrochloride",
    "cn_name": null,
    "alternate_name": "4-Piperidinone, hydrochloride (1:1);4-Piperidinone, hydrochloride;4-Piperidone hydrochloride;4-Oxopiperidine hydrochloride",
    "duplicated_cas_no": "2488652-75-9",
    "SMILES": "O=C1CCNCC1.Cl",
    "meta_data": {
        "InChI": "InChI=1S/C5H9NO.ClH/c7-5-1-3-6-4-2-5;/h6H,1-4H2;1H",
        "InChIKey": null,
        "Canonical SMILES": "Cl.O=C1CCNCC1",
        "Molecular Formula": "C<sub>5</sub>H<sub>9</sub>NO.ClH",
        "Molecular Mass": "",
        "Melting Point": "145.5-147 °C"
    }
}