{
    "cas_no": "13382-47-3",
    "key_name": "(2-Hydroxyethoxy)acetic acid",
    "cn_name": null,
    "alternate_name": "Acetic acid, 2-(2-hydroxyethoxy)-;Acetic acid, (2-hydroxyethoxy)-;2-(2-Hydroxyethoxy)acetic acid;(2-Hydroxyethoxy)acetic acid;β-Hydroxyethoxyacetic acid",
    "duplicated_cas_no": "",
    "SMILES": "C(OCCO)C(O)=O",
    "meta_data": {
        "InChI": "InChI=1S/C4H8O4/c5-1-2-8-3-4(6)7/h5H,1-3H2,(H,6,7)",
        "InChIKey": null,
        "Canonical SMILES": "O=C(O)COCCO",
        "Molecular Formula": "C<sub>4</sub>H<sub>8</sub>O<sub>4</sub>",
        "Molecular Mass": "120.10",
        "Melting Point": "44 °C"
    }
}