{
    "cas_no": "122-63-4",
    "key_name": "Benzyl propionate",
    "cn_name": "丙酸苄酯;",
    "alternate_name": "Propanoic acid, phenylmethyl ester;Propionic acid, benzyl ester;Benzyl propionate;Benzyl propanoate;Phenylmethyl propanoate;NSC 46100",
    "duplicated_cas_no": "",
    "SMILES": "C(OC(CC)=O)C1=CC=CC=C1",
    "meta_data": {
        "InChI": "InChI=1S/C10H12O2/c1-2-10(11)12-8-9-6-4-3-5-7-9/h3-7H,2,8H2,1H3",
        "InChIKey": null,
        "Canonical SMILES": "O=C(OCC=1C=CC=CC1)CC",
        "Molecular Formula": "C<sub>10</sub>H<sub>12</sub>O<sub>2</sub>",
        "Molecular Mass": "164.20",
        "Boiling Point": "220 °C",
        "Density": "1.034 g/cm³ @ Temp: 20 °C"
    }
}