{
    "cas_no": "14659-58-6",
    "key_name": "2-Bromo-5-fluoro-1,3-dimethylbenzene",
    "cn_name": null,
    "alternate_name": "Benzene, 2-bromo-5-fluoro-1,3-dimethyl-;<em>m</em>-Xylene, 2-bromo-5-fluoro-;2-Bromo-5-fluoro-1,3-dimethylbenzene;4-Fluoro-2,6-dimethylbromobenzene;4-Bromo-1-fluoro-3,5-dimethylbenzene",
    "duplicated_cas_no": "",
    "SMILES": "BrC1=C(C)C=C(F)C=C1C",
    "meta_data": {
        "InChI": "InChI=1S/C8H8BrF/c1-5-3-7(10)4-6(2)8(5)9/h3-4H,1-2H3",
        "InChIKey": null,
        "Canonical SMILES": "FC=1C=C(C(Br)=C(C1)C)C",
        "Molecular Formula": "C<sub>8</sub>H<sub>8</sub>BrF",
        "Molecular Mass": "203.05",
        "Boiling Point": "45-47 °C @ Press: 5 Torr"
    }
}