{
    "cas_no": "51800-98-7",
    "key_name": "(+)-3-(Trifluoroacetyl)camphor",
    "cn_name": "3-三氟乙酰基-D-樟脑;",
    "alternate_name": "Bicyclo[2.2.1]heptan-2-one, 1,7,7-trimethyl-3-(2,2,2-trifluoroacetyl)-, (1<em>R</em>,4<em>R</em>)-;Bicyclo[2.2.1]heptan-2-one, 1,7,7-trimethyl-3-(trifluoroacetyl)-, (1<em>R</em>)-;Bicyclo[2.2.1]heptan-2-one, 1,7,7-trimethyl-3-(trifluoroacetyl)-, (1<em>R</em>,4<em>R</em>)-;(1<em>R</em>,4<em>R</em>)-1,7,7-Trimethyl-3-(2,2,2-trifluoroacetyl)bicyclo[2.2.1]heptan-2-one;3-(Trifluoroacetyl)-<em>d</em>-camphor;(+)-3-(Trifluoroacetyl)camphor",
    "duplicated_cas_no": "",
    "SMILES": "C(C(F)(F)F)(=O)C1[C@@]2(C(C)(C)[C@](C)(C1=O)CC2)[H]",
    "meta_data": {
        "InChI": "InChI=1S/C12H15F3O2/c1-10(2)6-4-5-11(10,3)8(16)7(6)9(17)12(13,14)15/h6-7H,4-5H2,1-3H3/t6-,7?,11+/m1/s1",
        "InChIKey": null,
        "Canonical SMILES": "O=C(C1C(=O)C2(C)CCC1C2(C)C)C(F)(F)F",
        "Molecular Formula": "C<sub>12</sub>H<sub>15</sub>F<sub>3</sub>O<sub>2</sub>",
        "Molecular Mass": "248.24",
        "Boiling Point": "62 °C @ Press: 0.19 Torr"
    }
}