{
    "cas_no": "55079-83-9",
    "key_name": "Acitretin",
    "cn_name": null,
    "alternate_name": "2,4,6,8-Nonatetraenoic acid, 9-(4-methoxy-2,3,6-trimethylphenyl)-3,7-dimethyl-, (2<em>E</em>,4<em>E</em>,6<em>E</em>,8<em>E</em>)-;2,4,6,8-Nonatetraenoic acid, 9-(4-methoxy-2,3,6-trimethylphenyl)-3,7-dimethyl-, (<em>all</em>-<em>E</em>)-;(2<em>E</em>,4<em>E</em>,6<em>E</em>,8<em>E</em>)-9-(4-Methoxy-2,3,6-trimethylphenyl)-3,7-dimethyl-2,4,6,8-nonatetraenoic acid;Ro 10-1670;Etretin;Acitretin;Neotigason;<em>all</em>-<em>trans</em>-Acitretin;TMMP;Soriatane;Ro 10-1670/000;Acitretinoin;MeSH ID: D017255",
    "duplicated_cas_no": "",
    "SMILES": "C(=C/C(=C/C=C/C(=C/C(O)=O)/C)/C)\\C1=C(C)C(C)=C(OC)C=C1C",
    "meta_data": {
        "InChI": "InChI=1S/C21H26O3/c1-14(8-7-9-15(2)12-21(22)23)10-11-19-16(3)13-20(24-6)18(5)17(19)4/h7-13H,1-6H3,(H,22,23)/b9-7+,11-10+,14-8+,15-12+",
        "InChIKey": null,
        "Canonical SMILES": "O=C(O)C=C(C=CC=C(C=CC=1C(=CC(OC)=C(C1C)C)C)C)C",
        "Molecular Formula": "C<sub>21</sub>H<sub>26</sub>O<sub>3</sub>",
        "Molecular Mass": "326.43",
        "Melting Point": "228-230 °C"
    }
}