{
    "cas_no": "1623-08-1",
    "key_name": "Dibenzyl phosphate",
    "cn_name": "磷酸二苄酯;",
    "alternate_name": "Phosphoric acid, bis(phenylmethyl) ester;Phosphoric acid, dibenzyl ester;Benzyl phosphate, OP(OCH<sub>2</sub>Ph)<sub>2</sub>OH;Dibenzylphosphoric acid;Dibenzyl phosphate;Dibenzyl hydrogen phosphate",
    "duplicated_cas_no": "",
    "SMILES": "C(OP(OCC1=CC=CC=C1)(=O)O)C2=CC=CC=C2",
    "meta_data": {
        "InChI": "InChI=1S/C14H15O4P/c15-19(16,17-11-13-7-3-1-4-8-13)18-12-14-9-5-2-6-10-14/h1-10H,11-12H2,(H,15,16)",
        "InChIKey": null,
        "Canonical SMILES": "O=P(O)(OCC=1C=CC=CC1)OCC=2C=CC=CC2",
        "Molecular Formula": "C<sub>14</sub>H<sub>15</sub>O<sub>4</sub>P",
        "Molecular Mass": "278.24",
        "Melting Point": "79 °C"
    }
}