{
    "cas_no": "2785-87-7",
    "key_name": "4-Propylguaiacol",
    "cn_name": "二氢丁香酚;2-甲氧基-4-丙基-苯酚;",
    "alternate_name": "Phenol, 2-methoxy-4-propyl-;Guaiacol, 4-propyl-;2-Methoxy-4-propylphenol;4-Hydroxy-3-methoxypropylbenzene;4-Propylguaiacol;(4-Hydroxy-3-methoxyphenyl)propane;Dihydroeugenol;<em>p</em>-Propylguaiacol;Guaiacylpropane;4-Propyl-2-methoxyphenol;Cerulignol;Coerulignol;1-(4-Hydroxy-3-methoxyphenyl)propane;<em>p</em>-<em>n</em>-Propylguaiacol;Euganol;1-(3-Methoxy-4-hydroxyphenyl)propane;NSC 53043",
    "duplicated_cas_no": "",
    "SMILES": "O(C)C1=CC(CCC)=CC=C1O",
    "meta_data": {
        "InChI": "InChI=1S/C10H14O2/c1-3-4-8-5-6-9(11)10(7-8)12-2/h5-7,11H,3-4H2,1-2H3",
        "InChIKey": null,
        "Canonical SMILES": "OC1=CC=C(C=C1OC)CCC",
        "Molecular Formula": "C<sub>10</sub>H<sub>14</sub>O<sub>2</sub>",
        "Molecular Mass": "166.22",
        "Boiling Point": "124 °C @ Press: 15 Torr",
        "Density": "0.9567 g/cm³ @ Temp: 20 °C"
    }
}