{
    "cas_no": "69812-29-9",
    "key_name": "2-Acetamido-4-methyl-5-thiazolesulfonyl chloride",
    "cn_name": "2-乙酰氨基-4-甲基-5-噻唑磺酰氯;",
    "alternate_name": "5-Thiazolesulfonyl chloride, 2-(acetylamino)-4-methyl-;5-Thiazolesulfonyl chloride, 2-acetamido-4-methyl-;2-(Acetylamino)-4-methyl-5-thiazolesulfonyl chloride;2-Acetamido-4-methyl-5-thiazolesulfonyl chloride;2-Acetylamino-4-methyl-5-thiazolesulfonyl chloride;NSC 95414;2-(Acetylamino)-4-methyl-1,3-thiazole-5-sulfonyl chloride;2-Acetamido-4-methyl-1,3-thiazole-5-sulfonyl chloride",
    "duplicated_cas_no": "",
    "SMILES": "S(Cl)(=O)(=O)C=1SC(NC(C)=O)=NC1C",
    "meta_data": {
        "InChI": "InChI=1S/C6H7ClN2O3S2/c1-3-5(14(7,11)12)13-6(8-3)9-4(2)10/h1-2H3,(H,8,9,10)",
        "InChIKey": null,
        "Canonical SMILES": "O=C(NC1=NC(=C(S1)S(=O)(=O)Cl)C)C",
        "Molecular Formula": "C<sub>6</sub>H<sub>7</sub>ClN<sub>2</sub>O<sub>3</sub>S<sub>2</sub>",
        "Molecular Mass": "254.71",
        "Melting Point": "159-160 °C"
    }
}