{
    "cas_no": "49763-66-8",
    "key_name": "4-Octylbenzaldehyde",
    "cn_name": "4-辛基苯甲醛;",
    "alternate_name": "Benzaldehyde, 4-octyl-;4-Octylbenzaldehyde;<em>p</em>-Octylbenzaldehyde;4-<em>n</em>-Octylbenzaldehyde",
    "duplicated_cas_no": "",
    "SMILES": "C(CCCCCCC)C1=CC=C(C=O)C=C1",
    "meta_data": {
        "InChI": "InChI=1S/C15H22O/c1-2-3-4-5-6-7-8-14-9-11-15(13-16)12-10-14/h9-13H,2-8H2,1H3",
        "InChIKey": null,
        "Canonical SMILES": "O=CC1=CC=C(C=C1)CCCCCCCC",
        "Molecular Formula": "C<sub>15</sub>H<sub>22</sub>O",
        "Molecular Mass": "218.33",
        "Boiling Point": "131-132 °C @ Press: 3 Torr",
        "Melting Point": "-6 °C"
    }
}