{
    "cas_no": "105-16-8",
    "key_name": "Diethylaminoethyl methacrylate",
    "cn_name": "甲基丙烯酸二乙氨基乙酯;甲基丙烯酸二乙基氨基乙酯;",
    "alternate_name": "2-Propenoic acid, 2-methyl-, 2-(diethylamino)ethyl ester;Methacrylic acid, 2-(diethylamino)ethyl ester;Daktose B;Diethylaminoethyl methacrylate;β-(Diethylamino)ethyl methacrylate;<em>N</em>,<em>N</em>-Diethylaminoethyl methacrylate;2-Diethylaminoethyl methacrylate;2-(<em>N</em>,<em>N</em>-Diethylamino)ethyl methacrylate;β-(<em>N</em>,<em>N</em>-Diethylamino)ethyl methacrylate;[2-(Methacryloyloxy)ethyl]diethylamine;Light Ester DE;NSC 14490;Polydeam;GE 710;Diethyl[2-(methacryloyloxy)ethyl]amine;Ageflex FM 2PTZ;Acryester DE;2-(Diethylamino)ethyl 2-methylprop-2-enoate",
    "duplicated_cas_no": "76398-99-7;138164-47-3;151768-83-1;168066-58-8;1453489-91-2",
    "SMILES": "N(CCOC(C(C)=C)=O)(CC)CC",
    "meta_data": {
        "InChI": "InChI=1S/C10H19NO2/c1-5-11(6-2)7-8-13-10(12)9(3)4/h3,5-8H2,1-2,4H3",
        "InChIKey": null,
        "Canonical SMILES": "O=C(OCCN(CC)CC)C(=C)C",
        "Molecular Formula": "C<sub>10</sub>H<sub>19</sub>NO<sub>2</sub>",
        "Molecular Mass": "185.26",
        "Boiling Point": "49 °C @ Press: 0.30 Torr",
        "Density": "0.98 g/cm³ @ Temp: 20 °C"
    }
}