{
    "cas_no": "1644-11-7",
    "key_name": "1-[1-[Difluoro[(1,2,2-trifluoroethenyl)oxy]methyl]-1,2,2,2-tetrafluoroethoxy]-1,1,2,2,3,3,3-heptafluoropropane",
    "cn_name": "2-全氟丙氧基全氟丙基三氟乙烯基醚;",
    "alternate_name": "Propane, 1-[1-[difluoro[(1,2,2-trifluoroethenyl)oxy]methyl]-1,2,2,2-tetrafluoroethoxy]-1,1,2,2,3,3,3-heptafluoro-;Propane, 1-[1-[difluoro[(trifluoroethenyl)oxy]methyl]-1,2,2,2-tetrafluoroethoxy]-1,1,2,2,3,3,3-heptafluoro-;Propane, 1,1,1,2,3,3-hexafluoro-2-(heptafluoropropoxy)-3-[(trifluorovinyl)oxy]-;1-[1-[Difluoro[(1,2,2-trifluoroethenyl)oxy]methyl]-1,2,2,2-tetrafluoroethoxy]-1,1,2,2,3,3,3-heptafluoropropane;1,1,2,4,4,5,7,7,8,8,9,9,9-Tridecafluoro-3,6-dioxa-5-trifluoromethyl-non-1-ene;1,1,1,2,2,3,3-Heptafluoro-3-[1,1,1,2,3,3-hexafluoro-3-(1,2,2-trifluorovinyloxy)propan-2-yloxy]propane;Perfluoro(2-propoxypropyl vinyl ether);Perfluoro[2-(propoxy)propyl] perfluorovinyl ether;Perfluoro-5-methyl-3,6-dioxanon-1-ene;1,1,1,2,3,3-Hexafluoro-2-(1,1,2,2,3,3,3-heptafluoropropoxy)-3-(1,2,2-trifluoroethenoxy)propane;P 1226;2-(Perfluoropropoxy)perfluoropropyl trifluorovinyl ether",
    "duplicated_cas_no": "",
    "SMILES": "C(OC(C(C(F)(F)F)(F)F)(F)F)(C(OC(=C(F)F)F)(F)F)(C(F)(F)F)F",
    "meta_data": {
        "InChI": "InChI=1S/C8F16O2/c9-1(10)2(11)25-8(23,24)4(14,6(18,19)20)26-7(21,22)3(12,13)5(15,16)17",
        "InChIKey": null,
        "Canonical SMILES": "FC(F)=C(F)OC(F)(F)C(F)(OC(F)(F)C(F)(F)C(F)(F)F)C(F)(F)F",
        "Molecular Formula": "C<sub>8</sub>F<sub>16</sub>O<sub>2</sub>",
        "Molecular Mass": "432.06",
        "Boiling Point": "103 °C"
    }
}