{
    "cas_no": "1700-31-8",
    "key_name": "3-Benzyloxybenzyl bromide",
    "cn_name": "3-苄氧基溴苄;",
    "alternate_name": "Benzene, 1-(bromomethyl)-3-(phenylmethoxy)-;Ether, benzyl α-bromo-<em>m</em>-tolyl;1-(Bromomethyl)-3-(phenylmethoxy)benzene;3-Benzyloxybenzyl bromide;1-Benzyloxy-3-bromomethylbenzene",
    "duplicated_cas_no": "",
    "SMILES": "O(CC1=CC=CC=C1)C2=CC(CBr)=CC=C2",
    "meta_data": {
        "InChI": "InChI=1S/C14H13BrO/c15-10-13-7-4-8-14(9-13)16-11-12-5-2-1-3-6-12/h1-9H,10-11H2",
        "InChIKey": null,
        "Canonical SMILES": "BrCC=1C=CC=C(OCC=2C=CC=CC2)C1",
        "Molecular Formula": "C<sub>14</sub>H<sub>13</sub>BrO",
        "Molecular Mass": "277.16",
        "Boiling Point": "40-60 °C",
        "Melting Point": "54-55 °C"
    }
}