{
    "cas_no": "54551-83-6",
    "key_name": "Methyl 2,6-dichlorobenzeneacetate",
    "cn_name": "2,6-二氯苯乙酸甲酯;",
    "alternate_name": "Benzeneacetic acid, 2,6-dichloro-, methyl ester;Methyl 2,6-dichlorobenzeneacetate;Methyl (2,6-dichlorophenyl)acetate;2,6-Dichlorophenylacetic acid methyl ester;Methyl 2-(2,6-dichlorophenyl)acetate",
    "duplicated_cas_no": "",
    "SMILES": "C(C(OC)=O)C1=C(Cl)C=CC=C1Cl",
    "meta_data": {
        "InChI": "InChI=1S/C9H8Cl2O2/c1-13-9(12)5-6-7(10)3-2-4-8(6)11/h2-4H,5H2,1H3",
        "InChIKey": null,
        "Canonical SMILES": "O=C(OC)CC=1C(Cl)=CC=CC1Cl",
        "Molecular Formula": "C<sub>9</sub>H<sub>8</sub>Cl<sub>2</sub>O<sub>2</sub>",
        "Molecular Mass": "219.06",
        "Boiling Point": "151-153 °C @ Press: 21 Torr"
    }
}