{
    "cas_no": "107534-96-3",
    "key_name": "Tebuconazole",
    "cn_name": null,
    "alternate_name": "1<em>H</em>-1,2,4-Triazole-1-ethanol, α-[2-(4-chlorophenyl)ethyl]-α-(1,1-dimethylethyl)-;1<em>H</em>-1,2,4-Triazole-1-ethanol, α-[2-(4-chlorophenyl)ethyl]-α-(1,1-dimethylethyl)-, (±)-;α-[2-(4-Chlorophenyl)ethyl]-α-(1,1-dimethylethyl)-1<em>H</em>-1,2,4-triazole-1-ethanol;BAY-HWG 1608;Raxil;Folicur;HWG 1608;Tebuconazole;Ethyltrianol;Terbutrazole;Etiltrianol;Fenetrazole;Preventol A 8;Orius;Orius (fungicide);Elite;Elite (fungicide);Corail;(±)-Tebuconazole;Raxil 2DS;Horizon;Horizon (fungicide);Microban S 2142;S 2142;Atlas;Microban TZ;Folicur 200EC;Horizont;Riza;Silvacure;Timbertreat T;Rival 200EC;Sparta 250EW;Sparta;Tebu 250EW;Rosacur;Folicur 3.6F;Hao Li-ke;Gelseal (fungicide);Gelseal;Greenseal;Raxil Ultra;Tebu 60;Dedalus 25 WDG;Orius 25EC;ONLY ONE Flowable;Monsoon;Folicur 200CE;1-(4-Chlorophenyl)-4,4-dimethyl-3-(1,2,4-triazole-1-yl-methyl)pentane-3-ol;Helicur 250EW;Miresa;STartUP TEBUZ;Willowood Teb 3.6SC;Onset 3.6L",
    "duplicated_cas_no": "80443-41-0;123066-82-0;1256343-09-5",
    "SMILES": "C(CN1C=NC=N1)(CCC2=CC=C(Cl)C=C2)(C(C)(C)C)O",
    "meta_data": {
        "InChI": "InChI=1S/C16H22ClN3O/c1-15(2,3)16(21,10-20-12-18-11-19-20)9-8-13-4-6-14(17)7-5-13/h4-7,11-12,21H,8-10H2,1-3H3",
        "InChIKey": null,
        "Canonical SMILES": "ClC1=CC=C(C=C1)CCC(O)(CN2N=CN=C2)C(C)(C)C",
        "Molecular Formula": "C<sub>16</sub>H<sub>22</sub>ClN<sub>3</sub>O",
        "Molecular Mass": "307.82",
        "Melting Point": "102.4 °C"
    }
}