{
    "cas_no": "110-77-0",
    "key_name": "2-(Ethylthio)ethanol",
    "cn_name": null,
    "alternate_name": "Ethanol, 2-(ethylthio)-;2-(Ethylthio)ethanol;Ethyl 2-hydroxyethyl sulfide;Ethyl 2-hydroxyethyl thioether;β-Hydroxydiethyl sulfide;2-Hydroxyethyl ethyl sulfide;Ethyl β-hydroxyethyl sulfide;β-Ethylthioethanol;2-Ethylmercaptoethanol;NSC 57105;2-(Ethylthio)-1-ethanol;3-Thia-1-pentanol;2-Ethylsulfanyl-ethanol;2-(Ethylsulfanyl)ethanol;2-(Ethylsulfanyl)ethan-1-ol",
    "duplicated_cas_no": "",
    "SMILES": "C(SCC)CO",
    "meta_data": {
        "InChI": "InChI=1S/C4H10OS/c1-2-6-4-3-5/h5H,2-4H2,1H3",
        "InChIKey": null,
        "Canonical SMILES": "OCCSCC",
        "Molecular Formula": "C<sub>4</sub>H<sub>10</sub>OS",
        "Molecular Mass": "106.19",
        "Boiling Point": "184.5 °C @ Press: 760 Torr",
        "Melting Point": "~-100 °C (approx)",
        "Density": "1.0166 g/cm³ @ Temp: 20 °C"
    }
}