{
    "cas_no": "95306-64-2",
    "key_name": "4-Amino-5-methyl-2(1<em>H</em>)-pyridinone",
    "cn_name": null,
    "alternate_name": "2(1<em>H</em>)-Pyridinone, 4-amino-5-methyl-;4-Amino-5-methyl-2(1<em>H</em>)-pyridinone;2-Hydroxy-4-amino-5-methylpyridine;4-Amino-5-methyl-1<em>H</em>-pyridin-2-one",
    "duplicated_cas_no": "",
    "SMILES": "NC=1C(C)=CNC(=O)C1",
    "meta_data": {
        "InChI": "InChI=1S/C6H8N2O/c1-4-3-8-6(9)2-5(4)7/h2-3H,1H3,(H3,7,8,9)",
        "InChIKey": null,
        "Canonical SMILES": "O=C1C=C(N)C(=CN1)C",
        "Molecular Formula": "C<sub>6</sub>H<sub>8</sub>N<sub>2</sub>O",
        "Molecular Mass": "124.14",
        "Melting Point": "&gt;260 °C"
    }
}