{
    "cas_no": "18339-16-7",
    "key_name": "Androstenone",
    "cn_name": "雄烯酮;",
    "alternate_name": "Androst-16-en-3-one, (5α)-;5α-Androst-16-en-3-one;Androstenone;(5α)-Androst-16-en-3-one;E 282;5α-Androst-16-ene-3-one;5α-Androstenone;16,(5α)-Androsten-3-one",
    "duplicated_cas_no": "",
    "SMILES": "C[C@@]12[C@@]3([C@]([C@]4([C@](C)(CC3)C=CC4)[H])(CC[C@]1(CC(=O)CC2)[H])[H])[H]",
    "meta_data": {
        "InChI": "InChI=1S/C19H28O/c1-18-9-3-4-16(18)15-6-5-13-12-14(20)7-11-19(13,2)17(15)8-10-18/h3,9,13,15-17H,4-8,10-12H2,1-2H3/t13-,15-,16-,17-,18-,19-/m0/s1",
        "InChIKey": null,
        "Canonical SMILES": "O=C1CCC2(C)C(C1)CCC3C4CC=CC4(C)CCC32",
        "Molecular Formula": "C<sub>19</sub>H<sub>28</sub>O",
        "Molecular Mass": "272.42",
        "Melting Point": "102 °C"
    }
}