{
    "cas_no": "6232-19-5",
    "key_name": "β-Cyano-<span class=\"text-smallcaps\">L</span>-alanine",
    "cn_name": null,
    "alternate_name": "<span class=\"text-smallcaps\">L</span>-Alanine, 3-cyano-;Alanine, 3-cyano-, <span class=\"text-smallcaps\">L</span>-;3-Cyano-<span class=\"text-smallcaps\">L</span>-alanine;<span class=\"text-smallcaps\">L</span>-β-Cyanoalanine;β-Cyano-<span class=\"text-smallcaps\">L</span>-alanine;<span class=\"text-smallcaps\">L</span>-3-Cyanoalanine;<span class=\"text-smallcaps\">L</span>-2-Amino-3-cyanopropanoic acid;(2<em>S</em>)-2-Amino-3-cyanopropanoic acid",
    "duplicated_cas_no": "",
    "SMILES": "[C@H](CC#N)(C(O)=O)N",
    "meta_data": {
        "InChI": "InChI=1S/C4H6N2O2/c5-2-1-3(6)4(7)8/h3H,1,6H2,(H,7,8)/t3-/m0/s1",
        "InChIKey": null,
        "Canonical SMILES": "N#CCC(N)C(=O)O",
        "Molecular Formula": "C<sub>4</sub>H<sub>6</sub>N<sub>2</sub>O<sub>2</sub>",
        "Molecular Mass": "114.10",
        "Melting Point": "213-216 °C (decomp)"
    }
}