{
    "cas_no": "838-85-7",
    "key_name": "Diphenyl phosphate",
    "cn_name": "磷酸二苯酯;",
    "alternate_name": "Phosphoric acid, diphenyl ester;Diphenyl phosphate;Phenyl phosphate ((PhO)<sub>2</sub>(HO)PO);Diphenyl hydrogen phosphate;NSC 6518",
    "duplicated_cas_no": "",
    "SMILES": "O(P(OC1=CC=CC=C1)(=O)O)C2=CC=CC=C2",
    "meta_data": {
        "InChI": "InChI=1S/C12H11O4P/c13-17(14,15-11-7-3-1-4-8-11)16-12-9-5-2-6-10-12/h1-10H,(H,13,14)",
        "InChIKey": null,
        "Canonical SMILES": "O=P(O)(OC=1C=CC=CC1)OC=2C=CC=CC2",
        "Molecular Formula": "C<sub>12</sub>H<sub>11</sub>O<sub>4</sub>P",
        "Molecular Mass": "250.19",
        "Melting Point": "67-68 °C"
    }
}