{
    "cas_no": "33733-73-2",
    "key_name": "3-Bromothioanisole",
    "cn_name": "3-溴硫代苯甲醚;3-溴茴香硫醚;间溴茴香硫醚;",
    "alternate_name": "Benzene, 1-bromo-3-(methylthio)-;Sulfide, <em>m</em>-bromophenyl methyl;1-Bromo-3-(methylthio)benzene;<em>m</em>-Bromo(methylthio)benzene;<em>m</em>-Bromophenyl methyl sulfide;3-Bromophenyl methyl sulfide;3-Bromothioanisole;<em>m</em>-Bromothioanisole;Methyl <em>m</em>-bromophenyl sulfide;1-Bromo-3-(methylsulfanyl)benzene;3-(Methylthio)bromobenzene;(3-Bromophenyl)(methyl)sulfane",
    "duplicated_cas_no": "",
    "SMILES": "S(C)C1=CC(Br)=CC=C1",
    "meta_data": {
        "InChI": "InChI=1S/C7H7BrS/c1-9-7-4-2-3-6(8)5-7/h2-5H,1H3",
        "InChIKey": null,
        "Canonical SMILES": "BrC1=CC=CC(SC)=C1",
        "Molecular Formula": "C<sub>7</sub>H<sub>7</sub>BrS",
        "Molecular Mass": "203.10",
        "Boiling Point": "83-85 °C @ Press: 1 Torr",
        "Density": "1.486 g/cm³ @ Temp: 30 °C"
    }
}