{
    "cas_no": "84057-84-1",
    "key_name": "Lamotrigine",
    "cn_name": "拉莫三嗪;6-(2,3-二氯苯基)-1,2,4-三嗪-3,5-二胺;",
    "alternate_name": "1,2,4-Triazine-3,5-diamine, 6-(2,3-dichlorophenyl)-;6-(2,3-Dichlorophenyl)-1,2,4-triazine-3,5-diamine;Lamotrigine;3,5-Diamino-6-(2,3-dichlorophenyl)-1,2,4-triazine;Lamictal;Lamotrigin;BW 430C;LTG;Lamictal XR;Lamidus;Lamitrin;3,5-Diamino-6-(2,3-dichlorophenyl)-as-triazine;Epilepax;Lamtox;Lamotrix",
    "duplicated_cas_no": "",
    "SMILES": "NC=1C(=NN=C(N)N1)C2=C(Cl)C(Cl)=CC=C2",
    "meta_data": {
        "InChI": "InChI=1S/C9H7Cl2N5/c10-5-3-1-2-4(6(5)11)7-8(12)14-9(13)16-15-7/h1-3H,(H4,12,13,14,16)",
        "InChIKey": null,
        "Canonical SMILES": "ClC=1C=CC=C(C1Cl)C=2N=NC(=NC2N)N",
        "Molecular Formula": "C<sub>9</sub>H<sub>7</sub>Cl<sub>2</sub>N<sub>5</sub>",
        "Molecular Mass": "256.09",
        "Melting Point": "216-218 °C"
    }
}