{
    "cas_no": "1878-88-2",
    "key_name": "2-(3-Nitrophenoxy)acetic acid",
    "cn_name": "3-硝基苯氧乙酸;",
    "alternate_name": "Acetic acid, 2-(3-nitrophenoxy)-;Acetic acid, (<em>m</em>-nitrophenoxy)-;Acetic acid, (3-nitrophenoxy)-;2-(3-Nitrophenoxy)acetic acid;3-Nitrophenoxyacetic acid;<em>m</em>-Nitrophenoxyacetic acid;NSC 193418",
    "duplicated_cas_no": "",
    "SMILES": "O(CC(O)=O)C1=CC(N(=O)=O)=CC=C1",
    "meta_data": {
        "InChI": "InChI=1S/C8H7NO5/c10-8(11)5-14-7-3-1-2-6(4-7)9(12)13/h1-4H,5H2,(H,10,11)",
        "InChIKey": null,
        "Canonical SMILES": "O=C(O)COC1=CC=CC(=C1)N(=O)=O",
        "Molecular Formula": "C<sub>8</sub>H<sub>7</sub>NO<sub>5</sub>",
        "Molecular Mass": "197.14",
        "Melting Point": "152-153 °C"
    }
}