{
    "cas_no": "924-42-5",
    "key_name": "<em>N</em>-Methylolacrylamide",
    "cn_name": "N-羟甲基丙烯酰胺;",
    "alternate_name": "2-Propenamide, <em>N</em>-(hydroxymethyl)-;Acrylamide, <em>N</em>-(hydroxymethyl)-;<em>N</em>-(Hydroxymethyl)-2-propenamide;<em>N</em>-Methylolacrylamide;<em>N</em>-Methanolacrylamide;<em>N</em>-(Hydroxymethyl)acrylamide;Monomethylolacrylamide;NMA 60;MH 100 (amide);MH 100;N-MAM P;U-Ramin T 80;Rocagil BT;N-MAM;NSC 553;N-NBM;Cylink NMA;N-Methylol acrylamide;NMA 48;Flocryl NMA 2820;Flocryl NMA 48",
    "duplicated_cas_no": "90456-67-0;160278-55-7;176598-18-8;194091-52-6;211862-48-5;211862-50-9",
    "SMILES": "C(NCO)(C=C)=O",
    "meta_data": {
        "InChI": "InChI=1S/C4H7NO2/c1-2-4(7)5-3-6/h2,6H,1,3H2,(H,5,7)",
        "InChIKey": null,
        "Canonical SMILES": "O=C(C=C)NCO",
        "Molecular Formula": "C<sub>4</sub>H<sub>7</sub>NO<sub>2</sub>",
        "Molecular Mass": "101.10",
        "Melting Point": "74.5 °C"
    }
}