{
    "cas_no": "3373-00-0",
    "key_name": "6-Hydroxy-1,2,3,4-tetrahydroquinoline",
    "cn_name": "6-羟基-1,2,3,4-四氢喹啉;",
    "alternate_name": "6-Quinolinol, 1,2,3,4-tetrahydro-;1,2,3,4-Tetrahydro-6-quinolinol;6-Hydroxy-1,2,3,4-tetrahydroquinoline",
    "duplicated_cas_no": "",
    "SMILES": "OC=1C=C2C(=CC1)NCCC2",
    "meta_data": {
        "InChI": "InChI=1S/C9H11NO/c11-8-3-4-9-7(6-8)2-1-5-10-9/h3-4,6,10-11H,1-2,5H2",
        "InChIKey": null,
        "Canonical SMILES": "OC1=CC=C2NCCCC2=C1",
        "Molecular Formula": "C<sub>9</sub>H<sub>11</sub>NO",
        "Molecular Mass": "149.19",
        "Melting Point": "160 °C"
    }
}