{
    "cas_no": "76-06-2",
    "key_name": "Chloropicrin",
    "cn_name": "氯化苦;三氯硝基甲烷;硝基氯仿;硝基三氯甲烷;",
    "alternate_name": "Methane, trichloronitro-;Trichloronitromethane;G 25;Acquinite;Larvacide;Microlysin;Nitrochloroform;Nitrotrichloromethane;Picfume;PS;Chloropicrin;Chlorpicrin;NSC 8743;Quasar;Chlor-O-Pic",
    "duplicated_cas_no": "",
    "SMILES": "C(N(=O)=O)(Cl)(Cl)Cl",
    "meta_data": {
        "InChI": "InChI=1S/CCl3NO2/c2-1(3,4)5(6)7",
        "InChIKey": null,
        "Canonical SMILES": "O=N(=O)C(Cl)(Cl)Cl",
        "Molecular Formula": "CCl<sub>3</sub>NO<sub>2</sub>",
        "Molecular Mass": "164.38",
        "Boiling Point": "112 °C @ Press: 757 Torr",
        "Melting Point": "-64 °C",
        "Density": "1.6558 g/cm³ @ Temp: 20 °C"
    }
}