{
    "cas_no": "62124-77-0",
    "key_name": "2-Ethoxycarbonylmethylcarbonylpyrazine",
    "cn_name": null,
    "alternate_name": "2-Pyrazinepropanoic acid, β-oxo-, ethyl ester;Pyrazinepropanoic acid, β-oxo-, ethyl ester;Pyrazinepropionic acid, β-oxo-, ethyl ester;2-Ethoxycarbonylmethylcarbonylpyrazine;Ethyl 3-oxo-3-pyrazinylpropionate;Ethyl 3-oxo-3-(pyrazin-2-yl)propanoate",
    "duplicated_cas_no": "",
    "SMILES": "C(CC(OCC)=O)(=O)C=1C=NC=CN1",
    "meta_data": {
        "InChI": "InChI=1S/C9H10N2O3/c1-2-14-9(13)5-8(12)7-6-10-3-4-11-7/h3-4,6H,2,5H2,1H3",
        "InChIKey": null,
        "Canonical SMILES": "O=C(OCC)CC(=O)C1=NC=CN=C1",
        "Molecular Formula": "C<sub>9</sub>H<sub>10</sub>N<sub>2</sub>O<sub>3</sub>",
        "Molecular Mass": "194.19",
        "Boiling Point": "116-120 °C @ Press: 2 Torr",
        "Melting Point": "75 °C"
    }
}