{
    "cas_no": "2470-68-0",
    "key_name": "Diheptylamine",
    "cn_name": "二正庚胺;二正庚胺;",
    "alternate_name": "1-Heptanamine, <em>N</em>-heptyl-;Diheptylamine;<em>N</em>-Heptyl-1-heptanamine;NSC 79264",
    "duplicated_cas_no": "",
    "SMILES": "N(CCCCCCC)CCCCCCC",
    "meta_data": {
        "InChI": "InChI=1S/C14H31N/c1-3-5-7-9-11-13-15-14-12-10-8-6-4-2/h15H,3-14H2,1-2H3",
        "InChIKey": null,
        "Canonical SMILES": "N(CCCCCCC)CCCCCCC",
        "Molecular Formula": "C<sub>14</sub>H<sub>31</sub>N",
        "Molecular Mass": "213.40",
        "Boiling Point": "271 °C",
        "Melting Point": "31.5 °C",
        "Density": "0.7940 g/cm³ @ Temp: 20 °C"
    }
}