{
    "cas_no": "14140-15-9",
    "key_name": "4-(2-Bromoethyl)phenol",
    "cn_name": null,
    "alternate_name": "Phenol, 4-(2-bromoethyl)-;Phenol, <em>p</em>-(2-bromoethyl)-;4-(2-Bromoethyl)phenol;4-Hydroxyphenethyl bromide;2-(4-Hydroxyphenyl)-1-bromoethane;2-(4-Hydroxyphenyl)ethyl bromide;1-Bromo-2-(<em>p</em>-hydroxyphenyl)ethane",
    "duplicated_cas_no": "",
    "SMILES": "C(CBr)C1=CC=C(O)C=C1",
    "meta_data": {
        "InChI": "InChI=1S/C8H9BrO/c9-6-5-7-1-3-8(10)4-2-7/h1-4,10H,5-6H2",
        "InChIKey": null,
        "Canonical SMILES": "BrCCC1=CC=C(O)C=C1",
        "Molecular Formula": "C<sub>8</sub>H<sub>9</sub>BrO",
        "Molecular Mass": "201.06",
        "Boiling Point": "150-155 °C @ Press: 12 Torr",
        "Melting Point": "89-91 °C"
    }
}