{
    "cas_no": "1700-37-4",
    "key_name": "3-Benzyloxybenzaldehyde",
    "cn_name": "3-苄氧基苯甲醛;",
    "alternate_name": "Benzaldehyde, 3-(phenylmethoxy)-;Benzaldehyde, <em>m</em>-(benzyloxy)-;3-(Phenylmethoxy)benzaldehyde;<em>m</em>-Benzyloxybenzaldehyde;3-Benzyloxybenzaldehyde;NSC 17152",
    "duplicated_cas_no": "",
    "SMILES": "O(CC1=CC=CC=C1)C2=CC(C=O)=CC=C2",
    "meta_data": {
        "InChI": "InChI=1S/C14H12O2/c15-10-13-7-4-8-14(9-13)16-11-12-5-2-1-3-6-12/h1-10H,11H2",
        "InChIKey": null,
        "Canonical SMILES": "O=CC=1C=CC=C(OCC=2C=CC=CC2)C1",
        "Molecular Formula": "C<sub>14</sub>H<sub>12</sub>O<sub>2</sub>",
        "Molecular Mass": "212.24",
        "Boiling Point": "215-218 °C",
        "Melting Point": "54 °C"
    }
}