{
    "cas_no": "32208-45-0",
    "key_name": "Methyl ursolate",
    "cn_name": null,
    "alternate_name": "Urs-12-en-28-oic acid, 3-hydroxy-, methyl ester, (3β)-;Urs-12-en-28-oic acid, 3β-hydroxy-, methyl ester;Methyl ursolate;Ursolic acid methyl ester;Methyl (3β)-3-Hydroxyurs-12-en-28-oate",
    "duplicated_cas_no": "989-71-9;51704-33-7",
    "SMILES": "C(OC)(=O)[C@]12[C@](C=3[C@@](C)(CC1)[C@@]4(C)[C@](CC3)([C@]5(C)[C@@](CC4)(C(C)(C)[C@@H](O)CC5)[H])[H])([C@@H](C)[C@H](C)CC2)[H]",
    "meta_data": {
        "InChI": "InChI=1S/C31H50O3/c1-19-11-16-31(26(33)34-8)18-17-29(6)21(25(31)20(19)2)9-10-23-28(5)14-13-24(32)27(3,4)22(28)12-15-30(23,29)7/h9,19-20,22-25,32H,10-18H2,1-8H3/t19-,20+,22+,23-,24+,25+,28+,29-,30-,31+/m1/s1",
        "InChIKey": null,
        "Canonical SMILES": "O=C(OC)C12CCC(C)C(C)C2C3=CCC4C5(C)CCC(O)C(C)(C)C5CCC4(C)C3(C)CC1",
        "Molecular Formula": "C<sub>31</sub>H<sub>50</sub>O<sub>3</sub>",
        "Molecular Mass": "470.73",
        "Melting Point": "170.5-171.5 °C"
    }
}