{
    "cas_no": "5932-30-9",
    "key_name": "1<em>H</em>-Pyrazole-3-carboxylic acid, 5-phenyl-, ethyl ester",
    "cn_name": null,
    "alternate_name": "1<em>H</em>-Pyrazole-3-carboxylic acid, 5-phenyl-, ethyl ester;Pyrazole-3-carboxylic acid, 5-phenyl-, ethyl ester;Pyrazole-3(<em>or</em> 5)-carboxylic acid, 5(<em>or</em> 3)-phenyl-, ethyl ester;5-Phenyl-2<em>H</em>-pyrazole-3-carboxylic acid ethyl ester;Ethyl 3-phenyl-1<em>H</em>-pyrazole-5-carboxylate;Ethyl 5-phenyl-1<em>H</em>-pyrazole-3-carboxylate;5-Phenyl-1<em>H</em>-pyrazole-3-carboxylic acid ethyl ester;3-Ethoxycarbonyl-5-phenylpyrazole",
    "duplicated_cas_no": "1620849-64-0",
    "SMILES": "C(OCC)(=O)C=1C=C(NN1)C2=CC=CC=C2",
    "meta_data": {
        "InChI": "InChI=1S/C12H12N2O2/c1-2-16-12(15)11-8-10(13-14-11)9-6-4-3-5-7-9/h3-8H,2H2,1H3,(H,13,14)",
        "InChIKey": null,
        "Canonical SMILES": "O=C(OCC)C1=NNC(=C1)C=2C=CC=CC2",
        "Molecular Formula": "C<sub>12</sub>H<sub>12</sub>N<sub>2</sub>O<sub>2</sub>",
        "Molecular Mass": "216.24",
        "Melting Point": "140 °C"
    }
}