{
    "cas_no": "762-04-9",
    "key_name": "Diethyl phosphite",
    "cn_name": "亚磷酸二乙酯;",
    "alternate_name": "Phosphonic acid, diethyl ester;Ethyl phosphite, (EtO)<sub>2</sub>(HO)P;Diethyl phosphite;Diethyl hydrogen phosphite;Diethyl phosphonate;Hydrogen diethyl phosphite;Diethyl acid phosphite;Diethoxyphosphine oxide;NSC 2665",
    "duplicated_cas_no": "",
    "SMILES": "P(OCC)(OCC)=O",
    "meta_data": {
        "InChI": "InChI=1S/C4H11O3P/c1-3-6-8(5)7-4-2/h8H,3-4H2,1-2H3",
        "InChIKey": null,
        "Canonical SMILES": "O=P(OCC)OCC",
        "Molecular Formula": "C<sub>4</sub>H<sub>11</sub>O<sub>3</sub>P",
        "Molecular Mass": "138.10",
        "Boiling Point": "138 °C",
        "Melting Point": "&lt;25 °C",
        "Density": "1.072 g/cm³"
    }
}