{
    "cas_no": "865-50-9",
    "key_name": "Methyl-<em>d</em><sub>3</sub> iodide",
    "cn_name": "碘甲烷-d3;碘甲烷-d3;",
    "alternate_name": "Methane-<em>d</em><sub>3</sub>, iodo-;Iodomethane-<em>d</em><sub>3</sub>;Trideuteromethyl iodide;Methyl-<em>d</em><sub>3</sub> iodide;Trideuterioiodomethane;Trideuteriomethyl iodide;Perdeuteriomethyl iodide;Perdeuteroiodomethane;Iodotrideuteriomethane;Methyl iodide (CD<sub>3</sub>I);Trideutero(iodo)methane;Iodomethane-d3",
    "duplicated_cas_no": "1846580-27-5",
    "SMILES": "C(I)([2H])([2H])[2H]",
    "meta_data": {
        "InChI": "InChI=1S/CH3I/c1-2/h1H3/i1D3",
        "InChIKey": null,
        "Canonical SMILES": "IC",
        "Molecular Formula": "CD<sub>3</sub>I",
        "Molecular Mass": "",
        "Boiling Point": "40-42 °C @ Press: 760 Torr"
    }
}