{
    "cas_no": "342602-55-5",
    "key_name": "1-(5-Fluoro-3-pyridinyl)ethanone",
    "cn_name": null,
    "alternate_name": "Ethanone, 1-(5-fluoro-3-pyridinyl)-;1-(5-Fluoro-3-pyridinyl)ethanone;1-(5-Fluoropyridin-3-yl)ethan-1-one",
    "duplicated_cas_no": "",
    "SMILES": "C(C)(=O)C=1C=C(F)C=NC1",
    "meta_data": {
        "InChI": "InChI=1S/C7H6FNO/c1-5(10)6-2-7(8)4-9-3-6/h2-4H,1H3",
        "InChIKey": null,
        "Canonical SMILES": "O=C(C=1C=NC=C(F)C1)C",
        "Molecular Formula": "C<sub>7</sub>H<sub>6</sub>FNO",
        "Molecular Mass": "139.13",
        "Melting Point": "48-50 °C"
    }
}