{
    "cas_no": "10560-13-1",
    "key_name": "1,3-Diethyl 5-nitro-1,3-benzenedicarboxylate",
    "cn_name": "5-硝基间苯二甲酸二乙酯;",
    "alternate_name": "1,3-Benzenedicarboxylic acid, 5-nitro-, 1,3-diethyl ester;Isophthalic acid, 5-nitro-, diethyl ester;1,3-Benzenedicarboxylic acid, 5-nitro-, diethyl ester;1,3-Diethyl 5-nitro-1,3-benzenedicarboxylate",
    "duplicated_cas_no": "",
    "SMILES": "C(OCC)(=O)C1=CC(C(OCC)=O)=CC(N(=O)=O)=C1",
    "meta_data": {
        "InChI": "InChI=1S/C12H13NO6/c1-3-18-11(14)8-5-9(12(15)19-4-2)7-10(6-8)13(16)17/h5-7H,3-4H2,1-2H3",
        "InChIKey": null,
        "Canonical SMILES": "O=C(OCC)C=1C=C(C=C(C1)N(=O)=O)C(=O)OCC",
        "Molecular Formula": "C<sub>12</sub>H<sub>13</sub>NO<sub>6</sub>",
        "Molecular Mass": "267.23",
        "Melting Point": "85-86 °C"
    }
}