{
    "cas_no": "88-73-3",
    "key_name": "1-Chloro-2-nitrobenzene",
    "cn_name": "邻氯硝基苯;2-硝基氯苯;",
    "alternate_name": "Benzene, 1-chloro-2-nitro-;1-Chloro-2-nitrobenzene;<em>o</em>-Chloronitrobenzene;2-Chloro-1-nitrobenzene;<em>o</em>-Nitrochlorobenzene;ONCB;2-Nitrochlorobenzene;2-Chloronitrobenzene;1-Nitro-2-chlorobenzene;NSC 36934;2-Nitrophenyl chloride;2-Nitro-1-chlorobenzene;<em>o</em>-Nitrobenzene chloride",
    "duplicated_cas_no": "",
    "SMILES": "N(=O)(=O)C1=C(Cl)C=CC=C1",
    "meta_data": {
        "InChI": "InChI=1S/C6H4ClNO2/c7-5-3-1-2-4-6(5)8(9)10/h1-4H",
        "InChIKey": null,
        "Canonical SMILES": "O=N(=O)C=1C=CC=CC1Cl",
        "Molecular Formula": "C<sub>6</sub>H<sub>4</sub>ClNO<sub>2</sub>",
        "Molecular Mass": "157.55",
        "Boiling Point": "245.5 °C",
        "Melting Point": "32 °C",
        "Density": "1.368 x 10<sup>-3</sup> g/cm³ @ Temp: 242 °C"
    }
}