{
    "cas_no": "117-81-7",
    "key_name": "Dioctyl phthalate",
    "cn_name": "邻苯二甲酸二(2-乙基己)酯;邻苯二甲酸二(2-乙基)己酯;塑化剂;",
    "alternate_name": "1,2-Benzenedicarboxylic acid, 1,2-bis(2-ethylhexyl) ester;Phthalic acid, bis(2-ethylhexyl) ester;1,2-Benzenedicarboxylic acid, bis(2-ethylhexyl) ester;Compound 889;DOP;Flexol DOP;Octoil;Pittsburgh PX 138;Staflex DOP;Truflex DOP;Witcizer 312;Octyl phthalate;Palatinol AH;Dioctyl phthalate;Kodaflex DOP;Sicol 150;Ethylhexyl phthalate;Vestinol AH;Bisoflex 81;Phthalic acid dioctyl ester;Bis(2-ethylhexyl) 1,2-benzenedicarboxylate;2-Ethylhexyl phthalate;Bis(2-ethylhexyl) phthalate;Kodaflex DEHP;DEHP;Fleximel;Di(2-ethylhexyl) phthalate;Eviplast 80;Eviplast 81;Vinycizer 80;Bisoflex DOP;Good-rite GP 264;Ergoplast FDO;Reomol D 79P;Ergoplast FDO-S;Bis(2-ethylhexyl) <em>o</em>-phthalate;DOF (Russian plasticizer);DOF;Sansocizer DOP;Monocizer DOP;Etalon (plasticizer);Etalon;Hatco DOP;Sconamoll DOP;Di(isooctyl) phthalate;Sansocizer R 8000;Corflex 400;Phthalic acid di(2-ethylhexyl) ester;Vinycizer 80K;Plasthall DOP;Diacizer DOP;Jayflex DOP;3315AF2;Garbeflex DOP-D 40;Flexol DOD;Palatinol AH-L;NSC 17069;ESBO-D 82;Palatinol DOP;ZS (plasticizer);ZS;Scandinol SC 1000;R 8000;DOPT;Diplast O;Codan Set L 86P;JSSD-DOP;D 109648;YGT 3;LGflex DPHP;JSWD DOP;JSWD-DOP;CX 166;DOP 01",
    "duplicated_cas_no": "109630-52-6;126639-29-0;137718-37-7;8033-53-2;40120-69-2;50885-87-5;607374-50-5;205180-59-2;275818-89-8",
    "SMILES": "C(OCC(CCCC)CC)(=O)C1=C(C(OCC(CCCC)CC)=O)C=CC=C1",
    "meta_data": {
        "InChI": "InChI=1S/C24H38O4/c1-5-9-13-19(7-3)17-27-23(25)21-15-11-12-16-22(21)24(26)28-18-20(8-4)14-10-6-2/h11-12,15-16,19-20H,5-10,13-14,17-18H2,1-4H3",
        "InChIKey": null,
        "Canonical SMILES": "O=C(OCC(CC)CCCC)C=1C=CC=CC1C(=O)OCC(CC)CCCC",
        "Molecular Formula": "C<sub>24</sub>H<sub>38</sub>O<sub>4</sub>",
        "Molecular Mass": "390.56",
        "Boiling Point": "230 °C @ Press: 5 Torr",
        "Melting Point": "-55 °C",
        "Density": "0.9861 g/cm³ @ Temp: 20 °C"
    }
}