{
    "cas_no": "38647-10-8",
    "key_name": "Tripdiolide",
    "cn_name": "雷公藤乙素;",
    "alternate_name": "Trisoxireno[4b,5:6,7:8a,9]phenanthro[1,2-<em>c</em>]furan-1(3<em>H</em>)-one, 3b,4,4a,6,6a,7a,7b,8b,9,10-decahydro-6,10-dihydroxy-8b-methyl-6a-(1-methylethyl)-, (3b<em>S</em>,4a<em>S</em>,5a<em>S</em>,6<em>R</em>,6a<em>R</em>,7a<em>S</em>,7b<em>S</em>,8a<em>S</em>,8b<em>S</em>,10<em>S</em>)-;Triptolide, 2-hydroxy-, (2β)-;(3b<em>S</em>,4a<em>S</em>,5a<em>S</em>,6<em>R</em>,6a<em>R</em>,7a<em>S</em>,7b<em>S</em>,8a<em>S</em>,8b<em>S</em>,10<em>S</em>)-3b,4,4a,6,6a,7a,7b,8b,9,10-Decahydro-6,10-dihydroxy-8b-methyl-6a-(1-methylethyl)trisoxireno[4b,5:6,7:8a,9]phenanthro[1,2-<em>c</em>]furan-1(3<em>H</em>)-one;Tripdiolide;NSC 163063;Triptodiolide;Trisoxireno[4b,5:6,7:8a,9]phenanthro[1,2-<em>c</em>]furan-1(3<em>H</em>)-one, 3b,4,4a,6,6a,7a,7b,8b,9,10-decahydro-6,10-dihydroxy-8b-methyl-6a-(1-methylethyl)-, [3b<em>S</em>-(3bα,4aα,5a<em>R</em>*,6β,6aβ,7aβ,7bα,8a<em>R</em>*,8bβ,10β)]-;(-)-Tripdiolide",
    "duplicated_cas_no": "",
    "SMILES": "C[C@@]12[C@@]34[C@@]5([C@@](O5)(C[C@]1(C6=C([C@@H](O)C2)C(=O)OC6)[H])[H])[C@H](O)[C@]7([C@H](C)C)[C@]([C@@]3(O4)[H])(O7)[H]",
    "meta_data": {
        "InChI": "InChI=1S/C20H24O7/c1-7(2)18-13(26-18)14-20(27-14)17(3)5-10(21)12-8(6-24-15(12)22)9(17)4-11-19(20,25-11)16(18)23/h7,9-11,13-14,16,21,23H,4-6H2,1-3H3/t9-,10-,11-,13-,14-,16+,17-,18-,19+,20+/m0/s1",
        "InChIKey": null,
        "Canonical SMILES": "O=C1OCC2=C1C(O)CC3(C)C2CC4OC54C(O)C6(OC6C7OC753)C(C)C",
        "Molecular Formula": "C<sub>20</sub>H<sub>24</sub>O<sub>7</sub>",
        "Molecular Mass": "376.40",
        "Melting Point": "220-222 °C"
    }
}