{
    "cas_no": "5836-10-2",
    "key_name": "Chloropropylate",
    "cn_name": "丙酯杀螨醇;",
    "alternate_name": "Benzeneacetic acid, 4-chloro-α-(4-chlorophenyl)-α-hydroxy-, 1-methylethyl ester;Benzilic acid, 4,4′-dichloro-, isopropyl ester;ENT 26999;Isopropyl 4,4′-dichlorobenzilate;Acaralate;Chloropropylate;Rospin;Rospine",
    "duplicated_cas_no": "",
    "SMILES": "C(C(OC(C)C)=O)(O)(C1=CC=C(Cl)C=C1)C2=CC=C(Cl)C=C2",
    "meta_data": {
        "InChI": "InChI=1S/C17H16Cl2O3/c1-11(2)22-16(20)17(21,12-3-7-14(18)8-4-12)13-5-9-15(19)10-6-13/h3-11,21H,1-2H3",
        "InChIKey": null,
        "Canonical SMILES": "O=C(OC(C)C)C(O)(C1=CC=C(Cl)C=C1)C2=CC=C(Cl)C=C2",
        "Molecular Formula": "C<sub>17</sub>H<sub>16</sub>Cl<sub>2</sub>O<sub>3</sub>",
        "Molecular Mass": "339.21",
        "Boiling Point": "148-150 °C @ Press: 0.5 Torr",
        "Melting Point": "73 °C",
        "Density": "1.36 g/cm³ @ Temp: 20 °C"
    }
}