{
    "cas_no": "5495-84-1",
    "key_name": "2-Isopropylthioxanthone",
    "cn_name": "2-异丙基硫杂蒽酮;光起始剂-ITX;",
    "alternate_name": "9<em>H</em>-Thioxanthen-9-one, 2-(1-methylethyl)-;Thioxanthen-9-one, 2-isopropyl-;2-(1-Methylethyl)-9<em>H</em>-thioxanthen-9-one;2-Isopropylthioxanthone;Quantacure 597;Quantacure 659;Quantacure ITX;2-Isopropylthioxanthen-9-one;2-ITX;Speedcure ITX;Photocure ITX-P;ITX;Omnirad ITX;JRCure ITX;2-Isopropyl-9<em>H</em>-thioxanthen-9-one;2-Isopropylthioxanthenone;GR-ITX;PI-ITX;Speedcure 2ITX;Gencure ITX;2-Propan-2-ylthioxanthen-9-one;Lunacure 2ITX",
    "duplicated_cas_no": "",
    "SMILES": "O=C1C=2C(SC=3C1=CC=CC3)=CC=C(C(C)C)C2",
    "meta_data": {
        "InChI": "InChI=1S/C16H14OS/c1-10(2)11-7-8-15-13(9-11)16(17)12-5-3-4-6-14(12)18-15/h3-10H,1-2H3",
        "InChIKey": null,
        "Canonical SMILES": "O=C1C=2C=CC=CC2SC3=CC=C(C=C31)C(C)C",
        "Molecular Formula": "C<sub>16</sub>H<sub>14</sub>OS",
        "Molecular Mass": "254.35",
        "Melting Point": "77.5 °C"
    }
}