{
    "cas_no": "2454-37-7",
    "key_name": "3-(1-Hydroxyethyl)aniline",
    "cn_name": "1-(3-氨苯基)乙醇;",
    "alternate_name": "Benzenemethanol, 3-amino-α-methyl-;Benzyl alcohol, <em>m</em>-amino-α-methyl-;3-Amino-α-methylbenzenemethanol;3-Amino-α-methylbenzyl alcohol;<em>m</em>-(1-Hydroxyethyl)aniline;<em>m</em>-Amino-α-methylbenzyl alcohol;3-(1-Hydroxyethyl)aniline;α-(<em>m</em>-Aminophenyl)ethanol;(<em>RS</em>)-3-(1-Hydroxyethyl)aniline;NSC 62018;NSC 8392;[3-(1-Hydroxyethyl)phenyl]amine;1-(3-Aminophenyl)ethanol;1-(3-Aminophenyl)ethan-1-ol",
    "duplicated_cas_no": "138561-59-8",
    "SMILES": "C(C)(O)C1=CC(N)=CC=C1",
    "meta_data": {
        "InChI": "InChI=1S/C8H11NO/c1-6(10)7-3-2-4-8(9)5-7/h2-6,10H,9H2,1H3",
        "InChIKey": null,
        "Canonical SMILES": "OC(C=1C=CC=C(N)C1)C",
        "Molecular Formula": "C<sub>8</sub>H<sub>11</sub>NO",
        "Molecular Mass": "137.18",
        "Boiling Point": "167-169 °C @ Press: 15 Torr",
        "Melting Point": "63-64 °C"
    }
}