{
    "cas_no": "58954-23-7",
    "key_name": "2-Propyl-1<em>H</em>-imidazole-4,5-dicarboxylic acid",
    "cn_name": "2-丙基咪唑二羧酸;",
    "alternate_name": "1<em>H</em>-Imidazole-4,5-dicarboxylic acid, 2-propyl-;Imidazole-4,5-dicarboxylic acid, 2-propyl-;2-Propyl-1<em>H</em>-imidazole-4,5-dicarboxylic acid;IEM 1795;2-Propyl-4,5-imidazoledicarboxylic acid",
    "duplicated_cas_no": "",
    "SMILES": "C(O)(=O)C1=C(C(O)=O)N=C(CCC)N1",
    "meta_data": {
        "InChI": "InChI=1S/C8H10N2O4/c1-2-3-4-9-5(7(11)12)6(10-4)8(13)14/h2-3H2,1H3,(H,9,10)(H,11,12)(H,13,14)",
        "InChIKey": null,
        "Canonical SMILES": "O=C(O)C=1N=C(NC1C(=O)O)CCC",
        "Molecular Formula": "C<sub>8</sub>H<sub>10</sub>N<sub>2</sub>O<sub>4</sub>",
        "Molecular Mass": "198.18",
        "Melting Point": "262-264 °C"
    }
}