{
    "cas_no": "36192-63-9",
    "key_name": "2-Amino-4′-methylbenzophenone",
    "cn_name": "2-氨基-4-甲基苯甲酮;",
    "alternate_name": "Methanone, (2-aminophenyl)(4-methylphenyl)-;(2-Aminophenyl)(4-methylphenyl)methanone;<em>o</em>-(<em>p</em>-Methylbenzoyl)aniline;2-Amino-4′-methylbenzophenone;(2-Aminophenyl)-<em>p</em>-tolylmethanone;2-Aminophenyl 4-methylphenyl ketone;2-(4-Methylbenzoyl)aniline",
    "duplicated_cas_no": "853942-49-1",
    "SMILES": "C(=O)(C1=C(N)C=CC=C1)C2=CC=C(C)C=C2",
    "meta_data": {
        "InChI": "InChI=1S/C14H13NO/c1-10-6-8-11(9-7-10)14(16)12-4-2-3-5-13(12)15/h2-9H,15H2,1H3",
        "InChIKey": null,
        "Canonical SMILES": "O=C(C1=CC=C(C=C1)C)C=2C=CC=CC2N",
        "Molecular Formula": "C<sub>14</sub>H<sub>13</sub>NO",
        "Molecular Mass": "211.26",
        "Melting Point": "94-95 °C"
    }
}