{
    "cas_no": "521-11-9",
    "key_name": "Mestanolone",
    "cn_name": "美雄诺龙;加氢甲基睾酮;17b-羟基-17a-甲基-5a-雄甾烷-3-酮;",
    "alternate_name": "Androstan-3-one, 17-hydroxy-17-methyl-, (5α,17β)-;5α-Androstan-3-one, 17β-hydroxy-17-methyl-;(5α,17β)-17-Hydroxy-17-methylandrostan-3-one;Androstalone;17β-Hydroxy-17α-methyl-3-androstanone;17β-Hydroxy-17α-methyl-5α-androstan-3-one;Mestanolone;17α-Methylandrostan-3-on-17β-ol;17α-Methyl-17β-hydroxy-5α-androstan-3-one;17α-Methyldihydrotestosterone;17α-Methylandrostan-17β-ol-3-one;17β-Hydroxy-17-methyl-5α-androstan-3-one;17α-Methyl-5α-dihydrotestosterone;5α-Androstan-17α-methyl-17β-ol-3-one;Assimil;Ermalone;Tantarone;Mestanolon;Mestalone;Methylantalon;Methybol;Preroide;RU 143;17α-Methyl-5α-androstan-17β-ol-3-one;17α-Methylandrostanolone;Methylandrostanolone;NSC 18219",
    "duplicated_cas_no": "119017-17-3;28801-95-8;478614-13-0",
    "SMILES": "C[C@@]12[C@@]3([C@]([C@]4([C@](C)(CC3)[C@@](C)(O)CC4)[H])(CC[C@]1(CC(=O)CC2)[H])[H])[H]",
    "meta_data": {
        "InChI": "InChI=1S/C20H32O2/c1-18-9-6-14(21)12-13(18)4-5-15-16(18)7-10-19(2)17(15)8-11-20(19,3)22/h13,15-17,22H,4-12H2,1-3H3/t13-,15+,16-,17-,18-,19-,20-/m0/s1",
        "InChIKey": null,
        "Canonical SMILES": "O=C1CCC2(C)C(C1)CCC3C2CCC4(C)C3CCC4(O)C",
        "Molecular Formula": "C<sub>20</sub>H<sub>32</sub>O<sub>2</sub>",
        "Molecular Mass": "304.47",
        "Melting Point": "192.5 °C"
    }
}