{
    "cas_no": "86347-14-0",
    "key_name": "Medetomidine",
    "cn_name": null,
    "alternate_name": "1<em>H</em>-Imidazole, 5-[1-(2,3-dimethylphenyl)ethyl]-;1<em>H</em>-Imidazole, 4-[1-(2,3-dimethylphenyl)ethyl]-;5-[1-(2,3-Dimethylphenyl)ethyl]-1<em>H</em>-imidazole;Medetomidine;<em>dl</em>-Medetomidine;(±)-Medetomidine;Slectope;4-[1-(2,3-Dimethylphenyl)ethyl]-1<em>H</em>-imidazole;Selektope",
    "duplicated_cas_no": "106807-72-1;2227379-35-1",
    "SMILES": "C(C)(C1=C(C)C(C)=CC=C1)C2=CN=CN2",
    "meta_data": {
        "InChI": "InChI=1S/C13H16N2/c1-9-5-4-6-12(10(9)2)11(3)13-7-14-8-15-13/h4-8,11H,1-3H3,(H,14,15)",
        "InChIKey": null,
        "Canonical SMILES": "N1=CNC(=C1)C(C=2C=CC=C(C2C)C)C",
        "Molecular Formula": "C<sub>13</sub>H<sub>16</sub>N<sub>2</sub>",
        "Molecular Mass": "200.28",
        "Melting Point": "83-92 °C"
    }
}