{
    "cas_no": "10405-02-4",
    "key_name": "Trospium chloride",
    "cn_name": "曲司氯胺;",
    "alternate_name": "Spiro[8-azoniabicyclo[3.2.1]octane-8,1′-pyrrolidinium], 3-[(2-hydroxy-2,2-diphenylacetyl)oxy]-, chloride (1:1), (1α,3β,5α)-;Spiro[1α<span class=\"text-smallcaps\">H</smallcap>,5α<smallcap>H</span>-nortropane-8,1′-pyrrolidinium], 3α-hydroxy-, chloride, benzilate;Spiro[8-azoniabicyclo[3.2.1]octane-8,1′-pyrrolidinium], 3-[(hydroxydiphenylacetyl)oxy]-, chloride, (1α,3β,5α)-;Benzilic acid, ester with 3α-hydroxyspiro[1α<span class=\"text-smallcaps\">H</smallcap>,5α<smallcap>H</span>-nortropane-8,1′-pyrrolidinium] chloride;Azoniaspiro(3α-benziloyloxynortropane-8,1′-pyrrolidine) chloride;Trospium chloride;Azoniaspiro compound XVII;As XVII;Keptan;Spasmex;Spasmo 3;Spasmo-lyt;Relaspium;Sanctura;Sanctura XR;Trozyd;TAR 302-5018",
    "duplicated_cas_no": "1001323-19-8",
    "SMILES": "O(C(C(O)(C1=CC=CC=C1)C2=CC=CC=C2)=O)[C@@H]3C[C@]4([N+]5([C@@](C3)(CC4)[H])CCCC5)[H].[Cl-]",
    "meta_data": {
        "InChI": "InChI=1/C25H30NO3.ClH/c27-24(25(28,19-9-3-1-4-10-19)20-11-5-2-6-12-20)29-23-17-21-13-14-22(18-23)26(21)15-7-8-16-26;/h1-6,9-12,21-23,28H,7-8,13-18H2;1H/q+1;/p-1/t21-,22+,23+;",
        "InChIKey": null,
        "Canonical SMILES": "[Cl-].O=C(OC1CC2CCC(C1)[N+]32CCCC3)C(O)(C=4C=CC=CC4)C=5C=CC=CC5",
        "Molecular Formula": "C<sub>25</sub>H<sub>30</sub>NO<sub>3</sub>.Cl",
        "Molecular Mass": "",
        "Melting Point": "255-257 °C"
    }
}