{
    "cas_no": "5466-90-0",
    "key_name": "2-[2-(Acetyloxy)ethyl]-1<em>H</em>-isoindole-1,3(2<em>H</em>)-dione",
    "cn_name": "乙酰可待因;乙酰可待因;",
    "alternate_name": "1<em>H</em>-Isoindole-1,3(2<em>H</em>)-dione, 2-[2-(acetyloxy)ethyl]-;Phthalimide, <em>N</em>-(2-hydroxyethyl)-, acetate (ester);Phthalimide, <em>N</em>-(2-hydroxyethyl)-, acetate;2-[2-(Acetyloxy)ethyl]-1<em>H</em>-isoindole-1,3(2<em>H</em>)-dione;<em>N</em>-Acetoxyethylphthalimide;<em>N</em>-(2-Acetoxyethyl)phthalimide;NSC 28603;2-(1,3-Dioxoisoindol-2-yl)ethyl acetate;2-(1,3-Dioxo-2,3-dihydro-1<em>H</em>-isoindol-2-yl)ethyl acetate",
    "duplicated_cas_no": "",
    "SMILES": "O=C1C=2C(C(=O)N1CCOC(C)=O)=CC=CC2",
    "meta_data": {
        "InChI": "InChI=1S/C12H11NO4/c1-8(14)17-7-6-13-11(15)9-4-2-3-5-10(9)12(13)16/h2-5H,6-7H2,1H3",
        "InChIKey": null,
        "Canonical SMILES": "O=C(OCCN1C(=O)C=2C=CC=CC2C1=O)C",
        "Molecular Formula": "C<sub>12</sub>H<sub>11</sub>NO<sub>4</sub>",
        "Molecular Mass": "233.22",
        "Boiling Point": "194-196 °C @ Press: 3 Torr",
        "Melting Point": "85.5-86 °C"
    }
}