{
    "cas_no": "300-38-9",
    "key_name": "3,5-Dibromo-<span class=\"text-smallcaps\">L</span>-tyrosine",
    "cn_name": "3,5-二溴-L-酪氨酸;L-3,5-二溴酪氨酸;",
    "alternate_name": "<span class=\"text-smallcaps\">L</span>-Tyrosine, 3,5-dibromo-;Tyrosine, 3,5-dibromo-, <span class=\"text-smallcaps\">L</span>-;3,5-Dibromo-<span class=\"text-smallcaps\">L</span>-tyrosine;3,5-Dibromotyrosine;β-(3,5-Dibromo-4-hydroxyphenyl)alanine;Biotiren;Bromotiren;NSC 210786;NSC 97935;(2S)-2-Azaniumyl-3-(3,5-dibromo-4-hydroxyphenyl)propanoate",
    "duplicated_cas_no": "",
    "SMILES": "C([C@@H](C(O)=O)N)C1=CC(Br)=C(O)C(Br)=C1",
    "meta_data": {
        "InChI": "InChI=1S/C9H9Br2NO3/c10-5-1-4(2-6(11)8(5)13)3-7(12)9(14)15/h1-2,7,13H,3,12H2,(H,14,15)/t7-/m0/s1",
        "InChIKey": null,
        "Canonical SMILES": "O=C(O)C(N)CC1=CC(Br)=C(O)C(Br)=C1",
        "Molecular Formula": "C<sub>9</sub>H<sub>9</sub>Br<sub>2</sub>NO<sub>3</sub>",
        "Molecular Mass": "338.98",
        "Melting Point": "245 °C"
    }
}