{
    "cas_no": "23598-72-3",
    "key_name": "3-(2-Chlorophenyl)-5-methyl-4-isoxazolecarboxylic acid",
    "cn_name": "3-(2-氯苯基)-5-甲基-4-异恶唑羧酸;5-甲基-3-(2-氯苯基)-4-异恶唑甲酸;",
    "alternate_name": "4-Isoxazolecarboxylic acid, 3-(2-chlorophenyl)-5-methyl-;4-Isoxazolecarboxylic acid, 3-(<em>o</em>-chlorophenyl)-5-methyl-;3-(2-Chlorophenyl)-5-methyl-4-isoxazolecarboxylic acid;NSC 81238",
    "duplicated_cas_no": "",
    "SMILES": "C(O)(=O)C=1C(=NOC1C)C2=C(Cl)C=CC=C2",
    "meta_data": {
        "InChI": "InChI=1S/C11H8ClNO3/c1-6-9(11(14)15)10(13-16-6)7-4-2-3-5-8(7)12/h2-5H,1H3,(H,14,15)",
        "InChIKey": null,
        "Canonical SMILES": "O=C(O)C=1C(=NOC1C)C=2C=CC=CC2Cl",
        "Molecular Formula": "C<sub>11</sub>H<sub>8</sub>ClNO<sub>3</sub>",
        "Molecular Mass": "237.64",
        "Melting Point": "193-196 °C"
    }
}