{
    "cas_no": "102-79-4",
    "key_name": "Butyldiethanolamine",
    "cn_name": "N-丁基二乙醇胺;",
    "alternate_name": "Ethanol, 2,2′-(butylimino)bis-;Ethanol, 2,2′-(butylimino)di-;2,2′-(Butylimino)bis[ethanol];<em>N</em>-Butyl-<em>N</em>,<em>N</em>-bis(hydroxyethyl)amine;Butyldiethanolamine;<em>N</em>-Butyl-2,2′-iminodiethanol;<em>N</em>-Butyldiethanolamine;2,2′-(Butylimino)diethanol;<em>N</em>,<em>N</em>-Bis(2-hydroxyethyl)butylamine;Butylbis(2-hydroxyethyl)amine;<em>N</em>-Butyl-<em>N</em>,<em>N</em>-bis(2-hydroxyethyl)amine;BIDE;Bis(β-hydroxyethyl)butylamine;<em>N</em>-<em>n</em>-Butyldiethanolamine;3-Butyl-3-aza-1,5-pentanediol;<em>N</em>-Butyliminodiethanol;Diethanol(<em>n</em>-butyl)amine;NSC 60214;Amino Alcohol MBD;<em>N</em>,<em>N</em>-Bis(2-hydroxyethyl)-1-butanamine;Vantex T;2-[Butyl(2-hydroxyethyl)amino]ethan-1-ol;2-[Butyl(2-hydroxyethyl)amino]ethanol",
    "duplicated_cas_no": "1160183-80-1",
    "SMILES": "N(CCCC)(CCO)CCO",
    "meta_data": {
        "InChI": "InChI=1S/C8H19NO2/c1-2-3-4-9(5-7-10)6-8-11/h10-11H,2-8H2,1H3",
        "InChIKey": null,
        "Canonical SMILES": "OCCN(CCO)CCCC",
        "Molecular Formula": "C<sub>8</sub>H<sub>19</sub>NO<sub>2</sub>",
        "Molecular Mass": "161.24",
        "Boiling Point": "275 °C"
    }
}