{
    "cas_no": "218-01-9",
    "key_name": "Chrysene",
    "cn_name": "屈;稠二萘;1,2,5,6-二苯并萘;1,2-苯并菲;",
    "alternate_name": "Chrysene;1,2-Benzphenanthrene;Benzo[<em>a</em>]phenanthrene;1,2-Benzophenanthrene;NSC 6175;[4]Phenacene",
    "duplicated_cas_no": "27274-05-1",
    "SMILES": "C12=C(C=3C(C=C1)=CC=CC3)C=CC=4C2=CC=CC4",
    "meta_data": {
        "InChI": "InChI=1S/C18H12/c1-3-7-15-13(5-1)9-11-18-16-8-4-2-6-14(16)10-12-17(15)18/h1-12H",
        "InChIKey": null,
        "Canonical SMILES": "C=1C=CC2=C(C1)C=CC=3C=4C=CC=CC4C=CC23",
        "Molecular Formula": "C<sub>18</sub>H<sub>12</sub>",
        "Molecular Mass": "228.29",
        "Boiling Point": "448 °C",
        "Melting Point": "258.2 °C",
        "Density": "1.274 g/cm³ @ Temp: 20 °C"
    }
}