{
    "cas_no": "17247-58-4",
    "key_name": "(Bromomethyl)cyclobutane",
    "cn_name": "溴甲基环丁烷;",
    "alternate_name": "Cyclobutane, (bromomethyl)-;(Bromomethyl)cyclobutane;Bromocyclobutylmethane;Cyclobutylmethyl bromide;1-(Bromomethyl)cyclobutane",
    "duplicated_cas_no": "",
    "SMILES": "C(Br)C1CCC1",
    "meta_data": {
        "InChI": "InChI=1S/C5H9Br/c6-4-5-2-1-3-5/h5H,1-4H2",
        "InChIKey": null,
        "Canonical SMILES": "BrCC1CCC1",
        "Molecular Formula": "C<sub>5</sub>H<sub>9</sub>Br",
        "Molecular Mass": "149.03",
        "Boiling Point": "54-56 °C @ Press: 45 Torr"
    }
}