{
    "cas_no": "52784-32-4",
    "key_name": "Cycloheptanecarboxylic acid, 2-oxo-, methyl ester",
    "cn_name": null,
    "alternate_name": "Cycloheptanecarboxylic acid, 2-oxo-, methyl ester;Methyl 2-oxocycloheptanecarboxylate;2-(Methoxycarbonyl)cycloheptanone;2-Oxocycloheptanecarboxylic acid methyl ester;NSC 148967;Methyl 2-oxo-1-cycloheptanecarboxylate",
    "duplicated_cas_no": "103533-32-0",
    "SMILES": "C(OC)(=O)C1C(=O)CCCCC1",
    "meta_data": {
        "InChI": "InChI=1S/C9H14O3/c1-12-9(11)7-5-3-2-4-6-8(7)10/h7H,2-6H2,1H3",
        "InChIKey": null,
        "Canonical SMILES": "O=C(OC)C1C(=O)CCCCC1",
        "Molecular Formula": "C<sub>9</sub>H<sub>14</sub>O<sub>3</sub>",
        "Molecular Mass": "170.21",
        "Boiling Point": "112-114 °C @ Press: 10 Torr"
    }
}