{
    "cas_no": "524-30-1",
    "key_name": "Fraxin",
    "cn_name": null,
    "alternate_name": "2<em>H</em>-1-Benzopyran-2-one, 8-(β-<span class=\"text-smallcaps\">D</span>-glucopyranosyloxy)-7-hydroxy-6-methoxy-;Fraxin;8-(β-<span class=\"text-smallcaps\">D</span>-Glucopyranosyloxy)-7-hydroxy-6-methoxy-2<em>H</em>-1-benzopyran-2-one;Fraxetol 8-glucoside;Fraxetin 8-β-<span class=\"text-smallcaps\">D</span>-glucopyranoside;Fraxoside;7,8-Dihydroxy-6-methoxycoumarin 8-β-<span class=\"text-smallcaps\">D</span>-glucopyranoside",
    "duplicated_cas_no": "1328-88-7;4139-66-6;293738-09-7",
    "SMILES": "O(C1=C2C(=CC(OC)=C1O)C=CC(=O)O2)[C@@H]3O[C@H](CO)[C@@H](O)[C@H](O)[C@H]3O",
    "meta_data": {
        "InChI": "InChI=1S/C16H18O10/c1-23-7-4-6-2-3-9(18)25-14(6)15(11(7)20)26-16-13(22)12(21)10(19)8(5-17)24-16/h2-4,8,10,12-13,16-17,19-22H,5H2,1H3/t8-,10-,12+,13-,16+/m1/s1",
        "InChIKey": null,
        "Canonical SMILES": "O=C1OC=2C(OC3OC(CO)C(O)C(O)C3O)=C(O)C(OC)=CC2C=C1",
        "Molecular Formula": "C<sub>16</sub>H<sub>18</sub>O<sub>10</sub>",
        "Molecular Mass": "370.31",
        "Melting Point": "200 °C"
    }
}