{
    "cas_no": "474-07-7",
    "key_name": "(+)-Brazilin",
    "cn_name": "苏枋精;",
    "alternate_name": "Benz[<em>b</em>]indeno[1,2-<em>d</em>]pyran-3,6a,9,10(6<em>H</em>)-tetrol, 7,11b-dihydro-, (6a<em>S</em>,11b<em>R</em>)-;Benz[<em>b</em>]indeno[1,2-<em>d</em>]pyran-3,6a,9,10(6<em>H</em>)-tetrol, 7,11b-dihydro-, (6a<em>S</em>-<em>cis</em>)-;Brazilin;(6a<em>S</em>,11b<em>R</em>)-7,11b-Dihydrobenz[<em>b</em>]indeno[1,2-<em>d</em>]pyran-3,6a,9,10(6<em>H</em>)-tetrol;Brasilin;Braziletto;Hypernic Extract;Limawood Extract;Pernambuco Extract;Superbresiline;(+)-Brazilin;NSC 56652;(6AS,11bR)-7,11b-dihydro-6<em>H</em>-indeno[2,1-<em>c</em>]chromene-3,6a,9,10-tetrol",
    "duplicated_cas_no": "22562-62-5",
    "SMILES": "O[C@]12[C@](C=3C(C1)=CC(O)=C(O)C3)(C=4C(OC2)=CC(O)=CC4)[H]",
    "meta_data": {
        "InChI": "InChI=1S/C16H14O5/c17-9-1-2-10-14(4-9)21-7-16(20)6-8-3-12(18)13(19)5-11(8)15(10)16/h1-5,15,17-20H,6-7H2/t15-,16+/m0/s1",
        "InChIKey": null,
        "Canonical SMILES": "OC1=CC=C2C(OCC3(O)CC4=CC(O)=C(O)C=C4C23)=C1",
        "Molecular Formula": "C<sub>16</sub>H<sub>14</sub>O<sub>5</sub>",
        "Molecular Mass": "",
        "Melting Point": "156-157 °C"
    }
}