{
    "cas_no": "4292-75-5",
    "key_name": "Hexylcyclohexane",
    "cn_name": "正己基环己烷;",
    "alternate_name": "Cyclohexane, hexyl-;Hexane, 1-cyclohexyl-;Hexylcyclohexane;<em>n</em>-Hexylcyclohexane;1-Cyclohexylhexane;NSC 95433",
    "duplicated_cas_no": "",
    "SMILES": "C(CCCCC)C1CCCCC1",
    "meta_data": {
        "InChI": "InChI=1S/C12H24/c1-2-3-4-6-9-12-10-7-5-8-11-12/h12H,2-11H2,1H3",
        "InChIKey": null,
        "Canonical SMILES": "CCCCCCC1CCCCC1",
        "Molecular Formula": "C<sub>12</sub>H<sub>24</sub>",
        "Molecular Mass": "168.32",
        "Boiling Point": "224 °C",
        "Melting Point": "-43 °C",
        "Density": "0.806 g/cm³ @ Temp: 20 °C"
    }
}