{
    "cas_no": "37905-08-1",
    "key_name": "Jolkinolide B",
    "cn_name": null,
    "alternate_name": "Bisoxireno[1,10a:3,4]phenanthro[3,2-<em>b</em>]furan-9(7a<em>H</em>)-one, 1,2,3,4,4a,5,6,11a,11b,11c-decahydro-4,4,8,11c-tetramethyl-, (4a<em>R</em>,6a<em>S</em>,7a<em>R</em>,10a<em>R</em>,11a<em>R</em>,11b<em>R</em>,11c<em>R</em>)-;Bisoxireno[1,10a:3,4]phenanthro[3,2-<em>b</em>]furan-9(7a<em>H</em>)-one, 1,2,3,4,4a,5,6,11a,11b,11c-decahydro-4,4,8,11c-tetramethyl-, [4a<em>R</em>-(4aα,6a<em>S</em>*,7aβ,10a<em>R</em>*,11aβ,11bα,11cβ)]-;(4a<em>R</em>,6a<em>S</em>,7a<em>R</em>,10a<em>R</em>,11a<em>R</em>,11b<em>R</em>,11c<em>R</em>)-1,2,3,4,4a,5,6,11a,11b,11c-Decahydro-4,4,8,11c-tetramethylbisoxireno[1,10a:3,4]phenanthro[3,2-<em>b</em>]furan-9(7a<em>H</em>)-one;Jolkinolide B",
    "duplicated_cas_no": "",
    "SMILES": "C[C@]12[C@]3([C@]4([C@](O4)(C=5[C@]6([C@@]3(O6)[H])OC(=O)C5C)[H])CC[C@@]1(C(C)(C)CCC2)[H])[H]",
    "meta_data": {
        "InChI": "InChI=1S/C20H26O4/c1-10-12-14-19(22-14)9-6-11-17(2,3)7-5-8-18(11,4)13(19)15-20(12,23-15)24-16(10)21/h11,13-15H,5-9H2,1-4H3/t11-,13+,14-,15-,18-,19+,20-/m1/s1",
        "InChIKey": null,
        "Canonical SMILES": "O=C1OC23OC3C4C5(OC5C2=C1C)CCC6C(C)(C)CCCC64C",
        "Molecular Formula": "C<sub>20</sub>H<sub>26</sub>O<sub>4</sub>",
        "Molecular Mass": "330.42",
        "Melting Point": "213-215 °C"
    }
}