{
    "cas_no": "387350-46-1",
    "key_name": "4-(Methylsulfonyl)benzenepropanoic acid",
    "cn_name": null,
    "alternate_name": "Benzenepropanoic acid, 4-(methylsulfonyl)-;4-(Methylsulfonyl)benzenepropanoic acid;3-[4-(Methylsulfonyl)phenyl]propanoic acid;4-Methylsulfonylbenzenepropanoic acid",
    "duplicated_cas_no": "",
    "SMILES": "S(C)(=O)(=O)C1=CC=C(CCC(O)=O)C=C1",
    "meta_data": {
        "InChI": "InChI=1S/C10H12O4S/c1-15(13,14)9-5-2-8(3-6-9)4-7-10(11)12/h2-3,5-6H,4,7H2,1H3,(H,11,12)",
        "InChIKey": null,
        "Canonical SMILES": "O=C(O)CCC1=CC=C(C=C1)S(=O)(=O)C",
        "Molecular Formula": "C<sub>10</sub>H<sub>12</sub>O<sub>4</sub>S",
        "Molecular Mass": "228.26",
        "Melting Point": "171-172 °C"
    }
}