{
    "cas_no": "1199-77-5",
    "key_name": "α-Methylcinnamic acid",
    "cn_name": "alpha-甲基肉桂酸;2-甲基-3-苯基丙烯酸;",
    "alternate_name": "2-Propenoic acid, 2-methyl-3-phenyl-;Cinnamic acid, α-methyl-;2-Methyl-3-phenyl-2-propenoic acid;α-Methylcinnamic acid;NSC 401113;3-Phenyl-2-methyl-2-propenoic acid;2-Methyl-3-phenylacrylicacid",
    "duplicated_cas_no": "",
    "SMILES": "C(=C(C(O)=O)C)C1=CC=CC=C1",
    "meta_data": {
        "InChI": "InChI=1S/C10H10O2/c1-8(10(11)12)7-9-5-3-2-4-6-9/h2-7H,1H3,(H,11,12)",
        "InChIKey": null,
        "Canonical SMILES": "O=C(O)C(=CC=1C=CC=CC1)C",
        "Molecular Formula": "C<sub>10</sub>H<sub>10</sub>O<sub>2</sub>",
        "Molecular Mass": "162.19",
        "Boiling Point": "225-230 °C @ Press: 0.2 Torr",
        "Melting Point": "79-81 °C"
    }
}