{
    "cas_no": "627-93-0",
    "key_name": "Dimethyl adipate",
    "cn_name": "己二酸二甲酯;",
    "alternate_name": "Hexanedioic acid, 1,6-dimethyl ester;Adipic acid, dimethyl ester;Hexanedioic acid, dimethyl ester;Dimethyl adipate;Methyl adipate;Dimethyl hexanedioate;DBE 6;NSC 11213;Adipinic acid dimethyl ester;Dimethyl 1,6-hexanedioate",
    "duplicated_cas_no": "111366-61-1",
    "SMILES": "C(CCCC(OC)=O)C(OC)=O",
    "meta_data": {
        "InChI": "InChI=1S/C8H14O4/c1-11-7(9)5-3-4-6-8(10)12-2/h3-6H2,1-2H3",
        "InChIKey": null,
        "Canonical SMILES": "O=C(OC)CCCCC(=O)OC",
        "Molecular Formula": "C<sub>8</sub>H<sub>14</sub>O<sub>4</sub>",
        "Molecular Mass": "174.19",
        "Boiling Point": "115 °C @ Press: 13 Torr",
        "Melting Point": "10.3 °C",
        "Density": "1.0600 g/cm³ @ Temp: 20 °C"
    }
}