{
    "cas_no": "2039-77-2",
    "key_name": "9-Acetylphenanthrene",
    "cn_name": "9-乙酰菲;9-乙酰菲;",
    "alternate_name": "Ethanone, 1-(9-phenanthrenyl)-;Ketone, methyl 9-phenanthryl;1-(9-Phenanthrenyl)ethanone;9-Acetylphenanthrene;NSC 15306;NSC 231776",
    "duplicated_cas_no": "",
    "SMILES": "C(C)(=O)C1=C2C(=C3C(=C1)C=CC=C3)C=CC=C2",
    "meta_data": {
        "InChI": "InChI=1S/C16H12O/c1-11(17)16-10-12-6-2-3-7-13(12)14-8-4-5-9-15(14)16/h2-10H,1H3",
        "InChIKey": null,
        "Canonical SMILES": "O=C(C1=CC=2C=CC=CC2C=3C=CC=CC31)C",
        "Molecular Formula": "C<sub>16</sub>H<sub>12</sub>O",
        "Molecular Mass": "220.27",
        "Melting Point": "74-74.5 °C"
    }
}