{
    "cas_no": "86-71-5",
    "key_name": "3,6-Diaminocarbazole",
    "cn_name": "3,6-二氨基咔唑;9H-咔唑-3,6-二胺;",
    "alternate_name": "9<em>H</em>-Carbazole-3,6-diamine;Carbazole, 3,6-diamino-;3,6-Diaminocarbazole;NSC 49770;3,6-Diamino-9<em>H</em>-carbazole",
    "duplicated_cas_no": "",
    "SMILES": "NC=1C=C2C=3C(NC2=CC1)=CC=C(N)C3",
    "meta_data": {
        "InChI": "InChI=1S/C12H11N3/c13-7-1-3-11-9(5-7)10-6-8(14)2-4-12(10)15-11/h1-6,15H,13-14H2",
        "InChIKey": null,
        "Canonical SMILES": "NC1=CC=C2NC=3C=CC(N)=CC3C2=C1",
        "Molecular Formula": "C<sub>12</sub>H<sub>11</sub>N<sub>3</sub>",
        "Molecular Mass": "197.24",
        "Melting Point": "276-279 °C"
    }
}