{
    "cas_no": "97944-43-9",
    "key_name": "3-Bromo-5-methyl-4-pyridinamine",
    "cn_name": null,
    "alternate_name": "4-Pyridinamine, 3-bromo-5-methyl-;3-Bromo-5-methyl-4-pyridinamine;4-Amino-5-bromo-3-methylpyridine;3-Bromo-5-methyl-1,4-dihydropyridin-4-imine",
    "duplicated_cas_no": "",
    "SMILES": "NC=1C(Br)=CN=CC1C",
    "meta_data": {
        "InChI": "InChI=1S/C6H7BrN2/c1-4-2-9-3-5(7)6(4)8/h2-3H,1H3,(H2,8,9)",
        "InChIKey": null,
        "Canonical SMILES": "BrC1=CN=CC(=C1N)C",
        "Molecular Formula": "C<sub>6</sub>H<sub>7</sub>BrN<sub>2</sub>",
        "Molecular Mass": "187.04",
        "Melting Point": "115.0 °C"
    }
}