{
    "cas_no": "555-57-7",
    "key_name": "Pargyline",
    "cn_name": "优降宁;N-甲基-N-2-丙炔基苄胺;帕吉林;巴吉林;盐酸甲基丙炔苄胺;",
    "alternate_name": "Benzenemethanamine, <em>N</em>-methyl-<em>N</em>-2-propyn-1-yl-;Benzylamine, <em>N</em>-methyl-<em>N</em>-2-propynyl-;Benzenemethanamine, <em>N</em>-methyl-<em>N</em>-2-propynyl-;<em>N</em>-Methyl-<em>N</em>-2-propyn-1-ylbenzenemethanamine;<em>N</em>-Benzyl-<em>N</em>-methyl-2-propynylamine;<em>N</em>-Methyl-<em>N</em>-benzylpropynylamine;<em>N</em>-Methyl-<em>N</em>-2-propynylbenzylamine;Pargylamine;Pargylin;Pargyline;<em>N</em>-Methyl-<em>N</em>-propargylbenzylamine;Supirdyl;Eudatin;Benzylmethylpropargylamine;<em>N</em>-Benzyl-<em>N</em>-methylpropargylamine;<em>N</em>-Methyl-<em>N</em>-2-propynylbenzenemethanamine;MeSH ID: D010293",
    "duplicated_cas_no": "",
    "SMILES": "C(N(CC#C)C)C1=CC=CC=C1",
    "meta_data": {
        "InChI": "InChI=1S/C11H13N/c1-3-9-12(2)10-11-7-5-4-6-8-11/h1,4-8H,9-10H2,2H3",
        "InChIKey": null,
        "Canonical SMILES": "C#CCN(C)CC=1C=CC=CC1",
        "Molecular Formula": "C<sub>11</sub>H<sub>13</sub>N",
        "Molecular Mass": "159.23",
        "Boiling Point": "96.5 °C",
        "Melting Point": "15-20 °C",
        "Density": "1.0291 g/cm³ @ Temp: 20 °C"
    }
}