{
    "cas_no": "23930-19-0",
    "key_name": "Alphaxalone",
    "cn_name": "安泰酮;阿法沙龙;5α-孕-3α-醇-11,20-二酮;3-羟基-5α-孕烷-11,20-二酮;",
    "alternate_name": "Pregnane-11,20-dione, 3-hydroxy-, (3α,5α)-;5α-Pregnane-11,20-dione, 3α-hydroxy-;(3α,5α)-3-Hydroxypregnane-11,20-dione;3α-Hydroxy-5α-pregnane-11,20-dione;5α-Pregnane-3α-ol-11,20-dione;Alphaxalone;Alfaxalone;GR 2/234;5α-Pregnan-3α-ol-11,20-dione;5α-Alphaxalone;Alfadione",
    "duplicated_cas_no": "",
    "SMILES": "C[C@@]12[C@@]3([C@]([C@]4([C@](C)(CC3=O)[C@@H](C(C)=O)CC4)[H])(CC[C@]1(C[C@H](O)CC2)[H])[H])[H]",
    "meta_data": {
        "InChI": "InChI=1S/C21H32O3/c1-12(22)16-6-7-17-15-5-4-13-10-14(23)8-9-20(13,2)19(15)18(24)11-21(16,17)3/h13-17,19,23H,4-11H2,1-3H3/t13-,14+,15-,16+,17-,19+,20-,21+/m0/s1",
        "InChIKey": null,
        "Canonical SMILES": "O=C(C)C1CCC2C3CCC4CC(O)CCC4(C)C3C(=O)CC12C",
        "Molecular Formula": "C<sub>21</sub>H<sub>32</sub>O<sub>3</sub>",
        "Molecular Mass": "332.48",
        "Melting Point": "172-174 °C"
    }
}