{
    "cas_no": "84547-85-3",
    "key_name": "4-Chloro-1-methyl-1<em>H</em>-pyrazole-3-carboxylic acid",
    "cn_name": null,
    "alternate_name": "1<em>H</em>-Pyrazole-3-carboxylic acid, 4-chloro-1-methyl-;4-Chloro-1-methyl-1<em>H</em>-pyrazole-3-carboxylic acid",
    "duplicated_cas_no": "",
    "SMILES": "C(O)(=O)C1=NN(C)C=C1Cl",
    "meta_data": {
        "InChI": "InChI=1S/C5H5ClN2O2/c1-8-2-3(6)4(7-8)5(9)10/h2H,1H3,(H,9,10)",
        "InChIKey": null,
        "Canonical SMILES": "O=C(O)C1=NN(C=C1Cl)C",
        "Molecular Formula": "C<sub>5</sub>H<sub>5</sub>ClN<sub>2</sub>O<sub>2</sub>",
        "Molecular Mass": "160.56",
        "Melting Point": "219-221 °C"
    }
}