{
    "cas_no": "21900-42-5",
    "key_name": "2,4-Dimethylbenzoyl chloride",
    "cn_name": "2,4-二甲基苯甲酰氯;",
    "alternate_name": "Benzoyl chloride, 2,4-dimethyl-;2,4-Dimethylbenzoyl chloride",
    "duplicated_cas_no": "",
    "SMILES": "C(Cl)(=O)C1=C(C)C=C(C)C=C1",
    "meta_data": {
        "InChI": "InChI=1S/C9H9ClO/c1-6-3-4-8(9(10)11)7(2)5-6/h3-5H,1-2H3",
        "InChIKey": null,
        "Canonical SMILES": "O=C(Cl)C1=CC=C(C=C1C)C",
        "Molecular Formula": "C<sub>9</sub>H<sub>9</sub>ClO",
        "Molecular Mass": "168.62",
        "Boiling Point": "113 °C @ Press: 15 Torr"
    }
}