{
    "cas_no": "28108-99-8",
    "key_name": "Isopropylphenyl diphenyl phosphate",
    "cn_name": "磷酸异丙基苯二苯酯;",
    "alternate_name": "Phosphoric acid, (1-methylethyl)phenyl diphenyl ester;Isopropylphenyl diphenyl phosphate;Diphenyl isopropylphenyl phosphate;Phosflex 31L;IPPP;Monoisopropyltriphenyl phosphate;Cumyl diphenyl phosphate;mITP",
    "duplicated_cas_no": "359793-44-5",
    "SMILES": "",
    "meta_data": {
        "InChI": "",
        "InChIKey": null,
        "Canonical SMILES": "",
        "Molecular Formula": "C<sub>21</sub>H<sub>21</sub>O<sub>4</sub>P",
        "Molecular Mass": "",
        "Boiling Point": "220-230 °C"
    }
}