{
    "cas_no": "4654-39-1",
    "key_name": "2-(4-Bromophenyl)ethanol",
    "cn_name": "4-溴苯乙醇;2-(4-溴苯基)乙醇;",
    "alternate_name": "Benzeneethanol, 4-bromo-;Phenethyl alcohol, <em>p</em>-bromo-;4-Bromobenzeneethanol;2-(4-Bromophenyl)ethanol;4-Bromophenethyl alcohol;<em>p</em>-Bromophenethyl alcohol;2-(<em>p</em>-Bromophenyl)ethanol;4-(2-Hydroxyethyl)-1-bromobenzene;4-Bromophenethanol;2-(4-Bromophenyl)ethan-1-ol",
    "duplicated_cas_no": "",
    "SMILES": "C(CO)C1=CC=C(Br)C=C1",
    "meta_data": {
        "InChI": "InChI=1S/C8H9BrO/c9-8-3-1-7(2-4-8)5-6-10/h1-4,10H,5-6H2",
        "InChIKey": null,
        "Canonical SMILES": "BrC1=CC=C(C=C1)CCO",
        "Molecular Formula": "C<sub>8</sub>H<sub>9</sub>BrO",
        "Molecular Mass": "201.06",
        "Boiling Point": "144.5-145 °C @ Press: 15 Torr",
        "Melting Point": "36-38 °C",
        "Density": "1.4845 g/cm³ @ Temp: 16.5 °C"
    }
}