{
    "cas_no": "7597-60-6",
    "key_name": "<em>N</em>-(6-Amino-1,2,3,4-tetrahydro-1,3-dimethyl-2,4-dioxo-5-pyrimidinyl)formamide",
    "cn_name": "6-氨基-5-甲酰氨基-1,3-二甲基尿嘧啶;4-氨基-1,3-二甲基-5-甲酰氨基脲嗪;",
    "alternate_name": "Formamide, <em>N</em>-(6-amino-1,2,3,4-tetrahydro-1,3-dimethyl-2,4-dioxo-5-pyrimidinyl)-;Uracil, 6-amino-5-formamido-1,3-dimethyl-;<em>N</em>-(6-Amino-1,2,3,4-tetrahydro-1,3-dimethyl-2,4-dioxo-5-pyrimidinyl)formamide;1,3-Dimethyl-4-amino-5-(formylamino)uracil;6-Amino-1,3-dimethyl-5-(formylamino)pyrimidine-2,4-dione;NSC 42307",
    "duplicated_cas_no": "",
    "SMILES": "N(C=O)C1=C(N)N(C)C(=O)N(C)C1=O",
    "meta_data": {
        "InChI": "InChI=1S/C7H10N4O3/c1-10-5(8)4(9-3-12)6(13)11(2)7(10)14/h3H,8H2,1-2H3,(H,9,12)",
        "InChIKey": null,
        "Canonical SMILES": "O=CNC=1C(=O)N(C(=O)N(C1N)C)C",
        "Molecular Formula": "C<sub>7</sub>H<sub>10</sub>N<sub>4</sub>O<sub>3</sub>",
        "Molecular Mass": "198.18",
        "Melting Point": "250-258 °C"
    }
}