{
    "cas_no": "200132-54-3",
    "key_name": "Cinchonanium, 1-(9-anthracenylmethyl)-9-(2-propenyloxy)-, bromide, (8α,9<em>R</em>)-",
    "cn_name": null,
    "alternate_name": "Cinchonanium, 1-(9-anthracenylmethyl)-9-(2-propenyloxy)-, bromide, (8α,9<em>R</em>)-;<em>O</em>(9)-Allyl-<em>N</em>-9-anthracenylcinchonidinium bromide;<em>O</em>-Allyl-1-(anthracen-9-ylmethyl)cinchonidinium bromide;<em>O</em>-Allyl-<em>N</em>-[(9-anthracenyl)methyl]cinchonidium bromide;O(9)-Allyl-<em>N</em>-9-anthracenylmethylcinchonidium bromide;<em>O</em>-Allyl-<em>N</em>-(9-anthracenylmethyl)cinchoninium bromide",
    "duplicated_cas_no": "371963-42-7;732247-86-8;756480-43-0;1198599-33-5;2244813-33-8",
    "SMILES": "C([N@@+]12[C@]([C@H](OCC=C)C=3C4=C(N=CC3)C=CC=C4)(C[C@@]([C@@H](C=C)C1)(CC2)[H])[H])C=5C6=C(C=C7C5C=CC=C7)C=CC=C6.[Br-]",
    "meta_data": {
        "InChI": "InChI=1S/C37H37N2O.BrH/c1-3-21-40-37(33-17-19-38-35-16-10-9-15-32(33)35)36-23-27-18-20-39(36,24-26(27)4-2)25-34-30-13-7-5-11-28(30)22-29-12-6-8-14-31(29)34;/h3-17,19,22,26-27,36-37H,1-2,18,20-21,23-25H2;1H/q+1;/p-1/t26-,27-,36-,37+,39-;/m0./s1",
        "InChIKey": null,
        "Canonical SMILES": "[Br-].N=1C=CC(=C2C=CC=CC12)C(OCC=C)C3CC4CC[N+]3(CC=5C=6C=CC=CC6C=C7C=CC=CC75)CC4C=C",
        "Molecular Formula": "C<sub>37</sub>H<sub>37</sub>N<sub>2</sub>O.Br",
        "Molecular Mass": "",
        "Melting Point": "169-172 °C"
    }
}