{
    "cas_no": "581-42-0",
    "key_name": "2,6-Dimethylnaphthalene",
    "cn_name": "2,6-二甲基萘;",
    "alternate_name": "Naphthalene, 2,6-dimethyl-;2,6-Dimethylnaphthalene;NSC 36852",
    "duplicated_cas_no": "",
    "SMILES": "CC1=CC2=C(C=C(C)C=C2)C=C1",
    "meta_data": {
        "InChI": "InChI=1S/C12H12/c1-9-3-5-12-8-10(2)4-6-11(12)7-9/h3-8H,1-2H3",
        "InChIKey": null,
        "Canonical SMILES": "C=1C=C(C=C2C=CC(=CC12)C)C",
        "Molecular Formula": "C<sub>12</sub>H<sub>12</sub>",
        "Molecular Mass": "156.22",
        "Boiling Point": "262 °C",
        "Melting Point": "112 °C"
    }
}