{
    "cas_no": "5197-62-6",
    "key_name": "2-[(2-Chloroethoxy)ethoxy]ethanol",
    "cn_name": "2-氯乙氧基-2-乙氧基二乙醇;",
    "alternate_name": "Ethanol, 2-[2-(2-chloroethoxy)ethoxy]-;2-[2-(2-Chloroethoxy)ethoxy]ethanol;Triethylene glycol monochloride;8-Chloro-3,6-dioxa-1-octanol;Diethylene glycol mono(2-chloroethyl) ether;Triethylene glycol monochlorohydrin;8-Chloro-3,6-dioxaoctanol;2-[(2-Chloroethoxy)ethoxy]ethanol;NSC 2636;2-[2-(2-Hydroxyethoxy)ethoxy]ethyl chloride;2-(2-(2-Chloroethoxy)ethoxy)ethan-1-ol;2-(2-(2-Chlorethoxy)ethoxy)ethanol;PEG 168",
    "duplicated_cas_no": "95900-35-9",
    "SMILES": "C(COCCO)OCCCl",
    "meta_data": {
        "InChI": "InChI=1S/C6H13ClO3/c7-1-3-9-5-6-10-4-2-8/h8H,1-6H2",
        "InChIKey": null,
        "Canonical SMILES": "ClCCOCCOCCO",
        "Molecular Formula": "C<sub>6</sub>H<sub>13</sub>ClO<sub>3</sub>",
        "Molecular Mass": "168.62",
        "Boiling Point": "113-114 °C @ Press: 2 Torr"
    }
}