{
    "cas_no": "106-58-1",
    "key_name": "1,4-Dimethylpiperazine",
    "cn_name": "1,4-二甲基哌嗪;",
    "alternate_name": "Piperazine, 1,4-dimethyl-;1,4-Dimethylpiperazine;<em>N</em>,<em>N</em>′-Dimethylpiperazine;Lupetazine;Texacat DMP;NSC 41177;Jeffcat DMP;RCA 117;Addocat 117;Niax DMP",
    "duplicated_cas_no": "352546-66-8;766445-14-1;802009-52-5;2643942-54-3",
    "SMILES": "CN1CCN(C)CC1",
    "meta_data": {
        "InChI": "InChI=1S/C6H14N2/c1-7-3-5-8(2)6-4-7/h3-6H2,1-2H3",
        "InChIKey": null,
        "Canonical SMILES": "N1(C)CCN(C)CC1",
        "Molecular Formula": "C<sub>6</sub>H<sub>14</sub>N<sub>2</sub>",
        "Molecular Mass": "114.19",
        "Boiling Point": "131 °C"
    }
}