{
    "cas_no": "2563-07-7",
    "key_name": "2-Ethoxy-4-methylphenol",
    "cn_name": "2-乙氧基-4-甲基苯酚;",
    "alternate_name": "Phenol, 2-ethoxy-4-methyl-;<em>p</em>-Cresol, 2-ethoxy-;2-Ethoxy-4-methylphenol;2-Ethoxy-<em>p</em>-cresol;4-Methyl-2-ethoxyphenol;Ultravanil",
    "duplicated_cas_no": "",
    "SMILES": "O(CC)C1=C(O)C=CC(C)=C1",
    "meta_data": {
        "InChI": "InChI=1S/C9H12O2/c1-3-11-9-6-7(2)4-5-8(9)10/h4-6,10H,3H2,1-2H3",
        "InChIKey": null,
        "Canonical SMILES": "OC1=CC=C(C=C1OCC)C",
        "Molecular Formula": "C<sub>9</sub>H<sub>12</sub>O<sub>2</sub>",
        "Molecular Mass": "152.19",
        "Boiling Point": "107-110 °C @ Press: 14 Torr",
        "Melting Point": "34-35 °C"
    }
}