{
    "cas_no": "86386-76-7",
    "key_name": "1-[2-(2,4-Difluorophenyl)-2,3-epoxypropyl]-1<em>H</em>-1,2,4-triazole",
    "cn_name": null,
    "alternate_name": "1<em>H</em>-1,2,4-Triazole, 1-[[2-(2,4-difluorophenyl)-2-oxiranyl]methyl]-;1<em>H</em>-1,2,4-Triazole, 1-[[2-(2,4-difluorophenyl)oxiranyl]methyl]-;1-[[2-(2,4-Difluorophenyl)-2-oxiranyl]methyl]-1<em>H</em>-1,2,4-triazole;1-[2-(2,4-Difluorophenyl)-2,3-epoxypropyl]-1<em>H</em>-1,2,4-triazole;2-(2,4-Difluorophenyl)-2,3-epoxy-1-(1<em>H</em>-1,2,4-triazol-1-yl)propane;1-[[2-(2,4-Difluorophenyl)oxiranyl]methyl]-1<em>H</em>-1,2,4-triazole;2-(2,4-Difluorophenyl)-2-[(1<em>H</em>-1,2,4-triazol-1-yl)methyl]oxirane",
    "duplicated_cas_no": "123632-22-4;914247-19-1",
    "SMILES": "C(C1(CO1)C2=C(F)C=C(F)C=C2)N3C=NC=N3",
    "meta_data": {
        "InChI": "InChI=1S/C11H9F2N3O/c12-8-1-2-9(10(13)3-8)11(5-17-11)4-16-7-14-6-15-16/h1-3,6-7H,4-5H2",
        "InChIKey": null,
        "Canonical SMILES": "FC1=CC=C(C(F)=C1)C2(OC2)CN3N=CN=C3",
        "Molecular Formula": "C<sub>11</sub>H<sub>9</sub>F<sub>2</sub>N<sub>3</sub>O",
        "Molecular Mass": "237.21",
        "Melting Point": "73-74 °C"
    }
}