{
    "cas_no": "696-59-3",
    "key_name": "2,5-Dimethoxytetrahydrofuran",
    "cn_name": null,
    "alternate_name": "Furan, tetrahydro-2,5-dimethoxy-;Tetrahydro-2,5-dimethoxyfuran;2,5-Dimethoxytetrahydrofuran;Dimethoxytetrahydrofuran;NSC 7911;2,5-Bis(methyloxy)tetrahydrofuran;2,5-Dimethoxyoxolane;2,5-Dimethoxytetrahydrofurane",
    "duplicated_cas_no": "",
    "SMILES": "O(C)C1OC(OC)CC1",
    "meta_data": {
        "InChI": "InChI=1S/C6H12O3/c1-7-5-3-4-6(8-2)9-5/h5-6H,3-4H2,1-2H3",
        "InChIKey": null,
        "Canonical SMILES": "O(C)C1OC(OC)CC1",
        "Molecular Formula": "C<sub>6</sub>H<sub>12</sub>O<sub>3</sub>",
        "Molecular Mass": "132.16",
        "Boiling Point": "145.7 °C",
        "Density": "1.022 g/cm³ @ Temp: 20 °C"
    }
}