{
    "cas_no": "35071-17-1",
    "key_name": "2-Mercapto-4-methylpyrimidine",
    "cn_name": null,
    "alternate_name": "2(1<em>H</em>)-Pyrimidinethione, 4-methyl-;2-Pyrimidinethiol, 4-methyl-;4-Methyl-2(1<em>H</em>)-pyrimidinethione;4-Methyl-2-mercaptopyrimidine;2-Mercapto-4-methylpyrimidine;4-Methyl-2-pyrimidinethiol;4-Methyl-2-thiopyrimidine;4-Methylpyrimidine-2-thione;NSC 314275",
    "duplicated_cas_no": "39847-11-5",
    "SMILES": "CC=1NC(=S)N=CC1",
    "meta_data": {
        "InChI": "InChI=1S/C5H6N2S/c1-4-2-3-6-5(8)7-4/h2-3H,1H3,(H,6,7,8)",
        "InChIKey": null,
        "Canonical SMILES": "S=C1N=CC=C(N1)C",
        "Molecular Formula": "C<sub>5</sub>H<sub>6</sub>N<sub>2</sub>S",
        "Molecular Mass": "126.18",
        "Melting Point": "200 °C"
    }
}