{
    "cas_no": "764-33-0",
    "key_name": "2-Hexynoic acid",
    "cn_name": null,
    "alternate_name": "2-Hexynoic acid",
    "duplicated_cas_no": "",
    "SMILES": "C(#CCCC)C(O)=O",
    "meta_data": {
        "InChI": "InChI=1S/C6H8O2/c1-2-3-4-5-6(7)8/h2-3H2,1H3,(H,7,8)",
        "InChIKey": null,
        "Canonical SMILES": "O=C(O)C#CCCC",
        "Molecular Formula": "C<sub>6</sub>H<sub>8</sub>O<sub>2</sub>",
        "Molecular Mass": "112.13",
        "Boiling Point": "119-120 °C @ Press: 16 Torr",
        "Melting Point": "27 °C"
    }
}