{
    "cas_no": "60434-13-1",
    "key_name": "5-Chloro-1-methylisatin",
    "cn_name": null,
    "alternate_name": "1<em>H</em>-Indole-2,3-dione, 5-chloro-1-methyl-;5-Chloro-1-methyl-1<em>H</em>-indole-2,3-dione;1-Methyl-5-chloro-2,3-indoledione;5-Chloro-1-methylisatin;1-Methyl-5-chloroisatin;5-Chloro-1-methyl-indole-2,3-dione;5-Chloro-1-methylindoline-2,3-dione;5-Chloro-<em>N</em>-methylisatin",
    "duplicated_cas_no": "",
    "SMILES": "O=C1C=2C(N(C)C1=O)=CC=C(Cl)C2",
    "meta_data": {
        "InChI": "InChI=1S/C9H6ClNO2/c1-11-7-3-2-5(10)4-6(7)8(12)9(11)13/h2-4H,1H3",
        "InChIKey": null,
        "Canonical SMILES": "O=C1C(=O)N(C2=CC=C(Cl)C=C12)C",
        "Molecular Formula": "C<sub>9</sub>H<sub>6</sub>ClNO<sub>2</sub>",
        "Molecular Mass": "195.60",
        "Melting Point": "171-173 °C"
    }
}