{
    "cas_no": "1571-86-4",
    "key_name": "1,4-Dibutylbenzene",
    "cn_name": "1,4-二-N-丁基苯;",
    "alternate_name": "Benzene, 1,4-dibutyl-;Benzene, <em>p</em>-dibutyl-;1,4-Dibutylbenzene;<em>p</em>-Dibutylbenzene;1,4-Di-<em>n</em>-butylbenzene",
    "duplicated_cas_no": "",
    "SMILES": "C(CCC)C1=CC=C(CCCC)C=C1",
    "meta_data": {
        "InChI": "InChI=1S/C14H22/c1-3-5-7-13-9-11-14(12-10-13)8-6-4-2/h9-12H,3-8H2,1-2H3",
        "InChIKey": null,
        "Canonical SMILES": "C=1C=C(C=CC1CCCC)CCCC",
        "Molecular Formula": "C<sub>14</sub>H<sub>22</sub>",
        "Molecular Mass": "190.32",
        "Boiling Point": "224-225.5 °C @ Press: 769 Torr",
        "Melting Point": "-30 °C",
        "Density": "0.8584 g/cm³ @ Temp: 20 °C"
    }
}