{
    "cas_no": "42036-65-7",
    "key_name": "Cyclohexanone, 2-[(dimethylamino)methyl]-, hydrochloride (1:1)",
    "cn_name": "2-二甲氨基甲基-1-环己酮盐酸盐;",
    "alternate_name": "Cyclohexanone, 2-[(dimethylamino)methyl]-, hydrochloride (1:1);Cyclohexanone, 2-[(dimethylamino)methyl]-, hydrochloride;2-[(Dimethylamino)methyl]cyclohexanone hydrochloride;Dimethyl((2-oxocyclohexyl)methyl)ammonium chloride;NSC 12467;NSC 620461;2-[(Dimethylamino)methyl]cyclohexan-1-one hydrochloride",
    "duplicated_cas_no": "61229-38-7",
    "SMILES": "C(N(C)C)C1C(=O)CCCC1.Cl",
    "meta_data": {
        "InChI": "InChI=1S/C9H17NO.ClH/c1-10(2)7-8-5-3-4-6-9(8)11;/h8H,3-7H2,1-2H3;1H",
        "InChIKey": null,
        "Canonical SMILES": "Cl.O=C1CCCCC1CN(C)C",
        "Molecular Formula": "C<sub>9</sub>H<sub>17</sub>NO.ClH",
        "Molecular Mass": "",
        "Melting Point": "152 °C"
    }
}