{
    "cas_no": "634-74-2",
    "key_name": "<span class=\"text-smallcaps\">D</span>-Rhamnose",
    "cn_name": "5-氯-2-氟三氟甲苯;",
    "alternate_name": "<span class=\"text-smallcaps\">D</span>-Mannose, 6-deoxy-;Rhamnose, <span class=\"text-smallcaps\">D</span>-;6-Deoxy-<span class=\"text-smallcaps\">D</span>-mannose;Isodulcite;<span class=\"text-smallcaps\">D</span>-Rhamnose",
    "duplicated_cas_no": "",
    "SMILES": "[C@H]([C@@H]([C@@H](C)O)O)([C@@H](C=O)O)O",
    "meta_data": {
        "InChI": "InChI=1S/C6H12O5/c1-3(8)5(10)6(11)4(9)2-7/h2-6,8-11H,1H3/t3-,4-,5-,6-/m1/s1",
        "InChIKey": null,
        "Canonical SMILES": "O=CC(O)C(O)C(O)C(O)C",
        "Molecular Formula": "C<sub>6</sub>H<sub>12</sub>O<sub>5</sub>",
        "Molecular Mass": "164.16",
        "Melting Point": "120-160 °C"
    }
}