{
    "cas_no": "3546-41-6",
    "key_name": "Pyrvinium pamoate",
    "cn_name": null,
    "alternate_name": "Quinolinium, 6-(dimethylamino)-2-[2-(2,5-dimethyl-1-phenyl-1<em>H</em>-pyrrol-3-yl)ethenyl]-1-methyl-, 4,4′-methylenebis[3-hydroxy-2-naphthalenecarboxylate] (2:1);Quinolinium, 6-(dimethylamino)-2-[2-(2,5-dimethyl-1-phenyl-1<em>H</em>-pyrrol-3-yl)ethenyl]-1-methyl-, salt with 4,4′-methylenebis[3-hydroxy-2-naphthalenecarboxylic acid] (2:1);Quinolinium, 6-(dimethylamino)-2-[2-(2,5-dimethyl-1-phenylpyrrol-3-yl)vinyl]-1-methyl-, salt with 4,4′-methylenebis[3-hydroxy-2-naphthoic acid] (2:1);Bis[6-(dimethylamino)-2-[2-(2,5-dimethyl-1-phenylpyrrol-3-yl)vinyl]-1-methylquinolinium] 4,4′-methylenebis[3-hydroxy-2-naphthoate];2-Naphthoic acid, 4,4′-methylenebis[3-hydroxy-, ion(2-), bis[6-(dimethylamino)-2-[2-(2,5-dimethyl-1-phenylpyrrol-3-yl)vinyl]-1-methylquinolinium];2-Naphthalenecarboxylic acid, 4,4′-methylenebis[3-hydroxy-, ion(2-), bis[6-(dimethylamino)-2-[2-(2,5-dimethyl-1-phenyl-1<em>H</em>-pyrrol-3-yl)ethenyl]-1-methylquinolinium];Povan;Pyrvinium pamoate;6-Dimethylamino-2-[2-(2,5-dimethyl-1-phenyl-3-pyrryl)vinyl]-1-methylquinolinium salt of 2,2′-dihydroxy-1,1′-dinaphthylmethane-3,3′-dicarboxylic acid;Pyrvinium embonate;Viprynium embonate;Alnoxin;Molevac;Neo-Oxypaat;Pamovin;Povanyl;Tru;Vanquin;Pyrcon;Altolat;Tolapin;Povanil;Poquil;Vermitibier;NSC 223622",
    "duplicated_cas_no": "7491-56-7;54366-18-6",
    "SMILES": "C(C=1C2=C(C=C(C([O-])=O)C1O)C=CC=C2)C=3C4=C(C=C(C([O-])=O)C3O)C=CC=C4.CC=1N(C(C)=CC1C=CC2=[N+](C)C3=C(C=C2)C=C(N(C)C)C=C3)C4=CC=CC=C4",
    "meta_data": {
        "InChI": "InChI=1S/C26H28N3.C23H16O6/c1-19-17-21(20(2)29(19)24-9-7-6-8-10-24)11-13-23-14-12-22-18-25(27(3)4)15-16-26(22)28(23)5;24-20-16(14-7-3-1-5-12(14)9-18(20)22(26)27)11-17-15-8-4-2-6-13(15)10-19(21(17)25)23(28)29/h6-18H,1-5H3;1-10,24-25H,11H2,(H,26,27)(H,28,29)/q+1;/p-2",
        "InChIKey": null,
        "Canonical SMILES": "O=C([O-])C1=CC=2C=CC=CC2C(=C1O)CC3=C(O)C(=CC=4C=CC=CC43)C(=O)[O-].C=1C=CC(=CC1)N2C(=CC(C=CC3=CC=C4C=C(C=CC4=[N+]3C)N(C)C)=C2C)C",
        "Molecular Formula": "C<sub>26</sub>H<sub>28</sub>N<sub>3</sub>.<sup>1</sup>/<sub>2</sub>C<sub>23</sub>H<sub>14</sub>O<sub>6</sub>",
        "Molecular Mass": "",
        "Melting Point": "210-215 °C"
    }
}