{
    "cas_no": "4509-90-4",
    "key_name": "5-Bromovaleryl chloride",
    "cn_name": "5-溴戊酰氯;",
    "alternate_name": "Pentanoyl chloride, 5-bromo-;Valeryl chloride, 5-bromo-;5-Bromopentanoyl chloride;5-Bromovaleryl chloride;5-Bromovaleric acid chloride;5-Bromovaleroyl chloride",
    "duplicated_cas_no": "",
    "SMILES": "C(CCCBr)C(Cl)=O",
    "meta_data": {
        "InChI": "InChI=1S/C5H8BrClO/c6-4-2-1-3-5(7)8/h1-4H2",
        "InChIKey": null,
        "Canonical SMILES": "O=C(Cl)CCCCBr",
        "Molecular Formula": "C<sub>5</sub>H<sub>8</sub>BrClO",
        "Molecular Mass": "199.47",
        "Boiling Point": "103-105 °C @ Press: 20 Torr"
    }
}