{
    "cas_no": "1497-17-2",
    "key_name": "(±)-α-Methyl-α-phenylsuccinimide",
    "cn_name": "α-甲基-α-苯基丁二酰亚胺;α-甲基-α-苯基琥珀酰亚胺;",
    "alternate_name": "2,5-Pyrrolidinedione, 3-methyl-3-phenyl-;Succinimide, 2-methyl-2-phenyl-;3-Methyl-3-phenyl-2,5-pyrrolidinedione;2-Methyl-2-phenylsuccinimide;α-Methyl-α-phenylsuccinimide;3-Methyl-3-phenylsuccinimide;<em>N</em>-Demethylmethsuximide;<em>N</em>-Desmethylmethsuximide;Normesuximide;(±)-α-Methyl-α-phenylsuccinimide;<em>N</em>-Normethsuximide;3-Methyl-3-phenylpyrrolidine-2,5-dione",
    "duplicated_cas_no": "39122-09-3",
    "SMILES": "CC1(CC(=O)NC1=O)C2=CC=CC=C2",
    "meta_data": {
        "InChI": "InChI=1S/C11H11NO2/c1-11(7-9(13)12-10(11)14)8-5-3-2-4-6-8/h2-6H,7H2,1H3,(H,12,13,14)",
        "InChIKey": null,
        "Canonical SMILES": "O=C1NC(=O)C(C=2C=CC=CC2)(C)C1",
        "Molecular Formula": "C<sub>11</sub>H<sub>11</sub>NO<sub>2</sub>",
        "Molecular Mass": "189.21",
        "Melting Point": "63-65 °C"
    }
}