{
    "cas_no": "16144-91-5",
    "key_name": "1,2,3,4-Tetrahydro-1,4-methanonaphthalene-5,8-diol",
    "cn_name": "3,6-二羟基苯并降冰片烷;3,6-二羟基苯并降冰片烯;",
    "alternate_name": "1,4-Methanonaphthalene-5,8-diol, 1,2,3,4-tetrahydro-;1,2,3,4-Tetrahydro-1,4-methanonaphthalene-5,8-diol;3,6-Dihydroxybenzonorbornane;5,8-Dihydroxy-1,2,3,4-tetrahydro-1,4-methanonaphthalene;5,8-Methano-5,6,7,8-tetrahydro-1,4-dihydroxynaphthalene;5,8-Dihydroxy-1,4-methano-1,2,3,4-tetrahydronaphthalene",
    "duplicated_cas_no": "2628212-94-0",
    "SMILES": "OC1=C2C(C3CC2CC3)=C(O)C=C1",
    "meta_data": {
        "InChI": "InChI=1S/C11H12O2/c12-8-3-4-9(13)11-7-2-1-6(5-7)10(8)11/h3-4,6-7,12-13H,1-2,5H2",
        "InChIKey": null,
        "Canonical SMILES": "OC1=CC=C(O)C2=C1C3CCC2C3",
        "Molecular Formula": "C<sub>11</sub>H<sub>12</sub>O<sub>2</sub>",
        "Molecular Mass": "176.21",
        "Melting Point": "176-177 °C"
    }
}