{
    "cas_no": "26825-95-6",
    "key_name": "Dodecanoic acid, 12-bromo-, methyl ester",
    "cn_name": null,
    "alternate_name": "Dodecanoic acid, 12-bromo-, methyl ester;12-Bromododecanoic acid methyl ester;Methyl 12-bromododecanoate",
    "duplicated_cas_no": "",
    "SMILES": "C(CCC(OC)=O)CCCCCCCCBr",
    "meta_data": {
        "InChI": "InChI=1S/C13H25BrO2/c1-16-13(15)11-9-7-5-3-2-4-6-8-10-12-14/h2-12H2,1H3",
        "InChIKey": null,
        "Canonical SMILES": "O=C(OC)CCCCCCCCCCCBr",
        "Molecular Formula": "C<sub>13</sub>H<sub>25</sub>BrO<sub>2</sub>",
        "Molecular Mass": "293.24",
        "Boiling Point": "130 °C @ Press: 0.5 Torr",
        "Melting Point": "7 °C"
    }
}