{
    "cas_no": "2011-66-7",
    "key_name": "2-Amino-5-nitro-2′-chlorobenzophenone",
    "cn_name": "2-氨基-5-硝基-2\"-氯二苯甲酮;2-氨基-5-硝基-2\"-氯二苯酮;",
    "alternate_name": "Methanone, (2-amino-5-nitrophenyl)(2-chlorophenyl)-;Benzophenone, 2-amino-2′-chloro-5-nitro-;(2-Amino-5-nitrophenyl)(2-chlorophenyl)methanone;2-Amino-2′-chloro-5-nitrobenzophenone;2-Amino-5-nitro-2′-chlorobenzophenone",
    "duplicated_cas_no": "",
    "SMILES": "C(=O)(C1=CC(N(=O)=O)=CC=C1N)C2=C(Cl)C=CC=C2",
    "meta_data": {
        "InChI": "InChI=1S/C13H9ClN2O3/c14-11-4-2-1-3-9(11)13(17)10-7-8(16(18)19)5-6-12(10)15/h1-7H,15H2",
        "InChIKey": null,
        "Canonical SMILES": "O=C(C=1C=CC=CC1Cl)C2=CC(=CC=C2N)N(=O)=O",
        "Molecular Formula": "C<sub>13</sub>H<sub>9</sub>ClN<sub>2</sub>O<sub>3</sub>",
        "Molecular Mass": "276.68",
        "Melting Point": "118-120 °C"
    }
}