{
    "cas_no": "88-75-5",
    "key_name": "2-Nitrophenol",
    "cn_name": "2-硝基苯酚;邻硝基苯酚;",
    "alternate_name": "Phenol, 2-nitro-;Phenol, <em>o</em>-nitro-;2-Nitrophenol;<em>o</em>-Hydroxynitrobenzene;<em>o</em>-Nitrophenol;2-Hydroxynitrobenzene;NSC 1552",
    "duplicated_cas_no": "1773488-60-0",
    "SMILES": "N(=O)(=O)C1=C(O)C=CC=C1",
    "meta_data": {
        "InChI": "InChI=1S/C6H5NO3/c8-6-4-2-1-3-5(6)7(9)10/h1-4,8H",
        "InChIKey": null,
        "Canonical SMILES": "O=N(=O)C=1C=CC=CC1O",
        "Molecular Formula": "C<sub>6</sub>H<sub>5</sub>NO<sub>3</sub>",
        "Molecular Mass": "139.11",
        "Boiling Point": "216 °C",
        "Melting Point": "44-45 °C",
        "Density": "1.495 g/cm³"
    }
}