{
    "cas_no": "97-85-8",
    "key_name": "Isobutyl isobutyrate",
    "cn_name": "异丁酸异丁酯;",
    "alternate_name": "Propanoic acid, 2-methyl-, 2-methylpropyl ester;Isobutyric acid, isobutyl ester;Isobutyl isobutyrate;2-Methylpropyl isobutyrate;2-Methylpropyl 2-methylpropanoate;2-Methylpropyl 2-methylpropionate;2-Methylpropionic acid isobutyl ester;Isobutyl isobutanoate;NSC 6538",
    "duplicated_cas_no": "",
    "SMILES": "C(OCC(C)C)(C(C)C)=O",
    "meta_data": {
        "InChI": "InChI=1S/C8H16O2/c1-6(2)5-10-8(9)7(3)4/h6-7H,5H2,1-4H3",
        "InChIKey": null,
        "Canonical SMILES": "O=C(OCC(C)C)C(C)C",
        "Molecular Formula": "C<sub>8</sub>H<sub>16</sub>O<sub>2</sub>",
        "Molecular Mass": "144.21",
        "Boiling Point": "148.6 °C",
        "Melting Point": "-80.66 °C",
        "Density": "0.8750 g/cm³ @ Temp: 0 °C"
    }
}