{
    "cas_no": "2834-92-6",
    "key_name": "1-Amino-2-naphthol",
    "cn_name": "1-氨基-2-萘酚;",
    "alternate_name": "2-Naphthalenol, 1-amino-;2-Naphthol, 1-amino-;1-Amino-2-naphthalenol;1-Amino-2-naphthol;2-Hydroxy-1-aminonaphthalene;1-Amino-2-hydroxynaphthalene;α-Amino-β-naphthol;2-Hydroxy-1-naphthylamine;NSC 7938",
    "duplicated_cas_no": "",
    "SMILES": "NC=1C2=C(C=CC1O)C=CC=C2",
    "meta_data": {
        "InChI": "InChI=1S/C10H9NO/c11-10-8-4-2-1-3-7(8)5-6-9(10)12/h1-6,12H,11H2",
        "InChIKey": null,
        "Canonical SMILES": "OC=1C=CC=2C=CC=CC2C1N",
        "Molecular Formula": "C<sub>10</sub>H<sub>9</sub>NO",
        "Molecular Mass": "159.18",
        "Melting Point": "203-203.5 °C"
    }
}