{
    "cas_no": "52505-46-1",
    "key_name": "Thieno[2,3-<em>b</em>]pyridine-2-carboxylic acid, 3-amino-, ethyl ester",
    "cn_name": null,
    "alternate_name": "Thieno[2,3-<em>b</em>]pyridine-2-carboxylic acid, 3-amino-, ethyl ester;3-Aminothieno[2,3-<em>b</em>]pyridine-2-carboxylic acid ethyl ester;Ethyl 3-aminothieno[2,3-<em>b</em>]pyridine-2-carboxylate;Ethyl 3-amino-4<em>H</em>-thieno[2,3-<em>b</em>]pyridine-2-carboxylate",
    "duplicated_cas_no": "",
    "SMILES": "NC=1C=2C(SC1C(OCC)=O)=NC=CC2",
    "meta_data": {
        "InChI": "InChI=1S/C10H10N2O2S/c1-2-14-10(13)8-7(11)6-4-3-5-12-9(6)15-8/h3-5H,2,11H2,1H3",
        "InChIKey": null,
        "Canonical SMILES": "O=C(OCC)C=1SC=2N=CC=CC2C1N",
        "Molecular Formula": "C<sub>10</sub>H<sub>10</sub>N<sub>2</sub>O<sub>2</sub>S",
        "Molecular Mass": "222.26",
        "Melting Point": "181-182.5 °C"
    }
}