{
    "cas_no": "6812-87-9",
    "key_name": "Royleanone",
    "cn_name": null,
    "alternate_name": "1,4-Phenanthrenedione, 4b,5,6,7,8,8a,9,10-octahydro-3-hydroxy-4b,8,8-trimethyl-2-(1-methylethyl)-, (4b<em>S</em>,8a<em>S</em>)-;Podocarpa-8,12-diene-11,14-dione, 12-hydroxy-13-isopropyl-;1,4-Phenanthrenedione, 4b,5,6,7,8,8a,9,10-octahydro-3-hydroxy-4b,8,8-trimethyl-2-(1-methylethyl)-, (4b<em>S</em>-<em>trans</em>)-;(4b<em>S</em>,8a<em>S</em>)-4b,5,6,7,8,8a,9,10-Octahydro-3-hydroxy-4b,8,8-trimethyl-2-(1-methylethyl)-1,4-phenanthrenedione;Royleanone;NSC 122417",
    "duplicated_cas_no": "1377-96-4",
    "SMILES": "C[C@@]12C3=C(C(=O)C(C(C)C)=C(O)C3=O)CC[C@]1(C(C)(C)CCC2)[H]",
    "meta_data": {
        "InChI": "InChI=1S/C20H28O3/c1-11(2)14-16(21)12-7-8-13-19(3,4)9-6-10-20(13,5)15(12)18(23)17(14)22/h11,13,22H,6-10H2,1-5H3/t13-,20-/m0/s1",
        "InChIKey": null,
        "Canonical SMILES": "O=C1C2=C(C(=O)C(O)=C1C(C)C)C3(C)CCCC(C)(C)C3CC2",
        "Molecular Formula": "C<sub>20</sub>H<sub>28</sub>O<sub>3</sub>",
        "Molecular Mass": "316.43",
        "Melting Point": "181.5-183.0 °C"
    }
}