{
    "cas_no": "57556-49-7",
    "key_name": "<em>N</em>-(4-Amino-2-chlorophenyl)acetamide",
    "cn_name": "4-氨基-2-氯乙酰苯胺;",
    "alternate_name": "Acetamide, <em>N</em>-(4-amino-2-chlorophenyl)-;Acetanilide, 4-amino-2-chloro-;<em>N</em>-(4-Amino-2-chlorophenyl)acetamide;4′-Amino-2′-chloroacetanilide;4-Acetylamino-3-chloroaniline;NSC 88986",
    "duplicated_cas_no": "",
    "SMILES": "N(C(C)=O)C1=C(Cl)C=C(N)C=C1",
    "meta_data": {
        "InChI": "InChI=1S/C8H9ClN2O/c1-5(12)11-8-3-2-6(10)4-7(8)9/h2-4H,10H2,1H3,(H,11,12)",
        "InChIKey": null,
        "Canonical SMILES": "O=C(NC1=CC=C(N)C=C1Cl)C",
        "Molecular Formula": "C<sub>8</sub>H<sub>9</sub>ClN<sub>2</sub>O",
        "Molecular Mass": "184.62",
        "Melting Point": "111 °C"
    }
}