{
    "cas_no": "625-38-7",
    "key_name": "3-Butenoic acid",
    "cn_name": "乙烯基乙酸;丁烯-3-酸;乙烯基乙酸;",
    "alternate_name": "3-Butenoic acid;Vinylacetic acid;Acetic acid, ethenyl-;β-Butenoic acid;NSC 44546",
    "duplicated_cas_no": "172702-78-2",
    "SMILES": "C(C(O)=O)C=C",
    "meta_data": {
        "InChI": "InChI=1S/C4H6O2/c1-2-3-4(5)6/h2H,1,3H2,(H,5,6)",
        "InChIKey": null,
        "Canonical SMILES": "O=C(O)CC=C",
        "Molecular Formula": "C<sub>4</sub>H<sub>6</sub>O<sub>2</sub>",
        "Molecular Mass": "86.09",
        "Boiling Point": "169 °C",
        "Melting Point": "-35 °C",
        "Density": "1.0096 g/cm³ @ Temp: 20 °C"
    }
}