{
    "cas_no": "10547-60-1",
    "key_name": "4-Chloro-4′-methoxybenzophenone",
    "cn_name": "4-(4-氯苯甲酰基)苯甲醚;4-氯-4\"-甲氧基二苯酮;(4-氯苯基)(4-甲氧苯基)甲酮;(4-氯苯基)(4-甲氧苯基)酮;",
    "alternate_name": "Methanone, (4-chlorophenyl)(4-methoxyphenyl)-;Benzophenone, 4-chloro-4′-methoxy-;(4-Chlorophenyl)(4-methoxyphenyl)methanone;4-Chloro-4′-methoxybenzophenone;<em>p</em>-Methoxyphenyl <em>p</em>-chlorophenyl ketone;<em>p</em>-Chloro-<em>p</em>′-methoxybenzophenone;4-Chlorophenyl 4-methoxyphenyl ketone;NSC 74662;4-Methoxy-4′-chlorobenzophenone",
    "duplicated_cas_no": "",
    "SMILES": "C(=O)(C1=CC=C(OC)C=C1)C2=CC=C(Cl)C=C2",
    "meta_data": {
        "InChI": "InChI=1S/C14H11ClO2/c1-17-13-8-4-11(5-9-13)14(16)10-2-6-12(15)7-3-10/h2-9H,1H3",
        "InChIKey": null,
        "Canonical SMILES": "O=C(C1=CC=C(Cl)C=C1)C2=CC=C(OC)C=C2",
        "Molecular Formula": "C<sub>14</sub>H<sub>11</sub>ClO<sub>2</sub>",
        "Molecular Mass": "246.69",
        "Melting Point": "124-125 °C"
    }
}