{
    "cas_no": "7422-52-8",
    "key_name": "1,1,1,3,5,5,5-Heptamethyl-3-[3-(2-oxiranylmethoxy)propyl]trisiloxane",
    "cn_name": "1,1,1,3,5,5,5-七甲基-3-(3-缩水甘油醚氧基丙基)三硅氧烷;",
    "alternate_name": "Trisiloxane, 1,1,1,3,5,5,5-heptamethyl-3-[3-(2-oxiranylmethoxy)propyl]-;Trisiloxane, 3-[3-(2,3-epoxypropoxy)propyl]-1,1,1,3,5,5,5-heptamethyl-;Trisiloxane, 1,1,1,3,5,5,5-heptamethyl-3-[3-(oxiranylmethoxy)propyl]-;1,1,1,3,5,5,5-Heptamethyl-3-[3-(2-oxiranylmethoxy)propyl]trisiloxane;(3-Glycidyloxypropyl)bis(trimethylsiloxy)methylsilane;(3-Glycidoxypropyl)bis(trimethylsiloxy)methylsilane;(3-Glycidoxypropyl)methylbis(trimethylsiloxy)silane;1,1,1,3,5,5,5-Heptamethyl-3-[3-(glycidyloxy)propyl]trisiloxane;3-[3-(Glycidyloxy)propyl]-1,1,1,3,5,5,5-heptamethyltrisiloxane;3-[3-(Glycidyloxy)propyl]heptamethyltrisiloxane;3-(Glycidyloxypropyl)-1,1,1,3,5,5,5-heptamethyltrisiloxane",
    "duplicated_cas_no": "",
    "SMILES": "[Si](O[Si](C)(C)C)(O[Si](C)(C)C)(CCCOCC1CO1)C",
    "meta_data": {
        "InChI": "InChI=1S/C13H32O4Si3/c1-18(2,3)16-20(7,17-19(4,5)6)10-8-9-14-11-13-12-15-13/h13H,8-12H2,1-7H3",
        "InChIKey": null,
        "Canonical SMILES": "O(CCC[Si](O[Si](C)(C)C)(O[Si](C)(C)C)C)CC1OC1",
        "Molecular Formula": "C<sub>13</sub>H<sub>32</sub>O<sub>4</sub>Si<sub>3</sub>",
        "Molecular Mass": "336.65",
        "Boiling Point": "96 °C @ Press: 0.5 Torr",
        "Density": "0.91 g/cm³"
    }
}