{
    "cas_no": "42398-73-2",
    "key_name": "6-Methylisoquinoline",
    "cn_name": "6-甲基异喹啉;",
    "alternate_name": "Isoquinoline, 6-methyl-;6-Methylisoquinoline",
    "duplicated_cas_no": "",
    "SMILES": "CC1=CC2=C(C=C1)C=NC=C2",
    "meta_data": {
        "InChI": "InChI=1S/C10H9N/c1-8-2-3-10-7-11-5-4-9(10)6-8/h2-7H,1H3",
        "InChIKey": null,
        "Canonical SMILES": "N=1C=CC=2C=C(C=CC2C1)C",
        "Molecular Formula": "C<sub>10</sub>H<sub>9</sub>N",
        "Molecular Mass": "143.19",
        "Boiling Point": "265.5 °C",
        "Melting Point": "85.5 °C"
    }
}