{
    "cas_no": "2460-77-7",
    "key_name": "2,5-Di-<em>tert</em>-butyl-1,4-benzoquinone",
    "cn_name": "2,5-二叔丁基-1,4-苯醌;",
    "alternate_name": "2,5-Cyclohexadiene-1,4-dione, 2,5-bis(1,1-dimethylethyl)-;<em>p</em>-Benzoquinone, 2,5-di-<em>tert</em>-butyl-;2,5-Bis(1,1-dimethylethyl)-2,5-cyclohexadiene-1,4-dione;2,5-Di-<em>tert</em>-butyl-<em>p</em>-benzoquinone;2,5-Di-<em>tert</em>-butyl-1,4-benzoquinone;2,5-Di-<em>tert</em>-butylbenzoquinone;2,5-Di-<em>tert</em>-butyl-2,5-cyclohexadiene-1,4-dione;NSC 43579;NSC 7489;2,5-Ditert-butylcyclohexa-2,5-diene-1,4-dione",
    "duplicated_cas_no": "",
    "SMILES": "C(C)(C)(C)C=1C(=O)C=C(C(C)(C)C)C(=O)C1",
    "meta_data": {
        "InChI": "InChI=1S/C14H20O2/c1-13(2,3)9-7-12(16)10(8-11(9)15)14(4,5)6/h7-8H,1-6H3",
        "InChIKey": null,
        "Canonical SMILES": "O=C1C=C(C(=O)C=C1C(C)(C)C)C(C)(C)C",
        "Molecular Formula": "C<sub>14</sub>H<sub>20</sub>O<sub>2</sub>",
        "Molecular Mass": "220.31",
        "Melting Point": "152.5 °C"
    }
}