{
    "cas_no": "2668-66-8",
    "key_name": "Medrysone",
    "cn_name": null,
    "alternate_name": "Pregn-4-ene-3,20-dione, 11-hydroxy-6-methyl-, (6α,11β)-;Pregn-4-ene-3,20-dione, 11β-hydroxy-6α-methyl-;(6α,11β)-11-Hydroxy-6-methylpregn-4-ene-3,20-dione;U 8471;HMS;11β-Hydroxy-6α-methylpregn-4-ene-3,20-dione;6α-Methyl-Δ<sup>4</sup><sub>-</sub>pregnene-11β-hydroxy-3,20-dione;Medrysone;11β-Hydroxy-6α-methylprogesterone;Hydroxymesterone;Medrifar;Visudrisone;Medrocort;Ophtocortin;Spectamedryn;NSC 63278;11β-Hydroxylmedroxyprogesterone",
    "duplicated_cas_no": "",
    "SMILES": "C[C@@]12[C@@]3([C@]([C@]4([C@](C)(C[C@@H]3O)[C@@H](C(C)=O)CC4)[H])(C[C@H](C)C1=CC(=O)CC2)[H])[H]",
    "meta_data": {
        "InChI": "InChI=1S/C22H32O3/c1-12-9-15-17-6-5-16(13(2)23)22(17,4)11-19(25)20(15)21(3)8-7-14(24)10-18(12)21/h10,12,15-17,19-20,25H,5-9,11H2,1-4H3/t12-,15-,16+,17-,19-,20+,21-,22+/m0/s1",
        "InChIKey": null,
        "Canonical SMILES": "O=C1C=C2C(C)CC3C4CCC(C(=O)C)C4(C)CC(O)C3C2(C)CC1",
        "Molecular Formula": "C<sub>22</sub>H<sub>32</sub>O<sub>3</sub>",
        "Molecular Mass": "344.49",
        "Melting Point": "156.5 °C"
    }
}