{
    "cas_no": "135484-83-2",
    "key_name": "Methyl 2-amino-4-bromobenzoate",
    "cn_name": "2-氨基-4-溴苯甲酸甲酯;",
    "alternate_name": "Benzoic acid, 2-amino-4-bromo-, methyl ester;Methyl 2-amino-4-bromobenzoate;2-Amino-4-bromobenzoic acid methyl ester",
    "duplicated_cas_no": "",
    "SMILES": "C(OC)(=O)C1=C(N)C=C(Br)C=C1",
    "meta_data": {
        "InChI": "InChI=1S/C8H8BrNO2/c1-12-8(11)6-3-2-5(9)4-7(6)10/h2-4H,10H2,1H3",
        "InChIKey": null,
        "Canonical SMILES": "O=C(OC)C1=CC=C(Br)C=C1N",
        "Molecular Formula": "C<sub>8</sub>H<sub>8</sub>BrNO<sub>2</sub>",
        "Molecular Mass": "230.06",
        "Melting Point": "78 °C"
    }
}