{
    "cas_no": "79-72-1",
    "key_name": "5-Amino-2-methyl-<em>N</em>-phenylbenzenesulfonamide",
    "cn_name": null,
    "alternate_name": "Benzenesulfonamide, 5-amino-2-methyl-<em>N</em>-phenyl-;<em>o</em>-Toluenesulfonanilide, 5-amino-;5-Amino-2-methyl-<em>N</em>-phenylbenzenesulfonamide;5-Amino-<em>o</em>-toluenesulfonanilide;5-Amino-2-toluenesulfonanilide;NSC 37094",
    "duplicated_cas_no": "",
    "SMILES": "S(NC1=CC=CC=C1)(=O)(=O)C2=C(C)C=CC(N)=C2",
    "meta_data": {
        "InChI": "InChI=1S/C13H14N2O2S/c1-10-7-8-11(14)9-13(10)18(16,17)15-12-5-3-2-4-6-12/h2-9,15H,14H2,1H3",
        "InChIKey": null,
        "Canonical SMILES": "O=S(=O)(NC=1C=CC=CC1)C2=CC(N)=CC=C2C",
        "Molecular Formula": "C<sub>13</sub>H<sub>14</sub>N<sub>2</sub>O<sub>2</sub>S",
        "Molecular Mass": "262.33",
        "Melting Point": "145 °C"
    }
}