{
    "cas_no": "72496-41-4",
    "key_name": "Pirarubicin",
    "cn_name": "吡柔比星;",
    "alternate_name": "5,12-Naphthacenedione, 10-[[3-amino-2,3,6-trideoxy-4-<em>O</em>-[(2<em>R</em>)-tetrahydro-2<em>H</em>-pyran-2-yl]-α-<span class=\"text-smallcaps\">L</span>-<em>lyxo</em>-hexopyranosyl]oxy]-7,8,9,10-tetrahydro-6,8,11-trihydroxy-8-(2-hydroxyacetyl)-1-methoxy-, (8<em>S</em>,10<em>S</em>)-;5,12-Naphthacenedione, 10-[[3-amino-2,3,6-trideoxy-4-<em>O</em>-(tetrahydro-2<em>H</em>-pyran-2-yl)-α-<span class=\"text-smallcaps\">L</span>-<em>lyxo</em>-hexopyranosyl]oxy]-7,8,9,10-tetrahydro-6,8,11-trihydroxy-8-(hydroxyacetyl)-1-methoxy-, [8<em>S</em>-[8α,10α(<em>S</em>*)]]-;5,12-Naphthacenedione, 10-[[3-amino-2,3,6-trideoxy-4-<em>O</em>-[(2<em>R</em>)-tetrahydro-2<em>H</em>-pyran-2-yl]-α-<span class=\"text-smallcaps\">L</span>-<em>lyxo</em>-hexopyranosyl]oxy]-7,8,9,10-tetrahydro-6,8,11-trihydroxy-8-(hydroxyacetyl)-1-methoxy-, (8<em>S</em>,10<em>S</em>)-;(8<em>S</em>,10<em>S</em>)-10-[[3-Amino-2,3,6-trideoxy-4-<em>O</em>-[(2<em>R</em>)-tetrahydro-2<em>H</em>-pyran-2-yl]-α-<span class=\"text-smallcaps\">L</span>-<em>lyxo</em>-hexopyranosyl]oxy]-7,8,9,10-tetrahydro-6,8,11-trihydroxy-8-(2-hydroxyacetyl)-1-methoxy-5,12-naphthacenedione;4′-<em>O</em>-Tetrahydropyranyladriamycin;THP-Adriamycin;(2′′<em>R</em>)-4′-<em>O</em>-Tetrahydropyranyladriamycin;Pirarubicin;Pinorubicin;(2′′<em>R</em>)-4′-<em>O</em>-Tetrahydropyranyldoxorubicin;Therarubicin",
    "duplicated_cas_no": "70259-49-3",
    "SMILES": "O([C@@H]1C2=C(C(O)=C3C(=C2O)C(=O)C=4C(C3=O)=CC=CC4OC)C[C@](C(CO)=O)(O)C1)[C@H]5C[C@H](N)[C@H](O[C@@H]6CCCCO6)[C@H](C)O5",
    "meta_data": {
        "InChI": "InChI=1S/C32H37NO12/c1-14-31(45-21-8-3-4-9-42-21)17(33)10-22(43-14)44-19-12-32(40,20(35)13-34)11-16-24(19)30(39)26-25(28(16)37)27(36)15-6-5-7-18(41-2)23(15)29(26)38/h5-7,14,17,19,21-22,31,34,37,39-40H,3-4,8-13,33H2,1-2H3/t14-,17-,19-,21+,22-,31+,32-/m0/s1",
        "InChIKey": null,
        "Canonical SMILES": "O=C1C=2C=CC=C(OC)C2C(=O)C=3C(O)=C4C(=C(O)C13)CC(O)(C(=O)CO)CC4OC5OC(C)C(OC6OCCCC6)C(N)C5",
        "Molecular Formula": "C<sub>32</sub>H<sub>37</sub>NO<sub>12</sub>",
        "Molecular Mass": "627.64",
        "Melting Point": "184-186 °C (decomp)"
    }
}