{
    "cas_no": "50887-69-9",
    "key_name": "4-Pyrimidinecarboxylic acid, 1,2,3,6-tetrahydro-2,6-dioxo-, hydrate (1:1)",
    "cn_name": null,
    "alternate_name": "4-Pyrimidinecarboxylic acid, 1,2,3,6-tetrahydro-2,6-dioxo-, hydrate (1:1);4-Pyrimidinecarboxylic acid, 1,2,3,6-tetrahydro-2,6-dioxo-, monohydrate;Orotic acid monohydrate;2,6-Dioxo-1,2,3,6-tetrahydropyrimidine-4-carboxylic acid hydrate;2,6-Dioxo-1,2,3,6-tetrahydro-4-pyrimidinecarboxylic acid hydrate;Lactoserum",
    "duplicated_cas_no": "",
    "SMILES": "C(O)(=O)C1=CC(=O)NC(=O)N1.O",
    "meta_data": {
        "InChI": "InChI=1S/C5H4N2O4.H2O/c8-3-1-2(4(9)10)6-5(11)7-3;/h1H,(H,9,10)(H2,6,7,8,11);1H2",
        "InChIKey": null,
        "Canonical SMILES": "O=C1C=C(NC(=O)N1)C(=O)O.O",
        "Molecular Formula": "C<sub>5</sub>H<sub>4</sub>N<sub>2</sub>O<sub>4</sub>.H<sub>2</sub>O",
        "Molecular Mass": "",
        "Melting Point": "334 °C"
    }
}