{
    "cas_no": "53491-30-8",
    "key_name": "(2-Chloropropoxy)benzene",
    "cn_name": "β-氯丙氧基苯;",
    "alternate_name": "Benzene, (2-chloropropoxy)-;Ether, 2-chloropropyl phenyl;(2-Chloropropoxy)benzene;2-Chloro-3-phenoxypropane;2-Chloro-1-phenoxypropane;Phenoxy 2-chloropropane;1-Phenoxy-2-chloropropane",
    "duplicated_cas_no": "112546-00-6",
    "SMILES": "O(CC(C)Cl)C1=CC=CC=C1",
    "meta_data": {
        "InChI": "InChI=1S/C9H11ClO/c1-8(10)7-11-9-5-3-2-4-6-9/h2-6,8H,7H2,1H3",
        "InChIKey": null,
        "Canonical SMILES": "ClC(C)COC=1C=CC=CC1",
        "Molecular Formula": "C<sub>9</sub>H<sub>11</sub>ClO",
        "Molecular Mass": "170.64",
        "Boiling Point": "93-94 °C @ Press: 5 Torr"
    }
}