{
    "cas_no": "3317-61-1",
    "key_name": "5,5-Dimethyl-1-pyrroline <em>N</em>-oxide",
    "cn_name": "5,5-二甲基-1-吡咯啉-N-氧化物;",
    "alternate_name": "2<em>H</em>-Pyrrole, 3,4-dihydro-2,2-dimethyl-, 1-oxide;1-Pyrroline, 5,5-dimethyl-, 1-oxide;5,5-Dimethyl-1-pyrroline 1-oxide;5,5-Dimethyl-Δ<sup>1</sup>-pyrroline <em>N</em>-oxide;5,5-Dimethyl-Δ<sup>1</sup>-pyrroline 1-oxide;5,5-Dimethyl-1-pyrroline <em>N</em>-oxide;DMPO;2,2-Dimethyl-3,4-dihydro-2<em>H</em>-pyrrole <em>N</em>-oxide;5,5-Dimethyl-4,5-dihydro-3<em>H</em>-pyrrole <em>N</em>-oxide;A 2008L;2,2-Dimethyl-1-oxido-3,4-dihydropyrrol-1-ium;2,2-Dimethyl-3,4-dihydro-2<em>H</em>-pyrrol-1-ium-1-olate;5,5-Dimethylpyrroline-<em>N</em>-oxide",
    "duplicated_cas_no": "",
    "SMILES": "CC1(C)N(=O)=CCC1",
    "meta_data": {
        "InChI": "InChI=1S/C6H11NO/c1-6(2)4-3-5-7(6)8/h5H,3-4H2,1-2H3",
        "InChIKey": null,
        "Canonical SMILES": "O=N1=CCCC1(C)C",
        "Molecular Formula": "C<sub>6</sub>H<sub>11</sub>NO",
        "Molecular Mass": "113.16",
        "Boiling Point": "66-67 °C @ Press: 0.6 Torr"
    }
}