{
    "cas_no": "7515-80-2",
    "key_name": "2-Methyl-<em>N</em>-(1-methylethyl)-2-propanamine",
    "cn_name": "N-叔丁基异丙醇胺;",
    "alternate_name": "2-Propanamine, 2-methyl-<em>N</em>-(1-methylethyl)-;Diethylamine, 1,1,1′-trimethyl-;2-Methyl-<em>N</em>-(1-methylethyl)-2-propanamine;<em>tert</em>-Butylisopropylamine;Isopropyl-<em>tert</em>-butylamine;<em>N</em>-<em>tert</em>-Butylisopropylamine;<em>N</em>-<em>tert</em>-Butyl-<em>N</em>-isopropylamine;<em>N</em>-Isopropyl-<em>N</em>-<em>tert</em>-butylamine;<em>N</em>-Isopropyl-<em>tert</em>-butylamine;2-Methyl-<em>N</em>-propan-2-ylpropan-2-amine",
    "duplicated_cas_no": "",
    "SMILES": "N(C(C)(C)C)C(C)C",
    "meta_data": {
        "InChI": "InChI=1S/C7H17N/c1-6(2)8-7(3,4)5/h6,8H,1-5H3",
        "InChIKey": null,
        "Canonical SMILES": "N(C(C)C)C(C)(C)C",
        "Molecular Formula": "C<sub>7</sub>H<sub>17</sub>N",
        "Molecular Mass": "115.22",
        "Boiling Point": "98 °C"
    }
}