{
    "cas_no": "89-02-1",
    "key_name": "2,4-Dinitrobenzenesulfonic acid",
    "cn_name": "2,4-二硝基苯磺酸;",
    "alternate_name": "Benzenesulfonic acid, 2,4-dinitro-;2,4-Dinitrobenzenesulfonic acid;NSC 152110;NSC 163960;2,4-Dinitrophenylsulfonic acid",
    "duplicated_cas_no": "",
    "SMILES": "N(=O)(=O)C1=C(S(=O)(=O)O)C=CC(N(=O)=O)=C1",
    "meta_data": {
        "InChI": "InChI=1S/C6H4N2O7S/c9-7(10)4-1-2-6(16(13,14)15)5(3-4)8(11)12/h1-3H,(H,13,14,15)",
        "InChIKey": null,
        "Canonical SMILES": "O=N(=O)C1=CC=C(C(=C1)N(=O)=O)S(=O)(=O)O",
        "Molecular Formula": "C<sub>6</sub>H<sub>4</sub>N<sub>2</sub>O<sub>7</sub>S",
        "Molecular Mass": "248.17",
        "Melting Point": "108 °C"
    }
}