{
    "cas_no": "598-64-1",
    "key_name": "Carbamodithioic acid, <em>N</em>,<em>N</em>-dimethyl-, compd. with <em>N</em>-methylmethanamine (1:1)",
    "cn_name": "N,N-二甲基二硫代氨基甲酸二甲铵盐;",
    "alternate_name": "Carbamodithioic acid, <em>N</em>,<em>N</em>-dimethyl-, compd. with <em>N</em>-methylmethanamine (1:1);Carbamic acid, dimethyldithio-, compd. with dimethylamine (1:1);Carbamodithioic acid, dimethyl-, compd. with <em>N</em>-methylmethanamine (1:1);Carbamic acid, dimethyldithio-, compd. with Me2NH;Dimethylamine, dimethyldithiocarbamate;Methanamine, <em>N</em>-methyl-, dimethylcarbamodithioate;Dimethyldithiocarbamic acid dimethylamine salt;Dimethyldithiocarbamic acid compd. with dimethylamine (1:1);Dimethylammonium dimethyldithiocarbamate;<em>N</em>,<em>N</em>-Dimethylammonium <em>N</em>,<em>N</em>-dimethyldithiocarbamate;NSC 100885;NSC 6205;<em>N</em>,<em>N</em>-Dimethyldithiocarbamic acid dimethylammonium salt",
    "duplicated_cas_no": "287390-33-4",
    "SMILES": "N(C)C.C(N(C)C)(=S)S",
    "meta_data": {
        "InChI": "InChI=1S/C3H7NS2.C2H7N/c1-4(2)3(5)6;1-3-2/h1-2H3,(H,5,6);3H,1-2H3",
        "InChIKey": null,
        "Canonical SMILES": "S=C(S)N(C)C.N(C)C",
        "Molecular Formula": "C<sub>3</sub>H<sub>7</sub>NS<sub>2</sub>.C<sub>2</sub>H<sub>7</sub>N",
        "Molecular Mass": "",
        "Melting Point": "132 °C"
    }
}