{
    "cas_no": "709031-28-7",
    "key_name": "2-(3-Hydroxy-1-adamantyl)-2-oxoacetic acid",
    "cn_name": "2-(3-羟基-1-金刚烷)-2-氧代乙酸;",
    "alternate_name": "Tricyclo[3.3.1.1<sup>3,7</sup>]decane-1-acetic acid, 3-hydroxy-α-oxo-;3-Hydroxy-α-oxotricyclo[3.3.1.1<sup>3,7</sup>]decane-1-acetic acid;2-(3-Hydroxy-1-adamantyl)-2-oxoacetic acid;2-(3-Hydroxyadamantan-1-yl)-2-oxoacetic acid",
    "duplicated_cas_no": "",
    "SMILES": "C(C(O)=O)(=O)C12CC3(O)CC(C1)CC(C2)C3",
    "meta_data": {
        "InChI": "InChI=1S/C12H16O4/c13-9(10(14)15)11-2-7-1-8(3-11)5-12(16,4-7)6-11/h7-8,16H,1-6H2,(H,14,15)",
        "InChIKey": null,
        "Canonical SMILES": "O=C(O)C(=O)C12CC3CC(CC(O)(C3)C1)C2",
        "Molecular Formula": "C<sub>12</sub>H<sub>16</sub>O<sub>4</sub>",
        "Molecular Mass": "224.25",
        "Melting Point": "164-165 °C"
    }
}