{
    "cas_no": "5437-33-2",
    "key_name": "3,5-Dichloro-2(1<em>H</em>)-pyridinone",
    "cn_name": "3,5-二氯-2-吡啶酮;",
    "alternate_name": "2(1<em>H</em>)-Pyridinone, 3,5-dichloro-;2(1<em>H</em>)-Pyridone, 3,5-dichloro-;3,5-Dichloro-2(1<em>H</em>)-pyridinone;3,5-Dichloro-2-pyridinol;3,5-Dichloro-2-pyridinone;3,5-Dichloro-2-pyridone;NSC 16021;3,5-Dichloro-1<em>H</em>-pyridin-2-one;3,5-Dichloro-1,2-dihydropyridin-2-one;3,5-Dichloro-2-hydroxypyridine",
    "duplicated_cas_no": "13466-37-0",
    "SMILES": "ClC=1C(=O)NC=C(Cl)C1",
    "meta_data": {
        "InChI": "InChI=1S/C5H3Cl2NO/c6-3-1-4(7)5(9)8-2-3/h1-2H,(H,8,9)",
        "InChIKey": null,
        "Canonical SMILES": "O=C1NC=C(Cl)C=C1Cl",
        "Molecular Formula": "C<sub>5</sub>H<sub>3</sub>Cl<sub>2</sub>NO",
        "Molecular Mass": "163.99",
        "Melting Point": "177-178 °C"
    }
}