{
    "cas_no": "705-15-7",
    "key_name": "2′-Hydroxy-5′-methoxyacetophenone",
    "cn_name": "2\"-羟基-5\"-甲氧基苯乙酮;",
    "alternate_name": "Ethanone, 1-(2-hydroxy-5-methoxyphenyl)-;Acetophenone, 2′-hydroxy-5′-methoxy-;1-(2-Hydroxy-5-methoxyphenyl)ethanone;2-Hydroxy-5-methoxyacetophenone;2′-Hydroxy-5′-methoxyacetophenone;5-Methoxy-2-hydroxyacetophenone;2-Acetyl-4-methoxyphenol;1-(2-hydroxy-5-methoxyphenyl)ethanone;NSC 338218;2-Hydroxy-5-Methyloxyacetophenone;1-(2-Hydroxy-5-methoxyphenyl)ethan-1-one",
    "duplicated_cas_no": "",
    "SMILES": "C(C)(=O)C1=CC(OC)=CC=C1O",
    "meta_data": {
        "InChI": "InChI=1S/C9H10O3/c1-6(10)8-5-7(12-2)3-4-9(8)11/h3-5,11H,1-2H3",
        "InChIKey": null,
        "Canonical SMILES": "O=C(C1=CC(OC)=CC=C1O)C",
        "Molecular Formula": "C<sub>9</sub>H<sub>10</sub>O<sub>3</sub>",
        "Molecular Mass": "166.17",
        "Boiling Point": "78-86 °C @ Press: 0.1 Torr",
        "Melting Point": "52 °C"
    }
}