{
    "cas_no": "874-41-9",
    "key_name": "1,3-Dimethyl-4-ethylbenzene",
    "cn_name": "1,3-二甲基-4-乙基苯;",
    "alternate_name": "Benzene, 1-ethyl-2,4-dimethyl-;<em>m</em>-Xylene, 4-ethyl-;1-Ethyl-2,4-dimethylbenzene;1,3-Dimethyl-4-ethylbenzene;4-Ethyl-<em>m</em>-xylene;2,4-Dimethylethylbenzene;NSC 74184;2,4-Dimethyl-1-ethylbenzene",
    "duplicated_cas_no": "",
    "SMILES": "C(C)C1=C(C)C=C(C)C=C1",
    "meta_data": {
        "InChI": "InChI=1S/C10H14/c1-4-10-6-5-8(2)7-9(10)3/h5-7H,4H2,1-3H3",
        "InChIKey": null,
        "Canonical SMILES": "C=1C=C(C(=CC1C)C)CC",
        "Molecular Formula": "C<sub>10</sub>H<sub>14</sub>",
        "Molecular Mass": "134.22",
        "Boiling Point": "188.4 °C",
        "Melting Point": "-62.9 °C",
        "Density": "0.8759 g/cm³ @ Temp: 20 °C"
    }
}