{
    "cas_no": "1878-87-1",
    "key_name": "2-Nitrophenoxyacetic acid",
    "cn_name": "2-硝基苯氧乙酸;邻硝基苯氧乙酸;",
    "alternate_name": "Acetic acid, 2-(2-nitrophenoxy)-;Acetic acid, (<em>o</em>-nitrophenoxy)-;Acetic acid, (2-nitrophenoxy)-;2-(2-Nitrophenoxy)acetic acid;2-Nitrophenoxyacetic acid;<em>o</em>-Nitrophenoxyacetic acid;(2-Nitrophenoxy)ethanoic acid;NSC 37409;2-(2-Nitrophenyloxy)acetic acid",
    "duplicated_cas_no": "",
    "SMILES": "O(CC(O)=O)C1=C(N(=O)=O)C=CC=C1",
    "meta_data": {
        "InChI": "InChI=1S/C8H7NO5/c10-8(11)5-14-7-4-2-1-3-6(7)9(12)13/h1-4H,5H2,(H,10,11)",
        "InChIKey": null,
        "Canonical SMILES": "O=C(O)COC=1C=CC=CC1N(=O)=O",
        "Molecular Formula": "C<sub>8</sub>H<sub>7</sub>NO<sub>5</sub>",
        "Molecular Mass": "197.14",
        "Melting Point": "156-157 °C"
    }
}