{
    "cas_no": "1566-42-3",
    "key_name": "<em>N</em>-(4-Methoxyphenyl)urea",
    "cn_name": "4-甲氧基苯脲;",
    "alternate_name": "Urea, <em>N</em>-(4-methoxyphenyl)-;Urea, (<em>p</em>-methoxyphenyl)-;Urea, (4-methoxyphenyl)-;<em>N</em>-(4-Methoxyphenyl)urea;(4-Methoxyphenyl)urea;(<em>p</em>-Methoxyphenyl)urea;4-Ureidoanisole;NSC 12973;1-(4-Methoxyphenyl)urea",
    "duplicated_cas_no": "",
    "SMILES": "N(C(N)=O)C1=CC=C(OC)C=C1",
    "meta_data": {
        "InChI": "InChI=1S/C8H10N2O2/c1-12-7-4-2-6(3-5-7)10-8(9)11/h2-5H,1H3,(H3,9,10,11)",
        "InChIKey": null,
        "Canonical SMILES": "O=C(N)NC1=CC=C(OC)C=C1",
        "Molecular Formula": "C<sub>8</sub>H<sub>10</sub>N<sub>2</sub>O<sub>2</sub>",
        "Molecular Mass": "166.18",
        "Melting Point": "168 °C"
    }
}