{
    "cas_no": "6688-11-5",
    "key_name": "Cyclooctanecarboxaldehyde",
    "cn_name": "环辛烷甲醛;",
    "alternate_name": "Cyclooctanecarboxaldehyde;Formylcyclooctane;Cyclooctanealdehyde",
    "duplicated_cas_no": "",
    "SMILES": "C(=O)C1CCCCCCC1",
    "meta_data": {
        "InChI": "InChI=1S/C9H16O/c10-8-9-6-4-2-1-3-5-7-9/h8-9H,1-7H2",
        "InChIKey": null,
        "Canonical SMILES": "O=CC1CCCCCCC1",
        "Molecular Formula": "C<sub>9</sub>H<sub>16</sub>O",
        "Molecular Mass": "140.22",
        "Boiling Point": "76-78 °C @ Press: 16 Torr"
    }
}