{
    "cas_no": "691-60-1",
    "key_name": "Isopropylurea",
    "cn_name": null,
    "alternate_name": "Urea, <em>N</em>-(1-methylethyl)-;Urea, isopropyl-;Urea, (1-methylethyl)-;<em>N</em>-(1-Methylethyl)urea;Isopropylurea;1-Isopropylurea;<em>N</em>-Isopropylurea;NSC 14349;(Propan-2-yl)urea",
    "duplicated_cas_no": "",
    "SMILES": "N(C(C)C)C(N)=O",
    "meta_data": {
        "InChI": "InChI=1S/C4H10N2O/c1-3(2)6-4(5)7/h3H,1-2H3,(H3,5,6,7)",
        "InChIKey": null,
        "Canonical SMILES": "O=C(N)NC(C)C",
        "Molecular Formula": "C<sub>4</sub>H<sub>10</sub>N<sub>2</sub>O",
        "Molecular Mass": "102.14",
        "Melting Point": "119-120 °C",
        "Density": "1.1434 g/cm³"
    }
}