{
    "cas_no": "84000-07-7",
    "key_name": "<em>N</em>-[(9<em>H</em>-Fluoren-9-ylmethoxy)carbonyl]-<em>N</em>-methyl-<span class=\"text-smallcaps\">L</span>-alanine",
    "cn_name": "FMOC-N-甲基-L-丙氨酸;N-芴甲氧羰酰基-N-甲基-L-丙氨酸;",
    "alternate_name": "<span class=\"text-smallcaps\">L</span>-Alanine, <em>N</em>-[(9<em>H</em>-fluoren-9-ylmethoxy)carbonyl]-<em>N</em>-methyl-;<em>N</em>-[(9<em>H</em>-Fluoren-9-ylmethoxy)carbonyl]-<em>N</em>-methyl-<span class=\"text-smallcaps\">L</span>-alanine;<em>N</em>-Fmoc-<em>N</em>-methyl-<span class=\"text-smallcaps\">L</span>-alanine;(2S)-2-([[(9<em>H</em>-Fluoren-9-yl)methoxy]carbonyl](methyl)amino)propanoic acid;(<em>S</em>)-2-((((9<em>H</em>-Fluoren-9-yl)methoxy)carbonyl)(methyl)amino)propanoic acid",
    "duplicated_cas_no": "",
    "SMILES": "C(OC(N([C@H](C(O)=O)C)C)=O)C1C=2C(C=3C1=CC=CC3)=CC=CC2",
    "meta_data": {
        "InChI": "InChI=1S/C19H19NO4/c1-12(18(21)22)20(2)19(23)24-11-17-15-9-5-3-7-13(15)14-8-4-6-10-16(14)17/h3-10,12,17H,11H2,1-2H3,(H,21,22)/t12-/m0/s1",
        "InChIKey": null,
        "Canonical SMILES": "O=C(O)C(N(C(=O)OCC1C=2C=CC=CC2C=3C=CC=CC31)C)C",
        "Molecular Formula": "C<sub>19</sub>H<sub>19</sub>NO<sub>4</sub>",
        "Molecular Mass": "325.36",
        "Melting Point": "140-142 °C"
    }
}