{
    "cas_no": "6226-25-1",
    "key_name": "2,2,2-Trifluoroethyl trifluoromethanesulfonate",
    "cn_name": "2,2,2-三氟乙基三氟甲烷磺酸酯;三氟甲磺酸三氟乙酯;",
    "alternate_name": "Methanesulfonic acid, 1,1,1-trifluoro-, 2,2,2-trifluoroethyl ester;Methanesulfonic acid, trifluoro-, 2,2,2-trifluoroethyl ester;Ethanol, 2,2,2-trifluoro-, trifluoromethanesulfonate;2,2,2-Trifluoroethyl trifluoromethanesulfonate;2,2,2-Trifluoroethyl triflate;2,2,2-Trifluoroethyl trifluoromethylsulfonate;Trifluoromethanesulfonic acid 2,2,2-trifluoroethyl ester;Trifluoro(trifluoromethanesulfonylmethoxy)methane;2,2,2-Tris(fluoranyl)ethyltris(fluoranyl)methanesulfonate",
    "duplicated_cas_no": "2750716-25-5",
    "SMILES": "S(C(F)(F)F)(OCC(F)(F)F)(=O)=O",
    "meta_data": {
        "InChI": "InChI=1S/C3H2F6O3S/c4-2(5,6)1-12-13(10,11)3(7,8)9/h1H2",
        "InChIKey": null,
        "Canonical SMILES": "O=S(=O)(OCC(F)(F)F)C(F)(F)F",
        "Molecular Formula": "C<sub>3</sub>H<sub>2</sub>F<sub>6</sub>O<sub>3</sub>S",
        "Molecular Mass": "232.10",
        "Boiling Point": "89-91 °C @ Press: 740 Torr"
    }
}