{
    "cas_no": "7280-77-5",
    "key_name": "Cyclo(<span class=\"text-smallcaps\">L</smallcap>-Phe-<smallcap>L</span>-Leu)",
    "cn_name": null,
    "alternate_name": "2,5-Piperazinedione, 3-(2-methylpropyl)-6-(phenylmethyl)-, (3<em>S</em>,6<em>S</em>)-;2,5-Piperazinedione, 3-benzyl-6-isobutyl-, (3<em>S</em>,6<em>S</em>)-;2,5-Piperazinedione, 3-(2-methylpropyl)-6-(phenylmethyl)-, (3<em>S</em>-<em>cis</em>)-;Cyclo(<span class=\"text-smallcaps\">L</smallcap>-leucyl-<smallcap>L</span>-phenylalanyl);(3<em>S</em>,6<em>S</em>)-3-(2-Methylpropyl)-6-(phenylmethyl)-2,5-piperazinedione;3-Benzyl-6-isobutyl-2,5-dioxopiperazine;Cyclo-<span class=\"text-smallcaps\">L</smallcap>-leucyl-<smallcap>L</span>-phenylalanine;<span class=\"text-smallcaps\">L</smallcap>-Phenylalanyl-<smallcap>L</span>-leucine diketopiperazine;Cyclo(<span class=\"text-smallcaps\">L</smallcap>-Phe-<smallcap>L</span>-Leu);Cyclo(<span class=\"text-smallcaps\">L</smallcap>-Leu-<smallcap>L</span>-Phe);Cyclo(Leu-Phe)",
    "duplicated_cas_no": "",
    "SMILES": "C([C@H]1C(=O)N[C@@H](CC(C)C)C(=O)N1)C2=CC=CC=C2",
    "meta_data": {
        "InChI": "InChI=1S/C15H20N2O2/c1-10(2)8-12-14(18)17-13(15(19)16-12)9-11-6-4-3-5-7-11/h3-7,10,12-13H,8-9H2,1-2H3,(H,16,19)(H,17,18)/t12-,13-/m0/s1",
        "InChIKey": null,
        "Canonical SMILES": "O=C1NC(C(=O)NC1CC=2C=CC=CC2)CC(C)C",
        "Molecular Formula": "C<sub>15</sub>H<sub>20</sub>N<sub>2</sub>O<sub>2</sub>",
        "Molecular Mass": "260.33",
        "Melting Point": "282-284 °C"
    }
}