{
    "cas_no": "779-03-3",
    "key_name": "9-Aminoanthracene",
    "cn_name": null,
    "alternate_name": "9-Anthracenamine;9-Anthramine;10-Anthracylamine;9-Aminoanthracene;5-Aminoanthracene;NSC 125517;NSC 155202;9-Anthrylamine",
    "duplicated_cas_no": "",
    "SMILES": "NC=1C2=C(C=C3C1C=CC=C3)C=CC=C2",
    "meta_data": {
        "InChI": "InChI=1S/C14H11N/c15-14-12-7-3-1-5-10(12)9-11-6-2-4-8-13(11)14/h1-9H,15H2",
        "InChIKey": null,
        "Canonical SMILES": "NC=1C=2C=CC=CC2C=C3C=CC=CC31",
        "Molecular Formula": "C<sub>14</sub>H<sub>11</sub>N",
        "Molecular Mass": "193.24",
        "Melting Point": "215.5 °C"
    }
}