{
    "cas_no": "58-89-9",
    "key_name": "Lindane",
    "cn_name": "林丹;R-六六六;gamma-六氯环己烷;",
    "alternate_name": "Cyclohexane, 1,2,3,4,5,6-hexachloro-, (1α,2α,3β,4α,5α,6β)-;Cyclohexane, 1,2,3,4,5,6-hexachloro-, γ-;(1α,2α,3β,4α,5α,6β)-1,2,3,4,5,6-Hexachlorocyclohexane;Tri-6;ENT 7,796;Aficide;Agrocide;Agrocide III;Agrocide WP;Aparasin;Aphtiria;BBH;Ben-Hex;γ-Benzene hexachloride;Bexol;BHC;Gamma benzene hexachloride;Gamma-HCH;Gexane;Hexachloran;Hexachlorane;γ-1,2,3,4,5,6-Hexachlorocyclohexane;γ-Hexachlorocyclohexane;HGI;Jacutin;Kwell;Lindane;γ-Lindane;Lorexane;γ-BHC;Streunex;Pedraczak;TAP 85;Gamacid;Bentox 10;HCH;Lentox;Lintox;γ-HCH;Sang-gamma;Gammexane;Arbitex;Kokotine;Gammalin 20;HCCH;Lindatox;Lidenal;Gammalin;Lendine;Mszycol;Nicochloran;γ-Hexachloran;γ-Hexachlorane;γ-Hexachlorobenzene;1,2,3,4,5,6-Hexachlorocyclohexane;Codechine;Lindosep;Hortex;Hexachlorocyclohexane;Entomoxan;666;DBH;Hexyclan;Omnitox;Quellada;Heclotox;Dol Granule;Owadziak;Nexit;Benzene hexachloride;Ovadziak;Aalindan;Aplidal;Ameisenmittel Merck;Celanex;Detmol Extract;Drilltox-Spezial Aglukon;Hexa;Gammaterr;Milbol 49;Nexen FB;Nexol E;Pflanzol;Spritz-Rapidin;Spruehpflanzol;Hexicide;Neo-Scabicidol;Chloresene;Devoran;Hexaverm;Linvur;Lindex;HCC;Forst-Nexen;Hungaria L 7;Fenoform forte;Mglawik L;γ-666;Geolin G 3;Geobilan;Hilbeech;Verindal Ultra;Benhexol;Lasochron;PLK (pesticide);Spritzlindane;γ-Benzohexachloride;Hexatin;Inexit;Lintox 3;Gamoline;Nexit Stark;Bercema-Spritz-Lindan 50;BHC (insecticide);Gamacide 20;Arcotal S;Gamacide;Kanodane;Prodactif;Viton;Lindafor;Esoderm;Gamene;Scabene;Scabecid;Gammaxene;MeSH ID: D001556",
    "duplicated_cas_no": "8007-42-9;8073-23-2;25897-48-7;53529-37-6;55963-79-6",
    "SMILES": "Cl[C@H]1[C@@H](Cl)[C@H](Cl)[C@@H](Cl)[C@@H](Cl)[C@@H]1Cl",
    "meta_data": {
        "InChI": "InChI=1/C6H6Cl6/c7-1-2(8)4(10)6(12)5(11)3(1)9/h1-6H/t1-,2-,3-,4+,5+,6+",
        "InChIKey": null,
        "Canonical SMILES": "ClC1C(Cl)C(Cl)C(Cl)C(Cl)C1Cl",
        "Molecular Formula": "C<sub>6</sub>H<sub>6</sub>Cl<sub>6</sub>",
        "Molecular Mass": "290.83",
        "Boiling Point": "323.4 °C @ Press: 760 Torr",
        "Melting Point": "112.5 °C",
        "Density": "1.85 g/cm³"
    }
}