{
    "cas_no": "71176-55-1",
    "key_name": "5-Nitro-1,3-benzenedimethanol",
    "cn_name": "5-硝基-间二甲苯-α,α-二醇;",
    "alternate_name": "1,3-Benzenedimethanol, 5-nitro-;5-Nitro-1,3-benzenedimethanol;3-(Hydroxymethyl)-5-nitrobenzyl alcohol;5-Nitro-1,3-di(hydroxymethyl)benzene;3,5-Bis-(hydroxymethyl)nitroxylylene;[3-(Hydroxymethyl)-5-nitrophenyl]methanol;3,5-Bis(hydroxymethyl)-1-nitrobenzene",
    "duplicated_cas_no": "",
    "SMILES": "N(=O)(=O)C1=CC(CO)=CC(CO)=C1",
    "meta_data": {
        "InChI": "InChI=1S/C8H9NO4/c10-4-6-1-7(5-11)3-8(2-6)9(12)13/h1-3,10-11H,4-5H2",
        "InChIKey": null,
        "Canonical SMILES": "O=N(=O)C=1C=C(C=C(C1)CO)CO",
        "Molecular Formula": "C<sub>8</sub>H<sub>9</sub>NO<sub>4</sub>",
        "Molecular Mass": "183.16",
        "Melting Point": "91-92 °C"
    }
}