{
    "cas_no": "111-52-4",
    "key_name": "(2<em>E</em>)-<em>N</em><sup>1</sup>,<em>N</em><sup>1</sup>,<em>N</em><sup>4</sup>,<em>N</em><sup>4</sup>-Tetramethyl-2-butene-1,4-diamine",
    "cn_name": "反-N,N,N,N-四甲基-2-丁烯-1,4-二胺;",
    "alternate_name": "2-Butene-1,4-diamine, <em>N</em><sup>1</sup>,<em>N</em><sup>1</sup>,<em>N</em><sup>4</sup>,<em>N</em><sup>4</sup>-tetramethyl-, (2<em>E</em>)-;2-Butene-1,4-diamine, <em>N</em>,<em>N</em>,<em>N</em>′,<em>N</em>′-tetramethyl-, (<em>E</em>)-;2-Butene-1,4-diamine, <em>N</em>,<em>N</em>,<em>N</em>′,<em>N</em>′-tetramethyl-, (2<em>E</em>)-;(2<em>E</em>)-<em>N</em><sup>1</sup>,<em>N</em><sup>1</sup>,<em>N</em><sup>4</sup>,<em>N</em><sup>4</sup>-Tetramethyl-2-butene-1,4-diamine;<em>trans</em>-1,4-Bis(dimethylamino)-2-butene;<em>trans</em>-<em>N</em>,<em>N</em>,<em>N</em>′,<em>N</em>′-Tetramethyl-2-butene-1,4-diamine",
    "duplicated_cas_no": "",
    "SMILES": "C(=C/CN(C)C)\\CN(C)C",
    "meta_data": {
        "InChI": "InChI=1S/C8H18N2/c1-9(2)7-5-6-8-10(3)4/h5-6H,7-8H2,1-4H3/b6-5+",
        "InChIKey": null,
        "Canonical SMILES": "C(=CCN(C)C)CN(C)C",
        "Molecular Formula": "C<sub>8</sub>H<sub>18</sub>N<sub>2</sub>",
        "Molecular Mass": "142.24",
        "Boiling Point": "171-172 °C @ Press: 735 Torr"
    }
}