{
    "cas_no": "4670-10-4",
    "key_name": "(3,5-Dimethoxyphenyl)acetic acid",
    "cn_name": "3,5-二甲氧基苯基乙酸;",
    "alternate_name": "Benzeneacetic acid, 3,5-dimethoxy-;Acetic acid, (3,5-dimethoxyphenyl)-;3,5-Dimethoxybenzeneacetic acid;(3,5-Dimethoxyphenyl)acetic acid;2-(3,5-Dimethoxyphenyl)acetic acid",
    "duplicated_cas_no": "",
    "SMILES": "C(C(O)=O)C1=CC(OC)=CC(OC)=C1",
    "meta_data": {
        "InChI": "InChI=1S/C10H12O4/c1-13-8-3-7(5-10(11)12)4-9(6-8)14-2/h3-4,6H,5H2,1-2H3,(H,11,12)",
        "InChIKey": null,
        "Canonical SMILES": "O=C(O)CC=1C=C(OC)C=C(OC)C1",
        "Molecular Formula": "C<sub>10</sub>H<sub>12</sub>O<sub>4</sub>",
        "Molecular Mass": "196.20",
        "Melting Point": "99-100 °C"
    }
}