{
    "cas_no": "5381-20-4",
    "key_name": "Benzo[<em>b</em>]thiophene-3-carboxaldehyde",
    "cn_name": "3-甲醛苯并噻吩;",
    "alternate_name": "Benzo[<em>b</em>]thiophene-3-carboxaldehyde;3-Formylbenzo[<em>b</em>]thiophene;3-Thianaphthenecarboxaldehyde;3-Benzothiophenecarboxaldehyde;Benzo[<em>b</em>]thiophene-3-aldehyde;1-Benzothiophene-3-carboxaldehyde;NSC 18872;Thianaphtene-3-carboxaldehyde;3-Formylbenzothiophene;1-Benzothiophene-3-carbaldehyde",
    "duplicated_cas_no": "",
    "SMILES": "C(=O)C=1C=2C(SC1)=CC=CC2",
    "meta_data": {
        "InChI": "InChI=1S/C9H6OS/c10-5-7-6-11-9-4-2-1-3-8(7)9/h1-6H",
        "InChIKey": null,
        "Canonical SMILES": "O=CC1=CSC=2C=CC=CC21",
        "Molecular Formula": "C<sub>9</sub>H<sub>6</sub>OS",
        "Molecular Mass": "162.21",
        "Boiling Point": "149-150 °C @ Press: 10 Torr",
        "Melting Point": "58 °C"
    }
}