{
    "cas_no": "5350-03-8",
    "key_name": "Pentyl laurate",
    "cn_name": "月桂酸戊酯;",
    "alternate_name": "Dodecanoic acid, pentyl ester;Lauric acid, pentyl ester;Amyl laurate;Pentyl laurate;<em>n</em>-Amyl laurate;NSC 3891;Pentyl dodecanoate",
    "duplicated_cas_no": "",
    "SMILES": "C(CCCCCCCCCCC)(OCCCCC)=O",
    "meta_data": {
        "InChI": "InChI=1S/C17H34O2/c1-3-5-7-8-9-10-11-12-13-15-17(18)19-16-14-6-4-2/h3-16H2,1-2H3",
        "InChIKey": null,
        "Canonical SMILES": "O=C(OCCCCC)CCCCCCCCCCC",
        "Molecular Formula": "C<sub>17</sub>H<sub>34</sub>O<sub>2</sub>",
        "Molecular Mass": "270.45",
        "Boiling Point": "245-248 °C"
    }
}