{
    "cas_no": "638-38-0",
    "key_name": "Manganese diacetate",
    "cn_name": null,
    "alternate_name": "Acetic acid, manganese(2+) salt (2:1);Acetic acid, manganese(2+) salt;Manganese acetate (Mn(OAc)<sub>2</sub>);Manganous acetate;Diacetylmanganese;Manganese(II) acetate;Manganese acetate;Manganese diacetate;Manganese(2+) acetate",
    "duplicated_cas_no": "56743-91-0;68836-53-3;1372545-89-5",
    "SMILES": "C(C)(O)=O.[Mn]",
    "meta_data": {
        "InChI": "InChI=1S/C2H4O2.Mn/c1-2(3)4;/h1H3,(H,3,4);",
        "InChIKey": null,
        "Canonical SMILES": "[Mn].O=C(O)C",
        "Molecular Formula": "C<sub>2</sub>H<sub>4</sub>O<sub>2</sub>.<sup>1</sup>/<sub>2</sub>Mn",
        "Molecular Mass": "",
        "Melting Point": "102-103 °C",
        "Density": "1.74 g/cm³"
    }
}