{
    "cas_no": "58249-61-9",
    "key_name": "6-Benzothiazolecarbonitrile",
    "cn_name": null,
    "alternate_name": "6-Benzothiazolecarbonitrile;6-Cyanobenzothiazole;6-Cyanobenzothiazol;1,3-Benzothiazole-6-carbonitrile",
    "duplicated_cas_no": "",
    "SMILES": "C(#N)C=1C=C2C(=CC1)N=CS2",
    "meta_data": {
        "InChI": "InChI=1S/C8H4N2S/c9-4-6-1-2-7-8(3-6)11-5-10-7/h1-3,5H",
        "InChIKey": null,
        "Canonical SMILES": "N#CC=1C=CC=2N=CSC2C1",
        "Molecular Formula": "C<sub>8</sub>H<sub>4</sub>N<sub>2</sub>S",
        "Molecular Mass": "160.20",
        "Melting Point": "133 °C"
    }
}