{
    "cas_no": "1486-51-7",
    "key_name": "4-(Benzyloxy)benzoic acid",
    "cn_name": "4-苯甲氧基苯甲酸;",
    "alternate_name": "Benzoic acid, 4-(phenylmethoxy)-;Benzoic acid, <em>p</em>-(benzyloxy)-;4-(Phenylmethoxy)benzoic acid;<em>p</em>-(Benzyloxy)benzoic acid;BRL 14280;4-(Benzyloxy)benzoic acid;NSC 16633",
    "duplicated_cas_no": "2764684-53-7",
    "SMILES": "O(CC1=CC=CC=C1)C2=CC=C(C(O)=O)C=C2",
    "meta_data": {
        "InChI": "InChI=1S/C14H12O3/c15-14(16)12-6-8-13(9-7-12)17-10-11-4-2-1-3-5-11/h1-9H,10H2,(H,15,16)",
        "InChIKey": null,
        "Canonical SMILES": "O=C(O)C1=CC=C(OCC=2C=CC=CC2)C=C1",
        "Molecular Formula": "C<sub>14</sub>H<sub>12</sub>O<sub>3</sub>",
        "Molecular Mass": "228.24",
        "Melting Point": "187 °C"
    }
}