{
    "cas_no": "939-26-4",
    "key_name": "2-(Bromomethyl)naphthalene",
    "cn_name": "2-溴甲基萘;",
    "alternate_name": "Naphthalene, 2-(bromomethyl)-;2-(Bromomethyl)naphthalene;2-Menaphthyl bromide;β-Naphthylmethyl bromide;β-(Bromomethyl)naphthalene;2-Naphthylmethyl bromide;(Naphthalen-2-yl)methyl bromide;2-(Bromomethyl)naphthalen",
    "duplicated_cas_no": "",
    "SMILES": "C(Br)C1=CC2=C(C=C1)C=CC=C2",
    "meta_data": {
        "InChI": "InChI=1S/C11H9Br/c12-8-9-5-6-10-3-1-2-4-11(10)7-9/h1-7H,8H2",
        "InChIKey": null,
        "Canonical SMILES": "BrCC=1C=CC=2C=CC=CC2C1",
        "Molecular Formula": "C<sub>11</sub>H<sub>9</sub>Br",
        "Molecular Mass": "221.09",
        "Boiling Point": "168-172 °C @ Press: 13 Torr",
        "Melting Point": "56 °C"
    }
}