{
    "cas_no": "579-39-5",
    "key_name": "1,2-Bis(4-fluorophenyl)-1,2-ethanedione",
    "cn_name": "4,4\"-二氟苯偶酰;二氟苯偶酰;",
    "alternate_name": "1,2-Ethanedione, 1,2-bis(4-fluorophenyl)-;Benzil, 4,4′-difluoro-;Ethanedione, bis(4-fluorophenyl)-;1,2-Bis(4-fluorophenyl)-1,2-ethanedione;4,4′-Difluorobenzil;<em>p</em>,<em>p</em>′-Difluorobenzil;4,4′-Difluorobibenzoyl",
    "duplicated_cas_no": "",
    "SMILES": "C(C(=O)C1=CC=C(F)C=C1)(=O)C2=CC=C(F)C=C2",
    "meta_data": {
        "InChI": "InChI=1S/C14H8F2O2/c15-11-5-1-9(2-6-11)13(17)14(18)10-3-7-12(16)8-4-10/h1-8H",
        "InChIKey": null,
        "Canonical SMILES": "O=C(C(=O)C1=CC=C(F)C=C1)C2=CC=C(F)C=C2",
        "Molecular Formula": "C<sub>14</sub>H<sub>8</sub>F<sub>2</sub>O<sub>2</sub>",
        "Molecular Mass": "246.21",
        "Melting Point": "119-121 °C"
    }
}