{
    "cas_no": "17418-58-5",
    "key_name": "Disperse Red 60",
    "cn_name": "分散红60;1-氨基-2-苯氧基-4-羟基蒽醌;溶剂红146;",
    "alternate_name": "9,10-Anthracenedione, 1-amino-4-hydroxy-2-phenoxy-;C.I. Disperse Red 60;1-Amino-4-hydroxy-2-phenoxy-9,10-anthracenedione;1-Amino-4-hydroxy-2-phenoxyanthraquinone;1-Amino-2-phenoxy-4-hydroxyanthraquinone;Duranol Brilliant Red T 2B;Miketon Polyester Red FB;Serilene Brilliant Red 2BL;Samaron Pink FBL;Resolin Red FB;Foron Brilliant Red E 2BL;Resorin Red FBE;Resolin Red FBE;Disperse Red 60;Ostacet Brilliant Red E-LB;C.I. Disperse Red 83;Serilene Red 2BL;Resiren Red TB;Dispersol Red B 2B;Sumikaron Red E-FBL;Latyl Cerise N;Transetile Rubine P-FL;Disperse Polyester Pink 2S;Tersetile Rubine FL;Palanil Red BF;Hostatherm Pink FBL;Teraprint Red 3G;C.I. Disperse Red 71;PTR 63;Lurafix Red 430;Terasil Red FB;Navilene Red FB;Intrasil Brilliant Red 2B;MS Red G;Ostacet Red E-L 2B;Dianix Red FB-E 220;Dianix Red FB-E;Disperse Red 3B;Anthraquinone magenta;Disperse Red E 4B;C.I. Solvent Red 146;C.I. 60756;Kayaset Red B;Sumiplast Red FB;Solvent Red 146;Lumacron Red FB;Disperse Red B 2B;Disperse Red B 2B 200;Resiren Red T-FB;Intratherm Brilliant Red P 1314NT;Intrasil Brilliant Red 2B 200;Ostacet Red E-LB;Brilliant Red E 2BL;Rifalon Red E-FBL;Synten Red P-BFL;Foron Brilliant Red 2BL200;Disperse Red FB;Foron Brilliant Red E 2BL200;Plast Red 8375N;Disperse Red E 3B;Rifalon Red E-FBL 200;Zenix Red FB-E;Terasil Red FBN;Dianix Red E-FB;1-Amino-2-phenoxy-4-hydroxy-9,10-anthraquinone;Sumikaron Red E-RPD;Techcron Red E-RPD;R 60;KP Plast Red B;1-Amino-4-hydroxy-2-phenoxy-9,10-anthraquinone;1-Amino-4-hydroxy-2-phenoxy-9,10-dihydroanthracene-9,10-dione;PS Red G;DR 60;PET Red 1000;Riaplas Red 2BL-TP",
    "duplicated_cas_no": "12223-37-9;12236-09-8;12767-73-6;50814-32-9;51848-30-7;54077-11-1;54328-10-8;57769-69-4;70956-30-8;74092-46-9;87843-79-6;92229-60-2;110617-60-2;144856-43-9;234443-08-4;909409-36-5;1526909-88-5",
    "SMILES": "O=C1C=2C(C(=O)C=3C1=CC=CC3)=C(O)C=C(OC4=CC=CC=C4)C2N",
    "meta_data": {
        "InChI": "InChI=1S/C20H13NO4/c21-18-15(25-11-6-2-1-3-7-11)10-14(22)16-17(18)20(24)13-9-5-4-8-12(13)19(16)23/h1-10,22H,21H2",
        "InChIKey": null,
        "Canonical SMILES": "O=C1C=2C=CC=CC2C(=O)C3=C(N)C(OC=4C=CC=CC4)=CC(O)=C13",
        "Molecular Formula": "C<sub>20</sub>H<sub>13</sub>NO<sub>4</sub>",
        "Molecular Mass": "331.32",
        "Melting Point": "185 °C"
    }
}