{
    "cas_no": "2462-32-0",
    "key_name": "<span class=\"text-smallcaps\">L</span>-Phenylalanine, phenylmethyl ester, hydrochloride (1:1)",
    "cn_name": null,
    "alternate_name": "<span class=\"text-smallcaps\">L</span>-Phenylalanine, phenylmethyl ester, hydrochloride (1:1);Alanine, phenyl-, benzyl ester, hydrochloride, <span class=\"text-smallcaps\">L</span>-;<span class=\"text-smallcaps\">L</span>-Phenylalanine, phenylmethyl ester, hydrochloride;Alanine, phenyl-, benzyl ester, hydrochloride;Phenylalanine benzyl ester hydrochloride;<span class=\"text-smallcaps\">L</span>-Phenylalanine benzyl ester hydrochloride;Benzyl <span class=\"text-smallcaps\">L</span>-phenylalaninate hydrochloride;Benzyl phenylalaninate hydrochloride;NSC 522226;Benzyl (<em>S</em>)-2-amino-3-phenylpropanoate hydrochloride",
    "duplicated_cas_no": "",
    "SMILES": "C([C@@H](C(OCC1=CC=CC=C1)=O)N)C2=CC=CC=C2.Cl",
    "meta_data": {
        "InChI": "InChI=1S/C16H17NO2.ClH/c17-15(11-13-7-3-1-4-8-13)16(18)19-12-14-9-5-2-6-10-14;/h1-10,15H,11-12,17H2;1H/t15-;/m0./s1",
        "InChIKey": null,
        "Canonical SMILES": "Cl.O=C(OCC=1C=CC=CC1)C(N)CC=2C=CC=CC2",
        "Molecular Formula": "C<sub>16</sub>H<sub>17</sub>NO<sub>2</sub>.ClH",
        "Molecular Mass": "",
        "Melting Point": "202 °C"
    }
}