{
    "cas_no": "35092-89-8",
    "key_name": "1-Methyl 2-nitro-1,4-benzenedicarboxylate",
    "cn_name": "2-硝基对苯二酸单甲酯;",
    "alternate_name": "1,4-Benzenedicarboxylic acid, 2-nitro-, 1-methyl ester;1-Methyl 2-nitro-1,4-benzenedicarboxylate;4-Methoxycarbonyl-3-nitrobenzoic acid;NSC 151109;2-Nitroterephthalic acid 1-methyl ester;1-Methyl 2-nitroterephthalate;Methyl 4-carboxy-2-nitrobenzoate;1-Nitrobenzene-2-methyloxycarbonyl-5-carboxylic acid",
    "duplicated_cas_no": "",
    "SMILES": "C(OC)(=O)C1=C(N(=O)=O)C=C(C(O)=O)C=C1",
    "meta_data": {
        "InChI": "InChI=1S/C9H7NO6/c1-16-9(13)6-3-2-5(8(11)12)4-7(6)10(14)15/h2-4H,1H3,(H,11,12)",
        "InChIKey": null,
        "Canonical SMILES": "O=C(O)C1=CC=C(C(=O)OC)C(=C1)N(=O)=O",
        "Molecular Formula": "C<sub>9</sub>H<sub>7</sub>NO<sub>6</sub>",
        "Molecular Mass": "225.15",
        "Melting Point": "177-179 °C"
    }
}