{
    "cas_no": "1692-25-7",
    "key_name": "Pyridin-3-ylboronic acid",
    "cn_name": null,
    "alternate_name": "Boronic acid, <em>B</em>-3-pyridinyl-;3-Pyridineboronic acid;Boronic acid, 3-pyridinyl-;<em>B</em>-3-Pyridinylboronic acid;3-Pyridylboronic acid;(3-Pyridinyl)boronic acid;Dihydroxy(3-pyridyl)borane;Pyridin-3-ylboronic acid",
    "duplicated_cas_no": "1401311-60-1;1628674-20-3",
    "SMILES": "B(O)(O)C=1C=CC=NC1",
    "meta_data": {
        "InChI": "InChI=1S/C5H6BNO2/c8-6(9)5-2-1-3-7-4-5/h1-4,8-9H",
        "InChIKey": null,
        "Canonical SMILES": "OB(O)C=1C=NC=CC1",
        "Molecular Formula": "C<sub>5</sub>H<sub>6</sub>BNO<sub>2</sub>",
        "Molecular Mass": "122.92",
        "Melting Point": "&gt;310 °C"
    }
}