{
    "cas_no": "1129-26-6",
    "key_name": "4-Methoxybenzenesulfonamide",
    "cn_name": "4-甲氧基苯磺酰胺;",
    "alternate_name": "Benzenesulfonamide, 4-methoxy-;Benzenesulfonamide, <em>p</em>-methoxy-;4-Methoxybenzenesulfonamide;<em>p</em>-Methoxybenzenesulfonamide;4-Methoxyphenylsulfonamide;NSC 73188;4-(Methyloxy)benzenesulfonamide",
    "duplicated_cas_no": "",
    "SMILES": "S(N)(=O)(=O)C1=CC=C(OC)C=C1",
    "meta_data": {
        "InChI": "InChI=1S/C7H9NO3S/c1-11-6-2-4-7(5-3-6)12(8,9)10/h2-5H,1H3,(H2,8,9,10)",
        "InChIKey": null,
        "Canonical SMILES": "O=S(=O)(N)C1=CC=C(OC)C=C1",
        "Molecular Formula": "C<sub>7</sub>H<sub>9</sub>NO<sub>3</sub>S",
        "Molecular Mass": "187.22",
        "Melting Point": "116 °C"
    }
}