{
    "cas_no": "7764-29-6",
    "key_name": "2,2′-Thiobis[1<em>H</em>-isoindole-1,3(2<em>H</em>)-dione]",
    "cn_name": null,
    "alternate_name": "1<em>H</em>-Isoindole-1,3(2<em>H</em>)-dione, 2,2′-thiobis-;Phthalimide, <em>N</em>,<em>N</em>′-thiodi-;2,2′-Thiobis[1<em>H</em>-isoindole-1,3(2<em>H</em>)-dione];<em>N</em>,<em>N</em>′-Thiobisphthalimide;<em>N</em>,<em>N</em>′-Thiodiphthalimide;NSC 75099;2,2′-Thiobis(isoindoline-1,3-dione)",
    "duplicated_cas_no": "",
    "SMILES": "O=C1C=2C(C(=O)N1SN3C(=O)C=4C(C3=O)=CC=CC4)=CC=CC2",
    "meta_data": {
        "InChI": "InChI=1S/C16H8N2O4S/c19-13-9-5-1-2-6-10(9)14(20)17(13)23-18-15(21)11-7-3-4-8-12(11)16(18)22/h1-8H",
        "InChIKey": null,
        "Canonical SMILES": "O=C1C=2C=CC=CC2C(=O)N1SN3C(=O)C=4C=CC=CC4C3=O",
        "Molecular Formula": "C<sub>16</sub>H<sub>8</sub>N<sub>2</sub>O<sub>4</sub>S",
        "Molecular Mass": "324.31",
        "Melting Point": "190 °C (decomp)"
    }
}