{
    "cas_no": "67367-26-4",
    "key_name": "3-Pyridinecarboxylic acid, 2-methoxy-, methyl ester",
    "cn_name": null,
    "alternate_name": "3-Pyridinecarboxylic acid, 2-methoxy-, methyl ester;Methyl 2-methoxy-3-pyridinecarboxylate;Methyl 2-methoxynicotinate",
    "duplicated_cas_no": "",
    "SMILES": "C(OC)(=O)C1=C(OC)N=CC=C1",
    "meta_data": {
        "InChI": "InChI=1S/C8H9NO3/c1-11-7-6(8(10)12-2)4-3-5-9-7/h3-5H,1-2H3",
        "InChIKey": null,
        "Canonical SMILES": "O=C(OC)C1=CC=CN=C1OC",
        "Molecular Formula": "C<sub>8</sub>H<sub>9</sub>NO<sub>3</sub>",
        "Molecular Mass": "167.16",
        "Boiling Point": "114-115 °C @ Press: 12 Torr"
    }
}