{
    "cas_no": "2500-88-1",
    "key_name": "Dioctadecyl disulfide",
    "cn_name": "二(十八烷基)二硫醚;二(十八烷基)二硫化物;",
    "alternate_name": "Disulfide, dioctadecyl;Octadecyl disulfide;Dioctadecyl disulfide;Di-<em>n</em>-octadecyl disulfide;Hostanox SE 10;Bis(1-octadecyl) disulfide;TMSE 10;Distearyl disulfide;NSC 12046;1-(Octadecyldisulfanyl)octadecane",
    "duplicated_cas_no": "",
    "SMILES": "S(SCCCCCCCCCCCCCCCCCC)CCCCCCCCCCCCCCCCCC",
    "meta_data": {
        "InChI": "InChI=1S/C36H74S2/c1-3-5-7-9-11-13-15-17-19-21-23-25-27-29-31-33-35-37-38-36-34-32-30-28-26-24-22-20-18-16-14-12-10-8-6-4-2/h3-36H2,1-2H3",
        "InChIKey": null,
        "Canonical SMILES": "S(SCCCCCCCCCCCCCCCCCC)CCCCCCCCCCCCCCCCCC",
        "Molecular Formula": "C<sub>36</sub>H<sub>74</sub>S<sub>2</sub>",
        "Molecular Mass": "571.10",
        "Melting Point": "~60 °C (approx)"
    }
}