{
    "cas_no": "3348-44-5",
    "key_name": "Chlorobis(dimethylamino)phosphine",
    "cn_name": "双(二甲基氨)氯膦;双(二甲基氨)氯膦;",
    "alternate_name": "Phosphorodiamidous chloride, <em>N</em>,<em>N</em>,<em>N</em>′,<em>N</em>′-tetramethyl-;Phosphorodiamidous chloride, tetramethyl-;<em>N</em>,<em>N</em>,<em>N</em>′,<em>N</em>′-Tetramethylphosphorodiamidous chloride;Tetramethyldiaminochlorophosphine;Chlorobis(dimethylamino)phosphine;Tetramethylphosphorodiamidous chloride;Bis(dimethylamino)phosphorus chloride;Bis(dimethylamino)chlorophosphine;Tetramethyldiamidophosphorous chloride;[Chloro(dimethylamino)phosphanyl]dimethylamine",
    "duplicated_cas_no": "",
    "SMILES": "P(N(C)C)(N(C)C)Cl",
    "meta_data": {
        "InChI": "InChI=1S/C4H12ClN2P/c1-6(2)8(5)7(3)4/h1-4H3",
        "InChIKey": null,
        "Canonical SMILES": "ClP(N(C)C)N(C)C",
        "Molecular Formula": "C<sub>4</sub>H<sub>12</sub>ClN<sub>2</sub>P",
        "Molecular Mass": "154.58",
        "Boiling Point": "29 °C @ Press: 1 Torr",
        "Melting Point": "-33 °C",
        "Density": "1.06 g/cm³ @ Temp: 20 °C"
    }
}