{
    "cas_no": "110-05-4",
    "key_name": "<em>tert</em>-Butyl peroxide",
    "cn_name": "二叔丁基过氧化物;过氧化二叔丁基;",
    "alternate_name": "Peroxide, bis(1,1-dimethylethyl);<em>tert</em>-Butyl peroxide;Bis(1,1-dimethylethyl) peroxide;Cadox TBP;DTBP;Bis(<em>tert</em>-butyl) peroxide;Trigonox B;Perbutyl D;B 50Elq;Interox DTB;Kayabutyl D;Peroximon DB;Luperox DI;TC 4;TC 4 (catalyst);Di-<em>t</em>-butylperoxide;NSC 673;DTBP (peroxide);Peroxan DB;Di-<em>tert</em>-butyl peroxide;DTPB;TC 4N;2-(<em>tert</em>-Butylperoxy)-2-methylpropane;B 100924;TX 101;CX 2401",
    "duplicated_cas_no": "62534-71-8",
    "SMILES": "O(OC(C)(C)C)C(C)(C)C",
    "meta_data": {
        "InChI": "InChI=1S/C8H18O2/c1-7(2,3)9-10-8(4,5)6/h1-6H3",
        "InChIKey": null,
        "Canonical SMILES": "O(OC(C)(C)C)C(C)(C)C",
        "Molecular Formula": "C<sub>8</sub>H<sub>18</sub>O<sub>2</sub>",
        "Molecular Mass": "146.23",
        "Boiling Point": "111 °C",
        "Melting Point": "-40 °C",
        "Density": "0.7910 g/cm³ @ Temp: 25 °C"
    }
}