{
    "cas_no": "1491-59-4",
    "key_name": "Oxymetazoline",
    "cn_name": "羟甲唑啉;2-(3-羟基-2,6-二甲基-4-叔丁基苄基)-2-咪唑啉;6-叔丁基-3-(4,5-二氢-1H-咪唑-2-基甲基)-2,4-二甲;",
    "alternate_name": "Phenol, 3-[(4,5-dihydro-1<em>H</em>-imidazol-2-yl)methyl]-6-(1,1-dimethylethyl)-2,4-dimethyl-;Phenol, 6-<em>tert</em>-butyl-3-(2-imidazolin-2-ylmethyl)-2,4-dimethyl-;3-[(4,5-Dihydro-1<em>H</em>-imidazol-2-yl)methyl]-6-(1,1-dimethylethyl)-2,4-dimethylphenol;6-<em>tert</em>-Butyl-3-(2-imidazolin-2-ylmethyl)-2,4-dimethylphenol;Oxymethazoline;Oxymetazoline;Oxylazine;2-(4-<em>tert</em>-Butyl-2,6-dimethyl-3-hydroxybenzyl)-2-imidazoline;Navisin;Hazol;Sinerol;Nezeril;Rhinolitan;Rhinofrenol;Navasin;MeSH ID: D010109",
    "duplicated_cas_no": "",
    "SMILES": "C(C1=C(C)C(O)=C(C(C)(C)C)C=C1C)C=2NCCN2",
    "meta_data": {
        "InChI": "InChI=1S/C16H24N2O/c1-10-8-13(16(3,4)5)15(19)11(2)12(10)9-14-17-6-7-18-14/h8,19H,6-7,9H2,1-5H3,(H,17,18)",
        "InChIKey": null,
        "Canonical SMILES": "OC1=C(C(=C(C=C1C(C)(C)C)C)CC2=NCCN2)C",
        "Molecular Formula": "C<sub>16</sub>H<sub>24</sub>N<sub>2</sub>O",
        "Molecular Mass": "260.37",
        "Melting Point": "181-183 °C"
    }
}