{
    "cas_no": "4175-66-0",
    "key_name": "2,5-Dimethylthiazole",
    "cn_name": "2,5-二甲基噻唑;",
    "alternate_name": "Thiazole, 2,5-dimethyl-;2,5-Dimethylthiazole;2,5-Dimethyl-1,3-thiazole",
    "duplicated_cas_no": "",
    "SMILES": "CC=1SC(C)=NC1",
    "meta_data": {
        "InChI": "InChI=1S/C5H7NS/c1-4-3-6-5(2)7-4/h3H,1-2H3",
        "InChIKey": null,
        "Canonical SMILES": "N=1C=C(SC1C)C",
        "Molecular Formula": "C<sub>5</sub>H<sub>7</sub>NS",
        "Molecular Mass": "113.18",
        "Boiling Point": "153 °C @ Press: 758 Torr",
        "Density": "1.0280 g/cm³ @ Temp: 21 °C"
    }
}