{
    "cas_no": "76469-88-0",
    "key_name": "Benzoic acid, 4-(cyanomethyl)-, methyl ester",
    "cn_name": null,
    "alternate_name": "Benzoic acid, 4-(cyanomethyl)-, methyl ester;<em>p</em>-Toluic acid, α-cyano-, methyl ester;Methyl 4-cyanomethylbenzoate;Methyl <em>p</em>-(cyanomethyl)benzoate;Methyl α-cyano-<em>p</em>-toluate;[<em>p</em>-(Methoxycarbonyl)phenyl]acetonitrile;4-Cyanomethylbenzoic acid methyl ester",
    "duplicated_cas_no": "",
    "SMILES": "C(OC)(=O)C1=CC=C(CC#N)C=C1",
    "meta_data": {
        "InChI": "InChI=1S/C10H9NO2/c1-13-10(12)9-4-2-8(3-5-9)6-7-11/h2-5H,6H2,1H3",
        "InChIKey": null,
        "Canonical SMILES": "N#CCC1=CC=C(C=C1)C(=O)OC",
        "Molecular Formula": "C<sub>10</sub>H<sub>9</sub>NO<sub>2</sub>",
        "Molecular Mass": "175.18",
        "Boiling Point": "150-155 °C @ Press: 0.5 Torr",
        "Melting Point": "60 °C"
    }
}