{
    "cas_no": "5344-49-0",
    "key_name": "2-Chloro-6-nitrobenzoic acid",
    "cn_name": "2-氯-6-硝基苯甲酸;",
    "alternate_name": "Benzoic acid, 2-chloro-6-nitro-;2-Chloro-6-nitrobenzoic acid;1-Chloro-2-carboxy-3-nitrobenzene;NSC 1123",
    "duplicated_cas_no": "",
    "SMILES": "C(O)(=O)C1=C(N(=O)=O)C=CC=C1Cl",
    "meta_data": {
        "InChI": "InChI=1S/C7H4ClNO4/c8-4-2-1-3-5(9(12)13)6(4)7(10)11/h1-3H,(H,10,11)",
        "InChIKey": null,
        "Canonical SMILES": "O=C(O)C=1C(Cl)=CC=CC1N(=O)=O",
        "Molecular Formula": "C<sub>7</sub>H<sub>4</sub>ClNO<sub>4</sub>",
        "Molecular Mass": "201.56",
        "Melting Point": "184-185 °C"
    }
}