{
    "cas_no": "64096-87-3",
    "key_name": "Tetrahydro-2<em>H</em>-thiopyran-4-carboxylic acid 1,1-dioxide",
    "cn_name": null,
    "alternate_name": "2<em>H</em>-Thiopyran-4-carboxylic acid, tetrahydro-, 1,1-dioxide;Tetrahydro-2<em>H</em>-thiopyran-4-carboxylic acid 1,1-dioxide;1,1-Dioxohexahydrothiopyran-4-carboxylic acid;1,1-Dioxido-tetrahydro-2<em>H</em>-thiopyran-4-carboxylic acid;Tetrahydrothiopyran-4-carboxylic acid 1,1-dioxide;1,1-Dioxo-1λ6-thiane-4-carboxylic acid;1,1-Dioxotetrahydrothiopyran-4-carboxylic acid;Tetrahydro-2<em>H</em>-thiopyran-4-carboxylic acid-1,1-dioxide",
    "duplicated_cas_no": "",
    "SMILES": "C(O)(=O)C1CCS(=O)(=O)CC1",
    "meta_data": {
        "InChI": "InChI=1S/C6H10O4S/c7-6(8)5-1-3-11(9,10)4-2-5/h5H,1-4H2,(H,7,8)",
        "InChIKey": null,
        "Canonical SMILES": "O=C(O)C1CCS(=O)(=O)CC1",
        "Molecular Formula": "C<sub>6</sub>H<sub>10</sub>O<sub>4</sub>S",
        "Molecular Mass": "178.21",
        "Melting Point": "194-196 °C"
    }
}