{
    "cas_no": "615-67-8",
    "key_name": "Chlorohydroquinone",
    "cn_name": "氯氢醌;2-氯-1,4-苯二酚;2-氯-1,4-二羟基苯;",
    "alternate_name": "1,4-Benzenediol, 2-chloro-;Hydroquinone, chloro-;2-Chloro-1,4-benzenediol;Chlorohydroquinone;1,4-Dihydroxy-2-chlorobenzene;Chloroquinol;Monochlorohydroquinone;2-Chlorohydroquinone;2-Chloro-1,4-dihydroxybenzene;1-Chloro-2,5-dihydroxybenzene;Chloro-<em>p</em>-hydroquinone;2-Chloro-1,4-hydroquinone;NSC 427;NSC 5934",
    "duplicated_cas_no": "134900-92-8;140627-31-2;68103-34-4",
    "SMILES": "ClC1=C(O)C=CC(O)=C1",
    "meta_data": {
        "InChI": "InChI=1S/C6H5ClO2/c7-5-3-4(8)1-2-6(5)9/h1-3,8-9H",
        "InChIKey": null,
        "Canonical SMILES": "ClC1=CC(O)=CC=C1O",
        "Molecular Formula": "C<sub>6</sub>H<sub>5</sub>ClO<sub>2</sub>",
        "Molecular Mass": "144.56",
        "Boiling Point": "263 °C",
        "Melting Point": "100 °C"
    }
}