{
    "cas_no": "77-06-5",
    "key_name": "(+)-Gibberellic acid",
    "cn_name": "赤霉素;2,4a,7-三羟基-1-甲基-8-亚甲基赤霉-3-烯-1,10-二羧酸-1,4a-内酯;",
    "alternate_name": "Gibb-3-ene-1,10-dicarboxylic acid, 2,4a,7-trihydroxy-1-methyl-8-methylene-, 1,4a-lactone, (1α,2β,4aα,4bβ,10β)-;Gibberellin A<sub>3</sub>;Gibberellic acid;GA<sub>3</sub>;GA;Gibberellic acid GA<sub>3</sub>;Berelex;Gibreskol;Pro-Gibb Plus;Gibrescol;Pro-Gibb;TU 64-3-103-75;(+)-Gibberellin A<sub>3</sub>;Release LC;RyzUp;Ralex;(+)-Gibberellic acid;Maxon;Maxon (plant growth regulator);Activol;NSC 14190;NSC 19450;Arbostim;Grocel GA<sub>3</sub>;GibGro;Gibberellin GA<sub>3</sub>;Giberllon;Clemencuaje;ProGib;Berelex L;RyzUp SmartGrass;Release",
    "duplicated_cas_no": "1405-96-5;7121-55-3;16202-20-3;58915-44-9;192662-67-2;295313-57-4;474760-45-7;859282-71-6;1423015-91-1",
    "SMILES": "C(O)(=O)[C@H]1[C@]2([C@@]3([C@]4([C@]15C[C@@](O)(CC4)C(=C)C5)[H])OC(=O)[C@]2(C)[C@@H](O)C=C3)[H]",
    "meta_data": {
        "InChI": "InChI=1S/C19H22O6/c1-9-7-17-8-18(9,24)5-3-10(17)19-6-4-11(20)16(2,15(23)25-19)13(19)12(17)14(21)22/h4,6,10-13,20,24H,1,3,5,7-8H2,2H3,(H,21,22)/t10-,11+,12-,13-,16-,17+,18+,19-/m1/s1",
        "InChIKey": null,
        "Canonical SMILES": "O=C(O)C1C2C3(OC(=O)C2(C)C(O)C=C3)C4CCC5(O)C(=C)CC14C5",
        "Molecular Formula": "C<sub>19</sub>H<sub>22</sub>O<sub>6</sub>",
        "Molecular Mass": "346.37",
        "Melting Point": "234 °C"
    }
}