{
    "cas_no": "6626-23-9",
    "key_name": "1-(Chloromethyl)-2-methylnaphthalene",
    "cn_name": "1-氯甲基-2-甲基萘;",
    "alternate_name": "Naphthalene, 1-(chloromethyl)-2-methyl-;1-(Chloromethyl)-2-methylnaphthalene;1-Chloromethyl-2-methylnaphthalene;NSC 59830;2-Methyl-1-chloromethylnaphthalene",
    "duplicated_cas_no": "",
    "SMILES": "C(Cl)C=1C2=C(C=CC1C)C=CC=C2",
    "meta_data": {
        "InChI": "InChI=1S/C12H11Cl/c1-9-6-7-10-4-2-3-5-11(10)12(9)8-13/h2-7H,8H2,1H3",
        "InChIKey": null,
        "Canonical SMILES": "ClCC=1C=2C=CC=CC2C=CC1C",
        "Molecular Formula": "C<sub>12</sub>H<sub>11</sub>Cl",
        "Molecular Mass": "190.67",
        "Boiling Point": "125-126 °C",
        "Melting Point": "65 °C"
    }
}