{
    "cas_no": "114-33-0",
    "key_name": "<em>N</em>′-Methylnicotinamide",
    "cn_name": "N-甲基烟酰胺;",
    "alternate_name": "3-Pyridinecarboxamide, <em>N</em>-methyl-;Nicotinamide, <em>N</em>-methyl-;<em>N</em>-Methyl-3-pyridinecarboxamide;Nicotinic acid methylamide;3-(Methylcarbamoyl)pyridine;<em>N</em>-Methylnicotinamide;<em>N</em>′-Methylnicotinamide;SR 4415;3-(<em>N</em>-Methylcarbamoyl)pyridine;NSC 66521",
    "duplicated_cas_no": "",
    "SMILES": "C(NC)(=O)C=1C=CC=NC1",
    "meta_data": {
        "InChI": "InChI=1S/C7H8N2O/c1-8-7(10)6-3-2-4-9-5-6/h2-5H,1H3,(H,8,10)",
        "InChIKey": null,
        "Canonical SMILES": "O=C(NC)C=1C=NC=CC1",
        "Molecular Formula": "C<sub>7</sub>H<sub>8</sub>N<sub>2</sub>O",
        "Molecular Mass": "136.15",
        "Melting Point": "103.5 °C"
    }
}