{
    "cas_no": "78-44-4",
    "key_name": "Carisoprodol",
    "cn_name": "卡利普多;",
    "alternate_name": "Carbamic acid, <em>N</em>-(1-methylethyl)-, 2-[[(aminocarbonyl)oxy]methyl]-2-methylpentyl ester;Carbamic acid, isopropyl-, 2-(hydroxymethyl)-2-methylpentyl ester carbamate (ester);Carbamic acid, (1-methylethyl)-, 2-[[(aminocarbonyl)oxy]methyl]-2-methylpentyl ester;Carbamic acid, isopropyl-, 2-(hydroxymethyl)-2-methylpentyl ester, carbamate;Apesan;Carisoprodatum;Carisoprodol;Isomeprobamate;Isopropyl meprobamate;<em>N</em>-Isopropyl-2-methyl-2-propyl-1,3-propanediol dicarbamate;2-Methyl-2-propyl-1,3-propanediol carbamate isopropylcarbamate;Rela (carbamic acid);Soma;Somadril;Isoprothane;Carisoma;Isobamate;Carisoprodate;Caprodat;Domarax;Flexal;Flexartal;Miolisodal;Mioril;Sanoma;Somalgit;Relasom;Isoprotane;Isoprotan;Izoprotan;Skutamil;Atonalyt;Stialgin;Calenfa;Carisol;Arusal;NIH 10966;NSC 172124;MeSH ID: D002328",
    "duplicated_cas_no": "8053-63-2",
    "SMILES": "C(COC(NC(C)C)=O)(COC(N)=O)(CCC)C",
    "meta_data": {
        "InChI": "InChI=1S/C12H24N2O4/c1-5-6-12(4,7-17-10(13)15)8-18-11(16)14-9(2)3/h9H,5-8H2,1-4H3,(H2,13,15)(H,14,16)",
        "InChIKey": null,
        "Canonical SMILES": "O=C(OCC(C)(COC(=O)NC(C)C)CCC)N",
        "Molecular Formula": "C<sub>12</sub>H<sub>24</sub>N<sub>2</sub>O<sub>4</sub>",
        "Molecular Mass": "260.33",
        "Boiling Point": "160-170 °C @ Press: 2 Torr",
        "Melting Point": "92-93 °C"
    }
}