{
    "cas_no": "183288-47-3",
    "key_name": "5-(1-Piperazinyl)-2-benzofurancarboxylic acid",
    "cn_name": null,
    "alternate_name": "2-Benzofurancarboxylic acid, 5-(1-piperazinyl)-;5-(1-Piperazinyl)-2-benzofurancarboxylic acid;5-(1-Piperazinyl)benzofuran-2-carboxylic acid",
    "duplicated_cas_no": "",
    "SMILES": "C(O)(=O)C1=CC=2C(O1)=CC=C(C2)N3CCNCC3",
    "meta_data": {
        "InChI": "InChI=1S/C13H14N2O3/c16-13(17)12-8-9-7-10(1-2-11(9)18-12)15-5-3-14-4-6-15/h1-2,7-8,14H,3-6H2,(H,16,17)",
        "InChIKey": null,
        "Canonical SMILES": "O=C(O)C=1OC=2C=CC(=CC2C1)N3CCNCC3",
        "Molecular Formula": "C<sub>13</sub>H<sub>14</sub>N<sub>2</sub>O<sub>3</sub>",
        "Molecular Mass": "246.26",
        "Melting Point": "275-278.2 °C"
    }
}