{
    "cas_no": "14484-47-0",
    "key_name": "Deflazacort",
    "cn_name": "地夫可特;",
    "alternate_name": "5′<em>H</em>-Pregna-1,4-dieno[17,16-<em>d</em>]oxazole-3,20-dione, 21-(acetyloxy)-11-hydroxy-2′-methyl-, (11β,16β)-;5′β<span class=\"text-smallcaps\">H</span>-Pregna-1,4-dieno[17,16-<em>d</em>]oxazole-3,20-dione, 11β,21-dihydroxy-2′-methyl-, 21-acetate;2<em>H</em>-Naphth[2′,1′:4,5]indeno[1,2-<em>d</em>]oxazole, 5′<em>H</em>-pregna-1,4-dieno[17,16-<em>d</em>]oxazole-3,20-dione deriv.;(11β,16β)-21-(Acetyloxy)-11-hydroxy-2′-methyl-5′<em>H</em>-pregna-1,4-dieno[17,16-<em>d</em>]oxazole-3,20-dione;Deflazacort;Dezacort;Flantadin;Azacort;DL 458IT;L 5458;Lantadin;MDL 458;Deflan;Dezacor;Calcort;Oxazacort;Azacortinol;Emflaza",
    "duplicated_cas_no": "74712-90-6",
    "SMILES": "C(COC(C)=O)(=O)[C@]12[C@]3(C)[C@@](C[C@]1(OC(C)=N2)[H])([C@]4([C@]([C@@H](O)C3)([C@]5(C)C(CC4)=CC(=O)C=C5)[H])[H])[H]",
    "meta_data": {
        "InChI": "InChI=1S/C25H31NO6/c1-13-26-25(20(30)12-31-14(2)27)21(32-13)10-18-17-6-5-15-9-16(28)7-8-23(15,3)22(17)19(29)11-24(18,25)4/h7-9,17-19,21-22,29H,5-6,10-12H2,1-4H3/t17-,18-,19-,21+,22+,23-,24-,25+/m0/s1",
        "InChIKey": null,
        "Canonical SMILES": "O=C1C=CC2(C(=C1)CCC3C4CC5OC(=NC5(C(=O)COC(=O)C)C4(C)CC(O)C32)C)C",
        "Molecular Formula": "C<sub>25</sub>H<sub>31</sub>NO<sub>6</sub>",
        "Molecular Mass": "441.52",
        "Melting Point": "256 °C"
    }
}