{
    "cas_no": "7564-51-4",
    "key_name": "3-Methyl-1-phenyl-3-phospholene 1-oxide",
    "cn_name": "2,5-二氢-3-甲基-1-苯基膦-1-氧化物;",
    "alternate_name": "1<em>H</em>-Phosphole, 2,5-dihydro-3-methyl-1-phenyl-, 1-oxide;3-Phospholene, 3-methyl-1-phenyl-, 1-oxide;1-Phenyl-3-methyl-3-phospholene 1-oxide;3-Methyl-1-phenyl-3-phospholene 1-oxide;3-Methyl-1-phenyl-3-phospholene oxide;1-Phenyl-3-methyl-3-phospholene oxide;1-Phenyl-3-methyl-1-oxo-3-phospholine;(<em>RS</em>)-3-Methyl-1-phenylphospholene 1-oxide;2,5-Dihydro-3-methyl-1-phenylphosphole 1-oxide;NSC 33505;Lubio Polykat 1;2,5-Dihydro-3-methyl-1-phenyl-1<em>H</em>-phosphole 1-oxide;3-Methyl-1-phenyl-2,5-dihydro-1<em>H</em>-phosphol-1-ium-1-olate;3-Methyl-1-phenyl-2,5-dihydro-1<em>H</em>-phosphole 1-oxide;3-Methyl-1-phenyl-2,5-dihydro-1<em>H</em>-phosphole1-oxide",
    "duplicated_cas_no": "54877-61-1",
    "SMILES": "O=P1(C2=CC=CC=C2)CC(C)=CC1",
    "meta_data": {
        "InChI": "InChI=1S/C11H13OP/c1-10-7-8-13(12,9-10)11-5-3-2-4-6-11/h2-7H,8-9H2,1H3",
        "InChIKey": null,
        "Canonical SMILES": "O=P1(C=2C=CC=CC2)CC=C(C)C1",
        "Molecular Formula": "C<sub>11</sub>H<sub>13</sub>OP",
        "Molecular Mass": "192.19",
        "Boiling Point": "133-134 °C @ Press: 0.24 Torr"
    }
}