{
    "cas_no": "512-51-6",
    "key_name": "1-Ethoxy-1,1,2,2-tetrafluoroethane",
    "cn_name": "1,1,2,2-四氟乙基乙基醚;",
    "alternate_name": "Ethane, 1-ethoxy-1,1,2,2-tetrafluoro-;Ether, ethyl 1,1,2,2-tetrafluoroethyl;1-Ethoxy-1,1,2,2-tetrafluoroethane;374pcEβγ;Ethyl 1,1,2,2-tetrafluoroethyl ether;1,1,2,2-Tetrafluoroethyl ethyl ether;HFE 374pc-f;T 5202;HFE 374",
    "duplicated_cas_no": "",
    "SMILES": "C(OCC)(C(F)F)(F)F",
    "meta_data": {
        "InChI": "InChI=1S/C4H6F4O/c1-2-9-4(7,8)3(5)6/h3H,2H2,1H3",
        "InChIKey": null,
        "Canonical SMILES": "FC(F)C(F)(F)OCC",
        "Molecular Formula": "C<sub>4</sub>H<sub>6</sub>F<sub>4</sub>O",
        "Molecular Mass": "146.08",
        "Boiling Point": "57.5 °C",
        "Density": "1.1978 g/cm³ @ Temp: 2 °C"
    }
}