{
    "cas_no": "10468-90-3",
    "key_name": "3-Iodo-<span class=\"text-smallcaps\">L</span>-thyronine",
    "cn_name": null,
    "alternate_name": "<span class=\"text-smallcaps\">L</span>-Tyrosine, <em>O</em>-(4-hydroxyphenyl)-3-iodo-;Alanine, 3-[4-(<em>p</em>-hydroxyphenoxy)-3-iodophenyl]-, <span class=\"text-smallcaps\">L</span>-;<em>O</em>-(4-Hydroxyphenyl)-3-iodo-<span class=\"text-smallcaps\">L</span>-tyrosine;3-Iodo-<span class=\"text-smallcaps\">L</span>-thyronine;3-Monoiodothyronine",
    "duplicated_cas_no": "",
    "SMILES": "O(C1=C(I)C=C(C[C@@H](C(O)=O)N)C=C1)C2=CC=C(O)C=C2",
    "meta_data": {
        "InChI": "InChI=1S/C15H14INO4/c16-12-7-9(8-13(17)15(19)20)1-6-14(12)21-11-4-2-10(18)3-5-11/h1-7,13,18H,8,17H2,(H,19,20)/t13-/m0/s1",
        "InChIKey": null,
        "Canonical SMILES": "O=C(O)C(N)CC1=CC=C(OC2=CC=C(O)C=C2)C(I)=C1",
        "Molecular Formula": "C<sub>15</sub>H<sub>14</sub>INO<sub>4</sub>",
        "Molecular Mass": "399.18",
        "Melting Point": "206 °C (decomp)"
    }
}