{
    "cas_no": "693-36-7",
    "key_name": "Distearyl thiodipropionate",
    "cn_name": "硫代二丙酸双十八醇酯;硫代二丙酸二硬脂醇酯;抗氧剂DSTP;",
    "alternate_name": "Propanoic acid, 3,3′-thiobis-, 1,1′-dioctadecyl ester;Propionic acid, 3,3′-thiodi-, dioctadecyl ester;Propanoic acid, 3,3′-thiobis-, dioctadecyl ester;Distearyl thiodipropionate;Distearyl β,β′-thiodipropionate;Distearyl 3,3′-thiodipropionate;PS 802;Plastanox STDP Antioxidant;Advastab PS 802;Dioctadecyl thiodipropionate;Stearyl 3,3′-thiodipropionate;Plastanox STDP;Dioctadecyl 3,3′-thiodipropionate;Advastab 802;Distearyl β-thiodipropionate;Cyanox STDP;DSTDP;Hostanox VP-SE 2;Yoshinox DSTDP;Irganox PS 802;DSTP;Hostanox SE 2;Lusmit SS;Naugard DSTDP;Arbestab DSTDP;Sumilizer TPS;Seenox DS;Antiox S;Varox DSTDP;Thio 1;Evanstab 18;Hostanox SE 4;Irganox PS 802FL;NSC 65493;Distearyl-3,3-thiodipropionate;Negonox DSTP;Carstab DSTDP;Yoshinox DSTP;Lowinox DSTDP;PS 802FL;Irganox 802FD;Antioxidant 802;Cyanox OTDP;DSTP Yoshitomi;Irganox PS 802FD;Songnox DSTDP;Lasumit SG;Antioxidant DSTP;AO 180T;Arenox DS;Antioxidant DSTDP;Rianox DSTP;Mark DSTDP;Jyanox DSTDP;Lasmit SG",
    "duplicated_cas_no": "115863-90-6;1323-85-9;60649-48-1",
    "SMILES": "C(SCCC(OCCCCCCCCCCCCCCCCCC)=O)CC(OCCCCCCCCCCCCCCCCCC)=O",
    "meta_data": {
        "InChI": "InChI=1S/C42H82O4S/c1-3-5-7-9-11-13-15-17-19-21-23-25-27-29-31-33-37-45-41(43)35-39-47-40-36-42(44)46-38-34-32-30-28-26-24-22-20-18-16-14-12-10-8-6-4-2/h3-40H2,1-2H3",
        "InChIKey": null,
        "Canonical SMILES": "O=C(OCCCCCCCCCCCCCCCCCC)CCSCCC(=O)OCCCCCCCCCCCCCCCCCC",
        "Molecular Formula": "C<sub>42</sub>H<sub>82</sub>O<sub>4</sub>S",
        "Molecular Mass": "683.16",
        "Melting Point": "60 °C"
    }
}