{
    "cas_no": "658-07-1",
    "key_name": "2,6-Difluoro-4-nitrophenol",
    "cn_name": "2,6-二氟-4-硝基苯酚;",
    "alternate_name": "Phenol, 2,6-difluoro-4-nitro-;2,6-Difluoro-4-nitrophenol;4-Nitro-2,6-difluorophenol",
    "duplicated_cas_no": "",
    "SMILES": "N(=O)(=O)C1=CC(F)=C(O)C(F)=C1",
    "meta_data": {
        "InChI": "InChI=1S/C6H3F2NO3/c7-4-1-3(9(11)12)2-5(8)6(4)10/h1-2,10H",
        "InChIKey": null,
        "Canonical SMILES": "O=N(=O)C1=CC(F)=C(O)C(F)=C1",
        "Molecular Formula": "C<sub>6</sub>H<sub>3</sub>F<sub>2</sub>NO<sub>3</sub>",
        "Molecular Mass": "175.09",
        "Melting Point": "103-105 °C"
    }
}