{
    "cas_no": "4408-81-5",
    "key_name": "1,2-Diaminopropane-<em>N</em>,<em>N</em>,<em>N</em>′,<em>N</em>′-tetraacetic acid",
    "cn_name": "1,2-丙二胺-N,N,N\",N\"-四乙酸;1,2-丙二胺四乙酸;",
    "alternate_name": "Glycine, <em>N</em>,<em>N</em>′-(1-methyl-1,2-ethanediyl)bis[<em>N</em>-(carboxymethyl)-;Acetic acid, (propylenedinitrilo)tetra-;<em>N</em>,<em>N</em>′-(1-Methyl-1,2-ethanediyl)bis[<em>N</em>-(carboxymethyl)glycine];1,2-Diaminopropanetetraacetic acid;1,2-Propylenediaminetetraacetic acid;1,2-Diaminopropane-<em>N</em>,<em>N</em>,<em>N</em>′,<em>N</em>′-tetraacetic acid;1,2-Propylenediamine-<em>N</em>,<em>N</em>,<em>N</em>′,<em>N</em>′-tetraacetic acid;Trilon FS;(±)-1,2-Diaminopropanetetraacetic acid;<span class=\"text-smallcaps\">DL</span>-Propylenediaminetetraacetic acid;1,2-Diaminopropanetetraacetate;Dissolvine P;Methyl-EDTA;Dissolvine PDZ;Propylene-1,2-diaminetetraacetic acid;1,2-Propanediaminetetraacetic acid;MeEDTA;2,2′,2′′,2′′′-(1,2-Propanediyldinitrilo)tetraacetic acid;Propylenediamine-<em>N</em>,<em>N</em>,<em>N</em>′,<em>N</em>′-tetraacetic acid;2-[2-[Bis(carboxymethyl)amino]propyl-(carboxymethyl)amino]acetic acid",
    "duplicated_cas_no": "22991-67-9;161122-35-6",
    "SMILES": "N(C(CN(CC(O)=O)CC(O)=O)C)(CC(O)=O)CC(O)=O",
    "meta_data": {
        "InChI": "InChI=1S/C11H18N2O8/c1-7(13(5-10(18)19)6-11(20)21)2-12(3-8(14)15)4-9(16)17/h7H,2-6H2,1H3,(H,14,15)(H,16,17)(H,18,19)(H,20,21)",
        "InChIKey": null,
        "Canonical SMILES": "O=C(O)CN(CC(=O)O)CC(N(CC(=O)O)CC(=O)O)C",
        "Molecular Formula": "C<sub>11</sub>H<sub>18</sub>N<sub>2</sub>O<sub>8</sub>",
        "Molecular Mass": "306.27",
        "Melting Point": "236 °C"
    }
}