{
    "cas_no": "491-34-9",
    "key_name": "1-Methyl-1,2,3,4-tetrahydroquinoline",
    "cn_name": "1-甲基-1,2,3,4-四氢喹啉;",
    "alternate_name": "Quinoline, 1,2,3,4-tetrahydro-1-methyl-;Kairoline;1,2,3,4-Tetrahydro-1-methylquinoline;Kuzol A;1-Methyl-1,2,3,4-tetrahydroquinoline;<em>N</em>-Methyl-1,2,3,4-tetrahydroquinoline;Kairolin;1-Methyl-3,4-dihydro-2<em>H</em>-quinoline",
    "duplicated_cas_no": "",
    "SMILES": "CN1C=2C(CCC1)=CC=CC2",
    "meta_data": {
        "InChI": "InChI=1S/C10H13N/c1-11-8-4-6-9-5-2-3-7-10(9)11/h2-3,5,7H,4,6,8H2,1H3",
        "InChIKey": null,
        "Canonical SMILES": "C=1C=CC2=C(C1)N(C)CCC2",
        "Molecular Formula": "C<sub>10</sub>H<sub>13</sub>N",
        "Molecular Mass": "147.22",
        "Boiling Point": "246 °C",
        "Melting Point": "114 °C"
    }
}