{
    "cas_no": "1917-64-2",
    "key_name": "5-Methoxymethylfurfural",
    "cn_name": null,
    "alternate_name": "2-Furancarboxaldehyde, 5-(methoxymethyl)-;2-Furaldehyde, 5-(methoxymethyl)-;5-(Methoxymethyl)-2-furancarboxaldehyde;5-Methoxymethylfurfural;5-Methoxymethyl-2-furaldehyde",
    "duplicated_cas_no": "",
    "SMILES": "C(OC)C=1OC(C=O)=CC1",
    "meta_data": {
        "InChI": "InChI=1S/C7H8O3/c1-9-5-7-3-2-6(4-8)10-7/h2-4H,5H2,1H3",
        "InChIKey": null,
        "Canonical SMILES": "O=CC=1OC(=CC1)COC",
        "Molecular Formula": "C<sub>7</sub>H<sub>8</sub>O<sub>3</sub>",
        "Molecular Mass": "140.14",
        "Boiling Point": "68-70 °C @ Press: 2 Torr",
        "Melting Point": "-8 °C",
        "Density": "1.146 g/cm³ @ Temp: 17.9 °C"
    }
}