{
    "cas_no": "933-52-8",
    "key_name": "2,2,4,4-Tetramethyl-1,3-cyclobutanedione",
    "cn_name": "四甲基环丁烷1,3-二酮;四甲基-1,3-环丁炔;",
    "alternate_name": "1,3-Cyclobutanedione, 2,2,4,4-tetramethyl-;1,3-Cyclobutanedione, tetramethyl-;2,2,4,4-Tetramethyl-1,3-cyclobutanedione;Tetramethyl-1,3-cyclobutanedione;2,2,4,4-Tetramethylcyclobutanedione;Tetramethylcyclobuta-1,3-dione;NSC 46472;NSC 72172",
    "duplicated_cas_no": "",
    "SMILES": "O=C1C(C)(C)C(=O)C1(C)C",
    "meta_data": {
        "InChI": "InChI=1S/C8H12O2/c1-7(2)5(9)8(3,4)6(7)10/h1-4H3",
        "InChIKey": null,
        "Canonical SMILES": "O=C1C(C(=O)C1(C)C)(C)C",
        "Molecular Formula": "C<sub>8</sub>H<sub>12</sub>O<sub>2</sub>",
        "Molecular Mass": "140.18",
        "Boiling Point": "76.5-78.5 °C @ Press: 25 Torr",
        "Melting Point": "111.5-113.5 °C"
    }
}