{
    "cas_no": "70578-24-4",
    "key_name": "Yunaconitine",
    "cn_name": null,
    "alternate_name": "Aconitane-3,8,13,14-tetrol, 20-ethyl-1,6,16-trimethoxy-4-(methoxymethyl)-, 8-acetate 14-(4-methoxybenzoate), (1α,3α,6α,14α,16β)-;Vilmorrianine B;Isoaconitine;11a<em>H</em>-12,3,6a-Ethanylylidene-7,9-methanonaphth[2,3-<em>b</em>]azocine, aconitane-3,8,13,14-tetrol deriv.;Yunaconitine;Guayewuanine B;3α,13-Dihydroxyforesaconitine;Yunnaconitine",
    "duplicated_cas_no": "97856-17-2;1357-88-6",
    "SMILES": "O(C)[C@@H]1[C@@]23[C@]4([C@](COC)(CN(CC)[C@@]2([C@]([C@@H]4OC)([C@]5(OC(C)=O)[C@@]6([C@]3(C[C@@](O)([C@@H]6OC(=O)C7=CC=C(OC)C=C7)[C@@H](OC)C5)[H])[H])[H])[H])[C@H](O)C1)[H]",
    "meta_data": {
        "InChI": "InChI=1S/C35H49NO11/c1-8-36-16-32(17-41-3)22(38)13-23(43-5)35-21-14-33(40)24(44-6)15-34(47-18(2)37,26(29(35)36)27(45-7)28(32)35)25(21)30(33)46-31(39)19-9-11-20(42-4)12-10-19/h9-12,21-30,38,40H,8,13-17H2,1-7H3/t21-,22-,23+,24+,25-,26+,27+,28-,29-,30-,32+,33+,34-,35+/m1/s1",
        "InChIKey": null,
        "Canonical SMILES": "O=C(OC1C2C3CC1(O)C(OC)CC2(OC(=O)C)C4C(OC)C5C6(COC)CN(CC)C4C35C(OC)CC6O)C7=CC=C(OC)C=C7",
        "Molecular Formula": "C<sub>35</sub>H<sub>49</sub>NO<sub>11</sub>",
        "Molecular Mass": "659.76",
        "Melting Point": "142-144 °C"
    }
}