{
    "cas_no": "1996-88-9",
    "key_name": "Perfluorooctylethyl methacrylate",
    "cn_name": "2-(全氟辛基)乙基甲基丙烯酸酯;1,1,2,2-四氢全氟癸基甲基丙烯酸酯;",
    "alternate_name": "2-Propenoic acid, 2-methyl-, 3,3,4,4,5,5,6,6,7,7,8,8,9,9,10,10,10-heptadecafluorodecyl ester;Methacrylic acid, 3,3,4,4,5,5,6,6,7,7,8,8,9,9,10,10,10-heptadecafluorodecyl ester;1-Decanol, 3,3,4,4,5,5,6,6,7,7,8,8,9,9,10,10,10-heptadecafluoro-, methacrylate;2-(Perfluorooctyl)ethyl methacrylate;MAE 800;Viscoat 17FM;Light Ester FM 108;M 1820 (ester);M 1820;MAE 600;Fluowet MAE 600;1,1,2,2-Tetrahydroperfluorodecyl methacrylate;3,3,4,4,5,5,6,6,7,7,8,8,9,9,10,10,10-Heptadecafluorodecyl methacrylate;Cheminox FAMAC;1<em>H</em>,1<em>H</em>,2<em>H</em>,2<em>H</em>-Perfluorodecyl methacrylate;Fluowet 812MA;FMA 8;F 17MA;Fluowet MAE 800;FAMAC;Cheminox FAMAC 8;Perfluorooctylethyl methacrylate;2-Heptadecafluorooctylethyl methacrylate;3,3,4,4,5,5,6,6,7,7,8,8,9,9,10,10,10-Heptadecafluorodecyl 2-methylprop-2enoate;1<em>H</em>,1<em>H</em>,2<em>H</em>,2<em>H</em>-Heptadecafluorodecyl methacrylate;2-(Perfluorooctyl)ethyl methacylate;2-(Perfluorooctyl)ethyl methacryate;MAF 17;3-Butenoic acid, 3-methyl-, 3,3,4,4,5,5,6,6,7,7,8,8,9,9,10,10,10-heptadecafluorodecyl ester",
    "duplicated_cas_no": "119938-07-7;122197-02-8;123203-95-2;128809-13-2;140143-15-3;162953-65-3;203868-08-0;224636-16-2;270060-88-3;2922709-47-3",
    "SMILES": "C(C(C(C(C(F)(F)F)(F)F)(F)F)(F)F)(C(C(C(CCOC(C(C)=C)=O)(F)F)(F)F)(F)F)(F)F",
    "meta_data": {
        "InChI": "InChI=1S/C14H9F17O2/c1-5(2)6(32)33-4-3-7(15,16)8(17,18)9(19,20)10(21,22)11(23,24)12(25,26)13(27,28)14(29,30)31/h1,3-4H2,2H3",
        "InChIKey": null,
        "Canonical SMILES": "O=C(OCCC(F)(F)C(F)(F)C(F)(F)C(F)(F)C(F)(F)C(F)(F)C(F)(F)C(F)(F)F)C(=C)C",
        "Molecular Formula": "C<sub>14</sub>H<sub>9</sub>F<sub>17</sub>O<sub>2</sub>",
        "Molecular Mass": "532.19",
        "Boiling Point": "118-122 °C @ Press: 4 Torr",
        "Density": "1.63 g/cm³"
    }
}