{
    "cas_no": "13610-02-1",
    "key_name": "(2-Propyn-1-yloxy)benzene",
    "cn_name": "苯基炔丙基醚;",
    "alternate_name": "Benzene, (2-propyn-1-yloxy)-;Ether, phenyl 2-propynyl;Benzene, (2-propynyloxy)-;(2-Propyn-1-yloxy)benzene;Phenyl propargyl ether;3-Phenoxypropyne;(2-Propynyloxy)benzene;Propargyl phenyl ether;Phenyl 2-propynyl ether;3-Phenoxy-1-propyne;(Phenoxymethyl)acetylene;1-Phenoxy-2-propyne;(Propargyloxy)benzene;Phenyloxymethylacetylene;3-Phenyloxy-1-propyne;2-Propynyoxybenzene;1-(Prop-2-ynyloxy)benzene;1-Naphthyl propargyl ether",
    "duplicated_cas_no": "1388754-03-7;1401716-57-1",
    "SMILES": "O(CC#C)C1=CC=CC=C1",
    "meta_data": {
        "InChI": "InChI=1S/C9H8O/c1-2-8-10-9-6-4-3-5-7-9/h1,3-7H,8H2",
        "InChIKey": null,
        "Canonical SMILES": "C#CCOC=1C=CC=CC1",
        "Molecular Formula": "C<sub>9</sub>H<sub>8</sub>O",
        "Molecular Mass": "132.16",
        "Boiling Point": "98 °C @ Press: 23 Torr",
        "Melting Point": "273 °C (decomp)",
        "Density": "1.0426 g/cm³ @ Temp: 9 °C"
    }
}