{
    "cas_no": "2243-42-7",
    "key_name": "2-Phenoxybenzoic acid",
    "cn_name": "2-苯氧基苯甲酸;",
    "alternate_name": "Benzoic acid, 2-phenoxy-;Benzoic acid, <em>o</em>-phenoxy-;2-Phenoxybenzoic acid;<em>o</em>-Phenoxybenzoic acid;NSC 39656;2-(Phenyloxy)benzoic acid;2-PBA",
    "duplicated_cas_no": "",
    "SMILES": "O(C1=C(C(O)=O)C=CC=C1)C2=CC=CC=C2",
    "meta_data": {
        "InChI": "InChI=1S/C13H10O3/c14-13(15)11-8-4-5-9-12(11)16-10-6-2-1-3-7-10/h1-9H,(H,14,15)",
        "InChIKey": null,
        "Canonical SMILES": "O=C(O)C=1C=CC=CC1OC=2C=CC=CC2",
        "Molecular Formula": "C<sub>13</sub>H<sub>10</sub>O<sub>3</sub>",
        "Molecular Mass": "214.22",
        "Boiling Point": "355 °C",
        "Melting Point": "113 °C"
    }
}