{
    "cas_no": "126-98-7",
    "key_name": "Methacrylonitrile",
    "cn_name": "甲基丙烯腈;异丁烯腈;",
    "alternate_name": "2-Propenenitrile, 2-methyl-;Methacrylonitrile;2-Methyl-2-propenenitrile;Isopropene cyanide;Isopropenylnitrile;α-Methylacrylonitrile;2-Methylpropenenitrile;2-Cyano-1-propene;2-Cyanopropene;α-Methacrylonitrile;Methylacrylonitrile;2-Methylacrylonitrile;Methacrylnitrile;1-Methylethenyl cyanide;Isobutenenitrile;NSC 24145",
    "duplicated_cas_no": "",
    "SMILES": "C(C#N)(C)=C",
    "meta_data": {
        "InChI": "InChI=1S/C4H5N/c1-4(2)3-5/h1H2,2H3",
        "InChIKey": null,
        "Canonical SMILES": "N#CC(=C)C",
        "Molecular Formula": "C<sub>4</sub>H<sub>5</sub>N",
        "Molecular Mass": "67.09",
        "Boiling Point": "90.3 °C @ Press: 760 Torr",
        "Melting Point": "-35.8 °C",
        "Density": "0.8001 g/cm³ @ Temp: 20 °C"
    }
}