{
    "cas_no": "129-66-8",
    "key_name": "2,4,6-Trinitrobenzoic acid",
    "cn_name": "2,4,6-三硝基苯甲酸;",
    "alternate_name": "Benzoic acid, 2,4,6-trinitro-;2,4,6-Trinitrobenzoic acid;<em>sym</em>-Trinitrobenzoic acid;Trinitrobenzoic acid;1-Carboxy-2,4,6-trinitrobenzene;TNBA;NSC 133453;2,4,6-Trinitrophenylcarboxylic acid",
    "duplicated_cas_no": "",
    "SMILES": "C(O)(=O)C1=C(N(=O)=O)C=C(N(=O)=O)C=C1N(=O)=O",
    "meta_data": {
        "InChI": "InChI=1S/C7H3N3O8/c11-7(12)6-4(9(15)16)1-3(8(13)14)2-5(6)10(17)18/h1-2H,(H,11,12)",
        "InChIKey": null,
        "Canonical SMILES": "O=C(O)C=1C(=CC(=CC1N(=O)=O)N(=O)=O)N(=O)=O",
        "Molecular Formula": "C<sub>7</sub>H<sub>3</sub>N<sub>3</sub>O<sub>8</sub>",
        "Molecular Mass": "257.11",
        "Melting Point": "228.7 °C"
    }
}