{
    "cas_no": "74-94-2",
    "key_name": "Dimethylamine-borane",
    "cn_name": "二甲胺基甲硼烷;二甲氨基甲硼烷;二甲胺硼烷;",
    "alternate_name": "Boron, trihydro(<em>N</em>-methylmethanamine)-, (<em>T</em>-4)-;Dimethylamine, compd. with borane (1:1);Methanamine, <em>N</em>-methyl-, compd. with borane (1:1);Dimethylamine, compd. with BH<sub>3</sub>;Borane, compd. with dimethylamine (1:1);Borane, compd. with <em>N</em>-methylmethanamine (1:1);Methanamine, <em>N</em>-methyl-, boron complex;(<em>T</em>-4)-Trihydro(<em>N</em>-methylmethanamine)boron;Dimethylamine-borane;Dimethylamine compound with borane (1:1);NSC 10218;NSC 53321;(Dimethylamine)trihydroboron",
    "duplicated_cas_no": "30036-02-3;93803-04-4;811862-91-6;860392-69-4",
    "SMILES": "[B+3]([NH](C)C)([H-])([H-])[H-]",
    "meta_data": {
        "InChI": "InChI=1S/C2H10BN/c1-4(2)3/h4H,1-3H3",
        "InChIKey": null,
        "Canonical SMILES": "[H-][B+3]([H-])([H-])[NH](C)C",
        "Molecular Formula": "C<sub>2</sub>H<sub>10</sub>BN",
        "Molecular Mass": "",
        "Boiling Point": "59-60 °C @ Press: 1-2 Torr",
        "Melting Point": "36 °C"
    }
}