{
    "cas_no": "307510-92-5",
    "key_name": "CFTR(inh)-172",
    "cn_name": null,
    "alternate_name": "Benzoic acid, 4-[[4-oxo-2-thioxo-3-[3-(trifluoromethyl)phenyl]-5-thiazolidinylidene]methyl]-;4-[[4-Oxo-2-thioxo-3-[3-(trifluoromethyl)phenyl]-5-thiazolidinylidene]methyl]benzoic acid;3-[(3-Trifluoromethyl)phenyl]-5-[(4-carboxyphenyl)methylene]-2-thioxo-4-thiazolidinone;Cystic fibrosis transmembrane conductance regulator inhibitor CFTR(inh)-172;CFTR(inh)-172",
    "duplicated_cas_no": "535962-74-4",
    "SMILES": "O=C1N(C(=S)SC1=CC2=CC=C(C(O)=O)C=C2)C3=CC(C(F)(F)F)=CC=C3",
    "meta_data": {
        "InChI": "InChI=1S/C18H10F3NO3S2/c19-18(20,21)12-2-1-3-13(9-12)22-15(23)14(27-17(22)26)8-10-4-6-11(7-5-10)16(24)25/h1-9H,(H,24,25)",
        "InChIKey": null,
        "Canonical SMILES": "O=C(O)C1=CC=C(C=C1)C=C2SC(=S)N(C2=O)C3=CC=CC(=C3)C(F)(F)F",
        "Molecular Formula": "C<sub>18</sub>H<sub>10</sub>F<sub>3</sub>NO<sub>3</sub>S<sub>2</sub>",
        "Molecular Mass": "409.40",
        "Melting Point": "181-183 °C"
    }
}