{
    "cas_no": "3800-06-4",
    "key_name": "2′-Amino-4-fluorobenzophenone",
    "cn_name": "2-氨基-4\"-氟二苯甲酮;",
    "alternate_name": "Methanone, (2-aminophenyl)(4-fluorophenyl)-;Benzophenone, 2-amino-4′-fluoro-;(2-Aminophenyl)(4-fluorophenyl)methanone;<em>o</em>-(<em>p</em>-Fluorobenzoyl)aniline;2-Amino-4′-fluorobenzophenone;2-Aminophenyl 4-fluorophenyl ketone;4′-Fluoro-2-aminobenzophenone;2′-Amino-4-fluorobenzophenone;2-(4-Fluorobenzoyl)aniline",
    "duplicated_cas_no": "",
    "SMILES": "C(=O)(C1=C(N)C=CC=C1)C2=CC=C(F)C=C2",
    "meta_data": {
        "InChI": "InChI=1S/C13H10FNO/c14-10-7-5-9(6-8-10)13(16)11-3-1-2-4-12(11)15/h1-8H,15H2",
        "InChIKey": null,
        "Canonical SMILES": "O=C(C1=CC=C(F)C=C1)C=2C=CC=CC2N",
        "Molecular Formula": "C<sub>13</sub>H<sub>10</sub>FNO",
        "Molecular Mass": "215.22",
        "Melting Point": "127-128 °C"
    }
}