{
    "cas_no": "443-88-9",
    "key_name": "2-Fluoro-1,3-dimethylbenzene",
    "cn_name": "2,6-二甲基氟苯;2-氟-1,3-二甲苯;2-氟间二甲苯;",
    "alternate_name": "Benzene, 2-fluoro-1,3-dimethyl-;<em>m</em>-Xylene, 2-fluoro-;2-Fluoro-1,3-dimethylbenzene;2-Fluoro-1,3-xylene;3-Methyl-2-fluorotoluene;2-Fluoro-<em>m</em>-xylene;1-Fluoro-2,6-dimethylbenzene;1,3-Dimethyl-2-fluorobenzene;2,6-Dimethylfluorobenzene;2,6-Dimethyl-1-fluorobenzene",
    "duplicated_cas_no": "",
    "SMILES": "FC1=C(C)C=CC=C1C",
    "meta_data": {
        "InChI": "InChI=1S/C8H9F/c1-6-4-3-5-7(2)8(6)9/h3-5H,1-2H3",
        "InChIKey": null,
        "Canonical SMILES": "FC=1C(=CC=CC1C)C",
        "Molecular Formula": "C<sub>8</sub>H<sub>9</sub>F",
        "Molecular Mass": "124.16",
        "Boiling Point": "165-167 °C @ Press: 760 Torr"
    }
}