{
    "cas_no": "215303-72-3",
    "key_name": "4-[4-(4-Fluorophenyl)-1-(3-phenylpropyl)-5-(4-pyridinyl)-1<em>H</em>-imidazol-2-yl]-3-butyn-1-ol",
    "cn_name": null,
    "alternate_name": "3-Butyn-1-ol, 4-[4-(4-fluorophenyl)-1-(3-phenylpropyl)-5-(4-pyridinyl)-1<em>H</em>-imidazol-2-yl]-;4-[4-(4-Fluorophenyl)-1-(3-phenylpropyl)-5-(4-pyridinyl)-1<em>H</em>-imidazol-2-yl]-3-butyn-1-ol;RWJ 67657;4-(4-Fluorophenyl)-2-(4-hydroxy-1-butynyl)-1-(3-Phenylpropyl)-5-(4-Pyridyl)imidazole;JNJ 3026582",
    "duplicated_cas_no": "",
    "SMILES": "C(CCC1=CC=CC=C1)N2C(=C(N=C2C#CCCO)C3=CC=C(F)C=C3)C=4C=CN=CC4",
    "meta_data": {
        "InChI": "InChI=1S/C27H24FN3O/c28-24-13-11-22(12-14-24)26-27(23-15-17-29-18-16-23)31(25(30-26)10-4-5-20-32)19-6-9-21-7-2-1-3-8-21/h1-3,7-8,11-18,32H,5-6,9,19-20H2",
        "InChIKey": null,
        "Canonical SMILES": "FC1=CC=C(C=C1)C=2N=C(C#CCCO)N(C2C=3C=CN=CC3)CCCC=4C=CC=CC4",
        "Molecular Formula": "C<sub>27</sub>H<sub>24</sub>FN<sub>3</sub>O",
        "Molecular Mass": "425.50",
        "Melting Point": "124 °C"
    }
}