{
    "cas_no": "96-47-9",
    "key_name": "2-Methyltetrahydrofuran",
    "cn_name": "2-甲基四氢呋喃;",
    "alternate_name": "Furan, tetrahydro-2-methyl-;Tetrahydro-2-methylfuran;2-Methyltetrahydrofuran;Tetrahydrosylvan;MTHF;(±)-2-Methyltetrahydrofuran;NSC 2115;Viridisol M",
    "duplicated_cas_no": "74069-67-3",
    "SMILES": "CC1CCCO1",
    "meta_data": {
        "InChI": "InChI=1S/C5H10O/c1-5-3-2-4-6-5/h5H,2-4H2,1H3",
        "InChIKey": null,
        "Canonical SMILES": "O1CCCC1C",
        "Molecular Formula": "C<sub>5</sub>H<sub>10</sub>O",
        "Molecular Mass": "86.13",
        "Boiling Point": "78 °C",
        "Melting Point": "-136 °C",
        "Density": "0.9564 g/cm³ @ Temp: 18 °C"
    }
}