{
    "cas_no": "6291-84-5",
    "key_name": "<em>N</em>-Methyl-1,3-propanediamine",
    "cn_name": "N-甲基-1,3-丙二胺;3-甲氨基丙胺;N-甲基-1,3-丙二胺;",
    "alternate_name": "1,3-Propanediamine, <em>N</em><sup>1</sup>-methyl-;1,3-Propanediamine, <em>N</em>-methyl-;<em>N</em><sup>1</sup>-Methyl-1,3-propanediamine;<em>N</em>-Methyl-1,3-diaminopropane;<em>N</em>-Methyl-1,3-propanediamine;3-Amino-1-(methylamino)propane;1-Amino-3-(methylamino)propane;3-(Methylamino)propylamine;<em>N</em>-Methylpropylenediamine;<em>N</em>-Methyltrimethylenediamine;<em>N</em>-Methyl-1,3-propylenediamine;1-(<em>N</em>-Methylamino)-3-aminopropane;(3-Aminopropyl)methylamine;Koei 3306;Methylaminopropylamine;3-(Methylamino)-1-propylamine;<em>N</em><sup>1</sup>-Methylpropane-1,3-diamine;NSC 8160;<em>N</em>-(3-Aminopropyl)methylamine;<em>N</em>-(3-Aminopropyl)-<em>N</em>-methylamine;N1-Methyl-1,3-propanediamine",
    "duplicated_cas_no": "",
    "SMILES": "C(CNC)CN",
    "meta_data": {
        "InChI": "InChI=1S/C4H12N2/c1-6-4-2-3-5/h6H,2-5H2,1H3",
        "InChIKey": null,
        "Canonical SMILES": "NCCCNC",
        "Molecular Formula": "C<sub>4</sub>H<sub>12</sub>N<sub>2</sub>",
        "Molecular Mass": "88.15",
        "Boiling Point": "138-139 °C"
    }
}