{
    "cas_no": "68506-86-5",
    "key_name": "Vigabatrin",
    "cn_name": null,
    "alternate_name": "5-Hexenoic acid, 4-amino-;5-Hexenoic acid, 4-amino-, (±)-;4-Amino-5-hexenoic acid;(±)-γ-Vinyl GABA;(±)-4-Amino-5-hexenoic acid;RMI 71754;γ-Vinyl-GABA;Vigabatrin;MDL 71754;γ-Vinyl-γ-aminobutyric acid;Sabril;GVG;CPP 109;gamma-Vinyl-GABA;Kigabeq;MeSH ID: D020888",
    "duplicated_cas_no": "60643-86-9",
    "SMILES": "C(CCC(O)=O)(C=C)N",
    "meta_data": {
        "InChI": "InChI=1S/C6H11NO2/c1-2-5(7)3-4-6(8)9/h2,5H,1,3-4,7H2,(H,8,9)",
        "InChIKey": null,
        "Canonical SMILES": "O=C(O)CCC(N)C=C",
        "Molecular Formula": "C<sub>6</sub>H<sub>11</sub>NO<sub>2</sub>",
        "Molecular Mass": "129.16",
        "Melting Point": "209 °C"
    }
}