{
    "cas_no": "19498-72-7",
    "key_name": "2-Thiophenepropanol",
    "cn_name": null,
    "alternate_name": "2-Thiophenepropanol;3-(2-Thienyl)-1-propanol;3-(Thiophen-2-yl)propan-1-ol",
    "duplicated_cas_no": "",
    "SMILES": "C(CCO)C1=CC=CS1",
    "meta_data": {
        "InChI": "InChI=1S/C7H10OS/c8-5-1-3-7-4-2-6-9-7/h2,4,6,8H,1,3,5H2",
        "InChIKey": null,
        "Canonical SMILES": "OCCCC=1SC=CC1",
        "Molecular Formula": "C<sub>7</sub>H<sub>10</sub>OS",
        "Molecular Mass": "142.22",
        "Boiling Point": "188-190 °C @ Press: 3 Torr"
    }
}