{
    "cas_no": "13185-09-6",
    "key_name": "3<em>H</em>-Indazol-3-one, 1,2-dihydro-1-(phenylmethyl)-, sodium salt (1:1)",
    "cn_name": null,
    "alternate_name": "3<em>H</em>-Indazol-3-one, 1,2-dihydro-1-(phenylmethyl)-, sodium salt (1:1);1<em>H</em>-Indazol-3-ol, 1-benzyl-, sodium salt;3<em>H</em>-Indazol-3-one, 1,2-dihydro-1-(phenylmethyl)-, sodium salt;1<em>H</em>-Indazole, 1-benzyl-3-hydroxy-, sodium salt;1-Benzyl-3-hydroxy-1<em>H</em>-indazole sodium salt;1-Benzyl-3-hydroxyindazole sodium salt",
    "duplicated_cas_no": "",
    "SMILES": "C(N1C=2C(C(=O)N1)=CC=CC2)C3=CC=CC=C3.[Na]",
    "meta_data": {
        "InChI": "InChI=1S/C14H12N2O.Na/c17-14-12-8-4-5-9-13(12)16(15-14)10-11-6-2-1-3-7-11;/h1-9H,10H2,(H,15,17);",
        "InChIKey": null,
        "Canonical SMILES": "[Na].O=C1NN(C=2C=CC=CC12)CC=3C=CC=CC3",
        "Molecular Formula": "C<sub>14</sub>H<sub>12</sub>N<sub>2</sub>O.Na",
        "Molecular Mass": "",
        "Melting Point": "167-168 °C"
    }
}