{
    "cas_no": "50889-29-7",
    "key_name": "Phosphonium, (5-carboxypentyl)triphenyl-, bromide (1:1)",
    "cn_name": "5-羧基戊基-三苯基溴化磷;",
    "alternate_name": "Phosphonium, (5-carboxypentyl)triphenyl-, bromide (1:1);Phosphonium, (5-carboxypentyl)triphenyl-, bromide;(5-Carboxypentyl)triphenylphosphonium bromide",
    "duplicated_cas_no": "",
    "SMILES": "[P+](CCCCCC(O)=O)(C1=CC=CC=C1)(C2=CC=CC=C2)C3=CC=CC=C3.[Br-]",
    "meta_data": {
        "InChI": "InChI=1S/C24H25O2P.BrH/c25-24(26)19-11-4-12-20-27(21-13-5-1-6-14-21,22-15-7-2-8-16-22)23-17-9-3-10-18-23;/h1-3,5-10,13-18H,4,11-12,19-20H2;1H",
        "InChIKey": null,
        "Canonical SMILES": "[Br-].O=C(O)CCCCC[P+](C=1C=CC=CC1)(C=2C=CC=CC2)C=3C=CC=CC3",
        "Molecular Formula": "C<sub>24</sub>H<sub>26</sub>O<sub>2</sub>P.Br",
        "Molecular Mass": "",
        "Melting Point": "195-197 °C"
    }
}