{
    "cas_no": "69190-62-1",
    "key_name": "2-Butyl-4,4,5,5-tetramethyl-1,3,2-dioxaborolane",
    "cn_name": "2-丁基-4,4,5,5-四甲基-1,3,2-二杂氧戊硼酸;正丁基硼酸频哪醇酯;",
    "alternate_name": "1,3,2-Dioxaborolane, 2-butyl-4,4,5,5-tetramethyl-;2-Butyl-4,4,5,5-tetramethyl-1,3,2-dioxaborolane",
    "duplicated_cas_no": "",
    "SMILES": "CC1(C)C(C)(C)OB(CCCC)O1",
    "meta_data": {
        "InChI": "InChI=1S/C10H21BO2/c1-6-7-8-11-12-9(2,3)10(4,5)13-11/h6-8H2,1-5H3",
        "InChIKey": null,
        "Canonical SMILES": "O1B(OC(C)(C)C1(C)C)CCCC",
        "Molecular Formula": "C<sub>10</sub>H<sub>21</sub>BO<sub>2</sub>",
        "Molecular Mass": "184.08",
        "Boiling Point": "32-36 °C @ Press: 760 Torr"
    }
}