{
    "cas_no": "79-35-6",
    "key_name": "1,1-Dichloro-2,2-difluoroethene",
    "cn_name": "1,1-二氯-2,2-二氟乙烯;1,1-二氟-2,3-二氯乙烯;1,1-二氯-2,2-二氟乙烯;1,1-二氟-2,2-二氯乙烯;",
    "alternate_name": "Ethene, 1,1-dichloro-2,2-difluoro-;Ethylene, 1,1-dichloro-2,2-difluoro-;1,1-Dichloro-2,2-difluoroethene;1,1-Difluoro-2,2-dichloroethylene;Genetron 1112a;1,1-Dichlorodifluoroethylene;1,1-Dichloro-2,2-difluoroethylene;1,1-Difluoro-2,2-dichloroethene;CFC 1112a;F 1112a;R 1112a",
    "duplicated_cas_no": "",
    "SMILES": "C(=C(F)F)(Cl)Cl",
    "meta_data": {
        "InChI": "InChI=1S/C2Cl2F2/c3-1(4)2(5)6",
        "InChIKey": null,
        "Canonical SMILES": "FC(F)=C(Cl)Cl",
        "Molecular Formula": "C<sub>2</sub>Cl<sub>2</sub>F<sub>2</sub>",
        "Molecular Mass": "132.92",
        "Boiling Point": "19 °C",
        "Melting Point": "-116 °C"
    }
}