{
    "cas_no": "1806-26-4",
    "key_name": "4-<em>n</em>-Octylphenol",
    "cn_name": null,
    "alternate_name": "Phenol, 4-octyl-;Phenol, <em>p</em>-octyl-;4-Octylphenol;<em>p</em>-Octylphenol;4-<em>n</em>-Octylphenol;<em>p</em>-(<em>n</em>-Octyl)phenol",
    "duplicated_cas_no": "",
    "SMILES": "C(CCCCCCC)C1=CC=C(O)C=C1",
    "meta_data": {
        "InChI": "InChI=1S/C14H22O/c1-2-3-4-5-6-7-8-13-9-11-14(15)12-10-13/h9-12,15H,2-8H2,1H3",
        "InChIKey": null,
        "Canonical SMILES": "OC1=CC=C(C=C1)CCCCCCCC",
        "Molecular Formula": "C<sub>14</sub>H<sub>22</sub>O",
        "Molecular Mass": "206.32",
        "Boiling Point": "113-114 °C @ Press: 3 Torr",
        "Melting Point": "42-43 °C",
        "Density": "0.9421 g/cm³ @ Temp: 20 °C"
    }
}