{
    "cas_no": "1196152-51-8",
    "key_name": "Morpholine, 2-(trifluoromethyl)-, hydrochloride (1:1)",
    "cn_name": null,
    "alternate_name": "Morpholine, 2-(trifluoromethyl)-, hydrochloride (1:1);2-(Trifluoromethyl)morpholine hydrochloride",
    "duplicated_cas_no": "",
    "SMILES": "C(F)(F)(F)C1CNCCO1.Cl",
    "meta_data": {
        "InChI": "InChI=1S/C5H8F3NO.ClH/c6-5(7,8)4-3-9-1-2-10-4;/h4,9H,1-3H2;1H",
        "InChIKey": null,
        "Canonical SMILES": "Cl.FC(F)(F)C1OCCNC1",
        "Molecular Formula": "C<sub>5</sub>H<sub>8</sub>F<sub>3</sub>NO.ClH",
        "Molecular Mass": "",
        "Melting Point": "187-188 °C"
    }
}