{
    "cas_no": "1575-61-7",
    "key_name": "5-Chlorovaleryl chloride",
    "cn_name": "5-氯代戊酰氯;5-氯戊酰氯;",
    "alternate_name": "Pentanoyl chloride, 5-chloro-;Valeryl chloride, 5-chloro-;5-Chloropentanoyl chloride;5-Chlorovaleryl chloride;5-Chlorovaleroyl chloride;NSC 84182;5-Chlorovaleric acid chloride",
    "duplicated_cas_no": "",
    "SMILES": "C(CCCCl)C(Cl)=O",
    "meta_data": {
        "InChI": "InChI=1S/C5H8Cl2O/c6-4-2-1-3-5(7)8/h1-4H2",
        "InChIKey": null,
        "Canonical SMILES": "O=C(Cl)CCCCCl",
        "Molecular Formula": "C<sub>5</sub>H<sub>8</sub>Cl<sub>2</sub>O",
        "Molecular Mass": "155.02",
        "Boiling Point": "56-58 °C @ Press: 2.5 Torr"
    }
}