{
    "cas_no": "1492-30-4",
    "key_name": "<em>p</em>-Nitrophenyl palmitate",
    "cn_name": "4-硝基苯基棕榈酸酯;4-硝基苯棕榈酸酯;十六碳酸4-硝基苯酯;棕榈酸对硝基苯酯;4-硝基苯基棕榈酸酯;4-硝基苯;",
    "alternate_name": "Hexadecanoic acid, 4-nitrophenyl ester;Palmitic acid, <em>p</em>-nitrophenyl ester;<em>p</em>-Nitrophenyl palmitate;4-Nitrophenyl palmitate;<em>p</em>-Nitrophenyl hexadecanoate;4-Nitrophenyl hexadecanoate",
    "duplicated_cas_no": "",
    "SMILES": "O(C(CCCCCCCCCCCCCCC)=O)C1=CC=C(N(=O)=O)C=C1",
    "meta_data": {
        "InChI": "InChI=1S/C22H35NO4/c1-2-3-4-5-6-7-8-9-10-11-12-13-14-15-22(24)27-21-18-16-20(17-19-21)23(25)26/h16-19H,2-15H2,1H3",
        "InChIKey": null,
        "Canonical SMILES": "O=C(OC1=CC=C(C=C1)N(=O)=O)CCCCCCCCCCCCCCC",
        "Molecular Formula": "C<sub>22</sub>H<sub>35</sub>NO<sub>4</sub>",
        "Molecular Mass": "377.52",
        "Melting Point": "62-64 °C"
    }
}