{
    "cas_no": "2611-67-8",
    "key_name": "Cyanidin 3,5-diglucoside",
    "cn_name": null,
    "alternate_name": "1-Benzopyrylium, 2-(3,4-dihydroxyphenyl)-3,5-bis(β-<span class=\"text-smallcaps\">D</span>-glucopyranosyloxy)-7-hydroxy-, chloride (1:1);Cyanin;1-Benzopyrylium, 2-(3,4-dihydroxyphenyl)-3,5-bis(β-<span class=\"text-smallcaps\">D</span>-glucopyranosyloxy)-7-hydroxy-, chloride;Cyanin chloride;Cyanidol 3,5-diglucoside chloride;Cyanidin 3,5-diglucoside;3,5-Bis(glucosyloxy)-3′,4′,7-trihydroxyflavylium chloride;NSC 81163",
    "duplicated_cas_no": "1405-73-8;28986-96-1;30972-20-4;75017-04-8",
    "SMILES": "O(C=1C2=C([O+]=C(C(O[C@@H]3O[C@H](CO)[C@@H](O)[C@H](O)[C@H]3O)=C2)C4=CC(O)=C(O)C=C4)C=C(O)C1)[C@@H]5O[C@H](CO)[C@@H](O)[C@H](O)[C@H]5O.[Cl-]",
    "meta_data": {
        "InChI": "InChI=1S/C27H30O16.ClH/c28-7-17-19(33)21(35)23(37)26(42-17)40-15-5-10(30)4-14-11(15)6-16(25(39-14)9-1-2-12(31)13(32)3-9)41-27-24(38)22(36)20(34)18(8-29)43-27;/h1-6,17-24,26-29,33-38H,7-8H2,(H2-,30,31,32);1H/t17-,18-,19-,20-,21+,22+,23-,24-,26-,27-;/m1./s1",
        "InChIKey": null,
        "Canonical SMILES": "[Cl-].OC=1C=C(OC2OC(CO)C(O)C(O)C2O)C=3C=C(OC4OC(CO)C(O)C(O)C4O)C(=[O+]C3C1)C=5C=CC(O)=C(O)C5",
        "Molecular Formula": "C<sub>27</sub>H<sub>31</sub>O<sub>16</sub>.Cl",
        "Molecular Mass": "",
        "Melting Point": "203-204 °C"
    }
}