{
    "cas_no": "23747-48-0",
    "key_name": "5-Methyl-6,7-dihydro-5<em>H</em>-cyclopentapyrazine",
    "cn_name": "5-甲基-6,7-二氢-5H-环戊并吡嗪;",
    "alternate_name": "5<em>H</em>-Cyclopentapyrazine, 6,7-dihydro-5-methyl-;6,7-Dihydro-5-methyl-5<em>H</em>-cyclopentapyrazine;5-Methyl-6,7-dihydro-5<em>H</em>-cyclopentapyrazine;5-Methyl-6,7-dihydro-5<em>H</em>-cyclopentylpyrazine;5-Methyl-6,7-dihydro-5<em>H</em>-cyclopenta(<em>b</em>)pyrazine",
    "duplicated_cas_no": "149310-63-4",
    "SMILES": "CC1C=2C(=NC=CN2)CC1",
    "meta_data": {
        "InChI": "InChI=1S/C8H10N2/c1-6-2-3-7-8(6)10-5-4-9-7/h4-6H,2-3H2,1H3",
        "InChIKey": null,
        "Canonical SMILES": "N=1C=CN=C2C1CCC2C",
        "Molecular Formula": "C<sub>8</sub>H<sub>10</sub>N<sub>2</sub>",
        "Molecular Mass": "134.18",
        "Boiling Point": "66 °C @ Press: 2 Torr",
        "Melting Point": "121-123 °C"
    }
}