{
    "cas_no": "20829-97-4",
    "key_name": "6-Nitroisatoic anhydride",
    "cn_name": null,
    "alternate_name": "2<em>H</em>-3,1-Benzoxazine-2,4(1<em>H</em>)-dione, 5-nitro-;5-Nitro-2<em>H</em>-3,1-benzoxazine-2,4(1<em>H</em>)-dione;6-Nitroisatoic anhydride",
    "duplicated_cas_no": "",
    "SMILES": "N(=O)(=O)C1=C2C(NC(=O)OC2=O)=CC=C1",
    "meta_data": {
        "InChI": "InChI=1S/C8H4N2O5/c11-7-6-4(9-8(12)15-7)2-1-3-5(6)10(13)14/h1-3H,(H,9,12)",
        "InChIKey": null,
        "Canonical SMILES": "O=C1OC(=O)C=2C(=CC=CC2N(=O)=O)N1",
        "Molecular Formula": "C<sub>8</sub>H<sub>4</sub>N<sub>2</sub>O<sub>5</sub>",
        "Molecular Mass": "208.13",
        "Melting Point": "215 °C"
    }
}