{
    "cas_no": "565-59-3",
    "key_name": "2,3-Dimethylpentane",
    "cn_name": "2,3-二甲基戊烷;",
    "alternate_name": "Pentane, 2,3-dimethyl-;2,3-Dimethylpentane;3,4-Dimethylpentane;NSC 23696;(±)-2,3-Dimethylpentane",
    "duplicated_cas_no": "",
    "SMILES": "C(C(C)C)(CC)C",
    "meta_data": {
        "InChI": "InChI=1S/C7H16/c1-5-7(4)6(2)3/h6-7H,5H2,1-4H3",
        "InChIKey": null,
        "Canonical SMILES": "CCC(C)C(C)C",
        "Molecular Formula": "C<sub>7</sub>H<sub>16</sub>",
        "Molecular Mass": "100.20",
        "Boiling Point": "89.7 °C",
        "Density": "0.7117 g/cm³ @ Temp: 0 °C"
    }
}