{
    "cas_no": "621-07-8",
    "key_name": "Dibenzylhydroxylamine",
    "cn_name": "N,N-二苄基羟胺;",
    "alternate_name": "Benzenemethanamine, <em>N</em>-hydroxy-<em>N</em>-(phenylmethyl)-;Hydroxylamine, <em>N</em>,<em>N</em>-dibenzyl-;<em>N</em>-Hydroxy-<em>N</em>-(phenylmethyl)benzenemethanamine;<em>N</em>,<em>N</em>-Dibenzylhydroxylamine;Dibenzylhydroxylamine;NSC 93968;<em>N</em>-Hydroxydibenzylamine",
    "duplicated_cas_no": "",
    "SMILES": "C(N(CC1=CC=CC=C1)O)C2=CC=CC=C2",
    "meta_data": {
        "InChI": "InChI=1S/C14H15NO/c16-15(11-13-7-3-1-4-8-13)12-14-9-5-2-6-10-14/h1-10,16H,11-12H2",
        "InChIKey": null,
        "Canonical SMILES": "ON(CC=1C=CC=CC1)CC=2C=CC=CC2",
        "Molecular Formula": "C<sub>14</sub>H<sub>15</sub>NO",
        "Molecular Mass": "213.27",
        "Melting Point": "123 °C"
    }
}