{
    "cas_no": "100-76-5",
    "key_name": "Quinuclidine",
    "cn_name": "奎宁环;1,4-亚乙基哌啶;1-氮杂二环[2.2.2]辛烷;",
    "alternate_name": "1-Azabicyclo[2.2.2]octane;Quinuclidine;1,4-Ethylenepiperidine;1,4-Ethanopiperidine;ABCO;NSC 168431",
    "duplicated_cas_no": "",
    "SMILES": "C12CCN(CC1)CC2",
    "meta_data": {
        "InChI": "InChI=1S/C7H13N/c1-4-8-5-2-7(1)3-6-8/h7H,1-6H2",
        "InChIKey": null,
        "Canonical SMILES": "N12CCC(CC1)CC2",
        "Molecular Formula": "C<sub>7</sub>H<sub>13</sub>N",
        "Molecular Mass": "111.18",
        "Boiling Point": "100-105 °C @ Press: 4 Torr",
        "Melting Point": "158 °C"
    }
}