{
    "cas_no": "174669-74-0",
    "key_name": "2-Fluoro-3-pyridinol",
    "cn_name": "2-氟-3-羟基吡啶;",
    "alternate_name": "3-Pyridinol, 2-fluoro-;2-Fluoro-3-pyridinol;2-Fluoro-3-hydroxypyridine",
    "duplicated_cas_no": "",
    "SMILES": "OC1=C(F)N=CC=C1",
    "meta_data": {
        "InChI": "InChI=1S/C5H4FNO/c6-5-4(8)2-1-3-7-5/h1-3,8H",
        "InChIKey": null,
        "Canonical SMILES": "FC1=NC=CC=C1O",
        "Molecular Formula": "C<sub>5</sub>H<sub>4</sub>FNO",
        "Molecular Mass": "113.09",
        "Melting Point": "125-126 °C"
    }
}