{
    "cas_no": "139481-69-9",
    "key_name": "1<em>H</em>-Benzimidazole-7-carboxylic acid, 2-ethoxy-1-[[2′-(2<em>H</em>-tetrazol-5-yl)[1,1′-biphenyl]-4-yl]methyl]-, methyl ester",
    "cn_name": null,
    "alternate_name": "1<em>H</em>-Benzimidazole-7-carboxylic acid, 2-ethoxy-1-[[2′-(2<em>H</em>-tetrazol-5-yl)[1,1′-biphenyl]-4-yl]methyl]-, methyl ester;1<em>H</em>-Benzimidazole-7-carboxylic acid, 2-ethoxy-1-[[2′-(1<em>H</em>-tetrazol-5-yl)[1,1′-biphenyl]-4-yl]methyl]-, methyl ester;Methyl 1-[(2′-(1<em>H</em>-tetrazol-5-yl)biphenyl-4-yl)methyl]-2-ethoxybenzimidazole-7-carboxylate;Methyl 2-ethoxy-1-[[2′-(1<em>H</em>-tetrazol-5-yl)biphenyl-4-yl]methyl]benzimidazole-7-carboxylate",
    "duplicated_cas_no": "",
    "SMILES": "C(N1C=2C(N=C1OCC)=CC=CC2C(OC)=O)C3=CC=C(C=C3)C4=C(C=CC=C4)C=5NN=NN5",
    "meta_data": {
        "InChI": "InChI=1S/C25H22N6O3/c1-3-34-25-26-21-10-6-9-20(24(32)33-2)22(21)31(25)15-16-11-13-17(14-12-16)18-7-4-5-8-19(18)23-27-29-30-28-23/h4-14H,3,15H2,1-2H3,(H,27,28,29,30)",
        "InChIKey": null,
        "Canonical SMILES": "O=C(OC)C1=CC=CC=2N=C(OCC)N(C21)CC=3C=CC(=CC3)C=4C=CC=CC4C5=NN=NN5",
        "Molecular Formula": "C<sub>25</sub>H<sub>22</sub>N<sub>6</sub>O<sub>3</sub>",
        "Molecular Mass": "454.48",
        "Melting Point": "190-192 °C"
    }
}