{
    "cas_no": "993-10-2",
    "key_name": "Germane, trichloromethyl-",
    "cn_name": "三氯甲基锗;三氯甲基锗;",
    "alternate_name": "Germane, trichloromethyl-;Methylgermanium trichloride;Trichloromethylgermane;Trichloromethylgermanium;Methyltrichlorogermane;Methylgermyl trichloride",
    "duplicated_cas_no": "",
    "SMILES": "[Ge](C)(Cl)(Cl)Cl",
    "meta_data": {
        "InChI": "InChI=1S/CH3Cl3Ge/c1-5(2,3)4/h1H3",
        "InChIKey": null,
        "Canonical SMILES": "Cl[Ge](Cl)(Cl)C",
        "Molecular Formula": "CH<sub>3</sub>Cl<sub>3</sub>Ge",
        "Molecular Mass": "194.03",
        "Boiling Point": "110-111 °C",
        "Density": "1.706 g/cm³"
    }
}