{
    "cas_no": "527-75-3",
    "key_name": "Erythromycin B",
    "cn_name": null,
    "alternate_name": "Erythromycin, 12-deoxy-;Erythromycin B;12-Deoxyerythromycin;Oxacyclotetradecane, erythromycin deriv.;Berythromycin;Abbott 24091",
    "duplicated_cas_no": "34140-61-9",
    "SMILES": "O([C@@H]1[C@@H](C)[C@H](O[C@H]2C[C@](OC)(C)[C@@H](O)[C@H](C)O2)[C@@H](C)C(=O)O[C@H](CC)[C@H](C)[C@H](O)[C@@H](C)C(=O)[C@H](C)C[C@@]1(C)O)[C@H]3[C@H](O)[C@@H](N(C)C)C[C@@H](C)O3",
    "meta_data": {
        "InChI": "InChI=1S/C37H67NO12/c1-14-26-20(4)29(40)21(5)28(39)18(2)16-36(9,44)33(50-35-30(41)25(38(11)12)15-19(3)46-35)22(6)31(23(7)34(43)48-26)49-27-17-37(10,45-13)32(42)24(8)47-27/h18-27,29-33,35,40-42,44H,14-17H2,1-13H3/t18-,19-,20+,21+,22+,23-,24+,25+,26-,27+,29+,30-,31+,32+,33-,35+,36-,37-/m1/s1",
        "InChIKey": null,
        "Canonical SMILES": "O=C1OC(CC)C(C)C(O)C(C(=O)C(C)CC(O)(C)C(OC2OC(C)CC(N(C)C)C2O)C(C)C(OC3OC(C)C(O)C(OC)(C)C3)C1C)C",
        "Molecular Formula": "C<sub>37</sub>H<sub>67</sub>NO<sub>12</sub>",
        "Molecular Mass": "717.93",
        "Melting Point": "191-195 °C"
    }
}