{
    "cas_no": "36127-17-0",
    "key_name": "2-(Carbomethoxy)-3-tropinone",
    "cn_name": "2甲酯-3-托品酮;",
    "alternate_name": "8-Azabicyclo[3.2.1]octane-2-carboxylic acid, 8-methyl-3-oxo-, methyl ester;1α<span class=\"text-smallcaps\">H</smallcap>,5α<smallcap>H</span>-Tropane-2-carboxylic acid, 3-oxo-, methyl ester;2-Tropanecarboxylic acid, 3-oxo-, methyl ester;2-(Methoxycarbonyl)-3-tropanone;2-(Carbomethoxy)-3-tropinone;NSC 72911;8-Methyl-3-oxo-8-azabicyclo[3.2.1]octane-2-carboxylic acid methyl ester",
    "duplicated_cas_no": "26863-83-2;1236362-35-8;1250443-01-6",
    "SMILES": "C(OC)(=O)C1C2N(C)C(CC2)CC1=O",
    "meta_data": {
        "InChI": "InChI=1S/C10H15NO3/c1-11-6-3-4-7(11)9(8(12)5-6)10(13)14-2/h6-7,9H,3-5H2,1-2H3",
        "InChIKey": null,
        "Canonical SMILES": "O=C(OC)C1C(=O)CC2N(C)C1CC2",
        "Molecular Formula": "C<sub>10</sub>H<sub>15</sub>NO<sub>3</sub>",
        "Molecular Mass": "197.23",
        "Boiling Point": "92-95 °C @ Press: 0.3 Torr",
        "Melting Point": "~104 °C (approx)"
    }
}