{
    "cas_no": "14611-52-0",
    "key_name": "Selegiline hydrochloride",
    "cn_name": "盐酸司来吉兰;盐酸丙炔苯并胺;(R)-N,alpha-二甲基-N-(2-丙炔基)苯乙胺盐酸盐;",
    "alternate_name": "Benzeneethanamine, <em>N</em>,α-dimethyl-<em>N</em>-2-propyn-1-yl-, hydrochloride (1:1), (α<em>R</em>)-;Benzeneethanamine, <em>N</em>,α-dimethyl-<em>N</em>-2-propynyl-, hydrochloride, (<em>R</em>)-;Benzeneethanamine, <em>N</em>,α-dimethyl-<em>N</em>-2-propynyl-, hydrochloride, (α<em>R</em>)-;(-)-Deprenil hydrochloride;<em>l</em>-Deprenyl hydrochloride;(-)-Deprenyl hydrochloride;Eldepryl;Selegiline hydrochloride;Movergan;Eldeprine;Jumex;Plurimen;FP Tablet 2.5;<em>R</em>-Selegiline hydrochloride;Tonus;(<em>R</em>)-(-)-Deprenyl hydrochloride;(R)-<em>N</em>-Methyl-<em>N</em>-(1-phenylpropan-2-yl)prop-2-yn-1-amine hydrochloride",
    "duplicated_cas_no": "40602-63-9",
    "SMILES": "C([C@H](N(CC#C)C)C)C1=CC=CC=C1.Cl",
    "meta_data": {
        "InChI": "InChI=1S/C13H17N.ClH/c1-4-10-14(3)12(2)11-13-8-6-5-7-9-13;/h1,5-9,12H,10-11H2,2-3H3;1H/t12-;/m1./s1",
        "InChIKey": null,
        "Canonical SMILES": "Cl.C#CCN(C)C(C)CC=1C=CC=CC1",
        "Molecular Formula": "C<sub>13</sub>H<sub>17</sub>N.ClH",
        "Molecular Mass": "",
        "Melting Point": "141-142 °C"
    }
}