{
    "cas_no": "69770-45-2",
    "key_name": "Flumethrin",
    "cn_name": "氟氯苯菊酯;反式-3-(2-氯-2-(4-氯苯基)乙烯基)-2,2-二甲基环丙烷羧酸氰基(4-氟-3-苯氧基苯基)甲基酯;",
    "alternate_name": "Cyclopropanecarboxylic acid, 3-[2-chloro-2-(4-chlorophenyl)ethenyl]-2,2-dimethyl-, cyano(4-fluoro-3-phenoxyphenyl)methyl ester;Flumethrin;Bayticol;FCR 2769;Bayticol Pour-on;Bayvarol",
    "duplicated_cas_no": "1926170-25-3;1926170-26-4",
    "SMILES": "C(OC(C#N)C1=CC(OC2=CC=CC=C2)=C(F)C=C1)(=O)C3C(C=C(Cl)C4=CC=C(Cl)C=C4)C3(C)C",
    "meta_data": {
        "InChI": "InChI=1S/C28H22Cl2FNO3/c1-28(2)21(15-22(30)17-8-11-19(29)12-9-17)26(28)27(33)35-25(16-32)18-10-13-23(31)24(14-18)34-20-6-4-3-5-7-20/h3-15,21,25-26H,1-2H3",
        "InChIKey": null,
        "Canonical SMILES": "N#CC(OC(=O)C1C(C=C(Cl)C2=CC=C(Cl)C=C2)C1(C)C)C3=CC=C(F)C(OC=4C=CC=CC4)=C3",
        "Molecular Formula": "C<sub>28</sub>H<sub>22</sub>Cl<sub>2</sub>FNO<sub>3</sub>",
        "Molecular Mass": "510.38",
        "Melting Point": "&lt;25 °C"
    }
}