{
    "cas_no": "128-44-9",
    "key_name": "Sodium saccharin",
    "cn_name": "糖精钠;1,2-苯并异噻唑-3(2H)-酮1,1-二氧化物钠盐;",
    "alternate_name": "1,2-Benzisothiazol-3(2<em>H</em>)-one, 1,1-dioxide, sodium salt (1:1);1,2-Benzisothiazolin-3-one, 1,1-dioxide, sodium salt;1,2-Benzisothiazol-3(2<em>H</em>)-one, 1,1-dioxide, sodium salt;1,2-Benzisothiazolin-3-one, 1,1-dioxide, sodium deriv.;Saccharin, sodium deriv.;Cristallose;Crystallose;Kristallose;Saccharin sodium;Saccharin soluble;Saxin;Sodium <em>o</em>-benzosulfimide;Sodium saccharin;Sodium saccharine;Soluble saccharin;Sweeta;Sykose;Willosetten;Sodium saccharinate;1,2-Benzothiazol-3(2<em>H</em>)-one 1,1-dioxide sodium salt;Sodium saccharide;Saccharin sodium salt;<em>o</em>-Benzoylsulfimide sodium salt;Sodium <em>o</em>-sulfobenzimide;Sucram C 150;Sodium 1,1,3-trioxo-2,3-dihydro-1λ6,2-benzothiazol-2-ide;1,1-Dioxo-1,2-benzothiazole-3(2<em>H</em>)-one sodium salt",
    "duplicated_cas_no": "38279-26-4;1792234-08-2",
    "SMILES": "O=S1(=O)C=2C(C(=O)N1)=CC=CC2.[Na]",
    "meta_data": {
        "InChI": "InChI=1S/C7H5NO3S.Na/c9-7-5-3-1-2-4-6(5)12(10,11)8-7;/h1-4H,(H,8,9);",
        "InChIKey": null,
        "Canonical SMILES": "[Na].O=C1NS(=O)(=O)C=2C=CC=CC12",
        "Molecular Formula": "C<sub>7</sub>H<sub>5</sub>NO<sub>3</sub>S.Na",
        "Molecular Mass": "",
        "Melting Point": "120 °C"
    }
}