{
    "cas_no": "4285-42-1",
    "key_name": "<em>N</em>-Methyl-<em>N</em>-phenylcarbamic chloride",
    "cn_name": "N-甲基-N-苯基氨基甲酰氯;N-甲基-N-苯基氨基甲酰氯;",
    "alternate_name": "Carbamic chloride, <em>N</em>-methyl-<em>N</em>-phenyl-;Carbaniloyl chloride, <em>N</em>-methyl-;Carbamic chloride, methylphenyl-;<em>N</em>-Methyl-<em>N</em>-phenylcarbamic chloride;Methylphenylcarbamoyl chloride;<em>N</em>-Methyl-<em>N</em>-phenylcarbamoyl chloride;<em>N</em>-Methyl-<em>N</em>-phenylcarbamic acid chloride;NSC 165671;(Methyl)phenylcarbamic chloride",
    "duplicated_cas_no": "1301139-25-2",
    "SMILES": "N(C(Cl)=O)(C)C1=CC=CC=C1",
    "meta_data": {
        "InChI": "InChI=1S/C8H8ClNO/c1-10(8(9)11)7-5-3-2-4-6-7/h2-6H,1H3",
        "InChIKey": null,
        "Canonical SMILES": "O=C(Cl)N(C=1C=CC=CC1)C",
        "Molecular Formula": "C<sub>8</sub>H<sub>8</sub>ClNO",
        "Molecular Mass": "169.61",
        "Boiling Point": "280 °C",
        "Melting Point": "88.5 °C"
    }
}