{
    "cas_no": "51123-09-2",
    "key_name": "5-Amino-<em>N</em>-ethyl-2-methyl-<em>N</em>-phenylbenzenesulfonamide",
    "cn_name": "2-甲基-5-氨基-N-乙基苯磺酰苯胺;",
    "alternate_name": "Benzenesulfonamide, 5-amino-<em>N</em>-ethyl-2-methyl-<em>N</em>-phenyl-;5-Amino-<em>N</em>-ethyl-2-methyl-<em>N</em>-phenylbenzenesulfonamide;5-Amino-<em>N</em>-ethyl-2-toluenesulfonanilide;NSC 84161",
    "duplicated_cas_no": "",
    "SMILES": "S(N(CC)C1=CC=CC=C1)(=O)(=O)C2=C(C)C=CC(N)=C2",
    "meta_data": {
        "InChI": "InChI=1S/C15H18N2O2S/c1-3-17(14-7-5-4-6-8-14)20(18,19)15-11-13(16)10-9-12(15)2/h4-11H,3,16H2,1-2H3",
        "InChIKey": null,
        "Canonical SMILES": "O=S(=O)(C1=CC(N)=CC=C1C)N(C=2C=CC=CC2)CC",
        "Molecular Formula": "C<sub>15</sub>H<sub>18</sub>N<sub>2</sub>O<sub>2</sub>S",
        "Molecular Mass": "290.38",
        "Melting Point": "108 °C"
    }
}