{
    "cas_no": "1255-49-8",
    "key_name": "Testosterone phenylpropionate",
    "cn_name": "苯丙酸睾酮;",
    "alternate_name": "Androst-4-en-3-one, 17-(1-oxo-3-phenylpropoxy)-, (17β)-;Testosterone, hydrocinnamate;Hydrocinnamic acid, ester with testosterone;(17β)-17-(1-Oxo-3-phenylpropoxy)androst-4-en-3-one;Hydrocinnamic acid, testosterone ester;Testosterone phenylpropionate;3-Oxoandrost-4-en-17β-yl β-phenylpropionate;Testosterone 17-phenylpropionate;Retandrol;Testosterone phenpropionate;Androject;NSC 26643;Testosterone phenylpropanoate",
    "duplicated_cas_no": "",
    "SMILES": "C[C@@]12[C@@]3([C@]([C@]4([C@](C)(CC3)[C@@H](OC(CCC5=CC=CC=C5)=O)CC4)[H])(CCC1=CC(=O)CC2)[H])[H]",
    "meta_data": {
        "InChI": "InChI=1S/C28H36O3/c1-27-16-14-21(29)18-20(27)9-10-22-23-11-12-25(28(23,2)17-15-24(22)27)31-26(30)13-8-19-6-4-3-5-7-19/h3-7,18,22-25H,8-17H2,1-2H3/t22-,23-,24-,25-,27-,28-/m0/s1",
        "InChIKey": null,
        "Canonical SMILES": "O=C(OC1CCC2C3CCC4=CC(=O)CCC4(C)C3CCC12C)CCC=5C=CC=CC5",
        "Molecular Formula": "C<sub>28</sub>H<sub>36</sub>O<sub>3</sub>",
        "Molecular Mass": "420.58",
        "Melting Point": "116.5 °C"
    }
}