{
    "cas_no": "74494-52-3",
    "key_name": "3-Piperidineacetic acid",
    "cn_name": null,
    "alternate_name": "3-Piperidineacetic acid;NSC 138735;(Piperidin-3-yl)acetic acid;2-(Piperidin-3-yl)acetic acid",
    "duplicated_cas_no": "",
    "SMILES": "C(C(O)=O)C1CCCNC1",
    "meta_data": {
        "InChI": "InChI=1S/C7H13NO2/c9-7(10)4-6-2-1-3-8-5-6/h6,8H,1-5H2,(H,9,10)",
        "InChIKey": null,
        "Canonical SMILES": "O=C(O)CC1CNCCC1",
        "Molecular Formula": "C<sub>7</sub>H<sub>13</sub>NO<sub>2</sub>",
        "Molecular Mass": "143.18",
        "Melting Point": "276-278 °C"
    }
}