{
    "cas_no": "824-42-0",
    "key_name": "3-Methylsalicylaldehyde",
    "cn_name": "2-羟基-3-甲基苯甲醛;",
    "alternate_name": "Benzaldehyde, 2-hydroxy-3-methyl-;2,3-Cresotaldehyde;2-Hydroxy-3-methylbenzaldehyde;<em>o</em>-Homosalicylaldehyde;3-Methylsalicylaldehyde;2-Hydroxy-<em>m</em>-tolualdehyde;3-Methyl-2-hydroxybenzaldehyde",
    "duplicated_cas_no": "",
    "SMILES": "C(=O)C1=C(O)C(C)=CC=C1",
    "meta_data": {
        "InChI": "InChI=1S/C8H8O2/c1-6-3-2-4-7(5-9)8(6)10/h2-5,10H,1H3",
        "InChIKey": null,
        "Canonical SMILES": "O=CC1=CC=CC(=C1O)C",
        "Molecular Formula": "C<sub>8</sub>H<sub>8</sub>O<sub>2</sub>",
        "Molecular Mass": "136.15",
        "Boiling Point": "55-57 °C @ Press: 1 Torr",
        "Melting Point": "17 °C"
    }
}