{
    "cas_no": "3184-13-2",
    "key_name": "Ornithine hydrochloride",
    "cn_name": "L-鸟氨酸盐酸盐;L-2,5-二氨基戊酸盐酸盐;",
    "alternate_name": "<span class=\"text-smallcaps\">L</span>-Ornithine, hydrochloride (1:1);Ornithine, monohydrochloride, <span class=\"text-smallcaps\">L</span>-;<span class=\"text-smallcaps\">L</span>-Ornithine, monohydrochloride;<span class=\"text-smallcaps\">L</span>-Ornithine hydrochloride;Ornithine hydrochloride;Ornithine monohydrochloride;<span class=\"text-smallcaps\">L</span>-(+)-Ornithine monohydrochloride;(<em>S</em>)-2,5-Diaminopentanoic acid hydrochloride",
    "duplicated_cas_no": "68274-41-9",
    "SMILES": "[C@@H](C(O)=O)(CCCN)N.Cl",
    "meta_data": {
        "InChI": "InChI=1S/C5H12N2O2.ClH/c6-3-1-2-4(7)5(8)9;/h4H,1-3,6-7H2,(H,8,9);1H/t4-;/m0./s1",
        "InChIKey": null,
        "Canonical SMILES": "Cl.O=C(O)C(N)CCCN",
        "Molecular Formula": "C<sub>5</sub>H<sub>12</sub>N<sub>2</sub>O<sub>2</sub>.ClH",
        "Molecular Mass": "",
        "Melting Point": "225 °C",
        "Density": "1.413 g/cm³"
    }
}