{
    "cas_no": "6959-71-3",
    "key_name": "3-Butoxypropanenitrile",
    "cn_name": "3-丁氧基丙腈;3-正丁氧基丙腈;",
    "alternate_name": "Propanenitrile, 3-butoxy-;Propionitrile, 3-butoxy-;3-Butoxypropanenitrile;3-Butoxypropionitrile;β-Butoxypropionitrile;NSC 65452",
    "duplicated_cas_no": "",
    "SMILES": "O(CCCC)CCC#N",
    "meta_data": {
        "InChI": "InChI=1S/C7H13NO/c1-2-3-6-9-7-4-5-8/h2-4,6-7H2,1H3",
        "InChIKey": null,
        "Canonical SMILES": "N#CCCOCCCC",
        "Molecular Formula": "C<sub>7</sub>H<sub>13</sub>NO",
        "Molecular Mass": "127.18",
        "Boiling Point": "170-172 °C @ Press: 750 Torr",
        "Density": "0.8616 g/cm³"
    }
}