{
    "cas_no": "139-40-2",
    "key_name": "Propazine",
    "cn_name": "扑灭津;6-氯-N2,N4-二异丙基-1,3,5-三嗪-2,4-二胺;",
    "alternate_name": "1,3,5-Triazine-2,4-diamine, 6-chloro-<em>N</em><sup>2</sup>,<em>N</em><sup>4</sup>-bis(1-methylethyl)-;<em>s</em>-Triazine, 2-chloro-4,6-bis(isopropylamino)-;1,3,5-Triazine-2,4-diamine, 6-chloro-<em>N</em>,<em>N</em>′-bis(1-methylethyl)-;6-Chloro-<em>N</em><sup>2</sup>,<em>N</em><sup>4</sup>-bis(1-methylethyl)-1,3,5-triazine-2,4-diamine;G 30028;Geigy 30,028;2,4-Bis(isopropylamino)-6-chloro-<em>s</em>-triazine;2-Chloro-4,6-bis(isopropylamino)-<em>s</em>-triazine;2-Chloro-4,6-bis(isopropylamino)-1,3,5-triazine;Plantulin;Propazin;Propazine;Propazine (herbicide);Propasin;Gesamil;2-Chloro-4-isopropylamino-6-isopropylamino-<em>s</em>-triazine;Milogard;<em>s</em>-Bis(isopropylamino)chlorotriazine;Primatol P;Prozinex;NSC 26002;2,4-Bis[(1-methylethyl)amino]-6-chloro-<em>s</em>-triazine;2,4-Bis(isopropylamino)-6-chloro-1,3,5-triazine",
    "duplicated_cas_no": "",
    "SMILES": "N(C(C)C)C=1N=C(NC(C)C)N=C(Cl)N1",
    "meta_data": {
        "InChI": "InChI=1S/C9H16ClN5/c1-5(2)11-8-13-7(10)14-9(15-8)12-6(3)4/h5-6H,1-4H3,(H2,11,12,13,14,15)",
        "InChIKey": null,
        "Canonical SMILES": "ClC=1N=C(N=C(N1)NC(C)C)NC(C)C",
        "Molecular Formula": "C<sub>9</sub>H<sub>16</sub>ClN<sub>5</sub>",
        "Molecular Mass": "229.71",
        "Melting Point": "229.7 °C",
        "Density": "1.162 g/cm³ @ Temp: 20 °C"
    }
}