{
    "cas_no": "7704-34-9",
    "key_name": "Sulfur",
    "cn_name": "硫磺;升华硫;硫;",
    "alternate_name": "Sulfur;Bensulfoid;Brimstone;Colloidal sulfur;Flowers of sulphur;Ground vocle sulphur;Precipitated sulfur;Precipitated sulphur;Sublimed sulfur;Sublimed sulphur;Sulfidal;Sulphur;Cosan;Kolo 100;Thiovit;Ultra Sulfur;Elosal;Sulfur ointment;Atomic sulfur;Micowetsulf;Sulfur atom;Sultaf;Sulfex;Asulfa-Supra;Cosan 80;Sufran;Sufran D;Polsulkol Extra;Sulikol;Shreesul;Hexasul;Wettasul;Microthiol;Sulikol K;Wetsulf;Microsulf;Devisulphur;Kumulus FL;Kumulus;Thiozol;Thiosol;Tiozol 80;Sulfur element;Sickosul;Crystex;Agri-Sul;Sofril;Sulflox;Magnetic 6;Dispersul;Sulphex;Sira;Gofrativ;Siarkol Extra;Tiovit;Thiovit S;Flowers of sulfur;Thiolux;Mylox;MXP;Lansul;Spersul;Midas 101;DN Neosulphur W;Heliosoufre;Rhenogran S 80;Sanfel EX;Bostex 410;Microthiol Special;RM 98D;Polsinex N;Polsinex 20;Polsinex 33;Crystex OT 33;Crystex HD-OT 20;Crystex OT 20;Crystex HS-OT 20;Thiozol 80;Seymezal;IS 90;Crystex N;Sulfur soap;Sastid;Liquamat;Ultrasofril;Sulfur 80;SulFer95;Sulfoconcentrol;IS 7020;IS-HS 7020;IS 6033;IS-HS 6033;IS 60 (sulfur);IS 60;Sulfax PMC;Sulfax A;Sulfax PMG;IS 60/G;Struktol SU 109;Sumpor;Tiger 90;Tiger 90J;Microthiol Disperss;PMC;Mu-cron OT;Midas 105;Mitex-S;Cosavet;Share;RS 6033;Mahadhan Bensulf;Thiovit Jet;Sulfax 200S;HS-OT 20;Seimi Sulfur;Hosoi 200;SU 135-75;Mu-cron OT-F;MC 98;RM;OT 20;Z Sulfur;Microsulfo;IS 6030;Sulfax T 10;S 80;S 80 (sulfur);Micronite;EC(RM-S) 80;Durasul;Sulfax PS;IS 75;Mu-cron HS-OT 20;GSS;S 9990;Mu-cron OT 20;Sulfax 5;Wettasul 80;IS 6005;HD-OT 20;RM 104G;Rubermaker's Sulfur 104G;Safer Garden Sulfur;Kumulus DF;Thioben 90;Gold Flower;Sulfur SC;PTC (sulfur);Cosavet Fertis;Necator;Seimi OT;OT 10;OT 10 (sulfur);HK 200-5;Struktol SU 135;Rhenogran IS 60-75;SU 120;SU 120 (sulfur);Soufre H 10;H 10;IS-HS 7520;IS-OT 20;HIS 7020;Golden Flower;IS 6010;Kumulus S;Sulfax PN;PTC;Suprotex SGL;Crystex Sulfur;S 801 (sulfur);IS 80;Delmite;Crystex HS;Bostex 378;Alphagran S 80;HDOT 20;Rhenogran IS 90-65;HD 7020;SU 95AF;S 80GE;Rhenocure IS 90-20;HK 200-1;Jinghuang SS 400;SS 400;Avosulf IS 75S;IS 75/G;AMS 120;DOT 7020;Midas SP 325;Multisperse S-IS 70P;Midas SP 100;Deosulf L 95;HDOT 20-80;Tiowetting DF;95C;S 200-10S;IS 7520;IS 70;S 90;ITSO 20;SS 200-5;VVO 74;IRM 31;S 200;IS-HS 8010;HDOT 10;Rhenogran S 80E;sulfur;Transcure S 50;Transcure S 60;Disperacc Sulphur 60;Sanmix S 80N;Octocure 590;Struktol SU 95;MeSH ID: D013455;OT 20HS;Rhenocure IS 90P;AKM-GE F 200;Crystex HT-OT 20;IS 8010;Hansun S 80GEF150;S 80GEF150",
    "duplicated_cas_no": "7782-45-8;8050-82-6;12673-82-4;12684-31-0;12767-24-7;56449-52-6;56591-09-4;56645-30-8;57035-13-9;63705-05-5;81032-32-8;97124-07-7;1251749-91-3;1819329-88-8",
    "SMILES": "[S]",
    "meta_data": {
        "InChI": "InChI=1S/S",
        "InChIKey": null,
        "Canonical SMILES": "[S]",
        "Molecular Formula": "S",
        "Molecular Mass": "",
        "Boiling Point": "444.6 °C",
        "Melting Point": "112.8-120 °C",
        "Density": "2.1 g/cm³"
    }
}