{
    "cas_no": "483-18-1",
    "key_name": "(-)-Emetine",
    "cn_name": "依米丁;",
    "alternate_name": "2<em>H</em>-Benzo[<em>a</em>]quinolizine, 3-ethyl-1,3,4,6,7,11b-hexahydro-9,10-dimethoxy-2-[[(1<em>R</em>)-1,2,3,4-tetrahydro-6,7-dimethoxy-1-isoquinolinyl]methyl]-, (2<em>S</em>,3<em>R</em>,11b<em>S</em>)-;Emetine;Emetan, 6′,7′,10,11-tetramethoxy-;(2<em>S</em>,3<em>R</em>,11b<em>S</em>)-3-Ethyl-1,3,4,6,7,11b-hexahydro-9,10-dimethoxy-2-[[(1<em>R</em>)-1,2,3,4-tetrahydro-6,7-dimethoxy-1-isoquinolinyl]methyl]-2<em>H</em>-benzo[<em>a</em>]quinolizine;(-)-Emetine;NSC 33669;Emetin;Cephaeline methyl ether;MeSH ID: D004640",
    "duplicated_cas_no": "602-59-5;24377-67-1;888715-16-0",
    "SMILES": "C([C@H]1C[C@]2(C=3C(=CC(OC)=C(OC)C3)CCN2C[C@@H]1CC)[H])[C@@H]4C=5C(=CC(OC)=C(OC)C5)CCN4",
    "meta_data": {
        "InChI": "InChI=1S/C29H40N2O4/c1-6-18-17-31-10-8-20-14-27(33-3)29(35-5)16-23(20)25(31)12-21(18)11-24-22-15-28(34-4)26(32-2)13-19(22)7-9-30-24/h13-16,18,21,24-25,30H,6-12,17H2,1-5H3/t18-,21-,24+,25-/m0/s1",
        "InChIKey": null,
        "Canonical SMILES": "O(C=1C=C2C(=CC1OC)C(NCC2)CC3CC4C5=CC(OC)=C(OC)C=C5CCN4CC3CC)C",
        "Molecular Formula": "C<sub>29</sub>H<sub>40</sub>N<sub>2</sub>O<sub>4</sub>",
        "Molecular Mass": "480.64",
        "Melting Point": "74 °C"
    }
}