{
    "cas_no": "10152-76-8",
    "key_name": "Allyl methyl sulfide",
    "cn_name": "甲基烯丙基硫醚;烯丙基甲基硫醚;",
    "alternate_name": "1-Propene, 3-(methylthio)-;Sulfide, allyl methyl;3-(Methylthio)-1-propene;Allyl methyl sulfide;Methyl allyl sulfide;3-(Methylthio)propene;Methyl 2-propenyl sulfide;2-Propenyl methyl sulfide;Allyl methyl thioether;1-(Methylthio)-2-propene;Methyl allyl thioether;3-Methylsulfanylprop-1-ene",
    "duplicated_cas_no": "",
    "SMILES": "C(C=C)SC",
    "meta_data": {
        "InChI": "InChI=1S/C4H8S/c1-3-4-5-2/h3H,1,4H2,2H3",
        "InChIKey": null,
        "Canonical SMILES": "S(C)CC=C",
        "Molecular Formula": "C<sub>4</sub>H<sub>8</sub>S",
        "Molecular Mass": "88.17",
        "Boiling Point": "92 °C",
        "Density": "0.8767 g/cm³ @ Temp: 20 °C"
    }
}