{
    "cas_no": "501-36-0",
    "key_name": "Resveratrol",
    "cn_name": "白藜芦醇;芪三酚;3,4\",5-三羟基芪;(E)-5-[2-(4-羟苯基)-乙烯基]-1,3-苯二酚;",
    "alternate_name": "1,3-Benzenediol, 5-[(1<em>E</em>)-2-(4-hydroxyphenyl)ethenyl]-;3,4′,5-Stilbenetriol;Resveratrol;1,3-Benzenediol, 5-[2-(4-hydroxyphenyl)ethenyl]-, (<em>E</em>)-;5-[(1<em>E</em>)-2-(4-Hydroxyphenyl)ethenyl]-1,3-benzenediol;<em>trans</em>-Resveratrol;(<em>E</em>)-5-(<em>p</em>-Hydroxystyryl)resorcinol;(<em>E</em>)-Resveratrol;CA 1201;3,4′,5-Trihydroxy-<em>trans</em>-stilbene;(<em>E</em>)-2-(3,5-Dihydroxyphenyl)-1-(4-hydroxyphenyl)ethene;(<em>E</em>)-3,4′,5-Trihydroxystilbene;Resvida;Vineatrol 20M;Resveratrol P 5;<em>trans</em>-3,5,4′-Trihydroxystilbene;SRT 501M;SRT 501;Melinjo Resveratrol 20;Biofort;Polygonin;Cuspidatin;3,4′,5-Trihydroxystilbene;Regu-Fade",
    "duplicated_cas_no": "1400-97-1;31100-06-8;1337923-22-4;2227028-63-7",
    "SMILES": "C(=C/C1=CC=C(O)C=C1)\\C2=CC(O)=CC(O)=C2",
    "meta_data": {
        "InChI": "InChI=1S/C14H12O3/c15-12-5-3-10(4-6-12)1-2-11-7-13(16)9-14(17)8-11/h1-9,15-17H/b2-1+",
        "InChIKey": null,
        "Canonical SMILES": "OC1=CC=C(C=C1)C=CC=2C=C(O)C=C(O)C2",
        "Molecular Formula": "C<sub>14</sub>H<sub>12</sub>O<sub>3</sub>",
        "Molecular Mass": "228.24",
        "Melting Point": "254 °C"
    }
}