{
    "cas_no": "112809-25-3",
    "key_name": "4-(1<em>H</em>-1,2,4-Triazol-1-ylmethyl)benzonitrile",
    "cn_name": "4-(1H-1,2,4-三唑-1-基甲基)苯甲腈;",
    "alternate_name": "Benzonitrile, 4-(1<em>H</em>-1,2,4-triazol-1-ylmethyl)-;4-(1<em>H</em>-1,2,4-Triazol-1-ylmethyl)benzonitrile;4-1-(1,2,4-Triazolyl)-methyl-benzonitrile;4-[(1<em>H</em>-1,2,4-Triazol-1-yl)methyl]benzonitrile;4-2[1-(1,2,4-Triazol-1-yl)methyl]benzonitrile;1-(4-Cyanobenzyl)-1,2,4-triazole;4-[(1,2,4-Triazol-1-yl)methyl]benzonitrile",
    "duplicated_cas_no": "",
    "SMILES": "C(C1=CC=C(C#N)C=C1)N2C=NC=N2",
    "meta_data": {
        "InChI": "InChI=1S/C10H8N4/c11-5-9-1-3-10(4-2-9)6-14-8-12-7-13-14/h1-4,7-8H,6H2",
        "InChIKey": null,
        "Canonical SMILES": "N#CC1=CC=C(C=C1)CN2N=CN=C2",
        "Molecular Formula": "C<sub>10</sub>H<sub>8</sub>N<sub>4</sub>",
        "Molecular Mass": "184.20",
        "Melting Point": "108-110 °C"
    }
}