{
    "cas_no": "74258-86-9",
    "key_name": "Alacepril",
    "cn_name": "阿拉普利;2-[[1-(3-乙酰硫基-2-甲基丙酰基)吡咯烷-2-甲酰]氨基]-3-苯丙酸;",
    "alternate_name": "<span class=\"text-smallcaps\">L</smallcap>-Phenylalanine, 1-[(2<em>S</em>)-3-(acetylthio)-2-methyl-1-oxopropyl]-<smallcap>L</span>-prolyl-;<span class=\"text-smallcaps\">L</smallcap>-Phenylalanine, <em>N</em>-[1-[3-(acetylthio)-2-methyl-1-oxopropyl]-<smallcap>L</span>-prolyl]-, (<em>S</em>)-;1-[(2<em>S</em>)-3-(Acetylthio)-2-methyl-1-oxopropyl]-<span class=\"text-smallcaps\">L</smallcap>-prolyl-<smallcap>L</span>-phenylalanine;DU 1219;Alacepril;Cetapril",
    "duplicated_cas_no": "",
    "SMILES": "C([C@@H](CSC(C)=O)C)(=O)N1[C@H](C(N[C@@H](CC2=CC=CC=C2)C(O)=O)=O)CCC1",
    "meta_data": {
        "InChI": "InChI=1S/C20H26N2O5S/c1-13(12-28-14(2)23)19(25)22-10-6-9-17(22)18(24)21-16(20(26)27)11-15-7-4-3-5-8-15/h3-5,7-8,13,16-17H,6,9-12H2,1-2H3,(H,21,24)(H,26,27)/t13-,16+,17+/m1/s1",
        "InChIKey": null,
        "Canonical SMILES": "O=C(SCC(C(=O)N1CCCC1C(=O)NC(C(=O)O)CC=2C=CC=CC2)C)C",
        "Molecular Formula": "C<sub>20</sub>H<sub>26</sub>N<sub>2</sub>O<sub>5</sub>S",
        "Molecular Mass": "406.50",
        "Melting Point": "155-156 °C"
    }
}