{
    "cas_no": "57054-86-1",
    "key_name": "5-Bromo-2-chloro-<em>N</em>,<em>N</em>-dimethyl-4-pyrimidinamine",
    "cn_name": null,
    "alternate_name": "4-Pyrimidinamine, 5-bromo-2-chloro-<em>N</em>,<em>N</em>-dimethyl-;5-Bromo-2-chloro-<em>N</em>,<em>N</em>-dimethyl-4-pyrimidinamine;(5-Bromo-2-chloropyrimidin-4-yl)dimethylamine;5-Bromo-2-chloro-<em>N</em>,<em>N</em>-dimethylpyrimidin-4-amine",
    "duplicated_cas_no": "",
    "SMILES": "N(C)(C)C=1C(Br)=CN=C(Cl)N1",
    "meta_data": {
        "InChI": "InChI=1S/C6H7BrClN3/c1-11(2)5-4(7)3-9-6(8)10-5/h3H,1-2H3",
        "InChIKey": null,
        "Canonical SMILES": "ClC1=NC=C(Br)C(=N1)N(C)C",
        "Molecular Formula": "C<sub>6</sub>H<sub>7</sub>BrClN<sub>3</sub>",
        "Molecular Mass": "236.50",
        "Melting Point": "62-64 °C"
    }
}