{
    "cas_no": "473-34-7",
    "key_name": "Dichloramine-T",
    "cn_name": "N,N-二氯对甲苯磺酰胺;",
    "alternate_name": "Benzenesulfonamide, <em>N</em>,<em>N</em>-dichloro-4-methyl-;Dichloramine-T;<em>p</em>-Toluenesulfonamide, <em>N</em>,<em>N</em>-dichloro-;<em>N</em>,<em>N</em>-Dichloro-4-methylbenzenesulfonamide;<em>N</em>,<em>N</em>-Dichloro-<em>p</em>-toluenesulfonamide;Benzyl <em>p</em>-sulfondichloramide;Peraktivin;<em>N</em>,<em>N</em>-Dichloro-<em>p</em>-methylbenzenesulfonamide;<em>N</em>,<em>N</em>-Dichloro-<em>p</em>-tolylsulfonamide;<em>N</em>,<em>N</em>-Dichloro-4-toluenesulfonamide;NSC 1130",
    "duplicated_cas_no": "110076-45-4;33643-64-0",
    "SMILES": "S(N(Cl)Cl)(=O)(=O)C1=CC=C(C)C=C1",
    "meta_data": {
        "InChI": "InChI=1S/C7H7Cl2NO2S/c1-6-2-4-7(5-3-6)13(11,12)10(8)9/h2-5H,1H3",
        "InChIKey": null,
        "Canonical SMILES": "O=S(=O)(C1=CC=C(C=C1)C)N(Cl)Cl",
        "Molecular Formula": "C<sub>7</sub>H<sub>7</sub>Cl<sub>2</sub>NO<sub>2</sub>S",
        "Molecular Mass": "240.11",
        "Melting Point": "83 °C"
    }
}