{
    "cas_no": "6113-61-7",
    "key_name": "<em>N</em>-Formyl-<span class=\"text-smallcaps\">L</span>-leucine",
    "cn_name": "N-甲酰基-L-亮氨酸;",
    "alternate_name": "<span class=\"text-smallcaps\">L</span>-Leucine, <em>N</em>-formyl-;Leucine, <em>N</em>-formyl-, <span class=\"text-smallcaps\">L</span>-;<em>N</em>-Formyl-<span class=\"text-smallcaps\">L</span>-leucine;<em>N</em>-Formyl-<em>S</em>-leucine;<em>N</em>-Formylleucine;NSC 334321;(<em>S</em>)-(+)-2-Formamido-4-methylpentanoic acid;(2S)-2-Formamido-4-methylpentanoic acid",
    "duplicated_cas_no": "",
    "SMILES": "[C@@H](CC(C)C)(NC=O)C(O)=O",
    "meta_data": {
        "InChI": "InChI=1S/C7H13NO3/c1-5(2)3-6(7(10)11)8-4-9/h4-6H,3H2,1-2H3,(H,8,9)(H,10,11)/t6-/m0/s1",
        "InChIKey": null,
        "Canonical SMILES": "O=CNC(C(=O)O)CC(C)C",
        "Molecular Formula": "C<sub>7</sub>H<sub>13</sub>NO<sub>3</sub>",
        "Molecular Mass": "159.18",
        "Boiling Point": "33-34 °C @ Press: 0.5 Torr",
        "Melting Point": "142-144 °C"
    }
}