{
    "cas_no": "112-75-4",
    "key_name": "Tetradecyldimethylamine",
    "cn_name": "十四烷基二甲基叔胺;二甲基十四烷基胺;",
    "alternate_name": "1-Tetradecanamine, <em>N</em>,<em>N</em>-dimethyl-;Tetradecylamine, <em>N</em>,<em>N</em>-dimethyl-;<em>N</em>,<em>N</em>-Dimethyl-1-tetradecanamine;<em>N</em>,<em>N</em>-Dimethyl-<em>N</em>-tetradecylamine;Dimethyltetradecylamine;Tetradecyldimethylamine;<em>N</em>,<em>N</em>-Dimethylmyristylamine;Myristyldimethylamine;Armeen DM 14D;Dimethylmyristamine;<em>N</em>,<em>N</em>-Dimethyltetradecylamine;Dimethylmyristylamine;Genamin 14R302D;IPL 30;Adma 14;<em>N</em>-Tetradecyldimethylamine;NSC 78319;Farmin DM 4098;AT 1495;Nissan Tertiary Amine MB;<em>N</em>,<em>N</em>-Dimethyl-1-tetradecylamine;Lipomin DM 14D",
    "duplicated_cas_no": "",
    "SMILES": "C(CCCCCCCC)CCCCCN(C)C",
    "meta_data": {
        "InChI": "InChI=1S/C16H35N/c1-4-5-6-7-8-9-10-11-12-13-14-15-16-17(2)3/h4-16H2,1-3H3",
        "InChIKey": null,
        "Canonical SMILES": "N(C)(C)CCCCCCCCCCCCCC",
        "Molecular Formula": "C<sub>16</sub>H<sub>35</sub>N",
        "Molecular Mass": "241.46",
        "Boiling Point": "115-125 °C @ Press: 0.06-0.07 Torr"
    }
}