{
    "cas_no": "712-61-8",
    "key_name": "2,2′-Dimethyl-4,4′-bipyridine",
    "cn_name": null,
    "alternate_name": "4,4′-Bipyridine, 2,2′-dimethyl-;4,4′-Bi-2-picoline;2,2′-Dimethyl-4,4′-bipyridine;2,2′-Dimethyl-4,4′-bipyridyl;2-Methyl-4-(2-methylpyridin-4-yl)pyridine",
    "duplicated_cas_no": "",
    "SMILES": "CC1=CC(=CC=N1)C=2C=C(C)N=CC2",
    "meta_data": {
        "InChI": "InChI=1S/C12H12N2/c1-9-7-11(3-5-13-9)12-4-6-14-10(2)8-12/h3-8H,1-2H3",
        "InChIKey": null,
        "Canonical SMILES": "N=1C=CC(=CC1C)C=2C=CN=C(C2)C",
        "Molecular Formula": "C<sub>12</sub>H<sub>12</sub>N<sub>2</sub>",
        "Molecular Mass": "184.24",
        "Melting Point": "83 °C"
    }
}