{
    "cas_no": "42609-52-9",
    "key_name": "Daimuron",
    "cn_name": "杀草隆;香草隆;莎扑隆;莎草隆;",
    "alternate_name": "Urea, <em>N</em>-(4-methylphenyl)-<em>N</em>′-(1-methyl-1-phenylethyl)-;<em>N</em>-(4-Methylphenyl)-<em>N</em>′-(1-methyl-1-phenylethyl)urea;SK 23 (herbicide);1-(4-Methylphenyl)-3-(α-phenylisopropyl)urea;<em>N</em>-(<em>p</em>-Tolyl)-<em>N</em>′-(α,α-dimethylbenzyl)urea;1-(2-Phenyl-2-propyl)-3-(4-methylphenyl)urea;K 223;Dymrone;Dymron;SK 23;<em>N</em>-(α,α-Dimethylbenzyl)-<em>N</em>′-(<em>p</em>-tolyl)urea;Daimuron;1-(α,α-Dimethylbenzyl)-3-<em>p</em>-tolylurea;K 223 (herbicide);SK 233",
    "duplicated_cas_no": "60120-76-5",
    "SMILES": "C(NC(NC1=CC=C(C)C=C1)=O)(C)(C)C2=CC=CC=C2",
    "meta_data": {
        "InChI": "InChI=1S/C17H20N2O/c1-13-9-11-15(12-10-13)18-16(20)19-17(2,3)14-7-5-4-6-8-14/h4-12H,1-3H3,(H2,18,19,20)",
        "InChIKey": null,
        "Canonical SMILES": "O=C(NC1=CC=C(C=C1)C)NC(C=2C=CC=CC2)(C)C",
        "Molecular Formula": "C<sub>17</sub>H<sub>20</sub>N<sub>2</sub>O",
        "Molecular Mass": "268.35",
        "Melting Point": "203 °C"
    }
}