{
    "cas_no": "11089-65-9",
    "key_name": "Tunicamycin",
    "cn_name": "衣霉素;",
    "alternate_name": "Tunicamycin;MeSH ID: D014415",
    "duplicated_cas_no": "11118-26-6",
    "SMILES": "",
    "meta_data": {
        "InChI": "",
        "InChIKey": null,
        "Canonical SMILES": "",
        "Molecular Formula": "Unspecified",
        "Molecular Mass": "",
        "Melting Point": "234-235 °C (decomp)"
    }
}