{
    "uri": "substance/pt/11089659",
    "rn": "11089-65-9",
    "name": "Tunicamycin",
    "images": [],
    "inchi": "",
    "inchiKey": "",
    "smile": "",
    "canonicalSmile": "",
    "molecularFormula": "Unspecified",
    "molecularMass": "",
    "experimentalProperties": [
        {
            "name": "Melting Point",
            "property": "234-235 °C (decomp)",
            "sourceNumber": 1
        }
    ],
    "propertyCitations": [
        {
            "docUri": "document/pt/document/20297618",
            "sourceNumber": 1,
            "source": "Takatsuki, Akira; Journal of Antibiotics, (1971), 24(4), 215-23, CAplus"
        }
    ],
    "synonyms": [
        "Tunicamycin",
        "MeSH ID: D014415"
    ],
    "replacedRns": [
        "11118-26-6"
    ],
    "hasMolfile": false,
    "source": "https://commonchemistry.cas.org/detail?cas_rn=11089-65-9"
}