{
    "cas_no": "23834-14-2",
    "key_name": "7-Chloro-4-hydrazinylquinoline",
    "cn_name": "7-氯-4-肼基联氨基喹啉;",
    "alternate_name": "Quinoline, 7-chloro-4-hydrazinyl-;Quinoline, 7-chloro-4-hydrazino-;7-Chloro-4-hydrazinylquinoline;4-Hydrazino-7-chloroquinoline;7-Chloro-4-hydrazinoquinoline;NSC 10802;(7-Chloroquinolin-4-yl)hydrazine",
    "duplicated_cas_no": "",
    "SMILES": "N(N)C=1C2=C(C=C(Cl)C=C2)N=CC1",
    "meta_data": {
        "InChI": "InChI=1S/C9H8ClN3/c10-6-1-2-7-8(13-11)3-4-12-9(7)5-6/h1-5H,11H2,(H,12,13)",
        "InChIKey": null,
        "Canonical SMILES": "ClC=1C=CC=2C(=NC=CC2NN)C1",
        "Molecular Formula": "C<sub>9</sub>H<sub>8</sub>ClN<sub>3</sub>",
        "Molecular Mass": "193.63",
        "Melting Point": "220-221 °C"
    }
}