{
    "cas_no": "33629-47-9",
    "key_name": "Butralin",
    "cn_name": "地乐胺;仲丁灵;比达宁;硝苯胺灵;双丁乐灵;止芽素;N-仲丁基-4-叔丁基-2,6-二硝基苯胺;",
    "alternate_name": "Benzenamine, 4-(1,1-dimethylethyl)-<em>N</em>-(1-methylpropyl)-2,6-dinitro-;Aniline, <em>N</em>-<em>sec</em>-butyl-4-<em>tert</em>-butyl-2,6-dinitro-;4-(1,1-Dimethylethyl)-<em>N</em>-(1-methylpropyl)-2,6-dinitrobenzenamine;<em>N</em>-<em>sec</em>-Butyl-4-<em>tert</em>-butyl-2,6-dinitroaniline;70-314B;Amchem 70-25;4-<em>tert</em>-Butyl-<em>N</em>-<em>sec</em>-butyl-2,6-dinitroaniline;A 820;72-A34;4-<em>tert</em>-Butyl-<em>N</em>-mono-<em>sec</em>-butyl-2,6-dinitroaniline;Dibutalin;Amex 820;Amex;Butalin;Butralin;A 820 (herbicide)",
    "duplicated_cas_no": "12676-07-2",
    "SMILES": "N(C(CC)C)C1=C(N(=O)=O)C=C(C(C)(C)C)C=C1N(=O)=O",
    "meta_data": {
        "InChI": "InChI=1S/C14H21N3O4/c1-6-9(2)15-13-11(16(18)19)7-10(14(3,4)5)8-12(13)17(20)21/h7-9,15H,6H2,1-5H3",
        "InChIKey": null,
        "Canonical SMILES": "O=N(=O)C=1C=C(C=C(C1NC(C)CC)N(=O)=O)C(C)(C)C",
        "Molecular Formula": "C<sub>14</sub>H<sub>21</sub>N<sub>3</sub>O<sub>4</sub>",
        "Molecular Mass": "295.33",
        "Boiling Point": "135 °C",
        "Melting Point": "60 °C"
    }
}