{
    "cas_no": "75-05-8",
    "key_name": "Acetonitrile",
    "cn_name": "乙腈;氰甲烷;甲基氰;",
    "alternate_name": "Acetonitrile;Cyanomethane;Ethanenitrile;Ethyl nitrile;Methane, cyano-;Methanecarbonitrile;Methyl cyanide;Methyl cyanide (MeCN);Acetonitrile cluster;NSC 7593;ACN",
    "duplicated_cas_no": "54841-72-4",
    "SMILES": "C(C)#N",
    "meta_data": {
        "InChI": "InChI=1S/C2H3N/c1-2-3/h1H3",
        "InChIKey": null,
        "Canonical SMILES": "N#CC",
        "Molecular Formula": "C<sub>2</sub>H<sub>3</sub>N",
        "Molecular Mass": "41.05",
        "Boiling Point": "81.6 °C @ Press: 760 Torr",
        "Melting Point": "-45 °C",
        "Density": "0.78745 g/cm³ @ Temp: 15 °C"
    }
}