{
    "cas_no": "90-45-9",
    "key_name": "9-Aminoacridine",
    "cn_name": "9-氨基吖啶;3-氨基邻苯二甲酸酐;5-氨基吖啶;9-吖啶胺;9-氨基吖啶;氨吖啶;氨基吖啶;",
    "alternate_name": "9-Acridinamine;Acridine, 9-amino-;9AA;Aminacrine;9-Aminoacridine;Monacrin;10-Amino-5-azaanthracene;Aminacrin;Izoacridina;NSC 13000;NSC 28747;MeSH ID: D000585",
    "duplicated_cas_no": "148651-03-0",
    "SMILES": "NC=1C2=C(N=C3C1C=CC=C3)C=CC=C2",
    "meta_data": {
        "InChI": "InChI=1S/C13H10N2/c14-13-9-5-1-3-7-11(9)15-12-8-4-2-6-10(12)13/h1-8H,(H2,14,15)",
        "InChIKey": null,
        "Canonical SMILES": "N=1C=2C=CC=CC2C(N)=C3C=CC=CC13",
        "Molecular Formula": "C<sub>13</sub>H<sub>10</sub>N<sub>2</sub>",
        "Molecular Mass": "194.23",
        "Melting Point": "241 °C"
    }
}