{
    "cas_no": "1678-91-7",
    "key_name": "Ethylcyclohexane",
    "cn_name": "乙基环己烷;",
    "alternate_name": "Cyclohexane, ethyl-;Ethylcyclohexane;NSC 8880;Swaclean ECH;Cyclohexylethane",
    "duplicated_cas_no": "",
    "SMILES": "C(C)C1CCCCC1",
    "meta_data": {
        "InChI": "InChI=1S/C8H16/c1-2-8-6-4-3-5-7-8/h8H,2-7H2,1H3",
        "InChIKey": null,
        "Canonical SMILES": "CCC1CCCCC1",
        "Molecular Formula": "C<sub>8</sub>H<sub>16</sub>",
        "Molecular Mass": "112.21",
        "Boiling Point": "131.9 °C",
        "Melting Point": "-111.3 °C",
        "Density": "0.7840 g/cm³ @ Temp: 20 °C"
    }
}