{
    "cas_no": "50-71-5",
    "key_name": "Alloxan",
    "cn_name": "阿脲;四氧嘧啶;",
    "alternate_name": "2,4,5,6(1<em>H</em>,3<em>H</em>)-Pyrimidinetetrone;Alloxan;Mesoxalylcarbamide;Mesoxalylurea;2,4,5,6-Tetraoxohexahydropyrimidine;Alloxane;Pyrimidinetetrone;2,4,5,6-Pyrimidinetetrone;NSC 7169;1,3-Diazinane-2,4,5,6-tetrone;2-Hydroxy-1,4,5,6-tetrahydropyrimidine-4,5,6-trione;MeSH ID: D000496",
    "duplicated_cas_no": "",
    "SMILES": "O=C1C(=O)NC(=O)NC1=O",
    "meta_data": {
        "InChI": "InChI=1S/C4H2N2O4/c7-1-2(8)5-4(10)6-3(1)9/h(H2,5,6,8,9,10)",
        "InChIKey": null,
        "Canonical SMILES": "O=C1NC(=O)C(=O)C(=O)N1",
        "Molecular Formula": "C<sub>4</sub>H<sub>2</sub>N<sub>2</sub>O<sub>4</sub>",
        "Molecular Mass": "142.07",
        "Melting Point": "256 °C (decomp)",
        "Density": "1.839 g/cm³ @ Temp: -5 °C"
    }
}