{
    "cas_no": "769-11-9",
    "key_name": "2-Chloro-6-nitrobenzenamine",
    "cn_name": "2-氯-6-硝基苯胺;",
    "alternate_name": "Benzenamine, 2-chloro-6-nitro-;Aniline, 2-chloro-6-nitro-;2-Chloro-6-nitrobenzenamine;2-Chloro-6-nitroaniline;6-Chloro-2-nitroaniline;NSC 37398;2-Chloro-6-nitro-phenylamine",
    "duplicated_cas_no": "",
    "SMILES": "N(=O)(=O)C1=C(N)C(Cl)=CC=C1",
    "meta_data": {
        "InChI": "InChI=1S/C6H5ClN2O2/c7-4-2-1-3-5(6(4)8)9(10)11/h1-3H,8H2",
        "InChIKey": null,
        "Canonical SMILES": "O=N(=O)C=1C=CC=C(Cl)C1N",
        "Molecular Formula": "C<sub>6</sub>H<sub>5</sub>ClN<sub>2</sub>O<sub>2</sub>",
        "Molecular Mass": "172.57",
        "Melting Point": "74-75 °C"
    }
}