{
    "cas_no": "621-37-4",
    "key_name": "3′-Hydroxyphenylacetic acid",
    "cn_name": "3-羟基苯乙酸;间羟基苯乙酸;",
    "alternate_name": "Benzeneacetic acid, 3-hydroxy-;Acetic acid, (<em>m</em>-hydroxyphenyl)-;3-Hydroxybenzeneacetic acid;(3-Hydroxyphenyl)acetic acid;(<em>m</em>-Hydroxyphenyl)acetic acid;2-(3-Hydroxyphenyl)acetic acid;NSC 14360;3′-Hydroxyphenylacetic acid;2-(3′-Hydroxyphenyl)acetic acid",
    "duplicated_cas_no": "",
    "SMILES": "C(C(O)=O)C1=CC(O)=CC=C1",
    "meta_data": {
        "InChI": "InChI=1S/C8H8O3/c9-7-3-1-2-6(4-7)5-8(10)11/h1-4,9H,5H2,(H,10,11)",
        "InChIKey": null,
        "Canonical SMILES": "O=C(O)CC=1C=CC=C(O)C1",
        "Molecular Formula": "C<sub>8</sub>H<sub>8</sub>O<sub>3</sub>",
        "Molecular Mass": "152.15",
        "Boiling Point": "190 °C",
        "Melting Point": "132 °C"
    }
}