{
    "cas_no": "80012-43-7",
    "key_name": "Epinastine",
    "cn_name": "依匹斯汀;依匹斯汀碱;3-氨基-9,13-二氢-1H-二苯并[c,f]咪唑并[1,5-a]氮杂卓;",
    "alternate_name": "1<em>H</em>-Dibenz[<em>c</em>,<em>f</em>]imidazo[1,5-<em>a</em>]azepin-3-amine, 9,13b-dihydro-;9,13b-Dihydro-1<em>H</em>-dibenz[<em>c</em>,<em>f</em>]imidazo[1,5-<em>a</em>]azepin-3-amine;Epinastine;WAL 801;(±)-Epinastine",
    "duplicated_cas_no": "134507-59-8",
    "SMILES": "NC=1N2C(C=3C(CC=4C2=CC=CC4)=CC=CC3)CN1",
    "meta_data": {
        "InChI": "InChI=1S/C16H15N3/c17-16-18-10-15-13-7-3-1-5-11(13)9-12-6-2-4-8-14(12)19(15)16/h1-8,15H,9-10H2,(H2,17,18)",
        "InChIKey": null,
        "Canonical SMILES": "N1=C(N)N2C=3C=CC=CC3CC=4C=CC=CC4C2C1",
        "Molecular Formula": "C<sub>16</sub>H<sub>15</sub>N<sub>3</sub>",
        "Molecular Mass": "249.31",
        "Melting Point": "205-208 °C"
    }
}