{
    "cas_no": "10510-77-7",
    "key_name": "Phenazine ethosulfate",
    "cn_name": "吩嗪乙基硫酸盐;",
    "alternate_name": "Phenazinium, 5-ethyl-, ethyl sulfate (1:1);Phenazinium, 5-ethyl-, ethyl sulfate;5-Ethylphenazinium ethyl sulfate;Sulfuric acid, monoethyl ester, ion(1-), 5-ethylphenazinium;Phenazine ethosulfate;<em>N</em>-Ethylphenazonium ethyl sulfate;<em>N</em>-Ethylphenazinium ethyl sulfate;NSC 402863",
    "duplicated_cas_no": "77898-71-6",
    "SMILES": "O(S(=O)(=O)[O-])CC.C(C)[N+]=1C2=C(N=C3C1C=CC=C3)C=CC=C2",
    "meta_data": {
        "InChI": "InChI=1S/C14H13N2.C2H6O4S/c1-2-16-13-9-5-3-7-11(13)15-12-8-4-6-10-14(12)16;1-2-6-7(3,4)5/h3-10H,2H2,1H3;2H2,1H3,(H,3,4,5)/q+1;/p-1",
        "InChIKey": null,
        "Canonical SMILES": "O=S(=O)([O-])OCC.N=1C=2C=CC=CC2[N+](=C3C=CC=CC13)CC",
        "Molecular Formula": "C<sub>14</sub>H<sub>13</sub>N<sub>2</sub>.C<sub>2</sub>H<sub>5</sub>O<sub>4</sub>S",
        "Molecular Mass": "",
        "Melting Point": "190 °C"
    }
}