{
    "cas_no": "7220-81-7",
    "key_name": "Aflatoxin B<sub>2</sub>",
    "cn_name": "黄曲霉素B2;",
    "alternate_name": "Cyclopenta[<em>c</em>]furo[3′,2′:4,5]furo[2,3-<em>h</em>][1]benzopyran-1,11-dione, 2,3,6a,8,9,9a-hexahydro-4-methoxy-, (6a<em>R</em>,9a<em>S</em>)-;Aflatoxin B<sub>2</sub>;Cyclopenta[<em>c</em>]furo[3′,2′:4,5]furo[2,3-<em>h</em>][1]benzopyran-1,11-dione, 2,3,6aα,8,9,9aα-hexahydro-4-methoxy-;Cyclopenta[<em>c</em>]furo[3′,2′:4,5]furo[2,3-<em>h</em>][1]benzopyran-1,11-dione, 2,3,6a,8,9,9a-hexahydro-4-methoxy-, (6a<em>R</em>-<em>cis</em>)-;(6a<em>R</em>,9a<em>S</em>)-2,3,6a,8,9,9a-Hexahydro-4-methoxycyclopenta[<em>c</em>]furo[3′,2′:4,5]furo[2,3-<em>h</em>][1]benzopyran-1,11-dione;Dihydroaflatoxin B<sub>1</sub>;Dihydroaflatoxine B<sub>1</sub>",
    "duplicated_cas_no": "",
    "SMILES": "O(C)C=1C2=C(C=3[C@]4([C@@](OC3C1)(OCC4)[H])[H])OC(=O)C5=C2CCC5=O",
    "meta_data": {
        "InChI": "InChI=1S/C17H14O6/c1-20-10-6-11-14(8-4-5-21-17(8)22-11)15-13(10)7-2-3-9(18)12(7)16(19)23-15/h6,8,17H,2-5H2,1H3/t8-,17+/m0/s1",
        "InChIKey": null,
        "Canonical SMILES": "O=C1OC2=C(C(OC)=CC=3OC4OCCC4C32)C5=C1C(=O)CC5",
        "Molecular Formula": "C<sub>17</sub>H<sub>14</sub>O<sub>6</sub>",
        "Molecular Mass": "314.29",
        "Melting Point": "286-289 °C"
    }
}