{
    "cas_no": "513-12-2",
    "key_name": "2-(Ethylsulfonyl)ethanol",
    "cn_name": "2-(乙烷磺酰)乙醇;",
    "alternate_name": "Ethanol, 2-(ethylsulfonyl)-;2-(Ethylsulfonyl)ethanol;Ethylsulfonylethyl alcohol;NSC 60543;2-Hydroxyethyl ethyl sulfone;2-(Ethanesulfonyl)ethan-1-ol",
    "duplicated_cas_no": "",
    "SMILES": "S(CCO)(CC)(=O)=O",
    "meta_data": {
        "InChI": "InChI=1S/C4H10O3S/c1-2-8(6,7)4-3-5/h5H,2-4H2,1H3",
        "InChIKey": null,
        "Canonical SMILES": "O=S(=O)(CC)CCO",
        "Molecular Formula": "C<sub>4</sub>H<sub>10</sub>O<sub>3</sub>S",
        "Molecular Mass": "138.19",
        "Boiling Point": "153 °C",
        "Melting Point": "46 °C"
    }
}