{
    "cas_no": "202189-78-4",
    "key_name": "Bilastine",
    "cn_name": "比拉斯汀;",
    "alternate_name": "Benzeneacetic acid, 4-[2-[4-[1-(2-ethoxyethyl)-1<em>H</em>-benzimidazol-2-yl]-1-piperidinyl]ethyl]-α,α-dimethyl-;4-[2-[4-[1-(2-Ethoxyethyl)-1<em>H</em>-benzimidazol-2-yl]-1-piperidinyl]ethyl]-α,α-dimethylbenzeneacetic acid;Bilastine;2-[-4-(2-[4-[1-(2-Ethoxyethyl)-1<em>H</em>-benzimidazol-2-yl]-1-piperidinyl]ethyl)phenyl]-2-methylpropanoic acid;Labixten",
    "duplicated_cas_no": "",
    "SMILES": "C(COCC)N1C(=NC=2C1=CC=CC2)C3CCN(CCC4=CC=C(C(C(O)=O)(C)C)C=C4)CC3",
    "meta_data": {
        "InChI": "InChI=1S/C28H37N3O3/c1-4-34-20-19-31-25-8-6-5-7-24(25)29-26(31)22-14-17-30(18-15-22)16-13-21-9-11-23(12-10-21)28(2,3)27(32)33/h5-12,22H,4,13-20H2,1-3H3,(H,32,33)",
        "InChIKey": null,
        "Canonical SMILES": "O=C(O)C(C1=CC=C(C=C1)CCN2CCC(C3=NC=4C=CC=CC4N3CCOCC)CC2)(C)C",
        "Molecular Formula": "C<sub>28</sub>H<sub>37</sub>N<sub>3</sub>O<sub>3</sub>",
        "Molecular Mass": "463.61",
        "Melting Point": "204-206 °C"
    }
}