{
    "cas_no": "1112-55-6",
    "key_name": "Tetraethenylsilane",
    "cn_name": "四乙烯硅烷;",
    "alternate_name": "Silane, tetraethenyl-;Silane, tetravinyl-;Tetraethenylsilane;Tetravinylsilane;NSC 113262;Tetraethylenesilicon",
    "duplicated_cas_no": "",
    "SMILES": "[Si](C=C)(C=C)(C=C)C=C",
    "meta_data": {
        "InChI": "InChI=1S/C8H12Si/c1-5-9(6-2,7-3)8-4/h5-8H,1-4H2",
        "InChIKey": null,
        "Canonical SMILES": "C=C[Si](C=C)(C=C)C=C",
        "Molecular Formula": "C<sub>8</sub>H<sub>12</sub>Si",
        "Molecular Mass": "136.27",
        "Boiling Point": "130.2 °C",
        "Density": "0.815 g/cm³ @ Temp: 25 °C"
    }
}