{
    "cas_no": "18042-54-1",
    "key_name": "Silanetriol, 1-phenyl-, 1,1,1-triacetate",
    "cn_name": null,
    "alternate_name": "Silanetriol, 1-phenyl-, 1,1,1-triacetate;Silanetriol, phenyl-, triacetate;Phenyltriacetoxysilane;Monophenyltriacetoxysilane;Triacetoxyphenylsilane;[Diacetyloxy(phenyl)silyl] acetate",
    "duplicated_cas_no": "",
    "SMILES": "[Si](OC(C)=O)(OC(C)=O)(OC(C)=O)C1=CC=CC=C1",
    "meta_data": {
        "InChI": "InChI=1S/C12H14O6Si/c1-9(13)16-19(17-10(2)14,18-11(3)15)12-7-5-4-6-8-12/h4-8H,1-3H3",
        "InChIKey": null,
        "Canonical SMILES": "O=C(O[Si](OC(=O)C)(OC(=O)C)C=1C=CC=CC1)C",
        "Molecular Formula": "C<sub>12</sub>H<sub>14</sub>O<sub>6</sub>Si",
        "Molecular Mass": "282.32",
        "Boiling Point": "158 °C @ Press: 30 Torr",
        "Melting Point": "34.5 °C",
        "Density": "1.194 g/cm³"
    }
}