{
    "cas_no": "2854-16-2",
    "key_name": "1-Amino-2-methyl-2-propanol",
    "cn_name": "1-氨基-2-甲基-2-丙醇;",
    "alternate_name": "2-Propanol, 1-amino-2-methyl-;1-Amino-2-methyl-2-propanol;3-Amino-2-methyl-2-propanol;2-Amino-α,α-dimethylethanol;2-Hydroxyisobutylamine;2-Hydroxy-2-methyl-1-propylamine;2-Methyl-2-hydroxypropylamine;NSC 17697;1,1-Dimethylethanolamine;2-Hydroxy-2-methylpropan-1-amine;2-Hydroxy-2-methylpropanamine;<em>tert</em>-Butanolamine;1-Amino-2-methylpropan-2-ol",
    "duplicated_cas_no": "",
    "SMILES": "C(CN)(C)(C)O",
    "meta_data": {
        "InChI": "InChI=1S/C4H11NO/c1-4(2,6)3-5/h6H,3,5H2,1-2H3",
        "InChIKey": null,
        "Canonical SMILES": "OC(C)(C)CN",
        "Molecular Formula": "C<sub>4</sub>H<sub>11</sub>NO",
        "Molecular Mass": "89.14",
        "Boiling Point": "150-150.5 °C"
    }
}