{
    "cas_no": "99725-12-9",
    "key_name": "4-Bromo-2-(bromomethyl)-1-fluorobenzene",
    "cn_name": "2-氟-5-溴苄溴;",
    "alternate_name": "Benzene, 4-bromo-2-(bromomethyl)-1-fluoro-;4-Bromo-2-(bromomethyl)-1-fluorobenzene;5-Bromo-2-fluorobenzyl bromide;2-Fluoro-5-bromobenzyl bromide",
    "duplicated_cas_no": "",
    "SMILES": "C(Br)C1=C(F)C=CC(Br)=C1",
    "meta_data": {
        "InChI": "InChI=1S/C7H5Br2F/c8-4-5-3-6(9)1-2-7(5)10/h1-3H,4H2",
        "InChIKey": null,
        "Canonical SMILES": "FC1=CC=C(Br)C=C1CBr",
        "Molecular Formula": "C<sub>7</sub>H<sub>5</sub>Br<sub>2</sub>F",
        "Molecular Mass": "267.92",
        "Boiling Point": "126-136 °C @ Press: 15 Torr"
    }
}