{
    "cas_no": "462-88-4",
    "key_name": "<em>N</em>-Carbamoyl-β-alanine",
    "cn_name": "3-酰脲丙酸;",
    "alternate_name": "β-Alanine, <em>N</em>-(aminocarbonyl)-;β-Alanine, <em>N</em>-carbamoyl-;<em>N</em>-(Aminocarbonyl)-β-alanine;Urea, (2-carboxyethyl)-;Carbamoyl-β-alanine;3-Ureidopropionic acid;Propanoic acid, 3-[(aminocarbonyl)amino]-;Carbamyl β-alanine;<em>N</em>-Carbamoyl-β-alanine;β-Ureidopropionic acid;NSC 190691;NSC 65768;3-[(Aminocarbonyl)amino]propanoic acid",
    "duplicated_cas_no": "",
    "SMILES": "C(CC(O)=O)NC(N)=O",
    "meta_data": {
        "InChI": "InChI=1S/C4H8N2O3/c5-4(9)6-2-1-3(7)8/h1-2H2,(H,7,8)(H3,5,6,9)",
        "InChIKey": null,
        "Canonical SMILES": "O=C(N)NCCC(=O)O",
        "Molecular Formula": "C<sub>4</sub>H<sub>8</sub>N<sub>2</sub>O<sub>3</sub>",
        "Molecular Mass": "132.12",
        "Melting Point": "169-170 °C"
    }
}