{
    "cas_no": "1722-62-9",
    "key_name": "Mepivacaine hydrochloride",
    "cn_name": "盐酸甲哌卡因;N-(2,6-二甲基苯基)-1-甲基-2-哌啶甲酰胺盐酸盐;",
    "alternate_name": "2-Piperidinecarboxamide, <em>N</em>-(2,6-dimethylphenyl)-1-methyl-, hydrochloride (1:1);2′,6′-Pipecoloxylidide, 1-methyl-, monohydrochloride;2-Piperidinecarboxamide, <em>N</em>-(2,6-dimethylphenyl)-1-methyl-, monohydrochloride;Carbocaine monohydrochloride;Mepivacaine monohydrochloride;Mepivacaine hydrochloride;Carbocaine hydrochloride;Scandonest;(±)-Mepivacaine hydrochloride;Scandicain;Polocaine;Mepident;Meaverin;Mepicaton;Chlorocain;Optocain;Carbocaina;Mepivastesin",
    "duplicated_cas_no": "16452-56-5;38423-99-3",
    "SMILES": "N(C(=O)C1N(C)CCCC1)C2=C(C)C=CC=C2C.Cl",
    "meta_data": {
        "InChI": "InChI=1S/C15H22N2O.ClH/c1-11-7-6-8-12(2)14(11)16-15(18)13-9-4-5-10-17(13)3;/h6-8,13H,4-5,9-10H2,1-3H3,(H,16,18);1H",
        "InChIKey": null,
        "Canonical SMILES": "Cl.O=C(NC=1C(=CC=CC1C)C)C2N(C)CCCC2",
        "Molecular Formula": "C<sub>15</sub>H<sub>22</sub>N<sub>2</sub>O.ClH",
        "Molecular Mass": "",
        "Melting Point": "262-264 °C"
    }
}