{
    "cas_no": "21968-17-2",
    "key_name": "<em>N</em>-(1-Methylethyl)-1-propanamine",
    "cn_name": "N-异丙醇丙基胺;",
    "alternate_name": "1-Propanamine, <em>N</em>-(1-methylethyl)-;Propylamine, <em>N</em>-isopropyl-;<em>N</em>-(1-Methylethyl)-1-propanamine;<em>N</em>-<em>n</em>-Propylisopropylamine;<em>N</em>-Isopropylpropylamine;Propylisopropylamine;<em>N</em>-Isopropyl-<em>N</em>-[<em>n</em>-propyl]amine;<em>N</em>-Isopropyl-<em>N</em>-propylamine;(Propan-2-yl)(propyl)amine",
    "duplicated_cas_no": "",
    "SMILES": "N(C(C)C)CCC",
    "meta_data": {
        "InChI": "InChI=1S/C6H15N/c1-4-5-7-6(2)3/h6-7H,4-5H2,1-3H3",
        "InChIKey": null,
        "Canonical SMILES": "N(CCC)C(C)C",
        "Molecular Formula": "C<sub>6</sub>H<sub>15</sub>N",
        "Molecular Mass": "101.19",
        "Boiling Point": "96.9 °C",
        "Density": "0.73 g/cm³ @ Temp: 20 °C"
    }
}