{
    "cas_no": "22798-98-7",
    "key_name": "20-Hydroxyecdysone 2,3:20,22-diacetonide",
    "cn_name": null,
    "alternate_name": "Cholest-7-en-6-one, 14,25-dihydroxy-2,3:20,22-bis[(1-methylethylidene)bis(oxy)]-, (2β,3β,5β,22<em>R</em>)-;5β-Cholest-7-en-6-one, 2β,3β,14,20,22,25-hexahydroxy-, cyclic 2,3:20,22-diacetal with acetone, (22<em>R</em>)-;5<em>H</em>-Cyclopenta[7,8]phenanthro[2,3-<em>d</em>][1,3]dioxole, cholest-7-en-6-one deriv.;(2β,3β,5β,22<em>R</em>)-14,25-Dihydroxy-2,3:20,22-bis[(1-methylethylidene)bis(oxy)]cholest-7-en-6-one;20-Hydroxyecdysone 2,3:20,22-diacetonide;Ecdysterone 2,3:20,22-diacetonide;20-Hydroxyecdysone diacetonide;20-Hydroxy-2,3,20,22-di-<em>O</em>-isopropylideneecdysone",
    "duplicated_cas_no": "113900-74-6",
    "SMILES": "O[C@]12[C@@](C)([C@](CC1)([C@]3(C)[C@@H](CCC(C)(C)O)OC(C)(C)O3)[H])CC[C@]4(C2=CC(=O)[C@]5([C@]4(C)C[C@]6([C@@](C5)(OC(C)(C)O6)[H])[H])[H])[H]",
    "meta_data": {
        "InChI": "InChI=1S/C33H52O7/c1-27(2,35)13-12-26-32(9,40-29(5,6)39-26)25-11-15-33(36)20-16-22(34)21-17-23-24(38-28(3,4)37-23)18-30(21,7)19(20)10-14-31(25,33)8/h16,19,21,23-26,35-36H,10-15,17-18H2,1-9H3/t19-,21-,23+,24-,25-,26+,30+,31+,32+,33+/m0/s1",
        "InChIKey": null,
        "Canonical SMILES": "O=C1C=C2C(CCC3(C)C(CCC23O)C4(OC(OC4CCC(O)(C)C)(C)C)C)C5(C)CC6OC(OC6CC15)(C)C",
        "Molecular Formula": "C<sub>33</sub>H<sub>52</sub>O<sub>7</sub>",
        "Molecular Mass": "560.76",
        "Melting Point": "234 °C"
    }
}