{
    "cas_no": "5976-61-4",
    "key_name": "4-Hydroxyestradiol",
    "cn_name": "4-羟雌二醇;",
    "alternate_name": "Estra-1,3,5(10)-triene-3,4,17-triol, (17β)-;Estra-1,3,5(10)-triene-3,4,17β-triol;(17β)-Estra-1,3,5(10)-triene-3,4,17-triol;4-Hydroxyestradiol;4-Hydroxy-17β-estradiol",
    "duplicated_cas_no": "1050678-71-1",
    "SMILES": "C[C@@]12[C@]([C@]3([C@@](C=4C(CC3)=C(O)C(O)=CC4)(CC1)[H])[H])(CC[C@@H]2O)[H]",
    "meta_data": {
        "InChI": "InChI=1S/C18H24O3/c1-18-9-8-11-10-4-6-15(19)17(21)13(10)3-2-12(11)14(18)5-7-16(18)20/h4,6,11-12,14,16,19-21H,2-3,5,7-9H2,1H3/t11-,12-,14+,16+,18+/m1/s1",
        "InChIKey": null,
        "Canonical SMILES": "OC1=CC=C2C(=C1O)CCC3C2CCC4(C)C(O)CCC34",
        "Molecular Formula": "C<sub>18</sub>H<sub>24</sub>O<sub>3</sub>",
        "Molecular Mass": "288.38",
        "Melting Point": "252-253 °C"
    }
}