{
    "cas_no": "51-21-8",
    "key_name": "5-Fluorouracil",
    "cn_name": "5-氟脲嘧啶;5-氟-2,4(1H,3H)-嘧啶二酮;",
    "alternate_name": "2,4(1<em>H</em>,3<em>H</em>)-Pyrimidinedione, 5-fluoro-;Uracil, 5-fluoro-;5-Fluoro-2,4(1<em>H</em>,3<em>H</em>)-pyrimidinedione;NSC 19893;Ro 2-9757;5-Fluorouracil;Fluorouracil;2,4-Dioxo-5-fluoropyrimidine;Efudex;5-FU;Fluracil;Fluril;Fluoroplex;5-Fluoro-2,4-pyrimidinedione;Fluoroblastin;Phtoruracil;Phthoruracil;Fluracilum;Efurix;Queroplex;Arumel;Kecimeton;Adrucil;Efudix;Carzonal;Ulup;Ftoruracil;U 8953;Timazin;FU;Fluri;5-Fluoracyl;Carac;2,4-Dihydroxy-5-fluoropyrimidine;Fluracedyl;5-Fluoropyrimidine-2,4-diol;Flurablastin;DBL;5-Fluoro-1<em>H</em>-pyrimidine-2,4-dione;Fluorouracile Accord;5-Oncouracil;Sigma 03738;5-Fluoro-2,4-dihydroxypyrimidine;MeSH ID: D005472",
    "duplicated_cas_no": "1004-03-1;4921-97-5;79108-01-3",
    "SMILES": "O=C1C(F)=CNC(=O)N1",
    "meta_data": {
        "InChI": "InChI=1S/C4H3FN2O2/c5-2-1-6-4(9)7-3(2)8/h1H,(H2,6,7,8,9)",
        "InChIKey": null,
        "Canonical SMILES": "O=C1NC=C(F)C(=O)N1",
        "Molecular Formula": "C<sub>4</sub>H<sub>3</sub>FN<sub>2</sub>O<sub>2</sub>",
        "Molecular Mass": "130.08",
        "Melting Point": "282 °C (decomp)"
    }
}