{
    "cas_no": "69999-16-2",
    "key_name": "2,3-Dihydro-5-benzofuranacetic acid",
    "cn_name": "2,3-二氢苯并呋喃-5-乙酸;",
    "alternate_name": "5-Benzofuranacetic acid, 2,3-dihydro-;2,3-Dihydro-5-benzofuranacetic acid;(2,3-Dihydrobenzofuran-5-yl)acetic acid;2,3-Dihydrobenzofuran-5-acetic acid;2-(2,3-Dihydrobenzofuran-5-yl)acetic acid;2,3-Dihydro-1-benzofuran-5-ylacetic acid;2-(2,3-Dihydro-1-benzofuran-5-yl)acetic acid",
    "duplicated_cas_no": "",
    "SMILES": "C(C(O)=O)C=1C=C2C(=CC1)OCC2",
    "meta_data": {
        "InChI": "InChI=1S/C10H10O3/c11-10(12)6-7-1-2-9-8(5-7)3-4-13-9/h1-2,5H,3-4,6H2,(H,11,12)",
        "InChIKey": null,
        "Canonical SMILES": "O=C(O)CC1=CC=C2OCCC2=C1",
        "Molecular Formula": "C<sub>10</sub>H<sub>10</sub>O<sub>3</sub>",
        "Molecular Mass": "178.18",
        "Melting Point": "96 °C"
    }
}