{
    "cas_no": "3845-64-5",
    "key_name": "<span class=\"text-smallcaps\">L</span>-Methionine, <em>N</em>-[(1,1-dimethylethoxy)carbonyl]-, 2,5-dioxo-1-pyrrolidinyl ester",
    "cn_name": null,
    "alternate_name": "<span class=\"text-smallcaps\">L</span>-Methionine, <em>N</em>-[(1,1-dimethylethoxy)carbonyl]-, 2,5-dioxo-1-pyrrolidinyl ester;Succinimide, <em>N</em>-[(<em>N</em>-carboxy-<span class=\"text-smallcaps\">L</span>-methionyl)oxy]-, <em>tert</em>-butyl ester;Carbamic acid, [1-[[(2,5-dioxo-1-pyrrolidinyl)oxy]carbonyl]-3-(methylthio)propyl]-, 1,1-dimethylethyl ester, (<em>S</em>)-;Carbamic acid, [(1<em>S</em>)-1-[[(2,5-dioxo-1-pyrrolidinyl)oxy]carbonyl]-3-(methylthio)propyl]-, 1,1-dimethylethyl ester;Methionine, <em>N</em>-carboxy-, <em>N</em>-<em>tert</em>-butyl ester, succinimido deriv., <span class=\"text-smallcaps\">L</span>-;<em>N</em>-(<em>tert</em>-Butyloxycarbonyl)-<span class=\"text-smallcaps\">L</span>-methionine ester with <em>N</em>-hydroxysuccinimide;NSC 343722;BOC-Met-NHS;Boc-Met-OSu;(2,5-Dioxopyrrolidin-1-yl) (2S)-2-[(2-methylpropan-2-yl)oxycarbonylamino]-4-methylsulfanylbutanoate",
    "duplicated_cas_no": "",
    "SMILES": "O(C([C@@H](NC(OC(C)(C)C)=O)CCSC)=O)N1C(=O)CCC1=O",
    "meta_data": {
        "InChI": "InChI=1S/C14H22N2O6S/c1-14(2,3)21-13(20)15-9(7-8-23-4)12(19)22-16-10(17)5-6-11(16)18/h9H,5-8H2,1-4H3,(H,15,20)/t9-/m0/s1",
        "InChIKey": null,
        "Canonical SMILES": "O=C(OC(C)(C)C)NC(C(=O)ON1C(=O)CCC1=O)CCSC",
        "Molecular Formula": "C<sub>14</sub>H<sub>22</sub>N<sub>2</sub>O<sub>6</sub>S",
        "Molecular Mass": "346.40",
        "Melting Point": "128-129 °C"
    }
}