{
    "cas_no": "31121-93-4",
    "key_name": "Ibuprofen sodium",
    "cn_name": null,
    "alternate_name": "Benzeneacetic acid, α-methyl-4-(2-methylpropyl)-, sodium salt (1:1);Hydratropic acid, <em>p</em>-isobutyl-, sodium salt;Benzeneacetic acid, α-methyl-4-(2-methylpropyl)-, sodium salt;Sodium ibuprofen;2-(4-Isobutylphenyl)propionic acid sodium salt;Ibuprofen sodium salt;Ibuprofen sodium;Sodium 2-(4-isobutylphenyl)propionate;α-Methyl-4-(2-methylpropyl)benzeneacetic acid sodium salt",
    "duplicated_cas_no": "465536-32-7;154489-94-8",
    "SMILES": "C(C(O)=O)(C)C1=CC=C(CC(C)C)C=C1.[Na]",
    "meta_data": {
        "InChI": "InChI=1S/C13H18O2.Na/c1-9(2)8-11-4-6-12(7-5-11)10(3)13(14)15;/h4-7,9-10H,8H2,1-3H3,(H,14,15);",
        "InChIKey": null,
        "Canonical SMILES": "[Na].O=C(O)C(C1=CC=C(C=C1)CC(C)C)C",
        "Molecular Formula": "C<sub>13</sub>H<sub>18</sub>O<sub>2</sub>.Na",
        "Molecular Mass": "",
        "Melting Point": "110-112 °C"
    }
}