{
    "cas_no": "2538-68-3",
    "key_name": "1-Phenazinecarboxylic acid",
    "cn_name": "吩嗪-1-羧酸;吩嗪-1-羧酸;",
    "alternate_name": "1-Phenazinecarboxylic acid;Phenazinecarboxylic acid;Phenazine-α-carboxylic acid;Tubermycin B;NSC 15851;Shenqinmycin",
    "duplicated_cas_no": "102646-59-3",
    "SMILES": "C(O)(=O)C=1C2=C(N=C3C(=N2)C=CC=C3)C=CC1",
    "meta_data": {
        "InChI": "InChI=1S/C13H8N2O2/c16-13(17)8-4-3-7-11-12(8)15-10-6-2-1-5-9(10)14-11/h1-7H,(H,16,17)",
        "InChIKey": null,
        "Canonical SMILES": "O=C(O)C=1C=CC=C2N=C3C=CC=CC3=NC21",
        "Molecular Formula": "C<sub>13</sub>H<sub>8</sub>N<sub>2</sub>O<sub>2</sub>",
        "Molecular Mass": "224.21",
        "Melting Point": "238-239 °C"
    }
}