{
    "cas_no": "17809-36-8",
    "key_name": "2-Fluoro-6-nitrobenzenamine",
    "cn_name": null,
    "alternate_name": "Benzenamine, 2-fluoro-6-nitro-;Aniline, 2-fluoro-6-nitro-;2-Fluoro-6-nitrobenzenamine;2-Fluoro-6-nitroaniline;6-Fluoro-2-nitroaniline;2-Fluoro-6-nitro-phenylamine",
    "duplicated_cas_no": "",
    "SMILES": "N(=O)(=O)C1=C(N)C(F)=CC=C1",
    "meta_data": {
        "InChI": "InChI=1S/C6H5FN2O2/c7-4-2-1-3-5(6(4)8)9(10)11/h1-3H,8H2",
        "InChIKey": null,
        "Canonical SMILES": "O=N(=O)C=1C=CC=C(F)C1N",
        "Molecular Formula": "C<sub>6</sub>H<sub>5</sub>FN<sub>2</sub>O<sub>2</sub>",
        "Molecular Mass": "156.11",
        "Melting Point": "130 °C"
    }
}