{
    "cas_no": "127446-35-9",
    "key_name": "<em>N</em>-(4-Formyl-3-pyridinyl)-2,2-dimethylpropanamide",
    "cn_name": null,
    "alternate_name": "Propanamide, <em>N</em>-(4-formyl-3-pyridinyl)-2,2-dimethyl-;<em>N</em>-(4-Formyl-3-pyridinyl)-2,2-dimethylpropanamide;2,2-Dimethyl-<em>N</em>-(4-formyl-3-pyridinyl)propanamide",
    "duplicated_cas_no": "",
    "SMILES": "N(C(C(C)(C)C)=O)C=1C(C=O)=CC=NC1",
    "meta_data": {
        "InChI": "InChI=1S/C11H14N2O2/c1-11(2,3)10(15)13-9-6-12-5-4-8(9)7-14/h4-7H,1-3H3,(H,13,15)",
        "InChIKey": null,
        "Canonical SMILES": "O=CC=1C=CN=CC1NC(=O)C(C)(C)C",
        "Molecular Formula": "C<sub>11</sub>H<sub>14</sub>N<sub>2</sub>O<sub>2</sub>",
        "Molecular Mass": "206.24",
        "Melting Point": "76-78 °C"
    }
}