{
    "cas_no": "791-31-1",
    "key_name": "Triphenylsilanol",
    "cn_name": "三苯基硅醇;三苯基羟基硅烷;",
    "alternate_name": "Silanol, 1,1,1-triphenyl-;Silanol, triphenyl-;1,1,1-Triphenylsilanol;Triphenylhydroxysilane;Triphenylsilanol;Hydroxytriphenylsilane;Triphenylsilyl hydroxide;NSC 12564;Z 6800;LS 6400;TSL 8161D",
    "duplicated_cas_no": "",
    "SMILES": "[Si](O)(C1=CC=CC=C1)(C2=CC=CC=C2)C3=CC=CC=C3",
    "meta_data": {
        "InChI": "InChI=1S/C18H16OSi/c19-20(16-10-4-1-5-11-16,17-12-6-2-7-13-17)18-14-8-3-9-15-18/h1-15,19H",
        "InChIKey": null,
        "Canonical SMILES": "O[Si](C=1C=CC=CC1)(C=2C=CC=CC2)C=3C=CC=CC3",
        "Molecular Formula": "C<sub>18</sub>H<sub>16</sub>OSi",
        "Molecular Mass": "276.40",
        "Boiling Point": "156-158 °C @ Press: 760 Torr",
        "Melting Point": "154.8 °C"
    }
}