{
    "cas_no": "1453-97-0",
    "key_name": "<em>N</em>,<em>N</em>-Dimethyl-5-(phenylmethoxy)-1<em>H</em>-indole-3-methanamine",
    "cn_name": "5-苄氧基芦竹碱;5-苄氧基芦竹碱;",
    "alternate_name": "1<em>H</em>-Indole-3-methanamine, <em>N</em>,<em>N</em>-dimethyl-5-(phenylmethoxy)-;Indole, 5-(benzyloxy)-3-[(dimethylamino)methyl]-;<em>N</em>,<em>N</em>-Dimethyl-5-(phenylmethoxy)-1<em>H</em>-indole-3-methanamine;5-Benzyloxygramine;NSC 17819;5-Benzyloxy-3-(dimethylaminomethyl)indole;1-(5-(Benzyloxy)-1<em>H</em>-indol-3-yl)-<em>N</em>,<em>N</em>-dimethylmethanamine;PSX 01",
    "duplicated_cas_no": "",
    "SMILES": "C(N(C)C)C=1C=2C(NC1)=CC=C(OCC3=CC=CC=C3)C2",
    "meta_data": {
        "InChI": "InChI=1S/C18H20N2O/c1-20(2)12-15-11-19-18-9-8-16(10-17(15)18)21-13-14-6-4-3-5-7-14/h3-11,19H,12-13H2,1-2H3",
        "InChIKey": null,
        "Canonical SMILES": "O(C=1C=CC=2NC=C(C2C1)CN(C)C)CC=3C=CC=CC3",
        "Molecular Formula": "C<sub>18</sub>H<sub>20</sub>N<sub>2</sub>O",
        "Molecular Mass": "280.36",
        "Melting Point": "138 °C"
    }
}