{
    "cas_no": "771-63-1",
    "key_name": "Tetrafluorohydroquinone",
    "cn_name": "2,3,5,6-四氟对苯二酚;四氟喹酮;2,3,5,6-四氟对苯二酚;",
    "alternate_name": "1,4-Benzenediol, 2,3,5,6-tetrafluoro-;Hydroquinone, tetrafluoro-;2,3,5,6-Tetrafluoro-1,4-benzenediol;Tetrafluoro-1,4-hydroquinone;Tetrafluorohydroquinone;Tetrafluoro-1,4-dihydroquinone;2,3,5,6-Tetrafluorohydroquinone;2,3,5,6-Tetrafluorobenzene-1,4-diol;2,3,5,6-Tetrafluorodihydroquinone",
    "duplicated_cas_no": "",
    "SMILES": "FC1=C(F)C(O)=C(F)C(F)=C1O",
    "meta_data": {
        "InChI": "InChI=1S/C6H2F4O2/c7-1-2(8)6(12)4(10)3(9)5(1)11/h11-12H",
        "InChIKey": null,
        "Canonical SMILES": "FC=1C(F)=C(O)C(F)=C(F)C1O",
        "Molecular Formula": "C<sub>6</sub>H<sub>2</sub>F<sub>4</sub>O<sub>2</sub>",
        "Molecular Mass": "182.07",
        "Melting Point": "166-167 °C"
    }
}