{
    "cas_no": "1484-09-9",
    "key_name": "<em>N</em>-Isopropylcarbazole",
    "cn_name": null,
    "alternate_name": "9<em>H</em>-Carbazole, 9-(1-methylethyl)-;Carbazole, 9-isopropyl-;9-(1-Methylethyl)-9<em>H</em>-carbazole;<em>N</em>-Isopropylcarbazole;9-Isopropylcarbazole;9-Isopropyl-9<em>H</em>-carbazole",
    "duplicated_cas_no": "",
    "SMILES": "C(C)(C)N1C=2C(C=3C1=CC=CC3)=CC=CC2",
    "meta_data": {
        "InChI": "InChI=1S/C15H15N/c1-11(2)16-14-9-5-3-7-12(14)13-8-4-6-10-15(13)16/h3-11H,1-2H3",
        "InChIKey": null,
        "Canonical SMILES": "C=1C=CC2=C(C1)C=3C=CC=CC3N2C(C)C",
        "Molecular Formula": "C<sub>15</sub>H<sub>15</sub>N",
        "Molecular Mass": "209.29",
        "Boiling Point": "165-167 °C @ Press: 3-5 Torr",
        "Melting Point": "121.5-122.5 °C"
    }
}