{
    "cas_no": "20191-74-6",
    "key_name": "2-Ethyl-5-nitrobenzenamine",
    "cn_name": "2-乙基-5-硝基苯胺;",
    "alternate_name": "Benzenamine, 2-ethyl-5-nitro-;Aniline, 2-ethyl-5-nitro-;2-Ethyl-5-nitrobenzenamine;4-Nitro-2-amino-1-ethylbenzene;2-Ethyl-5-nitroaniline",
    "duplicated_cas_no": "",
    "SMILES": "N(=O)(=O)C1=CC(N)=C(CC)C=C1",
    "meta_data": {
        "InChI": "InChI=1S/C8H10N2O2/c1-2-6-3-4-7(10(11)12)5-8(6)9/h3-5H,2,9H2,1H3",
        "InChIKey": null,
        "Canonical SMILES": "O=N(=O)C1=CC=C(C(N)=C1)CC",
        "Molecular Formula": "C<sub>8</sub>H<sub>10</sub>N<sub>2</sub>O<sub>2</sub>",
        "Molecular Mass": "166.18",
        "Melting Point": "60.5-61.5 °C"
    }
}