{
    "cas_no": "4835-39-6",
    "key_name": "<em>N</em>-(4-Nitrophenyl)-3-oxobutanamide",
    "cn_name": "乙酰乙酰对硝基苯胺;",
    "alternate_name": "Butanamide, <em>N</em>-(4-nitrophenyl)-3-oxo-;Acetoacetanilide, 4′-nitro-;<em>N</em>-(4-Nitrophenyl)-3-oxobutanamide;4′-Nitroacetoacetanilide;<em>N</em>-(4-Nitrophenyl)acetoacetamide;<em>p</em>-Nitroacetoacetanilide;NSC 25193",
    "duplicated_cas_no": "",
    "SMILES": "N(C(CC(C)=O)=O)C1=CC=C(N(=O)=O)C=C1",
    "meta_data": {
        "InChI": "InChI=1S/C10H10N2O4/c1-7(13)6-10(14)11-8-2-4-9(5-3-8)12(15)16/h2-5H,6H2,1H3,(H,11,14)",
        "InChIKey": null,
        "Canonical SMILES": "O=C(NC1=CC=C(C=C1)N(=O)=O)CC(=O)C",
        "Molecular Formula": "C<sub>10</sub>H<sub>10</sub>N<sub>2</sub>O<sub>4</sub>",
        "Molecular Mass": "222.20",
        "Melting Point": "122-123 °C"
    }
}