{
    "cas_no": "108-99-6",
    "key_name": "3-Methylpyridine",
    "cn_name": "3-甲基吡啶;",
    "alternate_name": "Pyridine, 3-methyl-;3-Picoline;3-Methylpyridine;β-Picoline;β-Methylpyridine;<em>m</em>-Picoline;<em>m</em>-Methylpyridine;NSC 18251",
    "duplicated_cas_no": "82005-08-1;2022918-42-7",
    "SMILES": "CC=1C=CC=NC1",
    "meta_data": {
        "InChI": "InChI=1S/C6H7N/c1-6-3-2-4-7-5-6/h2-5H,1H3",
        "InChIKey": null,
        "Canonical SMILES": "N=1C=CC=C(C1)C",
        "Molecular Formula": "C<sub>6</sub>H<sub>7</sub>N",
        "Molecular Mass": "93.13",
        "Boiling Point": "143-144 °C",
        "Melting Point": "-18.1 °C",
        "Density": "0.9566 g/cm³ @ Temp: 20 °C"
    }
}