{
    "cas_no": "625-31-0",
    "key_name": "4-Penten-2-ol",
    "cn_name": null,
    "alternate_name": "4-Penten-2-ol;1-Penten-4-ol;4-Hydroxypent-1-ene;4-Pentene-2-ol;NSC 65447;1-Methylbut-3-enyl alcohol;(±)-4-Penten-2-ol",
    "duplicated_cas_no": "111957-98-3",
    "SMILES": "C(C(C)O)C=C",
    "meta_data": {
        "InChI": "InChI=1S/C5H10O/c1-3-4-5(2)6/h3,5-6H,1,4H2,2H3",
        "InChIKey": null,
        "Canonical SMILES": "OC(C)CC=C",
        "Molecular Formula": "C<sub>5</sub>H<sub>10</sub>O",
        "Molecular Mass": "86.13",
        "Boiling Point": "116 °C",
        "Density": "0.840 g/cm³ @ Temp: 20 °C"
    }
}