{
    "cas_no": "10042-59-8",
    "key_name": "2-Propylheptanol",
    "cn_name": null,
    "alternate_name": "1-Heptanol, 2-propyl-;2-Propyl-1-heptanol;2-Propylheptanol;2-Propylheptyl alcohol",
    "duplicated_cas_no": "",
    "SMILES": "C(CCCCC)(CCC)CO",
    "meta_data": {
        "InChI": "InChI=1S/C10H22O/c1-3-5-6-8-10(9-11)7-4-2/h10-11H,3-9H2,1-2H3",
        "InChIKey": null,
        "Canonical SMILES": "OCC(CCC)CCCCC",
        "Molecular Formula": "C<sub>10</sub>H<sub>22</sub>O",
        "Molecular Mass": "158.28",
        "Boiling Point": "112-115 °C @ Press: 14 Torr"
    }
}