{
    "cas_no": "71-36-3",
    "key_name": "1-Butanol",
    "cn_name": "正丁醇;1-丁醇;丁醇;",
    "alternate_name": "1-Butanol;Butyl alcohol;Butanol;<em>n</em>-Butanol;<em>n</em>-Butyl alcohol;Butyl hydroxide;CCS 203;Methylolpropane;Propylcarbinol;Hemostyp;1-Butyl alcohol;NSC 62782;MeSH ID: D020001",
    "duplicated_cas_no": "107569-51-7;42031-19-6;220713-25-7;1154866-91-7",
    "SMILES": "C(CC)CO",
    "meta_data": {
        "InChI": "InChI=1S/C4H10O/c1-2-3-4-5/h5H,2-4H2,1H3",
        "InChIKey": null,
        "Canonical SMILES": "OCCCC",
        "Molecular Formula": "C<sub>4</sub>H<sub>10</sub>O",
        "Molecular Mass": "74.12",
        "Boiling Point": "117.7 °C",
        "Melting Point": "-89.8 °C",
        "Density": "0.8098 g/cm³ @ Temp: 20 °C"
    }
}