{
    "cas_no": "175205-12-6",
    "key_name": "5-(2,3-Dichlorophenyl)-2<em>H</em>-tetrazole",
    "cn_name": null,
    "alternate_name": "2<em>H</em>-Tetrazole, 5-(2,3-dichlorophenyl)-;1<em>H</em>-Tetrazole, 5-(2,3-dichlorophenyl)-;5-(2,3-Dichlorophenyl)-2<em>H</em>-tetrazole;5-[2,3-Dichlorophenyl]tetrazole;5-(2,3-Dichlorophenyl)-1<em>H</em>-tetrazole",
    "duplicated_cas_no": "",
    "SMILES": "ClC1=C(C=CC=C1Cl)C=2NN=NN2",
    "meta_data": {
        "InChI": "InChI=1S/C7H4Cl2N4/c8-5-3-1-2-4(6(5)9)7-10-12-13-11-7/h1-3H,(H,10,11,12,13)",
        "InChIKey": null,
        "Canonical SMILES": "ClC1=CC=CC(=C1Cl)C2=NN=NN2",
        "Molecular Formula": "C<sub>7</sub>H<sub>4</sub>Cl<sub>2</sub>N<sub>4</sub>",
        "Molecular Mass": "215.04",
        "Melting Point": "180-182 °C"
    }
}