{
    "cas_no": "23669-79-6",
    "key_name": "5′-<em>O</em>-[Bis(4-methoxyphenyl)phenylmethyl]-2′-deoxyuridine",
    "cn_name": "保护-2\"-脱氧尿苷;保护-2\"-脱氧尿甙;5\"-O-[双(4-甲氧基苯基)苄基]-2\"-脱氧尿苷;",
    "alternate_name": "Uridine, 5′-<em>O</em>-[bis(4-methoxyphenyl)phenylmethyl]-2′-deoxy-;Uridine, 5′-<em>O</em>-[α,α-bis(<em>p</em>-methoxyphenyl)benzyl]-2′-deoxy-;5′-<em>O</em>-[Bis(4-methoxyphenyl)phenylmethyl]-2′-deoxyuridine;5′-<em>O</em>-(Dimethoxytrityl)-2′-deoxyuridine",
    "duplicated_cas_no": "869355-28-2",
    "SMILES": "C(OC[C@H]1O[C@H](C[C@@H]1O)N2C(=O)NC(=O)C=C2)(C3=CC=C(OC)C=C3)(C4=CC=C(OC)C=C4)C5=CC=CC=C5",
    "meta_data": {
        "InChI": "InChI=1S/C30H30N2O7/c1-36-23-12-8-21(9-13-23)30(20-6-4-3-5-7-20,22-10-14-24(37-2)15-11-22)38-19-26-25(33)18-28(39-26)32-17-16-27(34)31-29(32)35/h3-17,25-26,28,33H,18-19H2,1-2H3,(H,31,34,35)/t25-,26+,28+/m0/s1",
        "InChIKey": null,
        "Canonical SMILES": "O=C1C=CN(C(=O)N1)C2OC(COC(C=3C=CC=CC3)(C4=CC=C(OC)C=C4)C5=CC=C(OC)C=C5)C(O)C2",
        "Molecular Formula": "C<sub>30</sub>H<sub>30</sub>N<sub>2</sub>O<sub>7</sub>",
        "Molecular Mass": "530.57",
        "Melting Point": "120 °C"
    }
}