{
    "cas_no": "628-64-8",
    "key_name": "2-Ethoxyethyl carbonochloridate",
    "cn_name": "2-乙氧基乙基氯甲酸酯;",
    "alternate_name": "Carbonochloridic acid, 2-ethoxyethyl ester;Formic acid, chloro-, 2-ethoxyethyl ester;2-Ethoxyethyl carbonochloridate;2-Ethoxyethyl chloroformate;2-Ethoxyethyl chlorocarbonate",
    "duplicated_cas_no": "",
    "SMILES": "C(OC(Cl)=O)COCC",
    "meta_data": {
        "InChI": "InChI=1S/C5H9ClO3/c1-2-8-3-4-9-5(6)7/h2-4H2,1H3",
        "InChIKey": null,
        "Canonical SMILES": "O=C(Cl)OCCOCC",
        "Molecular Formula": "C<sub>5</sub>H<sub>9</sub>ClO<sub>3</sub>",
        "Molecular Mass": "152.58",
        "Boiling Point": "67-68 °C @ Press: 14 Torr"
    }
}