{
    "cas_no": "62949-77-3",
    "key_name": "5,7-Dihydroxy-2-(5-hydroxy-2,2-dimethyl-2<em>H</em>-1-benzopyran-8-yl)-3-(3-methyl-2-buten-1-yl)-4<em>H</em>-1-benzopyran-4-one",
    "cn_name": null,
    "alternate_name": "4<em>H</em>-1-Benzopyran-4-one, 5,7-dihydroxy-2-(5-hydroxy-2,2-dimethyl-2<em>H</em>-1-benzopyran-8-yl)-3-(3-methyl-2-buten-1-yl)-;4<em>H</em>-1-Benzopyran-4-one, 5,7-dihydroxy-2-(5-hydroxy-2,2-dimethyl-2<em>H</em>-1-benzopyran-8-yl)-3-(3-methyl-2-butenyl)-;5,7-Dihydroxy-2-(5-hydroxy-2,2-dimethyl-2<em>H</em>-1-benzopyran-8-yl)-3-(3-methyl-2-buten-1-yl)-4<em>H</em>-1-benzopyran-4-one;Kuwanon A",
    "duplicated_cas_no": "",
    "SMILES": "C(C=C(C)C)C1=C(OC=2C(C1=O)=C(O)C=C(O)C2)C3=C4C(C=CC(C)(C)O4)=C(O)C=C3",
    "meta_data": {
        "InChI": "InChI=1S/C25H24O6/c1-13(2)5-6-16-22(29)21-19(28)11-14(26)12-20(21)30-23(16)17-7-8-18(27)15-9-10-25(3,4)31-24(15)17/h5,7-12,26-28H,6H2,1-4H3",
        "InChIKey": null,
        "Canonical SMILES": "O=C1C=2C(O)=CC(O)=CC2OC(C=3C=CC(O)=C4C=CC(OC43)(C)C)=C1CC=C(C)C",
        "Molecular Formula": "C<sub>25</sub>H<sub>24</sub>O<sub>6</sub>",
        "Molecular Mass": "420.45",
        "Melting Point": "176-177 °C"
    }
}