{
    "cas_no": "14562-04-0",
    "key_name": "2-[[(4-Methylphenyl)sulfonyl]oxy]acetonitrile",
    "cn_name": "氰甲基对甲基苯磺酸酯;",
    "alternate_name": "Acetonitrile, 2-[[(4-methylphenyl)sulfonyl]oxy]-;Glycolonitrile, <em>p</em>-toluenesulfonate (ester);Acetonitrile, [[(4-methylphenyl)sulfonyl]oxy]-;Glycolonitrile, <em>p</em>-toluenesulfonate;2-[[(4-Methylphenyl)sulfonyl]oxy]acetonitrile;Cyanomethyl <em>p</em>-tosylate;Cyanomethyl toluenesulfonate;Cyanomethyl <em>p</em>-toluenesulfonate;Cyanomethyl tosylate;Cyanomethyl 4-methylbenzenesulfonate;Toluene-4-sulfonic acid cyanomethyl ester;2-[(4-Methylbenzenesulfonyl)oxy]acetonitrile",
    "duplicated_cas_no": "",
    "SMILES": "S(OCC#N)(=O)(=O)C1=CC=C(C)C=C1",
    "meta_data": {
        "InChI": "InChI=1S/C9H9NO3S/c1-8-2-4-9(5-3-8)14(11,12)13-7-6-10/h2-5H,7H2,1H3",
        "InChIKey": null,
        "Canonical SMILES": "N#CCOS(=O)(=O)C1=CC=C(C=C1)C",
        "Molecular Formula": "C<sub>9</sub>H<sub>9</sub>NO<sub>3</sub>S",
        "Molecular Mass": "211.24",
        "Melting Point": "47 °C"
    }
}