{
    "cas_no": "525-79-1",
    "key_name": "Kinetin",
    "cn_name": "6-糠氨基嘌呤;",
    "alternate_name": "9<em>H</em>-Purin-6-amine, <em>N</em>-(2-furanylmethyl)-;Adenine, <em>N</em>-furfuryl-;1<em>H</em>-Purin-6-amine, <em>N</em>-(2-furanylmethyl)-;Adenine, <em>N</em><sup>6</sup>-furfuryl-;<em>N</em>-(2-Furanylmethyl)-9<em>H</em>-purin-6-amine;FAP;<em>N</em>-Furfuryladenine;Kinetin;2-Furanmethanamine, <em>N</em>-1<em>H</em>-purin-6-yl-;Kinetin (plant hormone);6-(Furfurylamino)purine;6-Furfuryladenine;<em>N</em><sup>6</sup>-(Furfurylamino)purine;<em>N</em><sup>6</sup>-Furfuryladenine;KT;NSC 23119;MB 905;MeSH ID: D007701",
    "duplicated_cas_no": "525-80-4;33446-70-7",
    "SMILES": "N(CC1=CC=CO1)C2=C3C(N=CN3)=NC=N2",
    "meta_data": {
        "InChI": "InChI=1S/C10H9N5O/c1-2-7(16-3-1)4-11-9-8-10(13-5-12-8)15-6-14-9/h1-3,5-6H,4H2,(H2,11,12,13,14,15)",
        "InChIKey": null,
        "Canonical SMILES": "N1=CN=C(NCC=2OC=CC2)C=3NC=NC13",
        "Molecular Formula": "C<sub>10</sub>H<sub>9</sub>N<sub>5</sub>O",
        "Molecular Mass": "215.21",
        "Melting Point": "266.5 °C",
        "Density": "1.49 g/cm³"
    }
}