{
    "cas_no": "2479-46-1",
    "key_name": "1,3-Bis(4-aminophenoxy)benzene",
    "cn_name": "1,3-双(4\"-氨基苯氧基)苯;",
    "alternate_name": "Benzenamine, 4,4′-[1,3-phenylenebis(oxy)]bis-;Aniline, 4,4′-(<em>m</em>-phenylenedioxy)di-;4,4′-[1,3-Phenylenebis(oxy)]bis[benzenamine];1,3-Phenylene bis(<em>p</em>-aminophenyl) ether;1,3-Bis(4-aminophenoxy)benzene;<em>m</em>-Bis(<em>p</em>-aminophenoxy)benzene;4,4′-(<em>m</em>-Phenylenedioxy)dianiline;TPE-R;RODA;4,4′-[1,3-Phenylenebis(oxy)]dianiline;1,3-Bis(<em>p</em>-aminophenoxy)benzene;4,4′-(1,3-Phenylenedioxy)dianiline;1,3-Bis(4′-aminophenoxy)benzene;[4-[3-(4-Aminophenoxy)phenoxy]phenyl]amine;APB 134",
    "duplicated_cas_no": "112942-83-3;120556-33-4;215233-33-3;956749-44-3",
    "SMILES": "O(C1=CC(OC2=CC=C(N)C=C2)=CC=C1)C3=CC=C(N)C=C3",
    "meta_data": {
        "InChI": "InChI=1S/C18H16N2O2/c19-13-4-8-15(9-5-13)21-17-2-1-3-18(12-17)22-16-10-6-14(20)7-11-16/h1-12H,19-20H2",
        "InChIKey": null,
        "Canonical SMILES": "O(C1=CC=C(N)C=C1)C2=CC=CC(OC3=CC=C(N)C=C3)=C2",
        "Molecular Formula": "C<sub>18</sub>H<sub>16</sub>N<sub>2</sub>O<sub>2</sub>",
        "Molecular Mass": "292.33",
        "Melting Point": "114-116 °C"
    }
}