{
    "cas_no": "1540-34-7",
    "key_name": "3-Ethyl-2,4-pentanedione",
    "cn_name": "3-乙基-2,4-戊二酮;",
    "alternate_name": "2,4-Pentanedione, 3-ethyl-;3-Ethyl-2,4-pentanedione;3-Ethylacetylacetone;3-Acetyl-2-pentanone;γ-Ethylacetylacetone;NSC 73741",
    "duplicated_cas_no": "",
    "SMILES": "C(C(C)=O)(C(C)=O)CC",
    "meta_data": {
        "InChI": "InChI=1S/C7H12O2/c1-4-7(5(2)8)6(3)9/h7H,4H2,1-3H3",
        "InChIKey": null,
        "Canonical SMILES": "O=C(C)C(C(=O)C)CC",
        "Molecular Formula": "C<sub>7</sub>H<sub>12</sub>O<sub>2</sub>",
        "Molecular Mass": "128.17",
        "Boiling Point": "178.5 °C",
        "Melting Point": "132-133 °C",
        "Density": "0.953 g/cm³ @ Temp: 20 °C"
    }
}