{
    "cas_no": "13472-59-8",
    "key_name": "3-Bromo-2-methoxypyridine",
    "cn_name": "3-溴-2-甲氧基吡啶;",
    "alternate_name": "Pyridine, 3-bromo-2-methoxy-;3-Bromo-2-methoxypyridine",
    "duplicated_cas_no": "",
    "SMILES": "O(C)C1=C(Br)C=CC=N1",
    "meta_data": {
        "InChI": "InChI=1S/C6H6BrNO/c1-9-6-5(7)3-2-4-8-6/h2-4H,1H3",
        "InChIKey": null,
        "Canonical SMILES": "BrC1=CC=CN=C1OC",
        "Molecular Formula": "C<sub>6</sub>H<sub>6</sub>BrNO",
        "Molecular Mass": "188.02",
        "Boiling Point": "87 °C @ Press: 16 Torr"
    }
}