{
    "cas_no": "2042-37-7",
    "key_name": "2-Bromobenzonitrile",
    "cn_name": "2-溴苯腈;",
    "alternate_name": "Benzonitrile, 2-bromo-;Benzonitrile, <em>o</em>-bromo-;2-Bromobenzonitrile;<em>o</em>-Bromobenzonitrile;1-Bromo-2-cyanobenzene;<em>o</em>-Bromocyanobenzene;1-Cyano-2-bromobenzene;2-Cyanobromobenzene;NSC 59730;2-Cyano-1-bromobenzene",
    "duplicated_cas_no": "",
    "SMILES": "C(#N)C1=C(Br)C=CC=C1",
    "meta_data": {
        "InChI": "InChI=1S/C7H4BrN/c8-7-4-2-1-3-6(7)5-9/h1-4H",
        "InChIKey": null,
        "Canonical SMILES": "N#CC=1C=CC=CC1Br",
        "Molecular Formula": "C<sub>7</sub>H<sub>4</sub>BrN",
        "Molecular Mass": "182.02",
        "Boiling Point": "252 °C",
        "Melting Point": "55.5 °C"
    }
}