{
    "cas_no": "62535-60-8",
    "key_name": "3-Methyl-1-(4-methylphenyl)-1<em>H</em>-pyrazol-5-amine",
    "cn_name": "5-氨基-3-甲基-1-间甲苯基吡唑;",
    "alternate_name": "1<em>H</em>-Pyrazol-5-amine, 3-methyl-1-(4-methylphenyl)-;Pyrazole, 5-amino-3-methyl-1-<em>p</em>-tolyl-;3-Methyl-1-(4-methylphenyl)-1<em>H</em>-pyrazol-5-amine;1-<em>p</em>-Tolyl-3-methyl-5-aminopyrazole;5-Amino-3-methyl-1-(<em>p</em>-tolyl)pyrazole;5-Amino-3-methyl-1-(4-methylphenyl)pyrazole;5-Methyl-2-(4-methylphenyl)-2<em>H</em>-pyrazol-3-ylamine;1-(4-Methylphenyl)-3-methyl-1<em>H</em>-pyrazol-5-amine;3-Methyl-1-(<em>p</em>-tolyl)-1<em>H</em>-pyrazol-5-amine",
    "duplicated_cas_no": "",
    "SMILES": "NC=1N(N=C(C)C1)C2=CC=C(C)C=C2",
    "meta_data": {
        "InChI": "InChI=1S/C11H13N3/c1-8-3-5-10(6-4-8)14-11(12)7-9(2)13-14/h3-7H,12H2,1-2H3",
        "InChIKey": null,
        "Canonical SMILES": "N1=C(C=C(N)N1C2=CC=C(C=C2)C)C",
        "Molecular Formula": "C<sub>11</sub>H<sub>13</sub>N<sub>3</sub>",
        "Molecular Mass": "187.24",
        "Boiling Point": "187-189 °C @ Press: 6 mmHg",
        "Melting Point": "208-209 °C"
    }
}