{
    "cas_no": "9003-05-8",
    "key_name": "Polyacrylamide",
    "cn_name": null,
    "alternate_name": "2-Propenamide, homopolymer;Acrylamide, polymers;Acrylamide polymer;Polyacrylamide;Cyanamer P 250;PAA 1;Sumirez A 27;Pamid;Cyanamer P 35;Sumirez A 17;PAM 50;Solvitose 433;American Cyanamid KPAM;Aminogen PA;AP 273;Dow ET 597;Dow J 100;ET 597;J 100 (polymer);K-PAM;PAM;Cytame 5;P 300 (polyacrylamide);Sursolan P 5;Sanpoly A 520;P 250 (polymer);PAM (homopolymer);American Cyanamid P 250;Himoloc OK 507;J 100;P 250;Acrylamide homopolymer;Himoloc SS 200;Praestol 2800;Versicol W 11;PAA 70L;Polyacrylamide resin;Stokopol D 2624;Flygtol GB;K 4 (acrylic polymer);Gelamide 250;Dow 164;Diaclear MA 3000H;Migunon NS;Calgon 470;K 4;Calgon 800;Plex 4847D;Nalco Lp 3033;Solidokoll K;Polysic;Polymerset C 305;Aron F 40;TY 007;Versicol W 25;DP 1916;Cogum 25H;Polystron 117;KAL 13;Stargum AD-S;P 300;Texapret AM;Polystron 194-7;Get-Down;Nalco 7871;Versicol WN 15;Zonen A;Viterra II;NL;X-Coat P 130C;Sepaflux CE 5174;Praestol 2810/73;Boze Floc N 46BT;Polias 320;GPA-u;AMF;38F;Hiset P 700;Alcoflood 1175;Cogum 20P;Magnifloc 900N;Hiset P 700SN;Praestol 6000;2J;Versicol W 17;KW 677;Polyhall 2J;Nalco 8871;Percol 333;Polyhall 5J;Diaclear MN 3000H;Polyacron KR 143;BanDrift;Sedipur TF;Sedipur TF 514;PC 305;Tulsepar PNS 1;Seabetter AD;Formula 358;Santac SP 66;Mirbane 301;Santac SP 67;DK Dry Capsule ESP;Polystron 191;X-Coat P 180S;E 936;Polystron 145;Pomosist 117;Cyanamer N 300LMW;DP 9-6193;Sumifloc FN 10H;Instar NS;Santac NP 11;Multigel 2/15;Multigel 4/20;Multigel 10/20;Haricoat 1057;Marwit SU 4;DS 415;Lamflood 746;Cyanamer N 100L;Quick Floc;Quick Floc (polymer);Rira Gum SJ 108;RS 7-22;Marwit SU 8;Cyanamer N 300;Cyanamer A 15L;Cyanamer N 100;Cyanamer N 10;H 106 (acrylic resin);X-Coat P 2000H;CM 311;CM 303;H 106;Santac NP 10;KS 533;Polymerset B;Myresin R 10L;Polymerset PJ 911;Santac NP 14;Polymerset 117;TRP 1044;Haricoat G 160;PA 04;Discol 4600;PA 04 (polyacrylamide);Sumirez 886;Colsize WLV;Polytex A 363;Polyacrylon PD 365R;Parasol MG;Santac CS 18;Diaclear MN 3000;Hydraid 6696EZ;Superfloc N 300LMW;2-Propenamide hydrochloride homopolymer;Accotrol S 622;DKS-ORP-F 40NT;Formacryl;Nordfloc AN 920SH;Hiset PN 750;Hiset PN 550;2300S;920MPM;Polymin PR 8140;Polymin KP 2520;Rheolate 402;IPM 320;Orfloc ON 2;ASP 6;Fennopol K 6450;Multifloc 231;CS 141;CS 141 (polymer);Pararokku 2A111;Polymin KE 2025;MS 4000HSF;Amol;Hamacoat P 3800;Nalsize 7541;PS 117;Polymerset 531;Polymerset 460;Cosmogel;CPF 802;Harmide RB 32;DS 470;EX 420;Kuricoat C 402;DP 9-8177;Percol 3335;DALT;Polystron 197;Polystron 1260;Polystron 1274C;Aquamid;WIN-NPH;ST 50000;N 1986;Praestol 2500;PAA;Sanfloc AL 310P;Magnafloc E 30;PS 1250;SFA 120;Haricoat 6045;Polymerset 512;DP-FO;Sedifloc 435C;Sedifloc 438C;Sedifloc 710;Sedifloc 740;Floc 1403C;Floc 1405C;Floc 1408C;Cosmotone Z;PAA 2K;c-PAGEL;Polymin 470;Himoloc ND 270;Superfloc N 1986;PAM-P;PA 07;Polytex EC;Percol 2300;Stockosorb KL;P 3320;EX 288;Haricoat G 51;AK;Aquasorb 3005KB;AK (flocculant);Companion PCT 12;Acryperse M 2000A;Acryperse M 2000H;ND 270;CM 311 (polymer);PF-LENV;Meipam M 200;S 602;Proquim 17-14;Praestol 2510N;VN 728;N 300;N 300MLW;Flopam AN 945;NP 3010;Vistowall 300;Shallol AM 253P;DS 4356;KP 4405;Harmide K 123;Criterion TGX Any kD Stain-Free Precast Gel;Percol 540;Dimar;N 601;N 601 (acrylic polymer);Nisshin Furokku N 70VH;G 9210;FE 2;Hyperfloc NF 221;Ab 995V;Flosperse 3000;FO 4290PG2;FO 4190PG1;XT 65B;Nisshin Furokku N 70M;SNG 3;PAM 3330;YSA 40;HB 600;HB 600 (thickener);TB 031;AH 912SH;C 3012;FA 920SA;F 1260;CT 9-15;Polystron 503;RSL 9400;Takiflock AL 65;CR 501;CR 501 (polyamide);Percol 2305;HWG 13059;Harmide EX 400;MN 3000;C 8540;Polystron 1254;FMA 20;VA 4058FC;JBXXA 001;DS 4352;ORP-F 6NT;PDO 077;PDO 011;2-Propenamide polymer with 2-propanoic acid;P 108471;DS 4429;Floset 150L;DS 744;Floline Size N;GT 001;HJ 2500;LJ 06;HAP 759TF;Yongxing PAM;PM 201;BTJX 003A;WC 24;ASL 00016;Aquagel C 45;A 456;Flobeads AB 300H;Flopam FA 920BPM;926HSU;HA 825;BHNP 01;N 100 (polymer);N 100;KYPAM 10;BYA 9236;Harmide RB 234;SZ 001-02;BMfloc 72526;BMfloc 74026;FO 4190PG0;Sunfor 333;Papformer VL 7035;QF 1604;GR 508B",
    "duplicated_cas_no": "9082-06-8;12624-24-7;25038-45-3;27754-57-0;31566-42-4;33338-03-3;39355-07-2;39387-77-4;51312-40-4;57679-11-5;68247-81-4;72270-86-1;79079-15-5;104981-89-7;114265-35-9;122177-63-3;124262-35-7;129774-19-2;133522-77-7;143180-09-0;143180-13-6;143180-22-7;143749-07-9;200138-95-0;210353-85-8;223905-39-3;443682-77-7;449742-46-5;1226898-28-7;1229457-12-8;1400274-08-9;1621105-90-5;1621105-93-8;2098539-70-7;2113610-86-7;2408159-30-6",
    "SMILES": "C(C=C)(N)=O",
    "meta_data": {
        "InChI": "InChI=1S/C3H5NO/c1-2-3(4)5/h2H,1H2,(H2,4,5)",
        "InChIKey": null,
        "Canonical SMILES": "O=C(N)C=C",
        "Molecular Formula": "(C<sub>3</sub>H<sub>5</sub>NO)<sub>x</sub>",
        "Molecular Mass": "",
        "Melting Point": "246 °C",
        "Density": "1.437 g/cm³"
    }
}