{
    "cas_no": "145400-02-8",
    "key_name": "(1<em>R</em>,4<em>S</em>,4a<em>R</em>,6<em>S</em>,8a<em>R</em>)-Decahydro-4,8a-dimethyl-6-(1-methylethyl)-1,4,6-naphthalenetriol",
    "cn_name": null,
    "alternate_name": "1,4,6-Naphthalenetriol, decahydro-4,8a-dimethyl-6-(1-methylethyl)-, (1<em>R</em>,4<em>S</em>,4a<em>R</em>,6<em>S</em>,8a<em>R</em>)-;1,4,6-Naphthalenetriol, decahydro-4,8a-dimethyl-6-(1-methylethyl)-, [1<em>R</em>-(1α,4α,4aβ,6β,8aα)]-;(1<em>R</em>,4<em>S</em>,4a<em>R</em>,6<em>S</em>,8a<em>R</em>)-Decahydro-4,8a-dimethyl-6-(1-methylethyl)-1,4,6-naphthalenetriol;Eudesmane-1β,4β,7α-triol;1β,4β,7α-Trihydroxyeudesmane;1β,4β,7α-Trihydroxyeudmane",
    "duplicated_cas_no": "",
    "SMILES": "C[C@@]12[C@]([C@@](C)(O)CC[C@H]1O)(C[C@@](C(C)C)(O)CC2)[H]",
    "meta_data": {
        "InChI": "InChI=1S/C15H28O3/c1-10(2)15(18)8-7-13(3)11(9-15)14(4,17)6-5-12(13)16/h10-12,16-18H,5-9H2,1-4H3/t11-,12-,13-,14+,15+/m1/s1",
        "InChIKey": null,
        "Canonical SMILES": "OC1CCC(O)(C)C2CC(O)(CCC12C)C(C)C",
        "Molecular Formula": "C<sub>15</sub>H<sub>28</sub>O<sub>3</sub>",
        "Molecular Mass": "256.38",
        "Melting Point": "138-141 °C"
    }
}