{
    "cas_no": "135-77-3",
    "key_name": "1,2,4-Trimethoxybenzene",
    "cn_name": "1,2,4-三甲氧基苯;",
    "alternate_name": "Benzene, 1,2,4-trimethoxy-;1,2,4-Trimethoxybenzene;1,2,4-Benzenetriol trimethyl ether;TMB 124;1,3,4-Trimethoxybenzene;1,2,5-Trimethoxybenzene;Hydroxyhydroquinone trimethyl ether;2,4-Dimethoxyanisole",
    "duplicated_cas_no": "",
    "SMILES": "O(C)C1=C(OC)C=CC(OC)=C1",
    "meta_data": {
        "InChI": "InChI=1S/C9H12O3/c1-10-7-4-5-8(11-2)9(6-7)12-3/h4-6H,1-3H3",
        "InChIKey": null,
        "Canonical SMILES": "O(C1=CC=C(OC)C(OC)=C1)C",
        "Molecular Formula": "C<sub>9</sub>H<sub>12</sub>O<sub>3</sub>",
        "Molecular Mass": "168.19",
        "Boiling Point": "247 °C"
    }
}