{
    "cas_no": "1480-96-2",
    "key_name": "5-Fluoro-2-methoxy-4(3<em>H</em>)-pyrimidinone",
    "cn_name": "2-甲氧基-5-氟尿嘧啶;",
    "alternate_name": "4(3<em>H</em>)-Pyrimidinone, 5-fluoro-2-methoxy-;4(1<em>H</em>)-Pyrimidinone, 5-fluoro-2-methoxy-;5-Fluoro-2-methoxy-4(3<em>H</em>)-pyrimidinone;NSC 527067;5-Fluoro-4-hydroxy-2-methoxypyrimidine;2-Methoxy-4-hydroxy-5-fluoropyrimidine",
    "duplicated_cas_no": "1480-97-3",
    "SMILES": "O(C)C=1NC(=O)C(F)=CN1",
    "meta_data": {
        "InChI": "InChI=1S/C5H5FN2O2/c1-10-5-7-2-3(6)4(9)8-5/h2H,1H3,(H,7,8,9)",
        "InChIKey": null,
        "Canonical SMILES": "O=C1NC(=NC=C1F)OC",
        "Molecular Formula": "C<sub>5</sub>H<sub>5</sub>FN<sub>2</sub>O<sub>2</sub>",
        "Molecular Mass": "144.10",
        "Melting Point": "206-207 °C"
    }
}