{
    "cas_no": "506-32-1",
    "key_name": "Arachidonic acid",
    "cn_name": "花生四烯酸;5,8,11,14-二十碳四烯酸;",
    "alternate_name": "5,8,11,14-Eicosatetraenoic acid, (5<em>Z</em>,8<em>Z</em>,11<em>Z</em>,14<em>Z</em>)-;5,8,11,14-Eicosatetraenoic acid, (<em>all</em>-<em>Z</em>)-;(5<em>Z</em>,8<em>Z</em>,11<em>Z</em>,14<em>Z</em>)-5,8,11,14-Eicosatetraenoic acid;Arachidonic acid;(<em>all</em>-<em>Z</em>)-5,8,11,14-Eicosatetraenoic acid;<em>all</em>-<em>cis</em>-5,8,11,14-Eicosatetraenoic acid;<em>cis</em>-Δ<sup>5,8,11,14</sup>-Eicosatetraenoic acid;5-<em>cis</em>,8-<em>cis</em>,11-<em>cis</em>,14-<em>cis</em>-Eicosatetraenoic acid;5,8,11,14-<em>all</em>-<em>cis</em>-Eicosatetraenoic acid;5<em>Z</em>,8<em>Z</em>,11<em>Z</em>,14<em>Z</em>-Eicosatetraenoic acid;A 0871;Immunocytophyte;Immunocytophyt;Vevodar;20:4n-6;<em>cis</em>-5-<em>cis</em>-8-<em>cis</em>-11-<em>cis</em>-14-Icosatetraenoic acid;Fatty Acid (20:4);FA(20:4);MeSH ID: D016718;C20:4n",
    "duplicated_cas_no": "929-92-0;10417-93-3;405115-24-4;1262978-13-1",
    "SMILES": "C(=C\\C/C=C\\C/C=C\\CCCCC)\\C/C=C\\CCCC(O)=O",
    "meta_data": {
        "InChI": "InChI=1S/C20H32O2/c1-2-3-4-5-6-7-8-9-10-11-12-13-14-15-16-17-18-19-20(21)22/h6-7,9-10,12-13,15-16H,2-5,8,11,14,17-19H2,1H3,(H,21,22)/b7-6-,10-9-,13-12-,16-15-",
        "InChIKey": null,
        "Canonical SMILES": "O=C(O)CCCC=CCC=CCC=CCC=CCCCCC",
        "Molecular Formula": "C<sub>20</sub>H<sub>32</sub>O<sub>2</sub>",
        "Molecular Mass": "304.47",
        "Boiling Point": "170 °C",
        "Melting Point": "-49.5 °C",
        "Density": "0.9247 g/cm³ @ Temp: 20 °C"
    }
}