{
    "cas_no": "3785-90-8",
    "key_name": "4-Hydroxybenzylidenemalononitrile",
    "cn_name": "4-羟基苯亚甲基丙二腈;",
    "alternate_name": "Propanedinitrile, 2-[(4-hydroxyphenyl)methylene]-;Propanedinitrile, [(4-hydroxyphenyl)methylene]-;Malononitrile, (<em>p</em>-hydroxybenzylidene)-;2-[(4-Hydroxyphenyl)methylene]propanedinitrile;4-Hydroxybenzylidenemalononitrile;<em>p</em>-Hydroxybenzylidenemalononitrile;Tyrphostin 8;Tyrphostin A 8;[(4-Hydroxyphenyl)methylene]propanedinitrile;NSC 1345;2-[(4-Hydroxyphenyl)methylene]malononitrile;2-(4-Hydroxybenzylidene)malononitrile;Tyrphostin AG 10;AG 10;2-[(4-Hydroxyphenyl)methylidene]propanedinitrile",
    "duplicated_cas_no": "2155819-99-9",
    "SMILES": "C(=C(C#N)C#N)C1=CC=C(O)C=C1",
    "meta_data": {
        "InChI": "InChI=1S/C10H6N2O/c11-6-9(7-12)5-8-1-3-10(13)4-2-8/h1-5,13H",
        "InChIKey": null,
        "Canonical SMILES": "N#CC(C#N)=CC1=CC=C(O)C=C1",
        "Molecular Formula": "C<sub>10</sub>H<sub>6</sub>N<sub>2</sub>O",
        "Molecular Mass": "170.17",
        "Melting Point": "196 °C"
    }
}