{
    "cas_no": "1918-11-2",
    "key_name": "Terbucarb",
    "cn_name": "特草克;2，6-二特丁基-对甲苯基甲基氨基甲酸酯；芽根灵;",
    "alternate_name": "Phenol, 2,6-bis(1,1-dimethylethyl)-4-methyl-, 1-(<em>N</em>-methylcarbamate);Carbamic acid, methyl-, 2,6-di-<em>tert</em>-butyl-<em>p</em>-tolyl ester;Phenol, 2,6-bis(1,1-dimethylethyl)-4-methyl-, methylcarbamate;Azak;2,6-Di-<em>tert</em>-butyl-<em>p</em>-tolyl methylcarbamate;Terbutol;2,6-Di-<em>tert</em>-butyl-4-methylphenyl-<em>N</em>-methylcarbamate;MBPMC;Terbucarb",
    "duplicated_cas_no": "",
    "SMILES": "O(C(NC)=O)C1=C(C(C)(C)C)C=C(C)C=C1C(C)(C)C",
    "meta_data": {
        "InChI": "InChI=1S/C17H27NO2/c1-11-9-12(16(2,3)4)14(20-15(19)18-8)13(10-11)17(5,6)7/h9-10H,1-8H3,(H,18,19)",
        "InChIKey": null,
        "Canonical SMILES": "O=C(OC=1C(=CC(=CC1C(C)(C)C)C)C(C)(C)C)NC",
        "Molecular Formula": "C<sub>17</sub>H<sub>27</sub>NO<sub>2</sub>",
        "Molecular Mass": "277.40",
        "Melting Point": "203-204 °C"
    }
}