{
    "cas_no": "13781-67-4",
    "key_name": "3-Thiopheneethanol",
    "cn_name": "2-3-噻吩乙醇;2-(3-噻吩)乙醇;",
    "alternate_name": "3-Thiopheneethanol;2-(3-Thienyl)ethanol;3-(2-Hydroxyethyl)thiophene;2-(3-Thienyl)-1-ethanol;2-(Thiophen-3-yl)ethanol;2-(Thiophen-3-yl)ethan-1-ol",
    "duplicated_cas_no": "",
    "SMILES": "C(CO)C=1C=CSC1",
    "meta_data": {
        "InChI": "InChI=1S/C6H8OS/c7-3-1-6-2-4-8-5-6/h2,4-5,7H,1,3H2",
        "InChIKey": null,
        "Canonical SMILES": "OCCC1=CSC=C1",
        "Molecular Formula": "C<sub>6</sub>H<sub>8</sub>OS",
        "Molecular Mass": "128.19",
        "Boiling Point": "110-111 °C @ Press: 14 Torr",
        "Density": "1.169 g/cm³ @ Temp: 20 °C"
    }
}