{
    "cas_no": "10508-09-5",
    "key_name": "<em>tert</em>-Amyl peroxide",
    "cn_name": "二叔戊基过氧化物;",
    "alternate_name": "Peroxide, bis(1,1-dimethylpropyl);<em>tert</em>-Pentyl peroxide;Bis(1,1-dimethylpropyl) peroxide;Di-<em>tert</em>-amyl peroxide;<em>tert</em>-Amyl peroxide;Peroximon S 172;Trigonox 201;Di-<em>t</em>-amyl peroxide;Luperox DTA;Di-<em>tert</em>-pentyl peroxide",
    "duplicated_cas_no": "",
    "SMILES": "C(OOC(CC)(C)C)(CC)(C)C",
    "meta_data": {
        "InChI": "InChI=1S/C10H22O2/c1-7-9(3,4)11-12-10(5,6)8-2/h7-8H2,1-6H3",
        "InChIKey": null,
        "Canonical SMILES": "O(OC(C)(C)CC)C(C)(C)CC",
        "Molecular Formula": "C<sub>10</sub>H<sub>22</sub>O<sub>2</sub>",
        "Molecular Mass": "174.28",
        "Boiling Point": "44 °C @ Press: 10 Torr",
        "Density": "0.821 g/cm³"
    }
}