{
    "cas_no": "39148-24-8",
    "key_name": "Fosetyl aluminum",
    "cn_name": "三乙膦酸铝;疫霉灵;疫霜灵;乙膦铝;藻菌磷;",
    "alternate_name": "Phosphonic acid, monoethyl ester, aluminum salt (3:1);Phosphonic acid, monoethyl ester, aluminum salt;LS 74-783;Aliette;Aluminum tris(ethyl phosphite);Phosethyl Al;Efosite Al;EXP 1659;Fosetyl Al;Aluminum tris(<em>O</em>-ethylphosphonate);Efal;Fosetyl aluminum;Yilinlu;Efal 50;Ephal;Fosethyl Al;Chipco Aliette Signature;Chipco Signature;Aliette 80WG;Alliete;Sinophos;Aliette Flash;Aliette WP;Aliette WDG;Signature 80 WDG",
    "duplicated_cas_no": "118064-75-8;136752-29-9;35851-69-5;328402-73-9;1135443-39-8",
    "SMILES": "O(P(=O)O)CC.[Al]",
    "meta_data": {
        "InChI": "InChI=1S/C2H7O3P.Al/c1-2-5-6(3)4;/h6H,2H2,1H3,(H,3,4);",
        "InChIKey": null,
        "Canonical SMILES": "[Al].O=P(O)OCC",
        "Molecular Formula": "C<sub>2</sub>H<sub>7</sub>O<sub>3</sub>P.<sup>1</sup>/<sub>3</sub>Al",
        "Molecular Mass": "",
        "Melting Point": "&gt;300 °C"
    }
}