{
    "cas_no": "33575-83-6",
    "key_name": "2-(Chloromethyl)-5-phenyl-1,3,4-oxadiazole",
    "cn_name": null,
    "alternate_name": "1,3,4-Oxadiazole, 2-(chloromethyl)-5-phenyl-;2-(Chloromethyl)-5-phenyl-1,3,4-oxadiazole;2-Chloromethyl-5-phenyl-1,3,4-oxadiazole;2-(Chloromethyl)-5-phenyl-1,3-oxadiazole;NSC 235938",
    "duplicated_cas_no": "2694869-66-2",
    "SMILES": "C(Cl)C=1OC(=NN1)C2=CC=CC=C2",
    "meta_data": {
        "InChI": "InChI=1S/C9H7ClN2O/c10-6-8-11-12-9(13-8)7-4-2-1-3-5-7/h1-5H,6H2",
        "InChIKey": null,
        "Canonical SMILES": "ClCC1=NN=C(O1)C=2C=CC=CC2",
        "Molecular Formula": "C<sub>9</sub>H<sub>7</sub>ClN<sub>2</sub>O",
        "Molecular Mass": "194.62",
        "Melting Point": "118 °C"
    }
}