{
    "cas_no": "13036-19-6",
    "key_name": "4-[[(4-Methoxyphenyl)methylene]amino]benzonitrile",
    "cn_name": "4-[(4-甲氧亚苄基)氨基]苄腈;",
    "alternate_name": "Benzonitrile, 4-[[(4-methoxyphenyl)methylene]amino]-;Benzonitrile, <em>p</em>-[(<em>p</em>-methoxybenzylidene)amino]-;4-[[(4-Methoxyphenyl)methylene]amino]benzonitrile;<em>N</em>-(4-Methoxybenzylidene)-4-cyanoaniline;<em>N</em>-(<em>p</em>-Methoxybenzylidene)-<em>p</em>-cyanoaniline;<em>p</em>-Methoxybenzylidene-<em>p</em>′-aminobenzonitrile;<em>p</em>-Methoxybenzylidene-<em>p</em>′-cyanoaniline;<em>p</em>-[(<em>p</em>-Methoxybenzylidene)amino]benzonitrile;<em>p</em>-Methoxybenzylidene-<em>p</em>-cyanoaniline;<em>p</em>-Cyano-<em>N</em>-(<em>p</em>-methoxybenzylidene)aniline;<em>p</em>-Methoxybenzilidene-<em>p</em>′-cyanoaniline;<em>p</em>-[<em>N</em>-(<em>p</em>′-Methoxybenzylidene)amino]benzonitrile;4-[(4-Methoxybenzylidene)aminol]benzonitrile",
    "duplicated_cas_no": "",
    "SMILES": "C(=NC1=CC=C(C#N)C=C1)C2=CC=C(OC)C=C2",
    "meta_data": {
        "InChI": "InChI=1S/C15H12N2O/c1-18-15-8-4-13(5-9-15)11-17-14-6-2-12(10-16)3-7-14/h2-9,11H,1H3",
        "InChIKey": null,
        "Canonical SMILES": "N#CC1=CC=C(N=CC2=CC=C(OC)C=C2)C=C1",
        "Molecular Formula": "C<sub>15</sub>H<sub>12</sub>N<sub>2</sub>O",
        "Molecular Mass": "236.27",
        "Melting Point": "106 °C"
    }
}