{
    "cas_no": "629-72-1",
    "key_name": "1-Bromopentadecane",
    "cn_name": "1-溴十五烷;溴代十五烷;溴化十五烷;",
    "alternate_name": "Pentadecane, 1-bromo-;1-Bromopentadecane;Pentadecyl bromide;<em>n</em>-Pentadecyl bromide;NSC 133440",
    "duplicated_cas_no": "",
    "SMILES": "C(CCCCCCCC)CCCCCCBr",
    "meta_data": {
        "InChI": "InChI=1S/C15H31Br/c1-2-3-4-5-6-7-8-9-10-11-12-13-14-15-16/h2-15H2,1H3",
        "InChIKey": null,
        "Canonical SMILES": "BrCCCCCCCCCCCCCCC",
        "Molecular Formula": "C<sub>15</sub>H<sub>31</sub>Br",
        "Molecular Mass": "291.31",
        "Boiling Point": "322 °C",
        "Melting Point": "19 °C"
    }
}