{
    "cas_no": "4224-70-8",
    "key_name": "6-Bromohexanoic acid",
    "cn_name": "6-溴己酸;",
    "alternate_name": "Hexanoic acid, 6-bromo-;6-Bromohexanoic acid;ω-Bromohexanoic acid;6-Bromocaproic acid",
    "duplicated_cas_no": "671195-30-5",
    "SMILES": "C(CC(O)=O)CCCBr",
    "meta_data": {
        "InChI": "InChI=1S/C6H11BrO2/c7-5-3-1-2-4-6(8)9/h1-5H2,(H,8,9)",
        "InChIKey": null,
        "Canonical SMILES": "O=C(O)CCCCCBr",
        "Molecular Formula": "C<sub>6</sub>H<sub>11</sub>BrO<sub>2</sub>",
        "Molecular Mass": "195.05",
        "Boiling Point": "165-170 °C @ Press: 20 Torr",
        "Melting Point": "35 °C",
        "Density": "1.4157 g/cm³ @ Temp: 30 °C"
    }
}