{
    "cas_no": "1271-03-0",
    "key_name": "(η<sup>5</sup>-2,4-Cyclopentadien-1-yl)(η<sup>3</sup>-2-propen-1-yl)palladium",
    "cn_name": null,
    "alternate_name": "Palladium, (η<sup>5</sup>-2,4-cyclopentadien-1-yl)(η<sup>3</sup>-2-propen-1-yl)-;Palladium, π-allyl-π-cyclopentadienyl-;Palladium, (η<sup>5</sup>-2,4-cyclopentadien-1-yl)(η<sup>3</sup>-2-propenyl)-;Palladium, π-allylcyclopentadienyl-;Palladium, allylcyclopentadienyl-;(η<sup>5</sup>-2,4-Cyclopentadien-1-yl)(η<sup>3</sup>-2-propen-1-yl)palladium;π-Cyclopentadienyl-π-allylpalladium;π-Allyl-π-cyclopentadienylpalladium;(η<sup>3</sup>-Allyl)(η<sup>5</sup>-cyclopentadienyl)palladium;Allyl(cyclopentadienyl)palladium;Allyl(η<sup>5</sup>-cyclopentadienyl)palladium;(η<sup>3</sup>-Allyl)(cyclopentadienyl)palladium;Allyl (cyclopentadienyl)palladium(II)",
    "duplicated_cas_no": "230310-46-0",
    "SMILES": "[Pd+2]123456([CH-]7[CH]1=[CH]2[CH]3=[CH]47)[CH]([CH2-]5)=[CH2]6",
    "meta_data": {
        "InChI": "InChI=1S/C5H5.C3H5.Pd/c1-2-4-5-3-1;1-3-2;/h1-5H;3H,1-2H2;/q2*-1;+2",
        "InChIKey": null,
        "Canonical SMILES": "[CH2]1=[CH]2[CH2-][Pd+2]123456[CH]=7[CH]6=[CH]5[CH-]4[CH]73",
        "Molecular Formula": "C<sub>8</sub>H<sub>10</sub>Pd",
        "Molecular Mass": "",
        "Melting Point": "60-62 °C",
        "Density": "1.73 g/cm³"
    }
}