{
    "cas_no": "73-22-3",
    "key_name": "<span class=\"text-smallcaps\">L</span>-Tryptophan",
    "cn_name": "L-色氨酸;L-2-氨基-3-吲哚基丙酸;",
    "alternate_name": "<span class=\"text-smallcaps\">L</span>-Tryptophan;Tryptophan, <span class=\"text-smallcaps\">L</span>-;<em>l</em>-β-3-Indolylalanine;Tryptophane;Tryptophan;<span class=\"text-smallcaps\">L</span>-Tryptophane;1<em>H</em>-Indole-3-propanoic acid, α-amino-, (<em>S</em>)-;<span class=\"text-smallcaps\">L</span>-(-)-Tryptophan;<em>l</em>-α-Aminoindole-3-propionic acid;2-Amino-3-indolylpropanoic acid;(<em>S</em>)-α-Aminoindole-3-propionic acid;(-)-Tryptophan;1<em>H</em>-Indole-3-alanine, (<em>S</em>)-;EH 121;(<em>S</em>)-Tryptophan;(<em>S</em>)-α-Amino-1<em>H</em>-indole-3-propanoic acid;(<em>S</em>)-α-Amino-β-indolepropionic acid;3-Indol-3-ylalanine;<span class=\"text-smallcaps\">L</span>-Alanine, 3-(1<em>H</em>-indol-3-yl)-;Lyphan;NSC 13119;(2<em>S</em>)-2-Amino-3-(1<em>H</em>-indol-3-yl)propanoic acid;(<em>S</em>)-2-Amino-3-(1<em>H</em>-indol-3-yl)propanoic acid;(2S)-2-Amino-3-(1<em>H</em>-indol-3-yl)propanoic acid;(2S)-2-Azaniumyl-3-(1<em>H</em>-indol-3-yl)propanoate;MeSH ID: D014364",
    "duplicated_cas_no": "6912-86-3;80206-30-0;154635-35-5;2416148-24-6;2831375-12-1",
    "SMILES": "C([C@@H](C(O)=O)N)C=1C=2C(NC1)=CC=CC2",
    "meta_data": {
        "InChI": "InChI=1S/C11H12N2O2/c12-9(11(14)15)5-7-6-13-10-4-2-1-3-8(7)10/h1-4,6,9,13H,5,12H2,(H,14,15)/t9-/m0/s1",
        "InChIKey": null,
        "Canonical SMILES": "O=C(O)C(N)CC1=CNC=2C=CC=CC21",
        "Molecular Formula": "C<sub>11</sub>H<sub>12</sub>N<sub>2</sub>O<sub>2</sub>",
        "Molecular Mass": "204.23",
        "Melting Point": "282 °C"
    }
}