{
    "cas_no": "18698-97-0",
    "key_name": "2-Bromophenylacetic acid",
    "cn_name": "邻溴苯乙酸;2-溴苯乙酸;",
    "alternate_name": "Benzeneacetic acid, 2-bromo-;Acetic acid, (<em>o</em>-bromophenyl)-;2-Bromobenzeneacetic acid;2-Bromophenylacetic acid;<em>o</em>-Bromophenylacetic acid;2-(2-Bromophenyl)acetic acid",
    "duplicated_cas_no": "",
    "SMILES": "C(C(O)=O)C1=C(Br)C=CC=C1",
    "meta_data": {
        "InChI": "InChI=1S/C8H7BrO2/c9-7-4-2-1-3-6(7)5-8(10)11/h1-4H,5H2,(H,10,11)",
        "InChIKey": null,
        "Canonical SMILES": "O=C(O)CC=1C=CC=CC1Br",
        "Molecular Formula": "C<sub>8</sub>H<sub>7</sub>BrO<sub>2</sub>",
        "Molecular Mass": "215.04",
        "Melting Point": "109 °C"
    }
}