{
    "cas_no": "1145-56-8",
    "key_name": "<em>N</em>-(2-Chloroacetyl)-<span class=\"text-smallcaps\">L</span>-tyrosine",
    "cn_name": "氯乙酰基-L-酪氨酸;N-氯乙酰-L-酪氨酸;",
    "alternate_name": "<span class=\"text-smallcaps\">L</span>-Tyrosine, <em>N</em>-(2-chloroacetyl)-;Tyrosine, <em>N</em>-(chloroacetyl)-, <span class=\"text-smallcaps\">L</span>-;<span class=\"text-smallcaps\">L</span>-Tyrosine, <em>N</em>-(chloroacetyl)-;<em>N</em>-(2-Chloroacetyl)-<span class=\"text-smallcaps\">L</span>-tyrosine;<em>N</em>-(Chloroacetyl)-<span class=\"text-smallcaps\">L</span>-tyrosine;<em>N</em>-Chloroacetyltyrosine;NSC 523824;(2S)-2-[(2-Chloroacetyl)amino]-3-(4-hydroxyphenyl)propanoic acid",
    "duplicated_cas_no": "",
    "SMILES": "C([C@H](NC(CCl)=O)C(O)=O)C1=CC=C(O)C=C1",
    "meta_data": {
        "InChI": "InChI=1S/C11H12ClNO4/c12-6-10(15)13-9(11(16)17)5-7-1-3-8(14)4-2-7/h1-4,9,14H,5-6H2,(H,13,15)(H,16,17)/t9-/m0/s1",
        "InChIKey": null,
        "Canonical SMILES": "O=C(O)C(NC(=O)CCl)CC1=CC=C(O)C=C1",
        "Molecular Formula": "C<sub>11</sub>H<sub>12</sub>ClNO<sub>4</sub>",
        "Molecular Mass": "257.67",
        "Melting Point": "155 °C"
    }
}