{
    "cas_no": "71989-28-1",
    "key_name": "<em>N</em>-[(9<em>H</em>-Fluoren-9-ylmethoxy)carbonyl]-<span class=\"text-smallcaps\">L</span>-methionine",
    "cn_name": "Fmoc-L-蛋氨酸;芴甲氧羰基-L-蛋氨酸;",
    "alternate_name": "<span class=\"text-smallcaps\">L</span>-Methionine, <em>N</em>-[(9<em>H</em>-fluoren-9-ylmethoxy)carbonyl]-;<em>N</em>-[(9<em>H</em>-Fluoren-9-ylmethoxy)carbonyl]-<span class=\"text-smallcaps\">L</span>-methionine;<em>N</em>-(9-Fluorenylmethoxycarbonyl)methionine;<em>N</em>-Fluorenylmethoxycarbonyl-<span class=\"text-smallcaps\">L</span>-methionine;<em>N</em>-(9-Fluorenylmethoxycarbonyl)-<span class=\"text-smallcaps\">L</span>-methionine;NSC 334292;(<em>S</em>)-<em>N</em>-Fmoc-methionine;915: PN: WO2006135786 PAGE: 59 claimed protein;(<em>S</em>)-2-[[[(9<em>H</em>-Fluoren-9-yl)methoxy]carbonyl]amino]-4-methylsulfanylbutanoic acid;224: PN: US20070042401 PAGE: 30 claimed protein;<span class=\"text-smallcaps\">L</span>-Fmoc-Methionine;(2S)-2-(9<em>H</em>-Fluoren-9-ylmethoxycarbonylamino)-4-methylsulfanylbutanoic acid;(2S)-2-[[(9<em>H</em>-Fluoren-9-ylmethoxy)carbonyl]amino]-4-(methylsulfanyl)butanoic acid;(2S)-2-([[(9<em>H</em>-Fluoren-9-yl)methoxy]carbonyl]amino)-4-(methylsulfanyl)butanoic acid",
    "duplicated_cas_no": "126769-12-8",
    "SMILES": "C(OC(N[C@@H](CCSC)C(O)=O)=O)C1C=2C(C=3C1=CC=CC3)=CC=CC2",
    "meta_data": {
        "InChI": "InChI=1S/C20H21NO4S/c1-26-11-10-18(19(22)23)21-20(24)25-12-17-15-8-4-2-6-13(15)14-7-3-5-9-16(14)17/h2-9,17-18H,10-12H2,1H3,(H,21,24)(H,22,23)/t18-/m0/s1",
        "InChIKey": null,
        "Canonical SMILES": "O=C(OCC1C=2C=CC=CC2C=3C=CC=CC31)NC(C(=O)O)CCSC",
        "Molecular Formula": "C<sub>20</sub>H<sub>21</sub>NO<sub>4</sub>S",
        "Molecular Mass": "371.45",
        "Melting Point": "132-136 °C"
    }
}