{
    "cas_no": "7379-12-6",
    "key_name": "2-Methyl-3-hexanone",
    "cn_name": "2-甲基-3-己酮;",
    "alternate_name": "3-Hexanone, 2-methyl-;2-Methyl-3-hexanone;Isopropyl propyl ketone;Propyl isopropyl ketone",
    "duplicated_cas_no": "",
    "SMILES": "C(CCC)(C(C)C)=O",
    "meta_data": {
        "InChI": "InChI=1S/C7H14O/c1-4-5-7(8)6(2)3/h6H,4-5H2,1-3H3",
        "InChIKey": null,
        "Canonical SMILES": "O=C(CCC)C(C)C",
        "Molecular Formula": "C<sub>7</sub>H<sub>14</sub>O",
        "Molecular Mass": "114.19",
        "Boiling Point": "135 °C",
        "Density": "0.8216 g/cm³ @ Temp: 15 °C"
    }
}