{
    "cas_no": "1109-15-5",
    "key_name": "Tris(pentafluorophenyl)borane",
    "cn_name": "三(五氟苯基)硼烷;",
    "alternate_name": "Borane, tris(2,3,4,5,6-pentafluorophenyl)-;Borane, tris(pentafluorophenyl)-;Tris(2,3,4,5,6-pentafluorophenyl)borane;Tris(pentafluorophenyl)borane;Perfluorotriphenylboron;Tris(pentafluorophenyl)boron;Tri(pentafluorophenyl)boron;Tris(perfluorophenyl)borane;Tri(perfluorophenyl)borane;BF 15;Tris(perfluorophenyl)boron;TFPFB",
    "duplicated_cas_no": "",
    "SMILES": "B(C1=C(F)C(F)=C(F)C(F)=C1F)(C2=C(F)C(F)=C(F)C(F)=C2F)C3=C(F)C(F)=C(F)C(F)=C3F",
    "meta_data": {
        "InChI": "InChI=1S/C18BF15/c20-4-1(5(21)11(27)16(32)10(4)26)19(2-6(22)12(28)17(33)13(29)7(2)23)3-8(24)14(30)18(34)15(31)9(3)25",
        "InChIKey": null,
        "Canonical SMILES": "FC=1C(F)=C(F)C(B(C=2C(F)=C(F)C(F)=C(F)C2F)C=3C(F)=C(F)C(F)=C(F)C3F)=C(F)C1F",
        "Molecular Formula": "C<sub>18</sub>BF<sub>15</sub>",
        "Molecular Mass": "511.98",
        "Melting Point": "126-131 °C"
    }
}