{
    "cas_no": "28226-22-4",
    "key_name": "6-Nitro-3,4-dihydro-2<em>H</em>-benzo[1,4]oxazine",
    "cn_name": null,
    "alternate_name": "2<em>H</em>-1,4-Benzoxazine, 3,4-dihydro-6-nitro-;3,4-Dihydro-6-nitro-2<em>H</em>-1,4-benzoxazine;6-Nitro-2,3-dihydrobenz-1,4-oxazine;6-Nitro-3,4-dihydro-2<em>H</em>-benzo[1,4]oxazine;6-Nitro-3,4-dihydro-2<em>H</em>-benzo[<em>b</em>][1,4]oxazine",
    "duplicated_cas_no": "",
    "SMILES": "N(=O)(=O)C=1C=C2C(=CC1)OCCN2",
    "meta_data": {
        "InChI": "InChI=1S/C8H8N2O3/c11-10(12)6-1-2-8-7(5-6)9-3-4-13-8/h1-2,5,9H,3-4H2",
        "InChIKey": null,
        "Canonical SMILES": "O=N(=O)C1=CC=C2OCCNC2=C1",
        "Molecular Formula": "C<sub>8</sub>H<sub>8</sub>N<sub>2</sub>O<sub>3</sub>",
        "Molecular Mass": "180.16",
        "Melting Point": "100-107 °C"
    }
}