{
    "cas_no": "2601-89-0",
    "key_name": "2,3-Dichloropropanenitrile",
    "cn_name": "2,3-二氯丙腈;",
    "alternate_name": "Propanenitrile, 2,3-dichloro-;Propionitrile, 2,3-dichloro-;2,3-Dichloropropanenitrile;2,3-Dichloropropionitrile;α,β-Dichloropropionitrile;NSC 38447",
    "duplicated_cas_no": "",
    "SMILES": "C(CCl)(C#N)Cl",
    "meta_data": {
        "InChI": "InChI=1S/C3H3Cl2N/c4-1-3(5)2-6/h3H,1H2",
        "InChIKey": null,
        "Canonical SMILES": "N#CC(Cl)CCl",
        "Molecular Formula": "C<sub>3</sub>H<sub>3</sub>Cl<sub>2</sub>N",
        "Molecular Mass": "123.97",
        "Boiling Point": "86-87 °C @ Press: 36 Torr",
        "Melting Point": "243 °C (decomp)",
        "Density": "1.338 g/cm³ @ Temp: 20 °C"
    }
}