{
    "cas_no": "35444-44-1",
    "key_name": "Hexanoic acid, 6-chloro-6-oxo-, methyl ester",
    "cn_name": "甲基脂肪酰氯;甲基已二酰氯;Methyl adipyl chloride;Adipic acid monomethyl ester chloride;",
    "alternate_name": "Hexanoic acid, 6-chloro-6-oxo-, methyl ester;Valeric acid, 5-(chloroformyl)-, methyl ester;Methyl adipoyl chloride;Methyl 6-chloro-6-oxohexanoate;Adipic acid monomethyl ester chloride;5-Carbomethoxypentanoyl chloride;5-(Methoxycarbonyl)pentanoyl chloride;Methyl 5-(chlorocarbonyl)pentanoate;Adipic acid methyl ester chloride;Adipic acid chloride methyl ester;Methyl 5-(chloroformyl)pentanoate;Adipoyl chloride monomethyl ester;6-Chloro-6-oxohexanoic acid methyl ester;5-Carbomethoxyvaleryl chloride;5-Chlorocarbonylpentanoic acid methyl ester;Monomethyl adipoyl chloride",
    "duplicated_cas_no": "",
    "SMILES": "C(CCCC(Cl)=O)C(OC)=O",
    "meta_data": {
        "InChI": "InChI=1S/C7H11ClO3/c1-11-7(10)5-3-2-4-6(8)9/h2-5H2,1H3",
        "InChIKey": null,
        "Canonical SMILES": "O=C(Cl)CCCCC(=O)OC",
        "Molecular Formula": "C<sub>7</sub>H<sub>11</sub>ClO<sub>3</sub>",
        "Molecular Mass": "178.61",
        "Boiling Point": "129-130 °C @ Press: 24 Torr",
        "Density": "1.145 g/cm³ @ Temp: 20 °C"
    }
}