{
    "cas_no": "60899-34-5",
    "key_name": "2,3-Dihydro-1-oxo-1<em>H</em>-indene-4-carbonitrile",
    "cn_name": "4-氰基-1-茚满酮; 2,3-二氢-1-氧代-1H-茚-4-甲腈;",
    "alternate_name": "1<em>H</em>-Indene-4-carbonitrile, 2,3-dihydro-1-oxo-;2,3-Dihydro-1-oxo-1<em>H</em>-indene-4-carbonitrile;4-Cyanoindanone;4-Cyano-1-indanone;1-Oxo-indan-4-carbonitrile;1-Oxoindane-4-carbonitrile;1-Oxo-2,3-dihydroindene-4-carbonitrile",
    "duplicated_cas_no": "",
    "SMILES": "C(#N)C1=C2C(C(=O)CC2)=CC=C1",
    "meta_data": {
        "InChI": "InChI=1S/C10H7NO/c11-6-7-2-1-3-9-8(7)4-5-10(9)12/h1-3H,4-5H2",
        "InChIKey": null,
        "Canonical SMILES": "N#CC1=CC=CC=2C(=O)CCC12",
        "Molecular Formula": "C<sub>10</sub>H<sub>7</sub>NO",
        "Molecular Mass": "157.17",
        "Melting Point": "116-117 °C"
    }
}