{
    "cas_no": "17178-10-8",
    "key_name": "2-Methoxyethyl <em>p</em>-toluenesulfonate",
    "cn_name": null,
    "alternate_name": "Ethanol, 2-methoxy-, 1-(4-methylbenzenesulfonate);Ethanol, 2-methoxy-, <em>p</em>-toluenesulfonate;Ethanol, 2-methoxy-, 4-methylbenzenesulfonate;<em>p</em>-Toluenesulfonic acid β-methoxyethyl ester;2-Methoxyethyl <em>p</em>-toluenesulfonate;β-Methoxyethyl <em>p</em>-toluenesulfonate;2-Methoxyethyl tosylate;2-Methoxyethanol tosylate;3-Oxabutyl tosylate;<em>p</em>-Toluenesulfonic acid 2-methoxyethyl ester;2-Methoxyethyl toluenesulfonate;Ethylene glycol methyl ether tosylate;2-Methoxyethyl <em>p</em>-tolylsulfonyloxy ester;2-Methoxyethyl 4-methylbenzenesulfonate;4-Toluenesulfonic acid 2-methoxyethyl ester",
    "duplicated_cas_no": "187250-61-9;188266-38-8",
    "SMILES": "S(OCCOC)(=O)(=O)C1=CC=C(C)C=C1",
    "meta_data": {
        "InChI": "InChI=1S/C10H14O4S/c1-9-3-5-10(6-4-9)15(11,12)14-8-7-13-2/h3-6H,7-8H2,1-2H3",
        "InChIKey": null,
        "Canonical SMILES": "O=S(=O)(OCCOC)C1=CC=C(C=C1)C",
        "Molecular Formula": "C<sub>10</sub>H<sub>14</sub>O<sub>4</sub>S",
        "Molecular Mass": "230.28",
        "Boiling Point": "110-117 °C @ Press: 0.075 Torr"
    }
}