{
    "cas_no": "57260-73-8",
    "key_name": "<em>N</em>-BOC-ethylenediamine",
    "cn_name": "N-叔丁氧羰基-1,2-乙二胺;N-(2-氨基乙基)氨基甲酸叔丁酯;",
    "alternate_name": "Carbamic acid, <em>N</em>-(2-aminoethyl)-, 1,1-dimethylethyl ester;Carbamic acid, (2-aminoethyl)-, 1,1-dimethylethyl ester;<em>N</em>-(<em>tert</em>-Butoxycarbonyl)ethylenediamine;<em>tert</em>-Butyl (2-aminoethyl)carbamate;<em>N</em>-(<em>tert</em>-Butoxycarbonyl)-1,2-ethanediamine;1,1-Dimethylethyl (2-aminoethyl)carbamate;<em>tert</em>-Butyl [(2-aminoethyl)amino]formate;<em>N</em>-(<em>t</em>-Butyloxycarbonyl)ethylenediamine;<em>N</em>-(<em>tert</em>-Butoxycarbonyl)-1,2-diaminoethane;2-[(<em>tert</em>-Butoxycarbonyl)amino]ethylamine;1-[(<em>tert</em>-Butoxycarbonyl)amino]-2-aminoethane;mono-BOC-ethylenediamine;<em>N</em>-(2-Aminoethyl)carbamic acid <em>tert</em>-butyl ester;<em>N</em>-BOC-ethylenediamine;<em>N</em>-(2-Aminoethyl)carbamic acid 1,1-dimethylethyl ester;2-(<em>N</em>-<em>tert</em>-Butoxycarbonylamino)ethylamine;(2-Aminoethyl)carbamic acid 1,1-dimethylethyl ester;(2-Aminoethyl)carbamic acid <em>tert</em>-butyl ester;N-Boc-1,2-diaminoethane;<em>N</em>-Boc-ethane-1,2-diamine;2-[[(<em>tert</em>-Butyloxy)carbonyl]amino]ethylamine;2-(<em>tert</em>-Butoxycarbonyl)amino-1-aminoethane;<em>N</em>-<em>tert</em>-Butoxycarbonyl-1,2-ethylenediamine;<em>tert</em>-Butyl <em>N</em>-(2-aminoethyl)carbamate;[(<em>tert</em>-Butyloxy)carbonyl]-1,2-ethylenediamine;<em>N</em>-Boc-1,2-ethylendiamine",
    "duplicated_cas_no": "",
    "SMILES": "O(C(NCCN)=O)C(C)(C)C",
    "meta_data": {
        "InChI": "InChI=1S/C7H16N2O2/c1-7(2,3)11-6(10)9-5-4-8/h4-5,8H2,1-3H3,(H,9,10)",
        "InChIKey": null,
        "Canonical SMILES": "O=C(OC(C)(C)C)NCCN",
        "Molecular Formula": "C<sub>7</sub>H<sub>16</sub>N<sub>2</sub>O<sub>2</sub>",
        "Molecular Mass": "160.21",
        "Melting Point": "64-66 °C"
    }
}