{
    "cas_no": "6575-00-4",
    "key_name": "3,5-Dichlorobenzonitrile",
    "cn_name": "3,5-二氯苯腈;",
    "alternate_name": "Benzonitrile, 3,5-dichloro-;3,5-Dichlorobenzonitrile;NSC 109596",
    "duplicated_cas_no": "",
    "SMILES": "C(#N)C1=CC(Cl)=CC(Cl)=C1",
    "meta_data": {
        "InChI": "InChI=1S/C7H3Cl2N/c8-6-1-5(4-10)2-7(9)3-6/h1-3H",
        "InChIKey": null,
        "Canonical SMILES": "N#CC=1C=C(Cl)C=C(Cl)C1",
        "Molecular Formula": "C<sub>7</sub>H<sub>3</sub>Cl<sub>2</sub>N",
        "Molecular Mass": "172.01",
        "Melting Point": "64-65 °C"
    }
}