{
    "cas_no": "40188-45-2",
    "key_name": "2-Acetyl-4-butyramidophenol",
    "cn_name": "2-乙酰基-4-丁酰胺基苯酚;",
    "alternate_name": "Butanamide, <em>N</em>-(3-acetyl-4-hydroxyphenyl)-;<em>N</em>-(3-Acetyl-4-hydroxyphenyl)butanamide;2-Acetyl-4-butyramidophenol;3′-Acetyl-4′-hydroxybutyranilide;<em>N</em>-(3-Acetyl-4-hydroxyphenyl)butyramide",
    "duplicated_cas_no": "",
    "SMILES": "N(C(CCC)=O)C1=CC(C(C)=O)=C(O)C=C1",
    "meta_data": {
        "InChI": "InChI=1S/C12H15NO3/c1-3-4-12(16)13-9-5-6-11(15)10(7-9)8(2)14/h5-7,15H,3-4H2,1-2H3,(H,13,16)",
        "InChIKey": null,
        "Canonical SMILES": "O=C(C1=CC(=CC=C1O)NC(=O)CCC)C",
        "Molecular Formula": "C<sub>12</sub>H<sub>15</sub>NO<sub>3</sub>",
        "Molecular Mass": "221.25",
        "Melting Point": "118-119 °C"
    }
}