{
    "cas_no": "109-82-0",
    "key_name": "2-(Methyleneamino)acetonitrile",
    "cn_name": "N-亚甲氨基乙腈;",
    "alternate_name": "Acetonitrile, 2-(methyleneamino)-;Acetonitrile, (methyleneamino)-;Glycinonitrile, <em>N</em>-methylene-;2-(Methyleneamino)acetonitrile;<em>N</em>-methylene-glycinonitrile;MAAN;Methyleneaminoacetonitrile;NSC 128385;NSC 3486;NSC 57883;2-(Methylideneamino)acetonitrile",
    "duplicated_cas_no": "",
    "SMILES": "C(C#N)N=C",
    "meta_data": {
        "InChI": "InChI=1S/C3H4N2/c1-5-3-2-4/h1,3H2",
        "InChIKey": null,
        "Canonical SMILES": "N#CCN=C",
        "Molecular Formula": "C<sub>3</sub>H<sub>4</sub>N<sub>2</sub>",
        "Molecular Mass": "68.08",
        "Melting Point": "129 °C"
    }
}