{
    "cas_no": "6974-78-3",
    "key_name": "8-Bromo-9<em>H</em>-purin-6-amine",
    "cn_name": "8-溴腺嘌呤;6-氨基-8-溴嘌呤;",
    "alternate_name": "9<em>H</em>-Purin-6-amine, 8-bromo-;Adenine, 8-bromo-;1<em>H</em>-Purin-6-amine, 8-bromo-;8-Bromo-9<em>H</em>-purin-6-amine;8-Bromoadenine;6-Amino-8-bromopurine;NSC 21697",
    "duplicated_cas_no": "",
    "SMILES": "NC1=C2C(N=C(Br)N2)=NC=N1",
    "meta_data": {
        "InChI": "InChI=1S/C5H4BrN5/c6-5-10-2-3(7)8-1-9-4(2)11-5/h1H,(H3,7,8,9,10,11)",
        "InChIKey": null,
        "Canonical SMILES": "BrC1=NC=2N=CN=C(N)C2N1",
        "Molecular Formula": "C<sub>5</sub>H<sub>4</sub>BrN<sub>5</sub>",
        "Molecular Mass": "214.02",
        "Melting Point": "&gt;260 °C"
    }
}