{
    "cas_no": "4741-53-1",
    "key_name": "Tetraphenylphthalic anhydride",
    "cn_name": null,
    "alternate_name": "1,3-Isobenzofurandione, 4,5,6,7-tetraphenyl-;[<em>m</em>-Terphenyl]-4′,5′-dicarboxylic anhydride, 2′,6′-diphenyl-;Phthalic anhydride, tetraphenyl-;4,5,6,7-Tetraphenyl-1,3-isobenzofurandione;[1,1′:4′,1′′-Terphenyl]-2′,3′-dicarboxylic anhydride, 5′,6′-diphenyl-;[1,1′:2′,1′′-Terphenyl]-3′,4′-dicarboxylic anhydride, 5′,6′-diphenyl-;Tetraphenylphthalic anhydride;3,4,5,6-Tetraphenylphthalic anhydride;NSC 46729",
    "duplicated_cas_no": "",
    "SMILES": "O=C1C2=C(C(=C(C(=C2C(=O)O1)C3=CC=CC=C3)C4=CC=CC=C4)C5=CC=CC=C5)C6=CC=CC=C6",
    "meta_data": {
        "InChI": "InChI=1S/C32H20O3/c33-31-29-27(23-17-9-3-10-18-23)25(21-13-5-1-6-14-21)26(22-15-7-2-8-16-22)28(30(29)32(34)35-31)24-19-11-4-12-20-24/h1-20H",
        "InChIKey": null,
        "Canonical SMILES": "O=C1OC(=O)C2=C1C(C=3C=CC=CC3)=C(C=4C=CC=CC4)C(C=5C=CC=CC5)=C2C=6C=CC=CC6",
        "Molecular Formula": "C<sub>32</sub>H<sub>20</sub>O<sub>3</sub>",
        "Molecular Mass": "452.50",
        "Melting Point": "286 °C"
    }
}