{
    "cas_no": "40278-59-9",
    "key_name": "3,3′,4,4′-Tetrahydro-4,4,4′,4′,7,7′-hexamethyl-2,2′-spirobi[2<em>H</em>-1-benzopyran]-6,6′-diol",
    "cn_name": "7,7’-二甲基-6,6’-二羟基-4,4,4’,4’-四甲基-二-2,2’-螺苯二氢吡喃;",
    "alternate_name": "2,2′-Spirobi[2<em>H</em>-1-benzopyran]-6,6′-diol, 3,3′,4,4′-tetrahydro-4,4,4′,4′,7,7′-hexamethyl-;3,3′,4,4′-Tetrahydro-4,4,4′,4′,7,7′-hexamethyl-2,2′-spirobi[2<em>H</em>-1-benzopyran]-6,6′-diol;6,6′-Dihydroxy-4,4,4′,4′,7,7′-hexamethylbis-2,2′-spirochroman;6,6′-Dihydroxy-4,4,4′,4′,7,7′-hexamethyl-2,2′-spirobichroman;OHM-SP;2,2′-Spirobi[6-hydroxy-4,4,7-trimethylchromane];A 3880",
    "duplicated_cas_no": "",
    "SMILES": "CC1(C)CC2(OC=3C(C(C)(C)C2)=CC(O)=C(C)C3)OC=4C1=CC(O)=C(C)C4",
    "meta_data": {
        "InChI": "InChI=1S/C23H28O4/c1-13-7-19-15(9-17(13)24)21(3,4)11-23(26-19)12-22(5,6)16-10-18(25)14(2)8-20(16)27-23/h7-10,24-25H,11-12H2,1-6H3",
        "InChIKey": null,
        "Canonical SMILES": "OC=1C=C2C(OC3(OC4=CC(=C(O)C=C4C(C)(C)C3)C)CC2(C)C)=CC1C",
        "Molecular Formula": "C<sub>23</sub>H<sub>28</sub>O<sub>4</sub>",
        "Molecular Mass": "368.47",
        "Melting Point": "200-201 °C"
    }
}