{
    "cas_no": "1067-09-0",
    "key_name": "1,3-Dichloro-2-(chloromethyl)-2-methylpropane",
    "cn_name": "1,1,1-三氯甲基乙烷;",
    "alternate_name": "Propane, 1,3-dichloro-2-(chloromethyl)-2-methyl-;1,3-Dichloro-2-(chloromethyl)-2-methylpropane;1-Chloro-2,2-di(chloromethyl)propane;1,1,1-Tris(chloromethyl)ethane;2-(Chloromethyl)-2-methyl-1,3-dichloropropane;NSC 151253;2-Chloromethyl-1,3-dichloro-2-methylpropane;1,1,1-Trichloromethylethane;2,2-Bis(chloromethyl)-1-chloropropane",
    "duplicated_cas_no": "",
    "SMILES": "C(CCl)(CCl)(CCl)C",
    "meta_data": {
        "InChI": "InChI=1S/C5H9Cl3/c1-5(2-6,3-7)4-8/h2-4H2,1H3",
        "InChIKey": null,
        "Canonical SMILES": "ClCC(C)(CCl)CCl",
        "Molecular Formula": "C<sub>5</sub>H<sub>9</sub>Cl<sub>3</sub>",
        "Molecular Mass": "175.48",
        "Boiling Point": "49-50 °C @ Press: 2 Torr"
    }
}