{
    "cas_no": "2439-85-2",
    "key_name": "<em>N</em>-Bromophthalimide",
    "cn_name": "N-溴邻苯二甲酰亚胺;N-溴酞亚胺;",
    "alternate_name": "1<em>H</em>-Isoindole-1,3(2<em>H</em>)-dione, 2-bromo-;Phthalimide, <em>N</em>-bromo-;2-Bromo-1<em>H</em>-isoindole-1,3(2<em>H</em>)-dione;<em>N</em>-Bromophthalimide;NSC 3525;2-Bromoisoindole-1,3-dione;2-Bromoisoindoline-1,3-dione;2-Bromo-2,3-dihydro-1<em>H</em>-isoindole-1,3-dione",
    "duplicated_cas_no": "",
    "SMILES": "O=C1C=2C(C(=O)N1Br)=CC=CC2",
    "meta_data": {
        "InChI": "InChI=1S/C8H4BrNO2/c9-10-7(11)5-3-1-2-4-6(5)8(10)12/h1-4H",
        "InChIKey": null,
        "Canonical SMILES": "O=C1C=2C=CC=CC2C(=O)N1Br",
        "Molecular Formula": "C<sub>8</sub>H<sub>4</sub>BrNO<sub>2</sub>",
        "Molecular Mass": "226.03",
        "Melting Point": "199-201 °C"
    }
}