{
    "cas_no": "71989-33-8",
    "key_name": "<em>N</em>-(9-Fluorenylmethoxycarbonyl)-<em>O</em>-<em>tert</em>-butylserine",
    "cn_name": "FMOC-O-叔丁基-L-丝氨酸;N-(9-芴甲氧羰酰基)-O-叔丁基-L-丝氨酸;",
    "alternate_name": "<span class=\"text-smallcaps\">L</span>-Serine, <em>O</em>-(1,1-dimethylethyl)-<em>N</em>-[(9<em>H</em>-fluoren-9-ylmethoxy)carbonyl]-;<em>O</em>-(1,1-Dimethylethyl)-<em>N</em>-[(9<em>H</em>-fluoren-9-ylmethoxy)carbonyl]-<span class=\"text-smallcaps\">L</span>-serine;<em>N</em>-(9-Fluorenylmethoxycarbonyl)-<em>O</em>-<em>tert</em>-butylserine;<em>O</em>-<em>tert</em>-Butyl-<em>N</em>-(9-fluorenylmethoxycarbonyl)serine;(2<em>S</em>)-3-<em>tert</em>-Butoxy-2-[[[(9<em>H</em>-fluoren-9-yl)methoxy]carbonyl]amino]propanoic acid;Fmoc-Ser(OtBu)-OH;Fmoc-L-Ser(tBu)-OH;(2S)-3-(<em>tert</em>-Butoxy)-2-([[(9<em>H</em>-fluoren-9-yl)methoxy]carbonyl]amino)propanoic acid;(2S)-2-(9<em>H</em>-Fluoren-9-ylmethoxycarbonylamino)-3-[(2-methylpropan-2-yl)oxy]propanoic acid",
    "duplicated_cas_no": "487011-58-5;1454836-22-6;2041577-21-1",
    "SMILES": "C(OC(N[C@@H](COC(C)(C)C)C(O)=O)=O)C1C=2C(C=3C1=CC=CC3)=CC=CC2",
    "meta_data": {
        "InChI": "InChI=1S/C22H25NO5/c1-22(2,3)28-13-19(20(24)25)23-21(26)27-12-18-16-10-6-4-8-14(16)15-9-5-7-11-17(15)18/h4-11,18-19H,12-13H2,1-3H3,(H,23,26)(H,24,25)/t19-/m0/s1",
        "InChIKey": null,
        "Canonical SMILES": "O=C(OCC1C=2C=CC=CC2C=3C=CC=CC31)NC(C(=O)O)COC(C)(C)C",
        "Molecular Formula": "C<sub>22</sub>H<sub>25</sub>NO<sub>5</sub>",
        "Molecular Mass": "383.44",
        "Melting Point": "128-131 °C"
    }
}