{
    "cas_no": "875-35-4",
    "key_name": "2,6-Dichloro-4-methyl-3-pyridinecarbonitrile",
    "cn_name": "3-氰基-4-甲基-2,6-二氯吡啶;3-氰基-2,6-二氯-4-甲基吡啶;",
    "alternate_name": "3-Pyridinecarbonitrile, 2,6-dichloro-4-methyl-;Nicotinonitrile, 2,6-dichloro-4-methyl-;2,6-Dichloro-4-methyl-3-pyridinecarbonitrile;3-Cyano-2,6-dichloro-4-methylpyridine;2,6-Dichloro-3-cyano-4-methylpyridine;2,6-Dichloro-4-methylnicotinonitrile;Dicnil;NSC 19881",
    "duplicated_cas_no": "",
    "SMILES": "C(#N)C=1C(C)=CC(Cl)=NC1Cl",
    "meta_data": {
        "InChI": "InChI=1S/C7H4Cl2N2/c1-4-2-6(8)11-7(9)5(4)3-10/h2H,1H3",
        "InChIKey": null,
        "Canonical SMILES": "N#CC=1C(Cl)=NC(Cl)=CC1C",
        "Molecular Formula": "C<sub>7</sub>H<sub>4</sub>Cl<sub>2</sub>N<sub>2</sub>",
        "Molecular Mass": "187.03",
        "Boiling Point": "116-118 °C @ Press: 5 Torr",
        "Melting Point": "110-110.5 °C"
    }
}