{
    "cas_no": "84-22-0",
    "key_name": "(±)-Tetrahydrozoline",
    "cn_name": "四氢唑啉;四氢萘咪唑;4,5-二氢-2-(1,2,3,4-四氢-1-萘基)-1H-咪唑;",
    "alternate_name": "1<em>H</em>-Imidazole, 4,5-dihydro-2-(1,2,3,4-tetrahydro-1-naphthalenyl)-;2-Imidazoline, 2-(1,2,3,4-tetrahydro-1-naphthyl)-;4,5-Dihydro-2-(1,2,3,4-tetrahydro-1-naphthalenyl)-1<em>H</em>-imidazole;2-(1,2,3,4-Tetrahydro-1-naphthyl)-2-imidazoline;Tetrahydrozoline;Tetryzoline;Tetryzolin;<em>dl</em>-Tetrahydrozoline;(±)-Tetrahydrozoline;Ocuzolin;Tetryvil;2-(1,2,3,4-Tetrahydronaphthalen-1-yl)-4,5-dihydro-1<em>H</em>-imidazole",
    "duplicated_cas_no": "67731-52-6",
    "SMILES": "C1(C=2C(CCC1)=CC=CC2)C=3NCCN3",
    "meta_data": {
        "InChI": "InChI=1S/C13H16N2/c1-2-6-11-10(4-1)5-3-7-12(11)13-14-8-9-15-13/h1-2,4,6,12H,3,5,7-9H2,(H,14,15)",
        "InChIKey": null,
        "Canonical SMILES": "N1=C(NCC1)C2C=3C=CC=CC3CCC2",
        "Molecular Formula": "C<sub>13</sub>H<sub>16</sub>N<sub>2</sub>",
        "Molecular Mass": "200.28",
        "Melting Point": "117-119 °C"
    }
}