{
    "cas_no": "6665-67-4",
    "key_name": "5,4′-Dihydroxyflavone",
    "cn_name": "5,4 \"-二羟基黄酮;5,4\"-二羟基黄酮;",
    "alternate_name": "4<em>H</em>-1-Benzopyran-4-one, 5-hydroxy-2-(4-hydroxyphenyl)-;Flavone, 4′,5-dihydroxy-;5-Hydroxy-2-(4-hydroxyphenyl)-4<em>H</em>-1-benzopyran-4-one;4′,5-Dihydroxyflavone;5,4′-Dihydroxyflavone;5-Hydroxy-2-(4-Hydroxyphenyl)chromen-4-one;5-Hydroxy-2-(4-hydroxyphenyl)-4<em>H</em>-chromen-4-one",
    "duplicated_cas_no": "",
    "SMILES": "O=C1C=2C(OC(=C1)C3=CC=C(O)C=C3)=CC=CC2O",
    "meta_data": {
        "InChI": "InChI=1S/C15H10O4/c16-10-6-4-9(5-7-10)14-8-12(18)15-11(17)2-1-3-13(15)19-14/h1-8,16-17H",
        "InChIKey": null,
        "Canonical SMILES": "O=C1C=C(OC=2C=CC=C(O)C12)C=3C=CC(O)=CC3",
        "Molecular Formula": "C<sub>15</sub>H<sub>10</sub>O<sub>4</sub>",
        "Molecular Mass": "254.24",
        "Melting Point": "237-240 °C"
    }
}