{
    "cas_no": "16523-31-2",
    "key_name": "1,3-Benzenediol, 4,6-diamino-, hydrochloride (1:2)",
    "cn_name": "4,6-二氨基间苯二酚二盐酸盐;",
    "alternate_name": "1,3-Benzenediol, 4,6-diamino-, hydrochloride (1:2);Resorcinol, 4,6-diamino-, dihydrochloride;1,3-Benzenediol, 4,6-diamino-, dihydrochloride;4,6-Diaminoresorcinol dihydrochloride;4,6-Diamino-1,3-benzenediol dihydrochloride;4,6-Diaminoresorcin dihydrochloride;1,3-Diamino-4,6-dihydroxybenzene dihydrochloride;6-Dihydroxy-<em>m</em>-phenylenediamine dihydrochloride;4,6-Diamino-1,3-dihydroxybenzene dihydrochloride",
    "duplicated_cas_no": "77792-41-7",
    "SMILES": "NC1=C(O)C=C(O)C(N)=C1.Cl",
    "meta_data": {
        "InChI": "InChI=1S/C6H8N2O2.2ClH/c7-3-1-4(8)6(10)2-5(3)9;;/h1-2,9-10H,7-8H2;2*1H",
        "InChIKey": null,
        "Canonical SMILES": "Cl.OC=1C=C(O)C(N)=CC1N",
        "Molecular Formula": "C<sub>6</sub>H<sub>8</sub>N<sub>2</sub>O<sub>2</sub>.2ClH",
        "Molecular Mass": "",
        "Melting Point": "&gt;260 °C"
    }
}