{
    "cas_no": "85-52-9",
    "key_name": "2-Benzoylbenzoic acid",
    "cn_name": "邻苯甲酰苯甲酸;BB酸;",
    "alternate_name": "Benzoic acid, 2-benzoyl-;Benzoic acid, <em>o</em>-benzoyl-;2-Benzoylbenzoic acid;<em>o</em>-Benzoylbenzoic acid;Benzophenone-2-carboxylic acid;2-Carboxybenzophenone;2-Benzoquinonecarboxylic acid;Benzophenone-2-carbonic acid;<em>o</em>-Carboxybenzophenone;SKP 10A;Ortho-benzoylbenzoic acid;NSC 6646;SKP 10AT",
    "duplicated_cas_no": "",
    "SMILES": "C(=O)(C1=C(C(O)=O)C=CC=C1)C2=CC=CC=C2",
    "meta_data": {
        "InChI": "InChI=1S/C14H10O3/c15-13(10-6-2-1-3-7-10)11-8-4-5-9-12(11)14(16)17/h1-9H,(H,16,17)",
        "InChIKey": null,
        "Canonical SMILES": "O=C(O)C=1C=CC=CC1C(=O)C=2C=CC=CC2",
        "Molecular Formula": "C<sub>14</sub>H<sub>10</sub>O<sub>3</sub>",
        "Molecular Mass": "226.23",
        "Melting Point": "127-129 °C"
    }
}