{
    "cas_no": "5117-07-7",
    "key_name": "5,5′-Dithiobis[1-phenyl-1<em>H</em>-tetrazole]",
    "cn_name": "5,5-二硫-1,1-双苯基四氮唑;",
    "alternate_name": "1<em>H</em>-Tetrazole, 5,5′-dithiobis[1-phenyl-;1<em>H</em>-Tetrazole, 5,5-dithiobis[1-phenyl-;5,5′-Dithiobis[1-phenyl-1<em>H</em>-tetrazole];Bis(1-phenyl-1<em>H</em>-tetrazol-5-yl) disulfide;5,5′-Dithiobis(1-phenyl-1<em>H</em>-tetrazole);Bis(1-phenyl-5-tetrazolyl) disulfide;5,5′-Dithiobis(1-phenyl-1H-tetrazole);1-Phenyl-5-[(1-phenyl-1<em>H</em>-1,2,3,4-tetrazol-5-yl)disulfanyl]-1<em>H</em>-1,2,3,4-tetrazole;1-Phenyl-5-[(1-phenyltetrazol-5-yl)disulfanyl]tetrazole",
    "duplicated_cas_no": "",
    "SMILES": "S(SC=1N(N=NN1)C2=CC=CC=C2)C=3N(N=NN3)C4=CC=CC=C4",
    "meta_data": {
        "InChI": "InChI=1S/C14H10N8S2/c1-3-7-11(8-4-1)21-13(15-17-19-21)23-24-14-16-18-20-22(14)12-9-5-2-6-10-12/h1-10H",
        "InChIKey": null,
        "Canonical SMILES": "N=1N=C(SSC2=NN=NN2C=3C=CC=CC3)N(N1)C=4C=CC=CC4",
        "Molecular Formula": "C<sub>14</sub>H<sub>10</sub>N<sub>8</sub>S<sub>2</sub>",
        "Molecular Mass": "354.41",
        "Melting Point": "58-60 °C"
    }
}