{
    "cas_no": "50-89-5",
    "key_name": "Thymidine",
    "cn_name": "beta-胸苷;beta-胸甙;胸腺嘧啶脱氧核苷;2\"-脱氧胸腺嘧啶核苷;",
    "alternate_name": "Thymidine;dT;Thymine 2-desoxyriboside;Uridine, 2′-deoxy-5-methyl-;5-Methyldeoxyuridine;β-<span class=\"text-smallcaps\">D</span>-Ribofuranoside, thymine-1 2-deoxy-;2,4(1<em>H</em>,3<em>H</em>)-Pyrimidinedione, 1-(2-deoxy-β-<span class=\"text-smallcaps\">D</span>-<em>erythro</em>-pentofuranosyl)-5-methyl-;Deoxythymidine;Thymine deoxyriboside;2′-Deoxythymidine;Thymidin;DThyd;1-(2-Deoxy-β-<span class=\"text-smallcaps\">D</span>-<em>erythro</em>-pentofuranosyl)-5-methyl-2,4(1<em>H</em>,3<em>H</em>)-pyrimidinedione;Deoxyribothymidine;5-Methyl-2′-deoxyuridine;NSC 21548;10: PN: CN101531718 PAGE: 4 claimed sequence;5: PN: CN104513856 PAGE: 2 claimed sequence;β-Thymidine;31: PN: CN108866051 SEQID: 31 claimed sequence;Doxribtimine;20: PN: WO2022263569 PAGE: 208 claimed sequence;MeSH ID: D013936",
    "duplicated_cas_no": "35902-13-7",
    "SMILES": "O=C1N([C@@H]2O[C@H](CO)[C@@H](O)C2)C=C(C)C(=O)N1",
    "meta_data": {
        "InChI": "InChI=1S/C10H14N2O5/c1-5-3-12(10(16)11-9(5)15)8-2-6(14)7(4-13)17-8/h3,6-8,13-14H,2,4H2,1H3,(H,11,15,16)/t6-,7+,8+/m0/s1",
        "InChIKey": null,
        "Canonical SMILES": "O=C1NC(=O)N(C=C1C)C2OC(CO)C(O)C2",
        "Molecular Formula": "C<sub>10</sub>H<sub>14</sub>N<sub>2</sub>O<sub>5</sub>",
        "Molecular Mass": "242.23",
        "Melting Point": "186.5 °C"
    }
}