{
    "cas_no": "4836-13-9",
    "key_name": "<em>N</em><sup>4</sup>-Benzoyl-2′-deoxycytidine",
    "cn_name": "N-苯甲酰-2\"-脱氧胞苷;N-苯甲酰-2\"-脱氧胞甙;",
    "alternate_name": "Cytidine, <em>N</em>-benzoyl-2′-deoxy-;Benzamide, <em>N</em>-[1-(2-deoxy-β-<span class=\"text-smallcaps\">D</span>-<em>erythro</em>-pentofuranosyl)-1,2-dihydro-2-oxo-4-pyrimidinyl]-;<em>N</em>-Benzoyl-2′-deoxycytidine;<em>N</em><sup>4</sup>-Benzoyl-2′-deoxycytidine;<em>N</em><sup>4</sup>-Benzoyldeoxycytidine;4-<em>N</em>-Benzoyldeoxycytidine;<em>N</em>-Benzoyldeoxycytidine",
    "duplicated_cas_no": "",
    "SMILES": "O=C1N([C@@H]2O[C@H](CO)[C@@H](O)C2)C=CC(NC(=O)C3=CC=CC=C3)=N1",
    "meta_data": {
        "InChI": "InChI=1S/C16H17N3O5/c20-9-12-11(21)8-14(24-12)19-7-6-13(18-16(19)23)17-15(22)10-4-2-1-3-5-10/h1-7,11-12,14,20-21H,8-9H2,(H,17,18,22,23)/t11-,12+,14+/m0/s1",
        "InChIKey": null,
        "Canonical SMILES": "O=C1N=C(C=CN1C2OC(CO)C(O)C2)NC(=O)C=3C=CC=CC3",
        "Molecular Formula": "C<sub>16</sub>H<sub>17</sub>N<sub>3</sub>O<sub>5</sub>",
        "Molecular Mass": "331.32",
        "Melting Point": "230 °C (decomp)"
    }
}