{
    "cas_no": "42013-20-7",
    "key_name": "2-Methylhippuric acid",
    "cn_name": "N-邻甲苯酸甘氨酸;2-甲基马尿酸;邻甲基苯甲酰氨基乙酸;",
    "alternate_name": "Glycine, <em>N</em>-(2-methylbenzoyl)-;<em>N</em>-(2-Methylbenzoyl)glycine;<em>o</em>-Toluric acid;<em>o</em>-Methylhippuric acid;2-Methylhippuric acid;NSC 163983;(2-Methyl-benzoylamino)-acetic acid;2-[(2-Methylbenzoyl)amino]acetic acid;2-[(2-Methylphenyl)formamido]acetic acid",
    "duplicated_cas_no": "",
    "SMILES": "C(NCC(O)=O)(=O)C1=C(C)C=CC=C1",
    "meta_data": {
        "InChI": "InChI=1S/C10H11NO3/c1-7-4-2-3-5-8(7)10(14)11-6-9(12)13/h2-5H,6H2,1H3,(H,11,14)(H,12,13)",
        "InChIKey": null,
        "Canonical SMILES": "O=C(O)CNC(=O)C=1C=CC=CC1C",
        "Molecular Formula": "C<sub>10</sub>H<sub>11</sub>NO<sub>3</sub>",
        "Molecular Mass": "193.20",
        "Melting Point": "165 °C"
    }
}