{
    "cas_no": "13978-85-3",
    "key_name": "Bis(8-hydroxyquinolinato)zinc",
    "cn_name": "8-羟基喹啉锌盐;",
    "alternate_name": "Zinc, bis(8-quinolinolato-κ<em>N</em><sup>1</sup>,κ<em>O</em><sup>8</sup>)-, (<em>T</em>-4)-;Zinc, bis(8-quinolinolato)-;Zinc, bis(8-quinolinolato-<em>N</em><sup>1</sup>,<em>O</em><sup>8</sup>)-, (<em>T</em>-4)-;(<em>T</em>-4)-Bis(8-quinolinolato-κ<em>N</em><sup>1</sup>,κ<em>O</em><sup>8</sup>)zinc;Bis(8-quinolinolato)zinc;Zinc 8-quinolinolate;Zinc 8-hydroxyquinolinate;Zinc oxinate;Bis(8-hydroxyquinolinato)zinc;8-Hydroxyquinoline zinc salt;8-Hydroxyquinolinezinc;Zinc bis(8-hydroxyquinolinate)",
    "duplicated_cas_no": "1006-49-1;16389-86-9;1315501-86-0",
    "SMILES": "[Zn+2]12([N]=3C=4C([O-]1)=CC=CC4C=CC3)[N]=5C=6C([O-]2)=CC=CC6C=CC5",
    "meta_data": {
        "InChI": "InChI=1S/2C9H7NO.Zn/c2*11-8-5-1-3-7-4-2-6-10-9(7)8;/h2*1-6,11H;/q;;+2/p-2",
        "InChIKey": null,
        "Canonical SMILES": "[O-]1C2=CC=CC=3C=CC=[N](C23)[Zn+2]14[O-]C5=CC=CC=6C=CC=[N]4C56",
        "Molecular Formula": "C<sub>18</sub>H<sub>12</sub>N<sub>2</sub>O<sub>2</sub>Zn",
        "Molecular Mass": "",
        "Melting Point": "&gt;350 °C"
    }
}