{
    "cas_no": "1085-12-7",
    "key_name": "Heptyl <em>p</em>-hydroxybenzoate",
    "cn_name": "尼泊金庚酯;正庚基对羟基苯甲酸酯;4-羟基苯甲酸庚酯;",
    "alternate_name": "Benzoic acid, 4-hydroxy-, heptyl ester;Benzoic acid, <em>p</em>-hydroxy-, heptyl ester;Heptyl alcohol, <em>p</em>-hydroxybenzoate;Heptyl <em>p</em>-hydroxybenzoate;<em>n</em>-Heptyl <em>p</em>-hydroxybenzoate;Staypro WS 7;Heptyl paraben;Heptyl 4-hydroxybenzoate;Nipaheptyl;<em>n</em>-Heptyl 4-hydroxybenzoate;NSC 309818",
    "duplicated_cas_no": "",
    "SMILES": "C(OCCCCCCC)(=O)C1=CC=C(O)C=C1",
    "meta_data": {
        "InChI": "InChI=1S/C14H20O3/c1-2-3-4-5-6-11-17-14(16)12-7-9-13(15)10-8-12/h7-10,15H,2-6,11H2,1H3",
        "InChIKey": null,
        "Canonical SMILES": "O=C(OCCCCCCC)C1=CC=C(O)C=C1",
        "Molecular Formula": "C<sub>14</sub>H<sub>20</sub>O<sub>3</sub>",
        "Molecular Mass": "236.31",
        "Melting Point": "49.8 °C"
    }
}