{
    "cas_no": "41365-24-6",
    "key_name": "Thioperoxydicarbonic diamide ([(H<sub>2</sub>N)C(S)]<sub>2</sub>S<sub>2</sub>), <em>N</em>,<em>N</em>′-diethyl-<em>N</em>,<em>N</em>′-diphenyl-",
    "cn_name": null,
    "alternate_name": "Thioperoxydicarbonic diamide ([(H<sub>2</sub>N)C(S)]<sub>2</sub>S<sub>2</sub>), <em>N</em>,<em>N</em>′-diethyl-<em>N</em>,<em>N</em>′-diphenyl-;Disulfide, bis(ethylphenylthiocarbamoyl);Formanilide, α,α′-dithiobis[<em>N</em>-ethylthio-;Diethyldiphenylthiuram disulfide;Ekagom TE;Thiuram EF;TE 75GE",
    "duplicated_cas_no": "",
    "SMILES": "N(C(SSC(N(CC)C1=CC=CC=C1)=S)=S)(CC)C2=CC=CC=C2",
    "meta_data": {
        "InChI": "InChI=1S/C18H20N2S4/c1-3-19(15-11-7-5-8-12-15)17(21)23-24-18(22)20(4-2)16-13-9-6-10-14-16/h5-14H,3-4H2,1-2H3",
        "InChIKey": null,
        "Canonical SMILES": "S=C(SSC(=S)N(C=1C=CC=CC1)CC)N(C=2C=CC=CC2)CC",
        "Molecular Formula": "C<sub>18</sub>H<sub>20</sub>N<sub>2</sub>S<sub>4</sub>",
        "Molecular Mass": "392.62",
        "Melting Point": "83-84 °C (decomp)"
    }
}