{
    "cas_no": "497-76-7",
    "key_name": "Arbutin",
    "cn_name": "熊果苷;熊果甙;对羟基苯-beta-D-吡喃葡糖苷;对苯二酚-beta-D-葡萄糖苷;",
    "alternate_name": "β-<span class=\"text-smallcaps\">D</span>-Glucopyranoside, 4-hydroxyphenyl;Arbutin;Glucopyranoside, <em>p</em>-hydroxyphenyl, β-<span class=\"text-smallcaps\">D</span>-;4-Hydroxyphenyl β-<span class=\"text-smallcaps\">D</span>-glucopyranoside;Ursin;<em>p</em>-Hydroxyphenyl β-<span class=\"text-smallcaps\">D</span>-glucoside;<em>p</em>-Hydroxyphenyl β-<span class=\"text-smallcaps\">D</span>-glucopyranoside;Hydroquinone β-<span class=\"text-smallcaps\">D</span>-glucopyranoside;Arbutine;Uvasol;β-Arbutin;Hydroquinone glucose;Arbutoside;NSC 4036;Arbutyne;<em>p</em>-Arbutin;MeSH ID: D001104",
    "duplicated_cas_no": "30373-96-7;39464-18-1;1779499-53-4",
    "SMILES": "O([C@@H]1O[C@H](CO)[C@@H](O)[C@H](O)[C@H]1O)C2=CC=C(O)C=C2",
    "meta_data": {
        "InChI": "InChI=1S/C12H16O7/c13-5-8-9(15)10(16)11(17)12(19-8)18-7-3-1-6(14)2-4-7/h1-4,8-17H,5H2/t8-,9-,10+,11-,12-/m1/s1",
        "InChIKey": null,
        "Canonical SMILES": "OC1=CC=C(OC2OC(CO)C(O)C(O)C2O)C=C1",
        "Molecular Formula": "C<sub>12</sub>H<sub>16</sub>O<sub>7</sub>",
        "Molecular Mass": "272.25",
        "Melting Point": "199.5 °C"
    }
}