{
    "cas_no": "35367-38-5",
    "key_name": "Diflubenzuron",
    "cn_name": "氟脲杀;除虫脲;1-(4-氯苯基)-3-(2,6-二氟苯甲酰基)脲;",
    "alternate_name": "Benzamide, <em>N</em>-[[(4-chlorophenyl)amino]carbonyl]-2,6-difluoro-;<em>N</em>-[[(4-Chlorophenyl)amino]carbonyl]-2,6-difluorobenzamide;PH 60-40;OMS 1804;TH 6040;1-(4-Chlorophenyl)-3-(2,6-difluorobenzoyl)urea;Thompson-Hayward 6040;Difluron;Dimilin;Diflubenzuron;Duphar PH 60-40;AI 3-29054;<em>N</em>-(2,6-Difluorobenzoyl)-<em>N</em>′-(4-chlorophenyl)urea;Larvakil;Dimilin 25;<em>N</em>-(<em>p</em>-Chlorophenyl)-<em>N</em>′-(2,6-difluorobenzoyl)urea;Micromite;Micromite (Uniroyal);Minerin;Suniao-one;Rotadin;Du-Dim;Sniper;Sniper (benzoylurea insecticide);Mosdop P;Mosdop TB;MeSH ID: D004132",
    "duplicated_cas_no": "104790-81-0;51026-04-1;53026-03-2;66594-18-1",
    "SMILES": "C(NC(NC1=CC=C(Cl)C=C1)=O)(=O)C2=C(F)C=CC=C2F",
    "meta_data": {
        "InChI": "InChI=1S/C14H9ClF2N2O2/c15-8-4-6-9(7-5-8)18-14(21)19-13(20)12-10(16)2-1-3-11(12)17/h1-7H,(H2,18,19,20,21)",
        "InChIKey": null,
        "Canonical SMILES": "O=C(NC(=O)C=1C(F)=CC=CC1F)NC2=CC=C(Cl)C=C2",
        "Molecular Formula": "C<sub>14</sub>H<sub>9</sub>ClF<sub>2</sub>N<sub>2</sub>O<sub>2</sub>",
        "Molecular Mass": "310.68",
        "Melting Point": "239 °C"
    }
}