{
    "cas_no": "127-18-4",
    "key_name": "Tetrachloroethylene",
    "cn_name": "四氯乙烯;全氯乙烯;",
    "alternate_name": "Ethene, 1,1,2,2-tetrachloro-;Ethylene, tetrachloro-;Ethene, tetrachloro-;1,1,2,2-Tetrachloroethene;Ankilostin;Didakene;Ethylene tetrachloride;Nema;Perchloroethylene;PerSec;Tetracap;Tetrachloroethylene;1,1,2,2-Tetrachloroethylene;Tetrachlorethylene;Perchlorethylene;Tetrachloroethene;Antisal 1;Tetraguer;Fedal-Un;Tetraleno;Tetropil;Perclene;Tetlen;Dilatin PT;Freon 1110;Perchloroethene;F 1110 (halocarbon);F 1110;PCE;R 1110;Perklone;PCE (chlorohydrocarbon);NSC 9777;Asahi Perchlor;Persa P 3;LXGL 15;HCO 1110;MeSH ID: D013750",
    "duplicated_cas_no": "",
    "SMILES": "C(=C(Cl)Cl)(Cl)Cl",
    "meta_data": {
        "InChI": "InChI=1S/C2Cl4/c3-1(4)2(5)6",
        "InChIKey": null,
        "Canonical SMILES": "ClC(Cl)=C(Cl)Cl",
        "Molecular Formula": "C<sub>2</sub>Cl<sub>4</sub>",
        "Molecular Mass": "165.83",
        "Boiling Point": "121.3 °C",
        "Melting Point": "-22.3 °C",
        "Density": "1.6227 g/cm³ @ Temp: 20 °C"
    }
}