{
    "cas_no": "41302-34-5",
    "key_name": "Cyclohexanecarboxylic acid, 2-oxo-, methyl ester",
    "cn_name": "2-氧环己烷羧酸甲酯;",
    "alternate_name": "Cyclohexanecarboxylic acid, 2-oxo-, methyl ester;Methyl 2-cyclohexanonecarboxylate;Methyl 2-oxocyclohexanecarboxylate;2-Carbomethoxycyclohexanone;2-(Methoxycarbonyl)cyclohexanone;Methyl 2-oxo-1-cyclohexanecarboxylate;Methyl 2-oxocyclohexylcarboxylate;2-Oxocyclohexanecarboxylic acid methyl ester",
    "duplicated_cas_no": "103533-31-9",
    "SMILES": "C(OC)(=O)C1C(=O)CCCC1",
    "meta_data": {
        "InChI": "InChI=1S/C8H12O3/c1-11-8(10)6-4-2-3-5-7(6)9/h6H,2-5H2,1H3",
        "InChIKey": null,
        "Canonical SMILES": "O=C(OC)C1C(=O)CCCC1",
        "Molecular Formula": "C<sub>8</sub>H<sub>12</sub>O<sub>3</sub>",
        "Molecular Mass": "156.18",
        "Boiling Point": "95-107 °C @ Press: 30 Torr",
        "Melting Point": "75-78 °C"
    }
}