{
    "cas_no": "632-58-6",
    "key_name": "Tetrachlorophthalic acid",
    "cn_name": "四氯邻苯二甲酸;",
    "alternate_name": "1,2-Benzenedicarboxylic acid, 3,4,5,6-tetrachloro-;Phthalic acid, tetrachloro-;3,4,5,6-Tetrachloro-1,2-benzenedicarboxylic acid;Tetrachlorophthalic acid;Tetrachloro-1,2-benzenedicarboxylic acid;NSC 193510;3,4,5,6-Tetrachlorophthalicacid;3,4,5,6-Tetrachlorophthalic acid;3,4,5,6-Tetrachloro-phthalic acid",
    "duplicated_cas_no": "",
    "SMILES": "C(O)(=O)C1=C(C(O)=O)C(Cl)=C(Cl)C(Cl)=C1Cl",
    "meta_data": {
        "InChI": "InChI=1S/C8H2Cl4O4/c9-3-1(7(13)14)2(8(15)16)4(10)6(12)5(3)11/h(H,13,14)(H,15,16)",
        "InChIKey": null,
        "Canonical SMILES": "O=C(O)C=1C(Cl)=C(Cl)C(Cl)=C(Cl)C1C(=O)O",
        "Molecular Formula": "C<sub>8</sub>H<sub>2</sub>Cl<sub>4</sub>O<sub>4</sub>",
        "Molecular Mass": "303.91",
        "Melting Point": "146-147 °C"
    }
}