{
    "cas_no": "86-88-4",
    "key_name": "α-Naphthylthiourea",
    "cn_name": "安妥;1-萘基硫脲;&alpha;-萘硫脲;&alpha;-萘基硫脲;",
    "alternate_name": "Thiourea, <em>N</em>-1-naphthalenyl-;Urea, 1-(1-naphthyl)-2-thio-;Thiourea, 1-naphthalenyl-;<em>N</em>-1-Naphthalenylthiourea;Anturat;Bantu;ANTU;Chemical 109;Krysid;α-Naphthylthiocarbamide;α-Naphthylthiourea;1-Naphthylthiourea;1-(1-Naphthyl)-2-thiourea;<em>N</em>-1-Naphthylthiourea;Rattrack;U 5227;Kripid;Dirax;Alrato;Smeesana;Naphtox;1-(1-Naphthyl)thiourea;NSC 3287;Naphthalen-1-ylthiourea;1-(Naphthalen-1-yl)thiourea",
    "duplicated_cas_no": "",
    "SMILES": "N(C(N)=S)C=1C2=C(C=CC1)C=CC=C2",
    "meta_data": {
        "InChI": "InChI=1S/C11H10N2S/c12-11(14)13-10-7-3-5-8-4-1-2-6-9(8)10/h1-7H,(H3,12,13,14)",
        "InChIKey": null,
        "Canonical SMILES": "S=C(N)NC1=CC=CC=2C=CC=CC21",
        "Molecular Formula": "C<sub>11</sub>H<sub>10</sub>N<sub>2</sub>S",
        "Molecular Mass": "202.28",
        "Melting Point": "198 °C",
        "Density": "1 g/cm³"
    }
}