{
    "cas_no": "13327-56-5",
    "key_name": "Ethyl 3-methylthiopropionate",
    "cn_name": "3-甲硫基丙酸乙酯;",
    "alternate_name": "Propanoic acid, 3-(methylthio)-, ethyl ester;Propionic acid, 3-(methylthio)-, ethyl ester;Ethyl β-methylthiopropionate;3-(Methylthio)propionic acid ethyl ester;Ethyl 3-methylthiopropanoate;Ethyl 3-methylthiopropionate;NSC 165650;3-(Methylthio)propanoic acid ethyl ester;Ethyl 3-methylthio-1-propanoate;Ethyl 3-methylmercapto-propionate",
    "duplicated_cas_no": "",
    "SMILES": "C(CCSC)(OCC)=O",
    "meta_data": {
        "InChI": "InChI=1S/C6H12O2S/c1-3-8-6(7)4-5-9-2/h3-5H2,1-2H3",
        "InChIKey": null,
        "Canonical SMILES": "O=C(OCC)CCSC",
        "Molecular Formula": "C<sub>6</sub>H<sub>12</sub>O<sub>2</sub>S",
        "Molecular Mass": "148.22",
        "Boiling Point": "71-72 °C @ Press: 0.8 Torr"
    }
}