{
    "cas_no": "50700-49-7",
    "key_name": "<em>N</em>-Acetyl-<em>p</em>-benzoquinonimine",
    "cn_name": null,
    "alternate_name": "Acetamide, <em>N</em>-(4-oxo-2,5-cyclohexadien-1-ylidene)-;<em>N</em>-(4-Oxo-2,5-cyclohexadien-1-ylidene)acetamide;<em>N</em>-Acetyl-<em>p</em>-benzoquinonimine;Acetimidoquinone;<em>N</em>-Acetyl-1,4-benzoquinonimine;NAPQI;<em>N</em>-Acetyl-<em>p</em>-benzoquinone imine",
    "duplicated_cas_no": "",
    "SMILES": "N(C(C)=O)=C1C=CC(=O)C=C1",
    "meta_data": {
        "InChI": "InChI=1S/C8H7NO2/c1-6(10)9-7-2-4-8(11)5-3-7/h2-5H,1H3",
        "InChIKey": null,
        "Canonical SMILES": "O=C1C=CC(=NC(=O)C)C=C1",
        "Molecular Formula": "C<sub>8</sub>H<sub>7</sub>NO<sub>2</sub>",
        "Molecular Mass": "149.15",
        "Melting Point": "74.5 °C"
    }
}