{
    "cas_no": "929-06-6",
    "key_name": "Diglycolamine",
    "cn_name": "二甘醇胺;2-(2-氨基乙氧基)乙醇;",
    "alternate_name": "Ethanol, 2-(2-aminoethoxy)-;2-(2-Aminoethoxy)ethanol;Diglycolamine;β-Hydroxy-β′-aminodiethyl ether;Diethylene glycol monoamine;1-Amino-2-(2-hydroxyethoxy)ethane;2-Amino-2′-hydroxydiethyl ether;Diethylene glycol amine;2-(2-Hydroxyethoxy)ethylamine;β-(β-Hydroxyethoxy)ethylamine;2-(Hydroxyethoxy)ethylamine;2-Aminoethyl 2-hydroxyethyl ether;5-Amino-3-oxapentan-1-ol;5-Hydroxy-3-oxapentylamine;NSC 86108;Diglycolamine Agent;2-(2-Aminoethoxy)ethan-1-ol;<em>O</em>-(2-Hydroxyethyl) ethanolamine",
    "duplicated_cas_no": "916852-33-0;1790637-36-3",
    "SMILES": "O(CCN)CCO",
    "meta_data": {
        "InChI": "InChI=1S/C4H11NO2/c5-1-3-7-4-2-6/h6H,1-5H2",
        "InChIKey": null,
        "Canonical SMILES": "OCCOCCN",
        "Molecular Formula": "C<sub>4</sub>H<sub>11</sub>NO<sub>2</sub>",
        "Molecular Mass": "105.14",
        "Boiling Point": "221 °C",
        "Density": "1.0572 g/cm³ @ Temp: 20 °C"
    }
}