{
    "cas_no": "31394-54-4",
    "key_name": "Isoheptane",
    "cn_name": null,
    "alternate_name": "Isoheptane",
    "duplicated_cas_no": "",
    "SMILES": "",
    "meta_data": {
        "InChI": "",
        "InChIKey": null,
        "Canonical SMILES": "",
        "Molecular Formula": "C<sub>7</sub>H<sub>16</sub>",
        "Molecular Mass": "",
        "Boiling Point": "89.3-89.4 °C @ Press: 748 Torr",
        "Melting Point": "25.5 °C",
        "Density": "0.6842 g/cm³ @ Temp: 15 °C"
    }
}