{
    "cas_no": "75-97-8",
    "key_name": "Pinacolone",
    "cn_name": "频哪酮;甲基叔丁基酮;3,3-二甲基-2-丁酮;",
    "alternate_name": "2-Butanone, 3,3-dimethyl-;3,3-Dimethyl-2-butanone;<em>tert</em>-Butyl methyl ketone;Methyl <em>tert</em>-butyl ketone;Pinacolin;Pinacoline;Pinacolone;2,2-Dimethyl-3-butanone;1,1,1-Trimethylacetone;1,1-Dimethylethyl methyl ketone;Methyl-<em>t</em>-butylketone;NSC 935",
    "duplicated_cas_no": "",
    "SMILES": "C(C(C)=O)(C)(C)C",
    "meta_data": {
        "InChI": "InChI=1S/C6H12O/c1-5(7)6(2,3)4/h1-4H3",
        "InChIKey": null,
        "Canonical SMILES": "O=C(C)C(C)(C)C",
        "Molecular Formula": "C<sub>6</sub>H<sub>12</sub>O",
        "Molecular Mass": "100.16",
        "Boiling Point": "106.1 °C",
        "Melting Point": "-52.5 °C",
        "Density": "0.7229 g/cm³ @ Temp: 25 °C"
    }
}