{
    "cas_no": "6298-72-2",
    "key_name": "1,4-Bis(chloromethyl)-2,5-dimethylbenzene",
    "cn_name": "2,5-双(氯甲基)-对-二甲苯;",
    "alternate_name": "Benzene, 1,4-bis(chloromethyl)-2,5-dimethyl-;1,4-Bis(chloromethyl)-2,5-dimethylbenzene;2,5-Bis(chloromethyl)-1,4-dimethylbenzene;2,5-Bis(chloromethyl)-<em>p</em>-xylene;α<sup>1</sup>,α<sup>4</sup>-Dichlorodurene;α,α-Dichloro-2,5-dimethyl-<em>p</em>-xylene;1,4-Dimethyl-2,5-di(chloromethyl)benzene;2,5-Dimethyl-<em>p</em>-xylylene dichloride;2,5-Di(chloromethyl)-<em>p</em>-xylene;1,4-Di(chloromethyl)-2,5-dimethylbenzene;1,4-Dimethyl-2,5-bis(chloromethyl)benzene;NSC 41890",
    "duplicated_cas_no": "",
    "SMILES": "C(Cl)C1=C(C)C=C(CCl)C(C)=C1",
    "meta_data": {
        "InChI": "InChI=1S/C10H12Cl2/c1-7-3-10(6-12)8(2)4-9(7)5-11/h3-4H,5-6H2,1-2H3",
        "InChIKey": null,
        "Canonical SMILES": "ClCC1=CC(=C(C=C1C)CCl)C",
        "Molecular Formula": "C<sub>10</sub>H<sub>12</sub>Cl<sub>2</sub>",
        "Molecular Mass": "203.11",
        "Melting Point": "132 °C"
    }
}