{
    "cas_no": "693-54-9",
    "key_name": "2-Decanone",
    "cn_name": "2-癸酮;甲基辛基甲酮;",
    "alternate_name": "2-Decanone;Methyl octyl ketone;Methyl <em>n</em>-octyl ketone;Octyl methyl ketone",
    "duplicated_cas_no": "",
    "SMILES": "C(CCCCC)CCC(C)=O",
    "meta_data": {
        "InChI": "InChI=1S/C10H20O/c1-3-4-5-6-7-8-9-10(2)11/h3-9H2,1-2H3",
        "InChIKey": null,
        "Canonical SMILES": "O=C(C)CCCCCCCC",
        "Molecular Formula": "C<sub>10</sub>H<sub>20</sub>O",
        "Molecular Mass": "156.27",
        "Boiling Point": "210 °C",
        "Melting Point": "14 °C",
        "Density": "0.8230 g/cm³ @ Temp: 22 °C"
    }
}