{
    "cas_no": "93963-24-7",
    "key_name": "Benzeneethanamine, <em>N</em>-ethyl-4-methoxy-α-methyl-, hydrochloride (1:1)",
    "cn_name": null,
    "alternate_name": "Benzeneethanamine, <em>N</em>-ethyl-4-methoxy-α-methyl-, hydrochloride (1:1);Benzeneethanamine, <em>N</em>-ethyl-4-methoxy-α-methyl-, hydrochloride",
    "duplicated_cas_no": "241138-28-3",
    "SMILES": "C(C(NCC)C)C1=CC=C(OC)C=C1.Cl",
    "meta_data": {
        "InChI": "InChI=1S/C12H19NO.ClH/c1-4-13-10(2)9-11-5-7-12(14-3)8-6-11;/h5-8,10,13H,4,9H2,1-3H3;1H",
        "InChIKey": null,
        "Canonical SMILES": "Cl.O(C1=CC=C(C=C1)CC(NCC)C)C",
        "Molecular Formula": "C<sub>12</sub>H<sub>19</sub>NO.ClH",
        "Molecular Mass": "",
        "Melting Point": "156-157 °C"
    }
}