{
    "cas_no": "4124-88-3",
    "key_name": "3-Nonenoic acid",
    "cn_name": "3-壬烯酸;",
    "alternate_name": "3-Nonenoic acid",
    "duplicated_cas_no": "",
    "SMILES": "C(CCCCC)=CCC(O)=O",
    "meta_data": {
        "InChI": "InChI=1S/C9H16O2/c1-2-3-4-5-6-7-8-9(10)11/h6-7H,2-5,8H2,1H3,(H,10,11)",
        "InChIKey": null,
        "Canonical SMILES": "O=C(O)CC=CCCCCC",
        "Molecular Formula": "C<sub>9</sub>H<sub>16</sub>O<sub>2</sub>",
        "Molecular Mass": "156.22",
        "Boiling Point": "114-115 °C @ Press: 2 Torr",
        "Density": "0.9290 g/cm³ @ Temp: 20 °C"
    }
}