{
    "cas_no": "114311-32-9",
    "key_name": "Imazamox",
    "cn_name": "甲氧咪草烟;2-(4-异丙基-4-甲基-5-氧-2-咪唑啉-2-基)-5-甲氧基甲基烟酸;",
    "alternate_name": "3-Pyridinecarboxylic acid, 2-[4,5-dihydro-4-methyl-4-(1-methylethyl)-5-oxo-1<em>H</em>-imidazol-2-yl]-5-(methoxymethyl)-;2-[4,5-Dihydro-4-methyl-4-(1-methylethyl)-5-oxo-1<em>H</em>-imidazol-2-yl]-5-(methoxymethyl)-3-pyridinecarboxylic acid;CL 299263;Imazamox;AC 299263;Raptor;Raptor (herbicide);Pulsar;(±)-Imazamox;5-Methoxymethyl-2-(4-isopropyl-4-methyl-5-oxo-2-imidazolin-2-yl) nicotinic acid;Sweeper;Sweeper 70DG;2-[4-Isopropyl-4-methyl-5-oxo-2-imidazolin-2-yl]-5-methoxymethylnicotinic acid;Pulsar (herbicide);Pulsar 40;Global;(<em>R</em>,<em>S</em>)-Imazamox",
    "duplicated_cas_no": "182636-13-1",
    "SMILES": "C(O)(=O)C1=C(N=CC(COC)=C1)C=2NC(C(C)C)(C)C(=O)N2",
    "meta_data": {
        "InChI": "InChI=1S/C15H19N3O4/c1-8(2)15(3)14(21)17-12(18-15)11-10(13(19)20)5-9(6-16-11)7-22-4/h5-6,8H,7H2,1-4H3,(H,19,20)(H,17,18,21)",
        "InChIKey": null,
        "Canonical SMILES": "O=C(O)C=1C=C(C=NC1C2=NC(=O)C(N2)(C)C(C)C)COC",
        "Molecular Formula": "C<sub>15</sub>H<sub>19</sub>N<sub>3</sub>O<sub>4</sub>",
        "Molecular Mass": "305.33",
        "Melting Point": "166 °C",
        "Density": "1.39 g/cm³ @ Temp: 20 °C"
    }
}