{
    "cas_no": "2491-71-6",
    "key_name": "Benzenesulfonic acid, 4-[2-(4-aminophenyl)diazenyl]-, sodium salt (1:1)",
    "cn_name": "4-[(4-氨基苯基)偶氮]苯磺酸单钠盐;",
    "alternate_name": "Benzenesulfonic acid, 4-[2-(4-aminophenyl)diazenyl]-, sodium salt (1:1);C.I. Food Yellow 6;C.I. Food Yellow 6, monosodium salt;Benzenesulfonic acid, 4-[(4-aminophenyl)azo]-, monosodium salt;Benzenesulfonic acid, <em>p</em>-(<em>p</em>-aminophenylazo)-, sodium salt;C.I. 13011;Acid Yellow FWA;Hexacol Yellow RFS;New Yellow GMF;11648 Yellow;Yellow RFS;Yellow R.I.S.;Sodium 4′-aminoazobenzene-4-sulfonate;Sodium <em>p</em>-(<em>p</em>-aminophenylazo)benzenesulfonate;Sodium 4-(4-aminophenylazo)benzenesulfonate;C.I. 13010;Food Yellow 6",
    "duplicated_cas_no": "",
    "SMILES": "N(=NC1=CC=C(N)C=C1)C2=CC=C(S(=O)(=O)O)C=C2.[Na]",
    "meta_data": {
        "InChI": "InChI=1S/C12H11N3O3S.Na/c13-9-1-3-10(4-2-9)14-15-11-5-7-12(8-6-11)19(16,17)18;/h1-8H,13H2,(H,16,17,18);",
        "InChIKey": null,
        "Canonical SMILES": "[Na].O=S(=O)(O)C1=CC=C(N=NC2=CC=C(N)C=C2)C=C1",
        "Molecular Formula": "C<sub>12</sub>H<sub>11</sub>N<sub>3</sub>O<sub>3</sub>S.Na",
        "Molecular Mass": "",
        "Melting Point": "&gt;250 °C"
    }
}