{
    "cas_no": "38786-67-3",
    "key_name": "2-Bromo-1-(4-bromophenyl)-1-propanone",
    "cn_name": null,
    "alternate_name": "1-Propanone, 2-bromo-1-(4-bromophenyl)-;Propiophenone, 2,4′-dibromo-;2-Bromo-1-(4-bromophenyl)-1-propanone;α,4′-Dibromopropiophenone;<em>p</em>-2-Dibromopropiophenone;2,4′-Dibromopropiophenone;2-Bromo-4′-bromopropiophenone;2-Bromo-1-(4-bromophenyl)propan-1-one;α,4-Dibromopropiophenone",
    "duplicated_cas_no": "",
    "SMILES": "C(C(Br)C)(=O)C1=CC=C(Br)C=C1",
    "meta_data": {
        "InChI": "InChI=1S/C9H8Br2O/c1-6(10)9(12)7-2-4-8(11)5-3-7/h2-6H,1H3",
        "InChIKey": null,
        "Canonical SMILES": "O=C(C1=CC=C(Br)C=C1)C(Br)C",
        "Molecular Formula": "C<sub>9</sub>H<sub>8</sub>Br<sub>2</sub>O",
        "Molecular Mass": "291.97",
        "Melting Point": "84-84.5 °C"
    }
}