{
    "cas_no": "14611-34-8",
    "key_name": "12-(Phenylmethyl) (10<em>S</em>)-10-carboxy-5-imino-3-oxo-1-phenyl-6-[(phenylmethoxy)carbonyl]-2-oxa-4,6,11-triazadodecan-12-oate",
    "cn_name": null,
    "alternate_name": "2-Oxa-4,6,11-triazadodecan-12-oic acid, 10-carboxy-5-imino-3-oxo-1-phenyl-6-[(phenylmethoxy)carbonyl]-, 12-(phenylmethyl) ester, (10<em>S</em>)-;Ornithine, <em>N</em><sup>2</sup>,<em>N</em><sup>5</sup>-dicarboxy-<em>N</em><sup>5</sup>-(carboxyamidino)-, <em>N</em><sup>2</sup>,<em>N</em><sup>5</sup>,<em>N</em><sup>5</sup>-tribenzyl ester, <span class=\"text-smallcaps\">L</span>-;2-Oxa-4,6,11-triazadodecan-12-oic acid, 10-carboxy-5-imino-3-oxo-1-phenyl-6-[(phenylmethoxy)carbonyl]-, 12-(phenylmethyl) ester, (<em>S</em>)-;Arginine, tricarboxy-, <em>N</em><sup>2</sup>,<em>N</em><sup>5</sup>,<em>N</em><sup>5</sup>-tribenzyl ester, <span class=\"text-smallcaps\">L</span>-;12-(Phenylmethyl) (10<em>S</em>)-10-carboxy-5-imino-3-oxo-1-phenyl-6-[(phenylmethoxy)carbonyl]-2-oxa-4,6,11-triazadodecan-12-oate;Tris(benzyloxycarbonyl)arginine;<span class=\"text-smallcaps\">L</span>-Ornithine, <em>N</em><sup>5</sup>-[imino[[(phenylmethoxy)carbonyl]amino]methyl]-<em>N</em><sup>2</sup>,<em>N</em><sup>5</sup>-bis[(phenylmethoxy)carbonyl]-;NSC 120011;(2S)-2-(Phenylmethoxycarbonylamino)-5-[phenylmethoxycarbonyl-(<em>N</em>′-phenylmethoxycarbonylcarbamimidoyl)amino]pentanoic acid",
    "duplicated_cas_no": "52795-86-5;91307-59-4",
    "SMILES": "N(C(OCC1=CC=CC=C1)=O)(CCC[C@H](NC(OCC2=CC=CC=C2)=O)C(O)=O)C(NC(OCC3=CC=CC=C3)=O)=N",
    "meta_data": {
        "InChI": "InChI=1S/C30H32N4O8/c31-27(33-29(38)41-20-23-13-6-2-7-14-23)34(30(39)42-21-24-15-8-3-9-16-24)18-10-17-25(26(35)36)32-28(37)40-19-22-11-4-1-5-12-22/h1-9,11-16,25H,10,17-21H2,(H,32,37)(H,35,36)(H2,31,33,38)/t25-/m0/s1",
        "InChIKey": null,
        "Canonical SMILES": "O=C(OCC=1C=CC=CC1)NC(=N)N(C(=O)OCC=2C=CC=CC2)CCCC(NC(=O)OCC=3C=CC=CC3)C(=O)O",
        "Molecular Formula": "C<sub>30</sub>H<sub>32</sub>N<sub>4</sub>O<sub>8</sub>",
        "Molecular Mass": "576.60",
        "Melting Point": "139 °C"
    }
}