{
    "cas_no": "499-06-9",
    "key_name": "3,5-Dimethylbenzoic acid",
    "cn_name": "3,5-二甲基苯甲酸;",
    "alternate_name": "Benzoic acid, 3,5-dimethyl-;3,5-Dimethylbenzoic acid;Mesitylenic acid;NSC 37562",
    "duplicated_cas_no": "",
    "SMILES": "C(O)(=O)C1=CC(C)=CC(C)=C1",
    "meta_data": {
        "InChI": "InChI=1S/C9H10O2/c1-6-3-7(2)5-8(4-6)9(10)11/h3-5H,1-2H3,(H,10,11)",
        "InChIKey": null,
        "Canonical SMILES": "O=C(O)C=1C=C(C=C(C1)C)C",
        "Molecular Formula": "C<sub>9</sub>H<sub>10</sub>O<sub>2</sub>",
        "Molecular Mass": "150.17",
        "Melting Point": "171.1 °C"
    }
}