{
    "cas_no": "7803-49-8",
    "key_name": "Hydroxylamine",
    "cn_name": "羟胺;羟胺;胲;羥胺;",
    "alternate_name": "Hydroxylamine;Hydroxyamine;Telclean 1200A;HDA;EKC 270T;MeSH ID: D019811",
    "duplicated_cas_no": "",
    "SMILES": "NO",
    "meta_data": {
        "InChI": "InChI=1S/H3NO/c1-2/h2H,1H2",
        "InChIKey": null,
        "Canonical SMILES": "ON",
        "Molecular Formula": "H<sub>3</sub>NO",
        "Molecular Mass": "33.03",
        "Boiling Point": "70 °C @ Press: 60 Torr",
        "Melting Point": "33 °C",
        "Density": "1.227 g/cm³"
    }
}