{
    "cas_no": "165393-06-6",
    "key_name": "Urolithin C",
    "cn_name": null,
    "alternate_name": "6<em>H</em>-Dibenzo[<em>b</em>,<em>d</em>]pyran-6-one, 3,8,9-trihydroxy-;3,8,9-Trihydroxy-6<em>H</em>-dibenzo[<em>b</em>,<em>d</em>]pyran-6-one;Urolithin C;3,8,9-Trihydroxy-6<em>H</em>-benzo[<em>c</em>]chromen-6-one;3,8,9-Trihydroxyurolithin;3,8,9-Trihydroxybenzo[<em>c</em>]chromen-6-one",
    "duplicated_cas_no": "",
    "SMILES": "O=C1C=2C(C=3C(O1)=CC(O)=CC3)=CC(O)=C(O)C2",
    "meta_data": {
        "InChI": "InChI=1S/C13H8O5/c14-6-1-2-7-8-4-10(15)11(16)5-9(8)13(17)18-12(7)3-6/h1-5,14-16H",
        "InChIKey": null,
        "Canonical SMILES": "O=C1OC=2C=C(O)C=CC2C3=CC(O)=C(O)C=C13",
        "Molecular Formula": "C<sub>13</sub>H<sub>8</sub>O<sub>5</sub>",
        "Molecular Mass": "244.20",
        "Melting Point": "&gt;333 °C"
    }
}