{
    "cas_no": "54-30-8",
    "key_name": "Camylofin",
    "cn_name": null,
    "alternate_name": "Benzeneacetic acid, α-[[2-(diethylamino)ethyl]amino]-, 3-methylbutyl ester;Glycine, <em>N</em>-[2-(diethylamino)ethyl]-2-phenyl-, isopentyl ester;Acamylophenine;Adopon;Avacan;Avocan;Belosin;Camylofin;<em>N</em>-(2-Diethylaminoethyl)-2-phenylglycine isopentyl ester;Isoamyl <em>N</em>-(β-diethylaminoethyl)-α-aminophenylacetate;Novospasmin;Sintespasmil;Camylofine;Isoamyl α-[(β-diethylaminoethyl)amino]phenylacetate;α-[(β-Diethylaminoethyl)amino]phenylacetic acid isoamyl ester;Avadyl;Navadyl;Spasmocan",
    "duplicated_cas_no": "",
    "SMILES": "C(NCCN(CC)CC)(C(OCCC(C)C)=O)C1=CC=CC=C1",
    "meta_data": {
        "InChI": "InChI=1S/C19H32N2O2/c1-5-21(6-2)14-13-20-18(17-10-8-7-9-11-17)19(22)23-15-12-16(3)4/h7-11,16,18,20H,5-6,12-15H2,1-4H3",
        "InChIKey": null,
        "Canonical SMILES": "O=C(OCCC(C)C)C(NCCN(CC)CC)C=1C=CC=CC1",
        "Molecular Formula": "C<sub>19</sub>H<sub>32</sub>N<sub>2</sub>O<sub>2</sub>",
        "Molecular Mass": "320.47",
        "Boiling Point": "176 °C",
        "Melting Point": "&lt;25 °C"
    }
}