{
    "cas_no": "147081-49-0",
    "key_name": "(<em>R</em>)-<em>tert</em>-Butyl 3-aminopyrrolidine-1-carboxylate",
    "cn_name": null,
    "alternate_name": "1-Pyrrolidinecarboxylic acid, 3-amino-, 1,1-dimethylethyl ester, (3<em>R</em>)-;1-Pyrrolidinecarboxylic acid, 3-amino-, 1,1-dimethylethyl ester, (<em>R</em>)-;(<em>R</em>)-3-Amino-1-<em>tert</em>-butoxycarbonylpyrrolidine;(<em>R</em>)-<em>N</em>-Boc-3-aminopyrrolidine;<em>tert</em>-Butyl (3<em>R</em>)-3-aminopyrrolidine-1-carboxylate;1-<em>N</em>-Boc-3-(<em>R</em>)-aminopyrrolidine;(<em>R</em>)-3-Aminopyrrolidine-1-carboxylic acid <em>tert</em>-butyl ester;(<em>R</em>)-3-Amino-<em>N</em>-(<em>tert</em>-butoxycarbonyl)pyrrolidine;1,1-dimethylethyl (3R)-3-aminopyrrolidine-1-carboxylate;tert-butyl (3<em>R</em>)-3-aminopyrrolidine-1-carboxylate;(R)-3-Amino-1-(<em>tert</em>-butoxycarbonyl)pyrrolidine;1,1-Dimethylethyl (3<em>R</em>)-3-amino-1-pyrrolidinecarboxylate;<em>N</em>-Boc-(3<em>R</em>)-aminopyrrolidine;(<em>R</em>)-3-Aminopyrrolidine-1-carboxylic acid tert-butyl ester;(<em>R</em>)-<em>tert</em>-Butyl 3-aminopyrrolidine-1-carboxylate;(<em>R</em>)-1-Boc-3-aminopyrrolidine;(<em>R</em>)-<em>N</em>-<em>tert</em>-Butoxycarbonyl-3-aminopyrrolidine;(3<em>R</em>)-3-Aminopyrrolidine-1-carboxylic acid tert-butyl ester;(R)-1-(<em>tert</em>-Butoxycarbonyl)-3-aminopyrrolidine;3-Aminopyrrolidine-1-carboxylic acid (<em>R</em>)-<em>tert</em>-butyl ester;(<em>R</em>)-(+)-<em>N</em>-Boc-3-aminopyrrolidine;(R)-3-Aminopyrrolidine-1-carboxylic acid tert-butyl ester;<em>tert</em>-Butyl (<em>R</em>)-3-aminopyrrolidine-1-carboxylate;<em>tert</em>-Butyl (R)-3-amino-1-pyrrolidinecarboxylate;(R)-<em>tert</em>-Butyl 3-aminopyrrolidine-1-carboxylate;(<em>R</em>)-(+)-3-Amino-1-(<em>tert</em>-butoxycarbonyl)pyrrolidine;(+)-3-Aminopyrrolidine-1-carboxylic acid (<em>R</em>)-<em>tert</em>-butyl ester;<em>tert</em>-Butyl (3R)-3-aminopyrrolidine-1-carboxylate;(R)-(+)-1-Boc-3-aminopyrrolidine;(3<em>R</em>)-(+)-1-(<em>tert</em>-Butoxycarbonyl)-3-aminopyrrolidine;1-Boc-(R)-3-aminopyrrolidine;(R)-3-Amino-1-Boc-pyrrolidine;(R)-1-Boc-3-aminopyrrolidine",
    "duplicated_cas_no": "1220220-51-8",
    "SMILES": "C(OC(C)(C)C)(=O)N1CC[C@@H](N)C1",
    "meta_data": {
        "InChI": "InChI=1S/C9H18N2O2/c1-9(2,3)13-8(12)11-5-4-7(10)6-11/h7H,4-6,10H2,1-3H3/t7-/m1/s1",
        "InChIKey": null,
        "Canonical SMILES": "O=C(OC(C)(C)C)N1CCC(N)C1",
        "Molecular Formula": "C<sub>9</sub>H<sub>18</sub>N<sub>2</sub>O<sub>2</sub>",
        "Molecular Mass": "186.25",
        "Melting Point": "58.0-59.8 °C"
    }
}