{
    "cas_no": "13508-53-7",
    "key_name": "(Chloromethyl)ethoxydimethylsilane",
    "cn_name": "乙氧基二甲基氯甲基硅烷;",
    "alternate_name": "Silane, (chloromethyl)ethoxydimethyl-;(Chloromethyl)ethoxydimethylsilane;(Chloromethyl)dimethylethoxysilane;NSC 107485",
    "duplicated_cas_no": "",
    "SMILES": "[Si](OCC)(CCl)(C)C",
    "meta_data": {
        "InChI": "InChI=1S/C5H13ClOSi/c1-4-7-8(2,3)5-6/h4-5H2,1-3H3",
        "InChIKey": null,
        "Canonical SMILES": "ClC[Si](OCC)(C)C",
        "Molecular Formula": "C<sub>5</sub>H<sub>13</sub>ClOSi",
        "Molecular Mass": "152.69",
        "Boiling Point": "132-133 °C",
        "Density": "0.944 g/cm³ @ Temp: 25 °C"
    }
}