{
    "cas_no": "53943-88-7",
    "key_name": "Letosteine",
    "cn_name": "来托司坦;2-(4-羧基-2-噻唑基)乙基硫代乙酸乙酯;",
    "alternate_name": "4-Thiazolidinecarboxylic acid, 2-[2-[(2-ethoxy-2-oxoethyl)thio]ethyl]-;2-[2-[(2-Ethoxy-2-oxoethyl)thio]ethyl]-4-thiazolidinecarboxylic acid;Viscotiol;Letosteine;Visoctiol",
    "duplicated_cas_no": "",
    "SMILES": "C(CSCC(OCC)=O)C1NC(C(O)=O)CS1",
    "meta_data": {
        "InChI": "InChI=1S/C10H17NO4S2/c1-2-15-9(12)6-16-4-3-8-11-7(5-17-8)10(13)14/h7-8,11H,2-6H2,1H3,(H,13,14)",
        "InChIKey": null,
        "Canonical SMILES": "O=C(OCC)CSCCC1SCC(N1)C(=O)O",
        "Molecular Formula": "C<sub>10</sub>H<sub>17</sub>NO<sub>4</sub>S<sub>2</sub>",
        "Molecular Mass": "279.38",
        "Melting Point": "142 °C"
    }
}