{
    "cas_no": "57467-13-7",
    "key_name": "4-Nitrophenyl 2-(acetylamino)-2-deoxy-3-<em>O</em>-β-<span class=\"text-smallcaps\">D</smallcap>-galactopyranosyl-β-<smallcap>D</span>-glucopyranoside",
    "cn_name": null,
    "alternate_name": "β-<span class=\"text-smallcaps\">D</smallcap>-Glucopyranoside, 4-nitrophenyl 2-(acetylamino)-2-deoxy-3-<em>O</em>-β-<smallcap>D</span>-galactopyranosyl-;4-Nitrophenyl 2-(acetylamino)-2-deoxy-3-<em>O</em>-β-<span class=\"text-smallcaps\">D</smallcap>-galactopyranosyl-β-<smallcap>D</span>-glucopyranoside;PNP-Lac-<em>N</em>-bioside;PNP-Lacto-<em>N</em>-bioside",
    "duplicated_cas_no": "",
    "SMILES": "N(C(C)=O)[C@@H]1[C@@H](O[C@@H]2O[C@H](CO)[C@H](O)[C@H](O)[C@H]2O)[C@H](O)[C@@H](CO)O[C@H]1OC3=CC=C(N(=O)=O)C=C3",
    "meta_data": {
        "InChI": "InChI=1S/C20H28N2O13/c1-8(25)21-13-18(35-20-17(29)16(28)14(26)11(6-23)34-20)15(27)12(7-24)33-19(13)32-10-4-2-9(3-5-10)22(30)31/h2-5,11-20,23-24,26-29H,6-7H2,1H3,(H,21,25)/t11-,12-,13-,14+,15-,16+,17-,18-,19-,20+/m1/s1",
        "InChIKey": null,
        "Canonical SMILES": "O=C(NC1C(OC2=CC=C(C=C2)N(=O)=O)OC(CO)C(O)C1OC3OC(CO)C(O)C(O)C3O)C",
        "Molecular Formula": "C<sub>20</sub>H<sub>28</sub>N<sub>2</sub>O<sub>13</sub>",
        "Molecular Mass": "504.44",
        "Melting Point": "160 °C"
    }
}