{
    "cas_no": "367-32-8",
    "key_name": "4-Fluoro-1,2-benzenediol",
    "cn_name": "4-氟-1,2-苯二酚;4-氟邻苯二酚;",
    "alternate_name": "1,2-Benzenediol, 4-fluoro-;Pyrocatechol, 4-fluoro-;4-Fluoro-1,2-benzenediol;4-Fluoropyrocatechol;4-Fluoro-2-hydroxyphenol",
    "duplicated_cas_no": "",
    "SMILES": "OC1=C(O)C=CC(F)=C1",
    "meta_data": {
        "InChI": "InChI=1S/C6H5FO2/c7-4-1-2-5(8)6(9)3-4/h1-3,8-9H",
        "InChIKey": null,
        "Canonical SMILES": "FC1=CC=C(O)C(O)=C1",
        "Molecular Formula": "C<sub>6</sub>H<sub>5</sub>FO<sub>2</sub>",
        "Molecular Mass": "128.10",
        "Melting Point": "90-91 °C"
    }
}