{
    "cas_no": "13089-48-0",
    "key_name": "<em>N</em>-Benzoylcytidine",
    "cn_name": "苯甲酰胞苷;",
    "alternate_name": "Cytidine, <em>N</em>-benzoyl-;Benzamide, <em>N</em>-(1,2-dihydro-2-oxo-1-β-<span class=\"text-smallcaps\">D</span>-ribofuranosyl-4-pyrimidinyl)-;<em>N</em>-Benzoylcytidine;<em>N</em><sup>6</sup>-Benzoylcytidine;<em>N</em><sup>4</sup>-Benzoylcytidine;NSC 242979",
    "duplicated_cas_no": "1027372-67-3;2303471-45-4",
    "SMILES": "O[C@H]1[C@@H](O[C@H](CO)[C@H]1O)N2C(=O)N=C(NC(=O)C3=CC=CC=C3)C=C2",
    "meta_data": {
        "InChI": "InChI=1S/C16H17N3O6/c20-8-10-12(21)13(22)15(25-10)19-7-6-11(18-16(19)24)17-14(23)9-4-2-1-3-5-9/h1-7,10,12-13,15,20-22H,8H2,(H,17,18,23,24)/t10-,12-,13-,15-/m1/s1",
        "InChIKey": null,
        "Canonical SMILES": "O=C1N=C(C=CN1C2OC(CO)C(O)C2O)NC(=O)C=3C=CC=CC3",
        "Molecular Formula": "C<sub>16</sub>H<sub>17</sub>N<sub>3</sub>O<sub>6</sub>",
        "Molecular Mass": "347.32",
        "Melting Point": "232 °C (decomp)"
    }
}