{
    "cas_no": "455-36-7",
    "key_name": "3′-Fluoroacetophenone",
    "cn_name": "3\"-氟苯乙酮;间氟苯乙酮;",
    "alternate_name": "Ethanone, 1-(3-fluorophenyl)-;Acetophenone, 3′-fluoro-;1-(3-Fluorophenyl)ethanone;<em>m</em>-Fluoroacetophenone;3′-Fluoroacetophenone;1-Acetyl-3-fluorobenzene;<em>m</em>-Fluorophenyl methyl ketone;3-Fluorophenyl methyl ketone;NSC 88301;3-Acetyl-1-fluorobenzene;Methyl 3-fluorophenyl ketone;1-(3-Fluorophenyl)ethan-1-one",
    "duplicated_cas_no": "",
    "SMILES": "C(C)(=O)C1=CC(F)=CC=C1",
    "meta_data": {
        "InChI": "InChI=1S/C8H7FO/c1-6(10)7-3-2-4-8(9)5-7/h2-5H,1H3",
        "InChIKey": null,
        "Canonical SMILES": "O=C(C=1C=CC=C(F)C1)C",
        "Molecular Formula": "C<sub>8</sub>H<sub>7</sub>FO",
        "Molecular Mass": "138.14",
        "Boiling Point": "86-87 °C @ Press: 16 Torr"
    }
}