{
    "cas_no": "1968-40-7",
    "key_name": "Ethyl 4-pentenoate",
    "cn_name": "4-戊烯酸乙酯;4-戊炔甲酸乙酯;",
    "alternate_name": "4-Pentenoic acid, ethyl ester;Ethyl 4-pentenoate;4-Ethoxycarbonylbut-1-ene",
    "duplicated_cas_no": "",
    "SMILES": "C(CCC=C)(OCC)=O",
    "meta_data": {
        "InChI": "InChI=1S/C7H12O2/c1-3-5-6-7(8)9-4-2/h3H,1,4-6H2,2H3",
        "InChIKey": null,
        "Canonical SMILES": "O=C(OCC)CCC=C",
        "Molecular Formula": "C<sub>7</sub>H<sub>12</sub>O<sub>2</sub>",
        "Molecular Mass": "128.17",
        "Boiling Point": "130 °C @ Press: 12 Torr",
        "Density": "0.9234 g/cm³ @ Temp: 40 °C"
    }
}