{
    "cas_no": "471-46-5",
    "key_name": "Oxamide",
    "cn_name": "草酰胺;",
    "alternate_name": "Ethanediamide;Oxamide;Oxalamide;Oxamimidic acid;Oxalic acid diamide;Diaminoglyoxal;Oxamic acid amide;NSC 2770",
    "duplicated_cas_no": "4745-68-0",
    "SMILES": "C(C(N)=O)(N)=O",
    "meta_data": {
        "InChI": "InChI=1S/C2H4N2O2/c3-1(5)2(4)6/h(H2,3,5)(H2,4,6)",
        "InChIKey": null,
        "Canonical SMILES": "O=C(N)C(=O)N",
        "Molecular Formula": "C<sub>2</sub>H<sub>4</sub>N<sub>2</sub>O<sub>2</sub>",
        "Molecular Mass": "88.07",
        "Melting Point": "350 °C (decomp)",
        "Density": "1.667 g/cm³"
    }
}