{
    "cas_no": "83-38-5",
    "key_name": "2,6-Dichlorobenzaldehyde",
    "cn_name": "2,6-二氯苯甲醛;",
    "alternate_name": "Benzaldehyde, 2,6-dichloro-;2,6-Dichlorobenzaldehyde;<em>o</em>,<em>o</em>′-Dichlorobenzaldehyde;NSC 7193",
    "duplicated_cas_no": "",
    "SMILES": "C(=O)C1=C(Cl)C=CC=C1Cl",
    "meta_data": {
        "InChI": "InChI=1S/C7H4Cl2O/c8-6-2-1-3-7(9)5(6)4-10/h1-4H",
        "InChIKey": null,
        "Canonical SMILES": "O=CC=1C(Cl)=CC=CC1Cl",
        "Molecular Formula": "C<sub>7</sub>H<sub>4</sub>Cl<sub>2</sub>O",
        "Molecular Mass": "175.01",
        "Boiling Point": "71 °C",
        "Melting Point": "71.5 °C"
    }
}