{
    "cas_no": "23894-12-4",
    "key_name": "6-Amino-1-naphthalenol",
    "cn_name": "6-氨基-1-萘酚;",
    "alternate_name": "1-Naphthalenol, 6-amino-;1-Naphthol, 6-amino-;6-Amino-1-naphthalenol;2-Amino-5-naphthol;2-Amino-5-hydroxynaphthalene;6-Amino-1-naphthol",
    "duplicated_cas_no": "",
    "SMILES": "OC=1C2=C(C=C(N)C=C2)C=CC1",
    "meta_data": {
        "InChI": "InChI=1S/C10H9NO/c11-8-4-5-9-7(6-8)2-1-3-10(9)12/h1-6,12H,11H2",
        "InChIKey": null,
        "Canonical SMILES": "OC1=CC=CC=2C=C(N)C=CC12",
        "Molecular Formula": "C<sub>10</sub>H<sub>9</sub>NO",
        "Molecular Mass": "159.18",
        "Melting Point": "190.6 °C"
    }
}