{
    "cas_no": "76-87-9",
    "key_name": "Triphenyltin hydroxide",
    "cn_name": "三苯基氢氧化锡;三苯基羟基锡;毒菌锡;",
    "alternate_name": "Stannane, hydroxytriphenyl-;Triphenyltin hydroxide;Hydroxytriphenylstannane;Dowco 186;ENT 28009;Du-Ter;Fentin hydroxide;Hydroxytriphenyltin;TPTH;Triphenylstannanol;K 19;Tenhide;Fenolovo;Erithane;Vancide KS;Triphenylhydroxytin;Triphenylstannyl hydroxide;Sunitron H;Triphenyl(hydroxo)stannane;SuperTin;NSC 113243;Triphenylhydroxystannane",
    "duplicated_cas_no": "",
    "SMILES": "[Sn](O)(C1=CC=CC=C1)(C2=CC=CC=C2)C3=CC=CC=C3",
    "meta_data": {
        "InChI": "InChI=1S/3C6H5.H2O.Sn/c3*1-2-4-6-5-3-1;;/h3*1-5H;1H2;/q;;;;+1/p-1",
        "InChIKey": null,
        "Canonical SMILES": "O[Sn](C=1C=CC=CC1)(C=2C=CC=CC2)C=3C=CC=CC3",
        "Molecular Formula": "C<sub>18</sub>H<sub>16</sub>OSn",
        "Molecular Mass": "367.03",
        "Melting Point": "119 °C",
        "Density": "1.54 g/cm³ @ Temp: 20 °C"
    }
}