{
    "cas_no": "103878-84-8",
    "key_name": "Lazabemide",
    "cn_name": "拉扎贝胺;N-(2-氨基乙基)-5-氯-2-吡啶羧酰胺;",
    "alternate_name": "2-Pyridinecarboxamide, <em>N</em>-(2-aminoethyl)-5-chloro-;<em>N</em>-(2-Aminoethyl)-5-chloro-2-pyridinecarboxamide;Lazabemide;Ro 19-6327/000;6-Chloropyridine-<em>N</em>-(3-hydroxypropyl)-2-carbonylamide",
    "duplicated_cas_no": "",
    "SMILES": "C(NCCN)(=O)C1=CC=C(Cl)C=N1",
    "meta_data": {
        "InChI": "InChI=1S/C8H10ClN3O/c9-6-1-2-7(12-5-6)8(13)11-4-3-10/h1-2,5H,3-4,10H2,(H,11,13)",
        "InChIKey": null,
        "Canonical SMILES": "O=C(NCCN)C1=NC=C(Cl)C=C1",
        "Molecular Formula": "C<sub>8</sub>H<sub>10</sub>ClN<sub>3</sub>O",
        "Molecular Mass": "199.64",
        "Melting Point": "132-134 °C"
    }
}