{
    "cas_no": "712-09-4",
    "key_name": "5-Methoxytryptophol",
    "cn_name": "5-甲氧基吲哚-3-乙醇;5-甲氧基色醇;",
    "alternate_name": "1<em>H</em>-Indole-3-ethanol, 5-methoxy-;Indole-3-ethanol, 5-methoxy-;5-Methoxy-1<em>H</em>-indole-3-ethanol;5-Methoxytryptophol;3-(2-Hydroxyethyl)-5-methoxyindole;2-(5-Methoxy-1<em>H</em>-indol-3-yl)ethanol;2-(5-Methoxy-1<em>H</em>-indol-3-yl)ethan-1-ol",
    "duplicated_cas_no": "",
    "SMILES": "C(CO)C=1C=2C(NC1)=CC=C(OC)C2",
    "meta_data": {
        "InChI": "InChI=1S/C11H13NO2/c1-14-9-2-3-11-10(6-9)8(4-5-13)7-12-11/h2-3,6-7,12-13H,4-5H2,1H3",
        "InChIKey": null,
        "Canonical SMILES": "OCCC1=CNC=2C=CC(OC)=CC21",
        "Molecular Formula": "C<sub>11</sub>H<sub>13</sub>NO<sub>2</sub>",
        "Molecular Mass": "191.23",
        "Boiling Point": "194 °C"
    }
}