{
    "cas_no": "13182-89-3",
    "key_name": "Metronidazole benzoate",
    "cn_name": "苯酰甲硝唑;1-(2-苯甲酰氧乙基)-5-硝基-2-甲基咪唑;",
    "alternate_name": "1<em>H</em>-Imidazole-1-ethanol, 2-methyl-5-nitro-, 1-benzoate;Imidazole-1-ethanol, 2-methyl-5-nitro-, benzoate (ester);1<em>H</em>-Imidazole-1-ethanol, 2-methyl-5-nitro-, benzoate (ester);Imidazole-1-ethanol, 2-methyl-5-nitro-, benzoate;Metronidazole benzoate;Benzoylmetronidazole;Klion suspension;2-(2-Methyl-5-nitro-1<em>H</em>-imidazol-1-yl)ethyl benzoate;2-(2-Methyl-5-nitro-1<em>H</em>-imidazol-1-yl)ethylbenzoate",
    "duplicated_cas_no": "",
    "SMILES": "C(COC(=O)C1=CC=CC=C1)N2C(N(=O)=O)=CN=C2C",
    "meta_data": {
        "InChI": "InChI=1S/C13H13N3O4/c1-10-14-9-12(16(18)19)15(10)7-8-20-13(17)11-5-3-2-4-6-11/h2-6,9H,7-8H2,1H3",
        "InChIKey": null,
        "Canonical SMILES": "O=C(OCCN1C(=NC=C1N(=O)=O)C)C=2C=CC=CC2",
        "Molecular Formula": "C<sub>13</sub>H<sub>13</sub>N<sub>3</sub>O<sub>4</sub>",
        "Molecular Mass": "275.26",
        "Melting Point": "100 °C"
    }
}