{
    "cas_no": "129-43-1",
    "key_name": "1-Hydroxyanthraquinone",
    "cn_name": "1-羟基蒽醌;",
    "alternate_name": "9,10-Anthracenedione, 1-hydroxy-;Anthraquinone, 1-hydroxy-;1-Hydroxy-9,10-anthracenedione;1-Hydroxyanthraquinone;1-Hydroxy-9,10-anthraquinone;α-Hydroxyanthraquinone;Erythroxyanthraquinone;NSC 8640;1-Hydroxy-9,10-dihydroanthracene-9,10-dione",
    "duplicated_cas_no": "",
    "SMILES": "O=C1C=2C(C(=O)C=3C1=CC=CC3)=CC=CC2O",
    "meta_data": {
        "InChI": "InChI=1S/C14H8O3/c15-11-7-3-6-10-12(11)14(17)9-5-2-1-4-8(9)13(10)16/h1-7,15H",
        "InChIKey": null,
        "Canonical SMILES": "O=C1C=2C=CC=CC2C(=O)C=3C(O)=CC=CC13",
        "Molecular Formula": "C<sub>14</sub>H<sub>8</sub>O<sub>3</sub>",
        "Molecular Mass": "224.21",
        "Melting Point": "193.8 °C"
    }
}