{
    "cas_no": "55666-43-8",
    "key_name": "<em>tert</em>-Butyl 3-bromopropionate",
    "cn_name": "叔丁基3-溴丙酸;",
    "alternate_name": "Propanoic acid, 3-bromo-, 1,1-dimethylethyl ester;<em>tert</em>-Butyl 3-bromopropionate;2-(<em>tert</em>-Butoxycarbonyl)ethyl bromide;<em>tert</em>-Butyl 3-bromopropanoate;NSC 82471;3-Bromopropionic acid <em>tert</em>-butyl ester;3-Bromopropionic acid tert-butyl ester",
    "duplicated_cas_no": "",
    "SMILES": "C(OC(C)(C)C)(CCBr)=O",
    "meta_data": {
        "InChI": "InChI=1S/C7H13BrO2/c1-7(2,3)10-6(9)4-5-8/h4-5H2,1-3H3",
        "InChIKey": null,
        "Canonical SMILES": "O=C(OC(C)(C)C)CCBr",
        "Molecular Formula": "C<sub>7</sub>H<sub>13</sub>BrO<sub>2</sub>",
        "Molecular Mass": "209.08",
        "Boiling Point": "88-90 °C @ Press: 2.5 Torr"
    }
}