{
    "cas_no": "41910-64-9",
    "key_name": "4-Chloroindoline",
    "cn_name": "4-氯吲哚啉;4-氯-2,3-二氢-1H-吲哚;",
    "alternate_name": "1<em>H</em>-Indole, 4-chloro-2,3-dihydro-;Indoline, 4-chloro-;4-Chloro-2,3-dihydro-1<em>H</em>-indole;4-Chloroindoline",
    "duplicated_cas_no": "",
    "SMILES": "ClC1=C2C(=CC=C1)NCC2",
    "meta_data": {
        "InChI": "InChI=1S/C8H8ClN/c9-7-2-1-3-8-6(7)4-5-10-8/h1-3,10H,4-5H2",
        "InChIKey": null,
        "Canonical SMILES": "ClC1=CC=CC=2NCCC12",
        "Molecular Formula": "C<sub>8</sub>H<sub>8</sub>ClN",
        "Molecular Mass": "153.61",
        "Boiling Point": "135 °C @ Press: 10 Torr"
    }
}