{
    "cas_no": "10025-82-8",
    "key_name": "Indium trichloride",
    "cn_name": "氯化铟;",
    "alternate_name": "Indium chloride (InCl<sub>3</sub>);Indium trichloride;Trichloroindium;Indium(III) chloride;Indium chloride",
    "duplicated_cas_no": "12167-90-7;2488818-00-2",
    "SMILES": "[In](Cl)(Cl)Cl",
    "meta_data": {
        "InChI": "InChI=1S/3ClH.In/h3*1H;/q;;;+3/p-3",
        "InChIKey": null,
        "Canonical SMILES": "Cl[In](Cl)Cl",
        "Molecular Formula": "Cl<sub>3</sub>In",
        "Molecular Mass": "",
        "Boiling Point": "655 °C",
        "Melting Point": "583 °C",
        "Density": "4.0 g/cm³"
    }
}