{
    "cas_no": "85583-54-6",
    "key_name": "5-Ethyl-2-[2-(4-nitrophenoxy)ethyl]pyridine",
    "cn_name": "4-[2-(5-乙基-2-吡啶基)乙氧基]硝基苯;",
    "alternate_name": "Pyridine, 5-ethyl-2-[2-(4-nitrophenoxy)ethyl]-;5-Ethyl-2-[2-(4-nitrophenoxy)ethyl]pyridine;4-[2-(5-Ethyl-2-pyridyl)ethoxy]nitrobenzene;4-[2-(5-Ethyl-2-pyridinyl)ethoxy]nitrobenzene",
    "duplicated_cas_no": "",
    "SMILES": "O(CCC1=CC=C(CC)C=N1)C2=CC=C(N(=O)=O)C=C2",
    "meta_data": {
        "InChI": "InChI=1S/C15H16N2O3/c1-2-12-3-4-13(16-11-12)9-10-20-15-7-5-14(6-8-15)17(18)19/h3-8,11H,2,9-10H2,1H3",
        "InChIKey": null,
        "Canonical SMILES": "O=N(=O)C1=CC=C(OCCC2=NC=C(C=C2)CC)C=C1",
        "Molecular Formula": "C<sub>15</sub>H<sub>16</sub>N<sub>2</sub>O<sub>3</sub>",
        "Molecular Mass": "272.30",
        "Melting Point": "53-55 °C"
    }
}