{
    "cas_no": "623-96-1",
    "key_name": "Dipropyl carbonate",
    "cn_name": "碳酸二丙酯;碳酸丙酯;",
    "alternate_name": "Carbonic acid, dipropyl ester;Dipropyl carbonate;Di-<em>n</em>-propyl carbonate;NSC 166495",
    "duplicated_cas_no": "",
    "SMILES": "C(OCCC)(OCCC)=O",
    "meta_data": {
        "InChI": "InChI=1S/C7H14O3/c1-3-5-9-7(8)10-6-4-2/h3-6H2,1-2H3",
        "InChIKey": null,
        "Canonical SMILES": "O=C(OCCC)OCCC",
        "Molecular Formula": "C<sub>7</sub>H<sub>14</sub>O<sub>3</sub>",
        "Molecular Mass": "146.18",
        "Boiling Point": "168 °C",
        "Melting Point": "&lt;25 °C",
        "Density": "0.9107 g/cm³ @ Temp: 50 °C"
    }
}