{
    "cas_no": "4922-98-9",
    "key_name": "3-Phenyl-1<em>H</em>-1,2,4-triazol-5-amine",
    "cn_name": null,
    "alternate_name": "1<em>H</em>-1,2,4-Triazol-5-amine, 3-phenyl-;<em>s</em>-Triazole, 3-amino-5-phenyl-;1<em>H</em>-1,2,4-Triazol-3-amine, 5-phenyl-;3-Phenyl-1<em>H</em>-1,2,4-triazol-5-amine;3-Amino-5-phenyl-1,2,4-triazole;3-Amino-5-phenyl-1<em>H</em>-1,2,4-triazole;NSC 34794;NSC 96969;5-Phenyl-4<em>H</em>-1,2,4-triazol-3-amine",
    "duplicated_cas_no": "2819641-79-5",
    "SMILES": "NC=1NC(=NN1)C2=CC=CC=C2",
    "meta_data": {
        "InChI": "InChI=1S/C8H8N4/c9-8-10-7(11-12-8)6-4-2-1-3-5-6/h1-5H,(H3,9,10,11,12)",
        "InChIKey": null,
        "Canonical SMILES": "N=1N=C(NC1N)C=2C=CC=CC2",
        "Molecular Formula": "C<sub>8</sub>H<sub>8</sub>N<sub>4</sub>",
        "Molecular Mass": "160.18",
        "Melting Point": "187-188 °C"
    }
}