{
    "cas_no": "5205-11-8",
    "key_name": "Prenyl benzoate",
    "cn_name": "苯甲酸3-甲基2-丁烯酯;3-甲基-2-丁烯-1-醇苯甲酸酯;",
    "alternate_name": "2-Buten-1-ol, 3-methyl-, 1-benzoate;2-Buten-1-ol, 3-methyl-, benzoate;3-Methyl-2-butenyl benzoate;Prenyl benzoate;2-Methyl-4-benzoyloxy-2-butene;3-Methylbut-2-en-1-yl benzoate",
    "duplicated_cas_no": "",
    "SMILES": "C(OCC=C(C)C)(=O)C1=CC=CC=C1",
    "meta_data": {
        "InChI": "InChI=1S/C12H14O2/c1-10(2)8-9-14-12(13)11-6-4-3-5-7-11/h3-8H,9H2,1-2H3",
        "InChIKey": null,
        "Canonical SMILES": "O=C(OCC=C(C)C)C=1C=CC=CC1",
        "Molecular Formula": "C<sub>12</sub>H<sub>14</sub>O<sub>2</sub>",
        "Molecular Mass": "190.24",
        "Boiling Point": "60 °C @ Press: 0.1 Torr"
    }
}