{
    "cas_no": "31852-84-3",
    "key_name": "Trimethylene carbonate homopolymer",
    "cn_name": null,
    "alternate_name": "1,3-Dioxan-2-one, homopolymer;Carbonic acid, cyclic trimethylene ester, polymers;1,3-Propanediol, cyclic carbonate, polymers;Poly(trimethylene carbonate);Trimethylene carbonate polymer;Trimethylene carbonate homopolymer;Cyclotrimethylene carbonate homopolymer;1,3-Trimethylene carbonate homopolymer;Poly(1,3-trimethylene carbonate)",
    "duplicated_cas_no": "",
    "SMILES": "O=C1OCCCO1",
    "meta_data": {
        "InChI": "InChI=1S/C4H6O3/c5-4-6-2-1-3-7-4/h1-3H2",
        "InChIKey": null,
        "Canonical SMILES": "O=C1OCCCO1",
        "Molecular Formula": "(C<sub>4</sub>H<sub>6</sub>O<sub>3</sub>)<sub>x</sub>",
        "Molecular Mass": "",
        "Melting Point": "42.2 °C",
        "Density": "1.247 g/cm³ (solid)"
    }
}