{
    "cas_no": "321-28-8",
    "key_name": "2-Fluoroanisole",
    "cn_name": "2-氟苯甲醚;",
    "alternate_name": "Benzene, 1-fluoro-2-methoxy-;Anisole, <em>o</em>-fluoro-;1-Fluoro-2-methoxybenzene;<em>o</em>-Fluoroanisole;2-Fluoroanisole;2-Fluoromethoxybenzene;2-Fluoro-1-methoxybenzene;2-Methoxyfluorobenzene;NSC 10339",
    "duplicated_cas_no": "",
    "SMILES": "O(C)C1=C(F)C=CC=C1",
    "meta_data": {
        "InChI": "InChI=1S/C7H7FO/c1-9-7-5-3-2-4-6(7)8/h2-5H,1H3",
        "InChIKey": null,
        "Canonical SMILES": "FC=1C=CC=CC1OC",
        "Molecular Formula": "C<sub>7</sub>H<sub>7</sub>FO",
        "Molecular Mass": "126.13",
        "Boiling Point": "154.5 °C",
        "Melting Point": "-39 °C",
        "Density": "1.1240 g/cm³ @ Temp: 25.00 °C"
    }
}