{
    "cas_no": "41122-70-7",
    "key_name": "6CB",
    "cn_name": "4-己基-4\"-氰基联苯;4\"-己基-(1,1\"-联苯基)-4-腈;",
    "alternate_name": "[1,1′-Biphenyl]-4-carbonitrile, 4′-hexyl-;4′-Hexyl[1,1′-biphenyl]-4-carbonitrile;4′-Hexyl-4-biphenylcarbonitrile;4-Cyano-4′-hexylbiphenyl;4-Hexyl-4′-cyanobiphenyl;4-Cyano-4′-<em>n</em>-hexylbiphenyl;4′-Hexyl-4-cyanobiphenyl;<em>p</em>-Hexyl-<em>p</em>′-cyanobiphenyl;4-Hexyl-4′-cyanodiphenyl;CB 6 (liquid crystal);CB 6;K 18 (liquid crystal);K 18;4′-<em>n</em>-Hexyl-4-cyanobiphenyl;6CB;4-<em>n</em>-Hexyl-4′-cyanobiphenyl;4-Cyano-4′-hexyl-1,1′-biphenyl;FR 2321",
    "duplicated_cas_no": "69866-38-2",
    "SMILES": "C(CCCCC)C1=CC=C(C=C1)C2=CC=C(C#N)C=C2",
    "meta_data": {
        "InChI": "InChI=1S/C19H21N/c1-2-3-4-5-6-16-7-11-18(12-8-16)19-13-9-17(15-20)10-14-19/h7-14H,2-6H2,1H3",
        "InChIKey": null,
        "Canonical SMILES": "N#CC=1C=CC(=CC1)C2=CC=C(C=C2)CCCCCC",
        "Molecular Formula": "C<sub>19</sub>H<sub>21</sub>N",
        "Molecular Mass": "263.38",
        "Boiling Point": "183-185 °C @ Press: 2 Torr",
        "Melting Point": "13.5 °C"
    }
}