{
    "cas_no": "3095-73-6",
    "key_name": "Hexakis(bromomethyl)benzene",
    "cn_name": "六全溴甲基苯;",
    "alternate_name": "Benzene, 1,2,3,4,5,6-hexakis(bromomethyl)-;Benzene, hexakis(bromomethyl)-;1,2,3,4,5,6-Hexakis(bromomethyl)benzene;Hexakis(bromomethyl)benzene;NSC 28057;1,2,3,4,5,6-Hexa(bromomethyl)benzene",
    "duplicated_cas_no": "",
    "SMILES": "C(Br)C1=C(CBr)C(CBr)=C(CBr)C(CBr)=C1CBr",
    "meta_data": {
        "InChI": "InChI=1S/C12H12Br6/c13-1-7-8(2-14)10(4-16)12(6-18)11(5-17)9(7)3-15/h1-6H2",
        "InChIKey": null,
        "Canonical SMILES": "BrCC=1C(=C(C(=C(C1CBr)CBr)CBr)CBr)CBr",
        "Molecular Formula": "C<sub>12</sub>H<sub>12</sub>Br<sub>6</sub>",
        "Molecular Mass": "635.65",
        "Melting Point": "297 °C"
    }
}