{
    "cas_no": "98-53-3",
    "key_name": "4-<em>tert</em>-Butylcyclohexanone",
    "cn_name": "4-叔丁基环己酮;对叔丁基环己酮;",
    "alternate_name": "Cyclohexanone, 4-(1,1-dimethylethyl)-;Cyclohexanone, 4-<em>tert</em>-butyl-;4-(1,1-Dimethylethyl)cyclohexanone;C 64;γ-<em>tert</em>-Butylcyclohexanone;4-<em>tert</em>-Butylcyclohexanone;<em>p</em>-<em>tert</em>-Butylcyclohexanone;NSC 73717",
    "duplicated_cas_no": "",
    "SMILES": "C(C)(C)(C)C1CCC(=O)CC1",
    "meta_data": {
        "InChI": "InChI=1S/C10H18O/c1-10(2,3)8-4-6-9(11)7-5-8/h8H,4-7H2,1-3H3",
        "InChIKey": null,
        "Canonical SMILES": "O=C1CCC(CC1)C(C)(C)C",
        "Molecular Formula": "C<sub>10</sub>H<sub>18</sub>O",
        "Molecular Mass": "154.25",
        "Boiling Point": "106-108 °C @ Press: 18 Torr",
        "Melting Point": "49-50 °C"
    }
}