{
    "cas_no": "3390-61-2",
    "key_name": "Trimethylpentaphenyltrisiloxane",
    "cn_name": "1,3,5-三甲基-1,1,3,5,5-五苯基三硅二氧烷;",
    "alternate_name": "Trisiloxane, 1,3,5-trimethyl-1,1,3,5,5-pentaphenyl-;1,3,5-Trimethyl-1,1,3,5,5-pentaphenyltrisiloxane;DC 705;Dow Corning 705;HIVAC F 5;Pentaphenyltrimethyltrisiloxane;Silicone DC 705;PDM 7050;PH 1555HRI Cosmetic Fluid;PH 1555;PH 1555HRI;Dow Corning 555;DC 555;Dow Corning 555 Cosmetic Fluid;FZ 3156;F 5;Shin-Etsu F 5;Dow Corning PH 1555HRI;Trimethylpentaphenyltrisiloxane;Hivac F 5;1,1,3,5,5-Pentaphenyl-1,3,5-trimethyltrisiloxane;1,1,3,5,5-Pentaphenyl-1,3,5-trimethylsiloxane",
    "duplicated_cas_no": "",
    "SMILES": "[Si](O[Si](O[Si](C)(C1=CC=CC=C1)C2=CC=CC=C2)(C)C3=CC=CC=C3)(C)(C4=CC=CC=C4)C5=CC=CC=C5",
    "meta_data": {
        "InChI": "InChI=1S/C33H34O2Si3/c1-36(29-19-9-4-10-20-29,30-21-11-5-12-22-30)34-38(3,33-27-17-8-18-28-33)35-37(2,31-23-13-6-14-24-31)32-25-15-7-16-26-32/h4-28H,1-3H3",
        "InChIKey": null,
        "Canonical SMILES": "O([Si](O[Si](C=1C=CC=CC1)(C=2C=CC=CC2)C)(C=3C=CC=CC3)C)[Si](C=4C=CC=CC4)(C=5C=CC=CC5)C",
        "Molecular Formula": "C<sub>33</sub>H<sub>34</sub>O<sub>2</sub>Si<sub>3</sub>",
        "Molecular Mass": "546.88",
        "Boiling Point": "240-245 °C @ Press: 0.5 Torr",
        "Melting Point": "-25 °C",
        "Density": "1.093 g/cm³"
    }
}