{
    "cas_no": "42860-06-0",
    "key_name": "4-Bromo-3-iodobenzoic acid",
    "cn_name": null,
    "alternate_name": "Benzoic acid, 4-bromo-3-iodo-;4-Bromo-3-iodobenzoic acid;3-Iodo-4-bromobenzoic acid",
    "duplicated_cas_no": "",
    "SMILES": "C(O)(=O)C1=CC(I)=C(Br)C=C1",
    "meta_data": {
        "InChI": "InChI=1S/C7H4BrIO2/c8-5-2-1-4(7(10)11)3-6(5)9/h1-3H,(H,10,11)",
        "InChIKey": null,
        "Canonical SMILES": "O=C(O)C1=CC=C(Br)C(I)=C1",
        "Molecular Formula": "C<sub>7</sub>H<sub>4</sub>BrIO<sub>2</sub>",
        "Molecular Mass": "326.91",
        "Melting Point": "243-244 °C"
    }
}