{
    "cas_no": "1871-22-3",
    "key_name": "Blue tetrazolium",
    "cn_name": "氯化四唑蓝;氯化蓝四氮唑;3,3\"-[3,3\"-二甲氧基-1,1\"-联苯-4,4\"-二基]-双(2,5-二苯基-2H-四唑)氯化物;",
    "alternate_name": "2<em>H</em>-Tetrazolium, 2,2′-(3,3′-dimethoxy[1,1′-biphenyl]-4,4′-diyl)bis[3,5-diphenyl-, chloride (1:2);3,3′-(3,3′-Dimethoxy-4,4′-biphenylylene)bis[2,5-diphenyl-2<em>H</em>-tetrazolium chloride];2<em>H</em>-Tetrazolium, 3,3′-(3,3′-dimethoxy-4,4′-biphenylylene)bis[2,5-diphenyl-, dichloride;2<em>H</em>-Tetrazolium, 2,2′-(3,3′-dimethoxy[1,1′-biphenyl]-4,4′-diyl)bis[3,5-diphenyl-, dichloride;Blue tetrazolium;BT;3,3′-Dianisolebis[4,4′-(3,5-diphenyl)tetrazolium chloride];3,3′-(3,3′-Dimethoxy-4,4′-biphenylene)bis[2,5-diphenyl-2<em>H</em>-tetrazolium chloride];Ditetrazolium chloride;Tetrazolium blue;2,2′,5,5′-Tetraphenyl-3,3′-(3,3′-dimethoxy-4,4′-diphenylene)ditetrazolium chloride;Blue tetrazolium chloride;2,2′-(<em>m</em>,<em>m</em>′-Dimethoxy-<em>p</em>,<em>p</em>′-biphenylene)bis(3,5-diphenyltetrazolium chloride);BT (dye);NSC 27623;Tetrazolium blue chloride",
    "duplicated_cas_no": "101329-54-8;106395-82-8;1184-30-1;3633-57-6;42988-44-3;412909-24-1;562102-26-5;679787-06-5;146671-23-0",
    "SMILES": "O(C)C1=C(N2[N+](=NC(=N2)C3=CC=CC=C3)C4=CC=CC=C4)C=CC(=C1)C5=CC(OC)=C(C=C5)N6[N+](=NC(=N6)C7=CC=CC=C7)C8=CC=CC=C8.[Cl-]",
    "meta_data": {
        "InChI": "InChI=1S/C40H32N8O2.2ClH/c1-49-37-27-31(23-25-35(37)47-43-39(29-15-7-3-8-16-29)41-45(47)33-19-11-5-12-20-33)32-24-26-36(38(28-32)50-2)48-44-40(30-17-9-4-10-18-30)42-46(48)34-21-13-6-14-22-34;;/h3-28H,1-2H3;2*1H/q+2;;/p-2",
        "InChIKey": null,
        "Canonical SMILES": "[Cl-].N1=C(N=[N+](C=2C=CC=CC2)N1C3=CC=C(C=C3OC)C=4C=CC(=C(OC)C4)N5N=C(N=[N+]5C=6C=CC=CC6)C=7C=CC=CC7)C=8C=CC=CC8",
        "Molecular Formula": "C<sub>40</sub>H<sub>32</sub>N<sub>8</sub>O<sub>2</sub>.2Cl",
        "Molecular Mass": "",
        "Melting Point": "242-245 °C (decomp)"
    }
}