{
    "cas_no": "487-11-6",
    "key_name": "Elemicin",
    "cn_name": "榄香素;5-烯丙基-1,2,3-三甲氧基苯;",
    "alternate_name": "Benzene, 1,2,3-trimethoxy-5-(2-propen-1-yl)-;Elemicin;Benzene, 5-allyl-1,2,3-trimethoxy-;Benzene, 1,2,3-trimethoxy-5-(2-propenyl)-;1,2,3-Trimethoxy-5-(2-propen-1-yl)benzene;3,4,5-Trimethoxyallylbenzene;4-Allyl-1,2,6-trimethoxybenzene;5-(Prop-2-enyl)-1,2,3-trimethoxybenzene;1-Allyl-3,4,5-trimethoxybenzene;1,2,3-Trimethoxy-5-(2-propenyl)benzene;5-Allyl-1,2,3-trimethoxybenzene;1-(3,4,5-Trimethoxyphenyl)-2-propene;NSC 16704",
    "duplicated_cas_no": "",
    "SMILES": "O(C)C1=C(OC)C=C(CC=C)C=C1OC",
    "meta_data": {
        "InChI": "InChI=1S/C12H16O3/c1-5-6-9-7-10(13-2)12(15-4)11(8-9)14-3/h5,7-8H,1,6H2,2-4H3",
        "InChIKey": null,
        "Canonical SMILES": "O(C=1C=C(C=C(OC)C1OC)CC=C)C",
        "Molecular Formula": "C<sub>12</sub>H<sub>16</sub>O<sub>3</sub>",
        "Molecular Mass": "208.25",
        "Boiling Point": "152-156 °C",
        "Density": "1.0630 g/cm³ @ Temp: 20 °C"
    }
}