{
    "cas_no": "6164-67-6",
    "key_name": "9-Azabicyclo[3.3.1]nonan-3-one, 9-methyl-, oxime",
    "cn_name": "高托品酮肟;9-甲基-9-氮杂双环[3.3.1]壬烷-3-酮肟;",
    "alternate_name": "9-Azabicyclo[3.3.1]nonan-3-one, 9-methyl-, oxime;(±)-Pseudopelletierine oxime;9-Methyl-9-azabicyclo[3.3.1]nonan-3-one oxime",
    "duplicated_cas_no": "96400-79-2",
    "SMILES": "CN1C2CC(=NO)CC1CCC2",
    "meta_data": {
        "InChI": "InChI=1S/C9H16N2O/c1-11-8-3-2-4-9(11)6-7(5-8)10-12/h8-9,12H,2-6H2,1H3",
        "InChIKey": null,
        "Canonical SMILES": "ON=C1CC2N(C)C(C1)CCC2",
        "Molecular Formula": "C<sub>9</sub>H<sub>16</sub>N<sub>2</sub>O",
        "Molecular Mass": "168.24",
        "Melting Point": "126-127 °C"
    }
}