{
    "cas_no": "57543-66-5",
    "key_name": "2<em>H</em>-1-Benzopyran-3-carbonitrile",
    "cn_name": null,
    "alternate_name": "2<em>H</em>-1-Benzopyran-3-carbonitrile;3-Cyanochromene;3-Chromenecarbonitrile;NSC 279236;2<em>H</em>-Chromene-3-carbonitrile",
    "duplicated_cas_no": "",
    "SMILES": "C(#N)C1=CC=2C(OC1)=CC=CC2",
    "meta_data": {
        "InChI": "InChI=1S/C10H7NO/c11-6-8-5-9-3-1-2-4-10(9)12-7-8/h1-5H,7H2",
        "InChIKey": null,
        "Canonical SMILES": "N#CC1=CC=2C=CC=CC2OC1",
        "Molecular Formula": "C<sub>10</sub>H<sub>7</sub>NO",
        "Molecular Mass": "157.17",
        "Melting Point": "48-49 °C"
    }
}