{
    "cas_no": "269410-07-3",
    "key_name": "2,2′-(1,2-Phenylene)bis[4,4,5,5-tetramethyl-1,3,2-dioxaborolane]",
    "cn_name": null,
    "alternate_name": "1,3,2-Dioxaborolane, 2,2′-(1,2-phenylene)bis[4,4,5,5-tetramethyl-;2,2′-(1,2-Phenylene)bis[4,4,5,5-tetramethyl-1,3,2-dioxaborolane];1,2-Bis(4,4,5,5-tetramethyl-1,3,2-dioxaborolan-2-yl)benzene",
    "duplicated_cas_no": "",
    "SMILES": "CC1(C)OB(OC1(C)C)C2=C(C=CC=C2)B3OC(C)(C)C(C)(C)O3",
    "meta_data": {
        "InChI": "InChI=1S/C18H28B2O4/c1-15(2)16(3,4)22-19(21-15)13-11-9-10-12-14(13)20-23-17(5,6)18(7,8)24-20/h9-12H,1-8H3",
        "InChIKey": null,
        "Canonical SMILES": "O1B(OC(C)(C)C1(C)C)C=2C=CC=CC2B3OC(C)(C)C(O3)(C)C",
        "Molecular Formula": "C<sub>18</sub>H<sub>28</sub>B<sub>2</sub>O<sub>4</sub>",
        "Molecular Mass": "330.03",
        "Melting Point": "107.1-107.6 °C"
    }
}