{
    "cas_no": "53348-05-3",
    "key_name": "3,6-Dibromo-9,10-phenanthrenedione",
    "cn_name": null,
    "alternate_name": "9,10-Phenanthrenedione, 3,6-dibromo-;Phenanthrenequinone, 3,6-dibromo-;3,6-Dibromo-9,10-phenanthrenedione;3,6-Dibromo-9,10-phenanthrenequinone;NSC 87364;3,6-Dibromophenanthrene-9,10-dione;3,6-Dibromophenanthraquinone;3,6-Dibromo-9,10-dihydrophenanthrene-9,10-dione;3,6-Dibromophenantrene-9,10-dione",
    "duplicated_cas_no": "",
    "SMILES": "O=C1C=2C(C=3C(C1=O)=CC=C(Br)C3)=CC(Br)=CC2",
    "meta_data": {
        "InChI": "InChI=1S/C14H6Br2O2/c15-7-1-3-9-11(5-7)12-6-8(16)2-4-10(12)14(18)13(9)17/h1-6H",
        "InChIKey": null,
        "Canonical SMILES": "O=C1C(=O)C=2C=CC(Br)=CC2C3=CC(Br)=CC=C13",
        "Molecular Formula": "C<sub>14</sub>H<sub>6</sub>Br<sub>2</sub>O<sub>2</sub>",
        "Molecular Mass": "366.00",
        "Melting Point": "286-287 °C"
    }
}