{
    "cas_no": "99522-79-9",
    "key_name": "Pranidipine",
    "cn_name": null,
    "alternate_name": "3,5-Pyridinedicarboxylic acid, 1,4-dihydro-2,6-dimethyl-4-(3-nitrophenyl)-, 3-methyl 5-[(2<em>E</em>)-3-phenyl-2-propen-1-yl] ester;3,5-Pyridinedicarboxylic acid, 1,4-dihydro-2,6-dimethyl-4-(3-nitrophenyl)-, methyl 3-phenyl-2-propenyl ester, (<em>E</em>)-;3,5-Pyridinedicarboxylic acid, 1,4-dihydro-2,6-dimethyl-4-(3-nitrophenyl)-, methyl (2<em>E</em>)-3-phenyl-2-propenyl ester;FRC 8411;OPC 13340;Pranidipine;Acalas",
    "duplicated_cas_no": "",
    "SMILES": "C(OC/C=C/C1=CC=CC=C1)(=O)C=2C(C(C(OC)=O)=C(C)NC2C)C3=CC(N(=O)=O)=CC=C3",
    "meta_data": {
        "InChI": "InChI=1/C25H24N2O6/c1-16-21(24(28)32-3)23(19-12-7-13-20(15-19)27(30)31)22(17(2)26-16)25(29)33-14-8-11-18-9-5-4-6-10-18/h4-13,15,23,26H,14H2,1-3H3/b11-8+",
        "InChIKey": null,
        "Canonical SMILES": "O=C(OC)C1=C(NC(=C(C(=O)OCC=CC=2C=CC=CC2)C1C=3C=CC=C(C3)N(=O)=O)C)C",
        "Molecular Formula": "C<sub>25</sub>H<sub>24</sub>N<sub>2</sub>O<sub>6</sub>",
        "Molecular Mass": "448.47",
        "Melting Point": "143.5-144.5 °C"
    }
}