{
    "cas_no": "5943-30-6",
    "key_name": "<em>sec</em>-Butyl disulfide",
    "cn_name": "二仲丁基二硫醚;",
    "alternate_name": "Disulfide, bis(1-methylpropyl);<em>sec</em>-Butyl disulfide;Bis(1-methylpropyl) disulfide;Di-<em>sec</em>-butyl disulfide;Bis(2-butyl) disulfide;3,6-Dimethyl-4,5-dithiaoctane;1-Methylpropyl disulfide;Di(1-methylpropyl) disulfide;2-(Butan-2-yldisulfanyl)butane",
    "duplicated_cas_no": "",
    "SMILES": "C(SSC(CC)C)(CC)C",
    "meta_data": {
        "InChI": "InChI=1S/C8H18S2/c1-5-7(3)9-10-8(4)6-2/h7-8H,5-6H2,1-4H3",
        "InChIKey": null,
        "Canonical SMILES": "S(SC(C)CC)C(C)CC",
        "Molecular Formula": "C<sub>8</sub>H<sub>18</sub>S<sub>2</sub>",
        "Molecular Mass": "178.36",
        "Boiling Point": "91 °C @ Press: 10 Torr"
    }
}