{
    "cas_no": "4216-02-8",
    "key_name": "Pigment Red 194",
    "cn_name": "还原红15;",
    "alternate_name": "Bisbenzimidazo[2,1-<em>b</em>:1′,2′-<em>j</em>]benzo[<em>lmn</em>][3,8]phenanthroline-6,9-dione;C.I. 71100;Algol Bordeaux RR;Algol Bordeaux RRP;C.I. Vat Red 15;Fenalac Bordeaux VRR Powder;Fenanthren Bordeaux RR;Helio Fast Bordeaux RR Toner 39-6001;Hostavat Bordeaux RR;Indanthren Bordeaux HRR;Indanthren Bordeaux RR;Mikethren Bordeaux RR;Paradone Bordeaux RR;Perinone Red;<em>cis</em>-Perinone;Indanthrene Bordeaux RR;Permanent Red TG 01;Vat Dye 15;C.I. Pigment Red 194;Pigment Bordeaux Anthraquinone;Vat Scarlet IIZh;Novoperm Red TG 02;Novoperm Red TGO 2HF4B;Pigment Red 194;Vat Red 2R;Vat Red 15;Vat Bordeaux 2R",
    "duplicated_cas_no": "11098-10-5;71838-92-1;633300-78-4;156841-35-9",
    "SMILES": "O=C1C=2C3=C4C(C=5N(C(=O)C4=CC2)C=6C(N5)=CC=CC6)=CC=C3C=7N1C=8C(N7)=CC=CC8",
    "meta_data": {
        "InChI": "InChI=1S/C26H12N4O2/c31-25-15-11-12-16-22-14(24-28-18-6-2-4-8-20(18)30(24)26(16)32)10-9-13(21(15)22)23-27-17-5-1-3-7-19(17)29(23)25/h1-12H",
        "InChIKey": null,
        "Canonical SMILES": "O=C1C2=CC=C3C(=O)N4C(=NC=5C=CC=CC54)C=6C=CC(C7=NC=8C=CC=CC8N17)=C2C36",
        "Molecular Formula": "C<sub>26</sub>H<sub>12</sub>N<sub>4</sub>O<sub>2</sub>",
        "Molecular Mass": "412.40",
        "Melting Point": "490-492 °C"
    }
}