{
    "cas_no": "644-78-0",
    "key_name": "2-Hydroxychalcone",
    "cn_name": null,
    "alternate_name": "2-Propen-1-one, 3-(2-hydroxyphenyl)-1-phenyl-;Chalcone, 2-hydroxy-;3-(2-Hydroxyphenyl)-1-phenyl-2-propen-1-one;2-Hydroxychalcone;3-(<em>o</em>-Hydroxyphenyl)acrylophenone;<em>o</em>-Hydroxystyryl phenyl ketone;1-Phenyl-3-(2-hydroxyphenyl)-2-propenone;Salicylideneacetophenone;NSC 37432;NSC 640539;3-(2-Hydroxyphenyl)-1-phenylpropenone",
    "duplicated_cas_no": "",
    "SMILES": "C(=CC(=O)C1=CC=CC=C1)C2=C(O)C=CC=C2",
    "meta_data": {
        "InChI": "InChI=1S/C15H12O2/c16-14-9-5-4-8-13(14)10-11-15(17)12-6-2-1-3-7-12/h1-11,16H",
        "InChIKey": null,
        "Canonical SMILES": "O=C(C=CC=1C=CC=CC1O)C=2C=CC=CC2",
        "Molecular Formula": "C<sub>15</sub>H<sub>12</sub>O<sub>2</sub>",
        "Molecular Mass": "224.25",
        "Melting Point": "153-154 °C"
    }
}