{
    "cas_no": "2866-43-5",
    "key_name": "2,5-Bis(2-benzoxazolyl)thiophene",
    "cn_name": "荧光增白剂185;荧光增白剂172;荧光增白剂EBF;2,5-二(苯并噁唑-2-)噻吩;",
    "alternate_name": "Benzoxazole, 2,2′-(2,5-thiophenediyl)bis-;2,2′-(2,5-Thiophenediyl)bis[benzoxazole];2,5-Bis(2-benzoxazolyl)thiophene;Thiophenebis(benzoxazolyl);2,5-Di(benzoxazol-2-yl)thiophene;SOF;SOF (fluorescent brightener);Uvitex EBF;C.I. 515240;Fluorescent Brightener 190;C.I. Fluorescent Brightening Agent 190;C.I. Fluorescent Brightener 190;C.I. Fluorescent Brightener 172;Tinopal SOP;C.I. Fluorescent Brightening Agent 185;C.I. Fluorescent Brightener 185;Uvitex SOF;Uvitex EBV;Fluorescent Brightener 185;Fluorescent Brightener 172;Unitex OB;EBF;Fluorescent Agent EBF;Fluorescent Brightener PB;2-[5-(1,3-Benzoxazol-2-yl)thiophen-2-yl]-1,3-benzoxazole",
    "duplicated_cas_no": "12224-41-8;12224-46-3;73201-83-9;75026-70-9;2252277-58-8",
    "SMILES": "C1(=NC=2C(O1)=CC=CC2)C=3SC(=CC3)C4=NC=5C(O4)=CC=CC5",
    "meta_data": {
        "InChI": "InChI=1S/C18H10N2O2S/c1-3-7-13-11(5-1)19-17(21-13)15-9-10-16(23-15)18-20-12-6-2-4-8-14(12)22-18/h1-10H",
        "InChIKey": null,
        "Canonical SMILES": "N1=C(OC2=CC=CC=C12)C=3SC(=CC3)C4=NC5=CC=CC=C5O4",
        "Molecular Formula": "C<sub>18</sub>H<sub>10</sub>N<sub>2</sub>O<sub>2</sub>S",
        "Molecular Mass": "318.35",
        "Melting Point": "219 °C"
    }
}