{
    "cas_no": "852475-26-4",
    "key_name": "(2<em>E</em>)-3-[5-[(1<em>E</em>)-3-(3-Fluorophenyl)-3-oxo-1-propen-1-yl]-1-methyl-1<em>H</em>-pyrrol-2-yl]-<em>N</em>-hydroxy-2-propenamide",
    "cn_name": null,
    "alternate_name": "2-Propenamide, 3-[5-[(1<em>E</em>)-3-(3-fluorophenyl)-3-oxo-1-propen-1-yl]-1-methyl-1<em>H</em>-pyrrol-2-yl]-<em>N</em>-hydroxy-, (2<em>E</em>)-;(2<em>E</em>)-3-[5-[(1<em>E</em>)-3-(3-Fluorophenyl)-3-oxo-1-propen-1-yl]-1-methyl-1<em>H</em>-pyrrol-2-yl]-<em>N</em>-hydroxy-2-propenamide;MC 1568;(E)-3-(5-((E)-3-(3-Fluorophenyl)-3-oxoprop-1-en-1-yl)-1-methyl-1<em>H</em>-pyrrol-2-yl)-<em>N</em>-hydroxyacrylamide;MJK 001",
    "duplicated_cas_no": "1003600-29-0",
    "SMILES": "C(=C/C(=O)C1=CC(F)=CC=C1)\\C=2N(C)C(/C=C/C(NO)=O)=CC2",
    "meta_data": {
        "InChI": "InChI=1S/C17H15FN2O3/c1-20-14(5-6-15(20)8-10-17(22)19-23)7-9-16(21)12-3-2-4-13(18)11-12/h2-11,23H,1H3,(H,19,22)/b9-7+,10-8+",
        "InChIKey": null,
        "Canonical SMILES": "O=C(C=CC1=CC=C(C=CC(=O)C=2C=CC=C(F)C2)N1C)NO",
        "Molecular Formula": "C<sub>17</sub>H<sub>15</sub>FN<sub>2</sub>O<sub>3</sub>",
        "Molecular Mass": "314.31",
        "Melting Point": "212-215 °C"
    }
}