{
    "cas_no": "82508-31-4",
    "key_name": "Pseudolaric acid B",
    "cn_name": null,
    "alternate_name": "1<em>H</em>-4,9a-Ethanocyclohepta[<em>c</em>]pyran-7-carboxylic acid, 4a-(acetyloxy)-3-[(1<em>E</em>,3<em>E</em>)-4-carboxy-1,3-pentadien-1-yl]-3,4,4a,5,6,9-hexahydro-3-methyl-1-oxo-, 7-methyl ester, (3<em>R</em>,4<em>S</em>,4a<em>S</em>,9a<em>R</em>)-;1<em>H</em>-4,9a-Ethanocyclohepta[<em>c</em>]pyran-7-carboxylic acid, 4a-(acetyloxy)-3-(4-carboxy-1,3-pentadienyl)-3,4,4a,5,6,9-hexahydro-3-methyl-1-oxo-, 7-methyl ester, [3<em>R</em>-[3α(1<em>E</em>,3<em>E</em>),4α,4aα,9aα]]-;1<em>H</em>-4,9a-Ethanocyclohepta[<em>c</em>]pyran-7-carboxylic acid, 4a-(acetyloxy)-3-[(1<em>E</em>,3<em>E</em>)-4-carboxy-1,3-pentadienyl]-3,4,4a,5,6,9-hexahydro-3-methyl-1-oxo-, 7-methyl ester, (3<em>R</em>,4<em>S</em>,4a<em>S</em>,9a<em>R</em>)-;Pseudolaric acid B;NSC 615488;Pseudolarix acid B;(-)-Pseudolaric acid B;<em>O</em>-Acetylpseudolaric acid C",
    "duplicated_cas_no": "",
    "SMILES": "O(C(C)=O)[C@]12[C@]3(C(=O)O[C@@](/C=C/C=C(/C(O)=O)\\C)(C)[C@@]1(CC3)[H])CC=C(C(OC)=O)CC2",
    "meta_data": {
        "InChI": "InChI=1S/C23H28O8/c1-14(18(25)26)6-5-10-21(3)17-9-12-22(20(28)31-21)11-7-16(19(27)29-4)8-13-23(17,22)30-15(2)24/h5-7,10,17H,8-9,11-13H2,1-4H3,(H,25,26)/b10-5+,14-6+/t17-,21+,22+,23-/m0/s1",
        "InChIKey": null,
        "Canonical SMILES": "O=C(O)C(=CC=CC1(OC(=O)C23CC=C(C(=O)OC)CCC3(OC(=O)C)C1CC2)C)C",
        "Molecular Formula": "C<sub>23</sub>H<sub>28</sub>O<sub>8</sub>",
        "Molecular Mass": "432.46",
        "Melting Point": "143-144 °C"
    }
}