{
    "cas_no": "156001-51-3",
    "key_name": "5-Bromo-2-methylbenzonitrile",
    "cn_name": null,
    "alternate_name": "Benzonitrile, 5-bromo-2-methyl-;5-Bromo-2-methylbenzonitrile;3-Bromo-6-methylbenzonitrile",
    "duplicated_cas_no": "",
    "SMILES": "C(#N)C1=C(C)C=CC(Br)=C1",
    "meta_data": {
        "InChI": "InChI=1S/C8H6BrN/c1-6-2-3-8(9)4-7(6)5-10/h2-4H,1H3",
        "InChIKey": null,
        "Canonical SMILES": "N#CC1=CC(Br)=CC=C1C",
        "Molecular Formula": "C<sub>8</sub>H<sub>6</sub>BrN",
        "Molecular Mass": "196.04",
        "Melting Point": "50 °C"
    }
}