{
    "cas_no": "56486-94-3",
    "key_name": "Steppogenin",
    "cn_name": null,
    "alternate_name": "4<em>H</em>-1-Benzopyran-4-one, 2-(2,4-dihydroxyphenyl)-2,3-dihydro-5,7-dihydroxy-, (2<em>S</em>)-;4<em>H</em>-1-Benzopyran-4-one, 2-(2,4-dihydroxyphenyl)-2,3-dihydro-5,7-dihydroxy-, (<em>S</em>)-;(2<em>S</em>)-2-(2,4-Dihydroxyphenyl)-2,3-dihydro-5,7-dihydroxy-4<em>H</em>-1-benzopyran-4-one;Norartocarpanone;(+)-5,7,2′,4′-Tetrahydroxyflavanone;Steppogenin;5,7,2′,4′-Tetrahydroxyflavanone;(2<em>S</em>)-5,7,2′,4′-Tetrahydroxyflavanone;2′,4′,5,7-Tetrahydroxyflavanone;(+)-Norartocarpanone;(2S)-2-(2,4-Dihydroxyphenyl)-5,7-dihydroxy-2,3-dihydrochromen-4-one",
    "duplicated_cas_no": "20194-59-6",
    "SMILES": "O=C1C=2C(O[C@@H](C1)C3=C(O)C=C(O)C=C3)=CC(O)=CC2O",
    "meta_data": {
        "InChI": "InChI=1S/C15H12O6/c16-7-1-2-9(10(18)3-7)13-6-12(20)15-11(19)4-8(17)5-14(15)21-13/h1-5,13,16-19H,6H2/t13-/m0/s1",
        "InChIKey": null,
        "Canonical SMILES": "O=C1C=2C(O)=CC(O)=CC2OC(C3=CC=C(O)C=C3O)C1",
        "Molecular Formula": "C<sub>15</sub>H<sub>12</sub>O<sub>6</sub>",
        "Molecular Mass": "288.25",
        "Melting Point": "255-257 °C"
    }
}