{
    "cas_no": "74420-02-3",
    "key_name": "1<em>H</em>-Pyrrolo[2,3-<em>b</em>]pyridin-4-ol",
    "cn_name": "4-羟基-7-氮杂吲哚;",
    "alternate_name": "1<em>H</em>-Pyrrolo[2,3-<em>b</em>]pyridin-4-ol;1,7-Dideazahypoxanthine;1,7-Dihydropyrrolo[2,3-<em>b</em>]pyridin-4-one",
    "duplicated_cas_no": "",
    "SMILES": "OC1=C2C(=NC=C1)NC=C2",
    "meta_data": {
        "InChI": "InChI=1S/C7H6N2O/c10-6-2-4-9-7-5(6)1-3-8-7/h1-4H,(H2,8,9,10)",
        "InChIKey": null,
        "Canonical SMILES": "OC1=CC=NC=2NC=CC12",
        "Molecular Formula": "C<sub>7</sub>H<sub>6</sub>N<sub>2</sub>O",
        "Molecular Mass": "134.14",
        "Melting Point": "238-239 °C (decomp)"
    }
}