{
    "cas_no": "53558-93-3",
    "key_name": "(2<em>R</em>)-Tetrahydro-5-oxo-2-furancarboxylic acid",
    "cn_name": "R-(-)-5-氧代四氢呋喃-2-羧酸;(R)-γ-羧基-γ-丁内酯;",
    "alternate_name": "2-Furancarboxylic acid, tetrahydro-5-oxo-, (2<em>R</em>)-;2-Furancarboxylic acid, tetrahydro-5-oxo-, (<em>R</em>)-;(2<em>R</em>)-Tetrahydro-5-oxo-2-furancarboxylic acid;(<em>R</em>)-Tetrahydro-5-oxo-2-furancarboxylic acid;(<em>R</em>)-(-)-5-Oxo-2-tetrahydrofurancarboxylic acid;(<em>R</em>)-5-Oxo-2-tetrahydrofurancarboxylic acid;(2<em>R</em>)-Tetrahydro-5-oxofuran-2-carboxylic acid;(R)-5-Oxotetrahydrofuran-2-carboxylic acid;(2R)-5-Oxotetrahydro-2-furancarboxylic acid;(2R)-5-Oxooxolane-2-carboxylic acid;2-Furancarboxylic acid tetrahydro-5-oxo-, (2R)-",
    "duplicated_cas_no": "",
    "SMILES": "C(O)(=O)[C@@H]1OC(=O)CC1",
    "meta_data": {
        "InChI": "InChI=1S/C5H6O4/c6-4-2-1-3(9-4)5(7)8/h3H,1-2H2,(H,7,8)/t3-/m1/s1",
        "InChIKey": null,
        "Canonical SMILES": "O=C(O)C1OC(=O)CC1",
        "Molecular Formula": "C<sub>5</sub>H<sub>6</sub>O<sub>4</sub>",
        "Molecular Mass": "130.10",
        "Melting Point": "67-70 °C"
    }
}