{
    "cas_no": "28059-64-5",
    "key_name": "2-Benzylaniline",
    "cn_name": "邻苄基苯胺;",
    "alternate_name": "Benzenamine, 2-(phenylmethyl)-;<em>o</em>-Toluidine, α-phenyl-;2-(Phenylmethyl)benzenamine;<em>o</em>-Benzylaniline;<em>o</em>-Aminodiphenylmethane;2-Benzylaniline;(2-Aminophenyl)phenylmethane;2-Benzylbenzenamine",
    "duplicated_cas_no": "",
    "SMILES": "C(C1=C(N)C=CC=C1)C2=CC=CC=C2",
    "meta_data": {
        "InChI": "InChI=1S/C13H13N/c14-13-9-5-4-8-12(13)10-11-6-2-1-3-7-11/h1-9H,10,14H2",
        "InChIKey": null,
        "Canonical SMILES": "NC=1C=CC=CC1CC=2C=CC=CC2",
        "Molecular Formula": "C<sub>13</sub>H<sub>13</sub>N",
        "Molecular Mass": "183.25",
        "Boiling Point": "190-191 °C @ Press: 22 Torr",
        "Melting Point": "52 °C"
    }
}