{
    "cas_no": "646-20-8",
    "key_name": "Pimelonitrile",
    "cn_name": "1,5-二氰基戊烷;庚二腈;",
    "alternate_name": "Heptanedinitrile;Pimelonitrile;Pimelic acid dinitrile;1,5-Dicyanopentane;NSC 5392;1,7-Heptanedinitrile",
    "duplicated_cas_no": "",
    "SMILES": "C(CCC#N)CCC#N",
    "meta_data": {
        "InChI": "InChI=1S/C7H10N2/c8-6-4-2-1-3-5-7-9/h1-5H2",
        "InChIKey": null,
        "Canonical SMILES": "N#CCCCCCC#N",
        "Molecular Formula": "C<sub>7</sub>H<sub>10</sub>N<sub>2</sub>",
        "Molecular Mass": "122.17",
        "Boiling Point": "155 °C",
        "Melting Point": "-31.4 °C",
        "Density": "0.95070 g/cm³ @ Temp: 15 °C"
    }
}