{
    "cas_no": "5116-24-5",
    "key_name": "5-Hydroxymethyl-2′-deoxyuridine",
    "cn_name": "5-羟甲基脱氧尿苷;5-羟甲基脱氧尿苷;",
    "alternate_name": "Thymidine, α-hydroxy-;Uridine, 2′-deoxy-5-(hydroxymethyl)-;α-Hydroxythymidine;5-Hydroxymethyldeoxyuridine;5-Hydroxymethyl-2′-deoxyuridine;2′-Desoxy-5-hydroxymethyluridine;2′-Deoxy-5-(hydroxymethyl)uridine;5-(Hydroxymethyl)-2′-desoxyuridine",
    "duplicated_cas_no": "",
    "SMILES": "O=C1N([C@@H]2O[C@H](CO)[C@@H](O)C2)C=C(CO)C(=O)N1",
    "meta_data": {
        "InChI": "InChI=1S/C10H14N2O6/c13-3-5-2-12(10(17)11-9(5)16)8-1-6(15)7(4-14)18-8/h2,6-8,13-15H,1,3-4H2,(H,11,16,17)/t6-,7+,8+/m0/s1",
        "InChIKey": null,
        "Canonical SMILES": "O=C1NC(=O)N(C=C1CO)C2OC(CO)C(O)C2",
        "Molecular Formula": "C<sub>10</sub>H<sub>14</sub>N<sub>2</sub>O<sub>6</sub>",
        "Molecular Mass": "258.23",
        "Melting Point": "176-179 °C"
    }
}