{
    "cas_no": "7718-54-9",
    "key_name": "Nickel dichloride",
    "cn_name": "氯化镍;",
    "alternate_name": "Nickel chloride (NiCl<sub>2</sub>);Nickel dichloride;Nickel(II) chloride;Nickelous chloride;Nickel chloride;Nickel(2+) chloride;Nickel dichloride (NiCl<sub>2</sub>);NSC 254532",
    "duplicated_cas_no": "",
    "SMILES": "[Ni](Cl)Cl",
    "meta_data": {
        "InChI": "InChI=1S/2ClH.Ni/h2*1H;/q;;+2/p-2",
        "InChIKey": null,
        "Canonical SMILES": "Cl[Ni]Cl",
        "Molecular Formula": "Cl<sub>2</sub>Ni",
        "Molecular Mass": "",
        "Boiling Point": "970 °C",
        "Melting Point": "1001 °C",
        "Density": "3.51 g/cm³"
    }
}