{
    "cas_no": "14337-43-0",
    "key_name": "Ethyl 2-chloro-2-(hydroxyimino)acetate",
    "cn_name": "氯代肟基乙酸乙酯;",
    "alternate_name": "Acetic acid, 2-chloro-2-(hydroxyimino)-, ethyl ester;Glyoxylic acid, chloro-, ethyl ester, 2-oxime;Acetic acid, chloro(hydroxyimino)-, ethyl ester;Glyoxylic acid, chloro-, ethyl ester, oxime;Ethyl 2-chloro-2-(hydroxyimino)acetate;(Carbethoxy)chloroformaldoxime;(Ethoxycarbonyl)hydroxamic acid chloride;Ethyl (chloroximino)glyoxylate;Ethyl chloroglyoxylate 2-oxime;(Ethoxycarbonyl)formohydroxamoyl chloride;Ethyl chloro(hydroxyimino)acetate;Ethyl chloro(oximido)acetate;Ethyl chloro(oximino)acetate;Ethyl chloroximidoacetate;2-Chloro-2-(hydroxyimino)acetic acid ethyl ester;Ethyl 2-chloro-2-hydroxyiminoacetate;(Chloro)(hydroxyimino)acetic acid ethyl ester;Ethyl chloro(hydroxyimino)ethanoate;Ethyl oximinochloroacetate",
    "duplicated_cas_no": "",
    "SMILES": "C(C(=NO)Cl)(OCC)=O",
    "meta_data": {
        "InChI": "InChI=1S/C4H6ClNO3/c1-2-9-4(7)3(5)6-8/h8H,2H2,1H3",
        "InChIKey": null,
        "Canonical SMILES": "O=C(OCC)C(Cl)=NO",
        "Molecular Formula": "C<sub>4</sub>H<sub>6</sub>ClNO<sub>3</sub>",
        "Molecular Mass": "151.55",
        "Melting Point": "75-76 °C"
    }
}