{
    "cas_no": "532-02-5",
    "key_name": "Sodium 2-naphthalenesulfonate",
    "cn_name": "2-萘磺酸钠;",
    "alternate_name": "2-Naphthalenesulfonic acid, sodium salt (1:1);2-Naphthalenesulfonic acid, sodium salt;β-Naphthalenesulfonic acid sodium salt;Sodium β-naphthalenesulfonate;Sodium naphthalene-6-sulfonate;Sodium naphthalene-2-sulphonate;Sodium 2-naphthalenesulfonate",
    "duplicated_cas_no": "1159813-07-6",
    "SMILES": "S(=O)(=O)(O)C1=CC2=C(C=C1)C=CC=C2.[Na]",
    "meta_data": {
        "InChI": "InChI=1S/C10H8O3S.Na/c11-14(12,13)10-6-5-8-3-1-2-4-9(8)7-10;/h1-7H,(H,11,12,13);",
        "InChIKey": null,
        "Canonical SMILES": "[Na].O=S(=O)(O)C=1C=CC=2C=CC=CC2C1",
        "Molecular Formula": "C<sub>10</sub>H<sub>8</sub>O<sub>3</sub>S.Na",
        "Molecular Mass": "",
        "Melting Point": "172-173 °C"
    }
}