{
    "cas_no": "696-44-6",
    "key_name": "<em>N</em>,3-Dimethylaniline",
    "cn_name": null,
    "alternate_name": "Benzenamine, <em>N</em>,3-dimethyl-;<em>m</em>-Toluidine, <em>N</em>-methyl-;<em>N</em>,3-Dimethylbenzenamine;<em>N</em>-Methyl-<em>m</em>-toluidine;<em>N</em>,3-Dimethylaniline;<em>m</em>,<em>N</em>-Dimethylaniline;<em>N</em>-Methyl-<em>N</em>-(3-methylphenyl)amine;NSC 9396;<em>N</em>-Methyl(3-methylphenyl)amine;<em>N</em>-(3-Methylphenyl)methylamine;<em>N</em>-Methyl-<em>N</em>-(<em>m</em>-tolyl)amine;3-Methyl-<em>N</em>-methylaniline;Methyl(3-methylphenyl)amine",
    "duplicated_cas_no": "",
    "SMILES": "N(C)C1=CC(C)=CC=C1",
    "meta_data": {
        "InChI": "InChI=1S/C8H11N/c1-7-4-3-5-8(6-7)9-2/h3-6,9H,1-2H3",
        "InChIKey": null,
        "Canonical SMILES": "C=1C=C(C=C(C1)C)NC",
        "Molecular Formula": "C<sub>8</sub>H<sub>11</sub>N",
        "Molecular Mass": "121.18",
        "Boiling Point": "206.5 °C",
        "Melting Point": "123 °C"
    }
}