{
    "cas_no": "59979-61-2",
    "key_name": "Tagitinin A",
    "cn_name": null,
    "alternate_name": "Propanoic acid, 2-methyl-, (3a<em>S</em>,4<em>R</em>,6<em>R</em>,7<em>R</em>,9<em>S</em>,10<em>S</em>,11a<em>R</em>)-dodecahydro-7,9-dihydroxy-6,10-dimethyl-3-methylene-2-oxo-6,9-epoxycyclodeca[<em>b</em>]furan-4-yl ester;6,9-Epoxycyclodeca[<em>b</em>]furan, propanoic acid deriv.;Tagitinin A",
    "duplicated_cas_no": "",
    "SMILES": "O(C(C(C)C)=O)[C@H]1[C@@]2([C@@](C[C@H](C)[C@@]3(O)O[C@](C)(C1)[C@H](O)C3)(OC(=O)C2=C)[H])[H]",
    "meta_data": {
        "InChI": "InChI=1S/C19H28O7/c1-9(2)16(21)25-13-7-18(5)14(20)8-19(23,26-18)10(3)6-12-15(13)11(4)17(22)24-12/h9-10,12-15,20,23H,4,6-8H2,1-3,5H3/t10-,12+,13+,14+,15-,18+,19-/m0/s1",
        "InChIKey": null,
        "Canonical SMILES": "O=C1OC2CC(C)C3(O)OC(C)(CC(OC(=O)C(C)C)C2C1=C)C(O)C3",
        "Molecular Formula": "C<sub>19</sub>H<sub>28</sub>O<sub>7</sub>",
        "Molecular Mass": "368.42",
        "Melting Point": "172-174 °C"
    }
}