{
    "cas_no": "534-15-6",
    "key_name": "Dimethyl acetal",
    "cn_name": "1,1-二甲氧基乙烷;乙醛缩二甲醇;二甲醇缩乙醛;",
    "alternate_name": "Ethane, 1,1-dimethoxy-;Acetaldehyde, dimethyl acetal;1,1-Dimethoxyethane;Dimethyl acetal;Ethylidene dimethyl ether;Acetaldehyde methyl acetal;3-Methyl-2,4-dioxapentane",
    "duplicated_cas_no": "",
    "SMILES": "C(OC)(OC)C",
    "meta_data": {
        "InChI": "InChI=1S/C4H10O2/c1-4(5-2)6-3/h4H,1-3H3",
        "InChIKey": null,
        "Canonical SMILES": "O(C)C(OC)C",
        "Molecular Formula": "C<sub>4</sub>H<sub>10</sub>O<sub>2</sub>",
        "Molecular Mass": "90.12",
        "Boiling Point": "64.5 °C",
        "Melting Point": "-113.2 °C",
        "Density": "0.85015 g/cm³ @ Temp: 20 °C"
    }
}