{
    "cas_no": "546-43-0",
    "key_name": "(+)-Alantolactone",
    "cn_name": "土木香内酯;3a,5,6,7,8,8a,9,9a-八氢-5,8a-二甲基-3-亚甲基萘并[2,3-b]呋喃-2(3H)-酮;",
    "alternate_name": "Naphtho[2,3-<em>b</em>]furan-2(3<em>H</em>)-one, 3a,5,6,7,8,8a,9,9a-octahydro-5,8a-dimethyl-3-methylene-, (3a<em>R</em>,5<em>S</em>,8a<em>R</em>,9a<em>R</em>)-;Alantolactone;Helenin;4α<span class=\"text-smallcaps\">H</span>-Eudesma-5,11(13)-dien-12-oic acid, 8β-hydroxy-, γ-lactone;Naphtho[2,3-<em>b</em>]furan-2(3<em>H</em>)-one, 3a,5,6,7,8,8a,9,9a-octahydro-5,8a-dimethyl-3-methylene-, [3a<em>R</em>-(3aα,5β,8aβ,9aα)]-;(3a<em>R</em>,5<em>S</em>,8a<em>R</em>,9a<em>R</em>)-3a,5,6,7,8,8a,9,9a-Octahydro-5,8a-dimethyl-3-methylenenaphtho[2,3-<em>b</em>]furan-2(3<em>H</em>)-one;Alant camphor;Elecampane camphor;Eupatal;Inula camphor;(+)-Alantolactone;NSC 93131;NSC 333843",
    "duplicated_cas_no": "",
    "SMILES": "C[C@]12C(=C[C@]3([C@@](C1)(OC(=O)C3=C)[H])[H])[C@@H](C)CCC2",
    "meta_data": {
        "InChI": "InChI=1S/C15H20O2/c1-9-5-4-6-15(3)8-13-11(7-12(9)15)10(2)14(16)17-13/h7,9,11,13H,2,4-6,8H2,1,3H3/t9-,11+,13+,15+/m0/s1",
        "InChIKey": null,
        "Canonical SMILES": "O=C1OC2CC3(C(=CC2C1=C)C(C)CCC3)C",
        "Molecular Formula": "C<sub>15</sub>H<sub>20</sub>O<sub>2</sub>",
        "Molecular Mass": "232.32",
        "Boiling Point": "275 °C",
        "Melting Point": "76 °C"
    }
}