{
    "cas_no": "7553-56-2",
    "key_name": "Iodine",
    "cn_name": "碘;碘片;精碘;碘,标准液;",
    "alternate_name": "Iodine;Iodine crystals;Iodine sublimed;Iodine colloidal;Eranol;Iodine (<sup>127</sup>I<sub>2</sub>);Molecular iodine;Iosan Superdip;Actomar;Diiodine;Jodosan;Diatomic iodine;Iodine molecule (I<sub>2</sub>);Iodel FD;NSC 42355;Tegodyne;DentaPure DP 90;eXIA 160;Iodosteryl;Biojodis;Yoddar;MeSH ID: D007455",
    "duplicated_cas_no": "8012-81-5;8012-85-9;8031-47-8;24503-90-0",
    "SMILES": "II",
    "meta_data": {
        "InChI": "InChI=1S/I2/c1-2",
        "InChIKey": null,
        "Canonical SMILES": "II",
        "Molecular Formula": "I<sub>2</sub>",
        "Molecular Mass": "253.81",
        "Boiling Point": "184.4 °C @ Press: 800 Torr",
        "Melting Point": "113.7 °C",
        "Density": "4.9 g/cm³"
    }
}