{
    "cas_no": "51550-40-4",
    "key_name": "Semiamitraz chloride",
    "cn_name": "双甲脒盐酸盐代谢物;双甲脒盐酸盐代谢物标准品;",
    "alternate_name": "Methanimidamide, <em>N</em>-(2,4-dimethylphenyl)-<em>N</em>′-methyl-, hydrochloride (1:1);Methanimidamide, <em>N</em>-(2,4-dimethylphenyl)-<em>N</em>′-methyl-, monohydrochloride;U 40481A;<em>N</em>-Methyl-<em>N</em>′-(2,4-xylyl)formamidine hydrochloride;<em>N</em>-(2,4-Dimethylphenyl)-<em>N</em>′-methylmethanimidamide hydrochloride;Danjiami;<em>N</em>′-(2,4-Xylyl)-<em>N</em>-methylformamidine hydrochloride;Monocarboxoldehyde;Semiamitraz chloride",
    "duplicated_cas_no": "126776-01-0;34098-24-3",
    "SMILES": "N(=CNC)C1=C(C)C=C(C)C=C1.Cl",
    "meta_data": {
        "InChI": "InChI=1S/C10H14N2.ClH/c1-8-4-5-10(9(2)6-8)12-7-11-3;/h4-7H,1-3H3,(H,11,12);1H",
        "InChIKey": null,
        "Canonical SMILES": "Cl.N(=CNC)C1=CC=C(C=C1C)C",
        "Molecular Formula": "C<sub>10</sub>H<sub>14</sub>N<sub>2</sub>.ClH",
        "Molecular Mass": "",
        "Melting Point": "161-163 °C"
    }
}