{
    "cas_no": "32431-93-9",
    "key_name": "4-Bromo-2-chlorothiophene",
    "cn_name": null,
    "alternate_name": "Thiophene, 4-bromo-2-chloro-;4-Bromo-2-chlorothiophene;2-Chloro-4-bromothiophene",
    "duplicated_cas_no": "",
    "SMILES": "BrC=1C=C(Cl)SC1",
    "meta_data": {
        "InChI": "InChI=1S/C4H2BrClS/c5-3-1-4(6)7-2-3/h1-2H",
        "InChIKey": null,
        "Canonical SMILES": "ClC=1SC=C(Br)C1",
        "Molecular Formula": "C<sub>4</sub>H<sub>2</sub>BrClS",
        "Molecular Mass": "197.48",
        "Boiling Point": "67-69 °C @ Press: 9 Torr"
    }
}