{
    "cas_no": "13952-84-6",
    "key_name": "(±)-<em>sec</em>-Butylamine",
    "cn_name": "2-氨基丁烷;仲丁胺;",
    "alternate_name": "2-Butanamine;<em>sec</em>-Butylamine;2-Aminobutane;Tutane;2-AB;1-Methylpropylamine;2-Butylamine;1-Methylpropanamine;Butafume;<em>dl</em>-2-Butylamine;<span class=\"text-smallcaps\">DL</span>-<em>sec</em>-Butylamine;(±)-2-Butylamine;(±)-2-Aminobutane;(±)-2-Butanamine;(±)-<em>sec</em>-Butylamine;(RS)-<em>sec</em>-butylamine;NSC 8030;Butan-2-ylamine",
    "duplicated_cas_no": "33966-50-6",
    "SMILES": "C(CC)(C)N",
    "meta_data": {
        "InChI": "InChI=1S/C4H11N/c1-3-4(2)5/h4H,3,5H2,1-2H3",
        "InChIKey": null,
        "Canonical SMILES": "NC(C)CC",
        "Molecular Formula": "C<sub>4</sub>H<sub>11</sub>N",
        "Molecular Mass": "73.14",
        "Boiling Point": "63 °C",
        "Melting Point": "-104 °C",
        "Density": "0.724 g/cm³ @ Temp: 20 °C"
    }
}