{
    "cas_no": "463-40-1",
    "key_name": "Linolenic acid",
    "cn_name": "亚麻酸;alpha-亚麻酸;9,12,15-十八碳三烯酸;",
    "alternate_name": "9,12,15-Octadecatrienoic acid, (9<em>Z</em>,12<em>Z</em>,15<em>Z</em>)-;Linolenic acid;9,12,15-Octadecatrienoic acid, (<em>Z</em>,<em>Z</em>,<em>Z</em>)-;(9<em>Z</em>,12<em>Z</em>,15<em>Z</em>)-9,12,15-Octadecatrienoic acid;<em>all</em>-<em>cis</em>-9,12,15-Octadecatrienoic acid;α-Linolenic acid;<em>cis</em>,<em>cis</em>,<em>cis</em>-9,12,15-Octadecatrienoic acid;<em>cis</em>-9,<em>cis</em>-12,<em>cis</em>-15-Octadecatrienoic acid;<em>cis</em>-Δ<sup>9,12,15</sup>-Octadecatrienoic acid;9,12,15-<em>all</em>-<em>cis</em>-Octadecatrienoic acid;9-<em>cis</em>,12-<em>cis</em>,15-<em>cis</em>-Octadecatrienoic acid;(<em>Z</em>,<em>Z</em>,<em>Z</em>)-Octadeca-9,12,15-trienoic acid;(<em>all</em>-<em>Z</em>)-9,12,15-Octadecatrienoic acid;9<em>Z</em>,12<em>Z</em>,15<em>Z</em>-Octadecatrienoic acid;alpha-Linolenic acid;18:3n-3;BRD-K33396764",
    "duplicated_cas_no": "",
    "SMILES": "C(C/C=C\\C/C=C\\C/C=C\\CC)CCCCCC(O)=O",
    "meta_data": {
        "InChI": "InChI=1S/C18H30O2/c1-2-3-4-5-6-7-8-9-10-11-12-13-14-15-16-17-18(19)20/h3-4,6-7,9-10H,2,5,8,11-17H2,1H3,(H,19,20)/b4-3-,7-6-,10-9-",
        "InChIKey": null,
        "Canonical SMILES": "O=C(O)CCCCCCCC=CCC=CCC=CCC",
        "Molecular Formula": "C<sub>18</sub>H<sub>30</sub>O<sub>2</sub>",
        "Molecular Mass": "278.43",
        "Boiling Point": "157-158 °C @ Press: 1 x 10<sup>-3</sup>-2 x 10<sup>-3</sup> Torr",
        "Melting Point": "-16.5 °C",
        "Density": "0.9157 g/cm³ @ Temp: 20 °C"
    }
}