{
    "cas_no": "518048-03-8",
    "key_name": "2-(1-Amino-1-methylethyl)-<em>N</em>-(4-fluorobenzyl)-5-hydroxy-1-methyl-6-oxo-1,6-dihydropyrimidine-4-carboxamide",
    "cn_name": null,
    "alternate_name": "4-Pyrimidinecarboxamide, 2-(1-amino-1-methylethyl)-<em>N</em>-[(4-fluorophenyl)methyl]-1,6-dihydro-5-hydroxy-1-methyl-6-oxo-;2-(1-Amino-1-methylethyl)-<em>N</em>-[(4-fluorophenyl)methyl]-1,6-dihydro-5-hydroxy-1-methyl-6-oxo-4-pyrimidinecarboxamide;2-(1-Amino-1-methylethyl)-<em>N</em>-(4-fluorobenzyl)-5-hydroxy-1-methyl-6-oxo-1,6-dihydropyrimidine-4-carboxamide;2-(1-Amino-1-methylethyl)-5-hydroxy-1-methyl-6-oxo-1,6-dihydropyrimidine-4-carboxylic acid 4-fluorobenzylamide;2-(2-Aminopropan-2-yl)-<em>N</em>-(4-fluorobenzyl)-5-hydroxy-1-methyl-6-oxo-1,6-dihydropyrimidine-4-carboxamide;2-(2-Aminopropan-2-yl)-<em>N</em>-[(4-fluorophenyl)methyl]-5-hydroxy-1-methyl-6-oxopyrimidine-4-carboxamide",
    "duplicated_cas_no": "",
    "SMILES": "C(NCC1=CC=C(F)C=C1)(=O)C=2N=C(C(C)(C)N)N(C)C(=O)C2O",
    "meta_data": {
        "InChI": "InChI=1S/C16H19FN4O3/c1-16(2,18)15-20-11(12(22)14(24)21(15)3)13(23)19-8-9-4-6-10(17)7-5-9/h4-7,22H,8,18H2,1-3H3,(H,19,23)",
        "InChIKey": null,
        "Canonical SMILES": "O=C(NCC1=CC=C(F)C=C1)C=2N=C(N(C(=O)C2O)C)C(N)(C)C",
        "Molecular Formula": "C<sub>16</sub>H<sub>19</sub>FN<sub>4</sub>O<sub>3</sub>",
        "Molecular Mass": "334.35",
        "Melting Point": "188-189.3 °C"
    }
}