{
    "cas_no": "634-67-3",
    "key_name": "2,3,4-Trichloroaniline",
    "cn_name": "2,3,4-三氯苯胺;",
    "alternate_name": "Benzenamine, 2,3,4-trichloro-;Aniline, 2,3,4-trichloro-;2,3,4-Trichlorobenzenamine;2,3,4-Trichloroaniline;1-Amino-2,3,4-trichlorobenzene;NSC 89297",
    "duplicated_cas_no": "",
    "SMILES": "ClC1=C(Cl)C(N)=CC=C1Cl",
    "meta_data": {
        "InChI": "InChI=1S/C6H4Cl3N/c7-3-1-2-4(10)6(9)5(3)8/h1-2H,10H2",
        "InChIKey": null,
        "Canonical SMILES": "ClC1=CC=C(N)C(Cl)=C1Cl",
        "Molecular Formula": "C<sub>6</sub>H<sub>4</sub>Cl<sub>3</sub>N",
        "Molecular Mass": "196.46",
        "Boiling Point": "292 °C",
        "Melting Point": "73 °C"
    }
}