{
    "cas_no": "459789-99-2",
    "key_name": "Obeticholic acid",
    "cn_name": null,
    "alternate_name": "Cholan-24-oic acid, 6-ethyl-3,7-dihydroxy-, (3α,5β,6α,7α)-;(3α,5β,6α,7α)-6-Ethyl-3,7-dihydroxycholan-24-oic acid;6-Ethylchenodeoxycholic acid;3α,7β-Dihydroxy-6α-ethyl-5β-cholan-24-oic acid;Obeticholic acid;INT 747;6α-Ethylchenodeoxycholic acid;6-ECDCA;Ocaliva",
    "duplicated_cas_no": "",
    "SMILES": "C[C@@]12[C@@]3([C@]([C@]4([C@](C)(CC3)[C@@]([C@@H](CCC(O)=O)C)(CC4)[H])[H])([C@H](O)[C@H](CC)[C@@]1(C[C@H](O)CC2)[H])[H])[H]",
    "meta_data": {
        "InChI": "InChI=1S/C26H44O4/c1-5-17-21-14-16(27)10-12-26(21,4)20-11-13-25(3)18(15(2)6-9-22(28)29)7-8-19(25)23(20)24(17)30/h15-21,23-24,27,30H,5-14H2,1-4H3,(H,28,29)/t15-,16-,17-,18-,19+,20+,21+,23+,24-,25-,26-/m1/s1",
        "InChIKey": null,
        "Canonical SMILES": "O=C(O)CCC(C)C1CCC2C3C(O)C(CC)C4CC(O)CCC4(C)C3CCC12C",
        "Molecular Formula": "C<sub>26</sub>H<sub>44</sub>O<sub>4</sub>",
        "Molecular Mass": "420.63",
        "Melting Point": "108-110 °C"
    }
}