{
    "cas_no": "111-18-2",
    "key_name": "<em>N</em>,<em>N</em>,<em>N</em>′,<em>N</em>′-Tetramethyl-1,6-hexanediamine",
    "cn_name": "N,N,N\",N\"-四甲基-1,6-己二胺;",
    "alternate_name": "1,6-Hexanediamine, <em>N</em><sup>1</sup>,<em>N</em><sup>1</sup>,<em>N</em><sup>6</sup>,<em>N</em><sup>6</sup>-tetramethyl-;1,6-Hexanediamine, <em>N</em>,<em>N</em>,<em>N</em>′,<em>N</em>′-tetramethyl-;<em>N</em><sup>1</sup>,<em>N</em><sup>1</sup>,<em>N</em><sup>6</sup>,<em>N</em><sup>6</sup>-Tetramethyl-1,6-hexanediamine;<em>N</em>,<em>N</em>,<em>N</em>′,<em>N</em>′-Tetramethyl-1,6-diaminohexane;<em>N</em>,<em>N</em>,<em>N</em>′,<em>N</em>′-Tetramethyl-1,6-hexanediamine;1,6-Bis(dimethylamino)hexane;Hexamethylenebis(dimethylamine);2,9-Dimethyl-2,9-diazadecane;<em>N</em>,<em>N</em>,<em>N</em>′,<em>N</em>′-Tetramethyl-1,6-hexamethylenediamine;<em>N</em>,<em>N</em>,<em>N</em>′,<em>N</em>′-Tetramethylhexylenediamine;Kaolizer 1;Minico TMHD;Toyocat MR;U 1000 (amine);U 1000;1,1,8,8-Tetramethyl-1,8-diazaoctane;KL 1;U-CAT 1000;Kao. No. 1;<em>N</em>,<em>N</em>,<em>N</em>′,<em>N</em>′-Tetramethyl-1,6-hexandiamine",
    "duplicated_cas_no": "106494-68-2;257939-18-7",
    "SMILES": "C(CN(C)C)CCCCN(C)C",
    "meta_data": {
        "InChI": "InChI=1S/C10H24N2/c1-11(2)9-7-5-6-8-10-12(3)4/h5-10H2,1-4H3",
        "InChIKey": null,
        "Canonical SMILES": "N(C)(C)CCCCCCN(C)C",
        "Molecular Formula": "C<sub>10</sub>H<sub>24</sub>N<sub>2</sub>",
        "Molecular Mass": "172.31",
        "Boiling Point": "209.5 °C",
        "Density": "0.8064 g/cm³ @ Temp: 14.5 °C"
    }
}