{
    "cas_no": "13062-76-5",
    "key_name": "Phenol, 4-[2-(methylamino)ethyl]-, hydrochloride (1:1)",
    "cn_name": null,
    "alternate_name": "Phenol, 4-[2-(methylamino)ethyl]-, hydrochloride (1:1);Phenol, <em>p</em>-[2-(methylamino)ethyl]-, hydrochloride;Phenol, 4-[2-(methylamino)ethyl]-, hydrochloride;<em>N</em>-Methyltyramine hydrochloride",
    "duplicated_cas_no": "",
    "SMILES": "C(CNC)C1=CC=C(O)C=C1.Cl",
    "meta_data": {
        "InChI": "InChI=1S/C9H13NO.ClH/c1-10-7-6-8-2-4-9(11)5-3-8;/h2-5,10-11H,6-7H2,1H3;1H",
        "InChIKey": null,
        "Canonical SMILES": "Cl.OC1=CC=C(C=C1)CCNC",
        "Molecular Formula": "C<sub>9</sub>H<sub>13</sub>NO.ClH",
        "Molecular Mass": "",
        "Melting Point": "145-147 °C"
    }
}