{
    "cas_no": "2687-96-9",
    "key_name": "<em>N</em>-Dodecyl-2-pyrrolidone",
    "cn_name": "N-十二烷基吡咯烷酮;",
    "alternate_name": "2-Pyrrolidinone, 1-dodecyl-;1-Dodecyl-2-pyrrolidinone;<em>N</em>-Dodecyl-2-pyrrolidinone;<em>N</em>-Lauryl-2-pyrrolidinone;1-Dodecyl-2-pyrrolidone;<em>N</em>-Dodecyl-2-pyrrolidone;<em>N</em>-Lauryl-2-pyrrolidone;1-Dodecylpyrrolidone;<em>N</em>-Dodecylpyrrolidone;Surfadone LP 300;1-Lauryl-2-pyrrolidone;<em>N</em>-Dodecylpyrrolidinone;AgsolEx 12;Laurylpyrrolidone;Flexidone 300",
    "duplicated_cas_no": "1202470-88-9",
    "SMILES": "C(CCCCCCCCCCC)N1C(=O)CCC1",
    "meta_data": {
        "InChI": "InChI=1S/C16H31NO/c1-2-3-4-5-6-7-8-9-10-11-14-17-15-12-13-16(17)18/h2-15H2,1H3",
        "InChIKey": null,
        "Canonical SMILES": "O=C1N(CCC1)CCCCCCCCCCCC",
        "Molecular Formula": "C<sub>16</sub>H<sub>31</sub>NO",
        "Molecular Mass": "253.42",
        "Boiling Point": "202-205 °C",
        "Melting Point": "&lt;4 °C"
    }
}