{
    "cas_no": "1873-54-7",
    "key_name": "3-Ethylquinoline",
    "cn_name": "3-乙基喹啉;",
    "alternate_name": "Quinoline, 3-ethyl-;3-Ethylquinoline",
    "duplicated_cas_no": "",
    "SMILES": "C(C)C1=CC2=C(N=C1)C=CC=C2",
    "meta_data": {
        "InChI": "InChI=1S/C11H11N/c1-2-9-7-10-5-3-4-6-11(10)12-8-9/h3-8H,2H2,1H3",
        "InChIKey": null,
        "Canonical SMILES": "N=1C=C(C=C2C=CC=CC12)CC",
        "Molecular Formula": "C<sub>11</sub>H<sub>11</sub>N",
        "Molecular Mass": "157.21",
        "Boiling Point": "266 °C",
        "Melting Point": "170-172 °C",
        "Density": "1.0343 g/cm³ @ Temp: 35 °C"
    }
}