{
    "cas_no": "6372-42-5",
    "key_name": "Cyclohexyldiphenylphosphine",
    "cn_name": "二苯基环己基膦;",
    "alternate_name": "Phosphine, cyclohexyldiphenyl-;Cyclohexyldiphenylphosphine;Diphenylcyclohexylphosphine",
    "duplicated_cas_no": "",
    "SMILES": "P(C1CCCCC1)(C2=CC=CC=C2)C3=CC=CC=C3",
    "meta_data": {
        "InChI": "InChI=1S/C18H21P/c1-4-10-16(11-5-1)19(17-12-6-2-7-13-17)18-14-8-3-9-15-18/h1-2,4-7,10-13,18H,3,8-9,14-15H2",
        "InChIKey": null,
        "Canonical SMILES": "C=1C=CC(=CC1)P(C=2C=CC=CC2)C3CCCCC3",
        "Molecular Formula": "C<sub>18</sub>H<sub>21</sub>P",
        "Molecular Mass": "268.33",
        "Melting Point": "93-94 °C"
    }
}