{
    "cas_no": "754-96-1",
    "key_name": "2,2,3,3,4,4,5,5,6,6,7,7,8,8,9,9-Hexadecafluoro-1,10-decanediol",
    "cn_name": "1H,1H,10H,10H-全氟-1,10-癸二醇;",
    "alternate_name": "1,10-Decanediol, 2,2,3,3,4,4,5,5,6,6,7,7,8,8,9,9-hexadecafluoro-;2,2,3,3,4,4,5,5,6,6,7,7,8,8,9,9-Hexadecafluoro-1,10-decanediol;1,8-Dimethylol perfluorooctane;1<em>H</em>,1<em>H</em>,10<em>H</em>,10<em>H</em>-Perfluoro-1,10-decanediol",
    "duplicated_cas_no": "",
    "SMILES": "C(C(C(C(C(CO)(F)F)(F)F)(F)F)(F)F)(C(C(C(CO)(F)F)(F)F)(F)F)(F)F",
    "meta_data": {
        "InChI": "InChI=1S/C10H6F16O2/c11-3(12,1-27)5(15,16)7(19,20)9(23,24)10(25,26)8(21,22)6(17,18)4(13,14)2-28/h27-28H,1-2H2",
        "InChIKey": null,
        "Canonical SMILES": "FC(F)(CO)C(F)(F)C(F)(F)C(F)(F)C(F)(F)C(F)(F)C(F)(F)C(F)(F)CO",
        "Molecular Formula": "C<sub>10</sub>H<sub>6</sub>F<sub>16</sub>O<sub>2</sub>",
        "Molecular Mass": "462.13",
        "Boiling Point": "132 °C @ Press: 4 Torr",
        "Melting Point": "135-136 °C"
    }
}