{
    "cas_no": "1071-46-1",
    "key_name": "Monoethyl malonate",
    "cn_name": "丙二酸单乙酯;",
    "alternate_name": "Propanedioic acid, 1-ethyl ester;Malonic acid, monoethyl ester;Propanedioic acid, monoethyl ester;Malonic acid, ethyl ester;Monoethyl malonate;Ethyl hydrogen malonate;Ethyl malonate;(Ethoxycarbonyl)acetic acid;Monoethyl hydrogen malonate;3-Ethoxy-3-oxopropanoic acid;Monoethyl propanedioate",
    "duplicated_cas_no": "",
    "SMILES": "C(C(OCC)=O)C(O)=O",
    "meta_data": {
        "InChI": "InChI=1S/C5H8O4/c1-2-9-5(8)3-4(6)7/h2-3H2,1H3,(H,6,7)",
        "InChIKey": null,
        "Canonical SMILES": "O=C(O)CC(=O)OCC",
        "Molecular Formula": "C<sub>5</sub>H<sub>8</sub>O<sub>4</sub>",
        "Molecular Mass": "132.11",
        "Boiling Point": "104-105 °C @ Press: 12 Torr",
        "Melting Point": "107-110 °C",
        "Density": "1.0554 g/cm³ @ Temp: 10 °C"
    }
}