{
    "cas_no": "1120-87-2",
    "key_name": "4-Bromopyridine",
    "cn_name": "4-溴吡啶;3-碘代吡啶;",
    "alternate_name": "Pyridine, 4-bromo-;4-Bromopyridine;Pyridin-4-yl bromide",
    "duplicated_cas_no": "",
    "SMILES": "BrC=1C=CN=CC1",
    "meta_data": {
        "InChI": "InChI=1S/C5H4BrN/c6-5-1-3-7-4-2-5/h1-4H",
        "InChIKey": null,
        "Canonical SMILES": "BrC=1C=CN=CC1",
        "Molecular Formula": "C<sub>5</sub>H<sub>4</sub>BrN",
        "Molecular Mass": "158.00",
        "Boiling Point": "28-30 °C",
        "Melting Point": "0.5 °C"
    }
}