{
    "cas_no": "16372-96-6",
    "key_name": "3,5-Dibromobiphenyl",
    "cn_name": null,
    "alternate_name": "1,1′-Biphenyl, 3,5-dibromo-;Biphenyl, 3,5-dibromo-;3,5-Dibromo-1,1′-biphenyl;3,5-Dibromobiphenyl;PBB 14",
    "duplicated_cas_no": "",
    "SMILES": "BrC=1C=C(C=C(Br)C1)C2=CC=CC=C2",
    "meta_data": {
        "InChI": "InChI=1S/C12H8Br2/c13-11-6-10(7-12(14)8-11)9-4-2-1-3-5-9/h1-8H",
        "InChIKey": null,
        "Canonical SMILES": "BrC=1C=C(Br)C=C(C1)C=2C=CC=CC2",
        "Molecular Formula": "C<sub>12</sub>H<sub>8</sub>Br<sub>2</sub>",
        "Molecular Mass": "312.00",
        "Boiling Point": "208 °C @ Press: 15 Torr",
        "Melting Point": "15 °C",
        "Density": "1.7197 g/cm³ @ Temp: 25 °C"
    }
}