{
    "cas_no": "477-19-0",
    "key_name": "(5a<em>R</em>,7<em>S</em>,11b<em>S</em>,11c<em>S</em>)-1,2,3,5,5a,7,11b,11c-Octahydro-9,10-dimethoxy-1-methyl[2]benzopyrano[3,4-<em>g</em>]indol-7-ol",
    "cn_name": null,
    "alternate_name": "[2]Benzopyrano[3,4-<em>g</em>]indol-7-ol, 1,2,3,5,5a,7,11b,11c-octahydro-9,10-dimethoxy-1-methyl-, (5a<em>R</em>,7<em>S</em>,11b<em>S</em>,11c<em>S</em>)-;Lycorenine;Lycorenan-7-ol, 9,10-dimethoxy-1-methyl-, (7α)-;(5a<em>R</em>,7<em>S</em>,11b<em>S</em>,11c<em>S</em>)-1,2,3,5,5a,7,11b,11c-Octahydro-9,10-dimethoxy-1-methyl[2]benzopyrano[3,4-<em>g</em>]indol-7-ol;[2]Benzopyrano[3,4-<em>g</em>]indol-7-ol, 1,2,3,5,5a,7,11b,11c-octahydro-9,10-dimethoxy-1-methyl-, [5a<em>R</em>-(5aα,7α,11bα,11cβ)]-",
    "duplicated_cas_no": "",
    "SMILES": "CN1[C@]2([C@@]3(C=4C(=CC(OC)=C(OC)C4)[C@@H](O)O[C@@]3(CC=C2CC1)[H])[H])[H]",
    "meta_data": {
        "InChI": "InChI=1S/C18H23NO4/c1-19-7-6-10-4-5-13-16(17(10)19)11-8-14(21-2)15(22-3)9-12(11)18(20)23-13/h4,8-9,13,16-18,20H,5-7H2,1-3H3/t13-,16-,17-,18+/m1/s1",
        "InChIKey": null,
        "Canonical SMILES": "OC1OC2CC=C3CCN(C)C3C2C4=CC(OC)=C(OC)C=C41",
        "Molecular Formula": "C<sub>18</sub>H<sub>23</sub>NO<sub>4</sub>",
        "Molecular Mass": "317.38",
        "Melting Point": "202 °C"
    }
}