{
    "cas_no": "64872-77-1",
    "key_name": "Butoconazole nitrate",
    "cn_name": "硝酸布康唑;1-[4-(4-氯苯基)-2-(2,6-二氯苯基)硫代丁基]咪唑硝酸盐;",
    "alternate_name": "1<em>H</em>-Imidazole, 1-[4-(4-chlorophenyl)-2-[(2,6-dichlorophenyl)thio]butyl]-, nitrate (1:1);1<em>H</em>-Imidazole, 1-[4-(4-chlorophenyl)-2-[(2,6-dichlorophenyl)thio]butyl]-, (±)-, mononitrate;1<em>H</em>-Imidazole, 1-[4-(4-chlorophenyl)-2-[(2,6-dichlorophenyl)thio]butyl]-, mononitrate;Butoconazole nitrate;(±)-Butoconazole nitrate;Gynomyk;RS 35887;Femstat;RS 35887-00-10-3;Butaconazole nitrate",
    "duplicated_cas_no": "67085-14-7;1427453-81-3;1855858-66-0",
    "SMILES": "C(SC1=C(Cl)C=CC=C1Cl)(CN2C=CN=C2)CCC3=CC=C(Cl)C=C3.N(=O)(=O)O",
    "meta_data": {
        "InChI": "InChI=1S/C19H17Cl3N2S.HNO3/c20-15-7-4-14(5-8-15)6-9-16(12-24-11-10-23-13-24)25-19-17(21)2-1-3-18(19)22;2-1(3)4/h1-5,7-8,10-11,13,16H,6,9,12H2;(H,2,3,4)",
        "InChIKey": null,
        "Canonical SMILES": "O=N(=O)O.ClC1=CC=C(C=C1)CCC(SC=2C(Cl)=CC=CC2Cl)CN3C=NC=C3",
        "Molecular Formula": "C<sub>19</sub>H<sub>17</sub>Cl<sub>3</sub>N<sub>2</sub>S.HNO<sub>3</sub>",
        "Molecular Mass": "",
        "Melting Point": "162-163 °C"
    }
}