{
    "cas_no": "22223-49-0",
    "key_name": "Benzoic acid, 2-amino-3-methyl-, methyl ester",
    "cn_name": "2-氨基-3-甲基苯甲酸甲酯;",
    "alternate_name": "Benzoic acid, 2-amino-3-methyl-, methyl ester;<em>m</em>-Toluic acid, 2-amino-, methyl ester;2-Carbomethoxy-6-methylaniline;3-Methylanthranilic acid methyl ester;Methyl 3-methylanthranilate;Methyl 2-amino-3-methylbenzoate;2-Amino-3-methyl-benzoic acid methyl ester",
    "duplicated_cas_no": "",
    "SMILES": "C(OC)(=O)C1=C(N)C(C)=CC=C1",
    "meta_data": {
        "InChI": "InChI=1S/C9H11NO2/c1-6-4-3-5-7(8(6)10)9(11)12-2/h3-5H,10H2,1-2H3",
        "InChIKey": null,
        "Canonical SMILES": "O=C(OC)C1=CC=CC(=C1N)C",
        "Molecular Formula": "C<sub>9</sub>H<sub>11</sub>NO<sub>2</sub>",
        "Molecular Mass": "165.19",
        "Boiling Point": "83 °C @ Press: 0.05 Torr"
    }
}