{
    "cas_no": "20357-20-4",
    "key_name": "5-Bromo-2-nitrobenzaldehyde",
    "cn_name": "5-溴-2-硝基苯甲醛;",
    "alternate_name": "Benzaldehyde, 5-bromo-2-nitro-;5-Bromo-2-nitrobenzaldehyde;2-Nitro-5-bromobenzaldehyde;NSC 107452",
    "duplicated_cas_no": "2130991-54-5",
    "SMILES": "C(=O)C1=C(N(=O)=O)C=CC(Br)=C1",
    "meta_data": {
        "InChI": "InChI=1S/C7H4BrNO3/c8-6-1-2-7(9(11)12)5(3-6)4-10/h1-4H",
        "InChIKey": null,
        "Canonical SMILES": "O=CC1=CC(Br)=CC=C1N(=O)=O",
        "Molecular Formula": "C<sub>7</sub>H<sub>4</sub>BrNO<sub>3</sub>",
        "Molecular Mass": "230.02",
        "Melting Point": "68-69 °C"
    }
}