{
    "cas_no": "511-15-9",
    "key_name": "(+)-Totarol",
    "cn_name": null,
    "alternate_name": "2-Phenanthrenol, 4b,5,6,7,8,8a,9,10-octahydro-4b,8,8-trimethyl-1-(1-methylethyl)-, (4b<em>S</em>,8a<em>S</em>)-;Podocarpa-8,11,13-trien-13-ol, 14-isopropyl-;Totarol;2-Phenanthrenol, 4b,5,6,7,8,8a,9,10-octahydro-4b,8,8-trimethyl-1-(1-methylethyl)-, (4b<em>S</em>-<em>trans</em>)-;(4b<em>S</em>,8a<em>S</em>)-4b,5,6,7,8,8a,9,10-Octahydro-4b,8,8-trimethyl-1-(1-methylethyl)-2-phenanthrenol;(+)-Totarol;NSC 299936;<em>trans</em>-Totarol;(4AS,10aS)-7-Hydroxy-8-isopropyl-1,1,4a-trimethyl-1,2,3,4,4a,9,10,10a-octahydrophenanthrene;(4b<em>S</em>-<em>trans</em>)-4b,5,6,7,8,8a,9,10-Octahydro-4b,8,8-trimethyl-1-(1-isopropyl)-2-phenanthrenol",
    "duplicated_cas_no": "1212475-14-3",
    "SMILES": "C[C@@]12C=3C(=C(C(C)C)C(O)=CC3)CC[C@]1(C(C)(C)CCC2)[H]",
    "meta_data": {
        "InChI": "InChI=1S/C20H30O/c1-13(2)18-14-7-10-17-19(3,4)11-6-12-20(17,5)15(14)8-9-16(18)21/h8-9,13,17,21H,6-7,10-12H2,1-5H3/t17-,20+/m0/s1",
        "InChIKey": null,
        "Canonical SMILES": "OC1=CC=C2C(=C1C(C)C)CCC3C2(C)CCCC3(C)C",
        "Molecular Formula": "C<sub>20</sub>H<sub>30</sub>O",
        "Molecular Mass": "286.45",
        "Melting Point": "128-129 °C"
    }
}