{
    "cas_no": "24470-78-8",
    "key_name": "Isopropyltriphenylphosphonium iodide",
    "cn_name": "碘化异丙基三苯膦;异丙基三苯碘化膦;",
    "alternate_name": "Phosphonium, (1-methylethyl)triphenyl-, iodide (1:1);Phosphonium, isopropyltriphenyl-, iodide;Phosphonium, (1-methylethyl)triphenyl-, iodide;Isopropyltriphenylphosphonium iodide;Triphenylisopropylphosphonium iodide;NSC 140615;(1-Methylethyl)triphenylphosphonium iodide",
    "duplicated_cas_no": "106486-65-1",
    "SMILES": "[P+](C(C)C)(C1=CC=CC=C1)(C2=CC=CC=C2)C3=CC=CC=C3.[I-]",
    "meta_data": {
        "InChI": "InChI=1S/C21H22P.HI/c1-18(2)22(19-12-6-3-7-13-19,20-14-8-4-9-15-20)21-16-10-5-11-17-21;/h3-18H,1-2H3;1H/q+1;/p-1",
        "InChIKey": null,
        "Canonical SMILES": "[I-].C=1C=CC(=CC1)[P+](C=2C=CC=CC2)(C=3C=CC=CC3)C(C)C",
        "Molecular Formula": "C<sub>21</sub>H<sub>22</sub>P.I",
        "Molecular Mass": "",
        "Melting Point": "195-196 °C"
    }
}