{
    "cas_no": "766-98-3",
    "key_name": "1-Ethynyl-4-fluorobenzene",
    "cn_name": "4-氟苯乙炔;1-乙炔基-4-氟苯;",
    "alternate_name": "Benzene, 1-ethynyl-4-fluoro-;1-Ethynyl-4-fluorobenzene;(<em>p</em>-Fluorophenyl)acetylene;(4-Fluorophenyl)acetylene;(<em>p</em>-Fluorophenyl)ethyne;(4-Fluorophenyl)ethyne;1-Fluoro-4-ethynylbenzene;4-Ethynyl-1-fluorobenzene;4-Ethynylfluorobenzene;4-Fluoroethynylbenzene;2-(4-Fluorophenyl)acetylene",
    "duplicated_cas_no": "",
    "SMILES": "C(#C)C1=CC=C(F)C=C1",
    "meta_data": {
        "InChI": "InChI=1S/C8H5F/c1-2-7-3-5-8(9)6-4-7/h1,3-6H",
        "InChIKey": null,
        "Canonical SMILES": "FC1=CC=C(C#C)C=C1",
        "Molecular Formula": "C<sub>8</sub>H<sub>5</sub>F",
        "Molecular Mass": "120.12",
        "Boiling Point": "34-35 °C @ Press: 10 Torr",
        "Melting Point": "26-27 °C"
    }
}