{
    "cas_no": "24331-94-0",
    "key_name": "1,4-Dihydro-3(2<em>H</em>)-isoquinolinone",
    "cn_name": "1,4-二氢-3(2H)-异喹啉酮;",
    "alternate_name": "3(2<em>H</em>)-Isoquinolinone, 1,4-dihydro-;3(2<em>H</em>)-Isoquinolone, 1,4-dihydro-;1,4-Dihydro-3(2<em>H</em>)-isoquinolinone;1,4-Dihydro-3(2<em>H</em>)-isoquinolone;<em>o</em>-(Aminomethyl)phenylacetic acid lactam;NSC 134509;2,4-Dihydro-1<em>H</em>-isoquinolin-3-one",
    "duplicated_cas_no": "",
    "SMILES": "O=C1CC=2C(CN1)=CC=CC2",
    "meta_data": {
        "InChI": "InChI=1S/C9H9NO/c11-9-5-7-3-1-2-4-8(7)6-10-9/h1-4H,5-6H2,(H,10,11)",
        "InChIKey": null,
        "Canonical SMILES": "O=C1NCC=2C=CC=CC2C1",
        "Molecular Formula": "C<sub>9</sub>H<sub>9</sub>NO",
        "Molecular Mass": "147.17",
        "Melting Point": "146-148 °C"
    }
}