{
    "cas_no": "120-35-4",
    "key_name": "3-Amino-4-methoxy-<em>N</em>-phenylbenzamide",
    "cn_name": "3-氨基-4-甲氧基苯甲酰苯胺;3-氨基-4-甲氧基-N-苯基苯甲酰胺;",
    "alternate_name": "Benzamide, 3-amino-4-methoxy-<em>N</em>-phenyl-;<em>p</em>-Anisanilide, 3-amino-;3-Amino-4-methoxy-<em>N</em>-phenylbenzamide;3-Amino-<em>p</em>-anisanilide;3-Amino-4-methoxybenzanilide;1-Amino-2-methoxybenzene-5-carboxylic acid phenylamide;NSC 50647;3-Amino-4-methoxy-<em>N</em>-phenylbenzoic acid amide;M 40 (pigment);M 40;<em>N</em>-Phenyl-3-amino-4-methoxybenzenecarboxamide",
    "duplicated_cas_no": "",
    "SMILES": "C(NC1=CC=CC=C1)(=O)C2=CC(N)=C(OC)C=C2",
    "meta_data": {
        "InChI": "InChI=1S/C14H14N2O2/c1-18-13-8-7-10(9-12(13)15)14(17)16-11-5-3-2-4-6-11/h2-9H,15H2,1H3,(H,16,17)",
        "InChIKey": null,
        "Canonical SMILES": "O=C(NC=1C=CC=CC1)C2=CC=C(OC)C(N)=C2",
        "Molecular Formula": "C<sub>14</sub>H<sub>14</sub>N<sub>2</sub>O<sub>2</sub>",
        "Molecular Mass": "242.27",
        "Melting Point": "197-198 °C"
    }
}