{
    "cas_no": "58-15-1",
    "key_name": "Aminopyrine",
    "cn_name": "氨基比林;氨基吡啉;4-二甲基氨基-2,3-二甲氧-1-苯基吡唑-5-酮;",
    "alternate_name": "3<em>H</em>-Pyrazol-3-one, 4-(dimethylamino)-1,2-dihydro-1,5-dimethyl-2-phenyl-;Antipyrine, 4-(dimethylamino)-;3-Pyrazolin-5-one, 4-(dimethylamino)-2,3-dimethyl-1-phenyl-;4-(Dimethylamino)-1,2-dihydro-1,5-dimethyl-2-phenyl-3<em>H</em>-pyrazol-3-one;Amidazophen;Amidofebrin;Amidophenazone;Amidopyrazoline;Amidopyrine;Aminophenazone;Aminopyrine;Anafebrina;Dereuma;Dimapyrin;(Dimethylamino)analgesine;4-Dimethylamino-2,3-dimethyl-1-phenyl-3-pyrazolin-5-one;4-Dimethylamino-2,3-dimethyl-1-phenyl-5-pyrazolone;4-Dimethylamino-1-phenyl-2,3-dimethylpyrazolone;3-Keto-1,5-dimethyl-4-dimethylamino-2-phenyl-2,3-dihydropyrazole;1,5-Dimethyl-4-dimethylamino-2-phenyl-3-pyrazolone;2,3-Dimethyl-4-dimethylamino-1-phenyl-5-pyrazolone;Dipirin;Dipyrine;Febrinina;Novamidon;1-Phenyl-2,3-dimethyl-4-dimethylaminopyrazol-5-one;1-Phenyl-2,3-dimethyl-4-dimethylaminopyrazolone-5;Piridol;Polinalin;Pyradone;Pyramidone;Pyramidon;4-(Dimethylamino)antipyrine;(Dimethylamino)antipyrine;Dimethylaminoazophene;(Dimethylamino)phenazone;Amidophen;Brufaneuxol;Itamidone;2,3-Dimethyl-4-dimethylamino-1-phenyl-3-pyrazolin-5-one;Aminophenazon;Amidopyrin;Aminopyrin;Piramidon;Piromidina;Febron;Dipyrin;4-Dimethylaminophenazone;Amidazophene;Amidofen;Piramidone;4-<em>N</em>,<em>N</em>-Dimethylaminoantipyrine;Netsusarin;Mamallet A;Dimethylaminophenyldimethylpyrazone;NSC 4993;MeSH ID: D000632",
    "duplicated_cas_no": "144574-10-7",
    "SMILES": "O=C1N(N(C)C(C)=C1N(C)C)C2=CC=CC=C2",
    "meta_data": {
        "InChI": "InChI=1S/C13H17N3O/c1-10-12(14(2)3)13(17)16(15(10)4)11-8-6-5-7-9-11/h5-9H,1-4H3",
        "InChIKey": null,
        "Canonical SMILES": "O=C1C(=C(N(N1C=2C=CC=CC2)C)C)N(C)C",
        "Molecular Formula": "C<sub>13</sub>H<sub>17</sub>N<sub>3</sub>O",
        "Molecular Mass": "231.29",
        "Melting Point": "107-109 °C"
    }
}