{
    "cas_no": "13139-15-6",
    "key_name": "BOC-<span class=\"text-smallcaps\">L</span>-leucine",
    "cn_name": "BOC-L-亮氨酸;N-叔丁氧羰基-L-亮氨酸;",
    "alternate_name": "<span class=\"text-smallcaps\">L</span>-Leucine, <em>N</em>-[(1,1-dimethylethoxy)carbonyl]-;Leucine, <em>N</em>-carboxy-, <em>N</em>-<em>tert</em>-butyl ester, <span class=\"text-smallcaps\">L</span>-;Leucine, <em>N</em>-carboxy-, <em>N</em>-<em>tert</em>-butyl ester;<em>N</em>-[(1,1-Dimethylethoxy)carbonyl]-<span class=\"text-smallcaps\">L</span>-leucine;<em>tert</em>-Butoxycarbonyl-<span class=\"text-smallcaps\">L</span>-leucine;<em>N</em>-<em>tert</em>-Butoxycarbonylleucine;<em>N</em>-(<em>tert</em>-Butoxycarbonyl)-<span class=\"text-smallcaps\">L</span>-leucine;<em>N</em>-[(1,1-Dimethylethoxy)carbonyl]leucine;<em>N</em>-Carboxy-<span class=\"text-smallcaps\">L</span>-leucine <em>N</em>-<em>tert</em>-butyl ester;<em>N</em>-(α-<em>tert</em>-Butoxycarbonyl)leucine;BOC-<span class=\"text-smallcaps\">L</span>-leucine;BOC-<span class=\"text-smallcaps\">L</span>-Leu-OH;NSC 108690;(<em>S</em>)-2-[(<em>tert</em>-Butoxycarbonyl)amino]-4-methylpentanoic acid;(2<em>S</em>)-2-[(<em>tert</em>-Butoxycarbonyl)amino]-4-methylpentanoic acid;<em>N</em>-Boc-<span class=\"text-smallcaps\">L</span>-leucine;(<em>S</em>)-<em>N</em>-(t-Butoxycarbonyl)leucine;Boc-L-Leu-OH;(2S)-2-[[(<em>tert</em>-Butoxy)carbonyl]amino]-4-methylpentanoic acid;(2S)-4-Methyl-2-[(2-methylpropan-2-yl)oxycarbonylamino]pentanoic acid",
    "duplicated_cas_no": "53296-34-7;1531594-82-7",
    "SMILES": "[C@H](NC(OC(C)(C)C)=O)(CC(C)C)C(O)=O",
    "meta_data": {
        "InChI": "InChI=1S/C11H21NO4/c1-7(2)6-8(9(13)14)12-10(15)16-11(3,4)5/h7-8H,6H2,1-5H3,(H,12,15)(H,13,14)/t8-/m0/s1",
        "InChIKey": null,
        "Canonical SMILES": "O=C(OC(C)(C)C)NC(C(=O)O)CC(C)C",
        "Molecular Formula": "C<sub>11</sub>H<sub>21</sub>NO<sub>4</sub>",
        "Molecular Mass": "231.29",
        "Melting Point": "67-72 °C"
    }
}