{
    "cas_no": "5308-63-4",
    "key_name": "1-(5-Methyl-2-pyridinyl)ethanone",
    "cn_name": null,
    "alternate_name": "Ethanone, 1-(5-methyl-2-pyridinyl)-;Ketone, methyl 5-methyl-2-pyridyl;1-(5-Methyl-2-pyridinyl)ethanone;2-Acetyl-5-methylpyridine;2-Acetyl-5-picoline;1-(5-Methyl-2-pyridyl)-1-ethanone;5-Methyl-2-acetylpyridine;1-(5-Methylpyridin-2-yl)ethanone;1-(5-Methylpyridin-2-yl)ethan-1-one",
    "duplicated_cas_no": "",
    "SMILES": "C(C)(=O)C1=CC=C(C)C=N1",
    "meta_data": {
        "InChI": "InChI=1S/C8H9NO/c1-6-3-4-8(7(2)10)9-5-6/h3-5H,1-2H3",
        "InChIKey": null,
        "Canonical SMILES": "O=C(C1=NC=C(C=C1)C)C",
        "Molecular Formula": "C<sub>8</sub>H<sub>9</sub>NO",
        "Molecular Mass": "135.16",
        "Boiling Point": "105 °C @ Press: 13 Torr"
    }
}