{
    "cas_no": "540-69-2",
    "key_name": "Ammonium formate",
    "cn_name": "甲酸铵;",
    "alternate_name": "Formic acid, ammonium salt (1:1);Formic acid, ammonium salt;Ammonium formate",
    "duplicated_cas_no": "2787-68-0;1807456-01-4;2579173-81-0;2869987-09-5",
    "SMILES": "C(O)=O.N",
    "meta_data": {
        "InChI": "InChI=1S/CH2O2.H3N/c2-1-3;/h1H,(H,2,3);1H3",
        "InChIKey": null,
        "Canonical SMILES": "O=CO.N",
        "Molecular Formula": "CH<sub>2</sub>O<sub>2</sub>.H<sub>3</sub>N",
        "Molecular Mass": "",
        "Melting Point": "116 °C",
        "Density": "1.280 g/cm³"
    }
}