{
    "cas_no": "611-34-7",
    "key_name": "5-Aminoquinoline",
    "cn_name": "5-氨基喹啉;",
    "alternate_name": "5-Quinolinamine;Quinoline, 5-amino-;5-Aminoquinoline;5-Quinolylamine;(Quinolin-5-yl)amine;NSC 170619;NSC 27982;Quinoline-5-amine;Quinolin-5-amine",
    "duplicated_cas_no": "",
    "SMILES": "NC=1C2=C(C=CC1)N=CC=C2",
    "meta_data": {
        "InChI": "InChI=1S/C9H8N2/c10-8-4-1-5-9-7(8)3-2-6-11-9/h1-6H,10H2",
        "InChIKey": null,
        "Canonical SMILES": "N=1C=CC=C2C1C=CC=C2N",
        "Molecular Formula": "C<sub>9</sub>H<sub>8</sub>N<sub>2</sub>",
        "Molecular Mass": "144.17",
        "Boiling Point": "310 °C",
        "Melting Point": "110 °C"
    }
}