{
    "cas_no": "17213-57-9",
    "key_name": "3,5-Dimethoxybenzoyl chloride",
    "cn_name": "3,5-二甲氧基苯甲酰氯;",
    "alternate_name": "Benzoyl chloride, 3,5-dimethoxy-;3,5-Dimethoxybenzoyl chloride;3,5-Dimethoxybenzoic acid chloride;NSC 156082;3,5-Methoxybenzoyl chloride",
    "duplicated_cas_no": "",
    "SMILES": "C(Cl)(=O)C1=CC(OC)=CC(OC)=C1",
    "meta_data": {
        "InChI": "InChI=1S/C9H9ClO3/c1-12-7-3-6(9(10)11)4-8(5-7)13-2/h3-5H,1-2H3",
        "InChIKey": null,
        "Canonical SMILES": "O=C(Cl)C=1C=C(OC)C=C(OC)C1",
        "Molecular Formula": "C<sub>9</sub>H<sub>9</sub>ClO<sub>3</sub>",
        "Molecular Mass": "200.62",
        "Boiling Point": "163-165 °C @ Press: 19-20 Torr",
        "Melting Point": "35-38 °C"
    }
}