{
    "cas_no": "37902-58-2",
    "key_name": "4-Oxo-4-(phenylamino)-2-butenoic acid",
    "cn_name": "4-氧-4-苯胺基-2-丁烯酸;",
    "alternate_name": "2-Butenoic acid, 4-oxo-4-(phenylamino)-;4-Oxo-4-(phenylamino)-2-butenoic acid;NSC 163935;4-Anilino-4-oxobut-2-enoic acid",
    "duplicated_cas_no": "",
    "SMILES": "N(C(C=CC(O)=O)=O)C1=CC=CC=C1",
    "meta_data": {
        "InChI": "InChI=1S/C10H9NO3/c12-9(6-7-10(13)14)11-8-4-2-1-3-5-8/h1-7H,(H,11,12)(H,13,14)",
        "InChIKey": null,
        "Canonical SMILES": "O=C(O)C=CC(=O)NC=1C=CC=CC1",
        "Molecular Formula": "C<sub>10</sub>H<sub>9</sub>NO<sub>3</sub>",
        "Molecular Mass": "191.18",
        "Melting Point": "206 °C (decomp)"
    }
}