{
    "cas_no": "2283-08-1",
    "key_name": "2-Hydroxy-1-naphthoic acid",
    "cn_name": "2-羟基-1-萘甲酸;2-萘酚-1-羧酸;",
    "alternate_name": "1-Naphthalenecarboxylic acid, 2-hydroxy-;1-Naphthoic acid, 2-hydroxy-;2-Hydroxy-1-naphthalenecarboxylic acid;2-Hydroxy-1-naphthoic acid;NSC 2803",
    "duplicated_cas_no": "",
    "SMILES": "C(O)(=O)C=1C2=C(C=CC1O)C=CC=C2",
    "meta_data": {
        "InChI": "InChI=1S/C11H8O3/c12-9-6-5-7-3-1-2-4-8(7)10(9)11(13)14/h1-6,12H,(H,13,14)",
        "InChIKey": null,
        "Canonical SMILES": "O=C(O)C1=C(O)C=CC=2C=CC=CC21",
        "Molecular Formula": "C<sub>11</sub>H<sub>8</sub>O<sub>3</sub>",
        "Molecular Mass": "188.18",
        "Boiling Point": "216 °C",
        "Melting Point": "154-155 °C"
    }
}