{
    "cas_no": "3943-77-9",
    "key_name": "Benzoic acid, 3,4-dimethoxy-, ethyl ester",
    "cn_name": "3,4-二甲氧基苯甲酸乙酯;",
    "alternate_name": "Benzoic acid, 3,4-dimethoxy-, ethyl ester;Veratric acid, ethyl ester;3,4-Dimethoxybenzoic acid ethyl ester;Ethyl 3,4-dimethoxybenzoate",
    "duplicated_cas_no": "",
    "SMILES": "C(OCC)(=O)C1=CC(OC)=C(OC)C=C1",
    "meta_data": {
        "InChI": "InChI=1S/C11H14O4/c1-4-15-11(12)8-5-6-9(13-2)10(7-8)14-3/h5-7H,4H2,1-3H3",
        "InChIKey": null,
        "Canonical SMILES": "O=C(OCC)C1=CC=C(OC)C(OC)=C1",
        "Molecular Formula": "C<sub>11</sub>H<sub>14</sub>O<sub>4</sub>",
        "Molecular Mass": "210.23",
        "Boiling Point": "295.5 °C",
        "Melting Point": "43.5 °C"
    }
}