{
    "cas_no": "9002-81-7",
    "key_name": "Polyformaldehyde",
    "cn_name": null,
    "alternate_name": "Poly(oxymethylene);Polytrioxane;Polyformaldehyde;Poly-<em>s</em>-trioxane;Takafest;Tenac 7010;Tenac 3010;Tenac PT 300;Poly(1,3,5-trioxane);Tenac 5010;Formaldehyde, homopolymer;1,3,5-Trioxane, homopolymer;Polymethylene oxide;Tenac 3013ABK;Polymethanal;F 20 (polyoxyalkylene);F 20;100P;Tenac LA 543;LA 543;Tenac H 5010;Delrin 111PF;Tenac Z 4060",
    "duplicated_cas_no": "31957-21-8;56940-47-7;56940-48-8;61673-96-9",
    "SMILES": "",
    "meta_data": {
        "InChI": "",
        "InChIKey": null,
        "Canonical SMILES": "",
        "Molecular Formula": "(CH<sub>2</sub>O)<sub>n</sub>",
        "Molecular Mass": "",
        "Melting Point": "170-172 °C",
        "Density": "1.425 g/cm³ @ Temp: 23 °C"
    }
}