{
    "cas_no": "10419-79-1",
    "key_name": "Diethyl <em>P</em>-(2-chloroethyl)phosphonate",
    "cn_name": "二乙基(2-乙基氯)磷酸盐;",
    "alternate_name": "Phosphonic acid, <em>P</em>-(2-chloroethyl)-, diethyl ester;Phosphonic acid, (2-chloroethyl)-, diethyl ester;Diethyl <em>P</em>-(2-chloroethyl)phosphonate;Diethyl (2-chloroethyl)phosphonate;Diethyl 2-chloroethanephosphonate;NSC 138339",
    "duplicated_cas_no": "",
    "SMILES": "P(CCCl)(OCC)(OCC)=O",
    "meta_data": {
        "InChI": "InChI=1S/C6H14ClO3P/c1-3-9-11(8,6-5-7)10-4-2/h3-6H2,1-2H3",
        "InChIKey": null,
        "Canonical SMILES": "O=P(OCC)(OCC)CCCl",
        "Molecular Formula": "C<sub>6</sub>H<sub>14</sub>ClO<sub>3</sub>P",
        "Molecular Mass": "200.60",
        "Boiling Point": "92-94 °C @ Press: 4 Torr",
        "Density": "1.1565 g/cm³ @ Temp: 20 °C"
    }
}