{
    "cas_no": "2305-36-4",
    "key_name": "2-Amino-4-methylbenzoic acid",
    "cn_name": "2-氨基-4-甲基苯甲酸;",
    "alternate_name": "Benzoic acid, 2-amino-4-methyl-;<em>p</em>-Toluic acid, 2-amino-;2-Amino-4-methylbenzoic acid;4-Methylanthranilic acid;2-Amino-<em>p</em>-toluic acid;NSC 39155",
    "duplicated_cas_no": "",
    "SMILES": "C(O)(=O)C1=C(N)C=C(C)C=C1",
    "meta_data": {
        "InChI": "InChI=1S/C8H9NO2/c1-5-2-3-6(8(10)11)7(9)4-5/h2-4H,9H2,1H3,(H,10,11)",
        "InChIKey": null,
        "Canonical SMILES": "O=C(O)C1=CC=C(C=C1N)C",
        "Molecular Formula": "C<sub>8</sub>H<sub>9</sub>NO<sub>2</sub>",
        "Molecular Mass": "151.16",
        "Melting Point": "178-180 °C"
    }
}