{
    "cas_no": "6126-22-3",
    "key_name": "5-Amino-2,4-dihydro-3<em>H</em>-pyrazol-3-one",
    "cn_name": "3-氨基-5-羟基吡唑;",
    "alternate_name": "3<em>H</em>-Pyrazol-3-one, 5-amino-2,4-dihydro-;2-Pyrazolin-5-one, 3-amino-;3-Pyrazolidinone, 5-imino-;5-Amino-2,4-dihydro-3<em>H</em>-pyrazol-3-one;3-Amino-5-pyrazolone;3-Amino-2-pyrazolin-5-one;3-Aminopyrazolone;NSC 30480;NSC 34806;NSC 50565;3-Amino-5-oxo-4,5-dihydropyrazole;3-Amino-1,4-dihydropyrazol-5-one;3-Amino-4,5-dihydro-1<em>H</em>-pyrazol-5-one",
    "duplicated_cas_no": "",
    "SMILES": "NC=1CC(=O)NN1",
    "meta_data": {
        "InChI": "InChI=1S/C3H5N3O/c4-2-1-3(7)6-5-2/h1H2,(H2,4,5)(H,6,7)",
        "InChIKey": null,
        "Canonical SMILES": "O=C1NN=C(N)C1",
        "Molecular Formula": "C<sub>3</sub>H<sub>5</sub>N<sub>3</sub>O",
        "Molecular Mass": "99.09",
        "Melting Point": "214-215 °C (decomp)"
    }
}