{
    "cas_no": "53595-66-7",
    "key_name": "5-Chloro-2-thiophenesulfonamide",
    "cn_name": "2-氯噻吩-5-磺酰胺;",
    "alternate_name": "2-Thiophenesulfonamide, 5-chloro-;5-Chloro-2-thiophenesulfonamide",
    "duplicated_cas_no": "",
    "SMILES": "S(N)(=O)(=O)C=1SC(Cl)=CC1",
    "meta_data": {
        "InChI": "InChI=1S/C4H4ClNO2S2/c5-3-1-2-4(9-3)10(6,7)8/h1-2H,(H2,6,7,8)",
        "InChIKey": null,
        "Canonical SMILES": "O=S(=O)(N)C=1SC(Cl)=CC1",
        "Molecular Formula": "C<sub>4</sub>H<sub>4</sub>ClNO<sub>2</sub>S<sub>2</sub>",
        "Molecular Mass": "197.66",
        "Melting Point": "113.5 °C"
    }
}