{
    "cas_no": "140-31-8",
    "key_name": "1-Piperazineethanamine",
    "cn_name": "N-氨乙基哌嗪;氨乙基哌嗪;氨基乙基对二氮己环;",
    "alternate_name": "1-Piperazineethanamine;Piperazine, 1-(2-aminoethyl)-;<em>N</em>-(β-Aminoethyl)piperazine;1-(2-Aminoethyl)piperazine;<em>N</em>-(2-Aminoethyl)piperazine;1-Piperazineethylamine;2-Piperazinylethylamine;4-(2-Aminoethyl)piperazine;1-(β-Aminoethyl)piperazine;AEP;2-(1-Piperazinyl)ethylamine;Ancamine AEP;2-(1-Piperazinyl)ethanamine;N-AEP;NSC 38968;Epikure 3202;Epicure 3200;2-(Piperazinyl-1-yl)ethanamine;2-(Piperazin-1-yl)ethaneamine;2-(Piperazin-1-yl)ethan-1-amine;AEP1 protein ligase;AEP1;Proteins, AEP1;RoyOxy RAC 111",
    "duplicated_cas_no": "935701-76-1",
    "SMILES": "C(CN)N1CCNCC1",
    "meta_data": {
        "InChI": "InChI=1S/C6H15N3/c7-1-4-9-5-2-8-3-6-9/h8H,1-7H2",
        "InChIKey": null,
        "Canonical SMILES": "NCCN1CCNCC1",
        "Molecular Formula": "C<sub>6</sub>H<sub>15</sub>N<sub>3</sub>",
        "Molecular Mass": "129.20",
        "Boiling Point": "222 °C",
        "Density": "0.9837 g/cm³"
    }
}