{
    "cas_no": "6554-10-5",
    "key_name": "5′-<em>O</em>-(Triphenylmethyl)uridine",
    "cn_name": "5\"-O-三苯甲基尿苷;",
    "alternate_name": "Uridine, 5′-<em>O</em>-(triphenylmethyl)-;Uridine, 5′-<em>O</em>-trityl-;5′-<em>O</em>-(Triphenylmethyl)uridine;5′-<em>O</em>-Trityluridine;5′-<em>O</em>-Triphenylmethyluridine;NSC 97038",
    "duplicated_cas_no": "",
    "SMILES": "C(OC[C@H]1O[C@H]([C@H](O)[C@@H]1O)N2C(=O)NC(=O)C=C2)(C3=CC=CC=C3)(C4=CC=CC=C4)C5=CC=CC=C5",
    "meta_data": {
        "InChI": "InChI=1S/C28H26N2O6/c31-23-16-17-30(27(34)29-23)26-25(33)24(32)22(36-26)18-35-28(19-10-4-1-5-11-19,20-12-6-2-7-13-20)21-14-8-3-9-15-21/h1-17,22,24-26,32-33H,18H2,(H,29,31,34)/t22-,24-,25-,26-/m1/s1",
        "InChIKey": null,
        "Canonical SMILES": "O=C1C=CN(C(=O)N1)C2OC(COC(C=3C=CC=CC3)(C=4C=CC=CC4)C=5C=CC=CC5)C(O)C2O",
        "Molecular Formula": "C<sub>28</sub>H<sub>26</sub>N<sub>2</sub>O<sub>6</sub>",
        "Molecular Mass": "486.52",
        "Melting Point": "207-208 °C"
    }
}