{
    "cas_no": "2408-20-0",
    "key_name": "Allyl propionate",
    "cn_name": "丙酸烯丙酯;丙酸-2-丙烯酯;",
    "alternate_name": "Propanoic acid, 2-propen-1-yl ester;Propionic acid, allyl ester;Propanoic acid, 2-propenyl ester;Allyl propionate;2-Propenyl propanoate;Allyl propanoate;NSC 7620;Propanoic acid 2-propen-1-yl ester",
    "duplicated_cas_no": "",
    "SMILES": "C(OCC=C)(CC)=O",
    "meta_data": {
        "InChI": "InChI=1S/C6H10O2/c1-3-5-8-6(7)4-2/h3H,1,4-5H2,2H3",
        "InChIKey": null,
        "Canonical SMILES": "O=C(OCC=C)CC",
        "Molecular Formula": "C<sub>6</sub>H<sub>10</sub>O<sub>2</sub>",
        "Molecular Mass": "114.14",
        "Boiling Point": "124 °C",
        "Density": "0.9245 g/cm³ @ Temp: 20 °C"
    }
}