{
    "cas_no": "2983-37-1",
    "key_name": "Ethyl 2-ethylhexanoate",
    "cn_name": null,
    "alternate_name": "Hexanoic acid, 2-ethyl-, ethyl ester;Ethyl 2-ethylhexanoate;Ethyl α-ethylcaproate;Irotyl",
    "duplicated_cas_no": "",
    "SMILES": "C(C(OCC)=O)(CCCC)CC",
    "meta_data": {
        "InChI": "InChI=1S/C10H20O2/c1-4-7-8-9(5-2)10(11)12-6-3/h9H,4-8H2,1-3H3",
        "InChIKey": null,
        "Canonical SMILES": "O=C(OCC)C(CC)CCCC",
        "Molecular Formula": "C<sub>10</sub>H<sub>20</sub>O<sub>2</sub>",
        "Molecular Mass": "172.26",
        "Boiling Point": "189-191 °C @ Press: 166 Torr",
        "Density": "0.8628 g/cm³ @ Temp: 20 °C"
    }
}