{
    "cas_no": "2957-21-3",
    "key_name": "Sakuranetin",
    "cn_name": "樱花亭;樱花亭;",
    "alternate_name": "4<em>H</em>-1-Benzopyran-4-one, 2,3-dihydro-5-hydroxy-2-(4-hydroxyphenyl)-7-methoxy-, (2<em>S</em>)-;Flavanone, 4′,5-dihydroxy-7-methoxy-, (<em>S</em>)-(-)-;Sakuranetin;4<em>H</em>-1-Benzopyran-4-one, 2,3-dihydro-5-hydroxy-2-(4-hydroxyphenyl)-7-methoxy-, (<em>S</em>)-;(2<em>S</em>)-2,3-Dihydro-5-hydroxy-2-(4-hydroxyphenyl)-7-methoxy-4<em>H</em>-1-benzopyran-4-one;(<em>S</em>)-4′,5-Dihydroxy-7-methoxyflavanone;Naringenin 7-methyl ether;Naringenin 7-<em>O</em>-methyl ether;7-<em>O</em>-Methylnaringenin;(-)-(<em>S</em>)-Sakuranetin;5,4′-Dihydroxy-7-methoxyflavanone",
    "duplicated_cas_no": "",
    "SMILES": "O=C1C=2C(O[C@@H](C1)C3=CC=C(O)C=C3)=CC(OC)=CC2O",
    "meta_data": {
        "InChI": "InChI=1S/C16H14O5/c1-20-11-6-12(18)16-13(19)8-14(21-15(16)7-11)9-2-4-10(17)5-3-9/h2-7,14,17-18H,8H2,1H3/t14-/m0/s1",
        "InChIKey": null,
        "Canonical SMILES": "O=C1C=2C(O)=CC(OC)=CC2OC(C3=CC=C(O)C=C3)C1",
        "Molecular Formula": "C<sub>16</sub>H<sub>14</sub>O<sub>5</sub>",
        "Molecular Mass": "286.28",
        "Melting Point": "152 °C"
    }
}