{
    "cas_no": "1854-25-7",
    "key_name": "<span class=\"text-smallcaps\">D</span>-Glucosone",
    "cn_name": "D-葡糖醛酮;D-葡糖醛酮;",
    "alternate_name": "<span class=\"text-smallcaps\">D</span>-<em>arabino</em>-Hexos-2-ulose;<span class=\"text-smallcaps\">D</span>-<em>arabino</em>-Hexosulose;Glucosone, <span class=\"text-smallcaps\">D</span>-;<span class=\"text-smallcaps\">D</span>-Glucosone;2-Ketoglucose;2-Keto-<span class=\"text-smallcaps\">D</span>-glucose;Mannosone;Glucosone;Fructosone",
    "duplicated_cas_no": "35121-81-4;1933787-83-7",
    "SMILES": "[C@H]([C@@H](C(C=O)=O)O)([C@@H](CO)O)O",
    "meta_data": {
        "InChI": "InChI=1S/C6H10O6/c7-1-3(9)5(11)6(12)4(10)2-8/h1,4-6,8,10-12H,2H2/t4-,5-,6-/m1/s1",
        "InChIKey": null,
        "Canonical SMILES": "O=CC(=O)C(O)C(O)C(O)CO",
        "Molecular Formula": "C<sub>6</sub>H<sub>10</sub>O<sub>6</sub>",
        "Molecular Mass": "178.14",
        "Melting Point": "85-96 °C (decomp)"
    }
}