{
    "cas_no": "4463-59-6",
    "key_name": "1-(2-Bromoethoxy)-2-methoxybenzene",
    "cn_name": "2-(2-溴乙氧基)茴香醚;2-(2-甲氧基苯氧基)溴乙烷;",
    "alternate_name": "Benzene, 1-(2-bromoethoxy)-2-methoxy-;1-(2-Bromoethoxy)-2-methoxybenzene;2-(2-Methoxyphenoxy)ethyl bromide;2-Bromoethyl 2-methoxyphenyl ether",
    "duplicated_cas_no": "",
    "SMILES": "O(CCBr)C1=C(OC)C=CC=C1",
    "meta_data": {
        "InChI": "InChI=1S/C9H11BrO2/c1-11-8-4-2-3-5-9(8)12-7-6-10/h2-5H,6-7H2,1H3",
        "InChIKey": null,
        "Canonical SMILES": "BrCCOC=1C=CC=CC1OC",
        "Molecular Formula": "C<sub>9</sub>H<sub>11</sub>BrO<sub>2</sub>",
        "Molecular Mass": "231.09",
        "Boiling Point": "135-140 °C @ Press: 7 Torr",
        "Melting Point": "43-45 °C"
    }
}