{
    "cas_no": "772-79-2",
    "key_name": "4-Chlorophenyl phosphorodichloridate",
    "cn_name": "4-氯苯基二氯磷酸酯;",
    "alternate_name": "Phosphorodichloridic acid, 4-chlorophenyl ester;Phosphorodichloridic acid, <em>p</em>-chlorophenyl ester;Phenol, <em>p</em>-chloro-, phosphorodichloridate;<em>p</em>-Chlorophenyl dichlorophosphate;<em>p</em>-Chlorophenyl phosphorodichloridate;4-Chlorophenyl phosphorodichloridate;4-Chlorophenyl dichlorophosphate;4-Chlorophenyl dichlorophosphinate;1-Chloro-4-dichlorophosphoryloxybenzen;(4-Chlorophenoxy)phosphonoyl dichloride;1-Chloro-4-dichlorophosphoryloxybenzene",
    "duplicated_cas_no": "",
    "SMILES": "O(P(Cl)(Cl)=O)C1=CC=C(Cl)C=C1",
    "meta_data": {
        "InChI": "InChI=1S/C6H4Cl3O2P/c7-5-1-3-6(4-2-5)11-12(8,9)10/h1-4H",
        "InChIKey": null,
        "Canonical SMILES": "O=P(Cl)(Cl)OC1=CC=C(Cl)C=C1",
        "Molecular Formula": "C<sub>6</sub>H<sub>4</sub>Cl<sub>3</sub>O<sub>2</sub>P",
        "Molecular Mass": "245.43",
        "Boiling Point": "95-115 °C @ Press: 0.1 Torr",
        "Melting Point": "130-134 °C",
        "Density": "1.5236 g/cm³ @ Temp: 20 °C"
    }
}