{
    "cas_no": "33933-78-7",
    "key_name": "5-Methyl-5-nonanol",
    "cn_name": "5-甲基-5-壬醇;",
    "alternate_name": "5-Nonanol, 5-methyl-;5-Methyl-5-nonanol;2-Butyl-2-hexanol",
    "duplicated_cas_no": "",
    "SMILES": "C(CCCC)(CCCC)(C)O",
    "meta_data": {
        "InChI": "InChI=1S/C10H22O/c1-4-6-8-10(3,11)9-7-5-2/h11H,4-9H2,1-3H3",
        "InChIKey": null,
        "Canonical SMILES": "OC(C)(CCCC)CCCC",
        "Molecular Formula": "C<sub>10</sub>H<sub>22</sub>O",
        "Molecular Mass": "158.28",
        "Boiling Point": "91.4-92.4 °C @ Press: 15 Torr",
        "Density": "0.8253 g/cm³ @ Temp: 25 °C"
    }
}