{
    "cas_no": "87661-20-9",
    "key_name": "1,1-Dimethylethyl cyclopropanecarboxylate",
    "cn_name": null,
    "alternate_name": "Cyclopropanecarboxylic acid, 1,1-dimethylethyl ester;1,1-Dimethylethyl cyclopropanecarboxylate;<em>tert</em>-Butyl cyclopropanecarboxylate;Cyclopropanecarboxylic acid tert-butyl ester;Cyclopropanecarboxylic acid <em>tert</em>-butyl ester",
    "duplicated_cas_no": "",
    "SMILES": "C(OC(C)(C)C)(=O)C1CC1",
    "meta_data": {
        "InChI": "InChI=1S/C8H14O2/c1-8(2,3)10-7(9)6-4-5-6/h6H,4-5H2,1-3H3",
        "InChIKey": null,
        "Canonical SMILES": "O=C(OC(C)(C)C)C1CC1",
        "Molecular Formula": "C<sub>8</sub>H<sub>14</sub>O<sub>2</sub>",
        "Molecular Mass": "142.20",
        "Boiling Point": "154 °C"
    }
}