{
    "cas_no": "4149-06-8",
    "key_name": "3-Amino-1-phenyl-2-pyrazolin-5-one",
    "cn_name": "3-氨基-1-苯基-2-吡唑啉-5-酮;3-氨基-1-苯基-2-吡唑啉-5-酮;",
    "alternate_name": "3<em>H</em>-Pyrazol-3-one, 5-amino-2,4-dihydro-2-phenyl-;2-Pyrazolin-5-one, 3-amino-1-phenyl-;5-Amino-2,4-dihydro-2-phenyl-3<em>H</em>-pyrazol-3-one;1-Phenyl-3-amino-5-pyrazolone;3-Amino-1-phenyl-5-pyrazolone;3-Amino-1-phenyl-2-pyrazolin-5-one;1-Phenyl-3-aminopyrazolin-5-one;NSC 3336;1-Phenyl-3-amino-2-pyrazolin-5-one PAP;3-Amino-5-oxo-1-phenyl-4,5-dihydro-1<em>H</em>-pyrazole;3-Amino-1-phenyl-1<em>H</em>-pyrazol-5(4<em>H</em>)-one;3-Amino-1-phenyl-4,5-dihydro-1<em>H</em>-pyrazol-5-one",
    "duplicated_cas_no": "",
    "SMILES": "O=C1N(N=C(N)C1)C2=CC=CC=C2",
    "meta_data": {
        "InChI": "InChI=1S/C9H9N3O/c10-8-6-9(13)12(11-8)7-4-2-1-3-5-7/h1-5H,6H2,(H2,10,11)",
        "InChIKey": null,
        "Canonical SMILES": "O=C1N(N=C(N)C1)C=2C=CC=CC2",
        "Molecular Formula": "C<sub>9</sub>H<sub>9</sub>N<sub>3</sub>O",
        "Molecular Mass": "175.19",
        "Melting Point": "218-219 °C"
    }
}