{
    "cas_no": "69806-50-4",
    "key_name": "Fluazifop-butyl",
    "cn_name": null,
    "alternate_name": "Propanoic acid, 2-[4-[[5-(trifluoromethyl)-2-pyridinyl]oxy]phenoxy]-, butyl ester;Fluazifop-butyl;PP 009;TF 1169;Fusilade;Onecide;Butyl α-[4-(5-trifluoromethyl-2-pyridyloxy)phenoxy]propionate;Fusilade W;Halokon",
    "duplicated_cas_no": "86334-14-7",
    "SMILES": "O(C1=CC=C(C(F)(F)F)C=N1)C2=CC=C(OC(C(OCCCC)=O)C)C=C2",
    "meta_data": {
        "InChI": "InChI=1S/C19H20F3NO4/c1-3-4-11-25-18(24)13(2)26-15-6-8-16(9-7-15)27-17-10-5-14(12-23-17)19(20,21)22/h5-10,12-13H,3-4,11H2,1-2H3",
        "InChIKey": null,
        "Canonical SMILES": "O=C(OCCCC)C(OC1=CC=C(OC2=NC=C(C=C2)C(F)(F)F)C=C1)C",
        "Molecular Formula": "C<sub>19</sub>H<sub>20</sub>F<sub>3</sub>NO<sub>4</sub>",
        "Molecular Mass": "383.36",
        "Boiling Point": "165 °C @ Press: 0.02 Torr",
        "Melting Point": "13 °C",
        "Density": "1.21 g/cm³ @ Temp: 20 °C"
    }
}