{
    "cas_no": "469-39-6",
    "key_name": "Cycloeucalenol",
    "cn_name": null,
    "alternate_name": "9,19-Cycloergost-24(28)-en-3-ol, 4,14-dimethyl-, (3β,4α,5α)-;Cycloeucalenol;9,19-Cyclo-5α,9β-ergost-24(28)-en-3β-ol, 4α,14-dimethyl-;1<em>H</em>,19<em>H</em>-Cyclopropa[9,10]cyclopenta[<em>a</em>]phenanthrene, 9,19-cycloergost-24(28)en-3-ol deriv.;(3β,4α,5α)-4,14-Dimethyl-9,19-cycloergost-24(28)-en-3-ol;4α,14α-Dimethyl-9,19-cyclopropane-24(28)-methylenecholestan-3β-ol;3β-Cycloeucalenol;Cycloartanol, 4β-demethyl-24-methylene-",
    "duplicated_cas_no": "",
    "SMILES": "C[C@]12[C@]3([C@]4([C@]5(C4)[C@@](CC3)([C@H](C)[C@@H](O)CC5)[H])CC[C@]1(C)[C@@]([C@@H](CCC(C(C)C)=C)C)(CC2)[H])[H]",
    "meta_data": {
        "InChI": "InChI=1S/C30H50O/c1-19(2)20(3)8-9-21(4)23-12-14-28(7)26-11-10-24-22(5)25(31)13-15-29(24)18-30(26,29)17-16-27(23,28)6/h19,21-26,31H,3,8-18H2,1-2,4-7H3/t21-,22+,23-,24+,25+,26+,27-,28+,29-,30+/m1/s1",
        "InChIKey": null,
        "Canonical SMILES": "OC1CCC23CC43CCC5(C)C(CCC5(C)C4CCC2C1C)C(C)CCC(=C)C(C)C",
        "Molecular Formula": "C<sub>30</sub>H<sub>50</sub>O",
        "Molecular Mass": "426.72",
        "Melting Point": "140 °C"
    }
}