{
    "cas_no": "3034-53-5",
    "key_name": "2-Bromothiazole",
    "cn_name": "2-溴噻唑;",
    "alternate_name": "Thiazole, 2-bromo-;2-Bromothiazole;2-Bromo-1,3-thiazole;NSC 91532",
    "duplicated_cas_no": "",
    "SMILES": "BrC1=NC=CS1",
    "meta_data": {
        "InChI": "InChI=1S/C3H2BrNS/c4-3-5-1-2-6-3/h1-2H",
        "InChIKey": null,
        "Canonical SMILES": "BrC1=NC=CS1",
        "Molecular Formula": "C<sub>3</sub>H<sub>2</sub>BrNS",
        "Molecular Mass": "164.02",
        "Boiling Point": "171 °C",
        "Melting Point": "39.5 °C"
    }
}