{
    "cas_no": "1195-16-0",
    "key_name": "Citiolone",
    "cn_name": "N-(四氢-2-氧代-3-噻吩)-乙酰胺;",
    "alternate_name": "Acetamide, <em>N</em>-(tetrahydro-2-oxo-3-thienyl)-;Butyric acid, 2-acetamido-4-mercapto-, γ-(thio lactone);<em>N</em>-(Tetrahydro-2-oxo-3-thienyl)acetamide;<em>N</em>-Acetylhomocysteine thiolactone;Citiolone;2-Acetamido-4-mercaptobutyric acid thiolactone;α-Acetamido-γ-thiobutyrolactone;AHCTL;BO 714;Thioxidrene;<em>N</em>-Acetyl-<span class=\"text-smallcaps\">DL</span>-homocysteine thiolactone;<span class=\"text-smallcaps\">DL</span>-3-(Acetylamino)tetrahydro-2-thiophenone;<span class=\"text-smallcaps\">DL</span>-<em>N</em>-Acetylhomocysteine thiolactone;Citiolase;NSC 22878;<em>N</em>-(2-Oxotetrahydrothiophen-3-yl)acetamide",
    "duplicated_cas_no": "17896-21-8;34148-12-4",
    "SMILES": "N(C(C)=O)C1C(=O)SCC1",
    "meta_data": {
        "InChI": "InChI=1S/C6H9NO2S/c1-4(8)7-5-2-3-10-6(5)9/h5H,2-3H2,1H3,(H,7,8)",
        "InChIKey": null,
        "Canonical SMILES": "O=C(NC1C(=O)SCC1)C",
        "Molecular Formula": "C<sub>6</sub>H<sub>9</sub>NO<sub>2</sub>S",
        "Molecular Mass": "159.21",
        "Melting Point": "112 °C"
    }
}