{
    "cas_no": "306-07-0",
    "key_name": "Pargyline hydrochloride",
    "cn_name": "盐酸帕吉林;",
    "alternate_name": "Benzenemethanamine, <em>N</em>-methyl-<em>N</em>-2-propyn-1-yl-, hydrochloride (1:1);Benzylamine, <em>N</em>-methyl-<em>N</em>-2-propynyl-, hydrochloride;Benzenemethanamine, <em>N</em>-methyl-<em>N</em>-2-propynyl-, hydrochloride;<em>N</em>-Benzyl-<em>N</em>-methyl-2-propynylamine hydrochloride;Eutonyl;<em>N</em>-Methyl-<em>N</em>-(2-propynyl)benzylamine hydrochloride;Pargyline hydrochloride;Methylbenzylpropynylamine hydrochloride;Eutonyl-ten;NSC 43798;MO 911;A 19120",
    "duplicated_cas_no": "8055-70-7",
    "SMILES": "C(N(CC#C)C)C1=CC=CC=C1.Cl",
    "meta_data": {
        "InChI": "InChI=1S/C11H13N.ClH/c1-3-9-12(2)10-11-7-5-4-6-8-11;/h1,4-8H,9-10H2,2H3;1H",
        "InChIKey": null,
        "Canonical SMILES": "Cl.C#CCN(C)CC=1C=CC=CC1",
        "Molecular Formula": "C<sub>11</sub>H<sub>13</sub>N.ClH",
        "Molecular Mass": "",
        "Melting Point": "154-155 °C"
    }
}