{
    "cas_no": "31301-51-6",
    "key_name": "2-Chloro-5-fluoropyridine",
    "cn_name": "2-氯-5-氟吡啶;",
    "alternate_name": "Pyridine, 2-chloro-5-fluoro-;2-Chloro-5-fluoropyridine;6-Chloro-3-fluoropyridine;5-Fluoro-2-chloropyridine",
    "duplicated_cas_no": "",
    "SMILES": "FC=1C=CC(Cl)=NC1",
    "meta_data": {
        "InChI": "InChI=1S/C5H3ClFN/c6-5-2-1-4(7)3-8-5/h1-3H",
        "InChIKey": null,
        "Canonical SMILES": "FC1=CN=C(Cl)C=C1",
        "Molecular Formula": "C<sub>5</sub>H<sub>3</sub>ClFN",
        "Molecular Mass": "131.54",
        "Boiling Point": "74 °C @ Press: 50 mbar",
        "Melting Point": "23-24 °C"
    }
}