{
    "cas_no": "28342-33-8",
    "key_name": "Oxychelerythrine",
    "cn_name": null,
    "alternate_name": "[1,3]Benzodioxolo[5,6-<em>c</em>]phenanthridin-13(12<em>H</em>)-one, 1,2-dimethoxy-12-methyl-;Chelerythrine, 12,13-dihydro-13-oxo-;1,2-Dimethoxy-12-methyl[1,3]benzodioxolo[5,6-<em>c</em>]phenanthridin-13(12<em>H</em>)-one;Oxychelerythrine;Dihydrooxochelerythrine",
    "duplicated_cas_no": "99872-31-8;913293-82-0",
    "SMILES": "CN1C2=C(C=3C(C1=O)=C(OC)C(OC)=CC3)C=CC=4C2=CC5=C(C4)OCO5",
    "meta_data": {
        "InChI": "InChI=1S/C21H17NO5/c1-22-19-13(5-4-11-8-16-17(9-14(11)19)27-10-26-16)12-6-7-15(24-2)20(25-3)18(12)21(22)23/h4-9H,10H2,1-3H3",
        "InChIKey": null,
        "Canonical SMILES": "O=C1C=2C(OC)=C(OC)C=CC2C3=CC=C4C=C5OCOC5=CC4=C3N1C",
        "Molecular Formula": "C<sub>21</sub>H<sub>17</sub>NO<sub>5</sub>",
        "Molecular Mass": "363.36",
        "Melting Point": "194-197 °C"
    }
}