{
    "cas_no": "3600-87-1",
    "key_name": "Desglymidodrine",
    "cn_name": "2-氨基-1-(2,5-二甲氧基苯基)乙醇;",
    "alternate_name": "Benzenemethanol, α-(aminomethyl)-2,5-dimethoxy-;Benzyl alcohol, α-(aminomethyl)-2,5-dimethoxy-;α-(Aminomethyl)-2,5-dimethoxybenzenemethanol;ST 1059;1-(2,5-Dimethoxyphenyl)-2-aminoethanol;Desglymidodrine;Deglymidodrine;2-Amino-1-(2,5-dimethoxyphenyl)ethanol;2-Amino-1-(2′,5′-dimethoxyphenyl)ethanol;2-Amino-1-(2,5-dimethoxyphenyl)ethan-1-ol",
    "duplicated_cas_no": "52047-77-5",
    "SMILES": "C(CN)(O)C1=C(OC)C=CC(OC)=C1",
    "meta_data": {
        "InChI": "InChI=1S/C10H15NO3/c1-13-7-3-4-10(14-2)8(5-7)9(12)6-11/h3-5,9,12H,6,11H2,1-2H3",
        "InChIKey": null,
        "Canonical SMILES": "OC(C1=CC(OC)=CC=C1OC)CN",
        "Molecular Formula": "C<sub>10</sub>H<sub>15</sub>NO<sub>3</sub>",
        "Molecular Mass": "197.23",
        "Melting Point": "95-96 °C"
    }
}