{
    "cas_no": "699-30-9",
    "key_name": "3,3,4,4-Tetrafluorodihydro-2,5-furandione",
    "cn_name": null,
    "alternate_name": "2,5-Furandione, 3,3,4,4-tetrafluorodihydro-;Succinic anhydride, tetrafluoro-;3,3,4,4-Tetrafluorodihydro-2,5-furandione;Tetrafluorosuccinic anhydride;Perfluorosuccinic anhydride;Perfluorosuccinic acid anhydride;C 4ANHD;Tetrafluorofuran-2,5-dione;3,3,4,4-Tetrafluorodihydrofuran-2,5-dione;3,3,4,4-Tetrafluorodihydrofuran-2,5-dion;3,3,4,4-Tetrafluorooxolane-2,5-dione",
    "duplicated_cas_no": "",
    "SMILES": "FC1(F)C(F)(F)C(=O)OC1=O",
    "meta_data": {
        "InChI": "InChI=1S/C4F4O3/c5-3(6)1(9)11-2(10)4(3,7)8",
        "InChIKey": null,
        "Canonical SMILES": "O=C1OC(=O)C(F)(F)C1(F)F",
        "Molecular Formula": "C<sub>4</sub>F<sub>4</sub>O<sub>3</sub>",
        "Molecular Mass": "172.03",
        "Boiling Point": "54.5 °C",
        "Density": "1.6209 g/cm³ @ Temp: 20 °C"
    }
}