{
    "cas_no": "58626-38-3",
    "key_name": "<em>m</em>-Maleimidobenzoyl-<em>N</em>-hydroxysuccinimide",
    "cn_name": "3-马来酰亚胺基苯甲酸琥珀酰亚胺酯;",
    "alternate_name": "Benzoic acid, 3-(2,5-dihydro-2,5-dioxo-1<em>H</em>-pyrrol-1-yl)-, 2,5-dioxo-1-pyrrolidinyl ester;1<em>H</em>-Pyrrole-2,5-dione, 1-[3-[[(2,5-dioxo-1-pyrrolidinyl)oxy]carbonyl]phenyl]-;<em>m</em>-Maleimidobenzoic acid <em>N</em>-hydroxysuccinimide ester;<em>N</em>-(<em>m</em>-Maleimidobenzoyloxy)succinimide;<em>m</em>-Maleimidobenzoyl <em>N</em>-hydroxysuccinimide ester;<em>N</em>-(<em>m</em>-Maleimidobenzoyloxy)succinamide;<em>m</em>-Maleimidobenzoyl-<em>N</em>-hydroxysuccinimide;MMBS;MBS;<em>N</em>-(3-Maleimidobenzoyloxy)succinamide;NSC 294786;(2,5-Dioxopyrrolidin-1-yl) 3-(2,5-dioxopyrrol-1-yl)benzoate;<em>m</em>-Maleimidobenzoic acid succinimidyl ester",
    "duplicated_cas_no": "64712-18-1",
    "SMILES": "O=C1N(C2=CC(C(ON3C(=O)CCC3=O)=O)=CC=C2)C(=O)C=C1",
    "meta_data": {
        "InChI": "InChI=1S/C15H10N2O6/c18-11-4-5-12(19)16(11)10-3-1-2-9(8-10)15(22)23-17-13(20)6-7-14(17)21/h1-5,8H,6-7H2",
        "InChIKey": null,
        "Canonical SMILES": "O=C(ON1C(=O)CCC1=O)C2=CC=CC(=C2)N3C(=O)C=CC3=O",
        "Molecular Formula": "C<sub>15</sub>H<sub>10</sub>N<sub>2</sub>O<sub>6</sub>",
        "Molecular Mass": "314.25",
        "Melting Point": "175-178 °C"
    }
}