{
    "cas_no": "32017-76-8",
    "key_name": "2-(4-Bromophenyl)oxirane",
    "cn_name": "(±)-4-溴苯乙烯环氧化物;",
    "alternate_name": "Oxirane, 2-(4-bromophenyl)-;Oxirane, (4-bromophenyl)-;Benzene, 1-bromo-4-(epoxyethyl)-;Oxirane, (4-bromophenyl)-, (±)-;2-(4-Bromophenyl)oxirane;<em>p</em>-Bromostyrene oxide;4-Bromostyrene epoxide;4-Bromostyrene oxide;(<em>p</em>-Bromophenyl)oxirane;2-(<em>p</em>-Bromophenyl)oxirane;(4-Bromophenyl)oxirane;(±)-(4-Bromophenyl)oxirane",
    "duplicated_cas_no": "120786-16-5",
    "SMILES": "BrC1=CC=C(C2CO2)C=C1",
    "meta_data": {
        "InChI": "InChI=1S/C8H7BrO/c9-7-3-1-6(2-4-7)8-5-10-8/h1-4,8H,5H2",
        "InChIKey": null,
        "Canonical SMILES": "BrC1=CC=C(C=C1)C2OC2",
        "Molecular Formula": "C<sub>8</sub>H<sub>7</sub>BrO",
        "Molecular Mass": "199.04",
        "Boiling Point": "80.5 °C @ Press: 0.8 Torr",
        "Melting Point": "26 °C",
        "Density": "1.5039 g/cm³ @ Temp: 35 °C"
    }
}