{
    "cas_no": "15690-57-0",
    "key_name": "Enclomiphene",
    "cn_name": null,
    "alternate_name": "Ethanamine, 2-[4-[(1<em>E</em>)-2-chloro-1,2-diphenylethenyl]phenoxy]-<em>N</em>,<em>N</em>-diethyl-;Triethylamine, 2-[<em>p</em>-(2-chloro-1,2-diphenylvinyl)phenoxy]-, (<em>E</em>)-;Ethanamine, 2-[4-(2-chloro-1,2-diphenylethenyl)phenoxy]-<em>N</em>,<em>N</em>-diethyl-, (<em>E</em>)-;2-[4-[(1<em>E</em>)-2-Chloro-1,2-diphenylethenyl]phenoxy]-<em>N</em>,<em>N</em>-diethylethanamine;2-[<em>p</em>-(2-Chloro-<em>trans</em>-1,2-diphenylvinyl)phenoxy]triethylamine;Enclomiphene;ICI 46476;<em>trans</em>-Clomifene;<em>trans</em>-Clomiphene;(<em>E</em>)-Clomiphene;Enclomifene;Androxal",
    "duplicated_cas_no": "96189-16-1",
    "SMILES": "C(=C(/Cl)\\C1=CC=CC=C1)(\\C2=CC=C(OCCN(CC)CC)C=C2)/C3=CC=CC=C3",
    "meta_data": {
        "InChI": "InChI=1S/C26H28ClNO/c1-3-28(4-2)19-20-29-24-17-15-22(16-18-24)25(21-11-7-5-8-12-21)26(27)23-13-9-6-10-14-23/h5-18H,3-4,19-20H2,1-2H3/b26-25+",
        "InChIKey": null,
        "Canonical SMILES": "ClC(C=1C=CC=CC1)=C(C=2C=CC=CC2)C3=CC=C(OCCN(CC)CC)C=C3",
        "Molecular Formula": "C<sub>26</sub>H<sub>28</sub>ClNO",
        "Molecular Mass": "405.96",
        "Melting Point": "73-75 °C"
    }
}