{
    "cas_no": "7772-99-8",
    "key_name": "Stannous chloride",
    "cn_name": "二氯化锡;",
    "alternate_name": "Tin chloride (SnCl<sub>2</sub>);C.I. 77864;Stannous chloride;Tin dichloride;Tin(II) chloride;Stannous dichloride;Tin dichloride (SnCl<sub>2</sub>);Dichlorotin;Uniston CR-HT 200;Tin chloride;Niklad 261;Stannum dichloride",
    "duplicated_cas_no": "12306-28-4",
    "SMILES": "[Sn](Cl)Cl",
    "meta_data": {
        "InChI": "InChI=1S/2ClH.Sn/h2*1H;/q;;+2/p-2",
        "InChIKey": null,
        "Canonical SMILES": "Cl[Sn]Cl",
        "Molecular Formula": "Cl<sub>2</sub>Sn",
        "Molecular Mass": "",
        "Boiling Point": "623 °C",
        "Melting Point": "246 °C",
        "Density": "3.90 g/cm³"
    }
}