{
    "cas_no": "69581-33-5",
    "key_name": "Cyprofuram",
    "cn_name": "酯菌胺;2-[N-(3-氯苯基)环丙基酰胺]-γ-丁内酯;",
    "alternate_name": "Cyclopropanecarboxamide, <em>N</em>-(3-chlorophenyl)-<em>N</em>-(tetrahydro-2-oxo-3-furanyl)-;<em>N</em>-(3-Chlorophenyl)-<em>N</em>-(tetrahydro-2-oxo-3-furanyl)cyclopropanecarboxamide;Cyprofuram;Vinicur",
    "duplicated_cas_no": "84731-79-3",
    "SMILES": "N(C(=O)C1CC1)(C2=CC(Cl)=CC=C2)C3C(=O)OCC3",
    "meta_data": {
        "InChI": "InChI=1S/C14H14ClNO3/c15-10-2-1-3-11(8-10)16(13(17)9-4-5-9)12-6-7-19-14(12)18/h1-3,8-9,12H,4-7H2",
        "InChIKey": null,
        "Canonical SMILES": "O=C1OCCC1N(C=2C=CC=C(Cl)C2)C(=O)C3CC3",
        "Molecular Formula": "C<sub>14</sub>H<sub>14</sub>ClNO<sub>3</sub>",
        "Molecular Mass": "279.72",
        "Melting Point": "95 °C"
    }
}