{
    "cas_no": "2357-52-0",
    "key_name": "4-Bromo-2-fluoroanisole",
    "cn_name": "4-溴-2-氟苯甲醚;2-氟-4-溴苯甲醚;",
    "alternate_name": "Benzene, 4-bromo-2-fluoro-1-methoxy-;Anisole, 4-bromo-2-fluoro-;4-Bromo-2-fluoro-1-methoxybenzene;4-Bromo-2-fluoroanisole;2-Fluoro-4-bromoanisole;3-Fluoro-4-methoxybromobenzene;1-Bromo-3-fluoro-4-methoxybenzene;NSC 10329;4-Bromo-2-fluoro-1-(methyloxy)benzene;4-Methoxy-3-fluoro-1-bromobenzene;2-Fluoro-4-Bromo Anisol",
    "duplicated_cas_no": "",
    "SMILES": "O(C)C1=C(F)C=C(Br)C=C1",
    "meta_data": {
        "InChI": "InChI=1S/C7H6BrFO/c1-10-7-3-2-5(8)4-6(7)9/h2-4H,1H3",
        "InChIKey": null,
        "Canonical SMILES": "FC1=CC(Br)=CC=C1OC",
        "Molecular Formula": "C<sub>7</sub>H<sub>6</sub>BrFO",
        "Molecular Mass": "205.02",
        "Boiling Point": "96-96.5 °C",
        "Melting Point": "16 °C"
    }
}