{
    "cas_no": "2700-47-2",
    "key_name": "1-(6-Methoxy-2-naphthalenyl)-1-propanone",
    "cn_name": null,
    "alternate_name": "1-Propanone, 1-(6-methoxy-2-naphthalenyl)-;2′-Propionaphthone, 6′-methoxy-;1-(6-Methoxy-2-naphthalenyl)-1-propanone;6-Methoxy-2-propionylnaphthalene;1-(6-Methoxy-2-naphthyl)-1-propanone;2-Methoxy-6-propionylnaphthalene;6′-Methoxy-2′-propionaphthone;2-Propionyl-6-methoxynaphthalene;Promen;Ethyl 6-methoxy-2-naphthyl ketone;6-Methoxynaphth-2-yl ethyl ketone",
    "duplicated_cas_no": "",
    "SMILES": "C(CC)(=O)C1=CC2=C(C=C(OC)C=C2)C=C1",
    "meta_data": {
        "InChI": "InChI=1S/C14H14O2/c1-3-14(15)12-5-4-11-9-13(16-2)7-6-10(11)8-12/h4-9H,3H2,1-2H3",
        "InChIKey": null,
        "Canonical SMILES": "O=C(C1=CC=C2C=C(OC)C=CC2=C1)CC",
        "Molecular Formula": "C<sub>14</sub>H<sub>14</sub>O<sub>2</sub>",
        "Molecular Mass": "214.26",
        "Boiling Point": "180-185 °C @ Press: 0.3 Torr",
        "Melting Point": "109 °C"
    }
}