{
    "cas_no": "112-76-5",
    "key_name": "Stearoyl chloride",
    "cn_name": "硬酯酰氯;十八酰氯;十八烷酰氯;十八碳酰氯;",
    "alternate_name": "Octadecanoyl chloride;Stearoyl chloride;Stearic acid chloride;Stearic chloride;Stearyl chloride;Octadecanoic acid chloride;Octadecyloyl chloride;Stearyl acid chloride",
    "duplicated_cas_no": "",
    "SMILES": "C(CCCCCCCCCCC)CCCCCC(Cl)=O",
    "meta_data": {
        "InChI": "InChI=1S/C18H35ClO/c1-2-3-4-5-6-7-8-9-10-11-12-13-14-15-16-17-18(19)20/h2-17H2,1H3",
        "InChIKey": null,
        "Canonical SMILES": "O=C(Cl)CCCCCCCCCCCCCCCCC",
        "Molecular Formula": "C<sub>18</sub>H<sub>35</sub>ClO",
        "Molecular Mass": "302.92",
        "Boiling Point": "215 °C @ Press: 15 Torr",
        "Melting Point": "23 °C"
    }
}