{
    "cas_no": "423165-13-3",
    "key_name": "(3-<em>exo</em>)-3-[3-Methyl-5-(1-methylethyl)-4<em>H</em>-1,2,4-triazol-4-yl]-8-(phenylmethyl)-8-azabicyclo[3.2.1]octane",
    "cn_name": null,
    "alternate_name": "8-Azabicyclo[3.2.1]octane, 3-[3-methyl-5-(1-methylethyl)-4<em>H</em>-1,2,4-triazol-4-yl]-8-(phenylmethyl)-, (3-<em>exo</em>)-;(3-<em>exo</em>)-3-[3-Methyl-5-(1-methylethyl)-4<em>H</em>-1,2,4-triazol-4-yl]-8-(phenylmethyl)-8-azabicyclo[3.2.1]octane",
    "duplicated_cas_no": "",
    "SMILES": "C(C)(C)C=1N(C(C)=NN1)[C@H]2C[C@]3(N(CC4=CC=CC=C4)[C@@](C2)(CC3)[H])[H]",
    "meta_data": {
        "InChI": "InChI=1/C20H28N4/c1-14(2)20-22-21-15(3)24(20)19-11-17-9-10-18(12-19)23(17)13-16-7-5-4-6-8-16/h4-8,14,17-19H,9-13H2,1-3H3/t17-,18+,19-",
        "InChIKey": null,
        "Canonical SMILES": "N=1N=C(N(C1C)C2CC3N(CC=4C=CC=CC4)C(CC3)C2)C(C)C",
        "Molecular Formula": "C<sub>20</sub>H<sub>28</sub>N<sub>4</sub>",
        "Molecular Mass": "324.46",
        "Melting Point": "148.9 °C"
    }
}