{
    "cas_no": "11088-09-8",
    "key_name": "Wilforine",
    "cn_name": null,
    "alternate_name": "8,11-Epoxy-9,12-ethano-11,15-methano-5<em>H</em>,11<em>H</em>-[1,9]dioxacyclooctadecino[4,3-<em>b</em>]pyridine-5,17(18<em>H</em>)-dione, 10,13,22,23-tetrakis(acetyloxy)-12-[(acetyloxy)methyl]-14-(benzoyloxy)-7,8,9,10,12,13,14,15,19,20-decahydro-21-hydroxy-8,18,21-trimethyl-, (8<em>R</em>,9<em>R</em>,10<em>R</em>,11<em>S</em>,12<em>S</em>,13<em>R</em>,14<em>R</em>,15<em>S</em>,18<em>S</em>,21<em>S</em>,22<em>S</em>,23<em>R</em>)-;Wilforine;Evonimine, 8-(acetyloxy)-<em>O</em><sup>2</sup>-benzoyl-<em>O</em><sup>2</sup>-deacetyl-8-deoxo-, (8α)-;(8<em>R</em>,9<em>R</em>,10<em>R</em>,11<em>S</em>,12<em>S</em>,13<em>R</em>,14<em>R</em>,15<em>S</em>,18<em>S</em>,21<em>S</em>,22<em>S</em>,23<em>R</em>)-10,13,22,23-Tetrakis(acetyloxy)-12-[(acetyloxy)methyl]-14-(benzoyloxy)-7,8,9,10,12,13,14,15,19,20-decahydro-21-hydroxy-8,18,21-trimethyl-8,11-epoxy-9,12-ethano-11,15-methano-5<em>H</em>,11<em>H</em>-[1,9]dioxacyclooctadecino[4,3-<em>b</em>]pyridine-5,17(18<em>H</em>)-dione;8,11-Epoxy-9,12-ethano-11,15-methano-5<em>H</em>,11<em>H</em>-[1,9]dioxacyclooctadecino[4,3-<em>b</em>]pyridine-5,17(18<em>H</em>)-dione, 10,13,22,23-tetrakis(acetyloxy)-12-[(acetyloxy)methyl]-14-(benzoyloxy)-7,8,9,10,12,13,14,15,19,20-decahydro-21-hydroxy-8,18,21-trimethyl-, [8<em>R</em>-(8<em>R</em>*,9<em>R</em>*,10<em>R</em>*,11<em>S</em>*,12<em>S</em>*,13<em>R</em>*,14<em>R</em>*,15<em>S</em>*,18<em>S</em>*,21<em>S</em>*,22<em>S</em>*,23<em>R</em>*)]-;26-Deoxywilfordine",
    "duplicated_cas_no": "",
    "SMILES": "C(OC(C)=O)[C@]12[C@@]34[C@H](OC(C)=O)[C@]([C@@](C)(O3)COC(=O)C=5C(CC[C@H](C)C(=O)O[C@]([C@]4(C)O)([C@H](OC(=O)C6=CC=CC=C6)[C@@H]1OC(C)=O)[H])=NC=CC5)([C@@H](OC(C)=O)[C@H]2OC(C)=O)[H]",
    "meta_data": {
        "InChI": "InChI=1S/C43H49NO18/c1-21-16-17-29-28(15-12-18-44-29)39(52)55-19-40(7)30-31(56-23(3)46)35(58-25(5)48)42(20-54-22(2)45)36(59-26(6)49)32(60-38(51)27-13-10-9-11-14-27)34(61-37(21)50)41(8,53)43(42,62-40)33(30)57-24(4)47/h9-15,18,21,30-36,53H,16-17,19-20H2,1-8H3/t21-,30+,31+,32-,33+,34-,35+,36-,40-,41-,42+,43-/m0/s1",
        "InChIKey": null,
        "Canonical SMILES": "O=C1OCC2(OC34C(OC(=O)C)C2C(OC(=O)C)C(OC(=O)C)C4(COC(=O)C)C(OC(=O)C)C(OC(=O)C=5C=CC=CC5)C(OC(=O)C(C)CCC6=NC=CC=C16)C3(O)C)C",
        "Molecular Formula": "C<sub>43</sub>H<sub>49</sub>NO<sub>18</sub>",
        "Molecular Mass": "867.85",
        "Melting Point": "158-163 °C"
    }
}