{
    "cas_no": "529-49-7",
    "key_name": "1,3,7-Trihydroxyxanthone",
    "cn_name": null,
    "alternate_name": "9<em>H</em>-Xanthen-9-one, 1,3,7-trihydroxy-;Xanthen-9-one, 1,3,7-trihydroxy-;Gentisein;1,3,7-Trihydroxy-9<em>H</em>-xanthen-9-one;1,3,7-Trihydroxyxanthone;NSC 329491;1,3,7-Trihydroxyxanthen-9-one",
    "duplicated_cas_no": "",
    "SMILES": "O=C1C=2C(OC=3C1=CC(O)=CC3)=CC(O)=CC2O",
    "meta_data": {
        "InChI": "InChI=1S/C13H8O5/c14-6-1-2-10-8(3-6)13(17)12-9(16)4-7(15)5-11(12)18-10/h1-5,14-16H",
        "InChIKey": null,
        "Canonical SMILES": "O=C1C2=CC(O)=CC=C2OC=3C=C(O)C=C(O)C13",
        "Molecular Formula": "C<sub>13</sub>H<sub>8</sub>O<sub>5</sub>",
        "Molecular Mass": "244.20",
        "Melting Point": "314-315 °C"
    }
}