{
    "cas_no": "57-00-1",
    "key_name": "Creatine",
    "cn_name": null,
    "alternate_name": "Glycine, <em>N</em>-(aminoiminomethyl)-<em>N</em>-methyl-;Creatine;<em>N</em>-(Aminoiminomethyl)-<em>N</em>-methylglycine;<em>N</em>-Methyl-<em>N</em>-guanylglycine;Methylguanidoacetic acid;Phosphagen;NSC 8752;Cosmocair C 100;Tego Cosmo C 100;Neotine;Kre-Alkalyn;[<em>N</em>-(Amidino)-<em>N</em>-methylamino]acetic acid;2-(1-Methylguanidino)acetic acid;(<em>N</em>-Methyl-guanidino)-acetic acid;2-[(C-Azaniumylcarbonimidoyl)-methylamino]acetate;2-(<em>N</em>-Methylcarbamimidamido)acetic acid;MeSH ID: D003401",
    "duplicated_cas_no": "2087491-49-2",
    "SMILES": "N(CC(O)=O)(C(=N)N)C",
    "meta_data": {
        "InChI": "InChI=1S/C4H9N3O2/c1-7(4(5)6)2-3(8)9/h2H2,1H3,(H3,5,6)(H,8,9)",
        "InChIKey": null,
        "Canonical SMILES": "O=C(O)CN(C(=N)N)C",
        "Molecular Formula": "C<sub>4</sub>H<sub>9</sub>N<sub>3</sub>O<sub>2</sub>",
        "Molecular Mass": "131.13",
        "Melting Point": "303 °C (decomp)"
    }
}