{
    "cas_no": "631-71-0",
    "key_name": "Ethyl abietate",
    "cn_name": null,
    "alternate_name": "1-Phenanthrenecarboxylic acid, 1,2,3,4,4a,4b,5,6,10,10a-decahydro-1,4a-dimethyl-7-(1-methylethyl)-, ethyl ester, (1<em>R</em>,4a<em>R</em>,4b<em>R</em>,10a<em>R</em>)-;Podocarpa-7,13-dien-15-oic acid, 13-isopropyl-, ethyl ester;Abietic acid, ethyl ester;1-Phenanthrenecarboxylic acid, 1,2,3,4,4a,4b,5,6,10,10a-decahydro-1,4a-dimethyl-7-(1-methylethyl)-, ethyl ester, [1<em>R</em>-(1α,4aβ,4bα,10aα)]-;Ethyl abietate",
    "duplicated_cas_no": "",
    "SMILES": "C[C@@]12[C@]([C@@](C(OCC)=O)(C)CCC1)(CC=C3[C@@]2(CCC(C(C)C)=C3)[H])[H]",
    "meta_data": {
        "InChI": "InChI=1S/C22H34O2/c1-6-24-20(23)22(5)13-7-12-21(4)18-10-8-16(15(2)3)14-17(18)9-11-19(21)22/h9,14-15,18-19H,6-8,10-13H2,1-5H3/t18-,19+,21+,22+/m0/s1",
        "InChIKey": null,
        "Canonical SMILES": "O=C(OCC)C1(C)CCCC2(C)C3C(C=C(CC3)C(C)C)=CCC12",
        "Molecular Formula": "C<sub>22</sub>H<sub>34</sub>O<sub>2</sub>",
        "Molecular Mass": "330.50",
        "Melting Point": "66-67 °C"
    }
}