{
    "cas_no": "36450-02-9",
    "key_name": "6β-Hydroxystigmast-4-en-3-one",
    "cn_name": null,
    "alternate_name": "Stigmast-4-en-3-one, 6-hydroxy-, (6β)-;(6β)-6-Hydroxystigmast-4-en-3-one;Stigmast-4-en-6β-ol-3-one;6β-Hydroxy-4-stigmasten-3-one;(24<em>R</em>)-6β-Hydroxy-24-ethylcholest-4-en-3-one;6β-Hydroxystigmast-4-en-3-one;(24<em>R</em>)-6β-Hydroxystigmast-4-en-3-one;6β-Hydroxysitostenone;Stigmasta-4-en-6β-ol-3-one",
    "duplicated_cas_no": "",
    "SMILES": "C[C@@]12[C@@]3([C@]([C@]4([C@](C)(CC3)[C@@]([C@@H](CC[C@H](C(C)C)CC)C)(CC4)[H])[H])(C[C@@H](O)C1=CC(=O)CC2)[H])[H]",
    "meta_data": {
        "InChI": "InChI=1S/C29H48O2/c1-7-20(18(2)3)9-8-19(4)23-10-11-24-22-17-27(31)26-16-21(30)12-14-29(26,6)25(22)13-15-28(23,24)5/h16,18-20,22-25,27,31H,7-15,17H2,1-6H3/t19-,20-,22+,23-,24+,25+,27-,28-,29-/m1/s1",
        "InChIKey": null,
        "Canonical SMILES": "O=C1C=C2C(O)CC3C(CCC4(C)C(CCC34)C(C)CCC(CC)C(C)C)C2(C)CC1",
        "Molecular Formula": "C<sub>29</sub>H<sub>48</sub>O<sub>2</sub>",
        "Molecular Mass": "428.69",
        "Melting Point": "192-194 °C"
    }
}