{
    "cas_no": "39635-11-5",
    "key_name": "3,4-Dihydroxybenzoic acid hydrazide",
    "cn_name": null,
    "alternate_name": "Benzoic acid, 3,4-dihydroxy-, hydrazide;Protocatechuic acid, hydrazide;3,4-Dihydroxybenzoic acid hydrazide;3,4-Dihydroxybenzoylhydrazine;3,4-Dihydroxybenzoyl hydrazide;3,4-Dihydroxybenzohydrazide",
    "duplicated_cas_no": "141992-42-9",
    "SMILES": "C(NN)(=O)C1=CC(O)=C(O)C=C1",
    "meta_data": {
        "InChI": "InChI=1S/C7H8N2O3/c8-9-7(12)4-1-2-5(10)6(11)3-4/h1-3,10-11H,8H2,(H,9,12)",
        "InChIKey": null,
        "Canonical SMILES": "O=C(NN)C1=CC=C(O)C(O)=C1",
        "Molecular Formula": "C<sub>7</sub>H<sub>8</sub>N<sub>2</sub>O<sub>3</sub>",
        "Molecular Mass": "168.15",
        "Melting Point": "260 °C (decomp)"
    }
}