{
    "cas_no": "104-40-5",
    "key_name": "4-Nonylphenol",
    "cn_name": "4-壬基苯酚;",
    "alternate_name": "Phenol, 4-nonyl-;Phenol, <em>p</em>-nonyl-;4-Nonylphenol;<em>p</em>-Nonylphenol;4-<em>n</em>-Nonyl phenol;<em>p</em>-<em>n</em>-Nonylphenol;<em>p</em>-NP",
    "duplicated_cas_no": "29832-11-9",
    "SMILES": "C(CCCCCCCC)C1=CC=C(O)C=C1",
    "meta_data": {
        "InChI": "InChI=1S/C15H24O/c1-2-3-4-5-6-7-8-9-14-10-12-15(16)13-11-14/h10-13,16H,2-9H2,1H3",
        "InChIKey": null,
        "Canonical SMILES": "OC1=CC=C(C=C1)CCCCCCCCC",
        "Molecular Formula": "C<sub>15</sub>H<sub>24</sub>O",
        "Molecular Mass": "220.35",
        "Boiling Point": "180-181 °C",
        "Melting Point": "42 °C",
        "Density": "0.9273 g/cm³ @ Temp: 20 °C"
    }
}