{
    "cas_no": "101-60-0",
    "key_name": "Porphyrin",
    "cn_name": null,
    "alternate_name": "21<em>H</em>,23<em>H</em>-Porphine;Porphine;Porphin;Porphyrin;21,22,23,24-Tetraazapentacyclo[16.2.1.1<sup>3,6</sup>.1<sup>8,11</sup>.1<sup>13,16</sup>]tetracosa-1,3,5,7,9,11(23),12,14,16,18(21),19-undecaene",
    "duplicated_cas_no": "681295-24-9",
    "SMILES": "C1=2C=C3N=C(C=C3)C=C4NC(=CC5=NC(=CC(N1)=CC2)C=C5)C=C4",
    "meta_data": {
        "InChI": "InChI=1S/C20H14N4/c1-2-14-10-16-5-6-18(23-16)12-20-8-7-19(24-20)11-17-4-3-15(22-17)9-13(1)21-14/h1-12,21,24H/b13-9-,14-10-,15-9?,16-10?,17-11-,18-12-,19-11?,20-12?",
        "InChIKey": null,
        "Canonical SMILES": "N1=C2C=CC1=CC3=CC=C(C=C4N=C(C=C4)C=C5C=CC(=C2)N5)N3",
        "Molecular Formula": "C<sub>20</sub>H<sub>14</sub>N<sub>4</sub>",
        "Molecular Mass": "310.35",
        "Melting Point": "360 °C",
        "Density": "1.58 g/cm³"
    }
}