{
    "cas_no": "591-95-7",
    "key_name": "1,2-Pentadiene",
    "cn_name": "1,2-戊二烯;戊二烯;乙基丙二烯;",
    "alternate_name": "1,2-Pentadiene;1-Methyl-2,3-butadiene;Ethylallene",
    "duplicated_cas_no": "44211-89-4",
    "SMILES": "C(CC)=C=C",
    "meta_data": {
        "InChI": "InChI=1S/C5H8/c1-3-5-4-2/h5H,1,4H2,2H3",
        "InChIKey": null,
        "Canonical SMILES": "C(=C)=CCC",
        "Molecular Formula": "C<sub>5</sub>H<sub>8</sub>",
        "Molecular Mass": "68.12",
        "Boiling Point": "44.9 °C",
        "Melting Point": "-137.3 °C",
        "Density": "0.689 g/cm³ @ Temp: 20 °C"
    }
}