{
    "cas_no": "287714-41-4",
    "key_name": "Rosuvastatin",
    "cn_name": "罗伐他汀;罗素他汀;罗苏伐他汀;7-[4-(4-氟苯基)-6-异丙基-2-(甲基-甲磺酰-氨基)-嘧啶-5-基]-3,5-二羟基庚-6;",
    "alternate_name": "6-Heptenoic acid, 7-[4-(4-fluorophenyl)-6-(1-methylethyl)-2-[methyl(methylsulfonyl)amino]-5-pyrimidinyl]-3,5-dihydroxy-, (3<em>R</em>,5<em>S</em>,6<em>E</em>)-;(3<em>R</em>,5<em>S</em>,6<em>E</em>)-7-[4-(4-Fluorophenyl)-6-(1-methylethyl)-2-[methyl(methylsulfonyl)amino]-5-pyrimidinyl]-3,5-dihydroxy-6-heptenoic acid;Rosuvastatin;ZD 4522;(<em>E</em>)-(3<em>R</em>,5<em>S</em>)-7-[4-(4-Fluorophenyl)-6-isopropyl-2-[(methylsulfonyl)(methyl)amino]pyrimidin-5-yl]-3,5-dihydroxyhept-6-enoic acid;X-Plended;(3R,5S,6E)-7-[4-(4-Fluorophenyl)-6-isopropyl-2-[methyl(methylsulfonyl)amino]pyrimidin-5-yl]-3,5-dihydroxy-6-heptenoic acid;AZD-4522;AZD4522;AZD 4522",
    "duplicated_cas_no": "1354641-86-3;2882065-96-3",
    "SMILES": "C(=C/[C@H](C[C@H](CC(O)=O)O)O)\\C=1C(=NC(N(S(C)(=O)=O)C)=NC1C(C)C)C2=CC=C(F)C=C2",
    "meta_data": {
        "InChI": "InChI=1S/C22H28FN3O6S/c1-13(2)20-18(10-9-16(27)11-17(28)12-19(29)30)21(14-5-7-15(23)8-6-14)25-22(24-20)26(3)33(4,31)32/h5-10,13,16-17,27-28H,11-12H2,1-4H3,(H,29,30)/b10-9+/t16-,17-/m1/s1",
        "InChIKey": null,
        "Canonical SMILES": "O=C(O)CC(O)CC(O)C=CC=1C(=NC(=NC1C(C)C)N(C)S(=O)(=O)C)C=2C=CC(F)=CC2",
        "Molecular Formula": "C<sub>22</sub>H<sub>28</sub>FN<sub>3</sub>O<sub>6</sub>S",
        "Molecular Mass": "481.54",
        "Melting Point": "161.9 °C"
    }
}