{
    "cas_no": "1942-45-6",
    "key_name": "4-Octyne",
    "cn_name": "4-辛炔;",
    "alternate_name": "4-Octyne;Dipropylacetylene;1,2-Dipropylacetylene;Dipropylethyne",
    "duplicated_cas_no": "1402855-94-0",
    "SMILES": "C(#CCCC)CCC",
    "meta_data": {
        "InChI": "InChI=1S/C8H14/c1-3-5-7-8-6-4-2/h3-6H2,1-2H3",
        "InChIKey": null,
        "Canonical SMILES": "C(#CCCC)CCC",
        "Molecular Formula": "C<sub>8</sub>H<sub>14</sub>",
        "Molecular Mass": "110.20",
        "Boiling Point": "131.6 °C",
        "Melting Point": "-101 °C",
        "Density": "0.7521 g/cm³ @ Temp: 20 °C"
    }
}