{
    "cas_no": "3739-38-6",
    "key_name": "3-Phenoxybenzoic acid",
    "cn_name": "3-苯氧基苯甲酸;间苯氧基苯甲酸;",
    "alternate_name": "Benzoic acid, 3-phenoxy-;Benzoic acid, <em>m</em>-phenoxy-;3-Phenoxybenzoic acid;<em>m</em>-Phenoxybenzoic acid;<em>m</em>-(Phenyloxy)benzoic acid;3-PBA",
    "duplicated_cas_no": "",
    "SMILES": "O(C1=CC(C(O)=O)=CC=C1)C2=CC=CC=C2",
    "meta_data": {
        "InChI": "InChI=1S/C13H10O3/c14-13(15)10-5-4-8-12(9-10)16-11-6-2-1-3-7-11/h1-9H,(H,14,15)",
        "InChIKey": null,
        "Canonical SMILES": "O=C(O)C=1C=CC=C(OC=2C=CC=CC2)C1",
        "Molecular Formula": "C<sub>13</sub>H<sub>10</sub>O<sub>3</sub>",
        "Molecular Mass": "214.22",
        "Melting Point": "149-150 °C"
    }
}