{
    "cas_no": "463-11-6",
    "key_name": "1-Fluorooctane",
    "cn_name": "1-氟辛烷;",
    "alternate_name": "Octane, 1-fluoro-;1-Fluorooctane;Octyl fluoride;<em>n</em>-Octyl fluoride;1-Octyl fluoride;NSC 62037",
    "duplicated_cas_no": "",
    "SMILES": "C(CCCC)CCCF",
    "meta_data": {
        "InChI": "InChI=1S/C8H17F/c1-2-3-4-5-6-7-8-9/h2-8H2,1H3",
        "InChIKey": null,
        "Canonical SMILES": "FCCCCCCCC",
        "Molecular Formula": "C<sub>8</sub>H<sub>17</sub>F",
        "Molecular Mass": "132.22",
        "Boiling Point": "142.4 °C",
        "Density": "0.798 g/cm³ @ Temp: 0 °C"
    }
}