{
    "cas_no": "5434-20-8",
    "key_name": "3-Aminophthalic acid",
    "cn_name": "3-氨基邻苯二甲酸;3-氨基苯二甲酸;",
    "alternate_name": "1,2-Benzenedicarboxylic acid, 3-amino-;Phthalic acid, 3-amino-;3-Amino-1,2-benzenedicarboxylic acid;3-Aminophthalic acid;<em>o</em>-Aminophthalic acid;NSC 15741",
    "duplicated_cas_no": "",
    "SMILES": "C(O)(=O)C1=C(C(O)=O)C=CC=C1N",
    "meta_data": {
        "InChI": "InChI=1S/C8H7NO4/c9-5-3-1-2-4(7(10)11)6(5)8(12)13/h1-3H,9H2,(H,10,11)(H,12,13)",
        "InChIKey": null,
        "Canonical SMILES": "O=C(O)C=1C=CC=C(N)C1C(=O)O",
        "Molecular Formula": "C<sub>8</sub>H<sub>7</sub>NO<sub>4</sub>",
        "Molecular Mass": "181.15",
        "Melting Point": "185-186 °C"
    }
}