{
    "cas_no": "759-05-7",
    "key_name": "3-Methyl-2-oxobutanoic acid",
    "cn_name": "3-甲基-2-氧丁酸;",
    "alternate_name": "Butanoic acid, 3-methyl-2-oxo-;Butyric acid, 3-methyl-2-oxo-;3-Methyl-2-oxobutanoic acid;α-Ketoisovaleric acid;2-Ketoisovaleric acid;α-Oxoisovaleric acid;2-Oxoisovaleric acid;Dimethylpyruvic acid;α-Oxo-β-methylbutyric acid;2-Oxo-3-methylbutanoic acid;2-Oxo-3-methylbutyric acid;α-<em>keto</em>-β-Methylbutyric acid;α-<em>keto</em>-Isovaleric acid;3-Methyl-2-oxobutyric acid;Ketovaline;3-Methyl-2-oxobutyrate;Isopropylglyoxylic acid;2-<em>keto</em>-3-Methylbutyric acid;2-<em>keto</em>-Isovaleric acid",
    "duplicated_cas_no": "",
    "SMILES": "C(C(C)C)(C(O)=O)=O",
    "meta_data": {
        "InChI": "InChI=1S/C5H8O3/c1-3(2)4(6)5(7)8/h3H,1-2H3,(H,7,8)",
        "InChIKey": null,
        "Canonical SMILES": "O=C(O)C(=O)C(C)C",
        "Molecular Formula": "C<sub>5</sub>H<sub>8</sub>O<sub>3</sub>",
        "Molecular Mass": "116.12",
        "Boiling Point": "170.5 °C",
        "Melting Point": "31.5 °C"
    }
}