{
    "cas_no": "121268-17-5",
    "key_name": "Alendronate monosodium trihydrate",
    "cn_name": "阿仑膦酸钠;",
    "alternate_name": "Phosphonic acid, <em>P</em>,<em>P</em>′-(4-amino-1-hydroxybutylidene)bis-, sodium salt, hydrate (1:1:3);Phosphonic acid, (4-amino-1-hydroxybutylidene)bis-, monosodium salt, trihydrate;Alendronate sodium hydrate;Sodium alendronate hydrate;Alendronate monosodium trihydrate;Alendronic acid monosodium salt trihydrate;Monosodium alendronate trihydrate;Teiroc;Sodium alendronate trihydrate",
    "duplicated_cas_no": "1159813-02-1",
    "SMILES": "C(P(=O)(O)O)(P(=O)(O)O)(CCCN)O.[Na].O",
    "meta_data": {
        "InChI": "InChI=1S/C4H13NO7P2.Na.3H2O/c5-3-1-2-4(6,13(7,8)9)14(10,11)12;;;;/h6H,1-3,5H2,(H2,7,8,9)(H2,10,11,12);;3*1H2",
        "InChIKey": null,
        "Canonical SMILES": "[Na].O=P(O)(O)C(O)(CCCN)P(=O)(O)O.O",
        "Molecular Formula": "C<sub>4</sub>H<sub>13</sub>NO<sub>7</sub>P<sub>2</sub>.3H<sub>2</sub>O.Na",
        "Molecular Mass": "",
        "Melting Point": "252 °C"
    }
}