{
    "cas_no": "123-01-3",
    "key_name": "Dodecylbenzene",
    "cn_name": "十二烷基苯;",
    "alternate_name": "Benzene, dodecyl-;Dodecane, 1-phenyl-;Dodecylbenzene;1-Phenyldodecane;Detergent Alkylate No. 2;<em>n</em>-Dodecylbenzene;Nalkylene 500;Alkylate P 1;1-Phenyl-<em>n</em>-dodecane;1-Dodecylbenzene;NSC 102805;NSC 4584;Laurylbenzene",
    "duplicated_cas_no": "28776-38-7",
    "SMILES": "C(CCCCCCCCCCC)C1=CC=CC=C1",
    "meta_data": {
        "InChI": "InChI=1S/C18H30/c1-2-3-4-5-6-7-8-9-10-12-15-18-16-13-11-14-17-18/h11,13-14,16-17H,2-10,12,15H2,1H3",
        "InChIKey": null,
        "Canonical SMILES": "C=1C=CC(=CC1)CCCCCCCCCCCC",
        "Molecular Formula": "C<sub>18</sub>H<sub>30</sub>",
        "Molecular Mass": "246.43",
        "Boiling Point": "328 °C",
        "Melting Point": "3 °C",
        "Density": "0.8851 g/cm³ @ Temp: 20 °C"
    }
}