{
    "cas_no": "147-58-0",
    "key_name": "<em>N</em>-(2-Iodobenzoyl)glycine",
    "cn_name": "2-碘马尿酸;邻碘马尿酸;",
    "alternate_name": "Glycine, <em>N</em>-(2-iodobenzoyl)-;Hippuric acid, <em>o</em>-iodo-;<em>N</em>-(2-Iodobenzoyl)glycine;<em>o</em>-Iodohippuric acid;<em>N</em>-(<em>o</em>-Iodobenzoyl)glycine;2-Iodohippuric acid;2-[(2-Iodobenzoyl)amino]acetic acid;2-(2-Iodobenzamido)acetic acid;2-[(2-Iodophenyl)formamido]acetic acid",
    "duplicated_cas_no": "1195556-63-8",
    "SMILES": "C(NCC(O)=O)(=O)C1=C(I)C=CC=C1",
    "meta_data": {
        "InChI": "InChI=1S/C9H8INO3/c10-7-4-2-1-3-6(7)9(14)11-5-8(12)13/h1-4H,5H2,(H,11,14)(H,12,13)",
        "InChIKey": null,
        "Canonical SMILES": "O=C(O)CNC(=O)C=1C=CC=CC1I",
        "Molecular Formula": "C<sub>9</sub>H<sub>8</sub>INO<sub>3</sub>",
        "Molecular Mass": "305.07",
        "Melting Point": "170 °C"
    }
}