{
    "cas_no": "536-57-2",
    "key_name": "<em>p</em>-Toluenesulfinic acid",
    "cn_name": "对甲苯亚磺酸;",
    "alternate_name": "Benzenesulfinic acid, 4-methyl-;<em>p</em>-Toluenesulfinic acid;4-Methylbenzenesulfinic acid;<em>p</em>-Tolylsulfinic acid;4-Toluenesulfinic acid;<em>p</em>-Methylbenzenesulfinic acid;<em>p</em>-Methylphenylsulfinic acid;1-Methyl-4-sulfonylbenzene",
    "duplicated_cas_no": "37643-57-5;68716-72-3;75910-55-3;99717-60-9;109100-36-9;112639-34-6;113659-81-7;171898-89-8;1081750-25-5;1189246-53-4",
    "SMILES": "S(=O)(O)C1=CC=C(C)C=C1",
    "meta_data": {
        "InChI": "InChI=1S/C7H8O2S/c1-6-2-4-7(5-3-6)10(8)9/h2-5H,1H3,(H,8,9)",
        "InChIKey": null,
        "Canonical SMILES": "O=S(O)C1=CC=C(C=C1)C",
        "Molecular Formula": "C<sub>7</sub>H<sub>8</sub>O<sub>2</sub>S",
        "Molecular Mass": "156.20",
        "Boiling Point": "88-88.5 °C @ Press: 16 Torr",
        "Melting Point": "86.5 °C",
        "Density": "1.058 g/cm³ @ Temp: 13 °C"
    }
}