{
    "cas_no": "1187595-85-2",
    "key_name": "2-[1-(Ethylsulfonyl)-3-azetidinylidene]acetonitrile",
    "cn_name": null,
    "alternate_name": "Acetonitrile, 2-[1-(ethylsulfonyl)-3-azetidinylidene]-;2-[1-(Ethylsulfonyl)-3-azetidinylidene]acetonitrile;[1-(Ethylsulfonyl)azetidin-3-ylidene]acetonitrile;2-[1-(Ethanesulfonyl)azetidin-3-ylidene]acetonitrile",
    "duplicated_cas_no": "",
    "SMILES": "S(CC)(=O)(=O)N1CC(=CC#N)C1",
    "meta_data": {
        "InChI": "InChI=1S/C7H10N2O2S/c1-2-12(10,11)9-5-7(6-9)3-4-8/h3H,2,5-6H2,1H3",
        "InChIKey": null,
        "Canonical SMILES": "N#CC=C1CN(C1)S(=O)(=O)CC",
        "Molecular Formula": "C<sub>7</sub>H<sub>10</sub>N<sub>2</sub>O<sub>2</sub>S",
        "Molecular Mass": "186.23",
        "Melting Point": "58-60 °C"
    }
}