{
    "cas_no": "5407-91-0",
    "key_name": "1,4-Diphenyl-1-butanone",
    "cn_name": "1,4-联苯基-1-丁酮;",
    "alternate_name": "1-Butanone, 1,4-diphenyl-;Butyrophenone, 4-phenyl-;1,4-Diphenyl-1-butanone;γ-Phenylbutyrophenone;1-Phenyl-3-benzoylpropane;4-Phenylbutyrophenone;Phenyl 3-phenylpropyl ketone;NSC 10735",
    "duplicated_cas_no": "",
    "SMILES": "C(CCCC1=CC=CC=C1)(=O)C2=CC=CC=C2",
    "meta_data": {
        "InChI": "InChI=1S/C16H16O/c17-16(15-11-5-2-6-12-15)13-7-10-14-8-3-1-4-9-14/h1-6,8-9,11-12H,7,10,13H2",
        "InChIKey": null,
        "Canonical SMILES": "O=C(C=1C=CC=CC1)CCCC=2C=CC=CC2",
        "Molecular Formula": "C<sub>16</sub>H<sub>16</sub>O",
        "Molecular Mass": "224.30",
        "Boiling Point": "200 °C @ Press: 18 Torr",
        "Melting Point": "53-55 °C"
    }
}