{
    "cas_no": "13621-25-5",
    "key_name": "3,4-Dihydro-5,7-dimethyl-1(2<em>H</em>)-naphthalenone",
    "cn_name": "5,7-二甲基-3,4-二氢-2H-1-萘酮;5,7-二甲基-1-四氢萘酮;",
    "alternate_name": "1(2<em>H</em>)-Naphthalenone, 3,4-dihydro-5,7-dimethyl-;3,4-Dihydro-5,7-dimethyl-1(2<em>H</em>)-naphthalenone;5,7-Dimethyl-1-tetralone;5,7-Dimethyl-1,2,3,4-tetrahydro-1-naphthalenone;5,7-Dimethyl-3,4-dihydro-2<em>H</em>-naphthalen-1-one;NSC 63113;5,7-Dimethyl-3,4-dihydronaphthalen-1(2<em>H</em>)-one",
    "duplicated_cas_no": "",
    "SMILES": "CC1=C2C(=CC(C)=C1)C(=O)CCC2",
    "meta_data": {
        "InChI": "InChI=1S/C12H14O/c1-8-6-9(2)10-4-3-5-12(13)11(10)7-8/h6-7H,3-5H2,1-2H3",
        "InChIKey": null,
        "Canonical SMILES": "O=C1C=2C=C(C=C(C2CCC1)C)C",
        "Molecular Formula": "C<sub>12</sub>H<sub>14</sub>O",
        "Molecular Mass": "174.24",
        "Boiling Point": "160 °C @ Press: 14 Torr",
        "Melting Point": "50 °C"
    }
}