{
    "cas_no": "92-06-8",
    "key_name": "<em>m</em>-Terphenyl",
    "cn_name": "间三联苯;1,3-二苯基苯;",
    "alternate_name": "1,1′:3′,1′′-Terphenyl;<em>m</em>-Terphenyl;Benzene, <em>m</em>-diphenyl-;<em>m</em>-Diphenylbenzene;Santowax M;<em>m</em>-Triphenyl;1,3-Terphenyl;1,1′-Biphenyl, 3-phenyl-;1,3-Diphenylbenzene;3-Phenyl-1,1′-biphenyl;G 340;NSC 6808;T 3009",
    "duplicated_cas_no": "",
    "SMILES": "C1(=CC(=CC=C1)C2=CC=CC=C2)C3=CC=CC=C3",
    "meta_data": {
        "InChI": "InChI=1S/C18H14/c1-3-8-15(9-4-1)17-12-7-13-18(14-17)16-10-5-2-6-11-16/h1-14H",
        "InChIKey": null,
        "Canonical SMILES": "C=1C=CC(=CC1)C=2C=CC=C(C2)C=3C=CC=CC3",
        "Molecular Formula": "C<sub>18</sub>H<sub>14</sub>",
        "Molecular Mass": "230.30",
        "Boiling Point": "363 °C @ Press: 760 Torr",
        "Melting Point": "87 °C",
        "Density": "1.2 g/cm³"
    }
}