{
    "cas_no": "19094-56-5",
    "key_name": "2-Chloro-5-iodobenzoic acid",
    "cn_name": "2-氯-5-碘苯甲酸;",
    "alternate_name": "Benzoic acid, 2-chloro-5-iodo-;2-Chloro-5-iodobenzoic acid;5-Iodo-2-chlorobenzoic acid;<em>B</em>-(2-Chloro-5-iodophenyl)boronic acid",
    "duplicated_cas_no": "1793005-88-5",
    "SMILES": "C(O)(=O)C1=C(Cl)C=CC(I)=C1",
    "meta_data": {
        "InChI": "InChI=1S/C7H4ClIO2/c8-6-2-1-4(9)3-5(6)7(10)11/h1-3H,(H,10,11)",
        "InChIKey": null,
        "Canonical SMILES": "O=C(O)C1=CC(I)=CC=C1Cl",
        "Molecular Formula": "C<sub>7</sub>H<sub>4</sub>ClIO<sub>2</sub>",
        "Molecular Mass": "282.46",
        "Melting Point": "155-156 °C"
    }
}