{
    "cas_no": "141-02-6",
    "key_name": "2-Ethylhexyl fumarate",
    "cn_name": "顺丁烯二酸二(2-乙基己)酯;",
    "alternate_name": "2-Butenedioic acid (2<em>E</em>)-, 1,4-bis(2-ethylhexyl) ester;Fumaric acid, bis(2-ethylhexyl) ester;2-Butenedioic acid (<em>E</em>)-, bis(2-ethylhexyl) ester;2-Butenedioic acid (2<em>E</em>)-, bis(2-ethylhexyl) ester;Bis(2-ethylhexyl) fumarate;Dioctyl fumarate;DOF;2-Ethylhexyl fumarate;RC Comonomer DOF;Maximol FOK 670;Di-2-ethylhexyl fumarate",
    "duplicated_cas_no": "15913-51-6",
    "SMILES": "C(COC(/C=C/C(OCC(CCCC)CC)=O)=O)(CCCC)CC",
    "meta_data": {
        "InChI": "InChI=1/C20H36O4/c1-5-9-11-17(7-3)15-23-19(21)13-14-20(22)24-16-18(8-4)12-10-6-2/h13-14,17-18H,5-12,15-16H2,1-4H3/b14-13+",
        "InChIKey": null,
        "Canonical SMILES": "O=C(OCC(CC)CCCC)C=CC(=O)OCC(CC)CCCC",
        "Molecular Formula": "C<sub>20</sub>H<sub>36</sub>O<sub>4</sub>",
        "Molecular Mass": "340.50",
        "Boiling Point": "180-188 °C @ Press: 5 Torr",
        "Density": "0.9398 g/cm³ @ Temp: 20 °C"
    }
}