{
    "cas_no": "22009-37-6",
    "key_name": "7-Methyl-1-tetralone",
    "cn_name": "7-甲基-3,4-二氢-2H-1-萘酮;7-甲基-1-四氢萘酮;",
    "alternate_name": "1(2<em>H</em>)-Naphthalenone, 3,4-dihydro-7-methyl-;3,4-Dihydro-7-methyl-1(2<em>H</em>)-naphthalenone;7-Methyl-1-tetralone;7-Methyltetralone;7-Methyl-α-tetralone;NSC 115847;7-Methyl-3,4-dihydronaphthalen-1(2<em>H</em>)-one;7-Methyltetralin-1-one",
    "duplicated_cas_no": "",
    "SMILES": "O=C1C=2C(=CC=C(C)C2)CCC1",
    "meta_data": {
        "InChI": "InChI=1S/C11H12O/c1-8-5-6-9-3-2-4-11(12)10(9)7-8/h5-7H,2-4H2,1H3",
        "InChIKey": null,
        "Canonical SMILES": "O=C1C2=CC(=CC=C2CCC1)C",
        "Molecular Formula": "C<sub>11</sub>H<sub>12</sub>O",
        "Molecular Mass": "160.21",
        "Boiling Point": "143-145 °C @ Press: 15 Torr",
        "Melting Point": "35-36 °C"
    }
}