{
    "cas_no": "1121-30-8",
    "key_name": "Pyrithione",
    "cn_name": "1-氧化-2-巯基吡啶;1-氧化-2-巯基吡啶;1-氧化-2-吡啶硫醇;",
    "alternate_name": "2(1<em>H</em>)-Pyridinethione, 1-hydroxy-;1-Hydroxy-2(1<em>H</em>)-pyridinethione;1-Hydroxy-2-pyridinethione;Omadine;PTO;<em>N</em>-Hydroxypyridine-2-thione;Pyrithione;<em>N</em>-Hydroxy-2-thiopyridone;<em>N</em>-Hydroxypyridine-2(1<em>H</em>)-thione;NSC 179790;1-Hydroxy-1<em>H</em>-pyridine-2-thione;1-Hydroxy-2-thiopyridinone;1-Hydroxy-1,2-dihydropyridine-2-thione",
    "duplicated_cas_no": "",
    "SMILES": "S=C1N(O)C=CC=C1",
    "meta_data": {
        "InChI": "InChI=1S/C5H5NOS/c7-6-4-2-1-3-5(6)8/h1-4,7H",
        "InChIKey": null,
        "Canonical SMILES": "S=C1C=CC=CN1O",
        "Molecular Formula": "C<sub>5</sub>H<sub>5</sub>NOS",
        "Molecular Mass": "127.16",
        "Melting Point": "68-70 °C"
    }
}