{
    "cas_no": "563-70-2",
    "key_name": "Bromonitromethane",
    "cn_name": "溴代硝基甲烷;",
    "alternate_name": "Methane, bromonitro-;Bromonitromethane;Nitrobromomethane;α-Bromonitromethane",
    "duplicated_cas_no": "",
    "SMILES": "N(CBr)(=O)=O",
    "meta_data": {
        "InChI": "InChI=1S/CH2BrNO2/c2-1-3(4)5/h1H2",
        "InChIKey": null,
        "Canonical SMILES": "O=N(=O)CBr",
        "Molecular Formula": "CH<sub>2</sub>BrNO<sub>2</sub>",
        "Molecular Mass": "139.94",
        "Boiling Point": "149 °C",
        "Melting Point": "-28 °C"
    }
}