{
    "cas_no": "3739-67-1",
    "key_name": "Bisphenol A diallyl ether",
    "cn_name": "双酚A双烯丙基醚;双酚A二烯丙基醚;",
    "alternate_name": "Benzene, 1,1′-(1-methylethylidene)bis[4-(2-propen-1-yloxy)-;Propane, 2,2-bis[<em>p</em>-(allyloxy)phenyl]-;Benzene, 1,1′-(1-methylethylidene)bis[4-(2-propenyloxy)-;1,1′-(1-Methylethylidene)bis[4-(2-propen-1-yloxy)benzene];2,2-Bis(4-allyloxyphenyl)propane;Bisphenol A diallyl ether;4,4′-Isopropylidenebis[(allyloxy)benzene];<em>O</em>,<em>O</em>-Diallylbisphenol A;Dial 1;Dial 2;4,4′-Isopropylidenediphenol diallyl ether;BPA-AE;NSC 404194;Homide 126A;912A;CM-BPAED;1-Prop-2-enoxy-4-[2-(4-prop-2-enoxyphenyl)propan-2-yl]benzene;Matrimid 2292;B 303589",
    "duplicated_cas_no": "",
    "SMILES": "C(C)(C)(C1=CC=C(OCC=C)C=C1)C2=CC=C(OCC=C)C=C2",
    "meta_data": {
        "InChI": "InChI=1S/C21H24O2/c1-5-15-22-19-11-7-17(8-12-19)21(3,4)18-9-13-20(14-10-18)23-16-6-2/h5-14H,1-2,15-16H2,3-4H3",
        "InChIKey": null,
        "Canonical SMILES": "O(C1=CC=C(C=C1)C(C2=CC=C(OCC=C)C=C2)(C)C)CC=C",
        "Molecular Formula": "C<sub>21</sub>H<sub>24</sub>O<sub>2</sub>",
        "Molecular Mass": "308.41",
        "Boiling Point": "125-180 °C",
        "Density": "1.043 g/cm³ @ Temp: 25 °C"
    }
}