{
    "cas_no": "765-43-5",
    "key_name": "Cyclopropyl methyl ketone",
    "cn_name": "环丙甲基酮;环丙基甲基酮;",
    "alternate_name": "Ethanone, 1-cyclopropyl-;Ketone, cyclopropyl methyl;1-Cyclopropylethanone;Cyclopropyl methyl ketone;Methyl cyclopropyl ketone;Acetylcyclopropane;NSC 1940;Cyclopropylethanone;1-Cyclopropylethan-1-one",
    "duplicated_cas_no": "",
    "SMILES": "C(C)(=O)C1CC1",
    "meta_data": {
        "InChI": "InChI=1S/C5H8O/c1-4(6)5-2-3-5/h5H,2-3H2,1H3",
        "InChIKey": null,
        "Canonical SMILES": "O=C(C)C1CC1",
        "Molecular Formula": "C<sub>5</sub>H<sub>8</sub>O",
        "Molecular Mass": "84.12",
        "Boiling Point": "111.3 °C",
        "Melting Point": "-68.3 °C",
        "Density": "0.8988 g/cm³ @ Temp: 20 °C"
    }
}