{
    "cas_no": "1629-58-9",
    "key_name": "1-Penten-3-one",
    "cn_name": "1-戊烯-3-酮;乙烯乙基甲酮;",
    "alternate_name": "1-Penten-3-one;Ethyl vinyl ketone;Vinyl ethyl ketone;4-Penten-3-one;NSC 81211",
    "duplicated_cas_no": "",
    "SMILES": "C(CC)(C=C)=O",
    "meta_data": {
        "InChI": "InChI=1S/C5H8O/c1-3-5(6)4-2/h3H,1,4H2,2H3",
        "InChIKey": null,
        "Canonical SMILES": "O=C(C=C)CC",
        "Molecular Formula": "C<sub>5</sub>H<sub>8</sub>O",
        "Molecular Mass": "84.12",
        "Boiling Point": "103 °C",
        "Melting Point": "59-61 °C",
        "Density": "0.9425 g/cm³ @ Temp: 0 °C"
    }
}