{
    "cas_no": "532-28-5",
    "key_name": "Mandelonitrile",
    "cn_name": null,
    "alternate_name": "Benzeneacetonitrile, α-hydroxy-;Mandelonitrile;α-Hydroxybenzeneacetonitrile;Phenylglycolonitrile;Mandelic acid nitrile;α-Cyanobenzyl alcohol;Benzaldehyde, cyanohydrin;α-Hydroxyphenylacetonitrile;2-Hydroxy-2-phenylacetonitrile;<em>dl</em>-Mandelonitrile;(±)-Mandelonitrile;(±)-α-Mandelonitrile;NSC 77668;α-Hydroxybenzyl cyanide;Alpha-hydroxy phenylacetonitrile",
    "duplicated_cas_no": "613-88-7",
    "SMILES": "C(C#N)(O)C1=CC=CC=C1",
    "meta_data": {
        "InChI": "InChI=1S/C8H7NO/c9-6-8(10)7-4-2-1-3-5-7/h1-5,8,10H",
        "InChIKey": null,
        "Canonical SMILES": "N#CC(O)C=1C=CC=CC1",
        "Molecular Formula": "C<sub>8</sub>H<sub>7</sub>NO",
        "Molecular Mass": "133.15",
        "Boiling Point": "98-102 °C @ Press: 12-14 Torr",
        "Melting Point": "-10 °C"
    }
}