{
    "cas_no": "7440-74-6",
    "key_name": "Indium",
    "cn_name": "铟;铟锭/按钮;",
    "alternate_name": "Indium;Indium element;INE 07PB;INE 06PB;MeSH ID: D007204",
    "duplicated_cas_no": "",
    "SMILES": "[In]",
    "meta_data": {
        "InChI": "InChI=1S/In",
        "InChIKey": null,
        "Canonical SMILES": "[In]",
        "Molecular Formula": "In",
        "Molecular Mass": "",
        "Boiling Point": "2072 °C",
        "Melting Point": "156.60 °C",
        "Density": "7.31 g/cm³ @ Temp: 20 °C"
    }
}