{
    "cas_no": "3982-87-4",
    "key_name": "Cyanex 471X",
    "cn_name": "三(2-甲基丙基)硫化膦;三(2-甲基丙基)硫化膦;",
    "alternate_name": "Phosphine sulfide, tris(2-methylpropyl)-;Phosphine sulfide, triisobutyl-;Tris(2-methylpropyl)phosphine sulfide;Triisobutylphosphine sulfide;Cyanex 471X;NSC 222464",
    "duplicated_cas_no": "119683-82-8",
    "SMILES": "P(CC(C)C)(CC(C)C)(CC(C)C)=S",
    "meta_data": {
        "InChI": "InChI=1S/C12H27PS/c1-10(2)7-13(14,8-11(3)4)9-12(5)6/h10-12H,7-9H2,1-6H3",
        "InChIKey": null,
        "Canonical SMILES": "S=P(CC(C)C)(CC(C)C)CC(C)C",
        "Molecular Formula": "C<sub>12</sub>H<sub>27</sub>PS",
        "Molecular Mass": "234.38",
        "Melting Point": "59-60 °C"
    }
}