{
    "cas_no": "7783-56-4",
    "key_name": "Trifluorostibine",
    "cn_name": "三氟化锑;氟化亚锑;",
    "alternate_name": "Stibine, trifluoro-;Antimony fluoride (SbF<sub>3</sub>);Trifluorostibine;Antimonous fluoride;Antimony trifluoride;Trifluoroantimony;Antimony(3+) fluoride;Antimony(III) fluoride",
    "duplicated_cas_no": "39357-86-3",
    "SMILES": "[Sb](F)(F)F",
    "meta_data": {
        "InChI": "InChI=1S/3FH.Sb/h3*1H;/q;;;+3/p-3",
        "InChIKey": null,
        "Canonical SMILES": "F[Sb](F)F",
        "Molecular Formula": "F<sub>3</sub>Sb",
        "Molecular Mass": "",
        "Boiling Point": "376 °C",
        "Melting Point": "292 °C",
        "Density": "4.379 g/cm³ @ Temp: 20.9 °C"
    }
}