{
    "cas_no": "99-58-1",
    "key_name": "3-Bromo-4-methoxybenzoic acid",
    "cn_name": "3-溴-4-甲氧基苯甲酸;",
    "alternate_name": "Benzoic acid, 3-bromo-4-methoxy-;<em>p</em>-Anisic acid, 3-bromo-;3-BromoAnisic acid;3-Bromo-4-methoxybenzoic acid;3-Bromo-<em>p</em>-anisic acid",
    "duplicated_cas_no": "",
    "SMILES": "C(O)(=O)C1=CC(Br)=C(OC)C=C1",
    "meta_data": {
        "InChI": "InChI=1S/C8H7BrO3/c1-12-7-3-2-5(8(10)11)4-6(7)9/h2-4H,1H3,(H,10,11)",
        "InChIKey": null,
        "Canonical SMILES": "O=C(O)C1=CC=C(OC)C(Br)=C1",
        "Molecular Formula": "C<sub>8</sub>H<sub>7</sub>BrO<sub>3</sub>",
        "Molecular Mass": "231.04",
        "Melting Point": "217-218 °C"
    }
}