{
    "cas_no": "90498-90-1",
    "key_name": "3,9-Bis[2-[3-(3-<em>tert</em>-butyl-4-hydroxy-5-methylphenyl)propionyloxy]-1,1-dimethylethyl]-2,4,8,10-tetraoxaspiro[5.5]undecane",
    "cn_name": "抗氧剂GA-80;3,9-双[1,1-二甲基-2-[(3-叔丁基-4-羟基-5-甲基苯基)丙酰氧基]乙基]-2,4,8,10-四氧杂螺[5.5]十;",
    "alternate_name": "Benzenepropanoic acid, 3-(1,1-dimethylethyl)-4-hydroxy-5-methyl-, 1,1′-[2,4,8,10-tetraoxaspiro[5.5]undecane-3,9-diylbis(2,2-dimethyl-2,1-ethanediyl)] ester;Benzenepropanoic acid, 3-(1,1-dimethylethyl)-4-hydroxy-5-methyl-, 2,4,8,10-tetraoxaspiro[5.5]undecane-3,9-diylbis(2,2-dimethyl-2,1-ethanediyl) ester;2,4,8,10-Tetraoxaspiro[5.5]undecane, benzenepropanoic acid deriv.;Sumilizer GA 80;Mark AO 80;3,9-Bis[1,1-dimethyl-2-[3-(3-<em>tert</em>-butyl-4-hydroxy-5-methylphenyl)propionyloxy]ethyl]-2,4,8,10-tetraoxaspiro[5.5]undecane;Sumilizer GA;ADK Stab AO 80;Sumilizer AG 80;3,9-Bis[1,1-dimethyl-2-[(3-<em>tert</em>-butyl-4-hydroxy-5-methylphenyl)propionyloxy]ethyl]-2,4,8,10-tetraoxaspiro[5.5]undecane;LX 802;AO 80;3,9-Bis[2-[3-(3-<em>tert</em>-butyl-4-hydroxy-5-methylphenyl)propionyloxy]-1,1-dimethylethyl]-2,4,8,10-tetraoxaspiro[5.5]undecane;ADK Stab LX 803A;Antioxidant AO 80;3,9-Bis[1,1-dimethyl-2-[β-(3-<em>tert</em>-butyl-4-hydroxy-5-methylphenyl)propionyloxy]ethyl]-2,4,8,10-tetraoxaspiro(5.5)undecane;(2,4,8,10-Tetraoxaspiro[5.5]undecane-3,9-diyl)bis(2,2-dimethyl-2,1-ethanediyl) bis[3-(3-<em>tert</em>-butyl-4-hydroxy-5-methylphenyl)propionate];Antioxidant GA 80;A 80;GA;GA 80;Adekastab AO 80;3-(1,1-Dimethylethyl)-4-hydroxy-5-methylbenzenepropanoic acid, 1,1′-[2,4,8,10-tetraoxaspiro[5.5]undecane-3,9-diylbis(2,2-dimethyl-2,1-ethanediyl)] ester;Antioxidant S 80;AO 20 (ester);AO 20",
    "duplicated_cas_no": "124673-78-5;127337-89-7;130203-95-1;133304-19-5;149845-26-1;273937-42-1;754992-72-8;1208115-22-3",
    "SMILES": "C(COC(CCC1=CC(C(C)(C)C)=C(O)C(C)=C1)=O)(C)(C)C2OCC3(COC(C(COC(CCC4=CC(C(C)(C)C)=C(O)C(C)=C4)=O)(C)C)OC3)CO2",
    "meta_data": {
        "InChI": "InChI=1S/C43H64O10/c1-27-17-29(19-31(35(27)46)39(3,4)5)13-15-33(44)48-21-41(9,10)37-50-23-43(24-51-37)25-52-38(53-26-43)42(11,12)22-49-34(45)16-14-30-18-28(2)36(47)32(20-30)40(6,7)8/h17-20,37-38,46-47H,13-16,21-26H2,1-12H3",
        "InChIKey": null,
        "Canonical SMILES": "O=C(OCC(C)(C)C1OCC2(CO1)COC(OC2)C(C)(C)COC(=O)CCC3=CC(=C(O)C(=C3)C(C)(C)C)C)CCC4=CC(=C(O)C(=C4)C(C)(C)C)C",
        "Molecular Formula": "C<sub>43</sub>H<sub>64</sub>O<sub>10</sub>",
        "Molecular Mass": "740.96",
        "Melting Point": "125 °C"
    }
}