{
    "cas_no": "620-95-1",
    "key_name": "3-Benzylpyridine",
    "cn_name": "3-苄基吡啶;3-苯基甲基吡啶;",
    "alternate_name": "Pyridine, 3-(phenylmethyl)-;Pyridine, 3-benzyl-;3-(Phenylmethyl)pyridine;3-Benzylpyridine;CDD 3515",
    "duplicated_cas_no": "",
    "SMILES": "C(C1=CC=CC=C1)C=2C=CC=NC2",
    "meta_data": {
        "InChI": "InChI=1S/C12H11N/c1-2-5-11(6-3-1)9-12-7-4-8-13-10-12/h1-8,10H,9H2",
        "InChIKey": null,
        "Canonical SMILES": "N=1C=CC=C(C1)CC=2C=CC=CC2",
        "Molecular Formula": "C<sub>12</sub>H<sub>11</sub>N",
        "Molecular Mass": "169.22",
        "Boiling Point": "287 °C",
        "Melting Point": "34 °C"
    }
}