{
    "cas_no": "60560-33-0",
    "key_name": "Pinacidil",
    "cn_name": null,
    "alternate_name": "Guanidine, <em>N</em>-cyano-<em>N</em>′-4-pyridinyl-<em>N</em>′′-(1,2,2-trimethylpropyl)-;<em>N</em>-Cyano-<em>N</em>′-4-pyridinyl-<em>N</em>′′-(1,2,2-trimethylpropyl)guanidine;P 1134;Pinacidil;S 1230;(±)-Pinacidil;(<em>R</em>,<em>S</em>)-Pinacidil;Pindac;1-(3,3-Dimethylbutan-2-yl)-2-cyano-3-(pyridin-4-yl)guanidine;MeSH ID: D020110",
    "duplicated_cas_no": "113563-69-2",
    "SMILES": "C(=NC=1C=CN=CC1)(NC(C(C)(C)C)C)NC#N",
    "meta_data": {
        "InChI": "InChI=1S/C13H19N5/c1-10(13(2,3)4)17-12(16-9-14)18-11-5-7-15-8-6-11/h5-8,10H,1-4H3,(H2,15,16,17,18)",
        "InChIKey": null,
        "Canonical SMILES": "N#CNC(=NC=1C=CN=CC1)NC(C)C(C)(C)C",
        "Molecular Formula": "C<sub>13</sub>H<sub>19</sub>N<sub>5</sub>",
        "Molecular Mass": "245.32",
        "Melting Point": "110-114 °C"
    }
}