{
    "cas_no": "127373-66-4",
    "key_name": "Sivelestat",
    "cn_name": "西维来司他;N-[2-[[[4-(2,2-二甲基-1-氧代丙氧基)苯基]磺酰]氨基]苯甲酰]-(S)-甘氨酸;",
    "alternate_name": "Propanoic acid, 2,2-dimethyl-, 4-[[[2-[[(carboxymethyl)amino]carbonyl]phenyl]amino]sulfonyl]phenyl ester;Glycine, <em>N</em>-[2-[[[4-(2,2-dimethyl-1-oxopropoxy)phenyl]sulfonyl]amino]benzoyl]-;ONO 5046;EI 546;Sivelestat;LY 544349;2-(2-(4-(Pivaloyloxy)phenylsulfonamido)benzamido)acetic acid",
    "duplicated_cas_no": "",
    "SMILES": "C(NCC(O)=O)(=O)C1=C(NS(=O)(=O)C2=CC=C(OC(C(C)(C)C)=O)C=C2)C=CC=C1",
    "meta_data": {
        "InChI": "InChI=1S/C20H22N2O7S/c1-20(2,3)19(26)29-13-8-10-14(11-9-13)30(27,28)22-16-7-5-4-6-15(16)18(25)21-12-17(23)24/h4-11,22H,12H2,1-3H3,(H,21,25)(H,23,24)",
        "InChIKey": null,
        "Canonical SMILES": "O=C(O)CNC(=O)C=1C=CC=CC1NS(=O)(=O)C2=CC=C(OC(=O)C(C)(C)C)C=C2",
        "Molecular Formula": "C<sub>20</sub>H<sub>22</sub>N<sub>2</sub>O<sub>7</sub>S",
        "Molecular Mass": "434.46",
        "Melting Point": "213-217 °C"
    }
}