{
    "cas_no": "14348-75-5",
    "key_name": "2,7-Dibromo-9-fluorenone",
    "cn_name": "2,7-二溴-9-芴酮;",
    "alternate_name": "9<em>H</em>-Fluoren-9-one, 2,7-dibromo-;Fluoren-9-one, 2,7-dibromo-;2,7-Dibromo-9<em>H</em>-fluoren-9-one;2,7-Dibromofluorenone;2,7-Dibromo-9-fluorenone;NSC 90687",
    "duplicated_cas_no": "",
    "SMILES": "O=C1C=2C(C=3C1=CC(Br)=CC3)=CC=C(Br)C2",
    "meta_data": {
        "InChI": "InChI=1S/C13H6Br2O/c14-7-1-3-9-10-4-2-8(15)6-12(10)13(16)11(9)5-7/h1-6H",
        "InChIKey": null,
        "Canonical SMILES": "O=C1C=2C=C(Br)C=CC2C3=CC=C(Br)C=C13",
        "Molecular Formula": "C<sub>13</sub>H<sub>6</sub>Br<sub>2</sub>O",
        "Molecular Mass": "337.99",
        "Melting Point": "210 °C"
    }
}