{
    "cas_no": "542-11-0",
    "key_name": "Benzenamine, hydrobromide (1:1)",
    "cn_name": null,
    "alternate_name": "Benzenamine, hydrobromide (1:1);Aniline, hydrobromide;Benzenamine, hydrobromide;Aniline bromide;Anilinium bromide;Phenylammonium bromide",
    "duplicated_cas_no": "",
    "SMILES": "NC1=CC=CC=C1.Br",
    "meta_data": {
        "InChI": "InChI=1S/C6H7N.BrH/c7-6-4-2-1-3-5-6;/h1-5H,7H2;1H",
        "InChIKey": null,
        "Canonical SMILES": "Br.NC=1C=CC=CC1",
        "Molecular Formula": "C<sub>6</sub>H<sub>7</sub>N.BrH",
        "Molecular Mass": "",
        "Melting Point": "283 °C (decomp)"
    }
}