{
    "cas_no": "20243-59-8",
    "key_name": "Luteolin 7-methyl ether",
    "cn_name": null,
    "alternate_name": "4<em>H</em>-1-Benzopyran-4-one, 2-(3,4-dihydroxyphenyl)-5-hydroxy-7-methoxy-;Flavone, 3′,4′,5-trihydroxy-7-methoxy-;2-(3,4-Dihydroxyphenyl)-5-hydroxy-7-methoxy-4<em>H</em>-1-benzopyran-4-one;7-<em>O</em>-Methylluteolin;Luteolin 7-methyl ether;3′,4′,5-Trihydroxy-7-methoxyflavone;3′-Hydroxygenkwanin;5,3′,4′-Trihydroxy-7-methoxyflavone;Hydroxygenkwanin;2-(3,4-Dihydroxyphenyl)-5-hydroxy-7-methoxychromen-4-one;2-(3,4-Dihydroxyphenyl)-5-hydroxy-7-methoxy-4<em>H</em>-chromen-4-one",
    "duplicated_cas_no": "",
    "SMILES": "O=C1C=2C(OC(=C1)C3=CC(O)=C(O)C=C3)=CC(OC)=CC2O",
    "meta_data": {
        "InChI": "InChI=1S/C16H12O6/c1-21-9-5-12(19)16-13(20)7-14(22-15(16)6-9)8-2-3-10(17)11(18)4-8/h2-7,17-19H,1H3",
        "InChIKey": null,
        "Canonical SMILES": "O=C1C=C(OC2=CC(OC)=CC(O)=C12)C=3C=CC(O)=C(O)C3",
        "Molecular Formula": "C<sub>16</sub>H<sub>12</sub>O<sub>6</sub>",
        "Molecular Mass": "300.26",
        "Melting Point": "258-260 °C"
    }
}