{
    "cas_no": "4068-76-2",
    "key_name": "5-Bromo-2-hydroxybenzoic acid methyl ester",
    "cn_name": "5-溴水杨酸甲酯;",
    "alternate_name": "Benzoic acid, 5-bromo-2-hydroxy-, methyl ester;Salicylic acid, 5-bromo-, methyl ester;Methyl 5-bromosalicylate;Methyl 5-bromo-2-hydroxybenzoate;4-Bromo-2-(methoxycarbonyl)phenol;Methyl 2-hydroxy-5-bromobenzoate;2-Hydroxy-5-bromobenzoic acid methyl ester;NSC 30264;5-Bromo-2-hydroxybenzoic acid methyl ester",
    "duplicated_cas_no": "",
    "SMILES": "C(OC)(=O)C1=C(O)C=CC(Br)=C1",
    "meta_data": {
        "InChI": "InChI=1S/C8H7BrO3/c1-12-8(11)6-4-5(9)2-3-7(6)10/h2-4,10H,1H3",
        "InChIKey": null,
        "Canonical SMILES": "O=C(OC)C1=CC(Br)=CC=C1O",
        "Molecular Formula": "C<sub>8</sub>H<sub>7</sub>BrO<sub>3</sub>",
        "Molecular Mass": "231.04",
        "Melting Point": "37-38 °C"
    }
}