{
    "cas_no": "4707-47-5",
    "key_name": "Atraric acid",
    "cn_name": "2,4-二羟基-3,6-二甲基苯甲酸甲酯;",
    "alternate_name": "Benzoic acid, 2,4-dihydroxy-3,6-dimethyl-, methyl ester;β-Resorcylic acid, 3,6-dimethyl-, methyl ester;Atraric acid;Methyl β-orcinolcarboxylate;Methyl 3,6-dimethyl-β-resorcylate;Veramoss;Methyl 2,4-dihydroxy-3,6-dimethylbenzoate;Evernyl;Methyl 3,6-dimethyl-2,4-dihydroxybenzoate;Moss Synth;Everniate;Oakmoss synthetic;LRG 201;Methyl atrarate;Methyl β-orsellinate;Mousse cristal;2,4-Dihydroxy-3,6-dimethyl-benzoic acid methyl ester",
    "duplicated_cas_no": "136218-95-6",
    "SMILES": "C(OC)(=O)C1=C(O)C(C)=C(O)C=C1C",
    "meta_data": {
        "InChI": "InChI=1S/C10H12O4/c1-5-4-7(11)6(2)9(12)8(5)10(13)14-3/h4,11-12H,1-3H3",
        "InChIKey": null,
        "Canonical SMILES": "O=C(OC)C1=C(O)C(=C(O)C=C1C)C",
        "Molecular Formula": "C<sub>10</sub>H<sub>12</sub>O<sub>4</sub>",
        "Molecular Mass": "196.20",
        "Melting Point": "143 °C"
    }
}