{
    "cas_no": "636-70-4",
    "key_name": "Triethylammonium bromide",
    "cn_name": "三乙胺氢溴酸盐;三乙胺氢溴酸盐;",
    "alternate_name": "Ethanamine, <em>N</em>,<em>N</em>-diethyl-, hydrobromide (1:1);Triethylamine, hydrobromide;Ethanamine, <em>N</em>,<em>N</em>-diethyl-, hydrobromide;Triethylammonium bromide",
    "duplicated_cas_no": "",
    "SMILES": "N(CC)(CC)CC.Br",
    "meta_data": {
        "InChI": "InChI=1S/C6H15N.BrH/c1-4-7(5-2)6-3;/h4-6H2,1-3H3;1H",
        "InChIKey": null,
        "Canonical SMILES": "Br.N(CC)(CC)CC",
        "Molecular Formula": "C<sub>6</sub>H<sub>15</sub>N.BrH",
        "Molecular Mass": "",
        "Melting Point": "246 °C"
    }
}