{
    "cas_no": "7755-92-2",
    "key_name": "1-Piperazinecarboxaldehyde",
    "cn_name": "1-甲醛哌嗪;1-哌嗪甲醛;N-甲酰基哌嗪;",
    "alternate_name": "1-Piperazinecarboxaldehyde;<em>N</em>-Formylpiperazine;1-Formylpiperazine;4-Formylpiperazine;Piperazine-1-formamide;1-Formylpyrazine;NSC 511082;1-Piperazinecarbaldehyde",
    "duplicated_cas_no": "",
    "SMILES": "C(=O)N1CCNCC1",
    "meta_data": {
        "InChI": "InChI=1S/C5H10N2O/c8-5-7-3-1-6-2-4-7/h5-6H,1-4H2",
        "InChIKey": null,
        "Canonical SMILES": "O=CN1CCNCC1",
        "Molecular Formula": "C<sub>5</sub>H<sub>10</sub>N<sub>2</sub>O",
        "Molecular Mass": "114.15",
        "Boiling Point": "115-120 °C @ Press: 4 Torr",
        "Melting Point": "205-207 °C"
    }
}