{
    "cas_no": "99395-88-7",
    "key_name": "(<em>S</em>)-(+)-4-Phenyl-2-oxazolidinone",
    "cn_name": null,
    "alternate_name": "2-Oxazolidinone, 4-phenyl-, (4<em>S</em>)-;2-Oxazolidinone, 4-phenyl-, (<em>S</em>)-;(4<em>S</em>)-4-Phenyl-2-oxazolidinone;(<em>S</em>)-4-Phenyl-2-oxazolidinone;(<em>S</em>)-(+)-4-Phenyl-2-oxazolidinone;(+)-4-Phenyl-2-oxazolidinone;(<em>S</em>)-POZ;(<em>S</em>)-4-Phenyl-1,3-oxazolidin-2-one;(4S)-4-Phenyloxazolidin-2-one;(S)-POZ;(4<em>S</em>)-4-Phenyl-1,3-oxazolidin-2-one",
    "duplicated_cas_no": "175208-54-5",
    "SMILES": "O=C1N[C@H](CO1)C2=CC=CC=C2",
    "meta_data": {
        "InChI": "InChI=1S/C9H9NO2/c11-9-10-8(6-12-9)7-4-2-1-3-5-7/h1-5,8H,6H2,(H,10,11)/t8-/m1/s1",
        "InChIKey": null,
        "Canonical SMILES": "O=C1OCC(N1)C=2C=CC=CC2",
        "Molecular Formula": "C<sub>9</sub>H<sub>9</sub>NO<sub>2</sub>",
        "Molecular Mass": "163.17",
        "Melting Point": "124-126 °C"
    }
}