{
    "cas_no": "168080-49-7",
    "key_name": "2-Chloro-4-[(5-fluoro-2-methylbenzoyl)amino]benzoic acid",
    "cn_name": null,
    "alternate_name": "Benzoic acid, 2-chloro-4-[(5-fluoro-2-methylbenzoyl)amino]-;2-Chloro-4-[(5-fluoro-2-methylbenzoyl)amino]benzoic acid;2-Chloro-4-(5-fluoro-2-methylbenzamido)benzoic acid;2-Chloro-4-(5-fluoro-2-methylbenzamido)benzoicacid",
    "duplicated_cas_no": "",
    "SMILES": "N(C(=O)C1=C(C)C=CC(F)=C1)C2=CC(Cl)=C(C(O)=O)C=C2",
    "meta_data": {
        "InChI": "InChI=1S/C15H11ClFNO3/c1-8-2-3-9(17)6-12(8)14(19)18-10-4-5-11(15(20)21)13(16)7-10/h2-7H,1H3,(H,18,19)(H,20,21)",
        "InChIKey": null,
        "Canonical SMILES": "O=C(O)C1=CC=C(C=C1Cl)NC(=O)C2=CC(F)=CC=C2C",
        "Molecular Formula": "C<sub>15</sub>H<sub>11</sub>ClFNO<sub>3</sub>",
        "Molecular Mass": "307.70",
        "Melting Point": "247-249 °C"
    }
}