{
    "cas_no": "504-08-5",
    "key_name": "1,3,5-Triazine-2,4-diamine",
    "cn_name": "2,4-二氨基-1,3,5-三嗪;1,3,5-三嗪-2,6-二胺;",
    "alternate_name": "1,3,5-Triazine-2,4-diamine;<em>s</em>-Triazine, 2,4-diamino-;Formoguanamine;Guanamine;2,6-Diamino-<em>s</em>-triazine;2,4-Diamino-<em>s</em>-triazine;4,6-Diamino-<em>s</em>-triazine;Diamino-<em>s</em>-triazine;2,4-Diamino-1,3,5-triazine;2,6-Diamino-1,3,5-triazine;NSC 251;D 2227",
    "duplicated_cas_no": "31757-38-7",
    "SMILES": "NC=1N=C(N)N=CN1",
    "meta_data": {
        "InChI": "InChI=1S/C3H5N5/c4-2-6-1-7-3(5)8-2/h1H,(H4,4,5,6,7,8)",
        "InChIKey": null,
        "Canonical SMILES": "N=1C=NC(=NC1N)N",
        "Molecular Formula": "C<sub>3</sub>H<sub>5</sub>N<sub>5</sub>",
        "Molecular Mass": "111.11",
        "Melting Point": "&gt;300 °C"
    }
}