{
    "cas_no": "7758-94-3",
    "key_name": "Ferrous chloride",
    "cn_name": "氯化亚铁;二氯化铁;",
    "alternate_name": "Iron chloride (FeCl<sub>2</sub>);Ferrous chloride;Iron dichloride;Iron protochloride;Iron(2+) chloride;Iron(II) chloride;Ferrous dichloride;Ferro 66;Iron(II) chloride (FeCl<sub>2</sub>);Ferrous chloride (FeCl<sub>2</sub>);Ferrocat FI;Ferrosol 9;Bellair green;PIX 211;Glycine, <em>N</em>,<em>N</em>′-1,2-ethanediylbis[<em>N</em>-(carboxymethyl)-, compd. with iron chloride (FeCl<sub>2</sub>) (1:1)",
    "duplicated_cas_no": "612850-32-5;2260985-77-9;2417040-39-0",
    "SMILES": "[Fe](Cl)Cl",
    "meta_data": {
        "InChI": "InChI=1S/2ClH.Fe/h2*1H;/q;;+2/p-2",
        "InChIKey": null,
        "Canonical SMILES": "Cl[Fe]Cl",
        "Molecular Formula": "Cl<sub>2</sub>Fe",
        "Molecular Mass": "",
        "Boiling Point": "1023 °C",
        "Melting Point": "674 °C",
        "Density": "3.16 g/cm³ @ Temp: 25 °C"
    }
}