{
    "cas_no": "139755-99-0",
    "key_name": "1-Methyl-3-propyl-1<em>H</em>-pyrazole-5-carboxylic acid",
    "cn_name": null,
    "alternate_name": "1<em>H</em>-Pyrazole-5-carboxylic acid, 1-methyl-3-propyl-;1-Methyl-3-propyl-1<em>H</em>-pyrazole-5-carboxylic acid;1-Methyl-3-propylpyrazole-5-carboxylic acid;2-Methyl-5-propyl-2<em>H</em>-pyrazole-3-carboxylic acid;2-Methyl-5-propylpyrazole-3-carboxylic acid",
    "duplicated_cas_no": "",
    "SMILES": "C(O)(=O)C1=CC(CCC)=NN1C",
    "meta_data": {
        "InChI": "InChI=1S/C8H12N2O2/c1-3-4-6-5-7(8(11)12)10(2)9-6/h5H,3-4H2,1-2H3,(H,11,12)",
        "InChIKey": null,
        "Canonical SMILES": "O=C(O)C1=CC(=NN1C)CCC",
        "Molecular Formula": "C<sub>8</sub>H<sub>12</sub>N<sub>2</sub>O<sub>2</sub>",
        "Molecular Mass": "168.19",
        "Melting Point": "150-154 °C"
    }
}