{
    "cas_no": "35354-74-6",
    "key_name": "Honokiol",
    "cn_name": "厚朴酚;和厚朴酚;3\",5-二-2-丙烯基-1,1\"-联苯-2,4\"-二酚;",
    "alternate_name": "[1,1′-Biphenyl]-2,4′-diol, 3′,5-di-2-propen-1-yl-;[1,1′-Biphenyl]-2,4′-diol, 3′,5-di-2-propenyl-;3′,5-Di-2-propen-1-yl[1,1′-biphenyl]-2,4′-diol;Honokiol;3′,5-Diallyl-2,4′-biphenyldiol;NSC 293100;2-[4-Hydroxy-3-(2-propenyl)phenyl]-4-(2-propenyl)phenol;2-Allyl-4-(5-allyl-2-hydroxyphenyl)phenol",
    "duplicated_cas_no": "",
    "SMILES": "OC=1C(=CC(CC=C)=CC1)C2=CC(CC=C)=C(O)C=C2",
    "meta_data": {
        "InChI": "InChI=1S/C18H18O2/c1-3-5-13-7-9-18(20)16(11-13)14-8-10-17(19)15(12-14)6-4-2/h3-4,7-12,19-20H,1-2,5-6H2",
        "InChIKey": null,
        "Canonical SMILES": "OC1=CC=C(C=C1C=2C=CC(O)=C(C2)CC=C)CC=C",
        "Molecular Formula": "C<sub>18</sub>H<sub>18</sub>O<sub>2</sub>",
        "Molecular Mass": "266.33",
        "Melting Point": "87.5 °C"
    }
}