{
    "cas_no": "103577-40-8",
    "key_name": "Lansoprazole sulfide",
    "cn_name": "2-[3-甲基-4-(2,2,2-三氟乙氧基)-2-吡啶]甲基硫基-1H-苯并咪唑;",
    "alternate_name": "1<em>H</em>-Benzimidazole, 2-[[[3-methyl-4-(2,2,2-trifluoroethoxy)-2-pyridinyl]methyl]thio]-;2-[[[3-Methyl-4-(2,2,2-trifluoroethoxy)-2-pyridinyl]methyl]thio]-1<em>H</em>-benzimidazole;AG 1777;H 225/18;K 1252;2-[[[3-Methyl-4-(2,2,2-trifluoroethoxy)-2-pyridyl]methyl]thio]-1<em>H</em>-benzimidazole;2-[[[3-Methyl-4-(2,2,2-trifluoroethoxy)-2-pyridyl]methyl]thio]benzimidazole;Lansoprazole sulfide;2-[[3-Methyl-4-(2,2,2-trifluoroethoxy)-2-pyridinyl]thio]-1<em>H</em>-benzimidazole;2-[[(3-Methyl-4-(2,2,2-trifluoroethoxy)pyridin-2-yl)methyl]thio]-1<em>H</em>-benzo[<em>d</em>]imidazole;2-[[3-Methyl-4-(2,2,2-trifluoroethoxy)pyridin-2-yl]methylsulfanyl]-1<em>H</em>-benzimidazole",
    "duplicated_cas_no": "666727-70-4;909251-56-5",
    "SMILES": "S(CC1=C(C)C(OCC(F)(F)F)=CC=N1)C=2NC=3C(N2)=CC=CC3",
    "meta_data": {
        "InChI": "InChI=1S/C16H14F3N3OS/c1-10-13(20-7-6-14(10)23-9-16(17,18)19)8-24-15-21-11-4-2-3-5-12(11)22-15/h2-7H,8-9H2,1H3,(H,21,22)",
        "InChIKey": null,
        "Canonical SMILES": "FC(F)(F)COC=1C=CN=C(C1C)CSC2=NC=3C=CC=CC3N2",
        "Molecular Formula": "C<sub>16</sub>H<sub>14</sub>F<sub>3</sub>N<sub>3</sub>OS",
        "Molecular Mass": "353.36",
        "Melting Point": "111-116 °C"
    }
}