{
    "cas_no": "5469-66-9",
    "key_name": "1,3-Propanediol ditosylate",
    "cn_name": "二对甲苯磺酸1,3-丙二酯;α-乙酰氨基肉桂酸;N-乙酰基脱氢苯丙氨酸;Trimethylene glycol di-p-tosylate;",
    "alternate_name": "1,3-Propanediol, 1,3-bis(4-methylbenzenesulfonate);1,3-Propanediol, bis(4-methylbenzenesulfonate);1,3-Propanediol, di-<em>p</em>-toluenesulfonate;Propylene glycol 1,3-ditosylate;1,3-Di(tosyloxy)propane;1,3-Propanediol ditosylate;1,3-Bis(tosyloxy)propane;1,3-Bis(4-toluenesulfonyloxy)propane;1,3-Propanediol di-<em>p</em>-tosylate;Trimethylenebis(<em>p</em>-toluenesulfonate);1,3-Bis(toluenesulfonyloxy)propane;1,3-(Di-<em>p</em>-tosyl)propane;Propane-1,3-diyl di-<em>p</em>-tosylate;NSC 25205;1,3-Propanediyl di-<em>p</em>-toluenesulfonate;Propane-1,3-diyl bis(4-methylbenzenesulfonate);1,3-Propanediyl ditosylate;Propan-1,3-diyl ditosylate",
    "duplicated_cas_no": "",
    "SMILES": "S(OCCCOS(=O)(=O)C1=CC=C(C)C=C1)(=O)(=O)C2=CC=C(C)C=C2",
    "meta_data": {
        "InChI": "InChI=1S/C17H20O6S2/c1-14-4-8-16(9-5-14)24(18,19)22-12-3-13-23-25(20,21)17-10-6-15(2)7-11-17/h4-11H,3,12-13H2,1-2H3",
        "InChIKey": null,
        "Canonical SMILES": "O=S(=O)(OCCCOS(=O)(=O)C1=CC=C(C=C1)C)C2=CC=C(C=C2)C",
        "Molecular Formula": "C<sub>17</sub>H<sub>20</sub>O<sub>6</sub>S<sub>2</sub>",
        "Molecular Mass": "384.47",
        "Melting Point": "93-94 °C"
    }
}