{
    "cas_no": "918-20-7",
    "key_name": "Propane-<em>1</em>,<em>1</em>,<em>1</em>,<em>3</em>,<em>3</em>,<em>3</em>-<em>d</em><sub>6</sub>, 2-chloro-2-(methyl-<em>d</em><sub>3</sub>)-",
    "cn_name": "2-氯-2-甲基丙烷-d9;",
    "alternate_name": "Propane-<em>1</em>,<em>1</em>,<em>1</em>,<em>3</em>,<em>3</em>,<em>3</em>-<em>d</em><sub>6</sub>, 2-chloro-2-(methyl-<em>d</em><sub>3</sub>)-;2-Chloro-2-methylpropane-<em>d</em><sub>9</sub>;<em>tert</em>-Butyl-<em>d</em><sub>9</sub> chloride;2-Chloro-1,1,1,3,3,3-hexadeuterio-2-(trideuteriomethyl)propane",
    "duplicated_cas_no": "",
    "SMILES": "C(C([2H])([2H])[2H])(C([2H])([2H])[2H])(C([2H])([2H])[2H])Cl",
    "meta_data": {
        "InChI": "InChI=1S/C4H9Cl/c1-4(2,3)5/h1-3H3/i1D3,2D3,3D3",
        "InChIKey": null,
        "Canonical SMILES": "ClC(C)(C)C",
        "Molecular Formula": "C<sub>4</sub>ClD<sub>9</sub>",
        "Molecular Mass": "",
        "Boiling Point": "50 °C"
    }
}