{
    "cas_no": "2555-28-4",
    "key_name": "7-Methoxy-4-methylcoumarin",
    "cn_name": "7-甲氧基-4-甲基香豆素;",
    "alternate_name": "2<em>H</em>-1-Benzopyran-2-one, 7-methoxy-4-methyl-;Coumarin, 7-methoxy-4-methyl-;Herniarin, 4-methyl-;7-Methoxy-4-methyl-2<em>H</em>-1-benzopyran-2-one;7-Methoxy-4-methylcoumarin;4-Methyl-7-methoxycoumarin;4-Methylherniarin;4-Methylumbelliferone methyl ether;NSC 688805;7-Methoxy-4-methyl-2<em>H</em>-chromen-2-one;7-Methyloxy-4-methylcoumarin;7-Methoxy-4-methyl-chromen-2-one",
    "duplicated_cas_no": "",
    "SMILES": "CC=1C=2C(=CC(OC)=CC2)OC(=O)C1",
    "meta_data": {
        "InChI": "InChI=1S/C11H10O3/c1-7-5-11(12)14-10-6-8(13-2)3-4-9(7)10/h3-6H,1-2H3",
        "InChIKey": null,
        "Canonical SMILES": "O=C1OC=2C=C(OC)C=CC2C(=C1)C",
        "Molecular Formula": "C<sub>11</sub>H<sub>10</sub>O<sub>3</sub>",
        "Molecular Mass": "190.20",
        "Melting Point": "159 °C"
    }
}