{
    "cas_no": "18172-67-3",
    "key_name": "(-)-β-Pinene",
    "cn_name": "左旋-beta-蒎烯;",
    "alternate_name": "Bicyclo[3.1.1]heptane, 6,6-dimethyl-2-methylene-, (1<em>S</em>,5<em>S</em>)-;2(10)-Pinene, (1<em>S</em>,5<em>S</em>)-(-)-;Bicyclo[3.1.1]heptane, 6,6-dimethyl-2-methylene-, (1<em>S</em>)-;(1<em>S</em>,5<em>S</em>)-6,6-Dimethyl-2-methylenebicyclo[3.1.1]heptane;<em>l</em>-β-Pinene;(-)-β-Pinene;(-)-2(10)-Pinene;(-)-Nopinene;(1<em>S</em>)-(-)-β-Pinene;(<em>S</em>)-β-Pinene;(<em>S</em>)-(-)-β-Pinene;(-)-(1<em>S</em>)-β-Pinene;(1<em>S</em>)-β-Pinene;(-)-(1<em>S</em>,5<em>S</em>)-β-Pinene;(1<em>S</em>)-6,6-Dimethyl-2-methylenebicyclo[3.1.1]heptane;Ss(1S)-6,6-Dimethyl-2-methylene-Bicyclo[3.1.1]heptane",
    "duplicated_cas_no": "",
    "SMILES": "CC1(C)[C@]2(C[C@@]1(CCC2=C)[H])[H]",
    "meta_data": {
        "InChI": "InChI=1S/C10H16/c1-7-4-5-8-6-9(7)10(8,2)3/h8-9H,1,4-6H2,2-3H3/t8-,9-/m0/s1",
        "InChIKey": null,
        "Canonical SMILES": "C=C1CCC2CC1C2(C)C",
        "Molecular Formula": "C<sub>10</sub>H<sub>16</sub>",
        "Molecular Mass": "136.23",
        "Boiling Point": "166 °C",
        "Melting Point": "-61 °C",
        "Density": "0.8649 g/cm³ @ Temp: 20 °C"
    }
}