{
    "cas_no": "17695-46-4",
    "key_name": "4-Methylumbelliferone butyrate",
    "cn_name": "丁酸-4-甲基伞形酮;",
    "alternate_name": "Butanoic acid, 4-methyl-2-oxo-2<em>H</em>-1-benzopyran-7-yl ester;Butyric acid, ester with 7-hydroxy-4-methylcoumarin;Coumarin, 7-hydroxy-4-methyl-, butyrate;Butyryl 4-methylumbelliferone;4-Methylumbelliferone butyrate;NSC 152103;NSC 688808;Butyric acid 4-methyl-2-oxo-2<em>H</em>-chromen-7-yl ester;Methylumbelliferyl butyrate;(4-Methyl-2-oxochromen-7-yl) butanoate",
    "duplicated_cas_no": "",
    "SMILES": "CC=1C=2C(=CC(OC(CCC)=O)=CC2)OC(=O)C1",
    "meta_data": {
        "InChI": "InChI=1S/C14H14O4/c1-3-4-13(15)17-10-5-6-11-9(2)7-14(16)18-12(11)8-10/h5-8H,3-4H2,1-2H3",
        "InChIKey": null,
        "Canonical SMILES": "O=C1OC=2C=C(OC(=O)CCC)C=CC2C(=C1)C",
        "Molecular Formula": "C<sub>14</sub>H<sub>14</sub>O<sub>4</sub>",
        "Molecular Mass": "246.26",
        "Melting Point": "94 °C"
    }
}