{
    "cas_no": "4934-99-0",
    "key_name": "Cyclobutanecarboxylic acid, 3-hydroxy-, methyl ester",
    "cn_name": null,
    "alternate_name": "Cyclobutanecarboxylic acid, 3-hydroxy-, methyl ester;Methyl 3-hydroxycyclobutanecarboxylate;3-Hydroxycyclobutanecarboxylic acid methyl ester;Methyl 3-hydroxycyclobutane-1-carboxylate",
    "duplicated_cas_no": "",
    "SMILES": "C(OC)(=O)C1CC(O)C1",
    "meta_data": {
        "InChI": "InChI=1S/C6H10O3/c1-9-6(8)4-2-5(7)3-4/h4-5,7H,2-3H2,1H3",
        "InChIKey": null,
        "Canonical SMILES": "O=C(OC)C1CC(O)C1",
        "Molecular Formula": "C<sub>6</sub>H<sub>10</sub>O<sub>3</sub>",
        "Molecular Mass": "130.14",
        "Boiling Point": "87-93 °C @ Press: 2.45 Torr"
    }
}