{
    "cas_no": "5244-34-8",
    "key_name": "3,6-Dithia-1,8-octanediol",
    "cn_name": "3,6-二硫杂-1,8-辛二醇;",
    "alternate_name": "Ethanol, 2,2′-[1,2-ethanediylbis(thio)]bis-;Ethanol, 2,2′-(ethylenedithio)di-;2,2′-[1,2-Ethanediylbis(thio)]bis[ethanol];1,8-Dihydroxy-3,6-dithiaoctane;3,6-Dithia-1,8-octanediol;1,2-Bis(2-hydroxyethylthio)ethane;1,10-Dioxa-4,7-dithiadecane;1,2-Bis(β-hydroxyethylthio)ethane;Di(β-hydroxyethyl)ethylene disulfide;3,6-Dithiaoctan-1,8-diol;1,8-Dihydroxy-3,6-dithiooctane;2,2′-(Ethylenedithio)diethanol;SZ 3;Dithiotriethylene glycol;1,2-Bis(2-hydroxyethylsulfanyl)ethane;2,2′-Ethylenedithiobis(ethanol);2,2′-(Ethane-1,2-diylbis(sulfanediyl))diethanol;2-[2-(2-Hydroxyethylsulfanyl)ethylsulfanyl]ethanol",
    "duplicated_cas_no": "26652-79-9",
    "SMILES": "C(CSCCO)SCCO",
    "meta_data": {
        "InChI": "InChI=1S/C6H14O2S2/c7-1-3-9-5-6-10-4-2-8/h7-8H,1-6H2",
        "InChIKey": null,
        "Canonical SMILES": "OCCSCCSCCO",
        "Molecular Formula": "C<sub>6</sub>H<sub>14</sub>O<sub>2</sub>S<sub>2</sub>",
        "Molecular Mass": "182.30",
        "Melting Point": "56 °C"
    }
}