{
    "cas_no": "67035-22-7",
    "key_name": "Dehydronifedipine",
    "cn_name": "4 - (2硝基苯基)-2,6 -二甲基吡啶-3,5二羧酸二甲酯;",
    "alternate_name": "3,5-Pyridinedicarboxylic acid, 2,6-dimethyl-4-(2-nitrophenyl)-, 3,5-dimethyl ester;3,5-Pyridinedicarboxylic acid, 2,6-dimethyl-4-(2-nitrophenyl)-, dimethyl ester;Dimethyl 2,6-dimethyl-4-(2-nitrophenyl)-3,5-pyridinedicarboxylate;B 4759;Dehydronifedipine;BAY-b 4759",
    "duplicated_cas_no": "",
    "SMILES": "C(OC)(=O)C=1C(=C(C(OC)=O)C(C)=NC1C)C2=C(N(=O)=O)C=CC=C2",
    "meta_data": {
        "InChI": "InChI=1S/C17H16N2O6/c1-9-13(16(20)24-3)15(14(10(2)18-9)17(21)25-4)11-7-5-6-8-12(11)19(22)23/h5-8H,1-4H3",
        "InChIKey": null,
        "Canonical SMILES": "O=C(OC)C1=C(N=C(C(C(=O)OC)=C1C=2C=CC=CC2N(=O)=O)C)C",
        "Molecular Formula": "C<sub>17</sub>H<sub>16</sub>N<sub>2</sub>O<sub>6</sub>",
        "Molecular Mass": "344.32",
        "Melting Point": "104-105 °C"
    }
}