{
    "cas_no": "237430-03-4",
    "key_name": "Alsterpaullone",
    "cn_name": null,
    "alternate_name": "Indolo[3,2-<em>d</em>][1]benzazepin-6(5<em>H</em>)-one, 7,12-dihydro-9-nitro-;7,12-Dihydro-9-nitroindolo[3,2-<em>d</em>][1]benzazepin-6(5<em>H</em>)-one;Alsterpaullone;9-Nitropaullone;NSC 705701;9-Nitro-7,12-dihydroindolo-(3,2-<em>d</em>)(1)benzazepin-6(5<em>H</em>)-one",
    "duplicated_cas_no": "959569-16-5",
    "SMILES": "O=C1CC2=C(C=3C(N1)=CC=CC3)NC=4C2=CC(N(=O)=O)=CC4",
    "meta_data": {
        "InChI": "InChI=1S/C16H11N3O3/c20-15-8-12-11-7-9(19(21)22)5-6-14(11)18-16(12)10-3-1-2-4-13(10)17-15/h1-7,18H,8H2,(H,17,20)",
        "InChIKey": null,
        "Canonical SMILES": "O=C1NC=2C=CC=CC2C=3NC=4C=CC(=CC4C3C1)N(=O)=O",
        "Molecular Formula": "C<sub>16</sub>H<sub>11</sub>N<sub>3</sub>O<sub>3</sub>",
        "Molecular Mass": "293.28",
        "Melting Point": "&gt;330 °C"
    }
}