{
    "cas_no": "939-79-7",
    "key_name": "4-Methyl-3-nitrobenzonitrile",
    "cn_name": "4-甲基-3-硝基苯甲腈;4-甲基-3-硝基苯腈;",
    "alternate_name": "Benzonitrile, 4-methyl-3-nitro-;<em>p</em>-Tolunitrile, 3-nitro-;4-Methyl-3-nitrobenzonitrile;3-Nitro-4-tolunitrile;3-Nitro-<em>p</em>-tolunitrile;4-Cyano-2-nitrotoluene;3-Nitro-4-methylbenzonitrile",
    "duplicated_cas_no": "",
    "SMILES": "N(=O)(=O)C1=CC(C#N)=CC=C1C",
    "meta_data": {
        "InChI": "InChI=1S/C8H6N2O2/c1-6-2-3-7(5-9)4-8(6)10(11)12/h2-4H,1H3",
        "InChIKey": null,
        "Canonical SMILES": "N#CC1=CC=C(C(=C1)N(=O)=O)C",
        "Molecular Formula": "C<sub>8</sub>H<sub>6</sub>N<sub>2</sub>O<sub>2</sub>",
        "Molecular Mass": "162.15",
        "Melting Point": "96-98 °C"
    }
}