{
    "cas_no": "3343-29-1",
    "key_name": "<em>N</em>-Phthaloyl-<span class=\"text-smallcaps\">L</span>-glutamine",
    "cn_name": null,
    "alternate_name": "2<em>H</em>-Isoindole-2-acetic acid, α-(3-amino-3-oxopropyl)-1,3-dihydro-1,3-dioxo-, (α<em>S</em>)-;Glutaramic acid, 2-phthalimido-, <span class=\"text-smallcaps\">L</span>-;2<em>H</em>-Isoindole-2-acetic acid, α-(3-amino-3-oxopropyl)-1,3-dihydro-1,3-dioxo-, (<em>S</em>)-;(α<em>S</em>)-α-(3-Amino-3-oxopropyl)-1,3-dihydro-1,3-dioxo-2<em>H</em>-isoindole-2-acetic acid;<em>N</em>-Phthalylglutamine;<em>N</em>-Phthaloyl-<span class=\"text-smallcaps\">L</span>-glutamine;NSC 88735;2<em>H</em>-Isoindole-2-acetic acid α-(3-amino-3-oxopropyl)-1,3-dihydro-1,3-dioxo-, (αS)-",
    "duplicated_cas_no": "",
    "SMILES": "[C@H](CCC(N)=O)(C(O)=O)N1C(=O)C=2C(C1=O)=CC=CC2",
    "meta_data": {
        "InChI": "InChI=1S/C13H12N2O5/c14-10(16)6-5-9(13(19)20)15-11(17)7-3-1-2-4-8(7)12(15)18/h1-4,9H,5-6H2,(H2,14,16)(H,19,20)/t9-/m0/s1",
        "InChIKey": null,
        "Canonical SMILES": "O=C(O)C(N1C(=O)C=2C=CC=CC2C1=O)CCC(=O)N",
        "Molecular Formula": "C<sub>13</sub>H<sub>12</sub>N<sub>2</sub>O<sub>5</sub>",
        "Molecular Mass": "276.24",
        "Melting Point": "163 °C"
    }
}