{
    "cas_no": "83010-84-8",
    "key_name": "7-Methoxy-8-quinolinamine",
    "cn_name": null,
    "alternate_name": "8-Quinolinamine, 7-methoxy-;Quinoline, 8-amino-7-methoxy-;7-Methoxy-8-quinolinamine;7-Methoxyquinolin-8-amine",
    "duplicated_cas_no": "",
    "SMILES": "NC=1C2=C(C=CC1OC)C=CC=N2",
    "meta_data": {
        "InChI": "InChI=1S/C10H10N2O/c1-13-8-5-4-7-3-2-6-12-10(7)9(8)11/h2-6H,11H2,1H3",
        "InChIKey": null,
        "Canonical SMILES": "N=1C=CC=C2C=CC(OC)=C(N)C12",
        "Molecular Formula": "C<sub>10</sub>H<sub>10</sub>N<sub>2</sub>O",
        "Molecular Mass": "174.20",
        "Melting Point": "108 °C"
    }
}