{
    "cas_no": "18728-61-5",
    "key_name": "α-Methyl-2-pyridinemethanol",
    "cn_name": null,
    "alternate_name": "2-Pyridinemethanol, α-methyl-;α-Methyl-2-pyridinemethanol;2-Pyridylmethylcarbinol;2-(1-Hydroxyethyl)pyridine;Methyl(2-pyridyl)carbinol;(±)-1-(2-Pyridyl)ethanol;1-(2-Pyridyl)ethanol;1-(2-Pyridinyl)ethanol;1-(Pyridin-2-yl)ethan-1-ol",
    "duplicated_cas_no": "20988-55-0",
    "SMILES": "C(C)(O)C1=CC=CC=N1",
    "meta_data": {
        "InChI": "InChI=1S/C7H9NO/c1-6(9)7-4-2-3-5-8-7/h2-6,9H,1H3",
        "InChIKey": null,
        "Canonical SMILES": "OC(C1=NC=CC=C1)C",
        "Molecular Formula": "C<sub>7</sub>H<sub>9</sub>NO",
        "Molecular Mass": "123.15",
        "Boiling Point": "130 °C @ Press: 0.8 Torr",
        "Melting Point": "53-54 °C"
    }
}