{
    "cas_no": "17540-75-9",
    "key_name": "2,6-Di-<em>tert</em>-butyl-4-<em>sec</em>-butylphenol",
    "cn_name": null,
    "alternate_name": "Phenol, 2,6-bis(1,1-dimethylethyl)-4-(1-methylpropyl)-;Phenol, 4-<em>sec</em>-butyl-2,6-di-<em>tert</em>-butyl-;2,6-Bis(1,1-dimethylethyl)-4-(1-methylpropyl)phenol;4-<em>sec</em>-Butyl-2,6-di-<em>tert</em>-butylphenol;Isonox 132;Vanox 1320;2,6-Di-<em>tert</em>-butyl-4-<em>sec</em>-butylphenol;NSC 14460;2,6-Bis(1,1-dimethylethyl)-4-(1-methylpropyl)-phenol",
    "duplicated_cas_no": "",
    "SMILES": "C(C)(C)(C)C1=C(O)C(C(C)(C)C)=CC(C(CC)C)=C1",
    "meta_data": {
        "InChI": "InChI=1S/C18H30O/c1-9-12(2)13-10-14(17(3,4)5)16(19)15(11-13)18(6,7)8/h10-12,19H,9H2,1-8H3",
        "InChIKey": null,
        "Canonical SMILES": "OC=1C(=CC(=CC1C(C)(C)C)C(C)CC)C(C)(C)C",
        "Molecular Formula": "C<sub>18</sub>H<sub>30</sub>O",
        "Molecular Mass": "262.43",
        "Boiling Point": "141.0-141.5 °C @ Press: 10 Torr"
    }
}