{
    "cas_no": "13050-38-9",
    "key_name": "α-Hydroxy-α-phenylbenzeneacetic acid hydrazide",
    "cn_name": null,
    "alternate_name": "Benzeneacetic acid, α-hydroxy-α-phenyl-, hydrazide;Benzilic acid, hydrazide;α-Hydroxy-α-phenylbenzeneacetic acid hydrazide;Diphenylhydroxyacethydrazide;Benziloyl hydrazide;Hydroxydiphenylacetic acid hydrazide;NSC 45251;2-Hydroxy-2,2-diphenylacetic hydrazide;2-Hydroxy-2,2-diphenylacetohydrazide;2-Hydroxy-2,2-diphenylethanohydrazide",
    "duplicated_cas_no": "",
    "SMILES": "C(C(NN)=O)(O)(C1=CC=CC=C1)C2=CC=CC=C2",
    "meta_data": {
        "InChI": "InChI=1S/C14H14N2O2/c15-16-13(17)14(18,11-7-3-1-4-8-11)12-9-5-2-6-10-12/h1-10,18H,15H2,(H,16,17)",
        "InChIKey": null,
        "Canonical SMILES": "O=C(NN)C(O)(C=1C=CC=CC1)C=2C=CC=CC2",
        "Molecular Formula": "C<sub>14</sub>H<sub>14</sub>N<sub>2</sub>O<sub>2</sub>",
        "Molecular Mass": "242.27",
        "Melting Point": "172 °C"
    }
}