{
    "cas_no": "271-63-6",
    "key_name": "1<em>H</em>-Pyrrolo[2,3-<em>b</em>]pyridine",
    "cn_name": "7-氮杂吲哚;",
    "alternate_name": "1<em>H</em>-Pyrrolo[2,3-<em>b</em>]pyridine;7-Aza-1-pyrindine;1,7-Diazaindene;7-Azaindole;7<em>H</em>-Pyrrolo[2,3-<em>b</em>]pyridine;1,7-Dideazapurine;NSC 67063;NSC 77951;1<em>H</em>-Pyrrole[2,3-<em>b</em>]pyridine",
    "duplicated_cas_no": "",
    "SMILES": "C1=2C(NC=C1)=NC=CC2",
    "meta_data": {
        "InChI": "InChI=1S/C7H6N2/c1-2-6-3-5-9-7(6)8-4-1/h1-5H,(H,8,9)",
        "InChIKey": null,
        "Canonical SMILES": "N1=CC=CC=2C=CNC12",
        "Molecular Formula": "C<sub>7</sub>H<sub>6</sub>N<sub>2</sub>",
        "Molecular Mass": "118.14",
        "Boiling Point": "270 °C @ Press: 755 Torr",
        "Melting Point": "107 °C"
    }
}