{
    "cas_no": "198283-73-7",
    "key_name": "Tebanicline",
    "cn_name": null,
    "alternate_name": "Pyridine, 5-[(2<em>R</em>)-2-azetidinylmethoxy]-2-chloro-;Pyridine, 5-(2-azetidinylmethoxy)-2-chloro-, (<em>R</em>)-;5-[(2<em>R</em>)-2-Azetidinylmethoxy]-2-chloropyridine;ABT 594;Tebanicline;(<em>R</em>)-5-(Azetidin-2-ylmethoxy)-2-chloropyridine;5-[((2<em>R</em>)-Azetidin-2-yl)methoxy]-2-chloropyridine;Ebanicline",
    "duplicated_cas_no": "",
    "SMILES": "O(C[C@H]1CCN1)C=2C=CC(Cl)=NC2",
    "meta_data": {
        "InChI": "InChI=1S/C9H11ClN2O/c10-9-2-1-8(5-12-9)13-6-7-3-4-11-7/h1-2,5,7,11H,3-4,6H2/t7-/m1/s1",
        "InChIKey": null,
        "Canonical SMILES": "ClC1=NC=C(OCC2NCC2)C=C1",
        "Molecular Formula": "C<sub>9</sub>H<sub>11</sub>ClN<sub>2</sub>O",
        "Molecular Mass": "198.65",
        "Melting Point": "116-117 °C"
    }
}