{
    "cas_no": "2766-74-7",
    "key_name": "5-Chloro-2-thiophenesulfonyl chloride",
    "cn_name": "5-氯噻唑-2-磺酰氯;",
    "alternate_name": "2-Thiophenesulfonyl chloride, 5-chloro-;5-Chloro-2-thiophenesulfonyl chloride;5-Chloro-2-thienylsulfonyl chloride;2-Chlorothiophene-5-sulfonyl chloride;2-Chloro-5-chlorosulfonylthiophene",
    "duplicated_cas_no": "",
    "SMILES": "S(Cl)(=O)(=O)C=1SC(Cl)=CC1",
    "meta_data": {
        "InChI": "InChI=1S/C4H2Cl2O2S2/c5-3-1-2-4(9-3)10(6,7)8/h1-2H",
        "InChIKey": null,
        "Canonical SMILES": "O=S(=O)(Cl)C=1SC(Cl)=CC1",
        "Molecular Formula": "C<sub>4</sub>H<sub>2</sub>Cl<sub>2</sub>O<sub>2</sub>S<sub>2</sub>",
        "Molecular Mass": "217.09",
        "Boiling Point": "74-76 °C",
        "Melting Point": "26-28 °C"
    }
}