{
    "cas_no": "2179-15-9",
    "key_name": "<span class=\"text-smallcaps\">L</span>-Lysine, <em>N</em><sup>2</sup>-[(phenylmethoxy)carbonyl]-, 4-nitrophenyl ester, hydrochloride (1:1)",
    "cn_name": null,
    "alternate_name": "<span class=\"text-smallcaps\">L</span>-Lysine, <em>N</em><sup>2</sup>-[(phenylmethoxy)carbonyl]-, 4-nitrophenyl ester, hydrochloride (1:1);Lysine, <em>N</em><sup>2</sup>-carboxy-, <em>N</em><sup>2</sup>-benzyl <em>p</em>-nitrophenyl ester, monohydrochloride, <span class=\"text-smallcaps\">L</span>-;<span class=\"text-smallcaps\">L</span>-Lysine, <em>N</em><sup>2</sup>-[(phenylmethoxy)carbonyl]-, 4-nitrophenyl ester, monohydrochloride",
    "duplicated_cas_no": "",
    "SMILES": "O(C([C@@H](NC(OCC1=CC=CC=C1)=O)CCCCN)=O)C2=CC=C(N(=O)=O)C=C2.Cl",
    "meta_data": {
        "InChI": "InChI=1S/C20H23N3O6.ClH/c21-13-5-4-8-18(22-20(25)28-14-15-6-2-1-3-7-15)19(24)29-17-11-9-16(10-12-17)23(26)27;/h1-3,6-7,9-12,18H,4-5,8,13-14,21H2,(H,22,25);1H/t18-;/m0./s1",
        "InChIKey": null,
        "Canonical SMILES": "Cl.O=C(OCC=1C=CC=CC1)NC(C(=O)OC2=CC=C(C=C2)N(=O)=O)CCCCN",
        "Molecular Formula": "C<sub>20</sub>H<sub>23</sub>N<sub>3</sub>O<sub>6</sub>.ClH",
        "Molecular Mass": "",
        "Melting Point": "150-152 °C"
    }
}