{
    "cas_no": "814-67-5",
    "key_name": "2,3-Dimercaptopropane",
    "cn_name": null,
    "alternate_name": "1,2-Propanedithiol;2,3-Dimercaptopropane;1,2-Dithiolpropane;1,2-Dimercaptopropane;1-Methyl-1,2-ethanedithiol;NSC 72085",
    "duplicated_cas_no": "108061-07-0;61842-55-5",
    "SMILES": "C(CS)(C)S",
    "meta_data": {
        "InChI": "InChI=1S/C3H8S2/c1-3(5)2-4/h3-5H,2H2,1H3",
        "InChIKey": null,
        "Canonical SMILES": "SCC(S)C",
        "Molecular Formula": "C<sub>3</sub>H<sub>8</sub>S<sub>2</sub>",
        "Molecular Mass": "108.23",
        "Boiling Point": "152 °C",
        "Density": "1.061 g/cm³ @ Temp: 20 °C"
    }
}