{
    "cas_no": "778-36-9",
    "key_name": "Pentafluorobenzenesulfonamide",
    "cn_name": null,
    "alternate_name": "Benzenesulfonamide, 2,3,4,5,6-pentafluoro-;2,3,4,5,6-Pentafluorobenzenesulfonamide;Pentafluorobenzenesulfonamide",
    "duplicated_cas_no": "",
    "SMILES": "S(N)(=O)(=O)C1=C(F)C(F)=C(F)C(F)=C1F",
    "meta_data": {
        "InChI": "InChI=1S/C6H2F5NO2S/c7-1-2(8)4(10)6(15(12,13)14)5(11)3(1)9/h(H2,12,13,14)",
        "InChIKey": null,
        "Canonical SMILES": "O=S(=O)(N)C=1C(F)=C(F)C(F)=C(F)C1F",
        "Molecular Formula": "C<sub>6</sub>H<sub>2</sub>F<sub>5</sub>NO<sub>2</sub>S",
        "Molecular Mass": "247.14",
        "Melting Point": "155-156 °C"
    }
}