{
    "cas_no": "2987-17-9",
    "key_name": "Cyclobutanecarboxaldehyde",
    "cn_name": "环丁基甲醛;",
    "alternate_name": "Cyclobutanecarboxaldehyde;Cyclobutanaldehyde;Formylcyclobutane;Cyclobutylcarboxaldehyde;Cyclobutanecarbaldehyde;1-Cyclobutane-aldehyde",
    "duplicated_cas_no": "",
    "SMILES": "C(=O)C1CCC1",
    "meta_data": {
        "InChI": "InChI=1S/C5H8O/c6-4-5-2-1-3-5/h4-5H,1-3H2",
        "InChIKey": null,
        "Canonical SMILES": "O=CC1CCC1",
        "Molecular Formula": "C<sub>5</sub>H<sub>8</sub>O",
        "Molecular Mass": "84.12",
        "Boiling Point": "116-118 °C",
        "Density": "0.9355 g/cm³ @ Temp: 20 °C"
    }
}