{
    "cas_no": "3794-64-7",
    "key_name": "Silver heptafluorobutyrate",
    "cn_name": "七氟丁酸银;",
    "alternate_name": "Butanoic acid, 2,2,3,3,4,4,4-heptafluoro-, silver(1+) salt (1:1);Butyric acid, heptafluoro-, silver(1+) salt;Butanoic acid, heptafluoro-, silver(1+) salt;2,2,3,3,4,4,4-Heptafluorobutyric acid, silver(1+) salt;Silver heptafluorobutanoate;Silver perfluorobutanoate;Silver heptafluorobutyrate;Silver perfluorobutyrate;Silver(I) perfluorobutyrate;Silver(1+) heptafluorobutanoate;Silver(I) heptafluorobutyrate;Silver(1+) heptafluorobutyrate;Silver(I) perfluorobutanoate;Silver(I) heptafluorobutanoate",
    "duplicated_cas_no": "",
    "SMILES": "C(C(C(O)=O)(F)F)(C(F)(F)F)(F)F.[Ag]",
    "meta_data": {
        "InChI": "InChI=1S/C4HF7O2.Ag/c5-2(6,1(12)13)3(7,8)4(9,10)11;/h(H,12,13);",
        "InChIKey": null,
        "Canonical SMILES": "[Ag].O=C(O)C(F)(F)C(F)(F)C(F)(F)F",
        "Molecular Formula": "C<sub>4</sub>HF<sub>7</sub>O<sub>2</sub>.Ag",
        "Molecular Mass": "",
        "Melting Point": "292-294 °C"
    }
}