{
    "cas_no": "154-41-6",
    "key_name": "Phenylpropanolamine hydrochloride",
    "cn_name": "盐酸苯丙醇胺;;DL-2-氨基-1-苯基-1-丙醇盐酸盐;",
    "alternate_name": "Benzenemethanol, α-[(1<em>R</em>)-1-aminoethyl]-, hydrochloride (1:1), (α<em>S</em>)-<em>rel</em>-;Norephedrine, hydrochloride, (±)-;Benzenemethanol, α-(1-aminoethyl)-, hydrochloride, (<em>R</em>*,<em>S</em>*)-(±)-;Benzenemethanol, α-[(1<em>R</em>)-1-aminoethyl]-, hydrochloride, (α<em>S</em>)-<em>rel</em>-;(±)-2-Amino-1-phenyl-1-propanol hydrochloride;<em>dl</em>-Norephedrine hydrochloride;(±)-Phenylpropanolamine hydrochloride;(±)-Norephedrine hydrochloride;(±)-Norephedrine chloride;Phenylpropanolamine hydrochloride;<em>dl</em>-Phenylpropanolamine hydrochloride;Propadrine hydrochloride;IP 58064;Benzenemethanol, α-(1-aminoethyl)-, hydrochloride, (<em>R</em>*,<em>S</em>*)-;Norephedrine hydrochloride;Thinz-Span;Acutrim;Permathene 16;Dexatrim;<em>erythro</em>-Norephedrine hydrochloride;Kontexin;Obestat;Mydriatin;Monydrin;NSC 23798;Guaifen;Flurest",
    "duplicated_cas_no": "4345-16-8;7587-43-1",
    "SMILES": "[C@H]([C@@H](C)N)(O)C1=CC=CC=C1.Cl",
    "meta_data": {
        "InChI": "InChI=1/C9H13NO.ClH/c1-7(10)9(11)8-5-3-2-4-6-8;/h2-7,9,11H,10H2,1H3;1H/t7-,9-;/s2",
        "InChIKey": null,
        "Canonical SMILES": "Cl.OC(C=1C=CC=CC1)C(N)C",
        "Molecular Formula": "C<sub>9</sub>H<sub>13</sub>NO.ClH",
        "Molecular Mass": "",
        "Melting Point": "194 °C",
        "Density": "1.25 g/cm³"
    }
}