{
    "cas_no": "14593-43-2",
    "key_name": "Allyl benzyl ether",
    "cn_name": "烯丙基苄基醚;",
    "alternate_name": "Benzene, [(2-propen-1-yloxy)methyl]-;Ether, allyl benzyl;Benzene, [(2-propenyloxy)methyl]-;[(2-Propen-1-yloxy)methyl]benzene;Allyl benzyl ether;Benzyl allyl ether;3-(Benzyloxy)-1-propene;3-(Benzyloxy)propene;((Allyloxy)methyl)benzene;[[(2-Propenyl)oxy]methyl]benzene",
    "duplicated_cas_no": "",
    "SMILES": "C(OCC=C)C1=CC=CC=C1",
    "meta_data": {
        "InChI": "InChI=1S/C10H12O/c1-2-8-11-9-10-6-4-3-5-7-10/h2-7H,1,8-9H2",
        "InChIKey": null,
        "Canonical SMILES": "O(CC=C)CC=1C=CC=CC1",
        "Molecular Formula": "C<sub>10</sub>H<sub>12</sub>O",
        "Molecular Mass": "148.20",
        "Boiling Point": "204-205 °C",
        "Density": "0.9548 g/cm³ @ Temp: 25 °C"
    }
}