{
    "cas_no": "86-99-7",
    "key_name": "7-Chloro-4-hydroxyquinoline",
    "cn_name": "7-氯-4-羟基喹啉;4-羟基-7-氯喹啉;",
    "alternate_name": "4-Quinolinol, 7-chloro-;7-Chloro-4-quinolinol;7-Chloro-4-hydroxyquinoline;4-Hydroxy-7-chloroquinoline;NSC 38928",
    "duplicated_cas_no": "",
    "SMILES": "OC=1C2=C(C=C(Cl)C=C2)N=CC1",
    "meta_data": {
        "InChI": "InChI=1S/C9H6ClNO/c10-6-1-2-7-8(5-6)11-4-3-9(7)12/h1-5H,(H,11,12)",
        "InChIKey": null,
        "Canonical SMILES": "ClC=1C=CC2=C(O)C=CN=C2C1",
        "Molecular Formula": "C<sub>9</sub>H<sub>6</sub>ClNO",
        "Molecular Mass": "179.60",
        "Melting Point": "277-279 °C"
    }
}