{
    "cas_no": "42588-37-4",
    "key_name": "Kinoprene",
    "cn_name": null,
    "alternate_name": "2,4-Dodecadienoic acid, 3,7,11-trimethyl-, 2-propyn-1-yl ester, (2<em>E</em>,4<em>E</em>)-;2,4-Dodecadienoic acid, 3,7,11-trimethyl-, 2-propynyl ester, (<em>E</em>,<em>E</em>)-;2,4-Dodecadienoic acid, 3,7,11-trimethyl-, 2-propynyl ester, (2<em>E</em>,4<em>E</em>)-;XR 777;Kinoprene;ENT 70531;Enstar;ZR 77",
    "duplicated_cas_no": "53023-55-5",
    "SMILES": "C(=C/C(OCC#C)=O)(\\C=C\\CC(CCCC(C)C)C)/C",
    "meta_data": {
        "InChI": "InChI=1/C18H28O2/c1-6-13-20-18(19)14-17(5)12-8-11-16(4)10-7-9-15(2)3/h1,8,12,14-16H,7,9-11,13H2,2-5H3/b12-8+,17-14+",
        "InChIKey": null,
        "Canonical SMILES": "O=C(OCC#C)C=C(C=CCC(C)CCCC(C)C)C",
        "Molecular Formula": "C<sub>18</sub>H<sub>28</sub>O<sub>2</sub>",
        "Molecular Mass": "276.41",
        "Boiling Point": "115.5 °C",
        "Melting Point": "&lt;25 °C"
    }
}