{
    "cas_no": "1445-69-8",
    "key_name": "2,3-Dihydro-1,4-phthalazinedione",
    "cn_name": "邻苯二甲酰肼;",
    "alternate_name": "1,4-Phthalazinedione, 2,3-dihydro-;2,3-Dihydro-1,4-phthalazinedione;Phthalhydrazide;Phthalocyclohydrazide;Hydrazine, 1,2-(1,2-phenylenedicarbonyl)-;Phthalic acid cyclic hydrazide;<em>N</em>,<em>N</em>′-Phthaloylhydrazine;4-Hydroxyphthalazin-1(2<em>H</em>)-one;1,4-Phthalazinediol;1,2-Benzenedicarboxylic acid, cyclic hydrazide;1,4-Dihydroxyphthalazine;NSC 201511;NSC 651;Phthalazine-1,4(2<em>H</em>,3<em>H</em>)-dione;1,2,3,4-Tetrahydrophthalazine-1,4-dione",
    "duplicated_cas_no": "2519-98-4;23243-37-0",
    "SMILES": "O=C1C=2C(C(=O)NN1)=CC=CC2",
    "meta_data": {
        "InChI": "InChI=1S/C8H6N2O2/c11-7-5-3-1-2-4-6(5)8(12)10-9-7/h1-4H,(H,9,11)(H,10,12)",
        "InChIKey": null,
        "Canonical SMILES": "O=C1NNC(=O)C=2C=CC=CC12",
        "Molecular Formula": "C<sub>8</sub>H<sub>6</sub>N<sub>2</sub>O<sub>2</sub>",
        "Molecular Mass": "162.15",
        "Melting Point": "&gt;300 °C"
    }
}