{
    "cas_no": "4151-98-8",
    "key_name": "1-Chloro-3-ethoxy-2-propanol",
    "cn_name": "1-氯-3-乙氧基-2-丙醇;",
    "alternate_name": "2-Propanol, 1-chloro-3-ethoxy-;1-Chloro-3-ethoxy-2-propanol;1-Ethoxy-2-hydroxy-3-chloropropane;3-Ethoxy-1-chloro-2-propanol",
    "duplicated_cas_no": "",
    "SMILES": "C(COCC)(CCl)O",
    "meta_data": {
        "InChI": "InChI=1S/C5H11ClO2/c1-2-8-4-5(7)3-6/h5,7H,2-4H2,1H3",
        "InChIKey": null,
        "Canonical SMILES": "ClCC(O)COCC",
        "Molecular Formula": "C<sub>5</sub>H<sub>11</sub>ClO<sub>2</sub>",
        "Molecular Mass": "138.59",
        "Boiling Point": "104-106 °C @ Press: 60 Torr",
        "Density": "1.107 g/cm³ @ Temp: 25 °C"
    }
}