{
    "cas_no": "77-54-3",
    "key_name": "Cedryl acetate",
    "cn_name": "乙酸柏木酯;",
    "alternate_name": "1<em>H</em>-3a,7-Methanoazulen-6-ol, octahydro-3,6,8,8-tetramethyl-, 6-acetate, (3<em>R</em>,3a<em>S</em>,6<em>R</em>,7<em>R</em>,8a<em>S</em>)-;8β<span class=\"text-smallcaps\">H</span>-Cedran-8-ol, acetate;1<em>H</em>-3a,7-Methanoazulen-6-ol, octahydro-3,6,8,8-tetramethyl-, acetate, [3<em>R</em>-(3α,3aβ,6α,7β,8aα)]-;Cedrol, acetate;1<em>H</em>-3a,7-Methanoazulen-6-ol, octahydro-3,6,8,8-tetramethyl-, acetate, (3<em>R</em>,3a<em>S</em>,6<em>R</em>,7<em>R</em>,8a<em>S</em>)-;Cedryl acetate",
    "duplicated_cas_no": "2258642-85-0",
    "SMILES": "C[C@H]1[C@@]23[C@](C(C)(C)[C@@](C2)([C@@](OC(C)=O)(C)CC3)[H])(CC1)[H]",
    "meta_data": {
        "InChI": "InChI=1S/C17H28O2/c1-11-6-7-13-15(3,4)14-10-17(11,13)9-8-16(14,5)19-12(2)18/h11,13-14H,6-10H2,1-5H3/t11-,13+,14-,16-,17+/m1/s1",
        "InChIKey": null,
        "Canonical SMILES": "O=C(OC1(C)CCC23CC1C(C)(C)C3CCC2C)C",
        "Molecular Formula": "C<sub>17</sub>H<sub>28</sub>O<sub>2</sub>",
        "Molecular Mass": "264.40",
        "Melting Point": "40-42 °C"
    }
}