{
    "cas_no": "17277-58-6",
    "key_name": "Methyl 2-(phenylthio)acetate",
    "cn_name": "苯基硫代乙酸甲酯;",
    "alternate_name": "Acetic acid, 2-(phenylthio)-, methyl ester;Acetic acid, (phenylthio)-, methyl ester;Methyl 2-(phenylthio)acetate;Methyl (phenylthio)acetate;Methyl α-(phenylthio)acetate;Methyl thiophenoxyacetate;Methyl phenylsulfenylacetate;NSC 620044;(Phenylthio)acetic acid methyl ester",
    "duplicated_cas_no": "",
    "SMILES": "S(CC(OC)=O)C1=CC=CC=C1",
    "meta_data": {
        "InChI": "InChI=1S/C9H10O2S/c1-11-9(10)7-12-8-5-3-2-4-6-8/h2-6H,7H2,1H3",
        "InChIKey": null,
        "Canonical SMILES": "O=C(OC)CSC=1C=CC=CC1",
        "Molecular Formula": "C<sub>9</sub>H<sub>10</sub>O<sub>2</sub>S",
        "Molecular Mass": "182.24",
        "Boiling Point": "262-263 °C @ Press: 759.4 Torr",
        "Density": "1.1728 g/cm³ @ Temp: 25 °C"
    }
}