{
    "cas_no": "6393-01-7",
    "key_name": "2,5-Dimethyl-<em>p</em>-phenylenediamine",
    "cn_name": "2,5-二甲基-1,4-苯二胺;2,5-二甲基对苯二胺;",
    "alternate_name": "1,4-Benzenediamine, 2,5-dimethyl-;<em>p</em>-Phenylenediamine, 2,5-dimethyl-;2,5-Dimethyl-1,4-benzenediamine;2,5-Dimethyl-1,4-diaminobenzene;1,4-Diamino-2,5-dimethylbenzene;2,5-Diamino-<em>p</em>-xylene;2,5-Dimethyl-<em>p</em>-phenylenediamine;2,5-Dimethyl-1,4-phenylenediamine;2,5-Diamino-1,4-dimethylbenzene;1,4-Dimethylphenylene-2,5-diamine",
    "duplicated_cas_no": "",
    "SMILES": "CC1=C(N)C=C(C)C(N)=C1",
    "meta_data": {
        "InChI": "InChI=1S/C8H12N2/c1-5-3-8(10)6(2)4-7(5)9/h3-4H,9-10H2,1-2H3",
        "InChIKey": null,
        "Canonical SMILES": "NC=1C=C(C(N)=CC1C)C",
        "Molecular Formula": "C<sub>8</sub>H<sub>12</sub>N<sub>2</sub>",
        "Molecular Mass": "136.19",
        "Melting Point": "141-144 °C"
    }
}