{
    "cas_no": "947-91-1",
    "key_name": "Diphenylacetaldehyde",
    "cn_name": "联苯乙醛;",
    "alternate_name": "Benzeneacetaldehyde, α-phenyl-;Acetaldehyde, diphenyl-;α-Phenylbenzeneacetaldehyde;Diphenylacetaldehyde;2,2-Diphenylacetaldehyde;α,α-Diphenylacetaldehyde;2,2-Diphenylethanal;NSC 21645;2,2-Bisphenyl acetaldehyde",
    "duplicated_cas_no": "",
    "SMILES": "C(C=O)(C1=CC=CC=C1)C2=CC=CC=C2",
    "meta_data": {
        "InChI": "InChI=1S/C14H12O/c15-11-14(12-7-3-1-4-8-12)13-9-5-2-6-10-13/h1-11,14H",
        "InChIKey": null,
        "Canonical SMILES": "O=CC(C=1C=CC=CC1)C=2C=CC=CC2",
        "Molecular Formula": "C<sub>14</sub>H<sub>12</sub>O",
        "Molecular Mass": "196.24",
        "Boiling Point": "170-175 °C @ Press: 15 Torr",
        "Melting Point": "50 °C",
        "Density": "1.1160 g/cm³ @ Temp: 0 °C"
    }
}