{
    "cas_no": "22862-76-6",
    "key_name": "(-)-Anisomycin",
    "cn_name": "茴香霉素(链霉菌属);",
    "alternate_name": "3,4-Pyrrolidinediol, 2-[(4-methoxyphenyl)methyl]-, 3-acetate, (2<em>R</em>,3<em>S</em>,4<em>S</em>)-;3,4-Pyrrolidinediol, 2-[(4-methoxyphenyl)methyl]-, 3-acetate, [2<em>R</em>-(2α,3α,4β)]-;Anisomycin;3,4-Pyrrolidinediol, 2-(<em>p</em>-methoxybenzyl)-, 3-acetate, (2<em>R</em>,3<em>S</em>,4<em>S</em>)-;(2<em>R</em>,3<em>S</em>,4<em>S</em>)-2-(<em>p</em>-Methoxybenzyl)-3,4-pyrrolidinediol 3-acetate;(2<em>R</em>,3<em>S</em>,4<em>S</em>)-2-(<em>p</em>-Methoxyphenylmethyl)-3-acetoxy-4-hydroxypyrrolidine;Flagecidin;(-)-Anisomycin;Anisomycin, (-)-;NSC 76712;Wuningmeisu C;MeSH ID: D000841",
    "duplicated_cas_no": "2322-08-9;11023-48-6",
    "SMILES": "C([C@@H]1[C@H](OC(C)=O)[C@@H](O)CN1)C2=CC=C(OC)C=C2",
    "meta_data": {
        "InChI": "InChI=1S/C14H19NO4/c1-9(16)19-14-12(15-8-13(14)17)7-10-3-5-11(18-2)6-4-10/h3-6,12-15,17H,7-8H2,1-2H3/t12-,13+,14+/m1/s1",
        "InChIKey": null,
        "Canonical SMILES": "O=C(OC1C(O)CNC1CC2=CC=C(OC)C=C2)C",
        "Molecular Formula": "C<sub>14</sub>H<sub>19</sub>NO<sub>4</sub>",
        "Molecular Mass": "265.30",
        "Melting Point": "140.5 °C"
    }
}