{
    "cas_no": "38353-06-9",
    "key_name": "5-Bromo-2(1<em>H</em>)-pyrimidinone",
    "cn_name": "5-溴-2-羟基嘧啶;",
    "alternate_name": "2(1<em>H</em>)-Pyrimidinone, 5-bromo-;2-Pyrimidinol, 5-bromo-;5-Bromo-2(1<em>H</em>)-pyrimidinone;5-Bromo-2-hydroxypyrimidine;5-Bromo-2-pyrimidinone;2-Oxo-5-bromopyrimidine;NSC 528730;2-Hydroxy-5-bromopyrimidine;5-Bromo-1<em>H</em>-pyrimidin-2-one;5-Bromopyrimidin-2-ol",
    "duplicated_cas_no": "",
    "SMILES": "BrC1=CNC(=O)N=C1",
    "meta_data": {
        "InChI": "InChI=1S/C4H3BrN2O/c5-3-1-6-4(8)7-2-3/h1-2H,(H,6,7,8)",
        "InChIKey": null,
        "Canonical SMILES": "O=C1N=CC(Br)=CN1",
        "Molecular Formula": "C<sub>4</sub>H<sub>3</sub>BrN<sub>2</sub>O",
        "Molecular Mass": "174.98",
        "Melting Point": "241-243 °C"
    }
}