{
    "cas_no": "4543-66-2",
    "key_name": "Dodecanedinitrile",
    "cn_name": null,
    "alternate_name": "Dodecanedinitrile;Dodecanodinitrile;Decamethylenedinitrile;1,10-Dicyanodecane;1,12-Dodecanedinitrile;NSC 59852",
    "duplicated_cas_no": "",
    "SMILES": "C(CCCCCC#N)CCCCC#N",
    "meta_data": {
        "InChI": "InChI=1S/C12H20N2/c13-11-9-7-5-3-1-2-4-6-8-10-12-14/h1-10H2",
        "InChIKey": null,
        "Canonical SMILES": "N#CCCCCCCCCCCC#N",
        "Molecular Formula": "C<sub>12</sub>H<sub>20</sub>N<sub>2</sub>",
        "Molecular Mass": "192.30",
        "Boiling Point": "156-157 °C @ Press: 2 Torr",
        "Melting Point": "20.4 °C"
    }
}