{
    "cas_no": "23250-03-5",
    "key_name": "Hydroxyethyltriphenylphosphonium chloride",
    "cn_name": "(2-羟乙基)氯化三苯鏻;",
    "alternate_name": "Phosphonium, (2-hydroxyethyl)triphenyl-, chloride (1:1);Phosphonium, (2-hydroxyethyl)triphenyl-, chloride;(2-Hydroxyethyl)triphenylphosphonium chloride;Hydroxyethyltriphenylphosphonium chloride;2-(Triphenylphosphonium)ethanol chloride",
    "duplicated_cas_no": "42843-74-3;61083-60-1",
    "SMILES": "[P+](CCO)(C1=CC=CC=C1)(C2=CC=CC=C2)C3=CC=CC=C3.[Cl-]",
    "meta_data": {
        "InChI": "InChI=1S/C20H20OP.ClH/c21-16-17-22(18-10-4-1-5-11-18,19-12-6-2-7-13-19)20-14-8-3-9-15-20;/h1-15,21H,16-17H2;1H/q+1;/p-1",
        "InChIKey": null,
        "Canonical SMILES": "[Cl-].OCC[P+](C=1C=CC=CC1)(C=2C=CC=CC2)C=3C=CC=CC3",
        "Molecular Formula": "C<sub>20</sub>H<sub>20</sub>OP.Cl",
        "Molecular Mass": "",
        "Melting Point": "233 °C"
    }
}