{
    "cas_no": "65-19-0",
    "key_name": "Yohimbine hydrochloride",
    "cn_name": "盐酸育亨宾;17alpha-羟基育亨烷-16alpha-羧酸甲酯盐酸盐;",
    "alternate_name": "Yohimban-16-carboxylic acid, 17-hydroxy-, methyl ester, hydrochloride (1:1), (16α,17α)-;Yohimban-16α-carboxylic acid, 17α-hydroxy-, methyl ester, monohydrochloride;Yohimban-16-carboxylic acid, 17-hydroxy-, methyl ester, monohydrochloride, (16α,17α)-;Benz[<em>g</em>]indolo[2,3-<em>a</em>]quinolizine, yohimban-16-carboxylic acid deriv.;Yohimbine hydrochloride;Yohimbine monohydrochloride;Yohimbine chloride;NIH 9689;Antagonil;Actibine;Yohimex;Erex;Thybine;Yocon;Dayto-Himbin;Yohimbe;Aphrodyne;Yomax;NSC 19509;Yohimbex",
    "duplicated_cas_no": "",
    "SMILES": "C(OC)(=O)[C@@H]1[C@]2(C[C@]3(C4=C(C=5C(N4)=CC=CC5)CCN3C[C@@]2(CC[C@@H]1O)[H])[H])[H].Cl",
    "meta_data": {
        "InChI": "InChI=1S/C21H26N2O3.ClH/c1-26-21(25)19-15-10-17-20-14(13-4-2-3-5-16(13)22-20)8-9-23(17)11-12(15)6-7-18(19)24;/h2-5,12,15,17-19,22,24H,6-11H2,1H3;1H/t12-,15-,17-,18-,19+;/m0./s1",
        "InChIKey": null,
        "Canonical SMILES": "Cl.O=C(OC)C1C(O)CCC2CN3CCC=4C=5C=CC=CC5NC4C3CC12",
        "Molecular Formula": "C<sub>21</sub>H<sub>26</sub>N<sub>2</sub>O<sub>3</sub>.ClH",
        "Molecular Mass": "",
        "Melting Point": "289 °C (decomp)"
    }
}