{
    "cas_no": "67879-58-7",
    "key_name": "Caftaric acid",
    "cn_name": "咖啡酰酒石酸; 咖啡酰基酒石酸;",
    "alternate_name": "Butanedioic acid, 2-[[(2<em>E</em>)-3-(3,4-dihydroxyphenyl)-1-oxo-2-propen-1-yl]oxy]-3-hydroxy-, (2<em>R</em>,3<em>R</em>)-;Butanedioic acid, 2-[[3-(3,4-dihydroxyphenyl)-1-oxo-2-propenyl]oxy]-3-hydroxy-, [<em>R</em>-[<em>R</em>*,<em>R</em>*-(<em>E</em>)]]-;Butanedioic acid, 2-[[(2<em>E</em>)-3-(3,4-dihydroxyphenyl)-1-oxo-2-propenyl]oxy]-3-hydroxy-, (2<em>R</em>,3<em>R</em>)-;(2<em>R</em>,3<em>R</em>)-2-[[(2<em>E</em>)-3-(3,4-Dihydroxyphenyl)-1-oxo-2-propen-1-yl]oxy]-3-hydroxybutanedioic acid;Caftaric acid;<em>trans</em>-Caftaric acid",
    "duplicated_cas_no": "72880-50-3",
    "SMILES": "[C@@H](OC(/C=C/C1=CC(O)=C(O)C=C1)=O)([C@H](C(O)=O)O)C(O)=O",
    "meta_data": {
        "InChI": "InChI=1S/C13H12O9/c14-7-3-1-6(5-8(7)15)2-4-9(16)22-11(13(20)21)10(17)12(18)19/h1-5,10-11,14-15,17H,(H,18,19)(H,20,21)/b4-2+/t10-,11-/m1/s1",
        "InChIKey": null,
        "Canonical SMILES": "O=C(O)C(O)C(OC(=O)C=CC1=CC=C(O)C(O)=C1)C(=O)O",
        "Molecular Formula": "C<sub>13</sub>H<sub>12</sub>O<sub>9</sub>",
        "Molecular Mass": "312.23",
        "Melting Point": "123-125 °C"
    }
}