{
    "cas_no": "14426-20-1",
    "key_name": "Ethanol, 2-(diethylamino)-, hydrochloride (1:1)",
    "cn_name": "N,N-二乙基乙醇胺盐酸盐;2-二乙基氨基乙醇盐酸盐;二乙氨基乙醇盐酸盐;2-二乙基氨基乙醇盐酸盐;",
    "alternate_name": "Ethanol, 2-(diethylamino)-, hydrochloride (1:1);Ethanol, 2-(diethylamino)-, hydrochloride;2-(Diethylamino)ethanol hydrochloride;Dehydasal;Perdilaton;(Diethylamino)ethanol hydrochloride",
    "duplicated_cas_no": "2611300-65-1",
    "SMILES": "N(CCO)(CC)CC.Cl",
    "meta_data": {
        "InChI": "InChI=1S/C6H15NO.ClH/c1-3-7(4-2)5-6-8;/h8H,3-6H2,1-2H3;1H",
        "InChIKey": null,
        "Canonical SMILES": "Cl.OCCN(CC)CC",
        "Molecular Formula": "C<sub>6</sub>H<sub>15</sub>NO.ClH",
        "Molecular Mass": "",
        "Melting Point": "135-136 °C"
    }
}