{
    "cas_no": "3849-21-6",
    "key_name": "Ethyl 2-cyano-2-(hydroxyimino)acetate",
    "cn_name": "2-肟氰乙酸乙酯;",
    "alternate_name": "Acetic acid, 2-cyano-2-(hydroxyimino)-, ethyl ester;Glyoxylic acid, cyano-, ethyl ester, 2-oxime;Acetic acid, cyano(hydroxyimino)-, ethyl ester;Glyoxylic acid, cyano-, ethyl ester, oxime;Ethyl cyanoglyoxylate oxime;Ethyl 2-hydroxyimino-2-cyanoacetate;Ethyl α-cyano-α-oximinoacetate;Ethyl cyano(hydroxyimino)acetate;Ethyl 2-cyano-2-(hydroxyimino)ethanoate;Ethyl 2-(hydroxyimino)cyanoacetate;Ethyl cyanoglyoxylate-2-oxime;NSC 137667;NSC 41021;NSC 42116;Ethyl 2-cyano-2-oximinoacetate;2-Cyano-2-(hydroxyimino)acetic acid ethyl ester;Ethyl 2-cyano-2-(hydroxyimino)acetate;Oxyma;Oxyma Pure;Ethyl 2-cyano-2-oxidoiminoacetate",
    "duplicated_cas_no": "884234-60-0",
    "SMILES": "C(C(OCC)=O)(C#N)=NO",
    "meta_data": {
        "InChI": "InChI=1S/C5H6N2O3/c1-2-10-5(8)4(3-6)7-9/h9H,2H2,1H3",
        "InChIKey": null,
        "Canonical SMILES": "N#CC(=NO)C(=O)OCC",
        "Molecular Formula": "C<sub>5</sub>H<sub>6</sub>N<sub>2</sub>O<sub>3</sub>",
        "Molecular Mass": "142.11",
        "Boiling Point": "106 °C @ Press: 10 Torr",
        "Melting Point": "129 °C"
    }
}