{
    "cas_no": "556-63-8",
    "key_name": "Lithium formate",
    "cn_name": null,
    "alternate_name": "Formic acid, lithium salt (1:1);Formic acid, lithium salt;Lithium formate",
    "duplicated_cas_no": "",
    "SMILES": "C(O)=O.[Li]",
    "meta_data": {
        "InChI": "InChI=1S/CH2O2.Li/c2-1-3;/h1H,(H,2,3);",
        "InChIKey": null,
        "Canonical SMILES": "[Li].O=CO",
        "Molecular Formula": "CH<sub>2</sub>O<sub>2</sub>.Li",
        "Molecular Mass": "",
        "Melting Point": "273 °C"
    }
}