{
    "cas_no": "186392-43-8",
    "key_name": "5-Chloro-<em>N</em>-[(1<em>S</em>,2<em>R</em>)-2-hydroxy-3-(methoxymethylamino)-3-oxo-1-(phenylmethyl)propyl]-1<em>H</em>-indole-2-carboxamide",
    "cn_name": null,
    "alternate_name": "1<em>H</em>-Indole-2-carboxamide, 5-chloro-<em>N</em>-[(1<em>S</em>,2<em>R</em>)-2-hydroxy-3-(methoxymethylamino)-3-oxo-1-(phenylmethyl)propyl]-;1<em>H</em>-Indole-2-carboxamide, 5-chloro-<em>N</em>-[2-hydroxy-3-(methoxymethylamino)-3-oxo-1-(phenylmethyl)propyl]-, [<em>R</em>-(<em>R</em>*,<em>S</em>*)]-;5-Chloro-<em>N</em>-[(1<em>S</em>,2<em>R</em>)-2-hydroxy-3-(methoxymethylamino)-3-oxo-1-(phenylmethyl)propyl]-1<em>H</em>-indole-2-carboxamide;CP 316819;GPi 819",
    "duplicated_cas_no": "865877-58-3",
    "SMILES": "C(N[C@@H](CC1=CC=CC=C1)[C@H](C(N(OC)C)=O)O)(=O)C=2NC=3C(C2)=CC(Cl)=CC3",
    "meta_data": {
        "InChI": "InChI=1S/C21H22ClN3O4/c1-25(29-2)21(28)19(26)17(10-13-6-4-3-5-7-13)24-20(27)18-12-14-11-15(22)8-9-16(14)23-18/h3-9,11-12,17,19,23,26H,10H2,1-2H3,(H,24,27)/t17-,19+/m0/s1",
        "InChIKey": null,
        "Canonical SMILES": "O=C(NC(CC=1C=CC=CC1)C(O)C(=O)N(OC)C)C2=CC=3C=C(Cl)C=CC3N2",
        "Molecular Formula": "C<sub>21</sub>H<sub>22</sub>ClN<sub>3</sub>O<sub>4</sub>",
        "Molecular Mass": "415.87",
        "Melting Point": "192 °C"
    }
}