{
    "cas_no": "2113-51-1",
    "key_name": "2-Iodobiphenyl",
    "cn_name": "2-碘联苯;",
    "alternate_name": "1,1′-Biphenyl, 2-iodo-;Biphenyl, 2-iodo-;2-Iodo-1,1′-biphenyl;<em>o</em>-Phenyliodobenzene;2-Iodobiphenyl;<em>o</em>-Iodobiphenyl;2-Iodo-1-phenylbenzene;NSC 9283;1-Iodo-2-phenylbenzene",
    "duplicated_cas_no": "",
    "SMILES": "IC1=C(C2=CC=CC=C2)C=CC=C1",
    "meta_data": {
        "InChI": "InChI=1S/C12H9I/c13-12-9-5-4-8-11(12)10-6-2-1-3-7-10/h1-9H",
        "InChIKey": null,
        "Canonical SMILES": "IC=1C=CC=CC1C=2C=CC=CC2",
        "Molecular Formula": "C<sub>12</sub>H<sub>9</sub>I",
        "Molecular Mass": "280.10",
        "Boiling Point": "158 °C @ Press: 6 Torr",
        "Melting Point": "55-57 °C",
        "Density": "1.6038 g/cm³ @ Temp: 25 °C"
    }
}