{
    "cas_no": "4358-64-9",
    "key_name": "Erythritan",
    "cn_name": "脱水赤蘚醇;",
    "alternate_name": "3,4-Furandiol, tetrahydro-, (3<em>R</em>,4<em>S</em>)-<em>rel</em>-;Erythritol, 1,4-anhydro-;3,4-Furandiol, tetrahydro-, <em>cis</em>-;<em>rel</em>-(3<em>R</em>,4<em>S</em>)-Tetrahydro-3,4-furandiol;Erythritan;<em>cis</em>-3,4-Dihydroxyoxolane;<em>cis</em>-Tetrahydrofuran-3,4-diol;<em>cis</em>-3,4-Dihydroxytetrahydrofuran;Erythritol-1,4-anhydride;<em>cis</em>-Oxolane-3,4-diol;(3<em>S</em>,4<em>R</em>)-Tetrahydrofuran-3,4-diol;<em>meso</em>-3,4-Dihydroxytetrahydrofuran;(3<em>R</em>,4<em>S</em>)-Tetrahydrofuran-3,4-diol;(3<em>R</em>,4<em>S</em>)-Tetrahydro-3,4-furandiol",
    "duplicated_cas_no": "335385-49-4;944315-60-0;1038555-22-4;1093881-52-7;1312692-23-1;1402224-60-5;1622394-45-9;2050904-90-8;2200293-65-6;2474827-85-3",
    "SMILES": "O[C@H]1[C@@H](O)COC1",
    "meta_data": {
        "InChI": "InChI=1/C4H8O3/c5-3-1-7-2-4(3)6/h3-6H,1-2H2/t3-,4+",
        "InChIKey": null,
        "Canonical SMILES": "OC1COCC1O",
        "Molecular Formula": "C<sub>4</sub>H<sub>8</sub>O<sub>3</sub>",
        "Molecular Mass": "104.10",
        "Boiling Point": "160-165 °C @ Press: 0.17 Torr",
        "Melting Point": "20 °C",
        "Density": "1.38 g/cm³"
    }
}