{
    "cas_no": "2741-16-4",
    "key_name": "(1-Methylethoxy)benzene",
    "cn_name": "1-异丙氧基苯;",
    "alternate_name": "Benzene, (1-methylethoxy)-;Ether, isopropyl phenyl;(1-Methylethoxy)benzene;Isopropyl phenyl ether;Phenyl isopropyl ether;Isopropoxybenzene;2-Phenoxypropane;(Propan-2-yloxy)benzene;1-Isopropoxybenzene",
    "duplicated_cas_no": "",
    "SMILES": "O(C(C)C)C1=CC=CC=C1",
    "meta_data": {
        "InChI": "InChI=1S/C9H12O/c1-8(2)10-9-6-4-3-5-7-9/h3-8H,1-2H3",
        "InChIKey": null,
        "Canonical SMILES": "O(C=1C=CC=CC1)C(C)C",
        "Molecular Formula": "C<sub>9</sub>H<sub>12</sub>O",
        "Molecular Mass": "136.19",
        "Boiling Point": "176.8 °C",
        "Melting Point": "-33 °C",
        "Density": "0.943 g/cm³ @ Temp: 17.5 °C"
    }
}