{
    "cas_no": "512-69-6",
    "key_name": "Raffinose",
    "cn_name": "棉子糖;蜜三糖;甜菜糖;&beta;-D-呋喃(型)果糖基-O-&alpha;-D-吡喃半乳糖基-(1&rarr;6)-&alpha;-D-吡喃葡糖;",
    "alternate_name": "α-<span class=\"text-smallcaps\">D</smallcap>-Glucopyranoside, β-<smallcap>D</smallcap>-fructofuranosyl <em>O</em>-α-<smallcap>D</span>-galactopyranosyl-(1→6)-;Raffinose;β-<span class=\"text-smallcaps\">D</smallcap>-Fructofuranosyl <em>O</em>-α-<smallcap>D</smallcap>-galactopyranosyl-(1→6)-α-<smallcap>D</span>-glucopyranoside;Gossypose;Melitose;Melitriose;<span class=\"text-smallcaps\">D</span>-Raffinose;<span class=\"text-smallcaps\">D</span>-(+)-Raffinose;NSC 170228;NSC 2025;Nittenraffinose;Oligo GGF;Meiji Beet Oligo FP;MeSH ID: D011887",
    "duplicated_cas_no": "127230-13-1",
    "SMILES": "O([C@]1(CO)O[C@H](CO)[C@@H](O)[C@@H]1O)[C@H]2O[C@H](CO[C@H]3O[C@H](CO)[C@H](O)[C@H](O)[C@H]3O)[C@@H](O)[C@H](O)[C@H]2O",
    "meta_data": {
        "InChI": "InChI=1S/C18H32O16/c19-1-5-8(22)11(25)13(27)16(31-5)30-3-7-9(23)12(26)14(28)17(32-7)34-18(4-21)15(29)10(24)6(2-20)33-18/h5-17,19-29H,1-4H2/t5-,6-,7-,8+,9-,10-,11+,12+,13-,14-,15+,16+,17-,18+/m1/s1",
        "InChIKey": null,
        "Canonical SMILES": "OCC1OC(OCC2OC(OC3(OC(CO)C(O)C3O)CO)C(O)C(O)C2O)C(O)C(O)C1O",
        "Molecular Formula": "C<sub>18</sub>H<sub>32</sub>O<sub>16</sub>",
        "Molecular Mass": "504.44",
        "Melting Point": "80 °C"
    }
}