{
    "cas_no": "3031-66-1",
    "key_name": "3-Hexyne-2,5-diol",
    "cn_name": null,
    "alternate_name": "3-Hexyne-2,5-diol;NSC 409184",
    "duplicated_cas_no": "",
    "SMILES": "C(#CC(C)O)C(C)O",
    "meta_data": {
        "InChI": "InChI=1S/C6H10O2/c1-5(7)3-4-6(2)8/h5-8H,1-2H3",
        "InChIKey": null,
        "Canonical SMILES": "OC(C#CC(O)C)C",
        "Molecular Formula": "C<sub>6</sub>H<sub>10</sub>O<sub>2</sub>",
        "Molecular Mass": "114.14",
        "Boiling Point": "122 °C @ Press: 15 Torr",
        "Melting Point": "69-70 °C",
        "Density": "1.0205 g/cm³ @ Temp: 13 °C"
    }
}