{
    "cas_no": "6349-98-0",
    "key_name": "2-(1,3-Dihydro-1,3-dioxo-2<em>H</em>-isoindol-2-yl)pentanedioic acid",
    "cn_name": "(L)-2-苯二甲酰亚氨基戊二酸;",
    "alternate_name": "Pentanedioic acid, 2-(1,3-dihydro-1,3-dioxo-2<em>H</em>-isoindol-2-yl)-;Glutaric acid, 2-phthalimido-;2-(1,3-Dihydro-1,3-dioxo-2<em>H</em>-isoindol-2-yl)pentanedioic acid;2-Phthalimidoglutaric acid;Ba 2733;<span class=\"text-smallcaps\">DL</span>-2-Phthalimidoglutaric acid;2-Phthalimido-<span class=\"text-smallcaps\">DL</span>-glutaric acid;NSC 120849;NSC 43131;2-(1,3-Dioxo-2,3-dihydro-1<em>H</em>-isoindol-2-yl)pentanedioic acid;2-(1,3-Dioxoisoindol-2-yl)pentanedioic acid;2-(1,3-Dioxoisoindolin-2-yl)pentanedioic acid",
    "duplicated_cas_no": "2301-52-2;942911-47-9",
    "SMILES": "C(CCC(O)=O)(C(O)=O)N1C(=O)C=2C(C1=O)=CC=CC2",
    "meta_data": {
        "InChI": "InChI=1S/C13H11NO6/c15-10(16)6-5-9(13(19)20)14-11(17)7-3-1-2-4-8(7)12(14)18/h1-4,9H,5-6H2,(H,15,16)(H,19,20)",
        "InChIKey": null,
        "Canonical SMILES": "O=C(O)CCC(C(=O)O)N1C(=O)C=2C=CC=CC2C1=O",
        "Molecular Formula": "C<sub>13</sub>H<sub>11</sub>NO<sub>6</sub>",
        "Molecular Mass": "277.23",
        "Melting Point": "189-190 °C"
    }
}