{
    "cas_no": "123-57-9",
    "key_name": "3,5-Dimethylmorpholine",
    "cn_name": null,
    "alternate_name": "Morpholine, 3,5-dimethyl-;3,5-Dimethylmorpholine;NSC 28666",
    "duplicated_cas_no": "145202-40-0",
    "SMILES": "CC1NC(C)COC1",
    "meta_data": {
        "InChI": "InChI=1S/C6H13NO/c1-5-3-8-4-6(2)7-5/h5-7H,3-4H2,1-2H3",
        "InChIKey": null,
        "Canonical SMILES": "O1CC(NC(C)C1)C",
        "Molecular Formula": "C<sub>6</sub>H<sub>13</sub>NO",
        "Molecular Mass": "115.17",
        "Boiling Point": "142.5 °C",
        "Density": "0.9308 g/cm³ @ Temp: 16 °C"
    }
}