{
    "cas_no": "586-62-9",
    "key_name": "Terpinolene",
    "cn_name": "萜品油烯;异松油烯;",
    "alternate_name": "Cyclohexene, 1-methyl-4-(1-methylethylidene)-;<em>p</em>-Mentha-1,4(8)-diene;1-Methyl-4-(1-methylethylidene)cyclohexene;Terpinolene;α-Terpinolene;Terpinolen;4-Isopropylidene-1-methylcyclohexene;Isoterpinene;Nofmer TP;δ-Terpinene;Terpinolene 95PF;1-Methyl-4-propan-2-ylidene-cyclohexene;1-Methyl-4-(propan-2-ylidene)cyclohex-1-ene",
    "duplicated_cas_no": "69073-38-7",
    "SMILES": "C(C)(C)=C1CCC(C)=CC1",
    "meta_data": {
        "InChI": "InChI=1S/C10H16/c1-8(2)10-6-4-9(3)5-7-10/h4H,5-7H2,1-3H3",
        "InChIKey": null,
        "Canonical SMILES": "C1=C(C)CCC(=C(C)C)C1",
        "Molecular Formula": "C<sub>10</sub>H<sub>16</sub>",
        "Molecular Mass": "136.23",
        "Boiling Point": "185 °C @ Press: 760 Torr",
        "Melting Point": "&lt;25 °C",
        "Density": "0.8623 g/cm³ @ Temp: 20 °C"
    }
}