{
    "cas_no": "283-56-7",
    "key_name": "Triethanolamine borate",
    "cn_name": "三乙醇胺硼酸酯;",
    "alternate_name": "2,8,9-Trioxa-5-aza-1-borabicyclo[3.3.3]undecane;Ethanol, 2,2′,2′′-nitrilotri-, cyclic ester with boric acid (H<sub>3</sub>BO<sub>3</sub>) (1:1);Ethanol, 2,2′,2′′-nitrilotri-, cyclic borate;Ethanol, 2,2′,2′′-nitrilotri-, borate;Boratran;Triethanolamine borate;Boratrane;Boron, [[2,2′,2′′-nitrilotris[ethanolato]](3-)]-;Ethanol, 2,2′,2′′-nitrilotris-, cyclic ester with boric acid (H<sub>3</sub>BO<sub>3</sub>) (1:1);Atracor T;NSC 5220;Arborite Binder 75;DX 6215",
    "duplicated_cas_no": "31820-05-0;37168-01-7",
    "SMILES": "B12OCCN(CCO1)CCO2",
    "meta_data": {
        "InChI": "InChI=1S/C6H12BNO3/c1-4-9-7-10-5-2-8(1)3-6-11-7/h1-6H2",
        "InChIKey": null,
        "Canonical SMILES": "O1B2OCCN(CC1)CCO2",
        "Molecular Formula": "C<sub>6</sub>H<sub>12</sub>BNO<sub>3</sub>",
        "Molecular Mass": "156.98",
        "Melting Point": "245-247 °C"
    }
}