{
    "cas_no": "68931-30-6",
    "key_name": "3,7,11,15-Tetramethyl-1,6,10,14-hexadecatetraen-3-ol",
    "cn_name": null,
    "alternate_name": "1,6,10,14-Hexadecatetraen-3-ol, 3,7,11,15-tetramethyl-;3,7,11,15-Tetramethyl-1,6,10,14-hexadecatetraen-3-ol;3,7,11,15-Tetramethyl-3-hydroxy-1,6,10,14-hexadecatetraene;3,7,11,15-Tetramethyl-1,6,10,14-cetene-3-ol",
    "duplicated_cas_no": "",
    "SMILES": "C(CC(C=C)(C)O)C=C(CCC=C(CCC=C(C)C)C)C",
    "meta_data": {
        "InChI": "InChI=1S/C20H34O/c1-7-20(6,21)16-10-15-19(5)14-9-13-18(4)12-8-11-17(2)3/h7,11,13,15,21H,1,8-10,12,14,16H2,2-6H3",
        "InChIKey": null,
        "Canonical SMILES": "OC(C=C)(C)CCC=C(C)CCC=C(C)CCC=C(C)C",
        "Molecular Formula": "C<sub>20</sub>H<sub>34</sub>O",
        "Molecular Mass": "290.48",
        "Boiling Point": "115-116 °C @ Press: 0.3 Torr",
        "Density": "0.8744 g/cm³ @ Temp: 20 °C"
    }
}