{
    "cas_no": "886-65-7",
    "key_name": "1,4-Diphenyl-1,3-butadiene",
    "cn_name": "1,4-二苯基-1,3-丁二烯;",
    "alternate_name": "Benzene, 1,1′-(1,3-butadiene-1,4-diyl)bis-;1,3-Butadiene, 1,4-diphenyl-;1,1′-(1,3-Butadiene-1,4-diyl)bis[benzene];Bistyryl;1,4-Diphenylbutadiene;1,4-Diphenyl-1,3-butadiene;1,4-Diphenylerythrene;Distyryl;DPB;α,ω-Diphenylbutadiene;DPB (fluor);NSC 122702",
    "duplicated_cas_no": "12766-12-0",
    "SMILES": "C(=CC=CC1=CC=CC=C1)C2=CC=CC=C2",
    "meta_data": {
        "InChI": "InChI=1S/C16H14/c1-3-9-15(10-4-1)13-7-8-14-16-11-5-2-6-12-16/h1-14H",
        "InChIKey": null,
        "Canonical SMILES": "C=1C=CC(=CC1)C=CC=CC=2C=CC=CC2",
        "Molecular Formula": "C<sub>16</sub>H<sub>14</sub>",
        "Molecular Mass": "206.28",
        "Boiling Point": "350 °C",
        "Melting Point": "152 °C"
    }
}