{
    "cas_no": "51826-90-5",
    "key_name": "(3-Bromopropyl)trimethoxysilane",
    "cn_name": null,
    "alternate_name": "Silane, (3-bromopropyl)trimethoxy-;(3-Bromopropyl)trimethoxysilane;1-Bromo-3-trimethoxysilylpropane;γ-Bromopropyltrimethoxysilane;SIB 1906.0",
    "duplicated_cas_no": "",
    "SMILES": "[Si](CCCBr)(OC)(OC)OC",
    "meta_data": {
        "InChI": "InChI=1S/C6H15BrO3Si/c1-8-11(9-2,10-3)6-4-5-7/h4-6H2,1-3H3",
        "InChIKey": null,
        "Canonical SMILES": "BrCCC[Si](OC)(OC)OC",
        "Molecular Formula": "C<sub>6</sub>H<sub>15</sub>BrO<sub>3</sub>Si",
        "Molecular Mass": "243.17",
        "Boiling Point": "130 °C @ Press: 45 Torr",
        "Density": "1.293 g/cm³"
    }
}