{
    "cas_no": "32644-15-8",
    "key_name": "(2<em>S</em>)-2-Bromopropanoic acid",
    "cn_name": "L-2-溴丙酸;(S)-(-)-2-溴丙酸;",
    "alternate_name": "Propanoic acid, 2-bromo-, (2<em>S</em>)-;Propanoic acid, 2-bromo-, (<em>S</em>)-;Propionic acid, 2-bromo-, (<em>S</em>)-;(2<em>S</em>)-2-Bromopropanoic acid;<span class=\"text-smallcaps\">L</span>-α-Bromopropionic acid;<span class=\"text-smallcaps\">L</span>-2-Bromopropionic acid;(<em>S</em>)-2-Bromopropionic acid;(2<em>S</em>)-2-Bromopropionic acid;(-)-2-Bromopropionic acid;(-)-2-Bromopropanoic acid;(-)-α-Bromopropanoic acid;(<em>S</em>)-(-)-2-Bromopropionic acid;(<em>S</em>)-α-Bromopropionic acid;(<em>S</em>)-2-Bromopropanoic acid;(2S)-2-Bromopropanoic acid",
    "duplicated_cas_no": "",
    "SMILES": "[C@H](C(O)=O)(Br)C",
    "meta_data": {
        "InChI": "InChI=1S/C3H5BrO2/c1-2(4)3(5)6/h2H,1H3,(H,5,6)/t2-/m0/s1",
        "InChIKey": null,
        "Canonical SMILES": "O=C(O)C(Br)C",
        "Molecular Formula": "C<sub>3</sub>H<sub>5</sub>BrO<sub>2</sub>",
        "Molecular Mass": "152.97",
        "Boiling Point": "97-98 °C @ Press: 11 Torr"
    }
}