{
    "cas_no": "83435-67-0",
    "key_name": "Delapril hydrochloride",
    "cn_name": null,
    "alternate_name": "Glycine, <em>N</em>-[(1<em>S</em>)-1-(ethoxycarbonyl)-3-phenylpropyl]-<span class=\"text-smallcaps\">L</span>-alanyl-<em>N</em>-(2,3-dihydro-1<em>H</em>-inden-2-yl)-, hydrochloride (1:1);Glycine, <em>N</em>-(2,3-dihydro-1<em>H</em>-inden-2-yl)-<em>N</em>-[<em>N</em>-[1-(ethoxycarbonyl)-3-phenylpropyl]-<span class=\"text-smallcaps\">L</span>-alanyl]-, monohydrochloride, (<em>S</em>)-;Glycine, <em>N</em>-[(1<em>S</em>)-1-(ethoxycarbonyl)-3-phenylpropyl]-<span class=\"text-smallcaps\">L</span>-alanyl-<em>N</em>-(2,3-dihydro-1<em>H</em>-inden-2-yl)-, monohydrochloride;CV 3317;Delapril hydrochloride;Adecut;Cupressin;REV 6000A",
    "duplicated_cas_no": "119543-18-9",
    "SMILES": "N(C([C@@H](N[C@@H](CCC1=CC=CC=C1)C(OCC)=O)C)=O)(CC(O)=O)C2CC=3C(C2)=CC=CC3.Cl",
    "meta_data": {
        "InChI": "InChI=1S/C26H32N2O5.ClH/c1-3-33-26(32)23(14-13-19-9-5-4-6-10-19)27-18(2)25(31)28(17-24(29)30)22-15-20-11-7-8-12-21(20)16-22;/h4-12,18,22-23,27H,3,13-17H2,1-2H3,(H,29,30);1H/t18-,23-;/m0./s1",
        "InChIKey": null,
        "Canonical SMILES": "Cl.O=C(O)CN(C(=O)C(NC(C(=O)OCC)CCC=1C=CC=CC1)C)C2CC=3C=CC=CC3C2",
        "Molecular Formula": "C<sub>26</sub>H<sub>32</sub>N<sub>2</sub>O<sub>5</sub>.ClH",
        "Molecular Mass": "",
        "Melting Point": "166-170 °C"
    }
}