{
    "cas_no": "13519-75-0",
    "key_name": "4-Chloro-<em>N</em>-ethylbenzenamine",
    "cn_name": "乙基氯苯胺;",
    "alternate_name": "Benzenamine, 4-chloro-<em>N</em>-ethyl-;Aniline, <em>p</em>-chloro-<em>N</em>-ethyl-;4-Chloro-<em>N</em>-ethylbenzenamine;<em>p</em>-Chloro-<em>N</em>-ethylaniline;<em>N</em>-Ethyl-<em>p</em>-chloroaniline;<em>N</em>-Ethyl-4-chloroaniline;4-Chloro-<em>N</em>-ethylaniline;<em>N</em>-(4-Chlorophenyl)-<em>N</em>-ethylamine;<em>N</em>-(4-Chlorophenyl)ethylamine",
    "duplicated_cas_no": "",
    "SMILES": "N(CC)C1=CC=C(Cl)C=C1",
    "meta_data": {
        "InChI": "InChI=1S/C8H10ClN/c1-2-10-8-5-3-7(9)4-6-8/h3-6,10H,2H2,1H3",
        "InChIKey": null,
        "Canonical SMILES": "ClC1=CC=C(C=C1)NCC",
        "Molecular Formula": "C<sub>8</sub>H<sub>10</sub>ClN",
        "Molecular Mass": "155.62",
        "Boiling Point": "247-250 °C @ Press: 760 Torr"
    }
}