{
    "cas_no": "5081-87-8",
    "key_name": "3-(2-Chloroethyl)-2,4(1<em>H</em>,3<em>H</em>)-quinazolinedione",
    "cn_name": "3-(2-氯乙基)-2,4(1H,3H)-喹唑啉二酮;",
    "alternate_name": "2,4(1<em>H</em>,3<em>H</em>)-Quinazolinedione, 3-(2-chloroethyl)-;4(3<em>H</em>)-Quinazolinone, 3-(2-chloroethyl)-2-hydroxy-;3-(2-Chloroethyl)-2,4(1<em>H</em>,3<em>H</em>)-quinazolinedione",
    "duplicated_cas_no": "",
    "SMILES": "O=C1C=2C(NC(=O)N1CCCl)=CC=CC2",
    "meta_data": {
        "InChI": "InChI=1S/C10H9ClN2O2/c11-5-6-13-9(14)7-3-1-2-4-8(7)12-10(13)15/h1-4H,5-6H2,(H,12,15)",
        "InChIKey": null,
        "Canonical SMILES": "O=C1NC=2C=CC=CC2C(=O)N1CCCl",
        "Molecular Formula": "C<sub>10</sub>H<sub>9</sub>ClN<sub>2</sub>O<sub>2</sub>",
        "Molecular Mass": "224.64",
        "Melting Point": "195.5-196.0 °C"
    }
}