{
    "cas_no": "100-81-2",
    "key_name": "3-Methylbenzylamine",
    "cn_name": "3-甲基苄胺;",
    "alternate_name": "Benzenemethanamine, 3-methyl-;Benzylamine, <em>m</em>-methyl-;3-Methylbenzenemethanamine;<em>m</em>-Methylbenzylamine;3-Methylbenzylamine;<em>m</em>-Xylylamine;[(3-Methylphenyl)methyl]amine;3-Methylbezyl amine;<em>m</em>-Tolylmethanamine;(3-Methylphenyl)methanamine;1-(3-Methylphenyl)methanamine",
    "duplicated_cas_no": "",
    "SMILES": "C(N)C1=CC(C)=CC=C1",
    "meta_data": {
        "InChI": "InChI=1S/C8H11N/c1-7-3-2-4-8(5-7)6-9/h2-5H,6,9H2,1H3",
        "InChIKey": null,
        "Canonical SMILES": "NCC=1C=CC=C(C1)C",
        "Molecular Formula": "C<sub>8</sub>H<sub>11</sub>N",
        "Molecular Mass": "121.18",
        "Boiling Point": "203.5 °C"
    }
}