{
    "cas_no": "16630-66-3",
    "key_name": "Methyl (methylthio)acetate",
    "cn_name": "甲硫基醋酸甲酯;",
    "alternate_name": "Acetic acid, 2-(methylthio)-, methyl ester;Acetic acid, (methylthio)-, methyl ester;Methyl (methylthio)acetate;Methyl 2-(methylthio)acetate;(Methylthio)acetic acid methyl ester;Methylsulfanylacetic acid methyl ester;Methyl methylsulfanylacetate;Methylmercaptoacetic acid methyl ester",
    "duplicated_cas_no": "",
    "SMILES": "C(CSC)(OC)=O",
    "meta_data": {
        "InChI": "InChI=1S/C4H8O2S/c1-6-4(5)3-7-2/h3H2,1-2H3",
        "InChIKey": null,
        "Canonical SMILES": "O=C(OC)CSC",
        "Molecular Formula": "C<sub>4</sub>H<sub>8</sub>O<sub>2</sub>S",
        "Molecular Mass": "120.17",
        "Boiling Point": "53-55 °C @ Press: 11 Torr"
    }
}