{
    "cas_no": "402616-26-6",
    "key_name": "1,3-Propanediol, 2-amino-2-[2-(4-octylphenyl)ethyl]-, 1-(dihydrogen phosphate), (2<em>S</em>)-",
    "cn_name": null,
    "alternate_name": "1,3-Propanediol, 2-amino-2-[2-(4-octylphenyl)ethyl]-, 1-(dihydrogen phosphate), (2<em>S</em>)-;1,3-Propanediol, 2-amino-2-[2-(4-octylphenyl)ethyl]-, mono(dihydrogen phosphate) (ester), (2<em>S</em>)-;(+)-(<em>S</em>)-FTY 720 phosphate;(<em>S</em>)-FTY 720P;(<em>S</em>)-2-Amino-2-(hydroxymethyl)-4-(4-octylphenyl)butyl dihydrogen phosphate",
    "duplicated_cas_no": "",
    "SMILES": "C(C[C@@](COP(=O)(O)O)(CO)N)C1=CC=C(CCCCCCCC)C=C1",
    "meta_data": {
        "InChI": "InChI=1S/C19H34NO5P/c1-2-3-4-5-6-7-8-17-9-11-18(12-10-17)13-14-19(20,15-21)16-25-26(22,23)24/h9-12,21H,2-8,13-16,20H2,1H3,(H2,22,23,24)/t19-/m0/s1",
        "InChIKey": null,
        "Canonical SMILES": "O=P(O)(O)OCC(N)(CO)CCC1=CC=C(C=C1)CCCCCCCC",
        "Molecular Formula": "C<sub>19</sub>H<sub>34</sub>NO<sub>5</sub>P",
        "Molecular Mass": "387.45",
        "Melting Point": "198-199 °C"
    }
}