{
    "cas_no": "7789-66-4",
    "key_name": "Silicon bromide",
    "cn_name": "溴化硅;溴化硅(IV);",
    "alternate_name": "Silane, tetrabromo-;Silicon bromide (SiBr<sub>4</sub>);Tetrabromosilane;Silicon tetrabromide;Perbromosilane;Silicon bromide",
    "duplicated_cas_no": "",
    "SMILES": "[Si](Br)(Br)(Br)Br",
    "meta_data": {
        "InChI": "InChI=1S/Br4Si/c1-5(2,3)4",
        "InChIKey": null,
        "Canonical SMILES": "Br[Si](Br)(Br)Br",
        "Molecular Formula": "Br<sub>4</sub>Si",
        "Molecular Mass": "347.70",
        "Boiling Point": "154 °C",
        "Melting Point": "5 °C",
        "Density": "2.772 g/cm³ @ Temp: 25 °C"
    }
}