{
    "cas_no": "51-65-0",
    "key_name": "<em>p</em>-Fluorophenylalanine",
    "cn_name": "DL-4-氟苯丙氨酸;DL-对氟苯丙氨酸;",
    "alternate_name": "Phenylalanine, 4-fluoro-;Alanine, 3-(<em>p</em>-fluorophenyl)-, <span class=\"text-smallcaps\">DL</span>-;<span class=\"text-smallcaps\">DL</span>-Phenylalanine, 4-fluoro-;4-Fluorophenylalanine;FPA;<em>p</em>-Fluoro-<span class=\"text-smallcaps\">DL</span>-phenylalanine;4-Fluoro-<span class=\"text-smallcaps\">DL</span>-phenylalanine;<span class=\"text-smallcaps\">DL</span>-4-Fluorophenylalanine;<span class=\"text-smallcaps\">DL</span>-<em>p</em>-Fluorophenylalanine;<span class=\"text-smallcaps\">DL</span>-3-(<em>p</em>-Fluorophenyl)alanine;Alnasid;<em>p</em>-Fluorophenylalanine;(±)-4-Fluorophenylalanine;PFPA;NSC 71433;2-Amino-3-(4-fluorophenyl)propanoic acid;α-Amino-4-fluorobenzenepropanoic acid",
    "duplicated_cas_no": "60-17-3;300-64-1",
    "SMILES": "C(C(C(O)=O)N)C1=CC=C(F)C=C1",
    "meta_data": {
        "InChI": "InChI=1S/C9H10FNO2/c10-7-3-1-6(2-4-7)5-8(11)9(12)13/h1-4,8H,5,11H2,(H,12,13)",
        "InChIKey": null,
        "Canonical SMILES": "O=C(O)C(N)CC1=CC=C(F)C=C1",
        "Molecular Formula": "C<sub>9</sub>H<sub>10</sub>FNO<sub>2</sub>",
        "Molecular Mass": "183.18",
        "Melting Point": "238-242 °C (decomp)"
    }
}