{
    "cas_no": "456-06-4",
    "key_name": "4-Fluorobenzoic acid hydrazide",
    "cn_name": "4-氟苯甲酰肼;对氟苯甲酰肼;",
    "alternate_name": "Benzoic acid, 4-fluoro-, hydrazide;Benzoic acid, <em>p</em>-fluoro-, hydrazide;<em>p</em>-Fluorobenzoic acid hydrazide;4-Fluorobenzhydrazide;4-Fluorobenzoylhydrazine;4-Fluorobenzoic acid hydrazide;<em>p</em>-Fluorobenzoyl hydrazide;4-Fluorobenzoic hydrazide;4-Fluorobenzoylhydrazide;4-Fluorobenzenecarboxylic hydrazide",
    "duplicated_cas_no": "",
    "SMILES": "C(NN)(=O)C1=CC=C(F)C=C1",
    "meta_data": {
        "InChI": "InChI=1S/C7H7FN2O/c8-6-3-1-5(2-4-6)7(11)10-9/h1-4H,9H2,(H,10,11)",
        "InChIKey": null,
        "Canonical SMILES": "O=C(NN)C1=CC=C(F)C=C1",
        "Molecular Formula": "C<sub>7</sub>H<sub>7</sub>FN<sub>2</sub>O",
        "Molecular Mass": "154.14",
        "Melting Point": "121-123 °C"
    }
}