{
    "cas_no": "54187-04-1",
    "key_name": "Rilmenidine",
    "cn_name": null,
    "alternate_name": "2-Oxazolamine, <em>N</em>-(dicyclopropylmethyl)-4,5-dihydro-;<em>N</em>-(Dicyclopropylmethyl)-4,5-dihydro-2-oxazolamine;S 3341;Rilmenidine;Oxaminozoline;Rilmenidene;NSC 664312",
    "duplicated_cas_no": "",
    "SMILES": "C(NC1=NCCO1)(C2CC2)C3CC3",
    "meta_data": {
        "InChI": "InChI=1S/C10H16N2O/c1-2-7(1)9(8-3-4-8)12-10-11-5-6-13-10/h7-9H,1-6H2,(H,11,12)",
        "InChIKey": null,
        "Canonical SMILES": "N1=C(OCC1)NC(C2CC2)C3CC3",
        "Molecular Formula": "C<sub>10</sub>H<sub>16</sub>N<sub>2</sub>O",
        "Molecular Mass": "180.25",
        "Melting Point": "106-107 °C"
    }
}