{
    "cas_no": "53778-73-7",
    "key_name": "1-Methoxy-2-butanol",
    "cn_name": null,
    "alternate_name": "2-Butanol, 1-methoxy-;1-Methoxy-2-butanol;1,2-Butylene glycol 1-methyl ether;1-Methoxy-2-hydroxybutane;1-(Methoxymethyl)-1-propanol",
    "duplicated_cas_no": "133964-14-4;84376-62-5",
    "SMILES": "C(COC)(CC)O",
    "meta_data": {
        "InChI": "InChI=1S/C5H12O2/c1-3-5(6)4-7-2/h5-6H,3-4H2,1-2H3",
        "InChIKey": null,
        "Canonical SMILES": "OC(COC)CC",
        "Molecular Formula": "C<sub>5</sub>H<sub>12</sub>O<sub>2</sub>",
        "Molecular Mass": "104.15",
        "Boiling Point": "73-75 °C @ Press: 85 Torr"
    }
}