{
    "cas_no": "43156-47-4",
    "key_name": "2-Nitro-5-(phenylthio)benzenamine",
    "cn_name": "2-硝基-5-苯巯基苯胺;",
    "alternate_name": "Benzenamine, 2-nitro-5-(phenylthio)-;2-Nitro-5-(phenylthio)benzenamine;2-Amino-4-phenylthio-1-nitrobenzene;1-Amino-2-nitro-5-phenylthiobenzene;2-Nitro-5-phenylthioaniline;2-Nitro-5-phenylsulfanylaniline",
    "duplicated_cas_no": "",
    "SMILES": "S(C1=CC(N)=C(N(=O)=O)C=C1)C2=CC=CC=C2",
    "meta_data": {
        "InChI": "InChI=1S/C12H10N2O2S/c13-11-8-10(6-7-12(11)14(15)16)17-9-4-2-1-3-5-9/h1-8H,13H2",
        "InChIKey": null,
        "Canonical SMILES": "O=N(=O)C1=CC=C(SC=2C=CC=CC2)C=C1N",
        "Molecular Formula": "C<sub>12</sub>H<sub>10</sub>N<sub>2</sub>O<sub>2</sub>S",
        "Molecular Mass": "246.29",
        "Melting Point": "145-146 °C"
    }
}