{
    "cas_no": "3296-90-0",
    "key_name": "2,2-Bis(bromomethyl)-1,3-propanediol",
    "cn_name": "二溴新戊二醇;2,2-双(溴甲基)-1,3-丙二醇;",
    "alternate_name": "1,3-Propanediol, 2,2-bis(bromomethyl)-;2,2-Bis(bromomethyl)-1,3-propanediol;Pentaerythritol dibromide;Dibromoneopentyl glycol;2,2-Dibromomethyl-1,3-propanediol;1,3-Dibromo-2,2-dimethylolpropane;Pentaerythritol dibromohydrin;FR 1138;1,3-Dibromo-2,2-dihydroxymethylpropane;FR 522;NSC 9001;1,3-Dibromo-2,2-bis(hydroxymethyl)propane",
    "duplicated_cas_no": "",
    "SMILES": "C(CBr)(CBr)(CO)CO",
    "meta_data": {
        "InChI": "InChI=1S/C5H10Br2O2/c6-1-5(2-7,3-8)4-9/h8-9H,1-4H2",
        "InChIKey": null,
        "Canonical SMILES": "BrCC(CBr)(CO)CO",
        "Molecular Formula": "C<sub>5</sub>H<sub>10</sub>Br<sub>2</sub>O<sub>2</sub>",
        "Molecular Mass": "261.94",
        "Melting Point": "111-113 °C"
    }
}