{
    "cas_no": "2314-09-2",
    "key_name": "Flurenol-butyl",
    "cn_name": "9-羟基芴-9-羧酸丁酯;",
    "alternate_name": "9<em>H</em>-Fluorene-9-carboxylic acid, 9-hydroxy-, butyl ester;Fluorene-9-carboxylic acid, 9-hydroxy-, butyl ester;IT 3233;Butyl morphactin;Butyl 9-hydroxyfluorene-9-carboxylate;TH 407-H;Morphactin IT 3233;Flurecol-butyl;9-Hydroxyfluorene-9-carboxylic acid butyl ester;9-Hydroxy-9<em>H</em>-fluorene-9-carboxylic acid butyl ester;Butyl 9-hydroxyfluorenyl-9-carboxylate;EMD 7311W;Flurenol butyl ester;Flurenol ester;Butyl flurenol;EMD IT 3233;Flurenol-butyl",
    "duplicated_cas_no": "11116-44-2;14375-28-1",
    "SMILES": "C(OCCCC)(=O)C1(O)C=2C(C=3C1=CC=CC3)=CC=CC2",
    "meta_data": {
        "InChI": "InChI=1S/C18H18O3/c1-2-3-12-21-17(19)18(20)15-10-6-4-8-13(15)14-9-5-7-11-16(14)18/h4-11,20H,2-3,12H2,1H3",
        "InChIKey": null,
        "Canonical SMILES": "O=C(OCCCC)C1(O)C=2C=CC=CC2C=3C=CC=CC31",
        "Molecular Formula": "C<sub>18</sub>H<sub>18</sub>O<sub>3</sub>",
        "Molecular Mass": "282.33",
        "Melting Point": "71 °C"
    }
}