{
    "cas_no": "63935-38-6",
    "key_name": "Cycloprothrin",
    "cn_name": "杀螟菊酯;(R,S)-&alpha;-氰基-3-苯氧基苄基(R,S)-2,2-二氯-1-(4-乙氧基苯基)环丙烷羧酸酯;",
    "alternate_name": "Cyclopropanecarboxylic acid, 2,2-dichloro-1-(4-ethoxyphenyl)-, cyano(3-phenoxyphenyl)methyl ester;Phencyclate;NK 8116;GH 414;Cycloprothrin;Cyclosal;Cyclosal (insecticide)",
    "duplicated_cas_no": "",
    "SMILES": "C(OC(C#N)C1=CC(OC2=CC=CC=C2)=CC=C1)(=O)C3(C(Cl)(Cl)C3)C4=CC=C(OCC)C=C4",
    "meta_data": {
        "InChI": "InChI=1S/C26H21Cl2NO4/c1-2-31-20-13-11-19(12-14-20)25(17-26(25,27)28)24(30)33-23(16-29)18-7-6-10-22(15-18)32-21-8-4-3-5-9-21/h3-15,23H,2,17H2,1H3",
        "InChIKey": null,
        "Canonical SMILES": "N#CC(OC(=O)C1(C2=CC=C(OCC)C=C2)CC1(Cl)Cl)C=3C=CC=C(OC=4C=CC=CC4)C3",
        "Molecular Formula": "C<sub>26</sub>H<sub>21</sub>Cl<sub>2</sub>NO<sub>4</sub>",
        "Molecular Mass": "482.36",
        "Boiling Point": "142.5 °C",
        "Melting Point": "&lt;25 °C"
    }
}