{
    "cas_no": "111-69-3",
    "key_name": "Adiponitrile",
    "cn_name": "1,4-二氰基丁烷;己二腈;",
    "alternate_name": "Hexanedinitrile;Adiponitrile;Adipic acid dinitrile;1,4-Dicyanobutane;Adipodinitrile;Adipic acid nitrile;Adipic dinitrile;NSC 7617;Butanedicarbonitrile",
    "duplicated_cas_no": "55462-97-0",
    "SMILES": "C(CCC#N)CC#N",
    "meta_data": {
        "InChI": "InChI=1S/C6H8N2/c7-5-3-1-2-4-6-8/h1-4H2",
        "InChIKey": null,
        "Canonical SMILES": "N#CCCCCC#N",
        "Molecular Formula": "C<sub>6</sub>H<sub>8</sub>N<sub>2</sub>",
        "Molecular Mass": "108.14",
        "Boiling Point": "295 °C @ Press: 760 Torr",
        "Melting Point": "1-3 °C",
        "Density": "0.9676 g/cm³ @ Temp: 20 °C"
    }
}