{
    "cas_no": "1517-63-1",
    "key_name": "4-Methylbenzhydrol",
    "cn_name": "4-甲基二苯甲醇;",
    "alternate_name": "Benzenemethanol, 4-methyl-α-phenyl-;Benzhydrol, 4-methyl-;4-Methyl-α-phenylbenzenemethanol;4-Methylbenzhydrol;<em>p</em>-Methylbenzhydrol;Phenyl-<em>p</em>-tolylmethanol;α-(4-Methylphenyl)benzenemethanol;α-(4-Methylphenyl)phenylmethanol;4-Methylphenyl(phenyl)methanol;Phenyl(4-tolyl)methanol;NSC 5324;1-(4-Methylphenyl)-1-phenylmethanol",
    "duplicated_cas_no": "38379-45-2",
    "SMILES": "C(O)(C1=CC=C(C)C=C1)C2=CC=CC=C2",
    "meta_data": {
        "InChI": "InChI=1S/C14H14O/c1-11-7-9-13(10-8-11)14(15)12-5-3-2-4-6-12/h2-10,14-15H,1H3",
        "InChIKey": null,
        "Canonical SMILES": "OC(C=1C=CC=CC1)C2=CC=C(C=C2)C",
        "Molecular Formula": "C<sub>14</sub>H<sub>14</sub>O",
        "Molecular Mass": "198.26",
        "Melting Point": "50-54 °C"
    }
}