{
    "cas_no": "107-81-3",
    "key_name": "2-Bromopentane",
    "cn_name": "2-溴戊烷;",
    "alternate_name": "Pentane, 2-bromo-;2-Bromopentane;2-Pentyl bromide;(±)-2-Bromopentane;NSC 7896",
    "duplicated_cas_no": "130321-66-3",
    "SMILES": "C(C(Br)C)CC",
    "meta_data": {
        "InChI": "InChI=1S/C5H11Br/c1-3-4-5(2)6/h5H,3-4H2,1-2H3",
        "InChIKey": null,
        "Canonical SMILES": "BrC(C)CCC",
        "Molecular Formula": "C<sub>5</sub>H<sub>11</sub>Br",
        "Molecular Mass": "151.04",
        "Boiling Point": "117.4 °C",
        "Melting Point": "-95.5 °C"
    }
}