{
    "cas_no": "74159-80-1",
    "key_name": "1-Chloro-4-(ethylsulfonyl)-2-nitrobenzene",
    "cn_name": "2-硝基-4-乙砜基氯苯;",
    "alternate_name": "Benzene, 1-chloro-4-(ethylsulfonyl)-2-nitro-;Sulfone, 4-chloro-3-nitrophenyl ethyl;1-Chloro-4-(ethylsulfonyl)-2-nitrobenzene;2-Chloro-5-ethylsulfonylnitrobenzene;4-Chloro-3-nitrophenyl ethyl sulfone;1-Chloro-4-ethylsulfonyl-2-nitrobenzene;1-Chloro-4-ethanesulfonyl-2-nitro-benzene",
    "duplicated_cas_no": "",
    "SMILES": "S(CC)(=O)(=O)C1=CC(N(=O)=O)=C(Cl)C=C1",
    "meta_data": {
        "InChI": "InChI=1S/C8H8ClNO4S/c1-2-15(13,14)6-3-4-7(9)8(5-6)10(11)12/h3-5H,2H2,1H3",
        "InChIKey": null,
        "Canonical SMILES": "O=N(=O)C1=CC(=CC=C1Cl)S(=O)(=O)CC",
        "Molecular Formula": "C<sub>8</sub>H<sub>8</sub>ClNO<sub>4</sub>S",
        "Molecular Mass": "249.67",
        "Melting Point": "98-100 °C"
    }
}