{
    "cas_no": "502-56-7",
    "key_name": "5-Nonanone",
    "cn_name": "5-壬酮;二丁基甲酮;",
    "alternate_name": "5-Nonanone;Butyl ketone;Dibutyl ketone;NSC 14761",
    "duplicated_cas_no": "",
    "SMILES": "C(CCCC)(CCCC)=O",
    "meta_data": {
        "InChI": "InChI=1S/C9H18O/c1-3-5-7-9(10)8-6-4-2/h3-8H2,1-2H3",
        "InChIKey": null,
        "Canonical SMILES": "O=C(CCCC)CCCC",
        "Molecular Formula": "C<sub>9</sub>H<sub>18</sub>O",
        "Molecular Mass": "142.24",
        "Boiling Point": "188.4 °C",
        "Melting Point": "-5.9 °C",
        "Density": "0.8217 g/cm³ @ Temp: 20 °C"
    }
}