{
    "cas_no": "74214-62-3",
    "key_name": "Ethyl β-carboline-3-carboxylate",
    "cn_name": null,
    "alternate_name": "9<em>H</em>-Pyrido[3,4-<em>b</em>]indole-3-carboxylic acid, ethyl ester;β-Carboline-3-carboxylic acid ethyl ester;Ro 15-2538;Norharman-3-carboxylic acid ethyl ester;β-CCE;Ethyl β-carboline-3-carboxylate;3-Carboxy-β-carboline ethyl ester;3-(Ethoxycarbonyl)-β-carboline;NSC 610937;Ethyl 9<em>H</em>-β-carboline-3-carboxylate;3-Carboethoxy-9<em>H</em>-pyrido[3,4-<em>b</em>]indole;Ethyl 9<em>H</em>-pyrido[3,4-<em>b</em>]indole-3-carboxylate",
    "duplicated_cas_no": "",
    "SMILES": "C(OCC)(=O)C=1C=C2C=3C(NC2=CN1)=CC=CC3",
    "meta_data": {
        "InChI": "InChI=1S/C14H12N2O2/c1-2-18-14(17)12-7-10-9-5-3-4-6-11(9)16-13(10)8-15-12/h3-8,16H,2H2,1H3",
        "InChIKey": null,
        "Canonical SMILES": "O=C(OCC)C1=NC=C2NC=3C=CC=CC3C2=C1",
        "Molecular Formula": "C<sub>14</sub>H<sub>12</sub>N<sub>2</sub>O<sub>2</sub>",
        "Molecular Mass": "240.26",
        "Melting Point": "225-227 °C"
    }
}