{
    "cas_no": "1184-58-3",
    "key_name": "Chlorodimethylaluminum",
    "cn_name": "二甲基氯化铝;",
    "alternate_name": "Aluminum, chlorodimethyl-;Aluminum, dimethyl-, chloride;Chlorodimethylaluminum;Dimethylaluminum chloride;Dimethylchloroaluminum;Dimethylchloroalane;Dimethylchloralane",
    "duplicated_cas_no": "",
    "SMILES": "[Al](C)(C)Cl",
    "meta_data": {
        "InChI": "InChI=1S/2CH3.Al.ClH/h2*1H3;;1H/q;;+1;/p-1",
        "InChIKey": null,
        "Canonical SMILES": "Cl[Al](C)C",
        "Molecular Formula": "C<sub>2</sub>H<sub>6</sub>AlCl",
        "Molecular Mass": "",
        "Boiling Point": "126-127 °C",
        "Melting Point": "-21 °C",
        "Density": "0.996 g/cm³"
    }
}