{
    "cas_no": "75187-63-2",
    "key_name": "8-Hydroxydaidzein",
    "cn_name": null,
    "alternate_name": "4<em>H</em>-1-Benzopyran-4-one, 7,8-dihydroxy-3-(4-hydroxyphenyl)-;7,8-Dihydroxy-3-(4-hydroxyphenyl)-4<em>H</em>-1-benzopyran-4-one;4′,7,8-Trihydroxyisoflavone;7,8,4′-Trihydroxyisoflavone;NSC 678112;8-Hydroxydaidzein",
    "duplicated_cas_no": "",
    "SMILES": "O=C1C=2C(=C(O)C(O)=CC2)OC=C1C3=CC=C(O)C=C3",
    "meta_data": {
        "InChI": "InChI=1S/C15H10O5/c16-9-3-1-8(2-4-9)11-7-20-15-10(13(11)18)5-6-12(17)14(15)19/h1-7,16-17,19H",
        "InChIKey": null,
        "Canonical SMILES": "O=C1C(=COC2=C(O)C(O)=CC=C12)C=3C=CC(O)=CC3",
        "Molecular Formula": "C<sub>15</sub>H<sub>10</sub>O<sub>5</sub>",
        "Molecular Mass": "270.24",
        "Melting Point": "&gt;180 °C"
    }
}