{
    "cas_no": "6295-06-3",
    "key_name": "Butyl glyoxylate",
    "cn_name": null,
    "alternate_name": "Acetic acid, 2-oxo-, butyl ester;Glyoxylic acid, butyl ester;Acetic acid, oxo-, butyl ester;Butyl glyoxylate;Butyl oxoacetate;<em>n</em>-Butyl glyoxylate;NSC 11793",
    "duplicated_cas_no": "",
    "SMILES": "C(OCCCC)(C=O)=O",
    "meta_data": {
        "InChI": "InChI=1S/C6H10O3/c1-2-3-4-9-6(8)5-7/h5H,2-4H2,1H3",
        "InChIKey": null,
        "Canonical SMILES": "O=CC(=O)OCCCC",
        "Molecular Formula": "C<sub>6</sub>H<sub>10</sub>O<sub>3</sub>",
        "Molecular Mass": "130.14",
        "Boiling Point": "55 °C @ Press: 14 Torr"
    }
}