{
    "cas_no": "104-84-7",
    "key_name": "4-Methylbenzylamine",
    "cn_name": "4-甲基苄胺;4-甲基苄基胺;对甲基苄胺;",
    "alternate_name": "Benzenemethanamine, 4-methyl-;Benzylamine, <em>p</em>-methyl-;4-Methylbenzenemethanamine;<em>p</em>-Methylbenzylamine;<em>p</em>-Tolylmethylamine;<em>p</em>-Methylbenzenemethanamine;4-Aminomethyltoluene;((4-Methylphenyl)methyl)amine;NSC 66562;4-Methylbenzylamine;4-Methylphenylmethanamine;<em>p</em>-Tolylmethanamine",
    "duplicated_cas_no": "",
    "SMILES": "C(N)C1=CC=C(C)C=C1",
    "meta_data": {
        "InChI": "InChI=1S/C8H11N/c1-7-2-4-8(6-9)5-3-7/h2-5H,6,9H2,1H3",
        "InChIKey": null,
        "Canonical SMILES": "NCC1=CC=C(C=C1)C",
        "Molecular Formula": "C<sub>8</sub>H<sub>11</sub>N",
        "Molecular Mass": "121.18",
        "Boiling Point": "195 °C",
        "Melting Point": "12.5 °C",
        "Density": "0.9666 g/cm³ @ Temp: 20 °C"
    }
}