{
    "cas_no": "23031-25-6",
    "key_name": "Terbutaline",
    "cn_name": "特布他林;5-(1-羟基-2-叔丁基氨基乙基)苯-1,3-二酚;",
    "alternate_name": "1,3-Benzenediol, 5-[2-[(1,1-dimethylethyl)amino]-1-hydroxyethyl]-;Benzyl alcohol, α-[(<em>tert</em>-butylamino)methyl]-3,5-dihydroxy-;5-[2-[(1,1-Dimethylethyl)amino]-1-hydroxyethyl]-1,3-benzenediol;Terbutaline;KWD 2019;1-(3,5-Dihydroxyphenyl)-2-(<em>tert</em>-butylamino)ethanol;Brican;Bricar;Bricaril;Bricyn;Terbutalin;(±)-Terbutaline;AR-D 080301;AR-DO80301;Fasma;Aerodur;MeSH ID: D013726",
    "duplicated_cas_no": "46719-29-3",
    "SMILES": "C(CNC(C)(C)C)(O)C1=CC(O)=CC(O)=C1",
    "meta_data": {
        "InChI": "InChI=1S/C12H19NO3/c1-12(2,3)13-7-11(16)8-4-9(14)6-10(15)5-8/h4-6,11,13-16H,7H2,1-3H3",
        "InChIKey": null,
        "Canonical SMILES": "OC=1C=C(O)C=C(C1)C(O)CNC(C)(C)C",
        "Molecular Formula": "C<sub>12</sub>H<sub>19</sub>NO<sub>3</sub>",
        "Molecular Mass": "225.28",
        "Melting Point": "119-120 °C"
    }
}