{
    "cas_no": "50-18-0",
    "key_name": "Cyclophosphamide",
    "cn_name": "环磷酰胺;P-[N,N-双(beta-氯乙基)]-1-氧-3-氮-2-磷杂环己烷-P-氧化物;",
    "alternate_name": "2<em>H</em>-1,3,2-Oxazaphosphorin-2-amine, <em>N</em>,<em>N</em>-bis(2-chloroethyl)tetrahydro-, 2-oxide;2<em>H</em>-1,3,2-Oxazaphosphorine, 2-[bis(2-chloroethyl)amino]tetrahydro-, 2-oxide;B 518;NSC 26271;Bis(2-chloroethyl)phosphoramide cyclic propanolamide ester;<em>N</em>,<em>N</em>-Bis(2-chloroethyl)-<em>N</em>′,<em>O</em>-propylenephosphoric acid ester diamide;<em>N</em>,<em>N</em>-Bis(β-chloroethyl)-<em>N</em>′,<em>O</em>-trimethylenephosphoric acid ester diamide;Cyclophosphamid;Cyclophosphamide;Cyclophosphan;Cyclophosphane;Cytoxan;Endoxan;Genoxal;Clafen;Cytophosphan;Claphene;Asta B 518;2-[Bis(2-chloroethyl)amino]tetrahydro-2<em>H</em>-1,3,2-oxazaphosphorin 2-oxide;Procytox;Sendoxan;(±)-Cyclophosphamide;(<em>RS</em>)-Cyclophosphamide;Cyclostin;Cycloblastin;Neosar;Neosar (antineoplastic);Endoxanal;CP;Senduxan;Zyklophosphamid;NCI C04900;Endoxan R;Endoxan-Asta;Endoxana;Mitoxan;Endoxane;Enduxan;CB 4564;SK 20501;CPA;CY;Hexadrin;Cyclophosphamidum;CTX;Semdoxan;Revimmune;Ledoxan;Cytophosphane;Eldamide;Neophos;Cyphos;Cydoxan;Cycrame;Oncomide;Cyclocel;Cycloxan;MeSH ID: D003520",
    "duplicated_cas_no": "60007-95-6;75526-90-8",
    "SMILES": "N(CCCl)(CCCl)P1(=O)NCCCO1",
    "meta_data": {
        "InChI": "InChI=1S/C7H15Cl2N2O2P/c8-2-5-11(6-3-9)14(12)10-4-1-7-13-14/h1-7H2,(H,10,12)",
        "InChIKey": null,
        "Canonical SMILES": "O=P1(OCCCN1)N(CCCl)CCCl",
        "Molecular Formula": "C<sub>7</sub>H<sub>15</sub>Cl<sub>2</sub>N<sub>2</sub>O<sub>2</sub>P",
        "Molecular Mass": "261.09",
        "Melting Point": "49.5-53 °C"
    }
}