{
    "cas_no": "472-11-7",
    "key_name": "Ruscogenin",
    "cn_name": null,
    "alternate_name": "Spirost-5-ene-1,3-diol, (1β,3β,25<em>R</em>)-;Spirost-5-ene-1β,3β-diol, (25<em>R</em>)-;Ruscogenin;Spiro[8<em>H</em>-naphth[2′,1′:4,5]indeno[2,1-<em>b</em>]furan-8,2′-[2<em>H</em>]pyran], spirost-5-ene-1,3-diol deriv.;(1β,3β,25<em>R</em>)-Spirost-5-ene-1,3-diol;25<span class=\"text-smallcaps\">D</span>-Spirost-5-ene-1β,3β-diol;25<em>R</em>-Ruscogenin",
    "duplicated_cas_no": "881025-73-6",
    "SMILES": "C[C@@]12[C@@]3([C@@](O[C@@]4([C@H]3C)CC[C@@H](C)CO4)(C[C@]1([C@]5([C@](CC2)([C@]6(C)C(=CC5)C[C@@H](O)C[C@H]6O)[H])[H])[H])[H])[H]",
    "meta_data": {
        "InChI": "InChI=1S/C27H42O4/c1-15-7-10-27(30-14-15)16(2)24-22(31-27)13-21-19-6-5-17-11-18(28)12-23(29)26(17,4)20(19)8-9-25(21,24)3/h5,15-16,18-24,28-29H,6-14H2,1-4H3/t15-,16+,18-,19-,20+,21+,22+,23-,24+,25+,26+,27-/m1/s1",
        "InChIKey": null,
        "Canonical SMILES": "OC1CC2=CCC3C(CCC4(C)C3CC5OC6(OCC(C)CC6)C(C)C54)C2(C)C(O)C1",
        "Molecular Formula": "C<sub>27</sub>H<sub>42</sub>O<sub>4</sub>",
        "Molecular Mass": "430.62",
        "Melting Point": "198-202 °C"
    }
}