{
    "cas_no": "60811-18-9",
    "key_name": "4-Bromo-1-chloro-2-fluorobenzene",
    "cn_name": "4-溴-1-氯-2-氟苯;1-溴-4-氯-3-氟苯;3-氟-4-氯溴苯;",
    "alternate_name": "Benzene, 4-bromo-1-chloro-2-fluoro-;4-Bromo-1-chloro-2-fluorobenzene;5-Bromo-2-chlorofluorobenzene;2-Chloro-5-bromofluorobenzene;1-Bromo-4-chloro-3-fluorobenzene;4-Chloro-3-fluoro-1-bromobenzene;1-Bromo-3-fluoro-4-chlorobenzene;3-Fluoro-4-chlorobromobenzene;5-Bromo-2-chloro-1-fluorobenzene",
    "duplicated_cas_no": "",
    "SMILES": "FC1=C(Cl)C=CC(Br)=C1",
    "meta_data": {
        "InChI": "InChI=1S/C6H3BrClF/c7-4-1-2-5(8)6(9)3-4/h1-3H",
        "InChIKey": null,
        "Canonical SMILES": "FC1=CC(Br)=CC=C1Cl",
        "Molecular Formula": "C<sub>6</sub>H<sub>3</sub>BrClF",
        "Molecular Mass": "209.44",
        "Boiling Point": "73 °C @ Press: 9 Torr"
    }
}