{
    "cas_no": "354-23-4",
    "key_name": "1,2-Dichloro-1,1,2-trifluoroethane",
    "cn_name": "1,2-二氯三氟乙烷;1,2-二氯三氟乙烷;",
    "alternate_name": "Ethane, 1,2-dichloro-1,1,2-trifluoro-;1,2-Dichloro-1,1,2-trifluoroethane;R 123a;CFC 123a;1,2-Dichloro-1,2,2-trifluoroethane;HCFC 123a;F 123a;1,1,2-Trifluoro-1,2-dichloroethane;1,2-Dichlorotrifluoroethane;HFC-123a",
    "duplicated_cas_no": "",
    "SMILES": "C(C(Cl)F)(Cl)(F)F",
    "meta_data": {
        "InChI": "InChI=1S/C2HCl2F3/c3-1(5)2(4,6)7/h1H",
        "InChIKey": null,
        "Canonical SMILES": "FC(Cl)C(F)(F)Cl",
        "Molecular Formula": "C<sub>2</sub>HCl<sub>2</sub>F<sub>3</sub>",
        "Molecular Mass": "152.93",
        "Boiling Point": "28 °C",
        "Melting Point": "-78 °C",
        "Density": "1.496 g/cm³ @ Temp: 10 °C"
    }
}