{
    "cas_no": "5425-81-0",
    "key_name": "Ethanone, 2-amino-1-(4-nitrophenyl)-, hydrochloride (1:1)",
    "cn_name": null,
    "alternate_name": "Ethanone, 2-amino-1-(4-nitrophenyl)-, hydrochloride (1:1);Acetophenone, 2-amino-4′-nitro-, monohydrochloride;Ethanone, 2-amino-1-(4-nitrophenyl)-, monohydrochloride;Acetophenone, 2-amino-4′-nitro-, hydrochloride;α-Amino-<em>p</em>-nitroacetophenone hydrochloride;α-Amino-4′-nitroacetophenone hydrochloride;2-Amino-4′-nitroacetophenone hydrochloride;4′-Nitro-2-aminoacetophenone hydrochloride;2-Amino-1-(4-nitrophenyl)ethanone hydrochloride;2-Amino-1-(4-nitrophenyl)ethan-1-one hydrochloride",
    "duplicated_cas_no": "15830-48-5",
    "SMILES": "C(CN)(=O)C1=CC=C(N(=O)=O)C=C1.Cl",
    "meta_data": {
        "InChI": "InChI=1S/C8H8N2O3.ClH/c9-5-8(11)6-1-3-7(4-2-6)10(12)13;/h1-4H,5,9H2;1H",
        "InChIKey": null,
        "Canonical SMILES": "Cl.O=C(C1=CC=C(C=C1)N(=O)=O)CN",
        "Molecular Formula": "C<sub>8</sub>H<sub>8</sub>N<sub>2</sub>O<sub>3</sub>.ClH",
        "Molecular Mass": "",
        "Melting Point": "250 °C (decomp)"
    }
}