{
    "cas_no": "39755-95-8",
    "key_name": "5-Methoxyisatin",
    "cn_name": "5-甲氧基靛红;5-甲氧基-1H-吲哚-2,3-二酮;",
    "alternate_name": "1<em>H</em>-Indole-2,3-dione, 5-methoxy-;Indole-2,3-dione, 5-methoxy-;Isatin, 5-methoxy-;5-Methoxy-1<em>H</em>-indole-2,3-dione;5-Methoxyisatin;5-Methoxyindole-2,3-dione;NSC 88052;5-Methoxyindoline-2,3-dione",
    "duplicated_cas_no": "",
    "SMILES": "O=C1C=2C(NC1=O)=CC=C(OC)C2",
    "meta_data": {
        "InChI": "InChI=1S/C9H7NO3/c1-13-5-2-3-7-6(4-5)8(11)9(12)10-7/h2-4H,1H3,(H,10,11,12)",
        "InChIKey": null,
        "Canonical SMILES": "O=C1NC2=CC=C(OC)C=C2C1=O",
        "Molecular Formula": "C<sub>9</sub>H<sub>7</sub>NO<sub>3</sub>",
        "Molecular Mass": "177.16",
        "Melting Point": "201-202 °C"
    }
}