{
    "cas_no": "77337-82-7",
    "key_name": "1-Bromo-2-methoxy-4-nitrobenzene",
    "cn_name": "2-溴-5-硝基苯甲醚;",
    "alternate_name": "Benzene, 1-bromo-2-methoxy-4-nitro-;1-Bromo-2-methoxy-4-nitrobenzene;2-Bromo-5-nitroanisole;4-Bromo-3-methoxynitrobenzene;NSC 405572",
    "duplicated_cas_no": "",
    "SMILES": "O(C)C1=CC(N(=O)=O)=CC=C1Br",
    "meta_data": {
        "InChI": "InChI=1S/C7H6BrNO3/c1-12-7-4-5(9(10)11)2-3-6(7)8/h2-4H,1H3",
        "InChIKey": null,
        "Canonical SMILES": "O=N(=O)C1=CC=C(Br)C(OC)=C1",
        "Molecular Formula": "C<sub>7</sub>H<sub>6</sub>BrNO<sub>3</sub>",
        "Molecular Mass": "232.03",
        "Melting Point": "104 °C"
    }
}