{
    "cas_no": "1011-92-3",
    "key_name": "α-Cyanocinnamic acid",
    "cn_name": "α-氰基肉桂酸;2-氰基-3-苯基丙烯酸;",
    "alternate_name": "2-Propenoic acid, 2-cyano-3-phenyl-;Cinnamic acid, α-cyano-;2-Cyano-3-phenyl-2-propenoic acid;α-Cyanocinnamic acid;α-Cyano-β-phenylacrylic acid;2-Cyanocinnamic acid;2-Cyano-3-phenylacrylic acid;NSC 298;3-Phenyl-2-cyano-2-propenoic acid;Benzylidene ethylcyanoacetane",
    "duplicated_cas_no": "859282-18-1",
    "SMILES": "C(=C(C(O)=O)C#N)C1=CC=CC=C1",
    "meta_data": {
        "InChI": "InChI=1S/C10H7NO2/c11-7-9(10(12)13)6-8-4-2-1-3-5-8/h1-6H,(H,12,13)",
        "InChIKey": null,
        "Canonical SMILES": "N#CC(=CC=1C=CC=CC1)C(=O)O",
        "Molecular Formula": "C<sub>10</sub>H<sub>7</sub>NO<sub>2</sub>",
        "Molecular Mass": "173.17",
        "Melting Point": "179-180 °C"
    }
}