{
    "cas_no": "10020-43-6",
    "key_name": "Ethylene glycol monooctyl ether",
    "cn_name": "N-辛基单氧乙烯;n-辛基-单氧乙烯;",
    "alternate_name": "Ethanol, 2-(octyloxy)-;2-(Octyloxy)ethanol;Ethylene glycol mono-<em>n</em>-octyl ether;1-(2-Hydroxyethoxy)octane;Ethylene glycol monooctyl ether;Octyl cellosolve;2-(Octyloxy)ethan-1-ol;2-Octoxyethanol",
    "duplicated_cas_no": "",
    "SMILES": "C(CCOCCO)CCCCC",
    "meta_data": {
        "InChI": "InChI=1S/C10H22O2/c1-2-3-4-5-6-7-9-12-10-8-11/h11H,2-10H2,1H3",
        "InChIKey": null,
        "Canonical SMILES": "OCCOCCCCCCCC",
        "Molecular Formula": "C<sub>10</sub>H<sub>22</sub>O<sub>2</sub>",
        "Molecular Mass": "174.28",
        "Boiling Point": "132-133 °C @ Press: 22 Torr",
        "Density": "0.8811 g/cm³ @ Temp: 20 °C"
    }
}