{
    "cas_no": "587886-26-8",
    "key_name": "2-(Trifluoromethyl)-3-quinolinecarboxylic acid",
    "cn_name": null,
    "alternate_name": "3-Quinolinecarboxylic acid, 2-(trifluoromethyl)-;2-(Trifluoromethyl)-3-quinolinecarboxylic acid",
    "duplicated_cas_no": "",
    "SMILES": "C(F)(F)(F)C=1C(C(O)=O)=CC2=C(N1)C=CC=C2",
    "meta_data": {
        "InChI": "InChI=1S/C11H6F3NO2/c12-11(13,14)9-7(10(16)17)5-6-3-1-2-4-8(6)15-9/h1-5H,(H,16,17)",
        "InChIKey": null,
        "Canonical SMILES": "O=C(O)C1=CC=2C=CC=CC2N=C1C(F)(F)F",
        "Molecular Formula": "C<sub>11</sub>H<sub>6</sub>F<sub>3</sub>NO<sub>2</sub>",
        "Molecular Mass": "241.17",
        "Melting Point": "207-209 °C"
    }
}