{
    "cas_no": "65473-13-4",
    "key_name": "1-Naphthalenemethanamine, <em>N</em>-methyl-, hydrochloride (1:1)",
    "cn_name": "N-甲基-1-萘甲胺盐酸盐;",
    "alternate_name": "1-Naphthalenemethanamine, <em>N</em>-methyl-, hydrochloride (1:1);1-Naphthalenemethanamine, <em>N</em>-methyl-, hydrochloride;1-Naphthalenemethylamine, <em>N</em>-methyl-, hydrochloride;<em>N</em>-Methyl-1-naphthalenemethanamine hydrochloride;<em>N</em>-Methyl-1-naphthalenemethylamine hydrochloride;<em>N</em>-Methyl-1-naphthalenemethaneamine hydrochloride;<em>N</em>-Methyl(1-naphthylmethyl)amine hydrochloride",
    "duplicated_cas_no": "",
    "SMILES": "C(NC)C=1C2=C(C=CC1)C=CC=C2.Cl",
    "meta_data": {
        "InChI": "InChI=1S/C12H13N.ClH/c1-13-9-11-7-4-6-10-5-2-3-8-12(10)11;/h2-8,13H,9H2,1H3;1H",
        "InChIKey": null,
        "Canonical SMILES": "Cl.C=1C=CC2=C(C1)C=CC=C2CNC",
        "Molecular Formula": "C<sub>12</sub>H<sub>13</sub>N.ClH",
        "Molecular Mass": "",
        "Melting Point": "170 °C"
    }
}