{
    "cas_no": "6266-99-5",
    "key_name": "2-Methyl-6-(2-phenylethenyl)pyridine",
    "cn_name": "SIB-1893;",
    "alternate_name": "Pyridine, 2-methyl-6-(2-phenylethenyl)-;2-Picoline, 6-styryl-;2-Stilbazole, 6-methyl-;2-Methyl-6-(2-phenylethenyl)pyridine;NSC 36665;CHEMBL 88612",
    "duplicated_cas_no": "",
    "SMILES": "C(=CC1=CC=CC=C1)C=2N=C(C)C=CC2",
    "meta_data": {
        "InChI": "InChI=1S/C14H13N/c1-12-6-5-9-14(15-12)11-10-13-7-3-2-4-8-13/h2-11H,1H3",
        "InChIKey": null,
        "Canonical SMILES": "N=1C(=CC=CC1C)C=CC=2C=CC=CC2",
        "Molecular Formula": "C<sub>14</sub>H<sub>13</sub>N",
        "Molecular Mass": "195.26",
        "Boiling Point": "127-129 °C @ Press: 1 Torr",
        "Melting Point": "43-44.5 °C"
    }
}