{
    "cas_no": "446-35-5",
    "key_name": "2,4-Difluoronitrobenzene",
    "cn_name": "2,4-二氟硝基苯;",
    "alternate_name": "Benzene, 2,4-difluoro-1-nitro-;2,4-Difluoro-1-nitrobenzene;1,3-Difluoro-4-nitrobenzene;2,4-Difluoronitrobenzene;1-Nitro-2,4-difluorobenzene;NSC 10259;1,5-Difluoro-2-nitrobenzene",
    "duplicated_cas_no": "",
    "SMILES": "N(=O)(=O)C1=C(F)C=C(F)C=C1",
    "meta_data": {
        "InChI": "InChI=1S/C6H3F2NO2/c7-4-1-2-6(9(10)11)5(8)3-4/h1-3H",
        "InChIKey": null,
        "Canonical SMILES": "O=N(=O)C1=CC=C(F)C=C1F",
        "Molecular Formula": "C<sub>6</sub>H<sub>3</sub>F<sub>2</sub>NO<sub>2</sub>",
        "Molecular Mass": "159.09",
        "Boiling Point": "207 °C",
        "Melting Point": "9.8 °C"
    }
}