{
    "cas_no": "20200-22-0",
    "key_name": "<em>N</em>-Methyl-2-nitro-4-(trifluoromethyl)aniline",
    "cn_name": null,
    "alternate_name": "Benzenamine, <em>N</em>-methyl-2-nitro-4-(trifluoromethyl)-;<em>p</em>-Toluidine, α,α,α-trifluoro-<em>N</em>-methyl-2-nitro-;<em>N</em>-Methyl-2-nitro-4-(trifluoromethyl)benzenamine;3-Nitro-4-methylaminobenzotrifluoride;<em>N</em>-Methyl-2-nitro-4-(trifluoromethyl)aniline",
    "duplicated_cas_no": "",
    "SMILES": "N(=O)(=O)C1=C(NC)C=CC(C(F)(F)F)=C1",
    "meta_data": {
        "InChI": "InChI=1S/C8H7F3N2O2/c1-12-6-3-2-5(8(9,10)11)4-7(6)13(14)15/h2-4,12H,1H3",
        "InChIKey": null,
        "Canonical SMILES": "O=N(=O)C1=CC(=CC=C1NC)C(F)(F)F",
        "Molecular Formula": "C<sub>8</sub>H<sub>7</sub>F<sub>3</sub>N<sub>2</sub>O<sub>2</sub>",
        "Molecular Mass": "220.15",
        "Melting Point": "73-75 °C"
    }
}