{
    "cas_no": "22002-45-5",
    "key_name": "2-Bromo-4-methylanisole",
    "cn_name": "3-溴-4-甲氧基甲苯;",
    "alternate_name": "Benzene, 2-bromo-1-methoxy-4-methyl-;Anisole, 2-bromo-4-methyl-;2-Bromo-1-methoxy-4-methylbenzene;2-Bromo-4-methylanisole;3-Bromo-4-methoxytoluene;<em>m</em>-Bromo-<em>p</em>-methoxytoluene;1-Bromo-2-methoxy-5-methylbenzene",
    "duplicated_cas_no": "",
    "SMILES": "O(C)C1=C(Br)C=C(C)C=C1",
    "meta_data": {
        "InChI": "InChI=1S/C8H9BrO/c1-6-3-4-8(10-2)7(9)5-6/h3-5H,1-2H3",
        "InChIKey": null,
        "Canonical SMILES": "BrC1=CC(=CC=C1OC)C",
        "Molecular Formula": "C<sub>8</sub>H<sub>9</sub>BrO",
        "Molecular Mass": "201.06",
        "Boiling Point": "222 °C @ Press: 760 Torr",
        "Melting Point": "199 °C"
    }
}