{
    "cas_no": "16292-88-9",
    "key_name": "3-Methoxy-4-nitroaniline",
    "cn_name": null,
    "alternate_name": "Benzenamine, 3-methoxy-4-nitro-;<em>m</em>-Anisidine, 4-nitro-;3-Methoxy-4-nitrobenzenamine;3-Methoxy-4-nitroaniline",
    "duplicated_cas_no": "",
    "SMILES": "O(C)C1=C(N(=O)=O)C=CC(N)=C1",
    "meta_data": {
        "InChI": "InChI=1S/C7H8N2O3/c1-12-7-4-5(8)2-3-6(7)9(10)11/h2-4H,8H2,1H3",
        "InChIKey": null,
        "Canonical SMILES": "O=N(=O)C1=CC=C(N)C=C1OC",
        "Molecular Formula": "C<sub>7</sub>H<sub>8</sub>N<sub>2</sub>O<sub>3</sub>",
        "Molecular Mass": "168.15",
        "Melting Point": "158-160 °C"
    }
}