{
    "cas_no": "344-07-0",
    "key_name": "Chloropentafluorobenzene",
    "cn_name": "氯五氟苯;",
    "alternate_name": "Benzene, 1-chloro-2,3,4,5,6-pentafluoro-;Benzene, chloropentafluoro-;1-Chloro-2,3,4,5,6-pentafluorobenzene;Pentafluorochlorobenzene;Chloropentafluorobenzene;Pentafluorophenyl chloride;Chloroperfluorobenzene;NSC 96886;Pentafluoro-1-chlorobenzene",
    "duplicated_cas_no": "",
    "SMILES": "ClC1=C(F)C(F)=C(F)C(F)=C1F",
    "meta_data": {
        "InChI": "InChI=1S/C6ClF5/c7-1-2(8)4(10)6(12)5(11)3(1)9",
        "InChIKey": null,
        "Canonical SMILES": "FC=1C(F)=C(F)C(Cl)=C(F)C1F",
        "Molecular Formula": "C<sub>6</sub>ClF<sub>5</sub>",
        "Molecular Mass": "202.51",
        "Boiling Point": "117.9 °C",
        "Melting Point": "-15 °C",
        "Density": "1.568 g/cm³ @ Temp: 25 °C"
    }
}