{
    "cas_no": "735-06-8",
    "key_name": "(2-Fluorophenyl)[2-(methylamino)-5-nitrophenyl]methanone",
    "cn_name": null,
    "alternate_name": "Methanone, (2-fluorophenyl)[2-(methylamino)-5-nitrophenyl]-;Benzophenone, 2′-fluoro-2-(methylamino)-5-nitro-;(2-Fluorophenyl)[2-(methylamino)-5-nitrophenyl]methanone;2′-Fluoro-2-methylamino-5-nitrobenzophenone;2-(Methylamino)-5-nitro-2′-fluorobenzophenone;Ro 05-5114",
    "duplicated_cas_no": "",
    "SMILES": "C(=O)(C1=C(NC)C=CC(N(=O)=O)=C1)C2=C(F)C=CC=C2",
    "meta_data": {
        "InChI": "InChI=1S/C14H11FN2O3/c1-16-13-7-6-9(17(19)20)8-11(13)14(18)10-4-2-3-5-12(10)15/h2-8,16H,1H3",
        "InChIKey": null,
        "Canonical SMILES": "O=C(C=1C=CC=CC1F)C2=CC(=CC=C2NC)N(=O)=O",
        "Molecular Formula": "C<sub>14</sub>H<sub>11</sub>FN<sub>2</sub>O<sub>3</sub>",
        "Molecular Mass": "274.25",
        "Melting Point": "186-187 °C"
    }
}