{
    "cas_no": "10101-52-7",
    "key_name": "Zirconium silicate (Zr(SiO<sub>4</sub>))",
    "cn_name": null,
    "alternate_name": "Silicic acid (H<sub>4</sub>SiO<sub>4</sub>), zirconium(4+) salt (1:1);Zirconium silicate (Zr(SiO<sub>4</sub>));Silicon zirconium oxide (ZrSiO<sub>4</sub>);Zirconium silicon oxide (ZrSiO<sub>4</sub>);Zirconium silicate;Silicon zirconium oxide (SiZrO<sub>4</sub>);Excelopax;Zirconium orthosilicate (ZrSiO<sub>4</sub>);Micro-Pax;Zircosil;TAM 418;Zirconium silicate (ZrO<sub>2</sub>.SiO<sub>2</sub>);Zirconium silicon oxide;MZ 1000B;Micro-Pax 20A;Zircosil 1;Zircon 30MY;A-PAX-SA;Oscal 1224;Zirconium orthosilicate;Micro-Pax SP;Silicon zirconium oxide Si0.5Zr0.5O2;Zirconium silicate (Zr<sub>0.5</sub>(SiO<sub>4</sub>)<sub>0.5</sub>);Zircon Flour 100;Zircon Sand CRL;Zirconium silicate (Zr<sub>0.5</sub>Si<sub>0.5</sub>O<sub>2</sub>);Minopet;Micro-Pax SS;Zircon Flour 600;MZ 50B;Micro-Pax S;ZS B0.07;A-PAX-UF;OZ-S 1;DM ZCA",
    "duplicated_cas_no": "12741-11-6;12795-51-6;12795-52-7;13765-12-3;60569-64-4;202862-74-6;366497-20-3;863493-20-3;1028827-90-8;1367565-67-0;1392310-32-5;2411008-67-6;2761042-06-0",
    "SMILES": "[Si](O)(O)(O)O.[Zr]",
    "meta_data": {
        "InChI": "InChI=1S/H4O4Si.Zr/c1-5(2,3)4;/h1-4H;",
        "InChIKey": null,
        "Canonical SMILES": "[Zr].O[Si](O)(O)O",
        "Molecular Formula": "H<sub>4</sub>O<sub>4</sub>Si.Zr",
        "Molecular Mass": "",
        "Melting Point": "2550 °C",
        "Density": "4.560 g/cm³"
    }
}