{
    "cas_no": "382-93-4",
    "key_name": "Methyl 2,3,3,3-tetrafluoropropanoate",
    "cn_name": null,
    "alternate_name": "Propanoic acid, 2,3,3,3-tetrafluoro-, methyl ester;Propionic acid, 2,3,3,3-tetrafluoro-, methyl ester;Methyl 2,3,3,3-tetrafluoropropanoate;2,3,3,3-Tetrafluoropropionic acid methyl ester;Methyl 2,3,3,3-tetrafluoropropionate",
    "duplicated_cas_no": "",
    "SMILES": "C(C(F)(F)F)(C(OC)=O)F",
    "meta_data": {
        "InChI": "InChI=1S/C4H4F4O2/c1-10-3(9)2(5)4(6,7)8/h2H,1H3",
        "InChIKey": null,
        "Canonical SMILES": "O=C(OC)C(F)C(F)(F)F",
        "Molecular Formula": "C<sub>4</sub>H<sub>4</sub>F<sub>4</sub>O<sub>2</sub>",
        "Molecular Mass": "160.07",
        "Boiling Point": "96 °C",
        "Density": "1.353 g/cm³ @ Temp: 20 °C"
    }
}