{
    "cas_no": "59-40-5",
    "key_name": "Sulfaquinoxaline",
    "cn_name": "磺胺喹恶啉;N-2-喹噁啉基-4-氨基苯磺酰胺;",
    "alternate_name": "Benzenesulfonamide, 4-amino-<em>N</em>-2-quinoxalinyl-;Sulfanilamide, <em>N</em><sup>1</sup>-2-quinoxalinyl-;4-Amino-<em>N</em>-2-quinoxalinylbenzenesulfonamide;2-<em>p</em>-Aminobenzenesulfonamidoquinoxaline;2-<em>p</em>-Aminobenzenesulphonamidoquinoxaline;Compound 3-120;<em>N</em><sup>1</sup>-(2-Quinoxalinyl)sulfanilamide;Sulfabenzpyrazine;Sulfaline;Sulfaquinoxaline;Sulquin;Sulphaquinoxaline;2-Sulfanilamidobenzopyrazine;SQ 40;Avicocid;Italquina;Kokozigal;SQX;Sulfa-Q 20;2-(<em>p</em>-Sulfanilamido)quinoxaline;Ursokoxaline;NSC 41805;MeSH ID: D013428",
    "duplicated_cas_no": "8027-68-7",
    "SMILES": "N(S(=O)(=O)C1=CC=C(N)C=C1)C2=NC3=C(N=C2)C=CC=C3",
    "meta_data": {
        "InChI": "InChI=1S/C14H12N4O2S/c15-10-5-7-11(8-6-10)21(19,20)18-14-9-16-12-3-1-2-4-13(12)17-14/h1-9H,15H2,(H,17,18)",
        "InChIKey": null,
        "Canonical SMILES": "O=S(=O)(NC1=NC2=CC=CC=C2N=C1)C3=CC=C(N)C=C3",
        "Molecular Formula": "C<sub>14</sub>H<sub>12</sub>N<sub>4</sub>O<sub>2</sub>S",
        "Molecular Mass": "300.34",
        "Melting Point": "247.5 °C"
    }
}