{
    "cas_no": "35365-94-7",
    "key_name": "Triethylammonium dihydrogen phosphate",
    "cn_name": null,
    "alternate_name": "Ethanamine, <em>N</em>,<em>N</em>-diethyl-, phosphate (1:1);Triethylamine phosphate (1:1);Phosphoric acid triethylamine salt;Triethylammonium dihydrogen phosphate",
    "duplicated_cas_no": "",
    "SMILES": "P(=O)(O)(O)O.N(CC)(CC)CC",
    "meta_data": {
        "InChI": "InChI=1S/C6H15N.H3O4P/c1-4-7(5-2)6-3;1-5(2,3)4/h4-6H2,1-3H3;(H3,1,2,3,4)",
        "InChIKey": null,
        "Canonical SMILES": "O=P(O)(O)O.N(CC)(CC)CC",
        "Molecular Formula": "C<sub>6</sub>H<sub>15</sub>N.H<sub>3</sub>O<sub>4</sub>P",
        "Molecular Mass": "",
        "Melting Point": "93 °C"
    }
}