{
    "cas_no": "906-65-0",
    "key_name": "(Triphenylphosphoranylidene)succinic anhydride",
    "cn_name": "2-(三苯基亚磷基)丁二酸酐;",
    "alternate_name": "2,5-Furandione, dihydro-3-(triphenylphosphoranylidene)-;Succinic anhydride, (triphenylphosphoranylidene)-;Dihydro-3-(triphenylphosphoranylidene)-2,5-furandione;(2,5-Dioxotetrahydrofuranylidene)triphenylphosphorane;(Triphenylphosphoranylidene)succinic anhydride;3-(Triphenylphosphoranylidene)dihydro-2,5-furandione;NSC 238927;2-(Triphenylphosphoranylidene)succinic anhydride",
    "duplicated_cas_no": "57367-57-4;81923-99-1;856951-32-1",
    "SMILES": "P(=C1C(=O)OC(=O)C1)(C2=CC=CC=C2)(C3=CC=CC=C3)C4=CC=CC=C4",
    "meta_data": {
        "InChI": "InChI=1S/C22H17O3P/c23-21-16-20(22(24)25-21)26(17-10-4-1-5-11-17,18-12-6-2-7-13-18)19-14-8-3-9-15-19/h1-15H,16H2",
        "InChIKey": null,
        "Canonical SMILES": "O=C1OC(=O)CC1=P(C=2C=CC=CC2)(C=3C=CC=CC3)C=4C=CC=CC4",
        "Molecular Formula": "C<sub>22</sub>H<sub>17</sub>O<sub>3</sub>P",
        "Molecular Mass": "360.34",
        "Melting Point": "162.5-163.5 °C"
    }
}