{
    "cas_no": "34784-05-9",
    "key_name": "6-Bromoisoquinoline",
    "cn_name": "6-溴异喹啉;",
    "alternate_name": "Isoquinoline, 6-bromo-;6-Bromoisoquinoline;NSC 229320;(Isoquinolin-6-yl)bromide",
    "duplicated_cas_no": "",
    "SMILES": "BrC1=CC2=C(C=C1)C=NC=C2",
    "meta_data": {
        "InChI": "InChI=1S/C9H6BrN/c10-9-2-1-8-6-11-4-3-7(8)5-9/h1-6H",
        "InChIKey": null,
        "Canonical SMILES": "BrC=1C=CC=2C=NC=CC2C1",
        "Molecular Formula": "C<sub>9</sub>H<sub>6</sub>BrN",
        "Molecular Mass": "208.05",
        "Melting Point": "39 °C"
    }
}