{
    "cas_no": "628-71-7",
    "key_name": "1-Heptyne",
    "cn_name": "1-庚炔;正庚炔;",
    "alternate_name": "1-Heptyne;Amylacetylene;Pentylacetylene;1-<em>n</em>-Heptyne;NSC 9710",
    "duplicated_cas_no": "",
    "SMILES": "C(CCC)CC#C",
    "meta_data": {
        "InChI": "InChI=1S/C7H12/c1-3-5-7-6-4-2/h1H,4-7H2,2H3",
        "InChIKey": null,
        "Canonical SMILES": "C#CCCCCC",
        "Molecular Formula": "C<sub>7</sub>H<sub>12</sub>",
        "Molecular Mass": "96.17",
        "Boiling Point": "99.7 °C",
        "Melting Point": "-81 °C",
        "Density": "0.7646 g/cm³ @ Temp: 18 °C"
    }
}