{
    "cas_no": "73-78-9",
    "key_name": "Lidocaine hydrochloride",
    "cn_name": "盐酸利多卡因;N-(2,6-二甲苯基)-2-(二乙氨基)乙酰胺盐酸盐;",
    "alternate_name": "Acetamide, 2-(diethylamino)-<em>N</em>-(2,6-dimethylphenyl)-, hydrochloride (1:1);2′,6′-Acetoxylidide, 2-(diethylamino)-, monohydrochloride;Acetamide, 2-(diethylamino)-<em>N</em>-(2,6-dimethylphenyl)-, monohydrochloride;2-(Diethylamino)-2′,6′-acetoxylidide hydrochloride;2-(Diethylamino)-2′,6′-dimethylacetanilide hydrochloride;Lignocaine hydrochloride;Xylocaine hydrochloride;Lidocaine hydrochloride;Xycaine hydrochloride;Lidocain hydrochloride;Xylocard;Metaclopromide hydrochloride;Xilina hydrochloride;Lidothesin;Xylotox;Alphacaine;DioCaine;Lidocaine monohydrochloride;Irtopan;Odontalg;Lidesthesin;Xyloneural;Versicane;Lignavet;Sedagul;Xylocaine Astra;Luan;Proliferol;Rapidocaine;Xylanaest purum;Jetmonal;2-(Diethylamino)-<em>N</em>-(2,6-dimethylphenyl)acetamide hydrochloride;Otipax;Otirelax;Akten",
    "duplicated_cas_no": "",
    "SMILES": "N(C(CN(CC)CC)=O)C1=C(C)C=CC=C1C.Cl",
    "meta_data": {
        "InChI": "InChI=1S/C14H22N2O.ClH/c1-5-16(6-2)10-13(17)15-14-11(3)8-7-9-12(14)4;/h7-9H,5-6,10H2,1-4H3,(H,15,17);1H",
        "InChIKey": null,
        "Canonical SMILES": "Cl.O=C(NC=1C(=CC=CC1C)C)CN(CC)CC",
        "Molecular Formula": "C<sub>14</sub>H<sub>22</sub>N<sub>2</sub>O.ClH",
        "Molecular Mass": "",
        "Melting Point": "77-78 °C"
    }
}