{
    "cas_no": "24549-06-2",
    "key_name": "2-Ethyl-6-methylaniline",
    "cn_name": "2-甲基-6-乙基苯胺;MEA;",
    "alternate_name": "Benzenamine, 2-ethyl-6-methyl-;<em>o</em>-Toluidine, 6-ethyl-;2-Ethyl-6-methylbenzenamine;2-Methyl-6-ethylaniline;2-Ethyl-6-methylaniline;6-Ethyl-<em>o</em>-toluidine;6-Ethyl-2-methylaniline;C 25702;(2-Ethyl-6-methylphenyl)amine",
    "duplicated_cas_no": "",
    "SMILES": "C(C)C1=C(N)C(C)=CC=C1",
    "meta_data": {
        "InChI": "InChI=1S/C9H13N/c1-3-8-6-4-5-7(2)9(8)10/h4-6H,3,10H2,1-2H3",
        "InChIKey": null,
        "Canonical SMILES": "NC=1C(=CC=CC1CC)C",
        "Molecular Formula": "C<sub>9</sub>H<sub>13</sub>N",
        "Molecular Mass": "135.21",
        "Boiling Point": "231 °C",
        "Melting Point": "-33 °C"
    }
}