{
    "cas_no": "80-68-2",
    "key_name": "(±)-Threonine",
    "cn_name": null,
    "alternate_name": "Threonine;<span class=\"text-smallcaps\">DL</span>-Threonine;Threonine, <span class=\"text-smallcaps\">DL</span>-;(±)-Threonine;NSC 206292",
    "duplicated_cas_no": "5090-44-8;31138-27-9;1187422-62-3",
    "SMILES": "[C@H]([C@@H](C)O)(C(O)=O)N",
    "meta_data": {
        "InChI": "InChI=1/C4H9NO3/c1-2(6)3(5)4(7)8/h2-3,6H,5H2,1H3,(H,7,8)/t2-,3+/s2",
        "InChIKey": null,
        "Canonical SMILES": "O=C(O)C(N)C(O)C",
        "Molecular Formula": "C<sub>4</sub>H<sub>9</sub>NO<sub>3</sub>",
        "Molecular Mass": "119.12",
        "Melting Point": "228-229 °C (decomp)"
    }
}