{
    "cas_no": "706-08-1",
    "key_name": "1-Fluoro-4-(2-nitroethenyl)benzene",
    "cn_name": "1-(4-氟苯基)-2-硝基乙烯;4-氟-beta-硝基苯乙烯;",
    "alternate_name": "Benzene, 1-fluoro-4-(2-nitroethenyl)-;Styrene, <em>p</em>-fluoro-β-nitro-;1-Fluoro-4-(2-nitroethenyl)benzene;<em>p</em>-Fluoro-β-nitrostyrene;<em>p</em>-Fluoro-ω-nitrostyrene;4-Fluoro-β-nitrostyrene;1-Fluoro-4-(2-nitrovinyl)benzene;NSC 121154;2-(4-Fluorophenyl)-1-nitroethene;1-(4-Fluorophenyl)-2-nitroethene;1-Nitro-2-(4-fluorophenyl)ethene",
    "duplicated_cas_no": "1927832-08-3",
    "SMILES": "C(=CN(=O)=O)C1=CC=C(F)C=C1",
    "meta_data": {
        "InChI": "InChI=1S/C8H6FNO2/c9-8-3-1-7(2-4-8)5-6-10(11)12/h1-6H",
        "InChIKey": null,
        "Canonical SMILES": "O=N(=O)C=CC1=CC=C(F)C=C1",
        "Molecular Formula": "C<sub>8</sub>H<sub>6</sub>FNO<sub>2</sub>",
        "Molecular Mass": "167.14",
        "Melting Point": "101-102.5 °C"
    }
}