{
    "cas_no": "29232-93-7",
    "key_name": "Pirimiphos methyl",
    "cn_name": "甲基嘧啶磷;O-(2-二乙基氨基-6-甲基-4-嘧啶基)-O,O-二甲基硫代磷酸酯;",
    "alternate_name": "Phosphorothioic acid, <em>O</em>-[2-(diethylamino)-6-methyl-4-pyrimidinyl] <em>O</em>,<em>O</em>-dimethyl ester;4-Pyrimidinol, 2-(diethylamino)-6-methyl-, <em>O</em>-ester with <em>O</em>,<em>O</em>-dimethyl phosphorothioate;Plant Protection PP 511;Actellic;Pirimiphos methyl;PP 511;Methylpirimiphos;2-Diethylamino-6-methylpyrimidin-4-yl dimethyl phosphorothionate;Methyl pyrimiphos;<em>O</em>-[2-(Diethylamino)-6-methyl-4-pyrimidinyl] <em>O</em>,<em>O</em>-dimethyl phosphorothioate;ENT 27699Gc;Pirimiphos Me;Pyrimidine phosphate;2-Diethylamino-6-methylpyrimidine-4-yl dimethyl phosphorothionate;Pyrimiphos methyl;Blex;Silosan;Actellic 50;VUCHT 388;Tomahawk;Orafon;Methylpyrimifos;Actellic 25EC;Piritione;Dominator;Rotator;Actellic 50E;Actellic Polvo;Actellic Powder;Pirimiphos M;Actellic 50EC",
    "duplicated_cas_no": "11104-27-1",
    "SMILES": "O(P(OC)(OC)=S)C1=NC(N(CC)CC)=NC(C)=C1",
    "meta_data": {
        "InChI": "InChI=1S/C11H20N3O3PS/c1-6-14(7-2)11-12-9(3)8-10(13-11)17-18(19,15-4)16-5/h8H,6-7H2,1-5H3",
        "InChIKey": null,
        "Canonical SMILES": "S=P(OC1=NC(=NC(=C1)C)N(CC)CC)(OC)OC",
        "Molecular Formula": "C<sub>11</sub>H<sub>20</sub>N<sub>3</sub>O<sub>3</sub>PS",
        "Molecular Mass": "305.33",
        "Melting Point": "15 °C",
        "Density": "1.17 g/cm³ @ Temp: 20 °C"
    }
}