{
    "cas_no": "26582-86-5",
    "key_name": "<em>N</em>-[(Phenylmethoxy)carbonyl]-<span class=\"text-smallcaps\">L</span>-serine hydrazide",
    "cn_name": null,
    "alternate_name": "<span class=\"text-smallcaps\">L</span>-Serine, <em>N</em>-[(phenylmethoxy)carbonyl]-, hydrazide;Serine, <em>N</em>-carboxy-, <em>N</em>-benzyl ester, hydrazide, <span class=\"text-smallcaps\">L</span>-;<span class=\"text-smallcaps\">L</span>-Serine, <em>N</em>-carboxy-, hydrazide, <em>N</em>-benzyl ester;<em>N</em>-[(Phenylmethoxy)carbonyl]-<span class=\"text-smallcaps\">L</span>-serine hydrazide;<em>N</em>-Benzyloxycarbonyl-<span class=\"text-smallcaps\">L</span>-serine hydrazide;<em>N</em>-Benzyloxycarbonylserine hydrazide;Cbz-Ser-NHNH<sub>2</sub>;(<em>S</em>)-Benzyl (1-hydrazinyl-3-hydroxy-1-oxopropan-2-yl)carbamate",
    "duplicated_cas_no": "",
    "SMILES": "C(OC(N[C@H](C(NN)=O)CO)=O)C1=CC=CC=C1",
    "meta_data": {
        "InChI": "InChI=1S/C11H15N3O4/c12-14-10(16)9(6-15)13-11(17)18-7-8-4-2-1-3-5-8/h1-5,9,15H,6-7,12H2,(H,13,17)(H,14,16)/t9-/m0/s1",
        "InChIKey": null,
        "Canonical SMILES": "O=C(OCC=1C=CC=CC1)NC(C(=O)NN)CO",
        "Molecular Formula": "C<sub>11</sub>H<sub>15</sub>N<sub>3</sub>O<sub>4</sub>",
        "Molecular Mass": "253.25",
        "Melting Point": "181 °C"
    }
}