{
    "cas_no": "542-85-8",
    "key_name": "Ethyl isothiocyanate",
    "cn_name": "异硫氰酸乙酯;异硫氰酸乙酯;",
    "alternate_name": "Ethane, isothiocyanato-;Isothiocyanic acid, ethyl ester;Isothiocyanatoethane;Ethyl isothiocyanate;Ethyl mustard oil;NSC 84212;Ethyl thioisocyanate;1-Isothiocyanatoethane",
    "duplicated_cas_no": "",
    "SMILES": "N(CC)=C=S",
    "meta_data": {
        "InChI": "InChI=1S/C3H5NS/c1-2-4-3-5/h2H2,1H3",
        "InChIKey": null,
        "Canonical SMILES": "S=C=NCC",
        "Molecular Formula": "C<sub>3</sub>H<sub>5</sub>NS",
        "Molecular Mass": "87.14",
        "Boiling Point": "131.5 °C",
        "Melting Point": "-5.9 °C"
    }
}