{
    "cas_no": "135-07-9",
    "key_name": "Methyclothiazide",
    "cn_name": "甲氯噻嗪;6-氯-3-氯甲基-3,4-二氢-2-甲基-2H-1,2,4-苯并噻二嗪-7-磺酰胺1,1-二氧化物;",
    "alternate_name": "2<em>H</em>-1,2,4-Benzothiadiazine-7-sulfonamide, 6-chloro-3-(chloromethyl)-3,4-dihydro-2-methyl-, 1,1-dioxide;6-Chloro-3-(chloromethyl)-3,4-dihydro-2-methyl-2<em>H</em>-1,2,4-benzothiadiazine-7-sulfonamide 1,1-dioxide;6-Chloro-3-chloromethyl-2-methyl-7-sulfamyl-3,4-dihydro-1,2,4-benzothiadiazine 1,1-dioxide;Enduron;Methyclothiazide;Methycyclothiazide;Methylcyclothiazide;6-Chloro-3-chloromethyl-3,4-dihydro-2-methyl-7-sulfamoyl-1,2,4-benzothiadiazine 1,1-dioxide;Duretic;Enduronum;Naturon;Aquatensen;6-Chloro-3-chloromethyl-3,4-dihydro-2-methyl-7-sulfamoyl-2<em>H</em>-1,2,4-benzothiadiazine 1,1-dioxide;Ciba 7272-Su;Methyclothiazid;Eutron;NSC 110431;MeSH ID: D008736",
    "duplicated_cas_no": "96782-90-0",
    "SMILES": "O=S1(=O)C=2C(NC(CCl)N1C)=CC(Cl)=C(S(N)(=O)=O)C2",
    "meta_data": {
        "InChI": "InChI=1S/C9H11Cl2N3O4S2/c1-14-9(4-10)13-6-2-5(11)7(19(12,15)16)3-8(6)20(14,17)18/h2-3,9,13H,4H2,1H3,(H2,12,15,16)",
        "InChIKey": null,
        "Canonical SMILES": "O=S(=O)(N)C=1C=C2C(=CC1Cl)NC(N(C)S2(=O)=O)CCl",
        "Molecular Formula": "C<sub>9</sub>H<sub>11</sub>Cl<sub>2</sub>N<sub>3</sub>O<sub>4</sub>S<sub>2</sub>",
        "Molecular Mass": "360.24",
        "Melting Point": "225 °C"
    }
}