{
    "cas_no": "51673-84-8",
    "key_name": "2,2-Dimethoxyacetaldehyde",
    "cn_name": "乙二醛二甲基缩醛;",
    "alternate_name": "Acetaldehyde, 2,2-dimethoxy-;Acetaldehyde, dimethoxy-;Glyoxal, dimethyl acetal;2,2-Dimethoxyacetaldehyde;Dimethoxyacetaldehyde;2,2-Dimethoxyethanal;Dimethoxyethanal;Highlink DM;Glyoxal 1,1-dimethyl acetal;Dimethoxyacetaldehdye",
    "duplicated_cas_no": "",
    "SMILES": "C(C=O)(OC)OC",
    "meta_data": {
        "InChI": "InChI=1S/C4H8O3/c1-6-4(3-5)7-2/h3-4H,1-2H3",
        "InChIKey": null,
        "Canonical SMILES": "O=CC(OC)OC",
        "Molecular Formula": "C<sub>4</sub>H<sub>8</sub>O<sub>3</sub>",
        "Molecular Mass": "104.10",
        "Boiling Point": "58-61 °C @ Press: 39 Torr"
    }
}