{
    "cas_no": "10519-33-2",
    "key_name": "3-Decen-2-one",
    "cn_name": "3-癸烯-2-酮;",
    "alternate_name": "3-Decen-2-one;Heptylidene acetone;Oenanthylidene acetone;SmartBlock",
    "duplicated_cas_no": "",
    "SMILES": "C(CCCCC)C=CC(C)=O",
    "meta_data": {
        "InChI": "InChI=1S/C10H18O/c1-3-4-5-6-7-8-9-10(2)11/h8-9H,3-7H2,1-2H3",
        "InChIKey": null,
        "Canonical SMILES": "O=C(C=CCCCCCC)C",
        "Molecular Formula": "C<sub>10</sub>H<sub>18</sub>O",
        "Molecular Mass": "154.25",
        "Boiling Point": "125-126 °C @ Press: 12 Torr",
        "Melting Point": "16-17 °C",
        "Density": "0.8473 g/cm³ @ Temp: 20 °C"
    }
}