{
    "cas_no": "92-73-9",
    "key_name": "<em>N</em>-(2,5-Dimethoxyphenyl)-3-hydroxy-2-naphthalenecarboxamide",
    "cn_name": "N-(2,5-二甲氧基苯基)-3-羟基-2-萘甲酰胺;色酚AS-BG;冰染偶合组分19;",
    "alternate_name": "2-Naphthalenecarboxamide, <em>N</em>-(2,5-dimethoxyphenyl)-3-hydroxy-;2-Naphthanilide, 3-hydroxy-2′,5′-dimethoxy-;<em>N</em>-(2,5-Dimethoxyphenyl)-3-hydroxy-2-naphthalenecarboxamide;Brenthol FO;3-Hydroxy-2′,5′-dimethoxy-2-naphthanilide;Naphtol AS-BG;Naphtol AS-BG Supra;Sanatol BG;Solunaptol FOL;Tulathol AS-BG;Naphthol AS-BG;C.I. Azoic Coupling Component 19;NSC 37618",
    "duplicated_cas_no": "",
    "SMILES": "C(NC1=C(OC)C=CC(OC)=C1)(=O)C2=CC3=C(C=C2O)C=CC=C3",
    "meta_data": {
        "InChI": "InChI=1S/C19H17NO4/c1-23-14-7-8-18(24-2)16(11-14)20-19(22)15-9-12-5-3-4-6-13(12)10-17(15)21/h3-11,21H,1-2H3,(H,20,22)",
        "InChIKey": null,
        "Canonical SMILES": "O=C(NC1=CC(OC)=CC=C1OC)C2=CC=3C=CC=CC3C=C2O",
        "Molecular Formula": "C<sub>19</sub>H<sub>17</sub>NO<sub>4</sub>",
        "Molecular Mass": "323.34",
        "Melting Point": "186-188 °C"
    }
}