{
    "cas_no": "132-16-1",
    "key_name": "Iron(II) phthalocyanine",
    "cn_name": "铁酞菁;",
    "alternate_name": "Iron, [29<em>H</em>,31<em>H</em>-phthalocyaninato(2-)-κ<em>N</em><sup>29</sup>,κ<em>N</em><sup>30</sup>,κ<em>N</em><sup>31</sup>,κ<em>N</em><sup>32</sup>]-, (<em>SP</em>-4-1)-;Iron, [phthalocyaninato(2-)]-;Iron, [29<em>H</em>,31<em>H</em>-phthalocyaninato(2-)-<em>N</em><sup>29</sup>,<em>N</em><sup>30</sup>,<em>N</em><sup>31</sup>,<em>N</em><sup>32</sup>]-, (<em>SP</em>-4-1)-;Phthalocyanine, iron deriv.;29<em>H</em>,31<em>H</em>-Phthalocyanine, iron complex;(<em>SP</em>-4-1)-[29<em>H</em>,31<em>H</em>-Phthalocyaninato(2-)-κ<em>N</em><sup>29</sup>,κ<em>N</em><sup>30</sup>,κ<em>N</em><sup>31</sup>,κ<em>N</em><sup>32</sup>]iron;Iron phthalocyanine;Ferrophthalocyanine complex;Iron(II) phthalocyanine;Ferrous phthalocyanine;Phthalocyanine-iron(II);[Phthalocyaninato(2-)]iron;Iron(2+) phthalocyanine;(Phthalocyaninato)iron;Phthalocyanine iron;[Phthalocyanato(2-)]iron;Ferrophthalocyanine;Sanyo P 26;(Phthalocyaninato)iron(II);P 26;Iron(2+) phthalocyaninate;P 0774;FePc",
    "duplicated_cas_no": "22924-36-3",
    "SMILES": "[Fe+2]123[N-]4C=5C=6C(C4=NC7=[N]1C(=NC=8[N-]2C(=C9C8C=CC=C9)N=C%10[N]3=C(N5)C=%11C%10=CC=CC%11)C=%12C7=CC=CC%12)=CC=CC6",
    "meta_data": {
        "InChI": "InChI=1S/C32H16N8.Fe/c1-2-10-18-17(9-1)25-33-26(18)38-28-21-13-5-6-14-22(21)30(35-28)40-32-24-16-8-7-15-23(24)31(36-32)39-29-20-12-4-3-11-19(20)27(34-29)37-25;/h1-16H;/q-2;+2",
        "InChIKey": null,
        "Canonical SMILES": "N=1C=2C=3C=CC=CC3C4=NC5=C6C=CC=CC6=C7N=C8C=9C=CC=CC9C=%10N=C%11C=%12C=CC=CC%12C1[N-]%11[Fe+2]([N]24)([N]%108)[N-]57",
        "Molecular Formula": "C<sub>32</sub>H<sub>16</sub>FeN<sub>8</sub>",
        "Molecular Mass": "",
        "Melting Point": "&gt;300 °C"
    }
}