{
    "cas_no": "80-44-4",
    "key_name": "Butyl benzenesulfonate",
    "cn_name": "苯磺酸正丁酯;",
    "alternate_name": "Benzenesulfonic acid, butyl ester;Butyl benzenesulfonate;NSC 3215",
    "duplicated_cas_no": "",
    "SMILES": "S(OCCCC)(=O)(=O)C1=CC=CC=C1",
    "meta_data": {
        "InChI": "InChI=1S/C10H14O3S/c1-2-3-9-13-14(11,12)10-7-5-4-6-8-10/h4-8H,2-3,9H2,1H3",
        "InChIKey": null,
        "Canonical SMILES": "O=S(=O)(OCCCC)C=1C=CC=CC1",
        "Molecular Formula": "C<sub>10</sub>H<sub>14</sub>O<sub>3</sub>S",
        "Molecular Mass": "214.28",
        "Boiling Point": "147-149 °C @ Press: 4 Torr",
        "Density": "1.148 g/cm³ @ Temp: 25 °C"
    }
}