{
    "cas_no": "1155-56-2",
    "key_name": "1-Benzyl-4-(phenylamino)piperidine",
    "cn_name": null,
    "alternate_name": "4-Piperidinamine, <em>N</em>-phenyl-1-(phenylmethyl)-;Piperidine, 4-anilino-1-benzyl-;<em>N</em>-Phenyl-1-(phenylmethyl)-4-piperidinamine;4-Anilino-1-benzylpiperidine;1-Benzyl-4-anilinopiperidine;1-Benzyl-4-(phenylamino)piperidine;NSC 76613;1-Benzyl-<em>N</em>-phenylpiperidin-4-amine",
    "duplicated_cas_no": "",
    "SMILES": "N(C1CCN(CC2=CC=CC=C2)CC1)C3=CC=CC=C3",
    "meta_data": {
        "InChI": "InChI=1S/C18H22N2/c1-3-7-16(8-4-1)15-20-13-11-18(12-14-20)19-17-9-5-2-6-10-17/h1-10,18-19H,11-15H2",
        "InChIKey": null,
        "Canonical SMILES": "C=1C=CC(=CC1)NC2CCN(CC=3C=CC=CC3)CC2",
        "Molecular Formula": "C<sub>18</sub>H<sub>22</sub>N<sub>2</sub>",
        "Molecular Mass": "266.38",
        "Melting Point": "84-86 °C"
    }
}