{
    "cas_no": "6931-17-5",
    "key_name": "3-Methoxyquinoline",
    "cn_name": null,
    "alternate_name": "Quinoline, 3-methoxy-;3-Methoxyquinoline",
    "duplicated_cas_no": "",
    "SMILES": "O(C)C1=CC2=C(N=C1)C=CC=C2",
    "meta_data": {
        "InChI": "InChI=1S/C10H9NO/c1-12-9-6-8-4-2-3-5-10(8)11-7-9/h2-7H,1H3",
        "InChIKey": null,
        "Canonical SMILES": "N=1C=C(OC)C=C2C=CC=CC12",
        "Molecular Formula": "C<sub>10</sub>H<sub>9</sub>NO",
        "Molecular Mass": "159.18",
        "Boiling Point": "94 °C @ Press: 0.1 Torr"
    }
}