{
    "cas_no": "56776-32-0",
    "key_name": "Etifoxine hydrochloride",
    "cn_name": null,
    "alternate_name": "4<em>H</em>-3,1-Benzoxazin-2-amine, 6-chloro-<em>N</em>-ethyl-4-methyl-4-phenyl-, hydrochloride (1:1);4<em>H</em>-3,1-Benzoxazin-2-amine, 6-chloro-<em>N</em>-ethyl-4-methyl-4-phenyl-, monohydrochloride;Etifoxine hydrochloride;Stresam",
    "duplicated_cas_no": "",
    "SMILES": "CC1(C=2C(N=C(NCC)O1)=CC=C(Cl)C2)C3=CC=CC=C3.Cl",
    "meta_data": {
        "InChI": "InChI=1S/C17H17ClN2O.ClH/c1-3-19-16-20-15-10-9-13(18)11-14(15)17(2,21-16)12-7-5-4-6-8-12;/h4-11H,3H2,1-2H3,(H,19,20);1H",
        "InChIKey": null,
        "Canonical SMILES": "Cl.ClC=1C=CC=2N=C(OC(C=3C=CC=CC3)(C2C1)C)NCC",
        "Molecular Formula": "C<sub>17</sub>H<sub>17</sub>ClN<sub>2</sub>O.ClH",
        "Molecular Mass": "",
        "Melting Point": "150-151 °C"
    }
}