{
    "cas_no": "40843-25-2",
    "key_name": "Diclofop",
    "cn_name": "禾草灵;2-[4(-2,4-二氯苯氧基)苯氧基]丙酸;",
    "alternate_name": "Propanoic acid, 2-[4-(2,4-dichlorophenoxy)phenoxy]-;2-[4-(2,4-Dichlorophenoxy)phenoxy]propanoic acid;Dichlorfop acid;2-[4-(2′,4′-Dichlorophenoxy)phenoxy]propionic acid;HOE 21079;Diclofop;Diclofop acid;(±)-Diclofop",
    "duplicated_cas_no": "75045-49-7",
    "SMILES": "O(C1=C(Cl)C=C(Cl)C=C1)C2=CC=C(OC(C(O)=O)C)C=C2",
    "meta_data": {
        "InChI": "InChI=1S/C15H12Cl2O4/c1-9(15(18)19)20-11-3-5-12(6-4-11)21-14-7-2-10(16)8-13(14)17/h2-9H,1H3,(H,18,19)",
        "InChIKey": null,
        "Canonical SMILES": "O=C(O)C(OC1=CC=C(OC2=CC=C(Cl)C=C2Cl)C=C1)C",
        "Molecular Formula": "C<sub>15</sub>H<sub>12</sub>Cl<sub>2</sub>O<sub>4</sub>",
        "Molecular Mass": "327.16",
        "Melting Point": "120 °C"
    }
}