{
    "cas_no": "871-41-0",
    "key_name": "Trichloroheptylsilane",
    "cn_name": null,
    "alternate_name": "Silane, trichloroheptyl-;Trichloroheptylsilane;Heptyltrichlorosilane",
    "duplicated_cas_no": "",
    "SMILES": "C(CCCCCC)[Si](Cl)(Cl)Cl",
    "meta_data": {
        "InChI": "InChI=1S/C7H15Cl3Si/c1-2-3-4-5-6-7-11(8,9)10/h2-7H2,1H3",
        "InChIKey": null,
        "Canonical SMILES": "Cl[Si](Cl)(Cl)CCCCCCC",
        "Molecular Formula": "C<sub>7</sub>H<sub>15</sub>Cl<sub>3</sub>Si",
        "Molecular Mass": "233.64",
        "Boiling Point": "211-212 °C",
        "Density": "1.087 g/cm³"
    }
}