{
    "cas_no": "544-17-2",
    "key_name": "Calcium formate",
    "cn_name": "甲酸钙;蚁酸钙;",
    "alternate_name": "Formic acid, calcium salt (2:1);Calcium formate;Formic acid, calcium salt;Calcium diformate;Calcium formate (Ca(HCO<sub>2</sub>)<sub>2</sub>);Calcoform;Selbest Accelerator;E 328;Ronasil CF;Mebofix 50;Hanming HW;Diformyloxycalcium",
    "duplicated_cas_no": "1312710-55-6",
    "SMILES": "C(O)=O.[Ca]",
    "meta_data": {
        "InChI": "InChI=1S/CH2O2.Ca/c2-1-3;/h1H,(H,2,3);",
        "InChIKey": null,
        "Canonical SMILES": "[Ca].O=CO",
        "Molecular Formula": "CH<sub>2</sub>O<sub>2</sub>.<sup>1</sup>/<sub>2</sub>Ca",
        "Molecular Mass": "",
        "Melting Point": "&gt;300 °C",
        "Density": "2.015 g/cm³"
    }
}