{
    "cas_no": "61093-23-0",
    "key_name": "c-Di-GMP",
    "cn_name": null,
    "alternate_name": "3′-Guanylic acid, guanylyl-(3′→5′)-, cyclic nucleotide;2<em>H</em>,7<em>H</em>-Difuro[3,2-<em>d</em>:3′,2′-<em>j</em>][1,3,7,9,2,8]tetraoxadiphosphacyclododecin, 3′-guanylic acid deriv.;Cyclic-di-GMP;c-Di-GMP;Cyclic diguanylate;5GP-5GP;Cyclic di-3′,5′-guanylate;Cyclic diguanylate monophosphate",
    "duplicated_cas_no": "132182-17-3",
    "SMILES": "O=C1C2=C(N(C=N2)[C@H]3[C@H](O)[C@]4([C@](O3)(COP(=O)(O)O[C@@]5([C@@](COP(=O)(O)O4)(O[C@H]([C@@H]5O)N6C7=C(N=C6)C(=O)N=C(N)N7)[H])[H])[H])[H])NC(N)=N1",
    "meta_data": {
        "InChI": "InChI=1S/C20H24N10O14P2/c21-19-25-13-7(15(33)27-19)23-3-29(13)17-9(31)11-5(41-17)1-39-45(35,36)44-12-6(2-40-46(37,38)43-11)42-18(10(12)32)30-4-24-8-14(30)26-20(22)28-16(8)34/h3-6,9-12,17-18,31-32H,1-2H2,(H,35,36)(H,37,38)(H3,21,25,27,33)(H3,22,26,28,34)/t5-,6-,9-,10-,11-,12-,17-,18-/m1/s1",
        "InChIKey": null,
        "Canonical SMILES": "O=C1N=C(N)NC2=C1N=CN2C3OC4COP(=O)(O)OC5C(O)C(OC5COP(=O)(O)OC4C3O)N6C=NC=7C(=O)N=C(N)NC76",
        "Molecular Formula": "C<sub>20</sub>H<sub>24</sub>N<sub>10</sub>O<sub>14</sub>P<sub>2</sub>",
        "Molecular Mass": "690.41",
        "Melting Point": "193-196 °C (decomp)"
    }
}