{
    "cas_no": "7727-37-9",
    "key_name": "Nitrogen",
    "cn_name": "氮;氮气;液氮;",
    "alternate_name": "Nitrogen;Nitrogen gas;Nitrogen-14;Dinitrogen;Molecular nitrogen;Nitrogen (N<sub>2</sub>);Diatomic nitrogen;Nitrogen nutrition (plant);Hydrogen, ammoniate (2:1);MeSH ID: D009584",
    "duplicated_cas_no": "93037-13-9;156457-45-3;161728-27-4;263005-65-8;745765-07-5;778548-56-4;794449-54-0;882528-56-5;951778-24-8;1119449-41-0;1384252-82-7;2194529-25-2;2457359-14-5",
    "SMILES": "N#N",
    "meta_data": {
        "InChI": "InChI=1S/N2/c1-2",
        "InChIKey": null,
        "Canonical SMILES": "N#N",
        "Molecular Formula": "N<sub>2</sub>",
        "Molecular Mass": "28.01",
        "Boiling Point": "-195.79 °C",
        "Melting Point": "-210.01 °C",
        "Density": "3.421 g/cm³"
    }
}