{
    "cas_no": "100134-82-5",
    "key_name": "Phenylmethyl <em>N</em>-(1-cyano-1-methylethyl)carbamate",
    "cn_name": null,
    "alternate_name": "Carbamic acid, <em>N</em>-(1-cyano-1-methylethyl)-, phenylmethyl ester;Carbamic acid, (1-cyano-1-methylethyl)-, benzyl ester;Carbamic acid, (1-cyano-1-methylethyl)-, phenylmethyl ester;Phenylmethyl <em>N</em>-(1-cyano-1-methylethyl)carbamate;Benzyl [1-cyano-1-methylethyl]carbamate;(Cyanodimethylmethyl)carbamic Acid Benzyl Ester",
    "duplicated_cas_no": "",
    "SMILES": "C(OC(NC(C#N)(C)C)=O)C1=CC=CC=C1",
    "meta_data": {
        "InChI": "InChI=1S/C12H14N2O2/c1-12(2,9-13)14-11(15)16-8-10-6-4-3-5-7-10/h3-7H,8H2,1-2H3,(H,14,15)",
        "InChIKey": null,
        "Canonical SMILES": "N#CC(NC(=O)OCC=1C=CC=CC1)(C)C",
        "Molecular Formula": "C<sub>12</sub>H<sub>14</sub>N<sub>2</sub>O<sub>2</sub>",
        "Molecular Mass": "218.25",
        "Melting Point": "97 °C"
    }
}