{
    "cas_no": "4499-83-6",
    "key_name": "1,1′:4′,1′′:4′′,1′′′:4′′′,1′′′′:4′′′′,1′′′′′-Sexiphenyl",
    "cn_name": "对六联苯;",
    "alternate_name": "1,1′:4′,1′′:4′′,1′′′:4′′′,1′′′′:4′′′′,1′′′′′-Sexiphenyl;<em>p</em>-Sexiphenyl;4,4′′′-Diphenyl-<em>p</em>-quaterphenyl;1,1′:4′,1′′:4′′,1′′′-Quaterphenyl, 4,4′′′-diphenyl-;<em>p</em>-Hexaphenyl;<em>p</em>-Sexiphenylene;1-Phenyl-4-[4-[4-(4-phenylphenyl)phenyl]phenyl]benzene",
    "duplicated_cas_no": "",
    "SMILES": "C1(=CC=C(C=C1)C2=CC=C(C=C2)C3=CC=CC=C3)C4=CC=C(C=C4)C5=CC=C(C=C5)C6=CC=CC=C6",
    "meta_data": {
        "InChI": "InChI=1S/C36H26/c1-3-7-27(8-4-1)29-11-15-31(16-12-29)33-19-23-35(24-20-33)36-25-21-34(22-26-36)32-17-13-30(14-18-32)28-9-5-2-6-10-28/h1-26H",
        "InChIKey": null,
        "Canonical SMILES": "C=1C=CC(=CC1)C=2C=CC(=CC2)C=3C=CC(=CC3)C=4C=CC(=CC4)C=5C=CC(=CC5)C=6C=CC=CC6",
        "Molecular Formula": "C<sub>36</sub>H<sub>26</sub>",
        "Molecular Mass": "458.59",
        "Melting Point": "475 °C (sublm)"
    }
}