{
    "cas_no": "156761-88-5",
    "key_name": "4-Bromo-2-ethylpyridine",
    "cn_name": null,
    "alternate_name": "Pyridine, 4-bromo-2-ethyl-;4-Bromo-2-ethylpyridine",
    "duplicated_cas_no": "",
    "SMILES": "C(C)C1=CC(Br)=CC=N1",
    "meta_data": {
        "InChI": "InChI=1S/C7H8BrN/c1-2-7-5-6(8)3-4-9-7/h3-5H,2H2,1H3",
        "InChIKey": null,
        "Canonical SMILES": "BrC=1C=CN=C(C1)CC",
        "Molecular Formula": "C<sub>7</sub>H<sub>8</sub>BrN",
        "Molecular Mass": "186.05",
        "Boiling Point": "97-98 °C @ Press: 30 Torr"
    }
}