{
    "cas_no": "1008-88-4",
    "key_name": "3-Phenylpyridine",
    "cn_name": "3-苯基吡啶;",
    "alternate_name": "Pyridine, 3-phenyl-;3-Phenylpyridine;<em>m</em>-Phenylpyridine;β-Phenylpyridine;5-Phenylpyridine",
    "duplicated_cas_no": "",
    "SMILES": "C1(=CC=CC=C1)C=2C=CC=NC2",
    "meta_data": {
        "InChI": "InChI=1S/C11H9N/c1-2-5-10(6-3-1)11-7-4-8-12-9-11/h1-9H",
        "InChIKey": null,
        "Canonical SMILES": "N1=CC=CC(=C1)C2=CC=CC=C2",
        "Molecular Formula": "C<sub>11</sub>H<sub>9</sub>N",
        "Molecular Mass": "155.20",
        "Boiling Point": "272 °C",
        "Melting Point": "164 °C"
    }
}