{
    "cas_no": "93-52-7",
    "key_name": "(1,2-Dibromoethyl)benzene",
    "cn_name": "1,2-二溴乙基苯;",
    "alternate_name": "Benzene, (1,2-dibromoethyl)-;(1,2-Dibromoethyl)benzene;α,β-Dibromoethylbenzene;Dowspray 9;1,2-Dibromo-2-phenylethane;1,2-Dibromo-1-phenylethane;1-Phenyl-1,2-dibromoethane;1,2-Dibromophenylethane;<em>vic</em>-Styrene dibromide;NSC 62438",
    "duplicated_cas_no": "102921-26-6",
    "SMILES": "C(CBr)(Br)C1=CC=CC=C1",
    "meta_data": {
        "InChI": "InChI=1S/C8H8Br2/c9-6-8(10)7-4-2-1-3-5-7/h1-5,8H,6H2",
        "InChIKey": null,
        "Canonical SMILES": "BrCC(Br)C=1C=CC=CC1",
        "Molecular Formula": "C<sub>8</sub>H<sub>8</sub>Br<sub>2</sub>",
        "Molecular Mass": "263.96",
        "Boiling Point": "133 °C",
        "Melting Point": "75 °C"
    }
}