{
    "cas_no": "618-95-1",
    "key_name": "Methyl 3-nitrobenzoate",
    "cn_name": "3-硝基苯甲酸甲酯;",
    "alternate_name": "Benzoic acid, 3-nitro-, methyl ester;Benzoic acid, <em>m</em>-nitro-, methyl ester;Methyl <em>m</em>-nitrobenzoate;Methyl 3-nitrobenzoate;<em>m</em>-Carbomethoxynitrobenzene;3-Methoxycarbonyl-1-nitrobenzene;<em>m</em>-Nitrobenzoic acid methyl ester;3-Nitrobenzoic acid methyl ester;NSC 1327",
    "duplicated_cas_no": "",
    "SMILES": "C(OC)(=O)C1=CC(N(=O)=O)=CC=C1",
    "meta_data": {
        "InChI": "InChI=1S/C8H7NO4/c1-13-8(10)6-3-2-4-7(5-6)9(11)12/h2-5H,1H3",
        "InChIKey": null,
        "Canonical SMILES": "O=C(OC)C1=CC=CC(=C1)N(=O)=O",
        "Molecular Formula": "C<sub>8</sub>H<sub>7</sub>NO<sub>4</sub>",
        "Molecular Mass": "181.15",
        "Boiling Point": "279 °C",
        "Melting Point": "78 °C"
    }
}