{
    "cas_no": "98-77-1",
    "key_name": "1-Piperidinecarbodithioic acid, compd. with piperidine (1:1)",
    "cn_name": "橡胶促进剂PPD;1-哌啶二硫代甲酸哌啶盐;",
    "alternate_name": "1-Piperidinecarbodithioic acid, compd. with piperidine (1:1);1-Piperidinecarbodithioic acid, compd. with piperidine;1-Piperidinecarbodithioic acid, piperidine salt;Piperidine, 1-piperidinecarbodithioate;Piperidinium <em>N</em>,<em>N</em>-pentamethylenedithiocarbamate;Piperidinium piperidinedithiocarbamate;PMP;PMP (accelerator);Piperidinium 1-piperidinecarbodithioate;Accelerator 552;Pentamethylenedithiocarbamic acid piperidine salt;Nocceler PPD;NSC 1906;NSC 4712;Accel PP;Pipecolinium pipecolyldithiocarbamate",
    "duplicated_cas_no": "861379-94-4",
    "SMILES": "C1CCNCC1.C(=S)(S)N1CCCCC1",
    "meta_data": {
        "InChI": "InChI=1S/C6H11NS2.C5H11N/c8-6(9)7-4-2-1-3-5-7;1-2-4-6-5-3-1/h1-5H2,(H,8,9);6H,1-5H2",
        "InChIKey": null,
        "Canonical SMILES": "S=C(S)N1CCCCC1.N1CCCCC1",
        "Molecular Formula": "C<sub>6</sub>H<sub>11</sub>NS<sub>2</sub>.C<sub>5</sub>H<sub>11</sub>N",
        "Molecular Mass": "",
        "Melting Point": "172-173 °C"
    }
}