{
    "cas_no": "57103-03-4",
    "key_name": "9<em>H</em>-Carbazole-3,6-dicarbonitrile",
    "cn_name": null,
    "alternate_name": "9<em>H</em>-Carbazole-3,6-dicarbonitrile;3,6-Dicyanocarbazole;3,6-Dicyano-9<em>H</em>-carbazole;Carbazole-3,6-Dicarbonitrile",
    "duplicated_cas_no": "",
    "SMILES": "C(#N)C=1C=C2C=3C(NC2=CC1)=CC=C(C#N)C3",
    "meta_data": {
        "InChI": "InChI=1S/C14H7N3/c15-7-9-1-3-13-11(5-9)12-6-10(8-16)2-4-14(12)17-13/h1-6,17H",
        "InChIKey": null,
        "Canonical SMILES": "N#CC1=CC=C2NC=3C=CC(C#N)=CC3C2=C1",
        "Molecular Formula": "C<sub>14</sub>H<sub>7</sub>N<sub>3</sub>",
        "Molecular Mass": "217.23",
        "Melting Point": "&gt;360 °C"
    }
}