{
    "cas_no": "2182-55-0",
    "key_name": "Cyclohexyl vinyl ether",
    "cn_name": "环己基乙烯基醚;",
    "alternate_name": "Cyclohexane, (ethenyloxy)-;Ether, cyclohexyl vinyl;(Ethenyloxy)cyclohexane;Cyclohexyl vinyl ether;NSC 75856;CHVE;(Cyclohexyloxy)ethene;Vinyloxycyclohexane",
    "duplicated_cas_no": "877854-39-2;2056117-92-9",
    "SMILES": "O(C=C)C1CCCCC1",
    "meta_data": {
        "InChI": "InChI=1S/C8H14O/c1-2-9-8-6-4-3-5-7-8/h2,8H,1,3-7H2",
        "InChIKey": null,
        "Canonical SMILES": "O(C=C)C1CCCCC1",
        "Molecular Formula": "C<sub>8</sub>H<sub>14</sub>O",
        "Molecular Mass": "126.20",
        "Boiling Point": "147-148 °C",
        "Density": "0.8883 g/cm³ @ Temp: 420 °C"
    }
}