{
    "cas_no": "145915-58-8",
    "key_name": "4,5-Dianilinophthalimide",
    "cn_name": null,
    "alternate_name": "1<em>H</em>-Isoindole-1,3(2<em>H</em>)-dione, 5,6-bis(phenylamino)-;5,6-Bis(phenylamino)-1<em>H</em>-isoindole-1,3(2<em>H</em>)-dione;4,5-Dianilinophthalimide;CGP 52411;DAPH",
    "duplicated_cas_no": "157168-02-0",
    "SMILES": "O=C1C=2C(=CC(NC3=CC=CC=C3)=C(NC4=CC=CC=C4)C2)C(=O)N1",
    "meta_data": {
        "InChI": "InChI=1S/C20H15N3O2/c24-19-15-11-17(21-13-7-3-1-4-8-13)18(12-16(15)20(25)23-19)22-14-9-5-2-6-10-14/h1-12,21-22H,(H,23,24,25)",
        "InChIKey": null,
        "Canonical SMILES": "O=C1NC(=O)C2=CC(NC=3C=CC=CC3)=C(C=C12)NC=4C=CC=CC4",
        "Molecular Formula": "C<sub>20</sub>H<sub>15</sub>N<sub>3</sub>O<sub>2</sub>",
        "Molecular Mass": "329.35",
        "Melting Point": "199-201.5 °C"
    }
}