{
    "cas_no": "99-83-2",
    "key_name": "alpha-Phellandrene",
    "cn_name": null,
    "alternate_name": "1,3-Cyclohexadiene, 2-methyl-5-(1-methylethyl)-;<em>p</em>-Mentha-1,5-diene;2-Methyl-5-(1-methylethyl)-1,3-cyclohexadiene;α-Phellandrene;5-Isopropyl-2-methyl-1,3-cyclohexadiene;Menthadiene;(±)-α-Phellandrene;alpha-Phellandrene;6-Isopropyl-3-methyl-1,3-Cyclohexadiene;Alda-364;2-Methyl-5-propan-2-ylcyclohexa-1,3-diene",
    "duplicated_cas_no": "1330-17-2;13811-01-3",
    "SMILES": "C(C)(C)C1CC=C(C)C=C1",
    "meta_data": {
        "InChI": "InChI=1S/C10H16/c1-8(2)10-6-4-9(3)5-7-10/h4-6,8,10H,7H2,1-3H3",
        "InChIKey": null,
        "Canonical SMILES": "C1=CC(CC=C1C)C(C)C",
        "Molecular Formula": "C<sub>10</sub>H<sub>16</sub>",
        "Molecular Mass": "136.23",
        "Boiling Point": "172 °C",
        "Melting Point": "&lt;25 °C",
        "Density": "0.848 g/cm³ @ Temp: 15 °C"
    }
}