{
    "cas_no": "3278-14-6",
    "key_name": "<em>N</em>-Phenethylbenzamide",
    "cn_name": null,
    "alternate_name": "Benzamide, <em>N</em>-(2-phenylethyl)-;Benzamide, <em>N</em>-phenethyl-;<em>N</em>-(2-Phenylethyl)benzamide;<em>N</em>-Benzoyl-β-phenethylamine;N-(2-Phenylethyl)benzamide;<em>N</em>-Phenethylbenzamide;<em>N</em>-Benzoylphenethylamine;<em>N</em>-Benzoyl-2-phenylethylamine;NSC 16618;NSC 43723;Riparin A",
    "duplicated_cas_no": "1436860-75-1",
    "SMILES": "C(NCCC1=CC=CC=C1)(=O)C2=CC=CC=C2",
    "meta_data": {
        "InChI": "InChI=1S/C15H15NO/c17-15(14-9-5-2-6-10-14)16-12-11-13-7-3-1-4-8-13/h1-10H,11-12H2,(H,16,17)",
        "InChIKey": null,
        "Canonical SMILES": "O=C(NCCC=1C=CC=CC1)C=2C=CC=CC2",
        "Molecular Formula": "C<sub>15</sub>H<sub>15</sub>NO",
        "Molecular Mass": "225.29",
        "Melting Point": "117-118 °C"
    }
}