{
    "cas_no": "1002-36-4",
    "key_name": "2-Heptyn-1-ol",
    "cn_name": "2-庚炔-1-醇;",
    "alternate_name": "2-Heptyn-1-ol;2-Heptynol;3-Butylpropargyl alcohol",
    "duplicated_cas_no": "",
    "SMILES": "C(C#CCO)CCC",
    "meta_data": {
        "InChI": "InChI=1S/C7H12O/c1-2-3-4-5-6-7-8/h8H,2-4,7H2,1H3",
        "InChIKey": null,
        "Canonical SMILES": "OCC#CCCCC",
        "Molecular Formula": "C<sub>7</sub>H<sub>12</sub>O",
        "Molecular Mass": "112.17",
        "Boiling Point": "113-116 °C @ Press: 56 Torr",
        "Density": "0.8854 g/cm³ @ Temp: 20 °C"
    }
}