{
    "cas_no": "494-90-6",
    "key_name": "Menthofuran",
    "cn_name": null,
    "alternate_name": "Benzofuran, 4,5,6,7-tetrahydro-3,6-dimethyl-;<em>p</em>-Mentha-3,8-diene, 3,9-epoxy-;4,5,6,7-Tetrahydro-3,6-dimethylbenzofuran;Menthofuran;Menthofurane;NSC 315249;3,6-Dimethyl-4,5,6,7-tetrahydrobenzofuran;3,6-Dimethyl-4,5,6,7-tetrahydro-1-benzofuran",
    "duplicated_cas_no": "59553-66-1",
    "SMILES": "CC=1C2=C(OC1)CC(C)CC2",
    "meta_data": {
        "InChI": "InChI=1S/C10H14O/c1-7-3-4-9-8(2)6-11-10(9)5-7/h6-7H,3-5H2,1-2H3",
        "InChIKey": null,
        "Canonical SMILES": "O1C=C(C2=C1CC(C)CC2)C",
        "Molecular Formula": "C<sub>10</sub>H<sub>14</sub>O",
        "Molecular Mass": "150.22",
        "Boiling Point": "80 °C",
        "Melting Point": "86 °C",
        "Density": "0.972 g/cm³ @ Temp: 15 °C"
    }
}