{
    "cas_no": "56-94-0",
    "key_name": "Demecarium bromide",
    "cn_name": "地美溴铵;3,3\"-(1,10-亚癸基双((甲基亚氨)甲酰氧基))双(N,N,N-三甲基苯铵))二溴化物;",
    "alternate_name": "Benzenaminium, 3,3′-[1,10-decanediylbis[(methylimino)carbonyloxy]]bis[<em>N</em>,<em>N</em>,<em>N</em>-trimethyl-, bromide (1:2);Ammonium, (<em>m</em>-hydroxyphenyl)trimethyl-, bromide, decamethylenebis[methylcarbamate] (2:1);(<em>m</em>-Hydroxyphenyl)trimethylammonium bromide decamethylenebis[methylcarbamate];Benzenaminium, 3,3′-[1,10-decanediylbis[(methylimino)carbonyloxy]]bis[<em>N</em>,<em>N</em>,<em>N</em>-trimethyl-, dibromide;BC 48;<em>N</em>,<em>N</em>′-Bis[3-trimethylammoniumphenoxycarbonyl]-<em>N</em>,<em>N</em>′-dimethyldecamethylenediamine dibromide;Decamethylenebis(<em>m</em>-dimethylaminophenyl-<em>N</em>-methylcarbamate) dimethobromide;Decamethylenebis[<em>N</em>-methylcarbamic acid <em>m</em>-dimethylaminophenyl ester] bromomethylate;Demecarium bromide;Demekastigmine bromide;Humorsol;Tosmilen;Tosmilene;Demekarium bromide;Frumtosnil;Tonilen;Tosmicil;Visumatic;Visumiotic",
    "duplicated_cas_no": "",
    "SMILES": "O(C(N(CCCCCCCCCCN(C(OC1=CC([N+](C)(C)C)=CC=C1)=O)C)C)=O)C2=CC([N+](C)(C)C)=CC=C2.[Br-]",
    "meta_data": {
        "InChI": "InChI=1S/C32H52N4O4.2BrH/c1-33(31(37)39-29-21-17-19-27(25-29)35(3,4)5)23-15-13-11-9-10-12-14-16-24-34(2)32(38)40-30-22-18-20-28(26-30)36(6,7)8;;/h17-22,25-26H,9-16,23-24H2,1-8H3;2*1H/q+2;;/p-2",
        "InChIKey": null,
        "Canonical SMILES": "[Br-].O=C(OC1=CC=CC(=C1)[N+](C)(C)C)N(C)CCCCCCCCCCN(C(=O)OC2=CC=CC(=C2)[N+](C)(C)C)C",
        "Molecular Formula": "C<sub>32</sub>H<sub>52</sub>N<sub>4</sub>O<sub>4</sub>.2Br",
        "Molecular Mass": "",
        "Melting Point": "162-167 °C (decomp)"
    }
}