{
    "cas_no": "625115-55-1",
    "key_name": "Riociguat",
    "cn_name": null,
    "alternate_name": "Carbamic acid, <em>N</em>-[4,6-diamino-2-[1-[(2-fluorophenyl)methyl]-1<em>H</em>-pyrazolo[3,4-<em>b</em>]pyridin-3-yl]-5-pyrimidinyl]-<em>N</em>-methyl-, methyl ester;Carbamic acid, [4,6-diamino-2-[1-[(2-fluorophenyl)methyl]-1<em>H</em>-pyrazolo[3,4-<em>b</em>]pyridin-3-yl]-5-pyrimidinyl]methyl-, methyl ester;Riociguat;BAY 632521;BAY 63-2521;Methyl [4,6-diamino-2-[1-(2-fluorobenzyl)-1<em>H</em>-pyrazolo[3,4-<em>b</em>]pyridin-3-yl]pyrimidin-5-yl]methylcarbamate;Adempas;Methyl <em>N</em>-[4,6-diamino-2-[1-(2-fluorobenzyl)-1<em>H</em>-pyrazolo[3,4-<em>b</em>]pyridin-3-yl]-5-pyrimidinyl]-<em>N</em>-(methyl)carbamate;Methyl <em>N</em>-(4,6-diamino-2-[1-[(2-fluorophenyl)methyl]-1<em>H</em>-pyrazolo[3,4-<em>b</em>]pyridin-3-yl]pyrimidin-5-yl)-<em>N</em>-methylcarbamate",
    "duplicated_cas_no": "911138-23-3",
    "SMILES": "C(N1N=C(C=2C1=NC=CC2)C=3N=C(N)C(N(C(OC)=O)C)=C(N)N3)C4=C(F)C=CC=C4",
    "meta_data": {
        "InChI": "InChI=1S/C20H19FN8O2/c1-28(20(30)31-2)15-16(22)25-18(26-17(15)23)14-12-7-5-9-24-19(12)29(27-14)10-11-6-3-4-8-13(11)21/h3-9H,10H2,1-2H3,(H4,22,23,25,26)",
        "InChIKey": null,
        "Canonical SMILES": "O=C(OC)N(C=1C(=NC(=NC1N)C2=NN(C=3N=CC=CC23)CC=4C=CC=CC4F)N)C",
        "Molecular Formula": "C<sub>20</sub>H<sub>19</sub>FN<sub>8</sub>O<sub>2</sub>",
        "Molecular Mass": "422.42",
        "Melting Point": "257-259 °C"
    }
}