{
    "cas_no": "524-15-2",
    "key_name": "γ-Fagarine",
    "cn_name": null,
    "alternate_name": "Furo[2,3-<em>b</em>]quinoline, 4,8-dimethoxy-;γ-Fagarine;4,8-Dimethoxyfuro[2,3-<em>b</em>]quinoline;Fagarine;8-Methoxydictamnine",
    "duplicated_cas_no": "",
    "SMILES": "O(C)C=1C=2C(N=C3C1C=CO3)=C(OC)C=CC2",
    "meta_data": {
        "InChI": "InChI=1S/C13H11NO3/c1-15-10-5-3-4-8-11(10)14-13-9(6-7-17-13)12(8)16-2/h3-7H,1-2H3",
        "InChIKey": null,
        "Canonical SMILES": "N1=C2OC=CC2=C(OC)C=3C=CC=C(OC)C13",
        "Molecular Formula": "C<sub>13</sub>H<sub>11</sub>NO<sub>3</sub>",
        "Molecular Mass": "229.23",
        "Melting Point": "142 °C"
    }
}