{
    "cas_no": "1088994-22-2",
    "key_name": "5-Methyl-2-(2-pyrimidinyl)benzoic acid",
    "cn_name": null,
    "alternate_name": "Benzoic acid, 5-methyl-2-(2-pyrimidinyl)-;5-Methyl-2-(2-pyrimidinyl)benzoic acid;5-Methyl-2-(pyrimidin-2-yl)benzoic acid",
    "duplicated_cas_no": "",
    "SMILES": "C(O)(=O)C1=C(C=CC(C)=C1)C=2N=CC=CN2",
    "meta_data": {
        "InChI": "InChI=1S/C12H10N2O2/c1-8-3-4-9(10(7-8)12(15)16)11-13-5-2-6-14-11/h2-7H,1H3,(H,15,16)",
        "InChIKey": null,
        "Canonical SMILES": "O=C(O)C=1C=C(C=CC1C2=NC=CC=N2)C",
        "Molecular Formula": "C<sub>12</sub>H<sub>10</sub>N<sub>2</sub>O<sub>2</sub>",
        "Molecular Mass": "214.22",
        "Melting Point": "227.6-228.1 °C"
    }
}