{
    "cas_no": "93957-54-1",
    "key_name": "Fluvastatin",
    "cn_name": "氟伐他汀;7-[3-(4-氟苯基)-1-(1-甲基乙基)-1H-吲哚-2-基]-3,5-二羟基-6-庚烯酸;",
    "alternate_name": "6-Heptenoic acid, 7-[3-(4-fluorophenyl)-1-(1-methylethyl)-1<em>H</em>-indol-2-yl]-3,5-dihydroxy-, (3<em>R</em>,5<em>S</em>,6<em>E</em>)-<em>rel</em>-;6-Heptenoic acid, 7-[3-(4-fluorophenyl)-1-(1-methylethyl)-1<em>H</em>-indol-2-yl]-3,5-dihydroxy-, [<em>R</em>*,<em>S</em>*-(<em>E</em>)]-(±)-;<em>rel</em>-(3<em>R</em>,5<em>S</em>,6<em>E</em>)-7-[3-(4-Fluorophenyl)-1-(1-methylethyl)-1<em>H</em>-indol-2-yl]-3,5-dihydroxy-6-heptenoic acid;Fluvastatin;6-Heptenoic acid, 7-[3-(4-fluorophenyl)-1-(1-methylethyl)-1<em>H</em>-indol-2-yl]-3,5-dihydroxy-, [<em>R</em>*,<em>S</em>*-(<em>E</em>)]-;Leschol;Fluvastatin XL;NSC 758896",
    "duplicated_cas_no": "885653-90-7",
    "SMILES": "C(=C/[C@@H](C[C@@H](CC(O)=O)O)O)\\C1=C(C=2C(N1C(C)C)=CC=CC2)C3=CC=C(F)C=C3",
    "meta_data": {
        "InChI": "InChI=1/C24H26FNO4/c1-15(2)26-21-6-4-3-5-20(21)24(16-7-9-17(25)10-8-16)22(26)12-11-18(27)13-19(28)14-23(29)30/h3-12,15,18-19,27-28H,13-14H2,1-2H3,(H,29,30)/b12-11+/t18-,19-/s2",
        "InChIKey": null,
        "Canonical SMILES": "O=C(O)CC(O)CC(O)C=CC1=C(C=2C=CC(F)=CC2)C=3C=CC=CC3N1C(C)C",
        "Molecular Formula": "C<sub>24</sub>H<sub>26</sub>FNO<sub>4</sub>",
        "Molecular Mass": "411.47",
        "Melting Point": "193.9-196.9 °C"
    }
}