{
    "cas_no": "15115-59-0",
    "key_name": "4-Chloroindan-1-one",
    "cn_name": "4-氯-1-茚满酮;4-氯-1-茚满酮;4-氯-1-茚酮;4-氯茚酮;4-氯-2,3-二氢-1H-茚-1-酮;",
    "alternate_name": "1<em>H</em>-Inden-1-one, 4-chloro-2,3-dihydro-;1-Indanone, 4-chloro-;4-Chloro-2,3-dihydro-1<em>H</em>-inden-1-one;4-Chloroindan-1-one;4-Chloroindanone",
    "duplicated_cas_no": "",
    "SMILES": "ClC1=C2C(C(=O)CC2)=CC=C1",
    "meta_data": {
        "InChI": "InChI=1S/C9H7ClO/c10-8-3-1-2-7-6(8)4-5-9(7)11/h1-3H,4-5H2",
        "InChIKey": null,
        "Canonical SMILES": "O=C1C=2C=CC=C(Cl)C2CC1",
        "Molecular Formula": "C<sub>9</sub>H<sub>7</sub>ClO",
        "Molecular Mass": "166.60",
        "Melting Point": "89-90 °C"
    }
}