{
    "cas_no": "17764-93-1",
    "key_name": "1-(5-Bromo-2-hydroxyphenyl)-1-propanone",
    "cn_name": null,
    "alternate_name": "1-Propanone, 1-(5-bromo-2-hydroxyphenyl)-;Propiophenone, 5′-bromo-2′-hydroxy-;1-(5-Bromo-2-hydroxyphenyl)-1-propanone;5′-Bromo-2′-hydroxypropiophenone;5-Bromo-2-hydroxypropiophenone;4-Bromo-2-(propionyl)phenol;1-(5-Bromo-2-hydroxyphenyl)propan-1-one",
    "duplicated_cas_no": "",
    "SMILES": "C(CC)(=O)C1=C(O)C=CC(Br)=C1",
    "meta_data": {
        "InChI": "InChI=1S/C9H9BrO2/c1-2-8(11)7-5-6(10)3-4-9(7)12/h3-5,12H,2H2,1H3",
        "InChIKey": null,
        "Canonical SMILES": "O=C(C1=CC(Br)=CC=C1O)CC",
        "Molecular Formula": "C<sub>9</sub>H<sub>9</sub>BrO<sub>2</sub>",
        "Molecular Mass": "229.07",
        "Boiling Point": "143-153 °C @ Press: 14 Torr",
        "Melting Point": "57.3 °C"
    }
}