{
    "cas_no": "2683-82-1",
    "key_name": "Octaethylporphyrin",
    "cn_name": "八乙基卟吩;",
    "alternate_name": "21<em>H</em>,23<em>H</em>-Porphine, 2,3,7,8,12,13,17,18-octaethyl-;Porphine, 2,3,7,8,12,13,17,18-octaethyl-;Porphine, 1,2,3,4,5,6,7,8-octaethyl-;2,3,7,8,12,13,17,18-Octaethyl-21<em>H</em>,23<em>H</em>-porphine;Octaethylporphyrin;1,2,3,4,5,6,7,8-Octaethylporphyrin;Octaethylporphine;2,3,7,8,12,13,17,18-Octaethylporphyrin;2,3,7,8,12,13,17,18-Octaetioporphyrin",
    "duplicated_cas_no": "106117-28-6;991-75-3",
    "SMILES": "C(C)C=1C(CC)=C2NC1C=C3C(CC)=C(CC)C(=N3)C=C4C(CC)=C(CC)C(=CC5=NC(=C2)C(CC)=C5CC)N4",
    "meta_data": {
        "InChI": "InChI=1S/C36H46N4/c1-9-21-22(10-2)30-18-32-25(13-5)26(14-6)34(39-32)20-36-28(16-8)27(15-7)35(40-36)19-33-24(12-4)23(11-3)31(38-33)17-29(21)37-30/h17-20,37,40H,9-16H2,1-8H3/b29-17-,30-18-,31-17?,32-18?,33-19-,34-20-,35-19?,36-20?",
        "InChIKey": null,
        "Canonical SMILES": "N1=C2C=C3NC(=CC4=NC(=CC=5NC(C=C1C(=C2CC)CC)=C(C5CC)CC)C(=C4CC)CC)C(=C3CC)CC",
        "Molecular Formula": "C<sub>36</sub>H<sub>46</sub>N<sub>4</sub>",
        "Molecular Mass": "534.78",
        "Melting Point": "&gt;300 °C"
    }
}