{
    "cas_no": "555-59-9",
    "key_name": "<em>N</em>-Phenylmaleamic acid",
    "cn_name": null,
    "alternate_name": "2-Butenoic acid, 4-oxo-4-(phenylamino)-, (2<em>Z</em>)-;Maleanilic acid;2-Butenoic acid, 4-oxo-4-(phenylamino)-, (<em>Z</em>)-;(2<em>Z</em>)-4-Oxo-4-(phenylamino)-2-butenoic acid;<em>N</em>-Phenylmaleamic acid;Maleic acid monoanilide;Maleanilinic acid;<em>N</em>-Phenylmaleinamic acid;Maleic acid monophenyl amide;(<em>Z</em>)-4-Oxo-4-(phenylamino)-2-butenoic acid",
    "duplicated_cas_no": "",
    "SMILES": "N(C(/C=C\\C(O)=O)=O)C1=CC=CC=C1",
    "meta_data": {
        "InChI": "InChI=1S/C10H9NO3/c12-9(6-7-10(13)14)11-8-4-2-1-3-5-8/h1-7H,(H,11,12)(H,13,14)/b7-6-",
        "InChIKey": null,
        "Canonical SMILES": "O=C(O)C=CC(=O)NC=1C=CC=CC1",
        "Molecular Formula": "C<sub>10</sub>H<sub>9</sub>NO<sub>3</sub>",
        "Molecular Mass": "191.18",
        "Melting Point": "192 °C (decomp)"
    }
}