{
    "cas_no": "4853-75-2",
    "key_name": "2-(Ethylsulfonyl)propane",
    "cn_name": "乙基异丙基砜;",
    "alternate_name": "Propane, 2-(ethylsulfonyl)-;Sulfone, ethyl isopropyl;2-(Ethylsulfonyl)propane;Ethyl isopropyl sulfone;2-Ethanesulfonyl-propane;2-(Ethanesulfonyl)propane",
    "duplicated_cas_no": "",
    "SMILES": "S(C(C)C)(CC)(=O)=O",
    "meta_data": {
        "InChI": "InChI=1S/C5H12O2S/c1-4-8(6,7)5(2)3/h5H,4H2,1-3H3",
        "InChIKey": null,
        "Canonical SMILES": "O=S(=O)(CC)C(C)C",
        "Molecular Formula": "C<sub>5</sub>H<sub>12</sub>O<sub>2</sub>S",
        "Molecular Mass": "136.21",
        "Boiling Point": "90-91 °C @ Press: 2 Torr",
        "Melting Point": "-9--6 °C"
    }
}