{
    "cas_no": "23936-60-9",
    "key_name": "1,2-Bis(dimethylphosphino)ethane",
    "cn_name": "1,2-双(二甲基瞵)乙烷;",
    "alternate_name": "Phosphine, 1,1′-(1,2-ethanediyl)bis[1,1-dimethyl-;Phosphine, ethylenebis[dimethyl-;Phosphine, 1,2-ethanediylbis[dimethyl-;1,1′-(1,2-Ethanediyl)bis[1,1-dimethylphosphine];Dimethyl-2-(dimethylphosphino)ethylphosphine;Ethylenebis(dimethylphosphine);1,2-Bis(dimethylphosphino)ethane;DMPE;1,2-DMPE;[2-(Dimethylphosphanyl)ethyl]dimethylphosphane;2-Dimethylphosphanylethyl(dimethyl)phosphane",
    "duplicated_cas_no": "",
    "SMILES": "C(CP(C)C)P(C)C",
    "meta_data": {
        "InChI": "InChI=1S/C6H16P2/c1-7(2)5-6-8(3)4/h5-6H2,1-4H3",
        "InChIKey": null,
        "Canonical SMILES": "P(C)(C)CCP(C)C",
        "Molecular Formula": "C<sub>6</sub>H<sub>16</sub>P<sub>2</sub>",
        "Molecular Mass": "150.14",
        "Boiling Point": "26 °C @ Press: 1 Torr",
        "Melting Point": "0 °C"
    }
}