{
    "cas_no": "10555-76-7",
    "key_name": "Sodium metaborate tetrahydrate",
    "cn_name": null,
    "alternate_name": "Boric acid (HBO<sub>2</sub>), sodium salt, tetrahydrate;Sodium metaborate tetrahydrate",
    "duplicated_cas_no": "",
    "SMILES": "B(O)=O.[Na].O",
    "meta_data": {
        "InChI": "InChI=1S/BHO2.Na.4H2O/c2-1-3;;;;;/h2H;;4*1H2",
        "InChIKey": null,
        "Canonical SMILES": "[Na].O=BO.O",
        "Molecular Formula": "BHO<sub>2</sub>.4H<sub>2</sub>O.Na",
        "Molecular Mass": "",
        "Melting Point": "55 °C",
        "Density": "1.743 g/cm³ @ Temp: 25 °C"
    }
}