{
    "cas_no": "25922-41-2",
    "key_name": "2,6-Dichloro-3-(trifluoromethyl)benzoic acid",
    "cn_name": null,
    "alternate_name": "Benzoic acid, 2,6-dichloro-3-(trifluoromethyl)-;<em>m</em>-Toluic acid, 2,6-dichloro-α,α,α-trifluoro-;2,6-Dichloro-3-(trifluoromethyl)benzoic acid;2,6-Dichloro-3-trifluoromethylbenzoic acid",
    "duplicated_cas_no": "",
    "SMILES": "ClC1=C(C(O)=O)C(Cl)=CC=C1C(F)(F)F",
    "meta_data": {
        "InChI": "InChI=1S/C8H3Cl2F3O2/c9-4-2-1-3(8(11,12)13)6(10)5(4)7(14)15/h1-2H,(H,14,15)",
        "InChIKey": null,
        "Canonical SMILES": "O=C(O)C=1C(Cl)=CC=C(C1Cl)C(F)(F)F",
        "Molecular Formula": "C<sub>8</sub>H<sub>3</sub>Cl<sub>2</sub>F<sub>3</sub>O<sub>2</sub>",
        "Molecular Mass": "259.01",
        "Melting Point": "90-92 °C"
    }
}