{
    "cas_no": "40054-01-1",
    "key_name": "6-(Bromomethyl)-2-pyridinemethanol",
    "cn_name": "6-溴甲基-2-吡啶甲醇;",
    "alternate_name": "2-Pyridinemethanol, 6-(bromomethyl)-;6-(Bromomethyl)-2-pyridinemethanol;2-(Bromomethyl)-6-(hydroxymethyl)pyridine;6-(Bromomethyl)-2-(hydroxymethyl)pyridine;[6-(Bromomethyl)pyridin-2-yl]methanol",
    "duplicated_cas_no": "",
    "SMILES": "C(Br)C=1N=C(CO)C=CC1",
    "meta_data": {
        "InChI": "InChI=1S/C7H8BrNO/c8-4-6-2-1-3-7(5-10)9-6/h1-3,10H,4-5H2",
        "InChIKey": null,
        "Canonical SMILES": "BrCC=1N=C(C=CC1)CO",
        "Molecular Formula": "C<sub>7</sub>H<sub>8</sub>BrNO",
        "Molecular Mass": "202.05",
        "Melting Point": "74-78 °C (decomp)"
    }
}