{
    "cas_no": "3535-75-9",
    "key_name": "4-Aminopyridine 1-oxide",
    "cn_name": null,
    "alternate_name": "4-Pyridinamine, 1-oxide;Pyridine, 4-amino-, 1-oxide;Phillips 1863;4-Aminopyridine 1-oxide;4-Aminopyridine <em>N</em>-oxide;NSC 351983",
    "duplicated_cas_no": "",
    "SMILES": "NC=1C=CN(=O)=CC1",
    "meta_data": {
        "InChI": "InChI=1S/C5H6N2O/c6-5-1-3-7(8)4-2-5/h1-4H,6H2",
        "InChIKey": null,
        "Canonical SMILES": "O=N1=CC=C(N)C=C1",
        "Molecular Formula": "C<sub>5</sub>H<sub>6</sub>N<sub>2</sub>O",
        "Molecular Mass": "110.11",
        "Melting Point": "229 °C"
    }
}