{
    "cas_no": "109-86-4",
    "key_name": "2-Methoxyethanol",
    "cn_name": "乙二醇甲醚;乙二醇单甲醚;",
    "alternate_name": "Ethanol, 2-methoxy-;Dowanol EM;Ethylene glycol methyl ether;Ethylene glycol monomethyl ether;Glycol methyl ether;Glycol monomethyl ether;2-Methoxyethanol;Methoxyhydroxyethane;Methyl glycol;Methyl oxitol;Poly-Solv EM;Methyl Cellosolve;Methoxyethanol;Methoxyethylene glycol;β-Methoxyethanol;1-Hydroxy-2-methoxyethane;2-Methoxy-1-ethanol;Monomethylglycol;Ektasolve EM;2-Methoxyethyl alcohol;3-Oxa-1-butanol;Monoethylene glycol methyl ether;Amsco-Solv EE;NSC 1258;Hisolve MC",
    "duplicated_cas_no": "",
    "SMILES": "C(CO)OC",
    "meta_data": {
        "InChI": "InChI=1S/C3H8O2/c1-5-3-2-4/h4H,2-3H2,1H3",
        "InChIKey": null,
        "Canonical SMILES": "OCCOC",
        "Molecular Formula": "C<sub>3</sub>H<sub>8</sub>O<sub>2</sub>",
        "Molecular Mass": "76.09",
        "Boiling Point": "124.1 °C",
        "Melting Point": "-85.1 °C",
        "Density": "0.96 g/cm³"
    }
}