{
    "cas_no": "122931-48-0",
    "key_name": "Rimsulfuron",
    "cn_name": "砜嘧磺隆;N-(((4,6-二甲氧基-2-嘧啶基)氨基)羰基)-3-(乙基磺酰基)-2-吡啶磺酰胺;",
    "alternate_name": "2-Pyridinesulfonamide, <em>N</em>-[[(4,6-dimethoxy-2-pyrimidinyl)amino]carbonyl]-3-(ethylsulfonyl)-;<em>N</em>-[[(4,6-Dimethoxy-2-pyrimidinyl)amino]carbonyl]-3-(ethylsulfonyl)-2-pyridinesulfonamide;DPX-E 9636;Rimsulfuron;Titus;Tarot;Titus (pesticide);Matrix;Cato;Cato (pesticide);Amurg;Amurg 25WG;Tiger (herbicide);Tiger 25OD;Tarot 25WG;Tiger;Titus 25WG;Rush;Doncep;Resolve SG;Rimel 25SG;Renriduron",
    "duplicated_cas_no": "",
    "SMILES": "S(NC(NC=1N=C(OC)C=C(OC)N1)=O)(=O)(=O)C2=C(S(CC)(=O)=O)C=CC=N2",
    "meta_data": {
        "InChI": "InChI=1S/C14H17N5O7S2/c1-4-27(21,22)9-6-5-7-15-12(9)28(23,24)19-14(20)18-13-16-10(25-2)8-11(17-13)26-3/h5-8H,4H2,1-3H3,(H2,16,17,18,19,20)",
        "InChIKey": null,
        "Canonical SMILES": "O=C(NC=1N=C(OC)C=C(N1)OC)NS(=O)(=O)C2=NC=CC=C2S(=O)(=O)CC",
        "Molecular Formula": "C<sub>14</sub>H<sub>17</sub>N<sub>5</sub>O<sub>7</sub>S<sub>2</sub>",
        "Molecular Mass": "431.44",
        "Melting Point": "177 °C"
    }
}