{
    "cas_no": "5342-95-0",
    "key_name": "1-(1-Piperidinylmethyl)-2-naphthalenol",
    "cn_name": null,
    "alternate_name": "2-Naphthalenol, 1-(1-piperidinylmethyl)-;2-Naphthol, 1-(piperidinomethyl)-;1-(1-Piperidinylmethyl)-2-naphthalenol;1-(Piperidinomethyl)-2-naphthol;1-Piperidinylmethyl-2-naphthol;NSC 3684",
    "duplicated_cas_no": "",
    "SMILES": "C(C=1C2=C(C=CC1O)C=CC=C2)N3CCCCC3",
    "meta_data": {
        "InChI": "InChI=1S/C16H19NO/c18-16-9-8-13-6-2-3-7-14(13)15(16)12-17-10-4-1-5-11-17/h2-3,6-9,18H,1,4-5,10-12H2",
        "InChIKey": null,
        "Canonical SMILES": "OC=1C=CC=2C=CC=CC2C1CN3CCCCC3",
        "Molecular Formula": "C<sub>16</sub>H<sub>19</sub>NO",
        "Molecular Mass": "241.33",
        "Melting Point": "96 °C"
    }
}