{
    "cas_no": "18698-99-2",
    "key_name": "2-Cyanobenzeneacetic acid",
    "cn_name": "2-氰基-苯乙酸;",
    "alternate_name": "Benzeneacetic acid, 2-cyano-;Acetic acid, (<em>o</em>-cyanophenyl)-;2-Cyanobenzeneacetic acid;2-Cyanophenylacetic acid;2-(2-Cyanophenyl)acetic acid;<em>o</em>-Cyanobenzeneacetic acid",
    "duplicated_cas_no": "",
    "SMILES": "C(C(O)=O)C1=C(C#N)C=CC=C1",
    "meta_data": {
        "InChI": "InChI=1S/C9H7NO2/c10-6-8-4-2-1-3-7(8)5-9(11)12/h1-4H,5H2,(H,11,12)",
        "InChIKey": null,
        "Canonical SMILES": "N#CC=1C=CC=CC1CC(=O)O",
        "Molecular Formula": "C<sub>9</sub>H<sub>7</sub>NO<sub>2</sub>",
        "Molecular Mass": "161.16",
        "Melting Point": "122-123 °C"
    }
}