{
    "cas_no": "160003-66-7",
    "key_name": "Iniparib",
    "cn_name": null,
    "alternate_name": "Benzamide, 4-iodo-3-nitro-;4-Iodo-3-nitrobenzamide;Iniparib;BSI 201;SML 0623;SAR240550",
    "duplicated_cas_no": "937799-96-7",
    "SMILES": "N(=O)(=O)C1=CC(C(N)=O)=CC=C1I",
    "meta_data": {
        "InChI": "InChI=1S/C7H5IN2O3/c8-5-2-1-4(7(9)11)3-6(5)10(12)13/h1-3H,(H2,9,11)",
        "InChIKey": null,
        "Canonical SMILES": "O=C(N)C1=CC=C(I)C(=C1)N(=O)=O",
        "Molecular Formula": "C<sub>7</sub>H<sub>5</sub>IN<sub>2</sub>O<sub>3</sub>",
        "Molecular Mass": "292.03",
        "Melting Point": "155-156 °C"
    }
}