{
    "cas_no": "11113-62-5",
    "key_name": "Enniatin",
    "cn_name": null,
    "alternate_name": "Enniatin",
    "duplicated_cas_no": "",
    "SMILES": "",
    "meta_data": {
        "InChI": "",
        "InChIKey": null,
        "Canonical SMILES": "",
        "Molecular Formula": "Unspecified",
        "Molecular Mass": "",
        "Melting Point": "121-122 °C"
    }
}