{
    "uri": "substance/pt/11113625",
    "rn": "11113-62-5",
    "name": "Enniatin",
    "images": [],
    "inchi": "",
    "inchiKey": "",
    "smile": "",
    "canonicalSmile": "",
    "molecularFormula": "Unspecified",
    "molecularMass": "",
    "experimentalProperties": [
        {
            "name": "Melting Point",
            "property": "121-122 °C",
            "sourceNumber": 1
        }
    ],
    "propertyCitations": [
        {
            "docUri": "document/pt/document/17883669",
            "sourceNumber": 1,
            "source": "Gaumann, E.; Experientia, (1947), 3, 202-3, CAplus"
        }
    ],
    "synonyms": [
        "Enniatin"
    ],
    "replacedRns": [],
    "hasMolfile": false,
    "source": "https://commonchemistry.cas.org/detail?cas_rn=11113-62-5"
}