{
    "cas_no": "84504-69-8",
    "key_name": "1,3,5-Triazine-2,4-diamine, 6-(2,5-dichlorophenyl)-, (2<em>Z</em>)-2-butenedioate (1:1)",
    "cn_name": "马来酸伊索拉定;2,4-二氨基-6-(2,5-二氯苯基)-1,3,5-三嗪顺丁烯二酸盐;",
    "alternate_name": "1,3,5-Triazine-2,4-diamine, 6-(2,5-dichlorophenyl)-, (2<em>Z</em>)-2-butenedioate (1:1);1,3,5-Triazine-2,4-diamine, 6-(2,5-dichlorophenyl)-, (<em>Z</em>)-2-butenedioate (1:1);MN 1695;2,4-Diamino-6-(2,5-dichlorophenyl)-<em>s</em>-triazine maleate;Irsogladine maleate;Gaslon;Gaslon N",
    "duplicated_cas_no": "",
    "SMILES": "ClC1=C(C=2N=C(N)N=C(N)N2)C=C(Cl)C=C1.C(=C\\C(O)=O)\\C(O)=O",
    "meta_data": {
        "InChI": "InChI=1S/C9H7Cl2N5.C4H4O4/c10-4-1-2-6(11)5(3-4)7-14-8(12)16-9(13)15-7;5-3(6)1-2-4(7)8/h1-3H,(H4,12,13,14,15,16);1-2H,(H,5,6)(H,7,8)/b;2-1-",
        "InChIKey": null,
        "Canonical SMILES": "O=C(O)C=CC(=O)O.ClC=1C=CC(Cl)=C(C1)C=2N=C(N=C(N2)N)N",
        "Molecular Formula": "C<sub>9</sub>H<sub>7</sub>Cl<sub>2</sub>N<sub>5</sub>.C<sub>4</sub>H<sub>4</sub>O<sub>4</sub>",
        "Molecular Mass": "",
        "Melting Point": "205 °C (decomp)"
    }
}