{
    "cas_no": "13983-13-6",
    "key_name": "Rifampicin quinone",
    "cn_name": null,
    "alternate_name": "Rifamycin, 1,4-dideoxy-1,4-dihydro-3-[(<em>E</em>)-[(4-methyl-1-piperazinyl)imino]methyl]-1,4-dioxo-;2,7-(Epoxypentadeca[1,11,13]trienimino)naphtho[2,1-<em>b</em>]furan-1,6,9,11(2<em>H</em>)-tetrone, 5,17,19,21-tetrahydroxy-23-methoxy-2,4,12,16,18,20,22-heptamethyl-8-[<em>N</em>-(4-methyl-1-piperazinyl)formimidoyl]-, 21-acetate;2,7-(Epoxypentadeca[1,11,13]trienimino)naphtho[2,1-<em>b</em>]furan, rifamycin deriv.;1,4-Dideoxy-1,4-dihydro-3-[(<em>E</em>)-[(4-methyl-1-piperazinyl)imino]methyl]-1,4-dioxorifamycin;Rifaldazinequinone;Rifampicin quinone;Rifampin quinone;NSC 145633",
    "duplicated_cas_no": "123683-19-2;23100-90-5;79623-40-8",
    "SMILES": "",
    "meta_data": {
        "InChI": "",
        "InChIKey": null,
        "Canonical SMILES": "",
        "Molecular Formula": "C<sub>43</sub>H<sub>56</sub>N<sub>4</sub>O<sub>12</sub>",
        "Molecular Mass": "820.92",
        "Melting Point": "185 °C"
    }
}