{
    "cas_no": "5152-84-1",
    "key_name": "4-Chlorocinnoline",
    "cn_name": null,
    "alternate_name": "Cinnoline, 4-chloro-;4-Chlorocinnoline",
    "duplicated_cas_no": "",
    "SMILES": "ClC=1C2=C(N=NC1)C=CC=C2",
    "meta_data": {
        "InChI": "InChI=1S/C8H5ClN2/c9-7-5-10-11-8-4-2-1-3-6(7)8/h1-5H",
        "InChIKey": null,
        "Canonical SMILES": "ClC1=CN=NC2=CC=CC=C12",
        "Molecular Formula": "C<sub>8</sub>H<sub>5</sub>ClN<sub>2</sub>",
        "Molecular Mass": "164.59",
        "Melting Point": "76-77 °C"
    }
}