{
    "cas_no": "2100-42-7",
    "key_name": "2-Chloro-1,4-dimethoxybenzene",
    "cn_name": "2-氯-1,4-二甲氧基苯;",
    "alternate_name": "Benzene, 2-chloro-1,4-dimethoxy-;2-Chloro-1,4-dimethoxybenzene;Chlorohydroquinone dimethyl ether;1-Chloro-2,5-dimethoxybenzene;Chloro-1,4-dimethoxybenzene;2,5-Dimethoxychlorobenzene;Monochloro-1,4-dimethoxybenzene;NSC 60152;2-Chloro-4-methoxyanisole;2,5-Dimethoxyphenyl chloride",
    "duplicated_cas_no": "",
    "SMILES": "O(C)C1=CC(Cl)=C(OC)C=C1",
    "meta_data": {
        "InChI": "InChI=1S/C8H9ClO2/c1-10-6-3-4-8(11-2)7(9)5-6/h3-5H,1-2H3",
        "InChIKey": null,
        "Canonical SMILES": "ClC1=CC(OC)=CC=C1OC",
        "Molecular Formula": "C<sub>8</sub>H<sub>9</sub>ClO<sub>2</sub>",
        "Molecular Mass": "172.61",
        "Boiling Point": "110 °C @ Press: 0.6 Torr"
    }
}