{
    "cas_no": "1769-24-0",
    "key_name": "2-Methyl-4(3<em>H</em>)-quinazolinone",
    "cn_name": "2-甲基-4(3H)-喹唑啉酮;",
    "alternate_name": "4(3<em>H</em>)-Quinazolinone, 2-methyl-;4(1<em>H</em>)-Quinazolinone, 2-methyl-;4-Quinazolinol, 2-methyl-;2-Methyl-4(3<em>H</em>)-quinazolinone;2-Methyl-4-quinazolone;2-Methylquinazolone;2-Methyl-4-quinazolinone;2-Methyl-4(3<em>H</em>)-quinazolone;2-Methyl-4-oxoquinazoline;3<em>H</em>-2-Methyl-4-oxoquinazoline;4-Hydroxy-2-methylquinazoline;2-Methyl-4-quinazolinol;NSC 12005;NSC 2757;2-Methyl-3<em>H</em>-quinazolin-4-one;2-Methyl-3,4-dihydroquinazolin-4-one",
    "duplicated_cas_no": "5324-99-2",
    "SMILES": "O=C1C=2C(NC(C)=N1)=CC=CC2",
    "meta_data": {
        "InChI": "InChI=1S/C9H8N2O/c1-6-10-8-5-3-2-4-7(8)9(12)11-6/h2-5H,1H3,(H,10,11,12)",
        "InChIKey": null,
        "Canonical SMILES": "O=C1N=C(NC=2C=CC=CC12)C",
        "Molecular Formula": "C<sub>9</sub>H<sub>8</sub>N<sub>2</sub>O",
        "Molecular Mass": "160.17",
        "Melting Point": "239-241 °C"
    }
}