{
    "cas_no": "3473-76-5",
    "key_name": "(Anilinomethyl)triethoxysilane",
    "cn_name": null,
    "alternate_name": "Benzenamine, <em>N</em>-[(triethoxysilyl)methyl]-;Aniline, <em>N</em>-[(triethoxysilyl)methyl]-;<em>N</em>-[(Triethoxysilyl)methyl]benzenamine;(Anilinomethyl)triethoxysilane;[(Phenylamino)methyl]triethoxysilane;ND 42;KH 42;KH 42 (coupling agent);Sj 42;KH-ND 42;SiSiB PC 1711;Aniline methyltriethoxysilane;UP 73",
    "duplicated_cas_no": "1446347-91-6",
    "SMILES": "[Si](CNC1=CC=CC=C1)(OCC)(OCC)OCC",
    "meta_data": {
        "InChI": "InChI=1S/C13H23NO3Si/c1-4-15-18(16-5-2,17-6-3)12-14-13-10-8-7-9-11-13/h7-11,14H,4-6,12H2,1-3H3",
        "InChIKey": null,
        "Canonical SMILES": "O(CC)[Si](OCC)(OCC)CNC=1C=CC=CC1",
        "Molecular Formula": "C<sub>13</sub>H<sub>23</sub>NO<sub>3</sub>Si",
        "Molecular Mass": "269.41",
        "Boiling Point": "135-137 °C @ Press: 4 Torr",
        "Density": "1.004 g/cm³ @ Temp: 25 °C"
    }
}