{
    "cas_no": "21548-73-2",
    "key_name": "Silver sulfide (Ag<sub>2</sub>S)",
    "cn_name": null,
    "alternate_name": "Silver sulfide (Ag<sub>2</sub>S);Silver sulfide;Disilver sulfide;Disilver monosulfide;Silver(1+) sulfide;Argentous sulfide",
    "duplicated_cas_no": "1302-08-5",
    "SMILES": "S([Ag])[Ag]",
    "meta_data": {
        "InChI": "InChI=1S/2Ag.S",
        "InChIKey": null,
        "Canonical SMILES": "[Ag]S[Ag]",
        "Molecular Formula": "Ag<sub>2</sub>S",
        "Molecular Mass": "",
        "Melting Point": "837 °C",
        "Density": "7.1 g/cm³ (approx) (solid)"
    }
}