{
    "cas_no": "13122-18-4",
    "key_name": "<em>tert</em>-Butyl peroxy-3,5,5-trimethylhexanoate",
    "cn_name": "叔丁基过氧化-3,5,5-三甲基己酸酯;3,5,5-三甲基己酸过氧化叔丁酯;",
    "alternate_name": "Hexaneperoxoic acid, 3,5,5-trimethyl-, 1,1-dimethylethyl ester;Peroxyhexanoic acid, 3,5,5-trimethyl-, <em>tert</em>-butyl ester;<em>tert</em>-Butyl 3,5,5-trimethylperoxyhexanoate;<em>tert</em>-Butyl peroxy-3,5,5-trimethylhexanoate;Trigonox 42;Perbutyl 355;Trigonox 42S;Luperox 270;Trigonox 42-50PS;<em>tert</em>-Butyl 3,5,5-trimethylhexaneperoxoate;Trigonox 42-40B;Trigonox 42PR;<em>tert</em>-Butyl 3,5,5-trimethylhexanoyl peroxide;Peroxan PIN",
    "duplicated_cas_no": "153302-08-0",
    "SMILES": "C(CC(OOC(C)(C)C)=O)(CC(C)(C)C)C",
    "meta_data": {
        "InChI": "InChI=1S/C13H26O3/c1-10(9-12(2,3)4)8-11(14)15-16-13(5,6)7/h10H,8-9H2,1-7H3",
        "InChIKey": null,
        "Canonical SMILES": "O=C(OOC(C)(C)C)CC(C)CC(C)(C)C",
        "Molecular Formula": "C<sub>13</sub>H<sub>26</sub>O<sub>3</sub>",
        "Molecular Mass": "230.34",
        "Melting Point": "160 °C (decomp)"
    }
}