{
    "cas_no": "137071-32-0",
    "key_name": "(-)-Pimecrolimus",
    "cn_name": "吡美莫司;匹美克莫司;",
    "alternate_name": "15,19-Epoxy-3<em>H</em>-pyrido[2,1-<em>c</em>][1,4]oxaazacyclotricosine-1,7,20,21(4<em>H</em>,23<em>H</em>)-tetrone, 3-[(1<em>E</em>)-2-[(1<em>R</em>,3<em>R</em>,4<em>S</em>)-4-chloro-3-methoxycyclohexyl]-1-methylethenyl]-8-ethyl-5,6,8,11,12,13,14,15,16,17,18,19,24,25,26,26a-hexadecahydro-5,19-dihydroxy-14,16-dimethoxy-4,10,12,18-tetramethyl-, (3<em>S</em>,4<em>R</em>,5<em>S</em>,8<em>R</em>,9<em>E</em>,12<em>S</em>,14<em>S</em>,15<em>R</em>,16<em>S</em>,18<em>R</em>,19<em>R</em>,26a<em>S</em>)-;15,19-Epoxy-3<em>H</em>-pyrido[2,1-<em>c</em>][1,4]oxaazacyclotricosine-1,7,20,21(4<em>H</em>,23<em>H</em>)-tetrone, 3-[2-(4-chloro-3-methoxycyclohexyl)-1-methylethenyl]-8-ethyl-5,6,8,11,12,13,14,15,16,17,18,19,24,25,26,26a-hexadecahydro-5,19-dihydroxy-14,16-dimethoxy-4,10,12,18-tetramethyl-, [3<em>S</em>-[3<em>R</em>*[<em>E</em>(1<em>S</em>*,3<em>S</em>*,4<em>R</em>*)],4<em>S</em>*,5<em>R</em>*,8<em>S</em>*,9<em>E</em>,12<em>R</em>*,14<em>R</em>*,15<em>S</em>*,16<em>R</em>*,18<em>S</em>*,19<em>S</em>*,26a<em>R</em>*]]-;(3<em>S</em>,4<em>R</em>,5<em>S</em>,8<em>R</em>,9<em>E</em>,12<em>S</em>,14<em>S</em>,15<em>R</em>,16<em>S</em>,18<em>R</em>,19<em>R</em>,26a<em>S</em>)-3-[(1<em>E</em>)-2-[(1<em>R</em>,3<em>R</em>,4<em>S</em>)-4-Chloro-3-methoxycyclohexyl]-1-methylethenyl]-8-ethyl-5,6,8,11,12,13,14,15,16,17,18,19,24,25,26,26a-hexadecahydro-5,19-dihydroxy-14,16-dimethoxy-4,10,12,18-tetramethyl-15,19-epoxy-3<em>H</em>-pyrido[2,1-<em>c</em>][1,4]oxaazacyclotricosine-1,7,20,21(4<em>H</em>,23<em>H</em>)-tetrone;33-<em>epi</em>-Chloro-33-desoxyascomycin;SDZ-ASM 981;Pimecrolimus;Elidel;ASM 981;33-Epichloro-33-desoxyascomycin;Picrolimus;(-)-Pimecrolimus",
    "duplicated_cas_no": "",
    "SMILES": "O(C)[C@@H]1[C@@]2(O[C@](O)([C@H](C)C1)C(=O)C(=O)N3[C@](C(=O)O[C@H](\\C(=C\\[C@H]4C[C@@H](OC)[C@@H](Cl)CC4)\\C)[C@H](C)[C@@H](O)CC(=O)[C@H](CC)/C=C(\\C)/C[C@H](C)C[C@@H]2OC)(CCCC3)[H])[H]",
    "meta_data": {
        "InChI": "InChI=1S/C43H68ClNO11/c1-10-30-18-24(2)17-25(3)19-36(53-8)39-37(54-9)21-27(5)43(51,56-39)40(48)41(49)45-16-12-11-13-32(45)42(50)55-38(28(6)33(46)23-34(30)47)26(4)20-29-14-15-31(44)35(22-29)52-7/h18,20,25,27-33,35-39,46,51H,10-17,19,21-23H2,1-9H3/b24-18+,26-20+/t25-,27+,28+,29-,30+,31-,32-,33-,35+,36-,37-,38+,39+,43+/m0/s1",
        "InChIKey": null,
        "Canonical SMILES": "O=C1C(=O)C2(O)OC(C(OC)CC(C)CC(=CC(C(=O)CC(O)C(C)C(OC(=O)C3N1CCCC3)C(=CC4CCC(Cl)C(OC)C4)C)CC)C)C(OC)CC2C",
        "Molecular Formula": "C<sub>43</sub>H<sub>68</sub>ClNO<sub>11</sub>",
        "Molecular Mass": "810.45",
        "Melting Point": "135-136 °C"
    }
}