{
    "cas_no": "7440-19-9",
    "key_name": "Samarium",
    "cn_name": null,
    "alternate_name": "Samarium;MeSH ID: D012493",
    "duplicated_cas_no": "110123-52-9;1232308-67-6",
    "SMILES": "[Sm]",
    "meta_data": {
        "InChI": "InChI=1S/Sm",
        "InChIKey": null,
        "Canonical SMILES": "[Sm]",
        "Molecular Formula": "Sm",
        "Molecular Mass": "",
        "Boiling Point": "1024 °C",
        "Melting Point": "1025-1050 °C",
        "Density": "7.53 g/cm³"
    }
}