{
    "cas_no": "5006-66-6",
    "key_name": "6-Hydroxynicotinic acid",
    "cn_name": "6-羟基烟酸;",
    "alternate_name": "3-Pyridinecarboxylic acid, 1,6-dihydro-6-oxo-;Nicotinic acid, 1,6-dihydro-6-oxo-;Nicotinic acid, 6-hydroxy-;1,6-Dihydro-6-oxo-3-pyridinecarboxylic acid;6-Hydroxynicotinic acid;2-Pyridone-5-carboxylic acid;6-Hydroxyniacin;5-Carboxy-2-pyridone;6-Hydroxypyridine-3-carboxylic acid;2-Hydroxypyridine-5-carboxylic acid;NSC 35054;NSC 53377;NSC 8620;2-Hydroxy-5-carboxypyridine;6-Oxo-1,6-dihydro-pyridine-3-carboxylic acid;2-Oxopyridine-5-carboxylic acid",
    "duplicated_cas_no": "4588-15-2",
    "SMILES": "C(O)(=O)C=1C=CC(=O)NC1",
    "meta_data": {
        "InChI": "InChI=1S/C6H5NO3/c8-5-2-1-4(3-7-5)6(9)10/h1-3H,(H,7,8)(H,9,10)",
        "InChIKey": null,
        "Canonical SMILES": "O=C(O)C=1C=CC(=O)NC1",
        "Molecular Formula": "C<sub>6</sub>H<sub>5</sub>NO<sub>3</sub>",
        "Molecular Mass": "139.11",
        "Melting Point": "310 °C (decomp)"
    }
}