{
    "cas_no": "31645-35-9",
    "key_name": "9-Anthrylmethyl methacrylate",
    "cn_name": null,
    "alternate_name": "2-Propenoic acid, 2-methyl-, 9-anthracenylmethyl ester;Methacrylic acid, 9-anthrylmethyl ester;9-Anthracenemethanol, methacrylate;9-Anthrylmethyl methacrylate;9-(Methacryloyloxymethyl)anthracene;9-Anthracenylmethyl methacrylate",
    "duplicated_cas_no": "1032306-13-0",
    "SMILES": "C(OC(C(C)=C)=O)C=1C2=C(C=C3C1C=CC=C3)C=CC=C2",
    "meta_data": {
        "InChI": "InChI=1S/C19H16O2/c1-13(2)19(20)21-12-18-16-9-5-3-7-14(16)11-15-8-4-6-10-17(15)18/h3-11H,1,12H2,2H3",
        "InChIKey": null,
        "Canonical SMILES": "O=C(OCC=1C=2C=CC=CC2C=C3C=CC=CC31)C(=C)C",
        "Molecular Formula": "C<sub>19</sub>H<sub>16</sub>O<sub>2</sub>",
        "Molecular Mass": "276.33",
        "Melting Point": "85-86.5 °C"
    }
}