{
    "cas_no": "2273-51-0",
    "key_name": "Oxodiphenylstannane",
    "cn_name": "二苯基氧化锡;氧化二苯锡;",
    "alternate_name": "Stannane, oxodiphenyl-;Diphenyltin oxide;Tin, oxodiphenyl-;Oxodiphenylstannane;NSC 55161",
    "duplicated_cas_no": "",
    "SMILES": "[Sn](=O)(C1=CC=CC=C1)C2=CC=CC=C2",
    "meta_data": {
        "InChI": "InChI=1S/2C6H5.O.Sn/c2*1-2-4-6-5-3-1;;/h2*1-5H;;",
        "InChIKey": null,
        "Canonical SMILES": "O=[Sn](C=1C=CC=CC1)C=2C=CC=CC2",
        "Molecular Formula": "C<sub>12</sub>H<sub>10</sub>OSn",
        "Molecular Mass": "288.92",
        "Melting Point": "320 °C (decomp)"
    }
}