{
    "cas_no": "2447-57-6",
    "key_name": "Sulfadoxine",
    "cn_name": "周效磺胺;磺胺邻二甲氧嘧啶;",
    "alternate_name": "Benzenesulfonamide, 4-amino-<em>N</em>-(5,6-dimethoxy-4-pyrimidinyl)-;Sulfanilamide, <em>N</em><sup>1</sup>-(5,6-dimethoxy-4-pyrimidinyl)-;4-Amino-<em>N</em>-(5,6-dimethoxy-4-pyrimidinyl)benzenesulfonamide;Ro 4-4393;<em>N</em><sup>1</sup>-5,6-Dimethoxy-4-pyrimidinylsulfanilamide;4,5-Dimethoxy-6-sulfanilamidopyrimidine;Fanasil;4-Sulfanilamido-5,6-dimethoxypyrimidine;Sulformetoxine;Sulforthodimethoxine;Sulforthomidine;WR 4073;Sulfadoxine;Sulformethoxine;Sanasil;Sulfadoxin;Sulformetoxin;Fanasulf;Orthosulfin;4-Amino-<em>N</em>-(5,6-dimethoxy-4-pyrimidinyl)benzensulfonamide;Sulfadimoxine;MeSH ID: D013413",
    "duplicated_cas_no": "",
    "SMILES": "N(S(=O)(=O)C1=CC=C(N)C=C1)C=2C(OC)=C(OC)N=CN2",
    "meta_data": {
        "InChI": "InChI=1S/C12H14N4O4S/c1-19-10-11(14-7-15-12(10)20-2)16-21(17,18)9-5-3-8(13)4-6-9/h3-7H,13H2,1-2H3,(H,14,15,16)",
        "InChIKey": null,
        "Canonical SMILES": "O=S(=O)(NC=1N=CN=C(OC)C1OC)C2=CC=C(N)C=C2",
        "Molecular Formula": "C<sub>12</sub>H<sub>14</sub>N<sub>4</sub>O<sub>4</sub>S",
        "Molecular Mass": "310.33",
        "Melting Point": "190-194 °C"
    }
}