{
    "cas_no": "1075-89-4",
    "key_name": "8-Azaspiro[4.5]decane-7,9-dione",
    "cn_name": "3,3-四亚甲基戊二酰亚胺;8-氮杂螺[4,5]癸烷-7,9-二酮;",
    "alternate_name": "8-Azaspiro[4.5]decane-7,9-dione;1,1-Cyclopentanediacetimide;β-Spirocyclopentaneglutarimide;3,3-Tetramethyleneglutarimide;3-Spirocyclopentaneglutarimide;4,4-Tetramethyleneglutarimide;NSC 400092",
    "duplicated_cas_no": "",
    "SMILES": "O=C1CC2(CC(=O)N1)CCCC2",
    "meta_data": {
        "InChI": "InChI=1S/C9H13NO2/c11-7-5-9(3-1-2-4-9)6-8(12)10-7/h1-6H2,(H,10,11,12)",
        "InChIKey": null,
        "Canonical SMILES": "O=C1NC(=O)CC2(C1)CCCC2",
        "Molecular Formula": "C<sub>9</sub>H<sub>13</sub>NO<sub>2</sub>",
        "Molecular Mass": "167.21",
        "Melting Point": "153 °C"
    }
}