{
    "cas_no": "18479-49-7",
    "key_name": "3,7-Dimethyl-1-octen-3-ol",
    "cn_name": "3,7-二甲基-1-辛烯-3-醇;",
    "alternate_name": "1-Octen-3-ol, 3,7-dimethyl-;3,7-Dimethyl-1-octen-3-ol;6,7-Dihydrolinalool;Dihydrolinalol",
    "duplicated_cas_no": "",
    "SMILES": "C(CCCC(C)C)(C=C)(C)O",
    "meta_data": {
        "InChI": "InChI=1S/C10H20O/c1-5-10(4,11)8-6-7-9(2)3/h5,9,11H,1,6-8H2,2-4H3",
        "InChIKey": null,
        "Canonical SMILES": "OC(C=C)(C)CCCC(C)C",
        "Molecular Formula": "C<sub>10</sub>H<sub>20</sub>O",
        "Molecular Mass": "156.27",
        "Boiling Point": "89-91 °C @ Press: 15 Torr"
    }
}