{
    "cas_no": "117846-58-9",
    "key_name": "2,6-Dibromo-3,5-dimethylpyridine",
    "cn_name": null,
    "alternate_name": "Pyridine, 2,6-dibromo-3,5-dimethyl-;2,6-Dibromo-3,5-dimethylpyridine;2,6-Dibromo-3,5-lutidine",
    "duplicated_cas_no": "",
    "SMILES": "CC1=C(Br)N=C(Br)C(C)=C1",
    "meta_data": {
        "InChI": "InChI=1S/C7H7Br2N/c1-4-3-5(2)7(9)10-6(4)8/h3H,1-2H3",
        "InChIKey": null,
        "Canonical SMILES": "BrC=1N=C(Br)C(=CC1C)C",
        "Molecular Formula": "C<sub>7</sub>H<sub>7</sub>Br<sub>2</sub>N",
        "Molecular Mass": "264.95",
        "Melting Point": "107-108 °C"
    }
}