{
    "cas_no": "81055-73-4",
    "key_name": "Benzoic acid, 2,6-dichloro-, ethyl ester",
    "cn_name": "2,6-二氯苯甲酸乙酯;",
    "alternate_name": "Benzoic acid, 2,6-dichloro-, ethyl ester;Ethyl 2,6-dichlorobenzoate;2,6-Dichlorobenzoic acid ethyl ester",
    "duplicated_cas_no": "",
    "SMILES": "C(OCC)(=O)C1=C(Cl)C=CC=C1Cl",
    "meta_data": {
        "InChI": "InChI=1S/C9H8Cl2O2/c1-2-13-9(12)8-6(10)4-3-5-7(8)11/h3-5H,2H2,1H3",
        "InChIKey": null,
        "Canonical SMILES": "O=C(OCC)C=1C(Cl)=CC=CC1Cl",
        "Molecular Formula": "C<sub>9</sub>H<sub>8</sub>Cl<sub>2</sub>O<sub>2</sub>",
        "Molecular Mass": "219.06",
        "Melting Point": "96-97 °C"
    }
}