{
    "cas_no": "101079-63-4",
    "key_name": "2,6-Dichloro-3,4-pyridinediamine",
    "cn_name": null,
    "alternate_name": "3,4-Pyridinediamine, 2,6-dichloro-;Pyridine, 3,4-diamino-2,6-dichloro-;2,6-Dichloro-3,4-pyridinediamine;3,4-Diamino-2,6-dichloropyridine;2,6-Dichloropyridine-3,4-diamine",
    "duplicated_cas_no": "",
    "SMILES": "NC=1C(N)=CC(Cl)=NC1Cl",
    "meta_data": {
        "InChI": "InChI=1S/C5H5Cl2N3/c6-3-1-2(8)4(9)5(7)10-3/h1H,9H2,(H2,8,10)",
        "InChIKey": null,
        "Canonical SMILES": "ClC=1N=C(Cl)C(N)=C(N)C1",
        "Molecular Formula": "C<sub>5</sub>H<sub>5</sub>Cl<sub>2</sub>N<sub>3</sub>",
        "Molecular Mass": "178.02",
        "Melting Point": "181-183 °C"
    }
}