{
    "cas_no": "80-15-9",
    "key_name": "Cumene hydroperoxide",
    "cn_name": "过氧化氢异丙苯;过氧化羟基异丙苯;异丙苯基过氧化氢;",
    "alternate_name": "Hydroperoxide, 1-methyl-1-phenylethyl;Hydroperoxide, α,α-dimethylbenzyl;1-Methyl-1-phenylethyl hydroperoxide;Cumene hydroperoxide;Cumyl hydroperoxide;α-Cumyl hydroperoxide;α,α-Dimethylbenzyl hydroperoxide;Isopropylbenzene hydroperoxide;α-Cumene hydroperoxide;Percumyl H;Trigonox K 80;Cumenyl hydroperoxide;7-Cumyl hydroperoxide;2-Phenyl-2-propyl hydroperoxide;Hyperiz;Kayacumene H;R 239A;Trigonox R 239R;Cumen hydroperoxide;CHP 158;2-Hydroperoxy-2-phenylpropane;Percumyl H 80;Trigonox R 239A;H 80;Luperox CU 90;CU 90;CHP 90;Percumyl H 18;2-Phenylpropyl hydroperoxide;Cumyl hydrogen peroxide;CHP 5;Hyperis;CHP;Trigonox K 90;Percumyl H 90;CHPO;Luperox CU 80;PH 80;Norox CHP;CU 90L;Peroxan CU 90L;C 109598",
    "duplicated_cas_no": "79568-78-8",
    "SMILES": "C(OO)(C)(C)C1=CC=CC=C1",
    "meta_data": {
        "InChI": "InChI=1S/C9H12O2/c1-9(2,11-10)8-6-4-3-5-7-8/h3-7,10H,1-2H3",
        "InChIKey": null,
        "Canonical SMILES": "OOC(C=1C=CC=CC1)(C)C",
        "Molecular Formula": "C<sub>9</sub>H<sub>12</sub>O<sub>2</sub>",
        "Molecular Mass": "152.19",
        "Boiling Point": "53 °C @ Press: 0.098 Torr",
        "Melting Point": "-10 °C",
        "Density": "1.0619 g/cm³ @ Temp: 20 °C"
    }
}