{
    "cas_no": "926-56-7",
    "key_name": "4-Methyl-1,3-pentadiene",
    "cn_name": null,
    "alternate_name": "1,3-Pentadiene, 4-methyl-;4-Methyl-1,3-pentadiene;1,1-Dimethylbutadiene;1,1-Dimethyl-1,3-butadiene;2-Methyl-2,4-pentadiene",
    "duplicated_cas_no": "54363-49-4",
    "SMILES": "C(=C(C)C)C=C",
    "meta_data": {
        "InChI": "InChI=1S/C6H10/c1-4-5-6(2)3/h4-5H,1H2,2-3H3",
        "InChIKey": null,
        "Canonical SMILES": "C=CC=C(C)C",
        "Molecular Formula": "C<sub>6</sub>H<sub>10</sub>",
        "Molecular Mass": "82.14",
        "Boiling Point": "76.5 °C",
        "Density": "0.71814 g/cm³ @ Temp: 20 °C"
    }
}