{
    "cas_no": "53-03-2",
    "key_name": "Prednisone",
    "cn_name": "泼尼松;强的松;去氢可的松;",
    "alternate_name": "Pregna-1,4-diene-3,11,20-trione, 17,21-dihydroxy-;17,21-Dihydroxypregna-1,4-diene-3,11,20-trione;Ancortone;Bicortone;Colisone;Δ<sup>1</sup>-Cortisone;Dacortin;Decortancyl;Decortisyl;Δ<sup>1</sup>-Dehydrocortisone;1-Dehydrocortisone;Dekortin;Delta E;Delta-Cortelan;Deltacortisone;Deltacortone;Deltasone;Deltisone;Deltra;Di-Adreson;17α,21-Dihydroxy-1,4-pregnadiene-3,11,20-trione;Encortone;Enkorton;Hostacortin;Metacortandracin;Meticorten;Paracort;Prednisone;1,4-Pregnadiene-17α,21-diol-3,11,20-trione;Supercortil;Ultracorten;Ultracortene;Encorton;1,2-Dehydrocortisone;Dehydrocortisone;Δ-Cortisone;17,21-Dihydroxypregn-1,4-diene-3,11,20-trione;NSC 10023;Cortidelt;Prednison;Deltison;Rectodelt;Prednitone;Me-Korti;Prednicorm;Cartancyl;Uniplen;Prednicort;Liquid Pred;Pehacort;Adasone;Drazone;Apo-Prednisone;Winpred;Econosone;Fernisone;Delta-Dome;Nisona;Deltisona;Panafcort;Prednicot;Deltacortene;Dacorten;Prednidib;Sterapred;Cordrol;Prednicen M;Panasol;Predniment;Cortan;Dellacort;Dellacort A;Sone;Orasone;Delcortin;Decortin;Parmenison;Pulmison;Nurison;Retrocortine;Pronison;Prednilonga;17α,21-Dihydroxypregn-1,4-dien-3,11,20-trione;Prednidone;MeSH ID: D011241",
    "duplicated_cas_no": "68-59-7",
    "SMILES": "C[C@@]12[C@]([C@]3([C@@]([C@]4(C)C(CC3)=CC(=O)C=C4)(C(=O)C1)[H])[H])(CC[C@@]2(C(CO)=O)O)[H]",
    "meta_data": {
        "InChI": "InChI=1S/C21H26O5/c1-19-7-5-13(23)9-12(19)3-4-14-15-6-8-21(26,17(25)11-22)20(15,2)10-16(24)18(14)19/h5,7,9,14-15,18,22,26H,3-4,6,8,10-11H2,1-2H3/t14-,15-,18+,19-,20-,21-/m0/s1",
        "InChIKey": null,
        "Canonical SMILES": "O=C1C=CC2(C(=C1)CCC3C2C(=O)CC4(C)C3CCC4(O)C(=O)CO)C",
        "Molecular Formula": "C<sub>21</sub>H<sub>26</sub>O<sub>5</sub>",
        "Molecular Mass": "358.43",
        "Melting Point": "234 °C (decomp)"
    }
}