{
    "cas_no": "110475-31-5",
    "key_name": "Piperazine, 1-(phenylmethyl)-, hydrochloride (1:1)",
    "cn_name": null,
    "alternate_name": "Piperazine, 1-(phenylmethyl)-, hydrochloride (1:1);Piperazine, 1-benzyl-, hydrochloride;Piperazine, 1-(phenylmethyl)-, monohydrochloride;4-Benzylpiperazine hydrochloride",
    "duplicated_cas_no": "",
    "SMILES": "C(C1=CC=CC=C1)N2CCNCC2.Cl",
    "meta_data": {
        "InChI": "InChI=1S/C11H16N2.ClH/c1-2-4-11(5-3-1)10-13-8-6-12-7-9-13;/h1-5,12H,6-10H2;1H",
        "InChIKey": null,
        "Canonical SMILES": "Cl.C=1C=CC(=CC1)CN2CCNCC2",
        "Molecular Formula": "C<sub>11</sub>H<sub>16</sub>N<sub>2</sub>.ClH",
        "Molecular Mass": "",
        "Melting Point": "167-168 °C"
    }
}