{
    "cas_no": "20074-79-7",
    "key_name": "Diethyl (4-aminobenzyl)phosphonate",
    "cn_name": "4-氨基苄基磷酸二乙酯;",
    "alternate_name": "Phosphonic acid, <em>P</em>-[(4-aminophenyl)methyl]-, diethyl ester;Phosphonic acid, (<em>p</em>-aminobenzyl)-, diethyl ester;Phosphonic acid, [(4-aminophenyl)methyl]-, diethyl ester;DABP;Diethyl (4-aminobenzyl)phosphonate;Diethyl (<em>p</em>-aminobenzyl)phosphonate;NSC 84194;(4-Aminobenzyl)phosphonic acid diethyl ester",
    "duplicated_cas_no": "",
    "SMILES": "C(P(OCC)(OCC)=O)C1=CC=C(N)C=C1",
    "meta_data": {
        "InChI": "InChI=1S/C11H18NO3P/c1-3-14-16(13,15-4-2)9-10-5-7-11(12)8-6-10/h5-8H,3-4,9,12H2,1-2H3",
        "InChIKey": null,
        "Canonical SMILES": "O=P(OCC)(OCC)CC1=CC=C(N)C=C1",
        "Molecular Formula": "C<sub>11</sub>H<sub>18</sub>NO<sub>3</sub>P",
        "Molecular Mass": "243.24",
        "Melting Point": "93-95 °C"
    }
}