{
    "cas_no": "80992-93-4",
    "key_name": "4-[4-(Trifluoromethyl)phenyl]-3-buten-2-one",
    "cn_name": null,
    "alternate_name": "3-Buten-2-one, 4-[4-(trifluoromethyl)phenyl]-;4-[4-(Trifluoromethyl)phenyl]-3-buten-2-one;<em>p</em>-Trifluoromethylbenzalacetone",
    "duplicated_cas_no": "",
    "SMILES": "C(F)(F)(F)C1=CC=C(C=CC(C)=O)C=C1",
    "meta_data": {
        "InChI": "InChI=1S/C11H9F3O/c1-8(15)2-3-9-4-6-10(7-5-9)11(12,13)14/h2-7H,1H3",
        "InChIKey": null,
        "Canonical SMILES": "O=C(C=CC1=CC=C(C=C1)C(F)(F)F)C",
        "Molecular Formula": "C<sub>11</sub>H<sub>9</sub>F<sub>3</sub>O",
        "Molecular Mass": "214.18",
        "Melting Point": "57-59 °C"
    }
}