{
    "cas_no": "733-44-8",
    "key_name": "Tetraethylammonium <em>p</em>-toluenesulfonate",
    "cn_name": null,
    "alternate_name": "Ethanaminium, <em>N</em>,<em>N</em>,<em>N</em>-triethyl-, 4-methylbenzenesulfonate (1:1);Ammonium, tetraethyl-, <em>p</em>-toluenesulfonate;Ethanaminium, <em>N</em>,<em>N</em>,<em>N</em>-triethyl-, salt with 4-methylbenzenesulfonic acid (1:1);Tetraethylammonium <em>p</em>-toluenesulfonate;Tetraethylammonium <em>p</em>-tolylsulfonate;Tetraethylammonium tosylate;Tetraethylammonium <em>p</em>-toluenesulphonate;Tetraethylammonium toluenesulfonate;Tetraethylammonium <em>p</em>-tosylate",
    "duplicated_cas_no": "107375-17-7;120246-18-6;36729-55-2",
    "SMILES": "S(=O)(=O)([O-])C1=CC=C(C)C=C1.[N+](CC)(CC)(CC)CC",
    "meta_data": {
        "InChI": "InChI=1S/C8H20N.C7H8O3S/c1-5-9(6-2,7-3)8-4;1-6-2-4-7(5-3-6)11(8,9)10/h5-8H2,1-4H3;2-5H,1H3,(H,8,9,10)/q+1;/p-1",
        "InChIKey": null,
        "Canonical SMILES": "O=S(=O)([O-])C1=CC=C(C=C1)C.CC[N+](CC)(CC)CC",
        "Molecular Formula": "C<sub>8</sub>H<sub>20</sub>N.C<sub>7</sub>H<sub>7</sub>O<sub>3</sub>S",
        "Molecular Mass": "",
        "Melting Point": "103-104 °C"
    }
}