{
    "cas_no": "33457-62-4",
    "key_name": "Alnustone",
    "cn_name": null,
    "alternate_name": "4,6-Heptadien-3-one, 1,7-diphenyl-, (4<em>E</em>,6<em>E</em>)-;4,6-Heptadien-3-one, 1,7-diphenyl-, (<em>E</em>,<em>E</em>)-;(4<em>E</em>,6<em>E</em>)-1,7-Diphenyl-4,6-heptadien-3-one;Alnustone",
    "duplicated_cas_no": "",
    "SMILES": "C(CC(/C=C/C=C/C1=CC=CC=C1)=O)C2=CC=CC=C2",
    "meta_data": {
        "InChI": "InChI=1S/C19H18O/c20-19(16-15-18-11-5-2-6-12-18)14-8-7-13-17-9-3-1-4-10-17/h1-14H,15-16H2/b13-7+,14-8+",
        "InChIKey": null,
        "Canonical SMILES": "O=C(C=CC=CC=1C=CC=CC1)CCC=2C=CC=CC2",
        "Molecular Formula": "C<sub>19</sub>H<sub>18</sub>O",
        "Molecular Mass": "262.35",
        "Melting Point": "60-62 °C"
    }
}