{
    "cas_no": "36823-88-8",
    "key_name": "4-Trifluoromethoxybenzoyl chloride",
    "cn_name": "4-(三氟甲氧基)苯甲酰氯;",
    "alternate_name": "Benzoyl chloride, 4-(trifluoromethoxy)-;4-(Trifluoromethoxy)benzoyl chloride;4-Trifluoromethoxybenzoyl chloride;<em>p</em>-Trifluoromethoxybenzoyl chloride;4-(Trifluoromethoxy)-1-benzenecarbonyl chloride",
    "duplicated_cas_no": "",
    "SMILES": "O(C(F)(F)F)C1=CC=C(C(Cl)=O)C=C1",
    "meta_data": {
        "InChI": "InChI=1S/C8H4ClF3O2/c9-7(13)5-1-3-6(4-2-5)14-8(10,11)12/h1-4H",
        "InChIKey": null,
        "Canonical SMILES": "O=C(Cl)C1=CC=C(OC(F)(F)F)C=C1",
        "Molecular Formula": "C<sub>8</sub>H<sub>4</sub>ClF<sub>3</sub>O<sub>2</sub>",
        "Molecular Mass": "224.56",
        "Boiling Point": "85-86 °C @ Press: 17 Torr"
    }
}