{
    "cas_no": "101-63-3",
    "key_name": "1,1′-Oxybis[4-nitrobenzene]",
    "cn_name": "4-(三氟甲硫基)苯甲基溴;",
    "alternate_name": "Benzene, 1,1′-oxybis[4-nitro-;Ether, bis(<em>p</em>-nitrophenyl);1,1′-Oxybis[4-nitrobenzene];Bis(<em>p</em>-nitrophenyl) ether;<em>p</em>,<em>p</em>′-Dinitrodiphenyl ether;<em>p</em>-Nitrophenyl ether;4,4′-Dinitrodiphenyl oxide;Oxybis[4-nitrobenzene];Bis(4-nitrophenyl) ether;Di-4-nitrophenyl ether;4,4′-Dinitrodiphenyl ether;NSC 8740;1-Nitro-4-(4-nitrophenoxy)benzene",
    "duplicated_cas_no": "",
    "SMILES": "O(C1=CC=C(N(=O)=O)C=C1)C2=CC=C(N(=O)=O)C=C2",
    "meta_data": {
        "InChI": "InChI=1S/C12H8N2O5/c15-13(16)9-1-5-11(6-2-9)19-12-7-3-10(4-8-12)14(17)18/h1-8H",
        "InChIKey": null,
        "Canonical SMILES": "O=N(=O)C1=CC=C(OC2=CC=C(C=C2)N(=O)=O)C=C1",
        "Molecular Formula": "C<sub>12</sub>H<sub>8</sub>N<sub>2</sub>O<sub>5</sub>",
        "Molecular Mass": "260.20",
        "Melting Point": "138-139 °C",
        "Density": "1.38 g/cm³"
    }
}