{
    "cas_no": "2401-24-3",
    "key_name": "2-Chloro-5-methoxybenzenamine",
    "cn_name": "2-氯-5-甲氧基苯胺;",
    "alternate_name": "Benzenamine, 2-chloro-5-methoxy-;<em>m</em>-Anisidine, 6-chloro-;2-Chloro-5-methoxybenzenamine;3-Amino-4-chloroanisole;6-Chloro-<em>m</em>-anisidine;2-Chloro-5-methoxyaniline;1-Amino-2-chloro-5-methoxybenzene;2-Chloro-5-(methyloxy)aniline;2-Chloro-5-methoxyphenylamine",
    "duplicated_cas_no": "",
    "SMILES": "O(C)C1=CC(N)=C(Cl)C=C1",
    "meta_data": {
        "InChI": "InChI=1S/C7H8ClNO/c1-10-5-2-3-6(8)7(9)4-5/h2-4H,9H2,1H3",
        "InChIKey": null,
        "Canonical SMILES": "ClC1=CC=C(OC)C=C1N",
        "Molecular Formula": "C<sub>7</sub>H<sub>8</sub>ClNO",
        "Molecular Mass": "157.60",
        "Boiling Point": "136-137 °C @ Press: 10 Torr",
        "Melting Point": "27 °C"
    }
}