{
    "cas_no": "2117-11-5",
    "key_name": "4-Pentyn-2-ol",
    "cn_name": "4-戊炔-2-醇;",
    "alternate_name": "4-Pentyn-2-ol;4-Pentyne-2-ol;1-Pentyn-4-ol;4-Hydroxy-1-pentyne;(±)-4-Pentyn-2-ol;(<em>RS</em>)-4-Pentyn-2-ol;(<em>RS</em>)-1-Pentyn-4-ol;1-Methyl-3-butyn-1-ol;1-Methyl-3-butynyl alcohol",
    "duplicated_cas_no": "87302-64-5",
    "SMILES": "C(C(C)O)C#C",
    "meta_data": {
        "InChI": "InChI=1S/C5H8O/c1-3-4-5(2)6/h1,5-6H,4H2,2H3",
        "InChIKey": null,
        "Canonical SMILES": "C#CCC(O)C",
        "Molecular Formula": "C<sub>5</sub>H<sub>8</sub>O",
        "Molecular Mass": "84.12",
        "Boiling Point": "128 °C",
        "Density": "0.8918 g/cm³ @ Temp: 20 °C"
    }
}