{
    "cas_no": "18243-41-9",
    "key_name": "(Bromomethyl)trimethylsilane",
    "cn_name": "(溴甲基)三甲基硅烷;溴乙基三甲基硅烷;",
    "alternate_name": "Silane, (bromomethyl)trimethyl-;(Bromomethyl)trimethylsilane;(Trimethylsilyl)methyl bromide;Bromomethyltrimethylsilane;[Trimethyl][bromomethyl]silane",
    "duplicated_cas_no": "",
    "SMILES": "[Si](CBr)(C)(C)C",
    "meta_data": {
        "InChI": "InChI=1S/C4H11BrSi/c1-6(2,3)4-5/h4H2,1-3H3",
        "InChIKey": null,
        "Canonical SMILES": "BrC[Si](C)(C)C",
        "Molecular Formula": "C<sub>4</sub>H<sub>11</sub>BrSi",
        "Molecular Mass": "167.12",
        "Boiling Point": "116.5 °C",
        "Density": "1.170 g/cm³"
    }
}