{
    "cas_no": "10482-56-1",
    "key_name": "(-)-α-Terpineol",
    "cn_name": null,
    "alternate_name": "3-Cyclohexene-1-methanol, α,α,4-trimethyl-, (1<em>S</em>)-;<em>p</em>-Menth-1-en-8-ol, (<em>S</em>)-(-)-;3-Cyclohexene-1-methanol, α,α,4-trimethyl-, (<em>S</em>)-;(1<em>S</em>)-α,α,4-Trimethyl-3-cyclohexene-1-methanol;<em>l</em>-α-Terpineol;(-)-α-Terpineol;α-Terpineol, (-)-;(<em>S</em>)-α-Terpineol;(<em>S</em>)-(-)-α-Terpineol;(<em>S</em>)-(-)-Terpineol;(<em>S</em>)-α,α,4-Trimethyl-3-cyclohexene-1-methanol;2-[(1S)-4-Methylcyclohex-3-en-1-yl]propan-2-ol;<span class=\"text-smallcaps\">L</span>-Alpha-terpineol;<span class=\"text-smallcaps\">L</span>-α-Terpineol",
    "duplicated_cas_no": "",
    "SMILES": "[C@](C)(C)(O)[C@H]1CCC(C)=CC1",
    "meta_data": {
        "InChI": "InChI=1S/C10H18O/c1-8-4-6-9(7-5-8)10(2,3)11/h4,9,11H,5-7H2,1-3H3/t9-/m1/s1",
        "InChIKey": null,
        "Canonical SMILES": "OC(C)(C)C1CC=C(C)CC1",
        "Molecular Formula": "C<sub>10</sub>H<sub>18</sub>O",
        "Molecular Mass": "154.25",
        "Boiling Point": "80-81.5 °C @ Press: 5 Torr",
        "Melting Point": "33 °C",
        "Density": "0.935 g/cm³ @ Temp: 20 °C"
    }
}