{
    "cas_no": "102-60-3",
    "key_name": "Tetrakis(2-hydroxypropyl)ethylenediamine",
    "cn_name": "N,N,N\",N\"-四(2-羟基丙基)乙二胺;",
    "alternate_name": "2-Propanol, 1,1′,1′′,1′′′-(1,2-ethanediyldinitrilo)tetrakis-;2-Propanol, 1,1′,1′′,1′′′-(ethylenedinitrilo)tetra-;1,1′,1′′,1′′′-(1,2-Ethanediyldinitrilo)tetrakis[2-propanol];1,1′,1′′,1′′′-(Ethylenedinitrilo)tetra(2-propanol);<em>N</em>,<em>N</em>,<em>N</em>′,<em>N</em>′-Tetra(2-hydroxypropyl)ethylenediamine;Tetrakis(2-hydroxypropyl)ethylenediamine;1,1′,1′′,1′′′-(Ethylenedinitrilo)tetrakis(2-propanol);ENTPROL;<em>N</em>,<em>N</em>,<em>N</em>′,<em>N</em>′-Tetrakis(2-hydroxypropyl)ethylenediamine;THPE;Edetol;<em>N</em>,<em>N</em>,<em>N</em>′,<em>N</em>′-Tetrakis(β-hydroxypropyl)ethylenediamine;Quadrol;Adeka Quadrol;Quadrol L;EPD 300;Newpol NP 300;NP 300;Neutrol TE;NSC 369219;Laprol 294;Neutrol;Tetra(2-hydroxypropyl)ethylenediamine;Quadrol 204;1-[2-[Bis(2-hydroxypropyl)amino]ethyl-(2-hydroxypropyl)amino]propan-2-ol;1,1′,1′′,1′′′-(Ethane-1,2-diylbis(azanetriyl))tetrakis(propan-2-ol);Puranol 294;Quadrol PM",
    "duplicated_cas_no": "61702-85-0;70992-50-6;118549-63-6;139352-19-5;1087406-22-1",
    "SMILES": "N(CCN(CC(C)O)CC(C)O)(CC(C)O)CC(C)O",
    "meta_data": {
        "InChI": "InChI=1S/C14H32N2O4/c1-11(17)7-15(8-12(2)18)5-6-16(9-13(3)19)10-14(4)20/h11-14,17-20H,5-10H2,1-4H3",
        "InChIKey": null,
        "Canonical SMILES": "OC(C)CN(CCN(CC(O)C)CC(O)C)CC(O)C",
        "Molecular Formula": "C<sub>14</sub>H<sub>32</sub>N<sub>2</sub>O<sub>4</sub>",
        "Molecular Mass": "292.41",
        "Boiling Point": "190 °C @ Press: 1.0 Torr",
        "Melting Point": "&lt;25 °C"
    }
}