{
    "cas_no": "22888-70-6",
    "key_name": "Silybin",
    "cn_name": "水飞蓟宾;水飞蓟素;西利马林;2,3-二氢-3-(4-羟基-3-甲氧基苯基)-2-羟甲基-6-(3,5,7-三羟基-4-氧代苯并吡喃-;",
    "alternate_name": "4<em>H</em>-1-Benzopyran-4-one, 2-[(2<em>R</em>,3<em>R</em>)-2,3-dihydro-3-(4-hydroxy-3-methoxyphenyl)-2-(hydroxymethyl)-1,4-benzodioxin-6-yl]-2,3-dihydro-3,5,7-trihydroxy-, (2<em>R</em>,3<em>R</em>)-;4-Chromanone, 3,5,7-trihydroxy-2-[3-(4-hydroxy-3-methoxyphenyl)-2-(hydroxymethyl)-1,4-benzodioxan-6-yl]-;Silybin;4<em>H</em>-1-Benzopyran-4-one, 2-[2,3-dihydro-3-(4-hydroxy-3-methoxyphenyl)-2-(hydroxymethyl)-1,4-benzodioxin-6-yl]-2,3-dihydro-3,5,7-trihydroxy-, [2<em>R</em>-[2α,3β,6(2<em>R</em>*,3<em>R</em>*)]]-;1,4-Benzodioxin, 4<em>H</em>-1-benzopyran-4-one deriv.;(2<em>R</em>,3<em>R</em>)-2-[(2<em>R</em>,3<em>R</em>)-2,3-Dihydro-3-(4-hydroxy-3-methoxyphenyl)-2-(hydroxymethyl)-1,4-benzodioxin-6-yl]-2,3-dihydro-3,5,7-trihydroxy-4<em>H</em>-1-benzopyran-4-one;Silybine;Silymarin I;7C3MT;Silliver;Silymarine I;Silibinin;Silymarin MZ 80;Silybum substance E<sub>6</sub>;Silybin A;Silybin b<sub>1</sub>;Silibinin A;Mepasil;Realsil",
    "duplicated_cas_no": "142796-20-1;11054-49-2;11076-05-4;11076-06-5;22888-69-3;27359-03-1;28577-40-4;29832-10-8;37574-50-8;50976-99-3;87725-90-4",
    "SMILES": "C(O)[C@@H]1[C@H](OC=2C(O1)=CC=C(C2)[C@H]3OC=4C(C(=O)[C@@H]3O)=C(O)C=C(O)C4)C5=CC(OC)=C(O)C=C5",
    "meta_data": {
        "InChI": "InChI=1S/C25H22O10/c1-32-17-6-11(2-4-14(17)28)24-20(10-26)33-16-5-3-12(7-18(16)34-24)25-23(31)22(30)21-15(29)8-13(27)9-19(21)35-25/h2-9,20,23-29,31H,10H2,1H3/t20-,23+,24-,25-/m1/s1",
        "InChIKey": null,
        "Canonical SMILES": "O=C1C=2C(O)=CC(O)=CC2OC(C3=CC=C4OC(CO)C(OC4=C3)C5=CC=C(O)C(OC)=C5)C1O",
        "Molecular Formula": "C<sub>25</sub>H<sub>22</sub>O<sub>10</sub>",
        "Molecular Mass": "482.44",
        "Melting Point": "158 °C"
    }
}