{
    "cas_no": "1820-99-1",
    "key_name": "3,3′-Thiobis[6-hydroxybenzoic acid]",
    "cn_name": "5,5-硫代二水杨酸;",
    "alternate_name": "Benzoic acid, 3,3′-thiobis[6-hydroxy-;Salicylic acid, 5,5′-thiodi-;3,3′-Thiobis[6-hydroxybenzoic acid];Bis(3-carboxy-4-hydroxyphenyl) sulfide;5,5′-Thiodisalicylic acid;4,4′-Dihydroxy-3,3′-dicarboxydiphenyl sulfide",
    "duplicated_cas_no": "77304-69-9",
    "SMILES": "S(C1=CC(C(O)=O)=C(O)C=C1)C2=CC(C(O)=O)=C(O)C=C2",
    "meta_data": {
        "InChI": "InChI=1S/C14H10O6S/c15-11-3-1-7(5-9(11)13(17)18)21-8-2-4-12(16)10(6-8)14(19)20/h1-6,15-16H,(H,17,18)(H,19,20)",
        "InChIKey": null,
        "Canonical SMILES": "O=C(O)C1=CC(SC2=CC=C(O)C(=C2)C(=O)O)=CC=C1O",
        "Molecular Formula": "C<sub>14</sub>H<sub>10</sub>O<sub>6</sub>S",
        "Molecular Mass": "306.29",
        "Melting Point": "269-270 °C"
    }
}