{
    "cas_no": "99627-05-1",
    "key_name": "3,4,5-Trifluorophenol",
    "cn_name": "3,4,5-三氟苯酚;",
    "alternate_name": "Phenol, 3,4,5-trifluoro-;3,4,5-Trifluorophenol",
    "duplicated_cas_no": "",
    "SMILES": "FC1=C(F)C=C(O)C=C1F",
    "meta_data": {
        "InChI": "InChI=1S/C6H3F3O/c7-4-1-3(10)2-5(8)6(4)9/h1-2,10H",
        "InChIKey": null,
        "Canonical SMILES": "FC=1C=C(O)C=C(F)C1F",
        "Molecular Formula": "C<sub>6</sub>H<sub>3</sub>F<sub>3</sub>O",
        "Molecular Mass": "148.08",
        "Melting Point": "50-52 °C"
    }
}