{
    "cas_no": "2345-61-1",
    "key_name": "(2<em>E</em>)-3-Chloro-2-propenoic acid",
    "cn_name": null,
    "alternate_name": "2-Propenoic acid, 3-chloro-, (2<em>E</em>)-;Acrylic acid, 3-chloro-, (<em>E</em>)-;2-Propenoic acid, 3-chloro-, (<em>E</em>)-;(2<em>E</em>)-3-Chloro-2-propenoic acid;<em>trans</em>-3-Chloroacrylic acid;<em>trans</em>-β-Chloroacrylic acid;(<em>E</em>)-3-Chloroacrylic acid;(<em>E</em>)-β-Chloroacrylic acid;(E)-3-Chloroacrylic acid",
    "duplicated_cas_no": "",
    "SMILES": "C(\\C(O)=O)=C/Cl",
    "meta_data": {
        "InChI": "InChI=1S/C3H3ClO2/c4-2-1-3(5)6/h1-2H,(H,5,6)/b2-1+",
        "InChIKey": null,
        "Canonical SMILES": "O=C(O)C=CCl",
        "Molecular Formula": "C<sub>3</sub>H<sub>3</sub>ClO<sub>2</sub>",
        "Molecular Mass": "106.51",
        "Boiling Point": "88.5 °C @ Press: 17 Torr",
        "Melting Point": "85.5-86 °C"
    }
}