{
    "cas_no": "453-20-3",
    "key_name": "(±)-3-Hydroxytetrahydrofuran",
    "cn_name": "3-羟基四氢呋喃;",
    "alternate_name": "3-Furanol, tetrahydro-;3-Furanol, tetrahydro-, (±)-;Tetrahydro-3-furanol;3-Hydroxytetrahydrofuran;3-Hydroxyoxolane;(<em>RS</em>)-3-Hydroxytetrahydrofuran;(±)-3-Hydroxytetrahydrofuran;NSC 71875;Riftal;3-Oxacyclopentanol;Oxolan-3-ol;(3<em>RS</em>)-3-Hydroxytetrahydrofuran",
    "duplicated_cas_no": "84921-89-1",
    "SMILES": "OC1CCOC1",
    "meta_data": {
        "InChI": "InChI=1S/C4H8O2/c5-4-1-2-6-3-4/h4-5H,1-3H2",
        "InChIKey": null,
        "Canonical SMILES": "OC1COCC1",
        "Molecular Formula": "C<sub>4</sub>H<sub>8</sub>O<sub>2</sub>",
        "Molecular Mass": "88.11",
        "Boiling Point": "181 °C",
        "Density": "1.087 g/cm³ @ Temp: 19.14 °C"
    }
}