{
    "cas_no": "127-20-8",
    "key_name": "Dalapon sodium",
    "cn_name": "2,2-二氯丙酸钠;α,α-二氯丙酸;",
    "alternate_name": "Propanoic acid, 2,2-dichloro-, sodium salt (1:1);Propionic acid, 2,2-dichloro-, sodium salt;Propanoic acid, 2,2-dichloro-, sodium salt;Dalapon sodium;Dalapon sodium salt;α,α-Dichloropropionic acid sodium salt;Radapon;Sodium Dalapon;Sodium α,α-dichloropropionate;Sodium 2,2-dichloropropionate;Antigramigna;Dowpon;SYS 67 Omnidel;Tafapon;Dikopan;Basfapon;Sodium dichloropropionate;2,2-Dichloropropionic acid sodium salt;Sodium 2,2-dichloropropionic acid;Gramevin;Propinate;Omnidel Spezial;Omnidel;Dowpon S;2,2-DPA Na salt",
    "duplicated_cas_no": "",
    "SMILES": "C(C(O)=O)(C)(Cl)Cl.[Na]",
    "meta_data": {
        "InChI": "InChI=1S/C3H4Cl2O2.Na/c1-3(4,5)2(6)7;/h1H3,(H,6,7);",
        "InChIKey": null,
        "Canonical SMILES": "[Na].O=C(O)C(Cl)(Cl)C",
        "Molecular Formula": "C<sub>3</sub>H<sub>4</sub>Cl<sub>2</sub>O<sub>2</sub>.Na",
        "Molecular Mass": "",
        "Melting Point": "166.5 °C"
    }
}