{
    "cas_no": "13909-73-4",
    "key_name": "2′,3′,4′-Trimethoxyacetophenone",
    "cn_name": "2,3,4-三甲氧基苯乙酮;",
    "alternate_name": "Ethanone, 1-(2,3,4-trimethoxyphenyl)-;Acetophenone, 2′,3′,4′-trimethoxy-;1-(2,3,4-Trimethoxyphenyl)ethanone;Tri-<em>O</em>-methylgallacetophenone;2′,3′,4′-Trimethoxyacetophenone;Methyl 2,3,4-trimethoxyphenyl ketone;NSC 68811;1-(2,3,4-Trimethoxyphenyl)ethan-1-one",
    "duplicated_cas_no": "",
    "SMILES": "O(C)C1=C(OC)C(OC)=CC=C1C(C)=O",
    "meta_data": {
        "InChI": "InChI=1S/C11H14O4/c1-7(12)8-5-6-9(13-2)11(15-4)10(8)14-3/h5-6H,1-4H3",
        "InChIKey": null,
        "Canonical SMILES": "O=C(C1=CC=C(OC)C(OC)=C1OC)C",
        "Molecular Formula": "C<sub>11</sub>H<sub>14</sub>O<sub>4</sub>",
        "Molecular Mass": "210.23",
        "Boiling Point": "296 °C",
        "Melting Point": "15.8 °C"
    }
}