{
    "cas_no": "360-89-4",
    "key_name": "Perfluoro-2-butene",
    "cn_name": "八氟-2-丁烯;全氟2-丁烯;",
    "alternate_name": "2-Butene, 1,1,1,2,3,4,4,4-octafluoro-;2-Butene, octafluoro-;1,1,1,2,3,4,4,4-Octafluoro-2-butene;Perfluoro-2-butene;Octafluoro-2-butene;Perfluorobutene-2;Perfluoro-1-methylpropene;R 1318my;FC 1318",
    "duplicated_cas_no": "",
    "SMILES": "C(=C(C(F)(F)F)F)(C(F)(F)F)F",
    "meta_data": {
        "InChI": "InChI=1S/C4F8/c5-1(3(7,8)9)2(6)4(10,11)12",
        "InChIKey": null,
        "Canonical SMILES": "FC(=C(F)C(F)(F)F)C(F)(F)F",
        "Molecular Formula": "C<sub>4</sub>F<sub>8</sub>",
        "Molecular Mass": "200.03",
        "Boiling Point": "1.5 °C",
        "Melting Point": "-129 °C",
        "Density": "1.5297 g/cm³ @ Temp: 0 °C"
    }
}