{
    "cas_no": "1468-83-3",
    "key_name": "3-Acetylthiophene",
    "cn_name": "3-乙酰基噻吩;",
    "alternate_name": "Ethanone, 1-(3-thienyl)-;Ketone, methyl 3-thienyl;1-(3-Thienyl)ethanone;3-Acetylthiophene;Methyl 3-thienyl ketone;1-(3-Thienyl)-1-ethanone;1-Thiophen-3-ylethanone;3-Thienyl methyl ketone;1-(Thiophen-3-yl)ethan-1-one",
    "duplicated_cas_no": "",
    "SMILES": "C(C)(=O)C=1C=CSC1",
    "meta_data": {
        "InChI": "InChI=1S/C6H6OS/c1-5(7)6-2-3-8-4-6/h2-4H,1H3",
        "InChIKey": null,
        "Canonical SMILES": "O=C(C1=CSC=C1)C",
        "Molecular Formula": "C<sub>6</sub>H<sub>6</sub>OS",
        "Molecular Mass": "126.18",
        "Boiling Point": "210 °C",
        "Melting Point": "60 °C",
        "Density": "1.362 g/cm³ @ Temp: 25.00 °C"
    }
}