{
    "cas_no": "484-78-6",
    "key_name": "3-Hydroxykynurenine",
    "cn_name": "1-[1-(4-氯苯基)环丁基]-3-甲基丁胺盐酸盐;",
    "alternate_name": "Benzenebutanoic acid, α,2-diamino-3-hydroxy-γ-oxo-;Alanine, 3-(3-hydroxyanthraniloyl)-;α,2-Diamino-3-hydroxy-γ-oxobenzenebutanoic acid;Hydroxykynurenine;3-Hydroxykynurenine;3-Hydroxy-<span class=\"text-smallcaps\">DL</span>-kynurenine;<span class=\"text-smallcaps\">DL</span>-3-Hydroxykynurenine;2-Amino-4-(2-amino-3-hydroxyphenyl)-4-oxobutanoicacid",
    "duplicated_cas_no": "2147-61-7",
    "SMILES": "C(CC(C(O)=O)N)(=O)C1=C(N)C(O)=CC=C1",
    "meta_data": {
        "InChI": "InChI=1S/C10H12N2O4/c11-6(10(15)16)4-8(14)5-2-1-3-7(13)9(5)12/h1-3,6,13H,4,11-12H2,(H,15,16)",
        "InChIKey": null,
        "Canonical SMILES": "O=C(O)C(N)CC(=O)C=1C=CC=C(O)C1N",
        "Molecular Formula": "C<sub>10</sub>H<sub>12</sub>N<sub>2</sub>O<sub>4</sub>",
        "Molecular Mass": "224.21",
        "Melting Point": "213 °C (decomp)"
    }
}