{
    "cas_no": "2140-76-3",
    "key_name": "2′-<em>O</em>-Methyluridine",
    "cn_name": "2\"-甲氧基尿苷;",
    "alternate_name": "Uridine, 2′-<em>O</em>-methyl-;2′-<em>O</em>-Methyluridine;<em>O</em><sup>2</sup>′-Methyluridine;1: PN: WO2023049218 PAGE: 366 claimed sequence",
    "duplicated_cas_no": "",
    "SMILES": "O(C)[C@H]1[C@@H](O[C@H](CO)[C@H]1O)N2C(=O)NC(=O)C=C2",
    "meta_data": {
        "InChI": "InChI=1S/C10H14N2O6/c1-17-8-7(15)5(4-13)18-9(8)12-3-2-6(14)11-10(12)16/h2-3,5,7-9,13,15H,4H2,1H3,(H,11,14,16)/t5-,7-,8-,9-/m1/s1",
        "InChIKey": null,
        "Canonical SMILES": "O=C1C=CN(C(=O)N1)C2OC(CO)C(O)C2OC",
        "Molecular Formula": "C<sub>10</sub>H<sub>14</sub>N<sub>2</sub>O<sub>6</sub>",
        "Molecular Mass": "258.23",
        "Melting Point": "159 °C"
    }
}