{
    "cas_no": "1468-28-6",
    "key_name": "<em>N</em>-Benzoylmorpholine",
    "cn_name": "4-苯甲酰吗啉;",
    "alternate_name": "Methanone, 4-morpholinylphenyl-;Morpholine, 4-benzoyl-;4-Morpholinylphenylmethanone;Benzoic acid, morpholide;<em>N</em>-Benzoylmorpholine;4-Benzoylmorpholine;Benzomorpholide;Benzoic morpholide;NSC 3129;Morpholino(phenyl)methanone",
    "duplicated_cas_no": "",
    "SMILES": "C(=O)(C1=CC=CC=C1)N2CCOCC2",
    "meta_data": {
        "InChI": "InChI=1S/C11H13NO2/c13-11(10-4-2-1-3-5-10)12-6-8-14-9-7-12/h1-5H,6-9H2",
        "InChIKey": null,
        "Canonical SMILES": "O=C(C=1C=CC=CC1)N2CCOCC2",
        "Molecular Formula": "C<sub>11</sub>H<sub>13</sub>NO<sub>2</sub>",
        "Molecular Mass": "191.23",
        "Melting Point": "73.5-74.0 °C"
    }
}