{
    "cas_no": "56238-63-2",
    "key_name": "Cefuroxime sodium",
    "cn_name": "头孢呋辛钠;(6R,7R)-7-[2-呋喃基(甲氧亚氨基)乙酰氨基]-3-氨基甲酰氧甲基-8-氧代-5-硫杂-1-氮杂二环[4.2.0];",
    "alternate_name": "5-Thia-1-azabicyclo[4.2.0]oct-2-ene-2-carboxylic acid, 3-[[(aminocarbonyl)oxy]methyl]-7-[[(2<em>Z</em>)-2-(2-furanyl)-2-(methoxyimino)acetyl]amino]-8-oxo-, sodium salt (1:1), (6<em>R</em>,7<em>R</em>)-;5-Thia-1-azabicyclo[4.2.0]oct-2-ene-2-carboxylic acid, 3-[[(aminocarbonyl)oxy]methyl]-7-[[2-furanyl(methoxyimino)acetyl]amino]-8-oxo-, monosodium salt, [6<em>R</em>-[6α,7β(<em>Z</em>)]]-;5-Thia-1-azabicyclo[4.2.0]oct-2-ene-2-carboxylic acid, 3-[[(aminocarbonyl)oxy]methyl]-7-[[(2<em>Z</em>)-2-furanyl(methoxyimino)acetyl]amino]-8-oxo-, monosodium salt, (6<em>R</em>,7<em>R</em>)-;Cefuroxime sodium;640/359;Sodium cefuroxime;Cefuroxime sodium salt;Zinacef;Spectrazol;Kefurox;Kesint;Ipacef;Cefurex;Gibicef;Cefoprim;Cefurin;Novocef;Ultroxim;Curocef;Bioxima;Cefumax;Cefamar;Biociclin;Spectrazole;Duxima;Biofurex;Anaptivan;Lampsporin;Curoxim;Medoxim",
    "duplicated_cas_no": "",
    "SMILES": "C(O)(=O)C=1N2[C@@]([C@H](NC(/C(=N\\OC)/C3=CC=CO3)=O)C2=O)(SCC1COC(N)=O)[H].[Na]",
    "meta_data": {
        "InChI": "InChI=1S/C16H16N4O8S.Na/c1-26-19-9(8-3-2-4-27-8)12(21)18-10-13(22)20-11(15(23)24)7(5-28-16(17)25)6-29-14(10)20;/h2-4,10,14H,5-6H2,1H3,(H2,17,25)(H,18,21)(H,23,24);/b19-9-;/t10-,14-;/m1./s1",
        "InChIKey": null,
        "Canonical SMILES": "[Na].O=C(OCC1=C(C(=O)O)N2C(=O)C(NC(=O)C(=NOC)C=3OC=CC3)C2SC1)N",
        "Molecular Formula": "C<sub>16</sub>H<sub>16</sub>N<sub>4</sub>O<sub>8</sub>S.Na",
        "Molecular Mass": "",
        "Melting Point": "184-186 °C (decomp)"
    }
}