{
    "cas_no": "18801-00-8",
    "key_name": "2-<em>tert</em>-Butylanthracene",
    "cn_name": "2-(叔丁基)蒽;",
    "alternate_name": "Anthracene, 2-(1,1-dimethylethyl)-;Anthracene, 2-<em>tert</em>-butyl-;2-(1,1-Dimethylethyl)anthracene;2-<em>tert</em>-Butylanthracene",
    "duplicated_cas_no": "",
    "SMILES": "C(C)(C)(C)C1=CC2=C(C=C3C(=C2)C=CC=C3)C=C1",
    "meta_data": {
        "InChI": "InChI=1S/C18H18/c1-18(2,3)17-9-8-15-10-13-6-4-5-7-14(13)11-16(15)12-17/h4-12H,1-3H3",
        "InChIKey": null,
        "Canonical SMILES": "C=1C=CC=2C=C3C=C(C=CC3=CC2C1)C(C)(C)C",
        "Molecular Formula": "C<sub>18</sub>H<sub>18</sub>",
        "Molecular Mass": "234.34",
        "Melting Point": "147 °C"
    }
}