{
    "cas_no": "2149-70-4",
    "key_name": "<em>N</em><sup>ω</sup>-Nitro-<span class=\"text-smallcaps\">L</span>-arginine",
    "cn_name": "N\"-硝基-L-精氨酸;",
    "alternate_name": "<span class=\"text-smallcaps\">L</span>-Ornithine, <em>N</em><sup>5</sup>-[imino(nitroamino)methyl]-;Ornithine, <em>N</em><sup>5</sup>-(nitroamidino)-, <span class=\"text-smallcaps\">L</span>-;<em>N</em><sup>5</sup>-[Imino(nitroamino)methyl]-<span class=\"text-smallcaps\">L</span>-ornithine;ω-Nitro-<span class=\"text-smallcaps\">L</span>-arginine;ω-Nitroarginine;Nitro-<span class=\"text-smallcaps\">L</span>-arginine;<em>N</em><sup>G</sup>-Nitroarginine;Nitroarginine;(+)-<em>N</em><sup>G</sup>-Nitroarginine;<span class=\"text-smallcaps\">L</span>-Arginine, ω-nitro-;<span class=\"text-smallcaps\">L</span>-Arginine, <em>N</em><sup>G</sup>-nitro-;<span class=\"text-smallcaps\">L</span>-<em>N</em><sup>G</sup>-Nitroarginine;<em>N</em><sup>ω</sup>-Nitro-<span class=\"text-smallcaps\">L</span>-arginine;NOLA;N<sup>ω</sup>-Nitro-<span class=\"text-smallcaps\">L</span>-arginine;<em>N</em><sup>G</sup>-Nitro-<span class=\"text-smallcaps\">L</span>-arginine;NSC 53662;<span class=\"text-smallcaps\">L</span>-NNA;<span class=\"text-smallcaps\">L</span>-NOARG;(2S)-2-Amino-5-(<em>N</em>′-nitrocarbamimidamido)pentanoic acid;(2S)-5-[[Amino(nitramido)methylidene]amino]-2-azaniumylpentanoate",
    "duplicated_cas_no": "126265-23-4;13855-78-2;38733-00-5",
    "SMILES": "N(CCC[C@@H](C(O)=O)N)C(NN(=O)=O)=N",
    "meta_data": {
        "InChI": "InChI=1S/C6H13N5O4/c7-4(5(12)13)2-1-3-9-6(8)10-11(14)15/h4H,1-3,7H2,(H,12,13)(H3,8,9,10)/t4-/m0/s1",
        "InChIKey": null,
        "Canonical SMILES": "O=C(O)C(N)CCCNC(=N)NN(=O)=O",
        "Molecular Formula": "C<sub>6</sub>H<sub>13</sub>N<sub>5</sub>O<sub>4</sub>",
        "Molecular Mass": "219.20",
        "Melting Point": "263 °C (decomp)"
    }
}