{
    "cas_no": "105355-26-8",
    "key_name": "2-Amino-5-[[4-[2-(5-ethyl-2-pyridinyl)ethoxy]phenyl]methyl]-4(5<em>H</em>)-thiazolone",
    "cn_name": "5-{4-[2-(5-乙基-2-吡啶基)-乙氧基]-苄基}-2-亚氨基-4-噻唑烷酮;亚氨基匹格列酮;",
    "alternate_name": "4(5<em>H</em>)-Thiazolone, 2-amino-5-[[4-[2-(5-ethyl-2-pyridinyl)ethoxy]phenyl]methyl]-;2-Amino-5-[[4-[2-(5-ethyl-2-pyridinyl)ethoxy]phenyl]methyl]-4(5<em>H</em>)-thiazolone;5-[4-[2-(5-Ethyl-2-pyridyl)ethoxy]benzyl]-2-imino-4-thiazolidinone;Pioglitazone 2-imine;2-Amino-5-[[4-[2-(5-ethylpyridin-2-yl)ethoxy]phenyl]methyl]-1,3-thiazol-4-one",
    "duplicated_cas_no": "",
    "SMILES": "C(C1C(=O)N=C(N)S1)C2=CC=C(OCCC3=CC=C(CC)C=N3)C=C2",
    "meta_data": {
        "InChI": "InChI=1S/C19H21N3O2S/c1-2-13-3-6-15(21-12-13)9-10-24-16-7-4-14(5-8-16)11-17-18(23)22-19(20)25-17/h3-8,12,17H,2,9-11H2,1H3,(H2,20,22,23)",
        "InChIKey": null,
        "Canonical SMILES": "O=C1N=C(SC1CC2=CC=C(OCCC3=NC=C(C=C3)CC)C=C2)N",
        "Molecular Formula": "C<sub>19</sub>H<sub>21</sub>N<sub>3</sub>O<sub>2</sub>S",
        "Molecular Mass": "355.45",
        "Melting Point": "187-188 °C"
    }
}