{
    "cas_no": "155-84-0",
    "key_name": "<em>N</em>-Acetyl-<span class=\"text-smallcaps\">L</span>-arginine",
    "cn_name": "N-Α-乙酰-L-精氨酸;N-Α-乙酰-L-精氨酸;",
    "alternate_name": "<span class=\"text-smallcaps\">L</span>-Arginine, <em>N</em><sup>2</sup>-acetyl-;Arginine, <em>N</em><sup>2</sup>-acetyl-, <span class=\"text-smallcaps\">L</span>-;<em>N</em><sup>2</sup>-Acetyl-<span class=\"text-smallcaps\">L</span>-arginine;α-<em>N</em>-Acetyl-<span class=\"text-smallcaps\">L</span>-arginine;<em>N</em><sup>α</sup>-Acetylarginine;<em>N</em><sup>α</sup>-Acetyl-<span class=\"text-smallcaps\">L</span>-arginine;<em>N</em>-Acetyl-<span class=\"text-smallcaps\">L</span>-arginine;(2S)-2-Acetamido-5-(diaminomethylideneamino)pentanoic acid",
    "duplicated_cas_no": "",
    "SMILES": "[C@@H](CCCNC(=N)N)(NC(C)=O)C(O)=O",
    "meta_data": {
        "InChI": "InChI=1S/C8H16N4O3/c1-5(13)12-6(7(14)15)3-2-4-11-8(9)10/h6H,2-4H2,1H3,(H,12,13)(H,14,15)(H4,9,10,11)/t6-/m0/s1",
        "InChIKey": null,
        "Canonical SMILES": "O=C(O)C(NC(=O)C)CCCNC(=N)N",
        "Molecular Formula": "C<sub>8</sub>H<sub>16</sub>N<sub>4</sub>O<sub>3</sub>",
        "Molecular Mass": "216.24",
        "Melting Point": "215 °C"
    }
}