{
    "cas_no": "6373-50-8",
    "key_name": "4-Cyclohexylbenzenamine",
    "cn_name": "4-环己苯胺;",
    "alternate_name": "Benzenamine, 4-cyclohexyl-;Aniline, <em>p</em>-cyclohexyl-;4-Cyclohexylbenzenamine;<em>p</em>-Cyclohexylaniline;4-Cyclohexylaniline;(4-Cyclohexylphenyl)amine;(<em>p</em>-Cyclohexylphenyl)amine",
    "duplicated_cas_no": "",
    "SMILES": "NC1=CC=C(C=C1)C2CCCCC2",
    "meta_data": {
        "InChI": "InChI=1S/C12H17N/c13-12-8-6-11(7-9-12)10-4-2-1-3-5-10/h6-10H,1-5,13H2",
        "InChIKey": null,
        "Canonical SMILES": "NC1=CC=C(C=C1)C2CCCCC2",
        "Molecular Formula": "C<sub>12</sub>H<sub>17</sub>N",
        "Molecular Mass": "175.27",
        "Boiling Point": "166 °C",
        "Melting Point": "53-56 °C"
    }
}