{
    "cas_no": "6223-83-2",
    "key_name": "Fluorenone-4-carboxylic acid",
    "cn_name": "9-芴酮-4-甲酸;9-芴酮-4-羧酸;",
    "alternate_name": "9<em>H</em>-Fluorene-4-carboxylic acid, 9-oxo-;Fluorene-4-carboxylic acid, 9-oxo-;9-Oxo-9<em>H</em>-fluorene-4-carboxylic acid;Fluorenone-5-carboxylic acid;9-Oxofluorene-4-carboxylic acid;9-Fluorenone-4-carboxylic acid;Fluorenone-4-carboxylic acid;4-Carboxy-9-fluorenone;NSC 27908",
    "duplicated_cas_no": "",
    "SMILES": "C(O)(=O)C1=C2C=3C(C(=O)C2=CC=C1)=CC=CC3",
    "meta_data": {
        "InChI": "InChI=1S/C14H8O3/c15-13-9-5-2-1-4-8(9)12-10(13)6-3-7-11(12)14(16)17/h1-7H,(H,16,17)",
        "InChIKey": null,
        "Canonical SMILES": "O=C(O)C1=CC=CC=2C(=O)C=3C=CC=CC3C12",
        "Molecular Formula": "C<sub>14</sub>H<sub>8</sub>O<sub>3</sub>",
        "Molecular Mass": "224.21",
        "Melting Point": "218-225 °C"
    }
}