{
    "cas_no": "138716-37-7",
    "key_name": "5-(4-Fluorophenyl)isoxazole",
    "cn_name": "5-(4-氟苯基)异恶唑;",
    "alternate_name": "Isoxazole, 5-(4-fluorophenyl)-;5-(4-Fluorophenyl)isoxazole",
    "duplicated_cas_no": "",
    "SMILES": "FC1=CC=C(C=C1)C2=CC=NO2",
    "meta_data": {
        "InChI": "InChI=1S/C9H6FNO/c10-8-3-1-7(2-4-8)9-5-6-11-12-9/h1-6H",
        "InChIKey": null,
        "Canonical SMILES": "FC=1C=CC(=CC1)C=2ON=CC2",
        "Molecular Formula": "C<sub>9</sub>H<sub>6</sub>FNO",
        "Molecular Mass": "163.15",
        "Melting Point": "51-53 °C"
    }
}