{
    "cas_no": "3443-84-3",
    "key_name": "2-Oleoylglycerol",
    "cn_name": "2-十八烯酸单甘油酯;2-十八烯酸单甘油酯;",
    "alternate_name": "9-Octadecenoic acid (9<em>Z</em>)-, 2-hydroxy-1-(hydroxymethyl)ethyl ester;Olein, 2-mono-;9-Octadecenoic acid (<em>Z</em>)-, 2-hydroxy-1-(hydroxymethyl)ethyl ester;2-Monoolein;2-Oleoyl glycerol ether;Glycerol 2-monooleate;2-Monooleoylglycerol;2-Oleoylglycerol;β-Monoolein;β-Glyceryl monooloeate;β-Glyceryl monooleate;1,3-Dihydroxypropan-2-yl oleate;2-Glyceryl oleate",
    "duplicated_cas_no": "",
    "SMILES": "C(OC(CCCCCCC/C=C\\CCCCCCCC)=O)(CO)CO",
    "meta_data": {
        "InChI": "InChI=1S/C21H40O4/c1-2-3-4-5-6-7-8-9-10-11-12-13-14-15-16-17-21(24)25-20(18-22)19-23/h9-10,20,22-23H,2-8,11-19H2,1H3/b10-9-",
        "InChIKey": null,
        "Canonical SMILES": "O=C(OC(CO)CO)CCCCCCCC=CCCCCCCCC",
        "Molecular Formula": "C<sub>21</sub>H<sub>40</sub>O<sub>4</sub>",
        "Molecular Mass": "356.54",
        "Melting Point": "23-23.5 °C",
        "Density": "0.9963 g/cm³ @ Temp: 20 °C"
    }
}