{
    "cas_no": "5469-26-1",
    "key_name": "Bromopinacolone",
    "cn_name": "1-溴频哪酮;1-溴代-3,3-二甲基-2-丁酮;",
    "alternate_name": "2-Butanone, 1-bromo-3,3-dimethyl-;1-Bromo-3,3-dimethyl-2-butanone;Bromomethyl <em>tert</em>-butyl ketone;Bromopinacolone;<em>tert</em>-Butyl bromomethyl ketone;α-Bromopinacolone;1-Bromopinacolone;1-Bromopinacolin;Pivaloylmethyl bromide;3,3-Dimethyl-2-oxobutyl bromide;NSC 25307;1-Bromo-3,3′-dimethyl-2-butanone;Bromomethyl tert-butyl ketone;2-Bromo-1-(<em>tert</em>-butyl)ethanone",
    "duplicated_cas_no": "",
    "SMILES": "C(C(C)(C)C)(CBr)=O",
    "meta_data": {
        "InChI": "InChI=1S/C6H11BrO/c1-6(2,3)5(8)4-7/h4H2,1-3H3",
        "InChIKey": null,
        "Canonical SMILES": "O=C(CBr)C(C)(C)C",
        "Molecular Formula": "C<sub>6</sub>H<sub>11</sub>BrO",
        "Molecular Mass": "179.05",
        "Boiling Point": "184-188 °C",
        "Density": "1.330 g/cm³ @ Temp: 17 °C"
    }
}