{
    "cas_no": "6928-67-2",
    "key_name": "Dipropyl tetrachlorophthalate",
    "cn_name": "二丙基四氯邻苯二甲酸酯;二丙基四氯邻苯二甲酸酯;",
    "alternate_name": "1,2-Benzenedicarboxylic acid, 3,4,5,6-tetrachloro-, 1,2-dipropyl ester;Phthalic acid, tetrachloro-, dipropyl ester;1,2-Benzenedicarboxylic acid, 3,4,5,6-tetrachloro-, dipropyl ester;Dipropyl tetrachlorophthalate;NSC 83596;1,2-Dipropyl 3,4,5,6-tetrachlorobenzene-1,2-dicarboxylate",
    "duplicated_cas_no": "119471-87-3",
    "SMILES": "C(OCCC)(=O)C1=C(C(OCCC)=O)C(Cl)=C(Cl)C(Cl)=C1Cl",
    "meta_data": {
        "InChI": "InChI=1S/C14H14Cl4O4/c1-3-5-21-13(19)7-8(14(20)22-6-4-2)10(16)12(18)11(17)9(7)15/h3-6H2,1-2H3",
        "InChIKey": null,
        "Canonical SMILES": "O=C(OCCC)C=1C(Cl)=C(Cl)C(Cl)=C(Cl)C1C(=O)OCCC",
        "Molecular Formula": "C<sub>14</sub>H<sub>14</sub>Cl<sub>4</sub>O<sub>4</sub>",
        "Molecular Mass": "388.07",
        "Boiling Point": "191 °C @ Press: 2 Torr",
        "Melting Point": "26 °C",
        "Density": "1.37 g/cm³ @ Temp: 20 °C"
    }
}