{
    "cas_no": "140-03-4",
    "key_name": "Methyl acetyl ricinoleate",
    "cn_name": "乙酰蓖麻油酸甲酯;乙酰蓖麻酸酯;2-乙酰氧-9-十八烯酸甲酯;",
    "alternate_name": "9-Octadecenoic acid, 12-(acetyloxy)-, methyl ester, (9<em>Z</em>,12<em>R</em>)-;Ricinoleic acid, methyl ester, acetate;9-Octadecenoic acid, 12-(acetyloxy)-, methyl ester, [<em>R</em>-(<em>Z</em>)]-;Methyl acetyl ricinoleate;Methyl ricinoleate acetate;Flexricin P 4;MAR-N;NSC 2398;NSC 4818;Ric-Cizer C 101;Ricsizer C 101;Methyl cis-(R)-12-acetoxyoctadec-9-enoate;Methyl <em>O</em>-acetylricinoleate",
    "duplicated_cas_no": "855789-22-9",
    "SMILES": "[C@H](C/C=C\\CCCCCCCC(OC)=O)(CCCCCC)OC(C)=O",
    "meta_data": {
        "InChI": "InChI=1S/C21H38O4/c1-4-5-6-13-16-20(25-19(2)22)17-14-11-9-7-8-10-12-15-18-21(23)24-3/h11,14,20H,4-10,12-13,15-18H2,1-3H3/b14-11-/t20-/m1/s1",
        "InChIKey": null,
        "Canonical SMILES": "O=C(OC(CC=CCCCCCCCC(=O)OC)CCCCCC)C",
        "Molecular Formula": "C<sub>21</sub>H<sub>38</sub>O<sub>4</sub>",
        "Molecular Mass": "354.52",
        "Boiling Point": "204-207 °C @ Press: 0.5 Torr"
    }
}