{
    "cas_no": "7661-55-4",
    "key_name": "5-Methylquinoline",
    "cn_name": "5-甲基喹啉;",
    "alternate_name": "Quinoline, 5-methyl-;5-Methylquinoline",
    "duplicated_cas_no": "",
    "SMILES": "CC=1C2=C(C=CC1)N=CC=C2",
    "meta_data": {
        "InChI": "InChI=1S/C10H9N/c1-8-4-2-6-10-9(8)5-3-7-11-10/h2-7H,1H3",
        "InChIKey": null,
        "Canonical SMILES": "N=1C=CC=C2C1C=CC=C2C",
        "Molecular Formula": "C<sub>10</sub>H<sub>9</sub>N",
        "Molecular Mass": "143.19",
        "Boiling Point": "262.7 °C",
        "Melting Point": "19 °C"
    }
}