{
    "cas_no": "34006-60-5",
    "key_name": "Acetic acid, 2-chloro-2-ethoxy-, ethyl ester",
    "cn_name": "2-氯-2-乙氧基乙酸乙酯;",
    "alternate_name": "Acetic acid, 2-chloro-2-ethoxy-, ethyl ester;Acetic acid, chloroethoxy-, ethyl ester;Ethyl 2-chloro-2-ethoxyacetate;2-Chloro-2-ethoxyacetic acid ethyl ester",
    "duplicated_cas_no": "",
    "SMILES": "C(C(OCC)=O)(OCC)Cl",
    "meta_data": {
        "InChI": "InChI=1S/C6H11ClO3/c1-3-9-5(7)6(8)10-4-2/h5H,3-4H2,1-2H3",
        "InChIKey": null,
        "Canonical SMILES": "O=C(OCC)C(Cl)OCC",
        "Molecular Formula": "C<sub>6</sub>H<sub>11</sub>ClO<sub>3</sub>",
        "Molecular Mass": "166.60",
        "Boiling Point": "79 °C @ Press: 12 Torr"
    }
}