{
    "cas_no": "1752-24-5",
    "key_name": "4,4′-Dihydroxydiphenylamine",
    "cn_name": null,
    "alternate_name": "Phenol, 4,4′-iminobis-;Phenol, 4,4′-iminodi-;4,4′-Iminobis[phenol];Bis(4-hydroxyphenyl)amine;4,4′-Dihydroxydiphenylamine;4,4′-Iminodiphenol;Indophenol, reduced;Leucoindophenol;Bis(<em>p</em>-hydroxyphenyl)amine;4,4′-Iminobisphenol;4-(4-Hydroxyanilino)phenol;<em>N</em>-(4′-Hydroxyphenyl)-<em>p</em>-aminophenol",
    "duplicated_cas_no": "",
    "SMILES": "N(C1=CC=C(O)C=C1)C2=CC=C(O)C=C2",
    "meta_data": {
        "InChI": "InChI=1S/C12H11NO2/c14-11-5-1-9(2-6-11)13-10-3-7-12(15)8-4-10/h1-8,13-15H",
        "InChIKey": null,
        "Canonical SMILES": "OC1=CC=C(C=C1)NC2=CC=C(O)C=C2",
        "Molecular Formula": "C<sub>12</sub>H<sub>11</sub>NO<sub>2</sub>",
        "Molecular Mass": "201.22",
        "Melting Point": "169 °C"
    }
}