{
    "cas_no": "114676-59-4",
    "key_name": "<span class=\"text-smallcaps\">D</span>-Proline, 4-hydroxy-, methyl ester, hydrochloride (1:1), (4<em>R</em>)-",
    "cn_name": null,
    "alternate_name": "<span class=\"text-smallcaps\">D</span>-Proline, 4-hydroxy-, methyl ester, hydrochloride (1:1), (4<em>R</em>)-;<span class=\"text-smallcaps\">D</span>-Proline, 4-hydroxy-, methyl ester, hydrochloride, <em>cis</em>-;<span class=\"text-smallcaps\">D</span>-Proline, 4-hydroxy-, methyl ester, hydrochloride, (4<em>R</em>)-;(2<em>R</em>,4<em>R</em>)-4-Hydroxypyrrolidine-2-carboxylic acid methyl ester hydrochloride;4-(<em>R</em>)-Hydroxypyrrolidine-2-(<em>R</em>)-carboxylic acid methyl ester hydrochloride;Methyl (2<em>R</em>,4<em>R</em>)-4-hydroxypyrrolidine-2-carboxylate hydrochloride;Methyl (2R,4R)-4-hydroxypyrrolidine-2-carboxylate hydrochloride;(2R,4R)-Methyl 4-hydroxypyrrolidine-2-carboxylate hydrochloride",
    "duplicated_cas_no": "252722-10-4;1463880-94-5",
    "SMILES": "C(OC)(=O)[C@H]1C[C@@H](O)CN1.Cl",
    "meta_data": {
        "InChI": "InChI=1S/C6H11NO3.ClH/c1-10-6(9)5-2-4(8)3-7-5;/h4-5,7-8H,2-3H2,1H3;1H/t4-,5-;/m1./s1",
        "InChIKey": null,
        "Canonical SMILES": "Cl.O=C(OC)C1NCC(O)C1",
        "Molecular Formula": "C<sub>6</sub>H<sub>11</sub>NO<sub>3</sub>.ClH",
        "Molecular Mass": "",
        "Melting Point": "102-104 °C"
    }
}