{
    "cas_no": "81740-18-3",
    "key_name": "1,1-Dimethylethyl <em>N</em>-(3-fluorophenyl)carbamate",
    "cn_name": null,
    "alternate_name": "Carbamic acid, <em>N</em>-(3-fluorophenyl)-, 1,1-dimethylethyl ester;Carbamic acid, (3-fluorophenyl)-, 1,1-dimethylethyl ester;1,1-Dimethylethyl <em>N</em>-(3-fluorophenyl)carbamate;<em>Tert</em>-Butyl 3-fluorophenylcarbamate;<em>N</em>-Boc-3-fluoroaniline;1-<em>N</em>-Boc-3-fluoro-aniline",
    "duplicated_cas_no": "",
    "SMILES": "N(C(OC(C)(C)C)=O)C1=CC(F)=CC=C1",
    "meta_data": {
        "InChI": "InChI=1S/C11H14FNO2/c1-11(2,3)15-10(14)13-9-6-4-5-8(12)7-9/h4-7H,1-3H3,(H,13,14)",
        "InChIKey": null,
        "Canonical SMILES": "O=C(OC(C)(C)C)NC=1C=CC=C(F)C1",
        "Molecular Formula": "C<sub>11</sub>H<sub>14</sub>FNO<sub>2</sub>",
        "Molecular Mass": "211.23",
        "Melting Point": "122-125 °C"
    }
}