{
    "cas_no": "19064-16-5",
    "key_name": "Benzaldehyde, 2,6-difluoro-, oxime",
    "cn_name": null,
    "alternate_name": "Benzaldehyde, 2,6-difluoro-, oxime;2,6-Difluorobenzaldehyde oxime",
    "duplicated_cas_no": "",
    "SMILES": "C(=NO)C1=C(F)C=CC=C1F",
    "meta_data": {
        "InChI": "InChI=1S/C7H5F2NO/c8-6-2-1-3-7(9)5(6)4-10-11/h1-4,11H",
        "InChIKey": null,
        "Canonical SMILES": "FC1=CC=CC(F)=C1C=NO",
        "Molecular Formula": "C<sub>7</sub>H<sub>5</sub>F<sub>2</sub>NO",
        "Molecular Mass": "157.12",
        "Melting Point": "114.5-115 °C"
    }
}