{
    "cas_no": "484-65-1",
    "key_name": "Pentamethylbenzyl chloride",
    "cn_name": "2,3,4,5,6-五甲基苄氯;",
    "alternate_name": "Benzene, 1-(chloromethyl)-2,3,4,5,6-pentamethyl-;Benzene, (chloromethyl)pentamethyl-;1-(Chloromethyl)-2,3,4,5,6-pentamethylbenzene;(Chloromethyl)pentamethylbenzene;Pentamethylbenzyl chloride;2,3,4,5,6-Pentamethylbenzyl chloride;NSC 98359;Pentamethyl(chloromethyl)benzene",
    "duplicated_cas_no": "",
    "SMILES": "C(Cl)C1=C(C)C(C)=C(C)C(C)=C1C",
    "meta_data": {
        "InChI": "InChI=1S/C12H17Cl/c1-7-8(2)10(4)12(6-13)11(5)9(7)3/h6H2,1-5H3",
        "InChIKey": null,
        "Canonical SMILES": "ClCC=1C(=C(C(=C(C1C)C)C)C)C",
        "Molecular Formula": "C<sub>12</sub>H<sub>17</sub>Cl",
        "Molecular Mass": "196.72",
        "Boiling Point": "148 °C @ Press: 14 Torr",
        "Melting Point": "82-84 °C"
    }
}