{
    "cas_no": "10441-41-5",
    "key_name": "1-(6-Hydroxy-2-naphthalenyl)ethanone",
    "cn_name": "6-乙酰基-2-萘酚;",
    "alternate_name": "Ethanone, 1-(6-hydroxy-2-naphthalenyl)-;2′-Acetonaphthone, 6′-hydroxy-;1-(6-Hydroxy-2-naphthalenyl)ethanone;6-Acetyl-2-naphthol;2-Hydroxy-6-acetylnaphthalene;2-Acetyl-6-naphthalenol;6-Acetyl-2-hydroxynaphthalene;6′-Hydroxy-2′-acetonaphthone;6-Hydroxy-2-naphthyl methyl ketone;1-(6-Hydroxy-2-naphthyl)ethanone;NSC 139891;1-(6-Hydroxy-2-naphthyl)ethan-1-one;1-(6-Hydroxynaphthalen-2-yl)ethanone;2-Acetyl-6-hydroxynaphthalene;1-(6-Hydroxynaphthalen-2-yl)ethan-1-one",
    "duplicated_cas_no": "",
    "SMILES": "C(C)(=O)C1=CC2=C(C=C(O)C=C2)C=C1",
    "meta_data": {
        "InChI": "InChI=1S/C12H10O2/c1-8(13)9-2-3-11-7-12(14)5-4-10(11)6-9/h2-7,14H,1H3",
        "InChIKey": null,
        "Canonical SMILES": "O=C(C1=CC=C2C=C(O)C=CC2=C1)C",
        "Molecular Formula": "C<sub>12</sub>H<sub>10</sub>O<sub>2</sub>",
        "Molecular Mass": "186.21",
        "Melting Point": "171 °C",
        "Density": "1.36 g/cm³"
    }
}