{
    "cas_no": "33842-02-3",
    "key_name": "Phosgeniminium chloride",
    "cn_name": "二氯亚甲基二甲基氯化铵;",
    "alternate_name": "Methanaminium, dichlorodimethyl-, chloride (1:1);Methanaminium, <em>N</em>-(dichloromethylene)-<em>N</em>-methyl-, chloride;Ammonium, (dichloromethylene)dimethyl-, chloride;(Dichloromethylene)dimethylammonium chloride;Dimethylphosgeniminium chloride;Viehe's salt;<em>N</em>-(Dichloromethylene)-<em>N</em>-methylmethanaminium chloride;Phosgeniminium chloride;(Dichloromethylene)dimethyliminium chloride;(Dichloromethylidene)dimethylazanium chloride",
    "duplicated_cas_no": "33564-15-7",
    "SMILES": "C(=[N+](C)C)(Cl)Cl.[Cl-]",
    "meta_data": {
        "InChI": "InChI=1S/C3H6Cl2N.ClH/c1-6(2)3(4)5;/h1-2H3;1H/q+1;/p-1",
        "InChIKey": null,
        "Canonical SMILES": "[Cl-].ClC(Cl)=[N+](C)C",
        "Molecular Formula": "C<sub>3</sub>H<sub>6</sub>Cl<sub>2</sub>N.Cl",
        "Molecular Mass": "",
        "Melting Point": "185 °C"
    }
}