{
    "cas_no": "16982-21-1",
    "key_name": "Ethyl thiooxamate",
    "cn_name": null,
    "alternate_name": "Acetic acid, 2-amino-2-thioxo-, ethyl ester;Oxamic acid, 2-thio-, ethyl ester;Acetic acid, aminothioxo-, ethyl ester;Ethyl thiooxamidate;Ethyl 2-thiooxamate;Ethyl amino(thiocarbonyl)carboxylate;Ethyl thiooxamate;Ethyl 2-amino-2-thioxoacetate;Ethyl aminothioxoacetate;NSC 174676;Ethyl thioxamate;Ethyl thiocarbamoylformate;Thiooxamic acid ethyl ester;2-Thiooxamic acid ethyl ester;(Amino)(thioxo)acetic acid ethyl ester;2-Amino-2-thioxoacetic acid ethyl ester;Ethyl 2-amino-thioxoacetate;Propanethioamide, 3-bromo-2-oxo-",
    "duplicated_cas_no": "1770851-49-4;2720708-55-2",
    "SMILES": "C(OCC)(C(N)=S)=O",
    "meta_data": {
        "InChI": "InChI=1S/C4H7NO2S/c1-2-7-4(6)3(5)8/h2H2,1H3,(H2,5,8)",
        "InChIKey": null,
        "Canonical SMILES": "O=C(OCC)C(=S)N",
        "Molecular Formula": "C<sub>4</sub>H<sub>7</sub>NO<sub>2</sub>S",
        "Molecular Mass": "133.17",
        "Melting Point": "58-60 °C"
    }
}