{
    "cas_no": "775-01-9",
    "key_name": "(±)-3,4-Dihydroxymandelic acid",
    "cn_name": "3,4-二羟基扁桃酸;",
    "alternate_name": "Benzeneacetic acid, α,3,4-trihydroxy-;Mandelic acid, 3,4-dihydroxy-;α,3,4-Trihydroxybenzeneacetic acid;3,4-Dihydroxymandelic acid;(3,4-Dihydroxyphenyl)glycolic acid;3′,4′-Dihydroxymandelic acid;DOMA;2-(3,4-Dihydroxyphenyl)-2-hydroxyacetic acid;α-Hydroxy-3,4-dihydroxyphenylacetic acid;<em>dl</em>-3,4-Dihydroxymandelic acid;3,4-Dihydroxy-<span class=\"text-smallcaps\">DL</span>-mandelic acid;(±)-3,4-Dihydroxymandelic acid;<span class=\"text-smallcaps\">DL</span>-3,4-Dihydroxymandelic acid;<span class=\"text-smallcaps\">DL</span>-3,4-Dihydroxymadelic acid;3,4-Dihydroxy-<em>dl</em>-mandelic acid;<span class=\"text-smallcaps\">D</smallcap>,<smallcap>L</span>-3,4-Dihydroxymandelic acid;2-(3′,4′-Dihydroxyphenyl)-2-hydroxyethanoic acid",
    "duplicated_cas_no": "14883-87-5",
    "SMILES": "C(C(O)=O)(O)C1=CC(O)=C(O)C=C1",
    "meta_data": {
        "InChI": "InChI=1S/C8H8O5/c9-5-2-1-4(3-6(5)10)7(11)8(12)13/h1-3,7,9-11H,(H,12,13)",
        "InChIKey": null,
        "Canonical SMILES": "O=C(O)C(O)C1=CC=C(O)C(O)=C1",
        "Molecular Formula": "C<sub>8</sub>H<sub>8</sub>O<sub>5</sub>",
        "Molecular Mass": "184.15",
        "Melting Point": "137 °C (decomp)"
    }
}