{
    "cas_no": "90272-84-7",
    "key_name": "2-Chloro-7-methylquinoxaline",
    "cn_name": null,
    "alternate_name": "Quinoxaline, 2-chloro-7-methyl-;2-Chloro-7-methylquinoxaline",
    "duplicated_cas_no": "",
    "SMILES": "ClC1=NC2=C(C=CC(C)=C2)N=C1",
    "meta_data": {
        "InChI": "InChI=1S/C9H7ClN2/c1-6-2-3-7-8(4-6)12-9(10)5-11-7/h2-5H,1H3",
        "InChIKey": null,
        "Canonical SMILES": "ClC1=NC2=CC(=CC=C2N=C1)C",
        "Molecular Formula": "C<sub>9</sub>H<sub>7</sub>ClN<sub>2</sub>",
        "Molecular Mass": "178.62",
        "Melting Point": "76 °C"
    }
}