{
    "cas_no": "105-95-3",
    "key_name": "Ethylene brassylate",
    "cn_name": "十三烷二酸环乙撑酯;巴西酸亚乙酯;巴西酸乙二醇酯;麝香-T;",
    "alternate_name": "1,4-Dioxacycloheptadecane-5,17-dione;Tridecanedioic acid, cyclic ethylene ester;Ethylene glycol, cyclic tridecanedioate;Ethylene brassylate;Musk T;Astratone;Cyclic ethylene tridecanedioate;Cyclic ethylene glycol tridecanedioate;Emeressence 1150;NSC 46155",
    "duplicated_cas_no": "91462-25-8",
    "SMILES": "O=C1OCCOC(=O)CCCCCCCCCCC1",
    "meta_data": {
        "InChI": "InChI=1S/C15H26O4/c16-14-10-8-6-4-2-1-3-5-7-9-11-15(17)19-13-12-18-14/h1-13H2",
        "InChIKey": null,
        "Canonical SMILES": "O=C1OCCOC(=O)CCCCCCCCCCC1",
        "Molecular Formula": "C<sub>15</sub>H<sub>26</sub>O<sub>4</sub>",
        "Molecular Mass": "270.36",
        "Boiling Point": "332 °C",
        "Melting Point": "-8 °C",
        "Density": "1.018 g/cm³ @ Temp: 60 °C"
    }
}