{
    "cas_no": "9014-63-5",
    "key_name": "Xylan",
    "cn_name": null,
    "alternate_name": "Xylan;Xylans;<span class=\"text-smallcaps\">D</span>-Xylan;DP 42;CMT 85;X 8070;MeSH ID: D014990",
    "duplicated_cas_no": "8050-11-1;37300-19-9;1348946-15-5",
    "SMILES": "",
    "meta_data": {
        "InChI": "",
        "InChIKey": null,
        "Canonical SMILES": "",
        "Molecular Formula": "Unspecified",
        "Molecular Mass": "",
        "Melting Point": "198 °C"
    }
}