{
    "uri": "substance/pt/9014635",
    "rn": "9014-63-5",
    "name": "Xylan",
    "images": [],
    "inchi": "",
    "inchiKey": "",
    "smile": "",
    "canonicalSmile": "",
    "molecularFormula": "Unspecified",
    "molecularMass": "",
    "experimentalProperties": [
        {
            "name": "Melting Point",
            "property": "198 °C",
            "sourceNumber": 1
        }
    ],
    "propertyCitations": [
        {
            "docUri": "document/pt/document/23042014",
            "sourceNumber": 1,
            "source": "Hibino, Tasuku; Nippon Kagaku Kaishi (1921-47), (1930), 51, 417-31, CAplus"
        }
    ],
    "synonyms": [
        "Xylan",
        "Xylans",
        "<span class=\"text-smallcaps\">D</span>-Xylan",
        "DP 42",
        "CMT 85",
        "X 8070",
        "MeSH ID: D014990"
    ],
    "replacedRns": [
        "8050-11-1",
        "37300-19-9",
        "1348946-15-5"
    ],
    "hasMolfile": false,
    "source": "https://commonchemistry.cas.org/detail?cas_rn=9014-63-5"
}