{
    "cas_no": "787-70-2",
    "key_name": "[1,1′-Biphenyl]-4,4′-dicarboxylic acid",
    "cn_name": "联苯二甲酸;4,4\"-联苯二羧酸;",
    "alternate_name": "[1,1′-Biphenyl]-4,4′-dicarboxylic acid;4,4′-Biphenyldicarboxylic acid;4,4′-Bibenzoic acid;4,4′-Dicarboxybiphenyl;<em>p</em>,<em>p</em>′-Diphenic acid;4,4′-Diphenic acid;4,4′-Diphenyldicarboxylic acid;NSC 60016;4BPA;BPDC",
    "duplicated_cas_no": "349484-13-5;1352443-78-7",
    "SMILES": "C(O)(=O)C1=CC=C(C=C1)C2=CC=C(C(O)=O)C=C2",
    "meta_data": {
        "InChI": "InChI=1S/C14H10O4/c15-13(16)11-5-1-9(2-6-11)10-3-7-12(8-4-10)14(17)18/h1-8H,(H,15,16)(H,17,18)",
        "InChIKey": null,
        "Canonical SMILES": "O=C(O)C=1C=CC(=CC1)C2=CC=C(C=C2)C(=O)O",
        "Molecular Formula": "C<sub>14</sub>H<sub>10</sub>O<sub>4</sub>",
        "Molecular Mass": "242.23",
        "Melting Point": "&gt;300 °C (decomp)"
    }
}