{
    "cas_no": "17882-06-3",
    "key_name": "Silanol, 1,1,1-trimethyl-, 1-benzenesulfonate",
    "cn_name": "三甲硅基苯磺酸酯;",
    "alternate_name": "Silanol, 1,1,1-trimethyl-, 1-benzenesulfonate;Silanol, trimethyl-, benzenesulfonate;Trimethylsilyl benzenesulfonate",
    "duplicated_cas_no": "",
    "SMILES": "S(O[Si](C)(C)C)(=O)(=O)C1=CC=CC=C1",
    "meta_data": {
        "InChI": "InChI=1S/C9H14O3SSi/c1-14(2,3)12-13(10,11)9-7-5-4-6-8-9/h4-8H,1-3H3",
        "InChIKey": null,
        "Canonical SMILES": "O=S(=O)(O[Si](C)(C)C)C=1C=CC=CC1",
        "Molecular Formula": "C<sub>9</sub>H<sub>14</sub>O<sub>3</sub>SSi",
        "Molecular Mass": "230.36",
        "Boiling Point": "154-156 °C @ Press: 12 Torr",
        "Density": "1.138 g/cm³"
    }
}