{
    "cas_no": "6975-60-6",
    "key_name": "1-(2-Furyl)-2-propanone",
    "cn_name": "2-呋喃基乙酮;2-呋喃基乙酮,99%;2-呋喃基乙酮;",
    "alternate_name": "2-Propanone, 1-(2-furanyl)-;2-Propanone, 1-(2-furyl)-;2-Propanone, (2-furyl)-;1-(2-Furanyl)-2-propanone;Furfuryl methyl ketone;2-Furfuryl methyl ketone;1-(2-Furyl)-2-propanone;2-Acetonylfuran;2-Furyl-1-propan-2-one;2-Furylacetone;Methyl furfuryl ketone;NSC 21607;2-(2-Oxopropyl)furan",
    "duplicated_cas_no": "",
    "SMILES": "C(C(C)=O)C1=CC=CO1",
    "meta_data": {
        "InChI": "InChI=1S/C7H8O2/c1-6(8)5-7-3-2-4-9-7/h2-4H,5H2,1H3",
        "InChIKey": null,
        "Canonical SMILES": "O=C(C)CC=1OC=CC1",
        "Molecular Formula": "C<sub>7</sub>H<sub>8</sub>O<sub>2</sub>",
        "Molecular Mass": "124.14",
        "Boiling Point": "179.5 °C",
        "Melting Point": "29 °C",
        "Density": "1.0488 g/cm³ @ Temp: 20 °C"
    }
}