{
    "cas_no": "593-71-5",
    "key_name": "Chloroiodomethane",
    "cn_name": "氯碘甲烷;",
    "alternate_name": "Methane, chloroiodo-;Chloroiodomethane;Chloromethyl iodide;Iodochloromethane",
    "duplicated_cas_no": "103883-83-6",
    "SMILES": "C(Cl)I",
    "meta_data": {
        "InChI": "InChI=1S/CH2ClI/c2-1-3/h1H2",
        "InChIKey": null,
        "Canonical SMILES": "ClCI",
        "Molecular Formula": "CH<sub>2</sub>ClI",
        "Molecular Mass": "176.38",
        "Boiling Point": "109 °C"
    }
}