{
    "cas_no": "137-40-6",
    "key_name": "Sodium propionate",
    "cn_name": "丙酸钠;",
    "alternate_name": "Propanoic acid, sodium salt (1:1);Propionic acid, sodium salt;Propanoic acid, sodium salt;Impedex;Mycoban;Napropion;Ocuseptine;Sodium propionate;Whit-Pro;Bioban-S;Sodium propanoate;Deketon;Propiofar;Propion;Propi-Ophtal;Propisol;Sodium ethanecarboxylate",
    "duplicated_cas_no": "686-67-9;8027-08-5;1159574-04-5;1159574-05-6",
    "SMILES": "C(CC)(O)=O.[Na]",
    "meta_data": {
        "InChI": "InChI=1S/C3H6O2.Na/c1-2-3(4)5;/h2H2,1H3,(H,4,5);",
        "InChIKey": null,
        "Canonical SMILES": "[Na].O=C(O)CC",
        "Molecular Formula": "C<sub>3</sub>H<sub>6</sub>O<sub>2</sub>.Na",
        "Molecular Mass": "",
        "Melting Point": "298 °C"
    }
}