{
    "cas_no": "506-12-7",
    "key_name": "Heptadecanoic acid",
    "cn_name": "十七烷酸;",
    "alternate_name": "Heptadecanoic acid;<em>n</em>-Heptadecoic acid;<em>n</em>-Heptadecylic acid;Margaric acid;Margarinic acid;<em>n</em>-Heptadecanoic acid;NSC 3743",
    "duplicated_cas_no": "28829-31-4;45237-52-3;45237-51-2",
    "SMILES": "C(CCCCCCCCCCC)CCCCC(O)=O",
    "meta_data": {
        "InChI": "InChI=1S/C17H34O2/c1-2-3-4-5-6-7-8-9-10-11-12-13-14-15-16-17(18)19/h2-16H2,1H3,(H,18,19)",
        "InChIKey": null,
        "Canonical SMILES": "O=C(O)CCCCCCCCCCCCCCCC",
        "Molecular Formula": "C<sub>17</sub>H<sub>34</sub>O<sub>2</sub>",
        "Molecular Mass": "270.45",
        "Boiling Point": "363.8 °C",
        "Melting Point": "61.3 °C",
        "Density": "0.8532 g/cm³ @ Temp: 60 °C"
    }
}