{
    "cas_no": "23642-66-2",
    "key_name": "Benfluorex hydrochloride",
    "cn_name": null,
    "alternate_name": "Ethanol, 2-[[1-methyl-2-[3-(trifluoromethyl)phenyl]ethyl]amino]-, 1-benzoate, hydrochloride (1:1);Ethanol, 2-[[α-methyl-<em>m</em>-(trifluoromethyl)phenethyl]amino]-, benzoate (ester), hydrochloride;Ethanol, 2-[[1-methyl-2-[3-(trifluoromethyl)phenyl]ethyl]amino]-, benzoate (ester), hydrochloride;Mediator;Benfluorex hydrochloride;(±)-<em>N</em>-(2-Benzoyloxyethyl)norfenfluramine hydrochloride;Mediaxal;JP 992;S 992",
    "duplicated_cas_no": "22471-86-9",
    "SMILES": "C(C(NCCOC(=O)C1=CC=CC=C1)C)C2=CC(C(F)(F)F)=CC=C2.Cl",
    "meta_data": {
        "InChI": "InChI=1S/C19H20F3NO2.ClH/c1-14(12-15-6-5-9-17(13-15)19(20,21)22)23-10-11-25-18(24)16-7-3-2-4-8-16;/h2-9,13-14,23H,10-12H2,1H3;1H",
        "InChIKey": null,
        "Canonical SMILES": "Cl.O=C(OCCNC(C)CC1=CC=CC(=C1)C(F)(F)F)C=2C=CC=CC2",
        "Molecular Formula": "C<sub>19</sub>H<sub>20</sub>F<sub>3</sub>NO<sub>2</sub>.ClH",
        "Molecular Mass": "",
        "Melting Point": "161-162 °C"
    }
}