{
    "cas_no": "770-35-4",
    "key_name": "1-Phenoxy-2-propanol",
    "cn_name": "1-苯氧基-2-丙醇;丙二醇苯醚;苯氧异丙醇;",
    "alternate_name": "2-Propanol, 1-phenoxy-;1-Phenoxy-2-propanol;Propylene phenoxetol;2-Phenoxy-1-methylethanol;Phenoxyisopropanol;β-Phenoxyisopropanol;(±)-1-Phenoxy-2-propanol;<em>rac</em>-1-Phenoxy-2-propanol;NSC 24015;2-Hydroxypropyl phenyl ether",
    "duplicated_cas_no": "130890-76-5;207275-03-4",
    "SMILES": "O(CC(C)O)C1=CC=CC=C1",
    "meta_data": {
        "InChI": "InChI=1S/C9H12O2/c1-8(10)7-11-9-5-3-2-4-6-9/h2-6,8,10H,7H2,1H3",
        "InChIKey": null,
        "Canonical SMILES": "OC(C)COC=1C=CC=CC1",
        "Molecular Formula": "C<sub>9</sub>H<sub>12</sub>O<sub>2</sub>",
        "Molecular Mass": "152.19",
        "Boiling Point": "242.7 °C",
        "Melting Point": "&lt;25 °C",
        "Density": "1.0622 g/cm³ @ Temp: 20 °C"
    }
}