{
    "cas_no": "629-06-1",
    "key_name": "1-Chloroheptane",
    "cn_name": "1-氯庚烷;",
    "alternate_name": "Heptane, 1-chloro-;1-Chloroheptane;Heptyl chloride;<em>n</em>-Heptyl chloride",
    "duplicated_cas_no": "",
    "SMILES": "C(CCCCl)CCC",
    "meta_data": {
        "InChI": "InChI=1S/C7H15Cl/c1-2-3-4-5-6-7-8/h2-7H2,1H3",
        "InChIKey": null,
        "Canonical SMILES": "ClCCCCCCC",
        "Molecular Formula": "C<sub>7</sub>H<sub>15</sub>Cl",
        "Molecular Mass": "134.65",
        "Boiling Point": "159 °C",
        "Melting Point": "-69.5 °C",
        "Density": "0.8741 g/cm³ @ Temp: 20 °C"
    }
}