{
    "cas_no": "636-30-6",
    "key_name": "2,4,5-Trichloroaniline",
    "cn_name": "2,4,5-三氯苯胺;",
    "alternate_name": "Benzenamine, 2,4,5-trichloro-;Aniline, 2,4,5-trichloro-;2,4,5-Trichlorobenzenamine;2,4,5-Trichloroaniline;2,4,5-Trichloraniline;NSC 64139;2,4,5-Trichloro-phenylamine;Benzenamine, 2,4,5-trichloro-3-fluoro-",
    "duplicated_cas_no": "2379891-52-6",
    "SMILES": "ClC1=C(Cl)C=C(N)C(Cl)=C1",
    "meta_data": {
        "InChI": "InChI=1S/C6H4Cl3N/c7-3-1-5(9)6(10)2-4(3)8/h1-2H,10H2",
        "InChIKey": null,
        "Canonical SMILES": "ClC=1C=C(Cl)C(N)=CC1Cl",
        "Molecular Formula": "C<sub>6</sub>H<sub>4</sub>Cl<sub>3</sub>N",
        "Molecular Mass": "196.46",
        "Boiling Point": "270 °C",
        "Melting Point": "96.5 °C"
    }
}