{
    "cas_no": "3218-49-3",
    "key_name": "3,4-Dichlorobenzeneacetonitrile",
    "cn_name": "3,4-二氯苯乙腈;",
    "alternate_name": "Benzeneacetonitrile, 3,4-dichloro-;Acetonitrile, (3,4-dichlorophenyl)-;3,4-Dichlorobenzeneacetonitrile;(3,4-Dichlorophenyl)acetonitrile;3,4-Dichlorobenzyl cyanide;NSC 111725;2-(3,4-Dichlorophenyl)acetonitrile",
    "duplicated_cas_no": "",
    "SMILES": "C(C#N)C1=CC(Cl)=C(Cl)C=C1",
    "meta_data": {
        "InChI": "InChI=1S/C8H5Cl2N/c9-7-2-1-6(3-4-11)5-8(7)10/h1-2,5H,3H2",
        "InChIKey": null,
        "Canonical SMILES": "N#CCC1=CC=C(Cl)C(Cl)=C1",
        "Molecular Formula": "C<sub>8</sub>H<sub>5</sub>Cl<sub>2</sub>N",
        "Molecular Mass": "186.04",
        "Boiling Point": "170 °C @ Press: 12 Torr",
        "Melting Point": "41-42 °C"
    }
}