{
    "cas_no": "52119-38-7",
    "key_name": "Ethyl 3-nitro-β-oxobenzenepropanoate",
    "cn_name": "3-(3-硝基苯基)-3-氧代丙酸乙酯;",
    "alternate_name": "Benzenepropanoic acid, 3-nitro-β-oxo-, ethyl ester;Acetic acid, (<em>m</em>-nitrobenzoyl)-, ethyl ester;Ethyl 3-nitro-β-oxobenzenepropanoate;Ethyl(<em>m</em>-nitrobenzoyl)acetate;Ethyl (3-nitrobenzoyl)acetate;Ethyl 3-(3-nitrophenyl)-3-oxopropanoate",
    "duplicated_cas_no": "",
    "SMILES": "C(CC(OCC)=O)(=O)C1=CC(N(=O)=O)=CC=C1",
    "meta_data": {
        "InChI": "InChI=1S/C11H11NO5/c1-2-17-11(14)7-10(13)8-4-3-5-9(6-8)12(15)16/h3-6H,2,7H2,1H3",
        "InChIKey": null,
        "Canonical SMILES": "O=C(OCC)CC(=O)C1=CC=CC(=C1)N(=O)=O",
        "Molecular Formula": "C<sub>11</sub>H<sub>11</sub>NO<sub>5</sub>",
        "Molecular Mass": "237.21",
        "Melting Point": "75-77 °C"
    }
}