{
    "cas_no": "162204-20-8",
    "key_name": "Cytidine, 5′-deoxy-5-fluoro-<em>N</em>-[(pentyloxy)carbonyl]-, 2′,3′-diacetate",
    "cn_name": "5\"-脱氧-5-氟-N-[(戊氧基)羰基]胞苷 2\",3\"-二乙酸酯;",
    "alternate_name": "Cytidine, 5′-deoxy-5-fluoro-<em>N</em>-[(pentyloxy)carbonyl]-, 2′,3′-diacetate;Carbamic acid, [1-(2,3-di-<em>O</em>-acetyl-5-deoxy-β-<span class=\"text-smallcaps\">D</span>-ribofuranosyl)-5-fluoro-1,2-dihydro-2-oxo-4-pyrimidinyl]-, pentyl ester;2′,3′-Di-<em>O</em>-acetyl-5′-deoxy-5-fluoro-<em>N</em><sup>4</sup>-(pentyloxycarbonyl)cytidine",
    "duplicated_cas_no": "",
    "SMILES": "O(C(C)=O)[C@H]1[C@@H](O[C@H](C)[C@H]1OC(C)=O)N2C(=O)N=C(NC(OCCCCC)=O)C(F)=C2",
    "meta_data": {
        "InChI": "InChI=1S/C19H26FN3O8/c1-5-6-7-8-28-19(27)22-16-13(20)9-23(18(26)21-16)17-15(31-12(4)25)14(10(2)29-17)30-11(3)24/h9-10,14-15,17H,5-8H2,1-4H3,(H,21,22,26,27)/t10-,14-,15-,17-/m1/s1",
        "InChIKey": null,
        "Canonical SMILES": "O=C(OCCCCC)NC1=NC(=O)N(C=C1F)C2OC(C)C(OC(=O)C)C2OC(=O)C",
        "Molecular Formula": "C<sub>19</sub>H<sub>26</sub>FN<sub>3</sub>O<sub>8</sub>",
        "Molecular Mass": "443.42",
        "Melting Point": "50-51 °C"
    }
}