{
    "cas_no": "92-51-3",
    "key_name": "Bicyclohexyl",
    "cn_name": "双环己烷;",
    "alternate_name": "1,1′-Bicyclohexyl;Bicyclohexyl;Cyclohexane, cyclohexyl-;Dicyclohexyl;Dodecahydrobiphenyl;1,1′-Biphenyl, dodecahydro-;Dicyclohexane;Cyclohexylcyclohexane;NSC 59855",
    "duplicated_cas_no": "",
    "SMILES": "C1(CCCCC1)C2CCCCC2",
    "meta_data": {
        "InChI": "InChI=1S/C12H22/c1-3-7-11(8-4-1)12-9-5-2-6-10-12/h11-12H,1-10H2",
        "InChIKey": null,
        "Canonical SMILES": "C1CCC(CC1)C2CCCCC2",
        "Molecular Formula": "C<sub>12</sub>H<sub>22</sub>",
        "Molecular Mass": "166.30",
        "Boiling Point": "238 °C",
        "Melting Point": "4 °C",
        "Density": "0.8797 g/cm³ @ Temp: 20 °C"
    }
}