{
    "cas_no": "7783-82-6",
    "key_name": "Tungsten fluoride (WF<sub>6</sub>), (<em>OC</em>-6-11)-",
    "cn_name": "六氟化钨;",
    "alternate_name": "Tungsten fluoride (WF<sub>6</sub>), (<em>OC</em>-6-11)-;Tungsten fluoride (WF<sub>6</sub>);Tungsten hexafluoride (WF<sub>6</sub>);Tungsten hexafluoride;Hexafluorotungsten;Wolfram hexafluoride;Tungsten(6+) fluoride;Tungsten fluoride",
    "duplicated_cas_no": "26979-63-5;26979-66-8;26979-67-9;26979-64-6;26979-72-6;26979-73-7",
    "SMILES": "[W](F)(F)(F)(F)(F)F",
    "meta_data": {
        "InChI": "InChI=1S/6FH.W/h6*1H;/q;;;;;;+6/p-6",
        "InChIKey": null,
        "Canonical SMILES": "F[W](F)(F)(F)(F)F",
        "Molecular Formula": "F<sub>6</sub>W",
        "Molecular Mass": "",
        "Boiling Point": "19.5 °C",
        "Melting Point": "2.5 °C",
        "Density": "3.44 g/cm³ @ Temp: 15 °C"
    }
}