{
    "cas_no": "73963-72-1",
    "key_name": "Cilostazol",
    "cn_name": "西洛他唑;6-[4-(1-环己基-1H-戊四唑-5-基)丁氧基]-3,4-二氢-2(1H)-喹诺酮;",
    "alternate_name": "2(1<em>H</em>)-Quinolinone, 6-[4-(1-cyclohexyl-1<em>H</em>-tetrazol-5-yl)butoxy]-3,4-dihydro-;6-[4-(1-Cyclohexyl-1<em>H</em>-tetrazol-5-yl)butoxy]-3,4-dihydro-2(1<em>H</em>)-quinolinone;Cilostazol;Cilostazole;Pletaal;OPC 21;OPC 13013;Pletal;6-[4-(1-Cyclohexyl-1,2,3,4-tetrazol-5-yl)butoxy]-3,4-dihydrocarbostyril;6-[4-(1-Cyclohexyl-1<em>H</em>-tetrazol-5-yl)butoxy]-3,4-dihydroquinolin-2(1<em>H</em>)-one",
    "duplicated_cas_no": "89332-50-3",
    "SMILES": "C(CCCOC=1C=C2C(=CC1)NC(=O)CC2)C=3N(N=NN3)C4CCCCC4",
    "meta_data": {
        "InChI": "InChI=1S/C20H27N5O2/c26-20-12-9-15-14-17(10-11-18(15)21-20)27-13-5-4-8-19-22-23-24-25(19)16-6-2-1-3-7-16/h10-11,14,16H,1-9,12-13H2,(H,21,26)",
        "InChIKey": null,
        "Canonical SMILES": "O=C1NC2=CC=C(OCCCCC3=NN=NN3C4CCCCC4)C=C2CC1",
        "Molecular Formula": "C<sub>20</sub>H<sub>27</sub>N<sub>5</sub>O<sub>2</sub>",
        "Molecular Mass": "369.46",
        "Melting Point": "160 °C",
        "Density": "1.26 g/cm³ (Solid)"
    }
}