{
    "cas_no": "13241-28-6",
    "key_name": "Chrysophanol 8-<em>O</em>-β-<span class=\"text-smallcaps\">D</span>-glucopyranoside",
    "cn_name": null,
    "alternate_name": "9,10-Anthracenedione, 8-(β-<span class=\"text-smallcaps\">D</span>-glucopyranosyloxy)-1-hydroxy-3-methyl-;Glucopyranoside, 8-hydroxy-6-methyl-1-anthraquinonyl, β-<span class=\"text-smallcaps\">D</span>-;Glucopyranoside, 8-hydroxy-6-methyl-1-anthraquinonyl;Anthraquinone, 8-(β-<span class=\"text-smallcaps\">D</span>-glucopyranosyloxy)-1-hydroxy-3-methyl-;8-(β-<span class=\"text-smallcaps\">D</span>-Glucopyranosyloxy)-1-hydroxy-3-methyl-9,10-anthracenedione;Chrysophanol-8-mono-β-<span class=\"text-smallcaps\">D</span>-glucoside;<em>O</em>-β-<span class=\"text-smallcaps\">D</span>-Glucopyranosylchrysophanol;Chrysophanol 8-<em>O</em>-β-<span class=\"text-smallcaps\">D</span>-glucopyranoside;Chrysophanol-8-β-<span class=\"text-smallcaps\">D</span>-glucoside;Pulmatin;Chrysophanol 8-<em>O</em>-glucoside",
    "duplicated_cas_no": "100456-00-6;1213240-01-7",
    "SMILES": "O(C1=C2C(C(=O)C=3C(C2=O)=C(O)C=C(C)C3)=CC=C1)[C@@H]4O[C@H](CO)[C@@H](O)[C@H](O)[C@H]4O",
    "meta_data": {
        "InChI": "InChI=1S/C21H20O9/c1-8-5-10-14(11(23)6-8)18(26)15-9(16(10)24)3-2-4-12(15)29-21-20(28)19(27)17(25)13(7-22)30-21/h2-6,13,17,19-23,25,27-28H,7H2,1H3/t13-,17-,19+,20-,21-/m1/s1",
        "InChIKey": null,
        "Canonical SMILES": "O=C1C=2C=CC=C(OC3OC(CO)C(O)C(O)C3O)C2C(=O)C4=C(O)C=C(C=C14)C",
        "Molecular Formula": "C<sub>21</sub>H<sub>20</sub>O<sub>9</sub>",
        "Molecular Mass": "416.38",
        "Melting Point": "110 °C"
    }
}