{
    "cas_no": "24151-93-7",
    "key_name": "Piperophos",
    "cn_name": "哌草磷;S－2－甲基－哌啶子基羰基甲基O，O－二丙基二硫代磷酸酯;",
    "alternate_name": "Phosphorodithioic acid, <em>S</em>-[2-(2-methyl-1-piperidinyl)-2-oxoethyl] <em>O</em>,<em>O</em>-dipropyl ester;Phosphorodithioic acid, <em>O</em>,<em>O</em>-dipropyl ester, <em>S</em>-ester with 1-(mercaptoacetyl)-2-pipecoline;2-Pipecoline, 1-(mercaptoacetyl)-, <em>S</em>-ester with <em>O</em>,<em>O</em>-dipropyl phosphorodithioate;C 19490;<em>N</em>-(<em>O</em>,<em>O</em>-Dipropyl-dithiophosphorylacetyl)-2-methylpiperidine;<em>S</em>-(2-Methyl-1-piperidylcarbonylmethyl) <em>O</em>,<em>O</em>-dipropyl phosphorodithioate;Piperophos",
    "duplicated_cas_no": "",
    "SMILES": "C(CSP(OCCC)(OCCC)=S)(=O)N1C(C)CCCC1",
    "meta_data": {
        "InChI": "InChI=1S/C14H28NO3PS2/c1-4-10-17-19(20,18-11-5-2)21-12-14(16)15-9-7-6-8-13(15)3/h13H,4-12H2,1-3H3",
        "InChIKey": null,
        "Canonical SMILES": "O=C(N1CCCCC1C)CSP(=S)(OCCC)OCCC",
        "Molecular Formula": "C<sub>14</sub>H<sub>28</sub>NO<sub>3</sub>PS<sub>2</sub>",
        "Molecular Mass": "353.48",
        "Boiling Point": "&gt;250 °C",
        "Melting Point": "&lt;25 °C"
    }
}