{
    "cas_no": "2068-24-8",
    "key_name": "2,2′-[Methylenebis(thio)]bis[acetic acid]",
    "cn_name": "亚甲基双硫代乙酸;",
    "alternate_name": "Acetic acid, 2,2′-[methylenebis(thio)]bis-;Acetic acid, (methylenedithio)di-;2,2′-[Methylenebis(thio)]bis[acetic acid];Methylenedithiodiacetic acid;Methylenebisthioglycolic acid;Methane-1,1-bis(mercaptoacetic acid);NSC 163488;2-(Carboxymethylsulfanylmethylsulfanyl)acetic acid;2-([[(Carboxymethyl)sulfanyl]methyl]sulfanyl)acetic acid",
    "duplicated_cas_no": "",
    "SMILES": "S(CC(O)=O)CSCC(O)=O",
    "meta_data": {
        "InChI": "InChI=1S/C5H8O4S2/c6-4(7)1-10-3-11-2-5(8)9/h1-3H2,(H,6,7)(H,8,9)",
        "InChIKey": null,
        "Canonical SMILES": "O=C(O)CSCSCC(=O)O",
        "Molecular Formula": "C<sub>5</sub>H<sub>8</sub>O<sub>4</sub>S<sub>2</sub>",
        "Molecular Mass": "196.24",
        "Boiling Point": "126-128 °C @ Press: 0.1 Torr",
        "Melting Point": "120-125 °C",
        "Density": "1.57 g/cm³"
    }
}