{
    "cas_no": "557-98-2",
    "key_name": "2-Chloro-1-propene",
    "cn_name": "2-氯丙烯;2-氯丙烯；异丙烯基氯;",
    "alternate_name": "1-Propene, 2-chloro-;Propene, 2-chloro-;2-Chloro-1-propene;2-Chloropropylene;Isopropenyl chloride;β-Chloropropylene;2-Chloropropene;β-Chloropropene;1-Methylvinyl chloride",
    "duplicated_cas_no": "",
    "SMILES": "C(C)(=C)Cl",
    "meta_data": {
        "InChI": "InChI=1S/C3H5Cl/c1-3(2)4/h1H2,2H3",
        "InChIKey": null,
        "Canonical SMILES": "ClC(=C)C",
        "Molecular Formula": "C<sub>3</sub>H<sub>5</sub>Cl",
        "Molecular Mass": "76.52",
        "Boiling Point": "22.6 °C @ Press: 760 Torr",
        "Melting Point": "-137.4 °C",
        "Density": "0.9017 g/cm³ @ Temp: 20 °C"
    }
}