{
    "cas_no": "902837-39-2",
    "key_name": "3-Bromo-5-iodo-4-pyridinamine",
    "cn_name": null,
    "alternate_name": "4-Pyridinamine, 3-bromo-5-iodo-;3-Bromo-5-iodo-4-pyridinamine;3-Bromo-5-iodopyridin-4-amine",
    "duplicated_cas_no": "",
    "SMILES": "NC=1C(Br)=CN=CC1I",
    "meta_data": {
        "InChI": "InChI=1S/C5H4BrIN2/c6-3-1-9-2-4(7)5(3)8/h1-2H,(H2,8,9)",
        "InChIKey": null,
        "Canonical SMILES": "BrC1=CN=CC(I)=C1N",
        "Molecular Formula": "C<sub>5</sub>H<sub>4</sub>BrIN<sub>2</sub>",
        "Molecular Mass": "298.91",
        "Melting Point": "132-134 °C"
    }
}