{
    "cas_no": "58743-76-3",
    "key_name": "3CB",
    "cn_name": "4-丙基-4\"-氰基联苯;",
    "alternate_name": "[1,1′-Biphenyl]-4-carbonitrile, 4′-propyl-;4′-Propyl[1,1′-biphenyl]-4-carbonitrile;4′-Propyl-4-cyanobiphenyl;3CB;CB 3;4-Cyano-4′-propyl-1,1′-biphenyl;4-Cyano-4′-propylbiphenyl",
    "duplicated_cas_no": "",
    "SMILES": "C(CC)C1=CC=C(C=C1)C2=CC=C(C#N)C=C2",
    "meta_data": {
        "InChI": "InChI=1S/C16H15N/c1-2-3-13-4-8-15(9-5-13)16-10-6-14(12-17)7-11-16/h4-11H,2-3H2,1H3",
        "InChIKey": null,
        "Canonical SMILES": "N#CC=1C=CC(=CC1)C2=CC=C(C=C2)CCC",
        "Molecular Formula": "C<sub>16</sub>H<sub>15</sub>N",
        "Molecular Mass": "221.30",
        "Boiling Point": "165-170 °C @ Press: 2 Torr"
    }
}