{
    "cas_no": "102-40-9",
    "key_name": "1,3-Bis(2-hydroxyethoxy)benzene",
    "cn_name": "1,3-双(2-羟乙氧基)苯;间苯二酚二(2-羟乙基)醚;",
    "alternate_name": "Ethanol, 2,2′-[1,3-phenylenebis(oxy)]bis-;Ethanol, 2,2′-(<em>m</em>-phenylenedioxy)di-;2,2′-[1,3-Phenylenebis(oxy)]bis[ethanol];2,2′-(<em>m</em>-Phenylenedioxy)diethanol;<em>m</em>-Bis(2-hydroxyethoxy)benzene;Resorcinol bis(β-hydroxyethyl) ether;1,3-Bis(2-hydroxyethoxy)benzene;Resorcinol bis(2-hydroxyethyl) ether;<em>O</em>,<em>O</em>-Bis(β-hydroxyethyl)resorcinol;HER HP;NSC 65613;RE 2;<em>m</em>-Di(2-hydroxyethoxy)benzene;1,3-Dihydroxybenzene di(2-hydroxyethyl) ether;1,3-Dihydroxybenzene bis(2-hydroxyethyl) ether;2,2′-[1,3-Phenylenebis(oxy)]diethanol;HER;1,3-Di(2-hydroxyethoxy)benzene;2-[3-(2-Hydroxyethoxy)phenoxy]ethanol",
    "duplicated_cas_no": "",
    "SMILES": "O(CCO)C1=CC(OCCO)=CC=C1",
    "meta_data": {
        "InChI": "InChI=1S/C10H14O4/c11-4-6-13-9-2-1-3-10(8-9)14-7-5-12/h1-3,8,11-12H,4-7H2",
        "InChIKey": null,
        "Canonical SMILES": "OCCOC1=CC=CC(OCCO)=C1",
        "Molecular Formula": "C<sub>10</sub>H<sub>14</sub>O<sub>4</sub>",
        "Molecular Mass": "198.22",
        "Melting Point": "95-96 °C"
    }
}