{
    "cas_no": "19037-69-5",
    "key_name": "7-Hydroxy-4-methyl-8-nitrocoumarin",
    "cn_name": "7-羟基-4-甲基-8-硝基香豆素;",
    "alternate_name": "2<em>H</em>-1-Benzopyran-2-one, 7-hydroxy-4-methyl-8-nitro-;Coumarin, 7-hydroxy-4-methyl-8-nitro-;Umbelliferone, 4-methyl-8-nitro-;7-Hydroxy-4-methyl-8-nitro-2<em>H</em>-1-benzopyran-2-one;7-Hydroxy-4-methyl-8-nitrocoumarin;4-Methyl-7-hydroxy-8-nitrocoumarin;4-Hydroxy-4-methyl-8-nitrocoumarin;NSC 382373;7-Hydroxy-8-nitro-4-methyl-2<em>H</em>-chromen-2-one",
    "duplicated_cas_no": "",
    "SMILES": "N(=O)(=O)C1=C2C(C(C)=CC(=O)O2)=CC=C1O",
    "meta_data": {
        "InChI": "InChI=1S/C10H7NO5/c1-5-4-8(13)16-10-6(5)2-3-7(12)9(10)11(14)15/h2-4,12H,1H3",
        "InChIKey": null,
        "Canonical SMILES": "O=C1OC2=C(C=CC(O)=C2N(=O)=O)C(=C1)C",
        "Molecular Formula": "C<sub>10</sub>H<sub>7</sub>NO<sub>5</sub>",
        "Molecular Mass": "221.17",
        "Melting Point": "256 °C"
    }
}