{
    "cas_no": "573-57-9",
    "key_name": "1,4-Dihydro-1,4-epoxynaphthalene",
    "cn_name": "1,4-环氧-1,4-二氢萘;",
    "alternate_name": "1,4-Epoxynaphthalene, 1,4-dihydro-;1,4-Dihydro-1,4-epoxynaphthalene;1,4-Dihydronaphthalene-1,4-<em>endo</em>-oxide;1,4-Epoxy-1,4-dihydronaphthalene;7-Oxabenzonorbornadiene;1,4-Dihydronaphthalene-1,4-oxide;1,4-Dihydronaphthalene-1,4-epoxide;NSC 101863;Benzooxanorbornadiene",
    "duplicated_cas_no": "914300-18-8",
    "SMILES": "C1=2C(C3OC1C=C3)=CC=CC2",
    "meta_data": {
        "InChI": "InChI=1S/C10H8O/c1-2-4-8-7(3-1)9-5-6-10(8)11-9/h1-6,9-10H",
        "InChIKey": null,
        "Canonical SMILES": "O1C2C=CC1C=3C=CC=CC32",
        "Molecular Formula": "C<sub>10</sub>H<sub>8</sub>O",
        "Molecular Mass": "144.17",
        "Boiling Point": "104-105 °C @ Press: 9 Torr",
        "Melting Point": "40 °C"
    }
}