{
    "cas_no": "16452-01-0",
    "key_name": "3-Methoxy-4-methylaniline",
    "cn_name": "3-甲氧基-4-甲基苯胺;",
    "alternate_name": "Benzenamine, 3-methoxy-4-methyl-;<em>m</em>-Anisidine, 4-methyl-;3-Methoxy-4-methylbenzenamine;4-Amino-2-methoxytoluene;2-Methoxy-4-aminotoluene;3-Methoxy-4-methylaniline;3-Methoxy-<em>p</em>-toluidine;4-Methyl-3-methoxyaniline;(3-Methoxy-4-methylphenyl)amine;5-Amino-2-methylanisole;3-Methoxy-4-toluidine",
    "duplicated_cas_no": "",
    "SMILES": "O(C)C1=C(C)C=CC(N)=C1",
    "meta_data": {
        "InChI": "InChI=1S/C8H11NO/c1-6-3-4-7(9)5-8(6)10-2/h3-5H,9H2,1-2H3",
        "InChIKey": null,
        "Canonical SMILES": "O(C1=CC(N)=CC=C1C)C",
        "Molecular Formula": "C<sub>8</sub>H<sub>11</sub>NO",
        "Molecular Mass": "137.18",
        "Boiling Point": "251 °C",
        "Melting Point": "56.5 °C"
    }
}