{
    "cas_no": "180253-66-1",
    "key_name": "(4-Methylpyridin-3-yl)carbamic acid tert-butyl ester",
    "cn_name": null,
    "alternate_name": "Carbamic acid, <em>N</em>-(4-methyl-3-pyridinyl)-, 1,1-dimethylethyl ester;Carbamic acid, (4-methyl-3-pyridinyl)-, 1,1-dimethylethyl ester;<em>tert</em>-Butyl 4-methyl-3-pyridinylcarbamate;(4-Methylpyridin-3-yl)carbamic acid tert-butyl ester",
    "duplicated_cas_no": "",
    "SMILES": "N(C(OC(C)(C)C)=O)C=1C(C)=CC=NC1",
    "meta_data": {
        "InChI": "InChI=1S/C11H16N2O2/c1-8-5-6-12-7-9(8)13-10(14)15-11(2,3)4/h5-7H,1-4H3,(H,13,14)",
        "InChIKey": null,
        "Canonical SMILES": "O=C(OC(C)(C)C)NC=1C=NC=CC1C",
        "Molecular Formula": "C<sub>11</sub>H<sub>16</sub>N<sub>2</sub>O<sub>2</sub>",
        "Molecular Mass": "208.26",
        "Melting Point": "91-93 °C"
    }
}