{
    "cas_no": "1118786-86-9",
    "key_name": "1,1-Dimethylethyl <em>N</em>-(6-oxospiro[3.3]hept-2-yl)carbamate",
    "cn_name": null,
    "alternate_name": "Carbamic acid, <em>N</em>-(6-oxospiro[3.3]hept-2-yl)-, 1,1-dimethylethyl ester;1,1-Dimethylethyl <em>N</em>-(6-oxospiro[3.3]hept-2-yl)carbamate;<em>tert</em>-Butyl (6-oxospiro[3.3]heptan-2-yl)carbamate;2-(Boc-amino)-6-oxospiro[3.3]heptane;2-(<em>tert</em>-Butoxycarbonyl-amino)-6-oxospiro[3.3]heptane",
    "duplicated_cas_no": "",
    "SMILES": "N(C(OC(C)(C)C)=O)C1CC2(C1)CC(=O)C2",
    "meta_data": {
        "InChI": "InChI=1S/C12H19NO3/c1-11(2,3)16-10(15)13-8-4-12(5-8)6-9(14)7-12/h8H,4-7H2,1-3H3,(H,13,15)",
        "InChIKey": null,
        "Canonical SMILES": "O=C(OC(C)(C)C)NC1CC2(CC(=O)C2)C1",
        "Molecular Formula": "C<sub>12</sub>H<sub>19</sub>NO<sub>3</sub>",
        "Molecular Mass": "225.28",
        "Boiling Point": "112 °C @ Press: 1 mmHg",
        "Melting Point": "94 °C"
    }
}