{
    "cas_no": "95-54-5",
    "key_name": "<em>o</em>-Phenylenediamine",
    "cn_name": "1,2-苯二胺;邻苯二胺;1,2-二氨基苯;",
    "alternate_name": "1,2-Benzenediamine;<em>o</em>-Phenylenediamine;C.I. 76010;C.I. Oxidation Base 16;<em>o</em>-Diaminobenzene;Orthamine;1,2-Diaminobenzene;1,2-Phenylenediamine;<em>o</em>-Benzenediamine;2-Aminoaniline;<em>o</em>-Aminoaniline;IK 3 (amine);<em>o</em>-Aminophenylamine;IK 3;NSC 5354;OPDA;o-Phenylenediamine",
    "duplicated_cas_no": "",
    "SMILES": "NC1=C(N)C=CC=C1",
    "meta_data": {
        "InChI": "InChI=1S/C6H8N2/c7-5-3-1-2-4-6(5)8/h1-4H,7-8H2",
        "InChIKey": null,
        "Canonical SMILES": "NC=1C=CC=CC1N",
        "Molecular Formula": "C<sub>6</sub>H<sub>8</sub>N<sub>2</sub>",
        "Molecular Mass": "108.14",
        "Boiling Point": "256-258 °C",
        "Melting Point": "103-104 °C"
    }
}