{
    "cas_no": "510-18-9",
    "key_name": "(3<em>S</em>,4<em>S</em>,5<em>R</em>)-3-Acetyl-5-(acetyloxy)dihydro-3,4-dimethyl-2(3<em>H</em>)-furanone",
    "cn_name": null,
    "alternate_name": "2(3<em>H</em>)-Furanone, 3-acetyl-5-(acetyloxy)dihydro-3,4-dimethyl-, (3<em>S</em>,4<em>S</em>,5<em>R</em>)-;2(3<em>H</em>)-Furanone, 3-acetyl-5-(acetyloxy)dihydro-3,4-dimethyl-, [3<em>S</em>-(3α,4α,5α)]-;Acetomycin;(3<em>S</em>,4<em>S</em>,5<em>R</em>)-3-Acetyl-5-(acetyloxy)dihydro-3,4-dimethyl-2(3<em>H</em>)-furanone;(-)-Acetomycin;NSC 350598",
    "duplicated_cas_no": "",
    "SMILES": "C(C)(=O)[C@]1(C)[C@H](C)[C@H](OC(C)=O)OC1=O",
    "meta_data": {
        "InChI": "InChI=1S/C10H14O5/c1-5-8(14-7(3)12)15-9(13)10(5,4)6(2)11/h5,8H,1-4H3/t5-,8-,10+/m1/s1",
        "InChIKey": null,
        "Canonical SMILES": "O=C(OC1OC(=O)C(C(=O)C)(C)C1C)C",
        "Molecular Formula": "C<sub>10</sub>H<sub>14</sub>O<sub>5</sub>",
        "Molecular Mass": "214.22",
        "Melting Point": "115-116 °C"
    }
}