{
    "cas_no": "123-35-3",
    "key_name": "Myrcene",
    "cn_name": "月桂烯;7-甲基-3-亚甲基-1,6-辛二烯;",
    "alternate_name": "1,6-Octadiene, 7-methyl-3-methylene-;7-Methyl-3-methylene-1,6-octadiene;β-Myrcene;Myrcene;2-Methyl-6-methylene-2,7-octadiene;3-Methylene-7-methyl-1,6-octadiene;β-Geraniolene;NSC 406264;beta-Myrcene",
    "duplicated_cas_no": "2153-31-3",
    "SMILES": "C(CCC=C(C)C)(C=C)=C",
    "meta_data": {
        "InChI": "InChI=1S/C10H16/c1-5-10(4)8-6-7-9(2)3/h5,7H,1,4,6,8H2,2-3H3",
        "InChIKey": null,
        "Canonical SMILES": "C=CC(=C)CCC=C(C)C",
        "Molecular Formula": "C<sub>10</sub>H<sub>16</sub>",
        "Molecular Mass": "136.23",
        "Boiling Point": "167 °C @ Press: 760 Torr",
        "Melting Point": "&lt;-10 °C",
        "Density": "0.794 g/cm³ @ Temp: 20 °C"
    }
}