{
    "cas_no": "55751-54-7",
    "key_name": "2-(1-Methylpropyl)benzenamine",
    "cn_name": "2-(1-甲丙基)苯胺;",
    "alternate_name": "Benzenamine, 2-(1-methylpropyl)-;Aniline, <em>o</em>-<em>sec</em>-butyl-;2-(1-Methylpropyl)benzenamine;2-<em>sec</em>-Butylaniline;<em>o</em>-<em>sec</em>-Butylaniline;(<em>RS</em>)-2-<em>sec</em>-Butylaniline;2-<em>sec</em>-Butylbenzenamine;2-Butan-2-ylaniline;2-(Butan-2-yl)aniline",
    "duplicated_cas_no": "",
    "SMILES": "C(CC)(C)C1=C(N)C=CC=C1",
    "meta_data": {
        "InChI": "InChI=1S/C10H15N/c1-3-8(2)9-6-4-5-7-10(9)11/h4-8H,3,11H2,1-2H3",
        "InChIKey": null,
        "Canonical SMILES": "NC=1C=CC=CC1C(C)CC",
        "Molecular Formula": "C<sub>10</sub>H<sub>15</sub>N",
        "Molecular Mass": "149.23",
        "Boiling Point": "59 °C @ Press: 0.15 Torr"
    }
}