{
    "cas_no": "4664-01-1",
    "key_name": "1<em>H</em>-Pyrrolo[3,4-<em>c</em>]pyridine-1,3(2<em>H</em>)-dione",
    "cn_name": "3,4-吡啶二甲酰亚胺;",
    "alternate_name": "1<em>H</em>-Pyrrolo[3,4-<em>c</em>]pyridine-1,3(2<em>H</em>)-dione;3,4-Pyridinedicarboximide;Cinchomeronimide;3,4-Pyridinecarboxyimide;NSC 524479;Pyrrolo[3,4-<em>c</em>]pyridine-1,3-dione;1<em>H</em>,2<em>H</em>,3<em>H</em>-Pyrrolo[3,4-<em>c</em>]pyridine-1,3-dione",
    "duplicated_cas_no": "",
    "SMILES": "O=C1C=2C(C(=O)N1)=CN=CC2",
    "meta_data": {
        "InChI": "InChI=1S/C7H4N2O2/c10-6-4-1-2-8-3-5(4)7(11)9-6/h1-3H,(H,9,10,11)",
        "InChIKey": null,
        "Canonical SMILES": "O=C1NC(=O)C=2C=CN=CC12",
        "Molecular Formula": "C<sub>7</sub>H<sub>4</sub>N<sub>2</sub>O<sub>2</sub>",
        "Molecular Mass": "148.12",
        "Melting Point": "225-260 °C (decomp)"
    }
}