{
    "cas_no": "697-86-9",
    "key_name": "2-Bromo-4,6-dichloroaniline",
    "cn_name": "基丙烯酸异丁酯;",
    "alternate_name": "Benzenamine, 2-bromo-4,6-dichloro-;Aniline, 2-bromo-4,6-dichloro-;2-Bromo-4,6-dichlorobenzenamine;2,4-Dichloro-6-bromoaniline;6-Bromo-2,4-dichloroaniline;2-Bromo-4,6-dichloroaniline",
    "duplicated_cas_no": "",
    "SMILES": "NC1=C(Br)C=C(Cl)C=C1Cl",
    "meta_data": {
        "InChI": "InChI=1S/C6H4BrCl2N/c7-4-1-3(8)2-5(9)6(4)10/h1-2H,10H2",
        "InChIKey": null,
        "Canonical SMILES": "ClC=1C=C(Cl)C(N)=C(Br)C1",
        "Molecular Formula": "C<sub>6</sub>H<sub>4</sub>BrCl<sub>2</sub>N",
        "Molecular Mass": "240.91",
        "Boiling Point": "273 °C",
        "Melting Point": "83.5 °C"
    }
}