{
    "cas_no": "4707-33-9",
    "key_name": "3,4-Dihydro-2,2-dimethyl-2<em>H</em>-naphtho[2,3-<em>b</em>]pyran-5,10-dione",
    "cn_name": null,
    "alternate_name": "2<em>H</em>-Naphtho[2,3-<em>b</em>]pyran-5,10-dione, 3,4-dihydro-2,2-dimethyl-;3,4-Dihydro-2,2-dimethyl-2<em>H</em>-naphtho[2,3-<em>b</em>]pyran-5,10-dione;α-Lapachone;NSC 26327;NSC 629747;2,2-Dimethyl-3,4-dihydro-2<em>H</em>-benzo[<em>g</em>]chromene-5,10-dione;2,2-Dimethyl-3,4-dihydrobenzo[<em>g</em>]chromene-5,10-dione",
    "duplicated_cas_no": "",
    "SMILES": "O=C1C2=C(C(=O)C=3C1=CC=CC3)CCC(C)(C)O2",
    "meta_data": {
        "InChI": "InChI=1S/C15H14O3/c1-15(2)8-7-11-12(16)9-5-3-4-6-10(9)13(17)14(11)18-15/h3-6H,7-8H2,1-2H3",
        "InChIKey": null,
        "Canonical SMILES": "O=C1C=2OC(C)(C)CCC2C(=O)C=3C=CC=CC13",
        "Molecular Formula": "C<sub>15</sub>H<sub>14</sub>O<sub>3</sub>",
        "Molecular Mass": "242.27",
        "Melting Point": "113-114 °C"
    }
}