{
    "cas_no": "57536-86-4",
    "key_name": "1-(1-Naphthyl)piperazine",
    "cn_name": "1-(1-萘基)对二氮已环;",
    "alternate_name": "Piperazine, 1-(1-naphthalenyl)-;1-(1-Naphthalenyl)piperazine;1-(1-Naphthyl)piperazine;1-α-Naphthylpiperazine;<em>N</em>-(1-Naphthyl)piperazine",
    "duplicated_cas_no": "",
    "SMILES": "C=1(C2=C(C=CC1)C=CC=C2)N3CCNCC3",
    "meta_data": {
        "InChI": "InChI=1S/C14H16N2/c1-2-6-13-12(4-1)5-3-7-14(13)16-10-8-15-9-11-16/h1-7,15H,8-11H2",
        "InChIKey": null,
        "Canonical SMILES": "C=1C=CC2=C(C1)C=CC=C2N3CCNCC3",
        "Molecular Formula": "C<sub>14</sub>H<sub>16</sub>N<sub>2</sub>",
        "Molecular Mass": "212.29",
        "Boiling Point": "144-147 °C @ Press: 1 Torr"
    }
}