{
    "cas_no": "2152-44-5",
    "key_name": "Betamethasone valerate",
    "cn_name": null,
    "alternate_name": "Pregna-1,4-diene-3,20-dione, 9-fluoro-11,21-dihydroxy-16-methyl-17-[(1-oxopentyl)oxy]-, (11β,16β)-;Pregna-1,4-diene-3,20-dione, 9-fluoro-11β,17,21-trihydroxy-16β-methyl-, 17-valerate;Valeric acid, 17-ester with 9-fluoro-11β,17,21-trihydroxy-16β-methylpregna-1,4-diene-3,20-dione;(11β,16β)-9-Fluoro-11,21-dihydroxy-16-methyl-17-[(1-oxopentyl)oxy]pregna-1,4-diene-3,20-dione;Betamethasone 17-valerate;Betnovateat;9α-Fluoro-11β,21-dihydroxy-16β-methyl-17α-valeryloxypregna-1,4-diene-3,20-dione;β-Methasone 17-valerate;Betamethasone valerate;Betnovate;Valisone;Celestoderm;Celestane V;Betamethasone 17α-valerate;Stanoval;Celeston valerate;Rinderon V;Betoid;Bedermin;Beta-Val;Bextasol;Celestan V;Celestoderm V;Betnesol V;Tokuderm;Betneval;Dermosol;Hormezon;Ecoval 70;Dermovaleas;Bettamousse;Fuciderm;9α-Fluoro-16β-methylprednisolone 17-valerate;MeSH ID: D001624",
    "duplicated_cas_no": "12772-60-0;57654-97-4;149665-14-5;944728-94-3",
    "SMILES": "C[C@@]12[C@@](OC(CCCC)=O)(C(CO)=O)[C@@H](C)C[C@]1([C@]3([C@](F)([C@@H](O)C2)[C@]4(C)C(CC3)=CC(=O)C=C4)[H])[H]",
    "meta_data": {
        "InChI": "InChI=1S/C27H37FO6/c1-5-6-7-23(33)34-27(22(32)15-29)16(2)12-20-19-9-8-17-13-18(30)10-11-24(17,3)26(19,28)21(31)14-25(20,27)4/h10-11,13,16,19-21,29,31H,5-9,12,14-15H2,1-4H3/t16-,19-,20-,21-,24-,25-,26-,27-/m0/s1",
        "InChIKey": null,
        "Canonical SMILES": "O=C1C=CC2(C(=C1)CCC3C4CC(C)C(OC(=O)CCCC)(C(=O)CO)C4(C)CC(O)C32F)C",
        "Molecular Formula": "C<sub>27</sub>H<sub>37</sub>FO<sub>6</sub>",
        "Molecular Mass": "476.58",
        "Melting Point": "183-184 °C"
    }
}