{
    "cas_no": "7240-38-2",
    "key_name": "Sodium oxacillin monohydrate",
    "cn_name": "苯唑青霉素钠;苯唑西林钠;(2S,5R,6R)-3,3-二甲基-6-(5-甲基-3-苯基-4-噁唑基甲酰氨基)-7-氧代-4-硫杂-1-氮;",
    "alternate_name": "4-Thia-1-azabicyclo[3.2.0]heptane-2-carboxylic acid, 3,3-dimethyl-6-[[(5-methyl-3-phenyl-4-isoxazolyl)carbonyl]amino]-7-oxo-, sodium salt, hydrate (1:1:1), (2<em>S</em>,5<em>R</em>,6<em>R</em>)-;4-Thia-1-azabicyclo[3.2.0]heptane-2-carboxylic acid, 3,3-dimethyl-6-(5-methyl-3-phenyl-4-isoxazolecarboxamido)-7-oxo-, monosodium salt, monohydrate;4-Thia-1-azabicyclo[3.2.0]heptane-2-carboxylic acid, 3,3-dimethyl-6-[[(5-methyl-3-phenyl-4-isoxazolyl)carbonyl]amino]-7-oxo-, monosodium salt, monohydrate, [2<em>S</em>-(2α,5α,6β)]-;Sodium oxacillin monohydrate;Stapenor sodium;Oxacillin sodium hydrate",
    "duplicated_cas_no": "",
    "SMILES": "C(O)(=O)[C@@H]1N2[C@@]([C@H](NC(=O)C=3C(=NOC3C)C4=CC=CC=C4)C2=O)(SC1(C)C)[H].[Na].O",
    "meta_data": {
        "InChI": "InChI=1S/C19H19N3O5S.Na.H2O/c1-9-11(12(21-27-9)10-7-5-4-6-8-10)15(23)20-13-16(24)22-14(18(25)26)19(2,3)28-17(13)22;;/h4-8,13-14,17H,1-3H3,(H,20,23)(H,25,26);;1H2/t13-,14+,17-;;/m1../s1",
        "InChIKey": null,
        "Canonical SMILES": "[Na].O=C(O)C1N2C(=O)C(NC(=O)C=3C(=NOC3C)C=4C=CC=CC4)C2SC1(C)C.O",
        "Molecular Formula": "C<sub>19</sub>H<sub>19</sub>N<sub>3</sub>O<sub>5</sub>S.H<sub>2</sub>O.Na",
        "Molecular Mass": "",
        "Melting Point": "188 °C (decomp)"
    }
}