{
    "cas_no": "7311-34-4",
    "key_name": "3,5-Dimethoxybenzaldehyde",
    "cn_name": "3,5-二甲氧基苯甲醛;",
    "alternate_name": "Benzaldehyde, 3,5-dimethoxy-;3,5-Dimethoxybenzaldehyde;NSC 62667",
    "duplicated_cas_no": "",
    "SMILES": "C(=O)C1=CC(OC)=CC(OC)=C1",
    "meta_data": {
        "InChI": "InChI=1S/C9H10O3/c1-11-8-3-7(6-10)4-9(5-8)12-2/h3-6H,1-2H3",
        "InChIKey": null,
        "Canonical SMILES": "O=CC=1C=C(OC)C=C(OC)C1",
        "Molecular Formula": "C<sub>9</sub>H<sub>10</sub>O<sub>3</sub>",
        "Molecular Mass": "166.17",
        "Boiling Point": "125-130 °C @ Press: 1-2 Torr",
        "Melting Point": "46.3 °C"
    }
}