{
    "cas_no": "5071-61-4",
    "key_name": "5-Phenyl-1<em>H</em>-pyrazole-3-carboxylic acid",
    "cn_name": null,
    "alternate_name": "1<em>H</em>-Pyrazole-3-carboxylic acid, 5-phenyl-;Pyrazole-3-carboxylic acid, 5-phenyl-;Pyrazole-3(<em>or</em> 5)-carboxylic acid, 5(<em>or</em> 3)-phenyl-;5-Phenyl-1<em>H</em>-pyrazole-3-carboxylic acid;5-Phenylpyrazole-3-carboxylic acid;3-Phenyl-5-carboxypyrazole;3-Phenyl-1<em>H</em>-pyrazole-5-carboxylic acid;3-Phenylpyrazole-5-carboxylic acid;3-Phenyl-1<em>H</em>-pyrazol-2-ium-5-carboxylate",
    "duplicated_cas_no": "1134-49-2;2238858-01-8;2757076-71-2;3018121-52-0",
    "SMILES": "C(O)(=O)C=1C=C(NN1)C2=CC=CC=C2",
    "meta_data": {
        "InChI": "InChI=1S/C10H8N2O2/c13-10(14)9-6-8(11-12-9)7-4-2-1-3-5-7/h1-6H,(H,11,12)(H,13,14)",
        "InChIKey": null,
        "Canonical SMILES": "O=C(O)C1=NNC(=C1)C=2C=CC=CC2",
        "Molecular Formula": "C<sub>10</sub>H<sub>8</sub>N<sub>2</sub>O<sub>2</sub>",
        "Molecular Mass": "188.18",
        "Melting Point": "234-235 °C"
    }
}