{
    "cas_no": "351-50-8",
    "key_name": "<span class=\"text-smallcaps\">D</span>-Histidine",
    "cn_name": "D-组氨酸;D-2-氨基-3-(4-咪唑基)丙酸;",
    "alternate_name": "<span class=\"text-smallcaps\">D</span>-Histidine;Histidine, <span class=\"text-smallcaps\">D</span>-;(<em>R</em>)-Histidine;(<em>R</em>)-2-Amino-3-(1<em>H</em>-imidazol-4-yl)propanoic acid;(2R)-2-Azaniumyl-3-(1<em>H</em>-imidazol-5-yl)propanoate;(2R)-2-Amino-3-(1<em>H</em>-imidazol-4-yl)propanoic acid;(R)-2-Amino-3-(1<em>H</em>-imidazol-4-yl)propanoic acid",
    "duplicated_cas_no": "",
    "SMILES": "C([C@H](C(O)=O)N)C1=CN=CN1",
    "meta_data": {
        "InChI": "InChI=1S/C6H9N3O2/c7-5(6(10)11)1-4-2-8-3-9-4/h2-3,5H,1,7H2,(H,8,9)(H,10,11)/t5-/m1/s1",
        "InChIKey": null,
        "Canonical SMILES": "O=C(O)C(N)CC1=CN=CN1",
        "Molecular Formula": "C<sub>6</sub>H<sub>9</sub>N<sub>3</sub>O<sub>2</sub>",
        "Molecular Mass": "155.15",
        "Melting Point": "287-288 °C (decomp)"
    }
}