{
    "cas_no": "3466-32-8",
    "key_name": "4-Bromophenyl methyl sulfone",
    "cn_name": "4-溴苯甲砜;",
    "alternate_name": "Benzene, 1-bromo-4-(methylsulfonyl)-;Sulfone, <em>p</em>-bromophenyl methyl;1-Bromo-4-(methylsulfonyl)benzene;<em>p</em>-Bromophenyl methyl sulfone;Methyl 4-bromophenyl sulfone;4-Bromophenyl methyl sulfone;<em>p</em>-Bromo(methylsulfonyl)benzene;Methyl <em>p</em>-bromophenyl sulfone;[(4-Bromophenyl)sulfonyl]methane;(4-Bromophenylsulfonyl)methane;4-(Methanesulfonyl)bromobenzene;NSC 174742;4-Bromo-1-(methylsulfonyl)benzene;1-Bromo-4-(methanesulfonyl)benzene;4-(Methylsulfonyl)bromobenzene;4-Methylsulfonylphenyl bromide;1-Bromo-4-mesylbenzene",
    "duplicated_cas_no": "",
    "SMILES": "S(C)(=O)(=O)C1=CC=C(Br)C=C1",
    "meta_data": {
        "InChI": "InChI=1S/C7H7BrO2S/c1-11(9,10)7-4-2-6(8)3-5-7/h2-5H,1H3",
        "InChIKey": null,
        "Canonical SMILES": "O=S(=O)(C1=CC=C(Br)C=C1)C",
        "Molecular Formula": "C<sub>7</sub>H<sub>7</sub>BrO<sub>2</sub>S",
        "Molecular Mass": "235.10",
        "Melting Point": "102.5-103.0 °C"
    }
}