{
    "cas_no": "14914-99-9",
    "key_name": "Cholesteryl dihydrocinnamate",
    "cn_name": "胆固醇氢化肉桂酸盐;",
    "alternate_name": "Cholest-5-en-3-ol (3β)-, 3-benzenepropanoate;Cholesterol, hydrocinnamate;Cholest-5-en-3-ol (3β)-, benzenepropanoate;Hydrocinnamic acid, cholesteryl ester;Cholesteryl hydrocinnamate;Cholesteryl 3-phenylpropionate;Cholesteryl dihydrocinnamate",
    "duplicated_cas_no": "55102-86-8",
    "SMILES": "C[C@@]12[C@@]3([C@]([C@]4([C@](C)(CC3)[C@@]([C@@H](CCCC(C)C)C)(CC4)[H])[H])(CC=C1C[C@@H](OC(CCC5=CC=CC=C5)=O)CC2)[H])[H]",
    "meta_data": {
        "InChI": "InChI=1S/C36H54O2/c1-25(2)10-9-11-26(3)31-17-18-32-30-16-15-28-24-29(38-34(37)19-14-27-12-7-6-8-13-27)20-22-35(28,4)33(30)21-23-36(31,32)5/h6-8,12-13,15,25-26,29-33H,9-11,14,16-24H2,1-5H3/t26-,29+,30+,31-,32+,33+,35+,36-/m1/s1",
        "InChIKey": null,
        "Canonical SMILES": "O=C(OC1CC2=CCC3C(CCC4(C)C(CCC34)C(C)CCCC(C)C)C2(C)CC1)CCC=5C=CC=CC5",
        "Molecular Formula": "C<sub>36</sub>H<sub>54</sub>O<sub>2</sub>",
        "Molecular Mass": "518.81",
        "Melting Point": "99-100 °C"
    }
}