{
    "cas_no": "3142-72-1",
    "key_name": "2-Methyl-2-pentenoic acid",
    "cn_name": "2-甲基-2-戊烯酸;反式-2-甲基-2-戊烯酸;草莓酸;",
    "alternate_name": "2-Pentenoic acid, 2-methyl-;2-Methyl-2-pentenoic acid;strawberry acid",
    "duplicated_cas_no": "",
    "SMILES": "C(=CCC)(C(O)=O)C",
    "meta_data": {
        "InChI": "InChI=1S/C6H10O2/c1-3-4-5(2)6(7)8/h4H,3H2,1-2H3,(H,7,8)",
        "InChIKey": null,
        "Canonical SMILES": "O=C(O)C(=CCC)C",
        "Molecular Formula": "C<sub>6</sub>H<sub>10</sub>O<sub>2</sub>",
        "Molecular Mass": "114.14",
        "Boiling Point": "101 °C @ Press: 9 Torr",
        "Melting Point": "21 °C",
        "Density": "0.9829 g/cm³"
    }
}