{
    "cas_no": "5153-40-2",
    "key_name": "1-Bromo-2,3,4,5,6-pentamethylbenzene",
    "cn_name": "溴五甲基苯;",
    "alternate_name": "Benzene, 1-bromo-2,3,4,5,6-pentamethyl-;Benzene, bromopentamethyl-;1-Bromo-2,3,4,5,6-pentamethylbenzene;Bromopentamethylbenzene;2,3,4,5,6-Pentamethylbromobenzene;NSC 340;Pentamethylbromobenzene",
    "duplicated_cas_no": "",
    "SMILES": "BrC1=C(C)C(C)=C(C)C(C)=C1C",
    "meta_data": {
        "InChI": "InChI=1S/C11H15Br/c1-6-7(2)9(4)11(12)10(5)8(6)3/h1-5H3",
        "InChIKey": null,
        "Canonical SMILES": "BrC=1C(=C(C(=C(C1C)C)C)C)C",
        "Molecular Formula": "C<sub>11</sub>H<sub>15</sub>Br",
        "Molecular Mass": "227.14",
        "Melting Point": "160.5 °C"
    }
}