{
    "cas_no": "219543-09-6",
    "key_name": "Piperidinium, 4-(acetylamino)-2,2,6,6-tetramethyl-1-oxo-, tetrafluoroborate(1-) (1:1)",
    "cn_name": "4-乙酰氨基-2,2,6,6-四甲基-1-氧杂哌啶四氟硼酸盐;",
    "alternate_name": "Piperidinium, 4-(acetylamino)-2,2,6,6-tetramethyl-1-oxo-, tetrafluoroborate(1-) (1:1);Piperidinium, 4-(acetylamino)-2,2,6,6-tetramethyl-1-oxo-, tetrafluoroborate(1-);Bobbitt's salt;4-Acetamido-2,2,6,6-tetramethyl-1-oxopiperidinium tetrafluoroborate",
    "duplicated_cas_no": "",
    "SMILES": "N(C(C)=O)C1CC(C)(C)[N+](=O)C(C)(C)C1.[B+3]([F-])([F-])([F-])[F-]",
    "meta_data": {
        "InChI": "InChI=1S/C11H20N2O2.BF4/c1-8(14)12-9-6-10(2,3)13(15)11(4,5)7-9;2-1(3,4)5/h9H,6-7H2,1-5H3;/q;-1/p+1",
        "InChIKey": null,
        "Canonical SMILES": "O=C(NC1CC([N+](=O)C(C)(C)C1)(C)C)C.[F-][B+3]([F-])([F-])[F-]",
        "Molecular Formula": "C<sub>11</sub>H<sub>21</sub>N<sub>2</sub>O<sub>2</sub>.BF<sub>4</sub>",
        "Molecular Mass": "",
        "Melting Point": "194-197 °C (decomp)"
    }
}