{
    "cas_no": "1617-49-8",
    "key_name": "3,3′,4-Tri-<em>O</em>-methylellagic acid",
    "cn_name": null,
    "alternate_name": "[1]Benzopyrano[5,4,3-<em>cde</em>][1]benzopyran-5,10-dione, 2-hydroxy-3,7,8-trimethoxy-;Diphenic acid, 4,6,6′-trihydroxy-4′,5,5′-trimethoxy-, di-δ-lactone;2-Hydroxy-3,7,8-trimethoxy[1]benzopyrano[5,4,3-<em>cde</em>][1]benzopyran-5,10-dione;3,3′,4-Tri-<em>O</em>-methylellagic acid;3,4,3′-Tri-<em>O</em>-methylellagic acid;Ellagic acid 3,3′,4-trimethyl ether;NSC 333299;3,3′,4′-Trimethoxyellagic acid",
    "duplicated_cas_no": "124590-38-1;729612-18-4",
    "SMILES": "O(C)C=1C2=C3C4=C(C(OC)=C(O)C=C4C(=O)O2)OC(=O)C3=CC1OC",
    "meta_data": {
        "InChI": "InChI=1S/C17H12O8/c1-21-9-5-7-11-10-6(16(19)25-15(11)13(9)23-3)4-8(18)12(22-2)14(10)24-17(7)20/h4-5,18H,1-3H3",
        "InChIKey": null,
        "Canonical SMILES": "O=C1OC=2C(OC)=C(OC)C=C3C(=O)OC4=C(OC)C(O)=CC1=C4C23",
        "Molecular Formula": "C<sub>17</sub>H<sub>12</sub>O<sub>8</sub>",
        "Molecular Mass": "344.27",
        "Melting Point": "289-291 °C"
    }
}