{
    "cas_no": "41877-24-1",
    "key_name": "1-(5-Bromo-2-nitrophenyl)ethanone",
    "cn_name": null,
    "alternate_name": "Ethanone, 1-(5-bromo-2-nitrophenyl)-;1-(5-Bromo-2-nitrophenyl)ethanone;(5-Bromo-2-nitrophenyl)ethanone;1-(5-Bromo-2-nitrophenyl)ethan-1-one;5′-Bromo-2′-nitroacetophenone",
    "duplicated_cas_no": "",
    "SMILES": "N(=O)(=O)C1=C(C(C)=O)C=C(Br)C=C1",
    "meta_data": {
        "InChI": "InChI=1S/C8H6BrNO3/c1-5(11)7-4-6(9)2-3-8(7)10(12)13/h2-4H,1H3",
        "InChIKey": null,
        "Canonical SMILES": "O=C(C1=CC(Br)=CC=C1N(=O)=O)C",
        "Molecular Formula": "C<sub>8</sub>H<sub>6</sub>BrNO<sub>3</sub>",
        "Molecular Mass": "244.04",
        "Melting Point": "92-94 °C"
    }
}