{
    "cas_no": "37033-94-6",
    "key_name": "Ethyl 5-ethyl-1<em>H</em>-indole-2-carboxylate",
    "cn_name": "2-乙酸基-5-乙基吲哚;",
    "alternate_name": "1<em>H</em>-Indole-2-carboxylic acid, 5-ethyl-, ethyl ester;Ethyl 5-ethyl-1<em>H</em>-indole-2-carboxylate;NSC 111163",
    "duplicated_cas_no": "",
    "SMILES": "C(OCC)(=O)C1=CC=2C(N1)=CC=C(CC)C2",
    "meta_data": {
        "InChI": "InChI=1S/C13H15NO2/c1-3-9-5-6-11-10(7-9)8-12(14-11)13(15)16-4-2/h5-8,14H,3-4H2,1-2H3",
        "InChIKey": null,
        "Canonical SMILES": "O=C(OCC)C1=CC=2C=C(C=CC2N1)CC",
        "Molecular Formula": "C<sub>13</sub>H<sub>15</sub>NO<sub>2</sub>",
        "Molecular Mass": "217.26",
        "Boiling Point": "155.7 °C @ Press: 0.4 Torr",
        "Melting Point": "103 °C"
    }
}