{
    "cas_no": "23244-88-4",
    "key_name": "1<em>H</em>-Indazol-6-ol",
    "cn_name": "6-羟基吲唑;6-羟基-1H-吲唑;",
    "alternate_name": "1<em>H</em>-Indazol-6-ol;6-Hydroxyindazole;NSC 92744;Indazol-6-ol;6-Hydroxy-1<em>H</em>-indazole;2<em>H</em>-Indazol-6-ol",
    "duplicated_cas_no": "",
    "SMILES": "OC=1C=C2C(=CC1)C=NN2",
    "meta_data": {
        "InChI": "InChI=1S/C7H6N2O/c10-6-2-1-5-4-8-9-7(5)3-6/h1-4,10H,(H,8,9)",
        "InChIKey": null,
        "Canonical SMILES": "OC=1C=CC=2C=NNC2C1",
        "Molecular Formula": "C<sub>7</sub>H<sub>6</sub>N<sub>2</sub>O",
        "Molecular Mass": "134.14",
        "Melting Point": "215 °C"
    }
}