{
    "cas_no": "3561-81-7",
    "key_name": "1,5-Dihydroxy-3-methoxyxanthone",
    "cn_name": null,
    "alternate_name": "9<em>H</em>-Xanthen-9-one, 1,5-dihydroxy-3-methoxy-;Xanthen-9-one, 1,5-dihydroxy-3-methoxy-;1,5-Dihydroxy-3-methoxy-9<em>H</em>-xanthen-9-one;Mesuaxanthone A;1,5-Dihydroxy-3-methoxyxanthone;1,5-Hydroxy-3-methoxyxanthone",
    "duplicated_cas_no": "",
    "SMILES": "O=C1C=2C(OC=3C1=CC=CC3O)=CC(OC)=CC2O",
    "meta_data": {
        "InChI": "InChI=1S/C14H10O5/c1-18-7-5-10(16)12-11(6-7)19-14-8(13(12)17)3-2-4-9(14)15/h2-6,15-16H,1H3",
        "InChIKey": null,
        "Canonical SMILES": "O=C1C=2C=CC=C(O)C2OC3=CC(OC)=CC(O)=C13",
        "Molecular Formula": "C<sub>14</sub>H<sub>10</sub>O<sub>5</sub>",
        "Molecular Mass": "258.23",
        "Melting Point": "274-275 °C"
    }
}