{
    "cas_no": "89260-46-8",
    "key_name": "3-(1<em>H</em>-Pyrazol-3-yl)benzenamine",
    "cn_name": null,
    "alternate_name": "Benzenamine, 3-(1<em>H</em>-pyrazol-3-yl)-;3-(1<em>H</em>-Pyrazol-3-yl)benzenamine;3-(3-Aminophenyl)pyrazole;3-(3-Aminophenyl)-1<em>H</em>-pyrazole;3-(1<em>H</em>-Pyrazol-3-yl)aniline",
    "duplicated_cas_no": "",
    "SMILES": "NC=1C=C(C=CC1)C=2C=CNN2",
    "meta_data": {
        "InChI": "InChI=1S/C9H9N3/c10-8-3-1-2-7(6-8)9-4-5-11-12-9/h1-6H,10H2,(H,11,12)",
        "InChIKey": null,
        "Canonical SMILES": "N=1NC=CC1C=2C=CC=C(N)C2",
        "Molecular Formula": "C<sub>9</sub>H<sub>9</sub>N<sub>3</sub>",
        "Molecular Mass": "159.19",
        "Melting Point": "115-117 °C"
    }
}