{
    "cas_no": "582-73-0",
    "key_name": "4,4,4-Trifluoro-1-(3-pyridinyl)-1,3-butanedione",
    "cn_name": "4,4,4-三氟-1-(吡啶-3-基)-1,3-丁二酮;",
    "alternate_name": "1,3-Butanedione, 4,4,4-trifluoro-1-(3-pyridinyl)-;1,3-Butanedione, 4,4,4-trifluoro-1-(3-pyridyl)-;4,4,4-Trifluoro-1-(3-pyridinyl)-1,3-butanedione;4,4,4-Trifluoro-1-(3-pyridyl)-1,3-butanedione;NSC 42763;4,4,4-Trifluoro-1-(pyridin-3-yl)butan-1,3-dione",
    "duplicated_cas_no": "",
    "SMILES": "C(CC(C(F)(F)F)=O)(=O)C=1C=CC=NC1",
    "meta_data": {
        "InChI": "InChI=1S/C9H6F3NO2/c10-9(11,12)8(15)4-7(14)6-2-1-3-13-5-6/h1-3,5H,4H2",
        "InChIKey": null,
        "Canonical SMILES": "O=C(C=1C=NC=CC1)CC(=O)C(F)(F)F",
        "Molecular Formula": "C<sub>9</sub>H<sub>6</sub>F<sub>3</sub>NO<sub>2</sub>",
        "Molecular Mass": "217.14",
        "Melting Point": "173.5-174 °C"
    }
}