{
    "cas_no": "258506-68-2",
    "key_name": "3-Chloro-6-(trifluoromethyl)pyridazine",
    "cn_name": "3-氯-6-三氟甲基哒嗪;",
    "alternate_name": "Pyridazine, 3-chloro-6-(trifluoromethyl)-;3-Chloro-6-(trifluoromethyl)pyridazine",
    "duplicated_cas_no": "",
    "SMILES": "C(F)(F)(F)C1=CC=C(Cl)N=N1",
    "meta_data": {
        "InChI": "InChI=1S/C5H2ClF3N2/c6-4-2-1-3(10-11-4)5(7,8)9/h1-2H",
        "InChIKey": null,
        "Canonical SMILES": "FC(F)(F)C1=NN=C(Cl)C=C1",
        "Molecular Formula": "C<sub>5</sub>H<sub>2</sub>ClF<sub>3</sub>N<sub>2</sub>",
        "Molecular Mass": "182.53",
        "Melting Point": "92-96 °C"
    }
}