{
    "cas_no": "877-43-0",
    "key_name": "2,6-Dimethylquinoline",
    "cn_name": "2,6-二甲基喹啉;6-甲基喹哪啶;2,6-二甲喹啉;",
    "alternate_name": "Quinoline, 2,6-dimethyl-;2,6-Dimethylquinoline;6-Methylquinaldine;<em>p</em>-Toluquinaldine;NSC 1782",
    "duplicated_cas_no": "",
    "SMILES": "CC1=CC2=C(N=C(C)C=C2)C=C1",
    "meta_data": {
        "InChI": "InChI=1S/C11H11N/c1-8-3-6-11-10(7-8)5-4-9(2)12-11/h3-7H,1-2H3",
        "InChIKey": null,
        "Canonical SMILES": "N=1C=2C=CC(=CC2C=CC1C)C",
        "Molecular Formula": "C<sub>11</sub>H<sub>11</sub>N",
        "Molecular Mass": "157.21",
        "Boiling Point": "266.5 °C",
        "Melting Point": "60 °C",
        "Density": "0.8940 g/cm³ @ Temp: 199.96 °C"
    }
}