{
    "cas_no": "21397-11-5",
    "key_name": "2-Fluoro-3-nitrobenzenamine",
    "cn_name": null,
    "alternate_name": "Benzenamine, 2-fluoro-3-nitro-;Aniline, 2-fluoro-3-nitro-;2-Fluoro-3-nitrobenzenamine;2-Fluoro-3-nitroaniline",
    "duplicated_cas_no": "",
    "SMILES": "N(=O)(=O)C1=C(F)C(N)=CC=C1",
    "meta_data": {
        "InChI": "InChI=1S/C6H5FN2O2/c7-6-4(8)2-1-3-5(6)9(10)11/h1-3H,8H2",
        "InChIKey": null,
        "Canonical SMILES": "O=N(=O)C=1C=CC=C(N)C1F",
        "Molecular Formula": "C<sub>6</sub>H<sub>5</sub>FN<sub>2</sub>O<sub>2</sub>",
        "Molecular Mass": "156.11",
        "Melting Point": "114-115 °C"
    }
}