{
    "cas_no": "1211-29-6",
    "key_name": "(-)-Methyl jasmonate",
    "cn_name": "反-3-氧代-2-(顺-2-戊烯基)-环戊乙酸甲酯;",
    "alternate_name": "Cyclopentaneacetic acid, 3-oxo-2-(2<em>Z</em>)-2-penten-1-yl-, methyl ester, (1<em>R</em>,2<em>R</em>)-;Cyclopentaneacetic acid, 3-oxo-2-(2-pentenyl)-, methyl ester, (<em>Z</em>)-<em>trans</em>-;Cyclopentaneacetic acid, 3-oxo-2-(2-pentenyl)-, methyl ester, [1<em>R</em>-[1α,2β(<em>Z</em>)]]-;Cyclopentaneacetic acid, 3-oxo-2-(2<em>Z</em>)-2-pentenyl-, methyl ester, (1<em>R</em>,2<em>R</em>)-;Methyl jasmonate;Methyl <em>cis</em>-jasmonate;(-)-Methyl jasmonate;Jasmonic acid methyl ester;(-)-Jasmonic acid methyl ester;(3<em>R</em>,7<em>R</em>)-Methyl jasmonate;Methyl jasmonic acid;(<em>Z</em>)-Methyl jasmonate;(1<em>R</em>,2<em>R</em>)-Jasmonic acid methyl ester;Methyl 2-((1<em>R</em>,2<em>R</em>)-3-oxo-2-((<em>Z</em>)-pent-2-en-1-yl)cyclopentyl)acetate",
    "duplicated_cas_no": "17627-54-2;42536-40-3;54595-01-6",
    "SMILES": "C(C(OC)=O)[C@@H]1[C@@H](C/C=C\\CC)C(=O)CC1",
    "meta_data": {
        "InChI": "InChI=1S/C13H20O3/c1-3-4-5-6-11-10(7-8-12(11)14)9-13(15)16-2/h4-5,10-11H,3,6-9H2,1-2H3/b5-4-/t10-,11-/m1/s1",
        "InChIKey": null,
        "Canonical SMILES": "O=C(OC)CC1CCC(=O)C1CC=CCC",
        "Molecular Formula": "C<sub>13</sub>H<sub>20</sub>O<sub>3</sub>",
        "Molecular Mass": "224.30",
        "Boiling Point": "93 °C @ Press: 0.02 Torr",
        "Density": "1.021 g/cm³ @ Temp: 22.6 °C"
    }
}