{
    "cas_no": "13323-45-0",
    "key_name": "3-Methyl-3,9-diazaspiro[5.5]undecane",
    "cn_name": null,
    "alternate_name": "3,9-Diazaspiro[5.5]undecane, 3-methyl-;3-Methyl-3,9-diazaspiro[5.5]undecane",
    "duplicated_cas_no": "",
    "SMILES": "CN1CCC2(CC1)CCNCC2",
    "meta_data": {
        "InChI": "InChI=1S/C10H20N2/c1-12-8-4-10(5-9-12)2-6-11-7-3-10/h11H,2-9H2,1H3",
        "InChIKey": null,
        "Canonical SMILES": "N1CCC2(CC1)CCN(C)CC2",
        "Molecular Formula": "C<sub>10</sub>H<sub>20</sub>N<sub>2</sub>",
        "Molecular Mass": "168.28",
        "Melting Point": "128-130 °C"
    }
}