{
    "cas_no": "20279-16-7",
    "key_name": "3-Dibenzofuranol",
    "cn_name": null,
    "alternate_name": "3-Dibenzofuranol;2-Hydroxydiphenylene oxide;3-Hydroxydibenzofuran;Dibenzo[<em>b</em>,<em>d</em>]furan-3-ol",
    "duplicated_cas_no": "",
    "SMILES": "OC=1C=C2C(C=3C(O2)=CC=CC3)=CC1",
    "meta_data": {
        "InChI": "InChI=1S/C12H8O2/c13-8-5-6-10-9-3-1-2-4-11(9)14-12(10)7-8/h1-7,13H",
        "InChIKey": null,
        "Canonical SMILES": "OC=1C=CC2=C(OC=3C=CC=CC32)C1",
        "Molecular Formula": "C<sub>12</sub>H<sub>8</sub>O<sub>2</sub>",
        "Molecular Mass": "184.19",
        "Melting Point": "136 °C"
    }
}