{
    "cas_no": "36377-59-0",
    "key_name": "4-Ethoxy-3-methoxybenzeneethanamine",
    "cn_name": null,
    "alternate_name": "Benzeneethanamine, 4-ethoxy-3-methoxy-;Phenethylamine, 4-ethoxy-3-methoxy-;4-Ethoxy-3-methoxybenzeneethanamine;4-Ethoxy-3-methoxyphenethylamine;3-Methoxy-4-ethoxyphenethylamine;2-(4-Ethoxy-3-methoxyphenyl)ethanamine;2-(4-Ethoxy-3-methoxyphenyl)ethylamine;2-(4-Ethoxy-3-methoxyphenyl)ethan-1-amine",
    "duplicated_cas_no": "",
    "SMILES": "O(C)C1=C(OCC)C=CC(CCN)=C1",
    "meta_data": {
        "InChI": "InChI=1S/C11H17NO2/c1-3-14-10-5-4-9(6-7-12)8-11(10)13-2/h4-5,8H,3,6-7,12H2,1-2H3",
        "InChIKey": null,
        "Canonical SMILES": "O(C1=CC(=CC=C1OCC)CCN)C",
        "Molecular Formula": "C<sub>11</sub>H<sub>17</sub>NO<sub>2</sub>",
        "Molecular Mass": "195.26",
        "Boiling Point": "160 °C @ Press: 13 Torr",
        "Density": "1.0661 g/cm³ @ Temp: 25 °C"
    }
}