{
    "cas_no": "182344-23-6",
    "key_name": "<em>B</em>-[4-Fluoro-3-(trifluoromethyl)phenyl]boronic acid",
    "cn_name": "4-氟-3-(三氟甲基)苯基硼酸;",
    "alternate_name": "Boronic acid, <em>B</em>-[4-fluoro-3-(trifluoromethyl)phenyl]-;Boronic acid, [4-fluoro-3-(trifluoromethyl)phenyl]-;<em>B</em>-[4-Fluoro-3-(trifluoromethyl)phenyl]boronic acid;[4-Fluoro-3-(trifluoromethyl)phenyl]boronic acid;3-(Trifluoromethyl)-4-fluorophenylboronic acid;4-fluoro-3-(trifluoromethyl)benzeneboronic acid",
    "duplicated_cas_no": "",
    "SMILES": "C(F)(F)(F)C1=CC(B(O)O)=CC=C1F",
    "meta_data": {
        "InChI": "InChI=1S/C7H5BF4O2/c9-6-2-1-4(8(13)14)3-5(6)7(10,11)12/h1-3,13-14H",
        "InChIKey": null,
        "Canonical SMILES": "FC1=CC=C(C=C1C(F)(F)F)B(O)O",
        "Molecular Formula": "C<sub>7</sub>H<sub>5</sub>BF<sub>4</sub>O<sub>2</sub>",
        "Molecular Mass": "207.92",
        "Melting Point": "267-269 °C",
        "Density": "1.503 g/cm³"
    }
}