{
    "cas_no": "55011-89-7",
    "key_name": "3-Buten-2-amine, <em>N</em>,<em>N</em>-dimethyl-4,4-diphenyl-, hydrochloride",
    "cn_name": null,
    "alternate_name": "3-Buten-2-amine, <em>N</em>,<em>N</em>-dimethyl-4,4-diphenyl-, hydrochloride;Allylamine, <em>N</em>,<em>N</em>,1-trimethyl-3,3-diphenyl-, hydrochloride;A 29 (pharmaceutical);A 29",
    "duplicated_cas_no": "",
    "SMILES": "C(=CC(N(C)C)C)(C1=CC=CC=C1)C2=CC=CC=C2.Cl",
    "meta_data": {
        "InChI": "InChI=1S/C18H21N.ClH/c1-15(19(2)3)14-18(16-10-6-4-7-11-16)17-12-8-5-9-13-17;/h4-15H,1-3H3;1H",
        "InChIKey": null,
        "Canonical SMILES": "Cl.C=1C=CC(=CC1)C(=CC(N(C)C)C)C=2C=CC=CC2",
        "Molecular Formula": "C<sub>18</sub>H<sub>21</sub>N.ClH",
        "Molecular Mass": "",
        "Melting Point": "160-161 °C"
    }
}