{
    "cas_no": "5900-58-3",
    "key_name": "Methyl 2-amino-4-chlorobenzoate",
    "cn_name": "2-氨基-4-氯苯甲酸甲酯;",
    "alternate_name": "Benzoic acid, 2-amino-4-chloro-, methyl ester;Anthranilic acid, 4-chloro-, methyl ester;Methyl 4-chloroanthranilate;Methyl 2-amino-4-chlorobenzoate;4-Chloroanthranilic acid methyl ester;2-Methoxycarbonyl-5-chloroaniline;2-Amino-4-chlorobenzoic acid methyl ester;NSC 400871;Methyl 4-chloro-2-aminobenzoate",
    "duplicated_cas_no": "",
    "SMILES": "C(OC)(=O)C1=C(N)C=C(Cl)C=C1",
    "meta_data": {
        "InChI": "InChI=1S/C8H8ClNO2/c1-12-8(11)6-3-2-5(9)4-7(6)10/h2-4H,10H2,1H3",
        "InChIKey": null,
        "Canonical SMILES": "O=C(OC)C1=CC=C(Cl)C=C1N",
        "Molecular Formula": "C<sub>8</sub>H<sub>8</sub>ClNO<sub>2</sub>",
        "Molecular Mass": "185.61",
        "Melting Point": "65-66 °C"
    }
}