{
    "cas_no": "827-19-0",
    "key_name": "Benzenesulfonic acid, 2,5-dimethyl-, sodium salt (1:1)",
    "cn_name": "2,5-二甲基苯磺酸钠盐;",
    "alternate_name": "Benzenesulfonic acid, 2,5-dimethyl-, sodium salt (1:1);Benzenesulfonic acid, 2,5-dimethyl-, sodium salt;2,5-Xylenesulfonic acid, sodium salt;Sodium 2,5-dimethylbenzenesulfonate;Sodium <em>p</em>-xylenesulfonate;Sodium <em>p</em>-xylene-2-sulfonate",
    "duplicated_cas_no": "108638-78-4",
    "SMILES": "S(=O)(=O)(O)C1=C(C)C=CC(C)=C1.[Na]",
    "meta_data": {
        "InChI": "InChI=1S/C8H10O3S.Na/c1-6-3-4-7(2)8(5-6)12(9,10)11;/h3-5H,1-2H3,(H,9,10,11);",
        "InChIKey": null,
        "Canonical SMILES": "[Na].O=S(=O)(O)C1=CC(=CC=C1C)C",
        "Molecular Formula": "C<sub>8</sub>H<sub>10</sub>O<sub>3</sub>S.Na",
        "Molecular Mass": "",
        "Melting Point": "&gt;250 °C"
    }
}