{
    "cas_no": "633-99-8",
    "key_name": "1-Chloro-2-naphthalenol",
    "cn_name": null,
    "alternate_name": "2-Naphthalenol, 1-chloro-;2-Naphthol, 1-chloro-;1-Chloro-2-naphthalenol;1-Chloro-β-naphthol;1-Chloro-2-hydroxynaphthalene;α-Chloro-β-naphthol;1-Chloro-2-naphthol;NSC 37026;1-Chloronaphthalen-2-ol",
    "duplicated_cas_no": "",
    "SMILES": "ClC=1C2=C(C=CC1O)C=CC=C2",
    "meta_data": {
        "InChI": "InChI=1S/C10H7ClO/c11-10-8-4-2-1-3-7(8)5-6-9(10)12/h1-6,12H",
        "InChIKey": null,
        "Canonical SMILES": "ClC1=C(O)C=CC=2C=CC=CC21",
        "Molecular Formula": "C<sub>10</sub>H<sub>7</sub>ClO",
        "Molecular Mass": "178.62",
        "Melting Point": "68-69 °C"
    }
}