{
    "cas_no": "32111-34-5",
    "key_name": "4-(2-Pyridinyl)benzonitrile",
    "cn_name": "4-(2-吡啶基)苯腈;",
    "alternate_name": "Benzonitrile, 4-(2-pyridinyl)-;Benzonitrile, <em>p</em>-2-pyridyl-;4-(2-Pyridinyl)benzonitrile;4-(2-Pyridyl)benzonitrile",
    "duplicated_cas_no": "",
    "SMILES": "C(#N)C1=CC=C(C=C1)C2=CC=CC=N2",
    "meta_data": {
        "InChI": "InChI=1S/C12H8N2/c13-9-10-4-6-11(7-5-10)12-3-1-2-8-14-12/h1-8H",
        "InChIKey": null,
        "Canonical SMILES": "N#CC=1C=CC(=CC1)C2=NC=CC=C2",
        "Molecular Formula": "C<sub>12</sub>H<sub>8</sub>N<sub>2</sub>",
        "Molecular Mass": "180.21",
        "Melting Point": "91-92 °C"
    }
}