{
    "cas_no": "1090-78-4",
    "key_name": "<em>N</em>,<em>N</em>-Dimethyl-10<em>H</em>-phenothiazine-2-sulfonamide",
    "cn_name": null,
    "alternate_name": "10<em>H</em>-Phenothiazine-2-sulfonamide, <em>N</em>,<em>N</em>-dimethyl-;Phenothiazine-2-sulfonamide, <em>N</em>,<em>N</em>-dimethyl-;<em>N</em>,<em>N</em>-Dimethyl-10<em>H</em>-phenothiazine-2-sulfonamide;2-Dimethylsulfonamidophenothiazine",
    "duplicated_cas_no": "",
    "SMILES": "S(N(C)C)(=O)(=O)C=1C=C2C(SC=3C(N2)=CC=CC3)=CC1",
    "meta_data": {
        "InChI": "InChI=1S/C14H14N2O2S2/c1-16(2)20(17,18)10-7-8-14-12(9-10)15-11-5-3-4-6-13(11)19-14/h3-9,15H,1-2H3",
        "InChIKey": null,
        "Canonical SMILES": "O=S(=O)(C1=CC=C2SC=3C=CC=CC3NC2=C1)N(C)C",
        "Molecular Formula": "C<sub>14</sub>H<sub>14</sub>N<sub>2</sub>O<sub>2</sub>S<sub>2</sub>",
        "Molecular Mass": "306.40",
        "Melting Point": "176-177 °C"
    }
}