{
    "cas_no": "11136-36-0",
    "key_name": "Bis(Pentamethylcyclopentadienyl)titanium dichloride",
    "cn_name": "双(五甲基环戊二烯)二氯化钛;",
    "alternate_name": "Titanium, dichlorobis[(1,2,3,4,5-η)-1,2,3,4,5-pentamethyl-2,4-cyclopentadien-1-yl]-;1,3-Cyclopentadiene, 1,2,3,4,5-pentamethyl-, titanium complex;Dichlorobis[(1,2,3,4,5-η)-1,2,3,4,5-pentamethyl-2,4-cyclopentadien-1-yl]titanium;Dichlorobis(pentamethylcyclopentadienyl)titanium;Dichlorobis(η<sup>5</sup>-pentamethylcyclopentadienyl)titanium;Permethyltitanocene dichloride;Bis(Pentamethylcyclopentadienyl)titanium dichloride;Decamethyltitanocene dichloride;Bis(η<sup>5</sup>-pentamethylcyclopentadienyl)titanium dichloride",
    "duplicated_cas_no": "",
    "SMILES": "[Cl-][Ti+4]12345678([Cl-])(C=9(C)C1(C)=C2(C)[C-]3(C)C49C)[C-]%10(C)C5(C)=C6(C)C7(C)=C8%10C",
    "meta_data": {
        "InChI": "InChI=1S/2C10H15.2ClH.Ti/c2*1-6-7(2)9(4)10(5)8(6)3;;;/h2*1-5H3;2*1H;/q2*-1;;;+4/p-2",
        "InChIKey": null,
        "Canonical SMILES": "[Cl-][Ti+4]12345678([Cl-])(C=9(C)C4(C)=C3(C)[C-]2(C)C91C)C=%10(C)C8(C)=C7(C)[C-]6(C)C%105C",
        "Molecular Formula": "C<sub>20</sub>H<sub>30</sub>Cl<sub>2</sub>Ti",
        "Molecular Mass": "",
        "Melting Point": "190 °C (decomp)"
    }
}