{
    "cas_no": "1928-38-7",
    "key_name": "2,4-D methyl ester",
    "cn_name": "2,4-PA-甲酯;",
    "alternate_name": "Acetic acid, 2-(2,4-dichlorophenoxy)-, methyl ester;Acetic acid, (2,4-dichlorophenoxy)-, methyl ester;2,4-D methyl ester;Methyl (2,4-dichlorophenoxy)acetate;(2,4-Dichlorophenoxy)acetic acid methyl ester;NSC 9399",
    "duplicated_cas_no": "",
    "SMILES": "O(CC(OC)=O)C1=C(Cl)C=C(Cl)C=C1",
    "meta_data": {
        "InChI": "InChI=1S/C9H8Cl2O3/c1-13-9(12)5-14-8-3-2-6(10)4-7(8)11/h2-4H,5H2,1H3",
        "InChIKey": null,
        "Canonical SMILES": "O=C(OC)COC1=CC=C(Cl)C=C1Cl",
        "Molecular Formula": "C<sub>9</sub>H<sub>8</sub>Cl<sub>2</sub>O<sub>3</sub>",
        "Molecular Mass": "235.06",
        "Boiling Point": "119 °C @ Press: 1 Torr",
        "Melting Point": "119 °C"
    }
}