{
    "cas_no": "56309-94-5",
    "key_name": "4-(1,4-Dioxaspiro[4.5]dec-8-yl)cyclohexanone",
    "cn_name": "双环己酮乙二醇单缩酮;",
    "alternate_name": "Cyclohexanone, 4-(1,4-dioxaspiro[4.5]dec-8-yl)-;1,4-Dioxaspiro[4.5]decane, cyclohexanone deriv.;4-(1,4-Dioxaspiro[4.5]dec-8-yl)cyclohexanone;4,4′-Dicyclohexanedione monoethylene ketal;4-(1,4-Dioxaspiro[4.5]deca-8-yl)cyclohexanone;4-(7,10-Dioxaspiro[5.4]decan-3-yl)cyclohexan-1-one",
    "duplicated_cas_no": "",
    "SMILES": "O=C1CCC(C2CCC3(CC2)OCCO3)CC1",
    "meta_data": {
        "InChI": "InChI=1S/C14H22O3/c15-13-3-1-11(2-4-13)12-5-7-14(8-6-12)16-9-10-17-14/h11-12H,1-10H2",
        "InChIKey": null,
        "Canonical SMILES": "O=C1CCC(CC1)C2CCC3(OCCO3)CC2",
        "Molecular Formula": "C<sub>14</sub>H<sub>22</sub>O<sub>3</sub>",
        "Molecular Mass": "238.32",
        "Melting Point": "109 °C"
    }
}