{
    "cas_no": "2196-13-6",
    "key_name": "4-Pyridinecarbothioamide",
    "cn_name": null,
    "alternate_name": "4-Pyridinecarbothioamide;Isonicotinamide, thio-;Isonicotinic acid thioamide;Thioisonicotinamide;Thio-4-pyridinecarboxamide;Isothionicotinamide;4-Pyridylthiocarboxamide;4-Pyridinethiocarboxamide;NSC 1607;4-(Aminothiocarbonyl)pyridine;4-Pyridinethioamide",
    "duplicated_cas_no": "",
    "SMILES": "C(N)(=S)C=1C=CN=CC1",
    "meta_data": {
        "InChI": "InChI=1S/C6H6N2S/c7-6(9)5-1-3-8-4-2-5/h1-4H,(H2,7,9)",
        "InChIKey": null,
        "Canonical SMILES": "S=C(N)C=1C=CN=CC1",
        "Molecular Formula": "C<sub>6</sub>H<sub>6</sub>N<sub>2</sub>S",
        "Molecular Mass": "138.19",
        "Melting Point": "210 °C"
    }
}