{
    "cas_no": "721-66-4",
    "key_name": "Glycylphenylalanine",
    "cn_name": "甘氨酰-DL-苯丙氨酸;甘氨酸-DL-苯丙氨酸;甘氨酸缩-DL-苯基初油氨基酸 ;甘氨酸缩-DL-苯基初油氨基酸;甘氨酰-;",
    "alternate_name": "Phenylalanine, glycyl-;Alanine, <em>N</em>-glycyl-3-phenyl-, <span class=\"text-smallcaps\">DL</span>-;Phenylalanine, <em>N</em>-glycyl-;Glycylphenylalanine;Glycyl-<span class=\"text-smallcaps\">DL</span>-phenylalanine;NSC 122028;2-((2-Aminoacetyl)amino)-3-phenylpropanoic acid;2-(2-Aminoacetamido)-3-phenylpropanoic acid",
    "duplicated_cas_no": "",
    "SMILES": "C(CC1=CC=CC=C1)(NC(CN)=O)C(O)=O",
    "meta_data": {
        "InChI": "InChI=1S/C11H14N2O3/c12-7-10(14)13-9(11(15)16)6-8-4-2-1-3-5-8/h1-5,9H,6-7,12H2,(H,13,14)(H,15,16)",
        "InChIKey": null,
        "Canonical SMILES": "O=C(O)C(NC(=O)CN)CC=1C=CC=CC1",
        "Molecular Formula": "C<sub>11</sub>H<sub>14</sub>N<sub>2</sub>O<sub>3</sub>",
        "Molecular Mass": "222.24",
        "Melting Point": "260 °C (decomp)"
    }
}