{
    "cas_no": "78521-39-8",
    "key_name": "6-[[(4-Methylphenyl)sulfonyl]amino]hexanoic acid",
    "cn_name": "6-[[(4-甲苯基)磺基]氨基]己酸;",
    "alternate_name": "Hexanoic acid, 6-[[(4-methylphenyl)sulfonyl]amino]-;Hexanoic acid, 6-<em>p</em>-toluenesulfonamido-;6-[[(4-Methylphenyl)sulfonyl]amino]hexanoic acid;NSC 38047;6-[(4-Methylbenzenesulfonyl)amino]caproic acid",
    "duplicated_cas_no": "",
    "SMILES": "S(NCCCCCC(O)=O)(=O)(=O)C1=CC=C(C)C=C1",
    "meta_data": {
        "InChI": "InChI=1S/C13H19NO4S/c1-11-6-8-12(9-7-11)19(17,18)14-10-4-2-3-5-13(15)16/h6-9,14H,2-5,10H2,1H3,(H,15,16)",
        "InChIKey": null,
        "Canonical SMILES": "O=C(O)CCCCCNS(=O)(=O)C1=CC=C(C=C1)C",
        "Molecular Formula": "C<sub>13</sub>H<sub>19</sub>NO<sub>4</sub>S",
        "Molecular Mass": "285.36",
        "Melting Point": "106-108 °C"
    }
}