{
    "cas_no": "77668-42-9",
    "key_name": "2,3-Dichloro-α-oxobenzeneacetonitrile",
    "cn_name": "2,3-二氯苯甲酰氰;",
    "alternate_name": "Benzeneacetonitrile, 2,3-dichloro-α-oxo-;2,3-Dichloro-α-oxobenzeneacetonitrile;2,3-Dichlorobenzoyl cyanide;2,3-Dichlorobenzoyl nitrile;2-(2,3-Dichlorophenyl)-2-oxoacetonitrile",
    "duplicated_cas_no": "",
    "SMILES": "C(C#N)(=O)C1=C(Cl)C(Cl)=CC=C1",
    "meta_data": {
        "InChI": "InChI=1S/C8H3Cl2NO/c9-6-3-1-2-5(8(6)10)7(12)4-11/h1-3H",
        "InChIKey": null,
        "Canonical SMILES": "N#CC(=O)C=1C=CC=C(Cl)C1Cl",
        "Molecular Formula": "C<sub>8</sub>H<sub>3</sub>Cl<sub>2</sub>NO",
        "Molecular Mass": "200.02",
        "Melting Point": "52-53 °C"
    }
}