{
    "cas_no": "2051-18-5",
    "key_name": "4-Isopropylbenzyl chloride",
    "cn_name": "4-异丙基氯苄;",
    "alternate_name": "Benzene, 1-(chloromethyl)-4-(1-methylethyl)-;<em>p</em>-Cymene, 7-chloro-;1-(Chloromethyl)-4-(1-methylethyl)benzene;4-Isopropylbenzyl chloride;<em>p</em>-Isopropylbenzyl chloride;<em>p</em>-(Chloromethyl)cumene;1-(Chloromethyl)-4-isopropylbenzene;NSC 33915;1-(Chloromethyl)-4-propan-2-ylbenzene;1-(Chloromethyl)-4-(propan-2-yl)benzene",
    "duplicated_cas_no": "",
    "SMILES": "C(C)(C)C1=CC=C(CCl)C=C1",
    "meta_data": {
        "InChI": "InChI=1S/C10H13Cl/c1-8(2)10-5-3-9(7-11)4-6-10/h3-6,8H,7H2,1-2H3",
        "InChIKey": null,
        "Canonical SMILES": "ClCC1=CC=C(C=C1)C(C)C",
        "Molecular Formula": "C<sub>10</sub>H<sub>13</sub>Cl",
        "Molecular Mass": "168.66",
        "Boiling Point": "120-124 °C @ Press: 26 Torr",
        "Density": "1.024 g/cm³ @ Temp: 20 °C"
    }
}