{
    "cas_no": "138401-24-8",
    "key_name": "2-Butyl-3-[[2′-(cyano)biphenyl-4-yl]methyl]-1,3-diazaspiro[4.4]non-1-en-4-one",
    "cn_name": "4\"-[(2-丁基-4-氧-1,3-二氮杂螺环[4.4]壬-1-烯-3-基)甲基]联苯-2-甲腈;厄贝沙坦烃化物;",
    "alternate_name": "[1,1′-Biphenyl]-2-carbonitrile, 4′-[(2-butyl-4-oxo-1,3-diazaspiro[4.4]non-1-en-3-yl)methyl]-;1,3-Diazaspiro[4.4]nonane, [1,1′-biphenyl]-2-carbonitrile deriv.;4′-[(2-Butyl-4-oxo-1,3-diazaspiro[4.4]non-1-en-3-yl)methyl][1,1′-biphenyl]-2-carbonitrile;2-Butyl-3-[[2′-(cyano)biphenyl-4-yl]methyl]-1,3-diazaspiro[4.4]non-1-en-4-one;2-[4-[(2-Butyl-4-oxo-1,3-diazaspiro[4.4]non-1-en-3-yl)methyl]phenyl]benzonitrile",
    "duplicated_cas_no": "1246929-71-4",
    "SMILES": "O=C1C2(N=C(CCCC)N1CC3=CC=C(C=C3)C4=C(C#N)C=CC=C4)CCCC2",
    "meta_data": {
        "InChI": "InChI=1S/C25H27N3O/c1-2-3-10-23-27-25(15-6-7-16-25)24(29)28(23)18-19-11-13-20(14-12-19)22-9-5-4-8-21(22)17-26/h4-5,8-9,11-14H,2-3,6-7,10,15-16,18H2,1H3",
        "InChIKey": null,
        "Canonical SMILES": "N#CC=1C=CC=CC1C=2C=CC(=CC2)CN3C(=O)C4(N=C3CCCC)CCCC4",
        "Molecular Formula": "C<sub>25</sub>H<sub>27</sub>N<sub>3</sub>O",
        "Molecular Mass": "385.50",
        "Melting Point": "92-98 °C"
    }
}