{
    "cas_no": "1587-15-1",
    "key_name": "Dimethyl malate",
    "cn_name": null,
    "alternate_name": "Butanedioic acid, 2-hydroxy-, 1,4-dimethyl ester;Malic acid, dimethyl ester;Butanedioic acid, hydroxy-, dimethyl ester;Dimethyl malate;Dimethyl <span class=\"text-smallcaps\">DL</span>-malate;(<em>RS</em>)-Dimethyl malate;(±)-Dimethyl 2-hydroxybutanedioate;(±)-Dimethyl malate;NSC 165661;Dimethyl hydroxybutanedioate;Dimethyl 2-hydroxysuccinate;1,4-Dimethyl 2-hydroxybutanedioate",
    "duplicated_cas_no": "38115-87-6;144116-46-1",
    "SMILES": "C(CC(OC)=O)(C(OC)=O)O",
    "meta_data": {
        "InChI": "InChI=1S/C6H10O5/c1-10-5(8)3-4(7)6(9)11-2/h4,7H,3H2,1-2H3",
        "InChIKey": null,
        "Canonical SMILES": "O=C(OC)CC(O)C(=O)OC",
        "Molecular Formula": "C<sub>6</sub>H<sub>10</sub>O<sub>5</sub>",
        "Molecular Mass": "162.14",
        "Boiling Point": "90 °C @ Press: 8.5 Torr"
    }
}