{
    "cas_no": "757251-39-1",
    "key_name": "4-(4-Amino-3-fluorophenoxy)-<em>N</em>-methylpyridine-2-carboxamide",
    "cn_name": null,
    "alternate_name": "2-Pyridinecarboxamide, 4-(4-amino-3-fluorophenoxy)-<em>N</em>-methyl-;4-(4-Amino-3-fluorophenoxy)-<em>N</em>-methyl-2-pyridinecarboxamide;4-(4-Amino-3-fluorophenoxy)-<em>N</em>-methylpyridine-2-carboxamide;4-(4-Amino-3-fluorophenoxy)pyridine-2-carboxylic acid methylamide;APS-5-27",
    "duplicated_cas_no": "",
    "SMILES": "O(C=1C=C(C(NC)=O)N=CC1)C2=CC(F)=C(N)C=C2",
    "meta_data": {
        "InChI": "InChI=1S/C13H12FN3O2/c1-16-13(18)12-7-9(4-5-17-12)19-8-2-3-11(15)10(14)6-8/h2-7H,15H2,1H3,(H,16,18)",
        "InChIKey": null,
        "Canonical SMILES": "O=C(NC)C1=NC=CC(OC2=CC=C(N)C(F)=C2)=C1",
        "Molecular Formula": "C<sub>13</sub>H<sub>12</sub>FN<sub>3</sub>O<sub>2</sub>",
        "Molecular Mass": "261.25",
        "Melting Point": "140-141 °C"
    }
}