{
    "cas_no": "1934-75-4",
    "key_name": "Sodium dicyanamide",
    "cn_name": "二氰胺钠;双氰胺钠;",
    "alternate_name": "Cyanamide, <em>N</em>-cyano-, sodium salt (1:1);Sodium dicyanamide;Dicyanamide, sodium salt;Cyanamide, cyano-, sodium salt;Sodium dicyanoamidate(1-)",
    "duplicated_cas_no": "4615-74-1;2236570-00-4",
    "SMILES": "N(C#N)C#N.[Na]",
    "meta_data": {
        "InChI": "InChI=1S/C2HN3.Na/c3-1-5-2-4;/h5H;",
        "InChIKey": null,
        "Canonical SMILES": "[Na].N#CNC#N",
        "Molecular Formula": "C<sub>2</sub>HN<sub>3</sub>.Na",
        "Molecular Mass": "",
        "Melting Point": "315 °C"
    }
}