{
    "cas_no": "1142-39-8",
    "key_name": "4-(Hexyloxy)benzoic acid",
    "cn_name": "4-己氧基苯甲酸;对己氧基苯甲酸;",
    "alternate_name": "Benzoic acid, 4-(hexyloxy)-;Benzoic acid, <em>p</em>-(hexyloxy)-;4-(Hexyloxy)benzoic acid;<em>p</em>-(Hexyloxy)benzoic acid;<em>p</em>-<em>n</em>-Hexyloxybenzoic acid;4-<em>n</em>-Hexyloxybenzoic acid;<em>p</em>-(<em>n</em>-Hexoxy)benzoic acid;4-Hexoxybenzoic acid;NSC 28663;<em>p</em>-(<em>n</em>-Hexyl-1-oxy)benzoic acid",
    "duplicated_cas_no": "",
    "SMILES": "O(CCCCCC)C1=CC=C(C(O)=O)C=C1",
    "meta_data": {
        "InChI": "InChI=1S/C13H18O3/c1-2-3-4-5-10-16-12-8-6-11(7-9-12)13(14)15/h6-9H,2-5,10H2,1H3,(H,14,15)",
        "InChIKey": null,
        "Canonical SMILES": "O=C(O)C1=CC=C(OCCCCCC)C=C1",
        "Molecular Formula": "C<sub>13</sub>H<sub>18</sub>O<sub>3</sub>",
        "Molecular Mass": "222.28",
        "Melting Point": "105.5-107 °C"
    }
}