{
    "cas_no": "18640-60-3",
    "key_name": "1-(5-Chloro-2-nitrophenyl)ethanone",
    "cn_name": null,
    "alternate_name": "Ethanone, 1-(5-chloro-2-nitrophenyl)-;Acetophenone, 5′-chloro-2′-nitro-;1-(5-Chloro-2-nitrophenyl)ethanone;5′-Chloro-2′-nitroacetophenone;NSC 81223;1-(5-Chloro-2-nitrophenyl)ethan-1-one",
    "duplicated_cas_no": "",
    "SMILES": "N(=O)(=O)C1=C(C(C)=O)C=C(Cl)C=C1",
    "meta_data": {
        "InChI": "InChI=1S/C8H6ClNO3/c1-5(11)7-4-6(9)2-3-8(7)10(12)13/h2-4H,1H3",
        "InChIKey": null,
        "Canonical SMILES": "O=C(C1=CC(Cl)=CC=C1N(=O)=O)C",
        "Molecular Formula": "C<sub>8</sub>H<sub>6</sub>ClNO<sub>3</sub>",
        "Molecular Mass": "199.59",
        "Boiling Point": "162-163 °C @ Press: 13 Torr",
        "Melting Point": "63-65 °C"
    }
}