{
    "cas_no": "6963-44-6",
    "key_name": "1,5-Diacetoxypentane",
    "cn_name": "1,5-二乙酰氧基戊烷;1,5-戊二醇二乙酸酯;",
    "alternate_name": "1,5-Pentanediol, 1,5-diacetate;1,5-Pentanediol, diacetate;1,5-Pentylene glycol diacetate;1,5-Pentanediyl diacetate;Pentamethylene diacetate;NSC 53781;1,5-Diacetoxypentane",
    "duplicated_cas_no": "",
    "SMILES": "C(OC(C)=O)CCCCOC(C)=O",
    "meta_data": {
        "InChI": "InChI=1S/C9H16O4/c1-8(10)12-6-4-3-5-7-13-9(2)11/h3-7H2,1-2H3",
        "InChIKey": null,
        "Canonical SMILES": "O=C(OCCCCCOC(=O)C)C",
        "Molecular Formula": "C<sub>9</sub>H<sub>16</sub>O<sub>4</sub>",
        "Molecular Mass": "188.22",
        "Boiling Point": "244 °C",
        "Density": "1.020 g/cm³ @ Temp: 26 °C"
    }
}