{
    "cas_no": "24937-16-4",
    "key_name": "Poly[imino(1-oxo-1,12-dodecanediyl)]",
    "cn_name": null,
    "alternate_name": "Poly[imino(1-oxo-1,12-dodecanediyl)];Poly(iminocarbonylundecamethylene);Poly(azacyclotridecan-2-one);Azacyclotridecan-2-one homopolymer, sru;Dodecanolactam polymer, SRU;Laurolactam polymer, SRU;Poly(ω-dodecanolactam), SRU;Polyamide P 12L;Polyamide 12;Poly(lauryl lactam);Polylaurolactam;Polydodecanamide;Grilamid L 25;P 12 (polymer);Polylaurolactam SRU;Poly(ω-laurolactam), SRU;Poly(12-aminododecanoic acid), SRU;Vestamid X 1202;Vestamid;Poly-ω-dodecalactam;ω-Laurolactam polymer, SRU;Poly(ω-lauramide);Poly-ω-lauryllactam SRU;Poly(ω-laurinamide);Nylon X 5021;P 12;Amilan X 5001;Durethan U 8001;N 12X1874;PA 12;Poly(dodecalactam);Amilan CM 5001;Vestamid X 1204;Dodecalactam polymer, SRU;P 12 polyamide;Vestamid L 1901;Daiamid L 1640;PA 13z;P 12L-DM;Aesno;Vestamid 23-40;Plaskon L 1740;Vestamid 1700;Grilamid L 20G;Grilamid L 25W40;Grilamid LV 3H;PA 12E;PA 12L;Daiamid L 1901;Amilan XF 5000;L 1801;Vestamid L 2140;Deklon;Vestamid X 2302;L 1901;P 12L;P 12E;Poly(12-aminolauric acid), SRU;L 1610;Daiamid L 2101;Nylon 12 SRU;5001PWI;Vestamid L 1610;Cany Bond S 160;Thermocomp SF 1006;Poly(12-aminododecanoic acid lactam), SRU;3014B;Daiamid L 1940;Daiamid L 2140;Grilamid L 18G;Rilsan AMN;Ube Nylon 3020B;Ube 3020B;3024B;3020B;Daiamid L 1801;L 1940;Daiamid T 430;3035J;Vestamid T 650P1;Daiamid 2401;Grilamid L 20VO;Grilamid L 20W20;Grilamid L 20W40;Grilamid L 25W20;Grilamid L 25W40NZ;EP Grilamid W 2193;EP Grilamid W 5941;Daiamid X 1891;X 1891;Daiamid L 1610;Vestamid X 1891;Grilamid L 22G;Daiamid L 1940P;5001RWI;Daiamid T 450;T 450;Daiamid 2000;Daiamid 3000;Daiamid 7000;Daiamid L 1840Y;Daiamid X 1988;Amilan X 5001T;Daiamid 4418;Daiamid 1801;Vestamid L 2121E;NYO 3500;NYO 8100;Daiamid L 2121;Nylon SP 500;Daiamid T 450P1;SP 500;Grilamid L 20;Orgasol 2002EXDNAT;Daiamid L 1640P;Daiamid WS;Daiamid L 21400;Daiamid L 1724;3035JU;Daiamid L 1600;Daiamid L 1700;Daiamid 21901;Grilamid L 25N150;3014U;3024U;Aesno TL;Rilsan AMNO;Orgasol 2002;Vestamid L 2128;Grilamid XE 3076;Rilsan AESNO;3054D;X 4434;Daiamid X 4434;Daiamid X 1852;AMN-P 20;Vestamid L 1801;Orgasol 2002D;Orgasol 2002EXD;Orgasol 2002ES3;Orgasol 2002ES5;Daiamid Z 2073;Z 2073;Ube Nylon 3020U;Ube Nylon 3014U;3020LU1;Vestamid T 450A-P3;3020U;Rilsan AESN-O-P 40TL;P 3014U;Rilsan AMNOTL;Amilan CM 5051F;L 2140;Grilamid L 20GN;Grilamid LKN 5H;Vestosint X 7004;L 16;Daiamid L 2106F;PA 12 (polyamide);3035JU6;Daiamid A 1709P;Daiamid 1000;Daiamid L 1930;L 2121S;Daiamid T 451;0estamid X 4887;Vestamid X 1852;Rilsan AMNOD;Nylon 12;Vestamid L 1600;Ube Nylon 3030B;3030B;Grilamid L 25W40X;3024LU;Vestamid L 2121;Aesno P 40TL;3035B;3035U;LU 3H;5016XHP;Daiamid L 1800;L 1640;Ube 3035U;Daiamid N 12;Vestamid L 2124;Vestamid X 7293;L 2106F;Vestamid L 1940;Daiamid L 1801F;Orgasol 2001UD-NAT1;L 20G;Daiamid WS 250P;Grilamid L 16;Vestamid X 7297;L 1600;Orgasol 2002UD-NAT-COS;3030JU;3014JX7;Orgasol 2001UD-NAT2;3030U;Grilamid L 22A;Ube Nylon 3024U;X 1852;Orgasol 2001;Vestamid Z 7319;Rilsan A;Daiamid 12;Rilsan AESN-O-TL 12;Ube 3035C2;Polylauramide;AMNO;Grilamid TR 55LY;Ube Nylon 3030XA;3030XA;Vestamid L 2101F;Vestamid L 1700;Orgasol 1009EX;Grilamid L 20GM;Ube Nylon 3035JU6;Vestamelt 1640;Vestamelt 1740;Daiamid Z 2073A;Ube 3035;L 20XFR;Orgasol 2002ES4;Orgasol 2001UD;Orgasol 2001EXD;Rilsan AESN-O-TL;Orgasol 2002D-NAT1;Orgasol 2002ES4NAT3;Vestopreg G 101;L 2101;Grilamid L 20AZ;Grilamid LB 25HX;Grilamid LV 3AH;Ube Nylon 30200;Ube 30200;3020JSX8;Daiamid 3100;3035MJ1;Orgasol 2002D White 5;Daiamid L 2140W;Vestamid L 1670;Rilsan AESN-BK-P 20TL;Novamid L 25BTX12A;L 25W40NZ;Vestamid L 2102F;Vestamid L 2101;P 3012U;Rilsan AESN-BK-P 40TL;Vestamid X 7344;Grilamide L 16A;Vestamid L 2106F;Grilamid L 16A;Grilamid L 20HL;Grilamid L 25W40NZ844;Vestosint 1111;Daiamid L 1640B;Rilsan 10;Ubesta 3030LX;12 Polyamides;Vestamid LX 9002;Vestamid LX 9102;Ube 3035MI1;Ube Nylon 3035U;Daiamid 1640;Daiamid 2140;Daiamid ZL 1101;Vestamid 1800;Orgasol 2002EXTD;Rilsan AMN-D;3030MI1;Daiamid L 1940W;Orgasol 2002ES6NAT;Orgasol 2002ES6;Grilamid L 25W40CA;A 1709P;Vestamid X 7377;Vestamid LX 9010;LX 9010;X 7293;ZA 7295;Vestamid ZA 7295;MW 330;3030JLX2;Rilsan ARVO 950TLD;Vestamid L 1833;L 1833;Orgasol 2001UD-NAT;Ubesta 3030U;Vestamelt 430P06;Vestamelt 640P1;Vestamelt 730P1;Nylon 3030U;Rilsan AMNA;L 25;Ubesta PA 12;AESN-O-P 40;3012U;Ube Nylon 3012U;Ubesta 3024B;Ube Nylon 3024B;Vestosint 1101;Vestosint 1121;Vestosint 1141;Vestosint 1161;Vestosint 1164;Vestosint 1174;Vestosint 2157;PA 2200;Rilsan AECHVO;Vestamid L 210F;Vestamid 9005;Vestosint 2070;Daiamid X 4442;Ubesta 3030B;Grilamid 20LM;Grilamid L 20LM;SP 10;SP 10 (polyamide);A 4878;Nylonpoly WL 10;3030JLX8;Ubesta 3020U;Ubesta P 3012U;Ubesta 3035U;Vestamid LX 9013;Ubesta P 3014U;L 1640P;Grilamide L 16;Ubesta 3030JLX2A;Rilsan AESN-O-P 20TL;Orgasol 2002ES3NAT3;RMB 4220-00;Ubesta 3024U;Rilsan AESNO 14TL;Ny 12;2002EXD;Ubesta 3030JFX1;L 16A;Ubesta 3035JU;RDS 4357;Ubesta 1013;Ubesta 3030JLX2;Orgasol 2002EXC-NAT-COS;Ubesta 3014B;Daiamid L 1840;Ube 1024U;Ube Nylon 1024U;1024U;Rilsan MA 4411;Rilsan AESN-P 110TL;NECHV 0;Vestamid X 7376nf;Vestamid EX 9200nf;Vestamid BS 0618;Aesno SA 01;Daiamid Z 9005;Grilamid L 125;Grilamid 12;UBE 3014B;Rilsan AESN-NOIR-P 20TL;Grilamid L 25AH;L 25AH;Vestamid BS 0725;Vestamid LX 9020;CM 5051F;Vestamid L 1900;P 3012;Ubesta 3035JU5;T 714H;LX 9011;Orgasol 2001EXD-NAT1;Orgasol 2002N10S-COS;Duraform PA;Duraform Polyamide;2001EXD-NAT1;Rilsan PA 12;Rilsan AESN-P 20TL;Anybesta PT 69;MFCD 00134003;Rilsan AECNO;3030JI26L;Vestosint 2162;Vestamid 2160;Orgasol PA 12;Amno TLD;Rilsan AESN-P 210TL;Rilsan AESN-P 410TL;Grilamid L 25H;L 25H;Ubesta 3014U;Ubesta 3035JU3;Vestamid L 1800;Rilsan AMVO;Vestamid ZA 4487;ARVO 950TLD;Ube 3030U;Vestamid LX 9011;Daiamid ZL 4100;AMNOTL;Rilsan AMNO-TLD;Ubesta 3020;Nylon 12P3014U;Ube 12P3014U;Grilamid L 16LM;L 16LM;Daiamid X 7297;Daiamid ZX;Ubesta 3030XA;Ubesta 3012U;Vestosint 2159;Vestosint 2158;3030JLX;Rilsan AECN 0TL;Vestosint X 1553;2001UDNAT1;2002UDNAT1;Cristamid MS 110;Rilsan G 110;Z 9004;Vestamid ZL 1105;Vestamid ZL 1107;ZL 1107;ZZ 3000P;Ubesta 3014UMX;PA 3035U;Ubesta 3014U8;Ubesta Polyamide 3014U8;Ropearl 4000;Vestamid BS 0849;CM 5031;Ube 30-30J126L;ZL 9500;L 7321;3030JIX3;Grilamid L 25W20X;Durafoam PA;Vestamid Z 7321;Accurel XP 712;Orgasol 2002ES4NAT;Daiamid MSP 100;Rilsan AESN 0TL;Vestosint 2170;Vestosint 2157P;Vestosint 2161P;BS 1189;BS 1190;EMSTR 90;Graphistrength C-M 1-20;30303JFX1;Innov PA 1550;White Xform SLS;Rilsan AECNO-TL;3030JI46;3020X29L;AESN TL;Grilamid L 20 Nature;Ubesta 3030XU;Rilsan A-AMNO-TLD;Rilsan A-AMN;Rilsan AESN-TL;3030JI9L;Vestamid X 7166;159L;TPFL-UD;Vestamid Z 4887;2003LS;SP 10L;L 1670;Grilamid TRVX 50X9 Natur;Orgasol 2002UD-NAT1;Ubesta 3030UX1;3030UX1;Vestamid L 1500;Vestosint 2159 Natural;Grilamid LCT 30;Z 4887;Amilan SP 500;L 1940G30;Ubesta 3020GX6;Daiamid L 1743;Ubesta 3030LUX;9048T1;Ubesta 3030JFX3;Ubesta J 146;MSP 100;3030JI6L;Vestosint X 1556;Ubesta 3030JI6L;Arvo 950;Vestamid NRG 4901;Vestamid NRG 3001;Vestosint 1115;Rilsamid AESN O-TL;Amilan SP 10;Rilsamid AMNO-TLD;Vestosint 2161;Rilsamid MA 4411;Grilamid XE 4076;Grilamid TRS 90;Ubesta 3030UFX1;X 7393;Orgasol 2002D-NAT-COS;Vestamid LX 9001;Daiamid X 7293;Orgasol Invent Smooth;Orgasol 2003;TR 90LS;L 25A-H-X Black 9992;Ubesta 3024;Grilamid L 25LM;AdSint PA 12;Vestamid L 2122;BS 0962;Rilsamid AESN-O-TL 44;Rilsan AESN-O-TL 44;L 2121;Orgasol 2002ES6NAT3;DuraForm HST;PA 2210FR;PA 650;ALM-PA 650;Duraform ProX PA;PA 12GF30;PA 12LV;PA 12HV;Rilsamid AMNO-MED;PA 2201;PA 2221;Windform XT 2.0;Vestosint Z 2723;Vestamid Z 9029;CX 7320;Vestamid LX 9012;PA-RP 12S;RTP 200F;Vestosint Z 2744;Vestosint Z 2863;Vestosint Z 2809;P 201TL;Rilsamid AESNO;Sinterit PA 12;AM 376010;FS 3200PA;Ubesta 7115U;Tegolon 12-20;Wanamid L 1000;Wanamid L 2000;Wanamid L 3000;Vestamid L-GF 50;HP 3D High Resusability PA 12;Grilamid XE 3982;Icorene 9005;Diamid X 1988;Duraform PA 12;3030JI15;Rilsamid AESN-Y-T 6L;PA 3200GF;Tecamid 12;JJPA 16;Vestamid NRG 1001;Vestamid LX 9035;PA 12TR;Rilsamid AECNO;FS 3300;PA 2000;Vestamid L 6700NA;Grilamid L 16NAT;Rilsamid AMNO P 40TLD;Vestamid LX 9039;Hawamid PA 12G;Rilsamid 12MAECV;Diamid ZZ 3000P;Vestosint 2070 Natural;Precimid 1171;Ubesta XPA 3024NUX;Rilsan 12;Ubesta 3024NUX;PA 9001;1101D;Wanamid D 1101;MSP-A 7678;Rilsamid AMN-OCM 2001;Vestamid X 7373;Z 7321;Grilamid LM 05HX;LM 05HX;Grilamid L 20A-HL-NZ Natural;Polyone NJ 6000;Wanfab PN 500W;MSP-ZL 9010;Vestosint 1125;L 2001T-NL;Grilamid L 25NZ",
    "duplicated_cas_no": "33031-72-0;54174-26-4;55070-16-1;56832-93-0;57107-80-9;57285-19-5;57285-20-8;57534-44-8;58051-66-4;60605-50-7;61932-68-1;63346-06-5;67298-25-3;82446-28-4;91105-35-0;96827-83-7;103735-40-6;111645-43-3;112845-18-8;117313-12-9;125200-56-8;137261-86-0;137463-83-3;168256-20-0;172964-61-3;172964-94-2;177529-67-8;183076-25-7;187684-03-3;192828-12-9;216303-25-2;229030-98-2;239463-65-1;371255-74-2;432021-91-5;468057-11-6;497163-92-5;583031-83-8;799821-57-1;852402-09-6;1217309-19-7;1334286-92-8;1355970-68-1;1623002-46-9;1627540-99-1;1629240-39-6;2408342-51-6;3022487-67-5",
    "SMILES": "",
    "meta_data": {
        "InChI": "",
        "InChIKey": null,
        "Canonical SMILES": "",
        "Molecular Formula": "(C<sub>12</sub>H<sub>23</sub>NO)<sub>n</sub>",
        "Molecular Mass": "",
        "Melting Point": "176-180 °C",
        "Density": "1.13 g/cm³"
    }
}