{
    "cas_no": "38711-20-5",
    "key_name": "2,2-Dimethoxy-<em>N</em>,<em>N</em>-dimethylethanamine",
    "cn_name": null,
    "alternate_name": "Ethanamine, 2,2-dimethoxy-<em>N</em>,<em>N</em>-dimethyl-;Acetaldehyde, (dimethylamino)-, dimethyl acetal;2,2-Dimethoxy-<em>N</em>,<em>N</em>-dimethylethanamine;(Dimethylamino)acetaldehyde dimethyl acetal;2-(Dimethylamino)acetaldehyde dimethyl acetal;2,2-Dimethoxy-<em>N</em>,<em>N</em>-dimethylethylamine;1,1-Dimethoxy-2-(dimethylamino)ethane;(2,2-Dimethoxyethyl)dimethylamine",
    "duplicated_cas_no": "",
    "SMILES": "C(CN(C)C)(OC)OC",
    "meta_data": {
        "InChI": "InChI=1S/C6H15NO2/c1-7(2)5-6(8-3)9-4/h6H,5H2,1-4H3",
        "InChIKey": null,
        "Canonical SMILES": "O(C)C(OC)CN(C)C",
        "Molecular Formula": "C<sub>6</sub>H<sub>15</sub>NO<sub>2</sub>",
        "Molecular Mass": "133.19",
        "Boiling Point": "80-81 °C @ Press: 112 Torr"
    }
}