{
    "cas_no": "121-59-5",
    "key_name": "Carbarsone",
    "cn_name": null,
    "alternate_name": "Arsonic acid, [4-[(aminocarbonyl)amino]phenyl]-;Arsanilic acid, <em>N</em>-carbamoyl-;Carbarsone;[4-[(Aminocarbonyl)amino]phenyl]arsonic acid;Amabevan;Ameban;Amebarsone;Amibiarson;Aminarson;Aminarsone;Aminoarson;Arsambide;<em>p</em>-Arsonophenylurea;<em>p</em>-Carbamidobenzenearsonic acid;4-Carbamylaminophenylarsonic acid;<em>N</em>-Carbamylarsanilic acid;Fenarsone;Histocarb;Leucarsone;<em>p</em>-Ureidobenzenearsonic acid;4-Ureidophenylarsonic acid;<em>N</em>-Carbamoylarsanilic acid;Carbarson;4-Ureidobenzenearsonic acid;Pentarsone;Amebarsene;Kutan;Carb-O-Sep;NSC 32868",
    "duplicated_cas_no": "8027-01-8",
    "SMILES": "[As](=O)(O)(O)C1=CC=C(NC(N)=O)C=C1",
    "meta_data": {
        "InChI": "InChI=1S/C7H9AsN2O4/c9-7(11)10-6-3-1-5(2-4-6)8(12,13)14/h1-4H,(H3,9,10,11)(H2,12,13,14)",
        "InChIKey": null,
        "Canonical SMILES": "O=C(N)NC1=CC=C(C=C1)[As](=O)(O)O",
        "Molecular Formula": "C<sub>7</sub>H<sub>9</sub>AsN<sub>2</sub>O<sub>4</sub>",
        "Molecular Mass": "260.08",
        "Melting Point": "174 °C"
    }
}