{
    "cas_no": "1687-29-2",
    "key_name": "<em>rel</em>-1,2-Dimethyl (1<em>S</em>,2<em>R</em>)-1,2-cyclohexanedicarboxylate",
    "cn_name": "1,2-环己基二甲酸二甲酯;",
    "alternate_name": "1,2-Cyclohexanedicarboxylic acid, 1,2-dimethyl ester, (1<em>S</em>,2<em>R</em>)-<em>rel</em>-;1,2-Cyclohexanedicarboxylic acid, dimethyl ester, <em>cis</em>-;1,2-Cyclohexanedicarboxylic acid, dimethyl ester, (1<em>R</em>,2<em>S</em>)-<em>rel</em>-;<em>rel</em>-1,2-Dimethyl (1<em>S</em>,2<em>R</em>)-1,2-cyclohexanedicarboxylate;Dimethyl <em>cis</em>-1,2-cyclohexanedicarboxylate;NSC 144650;<em>cis</em>-1,2-Cyclohexanedicarboxylic acid dimethyl ester;Dimethyl cis-cyclohexane-1,2-dicarboxylate",
    "duplicated_cas_no": "",
    "SMILES": "C(OC)(=O)[C@H]1[C@@H](C(OC)=O)CCCC1",
    "meta_data": {
        "InChI": "InChI=1/C10H16O4/c1-13-9(11)7-5-3-4-6-8(7)10(12)14-2/h7-8H,3-6H2,1-2H3/t7-,8+",
        "InChIKey": null,
        "Canonical SMILES": "O=C(OC)C1CCCCC1C(=O)OC",
        "Molecular Formula": "C<sub>10</sub>H<sub>16</sub>O<sub>4</sub>",
        "Molecular Mass": "200.23",
        "Boiling Point": "110-111 °C @ Press: 5 Torr"
    }
}