{
    "cas_no": "588-46-5",
    "key_name": "<em>N</em>-Benzylacetamide",
    "cn_name": "N-苄基乙酰胺;",
    "alternate_name": "Acetamide, <em>N</em>-(phenylmethyl)-;Acetamide, <em>N</em>-benzyl-;<em>N</em>-(Phenylmethyl)acetamide;<em>N</em>-Benzylacetamide;<em>N</em>-Acetylbenzylamine;NSC 8065",
    "duplicated_cas_no": "",
    "SMILES": "C(NC(C)=O)C1=CC=CC=C1",
    "meta_data": {
        "InChI": "InChI=1S/C9H11NO/c1-8(11)10-7-9-5-3-2-4-6-9/h2-6H,7H2,1H3,(H,10,11)",
        "InChIKey": null,
        "Canonical SMILES": "O=C(NCC=1C=CC=CC1)C",
        "Molecular Formula": "C<sub>9</sub>H<sub>11</sub>NO",
        "Molecular Mass": "149.19",
        "Boiling Point": "220-230 °C",
        "Melting Point": "61 °C"
    }
}