{
    "cas_no": "1953-04-4",
    "key_name": "Galantamine hydrobromide",
    "cn_name": "氢溴酸加兰他敏;11-甲基-3-甲氧基-4a,5,9,10,11,12-六氢-6H-苯并呋喃[3a,3,2ef][2]苯并氮杂卓-6-醇氢溴酸盐;",
    "alternate_name": "6<em>H</em>-Benzofuro[3a,3,2-<em>ef</em>][2]benzazepin-6-ol, 4a,5,9,10,11,12-hexahydro-3-methoxy-11-methyl-, hydrobromide (1:1), (4a<em>S</em>,6<em>R</em>,8a<em>S</em>)-;Galanthamine, hydrobromide;6<em>H</em>-Benzofuro[3a,3,2-<em>ef</em>][2]benzazepin-6-ol, 4a,5,9,10,11,12-hexahydro-3-methoxy-11-methyl-, hydrobromide, (4a<em>S</em>,6<em>R</em>,8a<em>S</em>)-;Galantamine hydrobromide;Nivalin;Nivaline;Galanthamine hydrogen bromide;Nivaline (pharmaceutical);(-)-Galanthamine hydrobromide;Reminyl;Jilkon hydrobromide;Lycoremine hydrobromide;(-)-Galantamine hydrobromide;Razadyne;Tamilin",
    "duplicated_cas_no": "",
    "SMILES": "O(C)C1=C2C=3[C@]4([C@@](O2)(C[C@@H](O)C=C4)[H])CCN(C)CC3C=C1.Br",
    "meta_data": {
        "InChI": "InChI=1S/C17H21NO3.BrH/c1-18-8-7-17-6-5-12(19)9-14(17)21-16-13(20-2)4-3-11(10-18)15(16)17;/h3-6,12,14,19H,7-10H2,1-2H3;1H/t12-,14-,17-;/m0./s1",
        "InChIKey": null,
        "Canonical SMILES": "Br.OC1C=CC23C4=C(OC2C1)C(OC)=CC=C4CN(C)CC3",
        "Molecular Formula": "C<sub>17</sub>H<sub>21</sub>NO<sub>3</sub>.BrH",
        "Molecular Mass": "",
        "Melting Point": "255-256 °C"
    }
}