{
    "cas_no": "2480-86-6",
    "key_name": "4-Hydroxy-3-methoxy-α-methylbenzenemethanol",
    "cn_name": "4-羟基-3-甲氧基-α-甲基苯甲醇;",
    "alternate_name": "Benzenemethanol, 4-hydroxy-3-methoxy-α-methyl-;Vanillyl alcohol, α-methyl-;4-Hydroxy-3-methoxy-α-methylbenzenemethanol;Apocynol;1-(4-Hydroxy-3-methoxyphenyl)ethanol;α-Methylvanillyl alcohol;1-(4-Hydroxy-3-methoxyphenyl)ethyl alcohol;1-Guaiacylethanol;4-(1-Hydroxyethyl)-2-methoxyphenol;NSC 47035;4-Hydroxy-3-methoxy-α-methylbenzyl alcohol",
    "duplicated_cas_no": "",
    "SMILES": "O(C)C1=CC(C(C)O)=CC=C1O",
    "meta_data": {
        "InChI": "InChI=1S/C9H12O3/c1-6(10)7-3-4-8(11)9(5-7)12-2/h3-6,10-11H,1-2H3",
        "InChIKey": null,
        "Canonical SMILES": "OC1=CC=C(C=C1OC)C(O)C",
        "Molecular Formula": "C<sub>9</sub>H<sub>12</sub>O<sub>3</sub>",
        "Molecular Mass": "168.19",
        "Melting Point": "101 °C"
    }
}