{
    "cas_no": "10203-58-4",
    "key_name": "Propanedioic acid, 2-(2-methylpropyl)-, 1,3-diethyl ester",
    "cn_name": "异丁基丙二酸二乙酯;",
    "alternate_name": "Propanedioic acid, 2-(2-methylpropyl)-, 1,3-diethyl ester;Malonic acid, isobutyl-, diethyl ester;Propanedioic acid, (2-methylpropyl)-, diethyl ester;Diethyl isobutylmalonate;Ethyl 2-ethoxycarbonyl-4-methylvalerate;(2-Methylpropyl)propanedioic acid diethyl ester;NSC 68522;2-Isobutylmalonic acid diethyl ester;Diethyl 2-isobutylmalonate;1,3-Diethyl 2-(2-methylpropyl)propanedioate",
    "duplicated_cas_no": "",
    "SMILES": "C(C(OCC)=O)(C(OCC)=O)CC(C)C",
    "meta_data": {
        "InChI": "InChI=1S/C11H20O4/c1-5-14-10(12)9(7-8(3)4)11(13)15-6-2/h8-9H,5-7H2,1-4H3",
        "InChIKey": null,
        "Canonical SMILES": "O=C(OCC)C(C(=O)OCC)CC(C)C",
        "Molecular Formula": "C<sub>11</sub>H<sub>20</sub>O<sub>4</sub>",
        "Molecular Mass": "216.27",
        "Boiling Point": "95-98 °C @ Press: 7 Torr"
    }
}