{
    "cas_no": "1002-28-4",
    "key_name": "3-Hexyn-1-ol",
    "cn_name": null,
    "alternate_name": "3-Hexyn-1-ol;3-Hexynol",
    "duplicated_cas_no": "",
    "SMILES": "C(#CCC)CCO",
    "meta_data": {
        "InChI": "InChI=1S/C6H10O/c1-2-3-4-5-6-7/h7H,2,5-6H2,1H3",
        "InChIKey": null,
        "Canonical SMILES": "OCCC#CCC",
        "Molecular Formula": "C<sub>6</sub>H<sub>10</sub>O",
        "Molecular Mass": "98.14",
        "Boiling Point": "163 °C",
        "Density": "0.8967 g/cm³ @ Temp: 15 °C"
    }
}