{
    "cas_no": "119520-05-7",
    "key_name": "Zilpaterol",
    "cn_name": null,
    "alternate_name": "Imidazo[4,5,1-<em>jk</em>][1]benzazepin-2(1<em>H</em>)-one, 4,5,6,7-tetrahydro-7-hydroxy-6-[(1-methylethyl)amino]-, (6<em>R</em>,7<em>R</em>)-<em>rel</em>-;Imidazo[4,5,1-<em>jk</em>][1]benzazepin-2(1<em>H</em>)-one, 4,5,6,7-tetrahydro-7-hydroxy-6-[(1-methylethyl)amino]-, <em>trans</em>-(±)-;<em>rel</em>-(6<em>R</em>,7<em>R</em>)-4,5,6,7-Tetrahydro-7-hydroxy-6-[(1-methylethyl)amino]imidazo[4,5,1-<em>jk</em>][1]benzazepin-2(1<em>H</em>)-one;RU 42173;Zilpaterol;<em>trans</em>-(±)-Zilpaterol",
    "duplicated_cas_no": "117827-79-9",
    "SMILES": "O[C@H]1C2=C3N(C(=O)NC3=CC=C2)CC[C@@H]1NC(C)C",
    "meta_data": {
        "InChI": "InChI=1/C14H19N3O2/c1-8(2)15-11-6-7-17-12-9(13(11)18)4-3-5-10(12)16-14(17)19/h3-5,8,11,13,15,18H,6-7H2,1-2H3,(H,16,19)/t11-,13-/s2",
        "InChIKey": null,
        "Canonical SMILES": "O=C1NC2=CC=CC3=C2N1CCC(NC(C)C)C3O",
        "Molecular Formula": "C<sub>14</sub>H<sub>19</sub>N<sub>3</sub>O<sub>2</sub>",
        "Molecular Mass": "261.32",
        "Melting Point": "177 °C (decomp)"
    }
}