{
    "cas_no": "104713-75-9",
    "key_name": "Barnidipine",
    "cn_name": "巴尼地平;(4S)-2,6-二甲基-4-(间硝基苯基)-1,4-二氢吡啶-3,5-二羧酸(3S)-1-苄基-3-吡咯烷基-甲基酯;",
    "alternate_name": "3,5-Pyridinedicarboxylic acid, 1,4-dihydro-2,6-dimethyl-4-(3-nitrophenyl)-, 3-methyl 5-[(3<em>S</em>)-1-(phenylmethyl)-3-pyrrolidinyl] ester, (4<em>S</em>)-;3,5-Pyridinedicarboxylic acid, 1,4-dihydro-2,6-dimethyl-4-(3-nitrophenyl)-, methyl 1-(phenylmethyl)-3-pyrrolidinyl ester, [<em>S</em>-(<em>R</em>*,<em>R</em>*)]-;3,5-Pyridinedicarboxylic acid, 1,4-dihydro-2,6-dimethyl-4-(3-nitrophenyl)-, methyl (3<em>S</em>)-1-(phenylmethyl)-3-pyrrolidinyl ester, (4<em>S</em>)-;Mepirodipine;Barnidipine;Hypoca",
    "duplicated_cas_no": "",
    "SMILES": "C(O[C@@H]1CN(CC2=CC=CC=C2)CC1)(=O)C=3[C@H](C(C(OC)=O)=C(C)NC3C)C4=CC(N(=O)=O)=CC=C4",
    "meta_data": {
        "InChI": "InChI=1S/C27H29N3O6/c1-17-23(26(31)35-3)25(20-10-7-11-21(14-20)30(33)34)24(18(2)28-17)27(32)36-22-12-13-29(16-22)15-19-8-5-4-6-9-19/h4-11,14,22,25,28H,12-13,15-16H2,1-3H3/t22-,25-/m0/s1",
        "InChIKey": null,
        "Canonical SMILES": "O=C(OC)C1=C(NC(=C(C(=O)OC2CN(CC=3C=CC=CC3)CC2)C1C=4C=CC=C(C4)N(=O)=O)C)C",
        "Molecular Formula": "C<sub>27</sub>H<sub>29</sub>N<sub>3</sub>O<sub>6</sub>",
        "Molecular Mass": "491.54",
        "Melting Point": "137-139 °C"
    }
}