{
    "cas_no": "10287-53-3",
    "key_name": "Ethyl 4-(dimethylamino)benzoate",
    "cn_name": "对二甲氨基苯甲酸乙酯;EDB;",
    "alternate_name": "Benzoic acid, 4-(dimethylamino)-, ethyl ester;Benzoic acid, <em>p</em>-(dimethylamino)-, ethyl ester;Ethyl <em>p</em>-(dimethylamino)benzoate;Parbenate;<em>N</em>,<em>N</em>-Dimethylbenzocaine;Ethyl 4-(dimethylamino)benzoate;Quantacure EPD;Kayacure EPA;Ethyl 4-(<em>N</em>,<em>N</em>-dimethylamino)benzoate;Ethyl <em>p</em>-(<em>N</em>,<em>N</em>-dimethylamino)benzoate;<em>p</em>-(Ethoxycarbonyl)-<em>N</em>,<em>N</em>-dimethylaniline;Ethyl <em>N</em>,<em>N</em>-dimethylamino-<em>p</em>-benzoate;4-Dimethylaminobenzoic acid ethyl ester;EDMAB;4-Ethoxycarbonyl-<em>N</em>,<em>N</em>-dimethylaniline;Speedcure EDB;Darocur EDB;Genocure EPD;Darocur EBD;π-EDB;PI-EDB;SB-PI 704;Luna EDB;IHT-PI EDB;EPD;EDAB;Photoinitiator EDAB;Lunacure EDB;JRCure 1101;EDB;Omnirad EDB;Irgacure EDB;Photoinitiator EDB;Gencure EDB;D 1744;Chemark EDB;Ethyl 4-(<em>N</em>,<em>N</em>′-dimethylamino)benzoate",
    "duplicated_cas_no": "97003-31-1;207575-35-7",
    "SMILES": "C(OCC)(=O)C1=CC=C(N(C)C)C=C1",
    "meta_data": {
        "InChI": "InChI=1S/C11H15NO2/c1-4-14-11(13)9-5-7-10(8-6-9)12(2)3/h5-8H,4H2,1-3H3",
        "InChIKey": null,
        "Canonical SMILES": "O=C(OCC)C1=CC=C(C=C1)N(C)C",
        "Molecular Formula": "C<sub>11</sub>H<sub>15</sub>NO<sub>2</sub>",
        "Molecular Mass": "193.24",
        "Boiling Point": "125-142 °C @ Press: 1-2 Torr",
        "Melting Point": "65-66 °C"
    }
}