{
    "cas_no": "82031-33-2",
    "key_name": "2-(2-Methoxyethoxy)benzenesulfonamide",
    "cn_name": "2-(2-甲氧乙氧基)苯磺酰胺;",
    "alternate_name": "Benzenesulfonamide, 2-(2-methoxyethoxy)-;2-(2-Methoxyethoxy)benzenesulfonamide;2-(2-Methoxyethoxy)benzen sulfonamide",
    "duplicated_cas_no": "",
    "SMILES": "S(N)(=O)(=O)C1=C(OCCOC)C=CC=C1",
    "meta_data": {
        "InChI": "InChI=1S/C9H13NO4S/c1-13-6-7-14-8-4-2-3-5-9(8)15(10,11)12/h2-5H,6-7H2,1H3,(H2,10,11,12)",
        "InChIKey": null,
        "Canonical SMILES": "O=S(=O)(N)C=1C=CC=CC1OCCOC",
        "Molecular Formula": "C<sub>9</sub>H<sub>13</sub>NO<sub>4</sub>S",
        "Molecular Mass": "231.27",
        "Melting Point": "109-112 °C"
    }
}