{
    "cas_no": "3670-93-7",
    "key_name": "2,4,8,10-Tetraoxa-3,9-dithiaspiro[5.5]undecane, 3,9-dioxide",
    "cn_name": null,
    "alternate_name": "2,4,8,10-Tetraoxa-3,9-dithiaspiro[5.5]undecane, 3,9-dioxide;Pentaerythritol, cyclic disulfite;Neopentanetetrayl sulfite;Pentaerythritol disulfite;NSC 25619;T 0400-1511;2,4,8,10-Tetraoxa-3λ4,9λ4-dithiaspiro[5.5]undecane-3,9-dione",
    "duplicated_cas_no": "",
    "SMILES": "O=S1OCC2(COS(=O)OC2)CO1",
    "meta_data": {
        "InChI": "InChI=1S/C5H8O6S2/c6-12-8-1-5(2-9-12)3-10-13(7)11-4-5/h1-4H2",
        "InChIKey": null,
        "Canonical SMILES": "O=S1OCC2(CO1)COS(=O)OC2",
        "Molecular Formula": "C<sub>5</sub>H<sub>8</sub>O<sub>6</sub>S<sub>2</sub>",
        "Molecular Mass": "228.24",
        "Melting Point": "151 °C"
    }
}