{
    "cas_no": "10297-06-0",
    "key_name": "6-Chloro-1-hexyne",
    "cn_name": "6-氯-1-己炔;6-氯己炔;",
    "alternate_name": "1-Hexyne, 6-chloro-;6-Chloro-1-hexyne;1-Chlorohex-5-yne;NSC 116032;(4-Chlorobutyl)acetylene",
    "duplicated_cas_no": "",
    "SMILES": "C(CC#C)CCCl",
    "meta_data": {
        "InChI": "InChI=1S/C6H9Cl/c1-2-3-4-5-6-7/h1H,3-6H2",
        "InChIKey": null,
        "Canonical SMILES": "ClCCCCC#C",
        "Molecular Formula": "C<sub>6</sub>H<sub>9</sub>Cl",
        "Molecular Mass": "116.59",
        "Boiling Point": "143-144 °C",
        "Density": "0.9543 g/cm³ @ Temp: 420 °C"
    }
}