{
    "cas_no": "1477-50-5",
    "key_name": "Indole-2-carboxylic acid",
    "cn_name": "吲哚-2-羧酸;2-吲哚甲酸;",
    "alternate_name": "1<em>H</em>-Indole-2-carboxylic acid;Indole-2-carboxylic acid;2-Carboxyindole;NSC 16598;2-Indolylformic acid",
    "duplicated_cas_no": "639082-96-5",
    "SMILES": "C(O)(=O)C1=CC=2C(N1)=CC=CC2",
    "meta_data": {
        "InChI": "InChI=1S/C9H7NO2/c11-9(12)8-5-6-3-1-2-4-7(6)10-8/h1-5,10H,(H,11,12)",
        "InChIKey": null,
        "Canonical SMILES": "O=C(O)C1=CC=2C=CC=CC2N1",
        "Molecular Formula": "C<sub>9</sub>H<sub>7</sub>NO<sub>2</sub>",
        "Molecular Mass": "161.16",
        "Melting Point": "205-208 °C"
    }
}