{
    "cas_no": "3029-19-4",
    "key_name": "1-Pyrenecarboxaldehyde",
    "cn_name": "1-芘甲醛;芘-1-甲醛;",
    "alternate_name": "1-Pyrenecarboxaldehyde;3-Pyrenecarboxaldehyde;3-Formylpyrene;3-Pyrenylaldehyde;3-Pyrenealdehyde;1-Formylpyrene;1-Pyrenealdehyde;1-Pyrenecarbaldehyde;NSC 30811;1-Pyrenecarboxaldehyde, 1,8-dihydro-;1-Pyrenecarboxaldehyde, 6,10-dihydro-;6,10-Dihydro-1-pyrenecarboxaldehyde;1-Pyrenecarboxaldehyde, 2,3-dihydro-;2,3-Dihydro-1-pyrenecarboxaldehyde",
    "duplicated_cas_no": "2130880-46-3;2607106-07-8;2760727-79-3",
    "SMILES": "C(=O)C1=C2C3=C4C(C=C2)=CC=CC4=CC=C3C=C1",
    "meta_data": {
        "InChI": "InChI=1S/C17H10O/c18-10-14-7-6-13-5-4-11-2-1-3-12-8-9-15(14)17(13)16(11)12/h1-10H",
        "InChIKey": null,
        "Canonical SMILES": "O=CC1=CC=C2C=CC3=CC=CC=4C=CC1=C2C34",
        "Molecular Formula": "C<sub>17</sub>H<sub>10</sub>O",
        "Molecular Mass": "230.26",
        "Boiling Point": "287 °C @ Press: 17 Torr",
        "Melting Point": "126 °C"
    }
}