{
    "cas_no": "540-54-5",
    "key_name": "1-Chloropropane",
    "cn_name": "1-氯丙烷;",
    "alternate_name": "Propane, 1-chloro-;1-Chloropropane;Propyl chloride;<em>n</em>-Propyl chloride",
    "duplicated_cas_no": "",
    "SMILES": "C(CCl)C",
    "meta_data": {
        "InChI": "InChI=1S/C3H7Cl/c1-2-3-4/h2-3H2,1H3",
        "InChIKey": null,
        "Canonical SMILES": "ClCCC",
        "Molecular Formula": "C<sub>3</sub>H<sub>7</sub>Cl",
        "Molecular Mass": "78.54",
        "Boiling Point": "46.60 °C @ Press: 760 Torr",
        "Melting Point": "-122.8 °C",
        "Density": "0.8899 g/cm³ @ Temp: 20 °C"
    }
}