{
    "cas_no": "38136-70-8",
    "key_name": "Brevianamide F",
    "cn_name": null,
    "alternate_name": "Pyrrolo[1,2-<em>a</em>]pyrazine-1,4-dione, hexahydro-3-(1<em>H</em>-indol-3-ylmethyl)-, (3<em>S</em>,8a<em>S</em>)-;Pyrrolo[1,2-<em>a</em>]pyrazine-1,4-dione, hexahydro-3-(1<em>H</em>-indol-3-ylmethyl)-, (3<em>S</em>-<em>trans</em>)-;(3<em>S</em>,8a<em>S</em>)-Hexahydro-3-(1<em>H</em>-indol-3-ylmethyl)pyrrolo[1,2-<em>a</em>]pyrazine-1,4-dione;Brevianamide F;Cyclo-<span class=\"text-smallcaps\">L</smallcap>-tryptophyl-<smallcap>L</span>-proline;<em>cyclo</em>-<span class=\"text-smallcaps\">L</smallcap>-Prolyl-<smallcap>L</span>-tryptophanyl;<span class=\"text-smallcaps\">L</smallcap>-Prolyl-<smallcap>L</span>-tryptophan anhydride;Prolyltryptophanyldiketopiperazine;Cyclo(<span class=\"text-smallcaps\">L</smallcap>-Pro-<smallcap>L</span>-Trp);Cyclo-<span class=\"text-smallcaps\">L</smallcap>-Trp-<smallcap>L</span>-Pro",
    "duplicated_cas_no": "",
    "SMILES": "C(C=1C=2C(NC1)=CC=CC2)[C@H]3C(=O)N4[C@](C(=O)N3)(CCC4)[H]",
    "meta_data": {
        "InChI": "InChI=1S/C16H17N3O2/c20-15-14-6-3-7-19(14)16(21)13(18-15)8-10-9-17-12-5-2-1-4-11(10)12/h1-2,4-5,9,13-14,17H,3,6-8H2,(H,18,20)/t13-,14-/m0/s1",
        "InChIKey": null,
        "Canonical SMILES": "O=C1NC(C(=O)N2CCCC12)CC3=CNC=4C=CC=CC43",
        "Molecular Formula": "C<sub>16</sub>H<sub>17</sub>N<sub>3</sub>O<sub>2</sub>",
        "Molecular Mass": "283.33",
        "Melting Point": "165-167 °C"
    }
}