{
    "cas_no": "544-25-2",
    "key_name": "Cycloheptatriene",
    "cn_name": "环庚三烯;1,3,5-环庚三烯;",
    "alternate_name": "1,3,5-Cycloheptatriene;Tropilidene;Tropiliden;Cycloheptatriene",
    "duplicated_cas_no": "33004-10-3",
    "SMILES": "C1C=CC=CC=C1",
    "meta_data": {
        "InChI": "InChI=1S/C7H8/c1-2-4-6-7-5-3-1/h1-6H,7H2",
        "InChIKey": null,
        "Canonical SMILES": "C1=CC=CCC=C1",
        "Molecular Formula": "C<sub>7</sub>H<sub>8</sub>",
        "Molecular Mass": "92.14",
        "Boiling Point": "117 °C",
        "Melting Point": "-79.5 °C",
        "Density": "0.8876 g/cm³ @ Temp: 20 °C"
    }
}