{
    "cas_no": "2420-16-8",
    "key_name": "3-Chloro-4-hydroxybenzaldehyde",
    "cn_name": "3-氯-4-羟基苯甲醛;",
    "alternate_name": "Benzaldehyde, 3-chloro-4-hydroxy-;3-Chloro-4-hydroxybenzaldehyde;4-Hydroxy-3-chlorobenzaldehyde;4-Hydroxy-5-chlorobenzaldehyde;NSC 85482",
    "duplicated_cas_no": "",
    "SMILES": "C(=O)C1=CC(Cl)=C(O)C=C1",
    "meta_data": {
        "InChI": "InChI=1S/C7H5ClO2/c8-6-3-5(4-9)1-2-7(6)10/h1-4,10H",
        "InChIKey": null,
        "Canonical SMILES": "O=CC1=CC=C(O)C(Cl)=C1",
        "Molecular Formula": "C<sub>7</sub>H<sub>5</sub>ClO<sub>2</sub>",
        "Molecular Mass": "156.57",
        "Melting Point": "139 °C"
    }
}