{
    "cas_no": "824-45-3",
    "key_name": "2,5-Dimethylbenzyl chloride",
    "cn_name": "2,5-二甲基苄氯;2,5-二甲基苄基氯;2,5-二甲基苯甲基氯;",
    "alternate_name": "Benzene, 2-(chloromethyl)-1,4-dimethyl-;2-(Chloromethyl)-1,4-dimethylbenzene;2,5-Dimethylbenzyl chloride;(Chloromethyl)-<em>p</em>-xylene;2-Chloromethyl-<em>p</em>-xylene;1-(Chloromethyl)-2,5-dimethylbenzene;1,4-Dimethyl-2-chloromethylbenzene;NSC 133437;2-Chloromethyl-1,4-dimethylbenzene",
    "duplicated_cas_no": "",
    "SMILES": "C(Cl)C1=C(C)C=CC(C)=C1",
    "meta_data": {
        "InChI": "InChI=1S/C9H11Cl/c1-7-3-4-8(2)9(5-7)6-10/h3-5H,6H2,1-2H3",
        "InChIKey": null,
        "Canonical SMILES": "ClCC1=CC(=CC=C1C)C",
        "Molecular Formula": "C<sub>9</sub>H<sub>11</sub>Cl",
        "Molecular Mass": "154.64",
        "Boiling Point": "120-121 °C @ Press: 23 Torr",
        "Melting Point": "145-147 °C",
        "Density": "0.955 g/cm³ @ Temp: 20 °C"
    }
}