{
    "cas_no": "2305-25-1",
    "key_name": "(±)-Ethyl 3-Hydroxyhexanoate",
    "cn_name": "3-羟基己酸乙酯;",
    "alternate_name": "Hexanoic acid, 3-hydroxy-, ethyl ester;Caproic acid, β-hydroxy-, ethyl ester;Ethyl 3-hydroxyhexanoate;(±)-Ethyl 3-Hydroxyhexanoate;3-Hydroxy-hexanoic acid ethyl ester",
    "duplicated_cas_no": "123807-92-1",
    "SMILES": "C(CC(OCC)=O)(CCC)O",
    "meta_data": {
        "InChI": "InChI=1S/C8H16O3/c1-3-5-7(9)6-8(10)11-4-2/h7,9H,3-6H2,1-2H3",
        "InChIKey": null,
        "Canonical SMILES": "O=C(OCC)CC(O)CCC",
        "Molecular Formula": "C<sub>8</sub>H<sub>16</sub>O<sub>3</sub>",
        "Molecular Mass": "160.21",
        "Boiling Point": "95 °C @ Press: 12 Torr"
    }
}