{
    "cas_no": "22078-59-7",
    "key_name": "5-(3-Chlorophenyl)-2-furancarboxaldehyde",
    "cn_name": "5-(3-氯苯)糠醛;",
    "alternate_name": "2-Furancarboxaldehyde, 5-(3-chlorophenyl)-;2-Furaldehyde, 5-(<em>m</em>-chlorophenyl)-;5-(3-Chlorophenyl)-2-furancarboxaldehyde;5-(<em>m</em>-Chlorophenyl)-2-furaldehyde;5-(3-Chlorophenyl)-2-furaldehyde",
    "duplicated_cas_no": "",
    "SMILES": "C(=O)C=1OC(=CC1)C2=CC(Cl)=CC=C2",
    "meta_data": {
        "InChI": "InChI=1S/C11H7ClO2/c12-9-3-1-2-8(6-9)11-5-4-10(7-13)14-11/h1-7H",
        "InChIKey": null,
        "Canonical SMILES": "O=CC=1OC(=CC1)C=2C=CC=C(Cl)C2",
        "Molecular Formula": "C<sub>11</sub>H<sub>7</sub>ClO<sub>2</sub>",
        "Molecular Mass": "206.63",
        "Melting Point": "97.5-98 °C"
    }
}