{
    "cas_no": "541-22-0",
    "key_name": "Decamethonium bromide",
    "cn_name": "N,N,N,N\",N\",N\"-六甲基-二溴化-1,10-癸铵;",
    "alternate_name": "1,10-Decanediaminium, <em>N</em><sup>1</sup>,<em>N</em><sup>1</sup>,<em>N</em><sup>1</sup>,<em>N</em><sup>10</sup>,<em>N</em><sup>10</sup>,<em>N</em><sup>10</sup>-hexamethyl-, bromide (1:2);Ammonium, decamethylenebis[trimethyl-, dibromide;1,10-Decanediaminium, <em>N</em>,<em>N</em>,<em>N</em>,<em>N</em>′,<em>N</em>′,<em>N</em>′-hexamethyl-, dibromide;Ammonium, decamethylenebis[trimethyl- bromide];C 10 (onium compound);Decamethonium dibromide;Decamethylenebis[trimethylammonium bromide];Decamethylene-1,10-bistrimethylammonium dibromide;Syncurine;Decamethonium bromide;Decacuran;C 10",
    "duplicated_cas_no": "60869-65-0",
    "SMILES": "C([N+](C)(C)C)CCCCCCCCC[N+](C)(C)C.[Br-]",
    "meta_data": {
        "InChI": "InChI=1S/C16H38N2.2BrH/c1-17(2,3)15-13-11-9-7-8-10-12-14-16-18(4,5)6;;/h7-16H2,1-6H3;2*1H/q+2;;/p-2",
        "InChIKey": null,
        "Canonical SMILES": "[Br-].C[N+](C)(C)CCCCCCCCCC[N+](C)(C)C",
        "Molecular Formula": "C<sub>16</sub>H<sub>38</sub>N<sub>2</sub>.2Br",
        "Molecular Mass": "",
        "Melting Point": "268-270 °C (decomp)"
    }
}