{
    "cas_no": "51-83-2",
    "key_name": "Carbachol",
    "cn_name": "卡巴胆碱;氯化铵甲酰胆碱;氨甲酰胆碱盐酸盐;卡巴可;(2-氨基甲酰氧乙基)三甲基氯化铵;",
    "alternate_name": "Ethanaminium, 2-[(aminocarbonyl)oxy]-<em>N</em>,<em>N</em>,<em>N</em>-trimethyl-, chloride (1:1);Choline, chloride, carbamate;Ethanaminium, 2-[(aminocarbonyl)oxy]-<em>N</em>,<em>N</em>,<em>N</em>-trimethyl-, chloride;Carbachol;Carbachol chloride;Carbacholine;Carbacholine chloride;Carbaminoylcholine chloride;Carbamoylcholine chloride;Carbamylcholine chloride;Carbochol;Carbocholine;Carcholin;Choline carbamate chloride;γ-Carbamoyl choline chloride;Doryl;(2-Hydroxyethyl)trimethyl ammonium chloride carbamate;Jestryl;Lentin;Moryl;Carbaminocholine chloride;Coletyl;Vasoperif;Doryl (pharmaceutical);Carbamiotin;Carbocholin;Carbyl;Carbacholin;Carbacolina;(2-Carbamoyloxyethyl)trimethylammonium chloride;Carbamoylcholine-hydrochloride;Miostat;Isopto Carbachol;Carbastat Intraocular;2-(Trimethylazaniumyl)ethyl carbamate chloride;MeSH ID: D002217",
    "duplicated_cas_no": "",
    "SMILES": "C(COC(N)=O)[N+](C)(C)C.[Cl-]",
    "meta_data": {
        "InChI": "InChI=1S/C6H14N2O2.ClH/c1-8(2,3)4-5-10-6(7)9;/h4-5H2,1-3H3,(H-,7,9);1H",
        "InChIKey": null,
        "Canonical SMILES": "[Cl-].O=C(OCC[N+](C)(C)C)N",
        "Molecular Formula": "C<sub>6</sub>H<sub>15</sub>N<sub>2</sub>O<sub>2</sub>.Cl",
        "Molecular Mass": "",
        "Melting Point": "210 °C (decomp)"
    }
}