{
    "cas_no": "607-57-8",
    "key_name": "2-Nitrofluorene",
    "cn_name": "2-硝基芴;",
    "alternate_name": "9<em>H</em>-Fluorene, 2-nitro-;Fluorene, 2-nitro-;2-Nitro-9<em>H</em>-fluorene;2-Nitrofluorene;NSC 5182",
    "duplicated_cas_no": "",
    "SMILES": "N(=O)(=O)C=1C=C2C(C=3C(C2)=CC=CC3)=CC1",
    "meta_data": {
        "InChI": "InChI=1S/C13H9NO2/c15-14(16)11-5-6-13-10(8-11)7-9-3-1-2-4-12(9)13/h1-6,8H,7H2",
        "InChIKey": null,
        "Canonical SMILES": "O=N(=O)C1=CC=C2C=3C=CC=CC3CC2=C1",
        "Molecular Formula": "C<sub>13</sub>H<sub>9</sub>NO<sub>2</sub>",
        "Molecular Mass": "211.22",
        "Melting Point": "158 °C"
    }
}