{
    "cas_no": "707-07-3",
    "key_name": "Trimethyl orthobenzoate",
    "cn_name": "原苯甲酸三甲酯;",
    "alternate_name": "Benzene, (trimethoxymethyl)-;Orthobenzoic acid, trimethyl ester;(Trimethoxymethyl)benzene;Trimethyl orthobenzoate;Methyl orthobenzoate;Trimethoxyphenylmethane;α,α,α-Trimethoxytoluene;NSC 67391",
    "duplicated_cas_no": "",
    "SMILES": "C(OC)(OC)(OC)C1=CC=CC=C1",
    "meta_data": {
        "InChI": "InChI=1S/C10H14O3/c1-11-10(12-2,13-3)9-7-5-4-6-8-9/h4-8H,1-3H3",
        "InChIKey": null,
        "Canonical SMILES": "O(C)C(OC)(OC)C=1C=CC=CC1",
        "Molecular Formula": "C<sub>10</sub>H<sub>14</sub>O<sub>3</sub>",
        "Molecular Mass": "182.22",
        "Boiling Point": "90 °C @ Press: 35 Torr"
    }
}