{
    "cas_no": "10102-45-1",
    "key_name": "Thallium(I) nitrate",
    "cn_name": "硝酸亚铊;硝酸亚铊(I);",
    "alternate_name": "Nitric acid, thallium(1+) salt (1:1);Nitric acid, thallium(1+) salt;Thallium nitrate;Thallium nitrate (Tl(NO<sub>3</sub>));Thallium(1+) nitrate;Thallous nitrate;Thallium mononitrate;Thallium(I) nitrate",
    "duplicated_cas_no": "",
    "SMILES": "N(=O)(=O)O.[Tl]",
    "meta_data": {
        "InChI": "InChI=1S/HNO3.Tl/c2-1(3)4;/h(H,2,3,4);",
        "InChIKey": null,
        "Canonical SMILES": "[Tl].O=N(=O)O",
        "Molecular Formula": "HNO<sub>3</sub>.Tl",
        "Molecular Mass": "",
        "Melting Point": "206 °C",
        "Density": "5.556 g/cm³ @ Temp: 21 °C"
    }
}