{
    "cas_no": "22525-43-5",
    "key_name": "4-[2-(4-Aminophenyl)ethenyl]-<em>N</em>,<em>N</em>-dimethylbenzenamine",
    "cn_name": "4-氨基-4-(N,N-二甲基氨基)1,2-二苯乙烯;",
    "alternate_name": "Benzenamine, 4-[2-(4-aminophenyl)ethenyl]-<em>N</em>,<em>N</em>-dimethyl-;4,4′-Stilbenediamine, <em>N</em>,<em>N</em>-dimethyl-;4-[2-(4-Aminophenyl)ethenyl]-<em>N</em>,<em>N</em>-dimethylbenzenamine;4-(<em>N</em>,<em>N</em>-Dimethylamino)-4′-aminostilbene;4-Amino-4′-(dimethylamino)stilbene;4′-<em>N</em>,<em>N</em>-Dimethylamino-4-aminostilbene",
    "duplicated_cas_no": "",
    "SMILES": "C(=CC1=CC=C(N)C=C1)C2=CC=C(N(C)C)C=C2",
    "meta_data": {
        "InChI": "InChI=1S/C16H18N2/c1-18(2)16-11-7-14(8-12-16)4-3-13-5-9-15(17)10-6-13/h3-12H,17H2,1-2H3",
        "InChIKey": null,
        "Canonical SMILES": "NC1=CC=C(C=C1)C=CC2=CC=C(C=C2)N(C)C",
        "Molecular Formula": "C<sub>16</sub>H<sub>18</sub>N<sub>2</sub>",
        "Molecular Mass": "238.33",
        "Melting Point": "172-173 °C"
    }
}