{
    "cas_no": "2978-58-7",
    "key_name": "1,1-Dimethylpropargylamine",
    "cn_name": "2-甲基-3-丁炔-2-胺;3-氨基-3-甲基-1-丁炔;",
    "alternate_name": "3-Butyn-2-amine, 2-methyl-;2-Propynylamine, 1,1-dimethyl-;2-Methyl-3-butyn-2-amine;1,1-Dimethyl-2-propynylamine;3-Amino-3-methyl-1-butyne;1,1-Dimethylpropargylamine;3-Amino-3-methylbutyne;1,1-Dimethylpropynylamine;2-Methyl-2-amino-3-butyne;2-Methyl-3-butyn-2-ylamine;3-Methyl-3-amino-1-butyne;2-Amino-2-methyl-3-butyne;3-Amino-3,3-dimethyl-1-propyne;1,1-Dimethyl-2-propyn-1-amine;(1,1-Dimethyl-2-propyn-1-yl)amine",
    "duplicated_cas_no": "",
    "SMILES": "C(C#C)(C)(C)N",
    "meta_data": {
        "InChI": "InChI=1S/C5H9N/c1-4-5(2,3)6/h1H,6H2,2-3H3",
        "InChIKey": null,
        "Canonical SMILES": "C#CC(N)(C)C",
        "Molecular Formula": "C<sub>5</sub>H<sub>9</sub>N",
        "Molecular Mass": "83.13",
        "Boiling Point": "79.5 °C",
        "Melting Point": "18 °C"
    }
}