{
    "cas_no": "4383-06-6",
    "key_name": "Isovanillyl alcohol",
    "cn_name": "3-羟基-4-甲氧基苯甲醇;",
    "alternate_name": "Benzenemethanol, 3-hydroxy-4-methoxy-;Benzyl alcohol, 3-hydroxy-4-methoxy-;3-Hydroxy-4-methoxybenzenemethanol;Isovanillyl alcohol;3-Hydroxy-4-methoxybenzyl alcohol;3-Hydroxymethyl-6-methoxyphenol;5-Hydroxymethyl-2-methoxyphenol;NSC 93802",
    "duplicated_cas_no": "",
    "SMILES": "C(O)C1=CC(O)=C(OC)C=C1",
    "meta_data": {
        "InChI": "InChI=1S/C8H10O3/c1-11-8-3-2-6(5-9)4-7(8)10/h2-4,9-10H,5H2,1H3",
        "InChIKey": null,
        "Canonical SMILES": "OC1=CC(=CC=C1OC)CO",
        "Molecular Formula": "C<sub>8</sub>H<sub>10</sub>O<sub>3</sub>",
        "Molecular Mass": "154.16",
        "Melting Point": "136 °C"
    }
}