{
    "cas_no": "6051-13-4",
    "key_name": "2-Cyclohexylpropanoic acid",
    "cn_name": null,
    "alternate_name": "Cyclohexaneacetic acid, α-methyl-;α-Methylcyclohexaneacetic acid;Propanoic acid, 2-cyclohexyl-;2-Cyclohexylpropionic acid;2-Cyclohexylpropanoic acid;NSC 225250",
    "duplicated_cas_no": "4850-68-4;1628063-40-0",
    "SMILES": "C(C(O)=O)(C)C1CCCCC1",
    "meta_data": {
        "InChI": "InChI=1S/C9H16O2/c1-7(9(10)11)8-5-3-2-4-6-8/h7-8H,2-6H2,1H3,(H,10,11)",
        "InChIKey": null,
        "Canonical SMILES": "O=C(O)C(C)C1CCCCC1",
        "Molecular Formula": "C<sub>9</sub>H<sub>16</sub>O<sub>2</sub>",
        "Molecular Mass": "156.22",
        "Boiling Point": "120-121 °C @ Press: 4.7 Torr",
        "Melting Point": "62 °C",
        "Density": "1.0270 g/cm³ @ Temp: 20 °C"
    }
}