{
    "cas_no": "110-82-7",
    "key_name": "Cyclohexane",
    "cn_name": "环己烷;",
    "alternate_name": "Cyclohexane;Benzene, hexahydro-;Hexahydrobenzene;Hexamethylene;Hexanaphthene;NSC 406835;Cactus Solvent CHX",
    "duplicated_cas_no": "",
    "SMILES": "C1CCCCC1",
    "meta_data": {
        "InChI": "InChI=1S/C6H12/c1-2-4-6-5-3-1/h1-6H2",
        "InChIKey": null,
        "Canonical SMILES": "C1CCCCC1",
        "Molecular Formula": "C<sub>6</sub>H<sub>12</sub>",
        "Molecular Mass": "84.16",
        "Boiling Point": "80.7 °C @ Press: 760 Torr",
        "Melting Point": "6.47 °C",
        "Density": "0.7781 g/cm³ @ Temp: 20 °C"
    }
}