{
    "cas_no": "31712-49-9",
    "key_name": "Hesperetin 7-glucoside",
    "cn_name": null,
    "alternate_name": "4<em>H</em>-1-Benzopyran-4-one, 7-(β-<span class=\"text-smallcaps\">D</span>-glucopyranosyloxy)-2,3-dihydro-5-hydroxy-2-(3-hydroxy-4-methoxyphenyl)-, (2<em>S</em>)-;4<em>H</em>-1-Benzopyran-4-one, 7-(β-<span class=\"text-smallcaps\">D</span>-glucopyranosyloxy)-2,3-dihydro-5-hydroxy-2-(3-hydroxy-4-methoxyphenyl)-, (<em>S</em>)-;Flavanone, 3′,5,7-trihydroxy-4′-methoxy-, 7-β-<span class=\"text-smallcaps\">D</span>-glucopyranoside;Glucopyranoside, hesperetin-7, β-<span class=\"text-smallcaps\">D</span>-;(2<em>S</em>)-7-(β-<span class=\"text-smallcaps\">D</span>-Glucopyranosyloxy)-2,3-dihydro-5-hydroxy-2-(3-hydroxy-4-methoxyphenyl)-4<em>H</em>-1-benzopyran-4-one;Hesperetin 7-glucoside;Hesperetin 7-<em>O</em>-glucoside;Hesperetin 7-<em>O</em>-β-<span class=\"text-smallcaps\">D</span>-glucopyranoside;Hesperitin-7-β-<span class=\"text-smallcaps\">D</span>-glucoside",
    "duplicated_cas_no": "2500-68-7;114248-44-1;2280043-97-0",
    "SMILES": "O=C1C=2C(O[C@@H](C1)C3=CC(O)=C(OC)C=C3)=CC(O[C@@H]4O[C@H](CO)[C@@H](O)[C@H](O)[C@H]4O)=CC2O",
    "meta_data": {
        "InChI": "InChI=1S/C22H24O11/c1-30-14-3-2-9(4-11(14)24)15-7-13(26)18-12(25)5-10(6-16(18)32-15)31-22-21(29)20(28)19(27)17(8-23)33-22/h2-6,15,17,19-25,27-29H,7-8H2,1H3/t15-,17+,19+,20-,21+,22+/m0/s1",
        "InChIKey": null,
        "Canonical SMILES": "O=C1C2=C(O)C=C(OC3OC(CO)C(O)C(O)C3O)C=C2OC(C4=CC=C(OC)C(O)=C4)C1",
        "Molecular Formula": "C<sub>22</sub>H<sub>24</sub>O<sub>11</sub>",
        "Molecular Mass": "464.42",
        "Melting Point": "206-207 °C"
    }
}