{
    "cas_no": "58-19-5",
    "key_name": "Dromostanolone",
    "cn_name": "屈他雄酮;(2a,5a,17b)-17-羟基-2-甲基雄烷-3-酮;",
    "alternate_name": "Androstan-3-one, 17-hydroxy-2-methyl-, (2α,5α,17β)-;5α-Androstan-3-one, 17β-hydroxy-2α-methyl-;(2α,5α,17β)-17-Hydroxy-2-methylandrostan-3-one;Dihydro-2α-methyltestosterone;Dromostanolone;Drostanolone;17β-Hydroxy-2α-methyl-5α-androstan-3-one;Metholone;2α-Methyl-5α-androstan-17β-ol-3-one;2α-Methyl-17β-hydroxyandrostan-3-one;Medrotestron;2α-Methyl-17β-hydroxy-5α-androstan-3-one;2α-Methyl-5α-dihydrotestosterone",
    "duplicated_cas_no": "",
    "SMILES": "C[C@@]12[C@@]3([C@]([C@]4([C@](C)(CC3)[C@@H](O)CC4)[H])(CC[C@]1(CC(=O)[C@H](C)C2)[H])[H])[H]",
    "meta_data": {
        "InChI": "InChI=1S/C20H32O2/c1-12-11-20(3)13(10-17(12)21)4-5-14-15-6-7-18(22)19(15,2)9-8-16(14)20/h12-16,18,22H,4-11H2,1-3H3/t12-,13+,14+,15+,16+,18+,19+,20+/m1/s1",
        "InChIKey": null,
        "Canonical SMILES": "O=C1CC2CCC3C4CCC(O)C4(C)CCC3C2(C)CC1C",
        "Molecular Formula": "C<sub>20</sub>H<sub>32</sub>O<sub>2</sub>",
        "Molecular Mass": "304.47",
        "Melting Point": "151 °C"
    }
}