{
    "cas_no": "602-94-8",
    "key_name": "Pentafluorobenzoic acid",
    "cn_name": "2,3,4,5,6-五氟苯甲酸;",
    "alternate_name": "Benzoic acid, 2,3,4,5,6-pentafluoro-;Benzoic acid, pentafluoro-;2,3,4,5,6-Pentafluorobenzoic acid;Pentafluorobenzoic acid;Perfluorobenzoic acid;NSC 88337",
    "duplicated_cas_no": "",
    "SMILES": "C(O)(=O)C1=C(F)C(F)=C(F)C(F)=C1F",
    "meta_data": {
        "InChI": "InChI=1S/C7HF5O2/c8-2-1(7(13)14)3(9)5(11)6(12)4(2)10/h(H,13,14)",
        "InChIKey": null,
        "Canonical SMILES": "O=C(O)C=1C(F)=C(F)C(F)=C(F)C1F",
        "Molecular Formula": "C<sub>7</sub>HF<sub>5</sub>O<sub>2</sub>",
        "Molecular Mass": "212.07",
        "Boiling Point": "220 °C",
        "Melting Point": "101 °C",
        "Density": "1.94 g/cm³"
    }
}