{
    "cas_no": "82-44-0",
    "key_name": "1-Chloroanthraquinone",
    "cn_name": "1-氯蒽醌;",
    "alternate_name": "9,10-Anthracenedione, 1-chloro-;Anthraquinone, 1-chloro-;1-Chloro-9,10-anthracenedione;1-Chloroanthraquinone;1-Chloro-9,10-anthraquinone;α-Chloroanthraquinone;α-Monochloroanthraquinone;NSC 30428;NSC 5138;1-Chloro-9,10-dihydroanthracene-9,10-dione",
    "duplicated_cas_no": "",
    "SMILES": "O=C1C=2C(C(=O)C=3C1=CC=CC3)=CC=CC2Cl",
    "meta_data": {
        "InChI": "InChI=1S/C14H7ClO2/c15-11-7-3-6-10-12(11)14(17)9-5-2-1-4-8(9)13(10)16/h1-7H",
        "InChIKey": null,
        "Canonical SMILES": "O=C1C=2C=CC=CC2C(=O)C=3C(Cl)=CC=CC13",
        "Molecular Formula": "C<sub>14</sub>H<sub>7</sub>ClO<sub>2</sub>",
        "Molecular Mass": "242.66",
        "Melting Point": "162 °C"
    }
}