{
    "cas_no": "1948-31-8",
    "key_name": "<span class=\"text-smallcaps\">L</smallcap>-Alanyl-<smallcap>L</span>-alanine",
    "cn_name": "L-丙氨酰-L-丙氨酸;L-丙氨酰-L-丙胺酸;L-丙氨酰-L-氨基丙酸;",
    "alternate_name": "<span class=\"text-smallcaps\">L</smallcap>-Alanine, <smallcap>L</span>-alanyl-;Alanine, <em>N</em>-<span class=\"text-smallcaps\">L</smallcap>-alanyl-, <smallcap>L</span>-;<span class=\"text-smallcaps\">L</smallcap>-Alanine, <em>N</em>-<smallcap>L</span>-alanyl-;<span class=\"text-smallcaps\">L</smallcap>-Alanyl-<smallcap>L</span>-alanine;Dialanine;α-Alanylalanine;Di-<span class=\"text-smallcaps\">L</span>-alanine;NSC 89598;124: PN: WO2006024694 SEQID: 124 claimed protein;18: PN: US20100215657 SEQID: 18 claimed protein;73: PN: US20110195077 SEQID: 18 claimed sequence;14: PN: WO2014063098 TABLE: 5 claimed protein;11: PN: WO2011146121 PAGE: 113 claimed sequence;10: PN: WO2013027191 SEQID: 18 claimed sequence;109: PN: US20130123467 SEQID: 133 claimed protein;1: PN: WO2013168108 PAGE: 128 claimed sequence;9: PN: WO2014102104 SEQID: 108 claimed protein;9: PN: WO2014102101 SEQID: 309 claimed protein;49: PN: WO2014102103 TABLE: 1 claimed protein;28: PN: WO2014102100 TABLE: 1 claimed protein;8: PN: WO2016088059 SEQID: 18 claimed sequence;3: PN: WO2016096741 SEQID: 26 claimed protein;DNA (synthetic CD8 antigen transmembrane domain);25: PN: WO2018040537 SEQID: 43 claimed DNA;3: PN: JP2019112401 FIGURE: 3 claimed sequence;3: PN: WO2020009548 SEQID: 3 claimed protein;321: PN: WO2021146320 SEQID: 321 claimed protein;113: PN: WO2021164722 SEQID: 113 claimed protein;7: PN: WO2021219786 SEQID: 7 claimed protein;93: PN: WO2022006370 SEQID: 93 claimed protein;23: PN: WO2022081822 SEQID: 23 claimed protein;253: PN: WO2022177963 SEQID: 354 claimed protein;354: PN: WO2022175413 SEQID: 470 claimed protein;3: PN: WO2022192664 PAGE: 110 claimed sequence;1: PN: WO2022218941 PAGE: 253 claimed sequence;70: PN: WO2022240360 SEQID: 78 claimed protein;5: PN: WO2023056433 PAGE: 60 claimed sequence",
    "duplicated_cas_no": "2392-61-2",
    "SMILES": "[C@@H](NC([C@H](C)N)=O)(C(O)=O)C",
    "meta_data": {
        "InChI": "InChI=1S/C6H12N2O3/c1-3(7)5(9)8-4(2)6(10)11/h3-4H,7H2,1-2H3,(H,8,9)(H,10,11)/t3-,4-/m0/s1",
        "InChIKey": null,
        "Canonical SMILES": "O=C(O)C(NC(=O)C(N)C)C",
        "Molecular Formula": "C<sub>6</sub>H<sub>12</sub>N<sub>2</sub>O<sub>3</sub>",
        "Molecular Mass": "160.17",
        "Melting Point": "297 °C (decomp)"
    }
}