{
    "cas_no": "3321-03-7",
    "key_name": "Glycylphenylalanine",
    "cn_name": "甘氨酰-L-苯丙氨酸;甘氨酰苯基丙氨酸;",
    "alternate_name": "<span class=\"text-smallcaps\">L</span>-Phenylalanine, glycyl-;Alanine, <em>N</em>-glycyl-3-phenyl-, <span class=\"text-smallcaps\">L</span>-;<span class=\"text-smallcaps\">L</span>-Phenylalanine, <em>N</em>-glycyl-;Glycyl-<span class=\"text-smallcaps\">L</span>-phenylalanine;Glycylphenylalanine;<em>N</em>-Glycyl-<span class=\"text-smallcaps\">L</span>-phenylalanine;<em>N</em>-Glycylphenylalanine;NSC 88881;85: PN: EP2161028 PAGE: 10 claimed protein;7: PN: WO2014063098 TABLE: 5 claimed protein;43: PN: US20130123467 SEQID: 48 claimed protein;(2S)-2-(2-Aminoacetamido)-3-phenylpropanoic acid;(2S)-2-[(2-Azaniumylacetyl)amino]-3-phenylpropanoate;(<em>S</em>)-2-(2-Aminoacetamido)-3-phenylpropanoicacid;49: PN: WO2021211467 SEQID: 202 claimed sequence;512: PN: WO2022056313 SEQID: 527 claimed protein;358: PN: US20220128567 SEQID: 527 claimed protein;358: PN: US20220178935 SEQID: 527 claimed protein;481: PN: WO2022215055 SEQID: 481 claimed protein;3: PN: WO2023035719 SEQID: 3 claimed protein;306: PN: WO2023161197 SEQID: 308 claimed sequence",
    "duplicated_cas_no": "6491-52-7",
    "SMILES": "[C@@H](CC1=CC=CC=C1)(NC(CN)=O)C(O)=O",
    "meta_data": {
        "InChI": "InChI=1S/C11H14N2O3/c12-7-10(14)13-9(11(15)16)6-8-4-2-1-3-5-8/h1-5,9H,6-7,12H2,(H,13,14)(H,15,16)/t9-/m0/s1",
        "InChIKey": null,
        "Canonical SMILES": "O=C(O)C(NC(=O)CN)CC=1C=CC=CC1",
        "Molecular Formula": "C<sub>11</sub>H<sub>14</sub>N<sub>2</sub>O<sub>3</sub>",
        "Molecular Mass": "222.24",
        "Melting Point": "267 °C"
    }
}