{
    "cas_no": "1945-92-2",
    "key_name": "2-[(2,4-Dinitrophenyl)amino]ethanol",
    "cn_name": "2,4-二硝基-N-(2-羟乙基)苯胺;2,4-二硝基-N-(2-羟乙基)苯胺;",
    "alternate_name": "Ethanol, 2-[(2,4-dinitrophenyl)amino]-;Ethanol, 2-(2,4-dinitroanilino)-;2-[(2,4-Dinitrophenyl)amino]ethanol;2,4-Dinitrophenylaminoethanol;<em>N</em>-(2,4-Dinitrophenyl)ethanolamine;NSC 24188;2-(2,4-Dinitrophenylamino)ethanol;2,4-Dinitro-<em>N</em>-(2-hydroxyethyl)aniline;2-(2,4-Dinitroanilino)ethanol;2-[(2,4-Dinitrophenyl)amino]ethan-1-ol",
    "duplicated_cas_no": "",
    "SMILES": "N(=O)(=O)C1=C(NCCO)C=CC(N(=O)=O)=C1",
    "meta_data": {
        "InChI": "InChI=1S/C8H9N3O5/c12-4-3-9-7-2-1-6(10(13)14)5-8(7)11(15)16/h1-2,5,9,12H,3-4H2",
        "InChIKey": null,
        "Canonical SMILES": "O=N(=O)C1=CC=C(NCCO)C(=C1)N(=O)=O",
        "Molecular Formula": "C<sub>8</sub>H<sub>9</sub>N<sub>3</sub>O<sub>5</sub>",
        "Molecular Mass": "227.17",
        "Melting Point": "90 °C"
    }
}