{
    "cas_no": "1469-94-9",
    "key_name": "1-(2-Hydroxyphenyl)-3-phenyl-1,3-propanedione",
    "cn_name": "苯甲酰(2-羟基苯酰)甲烷;苯甲酰(2-羟基苯酰)甲烷,98%;苯甲酰(2-羟基苯酰)甲烷;苯甲酰(2-羟基苯甲酰)甲烷;",
    "alternate_name": "1,3-Propanedione, 1-(2-hydroxyphenyl)-3-phenyl-;1,3-Propanedione, 1-(<em>o</em>-hydroxyphenyl)-3-phenyl-;1-(2-Hydroxyphenyl)-3-phenyl-1,3-propanedione;2-<em>o</em>-Hydroxybenzoylacetophenone;2′-Hydroxydibenzoylmethane;α-Benzoyl-2-hydroxyacetophenone;NSC 31881;NSC 631975;1-(2′-Hydroxyphenyl)-3-phenylpropane-1,3-dione",
    "duplicated_cas_no": "",
    "SMILES": "C(CC(=O)C1=CC=CC=C1)(=O)C2=C(O)C=CC=C2",
    "meta_data": {
        "InChI": "InChI=1S/C15H12O3/c16-13-9-5-4-8-12(13)15(18)10-14(17)11-6-2-1-3-7-11/h1-9,16H,10H2",
        "InChIKey": null,
        "Canonical SMILES": "O=C(C=1C=CC=CC1)CC(=O)C=2C=CC=CC2O",
        "Molecular Formula": "C<sub>15</sub>H<sub>12</sub>O<sub>3</sub>",
        "Molecular Mass": "240.25",
        "Melting Point": "118-120 °C"
    }
}