{
    "cas_no": "38690-77-6",
    "key_name": "4-Cyanophenyl 4-butylbenzoate",
    "cn_name": "4-丁基苯甲酸-4-氰基苯酯;",
    "alternate_name": "Benzoic acid, 4-butyl-, 4-cyanophenyl ester;<em>p</em>-Cyanophenyl <em>p</em>′-butylbenzoate;<em>p</em>-Cyanophenyl <em>p</em>-butylbenzoate;4-Cyanophenyl 4-butylbenzoate;<em>p</em>′-Cyanophenyl <em>p</em>-butylbenzoate;4′-Cyanophenyl 4-butylbenzoate;4-Cyanophenyl 4′-butylbenzoate;ZhK 487;<em>p</em>-Cyanophenyl <em>p</em>-<em>n</em>-butylbenzoate;4-BEB-C",
    "duplicated_cas_no": "",
    "SMILES": "O(C(=O)C1=CC=C(CCCC)C=C1)C2=CC=C(C#N)C=C2",
    "meta_data": {
        "InChI": "InChI=1S/C18H17NO2/c1-2-3-4-14-5-9-16(10-6-14)18(20)21-17-11-7-15(13-19)8-12-17/h5-12H,2-4H2,1H3",
        "InChIKey": null,
        "Canonical SMILES": "N#CC1=CC=C(OC(=O)C2=CC=C(C=C2)CCCC)C=C1",
        "Molecular Formula": "C<sub>18</sub>H<sub>17</sub>NO<sub>2</sub>",
        "Molecular Mass": "279.33",
        "Melting Point": "-20 °C"
    }
}