{
    "cas_no": "30560-19-1",
    "key_name": "Acephate",
    "cn_name": "乙酰甲胺磷;杀虫灵;O-甲基-S-甲基-N-乙酰基-硫代磷酰胺;",
    "alternate_name": "Phosphoramidothioic acid, <em>N</em>-acetyl-, <em>O</em>,<em>S</em>-dimethyl ester;Phosphoramidothioic acid, acetyl-, <em>O</em>,<em>S</em>-dimethyl ester;RE 12420;<em>O</em>,<em>S</em>-Dimethyl <em>N</em>-acetylphosphoramidothioate;Acephate;Orthene;Orthene-755;<em>O</em>,<em>S</em>-Dimethyl acetylphosphoramidothioate;Acetamidophos;Ortran;<em>O</em>,<em>S</em>-Dimethyl <em>N</em>-acetylphosphoramidothiolate;DMAP;Acefate;Orthene PCO;Asataf;Orthene 75SP;Payload;Orthene S;Precise;Orthene TTO 97;Orthene TTO;Fire Ant Hayter Bait;Ant Hayter;Lepitect;Orthene 97;Aciphid;Orthorane",
    "duplicated_cas_no": "115096-11-2",
    "SMILES": "P(NC(C)=O)(OC)(SC)=O",
    "meta_data": {
        "InChI": "InChI=1S/C4H10NO3PS/c1-4(6)5-9(7,8-2)10-3/h1-3H3,(H,5,6,7)",
        "InChIKey": null,
        "Canonical SMILES": "O=C(NP(=O)(OC)SC)C",
        "Molecular Formula": "C<sub>4</sub>H<sub>10</sub>NO<sub>3</sub>PS",
        "Molecular Mass": "183.17",
        "Melting Point": "82-89 °C",
        "Density": "1.4 g/cm³"
    }
}