{
    "cas_no": "90774-69-9",
    "key_name": "Benzenamine, 4-(trifluoromethyl)-, hydrochloride (1:1)",
    "cn_name": "4-三氟甲基苯胺盐酸盐;",
    "alternate_name": "Benzenamine, 4-(trifluoromethyl)-, hydrochloride (1:1);Benzenamine, 4-(trifluoromethyl)-, hydrochloride;4-(Trifluoromethyl)aniline hydrochloride;<em>p</em>-(Trifluoromethyl)anilinium chloride;<em>p</em>-(Trifluoromethyl)aniline hydrochloride",
    "duplicated_cas_no": "",
    "SMILES": "C(F)(F)(F)C1=CC=C(N)C=C1.Cl",
    "meta_data": {
        "InChI": "InChI=1S/C7H6F3N.ClH/c8-7(9,10)5-1-3-6(11)4-2-5;/h1-4H,11H2;1H",
        "InChIKey": null,
        "Canonical SMILES": "Cl.FC(F)(F)C1=CC=C(N)C=C1",
        "Molecular Formula": "C<sub>7</sub>H<sub>6</sub>F<sub>3</sub>N.ClH",
        "Molecular Mass": "",
        "Melting Point": "199.7-201.5 °C"
    }
}