{
    "cas_no": "23787-80-6",
    "key_name": "2-Acetyl-3-methylpyrazine",
    "cn_name": "2-乙酰基-3-甲基吡嗪;",
    "alternate_name": "Ethanone, 1-(3-methyl-2-pyrazinyl)-;Ketone, methyl 3-methylpyrazinyl;Ethanone, 1-(3-methylpyrazinyl)-;1-(3-Methyl-2-pyrazinyl)ethanone;2-Acetyl-3-methylpyrazine;3-Acetyl-2-methylpyrazine;1-(3-Methylpyrazin-2-yl)ethanone;1-(3-Methylpyrazin-2-yl)ethan-1-one",
    "duplicated_cas_no": "",
    "SMILES": "C(C)(=O)C=1C(C)=NC=CN1",
    "meta_data": {
        "InChI": "InChI=1S/C7H8N2O/c1-5-7(6(2)10)9-4-3-8-5/h3-4H,1-2H3",
        "InChIKey": null,
        "Canonical SMILES": "O=C(C1=NC=CN=C1C)C",
        "Molecular Formula": "C<sub>7</sub>H<sub>8</sub>N<sub>2</sub>O",
        "Molecular Mass": "136.15",
        "Boiling Point": "71 °C @ Press: 6 Torr"
    }
}