{
    "cas_no": "34274-91-4",
    "key_name": "(1<em>R</em>,3<em>Z</em>,4<em>R</em>,4a<em>S</em>,11b<em>R</em>,12a<em>S</em>,13<em>S</em>)-3,4,4a,5,12,12a-Hexahydro-8,10,11-trimethoxy-3-(2-methoxyethylidene)-4,1,11b-ethanylylidene-2<em>H</em>-pyrido[2′,3′:5,6]oxepino[2,3-<em>b</em>]indole",
    "cn_name": null,
    "alternate_name": "4,1,11b-Ethanylylidene-2<em>H</em>-pyrido[2′,3′:5,6]oxepino[2,3-<em>b</em>]indole, 3,4,4a,5,12,12a-hexahydro-8,10,11-trimethoxy-3-(2-methoxyethylidene)-, (1<em>R</em>,3<em>Z</em>,4<em>R</em>,4a<em>S</em>,11b<em>R</em>,12a<em>S</em>,13<em>S</em>)-;Gardneramine oxindole, 1,2-didehydro-2-deoxo-17-deoxy-2,17-epoxy-;(1<em>R</em>,3<em>Z</em>,4<em>R</em>,4a<em>S</em>,11b<em>R</em>,12a<em>S</em>,13<em>S</em>)-3,4,4a,5,12,12a-Hexahydro-8,10,11-trimethoxy-3-(2-methoxyethylidene)-4,1,11b-ethanylylidene-2<em>H</em>-pyrido[2′,3′:5,6]oxepino[2,3-<em>b</em>]indole;Gardneramine;4,1,11b-Ethanylylidene-2<em>H</em>-pyrido[2′,3′:5,6]oxepino[2,3-<em>b</em>]indole, 3,4,4a,5,12,12a-hexahydro-8,10,11-trimethoxy-3-(2-methoxyethylidene)-, [1<em>R</em>-(1α,3<em>Z</em>,4α,4aβ,11bα,12aβ,13<em>S</em>*)]-",
    "duplicated_cas_no": "11052-11-2;33193-71-4",
    "SMILES": "O(C)C1=C2[C@@]34[C@]5([N@]6[C@@](C3)([C@]([C@@](C5)(\\C(=C\\COC)\\C6)[H])(COC4=NC2=C(OC)C=C1OC)[H])[H])[H]",
    "meta_data": {
        "InChI": "InChI=1S/C23H28N2O5/c1-26-6-5-12-10-25-15-9-23-18(25)7-13(12)14(15)11-30-22(23)24-20-16(27-2)8-17(28-3)21(29-4)19(20)23/h5,8,13-15,18H,6-7,9-11H2,1-4H3/b12-5+/t13-,14-,15-,18-,23-/m0/s1",
        "InChIKey": null,
        "Canonical SMILES": "N1=C2OCC3C4C(=CCOC)CN5C3CC2(C6=C1C(OC)=CC(OC)=C6OC)C5C4",
        "Molecular Formula": "C<sub>23</sub>H<sub>28</sub>N<sub>2</sub>O<sub>5</sub>",
        "Molecular Mass": "412.48",
        "Melting Point": "133-134 °C"
    }
}