{
    "cas_no": "19501-58-7",
    "key_name": "(4-Methoxyphenyl)hydrazine hydrochloride",
    "cn_name": "4-甲氧基苯肼盐酸盐;",
    "alternate_name": "Hydrazine, (4-methoxyphenyl)-, hydrochloride (1:1);Hydrazine, (<em>p</em>-methoxyphenyl)-, monohydrochloride;Hydrazine, (4-methoxyphenyl)-, monohydrochloride;Hydrazine, (<em>p</em>-methoxyphenyl)-, hydrochloride;(<em>p</em>-Methoxyphenyl)hydrazine hydrochloride;(4-Methoxyphenyl)hydrazine hydrochloride;<em>p</em>-Anisylhydrazine hydrochloride;1-(<em>p</em>-Methoxyphenyl)hydrazine hydrochloride;(<em>p</em>-Methoxyphenyl)hydrazinium chloride;(4-Methoxyphenyl)hydrazine monohydrochloride;<em>N</em>-(4-Methoxyphenyl)hydrazine hydrochloride;[4-(Methyloxy)phenyl]hydrazine monohydrochloride",
    "duplicated_cas_no": "",
    "SMILES": "N(N)C1=CC=C(OC)C=C1.Cl",
    "meta_data": {
        "InChI": "InChI=1S/C7H10N2O.ClH/c1-10-7-4-2-6(9-8)3-5-7;/h2-5,9H,8H2,1H3;1H",
        "InChIKey": null,
        "Canonical SMILES": "Cl.O(C1=CC=C(C=C1)NN)C",
        "Molecular Formula": "C<sub>7</sub>H<sub>10</sub>N<sub>2</sub>O.ClH",
        "Molecular Mass": "",
        "Melting Point": "160-161 °C"
    }
}