{
    "cas_no": "149-87-1",
    "key_name": "<span class=\"text-smallcaps\">DL</span>-Pyrrolidonecarboxylic acid",
    "cn_name": "DL-焦谷氨酸;",
    "alternate_name": "Proline, 5-oxo-;Proline, 5-oxo-, <span class=\"text-smallcaps\">DL</span>-;<span class=\"text-smallcaps\">DL</span>-Proline, 5-oxo-;5-Oxoproline;<span class=\"text-smallcaps\">DL</span>-Pyrrolidonecarboxylic acid;<span class=\"text-smallcaps\">DL</span>-Pyroglutamate;5-Oxo-<span class=\"text-smallcaps\">DL</span>-proline;(±)-Pyroglutamic acid;<span class=\"text-smallcaps\">DL</span>-Pyroglutamic acid;<span class=\"text-smallcaps\">DL</span>-2-Pyrrolidinone-5-carboxylic acid;<span class=\"text-smallcaps\">DL</span>-2-Pyrrolidone-5-carboxylic acid;(±)-2-Pyrrolidone-5-carboxylic acid;5-Oxopyrrolidine-2-carboxylic acid;NSC 40887",
    "duplicated_cas_no": "",
    "SMILES": "C(O)(=O)C1NC(=O)CC1",
    "meta_data": {
        "InChI": "InChI=1S/C5H7NO3/c7-4-2-1-3(6-4)5(8)9/h3H,1-2H2,(H,6,7)(H,8,9)",
        "InChIKey": null,
        "Canonical SMILES": "O=C(O)C1NC(=O)CC1",
        "Molecular Formula": "C<sub>5</sub>H<sub>7</sub>NO<sub>3</sub>",
        "Molecular Mass": "129.11",
        "Melting Point": "181-183 °C"
    }
}