{
    "cas_no": "12024-22-5",
    "key_name": "Gallium sulfide (Ga<sub>2</sub>S<sub>3</sub>)",
    "cn_name": null,
    "alternate_name": "Gallium sulfide (Ga<sub>2</sub>S<sub>3</sub>);Gallium sesquisulfide;Gallium(3+) sulfide;Digallium trisulfide",
    "duplicated_cas_no": "",
    "SMILES": "[S].[Ga]",
    "meta_data": {
        "InChI": "InChI=1S/Ga.S",
        "InChIKey": null,
        "Canonical SMILES": "[S].[Ga]",
        "Molecular Formula": "Ga.S",
        "Molecular Mass": "",
        "Melting Point": "978 °C"
    }
}