{
    "uri": "substance/pt/12024225",
    "rn": "12024-22-5",
    "name": "Gallium sulfide (Ga<sub>2</sub>S<sub>3</sub>)",
    "images": [],
    "inchi": "InChI=1S/Ga.S",
    "inchiKey": "InChIKey=HLVRMBHKGAMNOI-UHFFFAOYSA-N",
    "smile": "[S].[Ga]",
    "canonicalSmile": "[S].[Ga]",
    "molecularFormula": "Ga.S",
    "molecularMass": "",
    "experimentalProperties": [
        {
            "name": "Melting Point",
            "property": "978 °C",
            "sourceNumber": 1
        }
    ],
    "propertyCitations": [
        {
            "docUri": "document/pt/patent/62092152",
            "sourceNumber": 1,
            "source": "Hewark, Daniel William; GB2433647, A, 2007, CAplus"
        }
    ],
    "synonyms": [
        "Gallium sulfide (Ga<sub>2</sub>S<sub>3</sub>)",
        "Gallium sesquisulfide",
        "Gallium(3+) sulfide",
        "Digallium trisulfide"
    ],
    "replacedRns": [],
    "hasMolfile": true,
    "source": "https://commonchemistry.cas.org/detail?cas_rn=12024-22-5"
}