{
    "cas_no": "7299-91-4",
    "key_name": "Butyl 2-butenoate",
    "cn_name": "巴豆酸丁酯;",
    "alternate_name": "2-Butenoic acid, butyl ester;Crotonic acid, butyl ester;Butyl 2-butenoate;Butyl crotonate;<em>n</em>-Butyl crotonate;<em>n</em>-Butyl 2-butenoate",
    "duplicated_cas_no": "",
    "SMILES": "O(C(C=CC)=O)CCCC",
    "meta_data": {
        "InChI": "InChI=1S/C8H14O2/c1-3-5-7-10-8(9)6-4-2/h4,6H,3,5,7H2,1-2H3",
        "InChIKey": null,
        "Canonical SMILES": "O=C(OCCCC)C=CC",
        "Molecular Formula": "C<sub>8</sub>H<sub>14</sub>O<sub>2</sub>",
        "Molecular Mass": "142.20",
        "Boiling Point": "75-76 °C @ Press: 13 Torr"
    }
}