{
    "cas_no": "105512-06-9",
    "key_name": "Clodinafop-propargyl",
    "cn_name": "炔草酸;炔草酸酯;炔草酯;(R)-2-[4-(5-氯-3-氟-2-吡啶氧基)苯氧基]丙酸炔丙基酯;",
    "alternate_name": "Propanoic acid, 2-[4-[(5-chloro-3-fluoro-2-pyridinyl)oxy]phenoxy]-, 2-propyn-1-yl ester, (2<em>R</em>)-;Propanoic acid, 2-[4-[(5-chloro-3-fluoro-2-pyridinyl)oxy]phenoxy]-, 2-propynyl ester, (<em>R</em>)-;Propanoic acid, 2-[4-[(5-chloro-3-fluoro-2-pyridinyl)oxy]phenoxy]-, 2-propynyl ester, (2<em>R</em>)-;CGA 184927;Clodinafop-propargyl;Topik;(<em>R</em>)-2-[4-[(5-Chloro-3-fluoro-2-pyridinyl)oxy]phenoxy]propionic acid 2-propynyl ester;Prop-2-ynyl (<em>R</em>)-2-[4-(5-chloro-3-fluoropyridin-2-yloxy)phenoxy]propanoate;(R)-(+)-2-[4-(5-Chloro-3-fluoropyridin-2-yloxy)phenoxy]propionic acid propargyl ester",
    "duplicated_cas_no": "126301-94-8;126572-25-6;674310-99-7;934237-35-1",
    "SMILES": "O(C1=C(F)C=C(Cl)C=N1)C2=CC=C(O[C@@H](C(OCC#C)=O)C)C=C2",
    "meta_data": {
        "InChI": "InChI=1S/C17H13ClFNO4/c1-3-8-22-17(21)11(2)23-13-4-6-14(7-5-13)24-16-15(19)9-12(18)10-20-16/h1,4-7,9-11H,8H2,2H3/t11-/m1/s1",
        "InChIKey": null,
        "Canonical SMILES": "O=C(OCC#C)C(OC1=CC=C(OC2=NC=C(Cl)C=C2F)C=C1)C",
        "Molecular Formula": "C<sub>17</sub>H<sub>13</sub>ClFNO<sub>4</sub>",
        "Molecular Mass": "349.74",
        "Melting Point": "59.5 °C",
        "Density": "1.37 g/cm³ @ Temp: 22 °C"
    }
}