{
    "cas_no": "5283-66-9",
    "key_name": "Octyltrichlorosilane",
    "cn_name": "辛基三氯化硅烷;",
    "alternate_name": "Silane, trichlorooctyl-;Trichlorooctylsilane;Octyltrichlorosilane;P 09830;LS 2190;<em>n</em>-Octyltrichlorosilane;OTS 8",
    "duplicated_cas_no": "",
    "SMILES": "C(CCCCCCC)[Si](Cl)(Cl)Cl",
    "meta_data": {
        "InChI": "InChI=1S/C8H17Cl3Si/c1-2-3-4-5-6-7-8-12(9,10)11/h2-8H2,1H3",
        "InChIKey": null,
        "Canonical SMILES": "Cl[Si](Cl)(Cl)CCCCCCCC",
        "Molecular Formula": "C<sub>8</sub>H<sub>17</sub>Cl<sub>3</sub>Si",
        "Molecular Mass": "247.67",
        "Boiling Point": "232 °C",
        "Density": "1.074 g/cm³"
    }
}