{
    "cas_no": "122-69-0",
    "key_name": "Cinnamyl cinnamate",
    "cn_name": "桂酸桂酯;",
    "alternate_name": "2-Propenoic acid, 3-phenyl-, 3-phenyl-2-propen-1-yl ester;Cinnamic acid, cinnamyl ester;Styracin;2-Propenoic acid, 3-phenyl-, 3-phenyl-2-propenyl ester;Cinnamyl alcohol, cinnamate;Cinnamyl cinnamate;Phenylallyl cinnamate;NSC 46161",
    "duplicated_cas_no": "",
    "SMILES": "C(=CC(OCC=CC1=CC=CC=C1)=O)C2=CC=CC=C2",
    "meta_data": {
        "InChI": "InChI=1S/C18H16O2/c19-18(14-13-17-10-5-2-6-11-17)20-15-7-12-16-8-3-1-4-9-16/h1-14H,15H2",
        "InChIKey": null,
        "Canonical SMILES": "O=C(OCC=CC=1C=CC=CC1)C=CC=2C=CC=CC2",
        "Molecular Formula": "C<sub>18</sub>H<sub>16</sub>O<sub>2</sub>",
        "Molecular Mass": "264.32",
        "Boiling Point": "370 °C",
        "Melting Point": "44 °C"
    }
}