{
    "cas_no": "65938-79-6",
    "key_name": "3-Methyl-2-pyridinesulfonamide",
    "cn_name": "3-甲基-2-吡啶磺酰胺;",
    "alternate_name": "2-Pyridinesulfonamide, 3-methyl-;3-Methyl-2-pyridinesulfonamide",
    "duplicated_cas_no": "",
    "SMILES": "S(N)(=O)(=O)C1=C(C)C=CC=N1",
    "meta_data": {
        "InChI": "InChI=1S/C6H8N2O2S/c1-5-3-2-4-8-6(5)11(7,9)10/h2-4H,1H3,(H2,7,9,10)",
        "InChIKey": null,
        "Canonical SMILES": "O=S(=O)(N)C1=NC=CC=C1C",
        "Molecular Formula": "C<sub>6</sub>H<sub>8</sub>N<sub>2</sub>O<sub>2</sub>S",
        "Molecular Mass": "172.20",
        "Melting Point": "184-186 °C"
    }
}