{
    "cas_no": "931-34-0",
    "key_name": "5-Bromo-1<em>H</em>-pyrrole-2-carboxaldehyde",
    "cn_name": null,
    "alternate_name": "1<em>H</em>-Pyrrole-2-carboxaldehyde, 5-bromo-;Pyrrole-2-carboxaldehyde, 5-bromo-;5-Bromo-1<em>H</em>-pyrrole-2-carboxaldehyde;5-Bromopyrrole-2-carboxaldehyde;2-Bromo-5-formylpyrrole",
    "duplicated_cas_no": "",
    "SMILES": "C(=O)C=1NC(Br)=CC1",
    "meta_data": {
        "InChI": "InChI=1S/C5H4BrNO/c6-5-2-1-4(3-8)7-5/h1-3,7H",
        "InChIKey": null,
        "Canonical SMILES": "O=CC1=CC=C(Br)N1",
        "Molecular Formula": "C<sub>5</sub>H<sub>4</sub>BrNO",
        "Molecular Mass": "174.00",
        "Melting Point": "93-94 °C"
    }
}