{
    "cas_no": "612-00-0",
    "key_name": "1,1-Diphenylethane",
    "cn_name": "1,1-二苯基乙烷;",
    "alternate_name": "Benzene, 1,1′-ethylidenebis-;Ethane, 1,1-diphenyl-;Ethane, <em>as</em>-diphenyl-;1,1′-Ethylidenebis[benzene];1,1-Diphenylethane;Methyldiphenylmethane;Pabsol 300;NSC 33534;(Ethane-1,1-diyl)dibenzene;1-Phenylethylbenzene;SAS 296 (solvent);SAS 296",
    "duplicated_cas_no": "",
    "SMILES": "C(C)(C1=CC=CC=C1)C2=CC=CC=C2",
    "meta_data": {
        "InChI": "InChI=1S/C14H14/c1-12(13-8-4-2-5-9-13)14-10-6-3-7-11-14/h2-12H,1H3",
        "InChIKey": null,
        "Canonical SMILES": "C=1C=CC(=CC1)C(C=2C=CC=CC2)C",
        "Molecular Formula": "C<sub>14</sub>H<sub>14</sub>",
        "Molecular Mass": "182.26",
        "Boiling Point": "272.6 °C",
        "Melting Point": "-17.9 °C",
        "Density": "0.9997 g/cm³ @ Temp: 2 °C"
    }
}