{
    "cas_no": "13106-53-1",
    "key_name": "Pyridinium, 1-hexadecyl-4-methyl-, chloride (1:1)",
    "cn_name": null,
    "alternate_name": "Pyridinium, 1-hexadecyl-4-methyl-, chloride (1:1);4-Picolinium, 1-hexadecyl-, chloride;Pyridinium, 1-hexadecyl-4-methyl-, chloride;1-Hexadecyl-4-picolinium chloride;<em>N</em>-Hexadecyl-γ-picolinium chloride;1-Hexadecyl-4-methylpyridinium chloride",
    "duplicated_cas_no": "27841-62-9",
    "SMILES": "C(CCCCCCCCCCCCCCC)[N+]=1C=CC(C)=CC1.[Cl-]",
    "meta_data": {
        "InChI": "InChI=1S/C22H40N.ClH/c1-3-4-5-6-7-8-9-10-11-12-13-14-15-16-19-23-20-17-22(2)18-21-23;/h17-18,20-21H,3-16,19H2,1-2H3;1H/q+1;/p-1",
        "InChIKey": null,
        "Canonical SMILES": "[Cl-].C=1C=[N+](C=CC1C)CCCCCCCCCCCCCCCC",
        "Molecular Formula": "C<sub>22</sub>H<sub>40</sub>N.Cl",
        "Molecular Mass": "",
        "Melting Point": "75-76.5 °C"
    }
}