{
    "cas_no": "734-25-8",
    "key_name": "4-Methyl-<em>N</em>-(4-nitrophenyl)benzenesulfonamide",
    "cn_name": "4-硝基苯磺萘;",
    "alternate_name": "Benzenesulfonamide, 4-methyl-<em>N</em>-(4-nitrophenyl)-;<em>p</em>-Toluenesulfonanilide, 4′-nitro-;4-Methyl-<em>N</em>-(4-nitrophenyl)benzenesulfonamide;<em>N</em>-Tosyl-4-nitroaniline;<em>N</em>-Tosyl-<em>p</em>-nitroaniline;<em>N</em>-(4-Nitrophenyl)-<em>p</em>-toluenesulfonamide;NSC 49573;1-Tosylamino-4-nitrobenzene",
    "duplicated_cas_no": "",
    "SMILES": "S(NC1=CC=C(N(=O)=O)C=C1)(=O)(=O)C2=CC=C(C)C=C2",
    "meta_data": {
        "InChI": "InChI=1S/C13H12N2O4S/c1-10-2-8-13(9-3-10)20(18,19)14-11-4-6-12(7-5-11)15(16)17/h2-9,14H,1H3",
        "InChIKey": null,
        "Canonical SMILES": "O=N(=O)C1=CC=C(C=C1)NS(=O)(=O)C2=CC=C(C=C2)C",
        "Molecular Formula": "C<sub>13</sub>H<sub>12</sub>N<sub>2</sub>O<sub>4</sub>S",
        "Molecular Mass": "292.31",
        "Melting Point": "188 °C"
    }
}