{
    "cas_no": "6665-97-0",
    "key_name": "1,3-Dimethoxy-2-nitrobenzene",
    "cn_name": null,
    "alternate_name": "Benzene, 1,3-dimethoxy-2-nitro-;1,3-Dimethoxy-2-nitrobenzene;2-Nitroresorcinol dimethyl ether;2,6-Dimethoxynitrobenzene",
    "duplicated_cas_no": "",
    "SMILES": "N(=O)(=O)C1=C(OC)C=CC=C1OC",
    "meta_data": {
        "InChI": "InChI=1S/C8H9NO4/c1-12-6-4-3-5-7(13-2)8(6)9(10)11/h3-5H,1-2H3",
        "InChIKey": null,
        "Canonical SMILES": "O=N(=O)C=1C(OC)=CC=CC1OC",
        "Molecular Formula": "C<sub>8</sub>H<sub>9</sub>NO<sub>4</sub>",
        "Molecular Mass": "183.16",
        "Melting Point": "129-130 °C"
    }
}