{
    "cas_no": "3400-45-1",
    "key_name": "Cyclopentanecarboxylic acid",
    "cn_name": "环戊酸;环戊甲酸;环戊基甲酸;",
    "alternate_name": "Cyclopentanecarboxylic acid;Cyclopentylcarboxylic acid;Cyclopentanoic acid;NSC 59714",
    "duplicated_cas_no": "",
    "SMILES": "C(O)(=O)C1CCCC1",
    "meta_data": {
        "InChI": "InChI=1S/C6H10O2/c7-6(8)5-3-1-2-4-5/h5H,1-4H2,(H,7,8)",
        "InChIKey": null,
        "Canonical SMILES": "O=C(O)C1CCCC1",
        "Molecular Formula": "C<sub>6</sub>H<sub>10</sub>O<sub>2</sub>",
        "Molecular Mass": "114.14",
        "Boiling Point": "212 °C",
        "Melting Point": "-7 °C",
        "Density": "1.0510 g/cm³ @ Temp: 20 °C"
    }
}