{
    "cas_no": "3306-62-5",
    "key_name": "2-Aminobenzenesulfonamide",
    "cn_name": "邻氨基苯磺酰胺;",
    "alternate_name": "Benzenesulfonamide, 2-amino-;Benzenesulfonamide, <em>o</em>-amino-;2-Aminobenzenesulfonamide;<em>o</em>-Aminobenzenesulfonamide;Orthanilamide;<em>o</em>-Sulfanilamide;<em>o</em>-Sulfamoylaniline;2-(Aminosulfonyl)aniline;NSC 36945;2-Aminobenzene-1-sulfonamide",
    "duplicated_cas_no": "",
    "SMILES": "S(N)(=O)(=O)C1=C(N)C=CC=C1",
    "meta_data": {
        "InChI": "InChI=1S/C6H8N2O2S/c7-5-3-1-2-4-6(5)11(8,9)10/h1-4H,7H2,(H2,8,9,10)",
        "InChIKey": null,
        "Canonical SMILES": "O=S(=O)(N)C=1C=CC=CC1N",
        "Molecular Formula": "C<sub>6</sub>H<sub>8</sub>N<sub>2</sub>O<sub>2</sub>S",
        "Molecular Mass": "172.20",
        "Melting Point": "153 °C"
    }
}