{
    "cas_no": "543-18-0",
    "key_name": "2-[(Aminoiminomethyl)amino]ethanesulfonic acid",
    "cn_name": "脒基牛磺酸;",
    "alternate_name": "Ethanesulfonic acid, 2-[(aminoiminomethyl)amino]-;Taurine, <em>N</em>-amidino-;Taurocyamine;2-[(Aminoiminomethyl)amino]ethanesulfonic acid;Guanidinoethanesulfonic acid;<em>N</em>-Guanyltaurine;2-Guanidinoethanesulfonic acid;β-Guanidinoethanesulfonic acid;Amidinotaurine;Taurocyamin;2-Guanylaminoethanesulfonic acid;β-Guanidinoethylsulfonic acid;<em>N</em>-Amidinotaurine;NSC 667063;2-[[Amino(imino)methyl]amino]ethane-1-sulfonic acid",
    "duplicated_cas_no": "1394820-05-3",
    "SMILES": "C(CNC(=N)N)S(=O)(=O)O",
    "meta_data": {
        "InChI": "InChI=1S/C3H9N3O3S/c4-3(5)6-1-2-10(7,8)9/h1-2H2,(H4,4,5,6)(H,7,8,9)",
        "InChIKey": null,
        "Canonical SMILES": "O=S(=O)(O)CCNC(=N)N",
        "Molecular Formula": "C<sub>3</sub>H<sub>9</sub>N<sub>3</sub>O<sub>3</sub>S",
        "Molecular Mass": "167.19",
        "Melting Point": "230 °C"
    }
}