{
    "cas_no": "9007-48-1",
    "key_name": "Plurol oleique",
    "cn_name": "聚甘油单油酸酯;聚十八烯酸一甘油酯;聚甘油单油酸酯;",
    "alternate_name": "1,2,3-Propanetriol, homopolymer, (9<em>Z</em>)-9-octadecenoate;1,2,3-Propanetriol, homopolymer, (<em>Z</em>)-9-octadecenoate;Emcol 12-14-18;Demal 14;Polyglyceryl oleate;Polyglycerol oleate;Oleic acid polyglyceride;Santone 3-1SH;Estax 50;Polyglycerin oleate;Isolan GO 33;Emcol 14;Unigly GO 102S;Plurol oleique;DO 13;AG 7520;Plurol Oleique CC 495;Chirabazol VR 01;Emulsogen OG;Emulsogen OGP;Drewpol 10-4O;Polyglyceryl decaoleate;Polyglyceryl trioleate;Polyglycerol trioleate;Polyglyceryl pentaoleate;GS 28-28;Emulsogen 607;Unigly GO 102R;Hydriol PGMO 4;Pglol 202KC;Pglol 2013KC;Sunsoft Q 17B-C;Sunsoft A 17E-C",
    "duplicated_cas_no": "9009-31-8;39403-38-8;68238-75-5;75496-64-9;945857-03-4;109190-38-7;403821-12-5;96511-07-8;473803-14-4;103736-89-6;111092-71-8;110540-43-7;403821-10-3",
    "SMILES": "C(C/C=C\\CCCCCCCC)CCCCCC(O)=O.C(CO)(CO)O",
    "meta_data": {
        "InChI": "InChI=1S/C18H34O2.C3H8O3/c1-2-3-4-5-6-7-8-9-10-11-12-13-14-15-16-17-18(19)20;4-1-3(6)2-5/h9-10H,2-8,11-17H2,1H3,(H,19,20);3-6H,1-2H2/b10-9-;",
        "InChIKey": null,
        "Canonical SMILES": "O=C(O)CCCCCCCC=CCCCCCCCC.OCC(O)CO",
        "Molecular Formula": "C<sub>18</sub>H<sub>34</sub>O<sub>2</sub>.x(C<sub>3</sub>H<sub>8</sub>O<sub>3</sub>)<sub>x</sub>",
        "Molecular Mass": "",
        "Melting Point": "&lt;0 °C"
    }
}