{
    "cas_no": "102-01-2",
    "key_name": "Acetoacetanilide",
    "cn_name": "N-乙酰乙酰苯胺;",
    "alternate_name": "Butanamide, 3-oxo-<em>N</em>-phenyl-;Acetoacetanilide;3-Oxo-<em>N</em>-phenylbutanamide;Acetoacetic anilide;α-Acetylacetanilide;β-Ketobutyranilide;Acetoacetic acid anilide;Acetoacetamidobenzene;Acetoacetylanilide;1-(Phenylcarbamoyl)-2-propanone;α-Acetyl-<em>N</em>-phenylacetamide;<em>N</em>-(Acetoacetyl)aniline;<em>N</em>-Phenylacetoacetamide;1-(Phenylamino)-1,3-butanedione;<em>N</em>-Phenyl-3-oxobutanamide;4-(Phenylamino)-2,4-butanedione;Coupler 633;NSC 2656;3-Oxo-<em>N</em>-phenylbutyramide;<em>N</em>-Phenylacetylacetamide",
    "duplicated_cas_no": "1258964-41-8",
    "SMILES": "N(C(CC(C)=O)=O)C1=CC=CC=C1",
    "meta_data": {
        "InChI": "InChI=1S/C10H11NO2/c1-8(12)7-10(13)11-9-5-3-2-4-6-9/h2-6H,7H2,1H3,(H,11,13)",
        "InChIKey": null,
        "Canonical SMILES": "O=C(NC=1C=CC=CC1)CC(=O)C",
        "Molecular Formula": "C<sub>10</sub>H<sub>11</sub>NO<sub>2</sub>",
        "Molecular Mass": "177.20",
        "Melting Point": "86 °C",
        "Density": "1.26 g/cm³ @ Temp: 20 °C"
    }
}