{
    "cas_no": "1424-00-6",
    "key_name": "1α-Methyl-5α-androstan-17β-ol-3-one",
    "cn_name": "甲氢睾酮;17beta-羟基-1alpha-甲基-5alpha-雄甾烷-3-酮;",
    "alternate_name": "Androstan-3-one, 17-hydroxy-1-methyl-, (1α,5α,17β)-;5α-Androstan-3-one, 17β-hydroxy-1α-methyl-;(1α,5α,17β)-17-Hydroxy-1-methylandrostan-3-one;SH 723;17β-Hydroxy-1α-methyl-5α-androstan-3-one;Mesterolone;1α-Methyl-5α-androstan-17β-ol-3-one;1α-Methyl-17β-hydroxy-5α-androstan-3-one;Proviron;1α-Methyl-5α-dihydrotestosterone;Androviron;Mestoranum;Mesteranum;Testiwop;Provirone 25;NSC 75054;MEST",
    "duplicated_cas_no": "",
    "SMILES": "C[C@@]12[C@@]3([C@]([C@]4([C@](C)(CC3)[C@@H](O)CC4)[H])(CC[C@]1(CC(=O)C[C@@H]2C)[H])[H])[H]",
    "meta_data": {
        "InChI": "InChI=1S/C20H32O2/c1-12-10-14(21)11-13-4-5-15-16-6-7-18(22)19(16,2)9-8-17(15)20(12,13)3/h12-13,15-18,22H,4-11H2,1-3H3/t12-,13-,15-,16-,17-,18-,19-,20-/m0/s1",
        "InChIKey": null,
        "Canonical SMILES": "O=C1CC(C)C2(C)C(C1)CCC3C4CCC(O)C4(C)CCC32",
        "Molecular Formula": "C<sub>20</sub>H<sub>32</sub>O<sub>2</sub>",
        "Molecular Mass": "304.47",
        "Melting Point": "204 °C",
        "Density": "1.156 g/cm³"
    }
}