{
    "cas_no": "16029-98-4",
    "key_name": "Trimethylsilyl iodide",
    "cn_name": "碘代三甲硅烷;三甲基碘硅烷;",
    "alternate_name": "Silane, iodotrimethyl-;Iodotrimethylsilane;Trimethylsilyl iodide;Trimethyliodosilane;Trimethylsilicon iodide;TMSI",
    "duplicated_cas_no": "",
    "SMILES": "[Si](C)(C)(C)I",
    "meta_data": {
        "InChI": "InChI=1S/C3H9ISi/c1-5(2,3)4/h1-3H3",
        "InChIKey": null,
        "Canonical SMILES": "I[Si](C)(C)C",
        "Molecular Formula": "C<sub>3</sub>H<sub>9</sub>ISi",
        "Molecular Mass": "200.09",
        "Boiling Point": "106-107 °C",
        "Density": "1.470 g/cm³"
    }
}