{
    "cas_no": "505-95-3",
    "key_name": "12-Hydroxydodecanoic acid",
    "cn_name": null,
    "alternate_name": "Dodecanoic acid, 12-hydroxy-;12-Hydroxydodecanoic acid;12-Hydroxylauric acid;ω-Hydroxydodecanoic acid;ω-Hydroxylauric acid;NSC 159293;NSC 664211",
    "duplicated_cas_no": "",
    "SMILES": "C(CCCCCCCCO)CCC(O)=O",
    "meta_data": {
        "InChI": "InChI=1S/C12H24O3/c13-11-9-7-5-3-1-2-4-6-8-10-12(14)15/h13H,1-11H2,(H,14,15)",
        "InChIKey": null,
        "Canonical SMILES": "O=C(O)CCCCCCCCCCCO",
        "Molecular Formula": "C<sub>12</sub>H<sub>24</sub>O<sub>3</sub>",
        "Molecular Mass": "216.32",
        "Boiling Point": "102-103 °C @ Press: 0.5 Torr",
        "Melting Point": "83-84 °C",
        "Density": "0.973 g/cm³ @ Temp: 20 °C"
    }
}