{
    "cas_no": "15980-15-1",
    "key_name": "1,4-Oxathiane",
    "cn_name": "1,4-噻噁烷;1,4-噻恶烷;1,4-氧硫【口+山】;1,4-噻噁烷, 98+%;",
    "alternate_name": "1,4-Oxathiane;1,4-Oxathiin, 2,3,5,6-tetrahydro-;1,4-Thioxane;<em>p</em>-Thioxane;1-Oxa-4-thiacyclohexane;1-Thia-4-oxacyclohexane;NSC 49179",
    "duplicated_cas_no": "",
    "SMILES": "C1CSCCO1",
    "meta_data": {
        "InChI": "InChI=1S/C4H8OS/c1-3-6-4-2-5-1/h1-4H2",
        "InChIKey": null,
        "Canonical SMILES": "O1CCSCC1",
        "Molecular Formula": "C<sub>4</sub>H<sub>8</sub>OS",
        "Molecular Mass": "104.17",
        "Boiling Point": "147 °C",
        "Melting Point": "30 °C",
        "Density": "1.11775 g/cm³ @ Temp: 20 °C"
    }
}