{
    "cas_no": "18979-50-5",
    "key_name": "4-Propoxyphenol",
    "cn_name": "4-丙氧基苯酚;对丙氧基苯酚;对羟基苯丙醚;4-羟基苯丙醚;对苯二酚单丙基醚;",
    "alternate_name": "Phenol, 4-propoxy-;Phenol, <em>p</em>-propoxy-;4-Propoxyphenol;<em>p</em>-Propoxyphenol;4-Propyloxyphenol;Hydroquinone monopropyl ether;NSC 82358",
    "duplicated_cas_no": "",
    "SMILES": "O(CCC)C1=CC=C(O)C=C1",
    "meta_data": {
        "InChI": "InChI=1S/C9H12O2/c1-2-7-11-9-5-3-8(10)4-6-9/h3-6,10H,2,7H2,1H3",
        "InChIKey": null,
        "Canonical SMILES": "OC1=CC=C(OCCC)C=C1",
        "Molecular Formula": "C<sub>9</sub>H<sub>12</sub>O<sub>2</sub>",
        "Molecular Mass": "152.19",
        "Melting Point": "55-58 °C"
    }
}