{
    "cas_no": "22329-76-6",
    "key_name": "Methyl (<em>E</em>)-ferulate",
    "cn_name": null,
    "alternate_name": "2-Propenoic acid, 3-(4-hydroxy-3-methoxyphenyl)-, methyl ester, (2<em>E</em>)-;Cinnamic acid, 4-hydroxy-3-methoxy-, methyl ester, (<em>E</em>)-;2-Propenoic acid, 3-(4-hydroxy-3-methoxyphenyl)-, methyl ester, (<em>E</em>)-;Methyl <em>trans</em>-4-hydroxy-3-methoxycinnamate;Methyl <em>trans</em>-ferulate;(<em>E</em>)-4-Hydroxy-3-methoxycinnamic acid methyl ester;Methyl (<em>E</em>)-ferulate;Methyl (E)-ferulate;Methyl (<em>E</em>)-4-hydroxy-3-methoxycinnamate;Methyl (<em>E</em>)-3-(4-hydroxy-3-methoxyphenyl)-2-propenoate;Methyl (2<em>E</em>)-3-(4-hydroxy-3-methoxyphenyl)prop-2-enoate;<em>trans</em>-Ferulic acid methyl ester;(E)-Methyl-3-(4-hydroxy-3-methoxyphenyl)acrylate;(<em>E</em>)-Ferulic acid methyl ester;Methyl (E)-3-(4-hydroxy-3-methoxyphenyl)prop-2-enoate",
    "duplicated_cas_no": "",
    "SMILES": "C(=C/C(OC)=O)\\C1=CC(OC)=C(O)C=C1",
    "meta_data": {
        "InChI": "InChI=1S/C11H12O4/c1-14-10-7-8(3-5-9(10)12)4-6-11(13)15-2/h3-7,12H,1-2H3/b6-4+",
        "InChIKey": null,
        "Canonical SMILES": "O=C(OC)C=CC1=CC=C(O)C(OC)=C1",
        "Molecular Formula": "C<sub>11</sub>H<sub>12</sub>O<sub>4</sub>",
        "Molecular Mass": "208.21",
        "Melting Point": "58-60 °C"
    }
}