{
    "cas_no": "7287-36-7",
    "key_name": "Monalide",
    "cn_name": null,
    "alternate_name": "Pentanamide, <em>N</em>-(4-chlorophenyl)-2,2-dimethyl-;Valeranilide, 4′-chloro-2,2-dimethyl-;<em>N</em>-(4-Chlorophenyl)-2,2-dimethylpentanamide;Potablan;D 90A;Monalide;<em>N</em>-(4-Chlorophenyl)-α,α-dimethylvaleramide;Potablan D 85",
    "duplicated_cas_no": "",
    "SMILES": "N(C(C(CCC)(C)C)=O)C1=CC=C(Cl)C=C1",
    "meta_data": {
        "InChI": "InChI=1S/C13H18ClNO/c1-4-9-13(2,3)12(16)15-11-7-5-10(14)6-8-11/h5-8H,4,9H2,1-3H3,(H,15,16)",
        "InChIKey": null,
        "Canonical SMILES": "O=C(NC1=CC=C(Cl)C=C1)C(C)(C)CCC",
        "Molecular Formula": "C<sub>13</sub>H<sub>18</sub>ClNO",
        "Molecular Mass": "239.74",
        "Melting Point": "87-88 °C"
    }
}