{
    "cas_no": "41295-28-7",
    "key_name": "Methoxyphenone",
    "cn_name": "甲氧苯酮;去草酮；3,3-二甲基-4-甲氧基二苯酮;",
    "alternate_name": "Methanone, (4-methoxy-3-methylphenyl)(3-methylphenyl)-;(4-Methoxy-3-methylphenyl)(3-methylphenyl)methanone;4-Methoxy-3,3′-dimethylbenzophenone;3,3′-Dimethyl-4-methoxybenzophenone;NK 049;4-Methoxy-3-methylphenyl 3-methylphenyl ketone;Methoxyphenone;Kayacure MBP;(4-Methoxy-3-methylphenyl)(<em>m</em>-tolyl)methanone",
    "duplicated_cas_no": "",
    "SMILES": "C(=O)(C1=CC(C)=C(OC)C=C1)C2=CC(C)=CC=C2",
    "meta_data": {
        "InChI": "InChI=1S/C16H16O2/c1-11-5-4-6-13(9-11)16(17)14-7-8-15(18-3)12(2)10-14/h4-10H,1-3H3",
        "InChIKey": null,
        "Canonical SMILES": "O=C(C1=CC=CC(=C1)C)C2=CC=C(OC)C(=C2)C",
        "Molecular Formula": "C<sub>16</sub>H<sub>16</sub>O<sub>2</sub>",
        "Molecular Mass": "240.30",
        "Melting Point": "62.3 °C"
    }
}