{
    "cas_no": "4547-02-8",
    "key_name": "7-Chloro-1,3-dihydro-5-phenyl-2<em>H</em>-1,4-benzodiazepine-2-thione",
    "cn_name": null,
    "alternate_name": "2<em>H</em>-1,4-Benzodiazepine-2-thione, 7-chloro-1,3-dihydro-5-phenyl-;7-Chloro-1,3-dihydro-5-phenyl-2<em>H</em>-1,4-benzodiazepine-2-thione;Demethylsulazepam;1,3-Dihydro-7-chloro-5-phenyl-2<em>H</em>-1,4-benzodiazepine-2-thione",
    "duplicated_cas_no": "39481-57-7",
    "SMILES": "ClC=1C=C2C(=NCC(=S)NC2=CC1)C3=CC=CC=C3",
    "meta_data": {
        "InChI": "InChI=1S/C15H11ClN2S/c16-11-6-7-13-12(8-11)15(17-9-14(19)18-13)10-4-2-1-3-5-10/h1-8H,9H2,(H,18,19)",
        "InChIKey": null,
        "Canonical SMILES": "S=C1NC=2C=CC(Cl)=CC2C(=NC1)C=3C=CC=CC3",
        "Molecular Formula": "C<sub>15</sub>H<sub>11</sub>ClN<sub>2</sub>S",
        "Molecular Mass": "286.78",
        "Melting Point": "244-246 °C"
    }
}