{
    "cas_no": "2021-28-5",
    "key_name": "Ethyl 3-phenylpropanoate",
    "cn_name": "3-苯丙酸乙酯;",
    "alternate_name": "Benzenepropanoic acid, ethyl ester;Hydrocinnamic acid, ethyl ester;Ethyl hydrocinnamate;Ethyl 3-phenylpropionate;Ethyl dihydrocinnamate;Ethyl 3-phenylpropanoate;3-Phenylpropanoic acid ethyl ester;Ethyl benzenepropanoate;3-Phenylpropionic acid ethyl ester;NSC 126040",
    "duplicated_cas_no": "",
    "SMILES": "C(CC(OCC)=O)C1=CC=CC=C1",
    "meta_data": {
        "InChI": "InChI=1S/C11H14O2/c1-2-13-11(12)9-8-10-6-4-3-5-7-10/h3-7H,2,8-9H2,1H3",
        "InChIKey": null,
        "Canonical SMILES": "O=C(OCC)CCC=1C=CC=CC1",
        "Molecular Formula": "C<sub>11</sub>H<sub>14</sub>O<sub>2</sub>",
        "Molecular Mass": "178.23",
        "Boiling Point": "247.2 °C",
        "Melting Point": "122-124 °C"
    }
}