{
    "cas_no": "18189-02-1",
    "key_name": "Isopropyl anthranilate",
    "cn_name": null,
    "alternate_name": "Benzoic acid, 2-amino-, 1-methylethyl ester;Anthranilic acid, isopropyl ester;Isopropyl anthranilate;2-Aminobenzoic acid isopropyl ester;Isopropyl 2-aminobenzoate",
    "duplicated_cas_no": "",
    "SMILES": "C(OC(C)C)(=O)C1=C(N)C=CC=C1",
    "meta_data": {
        "InChI": "InChI=1S/C10H13NO2/c1-7(2)13-10(12)8-5-3-4-6-9(8)11/h3-7H,11H2,1-2H3",
        "InChIKey": null,
        "Canonical SMILES": "O=C(OC(C)C)C=1C=CC=CC1N",
        "Molecular Formula": "C<sub>10</sub>H<sub>13</sub>NO<sub>2</sub>",
        "Molecular Mass": "179.22",
        "Boiling Point": "270.5-272.4 °C"
    }
}