{
    "cas_no": "1615-80-1",
    "key_name": "1,2-Diethylhydrazine",
    "cn_name": "N，N-二乙肼;1,2-二乙基肼;",
    "alternate_name": "Hydrazine, 1,2-diethyl-;1,2-Diethylhydrazine;<em>N</em>,<em>N</em>′-Diethylhydrazine",
    "duplicated_cas_no": "",
    "SMILES": "N(NCC)CC",
    "meta_data": {
        "InChI": "InChI=1S/C4H12N2/c1-3-5-6-4-2/h5-6H,3-4H2,1-2H3",
        "InChIKey": null,
        "Canonical SMILES": "N(NCC)CC",
        "Molecular Formula": "C<sub>4</sub>H<sub>12</sub>N<sub>2</sub>",
        "Molecular Mass": "88.15",
        "Boiling Point": "85.5 °C",
        "Density": "0.797 g/cm³ @ Temp: 26 °C"
    }
}