{
    "cas_no": "1167055-73-3",
    "key_name": "2-Bromo-4-oxazolecarboxylic acid",
    "cn_name": null,
    "alternate_name": "4-Oxazolecarboxylic acid, 2-bromo-;2-Bromo-4-oxazolecarboxylic acid;2-Bromooxazole-4-carboxylic acid;2-Bromo-1,3-oxazole-4-carboxylic acid",
    "duplicated_cas_no": "",
    "SMILES": "C(O)(=O)C=1N=C(Br)OC1",
    "meta_data": {
        "InChI": "InChI=1S/C4H2BrNO3/c5-4-6-2(1-9-4)3(7)8/h1H,(H,7,8)",
        "InChIKey": null,
        "Canonical SMILES": "O=C(O)C=1N=C(Br)OC1",
        "Molecular Formula": "C<sub>4</sub>H<sub>2</sub>BrNO<sub>3</sub>",
        "Molecular Mass": "191.97",
        "Melting Point": "161-163 °C"
    }
}