{
    "cas_no": "52356-01-1",
    "key_name": "2-Carboxyphenylhydrazine hydrochloride",
    "cn_name": "2-羧基苯肼盐酸盐;邻羧基苯肼盐酸盐;2-肼基苯甲酸盐酸盐;",
    "alternate_name": "Benzoic acid, 2-hydrazinyl-, hydrochloride (1:1);Benzoic acid, 2-hydrazino-, monohydrochloride;<em>o</em>-Hydrazinobenzoic acid hydrochloride;<em>o</em>-Hydrazinobenzoic acid monohydrochloride;2-Carboxyphenylhydrazine hydrochloride;2-Hydrazinobenzoic acid monohydrochloride;2-Hydrazinylbenzoic acid hydrochloride",
    "duplicated_cas_no": "",
    "SMILES": "N(N)C1=C(C(O)=O)C=CC=C1.Cl",
    "meta_data": {
        "InChI": "InChI=1S/C7H8N2O2.ClH/c8-9-6-4-2-1-3-5(6)7(10)11;/h1-4,9H,8H2,(H,10,11);1H",
        "InChIKey": null,
        "Canonical SMILES": "Cl.O=C(O)C=1C=CC=CC1NN",
        "Molecular Formula": "C<sub>7</sub>H<sub>8</sub>N<sub>2</sub>O<sub>2</sub>.ClH",
        "Molecular Mass": "",
        "Melting Point": "189-190 °C"
    }
}