{
    "cas_no": "501-00-8",
    "key_name": "3-Fluorobenzeneacetonitrile",
    "cn_name": "3-氟苯乙腈;间氟苯乙腈;",
    "alternate_name": "Benzeneacetonitrile, 3-fluoro-;Acetonitrile, (<em>m</em>-fluorophenyl)-;3-Fluorobenzeneacetonitrile;3-Fluorobenzyl cyanide;(<em>m</em>-Fluorophenyl)acetonitrile;(3-Fluorophenyl)acetonitrile;<em>m</em>-Fluorobenzyl cyanide;<em>m</em>-Fluorobenzyl nitrile;NSC 88318;2-(3-Fluorophenyl)acetonitrile",
    "duplicated_cas_no": "",
    "SMILES": "C(C#N)C1=CC(F)=CC=C1",
    "meta_data": {
        "InChI": "InChI=1S/C8H6FN/c9-8-3-1-2-7(6-8)4-5-10/h1-3,6H,4H2",
        "InChIKey": null,
        "Canonical SMILES": "N#CCC=1C=CC=C(F)C1",
        "Molecular Formula": "C<sub>8</sub>H<sub>6</sub>FN",
        "Molecular Mass": "135.14",
        "Boiling Point": "124-126 °C @ Press: 10 Torr"
    }
}