{
    "cas_no": "441798-33-0",
    "key_name": "Macitentan",
    "cn_name": "马西替坦;N-[5-(4-溴苯基)-6-[2-[(5-溴-2-嘧啶基)氧]乙氧基]-4-嘧啶基]-N\"-丙基磺酰胺;",
    "alternate_name": "Sulfamide, <em>N</em>-[5-(4-bromophenyl)-6-[2-[(5-bromo-2-pyrimidinyl)oxy]ethoxy]-4-pyrimidinyl]-<em>N</em>′-propyl-;<em>N</em>-[5-(4-Bromophenyl)-6-[2-[(5-bromo-2-pyrimidinyl)oxy]ethoxy]-4-pyrimidinyl]-<em>N</em>′-propylsulfamide;Macitentan;ACT 064992;Propylsulfamic acid <em>N</em>-[5-(4-bromophenyl)-6-[2-[(5-bromopyrimidin-2-yl)oxy]ethoxy]pyrimidin-4-yl]amide;Opsumit",
    "duplicated_cas_no": "",
    "SMILES": "N(S(NCCC)(=O)=O)C=1C(=C(OCCOC=2N=CC(Br)=CN2)N=CN1)C3=CC=C(Br)C=C3",
    "meta_data": {
        "InChI": "InChI=1S/C19H20Br2N6O4S/c1-2-7-26-32(28,29)27-17-16(13-3-5-14(20)6-4-13)18(25-12-24-17)30-8-9-31-19-22-10-15(21)11-23-19/h3-6,10-12,26H,2,7-9H2,1H3,(H,24,25,27)",
        "InChIKey": null,
        "Canonical SMILES": "O=S(=O)(NC1=NC=NC(OCCOC2=NC=C(Br)C=N2)=C1C3=CC=C(Br)C=C3)NCCC",
        "Molecular Formula": "C<sub>19</sub>H<sub>20</sub>Br<sub>2</sub>N<sub>6</sub>O<sub>4</sub>S",
        "Molecular Mass": "588.27",
        "Melting Point": "135-136 °C"
    }
}