{
    "cas_no": "928-96-1",
    "key_name": "<em>cis</em>-3-Hexen-1-ol",
    "cn_name": "叶醇;顺-3-己烯醇;",
    "alternate_name": "3-Hexen-1-ol, (3<em>Z</em>)-;3-Hexen-1-ol, (<em>Z</em>)-;3-Hexen-1-ol, <em>cis</em>-;(3<em>Z</em>)-3-Hexen-1-ol;Blaetteralkohol;Leaf alcohol;<em>cis</em>-3-Hexenol;(<em>Z</em>)-3-Hexenol;(<em>Z</em>)-Hex-3-en-1-ol;ENT 25091;<em>cis</em>-3-Hexen-1-ol;<em>cis</em>-3-Hexene-1-ol;<em>cis</em>-3-Hexenyl alcohol;Folic alcohol;3<em>Z</em>-Hexen-1-ol;3Z-Hexen-1-ol;Green leaf alcohol;(3<em>Z</em>)-Hexenol;(<em>Z</em>)-3-Hexen-1-ol;<em>cis</em>-1-Hydroxy-3-hexene",
    "duplicated_cas_no": "95123-47-0;82658-58-0",
    "SMILES": "C(=C\\CC)\\CCO",
    "meta_data": {
        "InChI": "InChI=1S/C6H12O/c1-2-3-4-5-6-7/h3-4,7H,2,5-6H2,1H3/b4-3-",
        "InChIKey": null,
        "Canonical SMILES": "OCCC=CCC",
        "Molecular Formula": "C<sub>6</sub>H<sub>12</sub>O",
        "Molecular Mass": "100.16",
        "Boiling Point": "156.5 °C"
    }
}