{
    "cas_no": "850313-92-7",
    "key_name": "Borate(1-), trifluoro(2-hydroxyphenyl-κ<em>C</em>)-, potassium (1:1), (<em>T</em>-4)-",
    "cn_name": null,
    "alternate_name": "Borate(1-), trifluoro(2-hydroxyphenyl-κ<em>C</em>)-, potassium (1:1), (<em>T</em>-4)-;Borate(1-), trifluoro(2-hydroxyphenyl-κ<em>C</em>)-, potassium, (<em>T</em>-4)-;2-Hydroxyphenyltrifluoroborate potassium salt",
    "duplicated_cas_no": "",
    "SMILES": "[B+3]([F-])([F-])([F-])[C-]=1C(O)=CC=CC1.[K+]",
    "meta_data": {
        "InChI": "InChI=1S/C6H5BF3O.K/c8-7(9,10)5-3-1-2-4-6(5)11;/h1-4,11H;/q-1;+1",
        "InChIKey": null,
        "Canonical SMILES": "[K+].[F-][B+3]([F-])([F-])[C-]=1C=CC=CC1O",
        "Molecular Formula": "C<sub>6</sub>H<sub>5</sub>BF<sub>3</sub>O.K",
        "Molecular Mass": "",
        "Melting Point": "&gt;250 °C"
    }
}