{
    "cas_no": "3538-65-6",
    "key_name": "Butanoic acid hydrazide",
    "cn_name": "丁酸肼;",
    "alternate_name": "Butanoic acid, hydrazide;Butyric acid, hydrazide;Butanoic acid hydrazide;Butyric hydrazide;Butyrylhydrazine;Butanoyl hydrazide;Butanoic hydrazide;NSC 24021;NSC 41957",
    "duplicated_cas_no": "",
    "SMILES": "C(CCC)(NN)=O",
    "meta_data": {
        "InChI": "InChI=1S/C4H10N2O/c1-2-3-4(7)6-5/h2-3,5H2,1H3,(H,6,7)",
        "InChIKey": null,
        "Canonical SMILES": "O=C(NN)CCC",
        "Molecular Formula": "C<sub>4</sub>H<sub>10</sub>N<sub>2</sub>O",
        "Molecular Mass": "102.14",
        "Boiling Point": "138 °C",
        "Melting Point": "45.5 °C"
    }
}