{
    "cas_no": "27431-62-5",
    "key_name": "<em>N</em>,<em>N</em>-Diethyl-1,4-butanediamine",
    "cn_name": "N,N-二乙基丁烷-1,4-二胺;",
    "alternate_name": "1,4-Butanediamine, <em>N</em><sup>1</sup>,<em>N</em><sup>1</sup>-diethyl-;1,4-Butanediamine, <em>N</em>,<em>N</em>-diethyl-;<em>N</em><sup>1</sup>,<em>N</em><sup>1</sup>-Diethyl-1,4-butanediamine;<em>N</em>,<em>N</em>-Diethyl-1,4-butanediamine;<em>N</em>,<em>N</em>-Diethyltetramethylenediamine;4-(Diethylamino)butylamine;<em>N</em>,<em>N</em>-Diethyl-1,4-diaminobutane;4-(<em>N</em>,<em>N</em>-Diethylamino)butylamine;Diethylaminobutylamine;(4-Aminobutyl)diethylamine;<em>N</em>-(4-Aminobutyl)diethylamine;1,4-Butanediamine N1,N1-diethyl-",
    "duplicated_cas_no": "",
    "SMILES": "N(CCCCN)(CC)CC",
    "meta_data": {
        "InChI": "InChI=1S/C8H20N2/c1-3-10(4-2)8-6-5-7-9/h3-9H2,1-2H3",
        "InChIKey": null,
        "Canonical SMILES": "NCCCCN(CC)CC",
        "Molecular Formula": "C<sub>8</sub>H<sub>20</sub>N<sub>2</sub>",
        "Molecular Mass": "144.26",
        "Boiling Point": "85-86 °C @ Press: 16 Torr",
        "Melting Point": "156-158 °C",
        "Density": "0.8331 g/cm³"
    }
}