{
    "cas_no": "16858-02-9",
    "key_name": "<em>N</em>,<em>N</em>,<em>N</em>′,<em>N</em>′-Tetrakis(2-pyridylmethyl)ethylenediamine",
    "cn_name": "N,N,N,N-四-(2-吡啶基甲基)乙二胺;",
    "alternate_name": "1,2-Ethanediamine, <em>N</em>,<em>N</em>,<em>N</em>′,<em>N</em>′-tetrakis(2-pyridinylmethyl)-;Pyridine, 2,2′,2′′,2′′′-[ethylenebis(nitrilodimethylene)]tetra-;<em>N</em>,<em>N</em>,<em>N</em>′,<em>N</em>′-Tetrakis(2-pyridinylmethyl)-1,2-ethanediamine;<em>N</em>,<em>N</em>,<em>N</em>′,<em>N</em>′-Tetrakis(2-pyridylmethyl)-1,2-ethanediamine;TPEN;<em>N</em>,<em>N</em>,<em>N</em>′,<em>N</em>′-Tetrakis(2-pyridylmethyl)ethylenediamine;<em>N</em>,<em>N</em>,<em>N</em>′,<em>N</em>′-Tetrakis(pyridin-2-yl-methyl)ethylenediamine;TPEDA;<em>N</em>,<em>N</em>,<em>N</em>′,<em>N</em>′-Tetra[(2-pyridyl)methyl] ethylenediamine",
    "duplicated_cas_no": "166984-59-4",
    "SMILES": "N(CC1=CC=CC=N1)(CC2=CC=CC=N2)CCN(CC3=CC=CC=N3)CC4=CC=CC=N4",
    "meta_data": {
        "InChI": "InChI=1S/C26H28N6/c1-5-13-27-23(9-1)19-31(20-24-10-2-6-14-28-24)17-18-32(21-25-11-3-7-15-29-25)22-26-12-4-8-16-30-26/h1-16H,17-22H2",
        "InChIKey": null,
        "Canonical SMILES": "N=1C=CC=CC1CN(CC2=NC=CC=C2)CCN(CC3=NC=CC=C3)CC4=NC=CC=C4",
        "Molecular Formula": "C<sub>26</sub>H<sub>28</sub>N<sub>6</sub>",
        "Molecular Mass": "424.54",
        "Melting Point": "110.50-111.00 °C"
    }
}