{
    "cas_no": "16264-05-4",
    "key_name": "1,4-Bis(4-nitrophenyl)piperazine",
    "cn_name": null,
    "alternate_name": "Piperazine, 1,4-bis(4-nitrophenyl)-;Piperazine, 1,4-bis(<em>p</em>-nitrophenyl)-;1,4-Bis(4-nitrophenyl)piperazine;1,4-Bis(<em>p</em>-nitrophenyl)piperazine",
    "duplicated_cas_no": "",
    "SMILES": "N(=O)(=O)C1=CC=C(N2CCN(CC2)C3=CC=C(N(=O)=O)C=C3)C=C1",
    "meta_data": {
        "InChI": "InChI=1S/C16H16N4O4/c21-19(22)15-5-1-13(2-6-15)17-9-11-18(12-10-17)14-3-7-16(8-4-14)20(23)24/h1-8H,9-12H2",
        "InChIKey": null,
        "Canonical SMILES": "O=N(=O)C1=CC=C(C=C1)N2CCN(C3=CC=C(C=C3)N(=O)=O)CC2",
        "Molecular Formula": "C<sub>16</sub>H<sub>16</sub>N<sub>4</sub>O<sub>4</sub>",
        "Molecular Mass": "328.32",
        "Melting Point": "258.5-259 °C"
    }
}