{
    "cas_no": "93343-10-3",
    "key_name": "1,3-Difluoro-5-methoxybenzene",
    "cn_name": "3,5-二氟苯甲醚;",
    "alternate_name": "Benzene, 1,3-difluoro-5-methoxy-;1,3-Difluoro-5-methoxybenzene;3,5-Difluoroanisole",
    "duplicated_cas_no": "",
    "SMILES": "O(C)C1=CC(F)=CC(F)=C1",
    "meta_data": {
        "InChI": "InChI=1S/C7H6F2O/c1-10-7-3-5(8)2-6(9)4-7/h2-4H,1H3",
        "InChIKey": null,
        "Canonical SMILES": "FC=1C=C(F)C=C(OC)C1",
        "Molecular Formula": "C<sub>7</sub>H<sub>6</sub>F<sub>2</sub>O",
        "Molecular Mass": "144.12",
        "Boiling Point": "145-148 °C @ Press: 760 Torr"
    }
}