{
    "cas_no": "6656-49-1",
    "key_name": "2-Methyl-1-nitro-3-(trifluoromethyl)benzene",
    "cn_name": "2-甲基-3-硝基三氟甲苯;",
    "alternate_name": "Benzene, 2-methyl-1-nitro-3-(trifluoromethyl)-;<em>o</em>-Xylene, α<sup>1</sup>,α<sup>1</sup>,α<sup>1</sup>-trifluoro-3-nitro-;2-Methyl-1-nitro-3-(trifluoromethyl)benzene;2-Methyl-3-(trifluoromethyl)nitrobenzene;2-(Trifluoromethyl)-6-nitrotoluene;2-Nitro-6-trifluoromethyltoluene;2-Methyl-3-nitrobenzotrifluoride;2-Methyl-3-nitro-1-trifluoromethylbenzene",
    "duplicated_cas_no": "",
    "SMILES": "C(F)(F)(F)C1=C(C)C(N(=O)=O)=CC=C1",
    "meta_data": {
        "InChI": "InChI=1S/C8H6F3NO2/c1-5-6(8(9,10)11)3-2-4-7(5)12(13)14/h2-4H,1H3",
        "InChIKey": null,
        "Canonical SMILES": "O=N(=O)C1=CC=CC(=C1C)C(F)(F)F",
        "Molecular Formula": "C<sub>8</sub>H<sub>6</sub>F<sub>3</sub>NO<sub>2</sub>",
        "Molecular Mass": "205.13",
        "Boiling Point": "100 °C @ Press: 11 Torr"
    }
}