{
    "cas_no": "119910-45-1",
    "key_name": "2-Bromo-1<em>H</em>-indole-3-carboxaldehyde",
    "cn_name": null,
    "alternate_name": "1<em>H</em>-Indole-3-carboxaldehyde, 2-bromo-;2-Bromo-1<em>H</em>-indole-3-carboxaldehyde;2-Bromo-3-indolecarboxaldehyde;2-Bromoindole-3-carbaldehyde;NSC 622163;3-Formyl-2-bromoindole;2-Bromo-1<em>H</em>-indole-3-carbaldehyde",
    "duplicated_cas_no": "",
    "SMILES": "C(=O)C=1C=2C(NC1Br)=CC=CC2",
    "meta_data": {
        "InChI": "InChI=1S/C9H6BrNO/c10-9-7(5-12)6-3-1-2-4-8(6)11-9/h1-5,11H",
        "InChIKey": null,
        "Canonical SMILES": "O=CC1=C(Br)NC=2C=CC=CC21",
        "Molecular Formula": "C<sub>9</sub>H<sub>6</sub>BrNO",
        "Molecular Mass": "224.05",
        "Melting Point": "230 °C"
    }
}