{
    "cas_no": "5552-83-0",
    "key_name": "2-Pyridineacetic acid, 6-methyl-, ethyl ester",
    "cn_name": null,
    "alternate_name": "2-Pyridineacetic acid, 6-methyl-, ethyl ester;Ethyl 6-methyl-2-pyridineacetate;Ethyl 6-methyl-2-pyridylacetate;NSC 149621;(6-Methylpyridin-2-yl)acetic acid ethyl ester",
    "duplicated_cas_no": "",
    "SMILES": "C(C(OCC)=O)C=1N=C(C)C=CC1",
    "meta_data": {
        "InChI": "InChI=1S/C10H13NO2/c1-3-13-10(12)7-9-6-4-5-8(2)11-9/h4-6H,3,7H2,1-2H3",
        "InChIKey": null,
        "Canonical SMILES": "O=C(OCC)CC1=NC(=CC=C1)C",
        "Molecular Formula": "C<sub>10</sub>H<sub>13</sub>NO<sub>2</sub>",
        "Molecular Mass": "179.22",
        "Boiling Point": "87-89 °C @ Press: 0.2 Torr",
        "Melting Point": "105-107 °C"
    }
}