{
    "cas_no": "55583-59-0",
    "key_name": "4,6-Dichloro-2,5-pyrimidinediamine",
    "cn_name": "2,5-二氨基-4,6-二氯嘧啶;",
    "alternate_name": "2,5-Pyrimidinediamine, 4,6-dichloro-;4,6-Dichloro-2,5-pyrimidinediamine;2,5-Diamino-4,6-dichloropyrimidine;NSC 176971;4,6-Dichloropyrimidine-2,5-diamine",
    "duplicated_cas_no": "",
    "SMILES": "NC=1C(Cl)=NC(N)=NC1Cl",
    "meta_data": {
        "InChI": "InChI=1S/C4H4Cl2N4/c5-2-1(7)3(6)10-4(8)9-2/h7H2,(H2,8,9,10)",
        "InChIKey": null,
        "Canonical SMILES": "ClC=1N=C(N=C(Cl)C1N)N",
        "Molecular Formula": "C<sub>4</sub>H<sub>4</sub>Cl<sub>2</sub>N<sub>4</sub>",
        "Molecular Mass": "179.01",
        "Melting Point": "188-191 °C (decomp)"
    }
}