{
    "cas_no": "676-98-2",
    "key_name": "Methylphosphonothioic dichloride",
    "cn_name": null,
    "alternate_name": "Phosphonothioic dichloride, methyl-;Dichloromethylphosphine sulfide;Methylthionophosphonic dichloride;Methylphosphonothioic dichloride;Methylphosphonothioyl dichloride;Methylthiophosphonic dichloride;Methylthiophosphonic acid dichloride;Methyldichlorophosphine sulfide;Methanephosphonothioic dichloride",
    "duplicated_cas_no": "",
    "SMILES": "P(C)(Cl)(Cl)=S",
    "meta_data": {
        "InChI": "InChI=1S/CH3Cl2PS/c1-4(2,3)5/h1H3",
        "InChIKey": null,
        "Canonical SMILES": "S=P(Cl)(Cl)C",
        "Molecular Formula": "CH<sub>3</sub>Cl<sub>2</sub>PS",
        "Molecular Mass": "148.98",
        "Boiling Point": "34-35 °C @ Press: 8 Torr",
        "Melting Point": "-25.8 °C",
        "Density": "1.4302 g/cm³ @ Temp: 20 °C"
    }
}