{
    "cas_no": "1200-07-3",
    "key_name": "4-Bromocinnamic acid",
    "cn_name": "对溴肉桂酸;",
    "alternate_name": "2-Propenoic acid, 3-(4-bromophenyl)-;Cinnamic acid, <em>p</em>-bromo-;3-(4-Bromophenyl)-2-propenoic acid;<em>p</em>-Bromocinnamic acid;4-Bromocinnamic acid;NSC 218449;3-(4-Bromophenyl)acrylic acid;4-Bromocinnamoic acid",
    "duplicated_cas_no": "",
    "SMILES": "C(=CC(O)=O)C1=CC=C(Br)C=C1",
    "meta_data": {
        "InChI": "InChI=1S/C9H7BrO2/c10-8-4-1-7(2-5-8)3-6-9(11)12/h1-6H,(H,11,12)",
        "InChIKey": null,
        "Canonical SMILES": "O=C(O)C=CC1=CC=C(Br)C=C1",
        "Molecular Formula": "C<sub>9</sub>H<sub>7</sub>BrO<sub>2</sub>",
        "Molecular Mass": "227.05",
        "Melting Point": "257 °C"
    }
}