{
    "cas_no": "16499-57-3",
    "key_name": "7-Fluoroquinazolin-4(3<em>H</em>)-one",
    "cn_name": "7-氟-4-喹唑啉酮;",
    "alternate_name": "4(3<em>H</em>)-Quinazolinone, 7-fluoro-;4(1<em>H</em>)-Quinazolinone, 7-fluoro-;7-Fluoro-4(3<em>H</em>)-quinazolinone;7-Fluoro-3,4-dihydroquinazolin-4-one;7-Fluoro-3<em>H</em>-quinazolin-4-one;7-Fluoroquinazolin-4(3<em>H</em>)-one;7-Fluoroquinazolin-4-ol",
    "duplicated_cas_no": "",
    "SMILES": "O=C1C=2C(=CC(F)=CC2)NC=N1",
    "meta_data": {
        "InChI": "InChI=1S/C8H5FN2O/c9-5-1-2-6-7(3-5)10-4-11-8(6)12/h1-4H,(H,10,11,12)",
        "InChIKey": null,
        "Canonical SMILES": "O=C1N=CNC2=CC(F)=CC=C12",
        "Molecular Formula": "C<sub>8</sub>H<sub>5</sub>FN<sub>2</sub>O",
        "Molecular Mass": "164.14",
        "Melting Point": "221 °C"
    }
}