{
    "cas_no": "2085-33-8",
    "key_name": "Tris-(8-hydroxyquinoline)aluminum",
    "cn_name": "8-羟基喹啉铝;三(8-羟基喹啉)铝;AlQ3;",
    "alternate_name": "Aluminum, tris(8-quinolinolato-κ<em>N</em><sup>1</sup>,κ<em>O</em><sup>8</sup>)-;Aluminum, tris(8-quinolinolato)-;Aluminum, tris(8-quinolinolato-<em>N</em><sup>1</sup>,<em>O</em><sup>8</sup>)-;Tris(8-quinolinolato-κ<em>N</em><sup>1</sup>,κ<em>O</em><sup>8</sup>)aluminum;Hydroxyquinoline aluminum;Aluminum oxinate;Tris(8-quinolinolato)aluminum;Aluminum 8-hydroxyquinolinate;Tri-8-quinolinolatoaluminum;Tris(8-hydroxyquinolinato)aluminum;Al 8Q;8-Hydroxyquinoline aluminum;Aluminum, tris(8-hydroxyquinolinato)-;Tris(8-quinolinol)aluminum;Tris(8-hydroxyquinolinate)aluminum;Tris(8-hydroxyquinolinol-N1,O8)aluminum;Alq<sub>3</sub>;Aluminum tris(8-hydroxyquinolinate);Tris-(8-hydroxyquinoline)aluminum;Tris(8-hydroxyquinolato)aluminum;Tris(8-quinolinolato)aluminum(III);Aluminum tris(8-quinolinolate);Alq;LT-E 401;Tris(8-hydroxychinolin)aluminum;Tris(8-quinolinato)aluminum",
    "duplicated_cas_no": "11094-99-8",
    "SMILES": "[Al+3]123([N]=4C=5C([O-]1)=CC=CC5C=CC4)([N]=6C=7C([O-]2)=CC=CC7C=CC6)[N]=8C=9C([O-]3)=CC=CC9C=CC8",
    "meta_data": {
        "InChI": "InChI=1S/3C9H7NO.Al/c3*11-8-5-1-3-7-4-2-6-10-9(7)8;/h3*1-6,11H;/q;;;+3/p-3",
        "InChIKey": null,
        "Canonical SMILES": "[O-]1C2=CC=CC=3C=CC=[N](C23)[Al+3]145([O-]C6=CC=CC=7C=CC=[N]4C67)[O-]C8=CC=CC=9C=CC=[N]5C89",
        "Molecular Formula": "C<sub>27</sub>H<sub>18</sub>AlN<sub>3</sub>O<sub>3</sub>",
        "Molecular Mass": "",
        "Boiling Point": "21 °C @ Press: 0.16 Torr",
        "Melting Point": "413-415 °C (decomp)",
        "Density": "1.19 g/cm³"
    }
}