{
    "cas_no": "1078-19-9",
    "key_name": "6-Methoxy-1-tetralone",
    "cn_name": "6-甲氧基-1-萘满酮;",
    "alternate_name": "1(2<em>H</em>)-Naphthalenone, 3,4-dihydro-6-methoxy-;3,4-Dihydro-6-methoxy-1(2<em>H</em>)-naphthalenone;6-Methoxy-1-tetralone;6-Methoxy-1-oxo-1,2,3,4-tetrahydronaphthalene;6-Methoxy-α-tetralone;1,2,3,4-Tetrahydro-6-methoxy-1-naphthalenone;1-Oxo-1,2,3,4-tetrahydro-6-methoxynaphthalene;6-Methoxy-3,4-dihydro-1(2<em>H</em>)-naphthalenone;NSC 41700;6-Methoxy-3,4-dihydro-2<em>H</em>-naphthalen-1-one;6-Methoxy-3,4-dihydronaphthalene-1(2<em>H</em>)-one;6-Methoxy-1,2,3,4-tetrahydronaphthalen-1-one",
    "duplicated_cas_no": "",
    "SMILES": "O=C1C=2C(=CC(OC)=CC2)CCC1",
    "meta_data": {
        "InChI": "InChI=1S/C11H12O2/c1-13-9-5-6-10-8(7-9)3-2-4-11(10)12/h5-7H,2-4H2,1H3",
        "InChIKey": null,
        "Canonical SMILES": "O=C1C2=CC=C(OC)C=C2CCC1",
        "Molecular Formula": "C<sub>11</sub>H<sub>12</sub>O<sub>2</sub>",
        "Molecular Mass": "176.21",
        "Boiling Point": "135-139 °C @ Press: 1 Torr",
        "Melting Point": "78 °C"
    }
}