{
    "cas_no": "479-90-3",
    "key_name": "Artemetin",
    "cn_name": "艾黄素;艾黄素;",
    "alternate_name": "4<em>H</em>-1-Benzopyran-4-one, 2-(3,4-dimethoxyphenyl)-5-hydroxy-3,6,7-trimethoxy-;Artemetin;Flavone, 5-hydroxy-3,3′,4′,6,7-pentamethoxy-;2-(3,4-Dimethoxyphenyl)-5-hydroxy-3,6,7-trimethoxy-4<em>H</em>-1-benzopyran-4-one;Artemisetin;5-Hydroxy-3,6,7,3′,4′-pentamethoxyflavone;Erianthin;Quercetagetin 3,6,7,3′,4′-pentamethyl ether;3,6,7,3′,4′-Pentamethylquercetagetin;3,6,7,3′,4′-Pentamethoxy-5-hydroxyflavone;Artemitin;2-(3,4-Dimethoxyphenyl)-5-hydroxy-3,6,7-trimethoxychromen-4-one",
    "duplicated_cas_no": "",
    "SMILES": "O=C1C=2C(OC(=C1OC)C3=CC(OC)=C(OC)C=C3)=CC(OC)=C(OC)C2O",
    "meta_data": {
        "InChI": "InChI=1S/C20H20O8/c1-23-11-7-6-10(8-12(11)24-2)18-20(27-5)17(22)15-13(28-18)9-14(25-3)19(26-4)16(15)21/h6-9,21H,1-5H3",
        "InChIKey": null,
        "Canonical SMILES": "O=C1C(OC)=C(OC=2C=C(OC)C(OC)=C(O)C12)C=3C=CC(OC)=C(OC)C3",
        "Molecular Formula": "C<sub>20</sub>H<sub>20</sub>O<sub>8</sub>",
        "Molecular Mass": "388.37",
        "Melting Point": "159-160 °C"
    }
}