{
    "cas_no": "3964-58-7",
    "key_name": "3-Chloro-4-hydroxybenzoic acid",
    "cn_name": "3-氯-4-羟基苯甲酸;4-羟基-3-氯苯甲酸;",
    "alternate_name": "Benzoic acid, 3-chloro-4-hydroxy-;3-Chloro-4-hydroxybenzoic acid;4-Hydroxy-3-chlorobenzoic acid;<em>m</em>-Chloro-<em>p</em>-hydroxybenzoic acid;NSC 21186",
    "duplicated_cas_no": "",
    "SMILES": "C(O)(=O)C1=CC(Cl)=C(O)C=C1",
    "meta_data": {
        "InChI": "InChI=1S/C7H5ClO3/c8-5-3-4(7(10)11)1-2-6(5)9/h1-3,9H,(H,10,11)",
        "InChIKey": null,
        "Canonical SMILES": "O=C(O)C1=CC=C(O)C(Cl)=C1",
        "Molecular Formula": "C<sub>7</sub>H<sub>5</sub>ClO<sub>3</sub>",
        "Molecular Mass": "172.57",
        "Melting Point": "171 °C"
    }
}