{
    "cas_no": "7512-17-6",
    "key_name": "Acetylglucosamine",
    "cn_name": "N-乙酰氨基葡萄糖;",
    "alternate_name": "<span class=\"text-smallcaps\">D</span>-Glucose, 2-(acetylamino)-2-deoxy-;<span class=\"text-smallcaps\">D</span>-Glucose, 2-acetamido-2-deoxy-;2-(Acetylamino)-2-deoxy-<span class=\"text-smallcaps\">D</span>-glucose;<em>N</em>-Acetyl-<span class=\"text-smallcaps\">D</span>-glucosamine;2-Acetamido-2-deoxy-<span class=\"text-smallcaps\">D</span>-glucose;Acetylglucosamine;<em>N</em>-Acetylglucosamine;<em>N</em>-Acetyl-2-amino-2-deoxy-<span class=\"text-smallcaps\">D</span>-glucose;<em>N</em>-Acetyl-2-amino-2-deoxyglucose;2-Acetamido-<span class=\"text-smallcaps\">D</span>-glucose;2-Acetamido-2-deoxyglucose;<span class=\"text-smallcaps\">D</span>-<em>N</em>-Acetylglucosamine;Marine Sweet;NSC 524344;Bio-NAG;GreenNAG;Marine Sweet YSK;MarineSweet F;Acetylchitosamine",
    "duplicated_cas_no": "98632-70-3;134-61-2;7132-76-5;173382-53-1;948887-87-4",
    "SMILES": "[C@H]([C@H]([C@@H]([C@@H](CO)O)O)O)(NC(C)=O)C=O",
    "meta_data": {
        "InChI": "InChI=1S/C8H15NO6/c1-4(12)9-5(2-10)7(14)8(15)6(13)3-11/h2,5-8,11,13-15H,3H2,1H3,(H,9,12)/t5-,6+,7+,8+/m0/s1",
        "InChIKey": null,
        "Canonical SMILES": "O=CC(NC(=O)C)C(O)C(O)C(O)CO",
        "Molecular Formula": "C<sub>8</sub>H<sub>15</sub>NO<sub>6</sub>",
        "Molecular Mass": "221.21",
        "Melting Point": "205 °C",
        "Density": "1.54 g/cm³"
    }
}