{
    "cas_no": "1871-89-2",
    "key_name": "<em>N</em><sup>1</sup>,<em>N</em><sup>2</sup>-Bis(2-hydroxyethyl)ethanediamide",
    "cn_name": "N,N\"-二(2-羟乙基)草酰胺;N,N\"-二(2-羟乙基)乙二酰胺;",
    "alternate_name": "Ethanediamide, <em>N</em><sup>1</sup>,<em>N</em><sup>2</sup>-bis(2-hydroxyethyl)-;Oxamide, <em>N</em>,<em>N</em>′-bis(2-hydroxyethyl)-;Ethanediamide, <em>N</em>,<em>N</em>′-bis(2-hydroxyethyl)-;<em>N</em><sup>1</sup>,<em>N</em><sup>2</sup>-Bis(2-hydroxyethyl)ethanediamide;BK 7;BK 7 (amide);<em>N</em>,<em>N</em>′-Bis(2-hydroxyethyl)oxamide;NSC 3646",
    "duplicated_cas_no": "54391-86-5",
    "SMILES": "C(C(NCCO)=O)(NCCO)=O",
    "meta_data": {
        "InChI": "InChI=1S/C6H12N2O4/c9-3-1-7-5(11)6(12)8-2-4-10/h9-10H,1-4H2,(H,7,11)(H,8,12)",
        "InChIKey": null,
        "Canonical SMILES": "O=C(NCCO)C(=O)NCCO",
        "Molecular Formula": "C<sub>6</sub>H<sub>12</sub>N<sub>2</sub>O<sub>4</sub>",
        "Molecular Mass": "176.17",
        "Melting Point": "168 °C",
        "Density": "2.51 g/cm³ (solid) @ Temp: 27 °C"
    }
}