{
    "cas_no": "23764-31-0",
    "key_name": "<em>N</em>-Propyl-1,3-propanediamine",
    "cn_name": "N-丙基-1,3-丙二胺;",
    "alternate_name": "1,3-Propanediamine, <em>N</em><sup>1</sup>-propyl-;1,3-Propanediamine, <em>N</em>-propyl-;<em>N</em><sup>1</sup>-Propyl-1,3-propanediamine;1-Amino-3-(propylamino)propane;<em>N</em>-Propyl-1,3-propanediamine;<em>N</em>-Propyl-1,3-diaminopropane;1,5-Diazaoctane;<em>N</em>-Propyltrimethylenediamine;NSC 166318;<em>N</em>-Propylpropylenediamine;(3-Aminopropyl)(propyl)amine",
    "duplicated_cas_no": "",
    "SMILES": "C(NCCC)CCN",
    "meta_data": {
        "InChI": "InChI=1S/C6H16N2/c1-2-5-8-6-3-4-7/h8H,2-7H2,1H3",
        "InChIKey": null,
        "Canonical SMILES": "NCCCNCCC",
        "Molecular Formula": "C<sub>6</sub>H<sub>16</sub>N<sub>2</sub>",
        "Molecular Mass": "116.20",
        "Boiling Point": "169-174 °C",
        "Density": "0.8437 g/cm³ @ Temp: 20 °C"
    }
}