{
    "cas_no": "1120-73-6",
    "key_name": "2-Methyl-2-cyclopenten-1-one",
    "cn_name": "甲基环戊烯醇酮;2-甲基-2-环戊烯-1-酮;",
    "alternate_name": "2-Cyclopenten-1-one, 2-methyl-;2-Methyl-2-cyclopenten-1-one;2-Methyl-2-cyclopentenone;2-Methyl-2-cyclopentene-1-one",
    "duplicated_cas_no": "",
    "SMILES": "CC=1C(=O)CCC1",
    "meta_data": {
        "InChI": "InChI=1S/C6H8O/c1-5-3-2-4-6(5)7/h3H,2,4H2,1H3",
        "InChIKey": null,
        "Canonical SMILES": "O=C1C(=CCC1)C",
        "Molecular Formula": "C<sub>6</sub>H<sub>8</sub>O",
        "Molecular Mass": "96.13",
        "Boiling Point": "157 °C",
        "Density": "0.9772 g/cm³ @ Temp: 20 °C"
    }
}