{
    "cas_no": "621-33-0",
    "key_name": "3-Ethoxybenzenamine",
    "cn_name": "间氨基苯乙醚;",
    "alternate_name": "Benzenamine, 3-ethoxy-;<em>m</em>-Phenetidine;3-Ethoxybenzenamine;3-Ethoxyaniline;<em>m</em>-Ethoxyaniline;<em>m</em>-Ethoxyphenylamine;(3-Ethoxyphenyl)amine;NSC 9817;3-Aminophenyl ethyl ether",
    "duplicated_cas_no": "",
    "SMILES": "O(CC)C1=CC(N)=CC=C1",
    "meta_data": {
        "InChI": "InChI=1S/C8H11NO/c1-2-10-8-5-3-4-7(9)6-8/h3-6H,2,9H2,1H3",
        "InChIKey": null,
        "Canonical SMILES": "O(C1=CC=CC(N)=C1)CC",
        "Molecular Formula": "C<sub>8</sub>H<sub>11</sub>NO",
        "Molecular Mass": "137.18",
        "Boiling Point": "248 °C",
        "Melting Point": "204 °C",
        "Density": "1.0666 g/cm³ @ Temp: 20 °C"
    }
}