{
    "cas_no": "40291-39-2",
    "key_name": "Benzeneacetic acid, 2-methyl-, ethyl ester",
    "cn_name": "邻甲苯基乙酸乙酯;",
    "alternate_name": "Benzeneacetic acid, 2-methyl-, ethyl ester;Acetic acid, <em>o</em>-tolyl-, ethyl ester;<em>o</em>-Tolylacetic acid ethyl ester;Ethyl <em>o</em>-tolylacetate;Ethyl (2-methylphenyl)acetate;Ethyl 2-methylbenzeneacetate;NSC 78459",
    "duplicated_cas_no": "",
    "SMILES": "C(C(OCC)=O)C1=C(C)C=CC=C1",
    "meta_data": {
        "InChI": "InChI=1S/C11H14O2/c1-3-13-11(12)8-10-7-5-4-6-9(10)2/h4-7H,3,8H2,1-2H3",
        "InChIKey": null,
        "Canonical SMILES": "O=C(OCC)CC=1C=CC=CC1C",
        "Molecular Formula": "C<sub>11</sub>H<sub>14</sub>O<sub>2</sub>",
        "Molecular Mass": "178.23",
        "Boiling Point": "76-77 °C @ Press: 3 Torr",
        "Density": "0.9988 g/cm³ @ Temp: 25 °C"
    }
}