{
    "cas_no": "18997-57-4",
    "key_name": "4-Methylumbelliferyl β-<span class=\"text-smallcaps\">D</span>-glucopyranoside",
    "cn_name": "4-甲基伞形酮-β-D-葡萄糖苷;",
    "alternate_name": "2<em>H</em>-1-Benzopyran-2-one, 7-(β-<span class=\"text-smallcaps\">D</span>-glucopyranosyloxy)-4-methyl-;Coumarin, 7-(β-<span class=\"text-smallcaps\">D</span>-glucopyranosyloxy)-4-methyl-;7-(β-<span class=\"text-smallcaps\">D</span>-Glucopyranosyloxy)-4-methyl-2<em>H</em>-1-benzopyran-2-one;4-Methylumbelliferyl-β-<span class=\"text-smallcaps\">D</span>-glucoside;4-Methylumbelliferone β-<span class=\"text-smallcaps\">D</span>-glucoside;4-Methylumbelliferyl glucoside;4-Methylumbelliferyl β-<span class=\"text-smallcaps\">D</span>-glucopyranoside;4-Methyl-coumarin-7-<em>O</em>-β-<span class=\"text-smallcaps\">D</span>-glucoside",
    "duplicated_cas_no": "99881-18-2;293738-07-5;358395-46-7;545363-49-3;1417358-10-1",
    "SMILES": "CC=1C=2C(=CC(O[C@@H]3O[C@H](CO)[C@@H](O)[C@H](O)[C@H]3O)=CC2)OC(=O)C1",
    "meta_data": {
        "InChI": "InChI=1S/C16H18O8/c1-7-4-12(18)23-10-5-8(2-3-9(7)10)22-16-15(21)14(20)13(19)11(6-17)24-16/h2-5,11,13-17,19-21H,6H2,1H3/t11-,13-,14+,15-,16-/m1/s1",
        "InChIKey": null,
        "Canonical SMILES": "O=C1OC=2C=C(OC3OC(CO)C(O)C(O)C3O)C=CC2C(=C1)C",
        "Molecular Formula": "C<sub>16</sub>H<sub>18</sub>O<sub>8</sub>",
        "Molecular Mass": "338.31",
        "Melting Point": "205-207 °C"
    }
}