{
    "cas_no": "1315-09-9",
    "key_name": "Zinc selenide",
    "cn_name": "硒化锌;",
    "alternate_name": "Zinc selenide (ZnSe);Zinc selenide;Irtran 4;Zinc monoselenide",
    "duplicated_cas_no": "309242-70-4;1034144-42-7;1258273-87-8;1627498-60-5;2102449-96-5;2231698-49-8;2460201-41-4",
    "SMILES": "[Se]=[Zn]",
    "meta_data": {
        "InChI": "InChI=1S/Se.Zn",
        "InChIKey": null,
        "Canonical SMILES": "[Zn]=[Se]",
        "Molecular Formula": "SeZn",
        "Molecular Mass": "",
        "Melting Point": "1515 °C",
        "Density": "5.27 g/cm³"
    }
}