{
    "cas_no": "56267-48-2",
    "key_name": "1,1-Dimethylethyl <em>N</em>-3-furanylcarbamate",
    "cn_name": null,
    "alternate_name": "Carbamic acid, <em>N</em>-3-furanyl-, 1,1-dimethylethyl ester;Carbamic acid, 3-furanyl-, 1,1-dimethylethyl ester;1,1-Dimethylethyl <em>N</em>-3-furanylcarbamate;<em>tert</em>-Butyl 3-furancarbamate;<em>tert</em>-Butyl 3-furanylcarbamate",
    "duplicated_cas_no": "",
    "SMILES": "N(C(OC(C)(C)C)=O)C=1C=COC1",
    "meta_data": {
        "InChI": "InChI=1S/C9H13NO3/c1-9(2,3)13-8(11)10-7-4-5-12-6-7/h4-6H,1-3H3,(H,10,11)",
        "InChIKey": null,
        "Canonical SMILES": "O=C(OC(C)(C)C)NC1=COC=C1",
        "Molecular Formula": "C<sub>9</sub>H<sub>13</sub>NO<sub>3</sub>",
        "Molecular Mass": "183.20",
        "Melting Point": "135-137 °C"
    }
}