{
    "cas_no": "93-60-7",
    "key_name": "Methyl nicotinate",
    "cn_name": "烟酸甲酯;",
    "alternate_name": "3-Pyridinecarboxylic acid, methyl ester;Nicotinic acid, methyl ester;Methyl nicotinate;Nicometh;3-(Carbomethoxy)pyridine;Methyl 3-pyridinecarboxylate;3-(Methoxycarbonyl)pyridine;<em>m</em>-(Methoxycarbonyl)pyridine;NSC 13126;NSC 403799",
    "duplicated_cas_no": "123574-61-8",
    "SMILES": "C(OC)(=O)C=1C=CC=NC1",
    "meta_data": {
        "InChI": "InChI=1S/C7H7NO2/c1-10-7(9)6-3-2-4-8-5-6/h2-5H,1H3",
        "InChIKey": null,
        "Canonical SMILES": "O=C(OC)C=1C=NC=CC1",
        "Molecular Formula": "C<sub>7</sub>H<sub>7</sub>NO<sub>2</sub>",
        "Molecular Mass": "137.14",
        "Boiling Point": "204 °C",
        "Melting Point": "42.5 °C"
    }
}