{
    "cas_no": "124-20-9",
    "key_name": "Spermidine",
    "cn_name": "亚精胺;精脒;N-(3-氨基丙基)-1,4-丁二胺;",
    "alternate_name": "1,4-Butanediamine, <em>N</em><sup>1</sup>-(3-aminopropyl)-;Spermidine;1,4-Butanediamine, <em>N</em>-(3-aminopropyl)-;<em>N</em><sup>1</sup>-(3-Aminopropyl)-1,4-butanediamine;4-Azaoctane-1,8-diamine;Spermidin;<em>N</em>-(4-Aminobutyl)-1,3-diaminopropane;1,5,10-Triazadecane;<em>N</em>-(3-Aminopropyl)-1,4-butanediamine;<em>N</em>-(3-Aminopropyl)-4-aminobutylamine;<em>N</em>-(3-Aminopropyl)-1,4-diaminobutane;1,8-Diamino-4-azaoctane;(4-Aminobutyl)(3-aminopropyl)amine;MeSH ID: D013095",
    "duplicated_cas_no": "",
    "SMILES": "C(NCCCN)CCCN",
    "meta_data": {
        "InChI": "InChI=1S/C7H19N3/c8-4-1-2-6-10-7-3-5-9/h10H,1-9H2",
        "InChIKey": null,
        "Canonical SMILES": "NCCCNCCCCN",
        "Molecular Formula": "C<sub>7</sub>H<sub>19</sub>N<sub>3</sub>",
        "Molecular Mass": "145.25",
        "Boiling Point": "129 °C",
        "Melting Point": "&lt;25 °C",
        "Density": "1.00054 g/cm³ @ Temp: 45 °C"
    }
}