{
    "cas_no": "115457-83-5",
    "key_name": "6-<em>O</em>-(<em>N</em>-Heptylcarbamoyl)-methyl-α-<span class=\"text-smallcaps\">D</span>-glucopyranoside",
    "cn_name": "6-O(N-庚甲酰)-甲基-α-D-葡萄糖苷;",
    "alternate_name": "α-<span class=\"text-smallcaps\">D</span>-Glucopyranoside, methyl, 6-(heptylcarbamate);Hecameg;6-<em>O</em>-(<em>N</em>-Heptylcarbamoyl)-methyl-α-<span class=\"text-smallcaps\">D</span>-glucopyranoside;Methyl 6-<em>O</em>-(<em>N</em>-heptylcarbamoyl)-α-<span class=\"text-smallcaps\">D</span>-glucopyranoside;Anameg 7",
    "duplicated_cas_no": "143707-45-3",
    "SMILES": "C(OC(NCCCCCCC)=O)[C@H]1O[C@H](OC)[C@H](O)[C@@H](O)[C@@H]1O",
    "meta_data": {
        "InChI": "InChI=1S/C15H29NO7/c1-3-4-5-6-7-8-16-15(20)22-9-10-11(17)12(18)13(19)14(21-2)23-10/h10-14,17-19H,3-9H2,1-2H3,(H,16,20)/t10-,11-,12+,13-,14+/m1/s1",
        "InChIKey": null,
        "Canonical SMILES": "O=C(OCC1OC(OC)C(O)C(O)C1O)NCCCCCCC",
        "Molecular Formula": "C<sub>15</sub>H<sub>29</sub>NO<sub>7</sub>",
        "Molecular Mass": "335.39",
        "Melting Point": "108-110 °C"
    }
}