{
    "cas_no": "528-29-0",
    "key_name": "1,2-Dinitrobenzene",
    "cn_name": "1,2-二硝基苯;邻二硝基苯;",
    "alternate_name": "Benzene, 1,2-dinitro-;Benzene, <em>o</em>-dinitro-;1,2-Dinitrobenzene;<em>o</em>-Dinitrobenzene;Ortho-dinitrobenzene;NSC 60682",
    "duplicated_cas_no": "",
    "SMILES": "N(=O)(=O)C1=C(N(=O)=O)C=CC=C1",
    "meta_data": {
        "InChI": "InChI=1S/C6H4N2O4/c9-7(10)5-3-1-2-4-6(5)8(11)12/h1-4H",
        "InChIKey": null,
        "Canonical SMILES": "O=N(=O)C=1C=CC=CC1N(=O)=O",
        "Molecular Formula": "C<sub>6</sub>H<sub>4</sub>N<sub>2</sub>O<sub>4</sub>",
        "Molecular Mass": "168.11",
        "Boiling Point": "319 °C @ Press: 773 Torr",
        "Melting Point": "117-118.5 °C",
        "Density": "1.3119 g/cm³"
    }
}