{
    "cas_no": "29943-42-8",
    "key_name": "Tetrahydro-4<em>H</em>-pyran-4-one",
    "cn_name": "四氢吡喃酮;四氢-4H-吡喃-4-酮;",
    "alternate_name": "4<em>H</em>-Pyran-4-one, tetrahydro-;Tetrahydro-4<em>H</em>-pyran-4-one;Tetrahydro-4-pyrone;2,3,5,6-Tetrahydro-4-pyranone;Tetrahydro-γ-pyrone;4-Oxotetrahydropyran;4-Oxacyclohexanone;4-Tetrahydropyranone;2,3,5,6-Tetrahydropyran-4-one;3,5,6-Trihydro-2<em>H</em>-pyran-4-one;Tetrahydro-2<em>H</em>-pyran-4-one;Dihydro-2<em>H</em>-pyran-4(3<em>H</em>)-one;3,4,5,6-Tetrahydro-4<em>H</em>-pyran-4-one;Oxan-4-one",
    "duplicated_cas_no": "",
    "SMILES": "O=C1CCOCC1",
    "meta_data": {
        "InChI": "InChI=1S/C5H8O2/c6-5-1-3-7-4-2-5/h1-4H2",
        "InChIKey": null,
        "Canonical SMILES": "O=C1CCOCC1",
        "Molecular Formula": "C<sub>5</sub>H<sub>8</sub>O<sub>2</sub>",
        "Molecular Mass": "100.12",
        "Boiling Point": "166.5 °C",
        "Melting Point": "76-78 °C",
        "Density": "1.0980 g/cm³ @ Temp: 20 °C"
    }
}