{
    "cas_no": "56502-01-3",
    "key_name": "(2<em>S</em>)-1-[(1,1-Dimethylethoxy)carbonyl]-2-pyrrolidineacetic acid",
    "cn_name": "Boc-L-beta-高脯氨酸;2-[(2S)-(1-叔丁氧羰基)吡咯烷-2-基]乙酸;",
    "alternate_name": "2-Pyrrolidineacetic acid, 1-[(1,1-dimethylethoxy)carbonyl]-, (2<em>S</em>)-;2-Pyrrolidineacetic acid, 1-[(1,1-dimethylethoxy)carbonyl]-, (<em>S</em>)-;(2<em>S</em>)-1-[(1,1-Dimethylethoxy)carbonyl]-2-pyrrolidineacetic acid;(<em>S</em>)-1-(<em>tert</em>-Butoxycarbonyl)-2-pyrrolidineacetic acid;(<em>S</em>)-2-Carboxymethylpyrrolidine-1-carboxylic acid <em>tert</em>-butyl ester;(<em>S</em>)-2-(Carboxymethyl)pyrrolidine-1-carboxylic acid tert-butyl ester;(<em>S</em>)-[1-(<em>tert</em>-Butoxycarbonyl)pyrrolidin-2-yl]acetic acid;(<em>S</em>)-2-[1-(<em>tert</em>-Butoxycarbonyl)pyrrolidin-2-yl]ethanoic acid;(<em>S</em>)-2-[1-(<em>tert</em>-Butoxycarbonyl)pyrrolidin-2-yl]acetic acid;<span class=\"text-smallcaps\">L</span>-Boc-β-homoproline;[(2<em>S</em>)-1-(<em>tert</em>-Butoxycarbonyl)pyrrolidin-2-yl]acetic acid;2-[(2<em>S</em>)-1-(<em>tert</em>-Butoxycarbonyl)pyrrolidin-2-yl]acetic acid;2-[(2S)-1-[(<em>tert</em>-Butoxy)carbonyl]pyrrolidin-2-yl]acetic acid;2-[(2S)-1-[(2-Methylpropan-2-yl)oxycarbonyl]pyrrolidin-2-yl]acetic acid;(<em>S</em>)-2-(-(<em>tert</em>-Butoxycarbonyl)pyrrolidin-2-yl)acetic acid",
    "duplicated_cas_no": "1464930-98-0",
    "SMILES": "C(OC(C)(C)C)(=O)N1[C@H](CC(O)=O)CCC1",
    "meta_data": {
        "InChI": "InChI=1S/C11H19NO4/c1-11(2,3)16-10(15)12-6-4-5-8(12)7-9(13)14/h8H,4-7H2,1-3H3,(H,13,14)/t8-/m0/s1",
        "InChIKey": null,
        "Canonical SMILES": "O=C(OC(C)(C)C)N1CCCC1CC(=O)O",
        "Molecular Formula": "C<sub>11</sub>H<sub>19</sub>NO<sub>4</sub>",
        "Molecular Mass": "229.27",
        "Melting Point": "98 °C"
    }
}