{
    "cas_no": "390-64-7",
    "key_name": "Prenylamine",
    "cn_name": null,
    "alternate_name": "Benzenepropanamine, <em>N</em>-(1-methyl-2-phenylethyl)-γ-phenyl-;Phenethylamine, <em>N</em>-(3,3-diphenylpropyl)-α-methyl-;<em>N</em>-(1-Methyl-2-phenylethyl)-γ-phenylbenzenepropanamine;B 436;<em>N</em>-(3,3-Diphenylpropyl)-α-methylphenethylamine;<em>N</em>-(3,3-Diphenylpropyl)-α-methylphenylethylamine;Prenylamine;Segontin;Prenylamine (vasodilator);SAN 13-194;Sandoz 13-194;<span class=\"text-smallcaps\">DL</span>-Prenylamine;Elecor;MeSH ID: D011299",
    "duplicated_cas_no": "47445-86-3",
    "SMILES": "C(CCNC(CC1=CC=CC=C1)C)(C2=CC=CC=C2)C3=CC=CC=C3",
    "meta_data": {
        "InChI": "InChI=1S/C24H27N/c1-20(19-21-11-5-2-6-12-21)25-18-17-24(22-13-7-3-8-14-22)23-15-9-4-10-16-23/h2-16,20,24-25H,17-19H2,1H3",
        "InChIKey": null,
        "Canonical SMILES": "C=1C=CC(=CC1)CC(NCCC(C=2C=CC=CC2)C=3C=CC=CC3)C",
        "Molecular Formula": "C<sub>24</sub>H<sub>27</sub>N",
        "Molecular Mass": "329.48",
        "Boiling Point": "197-203 °C @ Press: 0.5 Torr",
        "Melting Point": "36.5 °C"
    }
}