{
    "cas_no": "935-69-3",
    "key_name": "7-Methyladenine",
    "cn_name": "7-甲基腺嘌呤;",
    "alternate_name": "7<em>H</em>-Purin-6-amine, 7-methyl-;Adenine, 7-methyl-;7-Methyl-7<em>H</em>-purin-6-amine;6-Amino-7-methylpurine;7-Methyladenine;<em>N</em><sup>7</sup>-Methyladenine;NSC 7857",
    "duplicated_cas_no": "",
    "SMILES": "NC1=C2C(=NC=N1)N=CN2C",
    "meta_data": {
        "InChI": "InChI=1S/C6H7N5/c1-11-3-10-6-4(11)5(7)8-2-9-6/h2-3H,1H3,(H2,7,8,9)",
        "InChIKey": null,
        "Canonical SMILES": "N1=CN=C(N)C2=C1N=CN2C",
        "Molecular Formula": "C<sub>6</sub>H<sub>7</sub>N<sub>5</sub>",
        "Molecular Mass": "149.15",
        "Melting Point": "344-346 °C (decomp)"
    }
}