{
    "cas_no": "21539-53-7",
    "key_name": "3-[(1,1-Dimethylethyl)amino]propanenitrile",
    "cn_name": null,
    "alternate_name": "Propanenitrile, 3-[(1,1-dimethylethyl)amino]-;Propionitrile, 3-(<em>tert</em>-butylamino)-;3-[(1,1-Dimethylethyl)amino]propanenitrile;3-(<em>tert</em>-Butylamino)propionitrile;3-[(<em>tert</em>-Butyl)amino]propanenitrile;<em>N</em>-<em>tert</em>-Butylcyanoethylamine",
    "duplicated_cas_no": "",
    "SMILES": "N(C(C)(C)C)CCC#N",
    "meta_data": {
        "InChI": "InChI=1S/C7H14N2/c1-7(2,3)9-6-4-5-8/h9H,4,6H2,1-3H3",
        "InChIKey": null,
        "Canonical SMILES": "N#CCCNC(C)(C)C",
        "Molecular Formula": "C<sub>7</sub>H<sub>14</sub>N<sub>2</sub>",
        "Molecular Mass": "126.20",
        "Boiling Point": "50-52 °C @ Press: 1 Torr"
    }
}