{
    "cas_no": "121-90-4",
    "key_name": "3-Nitrobenzoyl chloride",
    "cn_name": "间硝基苯甲酰氯;3-硝基苯甲酰氯;",
    "alternate_name": "Benzoyl chloride, 3-nitro-;Benzoyl chloride, <em>m</em>-nitro-;3-Nitrobenzoyl chloride;<em>m</em>-Nitrobenzoyl chloride;3-Nitrobenzoic acid chloride;NSC 5380",
    "duplicated_cas_no": "",
    "SMILES": "C(Cl)(=O)C1=CC(N(=O)=O)=CC=C1",
    "meta_data": {
        "InChI": "InChI=1S/C7H4ClNO3/c8-7(10)5-2-1-3-6(4-5)9(11)12/h1-4H",
        "InChIKey": null,
        "Canonical SMILES": "O=C(Cl)C1=CC=CC(=C1)N(=O)=O",
        "Molecular Formula": "C<sub>7</sub>H<sub>4</sub>ClNO<sub>3</sub>",
        "Molecular Mass": "185.56",
        "Boiling Point": "276.5 °C",
        "Melting Point": "36 °C"
    }
}