{
    "cas_no": "621-91-0",
    "key_name": "Hydroquinone dibenzyl ether",
    "cn_name": "1,4-二苄氧基苯;对二苄氧基苯;对苯二酚二苄醚;",
    "alternate_name": "Benzene, 1,4-bis(phenylmethoxy)-;Benzene, <em>p</em>-bis(benzyloxy)-;1,4-Bis(phenylmethoxy)benzene;Hydroquinone dibenzyl ether;<em>p</em>-Di(benzyloxy)benzene;1,4-Di(benzyloxy)benzene;<em>p</em>-Bis(benzyloxy)benzene;<em>p</em>-Hydroxyphenol dibenzyl ether;NSC 2206;1,4-Bis(benzyloxy)benzene;TS 425",
    "duplicated_cas_no": "",
    "SMILES": "O(CC1=CC=CC=C1)C2=CC=C(OCC3=CC=CC=C3)C=C2",
    "meta_data": {
        "InChI": "InChI=1S/C20H18O2/c1-3-7-17(8-4-1)15-21-19-11-13-20(14-12-19)22-16-18-9-5-2-6-10-18/h1-14H,15-16H2",
        "InChIKey": null,
        "Canonical SMILES": "O(C1=CC=C(OCC=2C=CC=CC2)C=C1)CC=3C=CC=CC3",
        "Molecular Formula": "C<sub>20</sub>H<sub>18</sub>O<sub>2</sub>",
        "Molecular Mass": "290.36",
        "Melting Point": "128 °C"
    }
}