{
    "cas_no": "119168-77-3",
    "key_name": "Tebufenpyrad",
    "cn_name": "吡螨胺;N-(4-叔丁基苄基)-4-氯-3-乙基-1-甲基-5-吡唑甲酰胺;",
    "alternate_name": "1<em>H</em>-Pyrazole-5-carboxamide, 4-chloro-<em>N</em>-[[4-(1,1-dimethylethyl)phenyl]methyl]-3-ethyl-1-methyl-;4-Chloro-<em>N</em>-[[4-(1,1-dimethylethyl)phenyl]methyl]-3-ethyl-1-methyl-1<em>H</em>-pyrazole-5-carboxamide;<em>N</em>-(4-<em>tert</em>-Butylbenzyl)-4-chloro-3-ethyl-1-methylpyrazole-5-carboxamide;MK 239;AC 801757;Tebufenpyrad;Pyranica;Fenpyrad;Masai;Oscar",
    "duplicated_cas_no": "",
    "SMILES": "C(NCC1=CC=C(C(C)(C)C)C=C1)(=O)C2=C(Cl)C(CC)=NN2C",
    "meta_data": {
        "InChI": "InChI=1S/C18H24ClN3O/c1-6-14-15(19)16(22(5)21-14)17(23)20-11-12-7-9-13(10-8-12)18(2,3)4/h7-10H,6,11H2,1-5H3,(H,20,23)",
        "InChIKey": null,
        "Canonical SMILES": "O=C(NCC1=CC=C(C=C1)C(C)(C)C)C2=C(Cl)C(=NN2C)CC",
        "Molecular Formula": "C<sub>18</sub>H<sub>24</sub>ClN<sub>3</sub>O",
        "Molecular Mass": "333.86",
        "Melting Point": "61.5 °C"
    }
}