{
    "cas_no": "2664-63-3",
    "key_name": "4,4′-Thiodiphenol",
    "cn_name": "4,4\"-二羟基二苯硫醚;",
    "alternate_name": "Phenol, 4,4′-thiobis-;Phenol, 4,4′-thiodi-;Phenol, <em>p</em>,<em>p</em>′-thiodi-;Phenol, <em>p</em>,<em>p</em>′-thiobis-;4,4′-Thiobis[phenol];4,4′-Thiodiphenol;<em>p</em>,<em>p</em>′-Dihydroxydiphenyl sulfide;Bis(4-hydroxyphenyl) sulfide;4,4′-Dihydroxydiphenyl sulfide;Thiobisphenol;Bis(<em>p</em>-hydroxyphenyl) sulfide;Bisphenol sulfide;4-(4-Hydroxyphenylthio)phenol;NSC 203030;Bis(<em>p</em>-hydroxyphenyl)thioether;Bisphenol T;4-(4-Hydroxyphenyl)sulfanylphenol;4,4′-Thiodbisphenol;BTB 10184",
    "duplicated_cas_no": "",
    "SMILES": "S(C1=CC=C(O)C=C1)C2=CC=C(O)C=C2",
    "meta_data": {
        "InChI": "InChI=1S/C12H10O2S/c13-9-1-5-11(6-2-9)15-12-7-3-10(14)4-8-12/h1-8,13-14H",
        "InChIKey": null,
        "Canonical SMILES": "OC1=CC=C(SC2=CC=C(O)C=C2)C=C1",
        "Molecular Formula": "C<sub>12</sub>H<sub>10</sub>O<sub>2</sub>S",
        "Molecular Mass": "218.27",
        "Boiling Point": "178-180 °C @ Press: 1.5 Torr",
        "Melting Point": "154-156 °C"
    }
}