{
    "cas_no": "69951-02-6",
    "key_name": "2-Chloro-6-methyl-4-nitrobenzenamine",
    "cn_name": "6-氯-2-甲基-4-硝基苯氨;",
    "alternate_name": "Benzenamine, 2-chloro-6-methyl-4-nitro-;<em>o</em>-Toluidine, 6-chloro-4-nitro-;2-Chloro-6-methyl-4-nitrobenzenamine;2-Chloro-6-methyl-4-nitroaniline;6-Chloro-2-methyl-4-nitroaniline;2-Chloro-6-methyl-4-nitrophenylamine",
    "duplicated_cas_no": "",
    "SMILES": "N(=O)(=O)C1=CC(C)=C(N)C(Cl)=C1",
    "meta_data": {
        "InChI": "InChI=1S/C7H7ClN2O2/c1-4-2-5(10(11)12)3-6(8)7(4)9/h2-3H,9H2,1H3",
        "InChIKey": null,
        "Canonical SMILES": "O=N(=O)C1=CC(Cl)=C(N)C(=C1)C",
        "Molecular Formula": "C<sub>7</sub>H<sub>7</sub>ClN<sub>2</sub>O<sub>2</sub>",
        "Molecular Mass": "186.60",
        "Melting Point": "168 °C"
    }
}