{
    "cas_no": "1674-38-0",
    "key_name": "Dodecanophenone",
    "cn_name": "月桂基苯甲酮;咯苯酮;月桂基苯甲酮;苯基月桂基酮;月桂醯苯;月桂苯酮;月桂基苯甲酮,97%;",
    "alternate_name": "1-Dodecanone, 1-phenyl-;Laurophenone;1-Phenyl-1-dodecanone;Phenyl undecyl ketone;Dodecanophenone;Phenyl <em>n</em>-undecyl ketone;Undecyl phenyl ketone;<em>n</em>-Undecyl phenyl ketone;NSC 4903",
    "duplicated_cas_no": "",
    "SMILES": "C(CCCCCCCCCCC)(=O)C1=CC=CC=C1",
    "meta_data": {
        "InChI": "InChI=1S/C18H28O/c1-2-3-4-5-6-7-8-9-13-16-18(19)17-14-11-10-12-15-17/h10-12,14-15H,2-9,13,16H2,1H3",
        "InChIKey": null,
        "Canonical SMILES": "O=C(C=1C=CC=CC1)CCCCCCCCCCC",
        "Molecular Formula": "C<sub>18</sub>H<sub>28</sub>O",
        "Molecular Mass": "260.41",
        "Boiling Point": "174 °C",
        "Melting Point": "47 °C"
    }
}