{
    "cas_no": "79952-42-4",
    "key_name": "Monacolin J",
    "cn_name": null,
    "alternate_name": "2<em>H</em>-Pyran-2-one, 6-[2-[(1<em>S</em>,2<em>S</em>,6<em>R</em>,8<em>S</em>,8a<em>R</em>)-1,2,6,7,8,8a-hexahydro-8-hydroxy-2,6-dimethyl-1-naphthalenyl]ethyl]tetrahydro-4-hydroxy-, (4<em>R</em>,6<em>R</em>)-;2<em>H</em>-Pyran-2-one, 6-[2-(1,2,6,7,8,8a-hexahydro-8-hydroxy-2,6-dimethyl-1-naphthalenyl)ethyl]tetrahydro-4-hydroxy-, [1<em>S</em>-[1α(4<em>S</em>*,6<em>S</em>*),2α,6β,8β,8aα]]-;(4<em>R</em>,6<em>R</em>)-6-[2-[(1<em>S</em>,2<em>S</em>,6<em>R</em>,8<em>S</em>,8a<em>R</em>)-1,2,6,7,8,8a-Hexahydro-8-hydroxy-2,6-dimethyl-1-naphthalenyl]ethyl]tetrahydro-4-hydroxy-2<em>H</em>-pyran-2-one;Monacolin J;Antibiotic MB 530A;Lovastatin diol lactone",
    "duplicated_cas_no": "76343-78-7;81739-25-5",
    "SMILES": "C(C[C@@H]1C[C@@H](O)CC(=O)O1)[C@@H]2[C@@]3(C(C=C[C@@H]2C)=C[C@H](C)C[C@@H]3O)[H]",
    "meta_data": {
        "InChI": "InChI=1S/C19H28O4/c1-11-7-13-4-3-12(2)16(19(13)17(21)8-11)6-5-15-9-14(20)10-18(22)23-15/h3-4,7,11-12,14-17,19-21H,5-6,8-10H2,1-2H3/t11-,12-,14+,15+,16-,17-,19-/m0/s1",
        "InChIKey": null,
        "Canonical SMILES": "O=C1OC(CCC2C(C=CC3=CC(C)CC(O)C32)C)CC(O)C1",
        "Molecular Formula": "C<sub>19</sub>H<sub>28</sub>O<sub>4</sub>",
        "Molecular Mass": "320.42",
        "Melting Point": "125-126 °C"
    }
}