{
    "cas_no": "779-88-4",
    "key_name": "2,5-Bis(trifluoromethyl)phenol",
    "cn_name": null,
    "alternate_name": "Phenol, 2,5-bis(trifluoromethyl)-;2,5-Xylenol, α,α,α,α′,α′,α′-hexafluoro-;2,5-Bis(trifluoromethyl)phenol",
    "duplicated_cas_no": "",
    "SMILES": "C(F)(F)(F)C1=CC(O)=C(C(F)(F)F)C=C1",
    "meta_data": {
        "InChI": "InChI=1S/C8H4F6O/c9-7(10,11)4-1-2-5(6(15)3-4)8(12,13)14/h1-3,15H",
        "InChIKey": null,
        "Canonical SMILES": "FC(F)(F)C1=CC=C(C(O)=C1)C(F)(F)F",
        "Molecular Formula": "C<sub>8</sub>H<sub>4</sub>F<sub>6</sub>O",
        "Molecular Mass": "230.11",
        "Melting Point": "55 °C"
    }
}