{
    "cas_no": "3252-43-5",
    "key_name": "Dibromoacetonitrile",
    "cn_name": "二溴乙腈;",
    "alternate_name": "Acetonitrile, 2,2-dibromo-;Acetonitrile, dibromo-;2,2-Dibromoacetonitrile;Dibromoacetonitrile",
    "duplicated_cas_no": "",
    "SMILES": "C(C#N)(Br)Br",
    "meta_data": {
        "InChI": "InChI=1S/C2HBr2N/c3-2(4)1-5/h2H",
        "InChIKey": null,
        "Canonical SMILES": "N#CC(Br)Br",
        "Molecular Formula": "C<sub>2</sub>HBr<sub>2</sub>N",
        "Molecular Mass": "198.84",
        "Boiling Point": "67-69 °C @ Press: 24 Torr",
        "Density": "2.296 g/cm³ @ Temp: 25 °C"
    }
}