{
    "cas_no": "16758-34-2",
    "key_name": "Phenyl 1-thio-β-<span class=\"text-smallcaps\">D</span>-galactopyranoside",
    "cn_name": "苯基-1-硫醇-beta-D-半乳糖苷;",
    "alternate_name": "β-<span class=\"text-smallcaps\">D</span>-Galactopyranoside, phenyl 1-thio-;Galactopyranoside, phenyl 1-thio-, β-<span class=\"text-smallcaps\">D</span>-;Phenyl 1-thio-β-<span class=\"text-smallcaps\">D</span>-galactopyranoside;Phenyl 1-thio-β-<span class=\"text-smallcaps\">D</span>-galactoside;Phenylthio β-<span class=\"text-smallcaps\">D</span>-galactopyranoside",
    "duplicated_cas_no": "55520-17-7",
    "SMILES": "S([C@H]1[C@H](O)[C@@H](O)[C@@H](O)[C@@H](CO)O1)C2=CC=CC=C2",
    "meta_data": {
        "InChI": "InChI=1S/C12H16O5S/c13-6-8-9(14)10(15)11(16)12(17-8)18-7-4-2-1-3-5-7/h1-5,8-16H,6H2/t8-,9+,10+,11-,12+/m1/s1",
        "InChIKey": null,
        "Canonical SMILES": "OCC1OC(SC=2C=CC=CC2)C(O)C(O)C1O",
        "Molecular Formula": "C<sub>12</sub>H<sub>16</sub>O<sub>5</sub>S",
        "Molecular Mass": "272.32",
        "Melting Point": "97-101 °C"
    }
}