{
    "cas_no": "23694-17-9",
    "key_name": "Benzamide, <em>N</em>-[(1-ethyl-2-pyrrolidinyl)methyl]-5-(ethylsulfonyl)-2-methoxy-, hydrochloride (1:1)",
    "cn_name": "盐酸舒托必利;N-[(1-乙基-2-吡咯烷基)甲基]-5-(乙基磺酰基)-2-甲氧基苯甲酰胺盐酸盐;",
    "alternate_name": "Benzamide, <em>N</em>-[(1-ethyl-2-pyrrolidinyl)methyl]-5-(ethylsulfonyl)-2-methoxy-, hydrochloride (1:1);<em>o</em>-Anisamide, <em>N</em>-[(1-ethyl-2-pyrrolidinyl)methyl]-5-(ethylsulfonyl)-, monohydrochloride;Benzamide, <em>N</em>-[(1-ethyl-2-pyrrolidinyl)methyl]-5-(ethylsulfonyl)-2-methoxy-, monohydrochloride;<em>N</em>-(1-Ethyl-2-pyrrolidinylmethyl)-2-methoxy-5-(ethylsulfonyl)benzamide hydrochloride;<em>N</em>-(1-Ethyl-2-pyrrolidinylmethyl)-5-ethylsulfonyl-2-methoxybenzamide hydrochloride;Barnotil",
    "duplicated_cas_no": "",
    "SMILES": "C(NCC1N(CC)CCC1)(=O)C2=C(OC)C=CC(S(CC)(=O)=O)=C2.Cl",
    "meta_data": {
        "InChI": "InChI=1S/C17H26N2O4S.ClH/c1-4-19-10-6-7-13(19)12-18-17(20)15-11-14(24(21,22)5-2)8-9-16(15)23-3;/h8-9,11,13H,4-7,10,12H2,1-3H3,(H,18,20);1H",
        "InChIKey": null,
        "Canonical SMILES": "Cl.O=C(NCC1N(CC)CCC1)C2=CC(=CC=C2OC)S(=O)(=O)CC",
        "Molecular Formula": "C<sub>17</sub>H<sub>26</sub>N<sub>2</sub>O<sub>4</sub>S.ClH",
        "Molecular Mass": "",
        "Melting Point": "181-182 °C"
    }
}