{
    "cas_no": "92-54-6",
    "key_name": "1-Phenylpiperazine",
    "cn_name": "N-苯基哌嗪;1-苯基哌嗪;",
    "alternate_name": "Piperazine, 1-phenyl-;1-Phenylpiperazine;<em>N</em>-Phenylpiperazine;Phenylpiperazine;NPP;1-Phenylpiperiazine;CD 3-3013",
    "duplicated_cas_no": "123317-04-4",
    "SMILES": "C1(=CC=CC=C1)N2CCNCC2",
    "meta_data": {
        "InChI": "InChI=1S/C10H14N2/c1-2-4-10(5-3-1)12-8-6-11-7-9-12/h1-5,11H,6-9H2",
        "InChIKey": null,
        "Canonical SMILES": "C=1C=CC(=CC1)N2CCNCC2",
        "Molecular Formula": "C<sub>10</sub>H<sub>14</sub>N<sub>2</sub>",
        "Molecular Mass": "162.23",
        "Boiling Point": "286.5 °C",
        "Melting Point": "235-238 °C",
        "Density": "1.0725 g/cm³ @ Temp: 14 °C"
    }
}