{
    "cas_no": "31704-80-0",
    "key_name": "β,5-Dimethyl-2-furanpropanal",
    "cn_name": "3-(5-甲基-2-呋喃基)丁醛;",
    "alternate_name": "2-Furanpropanal, β,5-dimethyl-;2-Furanpropionaldehyde, β,5-dimethyl-;β,5-Dimethyl-2-furanpropanal;3-(5-Methyl-2-furyl)butyraldehyde;3-(5-Methylfuryl)butanal;3-(5-Methylfuran-2-yl)butyraldehyde;3-(5-Methyl-2-furyl)butanal;3-(5-Methylfuran-2-yl)butanal",
    "duplicated_cas_no": "123821-11-4",
    "SMILES": "C(CC=O)(C)C1=CC=C(C)O1",
    "meta_data": {
        "InChI": "InChI=1S/C9H12O2/c1-7(5-6-10)9-4-3-8(2)11-9/h3-4,6-7H,5H2,1-2H3",
        "InChIKey": null,
        "Canonical SMILES": "O=CCC(C=1OC(=CC1)C)C",
        "Molecular Formula": "C<sub>9</sub>H<sub>12</sub>O<sub>2</sub>",
        "Molecular Mass": "152.19",
        "Boiling Point": "88 °C @ Press: 14 Torr",
        "Density": "1.0079 g/cm³ @ Temp: 20 °C"
    }
}