{
    "cas_no": "77868-84-9",
    "key_name": "3-Bromo-1-(phenylmethyl)-2-pyrrolidinone",
    "cn_name": null,
    "alternate_name": "2-Pyrrolidinone, 3-bromo-1-(phenylmethyl)-;3-Bromo-1-(phenylmethyl)-2-pyrrolidinone;1-Benzyl-3-bromopyrrolidin-2-one",
    "duplicated_cas_no": "",
    "SMILES": "C(N1C(=O)C(Br)CC1)C2=CC=CC=C2",
    "meta_data": {
        "InChI": "InChI=1S/C11H12BrNO/c12-10-6-7-13(11(10)14)8-9-4-2-1-3-5-9/h1-5,10H,6-8H2",
        "InChIKey": null,
        "Canonical SMILES": "O=C1N(CC=2C=CC=CC2)CCC1Br",
        "Molecular Formula": "C<sub>11</sub>H<sub>12</sub>BrNO",
        "Molecular Mass": "254.12",
        "Boiling Point": "171-172 °C @ Press: 0.9 Torr"
    }
}