{
    "cas_no": "3491-12-1",
    "key_name": "4,4′-[1,4-Phenylenebis(oxy)]bis[benzenamine]",
    "cn_name": "1,4-双(4-氨基苯氧基)苯;",
    "alternate_name": "Benzenamine, 4,4′-[1,4-phenylenebis(oxy)]bis-;Aniline, 4,4′-(<em>p</em>-phenylenedioxy)di-;4,4′-[1,4-Phenylenebis(oxy)]bis[benzenamine];<em>p</em>-Bis(4-aminophenoxy)benzene;<em>p</em>-Phenylenebis(oxy-<em>p</em>-phenylene)diamine;1,4-Bis(<em>p</em>-aminophenoxy)benzene;4,4′-(<em>p</em>-Phenylenedioxy)dianiline;4,4′-[1,4-Phenylenebis(oxy)]bis[aniline];1,4-Bis(4-aminophenoxy)benzene;B 1243;4,4′-(1,4-Phenylenebis(oxy))dianiline;TPEQ",
    "duplicated_cas_no": "",
    "SMILES": "O(C1=CC=C(OC2=CC=C(N)C=C2)C=C1)C3=CC=C(N)C=C3",
    "meta_data": {
        "InChI": "InChI=1S/C18H16N2O2/c19-13-1-5-15(6-2-13)21-17-9-11-18(12-10-17)22-16-7-3-14(20)4-8-16/h1-12H,19-20H2",
        "InChIKey": null,
        "Canonical SMILES": "O(C1=CC=C(OC2=CC=C(N)C=C2)C=C1)C3=CC=C(N)C=C3",
        "Molecular Formula": "C<sub>18</sub>H<sub>16</sub>N<sub>2</sub>O<sub>2</sub>",
        "Molecular Mass": "292.33",
        "Melting Point": "173 °C"
    }
}