{
    "cas_no": "362-75-4",
    "key_name": "2′,3′-<em>O</em>-Isopropylideneadenosine",
    "cn_name": "2\",3\"-异丙叉腺苷;2\",3\"-O-异亚丙基腺苷;",
    "alternate_name": "Adenosine, 2′,3′-<em>O</em>-(1-methylethylidene)-;Adenosine, 2′,3′-<em>O</em>-isopropylidene-;Furo[3,4-<em>d</em>]-1,3-dioxole, adenosine deriv.;2′,3′-<em>O</em>-(1-Methylethylidene)adenosine;2′,3′-<em>O</em>-Isopropylideneadenosine;2′,3′-Isopropylideneadenosine;NSC 29413;26: PN: US20070161007 PAGE: 25 claimed sequence;[(3AR,4R,6R,6aR)-6-(6-amino-9<em>H</em>-purin-9-yl)-2,2-dimethyltetrahydrofuro[3,4-<em>d</em>][1,3]dioxol-4-yl]methanol",
    "duplicated_cas_no": "28220-27-1;633322-87-9;1803254-64-9",
    "SMILES": "C(O)[C@H]1O[C@H]([C@]2([C@@]1(OC(C)(C)O2)[H])[H])N3C=4C(N=C3)=C(N)N=CN4",
    "meta_data": {
        "InChI": "InChI=1S/C13H17N5O4/c1-13(2)21-8-6(3-19)20-12(9(8)22-13)18-5-17-7-10(14)15-4-16-11(7)18/h4-6,8-9,12,19H,3H2,1-2H3,(H2,14,15,16)/t6-,8-,9-,12-/m1/s1",
        "InChIKey": null,
        "Canonical SMILES": "OCC1OC(N2C=NC=3C(=NC=NC32)N)C4OC(OC14)(C)C",
        "Molecular Formula": "C<sub>13</sub>H<sub>17</sub>N<sub>5</sub>O<sub>4</sub>",
        "Molecular Mass": "307.31",
        "Melting Point": "220 °C"
    }
}