{
    "cas_no": "41264-06-6",
    "key_name": "Methyl 4,6-dimethyl-2-oxo-2<em>H</em>-pyran-5-carboxylate",
    "cn_name": "4,6-二甲基阔马酸甲酯;5-甲氧羰基-4,6-二甲基-2-吡喃酮;4,6-二甲基-2-氧-2H-吡喃-5-甲酸甲酯;",
    "alternate_name": "2<em>H</em>-Pyran-5-carboxylic acid, 4,6-dimethyl-2-oxo-, methyl ester;Methyl 4,6-dimethyl-2-oxo-2<em>H</em>-pyran-5-carboxylate;Methyl 4,6-dimethyl-2-pyrone-5-carboxylate;Isodehydroacetic acid methyl ester;Methyl isodehydroacetate;2,4-Dimethyl-6-oxo-6<em>H</em>-pyran-3-carboxylic acid methyl ester",
    "duplicated_cas_no": "",
    "SMILES": "C(OC)(=O)C=1C(C)=CC(=O)OC1C",
    "meta_data": {
        "InChI": "InChI=1S/C9H10O4/c1-5-4-7(10)13-6(2)8(5)9(11)12-3/h4H,1-3H3",
        "InChIKey": null,
        "Canonical SMILES": "O=C1OC(=C(C(=O)OC)C(=C1)C)C",
        "Molecular Formula": "C<sub>9</sub>H<sub>10</sub>O<sub>4</sub>",
        "Molecular Mass": "182.17",
        "Boiling Point": "150-160 °C @ Press: 10 Torr",
        "Melting Point": "67 °C"
    }
}