{
    "cas_no": "1646-87-3",
    "key_name": "Aldicarb sulfoxide",
    "cn_name": "涕灭威亚砜;涕灭威亚砜;",
    "alternate_name": "Propanal, 2-methyl-2-(methylsulfinyl)-, <em>O</em>-[(methylamino)carbonyl]oxime;Propionaldehyde, 2-methyl-2-(methylsulfinyl)-, <em>O</em>-(methylcarbamoyl)oxime;2-Methyl-2-(methylsulfinyl)propionaldehyde <em>O</em>-(methylcarbamoyl)oxime;Temik sulfoxide;Aldicarb sulfoxide",
    "duplicated_cas_no": "",
    "SMILES": "N(=CC(S(C)=O)(C)C)OC(NC)=O",
    "meta_data": {
        "InChI": "InChI=1S/C7H14N2O3S/c1-7(2,13(4)11)5-9-12-6(10)8-3/h5H,1-4H3,(H,8,10)",
        "InChIKey": null,
        "Canonical SMILES": "O=C(ON=CC(S(=O)C)(C)C)NC",
        "Molecular Formula": "C<sub>7</sub>H<sub>14</sub>N<sub>2</sub>O<sub>3</sub>S",
        "Molecular Mass": "206.26",
        "Melting Point": "108-110 °C"
    }
}