{
    "cas_no": "6461-30-9",
    "key_name": "5-Pyrimidinesulfonyl chloride, 1,2,3,4-tetrahydro-6-methyl-2,4-dioxo-",
    "cn_name": null,
    "alternate_name": "5-Pyrimidinesulfonyl chloride, 1,2,3,4-tetrahydro-6-methyl-2,4-dioxo-;5-Pyrimidinesulfonyl chloride, 2,4-dihydroxy-6-methyl-;6-Methyluracil-5-sulfonyl chloride;6-Methyluracil-5-sulfochloride;NSC 46425;1,2,3,4-Tetrahydro-6-methyl-2,4-dioxo-5-pyrimidinesulfonyl chloride;2,4-Dihydroxy-6-methylpyrimidine-5-sulfonyl chloride",
    "duplicated_cas_no": "",
    "SMILES": "S(Cl)(=O)(=O)C1=C(C)NC(=O)NC1=O",
    "meta_data": {
        "InChI": "InChI=1S/C5H5ClN2O4S/c1-2-3(13(6,11)12)4(9)8-5(10)7-2/h1H3,(H2,7,8,9,10)",
        "InChIKey": null,
        "Canonical SMILES": "O=C1NC(=O)C(=C(N1)C)S(=O)(=O)Cl",
        "Molecular Formula": "C<sub>5</sub>H<sub>5</sub>ClN<sub>2</sub>O<sub>4</sub>S",
        "Molecular Mass": "224.62",
        "Melting Point": "269-270 °C"
    }
}