{
    "cas_no": "84692-91-1",
    "key_name": "Arglabin",
    "cn_name": null,
    "alternate_name": "3<em>H</em>-Oxireno[8,8a]azuleno[4,5-<em>b</em>]furan-8(4a<em>H</em>)-one, 5,6,6a,7,9a,9b-hexahydro-1,4a-dimethyl-7-methylene-, (3a<em>R</em>,4a<em>S</em>,6a<em>S</em>,9a<em>S</em>,9b<em>R</em>)-;3<em>H</em>-Oxireno[8,8a]azuleno[4,5-<em>b</em>]furan-8(4a<em>H</em>)-one, 5,6,6a,7,9a,9b-hexahydro-1,4a-dimethyl-7-methylene-, [4a<em>S</em>-(3a<em>S</em>*,4aα,6aα,9aβ,9bα)]-;(3a<em>R</em>,4a<em>S</em>,6a<em>S</em>,9a<em>S</em>,9b<em>R</em>)-5,6,6a,7,9a,9b-Hexahydro-1,4a-dimethyl-7-methylene-3<em>H</em>-oxireno[8,8a]azuleno[4,5-<em>b</em>]furan-8(4a<em>H</em>)-one;Arglabin;(+)-Arglabin;Arglabine",
    "duplicated_cas_no": "2488402-52-2",
    "SMILES": "C[C@@]12[C@@]3([C@@]([C@@]4([C@@](CC1)(C(=C)C(=O)O4)[H])[H])(C(C)=CC3)[H])O2",
    "meta_data": {
        "InChI": "InChI=1S/C15H18O3/c1-8-4-7-15-11(8)12-10(9(2)13(16)17-12)5-6-14(15,3)18-15/h4,10-12H,2,5-7H2,1,3H3/t10-,11+,12-,14-,15+/m0/s1",
        "InChIKey": null,
        "Canonical SMILES": "O=C1OC2C(C1=C)CCC3(OC43CC=C(C)C24)C",
        "Molecular Formula": "C<sub>15</sub>H<sub>18</sub>O<sub>3</sub>",
        "Molecular Mass": "246.30",
        "Melting Point": "100-102 °C"
    }
}