{
    "cas_no": "7432-23-7",
    "key_name": "Glutamyltyrosine",
    "cn_name": "H-GLU(TYR-OH)-OH;",
    "alternate_name": "<span class=\"text-smallcaps\">L</smallcap>-Tyrosine, <smallcap>L</span>-γ-glutamyl-;Tyrosine, <em>N</em>-<span class=\"text-smallcaps\">L</smallcap>-γ-glutamyl-, <smallcap>L</span>-;<span class=\"text-smallcaps\">L</smallcap>-Tyrosine, <em>N</em>-<smallcap>L</span>-γ-glutamyl-;Tyrosine, <em>N</em>-<span class=\"text-smallcaps\">L</span>-γ-glutamyl-;<span class=\"text-smallcaps\">L</smallcap>-γ-Glutamyl-<smallcap>L</span>-tyrosine;Glutamyltyrosine;γ-<span class=\"text-smallcaps\">L</smallcap>-Glutamyl-<smallcap>L</span>-tyrosine;γ-Glutamyltyrosine;γ-Glutamyl-<span class=\"text-smallcaps\">L</span>-tyrosine;γ-Glu-Tyr",
    "duplicated_cas_no": "6720-09-8",
    "SMILES": "C([C@H](NC(CC[C@@H](C(O)=O)N)=O)C(O)=O)C1=CC=C(O)C=C1",
    "meta_data": {
        "InChI": "InChI=1S/C14H18N2O6/c15-10(13(19)20)5-6-12(18)16-11(14(21)22)7-8-1-3-9(17)4-2-8/h1-4,10-11,17H,5-7,15H2,(H,16,18)(H,19,20)(H,21,22)/t10-,11-/m0/s1",
        "InChIKey": null,
        "Canonical SMILES": "O=C(O)C(N)CCC(=O)NC(C(=O)O)CC1=CC=C(O)C=C1",
        "Molecular Formula": "C<sub>14</sub>H<sub>18</sub>N<sub>2</sub>O<sub>6</sub>",
        "Molecular Mass": "310.30",
        "Melting Point": "219-221 °C"
    }
}