{
    "cas_no": "163733-96-8",
    "key_name": "3,4,5-Trifluorobenzenamine",
    "cn_name": "3,4,5-三氟苯胺;",
    "alternate_name": "Benzenamine, 3,4,5-trifluoro-;3,4,5-Trifluorobenzenamine;3,4,5-Trifluoroaniline;3,4,5-Trifluorophenylamine",
    "duplicated_cas_no": "",
    "SMILES": "FC1=C(F)C=C(N)C=C1F",
    "meta_data": {
        "InChI": "InChI=1S/C6H4F3N/c7-4-1-3(10)2-5(8)6(4)9/h1-2H,10H2",
        "InChIKey": null,
        "Canonical SMILES": "FC=1C=C(N)C=C(F)C1F",
        "Molecular Formula": "C<sub>6</sub>H<sub>4</sub>F<sub>3</sub>N",
        "Molecular Mass": "147.10",
        "Melting Point": "62.40 °C"
    }
}