{
    "cas_no": "15707-24-1",
    "key_name": "2,3-Diethylpyrazine",
    "cn_name": "2,3-二乙基吡嗪;",
    "alternate_name": "Pyrazine, 2,3-diethyl-;2,3-Diethylpyrazine",
    "duplicated_cas_no": "38028-68-1",
    "SMILES": "C(C)C=1C(CC)=NC=CN1",
    "meta_data": {
        "InChI": "InChI=1S/C8H12N2/c1-3-7-8(4-2)10-6-5-9-7/h5-6H,3-4H2,1-2H3",
        "InChIKey": null,
        "Canonical SMILES": "N=1C=CN=C(C1CC)CC",
        "Molecular Formula": "C<sub>8</sub>H<sub>12</sub>N<sub>2</sub>",
        "Molecular Mass": "136.19",
        "Boiling Point": "181 °C"
    }
}