{
    "cas_no": "24601-74-9",
    "key_name": "Valine <em>N</em>-carboxyanhydride",
    "cn_name": null,
    "alternate_name": "2,5-Oxazolidinedione, 4-(1-methylethyl)-, (4<em>S</em>)-;2,5-Oxazolidinedione, 4-isopropyl-, <span class=\"text-smallcaps\">L</span>-;2,5-Oxazolidinedione, 4-(1-methylethyl)-, (<em>S</em>)-;(4<em>S</em>)-4-(1-Methylethyl)-2,5-oxazolidinedione;<em>L</em>-Valine-<em>N</em>-carboxy anhydride;Valine <em>N</em>-carboxyanhydride;<em>N</em>-Carboxy-<span class=\"text-smallcaps\">L</span>-valine anhydride;<span class=\"text-smallcaps\">L</span>-Valine <em>N</em>-carboxyanhydride;<span class=\"text-smallcaps\">L</span>-Valine-NCA",
    "duplicated_cas_no": "",
    "SMILES": "C(C)(C)C1NC(=O)OC1=O",
    "meta_data": {
        "InChI": "InChI=1S/C6H9NO3/c1-3(2)4-5(8)10-6(9)7-4/h3-4H,1-2H3,(H,7,9)",
        "InChIKey": null,
        "Canonical SMILES": "O=C1OC(=O)C(N1)C(C)C",
        "Molecular Formula": "C<sub>6</sub>H<sub>9</sub>NO<sub>3</sub>",
        "Molecular Mass": "143.14",
        "Melting Point": "62-63 °C (decomp)"
    }
}