{
    "cas_no": "6797-13-3",
    "key_name": "2-Ethylbenzoxazole",
    "cn_name": null,
    "alternate_name": "Benzoxazole, 2-ethyl-;2-Ethylbenzoxazole;2-Ethyl-1,3-benzoxazole;2-Ethylbenzo[<em>d</em>]oxazole",
    "duplicated_cas_no": "",
    "SMILES": "C(C)C1=NC=2C(O1)=CC=CC2",
    "meta_data": {
        "InChI": "InChI=1S/C9H9NO/c1-2-9-10-7-5-3-4-6-8(7)11-9/h3-6H,2H2,1H3",
        "InChIKey": null,
        "Canonical SMILES": "N=1C=2C=CC=CC2OC1CC",
        "Molecular Formula": "C<sub>9</sub>H<sub>9</sub>NO",
        "Molecular Mass": "147.17",
        "Boiling Point": "210 °C",
        "Melting Point": "214-217 °C",
        "Density": "1.081 g/cm³ @ Temp: 20 °C"
    }
}