{
    "cas_no": "10081-39-7",
    "key_name": "Betaine 30",
    "cn_name": "2,6-二苯基-4-(2,4,6-三苯基吡啶);",
    "alternate_name": "Pyridinium, 1-(2′-hydroxy[1,1′:3′,1′′-terphenyl]-5′-yl)-2,4,6-triphenyl-, inner salt;Pyridinium, 1-(3,5-diphenyl-4-hydroxyphenyl)-2,4,6-triphenyl-, hydroxide, inner salt;1-(2′-Hydroxy-<em>m</em>-terphenyl-5′-yl)-2,4,6-triphenylpyridinium hydroxide, inner salt;1-(2′-Hydroxy[1,1′:3′,1′′-terphenyl]-5′-yl)-2,4,6-triphenylpyridinium hydroxide inner salt;E<sub>T</sub> 30;2,6-Diphenyl-4-(2,4,6-triphenyl-1-pyridinio)phenolate;2,6-Diphenyl-4-(2,4,6-triphenyl-1-pyridinio)phenoxide;Reichardt's dye;Betaine 30;Reichardt's betain;4-(2,4,6-Triphenylpyridinio)-2,6-diphenylphenoxide;2,6-Diphenyl-4-(2′,4′,6′-triphenyl-1-pyridinium)phenolate;Reichardt's E<sub>T</sub>(30) betaine dye;Dimroth-Reichardt betaine dye;4-(2,4,6-Triphenylpyridinium-1-yl)-2,6-diphenylphenolate;2,6-Diphenyl-4-(2,4,6-triphenylpyridinium-1-yl)phenolate;Reichard's ET 30 dye;Reichardt dye;2,6-Diphenyl-4-(2,4,6-triphenylpyridin-1-ium-1-yl)phenolate",
    "duplicated_cas_no": "43085-74-1;144877-03-2;2089279-95-6",
    "SMILES": "[O-]C1=C(C=C([N+]=2C(=CC(=CC2C3=CC=CC=C3)C4=CC=CC=C4)C5=CC=CC=C5)C=C1C6=CC=CC=C6)C7=CC=CC=C7",
    "meta_data": {
        "InChI": "InChI=1S/C41H29NO/c43-41-37(31-18-8-2-9-19-31)28-36(29-38(41)32-20-10-3-11-21-32)42-39(33-22-12-4-13-23-33)26-35(30-16-6-1-7-17-30)27-40(42)34-24-14-5-15-25-34/h1-29H",
        "InChIKey": null,
        "Canonical SMILES": "[O-]C=1C(=CC(=CC1C=2C=CC=CC2)[N+]=3C(=CC(=CC3C=4C=CC=CC4)C=5C=CC=CC5)C6=CC=CC=C6)C7=CC=CC=C7",
        "Molecular Formula": "C<sub>41</sub>H<sub>29</sub>NO",
        "Molecular Mass": "",
        "Melting Point": "200-275 °C"
    }
}