{
    "cas_no": "2589-72-2",
    "key_name": "1-(4-Hydroxyphenyl)-1-hexanone",
    "cn_name": "4\"-羟基苯己酮;对羟基苯己酮;",
    "alternate_name": "1-Hexanone, 1-(4-hydroxyphenyl)-;Hexanophenone, 4′-hydroxy-;Caprophenone, <em>p</em>-hydroxy-;1-(4-Hydroxyphenyl)-1-hexanone;4-Hexanoylphenol;4′-Hydroxyhexanophenone;4-Caproylphenol;NSC 402440;4-Hydroxyphenyl pentyl ketone",
    "duplicated_cas_no": "",
    "SMILES": "C(CCCCC)(=O)C1=CC=C(O)C=C1",
    "meta_data": {
        "InChI": "InChI=1S/C12H16O2/c1-2-3-4-5-12(14)10-6-8-11(13)9-7-10/h6-9,13H,2-5H2,1H3",
        "InChIKey": null,
        "Canonical SMILES": "O=C(C1=CC=C(O)C=C1)CCCCC",
        "Molecular Formula": "C<sub>12</sub>H<sub>16</sub>O<sub>2</sub>",
        "Molecular Mass": "192.25",
        "Boiling Point": "207-208 °C @ Press: 10 Torr",
        "Melting Point": "63-64 °C"
    }
}