{
    "cas_no": "3537-14-2",
    "key_name": "5-Nitro-2,3-pyridinediamine",
    "cn_name": null,
    "alternate_name": "2,3-Pyridinediamine, 5-nitro-;Pyridine, 2,3-diamino-5-nitro-;5-Nitro-2,3-pyridinediamine;2,3-Diamino-5-nitropyridine;NSC 107296;5-Nitropyridine-2,3-diamine",
    "duplicated_cas_no": "",
    "SMILES": "N(=O)(=O)C=1C=C(N)C(N)=NC1",
    "meta_data": {
        "InChI": "InChI=1S/C5H6N4O2/c6-4-1-3(9(10)11)2-8-5(4)7/h1-2H,6H2,(H2,7,8)",
        "InChIKey": null,
        "Canonical SMILES": "O=N(=O)C1=CN=C(N)C(N)=C1",
        "Molecular Formula": "C<sub>5</sub>H<sub>6</sub>N<sub>4</sub>O<sub>2</sub>",
        "Molecular Mass": "154.13",
        "Melting Point": "260 °C"
    }
}