{
    "cas_no": "70851-52-4",
    "key_name": "Triacontyldimethylchlorosilane",
    "cn_name": "正三十烷基二甲基氯硅烷;",
    "alternate_name": "Silane, chlorodimethyltriacontyl-;Chlorodimethyltriacontylsilane;Dimethyltriacontylchlorosilane;Triacontyldimethylchlorosilane",
    "duplicated_cas_no": "",
    "SMILES": "C(CCCCCCCCCCCCCCCCCCCCCCCCCCC)CC[Si](C)(C)Cl",
    "meta_data": {
        "InChI": "InChI=1S/C32H67ClSi/c1-4-5-6-7-8-9-10-11-12-13-14-15-16-17-18-19-20-21-22-23-24-25-26-27-28-29-30-31-32-34(2,3)33/h4-32H2,1-3H3",
        "InChIKey": null,
        "Canonical SMILES": "Cl[Si](C)(C)CCCCCCCCCCCCCCCCCCCCCCCCCCCCCC",
        "Molecular Formula": "C<sub>32</sub>H<sub>67</sub>ClSi",
        "Molecular Mass": "515.41",
        "Melting Point": "60-82 °C"
    }
}