{
    "cas_no": "1874-62-0",
    "key_name": "3-Ethoxy-1,2-propanediol",
    "cn_name": "3-乙氧基-1,2-丙二醇;3-乙氧基-1,2-丙二胺;",
    "alternate_name": "1,2-Propanediol, 3-ethoxy-;3-Ethoxy-1,2-propanediol;Glycerol α-monoethyl ether;Glycerol α-ethyl ether;Glycerol 1-ethyl ether;Glycerin 1-ethyl ether;NSC 227880",
    "duplicated_cas_no": "98975-35-0",
    "SMILES": "C(COCC)(CO)O",
    "meta_data": {
        "InChI": "InChI=1S/C5H12O3/c1-2-8-4-5(7)3-6/h5-7H,2-4H2,1H3",
        "InChIKey": null,
        "Canonical SMILES": "OCC(O)COCC",
        "Molecular Formula": "C<sub>5</sub>H<sub>12</sub>O<sub>3</sub>",
        "Molecular Mass": "120.15",
        "Boiling Point": "160 °C @ Press: 100 Torr",
        "Density": "1.0947 g/cm³ @ Temp: 20 °C"
    }
}