{
    "cas_no": "4883-60-7",
    "key_name": "2-Hydroxy-3,5,5-trimethyl-2-cyclohexenone",
    "cn_name": "2-羟基-3,5,5-三甲基环己-1-烯-1-酮;烟酮;3,5,5-三甲基环己烷-1,2-二酮;",
    "alternate_name": "2-Cyclohexen-1-one, 2-hydroxy-3,5,5-trimethyl-;2-Hydroxy-3,5,5-trimethyl-2-cyclohexen-1-one;2-Hydroxy-3,5,5-trimethyl-2-cyclohexenone;2-Hydroxyisophorone;2-Hydroxy-3,5,5-trimethylcyclohex-2-ene-1-one",
    "duplicated_cas_no": "",
    "SMILES": "CC1(C)CC(C)=C(O)C(=O)C1",
    "meta_data": {
        "InChI": "InChI=1S/C9H14O2/c1-6-4-9(2,3)5-7(10)8(6)11/h11H,4-5H2,1-3H3",
        "InChIKey": null,
        "Canonical SMILES": "O=C1C(O)=C(C)CC(C)(C)C1",
        "Molecular Formula": "C<sub>9</sub>H<sub>14</sub>O<sub>2</sub>",
        "Molecular Mass": "154.21",
        "Melting Point": "91-92 °C"
    }
}