{
    "cas_no": "16662-46-7",
    "key_name": "Gallopamil hydrochloride",
    "cn_name": null,
    "alternate_name": "Benzeneacetonitrile, α-[3-[[2-(3,4-dimethoxyphenyl)ethyl]methylamino]propyl]-3,4,5-trimethoxy-α-(1-methylethyl)-, hydrochloride (1:1);Valeronitrile, 5-[(3,4-dimethoxyphenethyl)methylamino]-2-isopropyl-2-(3,4,5-trimethoxyphenyl)-, monohydrochloride;Benzeneacetonitrile, α-[3-[[2-(3,4-dimethoxyphenyl)ethyl]methylamino]propyl]-3,4,5-trimethoxy-α-(1-methylethyl)-, monohydrochloride;D 600 Hydrochloride;Gallopamil hydrochloride;Algocor;Procorum;NSC 274966",
    "duplicated_cas_no": "56949-75-8",
    "SMILES": "C(CCCN(CCC1=CC(OC)=C(OC)C=C1)C)(C(C)C)(C#N)C2=CC(OC)=C(OC)C(OC)=C2.Cl",
    "meta_data": {
        "InChI": "InChI=1S/C28H40N2O5.ClH/c1-20(2)28(19-29,22-17-25(33-6)27(35-8)26(18-22)34-7)13-9-14-30(3)15-12-21-10-11-23(31-4)24(16-21)32-5;/h10-11,16-18,20H,9,12-15H2,1-8H3;1H",
        "InChIKey": null,
        "Canonical SMILES": "Cl.N#CC(C1=CC(OC)=C(OC)C(OC)=C1)(CCCN(C)CCC2=CC=C(OC)C(OC)=C2)C(C)C",
        "Molecular Formula": "C<sub>28</sub>H<sub>40</sub>N<sub>2</sub>O<sub>5</sub>.ClH",
        "Molecular Mass": "",
        "Melting Point": "145-148 °C"
    }
}