{
    "cas_no": "699-83-2",
    "key_name": "2′,6′-Dihydroxyacetophenone",
    "cn_name": "2,6-二羟基苯乙酮;",
    "alternate_name": "Ethanone, 1-(2,6-dihydroxyphenyl)-;Acetophenone, 2′,6′-dihydroxy-;Acetophenone, 2,6-dihydroxy-;1-(2,6-Dihydroxyphenyl)ethanone;γ-Resacetophenone;1,3-Benzenediol, 2-acetyl-;2-Acetylresorcinol;2′,6′-Dihydroxyacetophenone;2-Acetylbenzene-1,3-diol;NSC 615;1-(2,6-Dihydroxyphenyl)ethan-1-one",
    "duplicated_cas_no": "",
    "SMILES": "C(C)(=O)C1=C(O)C=CC=C1O",
    "meta_data": {
        "InChI": "InChI=1S/C8H8O3/c1-5(9)8-6(10)3-2-4-7(8)11/h2-4,10-11H,1H3",
        "InChIKey": null,
        "Canonical SMILES": "O=C(C=1C(O)=CC=CC1O)C",
        "Molecular Formula": "C<sub>8</sub>H<sub>8</sub>O<sub>3</sub>",
        "Molecular Mass": "152.15",
        "Boiling Point": "120-130 °C @ Press: 0.01 Torr",
        "Melting Point": "157-158 °C"
    }
}