{
    "cas_no": "53369-17-8",
    "key_name": "(-)-Myrtanol",
    "cn_name": "(?)-反-桃金娘烷醇;",
    "alternate_name": "Bicyclo[3.1.1]heptane-2-methanol, 6,6-dimethyl-, (1<em>S</em>,2<em>S</em>,5<em>S</em>)-;Bicyclo[3.1.1]heptane-2-methanol, 6,6-dimethyl-, [1<em>S</em>-(1α,2α,5α)]-;(1<em>S</em>,2<em>S</em>,5<em>S</em>)-6,6-Dimethylbicyclo[3.1.1]heptane-2-methanol;(-)-Myrtanol;(1<em>S</em>,2<em>S</em>,5<em>S</em>)-Myrtanol;(-)-<em>trans</em>-Myrtanol;(1<em>S</em>)-Myrtanol;((1<em>S</em>,2<em>S</em>,5<em>S</em>)-6,6-Dimethylbicyclo[3.1.1]hept-2-yl)methanol;[(2<em>S</em>)-<em>trans</em>]-(1<em>S</em>,5<em>S</em>)-6,6-Dimethylbicyclo[3,1,1]heptan-2-yl-methanol;((1S,2S,5S)-6,6-Dimethylbicyclo[3.1.1]-heptan-2-yl)methanol;((1<em>S</em>,2<em>S</em>,5<em>S</em>)-6,6-Dimethylbicyclo[3.1.1]heptan-2-yl)methanol",
    "duplicated_cas_no": "",
    "SMILES": "CC1(C)[C@@]2([C@@H](CO)CC[C@]1(C2)[H])[H]",
    "meta_data": {
        "InChI": "InChI=1S/C10H18O/c1-10(2)8-4-3-7(6-11)9(10)5-8/h7-9,11H,3-6H2,1-2H3/t7-,8+,9+/m1/s1",
        "InChIKey": null,
        "Canonical SMILES": "OCC1CCC2CC1C2(C)C",
        "Molecular Formula": "C<sub>10</sub>H<sub>18</sub>O",
        "Molecular Mass": "154.25",
        "Boiling Point": "118 °C"
    }
}