{
    "cas_no": "2140-67-2",
    "key_name": "<em>N</em><sup>2</sup>,<em>N</em><sup>2</sup>-Dimethylguanosine",
    "cn_name": "N2,N2-二甲基鸟苷;N2,N2-二甲基鸟苷;",
    "alternate_name": "Guanosine, <em>N</em>,<em>N</em>-dimethyl-;<em>N</em>,<em>N</em>-Dimethylguanosine;2,2-Dimethylguanosine;2-Dimethylamino-6-oxypurine riboside;<em>N</em><sup>2</sup>,<em>N</em><sup>2</sup>-Dimethylguanosine",
    "duplicated_cas_no": "",
    "SMILES": "O=C1C2=C(N(C=N2)[C@@H]3O[C@H](CO)[C@@H](O)[C@H]3O)NC(N(C)C)=N1",
    "meta_data": {
        "InChI": "InChI=1S/C12H17N5O5/c1-16(2)12-14-9-6(10(21)15-12)13-4-17(9)11-8(20)7(19)5(3-18)22-11/h4-5,7-8,11,18-20H,3H2,1-2H3,(H,14,15,21)/t5-,7-,8-,11-/m1/s1",
        "InChIKey": null,
        "Canonical SMILES": "O=C1N=C(NC2=C1N=CN2C3OC(CO)C(O)C3O)N(C)C",
        "Molecular Formula": "C<sub>12</sub>H<sub>17</sub>N<sub>5</sub>O<sub>5</sub>",
        "Molecular Mass": "311.29",
        "Melting Point": "235-236 °C (decomp)"
    }
}