{
    "cas_no": "590-01-2",
    "key_name": "Butyl propionate",
    "cn_name": "丙酸丁酯;",
    "alternate_name": "Propanoic acid, butyl ester;Propionic acid, butyl ester;Butyl propionate;<em>n</em>-Butyl propionate;Butyl propanoate;<em>n</em>-Butyl propanoate;NSC 8449",
    "duplicated_cas_no": "",
    "SMILES": "C(OCCCC)(CC)=O",
    "meta_data": {
        "InChI": "InChI=1S/C7H14O2/c1-3-5-6-9-7(8)4-2/h3-6H2,1-2H3",
        "InChIKey": null,
        "Canonical SMILES": "O=C(OCCCC)CC",
        "Molecular Formula": "C<sub>7</sub>H<sub>14</sub>O<sub>2</sub>",
        "Molecular Mass": "130.18",
        "Boiling Point": "146 °C",
        "Melting Point": "-90 °C",
        "Density": "0.9 g/cm³"
    }
}