{
    "cas_no": "611-35-8",
    "key_name": "4-Chloroquinoline",
    "cn_name": "4-氯喹啉;4-氯喹啉;",
    "alternate_name": "Quinoline, 4-chloro-;4-Chloroquinoline;NSC 96902",
    "duplicated_cas_no": "",
    "SMILES": "ClC=1C2=C(N=CC1)C=CC=C2",
    "meta_data": {
        "InChI": "InChI=1S/C9H6ClN/c10-8-5-6-11-9-4-2-1-3-7(8)9/h1-6H",
        "InChIKey": null,
        "Canonical SMILES": "ClC=1C=CN=C2C=CC=CC12",
        "Molecular Formula": "C<sub>9</sub>H<sub>6</sub>ClN",
        "Molecular Mass": "163.60",
        "Boiling Point": "262 °C",
        "Melting Point": "34.5 °C",
        "Density": "1.251 g/cm³ (Solid)"
    }
}