{
    "cas_no": "1193-18-6",
    "key_name": "3-Methyl-2-cyclohexen-1-one",
    "cn_name": "3-甲基-2-环己烯-1-酮;",
    "alternate_name": "2-Cyclohexen-1-one, 3-methyl-;3-Methyl-2-cyclohexen-1-one;1-Methyl-1-cyclohexen-3-one;Seudenone;MCH;3-Methyl-2-cyclohexene-1-one;NSC 43632;3-Methyl-2-cyclohexenone",
    "duplicated_cas_no": "",
    "SMILES": "CC1=CC(=O)CCC1",
    "meta_data": {
        "InChI": "InChI=1S/C7H10O/c1-6-3-2-4-7(8)5-6/h5H,2-4H2,1H3",
        "InChIKey": null,
        "Canonical SMILES": "O=C1C=C(C)CCC1",
        "Molecular Formula": "C<sub>7</sub>H<sub>10</sub>O",
        "Molecular Mass": "110.15",
        "Boiling Point": "201 °C",
        "Melting Point": "-21 °C",
        "Density": "0.978 g/cm³ @ Temp: 15 °C"
    }
}