{
    "cas_no": "405230-90-2",
    "key_name": "2-Chloro-5-fluoro-3-nitro-4-pyridinamine",
    "cn_name": null,
    "alternate_name": "4-Pyridinamine, 2-chloro-5-fluoro-3-nitro-;2-Chloro-5-fluoro-3-nitro-4-pyridinamine",
    "duplicated_cas_no": "",
    "SMILES": "N(=O)(=O)C=1C(N)=C(F)C=NC1Cl",
    "meta_data": {
        "InChI": "InChI=1S/C5H3ClFN3O2/c6-5-4(10(11)12)3(8)2(7)1-9-5/h1H,(H2,8,9)",
        "InChIKey": null,
        "Canonical SMILES": "O=N(=O)C=1C(Cl)=NC=C(F)C1N",
        "Molecular Formula": "C<sub>5</sub>H<sub>3</sub>ClFN<sub>3</sub>O<sub>2</sub>",
        "Molecular Mass": "191.55",
        "Melting Point": "154-155 °C"
    }
}