{
    "cas_no": "20485-43-2",
    "key_name": "1-Methyl-1<em>H</em>-imidazole-2-carboxylic acid",
    "cn_name": "1-甲基-1H-咪唑-2-羧酸;1-甲基-1H-咪唑-2-甲酸;",
    "alternate_name": "1<em>H</em>-Imidazole-2-carboxylic acid, 1-methyl-;Imidazole-2-carboxylic acid, 1-methyl-;1-Methyl-1<em>H</em>-imidazole-2-carboxylic acid;1-Methyl-1<em>H</em>-2-imidazolecarboxylic acid;1-Methylimidazole-2-carboxylic acid",
    "duplicated_cas_no": "",
    "SMILES": "C(O)(=O)C=1N(C)C=CN1",
    "meta_data": {
        "InChI": "InChI=1S/C5H6N2O2/c1-7-3-2-6-4(7)5(8)9/h2-3H,1H3,(H,8,9)",
        "InChIKey": null,
        "Canonical SMILES": "O=C(O)C1=NC=CN1C",
        "Molecular Formula": "C<sub>5</sub>H<sub>6</sub>N<sub>2</sub>O<sub>2</sub>",
        "Molecular Mass": "126.11",
        "Melting Point": "99-101 °C"
    }
}