{
    "cas_no": "4080-31-3",
    "key_name": "Quaternium 15",
    "cn_name": "1-(3-氯-2-丙烯基)-3,5,7-三氮杂-1-氮翁三环[3,3,1,13,7]癸烷氯化物;1-(3-氯代烯丙基)-3,5,7-三氮杂-1-氮翁;",
    "alternate_name": "3,5,7-Triaza-1-azoniatricyclo[3.3.1.1<sup>3,7</sup>]decane, 1-(3-chloro-2-propen-1-yl)-, chloride (1:1);3,5,7-Triaza-1-azoniaadamantane, 1-(3-chloroallyl)-, chloride;1-(3-Chloroallyl)-3,5,7-triaza-1-azoniaadamantane chloride;3,5,7-Triaza-1-azoniatricyclo[3.3.1.1<sup>3,7</sup>]decane, 1-(3-chloro-2-propenyl)-, chloride;1,3,5,7-Tetraazatricyclo[3.3.1.1<sup>3,7</sup>]decane, 3,5,7-triaza-1-azoniatricyclo[3.3.1.1<sup>3,7</sup>]decane deriv.;Dowco 184;Dowicil 100;1-(3-Chloroallyl)-3,5,7-triaza-1-azoniumadamantane chloride;Dowicide Q;Dowicil 75;1-(3-Chloroallyl)-3,5,7-triaza-1-azoniadamantane chloride;Quaternium 15;<em>N</em>-(3-Chloroallyl)hexaminium chloride;1-(3-Chloro-2-propenyl)-3,5,7-triaza-1-azoniatricyclo[3.3.1.1<sup>3,7</sup>]decane chloride;3-(3′-Chloroallyl)hexamethylenetetraammonium chloride;daoweixier 75;1-(3-Chloroallyl)-1,3,5,7-tetraazaadamantan-1-iumchloride;Dowacil 200",
    "duplicated_cas_no": "103638-29-5;60789-82-4",
    "SMILES": "C(C=CCl)[N+]12CN3CN(C1)CN(C2)C3.[Cl-]",
    "meta_data": {
        "InChI": "InChI=1S/C9H16ClN4.ClH/c10-2-1-3-14-7-11-4-12(8-14)6-13(5-11)9-14;/h1-2H,3-9H2;1H/q+1;/p-1",
        "InChIKey": null,
        "Canonical SMILES": "[Cl-].ClC=CC[N+]12CN3CN(CN(C3)C1)C2",
        "Molecular Formula": "C<sub>9</sub>H<sub>16</sub>ClN<sub>4</sub>.Cl",
        "Molecular Mass": "",
        "Melting Point": "178-210 °C"
    }
}