{
    "cas_no": "1466-76-8",
    "key_name": "2,6-Dimethoxybenzoic acid",
    "cn_name": "2,6-二甲氧基苯甲酸;",
    "alternate_name": "Benzoic acid, 2,6-dimethoxy-;2,6-Dimethoxybenzoic acid;NSC 28591",
    "duplicated_cas_no": "",
    "SMILES": "C(O)(=O)C1=C(OC)C=CC=C1OC",
    "meta_data": {
        "InChI": "InChI=1S/C9H10O4/c1-12-6-4-3-5-7(13-2)8(6)9(10)11/h3-5H,1-2H3,(H,10,11)",
        "InChIKey": null,
        "Canonical SMILES": "O=C(O)C=1C(OC)=CC=CC1OC",
        "Molecular Formula": "C<sub>9</sub>H<sub>10</sub>O<sub>4</sub>",
        "Molecular Mass": "182.17",
        "Melting Point": "186 °C (decomp)"
    }
}