{
    "cas_no": "1594-56-5",
    "key_name": "2,4-Dinitrophenyl thiocyanate",
    "cn_name": "二硝散;2,4-二硝基硫氰基苯;",
    "alternate_name": "Thiocyanic acid, 2,4-dinitrophenyl ester;Benzene, 2,4-dinitro-1-thiocyanato-;2317W;2,4-Dinitrophenyl thiocyanate;2,4-Dinitro-1-thiocyanobenzene;DNRB;Nirit;Rodatox 60;Grzybol;2,4-Dinitrothiocyanatobenzene;Nirit Supra;RDNB;Rhodandinitrobenzol;NBT (pesticide);NBT;DNTB;NSC 540;[(2,4-Dinitrophenyl)sulfanyl]formonitrile",
    "duplicated_cas_no": "",
    "SMILES": "N(=O)(=O)C1=C(SC#N)C=CC(N(=O)=O)=C1",
    "meta_data": {
        "InChI": "InChI=1S/C7H3N3O4S/c8-4-15-7-2-1-5(9(11)12)3-6(7)10(13)14/h1-3H",
        "InChIKey": null,
        "Canonical SMILES": "N#CSC1=CC=C(C=C1N(=O)=O)N(=O)=O",
        "Molecular Formula": "C<sub>7</sub>H<sub>3</sub>N<sub>3</sub>O<sub>4</sub>S",
        "Molecular Mass": "225.18",
        "Melting Point": "138-139 °C"
    }
}