{
    "cas_no": "183133-96-2",
    "key_name": "Cabazitaxel",
    "cn_name": null,
    "alternate_name": "Benzenepropanoic acid, β-[[(1,1-dimethylethoxy)carbonyl]amino]-α-hydroxy-, (2a<em>R</em>,4<em>S</em>,4a<em>S</em>,6<em>R</em>,9<em>S</em>,11<em>S</em>,12<em>S</em>,12a<em>R</em>,12b<em>S</em>)-12b-(acetyloxy)-12-(benzoyloxy)-2a,3,4,4a,5,6,9,10,11,12,12a,12b-dodecahydro-11-hydroxy-4,6-dimethoxy-4a,8,13,13-tetramethyl-5-oxo-7,11-methano-1<em>H</em>-cyclodeca[3,4]benz[1,2-<em>b</em>]oxet-9-yl ester, (α<em>R</em>,β<em>S</em>)-;Benzenepropanoic acid, β-[[(1,1-dimethylethoxy)carbonyl]amino]-α-hydroxy-, 12b-(acetyloxy)-12-(benzoyloxy)-2a,3,4,4a,5,6,9,10,11,12,12a,12b-dodecahydro-11-hydroxy-4,6-dimethoxy-4a,8,13,13-tetramethyl-5-oxo-7,11-methano-1<em>H</em>-cyclodeca[3,4]benz[1,2-<em>b</em>]oxet-9-yl ester, [2a<em>R</em>-[2aα,4β,4aβ,6β,9α(α<em>R</em>*,β<em>S</em>*),11α,12α,12aα,12bα]]-;TXD 258;Cabazitaxel;XRP 6258;Jevtana;DEP cabazitaxel",
    "duplicated_cas_no": "890654-44-1;2709036-22-4",
    "SMILES": "O(C(C)=O)[C@]12[C@]3([C@H](OC(=O)C4=CC=CC=C4)[C@@]5(O)C(C)(C)C([C@@H](OC)C(=O)[C@]3(C)[C@@H](OC)C[C@]1(OC2)[H])=C(C)[C@@H](OC([C@@H]([C@@H](NC(OC(C)(C)C)=O)C6=CC=CC=C6)O)=O)C5)[H]",
    "meta_data": {
        "InChI": "InChI=1S/C45H57NO14/c1-24-28(57-39(51)33(48)32(26-17-13-11-14-18-26)46-40(52)60-41(3,4)5)22-45(53)37(58-38(50)27-19-15-12-16-20-27)35-43(8,36(49)34(55-10)31(24)42(45,6)7)29(54-9)21-30-44(35,23-56-30)59-25(2)47/h11-20,28-30,32-35,37,48,53H,21-23H2,1-10H3,(H,46,52)/t28-,29-,30+,32-,33+,34+,35-,37-,43+,44-,45+/m0/s1",
        "InChIKey": null,
        "Canonical SMILES": "O=C(OC(C)(C)C)NC(C=1C=CC=CC1)C(O)C(=O)OC2C(=C3C(OC)C(=O)C4(C)C(OC)CC5OCC5(OC(=O)C)C4C(OC(=O)C=6C=CC=CC6)C(O)(C2)C3(C)C)C",
        "Molecular Formula": "C<sub>45</sub>H<sub>57</sub>NO<sub>14</sub>",
        "Molecular Mass": "835.93",
        "Melting Point": "227-228 °C"
    }
}