{
    "cas_no": "133627-45-9",
    "key_name": "3-amino-2-chloro-4-methylpyridine",
    "cn_name": "2-氯-3-氨基-4-甲基吡啶;",
    "alternate_name": "3-Pyridinamine, 2-chloro-4-methyl-;2-Chloro-4-methyl-3-pyridinamine;3-amino-2-chloro-4-methylpyridine;Capic;2-Chloro-4-methylpyridin-3-amine;2-Chloro-3-amino-4-methylpyridine",
    "duplicated_cas_no": "",
    "SMILES": "NC=1C(C)=CC=NC1Cl",
    "meta_data": {
        "InChI": "InChI=1S/C6H7ClN2/c1-4-2-3-9-6(7)5(4)8/h2-3H,8H2,1H3",
        "InChIKey": null,
        "Canonical SMILES": "ClC1=NC=CC(=C1N)C",
        "Molecular Formula": "C<sub>6</sub>H<sub>7</sub>ClN<sub>2</sub>",
        "Molecular Mass": "142.59",
        "Melting Point": "60-62 °C"
    }
}