{
    "cas_no": "519-95-9",
    "key_name": "γ-Oxo-8-fluoranthenebutanoic acid",
    "cn_name": "夫洛梯隆;",
    "alternate_name": "8-Fluoranthenebutanoic acid, γ-oxo-;8-Fluoranthenebutyric acid, γ-oxo-;γ-Oxo-8-fluoranthenebutanoic acid;SC 1674;Anchol;β-(8-Fluoranthoyl)propionic acid;β-(8-Fluoranthyloyl)propionic acid;Fluorantyrone;Gamma-Fluoranthen-8-yl-gamma-oxybutyric acid;γ-Oxo-8-fluoranthenebutyric acid;Zanchol;Florantyrone;Florantyron;Bilyn;Cistoplex;Fluochol;Idrobil;Idroepar;Kanchol",
    "duplicated_cas_no": "",
    "SMILES": "C(CCC(O)=O)(=O)C=1C=C2C3=C4C(C2=CC1)=CC=CC4=CC=C3",
    "meta_data": {
        "InChI": "InChI=1S/C20H14O3/c21-18(9-10-19(22)23)13-7-8-14-15-5-1-3-12-4-2-6-16(20(12)15)17(14)11-13/h1-8,11H,9-10H2,(H,22,23)",
        "InChIKey": null,
        "Canonical SMILES": "O=C(O)CCC(=O)C1=CC=C2C3=CC=CC=4C=CC=C(C2=C1)C43",
        "Molecular Formula": "C<sub>20</sub>H<sub>14</sub>O<sub>3</sub>",
        "Molecular Mass": "302.32",
        "Melting Point": "195 °C"
    }
}