{
    "cas_no": "2188-18-3",
    "key_name": "<em>N</em><sup>2</sup>-[(1,1-Dimethylethoxy)carbonyl]-<em>N</em><sup>5</sup>-[imino(nitroamino)methyl]-<span class=\"text-smallcaps\">L</span>-ornithine",
    "cn_name": "N-Boc-N\"-硝基-L-精氨酸;",
    "alternate_name": "<span class=\"text-smallcaps\">L</span>-Ornithine, <em>N</em><sup>2</sup>-[(1,1-dimethylethoxy)carbonyl]-<em>N</em><sup>5</sup>-[imino(nitroamino)methyl]-;Ornithine, <em>N</em><sup>2</sup>-carboxy-<em>N</em><sup>5</sup>-(nitroamidino)-, <em>N</em><sup>2</sup>-<em>tert</em>-butyl ester, <span class=\"text-smallcaps\">L</span>-;Ornithine, <em>N</em><sup>2</sup>-carboxy-<em>N</em><sup>5</sup>-(nitroamidino)-, <em>N</em>-<em>tert</em>-butyl ester;<em>N</em><sup>2</sup>-[(1,1-Dimethylethoxy)carbonyl]-<em>N</em><sup>5</sup>-[imino(nitroamino)methyl]-<span class=\"text-smallcaps\">L</span>-ornithine;<em>N</em><sup>α</sup>-<em>tert</em>-Butoxycarbonyl-<em>N</em><sup>G</sup>-nitro-<span class=\"text-smallcaps\">L</span>-arginine;<em>N</em><sup>2</sup>-<em>tert</em>-Butyloxycarbonyl-<em>N</em><sup>ω</sup>-nitro-<span class=\"text-smallcaps\">L</span>-arginine;<em>N</em><sup>2</sup>-<em>tert</em>-Butoxycarbonyl-<em>N</em><sup>G</sup>-nitroarginine;<em>N</em><sup>α</sup>-<em>tert</em>-Butoxycarbonyl-<em>N</em><sup>G</sup>-nitroarginine;(2S)-2-[[(<em>tert</em>-Butoxy)carbonyl]amino]-5-(<em>N</em>′-nitrocarbamimidamido)pentanoic acid;(2S)-5-[Amino(nitramido)methylidene]azaniumyl-2-[(2-methylpropan-2-yl)oxycarbonylamino]pentanoate;(2S)-2-(<em>tert</em>-Butoxycarbonylamino)-5-[(<em>N</em>-nitrocarbamimidoyl)amino]pentanoic acid",
    "duplicated_cas_no": "126265-25-6;51536-55-1;73343-61-0;74863-80-2;90523-43-6",
    "SMILES": "[C@H](NC(OC(C)(C)C)=O)(CCCNC(NN(=O)=O)=N)C(O)=O",
    "meta_data": {
        "InChI": "InChI=1S/C11H21N5O6/c1-11(2,3)22-10(19)14-7(8(17)18)5-4-6-13-9(12)15-16(20)21/h7H,4-6H2,1-3H3,(H,14,19)(H,17,18)(H3,12,13,15)/t7-/m0/s1",
        "InChIKey": null,
        "Canonical SMILES": "O=C(OC(C)(C)C)NC(C(=O)O)CCCNC(=N)NN(=O)=O",
        "Molecular Formula": "C<sub>11</sub>H<sub>21</sub>N<sub>5</sub>O<sub>6</sub>",
        "Molecular Mass": "319.31",
        "Melting Point": "111-113 °C"
    }
}