{
    "cas_no": "1553-56-6",
    "key_name": "Dehydrolithocholic acid",
    "cn_name": null,
    "alternate_name": "Cholan-24-oic acid, 3-oxo-, (5β)-;5β-Cholan-24-oic acid, 3-oxo-;5β-Cholanic acid, 3-oxo-;(5β)-3-Oxocholan-24-oic acid;Dehydrolithocholic acid;Lithocholic acid, dehydro-;3-Oxo-5β-cholanoic acid;3-Oxo-5β-cholan-24-oic acid;3-<em>keto</em>-5β-Cholanic acid;3-Ketolithocholic acid;3-Oxocholanic acid;3-Oxo-5β-cholanic acid;3-Oxolithocholic acid;5β-Cholanic acid-3-one;3-<em>keto</em>-5β-Cholan-24-oic acid",
    "duplicated_cas_no": "",
    "SMILES": "C[C@@]12[C@]([C@]3([C@@]([C@]4(C)[C@](CC3)(CC(=O)CC4)[H])(CC1)[H])[H])(CC[C@@]2([C@@H](CCC(O)=O)C)[H])[H]",
    "meta_data": {
        "InChI": "InChI=1S/C24H38O3/c1-15(4-9-22(26)27)19-7-8-20-18-6-5-16-14-17(25)10-12-23(16,2)21(18)11-13-24(19,20)3/h15-16,18-21H,4-14H2,1-3H3,(H,26,27)/t15-,16-,18+,19-,20+,21+,23+,24-/m1/s1",
        "InChIKey": null,
        "Canonical SMILES": "O=C(O)CCC(C)C1CCC2C3CCC4CC(=O)CCC4(C)C3CCC12C",
        "Molecular Formula": "C<sub>24</sub>H<sub>38</sub>O<sub>3</sub>",
        "Molecular Mass": "374.56",
        "Melting Point": "140-141 °C"
    }
}