{
    "cas_no": "2001-29-8",
    "key_name": "1-(4-Bromophenyl)-2-phenylethanone",
    "cn_name": "4-溴苯基苄基酮;4-溴-2\"-苯基苯乙酮;",
    "alternate_name": "Ethanone, 1-(4-bromophenyl)-2-phenyl-;Acetophenone, 4′-bromo-2-phenyl-;1-(4-Bromophenyl)-2-phenylethanone;4-Bromodeoxybenzoin;4′-Bromo-2-phenylacetophenone;<em>p</em>-Bromophenyl benzyl ketone;4-Bromodesoxybenzoin;4-Bromophenyl benzyl ketone;Benzyl 4-bromophenyl ketone;Benzyl <em>p</em>-bromophenyl ketone;1-(4-Bromophenyl)-2-phenylethan-1-one",
    "duplicated_cas_no": "",
    "SMILES": "C(CC1=CC=CC=C1)(=O)C2=CC=C(Br)C=C2",
    "meta_data": {
        "InChI": "InChI=1S/C14H11BrO/c15-13-8-6-12(7-9-13)14(16)10-11-4-2-1-3-5-11/h1-9H,10H2",
        "InChIKey": null,
        "Canonical SMILES": "O=C(C1=CC=C(Br)C=C1)CC=2C=CC=CC2",
        "Molecular Formula": "C<sub>14</sub>H<sub>11</sub>BrO",
        "Molecular Mass": "275.14",
        "Boiling Point": "165 °C @ Press: 3 Torr",
        "Melting Point": "113.5-115 °C"
    }
}