{
    "cas_no": "718-71-8",
    "key_name": "Ethyl α-cyano-α-ethylbenzeneacetate",
    "cn_name": "2-氰基-2-苯基丁酸乙酯;",
    "alternate_name": "Benzeneacetic acid, α-cyano-α-ethyl-, ethyl ester;Butyric acid, 2-cyano-2-phenyl-, ethyl ester;Ethyl α-cyano-α-ethylbenzeneacetate;Ethyl cyanoethylphenylacetate;NSC 69121",
    "duplicated_cas_no": "98459-42-8",
    "SMILES": "C(C(OCC)=O)(CC)(C#N)C1=CC=CC=C1",
    "meta_data": {
        "InChI": "InChI=1S/C13H15NO2/c1-3-13(10-14,12(15)16-4-2)11-8-6-5-7-9-11/h5-9H,3-4H2,1-2H3",
        "InChIKey": null,
        "Canonical SMILES": "N#CC(C(=O)OCC)(C=1C=CC=CC1)CC",
        "Molecular Formula": "C<sub>13</sub>H<sub>15</sub>NO<sub>2</sub>",
        "Molecular Mass": "217.26",
        "Boiling Point": "100-140 °C @ Press: 0.2 Torr",
        "Density": "1.036-1.040 g/cm³ @ Temp: 20 °C"
    }
}