{
    "cas_no": "121808-62-6",
    "key_name": "Pidotimod",
    "cn_name": "匹多莫德;(R)-3-1(S)-(5-氧代-2-吡咯烷基)羰基-四氢噻唑-4-羧酸;",
    "alternate_name": "4-Thiazolidinecarboxylic acid, 3-[[(2<em>S</em>)-5-oxo-2-pyrrolidinyl]carbonyl]-, (4<em>R</em>)-;4-Thiazolidinecarboxylic acid, 3-[(5-oxo-2-pyrrolidinyl)carbonyl]-, [<em>R</em>-(<em>R</em>*,<em>S</em>*)]-;(4<em>R</em>)-3-[[(2<em>S</em>)-5-Oxo-2-pyrrolidinyl]carbonyl]-4-thiazolidinecarboxylic acid;Pidotimod;Adimod;Axil (pharmaceutical);Onaka;Pigitil;Polimod",
    "duplicated_cas_no": "",
    "SMILES": "C(=O)(N1[C@H](C(O)=O)CSC1)[C@H]2NC(=O)CC2",
    "meta_data": {
        "InChI": "InChI=1S/C9H12N2O4S/c12-7-2-1-5(10-7)8(13)11-4-16-3-6(11)9(14)15/h5-6H,1-4H2,(H,10,12)(H,14,15)/t5-,6-/m0/s1",
        "InChIKey": null,
        "Canonical SMILES": "O=C(O)C1N(C(=O)C2NC(=O)CC2)CSC1",
        "Molecular Formula": "C<sub>9</sub>H<sub>12</sub>N<sub>2</sub>O<sub>4</sub>S",
        "Molecular Mass": "244.27",
        "Melting Point": "194-198 °C (decomp)"
    }
}