{
    "cas_no": "31161-46-3",
    "key_name": "(5-Bromo-2-thienyl)phenylmethanone",
    "cn_name": null,
    "alternate_name": "Methanone, (5-bromo-2-thienyl)phenyl-;Ketone, 5-bromo-2-thienyl phenyl;(5-Bromo-2-thienyl)phenylmethanone;2-Benzoyl-5-bromothiophene;5-Benzoyl-2-bromothiophene;NSC 170817;2-Bromo-5-benzoylthiophene;(5-Bromothiophen-2-yl)-phenylmethanone",
    "duplicated_cas_no": "",
    "SMILES": "C(=O)(C=1SC(Br)=CC1)C2=CC=CC=C2",
    "meta_data": {
        "InChI": "InChI=1S/C11H7BrOS/c12-10-7-6-9(14-10)11(13)8-4-2-1-3-5-8/h1-7H",
        "InChIKey": null,
        "Canonical SMILES": "O=C(C=1SC(Br)=CC1)C=2C=CC=CC2",
        "Molecular Formula": "C<sub>11</sub>H<sub>7</sub>BrOS",
        "Molecular Mass": "267.14",
        "Melting Point": "45-46 °C"
    }
}