{
    "cas_no": "35589-32-3",
    "key_name": "Benzenamine, 3,4-dimethoxy-, hydrochloride (1:1)",
    "cn_name": null,
    "alternate_name": "Benzenamine, 3,4-dimethoxy-, hydrochloride (1:1);Benzenamine, 3,4-dimethoxy-, hydrochloride;Aniline, 3,4-dimethoxy-, hydrochloride;3,4-Dimethoxyaniline hydrochloride;4-Aminoveratrole hydrochloride;[3,4-Bis(methyloxy)phenyl]amine hydrochloride;3,4-Dimethoxyphenylamine hydrochloride",
    "duplicated_cas_no": "",
    "SMILES": "O(C)C1=C(OC)C=C(N)C=C1.Cl",
    "meta_data": {
        "InChI": "InChI=1S/C8H11NO2.ClH/c1-10-7-4-3-6(9)5-8(7)11-2;/h3-5H,9H2,1-2H3;1H",
        "InChIKey": null,
        "Canonical SMILES": "Cl.O(C1=CC=C(N)C=C1OC)C",
        "Molecular Formula": "C<sub>8</sub>H<sub>11</sub>NO<sub>2</sub>.ClH",
        "Molecular Mass": "",
        "Melting Point": "240 °C"
    }
}