{
    "cas_no": "22871-55-2",
    "key_name": "1-Ethyl 5-nitro-1,3-benzenedicarboxylate",
    "cn_name": "5-硝基异酞酸单乙酯;",
    "alternate_name": "1,3-Benzenedicarboxylic acid, 5-nitro-, 1-ethyl ester;Isophthalic acid, 5-nitro-, monoethyl ester;1,3-Benzenedicarboxylic acid, 5-nitro-, monoethyl ester;1-Ethyl 5-nitro-1,3-benzenedicarboxylate;Monoethyl 5-nitroisophthalic acid;Monoethyl 5-nitroisophthalate;3-Ethoxycarbonyl-5-nitrobenzoic acid;Ethyl 3-carboxy-5-nitrobenzoate",
    "duplicated_cas_no": "",
    "SMILES": "C(OCC)(=O)C1=CC(C(O)=O)=CC(N(=O)=O)=C1",
    "meta_data": {
        "InChI": "InChI=1S/C10H9NO6/c1-2-17-10(14)7-3-6(9(12)13)4-8(5-7)11(15)16/h3-5H,2H2,1H3,(H,12,13)",
        "InChIKey": null,
        "Canonical SMILES": "O=C(O)C=1C=C(C=C(C1)N(=O)=O)C(=O)OCC",
        "Molecular Formula": "C<sub>10</sub>H<sub>9</sub>NO<sub>6</sub>",
        "Molecular Mass": "239.18",
        "Melting Point": "162 °C"
    }
}