{
    "cas_no": "367-34-0",
    "key_name": "2,4,5-Trifluoroaniline",
    "cn_name": "2,4,5-三氟苯胺;",
    "alternate_name": "Benzenamine, 2,4,5-trifluoro-;Aniline, 2,4,5-trifluoro-;2,4,5-Trifluorobenzenamine;2,4,5-Trifluoroaniline;NSC 10289;2,4,5-Trifluorophenylamine",
    "duplicated_cas_no": "",
    "SMILES": "FC1=C(F)C=C(N)C(F)=C1",
    "meta_data": {
        "InChI": "InChI=1S/C6H4F3N/c7-3-1-5(9)6(10)2-4(3)8/h1-2H,10H2",
        "InChIKey": null,
        "Canonical SMILES": "FC=1C=C(F)C(N)=CC1F",
        "Molecular Formula": "C<sub>6</sub>H<sub>4</sub>F<sub>3</sub>N",
        "Molecular Mass": "147.10",
        "Melting Point": "60 °C"
    }
}