{
    "cas_no": "37493-16-6",
    "key_name": "2-Propanol, 1-chloro-, (2<em>S</em>)-",
    "cn_name": null,
    "alternate_name": "2-Propanol, 1-chloro-, (2<em>S</em>)-;2-Propanol, 1-chloro-, (<em>S</em>)-;(<em>S</em>)-1-Chloro-2-propanol;(+)-1-Chloro-2-propanol;(2S)-1-Chloropropan-2-ol;(2<em>S</em>)-1-Chloropropan-2-ol",
    "duplicated_cas_no": "",
    "SMILES": "[C@@H](CCl)(C)O",
    "meta_data": {
        "InChI": "InChI=1S/C3H7ClO/c1-3(5)2-4/h3,5H,2H2,1H3/t3-/m0/s1",
        "InChIKey": null,
        "Canonical SMILES": "ClCC(O)C",
        "Molecular Formula": "C<sub>3</sub>H<sub>7</sub>ClO",
        "Molecular Mass": "94.54",
        "Boiling Point": "68-70 °C @ Press: 70 Torr"
    }
}