{
    "cas_no": "76948-72-6",
    "key_name": "Cleomiscosin A",
    "cn_name": null,
    "alternate_name": "9<em>H</em>-Pyrano[2,3-<em>f</em>]-1,4-benzodioxin-9-one, 2,3-dihydro-3-(4-hydroxy-3-methoxyphenyl)-2-(hydroxymethyl)-5-methoxy-, (2<em>R</em>,3<em>R</em>)-<em>rel</em>-;9<em>H</em>-Pyrano[2,3-<em>f</em>]-1,4-benzodioxin-9-one, 2,3-dihydro-3-(4-hydroxy-3-methoxyphenyl)-2-(hydroxymethyl)-5-methoxy-, <em>trans</em>-(±)-;<em>rel</em>-(2<em>R</em>,3<em>R</em>)-2,3-Dihydro-3-(4-hydroxy-3-methoxyphenyl)-2-(hydroxymethyl)-5-methoxy-9<em>H</em>-pyrano[2,3-<em>f</em>]-1,4-benzodioxin-9-one;Cleomiscosin A;NSC 346197",
    "duplicated_cas_no": "121587-15-3;943537-82-4",
    "SMILES": "O(C)C=1C2=C(C3=C(C1)C=CC(=O)O3)O[C@H](CO)[C@H](O2)C4=CC(OC)=C(O)C=C4",
    "meta_data": {
        "InChI": "InChI=1/C20H18O8/c1-24-13-7-10(3-5-12(13)22)17-15(9-21)26-20-18-11(4-6-16(23)27-18)8-14(25-2)19(20)28-17/h3-8,15,17,21-22H,9H2,1-2H3/t15-,17-/s2",
        "InChIKey": null,
        "Canonical SMILES": "O=C1OC=2C=3OC(CO)C(OC3C(OC)=CC2C=C1)C4=CC=C(O)C(OC)=C4",
        "Molecular Formula": "C<sub>20</sub>H<sub>18</sub>O<sub>8</sub>",
        "Molecular Mass": "386.35",
        "Melting Point": "245-247 °C"
    }
}