{
    "cas_no": "5922-60-1",
    "key_name": "2-Amino-5-chlorobenzonitrile",
    "cn_name": "2-氨基-5-氯苯腈;",
    "alternate_name": "Benzonitrile, 2-amino-5-chloro-;Anthranilonitrile, 5-chloro-;2-Amino-5-chlorobenzonitrile;2-Cyano-4-chloroaniline;6-Amino-3-chlorobenzonitrile;4-Chloro-2-cyanoaniline;5-Chloroanthranilonitrile;2-Amino-5-chlorobenzenecarbonitrile;5-Chloro-2-aminobenzonitrile;1-Cyano-2-amino-5-chlorobenzene",
    "duplicated_cas_no": "",
    "SMILES": "C(#N)C1=C(N)C=CC(Cl)=C1",
    "meta_data": {
        "InChI": "InChI=1S/C7H5ClN2/c8-6-1-2-7(10)5(3-6)4-9/h1-3H,10H2",
        "InChIKey": null,
        "Canonical SMILES": "N#CC1=CC(Cl)=CC=C1N",
        "Molecular Formula": "C<sub>7</sub>H<sub>5</sub>ClN<sub>2</sub>",
        "Molecular Mass": "152.58",
        "Boiling Point": "133.5 °C",
        "Melting Point": "97 °C"
    }
}