{
    "cas_no": "922-67-8",
    "key_name": "Methyl propiolate",
    "cn_name": "丙炔酸甲酯;",
    "alternate_name": "2-Propynoic acid, methyl ester;Propiolic acid, methyl ester;Methyl propiolate;Methyl acetylenecarboxylate;Methyl propynoate;Methyl ethynecarboxylate;(Methoxycarbonyl)acetylene;Methyl 2-propynoate;Methyl propargylate;(Carbomethoxy)acetylene;Methyl acetylenemonocarboxylate;Propynoic acid methyl ester;NSC 154164",
    "duplicated_cas_no": "",
    "SMILES": "C(C#C)(OC)=O",
    "meta_data": {
        "InChI": "InChI=1S/C4H4O2/c1-3-4(5)6-2/h1H,2H3",
        "InChIKey": null,
        "Canonical SMILES": "O=C(C#C)OC",
        "Molecular Formula": "C<sub>4</sub>H<sub>4</sub>O<sub>2</sub>",
        "Molecular Mass": "84.07",
        "Boiling Point": "102 °C @ Press: 742 Torr",
        "Density": "0.95 g/cm³"
    }
}