{
    "cas_no": "262298-02-2",
    "key_name": "4-Methoxy-2-methylbenzeneacetonitrile",
    "cn_name": "4-甲氧基-2-甲基苯乙腈;",
    "alternate_name": "Benzeneacetonitrile, 4-methoxy-2-methyl-;4-Methoxy-2-methylbenzeneacetonitrile;2-Methyl-4-methoxyphenylacetonitrile;(4-Methoxy-2-methylphenyl)acetonitrile;2-(4-Methoxy-2-methylphenyl)acetonitrile",
    "duplicated_cas_no": "",
    "SMILES": "C(C#N)C1=C(C)C=C(OC)C=C1",
    "meta_data": {
        "InChI": "InChI=1S/C10H11NO/c1-8-7-10(12-2)4-3-9(8)5-6-11/h3-4,7H,5H2,1-2H3",
        "InChIKey": null,
        "Canonical SMILES": "N#CCC1=CC=C(OC)C=C1C",
        "Molecular Formula": "C<sub>10</sub>H<sub>11</sub>NO",
        "Molecular Mass": "161.20",
        "Melting Point": "50-52 °C"
    }
}