{
    "cas_no": "565-74-2",
    "key_name": "2-Bromo-3-methylbutyric acid",
    "cn_name": "2-溴代异戊酸;2-溴-3-甲基丁酸;",
    "alternate_name": "Butanoic acid, 2-bromo-3-methyl-;Butyric acid, 2-bromo-3-methyl-;Isovaleric acid, α-bromo-;2-Bromo-3-methylbutanoic acid;α-Bromoisovaleric acid;2-Bromo-3-methylbutyric acid;2-Bromoisovaleric acid;<span class=\"text-smallcaps\">DL</span>-α-Bromo-β-methylbutyric acid;(±)-2-Bromoisovaleric acid;(±)-α-Bromoisopentanoic acid;(±)-2-Bromo-3-methylbutyric acid;(±)-2-Bromo-3-methylbutanoic acid;NSC 167;NSC 6967",
    "duplicated_cas_no": "10323-40-7",
    "SMILES": "C(C(C)C)(C(O)=O)Br",
    "meta_data": {
        "InChI": "InChI=1S/C5H9BrO2/c1-3(2)4(6)5(7)8/h3-4H,1-2H3,(H,7,8)",
        "InChIKey": null,
        "Canonical SMILES": "O=C(O)C(Br)C(C)C",
        "Molecular Formula": "C<sub>5</sub>H<sub>9</sub>BrO<sub>2</sub>",
        "Molecular Mass": "181.03",
        "Boiling Point": "230 °C",
        "Melting Point": "44 °C"
    }
}