{
    "cas_no": "1359986-21-2",
    "key_name": "Bis(1,1-dimethylethyl)[4-methoxy-3,5,6-trimethyl-2′,4′,6′-tris(1-methylethyl)[1,1′-biphenyl]-2-yl]phosphine",
    "cn_name": null,
    "alternate_name": "Phosphine, bis(1,1-dimethylethyl)[4-methoxy-3,5,6-trimethyl-2′,4′,6′-tris(1-methylethyl)[1,1′-biphenyl]-2-yl]-;Bis(1,1-dimethylethyl)[4-methoxy-3,5,6-trimethyl-2′,4′,6′-tris(1-methylethyl)[1,1′-biphenyl]-2-yl]phosphine",
    "duplicated_cas_no": "",
    "SMILES": "P(C(C)(C)C)(C(C)(C)C)C1=C(C(C)=C(C)C(OC)=C1C)C2=C(C(C)C)C=C(C(C)C)C=C2C(C)C",
    "meta_data": {
        "InChI": "InChI=1S/C33H53OP/c1-19(2)25-17-26(20(3)4)29(27(18-25)21(5)6)28-22(7)23(8)30(34-16)24(9)31(28)35(32(10,11)12)33(13,14)15/h17-21H,1-16H3",
        "InChIKey": null,
        "Canonical SMILES": "O(C=1C(=C(C(C=2C(=CC(=CC2C(C)C)C(C)C)C(C)C)=C(C1C)C)P(C(C)(C)C)C(C)(C)C)C)C",
        "Molecular Formula": "C<sub>33</sub>H<sub>53</sub>OP",
        "Molecular Mass": "496.75",
        "Melting Point": "130-132 °C"
    }
}