{
    "cas_no": "55285-14-8",
    "key_name": "Carbosulfan",
    "cn_name": "丁硫克百威;2,3-二氢-2,2-二甲基苯并呋喃-7-基(二丁基氨基硫)N-甲基氨基甲酸酯;",
    "alternate_name": "Carbamic acid, <em>N</em>-[(dibutylamino)thio]-<em>N</em>-methyl-, 2,3-dihydro-2,2-dimethyl-7-benzofuranyl ester;Carbamic acid, [(dibutylamino)thio]methyl-, 2,3-dihydro-2,2-dimethyl-7-benzofuranyl ester;DBSC;FMC 35001;Posse;Carbosulfan;Advantage;Marshal;Marshal 25ST;Marshal 25EC;Versal;Zaprawa Marshal;Dingliukebaiwei",
    "duplicated_cas_no": "73468-61-8",
    "SMILES": "O(C(N(SN(CCCC)CCCC)C)=O)C1=C2C(CC(C)(C)O2)=CC=C1",
    "meta_data": {
        "InChI": "InChI=1S/C20H32N2O3S/c1-6-8-13-22(14-9-7-2)26-21(5)19(23)24-17-12-10-11-16-15-20(3,4)25-18(16)17/h10-12H,6-9,13-15H2,1-5H3",
        "InChIKey": null,
        "Canonical SMILES": "O=C(OC1=CC=CC2=C1OC(C)(C)C2)N(SN(CCCC)CCCC)C",
        "Molecular Formula": "C<sub>20</sub>H<sub>32</sub>N<sub>2</sub>O<sub>3</sub>S",
        "Molecular Mass": "380.54",
        "Melting Point": "&lt;25 °C"
    }
}