{
    "cas_no": "389-08-2",
    "key_name": "Nalidixic acid",
    "cn_name": "萘啶酸;7-甲基-1-乙基-4-氧代-1,4-二氢-1,8-萘啶-3-羧酸;",
    "alternate_name": "1,8-Naphthyridine-3-carboxylic acid, 1-ethyl-1,4-dihydro-7-methyl-4-oxo-;1-Ethyl-1,4-dihydro-7-methyl-4-oxo-1,8-naphthyridine-3-carboxylic acid;Win 18320;3-Carboxy-1-ethyl-7-methyl-1,8-naphthyridin-4-one;1,4-Dihydro-1-ethyl-7-methyl-4-oxo-1,8-naphthyridine-3-carboxylic acid;1-Ethyl-7-methyl-1,8-naphthyridin-4-one-3-carboxylic acid;1-Ethyl-7-methyl-4-oxo-1,8-naphthyridine-3-carboxylic acid;Nalidic acid;Nalidixic acid;Nalidixin;Urisal;Wintomylon;NegGram;Nogram;Nevigramon;Nalidixan;Nalidixinic acid;Nalix;Nalurin;Naxuril;Nacid;Nelidix;Specifin;Nalidicron;Betaxina;Nalitucsan;Uriclar;Nicelate;Innoxalomn;Eucistin;Poleon;NSC 82174;Uralgin;Uroneg;Urodixin;Dixiben;Uriben;Cybis;Narigix;Uropan;Uroman;Nalidram;1-Ethyl-7-methyl-4-oxo-1,4-dihydro-[1,8]naphthyridine-3-carboxylic acid;MeSH ID: D009268",
    "duplicated_cas_no": "",
    "SMILES": "C(C)N1C=2C(C(=O)C(C(O)=O)=C1)=CC=C(C)N2",
    "meta_data": {
        "InChI": "InChI=1S/C12H12N2O3/c1-3-14-6-9(12(16)17)10(15)8-5-4-7(2)13-11(8)14/h4-6H,3H2,1-2H3,(H,16,17)",
        "InChIKey": null,
        "Canonical SMILES": "O=C(O)C1=CN(C2=NC(=CC=C2C1=O)C)CC",
        "Molecular Formula": "C<sub>12</sub>H<sub>12</sub>N<sub>2</sub>O<sub>3</sub>",
        "Molecular Mass": "232.24",
        "Melting Point": "229-230 °C"
    }
}