{
    "cas_no": "74-90-8",
    "key_name": "Hydrogen cyanide",
    "cn_name": null,
    "alternate_name": "Hydrocyanic acid;Formic anammonide;Formonitrile;Hydrogen cyanide;Prussic acid;Carbon hydride nitride (CHN);Evercyn;Zyklon B;Agent AC;AC;AC (chemical warfare agent);MeSH ID: D006856",
    "duplicated_cas_no": "191234-22-7;341972-31-4;2622237-35-6",
    "SMILES": "C#N",
    "meta_data": {
        "InChI": "InChI=1S/CHN/c1-2/h1H",
        "InChIKey": null,
        "Canonical SMILES": "N#C",
        "Molecular Formula": "CHN",
        "Molecular Mass": "27.03",
        "Boiling Point": "25.6 °C",
        "Melting Point": "-13.4 °C",
        "Density": "0.687 g/cm³"
    }
}