{
    "cas_no": "107-12-0",
    "key_name": "Propionitrile",
    "cn_name": "丙腈;乙基氰;",
    "alternate_name": "Propanenitrile;Propionitrile;Cyanoethane;Ether cyanatus;Ethyl cyanide;Hydrocyanic ether;Propionic nitrile;Propiononitrile;Propylnitrile;<em>n</em>-Propanenitrile;NSC 7966;1-Methylacetonitrile",
    "duplicated_cas_no": "",
    "SMILES": "C(C#N)C",
    "meta_data": {
        "InChI": "InChI=1S/C3H5N/c1-2-3-4/h2H2,1H3",
        "InChIKey": null,
        "Canonical SMILES": "N#CCC",
        "Molecular Formula": "C<sub>3</sub>H<sub>5</sub>N",
        "Molecular Mass": "55.08",
        "Boiling Point": "97.2 °C @ Press: 760 Torr",
        "Melting Point": "-91.8 °C",
        "Density": "0.7818 g/cm³ @ Temp: 20 °C"
    }
}