{
    "cas_no": "16110-98-8",
    "key_name": "(2<em>Z</em>)-2-Phenyl-2-butenedioic acid",
    "cn_name": null,
    "alternate_name": "2-Butenedioic acid, 2-phenyl-, (2<em>Z</em>)-;Maleic acid, phenyl-;2-Butenedioic acid, 2-phenyl-, (<em>Z</em>)-;(2<em>Z</em>)-2-Phenyl-2-butenedioic acid;Phenylmaleic acid;2-Phenylmaleic acid",
    "duplicated_cas_no": "",
    "SMILES": "C(=C\\C(O)=O)(\\C(O)=O)/C1=CC=CC=C1",
    "meta_data": {
        "InChI": "InChI=1S/C10H8O4/c11-9(12)6-8(10(13)14)7-4-2-1-3-5-7/h1-6H,(H,11,12)(H,13,14)/b8-6-",
        "InChIKey": null,
        "Canonical SMILES": "O=C(O)C=C(C(=O)O)C=1C=CC=CC1",
        "Molecular Formula": "C<sub>10</sub>H<sub>8</sub>O<sub>4</sub>",
        "Molecular Mass": "192.17",
        "Melting Point": "186.5-188 °C"
    }
}