{
    "cas_no": "85951-60-6",
    "key_name": "(7<em>S</em>)-7-Amino-5,6,7,8-tetrahydro-2-naphthalenol",
    "cn_name": null,
    "alternate_name": "2-Naphthalenol, 7-amino-5,6,7,8-tetrahydro-, (7<em>S</em>)-;2-Naphthalenol, 7-amino-5,6,7,8-tetrahydro-, (<em>S</em>)-;(7<em>S</em>)-7-Amino-5,6,7,8-tetrahydro-2-naphthalenol;(<em>S</em>)-2-Amino-7-hydroxytetralin;2-Naphthalenol 7-amino-5,6,7,8-tetrahydro-, (7S)-",
    "duplicated_cas_no": "",
    "SMILES": "N[C@@H]1CC=2C(=CC=C(O)C2)CC1",
    "meta_data": {
        "InChI": "InChI=1S/C10H13NO/c11-9-3-1-7-2-4-10(12)6-8(7)5-9/h2,4,6,9,12H,1,3,5,11H2/t9-/m0/s1",
        "InChIKey": null,
        "Canonical SMILES": "OC1=CC=C2C(=C1)CC(N)CC2",
        "Molecular Formula": "C<sub>10</sub>H<sub>13</sub>NO",
        "Molecular Mass": "163.22",
        "Melting Point": "143-144 °C"
    }
}