{
    "cas_no": "4573-78-8",
    "key_name": "Hamamelose",
    "cn_name": null,
    "alternate_name": "<span class=\"text-smallcaps\">D</span>-Ribose, 2-<em>C</em>-(hydroxymethyl)-;Ribose, 2-<em>C</em>-(hydroxymethyl)-, <span class=\"text-smallcaps\">D</span>-;2-<em>C</em>-(Hydroxymethyl)-<span class=\"text-smallcaps\">D</span>-ribose;Hamamelose;<span class=\"text-smallcaps\">D</span>-Hamamelose",
    "duplicated_cas_no": "1360925-24-1",
    "SMILES": "[C@]([C@@H]([C@@H](CO)O)O)(CO)(C=O)O",
    "meta_data": {
        "InChI": "InChI=1S/C6H12O6/c7-1-4(10)5(11)6(12,2-8)3-9/h2,4-5,7,9-12H,1,3H2/t4-,5-,6-/m1/s1",
        "InChIKey": null,
        "Canonical SMILES": "O=CC(O)(CO)C(O)C(O)CO",
        "Molecular Formula": "C<sub>6</sub>H<sub>12</sub>O<sub>6</sub>",
        "Molecular Mass": "180.16",
        "Melting Point": "164 °C"
    }
}