{
    "cas_no": "39629-88-4",
    "key_name": "1-(4-Hydroxyphenyl)-5-oxo-3-pyrrolidinecarboxylic acid",
    "cn_name": null,
    "alternate_name": "3-Pyrrolidinecarboxylic acid, 1-(4-hydroxyphenyl)-5-oxo-;3-Pyrrolidinecarboxylic acid, 1-(<em>p</em>-hydroxyphenyl)-5-oxo-;1-(4-Hydroxyphenyl)-5-oxo-3-pyrrolidinecarboxylic acid;1-[4-Hydroxyphenyl]-5-oxopyrrolidine-3-carboxylic acid",
    "duplicated_cas_no": "",
    "SMILES": "O=C1N(CC(C(O)=O)C1)C2=CC=C(O)C=C2",
    "meta_data": {
        "InChI": "InChI=1S/C11H11NO4/c13-9-3-1-8(2-4-9)12-6-7(11(15)16)5-10(12)14/h1-4,7,13H,5-6H2,(H,15,16)",
        "InChIKey": null,
        "Canonical SMILES": "O=C(O)C1CC(=O)N(C2=CC=C(O)C=C2)C1",
        "Molecular Formula": "C<sub>11</sub>H<sub>11</sub>NO<sub>4</sub>",
        "Molecular Mass": "221.21",
        "Melting Point": "201-202 °C"
    }
}