{
    "cas_no": "302-01-2",
    "key_name": "Hydrazine",
    "cn_name": "肼;联氨;",
    "alternate_name": "Hydrazine;Levoxine;Oxytreat 35;Nitrogen hydride (N<sub>2</sub>H<sub>4</sub>);H 70 (fuel);H 70",
    "duplicated_cas_no": "119775-10-9;31886-26-7;75013-58-0;78206-91-4",
    "SMILES": "NN",
    "meta_data": {
        "InChI": "InChI=1S/H4N2/c1-2/h1-2H2",
        "InChIKey": null,
        "Canonical SMILES": "NN",
        "Molecular Formula": "H<sub>4</sub>N<sub>2</sub>",
        "Molecular Mass": "32.05",
        "Boiling Point": "113.5 °C @ Press: 760 Torr",
        "Melting Point": "2.0 °C",
        "Density": "1.146 g/cm³ @ Temp: -5 °C"
    }
}