{
    "cas_no": "436-05-5",
    "key_name": "(-)-Curine",
    "cn_name": null,
    "alternate_name": "13<em>H</em>-4,6:21,24-Dietheno-8,12-metheno-1<em>H</em>-pyrido[3′,2′:14,15][1,11]dioxacycloeicosino[2,3,4-<em>ij</em>]isoquinoline-9,19-diol, 2,3,13a,14,15,16,25,25a-octahydro-18,29-dimethoxy-1,14-dimethyl-, (13a<em>R</em>,25a<em>R</em>)-;Curine;Tubocuraran-7′,12′-diol, 6,6′-dimethoxy-2,2′-dimethyl-, (1β)-;(13a<em>R</em>,25a<em>R</em>)-2,3,13a,14,15,16,25,25a-Octahydro-18,29-dimethoxy-1,14-dimethyl-13<em>H</em>-4,6:21,24-dietheno-8,12-metheno-1<em>H</em>-pyrido[3′,2′:14,15][1,11]dioxacycloeicosino[2,3,4-<em>ij</em>]isoquinoline-9,19-diol;<em>l</em>-Curine;(-)-Curine;Aristolochine (C<sub>36</sub> alkaloid);(-)-Bebeerine;Aristolochine;<em>l</em>-Bebeerine;NSC 77034;MCMC 10271",
    "duplicated_cas_no": "1349-62-8;1398-06-7;1414-38-6;30912-56-2;896437-99-3",
    "SMILES": "OC1=C2C=3[C@@](CC=4C=C(OC=5C=C6[C@@](CC=7C=CC(O2)=CC7)(N(C)CCC6=CC5OC)[H])C(O)=CC4)(N(C)CCC3C=C1OC)[H]",
    "meta_data": {
        "InChI": "InChI=1S/C36H38N2O6/c1-37-13-11-23-18-31(41-3)32-20-26(23)27(37)15-21-5-8-25(9-6-21)43-36-34-24(19-33(42-4)35(36)40)12-14-38(2)28(34)16-22-7-10-29(39)30(17-22)44-32/h5-10,17-20,27-28,39-40H,11-16H2,1-4H3/t27-,28-/m1/s1",
        "InChIKey": null,
        "Canonical SMILES": "OC1=CC=C2C=C1OC=3C=C4C(=CC3OC)CCN(C)C4CC5=CC=C(OC=6C(O)=C(OC)C=C7C6C(N(C)CC7)C2)C=C5",
        "Molecular Formula": "C<sub>36</sub>H<sub>38</sub>N<sub>2</sub>O<sub>6</sub>",
        "Molecular Mass": "594.70",
        "Melting Point": "212 °C"
    }
}