{
    "cas_no": "6554-98-9",
    "key_name": "<em>trans</em>-4-Hydroxystilbene",
    "cn_name": null,
    "alternate_name": "Phenol, 4-[(1<em>E</em>)-2-phenylethenyl]-;4-Stilbenol, (<em>E</em>)-;Phenol, 4-(2-phenylethenyl)-, (<em>E</em>)-;4-[(1<em>E</em>)-2-Phenylethenyl]phenol;<em>trans</em>-4-Hydroxystilbene;<em>trans</em>-4-Stilbenol;<em>trans</em>-<em>p</em>-Hydroxystilbene;4-Hydroxy-<em>trans</em>-stilbene;(<em>E</em>)-4-Hydroxystilbene;(<em>E</em>)-1-(4-Hydroxyphenyl)-2-phenylethene;(E)-4-Hydroxystilbene;(E)-4-Styrylphenol",
    "duplicated_cas_no": "",
    "SMILES": "C(=C/C1=CC=CC=C1)\\C2=CC=C(O)C=C2",
    "meta_data": {
        "InChI": "InChI=1S/C14H12O/c15-14-10-8-13(9-11-14)7-6-12-4-2-1-3-5-12/h1-11,15H/b7-6+",
        "InChIKey": null,
        "Canonical SMILES": "OC1=CC=C(C=C1)C=CC=2C=CC=CC2",
        "Molecular Formula": "C<sub>14</sub>H<sub>12</sub>O",
        "Molecular Mass": "196.24",
        "Melting Point": "189 °C"
    }
}