{
    "cas_no": "4360-63-8",
    "key_name": "2-(Bromomethyl)-1,3-dioxolane",
    "cn_name": "2-溴甲基-1,3-二氧戊烷;2-溴甲基-1,3-二氧杂环戊烷;溴代乙醛缩乙二醇;",
    "alternate_name": "1,3-Dioxolane, 2-(bromomethyl)-;Acetaldehyde, bromo-, cyclic ethylene acetal;2-(Bromomethyl)-1,3-dioxolane;Bromoacetaldehyde ethylene acetal;Bromoacetaldehyde ethylene ketal;2-Bromomethyldioxolane;Bromoacetaldehyde ethylene glycol acetal;2-(2-Bromomethyl)-1,3-dioxolane;(1,3-Dioxolan-2-yl)methyl bromide",
    "duplicated_cas_no": "",
    "SMILES": "C(Br)C1OCCO1",
    "meta_data": {
        "InChI": "InChI=1S/C4H7BrO2/c5-3-4-6-1-2-7-4/h4H,1-3H2",
        "InChIKey": null,
        "Canonical SMILES": "BrCC1OCCO1",
        "Molecular Formula": "C<sub>4</sub>H<sub>7</sub>BrO<sub>2</sub>",
        "Molecular Mass": "167.00",
        "Boiling Point": "79 °C @ Press: 22 Torr",
        "Density": "1.6172 g/cm³ @ Temp: 20 °C"
    }
}