{
    "cas_no": "106-72-9",
    "key_name": "(±)-2,6-Dimethyl-5-heptenal",
    "cn_name": "2,6-二甲基-5-庚烯醛;甜瓜醛;",
    "alternate_name": "5-Heptenal, 2,6-dimethyl-;2,6-Dimethyl-5-heptenal;Melonal;2,6-Dimethyl-5-hepten-1-al;(±)-2,6-Dimethyl-5-heptenal;NSC 78450",
    "duplicated_cas_no": "77787-60-1",
    "SMILES": "C(CCC=C(C)C)(C=O)C",
    "meta_data": {
        "InChI": "InChI=1S/C9H16O/c1-8(2)5-4-6-9(3)7-10/h5,7,9H,4,6H2,1-3H3",
        "InChIKey": null,
        "Canonical SMILES": "O=CC(C)CCC=C(C)C",
        "Molecular Formula": "C<sub>9</sub>H<sub>16</sub>O",
        "Molecular Mass": "140.22",
        "Boiling Point": "70-75 °C @ Press: 15 Torr"
    }
}