{
    "cas_no": "169590-42-5",
    "key_name": "Celecoxib",
    "cn_name": "塞来西布;塞内昔布;赛利克西;4-[5-(4-甲基苯基)-3-(三氟甲基)吡挫-1-基]苯磺酰胺;",
    "alternate_name": "Benzenesulfonamide, 4-[5-(4-methylphenyl)-3-(trifluoromethyl)-1<em>H</em>-pyrazol-1-yl]-;4-[5-(4-Methylphenyl)-3-(trifluoromethyl)-1<em>H</em>-pyrazol-1-yl]benzenesulfonamide;Celecoxib;SC 58635;YM 177;Celebrex;Celocoxib;Celebra;Celecox;Xilebao;Medicoxib;Eurocox;Onsenal;4-[5-(<em>p</em>-Tolyl)-3-(trifluoromethyl)-1<em>H</em>-pyrazol-1-yl]benzenesulfonamide",
    "duplicated_cas_no": "184007-95-2;194044-54-7",
    "SMILES": "C(F)(F)(F)C1=NN(C(=C1)C2=CC=C(C)C=C2)C3=CC=C(S(N)(=O)=O)C=C3",
    "meta_data": {
        "InChI": "InChI=1S/C17H14F3N3O2S/c1-11-2-4-12(5-3-11)15-10-16(17(18,19)20)22-23(15)13-6-8-14(9-7-13)26(21,24)25/h2-10H,1H3,(H2,21,24,25)",
        "InChIKey": null,
        "Canonical SMILES": "O=S(=O)(N)C1=CC=C(C=C1)N2N=C(C=C2C=3C=CC(=CC3)C)C(F)(F)F",
        "Molecular Formula": "C<sub>17</sub>H<sub>14</sub>F<sub>3</sub>N<sub>3</sub>O<sub>2</sub>S",
        "Molecular Mass": "381.37",
        "Melting Point": "157-159 °C",
        "Density": "1.35 g/cm³ (solid)"
    }
}