{
    "cas_no": "122-00-9",
    "key_name": "<em>p</em>-Methylacetophenone",
    "cn_name": "对甲基苯乙酮;",
    "alternate_name": "Ethanone, 1-(4-methylphenyl)-;Acetophenone, 4′-methyl-;1-(4-Methylphenyl)ethanone;<em>p</em>-Acetyltoluene;Melilotal;<em>p</em>-Methylacetophenone;4′-Methylacetophenone;Methyl <em>p</em>-tolyl ketone;1-Acetyl-4-methylbenzene;4-Methylphenyl methyl ketone;<em>p</em>-Tolyl methyl ketone;Methyl 4-methylphenyl ketone;1-<em>p</em>-Tolylethanone;1-(4-Methylphenyl)-1-ethanone;4-Acetyltoluene;1-(4-Tolyl)ethanone;NSC 9401;4-Methylhypnone;4-Methyl-1-acetylbenzene;1-(<em>p</em>-Tolyl)ethan-1-one",
    "duplicated_cas_no": "",
    "SMILES": "C(C)(=O)C1=CC=C(C)C=C1",
    "meta_data": {
        "InChI": "InChI=1S/C9H10O/c1-7-3-5-9(6-4-7)8(2)10/h3-6H,1-2H3",
        "InChIKey": null,
        "Canonical SMILES": "O=C(C1=CC=C(C=C1)C)C",
        "Molecular Formula": "C<sub>9</sub>H<sub>10</sub>O",
        "Molecular Mass": "134.18",
        "Boiling Point": "226 °C",
        "Melting Point": "28 °C",
        "Density": "1.0051 g/cm³ @ Temp: 20 °C"
    }
}