{
    "cas_no": "3140-75-8",
    "key_name": "2,4,6-Tris(4-formylphenoxy)-1,3,5-triazine",
    "cn_name": null,
    "alternate_name": "Benzaldehyde, 4,4′,4′′-[1,3,5-triazine-2,4,6-triyltris(oxy)]tris-;Benzaldehyde, 4,4′,4′′-(<em>s</em>-triazine-2,4,6-triyltrioxy)tri-;4,4′,4′′-[1,3,5-Triazine-2,4,6-triyltris(oxy)]tris[benzaldehyde];Tri(4-formacylphenoxy)-1,3,5-triazine;2,4,6-Tris(4-formylphenoxy)-1,3,5-triazine;4,4′,4′′-((1,3,5-Triazine-2,4,6-triyl)tris(oxy))tribenzaldehyde",
    "duplicated_cas_no": "1363379-41-2",
    "SMILES": "O(C=1N=C(OC2=CC=C(C=O)C=C2)N=C(OC3=CC=C(C=O)C=C3)N1)C4=CC=C(C=O)C=C4",
    "meta_data": {
        "InChI": "InChI=1S/C24H15N3O6/c28-13-16-1-7-19(8-2-16)31-22-25-23(32-20-9-3-17(14-29)4-10-20)27-24(26-22)33-21-11-5-18(15-30)6-12-21/h1-15H",
        "InChIKey": null,
        "Canonical SMILES": "O=CC1=CC=C(OC=2N=C(N=C(N2)OC3=CC=C(C=O)C=C3)OC4=CC=C(C=O)C=C4)C=C1",
        "Molecular Formula": "C<sub>24</sub>H<sub>15</sub>N<sub>3</sub>O<sub>6</sub>",
        "Molecular Mass": "441.39",
        "Melting Point": "174-176 °C"
    }
}