{
    "cas_no": "3209-71-0",
    "key_name": "3-Isoxazolecarboxylic acid",
    "cn_name": "3-异恶唑甲酸;3-异噁唑甲酸;",
    "alternate_name": "3-Isoxazolecarboxylic acid;1,2-Oxazole-3-carboxylic acid",
    "duplicated_cas_no": "",
    "SMILES": "C(O)(=O)C=1C=CON1",
    "meta_data": {
        "InChI": "InChI=1S/C4H3NO3/c6-4(7)3-1-2-8-5-3/h1-2H,(H,6,7)",
        "InChIKey": null,
        "Canonical SMILES": "O=C(O)C1=NOC=C1",
        "Molecular Formula": "C<sub>4</sub>H<sub>3</sub>NO<sub>3</sub>",
        "Molecular Mass": "113.07",
        "Melting Point": "149 °C"
    }
}