{
    "cas_no": "1314-95-0",
    "key_name": "Tin sulfide (SnS)",
    "cn_name": "硫化锡;硫化亚锡(II);",
    "alternate_name": "Tin sulfide (SnS);Tin monosulfide;Tin protosulfide;Stannous sulfide;Tin(2+) sulfide;Tin(II) sulfide;Tin sulfide (Sn<sub>2</sub>S<sub>2</sub>);Frenostannid",
    "duplicated_cas_no": "51682-76-9",
    "SMILES": "S=[Sn]",
    "meta_data": {
        "InChI": "InChI=1S/S.Sn",
        "InChIKey": null,
        "Canonical SMILES": "S=[Sn]",
        "Molecular Formula": "SSn",
        "Molecular Mass": "",
        "Boiling Point": "~1230 °C (approx)",
        "Melting Point": "880 °C",
        "Density": "5.22 g/cm³"
    }
}