{
    "cas_no": "2593-15-9",
    "key_name": "Etridiazole",
    "cn_name": "氯唑灵;氯唑灵;5-乙氧基-3-(三氯甲基)-1，2，4-噻二唑;",
    "alternate_name": "1,2,4-Thiadiazole, 5-ethoxy-3-(trichloromethyl)-;5-Ethoxy-3-(trichloromethyl)-1,2,4-thiadiazole;Terrazole;3-(Trichloromethyl)-5-ethoxy-1,2,4-thiadiazole;Koban;Truban;ETMT;Aaterra;Echlomezol;Echlomezole;Ethazol;Etridiazole;Ethazole (fungicide);OM 2424;Pansoil;Planvate;Ethazole;Estridiazol;Estridiazole;Dwell;Sanyard;NSC 524929;Truban 25 EC",
    "duplicated_cas_no": "1135441-30-3",
    "SMILES": "C(Cl)(Cl)(Cl)C=1N=C(OCC)SN1",
    "meta_data": {
        "InChI": "InChI=1S/C5H5Cl3N2OS/c1-2-11-4-9-3(10-12-4)5(6,7)8/h2H2,1H3",
        "InChIKey": null,
        "Canonical SMILES": "ClC(Cl)(Cl)C1=NSC(=N1)OCC",
        "Molecular Formula": "C<sub>5</sub>H<sub>5</sub>Cl<sub>3</sub>N<sub>2</sub>OS",
        "Molecular Mass": "247.53",
        "Boiling Point": "95 °C @ Press: 1 Torr",
        "Melting Point": "19.9 °C",
        "Density": "1.503 g/cm³ @ Temp: 25 °C"
    }
}