{
    "cas_no": "3360-79-0",
    "key_name": "4-Methoxy-<em>N</em>-methyl-2-nitrobenzenamine",
    "cn_name": null,
    "alternate_name": "Benzenamine, 4-methoxy-<em>N</em>-methyl-2-nitro-;<em>p</em>-Anisidine, <em>N</em>-methyl-2-nitro-;4-Methoxy-<em>N</em>-methyl-2-nitrobenzenamine;<em>N</em>-Methyl-2-nitro-4-methoxyaniline;<em>N</em>-Methyl-4-methoxy-2-nitroaniline;(4-Methoxy-2-nitrophenyl)methylamine",
    "duplicated_cas_no": "",
    "SMILES": "N(=O)(=O)C1=C(NC)C=CC(OC)=C1",
    "meta_data": {
        "InChI": "InChI=1S/C8H10N2O3/c1-9-7-4-3-6(13-2)5-8(7)10(11)12/h3-5,9H,1-2H3",
        "InChIKey": null,
        "Canonical SMILES": "O=N(=O)C1=CC(OC)=CC=C1NC",
        "Molecular Formula": "C<sub>8</sub>H<sub>10</sub>N<sub>2</sub>O<sub>3</sub>",
        "Molecular Mass": "182.18",
        "Melting Point": "97-98 °C"
    }
}