{
    "cas_no": "93-53-8",
    "key_name": "2-Phenylpropanal",
    "cn_name": "2-苯基丙醛;",
    "alternate_name": "Benzeneacetaldehyde, α-methyl-;Hydratropaldehyde;α-Methylbenzeneacetaldehyde;Hyacinthal;Hydratropic aldehyde;α-Methylphenylacetaldehyde;α-Methyl-α-toluic aldehyde;2-Phenylpropanal;Cumene aldehyde;α-Phenylpropionaldehyde;2-Phenylpropionaldehyde;α-Formylethylbenzene;(±)-α-Phenylpropionaldehyde;(±)-2-Phenylpropanal;(±)-Hydratropic aldehyde;(±)-2-Phenylpropionaldehyde;2-Phenylpropanaldehyde;NSC 5231",
    "duplicated_cas_no": "1340-11-0;34713-70-7",
    "SMILES": "C(C=O)(C)C1=CC=CC=C1",
    "meta_data": {
        "InChI": "InChI=1S/C9H10O/c1-8(7-10)9-5-3-2-4-6-9/h2-8H,1H3",
        "InChIKey": null,
        "Canonical SMILES": "O=CC(C=1C=CC=CC1)C",
        "Molecular Formula": "C<sub>9</sub>H<sub>10</sub>O",
        "Molecular Mass": "134.18",
        "Boiling Point": "203.5 °C",
        "Melting Point": "223 °C",
        "Density": "1.140 g/cm³ @ Temp: 0 °C"
    }
}