{
    "cas_no": "53-96-3",
    "key_name": "AAF",
    "cn_name": "2-乙酰氨基芴;",
    "alternate_name": "Acetamide, <em>N</em>-9<em>H</em>-fluoren-2-yl-;Acetamide, <em>N</em>-fluoren-2-yl-;<em>N</em>-9<em>H</em>-Fluoren-2-ylacetamide;2-AAF;AAF;2-Acetamidofluorene;FAA;<em>N</em>-2-Fluorenylacetamide;2-FAA;2-(Acetylamino)fluorene;NSC 12279;MeSH ID: D015073",
    "duplicated_cas_no": "2508-21-6",
    "SMILES": "N(C(C)=O)C=1C=C2C(C=3C(C2)=CC=CC3)=CC1",
    "meta_data": {
        "InChI": "InChI=1S/C15H13NO/c1-10(17)16-13-6-7-15-12(9-13)8-11-4-2-3-5-14(11)15/h2-7,9H,8H2,1H3,(H,16,17)",
        "InChIKey": null,
        "Canonical SMILES": "O=C(NC1=CC=C2C=3C=CC=CC3CC2=C1)C",
        "Molecular Formula": "C<sub>15</sub>H<sub>13</sub>NO",
        "Molecular Mass": "223.27",
        "Boiling Point": "303 °C",
        "Melting Point": "194 °C"
    }
}