{
    "cas_no": "13749-38-7",
    "key_name": "1,2-Dibromo-1,1,2-trichloroethane",
    "cn_name": "1,2-二溴-1,1,2-三氯乙烷;",
    "alternate_name": "Ethane, 1,2-dibromo-1,1,2-trichloro-;1,2-Dibromo-1,1,2-trichloroethane",
    "duplicated_cas_no": "",
    "SMILES": "C(C(Br)Cl)(Br)(Cl)Cl",
    "meta_data": {
        "InChI": "InChI=1S/C2HBr2Cl3/c3-1(5)2(4,6)7/h1H",
        "InChIKey": null,
        "Canonical SMILES": "ClC(Br)C(Cl)(Cl)Br",
        "Molecular Formula": "C<sub>2</sub>HBr<sub>2</sub>Cl<sub>3</sub>",
        "Molecular Mass": "291.20",
        "Boiling Point": "125-126 °C @ Press: 35 Torr"
    }
}