{
    "cas_no": "111-97-7",
    "key_name": "3,3′-Thiodipropionitrile",
    "cn_name": "3,3-硫代丙二腈;β,β’-硫二丙腈;β,β′-硫代二丙腈;硫代丙二腈;",
    "alternate_name": "Propanenitrile, 3,3′-thiobis-;Propionitrile, 3,3′-thiodi-;3,3′-Thiobis[propanenitrile];Di(2-cyanoethyl) sulfide;3,3′-Thiodipropionitrile;β,β′-Dicyanodiethyl sulfide;Bis(2-cyanoethyl) sulfide;Thiodipropionitrile;2-Cyanoethyl sulfide;β,β′-Thiodipropionitrile;NSC 2040;NSC 39638;NSC 46434;4-Thia-1,7-heptanedinitrile;3-[(2-Cyanoethyl)sulfanyl]propanenitrile;3,3′-Thiodipropiononitrile",
    "duplicated_cas_no": "",
    "SMILES": "S(CCC#N)CCC#N",
    "meta_data": {
        "InChI": "InChI=1S/C6H8N2S/c7-3-1-5-9-6-2-4-8/h1-2,5-6H2",
        "InChIKey": null,
        "Canonical SMILES": "N#CCCSCCC#N",
        "Molecular Formula": "C<sub>6</sub>H<sub>8</sub>N<sub>2</sub>S",
        "Molecular Mass": "140.21",
        "Boiling Point": "179-180 °C @ Press: 3 Torr",
        "Melting Point": "24-25 °C",
        "Density": "1.24 g/cm³"
    }
}