{
    "cas_no": "4337-66-0",
    "key_name": "Ethanol, 2-amino-, benzoate (1:1)",
    "cn_name": null,
    "alternate_name": "Ethanol, 2-amino-, benzoate (1:1);Ethanol, 2-amino-, benzoate (salt);Benzoic acid, compd. with 2-aminoethanol (1:1);Monoethanolamine benzoate;Benzoic acid ethanolamine salt;MEA-Benzoate;2-Hydroxyethanaminium benzoate",
    "duplicated_cas_no": "86912-67-6",
    "SMILES": "C(CO)N.C(O)(=O)C1=CC=CC=C1",
    "meta_data": {
        "InChI": "InChI=1S/C7H6O2.C2H7NO/c8-7(9)6-4-2-1-3-5-6;3-1-2-4/h1-5H,(H,8,9);4H,1-3H2",
        "InChIKey": null,
        "Canonical SMILES": "O=C(O)C=1C=CC=CC1.OCCN",
        "Molecular Formula": "C<sub>7</sub>H<sub>6</sub>O<sub>2</sub>.C<sub>2</sub>H<sub>7</sub>NO",
        "Molecular Mass": "",
        "Melting Point": "142-144 °C"
    }
}