{
    "cas_no": "1287-16-7",
    "key_name": "Ferroceneacetic acid",
    "cn_name": null,
    "alternate_name": "Ferrocene, (carboxymethyl)-;Ferroceneacetic acid;Iron, [(carboxymethyl)cyclopentadienyl]cyclopentadienyl-;(Carboxymethyl)ferrocene;Cyclopentadieneacetic acid, cyclopentadienyliron deriv.;Ferrocenylacetic acid;NSC 128978",
    "duplicated_cas_no": "31868-95-8;83546-58-1",
    "SMILES": "C(C(O)=O)[C-]12[Fe+2]3456789([CH]1=[CH]3[CH]4=[CH]52)[CH-]%10[CH]6=[CH]7[CH]8=[CH]9%10",
    "meta_data": {
        "InChI": "InChI=1S/C7H7O2.C5H5.Fe/c8-7(9)5-6-3-1-2-4-6;1-2-4-5-3-1;/h1-4H,5H2,(H,8,9);1-5H;/q2*-1;+2",
        "InChIKey": null,
        "Canonical SMILES": "O=C(O)C[C-]12[CH]3=[CH]4[CH]5=[CH]1[Fe+2]67894532[CH]=%10[CH]9=[CH]8[CH-]7[CH]%106",
        "Molecular Formula": "C<sub>12</sub>H<sub>12</sub>FeO<sub>2</sub>",
        "Molecular Mass": "",
        "Melting Point": "161 °C"
    }
}