{
    "cas_no": "68693-11-8",
    "key_name": "Modafinil",
    "cn_name": null,
    "alternate_name": "Acetamide, 2-[(diphenylmethyl)sulfinyl]-;2-[(Diphenylmethyl)sulfinyl]acetamide;2-(Benzhydrylsulfinyl)acetamide;CRL 40476;Modafinil;CEP 1538;Modiodal;(±)-Modafinil;Provigil;CRC 40476;DEP 1538;Modaphonil;2-(Benzhydrylsulfinyl)<em>ac</em>etamide;2-Diphenylmethanesulfinylacetamide;2-(Diphenyl-methanesulfinyl)-acetamide;Alertec;Modavigil",
    "duplicated_cas_no": "112111-49-6",
    "SMILES": "C(S(CC(N)=O)=O)(C1=CC=CC=C1)C2=CC=CC=C2",
    "meta_data": {
        "InChI": "InChI=1S/C15H15NO2S/c16-14(17)11-19(18)15(12-7-3-1-4-8-12)13-9-5-2-6-10-13/h1-10,15H,11H2,(H2,16,17)",
        "InChIKey": null,
        "Canonical SMILES": "O=C(N)CS(=O)C(C=1C=CC=CC1)C=2C=CC=CC2",
        "Molecular Formula": "C<sub>15</sub>H<sub>15</sub>NO<sub>2</sub>S",
        "Molecular Mass": "273.35",
        "Melting Point": "164-166 °C"
    }
}