{
    "cas_no": "299-42-3",
    "key_name": "Ephedrine",
    "cn_name": "麻黄碱;左旋麻黄碱;麻黄素;(1R,2S)-2-甲氨基-苯丙烷-1-醇;",
    "alternate_name": "Benzenemethanol, α-[(1<em>S</em>)-1-(methylamino)ethyl]-, (α<em>R</em>)-;Ephedrine, (-)-;Benzenemethanol, α-[1-(methylamino)ethyl]-, [<em>R</em>-(<em>R</em>*,<em>S</em>*)]-;(α<em>R</em>)-α-[(1<em>S</em>)-1-(Methylamino)ethyl]benzenemethanol;Ephedrine;(1<em>R</em>,2<em>S</em>)-1-Hydroxy-2-(methylamino)-1-phenylpropane;Ephedrin;(-)-Ephedrine;(-)-(1<em>R</em>,2<em>S</em>)-Ephedrin;1(<em>R</em>),2(<em>S</em>)-<em>erythro</em>-(-)-Ephedrine;(-)-Ephedrin;(-)-<em>erythro</em>-Ephedrine;<em>l</em>-Ephedrine;<span class=\"text-smallcaps\">L</span>-<em>erythro</em>-2-(Methylamino)-1-phenylpropan-1-ol;<span class=\"text-smallcaps\">L</span>-Ephedrine;(1<em>R</em>,2<em>S</em>)-Ephedrine;NSC 170951;NSC 8971;(1<em>R</em>,2<em>S</em>)-(-)-Ephedrine;Xenadrine;(1<em>R</em>,2<em>S</em>)-2-(Methylamino)-1-phenyl-1-propanol;Efedrina;Ephedsol;MeSH ID: D004809",
    "duplicated_cas_no": "321-96-0;6912-63-6",
    "SMILES": "[C@@H]([C@@H](NC)C)(O)C1=CC=CC=C1",
    "meta_data": {
        "InChI": "InChI=1S/C10H15NO/c1-8(11-2)10(12)9-6-4-3-5-7-9/h3-8,10-12H,1-2H3/t8-,10-/m0/s1",
        "InChIKey": null,
        "Canonical SMILES": "OC(C=1C=CC=CC1)C(NC)C",
        "Molecular Formula": "C<sub>10</sub>H<sub>15</sub>NO",
        "Molecular Mass": "165.23",
        "Boiling Point": "255 °C",
        "Melting Point": "34 °C"
    }
}