{
    "cas_no": "121-43-7",
    "key_name": "Trimethyl borate",
    "cn_name": "硼酸三甲酯;",
    "alternate_name": "Boric acid (H<sub>3</sub>BO<sub>3</sub>), trimethyl ester;Methyl borate ((MeO)<sub>3</sub>B);Borester O;Trimethoxyborane;Trimethoxyborine;Trimethyl borate;Boric acid trimethyl ester;Trimethoxyboron;Boron trimethoxide;TMB;NSC 777;Trimethylborate;TMB-R",
    "duplicated_cas_no": "31649-91-9;63156-11-6",
    "SMILES": "B(OC)(OC)OC",
    "meta_data": {
        "InChI": "InChI=1S/C3H9BO3/c1-5-4(6-2)7-3/h1-3H3",
        "InChIKey": null,
        "Canonical SMILES": "O(B(OC)OC)C",
        "Molecular Formula": "C<sub>3</sub>H<sub>9</sub>BO<sub>3</sub>",
        "Molecular Mass": "103.91",
        "Boiling Point": "67-68 °C",
        "Melting Point": "-29.3 °C",
        "Density": "0.915 g/cm³"
    }
}