{
    "cas_no": "19347-73-0",
    "key_name": "6-Chlorohexanoyl chloride",
    "cn_name": "6-氯己酰氯;",
    "alternate_name": "Hexanoyl chloride, 6-chloro-;6-Chlorohexanoyl chloride;ε-Chlorocapronyl chloride;6-Chlorocaproyl chloride",
    "duplicated_cas_no": "",
    "SMILES": "C(CC(Cl)=O)CCCCl",
    "meta_data": {
        "InChI": "InChI=1S/C6H10Cl2O/c7-5-3-1-2-4-6(8)9/h1-5H2",
        "InChIKey": null,
        "Canonical SMILES": "O=C(Cl)CCCCCCl",
        "Molecular Formula": "C<sub>6</sub>H<sub>10</sub>Cl<sub>2</sub>O",
        "Molecular Mass": "169.05",
        "Boiling Point": "54-57 °C @ Press: 0.15 Torr"
    }
}