{
    "cas_no": "97-94-9",
    "key_name": "Triethylborane",
    "cn_name": "三乙基硼;",
    "alternate_name": "Borane, triethyl-;Triethylborane;Triethylboron",
    "duplicated_cas_no": "2583506-15-2",
    "SMILES": "B(CC)(CC)CC",
    "meta_data": {
        "InChI": "InChI=1S/C6H15B/c1-4-7(5-2)6-3/h4-6H2,1-3H3",
        "InChIKey": null,
        "Canonical SMILES": "B(CC)(CC)CC",
        "Molecular Formula": "C<sub>6</sub>H<sub>15</sub>B",
        "Molecular Mass": "97.99",
        "Boiling Point": "95-96 °C",
        "Melting Point": "-92.9 °C",
        "Density": "0.697 g/cm³ @ Temp: 20 °C"
    }
}