{
    "cas_no": "4221-03-8",
    "key_name": "5-Hydroxypentanal",
    "cn_name": "5-羟基戊醛;",
    "alternate_name": "Pentanal, 5-hydroxy-;Valeraldehyde, 5-hydroxy-;5-Hydroxypentanal;5-Hydroxyvaleraldehyde;5-Hydroxypentylaldehyde;NSC 62080;5-Hydroxy-1-pentanal",
    "duplicated_cas_no": "",
    "SMILES": "C(CCO)CC=O",
    "meta_data": {
        "InChI": "InChI=1S/C5H10O2/c6-4-2-1-3-5-7/h4,7H,1-3,5H2",
        "InChIKey": null,
        "Canonical SMILES": "O=CCCCCO",
        "Molecular Formula": "C<sub>5</sub>H<sub>10</sub>O<sub>2</sub>",
        "Molecular Mass": "102.13",
        "Boiling Point": "62-66 °C @ Press: 6-8 Torr",
        "Density": "1.053 g/cm³ @ Temp: 20 °C"
    }
}