{
    "cas_no": "14806-50-9",
    "key_name": "3,3′-Diethyloxadicarbocyanine iodide",
    "cn_name": "碘化3,3-二乙基氧杂二羰花青;",
    "alternate_name": "Benzoxazolium, 3-ethyl-2-[5-(3-ethyl-2(3<em>H</em>)-benzoxazolylidene)-1,3-pentadien-1-yl]-, iodide (1:1);Benzoxazolium, 3-ethyl-2-[5-(3-ethyl-2-benzoxazolinylidene)-1,3-pentadienyl]-, iodide;Benzoxazolium, 3-ethyl-2-[5-(3-ethyl-2(3<em>H</em>)-benzoxazolylidene)-1,3-pentadienyl]-, iodide;3-Ethyl-2-[5-(3-ethyl-2-benzoxazolinylidene)-1,3-pentadienyl]benzoxazolium iodide;DODCI;Eastman 11219;3,3′-Diethyloxadicarbocyanine iodide;3,3′-Diethyl-2,2′-oxadicarbocyanine iodide;NK 1533",
    "duplicated_cas_no": "50706-35-9",
    "SMILES": "C(C)N1C=2C(OC1=CC=CC=CC3=[N+](CC)C=4C(O3)=CC=CC4)=CC=CC2.[I-]",
    "meta_data": {
        "InChI": "InChI=1S/C23H23N2O2.HI/c1-3-24-18-12-8-10-14-20(18)26-22(24)16-6-5-7-17-23-25(4-2)19-13-9-11-15-21(19)27-23;/h5-17H,3-4H2,1-2H3;1H/q+1;/p-1",
        "InChIKey": null,
        "Canonical SMILES": "[I-].O1C=2C=CC=CC2N(C1=CC=CC=CC=3OC=4C=CC=CC4[N+]3CC)CC",
        "Molecular Formula": "C<sub>23</sub>H<sub>23</sub>N<sub>2</sub>O<sub>2</sub>.I",
        "Molecular Mass": "",
        "Melting Point": "232 °C (decomp)"
    }
}