{
    "cas_no": "92-74-0",
    "key_name": "<em>N</em>-(2-Ethoxyphenyl)-3-hydroxy-2-naphthalenecarboxamide",
    "cn_name": "色酚AS-PH;冰染偶合组分14;",
    "alternate_name": "2-Naphthalenecarboxamide, <em>N</em>-(2-ethoxyphenyl)-3-hydroxy-;2-Naphtho-<em>o</em>-phenetidide, 3-hydroxy-;<em>N</em>-(2-Ethoxyphenyl)-3-hydroxy-2-naphthalenecarboxamide;C.I. 37558;Acco Naf-Sol AS-PH;Acco Naphthol AS-PH;Acna Naphthol OF;Amanil Naphthol AS-PH;Amarthol AS-PH;C.I. Azoic Coupling Component 14;Daito Grounder PH;Hiltonaphthol AS-PH;Kambothol ASPH;Naphtanilide phenyl;Naphtanilide phenyl Supra;Naphtazol OP;Naphthanil OP;Naphthol AS-OP;Naphthol AS-phenyl;Naphthol AS-phenyl Supra;Naphthol AS-RO;Naphtoelan phenyl;Naphtol AS-phenyl;Tulathol AS-phenyl;Azotol OF;2-Hydroxy-3-naphtho-<em>o</em>-phenetidide;3-Hydroxy-2-naphtho-<em>o</em>-phenetidide;<em>N</em>-(2-Ethoxyphenyl)-3-hydroxy-2-naphthamide;2′-Ethoxy-3-hydroxy-2-naphthanilide;Naphthol AS-PH;Azoic Coupling Component 14;NSC 50681;Anarthol AS-PH;Naftol AS-PH;Napthol ASPH;Conazoic AD;Dycosthol AS-PH;Hebeithol AS-PH;Kiwa Grounder PH",
    "duplicated_cas_no": "",
    "SMILES": "C(NC1=C(OCC)C=CC=C1)(=O)C2=CC3=C(C=C2O)C=CC=C3",
    "meta_data": {
        "InChI": "InChI=1S/C19H17NO3/c1-2-23-18-10-6-5-9-16(18)20-19(22)15-11-13-7-3-4-8-14(13)12-17(15)21/h3-12,21H,2H2,1H3,(H,20,22)",
        "InChIKey": null,
        "Canonical SMILES": "O=C(NC=1C=CC=CC1OCC)C2=CC=3C=CC=CC3C=C2O",
        "Molecular Formula": "C<sub>19</sub>H<sub>17</sub>NO<sub>3</sub>",
        "Molecular Mass": "307.34",
        "Melting Point": "157-160 °C"
    }
}