{
    "cas_no": "24106-05-6",
    "key_name": "<em>N</em>-(4-Bromo-2-methylphenyl)acetamide",
    "cn_name": "4-溴-2-甲基乙酰苯胺;",
    "alternate_name": "Acetamide, <em>N</em>-(4-bromo-2-methylphenyl)-;<em>o</em>-Acetotoluidide, 4′-bromo-;<em>N</em>-(4-Bromo-2-methylphenyl)acetamide;4-Bromo-2-methylacetanilide;NSC 8062;4-Acetamido-3-methyl-1-bromobenzene",
    "duplicated_cas_no": "",
    "SMILES": "N(C(C)=O)C1=C(C)C=C(Br)C=C1",
    "meta_data": {
        "InChI": "InChI=1S/C9H10BrNO/c1-6-5-8(10)3-4-9(6)11-7(2)12/h3-5H,1-2H3,(H,11,12)",
        "InChIKey": null,
        "Canonical SMILES": "O=C(NC1=CC=C(Br)C=C1C)C",
        "Molecular Formula": "C<sub>9</sub>H<sub>10</sub>BrNO",
        "Molecular Mass": "228.09",
        "Melting Point": "156 °C"
    }
}