{
    "cas_no": "482-53-1",
    "key_name": "Osajin",
    "cn_name": null,
    "alternate_name": "4<em>H</em>,8<em>H</em>-Benzo[1,2-<em>b</em>:3,4-<em>b</em>′]dipyran-4-one, 5-hydroxy-3-(4-hydroxyphenyl)-8,8-dimethyl-6-(3-methyl-2-buten-1-yl)-;4<em>H</em>,8<em>H</em>-Benzo[1,2-<em>b</em>:3,4-<em>b</em>′]dipyran-4-one, 5-hydroxy-3-(<em>p</em>-hydroxyphenyl)-8,8-dimethyl-6-(3-methyl-2-butenyl)-;4<em>H</em>,8<em>H</em>-Benzo[1,2-<em>b</em>:3,4-<em>b</em>′]dipyran-4-one, 5-hydroxy-3-(4-hydroxyphenyl)-8,8-dimethyl-6-(3-methyl-2-butenyl)-;5-Hydroxy-3-(4-hydroxyphenyl)-8,8-dimethyl-6-(3-methyl-2-buten-1-yl)-4<em>H</em>,8<em>H</em>-benzo[1,2-<em>b</em>:3,4-<em>b</em>′]dipyran-4-one;Osajin;NSC 21565;3′-Deoxypomiferin;5′-<em>O</em>-Demethylscandinone;CID 95168;Pubchem CID: 95168",
    "duplicated_cas_no": "",
    "SMILES": "C(C=C(C)C)C=1C2=C(C3=C(C1O)C(=O)C(=CO3)C4=CC=C(O)C=C4)C=CC(C)(C)O2",
    "meta_data": {
        "InChI": "InChI=1S/C25H24O5/c1-14(2)5-10-17-21(27)20-22(28)19(15-6-8-16(26)9-7-15)13-29-24(20)18-11-12-25(3,4)30-23(17)18/h5-9,11-13,26-27H,10H2,1-4H3",
        "InChIKey": null,
        "Canonical SMILES": "O=C1C(=COC=2C=3C=CC(OC3C(=C(O)C12)CC=C(C)C)(C)C)C=4C=CC(O)=CC4",
        "Molecular Formula": "C<sub>25</sub>H<sub>24</sub>O<sub>5</sub>",
        "Molecular Mass": "404.46",
        "Melting Point": "189 °C"
    }
}