{
    "cas_no": "97-86-9",
    "key_name": "Isobutyl methacrylate",
    "cn_name": "甲基丙烯酸异丁酯;",
    "alternate_name": "2-Propenoic acid, 2-methyl-, 2-methylpropyl ester;Methacrylic acid, isobutyl ester;Isobutyl methacrylate;Isobutyl α-methylacrylate;2-Methylpropyl methacrylate;Isobutyl 2-methyl-2-propenoate;NSC 18607;I 205 (methacrylate);I 205;Light Ester IB;Plexigum Q 611;Acryester IB;Blemmer IBMA;Visiomer i-BMA;2-Methyl-acrylic acid isobutyl ester;2-Methylpropyl 2-methylprop-2-enoate",
    "duplicated_cas_no": "266675-13-2",
    "SMILES": "C(OCC(C)C)(C(C)=C)=O",
    "meta_data": {
        "InChI": "InChI=1S/C8H14O2/c1-6(2)5-10-8(9)7(3)4/h6H,3,5H2,1-2,4H3",
        "InChIKey": null,
        "Canonical SMILES": "O=C(OCC(C)C)C(=C)C",
        "Molecular Formula": "C<sub>8</sub>H<sub>14</sub>O<sub>2</sub>",
        "Molecular Mass": "142.20",
        "Boiling Point": "155 °C @ Press: 760 Torr",
        "Density": "0.8858 g/cm³ @ Temp: 20 °C"
    }
}