{
    "cas_no": "18107-18-1",
    "key_name": "Trimethylsilyldiazomethane",
    "cn_name": null,
    "alternate_name": "Silane, (diazomethyl)trimethyl-;(Diazomethyl)trimethylsilane;Trimethylsilyldiazomethane;Diazo((trimethylsilyl))methane;Methanediazonium, (trimethylsilyl)-, inner salt",
    "duplicated_cas_no": "167705-95-5;933674-70-5;1092350-00-9;1620957-06-3",
    "SMILES": "C([Si](C)(C)C)=[N+]=[N-]",
    "meta_data": {
        "InChI": "InChI=1S/C4H10N2Si/c1-7(2,3)4-6-5/h4H,1-3H3",
        "InChIKey": null,
        "Canonical SMILES": "[N-]=[N+]=C[Si](C)(C)C",
        "Molecular Formula": "C<sub>4</sub>H<sub>10</sub>N<sub>2</sub>Si",
        "Molecular Mass": "",
        "Boiling Point": "96 °C",
        "Density": "0.675 g/cm³"
    }
}