{
    "cas_no": "94-80-4",
    "key_name": "Butyl (2,4-dichlorophenoxy)acetate",
    "cn_name": "2,4-滴丁酯;2,4-二氯苯氧乙酸正丁酯;",
    "alternate_name": "Acetic acid, 2-(2,4-dichlorophenoxy)-, butyl ester;Acetic acid, (2,4-dichlorophenoxy)-, butyl ester;Butyl 2,4-D;Butyl (2,4-dichlorophenoxy)acetate;Esso Herbicide 10;Lironox;2,4-Dichlorophenoxyacetic acid butyl ester;Fernesta;Butyl dichlorophenoxyacetate;2,4-Dichlorophenoxyacetic acid <em>n</em>-butyl ester;2,4-DBE;Butapon;Hi-Ester 2,4-D;NSC 409767;Esteron 400BR;2,4-D Butylate;2,4-D Butyl ester",
    "duplicated_cas_no": "",
    "SMILES": "O(CC(OCCCC)=O)C1=C(Cl)C=C(Cl)C=C1",
    "meta_data": {
        "InChI": "InChI=1S/C12H14Cl2O3/c1-2-3-6-16-12(15)8-17-11-5-4-9(13)7-10(11)14/h4-5,7H,2-3,6,8H2,1H3",
        "InChIKey": null,
        "Canonical SMILES": "O=C(OCCCC)COC1=CC=C(Cl)C=C1Cl",
        "Molecular Formula": "C<sub>12</sub>H<sub>14</sub>Cl<sub>2</sub>O<sub>3</sub>",
        "Molecular Mass": "277.14",
        "Boiling Point": "146-147 °C @ Press: 1 Torr",
        "Melting Point": "9 °C"
    }
}