{
    "cas_no": "100848-70-2",
    "key_name": "2-Methoxy-4-methylpyridine",
    "cn_name": "2-甲氧基-4-甲基吡啶;",
    "alternate_name": "Pyridine, 2-methoxy-4-methyl-;2-Methoxy-4-methylpyridine",
    "duplicated_cas_no": "",
    "SMILES": "O(C)C1=CC(C)=CC=N1",
    "meta_data": {
        "InChI": "InChI=1S/C7H9NO/c1-6-3-4-8-7(5-6)9-2/h3-5H,1-2H3",
        "InChIKey": null,
        "Canonical SMILES": "N=1C=CC(=CC1OC)C",
        "Molecular Formula": "C<sub>7</sub>H<sub>9</sub>NO",
        "Molecular Mass": "123.15",
        "Boiling Point": "67 °C @ Press: 21 Torr",
        "Melting Point": "136 °C"
    }
}