{
    "cas_no": "13183-70-5",
    "key_name": "1,4-Bis(trimethylsilyl)benzene",
    "cn_name": "1,4-二(三甲基硅烷基)苯;",
    "alternate_name": "Benzene, 1,4-bis(trimethylsilyl)-;Silane, <em>p</em>-phenylenebis[trimethyl-;Silane, 1,4-phenylenebis[trimethyl-;1,4-Bis(trimethylsilyl)benzene;<em>p</em>-Bis(trimethylsilyl)benzene;1,4-Phenylenebis(trimethylsilane)",
    "duplicated_cas_no": "",
    "SMILES": "[Si](C)(C)(C)C1=CC=C([Si](C)(C)C)C=C1",
    "meta_data": {
        "InChI": "InChI=1S/C12H22Si2/c1-13(2,3)11-7-9-12(10-8-11)14(4,5)6/h7-10H,1-6H3",
        "InChIKey": null,
        "Canonical SMILES": "C=1C=C(C=CC1[Si](C)(C)C)[Si](C)(C)C",
        "Molecular Formula": "C<sub>12</sub>H<sub>22</sub>Si<sub>2</sub>",
        "Molecular Mass": "222.47",
        "Boiling Point": "194-195 °C",
        "Melting Point": "92-94 °C"
    }
}