{
    "cas_no": "665-66-7",
    "key_name": "Amantadine hydrochloride",
    "cn_name": "盐酸金刚烷胺;三环[3,3,1,13,7]癸烷-1-胺盐酸盐;",
    "alternate_name": "Tricyclo[3.3.1.1<sup>3,7</sup>]decan-1-amine, hydrochloride (1:1);1-Adamantanamine, hydrochloride;Tricyclo[3.3.1.1<sup>3,7</sup>]decan-1-amine, hydrochloride;Adamantanamine hydrochloride;EXP 105-1;NSC 83653;Symmetrel;Aminoadamantane hydrochloride;Mydantane;Midantane;1-Aminoadamantane hydrochloride;1-Adamantylamine hydrochloride;Adamantylamine hydrochloride;1-Adamantamine hydrochloride;Amantadine hydrochloride;Virasol;Symadine;Amazolon;Mantadine;Virofral;Mantadan;Midantan;Mantadix;Adamin;Adamine;ADS 5102;Gocovri",
    "duplicated_cas_no": "13878-11-0",
    "SMILES": "NC12CC3CC(C1)CC(C2)C3.Cl",
    "meta_data": {
        "InChI": "InChI=1S/C10H17N.ClH/c11-10-4-7-1-8(5-10)3-9(2-7)6-10;/h7-9H,1-6,11H2;1H",
        "InChIKey": null,
        "Canonical SMILES": "Cl.NC12CC3CC(CC(C3)C1)C2",
        "Molecular Formula": "C<sub>10</sub>H<sub>17</sub>N.ClH",
        "Molecular Mass": "",
        "Melting Point": "359-360 °C"
    }
}