{
    "cas_no": "42874-03-3",
    "key_name": "Oxyfluorfen",
    "cn_name": "乙氧氟草醚;复禄芬;2-氯-4-三氟甲基苯基-4\"-硝基-3\"-乙氧基苯基醚;",
    "alternate_name": "Benzene, 2-chloro-1-(3-ethoxy-4-nitrophenoxy)-4-(trifluoromethyl)-;2-Chloro-1-(3-ethoxy-4-nitrophenoxy)-4-(trifluoromethyl)benzene;2-Chloro-4-trifluoromethylphenyl 3-ethoxy-4-nitrophenyl ether;RH 2915;Oxyfluorfen;Goal;4-Trifluoromethyl-2-chloro-3′-ethoxy-4′-nitrophenyl ether;RH 2915D;2′-Chloro-3-ethoxy-4′-trifluoromethyl-4-nitrodiphenyl ether;Goal 2E;Oxygold;Galigan;Koltar;Goal 2XL;Fluoxil 24EC;Oxyfluorfen 4SC",
    "duplicated_cas_no": "55599-40-1;55840-24-9",
    "SMILES": "N(=O)(=O)C1=C(OCC)C=C(OC2=C(Cl)C=C(C(F)(F)F)C=C2)C=C1",
    "meta_data": {
        "InChI": "InChI=1S/C15H11ClF3NO4/c1-2-23-14-8-10(4-5-12(14)20(21)22)24-13-6-3-9(7-11(13)16)15(17,18)19/h3-8H,2H2,1H3",
        "InChIKey": null,
        "Canonical SMILES": "O=N(=O)C1=CC=C(OC2=CC=C(C=C2Cl)C(F)(F)F)C=C1OCC",
        "Molecular Formula": "C<sub>15</sub>H<sub>11</sub>ClF<sub>3</sub>NO<sub>4</sub>",
        "Molecular Mass": "361.70",
        "Boiling Point": "358.2 °C",
        "Melting Point": "84 °C"
    }
}