{
    "cas_no": "879551-04-9",
    "key_name": "(2<em>R</em>)-2-Deoxy-2-fluoro-2-methyl-<span class=\"text-smallcaps\">D</span>-<em>erythro</em>-pentonic acid γ-lactone",
    "cn_name": null,
    "alternate_name": "<span class=\"text-smallcaps\">D</span>-<em>erythro</em>-Pentonic acid, 2-deoxy-2-fluoro-2-methyl-, γ-lactone, (2<em>R</em>)-;(2<em>R</em>)-2-Deoxy-2-fluoro-2-methyl-<span class=\"text-smallcaps\">D</span>-<em>erythro</em>-pentonic acid γ-lactone",
    "duplicated_cas_no": "",
    "SMILES": "C(O)[C@@H]1[C@@H](O)[C@@](C)(F)C(=O)O1",
    "meta_data": {
        "InChI": "InChI=1S/C6H9FO4/c1-6(7)4(9)3(2-8)11-5(6)10/h3-4,8-9H,2H2,1H3/t3-,4-,6-/m1/s1",
        "InChIKey": null,
        "Canonical SMILES": "O=C1OC(CO)C(O)C1(F)C",
        "Molecular Formula": "C<sub>6</sub>H<sub>9</sub>FO<sub>4</sub>",
        "Molecular Mass": "164.13",
        "Melting Point": "142-143 °C"
    }
}