{
    "cas_no": "87760-53-0",
    "key_name": "Tandospirone",
    "cn_name": "坦度螺酮;3a,4,7,7a-六氢-2-(4-(4-(2-嘧啶基)-1-哌嗪基)丁基)-4,7-甲桥-1H-异吲哚-1,3(2H)-二酮;",
    "alternate_name": "4,7-Methano-1<em>H</em>-isoindole-1,3(2<em>H</em>)-dione, hexahydro-2-[4-[4-(2-pyrimidinyl)-1-piperazinyl]butyl]-, (3a<em>R</em>,4<em>S</em>,7<em>R</em>,7a<em>S</em>)-<em>rel</em>-;4,7-Methano-1<em>H</em>-isoindole-1,3(2<em>H</em>)-dione, hexahydro-2-[4-[4-(2-pyrimidinyl)-1-piperazinyl]butyl]-, (3aα,4β,7β,7aα)-;<em>rel</em>-(3a<em>R</em>,4<em>S</em>,7<em>R</em>,7a<em>S</em>)-Hexahydro-2-[4-[4-(2-pyrimidinyl)-1-piperazinyl]butyl]-4,7-methano-1<em>H</em>-isoindole-1,3(2<em>H</em>)-dione;Tandospirone",
    "duplicated_cas_no": "",
    "SMILES": "O=C1[C@]2([C@]([C@]3(C[C@@]2(CC3)[H])[H])(C(=O)N1CCCCN4CCN(CC4)C=5N=CC=CN5)[H])[H]",
    "meta_data": {
        "InChI": "InChI=1/C21H29N5O2/c27-19-17-15-4-5-16(14-15)18(17)20(28)26(19)9-2-1-8-24-10-12-25(13-11-24)21-22-6-3-7-23-21/h3,6-7,15-18H,1-2,4-5,8-14H2/t15-,16+,17+,18-",
        "InChIKey": null,
        "Canonical SMILES": "O=C1N(C(=O)C2C3CCC(C3)C12)CCCCN4CCN(C5=NC=CC=N5)CC4",
        "Molecular Formula": "C<sub>21</sub>H<sub>29</sub>N<sub>5</sub>O<sub>2</sub>",
        "Molecular Mass": "383.49",
        "Melting Point": "112-113.5 °C"
    }
}