{
    "cas_no": "2154-67-8",
    "key_name": "3-Carboxy-2,2,5,5-tetramethylpyrroline-1-oxyl",
    "cn_name": "2,2,5,5-四甲基-3-吡啉-1-氧基-3-羧酸;",
    "alternate_name": "1<em>H</em>-Pyrrol-1-yloxy, 3-carboxy-2,5-dihydro-2,2,5,5-tetramethyl-;3-Pyrrolin-1-yloxy, 3-carboxy-2,2,5,5-tetramethyl-;3-Carboxy-2,5-dihydro-2,2,5,5-tetramethyl-1<em>H</em>-pyrrol-1-yloxy;2,2,5,5-Tetramethyl-3-pyrroline-1-oxyl-3-carboxylic acid;3-Carboxy-2,2,5,5-tetramethylpyrroline-1-oxyl;3-Carboxy-2,2,5,5-tetramethyl-3-pyrroline-1-oxyl;3-Carboxy-2,2,5,5-tetramethyl-1-pyrrolinyloxyl;PCAOL;2,2,5,5-Tetramethyl-3-carboxy-3-pyrroline-1-oxyl;2,2,5,5-Tetramethylpyrroline-1-oxyl-3-carboxylic acid;2,2,5,5-Tetramethyl-1-oxypyrroline-3-carboxylic acid;1-Oxyl-2,2,5,5-tetramethylpyrroline-3-carboxylic acid;2,2,5,5-Tetramethylpyrrolin-1-oxyl-3-carboxylic acid;2,2,5,5-Tetramethyl-3-pirrolinyl-1-oxy-3-carboxylic acid",
    "duplicated_cas_no": "109871-95-6",
    "SMILES": "",
    "meta_data": {
        "InChI": "",
        "InChIKey": null,
        "Canonical SMILES": "",
        "Molecular Formula": "C<sub>9</sub>H<sub>14</sub>NO<sub>3</sub>",
        "Molecular Mass": "",
        "Melting Point": "210-211 °C"
    }
}