{
    "cas_no": "111-64-8",
    "key_name": "Octanoyl chloride",
    "cn_name": "辛酰氯;",
    "alternate_name": "Octanoyl chloride;Capryloyl chloride;<em>n</em>-Octanoyl chloride;Caprylic acid chloride;Octanoic chloride;Octanoic acid chloride;1-Octanoic acid chloride;Octanoic acid, anhydride with carbonochloridic acid",
    "duplicated_cas_no": "1246204-27-2",
    "SMILES": "C(CCCCC)CC(Cl)=O",
    "meta_data": {
        "InChI": "InChI=1S/C8H15ClO/c1-2-3-4-5-6-7-8(9)10/h2-7H2,1H3",
        "InChIKey": null,
        "Canonical SMILES": "O=C(Cl)CCCCCCC",
        "Molecular Formula": "C<sub>8</sub>H<sub>15</sub>ClO",
        "Molecular Mass": "162.66",
        "Boiling Point": "195.6 °C",
        "Melting Point": "-63 °C",
        "Density": "0.985 g/cm³ @ Temp: 20 °C"
    }
}