{
    "cas_no": "3539-43-3",
    "key_name": "Hexadecyl phosphate",
    "cn_name": "鲸蜡基磷酸-鲸蜡基磷酸二乙醇胺;鲸蜡基磷酸-鲸蜡基磷酸二乙醇胺;",
    "alternate_name": "1-Hexadecanol, 1-(dihydrogen phosphate);1-Hexadecanol, dihydrogen phosphate;Hexadecyl phosphate;Phosphoric acid monohexadecyl ester;Cetyl dihydrogen phosphate;Dihydrogen monohexadecyl phosphate;Monohexadecyl phosphate;Monocetyl phosphate;Mono-<em>n</em>-hexadecyl phosphate;Hexadecyl dihydrogen phosphate;MAP 60H;Monafax 160;Monopalmityl phosphate;Hostaphat CC 100",
    "duplicated_cas_no": "175597-82-7",
    "SMILES": "C(CCCCCCCCCCCCCC)COP(=O)(O)O",
    "meta_data": {
        "InChI": "InChI=1S/C16H35O4P/c1-2-3-4-5-6-7-8-9-10-11-12-13-14-15-16-20-21(17,18)19/h2-16H2,1H3,(H2,17,18,19)",
        "InChIKey": null,
        "Canonical SMILES": "O=P(O)(O)OCCCCCCCCCCCCCCCC",
        "Molecular Formula": "C<sub>16</sub>H<sub>35</sub>O<sub>4</sub>P",
        "Molecular Mass": "322.42",
        "Melting Point": "71 °C"
    }
}