{
    "cas_no": "63-89-8",
    "key_name": "1,2-Dipalmitoyl-<em>sn</em>-<em>glycero</em>-3-phosphocholine",
    "cn_name": null,
    "alternate_name": "3,5,9-Trioxa-4-phosphapentacosan-1-aminium, 4-hydroxy-<em>N</em>,<em>N</em>,<em>N</em>-trimethyl-10-oxo-7-[(1-oxohexadecyl)oxy]-, inner salt, 4-oxide, (7<em>R</em>)-;Choline, hydroxide, dihydrogen phosphate, inner salt, ester with 1,2-dipalmitin, <span class=\"text-smallcaps\">L</span>-;3,5,9-Trioxa-4-phosphapentacosan-1-aminium, 4-hydroxy-<em>N</em>,<em>N</em>,<em>N</em>-trimethyl-10-oxo-7-[(1-oxohexadecyl)oxy]-, hydroxide, inner salt, 4-oxide, (<em>R</em>)-;Palmitin, 1,2-di-, dihydrogen phosphate, monoester with choline hydroxide, inner salt, <span class=\"text-smallcaps\">L</span>-;1,2-Dipalmitoyl-<span class=\"text-smallcaps\">L</span>-phosphatidylcholine;β,γ-Dipalmitoyl-<span class=\"text-smallcaps\">L</span>-phosphatidylcholine;<span class=\"text-smallcaps\">L</span>-α-Dipalmitoyllecithin;1,2-Dipalmitoyl-<span class=\"text-smallcaps\">L</span>-lecithin;Dipalmitoyl-<span class=\"text-smallcaps\">L</span>-lecithin;β,γ-Dipalmitoyl-<span class=\"text-smallcaps\">L</span>-(α)-lecithin;Dipalmitoyl-<span class=\"text-smallcaps\">L</span>-α-phosphatidylcholine;1,2-Dipalmitoyl-<span class=\"text-smallcaps\">L</span>-3-phosphatidylcholine;<span class=\"text-smallcaps\">L</span>-Dipalmitoylphosphatidylcholine;1,2-Dipalmitoyl-3-<em>sn</em>-phosphatidylcholine;1,2-Dipalmitoyl-<span class=\"text-smallcaps\">L</span>-α-lecithin;1,2-Dipalmitoyl-<em>sn</em>-<em>glycero</em>-3-phosphorylcholine;Dipalmitoyl-<span class=\"text-smallcaps\">L</span>-3-glycerylphosphorylcholine;1,2-<span class=\"text-smallcaps\">L</span>-α-Dipalmitoylphosphatidylcholine;β,γ-Dipalmitoyl <span class=\"text-smallcaps\">L</span>-α-phosphatidylcholine;1,2-Dipalmitoyl-<em>sn</em>-glycero-3-phosphorylcholine;1,2-Dipalmitoyl-<em>sn</em>-glycerophosphocholine;1,2-Dipalmitoyl-<em>sn</em>-glycerophosphorylcholine;<em>sn</em>-3-Dipalmitoyllecithin;1,2-Dipalmitoyl-<em>sn</em>-glycerol-3-phosphocholine;<span class=\"text-smallcaps\">L</span>-1,2-Dipalmitoyl-α-lecithin;<span class=\"text-smallcaps\">L</span>-α-1,2-Dipalmitoyl lecithin;<span class=\"text-smallcaps\">L</span>-β,γ-Dipalmitoylphosphatidylcholine;<span class=\"text-smallcaps\">L</span>-β,γ-Dipalmitoyl-α-lecithin;1,2-Dihexadecanoyl-<em>sn</em>-<em>glycero</em>-3-phosphorylcholine;<span class=\"text-smallcaps\">L</span>-α-Dipalmitoylphosphatidylcholine;1,2-Dipalmitoyl-<em>sn</em>-3-glycerophosphocholine;<span class=\"text-smallcaps\">L</span>-α-Dipalmitoylecithin;1,2-Dipalmitoyl-<span class=\"text-smallcaps\">L</span>-α-phosphatidylcholine;Dipalmitoyl-<span class=\"text-smallcaps\">L</span>-α-lecithin;<span class=\"text-smallcaps\">L</span>-Dipalmitoyl lecithin;<span class=\"text-smallcaps\">L</span>-β,γ-Dipalmitoyl-α-phosphatidylcholine;Dipalmitoyl <em>L</em>-α-phosphatidylcholine;Dipalmitoyl-<em>sn</em>-3-phosphatidylcholine;1,2-Dihexadecanoyl-<em>sn</em>-glycerol-3-phosphorylcholine;1,2-Dipalmitoyl-<em>sn</em>-phosphatidylcholine;DPPC;<span class=\"text-smallcaps\">L</span>-1,2-Dipalmitoylphosphatidylcholine;1,2-Dipalmitoyl-<em>sn</em>-glyceryl-3-phosphocholine;Colfosceril palmitate;1,2-Bis(palmitoyl)-<em>sn</em>-glycero-3-phosphocholine;Dipalmitoylphosphatidylcholine;129Y83;3,5,9-Trioxa-4-phosphapentacosan-1-aminium, 4-hydroxy-<em>N</em>,<em>N</em>,<em>N</em>-trimethyl-10-oxo-7-[(1-oxohexadecyl)oxy]-, inner salt, 4-oxide, (<em>R</em>)-;1,2-Bis(hexadecanoyl)-<em>sn</em>-<em>glycero</em>-3-phosphocholine;1,2-Dipalmitoyl-<em>sn</em>-<em>glycero</em>-3-phosphocholine;<span class=\"text-smallcaps\">L</span>-DPPC;1,2-Dipalmitoylglycero-3-phosphocholine;<span class=\"text-smallcaps\">L</span>-α-DPPC;Dihexadecanoyl-<em>sn</em>-glycero-3-phosphocholine;1,2-Dipalmitoyl-<em>sn</em>-<em>glycero</em>-3-phosphatidylcholine;1,2-Dihexadecanoyl-<em>sn</em>-<em>glycero</em>-3-phosphocholine;1,2-Dipalmitoyl-sn-<em>glycero</em>-3-phosphocholine;<span class=\"text-smallcaps\">L</span>-α-Lecithin;1,2-Dipalmitoyl-3-sn-phosphatidylcholine;<span class=\"text-smallcaps\">L</span>-Dipalmitoyl phosphatidylcholine;Dipalmitoyl-sn-<em>glycero</em>-3-phosphocholine;1,2-Dipalmitoyl-sn-glycerol-3-phosphocholine;1,2-Dipalmitoyl-sn-<em>glycero</em>-3-phosphatidylcholine;(R)-2,3-Bis(palmitoyloxy)propyl (2-(trimethylammonio)ethyl) phosphate;[(2R)-2,3-Di(hexadecanoyloxy)propyl] 2-(trimethylazaniumyl)ethyl phosphate;1,2-Palmitoyl-sn-<em>glycero</em>-3-phosphocholine;1,2-Dispalmitoyl-sn-phosphatidylcholine;1,2-Dihexadecanoyl-sn-<em>glycero</em>-3-phosphocholine;Coatsome MC 6060",
    "duplicated_cas_no": "50669-86-8;875249-75-5",
    "SMILES": "[C@H](OC(CCCCCCCCCCCCCCC)=O)(COP(OCC[N+](C)(C)C)(=O)[O-])COC(CCCCCCCCCCCCCCC)=O",
    "meta_data": {
        "InChI": "InChI=1S/C40H80NO8P/c1-6-8-10-12-14-16-18-20-22-24-26-28-30-32-39(42)46-36-38(37-48-50(44,45)47-35-34-41(3,4)5)49-40(43)33-31-29-27-25-23-21-19-17-15-13-11-9-7-2/h38H,6-37H2,1-5H3/t38-/m1/s1",
        "InChIKey": null,
        "Canonical SMILES": "O=C(OCC(OC(=O)CCCCCCCCCCCCCCC)COP(=O)([O-])OCC[N+](C)(C)C)CCCCCCCCCCCCCCC",
        "Molecular Formula": "C<sub>40</sub>H<sub>80</sub>NO<sub>8</sub>P",
        "Molecular Mass": "",
        "Melting Point": "234 °C"
    }
}