{
    "cas_no": "62952-06-1",
    "key_name": "Aspisol",
    "cn_name": "赖氨匹林;赖氨酸乙酰水杨酸;",
    "alternate_name": "Lysine, 2-(acetyloxy)benzoate (1:1);<span class=\"text-smallcaps\">DL</span>-Lysine, mono[2-(acetyloxy)benzoate];Lysine, mono[2-(acetyloxy)benzoate];Benzoic acid, 2-(acetyloxy)-, compd. with <span class=\"text-smallcaps\">DL</span>-lysine (1:1);Benzoic acid, 2-(acetyloxy)-, compd. with lysine (1:1);Aspisol;Acetylsalicylic acid <span class=\"text-smallcaps\">DL</span>-lysine salt;Venopirin;Aspirisine;Lysine acetylsalicylate;Acetylsalicylic acid lysine salt;<span class=\"text-smallcaps\">DL</span>-Lysine acetylsalicylate;Egicalm;Solpirin;Aspegic;Aspirin lysine salt;Vetalgine;Cogla;Laboprin;Acelysin;Atselizin;Acetylsalicylic acid <em>dl</em>-lysine salt;Quinvet;Lysine monosalicylate acetate;Vetalgina;Aspidol;Lysal;Aspirin <span class=\"text-smallcaps\">D</smallcap><smallcap>L</span>-lysine;LAS;Delgesic;Acelysine;Asalis;Aspirin-<em>dl</em>-lysine;<span class=\"text-smallcaps\">DL</span>-Lysine aspirin salt;<em>o</em>-Acetylsalicylic acid <span class=\"text-smallcaps\">D</smallcap>,<smallcap>L</span>-lysine salt;2,6-diaminohexanoic acid compound with 2-acetoxybenzoic acid (1:1);Lysini racemici acetylsalicylase",
    "duplicated_cas_no": "97598-63-5;98806-35-0;107032-89-3;123445-32-9;34220-70-7;50641-50-4;51024-94-3;77337-52-1;92520-58-6;145607-63-2",
    "SMILES": "C(CCCCN)(C(O)=O)N.C(O)(=O)C1=C(OC(C)=O)C=CC=C1",
    "meta_data": {
        "InChI": "InChI=1S/C9H8O4.C6H14N2O2/c1-6(10)13-8-5-3-2-4-7(8)9(11)12;7-4-2-1-3-5(8)6(9)10/h2-5H,1H3,(H,11,12);5H,1-4,7-8H2,(H,9,10)",
        "InChIKey": null,
        "Canonical SMILES": "O=C(O)C=1C=CC=CC1OC(=O)C.O=C(O)C(N)CCCCN",
        "Molecular Formula": "C<sub>9</sub>H<sub>8</sub>O<sub>4</sub>.C<sub>6</sub>H<sub>14</sub>N<sub>2</sub>O<sub>2</sub>",
        "Molecular Mass": "",
        "Melting Point": "155 °C"
    }
}