{
    "cas_no": "3728-56-1",
    "key_name": "1-Ethyl-4-methylcyclohexane",
    "cn_name": "1-乙基-4-甲基环己烷;1-乙基-4-甲基环己烷;",
    "alternate_name": "Cyclohexane, 1-ethyl-4-methyl-;1-Ethyl-4-methylcyclohexane;1-Methyl-4-ethylcyclohexane",
    "duplicated_cas_no": "",
    "SMILES": "C(C)C1CCC(C)CC1",
    "meta_data": {
        "InChI": "InChI=1S/C9H18/c1-3-9-6-4-8(2)5-7-9/h8-9H,3-7H2,1-2H3",
        "InChIKey": null,
        "Canonical SMILES": "CCC1CCC(C)CC1",
        "Molecular Formula": "C<sub>9</sub>H<sub>18</sub>",
        "Molecular Mass": "126.24",
        "Boiling Point": "147 °C",
        "Density": "0.7884 g/cm³ @ Temp: 15 °C"
    }
}