{
    "cas_no": "38444-86-9",
    "key_name": "PCB 33",
    "cn_name": "2ˊ,3,4-三氯联苯;2ˊ,3,4-三氯联苯;",
    "alternate_name": "1,1′-Biphenyl, 2,3′,4′-trichloro-;Biphenyl, 2′,3,4-trichloro-;2,3′,4′-Trichloro-1,1′-biphenyl;3,4,2′-Trichlorobiphenyl;2,3′,4′-Trichlorobiphenyl;2′,3,4-Trichlorobiphenyl;PCB 33;2′,3,4-Trichloro-1,1′-biphenyl",
    "duplicated_cas_no": "",
    "SMILES": "ClC1=C(C=CC=C1)C2=CC(Cl)=C(Cl)C=C2",
    "meta_data": {
        "InChI": "InChI=1S/C12H7Cl3/c13-10-4-2-1-3-9(10)8-5-6-11(14)12(15)7-8/h1-7H",
        "InChIKey": null,
        "Canonical SMILES": "ClC=1C=CC(=CC1Cl)C=2C=CC=CC2Cl",
        "Molecular Formula": "C<sub>12</sub>H<sub>7</sub>Cl<sub>3</sub>",
        "Molecular Mass": "257.54",
        "Melting Point": "65-66 °C"
    }
}