{
    "cas_no": "1422-53-3",
    "key_name": "2-Bromo-4-fluorotoluene",
    "cn_name": "2-溴-4-氟甲苯;",
    "alternate_name": "Benzene, 2-bromo-4-fluoro-1-methyl-;Toluene, 2-bromo-4-fluoro-;2-Bromo-4-fluoro-1-methylbenzene;4-Fluoro-2-bromotoluene;2-Bromo-4-fluorotoluene;1-Bromo-2-methyl-5-fluorobenzene;1-Bromo-3-fluoro-6-methylbenzene",
    "duplicated_cas_no": "",
    "SMILES": "BrC1=C(C)C=CC(F)=C1",
    "meta_data": {
        "InChI": "InChI=1S/C7H6BrF/c1-5-2-3-6(9)4-7(5)8/h2-4H,1H3",
        "InChIKey": null,
        "Canonical SMILES": "FC1=CC=C(C(Br)=C1)C",
        "Molecular Formula": "C<sub>7</sub>H<sub>6</sub>BrF",
        "Molecular Mass": "189.02",
        "Boiling Point": "170-172 °C"
    }
}