{
    "cas_no": "21498-08-8",
    "key_name": "Lofexidine hydrochloride",
    "cn_name": null,
    "alternate_name": "1<em>H</em>-Imidazole, 2-[1-(2,6-dichlorophenoxy)ethyl]-4,5-dihydro-, hydrochloride (1:1);2-Imidazoline, 2-[1-(2,6-dichlorophenoxy)ethyl]-, monohydrochloride;1<em>H</em>-Imidazole, 2-[1-(2,6-dichlorophenoxy)ethyl]-4,5-dihydro-, monohydrochloride;Lofexidine hydrochloride;Britlofex;Loxacor;Lofetensin;MDL 14042;Baq 168;2-(1-(2,6-Dichlorophenoxy)ethyl)-4,5-dihydro-1<em>H</em>-imidazole hydrochloride",
    "duplicated_cas_no": "73372-54-0",
    "SMILES": "O(C(C)C=1NCCN1)C2=C(Cl)C=CC=C2Cl.Cl",
    "meta_data": {
        "InChI": "InChI=1S/C11H12Cl2N2O.ClH/c1-7(11-14-5-6-15-11)16-10-8(12)3-2-4-9(10)13;/h2-4,7H,5-6H2,1H3,(H,14,15);1H",
        "InChIKey": null,
        "Canonical SMILES": "Cl.ClC1=CC=CC(Cl)=C1OC(C2=NCCN2)C",
        "Molecular Formula": "C<sub>11</sub>H<sub>12</sub>Cl<sub>2</sub>N<sub>2</sub>O.ClH",
        "Molecular Mass": "",
        "Melting Point": "221-223 °C"
    }
}