{
    "cas_no": "5973-11-5",
    "key_name": "1-Bromo-2-methylbutane",
    "cn_name": null,
    "alternate_name": "Butane, 1-bromo-2-methyl-;Butane, 1-bromo-2-methyl-, <span class=\"text-smallcaps\">D</smallcap><smallcap>L</span>-;Butane, 1-bromo-2-methyl-, (±)-;1-Bromo-2-methylbutane;<em>dl</em>-1-Bromo-2-methylbutane;2-Methylbutyl bromide;1-Bromoisopentane;2-Methylbutan-1-yl bromide;(±)-2-Methylbutyl bromide",
    "duplicated_cas_no": "10422-35-2",
    "SMILES": "C(CBr)(CC)C",
    "meta_data": {
        "InChI": "InChI=1S/C5H11Br/c1-3-5(2)4-6/h5H,3-4H2,1-2H3",
        "InChIKey": null,
        "Canonical SMILES": "BrCC(C)CC",
        "Molecular Formula": "C<sub>5</sub>H<sub>11</sub>Br",
        "Molecular Mass": "151.04",
        "Boiling Point": "118-120 °C",
        "Density": "1.2234 g/cm³ @ Temp: 20 °C"
    }
}