{
    "cas_no": "57103-01-2",
    "key_name": "3,6-Dimethoxy-9<em>H</em>-carbazole",
    "cn_name": null,
    "alternate_name": "9<em>H</em>-Carbazole, 3,6-dimethoxy-;3,6-Dimethoxy-9<em>H</em>-carbazole;3,6-Dimethoxycarbazole;6-Dimethoxy-9<em>H</em>-carbazole",
    "duplicated_cas_no": "",
    "SMILES": "O(C)C=1C=C2C=3C(NC2=CC1)=CC=C(OC)C3",
    "meta_data": {
        "InChI": "InChI=1S/C14H13NO2/c1-16-9-3-5-13-11(7-9)12-8-10(17-2)4-6-14(12)15-13/h3-8,15H,1-2H3",
        "InChIKey": null,
        "Canonical SMILES": "O(C1=CC=C2NC=3C=CC(OC)=CC3C2=C1)C",
        "Molecular Formula": "C<sub>14</sub>H<sub>13</sub>NO<sub>2</sub>",
        "Molecular Mass": "227.26",
        "Melting Point": "131-133 °C"
    }
}