{
    "cas_no": "204512-95-8",
    "key_name": "3-Furanamine, tetrahydro-, hydrochloride (1:1), (3<em>S</em>)-",
    "cn_name": null,
    "alternate_name": "3-Furanamine, tetrahydro-, hydrochloride (1:1), (3<em>S</em>)-;3-Furanamine, tetrahydro-, hydrochloride, (<em>S</em>)-;3-Furanamine, tetrahydro-, hydrochloride, (3<em>S</em>)-;(<em>S</em>)-Tetrahydrofuran-3-ylamine hydrochloride;(<em>S</em>)-Tetrahydrofuran-3-amine hydrochloride;(3S)-Tetrahydrofuran-3-amine hydrochloride",
    "duplicated_cas_no": "",
    "SMILES": "N[C@H]1CCOC1.Cl",
    "meta_data": {
        "InChI": "InChI=1S/C4H9NO.ClH/c5-4-1-2-6-3-4;/h4H,1-3,5H2;1H/t4-;/m0./s1",
        "InChIKey": null,
        "Canonical SMILES": "Cl.O1CCC(N)C1",
        "Molecular Formula": "C<sub>4</sub>H<sub>9</sub>NO.ClH",
        "Molecular Mass": "",
        "Melting Point": "165-170 °C"
    }
}