{
    "cas_no": "19906-72-0",
    "key_name": "(+)-Bakkenolide A",
    "cn_name": null,
    "alternate_name": "Spiro[furan-3(2<em>H</em>),2′-[2<em>H</em>]inden]-2-one, decahydro-3′a,4′-dimethyl-4-methylene-, (2′<em>R</em>,3′a<em>R</em>,4′<em>S</em>,7′a<em>R</em>)-;Spiro[furan-3(2<em>H</em>),2′-indan]-2-one, 3′a,4,4′,5,5′,6′,7′,7′aβ-octahydro-3′aβ,4′β-dimethyl-4-methylene-, (2′<em>R</em>)-;Spiro[furan-3(2<em>H</em>),2′-[2<em>H</em>]inden]-2-one, decahydro-3′a,4′-dimethyl-4-methylene-, [2′<em>R</em>-(2′α,3′aα,4′α,7′aα)]-;(2′<em>R</em>,3′a<em>R</em>,4′<em>S</em>,7′a<em>R</em>)-Decahydro-3′a,4′-dimethyl-4-methylenespiro[furan-3(2<em>H</em>),2′-[2<em>H</em>]inden]-2-one;Bakkenolide A;Fukinanolide;Bakkenolid A;Fukinanolid;(+)-Bakkenolide A;NSC 292655",
    "duplicated_cas_no": "19903-64-1",
    "SMILES": "C=C1[C@@]2(C[C@@]3(C)[C@@](C2)(CCC[C@@H]3C)[H])C(=O)OC1",
    "meta_data": {
        "InChI": "InChI=1S/C15H22O2/c1-10-5-4-6-12-7-15(9-14(10,12)3)11(2)8-17-13(15)16/h10,12H,2,4-9H2,1,3H3/t10-,12+,14+,15+/m0/s1",
        "InChIKey": null,
        "Canonical SMILES": "O=C1OCC(=C)C12CC3CCCC(C)C3(C)C2",
        "Molecular Formula": "C<sub>15</sub>H<sub>22</sub>O<sub>2</sub>",
        "Molecular Mass": "234.33",
        "Melting Point": "80.5-80.6 °C"
    }
}