{
    "cas_no": "96992-71-1",
    "key_name": "Hydroxylamine, <em>O</em>-[(2<em>E</em>)-3-chloro-2-propen-1-yl]-, hydrochloride (1:1)",
    "cn_name": "反式-3-氯-2-丙烯基羟胺盐酸盐;",
    "alternate_name": "Hydroxylamine, <em>O</em>-[(2<em>E</em>)-3-chloro-2-propen-1-yl]-, hydrochloride (1:1);Hydroxylamine, <em>O</em>-(3-chloro-2-propenyl)-, hydrochloride, (<em>E</em>)-;Hydroxylamine, <em>O</em>-[(2<em>E</em>)-3-chloro-2-propenyl]-, hydrochloride;(<em>E</em>)-<em>O</em>-(3-Chloro-2-propenyl)hydroxylamine hydrochloride",
    "duplicated_cas_no": "",
    "SMILES": "C(\\CON)=C/Cl.Cl",
    "meta_data": {
        "InChI": "InChI=1S/C3H6ClNO.ClH/c4-2-1-3-6-5;/h1-2H,3,5H2;1H/b2-1+;",
        "InChIKey": null,
        "Canonical SMILES": "Cl.ClC=CCON",
        "Molecular Formula": "C<sub>3</sub>H<sub>6</sub>ClNO.ClH",
        "Molecular Mass": "",
        "Melting Point": "180 °C"
    }
}