{
    "cas_no": "103030-10-0",
    "key_name": "7-Methoxycarbonylisatin",
    "cn_name": null,
    "alternate_name": "1<em>H</em>-Indole-7-carboxylic acid, 2,3-dihydro-2,3-dioxo-, methyl ester;7-Indolinecarboxylic acid, 2,3-dioxo-, methyl ester;Methyl 7-isatincarboxylate;7-Methoxycarbonylisatin;2,3-Dioxo-2,3-dihydro-1<em>H</em>-indole-7-carboxylic acid methyl ester",
    "duplicated_cas_no": "",
    "SMILES": "C(OC)(=O)C1=C2C(C(=O)C(=O)N2)=CC=C1",
    "meta_data": {
        "InChI": "InChI=1S/C10H7NO4/c1-15-10(14)6-4-2-3-5-7(6)11-9(13)8(5)12/h2-4H,1H3,(H,11,12,13)",
        "InChIKey": null,
        "Canonical SMILES": "O=C(OC)C1=CC=CC=2C(=O)C(=O)NC12",
        "Molecular Formula": "C<sub>10</sub>H<sub>7</sub>NO<sub>4</sub>",
        "Molecular Mass": "205.17",
        "Melting Point": "280 °C"
    }
}