{
    "cas_no": "1225-13-4",
    "key_name": "<em>rel</em>-(2<em>R</em>,3<em>S</em>)-2,3-Diphenylbutanedioic acid",
    "cn_name": "meso-2,3-二苯基琥珀酸;",
    "alternate_name": "Butanedioic acid, 2,3-diphenyl-, (2<em>R</em>,3<em>S</em>)-<em>rel</em>-;Succinic acid, 2,3-diphenyl-, <em>meso</em>-;Butanedioic acid, 2,3-diphenyl-, (<em>R</em>*,<em>S</em>*)-;<em>rel</em>-(2<em>R</em>,3<em>S</em>)-2,3-Diphenylbutanedioic acid;<em>meso</em>-2,3-Diphenylsuccinic acid;NSC 75627",
    "duplicated_cas_no": "41915-65-5",
    "SMILES": "[C@H]([C@H](C(O)=O)C1=CC=CC=C1)(C(O)=O)C2=CC=CC=C2",
    "meta_data": {
        "InChI": "InChI=1/C16H14O4/c17-15(18)13(11-7-3-1-4-8-11)14(16(19)20)12-9-5-2-6-10-12/h1-10,13-14H,(H,17,18)(H,19,20)/t13-,14+",
        "InChIKey": null,
        "Canonical SMILES": "O=C(O)C(C=1C=CC=CC1)C(C(=O)O)C=2C=CC=CC2",
        "Molecular Formula": "C<sub>16</sub>H<sub>14</sub>O<sub>4</sub>",
        "Molecular Mass": "270.28",
        "Melting Point": "227-229 °C"
    }
}