{
    "cas_no": "60933-65-5",
    "key_name": "[<em>S</em>(<em>R</em>)]-<em>S</em>-Methyl-<em>S</em>-phenylsulfoximine",
    "cn_name": null,
    "alternate_name": "Sulfoximine, <em>S</em>-methyl-<em>S</em>-phenyl-, [<em>S</em>(<em>R</em>)]-;Sulfoximine, <em>S</em>-methyl-<em>S</em>-phenyl-, (<em>R</em>)-;[<em>S</em>(<em>R</em>)]-<em>S</em>-Methyl-<em>S</em>-phenylsulfoximine;(R)-<em>S</em>-Methyl-<em>S</em>-phenylsulfoximine;(R)-Imino(methyl)phenyl-λ6-sulfanone",
    "duplicated_cas_no": "",
    "SMILES": "S(C)(=N)(=O)C1=CC=CC=C1",
    "meta_data": {
        "InChI": "InChI=1S/C7H9NOS/c1-10(8,9)7-5-3-2-4-6-7/h2-6,8H,1H3/t10-/m1/s1",
        "InChIKey": null,
        "Canonical SMILES": "O=S(=N)(C=1C=CC=CC1)C",
        "Molecular Formula": "C<sub>7</sub>H<sub>9</sub>NOS",
        "Molecular Mass": "155.22",
        "Melting Point": "32-34 °C"
    }
}