{
    "cas_no": "1197-19-9",
    "key_name": "4-(Dimethylamino)benzonitrile",
    "cn_name": "对二甲氨基苯甲腈;",
    "alternate_name": "Benzonitrile, 4-(dimethylamino)-;Benzonitrile, <em>p</em>-(dimethylamino)-;4-(Dimethylamino)benzonitrile;4-(Dimethylamino)benzenecarbonitrile;<em>N</em>,<em>N</em>-Dimethyl-<em>p</em>-cyanoaniline;<em>p</em>-Cyano-<em>N</em>,<em>N</em>-dimethylaniline;<em>p</em>-(Dimethylamino)benzonitrile;1-(Dimethylamino)-4-cyanobenzene;<em>N</em>,<em>N</em>-Dimethyl-4-cyanoaniline;4-Cyano-<em>N</em>,<em>N</em>-dimethylaniline;DMABN;1-Cyano-4-(dimethylamino)benzene;4-(Dimethylamino)benzenenitrile;NSC 409122;4-Dimethylaminophenylnitrile",
    "duplicated_cas_no": "",
    "SMILES": "N(C)(C)C1=CC=C(C#N)C=C1",
    "meta_data": {
        "InChI": "InChI=1S/C9H10N2/c1-11(2)9-5-3-8(7-10)4-6-9/h3-6H,1-2H3",
        "InChIKey": null,
        "Canonical SMILES": "N#CC1=CC=C(C=C1)N(C)C",
        "Molecular Formula": "C<sub>9</sub>H<sub>10</sub>N<sub>2</sub>",
        "Molecular Mass": "146.19",
        "Boiling Point": "318 °C",
        "Melting Point": "74 °C",
        "Density": "1.139 g/cm³"
    }
}