{
    "cas_no": "16064-08-7",
    "key_name": "6-Iodo-4(3<em>H</em>)-quinazolinone",
    "cn_name": "6-碘喹唑啉-4-酮;",
    "alternate_name": "4(3<em>H</em>)-Quinazolinone, 6-iodo-;4(1<em>H</em>)-Quinazolinone, 6-iodo-;4-Quinazolinol, 6-iodo-;6-Iodo-4(3<em>H</em>)-quinazolinone;6-Iodo-4-quinazolone;6-Iodo-3,4-dihydroquinazolin-4-one;6-Iodo-3<em>H</em>-quinazolin-4-one;6-Iodoquinazolin-4-ol;6-Iodoquinazolin-4-one;6-Iodo-1<em>H</em>-quinazolin-4-one",
    "duplicated_cas_no": "",
    "SMILES": "O=C1C=2C(=CC=C(I)C2)NC=N1",
    "meta_data": {
        "InChI": "InChI=1S/C8H5IN2O/c9-5-1-2-7-6(3-5)8(12)11-4-10-7/h1-4H,(H,10,11,12)",
        "InChIKey": null,
        "Canonical SMILES": "O=C1N=CNC2=CC=C(I)C=C12",
        "Molecular Formula": "C<sub>8</sub>H<sub>5</sub>IN<sub>2</sub>O",
        "Molecular Mass": "272.04",
        "Melting Point": "270-272 °C"
    }
}