{
    "cas_no": "3840-18-4",
    "key_name": "2-(<em>o</em>-Tolyloxy)aniline",
    "cn_name": "2-甲基-2\"-氨基二苯醚;",
    "alternate_name": "Benzenamine, 2-(2-methylphenoxy)-;Aniline, <em>o</em>-(<em>o</em>-tolyloxy)-;2-(2-Methylphenoxy)benzenamine;<em>o</em>-(<em>o</em>-Tolyloxy)aniline;2-Amino-2′-methyldiphenyl ether;2-(<em>o</em>-Tolyloxy)aniline;NSC 163942;2-(<em>o</em>-Tolyloxy)benzenamine;2-(2-Methylphenoxy)aniline",
    "duplicated_cas_no": "",
    "SMILES": "O(C1=C(C)C=CC=C1)C2=C(N)C=CC=C2",
    "meta_data": {
        "InChI": "InChI=1S/C13H13NO/c1-10-6-2-4-8-12(10)15-13-9-5-3-7-11(13)14/h2-9H,14H2,1H3",
        "InChIKey": null,
        "Canonical SMILES": "O(C=1C=CC=CC1N)C=2C=CC=CC2C",
        "Molecular Formula": "C<sub>13</sub>H<sub>13</sub>NO",
        "Molecular Mass": "199.25",
        "Boiling Point": "110 °C @ Press: 0.015 Torr"
    }
}