{
    "cas_no": "1570-95-2",
    "key_name": "2-Phenyl-1,3-propanediol",
    "cn_name": "2-苯基-1,3-丙二醇;",
    "alternate_name": "1,3-Propanediol, 2-phenyl-;2-Phenyl-1,3-propanediol;NSC 78023;1,3-Hydroxy-2-phenylpropane;2-Phenyl-1,3-propandiol",
    "duplicated_cas_no": "135871-41-9",
    "SMILES": "C(CO)(CO)C1=CC=CC=C1",
    "meta_data": {
        "InChI": "InChI=1S/C9H12O2/c10-6-9(7-11)8-4-2-1-3-5-8/h1-5,9-11H,6-7H2",
        "InChIKey": null,
        "Canonical SMILES": "OCC(C=1C=CC=CC1)CO",
        "Molecular Formula": "C<sub>9</sub>H<sub>12</sub>O<sub>2</sub>",
        "Molecular Mass": "152.19",
        "Boiling Point": "176 °C @ Press: 13 Torr",
        "Melting Point": "51.5-52.0 °C",
        "Density": "1.1161 g/cm³ @ Temp: 19 °C"
    }
}