{
    "cas_no": "603139-19-1",
    "key_name": "Odanacatib",
    "cn_name": null,
    "alternate_name": "Pentanamide, <em>N</em>-(1-cyanocyclopropyl)-4-fluoro-4-methyl-2-[[(1<em>S</em>)-2,2,2-trifluoro-1-[4′-(methylsulfonyl)[1,1′-biphenyl]-4-yl]ethyl]amino]-, (2<em>S</em>)-;(2<em>S</em>)-<em>N</em>-(1-Cyanocyclopropyl)-4-fluoro-4-methyl-2-[[(1<em>S</em>)-2,2,2-trifluoro-1-[4′-(methylsulfonyl)[1,1′-biphenyl]-4-yl]ethyl]amino]pentanamide;Odanacatib;<em>N</em><sup>1</sup>-[(1-Cyanocyclopropyl)-4-fluoro-<em>N</em><sup>2</sup>-[(1<em>S</em>)-2,2,2-trifluoro-1-[4-methylsulfonyl]-1,1′-biphenyl-4-yl] ethyl]-<span class=\"text-smallcaps\">L</span>-leucinamide;MK 0822",
    "duplicated_cas_no": "",
    "SMILES": "N(C([C@@H](N[C@H]([C@](F)(F)F)C1=CC=C(C=C1)C2=CC=C(S(C)(=O)=O)C=C2)CC(C)(C)F)=O)C3(C#N)CC3",
    "meta_data": {
        "InChI": "InChI=1S/C25H27F4N3O3S/c1-23(2,26)14-20(22(33)32-24(15-30)12-13-24)31-21(25(27,28)29)18-6-4-16(5-7-18)17-8-10-19(11-9-17)36(3,34)35/h4-11,20-21,31H,12-14H2,1-3H3,(H,32,33)/t20-,21-/m0/s1",
        "InChIKey": null,
        "Canonical SMILES": "N#CC1(NC(=O)C(NC(C2=CC=C(C=C2)C=3C=CC(=CC3)S(=O)(=O)C)C(F)(F)F)CC(F)(C)C)CC1",
        "Molecular Formula": "C<sub>25</sub>H<sub>27</sub>F<sub>4</sub>N<sub>3</sub>O<sub>3</sub>S",
        "Molecular Mass": "525.56",
        "Melting Point": "223-224 °C"
    }
}