{
    "cas_no": "16504-57-7",
    "key_name": "(3<em>S</em>)-3-Amino-4-hydroxybutanoic acid",
    "cn_name": null,
    "alternate_name": "Butanoic acid, 3-amino-4-hydroxy-, (3<em>S</em>)-;Butyric acid, 3-amino-4-hydroxy-, (-)-;Butanoic acid, 3-amino-4-hydroxy-, (<em>S</em>)-;(3<em>S</em>)-3-Amino-4-hydroxybutanoic acid;(-)-4-Hydroxy-3-aminobutyric acid;(<em>S</em>)-3-Amino-4-hydroxybutanoic acid",
    "duplicated_cas_no": "",
    "SMILES": "[C@H](CC(O)=O)(CO)N",
    "meta_data": {
        "InChI": "InChI=1S/C4H9NO3/c5-3(2-6)1-4(7)8/h3,6H,1-2,5H2,(H,7,8)/t3-/m0/s1",
        "InChIKey": null,
        "Canonical SMILES": "O=C(O)CC(N)CO",
        "Molecular Formula": "C<sub>4</sub>H<sub>9</sub>NO<sub>3</sub>",
        "Molecular Mass": "119.12",
        "Melting Point": "223-225 °C"
    }
}