{
    "cas_no": "39959-72-3",
    "key_name": "Benzenemethanamine, α-cyclopropyl-, hydrochloride (1:1)",
    "cn_name": null,
    "alternate_name": "Benzenemethanamine, α-cyclopropyl-, hydrochloride (1:1);Benzenemethanamine, α-cyclopropyl-, hydrochloride;Benzylamine, α-cyclopropyl-, hydrochloride;[Cyclopropyl(phenyl)methyl]amine hydrochloride;1-Cyclopropyl-1-phenylmethanamine hydrochloride",
    "duplicated_cas_no": "",
    "SMILES": "C(N)(C1CC1)C2=CC=CC=C2.Cl",
    "meta_data": {
        "InChI": "InChI=1S/C10H13N.ClH/c11-10(9-6-7-9)8-4-2-1-3-5-8;/h1-5,9-10H,6-7,11H2;1H",
        "InChIKey": null,
        "Canonical SMILES": "Cl.NC(C=1C=CC=CC1)C2CC2",
        "Molecular Formula": "C<sub>10</sub>H<sub>13</sub>N.ClH",
        "Molecular Mass": "",
        "Melting Point": "235-236 °C"
    }
}