{
    "cas_no": "7051-16-3",
    "key_name": "1-Chloro-3,5-dimethoxybenzene",
    "cn_name": "1-氯-3,5-二甲氧基苯;5-氯间苯二甲醚;3,5-二甲氧基氯苯;",
    "alternate_name": "Benzene, 1-chloro-3,5-dimethoxy-;1-Chloro-3,5-dimethoxybenzene;5-Chloro-1,3-dimethoxybenzene;3,5-Dimethoxychlorobenzene;5-Chlororesorcinol dimethyl ether;1,3-Dimethoxy-5-chlorobenzene;NSC 220095",
    "duplicated_cas_no": "",
    "SMILES": "O(C)C1=CC(OC)=CC(Cl)=C1",
    "meta_data": {
        "InChI": "InChI=1S/C8H9ClO2/c1-10-7-3-6(9)4-8(5-7)11-2/h3-5H,1-2H3",
        "InChIKey": null,
        "Canonical SMILES": "ClC=1C=C(OC)C=C(OC)C1",
        "Molecular Formula": "C<sub>8</sub>H<sub>9</sub>ClO<sub>2</sub>",
        "Molecular Mass": "172.61",
        "Boiling Point": "113 °C @ Press: 5-6 Torr",
        "Melting Point": "38 °C"
    }
}