{
    "cas_no": "3943-89-3",
    "key_name": "Ethyl 3,4-dihydroxybenzoate",
    "cn_name": "3,4-二羟基苯甲酸乙酯;",
    "alternate_name": "Benzoic acid, 3,4-dihydroxy-, ethyl ester;Protocatechuic acid, ethyl ester;Ethyl protocatechuate;3,4-Dihydroxybenzoic acid ethyl ester;Ethyl 3,4-dihydroxybenzoate;NSC 619681;NSC 86130",
    "duplicated_cas_no": "",
    "SMILES": "C(OCC)(=O)C1=CC(O)=C(O)C=C1",
    "meta_data": {
        "InChI": "InChI=1S/C9H10O4/c1-2-13-9(12)6-3-4-7(10)8(11)5-6/h3-5,10-11H,2H2,1H3",
        "InChIKey": null,
        "Canonical SMILES": "O=C(OCC)C1=CC=C(O)C(O)=C1",
        "Molecular Formula": "C<sub>9</sub>H<sub>10</sub>O<sub>4</sub>",
        "Molecular Mass": "182.17",
        "Melting Point": "129-130 °C"
    }
}