{
    "cas_no": "2096-10-8",
    "key_name": "2-Aminoadenosine",
    "cn_name": "2-氨基腺嘌呤核苷;2-氨基腺苷;",
    "alternate_name": "Adenosine, 2-amino-;9<em>H</em>-Purine, 2,6-diamino-9-β-<span class=\"text-smallcaps\">D</span>-ribofuranosyl-;2-Aminoadenosine;2,6-Diaminopurine riboside;9-β-Ribosyl-2,6-diaminopurine;2,6-Diaminopurine ribonucleoside;9<em>H</em>-Purine-2,6-diamine, 9-β-<span class=\"text-smallcaps\">D</span>-ribofuranosyl-;2,6-Diaminonebularine;2,6-Diaminopurinosine;2,6-Diamino-9-β-<span class=\"text-smallcaps\">D</span>-ribofuranosylpurine;NSC 7363;18: PN: US7015315 PAGE: 27 claimed sequence;2-(2,6-Diaminopurin-9-yl)-5-(hydroxymethyl)oxolane-3,4-diol;5-(2,6-Diaminopurin-9-yl)-2-(hydroxymethyl)oxolane-3,4-diol",
    "duplicated_cas_no": "4198-55-4;99801-78-2;1116680-64-8",
    "SMILES": "NC1=C2C(N(C=N2)[C@@H]3O[C@H](CO)[C@@H](O)[C@H]3O)=NC(N)=N1",
    "meta_data": {
        "InChI": "InChI=1S/C10H14N6O4/c11-7-4-8(15-10(12)14-7)16(2-13-4)9-6(19)5(18)3(1-17)20-9/h2-3,5-6,9,17-19H,1H2,(H4,11,12,14,15)/t3-,5-,6-,9-/m1/s1",
        "InChIKey": null,
        "Canonical SMILES": "OCC1OC(N2C=NC=3C(=NC(=NC32)N)N)C(O)C1O",
        "Molecular Formula": "C<sub>10</sub>H<sub>14</sub>N<sub>6</sub>O<sub>4</sub>",
        "Molecular Mass": "282.26",
        "Melting Point": "248 °C"
    }
}