{
    "cas_no": "16642-79-8",
    "key_name": "3-(4-Nitrophenyl)propionic acid",
    "cn_name": "3-(4-硝基苯基)丙酸;",
    "alternate_name": "Benzenepropanoic acid, 4-nitro-;Hydrocinnamic acid, <em>p</em>-nitro-;4-Nitrobenzenepropanoic acid;4-Nitrohydrocinnamic acid;<em>p</em>-Nitrohydrocinnamic acid;β-(4-Nitrophenyl)propionic acid;3-(<em>p</em>-Nitrophenyl)propionic acid;3-(4-Nitrophenyl)propanoic acid;3-(4-Nitrophenyl)propionic acid;NSC 99345;3-(<em>p</em>-Nitrophenyl)propionoic acid",
    "duplicated_cas_no": "",
    "SMILES": "N(=O)(=O)C1=CC=C(CCC(O)=O)C=C1",
    "meta_data": {
        "InChI": "InChI=1S/C9H9NO4/c11-9(12)6-3-7-1-4-8(5-2-7)10(13)14/h1-2,4-5H,3,6H2,(H,11,12)",
        "InChIKey": null,
        "Canonical SMILES": "O=C(O)CCC1=CC=C(C=C1)N(=O)=O",
        "Molecular Formula": "C<sub>9</sub>H<sub>9</sub>NO<sub>4</sub>",
        "Molecular Mass": "195.17",
        "Melting Point": "163-164 °C"
    }
}