{
    "cas_no": "13811-71-7",
    "key_name": "(-)-Diethyl tartrate",
    "cn_name": "D-(-)-酒石酸二乙酯;",
    "alternate_name": "Butanedioic acid, 2,3-dihydroxy-, 1,4-diethyl ester, (2<em>S</em>,3<em>S</em>)-;Butanedioic acid, 2,3-dihydroxy-, diethyl ester, [<em>S</em>-(<em>R</em>*,<em>R</em>*)]-;Tartaric acid, diethyl ester, (-)-;<span class=\"text-smallcaps\">D</span>-Tartaric acid diethyl ester;(-)-Diethyl tartrate;Diethyl <span class=\"text-smallcaps\">D</span>-tartrate;Diethyl (2<em>S</em>,3<em>S</em>)-(-)-tartrate;Diethyl <span class=\"text-smallcaps\">D</span>-(-)-tartrate;Diethyl (<em>S</em>,<em>S</em>)-(-)-tartrate;<span class=\"text-smallcaps\">D</span>-(-)-Diethyl tartrate;(<em>S</em>,<em>S</em>)-Diethyl tartrate;Diethyl (-)-<span class=\"text-smallcaps\">D</span>-tartrate;(2<em>S</em>,3<em>S</em>)-Diethyl tartrate;<span class=\"text-smallcaps\">D</span>-Diethyl tartarate;<span class=\"text-smallcaps\">D</span>-Ethyl tartrate;(-)-Diethyl D-tartarate;D-(-)DET;<span class=\"text-smallcaps\">D</span>-(-)-Tartaric acid diethyl ester",
    "duplicated_cas_no": "",
    "SMILES": "[C@H]([C@@H](C(OCC)=O)O)(C(OCC)=O)O",
    "meta_data": {
        "InChI": "InChI=1S/C8H14O6/c1-3-13-7(11)5(9)6(10)8(12)14-4-2/h5-6,9-10H,3-4H2,1-2H3/t5-,6-/m0/s1",
        "InChIKey": null,
        "Canonical SMILES": "O=C(OCC)C(O)C(O)C(=O)OCC",
        "Molecular Formula": "C<sub>8</sub>H<sub>14</sub>O<sub>6</sub>",
        "Molecular Mass": "206.19",
        "Boiling Point": "126-127 °C @ Press: 2 Torr"
    }
}