{
    "cas_no": "6742-54-7",
    "key_name": "Undecylbenzene",
    "cn_name": "正十一烷基苯;",
    "alternate_name": "Benzene, undecyl-;Undecane, 1-phenyl-;Undecylbenzene;<em>n</em>-Undecylbenzene;1-Phenylundecane;NSC 251008",
    "duplicated_cas_no": "",
    "SMILES": "C(CCCCCCCCCC)C1=CC=CC=C1",
    "meta_data": {
        "InChI": "InChI=1S/C17H28/c1-2-3-4-5-6-7-8-9-11-14-17-15-12-10-13-16-17/h10,12-13,15-16H,2-9,11,14H2,1H3",
        "InChIKey": null,
        "Canonical SMILES": "C=1C=CC(=CC1)CCCCCCCCCCC",
        "Molecular Formula": "C<sub>17</sub>H<sub>28</sub>",
        "Molecular Mass": "232.40",
        "Boiling Point": "316 °C",
        "Melting Point": "-5 °C",
        "Density": "0.8553 g/cm³ @ Temp: 20 °C"
    }
}