{
    "cas_no": "2497-21-4",
    "key_name": "4-Hexen-3-one",
    "cn_name": "4-己烯-3-酮;",
    "alternate_name": "4-Hexen-3-one;2-Hexen-4-one;Ethyl 1-propenyl ketone;NSC 245483",
    "duplicated_cas_no": "",
    "SMILES": "C(C=CC)(CC)=O",
    "meta_data": {
        "InChI": "InChI=1S/C6H10O/c1-3-5-6(7)4-2/h3,5H,4H2,1-2H3",
        "InChIKey": null,
        "Canonical SMILES": "O=C(C=CC)CC",
        "Molecular Formula": "C<sub>6</sub>H<sub>10</sub>O",
        "Molecular Mass": "98.14",
        "Boiling Point": "138.5 °C",
        "Density": "0.8838 g/cm³ @ Temp: 14 °C"
    }
}