{
    "cas_no": "12279-09-3",
    "key_name": "Di-μ-chlorotetrakis[(1,2-η)-cyclooctene]dirhodium",
    "cn_name": null,
    "alternate_name": "Rhodium, di-μ-chlorotetrakis[(1,2-η)-cyclooctene]di-;Rhodium, di-μ-chlorotetrakis(cyclooctene)di-;Cyclooctene, rhodium complex;Di-μ-chlorotetrakis[(1,2-η)-cyclooctene]dirhodium;Di-μ-Chlorotetrakis(cyclooctene)dirhodium;Chlorobis(cyclooctene)rhodium(I) dimer;Chlorobis(cyclooctene)rhodium dimer;Bis(chlorobis(cyclooctene)rhodium);Bis((μ-chloro)bis(cyclooctene)rhodium);Bis(μ-chloro)tetracyclooctenedirhodium;Bis((μ-chloro)bis(η<sup>2</sup>-cyclooctene)rhodium);Di-μ-chlorotetrakis(η<sup>2</sup>-cyclooctene)dirhodium(I);[RhCl(coe)<sub>2</sub>]<sub>2</sub>;[Rh(coe)<sub>2</sub>Cl]<sub>2</sub>",
    "duplicated_cas_no": "12112-71-9;32799-26-1;41619-49-2",
    "SMILES": "[Rh+]123([Cl-][Rh+]45([Cl-]1)([CH]6=[CH]4CCCCCC6)[CH]7=[CH]5CCCCCC7)([CH]8=[CH]2CCCCCC8)[CH]9=[CH]3CCCCCC9",
    "meta_data": {
        "InChI": "InChI=1S/4C8H14.2ClH.2Rh/c4*1-2-4-6-8-7-5-3-1;;;;/h4*1-2H,3-8H2;2*1H;;/q;;;;;;2*+1/p-2",
        "InChIKey": null,
        "Canonical SMILES": "[Cl-]1[Rh+]23([Cl-][Rh+]145([CH]=6CCCCCC[CH]64)[CH]=7CCCCCC[CH]75)([CH]=8CCCCCC[CH]82)[CH]=9CCCCCC[CH]93",
        "Molecular Formula": "C<sub>32</sub>H<sub>56</sub>Cl<sub>2</sub>Rh<sub>2</sub>",
        "Molecular Mass": "",
        "Melting Point": "140 °C (decomp)"
    }
}