{
    "cas_no": "1050-28-8",
    "key_name": "<span class=\"text-smallcaps\">L</smallcap>-Tyrosyl-<smallcap>L</span>-tyrosine",
    "cn_name": null,
    "alternate_name": "<span class=\"text-smallcaps\">L</smallcap>-Tyrosine, <smallcap>L</span>-tyrosyl-;Tyrosine, <em>N</em>-<span class=\"text-smallcaps\">L</smallcap>-tyrosyl-, <smallcap>L</span>-;<span class=\"text-smallcaps\">L</smallcap>-Tyrosine, <em>N</em>-<smallcap>L</span>-tyrosyl-;Tyrosine, <em>N</em>-tyrosyl-;<span class=\"text-smallcaps\">L</smallcap>-Tyrosyl-<smallcap>L</span>-tyrosine;<em>N</em>-Tyrosyltyrosine;Di-<span class=\"text-smallcaps\">L</span>-tyrosine;115: PN: WO2005000193 SEQID: 115 claimed protein;115: PN: US20050020809 SEQID: 115 claimed protein;432: PN: WO2005081628 SEQID: 434 claimed protein;9: PN: JP2007217358 SEQID: 9 claimed protein;6: PN: WO2009095265 SEQID: 6 claimed protein;6: PN: EP2085120 SEQID: 6 claimed protein;59: PN: EP2161028 PAGE: 10 claimed protein;12: PN: WO2013055051 PAGE: 29 claimed sequence;1: PN: WO2013189606 SEQID: 6 claimed sequence;12: PN: KR20140124582 PAGE: 4 claimed sequence;55: PN: US20130338076 SEQID: 115 claimed sequence;3: PN: US20150203546 PAGE: 78 claimed sequence;1: PN: CN108794571 SEQID: 1 claimed sequence;324: PN: WO2023161197 SEQID: 326 claimed sequence;7: PN: WO2024041532 SEQID: 107 claimed sequence;3: PN: WO2024075124 PAGE: 64 claimed sequence",
    "duplicated_cas_no": "2638-77-9",
    "SMILES": "C([C@H](NC([C@H](CC1=CC=C(O)C=C1)N)=O)C(O)=O)C2=CC=C(O)C=C2",
    "meta_data": {
        "InChI": "InChI=1S/C18H20N2O5/c19-15(9-11-1-5-13(21)6-2-11)17(23)20-16(18(24)25)10-12-3-7-14(22)8-4-12/h1-8,15-16,21-22H,9-10,19H2,(H,20,23)(H,24,25)/t15-,16-/m0/s1",
        "InChIKey": null,
        "Canonical SMILES": "O=C(O)C(NC(=O)C(N)CC1=CC=C(O)C=C1)CC2=CC=C(O)C=C2",
        "Molecular Formula": "C<sub>18</sub>H<sub>20</sub>N<sub>2</sub>O<sub>5</sub>",
        "Molecular Mass": "344.36",
        "Melting Point": "300 °C (decomp)"
    }
}