{
    "cas_no": "6485-55-8",
    "key_name": "<em>cis</em>-2,6-Dimethylmorpholine",
    "cn_name": "顺式-2,6-二甲基吗啉;",
    "alternate_name": "Morpholine, 2,6-dimethyl-, (2<em>R</em>,6<em>S</em>)-<em>rel</em>-;Morpholine, 2,6-dimethyl-, <em>cis</em>-;<em>rel</em>-(2<em>R</em>,6<em>S</em>)-2,6-Dimethylmorpholine;<em>cis</em>-2,6-Dimethylmorpholine;(2<em>R</em>,6<em>S</em>)-2,6-Dimethylmorpholine;<em>cis</em>-(2<em>R</em>,6<em>S</em>)-2,6-Dimethylmorpholine;2,6-<em>cis</em>-Dimethylmorpholine;(2S*,6R*)-2,6-Dimethylmorpholine;<em>rel</em>-(2<em>S</em>,6<em>R</em>)-2,6-Dimethylmorpholine;<em>cis</em>-2,6-Dimethylmorpholin;2,6-cis-Dimethylmorpholine",
    "duplicated_cas_no": "376640-15-2;861250-82-0;1005519-19-6;1042979-21-4;1064699-60-0;1109791-15-2;1231994-55-0;1246034-87-6;1258286-57-5;1448675-43-1;1453499-94-9;1567915-80-3;1605398-27-3;1632473-41-6;1670260-00-0;1802527-48-5;1927858-92-1;2098200-15-6;2248763-77-9;2445991-67-1;2564788-00-5;2719706-28-0;2762312-13-8;2773424-97-6;2896197-91-2;2918777-46-3;2969126-42-7;2983172-99-0",
    "SMILES": "C[C@H]1O[C@@H](C)CNC1",
    "meta_data": {
        "InChI": "InChI=1/C6H13NO/c1-5-3-7-4-6(2)8-5/h5-7H,3-4H2,1-2H3/t5-,6+",
        "InChIKey": null,
        "Canonical SMILES": "O1C(C)CNCC1C",
        "Molecular Formula": "C<sub>6</sub>H<sub>13</sub>NO",
        "Molecular Mass": "115.17",
        "Boiling Point": "142 °C"
    }
}