{
    "cas_no": "58421-80-0",
    "key_name": "4-Chloro-8-methylquinazoline",
    "cn_name": null,
    "alternate_name": "Quinazoline, 4-chloro-8-methyl-;4-Chloro-8-methylquinazoline",
    "duplicated_cas_no": "",
    "SMILES": "ClC=1C2=C(C(C)=CC=C2)N=CN1",
    "meta_data": {
        "InChI": "InChI=1S/C9H7ClN2/c1-6-3-2-4-7-8(6)11-5-12-9(7)10/h2-5H,1H3",
        "InChIKey": null,
        "Canonical SMILES": "ClC1=NC=NC2=C1C=CC=C2C",
        "Molecular Formula": "C<sub>9</sub>H<sub>7</sub>ClN<sub>2</sub>",
        "Molecular Mass": "178.62",
        "Melting Point": "129-130 °C"
    }
}