{
    "cas_no": "7681-57-4",
    "key_name": "Sodium pyrosulfite",
    "cn_name": "焦亚硫酸钠;",
    "alternate_name": "Disulfurous acid, sodium salt (1:2);Pyrosulfurous acid, disodium salt;Disulfurous acid, disodium salt;Sodium pyrosulfite (Na<sub>2</sub>S<sub>2</sub>O<sub>5</sub>);Sodium pyrosulfite;Sodium metabisulfite;Sodium metabisulfite (Na<sub>2</sub>S<sub>2</sub>O<sub>5</sub>);Disodium pyrosulfite;Fertisilo;Disodium disulfite;Sodium disulfite (Na<sub>2</sub>S<sub>2</sub>O<sub>5</sub>);Disodium metabisulfite;Disodium pyrosulfite (Na<sub>2</sub>S<sub>2</sub>O<sub>5</sub>);Campden Tablets;Colorstrip Catalyst 100;E 223;Sobis;Sobisu;Sodium sulfur oxide (Na<sub>2</sub>S<sub>2</sub>O<sub>5</sub>);NSC 158277;NSC 227243;Covastyle MBS",
    "duplicated_cas_no": "15771-29-6;1287784-10-4;2242622-57-5",
    "SMILES": "S(S(=O)O)(=O)(=O)O.[Na]",
    "meta_data": {
        "InChI": "InChI=1S/2Na.H2O5S2/c;;1-6(2)7(3,4)5/h;;(H,1,2)(H,3,4,5)",
        "InChIKey": null,
        "Canonical SMILES": "[Na].O=S(O)S(=O)(=O)O",
        "Molecular Formula": "H<sub>2</sub>O<sub>5</sub>S<sub>2</sub>.2Na",
        "Molecular Mass": "",
        "Melting Point": "150 °C (decomp)",
        "Density": "1.4 g/cm³"
    }
}