{
    "cas_no": "137-66-6",
    "key_name": "Ascorbyl palmitate",
    "cn_name": "L-抗坏血酸棕榈酸酯;",
    "alternate_name": "<span class=\"text-smallcaps\">L</span>-Ascorbic acid, 6-hexadecanoate;<span class=\"text-smallcaps\">L</span>-Ascorbic acid, 6-palmitate;Palmitic acid, 6-ester with ascorbic acid;Palmitoyl <span class=\"text-smallcaps\">L</span>-ascorbic acid;Ascorbyl palmitate;Ascorbylpalmitic acid;<span class=\"text-smallcaps\">L</span>-Ascorbyl palmitate;Ascorbyl monopalmitate;6-Monopalmitoyl-<span class=\"text-smallcaps\">L</span>-ascorbate;Ascorbic palmitate;6-<em>O</em>-Palmitoylascorbic acid;6-Palmitoylascorbic acid;Ascorbic acid palmitate;Cetyl ascorbate;Ondascora;Quicifal;<span class=\"text-smallcaps\">L</span>-Ascorbyl 6-palmitate;6-Hexadecanoyl-<span class=\"text-smallcaps\">L</span>-ascorbic acid;<span class=\"text-smallcaps\">L</span>-Ascorbyl monopalmitate;Ascorbyl 6-palmitate;Ascorboyl palmitate;Ascorbic acid 6-palmitate;6-Palmitate-<span class=\"text-smallcaps\">L</span>-ascorbic acid;6-<em>O</em>-Palmitoyl-<span class=\"text-smallcaps\">L</span>-<em>a</em>scorbic acid;6-<em>O</em>-Palmitoyl-<span class=\"text-smallcaps\">L</span>-ascorbic acid;NSC 402451;VCP 10;E 304;Vcpal;Grindox 562;AP;Coa-ASC 16",
    "duplicated_cas_no": "57233-83-7;120398-58-5;162872-43-7;924964-24-9;948551-42-6;1184913-60-7;2095286-71-6",
    "SMILES": "[C@@H](COC(CCCCCCCCCCCCCCC)=O)(O)[C@]1(OC(=O)C(O)=C1O)[H]",
    "meta_data": {
        "InChI": "InChI=1S/C22H38O7/c1-2-3-4-5-6-7-8-9-10-11-12-13-14-15-18(24)28-16-17(23)21-19(25)20(26)22(27)29-21/h17,21,23,25-26H,2-16H2,1H3/t17-,21+/m0/s1",
        "InChIKey": null,
        "Canonical SMILES": "O=C1OC(C(O)=C1O)C(O)COC(=O)CCCCCCCCCCCCCCC",
        "Molecular Formula": "C<sub>22</sub>H<sub>38</sub>O<sub>7</sub>",
        "Molecular Mass": "414.53",
        "Melting Point": "116 °C"
    }
}