{
    "cas_no": "5841-63-4",
    "key_name": "5-Phenyloxazolidinedione",
    "cn_name": null,
    "alternate_name": "2,4-Oxazolidinedione, 5-phenyl-;5-Phenyl-2,4-oxazolidinedione;5-Phenyloxazolidinedione;2-Oxo-5-phenyl-4-oxazolidinone;5-Phenyl-2,4-dioxooxazolidine;NSC 27303",
    "duplicated_cas_no": "78368-07-7",
    "SMILES": "O=C1C(OC(=O)N1)C2=CC=CC=C2",
    "meta_data": {
        "InChI": "InChI=1S/C9H7NO3/c11-8-7(13-9(12)10-8)6-4-2-1-3-5-6/h1-5,7H,(H,10,11,12)",
        "InChIKey": null,
        "Canonical SMILES": "O=C1OC(C(=O)N1)C=2C=CC=CC2",
        "Molecular Formula": "C<sub>9</sub>H<sub>7</sub>NO<sub>3</sub>",
        "Molecular Mass": "177.16",
        "Melting Point": "108 °C"
    }
}