{
    "cas_no": "110-21-4",
    "key_name": "Diurea",
    "cn_name": "联二脲;1,2-肼二甲酰胺;联二脲;亚肼基二甲酰胺;N,N\"-二氨基甲酰肼;",
    "alternate_name": "1,2-Hydrazinedicarboxamide;Biurea;1,1′-Hydrazobis(formamide);Bicarbamamide;Hydrazodicarboxamide;Hydrazodicarbonamide;Hydrazine, 1,2-bis(aminocarbonyl)-;Bicarbamimidic acid;Ureidourea;Hydrazocarbonamide;Hydrazinedicarboxylic acid diamide;Hydrazine-<em>N</em>,<em>N</em>′-bis(carboxamide);Hydradicarbonamide;<em>N</em>,<em>N</em>′-Biscarbamoylhydrazine;Hydrazodicarbamide;Cellmic 142;HDCA;S 3176;KBH 30;LDA;LDA (fire retardant);NSC 1897;Diurea;FE 823;(Carbamoylamino)urea",
    "duplicated_cas_no": "77107-48-3",
    "SMILES": "N(NC(N)=O)C(N)=O",
    "meta_data": {
        "InChI": "InChI=1S/C2H6N4O2/c3-1(7)5-6-2(4)8/h(H3,3,5,7)(H3,4,6,8)",
        "InChIKey": null,
        "Canonical SMILES": "O=C(N)NNC(=O)N",
        "Molecular Formula": "C<sub>2</sub>H<sub>6</sub>N<sub>4</sub>O<sub>2</sub>",
        "Molecular Mass": "118.09",
        "Melting Point": "258 °C",
        "Density": "1.604 g/cm³ @ Temp: -5 °C"
    }
}