{
    "cas_no": "609-23-4",
    "key_name": "2,4,6-Triiodophenol",
    "cn_name": "2,4,6-三碘苯酚;",
    "alternate_name": "Phenol, 2,4,6-triiodo-;2,4,6-Triiodophenol;NSC 2594;AM 24;Bobel 24",
    "duplicated_cas_no": "",
    "SMILES": "OC1=C(I)C=C(I)C=C1I",
    "meta_data": {
        "InChI": "InChI=1S/C6H3I3O/c7-3-1-4(8)6(10)5(9)2-3/h1-2,10H",
        "InChIKey": null,
        "Canonical SMILES": "IC=1C=C(I)C(O)=C(I)C1",
        "Molecular Formula": "C<sub>6</sub>H<sub>3</sub>I<sub>3</sub>O",
        "Molecular Mass": "471.80",
        "Melting Point": "159.8 °C"
    }
}