{
    "cas_no": "17577-28-5",
    "key_name": "[(Ethoxycarbonyl)methyl]triphenylphosphonium chloride",
    "cn_name": "(乙氧基羰基甲基)三苯基氯化膦;",
    "alternate_name": "Phosphonium, (2-ethoxy-2-oxoethyl)triphenyl-, chloride (1:1);Phosphonium, (carboxymethyl)triphenyl-, chloride, ethyl ester;Phosphonium, (2-ethoxy-2-oxoethyl)triphenyl-, chloride;(Carboxymethyl)triphenylphosphonium chloride, ethyl ester;[(Ethoxycarbonyl)methyl]triphenylphosphonium chloride;Triphenylcarbethoxymethylphosphonium chloride;(2-Ethoxy-2-oxoethyl)triphenylphosphonium chloride",
    "duplicated_cas_no": "",
    "SMILES": "[P+](CC(OCC)=O)(C1=CC=CC=C1)(C2=CC=CC=C2)C3=CC=CC=C3.[Cl-]",
    "meta_data": {
        "InChI": "InChI=1S/C22H22O2P.ClH/c1-2-24-22(23)18-25(19-12-6-3-7-13-19,20-14-8-4-9-15-20)21-16-10-5-11-17-21;/h3-17H,2,18H2,1H3;1H/q+1;/p-1",
        "InChIKey": null,
        "Canonical SMILES": "[Cl-].O=C(OCC)C[P+](C=1C=CC=CC1)(C=2C=CC=CC2)C=3C=CC=CC3",
        "Molecular Formula": "C<sub>22</sub>H<sub>22</sub>O<sub>2</sub>P.Cl",
        "Molecular Mass": "",
        "Melting Point": "90 °C"
    }
}