{
    "cas_no": "215874-86-5",
    "key_name": "α 5IA",
    "cn_name": null,
    "alternate_name": "1,2,4-Triazolo[3,4-<em>a</em>]phthalazine, 3-(5-methyl-3-isoxazolyl)-6-[(1-methyl-1<em>H</em>-1,2,3-triazol-4-yl)methoxy]-;3-(5-Methyl-3-isoxazolyl)-6-[(1-methyl-1<em>H</em>-1,2,3-triazol-4-yl)methoxy]-1,2,4-triazolo[3,4-<em>a</em>]phthalazine;α 5IA",
    "duplicated_cas_no": "",
    "SMILES": "O(CC=1N=NN(C)C1)C2=NN3C(C=4C2=CC=CC4)=NN=C3C5=NOC(C)=C5",
    "meta_data": {
        "InChI": "InChI=1S/C17H14N8O2/c1-10-7-14(22-27-10)16-20-19-15-12-5-3-4-6-13(12)17(21-25(15)16)26-9-11-8-24(2)23-18-11/h3-8H,9H2,1-2H3",
        "InChIKey": null,
        "Canonical SMILES": "N=1N=C2C=3C=CC=CC3C(=NN2C1C4=NOC(=C4)C)OCC=5N=NN(C5)C",
        "Molecular Formula": "C<sub>17</sub>H<sub>14</sub>N<sub>8</sub>O<sub>2</sub>",
        "Molecular Mass": "362.35",
        "Melting Point": "260-262 °C"
    }
}