{
    "cas_no": "2113-05-5",
    "key_name": "Imidodicarbonimidic diamide, <em>N</em>-(3-chlorophenyl)-, hydrochloride (1:1)",
    "cn_name": "1-(3-氯苯基)双胍盐酸盐;1-(对氯苯基)双胍盐酸盐N-(3-氯苯基)亚氨二羰酸二酰胺盐酸盐;ClC6H4NHC(NH)NHC(NH);",
    "alternate_name": "Imidodicarbonimidic diamide, <em>N</em>-(3-chlorophenyl)-, hydrochloride (1:1);Biguanide, 1-(<em>m</em>-chlorophenyl)-, monohydrochloride;Imidodicarbonimidic diamide, <em>N</em>-(3-chlorophenyl)-, monohydrochloride;<em>N</em>-<em>m</em>-Chlorophenylbiguanide hydrochloride;1-(3-Chlorophenyl)biguanide hydrochloride",
    "duplicated_cas_no": "402846-57-5",
    "SMILES": "N(C(NC(=N)N)=N)C1=CC(Cl)=CC=C1.Cl",
    "meta_data": {
        "InChI": "InChI=1S/C8H10ClN5.ClH/c9-5-2-1-3-6(4-5)13-8(12)14-7(10)11;/h1-4H,(H6,10,11,12,13,14);1H",
        "InChIKey": null,
        "Canonical SMILES": "Cl.ClC1=CC=CC(=C1)NC(=N)NC(=N)N",
        "Molecular Formula": "C<sub>8</sub>H<sub>10</sub>ClN<sub>5</sub>.ClH",
        "Molecular Mass": "",
        "Melting Point": "208 °C"
    }
}