{
    "cas_no": "6991-10-2",
    "key_name": "Swertisin",
    "cn_name": null,
    "alternate_name": "4<em>H</em>-1-Benzopyran-4-one, 6-β-<span class=\"text-smallcaps\">D</span>-glucopyranosyl-5-hydroxy-2-(4-hydroxyphenyl)-7-methoxy-;Swertisin;6-β-<span class=\"text-smallcaps\">D</span>-Glucopyranosyl-5-hydroxy-2-(4-hydroxyphenyl)-7-methoxy-4<em>H</em>-1-benzopyran-4-one;Flavocommelitin;6-β-<span class=\"text-smallcaps\">D</span>-Glucopyranosyl-4′,5-dihydroxy-7-methoxyflavone;7-<em>O</em>-Methylapigenin 6-<em>C</em>-β-<span class=\"text-smallcaps\">D</span>-glucopyranoside;NSC 641547;Genkwanin 6-<em>C</em>-glucoside",
    "duplicated_cas_no": "1401-51-0;16049-43-7",
    "SMILES": "O(C)C1=C(C(O)=C2C(=C1)OC(=CC2=O)C3=CC=C(O)C=C3)[C@@H]4O[C@H](CO)[C@@H](O)[C@H](O)[C@H]4O",
    "meta_data": {
        "InChI": "InChI=1S/C22H22O10/c1-30-13-7-14-16(11(25)6-12(31-14)9-2-4-10(24)5-3-9)19(27)17(13)22-21(29)20(28)18(26)15(8-23)32-22/h2-7,15,18,20-24,26-29H,8H2,1H3/t15-,18-,20+,21-,22+/m1/s1",
        "InChIKey": null,
        "Canonical SMILES": "O=C1C=C(OC=2C=C(OC)C(=C(O)C12)C3OC(CO)C(O)C(O)C3O)C=4C=CC(O)=CC4",
        "Molecular Formula": "C<sub>22</sub>H<sub>22</sub>O<sub>10</sub>",
        "Molecular Mass": "446.40",
        "Melting Point": "243 °C (decomp)"
    }
}