{
    "cas_no": "680-05-7",
    "key_name": "Methyl 2,3,3,3-tetrafluoro-2-(trifluoromethyl)propanoate",
    "cn_name": null,
    "alternate_name": "Propanoic acid, 2,3,3,3-tetrafluoro-2-(trifluoromethyl)-, methyl ester;Propionic acid, 2,3,3,3-tetrafluoro-2-(trifluoromethyl)-, methyl ester;Methyl 2,3,3,3-tetrafluoro-2-(trifluoromethyl)propanoate;Methyl perfluoroisobutyrate",
    "duplicated_cas_no": "",
    "SMILES": "C(C(OC)=O)(C(F)(F)F)(C(F)(F)F)F",
    "meta_data": {
        "InChI": "InChI=1S/C5H3F7O2/c1-14-2(13)3(6,4(7,8)9)5(10,11)12/h1H3",
        "InChIKey": null,
        "Canonical SMILES": "O=C(OC)C(F)(C(F)(F)F)C(F)(F)F",
        "Molecular Formula": "C<sub>5</sub>H<sub>3</sub>F<sub>7</sub>O<sub>2</sub>",
        "Molecular Mass": "228.06",
        "Boiling Point": "57-58 °C"
    }
}