{
    "cas_no": "1440-00-2",
    "key_name": "4,4′-[6-(4-Methoxyphenyl)-1,3,5-triazine-2,4-diyl]bis[1,3-benzenediol]",
    "cn_name": null,
    "alternate_name": "1,3-Benzenediol, 4,4′-[6-(4-methoxyphenyl)-1,3,5-triazine-2,4-diyl]bis-;Resorcinol, 4,4′-[6-(<em>p</em>-methoxyphenyl)-<em>s</em>-triazine-2,4-diyl]di-;4,4′-[6-(4-Methoxyphenyl)-1,3,5-triazine-2,4-diyl]bis[1,3-benzenediol];2,4-Bis(2,4-dihydroxyphenyl)-6-(4-methoxyphenyl)-1,3,5-triazine",
    "duplicated_cas_no": "",
    "SMILES": "OC1=C(C=2N=C(N=C(N2)C3=CC=C(OC)C=C3)C4=C(O)C=C(O)C=C4)C=CC(O)=C1",
    "meta_data": {
        "InChI": "InChI=1S/C22H17N3O5/c1-30-15-6-2-12(3-7-15)20-23-21(16-8-4-13(26)10-18(16)28)25-22(24-20)17-9-5-14(27)11-19(17)29/h2-11,26-29H,1H3",
        "InChIKey": null,
        "Canonical SMILES": "OC=1C=CC(=C(O)C1)C2=NC(=NC(=N2)C=3C=CC(O)=CC3O)C=4C=CC(OC)=CC4",
        "Molecular Formula": "C<sub>22</sub>H<sub>17</sub>N<sub>3</sub>O<sub>5</sub>",
        "Molecular Mass": "403.39",
        "Melting Point": "&gt;360 °C"
    }
}