{
    "cas_no": "72822-12-9",
    "key_name": "Dapiprazole",
    "cn_name": "达哌唑;哌吡三唑;3-[2-[4-(2-甲基苯基)哌嗪-1-基]乙基]-5,6,7,8-四氢-[1,2,4]三唑并[4,5-a]吡啶;",
    "alternate_name": "1,2,4-Triazolo[4,3-<em>a</em>]pyridine, 5,6,7,8-tetrahydro-3-[2-[4-(2-methylphenyl)-1-piperazinyl]ethyl]-;5,6,7,8-Tetrahydro-3-[2-[4-(2-methylphenyl)-1-piperazinyl]ethyl]-1,2,4-triazolo[4,3-<em>a</em>]pyridine;Dapiprazole",
    "duplicated_cas_no": "",
    "SMILES": "C(CN1CCN(CC1)C2=C(C)C=CC=C2)C=3N4C(=NN3)CCCC4",
    "meta_data": {
        "InChI": "InChI=1S/C19H27N5/c1-16-6-2-3-7-17(16)23-14-12-22(13-15-23)11-9-19-21-20-18-8-4-5-10-24(18)19/h2-3,6-7H,4-5,8-15H2,1H3",
        "InChIKey": null,
        "Canonical SMILES": "N=1N=C2N(C1CCN3CCN(C=4C=CC=CC4C)CC3)CCCC2",
        "Molecular Formula": "C<sub>19</sub>H<sub>27</sub>N<sub>5</sub>",
        "Molecular Mass": "325.45",
        "Melting Point": "158-160 °C"
    }
}