{
    "cas_no": "40119-17-3",
    "key_name": "Hydrazine, (3,4-dimethoxyphenyl)-, hydrochloride (1:1)",
    "cn_name": null,
    "alternate_name": "Hydrazine, (3,4-dimethoxyphenyl)-, hydrochloride (1:1);Hydrazine, (3,4-dimethoxyphenyl)-, monohydrochloride;3,4-Dimethoxyphenylhydrazine hydrochloride;(3,4-Dimethoxyphenyl)hydrazine monohydrochloride",
    "duplicated_cas_no": "",
    "SMILES": "O(C)C1=C(OC)C=CC(NN)=C1.Cl",
    "meta_data": {
        "InChI": "InChI=1S/C8H12N2O2.ClH/c1-11-7-4-3-6(10-9)5-8(7)12-2;/h3-5,10H,9H2,1-2H3;1H",
        "InChIKey": null,
        "Canonical SMILES": "Cl.O(C1=CC=C(C=C1OC)NN)C",
        "Molecular Formula": "C<sub>8</sub>H<sub>12</sub>N<sub>2</sub>O<sub>2</sub>.ClH",
        "Molecular Mass": "",
        "Melting Point": "162 °C (decomp)"
    }
}