{
    "cas_no": "2353-33-5",
    "key_name": "5-Aza-2′-deoxycytidine",
    "cn_name": "5-氮杂-2\"-脱氧胞嘧啶核苷;5-氮杂-2\"-脱氧胞苷;",
    "alternate_name": "1,3,5-Triazin-2(1<em>H</em>)-one, 4-amino-1-(2-deoxy-β-<span class=\"text-smallcaps\">D</span>-<em>erythro</em>-pentofuranosyl)-;<em>s</em>-Triazin-2(1<em>H</em>)-one, 4-amino-1-(2-deoxy-β-<span class=\"text-smallcaps\">D</span>-<em>erythro</em>-pentofuranosyl)-;4-Amino-1-(2-deoxy-β-<span class=\"text-smallcaps\">D</span>-<em>erythro</em>-pentofuranosyl)-1,3,5-triazin-2(1<em>H</em>)-one;5-Aza-2′-deoxycytidine;5-Azadeoxycytidine;2-Desoxy-5-azacytidine;2′-Deoxy-5-azacytidine;Decitabine;NSC 127716;DAC;Dacogen;β-Decitabine;5-Aza-2-deoxycytidine;4-Amino-1-(2-deoxy-β-<span class=\"text-smallcaps\">D</span>-ribofuranosyl)-1,3,5-triazin-2(1<em>H</em>)-one;A 2232;NSC127716",
    "duplicated_cas_no": "105597-46-4;123795-43-7",
    "SMILES": "O=C1N([C@@H]2O[C@H](CO)[C@@H](O)C2)C=NC(N)=N1",
    "meta_data": {
        "InChI": "InChI=1S/C8H12N4O4/c9-7-10-3-12(8(15)11-7)6-1-4(14)5(2-13)16-6/h3-6,13-14H,1-2H2,(H2,9,11,15)/t4-,5+,6+/m0/s1",
        "InChIKey": null,
        "Canonical SMILES": "O=C1N=C(N=CN1C2OC(CO)C(O)C2)N",
        "Molecular Formula": "C<sub>8</sub>H<sub>12</sub>N<sub>4</sub>O<sub>4</sub>",
        "Molecular Mass": "228.21",
        "Melting Point": "198-199 °C (decomp)"
    }
}