{
    "cas_no": "2650-64-8",
    "key_name": "<em>N</em><sup>2</sup>-[(Phenylmethoxy)carbonyl]-<span class=\"text-smallcaps\">L</span>-glutamine",
    "cn_name": "N-苄氧羰基-L-谷氨酰胺;",
    "alternate_name": "<span class=\"text-smallcaps\">L</span>-Glutamine, <em>N</em><sup>2</sup>-[(phenylmethoxy)carbonyl]-;Glutamine, <em>N</em><sup>2</sup>-carboxy-, <em>N</em><sup>2</sup>-benzyl ester, <span class=\"text-smallcaps\">L</span>-;Glutamine, <em>N</em><sup>2</sup>-carboxy-, <em>N</em>-benzyl ester;<em>N</em><sup>2</sup>-[(Phenylmethoxy)carbonyl]-<span class=\"text-smallcaps\">L</span>-glutamine;Carbobenzoxy-<span class=\"text-smallcaps\">L</span>-glutamine;Benzyloxycarbonyl-<span class=\"text-smallcaps\">L</span>-glutamine;<em>N</em><sup>α</sup>-Benzyloxycarbonyl-<span class=\"text-smallcaps\">L</span>-glutamine;<em>N</em><sup>2</sup>-Carbobenzoxy-<span class=\"text-smallcaps\">L</span>-glutamine;<em>N</em>-Carbobenzoxy-<span class=\"text-smallcaps\">L</span>-glutamine;<em>N</em>-(Benzyloxycarbonyl)-<span class=\"text-smallcaps\">L</span>-glutamine;<em>N</em><sup>2</sup>-Benzyloxycarbonyl-<span class=\"text-smallcaps\">L</span>-glutamine;<em>N</em><sup>2</sup>-Benzoxycarbonyl-<span class=\"text-smallcaps\">L</span>-glutamine;NSC 186903;Cbz-<span class=\"text-smallcaps\">L</span>-glutamine;(2S)-5-Amino-5-oxo-2-(phenylmethoxycarbonylamino)pentanoic acid;(2S)-2-[[(Benzyloxy)carbonyl]amino]-4-carbamoylbutanoic acid",
    "duplicated_cas_no": "22259-08-1",
    "SMILES": "C(OC(N[C@@H](CCC(N)=O)C(O)=O)=O)C1=CC=CC=C1",
    "meta_data": {
        "InChI": "InChI=1S/C13H16N2O5/c14-11(16)7-6-10(12(17)18)15-13(19)20-8-9-4-2-1-3-5-9/h1-5,10H,6-8H2,(H2,14,16)(H,15,19)(H,17,18)/t10-/m0/s1",
        "InChIKey": null,
        "Canonical SMILES": "O=C(OCC=1C=CC=CC1)NC(C(=O)O)CCC(=O)N",
        "Molecular Formula": "C<sub>13</sub>H<sub>16</sub>N<sub>2</sub>O<sub>5</sub>",
        "Molecular Mass": "280.28",
        "Melting Point": "136-137 °C"
    }
}