{
    "cas_no": "99485-76-4",
    "key_name": "Cumyluron",
    "cn_name": null,
    "alternate_name": "Urea, <em>N</em>-[(2-chlorophenyl)methyl]-<em>N</em>′-(1-methyl-1-phenylethyl)-;<em>N</em>-[(2-Chlorophenyl)methyl]-<em>N</em>′-(1-methyl-1-phenylethyl)urea;1-(2-Chlorobenzyl)-3-(α,α-dimethylbenzyl)urea;JC 940;IC 940;Cumyluron;Dibenzyluron;Cumyleron",
    "duplicated_cas_no": "",
    "SMILES": "C(NC(NCC1=C(Cl)C=CC=C1)=O)(C)(C)C2=CC=CC=C2",
    "meta_data": {
        "InChI": "InChI=1S/C17H19ClN2O/c1-17(2,14-9-4-3-5-10-14)20-16(21)19-12-13-8-6-7-11-15(13)18/h3-11H,12H2,1-2H3,(H2,19,20,21)",
        "InChIKey": null,
        "Canonical SMILES": "O=C(NCC=1C=CC=CC1Cl)NC(C=2C=CC=CC2)(C)C",
        "Molecular Formula": "C<sub>17</sub>H<sub>19</sub>ClN<sub>2</sub>O",
        "Molecular Mass": "302.80",
        "Melting Point": "150-153 °C"
    }
}