{
    "cas_no": "60956-25-4",
    "key_name": "2-Bromo-1,3-dimethyl-4-nitrobenzene",
    "cn_name": null,
    "alternate_name": "Benzene, 2-bromo-1,3-dimethyl-4-nitro-;2-Bromo-1,3-dimethyl-4-nitrobenzene;2,6-Dimethyl-3-nitrobromobenzene",
    "duplicated_cas_no": "",
    "SMILES": "N(=O)(=O)C1=C(C)C(Br)=C(C)C=C1",
    "meta_data": {
        "InChI": "InChI=1S/C8H8BrNO2/c1-5-3-4-7(10(11)12)6(2)8(5)9/h3-4H,1-2H3",
        "InChIKey": null,
        "Canonical SMILES": "O=N(=O)C1=CC=C(C(Br)=C1C)C",
        "Molecular Formula": "C<sub>8</sub>H<sub>8</sub>BrNO<sub>2</sub>",
        "Molecular Mass": "230.06",
        "Melting Point": "53 °C"
    }
}