{
    "cas_no": "4093-89-4",
    "key_name": "<em>N</em>-Methyl-5-nitro-2-pyridinamine",
    "cn_name": "2-甲基氨基-5-硝基吡啶;",
    "alternate_name": "2-Pyridinamine, <em>N</em>-methyl-5-nitro-;Pyridine, 2-(methylamino)-5-nitro-;<em>N</em>-Methyl-5-nitro-2-pyridinamine;3-Nitro-6-methylaminopyridine;NSC 102502;2-(Methylamino)-5-nitropyridine;<em>N</em>-Methyl-5-nitropyridin-2-amine",
    "duplicated_cas_no": "",
    "SMILES": "N(=O)(=O)C=1C=CC(NC)=NC1",
    "meta_data": {
        "InChI": "InChI=1S/C6H7N3O2/c1-7-6-3-2-5(4-8-6)9(10)11/h2-4H,1H3,(H,7,8)",
        "InChIKey": null,
        "Canonical SMILES": "O=N(=O)C1=CN=C(C=C1)NC",
        "Molecular Formula": "C<sub>6</sub>H<sub>7</sub>N<sub>3</sub>O<sub>2</sub>",
        "Molecular Mass": "153.14",
        "Melting Point": "181 °C"
    }
}