{
    "cas_no": "2719-23-5",
    "key_name": "<em>N</em>-2-Thiazolylacetamide",
    "cn_name": "2-乙酸胺基噻唑;2-乙酰胺基噻唑;乙酰基氨基噻唑;4-乙酰胺基噻唑;2-乙酸胺基噻唑;2-乙酰氨基噻唑;2-乙酸胺基;",
    "alternate_name": "Acetamide, <em>N</em>-2-thiazolyl-;Thiazole, 2-acetamido-;<em>N</em>-2-Thiazolylacetamide;2-Acetamidothiazole;2-Acetamido-1,3-thiazole;2-Acetylaminothiazole;NSC 18750;NSC 44844;<em>N</em>-(1,3-Thiazol-2-yl)acetamide;2-(Methylcarbonylamino)thiazole",
    "duplicated_cas_no": "",
    "SMILES": "N(C(C)=O)C1=NC=CS1",
    "meta_data": {
        "InChI": "InChI=1S/C5H6N2OS/c1-4(8)7-5-6-2-3-9-5/h2-3H,1H3,(H,6,7,8)",
        "InChIKey": null,
        "Canonical SMILES": "O=C(NC1=NC=CS1)C",
        "Molecular Formula": "C<sub>5</sub>H<sub>6</sub>N<sub>2</sub>OS",
        "Molecular Mass": "142.18",
        "Melting Point": "208 °C"
    }
}