{
    "cas_no": "14062-18-1",
    "key_name": "Benzeneacetic acid, 4-methoxy-, ethyl ester",
    "cn_name": "对甲氧基苯乙酸乙酯;",
    "alternate_name": "Benzeneacetic acid, 4-methoxy-, ethyl ester;Acetic acid, (<em>p</em>-methoxyphenyl)-, ethyl ester;Ethyl <em>p</em>-methoxyphenylacetate;<em>p</em>-Methoxyphenylacetic acid ethyl ester;Ethyl 2-(<em>p</em>-anisyl)acetate;Ethyl (4-methoxyphenyl)acetate;Ethyl 4-methoxybenzeneacetate;Ethyl 2-(4-methoxyphenyl)acetate;2-(<em>p</em>-Methoxyphenyl)acetic acid ethyl ester;NSC 24760;(4-Methoxyphenyl)acetic acid ethyl ester",
    "duplicated_cas_no": "",
    "SMILES": "C(C(OCC)=O)C1=CC=C(OC)C=C1",
    "meta_data": {
        "InChI": "InChI=1S/C11H14O3/c1-3-14-11(12)8-9-4-6-10(13-2)7-5-9/h4-7H,3,8H2,1-2H3",
        "InChIKey": null,
        "Canonical SMILES": "O=C(OCC)CC1=CC=C(OC)C=C1",
        "Molecular Formula": "C<sub>11</sub>H<sub>14</sub>O<sub>3</sub>",
        "Molecular Mass": "194.23",
        "Boiling Point": "138-140 °C",
        "Melting Point": "85 °C"
    }
}