{
    "cas_no": "1632-89-9",
    "key_name": "Acetaldehyde-<em>1</em>,<em>2</em>,<em>2</em>,<em>2</em>-<em>d</em><sub>4</sub>",
    "cn_name": "乙醛-d4;",
    "alternate_name": "Acetaldehyde-<em>1</em>,<em>2</em>,<em>2</em>,<em>2</em>-<em>d</em><sub>4</sub>;Acetaldehyde-<em>d</em><sub>4</sub>;Tetradeuteroacetaldehyde;Perdeuterioacetaldehyde;Ethanal-<em>d</em><sub>4</sub>;Perdeuteroacetaldehyde;1,2,2,2-Tetradeuterioethanone",
    "duplicated_cas_no": "",
    "SMILES": "C(C([2H])([2H])[2H])(=O)[2H]",
    "meta_data": {
        "InChI": "InChI=1S/C2H4O/c1-2-3/h2H,1H3/i1D3,2D",
        "InChIKey": null,
        "Canonical SMILES": "O=CC",
        "Molecular Formula": "C<sub>2</sub>D<sub>4</sub>O",
        "Molecular Mass": "",
        "Boiling Point": "20.5 °C @ Press: 756 Torr",
        "Melting Point": "-121.7 °C",
        "Density": "0.883 g/cm³ @ Temp: 0 °C"
    }
}