{
    "cas_no": "1745-81-9",
    "key_name": "2-Allylphenol",
    "cn_name": "2-烯丙基酚;",
    "alternate_name": "Phenol, 2-(2-propen-1-yl)-;Phenol, <em>o</em>-allyl-;Phenol, 2-(2-propenyl)-;2-(2-Propen-1-yl)phenol;2-Allylphenol;<em>o</em>-Allylphenol;2-(2-Propenyl)phenol;NSC 1538;<em>o</em>-(2-Propenyl)phenol;Yinguo;6-(Prop-2-en-1-yl)phenol",
    "duplicated_cas_no": "",
    "SMILES": "C(C=C)C1=C(O)C=CC=C1",
    "meta_data": {
        "InChI": "InChI=1S/C9H10O/c1-2-5-8-6-3-4-7-9(8)10/h2-4,6-7,10H,1,5H2",
        "InChIKey": null,
        "Canonical SMILES": "OC=1C=CC=CC1CC=C",
        "Molecular Formula": "C<sub>9</sub>H<sub>10</sub>O",
        "Molecular Mass": "134.18",
        "Boiling Point": "220 °C",
        "Melting Point": "-6 °C",
        "Density": "1.0161 g/cm³ @ Temp: 20 °C"
    }
}