{
    "cas_no": "2258-21-1",
    "key_name": "2-Methyl-1<em>H</em>-imidazole-1-propanamine",
    "cn_name": "3-(2-甲基-1H-咪唑-1-基)丙胺;",
    "alternate_name": "1<em>H</em>-Imidazole-1-propanamine, 2-methyl-;Imidazole, 1-(3-aminopropyl)-2-methyl-;2-Methyl-1<em>H</em>-imidazole-1-propanamine;1-(3-Aminopropyl)-2-methylimidazole;1-(3′-Aminopropyl)-2-methylimidazole;3-(2-Methylimidazol-1-yl)propylamine;3-(2-Methylimidazol-1-yl)propan-1-amine",
    "duplicated_cas_no": "",
    "SMILES": "C(CCN)N1C(C)=NC=C1",
    "meta_data": {
        "InChI": "InChI=1S/C7H13N3/c1-7-9-4-6-10(7)5-2-3-8/h4,6H,2-3,5,8H2,1H3",
        "InChIKey": null,
        "Canonical SMILES": "N=1C=CN(C1C)CCCN",
        "Molecular Formula": "C<sub>7</sub>H<sub>13</sub>N<sub>3</sub>",
        "Molecular Mass": "139.20",
        "Boiling Point": "110-112 °C @ Press: 2-3 Torr"
    }
}