{
    "cas_no": "39267-04-4",
    "key_name": "2,3-Dichloro-6-methoxyquinoxaline",
    "cn_name": null,
    "alternate_name": "Quinoxaline, 2,3-dichloro-6-methoxy-;2,3-Dichloro-6-methoxyquinoxaline;6-Methoxy-2,3-dichloroquinoxaline",
    "duplicated_cas_no": "",
    "SMILES": "O(C)C1=CC2=C(N=C(Cl)C(Cl)=N2)C=C1",
    "meta_data": {
        "InChI": "InChI=1S/C9H6Cl2N2O/c1-14-5-2-3-6-7(4-5)13-9(11)8(10)12-6/h2-4H,1H3",
        "InChIKey": null,
        "Canonical SMILES": "ClC=1N=C2C=CC(OC)=CC2=NC1Cl",
        "Molecular Formula": "C<sub>9</sub>H<sub>6</sub>Cl<sub>2</sub>N<sub>2</sub>O",
        "Molecular Mass": "229.06",
        "Melting Point": "160 °C"
    }
}