{
    "cas_no": "619-17-0",
    "key_name": "2-Amino-4-nitrobenzoic acid",
    "cn_name": "2-氨基-4-硝基苯甲酸;4-硝基-2-氨基苯甲酸;",
    "alternate_name": "Benzoic acid, 2-amino-4-nitro-;Anthranilic acid, 4-nitro-;2-Amino-4-nitrobenzoic acid;4-Nitroanthranilic acid;2-Carboxy-5-nitroaniline;4-Nitro-2-aminobenzoic acid;NSC 7789;2-Azaniumyl-4-nitrobenzoate",
    "duplicated_cas_no": "",
    "SMILES": "N(=O)(=O)C1=CC(N)=C(C(O)=O)C=C1",
    "meta_data": {
        "InChI": "InChI=1S/C7H6N2O4/c8-6-3-4(9(12)13)1-2-5(6)7(10)11/h1-3H,8H2,(H,10,11)",
        "InChIKey": null,
        "Canonical SMILES": "O=C(O)C1=CC=C(C=C1N)N(=O)=O",
        "Molecular Formula": "C<sub>7</sub>H<sub>6</sub>N<sub>2</sub>O<sub>4</sub>",
        "Molecular Mass": "182.13",
        "Melting Point": "269 °C"
    }
}