{
    "cas_no": "621-54-5",
    "key_name": "3-(3′-Hydroxyphenyl)propionic acid",
    "cn_name": "3-(3-羟基苯基)丙酸;",
    "alternate_name": "Benzenepropanoic acid, 3-hydroxy-;Hydrocinnamic acid, <em>m</em>-hydroxy-;3-Hydroxybenzenepropanoic acid;<em>m</em>-Hydroxyphenylpropionic acid;β-(<em>m</em>-Hydroxyphenyl)propionic acid;3-(<em>m</em>-Hydroxyphenyl)propionic acid;3-Hydroxyphenylpropionic acid;β-(3-Hydroxyphenyl)propionic acid;Dihydro-<em>m</em>-coumaric acid;3-Hydroxydihydrocinnamic acid;3-(3-Hydroxyphenyl)propionic acid;3-(3-Hydroxyphenyl)propanoic acid;NSC 33135;NSC 39468;3-(3′-Hydroxyphenyl)propionic acid;MFCD 00002598;<em>m</em>-Hydroxybenzene propanoic acid",
    "duplicated_cas_no": "",
    "SMILES": "C(CC(O)=O)C1=CC(O)=CC=C1",
    "meta_data": {
        "InChI": "InChI=1S/C9H10O3/c10-8-3-1-2-7(6-8)4-5-9(11)12/h1-3,6,10H,4-5H2,(H,11,12)",
        "InChIKey": null,
        "Canonical SMILES": "O=C(O)CCC=1C=CC=C(O)C1",
        "Molecular Formula": "C<sub>9</sub>H<sub>10</sub>O<sub>3</sub>",
        "Molecular Mass": "166.17",
        "Melting Point": "99-100 °C"
    }
}